/*--------------------------------*- C++ -*----------------------------------*\
  =========                 |
  \\      /  F ield         | OpenFOAM: The Open Source CFD Toolbox
   \\    /   O peration     | Website:  https://openfoam.org
    \\  /    A nd           | Version:  7
     \\/     M anipulation  |
\*---------------------------------------------------------------------------*/
FoamFile
{
    version     2.0;
    format      ascii;
    class       volScalarField;
    location    "0.44";
    object      k;
}
// * * * * * * * * * * * * * * * * * * * * * * * * * * * * * * * * * * * * * //

dimensions      [0 2 -2 0 0 0 0];

internalField   nonuniform List<scalar> 
70000
(
1.08549e-05
4.21879e-06
2.82439e-06
2.31681e-06
1.9975e-06
1.75711e-06
1.56512e-06
1.4082e-06
1.2774e-06
1.16667e-06
1.07174e-06
9.89711e-07
9.18169e-07
8.55495e-07
8.00091e-07
7.51051e-07
7.07138e-07
6.67948e-07
6.3244e-07
6.00569e-07
5.71405e-07
5.45098e-07
5.2084e-07
4.98816e-07
4.78424e-07
4.59728e-07
4.42442e-07
4.26349e-07
4.11595e-07
3.97578e-07
3.84897e-07
3.72596e-07
3.61581e-07
3.50786e-07
3.41035e-07
3.31661e-07
3.22795e-07
3.14801e-07
3.06546e-07
2.99791e-07
2.92123e-07
2.8637e-07
2.79321e-07
2.7521e-07
2.67814e-07
2.66669e-07
2.57889e-07
2.63621e-07
2.61781e-07
3.17667e-07
1.72795e-05
1.13673e-05
8.52064e-06
7.01044e-06
6.03721e-06
5.31081e-06
4.73131e-06
4.25742e-06
3.86235e-06
3.52792e-06
3.24123e-06
2.9935e-06
2.7774e-06
2.5881e-06
2.42071e-06
2.27255e-06
2.13984e-06
2.02141e-06
1.91407e-06
1.81772e-06
1.72957e-06
1.64999e-06
1.57668e-06
1.51002e-06
1.44842e-06
1.39179e-06
1.33959e-06
1.29082e-06
1.24627e-06
1.20379e-06
1.16548e-06
1.12823e-06
1.0949e-06
1.06227e-06
1.03269e-06
1.00442e-06
9.77483e-07
9.53378e-07
9.28361e-07
9.07865e-07
8.84828e-07
8.6698e-07
8.46159e-07
8.32156e-07
8.11054e-07
8.04484e-07
7.81115e-07
7.87685e-07
7.94963e-07
8.48691e-07
1.93701e-05
1.61297e-05
1.32912e-05
1.12896e-05
9.82856e-06
8.69589e-06
7.77815e-06
7.02019e-06
6.38366e-06
5.84211e-06
5.37615e-06
4.97236e-06
4.61918e-06
4.30917e-06
4.03443e-06
3.79088e-06
3.57227e-06
3.37693e-06
3.19966e-06
3.0403e-06
2.89444e-06
2.76247e-06
2.64104e-06
2.53019e-06
2.42809e-06
2.33369e-06
2.24713e-06
2.16568e-06
2.09173e-06
2.02074e-06
1.957e-06
1.89482e-06
1.83916e-06
1.78483e-06
1.73523e-06
1.68823e-06
1.643e-06
1.60281e-06
1.56107e-06
1.5264e-06
1.4886e-06
1.45737e-06
1.42425e-06
1.39739e-06
1.36549e-06
1.34914e-06
1.31467e-06
1.31048e-06
1.34562e-06
1.36715e-06
1.9861e-05
1.826e-05
1.60858e-05
1.42003e-05
1.26403e-05
1.13486e-05
1.02607e-05
9.33822e-06
8.54679e-06
7.86328e-06
7.26863e-06
6.74882e-06
6.29059e-06
5.88596e-06
5.52514e-06
5.20372e-06
4.91375e-06
4.65362e-06
4.41673e-06
4.20295e-06
4.00701e-06
3.82882e-06
3.66504e-06
3.51447e-06
3.37633e-06
3.24745e-06
3.13001e-06
3.01837e-06
2.9177e-06
2.82021e-06
2.73307e-06
2.64769e-06
2.57114e-06
2.49663e-06
2.42807e-06
2.36358e-06
2.30106e-06
2.24543e-06
2.18834e-06
2.13925e-06
2.08872e-06
2.043e-06
2.00025e-06
1.95752e-06
1.91927e-06
1.88629e-06
1.8506e-06
1.82055e-06
1.87949e-06
1.8752e-06
1.99707e-05
1.78458e-05
1.60749e-05
1.47665e-05
1.36027e-05
1.25376e-05
1.15695e-05
1.07017e-05
9.92082e-06
9.22503e-06
8.605e-06
8.0522e-06
7.55637e-06
7.11254e-06
6.71136e-06
6.35004e-06
6.02063e-06
5.72258e-06
5.44931e-06
5.2007e-06
4.97204e-06
4.76214e-06
4.56923e-06
4.38985e-06
4.22593e-06
4.07092e-06
3.93056e-06
3.79534e-06
3.67418e-06
3.55561e-06
3.4499e-06
3.34585e-06
3.25226e-06
3.16128e-06
3.07703e-06
2.99783e-06
2.92116e-06
2.85173e-06
2.78277e-06
2.71967e-06
2.66017e-06
2.59973e-06
2.55072e-06
2.49231e-06
2.45088e-06
2.39849e-06
2.36634e-06
2.3074e-06
2.3654e-06
2.35042e-06
2.00095e-05
1.47038e-05
1.37477e-05
1.32108e-05
1.25915e-05
1.19273e-05
1.12783e-05
1.06579e-05
1.00813e-05
9.54726e-06
9.04687e-06
8.58067e-06
8.14696e-06
7.74735e-06
7.3756e-06
7.03307e-06
6.71463e-06
6.42172e-06
6.14983e-06
5.89866e-06
5.66592e-06
5.44876e-06
5.24873e-06
5.05938e-06
4.88681e-06
4.72046e-06
4.57058e-06
4.42373e-06
4.29272e-06
4.16288e-06
4.0472e-06
3.93251e-06
3.82903e-06
3.72799e-06
3.63432e-06
3.54522e-06
3.46035e-06
3.38033e-06
3.30529e-06
3.23028e-06
3.16688e-06
3.09383e-06
3.04201e-06
2.9712e-06
2.92809e-06
2.86128e-06
2.82771e-06
2.75272e-06
2.79247e-06
2.7779e-06
2.01331e-05
1.54682e-05
9.63453e-06
9.39801e-06
9.49295e-06
9.49248e-06
9.43436e-06
9.29675e-06
9.05684e-06
8.78339e-06
8.48898e-06
8.19203e-06
7.90017e-06
7.61735e-06
7.34018e-06
7.07978e-06
6.83245e-06
6.5978e-06
6.37484e-06
6.1624e-06
5.96247e-06
5.7703e-06
5.59207e-06
5.41848e-06
5.26013e-06
5.10303e-06
4.96199e-06
4.82061e-06
4.69474e-06
4.56777e-06
4.45453e-06
4.34073e-06
4.23799e-06
4.13611e-06
4.04244e-06
3.95062e-06
3.86609e-06
3.78109e-06
3.7074e-06
3.62553e-06
3.56372e-06
3.48368e-06
3.43229e-06
3.35534e-06
3.3118e-06
3.23881e-06
3.20326e-06
3.12115e-06
3.13905e-06
3.12168e-06
2.01713e-05
1.86764e-05
8.69376e-06
5.54035e-06
5.63059e-06
5.93467e-06
6.29345e-06
6.57923e-06
6.75994e-06
6.86925e-06
6.88982e-06
6.87079e-06
6.81914e-06
6.73124e-06
6.62076e-06
6.4988e-06
6.36115e-06
6.21857e-06
6.07673e-06
5.93287e-06
5.79389e-06
5.65349e-06
5.5218e-06
5.38788e-06
5.26501e-06
5.13997e-06
5.02841e-06
4.91242e-06
4.80905e-06
4.70158e-06
4.60557e-06
4.50644e-06
4.41731e-06
4.32594e-06
4.24361e-06
4.15851e-06
4.08421e-06
4.00257e-06
3.93795e-06
3.85765e-06
3.80272e-06
3.72438e-06
3.67712e-06
3.60206e-06
3.56092e-06
3.48926e-06
3.45436e-06
3.37292e-06
3.37332e-06
3.35338e-06
2.01671e-05
1.9724e-05
1.61684e-05
4.86256e-06
3.04254e-06
3.10584e-06
3.37508e-06
3.80551e-06
4.17215e-06
4.49087e-06
4.73904e-06
4.92954e-06
5.07059e-06
5.17162e-06
5.23051e-06
5.26693e-06
5.27085e-06
5.26212e-06
5.24081e-06
5.1999e-06
5.15409e-06
5.09555e-06
5.03767e-06
4.96903e-06
4.9045e-06
4.82941e-06
4.76074e-06
4.68342e-06
4.61407e-06
4.53806e-06
4.47002e-06
4.39651e-06
4.33098e-06
4.26013e-06
4.19823e-06
4.12927e-06
4.07289e-06
4.00403e-06
3.95494e-06
3.88678e-06
3.84374e-06
3.77697e-06
3.73834e-06
3.67363e-06
3.6389e-06
3.5762e-06
3.54538e-06
3.47551e-06
3.46648e-06
3.44202e-06
2.01476e-05
1.99343e-05
1.90659e-05
1.45e-05
5.24502e-06
2.15493e-06
1.91482e-06
1.99429e-06
2.20824e-06
2.50766e-06
2.78408e-06
3.03825e-06
3.26366e-06
3.46116e-06
3.62559e-06
3.76404e-06
3.87663e-06
3.9644e-06
4.03721e-06
4.08791e-06
4.12828e-06
4.15008e-06
4.16681e-06
4.16755e-06
4.1645e-06
4.15444e-06
4.14184e-06
4.11837e-06
4.09682e-06
4.06667e-06
4.03904e-06
4.00436e-06
3.97317e-06
3.93483e-06
3.90261e-06
3.86103e-06
3.82975e-06
3.7851e-06
3.75538e-06
3.7078e-06
3.67936e-06
3.63108e-06
3.60398e-06
3.5557e-06
3.53015e-06
3.48202e-06
3.45786e-06
3.40446e-06
3.39163e-06
3.3682e-06
2.01216e-05
1.99661e-05
1.96426e-05
1.85468e-05
1.52137e-05
8.36121e-06
3.106e-06
1.63335e-06
1.44274e-06
1.45006e-06
1.52759e-06
1.68953e-06
1.8723e-06
2.04975e-06
2.22086e-06
2.38011e-06
2.52874e-06
2.65915e-06
2.77917e-06
2.88151e-06
2.97483e-06
3.05158e-06
3.12108e-06
3.17647e-06
3.22544e-06
3.2629e-06
3.29707e-06
3.32062e-06
3.34145e-06
3.35421e-06
3.36441e-06
3.3692e-06
3.37032e-06
3.36858e-06
3.36504e-06
3.35645e-06
3.3499e-06
3.33557e-06
3.32692e-06
3.30868e-06
3.2982e-06
3.27673e-06
3.26473e-06
3.24061e-06
3.22733e-06
3.20071e-06
3.18625e-06
3.15442e-06
3.14206e-06
3.12463e-06
2.00981e-05
1.99327e-05
1.97575e-05
1.93528e-05
1.85067e-05
1.65375e-05
1.2329e-05
6.85873e-06
2.98467e-06
1.49264e-06
1.24318e-06
1.14807e-06
1.15274e-06
1.19597e-06
1.2896e-06
1.39656e-06
1.51052e-06
1.61989e-06
1.73158e-06
1.83579e-06
1.93737e-06
2.02941e-06
2.11733e-06
2.19572e-06
2.26979e-06
2.33459e-06
2.39559e-06
2.44839e-06
2.49751e-06
2.53946e-06
2.57842e-06
2.61081e-06
2.64132e-06
2.66502e-06
2.68882e-06
2.70513e-06
2.72324e-06
2.73326e-06
2.74642e-06
2.75168e-06
2.75991e-06
2.76174e-06
2.76501e-06
2.76432e-06
2.76309e-06
2.75887e-06
2.7551e-06
2.74453e-06
2.73972e-06
2.7304e-06
2.00781e-05
1.98876e-05
1.97571e-05
1.94613e-05
1.91463e-05
1.86415e-05
1.75559e-05
1.54267e-05
1.17383e-05
7.43868e-06
3.97411e-06
1.90833e-06
1.2073e-06
1.05714e-06
9.81804e-07
9.43599e-07
9.55371e-07
9.90105e-07
1.05342e-06
1.11724e-06
1.1876e-06
1.25725e-06
1.3289e-06
1.39876e-06
1.46811e-06
1.5334e-06
1.59708e-06
1.6562e-06
1.71337e-06
1.76558e-06
1.81647e-06
1.86156e-06
1.90624e-06
1.9447e-06
1.9832e-06
2.01571e-06
2.04865e-06
2.07533e-06
2.10339e-06
2.1253e-06
2.14805e-06
2.16572e-06
2.18427e-06
2.19731e-06
2.21184e-06
2.22016e-06
2.23097e-06
2.23357e-06
2.23882e-06
2.23793e-06
2.00614e-05
1.98539e-05
1.97345e-05
1.94716e-05
1.92556e-05
1.90474e-05
1.8736e-05
1.81906e-05
1.70961e-05
1.52305e-05
1.25593e-05
9.22087e-06
5.9543e-06
3.46158e-06
1.86933e-06
1.16336e-06
9.63965e-07
8.90608e-07
8.36076e-07
7.97329e-07
7.99712e-07
8.13957e-07
8.44773e-07
8.83828e-07
9.24103e-07
9.66869e-07
1.01162e-06
1.05641e-06
1.10241e-06
1.14715e-06
1.19249e-06
1.23471e-06
1.27764e-06
1.31706e-06
1.35657e-06
1.39295e-06
1.42935e-06
1.46158e-06
1.49508e-06
1.5239e-06
1.55326e-06
1.57847e-06
1.60493e-06
1.62598e-06
1.64823e-06
1.6662e-06
1.68359e-06
1.69742e-06
1.7081e-06
1.71807e-06
2.00475e-05
1.98304e-05
1.97079e-05
1.94495e-05
1.92726e-05
1.91153e-05
1.89653e-05
1.875e-05
1.84617e-05
1.79109e-05
1.70754e-05
1.56939e-05
1.38727e-05
1.15135e-05
8.82696e-06
6.21349e-06
4.04572e-06
2.4786e-06
1.48985e-06
1.02439e-06
8.61081e-07
7.98413e-07
7.50235e-07
7.1084e-07
6.81995e-07
6.80775e-07
6.86926e-07
7.0182e-07
7.23858e-07
7.47739e-07
7.7322e-07
7.9901e-07
8.27257e-07
8.55258e-07
8.84369e-07
9.13407e-07
9.43058e-07
9.70559e-07
9.9986e-07
1.02616e-06
1.05335e-06
1.07764e-06
1.10392e-06
1.12557e-06
1.14874e-06
1.16883e-06
1.18854e-06
1.20505e-06
1.22004e-06
1.23212e-06
2.00362e-05
1.98126e-05
1.96854e-05
1.94193e-05
1.92586e-05
1.91089e-05
1.90004e-05
1.88489e-05
1.87114e-05
1.84993e-05
1.82461e-05
1.78301e-05
1.72266e-05
1.63542e-05
1.51463e-05
1.36053e-05
1.17853e-05
9.69023e-06
7.5398e-06
5.53863e-06
3.86598e-06
2.59539e-06
1.69021e-06
1.14082e-06
8.72767e-07
7.62065e-07
7.10379e-07
6.7334e-07
6.37841e-07
6.09136e-07
5.8965e-07
5.83748e-07
5.86071e-07
5.92419e-07
6.03783e-07
6.1743e-07
6.32075e-07
6.46531e-07
6.62971e-07
6.78825e-07
6.96372e-07
7.12802e-07
7.31851e-07
7.48032e-07
7.66007e-07
7.82291e-07
7.98746e-07
8.12841e-07
8.26191e-07
8.37761e-07
2.00271e-05
1.97987e-05
1.96662e-05
1.93974e-05
1.92329e-05
1.90815e-05
1.89821e-05
1.88525e-05
1.87352e-05
1.85953e-05
1.84577e-05
1.82879e-05
1.80773e-05
1.77913e-05
1.7402e-05
1.68562e-05
1.61423e-05
1.52147e-05
1.40625e-05
1.27125e-05
1.11981e-05
9.52609e-06
7.80918e-06
6.17077e-06
4.68964e-06
3.46209e-06
2.49214e-06
1.75429e-06
1.23857e-06
9.26042e-07
7.60585e-07
6.80031e-07
6.3683e-07
6.06494e-07
5.78948e-07
5.53084e-07
5.30661e-07
5.15042e-07
5.05375e-07
5.03193e-07
5.04541e-07
5.07846e-07
5.14401e-07
5.20994e-07
5.28618e-07
5.36533e-07
5.44027e-07
5.51474e-07
5.57825e-07
5.64672e-07
2.002e-05
1.97903e-05
1.96458e-05
1.93812e-05
1.92088e-05
1.90527e-05
1.89439e-05
1.88263e-05
1.87134e-05
1.85886e-05
1.84694e-05
1.83437e-05
1.82176e-05
1.8075e-05
1.79171e-05
1.77171e-05
1.74714e-05
1.71497e-05
1.67415e-05
1.62131e-05
1.55714e-05
1.47819e-05
1.38578e-05
1.27899e-05
1.16303e-05
1.03674e-05
9.0274e-06
7.67644e-06
6.36607e-06
5.15959e-06
4.07454e-06
3.16968e-06
2.42758e-06
1.83034e-06
1.37064e-06
1.04153e-06
8.27525e-07
6.99566e-07
6.26898e-07
5.8466e-07
5.56665e-07
5.3403e-07
5.14199e-07
4.9512e-07
4.76859e-07
4.62485e-07
4.49521e-07
4.42186e-07
4.34878e-07
4.33616e-07
2.00144e-05
1.97904e-05
1.96192e-05
1.93681e-05
1.91883e-05
1.9026e-05
1.8908e-05
1.879e-05
1.86733e-05
1.85525e-05
1.84389e-05
1.83217e-05
1.82081e-05
1.80898e-05
1.79754e-05
1.78525e-05
1.77282e-05
1.75838e-05
1.74247e-05
1.7227e-05
1.6996e-05
1.67075e-05
1.63617e-05
1.59376e-05
1.5438e-05
1.48517e-05
1.41792e-05
1.34103e-05
1.25696e-05
1.16448e-05
1.0688e-05
9.66672e-06
8.61241e-06
7.5577e-06
6.5319e-06
5.55842e-06
4.66581e-06
3.85727e-06
3.16174e-06
2.57302e-06
2.07777e-06
1.66882e-06
1.33992e-06
1.0869e-06
9.00771e-07
7.71948e-07
6.84329e-07
6.31319e-07
5.9239e-07
5.79556e-07
2.00102e-05
1.97948e-05
1.95921e-05
1.93545e-05
1.91696e-05
1.90005e-05
1.88746e-05
1.8754e-05
1.86334e-05
1.85092e-05
1.83929e-05
1.82753e-05
1.81626e-05
1.80514e-05
1.79428e-05
1.7833e-05
1.77259e-05
1.7616e-05
1.75092e-05
1.73951e-05
1.72783e-05
1.71499e-05
1.70054e-05
1.68426e-05
1.66509e-05
1.64307e-05
1.61716e-05
1.587e-05
1.55222e-05
1.51194e-05
1.46673e-05
1.41621e-05
1.35957e-05
1.29832e-05
1.23127e-05
1.16101e-05
1.08618e-05
1.0104e-05
9.3165e-06
8.5168e-06
7.71723e-06
6.94124e-06
6.19514e-06
5.50115e-06
4.85885e-06
4.29494e-06
3.79375e-06
3.38686e-06
3.03778e-06
2.78701e-06
2.0007e-05
1.98027e-05
1.9567e-05
1.93415e-05
1.91522e-05
1.89765e-05
1.88428e-05
1.87195e-05
1.85946e-05
1.84671e-05
1.83462e-05
1.82268e-05
1.81093e-05
1.7997e-05
1.78853e-05
1.77762e-05
1.76721e-05
1.75691e-05
1.74686e-05
1.73687e-05
1.72687e-05
1.71728e-05
1.70696e-05
1.69751e-05
1.68663e-05
1.67641e-05
1.66428e-05
1.65195e-05
1.63772e-05
1.62172e-05
1.60413e-05
1.58412e-05
1.56109e-05
1.53625e-05
1.50735e-05
1.47633e-05
1.44102e-05
1.40332e-05
1.36218e-05
1.31831e-05
1.2708e-05
1.22144e-05
1.16948e-05
1.11674e-05
1.06223e-05
1.00943e-05
9.56321e-06
9.07067e-06
8.59367e-06
8.17365e-06
2.00047e-05
1.98116e-05
1.95435e-05
1.93286e-05
1.91353e-05
1.89542e-05
1.88122e-05
1.86865e-05
1.85571e-05
1.84267e-05
1.83011e-05
1.81792e-05
1.80565e-05
1.79428e-05
1.78263e-05
1.77155e-05
1.76065e-05
1.75019e-05
1.73985e-05
1.72986e-05
1.71998e-05
1.7111e-05
1.7012e-05
1.69297e-05
1.68327e-05
1.67533e-05
1.66572e-05
1.65753e-05
1.64861e-05
1.63927e-05
1.63053e-05
1.62071e-05
1.61005e-05
1.59959e-05
1.58722e-05
1.57477e-05
1.55997e-05
1.54472e-05
1.52786e-05
1.50969e-05
1.48915e-05
1.46771e-05
1.44422e-05
1.41954e-05
1.3925e-05
1.36545e-05
1.33664e-05
1.3074e-05
1.27815e-05
1.24987e-05
2.0003e-05
1.98209e-05
1.95217e-05
1.93153e-05
1.91185e-05
1.89335e-05
1.87829e-05
1.86546e-05
1.85212e-05
1.8388e-05
1.8258e-05
1.81335e-05
1.80058e-05
1.78905e-05
1.77691e-05
1.76559e-05
1.7543e-05
1.74359e-05
1.73288e-05
1.7226e-05
1.71228e-05
1.70317e-05
1.69284e-05
1.68453e-05
1.67462e-05
1.66702e-05
1.65783e-05
1.65031e-05
1.64218e-05
1.63389e-05
1.62677e-05
1.61888e-05
1.61069e-05
1.60353e-05
1.59555e-05
1.58829e-05
1.57977e-05
1.57197e-05
1.56396e-05
1.55545e-05
1.54603e-05
1.53677e-05
1.52658e-05
1.51634e-05
1.5044e-05
1.49318e-05
1.48072e-05
1.46715e-05
1.45363e-05
1.44031e-05
2.00017e-05
1.98295e-05
1.95019e-05
1.9301e-05
1.91015e-05
1.89143e-05
1.87551e-05
1.86239e-05
1.8487e-05
1.83514e-05
1.82175e-05
1.80901e-05
1.79581e-05
1.78407e-05
1.7715e-05
1.75989e-05
1.74828e-05
1.73729e-05
1.72626e-05
1.71565e-05
1.70502e-05
1.69563e-05
1.68497e-05
1.67625e-05
1.66614e-05
1.65805e-05
1.64852e-05
1.64063e-05
1.63224e-05
1.62374e-05
1.61658e-05
1.60886e-05
1.60107e-05
1.5944e-05
1.58725e-05
1.58071e-05
1.57327e-05
1.56693e-05
1.56071e-05
1.55417e-05
1.54731e-05
1.54121e-05
1.53449e-05
1.5289e-05
1.52157e-05
1.51602e-05
1.50951e-05
1.50211e-05
1.49531e-05
1.4891e-05
2.00009e-05
1.98307e-05
1.94865e-05
1.92866e-05
1.90848e-05
1.88969e-05
1.87293e-05
1.85949e-05
1.84549e-05
1.83173e-05
1.81799e-05
1.80496e-05
1.79141e-05
1.77941e-05
1.76651e-05
1.75458e-05
1.74269e-05
1.73142e-05
1.7201e-05
1.70917e-05
1.69828e-05
1.6886e-05
1.67772e-05
1.66854e-05
1.65836e-05
1.64981e-05
1.64009e-05
1.63184e-05
1.62304e-05
1.61436e-05
1.60667e-05
1.59872e-05
1.59036e-05
1.58331e-05
1.57599e-05
1.56902e-05
1.56138e-05
1.55505e-05
1.54885e-05
1.54257e-05
1.53615e-05
1.53064e-05
1.52435e-05
1.51975e-05
1.51311e-05
1.50874e-05
1.50339e-05
1.49729e-05
1.49212e-05
1.48778e-05
2.00003e-05
1.98289e-05
1.94735e-05
1.92708e-05
1.90679e-05
1.88812e-05
1.8706e-05
1.85679e-05
1.84254e-05
1.82862e-05
1.81456e-05
1.80126e-05
1.78744e-05
1.77516e-05
1.76199e-05
1.74976e-05
1.73763e-05
1.72609e-05
1.71449e-05
1.70328e-05
1.69213e-05
1.6822e-05
1.67112e-05
1.66153e-05
1.65132e-05
1.64235e-05
1.63251e-05
1.62396e-05
1.61481e-05
1.60605e-05
1.59789e-05
1.5898e-05
1.58102e-05
1.5737e-05
1.56607e-05
1.55867e-05
1.55069e-05
1.54413e-05
1.53744e-05
1.53081e-05
1.52391e-05
1.51814e-05
1.5114e-05
1.50671e-05
1.49982e-05
1.49532e-05
1.48979e-05
1.48379e-05
1.47869e-05
1.47448e-05
2e-05
1.98272e-05
1.94627e-05
1.92532e-05
1.90503e-05
1.8867e-05
1.86852e-05
1.8543e-05
1.83985e-05
1.82583e-05
1.8115e-05
1.79796e-05
1.78393e-05
1.77139e-05
1.758e-05
1.74549e-05
1.73317e-05
1.72141e-05
1.70953e-05
1.6981e-05
1.68671e-05
1.67655e-05
1.66528e-05
1.65534e-05
1.6451e-05
1.63577e-05
1.62579e-05
1.61702e-05
1.60757e-05
1.59876e-05
1.59023e-05
1.58199e-05
1.57294e-05
1.56544e-05
1.55752e-05
1.54983e-05
1.54162e-05
1.53487e-05
1.52779e-05
1.52094e-05
1.51366e-05
1.50763e-05
1.50056e-05
1.49549e-05
1.48844e-05
1.48339e-05
1.47757e-05
1.47135e-05
1.46576e-05
1.4612e-05
1.99999e-05
1.9826e-05
1.94549e-05
1.92351e-05
1.90328e-05
1.88544e-05
1.86675e-05
1.85209e-05
1.83748e-05
1.8234e-05
1.80886e-05
1.79512e-05
1.78095e-05
1.76817e-05
1.75461e-05
1.74188e-05
1.7294e-05
1.71743e-05
1.70532e-05
1.6937e-05
1.68211e-05
1.67176e-05
1.66029e-05
1.6501e-05
1.6398e-05
1.63018e-05
1.62008e-05
1.61112e-05
1.60141e-05
1.59255e-05
1.58374e-05
1.57532e-05
1.56611e-05
1.55846e-05
1.55027e-05
1.54235e-05
1.53402e-05
1.52714e-05
1.51972e-05
1.5127e-05
1.50517e-05
1.49895e-05
1.49174e-05
1.48619e-05
1.47923e-05
1.4736e-05
1.46758e-05
1.46113e-05
1.45517e-05
1.45017e-05
1.99999e-05
1.98252e-05
1.94502e-05
1.92177e-05
1.90161e-05
1.8844e-05
1.86537e-05
1.85023e-05
1.8355e-05
1.82141e-05
1.80671e-05
1.79282e-05
1.77856e-05
1.76558e-05
1.75189e-05
1.739e-05
1.72641e-05
1.71426e-05
1.70197e-05
1.69019e-05
1.67844e-05
1.66792e-05
1.65627e-05
1.64593e-05
1.63555e-05
1.62567e-05
1.61549e-05
1.60637e-05
1.59645e-05
1.58754e-05
1.57851e-05
1.5699e-05
1.56061e-05
1.55283e-05
1.54436e-05
1.53627e-05
1.52787e-05
1.52089e-05
1.51314e-05
1.50601e-05
1.49831e-05
1.49191e-05
1.48466e-05
1.47864e-05
1.47181e-05
1.46574e-05
1.45944e-05
1.45288e-05
1.44667e-05
1.44109e-05
1.99999e-05
1.98249e-05
1.9448e-05
1.9202e-05
1.90008e-05
1.88355e-05
1.86441e-05
1.84879e-05
1.83395e-05
1.81991e-05
1.80511e-05
1.79113e-05
1.77682e-05
1.76371e-05
1.74991e-05
1.73693e-05
1.72426e-05
1.71197e-05
1.69954e-05
1.68767e-05
1.67581e-05
1.66513e-05
1.65334e-05
1.64294e-05
1.63245e-05
1.62239e-05
1.61215e-05
1.60288e-05
1.59283e-05
1.58388e-05
1.57465e-05
1.56587e-05
1.55657e-05
1.54865e-05
1.53989e-05
1.53173e-05
1.52329e-05
1.51619e-05
1.50812e-05
1.50091e-05
1.49311e-05
1.48654e-05
1.47923e-05
1.47285e-05
1.46607e-05
1.45969e-05
1.45302e-05
1.44645e-05
1.44e-05
1.43376e-05
1.99999e-05
1.9825e-05
1.94483e-05
1.91889e-05
1.89874e-05
1.88289e-05
1.86388e-05
1.8478e-05
1.83286e-05
1.81891e-05
1.80409e-05
1.79009e-05
1.77577e-05
1.76257e-05
1.74871e-05
1.73574e-05
1.72301e-05
1.71063e-05
1.6981e-05
1.68619e-05
1.67428e-05
1.66344e-05
1.65158e-05
1.64119e-05
1.63056e-05
1.62041e-05
1.61015e-05
1.60075e-05
1.59064e-05
1.58167e-05
1.57224e-05
1.56337e-05
1.5541e-05
1.54602e-05
1.53701e-05
1.52884e-05
1.52038e-05
1.51313e-05
1.50478e-05
1.49754e-05
1.48964e-05
1.48294e-05
1.4755e-05
1.46892e-05
1.46206e-05
1.45541e-05
1.44842e-05
1.44185e-05
1.43505e-05
1.4282e-05
1.99999e-05
1.98255e-05
1.94508e-05
1.91786e-05
1.89761e-05
1.88237e-05
1.86377e-05
1.8473e-05
1.83226e-05
1.81843e-05
1.80366e-05
1.78972e-05
1.77543e-05
1.76222e-05
1.74833e-05
1.73548e-05
1.72269e-05
1.7103e-05
1.6977e-05
1.68583e-05
1.67391e-05
1.66294e-05
1.6511e-05
1.64076e-05
1.62998e-05
1.61984e-05
1.60957e-05
1.60008e-05
1.58998e-05
1.581e-05
1.57139e-05
1.56252e-05
1.55329e-05
1.54502e-05
1.53581e-05
1.52772e-05
1.51923e-05
1.51178e-05
1.50323e-05
1.49601e-05
1.48799e-05
1.48118e-05
1.47358e-05
1.46691e-05
1.45986e-05
1.45295e-05
1.44571e-05
1.43913e-05
1.43185e-05
1.4245e-05
1.99999e-05
1.98266e-05
1.94558e-05
1.91721e-05
1.89673e-05
1.88203e-05
1.86403e-05
1.84728e-05
1.83215e-05
1.81848e-05
1.80383e-05
1.79e-05
1.77577e-05
1.76261e-05
1.74873e-05
1.73603e-05
1.7232e-05
1.71087e-05
1.69824e-05
1.68646e-05
1.67454e-05
1.6635e-05
1.65173e-05
1.64144e-05
1.63058e-05
1.6205e-05
1.61023e-05
1.60071e-05
1.59066e-05
1.58167e-05
1.57196e-05
1.56314e-05
1.55393e-05
1.54553e-05
1.53624e-05
1.52822e-05
1.51968e-05
1.51209e-05
1.50343e-05
1.49625e-05
1.4881e-05
1.48124e-05
1.4735e-05
1.46681e-05
1.45945e-05
1.45236e-05
1.44491e-05
1.43826e-05
1.43042e-05
1.42271e-05
1.99999e-05
1.98281e-05
1.94627e-05
1.9169e-05
1.89613e-05
1.88181e-05
1.86468e-05
1.84772e-05
1.83248e-05
1.81896e-05
1.80449e-05
1.79086e-05
1.77673e-05
1.76366e-05
1.74983e-05
1.73742e-05
1.72455e-05
1.71235e-05
1.69972e-05
1.68814e-05
1.67625e-05
1.66516e-05
1.65355e-05
1.64334e-05
1.63242e-05
1.62249e-05
1.61222e-05
1.60273e-05
1.5928e-05
1.58378e-05
1.574e-05
1.56532e-05
1.55612e-05
1.54755e-05
1.53825e-05
1.53037e-05
1.52172e-05
1.51398e-05
1.50525e-05
1.4981e-05
1.4898e-05
1.48291e-05
1.47501e-05
1.46832e-05
1.46055e-05
1.45344e-05
1.44575e-05
1.43897e-05
1.43061e-05
1.42267e-05
1.99999e-05
1.98301e-05
1.94715e-05
1.91698e-05
1.89581e-05
1.88177e-05
1.86559e-05
1.84864e-05
1.83331e-05
1.81995e-05
1.8057e-05
1.79234e-05
1.77833e-05
1.76543e-05
1.7517e-05
1.73963e-05
1.72674e-05
1.71474e-05
1.70216e-05
1.69083e-05
1.67899e-05
1.66796e-05
1.65655e-05
1.64643e-05
1.63554e-05
1.6258e-05
1.61557e-05
1.60621e-05
1.5964e-05
1.58737e-05
1.57767e-05
1.56916e-05
1.55992e-05
1.55129e-05
1.5421e-05
1.53432e-05
1.52554e-05
1.51774e-05
1.50903e-05
1.50191e-05
1.49345e-05
1.48661e-05
1.47853e-05
1.47185e-05
1.46353e-05
1.45653e-05
1.44854e-05
1.44155e-05
1.43264e-05
1.42444e-05
1.99999e-05
1.98326e-05
1.94818e-05
1.91739e-05
1.8958e-05
1.88188e-05
1.86672e-05
1.84994e-05
1.83455e-05
1.82136e-05
1.80736e-05
1.79432e-05
1.78046e-05
1.76777e-05
1.75418e-05
1.74251e-05
1.72959e-05
1.71788e-05
1.70538e-05
1.69436e-05
1.68256e-05
1.67168e-05
1.66051e-05
1.65047e-05
1.6397e-05
1.63017e-05
1.62001e-05
1.61087e-05
1.60116e-05
1.59217e-05
1.58264e-05
1.57429e-05
1.565e-05
1.55641e-05
1.54742e-05
1.53967e-05
1.53077e-05
1.52302e-05
1.51436e-05
1.50722e-05
1.49864e-05
1.49193e-05
1.48366e-05
1.47694e-05
1.46815e-05
1.46142e-05
1.45298e-05
1.44579e-05
1.43637e-05
1.42793e-05
1.99999e-05
1.98355e-05
1.9493e-05
1.91819e-05
1.89609e-05
1.8822e-05
1.86803e-05
1.85162e-05
1.83619e-05
1.82313e-05
1.8094e-05
1.79673e-05
1.78303e-05
1.77061e-05
1.7572e-05
1.74596e-05
1.733e-05
1.72167e-05
1.70926e-05
1.6986e-05
1.68685e-05
1.6762e-05
1.66528e-05
1.65533e-05
1.64476e-05
1.63546e-05
1.62541e-05
1.61653e-05
1.60694e-05
1.59804e-05
1.58876e-05
1.58055e-05
1.57121e-05
1.56277e-05
1.554e-05
1.54624e-05
1.53728e-05
1.52964e-05
1.52103e-05
1.51387e-05
1.50523e-05
1.49864e-05
1.49017e-05
1.48332e-05
1.47423e-05
1.46771e-05
1.45876e-05
1.45137e-05
1.44145e-05
1.4327e-05
1.99999e-05
1.98387e-05
1.95049e-05
1.91926e-05
1.89671e-05
1.88277e-05
1.86948e-05
1.8536e-05
1.83821e-05
1.82524e-05
1.81179e-05
1.7995e-05
1.78598e-05
1.77387e-05
1.76066e-05
1.74987e-05
1.73687e-05
1.726e-05
1.71367e-05
1.70342e-05
1.69173e-05
1.68137e-05
1.67071e-05
1.66088e-05
1.65055e-05
1.64151e-05
1.63161e-05
1.62302e-05
1.61354e-05
1.60482e-05
1.59582e-05
1.58772e-05
1.57839e-05
1.57019e-05
1.56162e-05
1.55383e-05
1.54487e-05
1.53738e-05
1.52881e-05
1.52164e-05
1.51301e-05
1.5065e-05
1.4978e-05
1.49079e-05
1.48162e-05
1.47511e-05
1.46569e-05
1.45811e-05
1.44757e-05
1.43858e-05
1.99999e-05
1.98422e-05
1.95173e-05
1.92058e-05
1.89763e-05
1.88357e-05
1.871e-05
1.85581e-05
1.84055e-05
1.82764e-05
1.81446e-05
1.80256e-05
1.78924e-05
1.77747e-05
1.76449e-05
1.75413e-05
1.7411e-05
1.73074e-05
1.71851e-05
1.70867e-05
1.69707e-05
1.68705e-05
1.67664e-05
1.66696e-05
1.6569e-05
1.64813e-05
1.63843e-05
1.63014e-05
1.62079e-05
1.61233e-05
1.60361e-05
1.59559e-05
1.58636e-05
1.57845e-05
1.57003e-05
1.56223e-05
1.55335e-05
1.54602e-05
1.53745e-05
1.53032e-05
1.52176e-05
1.51525e-05
1.50632e-05
1.49916e-05
1.49007e-05
1.48332e-05
1.47358e-05
1.46571e-05
1.4545e-05
1.44537e-05
1.99999e-05
1.98458e-05
1.95299e-05
1.92209e-05
1.89884e-05
1.88462e-05
1.87259e-05
1.85818e-05
1.84316e-05
1.83029e-05
1.81736e-05
1.80584e-05
1.79274e-05
1.78132e-05
1.7686e-05
1.75862e-05
1.74563e-05
1.73577e-05
1.72369e-05
1.71421e-05
1.70275e-05
1.69311e-05
1.68289e-05
1.67345e-05
1.66364e-05
1.65516e-05
1.64572e-05
1.63769e-05
1.62851e-05
1.62041e-05
1.61192e-05
1.60397e-05
1.59494e-05
1.58733e-05
1.579e-05
1.57123e-05
1.56251e-05
1.5553e-05
1.54672e-05
1.53971e-05
1.5312e-05
1.52463e-05
1.51547e-05
1.50826e-05
1.49927e-05
1.4921e-05
1.48216e-05
1.47386e-05
1.46208e-05
1.45284e-05
1.99999e-05
1.98496e-05
1.95425e-05
1.92375e-05
1.90033e-05
1.88592e-05
1.87425e-05
1.86068e-05
1.84599e-05
1.83314e-05
1.82046e-05
1.80928e-05
1.79642e-05
1.78535e-05
1.77292e-05
1.76324e-05
1.75039e-05
1.74097e-05
1.72911e-05
1.71993e-05
1.70866e-05
1.69941e-05
1.68934e-05
1.6802e-05
1.67063e-05
1.66244e-05
1.65331e-05
1.64551e-05
1.63654e-05
1.62885e-05
1.62054e-05
1.61269e-05
1.60395e-05
1.59661e-05
1.58833e-05
1.58066e-05
1.57213e-05
1.565e-05
1.55643e-05
1.54959e-05
1.54109e-05
1.53441e-05
1.52503e-05
1.5179e-05
1.50887e-05
1.5013e-05
1.49114e-05
1.48231e-05
1.47019e-05
1.4607e-05
1.99999e-05
1.98534e-05
1.95549e-05
1.92553e-05
1.90207e-05
1.88743e-05
1.87597e-05
1.86324e-05
1.84899e-05
1.83616e-05
1.82373e-05
1.81282e-05
1.80023e-05
1.7895e-05
1.77739e-05
1.76793e-05
1.75531e-05
1.74626e-05
1.73467e-05
1.72572e-05
1.7147e-05
1.70584e-05
1.69586e-05
1.68709e-05
1.67774e-05
1.66985e-05
1.66104e-05
1.65345e-05
1.64474e-05
1.6375e-05
1.6293e-05
1.62159e-05
1.61321e-05
1.60609e-05
1.59785e-05
1.59033e-05
1.58199e-05
1.57491e-05
1.5664e-05
1.55974e-05
1.55118e-05
1.54437e-05
1.53483e-05
1.52787e-05
1.51858e-05
1.51074e-05
1.50021e-05
1.49091e-05
1.47864e-05
1.46862e-05
1.99999e-05
1.98572e-05
1.95671e-05
1.92737e-05
1.90401e-05
1.88915e-05
1.87777e-05
1.86583e-05
1.8521e-05
1.83932e-05
1.8271e-05
1.81644e-05
1.80412e-05
1.79371e-05
1.78194e-05
1.77263e-05
1.76033e-05
1.75156e-05
1.74029e-05
1.73149e-05
1.72081e-05
1.71229e-05
1.70236e-05
1.69401e-05
1.68485e-05
1.67727e-05
1.66879e-05
1.66139e-05
1.65299e-05
1.64618e-05
1.63806e-05
1.63056e-05
1.62254e-05
1.61559e-05
1.60741e-05
1.60009e-05
1.59192e-05
1.58486e-05
1.57646e-05
1.56995e-05
1.56127e-05
1.55435e-05
1.54469e-05
1.53793e-05
1.52819e-05
1.52024e-05
1.50915e-05
1.49955e-05
1.48718e-05
1.47628e-05
1.99999e-05
1.98609e-05
1.9579e-05
1.92926e-05
1.90612e-05
1.89103e-05
1.87964e-05
1.86843e-05
1.85527e-05
1.84258e-05
1.83057e-05
1.82009e-05
1.80805e-05
1.79796e-05
1.78649e-05
1.77732e-05
1.76537e-05
1.75683e-05
1.74589e-05
1.73719e-05
1.72691e-05
1.71863e-05
1.70879e-05
1.70085e-05
1.69185e-05
1.68462e-05
1.67641e-05
1.66921e-05
1.66119e-05
1.65475e-05
1.6467e-05
1.6395e-05
1.63181e-05
1.62498e-05
1.6169e-05
1.60978e-05
1.60174e-05
1.59473e-05
1.58647e-05
1.58004e-05
1.57121e-05
1.56421e-05
1.55449e-05
1.54784e-05
1.53758e-05
1.52957e-05
1.51784e-05
1.50813e-05
1.49549e-05
1.48347e-05
1.99999e-05
1.98646e-05
1.95905e-05
1.93114e-05
1.90834e-05
1.89305e-05
1.88159e-05
1.87103e-05
1.85844e-05
1.84592e-05
1.8341e-05
1.82377e-05
1.81198e-05
1.8022e-05
1.79101e-05
1.78199e-05
1.77037e-05
1.76204e-05
1.7514e-05
1.74279e-05
1.73296e-05
1.72479e-05
1.71512e-05
1.70752e-05
1.69869e-05
1.69183e-05
1.68383e-05
1.67686e-05
1.66925e-05
1.6631e-05
1.65515e-05
1.6483e-05
1.64087e-05
1.63414e-05
1.62621e-05
1.61929e-05
1.61135e-05
1.60438e-05
1.59629e-05
1.58986e-05
1.58085e-05
1.57384e-05
1.56411e-05
1.55739e-05
1.5467e-05
1.53851e-05
1.52626e-05
1.51651e-05
1.50321e-05
1.49013e-05
1.99999e-05
1.98681e-05
1.96015e-05
1.933e-05
1.91062e-05
1.89519e-05
1.88363e-05
1.87362e-05
1.8616e-05
1.84931e-05
1.83766e-05
1.82745e-05
1.81591e-05
1.80643e-05
1.79547e-05
1.78662e-05
1.77529e-05
1.76717e-05
1.75676e-05
1.74829e-05
1.73886e-05
1.73076e-05
1.7213e-05
1.71394e-05
1.70533e-05
1.69882e-05
1.69094e-05
1.6843e-05
1.67708e-05
1.67113e-05
1.66335e-05
1.65689e-05
1.64965e-05
1.643e-05
1.63527e-05
1.62852e-05
1.62063e-05
1.61374e-05
1.60582e-05
1.59933e-05
1.59013e-05
1.58315e-05
1.5734e-05
1.56647e-05
1.55548e-05
1.54692e-05
1.53437e-05
1.52443e-05
1.51015e-05
1.49635e-05
1.99999e-05
1.98715e-05
1.96121e-05
1.93482e-05
1.91293e-05
1.89743e-05
1.88577e-05
1.87622e-05
1.86471e-05
1.85272e-05
1.84126e-05
1.83113e-05
1.81981e-05
1.81062e-05
1.79987e-05
1.7912e-05
1.78011e-05
1.77223e-05
1.76192e-05
1.75373e-05
1.74454e-05
1.73654e-05
1.72728e-05
1.72009e-05
1.71176e-05
1.70552e-05
1.69773e-05
1.69152e-05
1.68461e-05
1.6788e-05
1.67127e-05
1.6652e-05
1.65806e-05
1.65152e-05
1.64402e-05
1.6374e-05
1.62954e-05
1.62276e-05
1.61496e-05
1.60835e-05
1.59902e-05
1.59208e-05
1.58219e-05
1.57508e-05
1.56377e-05
1.55484e-05
1.54208e-05
1.53167e-05
1.51632e-05
1.50226e-05
1.99999e-05
1.98748e-05
1.96222e-05
1.93658e-05
1.91522e-05
1.89974e-05
1.88801e-05
1.87881e-05
1.86776e-05
1.85614e-05
1.84487e-05
1.8348e-05
1.8237e-05
1.81478e-05
1.80419e-05
1.7957e-05
1.78482e-05
1.77718e-05
1.7669e-05
1.75908e-05
1.74997e-05
1.74215e-05
1.73302e-05
1.72598e-05
1.71794e-05
1.71188e-05
1.7042e-05
1.69848e-05
1.69176e-05
1.68611e-05
1.67889e-05
1.67317e-05
1.66608e-05
1.65969e-05
1.6524e-05
1.64585e-05
1.63806e-05
1.6314e-05
1.62367e-05
1.61687e-05
1.60748e-05
1.60059e-05
1.59044e-05
1.58321e-05
1.57144e-05
1.56232e-05
1.5492e-05
1.53813e-05
1.52187e-05
1.50776e-05
1.99999e-05
1.98779e-05
1.96317e-05
1.93827e-05
1.91748e-05
1.90208e-05
1.89035e-05
1.8814e-05
1.87075e-05
1.85955e-05
1.84848e-05
1.83845e-05
1.82758e-05
1.81888e-05
1.80846e-05
1.80012e-05
1.78945e-05
1.78198e-05
1.77176e-05
1.76428e-05
1.75518e-05
1.74758e-05
1.73848e-05
1.73168e-05
1.72381e-05
1.71789e-05
1.71038e-05
1.70511e-05
1.69853e-05
1.69309e-05
1.68618e-05
1.68072e-05
1.67371e-05
1.66751e-05
1.66036e-05
1.65384e-05
1.64619e-05
1.63964e-05
1.63187e-05
1.62486e-05
1.6155e-05
1.60863e-05
1.59814e-05
1.59078e-05
1.57846e-05
1.56942e-05
1.55556e-05
1.54385e-05
1.52693e-05
1.5125e-05
1.99999e-05
1.98808e-05
1.96406e-05
1.9399e-05
1.91968e-05
1.90444e-05
1.89276e-05
1.884e-05
1.87368e-05
1.86294e-05
1.85207e-05
1.84209e-05
1.83146e-05
1.82294e-05
1.81265e-05
1.80446e-05
1.794e-05