/*--------------------------------*- C++ -*----------------------------------*\
  =========                 |
  \\      /  F ield         | OpenFOAM: The Open Source CFD Toolbox
   \\    /   O peration     | Website:  https://openfoam.org
    \\  /    A nd           | Version:  7
     \\/     M anipulation  |
\*---------------------------------------------------------------------------*/
FoamFile
{
    version     2.0;
    format      ascii;
    class       volScalarField;
    location    "0.44";
    object      k_0;
}
// * * * * * * * * * * * * * * * * * * * * * * * * * * * * * * * * * * * * * //

dimensions      [0 2 -2 0 0 0 0];

internalField   nonuniform List<scalar> 
70000
(
1.08549e-05
4.21879e-06
2.82439e-06
2.31681e-06
1.9975e-06
1.75711e-06
1.56512e-06
1.4082e-06
1.2774e-06
1.16667e-06
1.07174e-06
9.8971e-07
9.18168e-07
8.55494e-07
8.0009e-07
7.5105e-07
7.07137e-07
6.67947e-07
6.32439e-07
6.00569e-07
5.71404e-07
5.45098e-07
5.20839e-07
4.98817e-07
4.78423e-07
4.59729e-07
4.42441e-07
4.2635e-07
4.11594e-07
3.97579e-07
3.84897e-07
3.72596e-07
3.61581e-07
3.50785e-07
3.41036e-07
3.31659e-07
3.22795e-07
3.148e-07
3.06545e-07
2.99791e-07
2.92119e-07
2.86365e-07
2.79314e-07
2.75192e-07
2.67806e-07
2.66638e-07
2.57869e-07
2.63555e-07
2.61743e-07
3.17605e-07
1.72795e-05
1.13673e-05
8.52064e-06
7.01044e-06
6.03721e-06
5.31081e-06
4.73131e-06
4.25741e-06
3.86235e-06
3.52792e-06
3.24122e-06
2.99349e-06
2.7774e-06
2.58809e-06
2.4207e-06
2.27255e-06
2.13984e-06
2.0214e-06
1.91407e-06
1.81772e-06
1.72956e-06
1.64999e-06
1.57668e-06
1.51002e-06
1.44841e-06
1.39179e-06
1.33959e-06
1.29082e-06
1.24627e-06
1.20379e-06
1.16548e-06
1.12823e-06
1.0949e-06
1.06227e-06
1.03269e-06
1.00442e-06
9.77483e-07
9.53373e-07
9.28356e-07
9.07864e-07
8.84812e-07
8.66971e-07
8.46139e-07
8.3211e-07
8.11038e-07
8.04403e-07
7.81057e-07
7.8752e-07
7.94879e-07
8.48566e-07
1.93701e-05
1.61297e-05
1.32912e-05
1.12896e-05
9.82856e-06
8.69589e-06
7.77814e-06
7.02018e-06
6.38365e-06
5.8421e-06
5.37614e-06
4.97235e-06
4.61917e-06
4.30916e-06
4.03442e-06
3.79087e-06
3.57226e-06
3.37693e-06
3.19966e-06
3.04029e-06
2.89443e-06
2.76247e-06
2.64103e-06
2.53019e-06
2.42808e-06
2.33369e-06
2.24712e-06
2.16568e-06
2.09172e-06
2.02074e-06
1.957e-06
1.89482e-06
1.83916e-06
1.78482e-06
1.73523e-06
1.68822e-06
1.643e-06
1.60281e-06
1.56105e-06
1.5264e-06
1.48856e-06
1.45736e-06
1.42421e-06
1.39733e-06
1.36547e-06
1.34902e-06
1.3146e-06
1.31025e-06
1.34546e-06
1.36695e-06
1.9861e-05
1.826e-05
1.60858e-05
1.42003e-05
1.26403e-05
1.13486e-05
1.02607e-05
9.33822e-06
8.54678e-06
7.86327e-06
7.26862e-06
6.74881e-06
6.29059e-06
5.88595e-06
5.52513e-06
5.20371e-06
4.91374e-06
4.65361e-06
4.41672e-06
4.20295e-06
4.00699e-06
3.82882e-06
3.66503e-06
3.51447e-06
3.37632e-06
3.24745e-06
3.13e-06
3.01836e-06
2.9177e-06
2.82021e-06
2.73306e-06
2.64768e-06
2.57114e-06
2.49661e-06
2.42807e-06
2.36357e-06
2.30105e-06
2.24542e-06
2.18831e-06
2.13926e-06
2.08866e-06
2.043e-06
2.0002e-06
1.95745e-06
1.91924e-06
1.88613e-06
1.85052e-06
1.82032e-06
1.87929e-06
1.87496e-06
1.99707e-05
1.78458e-05
1.60749e-05
1.47665e-05
1.36027e-05
1.25376e-05
1.15695e-05
1.07017e-05
9.92082e-06
9.22503e-06
8.60499e-06
8.05219e-06
7.55636e-06
7.11253e-06
6.71135e-06
6.35003e-06
6.02062e-06
5.72257e-06
5.44929e-06
5.2007e-06
4.97202e-06
4.76214e-06
4.56922e-06
4.38985e-06
4.22591e-06
4.07092e-06
3.93055e-06
3.79534e-06
3.67418e-06
3.5556e-06
3.4499e-06
3.34584e-06
3.25226e-06
3.16127e-06
3.07702e-06
2.99782e-06
2.92115e-06
2.85173e-06
2.78273e-06
2.71968e-06
2.6601e-06
2.59972e-06
2.55066e-06
2.49224e-06
2.45084e-06
2.39835e-06
2.36624e-06
2.3072e-06
2.36523e-06
2.3502e-06
2.00095e-05
1.47038e-05
1.37477e-05
1.32108e-05
1.25915e-05
1.19273e-05
1.12783e-05
1.06579e-05
1.00813e-05
9.54726e-06
9.04687e-06
8.58067e-06
8.14696e-06
7.74735e-06
7.37559e-06
7.03307e-06
6.71462e-06
6.42171e-06
6.14981e-06
5.89866e-06
5.6659e-06
5.44875e-06
5.24871e-06
5.05938e-06
4.88679e-06
4.72045e-06
4.57057e-06
4.42372e-06
4.29272e-06
4.16287e-06
4.0472e-06
3.93249e-06
3.82903e-06
3.72797e-06
3.63431e-06
3.54521e-06
3.46032e-06
3.38034e-06
3.30523e-06
3.23029e-06
3.16681e-06
3.09381e-06
3.04195e-06
2.97113e-06
2.92804e-06
2.86118e-06
2.8276e-06
2.75256e-06
2.79236e-06
2.77774e-06
2.01331e-05
1.54682e-05
9.63453e-06
9.39802e-06
9.49296e-06
9.49249e-06
9.43438e-06
9.29677e-06
9.05686e-06
8.78341e-06
8.48899e-06
8.19204e-06
7.90018e-06
7.61736e-06
7.34018e-06
7.07978e-06
6.83245e-06
6.5978e-06
6.37482e-06
6.1624e-06
5.96245e-06
5.77029e-06
5.59205e-06
5.41847e-06
5.26012e-06
5.10301e-06
4.96198e-06
4.82059e-06
4.69474e-06
4.56775e-06
4.45453e-06
4.34071e-06
4.23799e-06
4.13609e-06
4.04242e-06
3.95061e-06
3.86605e-06
3.7811e-06
3.70734e-06
3.62553e-06
3.56366e-06
3.48365e-06
3.43225e-06
3.35527e-06
3.31174e-06
3.23873e-06
3.20316e-06
3.12102e-06
3.13898e-06
3.12158e-06
2.01713e-05
1.86764e-05
8.69376e-06
5.54035e-06
5.6306e-06
5.93469e-06
6.29347e-06
6.57926e-06
6.75997e-06
6.86928e-06
6.88984e-06
6.87081e-06
6.81916e-06
6.73125e-06
6.62077e-06
6.49881e-06
6.36115e-06
6.21858e-06
6.07672e-06
5.93287e-06
5.79387e-06
5.65349e-06
5.52178e-06
5.38787e-06
5.265e-06
5.13996e-06
5.02841e-06
4.9124e-06
4.80905e-06
4.70156e-06
4.60556e-06
4.50642e-06
4.4173e-06
4.32592e-06
4.24359e-06
4.15852e-06
4.08416e-06
4.00259e-06
3.9379e-06
3.85765e-06
3.80268e-06
3.72436e-06
3.67709e-06
3.60202e-06
3.56087e-06
3.4892e-06
3.45429e-06
3.37283e-06
3.37328e-06
3.35332e-06
2.01671e-05
1.9724e-05
1.61684e-05
4.86256e-06
3.04254e-06
3.10585e-06
3.37509e-06
3.80553e-06
4.17217e-06
4.4909e-06
4.73907e-06
4.92957e-06
5.07061e-06
5.17165e-06
5.23053e-06
5.26695e-06
5.27086e-06
5.26213e-06
5.24081e-06
5.1999e-06
5.15409e-06
5.09555e-06
5.03766e-06
4.96902e-06
4.90449e-06
4.8294e-06
4.76074e-06
4.68341e-06
4.61407e-06
4.53804e-06
4.47002e-06
4.39649e-06
4.33097e-06
4.26013e-06
4.19821e-06
4.12928e-06
4.07285e-06
4.00404e-06
3.95491e-06
3.88677e-06
3.84372e-06
3.77695e-06
3.73832e-06
3.67361e-06
3.63888e-06
3.57617e-06
3.54535e-06
3.47546e-06
3.46647e-06
3.44202e-06
2.01476e-05
1.99343e-05
1.90659e-05
1.45e-05
5.245e-06
2.15493e-06
1.91482e-06
1.9943e-06
2.20825e-06
2.50768e-06
2.7841e-06
3.03827e-06
3.26368e-06
3.46119e-06
3.62561e-06
3.76407e-06
3.87665e-06
3.96442e-06
4.03722e-06
4.08792e-06
4.12829e-06
4.15008e-06
4.16681e-06
4.16755e-06
4.1645e-06
4.15442e-06
4.14184e-06
4.11836e-06
4.09682e-06
4.06666e-06
4.03904e-06
4.00435e-06
3.97317e-06
3.93483e-06
3.9026e-06
3.86104e-06
3.82974e-06
3.78512e-06
3.75538e-06
3.7078e-06
3.67937e-06
3.63109e-06
3.60399e-06
3.55571e-06
3.53017e-06
3.48204e-06
3.45788e-06
3.40447e-06
3.3917e-06
3.36828e-06
2.01216e-05
1.99661e-05
1.96426e-05
1.85468e-05
1.52137e-05
8.36115e-06
3.10596e-06
1.63334e-06
1.44274e-06
1.45007e-06
1.5276e-06
1.68954e-06
1.87232e-06
2.04978e-06
2.22088e-06
2.38013e-06
2.52875e-06
2.65917e-06
2.77919e-06
2.88152e-06
2.97484e-06
3.05158e-06
3.12109e-06
3.17647e-06
3.22544e-06
3.2629e-06
3.29707e-06
3.32061e-06
3.34145e-06
3.35421e-06
3.36441e-06
3.3692e-06
3.37032e-06
3.36858e-06
3.36504e-06
3.35646e-06
3.3499e-06
3.33558e-06
3.32694e-06
3.3087e-06
3.29822e-06
3.27676e-06
3.26476e-06
3.24066e-06
3.22739e-06
3.20078e-06
3.18633e-06
3.15451e-06
3.14221e-06
3.1248e-06
2.00981e-05
1.99327e-05
1.97575e-05
1.93528e-05
1.85067e-05
1.65375e-05
1.23289e-05
6.85861e-06
2.98458e-06
1.49262e-06
1.24317e-06
1.14807e-06
1.15274e-06
1.19598e-06
1.28961e-06
1.39658e-06
1.51053e-06
1.6199e-06
1.73159e-06
1.8358e-06
1.93738e-06
2.02941e-06
2.11734e-06
2.19572e-06
2.2698e-06
2.33459e-06
2.39559e-06
2.44839e-06
2.4975e-06
2.53946e-06
2.57842e-06
2.61082e-06
2.64133e-06
2.66502e-06
2.68883e-06
2.70514e-06
2.72325e-06
2.73328e-06
2.74645e-06
2.75171e-06
2.75995e-06
2.76179e-06
2.76507e-06
2.7644e-06
2.76317e-06
2.75899e-06
2.75522e-06
2.74469e-06
2.73991e-06
2.73062e-06
2.00781e-05
1.98876e-05
1.97571e-05
1.94613e-05
1.91463e-05
1.86415e-05
1.75558e-05
1.54266e-05
1.17381e-05
7.43851e-06
3.97397e-06
1.90826e-06
1.20729e-06
1.05713e-06
9.81799e-07
9.43602e-07
9.55375e-07
9.90113e-07
1.05343e-06
1.11725e-06
1.18761e-06
1.25725e-06
1.32891e-06
1.39877e-06
1.46812e-06
1.5334e-06
1.59708e-06
1.65621e-06
1.71337e-06
1.76559e-06
1.81647e-06
1.86157e-06
1.90625e-06
1.9447e-06
1.98322e-06
2.01573e-06
2.04866e-06
2.07536e-06
2.10343e-06
2.12533e-06
2.1481e-06
2.16579e-06
2.18434e-06
2.19739e-06
2.21195e-06
2.2203e-06
2.23112e-06
2.23375e-06
2.23907e-06
2.23819e-06
2.00614e-05
1.98539e-05
1.97345e-05
1.94716e-05
1.92556e-05
1.90474e-05
1.87359e-05
1.81906e-05
1.70961e-05
1.52304e-05
1.25592e-05
9.22066e-06
5.9541e-06
3.46143e-06
1.86924e-06
1.16333e-06
9.63958e-07
8.90604e-07
8.36072e-07
7.9733e-07
7.99714e-07
8.13961e-07
8.44779e-07
8.83831e-07
9.24107e-07
9.66873e-07
1.01162e-06
1.05642e-06
1.10241e-06
1.14716e-06
1.19249e-06
1.23472e-06
1.27765e-06
1.31707e-06
1.35659e-06
1.39298e-06
1.42936e-06
1.46162e-06
1.49512e-06
1.52393e-06
1.5533e-06
1.57854e-06
1.605e-06
1.62606e-06
1.64834e-06
1.66634e-06
1.68375e-06
1.69761e-06
1.70834e-06
1.71835e-06
2.00475e-05
1.98304e-05
1.97079e-05
1.94495e-05
1.92726e-05
1.91153e-05
1.89653e-05
1.875e-05
1.84617e-05
1.79108e-05
1.70754e-05
1.56938e-05
1.38725e-05
1.15133e-05
8.82673e-06
6.21326e-06
4.04554e-06
2.47847e-06
1.48978e-06
1.02437e-06
8.61073e-07
7.98409e-07
7.50232e-07
7.10837e-07
6.81995e-07
6.80777e-07
6.86928e-07
7.01825e-07
7.23856e-07
7.47748e-07
7.73221e-07
7.99016e-07
8.27268e-07
8.55264e-07
8.8438e-07
9.13437e-07
9.4306e-07
9.70586e-07
9.999e-07
1.02618e-06
1.05338e-06
1.07771e-06
1.10398e-06
1.12563e-06
1.14885e-06
1.16896e-06
1.18868e-06
1.20522e-06
1.22026e-06
1.23235e-06
2.00362e-05
1.98126e-05
1.96854e-05
1.94193e-05
1.92586e-05
1.91089e-05
1.90003e-05
1.88488e-05
1.87114e-05
1.84993e-05
1.82461e-05
1.78301e-05
1.72266e-05
1.63541e-05
1.51461e-05
1.36051e-05
1.17851e-05
9.69001e-06
7.53957e-06
5.53842e-06
3.86582e-06
2.59527e-06
1.69013e-06
1.14078e-06
8.72749e-07
7.62058e-07
7.10375e-07
6.73337e-07
6.37836e-07
6.09136e-07
5.89649e-07
5.83751e-07
5.86076e-07
5.92424e-07
6.0379e-07
6.17452e-07
6.32074e-07
6.46547e-07
6.63e-07
6.78847e-07
6.9639e-07
7.12858e-07
7.31907e-07
7.48071e-07
7.66095e-07
7.82391e-07
7.98859e-07
8.12963e-07
8.26369e-07
8.37945e-07
2.00271e-05
1.97987e-05
1.96662e-05
1.93974e-05
1.92329e-05
1.90815e-05
1.89821e-05
1.88525e-05
1.87352e-05
1.85953e-05
1.84577e-05
1.82879e-05
1.80773e-05
1.77912e-05
1.74019e-05
1.68562e-05
1.61422e-05
1.52146e-05
1.40624e-05
1.27124e-05
1.1198e-05
9.52588e-06
7.80897e-06
6.17057e-06
4.68946e-06
3.46195e-06
2.49203e-06
1.7542e-06
1.23851e-06
9.26003e-07
7.60563e-07
6.80019e-07
6.36823e-07
6.06486e-07
5.78939e-07
5.53081e-07
5.3065e-07
5.15042e-07
5.0538e-07
5.03204e-07
5.04554e-07
5.0787e-07
5.1443e-07
5.2101e-07
5.28664e-07
5.36589e-07
5.44089e-07
5.51537e-07
5.57923e-07
5.64781e-07
2.002e-05
1.97903e-05
1.96458e-05
1.93812e-05
1.92088e-05
1.90526e-05
1.89439e-05
1.88263e-05
1.87134e-05
1.85886e-05
1.84694e-05
1.83437e-05
1.82176e-05
1.8075e-05
1.7917e-05
1.77171e-05
1.74714e-05
1.71497e-05
1.67414e-05
1.6213e-05
1.55713e-05
1.47818e-05
1.38577e-05
1.27898e-05
1.16302e-05
1.03672e-05
9.02723e-06
7.67625e-06
6.36586e-06
5.15938e-06
4.07431e-06
3.16946e-06
2.42736e-06
1.83013e-06
1.37045e-06
1.04137e-06
8.27404e-07
6.99481e-07
6.26839e-07
5.84615e-07
5.56621e-07
5.33988e-07
5.14148e-07
4.95054e-07
4.76793e-07
4.62419e-07
4.49453e-07
4.42115e-07
4.34823e-07
4.33566e-07
2.00144e-05
1.97904e-05
1.96192e-05
1.93681e-05
1.91883e-05
1.90259e-05
1.8908e-05
1.879e-05
1.86733e-05
1.85525e-05
1.84388e-05
1.83217e-05
1.82081e-05
1.80898e-05
1.79753e-05
1.78525e-05
1.77282e-05
1.75838e-05
1.74247e-05
1.7227e-05
1.6996e-05
1.67074e-05
1.63616e-05
1.59376e-05
1.5438e-05
1.48517e-05
1.41791e-05
1.34102e-05
1.25695e-05
1.16446e-05
1.06879e-05
9.66646e-06
8.61211e-06
7.55732e-06
6.53144e-06
5.55788e-06
4.66519e-06
3.85657e-06
3.161e-06
2.57224e-06
2.07695e-06
1.66799e-06
1.33909e-06
1.08609e-06
9.00012e-07
7.71257e-07
6.83701e-07
6.30721e-07
5.9185e-07
5.79013e-07
2.00102e-05
1.97948e-05
1.95921e-05
1.93545e-05
1.91696e-05
1.90005e-05
1.88746e-05
1.8754e-05
1.86334e-05
1.85092e-05
1.83929e-05
1.82752e-05
1.81626e-05
1.80513e-05
1.79427e-05
1.7833e-05
1.77259e-05
1.7616e-05
1.75091e-05
1.7395e-05
1.72784e-05
1.71499e-05
1.70054e-05
1.68425e-05
1.66509e-05
1.64307e-05
1.61716e-05
1.587e-05
1.55222e-05
1.51193e-05
1.46673e-05
1.41619e-05
1.35955e-05
1.2983e-05
1.23124e-05
1.16097e-05
1.08613e-05
1.01034e-05
9.31577e-06
8.51583e-06
7.71601e-06
6.93976e-06
6.19335e-06
5.499e-06
4.85636e-06
4.29212e-06
3.79058e-06
3.38338e-06
3.03407e-06
2.78331e-06
2.0007e-05
1.98026e-05
1.9567e-05
1.93415e-05
1.91522e-05
1.89765e-05
1.88428e-05
1.87195e-05
1.85945e-05
1.84671e-05
1.83462e-05
1.82268e-05
1.81092e-05
1.7997e-05
1.78853e-05
1.77762e-05
1.76721e-05
1.75691e-05
1.74686e-05
1.73686e-05
1.72688e-05
1.71727e-05
1.70696e-05
1.6975e-05
1.68663e-05
1.67641e-05
1.66428e-05
1.65196e-05
1.63771e-05
1.62172e-05
1.60413e-05
1.58411e-05
1.56109e-05
1.53624e-05
1.50734e-05
1.47631e-05
1.44099e-05
1.40329e-05
1.36215e-05
1.31826e-05
1.27073e-05
1.22136e-05
1.16938e-05
1.1166e-05
1.06206e-05
1.00922e-05
9.56055e-06
9.06736e-06
8.58982e-06
8.16923e-06
2.00047e-05
1.98116e-05
1.95435e-05
1.93287e-05
1.91352e-05
1.89542e-05
1.88122e-05
1.86864e-05
1.8557e-05
1.84266e-05
1.83011e-05
1.81791e-05
1.80565e-05
1.79428e-05
1.78262e-05
1.77154e-05
1.76065e-05
1.75019e-05
1.73984e-05
1.72985e-05
1.71999e-05
1.7111e-05
1.7012e-05
1.69297e-05
1.68327e-05
1.67533e-05
1.66571e-05
1.65755e-05
1.6486e-05
1.63928e-05
1.63054e-05
1.62069e-05
1.61005e-05
1.59959e-05
1.58721e-05
1.57476e-05
1.55995e-05
1.54471e-05
1.52786e-05
1.50966e-05
1.48912e-05
1.46768e-05
1.44418e-05
1.41947e-05
1.39243e-05
1.36537e-05
1.33651e-05
1.30723e-05
1.27796e-05
1.24963e-05
2.0003e-05
1.98209e-05
1.95217e-05
1.93153e-05
1.91184e-05
1.89335e-05
1.87829e-05
1.86545e-05
1.85211e-05
1.8388e-05
1.8258e-05
1.81334e-05
1.80057e-05
1.78905e-05
1.7769e-05
1.76558e-05
1.7543e-05
1.74359e-05
1.73288e-05
1.72259e-05
1.71229e-05
1.70317e-05
1.69284e-05
1.68453e-05
1.67462e-05
1.66703e-05
1.65782e-05
1.65032e-05
1.64217e-05
1.6339e-05
1.62678e-05
1.61886e-05
1.61069e-05
1.60353e-05
1.59555e-05
1.58827e-05
1.57974e-05
1.57198e-05
1.56396e-05
1.55542e-05
1.54601e-05
1.53676e-05
1.52657e-05
1.5163e-05
1.50437e-05
1.49316e-05
1.48065e-05
1.46706e-05
1.45356e-05
1.44022e-05
2.00017e-05
1.98294e-05
1.95019e-05
1.9301e-05
1.91014e-05
1.89142e-05
1.8755e-05
1.86239e-05
1.84868e-05
1.83513e-05
1.82175e-05
1.809e-05
1.7958e-05
1.78406e-05
1.77149e-05
1.75989e-05
1.74828e-05
1.73728e-05
1.72626e-05
1.71564e-05
1.70503e-05
1.69563e-05
1.68496e-05
1.67625e-05
1.66614e-05
1.65805e-05
1.64851e-05
1.64065e-05
1.63222e-05
1.62375e-05
1.61659e-05
1.60884e-05
1.60107e-05
1.59441e-05
1.58725e-05
1.58068e-05
1.57325e-05
1.56694e-05
1.5607e-05
1.55414e-05
1.54729e-05
1.54119e-05
1.53448e-05
1.52887e-05
1.52154e-05
1.51602e-05
1.50945e-05
1.50205e-05
1.4953e-05
1.48905e-05
2.00009e-05
1.98307e-05
1.94865e-05
1.92866e-05
1.90847e-05
1.88968e-05
1.87293e-05
1.85949e-05
1.84548e-05
1.83172e-05
1.81799e-05
1.80495e-05
1.7914e-05
1.77941e-05
1.7665e-05
1.75458e-05
1.74269e-05
1.73142e-05
1.72009e-05
1.70916e-05
1.69829e-05
1.6886e-05
1.67771e-05
1.66854e-05
1.65837e-05
1.64981e-05
1.64009e-05
1.63185e-05
1.62302e-05
1.61437e-05
1.60668e-05
1.5987e-05
1.59035e-05
1.58332e-05
1.57598e-05
1.569e-05
1.56136e-05
1.55506e-05
1.54885e-05
1.54254e-05
1.53613e-05
1.53062e-05
1.52434e-05
1.51972e-05
1.51308e-05
1.50874e-05
1.50332e-05
1.49723e-05
1.49212e-05
1.48773e-05
2.00003e-05
1.98289e-05
1.94735e-05
1.92708e-05
1.90678e-05
1.88812e-05
1.8706e-05
1.85679e-05
1.84253e-05
1.82861e-05
1.81456e-05
1.80125e-05
1.78743e-05
1.77516e-05
1.76197e-05
1.74975e-05
1.73763e-05
1.72609e-05
1.71448e-05
1.70327e-05
1.69214e-05
1.6822e-05
1.67111e-05
1.66153e-05
1.65133e-05
1.64236e-05
1.63251e-05
1.62397e-05
1.6148e-05
1.60606e-05
1.5979e-05
1.58978e-05
1.58101e-05
1.57371e-05
1.56606e-05
1.55864e-05
1.55067e-05
1.54414e-05
1.53743e-05
1.53078e-05
1.52389e-05
1.5181e-05
1.51139e-05
1.50668e-05
1.49978e-05
1.49531e-05
1.48972e-05
1.48373e-05
1.47868e-05
1.47442e-05
2e-05
1.98272e-05
1.94627e-05
1.92532e-05
1.90503e-05
1.88669e-05
1.86852e-05
1.85429e-05
1.83984e-05
1.82582e-05
1.8115e-05
1.79794e-05
1.78393e-05
1.77138e-05
1.75798e-05
1.74549e-05
1.73317e-05
1.7214e-05
1.70952e-05
1.69808e-05
1.68671e-05
1.67655e-05
1.66527e-05
1.65534e-05
1.6451e-05
1.63577e-05
1.6258e-05
1.61703e-05
1.60756e-05
1.59876e-05
1.59024e-05
1.58197e-05
1.57293e-05
1.56545e-05
1.55751e-05
1.54979e-05
1.5416e-05
1.53488e-05
1.52778e-05
1.5209e-05
1.51364e-05
1.5076e-05
1.50055e-05
1.49546e-05
1.4884e-05
1.48338e-05
1.4775e-05
1.47127e-05
1.46574e-05
1.46112e-05
1.99999e-05
1.9826e-05
1.9455e-05
1.92351e-05
1.90327e-05
1.88544e-05
1.86675e-05
1.85208e-05
1.83747e-05
1.82339e-05
1.80885e-05
1.7951e-05
1.78094e-05
1.76816e-05
1.75459e-05
1.74187e-05
1.7294e-05
1.71743e-05
1.70531e-05
1.69369e-05
1.68211e-05
1.67176e-05
1.66028e-05
1.6501e-05
1.63981e-05
1.63017e-05
1.62008e-05
1.61112e-05
1.6014e-05
1.59255e-05
1.58374e-05
1.5753e-05
1.5661e-05
1.55847e-05
1.55025e-05
1.54231e-05
1.534e-05
1.52714e-05
1.5197e-05
1.51266e-05
1.50514e-05
1.49892e-05
1.49172e-05
1.48616e-05
1.47918e-05
1.47357e-05
1.46751e-05
1.46105e-05
1.45514e-05
1.45008e-05
1.99999e-05
1.98252e-05
1.94502e-05
1.92178e-05
1.9016e-05
1.88439e-05
1.86537e-05
1.85022e-05
1.83548e-05
1.8214e-05
1.8067e-05
1.79281e-05
1.77855e-05
1.76558e-05
1.75187e-05
1.73899e-05
1.72641e-05
1.71425e-05
1.70196e-05
1.69018e-05
1.67845e-05
1.66792e-05
1.65626e-05
1.64594e-05
1.63556e-05
1.62567e-05
1.61549e-05
1.60637e-05
1.59645e-05
1.58755e-05
1.57851e-05
1.56988e-05
1.5606e-05
1.55283e-05
1.54434e-05
1.53624e-05
1.52786e-05
1.52089e-05
1.51311e-05
1.50597e-05
1.49828e-05
1.49188e-05
1.48463e-05
1.4786e-05
1.47176e-05
1.4657e-05
1.45937e-05
1.4528e-05
1.44663e-05
1.44098e-05
1.99999e-05
1.98249e-05
1.9448e-05
1.92021e-05
1.90008e-05
1.88355e-05
1.8644e-05
1.84877e-05
1.83393e-05
1.81989e-05
1.8051e-05
1.79112e-05
1.77681e-05
1.76369e-05
1.74989e-05
1.73693e-05
1.72426e-05
1.71196e-05
1.69953e-05
1.68765e-05
1.67581e-05
1.66512e-05
1.65333e-05
1.64295e-05
1.63245e-05
1.62238e-05
1.61216e-05
1.60288e-05
1.59282e-05
1.58389e-05
1.57465e-05
1.56585e-05
1.55657e-05
1.54864e-05
1.53987e-05
1.5317e-05
1.52328e-05
1.51618e-05
1.50809e-05
1.50087e-05
1.49308e-05
1.48651e-05
1.47919e-05
1.47281e-05
1.46602e-05
1.45963e-05
1.45295e-05
1.44638e-05
1.43993e-05
1.43364e-05
1.99999e-05
1.9825e-05
1.94483e-05
1.91889e-05
1.89874e-05
1.88288e-05
1.86387e-05
1.84779e-05
1.83284e-05
1.81889e-05
1.80407e-05
1.79007e-05
1.77576e-05
1.76256e-05
1.74869e-05
1.73574e-05
1.72301e-05
1.71062e-05
1.69808e-05
1.68618e-05
1.67428e-05
1.66343e-05
1.65157e-05
1.6412e-05
1.63056e-05
1.62041e-05
1.61016e-05
1.60075e-05
1.59063e-05
1.58168e-05
1.57224e-05
1.56336e-05
1.5541e-05
1.54601e-05
1.53698e-05
1.52882e-05
1.52037e-05
1.5131e-05
1.50475e-05
1.49751e-05
1.48961e-05
1.48291e-05
1.47545e-05
1.46888e-05
1.46201e-05
1.45534e-05
1.44834e-05
1.44178e-05
1.43497e-05
1.42808e-05
1.99999e-05
1.98255e-05
1.94508e-05
1.91787e-05
1.89761e-05
1.88237e-05
1.86377e-05
1.84728e-05
1.83224e-05
1.81841e-05
1.80364e-05
1.7897e-05
1.77542e-05
1.76221e-05
1.74831e-05
1.73547e-05
1.72268e-05
1.71029e-05
1.69768e-05
1.68582e-05
1.67391e-05
1.66293e-05
1.65109e-05
1.64077e-05
1.62998e-05
1.61985e-05
1.60958e-05
1.60008e-05
1.58998e-05
1.581e-05
1.57138e-05
1.56251e-05
1.55329e-05
1.545e-05
1.53579e-05
1.5277e-05
1.51922e-05
1.51175e-05
1.50319e-05
1.49597e-05
1.48795e-05
1.48114e-05
1.47353e-05
1.46686e-05
1.4598e-05
1.45286e-05
1.44563e-05
1.43905e-05
1.43175e-05
1.42438e-05
1.99999e-05
1.98266e-05
1.94558e-05
1.91721e-05
1.89672e-05
1.88203e-05
1.86403e-05
1.84727e-05
1.83213e-05
1.81846e-05
1.80382e-05
1.78998e-05
1.77576e-05
1.76259e-05
1.74871e-05
1.73602e-05
1.7232e-05
1.71085e-05
1.69822e-05
1.68645e-05
1.67454e-05
1.66349e-05
1.65173e-05
1.64145e-05
1.63058e-05
1.62051e-05
1.61023e-05
1.60071e-05
1.59066e-05
1.58167e-05
1.57195e-05
1.56313e-05
1.55392e-05
1.5455e-05
1.53621e-05
1.52821e-05
1.51966e-05
1.51206e-05
1.50339e-05
1.49621e-05
1.48806e-05
1.4812e-05
1.47345e-05
1.46676e-05
1.45937e-05
1.45228e-05
1.44483e-05
1.43817e-05
1.43031e-05
1.4226e-05
1.99999e-05
1.98281e-05
1.94628e-05
1.9169e-05
1.89613e-05
1.88181e-05
1.86467e-05
1.8477e-05
1.83246e-05
1.81894e-05
1.80447e-05
1.79084e-05
1.77671e-05
1.76364e-05
1.74981e-05
1.73742e-05
1.72454e-05
1.71234e-05
1.6997e-05
1.68813e-05
1.67624e-05
1.66515e-05
1.65355e-05
1.64335e-05
1.63242e-05
1.62249e-05
1.61223e-05
1.60273e-05
1.5928e-05
1.58377e-05
1.574e-05
1.56532e-05
1.55611e-05
1.54752e-05
1.53823e-05
1.53035e-05
1.52169e-05
1.51393e-05
1.50521e-05
1.49805e-05
1.48975e-05
1.48286e-05
1.47495e-05
1.46826e-05
1.46047e-05
1.45335e-05
1.44568e-05
1.43888e-05
1.43048e-05
1.42256e-05
1.99999e-05
1.98301e-05
1.94715e-05
1.91698e-05
1.89581e-05
1.88177e-05
1.86559e-05
1.84862e-05
1.83329e-05
1.81993e-05
1.80568e-05
1.79232e-05
1.77831e-05
1.7654e-05
1.75168e-05
1.73962e-05
1.72672e-05
1.71472e-05
1.70215e-05
1.69082e-05
1.67898e-05
1.66794e-05
1.65655e-05
1.64643e-05
1.63554e-05
1.6258e-05
1.61557e-05
1.60622e-05
1.5964e-05
1.58736e-05
1.57766e-05
1.56915e-05
1.5599e-05
1.55125e-05
1.54208e-05
1.5343e-05
1.52551e-05
1.51769e-05
1.50899e-05
1.50186e-05
1.4934e-05
1.48656e-05
1.47847e-05
1.47177e-05
1.46344e-05
1.45645e-05
1.44846e-05
1.44145e-05
1.4325e-05
1.42433e-05
1.99999e-05
1.98326e-05
1.94818e-05
1.91739e-05
1.8958e-05
1.88188e-05
1.86672e-05
1.84993e-05
1.83453e-05
1.82133e-05
1.80734e-05
1.7943e-05
1.78043e-05
1.76774e-05
1.75416e-05
1.7425e-05
1.72957e-05
1.71786e-05
1.70537e-05
1.69435e-05
1.68255e-05
1.67167e-05
1.66051e-05
1.65047e-05
1.6397e-05
1.63018e-05
1.62002e-05
1.61087e-05
1.60116e-05
1.59216e-05
1.58264e-05
1.57429e-05
1.56497e-05
1.55638e-05
1.5474e-05
1.53964e-05
1.53073e-05
1.52297e-05
1.51432e-05
1.50717e-05
1.49859e-05
1.49188e-05
1.4836e-05
1.47685e-05
1.46806e-05
1.46134e-05
1.45289e-05
1.44567e-05
1.43624e-05
1.4278e-05
1.99999e-05
1.98355e-05
1.9493e-05
1.91819e-05
1.89609e-05
1.8822e-05
1.86803e-05
1.8516e-05
1.83617e-05
1.8231e-05
1.80938e-05
1.79671e-05
1.783e-05
1.77058e-05
1.75718e-05
1.74594e-05
1.73298e-05
1.72164e-05
1.70924e-05
1.69859e-05
1.68683e-05
1.67619e-05
1.66528e-05
1.65533e-05
1.64476e-05
1.63547e-05
1.62542e-05
1.61654e-05
1.60694e-05
1.59803e-05
1.58876e-05
1.58054e-05
1.57118e-05
1.56274e-05
1.55398e-05
1.54621e-05
1.53723e-05
1.52959e-05
1.52098e-05
1.51381e-05
1.50518e-05
1.49858e-05
1.49009e-05
1.48322e-05
1.47414e-05
1.46763e-05
1.45866e-05
1.45126e-05
1.44131e-05
1.43256e-05
1.99999e-05
1.98387e-05
1.9505e-05
1.91926e-05
1.89671e-05
1.88277e-05
1.86947e-05
1.85358e-05
1.83819e-05
1.82522e-05
1.81176e-05
1.79948e-05
1.78595e-05
1.77384e-05
1.76064e-05
1.74985e-05
1.73683e-05
1.72597e-05
1.71365e-05
1.70341e-05
1.6917e-05
1.68136e-05
1.67071e-05
1.66087e-05
1.65055e-05
1.64152e-05
1.63161e-05
1.62303e-05
1.61354e-05
1.60481e-05
1.59583e-05
1.5877e-05
1.57836e-05
1.57016e-05
1.5616e-05
1.55379e-05
1.54482e-05
1.53733e-05
1.52876e-05
1.52157e-05
1.51296e-05
1.50644e-05
1.49772e-05
1.49069e-05
1.48154e-05
1.47502e-05
1.46559e-05
1.45799e-05
1.44742e-05
1.43843e-05
1.99999e-05
1.98422e-05
1.95174e-05
1.92058e-05
1.89763e-05
1.88358e-05
1.87099e-05
1.85579e-05
1.84053e-05
1.82761e-05
1.81443e-05
1.80254e-05
1.78921e-05
1.77743e-05
1.76447e-05
1.75411e-05
1.74106e-05
1.73072e-05
1.71849e-05
1.70866e-05
1.69704e-05
1.68704e-05
1.67663e-05
1.66695e-05
1.6569e-05
1.64814e-05
1.63844e-05
1.63014e-05
1.62078e-05
1.61233e-05
1.60362e-05
1.59557e-05
1.58633e-05
1.57843e-05
1.57e-05
1.56218e-05
1.55331e-05
1.54597e-05
1.53739e-05
1.53026e-05
1.52171e-05
1.51519e-05
1.50623e-05
1.49907e-05
1.49e-05
1.48323e-05
1.47347e-05
1.46558e-05
1.45435e-05
1.44523e-05
1.99999e-05
1.98458e-05
1.95299e-05
1.92209e-05
1.89885e-05
1.88463e-05
1.87259e-05
1.85817e-05
1.84314e-05
1.83025e-05
1.81734e-05
1.80581e-05
1.7927e-05
1.78128e-05
1.76858e-05
1.75859e-05
1.74559e-05
1.73575e-05
1.72367e-05
1.7142e-05
1.70272e-05
1.6931e-05
1.68288e-05
1.67344e-05
1.66365e-05
1.65517e-05
1.64573e-05
1.63769e-05
1.6285e-05
1.62041e-05
1.61192e-05
1.60395e-05
1.59491e-05
1.58731e-05
1.57897e-05
1.57118e-05
1.56246e-05
1.55525e-05
1.54666e-05
1.53965e-05
1.53115e-05
1.52455e-05
1.51537e-05
1.50817e-05
1.49919e-05
1.49201e-05
1.48206e-05
1.47372e-05
1.46194e-05
1.4527e-05
1.99999e-05
1.98496e-05
1.95425e-05
1.92375e-05
1.90034e-05
1.88593e-05
1.87424e-05
1.86066e-05
1.84597e-05
1.8331e-05
1.82044e-05
1.80924e-05
1.79638e-05
1.78531e-05
1.7729e-05
1.76321e-05
1.75035e-05
1.74095e-05
1.72908e-05
1.71991e-05
1.70862e-05
1.6994e-05
1.68932e-05
1.68019e-05
1.67064e-05
1.66245e-05
1.65332e-05
1.64551e-05
1.63653e-05
1.62886e-05
1.62053e-05
1.61266e-05
1.60393e-05
1.59659e-05
1.58829e-05
1.5806e-05
1.57208e-05
1.56494e-05
1.55637e-05
1.54953e-05
1.54103e-05
1.53432e-05
1.52493e-05
1.51782e-05
1.50879e-05
1.5012e-05
1.49103e-05
1.48216e-05
1.47006e-05
1.46057e-05
1.99999e-05
1.98534e-05
1.9555e-05
1.92553e-05
1.90208e-05
1.88745e-05
1.87597e-05
1.86322e-05
1.84897e-05
1.83612e-05
1.8237e-05
1.81278e-05
1.80019e-05
1.78946e-05
1.77737e-05
1.76789e-05
1.75527e-05
1.74623e-05
1.73464e-05
1.72569e-05
1.71467e-05
1.70583e-05
1.69584e-05
1.68708e-05
1.67775e-05
1.66986e-05
1.66105e-05
1.65346e-05
1.64474e-05
1.63751e-05
1.62929e-05
1.62156e-05
1.61319e-05
1.60607e-05
1.5978e-05
1.59027e-05
1.58194e-05
1.57485e-05
1.56634e-05
1.55968e-05
1.55112e-05
1.54427e-05
1.53473e-05
1.52779e-05
1.5185e-05
1.51064e-05
1.50009e-05
1.49077e-05
1.47852e-05
1.46848e-05
1.99999e-05
1.98572e-05
1.95671e-05
1.92738e-05
1.90403e-05
1.88916e-05
1.87776e-05
1.86581e-05
1.85208e-05
1.83928e-05
1.82708e-05
1.8164e-05
1.80408e-05
1.79368e-05
1.78191e-05
1.77258e-05
1.76028e-05
1.75153e-05
1.74026e-05
1.73146e-05
1.72078e-05
1.71227e-05
1.70234e-05
1.694e-05
1.68485e-05
1.67729e-05
1.66879e-05
1.66139e-05
1.653e-05
1.64619e-05
1.63804e-05
1.63054e-05
1.62253e-05
1.61557e-05
1.60736e-05
1.60003e-05
1.59186e-05
1.5848e-05
1.57641e-05
1.56989e-05
1.5612e-05
1.55425e-05
1.54461e-05
1.53786e-05
1.5281e-05
1.52014e-05
1.50903e-05
1.49943e-05
1.48707e-05
1.47612e-05
1.99999e-05
1.98609e-05
1.9579e-05
1.92926e-05
1.90614e-05
1.89104e-05
1.87964e-05
1.86842e-05
1.85524e-05
1.84254e-05
1.83054e-05
1.82005e-05
1.80801e-05
1.79792e-05
1.78646e-05
1.77727e-05
1.76532e-05
1.7568e-05
1.74585e-05
1.73716e-05
1.72688e-05
1.7186e-05
1.70877e-05
1.70084e-05
1.69185e-05
1.68464e-05
1.67642e-05
1.66921e-05
1.66121e-05
1.65476e-05
1.64668e-05
1.63948e-05
1.63179e-05
1.62495e-05
1.61685e-05
1.60972e-05
1.60169e-05
1.59466e-05
1.58642e-05
1.57997e-05
1.57113e-05
1.56411e-05
1.55442e-05
1.54777e-05
1.53749e-05
1.52947e-05
1.51772e-05
1.50804e-05
1.49537e-05
1.48329e-05
1.99999e-05
1.98646e-05
1.95905e-05
1.93115e-05
1.90836e-05
1.89307e-05
1.88159e-05
1.87102e-05
1.85842e-05
1.84588e-05
1.83407e-05
1.82372e-05
1.81194e-05
1.80216e-05
1.79098e-05
1.78194e-05
1.77032e-05
1.76201e-05
1.75136e-05
1.74275e-05
1.73293e-05
1.72476e-05
1.71509e-05
1.7075e-05
1.69869e-05
1.69184e-05
1.68383e-05
1.67686e-05
1.66927e-05
1.6631e-05
1.65513e-05
1.64828e-05
1.64086e-05
1.63411e-05
1.62616e-05
1.61923e-05
1.61129e-05
1.60432e-05
1.59625e-05
1.58979e-05
1.58077e-05
1.57374e-05
1.56404e-05
1.55732e-05
1.54661e-05
1.53841e-05
1.52615e-05
1.51643e-05
1.50308e-05
1.48996e-05
1.99999e-05
1.98681e-05
1.96015e-05
1.93301e-05
1.91065e-05
1.89521e-05
1.88364e-05
1.87362e-05
1.86158e-05
1.84927e-05
1.83764e-05
1.8274e-05
1.81586e-05
1.80639e-05
1.79544e-05
1.78656e-05
1.77525e-05
1.76714e-05
1.75671e-05
1.74826e-05
1.73883e-05
1.73072e-05
1.72127e-05
1.71393e-05
1.70533e-05
1.69883e-05
1.69094e-05
1.68431e-05
1.6771e-05
1.67113e-05
1.66333e-05
1.65688e-05
1.64963e-05
1.64296e-05
1.63522e-05
1.62847e-05
1.62057e-05
1.61368e-05
1.60577e-05
1.59925e-05
1.59005e-05
1.58306e-05
1.57333e-05
1.5664e-05
1.55539e-05
1.54683e-05
1.53428e-05
1.52435e-05
1.51e-05
1.49621e-05
1.99999e-05
1.98715e-05
1.96121e-05
1.93483e-05
1.91296e-05
1.89745e-05
1.88578e-05
1.87622e-05
1.86469e-05
1.85269e-05
1.84123e-05
1.83107e-05
1.81976e-05
1.81058e-05
1.79983e-05
1.79114e-05
1.78006e-05
1.77219e-05
1.76186e-05
1.75369e-05
1.7445e-05
1.73649e-05
1.72725e-05
1.72007e-05
1.71176e-05
1.70552e-05
1.69773e-05
1.69154e-05
1.68463e-05
1.6788e-05
1.67126e-05
1.6652e-05
1.65804e-05
1.65148e-05
1.64397e-05
1.63734e-05
1.62948e-05
1.62271e-05
1.61492e-05
1.60827e-05
1.59893e-05
1.592e-05
1.58213e-05
1.57501e-05
1.56367e-05
1.55475e-05
1.54201e-05
1.53158e-05
1.51618e-05
1.50215e-05
1.99999e-05
1.98748e-05
1.96222e-05
1.93659e-05
1.91526e-05
1.89976e-05
1.88803e-05
1.87881e-05
1.86774e-05
1.85611e-05
1.84484e-05
1.83474e-05
1.82365e-05
1.81473e-05
1.80415e-05
1.79564e-05
1.78477e-05
1.77713e-05
1.76684e-05
1.75904e-05
1.74993e-05
1.7421e-05
1.73298e-05
1.72596e-05
1.71794e-05
1.71188e-05
1.7042e-05
1.6985e-05
1.69178e-05
1.68611e-05
1.67889e-05
1.67316e-05
1.66605e-05
1.65965e-05
1.65236e-05
1.64579e-05
1.638e-05
1.63135e-05
1.62362e-05
1.61677e-05
1.6074e-05
1.60051e-05
1.59038e-05
1.58314e-05
1.57136e-05
1.56225e-05
1.54913e-05
1.53804e-05
1.52176e-05
1.50767e-05
1.99999e-05
1.98779e-05
1.96317e-05
1.93829e-05
1.91752e-05
1.90211e-05
1.89037e-05
1.88141e-05
1.87073e-05
1.85952e-05
1.84844e-05
1.83839e-05
1.82753e-05
1.81884e-05
1.80841e-05
1.80006e-05
1.7894e-05
1.78193e-05
1.7717e-05
1.76424e-05
1.75513e-05
1.74753e-05
1.73843e-05
1.73166e-05
1.7238e-05
1.71789e-05
1.71039e-05
1.70514e-05
1.69855e-05
1.69309e-05
1.68618e-05
1.68071e-05
1.67369e-05
1.66747e-05
1.66032e-05
1.65378e-05
1.64613e-05
1.63959e-05
1.63182e-05
1.62477e-05
1.61543e-05
1.60855e-05
1.59809e-05
1.59071e-05
1.57839e-05
1.56936e-05
1.55549e-05
1.54377e-05
1.52685e-05
1.51242e-05
1.99999e-05
1.98808e-05
1.96406e-05
1.93992e-05
1.91972e-05
1.90447e-05
1.89279e-05
1.88401e-05
1.87365e-05
1.86291e-05
1.85203e-05
1.84203e-05
1.83142e-05
1.82289e-05
1.8126e-05
1.8044e-05
1.79394e-05