/*--------------------------------*- C++ -*----------------------------------*\
  =========                 |
  \\      /  F ield         | OpenFOAM: The Open Source CFD Toolbox
   \\    /   O peration     | Website:  https://openfoam.org
    \\  /    A nd           | Version:  7
     \\/     M anipulation  |
\*---------------------------------------------------------------------------*/
FoamFile
{
    version     2.0;
    format      ascii;
    class       volScalarField;
    location    "0.44";
    object      nut;
}
// * * * * * * * * * * * * * * * * * * * * * * * * * * * * * * * * * * * * * //

dimensions      [0 2 -1 0 0 0 0];

internalField   nonuniform List<scalar> 
70000
(
0
0
0
0
0
0
0
0
0
0
0
0
0
0
0
0
0
0
0
0
0
0
0
0
0
0
0
0
0
0
0
0
0
0
0
0
0
0
0
0
0
2.61407e-14
0
1.27491e-13
2.23267e-14
3.10635e-13
0
9.26981e-13
0
0
0
0
0
0
0
0
0
0
0
0
0
0
0
0
0
0
0
0
0
0
0
0
0
0
0
0
0
0
0
0
0
0
0
0
0
0
0
0
0
0
0
4.72157e-14
0
2.23428e-13
0
5.66616e-13
0
1.81062e-12
6.32043e-13
0
0
0
0
0
0
0
0
0
0
0
0
0
0
0
0
0
0
0
0
0
0
0
0
0
0
0
0
0
0
0
0
0
0
0
0
0
0
0
0
0
0
2.23098e-14
0
2.21283e-13
0
6.56614e-13
0
2.16864e-12
5.38021e-12
0
0
0
0
0
0
0
0
0
0
0
0
0
0
0
0
0
0
0
0
0
0
0
0
0
0
0
0
0
0
0
0
0
0
0
0
0
0
0
0
0
0
0
0
7.25736e-14
0
5.21493e-13
0
1.64473e-12
9.69254e-12
0
0
0
0
0
0
0
0
0
0
0
0
0
0
0
0
0
0
0
0
0
0
0
0
0
0
0
0
0
0
0
0
0
0
0
0
0
0
0
0
0
0
0
0
0
0
2.63092e-13
0
6.62426e-13
1.173e-11
0
9.44679e-10
0
0
0
0
0
0
0
0
0
0
0
0
0
0
0
0
0
0
0
0
0
0
0
0
0
0
0
0
0
0
0
0
0
0
0
0
0
0
0
0
0
0
0
0
0
0
0
1.21984e-11
0
1.31877e-08
0
0
0
0
0
0
0
0
0
0
0
0
0
0
0
0
0
0
0
0
0
0
0
0
0
0
0
0
0
0
0
0
0
0
0
0
0
0
0
0
0
0
0
0
0
0
0
1.19961e-11
0
1.20813e-08
0
0
0
0
0
0
0
0
0
0
0
0
0
0
0
0
0
0
0
0
0
0
0
0
0
0
0
0
0
0
0
0
0
0
0
0
0
0
0
0
0
0
0
0
0
0
0
1.13329e-11
0
1.10621e-08
0
0
0
0
0
0
0
0
0
0
0
0
0
0
0
0
0
0
0
0
0
0
0
0
0
0
0
0
0
0
0
0
0
0
0
0
0
0
0
0
0
0
0
0
0
0
0
1.01917e-11
0
1.0214e-08
0
0
0
0
0
0
0
0
0
0
0
0
0
0
0
0
0
0
0
0
0
0
0
0
0
0
0
0
0
0
0
0
0
0
0
0
0
0
0
0
0
0
0
0
0
0
0
8.6297e-12
0
9.50357e-09
0
0
0
0
0
0
0
0
0
0
0
0
0
0
0
0
0
0
0
0
0
0
0
0
0
0
0
0
0
0
0
0
0
0
0
0
0
0
0
0
0
0
0
0
0
0
0
6.79279e-12
0
8.86033e-09
0
0
0
0
0
0
0
0
0
0
0
0
0
0
0
0
0
0
0
0
0
0
0
0
0
0
0
0
0
0
0
0
0
0
0
0
0
0
0
0
0
0
0
0
0
0
0
4.83586e-12
0
8.21856e-09
0
0
0
0
0
0
0
0
0
0
0
0
0
0
0
0
0
0
0
0
0
0
0
0
0
0
0
0
0
0
0
0
0
0
0
0
0
0
0
0
0
0
0
0
0
0
0
2.9064e-12
0
7.55842e-09
0
0
0
0
0
0
0
0
0
0
0
0
9.75118e-12
1.28187e-12
0
0
0
0
0
0
0
0
0
0
0
0
0
0
0
0
0
0
0
0
0
0
0
0
0
0
0
0
0
0
0
0
0
1.1293e-12
0
6.88606e-09
0
0
0
0
0
0
0
0
0
0
0
0
0
0
6.56055e-12
4.25437e-11
4.11844e-11
1.54533e-11
7.7164e-13
0
0
0
0
0
0
0
0
0
0
0
0
0
0
0
0
0
0
0
0
0
0
0
0
0
0
0
0
0
0
6.21256e-09
0
0
0
0
0
0
0
0
0
0
0
0
0
0
0
0
0
8.12794e-12
4.02958e-11
6.57195e-11
6.97985e-11
4.54186e-11
1.91319e-11
5.37347e-12
0
0
0
0
0
0
0
0
0
0
0
0
0
0
0
0
0
0
0
0
0
3.3267e-13
0
0
0
5.54644e-09
0
0
0
5.44523e-11
0
0
0
0
0
0
0
0
0
0
0
0
0
0
0
0
0
1.72806e-11
3.90588e-11
6.03937e-11
7.71381e-11
8.17833e-11
6.57106e-11
3.86281e-11
1.81715e-11
6.9758e-12
1.37867e-12
0
0
0
0
0
0
0
0
0
0
0
0
0
0
1.33051e-12
0
0
0
4.89396e-09
0
0
0
1.35005e-10
0
0
0
0
0
0
0
0
0
0
0
0
0
0
0
0
0
0
0
0
0
9.12416e-12
2.09157e-11
3.36911e-11
4.64153e-11
5.75653e-11
6.56856e-11
6.7822e-11
5.97185e-11
4.15631e-11
2.26209e-11
8.91467e-12
1.36819e-12
0
0
0
0
0
0
0
0
3.67497e-12
0
0
0
4.26062e-09
0
0
0
1.86752e-10
0
0
0
0
0
0
0
0
0
0
0
0
0
0
0
0
0
0
0
0
0
0
0
0
0
0
6.76485e-13
4.35189e-12
8.15302e-12
1.08945e-11
1.2485e-11
1.07756e-11
6.1729e-12
0
0
0
0
0
0
0
0
0
0
0
0
3.65154e-09
0
0
0
1.94475e-10
0
0
0
0
0
0
0
0
0
0
0
0
0
0
0
0
0
0
0
0
0
0
0
0
0
0
0
0
0
0
0
0
0
0
0
0
0
0
0
0
0
0
0
0
0
3.07098e-09
0
0
0
1.40638e-10
0
0
0
0
0
0
0
0
0
0
0
0
0
0
0
0
0
0
0
0
0
0
0
0
0
0
0
0
0
0
0
0
0
0
0
0
0
0
0
0
0
0
0
0
0
2.5219e-09
0
0
0
5.95316e-12
0
0
0
0
0
0
0
0
0
0
0
0
0
0
0
0
0
0
0
0
0
0
0
0
0
0
0
0
0
0
0
0
0
0
0
0
0
0
0
0
0
0
0
0
0
2.0056e-09
0
0
0
0
0
0
0
0
0
0
0
0
0
0
0
0
0
0
0
0
0
0
0
0
0
0
0
0
0
0
0
0
0
0
0
0
0
0
0
0
0
0
0
0
0
0
0
0
0
1.52166e-09
0
0
0
0
0
0
0
0
0
0
0
0
0
0
0
0
0
0
0
0
0
0
0
0
0
0
0
0
0
0
0
0
0
0
0
0
0
0
0
0
0
0
0
0
0
0
0
0
0
1.06808e-09
0
0
0
0
0
0
0
0
0
0
0
0
0
0
0
0
0
0
0
0
0
0
0
0
0
0
0
0
0
0
0
0
0
0
0
0
0
0
0
0
0
0
0
0
0
0
0
0
4.75885e-11
6.41696e-10
0
0
0
0
0
0
0
0
0
0
0
0
0
0
0
0
0
0
0
0
0
0
0
0
0
0
0
0
0
0
0
0
0
0
0
0
0
0
0
0
0
0
0
0
0
0
0
0
1.71798e-10
2.38713e-10
0
0
0
0
0
0
0
0
0
0
0
0
0
0
0
0
0
0
0
0
0
0
0
0
0
0
0
0
0
0
0
0
0
0
0
0
0
0
0
0
0
0
0
0
0
0
0
9.54227e-11
3.13954e-10
0
0
0
0
0
0
0
0
0
0
0
0
0
0
0
0
0
0
0
0
0
0
0
0
0
0
0
0
0
0
0
0
0
0
0
0
0
0
0
0
0
0
0
0
0
0
0
9.9466e-12
2.26967e-10
4.74896e-10
0
0
0
0
0
0
0
0
0
0
0
0
0
0
0
0
0
0
0
0
0
0
0
0
0
0
0
0
0
0
0
0
0
0
0
0
0
0
0
0
0
0
0
0
0
0
0
1.10681e-10
3.78499e-10
6.54945e-10
0
0
0
0
0
0
0
0
0
0
0
0
0
0
0
0
0
0
0
0
0
0
0
0
0
0
0
0
0
0
0
0
0
0
0
0
0
0
0
0
0
0
0
0
0
0
3.44346e-11
2.29362e-10
5.50308e-10
8.53835e-10
0
0
0
0
0
0
0
0
0
0
0
0
0
0
0
0
0
0
0
0
0
0
0
0
0
0
0
0
0
0
0
0
0
0
0
0
0
0
0
0
0
0
0
0
0
0
1.27776e-10
3.6684e-10
7.42302e-10
1.07092e-09
0
0
0
0
0
0
0
0
0
0
0
0
0
0
0
0
0
0
0
0
0
0
0
0
0
0
0
0
0
0
0
0
0
0
0
0
0
0
0
0
0
0
0
0
0
4.32573e-11
2.37768e-10
5.23485e-10
9.53912e-10
1.30471e-09
0
7.14398e-10
0
0
0
0
0
0
0
0
0
0
0
0
0
0
0
0
0
0
0
0
0
0
0
0
0
0
0
0
0
0
0
0
0
0
0
0
0
0
0
0
0
0
0
1.28493e-10
3.64887e-10
6.99085e-10
1.1839e-09
1.55273e-09
0
1.62733e-09
0
0
0
0
0
0
0
0
0
0
0
0
0
0
0
0
0
0
0
0
0
0
0
0
0
0
0
0
0
0
0
0
0
0
0
0
0
0
0
0
0
0
5.84602e-11
2.28627e-10
5.09058e-10
8.92686e-10
1.4302e-09
1.81209e-09
0
2.41441e-09
0
0
0
0
0
0
0
0
0
0
0
0
0
0
0
0
0
0
0
0
0
0
0
0
0
0
0
0
0
0
0
0
0
0
0
0
0
0
0
0
0
0
1.37888e-10
3.43825e-10
6.69675e-10
1.10275e-09
1.69019e-09
2.07966e-09
0
3.0781e-09
0
0
0
0
0
0
0
0
0
0
0
0
0
0
0
0
0
0
0
0
0
0
0
0
0
0
0
0
0
0
0
0
0
0
0
0
0
0
0
0
0
5.88931e-11
2.30192e-10
4.73656e-10
8.45347e-10
1.32683e-09
1.96029e-09
2.35139e-09
0
3.62391e-09
0
0
0
0
0
0
0
0
0
0
0
0
0
0
0
0
0
0
0
0
0
0
0
0
0
0
0
0
0
0
0
0
0
0
0
0
0
0
0
0
2.58809e-12
1.3125e-10
3.35023e-10
6.1699e-10
1.03387e-09
1.56155e-09
2.23597e-09
2.62237e-09
0
4.05959e-09
0
0
0
0
0
0
0
0
0
0
0
0
0
0
0
0
0
0
0
0
0
0
0
0
0
0
0
0
0
0
0
0
0
0
0
0
0
0
0
0
5.86847e-11
2.14252e-10
4.51447e-10
7.71958e-10
1.23227e-09
1.80268e-09
2.51186e-09
2.88716e-09
0
4.3937e-09
0
0
0
0
0
0
0
0
0
0
0
0
0
0
0
0
0
0
0
0
0
0
0
0
0
0
0
0
0
0
0
0
0
0
0
0
0
0
0
0
1.23601e-10
3.07113e-10
5.77878e-10
9.35914e-10
1.43673e-09
2.04516e-09
2.78189e-09
3.13964e-09
0
4.63534e-09
0
0
0
0
0
0
0
0
0
0
0
0
0
0
0
0
0
0
0
0
0
0
0
0
0
0
0
0
0
0
0
0
0
0
0
0
0
0
0
4.33703e-11
1.96672e-10
4.08478e-10
7.12027e-10
1.10545e-09
1.6426e-09
2.28307e-09
3.03934e-09
3.37301e-09
0
4.79481e-09
0
0
0
0
0
0
0
0
0
0
0
0
0
0
0
0
0
0
0
0
0
0
0
0
0
0
0
0
0
0
0
0
0
0
0
0
0
0
0
9.95713e-11
2.76738e-10
5.1639e-10
8.50893e-10
1.27644e-09
1.84447e-09
2.50985e-09
3.27691e-09
3.57994e-09
0
4.88342e-09
0
0
0
0
0
0
0
0
0
0
0
0
0
0
0
0
0
0
0
0
0
0
0
0
0
0
0
0
0
0
0
0
0
0
0
0
0
0
1.95707e-11
1.61525e-10
3.62121e-10
6.28283e-10
9.90795e-10
1.44407e-09
2.03621e-09
2.71839e-09
3.48677e-09
3.75275e-09
0
4.91244e-09
0
0
0
0
0
0
0
0
0
0
0
0
0
0
0
0
0
0
0
0
0
0
0
0
0
0
0
0
0
0
0
0
0
0
0
0
0
0
6.60727e-11
2.27827e-10
4.50626e-10
7.40991e-10
1.12743e-09
1.60287e-09
2.21117e-09
2.90109e-09
3.66053e-09
3.8835e-09
0
4.89222e-09
0
0
0
0
0
0
0
0
0
0
0
0
0
0
0
0
0
0
0
0
0
0
0
0
0
0
0
0
0
0
0
0
0
0
0
0
0
0
1.16061e-10
2.96631e-10
5.39557e-10
8.5078e-10
1.25597e-09
1.74681e-09
2.36224e-09
3.04989e-09
3.78931e-09
3.96419e-09
0
4.83182e-09
0
0
0
0
0
0
0
0
0
0
0
0
0
0
0
0
0
0
0
0
0
0
0
0
0
0
0
0
0
0
0
0
0
0
0
0
0
1.66131e-11
1.68025e-10
3.65673e-10
6.25754e-10
9.5342e-10
1.37111e-09
1.86936e-09
2.48194e-09
3.15632e-09
3.86385e-09
3.98691e-09
0
4.73891e-09
0
0
0
0
0
0
0
0
0
0
0
0
0
0
0
0
0
0
0
0
0
0
0
0
0
0
0
0
0
0
0
0
0
0
0
0
0
5.4587e-11
2.20117e-10
4.32311e-10
7.05645e-10
1.04428e-09
1.46717e-09
1.9637e-09
2.56249e-09
3.2114e-09
3.8748e-09
3.94386e-09
0
4.6199e-09
0
0
0
0
0
0
0
0
0
0
0
0
0
0
0
0
0
0
0
0
0
0
0
0
0
0
0
0
0
0
0
0
0
0
0
0
0
9.27493e-11
2.70192e-10
4.93581e-10
7.75308e-10
1.11844e-09
1.53812e-09
2.02276e-09
2.59573e-09
3.2059e-09
3.8128e-09
3.82713e-09
0
4.48008e-09
0
0
0
0
0
0
0
0
0
0
0
0
0
0
0
0
0
0
0
0
0
0
0
0
0
0
0
0
0
0
0
0
0
0
0
0
0
1.29413e-10
3.15866e-10
5.46272e-10
8.30599e-10
1.17076e-09
1.57772e-09
2.03936e-09
2.57318e-09
3.13039e-09
3.66834e-09
3.62832e-09
0
4.32383e-09
0
0
0
0
0
0
0
0
0
0
0
0
0
0
0
0
0
0
0
0
0
0
0
0
0
0
0
0
0
0
0
0
0
0
0
0
6.06982e-12
1.62727e-10
3.54592e-10
5.87018e-10
8.67269e-10
1.19601e-09
1.57969e-09
2.00611e-09
2.48619e-09
2.97533e-09
3.43142e-09
3.3385e-09
0
4.15485e-09
0
0
0
0
0
0
0
0
0
0
0
0
0
0
0
0
0
0
0
0
0
0
0
0
0
0
0
0
0
0
0
0
0
0
0
0
2.936e-11
1.90762e-10
3.83763e-10
6.12416e-10
8.81078e-10
1.18895e-09
1.53787e-09
1.91553e-09
2.32611e-09
2.73089e-09
3.09122e-09
2.94861e-09
0
3.97637e-09
0
0
0
0
0
0
0
0
0
0
0
0
0
0
0
0
0
0
0
0
0
0
0
0
0
0
0
0
0
0
0
0
0
0
0
0
4.90308e-11
2.11598e-10
4.00822e-10
6.19186e-10
8.67961e-10
1.14459e-09
1.44626e-09
1.76018e-09
2.08429e-09
2.38668e-09
2.63612e-09
2.44941e-09
0
3.79119e-09
0
0
0
0
0
0
0
0
0
0
0
0
0
0
0
0
0
0
0
0
0
0
0
0
0
0
0
0
0
0
0
0
0
0
0
0
6.37936e-11
2.23456e-10
4.03427e-10
6.04356e-10
8.24224e-10
1.05838e-09
1.29918e-09
1.53297e-09
1.75204e-09
1.9317e-09
2.05365e-09
1.83101e-09
0
3.60171e-09
0
0
0
0
0
0
0
0
0
0
0
0
0
0
0
0
0
0
0
0
0
0
0
0
0
0
0
0
0
0
0
0
0
0
0
0
7.25619e-11
2.24849e-10
3.89642e-10
5.65474e-10
7.46779e-10
9.26393e-10
1.09154e-09
1.22737e-09
1.32061e-09
1.35427e-09
1.33019e-09
1.08239e-09
0
3.41006e-09
0
0
0
0
0
0
0
0
0
0
0
0
0
0
0
0
0
0
0
0
0
0
0
0
0
0
0
0
0
0
0
0
0
0
0
0
7.45965e-11
2.14771e-10
3.58169e-10
5.00873e-10
6.33474e-10
7.45722e-10
8.19305e-10
8.37608e-10
7.81286e-10
6.42086e-10
4.50199e-10
1.90635e-10
0
3.21823e-09
0
0
0
0
0
0
0
0
0
0
0
0
0
0
0
0
0
0
0
0
0
0
0
0
0
0
0
0
0
0
0
0
0
0
0
0
6.96779e-11
1.92918e-10
3.08614e-10
4.10011e-10
4.83478e-10
5.14939e-10
4.79956e-10
3.58951e-10
1.2592e-10
0
0
0
0
3.02807e-09
0
0
0
0
0
0
0
0
0
0
0
0
0
0
0
0
0
0
0
0
0
0
0
0
0
0
0
0
0
0
0
0
0
0
0
0
5.83047e-11
1.59945e-10
2.4182e-10
2.93899e-10
2.97829e-10
2.34748e-10
7.31598e-11
0
0
0
0
0
0
2.84121e-09
0
0
0
0
0
0
0
0
0
0
0
0
0
0
0
0
0
0
0
0
0
0
0
0
0
0
0
0
0
0
0
0
0
0
0
0
4.19135e-11
1.17768e-10
1.60279e-10
1.55637e-10
8.01295e-11
0
0
0
0
0
0
0
0
2.659e-09
0
0
0
0
0
0
0
0
0
0
0
0
0
0
0
0
0
0
0
0
0
0
0
0
0
0
0
0
0
0
0
0
0
0
0
0
2.31136e-11
6.98963e-11
6.85953e-11
1.07911e-12
0
0
0
0
0
0
0
0
0
2.48253e-09
0
0
0
0
0
0
0
0
0
0
0
0
0
0
0
0
0
0
0
0
0
0
0
0
0
0
0
0
0
0
0
0
0
0
0
0
5.91982e-12
2.17877e-11
0
0
0
0
0
0
0
0
0
0
0
2.31264e-09
0
0
0
0
0
0
0
0
0
0
0
0
0
0
0
0
0
0
0
0
0
0
0
0
0
0
0
0
0
0
0
0
0
0
0
0
0
0
0
0
0
0
0
0
0
0
0
0
0
2.14991e-09
0
0
0
0
0
0
0
0
0
0
0
0
0
0
0
0
0
0
0
0
0
0
0
0
0
0
0
0
0
0
0
0
0
0
0
0
5.08627e-13
0
0
0
0
0
0
0
0
0
0
0
0
1.99475e-09
0
0
0
0
0
0
0
0
0
0
0
0
0
0
0
0
0
0
0
0
0
0
0
0
0
0
0
0
0
0
0
0
0
0
0
1.31998e-11
2.8534e-11
0
0
0
0
0
0
0
0
0
0
0
0
1.84738e-09
0
0
0
0
0
0
0
0
0
0
0
0
0
0
0
0
0
0
0
0
0
0
0
0
0
0
0
0
0
0
0
0
0
0
0
7.68413e-11
9.00936e-11
1.96105e-11
0
0
0
0
0
0
0
0
0
0
0
1.70791e-09
3.39401e-11
0
0
0
0
0
0
0
0
0
0
0
0
0
0
0
0
0
0
0
0
0
0
0
0
0
0
0
0
0
0
0
0
0
8.2794e-11
1.71767e-10
1.9537e-10
1.34303e-10
0
0
0
0
0
0
0
0
0
0
0
1.57634e-09
5.66359e-11
0
0
0
0
0
0
0
0
0
0
0
0
0
0
0
0
0
0
0
0
0
0
0
0
0
0
0
0
0
0
0
0
3.05853e-11
1.9114e-10
3.02904e-10
3.5277e-10
3.24153e-10
1.9075e-10
0
0
0
0
0
0
0
0
0
0
1.4526e-09
6.96357e-11
0
0
0
0
0
0
0
0
0
0
0
0
0
0
0
0
0
0
0
0
0
0
0
0
0
0
0
0
0
0
0
0
1.34553e-10
3.2461e-10
4.71631e-10
5.65936e-10
5.96621e-10
5.46428e-10
3.94015e-10
1.02968e-10
0
0
0
0
0
0
8.65857e-09
0
1.33653e-09
7.45289e-11
0
0
0
0
0
0
0
0
0
0
0
0
0
0
0
0
0
0
0
0
0
0
0
0
0
0
0
0
0
0
0
0
2.51273e-10
4.7893e-10
6.73202e-10
8.29681e-10
9.46163e-10
1.01959e-09
1.05298e-09
1.0545e-09
1.06351e-09
1.18447e-09
1.78443e-09
4.2183e-09
1.44569e-08
3.18338e-08
1.1971e-08
0
1.22792e-09
7.26615e-11
0
0
0
0
0
0
0
0
0
0
0
0
0
0
0
0
0
0
0
0
0
0
0
0
0
0
0
0
0
0
0
8.17866e-11
3.72911e-10
6.43879e-10
8.94052e-10
1.12548e-09
1.34658e-09
1.5715e-09
1.83255e-09
2.19079e-09
2.78582e-09
3.92775e-09
6.39209e-09
1.19128e-08
2.09019e-08
1.97776e-08
6.69063e-09
0
1.12651e-09
6.5165e-11
0
0
0
0
0
0
0
0
0
0
0
0
0
0
0
0
0
0
0
0
0
0
0
0
0
0
0
0
0
0
0
1.60667e-10
4.87016e-10
8.02269e-10
1.10999e-09
1.41838e-09
1.74561e-09
2.12056e-09
2.59801e-09
3.27268e-09
4.32527e-09
6.06863e-09
8.94995e-09
1.28531e-08
1.48688e-08
1.10177e-08
3.12714e-09
0
1.03201e-09
5.29889e-11
0
0
0
0
0
0
0
0
0
0
0
0
0
0
0
0
0
0
0
0
0
0
0
0
0
0
0
0
0
0
0
2.19891e-10
5.76984e-10
9.30527e-10
1.28696e-09
1.65825e-09
2.06763e-09
2.54886e-09
3.15836e-09
3.97781e-09
5.1209e-09
6.67078e-09
8.47069e-09
9.67791e-09
8.99767e-09
5.97253e-09
1.01865e-09
0
9.44101e-10
3.69238e-11
0
0
0
0
0
0
0
0
0
0
0
0
0
0
0
0
0
0
0
0
0
0
0
0
0
0
0
0
0
0
0
2.46512e-10
6.24132e-10
1.00179e-09
1.38618e-09
1.78888e-09
2.23047e-09
2.73573e-09
3.3386e-09
4.06682e-09
4.91743e-09
5.77306e-09
6.32269e-09
6.12427e-09
5.00858e-09
2.9793e-09
0
0
8.62476e-10
1.76106e-11
0
0
0
0
0
0
0
0
0
0
0
0
0
0
0
0
0
0
0
0
0
0
0
0
0
0
0
0
0
0
0
2.29245e-10
6.11873e-10
9.92264e-10
1.37446e-09
1.76515e-09
2.17506e-09
2.6109e-09
3.07435e-09
3.54038e-09
3.94169e-09
4.1404e-09
3.97781e-09
3.38215e-09
2.46881e-09
1.20604e-09
0
0
7.86821e-10
0
0
0
0
0
0
0
0
0
0
0
0
0
0
0
0
0
0
0
0
0
0
0
0
0
0
0
0
0
0
0
0
1.62308e-10
5.31379e-10
8.89959e-10
1.23723e-09
1.57255e-09
1.89504e-09
2.19482e-09
2.45232e-09
2.62542e-09
2.65716e-09
2.48222e-09
2.08695e-09
1.52874e-09
9.28028e-10
2.25962e-10
0
0
7.16831e-10
0
0
0
0
0
0
0
0
0
0
0
0
0
0
0
0
0
0
0
0
0
0
0
0
0
0
0
0
0
0
0
0
4.94628e-11
3.87247e-10
7.02184e-10
9.88439e-10
1.2394e-09
1.44667e-09
1.59401e-09
1.66082e-09
1.61978e-09
1.45325e-09
1.16028e-09
7.87608e-10
4.02415e-10
8.62965e-11
0
0
0
6.52218e-10
0
0
0
0
0
0
0
0
0
0
0
0
0
0
0
0
0
0
0
0
0
0
0
0
0
0
0
0
0
0
0
0
0
2.00747e-10
4.5879e-10
6.72332e-10
8.32792e-10
9.3126e-10
9.56035e-10
8.99016e-10
7.55923e-10
5.40615e-10
2.8058e-10
3.03819e-11
0
0
0
0
0
5.92717e-10
0
0
0
0
0
0
0
0
0
0
0
0
0
0
0
0
0
0
0
0
0
0
0
0
0
0
0
0
0
0
0
0
0
8.89168e-12
2.08728e-10
3.54509e-10
4.40094e-10
4.61818e-10
4.17707e-10
3.13549e-10
1.61632e-10
0
0
0
0
0
3.36749e-11
6.63957e-10
0
5.38098e-10
0
0
0
0
0
0
0
0
0
0
0
0
0
0
0
0
0
0
0
0
0
0
0
0
0
0
0
0
0
0
0
0
0
0
1.07729e-11
1.07138e-10
1.46904e-10
1.33551e-10
7.4132e-11
0
0
0
0
0
0
1.14146e-10
5.3152e-10
1.48171e-09
0
4.88171e-10
0
0
0
0
0
0
0
0
0
0
0
0
0
0
0
0
0
0
0
0
0
0
0
0
0
0
0
0
0
0
0
0
0
0
0
0
2.00334e-11
9.74831e-12
0
0
0
0
0
1.25011e-10
3.42286e-10
6.63568e-10
1.21019e-09
2.41471e-09
0
4.42812e-10
0
0
0
0
0
0
0
0
0
0
0
0
0
0
0
0
0
0
0
0
0
0
0
0
0
0
0
0
0
0
0
0
0
0
0
6.1418e-11
1.01044e-10
1.21361e-10
1.36513e-10
1.63889e-10
2.19236e-10
3.20602e-10
4.78558e-10
7.06377e-10
1.00204e-09
1.39254e-09
2.0356e-09
3.44395e-09
0
4.01988e-10
0
0
0
0
0
0
0
0
0
0
0
0
0
0
0
0
0
0
0
0
0
0
0
0
0
0
0
0
0
0
0
0
0
1.26122e-10
2.45966e-10
3.36401e-10
4.08175e-10
4.74648e-10
5.492e-10
6.46545e-10
7.78338e-10
9.56743e-10
1.18808e-09
1.48125e-09
1.83242e-09
2.27e-09
2.98428e-09
4.55748e-09
0
3.65804e-10
0
0
0
0
0
0
0
0
0
0
0
0
0
0
0
0
0
0
0
0
0
0
0
0
0
0
0
0
0
0
0
1.89369e-10
3.94688e-10
5.65573e-10
7.07093e-10
8.28942e-10
9.42621e-10
1.06075e-09
1.19471e-09
1.35606e-09
1.55302e-09
1.79359e-09
2.07972e-09
2.41889e-09
2.80696e-09
3.27429e-09
4.04041e-09
5.74847e-09
0
3.34544e-10
0
0
0
0
0
0
0
0
0
0
0
0
0
0
0
0
0
0
0
0
0
0
0
0
0
0
0
0
0
2.47844e-10
5.30624e-10
7.87234e-10
1.01181e-09
1.20613e-09
1.3775e-09
1.53664e-09
1.69475e-09
1.86298e-09
2.05042e-09
2.26567e-09
2.51434e-09
2.80212e-09
3.12833e-09
3.49731e-09
3.90733e-09
4.39089e-09
5.19396e-09
7.01397e-09
0
3.08747e-10
0
0
0
0
0
0
0
0
0
0
0
0
0
0
0
0
0
0
0
0
0
0
0
0
0
0
1.44495e-11
3.24805e-10
6.53669e-10
9.82095e-10
1.2926e-09
1.57454e-09
1.82496e-09
2.04806e-09
2.25264e-09
2.4497e-09
2.64969e-09
2.86214e-09
3.09409e-09
3.35183e-09
3.63895e-09
3.95965e-09
4.31332e-09
4.70041e-09
5.12072e-09
5.61024e-09
6.43903e-09
8.35373e-09
0
2.89389e-10
0
0
0
0
0
0
0
0
0
0
0
0
0
0
0
0
0
0
0
0
0
0
0
0
1.52219e-10
4.51774e-10
7.90462e-10
1.15501e-09
1.52952e-09
1.89643e-09
2.23956e-09
2.55103e-09
2.83054e-09
3.08426e-09
3.32187e-09
3.55422e-09
3.79084e-09
4.03973e-09
4.30635e-09
4.59532e-09
4.90896e-09
5.25032e-09
5.61931e-09
6.01628e-09
6.43836e-09
6.92631e-09
7.77269e-09
9.7695e-09
0
2.78117e-10
0
0
0
0
0
0
0
0
0
0
0
0
0
0
0
0
0
0
0
0
0
3.26183e-11
3.00113e-10
6.02467e-10
9.45248e-10
1.32599e-09
1.73485e-09
2.15802e-09
2.58176e-09
2.99042e-09
3.36852e-09
3.71088e-09
4.01978e-09
4.30305e-09
4.57104e-09
4.83422e-09
5.10112e-09
5.37846e-09
5.67048e-09
5.98071e-09
6.31078e-09
6.66302e-09
7.03773e-09
7.43641e-09
7.85502e-09
8.33605e-09
9.19434e-09
1.12644e-08
0
2.77668e-10
0
0
0
0
0
0
0
0
0
0
0
0
0
0
0
0
0
0
0
7.54099e-11
3.7575e-10
7.01103e-10
1.06125e-09
1.46145e-09
1.89965e-09
2.36683e-09
2.84929e-09
3.33291e-09
3.80654e-09
4.25784e-09
4.67127e-09
5.04407e-09
5.38081e-09
5.69094e-09
5.98533e-09
6.27409e-09
6.56482e-09
6.86314e-09
7.17242e-09
7.49548e-09
7.83371e-09
8.18921e-09
8.56249e-09
8.95593e-09
9.3674e-09
9.83836e-09
1.07051e-08
1.28427e-08
0
2.92616e-10
0
0
0
0
0
0
0
0
0
0
0
0
0
0
0
0
0
6.08543e-11
3.80824e-10
7.26227e-10
1.10165e-09
1.51601e-09
1.97592e-09
2.47986e-09
3.01783e-09
3.57397e-09
4.13077e-09
4.67407e-09
5.19556e-09
5.68823e-09
6.1357e-09
6.53723e-09
6.89941e-09
7.23303e-09
7.54951e-09
7.85873e-09
8.16757e-09
8.4807e-09
8.80078e-09
9.13019e-09
9.4703e-09
9.82331e-09
1.01902e-08
1.05734e-08
1.09735e-08
1.14335e-08
1.23068e-08
1.45089e-08
0
3.30678e-10
0
0
0
0
0
0
0
0
0
0
0
0
0
0
0
5.38486e-11
3.80256e-10
7.24906e-10
1.10025e-09
1.51651e-09
1.97499e-09
2.48427e-09
3.04848e-09
3.65912e-09
4.29804e-09
4.94266e-09
5.57187e-09
6.17176e-09
6.73674e-09
7.26744e-09
7.74693e-09
8.17504e-09
8.56012e-09
8.91409e-09
9.24882e-09
9.574e-09
9.89604e-09
1.0219e-08
1.0545e-08
1.08761e-08
1.12138e-08
1.15606e-08
1.19181e-08
1.22891e-08
1.26745e-08
1.31213e-08
1.40019e-08
1.62681e-08
0
4.05168e-10
0
0
0
0
0
0
0
0
0
0
0
0
0
6.80689e-11
4.11082e-10
7.60173e-10
1.12496e-09
1.51966e-09
1.95923e-09
2.45483e-09
3.00281e-09
3.61026e-09
4.2801e-09
4.99688e-09
5.73453e-09
6.46413e-09
7.16147e-09
7.81284e-09
8.41548e-09
8.97758e-09
9.48694e-09
9.93964e-09
1.03457e-08
1.07178e-08
1.10682e-08
1.14065e-08
1.17385e-08
1.20678e-08
1.23963e-08
1.2726e-08
1.30586e-08
1.33969e-08
1.37431e-08
1.41004e-08
1.44706e-08
1.49032e-08
1.57897e-08
1.81195e-08
0
5.39625e-10
0
0
0
0
0
0
0
0
0
0
0
1.18767e-10
4.67759e-10
8.31983e-10
1.20519e-09
1.59109e-09
2.00217e-09
2.45513e-09
2.96688e-09
3.54876e-09
4.19042e-09
4.89608e-09
5.66906e-09
6.48739e-09
7.31768e-09
8.12541e-09
8.88412e-09
9.58022e-09
1.02136e-08
1.07972e-08
1.13342e-08
1.18108e-08
1.22372e-08
1.26267e-08
1.29917e-08
1.33416e-08
1.36822e-08
1.40165e-08
1.43463e-08
1.46733e-08
1.49997e-08
1.53287e-08
1.56631e-08
1.60066e-08
1.63618e-08
1.6781e-08
1.76746e-08
2.00688e-08
0
7.76567e-10
0
0
0
0
0
0
0
0
0
2.65563e-10
5.90634e-10
9.43795e-10
1.3232e-09
1.71972e-09
2.12925e-09
2.55838e-09
3.02249e-09
3.54065e-09
4.1313e-09
4.80506e-09
5.54242e-09
6.34195e-09
7.21089e-09
8.12139e-09
9.03377e-09
9.90909e-09
1.07196e-08
1.14523e-08
1.21091e-08
1.27033e-08
1.32613e-08
1.37634e-08
1.4212e-08
1.46207e-08
1.50016e-08
1.5364e-08
1.57135e-08
1.60531e-08
1.63843e-08
1.67093e-08
1.70303e-08
1.73508e-08
1.76744e-08
1.80052e-08
1.83469e-08
1.87546e-08
1.96574e-08
2.21181e-08
0
1.19394e-09
2.14734e-11
0
0
0
0
0
9.12443e-11
4.88157e-10
8.27014e-10
1.15808e-09
1.51163e-09
1.89814e-09
2.3128e-09
2.74658e-09
3.19745e-09
3.67486e-09
4.19716e-09
4.78565e-09
5.45995e-09
6.22918e-09
7.06243e-09
7.94648e-09
8.89833e-09
9.88558e-09
1.08639e-08
1.17915e-08
1.26411e-08
1.34007e-08
1.4073e-08
1.46723e-08
1.52322e-08
1.57646e-08
1.62414e-08
1.66744e-08
1.70757e-08
1.74545e-08
1.78162e-08
1.81638e-08
1.8499e-08
1.8824e-08
1.91415e-08
1.94555e-08
1.97703e-08
2.00905e-08
2.04207e-08
2.08193e-08
2.17337e-08
2.42624e-08
0
1.93434e-09
5.69452e-10
0
0
0
2.59976e-12
6.59775e-10
1.13404e-09
1.50548e-09
1.84379e-09
2.19392e-09
2.57848e-09
3.00139e-09
3.45453e-09
3.92896e-09
4.42476e-09
4.95409e-09
5.53805e-09
6.2001e-09
6.96052e-09
7.82612e-09
8.75289e-09
9.70593e-09
1.07201e-08
1.17611e-08
1.27821e-08
1.37412e-08
1.46125e-08
1.53868e-08
1.60665e-08
1.66659e-08
1.72143e-08
1.77684e-08
1.82861e-08
1.87541e-08
1.91849e-08
1.95877e-08
1.99681e-08
2.03294e-08
2.06736e-08
2.10031e-08
2.13211e-08
2.16323e-08
2.19414e-08
2.2254e-08
2.25753e-08
2.29674e-08
2.38958e-08
2.64933e-08
0
3.24143e-09
1.45404e-09
0
0
5.83111e-10
1.37409e-09
1.94921e-09
2.35777e-09
2.69466e-09
3.02903e-09
3.39807e-09
3.81487e-09
4.27567e-09
4.76866e-09
5.28501e-09
5.82708e-09
6.40971e-09
7.05659e-09
7.79318e-09
8.63979e-09
9.59985e-09
1.06153e-08
1.16142e-08
1.26601e-08
1.37213e-08
1.47523e-08
1.57138e-08
1.65837e-08
1.73565e-08
1.80344e-08
1.86285e-08
1.91662e-08
1.97159e-08
2.02916e-08
2.08127e-08
2.12884e-08
2.17282e-08
2.21385e-08
2.2523e-08
2.28844e-08
2.32257e-08
2.35506e-08
2.38642e-08
2.41723e-08
2.44811e-08
2.47968e-08
2.5185e-08
2.61291e-08
2.87943e-08
0
5.45272e-09
2.70588e-09
1.15348e-09
1.45697e-09
2.2348e-09
2.95781e-09
3.44566e-09
3.78374e-09
4.0818e-09
4.40952e-09
4.79641e-09
5.24515e-09
5.7437e-09
6.27627e-09
6.83406e-09
7.42162e-09
8.05639e-09
8.76441e-09
9.57323e-09
1.05026e-08
1.15513e-08
1.26477e-08
1.36605e-08
1.4694e-08
1.57278e-08
1.67228e-08
1.76466e-08
1.84838e-08
1.92326e-08
1.98962e-08
2.04789e-08
2.10052e-08
2.15406e-08
2.21818e-08
2.27839e-08
2.33283e-08
2.38255e-08
2.42829e-08
2.47056e-08
2.50973e-08
2.54616e-08
2.5803e-08
2.61271e-08
2.64403e-08
2.67499e-08
2.70632e-08
2.74496e-08
2.84099e-08
3.11389e-08
1.22789e-09
8.59036e-09
4.17074e-09
2.94966e-09
3.29727e-09
3.98259e-09
4.69546e-09
5.13545e-09
5.42033e-09
5.68695e-09
6.01026e-09
6.41437e-09
6.89312e-09
7.42691e-09
7.99645e-09
8.59313e-09
9.22346e-09
9.90709e-09
1.06719e-08
1.15474e-08
1.25522e-08
1.36793e-08
1.48421e-08
1.58307e-08
1.67855e-08
1.77232e-08
1.86166e-08
1.94469e-08
2.02085e-08
2.09041e-08
2.15355e-08
2.20988e-08
2.26105e-08
2.31383e-08
2.384e-08
2.45692e-08
2.52197e-08
2.58062e-08
2.63382e-08
2.68227e-08
2.72647e-08
2.76689e-08
2.80403e-08
2.83854e-08
2.87116e-08
2.90271e-08
2.93409e-08
2.97268e-08
3.07021e-08
3.34874e-08
1.12473e-08
1.09749e-08
5.44124e-09
4.6358e-09
5.06698e-09
5.63952e-09
6.34871e-09
6.94116e-09
7.24759e-09
7.51185e-09
7.84451e-09
8.2708e-09
8.77877e-09
9.34408e-09
9.94563e-09
1.05758e-08
1.12432e-08
1.19692e-08
1.27832e-08
1.37161e-08
1.4785e-08
1.59751e-08
1.71807e-08
1.80989e-08
1.88802e-08
1.96249e-08
2.03249e-08
2.09835e-08
2.16102e-08
2.22123e-08
2.27875e-08
2.33204e-08
2.38117e-08
2.43353e-08
2.51038e-08
2.60219e-08
2.68367e-08
2.75619e-08
2.82108e-08
2.87931e-08
2.93155e-08
2.9784e-08
3.02048e-08
3.05853e-08
3.09343e-08
3.12618e-08
3.15791e-08
3.19649e-08
3.29518e-08
3.5781e-08
2.35671e-08
1.05612e-08
6.72609e-09
6.22699e-09
6.77399e-09
7.29706e-09
7.72593e-09
8.61686e-09
9.17477e-09
9.52445e-09
9.90016e-09
1.03622e-08
1.09032e-08
1.14981e-08
1.21268e-08
1.27839e-08
1.34802e-08
1.42387e-08
1.50898e-08
1.60656e-08
1.71815e-08
1.84118e-08
1.96237e-08
2.04037e-08
2.08881e-08
2.13117e-08
2.16974e-08
2.20814e-08
2.24947e-08
2.29504e-08
2.34376e-08
2.3924e-08
2.43869e-08
2.49044e-08
2.57434e-08
2.69331e-08
2.7996e-08
2.89326e-08
2.97604e-08
3.04929e-08
3.11395e-08
3.17077e-08
3.22052e-08
3.26409e-08
3.30258e-08
3.33728e-08
3.36965e-08
3.40816e-08
3.5074e-08
3.79277e-08
1.3956e-08
8.97046e-09
8.15122e-09
8.09947e-09
8.49152e-09
9.0949e-09
9.29661e-09
9.81258e-09
1.08995e-08
1.15297e-08
1.20391e-08
1.25729e-08
1.31593e-08
1.37864e-08
1.44404e-08
1.51196e-08
1.5837e-08
1.66164e-08
1.74885e-08
1.84872e-08
1.96252e-08
2.08607e-08
2.20161e-08
2.25382e-08
2.25964e-08
2.25711e-08
2.25236e-08
2.25303e-08
2.26495e-08
2.29014e-08
2.32645e-08
2.36855e-08
2.41093e-08
2.46045e-08
2.54602e-08
2.69827e-08
2.83984e-08
2.96399e-08
3.07291e-08
3.16834e-08
3.25144e-08
3.32312e-08
3.38428e-08
3.43607e-08
3.47991e-08
3.51754e-08
3.55096e-08
3.58937e-08
3.68829e-08
3.97344e-08
3.84733e-09
7.1772e-09
8.55159e-09
9.36173e-09
9.85741e-09
1.04101e-08
1.07336e-08
1.076e-08
1.17738e-08
1.29333e-08
1.37063e-08
1.43812e-08
1.50462e-08
1.57203e-08
1.64057e-08
1.71072e-08
1.78392e-08
1.86254e-08
1.94969e-08
2.049e-08
2.1612e-08
2.2793e-08
2.37672e-08
2.38256e-08
2.34261e-08
2.29453e-08
2.24707e-08
2.21061e-08
2.19285e-08
2.19639e-08
2.21851e-08
2.25256e-08
2.29024e-08
2.33373e-08
2.40637e-08
2.56597e-08
2.7509e-08
2.9125e-08
3.05462e-08
3.17906e-08
3.28681e-08
3.37858e-08
3.45529e-08
3.51829e-08
3.56947e-08
3.61116e-08
3.64611e-08
3.68441e-08
3.78218e-08
4.06373e-08
0
0
0
0
2.95988e-10
1.93565e-10
8.27423e-11
6.30214e-11
6.46184e-11
6.72831e-11
7.25072e-11
7.0255e-11
4.45033e-11
2.1511e-12
0
0
0
0
0
0
0
0
0
0
0
0
0
0
2.23768e-09
2.34199e-09
0
5.34616e-09
1.35117e-08
1.78284e-08
1.01712e-07
1.14397e-07
1.03639e-07
7.83941e-08
3.97275e-08
1.01077e-08
0
0
0
0
0
0
0
0
0
1.55335e-10
1.5096e-09
1.30294e-09
1.06123e-09
9.03132e-10
0
0
0
0
0
0
1.26857e-09
4.906e-09
6.77153e-09
5.77003e-09
3.35067e-09
1.70723e-09
1.32513e-09
2.0991e-09
4.16844e-09
6.50498e-09
6.365e-09
0
0
0
0
0
0
0
0
0
0
0
0
0
0
0
0
0
0
0
0
0
0
0
0
5.39063e-08
5.97281e-08
3.47708e-08
2.56166e-08
0
0
0
0
0
9.8838e-11
1.01959e-10
7.122e-11
5.91602e-11
5.76545e-11
6.05619e-11
6.71793e-11
6.87166e-11
5.01475e-11
1.43627e-11
0
0
0
1.11056e-11
1.15313e-11
0
0
0
0
0
0
0
0
0
1.22784e-09
1.24722e-09
0
4.06872e-09
1.39708e-08
3.42629e-08
1.02731e-07
1.23911e-07
1.11335e-07
8.4254e-08
4.1845e-08
1.08253e-08
0
0
0
0
0
0
0
0
0
0
1.22323e-09
1.27975e-09
1.14213e-09
1.34494e-09
0
0
0
0
0
0
0
3.92478e-09
6.27778e-09
5.45755e-09
2.79629e-09
7.43594e-10
4.41483e-12
4.2041e-10
1.91517e-09
3.99895e-09
4.45069e-09
0
0
0
0
0
0
0
0
0
0
0
0
0
0
0
0
0
0
0
0
0
0
0
0
3.82029e-08
4.54356e-08
1.88962e-08
3.54899e-08
1.55482e-08
0
2.19658e-11
0
0
2.03138e-11
4.17461e-11
4.37694e-11
4.33635e-11
4.4852e-11
4.88685e-11
5.55752e-11
5.85884e-11
4.54644e-11
1.63495e-11
0
0
9.26518e-12
2.78924e-11
4.2094e-11
2.60385e-11
0
0
0
0
0
0
0
0
0
2.64464e-10
0
3.18694e-09
1.59565e-08
4.79504e-08
1.05352e-07
1.32364e-07
1.19211e-07
9.05387e-08
4.40398e-08
1.14656e-08
0
0
0
0
0
0
0
0
0
0
7.98002e-10
1.23376e-09
1.24325e-09
1.64223e-09
5.69097e-10
0
0
0
0
0
0
2.78239e-09
5.7469e-09
5.19204e-09
2.28543e-09
0
0
0
0
1.43417e-09
2.49605e-09
0
0
0
0
0
0
0
0
0
0
0
0
0
0
0
0
0
0
0
0
0
0
0
0
9.68984e-09
2.94129e-08
5.85277e-09
3.54131e-08
1.48809e-07
0
4.20042e-11
0
0
0
1.07755e-11
2.11786e-11
2.72341e-11
3.1778e-11
3.6775e-11
4.2923e-11
4.58787e-11
3.6116e-11
1.28557e-11
0
0
2.3152e-11
4.71039e-11
6.89147e-11
7.5639e-11
4.5237e-11
0
0
0
0
0
0
0
0
0
0
3.1343e-09
1.97783e-08
5.1136e-08
1.08878e-07
1.39027e-07
1.26838e-07
9.67047e-08
4.6203e-08
1.2008e-08
0
0
0
0
0
0
0
0
0
0
0
1.15178e-09
1.35549e-09
1.86569e-09
1.9447e-09
0
0
0
0
0
0
1.41256e-09
5.09826e-09
4.92573e-09
1.80626e-09
0
0
0
0
0
4.10018e-10
0
0
0
0
0
0
0
0
0
0
0
4.04521e-11
0
0
0
0
0
0
0
0
0
0
0
0
0
1.48462e-08
0
2.29678e-08
2.17968e-07
0
5.46887e-11
0
0
0
0
8.37794e-12
1.58652e-11
2.17027e-11
2.70465e-11
3.22382e-11
3.41394e-11
2.56759e-11
6.71378e-12
0
2.77572e-12
3.6062e-11
6.93474e-11
9.82826e-11
1.20932e-10
1.13171e-10
8.42723e-11
0
0
0
0
0
0
0
0
0
4.28029e-09
2.36218e-08
4.95762e-08
1.12174e-07
1.44041e-07
1.33833e-07
1.02393e-07
4.81045e-08
1.23179e-08
0
0
0
0
0
0
0
6.72194e-11
0
0
0
1.00528e-09
1.45273e-09
2.05544e-09
2.61276e-09
0
0
0
0
0
0
0
4.27208e-09
4.62616e-09
1.36217e-09
0
0
0
0
0
0
0
0
0
0
0
0
0
0
0
0
0
2.12556e-09
0
0
0
0
0
0
0
0
0
0
0
0
0
3.99592e-09
0
7.52612e-09
1.76598e-07
0
6.44152e-11
0
0
0
0
2.96483e-12
9.99548e-12
1.59284e-11
2.10729e-11
2.49647e-11
2.50631e-11
1.6191e-11
0
0
5.94644e-12
4.81609e-11
9.39769e-11
1.32918e-10
1.63364e-10
1.83753e-10
1.73143e-10
1.46957e-10
0
0
0
0
0
0
0
0
6.49717e-09
2.39986e-08
4.74702e-08
1.14712e-07
1.47563e-07
1.40154e-07
1.07189e-07
4.9485e-08
1.23248e-08
0
0
0
2.81631e-11
0
0
0
6.1725e-10
0
0
0
6.63958e-10
1.52408e-09
2.23111e-09
2.93843e-09
1.74152e-09
0
0
0
0
0
0
3.21281e-09
4.26459e-09
9.51748e-10
0
0
0
0
0
0
0
0
0
0
0
0
0
0
0
0
0
4.13556e-09
2.52454e-09
0
0
0
0
0
0
0
0
0
0
0
0
0
0
0
1.29905e-07
0
6.82183e-11
0
0
0
0
1.41313e-12
7.69826e-12
1.33676e-11
1.80125e-11
2.05162e-11
1.84095e-11
8.02044e-12
0
0
1.09208e-11
6.16779e-11
1.20498e-10
1.72639e-10
2.1318e-10
2.47549e-10
2.68129e-10
2.88484e-10
1.46189e-10
0
0
0
0
0
0
1.0903e-09
8.72659e-09
2.06404e-08
4.59404e-08
1.16329e-07
1.49731e-07
1.45856e-07
1.11e-07
5.00826e-08
1.19608e-08
0
0
9.91891e-11
8.61578e-10
6.49764e-10
0
0
9.23163e-10
0
0
0
0
1.56079e-09
2.3999e-09
3.10866e-09
2.97618e-09
0
0
0
0
0
0
1.86832e-09
3.80693e-09
5.73189e-10
0
0
0
0
0
0
0
5.50412e-09
0
0
0
0
0
0
0
0
0
6.08455e-09
5.3969e-09
1.50831e-09
0
0
0
0
0
0
0
0
0
0
0
0
0
0
9.81383e-08
0
6.69643e-11
6.5836e-12
0
0
0
1.26342e-12
7.00411e-12
1.24185e-11
1.64935e-11
1.75135e-11
1.28481e-11
4.02041e-13
0
0
1.90518e-11
7.9677e-11
1.49999e-10
2.16636e-10
2.70561e-10
3.09461e-10
3.63092e-10
4.14883e-10
4.69695e-10
0
0
0
0
0
3.48788e-10
2.37322e-09
9.28113e-09
1.61269e-08
4.50652e-08
1.16894e-07
1.50691e-07
1.5092e-07
1.13648e-07
4.96843e-08
1.11744e-08
5.21587e-10
5.07324e-10
1.19306e-09
1.6985e-09
1.52837e-09
9.09009e-11
0
9.40213e-10
7.18737e-11
0
0
0
1.54433e-09
2.53623e-09
3.21428e-09
3.3665e-09
0
0
0
0
0
0
1.97528e-10
3.20633e-09
2.19854e-10
0
0
0
0
0
0
0
1.15505e-08
1.33206e-08
0
0
0
0
0
0
0
0
8.0092e-09
8.3469e-09
4.06192e-09
4.8171e-10
0
0
0
0
0
0
0
0
0
0
0
0
0
7.56786e-08
0
6.3017e-11
1.44096e-11
0
0
0
9.12263e-13
6.39526e-12
1.16783e-11
1.51971e-11
1.45926e-11
7.0775e-12
0
0
0
3.12486e-11
1.04673e-10
1.85251e-10
2.65186e-10
3.32707e-10
3.83518e-10
4.39881e-10
5.43003e-10
6.64837e-10
5.73235e-10
0
0
0
0
8.5438e-10
3.15526e-09
7.45091e-09
1.21873e-08
4.47862e-08
1.16242e-07
1.50655e-07
1.55076e-07
1.15023e-07
4.80517e-08
9.96185e-09
1.51333e-09
1.93793e-09
2.35442e-09
2.53516e-09
2.37935e-09
8.65586e-10
0
6.99887e-10
1.07732e-09
0
0
0
1.33586e-09
2.62663e-09
3.2897e-09
3.39744e-09
1.85927e-09
0
0
0
0
0
0
2.40108e-09
0
0
0
0
0
0
0
0
1.68776e-08
2.8569e-08
7.96481e-09
0
0
0
0
0
0
0
9.94245e-09