/*--------------------------------*- C++ -*----------------------------------*\
  =========                 |
  \\      /  F ield         | OpenFOAM: The Open Source CFD Toolbox
   \\    /   O peration     | Website:  https://openfoam.org
    \\  /    A nd           | Version:  7
     \\/     M anipulation  |
\*---------------------------------------------------------------------------*/
FoamFile
{
    version     2.0;
    format      ascii;
    class       volScalarField;
    location    "0.44";
    object      p;
}
// * * * * * * * * * * * * * * * * * * * * * * * * * * * * * * * * * * * * * //

dimensions      [0 2 -2 0 0 0 0];

internalField   nonuniform List<scalar> 
70000
(
0.104437
0.0275486
0.0144042
0.0168579
0.0171201
0.0160737
0.0151135
0.014381
0.0137674
0.0132229
0.0127337
0.0122919
0.01189
0.0115215
0.0111808
0.0108634
0.0105656
0.0102842
0.0100166
0.00976056
0.00951397
0.00927505
0.00904218
0.00881382
0.00858852
0.00836483
0.00814133
0.00791655
0.00768895
0.00745688
0.00721858
0.00697207
0.0067152
0.00644547
0.00616011
0.00585594
0.00552906
0.00517564
0.00478958
0.00436715
0.0038975
0.00337968
0.00279226
0.00214406
0.00139101
0.000566732
-0.000418222
-0.00147634
-0.00277248
-0.00425635
0.100137
0.0279106
0.0146068
0.0169526
0.0171745
0.0161094
0.0151414
0.0144041
0.0137868
0.0132395
0.0127481
0.0123047
0.0119014
0.0115318
0.0111901
0.010872
0.0105735
0.0102915
0.0100234
0.00976693
0.00951993
0.00928067
0.00904748
0.00881885
0.00859329
0.00836937
0.00814566
0.00792068
0.0076929
0.00746067
0.00722221
0.00697556
0.00671855
0.0064487
0.00616322
0.00585893
0.00553192
0.00517838
0.0047922
0.00436963
0.00389982
0.00338182
0.0027942
0.00214574
0.00139244
0.000567612
-0.000417392
-0.00147838
-0.00276993
-0.00420202
0.0965318
0.028833
0.0149513
0.0170812
0.0172491
0.0161544
0.0151738
0.0144303
0.0138087
0.013258
0.0127641
0.0123187
0.0119139
0.011543
0.0112003
0.0108813
0.010582
0.0102995
0.0100308
0.00977382
0.0095264
0.00928676
0.00905323
0.00882429
0.00859846
0.0083743
0.00815037
0.0079252
0.00769724
0.00746484
0.00722624
0.00697945
0.00672233
0.00645238
0.0061668
0.00586243
0.00553535
0.00518175
0.00479552
0.00437292
0.00390307
0.00338507
0.00279739
0.00214893
0.00139551
0.000570511
-0.000414191
-0.00147788
-0.00274755
-0.00413627
0.0934271
0.0299322
0.0154278
0.0172538
0.0173503
0.0162124
0.015212
0.0144603
0.0138333
0.0132786
0.0127816
0.0123339
0.0119274
0.011555
0.0112112
0.0108911
0.0105911
0.0103078
0.0100386
0.00978103
0.00953316
0.00929312
0.00905924
0.00882999
0.00860388
0.00837947
0.00815532
0.00792995
0.00770182
0.00746927
0.00723054
0.00698364
0.00672643
0.00645641
0.00617079
0.0058664
0.00553933
0.00518578
0.00479961
0.00437714
0.00390744
0.00338965
0.00280223
0.00215409
0.00140118
0.000576304
-0.000406437
-0.00147315
-0.00270918
-0.00405799
0.0904708
0.031026
0.0160013
0.017472
0.0174849
0.0162908
0.0152611
0.0144973
0.0138633
0.0133032
0.0128023
0.0123516
0.0119428
0.0115687
0.0112234
0.0109022
0.0106012
0.010317
0.0100471
0.00978897
0.00954057
0.00930007
0.0090658
0.0088362
0.00860978
0.0083851
0.00816072
0.00793514
0.00770684
0.00747415
0.0072353
0.00698832
0.00673105
0.00646101
0.0061754
0.00587107
0.0055441
0.0051907
0.00480476
0.00438259
0.0039133
0.00339601
0.00280931
0.00216188
0.00141035
0.000585969
-0.000392419
-0.00146178
-0.0026563
-0.0039625
0.0875637
0.0320581
0.0166252
0.0177164
0.017647
0.0163913
0.0153236
0.0145436
0.0139007
0.0133337
0.0128276
0.012373
0.0119613
0.0115849
0.0112378
0.0109151
0.0106129
0.0103278
0.010057
0.00979809
0.00954906
0.00930801
0.00907326
0.00884324
0.00861647
0.00839148
0.00816683
0.00794103
0.00771254
0.0074797
0.00724075
0.0069937
0.0067364
0.00646638
0.00618084
0.00587665
0.0055499
0.00519681
0.00481128
0.00438965
0.00392109
0.00340466
0.00281926
0.00217304
0.00142405
0.000600728
-0.000370459
-0.00144055
-0.00259041
-0.00385017
0.0846983
0.0330114
0.0172661
0.0179659
0.0178233
0.0165091
0.0153985
0.0145991
0.0139457
0.0133707
0.0128582
0.012399
0.0119837
0.0116045
0.0112551
0.0109306
0.0106269
0.0103405
0.0100686
0.0098088
0.00955899
0.00931728
0.00908195
0.00885144
0.00862423
0.00839888
0.00817392
0.00794786
0.00771916
0.00748616
0.00724709
0.00699999
0.00674269
0.00647275
0.00618736
0.0058834
0.005557
0.00520438
0.0048195
0.00439868
0.00393125
0.00341612
0.00283273
0.00218839
0.00144334
0.000621993
-0.000338898
-0.00140635
-0.0025115
-0.00372328
0.081884
0.0338793
0.0179079
0.0182087
0.018003
0.0166377
0.0154824
0.0146618
0.0139972
0.0134136
0.0128941
0.0124295
0.01201
0.0116276
0.0112756
0.0109489
0.0106434
0.0103555
0.0100823
0.00982144
0.0095707
0.00932818
0.00909216
0.00886105
0.00863334
0.00840754
0.00818221
0.00795585
0.00772691
0.00749373
0.00725456
0.00700741
0.00675016
0.00648033
0.00619517
0.00589157
0.00556565
0.00521371
0.00482973
0.00441006
0.00394423
0.00343093
0.00285039
0.00220874
0.00146925
0.000651235
-0.000296191
-0.0013562
-0.00241985
-0.00358376
0.0791271
0.0346594
0.018545
0.0184409
0.0181798
0.0167722
0.0155721
0.0147291
0.0140533
0.0134609
0.0129342
0.0124638
0.01204
0.011654
0.0112992
0.0109701
0.0106625
0.0103729
0.0100983
0.00983615
0.00958434
0.00934089
0.00910408
0.00887228
0.00864397
0.00841767
0.00819192
0.00796521
0.007736
0.00750263
0.00726334
0.00701617
0.00675899
0.00648935
0.0062045
0.00590137
0.00557612
0.00522507
0.0048423
0.00442415
0.00396044
0.00344958
0.00287284
0.00223485
0.00150267
0.00068985
-0.000241115
-0.00128813
-0.00231463
-0.00343282
0.0764311
0.0353509
0.0191762
0.0186625
0.018351
0.0169097
0.0156653
0.0147991
0.014112
0.0135112
0.0129771
0.0125011
0.0120727
0.0116831
0.0113253
0.0109937
0.0106839
0.0103925
0.0101163
0.00985286
0.00959988
0.00935542
0.00911773
0.00888517
0.0086562
0.00842935
0.00820312
0.00797603
0.00774653
0.00751296
0.00727356
0.00702639
0.00676932
0.00649994
0.00621551
0.005913
0.00558859
0.00523868
0.00485745
0.00444123
0.00398022
0.00347247
0.00290055
0.00226736
0.00154428
0.000738973
-0.00017285
-0.00120095
-0.00219482
-0.0032709
0.0737993
0.035954
0.0198003
0.0188744
0.0185149
0.0170489
0.0157612
0.0148706
0.0141723
0.0135632
0.013022
0.0125402
0.0121074
0.0117142
0.0113533
0.0110191
0.0107072
0.0104139
0.0101362
0.0098713
0.0096171
0.00937159
0.00913297
0.00889961
0.00866996
0.00844251
0.0082158
0.00798831
0.00775851
0.00752474
0.00728526
0.00703813
0.00678123
0.00651219
0.00622828
0.00592653
0.00560317
0.00525467
0.00487532
0.00446148
0.00400376
0.00349985
0.00293381
0.00230668
0.00159448
0.000799324
-9.10173e-05
-0.00109454
-0.00205959
-0.00309769
0.0712346
0.0364692
0.0204158
0.0190779
0.0186709
0.0171888
0.0158594
0.0149433
0.0142336
0.0136164
0.0130682
0.0125807
0.0121434
0.0117465
0.0113827
0.011046
0.0107319
0.0104368
0.0101574
0.00989111
0.0096357
0.00938912
0.00914957
0.0089154
0.00868504
0.00845701
0.0082298
0.00800193
0.00777184
0.0075379
0.00729836
0.00705131
0.00679466
0.00652605
0.00624279
0.00594196
0.00561988
0.00527304
0.00489594
0.00448492
0.00403113
0.00353181
0.00297269
0.00235295
0.00165331
0.000871109
4.22653e-06
-0.00096982
-0.00190851
-0.00291224
0.0687399
0.0368972
0.0210205
0.0192742
0.0188181
0.0173286
0.0159596
0.0150169
0.0142954
0.0136703
0.0131152
0.012622
0.0121802
0.0117798
0.011413
0.0110738
0.0107576
0.0104606
0.0101796
0.00991197
0.00965534
0.0094077
0.00916723
0.00893227
0.00870123
0.00847261
0.00824494
0.0080167
0.00778635
0.00755228
0.00731273
0.00706583
0.0068095
0.00654142
0.00625894
0.00595922
0.00563861
0.00529373
0.00491924
0.00451149
0.00406222
0.00356825
0.00301703
0.00240607
0.00172047
0.000954003
0.00011221
-0.000828518
-0.00174176
-0.00271344
0.0663177
0.0372389
0.0216116
0.0194649
0.0189562
0.0174674
0.0160618
0.0150915
0.0143578
0.013725
0.013163
0.0126641
0.0122178
0.0118138
0.011444
0.0111023
0.010784
0.0104852
0.0102026
0.0099336
0.00967578
0.00942711
0.00918574
0.00894999
0.00871829
0.00848912
0.008261
0.00803243
0.00780187
0.0075677
0.00732821
0.00708153
0.0068256
0.00655817
0.00627661
0.00597815
0.00565924
0.00531658
0.00494505
0.00454101
0.00409683
0.00360895
0.00306652
0.00246568
0.00179544
0.00104725
0.000231873
-0.000672811
-0.0015601
-0.00250053
0.0639704
0.0374957
0.0221861
0.0196514
0.0190849
0.0176043
0.0161659
0.015167
0.0144205
0.0137802
0.0132114
0.0127068
0.012256
0.0118484
0.0114757
0.0111315
0.010811
0.0105104
0.0102262
0.00995586
0.00969686
0.00944716
0.0092049
0.00896839
0.00873605
0.00850636
0.00827783
0.00804895
0.00781822
0.00758401
0.00734463
0.00709824
0.00684281
0.00657613
0.00629563
0.0059986
0.00568161
0.00534142
0.00497319
0.00457328
0.00413471
0.00365361
0.00312077
0.00253131
0.00187753
0.00114983
0.000361948
-0.000504977
-0.0013647
-0.00227309
0.0616998
0.0376693
0.0227406
0.0198354
0.0192038
0.0177383
0.0162715
0.0152435
0.0144836
0.0138359
0.0132605
0.0127501
0.0122948
0.0118836
0.0115079
0.0111612
0.0108386
0.0105361
0.0102504
0.00997866
0.00971848
0.00946776
0.00922463
0.00898738
0.00875442
0.00852422
0.0082953
0.00806616
0.00783529
0.0076011
0.00736189
0.00711586
0.00686102
0.00659519
0.00631588
0.00602045
0.00570557
0.00536812
0.00500349
0.00460809
0.00417562
0.00370195
0.0031794
0.00260244
0.00196608
0.00126067
0.000501167
-0.000327077
-0.00115693
-0.00203116
0.0595077
0.0377619
0.0232722
0.0200182
0.0193132
0.0178684
0.0163785
0.0153211
0.014547
0.013892
0.0133102
0.0127941
0.0123342
0.0119194
0.0115406
0.0111914
0.0108667
0.0105624
0.0102751
0.010002
0.00974061
0.00948888
0.00924488
0.0090069
0.00877333
0.00854264
0.00831336
0.00808399
0.00785303
0.00761889
0.00737991
0.00713432
0.00688015
0.00661528
0.00633729
0.0060436
0.00573104
0.00539654
0.00503583
0.00464531
0.00421936
0.00375373
0.00324208
0.00267863
0.00206048
0.00137878
0.000648424
-0.000140748
-0.000938066
-0.00177513
0.0573953
0.0377763
0.0237777
0.0202007
0.0194131
0.0179935
0.0164863
0.0153996
0.0146107
0.0139484
0.0133604
0.0128387
0.0123741
0.0119557
0.0115739
0.0112222
0.0108953
0.0105891
0.0103002
0.0100258
0.00976323
0.00951049
0.00926563
0.00902692
0.00879276
0.00856161
0.00833199
0.00810242
0.00787139
0.00763736
0.00739867
0.00715358
0.00690016
0.00663636
0.00635981
0.00606803
0.00575796
0.00542666
0.00507012
0.00468485
0.00426582
0.00380879
0.00330858
0.00275955
0.00216029
0.00150339
0.000802863
5.28676e-05
-0.000709172
-0.00150553
0.0553633
0.0377156
0.024254
0.0203837
0.0195039
0.0181128
0.0165946
0.0154792
0.0146745
0.0140051
0.0134112
0.0128838
0.0124146
0.0119925
0.0116077
0.0112534
0.0109244
0.0106164
0.0103259
0.0100501
0.00978635
0.0095326
0.00928688
0.00904745
0.00881271
0.00858111
0.00835118
0.00812143
0.00789039
0.0076565
0.00741815
0.00717363
0.00692106
0.00665843
0.00638344
0.00609371
0.00578634
0.00545845
0.00510636
0.00472667
0.00431494
0.00386704
0.00337879
0.00284495
0.00226523
0.00163395
0.000963894
0.000253086
-0.000471034
-0.0012229
0.053412
0.0375834
0.0246982
0.0205678
0.0195863
0.0182253
0.0167028
0.0155598
0.0147385
0.0140619
0.0134623
0.0129294
0.0124556
0.0120298
0.0116421
0.0112852
0.010954
0.0106441
0.0103521
0.0100749
0.00980997
0.00955521
0.00930864
0.00906851
0.00883319
0.00860117
0.00837094
0.00814105
0.00791002
0.00767633
0.00743839
0.00719451
0.00694286
0.0066815
0.00640822
0.00612069
0.00581618
0.00549194
0.00514457
0.00477079
0.00436674
0.00392848
0.00345267
0.00293473
0.00237515
0.00177012
0.00113115
0.000459574
-0.000224168
-0.000927819
0.0515415
0.0373841
0.0251076
0.0207528
0.0196609
0.0183302
0.0168102
0.0156414
0.0148027
0.0141187
0.0135138
0.0129756
0.0124972
0.0120676
0.0116769
0.0113175
0.0109842
0.0106724
0.0103788
0.0101002
0.00983409
0.00957833
0.00933092
0.00909009
0.00885422
0.00862179
0.00839129
0.0081613
0.00793032
0.00769688
0.0074594
0.00721623
0.0069656
0.00670562
0.00643416
0.006149
0.00584755
0.00552718
0.00518479
0.00481727
0.00442125
0.00399311
0.00353024
0.00302882
0.00248997
0.0019117
0.00130444
0.000672222
3.10765e-05
-0.000620946
0.0497511
0.037122
0.0254794
0.0209387
0.0197286
0.0184268
0.0169161
0.0157237
0.014867
0.0141755
0.0135656
0.0130222
0.0125392
0.0121059
0.0117122
0.0113503
0.0110148
0.0107012
0.0104059
0.010126
0.00985873
0.00960197
0.00935372
0.00911222
0.00887581
0.00864299
0.00841226
0.00818218
0.00795131
0.00771816
0.0074812
0.00723883
0.00698931
0.00673082
0.00646132
0.00617869
0.00588049
0.00556423
0.00522708
0.00486616
0.00447854
0.004061
0.00361155
0.00312723
0.00260966
0.0020586
0.00148364
0.000891025
0.000294413
-0.000303007
0.04804
0.0368022
0.0258114
0.0211246
0.0197903
0.0185148
0.0170197
0.0158068
0.0149315
0.0142321
0.0136175
0.0130692
0.0125816
0.0121447
0.011748
0.0113836
0.0110459
0.0107305
0.0104336
0.0101523
0.0098839
0.00962615
0.00937708
0.0091349
0.00889798
0.00866479
0.00843385
0.00820373
0.007973
0.00774021
0.00750384
0.00726234
0.00701403
0.00675715
0.00648975
0.00620981
0.00591506
0.00560314
0.00527152
0.00491754
0.00453869
0.0041322
0.00369664
0.00322997
0.00273424
0.00221077
0.00166868
0.001116
0.000565553
2.51526e-05
0.0464069
0.0364298
0.0261015
0.0213094
0.019847
0.0185937
0.0171201
0.0158902
0.0149961
0.0142885
0.0136695
0.0131166
0.0126245
0.0121839
0.0117842
0.0114174
0.0110776
0.0107603
0.0104618
0.0101792
0.00990959
0.00965086
0.00940098
0.00915815
0.00892074
0.00868721
0.00845609
0.00822598
0.00799544
0.00776305
0.00752735
0.00728681
0.0070398
0.00678465
0.0065195
0.00624242
0.00595132
0.005644
0.00531818
0.00497147
0.00460177
0.00420678
0.00378559
0.00333707
0.00286369
0.00236819
0.00185948
0.00134711
0.00084416
0.000362587
0.0448503
0.0360104
0.0263482
0.0214917
0.0198998
0.0186635
0.0172165
0.0159737
0.0150608
0.0143446
0.0137214
0.0131642
0.0126678
0.0122235
0.0118209
0.0114516
0.0111097
0.0107906
0.0104906
0.0102065
0.00993582
0.00967613
0.00942545
0.00918199
0.0089441
0.00871026
0.00847901
0.00824893
0.00801864
0.00778673
0.00755176
0.00731226
0.00706667
0.00681337
0.00655061
0.00627658
0.00598933
0.00568686
0.00536712
0.00502803
0.00466784
0.00428478
0.00387844
0.00344852
0.002998
0.00253079
0.00205595
0.00158427
0.0011298
0.000708279
0.0433681
0.0355495
0.02655
0.0216695
0.0199496
0.0187243
0.0173079
0.0160568
0.0151257
0.0144003
0.0137732
0.013212
0.0127114
0.0122636
0.011858
0.0114863
0.0111423
0.0108213
0.0105198
0.0102344
0.00996259
0.00970195
0.0094505
0.00920643
0.00896809
0.00873397
0.00850261
0.00827262
0.00804263
0.00781125
0.0075771
0.00733874
0.00709468
0.00684336
0.00658315
0.00631235
0.00602917
0.00573178
0.00541842
0.00508727
0.00473698
0.00436627
0.00397521
0.00356435
0.00313713
0.00269853
0.00225794
0.00182727
0.00142195
0.00106109
0.0419581
0.0350529
0.0267063
0.0218409
0.0199973
0.0187762
0.0173936
0.0161391
0.0151906
0.0144556
0.0138246
0.0132599
0.0127554
0.0123039
0.0118955
0.0115214
0.0111753
0.0108526
0.0105495
0.0102629
0.0099899
0.00972833
0.00947613
0.00923147
0.00899272
0.00875835
0.00852693
0.00829708
0.00806744
0.00783667
0.00760342
0.00736629
0.00712386
0.00687467
0.00661716
0.00634977
0.00607087
0.00577884
0.00547213
0.00514926
0.00480923
0.00445128
0.00407594
0.00368453
0.00328102
0.00287131
0.00246527
0.00207585
0.00172002
0.00141978
0.0406179
0.0345263
0.0268167
0.0220032
0.0200438
0.0188199
0.0174728
0.0162201
0.0152556
0.0145105
0.0138756
0.0133078
0.0127995
0.0123446
0.0119334
0.0115569
0.0112088
0.0108844
0.0105798
0.0102918
0.0100178
0.00975529
0.00950235
0.00925714
0.009018
0.00878343
0.00855199
0.00832232
0.0080931
0.00786301
0.00763073
0.00739494
0.00715427
0.00690733
0.0066527
0.00638891
0.00611451
0.00582808
0.00552832
0.00521405
0.00488465
0.00453983
0.00418062
0.00380902
0.00342958
0.00304898
0.0026777
0.00232962
0.00202328
0.00178311
0.0393447
0.0339751
0.0268816
0.0221539
0.0200895
0.0188559
0.0175449
0.0162989
0.0153204
0.0145649
0.0139261
0.0133556
0.0128439
0.0123856
0.0119715
0.0115928
0.0112427
0.0109166
0.0106105
0.0103213
0.0100462
0.00978282
0.00952918
0.00928344
0.00904395
0.00880921
0.0085778
0.00834838
0.00811964
0.0078903
0.00765909
0.00742474
0.00718594
0.00694141
0.0066898
0.00642981
0.00616014
0.00587956
0.00558703
0.00528169
0.00496326
0.00463194
0.00428922
0.00393777
0.00358269
0.00323137
0.00289495
0.00258815
0.00233097
0.00214981
0.0381358
0.0334048
0.0269017
0.0222905
0.0201346
0.018885
0.0176094
0.016375
0.0153848
0.0146187
0.013976
0.0134031
0.0128883
0.0124268
0.01201
0.011629
0.0112771
0.0109492
0.0106417
0.0103513
0.0100751
0.00981093
0.00955662
0.00931039
0.00907059
0.00883572
0.00860439
0.00837527
0.00814707
0.00791857
0.00768852
0.00745571
0.00721892
0.00697693
0.00672853
0.00647253
0.0062078
0.00593332
0.00564831
0.00535221
0.00504508
0.0047276
0.00440172
0.0040707
0.0037402
0.00341825
0.00311665
0.00285089
0.00264223
0.00251854
0.0369881
0.0328204
0.0268784
0.0224105
0.0201791
0.018908
0.017666
0.0164477
0.0154487
0.0146721
0.0140251
0.0134502
0.0129327
0.0124681
0.0120487
0.0116656
0.0113118
0.0109823
0.0106734
0.0103818
0.0101046
0.00983962
0.00958468
0.00933799
0.00909792
0.00886298
0.00863177
0.00840301
0.00817544
0.00794785
0.00771906
0.00748791
0.00725325
0.00701396
0.00676892
0.0065171
0.00625754
0.00598942
0.00571219
0.00542562
0.00513012
0.00482679
0.00451804
0.00420769
0.00390192
0.00360936
0.00334241
0.00311724
0.00295613
0.00288799
0.0358986
0.0322265
0.0268135
0.0225119
0.0202224
0.0189255
0.0177145
0.0165162
0.0155115
0.0147248
0.0140735
0.0134968
0.012977
0.0125096
0.0120876
0.0117024
0.0113468
0.0110159
0.0107056
0.0104128
0.0101347
0.00986889
0.00961336
0.00936626
0.00912596
0.00889099
0.00865998
0.00843164
0.00820476
0.00797817
0.00775074
0.00752136
0.00728896
0.00705251
0.00681103
0.00656358
0.00630941
0.00604789
0.00577871
0.00550196
0.00521837
0.00492946
0.0046381
0.00434859
0.00406763
0.00380437
0.00357175
0.00338652
0.00327171
0.00325681
0.0348642
0.0316273
0.0267094
0.0225926
0.0202636
0.0189384
0.0177549
0.0165798
0.015573
0.014777
0.014121
0.0135428
0.0130211
0.0125511
0.0121267
0.0117395
0.0113822
0.0110498
0.0107382
0.0104443
0.0101653
0.00989875
0.00964266
0.00939519
0.00915472
0.00891978
0.00868901
0.00846117
0.00823506
0.00800956
0.00778359
0.0075561
0.0073261
0.00709264
0.00685487
0.006612
0.00636343
0.00610874
0.00584788
0.0055812
0.00530979
0.00503556
0.00476178
0.00449324
0.00423707
0.0040029
0.00380415
0.003658
0.00358796
0.00362368
0.033882
0.0310265
0.0265688
0.0226513
0.0203018
0.0189473
0.0177875
0.0166379
0.0156326
0.0148283
0.0141675
0.0135879
0.0130648
0.0125926
0.0121659
0.0117767
0.0114179
0.011084
0.0107712
0.0104763
0.0101964
0.00992918
0.00967259
0.00942481
0.00918421
0.00894935
0.0087189
0.00849163
0.00826637
0.00804205
0.00781764
0.00759215
0.00736469
0.00713438
0.0069005
0.0066624
0.00641963
0.00617201
0.00591969
0.00566334
0.00540435
0.00514499
0.00488895
0.00464141
0.00440994
0.00420455
0.00403903
0.00393089
0.00390382
0.00398726
0.0329488
0.0304273
0.0263946
0.0226866
0.0203356
0.0189528
0.0178125
0.01669
0.0156899
0.0148787
0.0142131
0.0136322
0.013108
0.012634
0.0122051
0.0118141
0.0114538
0.0111186
0.0108046
0.0105087
0.010228
0.00996019
0.00970316
0.00945511
0.00921444
0.00897973
0.00874966
0.00852302
0.00829871
0.00807566
0.00785292
0.00762956
0.00740476
0.00717776
0.00694794
0.00671479
0.00647804
0.00623769
0.00599415
0.00574834
0.00550196
0.00525765
0.00501942
0.00479286
0.00458588
0.00440883
0.00427578
0.00420435
0.00421823
0.00434626
0.0320617
0.0298327
0.0261903
0.0226979
0.0203634
0.0189551
0.0178304
0.0167357
0.0157441
0.014928
0.0142576
0.0136754
0.0131507
0.0126751
0.0122443
0.0118516
0.0114898
0.0111535
0.0108385
0.0105416
0.0102602
0.00999177
0.00973434
0.00948609
0.00924542
0.00901092
0.0087813
0.00855538
0.00833209
0.00811042
0.00788945
0.00766835
0.00744635
0.00722281
0.00699721
0.00676919
0.00653865
0.00630578
0.00607122
0.00583615
0.00560255
0.00537339
0.005153
0.00494731
0.00476453
0.00461524
0.0045137
0.00447752
0.00453008
0.00469939
0.0312178
0.0292449
0.0259591
0.0226848
0.0203837
0.0189543
0.0178418
0.0167746
0.0157949
0.0149758
0.0143011
0.0137176
0.0131925
0.0127159
0.0122834
0.0118891
0.0115261
0.0111886
0.0108726
0.0105749
0.0102928
0.0100239
0.00976615
0.00951776
0.00927715
0.00904293
0.00881383
0.00858872
0.00836654
0.00814634
0.00792727
0.00770853
0.00748948
0.00726954
0.00704832
0.00682562
0.00660147
0.00637627
0.00615087
0.00592669
0.00570601
0.00549205
0.00528946
0.00510444
0.00494544
0.00482323
0.00475208
0.00474948
0.00483829
0.0050454
0.0304145
0.0286659
0.0257045
0.0226474
0.0203949
0.0189504
0.017847
0.0168066
0.0158415
0.0150219
0.0143433
0.0137586
0.0132335
0.0127562
0.0123224
0.0119267
0.0115624
0.0112239
0.0109071
0.0106086
0.0103259
0.0100566
0.00979857
0.00955011
0.00930963
0.00907576
0.00884727
0.00862304
0.00840207
0.00818345
0.00796638
0.00775014
0.00753416
0.00731797
0.0071013
0.00688407
0.00666649
0.00644912
0.00623303
0.00601988
0.00581218
0.00561343
0.00542852
0.00526389
0.00512816
0.00503218
0.00499017
0.00501931
0.00514175
0.0053831
0.0296492
0.0280972
0.0254298
0.0225861
0.0203957
0.018943
0.0178467
0.0168318
0.0158836
0.0150659
0.0143842
0.0137983
0.0132734
0.0127959
0.012361
0.0119641
0.0115988
0.0112594
0.0109418
0.0106427
0.0103595
0.0100898
0.00983161
0.00958314
0.00934287
0.00910943
0.00888163
0.00865837
0.0084387
0.00822176
0.0080068
0.00779318
0.00758041
0.00736811
0.00715614
0.00694454
0.00673367
0.00652429
0.00631764
0.00611561
0.00592093
0.00573732
0.0055699
0.00542527
0.00531218
0.00524148
0.00522719
0.00528607
0.00543939
0.0057113
0.0289195
0.02754
0.0251383
0.0225017
0.0203848
0.0189317
0.0178412
0.0168502
0.0159207
0.0151073
0.0144236
0.0138366
0.0133122
0.0128348
0.0123993
0.0120014
0.0116351
0.011295
0.0109768
0.0106772
0.0103935
0.0101235
0.00986523
0.00961684
0.00937686
0.00914393
0.0089169
0.00869471
0.00847643
0.00826127
0.00804854
0.00783766
0.00762823
0.00741997
0.00721283
0.007007
0.00680299
0.00660171
0.0064046
0.00621373
0.00603204
0.00586346
0.00571325
0.00558816
0.00549697
0.00545045
0.00546233
0.00554882
0.00573016
0.00602893
0.028223
0.0269952
0.0248329
0.0223954
0.0203611
0.0189158
0.0178308
0.0168619
0.0159524
0.0151458
0.0144614
0.0138735
0.0133497
0.0128729
0.0124371
0.0120384
0.0116714
0.0113307
0.011012
0.0107119
0.0104279
0.0101578
0.00989944
0.00965121
0.00941159
0.00917927
0.00895309
0.00873206
0.00851528
0.00830201
0.00809161
0.00788359
0.00767762
0.00747352
0.00727135
0.00707141
0.00687438
0.0066813
0.00649379
0.0063141
0.00614533
0.00599157
0.00585822
0.0057521
0.00568196
0.0056584
0.00569478
0.00580662
0.00601303
0.00633494
0.0275576
0.0264633
0.0245165
0.0222687
0.0203239
0.0188946
0.0178159
0.0168673
0.0159784
0.0151809
0.0144972
0.0139089
0.0133859
0.01291
0.0124743
0.0120751
0.0117076
0.0113664
0.0110473
0.0107469
0.0104627
0.0101925
0.0099342
0.00968623
0.00944707
0.00921543
0.0089902
0.00877042
0.00855524
0.00834396
0.00813601
0.00793097
0.00772857
0.00752875
0.00733167
0.00713775
0.00694778
0.00676297
0.00658509
0.00641652
0.00626053
0.00612134
0.00600442
0.00591661
0.00586656
0.00586463
0.00592371
0.00605854
0.00628703
0.00662836
0.0269214
0.0259448
0.0241915
0.0221229
0.0202728
0.0188672
0.0177963
0.0168665
0.0159986
0.0152122
0.0145308
0.0139426
0.0134206
0.0129459
0.0125108
0.0121114
0.0117435
0.011402
0.0110826
0.0107821
0.0104978
0.0102276
0.00996951
0.00972188
0.00948327
0.00925241
0.00902823
0.00880979
0.00859631
0.00838712
0.00818173
0.00797978
0.00778107
0.00758565
0.00739375
0.00720593
0.00702311
0.0068466
0.00667832
0.0065208
0.0063774
0.00625244
0.00615143
0.00608117
0.00605015
0.00606842
0.00614831
0.0063037
0.00655121
0.00690831
0.0263125
0.02544
0.0238602
0.02196
0.0202075
0.0188329
0.0177721
0.01686
0.0160129
0.0152393
0.0145619
0.0139746
0.0134537
0.0129805
0.0125463
0.0121472
0.0117791
0.0114375
0.0111181
0.0108175
0.0105332
0.0102631
0.0100053
0.00975815
0.00952018
0.00929019
0.00906715
0.00885016
0.00863848
0.00843149
0.00822876
0.00803
0.00783509
0.00764416
0.00745754
0.0072759
0.00710025
0.00693206
0.00677332
0.0066267
0.00649564
0.0063845
0.0062988
0.00624524
0.0062321
0.00626905
0.00636775
0.00654122
0.00680472
0.00717399
0.0257293
0.0249487
0.0235247
0.0217817
0.0201281
0.018791
0.0177432
0.0168479
0.0160213
0.015262
0.0145902
0.0140045
0.0134852
0.0130138
0.0125809
0.0121823
0.0118144
0.0114728
0.0111534
0.010853
0.0105689
0.0102991
0.0100416
0.009795
0.00955778
0.00932877
0.00910697
0.00889152
0.00868173
0.00847705
0.00827708
0.00808161
0.0078906
0.00770424
0.00752297
0.00734755
0.0071791
0.00701918
0.0068699
0.00673397
0.00661493
0.00651714
0.00644607
0.00640829
0.00641178
0.00646577
0.00658126
0.00677028
0.00704675
0.0074247
0.0251702
0.024471
0.0231868
0.0215897
0.020035
0.0187408
0.0177092
0.0168304
0.0160239
0.0152799
0.0146154
0.0140323
0.0135149
0.0130456
0.0126143
0.0122167
0.0118491
0.0115078
0.0111887
0.0108885
0.0106048
0.0103353
0.0100784
0.00983241
0.00959604
0.00936811
0.00914765
0.00893385
0.00872606
0.00852377
0.00832666
0.00813457
0.00794754
0.00776582
0.00758996
0.00742079
0.00725952
0.0071078
0.00696781
0.00684235
0.00673494
0.00664996
0.00659276
0.00656974
0.00658853
0.0066579
0.00678807
0.00699011
0.00727657
0.00765983
0.0246336
0.0240067
0.0228478
0.0213858
0.0199287
0.018682
0.0176699
0.0168077
0.0160208
0.0152929
0.0146371
0.0140578
0.0135427
0.0130757
0.0126465
0.0122501
0.0118833
0.0115425
0.0112238
0.0109241
0.0106408
0.0103718
0.0101155
0.00987035
0.00963494
0.00940819
0.00918918
0.00897712
0.00877142
0.00857163
0.00837747
0.00818884
0.00800585
0.00782884
0.00765841
0.00749549
0.00734135
0.00719772
0.00706684
0.00695152
0.00685532
0.00678252
0.00673837
0.00672901
0.00676172
0.00684472
0.00698746
0.0072
0.00749354
0.00787888
0.0241184
0.0235557
0.0225091
0.0211718
0.0198097
0.0186141
0.0176249
0.0167798
0.016012
0.0153008
0.0146552
0.0140807
0.0135684
0.0131041
0.0126773
0.0122826
0.0119168
0.0115767
0.0112586
0.0109596
0.0106769
0.0104086
0.0101531
0.00990877
0.00967444
0.00944898
0.00923151
0.0090213
0.00881779
0.00862058
0.00842945
0.00824435
0.00806547
0.0078932
0.00772822
0.00757151
0.00742442
0.00728873
0.00716671
0.00706119
0.00697568
0.00691439
0.00688239
0.00688555
0.00693073
0.00702558
0.00717875
0.0073993
0.00769712
0.00808147
0.0236232
0.0231175
0.0221719
0.0209493
0.0196791
0.018537
0.0175739
0.0167469
0.0159978
0.0153035
0.0146692
0.0141007
0.013592
0.0131307
0.0127066
0.0123139
0.0119495
0.0116104
0.0112932
0.0109949
0.010713
0.0104456
0.0101909
0.00994764
0.00971449
0.00949044
0.00927462
0.00906635
0.00886512
0.00867057
0.00848254
0.00830105
0.00812631
0.0079588
0.00779925
0.0076487
0.00750854
0.00738059
0.00726714
0.00717101
0.00709564
0.00704512
0.00702431
0.00703877
0.00709493
0.00719983
0.00736131
0.00758744
0.00788683
0.00826732
0.0231469
0.0226921
0.0218371
0.0207196
0.0195377
0.0184507
0.0175167
0.0167087
0.0159782
0.0153011
0.0146791
0.0141177
0.0136133
0.0131554
0.0127342
0.012344
0.0119813
0.0116435
0.0113273
0.01103
0.0107491
0.0104826
0.010229
0.00998689
0.00975506
0.00953252
0.00931846
0.00911223
0.00891336
0.00872156
0.0085367
0.00835885
0.00818829
0.00802553
0.00787137
0.00772688
0.0075935
0.00747307
0.00736785
0.00728065
0.00721479
0.00717424
0.00716361
0.00718813
0.00725374
0.00736688
0.00753459
0.00776393
0.00806233
0.00843628
0.0226885
0.0222789
0.0215053
0.0204844
0.0193864
0.0183554
0.0174529
0.0166654
0.0159534
0.0152936
0.0146846
0.0141314
0.0136321
0.0131779
0.0127601
0.0123727
0.0120121
0.0116758
0.0113609
0.0110648
0.0107851
0.0105197
0.0102673
0.0100265
0.00979609
0.00957517
0.00936296
0.00915887
0.00896245
0.00877346
0.00859182
0.00841765
0.00825128
0.00809326
0.00794441
0.00780587
0.00767908
0.00756588
0.00746853
0.00738973
0.00733273
0.00730131
0.0072998
0.00733308
0.00740661
0.00752619
0.00769807
0.00792837
0.00822336
0.0085883
0.022247
0.0218778
0.0211774
0.0202447
0.0192263
0.0182514
0.0173825
0.0166167
0.0159235
0.0152809
0.0146857
0.0141417
0.0136481
0.0131983
0.0127842
0.0123998
0.0120417
0.0117073
0.011394
0.0110993
0.0108208
0.0105568
0.0103058
0.0100663
0.00983751
0.00961833
0.00940808
0.00920621
0.00901232
0.00882621
0.00864784
0.00847737
0.00831516
0.00816183
0.00801822
0.00788547
0.00776505
0.00765877
0.00756884
0.0074979
0.00744905
0.00742585
0.00743237
0.00747312
0.00755302
0.00767728
0.00785134
0.00808045
0.00836978
0.00872348
0.0218215
0.0214884
0.0208538
0.0200017
0.0190584
0.018139
0.0173053
0.0165627
0.0158884
0.0152632
0.0146823
0.0141483
0.0136614
0.0132164
0.0128063
0.0124254
0.0120701
0.0117378
0.0114263
0.0111332
0.0108563
0.0105938
0.0103443
0.0101064
0.00987926
0.00966194
0.00945375
0.00925418
0.00906289
0.00887971
0.00870463
0.00853787
0.00837981
0.0082311
0.0080926
0.00796546
0.00785114
0.00775142
0.00766846
0.00760477
0.00756332
0.00754743
0.00756087
0.00760775
0.0076925
0.0078197
0.00799405
0.00821994
0.00850155
0.00884199
0.0214112
0.0211103
0.0205349
0.0197565
0.0188837
0.0180188
0.0172215
0.0165031
0.0158484
0.0152406
0.0146743
0.014151
0.0136716
0.013232
0.0128264
0.0124492
0.012097
0.0117673
0.0114579
0.0111666
0.0108915
0.0106306
0.0103827
0.0101466
0.00992128
0.00970591
0.00949988
0.0093027
0.00911408
0.00893386
0.0087621
0.00859903
0.00844508
0.00830089
0.00816735
0.00804561
0.0079371
0.00784355
0.00776705
0.00770999
0.00767513
0.0076656
0.00768483
0.00773653
0.00782463
0.0079531
0.00812594
0.00834673
0.00861874
0.00894415
0.0210153
0.0207433
0.0202212
0.01951
0.0187032
0.0178913
0.017131
0.0164381
0.0158033
0.0152131
0.0146616
0.0141499
0.0136786
0.0132451
0.0128442
0.0124712
0.0121225
0.0117956
0.0114886
0.0111994
0.0109262
0.0106672
0.0104211
0.0101869
0.00996346
0.00975018
0.0095464
0.00935168
0.00916577
0.00898856
0.00882013
0.00866072
0.00851079
0.00837101
0.00824226
0.00812567
0.00802265
0.00793485
0.00786427
0.00781316
0.00778411
0.00777996
0.00780385
0.00785906
0.00794905
0.0080772
0.00824683
0.00846079
0.00872151
0.00903039
0.020633
0.0203869
0.0199129
0.019263
0.0185178
0.0177571
0.0170341
0.0163677
0.0157533
0.0151807
0.0146445
0.0141447
0.0136823
0.0132554
0.0128598
0.0124913
0.0121463
0.0118226
0.0115183
0.0112314
0.0109603
0.0107034
0.0104593
0.0102271
0.0100057
0.00979464
0.0095932
0.00940102
0.00921787
0.00904369
0.00887856
0.00872278
0.00857679
0.00844128
0.00831712
0.00820541
0.00810751
0.00802501