/*--------------------------------*- C++ -*----------------------------------*\
  =========                 |
  \\      /  F ield         | OpenFOAM: The Open Source CFD Toolbox
   \\    /   O peration     | Website:  https://openfoam.org
    \\  /    A nd           | Version:  7
     \\/     M anipulation  |
\*---------------------------------------------------------------------------*/
FoamFile
{
    version     2.0;
    format      ascii;
    class       surfaceScalarField;
    location    "0.44";
    object      phi;
}
// * * * * * * * * * * * * * * * * * * * * * * * * * * * * * * * * * * * * * //

dimensions      [0 3 -1 0 0 0 0];

internalField   nonuniform List<scalar> 
139350
(
6.45928e-08
9.20387e-08
3.19519e-08
3.26409e-08
2.30614e-08
8.89044e-09
1.95678e-08
3.49367e-09
1.76166e-08
1.95117e-09
1.61895e-08
1.42705e-09
1.5057e-08
1.13256e-09
1.41434e-08
9.13567e-10
1.33913e-08
7.52112e-10
1.27575e-08
6.33768e-10
1.22133e-08
5.44224e-10
1.17393e-08
4.74001e-10
1.13218e-08
4.17486e-10
1.09507e-08
3.71153e-10
1.06181e-08
3.32603e-10
1.03179e-08
3.00116e-10
1.00455e-08
2.72433e-10
9.79691e-09
2.48607e-10
9.56899e-09
2.2792e-10
9.35918e-09
2.09813e-10
9.16533e-09
1.9385e-10
8.98564e-09
1.79684e-10
8.81861e-09
1.67032e-10
8.66294e-09
1.55667e-10
8.51754e-09
1.45399e-10
8.38147e-09
1.36073e-10
8.25392e-09
1.27551e-10
8.1342e-09
1.19724e-10
8.02171e-09
1.12484e-10
7.91596e-09
1.05751e-10
7.81653e-09
9.94306e-11
7.72307e-09
9.34623e-11
7.63532e-09
8.77468e-11
7.55308e-09
8.2241e-11
7.47625e-09
7.68276e-11
7.40479e-09
7.14595e-11
7.33877e-09
6.6025e-11
7.2784e-09
6.03655e-11
7.22385e-09
5.45553e-11
7.17593e-09
4.79107e-11
7.13455e-09
4.13877e-11
7.10211e-09
3.24412e-11
7.077e-09
2.51092e-11
7.06595e-09
1.10424e-11
7.06202e-09
3.93015e-12
7.08462e-09
-2.25996e-11
7.10546e-09
-2.0833e-11
7.20732e-09
-1.0186e-10
7.07914e-09
1.28175e-10
-3.45983e-09
1.0539e-08
1.26026e-07
1.27456e-07
9.12647e-08
6.74023e-08
7.19451e-08
2.821e-08
6.12194e-08
1.42194e-08
5.47742e-08
8.3964e-09
5.0281e-08
5.92023e-09
4.67971e-08
4.6165e-09
4.3981e-08
3.72964e-09
4.16537e-08
3.07944e-09
3.96905e-08
2.59695e-09
3.80044e-08
2.23026e-09
3.65356e-08
1.94285e-09
3.52413e-08
1.71174e-09
3.40902e-08
1.52232e-09
3.3058e-08
1.36471e-09
3.21263e-08
1.23188e-09
3.128e-08
1.11868e-09
3.05074e-08
1.02125e-09
2.97987e-08
9.3665e-10
2.91459e-08
8.62618e-10
2.85423e-08
7.97366e-10
2.79826e-08
7.39477e-10
2.74618e-08
6.87811e-10
2.6976e-08
6.41438e-10
2.65218e-08
5.99592e-10
2.60962e-08
5.61637e-10
2.56968e-08
5.27032e-10
2.53212e-08
4.95323e-10
2.49675e-08
4.661e-10
2.46343e-08
4.39028e-10
2.43199e-08
4.13759e-10
2.40234e-08
3.90044e-10
2.37436e-08
3.67535e-10
2.34798e-08
3.46055e-10
2.32314e-08
3.25182e-10
2.29981e-08
3.04807e-10
2.27797e-08
2.84373e-10
2.25763e-08
2.63742e-10
2.23886e-08
2.42335e-10
2.2217e-08
2.19441e-10
2.2063e-08
1.9538e-10
2.19289e-08
1.66618e-10
2.18156e-08
1.38343e-10
2.17308e-08
9.58196e-11
2.16701e-08
6.46534e-11
2.16622e-08
-1.46494e-11
2.16623e-08
-2.09282e-11
2.18394e-08
-2.78982e-10
2.17709e-08
1.96684e-10
-4.49125e-09
2.28023e-08
1.58807e-07
1.35052e-07
1.36496e-07
8.97139e-08
1.17496e-07
4.72095e-08
1.0332e-07
2.83954e-08
9.33147e-08
1.8402e-08
8.60132e-08
1.32217e-08
8.03069e-08
1.03228e-08
7.56545e-08
8.38206e-09
7.1774e-08
6.95998e-09
6.84786e-08
5.89229e-09
6.56355e-08
5.07339e-09
6.315e-08
4.42838e-09
6.09536e-08
3.90812e-09
5.89953e-08
3.48061e-09
5.72359e-08
3.1241e-09
5.56448e-08
2.82305e-09
5.41974e-08
2.56607e-09
5.2874e-08
2.34459e-09
5.16586e-08
2.15206e-09
5.05378e-08
1.9834e-09
4.95006e-08
1.83464e-09
4.85375e-08
1.70259e-09
4.76406e-08
1.58469e-09
4.68032e-08
1.47884e-09
4.60194e-08
1.38334e-09
4.52843e-08
1.29674e-09
4.45935e-08
1.21785e-09
4.39432e-08
1.14562e-09
4.33301e-08
1.07917e-09
4.27514e-08
1.01772e-09
4.22047e-08
9.60548e-10
4.16876e-08
9.07072e-10
4.11986e-08
8.56575e-10
4.0736e-08
8.08661e-10
4.02987e-08
7.62454e-10
3.98857e-08
7.17786e-10
3.94967e-08
6.73356e-10
3.91312e-08
6.29313e-10
3.87899e-08
5.8364e-10
3.84727e-08
5.36623e-10
3.81822e-08
4.85863e-10
3.79192e-08
4.29654e-10
3.76879e-08
3.69607e-10
3.74934e-08
2.90293e-10
3.73364e-08
2.21722e-10
3.72456e-08
7.60945e-11
3.71762e-08
4.84762e-11
3.73091e-08
-4.11867e-10
3.73668e-08
1.38982e-10
-4.56226e-09
3.74378e-08
1.75664e-07
1.30904e-07
1.65596e-07
9.97823e-08
1.52726e-07
6.0079e-08
1.40129e-07
4.09925e-08
1.29441e-07
2.90899e-08
1.20799e-07
2.18642e-08
1.13686e-07
1.74353e-08
1.07704e-07
1.43645e-08
1.026e-07
1.20634e-08
9.81939e-08
1.02987e-08
9.43452e-08
8.92209e-09
9.09488e-08
7.82479e-09
8.7925e-08
6.93193e-09
8.52124e-08
6.19319e-09
8.27629e-08
5.5736e-09
8.0538e-08
5.04792e-09
7.85067e-08
4.59736e-09
7.66436e-08
4.20771e-09
7.49277e-08
3.868e-09
7.33414e-08
3.56967e-09
7.18701e-08
3.30596e-09
7.05012e-08
3.07144e-09
6.92242e-08
2.86172e-09
6.80298e-08
2.67321e-09
6.69102e-08
2.50295e-09
6.58585e-08
2.34846e-09
6.48687e-08
2.20764e-09
6.39356e-08
2.07871e-09
6.30547e-08
1.96013e-09
6.22218e-08
1.85056e-09
6.14336e-08
1.74875e-09
6.0687e-08
1.6537e-09
5.99793e-08
1.56422e-09
5.93084e-08
1.47962e-09
5.86724e-08
1.39845e-09
5.80697e-08
1.32049e-09
5.74996e-08
1.24348e-09
5.69608e-08
1.16803e-09
5.64543e-08
1.0902e-09
5.59791e-08
1.01186e-09
5.55382e-08
9.2674e-10
5.51314e-08
8.36464e-10
5.47643e-08
7.36649e-10
5.44407e-08
6.13942e-10
5.41634e-08
4.98985e-10
5.39597e-08
2.7978e-10
5.37948e-08
2.13406e-10
5.38107e-08
-4.27764e-10
5.39139e-08
3.57913e-11
-4.31157e-09
5.36632e-08
1.8456e-07
1.23129e-07
1.82321e-07
1.02021e-07
1.76104e-07
6.62961e-08
1.67763e-07
4.93338e-08
1.59141e-07
3.77116e-08
1.51233e-07
2.9773e-08
1.44159e-07
2.45088e-08
1.37857e-07
2.06664e-08
1.32253e-07
1.76676e-08
1.27263e-07
1.52889e-08
1.22801e-07
1.33838e-08
1.18792e-07
1.18343e-08
1.1517e-07
1.05537e-08
1.11882e-07
9.48062e-09
1.08885e-07
8.57131e-09
1.06139e-07
7.79312e-09
1.03616e-07
7.12127e-09
1.01287e-07
6.5366e-09
9.91305e-08
6.02414e-09
9.71282e-08
5.57201e-09
9.52634e-08
5.17072e-09
9.35223e-08
4.81259e-09
9.18926e-08
4.49134e-09
9.0364e-08
4.20182e-09
8.89273e-08
3.93971e-09
8.75743e-08
3.7014e-09
8.62981e-08
3.48384e-09
8.50924e-08
3.2844e-09
8.39518e-08
3.10079e-09
8.28713e-08
2.93105e-09
8.18467e-08
2.77334e-09
8.08743e-08
2.62615e-09
7.99507e-08
2.48778e-09
7.90732e-08
2.35717e-09
7.82393e-08
2.23229e-09
7.7447e-08
2.11276e-09
7.66952e-08
1.99536e-09
7.59821e-08
1.88112e-09
7.53082e-08
1.76404e-09
7.46724e-08
1.64773e-09
7.40774e-08
1.52171e-09
7.35226e-08
1.39123e-09
7.30139e-08
1.24541e-09
7.25542e-08
1.07358e-09
7.21481e-08
9.05158e-10
7.18182e-08
6.09637e-10
7.15473e-08
4.8429e-10
7.14237e-08
-3.04091e-10
7.14809e-08
-2.14695e-11
-3.91625e-09
7.10856e-08
1.90388e-07
1.14957e-07
1.91852e-07
1.00557e-07
1.90245e-07
6.79034e-08
1.86155e-07
5.34232e-08
1.80718e-07
4.31493e-08
1.74964e-07
3.55271e-08
1.69266e-07
3.02061e-08
1.6378e-07
2.61524e-08
1.58602e-07
2.28463e-08
1.53772e-07
2.01182e-08
1.49295e-07
1.78606e-08
1.45155e-07
1.59749e-08
1.41327e-07
1.43819e-08
1.37785e-07
1.30226e-08
1.34503e-07
1.18531e-08
1.31457e-07
1.08391e-08
1.28624e-07
9.95401e-09
1.25984e-07
9.17639e-09
1.23519e-07
8.48914e-09
1.21213e-07
7.87842e-09
1.19051e-07
7.33293e-09
1.1702e-07
6.84337e-09
1.15109e-07
6.40207e-09
1.13308e-07
6.00258e-09
1.11609e-07
5.63952e-09
1.10002e-07
5.3083e-09
1.08481e-07
5.005e-09
1.07039e-07
4.72624e-09
1.0567e-07
4.46904e-09
1.04371e-07
4.23084e-09
1.03135e-07
4.00922e-09
1.01959e-07
3.8022e-09
1.00839e-07
3.60754e-09
9.97724e-08
3.42383e-09
9.87562e-08
3.24842e-09
9.77882e-08
3.0808e-09
9.68668e-08
2.91674e-09
9.59903e-08
2.75768e-09
9.51587e-08
2.59563e-09
9.43707e-08
2.43572e-09
9.36288e-08
2.2636e-09
9.29325e-08
2.08755e-09
9.22869e-08
1.89094e-09
9.16953e-08
1.66518e-09
9.1163e-08
1.43749e-09
9.07077e-08
1.06494e-09
9.03289e-08
8.63055e-10
9.00692e-08
-4.44129e-11
9.00332e-08
1.4595e-11
-3.41546e-09
8.95324e-08
1.95541e-07
1.07231e-07
1.98247e-07
9.78505e-08
1.98969e-07
6.71818e-08
1.97789e-07
5.46031e-08
1.95158e-07
4.57806e-08
1.91816e-07
3.88685e-08
1.88084e-07
3.39384e-08
1.84132e-07
3.01045e-08
1.80109e-07
2.68693e-08
1.76125e-07
2.41022e-08
1.72248e-07
2.17375e-08
1.68517e-07
1.97058e-08
1.64953e-07
1.79463e-08
1.61563e-07
1.64122e-08
1.58349e-07
1.5067e-08
1.55307e-07
1.38814e-08
1.5243e-07
1.28315e-08
1.49709e-07
1.18974e-08
1.47135e-07
1.10626e-08
1.447e-07
1.03134e-08
1.42395e-07
9.63841e-09
1.4021e-07
9.02787e-09
1.38139e-07
8.47365e-09
1.36172e-07
7.96881e-09
1.34304e-07
7.50742e-09
1.32528e-07
7.08437e-09
1.30838e-07
6.69521e-09
1.29228e-07
6.3361e-09
1.27694e-07
6.00357e-09
1.2623e-07
5.69462e-09
1.24833e-07
5.40641e-09
1.23498e-07
5.13657e-09
1.22224e-07
4.88241e-09
1.21005e-07
4.64223e-09
1.19841e-07
4.41282e-09
1.18728e-07
4.19355e-09
1.17665e-07
3.9793e-09
1.16651e-07
3.77178e-09
1.15686e-07
3.56132e-09
1.14767e-07
3.35409e-09
1.13898e-07
3.13267e-09
1.13078e-07
2.90726e-09
1.12312e-07
2.65692e-09
1.11604e-07
2.37374e-09
1.10958e-07
2.083e-09
1.1039e-07
1.63337e-09
1.0991e-07
1.3429e-09
1.09528e-07
3.37779e-10
1.09384e-07
1.58942e-10
-2.83587e-09
1.08804e-07
2.00848e-07
9.99682e-08
2.03776e-07
9.49226e-08
2.05327e-07
6.56303e-08
2.05644e-07
5.42869e-08
2.04818e-07
4.66064e-08
2.03337e-07
4.03491e-08
2.0139e-07
3.5886e-08
1.99059e-07
3.24353e-08
1.9645e-07
2.94781e-08
1.93666e-07
2.68867e-08
1.90786e-07
2.4617e-08
1.87872e-07
2.26201e-08
1.84967e-07
2.08509e-08
1.82104e-07
1.92751e-08
1.79305e-07
1.7866e-08
1.76585e-07
1.66017e-08
1.73952e-07
1.54639e-08
1.71413e-07
1.44368e-08
1.68969e-07
1.35068e-08
1.6662e-07
1.26622e-08
1.64365e-07
1.1893e-08
1.62203e-07
1.11905e-08
1.60129e-07
1.05472e-08
1.58142e-07
9.95647e-09
1.56236e-07
9.41266e-09
1.5441e-07
8.91073e-09
1.52659e-07
8.44623e-09
1.5098e-07
8.01523e-09
1.49369e-07
7.61415e-09
1.47824e-07
7.23983e-09
1.46341e-07
6.88922e-09
1.44918e-07
6.55975e-09
1.43552e-07
6.2485e-09
1.42241e-07
5.95352e-09
1.40982e-07
5.67126e-09
1.39775e-07
5.40095e-09
1.38617e-07
5.1368e-09
1.37508e-07
4.88064e-09
1.36448e-07
4.62153e-09
1.35436e-07
4.36616e-09
1.34474e-07
4.095e-09
1.33562e-07
3.81889e-09
1.32705e-07
3.51443e-09
1.31906e-07
3.1724e-09
1.31171e-07
2.81764e-09
1.30513e-07
2.29205e-09
1.29949e-07
1.90673e-09
1.29465e-07
8.21703e-10
1.29216e-07
4.08311e-10
-2.20737e-09
1.28587e-07
2.06447e-07
9.30533e-08
2.0934e-07
9.203e-08
2.11037e-07
6.39327e-08
2.11932e-07
5.33924e-08
2.12002e-07
4.65366e-08
2.11616e-07
4.07344e-08
2.10888e-07
3.66147e-08
2.09818e-07
3.35052e-08
2.08443e-07
3.08523e-08
2.06823e-07
2.85072e-08
2.05012e-07
2.64284e-08
2.03058e-07
2.45733e-08
2.01006e-07
2.29035e-08
1.9889e-07
2.13912e-08
1.9674e-07
2.00161e-08
1.94579e-07
1.87625e-08
1.92426e-07
1.76167e-08
1.90296e-07
1.65674e-08
1.88198e-07
1.56044e-08
1.86141e-07
1.47189e-08
1.84131e-07
1.3903e-08
1.82172e-07
1.31498e-08
1.80266e-07
1.24532e-08
1.78415e-07
1.18076e-08
1.76619e-07
1.12083e-08
1.74879e-07
1.06507e-08
1.73194e-07
1.0131e-08
1.71564e-07
9.6455e-09
1.69987e-07
9.19094e-09
1.68463e-07
8.76427e-09
1.6699e-07
8.36255e-09
1.65566e-07
7.98321e-09
1.64191e-07
7.62328e-09
1.62864e-07
7.28078e-09
1.61583e-07
6.95196e-09
1.60348e-07
6.63598e-09
1.59159e-07
6.32663e-09
1.58013e-07
6.02574e-09
1.56913e-07
5.72157e-09
1.55859e-07
5.42082e-09
1.54851e-07
5.10287e-09
1.53892e-07
4.77784e-09
1.52984e-07
4.42197e-09
1.52134e-07
4.02246e-09
1.51346e-07
3.60584e-09
1.5063e-07
3.00797e-09
1.50011e-07
2.52642e-09
1.49454e-07
1.37833e-09
1.49116e-07
7.45915e-10
-1.56064e-09
1.4847e-07
2.12289e-07
8.64267e-08
2.15152e-07
8.91664e-08
2.16792e-07
6.22936e-08
2.17844e-07
5.23398e-08
2.1826e-07
4.61204e-08
2.18378e-07
4.06171e-08
2.18303e-07
3.66893e-08
2.18005e-07
3.38033e-08
2.17475e-07
3.13818e-08
2.16733e-07
2.92501e-08
2.158e-07
2.73608e-08
2.14703e-07
2.56703e-08
2.13467e-07
2.41394e-08
2.12118e-07
2.27408e-08
2.10678e-07
2.14558e-08
2.0917e-07
2.02709e-08
2.07611e-07
1.91753e-08
2.06018e-07
1.816e-08
2.04406e-07
1.72173e-08
2.02784e-07
1.63406e-08
2.01163e-07
1.5524e-08
1.9955e-07
1.47623e-08
1.97953e-07
1.40508e-08
1.96375e-07
1.33852e-08
1.94822e-07
1.27617e-08
1.93295e-07
1.21769e-08
1.91799e-07
1.16275e-08
1.90334e-07
1.11105e-08
1.88902e-07
1.0623e-08
1.87504e-07
1.01625e-08
1.8614e-07
9.72626e-09
1.84811e-07
9.31195e-09
1.83518e-07
8.91673e-09
1.8226e-07
8.53873e-09
1.81038e-07
8.17415e-09
1.79851e-07
7.82222e-09
1.78702e-07
7.47647e-09
1.77589e-07
7.13869e-09
1.76513e-07
6.79677e-09
1.75477e-07
6.45692e-09
1.74482e-07
6.09852e-09
1.7353e-07
5.72966e-09
1.72624e-07
5.32823e-09
1.7177e-07
4.87585e-09
1.70974e-07
4.40246e-09
1.70242e-07
3.73936e-09
1.69604e-07
3.16484e-09
1.69012e-07
1.97016e-09
1.68614e-07
1.14337e-09
-9.26525e-10
1.6798e-07
2.1833e-07
8.00774e-08
2.21206e-07
8.62903e-08
2.22764e-07
6.07353e-08
2.23844e-07
5.12605e-08
2.24369e-07
4.55948e-08
2.24665e-07
4.03219e-08
2.24866e-07
3.64875e-08
2.24947e-07
3.37228e-08
2.24884e-07
3.1445e-08
2.24677e-07
2.94572e-08
2.2433e-07
2.77076e-08
2.23849e-07
2.61508e-08
2.23244e-07
2.47448e-08
2.22525e-07
2.34598e-08
2.21705e-07
2.22759e-08
2.20796e-07
2.11791e-08
2.19813e-07
2.01588e-08
2.18766e-07
1.92065e-08
2.17668e-07
1.83154e-08
2.16529e-07
1.74799e-08
2.15358e-07
1.66951e-08
2.14164e-07
1.59568e-08
2.12953e-07
1.52613e-08
2.11733e-07
1.46053e-08
2.10509e-07
1.39858e-08
2.09286e-07
1.34002e-08
2.08067e-07
1.28458e-08
2.06857e-07
1.23204e-08
2.05659e-07
1.18215e-08
2.04474e-07
1.1347e-08
2.03306e-07
1.08946e-08
2.02156e-07
1.04624e-08
2.01025e-07
1.00476e-08
1.99915e-07
9.64858e-09
1.98827e-07
9.26168e-09
1.97763e-07
8.88614e-09
1.96724e-07
8.51551e-09
1.95712e-07
8.15135e-09
1.94727e-07
7.78169e-09
1.93772e-07
7.41173e-09
1.92849e-07
7.02185e-09
1.91961e-07
6.61697e-09
1.91111e-07
6.1783e-09
1.90307e-07
5.68068e-09
1.89551e-07
5.15802e-09
1.8885e-07
4.43991e-09
1.88235e-07
3.77993e-09
1.87651e-07
2.55444e-09
1.87231e-07
1.5638e-09
-3.35734e-10
1.8664e-07
2.24559e-07
7.40119e-08
2.2747e-07
8.33786e-08
2.28961e-07
5.92446e-08
2.30046e-07
5.01758e-08
2.30613e-07
4.50278e-08
2.30957e-07
3.99779e-08
2.31248e-07
3.61961e-08
2.31477e-07
3.3494e-08
2.31623e-07
3.12991e-08
2.31683e-07
2.93965e-08
2.31658e-07
2.77328e-08
2.31545e-07
2.62639e-08
2.31343e-07
2.49463e-08
2.31055e-07
2.37481e-08
2.30684e-07
2.26474e-08
2.30234e-07
2.1629e-08
2.29711e-07
2.06811e-08
2.29123e-07
1.97949e-08
2.28475e-07
1.89631e-08
2.27775e-07
1.81801e-08
2.27029e-07
1.74412e-08
2.26243e-07
1.67424e-08
2.25424e-07
1.60804e-08
2.24577e-07
1.54522e-08
2.23708e-07
1.48554e-08
2.22821e-07
1.42876e-08
2.2192e-07
1.37467e-08
2.21009e-07
1.32308e-08
2.20093e-07
1.2738e-08
2.19173e-07
1.22664e-08
2.18254e-07
1.18141e-08
2.17337e-07
1.13793e-08
2.16425e-07
1.09596e-08
2.1552e-07
1.05537e-08
2.14624e-07
1.01577e-08
2.13739e-07
9.77112e-09
2.12867e-07
9.38757e-09
2.1201e-07
9.00829e-09
2.1117e-07
8.62175e-09
2.1035e-07
8.23179e-09
2.09551e-07
7.82051e-09
2.08779e-07
7.38897e-09
2.08035e-07
6.92259e-09
2.07326e-07
6.3893e-09
2.06658e-07
5.82632e-09
2.06032e-07
5.06539e-09
2.05481e-07
4.33091e-09
2.04947e-07
3.08901e-09
2.04543e-07
1.96767e-09
1.8363e-10
2.04024e-07
2.30979e-07
6.82383e-08
2.33935e-07
8.04232e-08
2.35366e-07
5.7813e-08
2.36457e-07
4.9085e-08
2.37058e-07
4.44273e-08
2.37417e-07
3.96186e-08
2.3773e-07
3.58832e-08
2.38005e-07
3.32193e-08
2.38226e-07
3.10775e-08
2.38396e-07
2.92263e-08
2.38517e-07
2.76121e-08
2.38587e-07
2.61945e-08
2.38602e-07
2.49311e-08
2.38561e-07
2.37887e-08
2.38464e-07
2.27446e-08
2.3831e-07
2.17826e-08
2.38102e-07
2.089e-08
2.37839e-07
2.00571e-08
2.37526e-07
1.92763e-08
2.37165e-07
1.85412e-08
2.36759e-07
1.78468e-08
2.36313e-07
1.7189e-08
2.35829e-07
1.65643e-08
2.35311e-07
1.59698e-08
2.34764e-07
1.54029e-08
2.3419e-07
1.48615e-08
2.33593e-07
1.43435e-08
2.32977e-07
1.38473e-08
2.32343e-07
1.33711e-08
2.31697e-07
1.29132e-08
2.31039e-07
1.24719e-08
2.30372e-07
1.20456e-08
2.297e-07
1.1632e-08
2.29024e-07
1.12297e-08
2.28346e-07
1.08353e-08
2.2767e-07
1.0448e-08
2.26996e-07
1.00617e-08
2.26327e-07
9.67707e-09
2.25665e-07
9.2834e-09
2.25014e-07
8.88279e-09
2.24375e-07
8.45952e-09
2.23754e-07
8.01051e-09
2.2315e-07
7.52562e-09
2.22573e-07
6.96668e-09
2.22027e-07
6.37251e-09
2.21511e-07
5.58134e-09
2.21057e-07
4.78523e-09
2.20607e-07
3.53915e-09
2.20255e-07
2.31969e-09
6.09349e-10
2.19829e-07
2.37601e-07
6.27625e-08
2.40602e-07
7.74214e-08
2.41977e-07
5.64386e-08
2.43073e-07
4.79892e-08
2.4371e-07
4.37896e-08
2.44083e-07
3.92459e-08
2.44401e-07
3.55649e-08
2.44689e-07
3.29322e-08
2.44933e-07
3.08331e-08
2.4514e-07
2.90195e-08
2.45315e-07
2.74368e-08
2.4546e-07
2.60499e-08
2.45573e-07
2.48182e-08
2.45652e-07
2.3709e-08
2.45697e-07
2.26995e-08
2.45707e-07
2.17729e-08
2.4568e-07
2.09166e-08
2.45617e-07
2.01203e-08
2.45518e-07
1.93759e-08
2.45382e-07
1.86767e-08
2.45212e-07
1.80172e-08
2.45008e-07
1.7393e-08
2.44772e-07
1.68003e-08
2.44505e-07
1.62361e-08
2.44211e-07
1.56976e-08
2.4389e-07
1.51825e-08
2.43544e-07
1.46888e-08
2.43177e-07
1.42146e-08
2.4279e-07
1.37584e-08
2.42385e-07
1.33183e-08
2.41964e-07
1.28928e-08
2.41529e-07
1.24803e-08
2.41083e-07
1.20785e-08
2.40626e-07
1.1686e-08
2.40162e-07
1.12995e-08
2.39692e-07
1.09181e-08
2.39218e-07
1.05358e-08
2.38742e-07
1.01527e-08
2.38267e-07
9.75895e-09
2.37795e-07
9.35475e-09
2.37328e-07
8.92678e-09
2.3687e-07
8.4679e-09
2.36424e-07
7.97197e-09
2.35994e-07
7.39629e-09
2.35588e-07
6.77902e-09
2.352e-07
5.96887e-09
2.34861e-07
5.12423e-09
2.34517e-07
3.88331e-09
2.34242e-07
2.59504e-09
9.28897e-10
2.33922e-07
2.44431e-07
5.75881e-08
2.47472e-07
7.43799e-08
2.48798e-07
5.51131e-08
2.49894e-07
4.68931e-08
2.5057e-07
4.31131e-08
2.5096e-07
3.8856e-08
2.51283e-07
3.5242e-08
2.51576e-07
3.26396e-08
2.51828e-07
3.05811e-08
2.52045e-07
2.88018e-08
2.52238e-07
2.72446e-08
2.52408e-07
2.58793e-08
2.52558e-07
2.46685e-08
2.52687e-07
2.35801e-08
2.52795e-07
2.25916e-08
2.52881e-07
2.16867e-08
2.52945e-07
2.08525e-08
2.52986e-07
2.0079e-08
2.53004e-07
1.93579e-08
2.52999e-07
1.86823e-08
2.52969e-07
1.80465e-08
2.52916e-07
1.7446e-08
2.5284e-07
1.68767e-08
2.52741e-07
1.63352e-08
2.5262e-07
1.58189e-08
2.52477e-07
1.53251e-08
2.52314e-07
1.48517e-08
2.52132e-07
1.43967e-08
2.51932e-07
1.39585e-08
2.51715e-07
1.35353e-08
2.51482e-07
1.31254e-08
2.51235e-07
1.27271e-08
2.50976e-07
1.23382e-08
2.50704e-07
1.19573e-08
2.50423e-07
1.15809e-08
2.50133e-07
1.12079e-08
2.49836e-07
1.08327e-08
2.49534e-07
1.04545e-08
2.49229e-07
1.00645e-08
2.48923e-07
9.66086e-09
2.48617e-07
9.23259e-09
2.48316e-07
8.76895e-09
2.48021e-07
8.26697e-09
2.47736e-07
7.68127e-09
2.47468e-07
7.04712e-09
2.4721e-07
6.22681e-09
2.46988e-07
5.3455e-09
2.46756e-07
4.11581e-09
2.46568e-07
2.78301e-09
1.14156e-09
2.46355e-07
2.51478e-07
5.27169e-08
2.5455e-07
7.13082e-08
2.55837e-07
5.38262e-08
2.56927e-07
4.58022e-08
2.57642e-07
4.23989e-08
2.58052e-07
3.84459e-08
2.5838e-07
3.49134e-08
2.58678e-07
3.23417e-08
2.58935e-07
3.03239e-08
2.59158e-07
2.85796e-08
2.59355e-07
2.7047e-08
2.59534e-07
2.57009e-08
2.59695e-07
2.4507e-08
2.59841e-07
2.34342e-08
2.59972e-07
2.24605e-08
2.60089e-07
2.15698e-08
2.60192e-07
2.07498e-08
2.6028e-07
1.99906e-08
2.60354e-07
1.9284e-08
2.60413e-07
1.86232e-08
2.60457e-07
1.80025e-08
2.60486e-07
1.74171e-08
2.605e-07
1.68631e-08
2.60498e-07
1.6337e-08
2.60481e-07
1.58358e-08
2.60449e-07
1.5357e-08
2.60402e-07
1.48983e-08
2.60342e-07
1.44576e-08
2.60267e-07
1.40331e-08
2.60179e-07
1.3623e-08
2.60079e-07
1.32256e-08
2.59967e-07
1.28391e-08
2.59844e-07
1.24612e-08
2.59711e-07
1.20904e-08
2.59569e-07
1.17232e-08
2.59418e-07
1.13583e-08
2.59261e-07
1.09903e-08
2.59098e-07
1.06175e-08
2.5893e-07
1.02321e-08
2.58761e-07
9.83047e-09
2.5859e-07
9.40357e-09
2.58421e-07
8.93781e-09
2.58256e-07
8.43224e-09
2.58096e-07
7.84078e-09
2.57949e-07
7.19383e-09
2.57807e-07
6.36925e-09
2.57691e-07
5.46105e-09
2.57562e-07
4.24552e-09
2.57458e-07
2.88673e-09
1.25793e-09
2.57342e-07
2.58751e-07
4.81489e-08
2.61843e-07
6.82163e-08
2.63102e-07
5.25672e-08
2.64182e-07
4.47217e-08
2.64932e-07
4.16494e-08
2.65364e-07
3.80138e-08
2.65699e-07
3.45779e-08
2.66003e-07
3.20383e-08
2.66266e-07
3.00611e-08
2.66492e-07
2.83535e-08
2.66692e-07
2.68465e-08
2.66874e-07
2.55195e-08
2.67039e-07
2.43417e-08
2.6719e-07
2.3283e-08
2.67329e-07
2.23218e-08
2.67456e-07
2.14424e-08
2.67573e-07
2.06331e-08
2.67679e-07
1.98841e-08
2.67776e-07
1.91874e-08
2.67863e-07
1.85363e-08
2.6794e-07
1.79253e-08
2.68007e-07
1.73497e-08
2.68065e-07
1.68055e-08
2.68113e-07
1.62892e-08
2.68151e-07
1.57978e-08
2.68179e-07
1.53287e-08
2.68198e-07
1.48796e-08
2.68207e-07
1.44483e-08
2.68207e-07
1.40331e-08
2.68198e-07
1.3632e-08
2.68181e-07
1.32432e-08
2.68155e-07
1.2865e-08
2.68121e-07
1.24951e-08
2.68079e-07
1.21317e-08
2.68031e-07
1.17714e-08
2.67977e-07
1.14125e-08
2.67917e-07
1.105e-08
2.67853e-07
1.06814e-08
2.67786e-07
1.02997e-08
2.67717e-07
9.89966e-09
2.67646e-07
9.47388e-09
2.67577e-07
9.0067e-09
2.67512e-07
8.49809e-09
2.67449e-07
7.90299e-09
2.67398e-07
7.24557e-09
2.67347e-07
6.41996e-09
2.67316e-07
5.4924e-09
2.6727e-07
4.29144e-09
2.67237e-07
2.91976e-09
1.29678e-09
2.67198e-07
2.66259e-07
4.38826e-08
2.6936e-07
6.51147e-08
2.70602e-07
5.13257e-08
2.71667e-07
4.36558e-08
2.72449e-07
4.08682e-08
2.72905e-07
3.75577e-08
2.73248e-07
3.42346e-08
2.73557e-07
3.17291e-08
2.73826e-07
2.97924e-08
2.74056e-07
2.81231e-08
2.7426e-07
2.66431e-08
2.74443e-07
2.53359e-08
2.7461e-07
2.41744e-08
2.74764e-07
2.31298e-08
2.74905e-07
2.21806e-08
2.75035e-07
2.13119e-08
2.75156e-07
2.0512e-08
2.75269e-07
1.97716e-08
2.75373e-07
1.90828e-08
2.75471e-07
1.84393e-08
2.7556e-07
1.78354e-08
2.75643e-07
1.72668e-08
2.7572e-07
1.67292e-08
2.75789e-07
1.62195e-08
2.75853e-07
1.57345e-08
2.7591e-07
1.52717e-08
2.75961e-07
1.48287e-08
2.76005e-07
1.44035e-08
2.76044e-07
1.3994e-08
2.76078e-07
1.35987e-08
2.76106e-07
1.32153e-08
2.76128e-07
1.28424e-08
2.76146e-07
1.24774e-08
2.76159e-07
1.21186e-08
2.76168e-07
1.17627e-08
2.76173e-07
1.14075e-08
2.76174e-07
1.10483e-08
2.76174e-07
1.06821e-08
2.76171e-07
1.03024e-08
2.76168e-07
9.90273e-09
2.76165e-07
9.47686e-09
2.76164e-07
9.0079e-09
2.76166e-07
8.49574e-09
2.76171e-07
7.89768e-09
2.76186e-07
7.23102e-09
2.762e-07
6.40571e-09
2.76228e-07
5.46437e-09
2.76243e-07
4.27683e-09
2.76262e-07
2.90098e-09
1.28049e-09
2.76278e-07
2.74009e-07
3.99144e-08
2.7711e-07
6.20144e-08
2.78344e-07
5.00916e-08
2.79391e-07
4.26081e-08
2.802e-07
4.00592e-08
2.80682e-07
3.70762e-08
2.81034e-07
3.38827e-08
2.81349e-07
3.14143e-08
2.81623e-07
2.95176e-08
2.81859e-07
2.7888e-08
2.82065e-07
2.64366e-08
2.82251e-07
2.515e-08
2.8242e-07
2.40054e-08
2.82575e-07
2.29751e-08
2.82717e-07
2.20383e-08
2.82849e-07
2.11802e-08
2.82971e-07
2.03895e-08
2.83086e-07
1.96573e-08
2.83192e-07
1.8976e-08
2.83293e-07
1.83391e-08
2.83387e-07
1.77414e-08
2.83475e-07
1.71785e-08
2.83558e-07
1.66463e-08
2.83636e-07
1.61415e-08
2.83709e-07
1.56613e-08
2.83778e-07
1.52029e-08
2.83842e-07
1.47641e-08
2.83903e-07
1.43429e-08
2.8396e-07
1.39372e-08
2.84013e-07
1.35453e-08
2.84063e-07
1.31653e-08
2.8411e-07
1.27955e-08
2.84154e-07
1.24334e-08
2.84196e-07
1.20771e-08
2.84235e-07
1.17235e-08
2.84272e-07
1.13701e-08
2.84308e-07
1.10125e-08
2.84343e-07
1.06469e-08
2.84378e-07
1.02675e-08
2.84414e-07
9.86696e-09
2.84451e-07
9.43966e-09
2.84491e-07
8.96822e-09
2.84535e-07
8.45173e-09
2.84582e-07
7.85072e-09
2.84637e-07
7.17559e-09
2.84692e-07
6.35084e-09
2.84757e-07
5.39995e-09
2.84809e-07
4.22405e-09
2.84861e-07
2.84969e-09
1.231e-09
2.8491e-07
2.82013e-07
3.62391e-08
2.851e-07
5.8927e-08
2.86337e-07
4.88551e-08
2.87364e-07
4.15814e-08
2.88196e-07
3.92272e-08
2.88704e-07
3.6568e-08
2.89066e-07
3.35209e-08
2.89386e-07
3.10941e-08
2.89667e-07
2.92366e-08
2.89907e-07
2.76477e-08
2.90117e-07
2.62266e-08
2.90305e-07
2.49617e-08
2.90476e-07
2.38344e-08
2.90633e-07
2.2819e-08
2.90776e-07
2.18948e-08
2.90909e-07
2.10476e-08
2.91032e-07
2.02664e-08
2.91147e-07
1.95425e-08
2.91254e-07
1.88684e-08
2.91355e-07
1.82381e-08
2.9145e-07
1.76464e-08
2.9154e-07
1.70888e-08
2.91625e-07
1.65614e-08
2.91705e-07
1.60611e-08
2.91782e-07
1.55849e-08
2.91855e-07
1.51301e-08
2.91924e-07
1.46946e-08
2.91991e-07
1.42764e-08
2.92054e-07
1.38734e-08
2.92116e-07
1.34839e-08
2.92175e-07
1.3106e-08
2.92232e-07
1.2738e-08
2.92288e-07
1.23776e-08
2.92343e-07
1.20226e-08
2.92396e-07
1.167e-08
2.92449e-07
1.13172e-08
2.92502e-07
1.09597e-08
2.92555e-07
1.05936e-08
2.92609e-07
1.02134e-08
2.92665e-07
9.81107e-09
2.92724e-07
9.3813e-09
2.92785e-07
8.90685e-09
2.92851e-07
8.38545e-09
2.92921e-07
7.78135e-09
2.92998e-07
7.09854e-09
2.93074e-07
6.27425e-09
2.93157e-07
5.3172e-09
2.9323e-07
4.15134e-09
2.93297e-07
2.78232e-09
1.16661e-09
2.93361e-07
2.90278e-07
3.28494e-08
2.93341e-07
5.58641e-08
2.94589e-07
4.76074e-08
2.95593e-07
4.05775e-08
2.96443e-07
3.83773e-08
2.96979e-07
3.60322e-08
2.97352e-07
3.31478e-08
2.97678e-07
3.07683e-08
2.97965e-07
2.89493e-08
2.98211e-07
2.7402e-08
2.98424e-07
2.60129e-08
2.98615e-07
2.47706e-08
2.98788e-07
2.36613e-08
2.98946e-07
2.26611e-08
2.99091e-07
2.17501e-08
2.99225e-07
2.0914e-08
2.99348e-07
2.01426e-08
2.99464e-07
1.94271e-08
2.99572e-07
1.87606e-08
2.99673e-07
1.8137e-08
2.99768e-07
1.75511e-08
2.99858e-07
1.69988e-08
2.99943e-07
1.64763e-08
3.00024e-07
1.59802e-08
3.00101e-07
1.55078e-08
3.00175e-07
1.50564e-08
3.00246e-07
1.46239e-08
3.00314e-07
1.42082e-08
3.0038e-07
1.38074e-08
3.00444e-07
1.34199e-08
3.00506e-07
1.30436e-08
3.00567e-07
1.26768e-08
3.00628e-07
1.23174e-08
3.00687e-07
1.1963e-08
3.00746e-07
1.16108e-08
3.00806e-07
1.12578e-08
3.00865e-07
1.08999e-08
3.00926e-07
1.05327e-08
3.00989e-07
1.01509e-08
3.01054e-07
9.74631e-09
3.01121e-07
9.31349e-09
3.01193e-07
8.83578e-09
3.01269e-07
8.30933e-09
3.01348e-07
7.70214e-09
3.01434e-07
7.0127e-09
3.01519e-07
6.18884e-09
3.01608e-07
5.22855e-09
3.01687e-07
4.07175e-09
3.01759e-07
2.711e-09
1.10107e-09
3.01824e-07
2.98815e-07
2.97366e-08
3.01842e-07
5.28379e-08
3.03108e-07
4.63407e-08
3.04089e-07
3.95972e-08
3.04951e-07
3.7515e-08
3.05515e-07
3.54682e-08
3.05901e-07
3.27618e-08
3.06232e-07
3.04369e-08
3.06526e-07
2.86558e-08
3.06777e-07
2.71506e-08
3.06995e-07
2.57951e-08
3.07189e-07
2.45766e-08
3.07364e-07
2.34858e-08
3.07524e-07
2.25015e-08
3.0767e-07
2.1604e-08
3.07805e-07
2.07795e-08
3.07929e-07
2.0018e-08
3.08045e-07
1.93113e-08
3.08153e-07
1.86524e-08
3.08255e-07
1.80356e-08
3.0835e-07
1.74558e-08
3.0844e-07
1.69089e-08
3.08525e-07
1.63912e-08
3.08606e-07
1.58994e-08
3.08683e-07
1.54308e-08
3.08756e-07
1.49827e-08
3.08827e-07
1.45531e-08
3.08896e-07
1.41399e-08
3.08962e-07
1.37412e-08
3.09026e-07
1.33554e-08
3.09089e-07
1.29805e-08
3.09151e-07
1.26148e-08
3.09213e-07
1.2256e-08
3.09274e-07
1.19021e-08
3.09335e-07
1.15499e-08
3.09396e-07
1.11965e-08
3.09458e-07
1.08379e-08
3.09521e-07
1.04693e-08
3.09587e-07
1.00857e-08
3.09654e-07
9.67864e-09
3.09725e-07
9.2426e-09
3.09799e-07
8.76168e-09
3.09878e-07
8.23042e-09
3.0996e-07
7.62039e-09
3.10047e-07
6.92561e-09
3.10133e-07
6.10246e-09
3.1022e-07
5.14157e-09
3.10299e-07
3.99369e-09
3.10366e-07
2.64385e-09
1.04366e-09
3.10423e-07
3.07634e-07
2.68902e-08
3.10611e-07
4.98603e-08
3.11904e-07
4.50481e-08
3.12861e-07
3.86405e-08
3.1373e-07
3.66457e-08
3.14322e-07
3.48764e-08
3.14722e-07
3.23615e-08
3.15059e-07
3.00997e-08
3.15359e-07
2.83561e-08
3.15616e-07
2.68931e-08
3.15839e-07
2.55728e-08
3.16036e-07
2.43794e-08
3.16214e-07
2.33079e-08
3.16375e-07
2.23398e-08
3.16523e-07
2.14562e-08
3.16659e-07
2.06437e-08
3.16784e-07
1.98925e-08
3.16901e-07
1.91948e-08
3.17009e-07
1.85438e-08
3.17111e-07
1.7934e-08
3.17206e-07
1.73604e-08
3.17296e-07
1.68191e-08
3.17381e-07
1.63062e-08
3.17462e-07
1.58188e-08
3.17539e-07
1.5354e-08
3.17612e-07
1.49094e-08
3.17682e-07
1.44826e-08
3.1775e-07
1.40719e-08
3.17816e-07
1.36753e-08
3.17881e-07
1.32911e-08
3.17943e-07
1.29176e-08
3.18005e-07
1.25529e-08
3.18067e-07
1.21948e-08
3.18127e-07
1.18412e-08
3.18188e-07
1.1489e-08
3.1825e-07
1.11351e-08
3.18312e-07
1.07756e-08
3.18376e-07
1.04057e-08
3.18441e-07
1.00202e-08
3.18509e-07
9.61087e-09
3.1858e-07
9.17174e-09
3.18653e-07
8.68788e-09
3.18732e-07
8.15236e-09
3.18812e-07
7.53996e-09
3.18896e-07
6.84132e-09
3.18979e-07
6.01948e-09
3.1906e-07
5.06049e-09
3.19132e-07
3.92215e-09
3.1919e-07
2.58589e-09
1.00034e-09
3.19233e-07
3.16743e-07
2.42981e-08
3.1966e-07
4.69434e-08
3.20984e-07
4.37244e-08
3.21918e-07
3.77063e-08
3.22789e-07
3.57745e-08
3.23408e-07
3.42579e-08
3.23824e-07
3.19452e-08
3.24168e-07
2.97562e-08
3.24473e-07
2.80503e-08
3.24737e-07
2.66294e-08
3.24964e-07
2.53457e-08
3.25165e-07
2.41787e-08
3.25345e-07
2.31272e-08
3.25509e-07
2.21759e-08
3.25659e-07
2.13068e-08
3.25796e-07
2.05066e-08
3.25923e-07
1.9766e-08
3.2604e-07
1.90775e-08
3.26149e-07
1.84347e-08
3.26251e-07
1.7832e-08
3.26347e-07
1.72649e-08
3.26436e-07
1.67291e-08
3.26521e-07
1.62214e-08
3.26602e-07
1.57384e-08
3.26678e-07
1.52775e-08
3.26751e-07
1.48363e-08
3.26821e-07
1.44125e-08
3.26889e-07
1.40043e-08
3.26954e-07
1.36098e-08
3.27018e-07
1.32274e-08
3.27081e-07
1.28552e-08
3.27142e-07
1.24915e-08
3.27203e-07
1.21341e-08
3.27263e-07
1.17808e-08
3.27324e-07
1.14286e-08
3.27384e-07
1.10743e-08
3.27446e-07
1.07141e-08
3.27509e-07
1.03428e-08
3.27573e-07
9.95564e-09
3.2764e-07
9.54423e-09
3.27709e-07
9.1023e-09
3.27781e-07
8.61592e-09
3.27857e-07
8.07689e-09
3.27934e-07
7.46276e-09
3.28013e-07
6.76184e-09
3.28091e-07
5.94223e-09
3.28164e-07
4.98752e-09
3.28226e-07
3.86004e-09
3.28271e-07
2.54022e-09
9.7472e-10
3.28297e-07
3.26154e-07
2.19469e-08
3.28998e-07
4.40989e-08
3.30357e-07
4.23658e-08
3.31271e-07
3.67926e-08
3.32139e-07
3.49063e-08
3.32782e-07
3.36144e-08
3.33216e-07
3.15114e-08
3.33566e-07
2.94059e-08
3.33878e-07
2.77386e-08
3.34148e-07
2.63592e-08
3.34381e-07
2.51135e-08
3.34585e-07
2.39743e-08
3.34769e-07
2.29436e-08
3.34935e-07
2.20096e-08
3.35086e-07
2.11553e-08
3.35225e-07
2.03679e-08
3.35353e-07
1.96383e-08
3.35471e-07
1.89593e-08
3.35581e-07
1.83248e-08
3.35683e-07
1.77296e-08
3.35779e-07
1.71689e-08
3.35869e-07
1.6639e-08
3.35954e-07
1.61364e-08
3.36035e-07
1.56581e-08
3.36111e-07
1.52012e-08
3.36184e-07
1.47635e-08
3.36254e-07
1.43427e-08
3.36321e-07
1.39371e-08
3.36386e-07
1.35447e-08
3.36449e-07
1.3164e-08
3.36511e-07
1.27933e-08
3.36572e-07