/*--------------------------------*- C++ -*----------------------------------*\
  =========                 |
  \\      /  F ield         | OpenFOAM: The Open Source CFD Toolbox
   \\    /   O peration     | Website:  https://openfoam.org
    \\  /    A nd           | Version:  7
     \\/     M anipulation  |
\*---------------------------------------------------------------------------*/
FoamFile
{
    version     2.0;
    format      ascii;
    class       volVectorField;
    location    "0.44";
    object      U_0;
}
// * * * * * * * * * * * * * * * * * * * * * * * * * * * * * * * * * * * * * //

dimensions      [0 1 -1 0 0 0 0];

internalField   nonuniform List<vector> 
70000
(
(0.553391 0.016723 0)
(0.251263 0.00340098 0)
(0.166204 0.00032198 0)
(0.132458 5.42574e-05 0)
(0.117266 4.56982e-05 0)
(0.107341 5.38775e-05 0)
(0.0993903 4.62486e-05 0)
(0.0929472 3.69147e-05 0)
(0.0876992 3.06061e-05 0)
(0.0833262 2.62836e-05 0)
(0.0796003 2.29882e-05 0)
(0.0763736 2.03469e-05 0)
(0.0735448 1.81902e-05 0)
(0.0710402 1.64053e-05 0)
(0.0688035 1.49086e-05 0)
(0.0667914 1.36381e-05 0)
(0.0649698 1.25478e-05 0)
(0.0633114 1.16027e-05 0)
(0.0617942 1.07761e-05 0)
(0.0604001 1.00468e-05 0)
(0.0591142 9.39828e-06 0)
(0.0579241 8.817e-06 0)
(0.0568192 8.29189e-06 0)
(0.0557906 7.81378e-06 0)
(0.0548309 7.37482e-06 0)
(0.0539335 6.96839e-06 0)
(0.0530928 6.58819e-06 0)
(0.0523043 6.22945e-06 0)
(0.0515636 5.88574e-06 0)
(0.0508675 5.55403e-06 0)
(0.0502129 5.22606e-06 0)
(0.0495973 4.90061e-06 0)
(0.049019 4.56616e-06 0)
(0.0484764 4.22157e-06 0)
(0.0479684 3.85523e-06 0)
(0.047495 3.45369e-06 0)
(0.0470551 3.02977e-06 0)
(0.0466521 2.50069e-06 0)
(0.0462823 2.01e-06 0)
(0.0459578 1.20242e-06 0)
(0.0456647 7.01488e-07 0)
(0.0454383 -7.2399e-07 0)
(0.0452341 -1.00945e-06 0)
(0.0451436 -3.79382e-06 0)
(0.0450517 -3.33603e-06 0)
(0.0451568 -9.07069e-06 0)
(0.0452473 -6.3682e-06 0)
(0.0455528 -1.75277e-05 0)
(0.0464551 1.01906e-05 0)
(0.0422473 -0.00175367 0)
(0.884899 0.0431673 0)
(0.649718 0.020194 0)
(0.494325 0.00659833 0)
(0.403669 0.00276776 0)
(0.354741 0.00155234 0)
(0.323432 0.00113211 0)
(0.299563 0.000911084 0)
(0.280354 0.000747326 0)
(0.264625 0.000624596 0)
(0.251487 0.000533941 0)
(0.240288 0.000465121 0)
(0.230589 0.000410958 0)
(0.222083 0.000367183 0)
(0.214548 0.000331138 0)
(0.207816 0.000301017 0)
(0.201757 0.000275524 0)
(0.196268 0.000253707 0)
(0.191269 0.000234849 0)
(0.186693 0.000218404 0)
(0.182487 0.000203947 0)
(0.178604 0.000191143 0)
(0.175008 0.000179728 0)
(0.171667 0.000169484 0)
(0.168554 0.000160235 0)
(0.165647 0.000151835 0)
(0.162926 0.000144159 0)
(0.160373 0.000137102 0)
(0.157975 0.000130572 0)
(0.155719 0.000124484 0)
(0.153593 0.000118767 0)
(0.151589 0.000113339 0)
(0.149698 0.000108146 0)
(0.147913 0.00010309 0)
(0.14623 9.8129e-05 0)
(0.144643 9.31327e-05 0)
(0.143151 8.80572e-05 0)
(0.14175 8.27376e-05 0)
(0.140445 7.7051e-05 0)
(0.139226 7.09115e-05 0)
(0.138121 6.3778e-05 0)
(0.137091 5.62041e-05 0)
(0.136224 4.60181e-05 0)
(0.135402 3.6472e-05 0)
(0.134857 1.97144e-05 0)
(0.134287 8.81593e-06 0)
(0.134195 -2.38781e-05 0)
(0.134049 -2.5158e-05 0)
(0.134371 -0.000136699 0)
(0.136083 0.000151872 0)
(0.130972 -0.00311326 0)
(0.991237 0.0499013 0)
(0.89035 0.0307187 0)
(0.76269 0.0145979 0)
(0.656681 0.00798026 0)
(0.585352 0.004886 0)
(0.535939 0.00347283 0)
(0.498057 0.0027379 0)
(0.467416 0.00224611 0)
(0.442073 0.0018834 0)
(0.42073 0.00161214 0)
(0.402442 0.00140495 0)
(0.386542 0.00124187 0)
(0.372555 0.00111016 0)
(0.360132 0.00100171 0)
(0.349008 0.000911066 0)
(0.338977 0.000834328 0)
(0.329877 0.00076864 0)
(0.321575 0.000711852 0)
(0.313966 0.000662327 0)
(0.306962 0.000618794 0)
(0.300491 0.000580251 0)
(0.294492 0.000545902 0)
(0.288912 0.000515102 0)
(0.283709 0.000487325 0)
(0.278844 0.000462133 0)
(0.274286 0.000439163 0)
(0.270007 0.0004181 0)
(0.265981 0.00039868 0)
(0.262188 0.000380657 0)
(0.25861 0.000363828 0)
(0.255231 0.000347972 0)
(0.252036 0.000332931 0)
(0.249014 0.00031846 0)
(0.246155 0.000304442 0)
(0.243451 0.000290541 0)
(0.240897 0.000276691 0)
(0.238484 0.000262375 0)
(0.236219 0.000247558 0)
(0.234084 0.000231497 0)
(0.232117 0.000213921 0)
(0.23026 0.00019428 0)
(0.228635 0.000170613 0)
(0.227069 0.000145275 0)
(0.225889 0.000107986 0)
(0.224662 7.7215e-05 0)
(0.224088 3.82451e-06 0)
(0.223429 -5.75884e-06 0)
(0.223402 -0.000262894 0)
(0.224877 0.000141695 0)
(0.221404 -0.00337674 0)
(1.0156 0.0489202 0)
(1.00596 0.0358749 0)
(0.935956 0.0207921 0)
(0.852128 0.0135054 0)
(0.782187 0.00920985 0)
(0.726981 0.00678428 0)
(0.681883 0.00538763 0)
(0.644102 0.00444954 0)
(0.61205 0.00375676 0)
(0.584541 0.00323172 0)
(0.56064 0.00282603 0)
(0.539642 0.00250454 0)
(0.521018 0.00224376 0)
(0.504367 0.00202831 0)
(0.489375 0.00184767 0)
(0.475793 0.00169436 0)
(0.463422 0.00156283 0)
(0.452099 0.00144891 0)
(0.44169 0.00134941 0)
(0.432084 0.00126183 0)
(0.423187 0.00118421 0)
(0.414922 0.00111498 0)
(0.407221 0.00105287 0)
(0.400027 0.000996843 0)
(0.39329 0.000946034 0)
(0.386968 0.000899724 0)
(0.381023 0.000857297 0)
(0.375423 0.00081823 0)
(0.370139 0.000782049 0)
(0.365147 0.000748355 0)
(0.360425 0.000716737 0)
(0.355953 0.000686882 0)
(0.351715 0.000658353 0)
(0.347698 0.000630925 0)
(0.343888 0.000603999 0)
(0.340278 0.000577494 0)
(0.336856 0.000550403 0)
(0.333627 0.000522927 0)
(0.330567 0.000493271 0)
(0.32772 0.000461983 0)
(0.325012 0.000426331 0)
(0.322587 0.000386037 0)
(0.320237 0.000340085 0)
(0.318339 0.000278723 0)
(0.316392 0.000221636 0)
(0.31519 0.000100886 0)
(0.313877 7.24908e-05 0)
(0.313371 -0.000323178 0)
(0.313966 6.38164e-05 0)
(0.311905 -0.00323175 0)
(1.01434 0.0460036 0)
(1.04753 0.0374885 0)
(1.02458 0.0241521 0)
(0.974761 0.0175606 0)
(0.923447 0.0131249 0)
(0.876669 0.0102101 0)
(0.834495 0.00834807 0)
(0.796727 0.00702861 0)
(0.763135 0.00602026 0)
(0.73328 0.00523396 0)
(0.706653 0.00461285 0)
(0.682783 0.00411279 0)
(0.661274 0.00370238 0)
(0.641795 0.00336018 0)
(0.62407 0.00307111 0)
(0.60787 0.00282423 0)
(0.593003 0.00261131 0)
(0.579308 0.00242607 0)
(0.566648 0.00226365 0)
(0.554908 0.00212022 0)
(0.543989 0.00199275 0)
(0.533806 0.00187878 0)
(0.524286 0.00177632 0)
(0.515365 0.00168374 0)
(0.506988 0.00159967 0)
(0.499106 0.00152297 0)
(0.491678 0.00145265 0)
(0.484665 0.0013879 0)
(0.478034 0.00132795 0)
(0.471757 0.00127217 0)
(0.465807 0.00121992 0)
(0.460162 0.0011707 0)
(0.454802 0.00112386 0)
(0.44971 0.00107901 0)
(0.44487 0.00103529 0)
(0.440273 0.000992575 0)
(0.435903 0.000949308 0)
(0.431763 0.000905995 0)
(0.427828 0.000859586 0)
(0.424139 0.000811713 0)
(0.42062 0.000756962 0)
(0.417416 0.000697383 0)
(0.414312 0.000627613 0)
(0.411691 0.000539537 0)
(0.409042 0.000452405 0)
(0.407175 0.000282797 0)
(0.405181 0.000223506 0)
(0.40416 -0.000283876 0)
(0.403759 -7.19183e-06 0)
(0.402286 -0.00297659 0)
(1.00933 0.042915 0)
(1.05528 0.0372637 0)
(1.05869 0.0252963 0)
(1.03637 0.0197604 0)
(1.0071 0.0158143 0)
(0.976049 0.0129406 0)
(0.944514 0.0109667 0)
(0.91363 0.00948699 0)
(0.884248 0.00829888 0)
(0.856753 0.00733303 0)
(0.831225 0.00654454 0)
(0.807602 0.00589333 0)
(0.785764 0.00534808 0)
(0.765571 0.00488604 0)
(0.746876 0.00449055 0)
(0.72954 0.00414902 0)
(0.713434 0.00385172 0)
(0.69844 0.00359102 0)
(0.684452 0.00336086 0)
(0.671377 0.00315641 0)
(0.65913 0.00297376 0)
(0.647639 0.00280973 0)
(0.636835 0.00266168 0)
(0.626662 0.00252744 0)
(0.617065 0.00240518 0)
(0.608 0.00229336 0)
(0.599424 0.00219064 0)
(0.5913 0.00209587 0)
(0.583595 0.00200804 0)
(0.576278 0.00192625 0)
(0.569324 0.00184964 0)
(0.562709 0.0017775 0)
(0.556413 0.00170895 0)
(0.550415 0.00164348 0)
(0.544701 0.00157988 0)
(0.539258 0.00151803 0)
(0.534071 0.00145579 0)
(0.529142 0.00139396 0)
(0.524443 0.00132823 0)
(0.520013 0.00126128 0)
(0.51578 0.00118507 0)
(0.511878 0.00110381 0)
(0.508105 0.00100802 0)
(0.504822 0.000891037 0)
(0.501544 0.000770975 0)
(0.49905 0.000553126 0)
(0.496435 0.000450527 0)
(0.494883 -0.000142742 0)
(0.493642 -1.7969e-05 0)
(0.492206 -0.00264873 0)
(1.00625 0.0400335 0)
(1.05206 0.0363361 0)
(1.06609 0.0252254 0)
(1.0596 0.02056 0)
(1.04688 0.0172411 0)
(1.0308 0.0146608 0)
(1.01189 0.0128272 0)
(0.991199 0.0114052 0)
(0.969768 0.0102116 0)
(0.948332 0.00919857 0)
(0.927336 0.00834051 0)
(0.907043 0.00760956 0)
(0.8876 0.00698137 0)
(0.869078 0.0064372 0)
(0.851497 0.00596264 0)
(0.834846 0.00554625 0)
(0.819094 0.00517879 0)
(0.804198 0.00485275 0)
(0.790112 0.00456194 0)
(0.776788 0.0043013 0)
(0.764176 0.0040666 0)
(0.752232 0.00385435 0)
(0.740909 0.00366159 0)
(0.730167 0.00348585 0)
(0.719967 0.00332502 0)
(0.710272 0.00317727 0)
(0.70105 0.00304103 0)
(0.692269 0.00291493 0)
(0.683903 0.00279773 0)
(0.675925 0.00268834 0)
(0.668312 0.00258569 0)
(0.661043 0.00248892 0)
(0.654099 0.00239691 0)
(0.647463 0.00230904 0)
(0.64112 0.00222382 0)
(0.63506 0.00214107 0)
(0.629266 0.00205814 0)
(0.623741 0.00197604 0)
(0.61846 0.00188936 0)
(0.613457 0.00180158 0)
(0.608667 0.00170244 0)
(0.604209 0.0015977 0)
(0.599907 0.00147456 0)
(0.596081 0.00132707 0)
(0.592299 0.001172 0)
(0.589267 0.000907033 0)
(0.586156 0.000752209 0)
(0.584089 8.83681e-05 0)
(0.582215 4.78929e-05 0)
(0.580574 -0.00225495 0)
(1.00495 0.0373555 0)
(1.04727 0.035254 0)
(1.06398 0.0246853 0)
(1.06426 0.0205861 0)
(1.06068 0.0177787 0)
(1.05475 0.0155035 0)
(1.046 0.0138851 0)
(1.0348 0.0126285 0)
(1.02188 0.0115466 0)
(1.00783 0.0105975 0)
(0.993112 0.00976791 0)
(0.978081 0.00904034 0)
(0.963002 0.0083981 0)
(0.94807 0.00782811 0)
(0.933421 0.00732019 0)
(0.919148 0.00686592 0)
(0.905312 0.00645819 0)
(0.891947 0.00609095 0)
(0.879072 0.00575902 0)
(0.866691 0.00545796 0)
(0.854802 0.00518399 0)
(0.843394 0.00493387 0)
(0.832455 0.00470478 0)
(0.821968 0.00449431 0)
(0.811916 0.00430035 0)
(0.80228 0.00412107 0)
(0.793043 0.00395482 0)
(0.784186 0.00380017 0)
(0.775692 0.00365578 0)
(0.767544 0.00352048 0)
(0.759725 0.00339308 0)
(0.752221 0.00327259 0)
(0.745018 0.0031578 0)
(0.738104 0.00304794 0)
(0.731467 0.00294132 0)
(0.725098 0.00283772 0)
(0.718988 0.00273403 0)
(0.713137 0.00263143 0)
(0.707525 0.00252358 0)
(0.702182 0.00241446 0)
(0.697056 0.00229216 0)
(0.692247 0.0021632 0)
(0.687608 0.00201256 0)
(0.683414 0.00183387 0)
(0.679301 0.00164314 0)
(0.67587 0.00133251 0)
(0.67243 0.00112005 0)
(0.669929 0.000398562 0)
(0.667614 0.000190795 0)
(0.66571 -0.00181493 0)
(1.0044 0.0348075 0)
(1.04324 0.0341807 0)
(1.05994 0.0240441 0)
(1.06229 0.020292 0)
(1.0625 0.0178423 0)
(1.06181 0.0157844 0)
(1.05925 0.0143396 0)
(1.0547 0.0132487 0)
(1.04848 0.0123097 0)
(1.0409 0.0114735 0)
(1.03224 0.0107292 0)
(1.02275 0.0100633 0)
(1.01267 0.00946309 0)
(1.00218 0.00891904 0)
(0.991456 0.0084243 0)
(0.980627 0.0079733 0)
(0.969798 0.0075613 0)
(0.959048 0.00718413 0)
(0.94844 0.0068381 0)
(0.93802 0.00651995 0)
(0.927822 0.0062268 0)
(0.917871 0.0059561 0)
(0.908181 0.00570557 0)
(0.898763 0.00547321 0)
(0.889624 0.0052572 0)
(0.880763 0.00505592 0)
(0.87218 0.00486793 0)
(0.863873 0.00469186 0)
(0.855837 0.00452647 0)
(0.848066 0.0043706 0)
(0.840554 0.0042231 0)
(0.833295 0.00408295 0)
(0.826283 0.00394887 0)
(0.819512 0.00382007 0)
(0.812976 0.0036947 0)
(0.806671 0.00357252 0)
(0.800592 0.0034501 0)
(0.794742 0.00332867 0)
(0.789108 0.00320126 0)
(0.783715 0.00307199 0)
(0.778524 0.00292793 0)
(0.77362 0.00277549 0)
(0.768885 0.00259874 0)
(0.764545 0.00238946 0)
(0.760316 0.00216414 0)
(0.756676 0.0018103 0)
(0.753099 0.00153773 0)
(0.750313 0.000774079 0)
(0.747737 0.000405475 0)
(0.745624 -0.0013507 0)
(1.00402 0.0323674 0)
(1.03991 0.0331305 0)
(1.05617 0.0234209 0)
(1.05893 0.0199036 0)
(1.06023 0.0177115 0)
(1.06158 0.0157882 0)
(1.06196 0.0144445 0)
(1.06108 0.0134688 0)
(1.05902 0.0126461 0)
(1.05589 0.0119164 0)
(1.05179 0.0112658 0)
(1.04683 0.0106807 0)
(1.04113 0.0101481 0)
(1.03482 0.0096592 0)
(1.02801 0.00920827 0)
(1.02082 0.00879107 0)
(1.01334 0.00840423 0)
(1.00566 0.00804489 0)
(0.997853 0.00771056 0)
(0.989976 0.00739901 0)
(0.982081 0.00710829 0)
(0.974211 0.0068366 0)
(0.966399 0.00658232 0)
(0.958674 0.00634398 0)
(0.951057 0.00612024 0)
(0.943565 0.00590984 0)
(0.936213 0.00571163 0)
(0.92901 0.00552451 0)
(0.921965 0.00534742 0)
(0.915082 0.00517936 0)
(0.908365 0.00501928 0)
(0.901818 0.00486624 0)
(0.895441 0.00471898 0)
(0.889237 0.00457675 0)
(0.883205 0.00443762 0)
(0.877348 0.00430136 0)
(0.871666 0.00416434 0)
(0.866164 0.00402776 0)
(0.860837 0.00388428 0)
(0.855708 0.00373784 0)
(0.850749 0.00357517 0)
(0.846032 0.00340167 0)
(0.84147 0.00320187 0)
(0.837237 0.00296427 0)
(0.833132 0.00270707 0)
(0.829506 0.00231412 0)
(0.825999 0.00198245 0)
(0.823126 0.00118822 0)
(0.820474 0.000675268 0)
(0.818271 -0.000884431 0)
(1.00364 0.030027 0)
(1.03692 0.0320828 0)
(1.05282 0.0228309 0)
(1.05569 0.019498 0)
(1.05713 0.0175191 0)
(1.05904 0.0156876 0)
(1.06049 0.0143913 0)
(1.06119 0.0134786 0)
(1.0612 0.0127298 0)
(1.06055 0.0120747 0)
(1.05924 0.011497 0)
(1.05729 0.0109815 0)
(1.05471 0.0105138 0)
(1.05158 0.0100841 0)
(1.04793 0.00968587 0)
(1.04384 0.0093149 0)
(1.03936 0.00896798 0)
(1.03456 0.0086426 0)
(1.02949 0.00833675 0)
(1.0242 0.00804872 0)
(1.01874 0.00777706 0)
(1.01315 0.00752049 0)
(1.00747 0.00727787 0)
(1.00173 0.00704817 0)
(0.995961 0.00683044 0)
(0.990183 0.00662379 0)
(0.984419 0.00642736 0)
(0.978687 0.00624034 0)
(0.973003 0.0060619 0)
(0.967379 0.00589124 0)
(0.961826 0.00572745 0)
(0.956354 0.00556974 0)
(0.95097 0.00541692 0)
(0.945683 0.00526829 0)
(0.940497 0.00512195 0)
(0.93542 0.00497765 0)
(0.930456 0.00483169 0)
(0.925615 0.00468516 0)
(0.920896 0.00453062 0)
(0.916323 0.0043715 0)
(0.911877 0.00419481 0)
(0.907617 0.00400419 0)
(0.903485 0.00378579 0)
(0.899611 0.00352379 0)
(0.895862 0.00323879 0)
(0.892484 0.00281265 0)
(0.889251 0.00242555 0)
(0.886503 0.00161145 0)
(0.883964 0.000975839 0)
(0.881821 -0.000437387 0)
(1.00327 0.0277872 0)
(1.03409 0.031024 0)
(1.04971 0.0222674 0)
(1.05273 0.0190905 0)
(1.05413 0.0173078 0)
(1.05609 0.0155578 0)
(1.05782 0.0142834 0)
(1.05904 0.013401 0)
(1.05986 0.0126929 0)
(1.06033 0.0120814 0)
(1.06041 0.0115491 0)
(1.0601 0.0110807 0)
(1.05938 0.0106607 0)
(1.05826 0.0102779 0)
(1.05674 0.00992503 0)
(1.05486 0.00959696 0)
(1.05263 0.00929006 0)
(1.05008 0.00900153 0)
(1.04724 0.00872921 0)
(1.04415 0.0084714 0)
(1.04083 0.00822672 0)
(1.03732 0.00799401 0)
(1.03364 0.00777232 0)
(1.02982 0.00756079 0)
(1.02589 0.00735869 0)
(1.02186 0.00716533 0)
(1.01777 0.00698008 0)
(1.01362 0.00680229 0)
(1.00943 0.00663134 0)
(1.00523 0.00646657 0)
(1.00102 0.00630722 0)
(0.99681 0.0061526 0)
(0.992621 0.00600163 0)
(0.98846 0.00585367 0)
(0.984335 0.00570683 0)
(0.980256 0.00556087 0)
(0.976231 0.00541207 0)
(0.972272 0.00526132 0)
(0.968383 0.00510134 0)
(0.964583 0.00493473 0)
(0.960867 0.00474936 0)
(0.957278 0.00454647 0)
(0.953784 0.00431466 0)
(0.950475 0.00403342 0)
(0.947276 0.00372556 0)
(0.944348 0.0032734 0)
(0.941562 0.00283689 0)
(0.939132 0.00201268 0)
(0.936877 0.00127823 0)
(0.934946 -3.07926e-05 0)
(1.00292 0.0256514 0)
(1.03138 0.0299495 0)
(1.04671 0.021726 0)
(1.04994 0.0186808 0)
(1.05132 0.0170844 0)
(1.05324 0.0154208 0)
(1.055 0.0141618 0)
(1.05634 0.013295 0)
(1.05739 0.01261 0)
(1.05825 0.0120227 0)
(1.05889 0.0115153 0)
(1.05932 0.0110739 0)
(1.05951 0.010683 0)
(1.05946 0.0103307 0)
(1.05915 0.0100092 0)
(1.05859 0.00971274 0)
(1.05779 0.00943714 0)
(1.05674 0.00917917 0)
(1.05546 0.00893632 0)
(1.05396 0.00870661 0)
(1.05225 0.00848845 0)
(1.05036 0.00828058 0)
(1.04829 0.00808195 0)
(1.04606 0.0078917 0)
(1.04369 0.00770909 0)
(1.0412 0.00753347 0)
(1.0386 0.00736425 0)
(1.0359 0.00720089 0)
(1.03312 0.0070428 0)
(1.03027 0.00688944 0)
(1.02737 0.00674011 0)
(1.02443 0.00659418 0)
(1.02146 0.00645061 0)
(1.01846 0.00630881 0)
(1.01545 0.00616689 0)
(1.01244 0.00602457 0)
(1.00944 0.00587818 0)
(1.00645 0.00572831 0)
(1.0035 0.00556798 0)
(1.00058 0.00539878 0)
(0.997706 0.00520977 0)
(0.994908 0.00499949 0)
(0.992173 0.00475933 0)
(0.989559 0.0044644 0)
(0.987033 0.00413877 0)
(0.98469 0.00366814 0)
(0.982471 0.00318982 0)
(0.980498 0.00236364 0)
(0.978656 0.00155432 0)
(0.977059 0.000315075 0)
(1.0026 0.0236223 0)
(1.02879 0.0288579 0)
(1.04379 0.0212056 0)
(1.04725 0.0182691 0)
(1.04864 0.0168475 0)
(1.05052 0.0152793 0)
(1.05227 0.0140376 0)
(1.05362 0.0131816 0)
(1.05471 0.0125131 0)
(1.05566 0.0119411 0)
(1.05648 0.0114476 0)
(1.05717 0.0110208 0)
(1.05773 0.010646 0)
(1.05814 0.0103112 0)
(1.05841 0.0100084 0)
(1.05853 0.00973173 0)
(1.05849 0.00947669 0)
(1.0583 0.00923978 0)
(1.05795 0.00901821 0)
(1.05744 0.00880975 0)
(1.05678 0.00861259 0)
(1.05597 0.00842525 0)
(1.05503 0.00824654 0)
(1.05394 0.00807544 0)
(1.05273 0.00791112 0)
(1.0514 0.00775285 0)
(1.04996 0.00759999 0)
(1.04843 0.00745197 0)
(1.0468 0.00730819 0)
(1.04509 0.0071681 0)
(1.04331 0.007031 0)
(1.04146 0.00689628 0)
(1.03956 0.00676288 0)
(1.03762 0.00663019 0)
(1.03563 0.00649633 0)
(1.03362 0.0063609 0)
(1.03158 0.00622032 0)
(1.02953 0.00607476 0)
(1.02748 0.00591772 0)
(1.02543 0.00574955 0)
(1.0234 0.00556074 0)
(1.02141 0.0053471 0)
(1.01945 0.00510266 0)
(1.01757 0.00479904 0)
(1.01575 0.00446018 0)
(1.01404 0.00397794 0)
(1.01243 0.00346589 0)
(1.01098 0.00264399 0)
(1.00962 0.00178146 0)
(1.00843 0.000586734 0)
(1.0023 0.0217016 0)
(1.02634 0.0277502 0)
(1.04096 0.0207044 0)
(1.04464 0.0178567 0)
(1.04605 0.0165957 0)
(1.0479 0.0151317 0)
(1.04965 0.0139119 0)
(1.05099 0.013066 0)
(1.05208 0.0124122 0)
(1.05303 0.0118529 0)
(1.05388 0.0113692 0)
(1.05464 0.0109513 0)
(1.0553 0.0105857 0)
(1.05589 0.0102607 0)
(1.05638 0.00996841 0)
(1.05679 0.00970295 0)
(1.0571 0.00945992 0)
(1.05732 0.00923573 0)
(1.05745 0.0090275 0)
(1.05747 0.00883285 0)
(1.0574 0.00864985 0)
(1.05723 0.00847689 0)
(1.05696 0.00831262 0)
(1.05659 0.00815592 0)
(1.05613 0.00800582 0)
(1.05557 0.0078615 0)
(1.05494 0.00772222 0)
(1.05421 0.00758734 0)
(1.05341 0.00745621 0)
(1.05254 0.00732821 0)
(1.0516 0.00720262 0)
(1.0506 0.00707878 0)
(1.04953 0.00695558 0)
(1.04842 0.00683238 0)
(1.04727 0.00670725 0)
(1.04607 0.00657965 0)
(1.04484 0.00644608 0)
(1.04359 0.00630625 0)
(1.04232 0.00615417 0)
(1.04103 0.00598893 0)
(1.03975 0.00580245 0)
(1.03848 0.00558804 0)
(1.03723 0.00534188 0)
(1.03601 0.0050333 0)
(1.03484 0.00468463 0)
(1.03374 0.00419618 0)
(1.03271 0.00365796 0)
(1.03178 0.00284443 0)
(1.03089 0.00194675 0)
(1.03012 0.000778932 0)
(1.00203 0.0198902 0)
(1.02402 0.0266295 0)
(1.03822 0.0202194 0)
(1.04212 0.0174455 0)
(1.04355 0.0163292 0)
(1.04538 0.0149767 0)
(1.04712 0.0137842 0)
(1.04846 0.0129484 0)
(1.04953 0.0123093 0)
(1.05047 0.0117625 0)
(1.05131 0.0112877 0)
(1.05208 0.0108768 0)
(1.05276 0.0105177 0)
(1.05338 0.0101991 0)
(1.05394 0.00991314 0)
(1.05445 0.00965423 0)
(1.05489 0.00941806 0)
(1.05528 0.00920115 0)
(1.05561 0.00900063 0)
(1.05588 0.00881413 0)
(1.05609 0.00863968 0)
(1.05624 0.00847563 0)
(1.05632 0.00832057 0)
(1.05634 0.00817329 0)
(1.05631 0.00803276 0)
(1.05621 0.00789808 0)
(1.05605 0.00776844 0)
(1.05583 0.00764313 0)
(1.05555 0.00752144 0)
(1.05522 0.00740271 0)
(1.05484 0.00728613 0)
(1.05441 0.00717103 0)
(1.05393 0.00705624 0)
(1.05341 0.00694101 0)
(1.05285 0.00682342 0)
(1.05226 0.00670273 0)
(1.05163 0.00657556 0)
(1.05098 0.0064411 0)
(1.05031 0.0062939 0)
(1.04962 0.00613185 0)
(1.04893 0.00594813 0)
(1.04824 0.00573396 0)
(1.04755 0.00548708 0)
(1.04689 0.00517577 0)
(1.04626 0.00481938 0)
(1.04567 0.0043283 0)
(1.04513 0.00377028 0)
(1.04464 0.00296708 0)
(1.04417 0.0020481 0)
(1.04377 0.00089548 0)
(1.00179 0.0181883 0)
(1.02183 0.0254996 0)
(1.03558 0.0197468 0)
(1.03968 0.0170375 0)
(1.04115 0.0160487 0)
(1.04294 0.0148133 0)
(1.04468 0.013654 0)
(1.04602 0.0128286 0)
(1.04709 0.0122042 0)
(1.04801 0.0116707 0)
(1.04884 0.0112049 0)
(1.04959 0.0108008 0)
(1.05027 0.0104475 0)
(1.05089 0.0101341 0)
(1.05146 0.00985287 0)
(1.05198 0.00959847 0)
(1.05246 0.00936674 0)
(1.05289 0.0091543 0)
(1.05329 0.00895837 0)
(1.05365 0.00877664 0)
(1.05398 0.00860717 0)
(1.05426 0.00844832 0)
(1.05451 0.00829868 0)
(1.05471 0.00815703 0)
(1.05488 0.0080223 0)
(1.05501 0.00789357 0)
(1.0551 0.00776999 0)
(1.05516 0.0076508 0)
(1.05518 0.00753525 0)
(1.05516 0.00742266 0)
(1.05511 0.00731217 0)
(1.05502 0.00720306 0)
(1.0549 0.00709413 0)
(1.05475 0.00698456 0)
(1.05458 0.0068724 0)
(1.05437 0.00675671 0)
(1.05415 0.00663427 0)
(1.0539 0.00650374 0)
(1.05364 0.00636019 0)
(1.05337 0.00620041 0)
(1.05309 0.00601867 0)
(1.05282 0.0058046 0)
(1.05255 0.00555676 0)
(1.05229 0.00524359 0)
(1.05206 0.0048805 0)
(1.05186 0.00438866 0)
(1.05168 0.00381581 0)
(1.05154 0.0030231 0)
(1.05139 0.00209275 0)
(1.05128 0.000947865 0)
(1.00157 0.0165955 0)
(1.01979 0.0243644 0)
(1.03305 0.0192825 0)
(1.03733 0.0166343 0)
(1.03884 0.0157554 0)
(1.04059 0.0146409 0)
(1.04232 0.0135209 0)
(1.04367 0.0127066 0)
(1.04473 0.0120967 0)
(1.04564 0.0115771 0)
(1.04645 0.011121 0)
(1.04719 0.0107239 0)
(1.04786 0.0103763 0)
(1.04847 0.0100679 0)
(1.04903 0.0097911 0)
(1.04954 0.00954058 0)
(1.05002 0.00931239 0)
(1.05047 0.00910328 0)
(1.05088 0.00891055 0)
(1.05126 0.00873197 0)
(1.05162 0.00856564 0)
(1.05195 0.00840997 0)
(1.05225 0.00826357 0)
(1.05253 0.00812523 0)
(1.05278 0.00799389 0)
(1.05301 0.00786861 0)
(1.05322 0.00774854 0)
(1.0534 0.00763291 0)
(1.05356 0.00752095 0)
(1.0537 0.00741196 0)
(1.05381 0.00730507 0)
(1.05391 0.00719953 0)
(1.05399 0.00709411 0)
(1.05405 0.00698791 0)
(1.05409 0.00687902 0)
(1.05411 0.00676628 0)
(1.05412 0.00664664 0)
(1.05412 0.00651827 0)
(1.05412 0.00637671 0)
(1.0541 0.00621784 0)
(1.05409 0.00603673 0)
(1.05408 0.00582197 0)
(1.05408 0.00557227 0)
(1.05409 0.00525725 0)
(1.05412 0.00488778 0)
(1.05417 0.0043958 0)
(1.05425 0.00381183 0)
(1.05433 0.00302869 0)
(1.05441 0.00209347 0)
(1.05449 0.0009524 0)
(1.00137 0.015111 0)
(1.01788 0.0232279 0)
(1.03062 0.0188226 0)
(1.03507 0.0162374 0)
(1.03662 0.0154508 0)
(1.03833 0.0144587 0)
(1.04006 0.0133846 0)
(1.04141 0.0125824 0)
(1.04246 0.0119869 0)
(1.04336 0.0114817 0)
(1.04416 0.0110358 0)
(1.04489 0.010646 0)
(1.04554 0.0103044 0)
(1.04614 0.0100012 0)
(1.04669 0.00972873 0)
(1.04719 0.009482 0)
(1.04766 0.00925715 0)
(1.0481 0.00905104 0)
(1.04851 0.00886104 0)
(1.04889 0.008685 0)
(1.04925 0.00852106 0)
(1.04958 0.00836767 0)
(1.0499 0.00822348 0)
(1.0502 0.00808729 0)
(1.05048 0.00795806 0)
(1.05074 0.00783486 0)
(1.05099 0.00771682 0)
(1.05122 0.0076032 0)
(1.05143 0.00749321 0)
(1.05164 0.00738616 0)
(1.05183 0.00728117 0)
(1.05201 0.00717747 0)
(1.05218 0.00707383 0)
(1.05233 0.00696928 0)
(1.05248 0.00686196 0)
(1.05262 0.0067505 0)
(1.05276 0.00663201 0)
(1.05289 0.00650427 0)
(1.05302 0.00636317 0)
(1.05315 0.00620391 0)
(1.05328 0.00602207 0)
(1.05342 0.00580573 0)
(1.05357 0.00555317 0)
(1.05374 0.00523592 0)
(1.05392 0.00486017 0)
(1.05412 0.00436798 0)
(1.05434 0.00377574 0)
(1.05456 0.0030007 0)
(1.05477 0.00206487 0)
(1.05496 0.000925629 0)
(1.0012 0.0137331 0)
(1.0161 0.0220943 0)
(1.0283 0.0183634 0)
(1.03289 0.015848 0)
(1.0345 0.0151365 0)
(1.03616 0.0142664 0)
(1.03788 0.0132445 0)
(1.03924 0.0124559 0)
(1.04028 0.0118745 0)
(1.04117 0.0113843 0)
(1.04196 0.0109493 0)
(1.04268 0.0105672 0)
(1.04332 0.0102318 0)
(1.04391 0.00993379 0)
(1.04444 0.00966588 0)
(1.04493 0.00942304 0)
(1.04539 0.00920157 0)
(1.04582 0.00899843 0)
(1.04622 0.00881109 0)
(1.04659 0.00863743 0)
(1.04694 0.00847565 0)
(1.04727 0.00832424 0)
(1.04759 0.00818187 0)
(1.04788 0.00804736 0)
(1.04816 0.00791968 0)
(1.04843 0.00779792 0)
(1.04869 0.00768121 0)
(1.04893 0.00756881 0)
(1.04916 0.00745995 0)
(1.04939 0.00735392 0)
(1.0496 0.00724986 0)
(1.04981 0.00714699 0)
(1.05002 0.00704408 0)
(1.05021 0.00694011 0)
(1.05041 0.00683324 0)
(1.0506 0.00672196 0)
(1.05079 0.00660351 0)
(1.05097 0.00647531 0)
(1.05117 0.00633356 0)
(1.05136 0.00617297 0)
(1.05157 0.00598937 0)
(1.05178 0.00577074 0)
(1.05201 0.00551459 0)
(1.05225 0.00519472 0)
(1.05251 0.00481291 0)
(1.05278 0.00432024 0)
(1.05306 0.00372203 0)
(1.05334 0.00295374 0)
(1.05361 0.0020201 0)
(1.05385 0.000882281 0)
(1.00104 0.0124597 0)
(1.01446 0.0209678 0)
(1.02609 0.0179014 0)
(1.0308 0.0154669 0)
(1.03247 0.0148146 0)
(1.03409 0.0140634 0)
(1.03579 0.0131003 0)
(1.03715 0.0123274 0)
(1.0382 0.0117596 0)
(1.03907 0.0112847 0)
(1.03986 0.0108613 0)
(1.04056 0.0104872 0)
(1.04119 0.0101582 0)
(1.04177 0.00986573 0)
(1.04229 0.00960252 0)
(1.04277 0.00936371 0)
(1.04322 0.00914572 0)
(1.04364 0.00894563 0)
(1.04402 0.00876098 0)
(1.04439 0.00858971 0)
(1.04473 0.00843008 0)
(1.04505 0.00828059 0)
(1.04535 0.00813994 0)
(1.04564 0.00800697 0)
(1.04592 0.00788066 0)
(1.04618 0.0077601 0)
(1.04643 0.00764444 0)
(1.04667 0.00753294 0)
(1.04691 0.00742483 0)
(1.04713 0.00731941 0)
(1.04735 0.00721583 0)
(1.04757 0.00711328 0)
(1.04778 0.00701057 0)
(1.04798 0.0069066 0)
(1.04819 0.00679959 0)
(1.0484 0.00668788 0)
(1.0486 0.00656881 0)
(1.04881 0.00643956 0)
(1.04903 0.0062965 0)
(1.04925 0.00613404 0)
(1.04948 0.00594806 0)
(1.04972 0.00572677 0)
(1.04997 0.00546666 0)
(1.05024 0.00514399 0)
(1.05052 0.00475661 0)
(1.05082 0.00426329 0)
(1.05112 0.00366114 0)
(1.05142 0.00289866 0)
(1.05169 0.00196931 0)
(1.05193 0.000834183 0)
(1.0009 0.0112877 0)
(1.01295 0.0198529 0)
(1.02399 0.0174336 0)
(1.02879 0.0150946 0)
(1.03053 0.0144871 0)
(1.03212 0.0138495 0)
(1.03379 0.0129513 0)
(1.03515 0.0121966 0)
(1.0362 0.0116421 0)
(1.03707 0.0111827 0)
(1.03784 0.0107716 0)
(1.03853 0.010406 0)
(1.03916 0.0100837 0)
(1.03972 0.00979691 0)
(1.04023 0.00953858 0)
(1.04071 0.00930394 0)
(1.04114 0.00908955 0)
(1.04155 0.00889261 0)
(1.04193 0.00871074 0)
(1.04228 0.00854194 0)
(1.04261 0.0083845 0)
(1.04292 0.00823695 0)
(1.04322 0.00809803 0)
(1.0435 0.0079666 0)
(1.04376 0.00784163 0)
(1.04402 0.00772222 0)
(1.04426 0.00760753 0)
(1.0445 0.00749681 0)
(1.04472 0.00738932 0)
(1.04494 0.00728436 0)
(1.04516 0.00718108 0)
(1.04537 0.00707865 0)
(1.04558 0.00697591 0)
(1.04578 0.0068717 0)
(1.04599 0.00676428 0)
(1.04619 0.00665187 0)
(1.0464 0.00653189 0)
(1.04661 0.00640132 0)
(1.04683 0.00625664 0)
(1.04705 0.00609211 0)
(1.04729 0.0059035 0)
(1.04753 0.00567944 0)
(1.04779 0.0054154 0)
(1.04806 0.00508997 0)
(1.04834 0.00469778 0)
(1.04863 0.0042039 0)
(1.04892 0.00359969 0)
(1.0492 0.00284267 0)
(1.04945 0.00191948 0)
(1.04966 0.000789352 0)
(1.00078 0.0102138 0)
(1.01157 0.0187539 0)
(1.022 0.0169573 0)
(1.02687 0.014731 0)
(1.02868 0.0141561 0)
(1.03023 0.0136247 0)
(1.03188 0.0127968 0)
(1.03324 0.0120636 0)
(1.03429 0.0115222 0)
(1.03515 0.0110784 0)
(1.03592 0.0106801 0)
(1.0366 0.0103236 0)
(1.03721 0.0100082 0)
(1.03777 0.00972725 0)
(1.03827 0.00947399 0)
(1.03874 0.00924368 0)
(1.03916 0.00903302 0)
(1.03956 0.00883933 0)
(1.03993 0.00866033 0)
(1.04027 0.00849407 0)
(1.04059 0.00833888 0)
(1.04089 0.00819335 0)
(1.04118 0.00805621 0)
(1.04145 0.00792633 0)
(1.04171 0.00780272 0)
(1.04195 0.00768447 0)
(1.04219 0.00757075 0)
(1.04242 0.00746081 0)
(1.04264 0.00735392 0)
(1.04285 0.00724938 0)
(1.04306 0.00714634 0)
(1.04326 0.00704398 0)
(1.04346 0.00694114 0)
(1.04366 0.00683663 0)
(1.04386 0.00672871 0)
(1.04406 0.00661552 0)
(1.04426 0.00649453 0)
(1.04447 0.00636258 0)
(1.04468 0.0062162 0)
(1.04489 0.0060496 0)
(1.04512 0.00585835 0)
(1.04536 0.00563166 0)
(1.0456 0.00536395 0)
(1.04586 0.00503602 0)
(1.04613 0.00463998 0)
(1.0464 0.00414589 0)
(1.04667 0.00354141 0)
(1.04692 0.00279013 0)
(1.04714 0.00187494 0)
(1.0473 0.000753091 0)
(1.00067 0.00923368 0)
(1.01031 0.0176752 0)
(1.02013 0.0164703 0)
(1.02504 0.0143761 0)
(1.02693 0.0138236 0)
(1.02844 0.0133894 0)
(1.03005 0.0126362 0)
(1.03142 0.0119282 0)
(1.03247 0.0113999 0)
(1.03333 0.0109715 0)
(1.03408 0.0105867 0)
(1.03476 0.0102398 0)
(1.03536 0.00993154 0)
(1.03591 0.00965668 0)
(1.0364 0.00940865 0)
(1.03686 0.00918284 0)
(1.03727 0.00897604 0)
(1.03766 0.00878573 0)
(1.03802 0.00860969 0)
(1.03836 0.00844606 0)
(1.03867 0.00829321 0)
(1.03896 0.00814974 0)
(1.03924 0.00801443 0)
(1.0395 0.00788617 0)
(1.03975 0.00776396 0)
(1.03999 0.0076469 0)
(1.04022 0.00753417 0)
(1.04044 0.00742503 0)
(1.04065 0.00731875 0)
(1.04085 0.00721463 0)
(1.04105 0.00711185 0)
(1.04125 0.00700956 0)
(1.04144 0.00690662 0)
(1.04163 0.0068018 0)
(1.04183 0.00669338 0)
(1.04202 0.00657943 0)
(1.04221 0.00645745 0)
(1.04241 0.00632417 0)
(1.04261 0.00617613 0)
(1.04282 0.00600758 0)
(1.04303 0.00581386 0)
(1.04326 0.00558477 0)
(1.04349 0.00531386 0)
(1.04373 0.00498383 0)
(1.04398 0.004585 0)
(1.04422 0.00409131 0)
(1.04446 0.00348828 0)
(1.04468 0.0027435 0)
(1.04485 0.00183843 0)
(1.04496 0.000728481 0)
(1.00058 0.00834291 0)
(1.00917 0.0166213 0)
(1.01837 0.0159708 0)
(1.02329 0.014029 0)
(1.02526 0.0134915 0)
(1.02674 0.013144 0)
(1.02832 0.0124689 0)
(1.02968 0.0117902 0)
(1.03073 0.0112752 0)
(1.03159 0.010862 0)
(1.03233 0.0104913 0)
(1.033 0.0101544 0)
(1.0336 0.00985369 0)
(1.03414 0.0095851 0)
(1.03462 0.0093425 0)
(1.03507 0.00912134 0)
(1.03548 0.00891856 0)
(1.03586 0.00873173 0)
(1.03621 0.00855877 0)
(1.03654 0.00839785 0)
(1.03684 0.0082474 0)
(1.03713 0.00810608 0)
(1.0374 0.00797266 0)
(1.03765 0.00784606 0)
(1.03789 0.0077253 0)
(1.03812 0.00760947 0)
(1.03834 0.00749777 0)
(1.03855 0.00738945 0)
(1.03876 0.00728381 0)
(1.03895 0.00718014 0)
(1.03915 0.00707764 0)
(1.03934 0.00697544 0)
(1.03952 0.00687244 0)
(1.03971 0.00676734 0)
(1.03989 0.00665847 0)
(1.04007 0.00654381 0)
(1.04026 0.00642089 0)
(1.04045 0.00628639 0)
(1.04064 0.00613681 0)
(1.04083 0.0059665 0)
(1.04104 0.00577056 0)
(1.04125 0.00553938 0)
(1.04146 0.00526582 0)
(1.04169 0.00493421 0)
(1.04191 0.00453372 0)
(1.04213 0.00404122 0)
(1.04234 0.00344131 0)
(1.04251 0.00270428 0)
(1.04264 0.00181144 0)
(1.04269 0.000717897 0)
(1.0005 0.00753639 0)
(1.00813 0.0155963 0)
(1.01673 0.0154579 0)
(1.02163 0.013689 0)
(1.02367 0.0131615 0)
(1.02513 0.0128894 0)
(1.02667 0.0122944 0)
(1.02803 0.0116492 0)
(1.02908 0.0111481 0)
(1.02993 0.0107498 0)
(1.03067 0.0103935 0)
(1.03133 0.0100674 0)
(1.03192 0.00977454 0)
(1.03245 0.00951242 0)
(1.03293 0.00927544 0)