/*--------------------------------*- C++ -*----------------------------------*\
  =========                 |
  \\      /  F ield         | OpenFOAM: The Open Source CFD Toolbox
   \\    /   O peration     | Website:  https://openfoam.org
    \\  /    A nd           | Version:  7
     \\/     M anipulation  |
\*---------------------------------------------------------------------------*/
FoamFile
{
    version     2.0;
    format      ascii;
    class       volVectorField;
    location    "0.44";
    object      wallShearStress;
}
// * * * * * * * * * * * * * * * * * * * * * * * * * * * * * * * * * * * * * //

dimensions      [0 2 -2 0 0 0 0];

internalField   uniform (0 0 0);

boundaryField
{
    velocityInlet
    {
        type            calculated;
        value           uniform (0 0 0);
    }
    pressureOutlet
    {
        type            calculated;
        value           uniform (0 0 0);
    }
    fixedWalls
    {
        type            calculated;
        value           nonuniform List<vector> 
100
(
(-0.0284616 -0.00738439 0)
(-0.0114849 -0.00174945 0)
(-0.00838468 -6.58174e-05 0)
(-0.00829157 0.000147021 0)
(-0.00782351 -7.27749e-06 0)
(-0.00713801 -5.41057e-05 0)
(-0.00650193 -4.92269e-05 0)
(-0.00595421 -4.03149e-05 0)
(-0.00545506 -3.50279e-05 0)
(-0.00499436 -3.16994e-05 0)
(-0.00459099 -2.81589e-05 0)
(-0.00426808 -2.23126e-05 0)
(-0.00404491 -1.40934e-05 0)
(-0.00393481 -4.3989e-06 0)
(-0.00394411 8.18173e-06 0)
(-0.0040724 2.25838e-05 0)
(-0.00431298 3.7213e-05 0)
(-0.00465144 4.97914e-05 0)
(-0.00506983 5.99744e-05 0)
(-0.00557545 7.33073e-05 0)
(-0.0062112 9.41064e-05 0)
(-0.00699806 0.000116054 0)
(-0.00789558 0.000135549 0)
(-0.00882008 0.000153411 0)
(-0.0095297 0.000157954 0)
(-0.00946932 6.39521e-05 0)
(-0.00776848 -0.000212008 0)
(-0.00385039 -0.000632733 0)
(0.0016304 -0.000784074 0)
(0.00660706 -0.000744597 0)
(0.00972024 -0.000452327 0)
(0.0104008 -8.70996e-05 0)
(0.00895075 0.000208121 0)
(0.00625116 0.000355623 0)
(0.00324665 0.000366834 0)
(0.000594539 0.000306009 0)
(-0.00142659 0.000224845 0)
(-0.00283495 0.000148687 0)
(-0.00377843 9.46609e-05 0)
(-0.00442776 6.40741e-05 0)
(-0.00490314 4.94875e-05 0)
(-0.00529178 4.67564e-05 0)
(-0.00576768 7.20369e-05 0)
(-0.00654903 0.000118354 0)
(-0.00733387 0.000124293 0)
(-0.0065866 -0.00010266 0)
(-0.00259411 -0.000557995 0)
(0.0034682 -0.000705972 0)
(0.00805519 -0.000524171 0)
(0.00957867 -0.000153476 0)
(0.00860683 0.000114227 0)
(0.00650873 0.000214421 0)
(0.00422642 0.000217438 0)
(0.00218937 0.000182878 0)
(0.000518287 0.000147747 0)
(-0.000802039 0.000115458 0)
(-0.00181339 8.68292e-05 0)
(-0.00256022 6.33068e-05 0)
(-0.00308249 4.37169e-05 0)
(-0.0034208 2.79019e-05 0)
(-0.0036176 1.599e-05 0)
(-0.00371056 7.07927e-06 0)
(-0.00372993 1.22259e-07 0)
(-0.00371616 -2.75302e-06 0)
(-0.00372328 3.39061e-07 0)
(-0.00377552 3.54607e-06 0)
(-0.00385267 2.03152e-06 0)
(-0.00397227 6.11761e-06 0)
(-0.00424049 2.697e-05 0)
(-0.00475117 5.69456e-05 0)
(-0.00547486 8.18045e-05 0)
(-0.00624593 8.92232e-05 0)
(-0.00677776 7.06123e-05 0)
(-0.00672851 1.61134e-05 0)
(-0.0058584 -6.35859e-05 0)
(-0.00416312 -0.000147416 0)
(-0.00180297 -0.00023362 0)
(0.000831651 -0.00024858 0)
(0.00308436 -0.000218932 0)
(0.00445686 -0.000127993 0)
(0.00474419 -2.47688e-05 0)
(0.0041146 5.70293e-05 0)
(0.00292779 0.000100841 0)
(0.00153275 0.000114482 0)
(0.00018528 0.000106847 0)
(-0.000951143 8.74608e-05 0)
(-0.0018003 6.36035e-05 0)
(-0.00236629 4.13925e-05 0)
(-0.00269441 2.37559e-05 0)
(-0.00285676 1.17443e-05 0)
(-0.0029097 4.82308e-06 0)
(-0.00291331 1.41308e-06 0)
(-0.0028884 7.53831e-07 0)
(-0.0028685 6.74196e-07 0)
(-0.00283634 1.68129e-06 0)
(-0.00279907 -5.49416e-07 0)
(-0.00272401 -1.77756e-06 0)
(-0.00257645 -7.84763e-06 0)
(-0.00248183 -9.01105e-06 0)
(-0.00204467 -1.79823e-05 0)
)
;
    }
    bottomWall
    {
        type            calculated;
        value           nonuniform List<vector> 
800
(
(-0.0353488 0.00214398 0)
(-0.0160265 0.000524837 0)
(-0.0106075 0.000100719 0)
(-0.00845564 3.52599e-05 0)
(-0.00748598 1.98586e-05 0)
(-0.00685239 1.61178e-05 0)
(-0.00634505 1.33505e-05 0)
(-0.00593408 1.08936e-05 0)
(-0.00559951 9.07132e-06 0)
(-0.00532088 7.75472e-06 0)
(-0.0050836 6.75802e-06 0)
(-0.00487822 5.97097e-06 0)
(-0.00469826 5.33338e-06 0)
(-0.00453899 4.80802e-06 0)
(-0.00439681 4.36913e-06 0)
(-0.00426894 3.99765e-06 0)
(-0.00415322 3.67984e-06 0)
(-0.00404788 3.40543e-06 0)
(-0.00395152 3.16634e-06 0)
(-0.00386298 2.9565e-06 0)
(-0.0037813 2.77121e-06 0)
(-0.00370566 2.60642e-06 0)
(-0.00363541 2.45908e-06 0)
(-0.00356995 2.32682e-06 0)
(-0.0035088 2.20746e-06 0)
(-0.00345151 2.09932e-06 0)
(-0.00339774 2.00099e-06 0)
(-0.00334714 1.91134e-06 0)
(-0.00329944 1.8291e-06 0)
(-0.00325439 1.75349e-06 0)
(-0.00321177 1.68387e-06 0)
(-0.00317138 1.61954e-06 0)
(-0.00313305 1.55996e-06 0)
(-0.00309662 1.5046e-06 0)
(-0.00306195 1.45318e-06 0)
(-0.00302891 1.40517e-06 0)
(-0.0029974 1.3602e-06 0)
(-0.0029673 1.31832e-06 0)
(-0.00293852 1.27892e-06 0)
(-0.00291098 1.24184e-06 0)
(-0.0028846 1.20713e-06 0)
(-0.00285931 1.17436e-06 0)
(-0.00283504 1.14352e-06 0)
(-0.00281172 1.11426e-06 0)
(-0.00278931 1.08671e-06 0)
(-0.00276776 1.06043e-06 0)
(-0.002747 1.03587e-06 0)
(-0.00272702 1.01177e-06 0)
(-0.00270775 9.90096e-07 0)
(-0.00268918 9.6699e-07 0)
(-0.00267366 9.48058e-07 0)
(-0.00266083 9.37264e-07 0)
(-0.00264817 9.23466e-07 0)
(-0.0026357 9.08828e-07 0)
(-0.00262342 8.95011e-07 0)
(-0.00261133 8.81937e-07 0)
(-0.00259941 8.69245e-07 0)
(-0.00258767 8.56788e-07 0)
(-0.00257608 8.44591e-07 0)
(-0.00256467 8.32649e-07 0)
(-0.00255341 8.21122e-07 0)
(-0.00254231 8.09669e-07 0)
(-0.00253137 7.98457e-07 0)
(-0.00252057 7.87816e-07 0)
(-0.00250992 7.77078e-07 0)
(-0.00249941 7.66573e-07 0)
(-0.00248905 7.56467e-07 0)
(-0.00247882 7.46423e-07 0)
(-0.00246872 7.36773e-07 0)
(-0.00245876 7.27182e-07 0)
(-0.00244893 7.17814e-07 0)
(-0.00243922 7.08668e-07 0)
(-0.00242963 6.99741e-07 0)
(-0.00242016 6.90865e-07 0)
(-0.00241082 6.82206e-07 0)
(-0.00240159 6.73762e-07 0)
(-0.00239248 6.65364e-07 0)
(-0.00238348 6.57345e-07 0)
(-0.00237459 6.49369e-07 0)
(-0.0023658 6.41437e-07 0)
(-0.00235712 6.33878e-07 0)
(-0.00234854 6.2636e-07 0)
(-0.00234007 6.18714e-07 0)
(-0.0023317 6.11439e-07 0)
(-0.00232343 6.04368e-07 0)
(-0.00231525 5.97334e-07 0)
(-0.00230717 5.90501e-07 0)
(-0.00229917 5.83704e-07 0)
(-0.00229128 5.7694e-07 0)
(-0.00228347 5.70376e-07 0)
(-0.00227575 5.64012e-07 0)
(-0.00226811 5.5768e-07 0)
(-0.00226057 5.51379e-07 0)
(-0.0022531 5.45442e-07 0)
(-0.00224572 5.39368e-07 0)
(-0.00223842 5.33491e-07 0)
(-0.00223119 5.27809e-07 0)
(-0.00222405 5.21987e-07 0)
(-0.00221698 5.1636e-07 0)
(-0.00220999 5.1076e-07 0)
(-0.00220308 5.05352e-07 0)
(-0.00219623 5.00136e-07 0)
(-0.00218946 4.94945e-07 0)
(-0.00218275 4.89779e-07 0)
(-0.00217612 4.84635e-07 0)
(-0.00216956 4.79516e-07 0)
(-0.00216306 4.74752e-07 0)
(-0.00215663 4.69845e-07 0)
(-0.00215027 4.6496e-07 0)
(-0.00214397 4.6043e-07 0)
(-0.00213773 4.5592e-07 0)
(-0.00213155 4.51266e-07 0)
(-0.00212544 4.46799e-07 0)
(-0.00211938 4.42519e-07 0)
(-0.00211339 4.37926e-07 0)
(-0.00210746 4.33686e-07 0)
(-0.00210158 4.29632e-07 0)
(-0.00209575 4.2543e-07 0)
(-0.00208999 4.21413e-07 0)
(-0.00208427 4.17414e-07 0)
(-0.00207862 4.13432e-07 0)
(-0.00207301 4.09633e-07 0)
(-0.00206746 4.05685e-07 0)
(-0.00206196 4.01918e-07 0)
(-0.00205651 3.98167e-07 0)
(-0.00205111 3.9443e-07 0)
(-0.00204576 3.90876e-07 0)
(-0.00204046 3.87334e-07 0)
(-0.00203521 3.83808e-07 0)
(-0.00203001 3.80296e-07 0)
(-0.00202485 3.76964e-07 0)
(-0.00201973 3.73646e-07 0)
(-0.00201466 3.70173e-07 0)
(-0.00200965 3.66882e-07 0)
(-0.00200467 3.6377e-07 0)
(-0.00199973 3.60504e-07 0)
(-0.00199484 3.57253e-07 0)
(-0.00199 3.54178e-07 0)
(-0.00198519 3.51287e-07 0)
(-0.00198042 3.48235e-07 0)
(-0.00197569 3.45209e-07 0)
(-0.00197101 3.42342e-07 0)
(-0.00196636 3.39518e-07 0)
(-0.00196175 3.3666e-07 0)
(-0.00195718 3.33717e-07 0)
(-0.00195265 3.31017e-07 0)
(-0.00194815 3.28472e-07 0)
(-0.0019437 3.25574e-07 0)
(-0.00193927 3.23092e-07 0)
(-0.00193489 3.20093e-07 0)
(-0.00193121 3.17504e-07 0)
(-0.0019282 3.16231e-07 0)
(-0.00192519 3.14653e-07 0)
(-0.00192217 3.12979e-07 0)
(-0.00191914 3.1112e-07 0)
(-0.00191612 3.09298e-07 0)
(-0.00191308 3.07496e-07 0)
(-0.00191005 3.05696e-07 0)
(-0.00190701 3.04133e-07 0)
(-0.00190397 3.02351e-07 0)
(-0.00190092 3.00578e-07 0)
(-0.00189787 2.99036e-07 0)
(-0.00189481 2.97284e-07 0)
(-0.00189175 2.95536e-07 0)
(-0.00188869 2.93803e-07 0)
(-0.00188562 2.92074e-07 0)
(-0.00188255 2.9057e-07 0)
(-0.00187948 2.8886e-07 0)
(-0.0018764 2.87158e-07 0)
(-0.00187331 2.85466e-07 0)
(-0.00187023 2.83989e-07 0)
(-0.00186713 2.82315e-07 0)
(-0.00186404 2.80439e-07 0)
(-0.00186095 2.78988e-07 0)
(-0.00185784 2.77339e-07 0)
(-0.00185474 2.75698e-07 0)
(-0.00185163 2.74266e-07 0)
(-0.00184852 2.72642e-07 0)
(-0.0018454 2.70829e-07 0)
(-0.00184229 2.69222e-07 0)
(-0.00183916 2.6782e-07 0)
(-0.00183604 2.66232e-07 0)
(-0.00183291 2.64649e-07 0)
(-0.00182977 2.63077e-07 0)
(-0.00182664 2.61513e-07 0)
(-0.0018235 2.59959e-07 0)
(-0.00182036 2.58412e-07 0)
(-0.00181721 2.56876e-07 0)
(-0.00181406 2.55346e-07 0)
(-0.00181091 2.54011e-07 0)
(-0.00180775 2.52499e-07 0)
(-0.00180459 2.50817e-07 0)
(-0.00180143 2.49325e-07 0)
(-0.00179826 2.4802e-07 0)
(-0.00179509 2.46546e-07 0)
(-0.00179191 2.44907e-07 0)
(-0.00178874 2.43453e-07 0)
(-0.00178556 2.42183e-07 0)
(-0.00178237 2.40747e-07 0)
(-0.00177919 2.39324e-07 0)
(-0.001776 2.37909e-07 0)
(-0.0017728 2.36505e-07 0)
(-0.00176961 2.35278e-07 0)
(-0.0017664 2.33728e-07 0)
(-0.0017632 2.32353e-07 0)
(-0.00175999 2.31155e-07 0)
(-0.00175678 2.29797e-07 0)
(-0.00175356 2.28456e-07 0)
(-0.00175034 2.27116e-07 0)
(-0.00174712 2.25792e-07 0)
(-0.0017439 2.24633e-07 0)
(-0.00174066 2.23326e-07 0)
(-0.00173743 2.22027e-07 0)
(-0.00173418 2.20896e-07 0)
(-0.00173094 2.19457e-07 0)
(-0.0017277 2.18192e-07 0)
(-0.00172445 2.17077e-07 0)
(-0.00172119 2.15979e-07 0)
(-0.00171793 2.14737e-07 0)
(-0.00171467 2.13505e-07 0)
(-0.0017114 2.12428e-07 0)
(-0.00170812 2.11218e-07 0)
(-0.00170485 2.10155e-07 0)
(-0.00170156 2.0912e-07 0)
(-0.00169827 2.07913e-07 0)
(-0.00169498 2.06777e-07 0)
(-0.00169168 2.05706e-07 0)
(-0.00168838 2.04772e-07 0)
(-0.00168507 2.03664e-07 0)
(-0.00168175 2.02854e-07 0)
(-0.00167843 2.01599e-07 0)
(-0.0016751 2.00955e-07 0)
(-0.00167177 1.99558e-07 0)
(-0.00166841 1.99481e-07 0)
(-0.00166509 1.97336e-07 0)
(-0.00166169 1.98616e-07 0)
(-0.00165838 1.94602e-07 0)
(-0.00165492 1.98819e-07 0)
(-0.00165165 1.90571e-07 0)
(-0.00164807 2.01617e-07 0)
(-0.00164493 1.83348e-07 0)
(-0.0016411 2.09273e-07 0)
(-0.00163826 1.69429e-07 0)
(-0.00163395 2.27299e-07 0)
(-0.0016317 1.41999e-07 0)
(-0.00162652 2.64365e-07 0)
(-0.00162531 8.98047e-08 0)
(-0.0016188 3.30084e-07 0)
(-0.00161907 7.0614e-09 0)
(-0.00161083 3.63562e-07 0)
(-0.0353488 -0.00214397 0)
(-0.0160267 -0.000524827 0)
(-0.0106081 -0.000100709 0)
(-0.00845641 -3.52543e-05 0)
(-0.00748674 -1.98567e-05 0)
(-0.00685309 -1.61197e-05 0)
(-0.00634548 -1.33563e-05 0)
(-0.00593413 -1.09024e-05 0)
(-0.00559907 -9.0828e-06 0)
(-0.00531989 -7.76812e-06 0)
(-0.00508202 -6.77278e-06 0)
(-0.00487601 -5.98641e-06 0)
(-0.00469542 -5.34908e-06 0)
(-0.00453551 -4.82344e-06 0)
(-0.00439271 -4.38382e-06 0)
(-0.00426425 -4.01153e-06 0)
(-0.00414796 -3.69257e-06 0)
(-0.00404208 -3.4167e-06 0)
(-0.00394522 -3.17591e-06 0)
(-0.00385622 -2.96395e-06 0)
(-0.00377413 -2.77616e-06 0)
(-0.00369814 -2.60832e-06 0)
(-0.00362761 -2.45734e-06 0)
(-0.00356195 -2.32077e-06 0)
(-0.00350067 -2.19618e-06 0)
(-0.00344339 -2.08182e-06 0)
(-0.00338973 -1.97613e-06 0)
(-0.00333938 -1.87762e-06 0)
(-0.00329211 -1.78487e-06 0)
(-0.00324767 -1.69685e-06 0)
(-0.00320589 -1.61225e-06 0)
(-0.0031666 -1.53e-06 0)
(-0.0031297 -1.44822e-06 0)
(-0.00309507 -1.36642e-06 0)
(-0.00306266 -1.28222e-06 0)
(-0.00303245 -1.19429e-06 0)
(-0.00300439 -1.10043e-06 0)
(-0.00297869 -9.9612e-07 0)
(-0.00295511 -8.84517e-07 0)
(-0.00293443 -7.45711e-07 0)
(-0.00291576 -6.0807e-07 0)
(-0.00290134 -3.99408e-07 0)
(-0.00288835 -2.33062e-07 0)
(-0.00288262 1.22346e-07 0)
(-0.00287678 3.00908e-07 0)
(-0.00288354 9.93712e-07 0)
(-0.00288933 9.96614e-07 0)
(-0.0029089 2.90462e-06 0)
(-0.00296324 -4.84558e-06 0)
(-0.00269891 0.000207807 0)
(0.000170668 -8.18536e-05 0)
(0.000167254 -0.000371641 0)
(0.000109486 -0.000580851 0)
(7.74184e-05 -0.000696803 0)
(8.32725e-05 -0.000803592 0)
(7.41454e-05 -0.000906309 0)
(2.71501e-05 -0.000854649 0)
(-5.71366e-05 -0.000636831 0)
(-0.000272079 -0.000261514 0)
(-0.000557358 0.000360614 0)
(-0.000700934 0.00114984 0)
(-0.000688546 0.00191809 0)
(-0.000570113 0.00254957 0)
(-0.000399271 0.00298406 0)
(-0.000222275 0.00321592 0)
(-6.19013e-05 0.00326811 0)
(6.88688e-05 0.00317023 0)
(0.000167691 0.00297051 0)
(0.000240374 0.00268621 0)
(0.000285057 0.00235285 0)
(0.000307399 0.00199323 0)
(0.000310357 0.00163076 0)
(0.000300471 0.00127975 0)
(0.000282377 0.000948683 0)
(0.000261363 0.000641728 0)
(0.00024145 0.000359112 0)
(0.000225046 9.73411e-05 0)
(0.000214424 -0.000147915 0)
(0.000207587 -0.000382822 0)
(0.000203752 -0.000611894 0)
(0.00020102 -0.000836667 0)
(0.000197681 -0.00105751 0)
(0.000192272 -0.00127323 0)
(0.000183964 -0.00148146 0)
(0.000172613 -0.00167949 0)
(0.000158626 -0.00186476 0)
(0.00014273 -0.00203539 0)
(0.000125744 -0.00219028 0)
(0.000108362 -0.0023291 0)
(9.10584e-05 -0.00245206 0)
(7.41119e-05 -0.00255975 0)
(5.74667e-05 -0.00265289 0)
(4.08943e-05 -0.00273201 0)
(2.4298e-05 -0.00279758 0)
(7.11433e-06 -0.00284998 0)
(-1.10663e-05 -0.00288866 0)
(-3.00286e-05 -0.00291383 0)
(-5.10371e-05 -0.00292532 0)
(-7.47048e-05 -0.00292059 0)
(-9.9938e-05 -0.00289946 0)
(-0.000126205 -0.00286161 0)
(-0.0001532 -0.00280646 0)
(-0.000180297 -0.0027339 0)
(-0.000207055 -0.00264421 0)
(-0.000233109 -0.00253772 0)
(-0.00025799 -0.00241483 0)
(-0.000281094 -0.00227618 0)
(-0.000301761 -0.0021228 0)
(-0.000319301 -0.00195587 0)
(-0.000332838 -0.001777 0)
(-0.000341539 -0.00158818 0)
(-0.000344864 -0.00139194 0)
(-0.000343045 -0.00119165 0)
(-0.000335157 -0.000989005 0)
(-0.000320938 -0.000788083 0)
(-0.000301056 -0.00059061 0)
(-0.000278173 -0.000404806 0)
(-0.000263608 -0.000219982 0)
(-0.000231633 -1.28891e-05 0)
(-0.000124648 0.000188826 0)
(3.59141e-05 0.000333332 0)
(0.000203905 0.000403605 0)
(0.000344826 0.000416011 0)
(0.000435395 0.000380376 0)
(0.000457165 0.000313582 0)
(0.000408291 0.000236052 0)
(0.000288207 0.00016736 0)
(0.000113314 0.000139066 0)
(-6.0064e-05 0.000176611 0)
(-0.000158139 0.000258264 0)
(-0.000160603 0.00031618 0)
(-0.000118997 0.000305921 0)
(-0.000103165 0.000254191 0)
(-0.000112847 0.000220419 0)
(-0.000106267 0.000222731 0)
(-6.42172e-05 0.000239449 0)
(2.06271e-06 0.000241263 0)
(6.3863e-05 0.000213553 0)
(9.58634e-05 0.000165648 0)
(9.43098e-05 0.000123853 0)
(7.87843e-05 0.00010139 0)
(6.66278e-05 8.91434e-05 0)
(6.00168e-05 7.41149e-05 0)
(5.36931e-05 5.28832e-05 0)
(4.39509e-05 3.11353e-05 0)
(3.30871e-05 1.40713e-05 0)
(2.49964e-05 2.64687e-06 0)
(2.03022e-05 -5.1384e-06 0)
(1.76659e-05 -1.0943e-05 0)
(1.56401e-05 -1.52973e-05 0)
(1.38353e-05 -1.85377e-05 0)
(1.25158e-05 -2.15324e-05 0)
(1.16583e-05 -2.56295e-05 0)
(1.02907e-05 -3.18237e-05 0)
(6.75504e-06 -4.00355e-05 0)
(-7.79137e-07 -4.89268e-05 0)
(-1.38248e-05 -5.60086e-05 0)
(-3.31135e-05 -5.87511e-05 0)
(-5.74428e-05 -5.25189e-05 0)
(-8.35067e-05 -3.451e-05 0)
(-0.000109035 -4.71032e-06 0)
(-0.000130331 3.66313e-05 0)
(-0.000143585 8.76061e-05 0)
(-0.00014609 0.000144569 0)
(-0.000137022 0.000202538 0)
(-0.000118092 0.000256922 0)
(-9.21508e-05 0.000303841 0)
(-6.26247e-05 0.000341401 0)
(-3.27243e-05 0.000369049 0)
(-5.85068e-06 0.000387424 0)
(1.4201e-05 0.000398876 0)
(2.4209e-05 0.000407511 0)
(2.23641e-05 0.000417488 0)
(6.70692e-06 0.000432084 0)
(-2.67195e-05 0.000452041 0)
(-8.06694e-05 0.000483234 0)
(-0.000151515 0.000534531 0)
(-0.000228033 0.000611682 0)
(-0.000296306 0.000712253 0)
(-0.000346813 0.000826954 0)
(-0.000377228 0.000944952 0)
(-0.000390154 0.0010592 0)
(-0.000389067 0.00116685 0)
(-0.000376111 0.00126654 0)
(-0.000352565 0.00135648 0)
(-0.000319666 0.00143464 0)
(-0.000279192 0.00150087 0)
(-0.000232497 0.00155317 0)
(-0.000181095 0.00159071 0)
(-0.000126383 0.00161321 0)
(-6.93249e-05 0.00162068 0)
(-1.17446e-05 0.00161299 0)
(4.56895e-05 0.00159194 0)
(0.00010356 0.00155751 0)
(0.000161122 0.00150989 0)
(0.000218041 0.00144946 0)
(0.000273893 0.00137651 0)
(0.000328109 0.00129147 0)
(0.000380013 0.0011948 0)
(0.000428782 0.00108725 0)
(0.000473763 0.000969709 0)
(0.000514475 0.000843351 0)
(0.000555771 0.000717539 0)
(0.000592602 0.00058429 0)
(0.000624095 0.000443208 0)
(0.000648065 0.000294386 0)
(0.000662048 0.000139846 0)
(0.000664573 -1.63324e-05 0)
(0.000655532 -0.000169243 0)
(0.000636492 -0.000314644 0)
(0.00061003 -0.000450335 0)
(0.000578731 -0.000576403 0)
(0.00054705 -0.000697939 0)
(0.000515309 -0.000817444 0)
(0.000479027 -0.000928154 0)
(0.000438908 -0.00102988 0)
(0.000395384 -0.00112215 0)
(0.000349007 -0.00120467 0)
(0.000300298 -0.00127729 0)
(0.000249695 -0.00133995 0)
(0.000197607 -0.00139262 0)
(0.000144381 -0.00143537 0)
(9.03816e-05 -0.00146828 0)
(3.58654e-05 -0.00149155 0)
(-1.8445e-05 -0.00150532 0)
(-7.30779e-05 -0.00151007 0)
(-0.000128125 -0.0015051 0)
(-0.000182274 -0.00149074 0)
(-0.000234966 -0.00146724 0)
(-0.000286229 -0.00143723 0)
(-0.000335227 -0.00139856 0)
(-0.00038124 -0.00135109 0)
(-0.000423629 -0.00129537 0)
(-0.000461708 -0.00123191 0)
(-0.00049475 -0.00116135 0)
(-0.000522052 -0.00108434 0)
(-0.000542866 -0.00100168 0)
(-0.000556555 -0.00091423 0)
(-0.000562615 -0.000822896 0)
(-0.000560945 -0.000729358 0)
(-0.000549639 -0.000633084 0)
(-0.000527794 -0.000535532 0)
(-0.000494819 -0.000439631 0)
(-0.000451405 -0.000351819 0)
(-0.000401407 -0.000285015 0)
(-0.00035521 -0.000261512 0)
(-0.000335379 -0.000313843 0)
(-0.000384054 -0.000479592 0)
(-0.000556086 -0.000779739 0)
(-0.000852234 -0.00116832 0)
(5.09183e-06 -0.000182307 0)
(0.000251189 -0.000183627 0)
(0.0003758 -7.04352e-05 0)
(0.000324676 7.48137e-05 0)
(0.000179798 0.000149281 0)
(7.3332e-06 0.000161871 0)
(-0.000149963 0.000134375 0)
(-0.000270268 7.99462e-05 0)
(-0.000338298 1.18964e-05 0)
(-0.000350964 -6.08832e-05 0)
(-0.000303678 -0.000130873 0)
(-0.000196773 -0.000186164 0)
(-3.89099e-05 -0.00020775 0)
(0.000149115 -0.00017602 0)
(0.000318729 -9.06085e-05 0)
(0.000413021 -2.1671e-05 0)
(0.000445845 -1.80326e-05 0)
(0.000461882 -3.19488e-05 0)
(0.000482395 -3.17062e-05 0)
(0.000501842 -2.47161e-05 0)
(0.00051283 -1.01281e-05 0)
(0.000504431 1.51056e-05 0)
(0.000469389 4.62786e-05 0)
(0.000406463 7.7452e-05 0)
(0.000319636 0.00010187 0)
(0.000219869 0.000113263 0)
(0.000121169 0.000108941 0)
(3.6926e-05 8.94516e-05 0)
(-2.1361e-05 5.95378e-05 0)
(-4.81911e-05 2.46837e-05 0)
(-4.52735e-05 -7.04638e-06 0)
(-1.97392e-05 -2.15031e-05 0)
(7.45358e-06 -1.11739e-05 0)
(2.02414e-05 1.75722e-05 0)
(2.93489e-05 4.6905e-05 0)
(4.8127e-05 6.26737e-05 0)
(8.05259e-05 5.94778e-05 0)
(0.000125357 3.17003e-05 0)
(0.000188723 -3.11904e-05 0)
(0.000288863 -0.000124134 0)
(0.000434259 -0.000200713 0)
(0.000593385 -0.000219311 0)
(0.000724948 -0.000192649 0)
(0.000823642 -0.000155608 0)
(0.000899277 -0.000124547 0)
(0.000959148 -0.000100693 0)
(0.00100675 -8.18556e-05 0)
(0.00104344 -6.59978e-05 0)
(0.00106948 -5.0794e-05 0)
(0.00108413 -3.4507e-05 0)
(0.00108608 -1.64435e-05 0)
(0.00107417 2.9432e-06 0)
(0.0010478 2.34084e-05 0)
(0.00100559 4.48745e-05 0)
(0.000947175 6.70283e-05 0)
(0.000871699 8.97351e-05 0)
(0.000778633 0.000112821 0)
(0.000667504 0.000136127 0)
(0.000537518 0.000159349 0)
(0.000387394 0.000181736 0)
(0.000217345 0.000201835 0)
(3.35777e-05 0.000222552 0)
(-0.000167226 0.00024065 0)
(-0.00038223 0.000256717 0)
(-0.000608684 0.000269097 0)
(-0.000843573 0.000276051 0)
(-0.00108309 0.000276921 0)
(-0.00132169 0.00026942 0)
(-0.00155251 0.000249789 0)
(-0.0017655 0.000216439 0)
(-0.00195118 0.00016607 0)
(-0.0020947 9.76722e-05 0)
(-0.00218589 1.1692e-05 0)
(-0.00221064 -9.37503e-05 0)
(-0.00214856 -0.000213536 0)
(-0.00199151 -0.000333212 0)
(-0.00174163 -0.000434699 0)
(-0.00140432 -0.000490961 0)
(-0.00102836 -0.000481386 0)
(-0.000640729 -0.000424586 0)
(-0.000296365 -0.000241324 0)
(-0.000122354 2.77664e-06 0)
(-0.000107861 0.000132342 0)
(-0.000160455 0.000142213 0)
(-0.000199702 7.29113e-05 0)
(-0.000135782 -0.000100445 0)
(0.000102798 -0.000273749 0)
(0.000369837 -0.000276023 0)
(0.000546299 -0.000200564 0)
(0.000641934 -0.000118523 0)
(0.000672673 -4.31756e-05 0)
(0.000655539 1.36214e-05 0)
(0.000605362 5.57117e-05 0)
(0.000531358 8.51791e-05 0)
(0.000441527 0.000104956 0)
(0.000340767 0.000116801 0)
(0.000233322 0.000119403 0)
(0.00012557 0.000106394 0)
(3.30479e-05 6.87955e-05 0)
(-1.12402e-05 1.84775e-05 0)
(1.05006e-05 5.18189e-06 0)
(3.9817e-05 6.05006e-05 0)
(7.07599e-05 0.000161787 0)
(7.97529e-05 0.000273828 0)
(6.77592e-05 0.000364984 0)
(4.23831e-05 0.000420529 0)
(1.00653e-05 0.000431393 0)
(-1.99659e-05 0.000395102 0)
(-3.57054e-05 0.000327122 0)
(-3.61786e-05 0.000252912 0)
(-2.80064e-05 0.000186372 0)
(-1.4568e-05 0.000133825 0)
(3.94106e-06 9.89844e-05 0)
(3.30642e-05 9.48508e-05 0)
(7.71208e-05 0.000135999 0)
(9.40294e-05 0.000215391 0)
(6.17038e-05 0.00032039 0)
(-2.32003e-07 0.000389292 0)
(-5.24487e-05 0.000388335 0)
(-8.86668e-05 0.000328706 0)
(-0.000121686 0.000245175 0)
(-0.000148536 0.000118331 0)
(-0.000171899 -4.846e-05 0)
(-0.000195817 -0.000254868 0)
(-0.000223502 -0.000504453 0)
(-0.00024192 -0.000795112 0)
(-0.000230653 -0.00110081 0)
(-0.000178026 -0.00137323 0)
(-9.17335e-05 -0.00156824 0)
(1.3064e-05 -0.00165988 0)
(0.000120834 -0.00164184 0)
(0.000209018 -0.00152626 0)
(0.000263452 -0.00134046 0)
(0.000273897 -0.00112133 0)
(0.000232336 -0.00090855 0)
(0.000141342 -0.00073213 0)
(3.91911e-05 -0.000609668 0)
(-1.42287e-05 -0.000557875 0)
(4.33409e-05 -0.000559383 0)
(0.000200085 -0.000575051 0)
(0.000369678 -0.000545742 0)
(0.000460434 -0.000446872 0)
(0.000331714 -0.000300293 0)
(-4.42946e-05 -0.000227671 0)
(-0.000495206 -0.000304455 0)
(-0.000786083 -0.000472836 0)
(-0.000858036 -0.000658369 0)
(-0.000688333 -0.000786927 0)
(-0.00032361 -0.000817625 0)
(0.000197233 -0.000690637 0)
(0.000773789 -0.000197454 0)
(0.000790164 0.000452335 0)
(0.000540884 0.000814743 0)
(0.000451314 0.00102907 0)
(0.000404447 0.00127162 0)
(0.000353261 0.00148071 0)
(0.000318909 0.00166837 0)
(0.000285817 0.00184036 0)
(0.00026067 0.00199373 0)
(0.000240288 0.00213557 0)
(0.000224473 0.0022657 0)
(0.000212851 0.00238692 0)
(0.000203758 0.00249997 0)
(0.000196418 0.00260531 0)
(0.000189315 0.00270308 0)
(0.000181415 0.00279278 0)
(0.000171835 0.00287393 0)
(0.000160109 0.0029459 0)
(0.000146299 0.00300828 0)
(0.000130809 0.003061 0)
(0.000114277 0.00310427 0)
(9.75435e-05 0.00313856 0)
(8.15759e-05 0.00316469 0)
(6.71442e-05 0.00318377 0)
(5.46251e-05 0.00319704 0)
(4.40463e-05 0.00320567 0)
(3.52506e-05 0.00321061 0)
(2.79555e-05 0.00321253 0)
(2.19551e-05 0.00321202 0)
(1.70293e-05 0.00320966 0)
(1.29744e-05 0.00320575 0)
(9.57038e-06 0.00320063 0)
(6.65807e-06 0.00319444 0)
(4.17082e-06 0.00318735 0)
(1.98385e-06 0.0031795 0)
(2.55734e-08 0.00317097 0)
(-1.74633e-06 0.00316184 0)
(-3.37979e-06 0.00315217 0)
(-4.90367e-06 0.00314201 0)
(-6.33405e-06 0.00313143 0)
(-7.68718e-06 0.00312048 0)
(-8.97143e-06 0.0031092 0)
(-1.01841e-05 0.00309766 0)
(-1.1333e-05 0.00308592 0)
(-1.24259e-05 0.00307404 0)
(-1.34605e-05 0.00306207 0)
(-1.44534e-05 0.00305009 0)
(-1.5417e-05 0.00303815 0)
(-1.63629e-05 0.00302632 0)
(-1.73193e-05 0.00301464 0)
(-1.82931e-05 0.00300315 0)
(-1.92751e-05 0.00299189 0)
(-2.0253e-05 0.00298091 0)
(-2.11973e-05 0.00297026 0)
(-2.20595e-05 0.00296 0)
(-2.2818e-05 0.00295023 0)
(-2.34875e-05 0.00294105 0)
(-2.40974e-05 0.00293254 0)
(-2.46672e-05 0.00292475 0)
(-2.5221e-05 0.00291799 0)
(-2.57775e-05 0.00291224 0)
(-2.63341e-05 0.00290749 0)
(-2.68782e-05 0.00290381 0)
(-2.74321e-05 0.00290132 0)
(-2.80144e-05 0.00290007 0)
(-2.86531e-05 0.0029001 0)
(-2.94088e-05 0.00290148 0)
(-3.03522e-05 0.0029042 0)
(-3.15097e-05 0.00290839 0)
(-3.29967e-05 0.00291414 0)
(-3.48735e-05 0.00292153 0)
(-3.71946e-05 0.00293072 0)
(-3.99609e-05 0.00294186 0)
(-4.30948e-05 0.00295518 0)
(-4.63692e-05 0.00297097 0)
(-4.93324e-05 0.00298962 0)
(-5.12082e-05 0.00301163 0)
(-5.07224e-05 0.00303766 0)
(-4.59905e-05 0.00306853 0)
(-3.42457e-05 0.00310516 0)
(-1.15562e-05 0.00314867 0)
(2.75163e-05 0.00320019 0)
(9.04534e-05 0.00326108 0)
(0.000187411 0.00333343 0)
(0.000331398 0.00342191 0)
(0.000535987 0.00353719 0)
(0.000807748 0.00369938 0)
(0.00113402 0.00393533 0)
(0.00147444 0.00426089 0)
(0.00177885 0.00467802 0)
(0.00201313 0.00516613 0)
(0.0021668 0.00570272 0)
(0.00223599 0.00627964 0)
(0.002214 0.00687869 0)
(0.00211203 0.00745289 0)
(0.00196813 0.00794928 0)
(0.00182408 0.00837108 0)
(0.00169147 0.00874816 0)
(0.00155934 0.0090843 0)
(0.00141966 0.00937485 0)
(0.00127137 0.00962387 0)
(0.00111629 0.00983587 0)
(0.000957751 0.0100091 0)
(0.000798695 0.0101428 0)
(0.000640791 0.0102405 0)
(0.000485525 0.010305 0)
(0.000333359 0.0103371 0)
(0.000183082 0.0103375 0)
(3.59125e-05 0.0103078 0)
(-0.000103963 0.010252 0)
(-0.000234702 0.0102223 0)
(-0.000361115 0.0101807 0)
(-0.000487082 0.0101191 0)
(-0.000610112 0.0100375 0)
(-0.000731074 0.00993793 0)
(-0.000850653 0.00982019 0)
(-0.000968563 0.00968512 0)
(-0.00108549 0.00953358 0)
(-0.0012017 0.00936596 0)
(-0.00131741 0.00918296 0)
(-0.00143308 0.00898518 0)
(-0.001549 0.00877312 0)
(-0.00166553 0.00854734 0)
(-0.00178308 0.00830831 0)
(-0.00190204 0.00805649 0)
(-0.00202287 0.00779231 0)
(-0.00214605 0.00751613 0)
(-0.00227208 0.00722827 0)
(-0.00240152 0.00692898 0)
(-0.00253501 0.00661853 0)
(-0.00267326 0.00629705 0)
(-0.00281694 0.00596459 0)
(-0.00296661 0.00562124 0)
(-0.0031229 0.00526708 0)
(-0.00328711 0.00490211 0)
(-0.00346142 0.00452545 0)
(-0.00366355 0.0041542 0)
(-0.00400407 0.0038919 0)
(-0.00440008 0.00361345 0)
(-0.00485189 0.00329892 0)
(-0.00534627 0.00292825 0)
(-0.0058566 0.00248615 0)
(-0.00634478 0.00196826 0)
(-0.00676492 0.00138518 0)
(-0.00710854 0.000763977 0)
(-0.0073914 0.000132485 0)
(-0.00762787 -0.000557057 0)
(-0.00787151 -0.000863844 0)
(-0.00811562 -0.00223355 0)
(-0.00748363 -0.00122315 0)
)
;
    }
    frontAndBack
    {
        type            empty;
    }
}


// ************************************************************************* //
