/*--------------------------------*- C++ -*----------------------------------*\
  =========                 |
  \\      /  F ield         | OpenFOAM: The Open Source CFD Toolbox
   \\    /   O peration     | Website:  https://openfoam.org
    \\  /    A nd           | Version:  7
     \\/     M anipulation  |
\*---------------------------------------------------------------------------*/
FoamFile
{
    version     2.0;
    format      ascii;
    class       volScalarField;
    location    "0.44";
    object      yPlus;
}
// * * * * * * * * * * * * * * * * * * * * * * * * * * * * * * * * * * * * * //

dimensions      [0 0 0 0 0 0 0];

internalField   uniform 0;

boundaryField
{
    velocityInlet
    {
        type            calculated;
        value           uniform 0;
    }
    pressureOutlet
    {
        type            calculated;
        value           uniform 0;
    }
    fixedWalls
    {
        type            calculated;
        value           nonuniform List<scalar> 
100
(
2.71531
1.7004
1.43827
1.42624
1.38478
1.32317
1.26301
1.20865
1.15686
1.10692
1.06128
1.02328
0.996182
0.982548
0.983733
0.999617
1.02872
1.0683
1.11531
1.16963
1.23454
1.31041
1.39193
1.47122
1.52914
1.52374
1.37912
0.971014
0.640594
1.27376
1.54346
1.59632
1.48105
1.23816
0.893026
0.386914
0.591633
0.833701
0.962619
1.04216
1.09674
1.13945
1.18972
1.26785
1.34129
1.27
0.796888
0.92467
1.40543
1.53206
1.45252
1.26349
1.01841
0.733216
0.357815
0.443658
0.666921
0.792462
0.869561
0.916053
0.942047
0.95408
0.956574
0.954827
0.955756
0.962421
0.972198
0.987222
1.02007
1.07976
1.15905
1.23792
1.28946
1.28466
1.19862
1.0103
0.665119
0.453647
0.869967
1.04542
1.07855
1.00449
0.847415
0.613294
0.215922
0.4831
0.664522
0.76186
0.812987
0.837142
0.844878
0.845413
0.841797
0.838897
0.834177
0.828677
0.817477
0.795037
0.780285
0.708219
)
;
    }
    bottomWall
    {
        type            calculated;
        value           nonuniform List<scalar> 
800
(
2.94479
1.9839
1.61343
1.44032
1.3552
1.29658
1.24766
1.20658
1.17207
1.14254
1.11677
1.09398
1.07361
1.05526
1.0386
1.02339
1.00942
0.996536
0.984604
0.97351
0.963163
0.953481
0.9444
0.935859
0.927808
0.920204
0.913007
0.906184
0.899703
0.89354
0.887669
0.88207
0.876723
0.871612
0.866719
0.86203
0.857534
0.853218
0.84907
0.845083
0.841245
0.837548
0.833985
0.830549
0.827233
0.82403
0.820935
0.817944
0.815048
0.812249
0.809901
0.807956
0.806032
0.804132
0.802257
0.800406
0.798577
0.79677
0.794985
0.793222
0.79148
0.789757
0.788055
0.786373
0.784709
0.783066
0.78144
0.779833
0.778243
0.776671
0.775116
0.773578
0.772057
0.770551
0.769063
0.767589
0.766132
0.764689
0.763261
0.761848
0.76045
0.759064
0.757694
0.756338
0.754994
0.753664
0.752348
0.751043
0.749752
0.748474
0.747208
0.745953
0.744711
0.743481
0.742261
0.741054
0.739857
0.738671
0.737497
0.736333
0.73518
0.734037
0.732904
0.731782
0.730669
0.729566
0.728474
0.727389
0.726316
0.725251
0.724195
0.723148
0.72211
0.72108
0.72006
0.719049
0.718045
0.71705
0.716063
0.715083
0.714112
0.713149
0.712193
0.711245
0.710304
0.709372
0.708446
0.707528
0.706616
0.705713
0.704815
0.703925
0.703041
0.702165
0.701294
0.70043
0.699573
0.698723
0.697879
0.69704
0.696208
0.695382
0.694561
0.693747
0.692938
0.692136
0.691338
0.690547
0.689761
0.68898
0.688325
0.687789
0.687251
0.686712
0.686171
0.68563
0.685087
0.684544
0.683999
0.683453
0.682906
0.682358
0.681808
0.681257
0.680705
0.680153
0.679599
0.679043
0.678487
0.677929
0.677371
0.67681
0.67625
0.675688
0.675124
0.67456
0.673995
0.673427
0.67286
0.672291
0.671722
0.67115
0.670578
0.670004
0.66943
0.668854
0.668278
0.6677
0.667122
0.666541
0.66596
0.665377
0.664794
0.66421
0.663623
0.663037
0.662449
0.66186
0.66127
0.660678
0.660085
0.659492
0.658897
0.6583
0.657704
0.657104
0.656505
0.655903
0.655301
0.654697
0.654093
0.653485
0.652879
0.652269
0.651659
0.651048
0.650436
0.649821
0.649205
0.648588
0.64797
0.647349
0.646729
0.646105
0.64548
0.644854
0.644227
0.643597
0.642966
0.642332
0.641698
0.641061
0.640424
0.63978
0.639142
0.63849
0.637853
0.637187
0.636559
0.635867
0.635262
0.634522
0.633973
0.633138
0.632701
0.631698
0.631461
0.630197
0.63025
0.628641
2.94479
1.98392
1.61347
1.44039
1.35527
1.29665
1.2477
1.20659
1.17203
1.14243
1.1166
1.09373
1.07329
1.05485
1.03812
1.02282
1.00878
0.995822
0.983818
0.972658
0.962249
0.952513
0.943386
0.934809
0.926734
0.91912
0.91193
0.905133
0.898703
0.892617
0.886857
0.881406
0.876254
0.871394
0.866819
0.862534
0.858534
0.854854
0.851464
0.848479
0.845775
0.843682
0.841791
0.840955
0.840104
0.84109
0.841935
0.844776
0.853081
0.81389
1.18039
1.93365
2.39753
2.64285
2.84308
3.00994
2.91087
2.45997
1.48333
2.23164
3.50261
4.40705
5.03671
5.43343
5.63793
5.68611
5.60536
5.43148
5.17076
4.84551
4.46643
4.04705
3.59291
3.10271
2.56536
1.94958
1.19594
1.32121
1.98086
2.48512
2.89909
3.25542
3.56925
3.84796
4.09553
4.31449
4.50699
4.6751
4.82098
4.94672
5.05434
5.14558
5.22178
5.28402
5.33304
5.36885
5.39181
5.4017
5.3966
5.37668
5.34136
5.28972
5.22121
5.13541
5.03181
4.90971
4.76842
4.60733
4.42564
4.22263
3.99738
3.74894
3.47729
3.17949
2.85354
2.49173
2.09069
1.62362
1.05145
1.08502
1.59067
1.90683
2.10023
2.18222
2.15486
2.03359
1.8318
1.63741
1.65022
1.78952
1.83816
1.7659
1.64034
1.53299
1.46236
1.42319
1.40191
1.36117
1.27916
1.18404
1.10547
1.03555
0.943421
0.815552
0.661817
0.496694
0.359509
0.335415
0.381956
0.416948
0.437979
0.458964
0.491898
0.538716
0.591948
0.640855
0.676532
0.696174
0.696187
0.704351
0.777603
0.918041
1.08606
1.25548
1.41422
1.55736
1.67996
1.77943
1.85526
1.91044
1.9526
1.99315
2.04433
2.11725
2.21209
2.33073
2.47407
2.63776
2.81149
2.98464
3.14954
3.30235
3.44111
3.56432
3.67075
3.75971
3.83284
3.88881
3.92759
3.94936
3.95412
3.9416
3.91349
3.86909
3.80827
3.73085
3.63641
3.52458
3.39488
3.24685
3.07997
2.89465
2.70611
2.49957
2.27626
2.04872
1.85909
1.78988
1.88271
2.0704
2.27903
2.47772
2.66718
2.84924
3.01167
3.15561
3.28214
3.39224
3.48687
3.56688
3.63303
3.68605
3.72651
3.75505
3.77207
3.77865
3.77404
3.75848
3.73246
3.69944
3.65659
3.60335
3.54001
3.46684
3.38414
3.29221
3.19136
3.08187
2.96425
2.84059
2.70814
2.56634
2.41466
2.25319
2.08415
1.91478
1.76257
1.6758
1.79267
2.24156
1.04471
2.03872
2.35229
2.17536
1.70701
1.09869
1.55622
2.02737
2.26731
2.32102
2.19028
1.86361
1.37956
1.54041
2.17009
2.5658
2.71922
2.76148
2.80568
2.85413
2.87593
2.8427
2.73759
2.54934
2.27246
1.91351
1.48527
1.01557
0.740966
0.807071
0.781297
0.594716
0.270954
0.524504
0.845985
1.07908
1.30218
1.56367
1.89861
2.31821
2.7622
3.14398
3.43127
3.64733
3.81331
3.94179
4.04104
4.11517
4.16581
4.19294
4.19531
4.17119
4.11884
4.03433
3.9149
3.75541
3.54949
3.28777
2.9544
2.52065
1.94176
1.3347
1.83674
2.57148
3.19185
3.73273
4.21471
4.64406
5.02291
5.34697
5.61207
5.80665
5.92441
5.95252
5.86838
5.65914
5.31613
4.81824
4.18081
3.42422
2.52429
1.77397
1.6419
1.71178
1.66889
1.11097
1.78748
2.52009
2.94682
3.1786
3.25773
3.22687
3.11076
2.92372
2.67466
2.36368
1.98581
1.52699
0.953778
0.251508
0.28417
0.82622
1.30408
1.66606
1.90727
2.03922
2.06228
1.97587
1.80459
1.59392
1.37448
1.17218
1.02196
1.02411
1.22128
1.47265
1.752
1.93416
1.94768
1.80424
1.57651
1.16943
0.983828
1.65466
2.27633
2.83228
3.31183
3.68392
3.92863
4.03903
4.02092
3.8875
3.65974
3.37208
3.0677
2.77719
2.52498
2.348
2.25055
2.27514
2.36006
2.37831
2.19158
2.04579
2.43458
2.8225
2.9978
2.9175
2.62391
2.12354
2.02259
2.48888
2.85915
3.21652
3.5646
3.84148
4.07801
4.28286
4.45968
4.61704
4.75739
4.8844
4.99967
5.10435
5.19903
5.28387
5.35896
5.42434
5.48022
5.52698
5.5652
5.59561
5.6191
5.63658
5.64904
5.65743
5.6625
5.66479
5.66484
5.66322
5.66012
5.65586
5.6506
5.6445
5.63767
5.6302
5.62215
5.6136
5.60459
5.59517
5.58539
5.5753
5.56495
5.5544
5.5437
5.53289
5.52205
5.5112
5.50041
5.48973
5.47919
5.46886
5.45877
5.44899
5.43957
5.4306
5.42213
5.41425
5.407
5.40066
5.39526
5.39074
5.3872
5.38476
5.38349
5.3834
5.38448
5.3867
5.39018
5.39498
5.4012
5.40896
5.41842
5.42986
5.44364
5.46035
5.48072
5.50581
5.53701
5.5761
5.62545
5.68804
5.76777
5.86947
5.9988
6.16137
6.36073
6.5953
6.85368
7.1298
7.41865
7.71387
8.00946
8.30047
8.58285
8.84499
9.08153
9.29042
9.46683
9.61183
9.73203
9.8331
9.91612
9.98053
10.0276
10.0588
10.075
10.076
10.0624
10.0365
10.024
10.0051
9.97605
9.93704
9.88853
9.83051
9.76326
9.68695
9.60166
9.50755
9.40467
9.29306
9.17275
9.04371
8.90589
8.7592
8.60354
8.43875
8.26471
8.08125
7.88822
7.68554
7.47326
7.25179
7.02193
6.78486
6.55842
6.43411
6.32482
6.2319
6.16102
6.12173
6.13004
6.19752
6.32748
6.51611
6.76717
7.05682
7.47015
7.46244
)
;
    }
    frontAndBack
    {
        type            empty;
    }
}


// ************************************************************************* //
