/*--------------------------------*- C++ -*----------------------------------*\
  =========                 |
  \\      /  F ield         | OpenFOAM: The Open Source CFD Toolbox
   \\    /   O peration     | Website:  https://openfoam.org
    \\  /    A nd           | Version:  7
     \\/     M anipulation  |
\*---------------------------------------------------------------------------*/
FoamFile
{
    version     2.0;
    format      ascii;
    class       volScalarField;
    location    "0.12";
    object      k;
}
// * * * * * * * * * * * * * * * * * * * * * * * * * * * * * * * * * * * * * //

dimensions      [0 2 -2 0 0 0 0];

internalField   nonuniform List<scalar> 
70000
(
1.08549e-05
4.21871e-06
2.82426e-06
2.31676e-06
1.99746e-06
1.75722e-06
1.56525e-06
1.40848e-06
1.27768e-06
1.16709e-06
1.07214e-06
9.90235e-07
9.18659e-07
8.56072e-07
8.00624e-07
7.51627e-07
7.07671e-07
6.68481e-07
6.3294e-07
6.01036e-07
5.7185e-07
5.45493e-07
5.21214e-07
4.99146e-07
4.78712e-07
4.60007e-07
4.42628e-07
4.26597e-07
4.11662e-07
3.97812e-07
3.84832e-07
3.72828e-07
3.61382e-07
3.51012e-07
3.40726e-07
3.31855e-07
3.22421e-07
3.14925e-07
3.06141e-07
2.99874e-07
2.91593e-07
2.86499e-07
2.78436e-07
2.7463e-07
2.66703e-07
2.65518e-07
2.58085e-07
2.70282e-07
2.58391e-07
2.70804e-07
1.72794e-05
1.13672e-05
8.52026e-06
7.01023e-06
6.03703e-06
5.31104e-06
4.7316e-06
4.25815e-06
3.86309e-06
3.52907e-06
3.24234e-06
2.99496e-06
2.77879e-06
2.58974e-06
2.42225e-06
2.27422e-06
2.14141e-06
2.02297e-06
1.91556e-06
1.81911e-06
1.7309e-06
1.65119e-06
1.57781e-06
1.51104e-06
1.44929e-06
1.39268e-06
1.34016e-06
1.29164e-06
1.24649e-06
1.20459e-06
1.16531e-06
1.12903e-06
1.09435e-06
1.06305e-06
1.03184e-06
1.00509e-06
9.76459e-07
9.53831e-07
9.27217e-07
9.08249e-07
8.8319e-07
8.67762e-07
8.43346e-07
8.31789e-07
8.07772e-07
8.02669e-07
7.81071e-07
8.06335e-07
7.81466e-07
7.99317e-07
1.937e-05
1.61296e-05
1.32907e-05
1.12893e-05
9.82819e-06
8.69609e-06
7.77837e-06
7.02107e-06
6.38454e-06
5.84364e-06
5.37763e-06
4.9744e-06
4.62115e-06
4.31155e-06
4.03672e-06
3.79336e-06
3.57468e-06
3.37934e-06
3.20201e-06
3.04249e-06
2.89658e-06
2.76443e-06
2.64286e-06
2.53194e-06
2.42951e-06
2.33531e-06
2.24807e-06
2.16725e-06
2.09213e-06
2.02232e-06
1.95683e-06
1.89644e-06
1.83843e-06
1.78641e-06
1.73409e-06
1.68962e-06
1.64165e-06
1.60389e-06
1.55944e-06
1.52759e-06
1.48583e-06
1.45983e-06
1.41913e-06
1.39976e-06
1.35956e-06
1.34853e-06
1.31241e-06
1.33711e-06
1.31006e-06
1.3179e-06
1.9861e-05
1.82601e-05
1.60855e-05
1.42001e-05
1.26398e-05
1.13487e-05
1.02607e-05
9.33889e-06
8.54735e-06
7.8646e-06
7.26987e-06
6.75074e-06
6.29248e-06
5.88835e-06
5.52753e-06
5.20636e-06
4.91644e-06
4.65631e-06
4.41946e-06
4.20554e-06
4.00955e-06
3.83126e-06
3.66723e-06
3.51681e-06
3.37805e-06
3.24978e-06
3.13116e-06
3.02078e-06
2.91823e-06
2.82276e-06
2.73295e-06
2.65036e-06
2.57046e-06
2.49929e-06
2.42703e-06
2.366e-06
2.29985e-06
2.24761e-06
2.18657e-06
2.14207e-06
2.0849e-06
2.04821e-06
1.99265e-06
1.96495e-06
1.90964e-06
1.89135e-06
1.8406e-06
1.85409e-06
1.83509e-06
1.82222e-06
1.99706e-05
1.7846e-05
1.60749e-05
1.47667e-05
1.36025e-05
1.25377e-05
1.15691e-05
1.07018e-05
9.92059e-06
9.22543e-06
8.6052e-06
8.05301e-06
7.55717e-06
7.11382e-06
6.71278e-06
6.35172e-06
6.02256e-06
5.72455e-06
5.45145e-06
5.20283e-06
4.97411e-06
4.76439e-06
4.57104e-06
4.39227e-06
4.22732e-06
4.0736e-06
3.93146e-06
3.79836e-06
3.67456e-06
3.55899e-06
3.44978e-06
3.34953e-06
3.25177e-06
3.16505e-06
3.07641e-06
3.00143e-06
2.92048e-06
2.85545e-06
2.78113e-06
2.72493e-06
2.65558e-06
2.60842e-06
2.54146e-06
2.50456e-06
2.43752e-06
2.4119e-06
2.34854e-06
2.34617e-06
2.33012e-06
2.2946e-06
2.00096e-05
1.47039e-05
1.37484e-05
1.32117e-05
1.25918e-05
1.19275e-05
1.12778e-05
1.06575e-05
1.008e-05
9.54621e-06
9.04533e-06
8.57945e-06
8.14566e-06
7.74633e-06
7.3748e-06
7.0325e-06
6.71442e-06
6.42164e-06
6.14999e-06
5.89909e-06
5.66623e-06
5.44972e-06
5.24898e-06
5.06091e-06
4.88689e-06
4.72266e-06
4.57045e-06
4.42664e-06
4.29239e-06
4.16651e-06
4.04673e-06
3.93672e-06
3.82861e-06
3.73251e-06
3.63421e-06
3.54987e-06
3.46032e-06
3.38581e-06
3.30394e-06
3.23827e-06
3.16225e-06
3.10571e-06
3.03294e-06
2.98702e-06
2.91382e-06
2.88143e-06
2.8125e-06
2.79173e-06
2.76876e-06
2.71677e-06
2.01332e-05
1.54661e-05
9.63486e-06
9.39917e-06
9.49379e-06
9.49303e-06
9.43422e-06
9.29563e-06
9.05457e-06
8.78092e-06
8.48562e-06
8.1886e-06
7.89646e-06
7.61358e-06
7.3366e-06
7.076e-06
6.82891e-06
6.59446e-06
6.37164e-06
6.15985e-06
5.95961e-06
5.76866e-06
5.58944e-06
5.41786e-06
5.25773e-06
5.10355e-06
4.95981e-06
4.82225e-06
4.69288e-06
4.57056e-06
4.45311e-06
4.34454e-06
4.23726e-06
4.14059e-06
4.04261e-06
3.95579e-06
3.86656e-06
3.788e-06
3.70659e-06
3.63553e-06
3.56042e-06
3.4971e-06
3.42618e-06
3.37192e-06
3.30181e-06
3.25945e-06
3.19534e-06
3.15617e-06
3.12958e-06
3.06567e-06
2.01714e-05
1.86751e-05
8.68813e-06
5.54047e-06
5.63107e-06
5.93541e-06
6.29333e-06
6.57831e-06
6.75728e-06
6.86574e-06
6.88463e-06
6.86514e-06
6.81266e-06
6.72421e-06
6.61336e-06
6.49148e-06
6.35398e-06
6.21168e-06
6.06979e-06
5.92682e-06
5.78732e-06
5.64852e-06
5.51565e-06
5.38421e-06
5.25923e-06
5.1375e-06
5.02326e-06
4.91143e-06
4.8048e-06
4.7022e-06
4.60245e-06
4.50856e-06
4.41561e-06
4.32926e-06
4.24349e-06
4.16328e-06
4.08479e-06
4.00989e-06
3.93802e-06
3.86802e-06
3.80209e-06
3.73722e-06
3.67601e-06
3.61704e-06
3.55846e-06
3.50677e-06
3.45525e-06
3.40381e-06
3.37704e-06
3.30918e-06
2.01672e-05
1.97237e-05
1.61648e-05
4.85839e-06
3.04248e-06
3.10603e-06
3.37519e-06
3.80493e-06
4.17015e-06
4.48768e-06
4.73427e-06
4.92349e-06
5.06339e-06
5.16331e-06
5.22145e-06
5.2571e-06
5.26045e-06
5.25166e-06
5.22995e-06
5.1899e-06
5.14331e-06
5.08635e-06
5.02743e-06
4.96099e-06
4.89511e-06
4.82336e-06
4.75251e-06
4.67912e-06
4.60726e-06
4.53568e-06
4.46489e-06
4.39601e-06
4.32783e-06
4.26136e-06
4.19716e-06
4.13256e-06
4.07309e-06
4.01018e-06
3.95584e-06
3.89561e-06
3.84592e-06
3.78774e-06
3.74198e-06
3.68619e-06
3.6435e-06
3.59064e-06
3.55376e-06
3.50001e-06
3.47621e-06
3.41379e-06
2.01477e-05
1.99342e-05
1.90648e-05
1.44948e-05
5.23795e-06
2.15409e-06
1.91441e-06
1.99378e-06
2.20719e-06
2.50557e-06
2.78075e-06
3.03349e-06
3.25754e-06
3.45366e-06
3.61684e-06
3.75434e-06
3.86571e-06
3.95316e-06
4.02489e-06
4.07603e-06
4.11542e-06
4.13817e-06
4.15417e-06
4.15601e-06
4.15304e-06
4.14437e-06
4.13044e-06
4.10996e-06
4.08716e-06
4.06027e-06
4.03153e-06
4.00009e-06
3.96813e-06
3.93299e-06
3.90002e-06
3.86194e-06
3.82934e-06
3.78932e-06
3.75713e-06
3.71482e-06
3.68372e-06
3.64046e-06
3.61104e-06
3.56751e-06
3.53995e-06
3.49621e-06
3.4724e-06
3.42638e-06
3.40811e-06
3.35886e-06
2.01217e-05
1.9966e-05
1.9642e-05
1.85448e-05
1.5208e-05
8.3514e-06
3.10188e-06
1.63265e-06
1.44223e-06
1.44925e-06
1.52611e-06
1.68678e-06
1.86837e-06
2.04461e-06
2.21429e-06
2.37243e-06
2.51955e-06
2.64929e-06
2.76793e-06
2.87007e-06
2.96228e-06
3.03923e-06
3.10799e-06
3.16385e-06
3.21235e-06
3.25101e-06
3.28453e-06
3.30957e-06
3.33028e-06
3.34461e-06
3.35533e-06
3.36127e-06
3.36407e-06
3.36312e-06
3.36061e-06
3.35416e-06
3.34844e-06
3.3363e-06
3.3285e-06
3.31251e-06
3.303e-06
3.28386e-06
3.27301e-06
3.25148e-06
3.23962e-06
3.21608e-06
3.2038e-06
3.17769e-06
3.16756e-06
3.13916e-06
2.00982e-05
1.99327e-05
1.9757e-05
1.93516e-05
1.85045e-05
1.65334e-05
1.2322e-05
6.85563e-06
2.98594e-06
1.49329e-06
1.24308e-06
1.14749e-06
1.15156e-06
1.19381e-06
1.28598e-06
1.39183e-06
1.5045e-06
1.61292e-06
1.72329e-06
1.8268e-06
1.92726e-06
2.01888e-06
2.10603e-06
2.18417e-06
2.25779e-06
2.32272e-06
2.3836e-06
2.43671e-06
2.48615e-06
2.52868e-06
2.56833e-06
2.60153e-06
2.633e-06
2.65798e-06
2.68267e-06
2.70055e-06
2.71977e-06
2.73172e-06
2.74596e-06
2.75328e-06
2.76305e-06
2.7668e-06
2.77236e-06
2.7736e-06
2.77493e-06
2.77387e-06
2.77282e-06
2.76821e-06
2.76726e-06
2.76043e-06
2.00782e-05
1.98875e-05
1.97566e-05
1.94599e-05
1.91446e-05
1.86396e-05
1.75536e-05
1.54239e-05
1.17401e-05
7.44738e-06
3.98545e-06
1.91654e-06
1.20933e-06
1.05727e-06
9.82263e-07
9.42226e-07
9.53247e-07
9.86538e-07
1.04895e-06
1.11182e-06
1.18119e-06
1.25007e-06
1.32096e-06
1.38996e-06
1.45898e-06
1.5236e-06
1.5873e-06
1.64593e-06
1.70342e-06
1.75558e-06
1.80688e-06
1.85244e-06
1.89769e-06
1.93696e-06
1.97638e-06
2.00984e-06
2.04385e-06
2.07218e-06
2.10109e-06
2.12495e-06
2.1491e-06
2.16901e-06
2.18892e-06
2.20512e-06
2.22152e-06
2.23376e-06
2.24779e-06
2.25591e-06
2.26801e-06
2.27523e-06
2.00614e-05
1.98538e-05
1.9734e-05
1.94701e-05
1.92539e-05
1.90457e-05
1.87348e-05
1.81899e-05
1.70971e-05
1.52345e-05
1.2572e-05
9.24383e-06
5.98329e-06
3.48792e-06
1.88768e-06
1.17026e-06
9.65284e-07
8.91029e-07
8.36841e-07
7.96115e-07
7.97743e-07
8.10962e-07
8.40484e-07
8.7858e-07
9.18745e-07
9.60443e-07
1.00514e-06
1.04897e-06
1.09516e-06
1.13939e-06
1.18491e-06
1.22716e-06
1.2704e-06
1.31006e-06
1.35035e-06
1.38707e-06
1.42423e-06
1.45789e-06
1.49169e-06
1.52229e-06
1.5526e-06
1.58017e-06
1.6071e-06
1.63176e-06
1.65539e-06
1.67719e-06
1.69784e-06
1.71714e-06
1.73422e-06
1.75383e-06
2.00476e-05
1.98303e-05
1.97073e-05
1.94479e-05
1.92708e-05
1.91136e-05
1.89643e-05
1.87498e-05
1.84622e-05
1.79134e-05
1.70799e-05
1.57062e-05
1.38922e-05
1.1547e-05
8.87248e-06
6.26564e-06
4.09255e-06
2.51685e-06
1.51403e-06
1.03444e-06
8.63975e-07
7.99653e-07
7.51608e-07
7.11347e-07
6.81828e-07
6.78471e-07
6.84177e-07
6.97982e-07
7.20052e-07
7.43228e-07
7.68762e-07
7.94197e-07
8.22459e-07
8.50238e-07
8.79836e-07
9.08771e-07
9.38696e-07
9.67414e-07
9.96452e-07
1.02428e-06
1.0518e-06
1.07844e-06
1.10422e-06
1.12957e-06
1.15329e-06
1.17716e-06
1.19893e-06
1.22124e-06
1.24071e-06
1.2625e-06
2.00363e-05
1.98124e-05
1.96848e-05
1.94174e-05
1.92567e-05
1.91071e-05
1.89992e-05
1.88486e-05
1.8712e-05
1.85011e-05
1.82491e-05
1.78348e-05
1.72359e-05
1.63679e-05
1.51715e-05
1.36402e-05
1.18369e-05
9.75685e-06
7.61486e-06
5.61585e-06
3.93298e-06
2.65059e-06
1.73077e-06
1.16417e-06
8.83325e-07
7.66014e-07
7.12284e-07
6.74973e-07
6.39728e-07
6.10036e-07
5.89945e-07
5.82514e-07
5.84531e-07
5.9029e-07
6.01654e-07
6.15024e-07
6.29623e-07
6.44905e-07
6.60882e-07
6.77751e-07
6.95177e-07
7.13508e-07
7.31591e-07
7.50767e-07
7.68851e-07
7.88067e-07
8.05842e-07
8.24592e-07
8.41562e-07
8.60126e-07
2.00272e-05
1.97985e-05
1.96656e-05
1.93953e-05
1.92308e-05
1.90795e-05
1.89811e-05
1.88519e-05
1.87362e-05
1.85966e-05
1.84609e-05
1.82906e-05
1.8083e-05
1.7797e-05
1.74128e-05
1.68707e-05
1.61657e-05
1.52472e-05
1.41099e-05
1.2771e-05
1.12741e-05
9.61555e-06
7.90748e-06
6.26957e-06
4.78418e-06
3.54233e-06
2.5585e-06
1.80547e-06
1.27356e-06
9.45991e-07
7.70713e-07
6.84912e-07
6.39835e-07
6.088e-07
5.8145e-07
5.55345e-07
5.32522e-07
5.16524e-07
5.0634e-07
5.03936e-07
5.05301e-07
5.09182e-07
5.14931e-07
5.23201e-07
5.30859e-07
5.40416e-07
5.48905e-07
5.59236e-07
5.68463e-07
5.79872e-07
2.00201e-05
1.97898e-05
1.96457e-05
1.93786e-05
1.92066e-05
1.90501e-05
1.8943e-05
1.88254e-05
1.87147e-05
1.85899e-05
1.84727e-05
1.83464e-05
1.82225e-05
1.80792e-05
1.79234e-05
1.77243e-05
1.74816e-05
1.71631e-05
1.67604e-05
1.62395e-05
1.56059e-05
1.48289e-05
1.39161e-05
1.28636e-05
1.1714e-05
1.04661e-05
9.1368e-06
7.7911e-06
6.4806e-06
5.26721e-06
4.17233e-06
3.25101e-06
2.49366e-06
1.88175e-06
1.40761e-06
1.06551e-06
8.41396e-07
7.0731e-07
6.31411e-07
5.87861e-07
5.59205e-07
5.36382e-07
5.1569e-07
4.96427e-07
4.77268e-07
4.62851e-07
4.50022e-07
4.43626e-07
4.38431e-07
4.38809e-07
2.00145e-05
1.97897e-05
1.96195e-05
1.93649e-05
1.91859e-05
1.9023e-05
1.89069e-05
1.87889e-05
1.86746e-05
1.85543e-05
1.84422e-05
1.83248e-05
1.8213e-05
1.80941e-05
1.79808e-05
1.78587e-05
1.77347e-05
1.75919e-05
1.74333e-05
1.72391e-05
1.70099e-05
1.67262e-05
1.63856e-05
1.59692e-05
1.54777e-05
1.49014e-05
1.42397e-05
1.34833e-05
1.26524e-05
1.17406e-05
1.07891e-05
9.77709e-06
8.72681e-06
7.6712e-06
6.63947e-06
5.65598e-06
4.74848e-06
3.92332e-06
3.20729e-06
2.59899e-06
2.08418e-06
1.65645e-06
1.30989e-06
1.04304e-06
8.47488e-07
7.14883e-07
6.2633e-07
5.73813e-07
5.3563e-07
5.17996e-07
2.00103e-05
1.97936e-05
1.95929e-05
1.93509e-05
1.9167e-05
1.89972e-05
1.88733e-05
1.87527e-05
1.86346e-05
1.85116e-05
1.83964e-05
1.8279e-05
1.81681e-05
1.80561e-05
1.79484e-05
1.78396e-05
1.77322e-05
1.76234e-05
1.75158e-05
1.74035e-05
1.72867e-05
1.71586e-05
1.70171e-05
1.6855e-05
1.6668e-05
1.64503e-05
1.61972e-05
1.59012e-05
1.55588e-05
1.51667e-05
1.47194e-05
1.42234e-05
1.36664e-05
1.306e-05
1.23968e-05
1.16975e-05
1.09525e-05
1.01926e-05
9.39925e-06
8.58839e-06
7.77066e-06
6.96772e-06
6.18512e-06
5.44357e-06
4.74116e-06
4.10105e-06
3.50195e-06
2.9828e-06
2.49891e-06
2.08886e-06
2.00071e-05
1.98011e-05
1.95683e-05
1.93373e-05
1.91492e-05
1.8973e-05
1.88411e-05
1.87181e-05
1.85956e-05
1.84702e-05
1.83498e-05
1.82311e-05
1.81156e-05
1.80023e-05
1.78918e-05
1.77839e-05
1.7679e-05
1.75771e-05
1.74756e-05
1.73769e-05
1.7277e-05
1.71791e-05
1.70795e-05
1.69819e-05
1.68777e-05
1.67729e-05
1.66565e-05
1.65331e-05
1.63919e-05
1.62402e-05
1.60614e-05
1.58678e-05
1.56434e-05
1.5397e-05
1.51139e-05
1.48069e-05
1.44601e-05
1.40872e-05
1.36752e-05
1.32377e-05
1.27611e-05
1.2261e-05
1.17272e-05
1.11795e-05
1.06046e-05
1.00232e-05
9.4254e-06
8.82552e-06
8.18838e-06
7.55755e-06
2.00047e-05
1.98097e-05
1.95452e-05
1.9324e-05
1.91317e-05
1.89504e-05
1.881e-05
1.86848e-05
1.85579e-05
1.84305e-05
1.83048e-05
1.8184e-05
1.80638e-05
1.79486e-05
1.78337e-05
1.77243e-05
1.76146e-05
1.75111e-05
1.74066e-05
1.73078e-05
1.72094e-05
1.71172e-05
1.70231e-05
1.69358e-05
1.68444e-05
1.67599e-05
1.66697e-05
1.65847e-05
1.64947e-05
1.64098e-05
1.63138e-05
1.62208e-05
1.61179e-05
1.60114e-05
1.58902e-05
1.57658e-05
1.56232e-05
1.54728e-05
1.53011e-05
1.51224e-05
1.492e-05
1.47044e-05
1.44648e-05
1.4215e-05
1.39383e-05
1.36478e-05
1.33355e-05
1.30102e-05
1.26578e-05
1.22893e-05
2.0003e-05
1.98187e-05
1.95237e-05
1.93101e-05
1.91142e-05
1.89294e-05
1.87802e-05
1.86526e-05
1.85219e-05
1.83926e-05
1.82619e-05
1.81389e-05
1.80143e-05
1.78967e-05
1.77778e-05
1.7666e-05
1.75524e-05
1.74463e-05
1.73384e-05
1.72367e-05
1.71345e-05
1.70388e-05
1.69415e-05
1.68527e-05
1.67597e-05
1.66774e-05
1.65922e-05
1.65125e-05
1.64304e-05
1.63564e-05
1.62746e-05
1.62002e-05
1.6122e-05
1.60467e-05
1.59665e-05
1.5893e-05
1.58129e-05
1.57341e-05
1.56478e-05
1.55657e-05
1.54742e-05
1.53789e-05
1.52747e-05
1.51714e-05
1.50547e-05
1.49308e-05
1.48001e-05
1.4662e-05
1.4511e-05
1.43567e-05
2.00018e-05
1.98274e-05
1.95041e-05
1.92954e-05
1.90965e-05
1.89098e-05
1.87518e-05
1.86215e-05
1.84877e-05
1.83565e-05
1.82217e-05
1.80961e-05
1.79677e-05
1.78475e-05
1.77252e-05
1.76106e-05
1.74938e-05
1.73847e-05
1.72739e-05
1.71689e-05
1.7064e-05
1.6965e-05
1.68644e-05
1.67726e-05
1.66763e-05
1.65901e-05
1.65015e-05
1.64176e-05
1.63335e-05
1.62573e-05
1.61748e-05
1.61007e-05
1.60277e-05
1.59572e-05
1.58828e-05
1.58174e-05
1.57482e-05
1.56818e-05
1.56119e-05
1.55504e-05
1.5483e-05
1.54167e-05
1.53485e-05
1.52887e-05
1.52212e-05
1.5153e-05
1.5085e-05
1.50184e-05
1.49459e-05
1.48807e-05
2.00009e-05
1.98304e-05
1.94878e-05
1.92802e-05
1.90789e-05
1.8892e-05
1.87257e-05
1.85919e-05
1.84558e-05
1.83227e-05
1.81846e-05
1.80563e-05
1.79248e-05
1.7802e-05
1.76767e-05
1.75593e-05
1.74397e-05
1.73277e-05
1.72143e-05
1.7106e-05
1.69987e-05
1.68969e-05
1.67933e-05
1.66992e-05
1.65998e-05
1.65109e-05
1.64196e-05
1.63323e-05
1.62449e-05
1.61659e-05
1.60798e-05
1.60016e-05
1.59245e-05
1.58502e-05
1.57716e-05
1.57041e-05
1.5633e-05
1.55643e-05
1.54945e-05
1.5436e-05
1.53725e-05
1.53108e-05
1.52478e-05
1.51958e-05
1.51363e-05
1.50787e-05
1.50218e-05
1.4971e-05
1.49158e-05
1.48709e-05
2.00003e-05
1.98287e-05
1.94745e-05
1.92642e-05
1.90612e-05
1.88761e-05
1.87019e-05
1.85643e-05
1.84264e-05
1.82918e-05
1.81509e-05
1.80203e-05
1.78861e-05
1.77609e-05
1.7633e-05
1.75131e-05
1.73909e-05
1.72763e-05
1.71605e-05
1.70495e-05
1.69396e-05
1.68356e-05
1.67292e-05
1.66331e-05
1.6531e-05
1.644e-05
1.63464e-05
1.62569e-05
1.61666e-05
1.60855e-05
1.59967e-05
1.59155e-05
1.58352e-05
1.57583e-05
1.56755e-05
1.56053e-05
1.55303e-05
1.5458e-05
1.53839e-05
1.53222e-05
1.52533e-05
1.51877e-05
1.5121e-05
1.50668e-05
1.50042e-05
1.49453e-05
1.48856e-05
1.48361e-05
1.47829e-05
1.4741e-05
2e-05
1.9827e-05
1.94633e-05
1.92467e-05
1.90427e-05
1.88614e-05
1.86804e-05
1.85389e-05
1.83995e-05
1.82641e-05
1.8121e-05
1.79884e-05
1.78518e-05
1.7725e-05
1.75947e-05
1.74728e-05
1.73484e-05
1.72316e-05
1.71135e-05
1.70002e-05
1.6888e-05
1.67821e-05
1.66731e-05
1.65753e-05
1.6471e-05
1.63782e-05
1.62825e-05
1.61915e-05
1.60985e-05
1.60159e-05
1.59252e-05
1.58417e-05
1.57588e-05
1.56802e-05
1.55945e-05
1.55222e-05
1.54438e-05
1.5369e-05
1.5292e-05
1.52279e-05
1.51548e-05
1.50861e-05
1.50163e-05
1.49587e-05
1.4892e-05
1.48301e-05
1.47663e-05
1.47141e-05
1.46573e-05
1.46111e-05
1.99999e-05
1.98258e-05
1.9455e-05
1.92287e-05
1.90243e-05
1.88484e-05
1.86619e-05
1.85163e-05
1.83757e-05
1.824e-05
1.80953e-05
1.79613e-05
1.78228e-05
1.76948e-05
1.75625e-05
1.74391e-05
1.73128e-05
1.71944e-05
1.70742e-05
1.69593e-05
1.68449e-05
1.67375e-05
1.66264e-05
1.65269e-05
1.64209e-05
1.63266e-05
1.62291e-05
1.61369e-05
1.60419e-05
1.59578e-05
1.58655e-05
1.57804e-05
1.56953e-05
1.56151e-05
1.55277e-05
1.54535e-05
1.53723e-05
1.5296e-05
1.5217e-05
1.51507e-05
1.50745e-05
1.5004e-05
1.4932e-05
1.48718e-05
1.48019e-05
1.4738e-05
1.46713e-05
1.4617e-05
1.45573e-05
1.45079e-05
1.99999e-05
1.98252e-05
1.94498e-05
1.92114e-05
1.90067e-05
1.88374e-05
1.86469e-05
1.84972e-05
1.83556e-05
1.82202e-05
1.80747e-05
1.79396e-05
1.77998e-05
1.7671e-05
1.75373e-05
1.7413e-05
1.72853e-05
1.71656e-05
1.70438e-05
1.69277e-05
1.68115e-05
1.67027e-05
1.65902e-05
1.64892e-05
1.63821e-05
1.62866e-05
1.61876e-05
1.60944e-05
1.5998e-05
1.59125e-05
1.5819e-05
1.57329e-05
1.56455e-05
1.5564e-05
1.54756e-05
1.53996e-05
1.53159e-05
1.52387e-05
1.51582e-05
1.50898e-05
1.50111e-05
1.49395e-05
1.4866e-05
1.48035e-05
1.47311e-05
1.46659e-05
1.45974e-05
1.45416e-05
1.44796e-05
1.44276e-05
1.99999e-05
1.9825e-05
1.94475e-05
1.91957e-05
1.89906e-05
1.88282e-05
1.8636e-05
1.84822e-05
1.83397e-05
1.82052e-05
1.80595e-05
1.7924e-05
1.77835e-05
1.76544e-05
1.75198e-05
1.7395e-05
1.72664e-05
1.7146e-05
1.70229e-05
1.69061e-05
1.67887e-05
1.66788e-05
1.65656e-05
1.64633e-05
1.63554e-05
1.62593e-05
1.61591e-05
1.60652e-05
1.59681e-05
1.58814e-05
1.57867e-05
1.57004e-05
1.56111e-05
1.55283e-05
1.54392e-05
1.53617e-05
1.52759e-05
1.5198e-05
1.51163e-05
1.50459e-05
1.49652e-05
1.48929e-05
1.48181e-05
1.47534e-05
1.46791e-05
1.4613e-05
1.4543e-05
1.44861e-05
1.4422e-05
1.4368e-05
1.99999e-05
1.98252e-05
1.94477e-05
1.91824e-05
1.89764e-05
1.88208e-05
1.86294e-05
1.84718e-05
1.83284e-05
1.81951e-05
1.80502e-05
1.79148e-05
1.77741e-05
1.76452e-05
1.75104e-05
1.73857e-05
1.72567e-05
1.71363e-05
1.70124e-05
1.68956e-05
1.67773e-05
1.66667e-05
1.65534e-05
1.64502e-05
1.63419e-05
1.62457e-05
1.61447e-05
1.60505e-05
1.59534e-05
1.58656e-05
1.57701e-05
1.5684e-05
1.55931e-05
1.55093e-05
1.54197e-05
1.5341e-05
1.52537e-05
1.51752e-05
1.50924e-05
1.50203e-05
1.4938e-05
1.48652e-05
1.4789e-05
1.47226e-05
1.46467e-05
1.45799e-05
1.45085e-05
1.44506e-05
1.43847e-05
1.4329e-05
1.99999e-05
1.98259e-05
1.94503e-05
1.9172e-05
1.89644e-05
1.88148e-05
1.86268e-05
1.8466e-05
1.83217e-05
1.81901e-05
1.80468e-05
1.79122e-05
1.77721e-05
1.76439e-05
1.75096e-05
1.73857e-05
1.72569e-05
1.71371e-05
1.70128e-05
1.68964e-05
1.67778e-05
1.66671e-05
1.6554e-05
1.64505e-05
1.63423e-05
1.62464e-05
1.61449e-05
1.6051e-05
1.59541e-05
1.58658e-05
1.57699e-05
1.56842e-05
1.55924e-05
1.55079e-05
1.5418e-05
1.53387e-05
1.52502e-05
1.51713e-05
1.50875e-05
1.50142e-05
1.49306e-05
1.48575e-05
1.47799e-05
1.47121e-05
1.46348e-05
1.45674e-05
1.4495e-05
1.44359e-05
1.43683e-05
1.43112e-05
1.99999e-05
1.98271e-05
1.94555e-05
1.91653e-05
1.89549e-05
1.88104e-05
1.8628e-05
1.8465e-05
1.83197e-05
1.81903e-05
1.80491e-05
1.79159e-05
1.77767e-05
1.76496e-05
1.7516e-05
1.73933e-05
1.72649e-05
1.71463e-05
1.70219e-05
1.69067e-05
1.67879e-05
1.66776e-05
1.65653e-05
1.64616e-05
1.63541e-05
1.6259e-05
1.61575e-05
1.60643e-05
1.59681e-05
1.58795e-05
1.57838e-05
1.56987e-05
1.56063e-05
1.55215e-05
1.54314e-05
1.53518e-05
1.52626e-05
1.51834e-05
1.5099e-05
1.50249e-05
1.49405e-05
1.48671e-05
1.47886e-05
1.472e-05
1.46417e-05
1.45739e-05
1.45008e-05
1.44406e-05
1.4372e-05
1.43137e-05
1.99999e-05
1.98288e-05
1.94628e-05
1.91621e-05
1.89483e-05
1.88071e-05
1.86326e-05
1.84684e-05
1.83222e-05
1.81948e-05
1.80562e-05
1.79253e-05
1.77878e-05
1.76625e-05
1.75305e-05
1.74099e-05
1.72827e-05
1.7166e-05
1.70421e-05
1.69288e-05
1.68104e-05
1.67011e-05
1.65902e-05
1.6487e-05
1.63808e-05
1.6287e-05
1.6186e-05
1.60943e-05
1.59992e-05
1.59108e-05
1.58159e-05
1.57319e-05
1.56393e-05
1.55545e-05
1.54647e-05
1.53851e-05
1.52953e-05
1.5216e-05
1.5131e-05
1.50562e-05
1.4971e-05
1.48974e-05
1.48178e-05
1.47484e-05
1.46689e-05
1.46007e-05
1.45267e-05
1.44653e-05
1.43952e-05
1.43356e-05
1.99999e-05
1.9831e-05
1.9472e-05
1.9163e-05
1.89445e-05
1.88054e-05
1.864e-05
1.84765e-05
1.83292e-05
1.82041e-05
1.80688e-05
1.79409e-05
1.78053e-05
1.76823e-05
1.75523e-05
1.74342e-05
1.73086e-05
1.71945e-05
1.70716e-05
1.69606e-05
1.68431e-05
1.67354e-05
1.66262e-05
1.65241e-05
1.64197e-05
1.63276e-05
1.62277e-05
1.61379e-05
1.60444e-05
1.59569e-05
1.58631e-05
1.57805e-05
1.56883e-05
1.56041e-05
1.55151e-05
1.54359e-05
1.5346e-05
1.5267e-05
1.51821e-05
1.51071e-05
1.50215e-05
1.49479e-05
1.48679e-05
1.47981e-05
1.47178e-05
1.46495e-05
1.4575e-05
1.45127e-05
1.44413e-05
1.43803e-05
1.99999e-05
1.98337e-05
1.94829e-05
1.91675e-05
1.89437e-05
1.88052e-05
1.86496e-05
1.84883e-05
1.83402e-05
1.82175e-05
1.80855e-05
1.79612e-05
1.7828e-05
1.77077e-05
1.75802e-05
1.74651e-05
1.73416e-05
1.72304e-05
1.71092e-05
1.70008e-05
1.68847e-05
1.67792e-05
1.6672e-05
1.65716e-05
1.64695e-05
1.63794e-05
1.62812e-05
1.61938e-05
1.61022e-05
1.6016e-05
1.5924e-05
1.5843e-05
1.57517e-05
1.56685e-05
1.55806e-05
1.55021e-05
1.54124e-05
1.53342e-05
1.52497e-05
1.51747e-05
1.50888e-05
1.50157e-05
1.49357e-05
1.48656e-05
1.47846e-05
1.47164e-05
1.46415e-05
1.45786e-05
1.45059e-05
1.44435e-05
1.99999e-05
1.98369e-05
1.94947e-05
1.9176e-05
1.89462e-05
1.88067e-05
1.86606e-05
1.85035e-05
1.83549e-05
1.82342e-05
1.81058e-05
1.79855e-05
1.78551e-05
1.77379e-05
1.76132e-05
1.75014e-05
1.73806e-05
1.72726e-05
1.71536e-05
1.70482e-05
1.69339e-05
1.6831e-05
1.67261e-05
1.66279e-05
1.65285e-05
1.64408e-05
1.63447e-05
1.62603e-05
1.6171e-05
1.60865e-05
1.59967e-05
1.59177e-05
1.58276e-05
1.57459e-05
1.56596e-05
1.5582e-05
1.54928e-05
1.54158e-05
1.53321e-05
1.52573e-05
1.51714e-05
1.50991e-05
1.50194e-05
1.49491e-05
1.48677e-05
1.47999e-05
1.47248e-05
1.46612e-05
1.45872e-05
1.45236e-05
1.99999e-05
1.98405e-05
1.95074e-05
1.91876e-05
1.89519e-05
1.88105e-05
1.8673e-05
1.85217e-05
1.83731e-05
1.82542e-05
1.81292e-05
1.80133e-05
1.78861e-05
1.7772e-05
1.76505e-05
1.75421e-05
1.74246e-05
1.73199e-05
1.72037e-05
1.71013e-05
1.69894e-05
1.68894e-05
1.6787e-05
1.66915e-05
1.65951e-05
1.65101e-05
1.64166e-05
1.63355e-05
1.62489e-05
1.61666e-05
1.60794e-05
1.60027e-05
1.59142e-05
1.58344e-05
1.57501e-05
1.56735e-05
1.55852e-05
1.55097e-05
1.54271e-05
1.53525e-05
1.52671e-05
1.51961e-05
1.51167e-05
1.50463e-05
1.49648e-05
1.48976e-05
1.48225e-05
1.47582e-05
1.46829e-05
1.46185e-05
1.99999e-05
1.98444e-05
1.95206e-05
1.9202e-05
1.89607e-05
1.88165e-05
1.8686e-05
1.85419e-05
1.8394e-05
1.82768e-05
1.8155e-05
1.80437e-05
1.79199e-05
1.78092e-05
1.7691e-05
1.75863e-05
1.74725e-05
1.73711e-05
1.72582e-05
1.71589e-05
1.70496e-05
1.69528e-05
1.68531e-05
1.67608e-05
1.66675e-05
1.65856e-05
1.6495e-05
1.64176e-05
1.63339e-05
1.62542e-05
1.61701e-05
1.60958e-05
1.60091e-05
1.59319e-05
1.58497e-05
1.57744e-05
1.56873e-05
1.56138e-05
1.55323e-05
1.54582e-05
1.53737e-05
1.53042e-05
1.52252e-05
1.51548e-05
1.50735e-05
1.50073e-05
1.49321e-05
1.48671e-05
1.47907e-05
1.47256e-05
1.99999e-05
1.98484e-05
1.95341e-05
1.92187e-05
1.89725e-05
1.88249e-05
1.86996e-05
1.85636e-05
1.84172e-05
1.83016e-05
1.81827e-05
1.8076e-05
1.79558e-05
1.78487e-05
1.77339e-05
1.76329e-05
1.7523e-05
1.74252e-05
1.73158e-05
1.72197e-05
1.71133e-05
1.702e-05
1.69229e-05
1.6834e-05
1.67442e-05
1.66654e-05
1.65783e-05
1.65047e-05
1.6424e-05
1.63474e-05
1.62667e-05
1.6195e-05
1.61105e-05
1.60361e-05
1.59564e-05
1.58823e-05
1.5797e-05
1.57258e-05
1.56454e-05
1.55719e-05
1.54888e-05
1.5421e-05
1.53424e-05
1.52721e-05
1.51915e-05
1.51263e-05
1.50509e-05
1.49852e-05
1.4908e-05
1.48425e-05
1.99999e-05
1.98526e-05
1.95477e-05
1.92371e-05
1.89872e-05
1.88356e-05
1.87137e-05
1.8586e-05
1.84423e-05
1.83282e-05
1.8212e-05
1.81097e-05
1.79933e-05
1.78897e-05
1.77783e-05
1.76811e-05
1.75753e-05
1.7481e-05
1.73755e-05
1.72825e-05
1.71793e-05
1.70894e-05
1.69951e-05
1.69099e-05
1.68235e-05
1.67481e-05
1.66647e-05
1.65951e-05
1.65177e-05
1.64444e-05
1.63674e-05
1.62984e-05
1.62163e-05
1.61451e-05
1.6068e-05
1.59954e-05
1.59121e-05
1.58433e-05
1.57642e-05
1.56916e-05
1.56101e-05
1.55441e-05
1.54659e-05
1.53959e-05
1.53162e-05
1.52522e-05
1.51764e-05
1.51102e-05
1.50324e-05
1.49664e-05
1.99999e-05
1.98569e-05
1.95613e-05
1.9257e-05
1.90044e-05
1.88486e-05
1.87282e-05
1.86087e-05
1.84685e-05
1.83561e-05
1.82422e-05
1.81442e-05
1.80315e-05
1.79317e-05
1.78236e-05
1.77301e-05
1.76284e-05
1.75377e-05
1.74362e-05
1.73463e-05
1.72464e-05
1.71599e-05
1.70684e-05
1.69871e-05
1.6904e-05
1.68323e-05
1.67527e-05
1.6687e-05
1.66132e-05
1.65436e-05
1.64703e-05
1.64042e-05
1.63249e-05
1.62569e-05
1.61825e-05
1.61117e-05
1.60307e-05
1.59643e-05
1.58866e-05
1.58152e-05
1.57355e-05
1.56713e-05
1.55935e-05
1.55241e-05
1.54456e-05
1.53825e-05
1.53065e-05
1.52399e-05
1.51617e-05
1.50951e-05
1.99999e-05
1.98613e-05
1.95747e-05
1.92778e-05
1.90236e-05
1.88636e-05
1.87433e-05
1.86313e-05
1.84954e-05
1.8385e-05
1.82731e-05
1.8179e-05
1.80699e-05
1.7974e-05
1.7869e-05
1.77792e-05
1.76816e-05
1.75947e-05
1.74971e-05
1.74103e-05
1.73137e-05
1.72305e-05
1.71418e-05
1.70644e-05
1.69845e-05
1.69166e-05
1.6841e-05
1.67791e-05
1.67093e-05
1.66435e-05
1.65738e-05
1.6511e-05
1.64349e-05
1.63698e-05
1.62982e-05
1.62295e-05
1.6151e-05
1.60869e-05
1.6011e-05
1.5941e-05
1.58631e-05
1.58005e-05
1.57235e-05
1.5655e-05
1.55774e-05
1.55151e-05
1.5439e-05
1.53723e-05
1.52938e-05
1.52264e-05
1.99999e-05
1.98656e-05
1.9588e-05
1.92991e-05
1.90446e-05
1.88804e-05
1.87588e-05
1.86533e-05
1.85224e-05
1.84145e-05
1.83043e-05
1.82138e-05
1.81082e-05
1.80161e-05
1.79141e-05
1.78281e-05
1.77342e-05
1.76512e-05
1.75574e-05
1.74738e-05
1.73804e-05
1.73004e-05
1.72142e-05
1.7141e-05
1.70639e-05
1.70001e-05
1.69285e-05
1.68702e-05
1.68047e-05
1.6743e-05
1.66766e-05
1.66174e-05
1.65448e-05
1.64823e-05
1.64137e-05
1.63477e-05
1.62716e-05
1.62096e-05
1.61357e-05
1.60674e-05
1.59912e-05
1.593e-05
1.58543e-05
1.57868e-05
1.571e-05
1.56484e-05
1.55723e-05
1.55058e-05
1.54269e-05
1.53586e-05
1.99999e-05
1.98699e-05
1.96011e-05
1.93206e-05
1.90668e-05
1.88989e-05
1.8775e-05
1.86747e-05
1.85491e-05
1.84441e-05
1.83356e-05
1.82484e-05
1.81459e-05
1.80577e-05
1.79583e-05
1.78763e-05
1.77857e-05
1.77068e-05
1.76164e-05
1.75364e-05
1.74457e-05
1.73689e-05
1.72848e-05
1.7216e-05
1.71414e-05
1.70815e-05
1.70145e-05
1.69594e-05
1.68983e-05
1.68411e-05
1.67776e-05
1.67222e-05
1.66537e-05
1.65936e-05
1.65275e-05
1.64649e-05
1.63913e-05
1.63309e-05
1.62594e-05
1.61934e-05
1.61186e-05
1.60585e-05
1.59844e-05
1.59182e-05
1.5842e-05
1.57809e-05
1.57053e-05
1.5639e-05
1.55595e-05
1.54902e-05
1.99999e-05
1.9874e-05
1.96139e-05
1.9342e-05
1.90899e-05
1.89186e-05
1.87917e-05
1.86955e-05
1.85752e-05
1.84736e-05
1.83666e-05
1.82825e-05
1.81828e-05
1.80984e-05
1.80015e-05
1.79236e-05
1.78356e-05
1.77612e-05
1.76738e-05
1.75976e-05
1.75091e-05
1.74355e-05
1.73535e-05
1.72885e-05
1.72167e-05
1.71603e-05
1.7098e-05
1.70463e-05
1.6989e-05
1.69368e-05
1.68765e-05
1.68245e-05
1.67605e-05
1.67028e-05
1.66389e-05
1.658e-05
1.65095e-05
1.645e-05
1.6381e-05
1.63178e-05
1.62443e-05
1.61849e-05
1.61127e-05
1.60481e-05
1.59725e-05
1.59117e-05
1.58367e-05
1.57706e-05
1.56908e-05
1.56208e-05
1.99999e-05
1.98782e-05
1.96264e-05
1.93633e-05
1.91133e-05
1.89393e-05
1.88091e-05
1.87155e-05
1.86003e-05
1.85027e-05
1.83974e-05
1.83161e-05
1.82187e-05
1.8138e-05
1.80435e-05
1.79694e-05
1.78839e-05
1.7814e-05
1.77295e-05
1.76569e-05
1.75705e-05
1.74996e-05
1.74201e-05
1.73578e-05
1.72893e-05
1.72361e-05
1.71782e-05
1.71305e-05
1.70764e-05
1.70293e-05
1.69729e-05
1.69236e-05
1.68642e-05
1.68096e-05
1.67475e-05
1.66921e-05
1.6625e-05
1.65666e-05
1.64998e-05
1.64397e-05
1.63678e-05
1.63088e-05
1.62383e-05
1.61757e-05
1.61008e-05
1.60401e-05
1.59655e-05
1.59e-05
1.582e-05
1.57497e-05
1.99999e-05
1.98822e-05
1.96386e-05
1.93841e-05
1.91367e-05
1.89608e-05
1.88271e-05
1.87349e-05
1.86244e-05
1.85312e-05
1.84277e-05
1.83489e-05
1.82536e-05
1.81763e-05
1.80842e-05
1.80137e-05
1.79308e-05
1.7865e-05
1.77834e-05
1.77138e-05
1.76298e-05
1.75612e-05
1.74841e-05
1.74237e-05
1.73586e-05
1.73091e-05
1.72546e-05
1.72114e-05
1.71604e-05
1.7118e-05
1.70662e-05
1.70195e-05
1.69641e-05
1.69133e-05
1.68533e-05
1.68008e-05
1.67372e-05
1.66803e-05
1.66156e-05
1.65583e-05
1.64884e-05
1.64298e-05
1.63607e-05
1.63001e-05
1.62264e-05
1.61656e-05
1.60913e-05
1.60267e-05
1.59469e-05
1.58766e-05
1.99999e-05
1.98861e-05
1.96505e-05
1.94043e-05
1.91599e-05
1.8983e-05
1.88456e-05
1.87538e-05
1.86475e-05
1.85587e-05
1.84573e-05
1.83811e-05
1.82874e-05
1.82131e-05
1.81234e-05
1.80562e-05
1.7976e-05
1.79141e-05
1.78352e-05
1.77686e-05
1.76868e-05
1.76203e-05
1.75447e-05
1.74867e-05
1.74242e-05
1.73787e-05
1.7327e-05
1.72882e-05
1.72411e-05
1.72029e-05
1.71555e-05
1.71121e-05
1.70601e-05
1.70134e-05
1.69561e-05
1.69056e-05
1.68454e-05
1.6791e-05
1.67281e-05
1.66729e-05
1.66055e-05
1.65478e-05
1.64798e-05
1.6421e-05
1.63488e-05
1.6288e-05
1.62141e-05
1.61503e-05
1.60712e-05
1.60013e-05
1.99999e-05
1.98899e-05
1.9662e-05
1.94238e-05
1.91829e-05
1.90054e-05
1.88642e-05
1.87723e-05
1.86693e-05
1.8585e-05
1.84861e-05
1.84125e-05
1.83202e-05
1.82485e-05
1.8161e-05
1.80971e-05
1.80194e-05