/*--------------------------------*- C++ -*----------------------------------*\
  =========                 |
  \\      /  F ield         | OpenFOAM: The Open Source CFD Toolbox
   \\    /   O peration     | Website:  https://openfoam.org
    \\  /    A nd           | Version:  7
     \\/     M anipulation  |
\*---------------------------------------------------------------------------*/
FoamFile
{
    version     2.0;
    format      ascii;
    class       volScalarField;
    location    "0.12";
    object      k_0;
}
// * * * * * * * * * * * * * * * * * * * * * * * * * * * * * * * * * * * * * //

dimensions      [0 2 -2 0 0 0 0];

internalField   nonuniform List<scalar> 
70000
(
1.08549e-05
4.21871e-06
2.82426e-06
2.31676e-06
1.99746e-06
1.75723e-06
1.56525e-06
1.40848e-06
1.27768e-06
1.16709e-06
1.07214e-06
9.90237e-07
9.1866e-07
8.56074e-07
8.00625e-07
7.51628e-07
7.07671e-07
6.68482e-07
6.3294e-07
6.01036e-07
5.7185e-07
5.45494e-07
5.21214e-07
4.99147e-07
4.78712e-07
4.60008e-07
4.42628e-07
4.26598e-07
4.11662e-07
3.97812e-07
3.84832e-07
3.72827e-07
3.61382e-07
3.51011e-07
3.40726e-07
3.31854e-07
3.22422e-07
3.14925e-07
3.06141e-07
2.99875e-07
2.91593e-07
2.865e-07
2.78436e-07
2.74634e-07
2.66707e-07
2.65532e-07
2.58094e-07
2.70306e-07
2.58413e-07
2.70835e-07
1.72794e-05
1.13672e-05
8.52026e-06
7.01024e-06
6.03704e-06
5.31105e-06
4.7316e-06
4.25815e-06
3.86309e-06
3.52908e-06
3.24234e-06
2.99497e-06
2.77879e-06
2.58975e-06
2.42225e-06
2.27422e-06
2.14141e-06
2.02297e-06
1.91557e-06
1.81911e-06
1.7309e-06
1.65119e-06
1.57781e-06
1.51105e-06
1.44929e-06
1.39269e-06
1.34016e-06
1.29164e-06
1.24649e-06
1.20459e-06
1.16531e-06
1.12903e-06
1.09435e-06
1.06305e-06
1.03184e-06
1.00508e-06
9.76461e-07
9.53831e-07
9.27217e-07
9.08251e-07
8.83191e-07
8.67766e-07
8.43349e-07
8.31799e-07
8.07784e-07
8.02701e-07
7.81099e-07
8.06385e-07
7.81528e-07
7.99408e-07
1.937e-05
1.61296e-05
1.32907e-05
1.12893e-05
9.82819e-06
8.69609e-06
7.77837e-06
7.02108e-06
6.38455e-06
5.84365e-06
5.37764e-06
4.97441e-06
4.62115e-06
4.31156e-06
4.03672e-06
3.79337e-06
3.57469e-06
3.37934e-06
3.20201e-06
3.04249e-06
2.89658e-06
2.76443e-06
2.64286e-06
2.53195e-06
2.42951e-06
2.33531e-06
2.24807e-06
2.16725e-06
2.09213e-06
2.02233e-06
1.95683e-06
1.89644e-06
1.83844e-06
1.78641e-06
1.7341e-06
1.68962e-06
1.64166e-06
1.6039e-06
1.55944e-06
1.5276e-06
1.48583e-06
1.45983e-06
1.41914e-06
1.39978e-06
1.35958e-06
1.34857e-06
1.31245e-06
1.33716e-06
1.31016e-06
1.31805e-06
1.9861e-05
1.82601e-05
1.60855e-05
1.42002e-05
1.26399e-05
1.13487e-05
1.02607e-05
9.3389e-06
8.54736e-06
7.86461e-06
7.26988e-06
6.75075e-06
6.29248e-06
5.88836e-06
5.52754e-06
5.20637e-06
4.91645e-06
4.65631e-06
4.41947e-06
4.20554e-06
4.00955e-06
3.83127e-06
3.66723e-06
3.51682e-06
3.37805e-06
3.24979e-06
3.13117e-06
3.02078e-06
2.91824e-06
2.82276e-06
2.73296e-06
2.65036e-06
2.57047e-06
2.49929e-06
2.42704e-06
2.366e-06
2.29985e-06
2.24762e-06
2.18658e-06
2.14208e-06
2.08491e-06
2.04822e-06
1.99267e-06
1.96497e-06
1.90967e-06
1.89139e-06
1.84065e-06
1.85414e-06
1.83523e-06
1.82244e-06
1.99706e-05
1.7846e-05
1.60749e-05
1.47667e-05
1.36025e-05
1.25377e-05
1.15691e-05
1.07018e-05
9.9206e-06
9.22543e-06
8.6052e-06
8.05302e-06
7.55718e-06
7.11383e-06
6.71279e-06
6.35173e-06
6.02256e-06
5.72456e-06
5.45145e-06
5.20283e-06
4.97411e-06
4.7644e-06
4.57104e-06
4.39228e-06
4.22733e-06
4.07361e-06
3.93147e-06
3.79836e-06
3.67458e-06
3.559e-06
3.4498e-06
3.34953e-06
3.25178e-06
3.16505e-06
3.07642e-06
3.00144e-06
2.92048e-06
2.85547e-06
2.78114e-06
2.72495e-06
2.65559e-06
2.60844e-06
2.54149e-06
2.50458e-06
2.43757e-06
2.41195e-06
2.34862e-06
2.34622e-06
2.33022e-06
2.29483e-06
2.00096e-05
1.47039e-05
1.37483e-05
1.32117e-05
1.25918e-05
1.19275e-05
1.12778e-05
1.06575e-05
1.008e-05
9.54621e-06
9.04533e-06
8.57945e-06
8.14566e-06
7.74634e-06
7.37481e-06
7.03251e-06
6.71443e-06
6.42165e-06
6.14999e-06
5.8991e-06
5.66623e-06
5.44972e-06
5.24898e-06
5.06092e-06
4.8869e-06
4.72267e-06
4.57046e-06
4.42665e-06
4.29241e-06
4.16651e-06
4.04676e-06
3.93673e-06
3.82864e-06
3.73252e-06
3.63423e-06
3.54989e-06
3.46033e-06
3.38583e-06
3.30395e-06
3.23829e-06
3.16228e-06
3.10572e-06
3.03298e-06
2.98703e-06
2.91388e-06
2.88148e-06
2.8126e-06
2.79173e-06
2.76882e-06
2.71698e-06
2.01332e-05
1.54661e-05
9.63486e-06
9.39916e-06
9.49378e-06
9.49301e-06
9.4342e-06
9.29561e-06
9.05456e-06
8.78091e-06
8.48561e-06
8.1886e-06
7.89646e-06
7.61358e-06
7.3366e-06
7.07601e-06
6.82891e-06
6.59446e-06
6.37164e-06
6.15985e-06
5.95961e-06
5.76867e-06
5.58944e-06
5.41786e-06
5.25774e-06
5.10355e-06
4.95983e-06
4.82226e-06
4.6929e-06
4.57057e-06
4.45314e-06
4.34455e-06
4.23729e-06
4.14062e-06
4.04263e-06
3.95582e-06
3.86658e-06
3.78803e-06
3.70661e-06
3.63556e-06
3.56045e-06
3.49712e-06
3.42623e-06
3.37191e-06
3.3019e-06
3.25944e-06
3.19546e-06
3.15617e-06
3.12962e-06
3.06583e-06
2.01714e-05
1.86751e-05
8.68816e-06
5.54047e-06
5.63106e-06
5.93539e-06
6.29331e-06
6.57829e-06
6.75725e-06
6.86572e-06
6.88461e-06
6.86513e-06
6.81265e-06
6.72421e-06
6.61334e-06
6.49148e-06
6.35398e-06
6.21168e-06
6.06978e-06
5.92682e-06
5.78731e-06
5.64852e-06
5.51565e-06
5.3842e-06
5.25923e-06
5.1375e-06
5.02328e-06
4.91143e-06
4.80483e-06
4.70221e-06
4.60248e-06
4.50858e-06
4.41564e-06
4.3293e-06
4.24352e-06
4.16331e-06
4.08482e-06
4.00992e-06
3.93805e-06
3.86805e-06
3.80214e-06
3.73724e-06
3.67608e-06
3.61703e-06
3.55855e-06
3.50675e-06
3.45534e-06
3.4038e-06
3.37706e-06
3.30928e-06
2.01672e-05
1.97237e-05
1.61648e-05
4.85842e-06
3.04247e-06
3.10603e-06
3.37517e-06
3.80491e-06
4.17013e-06
4.48766e-06
4.73425e-06
4.92347e-06
5.06337e-06
5.16329e-06
5.22143e-06
5.25709e-06
5.26043e-06
5.25165e-06
5.22994e-06
5.18989e-06
5.1433e-06
5.08634e-06
5.02742e-06
4.96098e-06
4.89512e-06
4.82336e-06
4.75252e-06
4.67912e-06
4.60728e-06
4.53569e-06
4.46491e-06
4.39603e-06
4.32786e-06
4.26139e-06
4.19718e-06
4.1326e-06
4.07312e-06
4.01022e-06
3.95588e-06
3.89564e-06
3.84597e-06
3.78776e-06
3.74204e-06
3.68619e-06
3.64358e-06
3.59063e-06
3.55382e-06
3.5e-06
3.47621e-06
3.41383e-06
2.01477e-05
1.99342e-05
1.90648e-05
1.44949e-05
5.23802e-06
2.1541e-06
1.91441e-06
1.99378e-06
2.20718e-06
2.50555e-06
2.78073e-06
3.03347e-06
3.25752e-06
3.45365e-06
3.61682e-06
3.75432e-06
3.8657e-06
3.95315e-06
4.02488e-06
4.07602e-06
4.11541e-06
4.13816e-06
4.15416e-06
4.156e-06
4.15303e-06
4.14436e-06
4.13044e-06
4.10996e-06
4.08717e-06
4.06028e-06
4.03155e-06
4.00011e-06
3.96815e-06
3.93303e-06
3.90005e-06
3.86198e-06
3.82938e-06
3.78935e-06
3.75717e-06
3.71484e-06
3.68376e-06
3.64048e-06
3.61108e-06
3.56751e-06
3.53999e-06
3.49621e-06
3.47242e-06
3.42635e-06
3.40808e-06
3.35886e-06
2.01217e-05
1.9966e-05
1.9642e-05
1.85449e-05
1.52081e-05
8.35152e-06
3.10196e-06
1.63267e-06
1.44223e-06
1.44925e-06
1.5261e-06
1.68677e-06
1.86836e-06
2.0446e-06
2.21427e-06
2.37242e-06
2.51953e-06
2.64928e-06
2.76792e-06
2.87006e-06
2.96226e-06
3.03922e-06
3.10798e-06
3.16384e-06
3.21235e-06
3.251e-06
3.28453e-06
3.30956e-06
3.33028e-06
3.34461e-06
3.35534e-06
3.36129e-06
3.36409e-06
3.36314e-06
3.36064e-06
3.35419e-06
3.34847e-06
3.33633e-06
3.32853e-06
3.31253e-06
3.30303e-06
3.28388e-06
3.27303e-06
3.25149e-06
3.23963e-06
3.21608e-06
3.20378e-06
3.17765e-06
3.1675e-06
3.13914e-06
2.00982e-05
1.99327e-05
1.9757e-05
1.93516e-05
1.85045e-05
1.65335e-05
1.23221e-05
6.85579e-06
2.98604e-06
1.49331e-06
1.24309e-06
1.14749e-06
1.15156e-06
1.1938e-06
1.28597e-06
1.39183e-06
1.50449e-06
1.61291e-06
1.72328e-06
1.82679e-06
1.92725e-06
2.01887e-06
2.10602e-06
2.18415e-06
2.25778e-06
2.3227e-06
2.38359e-06
2.4367e-06
2.48615e-06
2.52868e-06
2.56833e-06
2.60154e-06
2.63302e-06
2.658e-06
2.68269e-06
2.70057e-06
2.71979e-06
2.73174e-06
2.74599e-06
2.7533e-06
2.76307e-06
2.76681e-06
2.77237e-06
2.7736e-06
2.77492e-06
2.77385e-06
2.77279e-06
2.76815e-06
2.76718e-06
2.76031e-06
2.00782e-05
1.98875e-05
1.97566e-05
1.94599e-05
1.91446e-05
1.86396e-05
1.75536e-05
1.5424e-05
1.17403e-05
7.44755e-06
3.98558e-06
1.91661e-06
1.20934e-06
1.05728e-06
9.82265e-07
9.42224e-07
9.53243e-07
9.86532e-07
1.04894e-06
1.11181e-06
1.18118e-06
1.25006e-06
1.32095e-06
1.38994e-06
1.45897e-06
1.52359e-06
1.58729e-06
1.64592e-06
1.70341e-06
1.75557e-06
1.80688e-06
1.85245e-06
1.8977e-06
1.93697e-06
1.97639e-06
2.00985e-06
2.04387e-06
2.0722e-06
2.10111e-06
2.12497e-06
2.14911e-06
2.16901e-06
2.18892e-06
2.20512e-06
2.2215e-06
2.23373e-06
2.24774e-06
2.25585e-06
2.2679e-06
2.27508e-06
2.00614e-05
1.98538e-05
1.9734e-05
1.94701e-05
1.9254e-05
1.90458e-05
1.87348e-05
1.819e-05
1.70971e-05
1.52346e-05
1.25722e-05
9.244e-06
5.98346e-06
3.48804e-06
1.88775e-06
1.17028e-06
9.65288e-07
8.91031e-07
8.36843e-07
7.96113e-07
7.9774e-07
8.10957e-07
8.40478e-07
8.78572e-07
9.18738e-07
9.60435e-07
1.00513e-06
1.04897e-06
1.09515e-06
1.13938e-06
1.1849e-06
1.22716e-06
1.27041e-06
1.31006e-06
1.35036e-06
1.38708e-06
1.42424e-06
1.45789e-06
1.4917e-06
1.5223e-06
1.5526e-06
1.58017e-06
1.6071e-06
1.63174e-06
1.65536e-06
1.67715e-06
1.69778e-06
1.71705e-06
1.73412e-06
1.75366e-06
2.00476e-05
1.98303e-05
1.97073e-05
1.94479e-05
1.92708e-05
1.91136e-05
1.89643e-05
1.87498e-05
1.84622e-05
1.79134e-05
1.708e-05
1.57062e-05
1.38923e-05
1.15472e-05
8.87265e-06
6.26581e-06
4.09268e-06
2.51695e-06
1.51409e-06
1.03446e-06
8.63981e-07
7.99655e-07
7.5161e-07
7.11348e-07
6.81828e-07
6.78467e-07
6.84173e-07
6.97977e-07
7.20047e-07
7.43225e-07
7.68758e-07
7.94195e-07
8.2246e-07
8.50238e-07
8.79838e-07
9.08774e-07
9.38701e-07
9.67416e-07
9.96459e-07
1.02428e-06
1.05181e-06
1.07843e-06
1.10422e-06
1.12955e-06
1.15326e-06
1.17712e-06
1.19888e-06
1.22116e-06
1.24062e-06
1.26235e-06
2.00363e-05
1.98124e-05
1.96848e-05
1.94174e-05
1.92567e-05
1.91072e-05
1.89992e-05
1.88486e-05
1.8712e-05
1.85012e-05
1.82491e-05
1.78348e-05
1.7236e-05
1.6368e-05
1.51716e-05
1.36403e-05
1.1837e-05
9.75702e-06
7.61504e-06
5.61602e-06
3.93312e-06
2.6507e-06
1.73085e-06
1.16422e-06
8.83345e-07
7.66022e-07
7.12288e-07
6.74978e-07
6.39731e-07
6.1004e-07
5.89945e-07
5.82514e-07
5.84531e-07
5.9029e-07
6.01655e-07
6.15026e-07
6.29625e-07
6.44905e-07
6.60885e-07
6.77749e-07
6.95175e-07
7.13501e-07
7.31587e-07
7.5075e-07
7.68829e-07
7.88038e-07
8.058e-07
8.24531e-07
8.41483e-07
8.60007e-07
2.00272e-05
1.97985e-05
1.96656e-05
1.93953e-05
1.92309e-05
1.90795e-05
1.89811e-05
1.88519e-05
1.87363e-05
1.85966e-05
1.8461e-05
1.82906e-05
1.8083e-05
1.7797e-05
1.74128e-05
1.68708e-05
1.61657e-05
1.52473e-05
1.411e-05
1.27711e-05
1.12742e-05
9.61572e-06
7.90768e-06
6.26978e-06
4.78439e-06
3.54251e-06
2.55866e-06
1.80559e-06
1.27364e-06
9.46036e-07
7.70736e-07
6.84924e-07
6.39842e-07
6.08807e-07
5.81457e-07
5.55352e-07
5.32528e-07
5.16527e-07
5.06343e-07
5.03936e-07
5.05299e-07
5.09178e-07
5.14928e-07
5.23192e-07
5.30846e-07
5.40399e-07
5.4888e-07
5.59197e-07
5.68408e-07
5.79792e-07
2.00201e-05
1.97898e-05
1.96457e-05
1.93786e-05
1.92066e-05
1.90502e-05
1.8943e-05
1.88254e-05
1.87147e-05
1.859e-05
1.84727e-05
1.83464e-05
1.82226e-05
1.80792e-05
1.79234e-05
1.77244e-05
1.74817e-05
1.71632e-05
1.67604e-05
1.62396e-05
1.56059e-05
1.4829e-05
1.39162e-05
1.28637e-05
1.17142e-05
1.04663e-05
9.13705e-06
7.79137e-06
6.48088e-06
5.26747e-06
4.17257e-06
3.25123e-06
2.49384e-06
1.88189e-06
1.40772e-06
1.06559e-06
8.41452e-07
7.07346e-07
6.31434e-07
5.87877e-07
5.59219e-07
5.36396e-07
5.15706e-07
4.96443e-07
4.77283e-07
4.62865e-07
4.50024e-07
4.43622e-07
4.38397e-07
4.38764e-07
2.00145e-05
1.97897e-05
1.96195e-05
1.93649e-05
1.9186e-05
1.9023e-05
1.8907e-05
1.87889e-05
1.86747e-05
1.85543e-05
1.84423e-05
1.83248e-05
1.8213e-05
1.80941e-05
1.79808e-05
1.78587e-05
1.77348e-05
1.75919e-05
1.74333e-05
1.72391e-05
1.70099e-05
1.67263e-05
1.63856e-05
1.59693e-05
1.54778e-05
1.49016e-05
1.42398e-05
1.34835e-05
1.26527e-05
1.17408e-05
1.07893e-05
9.77735e-06
8.72708e-06
7.67148e-06
6.63976e-06
5.65629e-06
4.74879e-06
3.92365e-06
3.20763e-06
2.59933e-06
2.08454e-06
1.65681e-06
1.31026e-06
1.04339e-06
8.47799e-07
7.15135e-07
6.26521e-07
5.73947e-07
5.35712e-07
5.18056e-07
2.00103e-05
1.97936e-05
1.95929e-05
1.93509e-05
1.9167e-05
1.89972e-05
1.88733e-05
1.87527e-05
1.86346e-05
1.85116e-05
1.83964e-05
1.8279e-05
1.81681e-05
1.80561e-05
1.79484e-05
1.78396e-05
1.77322e-05
1.76235e-05
1.75158e-05
1.74035e-05
1.72867e-05
1.71587e-05
1.70171e-05
1.68551e-05
1.6668e-05
1.64504e-05
1.61973e-05
1.59013e-05
1.5559e-05
1.51668e-05
1.47195e-05
1.42236e-05
1.36665e-05
1.30602e-05
1.2397e-05
1.16977e-05
1.09528e-05
1.01928e-05
9.39956e-06
8.5888e-06
7.77116e-06
6.96835e-06
6.18592e-06
5.44457e-06
4.74239e-06
4.10255e-06
3.50379e-06
2.98493e-06
2.50135e-06
2.09164e-06
2.00071e-05
1.98011e-05
1.95683e-05
1.93373e-05
1.91492e-05
1.8973e-05
1.88411e-05
1.87181e-05
1.85956e-05
1.84703e-05
1.83498e-05
1.82311e-05
1.81156e-05
1.80023e-05
1.78918e-05
1.77839e-05
1.7679e-05
1.75771e-05
1.74756e-05
1.73769e-05
1.7277e-05
1.71791e-05
1.70796e-05
1.69819e-05
1.68778e-05
1.6773e-05
1.66566e-05
1.65332e-05
1.6392e-05
1.62402e-05
1.60614e-05
1.58679e-05
1.56435e-05
1.5397e-05
1.5114e-05
1.4807e-05
1.44602e-05
1.40873e-05
1.36754e-05
1.32379e-05
1.27613e-05
1.22613e-05
1.17276e-05
1.11801e-05
1.06053e-05
1.00242e-05
9.42679e-06
8.82746e-06
8.1911e-06
7.56125e-06
2.00047e-05
1.98097e-05
1.95452e-05
1.9324e-05
1.91317e-05
1.89505e-05
1.88101e-05
1.86848e-05
1.8558e-05
1.84306e-05
1.83048e-05
1.8184e-05
1.80638e-05
1.79486e-05
1.78338e-05
1.77243e-05
1.76146e-05
1.75111e-05
1.74066e-05
1.73078e-05
1.72094e-05
1.71172e-05
1.70231e-05
1.69359e-05
1.68444e-05
1.676e-05
1.66697e-05
1.65847e-05
1.64948e-05
1.64099e-05
1.63138e-05
1.62209e-05
1.6118e-05
1.60114e-05
1.58902e-05
1.57659e-05
1.56232e-05
1.54728e-05
1.53012e-05
1.51225e-05
1.492e-05
1.47044e-05
1.4465e-05
1.42153e-05
1.39386e-05
1.36482e-05
1.33361e-05
1.3011e-05
1.2659e-05
1.22911e-05
2.0003e-05
1.98187e-05
1.95237e-05
1.93101e-05
1.91143e-05
1.89295e-05
1.87802e-05
1.86526e-05
1.85219e-05
1.83926e-05
1.8262e-05
1.81389e-05
1.80143e-05
1.78967e-05
1.77778e-05
1.7666e-05
1.75524e-05
1.74463e-05
1.73384e-05
1.72367e-05
1.71345e-05
1.70388e-05
1.69415e-05
1.68527e-05
1.67597e-05
1.66775e-05
1.65922e-05
1.65125e-05
1.64305e-05
1.63565e-05
1.62746e-05
1.62003e-05
1.6122e-05
1.60467e-05
1.59666e-05
1.58931e-05
1.58129e-05
1.57341e-05
1.56478e-05
1.55658e-05
1.54743e-05
1.53788e-05
1.52749e-05
1.51716e-05
1.50547e-05
1.49309e-05
1.48004e-05
1.46623e-05
1.45115e-05
1.43574e-05
2.00018e-05
1.98274e-05
1.95041e-05
1.92954e-05
1.90965e-05
1.89099e-05
1.87519e-05
1.86215e-05
1.84877e-05
1.83565e-05
1.82218e-05
1.80961e-05
1.79677e-05
1.78476e-05
1.77252e-05
1.76106e-05
1.74938e-05
1.73848e-05
1.72739e-05
1.71689e-05
1.7064e-05
1.6965e-05
1.68645e-05
1.67727e-05
1.66763e-05
1.65902e-05
1.65015e-05
1.64176e-05
1.63336e-05
1.62574e-05
1.61748e-05
1.61008e-05
1.60278e-05
1.59572e-05
1.58828e-05
1.58175e-05
1.57482e-05
1.56818e-05
1.5612e-05
1.55505e-05
1.5483e-05
1.54166e-05
1.53486e-05
1.52889e-05
1.52212e-05
1.5153e-05
1.50852e-05
1.50186e-05
1.49462e-05
1.4881e-05
2.00009e-05
1.98304e-05
1.94878e-05
1.92802e-05
1.90789e-05
1.88921e-05
1.87257e-05
1.8592e-05
1.84558e-05
1.83228e-05
1.81846e-05
1.80564e-05
1.79249e-05
1.7802e-05
1.76767e-05
1.75593e-05
1.74397e-05
1.73277e-05
1.72143e-05
1.7106e-05
1.69987e-05
1.68969e-05
1.67934e-05
1.66992e-05
1.65999e-05
1.65111e-05
1.64197e-05
1.63324e-05
1.62451e-05
1.61659e-05
1.60798e-05
1.60017e-05
1.59246e-05
1.58502e-05
1.57717e-05
1.57042e-05
1.5633e-05
1.55642e-05
1.54946e-05
1.54362e-05
1.53724e-05
1.53107e-05
1.5248e-05
1.5196e-05
1.51363e-05
1.50787e-05
1.5022e-05
1.49712e-05
1.4916e-05
1.48711e-05
2.00003e-05
1.98287e-05
1.94745e-05
1.92643e-05
1.90612e-05
1.88762e-05
1.8702e-05
1.85644e-05
1.84264e-05
1.82919e-05
1.81509e-05
1.80203e-05
1.78861e-05
1.7761e-05
1.7633e-05
1.75131e-05
1.73909e-05
1.72763e-05
1.71605e-05
1.70495e-05
1.69397e-05
1.68356e-05
1.67292e-05
1.66331e-05
1.65311e-05
1.64402e-05
1.63465e-05
1.62569e-05
1.61667e-05
1.60856e-05
1.59967e-05
1.59156e-05
1.58354e-05
1.57583e-05
1.56756e-05
1.56055e-05
1.55302e-05
1.54579e-05
1.5384e-05
1.53224e-05
1.52532e-05
1.51876e-05
1.51212e-05
1.50671e-05
1.50042e-05
1.49453e-05
1.48858e-05
1.48364e-05
1.47832e-05
1.47411e-05
2e-05
1.9827e-05
1.94633e-05
1.92467e-05
1.90428e-05
1.88615e-05
1.86805e-05
1.8539e-05
1.83996e-05
1.82642e-05
1.8121e-05
1.79884e-05
1.78518e-05
1.7725e-05
1.75947e-05
1.74728e-05
1.73484e-05
1.72316e-05
1.71135e-05
1.70002e-05
1.6888e-05
1.67821e-05
1.66732e-05
1.65753e-05
1.64711e-05
1.63784e-05
1.62826e-05
1.61915e-05
1.60987e-05
1.6016e-05
1.59252e-05
1.58418e-05
1.5759e-05
1.56801e-05
1.55946e-05
1.55224e-05
1.54438e-05
1.5369e-05
1.52921e-05
1.52281e-05
1.51547e-05
1.50861e-05
1.50165e-05
1.4959e-05
1.4892e-05
1.48301e-05
1.47666e-05
1.47144e-05
1.46576e-05
1.46112e-05
1.99999e-05
1.98258e-05
1.9455e-05
1.92287e-05
1.90243e-05
1.88485e-05
1.8662e-05
1.85163e-05
1.83758e-05
1.82401e-05
1.80954e-05
1.79613e-05
1.78228e-05
1.76948e-05
1.75625e-05
1.74392e-05
1.73129e-05
1.71944e-05
1.70742e-05
1.69593e-05
1.6845e-05
1.67375e-05
1.66265e-05
1.6527e-05
1.6421e-05
1.63268e-05
1.62293e-05
1.6137e-05
1.60421e-05
1.5958e-05
1.58656e-05
1.57806e-05
1.56954e-05
1.56151e-05
1.55278e-05
1.54536e-05
1.53723e-05
1.52959e-05
1.52171e-05
1.51509e-05
1.50744e-05
1.5004e-05
1.49323e-05
1.4872e-05
1.48019e-05
1.4738e-05
1.46716e-05
1.46173e-05
1.45576e-05
1.45079e-05
1.99999e-05
1.98252e-05
1.94498e-05
1.92114e-05
1.90067e-05
1.88374e-05
1.8647e-05
1.84973e-05
1.83557e-05
1.82203e-05
1.80747e-05
1.79397e-05
1.77998e-05
1.76711e-05
1.75373e-05
1.7413e-05
1.72853e-05
1.71656e-05
1.70438e-05
1.69277e-05
1.68116e-05
1.67027e-05
1.65903e-05
1.64893e-05
1.63822e-05
1.62868e-05
1.61878e-05
1.60945e-05
1.59982e-05
1.59127e-05
1.5819e-05
1.57331e-05
1.56457e-05
1.5564e-05
1.54757e-05
1.53997e-05
1.53159e-05
1.52386e-05
1.51584e-05
1.509e-05
1.5011e-05
1.49395e-05
1.48663e-05
1.48037e-05
1.47311e-05
1.4666e-05
1.45977e-05
1.45419e-05
1.44798e-05
1.44277e-05
1.99999e-05
1.9825e-05
1.94474e-05
1.91957e-05
1.89906e-05
1.88283e-05
1.86361e-05
1.84823e-05
1.83398e-05
1.82053e-05
1.80596e-05
1.79241e-05
1.77835e-05
1.76544e-05
1.75198e-05
1.7395e-05
1.72664e-05
1.71461e-05
1.70229e-05
1.69062e-05
1.67888e-05
1.66789e-05
1.65657e-05
1.64635e-05
1.63556e-05
1.62595e-05
1.61593e-05
1.60654e-05
1.59684e-05
1.58816e-05
1.57868e-05
1.57006e-05
1.56112e-05
1.55284e-05
1.54393e-05
1.53618e-05
1.52759e-05
1.5198e-05
1.51165e-05
1.5046e-05
1.49651e-05
1.4893e-05
1.48183e-05
1.47536e-05
1.46792e-05
1.46131e-05
1.45433e-05
1.44864e-05
1.44222e-05
1.4368e-05
1.99999e-05
1.98252e-05
1.94477e-05
1.91824e-05
1.89765e-05
1.88209e-05
1.86295e-05
1.84719e-05
1.83285e-05
1.81952e-05
1.80503e-05
1.79148e-05
1.77742e-05
1.76452e-05
1.75104e-05
1.73858e-05
1.72568e-05
1.71364e-05
1.70124e-05
1.68956e-05
1.67773e-05
1.66668e-05
1.65535e-05
1.64503e-05
1.63421e-05
1.6246e-05
1.61449e-05
1.60507e-05
1.59537e-05
1.58659e-05
1.57703e-05
1.56842e-05
1.55933e-05
1.55094e-05
1.54198e-05
1.53411e-05
1.52536e-05
1.51752e-05
1.50925e-05
1.50204e-05
1.49379e-05
1.48653e-05
1.47892e-05
1.47227e-05
1.46467e-05
1.458e-05
1.45088e-05
1.44509e-05
1.43849e-05
1.4329e-05
1.99999e-05
1.98259e-05
1.94503e-05
1.9172e-05
1.89645e-05
1.88149e-05
1.86269e-05
1.84661e-05
1.83218e-05
1.81902e-05
1.80468e-05
1.79122e-05
1.77722e-05
1.7644e-05
1.75096e-05
1.73858e-05
1.7257e-05
1.71371e-05
1.70128e-05
1.68965e-05
1.67779e-05
1.66672e-05
1.65542e-05
1.64506e-05
1.63426e-05
1.62467e-05
1.61451e-05
1.60512e-05
1.59544e-05
1.5866e-05
1.57701e-05
1.56844e-05
1.55925e-05
1.5508e-05
1.54182e-05
1.53388e-05
1.52502e-05
1.51714e-05
1.50877e-05
1.50143e-05
1.49306e-05
1.48576e-05
1.47801e-05
1.47123e-05
1.46349e-05
1.45675e-05
1.44952e-05
1.44361e-05
1.43685e-05
1.43112e-05
1.99999e-05
1.98271e-05
1.94555e-05
1.91653e-05
1.8955e-05
1.88105e-05
1.86281e-05
1.84651e-05
1.83199e-05
1.81905e-05
1.80492e-05
1.79159e-05
1.77767e-05
1.76496e-05
1.7516e-05
1.73934e-05
1.7265e-05
1.71463e-05
1.70219e-05
1.69067e-05
1.6788e-05
1.66777e-05
1.65654e-05
1.64618e-05
1.63544e-05
1.62593e-05
1.61577e-05
1.60646e-05
1.59684e-05
1.58797e-05
1.5784e-05
1.56989e-05
1.56065e-05
1.55216e-05
1.54316e-05
1.53519e-05
1.52626e-05
1.51835e-05
1.50992e-05
1.5025e-05
1.49406e-05
1.48673e-05
1.47888e-05
1.47201e-05
1.46418e-05
1.4574e-05
1.4501e-05
1.44409e-05
1.43721e-05
1.43137e-05
1.99999e-05
1.98288e-05
1.94628e-05
1.91621e-05
1.89483e-05
1.88073e-05
1.86328e-05
1.84685e-05
1.83223e-05
1.81949e-05
1.80563e-05
1.79254e-05
1.77878e-05
1.76626e-05
1.75305e-05
1.741e-05
1.72827e-05
1.71661e-05
1.70421e-05
1.69288e-05
1.68104e-05
1.67012e-05
1.65903e-05
1.64872e-05
1.63811e-05
1.62873e-05
1.61863e-05
1.60946e-05
1.59996e-05
1.59111e-05
1.58161e-05
1.57321e-05
1.56395e-05
1.55546e-05
1.54649e-05
1.53852e-05
1.52953e-05
1.52161e-05
1.51312e-05
1.50563e-05
1.4971e-05
1.48975e-05
1.4818e-05
1.47485e-05
1.4669e-05
1.46008e-05
1.4527e-05
1.44655e-05
1.43953e-05
1.43355e-05
1.99999e-05
1.9831e-05
1.9472e-05
1.9163e-05
1.89446e-05
1.88055e-05
1.86402e-05
1.84766e-05
1.83293e-05
1.82043e-05
1.80689e-05
1.79409e-05
1.78053e-05
1.76824e-05
1.75523e-05
1.74343e-05
1.73087e-05
1.71945e-05
1.70716e-05
1.69606e-05
1.68431e-05
1.67356e-05
1.66264e-05
1.65243e-05
1.64201e-05
1.6328e-05
1.62281e-05
1.61384e-05
1.60448e-05
1.59571e-05
1.58635e-05
1.57808e-05
1.56885e-05
1.56043e-05
1.55153e-05
1.5436e-05
1.5346e-05
1.52672e-05
1.51823e-05
1.51072e-05
1.50215e-05
1.49481e-05
1.48681e-05
1.47982e-05
1.47178e-05
1.46496e-05
1.45752e-05
1.45128e-05
1.44413e-05
1.43802e-05
1.99999e-05
1.98337e-05
1.94829e-05
1.91675e-05
1.89438e-05
1.88053e-05
1.86497e-05
1.84885e-05
1.83404e-05
1.82176e-05
1.80856e-05
1.79612e-05
1.7828e-05
1.77078e-05
1.75802e-05
1.74652e-05
1.73417e-05
1.72305e-05
1.71092e-05
1.70009e-05
1.68847e-05
1.67794e-05
1.66722e-05
1.65718e-05
1.64698e-05
1.63798e-05
1.62815e-05
1.61943e-05
1.61026e-05
1.60163e-05
1.59243e-05
1.58433e-05
1.57518e-05
1.56687e-05
1.55808e-05
1.55022e-05
1.54124e-05
1.53343e-05
1.52499e-05
1.51748e-05
1.50888e-05
1.50159e-05
1.49359e-05
1.48657e-05
1.47847e-05
1.47165e-05
1.46417e-05
1.45787e-05
1.45058e-05
1.44433e-05
1.99999e-05
1.98369e-05
1.94947e-05
1.9176e-05
1.89463e-05
1.88069e-05
1.86608e-05
1.85037e-05
1.83552e-05
1.82344e-05
1.81059e-05
1.79856e-05
1.78552e-05
1.77379e-05
1.76133e-05
1.75015e-05
1.73807e-05
1.72727e-05
1.71537e-05
1.70482e-05
1.69339e-05
1.68312e-05
1.67263e-05
1.66282e-05
1.65289e-05
1.64412e-05
1.63451e-05
1.62608e-05
1.61714e-05
1.60869e-05
1.59971e-05
1.5918e-05
1.58278e-05
1.57462e-05
1.56599e-05
1.55821e-05
1.54928e-05
1.54159e-05
1.53322e-05
1.52573e-05
1.51714e-05
1.50993e-05
1.50195e-05
1.49491e-05
1.48677e-05
1.48e-05
1.47249e-05
1.46612e-05
1.45871e-05
1.45234e-05
1.99999e-05
1.98405e-05
1.95074e-05
1.91876e-05
1.8952e-05
1.88106e-05
1.86732e-05
1.85219e-05
1.83733e-05
1.82544e-05
1.81293e-05
1.80134e-05
1.78861e-05
1.77721e-05
1.76506e-05
1.75423e-05
1.74248e-05
1.732e-05
1.72038e-05
1.71014e-05
1.69894e-05
1.68896e-05
1.67872e-05
1.66918e-05
1.65955e-05
1.65106e-05
1.64171e-05
1.63361e-05
1.62494e-05
1.6167e-05
1.60799e-05
1.6003e-05
1.59144e-05
1.58347e-05
1.57503e-05
1.56736e-05
1.55852e-05
1.55099e-05
1.54272e-05
1.53525e-05
1.52671e-05
1.51962e-05
1.51168e-05
1.50463e-05
1.49648e-05
1.48977e-05
1.48226e-05
1.47582e-05
1.46828e-05
1.46183e-05
1.99999e-05
1.98444e-05
1.95206e-05
1.9202e-05
1.89608e-05
1.88166e-05
1.86862e-05
1.85421e-05
1.83943e-05
1.82771e-05
1.81552e-05
1.80438e-05
1.792e-05
1.78093e-05
1.76911e-05
1.75864e-05
1.74726e-05
1.73712e-05
1.72583e-05
1.7159e-05
1.70497e-05
1.6953e-05
1.68533e-05
1.67611e-05
1.6668e-05
1.6586e-05
1.64956e-05
1.64182e-05
1.63344e-05
1.62546e-05
1.61706e-05
1.60962e-05
1.60094e-05
1.59322e-05
1.585e-05
1.57745e-05
1.56874e-05
1.5614e-05
1.55324e-05
1.54582e-05
1.53737e-05
1.53044e-05
1.52253e-05
1.51547e-05
1.50735e-05
1.50074e-05
1.49321e-05
1.4867e-05
1.47905e-05
1.47254e-05
1.99999e-05
1.98484e-05
1.9534e-05
1.92186e-05
1.89726e-05
1.8825e-05
1.86998e-05
1.85638e-05
1.84175e-05
1.83019e-05
1.81829e-05
1.80761e-05
1.79559e-05
1.78488e-05
1.7734e-05
1.7633e-05
1.75232e-05
1.74252e-05
1.73159e-05
1.72198e-05
1.71134e-05
1.70202e-05
1.69231e-05
1.68344e-05
1.67448e-05
1.66659e-05
1.65789e-05
1.65054e-05
1.64246e-05
1.63479e-05
1.62673e-05
1.61954e-05
1.61108e-05
1.60364e-05
1.59567e-05
1.58824e-05
1.57971e-05
1.5726e-05
1.56455e-05
1.55719e-05
1.54889e-05
1.54212e-05
1.53424e-05
1.52719e-05
1.51915e-05
1.51264e-05
1.50508e-05
1.4985e-05
1.49077e-05
1.48422e-05
1.99999e-05
1.98526e-05
1.95476e-05
1.9237e-05
1.89872e-05
1.88357e-05
1.87139e-05
1.85863e-05
1.84425e-05
1.83285e-05
1.82122e-05
1.81098e-05
1.79933e-05
1.78898e-05
1.77784e-05
1.76812e-05
1.75755e-05
1.74811e-05
1.73756e-05
1.72826e-05
1.71793e-05
1.70896e-05
1.69954e-05
1.69103e-05
1.68241e-05
1.67487e-05
1.66653e-05
1.65958e-05
1.65183e-05
1.6445e-05
1.6368e-05
1.62988e-05
1.62166e-05
1.61455e-05
1.60683e-05
1.59955e-05
1.59123e-05
1.58435e-05
1.57642e-05
1.56915e-05
1.56102e-05
1.55443e-05
1.54658e-05
1.53957e-05
1.53162e-05
1.52522e-05
1.51763e-05
1.511e-05
1.50322e-05
1.4966e-05
1.99999e-05
1.98569e-05
1.95612e-05
1.92569e-05
1.90043e-05
1.88487e-05
1.87284e-05
1.8609e-05
1.84688e-05
1.83564e-05
1.82425e-05
1.81443e-05
1.80316e-05
1.79318e-05
1.78237e-05
1.77302e-05
1.76286e-05
1.75379e-05
1.74363e-05
1.73464e-05
1.72464e-05
1.71601e-05
1.70687e-05
1.69875e-05
1.69046e-05
1.68329e-05
1.67534e-05
1.66878e-05
1.66138e-05
1.65442e-05
1.6471e-05
1.64047e-05
1.63253e-05
1.62573e-05
1.61828e-05
1.61117e-05
1.60309e-05
1.59645e-05
1.58866e-05
1.58151e-05
1.57356e-05
1.56714e-05
1.55934e-05
1.5524e-05
1.54455e-05
1.53825e-05
1.53062e-05
1.52395e-05
1.51614e-05
1.50947e-05
1.99999e-05
1.98612e-05
1.95746e-05
1.92777e-05
1.90236e-05
1.88637e-05
1.87435e-05
1.86315e-05
1.84957e-05
1.83854e-05
1.82734e-05
1.81792e-05
1.807e-05
1.79741e-05
1.78692e-05
1.77794e-05
1.76818e-05
1.75948e-05
1.74972e-05
1.74103e-05
1.73138e-05
1.72307e-05
1.71421e-05
1.70648e-05
1.69851e-05
1.69173e-05
1.68418e-05
1.678e-05
1.671e-05
1.66442e-05
1.65746e-05
1.65115e-05
1.64352e-05
1.63703e-05
1.62986e-05
1.62296e-05
1.61512e-05
1.60872e-05
1.6011e-05
1.59409e-05
1.58632e-05
1.58006e-05
1.57234e-05
1.56548e-05
1.55774e-05
1.55151e-05
1.54387e-05
1.53719e-05
1.52934e-05
1.52259e-05
1.99999e-05
1.98656e-05
1.95879e-05
1.92989e-05
1.90445e-05
1.88805e-05
1.8759e-05
1.86536e-05
1.85227e-05
1.84148e-05
1.83046e-05
1.8214e-05
1.81083e-05
1.80163e-05
1.79142e-05
1.78283e-05
1.77344e-05
1.76514e-05
1.75575e-05
1.74738e-05
1.73805e-05
1.73005e-05
1.72144e-05
1.71414e-05
1.70645e-05
1.70008e-05
1.69294e-05
1.68711e-05
1.68055e-05
1.67438e-05
1.66773e-05
1.66179e-05
1.65452e-05
1.64829e-05
1.6414e-05
1.63478e-05
1.62718e-05
1.62098e-05
1.61357e-05
1.60673e-05
1.59913e-05
1.59301e-05
1.58541e-05
1.57866e-05
1.57099e-05
1.56483e-05
1.5572e-05
1.55054e-05
1.54264e-05
1.53579e-05
1.99999e-05
1.98698e-05
1.9601e-05
1.93204e-05
1.90667e-05
1.88989e-05
1.87752e-05
1.8675e-05
1.85495e-05
1.84445e-05
1.83359e-05
1.82486e-05
1.8146e-05
1.80578e-05
1.79585e-05
1.78766e-05
1.77859e-05
1.7707e-05
1.76165e-05
1.75364e-05
1.74457e-05
1.7369e-05
1.72851e-05
1.72164e-05
1.71421e-05
1.70823e-05
1.70153e-05
1.69604e-05
1.68991e-05
1.68419e-05
1.67784e-05
1.67228e-05
1.66542e-05
1.65941e-05
1.65279e-05
1.6465e-05
1.63915e-05
1.63311e-05
1.62595e-05
1.61933e-05
1.61186e-05
1.60586e-05
1.59842e-05
1.59179e-05
1.58418e-05
1.57808e-05
1.57049e-05
1.56385e-05
1.5559e-05
1.54896e-05
1.99999e-05
1.9874e-05
1.96138e-05
1.93418e-05
1.90898e-05
1.89186e-05
1.87919e-05
1.86958e-05
1.85756e-05
1.8474e-05
1.8367e-05
1.82828e-05
1.81829e-05
1.80985e-05
1.80017e-05
1.79238e-05
1.78359e-05
1.77614e-05
1.76739e-05
1.75976e-05
1.75091e-05
1.74356e-05
1.73538e-05
1.7289e-05
1.72174e-05
1.71611e-05
1.70989e-05
1.70473e-05
1.699e-05
1.69376e-05
1.68774e-05
1.68252e-05
1.6761e-05
1.67033e-05
1.66393e-05
1.65802e-05
1.65096e-05
1.64502e-05
1.63811e-05
1.63178e-05
1.62443e-05
1.6185e-05
1.61125e-05
1.60478e-05
1.59722e-05
1.59115e-05
1.58362e-05
1.577e-05
1.56901e-05
1.562e-05
1.99999e-05
1.98781e-05
1.96262e-05
1.9363e-05
1.91131e-05
1.89393e-05
1.88093e-05
1.87158e-05
1.86007e-05
1.85032e-05
1.83978e-05
1.83163e-05
1.82188e-05
1.81381e-05
1.80437e-05
1.79697e-05
1.78842e-05
1.78142e-05
1.77296e-05
1.76569e-05
1.75705e-05
1.74997e-05
1.74204e-05
1.73582e-05
1.729e-05
1.7237e-05
1.71792e-05
1.71316e-05
1.70774e-05
1.70302e-05
1.69738e-05
1.69244e-05
1.68648e-05
1.68101e-05
1.6748e-05
1.66925e-05
1.66252e-05
1.65668e-05
1.64999e-05
1.64397e-05
1.63677e-05
1.63087e-05
1.62381e-05
1.61753e-05
1.61005e-05
1.60397e-05
1.5965e-05
1.58994e-05
1.58193e-05
1.57489e-05
1.99999e-05
1.98821e-05
1.96384e-05
1.93838e-05
1.91365e-05
1.89608e-05
1.88273e-05
1.87353e-05
1.86249e-05
1.85316e-05
1.84281e-05
1.83492e-05
1.82537e-05
1.81764e-05
1.80844e-05
1.80139e-05
1.79311e-05
1.78653e-05
1.77835e-05
1.77138e-05
1.76298e-05
1.75613e-05
1.74844e-05
1.74242e-05
1.73593e-05
1.731e-05
1.72556e-05
1.72125e-05
1.71615e-05
1.71191e-05
1.70671e-05
1.70203e-05
1.69648e-05
1.69139e-05
1.68538e-05
1.68011e-05
1.67374e-05
1.66805e-05
1.66157e-05
1.65582e-05
1.64883e-05
1.64297e-05
1.63605e-05
1.62998e-05
1.6226e-05
1.61652e-05
1.60908e-05
1.6026e-05
1.59462e-05
1.58758e-05
1.99999e-05
1.9886e-05
1.96503e-05
1.9404e-05
1.91596e-05
1.8983e-05
1.88458e-05
1.87541e-05
1.86479e-05
1.85592e-05
1.84577e-05
1.83813e-05
1.82875e-05
1.82132e-05
1.81236e-05
1.80565e-05
1.79763e-05
1.79144e-05
1.78353e-05
1.77686e-05
1.76867e-05
1.76204e-05
1.75449e-05
1.74872e-05
1.74249e-05
1.73796e-05
1.73281e-05
1.72894e-05
1.72423e-05
1.7204e-05
1.71564e-05
1.71129e-05
1.70609e-05
1.7014e-05
1.69566e-05
1.6906e-05
1.68457e-05
1.67912e-05
1.67282e-05
1.66729e-05
1.66054e-05
1.65476e-05
1.64796e-05
1.64206e-05
1.63484e-05
1.62876e-05
1.62135e-05
1.61496e-05
1.60704e-05
1.60004e-05
1.99999e-05
1.98898e-05
1.96618e-05
1.94235e-05
1.91826e-05
1.90053e-05
1.88644e-05
1.87727e-05
1.86698e-05
1.85855e-05
1.84865e-05
1.84128e-05
1.83203e-05
1.82486e-05
1.81612e-05
1.80974e-05
1.80198e-05
1.79616e-05