/*--------------------------------*- C++ -*----------------------------------*\
  =========                 |
  \\      /  F ield         | OpenFOAM: The Open Source CFD Toolbox
   \\    /   O peration     | Website:  https://openfoam.org
    \\  /    A nd           | Version:  7
     \\/     M anipulation  |
\*---------------------------------------------------------------------------*/
FoamFile
{
    version     2.0;
    format      ascii;
    class       surfaceScalarField;
    location    "0.12";
    object      phi;
}
// * * * * * * * * * * * * * * * * * * * * * * * * * * * * * * * * * * * * * //

dimensions      [0 3 -1 0 0 0 0];

internalField   nonuniform List<scalar> 
139350
(
6.45915e-08
9.204e-08
3.19487e-08
3.26428e-08
2.30563e-08
8.89238e-09
1.95611e-08
3.49527e-09
1.76087e-08
1.9524e-09
1.61807e-08
1.42795e-09
1.50475e-08
1.1332e-09
1.41335e-08
9.14016e-10
1.33811e-08
7.5244e-10
1.2747e-08
6.34033e-10
1.22026e-08
5.44477e-10
1.17283e-08
4.74288e-10
1.13104e-08
4.17848e-10
1.09388e-08
3.71629e-10
1.06056e-08
3.33229e-10
1.03046e-08
3.00928e-10
1.00312e-08
2.73462e-10
9.7813e-09
2.49885e-10
9.55183e-09
2.29472e-10
9.34016e-09
2.11665e-10
9.14414e-09
1.96025e-10
8.96194e-09
1.82202e-10
8.79202e-09
1.69918e-10
8.63307e-09
1.58944e-10
8.48398e-09
1.49098e-10
8.34375e-09
1.40226e-10
8.21155e-09
1.32201e-10
8.08663e-09
1.2492e-10
7.96834e-09
1.1829e-10
7.8561e-09
1.12244e-10
7.74939e-09
1.06703e-10
7.64775e-09
1.0164e-10
7.55079e-09
9.69669e-11
7.45807e-09
9.27144e-11
7.36933e-09
8.87466e-11
7.28413e-09
8.51991e-11
7.2023e-09
8.18257e-11
7.12336e-09
7.89369e-11
7.04724e-09
7.61215e-11
6.97337e-09
7.38767e-11
6.9016e-09
7.1768e-11
6.83155e-09
7.00502e-11
6.76216e-09
6.93882e-11
6.69474e-09
6.74149e-11
6.62376e-09
7.0984e-11
6.5589e-09
6.48549e-11
6.47444e-09
8.44629e-11
6.42931e-09
4.51315e-11
6.18025e-09
2.49056e-10
-2.73446e-09
8.91471e-09
1.26024e-07
1.27459e-07
9.1259e-08
6.74081e-08
7.19351e-08
2.82163e-08
6.12061e-08
1.42243e-08
5.47588e-08
8.39968e-09
5.02647e-08
5.92209e-09
4.67807e-08
4.61719e-09
4.39652e-08
3.72947e-09
4.1639e-08
3.07868e-09
3.96772e-08
2.59585e-09
3.79927e-08
2.22901e-09
3.65253e-08
1.94163e-09
3.52324e-08
1.71072e-09
3.40824e-08
1.52166e-09
3.30511e-08
1.36454e-09
3.21197e-08
1.23234e-09
3.12732e-08
1.11989e-09
3.04998e-08
1.02332e-09
2.97896e-08
9.39672e-10
2.91346e-08
8.66663e-10
2.85281e-08
8.02502e-10
2.79646e-08
7.45765e-10
2.74392e-08
6.95309e-10
2.69479e-08
6.50206e-10
2.64873e-08
6.09702e-10
2.60544e-08
5.7317e-10
2.56465e-08
5.40091e-10
2.52614e-08
5.10032e-10
2.4897e-08
4.82619e-10
2.45517e-08
4.57555e-10
2.42239e-08
4.34548e-10
2.39121e-08
4.13423e-10
2.36152e-08
3.93895e-10
2.33319e-08
3.75957e-10
2.30615e-08
3.59212e-10
2.28027e-08
3.43973e-10
2.2555e-08
3.29475e-10
2.23173e-08
3.16707e-10
2.20893e-08
3.0405e-10
2.18694e-08
2.93831e-10
2.16583e-08
2.82803e-10
2.14529e-08
2.75539e-10
2.12557e-08
2.66553e-10
2.10605e-08
2.62605e-10
2.08728e-08
2.58704e-10
2.06827e-08
2.54957e-10
2.04907e-08
2.76479e-10
2.03291e-08
2.06667e-10
1.99929e-08
5.85297e-10
-3.0899e-09
2.03483e-08
1.58806e-07
1.35057e-07
1.3649e-07
8.97241e-08
1.17485e-07
4.72214e-08
1.03304e-07
2.84049e-08
9.32959e-08
1.8408e-08
8.59937e-08
1.32243e-08
8.02884e-08
1.03225e-08
7.56382e-08
8.3796e-09
7.1761e-08
6.95596e-09
6.84695e-08
5.88726e-09
6.56307e-08
5.06782e-09
6.31497e-08
4.42269e-09
6.09577e-08
3.90267e-09
5.90036e-08
3.47578e-09
5.72479e-08
3.12021e-09
5.56599e-08
2.8204e-09
5.42148e-08
2.56493e-09
5.2893e-08
2.34519e-09
5.16781e-08
2.15458e-09
5.05567e-08
1.98801e-09
4.95178e-08
1.84146e-09
4.85518e-08
1.71173e-09
4.76509e-08
1.59624e-09
4.68082e-08
1.49291e-09
4.60178e-08
1.40003e-09
4.52748e-08
1.31617e-09
4.45747e-08
1.24017e-09
4.39137e-08
1.17103e-09
4.32885e-08
1.10791e-09
4.26959e-08
1.05011e-09
4.21335e-08
9.96992e-10
4.15988e-08
9.48096e-10
4.10898e-08
9.02852e-10
4.06047e-08
8.61105e-10
4.01418e-08
8.22115e-10
3.96994e-08
7.86333e-10
3.92766e-08
7.52295e-10
3.88714e-08
7.21887e-10
3.84838e-08
6.91631e-10
3.81108e-08
6.66833e-10
3.77545e-08
6.39114e-10
3.74086e-08
6.21506e-10
3.70802e-08
5.94888e-10
3.67547e-08
5.88146e-10
3.64512e-08
5.62171e-10
3.61366e-08
5.69614e-10
3.58483e-08
5.64718e-10
3.55584e-08
4.96534e-10
3.52431e-08
9.00682e-10
-2.46519e-09
3.46183e-08
1.75663e-07
1.3091e-07
1.65591e-07
9.97963e-08
1.52716e-07
6.00967e-08
1.40113e-07
4.10078e-08
1.29421e-07
2.90997e-08
1.20777e-07
2.18681e-08
1.13666e-07
1.74338e-08
1.07687e-07
1.43588e-08
1.02588e-07
1.20544e-08
9.81881e-08
1.02874e-08
9.43464e-08
8.90947e-09
9.09575e-08
7.81156e-09
8.79414e-08
6.9188e-09
8.52364e-08
6.1808e-09
8.2794e-08
5.56256e-09
8.05757e-08
5.03876e-09
7.855e-08
4.59058e-09
7.66915e-08
4.20372e-09
7.49789e-08
3.86713e-09
7.33947e-08
3.5722e-09
7.19241e-08
3.3121e-09
7.05545e-08
3.08136e-09
6.92751e-08
2.87558e-09
6.80769e-08
2.69114e-09
6.69518e-08
2.5251e-09
6.5893e-08
2.37497e-09
6.48945e-08
2.23871e-09
6.39509e-08
2.11459e-09
6.30577e-08
2.00112e-09
6.22108e-08
1.89707e-09
6.14064e-08
1.80133e-09
6.06415e-08
1.71303e-09
5.99131e-08
1.63125e-09
5.92186e-08
1.55556e-09
5.85559e-08
1.48484e-09
5.79227e-08
1.41959e-09
5.73174e-08
1.35755e-09
5.67377e-08
1.30159e-09
5.61833e-08
1.24599e-09
5.56506e-08
1.19962e-09
5.51419e-08
1.14774e-09
5.46495e-08
1.11392e-09
5.41827e-08
1.06169e-09
5.37227e-08
1.04811e-09
5.32947e-08
9.90185e-10
5.28566e-08
1.00774e-09
5.24593e-08
9.62037e-10
5.2049e-08
9.0681e-10
5.1689e-08
1.26069e-09
-1.5793e-09
5.08031e-08
1.84559e-07
1.23135e-07
1.82318e-07
1.02038e-07
1.76095e-07
6.63192e-08
1.67748e-07
4.93554e-08
1.59121e-07
3.77266e-08
1.51209e-07
2.97796e-08
1.44136e-07
2.45072e-08
1.37837e-07
2.06577e-08
1.32238e-07
1.76532e-08
1.27255e-07
1.52704e-08
1.22802e-07
1.33625e-08
1.18802e-07
1.18114e-08
1.15191e-07
1.05302e-08
1.11914e-07
9.45777e-09
1.08927e-07
8.54999e-09
1.06191e-07
7.77422e-09
1.03676e-07
7.10556e-09
1.01355e-07
6.52475e-09
9.92056e-08
6.0167e-09
9.72084e-08
5.56941e-09
9.53472e-08
5.17332e-09
9.36079e-08
4.82066e-09
9.19784e-08
4.50512e-09
9.0448e-08
4.22149e-09
8.90076e-08
3.96548e-09
8.76491e-08
3.73346e-09
8.63654e-08
3.52242e-09
8.51502e-08
3.32978e-09
8.3998e-08
3.15336e-09
8.29038e-08
2.99127e-09
8.18633e-08
2.84189e-09
8.08724e-08
2.70386e-09
7.99278e-08
2.57582e-09
7.90263e-08
2.45707e-09
7.81652e-08
2.34599e-09
7.73417e-08
2.24312e-09
7.65539e-08
2.14535e-09
7.5799e-08
2.05647e-09
7.50765e-08
1.96851e-09
7.43822e-08
1.89385e-09
7.37186e-08
1.81137e-09
7.30775e-08
1.75502e-09
7.24678e-08
1.67135e-09
7.18715e-08
1.6444e-09
7.13114e-08
1.55031e-09
7.07508e-08
1.56838e-09
7.02298e-08
1.483e-09
6.97104e-08
1.42625e-09
6.9236e-08
1.73508e-09
-6.19004e-10
6.82757e-08
1.90388e-07
1.14964e-07
1.91849e-07
1.00577e-07
1.90237e-07
6.79311e-08
1.86142e-07
5.34509e-08
1.80698e-07
4.31703e-08
1.74939e-07
3.55382e-08
1.6924e-07
3.02065e-08
1.63755e-07
2.61426e-08
1.5858e-07
2.28279e-08
1.53758e-07
2.0093e-08
1.4929e-07
1.78305e-08
1.4516e-07
1.59416e-08
1.41343e-07
1.43469e-08
1.37813e-07
1.29876e-08
1.34544e-07
1.18193e-08
1.3151e-07
1.0808e-08
1.28689e-07
9.92663e-09
1.2606e-07
9.15378e-09
1.23604e-07
8.47213e-09
1.21306e-07
7.86769e-09
1.19151e-07
7.32901e-09
1.17124e-07
6.84671e-09
1.15217e-07
6.413e-09
1.13417e-07
6.02142e-09
1.11716e-07
5.66655e-09
1.10105e-07
5.34377e-09
1.08578e-07
5.04922e-09
1.07129e-07
4.77954e-09
1.0575e-07
4.53189e-09
1.04438e-07
4.30377e-09
1.03186e-07
4.09304e-09
1.01992e-07
3.89787e-09
1.00852e-07
3.71648e-09
9.97611e-08
3.54782e-09
9.87172e-08
3.38983e-09
9.77173e-08
3.24303e-09
9.67592e-08
3.10351e-09
9.58398e-08
2.97582e-09
9.49583e-08
2.85003e-09
9.41107e-08
2.7414e-09
9.32986e-08
2.62356e-09
9.25148e-08
2.53874e-09
9.17659e-08
2.42028e-09
9.10381e-08
2.37221e-09
9.03459e-08
2.24256e-09
8.96674e-08
2.2468e-09
8.9018e-08
2.13247e-09
8.83935e-08
2.05067e-09
8.77905e-08
2.33814e-09
4.17771e-10
8.67537e-08
1.9554e-07
1.07239e-07
1.98245e-07
9.7872e-08
1.98962e-07
6.72134e-08
1.97777e-07
5.46364e-08
1.95139e-07
4.58081e-08
1.91792e-07
3.88856e-08
1.88055e-07
3.3943e-08
1.84101e-07
3.00963e-08
1.8008e-07
2.68495e-08
1.761e-07
2.40727e-08
1.7223e-07
2.17004e-08
1.68509e-07
1.96632e-08
1.64955e-07
1.79003e-08
1.61578e-07
1.63648e-08
1.58377e-07
1.50201e-08
1.55348e-07
1.38369e-08
1.52484e-07
1.27908e-08
1.49776e-07
1.1862e-08
1.47214e-07
1.10337e-08
1.4479e-07
1.0292e-08
1.42494e-07
9.62526e-09
1.40317e-07
9.02364e-09
1.38251e-07
8.47889e-09
1.36289e-07
7.98397e-09
1.34422e-07
7.53292e-09
1.32645e-07
7.12058e-09
1.30952e-07
6.74256e-09
1.29337e-07
6.39501e-09
1.27794e-07
6.07463e-09
1.26319e-07
5.77847e-09
1.24908e-07
5.50399e-09
1.23557e-07
5.24899e-09
1.22262e-07
5.01136e-09
1.2102e-07
4.78973e-09
1.19828e-07
4.58172e-09
1.18684e-07
4.38773e-09
1.17584e-07
4.2033e-09
1.16526e-07
4.03341e-09
1.1551e-07
3.86676e-09
1.1453e-07
3.72052e-09
1.13589e-07
3.56482e-09
1.12681e-07
3.44706e-09
1.11808e-07
3.29289e-09
1.10964e-07
3.21667e-09
1.10151e-07
3.05491e-09
1.09367e-07
3.03166e-09
1.08599e-07
2.89985e-09
1.07872e-07
2.77792e-09
1.07156e-07
3.05382e-09
1.53304e-09
1.06041e-07
2.00847e-07
9.99764e-08
2.03773e-07
9.49461e-08
2.05321e-07
6.56655e-08
2.05632e-07
5.43255e-08
2.04799e-07
4.66405e-08
2.03312e-07
4.0373e-08
2.01358e-07
3.58965e-08
1.99024e-07
3.24311e-08
1.96413e-07
2.94598e-08
1.9363e-07
2.68558e-08
1.90755e-07
2.45758e-08
1.87847e-07
2.25708e-08
1.84951e-07
2.07961e-08
1.82099e-07
1.92171e-08
1.79312e-07
1.78071e-08
1.76605e-07
1.65442e-08
1.73986e-07
1.54098e-08
1.7146e-07
1.4388e-08
1.69029e-07
1.34648e-08
1.66692e-07
1.26284e-08
1.64449e-07
1.18686e-08
1.62296e-07
1.11764e-08
1.60231e-07
1.05441e-08
1.5825e-07
9.96518e-09
1.56349e-07
9.43373e-09
1.54525e-07
8.94472e-09
1.52773e-07
8.49373e-09
1.51092e-07
8.07682e-09
1.49476e-07
7.69057e-09
1.47922e-07
7.33188e-09
1.46428e-07
6.99805e-09
1.44991e-07
6.68667e-09
1.43606e-07
6.39545e-09
1.42273e-07
6.12285e-09
1.40989e-07
5.86627e-09
1.3975e-07
5.62605e-09
1.38556e-07
5.39736e-09
1.37404e-07
5.18541e-09
1.36293e-07
4.97813e-09
1.3522e-07
4.7936e-09
1.34184e-07
4.60038e-09
1.33184e-07
4.44777e-09
1.32217e-07
4.25939e-09
1.31283e-07
4.15054e-09
1.30377e-07
3.96138e-09
1.29507e-07
3.90163e-09
1.28647e-07
3.76013e-09
1.27829e-07
3.59576e-09
1.27025e-07
3.85772e-09
2.70201e-09
1.25856e-07
2.06446e-07
9.30623e-08
2.09337e-07
9.20557e-08
2.11031e-07
6.39715e-08
2.1192e-07
5.34362e-08
2.11983e-07
4.65771e-08
2.11591e-07
4.07656e-08
2.10855e-07
3.66323e-08
2.09779e-07
3.3507e-08
2.08401e-07
3.08381e-08
2.06778e-07
2.84782e-08
2.04968e-07
2.63865e-08
2.03018e-07
2.45208e-08
2.00971e-07
2.2843e-08
1.98863e-07
2.13254e-08
1.96722e-07
1.99477e-08
1.94572e-07
1.86939e-08
1.92431e-07
1.75506e-08
1.90313e-07
1.65059e-08
1.88229e-07
1.55496e-08
1.86185e-07
1.46725e-08
1.84187e-07
1.38665e-08
1.82239e-07
1.31245e-08
1.80343e-07
1.24401e-08
1.785e-07
1.18077e-08
1.76712e-07
1.12224e-08
1.74977e-07
1.06796e-08
1.73295e-07
1.01756e-08
1.71665e-07
9.70655e-09
1.70086e-07
9.26941e-09
1.68557e-07
8.86119e-09
1.67076e-07
8.47931e-09
1.65641e-07
8.12138e-09
1.64251e-07
7.78514e-09
1.62905e-07
7.46903e-09
1.61601e-07
7.17041e-09
1.60337e-07
6.8896e-09
1.59113e-07
6.62165e-09
1.57927e-07
6.37185e-09
1.56777e-07
6.12791e-09
1.55663e-07
5.90802e-09
1.54582e-07
5.68078e-09
1.53535e-07
5.49473e-09
1.52518e-07
5.27608e-09
1.51535e-07
5.13376e-09
1.50574e-07
4.92266e-09
1.49652e-07
4.82339e-09
1.48736e-07
4.67669e-09
1.47855e-07
4.47688e-09
1.46993e-07
4.71875e-09
3.88676e-09
1.45809e-07
2.12288e-07
8.64366e-08
2.15149e-07
8.91944e-08
2.16785e-07
6.2336e-08
2.17832e-07
5.23888e-08
2.18242e-07
4.61674e-08
2.18352e-07
4.06556e-08
2.1827e-07
3.67145e-08
2.17964e-07
3.38123e-08
2.17429e-07
3.13738e-08
2.16682e-07
2.92254e-08
2.15747e-07
2.73212e-08
2.1465e-07
2.56179e-08
2.13416e-07
2.40768e-08
2.12071e-07
2.26707e-08
2.10637e-07
2.13812e-08
2.09137e-07
2.01945e-08
2.07587e-07
1.90998e-08
2.06005e-07
1.80881e-08
2.04404e-07
1.71513e-08
2.02793e-07
1.62826e-08
2.01184e-07
1.54759e-08
1.99583e-07
1.47256e-08
1.97996e-07
1.40269e-08
1.96428e-07
1.33754e-08
1.94883e-07
1.27672e-08
1.93364e-07
1.21987e-08
1.91873e-07
1.16666e-08
1.90412e-07
1.11681e-08
1.88981e-07
1.07003e-08
1.87581e-07
1.02608e-08
1.86213e-07
9.8473e-09
1.84877e-07
9.45761e-09
1.83572e-07
9.08968e-09
1.82299e-07
8.74209e-09
1.81058e-07
8.41231e-09
1.79846e-07
8.10074e-09
1.78666e-07
7.80249e-09
1.77515e-07
7.52284e-09
1.76393e-07
7.24974e-09
1.753e-07
7.00089e-09
1.74234e-07
6.74621e-09
1.73198e-07
6.53152e-09
1.72185e-07
6.28893e-09
1.71202e-07
6.11613e-09
1.70236e-07
5.8894e-09
1.69306e-07
5.75314e-09
1.68378e-07
5.60421e-09
1.67474e-07
5.38121e-09
1.66595e-07
5.59798e-09
5.04357e-09
1.65438e-07
2.18329e-07
8.00882e-08
2.21203e-07
8.63206e-08
2.22757e-07
6.07816e-08
2.23831e-07
5.13147e-08
2.2435e-07
4.56484e-08
2.24638e-07
4.03679e-08
2.24832e-07
3.65207e-08
2.24905e-07
3.37396e-08
2.24834e-07
3.1444e-08
2.24621e-07
2.94386e-08
2.2427e-07
2.76724e-08
2.23787e-07
2.61011e-08
2.2318e-07
2.46831e-08
2.22462e-07
2.33888e-08
2.21645e-07
2.21985e-08
2.20741e-07
2.10982e-08
2.19764e-07
2.00772e-08
2.18725e-07
1.91271e-08
2.17636e-07
1.82408e-08
2.16506e-07
1.74125e-08
2.15345e-07
1.6637e-08
2.1416e-07
1.59099e-08
2.1296e-07
1.52274e-08
2.1175e-07
1.45858e-08
2.10535e-07
1.39822e-08
2.09319e-07
1.34137e-08
2.08108e-07
1.28779e-08
2.06904e-07
1.23724e-08
2.05709e-07
1.1895e-08
2.04526e-07
1.14437e-08
2.03357e-07
1.10166e-08
2.02203e-07
1.06119e-08
2.01065e-07
1.02277e-08
1.99944e-07
9.86299e-09
1.98841e-07
9.51531e-09
1.97756e-07
9.18527e-09
1.96691e-07
8.86815e-09
1.95644e-07
8.5692e-09
1.94617e-07
8.27689e-09
1.9361e-07
8.00806e-09
1.92621e-07
7.7348e-09
1.91654e-07
7.49894e-09
1.90702e-07
7.24058e-09
1.89775e-07
7.04341e-09
1.88856e-07
6.8082e-09
1.87968e-07
6.64172e-09
1.87078e-07
6.49339e-09
1.86198e-07
6.26156e-09
1.85345e-07
6.45121e-09
6.12693e-09
1.84261e-07
2.24558e-07
7.40236e-08
2.27467e-07
8.34115e-08
2.28954e-07
5.92948e-08
2.30033e-07
5.02355e-08
2.30593e-07
4.50882e-08
2.30929e-07
4.00317e-08
2.31212e-07
3.62375e-08
2.31433e-07
3.35191e-08
2.31571e-07
3.13059e-08
2.31625e-07
2.93847e-08
2.31594e-07
2.77034e-08
2.31476e-07
2.62187e-08
2.31272e-07
2.48877e-08
2.30982e-07
2.36786e-08
2.30611e-07
2.257e-08
2.30162e-07
2.15464e-08
2.29643e-07
2.05964e-08
2.29059e-07
1.97109e-08
2.28417e-07
1.88827e-08
2.27724e-07
1.81059e-08
2.26985e-07
1.73755e-08
2.26208e-07
1.66874e-08
2.25397e-07
1.60379e-08
2.24559e-07
1.54241e-08
2.23698e-07
1.48432e-08
2.22819e-07
1.4293e-08
2.21925e-07
1.37713e-08
2.21021e-07
1.32763e-08
2.2011e-07
1.28063e-08
2.19194e-07
1.23595e-08
2.18276e-07
1.19345e-08
2.17359e-07
1.15297e-08
2.16443e-07
1.11436e-08
2.1553e-07
1.07754e-08
2.14623e-07
1.04228e-08
2.13722e-07
1.00866e-08
2.12827e-07
9.76231e-09
2.11941e-07
9.45511e-09
2.11064e-07
9.1542e-09
2.10197e-07
8.87526e-09
2.09339e-07
8.59314e-09
2.08493e-07
8.34484e-09
2.07654e-07
8.07963e-09
2.06831e-07
7.86607e-09
2.06009e-07
7.62974e-09
2.05209e-07
7.44244e-09
2.04404e-07
7.29772e-09
2.03595e-07
7.0712e-09
2.02811e-07
7.23496e-09
7.09487e-09
2.01843e-07
2.30979e-07
6.8251e-08
2.33931e-07
8.04587e-08
2.35359e-07
5.78674e-08
2.36444e-07
4.91504e-08
2.37037e-07
4.44947e-08
2.37389e-07
3.96803e-08
2.37693e-07
3.59329e-08
2.3796e-07
3.32528e-08
2.38173e-07
3.10923e-08
2.38336e-07
2.92219e-08
2.3845e-07
2.75891e-08
2.38514e-07
2.61548e-08
2.38525e-07
2.48767e-08
2.38481e-07
2.37223e-08
2.38382e-07
2.2669e-08
2.38228e-07
2.17006e-08
2.3802e-07
2.08046e-08
2.3776e-07
1.99713e-08
2.3745e-07
1.91928e-08
2.37093e-07
1.84628e-08
2.36692e-07
1.7776e-08
2.36252e-07
1.71281e-08
2.35774e-07
1.65154e-08
2.35264e-07
1.59348e-08
2.34723e-07
1.53836e-08
2.34156e-07
1.48598e-08
2.33566e-07
1.43613e-08
2.32956e-07
1.38864e-08
2.32329e-07
1.34338e-08
2.31686e-07
1.30019e-08
2.31031e-07
1.25893e-08
2.30366e-07
1.2195e-08
2.29692e-07
1.18175e-08
2.29012e-07
1.1456e-08
2.28326e-07
1.11086e-08
2.27636e-07
1.07762e-08
2.26944e-07
1.04545e-08
2.26251e-07
1.01485e-08
2.25557e-07
9.84829e-09
2.24864e-07
9.56812e-09
2.24171e-07
9.28601e-09
2.23482e-07
9.03361e-09
2.22792e-07
8.76981e-09
2.2211e-07
8.54813e-09
2.21422e-07
8.3173e-09
2.20745e-07
8.11934e-09
2.20062e-07
7.98114e-09
2.19361e-07
7.77196e-09
2.18683e-07
7.91352e-09
7.91518e-09
2.17862e-07
2.376e-07
6.27761e-08
2.40599e-07
7.74595e-08
2.41969e-07
5.64973e-08
2.43059e-07
4.80605e-08
2.43689e-07
4.38642e-08
2.44054e-07
3.93157e-08
2.44364e-07
3.56232e-08
2.44642e-07
3.29743e-08
2.44878e-07
3.08562e-08
2.45078e-07
2.90227e-08
2.45246e-07
2.74207e-08
2.45385e-07
2.6016e-08
2.45493e-07
2.47688e-08
2.45568e-07
2.36466e-08
2.4561e-07
2.26269e-08
2.45618e-07
2.1693e-08
2.45591e-07
2.08322e-08
2.45527e-07
2.00343e-08
2.45429e-07
1.92912e-08
2.45296e-07
1.8596e-08
2.45129e-07
1.79433e-08
2.44928e-07
1.73282e-08
2.44697e-07
1.6747e-08
2.44436e-07
1.61961e-08
2.44146e-07
1.56729e-08
2.43831e-07
1.51751e-08
2.43491e-07
1.47008e-08
2.4313e-07
1.42482e-08
2.42748e-07
1.38159e-08
2.42347e-07
1.34025e-08
2.41929e-07
1.30069e-08
2.41496e-07
1.26279e-08
2.4105e-07
1.22642e-08
2.40591e-07
1.19152e-08
2.4012e-07
1.15789e-08
2.3964e-07
1.12564e-08
2.39151e-07
1.09436e-08
2.38654e-07
1.06452e-08
2.3815e-07
1.03522e-08
2.37641e-07
1.00773e-08
2.37125e-07
9.80183e-09
2.36607e-07
9.5519e-09
2.36081e-07
9.2958e-09
2.35556e-07
9.07316e-09
2.3502e-07
8.85273e-09
2.34486e-07
8.65332e-09
2.33944e-07
8.52393e-09
2.33375e-07
8.34068e-09
2.32824e-07
8.46489e-09
8.57059e-09
2.32168e-07
2.4443e-07
5.76027e-08
2.47468e-07
7.44208e-08
2.48789e-07
5.51762e-08
2.49879e-07
4.69705e-08
2.50548e-07
4.31952e-08
2.5093e-07
3.89342e-08
2.51244e-07
3.53093e-08
2.51528e-07
3.26905e-08
2.51771e-07
3.06126e-08
2.51981e-07
2.88128e-08
2.52166e-07
2.72355e-08
2.52331e-07
2.58516e-08
2.52475e-07
2.46244e-08
2.526e-07
2.35222e-08
2.52704e-07
2.25226e-08
2.52787e-07
2.16094e-08
2.5285e-07
2.07699e-08
2.5289e-07
1.99939e-08
2.52908e-07
1.92731e-08
2.52903e-07
1.86007e-08
2.52876e-07
1.7971e-08
2.52825e-07
1.73789e-08
2.52752e-07
1.68203e-08
2.52656e-07
1.62918e-08
2.52539e-07
1.57903e-08
2.524e-07
1.53135e-08
2.52242e-07
1.48592e-08
2.52064e-07
1.44258e-08
2.51868e-07
1.40118e-08
2.51655e-07
1.36157e-08
2.51426e-07
1.32365e-08
2.5118e-07
1.2873e-08
2.50921e-07
1.25238e-08
2.50647e-07
1.21886e-08
2.50361e-07
1.18653e-08
2.50063e-07
1.15549e-08
2.49753e-07
1.12536e-08
2.49432e-07
1.09657e-08
2.49101e-07
1.06833e-08
2.48761e-07
1.04171e-08
2.48411e-07
1.01519e-08
2.48055e-07
9.90854e-09
2.47687e-07
9.66382e-09
2.47314e-07
9.44533e-09
2.46929e-07
9.23798e-09
2.46538e-07
9.04416e-09
2.46137e-07
8.92481e-09
2.45706e-07
8.77201e-09
2.45287e-07
8.88363e-09
9.06093e-09
2.44797e-07
2.51477e-07
5.27325e-08
2.54546e-07
7.1352e-08
2.55828e-07
5.38939e-08
2.56913e-07
4.5886e-08
2.57619e-07
4.24887e-08
2.5802e-07
3.85328e-08
2.5834e-07
3.49897e-08
2.58629e-07
3.24018e-08
2.58877e-07
3.03641e-08
2.59091e-07
2.85986e-08
2.59282e-07
2.70451e-08
2.59454e-07
2.56795e-08
2.5961e-07
2.44684e-08
2.59751e-07
2.33809e-08
2.59879e-07
2.23952e-08
2.59993e-07
2.14955e-08
2.60093e-07
2.06694e-08
2.6018e-07
1.99069e-08
2.60253e-07
1.91999e-08
2.60313e-07
1.85415e-08
2.60357e-07
1.79261e-08
2.60388e-07
1.73486e-08
2.60403e-07
1.68048e-08
2.60404e-07
1.62912e-08
2.6039e-07
1.58045e-08
2.60361e-07
1.53423e-08
2.60318e-07
1.49025e-08
2.6026e-07
1.44832e-08
2.60189e-07
1.4083e-08
2.60104e-07
1.37004e-08
2.60006e-07
1.33343e-08
2.59896e-07
1.29836e-08
2.59773e-07
1.26468e-08
2.59638e-07
1.23237e-08
2.59491e-07
1.20122e-08
2.59332e-07
1.17133e-08
2.59163e-07
1.14232e-08
2.58982e-07
1.11459e-08
2.58791e-07
1.08745e-08
2.5859e-07
1.06179e-08
2.58378e-07
1.03641e-08
2.58158e-07
1.01289e-08
2.57925e-07
9.89673e-09
2.57685e-07
9.68525e-09
2.57432e-07
9.49151e-09
2.57168e-07
9.30772e-09
2.56894e-07
9.19846e-09
2.5659e-07
9.07681e-09
2.56294e-07
9.1796e-09
9.40146e-09
2.55953e-07
2.5875e-07
4.81656e-08
2.61839e-07
6.82631e-08
2.63093e-07
5.26397e-08
2.64167e-07
4.48119e-08
2.64908e-07
4.17472e-08
2.65332e-07
3.81096e-08
2.65658e-07
3.46636e-08
2.65952e-07
3.21077e-08
2.66206e-07
3.01102e-08
2.66424e-07
2.83808e-08
2.66617e-07
2.68519e-08
2.66792e-07
2.55046e-08
2.66951e-07
2.43086e-08
2.67098e-07
2.32344e-08
2.67233e-07
2.22605e-08
2.67357e-07
2.13713e-08
2.67471e-07
2.0555e-08
2.67576e-07
1.98019e-08
2.67672e-07
1.91041e-08
2.67759e-07
1.84548e-08
2.67836e-07
1.78485e-08
2.67904e-07
1.72803e-08
2.67963e-07
1.67458e-08
2.68013e-07
1.62416e-08
2.68053e-07
1.57643e-08
2.68084e-07
1.53116e-08
2.68105e-07
1.48812e-08
2.68117e-07
1.44712e-08
2.6812e-07
1.40803e-08
2.68113e-07
1.37071e-08
2.68097e-07
1.33502e-08
2.68072e-07
1.30087e-08
2.68038e-07
1.26812e-08
2.67994e-07
1.23673e-08
2.67941e-07
1.20651e-08
2.67879e-07
1.17753e-08
2.67808e-07
1.14947e-08
2.67728e-07
1.12264e-08
2.67637e-07
1.09647e-08
2.67538e-07
1.07168e-08
2.67429e-07
1.04735e-08
2.67311e-07
1.02464e-08
2.67182e-07
1.00261e-08
2.67045e-07
9.82268e-09
2.66895e-07
9.64149e-09
2.66733e-07
9.46977e-09
2.66561e-07
9.36971e-09
2.66361e-07
9.27691e-09
2.66168e-07
9.37326e-09
9.61789e-09
2.65951e-07
2.66257e-07
4.39003e-08
2.69356e-07
6.51646e-08
2.70592e-07
5.14032e-08
2.71652e-07
4.37528e-08
2.72425e-07
4.09743e-08
2.72871e-07
3.76628e-08
2.73205e-07
3.43301e-08
2.73505e-07
3.18081e-08
2.73764e-07
2.98507e-08
2.73986e-07
2.81588e-08
2.74182e-07
2.66561e-08
2.74359e-07
2.53276e-08
2.7452e-07
2.4147e-08
2.74669e-07
2.3086e-08
2.74806e-07
2.21233e-08
2.74933e-07
2.1244e-08
2.75052e-07
2.04363e-08
2.75163e-07
1.96911e-08
2.75267e-07
1.90005e-08
2.75363e-07
1.83581e-08
2.75453e-07
1.77584e-08
2.75537e-07
1.71965e-08
2.75615e-07
1.66684e-08
2.75686e-07
1.61703e-08
2.75751e-07
1.56992e-08
2.7581e-07
1.52525e-08
2.75863e-07
1.4828e-08
2.7591e-07
1.44241e-08
2.75952e-07
1.40391e-08
2.75987e-07
1.36718e-08
2.76016e-07
1.33209e-08
2.76039e-07
1.29856e-08
2.76056e-07
1.26644e-08
2.76067e-07
1.23569e-08
2.7607e-07
1.20613e-08
2.76067e-07
1.17782e-08
2.76057e-07
1.15047e-08
2.7604e-07
1.12434e-08
2.76016e-07
1.09896e-08
2.75984e-07
1.07487e-08
2.75943e-07
1.05143e-08
2.75895e-07
1.02944e-08
2.75837e-07
1.00842e-08
2.75771e-07
9.8887e-09
2.75694e-07
9.71819e-09
2.75605e-07
9.55884e-09
2.75508e-07
9.46663e-09
2.75387e-07
9.39847e-09
2.7527e-07
9.48949e-09
9.74004e-09
2.75148e-07
2.74008e-07
3.99332e-08
2.77105e-07
6.20675e-08
2.78334e-07
5.01741e-08
2.79375e-07
4.27121e-08
2.80176e-07
4.01738e-08
2.80647e-07
3.71908e-08
2.80989e-07
3.39881e-08
2.81294e-07
3.15032e-08
2.8156e-07
2.95853e-08
2.81786e-07
2.79322e-08
2.81985e-07
2.64573e-08
2.82164e-07
2.51485e-08
2.82327e-07
2.39838e-08
2.82477e-07
2.29362e-08
2.82616e-07
2.1985e-08
2.82744e-07
2.11154e-08
2.82864e-07
2.03162e-08
2.82977e-07
1.95784e-08
2.83083e-07
1.88945e-08
2.83183e-07
1.82582e-08
2.83277e-07
1.7664e-08
2.83366e-07
1.71074e-08
2.8345e-07
1.65842e-08
2.8353e-07
1.60908e-08
2.83605e-07
1.56242e-08
2.83676e-07
1.51817e-08
2.83742e-07
1.47613e-08
2.83805e-07
1.43613e-08
2.83864e-07
1.39801e-08
2.83919e-07
1.36167e-08
2.8397e-07
1.32697e-08
2.84017e-07
1.29384e-08
2.84061e-07
1.26214e-08
2.84099e-07
1.23182e-08
2.84133e-07
1.20272e-08
2.84163e-07
1.17488e-08
2.84187e-07
1.14806e-08
2.84206e-07
1.12244e-08
2.84219e-07
1.09766e-08
2.84226e-07
1.07412e-08
2.84227e-07
1.0514e-08
2.84221e-07
1.03e-08
2.84207e-07
1.00982e-08
2.84186e-07
9.91003e-09
2.84156e-07
9.74823e-09
2.84114e-07
9.60053e-09
2.84066e-07
9.51477e-09
2.83998e-07
9.46626e-09
2.83935e-07
9.55211e-09
9.79617e-09
2.83879e-07
2.82012e-07
3.6259e-08
2.85096e-07
5.89834e-08
2.86327e-07
4.89429e-08
2.87347e-07
4.16926e-08
2.8817e-07
3.93506e-08
2.88668e-07
3.66925e-08
2.8902e-07
3.36365e-08
2.8933e-07
3.11931e-08
2.89601e-07
2.93139e-08
2.89833e-07
2.77008e-08
2.90035e-07
2.62552e-08
2.90216e-07
2.4967e-08
2.90381e-07
2.38187e-08
2.90533e-07
2.2785e-08
2.90672e-07
2.18456e-08
2.90801e-07
2.0986e-08
2.90922e-07
2.01954e-08
2.91035e-07
1.94651e-08
2.91142e-07
1.87878e-08
2.91243e-07
1.81574e-08
2.91338e-07
1.75686e-08
2.91429e-07
1.70168e-08
2.91515e-07
1.64981e-08
2.91597e-07
1.60088e-08
2.91676e-07
1.55459e-08
2.9175e-07
1.51068e-08
2.91822e-07
1.46896e-08
2.91891e-07
1.42925e-08
2.91957e-07
1.39142e-08
2.9202e-07
1.35535e-08
2.9208e-07
1.32093e-08
2.92138e-07
1.28807e-08
2.92193e-07
1.25666e-08
2.92245e-07
1.22665e-08
2.92293e-07
1.19788e-08
2.92338e-07
1.17038e-08
2.92379e-07
1.14395e-08
2.92416e-07
1.11872e-08
2.92449e-07
1.09441e-08
2.92477e-07
1.07131e-08
2.92499e-07
1.04916e-08
2.92516e-07
1.02828e-08
2.92527e-07
1.00878e-08
2.9253e-07
9.90629e-09
2.92527e-07
9.75157e-09
2.92513e-07
9.61436e-09
2.92494e-07
9.53388e-09
2.9246e-07
9.50007e-09
2.92432e-07
9.58036e-09
9.80928e-09
2.92419e-07
2.90277e-07
3.28705e-08
2.93337e-07
5.5924e-08
2.94579e-07
4.77008e-08
2.95575e-07
4.06962e-08
2.96416e-07
3.85098e-08
2.96942e-07
3.61667e-08
2.97304e-07
3.32739e-08
2.9762e-07
3.08778e-08
2.97897e-07
2.90365e-08
2.98134e-07
2.74641e-08
2.98339e-07
2.60495e-08
2.98524e-07
2.47829e-08
2.98691e-07
2.36515e-08
2.98844e-07
2.26322e-08
2.98984e-07
2.1705e-08
2.99114e-07
2.08557e-08
2.99236e-07
2.0074e-08
2.9935e-07
1.93513e-08
2.99457e-07
1.86807e-08
2.99558e-07
1.80563e-08
2.99654e-07
1.74728e-08
2.99745e-07
1.69259e-08
2.99831e-07
1.64115e-08
2.99914e-07
1.59261e-08
2.99993e-07
1.54667e-08
3.00069e-07
1.50309e-08
3.00142e-07
1.46165e-08
3.00213e-07
1.42219e-08
3.00281e-07
1.3846e-08
3.00347e-07
1.34875e-08
3.00411e-07
1.31455e-08
3.00472e-07
1.28191e-08
3.00531e-07
1.25073e-08
3.00588e-07
1.22096e-08
3.00643e-07
1.19245e-08
3.00694e-07
1.16523e-08
3.00742e-07
1.13912e-08
3.00788e-07
1.1142e-08
3.00829e-07
1.09029e-08
3.00866e-07
1.06756e-08
3.00899e-07
1.0459e-08
3.00927e-07
1.02547e-08
3.0095e-07
1.00654e-08
3.00966e-07
9.89004e-09
3.00976e-07
9.74126e-09
3.00977e-07
9.6133e-09
3.00974e-07
9.53724e-09
3.0096e-07
9.51372e-09
3.00953e-07
9.58774e-09
9.796e-09
3.00966e-07
2.98814e-07
2.9759e-08
3.01837e-07
5.29013e-08
3.03098e-07
4.64398e-08
3.0407e-07
3.97236e-08
3.04923e-07
3.76569e-08
3.05477e-07
3.56132e-08
3.05852e-07
3.28989e-08
3.06173e-07
3.05571e-08
3.06456e-07
2.87531e-08
3.06698e-07
2.7222e-08
3.06908e-07
2.58399e-08
3.07095e-07
2.4596e-08
3.07264e-07
2.34822e-08
3.07419e-07
2.24776e-08
3.07561e-07
2.1563e-08
3.07692e-07
2.07243e-08
3.07814e-07
1.99517e-08
3.07929e-07
1.92369e-08
3.08036e-07
1.85732e-08
3.08137e-07
1.79549e-08
3.08233e-07
1.73769e-08
3.08324e-07
1.68349e-08
3.08411e-07
1.63249e-08
3.08494e-07
1.58434e-08
3.08573e-07
1.53875e-08
3.08649e-07
1.49547e-08
3.08722e-07
1.45431e-08
3.08793e-07
1.4151e-08
3.08862e-07
1.37773e-08
3.08929e-07
1.34209e-08
3.08993e-07
1.30808e-08
3.09056e-07
1.27564e-08
3.09117e-07
1.24467e-08
3.09175e-07
1.2151e-08
3.09232e-07
1.18684e-08
3.09285e-07
1.15986e-08
3.09336e-07
1.13402e-08
3.09384e-07
1.10939e-08
3.09429e-07
1.08583e-08
3.0947e-07
1.06345e-08
3.09507e-07
1.04221e-08
3.09539e-07
1.02222e-08
3.09567e-07
1.00379e-08
3.09589e-07
9.86833e-09
3.09605e-07
9.72478e-09
3.09613e-07
9.60491e-09
3.09618e-07
9.53267e-09
3.09616e-07
9.51571e-09
3.09621e-07
9.58268e-09
9.76711e-09
3.0965e-07
3.07632e-07
2.69138e-08
3.10606e-07
4.99274e-08
3.11893e-07
4.51531e-08
3.12842e-07
3.87749e-08
3.13701e-07
3.67973e-08
3.14282e-07
3.50322e-08
3.14671e-07
3.25097e-08
3.14998e-07
3.02309e-08
3.15287e-07
2.84638e-08
3.15535e-07
2.6974e-08
3.15749e-07
2.5626e-08
3.15939e-07
2.44061e-08
3.16111e-07
2.33104e-08
3.16267e-07
2.23211e-08
3.16411e-07
2.14194e-08
3.16543e-07
2.05918e-08
3.16666e-07
1.98285e-08
3.16781e-07
1.91218e-08
3.1689e-07
1.84652e-08
3.16991e-07
1.78531e-08
3.17087e-07
1.72807e-08
3.17179e-07
1.67437e-08
3.17265e-07
1.62382e-08
3.17348e-07
1.57607e-08
3.17427e-07
1.53084e-08
3.17503e-07
1.48787e-08
3.17576e-07
1.44698e-08
3.17647e-07
1.40801e-08
3.17716e-07
1.37086e-08
3.17783e-07
1.33542e-08
3.17847e-07
1.30161e-08
3.1791e-07
1.26936e-08
3.17971e-07
1.23858e-08
3.1803e-07
1.20922e-08
3.18086e-07
1.18118e-08
3.18141e-07
1.15443e-08
3.18192e-07
1.12887e-08
3.18241e-07
1.10451e-08
3.18287e-07
1.08128e-08
3.18329e-07
1.05923e-08
3.18367e-07
1.0384e-08
3.18401e-07
1.01883e-08
3.1843e-07
1.00086e-08
3.18454e-07
9.8446e-09
3.18473e-07
9.70589e-09
3.18484e-07
9.59304e-09
3.18493e-07
9.52414e-09
3.18498e-07
9.51077e-09
3.18511e-07
9.5699e-09
9.72908e-09
3.18549e-07
3.16742e-07
2.43229e-08
3.19655e-07
4.70143e-08
3.20973e-07
4.38356e-08
3.21899e-07
3.78489e-08
3.2276e-07
3.59362e-08
3.23367e-07
3.44248e-08
3.23772e-07
3.21049e-08
3.24104e-07
2.98988e-08
3.24399e-07
2.81687e-08
3.24653e-07
2.67199e-08
3.24872e-07
2.54075e-08
3.25065e-07
2.42128e-08
3.25239e-07
2.31361e-08
3.25398e-07
2.21624e-08
3.25543e-07
2.12741e-08
3.25677e-07
2.04578e-08
3.25802e-07
1.97042e-08
3.25918e-07
1.90059e-08
3.26026e-07
1.83565e-08
3.26129e-07
1.77508e-08
3.26225e-07
1.71842e-08
3.26316e-07
1.66523e-08
3.26403e-07
1.61514e-08
3.26486e-07
1.5678e-08
3.26565e-07
1.52292e-08
3.26641e-07
1.48027e-08
3.26714e-07
1.43966e-08
3.26785e-07
1.40094e-08
3.26854e-07
1.364e-08
3.2692e-07
1.32877e-08
3.26985e-07
1.29515e-08
3.27048e-07
1.26309e-08
3.27108e-07
1.23251e-08
3.27167e-07
1.20336e-08
3.27223e-07
1.17553e-08
3.27277e-07
1.14902e-08
3.27329e-07
1.12372e-08
3.27378e-07
1.09964e-08
3.27423e-07
1.07674e-08
3.27465e-07
1.05502e-08
3.27503e-07
1.03458e-08
3.27537e-07
1.01542e-08
3.27567e-07
9.97902e-09
3.27591e-07
9.82032e-09
3.27611e-07
9.68621e-09
3.27625e-07
9.57941e-09
3.27635e-07
9.51341e-09
3.27645e-07
9.5013e-09
3.27663e-07
9.55188e-09
9.68561e-09
3.27706e-07
3.26152e-07
2.1973e-08
3.28993e-07
4.41738e-08
3.30345e-07
4.24833e-08
3.3125e-07
3.69438e-08
3.32108e-07
3.50782e-08
3.3274e-07
3.37927e-08
3.33162e-07
3.1683e-08
3.33501e-07
2.956e-08
3.33802e-07
2.78679e-08
3.34062e-07
2.64597e-08
3.34286e-07
2.5184e-08
3.34482e-07
2.4016e-08
3.3466e-07
2.29588e-08
3.34821e-07
2.20014e-08
3.34968e-07
2.11268e-08
3.35104e-07
2.03223e-08
3.35229e-07
1.95787e-08
3.35346e-07
1.88889e-08
3.35456e-07
1.8247e-08
3.35558e-07
1.7648e-08
3.35655e-07
1.70872e-08
3.35747e-07
1.65606e-08
3.35834e-07
1.60643e-08
3.35917e-07
1.55951e-08
3.35996e-07
1.515e-08
3.36072e-07
1.47267e-08
3.36146e-07
1.43234e-08
3.36216e-07
1.39386e-08
3.36285e-07
1.35715e-08
3.36351e-07
1.32212e-08
3.36416e-07
1.2887e-08
3.36478e-07