/*--------------------------------*- C++ -*----------------------------------*\
  =========                 |
  \\      /  F ield         | OpenFOAM: The Open Source CFD Toolbox
   \\    /   O peration     | Website:  https://openfoam.org
    \\  /    A nd           | Version:  7
     \\/     M anipulation  |
\*---------------------------------------------------------------------------*/
FoamFile
{
    version     2.0;
    format      ascii;
    class       volVectorField;
    location    "0.12";
    object      U;
}
// * * * * * * * * * * * * * * * * * * * * * * * * * * * * * * * * * * * * * //

dimensions      [0 1 -1 0 0 0 0];

internalField   nonuniform List<vector> 
70000
(
(0.553389 0.0167232 0)
(0.251249 0.00340119 0)
(0.166177 0.000322186 0)
(0.132419 5.44301e-05 0)
(0.117219 4.58592e-05 0)
(0.107287 5.40282e-05 0)
(0.0993318 4.63927e-05 0)
(0.0928854 3.70558e-05 0)
(0.087635 3.07469e-05 0)
(0.0832602 2.64267e-05 0)
(0.0795327 2.31363e-05 0)
(0.0763044 2.05026e-05 0)
(0.0734736 1.8356e-05 0)
(0.0709664 1.65836e-05 0)
(0.0687262 1.51019e-05 0)
(0.0667096 1.38493e-05 0)
(0.0648822 1.27799e-05 0)
(0.0632165 1.1859e-05 0)
(0.0616904 1.10601e-05 0)
(0.0602855 1.03622e-05 0)
(0.0589868 9.74912e-06 0)
(0.0577817 9.20754e-06 0)
(0.0566597 8.72696e-06 0)
(0.0556115 8.29887e-06 0)
(0.0546296 7.91629e-06 0)
(0.0537072 7.57379e-06 0)
(0.0528386 7.26643e-06 0)
(0.0520188 6.99138e-06 0)
(0.0512432 6.74393e-06 0)
(0.050508 6.52487e-06 0)
(0.0498097 6.32694e-06 0)
(0.0491451 6.15752e-06 0)
(0.0485117 6.00243e-06 0)
(0.0479065 5.88141e-06 0)
(0.0473277 5.7661e-06 0)
(0.0467727 5.6965e-06 0)
(0.0462398 5.62682e-06 0)
(0.0457274 5.60965e-06 0)
(0.0452313 5.62114e-06 0)
(0.0447559 5.62537e-06 0)
(0.0442848 5.8543e-06 0)
(0.043845 5.70728e-06 0)
(0.0433764 6.62723e-06 0)
(0.0429843 5.62209e-06 0)
(0.0424633 8.85624e-06 0)
(0.0421737 4.30398e-06 0)
(0.0414469 1.56751e-05 0)
(0.0414479 -2.67689e-06 0)
(0.0401908 4.02349e-05 0)
(0.0381553 -0.00147536 0)
(0.884898 0.043168 0)
(0.649698 0.0201953 0)
(0.494275 0.00659972 0)
(0.403595 0.00276889 0)
(0.354651 0.00155317 0)
(0.323333 0.00113269 0)
(0.299461 0.000911448 0)
(0.280254 0.000747538 0)
(0.264531 0.000624711 0)
(0.251401 0.000534005 0)
(0.240211 0.000465175 0)
(0.230522 0.00041104 0)
(0.222025 0.00036733 0)
(0.214498 0.000331385 0)
(0.207772 0.000301399 0)
(0.201717 0.000276077 0)
(0.196229 0.000254465 0)
(0.191227 0.000235843 0)
(0.186644 0.000219664 0)
(0.182426 0.000205502 0)
(0.178528 0.000193023 0)
(0.174911 0.000181959 0)
(0.171544 0.000172096 0)
(0.168401 0.000163261 0)
(0.165457 0.000155312 0)
(0.162693 0.000148131 0)
(0.160092 0.00014162 0)
(0.157639 0.0001357 0)
(0.15532 0.000130299 0)
(0.153125 0.000125364 0)
(0.151042 0.000120836 0)
(0.149062 0.000116694 0)
(0.147179 0.000112867 0)
(0.145383 0.000109389 0)
(0.143669 0.000106138 0)
(0.142031 0.000103257 0)
(0.140463 0.000100495 0)
(0.138962 9.82144e-05 0)
(0.137517 9.59127e-05 0)
(0.136139 9.43109e-05 0)
(0.134787 9.25821e-05 0)
(0.133533 9.17584e-05 0)
(0.13222 9.12045e-05 0)
(0.131128 9.08993e-05 0)
(0.129723 9.39184e-05 0)
(0.128947 9.14468e-05 0)
(0.127085 0.000109369 0)
(0.127095 7.22799e-05 0)
(0.12404 0.000308401 0)
(0.122739 -0.00234663 0)
(0.991238 0.0499027 0)
(0.890333 0.0307217 0)
(0.762638 0.0146012 0)
(0.656595 0.00798285 0)
(0.585245 0.00488764 0)
(0.535822 0.00347363 0)
(0.497941 0.00273799 0)
(0.467311 0.00224566 0)
(0.441985 0.00188258 0)
(0.420664 0.00161108 0)
(0.402401 0.00140378 0)
(0.386528 0.0012407 0)
(0.372568 0.00110909 0)
(0.360171 0.00100085 0)
(0.349072 0.000910511 0)
(0.339062 0.00083418 0)
(0.329978 0.00076899 0)
(0.321688 0.000712785 0)
(0.314085 0.000663919 0)
(0.307082 0.000621113 0)
(0.300604 0.000583362 0)
(0.294591 0.000549865 0)
(0.288991 0.000519978 0)
(0.28376 0.000493178 0)
(0.27886 0.000469036 0)
(0.274259 0.000447197 0)
(0.269928 0.000427365 0)
(0.265843 0.000409293 0)
(0.261982 0.000392767 0)
(0.258326 0.000377617 0)
(0.254859 0.000363674 0)
(0.251565 0.000350838 0)
(0.248431 0.000338939 0)
(0.245446 0.00032799 0)
(0.2426 0.000317725 0)
(0.239881 0.000308407 0)
(0.237282 0.000299446 0)
(0.234798 0.000291706 0)
(0.232411 0.000283761 0)
(0.23014 0.000277858 0)
(0.227922 0.000270673 0)
(0.225865 0.000267372 0)
(0.223742 0.000260882 0)
(0.221957 0.000261598 0)
(0.219749 0.000257058 0)
(0.218456 0.000262031 0)
(0.21568 0.000273819 0)
(0.215512 0.000226092 0)
(0.211157 0.000542197 0)
(0.211511 -0.00211137 0)
(1.0156 0.048922 0)
(1.00595 0.0358794 0)
(0.935912 0.0207976 0)
(0.852047 0.01351 0)
(0.782076 0.0092127 0)
(0.726855 0.00678537 0)
(0.681758 0.00538718 0)
(0.643991 0.00444785 0)
(0.611965 0.00375415 0)
(0.584489 0.00322847 0)
(0.560627 0.0028224 0)
(0.539672 0.00250076 0)
(0.521093 0.00224004 0)
(0.504487 0.00202485 0)
(0.489539 0.00184469 0)
(0.475997 0.00169205 0)
(0.463662 0.00156137 0)
(0.452369 0.00144847 0)
(0.441984 0.00135012 0)
(0.432394 0.00126383 0)
(0.423506 0.00118761 0)
(0.415241 0.00111989 0)
(0.407531 0.00105938 0)
(0.400319 0.00100506 0)
(0.393555 0.000956059 0)
(0.387197 0.000911679 0)
(0.381206 0.000871327 0)
(0.375551 0.000834502 0)
(0.370202 0.000800779 0)
(0.365133 0.000769801 0)
(0.360324 0.000741242 0)
(0.355752 0.000714871 0)
(0.351402 0.00069038 0)
(0.347257 0.000667722 0)
(0.343303 0.000646447 0)
(0.339527 0.000626926 0)
(0.335918 0.000608143 0)
(0.332467 0.000591579 0)
(0.329156 0.000574551 0)
(0.326003 0.000561427 0)
(0.322938 0.000545171 0)
(0.32008 0.000537254 0)
(0.317174 0.000520209 0)
(0.314676 0.000521699 0)
(0.311729 0.000502008 0)
(0.309831 0.000518712 0)
(0.306334 0.000509438 0)
(0.30569 0.000472591 0)
(0.30059 0.000765737 0)
(0.301227 -0.00148287 0)
(1.01434 0.0460057 0)
(1.04752 0.0374942 0)
(1.02455 0.0241598 0)
(0.974692 0.0175675 0)
(0.923343 0.0131295 0)
(0.876542 0.0102119 0)
(0.83436 0.00834727 0)
(0.796602 0.00702554 0)
(0.763034 0.0060154 0)
(0.733216 0.00522779 0)
(0.706635 0.00460579 0)
(0.682819 0.00410522 0)
(0.661367 0.00369468 0)
(0.641947 0.0033527 0)
(0.624281 0.0030642 0)
(0.608139 0.00281822 0)
(0.593325 0.00260649 0)
(0.579678 0.00242273 0)
(0.567059 0.00226202 0)
(0.555353 0.00212051 0)
(0.544459 0.00199515 0)
(0.534291 0.00188344 0)
(0.524777 0.00178341 0)
(0.515852 0.00169339 0)
(0.50746 0.00161203 0)
(0.499553 0.00153821 0)
(0.492088 0.00147096 0)
(0.485027 0.00140949 0)
(0.478338 0.0013531 0)
(0.471989 0.0013012 0)
(0.465957 0.00125328 0)
(0.460215 0.00120893 0)
(0.454745 0.00116768 0)
(0.449527 0.00112939 0)
(0.444545 0.00109339 0)
(0.439782 0.00106015 0)
(0.435227 0.00102818 0)
(0.430868 0.000999598 0)
(0.426685 0.000970343 0)
(0.422694 0.000947098 0)
(0.418825 0.000918675 0)
(0.415194 0.000903571 0)
(0.411549 0.000872648 0)
(0.408335 0.000872761 0)
(0.404722 0.000834165 0)
(0.402142 0.000860316 0)
(0.398102 0.000826057 0)
(0.396694 0.000800791 0)
(0.391391 0.00105492 0)
(0.391003 -0.000802116 0)
(1.00933 0.0429174 0)
(1.05527 0.0372704 0)
(1.05866 0.0253058 0)
(1.03631 0.0197697 0)
(1.00701 0.0158211 0)
(0.975925 0.0129439 0)
(0.944372 0.0109662 0)
(0.913486 0.00948303 0)
(0.884118 0.00829199 0)
(0.856654 0.00732384 0)
(0.831169 0.00653367 0)
(0.807599 0.00588135 0)
(0.785823 0.00533553 0)
(0.765695 0.00487347 0)
(0.747069 0.00447849 0)
(0.729801 0.00413796 0)
(0.713761 0.00384212 0)
(0.698829 0.0035833 0)
(0.684898 0.00335539 0)
(0.671872 0.00315351 0)
(0.659666 0.00297371 0)
(0.648206 0.00281276 0)
(0.637423 0.00266804 0)
(0.62726 0.00253732 0)
(0.617663 0.0024188 0)
(0.608586 0.00231093 0)
(0.599985 0.0022124 0)
(0.591824 0.0021221 0)
(0.58407 0.00203907 0)
(0.576691 0.00196249 0)
(0.569661 0.00189163 0)
(0.562956 0.00182589 0)
(0.556554 0.00176465 0)
(0.550433 0.00170762 0)
(0.54458 0.00165395 0)
(0.538974 0.00160415 0)
(0.533604 0.00155629 0)
(0.528455 0.00151306 0)
(0.523511 0.0014691 0)
(0.518779 0.00143319 0)
(0.514202 0.00139037 0)
(0.509872 0.0013654 0)
(0.505577 0.00131893 0)
(0.50169 0.00131403 0)
(0.497508 0.00125686 0)
(0.494231 0.00128476 0)
(0.489799 0.00123238 0)
(0.487489 0.00120291 0)
(0.482263 0.00143944 0)
(0.480494 -8.26577e-05 0)
(1.00625 0.0400361 0)
(1.05206 0.0363436 0)
(1.06607 0.0252364 0)
(1.05955 0.0205715 0)
(1.04679 0.0172503 0)
(1.03068 0.0146662 0)
(1.01175 0.012828 0)
(0.991037 0.0114013 0)
(0.969606 0.0102035 0)
(0.948186 0.00918699 0)
(0.927221 0.00832618 0)
(0.906972 0.00759325 0)
(0.887584 0.00696382 0)
(0.869126 0.00641913 0)
(0.851613 0.00594477 0)
(0.835034 0.00552928 0)
(0.819353 0.00516337 0)
(0.804527 0.00483947 0)
(0.790508 0.00455134 0)
(0.777244 0.00429383 0)
(0.764687 0.00406267 0)
(0.752787 0.00385431 0)
(0.7415 0.00366578 0)
(0.730784 0.00349457 0)
(0.720598 0.00333855 0)
(0.710906 0.0031959 0)
(0.701674 0.0030651 0)
(0.69287 0.00294476 0)
(0.684468 0.00283376 0)
(0.676439 0.00273104 0)
(0.668762 0.00263573 0)
(0.661412 0.00254705 0)
(0.654372 0.00246423 0)
(0.647621 0.00238688 0)
(0.641145 0.00231397 0)
(0.634926 0.00224602 0)
(0.628954 0.00218075 0)
(0.623213 0.00212125 0)
(0.617689 0.00206118 0)
(0.612385 0.00201087 0)
(0.607256 0.00195257 0)
(0.60237 0.00191549 0)
(0.597561 0.00185337 0)
(0.593115 0.00183946 0)
(0.588491 0.00176672 0)
(0.584594 0.00178703 0)
(0.579892 0.00172677 0)
(0.576742 0.00167892 0)
(0.571628 0.00191123 0)
(0.568707 0.000697279 0)
(1.00495 0.0373584 0)
(1.04726 0.0352622 0)
(1.06395 0.0246977 0)
(1.06421 0.0205997 0)
(1.06061 0.0177904 0)
(1.05464 0.0155113 0)
(1.04585 0.0138879 0)
(1.03463 0.0126257 0)
(1.02169 0.0115385 0)
(1.00764 0.0105847 0)
(0.992937 0.00975118 0)
(0.977934 0.00902054 0)
(0.962896 0.00837612 0)
(0.948015 0.00780487 0)
(0.933426 0.00729659 0)
(0.919219 0.00684285 0)
(0.905451 0.00643651 0)
(0.892157 0.00607145 0)
(0.879351 0.0057424 0)
(0.867037 0.00544488 0)
(0.855209 0.005175 0)
(0.843856 0.00492946 0)
(0.832964 0.0047054 0)
(0.822516 0.00450039 0)
(0.812493 0.00431229 0)
(0.802875 0.00413926 0)
(0.793644 0.0039797 0)
(0.78478 0.00383217 0)
(0.776266 0.00369545 0)
(0.768083 0.00356839 0)
(0.760215 0.00345003 0)
(0.752645 0.0033395 0)
(0.74536 0.00323593 0)
(0.738343 0.00313885 0)
(0.731585 0.00304713 0)
(0.725069 0.00296127 0)
(0.71879 0.00287875 0)
(0.712731 0.00280293 0)
(0.706885 0.00272682 0)
(0.701249 0.00266168 0)
(0.695792 0.00258819 0)
(0.690558 0.00253782 0)
(0.685431 0.00246131 0)
(0.680609 0.00243531 0)
(0.675709 0.00235103 0)
(0.671362 0.00235659 0)
(0.666508 0.00229621 0)
(0.662723 0.00222562 0)
(0.657698 0.00245428 0)
(0.653988 0.00152831 0)
(1.0044 0.0348107 0)
(1.04323 0.0341897 0)
(1.05992 0.0240578 0)
(1.06225 0.0203075 0)
(1.06243 0.0178565 0)
(1.0617 0.015795 0)
(1.0591 0.0143449 0)
(1.05452 0.013248 0)
(1.04828 0.0123028 0)
(1.04068 0.0114608 0)
(1.03202 0.0107114 0)
(1.02254 0.0100414 0)
(1.01248 0.00943792 0)
(1.00202 0.00889168 0)
(0.991343 0.0083958 0)
(0.980567 0.00794472 0)
(0.969795 0.00753367 0)
(0.959108 0.00715843 0)
(0.948565 0.00681524 0)
(0.93821 0.00650076 0)
(0.928075 0.00621201 0)
(0.918182 0.00594637 0)
(0.908546 0.0057015 0)
(0.899176 0.00547535 0)
(0.890076 0.0052661 0)
(0.881246 0.00507212 0)
(0.872684 0.00489197 0)
(0.864386 0.00472433 0)
(0.856347 0.00456804 0)
(0.848559 0.00442202 0)
(0.841016 0.0042853 0)
(0.83371 0.00415703 0)
(0.826634 0.00403632 0)
(0.819778 0.00392269 0)
(0.813139 0.00381496 0)
(0.806704 0.00371364 0)
(0.800472 0.0036161 0)
(0.794431 0.00352582 0)
(0.788578 0.00343554 0)
(0.782907 0.00335685 0)
(0.777401 0.00327002 0)
(0.772085 0.00320678 0)
(0.766885 0.00311835 0)
(0.761929 0.00307909 0)
(0.756961 0.00298738 0)
(0.752398 0.0029749 0)
(0.747541 0.00291869 0)
(0.743391 0.00282901 0)
(0.738491 0.00304993 0)
(0.734339 0.00238517 0)
(1.00402 0.0323708 0)
(1.0399 0.0331403 0)
(1.05614 0.0234359 0)
(1.05888 0.019921 0)
(1.06016 0.0177282 0)
(1.06148 0.0158016 0)
(1.06182 0.0144528 0)
(1.06089 0.0134708 0)
(1.0588 0.0126414 0)
(1.05565 0.011905 0)
(1.05154 0.0112485 0)
(1.04657 0.0106581 0)
(1.04087 0.0101212 0)
(1.03458 0.0096292 0)
(1.02779 0.00917623 0)
(1.02064 0.00875817 0)
(1.0132 0.00837164 0)
(1.00557 0.00801374 0)
(0.997818 0.00768193 0)
(0.989997 0.00737392 0)
(0.98216 0.00708762 0)
(0.974346 0.00682119 0)
(0.966588 0.00657292 0)
(0.958913 0.00634131 0)
(0.951342 0.00612499 0)
(0.943889 0.0059227 0)
(0.936569 0.00573331 0)
(0.929388 0.00555575 0)
(0.922355 0.00538907 0)
(0.915472 0.00523234 0)
(0.908743 0.00508472 0)
(0.902167 0.00494545 0)
(0.895747 0.00481371 0)
(0.88948 0.00468907 0)
(0.883366 0.00457038 0)
(0.877401 0.0044582 0)
(0.871587 0.00434989 0)
(0.865917 0.00424895 0)
(0.860392 0.00414818 0)
(0.855008 0.00405899 0)
(0.849757 0.00396221 0)
(0.844655 0.00388832 0)
(0.839654 0.00379156 0)
(0.834838 0.00374004 0)
(0.830039 0.00364508 0)
(0.825525 0.00361499 0)
(0.820851 0.00356521 0)
(0.816624 0.00346432 0)
(0.811956 0.00367402 0)
(0.807684 0.00323731 0)
(1.00364 0.0300307 0)
(1.03691 0.0320935 0)
(1.0528 0.0228474 0)
(1.05565 0.0195175 0)
(1.05706 0.0175382 0)
(1.05893 0.0157039 0)
(1.06035 0.0144026 0)
(1.06101 0.0134836 0)
(1.06098 0.0127277 0)
(1.0603 0.0120655 0)
(1.05897 0.0114811 0)
(1.057 0.0109596 0)
(1.05441 0.0104868 0)
(1.05128 0.010053 0)
(1.04764 0.00965187 0)
(1.04357 0.00927921 0)
(1.03912 0.00893184 0)
(1.03435 0.00860726 0)
(1.02932 0.00830341 0)
(1.02407 0.00801853 0)
(1.01866 0.00775108 0)
(1.01312 0.00749969 0)
(1.00749 0.00726317 0)
(1.00179 0.00704043 0)
(0.996066 0.00683049 0)
(0.99033 0.00663248 0)
(0.984602 0.00644557 0)
(0.978901 0.00626899 0)
(0.973239 0.00610203 0)
(0.967629 0.00594396 0)
(0.962079 0.00579413 0)
(0.956596 0.00565192 0)
(0.951188 0.00551665 0)
(0.945858 0.00538796 0)
(0.940612 0.0052648 0)
(0.93545 0.00514778 0)
(0.930379 0.00503436 0)
(0.925395 0.00492799 0)
(0.920504 0.00482173 0)
(0.915706 0.00472656 0)
(0.910996 0.00462445 0)
(0.906387 0.00454362 0)
(0.901849 0.00444305 0)
(0.897437 0.00438217 0)
(0.893046 0.00428822 0)
(0.88884 0.00424388 0)
(0.88455 0.00420199 0)
(0.880519 0.0040995 0)
(0.876233 0.00429653 0)
(0.87213 0.00405199 0)
(1.00327 0.0277913 0)
(1.03408 0.0310356 0)
(1.04968 0.0222854 0)
(1.05268 0.0191119 0)
(1.05406 0.0173295 0)
(1.05599 0.015577 0)
(1.05767 0.0142979 0)
(1.05886 0.0134091 0)
(1.05965 0.0126939 0)
(1.06007 0.0120749 0)
(1.06013 0.0115354 0)
(1.0598 0.0110604 0)
(1.05906 0.0106346 0)
(1.05792 0.010247 0)
(1.05641 0.00989047 0)
(1.05453 0.00955995 0)
(1.05231 0.00925186 0)
(1.04978 0.00896344 0)
(1.04696 0.00869252 0)
(1.0439 0.00843735 0)
(1.04062 0.00819647 0)
(1.03714 0.00796867 0)
(1.0335 0.00775292 0)
(1.02972 0.00754832 0)
(1.02583 0.00735412 0)
(1.02184 0.00716965 0)
(1.01778 0.00699432 0)
(1.01366 0.00682755 0)
(1.00951 0.00666884 0)
(1.00532 0.00651765 0)
(1.00112 0.00637349 0)
(0.996921 0.00623587 0)
(0.992723 0.00610424 0)
(0.988537 0.00597837 0)
(0.984371 0.00585728 0)
(0.980229 0.00574167 0)
(0.97612 0.00562909 0)
(0.972044 0.00552296 0)
(0.968009 0.00541669 0)
(0.964016 0.00532062 0)
(0.960065 0.00521832 0)
(0.956167 0.00513506 0)
(0.952304 0.0050356 0)
(0.948512 0.00496948 0)
(0.944728 0.00488073 0)
(0.941048 0.00482734 0)
(0.937317 0.0047946 0)
(0.933714 0.00470007 0)
(0.929956 0.00488503 0)
(0.926263 0.00479709 0)
(1.00292 0.0256558 0)
(1.03137 0.029962 0)
(1.04668 0.0217455 0)
(1.04989 0.0187044 0)
(1.05125 0.0171087 0)
(1.05313 0.0154431 0)
(1.05485 0.0141796 0)
(1.05616 0.0133064 0)
(1.05718 0.0126142 0)
(1.05799 0.0120191 0)
(1.05861 0.0115041 0)
(1.05901 0.0110556 0)
(1.05918 0.0106584 0)
(1.05911 0.0103009 0)
(1.05879 0.00997511 0)
(1.05823 0.00967558 0)
(1.05742 0.00939816 0)
(1.05638 0.00913967 0)
(1.05511 0.00889761 0)
(1.05363 0.00866998 0)
(1.05195 0.00845516 0)
(1.05008 0.0082518 0)
(1.04803 0.00805882 0)
(1.04584 0.00787529 0)
(1.0435 0.00770048 0)
(1.04104 0.00753375 0)
(1.03847 0.00737461 0)
(1.0358 0.00722256 0)
(1.03305 0.00707721 0)
(1.03023 0.00693812 0)
(1.02734 0.0068049 0)
(1.02441 0.00667719 0)
(1.02144 0.00655448 0)
(1.01843 0.00643666 0)
(1.01539 0.0063228 0)
(1.01234 0.00621367 0)
(1.00927 0.00610694 0)
(1.00619 0.00600592 0)
(1.00311 0.0059045 0)
(1.00003 0.00581216 0)
(0.996949 0.00571438 0)
(0.993883 0.00563308 0)
(0.990817 0.00553923 0)
(0.987775 0.00547229 0)
(0.984723 0.00539237 0)
(0.98171 0.00533581 0)
(0.978657 0.00531329 0)
(0.975642 0.00523492 0)
(0.972521 0.00540999 0)
(0.969404 0.00544528 0)
(1.0026 0.023627 0)
(1.02879 0.0288714 0)
(1.04376 0.0212266 0)
(1.0472 0.0182948 0)
(1.04856 0.0168745 0)
(1.05041 0.0153047 0)
(1.05213 0.0140587 0)
(1.05344 0.0131965 0)
(1.05449 0.0125206 0)
(1.0554 0.0119405 0)
(1.05619 0.0114392 0)
(1.05686 0.011005 0)
(1.05739 0.0106235 0)
(1.05779 0.010283 0)
(1.05804 0.00997547 0)
(1.05815 0.00969521 0)
(1.05811 0.00943782 0)
(1.05791 0.00919985 0)
(1.05757 0.00897854 0)
(1.05707 0.00877166 0)
(1.05642 0.00857736 0)
(1.05563 0.00839414 0)
(1.0547 0.00822071 0)
(1.05363 0.00805605 0)
(1.05245 0.00789931 0)
(1.05114 0.00774981 0)
(1.04973 0.00760699 0)
(1.04822 0.00747038 0)
(1.04661 0.00733958 0)
(1.04493 0.0072142 0)
(1.04316 0.00709388 0)
(1.04133 0.00697831 0)
(1.03943 0.006867 0)
(1.03748 0.00675991 0)
(1.03548 0.00665613 0)
(1.03343 0.00655647 0)
(1.03134 0.00645869 0)
(1.02921 0.00636593 0)
(1.02706 0.00627265 0)
(1.02487 0.00618731 0)
(1.02266 0.00609747 0)
(1.02044 0.00602152 0)
(1.01818 0.00593661 0)
(1.01592 0.00587269 0)
(1.01363 0.0058041 0)
(1.01134 0.0057498 0)
(1.009 0.00573818 0)
(1.00664 0.0056818 0)
(1.0042 0.00584987 0)
(1.00174 0.00597831 0)
(1.0023 0.0217067 0)
(1.02633 0.0277647 0)
(1.04093 0.020727 0)
(1.0446 0.0178847 0)
(1.04598 0.0166256 0)
(1.0478 0.0151603 0)
(1.04951 0.0139365 0)
(1.05081 0.0130843 0)
(1.05186 0.012423 0)
(1.05277 0.0118555 0)
(1.05359 0.0113637 0)
(1.05432 0.010938 0)
(1.05497 0.0105654 0)
(1.05553 0.0102343 0)
(1.05601 0.00993691 0)
(1.0564 0.0096675 0)
(1.05671 0.0094217 0)
(1.05692 0.00919601 0)
(1.05705 0.00898758 0)
(1.05707 0.00879408 0)
(1.05701 0.00861354 0)
(1.05684 0.00844431 0)
(1.05658 0.008285 0)
(1.05623 0.00813444 0)
(1.05578 0.00799167 0)
(1.05525 0.00785592 0)
(1.05463 0.00772655 0)
(1.05393 0.00760305 0)
(1.05314 0.00748499 0)
(1.05229 0.00737198 0)
(1.05136 0.00726363 0)
(1.05037 0.00715965 0)
(1.04931 0.00705956 0)
(1.0482 0.00696333 0)
(1.04703 0.00687004 0)
(1.04581 0.0067805 0)
(1.04453 0.0066926 0)
(1.04322 0.00660921 0)
(1.04185 0.00652541 0)
(1.04045 0.00644854 0)
(1.03901 0.0063683 0)
(1.03753 0.00629956 0)
(1.03602 0.00622531 0)
(1.03447 0.00616702 0)
(1.03288 0.00611082 0)
(1.03127 0.00606292 0)
(1.0296 0.0060622 0)
(1.02789 0.00603084 0)
(1.02611 0.00619467 0)
(1.0243 0.00638986 0)
(1.00203 0.0198956 0)
(1.02401 0.026645 0)
(1.0382 0.0202437 0)
(1.04207 0.0174758 0)
(1.04348 0.016362 0)
(1.04527 0.0150086 0)
(1.04698 0.0138123 0)
(1.04828 0.0129703 0)
(1.04932 0.0123235 0)
(1.05022 0.0117684 0)
(1.05103 0.0112851 0)
(1.05177 0.0108662 0)
(1.05243 0.0104997 0)
(1.05303 0.0101746 0)
(1.05357 0.00988326 0)
(1.05406 0.00962004 0)
(1.0545 0.00938075 0)
(1.05488 0.00916196 0)
(1.0552 0.00896087 0)
(1.05547 0.00877514 0)
(1.05568 0.00860281 0)
(1.05584 0.00844217 0)
(1.05593 0.00829177 0)
(1.05596 0.00815037 0)
(1.05593 0.00801694 0)
(1.05585 0.00789062 0)
(1.0557 0.00777074 0)
(1.0555 0.00765674 0)
(1.05524 0.00754815 0)
(1.05492 0.00744457 0)
(1.05455 0.00734559 0)
(1.05413 0.00725093 0)
(1.05365 0.00716008 0)
(1.05313 0.00707302 0)
(1.05256 0.00698884 0)
(1.05194 0.00690829 0)
(1.05127 0.0068294 0)
(1.05056 0.00675474 0)
(1.04981 0.00668003 0)
(1.04901 0.00661146 0)
(1.04818 0.0065408 0)
(1.0473 0.00647965 0)
(1.04638 0.00641614 0)
(1.04542 0.00636468 0)
(1.04442 0.00632052 0)
(1.04337 0.00628148 0)
(1.04228 0.00629091 0)
(1.04113 0.00628485 0)
(1.03991 0.00644639 0)
(1.03868 0.00668591 0)
(1.00179 0.0181941 0)
(1.02183 0.0255162 0)
(1.03556 0.0197728 0)
(1.03963 0.0170702 0)
(1.04107 0.0160845 0)
(1.04283 0.0148486 0)
(1.04453 0.0136857 0)
(1.04584 0.0128542 0)
(1.04687 0.012222 0)
(1.04776 0.0116799 0)
(1.04856 0.0112053 0)
(1.04928 0.0107928 0)
(1.04993 0.0104318 0)
(1.05053 0.0101116 0)
(1.05109 0.00982467 0)
(1.05159 0.00956564 0)
(1.05206 0.00933045 0)
(1.05249 0.00911579 0)
(1.05289 0.00891895 0)
(1.05325 0.00873766 0)
(1.05357 0.00857001 0)
(1.05386 0.00841429 0)
(1.05411 0.00826907 0)
(1.05432 0.00813307 0)
(1.0545 0.00800524 0)
(1.05464 0.0078847 0)
(1.05474 0.00777074 0)
(1.05481 0.00766278 0)
(1.05483 0.00756035 0)
(1.05483 0.00746304 0)
(1.05478 0.00737045 0)
(1.0547 0.00728229 0)
(1.05458 0.00719806 0)
(1.05443 0.00711773 0)
(1.05424 0.00704042 0)
(1.05402 0.0069668 0)
(1.05375 0.00689508 0)
(1.05345 0.00682748 0)
(1.05312 0.00676038 0)
(1.05275 0.00669886 0)
(1.05234 0.0066366 0)
(1.05189 0.00658229 0)
(1.0514 0.00652842 0)
(1.05088 0.00648384 0)
(1.05031 0.0064503 0)
(1.0497 0.00642103 0)
(1.04904 0.00643927 0)
(1.04833 0.00645658 0)
(1.04756 0.00661676 0)
(1.04679 0.00688218 0)
(1.00157 0.0166017 0)
(1.01978 0.0243821 0)
(1.03302 0.0193103 0)
(1.03728 0.0166695 0)
(1.03876 0.0157943 0)
(1.04048 0.0146797 0)
(1.04218 0.0135563 0)
(1.04349 0.0127359 0)
(1.04451 0.0121182 0)
(1.04539 0.0115897 0)
(1.04617 0.0111245 0)
(1.04688 0.0107186 0)
(1.04753 0.010363 0)
(1.04811 0.0100475 0)
(1.04866 0.00976461 0)
(1.04916 0.00950913 0)
(1.04963 0.00927715 0)
(1.05007 0.00906549 0)
(1.05048 0.00887152 0)
(1.05086 0.00869308 0)
(1.05121 0.00852829 0)
(1.05155 0.00837551 0)
(1.05185 0.00823331 0)
(1.05214 0.00810043 0)
(1.0524 0.00797581 0)
(1.05263 0.00785858 0)
(1.05285 0.00774801 0)
(1.05304 0.00764355 0)
(1.05321 0.00754473 0)
(1.05335 0.00745117 0)
(1.05348 0.00736246 0)
(1.05358 0.00727835 0)
(1.05365 0.00719834 0)
(1.05371 0.00712243 0)
(1.05373 0.00704975 0)
(1.05374 0.00698092 0)
(1.05371 0.00691433 0)
(1.05366 0.00685186 0)
(1.05358 0.00679056 0)
(1.05347 0.00673442 0)
(1.05333 0.00667889 0)
(1.05316 0.00663017 0)
(1.05296 0.00658423 0)
(1.05272 0.0065459 0)
(1.05245 0.00652106 0)
(1.05214 0.00650134 0)
(1.05178 0.00652678 0)
(1.05138 0.00656412 0)
(1.05093 0.00672295 0)
(1.0505 0.00699969 0)
(1.00137 0.0151176 0)
(1.01787 0.0232468 0)
(1.03059 0.0188523 0)
(1.03502 0.0162753 0)
(1.03654 0.0154929 0)
(1.03822 0.0145012 0)
(1.03991 0.0134238 0)
(1.04123 0.0126156 0)
(1.04224 0.012012 0)
(1.04311 0.0114978 0)
(1.04388 0.0110425 0)
(1.04458 0.0106435 0)
(1.04521 0.0102936 0)
(1.04579 0.00998282 0)
(1.04632 0.00970397 0)
(1.04681 0.00945195 0)
(1.04727 0.00922297 0)
(1.0477 0.00901396 0)
(1.0481 0.00882241 0)
(1.04848 0.0086462 0)
(1.04884 0.00848353 0)
(1.04918 0.0083328 0)
(1.0495 0.00819261 0)
(1.04981 0.0080617 0)
(1.05009 0.00793903 0)
(1.05036 0.00782374 0)
(1.05062 0.00771511 0)
(1.05086 0.00761262 0)
(1.05108 0.00751581 0)
(1.05129 0.00742434 0)
(1.05149 0.00733782 0)
(1.05167 0.00725605 0)
(1.05184 0.00717853 0)
(1.05199 0.00710528 0)
(1.05213 0.00703552 0)
(1.05224 0.00696975 0)
(1.05234 0.00690662 0)
(1.05242 0.00684762 0)
(1.05248 0.00679047 0)
(1.05252 0.00673821 0)
(1.05254 0.00668778 0)
(1.05252 0.0066434 0)
(1.05249 0.00660365 0)
(1.05242 0.00657069 0)
(1.05233 0.00655267 0)
(1.0522 0.00654164 0)
(1.05203 0.00657273 0)
(1.05183 0.00662617 0)
(1.0516 0.00678308 0)
(1.05139 0.00706009 0)
(1.00119 0.0137402 0)
(1.0161 0.0221144 0)
(1.02827 0.018395 0)
(1.03284 0.0158885 0)
(1.03442 0.015182 0)
(1.03605 0.0143126 0)
(1.03773 0.0132878 0)
(1.03905 0.0124931 0)
(1.04006 0.0119035 0)
(1.04092 0.0114039 0)
(1.04168 0.0109591 0)
(1.04237 0.0105675 0)
(1.04299 0.0102233 0)
(1.04355 0.00991755 0)
(1.04407 0.00964287 0)
(1.04456 0.00939439 0)
(1.045 0.00916843 0)
(1.04542 0.00896205 0)
(1.04582 0.00877282 0)
(1.04619 0.00859869 0)
(1.04654 0.00843791 0)
(1.04688 0.00828892 0)
(1.04719 0.00815034 0)
(1.04749 0.00802095 0)
(1.04778 0.00789968 0)
(1.04806 0.0077857 0)
(1.04832 0.00767832 0)
(1.04857 0.00757702 0)
(1.04881 0.00748138 0)
(1.04905 0.00739109 0)
(1.04927 0.00730582 0)
(1.04948 0.00722537 0)
(1.04968 0.00714931 0)
(1.04987 0.00707764 0)
(1.05005 0.00700968 0)
(1.05022 0.00694585 0)
(1.05038 0.00688501 0)
(1.05052 0.00682835 0)
(1.05064 0.00677416 0)
(1.05075 0.00672468 0)
(1.05084 0.00667808 0)
(1.05091 0.00663708 0)
(1.05096 0.0066021 0)
(1.05099 0.00657373 0)
(1.05099 0.00656097 0)
(1.05096 0.00655758 0)
(1.0509 0.00659306 0)
(1.05082 0.00665869 0)
(1.05071 0.00681284 0)
(1.05065 0.00708222 0)
(1.00104 0.0124671 0)
(1.01446 0.0209892 0)
(1.02606 0.0179351 0)
(1.03075 0.0155102 0)
(1.03239 0.0148635 0)
(1.03398 0.0141134 0)
(1.03564 0.0131476 0)
(1.03697 0.0123687 0)
(1.03798 0.0117925 0)
(1.03882 0.0113079 0)
(1.03957 0.0108744 0)
(1.04025 0.0104905 0)
(1.04086 0.0101523 0)
(1.04142 0.00985161 0)
(1.04193 0.00958127 0)
(1.0424 0.00933645 0)
(1.04283 0.00911361 0)
(1.04324 0.00890992 0)
(1.04363 0.00872304 0)
(1.04399 0.00855099 0)
(1.04433 0.00839207 0)
(1.04466 0.00824477 0)
(1.04496 0.00810771 0)
(1.04526 0.00797967 0)
(1.04554 0.00785963 0)
(1.04581 0.00774673 0)
(1.04607 0.0076403 0)
(1.04632 0.00753987 0)
(1.04656 0.00744503 0)
(1.0468 0.00735552 0)
(1.04702 0.00727103 0)
(1.04724 0.00719141 0)
(1.04745 0.00711627 0)
(1.04765 0.00704562 0)
(1.04785 0.00697887 0)
(1.04803 0.00691635 0)
(1.04821 0.00685714 0)
(1.04837 0.00680215 0)
(1.04852 0.00675019 0)
(1.04866 0.00670283 0)
(1.04878 0.00665921 0)
(1.04889 0.00662101 0)
(1.04897 0.00658979 0)
(1.04904 0.00656546 0)
(1.04909 0.00655689 0)
(1.04911 0.0065601 0)
(1.04911 0.00659907 0)
(1.04909 0.00667339 0)
(1.04906 0.0068239 0)
(1.04907 0.00708033 0)
(1.0009 0.0112956 0)
(1.01295 0.0198755 0)
(1.02396 0.0174694 0)
(1.02875 0.0151407 0)
(1.03045 0.0145395 0)
(1.03201 0.0139035 0)
(1.03364 0.0130028 0)
(1.03497 0.0122421 0)
(1.03598 0.0116791 0)
(1.03682 0.0112097 0)
(1.03756 0.0107881 0)
(1.03823 0.0104123 0)
(1.03883 0.0100804 0)
(1.03937 0.00978495 0)
(1.03987 0.00951911 0)
(1.04033 0.00927807 0)
(1.04076 0.00905846 0)
(1.04116 0.00885755 0)
(1.04153 0.00867309 0)
(1.04188 0.00850318 0)
(1.04222 0.00834617 0)
(1.04253 0.00820056 0)
(1.04283 0.00806502 0)
(1.04312 0.00793833 0)
(1.04339 0.00781946 0)
(1.04365 0.00770758 0)
(1.04391 0.00760203 0)
(1.04415 0.00750235 0)
(1.04439 0.00740819 0)
(1.04462 0.00731929 0)
(1.04484 0.00723541 0)
(1.04505 0.00715641 0)
(1.04526 0.00708198 0)
(1.04546 0.0070121 0)
(1.04566 0.00694628 0)
(1.04584 0.00688477 0)
(1.04602 0.00682688 0)
(1.04619 0.00677325 0)
(1.04634 0.00672312 0)
(1.04649 0.00667758 0)
(1.04662 0.00663645 0)
(1.04674 0.00660073 0)
(1.04684 0.00657268 0)
(1.04693 0.00655202 0)
(1.04699 0.00654698 0)
(1.04703 0.00655588 0)
(1.04706 0.00659773 0)
(1.04707 0.00667783 0)
(1.04708 0.00682383 0)
(1.04714 0.0070641 0)
(1.00078 0.0102221 0)
(1.01156 0.0187778 0)
(1.02198 0.0169953 0)
(1.02683 0.0147802 0)
(1.02861 0.0142121 0)
(1.03012 0.0136829 0)
(1.03173 0.0128526 0)
(1.03306 0.0121134 0)
(1.03407 0.0115633 0)
(1.0349 0.0111092 0)
(1.03563 0.0107 0)
(1.03629 0.0103328 0)
(1.03689 0.0100074 0)
(1.03742 0.00971747 0)
(1.03791 0.00945629 0)
(1.03836 0.0092192 0)
(1.03878 0.00900292 0)
(1.03917 0.00880488 0)
(1.03953 0.00862292 0)
(1.03988 0.00845522 0)
(1.0402 0.00830017 0)
(1.04051 0.00815632 0)
(1.0408 0.00802233 0)
(1.04108 0.00789701 0)
(1.04134 0.00777933 0)
(1.0416 0.00766846 0)
(1.04184 0.00756378 0)
(1.04208 0.00746484 0)
(1.04231 0.00737131 0)
(1.04253 0.00728299 0)
(1.04274 0.00719966 0)
(1.04295 0.00712123 0)
(1.04316 0.00704741 0)
(1.04335 0.00697822 0)
(1.04354 0.00691324 0)
(1.04372 0.00685265 0)
(1.0439 0.00679593 0)
(1.04406 0.00674355 0)
(1.04422 0.00669508 0)
(1.04436 0.00665124 0)
(1.04449 0.00661234 0)
(1.04461 0.00657901 0)
(1.04471 0.00655376 0)
(1.0448 0.00653657 0)
(1.04487 0.00653468 0)
(1.04493 0.00654849 0)
(1.04496 0.00659281 0)
(1.04499 0.00667632 0)
(1.04502 0.00681707 0)
(1.04511 0.00703944 0)
(1.00067 0.00924244 0)
(1.0103 0.0177005 0)
(1.02011 0.0165105 0)
(1.02499 0.0144283 0)
(1.02685 0.0138833 0)
(1.02833 0.0134518 0)
(1.02991 0.0126965 0)
(1.03124 0.0119825 0)
(1.03225 0.0114452 0)
(1.03307 0.0110062 0)
(1.0338 0.0106102 0)
(1.03445 0.0102521 0)
(1.03503 0.00993341 0)
(1.03556 0.00964911 0)
(1.03604 0.00939276 0)
(1.03649 0.00915974 0)
(1.03689 0.00894692 0)
(1.03728 0.00875186 0)
(1.03763 0.00857249 0)
(1.03797 0.00840706 0)
(1.03828 0.00825403 0)
(1.03858 0.00811198 0)
(1.03887 0.0079796 0)
(1.03913 0.00785569 0)
(1.03939 0.00773922 0)
(1.03964 0.0076294 0)
(1.03988 0.00752559 0)
(1.0401 0.00742739 0)
(1.04033 0.0073345 0)
(1.04054 0.00724675 0)
(1.04075 0.00716397 0)
(1.04095 0.0070861 0)
(1.04115 0.0070129 0)
(1.04134 0.00694438 0)
(1.04152 0.00688021 0)
(1.0417 0.00682052 0)
(1.04187 0.00676495 0)
(1.04203 0.0067138 0)
(1.04218 0.00666691 0)
(1.04231 0.00662476 0)
(1.04244 0.00658797 0)
(1.04256 0.00655699 0)
(1.04266 0.00653437 0)
(1.04275 0.0065205 0)
(1.04282 0.00652155 0)
(1.04287 0.0065396 0)
(1.04291 0.00658602 0)
(1.04295 0.0066711 0)
(1.043 0.00680595 0)
(1.04309 0.00700979 0)
(1.00058 0.00835214 0)
(1.00916 0.016648 0)
(1.01835 0.0160133 0)
(1.02324 0.0140844 0)
(1.02518 0.0135551 0)
(1.02663 0.0132108 0)
(1.02817 0.0125338 0)
(1.0295 0.011849 0)
(1.03052 0.0113248 0)
(1.03134 0.0109007 0)
(1.03205 0.0105183 0)
(1.0327 0.0101698 0)
(1.03327 0.00985824 0)
(1.03379 0.00957977 0)
(1.03427 0.00932841 0)
(1.0347 0.00909963 0)
(1.0351 0.00889039 0)
(1.03548 0.0086984 0)
(1.03582 0.0085217 0)
(1.03615 0.00835864 0)
(1.03646 0.0082077 0)
(1.03675 0.00806752 0)
(1.03703 0.00793678 0)
(1.03729 0.00781431 0)
(1.03754 0.0076991 0)
(1.03778 0.00759034 0)
(1.03801 0.00748743 0)
(1.03823 0.00738998 0)
(1.03844 0.00729775 0)
(1.03865 0.00721059 0)
(1.03885 0.00712837 0)
(1.03905 0.00705106 0)
(1.03924 0.00697849 0)
(1.03942 0.00691066 0)
(1.0396 0.00684732 0)
(1.03977 0.00678854 0)
(1.03993 0.00673411 0)
(1.04009 0.00668421 0)
(1.04023 0.00663888 0)
(1.04037 0.00659846 0)
(1.04049 0.00656371 0)
(1.0406 0.0065351 0)
(1.0407 0.00651502 0)
(1.04078 0.00650431 0)
(1.04085 0.00650819 0)
(1.04091 0.00652985 0)
(1.04095 0.00657806 0)
(1.04099 0.00666327 0)
(1.04105 0.00679168 0)
(1.04115 0.0069771 0)
(1.0005 0.0075461 0)
(1.00813 0.0156245 0)
(1.0167 0.0155028 0)
(1.02158 0.0137477 0)
(1.02359 0.0132292 0)
(1.02502 0.0129607 0)
(1.02652 0.012364 0)
(1.02784 0.0117127 0)
(1.02886 0.0112022 0)
(1.02968 0.0107926 0)
(1.03039 0.0104242 0)
(1.03103 0.010086 0)
(1.0316 0.0097818 0)
(1.03211 0.00950935 0)
(1.03258 0.00926315 0)
(1.033 0.00903876 0)