/*--------------------------------*- C++ -*----------------------------------*\
  =========                 |
  \\      /  F ield         | OpenFOAM: The Open Source CFD Toolbox
   \\    /   O peration     | Website:  https://openfoam.org
    \\  /    A nd           | Version:  7
     \\/     M anipulation  |
\*---------------------------------------------------------------------------*/
FoamFile
{
    version     2.0;
    format      ascii;
    class       volScalarField;
    location    "0.12";
    object      yPlus;
}
// * * * * * * * * * * * * * * * * * * * * * * * * * * * * * * * * * * * * * //

dimensions      [0 0 0 0 0 0 0];

internalField   uniform 0;

boundaryField
{
    velocityInlet
    {
        type            calculated;
        value           uniform 0;
    }
    pressureOutlet
    {
        type            calculated;
        value           uniform 0;
    }
    fixedWalls
    {
        type            calculated;
        value           nonuniform List<scalar> 
100
(
1.98198
1.59493
0.381369
1.19072
1.33656
1.45288
1.28391
1.03379
0.676474
0.210284
0.44659
0.530535
0.504323
0.359107
0.33472
0.65709
0.857712
0.957967
0.968487
0.911138
0.805264
0.659844
0.467007
0.12678
0.410181
0.567333
0.667754
0.735574
0.781031
0.810134
0.827177
0.835473
0.837449
0.834813
0.82885
0.82056
0.810521
0.798885
0.785634
0.772033
0.761967
0.759636
0.774065
0.829058
0.939975
1.07825
1.19111
1.22651
1.12919
0.84264
0.199403
0.732206
0.831014
0.722989
0.469533
0.261263
0.525434
0.634469
0.684249
0.704403
0.710903
0.714045
0.720544
0.733987
0.755457
0.784727
0.821251
0.86372
0.908674
0.950227
0.982083
0.999646
0.999304
0.974988
0.916173
0.80976
0.639607
0.341404
0.45345
0.720747
0.878451
0.942591
0.903683
0.758978
0.49942
0.274226
0.582448
0.726809
0.806538
0.849625
0.868738
0.869727
0.853495
0.8243
0.77844
0.728245
0.648719
0.57077
0.411825
0.0571704
)
;
    }
    bottomWall
    {
        type            calculated;
        value           nonuniform List<scalar> 
800
(
2.94479
1.98393
1.6135
1.44043
1.35534
1.29676
1.24786
1.2068
1.1723
1.14277
1.11701
1.09422
1.07385
1.0555
1.03884
1.02362
1.00965
0.996773
0.984843
0.973755
0.963415
0.953744
0.944675
0.93615
0.928117
0.920533
0.91336
0.906561
0.900108
0.893974
0.888135
0.882569
0.877256
0.872179
0.867322
0.862671
0.858212
0.853934
0.849825
0.845876
0.842076
0.838419
0.834895
0.831498
0.82822
0.825057
0.822
0.819046
0.816188
0.813426
0.811109
0.80919
0.807292
0.805418
0.80357
0.801745
0.799943
0.798162
0.796404
0.794666
0.792951
0.791254
0.789578
0.787922
0.786285
0.784666
0.783066
0.781484
0.77992
0.778373
0.776843
0.775331
0.773834
0.772354
0.77089
0.769441
0.768007
0.766588
0.765185
0.763795
0.762421
0.76106
0.759713
0.75838
0.75706
0.755752
0.754459
0.753178
0.751909
0.750653
0.749409
0.748177
0.746956
0.745747
0.744549
0.743363
0.742188
0.741023
0.73987
0.738727
0.737594
0.736472
0.735359
0.734257
0.733165
0.732082
0.731008
0.729945
0.72889
0.727844
0.726807
0.72578
0.724762
0.723752
0.722749
0.721756
0.720771
0.719794
0.718825
0.717864
0.716911
0.715965
0.715028
0.714098
0.713175
0.71226
0.711352
0.710451
0.709557
0.70867
0.70779
0.706917
0.706051
0.705191
0.704337
0.703491
0.702651
0.701817
0.700989
0.700168
0.699352
0.698543
0.69774
0.696941
0.69615
0.695364
0.694583
0.693808
0.693039
0.692276
0.691634
0.691109
0.690583
0.690056
0.689528
0.688998
0.688468
0.687937
0.687405
0.686872
0.686338
0.685803
0.685266
0.684728
0.684191
0.683651
0.683111
0.68257
0.682027
0.681485
0.680941
0.680396
0.67985
0.679304
0.678756
0.678208
0.677658
0.677107
0.676557
0.676005
0.675453
0.674898
0.674344
0.673789
0.673233
0.672676
0.672119
0.671561
0.671001
0.670441
0.66988
0.669319
0.668757
0.668194
0.66763
0.667065
0.6665
0.665934
0.665368
0.6648
0.664232
0.663662
0.663092
0.662523
0.66195
0.661379
0.660805
0.660233
0.659658
0.659082
0.658507
0.65793
0.657352
0.656774
0.656195
0.655615
0.655034
0.654453
0.653871
0.653288
0.652704
0.652119
0.651533
0.650947
0.65036
0.649771
0.649181
0.648591
0.647999
0.647406
0.646813
0.646217
0.645622
0.645021
0.644426
0.643819
0.643227
0.642607
0.642023
0.641381
0.64082
0.640132
0.639622
0.638848
0.638443
0.637514
0.637293
0.636123
0.636168
0.634679
2.94479
1.98386
1.61334
1.44017
1.355
1.29632
1.24734
1.20618
1.1716
1.14198
1.11612
1.09324
1.07277
1.0543
1.03753
1.02219
1.0081
0.995073
0.982988
0.971731
0.961207
0.951338
0.942056
0.933301
0.925025
0.917183
0.909736
0.902651
0.895896
0.889446
0.883276
0.877364
0.871691
0.866237
0.860988
0.855925
0.851035
0.846307
0.841703
0.837268
0.83285
0.828704
0.824264
0.82053
0.815542
0.812757
0.805723
0.805733
0.79342
0.773356
0.480894
0.59536
0.578871
0.212089
0.82439
1.28223
1.60367
1.74238
1.68382
1.43245
0.95037
0.94885
1.6039
2.0971
2.50302
2.8481
3.14474
3.39974
3.61779
3.8025
3.95682
4.08317
4.18371
4.26018
4.3141
4.34669
4.3589
4.35184
4.32686
4.28465
4.22519
4.14814
4.05286
3.93847
3.80398
3.64814
3.46956
3.267
3.03911
2.78447
2.50148
2.18857
1.84187
1.45798
1.06108
0.982473
1.3101
1.59412
1.76249
1.8245
1.81387
1.84094
1.84233
1.82692
1.8062
1.78825
1.78187
1.78983
1.81466
1.86342
1.92727
2.00536
2.09162
2.17112
2.23933
2.29479
2.32505
2.3247
2.28919
2.21808
2.11265
1.97603
1.81255
1.6277
1.43026
1.22619
1.01307
0.789876
0.566521
0.428929
0.540376
0.676385
0.76701
0.806473
0.797846
0.742991
0.640439
0.491259
0.315027
0.469665
0.665367
0.825282
0.960002
1.07432
1.17114
1.25315
1.32282
1.38212
1.43236
1.47428
1.50846
1.53547
1.55604
1.57098
1.58112
1.58721
1.58997
1.58999
1.58781
1.58406
1.57926
1.57384
1.5682
1.56272
1.55779
1.55376
1.551
1.54982
1.55061
1.5537
1.55935
1.56773
1.57898
1.59319
1.61034
1.6304
1.65327
1.67881
1.70683
1.7371
1.76936
1.80334
1.83874
1.87523
1.91249
1.9502
1.98801
2.02557
2.06257
2.09865
2.1335
2.16681
2.19827
2.22762
2.25459
2.27894
2.30046
2.31897
2.33429
2.34628
2.35481
2.35982
2.36119
2.3588
2.35274
2.3429
2.32922
2.31167
2.29021
2.26479
2.23535
2.20185
2.16422
2.12239
2.07626
2.02575
1.97073
1.91107
1.84664
1.77725
1.70274
1.62286
1.53847
1.44854
1.35277
1.25122
1.1447
1.03608
0.933432
0.855345
0.82944
0.865163
0.939142
1.02507
1.10937
1.18691
1.25613
1.31785
1.37095
1.4155
1.45167
1.47948
1.49873
1.50931
1.50991
1.49959
1.48571
1.50004
1.6439
2.03864
0.42562
0.472826
0.830829
1.30399
1.64844
1.89239
2.05466
2.15299
2.20019
2.20397
2.16735
2.08938
1.96246
1.77145
1.4939
1.13636
1.22148
1.76971
2.30386
2.77367
3.15302
3.41048
3.53026
3.53361
3.42683
3.14678
2.72098
2.21474
1.6773
1.26375
1.39031
1.7427
2.02973
2.21914
2.33713
2.43039
2.53479
2.65745
2.76991
2.83244
3.13604
3.90676
4.12336
3.86315
3.24131
2.40666
1.53355
0.78162
0.848757
1.13139
1.39405
1.67486
1.95641
2.22682
2.4778
2.70475
2.9061
3.08141
3.23027
3.35298
3.45096
3.52749
3.58722
3.63494
3.67423
3.70691
3.73322
3.75229
3.7628
3.76367
3.75404
3.73382
3.70287
3.6607
3.6066
3.53976
3.45934
3.36473
3.25566
3.13245
2.9959
2.84725
2.68769
2.51775
2.33661
2.14091
1.92316
1.66915
1.35364
0.933129
0.763364
1.21303
1.52252
1.63898
1.5635
1.38815
1.20669
1.11565
0.974881
0.441514
0.498853
0.977042
1.33538
1.60567
1.86309
2.10702
2.34039
2.56567
2.78091
2.98427
3.17238
3.33891
3.46888
3.54108
3.53132
3.40527
3.13407
2.64133
1.92792
1.98268
2.81673
2.82575
3.05265
3.36137
3.22616
2.57364
1.65946
2.03509
2.61733
2.92682
2.99808
2.86598
2.53569
2.03334
1.41703
0.901575
1.02383
1.00303
1.01836
1.25623
1.44441
1.53788
1.57037
1.56739
1.54493
1.5244
1.53252
1.58553
1.68508
1.83676
2.04201
2.29334
2.57947
2.88986
3.21458
3.54168
3.85501
4.13672
4.36647
4.52281
4.58564
4.59115
4.49125
4.25391
3.82412
3.13377
2.17114
1.56682
2.58732
3.35656
3.80313
3.92443
3.92216
4.24113
4.76539
5.01375
5.55806
6.57473
7.27564
7.7024
8.04545
8.35609
8.57693
8.74497
8.88366
8.97696
9.04474
9.08897
9.10951
9.11471
9.10345
9.0815
9.04924
9.00723
8.95762
8.90034
8.83651
8.76657
8.69083
8.60979
8.52363
8.43266
8.33712
8.23727
8.1334
8.02579
7.91477
7.80069
7.6839
7.56478
7.44371
7.32107
7.19723
7.07254
6.94733
6.82188
6.69651
6.57142
6.44685
6.32296
6.19991
6.07782
5.95678
5.83685
5.71809
5.6005
5.48409
5.36882
5.25466
5.14155
5.0294
4.91813
4.80762
4.69775
4.58838
4.47933
4.37046
4.26155
4.15239
4.04277
3.93243
3.82111
3.70848
3.59425
3.47802
3.35941
3.23795
3.11313
2.98438
2.85108
2.71247
2.56766
2.4156
2.26292
2.10266
1.93296
1.75461
1.57568
1.42536
1.36626
1.44119
1.60383
1.79378
1.98418
2.16783
2.34641
2.52529
2.69786
2.86511
3.02796
3.18724
3.34374
3.49816
3.65113
3.80324
3.95502
4.107
4.25968
4.41353
4.569
4.72659
4.88676
5.04997
5.21669
5.38744
5.5627
5.74304
5.92893
6.12108
6.3198
6.5263
6.74008
6.96413
7.19468
7.4411
7.68767
7.96528
8.21683
8.54058
8.73841
)
;
    }
    frontAndBack
    {
        type            empty;
    }
}


// ************************************************************************* //
