/*--------------------------------*- C++ -*----------------------------------*\
  =========                 |
  \\      /  F ield         | OpenFOAM: The Open Source CFD Toolbox
   \\    /   O peration     | Website:  https://openfoam.org
    \\  /    A nd           | Version:  7
     \\/     M anipulation  |
\*---------------------------------------------------------------------------*/
FoamFile
{
    version     2.0;
    format      ascii;
    class       volVectorField;
    location    "0.2";
    object      ddt0(U);
}
// * * * * * * * * * * * * * * * * * * * * * * * * * * * * * * * * * * * * * //

dimensions      [0 1 -2 0 0 0 0];

internalField   nonuniform List<vector> 
70000
(
(-0.000781105 3.88708e-05 0)
(-0.00311638 3.6415e-05 0)
(-0.00366966 3.14693e-05 0)
(-0.00295598 3.52699e-05 0)
(-0.00225902 3.36993e-05 0)
(-0.00199734 3.46765e-05 0)
(-0.00228367 3.77649e-05 0)
(-0.00306032 4.12977e-05 0)
(-0.00413345 4.45659e-05 0)
(-0.00529462 4.68579e-05 0)
(-0.00640734 4.78474e-05 0)
(-0.00740776 4.7873e-05 0)
(-0.00829594 4.72837e-05 0)
(-0.00912806 4.69461e-05 0)
(-0.00995162 4.66593e-05 0)
(-0.0108385 4.68399e-05 0)
(-0.0117914 4.67122e-05 0)
(-0.012846 4.68878e-05 0)
(-0.0139621 4.64752e-05 0)
(-0.0150947 4.52191e-05 0)
(-0.0161971 4.38261e-05 0)
(-0.0171572 4.08533e-05 0)
(-0.0179006 3.6972e-05 0)
(-0.0183212 3.17946e-05 0)
(-0.018278 2.4143e-05 0)
(-0.0176773 1.50201e-05 0)
(-0.0163371 2.90236e-06 0)
(-0.0140788 -1.26046e-05 0)
(-0.0107107 -3.09117e-05 0)
(-0.00594004 -5.44132e-05 0)
(0.000500161 -8.26101e-05 0)
(0.00895692 -0.000116475 0)
(0.019868 -0.000158926 0)
(0.033662 -0.000208902 0)
(0.0509776 -0.000270009 0)
(0.0724308 -0.000342337 0)
(0.0989334 -0.000428564 0)
(0.131305 -0.000530362 0)
(0.170922 -0.000647988 0)
(0.218785 -0.000791308 0)
(0.276797 -0.000937321 0)
(0.346565 -0.00114469 0)
(0.429777 -0.00128772 0)
(0.530038 -0.00159213 0)
(0.647245 -0.00165135 0)
(0.78666 -0.00203826 0)
(0.95191 -0.00181406 0)
(1.12319 -0.00226506 0)
(1.37213 0.00245667 0)
(1.27919 -0.0906307 0)
(-0.000983223 0.000170863 0)
(-0.00462509 0.000110736 0)
(-0.00339794 -7.81276e-05 0)
(0.00222406 -0.000148087 0)
(0.0081227 -0.00011621 0)
(0.0125654 -4.82803e-05 0)
(0.0152051 2.09625e-05 0)
(0.0162729 7.15537e-05 0)
(0.0163946 9.62377e-05 0)
(0.0162332 9.87797e-05 0)
(0.0162273 8.8011e-05 0)
(0.016551 7.40653e-05 0)
(0.0171645 6.37927e-05 0)
(0.0178899 6.21469e-05 0)
(0.0185395 6.81617e-05 0)
(0.0189221 8.05472e-05 0)
(0.0189587 9.46956e-05 0)
(0.0185862 0.000108071 0)
(0.0178628 0.00011687 0)
(0.0168912 0.000116124 0)
(0.0158061 0.000107145 0)
(0.0148355 8.26982e-05 0)
(0.0141902 4.31776e-05 0)
(0.0141302 -1.49939e-05 0)
(0.0149686 -9.66219e-05 0)
(0.0169922 -0.000203249 0)
(0.0205987 -0.000340544 0)
(0.0262196 -0.000516101 0)
(0.0343313 -0.000731969 0)
(0.0455721 -0.00100265 0)
(0.0606039 -0.00133464 0)
(0.0802596 -0.00174142 0)
(0.105548 -0.0022423 0)
(0.137569 -0.00285219 0)
(0.177839 -0.00359528 0)
(0.227857 -0.00450154 0)
(0.289976 -0.0055981 0)
(0.366101 -0.0069346 0)
(0.459978 -0.00854159 0)
(0.574005 -0.0105079 0)
(0.713579 -0.0128268 0)
(0.882863 -0.015724 0)
(1.08734 -0.0189633 0)
(1.33683 -0.0232506 0)
(1.63358 -0.0274656 0)
(1.99275 -0.0339055 0)
(2.43188 -0.0376296 0)
(2.89589 -0.0504264 0)
(3.62157 -0.0237927 0)
(3.8356 -0.181273 0)
(-0.000769522 0.000347706 0)
(-0.00524557 0.000189732 0)
(-0.00421282 -0.000363633 0)
(0.00431034 -0.000665454 0)
(0.0151611 -0.000617183 0)
(0.0245543 -0.000417755 0)
(0.0311711 -0.000202708 0)
(0.0350388 -4.12166e-05 0)
(0.0369951 3.92314e-05 0)
(0.0381016 4.88278e-05 0)
(0.0391601 1.6524e-05 0)
(0.0405569 -2.48368e-05 0)
(0.042309 -5.29678e-05 0)
(0.0441871 -5.4456e-05 0)
(0.0459001 -3.00699e-05 0)
(0.0471417 1.48259e-05 0)
(0.0477349 7.00613e-05 0)
(0.0475489 0.000125139 0)
(0.0466073 0.00017175 0)
(0.0450133 0.000196198 0)
(0.0429316 0.000198506 0)
(0.0406453 0.000163452 0)
(0.0384418 8.9391e-05 0)
(0.0366699 -3.25996e-05 0)
(0.0357461 -0.000211413 0)
(0.0360739 -0.00045518 0)
(0.0381795 -0.00077414 0)
(0.0426437 -0.00118794 0)
(0.0501109 -0.0017047 0)
(0.0614178 -0.00235621 0)
(0.0774584 -0.00316268 0)
(0.0993397 -0.00415913 0)
(0.128413 -0.00538841 0)
(0.166152 -0.006899 0)
(0.214624 -0.0087454 0)
(0.275813 -0.0110159 0)
(0.353022 -0.0137783 0)
(0.448746 -0.0171729 0)
(0.568344 -0.0212904 0)
(0.715039 -0.026358 0)
(0.896618 -0.0324484 0)
(1.11903 -0.0400256 0)
(1.39041 -0.0488624 0)
(1.72513 -0.0602945 0)
(2.12792 -0.0724372 0)
(2.62019 -0.0904029 0)
(3.23426 -0.102864 0)
(3.89093 -0.138953 0)
(4.91578 -0.107066 0)
(5.57513 -0.271191 0)
(-0.000409227 0.000527786 0)
(-0.0053472 0.000339103 0)
(-0.00659803 -0.000638836 0)
(0.000807205 -0.00134351 0)
(0.0135487 -0.00140798 0)
(0.0267691 -0.00109223 0)
(0.0375311 -0.000674022 0)
(0.0448454 -0.000321571 0)
(0.0491643 -0.000115491 0)
(0.05162 -5.45989e-05 0)
(0.0533036 -8.9318e-05 0)
(0.0549081 -0.000154983 0)
(0.0566721 -0.000203128 0)
(0.0584786 -0.000203957 0)
(0.0600574 -0.000153216 0)
(0.0610597 -5.9161e-05 0)
(0.0612335 6.28394e-05 0)
(0.0603654 0.000191646 0)
(0.0583989 0.000313428 0)
(0.0553761 0.000402315 0)
(0.0514224 0.000455128 0)
(0.0468048 0.000446434 0)
(0.0418181 0.000370679 0)
(0.0368346 0.000211857 0)
(0.0323113 -4.35441e-05 0)
(0.0287047 -0.000412912 0)
(0.0266032 -0.000911089 0)
(0.0266616 -0.00157269 0)
(0.0296115 -0.00241371 0)
(0.0363833 -0.00348612 0)
(0.0479942 -0.00482725 0)
(0.0656721 -0.00649921 0)
(0.0909536 -0.00857202 0)
(0.125466 -0.0111394 0)
(0.171588 -0.0142896 0)
(0.231487 -0.0181896 0)
(0.309013 -0.0229542 0)
(0.406893 -0.0288456 0)
(0.531381 -0.0360305 0)
(0.68614 -0.0449141 0)
(0.880189 -0.0556964 0)
(1.12065 -0.0691146 0)
(1.41698 -0.0850527 0)
(1.78626 -0.105585 0)
(2.23537 -0.127942 0)
(2.7882 -0.161104 0)
(3.4871 -0.185578 0)
(4.25056 -0.249959 0)
(5.39683 -0.23025 0)
(6.39779 -0.38086 0)
(-0.000137385 0.000691902 0)
(-0.00491254 0.000584903 0)
(-0.00875327 -0.000744991 0)
(-0.00519033 -0.00195271 0)
(0.00567615 -0.00231888 0)
(0.0199615 -0.0020215 0)
(0.033818 -0.00143263 0)
(0.044867 -0.000844556 0)
(0.05246 -0.000432641 0)
(0.0571669 -0.000239873 0)
(0.0599919 -0.000215571 0)
(0.0618229 -0.000267473 0)
(0.0631935 -0.000316533 0)
(0.0642628 -0.000308933 0)
(0.0649606 -0.000227686 0)
(0.0650477 -7.83834e-05 0)
(0.0643014 0.000122594 0)
(0.0624777 0.0003449 0)
(0.0594452 0.000570197 0)
(0.055152 0.000759252 0)
(0.0496281 0.000904214 0)
(0.0430543 0.000967641 0)
(0.03566 0.000937964 0)
(0.0277709 0.000790179 0)
(0.0198203 0.000504994 0)
(0.0122592 5.37366e-05 0)
(0.00568512 -0.000583537 0)
(0.000771869 -0.00145816 0)
(-0.0017131 -0.00259505 0)
(-0.000810107 -0.00406798 0)
(0.0045597 -0.00593275 0)
(0.015656 -0.00828195 0)
(0.0341118 -0.0112139 0)
(0.0615829 -0.0148745 0)
(0.100608 -0.0193864 0)
(0.153381 -0.0250068 0)
(0.224007 -0.0319014 0)
(0.31528 -0.0404698 0)
(0.433803 -0.050968 0)
(0.583507 -0.0639961 0)
(0.773775 -0.0799166 0)
(1.01249 -0.09976 0)
(1.3095 -0.123572 0)
(1.68321 -0.154269 0)
(2.14181 -0.188132 0)
(2.71082 -0.238345 0)
(3.43241 -0.277747 0)
(4.2494 -0.370337 0)
(5.40368 -0.377156 0)
(6.61665 -0.517634 0)
(-5.29858e-05 0.000836603 0)
(-0.00427515 0.000893868 0)
(-0.00970408 -0.000631999 0)
(-0.0102944 -0.00231263 0)
(-0.00354892 -0.00311927 0)
(0.00883429 -0.00303593 0)
(0.0235089 -0.00242122 0)
(0.0373537 -0.00165047 0)
(0.0485078 -0.001004 0)
(0.0564775 -0.000603182 0)
(0.0616398 -0.000431655 0)
(0.0646975 -0.000393645 0)
(0.0663089 -0.000390187 0)
(0.0669127 -0.000344229 0)
(0.0667496 -0.000221002 0)
(0.065848 -1.64423e-05 0)
(0.064172 0.000259417 0)
(0.0615756 0.000573022 0)
(0.0579375 0.000906395 0)
(0.0531474 0.00120962 0)
(0.0471326 0.00147093 0)
(0.0399477 0.00164069 0)
(0.0316964 0.00169961 0)
(0.0225893 0.00161181 0)
(0.0129674 0.00135028 0)
(0.00321253 0.000872892 0)
(-0.00612487 0.000153146 0)
(-0.0144034 -0.000878563 0)
(-0.0208631 -0.00225742 0)
(-0.0245609 -0.00408015 0)
(-0.0243969 -0.00642192 0)
(-0.0191274 -0.00940816 0)
(-0.00707752 -0.013165 0)
(0.0133825 -0.0178945 0)
(0.0448535 -0.0237544 0)
(0.0894999 -0.0310963 0)
(0.15148 -0.0401416 0)
(0.233621 -0.0514306 0)
(0.342495 -0.065322 0)
(0.482272 -0.0826132 0)
(0.662107 -0.103851 0)
(0.890471 -0.130379 0)
(1.17686 -0.162409 0)
(1.54059 -0.203779 0)
(1.98925 -0.249884 0)
(2.55251 -0.317694 0)
(3.26047 -0.374853 0)
(4.0999 -0.493456 0)
(5.20972 -0.535575 0)
(6.52935 -0.681937 0)
(-0.000107537 0.000964403 0)
(-0.00379907 0.00122324 0)
(-0.0097087 -0.000353378 0)
(-0.0131336 -0.00239192 0)
(-0.010576 -0.00366713 0)
(-0.00170304 -0.00394713 0)
(0.0115176 -0.00348984 0)
(0.0262416 -0.00267642 0)
(0.0399948 -0.00185564 0)
(0.0512936 -0.00123031 0)
(0.059609 -0.000844711 0)
(0.0650627 -0.000630953 0)
(0.0680935 -0.000494993 0)
(0.0692049 -0.000351107 0)
(0.0688747 -0.00015186 0)
(0.0674377 0.000117983 0)
(0.065157 0.000460398 0)
(0.0621286 0.000846312 0)
(0.0583818 0.00126615 0)
(0.0538595 0.00166646 0)
(0.0484552 0.00203639 0)
(0.0421213 0.00231728 0)
(0.0348208 0.00248271 0)
(0.0266071 0.00248527 0)
(0.0176706 0.00228842 0)
(0.00825879 0.00183437 0)
(-0.00118739 0.00108781 0)
(-0.0101183 -4.11347e-05 0)
(-0.0178333 -0.0015998 0)
(-0.023452 -0.0037094 0)
(-0.0258982 -0.00646553 0)
(-0.0239787 -0.0100279 0)
(-0.0160262 -0.0145508 0)
(-0.000461556 -0.0202939 0)
(0.0252994 -0.0274516 0)
(0.063385 -0.0364691 0)
(0.117857 -0.0476294 0)
(0.191592 -0.0616091 0)
(0.290858 -0.0788824 0)
(0.420102 -0.100437 0)
(0.587816 -0.127021 0)
(0.803086 -0.160294 0)
(1.0743 -0.200652 0)
(1.42201 -0.252818 0)
(1.85093 -0.311623 0)
(2.39765 -0.396745 0)
(3.07349 -0.473942 0)
(3.91173 -0.616334 0)
(4.96171 -0.697791 0)
(6.30623 -0.864712 0)
(-0.000194679 0.00108608 0)
(-0.00361141 0.00155099 0)
(-0.00935599 9.00548e-06 0)
(-0.0140883 -0.00226605 0)
(-0.0144211 -0.00395593 0)
(-0.0089591 -0.00465515 0)
(0.00167208 -0.00449224 0)
(0.0155071 -0.00379271 0)
(0.030207 -0.00291836 0)
(0.0438183 -0.00212497 0)
(0.055077 -0.0015177 0)
(0.0634112 -0.00107504 0)
(0.0687803 -0.000732285 0)
(0.0714699 -0.000417094 0)
(0.0719692 -8.49169e-05 0)
(0.0707926 0.000282219 0)
(0.0684779 0.000696331 0)
(0.0654226 0.00113636 0)
(0.0619232 0.00160803 0)
(0.0581121 0.00206355 0)
(0.0539751 0.00250113 0)
(0.0494579 0.00286069 0)
(0.0444374 0.00311314 0)
(0.0388244 0.003202 0)
(0.0326394 0.00308136 0)
(0.025954 0.00267669 0)
(0.0190442 0.0019416 0)
(0.0123084 0.000764022 0)
(0.00632717 -0.000918202 0)
(0.00186458 -0.00325234 0)
(-8.41526e-05 -0.00635625 0)
(0.00158322 -0.010425 0)
(0.00846723 -0.0156425 0)
(0.0220711 -0.0223254 0)
(0.0448843 -0.0307083 0)
(0.0789947 -0.0413244 0)
(0.128243 -0.0545269 0)
(0.19557 -0.0711167 0)
(0.286736 -0.0916987 0)
(0.406489 -0.117433 0)
(0.562324 -0.149291 0)
(0.763986 -0.189218 0)
(1.01817 -0.237859 0)
(1.34681 -0.300653 0)
(1.75076 -0.372377 0)
(2.27299 -0.474118 0)
(2.9084 -0.572693 0)
(3.72208 -0.737218 0)
(4.71135 -0.860099 0)
(6.02034 -1.05455 0)
(-0.000253829 0.00121288 0)
(-0.0036152 0.00187525 0)
(-0.0091103 0.000393784 0)
(-0.0140999 -0.00203554 0)
(-0.0158365 -0.00406303 0)
(-0.0126953 -0.00516518 0)
(-0.00451558 -0.00535663 0)
(0.00760174 -0.00488362 0)
(0.0218652 -0.0040789 0)
(0.0363854 -0.00321344 0)
(0.0495807 -0.002433 0)
(0.060382 -0.00176112 0)
(0.0682562 -0.00117377 0)
(0.0731166 -0.000629205 0)
(0.0752495 -0.000103467 0)
(0.0751442 0.000409218 0)
(0.0734652 0.000920465 0)
(0.0708455 0.00141279 0)
(0.0678653 0.00190806 0)
(0.064928 0.00237033 0)
(0.0622303 0.00281506 0)
(0.0598375 0.00319053 0)
(0.0576494 0.0034731 0)
(0.0555126 0.0036037 0)
(0.0533189 0.00353068 0)
(0.0509706 0.00316453 0)
(0.0485576 0.00244718 0)
(0.0462892 0.00124346 0)
(0.0445728 -0.000526001 0)
(0.0440053 -0.00303606 0)
(0.045438 -0.00642895 0)
(0.0498339 -0.0109361 0)
(0.0586583 -0.0167726 0)
(0.0733001 -0.0243111 0)
(0.0960712 -0.03383 0)
(0.128995 -0.045944 0)
(0.175581 -0.0610836 0)
(0.238817 -0.0801595 0)
(0.323804 -0.103921 0)
(0.435544 -0.133676 0)
(0.580352 -0.170639 0)
(0.768438 -0.217001 0)
(1.00474 -0.273722 0)
(1.31178 -0.346761 0)
(1.68754 -0.431297 0)
(2.17735 -0.548801 0)
(2.76778 -0.668974 0)
(3.53554 -0.85488 0)
(4.46044 -1.01783 0)
(5.69491 -1.24721 0)
(-0.00027844 0.0013479 0)
(-0.00368469 0.00220264 0)
(-0.00903967 0.000781802 0)
(-0.0139114 -0.00177138 0)
(-0.0160418 -0.00408105 0)
(-0.0140252 -0.00554374 0)
(-0.00747844 -0.006091 0)
(0.00303308 -0.00589593 0)
(0.016254 -0.00524547 0)
(0.0306247 -0.00439867 0)
(0.0446117 -0.00351761 0)
(0.0569604 -0.00265694 0)
(0.0668247 -0.00183037 0)
(0.0737812 -0.00103253 0)
(0.0778323 -0.000271281 0)
(0.0792912 0.000433153 0)
(0.0787803 0.00107818 0)
(0.0770251 0.00163924 0)
(0.0748047 0.00214776 0)
(0.0727791 0.00257961 0)
(0.071404 0.00297126 0)
(0.0709576 0.00328763 0)
(0.0714753 0.00351946 0)
(0.0728493 0.00361412 0)
(0.0749323 0.00352125 0)
(0.0775185 0.00314176 0)
(0.080541 0.00240811 0)
(0.0840233 0.00116364 0)
(0.0881793 -0.000689338 0)
(0.0934076 -0.00335349 0)
(0.100368 -0.00699727 0)
(0.109839 -0.0118885 0)
(0.123088 -0.0182759 0)
(0.141342 -0.0265848 0)
(0.166656 -0.0371426 0)
(0.200939 -0.0506357 0)
(0.247285 -0.0675811 0)
(0.308654 -0.0889804 0)
(0.389417 -0.115739 0)
(0.494646 -0.149285 0)
(0.629525 -0.191089 0)
(0.80419 -0.243548 0)
(1.02231 -0.307967 0)
(1.30541 -0.390694 0)
(1.65072 -0.487562 0)
(2.10085 -0.619831 0)
(2.64192 -0.76093 0)
(3.34709 -0.967346 0)
(4.19788 -1.16802 0)
(5.33153 -1.43643 0)
(-0.00028425 0.00149056 0)
(-0.00375079 0.00253991 0)
(-0.00907059 0.00117193 0)
(-0.013789 -0.00150288 0)
(-0.0158815 -0.0040725 0)
(-0.0142056 -0.00586327 0)
(-0.00843473 -0.00674532 0)
(0.00103319 -0.00683586 0)
(0.0132695 -0.00637836 0)
(0.0270496 -0.00560953 0)
(0.0410426 -0.00469176 0)
(0.0540418 -0.00369565 0)
(0.0651054 -0.00266262 0)
(0.0736199 -0.00161985 0)
(0.0793575 -0.000609185 0)
(0.0824204 0.00031581 0)
(0.0832884 0.00112724 0)
(0.0826487 0.00178178 0)
(0.0813546 0.00230958 0)
(0.0802353 0.00269235 0)
(0.0799717 0.00298556 0)
(0.0810756 0.00317433 0)
(0.0837835 0.00327021 0)
(0.0881245 0.00323557 0)
(0.0940114 0.00302977 0)
(0.10122 0.00255202 0)
(0.109598 0.00173051 0)
(0.119031 0.000391571 0)
(0.129561 -0.00157952 0)
(0.141393 -0.00441156 0)
(0.15498 -0.00829967 0)
(0.170897 -0.0135467 0)
(0.190168 -0.0204363 0)
(0.213821 -0.0294427 0)
(0.243595 -0.0409457 0)
(0.281223 -0.055694 0)
(0.329327 -0.074296 0)
(0.390725 -0.0978287 0)
(0.469063 -0.127355 0)
(0.56921 -0.164407 0)
(0.69541 -0.210694 0)
(0.857052 -0.268809 0)
(1.0572 -0.340371 0)
(1.31479 -0.432061 0)
(1.62808 -0.540443 0)
(2.03335 -0.686266 0)
(2.52063 -0.846935 0)
(3.15199 -1.07256 0)
(3.91693 -1.30811 0)
(4.93067 -1.61611 0)
(-0.000285148 0.0016399 0)
(-0.00379863 0.00288998 0)
(-0.00912809 0.0015688 0)
(-0.0137506 -0.00123635 0)
(-0.0157101 -0.00406568 0)
(-0.0140276 -0.00617167 0)
(-0.00849572 -0.00737177 0)
(0.000480522 -0.00773879 0)
(0.0120933 -0.00748177 0)
(0.0253054 -0.00681723 0)
(0.0389879 -0.00590194 0)
(0.0520647 -0.00481385 0)
(0.0636413 -0.00361231 0)
(0.0730592 -0.00234971 0)
(0.0799726 -0.00109782 0)
(0.0843272 5.58214e-05 0)
(0.08645 0.00105261 0)
(0.086925 0.00182196 0)
(0.0865813 0.00238221 0)
(0.0863146 0.00271242 0)
(0.0869488 0.00288065 0)
(0.0891855 0.00289092 0)
(0.0934622 0.00277758 0)
(0.0999851 0.0025237 0)
(0.108794 0.00210534 0)
(0.11973 0.00142838 0)
(0.132633 0.000423259 0)
(0.147327 -0.00109401 0)
(0.163736 -0.00325169 0)
(0.181916 -0.00630078 0)
(0.20213 -0.0104617 0)
(0.224763 -0.0160692 0)
(0.25059 -0.0234419 0)
(0.280425 -0.0330968 0)
(0.315667 -0.0454683 0)
(0.357819 -0.0613574 0)
(0.409022 -0.0814647 0)
(0.47182 -0.106931 0)
(0.549201 -0.138966 0)
(0.645543 -0.179199 0)
(0.764386 -0.22954 0)
(0.913801 -0.292785 0)
(1.09672 -0.370799 0)
(1.32855 -0.47057 0)
(1.60929 -0.589388 0)
(1.96741 -0.7473 0)
(2.39784 -0.925701 0)
(2.94948 -1.16876 0)
(3.61952 -1.43571 0)
(4.50072 -1.78128 0)
(-0.000286708 0.00179551 0)
(-0.00383511 0.00325334 0)
(-0.00918028 0.00197561 0)
(-0.0137483 -0.000969777 0)
(-0.0155938 -0.00406796 0)
(-0.0138159 -0.00649072 0)
(-0.00828824 -0.00800298 0)
(0.000534128 -0.00863862 0)
(0.0118512 -0.00857871 0)
(0.0247015 -0.00802408 0)
(0.0380668 -0.00712764 0)
(0.0509929 -0.00597216 0)
(0.0626691 -0.00463013 0)
(0.0724758 -0.00317293 0)
(0.0800415 -0.00169705 0)
(0.0852383 -0.000320668 0)
(0.0882876 0.000866346 0)
(0.0896714 0.00176242 0)
(0.0901515 0.00236665 0)
(0.0906164 0.00264795 0)
(0.0919497 0.00267931 0)
(0.0949691 0.00247926 0)
(0.100266 0.00210319 0)
(0.108211 0.00155668 0)
(0.118988 0.000836677 0)
(0.132549 -0.000137883 0)
(0.14879 -0.00142815 0)
(0.16754 -0.00322127 0)
(0.188673 -0.0056543 0)
(0.212153 -0.00899506 0)
(0.238108 -0.0134864 0)
(0.266767 -0.0194901 0)
(0.29869 -0.027358 0)
(0.334488 -0.0376432 0)
(0.375244 -0.0508329 0)
(0.422199 -0.0677719 0)
(0.477046 -0.0892474 0)
(0.541959 -0.116455 0)
(0.619355 -0.150734 0)
(0.712924 -0.193811 0)
(0.82567 -0.247743 0)
(0.964052 -0.315542 0)
(1.13105 -0.399238 0)
(1.33827 -0.506091 0)
(1.58735 -0.634092 0)
(1.89906 -0.80244 0)
(2.27233 -0.996379 0)
(2.74362 -1.25471 0)
(3.31521 -1.54893 0)
(4.05896 -1.92846 0)
(-0.000289396 0.00195745 0)
(-0.00386764 0.00362994 0)
(-0.00922355 0.00239346 0)
(-0.0137508 -0.000700836 0)
(-0.0155086 -0.00407901 0)
(-0.0136376 -0.00682645 0)
(-0.00805226 -0.00865361 0)
(0.000757932 -0.00955633 0)
(0.0119729 -0.00969007 0)
(0.0246437 -0.0092436 0)
(0.037799 -0.00836901 0)
(0.0505496 -0.00715517 0)
(0.0621557 -0.00568671 0)
(0.0720499 -0.00405142 0)
(0.0798864 -0.00236665 0)
(0.0855237 -0.000777662 0)
(0.0891345 0.00059616 0)
(0.0911345 0.00162201 0)
(0.0922206 0.00227607 0)
(0.0932437 0.00251243 0)
(0.0950911 0.00240266 0)
(0.0986296 0.00197488 0)
(0.104542 0.00130179 0)
(0.113316 0.000410493 0)
(0.125259 -0.000680211 0)
(0.140437 -0.00203445 0)
(0.158831 -0.00370087 0)
(0.180318 -0.0058636 0)
(0.204773 -0.00866396 0)
(0.23213 -0.0123809 0)
(0.262434 -0.017276 0)
(0.295817 -0.0237327 0)
(0.332672 -0.0321327 0)
(0.37345 -0.0430581 0)
(0.418964 -0.0570449 0)
(0.470207 -0.0749725 0)
(0.528488 -0.0977059 0)
(0.595573 -0.126491 0)
(0.673399 -0.162768 0)
(0.764894 -0.208363 0)
(0.872628 -0.265431 0)
(1.00142 -0.337197 0)
(1.15426 -0.425791 0)
(1.33922 -0.538686 0)
(1.55904 -0.67454 0)
(1.82777 -0.851593 0)
(2.14686 -1.05866 0)
(2.54207 -1.32989 0)
(3.01804 -1.64682 0)
(3.62798 -2.05543 0)
(-0.000292444 0.00212594 0)
(-0.00389908 0.00401993 0)
(-0.00926168 0.00282251 0)
(-0.0137493 -0.00042863 0)
(-0.0154305 -0.0040977 0)
(-0.0134804 -0.00717937 0)
(-0.00783548 -0.00932799 0)
(0.000999695 -0.010501 0)
(0.0121904 -0.0108283 0)
(0.0247836 -0.0104879 0)
(0.0378215 -0.00963332 0)
(0.0504425 -0.00836147 0)
(0.0619448 -0.00677005 0)
(0.0718006 -0.00496312 0)
(0.0796947 -0.0030775 0)
(0.085501 -0.00128348 0)
(0.0893827 0.00027183 0)
(0.0917278 0.00142564 0)
(0.093192 0.00213011 0)
(0.0945889 0.00232265 0)
(0.0967861 0.00206943 0)
(0.100656 0.00140448 0)
(0.106921 0.000414068 0)
(0.116132 -0.000855437 0)
(0.128681 -0.00236435 0)
(0.144723 -0.0041585 0)
(0.164318 -0.0062721 0)
(0.187403 -0.008882 0)
(0.213887 -0.0121305 0)
(0.243711 -0.0163028 0)
(0.276885 -0.0216757 0)
(0.313491 -0.0286491 0)
(0.353816 -0.037631 0)
(0.398194 -0.0492255 0)
(0.447244 -0.0640115 0)
(0.501743 -0.0828958 0)
(0.562699 -0.106808 0)
(0.631492 -0.137039 0)
(0.709676 -0.175105 0)
(0.799446 -0.222932 0)
(0.903006 -0.282722 0)
(1.0237 -0.357902 0)
(1.1644 -0.450656 0)
(1.33023 -0.568584 0)
(1.52438 -0.710992 0)
(1.75553 -0.895065 0)
(2.02626 -1.11284 0)
(2.35361 -1.39448 0)
(2.74258 -1.72955 0)
(3.23004 -2.16143 0)
(-0.00029538 0.00230116 0)
(-0.00392967 0.0044237 0)
(-0.00929719 0.00326286 0)
(-0.0137444 -0.000153095 0)
(-0.0153511 -0.00412372 0)
(-0.0133282 -0.0075494 0)
(-0.00763043 -0.010027 0)
(0.00123203 -0.0114755 0)
(0.0124184 -0.0119986 0)
(0.024973 -0.011764 0)
(0.0379429 -0.010927 0)
(0.0504768 -0.00959437 0)
(0.0618884 -0.00787784 0)
(0.0716712 -0.00589866 0)
(0.079531 -0.00381347 0)
(0.0853609 -0.00181702 0)
(0.0893324 -8.35068e-05 0)
(0.0918297 0.00119549 0)
(0.0934911 0.00194806 0)
(0.0951068 0.00209487 0)
(0.0975221 0.00169488 0)
(0.101597 0.000786175 0)
(0.108059 -0.000534116 0)
(0.117486 -0.00220234 0)
(0.130309 -0.00415966 0)
(0.146741 -0.0064336 0)
(0.166895 -0.00904381 0)
(0.190764 -0.0121574 0)
(0.218292 -0.015916 0)
(0.249443 -0.0206075 0)
(0.284224 -0.0265213 0)
(0.3227 -0.03407 0)
(0.365097 -0.0436838 0)
(0.411682 -0.0559836 0)
(0.462939 -0.0715845 0)
(0.519482 -0.0914145 0)
(0.582104 -0.116455 0)
(0.651859 -0.148037 0)
(0.730007 -0.187729 0)
(0.818119 -0.237548 0)
(0.918084 -0.299714 0)
(1.03204 -0.377823 0)
(1.16263 -0.474089 0)
(1.31269 -0.596146 0)
(1.48538 -0.743918 0)
(1.68535 -0.933481 0)
(1.9153 -1.15968 0)
(2.18545 -1.44936 0)
(2.49993 -1.7982 0)
(2.88175 -2.24738 0)
(-0.000298108 0.00248332 0)
(-0.00395904 0.00484173 0)
(-0.00933059 0.0037147 0)
(-0.0137375 0.000125694 0)
(-0.0152699 -0.00415731 0)
(-0.0131752 -0.00793692 0)
(-0.00742771 -0.0107511 0)
(0.00145939 -0.0124809 0)
(0.0126432 -0.0132032 0)
(0.025169 -0.0130749 0)
(0.0380886 -0.0122539 0)
(0.050557 -0.010857 0)
(0.0618941 -0.00901113 0)
(0.0716022 -0.00685553 0)
(0.0793978 -0.00456762 0)
(0.0851889 -0.00236711 0)
(0.0891578 -0.000455678 0)
(0.0916961 0.000946842 0)
(0.093439 0.00174446 0)
(0.0951659 0.00184179 0)
(0.0977072 0.00129007 0)
(0.101906 0.000130998 0)
(0.108482 -0.00152868 0)
(0.118014 -0.00360926 0)
(0.130946 -0.00603414 0)
(0.147516 -0.00881296 0)
(0.167866 -0.0119515 0)
(0.192024 -0.0156062 0)
(0.21996 -0.0199172 0)
(0.251663 -0.0251733 0)
(0.287147 -0.031675 0)
(0.326474 -0.0398443 0)
(0.369845 -0.0501315 0)
(0.417481 -0.06317 0)
(0.46979 -0.0796053 0)
(0.52727 -0.100382 0)
(0.59057 -0.126521 0)
(0.660493 -0.159389 0)
(0.738086 -0.200586 0)
(0.824432 -0.252213 0)
(0.921156 -0.316482 0)
(1.0295 -0.397119 0)
(1.15178 -0.496366 0)
(1.28924 -0.621789 0)
(1.44463 -0.773906 0)
(1.61979 -0.96766 0)
(1.81698 -1.20029 0)
(2.04125 -1.49586 0)
(2.29527 -1.85455 0)
(2.59064 -2.31546 0)
(-0.000300653 0.00267259 0)
(-0.00398696 0.00527448 0)
(-0.00936169 0.00417826 0)
(-0.0137291 0.000407712 0)
(-0.0151877 -0.00419878 0)
(-0.0130212 -0.00834264 0)
(-0.00722449 -0.0115011 0)
(0.0016863 -0.0135179 0)
(0.012867 -0.014443 0)
(0.025365 -0.0144221 0)
(0.0382385 -0.0136157 0)
(0.0506486 -0.0121513 0)
(0.061919 -0.0101713 0)
(0.0715559 -0.00783367 0)
(0.0792807 -0.00533768 0)
(0.0850108 -0.00292894 0)
(0.088938 -0.000837564 0)
(0.0914637 0.000688287 0)
(0.0932261 0.00152823 0)
(0.0950021 0.00157158 0)
(0.0976135 0.000861884 0)
(0.101889 -0.000555104 0)
(0.108537 -0.00256331 0)
(0.118127 -0.00506723 0)
(0.131098 -0.00797325 0)
(0.147696 -0.0112734 0)
(0.168069 -0.0149604 0)
(0.192261 -0.0191794 0)
(0.220258 -0.0240697 0)
(0.252061 -0.0299197 0)
(0.287691 -0.0370403 0)
(0.327214 -0.0458617 0)
(0.370813 -0.0568517 0)
(0.418691 -0.0706541 0)
(0.471206 -0.08794 0)
(0.528777 -0.109667 0)
(0.59196 -0.136886 0)
(0.661376 -0.170996 0)
(0.737925 -0.213612 0)
(0.822349 -0.266908 0)
(0.916029 -0.333074 0)
(1.01959 -0.415928 0)
(1.13501 -0.517741 0)
(1.26246 -0.645926 0)
(1.40418 -0.801555 0)
(1.56008 -0.998462 0)
(1.73181 -1.23586 0)
(1.92051 -1.5355 0)
(2.12737 -1.90068 0)
(2.35488 -2.36845 0)
(-0.000303045 0.00286915 0)
(-0.00401328 0.00572236 0)
(-0.00939026 0.00465381 0)
(-0.0137194 0.000692976 0)
(-0.0151052 -0.00424841 0)
(-0.0128671 -0.00876737 0)
(-0.00702116 -0.0122779 0)
(0.0019134 -0.0145874 0)
(0.0130912 -0.0157189 0)
(0.0255614 -0.0158066 0)
(0.0383891 -0.0150135 0)
(0.0507421 -0.0134784 0)
(0.0619476 -0.0113592 0)
(0.0715145 -0.00883348 0)
(0.0791668 -0.00612315 0)
(0.084829 -0.00350077 0)
(0.0886999 -0.00122613 0)
(0.0911906 0.000423878 0)
(0.0929443 0.00130393 0)
(0.0947384 0.00128861 0)
(0.0973902 0.000413969 0)
(0.101718 -0.00126944 0)
(0.108417 -0.00363589 0)
(0.118046 -0.00657374 0)
(0.131033 -0.00997247 0)
(0.147618 -0.0138063 0)
(0.167946 -0.0180556 0)
(0.192062 -0.022854 0)
(0.219957 -0.0283403 0)
(0.251635 -0.0348023 0)
(0.287118 -0.0425608 0)
(0.326473 -0.0520535 0)
(0.369871 -0.0637649 0)
(0.417497 -0.078347 0)
(0.469681 -0.0964934 0)
(0.526781 -0.119173 0)
(0.589296 -0.147459 0)
(0.657719 -0.182778 0)
(0.732839 -0.226752 0)
(0.815156 -0.281612 0)
(0.905871 -0.349528 0)
(1.00521 -0.434359 0)
(1.1148 -0.538423 0)
(1.23415 -0.668909 0)
(1.36498 -0.827395 0)
(1.50592 -1.02666 0)
(1.65799 -1.26748 0)
(1.81952 -1.5697 0)
(1.99027 -1.93864 0)
(2.16574 -2.40918 0)
(-0.000305301 0.0030732 0)
(-0.00403793 0.00618578 0)
(-0.00941616 0.00514163 0)
(-0.0137081 0.000981521 0)
(-0.0150226 -0.00430641 0)
(-0.0127135 -0.00921186 0)
(-0.00681878 -0.0130826 0)
(0.00213963 -0.0156906 0)
(0.0133151 -0.0170322 0)
(0.0257578 -0.0172295 0)
(0.0385397 -0.0164483 0)
(0.050835 -0.014839 0)
(0.0619751 -0.0125755 0)
(0.0714712 -0.00985527 0)
(0.0790494 -0.00692391 0)
(0.0846404 -0.00408197 0)
(0.0884494 -0.00162014 0)
(0.0908963 0.000155362 0)
(0.0926294 0.0010736 0)
(0.0944276 0.000994819 0)
(0.0971058 -5.21457e-05 0)
(0.101472 -0.00201119 0)
(0.108214 -0.0047463 0)
(0.117875 -0.00812905 0)
(0.13087 -0.0120317 0)
(0.147431 -0.0164103 0)
(0.167691 -0.0212329 0)
(0.191692 -0.0266218 0)
(0.219418 -0.0327152 0)
(0.250872 -0.0398006 0)
(0.286073 -0.0482085 0)
(0.325081 -0.0583838 0)
(0.368056 -0.0708263 0)
(0.415167 -0.0861963 0)
(0.466717 -0.105207 0)
(0.523019 -0.128836 0)
(0.584528 -0.158176 0)
(0.651644 -0.194678 0)
(0.725072 -0.239964 0)
(0.805152 -0.296307 0)
(0.892918 -0.365861 0)
(0.988342 -0.452488 0)
(1.09275 -0.558562 0)
(1.20523 -0.691 0)
(1.32705 -0.85183 0)
(1.45598 -1.05285 0)
(1.59248 -1.29604 0)
(1.7328 -1.59965 0)
(1.87552 -1.97014 0)
(2.01096 -2.44012 0)
(-0.000307434 0.00328489 0)
(-0.00406084 0.00666517 0)
(-0.00943929 0.00564202 0)
(-0.0136952 0.00127338 0)
(-0.0149403 -0.00437294 0)
(-0.0125609 -0.00967685 0)
(-0.00661827 -0.0139162 0)
(0.00236365 -0.0168285 0)
(0.0135371 -0.0183837 0)
(0.0259529 -0.0186917 0)
(0.0386889 -0.0179209 0)
(0.050926 -0.0162339 0)
(0.0619995 -0.0138206 0)
(0.0714232 -0.0108992 0)
(0.0789254 -0.00773987 0)
(0.0844427 -0.00467214 0)
(0.0881865 -0.00201896 0)
(0.0905854 -0.000116475 0)
(0.0922926 0.000838085 0)
(0.0940887 0.000690959 0)
(0.0967865 -0.000536019 0)
(0.101186 -0.00278039 0)
(0.107964 -0.00589515 0)
(0.117653 -0.00973428 0)
(0.130654 -0.0141523 0)
(0.147186 -0.0190864 0)
(0.167372 -0.0244925 0)
(0.191242 -0.030481 0)
(0.218775 -0.0371903 0)
(0.249965 -0.0449071 0)
(0.284826 -0.0539715 0)
(0.323406 -0.0648359 0)
(0.365853 -0.0780142 0)
(0.412316 -0.0941746 0)
(0.463074 -0.114047 0)
(0.518401 -0.138621 0)
(0.578709 -0.169 0)
(0.644328 -0.206657 0)
(0.715888 -0.253213 0)
(0.793621 -0.310972 0)
(0.878406 -0.382072 0)
(0.970058 -0.470349 0)
(1.06962 -0.578239 0)
(1.17594 -0.712358 0)
(1.28983 -0.875118 0)
(1.40855 -1.07743 0)
(1.53203 -1.32215 0)
(1.655 -1.62617 0)
(1.77507 -1.99642 0)
(1.87873 -2.46317 0)
(-0.000309453 0.00350443 0)
(-0.00408194 0.00716092 0)
(-0.00945956 0.00615527 0)
(-0.0136808 0.0015686 0)
(-0.0148584 -0.00444817 0)
(-0.01241 -0.010163 0)
(-0.00642052 -0.0147798 0)
(0.00258413 -0.0180022 0)
(0.0137557 -0.0197748 0)
(0.0261449 -0.0201943 0)
(0.0388349 -0.0194323 0)
(0.0510134 -0.0176637 0)
(0.0620193 -0.0150949 0)
(0.0713691 -0.0119655 0)
(0.0787931 -0.00857089 0)
(0.0842345 -0.00527094 0)
(0.0879106 -0.00242211 0)
(0.0902587 -0.000391105 0)
(0.0919369 0.000597851 0)
(0.0937273 0.000377279 0)
(0.0964409 -0.00103768 0)
(0.100869 -0.00357747 0)
(0.10768 -0.00708327 0)
(0.117394 -0.0113907 0)
(0.130397 -0.0163357 0)
(0.146898 -0.0218361 0)
(0.167004 -0.0278354 0)
(0.190735 -0.0344321 0)
(0.218063 -0.0417646 0)
(0.248969 -0.0501192 0)
(0.28346 -0.0598453 0)
(0.321573 -0.0714023 0)
(0.363439 -0.0853178 0)
(0.409186 -0.102267 0)
(0.459068 -0.122997 0)
(0.513318 -0.148503 0)
(0.572311 -0.179903 0)
(0.636314 -0.218687 0)
(0.705885 -0.266475 0)
(0.781172 -0.325584 0)
(0.862915 -0.398149 0)
(0.950813 -0.487947 0)
(1.04566 -0.597482 0)
(1.14612 -0.733055 0)
(1.25264 -0.89739 0)
(1.36207 -1.1006 0)
(1.47393 -1.34614 0)
(1.58174 -1.64973 0)
(1.68234 -2.01826 0)
(1.7595 -2.47962 0)
(-0.000311371 0.00373197 0)
(-0.00410118 0.00767344 0)
(-0.00947691 0.00668169 0)
(-0.0136647 0.00186723 0)
(-0.0147772 -0.00453225 0)
(-0.0122614 -0.0106709 0)
(-0.00622635 -0.0156743 0)
(0.00279982 -0.0192128 0)
(0.0139692 -0.0212063 0)
(0.0263319 -0.0217385 0)
(0.038976 -0.0209834 0)
(0.0510953 -0.0191291 0)
(0.0620327 -0.016399 0)
(0.0713072 -0.0130542 0)
(0.0786516 -0.00941685 0)
(0.0840151 -0.00587804 0)
(0.0876215 -0.00282912 0)
(0.0899165 -0.000668092 0)
(0.0915632 0.000353241 0)
(0.0933452 5.3915e-05 0)
(0.0960714 -0.00155728 0)
(0.100525 -0.00440291 0)
(0.107365 -0.00831149 0)
(0.1171 -0.0130993 0)
(0.130102 -0.0185831 0)
(0.146565 -0.0246606 0)
(0.166585 -0.0312628 0)
(0.190169 -0.0384759 0)
(0.21728 -0.0464383 0)
(0.247888 -0.055436 0)
(0.281989 -0.0658273 0)
(0.319609 -0.0780788 0)
(0.360859 -0.0927304 0)
(0.405847 -0.110465 0)
(0.454797 -0.132043 0)
(0.507905 -0.158468 0)
(0.565502 -0.190868 0)
(0.627801 -0.230746 0)
(0.695288 -0.279721 0)
(0.768035 -0.340116 0)
(0.846651 -0.414062 0)
(0.930739 -0.505261 0)
(1.02086 -0.616276 0)
(1.11553 -0.753094 0)
(1.21488 -0.918674 0)
(1.31543 -1.12242 0)
(1.41628 -1.36815 0)
(1.51006 -1.67053 0)
(1.59294 -2.03609 0)
(1.6468 -2.49025 0)
(-0.000313197 0.0039677 0)
(-0.00411853 0.00820315 0)
(-0.0094913 0.00722158 0)
(-0.0136471 0.0021694 0)
(-0.014697 -0.00462535 0)
(-0.0121155 -0.011201 0)
(-0.0060366 -0.0166008 0)
(0.00300949 -0.0204614 0)
(0.014176 -0.0226796 0)
(0.0265121 -0.0233253 0)
(0.0391101 -0.0225753 0)
(0.0511699 -0.0206309 0)
(0.062038 -0.0177332 0)
(0.0712362 -0.0141655 0)
(0.0784996 -0.0102777 0)
(0.0837838 -0.00649312 0)
(0.087319 -0.00323956 0)
(0.0895591 -0.000946986 0)
(0.0911722 0.000104601 0)
(0.0929432 -0.000279018 0)
(0.0956789 -0.00209495 0)
(0.100155 -0.00525715 0)
(0.107019 -0.00958051 0)
(0.116771 -0.0148611 0)
(0.129764 -0.0208957 0)
(0.146184 -0.0275611 0)
(0.166109 -0.0347754 0)
(0.189537 -0.0426125 0)
(0.216418 -0.0512108 0)
(0.246712 -0.0608562 0)
(0.280404 -0.0719151 0)
(0.317506 -0.0848614 0)
(0.35811 -0.100246 0)
(0.402302 -0.11876 0)
(0.450274 -0.141173 0)
(0.502183 -0.168499 0)