/*--------------------------------*- C++ -*----------------------------------*\
  =========                 |
  \\      /  F ield         | OpenFOAM: The Open Source CFD Toolbox
   \\    /   O peration     | Website:  https://openfoam.org
    \\  /    A nd           | Version:  7
     \\/     M anipulation  |
\*---------------------------------------------------------------------------*/
FoamFile
{
    version     2.0;
    format      ascii;
    class       surfaceScalarField;
    location    "0.2";
    object      ddtCorrDdt0(phi);
}
// * * * * * * * * * * * * * * * * * * * * * * * * * * * * * * * * * * * * * //

dimensions      [0 3 -2 0 0 0 0];

internalField   nonuniform List<scalar> 
139350
(
-2.98631e-10
2.93508e-10
-5.28028e-10
2.21308e-10
-5.22152e-10
-1.73993e-11
-4.15503e-10
-1.14422e-10
-3.36403e-10
-8.69593e-11
-3.34541e-10
-9.11352e-12
-4.16209e-10
7.48072e-11
-5.59793e-10
1.37327e-10
-7.35808e-10
1.68833e-10
-9.13918e-10
1.72951e-10
-1.08205e-09
1.6015e-10
-1.23021e-09
1.42511e-10
-1.36569e-09
1.28254e-10
-1.4965e-09
1.23897e-10
-1.62811e-09
1.27642e-10
-1.77681e-09
1.38916e-10
-1.92702e-09
1.50943e-10
-2.10581e-09
1.62919e-10
-2.27368e-09
1.69079e-10
-2.45642e-09
1.64996e-10
-2.61371e-09
1.53199e-10
-2.75099e-09
1.25207e-10
-2.8396e-09
8.31042e-11
-2.87482e-09
2.40035e-11
-2.81711e-09
-5.77833e-11
-2.67649e-09
-1.60379e-10
-2.38534e-09
-2.90537e-10
-1.95543e-09
-4.53393e-10
-1.31368e-09
-6.48538e-10
-4.41946e-10
-8.89504e-10
7.27356e-10
-1.17879e-09
2.23462e-09
-1.5258e-09
4.17832e-09
-1.94742e-09
6.59728e-09
-2.44946e-09
9.64672e-09
-3.05215e-09
1.33848e-08
-3.77312e-09
1.80042e-08
-4.63008e-09
2.36353e-08
-5.65636e-09
3.0485e-08
-6.8658e-09
3.87931e-08
-8.32468e-09
4.87771e-08
-9.99626e-09
6.08367e-08
-1.20806e-08
7.51198e-08
-1.42895e-08
9.23724e-08
-1.72903e-08
1.12305e-07
-1.99463e-08
1.36567e-07
-2.43139e-08
1.62717e-07
-2.61886e-08
1.97375e-07
-3.4713e-08
2.09709e-07
-1.23474e-08
-1.87211e-07
3.96909e-07
-4.42852e-10
7.30142e-10
-6.44217e-10
4.13899e-10
-9.94191e-11
-5.74458e-10
8.26905e-10
-1.04916e-09
1.66805e-09
-9.36562e-10
2.24493e-09
-5.93837e-10
2.54587e-09
-2.33574e-10
2.64294e-09
3.35506e-11
2.6381e-09
1.65814e-10
2.62376e-09
1.81699e-10
2.646e-09
1.29246e-10
2.72095e-09
6.13657e-11
2.82799e-09
1.34734e-11
2.93757e-09
6.76975e-12
3.02308e-09
3.80916e-11
3.05193e-09
9.91642e-11
3.03169e-09
1.72169e-10
2.93383e-09
2.43281e-10
2.80509e-09
2.98876e-10
2.63074e-09
3.20409e-10
2.46871e-09
3.10493e-10
2.33379e-09
2.47393e-10
2.27899e-09
1.32214e-10
2.33547e-09
-4.50268e-11
2.5734e-09
-2.95508e-10
3.01556e-09
-6.24382e-10
3.76937e-09
-1.04406e-09
4.86611e-09
-1.57522e-09
6.43203e-09
-2.22221e-09
8.54548e-09
-3.02182e-09
1.13474e-08
-3.99069e-09
1.49644e-08
-5.1634e-09
1.95991e-08
-6.58582e-09
2.5415e-08
-8.29895e-09
3.27171e-08
-1.03575e-08
4.17484e-08
-1.28419e-08
5.29184e-08
-1.58121e-08
6.66325e-08
-1.93969e-08
8.34157e-08
-2.36664e-08
1.03909e-07
-2.8836e-08
1.28812e-07
-3.49114e-08
1.59098e-07
-4.23901e-08
1.95621e-07
-5.08199e-08
2.40044e-07
-6.17544e-08
2.92771e-07
-7.26898e-08
3.57747e-07
-8.93453e-08
4.30695e-07
-9.91787e-08
5.28265e-07
-1.32342e-07
6.07201e-07
-9.12913e-08
-3.07052e-07
7.2703e-07
-4.8955e-10
1.21261e-09
-7.83748e-10
6.98754e-10
4.40801e-12
-1.37549e-09
1.6143e-09
-2.668e-09
3.30506e-09
-2.63627e-09
4.64208e-09
-1.93918e-09
5.51551e-09
-1.11491e-09
6.00063e-09
-4.58637e-10
6.25343e-09
-9.53788e-11
6.43255e-09
-3.36344e-12
6.63329e-09
-8.06933e-11
6.89455e-09
-2.06535e-10
7.19551e-09
-2.95615e-10
7.49277e-09
-2.98541e-10
7.74074e-09
-2.13981e-10
7.88806e-09
-5.99378e-11
7.92879e-09
1.32621e-10
7.82505e-09
3.28267e-10
7.62213e-09
5.02706e-10
7.30751e-09
6.15191e-10
6.94787e-09
6.64885e-10
6.56953e-09
6.12496e-10
6.24083e-09
4.55077e-10
6.0099e-09
1.72328e-10
5.96741e-09
-2.52609e-10
6.15722e-09
-8.37623e-10
6.71315e-09
-1.59997e-09
7.69397e-09
-2.58229e-09
9.26011e-09
-3.79688e-09
1.15284e-08
-5.30976e-09
1.4686e-08
-7.1587e-09
1.89149e-08
-9.41447e-09
2.44836e-08
-1.21582e-08
3.16376e-08
-1.54887e-08
4.07773e-08
-1.9501e-08
5.22731e-08
-2.43766e-08
6.66747e-08
-3.02268e-08
8.4584e-08
-3.73335e-08
1.06744e-07
-4.58449e-08
1.34086e-07
-5.61964e-08
1.67673e-07
-6.85114e-08
2.08888e-07
-8.36298e-08
2.59194e-07
-1.01134e-07
3.20914e-07
-1.23519e-07
3.95168e-07
-1.46961e-07
4.87769e-07
-1.82004e-07
5.93762e-07
-2.05217e-07
7.34531e-07
-2.73174e-07
8.7796e-07
-2.34723e-07
-4.41736e-07
1.01263e-06
-4.82426e-10
1.68729e-09
-1.02301e-09
1.22953e-09
-5.01627e-10
-1.91025e-09
1.22655e-09
-4.40554e-09
3.46054e-09
-4.87959e-09
5.52248e-09
-4.00982e-09
7.07341e-09
-2.67411e-09
8.07101e-09
-1.4636e-09
8.64931e-09
-6.8249e-10
9.00279e-09
-3.6307e-10
9.28085e-09
-3.68354e-10
9.56881e-09
-5.01485e-10
9.87384e-09
-6.09078e-10
1.01625e-08
-5.95666e-10
1.0386e-08
-4.41614e-10
1.04812e-08
-1.67605e-10
1.04286e-08
1.86599e-10
1.01751e-08
5.62095e-10
9.75517e-09
9.23379e-10
9.14759e-09
1.20229e-09
8.41608e-09
1.39075e-09
7.58722e-09
1.42774e-09
6.73403e-09
1.30231e-09
5.91161e-09
9.80409e-10
5.22147e-09
4.38079e-10
4.71873e-09
-3.59438e-10
4.55284e-09
-1.43432e-09
4.79851e-09
-2.85501e-09
5.63625e-09
-4.64375e-09
7.20538e-09
-6.89914e-09
9.7197e-09
-9.68363e-09
1.33929e-08
-1.3111e-08
1.85309e-08
-1.72999e-08
2.54268e-08
-2.24219e-08
3.45354e-08
-2.86139e-08
4.63018e-08
-3.6183e-08
6.13586e-08
-4.52975e-08
8.04238e-08
-5.64267e-08
1.04377e-07
-6.98168e-08
1.34323e-07
-8.61615e-08
1.71559e-07
-1.05761e-07
2.17735e-07
-1.29832e-07
2.74689e-07
-1.58095e-07
3.45257e-07
-1.94133e-07
4.30959e-07
-2.32682e-07
5.38851e-07
-2.89955e-07
6.64767e-07
-3.3118e-07
8.28474e-07
-4.36943e-07
1.01612e-06
-4.22373e-07
-6.15909e-07
1.19028e-06
-4.35078e-10
2.11414e-09
-1.20889e-09
1.99316e-09
-1.24071e-09
-1.89224e-09
3.73989e-11
-5.69336e-09
2.27003e-09
-7.12186e-09
4.76403e-09
-6.51284e-09
6.96665e-09
-4.8853e-09
8.61418e-09
-3.11873e-09
9.69806e-09
-1.7755e-09
1.03616e-08
-1.03307e-09
1.07686e-08
-7.85203e-10
1.10502e-08
-7.90374e-10
1.12644e-08
-8.31975e-10
1.14188e-08
-7.58805e-10
1.14904e-08
-5.1737e-10
1.14263e-08
-1.16448e-10
1.12062e-08
4.08133e-10
1.07661e-08
9.81799e-10
1.01266e-08
1.56358e-09
9.24916e-09
2.05881e-09
8.18313e-09
2.45081e-09
6.94282e-09
2.65417e-09
5.5934e-09
2.64566e-09
4.18557e-09
2.37336e-09
2.82134e-09
1.80293e-09
1.55797e-09
8.78621e-10
5.5168e-10
-4.28505e-10
-1.15156e-10
-2.21572e-09
-2.51318e-10
-4.5172e-09
2.95346e-10
-7.46643e-09
1.75316e-09
-1.11522e-08
4.35383e-09
-1.57359e-08
8.42366e-09
-2.13735e-08
1.42816e-08
-2.83182e-08
2.24126e-08
-3.67494e-08
3.33008e-08
-4.71117e-08
4.76258e-08
-5.9637e-08
6.61661e-08
-7.49951e-08
8.98805e-08
-9.35504e-08
1.19967e-07
-1.16268e-07
1.57857e-07
-1.43664e-07
2.05363e-07
-1.77364e-07
2.64514e-07
-2.17254e-07
3.38487e-07
-2.68153e-07
4.29099e-07
-3.23313e-07
5.43683e-07
-4.04598e-07
6.80457e-07
-4.68001e-07
8.53645e-07
-6.10193e-07
1.06651e-06
-6.35231e-07
-8.2613e-07
1.27672e-06
-3.82804e-10
2.48833e-09
-1.27576e-09
2.87559e-09
-1.83331e-09
-1.34886e-09
-1.26934e-09
-6.26733e-09
4.84523e-10
-8.88563e-09
2.95786e-09
-8.99545e-09
5.55859e-09
-7.49484e-09
7.83642e-09
-5.40435e-09
9.57519e-09
-3.52366e-09
1.07688e-08
-2.23331e-09
1.15122e-08
-1.5388e-09
1.19356e-08
-1.22117e-09
1.21354e-08
-1.04069e-09
1.21735e-08
-8.05794e-10
1.20786e-08
-4.26757e-10
1.18378e-08
1.1108e-10
1.14558e-08
7.9153e-10
1.08769e-08
1.53997e-09
1.01172e-08
2.32381e-09
9.12295e-09
3.03188e-09
7.92358e-09
3.64393e-09
6.5113e-09
4.05241e-09
4.93109e-09
4.21971e-09
3.21648e-09
4.07271e-09
1.45775e-09
3.56228e-09
-2.96328e-10
2.60692e-09
-1.89252e-09
1.16695e-09
-3.24881e-09
-8.87231e-10
-4.17107e-09
-3.60493e-09
-4.50142e-09
-7.15693e-09
-4.00448e-09
-1.16601e-08
-2.43883e-09
-1.73262e-08
5.33058e-10
-2.43492e-08
5.24374e-09
-3.30678e-08
1.2195e-08
-4.37057e-08
2.18897e-08
-5.68471e-08
3.50342e-08
-7.27965e-08
5.24331e-08
-9.24223e-08
7.50911e-08
-1.16228e-07
1.04248e-07
-1.45445e-07
1.41406e-07
-1.80835e-07
1.88463e-07
-2.24448e-07
2.47552e-07
-2.76351e-07
3.21976e-07
-3.42623e-07
4.13971e-07
-4.15328e-07
5.302e-07
-5.20886e-07
6.72231e-07
-6.10079e-07
8.47808e-07
-7.85831e-07
1.07302e-06
-8.60435e-07
-1.06407e-06
1.31095e-06
-3.54668e-10
2.83407e-09
-1.27103e-09
3.78114e-09
-2.15799e-09
-4.76396e-10
-2.23748e-09
-6.19809e-09
-1.15207e-09
-9.98118e-09
9.32213e-10
-1.10892e-08
3.56027e-09
-1.01319e-08
6.23581e-09
-8.08786e-09
8.58524e-09
-5.88269e-09
1.04242e-08
-4.07905e-09
1.17111e-08
-2.83608e-09
1.25051e-08
-2.02275e-09
1.28914e-08
-1.43604e-09
1.29621e-08
-8.8564e-10
1.27981e-08
-2.67023e-10
1.24428e-08
4.52833e-10
1.19518e-08
1.28399e-09
1.13046e-08
2.16609e-09
1.05366e-08
3.09221e-09
9.59467e-09
3.95249e-09
8.49572e-09
4.7364e-09
7.20938e-09
5.32459e-09
5.75372e-09
5.66912e-09
4.13459e-09
5.67632e-09
2.41805e-09
5.2794e-09
6.31951e-10
4.36695e-09
-1.08538e-09
2.88329e-09
-2.66265e-09
6.6214e-10
-3.91219e-09
-2.36573e-09
-4.67856e-09
-6.41154e-09
-4.72664e-09
-1.16231e-08
-3.8127e-09
-1.82652e-08
-1.59473e-09
-2.65711e-08
2.26451e-09
-3.69661e-08
8.27595e-09
-4.97226e-08
1.69472e-08
-6.55591e-08
2.89997e-08
-8.48643e-08
4.52417e-08
-1.08692e-07
6.67028e-08
-1.37708e-07
9.46283e-08
-1.7339e-07
1.30558e-07
-2.16778e-07
1.76403e-07
-2.70321e-07
2.34383e-07
-3.34338e-07
3.07712e-07
-4.15998e-07
3.99181e-07
-5.06817e-07
5.14261e-07
-6.36025e-07
6.57755e-07
-7.53619e-07
8.32351e-07
-9.60484e-07
1.06094e-06
-1.08901e-06
-1.3215e-06
1.31837e-06
-3.55517e-10
3.18039e-09
-1.25851e-09
4.67304e-09
-2.28336e-09
5.33653e-10
-2.77267e-09
-5.71927e-09
-2.26405e-09
-1.05001e-08
-6.96098e-10
-1.26669e-08
1.67699e-09
-1.25142e-08
4.44149e-09
-1.08605e-08
7.17953e-09
-8.63051e-09
9.58417e-09
-6.49063e-09
1.14744e-08
-4.73677e-09
1.27975e-08
-3.35365e-09
1.35743e-08
-2.22194e-09
1.38796e-08
-1.20032e-09
1.38156e-08
-2.07373e-10
1.34712e-08
7.83561e-10
1.2959e-08
1.79753e-09
1.23137e-08
2.79022e-09
1.1615e-08
3.79113e-09
1.08362e-08
4.70991e-09
1.00022e-08
5.56367e-09
9.07326e-09
6.2393e-09
8.04544e-09
6.6906e-09
6.89479e-09
6.81125e-09
5.65556e-09
6.51913e-09
4.32408e-09
5.67223e-09
3.0114e-09
4.19466e-09
1.76595e-09
1.87973e-09
7.571e-10
-1.36752e-09
1.26928e-10
-5.80239e-09
1.0053e-10
-1.16079e-08
9.14283e-10
-1.91042e-08
2.90636e-09
-2.85673e-08
6.40885e-09
-4.05077e-08
1.19337e-08
-5.52533e-08
1.99809e-08
-7.36468e-08
3.12763e-08
-9.61754e-08
4.6613e-08
-1.24057e-07
6.70289e-08
-1.58144e-07
9.37434e-08
-2.00125e-07
1.28309e-07
-2.51357e-07
1.72591e-07
-3.1463e-07
2.2887e-07
-3.90624e-07
3.00147e-07
-4.87321e-07
3.89717e-07
-5.96407e-07
5.01881e-07
-7.48246e-07
6.43661e-07
-8.95443e-07
8.1499e-07
-1.13187e-06
1.04079e-06
-1.31479e-06
-1.58894e-06
1.30824e-06
-3.72747e-10
3.5437e-09
-1.27374e-09
5.56268e-09
-2.33114e-09
1.57598e-09
-3.00126e-09
-5.05987e-09
-2.84901e-09
-1.06629e-08
-1.7091e-09
-1.38167e-08
3.21297e-10
-1.4554e-08
2.95657e-09
-1.3504e-08
5.82683e-09
-1.15107e-08
8.58998e-09
-9.26087e-09
1.0978e-08
-7.13542e-09
1.28378e-08
-5.22139e-09
1.41047e-08
-3.49805e-09
1.47986e-08
-1.90365e-09
1.5002e-08
-4.15208e-10
1.48171e-08
9.54693e-10
1.43958e-08
2.22015e-09
1.38262e-08
3.33858e-09
1.32449e-08
4.37236e-09
1.26736e-08
5.25988e-09
1.21698e-08
6.06052e-09
1.17075e-08
6.68739e-09
1.12779e-08
7.11382e-09
1.08373e-08
7.23593e-09
1.03909e-08
6.96588e-09
9.90029e-09
6.13666e-09
9.4412e-09
4.65211e-09
9.02889e-09
2.26433e-09
8.80262e-09
-1.15219e-09
8.87884e-09
-5.89962e-09
9.46068e-09
-1.2201e-08
1.07649e-08
-2.04337e-08
1.31144e-08
-3.09212e-08
1.68237e-08
-4.4256e-08
2.23942e-08
-6.08301e-08
3.03048e-08
-8.15973e-08
4.12718e-08
-1.07158e-07
5.6055e-08
-1.38868e-07
7.56801e-08
-1.77788e-07
1.01315e-07
-2.25779e-07
1.34489e-07
-2.84543e-07
1.76982e-07
-3.5715e-07
2.31071e-07
-4.44721e-07
2.99514e-07
-5.5581e-07
3.85881e-07
-6.82793e-07
4.93605e-07
-8.56024e-07
6.30747e-07
-1.03263e-06
7.96265e-07
-1.29744e-06
1.01455e-06
-1.53306e-06
-1.85661e-06
1.28224e-06
-3.94102e-10
3.92814e-09
-1.31321e-09
6.47018e-09
-2.37639e-09
2.62381e-09
-3.09563e-09
-4.35157e-09
-3.09507e-09
-1.06742e-08
-2.20402e-09
-1.47178e-08
-4.44439e-10
-1.63231e-08
1.99971e-09
-1.59566e-08
4.8362e-09
-1.43573e-08
7.75098e-09
-1.21829e-08
1.04536e-08
-9.8487e-09
1.27345e-08
-7.51046e-09
1.44606e-08
-5.23343e-09
1.55885e-08
-3.04106e-09
1.61559e-08
-9.87122e-10
1.62461e-08
8.50666e-10
1.60203e-08
2.44703e-09
1.56005e-08
3.73724e-09
1.5173e-08
4.79954e-09
1.48145e-08
5.59716e-09
1.46316e-08
6.23624e-09
1.46341e-08
6.67063e-09
1.48311e-08
6.9104e-09
1.51785e-08
6.8726e-09
1.56658e-08
6.47875e-09
1.62271e-08
5.54915e-09
1.6904e-08
3.97322e-09
1.76748e-08
1.4661e-09
1.86411e-08
-2.12969e-09
1.9884e-08
-7.16351e-09
2.15737e-08
-1.3902e-08
2.38946e-08
-2.27801e-08
2.71419e-08
-3.4173e-08
3.1598e-08
-4.87509e-08
3.77396e-08
-6.69784e-08
4.60084e-08
-8.99056e-08
5.70937e-08
-1.1826e-07
7.17046e-08
-1.53507e-07
9.0827e-08
-1.9693e-07
1.15556e-07
-2.50529e-07
1.47351e-07
-3.16349e-07
1.87885e-07
-3.9771e-07
2.39331e-07
-4.96174e-07
3.04219e-07
-6.20741e-07
3.8612e-07
-7.64714e-07
4.87856e-07
-9.57812e-07
6.17686e-07
-1.1625e-06
7.74428e-07
-1.45422e-06
9.80825e-07
-1.73944e-06
-2.11552e-06
1.23977e-06
-4.14069e-10
4.33232e-09
-1.36439e-09
7.40864e-09
-2.43939e-09
3.68321e-09
-3.16089e-09
-3.64123e-09
-3.19244e-09
-1.06535e-08
-2.39254e-09
-1.55279e-08
-7.7216e-10
-1.79532e-08
1.53196e-09
-1.82693e-08
4.28892e-09
-1.71244e-08
7.23172e-09
-1.5133e-08
1.00875e-08
-1.27152e-08
1.26349e-08
-1.00662e-08
1.47066e-08
-7.31439e-09
1.62131e-08
-4.55715e-09
1.71465e-08
-1.92513e-09
1.75555e-08
4.27741e-10
1.75868e-08
2.41679e-09
1.73706e-08
3.93232e-09
1.71239e-08
5.04574e-09
1.69687e-08
5.73128e-09
1.70624e-08
6.13514e-09
1.7462e-08
6.25678e-09
1.82121e-08
6.15379e-09
1.92886e-08
5.78014e-09
2.06843e-08
5.08303e-09
2.23215e-08
3.886e-09
2.42175e-08
2.07489e-09
2.63189e-08
-6.62509e-10
2.86903e-08
-4.51253e-09
3.1374e-08
-9.8681e-09
3.45009e-08
-1.70402e-08
3.82145e-08
-2.65191e-08
4.27714e-08
-3.87347e-08
4.84096e-08
-5.44274e-08
5.55655e-08
-7.41415e-08
6.46295e-08
-9.90085e-08
7.62429e-08
-1.29889e-07
9.10486e-08
-1.68339e-07
1.09961e-07
-2.15861e-07
1.33989e-07
-2.74576e-07
1.64464e-07
-3.46836e-07
2.02939e-07
-4.36211e-07
2.51389e-07
-5.44631e-07
3.12105e-07
-6.81499e-07
3.88462e-07
-8.41089e-07
4.82762e-07
-1.05216e-06
6.02959e-07
-1.28273e-06
7.47988e-07
-1.59929e-06
9.38379e-07
-1.9298e-06
-2.3577e-06
1.1806e-06
-4.32304e-10
4.75454e-09
-1.41844e-09
8.38267e-09
-2.51613e-09
4.76505e-09
-3.23513e-09
-2.9336e-09
-3.2523e-09
-1.06474e-08
-2.45318e-09
-1.63374e-08
-8.63242e-10
-1.9553e-08
1.38949e-09
-2.05307e-08
4.101e-09
-1.98463e-08
7.03844e-09
-1.8078e-08
9.95685e-09
-1.56445e-08
1.26474e-08
-1.27651e-08
1.49377e-08
-9.61407e-09
1.67178e-08
-6.34692e-09
1.79494e-08
-3.1614e-09
1.86493e-08
-2.86023e-10
1.894e-08
2.12699e-09
1.8943e-08
3.90837e-09
1.88852e-08
5.10276e-09
1.89168e-08
5.67878e-09
1.92351e-08
5.80922e-09
1.99427e-08
5.5351e-09
2.11259e-08
4.96398e-09
2.27937e-08
4.0963e-09
2.4959e-08
2.91759e-09
2.75491e-08
1.27015e-09
3.05725e-08
-9.51279e-10
3.39565e-08
-4.07329e-09
3.77364e-08
-8.30416e-09
4.19205e-08
-1.40728e-08
4.66011e-08
-2.17323e-08
5.1879e-08
-3.18223e-08
5.79669e-08
-4.48276e-08
6.50516e-08
-6.15499e-08
7.35175e-08
-8.26151e-08
8.36934e-08
-1.09222e-07
9.61531e-08
-1.42365e-07
1.11462e-07
-1.83675e-07
1.30434e-07
-2.34852e-07
1.53977e-07
-2.98139e-07
1.83255e-07
-3.76125e-07
2.19673e-07
-4.72655e-07
2.6495e-07
-5.89915e-07
3.21093e-07
-7.37681e-07
3.91163e-07
-9.11176e-07
4.76935e-07
-1.13798e-06
5.8575e-07
-1.39158e-06
7.16679e-07
-1.73025e-06
8.87652e-07
-2.10075e-06
-2.57659e-06
1.1066e-06
-4.50008e-10
5.19425e-09
-1.47264e-09
9.39295e-09
-2.5988e-09
5.87512e-09
-3.32128e-09
-2.2227e-09
-3.31524e-09
-1.06646e-08
-2.48105e-09
-1.71822e-08
-8.60401e-10
-2.11836e-08
1.41051e-09
-2.28105e-08
4.13121e-09
-2.25774e-08
7.08247e-09
-2.10369e-08
1.00381e-08
-1.8611e-08
1.28057e-08
-1.55411e-08
1.52215e-08
-1.20393e-08
1.71737e-08
-8.30883e-09
1.86114e-08
-4.60387e-09
1.95323e-08
-1.22059e-09
2.00382e-08
1.62178e-09
2.02367e-08
3.68914e-09
2.03517e-08
4.98667e-09
2.05457e-08
5.46417e-09
2.10405e-08
5.30671e-09
2.19732e-08
4.58838e-09
2.34679e-08
3.46262e-09
2.55693e-08
1.97898e-09
2.83183e-08
1.68117e-10
3.16605e-08
-2.09747e-09
3.56094e-08
-4.9033e-09
4.0087e-08
-8.57726e-09
4.5112e-08
-1.3341e-08
5.06684e-08
-1.96497e-08
5.68179e-08
-2.78933e-08
6.36234e-08
-3.8653e-08
7.12558e-08
-5.24652e-08
7.98512e-08
-7.01825e-08
8.97376e-08
-9.25094e-08
1.01178e-07
-1.207e-07
1.14668e-07
-1.55871e-07
1.30687e-07
-1.9972e-07
1.49931e-07
-2.54114e-07
1.73194e-07
-3.21421e-07
2.01451e-07
-4.04391e-07
2.35931e-07
-5.0716e-07
2.78071e-07
-6.32061e-07
3.29542e-07
-7.89191e-07
3.9303e-07
-9.7468e-07
4.69756e-07
-1.21475e-06
5.66245e-07
-1.48809e-06
6.81631e-07
-1.84566e-06
8.31008e-07
-2.25009e-06
-2.76772e-06
1.02219e-06
-4.68016e-10
5.65178e-09
-1.52725e-09
1.04396e-08
-2.68369e-09
7.01525e-09
-3.41385e-09
-1.50433e-09
-3.38657e-09
-1.07032e-08
-2.50886e-09
-1.80706e-08
-8.33372e-10
-2.28693e-08
1.49362e-09
-2.51464e-08
4.26514e-09
-2.53594e-08
7.26185e-09
-2.40413e-08
1.02637e-08
-2.16237e-08
1.30878e-08
-1.83738e-08
1.558e-08
-1.4541e-08
1.76339e-08
-1.03724e-08
1.91983e-08
-6.17309e-09
2.0264e-08
-2.29989e-09
2.09217e-08
9.64517e-10
2.12686e-08
3.32187e-09
2.15217e-08
4.73216e-09
2.18465e-08
5.11912e-09
2.24761e-08
4.66922e-09
2.35694e-08
3.48124e-09
2.52776e-08
1.74767e-09
2.76756e-08
-4.34812e-10
3.08321e-08
-2.98907e-09
3.47155e-08
-6.00591e-09
3.93529e-08
-9.54426e-09
4.46724e-08
-1.39225e-08
5.06874e-08
-1.9368e-08
5.73699e-08
-2.63525e-08
6.47617e-08
-3.52964e-08
7.28976e-08
-4.68138e-08
8.19143e-08
-6.14874e-08
9.19052e-08
-8.02097e-08
1.03144e-07
-1.03757e-07
1.15834e-07
-1.33426e-07
1.30387e-07
-1.7044e-07
1.47201e-07
-2.1656e-07
1.66846e-07
-2.73776e-07
1.89997e-07
-3.44591e-07
2.17436e-07
-4.3184e-07
2.50198e-07
-5.39946e-07
2.89441e-07
-6.71308e-07
3.36465e-07
-8.36251e-07
3.93557e-07
-1.03179e-06
4.61382e-07
-1.28261e-06
5.45524e-07
-1.57226e-06
6.45095e-07
-1.94526e-06
7.72264e-07
-2.37722e-06
-2.92908e-06
9.33691e-07
-4.86581e-10
6.12768e-09
-1.58321e-09
1.15234e-08
-2.77024e-09
8.18574e-09
-3.50933e-09
-7.77211e-10
-3.46263e-09
-1.07614e-08
-2.54085e-09
-1.90033e-08
-8.03952e-10
-2.46164e-08
1.59417e-09
-2.75536e-08
4.43857e-09
-2.82144e-08
7.50399e-09
-2.71146e-08
1.05686e-08
-2.46991e-08
1.34515e-08
-2.12653e-08
1.60033e-08
-1.71021e-08
1.81227e-08
-1.25015e-08
1.97621e-08
-7.81742e-09
2.09134e-08
-3.46465e-09
2.16647e-08
2.1354e-10
2.21092e-08
2.85735e-09
2.24595e-08
4.38019e-09
2.28813e-08
4.67755e-09
2.36114e-08
3.93111e-09
2.48202e-08
2.25874e-09
2.66753e-08
-1.14129e-10
2.92721e-08
-3.04732e-09
3.27012e-08
-6.41898e-09
3.69516e-08
-1.02809e-08
4.2066e-08
-1.46625e-08
4.79838e-08
-1.98655e-08
5.47215e-08
-2.61178e-08
6.22483e-08
-3.38993e-08
7.05963e-08
-4.36556e-08
7.97835e-08
-5.60256e-08
8.99227e-08
-7.16323e-08
1.01076e-07
-9.13979e-08
1.13471e-07
-1.16161e-07
1.27262e-07
-1.47251e-07
1.42786e-07
-1.8598e-07
1.60364e-07
-2.34162e-07
1.8045e-07
-2.93878e-07
2.03603e-07
-3.67762e-07
2.30428e-07
-4.58673e-07
2.61756e-07
-5.71297e-07
2.98495e-07
-7.08052e-07
3.41569e-07
-8.79358e-07
3.92869e-07
-1.0831e-06
4.52548e-07
-1.34233e-06
5.2519e-07
-1.64492e-06
6.09824e-07
-2.0299e-06
7.15764e-07
-2.48312e-06
-3.06116e-06
8.47909e-07
-5.05695e-10
6.62252e-09
-1.6409e-09
1.26455e-08
-2.8588e-09
9.38691e-09
-3.60682e-09
-4.13568e-11
-3.54078e-09
-1.0839e-08
-2.57454e-09
-1.99805e-08
-7.74502e-10
-2.64269e-08
1.69962e-09
-3.0037e-08
4.62604e-09
-3.11514e-08
7.77248e-09
-3.02691e-08
1.09122e-08
-2.78497e-08
1.38617e-08
-2.42235e-08
1.64717e-08
-1.97215e-08
1.8643e-08
-1.46824e-08
2.03313e-08
-9.51069e-09
2.15322e-08
-4.6788e-09
2.2336e-08
-5.90126e-10
2.28378e-08
2.33602e-09
2.32496e-08
3.96647e-09
2.37386e-08
4.1692e-09
2.45429e-08
3.11868e-09
2.58386e-08
9.49579e-10
2.78014e-08
-2.0836e-09
3.05387e-08
-5.80007e-09
3.41545e-08
-1.00359e-08
3.86534e-08
-1.48038e-08
4.409e-08
-2.01033e-08
5.04157e-08
-2.62158e-08
5.76527e-08
-3.33668e-08
6.57731e-08
-4.20393e-08
7.48065e-08
-5.27e-08
8.47628e-08
-6.6006e-08
9.57407e-08
-8.2616e-08
1.07782e-07
-1.03474e-07
1.21082e-07
-1.2947e-07
1.35755e-07
-1.61959e-07
1.5208e-07
-2.0232e-07
1.70313e-07
-2.52419e-07
1.90811e-07
-3.1439e-07
2.14023e-07
-3.90992e-07
2.4041e-07
-4.85067e-07
2.70607e-07
-6.01515e-07
3.05312e-07
-7.4276e-07
3.45099e-07
-9.19175e-07
3.91488e-07
-1.1295e-06
4.44201e-07
-1.39507e-06
5.06837e-07
-1.70756e-06
5.78301e-07
-2.10137e-06
6.65277e-07
-2.57004e-06
-3.16644e-06
7.70639e-07
-5.25313e-10
7.1368e-09
-1.70031e-09
1.38072e-08
-2.94963e-09
1.06193e-08
-3.70642e-09
7.0309e-10
-3.62028e-09
-1.09369e-08
-2.60816e-09
-2.10037e-08
-7.43362e-10
-2.83021e-08
1.80902e-09
-3.25986e-08
4.82124e-09
-3.41743e-08
8.05431e-09
-3.35102e-08
1.1276e-08
-3.1082e-08
1.42982e-08
-2.72544e-08
1.69693e-08
-2.24019e-08
1.91897e-08
-1.69123e-08
2.09166e-08
-1.12426e-08
2.21494e-08
-5.92452e-09
2.29823e-08
-1.42307e-09
2.35156e-08
1.78371e-09
2.3964e-08
3.51594e-09
2.44987e-08
3.61576e-09
2.53591e-08
2.25008e-09
2.6725e-08
-4.29537e-10
2.87758e-08
-4.14096e-09
3.16246e-08
-8.66413e-09
3.53824e-08
-1.3795e-08
4.00627e-08
-1.95073e-08
4.57272e-08
-2.57723e-08
5.23365e-08
-3.28489e-08
5.99178e-08
-4.09599e-08
6.84473e-08
-5.05881e-08
7.79557e-08
-6.22191e-08
8.84507e-08
-7.65247e-08
1.00023e-07
-9.41939e-08
1.12703e-07
-1.16187e-07
1.26664e-07
-1.43439e-07
1.41995e-07
-1.77322e-07
1.58929e-07
-2.19268e-07
1.77674e-07
-2.71188e-07
1.9851e-07
-3.3524e-07
2.21796e-07
-4.14296e-07
2.47881e-07
-5.11157e-07
2.77225e-07
-6.30879e-07
3.10362e-07
-7.75899e-07
3.47565e-07
-9.56405e-07
3.90022e-07
-1.17196e-06
4.37128e-07
-1.4422e-06
4.91562e-07
-1.762e-06
5.52101e-07
-2.16191e-06
6.23108e-07
-2.641e-06
-3.24871e-06
7.05459e-07
-5.45417e-10
7.67101e-09
-1.76138e-09
1.50096e-08
-3.04281e-09
1.18837e-08
-3.80832e-09
1.45608e-09
-3.70127e-09
-1.10557e-08
-2.64131e-09
-2.20749e-08
-7.09514e-10
-3.02445e-08
1.92335e-09
-3.52409e-08
5.02391e-09
-3.72854e-08
8.34664e-09
-3.6841e-08
1.16538e-08
-3.43998e-08
1.47524e-08
-3.03618e-08
1.74875e-08
-2.51462e-08
1.97574e-08
-1.91916e-08
2.15199e-08
-1.301e-08
2.27774e-08
-7.19459e-09
2.36282e-08
-2.27414e-09
2.41794e-08
1.21417e-09
2.465e-08
3.04303e-09
2.52172e-08
3.03041e-09
2.6123e-08
1.33614e-09
2.75505e-08
-1.86996e-09
2.96811e-08
-6.27797e-09
3.26304e-08
-1.16284e-08
3.65119e-08
-1.76778e-08
4.13432e-08
-2.43612e-08
4.71885e-08
-3.16224e-08
5.40139e-08
-3.96973e-08
6.18488e-08
-4.88064e-08
7.06732e-08
-5.94312e-08
8.05185e-08
-7.20747e-08
9.13922e-08
-8.74214e-08
1.03381e-07
-1.06189e-07
1.16511e-07
-1.29349e-07
1.30939e-07
-1.57875e-07
1.4674e-07
-1.93154e-07
1.64114e-07
-2.36655e-07
1.83233e-07
-2.90329e-07
2.04324e-07
-3.56344e-07
2.27674e-07
-4.37661e-07
2.53546e-07
-5.37034e-07
2.82261e-07
-6.59611e-07
3.14225e-07
-8.07863e-07
3.49474e-07
-9.91679e-07
3.88909e-07
-1.2114e-06
4.317e-07
-1.48501e-06
4.79712e-07
-1.81001e-06
5.31593e-07
-2.21378e-06
5.89759e-07
-2.69911e-06
-3.31213e-06
6.53275e-07
-5.66001e-10
8.22566e-09
-1.82407e-09
1.6254e-08
-3.13833e-09
1.31807e-08
-3.91258e-09
2.21767e-09
-3.78394e-09
-1.11962e-08
-2.67412e-09
-2.3196e-08
-6.72782e-10
-3.22565e-08
2.04311e-09
-3.79662e-08
5.23455e-09
-4.04874e-08
8.64945e-09
-4.02641e-08
1.20445e-08
-3.78052e-08
1.52218e-08
-3.35477e-08
1.80226e-08
-2.79561e-08
2.03431e-08
-2.15212e-08
2.21404e-08
-1.48123e-08
2.34201e-08
-8.48634e-09
2.42842e-08
-3.13861e-09
2.4847e-08
6.33729e-10
2.53327e-08
2.55487e-09
2.59258e-08
2.41994e-09
2.68715e-08
3.82372e-10
2.8357e-08
-3.36797e-09
3.0565e-08
-8.49229e-09
3.36127e-08
-1.46906e-08
3.76132e-08
-2.16798e-08
4.25858e-08
-2.93555e-08
4.85937e-08
-3.76351e-08
5.56054e-08
-4.67311e-08
6.365e-08
-5.68623e-08
7.2709e-08
-6.85084e-08
8.28142e-08
-8.21897e-08
9.39729e-08
-9.86024e-08
1.06269e-07
-1.1849e-07
1.19725e-07
-1.42836e-07
1.34488e-07
-1.72646e-07
1.50623e-07
-2.09319e-07
1.68307e-07
-2.54351e-07
1.87688e-07
-3.0973e-07
2.08955e-07
-3.77621e-07
2.32336e-07
-4.61057e-07
2.58044e-07
-5.62746e-07
2.86281e-07
-6.87863e-07
3.17362e-07
-8.38943e-07
3.51145e-07
-1.02548e-06
3.88284e-07
-1.24854e-06
4.27812e-07
-1.52455e-06
4.70906e-07
-1.85309e-06
5.16083e-07
-2.25894e-06
5.64173e-07
-2.74713e-06
-3.36058e-06
6.12713e-07
-5.87062e-10
8.80123e-09
-1.88835e-09
1.75413e-08
-3.23618e-09
1.45112e-08
-4.01924e-09
2.98795e-09
-3.86848e-09
-1.13589e-08
-2.70683e-09
-2.4369e-08
-6.33316e-10
-3.43406e-08
2.16829e-09
-4.07772e-08
5.45333e-09
-4.37829e-08
8.96296e-09
-4.37819e-08
1.24481e-08
-4.13006e-08
1.57058e-08
-3.6814e-08
1.85737e-08
-3.08328e-08
2.09453e-08
-2.39017e-08
2.27774e-08
-1.66492e-08
2.40781e-08
-9.79866e-09
2.49535e-08
-4.01444e-09
2.55253e-08
4.5156e-11
2.6023e-08
2.0546e-09
2.6639e-08
1.78726e-09
2.76226e-08
-6.09079e-10
2.91652e-08
-4.92264e-09
3.14511e-08
-1.07843e-08
3.45983e-08
-1.78519e-08
3.87189e-08
-2.58019e-08
4.38322e-08
-3.44896e-08
4.99985e-08
-4.38062e-08
5.71866e-08
-5.39404e-08
6.54236e-08
-6.511e-08
7.46909e-08
-7.77932e-08
8.5019e-08
-9.2527e-08
9.64142e-08
-1.10019e-07
1.08957e-07
-1.31038e-07
1.22669e-07
-1.56577e-07
1.37685e-07
-1.8767e-07
1.54067e-07
-2.25729e-07
1.71974e-07
-2.72269e-07
1.91534e-07
-3.2931e-07
2.12913e-07
-3.99009e-07
2.36291e-07
-4.84449e-07
2.61846e-07
-5.88301e-07
2.89686e-07
-7.15716e-07
3.20056e-07
-8.69309e-07
3.52688e-07
-1.05813e-06
3.88024e-07
-1.28387e-06
4.2502e-07
-1.56155e-06
4.64272e-07
-1.89233e-06
5.04165e-07
-2.2988e-06
5.44283e-07
-2.78718e-06
-3.39712e-06
5.80923e-07
-6.08598e-10
9.3982e-09
-1.95421e-09
1.88729e-08
-3.33636e-09
1.58759e-08
-4.12835e-09
3.76705e-09
-3.95503e-09
-1.15442e-08
-2.73967e-09
-2.55957e-08
-5.91337e-10
-3.64996e-08
2.29873e-09
-4.36768e-08
5.68015e-09
-4.71746e-08
9.28715e-09
-4.73971e-08
1.28647e-08
-4.48881e-08
1.62046e-08
-4.01622e-08
1.91405e-08
-3.37774e-08
2.15637e-08
-2.63334e-08
2.34303e-08
-1.85206e-08
2.47514e-08
-1.11307e-08
2.56369e-08
-4.90038e-09
2.62163e-08
-5.50091e-10
2.67246e-08
1.54368e-09
2.73626e-08
1.13348e-09
2.83836e-08
-1.63769e-09
2.99837e-08
-6.53434e-09
3.2349e-08
-1.31552e-08
3.5598e-08
-2.11144e-08
3.98414e-08
-3.00467e-08
4.50976e-08
-3.97656e-08
5.14232e-08
-5.01364e-08
5.87865e-08
-6.13236e-08
6.72107e-08
-7.35445e-08
7.66763e-08
-8.72755e-08
8.72115e-08
-1.03071e-07
9.88207e-08
-1.21649e-07
1.1158e-07
-1.43801e-07
1.25508e-07
-1.70533e-07
1.40733e-07
-2.02901e-07
1.57308e-07
-2.4233e-07
1.7538e-07
-2.9035e-07
1.95061e-07
-3.49009e-07
2.16497e-07
-4.20453e-07
2.3983e-07
-5.07794e-07
2.65212e-07
-6.13681e-07
2.92676e-07
-7.43192e-07
3.22408e-07
-8.99035e-07
3.54049e-07
-1.08978e-06
3.87852e-07
-1.31767e-06
4.22734e-07
-1.59644e-06
4.58807e-07
-1.92838e-06
4.94308e-07
-2.33427e-06
5.27852e-07
-2.82065e-06
-3.42393e-06
5.54759e-07
-6.30605e-10
1.00171e-08
-2.02163e-09
2.02496e-08
-3.43886e-09
1.72756e-08
-4.23993e-09
4.55516e-09
-4.04364e-09
-1.17524e-08
-2.77287e-09
-2.68778e-08
-5.47099e-10
-3.8736e-08
2.43419e-09
-4.66675e-08
5.91477e-09
-5.06653e-08
9.62185e-09
-5.11122e-08
1.32942e-08
-4.857e-08
1.67179e-08
-4.35941e-08
1.97231e-08
-3.67909e-08
2.21982e-08
-2.88167e-08
2.40991e-08
-2.04261e-08
2.54399e-08
-1.24818e-08
2.63344e-08
-5.7954e-09
2.69205e-08
-1.15098e-09
2.74387e-08
1.02295e-09
2.80983e-08
4.59013e-10
2.9157e-08
-2.70363e-09
3.08156e-08
-8.20399e-09
3.32618e-08
-1.56068e-08
3.66151e-08
-2.44805e-08
4.09838e-08
-3.44168e-08
4.63858e-08
-4.51863e-08
5.28728e-08
-5.66279e-08
6.04119e-08
-6.88816e-08
6.90225e-08
-8.21645e-08
7.86828e-08
-9.69518e-08
8.9418e-08
-1.13813e-07
1.0123e-07
-1.3348e-07
1.14189e-07
-1.56764e-07
1.28312e-07
-1.84682e-07
1.43716e-07
-2.18311e-07
1.60449e-07
-2.59087e-07
1.78645e-07
-3.08554e-07
1.98399e-07
-3.6878e-07
2.19845e-07
-4.41903e-07
2.43086e-07
-5.31045e-07
2.68251e-07
-6.38843e-07
2.95314e-07
-7.70264e-07
3.24401e-07
-9.28113e-07
3.55088e-07
-1.12048e-06
3.87453e-07
-1.35002e-06
4.20383e-07
-1.62936e-06
4.53589e-07
-1.96155e-06
4.85135e-07
-2.36578e-06
5.12886e-07
-2.84833e-06
-3.44236e-06
5.31416e-07
-6.5308e-10
1.06583e-08
-2.09058e-09
2.16727e-08
-3.54369e-09
1.87112e-08
-4.35405e-09
5.35253e-09
-4.13423e-09
-1.19842e-08
-2.80668e-09
-2.82167e-08
-5.0091e-10
-4.10524e-08
2.57441e-09
-4.97521e-08
6.15693e-09
-5.42577e-08
9.96679e-09
-5.493e-08
1.37363e-08
-5.23487e-08
1.72457e-08
-4.71115e-08
2.03212e-08
-3.98744e-08
2.28488e-08
-3.1352e-08
2.47837e-08
-2.23654e-08
2.61436e-08
-1.38511e-08
2.70463e-08
-6.69847e-09
2.76381e-08
-1.75652e-09
2.81656e-08
4.93185e-10
2.88466e-08
-2.35844e-10
2.99434e-08
-3.80717e-09
3.16615e-08
-9.93247e-09
3.41904e-08
-1.81405e-08
3.76499e-08
-2.79522e-08
4.21464e-08
-3.89144e-08
4.76963e-08
-5.07537e-08
5.43464e-08
-6.32821e-08
6.20624e-08
-7.66152e-08
7.08589e-08
-9.09694e-08
8.07115e-08
-1.0682e-07
9.16422e-08
-1.24751e-07
1.03649e-07
-1.45505e-07
1.16797e-07
-1.69915e-07
1.31098e-07
-1.99007e-07
1.46659e-07
-2.33877e-07
1.63523e-07
-2.75971e-07
1.81808e-07
-3.26846e-07
2.01594e-07
-3.88581e-07
2.23e-07
-4.63311e-07
2.46094e-07
-5.54149e-07
2.70984e-07
-6.63727e-07
2.97588e-07
-7.96874e-07
3.25971e-07
-9.56484e-07
3.55655e-07
-1.15017e-06
3.86554e-07
-1.3809e-06
4.17521e-07
-1.66032e-06
4.47924e-07
-1.99192e-06
4.75633e-07
-2.39345e-06
4.97935e-07
-2.87055e-06
-3.45317e-06
5.08843e-07
-6.7602e-10
1.13224e-08
-2.16106e-09
2.31433e-08
-3.65085e-09
2.01835e-08
-4.47077e-09
6.15943e-09
-4.22709e-09
-1.22397e-08
-2.8414e-09
-2.96136e-08
-4.53079e-10
-4.34511e-08
2.71907e-09
-5.29335e-08
6.4063e-09
-5.79546e-08
1.03217e-08
-5.88531e-08
1.41907e-08
-5.62265e-08
1.77877e-08
-5.07161e-08
2.09348e-08
-4.3029e-08
2.35154e-08
-3.39396e-08
2.54842e-08
-2.43383e-08
2.68626e-08
-1.52379e-08
2.77726e-08
-7.60869e-09
2.83694e-08
-2.36582e-09
2.89054e-08
-4.49012e-11
2.96076e-08
-9.50821e-10
3.07429e-08
-4.94854e-09
3.25213e-08
-1.17206e-08
3.51342e-08
-2.07576e-08
3.87016e-08
-3.1531e-08
4.33277e-08
-4.35412e-08
4.90272e-08
-5.64694e-08
5.58416e-08
-7.01002e-08
6.37346e-08
-8.45244e-08
7.27159e-08
-9.99582e-08
8.27583e-08
-1.16876e-07
9.38794e-08
-1.35877e-07
1.06073e-07
-1.57717e-07
1.19398e-07
-1.83243e-07
1.33863e-07
-2.13492e-07
1.49561e-07
-2.4958e-07