/*--------------------------------*- C++ -*----------------------------------*\
  =========                 |
  \\      /  F ield         | OpenFOAM: The Open Source CFD Toolbox
   \\    /   O peration     | Website:  https://openfoam.org
    \\  /    A nd           | Version:  7
     \\/     M anipulation  |
\*---------------------------------------------------------------------------*/
FoamFile
{
    version     2.0;
    format      ascii;
    class       volScalarField;
    location    "0.2";
    object      nut;
}
// * * * * * * * * * * * * * * * * * * * * * * * * * * * * * * * * * * * * * //

dimensions      [0 2 -1 0 0 0 0];

internalField   nonuniform List<scalar> 
70000
(
9.96311e-12
6.88337e-14
2.55492e-16
8.54559e-17
4.85687e-17
7.98046e-17
2.82427e-17
1.33196e-17
9.09839e-18
6.69415e-18
4.95181e-18
3.73193e-18
2.88205e-18
2.27555e-18
1.83111e-18
1.49814e-18
1.24403e-18
1.04702e-18
8.92202e-19
7.69132e-19
6.70326e-19
5.90372e-19
5.25209e-19
4.71949e-19
4.28152e-19
3.9238e-19
3.62843e-19
3.39278e-19
3.19704e-19
3.05383e-19
2.93016e-19
2.86551e-19
2.79428e-19
2.8054e-19
2.7732e-19
2.85778e-19
2.87258e-19
2.97926e-19
3.16844e-19
2.97964e-19
4.04842e-19
2.23854e-19
7.66686e-19
3.14453e-20
3.22603e-18
3.89343e-19
3.27637e-17
4.96818e-17
5.09915e-15
1.99681e-13
1.04283e-10
5.98598e-12
6.44038e-14
2.14377e-14
2.88675e-16
1.69471e-17
2.52721e-17
2.12451e-17
1.23697e-17
7.38531e-18
4.86027e-18
3.40687e-18
2.48321e-18
1.8645e-18
1.43563e-18
1.12977e-18
9.06149e-19
7.39026e-19
6.1171e-19
5.13079e-19
4.35576e-19
3.73885e-19
3.24302e-19
2.83989e-19
2.51118e-19
2.23895e-19
2.01645e-19
1.82776e-19
1.67729e-19
1.54297e-19
1.44577e-19
1.34583e-19
1.29319e-19
1.2137e-19
1.20095e-19
1.13626e-19
1.14389e-19
1.12853e-19
1.05023e-19
1.30786e-19
7.15043e-20
2.38516e-19
6.9881e-21
1.13447e-18
2.53813e-19
1.50963e-17
3.0571e-17
3.09283e-16
2.3519e-14
1.515e-14
3.1924e-10
3.39525e-12
1.90506e-13
1.98581e-14
7.58957e-16
5.70726e-17
7.03451e-18
4.03638e-18
2.03438e-18
9.9726e-19
5.46402e-19
3.30596e-19
2.12383e-19
1.41991e-19
9.79938e-20
6.95005e-20
5.0476e-20
3.74151e-20
2.82243e-20
2.16148e-20
1.67769e-20
1.31814e-20
1.04868e-20
8.44517e-21
6.91536e-21
5.75491e-21
4.93345e-21
4.32919e-21
4.01673e-21
3.82559e-21
3.99444e-21
4.20393e-21
5.01174e-21
5.75302e-21
7.55409e-21
9.11506e-21
1.22615e-20
1.51985e-20
1.89899e-20
2.49632e-20
2.62125e-20
4.82323e-20
7.40553e-20
3.7622e-19
1.9218e-18
1.17972e-17
6.82434e-17
3.85549e-16
2.71008e-14
5.12184e-14
6.15438e-09
1.92598e-11
7.81943e-13
6.08038e-14
5.42463e-15
9.11612e-16
1.06643e-16
2.79652e-17
1.14839e-17
4.97255e-18
2.25082e-18
1.11203e-18
5.94761e-19
3.358e-19
1.96581e-19
1.1801e-19
7.20114e-20
4.42702e-20
2.71439e-20
1.63989e-20
9.61065e-21
5.34527e-21
2.72798e-21
1.20504e-21
4.08995e-22
7.74141e-23
1.5079e-24
1.05196e-23
1.63139e-22
7.02924e-22
1.94326e-21
4.29487e-21
8.32067e-21
1.46325e-20
2.43698e-20
3.776e-20
5.787e-20
8.05784e-20
1.17804e-19
1.42348e-19
2.1105e-19
2.03219e-19
4.1925e-19
4.71294e-19
2.90206e-18
1.02061e-17
6.80447e-17
2.94616e-16
2.11276e-14
7.80055e-14
2.32446e-09
2.23182e-10
4.44104e-12
3.20072e-13
2.2742e-14
4.32187e-15
6.98667e-16
1.93405e-16
7.78481e-17
3.38789e-17
1.54389e-17
7.59624e-18
4.02529e-18
2.25394e-18
1.31294e-18
7.87343e-19
4.82034e-19
2.98838e-19
1.85954e-19
1.14969e-19
6.97554e-20
4.08602e-20
2.25738e-20
1.13375e-20
4.84755e-21
1.53477e-21
2.39346e-22
1.34774e-24
1.06635e-22
1.11112e-21
4.28163e-21
1.12047e-20
2.41964e-20
4.5516e-20
8.01713e-20
1.28684e-19
2.04706e-19
2.92353e-19
4.38467e-19
5.48971e-19
8.0257e-19
8.30144e-19
1.31659e-18
1.30664e-18
3.80393e-18
1.14803e-17
5.11361e-17
1.9168e-16
1.59423e-14
6.64247e-14
3.01545e-09
5.28864e-09
4.34385e-11
1.93403e-12
1.06486e-13
1.76195e-14
3.13646e-15
9.02485e-16
3.62455e-16
1.5904e-16
7.3263e-17
3.62056e-17
1.91697e-17
1.07062e-17
6.22188e-18
3.72716e-18
2.28406e-18
1.42139e-18
8.91253e-19
5.58172e-19
3.45549e-19
2.08694e-19
1.20781e-19
6.5229e-20
3.14737e-20
1.25001e-20
3.38109e-21
3.22022e-22
4.38606e-24
9.77739e-22
6.54169e-21
2.14563e-20
5.2611e-20
1.06778e-19
1.98788e-19
3.31211e-19
5.44024e-19
7.96032e-19
1.22009e-18
1.56521e-18
2.30661e-18
2.47578e-18
3.6334e-18
3.45934e-18
6.01985e-18
1.41831e-17
3.36636e-17
1.11543e-16
1.20495e-14
5.34614e-14
1.07682e-09
4.76266e-09
3.70841e-09
1.83792e-11
6.60276e-13
8.95178e-14
1.46366e-14
3.93545e-15
1.499e-15
6.41736e-16
2.92639e-16
1.43649e-16
7.55955e-17
4.19939e-17
2.42983e-17
1.45096e-17
8.87681e-18
5.52571e-18
3.475e-18
2.19062e-18
1.3719e-18
8.44123e-19
5.02937e-19
2.84239e-19
1.47595e-19
6.66218e-20
2.33673e-20
4.7412e-21
1.25012e-22
3.50996e-22
7.32186e-21
3.32617e-20
9.51137e-20
2.10832e-19
4.15384e-19
7.20044e-19
1.21713e-18
1.8234e-18
2.84393e-18
3.72185e-18
5.53301e-18
6.09558e-18
8.68938e-18
8.22025e-18
1.05955e-17
1.88889e-17
1.91666e-17
5.54197e-17
9.02529e-15
4.24118e-14
2.42741e-09
3.86742e-09
8.19978e-10
2.39434e-09
8.44603e-12
6.94163e-13
8.69679e-14
1.95682e-14
6.62514e-15
2.63086e-15
1.14122e-15
5.40539e-16
2.77034e-16
1.50871e-16
8.59925e-17
5.0765e-17
3.07933e-17
1.9056e-17
1.19462e-17
7.53081e-18
4.73472e-18
2.9399e-18
1.78059e-18
1.03415e-18
5.61622e-19
2.73622e-19
1.10726e-19
3.12651e-20
3.43726e-21
2.91847e-24
6.12568e-21
4.51052e-20
1.55334e-19
3.79436e-19
7.91917e-19
1.42746e-18
2.47545e-18
3.79032e-18
5.98596e-18
7.9789e-18
1.18882e-17
1.34435e-17
1.86759e-17
1.80524e-17
1.91876e-17
2.72881e-17
8.61272e-18
2.18861e-17
6.69303e-15
3.21977e-14
3.36878e-09
4.36808e-09
5.88916e-10
2.98313e-10
5.44982e-10
1.79275e-11
9.1535e-13
1.37009e-13
3.68905e-14
1.26635e-14
4.95784e-15
2.17604e-15
1.05266e-15
5.48388e-16
3.01946e-16
1.73461e-16
1.02971e-16
6.26467e-17
3.8763e-17
2.42081e-17
1.51364e-17
9.38852e-18
5.71211e-18
3.35836e-18
1.86781e-18
9.50136e-19
4.16723e-19
1.3946e-19
2.54188e-20
3.52708e-22
3.86437e-21
5.82853e-20
2.47617e-19
6.6705e-19
1.46895e-18
2.74153e-18
4.85254e-18
7.56579e-18
1.20322e-17
1.62902e-17
2.41725e-17
2.80065e-17
3.78483e-17
3.76768e-17
3.52942e-17
4.2433e-17
2.67864e-18
6.15055e-18
4.94798e-15
2.34972e-14
3.41014e-09
4.60512e-09
6.70099e-10
1.92206e-10
4.62853e-11
6.58721e-11
2.81914e-10
2.6224e-12
3.59723e-13
8.85462e-14
2.8164e-14
1.06924e-14
4.64869e-15
2.2326e-15
1.15348e-15
6.29812e-16
3.58796e-16
2.11065e-16
1.27044e-16
7.75782e-17
4.76493e-17
2.91651e-17
1.7597e-17
1.03212e-17
5.77292e-18
2.98981e-18
1.36443e-18
4.9783e-19
1.14041e-19
6.01982e-21
1.87132e-21
7.94635e-20
4.15685e-19
1.21942e-18
2.80152e-18
5.36504e-18
9.61657e-18
1.5174e-17
2.4149e-17
3.30528e-17
4.8577e-17
5.73887e-17
7.53716e-17
7.69991e-17
6.66063e-17
7.07402e-17
6.79456e-19
9.55032e-19
3.66032e-15
1.6826e-14
3.21091e-09
4.38854e-09
7.70828e-10
2.00625e-10
3.58279e-11
2.11933e-11
1.29178e-11
2.01829e-11
1.25842e-10
1.98886e-12
3.12113e-13
8.25845e-14
2.86208e-14
1.17377e-14
5.39348e-15
2.68925e-15
1.42495e-15
7.90151e-16
4.52888e-16
2.65447e-16
1.57515e-16
9.36698e-17
5.51964e-17
3.17862e-17
1.75619e-17
9.05612e-18
4.16663e-18
1.56984e-18
3.95893e-19
3.2186e-20
8.60389e-22
1.29722e-19
7.93484e-19
2.45829e-18
5.77564e-18
1.11903e-17
2.00923e-17
3.18098e-17
5.02848e-17
6.91339e-17
1.0008e-16
1.19782e-16
1.52722e-16
1.58969e-16
1.30961e-16
1.26875e-16
1.34402e-18
5.93984e-20
2.71447e-15
1.20638e-14
3.01648e-09
3.96982e-09
8.43107e-10
2.11301e-10
3.80092e-11
1.95026e-11
8.23909e-12
4.33253e-12
3.92142e-12
6.42341e-12
8.95552e-11
3.93597e-12
4.54133e-13
1.14562e-13
3.94977e-14
1.62158e-14
7.45305e-15
3.70368e-15
1.94466e-15
1.06058e-15
5.92431e-16
3.34615e-16
1.88628e-16
1.04548e-16
5.58981e-17
2.80463e-17
1.26349e-17
4.70505e-18
1.19696e-18
1.0705e-19
9.27097e-22
2.87945e-19
1.84586e-18
5.76115e-18
1.34688e-17
2.59212e-17
4.59929e-17
7.22824e-17
1.12509e-16
1.54179e-16
2.18509e-16
2.63002e-16
3.24957e-16
3.41848e-16
2.73354e-16
2.47046e-16
8.62431e-18
3.42885e-19
2.0183e-15
8.85117e-15
2.84507e-09
3.50952e-09
9.04423e-10
2.08559e-10
4.1413e-11
2.09434e-11
8.61437e-12
3.66488e-12
2.27669e-12
1.74687e-12
1.56894e-12
1.84497e-12
3.92554e-12
6.79912e-11
1.78305e-12
2.71991e-13
7.78264e-14
2.89444e-14
1.24406e-14
5.84512e-15
2.90447e-15
1.49103e-15
7.7552e-16
4.00896e-16
2.01463e-16
9.54991e-17
4.07445e-17
1.43405e-17
3.40092e-18
2.61545e-19
6.29528e-21
9.43257e-19
5.52295e-18
1.64362e-17
3.70571e-17
6.93695e-17
1.19757e-16
1.84554e-16
2.8003e-16
3.79108e-16
5.22409e-16
6.27186e-16
7.49042e-16
7.89456e-16
6.19714e-16
5.30041e-16
4.22078e-17
3.02279e-18
1.49536e-15
6.7677e-15
2.67505e-09
3.05367e-09
9.73071e-10
1.97259e-10
4.44843e-11
2.2306e-11
9.78568e-12
3.93301e-12
2.20894e-12
1.45882e-12
1.01855e-12
7.67113e-13
6.48986e-13
6.37242e-13
7.72871e-13
1.38652e-12
8.6511e-12
3.21302e-12
3.1876e-13
7.97729e-14
2.74542e-14
1.09933e-14
4.75594e-15
2.12437e-15
9.44152e-16
4.00975e-16
1.53749e-16
4.80481e-17
9.57749e-18
4.43098e-19
1.21428e-19
4.71174e-18
2.23343e-17
6.00134e-17
1.26223e-16
2.24551e-16
3.70526e-16
5.51956e-16
8.0681e-16
1.06774e-15
1.419e-15
1.68319e-15
1.93631e-15
2.02494e-15
1.57035e-15
1.28177e-15
1.76479e-16
1.63872e-17
1.07875e-15
5.42992e-15
2.49657e-09
2.61846e-09
1.05254e-09
1.83025e-10
4.76989e-11
2.31112e-11
1.10874e-11
4.39582e-12
2.3923e-12
1.52548e-12
1.00115e-12
6.77684e-13
4.86828e-13
3.73524e-13
3.06036e-13
2.69391e-13
2.58837e-13
2.80163e-13
3.65802e-13
6.92578e-13
4.26468e-12
3.18952e-13
1.12414e-13
2.80421e-14
8.49757e-15
2.70875e-15
8.10087e-16
1.94349e-16
2.56461e-17
1.75544e-19
3.55943e-18
3.92235e-17
1.35402e-16
3.08521e-16
5.79956e-16
9.49986e-16
1.4614e-15
2.0621e-15
2.85544e-15
3.63927e-15
4.6113e-15
5.33565e-15
5.8788e-15
6.02812e-15
4.62851e-15
3.61979e-15
7.35257e-16
8.74442e-17
7.12961e-16
4.49825e-15
2.31022e-09
2.2179e-09
1.13751e-09
1.68471e-10
5.15157e-11
2.34889e-11
1.24245e-11
4.91496e-12
2.63264e-12
1.67341e-12
1.08906e-12
7.17132e-13
4.91106e-13
3.5136e-13
2.60939e-13
2.00368e-13
1.58998e-13
1.30523e-13
1.11118e-13
9.86097e-14
9.21579e-14
9.25677e-14
1.04296e-13
1.4584e-13
3.41254e-13
5.30674e-12
2.23768e-13
2.24959e-20
7.39436e-19
6.84706e-17
3.64018e-16
9.53132e-16
1.85672e-15
3.05751e-15
4.61163e-15
6.43917e-15
8.71254e-15
1.11274e-14
1.40791e-14
1.67617e-14
1.97825e-14
2.18204e-14
2.27222e-14
2.24323e-14
1.69794e-14
1.27159e-14
3.45935e-15
5.55509e-16
3.87471e-16
3.60863e-15
2.11829e-09
1.85824e-09
1.22065e-09
1.54633e-10
5.59745e-11
2.35644e-11
1.38189e-11
5.48791e-12
2.8937e-12
1.8443e-12
1.2088e-12
7.93749e-13
5.36906e-13
3.76347e-13
2.71136e-13
1.99423e-13
1.49228e-13
1.13317e-13
8.70823e-14
6.75325e-14
5.26983e-14
4.1261e-14
3.23232e-14
2.52649e-14
1.96611e-14
1.52327e-14
1.18369e-14
9.52855e-15
8.8996e-15
1.41082e-14
1.07501e-13
2.5331e-11
8.6309e-12
7.49848e-13
2.95086e-13
1.95308e-13
1.63636e-13
1.50538e-13
1.48597e-13
1.47149e-13
1.48647e-13
1.45843e-13
1.36921e-13
1.24509e-13
9.06607e-14
6.41495e-14
2.1807e-14
4.91221e-15
3.80785e-16
2.36689e-15
1.92244e-09
1.53992e-09
1.2954e-09
1.42274e-10
6.08296e-11
2.34046e-11
1.52699e-11
6.13643e-12
3.17791e-12
2.02846e-12
1.34356e-12
8.85999e-13
5.983e-13
4.17457e-13
2.98373e-13
2.16634e-13
1.59002e-13
1.17521e-13
8.71079e-14
6.44447e-14
4.734e-14
3.43179e-14
2.43636e-14
1.67648e-14
1.10148e-14
6.74938e-15
3.70473e-15
1.68657e-15
5.31251e-16
6.24688e-17
2.41202e-19
1.93111e-16
1.59891e-15
6.20255e-15
1.71455e-14
3.36835e-14
2.78792e-14
5.10107e-14
1.00682e-10
5.13333e-11
1.35029e-11
5.94782e-12
3.37498e-12
2.16108e-12
1.28471e-12
7.74078e-13
2.98613e-13
9.49172e-14
1.56555e-14
5.27892e-15
1.72488e-09
1.26279e-09
1.35605e-09
1.3228e-10
6.56779e-11
2.30778e-11
1.67402e-11
6.87852e-12
3.49268e-12
2.22738e-12
1.49163e-12
9.89881e-13
6.69087e-13
4.66688e-13
3.33203e-13
2.41214e-13
1.76031e-13
1.28912e-13
9.42688e-14
6.84479e-14
4.90343e-14
3.43963e-14
2.34014e-14
1.52395e-14
9.3148e-15
5.17604e-15
2.46769e-15
8.93821e-16
1.74789e-16
2.33841e-18
3.42541e-17
5.50937e-16
2.54549e-15
7.60586e-15
1.84871e-14
3.92322e-14
7.73392e-14
1.42272e-13
2.51831e-13
4.24831e-13
6.78046e-13
1.01964e-12
1.22498e-12
9.73388e-13
8.65113e-15
1.81849e-11
1.7478e-10
8.82946e-11
2.53421e-11
1.04413e-11
1.5284e-09
1.02655e-09
1.39775e-09
1.25585e-10
6.9998e-11
2.26823e-11
1.81676e-11
7.72745e-12
3.84411e-12
2.44324e-12
1.65409e-12
1.10601e-12
7.48816e-13
5.22531e-13
3.7329e-13
2.70208e-13
1.96892e-13
1.43706e-13
1.04494e-13
7.52215e-14
5.32243e-14
3.67006e-14
2.43929e-14
1.53903e-14
9.0061e-15
4.70242e-15
2.03585e-15
6.19209e-16
7.66797e-17
7.64291e-21
1.16258e-16
9.5348e-16
3.49349e-15
9.11359e-15
1.99343e-14
3.86417e-14
6.9632e-14
1.17422e-13
1.89374e-13
2.91357e-13
4.26155e-13
5.98689e-13
7.61006e-13
9.14736e-13
8.65458e-13
6.59973e-13
2.524e-13
7.76523e-15
6.22095e-14
2.10273e-12
1.33594e-09
8.30009e-10
1.41645e-09
1.23069e-10
7.3192e-11
2.23449e-11
1.94754e-11
8.69339e-12
4.23781e-12
2.67764e-12
1.83173e-12
1.2356e-12
8.38405e-13
5.85333e-13
4.18504e-13
3.03104e-13
2.20764e-13
1.60846e-13
1.16561e-13
8.34496e-14
5.85613e-14
3.99027e-14
2.60779e-14
1.60657e-14
9.08286e-15
4.50061e-15
1.78463e-15
4.53526e-16
3.043e-17
4.04694e-18
2.77621e-16
1.60134e-15
5.08474e-15
1.21945e-14
2.50481e-14
4.61566e-14
7.92797e-14
1.27981e-13
1.97123e-13
2.90075e-13
4.04937e-13
5.41923e-13
6.61831e-13
7.60678e-13
7.26047e-13
5.85328e-13
3.18993e-13
8.19778e-14
3.43342e-15
9.79241e-15
1.15046e-09
6.70866e-10
1.40929e-09
1.25507e-10
7.46985e-11
2.22047e-11
2.05809e-11
9.78206e-12
4.67993e-12
2.93199e-12
2.02474e-12
1.37965e-12
9.389e-13
6.5581e-13
4.69273e-13
3.40111e-13
2.47664e-13
1.80181e-13
1.30186e-13
9.27517e-14
6.46095e-14
4.35508e-14
2.80231e-14
1.68803e-14
9.22883e-15
4.33609e-15
1.56317e-15
3.19249e-16
7.37186e-18
2.97353e-17
5.83295e-16
2.65978e-15
7.60478e-15
1.71504e-14
3.37027e-14
6.00549e-14
1.00094e-13
1.57502e-13
2.36433e-13
3.39825e-13
4.63508e-13
6.05682e-13
7.27771e-13
8.19736e-13
7.91573e-13
6.54803e-13
4.09429e-13
1.61097e-13
3.37688e-14
3.85469e-16
9.74859e-10
5.45783e-10
1.37486e-09
1.33558e-10
7.41342e-11
2.23892e-11
2.14077e-11
1.09919e-11
5.17749e-12
3.20791e-12
2.2329e-12
1.53877e-12
1.05126e-12
7.34683e-13
5.26098e-13
3.81582e-13
2.77819e-13
2.01821e-13
1.45379e-13
1.03057e-13
7.1242e-14
4.74864e-14
3.00629e-14
1.76826e-14
9.32296e-15
4.1268e-15
1.32838e-15
2.0198e-16
2.33705e-19
1.1065e-16
1.13778e-15
4.35626e-15
1.14528e-14
2.45754e-14
4.66325e-14
8.10011e-14
1.3211e-13
2.04295e-13
3.01706e-13
4.27506e-13
5.75877e-13
7.4298e-13
8.88146e-13
9.93178e-13
9.75647e-13
8.31356e-13
5.73256e-13
2.8626e-13
1.01807e-13
1.63808e-14
8.11854e-10
4.50601e-10
1.31352e-09
1.47728e-10
7.1365e-11
2.29923e-11
2.18977e-11
1.23099e-11
5.7384e-12
3.50723e-12
2.45566e-12
1.71317e-12
1.17628e-12
8.22618e-13
5.89432e-13
4.2785e-13
3.11471e-13
2.25919e-13
1.62209e-13
1.14371e-13
7.84156e-14
5.16376e-14
3.21158e-14
1.83983e-14
9.31026e-15
3.84315e-15
1.07367e-15
1.05616e-16
7.8722e-19
3.07863e-16
2.10585e-15
7.02734e-15
1.72192e-14
3.54062e-14
6.52077e-14
1.10864e-13
1.77687e-13
2.71078e-13
3.95661e-13
5.55146e-13
7.42432e-13
9.51038e-13
1.13708e-12
1.27167e-12
1.27409e-12
1.12263e-12
8.38979e-13
4.96557e-13
2.37442e-13
8.06187e-14
6.63745e-10
3.80655e-10
1.22752e-09
1.68244e-10
6.65426e-11
2.40587e-11
2.20228e-11
1.37075e-11
6.37119e-12
3.83201e-12
2.69218e-12
1.90253e-12
1.31458e-12
9.20189e-13
6.59659e-13
4.79185e-13
3.48816e-13
2.52596e-13
1.8073e-13
1.26689e-13
8.60869e-14
5.59402e-14
3.41142e-14
1.89715e-14
9.15675e-15
3.47581e-15
8.07629e-16
3.8482e-17
1.99276e-17
7.27355e-16
3.74486e-15
1.1176e-14
2.57751e-14
5.10366e-14
9.15323e-14
1.52676e-13
2.41025e-13
3.63457e-13
5.25545e-13
7.31776e-13
9.74157e-13
1.24279e-12
1.49006e-12
1.67391e-12
1.71189e-12
1.56264e-12
1.25206e-12
8.46002e-13
4.95216e-13
2.45467e-13
5.32252e-10
3.31102e-10
1.12087e-09
1.94831e-10
6.01334e-11
2.55608e-11
2.17959e-11
1.51367e-11
7.08423e-12
4.18444e-12
2.9414e-12
2.10588e-12
1.4664e-12
1.02783e-12
7.37054e-13
5.35765e-13
3.89976e-13
2.81919e-13
2.00949e-13
1.3997e-13
9.41844e-14
6.03104e-14
3.59807e-14
1.93459e-14
8.83542e-15
3.02621e-15
5.47303e-16
5.63959e-18
1.09629e-16
1.54685e-15
6.45347e-15
1.75525e-14
3.83969e-14
7.34964e-14
1.28681e-13
2.10917e-13
3.28459e-13
4.90141e-13
7.03057e-13
9.72738e-13
1.29079e-12
1.64316e-12
1.97814e-12
2.23829e-12
2.33654e-12
2.20986e-12
1.88324e-12
1.41676e-12
9.65444e-13
6.06755e-13
4.18385e-10
2.97159e-10
9.99152e-10
2.2643e-10
5.28974e-11
2.73693e-11
2.12748e-11
1.65293e-11
7.88427e-12
4.56678e-12
3.20214e-12
2.3215e-12
1.63154e-12
1.14577e-12
8.21744e-13
5.97638e-13
4.34972e-13
3.13873e-13
2.22809e-13
1.54122e-13
1.02595e-13
6.46351e-14
3.7621e-14
1.94604e-14
8.32473e-15
2.5059e-15
3.15455e-16
1.04903e-21
3.71643e-16
3.05722e-15
1.08439e-14
2.7271e-14
5.69426e-14
1.05707e-13
1.81054e-13
2.91998e-13
4.49087e-13
6.63733e-13
9.45323e-13
1.30084e-12
1.72218e-12
2.19053e-12
2.64983e-12
3.02536e-12
3.22252e-12
3.15482e-12
2.84094e-12
2.33588e-12
1.79462e-12
1.33124e-12
3.22357e-10
2.74289e-10
8.69717e-10
2.60851e-10
4.5819e-11
2.92433e-11
2.05568e-11
1.78017e-11
8.77431e-12
4.98121e-12
3.47317e-12
2.54688e-12
1.80911e-12
1.27392e-12
9.13654e-13
6.6468e-13
4.83683e-13
3.48337e-13
2.46167e-13
1.68983e-13
1.11154e-13
6.87671e-14
3.89236e-14
1.92522e-14
7.61198e-15
1.93849e-15
1.37168e-16
1.22337e-17
9.90562e-16
5.72555e-15
1.78482e-14
4.1977e-14
8.41041e-14
1.51847e-13
2.54899e-13
4.04978e-13
6.1574e-13
9.02033e-13
1.27661e-12
1.74861e-12
2.31121e-12
2.94063e-12
3.57633e-12
4.12484e-12
4.48122e-12
4.5338e-12
4.29024e-12
3.80044e-12
3.21776e-12
2.69916e-12
2.43505e-10
2.58534e-10
7.41288e-10
2.94645e-10
3.99288e-11
3.0867e-11
1.97641e-11
1.88622e-11
9.75056e-12
5.42992e-12
3.75329e-12
2.7788e-12
1.99745e-12
1.41177e-12
1.01245e-12
7.36551e-13
5.3581e-13
3.85049e-13
2.70778e-13
1.84314e-13
1.19642e-13
7.25233e-14
3.97616e-14
1.8661e-14
6.69893e-15
1.36156e-15
3.23637e-17
1.16287e-16
2.28647e-15
1.02899e-14
2.88743e-14
6.40893e-14
1.23768e-13
2.17878e-13
3.59045e-13
5.62592e-13
8.46404e-13
1.22997e-12
1.73095e-12
2.36181e-12
3.11857e-12
3.97289e-12
4.86012e-12
5.66717e-12
6.27664e-12
6.55009e-12
6.48169e-12
6.11573e-12
5.60894e-12
5.17105e-12
1.80435e-10
2.46649e-10
6.21166e-10
3.23718e-10
3.60106e-11
3.19e-11
1.90228e-11
1.96234e-11
1.07979e-11
5.91477e-12
4.04123e-12
3.01336e-12
2.19389e-12
1.55827e-12
1.11747e-12
8.12646e-13
5.90835e-13
4.23582e-13
2.96266e-13
1.99781e-13
1.27773e-13
7.56851e-14
3.99988e-14
1.76376e-14
5.60837e-15
8.26358e-16
6.11375e-19
4.89774e-16
4.79627e-15
1.79005e-14
4.60331e-14
9.71481e-14
1.81532e-13
3.12282e-13
5.05964e-13
7.82729e-13
1.16626e-12
1.68242e-12
2.35596e-12
3.2047e-12
4.22987e-12
5.40007e-12
6.64798e-12
7.84115e-12
8.84939e-12
9.50647e-12
9.79505e-12
9.75405e-12
9.55984e-12
9.49199e-12
1.31322e-10
2.35839e-10
5.13137e-10
3.44453e-10
3.44657e-11
3.2033e-11
1.84372e-11
2.00202e-11
1.1886e-11
6.43681e-12
4.33552e-12
3.24624e-12
2.39472e-12
1.71164e-12
1.22764e-12
8.92055e-13
6.47981e-13
4.63302e-13
3.2211e-13
2.14946e-13
1.35195e-13
7.80032e-14
3.94989e-14
1.61545e-14
4.39083e-15
3.92545e-16
6.98575e-18
1.46862e-15
9.39751e-15
3.03286e-14
7.2468e-14
1.46313e-13
2.65432e-13
4.4712e-13
7.13253e-13
1.09051e-12
1.61056e-12
2.30817e-12
3.21838e-12
4.36753e-12
5.76601e-12
7.38248e-12
9.15054e-12
1.09206e-11
1.25529e-11
1.38545e-11
1.48063e-11
1.5445e-11
1.60017e-11
1.68529e-11
9.40675e-11
2.23891e-10
4.18732e-10
3.54497e-10
3.54248e-11
3.11001e-11
1.80641e-11
2.00266e-11
1.29673e-11
6.99549e-12
4.63437e-12
3.47293e-12
2.59519e-12
1.86928e-12
1.34143e-12
9.73529e-13
7.06191e-13
5.03358e-13
3.47628e-13
2.29266e-13
1.41499e-13
7.92089e-14
3.81397e-14
1.42193e-14
3.12926e-15
1.13679e-16
1.36602e-16
3.65069e-15
1.74945e-14
5.02716e-14
1.12829e-13
2.19073e-13
3.86985e-13
6.39512e-13
1.00574e-12
1.52126e-12
2.2288e-12
3.17569e-12
4.41197e-12
5.97757e-12
7.8983e-12
1.01488e-11
1.26711e-11
1.53039e-11
1.79084e-11
2.02693e-11
2.23906e-11
2.43149e-11
2.63935e-11
2.91372e-11
6.64736e-11
2.0953e-10
3.38526e-10
3.52982e-10
3.88662e-11
2.91726e-11
1.78986e-11
1.96621e-11
1.39792e-11
7.58747e-12
4.93563e-12
3.68904e-12
2.78966e-12
2.02771e-12
1.45677e-12
1.05547e-12
7.64119e-13
5.42667e-13
3.71975e-13
2.42094e-13
1.46225e-13
7.90316e-14
3.58331e-14
1.18885e-14
1.93843e-15
6.77963e-18
7.12659e-16
8.05557e-15
3.12949e-14
8.17983e-14
1.73956e-13
3.26262e-13
5.62659e-13
9.13751e-13
1.41846e-12
2.12464e-12
3.09046e-12
4.3812e-12
6.06884e-12
8.21483e-12
1.08705e-11
1.4027e-11
1.76482e-11
2.15738e-11
2.56868e-11
2.9764e-11
3.38791e-11
3.81008e-11
4.30103e-11
4.92908e-11
4.64657e-11
1.92381e-10
2.72247e-10
3.40425e-10
4.45881e-11
2.65371e-11
1.78758e-11
1.89879e-11
1.48485e-11
8.2047e-12
5.23658e-12
3.89042e-12
2.97195e-12
2.18249e-12
1.57102e-12
1.13593e-12
8.20142e-13
5.79924e-13
3.94154e-13
2.52701e-13
1.48887e-13
7.72255e-14
3.25483e-14
9.28151e-15
9.5342e-16
4.0909e-18
2.36759e-15
1.63666e-14
5.42171e-14
1.30993e-13
2.65856e-13
4.83502e-13
8.15963e-13
1.30428e-12
2.0009e-12
2.97064e-12
4.29346e-12
6.0604e-12
8.37582e-12
1.1335e-11
1.50311e-11
1.94891e-11
2.47197e-11
3.05858e-11
3.70345e-11
4.38631e-11
5.13005e-11
5.94774e-11
6.93759e-11
8.18547e-11
3.22243e-11
1.72784e-10
2.18821e-10
3.18503e-10
5.21034e-11
2.36046e-11
1.78817e-11
1.80949e-11
1.5501e-11
8.83196e-12
5.53388e-12
4.07329e-12
3.13568e-12
2.32834e-12
1.68096e-12
1.21261e-12
8.7239e-13
6.13632e-13
4.1304e-13
2.60299e-13
1.49011e-13
7.3602e-14
2.83389e-14
6.58719e-15
2.98682e-16
1.84874e-16
6.24431e-15
3.12928e-14
9.14846e-14
2.06881e-13
4.03101e-13
7.13257e-13
1.18042e-12
1.85995e-12
2.82298e-12
4.15808e-12
5.97604e-12
8.40533e-12
1.15983e-11
1.57032e-11
2.08807e-11
2.72188e-11
3.48171e-11
4.36032e-11
5.36616e-11
6.48662e-11
7.77443e-11
9.25437e-11
1.10887e-10
1.33673e-10
2.22397e-11
1.51617e-10
1.76584e-10
2.89692e-10
6.05988e-11
2.08124e-11
1.77758e-11
1.70846e-11
1.58742e-11
9.44488e-12
5.82324e-12
4.23412e-12
3.27476e-12
2.45928e-12
1.78277e-12
1.28291e-12
9.18803e-13
6.4215e-13
4.27426e-13
2.64093e-13
1.46172e-13
6.80707e-14
2.33683e-14
4.05865e-15
2.50836e-17
1.1504e-15
1.43055e-14
5.71038e-14
1.50991e-13
3.22769e-13
6.06827e-13
1.04777e-12
1.70382e-12
2.65009e-12
3.98375e-12
5.82683e-12
8.33415e-12
1.16889e-11
1.61149e-11
2.18431e-11
2.91423e-11
3.82116e-11
4.9309e-11
6.24987e-11
7.81272e-11
9.62432e-11
1.17899e-10
1.43521e-10
1.75643e-10
2.1468e-10
1.53133e-11
1.30104e-10
1.43587e-10
2.56802e-10
6.90043e-11
1.85383e-11
1.74305e-11
1.60484e-11
1.59295e-11
1.00094e-11
6.09912e-12
4.36962e-12
3.38383e-12
2.56903e-12
1.87211e-12
1.34399e-12
9.57205e-13
6.63771e-13
4.36088e-13
2.63332e-13
1.40053e-13
6.0682e-14
1.7928e-14
1.98393e-15
3.42951e-18
4.1153e-15
2.9798e-14
1.00414e-13
2.44547e-13
4.98154e-13
9.07597e-13
1.53326e-12
2.45427e-12
3.77322e-12
5.6238e-12
8.17553e-12
1.16467e-11
1.63007e-11
2.24689e-11
3.05104e-11
4.08666e-11
5.39243e-11
7.02139e-11
9.00562e-11
1.14261e-10
1.4321e-10
1.78808e-10
2.21656e-10
2.75353e-10
3.38356e-10
1.0539e-11
1.09383e-10
1.17889e-10
2.22621e-10
7.61704e-11
1.70337e-11
1.67741e-11
1.50507e-11
1.56612e-11
1.04838e-11
6.35434e-12
4.47666e-12
3.45861e-12
2.65145e-12
1.94432e-12
1.39283e-12
9.85409e-13
6.76827e-13
4.37873e-13
2.57389e-13
1.30505e-13
5.16693e-14
1.24412e-14
6.17738e-16
2.99638e-16
1.128e-14
5.79418e-14
1.71322e-13
3.89684e-13
7.61478e-13
1.34951e-12
2.23595e-12
3.52897e-12
5.36969e-12
7.94334e-12
1.14875e-11
1.63124e-11
2.28004e-11
3.14441e-11
4.28018e-11
5.75878e-11
7.6499e-11
1.00518e-10
1.30415e-10
1.67772e-10
2.13518e-10
2.70813e-10
3.4016e-10
4.25793e-10
5.20805e-10
7.26382e-12
9.01644e-11
9.77367e-11
1.89529e-10
8.1132e-11
1.63854e-11
1.58098e-11
1.412e-11
1.50967e-11
1.08225e-11
6.57908e-12
4.55212e-12
3.49605e-12
2.70108e-12
1.99463e-12
1.42634e-12
1.00132e-12
6.79799e-13
4.31802e-13
2.45841e-13
1.17613e-13
4.14809e-14
7.43572e-15
5.1865e-17
2.05632e-15
2.64125e-14
1.06941e-13
2.85068e-13
6.12251e-13
1.15409e-12
1.99611e-12
3.25076e-12
5.06691e-12
7.63996e-12
1.12287e-11
1.61687e-11
2.29046e-11
3.19957e-11
4.4178e-11
6.03177e-11
8.15572e-11
1.09094e-10
1.44639e-10
1.89697e-10
2.47052e-10
3.18396e-10
4.0843e-10
5.16489e-10
6.45477e-10
7.76541e-10
5.02118e-12
7.29019e-11
8.16613e-11
1.5908e-10
8.33188e-11
1.65331e-11
1.46112e-11
1.3248e-11
1.42907e-11
1.09836e-11
6.76013e-12
4.59277e-12
3.49424e-12
2.71357e-12
2.0185e-12
1.44152e-12
1.00305e-12
6.71441e-13
4.17182e-13
2.28564e-13
1.01752e-13
3.07908e-14
3.47047e-15
6.72527e-18
7.61513e-15
5.57125e-14
1.89459e-13
4.64422e-13
9.50153e-13
1.73594e-12
2.93891e-12
4.71394e-12
7.26724e-12
1.08715e-11
1.5891e-11
2.2804e-11
3.22524e-11
4.50598e-11
6.23303e-11
8.54035e-11
1.16085e-10
1.56359e-10
2.09065e-10
2.76817e-10
3.64085e-10
4.73288e-10
6.1028e-10
7.70309e-10
9.50106e-10
1.1091e-09
3.48203e-12
5.79241e-11
6.85294e-11
1.32039e-10
8.26122e-11
1.73131e-11
1.33022e-11
1.24035e-11
1.33126e-11
1.09365e-11
6.88096e-12
4.59526e-12
3.45238e-12
2.68618e-12
2.01202e-12
1.43566e-12
9.89034e-13
6.50908e-13
3.93724e-13
2.05816e-13
8.3637e-14
2.04736e-14
9.88173e-16
5.93439e-16
2.11741e-14
1.09079e-13
3.24754e-13
7.43132e-13
1.45874e-12
2.59383e-12
4.30979e-12
6.82139e-12
1.04164e-11
1.54782e-11
2.25239e-11
3.22403e-11
4.55612e-11
6.37054e-11
8.83323e-11
1.21503e-10
1.66032e-10
2.25089e-10
3.03157e-10
4.04321e-10
5.34981e-10
6.97308e-10
8.96055e-10
1.11633e-09
1.34074e-09
1.49842e-09
2.42172e-12
4.53463e-11
5.7538e-11
1.08667e-10
7.92953e-11
1.84871e-11
1.20182e-11
1.15504e-11
1.22331e-11
1.0668e-11
6.92266e-12
4.55605e-12
3.37054e-12
2.61796e-12
1.97237e-12
1.40653e-12
9.58202e-13
6.17872e-13
3.61651e-13
1.78319e-13
6.43337e-14
1.15215e-14
5.92861e-17
4.03943e-15
4.98366e-14
2.01957e-13
5.41765e-13
1.1709e-12
2.2186e-12
3.85332e-12
6.299e-12
9.85554e-12
1.49276e-11
2.20587e-11
3.19885e-11
4.57109e-11
6.45921e-11
9.04418e-11
1.25751e-10
1.7366e-10
2.38464e-10
3.25008e-10
4.39911e-10
5.8869e-10
7.78862e-10
1.00914e-09
1.27752e-09
1.55025e-09
1.78918e-09
1.89505e-09
1.68829e-12
3.50729e-11
4.81584e-11
8.88965e-11
7.39278e-11
1.97733e-11
1.087e-11
1.0663e-11
1.11127e-11
1.01854e-11
6.86612e-12
4.47132e-12
3.24957e-12
2.5098e-12
1.89826e-12
1.35271e-12
9.1009e-13
5.72639e-13
3.21792e-13
1.47304e-13
4.5232e-14
4.87376e-15
3.11146e-17
1.48036e-14
1.05144e-13
3.57999e-13
8.83551e-13
1.82052e-12
3.34682e-12
5.69614e-12
9.18145e-12
1.42249e-11
2.13998e-11
3.14831e-11
4.55405e-11
6.50192e-11
9.19265e-11
1.28948e-10
1.798e-10
2.49179e-10
3.4342e-10
4.6944e-10
6.35996e-10
8.48647e-10
1.11263e-09
1.41639e-09
1.74274e-09
2.03378e-09
2.23459e-09
2.23327e-09
1.17891e-12
2.68701e-11
4.00642e-11
7.24343e-11
6.71846e-11
2.0891e-11
9.92327e-12
9.73419e-12
9.99507e-12
9.5157e-12
6.69553e-12
4.33716e-12
3.09102e-12
2.36438e-12
1.79024e-12
1.27393e-12
8.45025e-13
5.16233e-13
2.75638e-13
1.14514e-13
2.79391e-14
1.11967e-15
1.41941e-15
4.06971e-14
2.0529e-13
6.129e-13
1.41368e-12
2.79826e-12
5.01327e-12
8.38539e-12
1.33554e-11
2.05221e-11
3.07045e-11
4.50211e-11
6.50176e-11
9.28095e-11
1.31347e-10
1.84594e-10
2.58002e-10
3.58364e-10
4.9448e-10
6.7508e-10
9.09461e-10
1.19887e-09
1.53892e-09
1.89907e-09
2.24263e-09
2.49622e-09
2.60474e-09
2.45802e-09
8.239e-13
2.04377e-11
3.30623e-11
5.88679e-11
5.97241e-11
2.16087e-11
9.19367e-12
8.77773e-12
8.90654e-12
8.70027e-12
6.40199e-12
4.14991e-12
2.89717e-12
2.18585e-12
1.65087e-12
1.17127e-12
7.64276e-13
4.50468e-13
2.25347e-13
8.21357e-14
1.40662e-14
2.18334e-17
8.61036e-15
9.46538e-14
3.78293e-13
1.01987e-12
2.22538e-12
4.25869e-12
7.46434e-12
1.23026e-11
1.93992e-11
2.96102e-11
4.41145e-11
6.45323e-11
9.31146e-11
1.32956e-10
1.88366e-10
2.65099e-10
3.70901e-10
5.1499e-10
7.08269e-10
9.59138e-10
1.27249e-09
1.63696e-09
2.02969e-09
2.39919e-09
2.69963e-09
2.86404e-09
2.84937e-09
2.54188e-09
5.75864e-13
1.54638e-11
2.70331e-11
4.7751e-11
5.21053e-11
2.17791e-11
8.65509e-12
7.82238e-12
7.86025e-12
7.78791e-12
5.9866e-12
3.90697e-12
2.67109e-12
1.97965e-12
1.48472e-12
1.04747e-12
6.70193e-13
3.77965e-13
1.73688e-13
5.26307e-14
4.86414e-15
2.07751e-16
2.98512e-14
1.97256e-13
6.66502e-13
1.65742e-12
3.45465e-12
6.42624e-12
1.10573e-11
1.80016e-11
2.81546e-11
4.27492e-11
6.34927e-11
9.27415e-11
1.33774e-10
1.91088e-10
2.70878e-10
3.81211e-10
5.32414e-10
7.35521e-10
1.00104e-09
1.33126e-09
1.71772e-09
2.12791e-09
2.52004e-09
2.83664e-09
3.04416e-09
3.09665e-09
2.95491e-09
2.47943e-09
4.02314e-13
1.16587e-11
2.18898e-11
3.86618e-11
4.47453e-11
2.13535e-11
8.25282e-12
6.90151e-12
6.86202e-12
6.82748e-12
5.46177e-12
3.608e-12
2.41676e-12
1.75222e-12
1.29811e-12
9.06971e-13
5.66286e-13
3.02121e-13
1.23882e-13
2.84294e-14
6.54818e-16
3.96505e-15
7.90834e-14
3.80286e-13
1.13293e-12
2.64042e-12
5.29895e-12
9.62598e-12
1.63102e-11
2.62876e-11
4.08488e-11
6.17807e-11
9.15649e-11
1.33628e-10
1.92713e-10
2.75238e-10
3.8979e-10
5.46929e-10
7.58769e-10
1.03517e-09
1.37985e-09
1.77948e-09
2.20406e-09
2.60245e-09
2.93074e-09
3.1494e-09
3.24823e-09
3.19489e-09
2.93138e-09
2.27129e-09
2.80838e-13
8.76995e-12
1.75575e-11
3.12327e-11
3.79118e-11
2.03724e-11
7.91851e-12
6.04189e-12
5.91542e-12
5.86228e-12
4.85035e-12
3.25629e-12
2.13927e-12
1.51083e-12
1.09877e-12
7.55834e-13
4.5721e-13
2.26992e-13
7.93428e-14
1.14589e-14
5.4364e-19
1.97485e-14
1.78659e-13
6.91661e-13
1.8701e-12
4.1356e-12
8.04378e-12
1.4328e-11
2.39737e-11
3.83306e-11
5.92704e-11
8.93918e-11
1.323e-10
1.92939e-10
2.78039e-10
3.96408e-10
5.59112e-10
7.78153e-10
1.06403e-09
1.41844e-09
1.82843e-09
2.2579e-09
2.65979e-09
2.98464e-09
3.20931e-09
3.32175e-09
3.32537e-09
3.18174e-09
2.78998e-09
1.91799e-09
1.95881e-13
6.58674e-12
1.39628e-11
2.51591e-11
3.17501e-11
1.89384e-11
7.58614e-12
5.25897e-12
5.02543e-12
4.92733e-12
4.18294e-12
2.85987e-12
1.84507e-12
1.26346e-12
8.95372e-13
6.01416e-13
3.48591e-13
1.57043e-13
4.32576e-14
2.45734e-15
1.4633e-15
6.22084e-14
3.63048e-13
1.20218e-12
3.01226e-12
6.38316e-12
1.21e-11
2.12099e-11
3.51333e-11
5.58281e-11
8.60172e-11
1.29476e-10
1.91398e-10
2.78771e-10
4.00753e-10
5.68509e-10
7.94294e-10
1.08771e-09
1.45015e-09
1.86516e-09
2.29693e-09
2.69389e-09
3.01377e-09
3.23167e-09
3.35117e-09
3.3764e-09
3.30674e-09
3.07878e-09
2.52787e-09
1.43868e-09
1.36564e-13
4.94071e-12
1.1023e-11
2.01962e-11
2.63181e-11
1.71849e-11
7.20437e-12
4.55689e-12
4.19937e-12
4.04889e-12
3.49397e-12
2.43203e-12
1.54222e-12