/*--------------------------------*- C++ -*----------------------------------*\
  =========                 |
  \\      /  F ield         | OpenFOAM: The Open Source CFD Toolbox
   \\    /   O peration     | Website:  https://openfoam.org
    \\  /    A nd           | Version:  7
     \\/     M anipulation  |
\*---------------------------------------------------------------------------*/
FoamFile
{
    version     2.0;
    format      ascii;
    class       volScalarField;
    location    "0.2";
    object      p;
}
// * * * * * * * * * * * * * * * * * * * * * * * * * * * * * * * * * * * * * //

dimensions      [0 2 -2 0 0 0 0];

internalField   nonuniform List<scalar> 
70000
(
0.110058
0.0326092
0.0201014
0.022564
0.0227565
0.0217275
0.020822
0.0201517
0.0196066
0.0191389
0.0187355
0.0183884
0.0180902
0.0178343
0.0176156
0.0174299
0.0172739
0.017145
0.017041
0.0169602
0.0169015
0.0168636
0.0168457
0.0168473
0.0168677
0.0169067
0.0169639
0.0170391
0.0171322
0.017243
0.0173714
0.0175173
0.0176804
0.0178604
0.018057
0.0182692
0.0184965
0.0187372
0.0189897
0.019252
0.0195196
0.0197917
0.0200557
0.0203194
0.0205446
0.0207745
0.0208934
0.0210634
0.0209409
0.0209954
0.10569
0.032976
0.0203044
0.0226597
0.0228111
0.0217637
0.0208503
0.0201751
0.0196262
0.0191557
0.0187501
0.0184014
0.0181018
0.0178448
0.0176252
0.0174388
0.0172821
0.0171525
0.017048
0.0169669
0.0169078
0.0168695
0.0168514
0.0168527
0.0168729
0.0169117
0.0169687
0.0170437
0.0171367
0.0172474
0.0173757
0.0175215
0.0176846
0.0178645
0.0180611
0.0182733
0.0185006
0.0187413
0.0189939
0.0192562
0.0195239
0.0197961
0.0200601
0.0203239
0.0205491
0.0207792
0.020898
0.0210673
0.0209483
0.0210383
0.102109
0.0339158
0.0206446
0.0227887
0.0228854
0.0218084
0.0208826
0.0202013
0.0196481
0.0191742
0.0187661
0.0184154
0.0181143
0.0178561
0.0176355
0.0174481
0.0172907
0.0171606
0.0170555
0.0169739
0.0169143
0.0168757
0.0168573
0.0168583
0.0168783
0.0169168
0.0169736
0.0170485
0.0171413
0.0172518
0.01738
0.0175257
0.0176887
0.0178686
0.0180651
0.0182774
0.0185046
0.0187454
0.018998
0.0192604
0.0195282
0.0198005
0.0200647
0.0203287
0.0205541
0.0207847
0.0209038
0.0210726
0.0209681
0.0210819
0.0990146
0.0350174
0.0211139
0.0229625
0.0229861
0.0218659
0.0209207
0.0202312
0.0196726
0.0191947
0.0187835
0.0184305
0.0181276
0.017868
0.0176462
0.0174579
0.0172997
0.0171688
0.0170632
0.016981
0.016921
0.016882
0.0168632
0.0168639
0.0168836
0.0169219
0.0169784
0.0170531
0.0171457
0.0172561
0.0173842
0.0175297
0.0176926
0.0178725
0.0180689
0.0182811
0.0185083
0.0187491
0.0190017
0.0192642
0.0195322
0.0198047
0.0200691
0.0203336
0.0205594
0.0207906
0.0209113
0.0210791
0.021
0.0211272
0.096055
0.0361136
0.0216794
0.0231827
0.0231203
0.0219434
0.0209694
0.020268
0.0197024
0.0192191
0.0188039
0.0184479
0.0181428
0.0178814
0.0176582
0.0174687
0.0173095
0.0171778
0.0170714
0.0169886
0.0169281
0.0168886
0.0168694
0.0168697
0.016889
0.016927
0.0169833
0.0170577
0.01715
0.0172602
0.0173881
0.0175335
0.0176962
0.0178759
0.0180722
0.0182843
0.0185115
0.0187522
0.0190049
0.0192675
0.0195356
0.0198083
0.0200731
0.0203381
0.0205649
0.0207967
0.0209207
0.021087
0.0210428
0.0211813
0.0931457
0.0371521
0.0222942
0.0234293
0.0232821
0.0220427
0.0210314
0.020314
0.0197393
0.0192491
0.0188287
0.0184689
0.0181608
0.0178972
0.0176721
0.0174811
0.0173206
0.0171879
0.0170806
0.0169971
0.0169358
0.0168958
0.016876
0.0168758
0.0168947
0.0169322
0.0169882
0.0170622
0.0171543
0.0172642
0.0173918
0.0175369
0.0176994
0.0178789
0.018075
0.0182869
0.0185139
0.0187546
0.0190072
0.0192698
0.019538
0.0198111
0.0200764
0.020342
0.0205702
0.0208028
0.0209323
0.0210973
0.0210945
0.0212462
0.0902806
0.0381143
0.0229245
0.0236807
0.0234583
0.0221591
0.0211055
0.020369
0.0197838
0.0192854
0.0188587
0.0184941
0.0181824
0.0179159
0.0176886
0.0174957
0.0173337
0.0171996
0.0170912
0.0170067
0.0169446
0.0169037
0.0168833
0.0168825
0.0169008
0.0169378
0.0169933
0.0170669
0.0171585
0.017268
0.0173952
0.0175399
0.0177021
0.0178812
0.018077
0.0182886
0.0185154
0.0187558
0.0190083
0.0192709
0.0195392
0.0198125
0.0200783
0.0203446
0.0205748
0.0208084
0.0209457
0.0211105
0.0211531
0.0213214
0.0874659
0.038992
0.0235544
0.023925
0.023638
0.0222862
0.0211884
0.020431
0.0198345
0.0193274
0.0188936
0.0185236
0.0182078
0.0179379
0.0177079
0.0175128
0.0173489
0.0172132
0.0171034
0.0170177
0.0169545
0.0169127
0.0168914
0.0168898
0.0169074
0.0169438
0.0169986
0.0170716
0.0171627
0.0172716
0.0173983
0.0175425
0.0177041
0.0178827
0.018078
0.0182892
0.0185155
0.0187556
0.0190078
0.0192702
0.0195385
0.019812
0.0200785
0.0203456
0.0205783
0.0208132
0.0209606
0.021127
0.0212163
0.0214054
0.0847073
0.0397824
0.0241787
0.0241584
0.0238152
0.0224191
0.0212768
0.0204975
0.0198897
0.0193737
0.0189325
0.0185568
0.0182364
0.017963
0.0177299
0.0175323
0.0173663
0.0172288
0.0171174
0.0170303
0.0169659
0.0169229
0.0169006
0.0168981
0.0169148
0.0169503
0.0170043
0.0170766
0.0171669
0.0172751
0.017401
0.0175445
0.0177055
0.0178834
0.018078
0.0182885
0.0185142
0.0187538
0.0190055
0.0192675
0.0195356
0.0198092
0.0200764
0.0203444
0.0205802
0.0208168
0.0209764
0.0211472
0.021282
0.0214964
0.0820093
0.0404852
0.0247962
0.0243804
0.0239869
0.0225551
0.0213688
0.0205665
0.0199475
0.0194228
0.0189743
0.0185926
0.0182676
0.0179904
0.0177543
0.017554
0.0173856
0.0172462
0.017133
0.0170444
0.0169785
0.0169343
0.0169108
0.0169072
0.0169229
0.0169574
0.0170105
0.0170818
0.0171712
0.0172785
0.0174035
0.0175461
0.0177062
0.0178832
0.0180769
0.0182866
0.0185114
0.0187501
0.019001
0.0192625
0.0195303
0.0198038
0.0200717
0.0203406
0.0205802
0.0208189
0.0209926
0.0211708
0.0213485
0.0215922
0.0793753
0.041101
0.0254063
0.0245919
0.0241517
0.0226928
0.0214631
0.0206369
0.0200067
0.0194736
0.0190177
0.0186302
0.0183006
0.0180196
0.0177803
0.0175773
0.0174066
0.017265
0.0171501
0.0170597
0.0169924
0.0169468
0.016922
0.0169171
0.0169316
0.016965
0.017017
0.0170872
0.0171756
0.0172818
0.0174057
0.0175473
0.0177062
0.0178821
0.0180747
0.0182832
0.0185069
0.0187446
0.0189945
0.0192552
0.0195224
0.0197957
0.0200642
0.020334
0.0205778
0.0208194
0.0210085
0.0211976
0.0214144
0.0216903
0.0768082
0.04163
0.0260074
0.0247939
0.0243088
0.0228312
0.0215596
0.0207084
0.0200667
0.0195253
0.0190623
0.0186689
0.0183347
0.0180499
0.0178074
0.0176017
0.0174286
0.017285
0.0171681
0.017076
0.0170071
0.0169601
0.0169339
0.0169277
0.0169409
0.0169731
0.0170239
0.0170929
0.01718
0.017285
0.0174077
0.017548
0.0177056
0.0178802
0.0180714
0.0182785
0.0185009
0.0187372
0.0189859
0.0192456
0.0195119
0.0197849
0.020054
0.0203246
0.0205732
0.0208184
0.0210237
0.0212268
0.0214786
0.0217885
0.0743107
0.0420727
0.0265975
0.0249876
0.0244573
0.0229695
0.021658
0.0207806
0.0201272
0.0195778
0.0191076
0.0187084
0.0183695
0.018081
0.0178353
0.0176269
0.0174514
0.0173056
0.0171868
0.017093
0.0170225
0.0169739
0.0169463
0.0169387
0.0169506
0.0169815
0.0170309
0.0170986
0.0171844
0.0172881
0.0174094
0.0175482
0.0177043
0.0178774
0.0180671
0.0182727
0.0184934
0.0187282
0.0189754
0.0192337
0.0194991
0.0197715
0.0200412
0.0203127
0.0205662
0.020816
0.0210378
0.0212577
0.0215405
0.0218849
0.0718851
0.04243
0.0271742
0.0251744
0.0245968
0.0231071
0.0217582
0.0208537
0.0201881
0.0196308
0.0191535
0.0187485
0.0184049
0.0181126
0.0178637
0.0176525
0.0174747
0.0173268
0.0172061
0.0171105
0.0170383
0.0169882
0.0169591
0.0169501
0.0169606
0.0169901
0.0170381
0.0171044
0.0171888
0.017291
0.0174108
0.0175481
0.0177026
0.017874
0.0180619
0.0182657
0.0184846
0.0187177
0.0189632
0.01922
0.0194843
0.0197558
0.0200262
0.0202986
0.0205573
0.0208124
0.0210506
0.0212894
0.0215999
0.0219781
0.0695338
0.0427031
0.0277346
0.0253558
0.0247269
0.0232428
0.02186
0.0209275
0.0202493
0.0196842
0.0192
0.018789
0.0184408
0.0181447
0.0178926
0.0176786
0.0174983
0.0173483
0.0172256
0.0171282
0.0170544
0.0170027
0.0169721
0.0169616
0.0169707
0.0169987
0.0170453
0.0171102
0.017193
0.0172936
0.0174119
0.0175475
0.0177002
0.0178698
0.0180559
0.0182578
0.0184747
0.0187059
0.0189495
0.0192046
0.0194677
0.0197383
0.0200092
0.0202827
0.0205466
0.0208079
0.0210621
0.0213211
0.0216566
0.0220673
0.0672589
0.0428937
0.0282756
0.0255332
0.0248474
0.0233758
0.0219633
0.0210021
0.0203107
0.019738
0.019247
0.0188301
0.0184771
0.0181771
0.0179218
0.017705
0.0175223
0.01737
0.0172454
0.0171462
0.0170707
0.0170174
0.0169852
0.0169732
0.0169808
0.0170074
0.0170525
0.0171158
0.0171971
0.0172961
0.0174126
0.0175465
0.0176974
0.0178651
0.0180491
0.018249
0.0184638
0.0186929
0.0189346
0.0191879
0.0194496
0.0197192
0.0199906
0.0202653
0.0205344
0.0208026
0.0210722
0.0213521
0.0217107
0.0221519
0.0650621
0.0430039
0.028794
0.0257082
0.0249581
0.0235051
0.0220678
0.0210776
0.0203723
0.0197921
0.0192944
0.0188715
0.0185138
0.0182099
0.0179513
0.0177318
0.0175465
0.017392
0.0172654
0.0171644
0.0170871
0.0170322
0.0169984
0.0169849
0.0169909
0.017016
0.0170595
0.0171213
0.0172009
0.0172983
0.017413
0.0175451
0.0176941
0.0178598
0.0180417
0.0182394
0.0184521
0.018679
0.0189186
0.01917
0.0194303
0.0196989
0.0199708
0.0202468
0.0205211
0.0207968
0.021081
0.0213819
0.0217621
0.0222321
0.0629445
0.043036
0.0292868
0.0258818
0.0250592
0.0236296
0.022173
0.0211538
0.0204339
0.0198464
0.0193422
0.0189134
0.0185508
0.018243
0.0179812
0.0177587
0.017571
0.0174143
0.0172856
0.0171827
0.0171036
0.017047
0.0170116
0.0169965
0.017001
0.0170245
0.0170664
0.0171266
0.0172045
0.0173001
0.0174131
0.0175432
0.0176902
0.0178538
0.0180336
0.0182291
0.0184395
0.0186642
0.0189016
0.0191511
0.0194099
0.0196775
0.0199499
0.0202275
0.0205069
0.0207904
0.0210885
0.02141
0.0218108
0.0223077
0.060907
0.0429931
0.0297512
0.026055
0.0251509
0.0237483
0.0222786
0.0212308
0.0204955
0.0199007
0.0193903
0.0189557
0.0185882
0.0182765
0.0180113
0.017786
0.0175957
0.0174367
0.0173059
0.0172011
0.0171202
0.0170619
0.0170248
0.0170081
0.017011
0.0170328
0.0170732
0.0171316
0.0172079
0.0173016
0.0174127
0.0175409
0.0176859
0.0178473
0.0180249
0.0182181
0.0184262
0.0186485
0.0188838
0.0191312
0.0193885
0.0196552
0.0199281
0.0202073
0.0204917
0.0207834
0.0210948
0.021436
0.0218566
0.0223788
0.05895
0.0428786
0.0301843
0.0262282
0.0252337
0.0238604
0.022384
0.0213086
0.0205571
0.019955
0.0194386
0.0189982
0.0186258
0.0183102
0.0180417
0.0178135
0.0176206
0.0174593
0.0173264
0.0172196
0.0171369
0.0170768
0.0170381
0.0170197
0.0170209
0.0170411
0.0170797
0.0171364
0.0172109
0.0173028
0.017412
0.0175381
0.0176809
0.0178402
0.0180155
0.0182063
0.018412
0.018632
0.018865
0.0191104
0.0193662
0.0196319
0.0199053
0.0201863
0.0204756
0.0207755
0.0210996
0.0214597
0.0218995
0.0224454
0.0570734
0.0426965
0.0305836
0.0264018
0.0253082
0.023965
0.0224885
0.0213872
0.0206187
0.0200091
0.0194871
0.0190411
0.0186638
0.0183441
0.0180723
0.0178411
0.0176457
0.017482
0.017347
0.0172382
0.0171536
0.0170917
0.0170512
0.0170312
0.0170307
0.0170491
0.017086
0.0171409
0.0172136
0.0173036
0.0174107
0.0175348
0.0176754
0.0178324
0.0180053
0.0181937
0.018397
0.0186145
0.0188453
0.0190886
0.0193429
0.0196076
0.0198815
0.0201645
0.0204585
0.0207666
0.0211028
0.0214806
0.0219389
0.022507
0.0552767
0.042451
0.0309464
0.0265755
0.0253751
0.0240614
0.0225916
0.0214663
0.0206801
0.0200629
0.0195356
0.0190841
0.0187019
0.0183783
0.0181031
0.017869
0.0176709
0.0175049
0.0173677
0.0172569
0.0171704
0.0171067
0.0170644
0.0170425
0.0170403
0.017057
0.0170921
0.0171452
0.0172159
0.0173039
0.017409
0.0175309
0.0176693
0.0178239
0.0179944
0.0181803
0.018381
0.0185961
0.0188245
0.0190657
0.0193185
0.0195824
0.0198566
0.0201417
0.0204403
0.0207564
0.0211042
0.0214985
0.0219745
0.0225634
0.0535593
0.042147
0.0312705
0.0267488
0.0254352
0.0241491
0.0226922
0.0215458
0.0207414
0.0201164
0.0195841
0.0191274
0.0187403
0.0184126
0.018134
0.017897
0.0176963
0.0175278
0.0173884
0.0172756
0.0171871
0.0171215
0.0170774
0.0170538
0.0170497
0.0170646
0.0170978
0.017149
0.0172178
0.0173038
0.0174067
0.0175264
0.0176625
0.0178147
0.0179826
0.018166
0.0183642
0.0185767
0.0188027
0.0190418
0.019293
0.019556
0.0198306
0.0201177
0.0204207
0.0207445
0.0211033
0.021513
0.0220058
0.0226139
0.0519197
0.0417894
0.031554
0.0269207
0.0254894
0.0242276
0.0227898
0.0216254
0.0208026
0.0201694
0.0196324
0.0191707
0.0187788
0.018447
0.0181651
0.0179252
0.0177218
0.0175509
0.0174093
0.0172943
0.0172039
0.0171363
0.0170904
0.0170649
0.017059
0.017072
0.0171033
0.0171525
0.0172192
0.0173031
0.0174039
0.0175212
0.0176549
0.0178046
0.01797
0.0181507
0.0183463
0.0185562
0.0187798
0.0190167
0.0192663
0.0195283
0.0198033
0.0200923
0.0203996
0.0207308
0.0210999
0.0215237
0.0220323
0.0226579
0.0503564
0.0413835
0.0317951
0.0270901
0.0255388
0.0242968
0.0228833
0.0217049
0.0208636
0.0202219
0.0196804
0.0192139
0.0188174
0.0184816
0.0181963
0.0179534
0.0177473
0.017574
0.0174301
0.017313
0.0172206
0.0171511
0.0171032
0.0170758
0.017068
0.017079
0.0171084
0.0171556
0.0172202
0.0173019
0.0174004
0.0175154
0.0176466
0.0177937
0.0179565
0.0181345
0.0183273
0.0185346
0.0187557
0.0189904
0.0192382
0.0194994
0.0197746
0.0200655
0.0203767
0.0207148
0.0210935
0.0215302
0.0220532
0.0226947
0.0488676
0.0409349
0.0319927
0.0272552
0.0255841
0.0243568
0.0229718
0.0217839
0.0209244
0.0202737
0.0197279
0.0192571
0.0188559
0.0185161
0.0182275
0.0179816
0.0177729
0.0175971
0.0174509
0.0173317
0.0172372
0.0171657
0.0171158
0.0170865
0.0170767
0.0170858
0.0171131
0.0171582
0.0172207
0.0173001
0.0173962
0.0175088
0.0176374
0.0177819
0.017942
0.0181172
0.0183072
0.0185117
0.0187303
0.0189626
0.0192087
0.0194689
0.0197442
0.0200369
0.0203518
0.0206963
0.0210838
0.0215321
0.0220681
0.0227233
0.0474509
0.040449
0.0321459
0.027414
0.0256263
0.0244076
0.0230547
0.0218618
0.0209849
0.0203247
0.0197748
0.0193001
0.0188945
0.0185507
0.0182586
0.0180099
0.0177985
0.0176202
0.0174717
0.0173502
0.0172536
0.0171801
0.0171282
0.0170969
0.0170851
0.0170922
0.0171174
0.0171603
0.0172206
0.0172977
0.0173914
0.0175014
0.0176274
0.0177692
0.0179264
0.0180987
0.0182859
0.0184875
0.0187034
0.0189335
0.0191777
0.0194367
0.0197121
0.0200062
0.0203246
0.0206748
0.0210702
0.0215288
0.0220761
0.022743
0.046104
0.0399315
0.0322542
0.0275643
0.0256662
0.0244496
0.023131
0.0219381
0.0210451
0.020375
0.019821
0.0193427
0.0189329
0.0185852
0.0182897
0.0180381
0.017824
0.0176432
0.0174924
0.0173687
0.01727
0.0171944
0.0171404
0.017107
0.0170932
0.0170981
0.0171212
0.0171619
0.0172198
0.0172946
0.0173858
0.0174932
0.0176164
0.0177554
0.0179097
0.018079
0.0182632
0.018462
0.0186751
0.0189027
0.019145
0.0194028
0.0196779
0.0199733
0.0202946
0.0206499
0.0210524
0.0215198
0.0220767
0.0227528
0.0448243
0.039388
0.0323178
0.0277036
0.0257045
0.0244834
0.0232001
0.0220122
0.0211048
0.0204244
0.0198663
0.0193848
0.0189711
0.0186195
0.0183207
0.0180661
0.0178494
0.0176662
0.017513
0.017387
0.0172861
0.0172084
0.0171523
0.0171168
0.0171009
0.0171036
0.0171245
0.0171629
0.0172185
0.0172907
0.0173793
0.017484
0.0176045
0.0177405
0.0178918
0.0180581
0.0182392
0.0184349
0.0186452
0.0188702
0.0191104
0.0193669
0.0196416
0.019938
0.0202617
0.0206213
0.0210298
0.0215045
0.0220691
0.0227519
0.0436087
0.0388239
0.0323373
0.0278292
0.0257413
0.0245096
0.0232615
0.0220833
0.0211638
0.0204729
0.0199106
0.0194262
0.0190089
0.0186536
0.0183515
0.018094
0.0178747
0.0176889
0.0175333
0.0174051
0.017302
0.0172221
0.0171639
0.0171263
0.0171081
0.0171087
0.0171272
0.0171633
0.0172164
0.017286
0.0173719
0.0174738
0.0175914
0.0177244
0.0178726
0.0180357
0.0182136
0.0184062
0.0186136
0.0188359
0.0190739
0.0193288
0.0196028
0.0198998
0.0202255
0.0205886
0.021002
0.0214824
0.0220526
0.0227395
0.0424545
0.0382441
0.0323139
0.027939
0.0257768
0.0245289
0.0233147
0.0221508
0.0212218
0.0205205
0.0199538
0.0194669
0.0190463
0.0186874
0.018382
0.0181217
0.0178997
0.0177115
0.0175535
0.017423
0.0173176
0.0172355
0.0171752
0.0171353
0.0171149
0.0171131
0.0171294
0.017163
0.0172135
0.0172805
0.0173636
0.0174626
0.0175772
0.0177071
0.017852
0.0180119
0.0181865
0.0183759
0.0185801
0.0187996
0.0190352
0.0192883
0.0195614
0.0198585
0.0201856
0.0205513
0.0209683
0.0214528
0.0220265
0.0227146
0.0413585
0.0376534
0.032249
0.0280306
0.0258107
0.0245421
0.0233595
0.022214
0.0212785
0.020567
0.0199957
0.0195066
0.0190832
0.0187207
0.0184122
0.018149
0.0179244
0.0177337
0.0175734
0.0174406
0.0173329
0.0172486
0.017186
0.0171438
0.0171211
0.017117
0.0171308
0.0171619
0.0172098
0.017274
0.0173543
0.0174503
0.0175618
0.0176884
0.01783
0.0179865
0.0181577
0.0183437
0.0185447
0.0187611
0.0189941
0.0192452
0.0195171
0.0198138
0.0201415
0.020509
0.0209283
0.0214152
0.0219902
0.0226766
0.0403177
0.037056
0.032145
0.0281022
0.0258421
0.0245499
0.0233959
0.022272
0.0213335
0.0206124
0.0200363
0.0195452
0.0191193
0.0187537
0.018442
0.018176
0.0179488
0.0177557
0.0175929
0.0174578
0.0173478
0.0172612
0.0171963
0.0171518
0.0171268
0.0171202
0.0171315
0.01716
0.0172051
0.0172666
0.0173439
0.0174368
0.017545
0.0176683
0.0178065
0.0179594
0.0181271
0.0183095
0.0185071
0.0187204
0.0189505
0.0191993
0.0194695
0.0197653
0.020093
0.0204612
0.0208815
0.021369
0.0219428
0.0226247
0.039329
0.0364557
0.0320042
0.0281522
0.0258702
0.0245529
0.023424
0.0223244
0.0213862
0.0206566
0.0200756
0.0195826
0.0191545
0.0187859
0.0184712
0.0182025
0.0179728
0.0177772
0.0176121
0.0174745
0.0173623
0.0172733
0.0172061
0.0171593
0.0171318
0.0171227
0.0171314
0.0171572
0.0171996
0.0172581
0.0173323
0.017422
0.0175269
0.0176467
0.0177813
0.0179306
0.0180945
0.0182733
0.0184673
0.0186772
0.0189042
0.0191503
0.0194184
0.0197128
0.0200397
0.0204074
0.0208273
0.0213135
0.0218838
0.0225582
0.0383893
0.0358559
0.0318295
0.0281794
0.0258936
0.0245515
0.0234441
0.0223704
0.0214361
0.0206993
0.0201133
0.0196185
0.0191887
0.0188175
0.0184999
0.0182284
0.0179963
0.0177982
0.0176307
0.0174908
0.0173762
0.0172849
0.0172153
0.017166
0.0171361
0.0171245
0.0171305
0.0171535
0.0171929
0.0172484
0.0173195
0.0174059
0.0175073
0.0176235
0.0177544
0.0178999
0.0180599
0.0182349
0.018425
0.0186313
0.018855
0.0190981
0.0193636
0.0196559
0.019981
0.0203472
0.0207651
0.0212481
0.0218126
0.0224766
0.0374957
0.0352596
0.031624
0.0281829
0.025911
0.0245462
0.0234564
0.0224097
0.0214827
0.0207404
0.0201494
0.0196528
0.0192217
0.0188482
0.0185278
0.0182537
0.0180191
0.0178187
0.0176488
0.0175066
0.0173896
0.0172959
0.0172238
0.0171721
0.0171396
0.0171253
0.0171286
0.0171487
0.0171852
0.0172375
0.0173053
0.0173883
0.0174861
0.0175986
0.0177256
0.0178671
0.0180232
0.018194
0.0183802
0.0185826
0.0188026
0.0190422
0.0193047
0.0195942
0.0199167
0.0202801
0.0206945
0.0211723
0.0217285
0.0223792
0.0366453
0.034669
0.031391
0.0281624
0.0259209
0.0245371
0.0234614
0.0224418
0.0215253
0.0207795
0.0201838
0.0196854
0.0192533
0.0188779
0.0185549
0.0182783
0.0180413
0.0178385
0.0176663
0.0175217
0.0174023
0.0173062
0.0172316
0.0171774
0.0171422
0.0171253
0.0171257
0.0171429
0.0171763
0.0172254
0.0172898
0.0173692
0.0174633
0.0175719
0.0176949
0.0178323
0.0179841
0.0181507
0.0183326
0.0185308
0.0187468
0.0189826
0.0192413
0.0195273
0.0198462
0.0202056
0.020615
0.0210856
0.0216312
0.0222658
0.0358353
0.0340862
0.0311339
0.0281176
0.0259218
0.0245242
0.0234597
0.0224666
0.0215635
0.0208163
0.0202163
0.0197163
0.0192833
0.0189064
0.0185811
0.018302
0.0180626
0.0178576
0.017683
0.017536
0.0174143
0.0173157
0.0172386
0.0171818
0.0171439
0.0171242
0.0171217
0.0171359
0.017166
0.0172118
0.0172727
0.0173484
0.0174386
0.0175432
0.0176621
0.0177951
0.0179426
0.0181047
0.0182821
0.0184758
0.0186873
0.0189188
0.0191733
0.0194549
0.0197693
0.0201233
0.020526
0.0209875
0.0215201
0.0221358
0.035063
0.0335129
0.0308558
0.028049
0.0259122
0.0245072
0.0234516
0.0224839
0.0215966
0.0208504
0.0202469
0.0197451
0.0193117
0.0189335
0.0186062
0.0183248
0.0180831
0.0178758
0.017699
0.0175496
0.0174254
0.0173243
0.0172448
0.0171852
0.0171447
0.017122
0.0171166
0.0171276
0.0171545
0.0171967
0.017254
0.0173259
0.0174121
0.0175126
0.017627
0.0177556
0.0178984
0.0180558
0.0182285
0.0184174
0.018624
0.0188506
0.0191002
0.0193767
0.0196853
0.0200328
0.0204271
0.0208776
0.0213948
0.0219892
0.034326
0.0329502
0.0305599
0.0279573
0.0258908
0.0244857
0.0234375
0.0224939
0.0216242
0.0208814
0.0202753
0.0197719
0.0193381
0.0189591
0.0186301
0.0183465
0.0181026
0.0178931
0.017714
0.0175623
0.0174357
0.0173321
0.0172499
0.0171877
0.0171443
0.0171187
0.0171102
0.0171179
0.0171414
0.0171801
0.0172336
0.0173015
0.0173836
0.0174797
0.0175897
0.0177135
0.0178515
0.0180039
0.0181715
0.0183552
0.0185566
0.0187778
0.0190217
0.0192922
0.0195941
0.0199336
0.0203179
0.0207553
0.021255
0.0218256
0.0336219
0.0323991
0.0302494
0.0278434
0.0258565
0.0244591
0.0234178
0.0224965
0.0216459
0.0209089
0.0203013
0.0197964
0.0193624
0.018983
0.0186525
0.018367
0.018121
0.0179093
0.017728
0.017574
0.0174449
0.0173388
0.017254
0.017189
0.0171427
0.0171141
0.0171024
0.0171068
0.0171268
0.0171618
0.0172114
0.0172752
0.017353
0.0174446
0.0175498
0.0176688
0.0178017
0.0179488
0.018111
0.0182891
0.0184848
0.0187
0.0189376
0.0192011
0.0194952
0.0198253
0.020198
0.0206205
0.0211005
0.0216451
0.0329486
0.0318603
0.0299268
0.0277086
0.0258087
0.0244266
0.0233926
0.0224921
0.0216613
0.0209323
0.0203246
0.0198187
0.0193846
0.019005
0.0186734
0.0183861
0.0181381
0.0179244
0.0177409
0.0175846
0.017453
0.0173444
0.0172569
0.0171891
0.0171399
0.0171082
0.0170932
0.0170942
0.0171105
0.0171417
0.0171873
0.0172468
0.0173202
0.017407
0.0175074
0.0176212
0.0177488
0.0178904
0.0180468
0.018219
0.0184084
0.018617
0.0188474
0.0191031
0.0193882
0.0197076
0.0200672
0.0204729
0.0209313
0.0214476
0.032304
0.0313341
0.0295949
0.0275544
0.0257466
0.0243875
0.0233621
0.0224808
0.0216702
0.0209512
0.020345
0.0198384
0.0194044
0.0190249
0.0186926
0.0184037
0.0181538
0.0179381
0.0177525
0.0175939
0.01746
0.0173487
0.0172585
0.0171879
0.0171357
0.0171008
0.0170825
0.0170799
0.0170925
0.0171197
0.0171611
0.0172163
0.017285
0.017367
0.0174622
0.0175707
0.0176926
0.0178284
0.0179786
0.0181444
0.0183271
0.0185284
0.018751
0.0189979
0.0192728
0.0195802
0.019925
0.0203123
0.0207471
0.0212334
0.0316862
0.0308208
0.0292557
0.0273824
0.0256701
0.0243411
0.0233262
0.0224628
0.0216725
0.0209652
0.0203621
0.0198554
0.0194217
0.0190426
0.0187099
0.0184197
0.018168
0.0179504
0.0177627
0.0176019
0.0174656
0.0173517
0.0172588
0.0171853
0.0171299
0.0170918
0.0170701
0.0170639
0.0170726
0.0170957
0.0171328
0.0171834
0.0172473
0.0173242
0.0174141
0.017517
0.017633
0.0177626
0.0179064
0.0180653
0.0182406
0.0184341
0.018648
0.0188852
0.0191488
0.0194428
0.0197714
0.0201385
0.0205481
0.0210027
0.0310935
0.0303204
0.0289114
0.0271944
0.0255791
0.0242864
0.0232847
0.0224384
0.0216681
0.020974
0.0203754
0.0198695
0.0194363
0.0190578
0.018725
0.0184338
0.0181806
0.0179612
0.0177715
0.0176085
0.0174697
0.0173533
0.0172576
0.0171811
0.0171226
0.0170812
0.0170559
0.0170459
0.0170507
0.0170696
0.0171022
0.0171481
0.017207
0.0172786
0.0173629
0.0174599
0.0175698
0.0176929
0.0178298
0.0179814
0.0181488
0.0183337
0.0185382
0.0187646
0.0190159
0.0192953
0.0196061
0.0199516
0.0203343
0.0207558
0.0305243
0.0298328
0.0285638
0.026992
0.0254739
0.024223
0.0232374
0.0224077
0.021657
0.0209772
0.0203848
0.0198805
0.0194481
0.0190704
0.0187378
0.0184459
0.0181914
0.0179702
0.0177786
0.0176134
0.0174723
0.0173533
0.0172547
0.0171753
0.0171136
0.0170688
0.0170398
0.017026
0.0170267
0.0170412
0.0170692
0.0171102
0.0171639
0.0172301
0.0173086
0.0173995
0.0175029
0.0176191
0.0177487
0.0178924
0.0180514
0.0182271
0.0184213
0.018636
0.0188739
0.0191374
0.0194292
0.0197515
0.0201061
0.0204932
0.0299769
0.0293578
0.0282142
0.0267769
0.0253548
0.0241503
0.023184
0.0223709
0.0216392
0.0209745
0.0203898
0.0198881
0.0194569
0.0190802
0.0187481
0.0184559
0.0182002
0.0179774
0.0177839
0.0176166
0.0174732
0.0173516
0.0172502
0.0171677
0.0171028
0.0170545
0.0170218
0.017004
0.0170004
0.0170105
0.0170337
0.0170696
0.0171179
0.0171784
0.0172509
0.0173354
0.017432
0.017541
0.0176628
0.0177982
0.0179482
0.018114
0.0182971
0.0184993
0.0187226
0.018969
0.0192405
0.0195386
0.0198638
0.0202156
0.0294502
0.0288952
0.0278641
0.0265509
0.0252226
0.0240679
0.023124
0.022328
0.0216149
0.0209659
0.0203901
0.0198921
0.0194625
0.0190871
0.0187558
0.0184634
0.0182068
0.0179826
0.0177873
0.017618
0.0174722
0.017348
0.0172438
0.0171582
0.01709
0.0170381
0.0170016
0.0169798
0.0169718
0.0169773
0.0169955
0.0170262
0.017069
0.0171235
0.0171897
0.0172675
0.017357
0.0174584
0.017572
0.0176987
0.017839
0.0179942
0.0181654
0.0183541
0.0185619
0.0187902
0.0190403
0.0193129
0.0196078
0.0199235
0.0289427
0.0284447
0.0275144
0.0263154
0.0250779
0.0239756
0.0230573
0.0222789
0.021584
0.0209511
0.0203853
0.0198921
0.0194647
0.0190909
0.0187606
0.0184684
0.0182111
0.0179856
0.0177886
0.0176173
0.0174693
0.0173425
0.0172354
0.0171467
0.0170751
0.0170196
0.0169792
0.0169532
0.0169408
0.0169414
0.0169546
0.0169798
0.0170168
0.0170652
0.0171249
0.0171957
0.0172777
0.0173711
0.0174762
0.0175935
0.0177236
0.0178675
0.0180261
0.0182005
0.0183918
0.018601
0.0188287
0.0190749
0.0193387
0.0196177
0.0284532
0.028006
0.0271662
0.0260719
0.0249215
0.0238734
0.0229833
0.0222237
0.0215468
0.02093
0.0203753
0.0198878
0.0194633
0.0190914
0.0187623
0.0184706
0.0182128
0.0179862
0.0177877
0.0176145
0.0174642
0.0173349
0.0172249
0.0171331
0.0170581
0.0169988
0.0169544
0.0169241
0.0169071
0.0169028
0.0169107
0.0169304
0.0169614
0.0170034
0.0170562
0.0171198
0.017194
0.0172791
0.0173751
0.0174826
0.0176019
0.0177339
0.0178791
0.0180383
0.0182123
0.0184014
0.0186059
0.0188249
0.019057
0.0192992
0.0279807
0.0275787
0.0268201
0.0258218
0.0247545
0.0237613
0.0229019
0.0221622
0.0215032
0.0209027
0.0203598
0.0198791
0.0194581
0.0190884
0.0187609
0.0184698
0.0182119
0.0179843
0.0177844
0.0176093
0.0174568
0.017325
0.0172122
0.0171171
0.0170386
0.0169756
0.0169271
0.0168924
0.0168707
0.0168613
0.0168638
0.0168777
0.0169025
0.0169379
0.0169837
0.0170397
0.0171058
0.0171821
0.0172687
0.0173658
0.0174738
0.0175932
0.0177243
0.0178676
0.0180235
0.0181918
0.0183722
0.0185635
0.0187635
0.0189688
0.0275242
0.0271625
0.0264768
0.0255663
0.0245777
0.0236395
0.0228129
0.0220942
0.0214532
0.020869
0.0203385
0.0198655
0.0194489
0.0190817
0.018756
0.0184659
0.0182081
0.0179798
0.0177785
0.0176017
0.017447
0.0173127
0.017197
0.0170988
0.0170167
0.0169498
0.0168972
0.0168579
0.0168314
0.0168168
0.0168137
0.0168216
0.01684
0.0168686
0.0169071
0.0169552
0.0170129
0.01708
0.0171567
0.017243
0.0173392
0.0174453
0.0175617
0.0176885
0.0178255
0.0179724
0.0181282
0.0182913
0.018459
0.0186276
0.0270827
0.0267569
0.0261368
0.0253064
0.0243921
0.0235085
0.0227161
0.0220198
0.021397
0.020829
0.0203115
0.019847
0.0194353
0.0190712
0.0187475
0.0184587
0.0182011
0.0179723
0.0177699
0.0175914
0.0174346
0.0172978
0.0171793
0.0170778
0.0169922
0.0169214
0.0168645
0.0168206
0.016789
0.0167691
0.0167603
0.016762
0.0167738
0.0167954
0.0168262
0.0168662
0.0169151
0.0169728
0.0170391
0.0171142
0.0171979
0.0172904
0.0173915
0.0175011
0.0176187
0.0177435
0.0178743
0.0180089
0.0181444
0.0182768
0.0266553
0.0263616
0.0258004
0.0250432
0.0241986
0.0233685
0.0226115
0.0219387
0.0213345
0.0207828
0.0202785
0.0198232
0.0194172
0.0190566
0.0187353
0.0184479
0.0181909
0.0179618
0.0177583
0.0175783
0.0174195
0.0172802
0.0171588
0.0170541
0.0169649
0.0168901
0.0168288
0.0167802
0.0167436
0.0167182
0.0167035
0.0166989
0.0167039
0.0167181
0.0167411
0.0167727
0.0168124
0.0168602
0.0169159
0.0169792
0.0170501
0.0171283
0.0172136
0.0173055
0.0174032
0.0175056
0.0176111
0.0177172
0.0178207
0.0179174
0.0262411
0.0259762
0.025468
0.0247775
0.0239981
0.02322
0.0224992
0.0218508
0.0212656
0.0207303
0.0202394
0.0197939
0.0193943
0.0190378
0.0187192
0.0184335
0.0181772
0.017948
0.0177437
0.0175622
0.0174014
0.0172597
0.0171355
0.0170275
0.0169346
0.0168558
0.0167901
0.0167367
0.0166949
0.0166639
0.0166431
0.0166319
0.0166299
0.0166366
0.0166516
0.0166744
0.0167048
0.0167424
0.0167869
0.0168382
0.0168958
0.0169593
0.0170283
0.017102
0.0171795
0.0172592
0.0173393
0.017417
0.0174889
0.0175507
0.0258395
0.0256002
0.0251398
0.02451
0.0237915
0.0230637
0.0223792
0.0217562
0.0211904
0.0206715
0.0201943
0.0197591
0.0193665
0.0190145
0.0186989
0.0184151
0.0181599
0.0179308
0.0177258
0.0175429
0.0173803
0.0172362
0.0171091
0.0169979
0.0169013
0.0168184
0.0167483
0.01669
0.0166428
0.016606
0.016579
0.0165612
0.016552
0.0165509
0.0165575
0.0165714
0.0165921
0.0166192
0.0166523
0.016691
0.0167349
0.0167834
0.0168358
0.016891
0.0169479
0.0170049
0.0170595
0.0171092
0.0171501
0.017178
0.0254497
0.0252334
0.0248159
0.0242416
0.0235796
0.0229001
0.0222518
0.0216548
0.0211088
0.0206064
0.0201431
0.0197186
0.0193336
0.0189866
0.0186743
0.0183927
0.0181387
0.0179099
0.0177044
0.0175203
0.0173559
0.0172094
0.0170796
0.0169651
0.0168648
0.0167778
0.0167031
0.0166398
0.0165871
0.0165445
0.0165111
0.0164864
0.0164699
0.0164609
0.0164589
0.0164636
0.0164743
0.0164906
0.016512
0.0165379
0.0165678
0.0166009
0.0166363
0.0166729
0.0167091
0.0167432
0.0167728
0.0167948
0.0168055
0.0168007
0.025071
0.0248754
0.0244966
0.0239726
0.0233632
0.0227298
0.0221172
0.0215466
0.0210208
0.0205351
0.0200858
0.0196724
0.0192953
0.0189538
0.0186452
0.0183661
0.0181136
0.0178853
0.0176794
0.0174942
0.017328
0.0171793
0.0170467
0.016929
0.016825
0.0167338
0.0166544
0.016586
0.0165279
0.0164792
0.0164394
0.0164077
0.0163836
0.0163664
0.0163557
0.0163509
0.0163514
0.0163566
0.016366
0.0163789
0.0163945
0.016412
0.0164303
0.016448
0.0164636
0.0164751
0.0164798
0.0164748
0.0164562
0.01642
0.0247028
0.0245257
0.0241819
0.0237038
0.0231429
0.0225533
0.0219758
0.0214318
0.0209265
0.0204577
0.0200224
0.0196202
0.0192515
0.018916
0.0186114
0.0183351
0.0180842
0.0178566
0.0176505
0.0174644
0.0172966
0.0171457
0.0170104
0.0168894
0.0167816
0.0166862
0.0166021
0.0165286
0.0164649
0.0164101
0.0163636
0.0163248
0.016293
0.0162675
0.0162479
0.0162334
0.0162234
0.0162174
0.0162146
0.0162141
0.0162153
0.016217
0.0162181
0.016217
0.0162121
0.0162011
0.0161815
0.0161503
0.0161036
0.0160374
0.0243446
0.0241841
0.0238717
0.0234354
0.0229194
0.0223712
0.0218279
0.0213104
0.0208259
0.020374
0.0199529
0.0195621
0.0192022
0.018873
0.0185729