/*--------------------------------*- C++ -*----------------------------------*\
  =========                 |
  \\      /  F ield         | OpenFOAM: The Open Source CFD Toolbox
   \\    /   O peration     | Website:  https://openfoam.org
    \\  /    A nd           | Version:  7
     \\/     M anipulation  |
\*---------------------------------------------------------------------------*/
FoamFile
{
    version     2.0;
    format      ascii;
    class       volVectorField;
    location    "0.2";
    object      U;
}
// * * * * * * * * * * * * * * * * * * * * * * * * * * * * * * * * * * * * * //

dimensions      [0 1 -1 0 0 0 0];

internalField   nonuniform List<vector> 
70000
(
(0.553411 0.0169783 0)
(0.251403 0.00340071 0)
(0.165892 0.000319298 0)
(0.132386 4.93055e-05 0)
(0.117255 4.43568e-05 0)
(0.107268 5.25332e-05 0)
(0.0992655 4.47447e-05 0)
(0.0927886 3.56838e-05 0)
(0.0875095 2.96636e-05 0)
(0.0831034 2.55438e-05 0)
(0.079342 2.24014e-05 0)
(0.0760777 1.98894e-05 0)
(0.0732089 1.78484e-05 0)
(0.0706614 1.61692e-05 0)
(0.0683791 1.47711e-05 0)
(0.0663181 1.35942e-05 0)
(0.0644443 1.25944e-05 0)
(0.0627302 1.17383e-05 0)
(0.0611534 1.10005e-05 0)
(0.0596957 1.03616e-05 0)
(0.0583417 9.80629e-06 0)
(0.0570785 9.3226e-06 0)
(0.0558953 8.90086e-06 0)
(0.0547825 8.53348e-06 0)
(0.053732 8.21397e-06 0)
(0.0527366 7.93759e-06 0)
(0.05179 7.69935e-06 0)
(0.0508867 7.49687e-06 0)
(0.0500216 7.32503e-06 0)
(0.0491901 7.18432e-06 0)
(0.0483882 7.06709e-06 0)
(0.0476119 6.97883e-06 0)
(0.0468582 6.90479e-06 0)
(0.0461236 6.86017e-06 0)
(0.0454055 6.8159e-06 0)
(0.044701 6.80226e-06 0)
(0.044008 6.77092e-06 0)
(0.0433251 6.76026e-06 0)
(0.0426484 6.73017e-06 0)
(0.0419824 6.64131e-06 0)
(0.0413146 6.65296e-06 0)
(0.0406696 6.22626e-06 0)
(0.0400016 6.55313e-06 0)
(0.0394028 4.95801e-06 0)
(0.0387139 6.69965e-06 0)
(0.0382392 1.36611e-06 0)
(0.0374711 8.26503e-06 0)
(0.0373063 -8.57961e-06 0)
(0.0365229 1.8459e-05 0)
(0.0341198 -0.00138482 0)
(0.884861 0.0434941 0)
(0.650127 0.0201508 0)
(0.493916 0.00660731 0)
(0.403439 0.00275796 0)
(0.354663 0.00155161 0)
(0.323274 0.00113573 0)
(0.299292 0.000913665 0)
(0.279994 0.000749406 0)
(0.264186 0.000627053 0)
(0.250965 0.000536936 0)
(0.239679 0.000468635 0)
(0.229885 0.000414991 0)
(0.221278 0.000371753 0)
(0.213635 0.00033627 0)
(0.206787 0.000306736 0)
(0.200604 0.000281859 0)
(0.194984 0.00026069 0)
(0.189843 0.000242521 0)
(0.185116 0.000226813 0)
(0.180748 0.000213155 0)
(0.176693 0.000201224 0)
(0.172912 0.000190766 0)
(0.169373 0.00018158 0)
(0.166047 0.000173505 0)
(0.162911 0.000166408 0)
(0.159943 0.000160186 0)
(0.157124 0.00015475 0)
(0.154437 0.000150031 0)
(0.151867 0.000145967 0)
(0.149402 0.000142519 0)
(0.147027 0.000139633 0)
(0.144733 0.000137297 0)
(0.142508 0.000135447 0)
(0.140344 0.000134113 0)
(0.138231 0.000133175 0)
(0.13616 0.000132747 0)
(0.134125 0.000132573 0)
(0.132119 0.000132927 0)
(0.130132 0.000133292 0)
(0.128172 0.000134177 0)
(0.126205 0.000134731 0)
(0.124291 0.000135484 0)
(0.122306 0.00013582 0)
(0.120488 0.000134507 0)
(0.118415 0.000134754 0)
(0.116872 0.000125115 0)
(0.114537 0.000130768 0)
(0.113693 7.25373e-05 0)
(0.111161 0.000262899 0)
(0.108226 -0.00234585 0)
(0.991209 0.049957 0)
(0.890908 0.0305666 0)
(0.762433 0.0146168 0)
(0.656405 0.00797879 0)
(0.58521 0.00488906 0)
(0.535733 0.0034853 0)
(0.497718 0.00275024 0)
(0.466954 0.00225697 0)
(0.441495 0.00189425 0)
(0.420033 0.00162372 0)
(0.401619 0.00141746 0)
(0.385584 0.00125543 0)
(0.371452 0.00112487 0)
(0.358873 0.0010177 0)
(0.347583 0.000928439 0)
(0.337373 0.000853182 0)
(0.32808 0.000789078 0)
(0.319573 0.000733997 0)
(0.311745 0.000686321 0)
(0.304507 0.000644806 0)
(0.297785 0.000608483 0)
(0.291517 0.000576587 0)
(0.28565 0.000548511 0)
(0.280138 0.000523766 0)
(0.274942 0.000501957 0)
(0.270026 0.000482765 0)
(0.26536 0.000465929 0)
(0.260917 0.000451237 0)
(0.256672 0.000438513 0)
(0.252603 0.000427623 0)
(0.248689 0.000418435 0)
(0.244913 0.000410888 0)
(0.241257 0.000404841 0)
(0.237705 0.000400332 0)
(0.234244 0.000397114 0)
(0.230857 0.000395426 0)
(0.227533 0.000394697 0)
(0.224262 0.000395621 0)
(0.221025 0.000396835 0)
(0.217832 0.000400026 0)
(0.21463 0.000402152 0)
(0.211505 0.00040678 0)
(0.208274 0.000407898 0)
(0.205274 0.000411521 0)
(0.201895 0.000408757 0)
(0.199248 0.000402051 0)
(0.195462 0.000400766 0)
(0.193713 0.000300153 0)
(0.189461 0.000561317 0)
(0.187144 -0.00222139 0)
(1.01554 0.0489556 0)
(1.00648 0.0357299 0)
(0.935843 0.0208292 0)
(0.851903 0.013512 0)
(0.782034 0.00921458 0)
(0.726766 0.00680266 0)
(0.681535 0.00540882 0)
(0.643614 0.00446964 0)
(0.611424 0.00377695 0)
(0.583773 0.00325311 0)
(0.55972 0.00284908 0)
(0.538559 0.00252951 0)
(0.519762 0.00227089 0)
(0.502923 0.0020578 0)
(0.487729 0.00187973 0)
(0.47393 0.00172916 0)
(0.461326 0.00160058 0)
(0.449754 0.00148982 0)
(0.439077 0.00139373 0)
(0.429185 0.00130987 0)
(0.419982 0.00123633 0)
(0.411389 0.00117161 0)
(0.403337 0.00111449 0)
(0.395766 0.00106401 0)
(0.388623 0.00101939 0)
(0.381865 0.000979981 0)
(0.375449 0.000945275 0)
(0.36934 0.000914843 0)
(0.363505 0.000888339 0)
(0.357915 0.000865488 0)
(0.352544 0.000846045 0)
(0.347365 0.000829865 0)
(0.342358 0.000816717 0)
(0.337499 0.000806626 0)
(0.332771 0.000799209 0)
(0.328152 0.000794838 0)
(0.323626 0.000792578 0)
(0.319179 0.000793662 0)
(0.314786 0.000795638 0)
(0.310456 0.000801876 0)
(0.306125 0.000806167 0)
(0.301888 0.000816943 0)
(0.297531 0.000819451 0)
(0.293437 0.00083276 0)
(0.288904 0.000825922 0)
(0.285188 0.000830832 0)
(0.280184 0.000817224 0)
(0.277404 0.000693383 0)
(0.271755 0.000934443 0)
(0.269369 -0.00161408 0)
(1.01435 0.0461002 0)
(1.04797 0.0373482 0)
(1.02454 0.0241998 0)
(0.974601 0.0175763 0)
(0.923324 0.0131329 0)
(0.876483 0.0102339 0)
(0.834181 0.00837774 0)
(0.796271 0.00705839 0)
(0.762532 0.00605071 0)
(0.732522 0.00526634 0)
(0.705729 0.00464781 0)
(0.681682 0.00415076 0)
(0.659982 0.00374373 0)
(0.640297 0.00340524 0)
(0.62235 0.00312021 0)
(0.60591 0.00287765 0)
(0.590786 0.00266935 0)
(0.576813 0.00248907 0)
(0.563856 0.00233199 0)
(0.551797 0.00219436 0)
(0.540536 0.00207323 0)
(0.529987 0.00196623 0)
(0.520073 0.00187149 0)
(0.51073 0.00178747 0)
(0.501898 0.00171293 0)
(0.493528 0.00164685 0)
(0.485571 0.00158841 0)
(0.477988 0.00153692 0)
(0.470741 0.00149182 0)
(0.463795 0.00145268 0)
(0.45712 0.00141911 0)
(0.450686 0.00139086 0)
(0.444467 0.0013676 0)
(0.438436 0.00134933 0)
(0.432572 0.00133552 0)
(0.426851 0.00132668 0)
(0.421252 0.00132151 0)
(0.415757 0.00132182 0)
(0.410339 0.00132399 0)
(0.405003 0.00133328 0)
(0.399681 0.00133994 0)
(0.394464 0.00135801 0)
(0.389138 0.00136274 0)
(0.384075 0.00138831 0)
(0.378582 0.00137874 0)
(0.37388 0.00139903 0)
(0.367939 0.00137412 0)
(0.364082 0.0012399 0)
(0.35754 0.00142757 0)
(0.354212 -0.00083747 0)
(1.0094 0.0430501 0)
(1.05563 0.0371045 0)
(1.05865 0.0253434 0)
(1.03625 0.0197853 0)
(1.00701 0.0158273 0)
(0.975907 0.0129702 0)
(0.944258 0.0110048 0)
(0.913242 0.00952683 0)
(0.883716 0.00834032 0)
(0.856065 0.00737733 0)
(0.830368 0.00659249 0)
(0.806563 0.00594549 0)
(0.784529 0.00540496 0)
(0.764123 0.00494813 0)
(0.745199 0.00455832 0)
(0.727615 0.00422289 0)
(0.71124 0.00393212 0)
(0.695957 0.00367842 0)
(0.681658 0.0034558 0)
(0.668248 0.00325954 0)
(0.655642 0.00308581 0)
(0.643763 0.00293158 0)
(0.632543 0.00279434 0)
(0.621922 0.00267206 0)
(0.611844 0.00256309 0)
(0.602259 0.00246605 0)
(0.593122 0.00237982 0)
(0.584392 0.00230346 0)
(0.576032 0.00223624 0)
(0.568006 0.00217752 0)
(0.560282 0.00212679 0)
(0.55283 0.0020837 0)
(0.545622 0.00204783 0)
(0.538631 0.00201914 0)
(0.531832 0.00199699 0)
(0.5252 0.001982 0)
(0.518714 0.00197254 0)
(0.512351 0.00197097 0)
(0.506086 0.00197258 0)
(0.499915 0.00198443 0)
(0.49378 0.00199347 0)
(0.487752 0.00201892 0)
(0.481642 0.00202696 0)
(0.47577 0.00206505 0)
(0.469531 0.00205605 0)
(0.463975 0.00209037 0)
(0.457376 0.00206125 0)
(0.452496 0.00191714 0)
(0.445482 0.00205674 0)
(0.44094 6.03955e-05 0)
(1.00635 0.0401824 0)
(1.0524 0.0361586 0)
(1.06603 0.0252685 0)
(1.05949 0.0205934 0)
(1.04681 0.0172593 0)
(1.03069 0.0146956 0)
(1.0117 0.0128732 0)
(0.990887 0.0114547 0)
(0.969326 0.0102639 0)
(0.947745 0.00925495 0)
(0.926588 0.00840179 0)
(0.906119 0.00767638 0)
(0.886484 0.00705435 0)
(0.867755 0.00651698 0)
(0.849949 0.00604982 0)
(0.833053 0.00564142 0)
(0.817035 0.00528256 0)
(0.801853 0.00496574 0)
(0.787457 0.0046849 0)
(0.773798 0.00443504 0)
(0.760825 0.00421211 0)
(0.74849 0.00401275 0)
(0.736746 0.00383418 0)
(0.72555 0.00367412 0)
(0.714859 0.00353065 0)
(0.704634 0.00340218 0)
(0.69484 0.00328742 0)
(0.685441 0.00318526 0)
(0.676405 0.00309482 0)
(0.667701 0.00301536 0)
(0.659301 0.00294628 0)
(0.651176 0.00288715 0)
(0.643302 0.00283749 0)
(0.635651 0.00279726 0)
(0.628201 0.00276572 0)
(0.620927 0.00274362 0)
(0.613808 0.00272908 0)
(0.606822 0.00272489 0)
(0.599945 0.00272551 0)
(0.593168 0.0027394 0)
(0.586443 0.00275098 0)
(0.579819 0.00278336 0)
(0.573144 0.00279608 0)
(0.566669 0.00284545 0)
(0.559912 0.00284133 0)
(0.553692 0.00288552 0)
(0.546685 0.00286122 0)
(0.540961 0.00270467 0)
(0.533724 0.00280568 0)
(0.528162 0.00107271 0)
(1.00506 0.0375056 0)
(1.04762 0.0350612 0)
(1.06393 0.0247225 0)
(1.06414 0.0206269 0)
(1.06062 0.0178015 0)
(1.05467 0.0155423 0)
(1.04584 0.0139374 0)
(1.03455 0.0126865 0)
(1.02152 0.0116089 0)
(1.00734 0.0106653 0)
(0.992482 0.00984201 0)
(0.977291 0.00912144 0)
(0.962035 0.00848689 0)
(0.946909 0.00792534 0)
(0.932049 0.00742661 0)
(0.917547 0.00698228 0)
(0.903461 0.00658527 0)
(0.889824 0.00622957 0)
(0.876653 0.00591013 0)
(0.863952 0.00562263 0)
(0.851715 0.00536344 0)
(0.83993 0.0051295 0)
(0.828582 0.0049182 0)
(0.817652 0.00472735 0)
(0.80712 0.00455508 0)
(0.796965 0.00439983 0)
(0.787164 0.0042603 0)
(0.777697 0.00413538 0)
(0.768541 0.00402417 0)
(0.759674 0.00392593 0)
(0.751076 0.00384006 0)
(0.742724 0.00376612 0)
(0.734599 0.00370365 0)
(0.726679 0.00365262 0)
(0.718945 0.00361231 0)
(0.711375 0.00358355 0)
(0.703953 0.00356433 0)
(0.696655 0.00355776 0)
(0.689464 0.00355782 0)
(0.682367 0.00357383 0)
(0.675327 0.00358867 0)
(0.668374 0.00362763 0)
(0.661396 0.0036468 0)
(0.65457 0.00370589 0)
(0.647546 0.003711 0)
(0.640912 0.00376103 0)
(0.633728 0.00374856 0)
(0.627437 0.00358106 0)
(0.620142 0.00364836 0)
(0.613903 0.00217239 0)
(1.00451 0.03497 0)
(1.04359 0.0339822 0)
(1.05991 0.0240731 0)
(1.06219 0.0203397 0)
(1.06245 0.0178695 0)
(1.06175 0.0158262 0)
(1.05912 0.014397 0)
(1.0545 0.0133139 0)
(1.04819 0.0123807 0)
(1.0405 0.0115514 0)
(1.03171 0.0108149 0)
(1.02209 0.0101576 0)
(1.01184 0.00956664 0)
(1.00119 0.0090327 0)
(0.990273 0.00854892 0)
(0.979237 0.0081098 0)
(0.968181 0.00771063 0)
(0.957184 0.00734732 0)
(0.946307 0.00701633 0)
(0.935593 0.00671454 0)
(0.925075 0.00643926 0)
(0.914774 0.00618813 0)
(0.904704 0.00595912 0)
(0.894871 0.00575044 0)
(0.885279 0.0055606 0)
(0.875927 0.00538828 0)
(0.866809 0.00523239 0)
(0.85792 0.00509199 0)
(0.849251 0.00496634 0)
(0.840791 0.0048548 0)
(0.832531 0.0047569 0)
(0.824457 0.0046723 0)
(0.816558 0.00460061 0)
(0.808818 0.00454191 0)
(0.801225 0.00449554 0)
(0.793763 0.00446245 0)
(0.786419 0.00444065 0)
(0.779176 0.00443344 0)
(0.77202 0.0044346 0)
(0.764937 0.00445389 0)
(0.757903 0.00447363 0)
(0.750932 0.00451962 0)
(0.743948 0.00454747 0)
(0.737068 0.00461546 0)
(0.730052 0.00463362 0)
(0.7233 0.00468745 0)
(0.716179 0.00469083 0)
(0.709645 0.00451846 0)
(0.702466 0.00455521 0)
(0.695904 0.00332108 0)
(1.00412 0.0325398 0)
(1.04026 0.0329297 0)
(1.05615 0.02344 0)
(1.05883 0.0199574 0)
(1.06018 0.0177433 0)
(1.06153 0.0158327 0)
(1.06185 0.0145062 0)
(1.06089 0.0135401 0)
(1.05876 0.0127247 0)
(1.05554 0.0120032 0)
(1.05134 0.0113618 0)
(1.04626 0.0107867 0)
(1.04042 0.0102649 0)
(1.03396 0.00978768 0)
(1.02699 0.00934942 0)
(1.01962 0.00894594 0)
(1.01194 0.00857394 0)
(1.00405 0.00823068 0)
(0.996005 0.00791384 0)
(0.987869 0.00762138 0)
(0.979691 0.00735155 0)
(0.97151 0.00710278 0)
(0.963357 0.00687372 0)
(0.955258 0.00666317 0)
(0.947232 0.0064701 0)
(0.939292 0.00629359 0)
(0.93145 0.00613292 0)
(0.923712 0.00598744 0)
(0.916082 0.00585667 0)
(0.908561 0.0057402 0)
(0.901148 0.00563775 0)
(0.89384 0.00554917 0)
(0.886635 0.00547426 0)
(0.879524 0.00541324 0)
(0.872503 0.0053656 0)
(0.865561 0.00533242 0)
(0.858692 0.00531185 0)
(0.851883 0.0053073 0)
(0.845128 0.00531266 0)
(0.838413 0.00533769 0)
(0.831725 0.00536499 0)
(0.825068 0.00541955 0)
(0.818394 0.00545883 0)
(0.811777 0.00553614 0)
(0.805059 0.00557066 0)
(0.798504 0.00562857 0)
(0.791702 0.00564985 0)
(0.785257 0.00548121 0)
(0.7784 0.00549176 0)
(0.771857 0.00447777 0)
(1.00374 0.0302059 0)
(1.03726 0.0318816 0)
(1.05281 0.0228381 0)
(1.05559 0.0195574 0)
(1.05709 0.0175558 0)
(1.05899 0.0157347 0)
(1.06038 0.0144569 0)
(1.06102 0.0135554 0)
(1.06096 0.012815 0)
(1.06023 0.0121693 0)
(1.05883 0.011602 0)
(1.05677 0.0110978 0)
(1.05409 0.0106423 0)
(1.05082 0.0102256 0)
(1.04704 0.00984163 0)
(1.04279 0.00948603 0)
(1.03815 0.00915576 0)
(1.03316 0.00884848 0)
(1.02789 0.00856236 0)
(1.02238 0.00829593 0)
(1.01668 0.00804798 0)
(1.01082 0.00781751 0)
(1.00484 0.00760365 0)
(0.99878 0.00740568 0)
(0.992651 0.00722298 0)
(0.986479 0.00705504 0)
(0.980282 0.00690147 0)
(0.974075 0.00676194 0)
(0.967868 0.00663625 0)
(0.961672 0.00652427 0)
(0.955492 0.00642595 0)
(0.949333 0.00634136 0)
(0.943198 0.00627052 0)
(0.937087 0.00621383 0)
(0.931 0.00617099 0)
(0.924934 0.00614324 0)
(0.918888 0.0061289 0)
(0.912854 0.00613149 0)
(0.906829 0.00614516 0)
(0.900807 0.00617942 0)
(0.894779 0.00621773 0)
(0.888747 0.00628335 0)
(0.882681 0.00633721 0)
(0.876629 0.0064254 0)
(0.87049 0.00647923 0)
(0.864431 0.00654336 0)
(0.8582 0.0065837 0)
(0.852157 0.00642817 0)
(0.845841 0.00641888 0)
(0.839633 0.00560005 0)
(1.00337 0.0279707 0)
(1.03442 0.0308254 0)
(1.0497 0.0222612 0)
(1.05263 0.0191547 0)
(1.05409 0.0173498 0)
(1.05604 0.0156075 0)
(1.05771 0.0143527 0)
(1.05888 0.013483 0)
(1.05963 0.0127844 0)
(1.06002 0.0121832 0)
(1.06003 0.0116624 0)
(1.05962 0.0112063 0)
(1.0588 0.0107996 0)
(1.05756 0.0104311 0)
(1.05593 0.0100937 0)
(1.05391 0.00978238 0)
(1.05153 0.00949366 0)
(1.04883 0.00922495 0)
(1.04582 0.00897431 0)
(1.04254 0.00874029 0)
(1.03902 0.00852182 0)
(1.03528 0.00831804 0)
(1.03136 0.00812832 0)
(1.02726 0.00795214 0)
(1.02303 0.00778913 0)
(1.01867 0.00763902 0)
(1.0142 0.00750164 0)
(1.00964 0.0073769 0)
(1.005 0.00726482 0)
(1.0003 0.00716547 0)
(0.995537 0.00707903 0)
(0.990728 0.00700577 0)
(0.985878 0.0069459 0)
(0.980989 0.0069 0)
(0.976067 0.00686797 0)
(0.971111 0.00685121 0)
(0.966125 0.00684824 0)
(0.961105 0.00686264 0)
(0.956053 0.00688894 0)
(0.950965 0.00693621 0)
(0.945837 0.00698917 0)
(0.940672 0.00706871 0)
(0.935451 0.00714027 0)
(0.930205 0.00724153 0)
(0.924874 0.00731708 0)
(0.919557 0.00739068 0)
(0.914111 0.00745081 0)
(0.90873 0.00731728 0)
(0.903151 0.00729605 0)
(0.897543 0.00664681 0)
(1.00301 0.0258378 0)
(1.0317 0.0297572 0)
(1.04671 0.0217056 0)
(1.04983 0.0187492 0)
(1.05127 0.0171322 0)
(1.05319 0.0154734 0)
(1.05489 0.0142348 0)
(1.05617 0.0133823 0)
(1.05716 0.0127078 0)
(1.05795 0.0121314 0)
(1.05852 0.0116363 0)
(1.05886 0.0112081 0)
(1.05895 0.0108314 0)
(1.0588 0.0104945 0)
(1.05838 0.0101895 0)
(1.05771 0.00991092 0)
(1.05677 0.00965477 0)
(1.05559 0.00941801 0)
(1.05416 0.00919843 0)
(1.0525 0.00899433 0)
(1.05062 0.00880448 0)
(1.04854 0.00862796 0)
(1.04626 0.00846408 0)
(1.0438 0.00831235 0)
(1.04118 0.00817244 0)
(1.0384 0.00804414 0)
(1.03549 0.00792736 0)
(1.03244 0.00782212 0)
(1.02928 0.00772855 0)
(1.02601 0.00764684 0)
(1.02264 0.0075773 0)
(1.01918 0.00752033 0)
(1.01564 0.00747628 0)
(1.01201 0.00744589 0)
(1.00831 0.00742917 0)
(1.00454 0.00742767 0)
(1.00071 0.00744011 0)
(0.996801 0.00747004 0)
(0.992831 0.00751247 0)
(0.988795 0.00757582 0)
(0.984692 0.00764638 0)
(0.980526 0.00774225 0)
(0.976285 0.00783393 0)
(0.97199 0.0079503 0)
(0.967608 0.0080491 0)
(0.96319 0.00813558 0)
(0.958667 0.0082158 0)
(0.954124 0.00811158 0)
(0.949417 0.00808688 0)
(0.944597 0.00758277 0)
(1.00268 0.0238098 0)
(1.0291 0.0286751 0)
(1.0438 0.0211707 0)
(1.04714 0.0183407 0)
(1.04858 0.0169012 0)
(1.05046 0.0153351 0)
(1.05216 0.0141143 0)
(1.05345 0.0132743 0)
(1.05448 0.0126171 0)
(1.05536 0.0120568 0)
(1.0561 0.0115764 0)
(1.05671 0.0111636 0)
(1.05717 0.0108038 0)
(1.05749 0.0104851 0)
(1.05766 0.0101997 0)
(1.05767 0.00994177 0)
(1.05752 0.00970716 0)
(1.0572 0.00949258 0)
(1.05672 0.00929554 0)
(1.05607 0.00911416 0)
(1.05526 0.00894701 0)
(1.05429 0.00879301 0)
(1.05316 0.00865136 0)
(1.05188 0.00852147 0)
(1.05046 0.00840294 0)
(1.04889 0.00829552 0)
(1.04719 0.00819911 0)
(1.04536 0.00811371 0)
(1.04341 0.00803946 0)
(1.04134 0.00797661 0)
(1.03916 0.00792548 0)
(1.03687 0.00788657 0)
(1.03449 0.00786025 0)
(1.03201 0.00784739 0)
(1.02943 0.00784806 0)
(1.02677 0.00786388 0)
(1.02402 0.00789374 0)
(1.02118 0.00794109 0)
(1.01827 0.00800145 0)
(1.01527 0.00808246 0)
(1.01219 0.00817212 0)
(1.00903 0.00828552 0)
(1.00578 0.00839836 0)
(1.00247 0.00853104 0)
(0.999062 0.00865324 0)
(0.995593 0.00875532 0)
(0.99203 0.00885522 0)
(0.988396 0.00878528 0)
(0.984612 0.00876503 0)
(0.980666 0.00838364 0)
(1.00238 0.0218883 0)
(1.02663 0.0275784 0)
(1.04098 0.0206563 0)
(1.04454 0.0179308 0)
(1.04599 0.0166557 0)
(1.04784 0.015191 0)
(1.04954 0.0139925 0)
(1.05082 0.013164 0)
(1.05184 0.0125227 0)
(1.05272 0.0119757 0)
(1.0535 0.0115058 0)
(1.05417 0.0111027 0)
(1.05475 0.0107527 0)
(1.05524 0.0104446 0)
(1.05564 0.0101704 0)
(1.05594 0.00992446 0)
(1.05614 0.00970267 0)
(1.05625 0.00950171 0)
(1.05625 0.00931901 0)
(1.05615 0.00915262 0)
(1.05594 0.009001 0)
(1.05562 0.00886299 0)
(1.05519 0.00873769 0)
(1.05465 0.00862443 0)
(1.054 0.00852272 0)
(1.05324 0.00843225 0)
(1.05237 0.00835285 0)
(1.0514 0.00828448 0)
(1.05032 0.00822725 0)
(1.04914 0.00818139 0)
(1.04786 0.00814721 0)
(1.04648 0.00812521 0)
(1.04501 0.00811578 0)
(1.04344 0.00811981 0)
(1.04178 0.00813741 0)
(1.04003 0.00817024 0)
(1.03819 0.00821728 0)
(1.03627 0.00828184 0)
(1.03426 0.00835995 0)
(1.03217 0.00845835 0)
(1.03 0.00856682 0)
(1.02774 0.00869738 0)
(1.0254 0.00883076 0)
(1.02298 0.00897967 0)
(1.02048 0.00912389 0)
(1.01791 0.00924296 0)
(1.01524 0.00936131 0)
(1.01248 0.00932786 0)
(1.00958 0.00931852 0)
(1.00649 0.00903975 0)
(1.0021 0.0200743 0)
(1.0243 0.0264691 0)
(1.03824 0.0201601 0)
(1.04201 0.0175213 0)
(1.04349 0.0163956 0)
(1.04531 0.0150398 0)
(1.04701 0.0138687 0)
(1.04829 0.0130519 0)
(1.0493 0.0124263 0)
(1.05016 0.0118927 0)
(1.05093 0.0114323 0)
(1.05161 0.0110369 0)
(1.05221 0.0106942 0)
(1.05274 0.0103931 0)
(1.0532 0.0101259 0)
(1.0536 0.00988718 0)
(1.05394 0.00967297 0)
(1.05421 0.00948005 0)
(1.05442 0.00930592 0)
(1.05457 0.00914865 0)
(1.05465 0.00900673 0)
(1.05466 0.00887897 0)
(1.0546 0.00876446 0)
(1.05447 0.0086625 0)
(1.05426 0.00857256 0)
(1.05397 0.00849429 0)
(1.05361 0.00842747 0)
(1.05317 0.00837203 0)
(1.05264 0.00832805 0)
(1.05204 0.0082957 0)
(1.05136 0.00827529 0)
(1.0506 0.0082673 0)
(1.04977 0.00827209 0)
(1.04885 0.00829057 0)
(1.04785 0.00832285 0)
(1.04678 0.00837056 0)
(1.04563 0.0084328 0)
(1.0444 0.00851266 0)
(1.0431 0.00860667 0)
(1.04172 0.00872061 0)
(1.04027 0.00884603 0)
(1.03874 0.00899199 0)
(1.03714 0.00914377 0)
(1.03546 0.00930759 0)
(1.03372 0.00947113 0)
(1.03189 0.00960713 0)
(1.02999 0.00974193 0)
(1.02798 0.0097446 0)
(1.02584 0.00975078 0)
(1.02352 0.00955691 0)
(1.00185 0.0183681 0)
(1.0221 0.0253512 0)
(1.03561 0.0196785 0)
(1.03958 0.0171141 0)
(1.04107 0.0161215 0)
(1.04287 0.0148807 0)
(1.04456 0.0137426 0)
(1.04585 0.0129378 0)
(1.04684 0.012328 0)
(1.0477 0.0118084 0)
(1.04845 0.0113578 0)
(1.04912 0.0109699 0)
(1.04971 0.0106337 0)
(1.05024 0.0103384 0)
(1.05071 0.0100766 0)
(1.05113 0.00984307 0)
(1.0515 0.00963396 0)
(1.05183 0.00944621 0)
(1.05211 0.00927745 0)
(1.05235 0.00912582 0)
(1.05255 0.00898989 0)
(1.0527 0.00886851 0)
(1.05281 0.00876082 0)
(1.05286 0.00866613 0)
(1.05287 0.00858393 0)
(1.05283 0.00851385 0)
(1.05273 0.00845567 0)
(1.05258 0.00840932 0)
(1.05237 0.00837482 0)
(1.0521 0.00835237 0)
(1.05178 0.00834223 0)
(1.05139 0.00834487 0)
(1.05095 0.00836065 0)
(1.05045 0.00839045 0)
(1.04988 0.00843441 0)
(1.04925 0.00849406 0)
(1.04856 0.00856867 0)
(1.04781 0.00866101 0)
(1.047 0.00876817 0)
(1.04613 0.00889494 0)
(1.04519 0.0090345 0)
(1.04419 0.00919326 0)
(1.04313 0.00936039 0)
(1.04201 0.00953696 0)
(1.04083 0.00971637 0)
(1.03957 0.00986809 0)
(1.03826 0.0100169 0)
(1.03684 0.0100534 0)
(1.0353 0.010078 0)
(1.03358 0.00995383 0)
(1.00162 0.0167694 0)
(1.02004 0.024229 0)
(1.03308 0.0192073 0)
(1.03723 0.0167108 0)
(1.03876 0.0158346 0)
(1.04051 0.014713 0)
(1.0422 0.0136138 0)
(1.04349 0.0128215 0)
(1.04448 0.0122276 0)
(1.04532 0.0117227 0)
(1.04606 0.0112824 0)
(1.04672 0.0109022 0)
(1.0473 0.0105725 0)
(1.04781 0.0102829 0)
(1.04827 0.0100261 0)
(1.04869 0.00979712 0)
(1.04906 0.00959221 0)
(1.0494 0.00940847 0)
(1.0497 0.00924366 0)
(1.04996 0.00909601 0)
(1.05019 0.00896418 0)
(1.05039 0.00884709 0)
(1.05056 0.00874394 0)
(1.05069 0.00865409 0)
(1.05079 0.00857705 0)
(1.05085 0.00851249 0)
(1.05087 0.0084602 0)
(1.05085 0.00842012 0)
(1.0508 0.00839226 0)
(1.0507 0.00837684 0)
(1.05056 0.00837408 0)
(1.05038 0.00838449 0)
(1.05015 0.00840838 0)
(1.04988 0.00844665 0)
(1.04956 0.00849943 0)
(1.0492 0.0085682 0)
(1.04879 0.00865235 0)
(1.04833 0.00875434 0)
(1.04782 0.00887181 0)
(1.04726 0.00900856 0)
(1.04666 0.00915931 0)
(1.046 0.00932813 0)
(1.04531 0.00950736 0)
(1.04455 0.00969431 0)
(1.04376 0.0098861 0)
(1.0429 0.0100517 0)
(1.04199 0.0102124 0)
(1.04099 0.0102794 0)
(1.03988 0.0103237 0)
(1.0386 0.0102569 0)
(1.00142 0.0152774 0)
(1.01811 0.0231065 0)
(1.03066 0.0187425 0)
(1.03496 0.0163128 0)
(1.03653 0.0155362 0)
(1.03825 0.0145361 0)
(1.03993 0.013482 0)
(1.04122 0.0127031 0)
(1.04221 0.0121249 0)
(1.04304 0.0116353 0)
(1.04377 0.011206 0)
(1.04441 0.0108339 0)
(1.04498 0.0105108 0)
(1.04548 0.0102271 0)
(1.04593 0.00997536 0)
(1.04633 0.00975083 0)
(1.0467 0.00954992 0)
(1.04703 0.00936988 0)
(1.04732 0.00920854 0)
(1.04758 0.00906426 0)
(1.04782 0.00893575 0)
(1.04803 0.00882205 0)
(1.04821 0.00872238 0)
(1.04836 0.00863616 0)
(1.04848 0.00856295 0)
(1.04858 0.00850246 0)
(1.04865 0.00845449 0)
(1.04868 0.008419 0)
(1.04869 0.00839602 0)
(1.04867 0.00838577 0)
(1.04861 0.00838849 0)
(1.04852 0.00840467 0)
(1.0484 0.00843464 0)
(1.04824 0.00847927 0)
(1.04805 0.00853873 0)
(1.04782 0.00861442 0)
(1.04756 0.00870586 0)
(1.04725 0.00881522 0)
(1.04692 0.00894063 0)
(1.04654 0.00908502 0)
(1.04613 0.00924441 0)
(1.04568 0.00942099 0)
(1.04519 0.00960951 0)
(1.04467 0.00980478 0)
(1.0441 0.010006 0)
(1.0435 0.0101838 0)
(1.04284 0.0103545 0)
(1.0421 0.0104484 0)
(1.04126 0.0105134 0)
(1.04026 0.0104944 0)
(1.00124 0.0138908 0)
(1.01632 0.0219876 0)
(1.02834 0.0182805 0)
(1.03279 0.0159214 0)
(1.0344 0.0152279 0)
(1.03608 0.0143495 0)
(1.03775 0.0133467 0)
(1.03904 0.0125827 0)
(1.04003 0.0120199 0)
(1.04085 0.0115462 0)
(1.04156 0.0111285 0)
(1.04219 0.0107648 0)
(1.04275 0.0104487 0)
(1.04324 0.010171 0)
(1.04368 0.00992449 0)
(1.04407 0.00970452 0)
(1.04442 0.00950767 0)
(1.04474 0.0093313 0)
(1.04503 0.00917338 0)
(1.04528 0.00903232 0)
(1.04551 0.00890694 0)
(1.04571 0.00879631 0)
(1.04589 0.00869974 0)
(1.04604 0.00861669 0)
(1.04617 0.00854677 0)
(1.04627 0.0084897 0)
(1.04635 0.00844533 0)
(1.0464 0.00841361 0)
(1.04643 0.00839462 0)
(1.04643 0.00838856 0)
(1.0464 0.00839569 0)
(1.04635 0.0084165 0)
(1.04627 0.00845135 0)
(1.04616 0.00850106 0)
(1.04602 0.00856587 0)
(1.04585 0.00864705 0)
(1.04565 0.00874432 0)
(1.04543 0.0088595 0)
(1.04517 0.00899122 0)
(1.04489 0.00914163 0)
(1.04457 0.00930783 0)
(1.04423 0.00949056 0)
(1.04385 0.0096863 0)
(1.04345 0.00988846 0)
(1.04302 0.010097 0)
(1.04254 0.0102857 0)
(1.04202 0.0104655 0)
(1.04143 0.0105834 0)
(1.04075 0.0106695 0)
(1.03992 0.0106915 0)
(1.00107 0.0126074 0)
(1.01466 0.0208765 0)
(1.02613 0.0178177 0)
(1.0307 0.0155374 0)
(1.03237 0.0149115 0)
(1.034 0.0141527 0)
(1.03565 0.0132076 0)
(1.03695 0.0124602 0)
(1.03793 0.0119126 0)
(1.03874 0.0114552 0)
(1.03945 0.0110498 0)
(1.04007 0.010695 0)
(1.04062 0.010386 0)
(1.0411 0.0101145 0)
(1.04153 0.00987345 0)
(1.04191 0.0096582 0)
(1.04225 0.00946553 0)
(1.04255 0.00929294 0)
(1.04283 0.00913848 0)
(1.04307 0.00900069 0)
(1.04329 0.00887843 0)
(1.04349 0.00877085 0)
(1.04365 0.00867731 0)
(1.0438 0.00859732 0)
(1.04392 0.00853053 0)
(1.04402 0.00847668 0)
(1.04409 0.00843564 0)
(1.04414 0.00840741 0)
(1.04417 0.00839203 0)
(1.04418 0.00838976 0)
(1.04415 0.00840083 0)
(1.04411 0.00842576 0)
(1.04404 0.00846489 0)
(1.04394 0.00851905 0)
(1.04382 0.0085885 0)
(1.04368 0.00867443 0)
(1.04351 0.0087767 0)
(1.04331 0.00889686 0)
(1.04309 0.00903393 0)
(1.04284 0.00918945 0)
(1.04257 0.00936134 0)
(1.04228 0.00954932 0)
(1.04196 0.009751 0)
(1.04161 0.00995927 0)
(1.04123 0.0101741 0)
(1.04082 0.0103727 0)
(1.04037 0.0105615 0)
(1.03985 0.0107011 0)
(1.03924 0.0108091 0)
(1.0385 0.0108676 0)
(1.00093 0.0114248 0)
(1.01313 0.0197773 0)
(1.02403 0.0173512 0)
(1.0287 0.0151614 0)
(1.03042 0.014589 0)
(1.03202 0.0139455 0)
(1.03365 0.013064 0)
(1.03495 0.0123358 0)
(1.03593 0.011803 0)
(1.03673 0.0113621 0)
(1.03743 0.0109698 0)
(1.03804 0.0106242 0)
(1.03858 0.0103227 0)
(1.03905 0.0100577 0)
(1.03947 0.0098222 0)
(1.03984 0.00961184 0)
(1.04017 0.00942348 0)
(1.04046 0.00925478 0)
(1.04073 0.0091039 0)
(1.04096 0.00896945 0)
(1.04117 0.00885039 0)
(1.04136 0.00874592 0)
(1.04152 0.00865546 0)
(1.04165 0.00857856 0)
(1.04177 0.0085149 0)
(1.04186 0.00846426 0)
(1.04192 0.00842653 0)
(1.04197 0.00840172 0)
(1.04199 0.00838988 0)
(1.04199 0.00839128 0)
(1.04197 0.00840615 0)
(1.04192 0.00843502 0)
(1.04185 0.00847823 0)
(1.04175 0.00853659 0)
(1.04164 0.00861041 0)
(1.0415 0.00870077 0)
(1.04133 0.00880769 0)
(1.04114 0.00893245 0)
(1.04093 0.00907443 0)
(1.0407 0.00923464 0)
(1.04044 0.00941167 0)
(1.04016 0.00960455 0)
(1.03986 0.00981156 0)
(1.03953 0.0100257 0)
(1.03918 0.0102464 0)
(1.0388 0.0104546 0)
(1.03837 0.010653 0)
(1.03787 0.0108129 0)
(1.03729 0.0109435 0)
(1.03658 0.0110361 0)
(1.0008 0.0103395 0)
(1.01173 0.0186941 0)
(1.02205 0.0168781 0)
(1.02678 0.0147938 0)
(1.02857 0.0142625 0)
(1.03013 0.0137277 0)
(1.03174 0.0129154 0)
(1.03304 0.0122092 0)
(1.03402 0.0116911 0)
(1.03481 0.0112668 0)
(1.0355 0.0108883 0)
(1.0361 0.0105525 0)
(1.03663 0.0102587 0)
(1.03709 0.0100003 0)
(1.0375 0.00977066 0)
(1.03786 0.00956536 0)
(1.03818 0.00938147 0)
(1.03847 0.00921679 0)
(1.03873 0.0090696 0)
(1.03895 0.0089386 0)
(1.03915 0.00882282 0)
(1.03933 0.00872155 0)
(1.03948 0.00863425 0)
(1.0396 0.00856051 0)
(1.03971 0.00850006 0)
(1.03979 0.0084527 0)
(1.03985 0.00841833 0)
(1.03989 0.00839697 0)
(1.0399 0.00838872 0)
(1.0399 0.0083938 0)
(1.03987 0.00841249 0)
(1.03981 0.00844528 0)
(1.03974 0.00849256 0)
(1.03964 0.00855509 0)
(1.03952 0.00863322 0)
(1.03938 0.00872794 0)
(1.03921 0.0088394 0)
(1.03902 0.00896868 0)
(1.03881 0.00911541 0)
(1.03858 0.00928026 0)
(1.03833 0.00946223 0)
(1.03805 0.00965999 0)
(1.03775 0.00987217 0)
(1.03743 0.0100922 0)
(1.03708 0.010319 0)
(1.0367 0.0105369 0)
(1.03627 0.0107458 0)
(1.03578 0.0109253 0)
(1.0352 0.0110792 0)
(1.0345 0.0112049 0)
(1.00069 0.00934776 0)
(1.01045 0.0176309 0)
(1.02018 0.0163962 0)
(1.02496 0.0144344 0)
(1.02681 0.0139339 0)
(1.02833 0.0134997 0)
(1.02991 0.012761 0)
(1.03121 0.0120804 0)
(1.0322 0.0115769 0)
(1.03298 0.0111693 0)
(1.03366 0.0108051 0)
(1.03426 0.0104797 0)
(1.03477 0.010194 0)
(1.03523 0.00994242 0)
(1.03563 0.00971877 0)
(1.03598 0.0095187 0)
(1.03629 0.00933943 0)
(1.03657 0.0091789 0)
(1.03682 0.00903552 0)
(1.03704 0.00890808 0)
(1.03723 0.0087957 0)
(1.03739 0.00869772 0)
(1.03754 0.00861366 0)
(1.03766 0.00854318 0)
(1.03775 0.00848602 0)
(1.03783 0.00844202 0)
(1.03788 0.0084111 0)
(1.03791 0.00839329 0)
(1.03792 0.00838868 0)
(1.0379 0.00839753 0)
(1.03787 0.0084201 0)
(1.03781 0.00845688 0)
(1.03773 0.00850829 0)
(1.03762 0.00857503 0)
(1.0375 0.00865751 0)
(1.03735 0.00875665 0)
(1.03718 0.00887268 0)
(1.03699 0.00900652 0)
(1.03678 0.00915803 0)
(1.03654 0.00932758 0)
(1.03628 0.00951451 0)
(1.036 0.00971731 0)
(1.0357 0.00993476 0)
(1.03538 0.010161 0)
(1.03503 0.0103943 0)
(1.03464 0.0106223 0)
(1.03421 0.0108427 0)
(1.03371 0.0110415 0)
(1.03313 0.0112197 0)
(1.03242 0.0113783 0)
(1.0006 0.00844534 0)
(1.00929 0.0165919 0)
(1.01842 0.0159038 0)
(1.02321 0.0140829 0)
(1.02514 0.0136052 0)
(1.02663 0.0132618 0)
(1.02817 0.0126004 0)
(1.02947 0.0119493 0)
(1.03046 0.0114605 0)
(1.03124 0.0110695 0)
(1.03191 0.0107202 0)
(1.0325 0.0104057 0)
(1.03301 0.0101283 0)
(1.03345 0.00988387 0)
(1.03384 0.00966644 0)
(1.03419 0.0094718 0)
(1.03449 0.00929731 0)
(1.03476 0.00914107 0)
(1.035 0.00900162 0)
(1.03521 0.00887785 0)
(1.0354 0.00876896 0)
(1.03556 0.00867437 0)
(1.03569 0.00859367 0)
(1.0358 0.00852653 0)
(1.03589 0.00847276 0)
(1.03596 0.00843221 0)
(1.03601 0.00840483 0)
(1.03603 0.00839065 0)
(1.03603 0.00838979 0)
(1.03601 0.00840248 0)
(1.03597 0.00842903 0)
(1.0359 0.0084699 0)
(1.03582 0.00852551 0)
(1.03571 0.00859655 0)
(1.03558 0.00868348 0)
(1.03543 0.00878712 0)
(1.03525 0.00890781 0)
(1.03505 0.00904632 0)
(1.03484 0.00920267 0)
(1.0346 0.00937709 0)
(1.03434 0.00956909 0)
(1.03406 0.00977719 0)
(1.03375 0.0100002 0)
(1.03342 0.010233 0)
(1.03306 0.0104734 0)
(1.03267 0.0107118 0)
(1.03223 0.0109448 0)
(1.03172 0.0111631 0)
(1.03113 0.0113665 0)
(1.03041 0.0115582 0)
(1.00051 0.00762743 0)
(1.00824 0.0155808 0)
(1.01678 0.0153995 0)
(1.02155 0.0137388 0)
(1.02355 0.013278 0)
(1.02501 0.0130147 0)
(1.02652 0.012433 0)
(1.02782 0.0118155 0)
(1.0288 0.011342 0)
(1.02958 0.0109672 0)
(1.03024 0.0106333 0)
(1.03082 0.0103304 0)
(1.03133 0.0100617 0)
(1.03177 0.0098246 0)
(1.03215 0.00961359 0)
(1.03249 0.00942458 0)
(1.03279 0.00925503 0)
(1.03305 0.00910322 0)
(1.03328 0.00896782 0)
(1.03348 0.00884784 0)