/*--------------------------------*- C++ -*----------------------------------*\
  =========                 |
  \\      /  F ield         | OpenFOAM: The Open Source CFD Toolbox
   \\    /   O peration     | Website:  https://openfoam.org
    \\  /    A nd           | Version:  7
     \\/     M anipulation  |
\*---------------------------------------------------------------------------*/
FoamFile
{
    version     2.0;
    format      ascii;
    class       volVectorField;
    location    "0.2";
    object      U_0;
}
// * * * * * * * * * * * * * * * * * * * * * * * * * * * * * * * * * * * * * //

dimensions      [0 1 -1 0 0 0 0];

internalField   nonuniform List<vector> 
70000
(
(0.553411 0.0169783 0)
(0.251403 0.00340071 0)
(0.165892 0.000319298 0)
(0.132386 4.93051e-05 0)
(0.117255 4.43564e-05 0)
(0.107268 5.25328e-05 0)
(0.0992655 4.47443e-05 0)
(0.0927886 3.56834e-05 0)
(0.0875095 2.96631e-05 0)
(0.0831034 2.55433e-05 0)
(0.0793421 2.24009e-05 0)
(0.0760777 1.98889e-05 0)
(0.073209 1.78479e-05 0)
(0.0706615 1.61687e-05 0)
(0.0683792 1.47706e-05 0)
(0.0663182 1.35937e-05 0)
(0.0644445 1.25939e-05 0)
(0.0627303 1.17378e-05 0)
(0.0611536 1.1e-05 0)
(0.0596959 1.03611e-05 0)
(0.0583419 9.80582e-06 0)
(0.0570787 9.32216e-06 0)
(0.0558955 8.90045e-06 0)
(0.0547827 8.53313e-06 0)
(0.0537322 8.2137e-06 0)
(0.0527368 7.9374e-06 0)
(0.0517902 7.69929e-06 0)
(0.0508869 7.49695e-06 0)
(0.0500217 7.3253e-06 0)
(0.0491901 7.18482e-06 0)
(0.0483882 7.06786e-06 0)
(0.0476119 6.97995e-06 0)
(0.0468581 6.90633e-06 0)
(0.0461233 6.86221e-06 0)
(0.045405 6.81854e-06 0)
(0.0447003 6.80561e-06 0)
(0.0440071 6.77514e-06 0)
(0.0433238 6.76549e-06 0)
(0.0426467 6.73657e-06 0)
(0.0419802 6.64915e-06 0)
(0.0413119 6.66225e-06 0)
(0.0406662 6.23762e-06 0)
(0.0399973 6.5659e-06 0)
(0.0393975 4.97383e-06 0)
(0.0387074 6.71603e-06 0)
(0.0382314 1.38636e-06 0)
(0.0374616 8.28303e-06 0)
(0.0372951 -8.55693e-06 0)
(0.0365092 1.84345e-05 0)
(0.034107 -0.00138392 0)
(0.884861 0.0434941 0)
(0.650127 0.0201508 0)
(0.493916 0.00660731 0)
(0.403439 0.00275797 0)
(0.354663 0.00155161 0)
(0.323274 0.00113573 0)
(0.299292 0.000913665 0)
(0.279994 0.000749405 0)
(0.264186 0.000627052 0)
(0.250965 0.000536935 0)
(0.239678 0.000468634 0)
(0.229885 0.00041499 0)
(0.221278 0.000371753 0)
(0.213635 0.000336269 0)
(0.206787 0.000306735 0)
(0.200604 0.000281858 0)
(0.194984 0.000260689 0)
(0.189843 0.00024252 0)
(0.185116 0.000226812 0)
(0.180748 0.000213154 0)
(0.176692 0.000201222 0)
(0.172912 0.000190765 0)
(0.169373 0.00018158 0)
(0.166047 0.000173505 0)
(0.162911 0.000166409 0)
(0.159943 0.000160188 0)
(0.157124 0.000154753 0)
(0.154437 0.000150036 0)
(0.151867 0.000145974 0)
(0.149401 0.000142528 0)
(0.147027 0.000139646 0)
(0.144732 0.000137314 0)
(0.142507 0.000135469 0)
(0.140342 0.000134141 0)
(0.138229 0.00013321 0)
(0.136158 0.000132792 0)
(0.134122 0.000132628 0)
(0.132116 0.000132996 0)
(0.130128 0.000133377 0)
(0.128167 0.000134281 0)
(0.126197 0.000134859 0)
(0.124282 0.000135641 0)
(0.122295 0.000136009 0)
(0.120475 0.000134739 0)
(0.118399 0.000135028 0)
(0.116852 0.000125453 0)
(0.114513 0.000131143 0)
(0.113664 7.30399e-05 0)
(0.111125 0.000263136 0)
(0.108188 -0.00234405 0)
(0.991209 0.049957 0)
(0.890908 0.0305666 0)
(0.762433 0.0146168 0)
(0.656405 0.00797879 0)
(0.58521 0.00488907 0)
(0.535733 0.0034853 0)
(0.497718 0.00275024 0)
(0.466953 0.00225697 0)
(0.441495 0.00189425 0)
(0.420033 0.00162372 0)
(0.401619 0.00141746 0)
(0.385583 0.00125543 0)
(0.371451 0.00112488 0)
(0.358873 0.00101771 0)
(0.347582 0.000928439 0)
(0.337372 0.000853181 0)
(0.32808 0.000789077 0)
(0.319573 0.000733995 0)
(0.311744 0.000686319 0)
(0.304506 0.000644804 0)
(0.297785 0.000608481 0)
(0.291517 0.000576585 0)
(0.28565 0.00054851 0)
(0.280138 0.000523766 0)
(0.274941 0.000501959 0)
(0.270026 0.00048277 0)
(0.26536 0.000465936 0)
(0.260916 0.000451249 0)
(0.256671 0.000438529 0)
(0.252602 0.000427646 0)
(0.248689 0.000418466 0)
(0.244912 0.000410929 0)
(0.241256 0.000404894 0)
(0.237704 0.000400401 0)
(0.234242 0.000397201 0)
(0.230854 0.000395536 0)
(0.22753 0.000394834 0)
(0.224258 0.000395792 0)
(0.221019 0.000397047 0)
(0.217825 0.000400289 0)
(0.214621 0.000402475 0)
(0.211494 0.000407179 0)
(0.20826 0.000408385 0)
(0.205257 0.000412123 0)
(0.201874 0.00040948 0)
(0.199222 0.000402952 0)
(0.19543 0.000401792 0)
(0.193674 0.000301539 0)
(0.189412 0.000562384 0)
(0.187088 -0.00221869 0)
(1.01554 0.0489556 0)
(1.00648 0.0357298 0)
(0.935843 0.0208292 0)
(0.851903 0.013512 0)
(0.782034 0.00921459 0)
(0.726766 0.00680267 0)
(0.681534 0.00540883 0)
(0.643613 0.00446964 0)
(0.611424 0.00377695 0)
(0.583772 0.00325311 0)
(0.559719 0.00284908 0)
(0.538559 0.00252951 0)
(0.519761 0.00227089 0)
(0.502922 0.0020578 0)
(0.487729 0.00187973 0)
(0.47393 0.00172916 0)
(0.461326 0.00160058 0)
(0.449753 0.00148982 0)
(0.439076 0.00139373 0)
(0.429184 0.00130987 0)
(0.419982 0.00123633 0)
(0.411389 0.0011716 0)
(0.403337 0.00111448 0)
(0.395765 0.00106401 0)
(0.388623 0.00101939 0)
(0.381864 0.000979985 0)
(0.375448 0.000945284 0)
(0.369339 0.000914859 0)
(0.363505 0.000888363 0)
(0.357915 0.000865522 0)
(0.352543 0.000846093 0)
(0.347365 0.00082993 0)
(0.342357 0.000816802 0)
(0.337498 0.000806737 0)
(0.332769 0.000799351 0)
(0.328149 0.000795019 0)
(0.323623 0.000792807 0)
(0.319175 0.00079395 0)
(0.31478 0.000795997 0)
(0.310449 0.000802324 0)
(0.306116 0.000806723 0)
(0.301876 0.000817633 0)
(0.297517 0.0008203 0)
(0.293419 0.000833814 0)
(0.288882 0.000827199 0)
(0.285161 0.00083244 0)
(0.280149 0.000819075 0)
(0.277362 0.000695877 0)
(0.271701 0.000936739 0)
(0.269305 -0.00161028 0)
(1.01435 0.0461002 0)
(1.04797 0.0373482 0)
(1.02454 0.0241998 0)
(0.974601 0.0175763 0)
(0.923324 0.0131329 0)
(0.876483 0.0102339 0)
(0.834181 0.00837776 0)
(0.796271 0.0070584 0)
(0.762531 0.00605072 0)
(0.732521 0.00526634 0)
(0.705729 0.00464782 0)
(0.681682 0.00415076 0)
(0.659982 0.00374373 0)
(0.640296 0.00340525 0)
(0.622349 0.00312022 0)
(0.60591 0.00287765 0)
(0.590785 0.00266935 0)
(0.576813 0.00248906 0)
(0.563856 0.00233198 0)
(0.551797 0.00219435 0)
(0.540536 0.00207322 0)
(0.529986 0.00196622 0)
(0.520073 0.00187148 0)
(0.510729 0.00178746 0)
(0.501898 0.00171293 0)
(0.493528 0.00164685 0)
(0.485571 0.00158841 0)
(0.477988 0.00153693 0)
(0.470741 0.00149185 0)
(0.463795 0.00145272 0)
(0.45712 0.00141917 0)
(0.450686 0.00139094 0)
(0.444466 0.00136771 0)
(0.438436 0.00134947 0)
(0.432571 0.00133571 0)
(0.42685 0.00132693 0)
(0.42125 0.00132183 0)
(0.415754 0.00132223 0)
(0.410335 0.0013245 0)
(0.404997 0.00133392 0)
(0.399674 0.00134074 0)
(0.394454 0.001359 0)
(0.389125 0.00136398 0)
(0.384058 0.00138985 0)
(0.37856 0.00138062 0)
(0.373853 0.00140141 0)
(0.367904 0.0013769 0)
(0.36404 0.0012436 0)
(0.357486 0.00143133 0)
(0.354146 -0.000832316 0)
(1.0094 0.0430501 0)
(1.05563 0.0371045 0)
(1.05865 0.0253434 0)
(1.03625 0.0197854 0)
(1.00701 0.0158273 0)
(0.975907 0.0129702 0)
(0.944258 0.0110049 0)
(0.913241 0.00952685 0)
(0.883715 0.00834033 0)
(0.856065 0.00737733 0)
(0.830368 0.0065925 0)
(0.806563 0.00594549 0)
(0.784529 0.00540496 0)
(0.764123 0.00494813 0)
(0.745198 0.00455832 0)
(0.727614 0.00422289 0)
(0.71124 0.00393212 0)
(0.695957 0.00367841 0)
(0.681658 0.0034558 0)
(0.668248 0.00325952 0)
(0.655642 0.0030858 0)
(0.643763 0.00293156 0)
(0.632543 0.00279432 0)
(0.621922 0.00267204 0)
(0.611844 0.00256307 0)
(0.602259 0.00246604 0)
(0.593122 0.00237981 0)
(0.584392 0.00230347 0)
(0.576032 0.00223626 0)
(0.568006 0.00217756 0)
(0.560282 0.00212685 0)
(0.55283 0.0020838 0)
(0.545622 0.00204796 0)
(0.538631 0.00201932 0)
(0.531832 0.00199722 0)
(0.525199 0.00198231 0)
(0.518712 0.00197294 0)
(0.512348 0.00197148 0)
(0.506082 0.00197324 0)
(0.499911 0.00198525 0)
(0.493774 0.00199451 0)
(0.487744 0.00202022 0)
(0.48163 0.00202859 0)
(0.475755 0.00206708 0)
(0.469511 0.00205854 0)
(0.463949 0.00209354 0)
(0.457343 0.00206499 0)
(0.452455 0.00192206 0)
(0.44543 0.00206208 0)
(0.440875 6.71883e-05 0)
(1.00635 0.0401824 0)
(1.0524 0.0361586 0)
(1.06603 0.0252685 0)
(1.05949 0.0205934 0)
(1.04681 0.0172594 0)
(1.03069 0.0146956 0)
(1.0117 0.0128732 0)
(0.990886 0.0114548 0)
(0.969326 0.010264 0)
(0.947744 0.00925496 0)
(0.926587 0.0084018 0)
(0.906118 0.00767638 0)
(0.886484 0.00705436 0)
(0.867754 0.00651698 0)
(0.849948 0.00604982 0)
(0.833052 0.00564142 0)
(0.817035 0.00528255 0)
(0.801852 0.00496573 0)
(0.787456 0.00468488 0)
(0.773797 0.00443502 0)
(0.760824 0.00421209 0)
(0.748489 0.00401272 0)
(0.736746 0.00383416 0)
(0.725549 0.00367409 0)
(0.714858 0.00353062 0)
(0.704634 0.00340216 0)
(0.69484 0.00328741 0)
(0.685441 0.00318526 0)
(0.676405 0.00309483 0)
(0.667701 0.00301539 0)
(0.659301 0.00294634 0)
(0.651176 0.00288725 0)
(0.643302 0.00283764 0)
(0.635651 0.00279746 0)
(0.628201 0.002766 0)
(0.620926 0.00274399 0)
(0.613807 0.00272956 0)
(0.60682 0.0027255 0)
(0.599942 0.0027263 0)
(0.593164 0.00274041 0)
(0.586437 0.00275225 0)
(0.579811 0.00278496 0)
(0.573133 0.00279809 0)
(0.566654 0.00284797 0)
(0.559893 0.00284444 0)
(0.553668 0.00288948 0)
(0.546654 0.00286595 0)
(0.540922 0.00271082 0)
(0.533674 0.00281265 0)
(0.528099 0.00108133 0)
(1.00506 0.0375056 0)
(1.04762 0.0350612 0)
(1.06393 0.0247225 0)
(1.06414 0.020627 0)
(1.06062 0.0178015 0)
(1.05467 0.0155423 0)
(1.04584 0.0139375 0)
(1.03455 0.0126865 0)
(1.02152 0.0116089 0)
(1.00734 0.0106653 0)
(0.992482 0.00984203 0)
(0.97729 0.00912145 0)
(0.962035 0.00848689 0)
(0.946909 0.00792535 0)
(0.932049 0.00742661 0)
(0.917546 0.00698227 0)
(0.90346 0.00658526 0)
(0.889823 0.00622956 0)
(0.876653 0.00591011 0)
(0.863952 0.0056226 0)
(0.851714 0.00536342 0)
(0.83993 0.00512947 0)
(0.828582 0.00491817 0)
(0.817652 0.00472731 0)
(0.80712 0.00455505 0)
(0.796964 0.00439981 0)
(0.787164 0.00426028 0)
(0.777697 0.00413537 0)
(0.768541 0.00402418 0)
(0.759674 0.00392596 0)
(0.751076 0.00384012 0)
(0.742724 0.00376622 0)
(0.734599 0.00370381 0)
(0.726679 0.00365285 0)
(0.718945 0.00361262 0)
(0.711374 0.00358396 0)
(0.703951 0.00356487 0)
(0.696653 0.00355847 0)
(0.689461 0.00355873 0)
(0.682363 0.003575 0)
(0.675321 0.00359016 0)
(0.668366 0.00362952 0)
(0.661386 0.00364918 0)
(0.654556 0.0037089 0)
(0.647528 0.00371472 0)
(0.64089 0.00376577 0)
(0.633699 0.00375428 0)
(0.6274 0.00358842 0)
(0.620095 0.00365695 0)
(0.613843 0.0021829 0)
(1.00451 0.03497 0)
(1.04359 0.0339822 0)
(1.05991 0.0240731 0)
(1.06219 0.0203397 0)
(1.06245 0.0178695 0)
(1.06175 0.0158263 0)
(1.05912 0.0143971 0)
(1.0545 0.0133139 0)
(1.04818 0.0123808 0)
(1.0405 0.0115515 0)
(1.03171 0.010815 0)
(1.02208 0.0101576 0)
(1.01184 0.00956665 0)
(1.00118 0.0090327 0)
(0.990272 0.00854892 0)
(0.979236 0.0081098 0)
(0.96818 0.00771062 0)
(0.957183 0.00734731 0)
(0.946306 0.00701631 0)
(0.935593 0.00671451 0)
(0.925075 0.00643923 0)
(0.914774 0.0061881 0)
(0.904703 0.00595908 0)
(0.894871 0.00575041 0)
(0.885279 0.00556056 0)
(0.875926 0.00538824 0)
(0.866809 0.00523236 0)
(0.857919 0.00509197 0)
(0.84925 0.00496634 0)
(0.840791 0.00485483 0)
(0.832531 0.00475697 0)
(0.824457 0.00467241 0)
(0.816557 0.00460078 0)
(0.808817 0.00454215 0)
(0.801224 0.00449588 0)
(0.793762 0.00446291 0)
(0.786418 0.00444126 0)
(0.779173 0.00443424 0)
(0.772017 0.00443564 0)
(0.764932 0.00445523 0)
(0.757897 0.00447534 0)
(0.750924 0.00452179 0)
(0.743938 0.00455021 0)
(0.737055 0.00461893 0)
(0.730035 0.00463793 0)
(0.723278 0.00469294 0)
(0.716151 0.00469751 0)
(0.70961 0.00452699 0)
(0.702421 0.00456537 0)
(0.695847 0.00333351 0)
(1.00412 0.0325398 0)
(1.04026 0.0329297 0)
(1.05615 0.02344 0)
(1.05883 0.0199574 0)
(1.06018 0.0177434 0)
(1.06153 0.0158328 0)
(1.06185 0.0145063 0)
(1.06089 0.0135401 0)
(1.05876 0.0127248 0)
(1.05554 0.0120032 0)
(1.05134 0.0113619 0)
(1.04626 0.0107867 0)
(1.04042 0.0102649 0)
(1.03396 0.00978769 0)
(1.02699 0.00934942 0)
(1.01962 0.00894593 0)
(1.01194 0.00857392 0)
(1.00405 0.00823066 0)
(0.996004 0.00791381 0)
(0.987868 0.00762135 0)
(0.97969 0.00735152 0)
(0.971509 0.00710275 0)
(0.963357 0.00687369 0)
(0.955258 0.00666314 0)
(0.947231 0.00647006 0)
(0.939292 0.00629356 0)
(0.93145 0.0061329 0)
(0.923711 0.00598743 0)
(0.916081 0.00585667 0)
(0.90856 0.00574023 0)
(0.901147 0.00563782 0)
(0.893839 0.00554929 0)
(0.886634 0.00547445 0)
(0.879523 0.0054135 0)
(0.872501 0.00536597 0)
(0.865559 0.00533292 0)
(0.85869 0.00531252 0)
(0.85188 0.00530819 0)
(0.845124 0.00531382 0)
(0.838408 0.00533918 0)
(0.831718 0.0053669 0)
(0.82506 0.00542198 0)
(0.818384 0.0054619 0)
(0.811764 0.00554004 0)
(0.805043 0.00557553 0)
(0.798483 0.00563476 0)
(0.791675 0.00565745 0)
(0.785224 0.00549087 0)
(0.778358 0.00550342 0)
(0.771804 0.0044921 0)
(1.00374 0.0302059 0)
(1.03726 0.0318816 0)
(1.05281 0.0228381 0)
(1.05559 0.0195574 0)
(1.05709 0.0175558 0)
(1.05899 0.0157347 0)
(1.06038 0.014457 0)
(1.06102 0.0135555 0)
(1.06096 0.0128151 0)
(1.06023 0.0121693 0)
(1.05883 0.0116021 0)
(1.05677 0.0110978 0)
(1.05409 0.0106423 0)
(1.05082 0.0102257 0)
(1.04704 0.00984164 0)
(1.04279 0.00948603 0)
(1.03815 0.00915575 0)
(1.03316 0.00884846 0)
(1.02789 0.00856233 0)
(1.02238 0.0082959 0)
(1.01668 0.00804795 0)
(1.01082 0.00781747 0)
(1.00484 0.00760362 0)
(0.998779 0.00740564 0)
(0.99265 0.00722295 0)
(0.986478 0.00705501 0)
(0.980281 0.00690145 0)
(0.974074 0.00676193 0)
(0.967867 0.00663627 0)
(0.96167 0.00652431 0)
(0.95549 0.00642603 0)
(0.949331 0.0063415 0)
(0.943196 0.00627072 0)
(0.937084 0.00621413 0)
(0.930998 0.0061714 0)
(0.924931 0.00614379 0)
(0.918885 0.00612964 0)
(0.91285 0.00613246 0)
(0.906825 0.00614643 0)
(0.900801 0.00618106 0)
(0.894772 0.00621984 0)
(0.888739 0.00628604 0)
(0.88267 0.00634061 0)
(0.876616 0.00642972 0)
(0.870474 0.00648463 0)
(0.86441 0.00655021 0)
(0.858175 0.00659216 0)
(0.852126 0.00643888 0)
(0.845802 0.00643193 0)
(0.839583 0.00561617 0)
(1.00337 0.0279707 0)
(1.03442 0.0308254 0)
(1.0497 0.0222612 0)
(1.05263 0.0191547 0)
(1.05409 0.0173499 0)
(1.05604 0.0156076 0)
(1.05771 0.0143527 0)
(1.05888 0.0134831 0)
(1.05963 0.0127845 0)
(1.06002 0.0121833 0)
(1.06003 0.0116624 0)
(1.05962 0.0112063 0)
(1.0588 0.0107996 0)
(1.05756 0.0104311 0)
(1.05593 0.0100937 0)
(1.05391 0.00978237 0)
(1.05153 0.00949365 0)
(1.04883 0.00922493 0)
(1.04582 0.00897428 0)
(1.04254 0.00874026 0)
(1.03902 0.00852179 0)
(1.03528 0.00831801 0)
(1.03136 0.00812829 0)
(1.02726 0.00795211 0)
(1.02303 0.00778911 0)
(1.01866 0.00763901 0)
(1.0142 0.00750164 0)
(1.00964 0.00737691 0)
(1.005 0.00726485 0)
(1.0003 0.00716553 0)
(0.995535 0.00707914 0)
(0.990726 0.00700593 0)
(0.985875 0.00694613 0)
(0.980986 0.00690033 0)
(0.976064 0.00686843 0)
(0.971108 0.00685182 0)
(0.966121 0.00684906 0)
(0.961101 0.0068637 0)
(0.956048 0.00689033 0)
(0.950959 0.006938 0)
(0.945829 0.00699146 0)
(0.940663 0.00707163 0)
(0.93544 0.00714398 0)
(0.930192 0.00724623 0)
(0.924858 0.00732297 0)
(0.919537 0.00739815 0)
(0.914087 0.00746006 0)
(0.908701 0.00732895 0)
(0.903115 0.00731038 0)
(0.897498 0.00666458 0)
(1.00301 0.0258378 0)
(1.0317 0.0297571 0)
(1.04671 0.0217055 0)
(1.04983 0.0187492 0)
(1.05127 0.0171322 0)
(1.05319 0.0154735 0)
(1.05489 0.0142349 0)
(1.05617 0.0133824 0)
(1.05716 0.0127079 0)
(1.05795 0.0121315 0)
(1.05852 0.0116364 0)
(1.05886 0.0112082 0)
(1.05895 0.0108315 0)
(1.05879 0.0104945 0)
(1.05838 0.0101895 0)
(1.0577 0.00991092 0)
(1.05677 0.00965476 0)
(1.05559 0.009418 0)
(1.05416 0.0091984 0)
(1.0525 0.0089943 0)
(1.05062 0.00880445 0)
(1.04854 0.00862793 0)
(1.04626 0.00846406 0)
(1.0438 0.00831234 0)
(1.04118 0.00817243 0)
(1.0384 0.00804414 0)
(1.03548 0.00792738 0)
(1.03244 0.00782215 0)
(1.02928 0.0077286 0)
(1.02601 0.00764693 0)
(1.02264 0.00757743 0)
(1.01918 0.00752053 0)
(1.01563 0.00747655 0)
(1.01201 0.00744626 0)
(1.00831 0.00742968 0)
(1.00454 0.00742835 0)
(1.0007 0.00744101 0)
(0.996795 0.00747121 0)
(0.992824 0.00751398 0)
(0.988788 0.00757776 0)
(0.984684 0.00764886 0)
(0.980516 0.0077454 0)
(0.976274 0.00783792 0)
(0.971977 0.00795536 0)
(0.967592 0.00805543 0)
(0.963171 0.0081436 0)
(0.958644 0.00822575 0)
(0.954097 0.0081241 0)
(0.949384 0.00810235 0)
(0.944556 0.00760201 0)
(1.00268 0.0238097 0)
(1.0291 0.028675 0)
(1.0438 0.0211707 0)
(1.04714 0.0183407 0)
(1.04858 0.0169012 0)
(1.05046 0.0153351 0)
(1.05216 0.0141144 0)
(1.05345 0.0132743 0)
(1.05448 0.0126172 0)
(1.05536 0.0120569 0)
(1.0561 0.0115765 0)
(1.05671 0.0111637 0)
(1.05717 0.0108038 0)
(1.05749 0.0104851 0)
(1.05766 0.0101997 0)
(1.05767 0.00994178 0)
(1.05752 0.00970715 0)
(1.0572 0.00949256 0)
(1.05672 0.00929551 0)
(1.05607 0.00911413 0)
(1.05526 0.00894698 0)
(1.05429 0.00879298 0)
(1.05316 0.00865134 0)
(1.05188 0.00852146 0)
(1.05045 0.00840295 0)
(1.04889 0.00829554 0)
(1.04719 0.00819914 0)
(1.04536 0.00811376 0)
(1.0434 0.00803955 0)
(1.04134 0.00797673 0)
(1.03916 0.00792565 0)
(1.03687 0.0078868 0)
(1.03449 0.00786057 0)
(1.032 0.00784782 0)
(1.02943 0.00784862 0)
(1.02676 0.00786463 0)
(1.02401 0.00789471 0)
(1.02118 0.00794236 0)
(1.01826 0.00800308 0)
(1.01526 0.00808455 0)
(1.01218 0.00817477 0)
(1.00902 0.00828889 0)
(1.00577 0.00840262 0)
(1.00245 0.00853642 0)
(0.999046 0.00865998 0)
(0.995575 0.00876383 0)
(0.992009 0.0088658 0)
(0.988371 0.00879856 0)
(0.984582 0.00878147 0)
(0.98063 0.00840415 0)
(1.00238 0.0218882 0)
(1.02663 0.0275784 0)
(1.04098 0.0206563 0)
(1.04454 0.0179308 0)
(1.04599 0.0166557 0)
(1.04784 0.015191 0)
(1.04954 0.0139926 0)
(1.05082 0.0131641 0)
(1.05184 0.0125228 0)
(1.05272 0.0119758 0)
(1.0535 0.0115059 0)
(1.05417 0.0111027 0)
(1.05475 0.0107528 0)
(1.05524 0.0104446 0)
(1.05563 0.0101704 0)
(1.05594 0.00992447 0)
(1.05614 0.00970267 0)
(1.05625 0.00950169 0)
(1.05625 0.00931899 0)
(1.05615 0.00915259 0)
(1.05594 0.00900098 0)
(1.05562 0.00886298 0)
(1.05519 0.00873769 0)
(1.05465 0.00862444 0)
(1.054 0.00852274 0)
(1.05324 0.00843229 0)
(1.05237 0.00835291 0)
(1.0514 0.00828457 0)
(1.05032 0.00822737 0)
(1.04914 0.00818155 0)
(1.04786 0.00814742 0)
(1.04648 0.00812549 0)
(1.045 0.00811615 0)
(1.04343 0.0081203 0)
(1.04177 0.00813805 0)
(1.04003 0.00817106 0)
(1.03819 0.00821834 0)
(1.03627 0.00828321 0)
(1.03426 0.0083617 0)
(1.03217 0.00846058 0)
(1.02999 0.00856964 0)
(1.02773 0.00870095 0)
(1.02539 0.00883526 0)
(1.02297 0.00898535 0)
(1.02047 0.009131 0)
(1.01789 0.0092519 0)
(1.01522 0.00937243 0)
(1.01246 0.00934179 0)
(1.00955 0.00933578 0)
(1.00646 0.00906132 0)
(1.0021 0.0200743 0)
(1.0243 0.0264691 0)
(1.03824 0.0201601 0)
(1.04201 0.0175213 0)
(1.04349 0.0163956 0)
(1.04531 0.0150399 0)
(1.04701 0.0138688 0)
(1.04829 0.013052 0)
(1.0493 0.0124264 0)
(1.05016 0.0118929 0)
(1.05093 0.0114324 0)
(1.05161 0.011037 0)
(1.05221 0.0106943 0)
(1.05274 0.0103931 0)
(1.0532 0.0101259 0)
(1.0536 0.0098872 0)
(1.05394 0.00967297 0)
(1.05421 0.00948003 0)
(1.05442 0.0093059 0)
(1.05457 0.00914863 0)
(1.05465 0.00900671 0)
(1.05466 0.00887896 0)
(1.0546 0.00876447 0)
(1.05447 0.00866252 0)
(1.05426 0.0085726 0)
(1.05397 0.00849435 0)
(1.05361 0.00842756 0)
(1.05316 0.00837215 0)
(1.05264 0.0083282 0)
(1.05204 0.00829591 0)
(1.05136 0.00827555 0)
(1.0506 0.00826763 0)
(1.04976 0.00827252 0)
(1.04885 0.00829113 0)
(1.04785 0.00832357 0)
(1.04678 0.00837147 0)
(1.04563 0.00843397 0)
(1.0444 0.00851414 0)
(1.04309 0.00860854 0)
(1.04172 0.00872299 0)
(1.04026 0.00884902 0)
(1.03873 0.00899576 0)
(1.03713 0.00914851 0)
(1.03545 0.00931354 0)
(1.0337 0.00947856 0)
(1.03187 0.00961645 0)
(1.02997 0.00975351 0)
(1.02796 0.00975908 0)
(1.02582 0.00976873 0)
(1.02349 0.00957934 0)
(1.00185 0.0183681 0)
(1.0221 0.0253512 0)
(1.03561 0.0196785 0)
(1.03958 0.0171141 0)
(1.04107 0.0161216 0)
(1.04287 0.0148808 0)
(1.04456 0.0137427 0)
(1.04585 0.0129379 0)
(1.04684 0.0123282 0)
(1.0477 0.0118086 0)
(1.04845 0.0113579 0)
(1.04912 0.01097 0)
(1.04971 0.0106337 0)
(1.05024 0.0103384 0)
(1.05071 0.0100766 0)
(1.05113 0.0098431 0)
(1.0515 0.00963396 0)
(1.05183 0.0094462 0)
(1.05211 0.00927743 0)
(1.05235 0.0091258 0)
(1.05255 0.00898987 0)
(1.0527 0.00886851 0)
(1.0528 0.00876084 0)
(1.05286 0.00866616 0)
(1.05287 0.00858398 0)
(1.05282 0.00851393 0)
(1.05273 0.00845579 0)
(1.05257 0.00840947 0)
(1.05237 0.00837502 0)
(1.0521 0.00835262 0)
(1.05177 0.00834254 0)
(1.05139 0.00834527 0)
(1.05095 0.00836115 0)
(1.05044 0.00839108 0)
(1.04988 0.0084352 0)
(1.04925 0.00849506 0)
(1.04856 0.00856993 0)
(1.04781 0.0086626 0)
(1.04699 0.00877018 0)
(1.04612 0.00889746 0)
(1.04518 0.00903766 0)
(1.04418 0.00919723 0)
(1.04312 0.00936535 0)
(1.04199 0.00954317 0)
(1.04081 0.0097241 0)
(1.03956 0.00987775 0)
(1.03824 0.0100289 0)
(1.03682 0.0100684 0)
(1.03528 0.0100965 0)
(1.03356 0.00997694 0)
(1.00162 0.0167694 0)
(1.02004 0.0242289 0)
(1.03308 0.0192073 0)
(1.03723 0.0167108 0)
(1.03876 0.0158347 0)
(1.04051 0.0147131 0)
(1.0422 0.0136139 0)
(1.04349 0.0128216 0)
(1.04448 0.0122277 0)
(1.04532 0.0117228 0)
(1.04606 0.0112825 0)
(1.04672 0.0109023 0)
(1.0473 0.0105726 0)
(1.04781 0.010283 0)
(1.04827 0.0100262 0)
(1.04869 0.00979715 0)
(1.04906 0.00959222 0)
(1.0494 0.00940847 0)
(1.0497 0.00924364 0)
(1.04996 0.00909599 0)
(1.05019 0.00896416 0)
(1.05039 0.0088471 0)
(1.05056 0.00874397 0)
(1.05069 0.00865413 0)
(1.05078 0.00857712 0)
(1.05085 0.0085126 0)
(1.05087 0.00846035 0)
(1.05085 0.0084203 0)
(1.0508 0.0083925 0)
(1.0507 0.00837713 0)
(1.05056 0.00837445 0)
(1.05038 0.00838494 0)
(1.05015 0.00840895 0)
(1.04988 0.00844736 0)
(1.04956 0.00850031 0)
(1.04919 0.0085693 0)
(1.04878 0.00865372 0)
(1.04832 0.00875605 0)
(1.04781 0.00887394 0)
(1.04725 0.00901123 0)
(1.04665 0.00916263 0)
(1.04599 0.00933229 0)
(1.04529 0.00951254 0)
(1.04454 0.00970077 0)
(1.04374 0.0098941 0)
(1.04289 0.0100617 0)
(1.04197 0.0102247 0)
(1.04097 0.0102947 0)
(1.03986 0.0103427 0)
(1.03857 0.0102806 0)
(1.00142 0.0152774 0)
(1.01811 0.0231064 0)
(1.03066 0.0187425 0)
(1.03496 0.0163128 0)
(1.03653 0.0155362 0)
(1.03825 0.0145362 0)
(1.03993 0.0134821 0)
(1.04122 0.0127033 0)
(1.04221 0.0121251 0)
(1.04304 0.0116355 0)
(1.04377 0.0112062 0)
(1.04441 0.010834 0)
(1.04498 0.0105109 0)
(1.04548 0.0102272 0)
(1.04593 0.00997542 0)
(1.04633 0.00975086 0)
(1.0467 0.00954993 0)
(1.04702 0.00936987 0)
(1.04732 0.00920852 0)
(1.04758 0.00906424 0)
(1.04782 0.00893575 0)
(1.04803 0.00882206 0)
(1.0482 0.00872241 0)
(1.04836 0.00863622 0)
(1.04848 0.00856305 0)
(1.04858 0.00850259 0)
(1.04864 0.00845467 0)
(1.04868 0.00841922 0)
(1.04869 0.00839631 0)
(1.04867 0.00838612 0)
(1.04861 0.00838891 0)
(1.04852 0.00840518 0)
(1.0484 0.00843527 0)
(1.04824 0.00848005 0)
(1.04804 0.0085397 0)
(1.04781 0.00861561 0)
(1.04755 0.00870734 0)
(1.04725 0.00881705 0)
(1.04691 0.00894289 0)
(1.04653 0.00908783 0)
(1.04612 0.0092479 0)
(1.04567 0.00942533 0)
(1.04518 0.00961488 0)
(1.04465 0.00981146 0)
(1.04409 0.0100143 0)
(1.04348 0.0101941 0)
(1.04282 0.0103672 0)
(1.04208 0.0104641 0)
(1.04124 0.0105328 0)
(1.04024 0.0105185 0)
(1.00124 0.0138908 0)
(1.01632 0.0219876 0)
(1.02834 0.0182804 0)
(1.03279 0.0159214 0)
(1.0344 0.0152279 0)
(1.03608 0.0143496 0)
(1.03775 0.0133469 0)
(1.03904 0.0125828 0)
(1.04003 0.0120201 0)
(1.04084 0.0115464 0)
(1.04156 0.0111287 0)
(1.04219 0.010765 0)
(1.04275 0.0104488 0)
(1.04324 0.0101711 0)
(1.04368 0.00992455 0)
(1.04407 0.00970456 0)
(1.04442 0.00950768 0)
(1.04474 0.0093313 0)
(1.04503 0.00917336 0)
(1.04528 0.00903231 0)
(1.04551 0.00890693 0)
(1.04571 0.00879633 0)
(1.04589 0.00869978 0)
(1.04604 0.00861677 0)
(1.04617 0.00854688 0)
(1.04627 0.00848986 0)
(1.04635 0.00844553 0)
(1.0464 0.00841387 0)
(1.04642 0.00839494 0)
(1.04642 0.00838896 0)
(1.0464 0.00839617 0)
(1.04634 0.00841709 0)
(1.04626 0.00845205 0)
(1.04615 0.00850192 0)
(1.04601 0.00856692 0)
(1.04584 0.00864834 0)
(1.04565 0.0087459 0)
(1.04542 0.00886144 0)
(1.04516 0.00899362 0)
(1.04488 0.00914459 0)
(1.04456 0.00931148 0)
(1.04422 0.00949508 0)
(1.04384 0.00969188 0)
(1.04344 0.00989536 0)
(1.043 0.0101056 0)
(1.04253 0.0102962 0)
(1.04201 0.0104784 0)
(1.04142 0.0105993 0)
(1.04073 0.0106892 0)
(1.0399 0.0107158 0)
(1.00107 0.0126074 0)
(1.01466 0.0208765 0)
(1.02613 0.0178177 0)
(1.0307 0.0155374 0)
(1.03237 0.0149115 0)
(1.034 0.0141528 0)
(1.03565 0.0132078 0)
(1.03695 0.0124604 0)
(1.03793 0.0119128 0)
(1.03874 0.0114553 0)
(1.03945 0.01105 0)
(1.04007 0.0106951 0)
(1.04062 0.0103862 0)
(1.0411 0.0101146 0)
(1.04152 0.00987353 0)
(1.04191 0.00965825 0)
(1.04225 0.00946555 0)
(1.04255 0.00929294 0)
(1.04283 0.00913847 0)
(1.04307 0.00900068 0)
(1.04329 0.00887843 0)
(1.04349 0.00877087 0)
(1.04365 0.00867737 0)
(1.0438 0.00859742 0)
(1.04392 0.00853066 0)
(1.04402 0.00847686 0)
(1.04409 0.00843588 0)
(1.04414 0.00840771 0)
(1.04417 0.0083924 0)
(1.04417 0.0083902 0)
(1.04415 0.00840137 0)
(1.04411 0.0084264 0)
(1.04404 0.00846567 0)
(1.04394 0.00851999 0)
(1.04382 0.00858964 0)
(1.04367 0.00867581 0)
(1.0435 0.00877839 0)
(1.04331 0.00889892 0)
(1.04308 0.00903646 0)
(1.04284 0.00919255 0)
(1.04256 0.00936516 0)
(1.04227 0.00955402 0)
(1.04195 0.00975678 0)
(1.0416 0.00996638 0)
(1.04122 0.0101828 0)
(1.04081 0.0103834 0)
(1.04036 0.0105747 0)
(1.03984 0.0107174 0)
(1.03922 0.010829 0)
(1.03848 0.0108922 0)
(1.00093 0.0114247 0)
(1.01313 0.0197772 0)
(1.02403 0.0173511 0)
(1.0287 0.0151614 0)
(1.03042 0.014589 0)
(1.03202 0.0139456 0)
(1.03365 0.0130642 0)
(1.03495 0.0123359 0)
(1.03593 0.0118032 0)
(1.03673 0.0113623 0)
(1.03743 0.01097 0)
(1.03804 0.0106244 0)
(1.03858 0.0103229 0)
(1.03905 0.0100578 0)
(1.03946 0.00982228 0)
(1.03984 0.00961189 0)
(1.04017 0.0094235 0)
(1.04046 0.00925478 0)
(1.04073 0.00910389 0)
(1.04096 0.00896945 0)
(1.04117 0.00885039 0)
(1.04136 0.00874595 0)
(1.04152 0.00865552 0)
(1.04165 0.00857867 0)
(1.04176 0.00851506 0)
(1.04185 0.00846448 0)
(1.04192 0.00842681 0)
(1.04197 0.00840206 0)
(1.04199 0.0083903 0)
(1.04199 0.00839177 0)
(1.04196 0.00840675 0)
(1.04192 0.00843573 0)
(1.04184 0.00847908 0)
(1.04175 0.00853761 0)
(1.04163 0.00861164 0)
(1.04149 0.00870225 0)
(1.04133 0.00880948 0)
(1.04114 0.00893463 0)
(1.04093 0.00907709 0)
(1.04069 0.0092379 0)
(1.04043 0.00941565 0)
(1.04015 0.00960942 0)
(1.03985 0.00981753 0)
(1.03952 0.010033 0)
(1.03917 0.0102554 0)
(1.03878 0.0104656 0)
(1.03835 0.0106665 0)
(1.03786 0.0108294 0)
(1.03728 0.0109636 0)
(1.03656 0.0110609 0)
(1.0008 0.0103394 0)
(1.01173 0.018694 0)
(1.02205 0.016878 0)
(1.02678 0.0147937 0)
(1.02857 0.0142625 0)
(1.03013 0.0137278 0)
(1.03174 0.0129155 0)
(1.03304 0.0122094 0)
(1.03402 0.0116913 0)
(1.03481 0.011267 0)
(1.0355 0.0108885 0)
(1.0361 0.0105527 0)
(1.03663 0.0102589 0)
(1.03709 0.0100004 0)
(1.0375 0.00977075 0)
(1.03786 0.00956541 0)
(1.03818 0.0093815 0)
(1.03847 0.00921679 0)
(1.03872 0.00906959 0)
(1.03895 0.0089386 0)
(1.03915 0.00882284 0)
(1.03933 0.00872159 0)
(1.03948 0.00863433 0)
(1.0396 0.00856064 0)
(1.03971 0.00850024 0)
(1.03979 0.00845294 0)
(1.03985 0.00841864 0)
(1.03989 0.00839735 0)
(1.0399 0.00838918 0)
(1.03989 0.00839435 0)
(1.03986 0.00841314 0)
(1.03981 0.00844606 0)
(1.03974 0.00849349 0)
(1.03964 0.00855619 0)
(1.03952 0.00863453 0)
(1.03937 0.00872952 0)
(1.03921 0.00884131 0)
(1.03902 0.00897098 0)
(1.03881 0.00911821 0)
(1.03857 0.00928365 0)
(1.03832 0.00946636 0)
(1.03804 0.00966503 0)
(1.03774 0.00987832 0)
(1.03742 0.0100997 0)
(1.03707 0.0103282 0)
(1.03668 0.0105481 0)
(1.03626 0.0107595 0)
(1.03577 0.010942 0)
(1.03519 0.0110996 0)
(1.03448 0.0112298 0)
(1.00069 0.00934772 0)
(1.01045 0.0176308 0)
(1.02018 0.0163962 0)
(1.02496 0.0144344 0)
(1.02681 0.013934 0)
(1.02833 0.0134998 0)
(1.02991 0.0127612 0)
(1.03121 0.0120806 0)
(1.0322 0.0115771 0)
(1.03298 0.0111695 0)
(1.03366 0.0108053 0)
(1.03425 0.0104799 0)
(1.03477 0.0101941 0)
(1.03523 0.00994256 0)
(1.03563 0.00971887 0)
(1.03598 0.00951877 0)
(1.03629 0.00933946 0)
(1.03657 0.00917891 0)
(1.03682 0.00903552 0)
(1.03703 0.00890808 0)
(1.03723 0.00879571 0)
(1.03739 0.00869777 0)
(1.03754 0.00861376 0)
(1.03765 0.00854333 0)
(1.03775 0.00848622 0)
(1.03783 0.00844229 0)
(1.03788 0.00841144 0)
(1.03791 0.00839371 0)
(1.03792 0.00838919 0)
(1.0379 0.00839813 0)
(1.03786 0.00842081 0)
(1.03781 0.00845773 0)
(1.03772 0.00850929 0)
(1.03762 0.00857621 0)
(1.03749 0.00865892 0)
(1.03735 0.00875833 0)
(1.03718 0.0088747 0)
(1.03698 0.00900894 0)
(1.03677 0.00916095 0)
(1.03653 0.00933112 0)
(1.03627 0.0095188 0)
(1.036 0.00972253 0)
(1.03569 0.0099411 0)
(1.03537 0.0101688 0)
(1.03502 0.0104037 0)
(1.03463 0.0106337 0)
(1.03419 0.0108565 0)
(1.03369 0.0110584 0)
(1.03311 0.0112402 0)
(1.0324 0.0114032 0)
(1.0006 0.0084453 0)
(1.00929 0.0165918 0)
(1.01842 0.0159037 0)
(1.02321 0.0140829 0)
(1.02514 0.0136052 0)
(1.02663 0.0132619 0)
(1.02817 0.0126006 0)
(1.02947 0.0119495 0)
(1.03046 0.0114608 0)
(1.03124 0.0110697 0)
(1.03191 0.0107204 0)
(1.0325 0.0104059 0)
(1.03301 0.0101285 0)
(1.03345 0.00988402 0)
(1.03384 0.00966655 0)
(1.03419 0.00947187 0)
(1.03449 0.00929734 0)
(1.03476 0.00914108 0)
(1.035 0.00900161 0)
(1.03521 0.00887785 0)
(1.0354 0.00876898 0)
(1.03556 0.00867443 0)
(1.03569 0.00859377 0)
(1.0358 0.0085267 0)
(1.03589 0.00847299 0)
(1.03596 0.00843251 0)
(1.036 0.0084052 0)
(1.03603 0.00839111 0)
(1.03603 0.00839034 0)
(1.03601 0.00840314 0)
(1.03597 0.00842981 0)
(1.0359 0.00847081 0)
(1.03581 0.00852658 0)
(1.0357 0.00859782 0)
(1.03557 0.00868498 0)
(1.03542 0.0087889 0)
(1.03525 0.00890993 0)
(1.03505 0.00904886 0)
(1.03483 0.00920573 0)
(1.03459 0.00938077 0)
(1.03433 0.00957353 0)
(1.03405 0.00978257 0)
(1.03374 0.0100067 0)
(1.03341 0.0102409 0)
(1.03305 0.010483 0)
(1.03265 0.0107234 0)
(1.03221 0.0109588 0)
(1.0317 0.0111801 0)
(1.03111 0.011387 0)
(1.03039 0.0115831 0)
(1.00051 0.00762739 0)
(1.00824 0.0155807 0)
(1.01678 0.0153994 0)
(1.02155 0.0137388 0)
(1.02355 0.0132781 0)
(1.02501 0.0130149 0)
(1.02652 0.0124332 0)
(1.02782 0.0118157 0)
(1.0288 0.0113423 0)
(1.02958 0.0109675 0)
(1.03024 0.0106336 0)
(1.03082 0.0103307 0)
(1.03133 0.0100619 0)
(1.03177 0.00982477 0)
(1.03215 0.00961371 0)
(1.03249 0.00942465 0)
(1.03279 0.00925507 0)
(1.03305 0.00910323 0)
(1.03328 0.00896782 0)
(1.03348 0.00884785 0)