/*--------------------------------*- C++ -*----------------------------------*\
  =========                 |
  \\      /  F ield         | OpenFOAM: The Open Source CFD Toolbox
   \\    /   O peration     | Website:  https://openfoam.org
    \\  /    A nd           | Version:  7
     \\/     M anipulation  |
\*---------------------------------------------------------------------------*/
FoamFile
{
    version     2.0;
    format      ascii;
    class       volVectorField;
    location    "0.2";
    object      vorticity;
}
// * * * * * * * * * * * * * * * * * * * * * * * * * * * * * * * * * * * * * //

dimensions      [0 0 -1 0 0 0 0];

internalField   nonuniform List<vector> 
70000
(
(0 -0 -45715.9)
(0 -0 -28616.5)
(0 -0 -20910.2)
(0 -0 -16974.3)
(0 -0 -14949.9)
(0 -0 -13639.5)
(0 -0 -12626.2)
(0 -0 -11809.6)
(0 -0 -11141.6)
(0 -0 -10583.1)
(0 -0 -10106.4)
(0 -0 -9692.68)
(0 -0 -9329.13)
(0 -0 -9006.29)
(0 -0 -8717.04)
(0 -0 -8455.87)
(0 -0 -8218.44)
(0 -0 -8001.28)
(0 -0 -7801.57)
(0 -0 -7617)
(0 -0 -7445.63)
(0 -0 -7285.83)
(0 -0 -7136.22)
(0 -0 -6995.61)
(0 -0 -6862.97)
(0 -0 -6737.4)
(0 -0 -6618.09)
(0 -0 -6504.35)
(0 -0 -6395.53)
(0 -0 -6291.06)
(0 -0 -6190.43)
(0 -0 -6093.14)
(0 -0 -5998.78)
(0 -0 -5906.91)
(0 -0 -5817.21)
(0 -0 -5729.29)
(0 -0 -5642.84)
(0 -0 -5557.67)
(0 -0 -5473.26)
(0 -0 -5390.06)
(0 -0 -5306.56)
(0 -0 -5225.49)
(0 -0 -5141.45)
(0 -0 -5064.89)
(0 -0 -4977.4)
(0 -0 -4913.48)
(0 -0 -4815.24)
(0 -0 -4783.29)
(0 -0 -4683.27)
(0 -0 -4497.73)
(0 -0 -13549.7)
(0 -0 -19947.2)
(0 -0 -18535.2)
(0 -0 -16247.1)
(0 -0 -14499.1)
(0 -0 -13272.7)
(0 -0 -12341.8)
(0 -0 -11588.8)
(0 -0 -10963.3)
(0 -0 -10434.7)
(0 -0 -9980.6)
(0 -0 -9584.89)
(0 -0 -9235.93)
(0 -0 -8925.16)
(0 -0 -8646.09)
(0 -0 -8393.65)
(0 -0 -8163.84)
(0 -0 -7953.43)
(0 -0 -7759.78)
(0 -0 -7580.73)
(0 -0 -7414.46)
(0 -0 -7259.44)
(0 -0 -7114.37)
(0 -0 -6978.11)
(0 -0 -6849.69)
(0 -0 -6728.26)
(0 -0 -6613.05)
(0 -0 -6503.4)
(0 -0 -6398.71)
(0 -0 -6298.42)
(0 -0 -6202.04)
(0 -0 -6109.1)
(0 -0 -6019.21)
(0 -0 -5931.93)
(0 -0 -5846.94)
(0 -0 -5763.85)
(0 -0 -5682.34)
(0 -0 -5602.15)
(0 -0 -5522.82)
(0 -0 -5444.53)
(0 -0 -5366.02)
(0 -0 -5289.18)
(0 -0 -5209.79)
(0 -0 -5135.4)
(0 -0 -5052.07)
(0 -0 -4984.8)
(0 -0 -4891.45)
(0 -0 -4841.83)
(0 -0 -4743.54)
(0 -0 -4736.18)
(0 -0 -3818.81)
(0 -0 -10829.1)
(0 -0 -13363.8)
(0 -0 -13519.6)
(0 -0 -12865.3)
(0 -0 -12137.8)
(0 -0 -11494.5)
(0 -0 -10932.2)
(0 -0 -10438.2)
(0 -0 -10003.4)
(0 -0 -9618.93)
(0 -0 -9276.73)
(0 -0 -8970.02)
(0 -0 -8693.32)
(0 -0 -8442.24)
(0 -0 -8213.15)
(0 -0 -8003.12)
(0 -0 -7809.67)
(0 -0 -7630.76)
(0 -0 -7464.66)
(0 -0 -7309.89)
(0 -0 -7165.21)
(0 -0 -7029.51)
(0 -0 -6901.86)
(0 -0 -6781.42)
(0 -0 -6667.47)
(0 -0 -6559.34)
(0 -0 -6456.46)
(0 -0 -6358.31)
(0 -0 -6264.39)
(0 -0 -6174.29)
(0 -0 -6087.59)
(0 -0 -6003.93)
(0 -0 -5922.93)
(0 -0 -5844.3)
(0 -0 -5767.69)
(0 -0 -5692.8)
(0 -0 -5619.38)
(0 -0 -5547.04)
(0 -0 -5475.78)
(0 -0 -5404.72)
(0 -0 -5334.88)
(0 -0 -5263.56)
(0 -0 -5195.13)
(0 -0 -5121.2)
(0 -0 -5055.89)
(0 -0 -4975.88)
(0 -0 -4916.86)
(0 -0 -4832.67)
(0 -0 -4844.14)
(0 -0 -533.057)
(0 -0 -4662.93)
(0 -0 -7719.33)
(0 -0 -9329.93)
(0 -0 -9893.91)
(0 -0 -9959.07)
(0 -0 -9826.83)
(0 -0 -9614.04)
(0 -0 -9369.55)
(0 -0 -9118.12)
(0 -0 -8872.2)
(0 -0 -8637.38)
(0 -0 -8415.77)
(0 -0 -8207.81)
(0 -0 -8013.13)
(0 -0 -7831)
(0 -0 -7660.55)
(0 -0 -7500.87)
(0 -0 -7351.05)
(0 -0 -7210.25)
(0 -0 -7077.7)
(0 -0 -6952.68)
(0 -0 -6834.54)
(0 -0 -6722.69)
(0 -0 -6616.59)
(0 -0 -6515.75)
(0 -0 -6419.72)
(0 -0 -6328.08)
(0 -0 -6240.47)
(0 -0 -6156.52)
(0 -0 -6075.92)
(0 -0 -5998.35)
(0 -0 -5923.55)
(0 -0 -5851.21)
(0 -0 -5781.11)
(0 -0 -5712.98)
(0 -0 -5646.59)
(0 -0 -5581.69)
(0 -0 -5518.05)
(0 -0 -5455.49)
(0 -0 -5393.62)
(0 -0 -5332.59)
(0 -0 -5271.42)
(0 -0 -5211.26)
(0 -0 -5149.58)
(0 -0 -5089.64)
(0 -0 -5027.14)
(0 -0 -4964.85)
(0 -0 -4906.55)
(0 -0 -4873.94)
(0 -0 322.472)
(0 -0 -1444.66)
(0 -0 -3533.27)
(0 -0 -5260.74)
(0 -0 -6401.67)
(0 -0 -7077.14)
(0 -0 -7455.03)
(0 -0 -7645.76)
(0 -0 -7717.62)
(0 -0 -7714.88)
(0 -0 -7666.18)
(0 -0 -7589.64)
(0 -0 -7496.7)
(0 -0 -7394.65)
(0 -0 -7288.18)
(0 -0 -7180.32)
(0 -0 -7073.02)
(0 -0 -6967.52)
(0 -0 -6864.58)
(0 -0 -6764.66)
(0 -0 -6668.02)
(0 -0 -6574.76)
(0 -0 -6484.89)
(0 -0 -6398.37)
(0 -0 -6315.1)
(0 -0 -6234.96)
(0 -0 -6157.82)
(0 -0 -6083.53)
(0 -0 -6011.94)
(0 -0 -5942.88)
(0 -0 -5876.22)
(0 -0 -5811.79)
(0 -0 -5749.43)
(0 -0 -5688.99)
(0 -0 -5630.34)
(0 -0 -5573.29)
(0 -0 -5517.73)
(0 -0 -5463.46)
(0 -0 -5410.4)
(0 -0 -5358.27)
(0 -0 -5307.13)
(0 -0 -5256.42)
(0 -0 -5206.69)
(0 -0 -5156.41)
(0 -0 -5108.05)
(0 -0 -5056.01)
(0 -0 -5011.34)
(0 -0 -4951.17)
(0 -0 -4920.02)
(0 -0 -4856.36)
(0 -0 364.731)
(0 -0 -158.554)
(0 -0 -1181.85)
(0 -0 -2363.09)
(0 -0 -3419.59)
(0 -0 -4259.31)
(0 -0 -4895.46)
(0 -0 -5361.86)
(0 -0 -5693.52)
(0 -0 -5922.5)
(0 -0 -6075.11)
(0 -0 -6171.53)
(0 -0 -6226.7)
(0 -0 -6251.63)
(0 -0 -6254.39)
(0 -0 -6240.91)
(0 -0 -6215.58)
(0 -0 -6181.65)
(0 -0 -6141.54)
(0 -0 -6097.06)
(0 -0 -6049.6)
(0 -0 -6000.16)
(0 -0 -5949.55)
(0 -0 -5898.35)
(0 -0 -5847)
(0 -0 -5795.85)
(0 -0 -5745.15)
(0 -0 -5695.08)
(0 -0 -5645.77)
(0 -0 -5597.32)
(0 -0 -5549.8)
(0 -0 -5503.23)
(0 -0 -5457.63)
(0 -0 -5413)
(0 -0 -5369.33)
(0 -0 -5326.57)
(0 -0 -5284.72)
(0 -0 -5243.66)
(0 -0 -5203.49)
(0 -0 -5163.85)
(0 -0 -5125.19)
(0 -0 -5086.5)
(0 -0 -5049.37)
(0 -0 -5010.59)
(0 -0 -4975.82)
(0 -0 -4934.17)
(0 -0 -4905.42)
(0 -0 -4853.52)
(0 -0 -4841.01)
(0 -0 -4777.44)
(0 -0 254.036)
(0 -0 185.337)
(0 -0 -173.361)
(0 -0 -765.169)
(0 -0 -1448.95)
(0 -0 -2117.75)
(0 -0 -2724.11)
(0 -0 -3248.45)
(0 -0 -3686.52)
(0 -0 -4044.04)
(0 -0 -4331.29)
(0 -0 -4559.38)
(0 -0 -4738.68)
(0 -0 -4878.17)
(0 -0 -4985.39)
(0 -0 -5066.53)
(0 -0 -5126.61)
(0 -0 -5169.71)
(0 -0 -5199.07)
(0 -0 -5217.34)
(0 -0 -5226.62)
(0 -0 -5228.63)
(0 -0 -5224.75)
(0 -0 -5216.12)
(0 -0 -5203.66)
(0 -0 -5188.13)
(0 -0 -5170.14)
(0 -0 -5150.2)
(0 -0 -5128.74)
(0 -0 -5106.1)
(0 -0 -5082.58)
(0 -0 -5058.4)
(0 -0 -5033.77)
(0 -0 -5008.83)
(0 -0 -4983.74)
(0 -0 -4958.58)
(0 -0 -4933.48)
(0 -0 -4908.42)
(0 -0 -4883.6)
(0 -0 -4858.77)
(0 -0 -4834.52)
(0 -0 -4809.76)
(0 -0 -4786.52)
(0 -0 -4761.05)
(0 -0 -4740.09)
(0 -0 -4711.37)
(0 -0 -4696.4)
(0 -0 -4658.27)
(0 -0 -4656.4)
(0 -0 -4609.61)
(0 -0 178.755)
(0 -0 204.532)
(0 -0 130.687)
(0 -0 -85.343)
(0 -0 -418.439)
(0 -0 -816.159)
(0 -0 -1238.61)
(0 -0 -1656.84)
(0 -0 -2050.87)
(0 -0 -2409.64)
(0 -0 -2728.86)
(0 -0 -3008.41)
(0 -0 -3250.45)
(0 -0 -3458.32)
(0 -0 -3635.76)
(0 -0 -3786.49)
(0 -0 -3914.04)
(0 -0 -4021.58)
(0 -0 -4111.9)
(0 -0 -4187.47)
(0 -0 -4250.37)
(0 -0 -4302.44)
(0 -0 -4345.22)
(0 -0 -4380.04)
(0 -0 -4408.05)
(0 -0 -4430.2)
(0 -0 -4447.35)
(0 -0 -4460.2)
(0 -0 -4469.37)
(0 -0 -4475.4)
(0 -0 -4478.74)
(0 -0 -4479.8)
(0 -0 -4478.91)
(0 -0 -4476.38)
(0 -0 -4472.47)
(0 -0 -4467.39)
(0 -0 -4461.37)
(0 -0 -4454.52)
(0 -0 -4447.11)
(0 -0 -4439.03)
(0 -0 -4430.86)
(0 -0 -4421.76)
(0 -0 -4413.58)
(0 -0 -4403.06)
(0 -0 -4396.28)
(0 -0 -4382.48)
(0 -0 -4380.2)
(0 -0 -4358.86)
(0 -0 -4365)
(0 -0 -4338.23)
(0 -0 148.029)
(0 -0 164.626)
(0 -0 170.023)
(0 -0 120.988)
(0 -0 0.887287)
(0 -0 -181.246)
(0 -0 -410.07)
(0 -0 -669.228)
(0 -0 -942.844)
(0 -0 -1217.94)
(0 -0 -1485.24)
(0 -0 -1738.7)
(0 -0 -1974.76)
(0 -0 -2191.75)
(0 -0 -2389.26)
(0 -0 -2567.73)
(0 -0 -2728.13)
(0 -0 -2871.7)
(0 -0 -2999.82)
(0 -0 -3113.89)
(0 -0 -3215.27)
(0 -0 -3305.24)
(0 -0 -3384.98)
(0 -0 -3455.6)
(0 -0 -3518.07)
(0 -0 -3573.3)
(0 -0 -3622.07)
(0 -0 -3665.12)
(0 -0 -3703.07)
(0 -0 -3736.52)
(0 -0 -3765.97)
(0 -0 -3791.89)
(0 -0 -3814.68)
(0 -0 -3834.73)
(0 -0 -3852.35)
(0 -0 -3867.86)
(0 -0 -3881.52)
(0 -0 -3893.56)
(0 -0 -3904.24)
(0 -0 -3913.63)
(0 -0 -3922.22)
(0 -0 -3929.5)
(0 -0 -3936.91)
(0 -0 -3942.07)
(0 -0 -3949.68)
(0 -0 -3951.56)
(0 -0 -3961.81)
(0 -0 -3957.71)
(0 -0 -3972.44)
(0 -0 -3964.43)
(0 -0 136.84)
(0 -0 137.087)
(0 -0 148.764)
(0 -0 149.719)
(0 -0 122.198)
(0 -0 59.9857)
(0 -0 -36.7908)
(0 -0 -164.509)
(0 -0 -316.826)
(0 -0 -486.416)
(0 -0 -666.34)
(0 -0 -850.659)
(0 -0 -1034.61)
(0 -0 -1214.59)
(0 -0 -1388.02)
(0 -0 -1553.19)
(0 -0 -1709.08)
(0 -0 -1855.19)
(0 -0 -1991.36)
(0 -0 -2117.76)
(0 -0 -2234.69)
(0 -0 -2342.6)
(0 -0 -2441.99)
(0 -0 -2533.4)
(0 -0 -2617.4)
(0 -0 -2694.54)
(0 -0 -2765.34)
(0 -0 -2830.33)
(0 -0 -2889.99)
(0 -0 -2944.79)
(0 -0 -2995.16)
(0 -0 -3041.5)
(0 -0 -3084.19)
(0 -0 -3123.58)
(0 -0 -3159.98)
(0 -0 -3193.72)
(0 -0 -3225.05)
(0 -0 -3254.25)
(0 -0 -3281.55)
(0 -0 -3307.15)
(0 -0 -3331.37)
(0 -0 -3354.06)
(0 -0 -3376.18)
(0 -0 -3396.22)
(0 -0 -3417.5)
(0 -0 -3434.27)
(0 -0 -3456.61)
(0 -0 -3468.46)
(0 -0 -3492.41)
(0 -0 -3501.03)
(0 -0 129.963)
(0 -0 124.016)
(0 -0 129.205)
(0 -0 136.419)
(0 -0 136.515)
(0 -0 123.221)
(0 -0 92.8507)
(0 -0 43.5093)
(0 -0 -24.6695)
(0 -0 -109.871)
(0 -0 -209.329)
(0 -0 -319.904)
(0 -0 -438.446)
(0 -0 -562.042)
(0 -0 -688.146)
(0 -0 -814.638)
(0 -0 -939.815)
(0 -0 -1062.36)
(0 -0 -1181.3)
(0 -0 -1295.93)
(0 -0 -1405.8)
(0 -0 -1510.62)
(0 -0 -1610.26)
(0 -0 -1704.71)
(0 -0 -1794.03)
(0 -0 -1878.35)
(0 -0 -1957.84)
(0 -0 -2032.71)
(0 -0 -2103.19)
(0 -0 -2169.53)
(0 -0 -2231.97)
(0 -0 -2290.77)
(0 -0 -2346.16)
(0 -0 -2398.42)
(0 -0 -2447.76)
(0 -0 -2494.45)
(0 -0 -2538.68)
(0 -0 -2580.71)
(0 -0 -2620.71)
(0 -0 -2658.91)
(0 -0 -2695.52)
(0 -0 -2730.56)
(0 -0 -2764.67)
(0 -0 -2796.92)
(0 -0 -2829.62)
(0 -0 -2858.78)
(0 -0 -2891.46)
(0 -0 -2916.63)
(0 -0 -2949.08)
(0 -0 -2971.47)
(0 -0 122.975)
(0 -0 116.667)
(0 -0 118.038)
(0 -0 122.522)
(0 -0 126.476)
(0 -0 126.951)
(0 -0 121.455)
(0 -0 107.66)
(0 -0 83.8938)
(0 -0 49.4219)
(0 -0 4.31752)
(0 -0 -50.7238)
(0 -0 -114.586)
(0 -0 -185.908)
(0 -0 -263.241)
(0 -0 -345.152)
(0 -0 -430.303)
(0 -0 -517.489)
(0 -0 -605.66)
(0 -0 -693.928)
(0 -0 -781.554)
(0 -0 -867.942)
(0 -0 -952.62)
(0 -0 -1035.23)
(0 -0 -1115.49)
(0 -0 -1193.23)
(0 -0 -1268.32)
(0 -0 -1340.7)
(0 -0 -1410.35)
(0 -0 -1477.29)
(0 -0 -1541.56)
(0 -0 -1603.25)
(0 -0 -1662.44)
(0 -0 -1719.26)
(0 -0 -1773.81)
(0 -0 -1826.25)
(0 -0 -1876.67)
(0 -0 -1925.27)
(0 -0 -1972.13)
(0 -0 -2017.47)
(0 -0 -2061.38)
(0 -0 -2103.96)
(0 -0 -2145.61)
(0 -0 -2185.74)
(0 -0 -2225.97)
(0 -0 -2263.54)
(0 -0 -2303.28)
(0 -0 -2337.82)
(0 -0 -2376.46)
(0 -0 -2408.74)
(0 -0 115.657)
(0 -0 110.438)
(0 -0 110.759)
(0 -0 113.203)
(0 -0 116.024)
(0 -0 118.293)
(0 -0 119.174)
(0 -0 117.453)
(0 -0 111.831)
(0 -0 101.234)
(0 -0 84.9202)
(0 -0 62.4972)
(0 -0 33.8932)
(0 -0 -0.687362)
(0 -0 -40.8299)
(0 -0 -85.9766)
(0 -0 -135.485)
(0 -0 -188.679)
(0 -0 -244.882)
(0 -0 -303.447)
(0 -0 -363.771)
(0 -0 -425.308)
(0 -0 -487.57)
(0 -0 -550.133)
(0 -0 -612.63)
(0 -0 -674.753)
(0 -0 -736.245)
(0 -0 -796.899)
(0 -0 -856.549)
(0 -0 -915.073)
(0 -0 -972.377)
(0 -0 -1028.41)
(0 -0 -1083.12)
(0 -0 -1136.53)
(0 -0 -1188.61)
(0 -0 -1239.44)
(0 -0 -1289.01)
(0 -0 -1337.44)
(0 -0 -1384.73)
(0 -0 -1431.02)
(0 -0 -1476.36)
(0 -0 -1520.8)
(0 -0 -1564.63)
(0 -0 -1607.41)
(0 -0 -1650.28)
(0 -0 -1691.35)
(0 -0 -1733.8)
(0 -0 -1772.92)
(0 -0 -1814.21)
(0 -0 -1851.74)
(0 -0 108.414)
(0 -0 104.223)
(0 -0 104.437)
(0 -0 106.149)
(0 -0 108.024)
(0 -0 109.742)
(0 -0 111.286)
(0 -0 112.307)
(0 -0 112.217)
(0 -0 110.374)
(0 -0 106.179)
(0 -0 99.1162)
(0 -0 88.7946)
(0 -0 74.9613)
(0 -0 57.5063)
(0 -0 36.4415)
(0 -0 11.8845)
(0 -0 -15.9657)
(0 -0 -46.8517)
(0 -0 -80.4778)
(0 -0 -116.528)
(0 -0 -154.68)
(0 -0 -194.614)
(0 -0 -236.025)
(0 -0 -278.625)
(0 -0 -322.147)
(0 -0 -366.348)
(0 -0 -411.013)
(0 -0 -455.948)
(0 -0 -500.992)
(0 -0 -545.999)
(0 -0 -590.857)
(0 -0 -635.465)
(0 -0 -679.76)
(0 -0 -723.672)
(0 -0 -767.188)
(0 -0 -810.257)
(0 -0 -852.915)
(0 -0 -895.125)
(0 -0 -936.951)
(0 -0 -978.403)
(0 -0 -1019.48)
(0 -0 -1060.39)
(0 -0 -1100.8)
(0 -0 -1141.47)
(0 -0 -1181.16)
(0 -0 -1221.84)
(0 -0 -1260.67)
(0 -0 -1300.67)
(0 -0 -1338.7)
(0 -0 101.438)
(0 -0 98.0337)
(0 -0 98.2623)
(0 -0 99.7415)
(0 -0 101.26)
(0 -0 102.538)
(0 -0 103.769)
(0 -0 104.962)
(0 -0 105.943)
(0 -0 106.461)
(0 -0 106.23)
(0 -0 104.945)
(0 -0 102.306)
(0 -0 98.046)
(0 -0 91.9445)
(0 -0 83.8385)
(0 -0 73.6236)
(0 -0 61.252)
(0 -0 46.7267)
(0 -0 30.0947)
(0 -0 11.4381)
(0 -0 -9.13298)
(0 -0 -31.4887)
(0 -0 -55.486)
(0 -0 -80.9738)
(0 -0 -107.799)
(0 -0 -135.809)
(0 -0 -164.857)
(0 -0 -194.802)
(0 -0 -225.516)
(0 -0 -256.875)
(0 -0 -288.775)
(0 -0 -321.115)
(0 -0 -353.821)
(0 -0 -386.81)
(0 -0 -420.042)
(0 -0 -453.451)
(0 -0 -487.028)
(0 -0 -520.729)
(0 -0 -554.561)
(0 -0 -588.524)
(0 -0 -622.584)
(0 -0 -656.875)
(0 -0 -691.155)
(0 -0 -725.912)
(0 -0 -760.366)
(0 -0 -795.652)
(0 -0 -830.184)
(0 -0 -865.458)
(0 -0 -899.962)
(0 -0 94.7645)
(0 -0 91.9863)
(0 -0 92.2033)
(0 -0 93.5341)
(0 -0 94.9212)
(0 -0 96.026)
(0 -0 97.0312)
(0 -0 98.0353)
(0 -0 99.01)
(0 -0 99.8875)
(0 -0 100.577)
(0 -0 100.958)
(0 -0 100.889)
(0 -0 100.216)
(0 -0 98.7881)
(0 -0 96.4619)
(0 -0 93.1125)
(0 -0 88.6359)
(0 -0 82.9523)
(0 -0 76.0064)
(0 -0 67.7667)
(0 -0 58.2236)
(0 -0 47.3869)
(0 -0 35.2832)
(0 -0 21.9529)
(0 -0 7.44725)
(0 -0 -8.17377)
(0 -0 -24.8454)
(0 -0 -42.4985)
(0 -0 -61.0643)
(0 -0 -80.4724)
(0 -0 -100.658)
(0 -0 -121.556)
(0 -0 -143.112)
(0 -0 -165.266)
(0 -0 -187.981)
(0 -0 -211.208)
(0 -0 -234.925)
(0 -0 -259.097)
(0 -0 -283.712)
(0 -0 -308.767)
(0 -0 -334.224)
(0 -0 -360.166)
(0 -0 -386.435)
(0 -0 -413.313)
(0 -0 -440.361)
(0 -0 -468.168)
(0 -0 -495.932)
(0 -0 -524.302)
(0 -0 -552.632)
(0 -0 88.3909)
(0 -0 86.1327)
(0 -0 86.3315)
(0 -0 87.5129)
(0 -0 88.8021)
(0 -0 89.8279)
(0 -0 90.7267)
(0 -0 91.6019)
(0 -0 92.4579)
(0 -0 93.2799)
(0 -0 94.0519)
(0 -0 94.7445)
(0 -0 95.3111)
(0 -0 95.6915)
(0 -0 95.8154)
(0 -0 95.6067)
(0 -0 94.988)
(0 -0 93.8834)
(0 -0 92.2223)
(0 -0 89.9412)
(0 -0 86.9859)
(0 -0 83.3116)
(0 -0 78.884)
(0 -0 73.679)
(0 -0 67.6821)
(0 -0 60.8876)
(0 -0 53.2983)
(0 -0 44.9231)
(0 -0 35.7777)
(0 -0 25.8808)
(0 -0 15.2564)
(0 -0 3.92809)
(0 -0 -8.07633)
(0 -0 -20.7331)
(0 -0 -34.014)
(0 -0 -47.8992)
(0 -0 -62.3635)
(0 -0 -77.3932)
(0 -0 -92.9706)
(0 -0 -109.084)
(0 -0 -125.738)
(0 -0 -142.904)
(0 -0 -160.633)
(0 -0 -178.838)
(0 -0 -197.667)
(0 -0 -216.905)
(0 -0 -236.823)
(0 -0 -257.066)
(0 -0 -277.867)
(0 -0 -299.001)
(0 -0 82.3162)
(0 -0 80.4911)
(0 -0 80.6801)
(0 -0 81.717)
(0 -0 82.903)
(0 -0 83.8636)
(0 -0 84.6945)
(0 -0 85.4922)
(0 -0 86.2649)
(0 -0 87.0059)
(0 -0 87.7169)
(0 -0 88.3975)
(0 -0 89.0392)
(0 -0 89.6261)
(0 -0 90.1351)
(0 -0 90.5373)
(0 -0 90.7993)
(0 -0 90.8838)
(0 -0 90.7518)
(0 -0 90.3636)
(0 -0 89.6805)
(0 -0 88.6655)
(0 -0 87.2842)
(0 -0 85.506)
(0 -0 83.3042)
(0 -0 80.6561)
(0 -0 77.5436)
(0 -0 73.9526)
(0 -0 69.8731)
(0 -0 65.2985)
(0 -0 60.2259)
(0 -0 54.6538)
(0 -0 48.5846)
(0 -0 42.0203)
(0 -0 34.9656)
(0 -0 27.4236)
(0 -0 19.3993)
(0 -0 10.8952)
(0 -0 1.91295)
(0 -0 -7.54421)
(0 -0 -17.4848)
(0 -0 -27.8982)
(0 -0 -38.8148)
(0 -0 -50.1999)
(0 -0 -62.1221)
(0 -0 -74.5007)
(0 -0 -87.4381)
(0 -0 -100.815)
(0 -0 -114.687)
(0 -0 -129.007)
(0 -0 76.5411)
(0 -0 75.0728)
(0 -0 75.2611)
(0 -0 76.1663)
(0 -0 77.2467)
(0 -0 78.1409)
(0 -0 78.9103)
(0 -0 79.6454)
(0 -0 80.3561)
(0 -0 81.0349)
(0 -0 81.6843)
(0 -0 82.3096)
(0 -0 82.9125)
(0 -0 83.4917)
(0 -0 84.0428)
(0 -0 84.5584)
(0 -0 85.0282)
(0 -0 85.4391)
(0 -0 85.7755)
(0 -0 86.0198)
(0 -0 86.1527)
(0 -0 86.1542)
(0 -0 86.0033)
(0 -0 85.6797)
(0 -0 85.1632)
(0 -0 84.4347)
(0 -0 83.4763)
(0 -0 82.2717)
(0 -0 80.8062)
(0 -0 79.0666)
(0 -0 77.0415)
(0 -0 74.7212)
(0 -0 72.097)
(0 -0 69.1616)
(0 -0 65.9086)
(0 -0 62.3323)
(0 -0 58.4272)
(0 -0 54.1884)
(0 -0 49.609)
(0 -0 44.6852)
(0 -0 39.4069)
(0 -0 33.7719)
(0 -0 27.7624)
(0 -0 21.3824)
(0 -0 14.6037)
(0 -0 7.4405)
(0 -0 -0.137392)
(0 -0 -8.11242)
(0 -0 -16.4815)
(0 -0 -25.2618)
(0 -0 71.0653)
(0 -0 69.8881)
(0 -0 70.0815)
(0 -0 70.8694)
(0 -0 71.8461)
(0 -0 72.6736)
(0 -0 73.3832)
(0 -0 74.0589)
(0 -0 74.7135)
(0 -0 75.3389)
(0 -0 75.9361)
(0 -0 76.5099)
(0 -0 77.064)
(0 -0 77.6001)
(0 -0 78.1188)
(0 -0 78.6198)
(0 -0 79.1016)
(0 -0 79.5615)
(0 -0 79.9951)
(0 -0 80.3969)
(0 -0 80.76)
(0 -0 81.0761)
(0 -0 81.336)
(0 -0 81.5298)
(0 -0 81.647)
(0 -0 81.6765)
(0 -0 81.6073)
(0 -0 81.4286)
(0 -0 81.1297)
(0 -0 80.7001)
(0 -0 80.1301)
(0 -0 79.4102)
(0 -0 78.5316)
(0 -0 77.4857)
(0 -0 76.2647)
(0 -0 74.8607)
(0 -0 73.2662)
(0 -0 71.4739)
(0 -0 69.4763)
(0 -0 67.2659)
(0 -0 64.834)
(0 -0 62.1729)
(0 -0 59.2728)
(0 -0 56.1245)
(0 -0 52.7184)
(0 -0 49.0429)
(0 -0 45.0934)
(0 -0 40.8539)
(0 -0 36.3362)
(0 -0 31.513)
(0 -0 65.8873)
(0 -0 64.9456)
(0 -0 65.147)
(0 -0 65.8313)
(0 -0 66.708)
(0 -0 67.4703)
(0 -0 68.1222)
(0 -0 68.7405)
(0 -0 69.3411)
(0 -0 69.9161)
(0 -0 70.4651)
(0 -0 70.9923)
(0 -0 71.501)
(0 -0 71.9932)
(0 -0 72.4704)
(0 -0 72.934)
(0 -0 73.3847)
(0 -0 73.823)
(0 -0 74.2488)
(0 -0 74.6612)
(0 -0 75.0587)
(0 -0 75.4389)
(0 -0 75.7988)
(0 -0 76.1348)
(0 -0 76.4426)
(0 -0 76.7174)
(0 -0 76.9541)
(0 -0 77.1474)
(0 -0 77.2914)
(0 -0 77.3807)
(0 -0 77.4092)
(0 -0 77.3712)
(0 -0 77.2609)
(0 -0 77.0725)
(0 -0 76.8001)
(0 -0 76.4381)
(0 -0 75.9805)
(0 -0 75.4216)
(0 -0 74.7556)
(0 -0 73.9758)
(0 -0 73.0769)
(0 -0 72.0505)
(0 -0 70.8921)
(0 -0 69.5899)
(0 -0 68.1424)
(0 -0 66.5324)
(0 -0 64.7636)
(0 -0 62.8141)
(0 -0 60.691)
(0 -0 58.3752)
(0 -0 61.0043)
(0 -0 60.2516)
(0 -0 60.4618)
(0 -0 61.0551)
(0 -0 61.8367)
(0 -0 62.5354)
(0 -0 63.1327)
(0 -0 63.6962)
(0 -0 64.2446)
(0 -0 64.7712)
(0 -0 65.2742)
(0 -0 65.7571)
(0 -0 66.2231)
(0 -0 66.674)
(0 -0 67.1113)
(0 -0 67.5362)
(0 -0 67.9502)
(0 -0 68.3544)
(0 -0 68.7497)
(0 -0 69.1367)
(0 -0 69.5155)
(0 -0 69.886)
(0 -0 70.2477)
(0 -0 70.5996)
(0 -0 70.9404)
(0 -0 71.2686)
(0 -0 71.5822)
(0 -0 71.8792)
(0 -0 72.1573)
(0 -0 72.4141)
(0 -0 72.6469)
(0 -0 72.8531)
(0 -0 73.0299)
(0 -0 73.1743)
(0 -0 73.2833)
(0 -0 73.3537)
(0 -0 73.3822)
(0 -0 73.3655)
(0 -0 73.3003)
(0 -0 73.1823)
(0 -0 73.0089)
(0 -0 72.7739)
(0 -0 72.4762)
(0 -0 72.1062)
(0 -0 71.6653)
(0 -0 71.1395)
(0 -0 70.533)
(0 -0 69.8297)
(0 -0 69.0314)
(0 -0 68.129)
(0 -0 56.4125)
(0 -0 55.8103)
(0 -0 56.0284)
(0 -0 56.5422)
(0 -0 57.2344)
(0 -0 57.8716)
(0 -0 58.4171)
(0 -0 58.9288)
(0 -0 59.4274)
(0 -0 59.9076)
(0 -0 60.3666)
(0 -0 60.8073)
(0 -0 61.2325)
(0 -0 61.6441)
(0 -0 62.0433)
(0 -0 62.4315)
(0 -0 62.8098)
(0 -0 63.1795)
(0 -0 63.5417)
(0 -0 63.8972)
(0 -0 64.2467)
(0 -0 64.5906)
(0 -0 64.929)
(0 -0 65.2618)
(0 -0 65.589)
(0 -0 65.91)
(0 -0 66.2245)
(0 -0 66.5317)
(0 -0 66.831)
(0 -0 67.1217)
(0 -0 67.403)
(0 -0 67.6739)
(0 -0 67.9335)
(0 -0 68.1807)
(0 -0 68.4143)
(0 -0 68.633)
(0 -0 68.8357)
(0 -0 69.0206)
(0 -0 69.1867)
(0 -0 69.3316)
(0 -0 69.4549)
(0 -0 69.5525)
(0 -0 69.6254)
(0 -0 69.6669)
(0 -0 69.6798)
(0 -0 69.6546)
(0 -0 69.5948)
(0 -0 69.4904)
(0 -0 69.3412)
(0 -0 69.1451)
(0 -0 52.1066)
(0 -0 51.6236)
(0 -0 51.8474)
(0 -0 52.2921)
(0 -0 52.9012)
(0 -0 53.4793)
(0 -0 53.976)
(0 -0 54.439)
(0 -0 54.8905)
(0 -0 55.3264)
(0 -0 55.7436)
(0 -0 56.144)
(0 -0 56.5305)
(0 -0 56.9046)
(0 -0 57.2676)
(0 -0 57.6207)
(0 -0 57.965)
(0 -0 58.3018)
(0 -0 58.632)
(0 -0 58.9565)
(0 -0 59.2761)
(0 -0 59.5911)
(0 -0 59.9018)
(0 -0 60.2085)
(0 -0 60.5111)
(0 -0 60.8097)
(0 -0 61.1041)
(0 -0 61.3943)
(0 -0 61.6802)
(0 -0 61.9617)
(0 -0 62.2387)
(0 -0 62.5112)
(0 -0 62.7789)
(0 -0 63.0418)
(0 -0 63.2996)
(0 -0 63.5521)
(0 -0 63.799)
(0 -0 64.0398)
(0 -0 64.2747)
(0 -0 64.5025)
(0 -0 64.7239)
(0 -0 64.9366)
(0 -0 65.1423)
(0 -0 65.3369)
(0 -0 65.5235)
(0 -0 65.696)
(0 -0 65.8575)
(0 -0 66.0023)
(0 -0 66.13)
(0 -0 66.2417)
(0 -0 48.0804)
(0 -0 47.6913)
(0 -0 47.9178)
(0 -0 48.3026)
(0 -0 48.8355)
(0 -0 49.3569)
(0 -0 49.8078)
(0 -0 50.2253)
(0 -0 50.6324)
(0 -0 51.0266)
(0 -0 51.4042)
(0 -0 51.7666)
(0 -0 52.1163)
(0 -0 52.4549)
(0 -0 52.7836)
(0 -0 53.1034)
(0 -0 53.4154)
(0 -0 53.7209)
(0 -0 54.0207)
(0 -0 54.3157)
(0 -0 54.6065)
(0 -0 54.8936)
(0 -0 55.1772)
(0 -0 55.4574)
(0 -0 55.7343)
(0 -0 56.008)
(0 -0 56.2784)
(0 -0 56.5455)
(0 -0 56.8096)
(0 -0 57.0705)
(0 -0 57.3286)
(0 -0 57.584)
(0 -0 57.8368)
(0 -0 58.0873)
(0 -0 58.3356)
(0 -0 58.5819)
(0 -0 58.8264)
(0 -0 59.0692)
(0 -0 59.3107)
(0 -0 59.5506)
(0 -0 59.79)
(0 -0 60.0277)
(0 -0 60.2655)
(0 -0 60.5009)
(0 -0 60.7368)
(0 -0 60.9692)
(0 -0 61.2013)
(0 -0 61.4293)
(0 -0 61.6539)
(0 -0 61.8763)
(0 -0 44.3261)
(0 -0 44.011)
(0 -0 44.2368)
(0 -0 44.5698)
(0 -0 45.0334)
(0 -0 45.5011)
(0 -0 45.9091)
(0 -0 46.2845)
(0 -0 46.6501)
(0 -0 47.005)
(0 -0 47.3454)
(0 -0 47.672)
(0 -0 47.9871)
(0 -0 48.2923)
(0 -0 48.5885)
(0 -0 48.8768)
(0 -0 49.1584)
(0 -0 49.4343)
(0 -0 49.7054)
(0 -0 49.9725)
(0 -0 50.2362)
(0 -0 50.4968)
(0 -0 50.7545)
(0 -0 51.0094)
(0 -0 51.2616)
(0 -0 51.511)
(0 -0 51.7577)
(0 -0 52.0015)
(0 -0 52.2427)
(0 -0 52.4813)
(0 -0 52.7176)
(0 -0 52.9518)
(0 -0 53.1842)
(0 -0 53.4151)
(0 -0 53.6447)
(0 -0 53.8733)
(0 -0 54.1013)
(0 -0 54.3289)
(0 -0 54.5569)
(0 -0 54.785)
(0 -0 55.0146)
(0 -0 55.2448)
(0 -0 55.4776)
(0 -0 55.7111)
(0 -0 55.9482)
(0 -0 56.1858)
(0 -0 56.4273)
(0 -0 56.6691)
(0 -0 56.9142)
(0 -0 57.1614)
(0 -0 40.8352)
(0 -0 40.5783)
(0 -0 40.7997)
(0 -0 41.0883)
(0 -0 41.4896)
(0 -0 41.9067)
(0 -0 42.2746)
(0 -0 42.6112)
(0 -0 42.9382)
(0 -0 43.2564)
(0 -0 43.562)
(0 -0 43.8552)
(0 -0 44.1379)
(0 -0 44.4117)
(0 -0 44.6775)
(0 -0 44.9364)
(0 -0 45.1893)
(0 -0 45.4374)
(0 -0 45.6815)
(0 -0 45.9224)
(0 -0 46.1605)
(0 -0 46.3962)
(0 -0 46.6297)
(0 -0 46.8608)
(0 -0 47.0897)
(0 -0 47.3161)
(0 -0 47.5401)
(0 -0 47.7617)
(0 -0 47.9809)
(0 -0 48.1978)
(0 -0 48.4127)
(0 -0 48.6258)
(0 -0 48.8373)
(0 -0 49.0476)
(0 -0 49.2569)
(0 -0 49.4655)
(0 -0 49.6739)
(0 -0 49.8823)
(0 -0 50.0915)
(0 -0 50.3013)
(0 -0 50.513)
(0 -0 50.7261)
(0 -0 50.9424)
(0 -0 51.1603)
(0 -0 51.3827)
(0 -0 51.6066)
(0 -0 51.836)
(0 -0 52.0667)
(0 -0 52.3038)
(0 -0 52.5431)
(0 -0 37.5978)
(0 -0 37.3873)
(0 -0 37.6004)
(0 -0 37.8508)
(0 -0 38.1969)
(0 -0 38.5666)
(0 -0 38.8973)
(0 -0 39.1984)
(0 -0 39.4898)
(0 -0 39.7739)
(0 -0 40.0472)
(0 -0 40.3093)
(0 -0 40.5619)
(0 -0 40.8064)
(0 -0 41.0439)
(0 -0 41.2752)
(0 -0 41.5014)
(0 -0 41.7236)
(0 -0 41.9425)
(0 -0 42.1589)
(0 -0 42.3732)
(0 -0 42.5856)
(0 -0 42.7963)
(0 -0 43.0052)
(0 -0 43.2122)
(0 -0 43.4171)
(0 -0 43.6199)
(0 -0 43.8205)
(0 -0 44.019)
(0 -0 44.2154)
(0 -0 44.4099)
(0 -0 44.6029)
(0 -0 44.7944)
(0 -0 44.9848)
(0 -0 45.1744)
(0 -0 45.3635)
(0 -0 45.5524)
(0 -0 45.7413)
(0 -0 45.9311)
(0 -0 46.1217)
(0 -0 46.3142)
(0 -0 46.5082)
(0 -0 46.7055)
(0 -0 46.9044)
(0 -0 47.108)
(0 -0 47.3131)
(0 -0 47.5243)
(0 -0 47.7363)
(0 -0 47.9566)
(0 -0 48.1774)
(0 -0 34.6035)
(0 -0 34.4303)
(0 -0 34.6313)
(0 -0 34.8489)
(0 -0 35.1463)
(0 -0 35.4724)
(0 -0 35.7686)
(0 -0 36.0373)
(0 -0 36.2962)
(0 -0 36.5489)
(0 -0 36.7923)
(0 -0 37.0257)
(0 -0 37.2504)
(0 -0 37.4678)
(0 -0 37.679)
(0 -0 37.8848)
(0 -0 38.0863)
(0 -0 38.2843)
(0 -0 38.4799)
(0 -0 38.6735)
(0 -0 38.8657)
(0 -0 39.0565)
(0 -0 39.2461)
(0 -0 39.4343)
(0 -0 39.6209)
(0 -0 39.8058)
(0 -0 39.9888)
(0 -0 40.1699)
(0 -0 40.3489)
(0 -0 40.5262)
(0 -0 40.7017)
(0 -0 40.8757)
(0 -0 41.0485)
(0 -0 41.2201)
(0 -0 41.3911)
(0 -0 41.5615)
(0 -0 41.7318)
(0 -0 41.9022)
(0 -0 42.0734)
(0 -0 42.2454)
(0 -0 42.4193)
(0 -0 42.5946)
(0 -0 42.7729)
(0 -0 42.9529)
(0 -0 43.1374)
(0 -0 43.323)
(0 -0 43.515)
(0 -0 43.707)
(0 -0 43.9086)
(0 -0 44.1084)
(0 -0 31.8407)
(0 -0 31.6979)
(0 -0 31.8838)
(0 -0 32.0735)
(0 -0 32.3285)
(0 -0 32.6146)
(0 -0 32.879)
(0 -0 33.1182)
(0 -0 33.3475)
(0 -0 33.5715)
(0 -0 33.7875)
(0 -0 33.9944)
(0 -0 34.1935)
(0 -0 34.386)
(0 -0 34.5729)
(0 -0 34.7552)
(0 -0 34.9338)
(0 -0 35.1096)
(0 -0 35.2836)
(0 -0 35.4563)
(0 -0 35.628)
(0 -0 35.7989)
(0 -0 35.969)
(0 -0 36.1381)
(0 -0 36.3059)
(0 -0 36.4723)
(0 -0 36.6369)
(0 -0 36.7998)
(0 -0 36.9609)
(0 -0 37.1203)
(0 -0 37.2781)
(0 -0 37.4345)
(0 -0 37.5897)
(0 -0 37.7439)
(0 -0 37.8974)
(0 -0 38.0504)
(0 -0 38.2033)
(0 -0 38.3562)
(0 -0 38.51)
(0 -0 38.6644)
(0 -0 38.8206)
(0 -0 38.9781)
(0 -0 39.1386)
(0 -0 39.3004)
(0 -0 39.4666)
(0 -0 39.6335)
(0 -0 39.807)
(0 -0 39.9795)
(0 -0 40.1626)
(0 -0 40.3416)
(0 -0 29.2975)
(0 -0 29.1793)
(0 -0 29.3484)
(0 -0 29.5147)
(0 -0 29.7331)
(0 -0 29.9828)
(0 -0 30.2179)
(0 -0 30.4306)
(0 -0 30.6331)
(0 -0 30.8307)
(0 -0 31.0216)
(0 -0 31.2044)
(0 -0 31.38)
(0 -0 31.5497)
(0 -0 31.7144)
(0 -0 31.8751)
(0 -0 32.0327)
(0 -0 32.1881)
(0 -0 32.3423)
(0 -0 32.4957)
(0 -0 32.6487)
(0 -0 32.8013)
(0 -0 32.9535)
(0 -0 33.1051)
(0 -0 33.2556)
(0 -0 33.4049)
(0 -0 33.5527)
(0 -0 33.6989)
(0 -0 33.8434)
(0 -0 33.9863)
(0 -0 34.1277)
(0 -0 34.2678)
(0 -0 34.4067)
(0 -0 34.5447)
(0 -0 34.682)
(0 -0 34.8188)
(0 -0 34.9554)
(0 -0 35.0921)
(0 -0 35.2295)
(0 -0 35.3676)
(0 -0 35.5074)
(0 -0 35.6482)
(0 -0 35.7919)
(0 -0 35.9367)
(0 -0 36.0858)
(0 -0 36.235)
(0 -0 36.391)
(0 -0 36.5449)
(0 -0 36.7106)
(0 -0 36.8697)
(0 -0 26.9612)
(0 -0 26.8632)
(0 -0 27.0145)
(0 -0 27.161)
(0 -0 27.3481)
(0 -0 27.5652)
(0 -0 27.7736)
(0 -0 27.9623)
(0 -0 28.1408)
(0 -0 28.3147)
(0 -0 28.4827)
(0 -0 28.6436)
(0 -0 28.7978)
(0 -0 28.9466)
(0 -0 29.0911)
(0 -0 29.232)
(0 -0 29.3704)
(0 -0 29.5073)
(0 -0 29.6434)
(0 -0 29.7792)
(0 -0 29.9151)
(0 -0 30.0511)
(0 -0 30.187)
(0 -0 30.3225)
(0 -0 30.4573)
(0 -0 30.591)
(0 -0 30.7234)
(0 -0 30.8543)
(0 -0 30.9836)
(0 -0 31.1113)
(0 -0 31.2376)
(0 -0 31.3627)
(0 -0 31.4866)
(0 -0 31.6097)
(0 -0 31.732)
(0 -0 31.8538)
(0 -0 31.9754)
(0 -0 32.0971)
(0 -0 32.2194)
(0 -0 32.3422)
(0 -0 32.4667)
(0 -0 32.5921)
(0 -0 32.7203)
(0 -0 32.8491)
(0 -0 32.9823)
(0 -0 33.115)
(0 -0 33.2547)
(0 -0 33.3913)
(0 -0 33.5405)
(0 -0 33.6809)
(0 -0 24.8192)
(0 -0 24.7374)
(0 -0 24.871)
(0 -0 25.0007)
(0 -0 25.1611)
(0 -0 25.3493)
(0 -0 25.5335)
(0 -0 25.7007)
(0 -0 25.8578)
(0 -0 26.0103)
(0 -0 26.1577)
(0 -0 26.2987)
(0 -0 26.4336)
(0 -0 26.5635)
(0 -0 26.6896)
(0 -0 26.8126)
(0 -0 26.9337)
(0 -0 27.0536)
(0 -0 27.1733)
(0 -0 27.2933)
(0 -0 27.4137)
(0 -0 27.5345)
(0 -0 27.6557)
(0 -0 27.7767)
(0 -0 27.8971)
(0 -0 28.0167)
(0 -0 28.1351)
(0 -0 28.252)
(0 -0 28.3674)
(0 -0 28.4814)
(0 -0 28.5939)
(0 -0 28.7052)
(0 -0 28.8155)
(0 -0 28.9248)
(0 -0 29.0334)
(0 -0 29.1414)
(0 -0 29.2492)
(0 -0 29.357)
(0 -0 29.4654)
(0 -0 29.5742)
(0 -0 29.6846)
(0 -0 29.7957)
(0 -0 29.9095)
(0 -0 30.0237)
(0 -0 30.1421)
(0 -0 30.2595)
(0 -0 30.3841)
(0 -0 30.5046)
(0 -0 30.6385)
(0 -0 30.7615)
(0 -0 22.8584)
(0 -0 22.7896)
(0 -0 22.9062)
(0 -0 23.0214)
(0 -0 23.1593)
(0 -0 23.3222)
(0 -0 23.4845)
(0 -0 23.6325)
(0 -0 23.7706)
(0 -0 23.904)
(0 -0 24.0329)
(0 -0 24.156)
(0 -0 24.2736)
(0 -0 24.3865)
(0 -0 24.4959)
(0 -0 24.6028)
(0 -0 24.7082)
(0 -0 24.8129)
(0 -0 24.9178)
(0 -0 25.0234)
(0 -0 25.1299)
(0 -0 25.2372)
(0 -0 25.345)
(0 -0 25.4529)
(0 -0 25.5605)
(0 -0 25.6673)
(0 -0 25.773)
(0 -0 25.8774)
(0 -0 25.9802)
(0 -0 26.0816)
(0 -0 26.1817)
(0 -0 26.2805)
(0 -0 26.3783)
(0 -0 26.475)
(0 -0 26.5711)
(0 -0 26.6665)
(0 -0 26.7618)
(0 -0 26.8568)
(0 -0 26.9525)
(0 -0 27.0485)
(0 -0 27.1459)
(0 -0 27.244)
(0 -0 27.3445)
(0 -0 27.4453)
(0 -0 27.5501)
(0 -0 27.6534)
(0 -0 27.7641)
(0 -0 27.8697)
(0 -0 27.9894)
(0 -0 28.0962)
(0 -0 21.0659)
(0 -0 21.0075)
(0 -0 21.1081)
(0 -0 21.2108)
(0 -0 21.3298)
(0 -0 21.4705)
(0 -0 21.6133)
(0 -0 21.7443)
(0 -0 21.8656)
(0 -0 21.9821)
(0 -0 22.0944)
(0 -0 22.2015)
(0 -0 22.3035)
(0 -0 22.4012)
(0 -0 22.4958)
(0 -0 22.5882)
(0 -0 22.6794)
(0 -0 22.7705)
(0 -0 22.8621)
(0 -0 22.9549)
(0 -0 23.0489)
(0 -0 23.144)
(0 -0 23.2399)
(0 -0 23.3362)
(0 -0 23.4322)
(0 -0 23.5276)
(0 -0 23.622)
(0 -0 23.715)
(0 -0 23.8066)
(0 -0 23.8967)
(0 -0 23.9855)
(0 -0 24.073)
(0 -0 24.1594)
(0 -0 24.2449)
(0 -0 24.3296)
(0 -0 24.4136)
(0 -0 24.4974)
(0 -0 24.5809)
(0 -0 24.6649)
(0 -0 24.7492)
(0 -0 24.8349)
(0 -0 24.921)
(0 -0 25.0095)
(0 -0 25.0979)
(0 -0 25.1903)
(0 -0 25.2808)
(0 -0 25.3786)
(0 -0 25.4706)
(0 -0 25.5773)
(0 -0 25.6693)
(0 -0 19.4287)
(0 -0 19.3787)
(0 -0 19.4648)
(0 -0 19.5563)
(0 -0 19.6595)
(0 -0 19.7813)
(0 -0 19.9067)
(0 -0 20.0225)
(0 -0 20.1291)
(0 -0 20.2307)
(0 -0 20.3283)
(0 -0 20.4212)
(0 -0 20.5093)
(0 -0 20.5934)
(0 -0 20.6747)
(0 -0 20.7541)
(0 -0 20.8328)
(0 -0 20.9116)
(0 -0 20.9914)
(0 -0 21.0727)
(0 -0 21.1556)
(0 -0 21.2399)
(0 -0 21.3253)
(0 -0 21.4111)
(0 -0 21.497)
(0 -0 21.5822)
(0 -0 21.6664)
(0 -0 21.7493)
(0 -0 21.8308)
(0 -0 21.9108)
(0 -0 21.9895)
(0 -0 22.0669)
(0 -0 22.1432)
(0 -0 22.2184)
(0 -0 22.2929)
(0 -0 22.3666)
(0 -0 22.44)
(0 -0 22.5131)
(0 -0 22.5866)
(0 -0 22.6603)
(0 -0 22.7353)
(0 -0 22.8106)
(0 -0 22.8882)
(0 -0 22.9654)
(0 -0 23.0465)
(0 -0 23.1253)
(0 -0 23.2114)
(0 -0 23.2909)
(0 -0 23.3856)
(0 -0 23.4641)
(0 -0 17.9344)
(0 -0 17.8909)
(0 -0 17.9642)
(0 -0 18.0458)
(0 -0 18.1359)
(0 -0 18.2415)
(0 -0 18.3515)
(0 -0 18.4539)
(0 -0 18.5477)
(0 -0 18.6362)
(0 -0 18.7208)
(0 -0 18.8011)
(0 -0 18.8769)
(0 -0 18.9489)
(0 -0 19.0183)
(0 -0 19.0862)
(0 -0 19.1537)
(0 -0 19.2217)
(0 -0 19.291)
(0 -0 19.3622)
(0 -0 19.4352)
(0 -0 19.51)
(0 -0 19.586)
(0 -0 19.6627)
(0 -0 19.7394)
(0 -0 19.8157)
(0 -0 19.8909)
(0 -0 19.9649)
(0 -0 20.0374)
(0 -0 20.1084)
(0 -0 20.1781)
(0 -0 20.2464)
(0 -0 20.3136)
(0 -0 20.3797)
(0 -0 20.445)
(0 -0 20.5094)
(0 -0 20.5735)
(0 -0 20.6372)
(0 -0 20.7013)
(0 -0 20.7654)
(0 -0 20.8308)
(0 -0 20.8963)
(0 -0 20.964)
(0 -0 21.0311)
(0 -0 21.102)
(0 -0 21.1702)
(0 -0 21.2457)
(0 -0 21.314)
(0 -0 21.3977)
(0 -0 21.4639)
(0 -0 16.5708)
(0 -0 16.5324)
(0 -0 16.5945)
(0 -0 16.6673)
(0 -0 16.7466)
(0 -0 16.8384)
(0 -0 16.935)
(0 -0 17.0257)
(0 -0 17.1082)
(0 -0 17.1853)
(0 -0 17.2585)
(0 -0 17.3276)
(0 -0 17.3925)
(0 -0 17.4539)
(0 -0 17.5128)
(0 -0 17.5705)
(0 -0 17.628)
(0 -0 17.6864)
(0 -0 17.7464)
(0 -0 17.8086)
(0 -0 17.873)
(0 -0 17.9394)
(0 -0 18.0072)
(0 -0 18.0758)
(0 -0 18.1446)
(0 -0 18.213)
(0 -0 18.2803)
(0 -0 18.3464)
(0 -0 18.411)
(0 -0 18.4741)
(0 -0 18.5357)
(0 -0 18.596)
(0 -0 18.6551)
(0 -0 18.7131)
(0 -0 18.7701)
(0 -0 18.8263)
(0 -0 18.882)
(0 -0 18.9373)
(0 -0 18.9929)
(0 -0 19.0485)
(0 -0 19.1052)
(0 -0 19.162)
(0 -0 19.2208)
(0 -0 19.2789)
(0 -0 19.3405)
(0 -0 19.3992)
(0 -0 19.465)
(0 -0 19.5232)
(0 -0 19.5969)
(0 -0 19.6521)
(0 -0 15.3263)
(0 -0 15.2919)
(0 -0 15.3444)
(0 -0 15.4094)
(0 -0 15.4797)
(0 -0 15.5601)
(0 -0 15.645)
(0 -0 15.7253)
(0 -0 15.7981)
(0 -0 15.8653)
(0 -0 15.9285)
(0 -0 15.9878)
(0 -0 16.0431)
(0 -0 16.095)
(0 -0 16.1447)
(0 -0 16.1933)
(0 -0 16.242)
(0 -0 16.2919)