/*--------------------------------*- C++ -*----------------------------------*\
  =========                 |
  \\      /  F ield         | OpenFOAM: The Open Source CFD Toolbox
   \\    /   O peration     | Website:  https://openfoam.org
    \\  /    A nd           | Version:  7
     \\/     M anipulation  |
\*---------------------------------------------------------------------------*/
FoamFile
{
    version     2.0;
    format      ascii;
    class       surfaceScalarField;
    location    "0.24";
    object      ddtCorrDdt0(phi);
}
// * * * * * * * * * * * * * * * * * * * * * * * * * * * * * * * * * * * * * //

dimensions      [0 3 -2 0 0 0 0];

internalField   nonuniform List<scalar> 
139350
(
-2.11433e-10
2.10233e-10
-4.70567e-10
2.5638e-10
-6.10708e-10
1.37236e-10
-6.08948e-10
-4.274e-12
-5.07115e-10
-1.04213e-10
-3.46908e-10
-1.6243e-10
-1.68774e-10
-1.8026e-10
-6.12842e-12
-1.64958e-10
1.2219e-10
-1.3048e-10
2.09904e-10
-9.02097e-11
2.62262e-10
-5.46124e-11
2.90408e-10
-3.05175e-11
3.0849e-10
-2.01855e-11
3.28591e-10
-2.21921e-11
3.59569e-10
-3.28413e-11
4.052e-10
-4.78922e-11
4.67925e-10
-6.44492e-11
5.44803e-10
-7.98152e-11
6.36776e-10
-9.37838e-11
7.40269e-10
-1.0663e-10
8.57125e-10
-1.18965e-10
9.86844e-10
-1.32285e-10
1.13203e-09
-1.47399e-10
1.29493e-09
-1.65473e-10
1.4808e-09
-1.8793e-10
1.69199e-09
-2.14745e-10
1.93666e-09
-2.46879e-10
2.2175e-09
-2.84846e-10
2.54261e-09
-3.27857e-10
2.9166e-09
-3.77438e-10
3.34488e-09
-4.31259e-10
3.83345e-09
-4.92184e-10
4.38429e-09
-5.53618e-10
5.00414e-09
-6.248e-10
5.68564e-09
-6.84378e-10
6.44155e-09
-7.61326e-10
7.23446e-09
-7.96263e-10
8.09202e-09
-8.61792e-10
8.91242e-09
-8.23933e-10
9.73111e-09
-8.21772e-10
1.03451e-08
-6.1726e-10
1.07249e-08
-3.83039e-10
1.05381e-08
1.83649e-10
9.48133e-09
1.0525e-09
6.9513e-09
2.52613e-09
2.06931e-09
4.87691e-09
-7.01904e-09
9.08332e-09
-2.268e-08
1.56563e-08
-4.67928e-08
2.41109e-08
7.13884e-08
-1.18181e-07
-3.2231e-10
5.31087e-10
-7.94488e-10
7.25572e-10
-9.43583e-10
2.83207e-10
-6.24508e-10
-3.26056e-10
4.1398e-11
-7.72685e-10
9.06596e-10
-1.03004e-09
1.83521e-09
-1.11118e-09
2.71418e-09
-1.04645e-09
3.47827e-09
-8.96929e-10
4.1107e-09
-7.25349e-10
4.63212e-09
-5.78475e-10
5.0824e-09
-4.83352e-10
5.50658e-09
-4.46638e-10
5.94207e-09
-4.59944e-10
6.41417e-09
-5.06951e-10
6.93459e-09
-5.70799e-10
7.50804e-09
-6.39764e-10
8.13059e-09
-7.05579e-10
8.80162e-09
-7.66788e-10
9.51658e-09
-8.24962e-10
1.0278e-08
-8.82688e-10
1.10878e-08
-9.44833e-10
1.19531e-08
-1.01513e-09
1.28828e-08
-1.09799e-09
1.38907e-08
-1.19801e-09
1.49891e-08
-1.31706e-09
1.61981e-08
-1.45834e-09
1.75337e-08
-1.62467e-09
1.90186e-08
-1.81582e-09
2.06738e-08
-2.03631e-09
2.2523e-08
-2.28361e-09
2.45916e-08
-2.5648e-09
2.69046e-08
-2.8696e-09
2.94921e-08
-3.2177e-09
3.23754e-08
-3.57079e-09
3.5594e-08
-3.98575e-09
3.91415e-08
-4.34748e-09
4.30784e-08
-4.8031e-09
4.73111e-08
-5.06042e-09
5.19375e-08
-5.45151e-09
5.66438e-08
-5.327e-09
6.15785e-08
-5.32123e-09
6.59362e-08
-4.17752e-09
6.97581e-08
-2.77411e-09
7.15185e-08
7.61514e-10
6.94279e-08
6.96199e-09
6.35012e-08
1.50046e-08
3.71263e-08
4.20262e-08
8.87525e-09
5.23606e-08
2.23249e-07
-1.42986e-07
-2.9908e-10
8.28507e-10
-8.72315e-10
1.29563e-09
-1.09225e-09
4.99845e-10
-5.96513e-10
-8.24662e-10
5.46555e-10
-1.91847e-09
2.11564e-09
-2.60169e-09
3.874e-09
-2.87199e-09
5.61173e-09
-2.78687e-09
7.19007e-09
-2.47779e-09
8.55524e-09
-2.0934e-09
9.72443e-09
-1.75026e-09
1.07556e-08
-1.51718e-09
1.17203e-08
-1.41382e-09
1.26817e-08
-1.42366e-09
1.3684e-08
-1.51144e-09
1.4751e-08
-1.64048e-09
1.58936e-08
-1.78434e-09
1.71107e-08
-1.92605e-09
1.84028e-08
-2.06107e-09
1.97664e-08
-2.19209e-09
2.12052e-08
-2.32388e-09
2.27229e-08
-2.46548e-09
2.43299e-08
-2.62462e-09
2.60391e-08
-2.81026e-09
2.78702e-08
-3.03144e-09
2.98426e-08
-3.29362e-09
3.19852e-08
-3.60349e-09
3.43237e-08
-3.96777e-09
3.68933e-08
-4.38855e-09
3.97276e-08
-4.8745e-09
4.28667e-08
-5.42617e-09
4.63525e-08
-6.05482e-09
5.02334e-08
-6.75364e-09
5.4558e-08
-7.54805e-09
5.93843e-08
-8.40047e-09
6.47696e-08
-9.37708e-09
7.07644e-08
-1.03462e-08
7.74447e-08
-1.1488e-08
8.47885e-08
-1.24083e-08
9.29347e-08
-1.36012e-08
1.01586e-07
-1.39824e-08
1.11071e-07
-1.48092e-08
1.20367e-07
-1.34771e-08
1.29897e-07
-1.23098e-08
1.37907e-07
-7.25284e-09
1.41657e-07
3.20691e-09
1.44576e-07
1.208e-08
1.19553e-07
6.7044e-08
9.399e-08
7.79221e-08
3.78312e-07
-6.1073e-08
-2.33743e-10
1.06044e-09
-8.42621e-10
1.90117e-09
-1.24887e-09
9.0265e-10
-9.07144e-10
-1.16938e-09
3.10175e-10
-3.13862e-09
2.23661e-09
-4.53081e-09
4.59152e-09
-5.22946e-09
7.0791e-09
-5.27728e-09
9.46629e-09
-4.8676e-09
1.1623e-08
-4.25312e-09
1.35215e-08
-3.65147e-09
1.52049e-08
-3.2034e-09
1.67511e-08
-2.96254e-09
1.82395e-08
-2.91456e-09
1.97331e-08
-3.00728e-09
2.12717e-08
-3.18187e-09
2.28787e-08
-3.39339e-09
2.45623e-08
-3.6132e-09
2.63302e-08
-3.83126e-09
2.81843e-08
-4.04986e-09
3.01326e-08
-4.27467e-09
3.21821e-08
-4.51799e-09
3.43457e-08
-4.79087e-09
3.66389e-08
-5.10663e-09
3.90837e-08
-5.47874e-09
4.17028e-08
-5.91701e-09
4.45288e-08
-6.43225e-09
4.75926e-08
-7.03623e-09
5.09355e-08
-7.73483e-09
5.45987e-08
-8.54171e-09
5.86324e-08
-9.4634e-09
6.30882e-08
-1.0515e-08
6.80307e-08
-1.16995e-08
7.35199e-08
-1.30432e-08
7.96406e-08
-1.45246e-08
8.64606e-08
-1.62033e-08
9.4073e-08
-1.79626e-08
1.02565e-07
-1.9985e-08
1.1197e-07
-2.18173e-08
1.22459e-07
-2.40941e-08
1.33775e-07
-2.53014e-08
1.46332e-07
-2.73703e-08
1.59148e-07
-2.6297e-08
1.72612e-07
-2.5779e-08
1.85538e-07
-2.01832e-08
1.93892e-07
-5.15334e-09
2.03373e-07
2.59316e-09
1.85566e-07
8.48461e-08
1.55896e-07
1.07592e-07
4.95682e-07
3.85256e-08
-1.77383e-10
1.23589e-09
-7.65539e-10
2.48586e-09
-1.37186e-09
1.50541e-09
-1.41544e-09
-1.1289e-09
-5.60243e-10
-3.99676e-09
1.20708e-09
-6.30091e-09
3.68596e-09
-7.711e-09
6.57167e-09
-8.16592e-09
9.562e-09
-7.86066e-09
1.24333e-08
-7.12752e-09
1.50711e-08
-6.29213e-09
1.74566e-08
-5.59175e-09
1.9634e-08
-5.1425e-09
2.16725e-08
-4.95569e-09
2.36402e-08
-4.97725e-09
2.55891e-08
-5.13363e-09
2.75573e-08
-5.3638e-09
2.9568e-08
-5.62763e-09
3.16431e-08
-5.9086e-09
3.37967e-08
-6.20726e-09
3.60477e-08
-6.52835e-09
3.8412e-08
-6.88529e-09
4.09084e-08
-7.29004e-09
4.35564e-08
-7.75793e-09
4.63801e-08
-8.30489e-09
4.94025e-08
-8.94392e-09
5.26567e-08
-9.68928e-09
5.61735e-08
-1.05578e-08
5.99952e-08
-1.156e-08
6.41643e-08
-1.27149e-08
6.87348e-08
-1.40375e-08
7.37613e-08
-1.5546e-08
7.93172e-08
-1.72588e-08
8.54662e-08
-1.91983e-08
9.23094e-08
-2.13714e-08
9.99174e-08
-2.38177e-08
1.0841e-07
-2.6459e-08
1.17877e-07
-2.94567e-08
1.28387e-07
-3.23323e-08
1.40117e-07
-3.58274e-08
1.52874e-07
-3.80625e-08
1.67018e-07
-4.15177e-08
1.8183e-07
-4.11135e-08
1.97265e-07
-4.12187e-08
2.1305e-07
-3.59733e-08
2.24222e-07
-1.63311e-08
2.36112e-07
-9.30273e-09
2.26667e-07
9.42864e-08
1.90613e-07
1.43644e-07
5.79593e-07
1.06702e-07
-1.49859e-10
1.38373e-09
-6.8965e-10
3.02208e-09
-1.42204e-09
2.23413e-09
-1.8719e-09
-6.82221e-10
-1.60494e-09
-4.26673e-09
-4.17675e-10
-7.49104e-09
1.66439e-09
-9.79579e-09
4.44123e-09
-1.09458e-08
7.62814e-09
-1.10504e-08
1.0948e-08
-1.04505e-08
1.41958e-08
-9.54284e-09
1.72583e-08
-8.65719e-09
2.01033e-08
-7.99023e-09
2.27503e-08
-7.60529e-09
2.52419e-08
-7.47119e-09
2.76234e-08
-7.51814e-09
2.99381e-08
-7.68069e-09
3.22209e-08
-7.91418e-09
3.45092e-08
-8.19935e-09
3.68351e-08
-8.53693e-09
3.92349e-08
-8.93096e-09
4.17412e-08
-9.39473e-09
4.43869e-08
-9.93848e-09
4.72015e-08
-1.05759e-08
5.02153e-08
-1.13213e-08
5.34541e-08
-1.21873e-08
5.69505e-08
-1.31886e-08
6.07329e-08
-1.43451e-08
6.48408e-08
-1.56714e-08
6.93129e-08
-1.71912e-08
7.42014e-08
-1.89297e-08
7.95581e-08
-2.09074e-08
8.54585e-08
-2.31627e-08
9.1964e-08
-2.57101e-08
9.91834e-08
-2.85945e-08
1.07185e-07
-3.18257e-08
1.16102e-07
-3.53799e-08
1.26019e-07
-3.93793e-08
1.37034e-07
-4.33518e-08
1.49294e-07
-4.80905e-08
1.62704e-07
-5.1477e-08
1.77457e-07
-5.62741e-08
1.93204e-07
-5.68649e-08
2.0937e-07
-5.73898e-08
2.26329e-07
-5.29369e-08
2.39239e-07
-2.92467e-08
2.50656e-07
-2.07257e-08
2.47855e-07
9.7082e-08
2.09237e-07
1.82262e-07
6.40295e-07
1.48537e-07
-1.47561e-10
1.5292e-09
-6.49019e-10
3.51987e-09
-1.42582e-09
3.00717e-09
-2.1584e-09
4.70961e-11
-2.44574e-09
-3.98247e-09
-1.98526e-09
-7.95445e-09
-6.33283e-10
-1.11506e-08
1.57971e-09
-1.31618e-08
4.4818e-09
-1.39553e-08
7.82771e-09
-1.37997e-08
1.13739e-08
-1.3092e-08
1.49266e-08
-1.22129e-08
1.83627e-08
-1.14291e-08
2.16216e-08
-1.0867e-08
2.46877e-08
-1.05396e-08
2.75696e-08
-1.04031e-08
3.02923e-08
-1.04057e-08
3.28864e-08
-1.05121e-08
3.53951e-08
-1.07104e-08
3.78633e-08
-1.1009e-08
4.03462e-08
-1.14166e-08
4.28976e-08
-1.19493e-08
4.55721e-08
-1.26158e-08
4.84188e-08
-1.3426e-08
5.1483e-08
-1.43881e-08
5.48003e-08
-1.55093e-08
5.84079e-08
-1.67991e-08
6.23337e-08
-1.82758e-08
6.66136e-08
-1.9955e-08
7.12804e-08
-2.18622e-08
7.63802e-08
-2.40333e-08
8.19573e-08
-2.64892e-08
8.80832e-08
-2.92922e-08
9.48126e-08
-3.24458e-08
1.02253e-07
-3.6039e-08
1.10469e-07
-4.00475e-08
1.19594e-07
-4.451e-08
1.29709e-07
-4.94984e-08
1.40927e-07
-5.45743e-08
1.53353e-07
-6.05205e-08
1.66993e-07
-6.51207e-08
1.81859e-07
-7.11444e-08
1.97902e-07
-7.29118e-08
2.1423e-07
-7.37229e-08
2.31314e-07
-7.00257e-08
2.45327e-07
-4.32656e-08
2.5537e-07
-3.07743e-08
2.56671e-07
9.57766e-08
2.20496e-07
2.18436e-07
6.84005e-07
1.76787e-07
-1.58143e-10
1.68519e-09
-6.47051e-10
4.00501e-09
-1.4271e-09
3.78339e-09
-2.30026e-09
9.16917e-10
-2.96147e-09
-3.32441e-09
-3.11739e-09
-7.80153e-09
-2.53722e-09
-1.17336e-08
-1.10366e-09
-1.45986e-08
1.16225e-09
-1.62242e-08
4.11945e-09
-1.67603e-08
7.56106e-09
-1.65366e-08
1.12692e-08
-1.59241e-08
1.50583e-08
-1.52209e-08
1.87917e-08
-1.46031e-08
2.23816e-08
-1.41319e-08
2.57781e-08
-1.38027e-08
2.89633e-08
-1.35932e-08
3.19395e-08
-1.34922e-08
3.4735e-08
-1.35084e-08
3.73917e-08
-1.36697e-08
3.99725e-08
-1.40003e-08
4.25478e-08
-1.45278e-08
4.51951e-08
-1.52659e-08
4.79886e-08
-1.6223e-08
5.09982e-08
-1.74004e-08
5.42795e-08
-1.87953e-08
5.78837e-08
-2.04063e-08
6.18457e-08
-2.22427e-08
6.62027e-08
-2.43157e-08
7.09829e-08
-2.66467e-08
7.62256e-08
-2.92798e-08
8.1965e-08
-3.22333e-08
8.82633e-08
-3.5594e-08
9.51648e-08
-3.93537e-08
1.02769e-07
-4.36466e-08
1.1113e-07
-4.84159e-08
1.20378e-07
-5.37622e-08
1.30583e-07
-5.97079e-08
1.41863e-07
-6.58591e-08
1.54291e-07
-7.29522e-08
1.67931e-07
-7.87644e-08
1.82686e-07
-8.59038e-08
1.98648e-07
-8.88769e-08
2.1487e-07
-8.99508e-08
2.31574e-07
-8.67341e-08
2.46156e-07
-5.78533e-08
2.55039e-07
-3.96634e-08
2.5868e-07
9.21314e-08
2.28775e-07
2.48341e-07
7.12599e-07
2.00183e-07
-1.70428e-10
1.8534e-09
-6.7075e-10
4.50149e-09
-1.45255e-09
4.56127e-09
-2.37464e-09
1.83561e-09
-3.22417e-09
-2.47809e-09
-3.77211e-09
-7.25665e-09
-3.78753e-09
-1.17211e-08
-3.07936e-09
-1.53099e-08
-1.54841e-09
-1.77581e-08
7.85262e-10
-1.90973e-08
3.80084e-09
-1.95552e-08
7.31617e-09
-1.94426e-08
1.11357e-08
-1.90433e-08
1.50818e-08
-1.8552e-08
1.90117e-08
-1.80643e-08
2.28181e-08
-1.76122e-08
2.64303e-08
-1.72077e-08
2.9806e-08
-1.68719e-08
3.29383e-08
-1.66433e-08
3.58453e-08
-1.65807e-08
3.85779e-08
-1.67357e-08
4.12073e-08
-1.71605e-08
4.38239e-08
-1.78854e-08
4.6524e-08
-1.89267e-08
4.94045e-08
-2.02837e-08
5.25488e-08
-2.19443e-08
5.60324e-08
-2.3893e-08
5.99079e-08
-2.61233e-08
6.42231e-08
-2.86346e-08
6.90084e-08
-3.14363e-08
7.42997e-08
-3.4575e-08
8.01226e-08
-3.80611e-08
8.65273e-08
-4.20023e-08
9.35461e-08
-4.63789e-08
1.01261e-07
-5.13655e-08
1.0972e-07
-5.68811e-08
1.1903e-07
-6.30765e-08
1.29258e-07
-6.99414e-08
1.40507e-07
-7.7112e-08
1.52835e-07
-8.52842e-08
1.66316e-07
-9.22495e-08
1.80814e-07
-1.00406e-07
1.96451e-07
-1.04517e-07
2.1235e-07
-1.05855e-07
2.28445e-07
-1.02835e-07
2.43127e-07
-7.25402e-08
2.5128e-07
-4.7822e-08
2.56517e-07
8.68906e-08
2.34705e-07
2.70153e-07
7.25622e-07
2.21685e-07
-1.80201e-10
2.03133e-09
-7.02986e-10
5.02036e-09
-1.50091e-09
5.3552e-09
-2.44158e-09
2.77282e-09
-3.3621e-09
-1.56083e-09
-4.10028e-09
-6.52159e-09
-4.46915e-09
-1.13552e-08
-4.27178e-09
-1.55106e-08
-3.35263e-09
-1.86803e-08
-1.64411e-09
-2.08093e-08
8.21535e-10
-2.20239e-08
3.92751e-09
-2.25518e-08
7.51076e-09
-2.26294e-08
1.13954e-08
-2.24395e-08
1.54178e-08
-2.20892e-08
1.94361e-08
-2.16336e-08
2.33379e-08
-2.11119e-08
2.70371e-08
-2.0575e-08
3.04842e-08
-2.0093e-08
3.36589e-08
-1.97594e-08
3.65823e-08
-1.96619e-08
3.93069e-08
-1.98884e-08
4.19179e-08
-2.04994e-08
4.45203e-08
-2.15327e-08
4.72311e-08
-2.29972e-08
5.01606e-08
-2.48787e-08
5.34138e-08
-2.71493e-08
5.707e-08
-2.97844e-08
6.11973e-08
-3.27657e-08
6.58391e-08
-3.60825e-08
7.10352e-08
-3.97749e-08
7.68086e-08
-4.38394e-08
8.31987e-08
-4.8396e-08
9.02274e-08
-5.34141e-08
9.79546e-08
-5.90967e-08
1.0642e-07
-6.53526e-08
1.15698e-07
-7.23595e-08
1.25857e-07
-8.0105e-08
1.36962e-07
-8.82213e-08
1.49071e-07
-9.73975e-08
1.62241e-07
-1.05423e-07
1.76317e-07
-1.14486e-07
1.91429e-07
-1.19633e-07
2.06768e-07
-1.21199e-07
2.22087e-07
-1.18158e-07
2.36489e-07
-8.6948e-08
2.44248e-07
-5.55862e-08
2.50856e-07
8.02789e-08
2.3819e-07
2.8282e-07
7.23413e-07
2.40402e-07
-1.87898e-10
2.2169e-09
-7.35396e-10
5.56385e-09
-1.56032e-09
6.17606e-09
-2.52055e-09
3.72952e-09
-3.46628e-09
-6.18429e-10
-4.27396e-09
-5.71708e-09
-4.80253e-09
-1.08296e-08
-4.88419e-09
-1.54322e-08
-4.35716e-09
-1.92104e-08
-3.11487e-09
-2.20551e-08
-1.13247e-09
-2.40095e-08
1.5322e-09
-2.52197e-08
4.76276e-09
-2.58628e-08
8.41151e-09
-2.60911e-08
1.23242e-08
-2.60045e-08
1.63527e-08
-2.56652e-08
2.03656e-08
-2.51273e-08
2.42487e-08
-2.44621e-08
2.79174e-08
-2.37643e-08
3.13133e-08
-2.31593e-08
3.44196e-08
-2.27712e-08
3.72567e-08
-2.27288e-08
3.98876e-08
-2.31333e-08
4.24085e-08
-2.40572e-08
4.49417e-08
-2.55332e-08
4.76153e-08
-2.7557e-08
5.05598e-08
-3.00971e-08
5.38834e-08
-3.3113e-08
5.76811e-08
-3.65673e-08
6.2018e-08
-4.04237e-08
6.69465e-08
-4.47073e-08
7.24961e-08
-4.9394e-08
7.87003e-08
-5.46039e-08
8.55759e-08
-6.02962e-08
9.31596e-08
-6.66845e-08
1.01483e-07
-7.36827e-08
1.10586e-07
-8.14667e-08
1.20531e-07
-9.00548e-08
1.31344e-07
-9.90388e-08
1.43075e-07
-1.09132e-07
1.55763e-07
-1.18116e-07
1.69223e-07
-1.2795e-07
1.83606e-07
-1.3402e-07
1.98147e-07
-1.35745e-07
2.12503e-07
-1.32518e-07
2.2632e-07
-1.0077e-07
2.3391e-07
-6.31815e-08
2.4185e-07
7.23353e-08
2.38466e-07
2.86205e-07
7.06699e-07
2.55184e-07
-1.95011e-10
2.40954e-09
-7.66493e-10
6.13126e-09
-1.62279e-09
7.02823e-09
-2.60998e-09
4.71312e-09
-3.57361e-09
3.41821e-10
-4.40331e-09
-4.8906e-09
-4.98502e-09
-1.02509e-08
-5.17928e-09
-1.52414e-08
-4.84225e-09
-1.95506e-08
-3.86518e-09
-2.30357e-08
-2.20091e-09
-2.56769e-08
1.26398e-10
-2.75503e-08
3.03688e-09
-2.87762e-08
6.41457e-09
-2.94717e-08
1.01281e-08
-2.97205e-08
1.40414e-08
-2.95817e-08
1.80249e-08
-2.91133e-08
2.19552e-08
-2.83965e-08
2.57293e-08
-2.75411e-08
2.92613e-08
-2.66953e-08
3.25014e-08
-2.60143e-08
3.54355e-08
-2.56662e-08
3.80956e-08
-2.57964e-08
4.05558e-08
-2.6521e-08
4.29284e-08
-2.79087e-08
4.53452e-08
-2.99786e-08
4.79521e-08
-3.27072e-08
5.08805e-08
-3.60465e-08
5.42515e-08
-3.99422e-08
5.81556e-08
-4.43321e-08
6.26639e-08
-4.92196e-08
6.78206e-08
-5.45556e-08
7.36598e-08
-6.04468e-08
8.02001e-08
-6.68429e-08
8.74591e-08
-7.39476e-08
9.5463e-08
-8.1693e-08
1.04216e-07
-9.02245e-08
1.13773e-07
-9.9616e-08
1.24124e-07
-1.09394e-07
1.35294e-07
-1.20307e-07
1.47321e-07
-1.30146e-07
1.5997e-07
-1.40603e-07
1.73423e-07
-1.47476e-07
1.86955e-07
-1.49283e-07
2.00173e-07
-1.4574e-07
2.13163e-07
-1.13766e-07
2.20735e-07
-7.07575e-08
2.30018e-07
6.30495e-08
2.35371e-07
2.80854e-07
6.76757e-07
2.65317e-07
-2.02377e-10
2.60949e-09
-7.9743e-10
6.72216e-09
-1.68586e-09
7.91245e-09
-2.70451e-09
5.72812e-09
-3.69015e-09
1.32403e-09
-4.53204e-09
-4.05198e-09
-5.12569e-09
-9.66041e-09
-5.34783e-09
-1.50227e-08
-5.0718e-09
-1.98298e-08
-4.20044e-09
-2.39107e-08
-2.68744e-09
-2.71932e-08
-5.4697e-10
-2.96941e-08
2.15854e-09
-3.14847e-08
5.33383e-09
-3.26499e-08
8.86761e-09
-3.32569e-08
1.26408e-08
-3.33582e-08
1.65352e-08
-3.30102e-08
2.04319e-08
-3.22972e-08
2.42237e-08
-3.13356e-08
2.78121e-08
-3.02877e-08
3.11259e-08
-2.93312e-08
3.41236e-08
-2.86672e-08
3.68074e-08
-2.84833e-08
3.92243e-08
-2.89416e-08
4.14676e-08
-3.01548e-08
4.36604e-08
-3.21762e-08
4.59515e-08
-3.50016e-08
4.84856e-08
-3.85856e-08
5.1403e-08
-4.28636e-08
5.48171e-08
-4.77506e-08
5.88186e-08
-5.32251e-08
6.347e-08
-5.92119e-08
6.8812e-08
-6.57926e-08
7.48704e-08
-7.29077e-08
8.16507e-08
-8.0732e-08
8.91753e-08
-8.92239e-08
9.74224e-08
-9.84762e-08
1.0643e-07
-1.08628e-07
1.16166e-07
-1.19135e-07
1.26619e-07
-1.30763e-07
1.37831e-07
-1.41362e-07
1.49518e-07
-1.52294e-07
1.61879e-07
-1.59841e-07
1.74259e-07
-1.61667e-07
1.86224e-07
-1.57709e-07
1.98241e-07
-1.25787e-07
2.05901e-07
-7.84222e-08
2.16553e-07
5.23956e-08
2.29638e-07
2.6777e-07
6.35442e-07
2.70957e-07
-2.10153e-10
2.81717e-09
-8.29207e-10
7.337e-09
-1.74994e-09
8.82892e-09
-2.80158e-09
6.77605e-09
-3.81301e-09
2.33197e-09
-4.66898e-09
-3.19933e-09
-5.26551e-09
-9.06703e-09
-5.48429e-09
-1.48074e-08
-5.20785e-09
-2.01095e-08
-4.34964e-09
-2.47726e-08
-2.87159e-09
-2.86745e-08
-7.90881e-10
-3.17782e-08
1.83272e-09
-3.41113e-08
4.9115e-09
-3.57317e-08
8.34468e-09
-3.66928e-08
1.20248e-08
-3.70415e-08
1.58445e-08
-3.68323e-08
1.96933e-08
-3.615e-08
2.34684e-08
-3.51135e-08
2.70689e-08
-3.38923e-08
3.04143e-08
-3.26796e-08
3.34462e-08
-3.17024e-08
3.61447e-08
-3.11848e-08
3.85334e-08
-3.1334e-08
4.06843e-08
-3.23086e-08
4.27058e-08
-3.42026e-08
4.47405e-08
-3.70397e-08
4.69362e-08
-4.07862e-08
4.9443e-08
-4.53744e-08
5.23905e-08
-5.07025e-08
5.5885e-08
-5.67236e-08
6.00063e-08
-6.33382e-08
6.4804e-08
-7.05942e-08
7.03136e-08
-7.84237e-08
7.65356e-08
-8.69582e-08
8.34896e-08
-9.61842e-08
9.11385e-08
-1.0613e-07
9.94995e-08
-1.16994e-07
1.08531e-07
-1.28171e-07
1.18178e-07
-1.40414e-07
1.28493e-07
-1.5168e-07
1.39152e-07
-1.62957e-07
1.50353e-07
-1.71045e-07
1.61537e-07
-1.72855e-07
1.72245e-07
-1.68422e-07
1.83267e-07
-1.36814e-07
1.9113e-07
-8.62889e-08
2.03191e-07
4.03325e-08
2.22773e-07
2.4819e-07
5.84953e-07
2.73268e-07
-2.18253e-10
3.0329e-09
-8.62624e-10
7.97708e-09
-1.81583e-09
9.77779e-09
-2.90099e-09
7.85745e-09
-3.9399e-09
3.36735e-09
-4.81244e-09
-2.33016e-09
-5.41241e-09
-8.47026e-09
-5.62078e-09
-1.46025e-08
-5.32249e-09
-2.04111e-08
-4.43665e-09
-2.56621e-08
-2.93214e-09
-3.01823e-08
-8.3235e-10
-3.38813e-08
1.79913e-09
-3.67457e-08
4.87355e-09
-3.88091e-08
8.29194e-09
-4.01138e-08
1.19509e-08
-4.07037e-08
1.57486e-08
-4.06326e-08
1.9581e-08
-3.99864e-08
2.335e-08
-3.88852e-08
2.69576e-08
-3.75039e-08
3.03208e-08
-3.60459e-08
3.33739e-08
-3.47589e-08
3.6085e-08
-3.3899e-08
3.84609e-08
-3.37136e-08
4.05563e-08
-3.44071e-08
4.24653e-08
-3.61164e-08
4.43202e-08
-3.8898e-08
4.6265e-08
-4.2736e-08
4.84521e-08
-4.75656e-08
5.10194e-08
-5.32741e-08
5.40826e-08
-5.97908e-08
5.77342e-08
-6.69948e-08
6.20317e-08
-7.48955e-08
6.70193e-08
-8.34176e-08
7.26973e-08
-9.26404e-08
7.90831e-08
-1.02576e-07
8.61331e-08
-1.13184e-07
9.3844e-08
-1.2471e-07
1.02173e-07
-1.36504e-07
1.11025e-07
-1.4927e-07
1.20458e-07
-1.61117e-07
1.30135e-07
-1.72637e-07
1.40227e-07
-1.8114e-07
1.50298e-07
-1.82931e-07
1.59881e-07
-1.78008e-07
1.70034e-07
-1.46971e-07
1.78261e-07
-9.4519e-08
1.91804e-07
2.67882e-08
2.16682e-07
2.23314e-07
5.27561e-07
2.74081e-07
-2.26611e-10
3.25694e-09
-8.97305e-10
8.64342e-09
-1.88389e-09
1.076e-08
-3.00314e-09
8.97289e-09
-4.07029e-09
4.43093e-09
-4.9605e-09
-1.44337e-09
-5.56516e-09
-7.86885e-09
-5.76279e-09
-1.44084e-08
-5.43746e-09
-2.07397e-08
-4.51022e-09
-2.65931e-08
-2.95391e-09
-3.1742e-08
-7.96822e-10
-3.60419e-08
1.89263e-09
-3.94382e-08
5.02171e-09
-4.19411e-08
8.48862e-09
-4.35834e-08
1.21887e-08
-4.44071e-08
1.60206e-08
-4.44671e-08
1.9882e-08
-4.38517e-08
2.36775e-08
-4.26836e-08
2.73113e-08
-4.11417e-08
3.07016e-08
-3.94394e-08
3.37806e-08
-3.78412e-08
3.65104e-08
-3.66318e-08
3.88894e-08
-3.60964e-08
4.09622e-08
-3.64828e-08
4.28113e-08
-3.79703e-08
4.45599e-08
-4.065e-08
4.63474e-08
-4.45285e-08
4.83232e-08
-4.95454e-08
5.06271e-08
-5.55823e-08
5.33785e-08
-6.25462e-08
5.66771e-08
-7.02983e-08
6.05852e-08
-7.88075e-08
6.51528e-08
-8.79914e-08
7.03822e-08
-9.78742e-08
7.62875e-08
-1.08488e-07
8.28256e-08
-1.19727e-07
8.99736e-08
-1.31863e-07
9.76933e-08
-1.44228e-07
1.05859e-07
-1.57439e-07
1.14531e-07
-1.69792e-07
1.23377e-07
-1.81487e-07
1.3253e-07
-1.90296e-07
1.41693e-07
-1.92098e-07
1.5041e-07
-1.86729e-07
1.59956e-07
-1.56521e-07
1.68777e-07
-1.03342e-07
1.8392e-07
1.16447e-08
2.13023e-07
1.94214e-07
4.65276e-07
2.75316e-07
-2.35211e-10
3.48954e-09
-9.33056e-10
9.33685e-09
-1.95419e-09
1.17767e-08
-3.1083e-09
1.01231e-08
-4.20437e-09
5.52339e-09
-5.11262e-09
-5.38582e-10
-5.72228e-09
-7.26247e-09
-5.9093e-09
-1.4225e-08
-5.55584e-09
-2.10965e-08
-4.58322e-09
-2.75694e-08
-2.96638e-09
-3.33622e-08
-7.36747e-10
-3.82749e-08
2.03342e-09
-4.22115e-08
5.24731e-09
-4.5158e-08
8.79909e-09
-4.71379e-08
1.25806e-08
-4.81919e-08
1.64878e-08
-4.83769e-08
2.04168e-08
-4.77847e-08
2.42719e-08
-4.65415e-08
2.79579e-08
-4.48317e-08
3.13934e-08
-4.2878e-08
3.45107e-08
-4.09618e-08
3.72705e-08
-3.93947e-08
3.96684e-08
-3.8498e-08
4.17438e-08
-3.85613e-08
4.35746e-08
-3.98058e-08
4.52778e-08
-4.23568e-08
4.69877e-08
-4.62432e-08
4.88505e-08
-5.14121e-08
5.10051e-08
-5.77413e-08
5.35713e-08
-6.51164e-08
5.66507e-08
-7.33826e-08
6.03079e-08
-8.24686e-08
6.45946e-08
-9.22842e-08
6.95159e-08
-1.028e-07
7.5081e-08
-1.14059e-07
8.12505e-08
-1.25901e-07
8.79857e-08
-1.38603e-07
9.52536e-08
-1.515e-07
1.02913e-07
-1.65102e-07
1.11018e-07
-1.77901e-07
1.1926e-07
-1.89733e-07
1.27728e-07
-1.98768e-07
1.36271e-07
-2.00644e-07
1.44471e-07
-1.94933e-07
1.53774e-07
-1.65826e-07
1.63476e-07
-1.13047e-07
1.80378e-07
-5.25764e-09
2.12905e-07
1.6169e-07
3.99704e-07
2.78484e-07
-2.44063e-10
3.73095e-09
-9.69844e-10
1.00582e-08
-2.02672e-09
1.2829e-08
-3.21656e-09
1.13091e-08
-4.34232e-09
6.6455e-09
-5.26888e-09
3.84467e-10
-5.88338e-09
-6.65128e-09
-6.05936e-09
-1.40527e-08
-5.67684e-09
-2.14824e-08
-4.65701e-09
-2.85931e-08
-2.97618e-09
-3.50464e-08
-6.68079e-10
-4.05865e-08
2.19214e-09
-4.50748e-08
5.50419e-09
-4.84731e-08
9.15836e-09
-5.07948e-08
1.30426e-08
-5.20793e-08
1.70489e-08
-5.23858e-08
2.10704e-08
-5.18101e-08
2.5009e-08
-5.0483e-08
2.87683e-08
-4.85948e-08
3.2266e-08
-4.63789e-08
3.54349e-08
-4.4134e-08
3.82358e-08
-4.21987e-08
4.06647e-08
-4.09305e-08
4.27604e-08
-4.066e-08
4.45997e-08
-4.16498e-08
4.6298e-08
-4.40586e-08
4.79877e-08
-4.79376e-08
4.98124e-08
-5.32409e-08
5.19096e-08
-5.98429e-08
5.43978e-08
-6.76085e-08
5.73778e-08
-7.63675e-08
6.09148e-08
-8.60095e-08
6.50591e-08
-9.64345e-08
6.98182e-08
-1.07563e-07
7.51945e-08
-1.19441e-07
8.1156e-08
-1.31866e-07
8.76473e-08
-1.45098e-07
9.4648e-08
-1.58505e-07
1.01998e-07
-1.72456e-07
1.09746e-07
-1.85651e-07
1.17641e-07
-1.97631e-07
1.2572e-07
-2.06849e-07
1.33968e-07
-2.08896e-07
1.42039e-07
-2.03007e-07
1.515e-07
-1.7529e-07
1.62391e-07
-1.23939e-07
1.8124e-07
-2.4107e-08
2.16656e-07
1.26278e-07
3.32062e-07
2.84306e-07
-2.53176e-10
3.98143e-09
-1.00766e-09
1.08081e-08
-2.10149e-09
1.39183e-08
-3.32797e-09
1.25316e-08
-4.48427e-09
7.79811e-09
-5.42944e-09
1.3261e-09
-6.04853e-09
-6.03554e-09
-6.21275e-09
-1.38921e-08
-5.79994e-09
-2.18987e-08
-4.73106e-09
-2.96657e-08
-2.98376e-09
-3.67971e-08
-5.93823e-10
-4.29799e-08
2.36103e-09
-4.80327e-08
5.77743e-09
-5.18925e-08
9.54212e-09
-5.45622e-08
1.35392e-08
-5.60796e-08
1.76567e-08
-5.6506e-08
2.17841e-08
-5.59415e-08
2.58201e-08
-5.45219e-08
2.96659e-08
-5.24444e-08
3.32376e-08
-4.99538e-08
3.64677e-08
-4.73674e-08
3.93178e-08
-4.50519e-08
4.17854e-08
-4.34017e-08
4.39116e-08
-4.27893e-08
4.57752e-08
-4.3518e-08
4.74926e-08
-4.57796e-08
4.9197e-08
-4.96468e-08
5.10318e-08
-5.50797e-08
5.31337e-08
-6.19491e-08
5.56199e-08
-7.00986e-08
5.85898e-08
-7.93423e-08
6.21081e-08
-8.95317e-08
6.62221e-08
-1.00554e-07
7.09411e-08
-1.12286e-07
7.62617e-08
-1.24767e-07
8.21558e-08
-1.37765e-07
8.85613e-08
-1.51508e-07
9.54576e-08
-1.65405e-07
1.02698e-07
-1.79699e-07
1.10315e-07
-1.93272e-07
1.181e-07
-2.05418e-07
1.26062e-07
-2.14814e-07
1.34315e-07
-2.17153e-07
1.42612e-07
-2.11307e-07
1.52608e-07
-1.85287e-07
1.64967e-07
-1.363e-07
1.85931e-07
-4.5069e-08
2.23877e-07
8.83361e-08
2.63112e-07
2.92835e-07
-2.62562e-10
4.24126e-09
-1.04651e-09
1.15875e-08
-2.17849e-09
1.50457e-08
-3.44255e-09
1.37916e-08
-4.63028e-09
8.98212e-09
-5.59444e-09
2.28669e-09
-6.21789e-09
-5.41548e-09
-6.3696e-09
-1.37441e-08
-5.92515e-09
-2.23465e-08
-4.80521e-09
-3.07895e-08
-2.98889e-09
-3.86168e-08
-5.14098e-10
-4.54581e-08
2.53887e-09
-5.10887e-08
6.06364e-09
-5.54202e-08
9.94346e-09
-5.84448e-08
1.40587e-08
-6.0198e-08
1.82936e-08
-6.07435e-08
2.25339e-08
-6.01856e-08
2.66745e-08
-5.86654e-08
3.06139e-08
-5.63875e-08
3.42661e-08
-5.36091e-08
3.75628e-08
-5.06673e-08
4.04665e-08
-4.79587e-08
4.2977e-08
-4.59159e-08
4.51386e-08
-4.49541e-08
4.70339e-08
-4.54178e-08
4.87824e-08
-4.75317e-08
5.05202e-08
-5.13893e-08
5.2392e-08
-5.69553e-08
5.45347e-08
-6.4096e-08
5.70656e-08
-7.26334e-08
6.00823e-08
-8.23638e-08
6.36494e-08
-9.31026e-08
6.78106e-08
-1.04721e-07
7.25769e-08
-1.17057e-07
7.79386e-08
-1.30134e-07
8.38727e-08
-1.43703e-07
9.03106e-08
-1.57951e-07
9.72368e-08
-1.72334e-07
1.04511e-07
-1.86977e-07
1.12157e-07
-2.00921e-07
1.20025e-07
-2.13289e-07
1.28104e-07
-2.22895e-07
1.36616e-07
-2.25668e-07
1.45439e-07
-2.20132e-07
1.56284e-07
-1.96134e-07
1.70329e-07
-1.50346e-07
1.93507e-07
-6.8245e-08
2.33753e-07
4.80948e-08
1.93369e-07
3.03504e-07
-2.7223e-10
4.51072e-09
-1.08638e-09
1.2397e-08
-2.25775e-09
1.62124e-08
-3.56034e-09
1.50902e-08
-4.78043e-09
1.01985e-08
-5.76399e-09
3.26666e-09
-6.39159e-09
-4.79127e-09
-6.53008e-09
-1.36093e-08
-6.05266e-09
-2.28274e-08
-4.87962e-09
-3.19664e-08
-2.99164e-09
-4.05082e-08
-4.28922e-10
-4.80243e-08
2.72553e-09
-5.42463e-08
6.36226e-09
-5.90599e-08
1.0361e-08
-6.24462e-08
1.45983e-08
-6.44384e-08
1.89545e-08
-6.51023e-08
2.33116e-08
-6.45464e-08
2.75609e-08
-6.29175e-08
3.15976e-08
-6.04278e-08
3.53334e-08
-5.73481e-08
3.86993e-08
-5.40364e-08
4.16585e-08
-5.09209e-08
4.42134e-08
-4.84743e-08
4.6412e-08
-4.71558e-08
4.83417e-08
-4.7352e-08
5.01265e-08
-4.932e-08
5.19061e-08
-5.31735e-08
5.38279e-08
-5.8881e-08
5.60301e-08
-6.63025e-08
5.86308e-08
-7.52378e-08
6.17263e-08
-8.54641e-08
6.53814e-08
-9.67615e-08
6.96365e-08
-1.08982e-07
7.4504e-08
-1.21928e-07
7.99692e-08
-1.35605e-07
8.60127e-08
-1.4975e-07
9.25637e-08
-1.64506e-07
9.96086e-08
-1.79382e-07
1.07023e-07
-1.94394e-07
1.14819e-07
-2.0872e-07
1.22906e-07
-2.2138e-07
1.31271e-07
-2.31261e-07
1.40224e-07
-2.34624e-07
1.49791e-07
-2.297e-07
1.6171e-07
-2.08055e-07
1.77571e-07
-1.66206e-07
2.02987e-07
-9.36593e-08
2.45325e-07
5.76284e-09
1.23207e-07
3.15494e-07
-2.82191e-10
4.79011e-09
-1.12726e-09
1.32374e-08
-2.33925e-09
1.74197e-08
-3.68139e-09
1.64283e-08
-4.93468e-09
1.1448e-08
-5.93819e-09
4.26655e-09
-6.5698e-09
-4.16308e-09
-6.69435e-09
-1.34885e-08
-6.18267e-09
-2.33425e-08
-4.95455e-09
-3.31983e-08
-2.99228e-09
-4.24739e-08
-3.38547e-10
-5.06815e-08
2.9208e-09
-5.75087e-08
6.67306e-09
-6.28151e-08
1.07942e-08
-6.65701e-08
1.51571e-08
-6.88044e-08
1.9638e-08
-6.95858e-08
2.41151e-08
-6.90271e-08
2.84757e-08
-6.7281e-08
3.26119e-08
-6.45677e-08
3.64332e-08
-6.11724e-08
3.98693e-08
-5.74757e-08
4.28844e-08
-5.3939e-08
4.54837e-08
-5.1077e-08
4.77194e-08
-4.93946e-08
4.96841e-08
-4.9321e-08
5.15065e-08
-5.1146e-08
5.33312e-08
-5.50026e-08
5.53085e-08
-6.08622e-08
5.75789e-08
-6.8577e-08
6.02615e-08
-7.79241e-08
6.3452e-08
-8.86592e-08
6.72156e-08
-1.00529e-07
7.15898e-08
-1.13362e-07
7.65882e-08
-1.26931e-07
8.21923e-08
-1.41214e-07
8.83856e-08
-1.55948e-07
9.50976e-08
-1.71222e-07
1.02316e-07
-1.86603e-07
1.09934e-07
-2.02015e-07
1.17959e-07
-2.16747e-07
1.26354e-07
-2.29777e-07
1.35117e-07
-2.40026e-07
1.44635e-07
-2.44144e-07
1.55084e-07
-2.40151e-07
1.68219e-07
-2.21191e-07
1.85937e-07
-1.83923e-07
2.1353e-07
-1.2125e-07
2.57735e-07
-3.84364e-08
5.29273e-08
3.28023e-07
-2.92455e-10
5.07973e-09
-1.16917e-09
1.41094e-08
-2.42298e-09
1.86688e-08
-3.80573e-09
1.7807e-08
-5.09291e-09
1.27314e-08
-6.11715e-09
5.28716e-09
-6.75267e-09
-3.53098e-09
-6.86261e-09
-1.33823e-08
-6.31545e-09
-2.38932e-08
-5.03031e-09
-3.44872e-08
-2.99118e-09
-4.45164e-08
-2.4336e-10
-5.34327e-08
3.12428e-09
-6.08793e-08
6.99563e-09
-6.66894e-08
1.12429e-08
-7.082e-08
1.57349e-08
-7.32993e-08
2.03436e-08
-7.41972e-08
2.49435e-08
-7.36304e-08
2.94178e-08
-7.17581e-08
3.36555e-08
-6.88088e-08
3.75632e-08
-6.50832e-08
4.107e-08
-6.09856e-08
4.4141e-08
-5.70129e-08
4.67841e-08
-5.37236e-08
4.90563e-08
-5.16698e-08
5.10554e-08
-5.13243e-08
5.29156e-08
-5.30097e-08
5.47862e-08
-5.68775e-08
5.68213e-08
-6.2901e-08
5.91635e-08
-7.09231e-08
6.19336e-08
-8.06978e-08
6.52268e-08
-9.1957e-08
6.91089e-08
-1.04415e-07
7.36148e-08
-1.17873e-07
7.87593e-08
-1.32079e-07
8.45209e-08
-1.46981e-07
9.08852e-08
-1.62315e-07
9.77846e-08
-1.78125e-07
1.05206e-07
-1.94028e-07
1.13065e-07
-2.09878e-07
1.21366e-07
-2.2505e-07
1.3012e-07
-2.38533e-07
1.39353e-07
-2.4926e-07
1.4951e-07
-2.54303e-07
1.60921e-07
-2.51562e-07
1.7534e-07
-2.3561e-07
1.94886e-07
-2.03468e-07
2.24521e-07
-1.50882e-07
2.70336e-07
-8.42455e-08
-1.72044e-08
3.40476e-07
-3.03033e-10
5.3799e-09
-1.21209e-09
1.50138e-08
-2.50894e-09
1.9961e-08
-3.9334e-09
1.92273e-08
-5.25533e-09
1.40496e-08
-6.30098e-09
6.32918e-09
-6.94038e-09
-2.895e-09
-7.03505e-09
-1.32913e-08
-6.45124e-09
-2.44804e-08
-5.10725e-09
-3.5835e-08
-2.98874e-09
-4.66383e-08
-1.43821e-10
-5.6281e-08
3.33546e-09
-6.43616e-08
7.32945e-09
-7.06862e-08
1.17064e-08
-7.51996e-08
1.63309e-08
-7.79268e-08
2.10708e-08
-7.89396e-08
2.57963e-08
-7.83593e-08
3.03867e-08
-7.63512e-08
3.47274e-08
-7.31529e-08
3.87226e-08
-6.90813e-08
4.23004e-08
-6.45664e-08
4.54269e-08
-6.01423e-08
4.81132e-08
-5.64133e-08
5.0421e-08
-5.39806e-08
5.24537e-08
-5.33611e-08
5.43513e-08
-5.49107e-08
5.62679e-08
-5.87982e-08
5.83615e-08
-6.49983e-08
6.07771e-08
-7.33426e-08
6.36373e-08
-8.35615e-08