/*--------------------------------*- C++ -*----------------------------------*\
  =========                 |
  \\      /  F ield         | OpenFOAM: The Open Source CFD Toolbox
   \\    /   O peration     | Website:  https://openfoam.org
    \\  /    A nd           | Version:  7
     \\/     M anipulation  |
\*---------------------------------------------------------------------------*/
FoamFile
{
    version     2.0;
    format      ascii;
    class       volVectorField;
    location    "0.24";
    object      ddtCorrDdt0(U);
}
// * * * * * * * * * * * * * * * * * * * * * * * * * * * * * * * * * * * * * //

dimensions      [0 1 -2 0 0 0 0];

internalField   nonuniform List<vector> 
70000
(
(-0.00041446 2.55477e-05 0)
(-0.00230002 2.91261e-05 0)
(-0.00374571 2.52342e-05 0)
(-0.0040969 2.3458e-05 0)
(-0.00368367 2.10392e-05 0)
(-0.00277954 1.85898e-05 0)
(-0.00163229 1.7008e-05 0)
(-0.000503119 1.61918e-05 0)
(0.000437149 1.64263e-05 0)
(0.00111669 1.77652e-05 0)
(0.00154208 1.98294e-05 0)
(0.00177412 2.1989e-05 0)
(0.00190002 2.38241e-05 0)
(0.00200712 2.50715e-05 0)
(0.00216252 2.5752e-05 0)
(0.00240488 2.60374e-05 0)
(0.0027511 2.60845e-05 0)
(0.00319838 2.62745e-05 0)
(0.00373847 2.65268e-05 0)
(0.00436201 2.70089e-05 0)
(0.00506362 2.76381e-05 0)
(0.0058469 2.83582e-05 0)
(0.00671887 2.91556e-05 0)
(0.00769492 2.99897e-05 0)
(0.00879932 3.06697e-05 0)
(0.0100565 3.14319e-05 0)
(0.0114998 3.20809e-05 0)
(0.0131646 3.27458e-05 0)
(0.0150838 3.36894e-05 0)
(0.0173011 3.46904e-05 0)
(0.019841 3.66568e-05 0)
(0.0227548 3.8762e-05 0)
(0.0260386 4.35231e-05 0)
(0.0297746 4.78075e-05 0)
(0.0338621 5.93493e-05 0)
(0.038493 6.7644e-05 0)
(0.0432967 9.36773e-05 0)
(0.0487113 0.000111068 0)
(0.0538153 0.000164126 0)
(0.0593144 0.000207428 0)
(0.0636917 0.000302653 0)
(0.0668716 0.000423888 0)
(0.0683629 0.000577211 0)
(0.0627331 0.000886933 0)
(0.0552936 0.00121575 0)
(0.0288493 0.00172223 0)
(-0.0166365 0.0031818 0)
(-0.0578622 0.00260367 0)
(-0.342259 0.00847335 0)
(-0.0525934 -0.00210895 0)
(-0.000359088 0.000124871 0)
(-0.00365599 0.000166492 0)
(-0.00621402 7.21165e-05 0)
(-0.00553243 -4.09184e-05 0)
(-0.00222307 -0.000119833 0)
(0.0027328 -0.000164076 0)
(0.00849827 -0.000176642 0)
(0.014238 -0.000162661 0)
(0.0193758 -0.000133546 0)
(0.0236792 -0.000100426 0)
(0.0271911 -7.1841e-05 0)
(0.0301266 -5.3256e-05 0)
(0.0327696 -4.64773e-05 0)
(0.0353866 -5.03127e-05 0)
(0.0381729 -6.16796e-05 0)
(0.0412385 -7.70694e-05 0)
(0.044626 -9.39771e-05 0)
(0.0483335 -0.000110326 0)
(0.0523424 -0.000125796 0)
(0.0566338 -0.00014079 0)
(0.0612015 -0.000155916 0)
(0.0660576 -0.000172577 0)
(0.0712308 -0.000191755 0)
(0.0767701 -0.000214743 0)
(0.0827464 -0.000242983 0)
(0.0892413 -0.000276989 0)
(0.0963546 -0.000317825 0)
(0.1042 -0.000366478 0)
(0.112892 -0.000422726 0)
(0.122576 -0.000488298 0)
(0.133368 -0.000561862 0)
(0.145462 -0.000646235 0)
(0.158932 -0.000736442 0)
(0.1741 -0.000840748 0)
(0.190845 -0.00094115 0)
(0.209851 -0.00106273 0)
(0.230389 -0.00115234 0)
(0.253954 -0.00127442 0)
(0.2785 -0.00129997 0)
(0.306625 -0.00136221 0)
(0.334893 -0.00120187 0)
(0.364615 -0.00102041 0)
(0.395645 -0.000389959 0)
(0.416079 0.000528931 0)
(0.443706 0.00234429 0)
(0.434982 0.00535745 0)
(0.404691 0.0101507 0)
(0.40225 0.0210747 0)
(-0.0979731 0.0282399 0)
(0.515491 0.106388 0)
(-8.14288e-05 0.000247101 0)
(-0.00354111 0.000364387 0)
(-0.00696046 0.000129502 0)
(-0.00622463 -0.000226298 0)
(-0.000979481 -0.00050362 0)
(0.0075209 -0.000667385 0)
(0.0178748 -0.000724915 0)
(0.0286528 -0.000692073 0)
(0.0387496 -0.000605652 0)
(0.047601 -0.000504663 0)
(0.0551415 -0.000418379 0)
(0.0616444 -0.000364048 0)
(0.067537 -0.00034639 0)
(0.0732463 -0.000360821 0)
(0.0790999 -0.000397552 0)
(0.0852968 -0.00044627 0)
(0.0919297 -0.000499551 0)
(0.0990199 -0.000552304 0)
(0.10656 -0.000603495 0)
(0.114537 -0.000654163 0)
(0.12295 -0.000706203 0)
(0.131819 -0.000763005 0)
(0.141188 -0.000827577 0)
(0.151124 -0.000903478 0)
(0.161728 -0.000994515 0)
(0.173116 -0.00110298 0)
(0.185432 -0.00123206 0)
(0.198845 -0.00138485 0)
(0.213529 -0.00156267 0)
(0.229705 -0.00176991 0)
(0.247561 -0.00200688 0)
(0.267409 -0.00227979 0)
(0.289388 -0.00258455 0)
(0.314031 -0.00293563 0)
(0.341215 -0.00331106 0)
(0.372064 -0.00374931 0)
(0.405597 -0.00417557 0)
(0.444261 -0.00469024 0)
(0.485208 -0.00508279 0)
(0.532743 -0.00560025 0)
(0.58218 -0.00571037 0)
(0.636368 -0.00596778 0)
(0.695805 -0.00515688 0)
(0.74543 -0.00426034 0)
(0.811177 -0.00119923 0)
(0.838484 0.00445682 0)
(0.84308 0.0110773 0)
(0.914738 0.0391954 0)
(0.375381 0.0480823 0)
(1.09855 0.219218 0)
(0.000110921 0.00034675 0)
(-0.00286887 0.000587235 0)
(-0.00696645 0.000247707 0)
(-0.0076413 -0.000398118 0)
(-0.00297054 -0.000984135 0)
(0.0065502 -0.00138096 0)
(0.0194794 -0.0015671 0)
(0.034001 -0.00155876 0)
(0.0484714 -0.00141961 0)
(0.0618143 -0.00122903 0)
(0.0736054 -0.00105273 0)
(0.0839458 -0.000932038 0)
(0.0932408 -0.000881515 0)
(0.101985 -0.000895054 0)
(0.110607 -0.00095494 0)
(0.119406 -0.0010416 0)
(0.128554 -0.00114025 0)
(0.138135 -0.00124126 0)
(0.148188 -0.00134172 0)
(0.158737 -0.00144299 0)
(0.169809 -0.00154789 0)
(0.181444 -0.00166194 0)
(0.193702 -0.00179036 0)
(0.206664 -0.00193946 0)
(0.220438 -0.00211588 0)
(0.235156 -0.00232461 0)
(0.250975 -0.00257157 0)
(0.268086 -0.00286301 0)
(0.286689 -0.00320275 0)
(0.307042 -0.00359869 0)
(0.329369 -0.00405472 0)
(0.35405 -0.00458069 0)
(0.381254 -0.00517753 0)
(0.411659 -0.00586364 0)
(0.445107 -0.00662341 0)
(0.483052 -0.00749883 0)
(0.524282 -0.00841631 0)
(0.571957 -0.00949047 0)
(0.62262 -0.0104619 0)
(0.681828 -0.0116788 0)
(0.743993 -0.012325 0)
(0.813361 -0.0134003 0)
(0.890104 -0.0127342 0)
(0.959975 -0.0123388 0)
(1.04813 -0.00868279 0)
(1.10709 -0.000163041 0)
(1.13286 0.00602364 0)
(1.25843 0.0548457 0)
(0.777499 0.066323 0)
(1.39159 0.312801 0)
(0.000138179 0.000417817 0)
(-0.00217988 0.00081044 0)
(-0.00648654 0.000441696 0)
(-0.00906153 -0.000457888 0)
(-0.0069704 -0.00140016 0)
(0.000605283 -0.00213193 0)
(0.0130023 -0.00255981 0)
(0.0286296 -0.00267095 0)
(0.0456242 -0.00253793 0)
(0.0624301 -0.00227758 0)
(0.0780897 -0.00200086 0)
(0.092266 -0.00178636 0)
(0.105084 -0.00167033 0)
(0.116911 -0.00165305 0)
(0.128161 -0.00171267 0)
(0.139179 -0.00182123 0)
(0.150217 -0.00195599 0)
(0.161439 -0.00210192 0)
(0.172968 -0.00225325 0)
(0.184901 -0.00241088 0)
(0.197332 -0.00257771 0)
(0.210357 -0.00276061 0)
(0.224074 -0.00296628 0)
(0.238589 -0.00320318 0)
(0.254026 -0.00348047 0)
(0.270516 -0.0038059 0)
(0.288215 -0.00418822 0)
(0.307308 -0.00463733 0)
(0.327988 -0.00516032 0)
(0.350518 -0.00576901 0)
(0.375117 -0.00647247 0)
(0.402196 -0.00728396 0)
(0.431909 -0.00821309 0)
(0.465025 -0.00927929 0)
(0.501317 -0.0104821 0)
(0.542462 -0.0118579 0)
(0.587036 -0.0133524 0)
(0.63867 -0.0150768 0)
(0.69345 -0.016749 0)
(0.757767 -0.018801 0)
(0.825232 -0.0201554 0)
(0.901624 -0.0222371 0)
(0.985016 -0.0220121 0)
(1.0662 -0.0222408 0)
(1.16091 -0.0187339 0)
(1.24082 -0.00710804 0)
(1.27541 -0.0021833 0)
(1.41559 0.0645044 0)
(1.0448 0.0896469 0)
(1.4507 0.390562 0)
(6.90557e-05 0.000474483 0)
(-0.00175207 0.00101633 0)
(-0.0058255 0.000695676 0)
(-0.00980025 -0.000359719 0)
(-0.0107444 -0.00162028 0)
(-0.0068755 -0.0027272 0)
(0.00226437 -0.00349418 0)
(0.0159494 -0.00384703 0)
(0.0327067 -0.00383388 0)
(0.0508881 -0.00358537 0)
(0.0691187 -0.00324926 0)
(0.0865247 -0.0029457 0)
(0.102738 -0.00274356 0)
(0.117765 -0.00266144 0)
(0.131808 -0.00268286 0)
(0.145124 -0.00277753 0)
(0.157959 -0.00291794 0)
(0.170526 -0.00308518 0)
(0.183021 -0.00327118 0)
(0.195632 -0.0034764 0)
(0.20855 -0.00370336 0)
(0.221963 -0.00395932 0)
(0.236054 -0.00425109 0)
(0.250992 -0.00458779 0)
(0.266941 -0.00497952 0)
(0.284053 -0.00543567 0)
(0.302485 -0.00596696 0)
(0.322406 -0.00658657 0)
(0.343986 -0.00730499 0)
(0.367468 -0.00813801 0)
(0.393036 -0.00910109 0)
(0.421095 -0.0102104 0)
(0.451757 -0.0114873 0)
(0.485832 -0.0129496 0)
(0.523007 -0.0146185 0)
(0.565088 -0.0165178 0)
(0.610483 -0.0186243 0)
(0.663084 -0.0210339 0)
(0.718667 -0.0234607 0)
(0.784149 -0.0263946 0)
(0.852356 -0.0285586 0)
(0.930799 -0.0316659 0)
(1.01419 -0.0321388 0)
(1.10048 -0.0328663 0)
(1.19314 -0.0300172 0)
(1.28256 -0.0154522 0)
(1.32378 -0.0107017 0)
(1.44802 0.0683546 0)
(1.19442 0.115615 0)
(1.42597 0.439893 0)
(-1.14858e-05 0.000526427 0)
(-0.00160438 0.00120256 0)
(-0.00531784 0.000977067 0)
(-0.00988224 -0.000128288 0)
(-0.013085 -0.00160752 0)
(-0.0129393 -0.00304753 0)
(-0.00819835 -0.00418587 0)
(0.00142828 -0.00487496 0)
(0.0153234 -0.00510953 0)
(0.03228 -0.00499995 0)
(0.0509157 -0.00470446 0)
(0.0700217 -0.00437229 0)
(0.0887477 -0.00410535 0)
(0.106623 -0.00394883 0)
(0.123469 -0.00390238 0)
(0.139285 -0.00394314 0)
(0.154172 -0.00404606 0)
(0.168279 -0.00419346 0)
(0.181806 -0.00437839 0)
(0.194987 -0.00460325 0)
(0.208093 -0.00487163 0)
(0.221419 -0.00519163 0)
(0.235258 -0.00556953 0)
(0.249889 -0.0060135 0)
(0.265566 -0.00653232 0)
(0.282501 -0.00713472 0)
(0.300885 -0.0078312 0)
(0.320893 -0.00863639 0)
(0.342675 -0.00956338 0)
(0.366443 -0.0106309 0)
(0.392334 -0.0118616 0)
(0.420721 -0.0132738 0)
(0.451651 -0.0149028 0)
(0.485929 -0.0167628 0)
(0.523158 -0.0189012 0)
(0.56518 -0.0213251 0)
(0.610302 -0.0240492 0)
(0.662477 -0.0271454 0)
(0.717361 -0.0303426 0)
(0.782064 -0.0341487 0)
(0.848888 -0.0371818 0)
(0.926682 -0.0412446 0)
(1.00725 -0.042594 0)
(1.09426 -0.0436785 0)
(1.18275 -0.0416091 0)
(1.2724 -0.024724 0)
(1.32169 -0.018275 0)
(1.41965 0.0681132 0)
(1.26186 0.142891 0)
(1.38562 0.478492 0)
(-5.68601e-05 0.000579718 0)
(-0.00162663 0.00137887 0)
(-0.00506673 0.00126438 0)
(-0.0096938 0.000179954 0)
(-0.0140454 -0.00141265 0)
(-0.0165132 -0.00309175 0)
(-0.0156643 -0.00455803 0)
(-0.0105439 -0.00560813 0)
(-0.000899058 -0.00617655 0)
(0.0128073 -0.00632785 0)
(0.0296056 -0.00619971 0)
(0.048333 -0.00594538 0)
(0.0679071 -0.00568619 0)
(0.0874842 -0.00549148 0)
(0.106491 -0.00538182 0)
(0.124585 -0.00534967 0)
(0.141598 -0.00538045 0)
(0.157495 -0.00546468 0)
(0.172359 -0.00560239 0)
(0.186373 -0.00580293 0)
(0.199814 -0.00607529 0)
(0.213032 -0.00643159 0)
(0.226418 -0.00687951 0)
(0.240373 -0.00742642 0)
(0.255274 -0.00807846 0)
(0.271448 -0.00884109 0)
(0.289168 -0.00972158 0)
(0.308659 -0.0107327 0)
(0.330085 -0.0118879 0)
(0.353646 -0.0132064 0)
(0.379434 -0.0147174 0)
(0.407781 -0.01644 0)
(0.438658 -0.0184248 0)
(0.472825 -0.0206811 0)
(0.509812 -0.0232846 0)
(0.551395 -0.0262244 0)
(0.595873 -0.0295559 0)
(0.647042 -0.0333227 0)
(0.700692 -0.0372821 0)
(0.763668 -0.0419245 0)
(0.828385 -0.045846 0)
(0.903867 -0.0507818 0)
(0.98102 -0.0530723 0)
(1.06552 -0.0544694 0)
(1.15021 -0.0530161 0)
(1.23496 -0.0345908 0)
(1.29139 -0.0247781 0)
(1.36688 0.0655824 0)
(1.27987 0.165955 0)
(1.35023 0.505102 0)
(-6.89298e-05 0.000638185 0)
(-0.00169142 0.00155684 0)
(-0.00503657 0.00155072 0)
(-0.00953614 0.000519302 0)
(-0.014237 -0.00111396 0)
(-0.0180333 -0.00293745 0)
(-0.0197293 -0.00464848 0)
(-0.0182052 -0.00601941 0)
(-0.0126725 -0.00693975 0)
(-0.00291955 -0.00742295 0)
(0.0106666 -0.00756611 0)
(0.0272684 -0.00750178 0)
(0.0458855 -0.0073502 0)
(0.06555 -0.00719245 0)
(0.0854469 -0.00706576 0)
(0.104949 -0.00697901 0)
(0.123614 -0.00693205 0)
(0.141159 -0.00692859 0)
(0.157464 -0.00698096 0)
(0.172556 -0.00711114 0)
(0.186612 -0.0073394 0)
(0.199945 -0.00768774 0)
(0.21297 -0.0081703 0)
(0.226166 -0.00879714 0)
(0.24003 -0.00957313 0)
(0.255022 -0.0104998 0)
(0.27154 -0.0115786 0)
(0.289914 -0.0128171 0)
(0.310369 -0.014225 0)
(0.333138 -0.0158186 0)
(0.358297 -0.0176311 0)
(0.386145 -0.0196799 0)
(0.416592 -0.0220301 0)
(0.450314 -0.0246856 0)
(0.4868 -0.0277493 0)
(0.527654 -0.0311951 0)
(0.571273 -0.0351152 0)
(0.621059 -0.0395295 0)
(0.673236 -0.0442234 0)
(0.733839 -0.0496591 0)
(0.796204 -0.0544458 0)
(0.868169 -0.0601863 0)
(0.941823 -0.0633907 0)
(1.02177 -0.0651074 0)
(1.1026 -0.0640494 0)
(1.18092 -0.0446554 0)
(1.24125 -0.0307118 0)
(1.30208 0.0620069 0)
(1.2655 0.183672 0)
(1.31998 0.516102 0)
(-6.62804e-05 0.000701003 0)
(-0.00174017 0.00174229 0)
(-0.00509815 0.00184095 0)
(-0.00950917 0.000868704 0)
(-0.0142045 -0.000771865 0)
(-0.0184402 -0.00267597 0)
(-0.0213784 -0.00455328 0)
(-0.0220383 -0.00617697 0)
(-0.0194947 -0.00741482 0)
(-0.0131565 -0.00824036 0)
(-0.00293233 -0.00870638 0)
(0.0107796 -0.00891095 0)
(0.0272502 -0.00895605 0)
(0.0456161 -0.00891964 0)
(0.065029 -0.00884558 0)
(0.0847362 -0.0087538 0)
(0.104115 -0.00865659 0)
(0.122681 -0.00857111 0)
(0.140102 -0.00852375 0)
(0.156204 -0.00855232 0)
(0.170988 -0.00869315 0)
(0.184634 -0.00898418 0)
(0.197488 -0.00945279 0)
(0.210024 -0.0101181 0)
(0.222796 -0.0109886 0)
(0.236371 -0.0120645 0)
(0.251279 -0.0133418 0)
(0.267982 -0.0148201 0)
(0.286816 -0.0165025 0)
(0.30809 -0.0183976 0)
(0.331917 -0.0205384 0)
(0.358588 -0.0229374 0)
(0.387991 -0.0256705 0)
(0.4207 -0.028736 0)
(0.456204 -0.0322592 0)
(0.495848 -0.0362048 0)
(0.538227 -0.0406909 0)
(0.586145 -0.0457287 0)
(0.636506 -0.0511147 0)
(0.694112 -0.0572977 0)
(0.753772 -0.0628956 0)
(0.821329 -0.0693733 0)
(0.891031 -0.0734244 0)
(0.965392 -0.0754511 0)
(1.04133 -0.0746043 0)
(1.1133 -0.0546534 0)
(1.17405 -0.0362625 0)
(1.22693 0.057536 0)
(1.227 0.195543 0)
(1.28933 0.521593 0)
(-6.19238e-05 0.000766809 0)
(-0.00176733 0.00193688 0)
(-0.0051696 0.00214018 0)
(-0.00956324 0.00122452 0)
(-0.0141876 -0.000415409 0)
(-0.0184643 -0.00237142 0)
(-0.0218021 -0.00436468 0)
(-0.0234581 -0.00618135 0)
(-0.0226032 -0.00768521 0)
(-0.0185381 -0.00882494 0)
(-0.0109322 -0.00961673 0)
(0.000124282 -0.0101223 0)
(0.0141848 -0.0104174 0)
(0.0305913 -0.0105665 0)
(0.0486075 -0.0106104 0)
(0.0675065 -0.0105724 0)
(0.0866212 -0.0104714 0)
(0.105366 -0.0103341 0)
(0.123268 -0.0101986 0)
(0.139981 -0.0101177 0)
(0.15532 -0.0101451 0)
(0.169292 -0.0103382 0)
(0.182095 -0.0107433 0)
(0.194116 -0.0113959 0)
(0.205882 -0.0123151 0)
(0.218005 -0.0135053 0)
(0.231103 -0.0149608 0)
(0.245763 -0.0166739 0)
(0.262443 -0.0186395 0)
(0.281565 -0.0208548 0)
(0.303321 -0.0233485 0)
(0.328031 -0.0261237 0)
(0.355611 -0.0292614 0)
(0.386535 -0.0327546 0)
(0.420346 -0.0367413 0)
(0.458083 -0.0411861 0)
(0.498603 -0.046216 0)
(0.544007 -0.0518536 0)
(0.591978 -0.0578823 0)
(0.645944 -0.0647604 0)
(0.702265 -0.0711027 0)
(0.764761 -0.0782346 0)
(0.829668 -0.0830551 0)
(0.897895 -0.0853496 0)
(0.967669 -0.084577 0)
(1.03348 -0.0643484 0)
(1.09204 -0.04162 0)
(1.14145 0.0522375 0)
(1.16843 0.201021 0)
(1.25178 0.515747 0)
(-5.9841e-05 0.000835106 0)
(-0.00178456 0.00214041 0)
(-0.00522646 0.00245079 0)
(-0.00963878 0.00158942 0)
(-0.0142217 -5.22877e-05 0)
(-0.0184373 -0.00205368 0)
(-0.0218115 -0.00414182 0)
(-0.0237674 -0.00611638 0)
(-0.023617 -0.00784447 0)
(-0.0207313 -0.00926172 0)
(-0.0147202 -0.0103568 0)
(-0.00553613 -0.0111604 0)
(0.00656001 -0.0117219 0)
(0.0210919 -0.0120887 0)
(0.0374735 -0.012293 0)
(0.0550806 -0.0123553 0)
(0.0732976 -0.0122957 0)
(0.0915397 -0.0121452 0)
(0.109283 -0.0119485 0)
(0.126085 -0.0117696 0)
(0.141625 -0.0116773 0)
(0.155748 -0.0117483 0)
(0.168492 -0.0120508 0)
(0.180102 -0.0126413 0)
(0.191017 -0.0135566 0)
(0.201813 -0.0148128 0)
(0.213138 -0.0164077 0)
(0.225655 -0.0183304 0)
(0.239928 -0.0205685 0)
(0.256484 -0.023107 0)
(0.275625 -0.0259658 0)
(0.297719 -0.0291368 0)
(0.322757 -0.0326977 0)
(0.351136 -0.0366368 0)
(0.382495 -0.041093 0)
(0.417571 -0.0460393 0)
(0.455505 -0.0515931 0)
(0.497711 -0.0578062 0)
(0.542586 -0.0644289 0)
(0.592323 -0.071941 0)
(0.644548 -0.0789592 0)
(0.701508 -0.0866472 0)
(0.760745 -0.0921539 0)
(0.822466 -0.0946583 0)
(0.885118 -0.0938459 0)
(0.944752 -0.073551 0)
(0.999526 -0.0469035 0)
(1.04813 0.0461548 0)
(1.09492 0.20028 0)
(1.20442 0.499534 0)
(-5.94093e-05 0.000905948 0)
(-0.00180045 0.00235252 0)
(-0.00527223 0.00277331 0)
(-0.00970909 0.00196568 0)
(-0.0142786 0.000318329 0)
(-0.0184395 -0.00173112 0)
(-0.0217522 -0.0039105 0)
(-0.0237169 -0.0060301 0)
(-0.0237505 -0.00796107 0)
(-0.0213123 -0.00962973 0)
(-0.0160568 -0.0110039 0)
(-0.00791246 -0.0120884 0)
(0.00293072 -0.0129103 0)
(0.0161018 -0.0135006 0)
(0.031125 -0.013882 0)
(0.0474805 -0.0140701 0)
(0.0646355 -0.0140826 0)
(0.0820601 -0.0139503 0)
(0.0992472 -0.0137204 0)
(0.115732 -0.013463 0)
(0.131126 -0.013258 0)
(0.145166 -0.0131984 0)
(0.157757 -0.0133734 0)
(0.169006 -0.013863 0)
(0.179229 -0.014726 0)
(0.188923 -0.0159961 0)
(0.198705 -0.0176815 0)
(0.209253 -0.0197734 0)
(0.221196 -0.0222551 0)
(0.235137 -0.0251011 0)
(0.251478 -0.0283204 0)
(0.270641 -0.0318923 0)
(0.292718 -0.0358845 0)
(0.318048 -0.040281 0)
(0.346397 -0.0452095 0)
(0.378243 -0.0506575 0)
(0.412989 -0.056717 0)
(0.451473 -0.0634786 0)
(0.492646 -0.0706503 0)
(0.537752 -0.0787291 0)
(0.585274 -0.0863561 0)
(0.636439 -0.0944972 0)
(0.689449 -0.100599 0)
(0.744475 -0.103258 0)
(0.799625 -0.102311 0)
(0.853081 -0.0821198 0)
(0.903378 -0.0521823 0)
(0.952586 0.0392613 0)
(1.01398 0.193853 0)
(1.14891 0.474414 0)
(-5.94131e-05 0.000979521 0)
(-0.00181738 0.00257323 0)
(-0.00531405 0.00310767 0)
(-0.0097714 0.00235421 0)
(-0.0143369 0.000698277 0)
(-0.0184619 -0.00140376 0)
(-0.0217111 -0.00367782 0)
(-0.0236078 -0.0059424 0)
(-0.0236205 -0.0080708 0)
(-0.0212715 -0.00997989 0)
(-0.0162696 -0.0116186 0)
(-0.00857178 -0.0129695 0)
(0.00163784 -0.0140398 0)
(0.0140216 -0.0148473 0)
(0.0281604 -0.0154062 0)
(0.0435983 -0.0157273 0)
(0.0598697 -0.0158252 0)
(0.0765027 -0.0157289 0)
(0.0930368 -0.0154852 0)
(0.109026 -0.0151666 0)
(0.124069 -0.0148597 0)
(0.137854 -0.0146699 0)
(0.150201 -0.0147049 0)
(0.161112 -0.0150672 0)
(0.170792 -0.0158398 0)
(0.179642 -0.0170777 0)
(0.188214 -0.0188048 0)
(0.197159 -0.0210193 0)
(0.20712 -0.0237047 0)
(0.218736 -0.026828 0)
(0.23248 -0.0303871 0)
(0.248813 -0.0343493 0)
(0.267925 -0.0387671 0)
(0.290115 -0.0436206 0)
(0.315279 -0.0490165 0)
(0.343697 -0.0549596 0)
(0.374988 -0.0615059 0)
(0.409561 -0.0687851 0)
(0.446751 -0.0764644 0)
(0.487151 -0.0850408 0)
(0.529742 -0.0932112 0)
(0.575183 -0.101709 0)
(0.621921 -0.10831 0)
(0.670405 -0.11108 0)
(0.718329 -0.109928 0)
(0.765905 -0.0899882 0)
(0.811836 -0.0575258 0)
(0.862367 0.0314961 0)
(0.934624 0.182543 0)
(1.09075 0.441779 0)
(-5.934e-05 0.00105596 0)
(-0.00183494 0.00280292 0)
(-0.00535502 0.00345397 0)
(-0.00982937 0.00275525 0)
(-0.0143908 0.00108851 0)
(-0.0184881 -0.00107035 0)
(-0.0216858 -0.00344412 0)
(-0.0235108 -0.0058586 0)
(-0.0234511 -0.00818749 0)
(-0.0210621 -0.0103369 0)
(-0.0160891 -0.0122364 0)
(-0.00852001 -0.0138471 0)
(0.00144442 -0.0151582 0)
(0.0134662 -0.0161755 0)
(0.0271404 -0.0169067 0)
(0.0420379 -0.0173588 0)
(0.0577275 -0.0175438 0)
(0.0737785 -0.0174892 0)
(0.0897681 -0.0172402 0)
(0.105281 -0.01687 0)
(0.119934 -0.0164689 0)
(0.133399 -0.0161517 0)
(0.145465 -0.0160411 0)
(0.156069 -0.0162604 0)
(0.165336 -0.0169163 0)
(0.173585 -0.0180868 0)
(0.1813 -0.0198142 0)
(0.189079 -0.0221083 0)
(0.197548 -0.0249559 0)
(0.207341 -0.0283202 0)
(0.218975 -0.0321888 0)
(0.232918 -0.036519 0)
(0.249437 -0.0413445 0)
(0.268805 -0.0466427 0)
(0.291021 -0.0524925 0)
(0.316233 -0.0589155 0)
(0.344219 -0.0659273 0)
(0.375103 -0.0736894 0)
(0.408454 -0.0818377 0)
(0.444467 -0.0908458 0)
(0.482378 -0.0994968 0)
(0.522566 -0.10827 0)
(0.563546 -0.115274 0)
(0.606089 -0.118133 0)
(0.647683 -0.116736 0)
(0.690133 -0.0971916 0)
(0.732496 -0.0630272 0)
(0.784825 0.0227772 0)
(0.86537 0.167129 0)
(1.03709 0.403236 0)
(-5.91571e-05 0.00113536 0)
(-0.00185249 0.00304203 0)
(-0.00539548 0.00381247 0)
(-0.00988533 0.00316896 0)
(-0.0144411 0.00148939 0)
(-0.0185121 -0.000730225 0)
(-0.0216643 -0.00320876 0)
(-0.0234248 -0.00577919 0)
(-0.0232896 -0.00831482 0)
(-0.0208304 -0.0107096 0)
(-0.0158123 -0.012873 0)
(-0.0082426 -0.0147441 0)
(0.00166319 -0.0162943 0)
(0.0135586 -0.0175183 0)
(0.0270366 -0.0184177 0)
(0.0416725 -0.018997 0)
(0.0570461 -0.0192664 0)
(0.0727443 -0.0192523 0)
(0.0883668 -0.0189988 0)
(0.103523 -0.0185792 0)
(0.117846 -0.0180865 0)
(0.131023 -0.0176425 0)
(0.142827 -0.0173831 0)
(0.153169 -0.0174502 0)
(0.162132 -0.0179728 0)
(0.16998 -0.019052 0)
(0.177135 -0.0207501 0)
(0.184152 -0.02309 0)
(0.191624 -0.0260645 0)
(0.200157 -0.0296361 0)
(0.210277 -0.0337829 0)
(0.222444 -0.0384543 0)
(0.23697 -0.0436639 0)
(0.254101 -0.0493867 0)
(0.273914 -0.055671 0)
(0.296468 -0.0625523 0)
(0.321649 -0.0700064 0)
(0.349407 -0.0782152 0)
(0.379446 -0.086797 0)
(0.411739 -0.0961784 0)
(0.44564 -0.105252 0)
(0.481409 -0.114239 0)
(0.517601 -0.12156 0)
(0.555223 -0.124505 0)
(0.591851 -0.122865 0)
(0.630369 -0.103866 0)
(0.67046 -0.0688317 0)
(0.725093 0.0129875 0)
(0.812312 0.148354 0)
(0.994204 0.360214 0)
(-5.89421e-05 0.00121779 0)
(-0.00186974 0.00329092 0)
(-0.005435 0.00418358 0)
(-0.00993973 0.00359561 0)
(-0.0144891 0.00190116 0)
(-0.0185332 -0.000383184 0)
(-0.0216414 -0.00297143 0)
(-0.0233413 -0.00570398 0)
(-0.0231343 -0.00845339 0)
(-0.020603 -0.0111005 0)
(-0.0155241 -0.0135339 0)
(-0.00791488 -0.01567 0)
(0.00200102 -0.0174622 0)
(0.0138715 -0.0188939 0)
(0.0272853 -0.0199608 0)
(0.0418153 -0.0206651 0)
(0.0570411 -0.0210159 0)
(0.0725536 -0.0210391 0)
(0.0879607 -0.0207782 0)
(0.102885 -0.0203069 0)
(0.116972 -0.0197208 0)
(0.129921 -0.019148 0)
(0.14151 -0.0187363 0)
(0.151644 -0.018645 0)
(0.160388 -0.0190244 0)
(0.167975 -0.019998 0)
(0.1748 -0.0216477 0)
(0.181369 -0.0240112 0)
(0.188247 -0.0270879 0)
(0.196009 -0.030841 0)
(0.205171 -0.0352404 0)
(0.216173 -0.0402291 0)
(0.229346 -0.0458 0)
(0.24491 -0.0519259 0)
(0.262986 -0.0586245 0)
(0.28358 -0.0659407 0)
(0.306639 -0.073815 0)
(0.332022 -0.0824372 0)
(0.359501 -0.0914214 0)
(0.388928 -0.101129 0)
(0.419761 -0.110577 0)
(0.452153 -0.11974 0)
(0.484777 -0.127307 0)
(0.518754 -0.130362 0)
(0.552003 -0.128523 0)
(0.588058 -0.110234 0)
(0.62743 -0.0751387 0)
(0.684976 0.00200589 0)
(0.777962 0.126777 0)
(0.965772 0.314006 0)
(-5.8746e-05 0.00130337 0)
(-0.00188662 0.00354989 0)
(-0.00547327 0.00456772 0)
(-0.00999233 0.00403553 0)
(-0.0145352 0.00232409 0)
(-0.0185521 -2.91326e-05 0)
(-0.0216165 -0.00273217 0)
(-0.0232567 -0.00563307 0)
(-0.02298 -0.00860351 0)
(-0.0203782 -0.0115105 0)
(-0.0152373 -0.0142209 0)
(-0.0075808 -0.0166282 0)
(0.00236411 -0.0186675 0)
(0.0142434 -0.0203103 0)
(0.0276439 -0.0215466 0)
(0.0421359 -0.022376 0)
(0.0572965 -0.0228067 0)
(0.0727152 -0.0228642 0)
(0.0880011 -0.0225923 0)
(0.10278 -0.0220652 0)
(0.116707 -0.0213814 0)
(0.129487 -0.0206755 0)
(0.140908 -0.0201071 0)
(0.150877 -0.0198522 0)
(0.159459 -0.0200822 0)
(0.166877 -0.0209423 0)
(0.173507 -0.0225338 0)
(0.179834 -0.0249087 0)
(0.186399 -0.0280733 0)
(0.193747 -0.0319926 0)
(0.202381 -0.036628 0)
(0.212714 -0.0419169 0)
(0.225079 -0.0478324 0)
(0.239674 -0.054344 0)
(0.256635 -0.0614406 0)
(0.275945 -0.0691713 0)
(0.297564 -0.0774486 0)
(0.321339 -0.0864561 0)
(0.347018 -0.0958202 0)
(0.374511 -0.105822 0)
(0.403143 -0.115604 0)
(0.433228 -0.12493 0)
(0.463537 -0.132698 0)
(0.495204 -0.135912 0)
(0.526648 -0.133961 0)
(0.561753 -0.11657 0)
(0.601937 -0.0821628 0)
(0.663028 -0.0103307 0)
(0.761374 0.102837 0)
(0.952148 0.265826 0)
(-5.85887e-05 0.00139217 0)
(-0.00190311 0.0038192 0)
(-0.00551016 0.00496534 0)
(-0.0100429 0.00448907 0)
(-0.0145792 0.00275852 0)
(-0.0185689 0.000332036 0)
(-0.0215897 -0.00249107 0)
(-0.0231709 -0.0055667 0)
(-0.022825 -0.00876563 0)
(-0.0201534 -0.0119402 0)
(-0.0149508 -0.014935 0)
(-0.00724612 -0.0176203 0)
(0.00273161 -0.0199124 0)
(0.0146282 -0.021771 0)
(0.0280305 -0.0231798 0)
(0.0425078 -0.0241357 0)
(0.0576349 -0.024646 0)
(0.0729996 -0.0247359 0)
(0.0882092 -0.0244495 0)
(0.102891 -0.023862 0)
(0.1167 -0.0230753 0)
(0.12935 -0.0222308 0)
(0.140633 -0.0215003 0)
(0.150467 -0.0210772 0)
(0.15892 -0.0211533 0)
(0.166216 -0.0218958 0)
(0.172728 -0.0234248 0)
(0.178929 -0.0258065 0)
(0.185345 -0.0290537 0)
(0.192502 -0.0331327 0)
(0.200885 -0.0379967 0)
(0.210887 -0.0435774 0)
(0.222833 -0.0498287 0)
(0.236902 -0.0567153 0)
(0.253232 -0.0642002 0)
(0.271788 -0.0723314 0)
(0.292544 -0.0810007 0)
(0.315318 -0.0903756 0)
(0.339911 -0.100104 0)
(0.366144 -0.110384 0)
(0.393554 -0.120475 0)
(0.422261 -0.12997 0)
(0.45131 -0.137923 0)
(0.481814 -0.141364 0)
(0.512765 -0.139434 0)
(0.548229 -0.123147 0)
(0.590474 -0.0901198 0)
(0.655641 -0.0241575 0)
(0.759082 0.0769057 0)
(0.950853 0.216275 0)
(-5.84821e-05 0.00148431 0)
(-0.00191918 0.00409913 0)
(-0.00554557 0.00537689 0)
(-0.0100911 0.00495658 0)
(-0.014621 0.00320478 0)
(-0.0185836 0.000700458 0)
(-0.0215613 -0.00224824 0)
(-0.0230841 -0.00550517 0)
(-0.0226694 -0.00894027 0)
(-0.0199283 -0.0123905 0)
(-0.0146641 -0.0156773 0)
(-0.00691084 -0.0186475 0)
(0.00310055 -0.0211986 0)
(0.0150163 -0.023278 0)
(0.0284237 -0.0248629 0)
(0.0428921 -0.0259473 0)
(0.0579951 -0.0265374 0)
(0.0733188 -0.0266583 0)
(0.0884688 -0.0263543 0)
(0.103071 -0.0257018 0)
(0.116784 -0.0248067 0)
(0.129321 -0.0238176 0)
(0.140483 -0.0229193 0)
(0.150194 -0.0223229 0)
(0.158533 -0.0222415 0)
(0.165729 -0.0228641 0)
(0.172157 -0.0243298 0)
(0.178286 -0.0267183 0)
(0.184637 -0.0300483 0)
(0.19172 -0.0342872 0)
(0.200008 -0.0393798 0)
(0.209877 -0.0452512 0)
(0.221641 -0.0518367 0)
(0.235464 -0.0590948 0)
(0.251478 -0.0669653 0)
(0.269642 -0.0754905 0)
(0.289928 -0.0845477 0)
(0.312156 -0.0942817 0)
(0.336134 -0.104368 0)
(0.361703 -0.114924 0)
(0.388427 -0.125316 0)
(0.416461 -0.135007 0)
(0.445069 -0.143154 0)
(0.47532 -0.146907 0)
(0.506771 -0.145168 0)
(0.543589 -0.130206 0)
(0.588785 -0.0991882 0)
(0.658301 -0.0395508 0)
(0.766506 0.0491534 0)
(0.958088 0.165964 0)
(-5.84343e-05 0.00157989 0)
(-0.00193479 0.00438996 0)
(-0.0055794 0.00580282 0)
(-0.010137 0.0054384 0)
(-0.0146604 0.00366322 0)
(-0.0185961 0.0010763 0)
(-0.0215312 -0.00200376 0)
(-0.0229966 -0.00544877 0)
(-0.0225139 -0.00912798 0)
(-0.0197036 -0.0128621 0)
(-0.0143778 -0.0164489 0)
(-0.00657579 -0.0197112 0)
(0.00346971 -0.0225275 0)
(0.015405 -0.0248327 0)
(0.0288183 -0.0265974 0)
(0.0432786 -0.0278126 0)
(0.0583591 -0.028483 0)
(0.0736445 -0.0286336 0)
(0.0887391 -0.028309 0)
(0.103268 -0.027587 0)
(0.116889 -0.0265776 0)
(0.129319 -0.0254376 0)
(0.140364 -0.0243653 0)
(0.149958 -0.0235905 0)
(0.158186 -0.0233482 0)
(0.165288 -0.0238497 0)
(0.171644 -0.0252527 0)
(0.177723 -0.0276505 0)
(0.184043 -0.0310672 0)
(0.191104 -0.0354704 0)
(0.199371 -0.0407962 0)
(0.209205 -0.0469622 0)
(0.22091 -0.0538861 0)
(0.23464 -0.0615175 0)
(0.250518 -0.0697767 0)
(0.268501 -0.0786954 0)
(0.288554 -0.0881428 0)
(0.31051 -0.0982356 0)
(0.334185 -0.10868 0)
(0.359435 -0.119522 0)
(0.385897 -0.130218 0)
(0.413718 -0.140145 0)
(0.442405 -0.14852 0)
(0.473002 -0.152687 0)
(0.505584 -0.151335 0)
(0.54438 -0.137934 0)
(0.592987 -0.109488 0)
(0.666847 -0.0565462 0)
(0.779304 0.0197726 0)
(0.969766 0.115279 0)
(-5.84535e-05 0.00167901 0)
(-0.00194988 0.00469196 0)
(-0.00561157 0.00624359 0)
(-0.0101804 0.00593492 0)
(-0.0146973 0.00413418 0)
(-0.0186065 0.00145977 0)
(-0.0214996 -0.00175772 0)
(-0.0229085 -0.0053978 0)
(-0.022359 -0.00932929 0)
(-0.0194803 -0.0133559 0)
(-0.0140932 -0.0172508 0)
(-0.00624256 -0.0208127 0)
(0.00383721 -0.0239006 0)
(0.0157923 -0.0264369 0)
(0.0292113 -0.0283851 0)
(0.0436634 -0.0297331 0)
(0.0587209 -0.0304843 0)
(0.0739676 -0.0306632 0)
(0.0890067 -0.0303149 0)
(0.103462 -0.0295188 0)
(0.116992 -0.0283892 0)
(0.129315 -0.0270916 0)
(0.140243 -0.0258389 0)
(0.149717 -0.0248804 0)
(0.157834 -0.0244738 0)
(0.164842 -0.0248532 0)
(0.171127 -0.0261951 0)
(0.177161 -0.028606 0)
(0.18346 -0.0321149 0)
(0.190519 -0.0366891 0)
(0.198792 -0.0422554 0)
(0.208633 -0.0487231 0)
(0.220333 -0.0559927 0)
(0.234041 -0.0640033 0)
(0.249869 -0.0726579 0)
(0.267775 -0.0819743 0)
(0.28772 -0.0918181 0)
(0.309548 -0.102276 0)
(0.33309 -0.113086 0)
(0.358218 -0.124232 0)
(0.384649 -0.135244 0)
(0.412528 -0.145456 0)
(0.441595 -0.154114 0)
(0.47289 -0.158805 0)
(0.50694 -0.158056 0)
(0.548008 -0.146453 0)
(0.600134 -0.121072 0)
(0.678044 -0.0751235 0)
(0.794023 -0.0110434 0)
(0.982549 0.0644118 0)
(-5.8544e-05 0.00178178 0)
(-0.0019644 0.0050054 0)
(-0.00564201 0.00669967 0)
(-0.010221 0.00644652 0)
(-0.0147317 0.00461796 0)
(-0.0186145 0.00185111 0)
(-0.0214663 -0.00151014 0)
(-0.0228202 -0.00535252 0)
(-0.0222051 -0.0095447 0)
(-0.0192591 -0.0138726 0)
(-0.0138117 -0.0180841 0)
(-0.00591293 -0.0219531 0)
(0.00420082 -0.0253192 0)
(0.0161755 -0.0280919 0)
(0.0295999 -0.0302275 0)
(0.044043 -0.0317104 0)
(0.0590766 -0.0325427 0)
(0.0742836 -0.0327486 0)
(0.0892657 -0.0323733 0)
(0.103646 -0.031498 0)
(0.117082 -0.0302419 0)
(0.129296 -0.0287798 0)
(0.140105 -0.02734 0)
(0.149457 -0.0261923 0)
(0.15746 -0.025618 0)
(0.16437 -0.0258744 0)
(0.170582 -0.0271573 0)
(0.176571 -0.0295856 0)
(0.182849 -0.0331931 0)
(0.189909 -0.037946 0)
(0.198195 -0.0437617 0)
(0.208055 -0.0505398 0)
(0.21977 -0.0581646 0)
(0.233482 -0.0665622 0)
(0.249294 -0.075621 0)
(0.267168 -0.0853423 0)
(0.287059 -0.0955912 0)
(0.308824 -0.106424 0)
(0.332314 -0.117609 0)
(0.357413 -0.129083 0)
(0.383927 -0.140432 0)
(0.412 -0.150984 0)
(0.441591 -0.159995 0)
(0.473754 -0.165325 0)
(0.509397 -0.165401 0)
(0.552793 -0.155832 0)
(0.608283 -0.133943 0)
(0.689732 -0.0952 0)
(0.808357 -0.0431176 0)
(0.994091 0.0135828 0)
(-5.87088e-05 0.00188832 0)
(-0.00197832 0.00533054 0)
(-0.00567062 0.00717149 0)
(-0.0102589 0.00697362 0)
(-0.0147633 0.00511485 0)
(-0.0186203 0.0022506 0)
(-0.0214314 -0.00126106 0)
(-0.0227317 -0.00531319 0)
(-0.0220528 -0.00977468 0)
(-0.019041 -0.0144132 0)
(-0.0135346 -0.01895 0)
(-0.00558865 -0.0231339 0)
(0.00455828 -0.0267849 0)
(0.0165519 -0.0297993 0)
(0.0299808 -0.0321261 0)
(0.0444141 -0.0337461 0)
(0.0594227 -0.0346598 0)
(0.0745886 -0.0348909 0)
(0.089512 -0.0344851 0)
(0.103815 -0.0335254 0)
(0.117156 -0.0321362 0)
(0.129258 -0.0305024 0)
(0.139945 -0.0288685 0)
(0.149173 -0.0275259 0)
(0.157058 -0.0267805 0)
(0.163868 -0.0269132 0)
(0.170004 -0.028139 0)
(0.175942 -0.0305895 0)
(0.182197 -0.0343026 0)
(0.189254 -0.0392425 0)
(0.197553 -0.0453172 0)
(0.207433 -0.0524153 0)
(0.219164 -0.0604053 0)
(0.232886 -0.0691992 0)