/*--------------------------------*- C++ -*----------------------------------*\
  =========                 |
  \\      /  F ield         | OpenFOAM: The Open Source CFD Toolbox
   \\    /   O peration     | Website:  https://openfoam.org
    \\  /    A nd           | Version:  7
     \\/     M anipulation  |
\*---------------------------------------------------------------------------*/
FoamFile
{
    version     2.0;
    format      ascii;
    class       volScalarField;
    location    "0.24";
    object      p;
}
// * * * * * * * * * * * * * * * * * * * * * * * * * * * * * * * * * * * * * //

dimensions      [0 2 -2 0 0 0 0];

internalField   nonuniform List<scalar> 
70000
(
0.107436
0.0299777
0.0174501
0.0198854
0.020043
0.0189712
0.0180148
0.0172859
0.016674
0.0161315
0.0156451
0.015207
0.0148095
0.0144461
0.0141113
0.0138006
0.0135103
0.0132374
0.0129793
0.0127339
0.0124993
0.0122739
0.0120563
0.0118452
0.0116396
0.0114383
0.0112403
0.0110448
0.0108508
0.0106575
0.010464
0.0102693
0.0100726
0.00987279
0.00966898
0.00946004
0.00924466
0.00902194
0.00878957
0.00854793
0.0082917
0.00802574
0.00773663
0.00744198
0.0071079
0.00678516
0.0063885
0.00605917
0.00557137
0.00528685
0.103068
0.0303446
0.0176531
0.019981
0.0200976
0.0190073
0.018043
0.0173092
0.0166935
0.0161482
0.0156596
0.0152198
0.014821
0.0144565
0.0141207
0.0138092
0.0135183
0.0132448
0.0129862
0.0127403
0.0125053
0.0122795
0.0120616
0.0118503
0.0116443
0.0114428
0.0112446
0.0110489
0.0108548
0.0106613
0.0104676
0.0102727
0.0100759
0.00987597
0.00967203
0.00946296
0.00924746
0.00902463
0.00879214
0.00855038
0.00829402
0.00802794
0.00773869
0.00744388
0.00710965
0.00678663
0.00639003
0.00605884
0.00557672
0.00532424
0.0994878
0.0312846
0.0179935
0.0201101
0.0201718
0.019052
0.0180754
0.0173354
0.0167153
0.0161666
0.0156756
0.0152338
0.0148334
0.0144677
0.0141309
0.0138185
0.0135268
0.0132526
0.0129935
0.0127471
0.0125117
0.0122855
0.0120673
0.0118556
0.0116494
0.0114476
0.0112492
0.0110533
0.010859
0.0106653
0.0104715
0.0102765
0.0100795
0.00987943
0.00967537
0.00946619
0.00925058
0.00902765
0.00879506
0.00855321
0.00829674
0.00803059
0.0077412
0.00744632
0.00711191
0.00678867
0.00639222
0.00605846
0.00559558
0.00535411
0.0963937
0.0323865
0.0184631
0.0202842
0.0202728
0.0191096
0.0181136
0.0173653
0.0167399
0.0161871
0.015693
0.0152489
0.0148468
0.0144796
0.0141416
0.0138283
0.0135357
0.0132609
0.0130012
0.0127543
0.0125184
0.0122918
0.0120732
0.0118612
0.0116547
0.0114527
0.0112541
0.0110579
0.0108634
0.0106696
0.0104756
0.0102804
0.0100833
0.00988312
0.00967895
0.00946968
0.00925398
0.00903098
0.00879832
0.00855642
0.0082999
0.0080337
0.00774428
0.00744933
0.00711495
0.00679127
0.00639589
0.00605772
0.00562429
0.00537618
0.0934345
0.0334832
0.0190292
0.0205048
0.0204074
0.0191875
0.0181626
0.0174024
0.01677
0.0162118
0.0157137
0.0152666
0.0148622
0.0144932
0.0141538
0.0138393
0.0135458
0.0132701
0.0130097
0.0127622
0.0125257
0.0122987
0.0120797
0.0118674
0.0116606
0.0114582
0.0112593
0.011063
0.0108682
0.0106742
0.01048
0.0102848
0.0100875
0.00988722
0.00968296
0.00947361
0.00925786
0.00903481
0.00880213
0.00856022
0.00830372
0.00803753
0.00774822
0.00745319
0.00711918
0.00679469
0.00640178
0.00605754
0.00565865
0.0053964
0.0905256
0.0345223
0.0196445
0.020752
0.0205697
0.0192874
0.0182251
0.0174489
0.0168075
0.0162424
0.015739
0.0152881
0.0148808
0.0145095
0.0141683
0.0138523
0.0135575
0.0132808
0.0130195
0.0127712
0.0125342
0.0123066
0.0120871
0.0118743
0.0116671
0.0114645
0.0112653
0.0110687
0.0108737
0.0106795
0.0104851
0.0102897
0.0100923
0.00989194
0.0096876
0.00947819
0.00926241
0.00903936
0.00880671
0.00856485
0.00830847
0.00804236
0.00775333
0.00745824
0.00712503
0.00679938
0.00641045
0.00605921
0.00569496
0.00541513
0.0876609
0.035485
0.0202755
0.0210041
0.0207466
0.0194046
0.0183
0.0175047
0.0168527
0.0162795
0.0157698
0.0153141
0.0149032
0.0145292
0.0141857
0.0138678
0.0135715
0.0132935
0.0130311
0.012782
0.0125441
0.0123158
0.0120957
0.0118824
0.0116748
0.0114717
0.0112722
0.0110753
0.0108801
0.0106856
0.0104911
0.0102955
0.0100979
0.00989748
0.00969307
0.00948364
0.00926786
0.00904486
0.00881231
0.00857058
0.00831443
0.00804849
0.00775997
0.00746485
0.00713296
0.00680586
0.00642236
0.0060641
0.00573037
0.00543105
0.0848467
0.0363633
0.0209061
0.0212492
0.0209272
0.0195325
0.0183838
0.0175676
0.0169044
0.0163225
0.0158058
0.0153447
0.0149297
0.0145524
0.0142062
0.0138862
0.0135881
0.0133086
0.0130449
0.0127946
0.0125558
0.0123267
0.0121059
0.011892
0.0116838
0.0114803
0.0112803
0.0110831
0.0108875
0.0106928
0.010498
0.0103023
0.0101046
0.00990405
0.00969959
0.00949017
0.00927444
0.00905155
0.00881917
0.00857766
0.00832189
0.00805623
0.00776848
0.00747342
0.0071434
0.00681476
0.00643781
0.00607339
0.00576292
0.00544315
0.0820886
0.0371543
0.0215312
0.0214834
0.0211053
0.0196664
0.0184733
0.0176351
0.0169607
0.01637
0.015846
0.0153792
0.0149598
0.0145789
0.0142299
0.0139074
0.0136073
0.0133261
0.0130609
0.0128094
0.0125695
0.0123394
0.0121178
0.0119032
0.0116944
0.0114903
0.0112899
0.0110922
0.0108963
0.0107013
0.0105063
0.0103103
0.0101125
0.00991186
0.00970737
0.00949798
0.00928234
0.00905963
0.00882752
0.00858634
0.0083311
0.00806587
0.00777919
0.00748431
0.00715674
0.0068267
0.00645697
0.00608793
0.00579167
0.00545106
0.0793913
0.037858
0.0221496
0.0217064
0.021278
0.0198034
0.0185663
0.0177053
0.0170197
0.0164204
0.0158891
0.0154166
0.0149927
0.0146082
0.0142561
0.0139311
0.0136288
0.0133458
0.013079
0.0128261
0.012585
0.012354
0.0121314
0.011916
0.0117065
0.0115018
0.0113009
0.0111027
0.0109065
0.0107111
0.0105158
0.0103197
0.0101217
0.00992104
0.00971654
0.00950723
0.00929175
0.00906928
0.00883754
0.00859681
0.00834229
0.00807765
0.00779235
0.00749786
0.00717324
0.00684223
0.00647991
0.00610813
0.00581672
0.00545507
0.076758
0.0384745
0.0227606
0.0219188
0.0214439
0.0199422
0.0186619
0.0177771
0.0170803
0.0164726
0.0159342
0.015456
0.0150275
0.0146393
0.0142843
0.0139567
0.0136523
0.0133673
0.0130989
0.0128446
0.0126023
0.0123702
0.0121467
0.0119304
0.0117202
0.0115148
0.0113134
0.0111147
0.010918
0.0107224
0.0105268
0.0103305
0.0101324
0.00993163
0.00972716
0.00951798
0.00930272
0.0090806
0.00884934
0.00860919
0.00835558
0.00809171
0.00780813
0.00751427
0.00719307
0.00686172
0.00650656
0.00613393
0.00583911
0.00545622
0.0741917
0.0390044
0.0233627
0.0221219
0.021602
0.0200818
0.0187596
0.0178499
0.0171418
0.016526
0.0159805
0.0154966
0.0150636
0.0146719
0.0143138
0.0139837
0.0136771
0.0133903
0.0131203
0.0128645
0.012621
0.0123878
0.0121633
0.0119462
0.0117352
0.0115292
0.0113271
0.011128
0.0109309
0.0107349
0.0105391
0.0103425
0.0101444
0.00994361
0.00973921
0.00953021
0.00931525
0.00909356
0.00886291
0.00862348
0.00837099
0.00810809
0.00782652
0.00753363
0.00721619
0.00688534
0.00653674
0.00616491
0.00586036
0.00545638
0.071695
0.039448
0.0239539
0.0223168
0.0217518
0.0202215
0.0188594
0.0179236
0.0172039
0.0165802
0.0160277
0.0155381
0.0151007
0.0147053
0.0143443
0.0140116
0.0137029
0.0134142
0.0131426
0.0128855
0.0126407
0.0124064
0.0121809
0.011963
0.0117513
0.0115446
0.011342
0.0111424
0.0109449
0.0107486
0.0105525
0.0103558
0.0101576
0.00995683
0.00975256
0.00954382
0.00932923
0.00910807
0.00887817
0.0086396
0.00838842
0.00812671
0.00784744
0.00755589
0.00724244
0.00691301
0.0065702
0.00620043
0.00588216
0.00545797
0.0692704
0.0398063
0.0245318
0.0225048
0.0218926
0.0203604
0.0189611
0.0179983
0.0172665
0.016635
0.0160756
0.0155803
0.0151384
0.0147395
0.0143755
0.0140403
0.0137294
0.0134389
0.0131657
0.0129072
0.0126612
0.0124258
0.0121994
0.0119806
0.0117682
0.0115609
0.0113578
0.0111577
0.0109598
0.0107632
0.0105669
0.0103701
0.0101718
0.00997115
0.00976706
0.00955864
0.00934452
0.00912399
0.00889496
0.00865738
0.00840771
0.0081474
0.00787066
0.00758087
0.00727154
0.00694444
0.00660661
0.00623974
0.00590614
0.00546352
0.0669201
0.0400806
0.0250934
0.0226875
0.0220241
0.0204977
0.0190646
0.0180738
0.0173295
0.0166904
0.0161242
0.0156232
0.0151768
0.0147742
0.0144072
0.0140696
0.0137565
0.0134642
0.0131894
0.0129295
0.0126823
0.0124458
0.0122185
0.0119989
0.0117858
0.0115779
0.0113742
0.0111737
0.0109755
0.0107786
0.0105821
0.0103852
0.0101869
0.00998639
0.00978255
0.00957451
0.00936094
0.00914113
0.0089131
0.00867665
0.00842865
0.00816996
0.00789594
0.00760832
0.00730319
0.00697922
0.00664569
0.00628218
0.00593362
0.00547537
0.0646464
0.0402724
0.0256357
0.0228664
0.0221461
0.0206323
0.0191696
0.0181503
0.0173929
0.0167463
0.0161735
0.0156667
0.0152157
0.0148096
0.0144396
0.0140994
0.0137842
0.01349
0.0132136
0.0129523
0.0127039
0.0124664
0.0122382
0.0120178
0.0118039
0.0115954
0.0113912
0.0111903
0.0109917
0.0107946
0.010598
0.010401
0.0102028
0.0100024
0.00979888
0.00959128
0.00937835
0.00915934
0.00893242
0.00869723
0.00845105
0.00819418
0.00792304
0.007638
0.00733707
0.00701691
0.00668717
0.00632728
0.00596561
0.00549536
0.0624507
0.0403839
0.0261556
0.0230429
0.0222584
0.0207633
0.0192759
0.0182276
0.0174565
0.0168027
0.0162233
0.0157108
0.0152553
0.0148455
0.0144725
0.0141298
0.0138124
0.0135163
0.0132383
0.0129756
0.012726
0.0124874
0.0122583
0.0120371
0.0118226
0.0116135
0.0114088
0.0112074
0.0110085
0.0108112
0.0106144
0.0104175
0.0102193
0.0100192
0.00981595
0.00960887
0.00939664
0.00917851
0.00895279
0.00871899
0.00847475
0.00821992
0.00795176
0.00766966
0.00737294
0.00705712
0.00673091
0.00637478
0.0060028
0.00552481
0.0603345
0.0404175
0.02665
0.0232182
0.0223612
0.0208896
0.0193831
0.018306
0.0175204
0.0168593
0.0162737
0.0157555
0.0152953
0.0148819
0.0145059
0.0141606
0.013841
0.0135431
0.0132635
0.0129994
0.0127485
0.0125089
0.0122789
0.0120569
0.0118416
0.011632
0.0114268
0.0112251
0.0110259
0.0108283
0.0106314
0.0104345
0.0102364
0.0100365
0.00983372
0.00962719
0.00941573
0.00919857
0.00897415
0.00874184
0.00849965
0.00824704
0.00798197
0.00770314
0.00741064
0.00709954
0.00677683
0.00642464
0.00604565
0.00556451
0.0582985
0.0403761
0.0271161
0.0233931
0.0224548
0.0210104
0.0194908
0.0183853
0.0175844
0.0169162
0.0163246
0.0158007
0.0153359
0.0149188
0.0145398
0.014192
0.0138702
0.0135704
0.0132892
0.0130237
0.0127716
0.0125309
0.0122999
0.0120771
0.0118612
0.0116509
0.0114453
0.0112431
0.0110437
0.0108459
0.010649
0.010452
0.0102541
0.0100545
0.00985215
0.00964623
0.00943561
0.00921948
0.00899644
0.00876575
0.0085257
0.00827549
0.0080136
0.00773832
0.00745009
0.00714401
0.00682495
0.00647699
0.00609444
0.00561479
0.0563431
0.0402633
0.0275511
0.0235683
0.0225396
0.0211246
0.0195985
0.0184655
0.0176486
0.0169732
0.0163759
0.0158465
0.0153771
0.0149562
0.0145742
0.0142238
0.0138999
0.0135982
0.0133153
0.0130484
0.0127951
0.0125533
0.0123214
0.0120978
0.0118812
0.0116704
0.0114642
0.0112617
0.011062
0.010864
0.010667
0.0104701
0.0102724
0.0100731
0.00987125
0.00966599
0.00945626
0.00924125
0.00901966
0.00879069
0.00855289
0.00830525
0.00804664
0.00777515
0.00749128
0.00719043
0.00687538
0.00653209
0.00614933
0.00567562
0.0544682
0.040083
0.0279522
0.0237439
0.0226163
0.0212314
0.0197054
0.0185466
0.0177129
0.0170303
0.0164275
0.0158927
0.0154187
0.0149941
0.0146091
0.0142562
0.01393
0.0136264
0.0133419
0.0130736
0.012819
0.0125762
0.0123434
0.012119
0.0119017
0.0116903
0.0114836
0.0112808
0.0110808
0.0108827
0.0106856
0.0104888
0.0102913
0.0100924
0.00989103
0.00968649
0.00947771
0.00926389
0.00904384
0.00881669
0.00858123
0.00833632
0.0080811
0.00781362
0.00753425
0.00723883
0.00692825
0.00659023
0.00621042
0.00574676
0.0526735
0.0398395
0.0283171
0.0239198
0.0226854
0.0213302
0.019811
0.0186284
0.0177772
0.0170873
0.0164794
0.0159394
0.0154608
0.0150325
0.0146445
0.014289
0.0139607
0.0136552
0.013369
0.0130993
0.0128435
0.0125996
0.0123658
0.0121406
0.0119226
0.0117106
0.0115036
0.0113004
0.0111001
0.0109019
0.0107048
0.0105081
0.0103108
0.0101123
0.00991151
0.00970774
0.00949998
0.00928742
0.00906899
0.00884378
0.00861075
0.00836874
0.00811702
0.00785375
0.00757904
0.00728924
0.00698371
0.00665171
0.0062777
0.00582774
0.0509581
0.0395375
0.0286435
0.0240955
0.022748
0.0214205
0.0199145
0.0187109
0.0178417
0.0171441
0.0165315
0.0159865
0.0155033
0.0150714
0.0146803
0.0143223
0.0139918
0.0136844
0.0133966
0.0131254
0.0128684
0.0126234
0.0123887
0.0121627
0.0119441
0.0117315
0.011524
0.0113204
0.0111199
0.0109216
0.0107245
0.0105279
0.010331
0.0101329
0.00993272
0.00972977
0.00952309
0.00931188
0.00909514
0.008872
0.00864151
0.00840253
0.00815446
0.00789557
0.00762574
0.00734178
0.00704191
0.0067168
0.00635114
0.00591803
0.0493207
0.0391822
0.0289294
0.02427
0.0228049
0.0215018
0.020015
0.0187937
0.0179062
0.0172007
0.0165836
0.016034
0.0155462
0.0151106
0.0147166
0.0143561
0.0140234
0.0137141
0.0134247
0.0131521
0.0128938
0.0126478
0.0124121
0.0121854
0.011966
0.0117529
0.0115449
0.0113411
0.0111403
0.0109419
0.0107449
0.0105484
0.0103518
0.0101541
0.00995468
0.00975262
0.00954709
0.0093373
0.00912235
0.00890137
0.00867353
0.00843775
0.00819346
0.00793914
0.00767442
0.00739654
0.007103
0.00678572
0.00643064
0.00601697
0.0477599
0.0387788
0.0291732
0.0244421
0.022857
0.021574
0.0201116
0.0188766
0.0179708
0.017257
0.0166357
0.0160816
0.0155895
0.0151503
0.0147533
0.0143903
0.0140554
0.0137443
0.0134532
0.0131792
0.0129197
0.0126726
0.012436
0.0122085
0.0119885
0.0117748
0.0115664
0.0113622
0.0111613
0.0109628
0.0107658
0.0105696
0.0103733
0.0101762
0.00997743
0.00977631
0.009572
0.00936371
0.00915064
0.00893194
0.00870687
0.00847443
0.00823408
0.00798452
0.00772515
0.00745364
0.0071671
0.00685863
0.00651603
0.00612391
0.0462736
0.0383328
0.0293735
0.0246101
0.0229054
0.0216371
0.0202036
0.0189591
0.0180354
0.0173128
0.0166875
0.0161295
0.0156332
0.0151903
0.0147903
0.0144249
0.0140879
0.0137749
0.0134822
0.0132068
0.0129461
0.0126979
0.0124604
0.0122321
0.0120114
0.0117973
0.0115885
0.011384
0.0111829
0.0109843
0.0107874
0.0105914
0.0103955
0.0101989
0.010001
0.00980087
0.00959785
0.00939116
0.00918006
0.00896375
0.00874157
0.00851262
0.00827638
0.00803174
0.00777801
0.00751317
0.00723431
0.00693562
0.00660713
0.00623812
0.0448598
0.0378498
0.0295297
0.0247721
0.0229509
0.0216913
0.02029
0.0190409
0.0181
0.0173682
0.0167391
0.0161775
0.0156771
0.0152306
0.0148278
0.0144599
0.0141208
0.013806
0.0135117
0.0132349
0.0129729
0.0127237
0.0124854
0.0122562
0.012035
0.0118203
0.011611
0.0114063
0.011205
0.0110064
0.0108096
0.0106139
0.0104184
0.0102225
0.0100254
0.00982634
0.00962468
0.00941967
0.00921064
0.00899684
0.00877767
0.00855236
0.0083204
0.00808088
0.00783306
0.00757524
0.00730469
0.00701672
0.00670366
0.0063589
0.0435159
0.0373354
0.0296412
0.0249258
0.0229943
0.021737
0.0203702
0.0191213
0.0181646
0.0174231
0.0167902
0.0162254
0.0157213
0.0152713
0.0148656
0.0144953
0.0141542
0.0138375
0.0135416
0.0132634
0.0130003
0.01275
0.0125108
0.0122809
0.012059
0.0118438
0.0116342
0.0114292
0.0112278
0.0110292
0.0108326
0.0106371
0.0104421
0.0102469
0.0100506
0.00985275
0.00965252
0.00944929
0.00924242
0.00903125
0.00881523
0.00859369
0.00836619
0.00813198
0.00789035
0.00763991
0.0073783
0.0071019
0.00680535
0.00648553
0.0422394
0.0367952
0.0297082
0.0250686
0.0230363
0.0217747
0.0204434
0.0191997
0.0182289
0.0174775
0.0168408
0.0162732
0.0157656
0.0153122
0.0149036
0.014531
0.0141879
0.0138694
0.013572
0.0132924
0.0130281
0.0127769
0.0125367
0.0123061
0.0120836
0.0118679
0.0116579
0.0114527
0.0112512
0.0110526
0.0108562
0.0106611
0.0104666
0.0102721
0.0100768
0.00988012
0.00968141
0.00948004
0.00927544
0.00906701
0.00885427
0.00863666
0.0084138
0.0081851
0.00794995
0.00770725
0.00745514
0.00719108
0.00691186
0.00661733
0.0410274
0.0362346
0.0297314
0.0251982
0.0230771
0.0218051
0.0205092
0.0192755
0.0182929
0.0175313
0.0168908
0.0163207
0.0158099
0.0153533
0.014942
0.0145671
0.014222
0.0139018
0.0136028
0.0133219
0.0130564
0.0128042
0.0125632
0.0123318
0.0121087
0.0118926
0.0116823
0.0114768
0.0112752
0.0110767
0.0108805
0.0106858
0.0104919
0.0102981
0.0101039
0.00990849
0.00971138
0.00951197
0.00930974
0.00910417
0.00889484
0.00868131
0.00846326
0.00824027
0.00801187
0.00777728
0.0075352
0.00728413
0.00702282
0.0067536
0.0398769
0.0356586
0.0297119
0.025312
0.0231169
0.0218289
0.0205671
0.019348
0.0183562
0.0175845
0.01694
0.0163678
0.0158542
0.0153945
0.0149805
0.0146034
0.0142564
0.0139345
0.0136341
0.0133519
0.0130852
0.012832
0.0125901
0.0123581
0.0121344
0.0119178
0.0117072
0.0115015
0.0112999
0.0111015
0.0109056
0.0107113
0.010518
0.0103251
0.0101319
0.00993788
0.00974246
0.0095451
0.00934535
0.00914275
0.00893697
0.00872766
0.00851461
0.00829753
0.00807615
0.00785001
0.00761843
0.00738088
0.00713786
0.00689369
0.038785
0.0350719
0.0296513
0.025408
0.0231554
0.0218468
0.0206169
0.0194165
0.0184185
0.017637
0.0169883
0.0164144
0.0158984
0.0154358
0.0150193
0.01464
0.0142912
0.0139676
0.0136657
0.0133822
0.0131145
0.0128603
0.0126176
0.0123849
0.0121607
0.0119437
0.0117327
0.0115269
0.0113253
0.0111271
0.0109314
0.0107376
0.010545
0.010353
0.0101609
0.00996834
0.00977467
0.00957946
0.00938229
0.0091828
0.00898069
0.00877576
0.00856787
0.00835691
0.0081428
0.00792544
0.00770475
0.00748112
0.00725655
0.00703695
0.0377485
0.0344789
0.0295517
0.0254843
0.0231917
0.0218597
0.0206587
0.0194802
0.0184795
0.0176888
0.0170358
0.0164603
0.0159424
0.0154772
0.0150581
0.0146768
0.0143262
0.0140011
0.0136978
0.013413
0.0131442
0.0128891
0.0126456
0.0124122
0.0121875
0.0119701
0.0117589
0.011553
0.0113514
0.0111533
0.010958
0.0107647
0.0105728
0.0103818
0.0101909
0.00999987
0.00980806
0.00961509
0.00942061
0.00922433
0.00902604
0.00882562
0.00862306
0.00841841
0.00821182
0.00800352
0.00779403
0.0075846
0.00737849
0.00718276
0.0367645
0.0338834
0.0294158
0.0255394
0.023225
0.0218681
0.0206925
0.0195386
0.0185386
0.0177398
0.0170823
0.0165054
0.015986
0.0155184
0.015097
0.0147137
0.0143614
0.0140348
0.0137302
0.0134442
0.0131744
0.0129183
0.0126741
0.0124401
0.0122149
0.0119971
0.0117857
0.0115797
0.0113782
0.0111803
0.0109854
0.0107927
0.0106016
0.0104115
0.010222
0.0100325
0.00984264
0.00965201
0.00946033
0.00926737
0.00907303
0.00887726
0.00868019
0.00848203
0.00828317
0.00808418
0.00788615
0.00769107
0.00750322
0.00733053
0.0358299
0.0332887
0.0292462
0.025572
0.0232541
0.0218726
0.0207186
0.0195911
0.0185954
0.0177898
0.0171277
0.0165496
0.0160291
0.0155595
0.0151359
0.0147508
0.0143968
0.0140689
0.0137629
0.0134758
0.013205
0.0129481
0.0127032
0.0124686
0.0122429
0.0120248
0.0118132
0.0116071
0.0114057
0.0112081
0.0110136
0.0108215
0.0106312
0.0104423
0.0102541
0.0100663
0.00987845
0.00969025
0.00950147
0.00931196
0.00912167
0.0089307
0.00873927
0.00854777
0.00835683
0.00816735
0.00798092
0.00780023
0.00763031
0.00747967
0.0349416
0.0326977
0.0290463
0.0255813
0.0232775
0.0218735
0.0207374
0.0196372
0.0186492
0.0178386
0.0171721
0.0165927
0.0160715
0.0156004
0.0151748
0.0147878
0.0144324
0.0141031
0.0137959
0.0135078
0.013236
0.0129783
0.0127327
0.0124975
0.0122714
0.012053
0.0118413
0.0116352
0.0114339
0.0112366
0.0110426
0.0108512
0.0106618
0.010474
0.0102873
0.0101012
0.0099155
0.00972983
0.00954405
0.00935809
0.00917199
0.00898593
0.00880029
0.0086156
0.00843272
0.00825289
0.00807816
0.00791175
0.00775931
0.00762963
0.034097
0.0321129
0.0288193
0.0255668
0.0232938
0.0218711
0.0207494
0.0196766
0.0186996
0.017886
0.0172152
0.0166347
0.0161131
0.0156408
0.0152135
0.0148249
0.0144681
0.0141375
0.0138292
0.0135401
0.0132674
0.0130089
0.0127627
0.012527
0.0123005
0.0120819
0.0118701
0.011664
0.0114629
0.0112659
0.0110724
0.0108818
0.0106934
0.0105068
0.0103216
0.0101374
0.00995382
0.00977076
0.00958809
0.00940578
0.00922398
0.00904296
0.00886322
0.00868546
0.00851077
0.00834068
0.00817764
0.00802531
0.00788976
0.00777988
0.0332931
0.0315364
0.0285684
0.0255286
0.0233015
0.0218652
0.020755
0.0197092
0.0187461
0.0179316
0.0172571
0.0166755
0.0161538
0.0156808
0.015252
0.0148619
0.0145038
0.0141721
0.0138628
0.0135727
0.0132992
0.01304
0.0127932
0.0125571
0.0123302
0.0121114
0.0118995
0.0116935
0.0114926
0.0112961
0.0111032
0.0109133
0.010726
0.0105407
0.010357
0.0101747
0.00999341
0.00981307
0.00963359
0.00945504
0.00927764
0.00910176
0.00892803
0.0087573
0.00859088
0.00843056
0.00827912
0.00814057
0.00802123
0.00792991
0.0325274
0.0309697
0.0282971
0.025467
0.0232991
0.0218558
0.0207548
0.0197348
0.018788
0.017975
0.0172976
0.0167149
0.0161935
0.0157201
0.0152902
0.0148988
0.0145395
0.0142068
0.0138965
0.0136056
0.0133313
0.0130715
0.0128241
0.0125876
0.0123605
0.0121415
0.0119295
0.0117237
0.0115231
0.011327
0.0111347
0.0109457
0.0107595
0.0105755
0.0103935
0.0102132
0.0100343
0.00985675
0.00968057
0.00950587
0.00933296
0.00916231
0.00899467
0.00883104
0.00867293
0.00852234
0.00838234
0.00825717
0.00815327
0.00807923
0.0317975
0.0304142
0.0280086
0.0253827
0.0232855
0.0218424
0.0207492
0.0197536
0.0188249
0.018016
0.0173366
0.016753
0.016232
0.0157586
0.015328
0.0149354
0.0145751
0.0142415
0.0139304
0.0136387
0.0133638
0.0131033
0.0128555
0.0126187
0.0123913
0.0121722
0.0119603
0.0117546
0.0115543
0.0113588
0.0111672
0.0109791
0.010794
0.0106115
0.0104312
0.0102529
0.0100765
0.00990182
0.00972901
0.00955824
0.00938991
0.00922457
0.00906308
0.0089066
0.00875677
0.00861583
0.00848702
0.00837476
0.00828545
0.00822737
0.031101
0.0298707
0.0277057
0.0252768
0.0232595
0.0218244
0.0207384
0.0197657
0.0188566
0.018054
0.0173739
0.0167895
0.0162691
0.0157962
0.0153652
0.0149718
0.0146106
0.0142762
0.0139644
0.0136721
0.0133965
0.0131356
0.0128874
0.0126502
0.0124226
0.0122035
0.0119917
0.0117862
0.0115863
0.0113913
0.0112005
0.0110134
0.0108296
0.0106485
0.01047
0.0102939
0.01012
0.00994827
0.0097789
0.00961215
0.00944846
0.00928848
0.00913319
0.00898385
0.00884226
0.00871081
0.00859288
0.00849295
0.00841734
0.00837389
0.0304358
0.0293401
0.0273915
0.0251505
0.0232204
0.0218011
0.0207228
0.0197713
0.0188826
0.0180886
0.0174091
0.0168245
0.0163049
0.0158328
0.0154017
0.0150077
0.0146458
0.0143108
0.0139985
0.0137055
0.0134295
0.0131681
0.0129196
0.0126822
0.0124545
0.0122354
0.0120237
0.0118185
0.0116191
0.0114247
0.0112348
0.0110487
0.0108661
0.0106866
0.01051
0.0103361
0.0101648
0.00999609
0.00983025
0.00966756
0.00950857
0.009354
0.0092049
0.00906267
0.00892922
0.00880704
0.00869961
0.0086114
0.00854853
0.00851838
0.0297998
0.0288226
0.0270683
0.0250054
0.0231678
0.0217717
0.0207025
0.0197706
0.0189027
0.0181195
0.0174422
0.0168577
0.0163391
0.0158682
0.0154375
0.0150432
0.0146808
0.0143453
0.0140325
0.0137391
0.0134627
0.013201
0.0129522
0.0127146
0.0124869
0.0122679
0.0120564
0.0118516
0.0116527
0.011459
0.0112699
0.0110849
0.0109037
0.0107258
0.0105512
0.0103795
0.0102108
0.0100453
0.009883
0.00972444
0.00957018
0.00942103
0.00927812
0.00914292
0.00901745
0.00890429
0.00880692
0.00872974
0.00867863
0.00866044
0.0291912
0.0283185
0.0267386
0.0248431
0.0231012
0.0217356
0.0206774
0.019764
0.018917
0.0181462
0.0174727
0.0168891
0.0163717
0.0159022
0.0154723
0.015078
0.0147153
0.0143795
0.0140664
0.0137728
0.0134961
0.0132341
0.0129852
0.0127475
0.0125198
0.0123009
0.0120897
0.0118853
0.011687
0.011494
0.0113059
0.0111221
0.0109423
0.0107661
0.0105934
0.0104241
0.0102582
0.0100958
0.00993714
0.00978275
0.00963323
0.00948949
0.00935271
0.00922445
0.00910677
0.00900229
0.00891448
0.00884762
0.00880725
0.00879971
0.0286084
0.027828
0.0264044
0.0246653
0.0230209
0.0216921
0.0206475
0.0197517
0.0189253
0.0181684
0.0175004
0.0169184
0.0164025
0.0159348
0.0155061
0.0151122
0.0147495
0.0144135
0.0141003
0.0138065
0.0135296
0.0132675
0.0130184
0.0127808
0.0125532
0.0123345
0.0121236
0.0119197
0.011722
0.0115299
0.0113428
0.0111602
0.0109819
0.0108075
0.0106369
0.01047
0.0103068
0.0101476
0.00999263
0.00984241
0.00969765
0.00955928
0.00942856
0.00930708
0.00919695
0.00910079
0.009022
0.00896468
0.00893403
0.00893584
0.0280496
0.0273509
0.0260674
0.0244739
0.022927
0.0216405
0.0206124
0.0197339
0.0189277
0.0181859
0.0175249
0.0169456
0.0164316
0.0159658
0.0155386
0.0151455
0.014783
0.0144471
0.0141339
0.0138401
0.0135631
0.013301
0.013052
0.0128145
0.012587
0.0123686
0.0121581
0.0119548
0.0117578
0.0115665
0.0113805
0.0111993
0.0110225
0.0108499
0.0106814
0.010517
0.0103567
0.0102007
0.0100494
0.00990338
0.00976334
0.00963029
0.00950551
0.00939063
0.00928777
0.00919951
0.00912915
0.00908058
0.00905863
0.00906854
0.0275134
0.0268872
0.0257293
0.0242706
0.02282
0.0215803
0.020572
0.0197107
0.0189243
0.0181985
0.017546
0.0169703
0.0164586
0.0159952
0.0155699
0.0151779
0.0148159
0.0144803
0.0141672
0.0138735
0.0135967
0.0133347
0.0130858
0.0128484
0.0126213
0.0124032
0.0121932
0.0119905
0.0117943
0.011604
0.0114191
0.0112393
0.0110641
0.0108934
0.0107271
0.0105651
0.0104077
0.010255
0.0101074
0.00996556
0.00983021
0.00970239
0.00958341
0.00947492
0.009379
0.00929819
0.00923564
0.00919501
0.00918073
0.00919751
0.0269986
0.0264366
0.0253913
0.024057
0.0227006
0.0215112
0.020526
0.0196823
0.0189152
0.0182059
0.0175634
0.0169924
0.0164836
0.0160227
0.0155997
0.0152092
0.014848
0.0145129
0.0142002
0.0139068
0.0136302
0.0133685
0.0131198
0.0128827
0.0126559
0.0124383
0.0122289
0.0120269
0.0118315
0.0116422
0.0114586
0.0112801
0.0111066
0.0109379
0.0107738
0.0106144
0.0104599
0.0103104
0.0101666
0.0100289
0.00989815
0.00977544
0.00966209
0.00955973
0.0094704
0.00939655
0.00934117
0.00930765
0.00930004
0.0093225
0.0265037
0.0259989
0.0250547
0.0238347
0.0225695
0.0214331
0.020474
0.0196486
0.0189006
0.0182082
0.0175768
0.0170116
0.0165063
0.0160484
0.0156279
0.0152393
0.0148793
0.0145449
0.0142327
0.0139398
0.0136637
0.0134022
0.0131539
0.0129173
0.0126909
0.0124739
0.0122651
0.0120638
0.0118694
0.0116812
0.0114989
0.0113219
0.0111501
0.0109834
0.0108216
0.0106647
0.0105131
0.010367
0.0102268
0.0100932
0.00996702
0.0098493
0.00974138
0.00964486
0.00956173
0.00949432
0.00944545
0.00941822
0.00941628
0.00944329
0.0260278
0.0255738
0.0247202
0.0236053
0.0224277
0.0213459
0.0204157
0.0196098
0.0188805
0.0182052
0.0175859
0.0170278
0.0165266
0.016072
0.0156544
0.015268
0.0149095
0.0145761
0.0142648
0.0139725
0.0136969
0.013436
0.0131882
0.012952
0.0127262
0.0125098
0.0123018
0.0121014
0.011908
0.011721
0.0115399
0.0113645
0.0111945
0.0110298
0.0108703
0.0107161
0.0105674
0.0104246
0.010288
0.0101585
0.0100367
0.00992381
0.00982108
0.00973009
0.00965275
0.00959125
0.0095482
0.00952644
0.00952921
0.0095597
0.0255697
0.025161
0.0243888
0.0233702
0.0222761
0.0212497
0.0203509
0.0195656
0.0188551
0.0181971
0.0175907
0.0170406
0.0165444
0.0160935
0.0156791
0.0152952
0.0149387
0.0146066
0.0142962
0.0140048
0.0137299
0.0134697
0.0132225
0.0129869
0.0127618
0.0125461
0.0123389
0.0121395
0.0119471
0.0117614
0.0115817
0.011408
0.0112398
0.0110771
0.01092
0.0107684
0.0106227
0.0104831
0.0103501
0.0102245
0.0101071
0.00999881
0.00990102
0.00981522
0.00974322
0.00968707
0.00964916
0.00963206
0.00963861
0.00967157
0.0251285
0.0247601
0.0240611
0.0231306
0.0221157
0.0211449
0.0202795
0.0195161
0.0188245
0.0181838
0.017591
0.0170499
0.0165594
0.0161127
0.0157018
0.0153209
0.0149665
0.0146361
0.0143269
0.0140365
0.0137626
0.0135031
0.0132567
0.0130219
0.0127976
0.0125828
0.0123765
0.0121781
0.0119869
0.0118024
0.0116243
0.0114522
0.0112859
0.0111254
0.0109706
0.0108216
0.0106788
0.0105424
0.010413
0.0102913
0.010178
0.0100741
0.009981
0.00990002
0.0098329
0.00978154
0.0097481
0.00973486
0.00974431
0.00977878
0.0247032
0.0243709
0.0237376
0.0228877
0.0219475
0.0210318
0.0202014
0.0194612
0.0187888
0.0181654
0.0175868
0.0170555
0.0165715
0.0161296
0.0157226
0.0153449
0.0149931
0.0146645
0.0143569
0.0140677
0.0137948
0.0135364
0.0132909
0.013057
0.0128336
0.0126197
0.0124144
0.0122171
0.0120272
0.0118441
0.0116675
0.0114971
0.0113328
0.0111744
0.011022
0.0108757
0.0107357
0.0106025
0.0104766
0.0103585
0.0102492
0.0101496
0.0100608
0.00998428
0.00992158
0.00987442
0.00984478
0.00983463
0.00984614
0.00988123
0.024293
0.0239929
0.0234188
0.0226424
0.0217724
0.0209109
0.0201167
0.0194008
0.0187479
0.018142
0.0175779
0.0170572
0.0165805
0.0161439
0.0157412
0.0153671
0.0150181
0.0146918
0.0143859
0.0140982
0.0138266
0.0135693
0.0133249
0.013092
0.0128696
0.0126568
0.0124527
0.0122566
0.0120679
0.0118863
0.0117113
0.0115427
0.0113803
0.0112241
0.0110741
0.0109304
0.0107934
0.0106633
0.0105407
0.0104262
0.0103207
0.010225
0.0101403
0.0100678
0.010009
0.00996551
0.009939
0.00993121
0.00994398
0.00997888
0.0238972
0.023626
0.0231051
0.0223958
0.0215915
0.0207827
0.0200253
0.0193349
0.018702
0.0181136
0.0175643
0.017055
0.0165863
0.0161555
0.0157575
0.0153873
0.0150416
0.0147178
0.0144139
0.0141279
0.0138578
0.0136019
0.0133587
0.013127
0.0129057
0.0126941
0.0124912
0.0122964
0.0121091
0.011929
0.0117557
0.0115889
0.0114285
0.0112745
0.0111269
0.0109858
0.0108516
0.0107245
0.0106052
0.0104941
0.0103922
0.0103002
0.0102192
0.0101503
0.010095
0.0100546
0.0100306
0.0100245
0.0100377
0.0100717
0.023515
0.0232696
0.0227968
0.0221486
0.0214057
0.0206478
0.0199276
0.0192635
0.0186511
0.0180803
0.0175462
0.0170487
0.0165887
0.0161644
0.0157714
0.0154055
0.0150633
0.0147424
0.0144409
0.0141568
0.0138884
0.013634
0.0133921
0.0131618
0.0129418
0.0127314
0.0125299
0.0123365
0.0121507
0.0119722
0.0118006
0.0116357
0.0114773
0.0113255
0.0111802
0.0110417
0.0109103
0.0107862
0.0106699
0.0105621
0.0104635
0.0103749
0.0102973
0.0102317
0.0101794
0.0101415
0.0101193
0.0101142
0.0101274
0.0101597
0.0231458
0.0229235
0.022494
0.0219016
0.0212158
0.0205069
0.0198237
0.0191866
0.0185952
0.0180423
0.0175234
0.0170383
0.0165877
0.0161703
0.0157829
0.0154216
0.0150832
0.0147655
0.0144666
0.0141847
0.0139182
0.0136655
0.0134252
0.0131963
0.0129778
0.0127688
0.0125687
0.0123768
0.0121926
0.0120157
0.0118459
0.0116829
0.0115266
0.0113769
0.0112341
0.0110981
0.0109693
0.0108481
0.0107348
0.0106301
0.0105346
0.0104491
0.0103745
0.0103118
0.0102619
0.010226
0.0102052
0.0102004
0.0102128
0.0102429
0.0227889
0.0225875
0.0221969
0.0216553
0.0210227
0.0203606
0.0197141
0.0191044
0.0185344
0.0179995
0.0174961
0.0170237
0.016583
0.0161732
0.0157918
0.0154355
0.0151013
0.014787
0.014491
0.0142116
0.0139472
0.0136963
0.0134578
0.0132306
0.0130136
0.0128062
0.0126076
0.0124172
0.0122347
0.0120596
0.0118915
0.0117305