/*--------------------------------*- C++ -*----------------------------------*\
  =========                 |
  \\      /  F ield         | OpenFOAM: The Open Source CFD Toolbox
   \\    /   O peration     | Website:  https://openfoam.org
    \\  /    A nd           | Version:  7
     \\/     M anipulation  |
\*---------------------------------------------------------------------------*/
FoamFile
{
    version     2.0;
    format      ascii;
    class       surfaceScalarField;
    location    "0.24";
    object      phi;
}
// * * * * * * * * * * * * * * * * * * * * * * * * * * * * * * * * * * * * * //

dimensions      [0 3 -1 0 0 0 0];

internalField   nonuniform List<scalar> 
139350
(
6.45127e-08
9.21188e-08
3.19661e-08
3.25466e-08
2.30616e-08
8.9045e-09
1.95774e-08
3.48424e-09
1.76257e-08
1.95165e-09
1.61955e-08
1.43021e-09
1.50623e-08
1.13321e-09
1.41494e-08
9.12876e-10
1.33982e-08
7.51202e-10
1.27654e-08
6.32839e-10
1.22221e-08
5.43252e-10
1.17492e-08
4.7298e-10
1.13327e-08
4.16425e-10
1.09627e-08
3.70067e-10
1.06312e-08
3.31503e-10
1.03321e-08
2.99013e-10
1.00608e-08
2.71333e-10
9.8133e-09
2.47515e-10
9.58646e-09
2.26839e-10
9.37771e-09
2.08746e-10
9.18491e-09
1.928e-10
9.00626e-09
1.78653e-10
8.84023e-09
1.66026e-10
8.68554e-09
1.54692e-10
8.54108e-09
1.44464e-10
8.40589e-09
1.35189e-10
8.27915e-09
1.26736e-10
8.16016e-09
1.18997e-10
8.04828e-09
1.11874e-10
7.94299e-09
1.05294e-10
7.84381e-09
9.91732e-11
7.75035e-09
9.34683e-11
7.66225e-09
8.80919e-11
7.57922e-09
8.30351e-11
7.50103e-09
7.81913e-11
7.42744e-09
7.35831e-11
7.35835e-09
6.90961e-11
7.29363e-09
6.47208e-11
7.23315e-09
6.04758e-11
7.17714e-09
5.60085e-11
7.12508e-09
5.20616e-11
7.07824e-09
4.68397e-11
7.03448e-09
4.37618e-11
6.99832e-09
3.61576e-11
6.96212e-09
3.62062e-11
6.94089e-09
2.12304e-11
6.90558e-09
3.53037e-11
6.92681e-09
-2.12275e-11
6.7161e-09
2.10709e-10
-3.04318e-09
9.75928e-09
1.25944e-07
1.27618e-07
9.12925e-08
6.7198e-08
7.1942e-08
2.8255e-08
6.12283e-08
1.41979e-08
5.47931e-08
8.38689e-09
5.02985e-08
5.9248e-09
4.68136e-08
4.61814e-09
4.39991e-08
3.72731e-09
4.16745e-08
3.07581e-09
3.97143e-08
2.59303e-09
3.80314e-08
2.22614e-09
3.65659e-08
1.93853e-09
3.5275e-08
1.70726e-09
3.41274e-08
1.51773e-09
3.30988e-08
1.36005e-09
3.21707e-08
1.22719e-09
3.1328e-08
1.11397e-09
3.0559e-08
1.01655e-09
2.98539e-08
9.3196e-10
2.92047e-08
8.57942e-10
2.86048e-08
7.92706e-10
2.80486e-08
7.34836e-10
2.75314e-08
6.83193e-10
2.70493e-08
6.36851e-10
2.65987e-08
5.95051e-10
2.61767e-08
5.57164e-10
2.57808e-08
5.22661e-10
2.54087e-08
4.91101e-10
2.50584e-08
4.62095e-10
2.47284e-08
4.35331e-10
2.44171e-08
4.10495e-10
2.41232e-08
3.87381e-10
2.38456e-08
3.65684e-10
2.35833e-08
3.45322e-10
2.33356e-08
3.25915e-10
2.31016e-08
3.07556e-10
2.2881e-08
2.89693e-10
2.26731e-08
2.7264e-10
2.24779e-08
2.55654e-10
2.22948e-08
2.39076e-10
2.21244e-08
2.22521e-10
2.19662e-08
2.04984e-10
2.18207e-08
1.89318e-10
2.16896e-08
1.67227e-10
2.15689e-08
1.56868e-10
2.14729e-08
1.17278e-10
2.13659e-08
1.42318e-10
2.13647e-08
-2.0063e-11
2.11066e-08
4.68848e-10
-3.62444e-09
2.16878e-08
1.58753e-07
1.35269e-07
1.3653e-07
8.94211e-08
1.175e-07
4.72852e-08
1.03326e-07
2.83716e-08
9.33352e-08
1.83777e-08
8.60377e-08
1.32223e-08
8.03323e-08
1.03235e-08
7.56827e-08
8.37691e-09
7.18065e-08
6.95198e-09
6.85162e-08
5.88336e-09
6.56784e-08
5.06393e-09
6.31985e-08
4.41846e-09
6.10079e-08
3.89782e-09
5.90556e-08
3.47005e-09
5.73023e-08
3.11336e-09
5.57172e-08
2.81222e-09
5.4276e-08
2.55519e-09
5.29589e-08
2.33369e-09
5.17497e-08
2.14115e-09
5.06351e-08
1.9725e-09
4.96041e-08
1.82373e-09
4.86473e-08
1.69166e-09
4.77567e-08
1.57374e-09
4.69257e-08
1.46788e-09
4.61484e-08
1.37237e-09
4.54198e-08
1.28578e-09
4.47355e-08
1.20694e-09
4.40918e-08
1.13483e-09
4.34853e-08
1.06859e-09
4.29131e-08
1.0075e-09
4.23727e-08
9.50871e-10
4.18619e-08
8.98217e-10
4.13787e-08
8.48898e-10
4.09213e-08
8.02676e-10
4.04885e-08
7.58765e-10
4.00787e-08
7.17353e-10
3.96912e-08
6.77153e-10
3.93247e-08
6.39153e-10
3.89793e-08
6.01013e-10
3.86534e-08
5.65033e-10
3.83485e-08
5.27376e-10
3.80621e-08
4.91386e-10
3.77978e-08
4.53617e-10
3.75527e-08
4.12401e-10
3.73294e-08
3.80107e-10
3.71347e-08
3.12005e-10
3.69417e-08
3.35298e-10
3.68569e-08
6.46992e-11
3.66567e-08
6.69115e-10
-3.24266e-09
3.62749e-08
1.75612e-07
1.31173e-07
1.65626e-07
9.94069e-08
1.52741e-07
6.017e-08
1.40136e-07
4.09766e-08
1.2946e-07
2.90538e-08
1.20825e-07
2.18576e-08
1.13716e-07
1.74325e-08
1.07738e-07
1.4355e-08
1.0264e-07
1.20495e-08
9.82404e-08
1.0283e-08
9.4399e-08
8.90534e-09
9.10103e-08
7.80718e-09
8.79945e-08
6.91364e-09
8.52902e-08
6.17439e-09
8.28491e-08
5.55446e-09
8.06327e-08
5.02857e-09
7.861e-08
4.57789e-09
7.67555e-08
4.18817e-09
7.50483e-08
3.84842e-09
7.34707e-08
3.55006e-09
7.20081e-08
3.28631e-09
7.06481e-08
3.05173e-09
6.93799e-08
2.84193e-09
6.81944e-08
2.65333e-09
6.70838e-08
2.48297e-09
6.60412e-08
2.32838e-09
6.50606e-08
2.1875e-09
6.41369e-08
2.05858e-09
6.32654e-08
1.94011e-09
6.2442e-08
1.83083e-09
6.16633e-08
1.72957e-09
6.09261e-08
1.63543e-09
6.02277e-08
1.54734e-09
5.95655e-08
1.46484e-09
5.89377e-08
1.38663e-09
5.8342e-08
1.31299e-09
5.77775e-08
1.2417e-09
5.7242e-08
1.17461e-09
5.67357e-08
1.10728e-09
5.62561e-08
1.04468e-09
5.58053e-08
9.78225e-10
5.53792e-08
9.17457e-10
5.4983e-08
8.49754e-10
5.46115e-08
7.83975e-10
5.42703e-08
7.21292e-10
5.39621e-08
6.20156e-10
5.36692e-08
6.28244e-10
5.34667e-08
2.67169e-10
5.32689e-08
8.66955e-10
-2.573e-09
5.25992e-08
1.8451e-07
1.23448e-07
1.82342e-07
1.01575e-07
1.76126e-07
6.63869e-08
1.67772e-07
4.933e-08
1.59157e-07
3.76687e-08
1.51256e-07
2.97586e-08
1.44188e-07
2.45009e-08
1.37892e-07
2.06513e-08
1.32295e-07
1.76467e-08
1.27312e-07
1.52652e-08
1.22859e-07
1.33583e-08
1.18859e-07
1.18074e-08
1.15247e-07
1.05256e-08
1.1197e-07
9.45167e-09
1.08983e-07
8.54176e-09
1.06248e-07
7.76318e-09
1.03735e-07
7.09108e-09
1.01417e-07
6.50626e-09
9.92715e-08
5.99369e-09
9.72801e-08
5.54148e-09
9.54263e-08
5.1401e-09
9.36962e-08
4.78186e-09
9.20776e-08
4.46048e-09
9.05602e-08
4.17079e-09
8.91347e-08
3.90848e-09
8.77931e-08
3.66997e-09
8.65284e-08
3.45221e-09
8.53343e-08
3.25263e-09
8.42054e-08
3.06901e-09
8.31368e-08
2.89944e-09
8.21242e-08
2.7422e-09
8.11637e-08
2.59592e-09
8.0252e-08
2.45906e-09
7.93859e-08
2.33087e-09
7.85631e-08
2.20947e-09
7.77809e-08
2.0952e-09
7.70377e-08
1.98485e-09
7.63312e-08
1.88113e-09
7.56611e-08
1.77737e-09
7.50245e-08
1.68129e-09
7.44234e-08
1.57939e-09
7.38533e-08
1.48752e-09
7.33193e-08
1.3837e-09
7.2816e-08
1.28736e-09
7.2349e-08
1.18827e-09
7.19199e-08
1.04926e-09
7.15181e-08
1.03006e-09
7.1189e-08
5.96195e-10
7.09254e-08
1.13063e-09
-1.7871e-09
7.01395e-08
1.90343e-07
1.15322e-07
1.9186e-07
1.00057e-07
1.90266e-07
6.79811e-08
1.86165e-07
5.34316e-08
1.8073e-07
4.31031e-08
1.74983e-07
3.55056e-08
1.69291e-07
3.0193e-08
1.63811e-07
2.61315e-08
1.5864e-07
2.2818e-08
1.53819e-07
2.00858e-08
1.49352e-07
1.78255e-08
1.45221e-07
1.59376e-08
1.41404e-07
1.43428e-08
1.37874e-07
1.29822e-08
1.34604e-07
1.18116e-08
1.3157e-07
1.0797e-08
1.2875e-07
9.91138e-09
1.26123e-07
9.13343e-09
1.2367e-07
8.44596e-09
1.21377e-07
7.83506e-09
1.19227e-07
7.2894e-09
1.1721e-07
6.79968e-09
1.15312e-07
6.35817e-09
1.13524e-07
5.95845e-09
1.11838e-07
5.59511e-09
1.10244e-07
5.26358e-09
1.08736e-07
4.95998e-09
1.07308e-07
4.68095e-09
1.05953e-07
4.42361e-09
1.04667e-07
4.18546e-09
1.03445e-07
3.96424e-09
1.02283e-07
3.75812e-09
1.01177e-07
3.56508e-09
1.00124e-07
3.38405e-09
9.91207e-08
3.21262e-09
9.81648e-08
3.05113e-09
9.72542e-08
2.89541e-09
9.63864e-08
2.74893e-09
9.55608e-08
2.60298e-09
9.47744e-08
2.46764e-09
9.40287e-08
2.3251e-09
9.33198e-08
2.19645e-09
9.26514e-08
2.05207e-09
9.20194e-08
1.91932e-09
9.14278e-08
1.77994e-09
9.0879e-08
1.59802e-09
9.03663e-08
1.54279e-09
8.99133e-08
1.0492e-09
8.95559e-08
1.48801e-09
-9.10523e-10
8.86793e-08
1.95504e-07
1.07632e-07
1.98248e-07
9.73133e-08
1.98989e-07
6.72407e-08
1.97797e-07
5.46229e-08
1.95167e-07
4.57336e-08
1.91831e-07
3.8841e-08
1.88104e-07
3.39205e-08
1.84157e-07
3.00785e-08
1.8014e-07
2.68345e-08
1.76165e-07
2.40617e-08
1.72297e-07
2.1693e-08
1.68577e-07
1.9658e-08
1.65024e-07
1.78959e-08
1.61646e-07
1.63597e-08
1.58445e-07
1.50129e-08
1.55416e-07
1.38261e-08
1.52552e-07
1.27753e-08
1.49845e-07
1.18406e-08
1.47285e-07
1.10053e-08
1.44865e-07
1.02558e-08
1.42574e-07
9.58041e-09
1.40404e-07
8.96957e-09
1.38347e-07
8.41505e-09
1.36395e-07
7.90988e-09
1.34542e-07
7.44813e-09
1.32781e-07
7.02468e-09
1.31106e-07
6.63514e-09
1.29511e-07
6.27566e-09
1.27992e-07
5.94291e-09
1.26544e-07
5.63394e-09
1.25162e-07
5.34609e-09
1.23843e-07
5.07717e-09
1.22583e-07
4.82477e-09
1.2138e-07
4.58756e-09
1.20229e-07
4.36267e-09
1.1913e-07
4.15041e-09
1.1808e-07
3.94583e-09
1.17076e-07
3.75293e-09
1.16117e-07
3.56139e-09
1.15202e-07
3.38298e-09
1.1433e-07
3.19674e-09
1.135e-07
3.02715e-09
1.12712e-07
2.8398e-09
1.11965e-07
2.6659e-09
1.11261e-07
2.48443e-09
1.10604e-07
2.25538e-09
1.09988e-07
2.15821e-09
1.0942e-07
1.61688e-09
1.08967e-07
1.94177e-09
3.06447e-11
1.08026e-07
2.0082e-07
1.00397e-07
2.03773e-07
9.43601e-08
2.05348e-07
6.56656e-08
2.05652e-07
5.43194e-08
2.04824e-07
4.65609e-08
2.03349e-07
4.03166e-08
2.01405e-07
3.58642e-08
1.99078e-07
3.24055e-08
1.96474e-07
2.94379e-08
1.93697e-07
2.68392e-08
1.90826e-07
2.45642e-08
1.87921e-07
2.25628e-08
1.85027e-07
2.07898e-08
1.82176e-07
1.92109e-08
1.79389e-07
1.77994e-08
1.76682e-07
1.65332e-08
1.74063e-07
1.5394e-08
1.71538e-07
1.43657e-08
1.69109e-07
1.34347e-08
1.66775e-07
1.25894e-08
1.64536e-07
1.18195e-08
1.62389e-07
1.11165e-08
1.60332e-07
1.04726e-08
1.5836e-07
9.88141e-09
1.56471e-07
9.3371e-09
1.54661e-07
8.83466e-09
1.52927e-07
8.36968e-09
1.51264e-07
7.93824e-09
1.4967e-07
7.53688e-09
1.48142e-07
7.16251e-09
1.46675e-07
6.81227e-09
1.45269e-07
6.48382e-09
1.43919e-07
6.1745e-09
1.42624e-07
5.88287e-09
1.41381e-07
5.60571e-09
1.40188e-07
5.34335e-09
1.39043e-07
5.09026e-09
1.37945e-07
4.85076e-09
1.36893e-07
4.61351e-09
1.35885e-07
4.39113e-09
1.34921e-07
4.16095e-09
1.33999e-07
3.94873e-09
1.33121e-07
3.71847e-09
1.32286e-07
3.50082e-09
1.31493e-07
3.2776e-09
1.30749e-07
2.99944e-09
1.3005e-07
2.85649e-09
1.29387e-07
2.28008e-09
1.28847e-07
2.48176e-09
9.99444e-10
1.27878e-07
2.06423e-07
9.35064e-08
2.09333e-07
9.14504e-08
2.11059e-07
6.39391e-08
2.11942e-07
5.34366e-08
2.12008e-07
4.64949e-08
2.11626e-07
4.06982e-08
2.109e-07
3.65901e-08
2.09833e-07
3.3473e-08
2.08462e-07
3.08085e-08
2.06847e-07
2.84545e-08
2.05042e-07
2.63689e-08
2.03097e-07
2.4508e-08
2.01054e-07
2.28332e-08
1.98948e-07
2.13166e-08
1.96809e-07
1.99381e-08
1.94661e-07
1.86816e-08
1.92521e-07
1.75336e-08
1.90405e-07
1.64824e-08
1.88322e-07
1.55178e-08
1.8628e-07
1.46309e-08
1.84286e-07
1.38138e-08
1.82343e-07
1.30596e-08
1.80453e-07
1.23621e-08
1.78619e-07
1.17157e-08
1.76841e-07
1.11155e-08
1.75118e-07
1.05573e-08
1.73451e-07
1.00369e-08
1.71838e-07
9.5509e-09
1.70279e-07
9.09599e-09
1.68772e-07
8.66925e-09
1.67317e-07
8.26794e-09
1.65911e-07
7.88973e-09
1.64553e-07
7.53199e-09
1.63243e-07
7.19325e-09
1.61978e-07
6.87018e-09
1.60759e-07
6.56315e-09
1.59582e-07
6.26632e-09
1.58449e-07
5.98419e-09
1.57358e-07
5.70487e-09
1.56308e-07
5.4412e-09
1.55298e-07
5.17013e-09
1.5433e-07
4.91674e-09
1.53402e-07
4.64645e-09
1.52518e-07
4.38547e-09
1.51672e-07
4.12294e-09
1.50875e-07
3.79708e-09
1.50125e-07
3.60655e-09
1.49397e-07
3.00812e-09
1.48792e-07
3.08606e-09
1.95772e-09
1.47834e-07
2.12269e-07
8.68995e-08
2.15141e-07
8.85781e-08
2.16814e-07
6.22664e-08
2.17857e-07
5.23942e-08
2.18268e-07
4.60839e-08
2.18388e-07
4.05781e-08
2.18315e-07
3.66626e-08
2.18018e-07
3.37698e-08
2.17491e-07
3.13358e-08
2.16752e-07
2.91938e-08
2.15824e-07
2.72964e-08
2.14733e-07
2.55988e-08
2.13505e-07
2.40616e-08
2.12164e-07
2.26576e-08
2.10734e-07
2.1368e-08
2.09236e-07
2.01793e-08
2.0769e-07
1.90804e-08
2.0611e-07
1.80623e-08
2.0451e-07
1.71172e-08
2.02903e-07
1.62383e-08
2.01297e-07
1.54198e-08
1.997e-07
1.46563e-08
1.98119e-07
1.39433e-08
1.96558e-07
1.32763e-08
1.95022e-07
1.26517e-08
1.93514e-07
1.20658e-08
1.92035e-07
1.15155e-08
1.90588e-07
1.09977e-08
1.89174e-07
1.05098e-08
1.87795e-07
1.00491e-08
1.86449e-07
9.61332e-09
1.85139e-07
9.20028e-09
1.83863e-07
8.8075e-09
1.82623e-07
8.43371e-09
1.81417e-07
8.07559e-09
1.80247e-07
7.73362e-09
1.79111e-07
7.40191e-09
1.7801e-07
7.08497e-09
1.76944e-07
6.77094e-09
1.75913e-07
6.47218e-09
1.74917e-07
6.1665e-09
1.73957e-07
5.8767e-09
1.73031e-07
5.57205e-09
1.72145e-07
5.27145e-09
1.71294e-07
4.97419e-09
1.70486e-07
4.60566e-09
1.69724e-07
4.36825e-09
1.68972e-07
3.76047e-09
1.68336e-07
3.72167e-09
2.86785e-09
1.67426e-07
2.18315e-07
8.05652e-08
2.21191e-07
8.57023e-08
2.22787e-07
6.06703e-08
2.23858e-07
5.13233e-08
2.24377e-07
4.55643e-08
2.24675e-07
4.02804e-08
2.24879e-07
3.64589e-08
2.2496e-07
3.36886e-08
2.24898e-07
3.13977e-08
2.24693e-07
2.93986e-08
2.2435e-07
2.76397e-08
2.23874e-07
2.60747e-08
2.23274e-07
2.46613e-08
2.22562e-07
2.33698e-08
2.2175e-07
2.21803e-08
2.20851e-07
2.10786e-08
2.19877e-07
2.0054e-08
2.18841e-07
1.90979e-08
2.17755e-07
1.82034e-08
2.16629e-07
1.73648e-08
2.15471e-07
1.65771e-08
2.14291e-07
1.58363e-08
2.13096e-07
1.51384e-08
2.11892e-07
1.44804e-08
2.10685e-07
1.38591e-08
2.09479e-07
1.32718e-08
2.08278e-07
1.27161e-08
2.07086e-07
1.21895e-08
2.05906e-07
1.16899e-08
2.0474e-07
1.12152e-08
2.0359e-07
1.07632e-08
2.02458e-07
1.03323e-08
2.01345e-07
9.92024e-09
2.00253e-07
9.5259e-09
1.99183e-07
9.14615e-09
1.98135e-07
8.78161e-09
1.9711e-07
8.42652e-09
1.9611e-07
8.08527e-09
1.95134e-07
7.74647e-09
1.94185e-07
7.4215e-09
1.93261e-07
7.09e-09
1.92367e-07
6.77126e-09
1.91499e-07
6.44006e-09
1.90664e-07
6.10653e-09
1.89857e-07
5.78081e-09
1.89085e-07
5.37773e-09
1.88357e-07
5.09683e-09
1.87626e-07
4.49114e-09
1.86999e-07
4.34834e-09
3.69364e-09
1.86173e-07
2.24549e-07
7.45097e-08
2.27451e-07
8.28003e-08
2.28983e-07
5.91382e-08
2.30061e-07
5.02452e-08
2.30621e-07
4.50041e-08
2.30967e-07
3.99342e-08
2.31261e-07
3.61656e-08
2.3149e-07
3.34593e-08
2.31637e-07
3.1251e-08
2.31699e-07
2.93362e-08
2.31677e-07
2.76623e-08
2.31567e-07
2.61843e-08
2.3137e-07
2.48584e-08
2.31087e-07
2.36528e-08
2.30722e-07
2.25455e-08
2.30279e-07
2.15212e-08
2.29765e-07
2.05681e-08
2.29186e-07
1.96771e-08
2.28548e-07
1.8841e-08
2.27859e-07
1.8054e-08
2.27125e-07
1.73113e-08
2.26352e-07
1.6609e-08
2.25547e-07
1.59437e-08
2.24714e-07
1.53126e-08
2.2386e-07
1.47132e-08
2.22989e-07
1.4143e-08
2.22105e-07
1.36002e-08
2.21212e-07
1.30827e-08
2.20313e-07
1.25888e-08
2.19411e-07
1.21167e-08
2.1851e-07
1.16647e-08
2.17611e-07
1.12313e-08
2.16717e-07
1.08146e-08
2.15829e-07
1.04137e-08
2.14949e-07
1.00255e-08
2.1408e-07
9.65095e-09
2.13222e-07
9.28441e-09
2.12377e-07
8.93004e-09
2.11547e-07
8.57725e-09
2.10732e-07
8.236e-09
2.09934e-07
7.88848e-09
2.09155e-07
7.54968e-09
2.08394e-07
7.20078e-09
2.07658e-07
6.84284e-09
2.06943e-07
6.49588e-09
2.06253e-07
6.06823e-09
2.056e-07
5.74944e-09
2.04936e-07
5.15534e-09
2.04359e-07
4.92477e-09
4.40358e-09
2.03649e-07
2.30975e-07
6.8741e-08
2.33912e-07
7.98632e-08
2.35387e-07
5.7663e-08
2.36473e-07
4.91588e-08
2.37066e-07
4.44109e-08
2.37428e-07
3.9573e-08
2.37743e-07
3.58504e-08
2.38018e-07
3.31839e-08
2.38241e-07
3.10286e-08
2.38412e-07
2.91644e-08
2.38535e-07
2.75393e-08
2.38608e-07
2.6112e-08
2.38626e-07
2.48395e-08
2.3859e-07
2.36889e-08
2.38498e-07
2.26375e-08
2.38351e-07
2.16688e-08
2.38149e-07
2.07702e-08
2.37894e-07
1.99318e-08
2.37589e-07
1.91458e-08
2.37237e-07
1.84058e-08
2.36842e-07
1.77067e-08
2.36407e-07
1.70445e-08
2.35935e-07
1.64156e-08
2.3543e-07
1.58172e-08
2.34897e-07
1.52468e-08
2.34337e-07
1.47022e-08
2.33756e-07
1.41817e-08
2.33155e-07
1.36833e-08
2.32539e-07
1.32055e-08
2.31908e-07
1.27468e-08
2.31268e-07
1.23056e-08
2.30618e-07
1.18807e-08
2.29963e-07
1.14701e-08
2.29303e-07
1.10733e-08
2.28641e-07
1.06873e-08
2.27979e-07
1.0313e-08
2.27319e-07
9.94507e-09
2.26661e-07
9.58731e-09
2.26008e-07
9.23012e-09
2.25363e-07
8.88173e-09
2.24724e-07
8.52725e-09
2.24097e-07
8.1771e-09
2.23478e-07
7.81886e-09
2.22876e-07
7.44536e-09
2.22288e-07
7.08429e-09
2.21714e-07
6.64224e-09
2.2117e-07
6.29252e-09
2.20609e-07
5.7168e-09
2.20118e-07
5.41586e-09
4.97501e-09
2.19546e-07
2.37601e-07
6.32649e-08
2.40577e-07
7.68869e-08
2.41995e-07
5.62448e-08
2.43089e-07
4.8065e-08
2.43719e-07
4.3781e-08
2.44093e-07
3.91987e-08
2.44414e-07
3.55297e-08
2.44702e-07
3.2896e-08
2.44947e-07
3.07834e-08
2.45156e-07
2.89561e-08
2.45333e-07
2.73619e-08
2.4548e-07
2.59646e-08
2.45597e-07
2.47232e-08
2.4568e-07
2.36052e-08
2.4573e-07
2.25877e-08
2.45745e-07
2.16539e-08
2.45724e-07
2.0791e-08
2.45668e-07
1.99885e-08
2.45575e-07
1.92381e-08
2.45448e-07
1.85332e-08
2.45286e-07
1.78683e-08
2.45092e-07
1.72388e-08
2.44867e-07
1.66411e-08
2.44612e-07
1.60721e-08
2.44329e-07
1.55292e-08
2.44022e-07
1.50101e-08
2.4369e-07
1.4513e-08
2.43337e-07
1.40361e-08
2.42965e-07
1.35777e-08
2.42575e-07
1.31365e-08
2.4217e-07
1.27109e-08
2.41751e-07
1.22997e-08
2.4132e-07
1.1901e-08
2.40879e-07
1.15144e-08
2.40429e-07
1.11369e-08
2.39973e-07
1.07694e-08
2.39511e-07
1.04068e-08
2.39046e-07
1.00524e-08
2.38578e-07
9.69775e-09
2.38111e-07
9.34908e-09
2.37644e-07
8.99456e-09
2.37181e-07
8.64012e-09
2.36721e-07
8.27916e-09
2.36268e-07
7.89783e-09
2.35824e-07
7.52857e-09
2.35385e-07
7.08099e-09
2.3497e-07
6.70738e-09
2.34533e-07
6.15375e-09
2.3415e-07
5.79887e-09
5.39787e-09
2.33727e-07
2.44436e-07
5.8085e-08
2.47451e-07
7.38721e-08
2.48814e-07
5.48819e-08
2.4991e-07
4.69684e-08
2.50579e-07
4.31126e-08
2.5097e-07
3.88078e-08
2.51295e-07
3.52043e-08
2.51589e-07
3.26023e-08
2.51842e-07
3.05305e-08
2.52061e-07
2.87368e-08
2.52255e-07
2.71674e-08
2.52429e-07
2.57912e-08
2.52582e-07
2.45701e-08
2.52715e-07
2.34724e-08
2.52827e-07
2.24754e-08
2.52918e-07
2.15627e-08
2.52988e-07
2.07214e-08
2.53035e-07
1.99411e-08
2.5306e-07
1.92135e-08
2.53061e-07
1.85315e-08
2.5304e-07
1.78896e-08
2.52996e-07
1.72831e-08
2.52929e-07
1.67079e-08
2.5284e-07
1.6161e-08
2.5273e-07
1.56394e-08
2.52599e-07
1.51409e-08
2.52449e-07
1.46633e-08
2.5228e-07
1.4205e-08
2.52093e-07
1.37642e-08
2.51891e-07
1.33395e-08
2.51672e-07
1.29292e-08
2.5144e-07
1.25322e-08
2.51194e-07
1.21466e-08
2.50937e-07
1.17718e-08
2.50669e-07
1.1405e-08
2.50391e-07
1.10468e-08
2.50105e-07
1.06927e-08
2.49813e-07
1.0345e-08
2.49514e-07
9.99646e-09
2.49212e-07
9.65144e-09
2.48905e-07
9.30094e-09
2.48599e-07
8.94683e-09
2.48291e-07
8.58729e-09
2.47985e-07
8.20377e-09
2.47683e-07
7.83038e-09
2.4738e-07
7.38376e-09
2.47095e-07
6.99244e-09
2.46787e-07
6.46145e-09
2.4652e-07
6.06649e-09
5.67626e-09
2.46241e-07
2.51488e-07
5.32032e-08
2.54532e-07
7.08289e-08
2.5585e-07
5.35634e-08
2.56944e-07
4.58744e-08
2.5765e-07
4.24065e-08
2.5806e-07
3.83975e-08
2.58392e-07
3.48731e-08
2.58691e-07
3.23033e-08
2.58949e-07
3.02723e-08
2.59173e-07
2.8513e-08
2.59373e-07
2.69674e-08
2.59554e-07
2.56098e-08
2.59719e-07
2.44051e-08
2.59869e-07
2.33225e-08
2.60005e-07
2.23398e-08
2.60127e-07
2.14409e-08
2.60235e-07
2.06133e-08
2.60329e-07
1.98468e-08
2.60409e-07
1.91332e-08
2.60475e-07
1.84655e-08
2.60527e-07
1.7838e-08
2.60564e-07
1.7246e-08
2.60586e-07
1.66855e-08
2.60594e-07
1.61531e-08
2.60588e-07
1.5646e-08
2.60567e-07
1.51618e-08
2.60532e-07
1.46983e-08
2.60483e-07
1.42536e-08
2.60421e-07
1.38261e-08
2.60347e-07
1.34141e-08
2.6026e-07
1.30161e-08
2.60161e-07
1.26309e-08
2.60051e-07
1.22565e-08
2.59931e-07
1.18921e-08
2.59801e-07
1.15353e-08
2.59661e-07
1.1186e-08
2.59514e-07
1.08404e-08
2.59359e-07
1.04998e-08
2.59197e-07
1.01583e-08
2.5903e-07
9.81818e-09
2.58858e-07
9.47308e-09
2.58684e-07
9.12148e-09
2.58506e-07
8.76507e-09
2.58327e-07
8.38261e-09
2.5815e-07
8.00723e-09
2.57968e-07
7.56532e-09
2.578e-07
7.16098e-09
2.57611e-07
6.6505e-09
2.57451e-07
6.22599e-09
5.82684e-09
2.57301e-07
2.58766e-07
4.86201e-08
2.61827e-07
6.77679e-08
2.63112e-07
5.22783e-08
2.64199e-07
4.4788e-08
2.6494e-07
4.16649e-08
2.65372e-07
3.79659e-08
2.6571e-07
3.45349e-08
2.66015e-07
3.19984e-08
2.66279e-07
3.00085e-08
2.66507e-07
2.82852e-08
2.6671e-07
2.67644e-08
2.66894e-07
2.54253e-08
2.67063e-07
2.42362e-08
2.67218e-07
2.31672e-08
2.67362e-07
2.21965e-08
2.67494e-07
2.13085e-08
2.67616e-07
2.04911e-08
2.67729e-07
1.97343e-08
2.67832e-07
1.90301e-08
2.67926e-07
1.83717e-08
2.6801e-07
1.77534e-08
2.68086e-07
1.71706e-08
2.68152e-07
1.66193e-08
2.68209e-07
1.6096e-08
2.68257e-07
1.5598e-08
2.68296e-07
1.51228e-08
2.68326e-07
1.46683e-08
2.68347e-07
1.42326e-08
2.68359e-07
1.38139e-08
2.68362e-07
1.34107e-08
2.68357e-07
1.30212e-08
2.68344e-07
1.26443e-08
2.68322e-07
1.2278e-08
2.68293e-07
1.19215e-08
2.68256e-07
1.15722e-08
2.68212e-07
1.123e-08
2.68161e-07
1.08911e-08
2.68105e-07
1.05564e-08
2.68042e-07
1.02208e-08
2.67975e-07
9.88516e-09
2.67903e-07
9.54498e-09
2.67828e-07
9.19623e-09
2.67751e-07
8.84281e-09
2.67671e-07
8.4627e-09
2.67592e-07
8.08588e-09
2.67507e-07
7.65004e-09
2.67432e-07
7.23589e-09
2.67341e-07
6.7419e-09
2.67272e-07
6.29509e-09
5.87459e-09
2.67224e-07
2.66278e-07
4.43342e-08
2.69346e-07
6.46998e-08
2.70609e-07
5.10158e-08
2.71683e-07
4.37135e-08
2.72457e-07
4.0891e-08
2.72912e-07
3.75112e-08
2.73258e-07
3.41892e-08
2.73568e-07
3.16876e-08
2.73838e-07
2.97387e-08
2.7407e-07
2.8053e-08
2.74276e-07
2.65585e-08
2.74463e-07
2.52385e-08
2.74634e-07
2.40652e-08
2.74792e-07
2.30097e-08
2.74938e-07
2.20506e-08
2.75073e-07
2.11727e-08
2.752e-07
2.03643e-08
2.75319e-07
1.96157e-08
2.7543e-07
1.8919e-08
2.75534e-07
1.82676e-08
2.75631e-07
1.7656e-08
2.75723e-07
1.70795e-08
2.75808e-07
1.65343e-08
2.75887e-07
1.6017e-08
2.7596e-07
1.55248e-08
2.76027e-07
1.50553e-08
2.76089e-07
1.46064e-08
2.76146e-07
1.41762e-08
2.76197e-07
1.3763e-08
2.76242e-07
1.33652e-08
2.76282e-07
1.29811e-08
2.76317e-07
1.26095e-08
2.76347e-07
1.22484e-08
2.76371e-07
1.1897e-08
2.76391e-07
1.15527e-08
2.76406e-07
1.12151e-08
2.76416e-07
1.0881e-08
2.76422e-07
1.05503e-08
2.76424e-07
1.0219e-08
2.76423e-07
9.88637e-09
2.76418e-07
9.54968e-09
2.76411e-07
9.2031e-09
2.76402e-07
8.85158e-09
2.76391e-07
8.47377e-09
2.76382e-07
8.0952e-09
2.76367e-07
7.66508e-09
2.7636e-07
7.24314e-09
2.76341e-07
6.76076e-09
2.7634e-07
6.29619e-09
5.8473e-09
2.76367e-07
2.74033e-07
4.03424e-08
2.77097e-07
6.16354e-08
2.78347e-07
4.97657e-08
2.79406e-07
4.26544e-08
2.80209e-07
4.00884e-08
2.80688e-07
3.7032e-08
2.81042e-07
3.38349e-08
2.81359e-07
3.1371e-08
2.81635e-07
2.94626e-08
2.81872e-07
2.7816e-08
2.82081e-07
2.63493e-08
2.8227e-07
2.50493e-08
2.82443e-07
2.38922e-08
2.82603e-07
2.28506e-08
2.8275e-07
2.19033e-08
2.82887e-07
2.10356e-08
2.83015e-07
2.0236e-08
2.83136e-07
1.94951e-08
2.8325e-07
1.88054e-08
2.83357e-07
1.81602e-08
2.83459e-07
1.75542e-08
2.83555e-07
1.69829e-08
2.83647e-07
1.64424e-08
2.83735e-07
1.59295e-08
2.83818e-07
1.54414e-08
2.83898e-07
1.49758e-08
2.83974e-07
1.45305e-08
2.84046e-07
1.41039e-08
2.84115e-07
1.36941e-08
2.8418e-07
1.32996e-08
2.84243e-07
1.29188e-08
2.84302e-07
1.25504e-08
2.84358e-07
1.21925e-08
2.84411e-07
1.18441e-08
2.8446e-07
1.15028e-08
2.84508e-07
1.1168e-08
2.84552e-07
1.08367e-08
2.84594e-07
1.05084e-08
2.84633e-07
1.01796e-08
2.84671e-07
9.84867e-09
2.84707e-07
9.51393e-09
2.84741e-07
9.16856e-09
2.84775e-07
8.81762e-09
2.84807e-07
8.44148e-09
2.84842e-07
8.06055e-09
2.84872e-07
7.63494e-09
2.84909e-07
7.20648e-09
2.84939e-07
6.73083e-09
2.84984e-07
6.25121e-09
5.77084e-09
2.8506e-07
2.8204e-07
3.66402e-08
2.85089e-07
5.85857e-08
2.86337e-07
4.85186e-08
2.87377e-07
4.16137e-08
2.88204e-07
3.92616e-08
2.88709e-07
3.6527e-08
2.89073e-07
3.3471e-08
2.89395e-07
3.10487e-08
2.89678e-07
2.91802e-08
2.8992e-07
2.75739e-08
2.90133e-07
2.61366e-08
2.90324e-07
2.48575e-08
2.90499e-07
2.37172e-08
2.9066e-07
2.26898e-08
2.90809e-07
2.17547e-08
2.90947e-07
2.08973e-08
2.91076e-07
2.01067e-08
2.91198e-07
1.93737e-08
2.91312e-07
1.86908e-08
2.91421e-07
1.80517e-08
2.91524e-07
1.74511e-08
2.91622e-07
1.68845e-08
2.91716e-07
1.63483e-08
2.91807e-07
1.58392e-08
2.91894e-07
1.53545e-08
2.91977e-07
1.48919e-08
2.92058e-07
1.44495e-08
2.92137e-07
1.40254e-08
2.92213e-07
1.3618e-08
2.92287e-07
1.32257e-08
2.92359e-07
1.2847e-08
2.92429e-07
1.24806e-08
2.92496e-07
1.21246e-08
2.92563e-07
1.1778e-08
2.92627e-07
1.14385e-08
2.9269e-07
1.11052e-08
2.92751e-07
1.07754e-08
2.92811e-07
1.04482e-08
2.9287e-07
1.01207e-08
2.92928e-07
9.79044e-09
2.92986e-07
9.45641e-09
2.93043e-07
9.11143e-09
2.93101e-07
8.75997e-09
2.93157e-07
8.38476e-09
2.93217e-07
8.00103e-09
2.93274e-07
7.57843e-09
2.93336e-07
7.14434e-09
2.93395e-07
6.67125e-09
2.93468e-07
6.17817e-09
5.66609e-09
2.93573e-07
2.90308e-07
3.32209e-08
2.93332e-07
5.5562e-08
2.94585e-07
4.72654e-08
2.95605e-07
4.05935e-08
2.96451e-07
3.84156e-08
2.96983e-07
3.59951e-08
2.97358e-07
3.30961e-08
2.97686e-07
3.07207e-08
2.97975e-07
2.88914e-08
2.98222e-07
2.73262e-08
2.98439e-07
2.592e-08
2.98634e-07
2.46628e-08
2.98811e-07
2.35398e-08
2.98974e-07
2.25272e-08
2.99124e-07
2.16046e-08
2.99263e-07
2.0758e-08
2.99393e-07
1.99766e-08
2.99515e-07
1.92516e-08
2.9963e-07
1.85757e-08
2.99739e-07
1.79427e-08
2.99843e-07
1.73475e-08
2.99942e-07
1.67857e-08
3.00037e-07
1.62536e-08
3.00128e-07
1.57481e-08
3.00216e-07
1.52666e-08
3.00301e-07
1.48068e-08
3.00383e-07
1.43668e-08
3.00464e-07
1.39449e-08
3.00542e-07
1.35393e-08
3.00619e-07
1.31488e-08
3.00695e-07
1.27716e-08
3.00769e-07
1.24066e-08
3.00841e-07
1.20519e-08
3.00913e-07
1.17064e-08
3.00983e-07
1.1368e-08
3.01053e-07
1.10355e-08
3.01122e-07
1.07066e-08
3.0119e-07
1.03798e-08
3.01258e-07
1.00528e-08
3.01326e-07
9.7226e-09
3.01394e-07
9.38848e-09
3.01462e-07
9.04337e-09
3.01531e-07
8.69071e-09
3.016e-07
8.31582e-09
3.01672e-07
7.92915e-09
3.01742e-07
7.5082e-09
3.01817e-07
7.06922e-09
3.01893e-07
6.59545e-09
3.01981e-07
6.09007e-09
5.54803e-09
3.02099e-07
2.98847e-07
3.00764e-08
3.01834e-07
5.25753e-08
3.03101e-07
4.59985e-08
3.04099e-07
3.9595e-08
3.04959e-07
3.75557e-08
3.05519e-07
3.54357e-08
3.05906e-07
3.27088e-08
3.0624e-07
3.03869e-08
3.06535e-07
2.85963e-08
3.06788e-07
2.70728e-08
3.07009e-07
2.56993e-08
3.07207e-07
2.4465e-08
3.07387e-07
2.336e-08
3.07551e-07
2.23626e-08
3.07703e-07
2.1453e-08
3.07843e-07
2.06174e-08
3.07974e-07
1.98455e-08
3.08097e-07
1.91287e-08
3.08213e-07
1.846e-08
3.08322e-07
1.78333e-08
3.08426e-07
1.72435e-08
3.08526e-07
1.66865e-08
3.0862e-07
1.61586e-08
3.08712e-07
1.56567e-08
3.088e-07
1.51784e-08
3.08885e-07
1.47213e-08
3.08969e-07
1.42837e-08
3.0905e-07
1.38637e-08
3.09129e-07
1.346e-08
3.09207e-07
1.3071e-08
3.09283e-07
1.26952e-08
3.09359e-07
1.23313e-08
3.09433e-07
1.19776e-08
3.09506e-07
1.1633e-08
3.09579e-07
1.12953e-08
3.09651e-07
1.09633e-08
3.09723e-07
1.06349e-08
3.09795e-07
1.03082e-08
3.09866e-07
9.98131e-09
3.09938e-07
9.65089e-09
3.1001e-07
9.31626e-09
3.10083e-07
8.97074e-09
3.10157e-07
8.61659e-09
3.10231e-07
8.2416e-09
3.10308e-07
7.85213e-09
3.10384e-07
7.43176e-09
3.10465e-07
6.98857e-09
3.10549e-07
6.51194e-09
3.10643e-07
5.99525e-09
5.42636e-09
3.10765e-07
3.07667e-07
2.7197e-08
3.10605e-07
4.9637e-08
3.11893e-07
4.47109e-08
3.12869e-07
3.86186e-08
3.13738e-07
3.66871e-08
3.14324e-07
3.4849e-08
3.14726e-07
3.23076e-08
3.15065e-07
3.00472e-08
3.15367e-07
2.82947e-08
3.15626e-07
2.68132e-08
3.15852e-07
2.5474e-08
3.16053e-07
2.42639e-08
3.16235e-07
2.31775e-08
3.16402e-07
2.21958e-08
3.16555e-07
2.12996e-08
3.16697e-07
2.04754e-08
3.1683e-07
1.97133e-08
3.16953e-07
1.9005e-08
3.1707e-07
1.83436e-08
3.1718e-07
1.77233e-08
3.17284e-07
1.71392e-08
3.17384e-07
1.65871e-08
3.17479e-07
1.60634e-08
3.1757e-07
1.55652e-08
3.17659e-07
1.50901e-08
3.17744e-07
1.46357e-08
3.17827e-07
1.42004e-08
3.17909e-07
1.37825e-08
3.17988e-07
1.33805e-08
3.18066e-07
1.29929e-08
3.18143e-07
1.26184e-08
3.18219e-07
1.22556e-08
3.18293e-07
1.19029e-08
3.18367e-07
1.1559e-08
3.18441e-07
1.1222e-08
3.18514e-07
1.08904e-08
3.18586e-07
1.05623e-08
3.18659e-07
1.02357e-08
3.18731e-07
9.90867e-09
3.18804e-07
9.57795e-09
3.18878e-07
9.24263e-09
3.18952e-07
8.89663e-09
3.19028e-07
8.54094e-09
3.19104e-07
8.16561e-09
3.19182e-07
7.77367e-09
3.19261e-07
7.35312e-09
3.19343e-07
6.90634e-09
3.19429e-07
6.4256e-09
3.19526e-07
5.8987e-09
5.30685e-09
3.19645e-07
3.16777e-07
2.45714e-08
3.19656e-07
4.6758e-08
3.2097e-07
4.3397e-08
3.21924e-07
3.76641e-08
3.22796e-07
3.58148e-08
3.2341e-07
3.42357e-08
3.23826e-07
3.1891e-08
3.24172e-07
2.97011e-08
3.2448e-07
2.7987e-08
3.24746e-07
2.65473e-08
3.24976e-07
2.52438e-08
3.25181e-07
2.40593e-08
3.25366e-07
2.29922e-08
3.25536e-07
2.20266e-08
3.25691e-07
2.11442e-08
3.25835e-07
2.03319e-08
3.25968e-07
1.95798e-08
3.26093e-07
1.88802e-08
3.2621e-07
1.82264e-08
3.26321e-07
1.76127e-08
3.26426e-07
1.70344e-08
3.26525e-07
1.64872e-08
3.26621e-07
1.59679e-08
3.26713e-07
1.54735e-08
3.26801e-07
1.50016e-08
3.26887e-07
1.455e-08
3.2697e-07
1.41171e-08
3.27051e-07
1.37012e-08
3.27131e-07
1.33009e-08
3.27209e-07
1.29148e-08
3.27286e-07
1.25416e-08
3.27362e-07
1.21799e-08
3.27436e-07
1.18281e-08
3.27511e-07
1.14849e-08
3.27584e-07
1.11486e-08
3.27657e-07
1.08174e-08
3.2773e-07
1.04896e-08
3.27802e-07
1.0163e-08
3.27875e-07
9.83584e-09
3.27948e-07
9.50483e-09
3.28022e-07
9.16883e-09
3.28096e-07
8.82234e-09
3.28172e-07
8.46526e-09
3.28248e-07
8.08946e-09
3.28327e-07
7.69548e-09
3.28405e-07
7.27426e-09
3.28487e-07
6.82448e-09
3.28574e-07
6.33911e-09
3.28669e-07
5.80327e-09
5.19275e-09
3.28783e-07
3.26187e-07
2.2187e-08
3.28996e-07
4.39494e-08
3.3034e-07
4.20526e-08
3.31274e-07
3.67301e-08
3.32145e-07
3.49435e-08
3.32784e-07
3.35973e-08
3.33217e-07
3.14574e-08
3.3357e-07
2.93482e-08
3.33884e-07
2.7673e-08
3.34156e-07
2.62748e-08
3.34392e-07
2.50083e-08
3.346e-07
2.38507e-08
3.34789e-07
2.28037e-08
3.34961e-07
2.18547e-08
3.35118e-07
2.09867e-08
3.35264e-07
2.01865e-08
3.35399e-07
1.94448e-08
3.35525e-07
1.87542e-08
3.35643e-07
1.81082e-08
3.35754e-07
1.75013e-08
3.3586e-07
1.69289e-08
3.3596e-07
1.63869e-08
3.36056e-07
1.5872e-08
3.36148e-07
1.53815e-08
3.36237e-07
1.49128e-08
3.36323e-07
1.44641e-08
3.36406e-07
1.40335e-08
3.36488e-07
1.36197e-08
3.36567e-07
1.32212e-08
3.36646e-07
1.28367e-08
3.36722e-07
1.24648e-08
3.36798e-07
1.21041e-08
3.36873e-07
1.17533e-08