/*--------------------------------*- C++ -*----------------------------------*\
  =========                 |
  \\      /  F ield         | OpenFOAM: The Open Source CFD Toolbox
   \\    /   O peration     | Website:  https://openfoam.org
    \\  /    A nd           | Version:  7
     \\/     M anipulation  |
\*---------------------------------------------------------------------------*/
FoamFile
{
    version     2.0;
    format      ascii;
    class       volVectorField;
    location    "0.24";
    object      U;
}
// * * * * * * * * * * * * * * * * * * * * * * * * * * * * * * * * * * * * * //

dimensions      [0 1 -1 0 0 0 0];

internalField   nonuniform List<vector> 
70000
(
(0.553414 0.0169781 0)
(0.25142 0.0034004 0)
(0.165932 0.000318965 0)
(0.132451 4.90229e-05 0)
(0.117349 4.4072e-05 0)
(0.107393 5.2235e-05 0)
(0.0994239 4.44322e-05 0)
(0.0929824 3.53528e-05 0)
(0.0877405 2.93122e-05 0)
(0.0833736 2.51712e-05 0)
(0.0796537 2.20053e-05 0)
(0.0764333 1.9466e-05 0)
(0.0736113 1.73937e-05 0)
(0.0711135 1.56798e-05 0)
(0.0688838 1.42436e-05 0)
(0.0668788 1.30257e-05 0)
(0.0650643 1.19814e-05 0)
(0.0634129 1.10773e-05 0)
(0.0619027 1.02875e-05 0)
(0.0605155 9.59197e-06 0)
(0.0592364 8.97473e-06 0)
(0.0580529 8.42311e-06 0)
(0.0569546 7.92671e-06 0)
(0.0559324 7.47719e-06 0)
(0.0549789 7.06723e-06 0)
(0.0540873 6.6914e-06 0)
(0.0532523 6.34384e-06 0)
(0.0524687 6.02141e-06 0)
(0.0517325 5.71838e-06 0)
(0.0510399 5.43404e-06 0)
(0.0503878 5.16108e-06 0)
(0.0497733 4.90234e-06 0)
(0.0491942 4.64692e-06 0)
(0.0486482 4.40151e-06 0)
(0.0481338 4.15366e-06 0)
(0.0476497 3.90436e-06 0)
(0.0471939 3.66282e-06 0)
(0.0467679 3.37315e-06 0)
(0.0463661 3.16722e-06 0)
(0.0459984 2.74277e-06 0)
(0.0456458 2.69304e-06 0)
(0.0453428 1.88599e-06 0)
(0.0450317 2.35219e-06 0)
(0.0448109 5.3626e-07 0)
(0.0445252 2.49791e-06 0)
(0.0444209 -1.96143e-06 0)
(0.0441342 4.42216e-06 0)
(0.0441622 -7.50282e-06 0)
(0.0441081 2.53849e-05 0)
(0.0404362 -0.00162437 0)
(0.884863 0.0434931 0)
(0.650153 0.0201487 0)
(0.493991 0.0066045 0)
(0.403577 0.00275468 0)
(0.354872 0.00154794 0)
(0.323561 0.00113172 0)
(0.299665 0.000909355 0)
(0.280458 0.000744809 0)
(0.264746 0.000622147 0)
(0.251626 0.000531682 0)
(0.240446 0.000462993 0)
(0.230767 0.000408921 0)
(0.222282 0.000365217 0)
(0.214769 0.000329233 0)
(0.208059 0.000299167 0)
(0.202022 0.000273725 0)
(0.196556 0.000251954 0)
(0.191579 0.000233137 0)
(0.187026 0.000216729 0)
(0.182841 0.000202305 0)
(0.178981 0.000189532 0)
(0.175407 0.000178146 0)
(0.172089 0.000167932 0)
(0.168999 0.000158715 0)
(0.166114 0.000150352 0)
(0.163416 0.000142723 0)
(0.160886 0.000135725 0)
(0.15851 0.000129274 0)
(0.156275 0.000123293 0)
(0.15417 0.00011772 0)
(0.152186 0.000112487 0)
(0.150313 0.000107557 0)
(0.148544 0.000102853 0)
(0.146873 9.83702e-05 0)
(0.145294 9.39997e-05 0)
(0.143804 8.97782e-05 0)
(0.142395 8.55553e-05 0)
(0.141071 8.13846e-05 0)
(0.139817 7.71458e-05 0)
(0.138657 7.27021e-05 0)
(0.137541 6.83964e-05 0)
(0.136559 6.30125e-05 0)
(0.135558 5.90462e-05 0)
(0.134796 5.10124e-05 0)
(0.133867 4.95922e-05 0)
(0.133409 3.32415e-05 0)
(0.132499 4.72279e-05 0)
(0.132362 -2.34825e-05 0)
(0.132036 0.000262537 0)
(0.127545 -0.00265233 0)
(0.991208 0.0499553 0)
(0.890929 0.0305622 0)
(0.762508 0.01461 0)
(0.656562 0.0079705 0)
(0.585465 0.00487956 0)
(0.536099 0.00347473 0)
(0.498206 0.00273874 0)
(0.467574 0.00224464 0)
(0.442255 0.00188105 0)
(0.420942 0.00160954 0)
(0.402685 0.0014022 0)
(0.386817 0.00123896 0)
(0.372865 0.00110711 0)
(0.360478 0.000998558 0)
(0.34939 0.00090783 0)
(0.339396 0.000831028 0)
(0.330333 0.000765288 0)
(0.322069 0.000708455 0)
(0.314497 0.000658888 0)
(0.307531 0.000615311 0)
(0.301097 0.000576725 0)
(0.295136 0.00054233 0)
(0.289594 0.000511484 0)
(0.28443 0.000483662 0)
(0.279604 0.000458433 0)
(0.275085 0.000435436 0)
(0.270845 0.000414367 0)
(0.266859 0.000394972 0)
(0.263106 0.000377021 0)
(0.259568 0.00036033 0)
(0.256228 0.000344709 0)
(0.253072 0.000330032 0)
(0.250087 0.000316101 0)
(0.247263 0.000302874 0)
(0.244589 0.000290069 0)
(0.24206 0.000277792 0)
(0.239663 0.000265559 0)
(0.237403 0.000253737 0)
(0.235255 0.000241489 0)
(0.233255 0.000229508 0)
(0.231329 0.000216685 0)
(0.229605 0.000203453 0)
(0.227862 0.000190036 0)
(0.226469 0.000172627 0)
(0.224847 0.000161866 0)
(0.223895 0.000128634 0)
(0.222328 0.000148112 0)
(0.221835 -3.56213e-06 0)
(0.220891 0.000423622 0)
(0.217698 -0.00258363 0)
(1.01554 0.0489533 0)
(1.0065 0.0357233 0)
(0.935901 0.0208183 0)
(0.85204 0.0134978 0)
(0.782276 0.00919778 0)
(0.727135 0.00678366 0)
(0.682047 0.00538791 0)
(0.644284 0.00444703 0)
(0.612265 0.00375264 0)
(0.584794 0.00322695 0)
(0.560934 0.00282086 0)
(0.53998 0.00249901 0)
(0.521402 0.00223791 0)
(0.504798 0.0020222 0)
(0.489855 0.00184136 0)
(0.476323 0.00168788 0)
(0.464002 0.00155621 0)
(0.452729 0.00144217 0)
(0.442371 0.00134256 0)
(0.432816 0.00125486 0)
(0.42397 0.00117713 0)
(0.415756 0.00110777 0)
(0.408107 0.00104553 0)
(0.400965 0.000989356 0)
(0.39428 0.000938402 0)
(0.388011 0.000891953 0)
(0.38212 0.000849404 0)
(0.376575 0.000810245 0)
(0.371346 0.000774032 0)
(0.36641 0.000740388 0)
(0.361744 0.00070895 0)
(0.357328 0.000679459 0)
(0.353146 0.000651548 0)
(0.349182 0.000625108 0)
(0.345423 0.000599627 0)
(0.341859 0.000575298 0)
(0.338476 0.000551163 0)
(0.335276 0.000528086 0)
(0.332229 0.000504087 0)
(0.329376 0.00048135 0)
(0.326628 0.000456116 0)
(0.324132 0.000432301 0)
(0.321634 0.000404912 0)
(0.319554 0.000376027 0)
(0.317232 0.000350272 0)
(0.315683 0.000298256 0)
(0.313466 0.000315149 0)
(0.312491 9.31477e-05 0)
(0.310769 0.000549134 0)
(0.308438 -0.00212445 0)
(1.01435 0.0460976 0)
(1.04798 0.03734 0)
(1.02458 0.0241853 0)
(0.974703 0.0175564 0)
(0.92352 0.0131084 0)
(0.876802 0.0102055 0)
(0.834646 0.00834609 0)
(0.796904 0.00702382 0)
(0.763348 0.00601332 0)
(0.733538 0.00522596 0)
(0.706959 0.00460416 0)
(0.683141 0.00410351 0)
(0.661686 0.00369259 0)
(0.642264 0.00334995 0)
(0.624597 0.00306054 0)
(0.608457 0.00281338 0)
(0.59365 0.00260022 0)
(0.580016 0.00241477 0)
(0.567418 0.00225215 0)
(0.55574 0.00210853 0)
(0.544883 0.00198085 0)
(0.534762 0.00186667 0)
(0.525305 0.00176397 0)
(0.516447 0.00167114 0)
(0.508134 0.0015868 0)
(0.500317 0.00150981 0)
(0.492953 0.00143923 0)
(0.486006 0.00137423 0)
(0.479442 0.00131409 0)
(0.473232 0.00125821 0)
(0.46735 0.00120602 0)
(0.461774 0.00115708 0)
(0.456482 0.00111082 0)
(0.451457 0.00106706 0)
(0.446683 0.00102501 0)
(0.442147 0.000984942 0)
(0.437832 0.000945358 0)
(0.433739 0.000907695 0)
(0.429836 0.000868627 0)
(0.426161 0.000832115 0)
(0.422625 0.000791227 0)
(0.419374 0.000754099 0)
(0.41615 0.000709395 0)
(0.413373 0.000666554 0)
(0.410387 0.000622123 0)
(0.408194 0.000549525 0)
(0.405371 0.000555499 0)
(0.403821 0.000279444 0)
(0.401425 0.00070434 0)
(0.399156 -0.00158312 0)
(1.00941 0.0430472 0)
(1.05564 0.0370953 0)
(1.05868 0.0253263 0)
(1.03632 0.0197607 0)
(1.00716 0.015796 0)
(0.976155 0.0129329 0)
(0.944639 0.0109623 0)
(0.91378 0.00947968 0)
(0.884435 0.00828884 0)
(0.856985 0.00732144 0)
(0.831508 0.00653188 0)
(0.80794 0.00587976 0)
(0.786161 0.0053337 0)
(0.76603 0.00487099 0)
(0.747399 0.00447496 0)
(0.73013 0.00413298 0)
(0.714092 0.00383529 0)
(0.699166 0.00357425 0)
(0.685249 0.00334378 0)
(0.672244 0.00313903 0)
(0.660068 0.00295607 0)
(0.648648 0.00279171 0)
(0.637916 0.00264332 0)
(0.627814 0.0025087 0)
(0.618291 0.00238604 0)
(0.609298 0.00227379 0)
(0.600796 0.00217063 0)
(0.592746 0.00207544 0)
(0.585116 0.00198724 0)
(0.577875 0.00190518 0)
(0.570998 0.00182846 0)
(0.564459 0.00175648 0)
(0.558239 0.00168846 0)
(0.552318 0.00162409 0)
(0.546678 0.00156233 0)
(0.541306 0.00150352 0)
(0.536184 0.0014456 0)
(0.531311 0.00139056 0)
(0.526655 0.00133376 0)
(0.522252 0.00128083 0)
(0.518015 0.00122184 0)
(0.51408 0.00116878 0)
(0.510209 0.0011046 0)
(0.506783 0.00104503 0)
(0.503206 0.000979918 0)
(0.500385 0.00088454 0)
(0.49704 0.000873503 0)
(0.494871 0.00055551 0)
(0.491965 0.000922538 0)
(0.489394 -0.000979426 0)
(1.00635 0.0401793 0)
(1.05241 0.0361485 0)
(1.06606 0.0252496 0)
(1.05954 0.0205654 0)
(1.04692 0.0172226 0)
(1.03088 0.0146507 0)
(1.01199 0.0128208 0)
(0.991315 0.0113957 0)
(0.969916 0.0101986 0)
(0.948521 0.0091834 0)
(0.927572 0.00832377 0)
(0.907332 0.00759149 0)
(0.887948 0.00696212 0)
(0.869489 0.00641695 0)
(0.851974 0.00594154 0)
(0.835392 0.00552445 0)
(0.819711 0.0051564 0)
(0.804888 0.00482983 0)
(0.790877 0.00453854 0)
(0.777629 0.00427743 0)
(0.765094 0.00404228 0)
(0.753227 0.00382957 0)
(0.741983 0.00363633 0)
(0.73132 0.00346008 0)
(0.721199 0.0032987 0)
(0.711584 0.00315038 0)
(0.702442 0.00301355 0)
(0.693743 0.00288685 0)
(0.685458 0.00276911 0)
(0.677561 0.00265927 0)
(0.670031 0.00255636 0)
(0.662844 0.00245961 0)
(0.655982 0.00236806 0)
(0.649427 0.00228132 0)
(0.643164 0.00219808 0)
(0.637179 0.00211874 0)
(0.631456 0.00204076 0)
(0.625993 0.00196656 0)
(0.620761 0.00189039 0)
(0.61579 0.00181918 0)
(0.611005 0.00174066 0)
(0.60652 0.0016696 0)
(0.602134 0.00158488 0)
(0.598169 0.0015061 0)
(0.594123 0.00141964 0)
(0.590753 0.0012993 0)
(0.587002 0.00126735 0)
(0.584253 0.00091755 0)
(0.580971 0.00121007 0)
(0.578042 -0.000319729 0)
(1.00506 0.037502 0)
(1.04763 0.0350502 0)
(1.06396 0.0247021 0)
(1.06419 0.0205964 0)
(1.06071 0.0177607 0)
(1.05482 0.0154914 0)
(1.04607 0.013877 0)
(1.03489 0.0126171 0)
(1.02199 0.0115311 0)
(1.00797 0.0105791 0)
(0.993294 0.00974738 0)
(0.97831 0.00901793 0)
(0.963284 0.00837401 0)
(0.94841 0.00780259 0)
(0.933824 0.00729344 0)
(0.919618 0.00683813 0)
(0.905852 0.00642949 0)
(0.89256 0.00606145 0)
(0.879761 0.00572878 0)
(0.867458 0.00542704 0)
(0.855648 0.00515241 0)
(0.844321 0.00490163 0)
(0.833464 0.00467189 0)
(0.82306 0.00446074 0)
(0.813092 0.00426607 0)
(0.803541 0.00408605 0)
(0.794389 0.00391905 0)
(0.785618 0.00376364 0)
(0.77721 0.00361855 0)
(0.769148 0.00348263 0)
(0.761416 0.00335483 0)
(0.753998 0.00323427 0)
(0.746881 0.00311988 0)
(0.740051 0.0030112 0)
(0.733497 0.00290673 0)
(0.727207 0.00280691 0)
(0.72117 0.00270884 0)
(0.715383 0.00261522 0)
(0.709825 0.0025195 0)
(0.704516 0.00242946 0)
(0.6994 0.00233129 0)
(0.694567 0.00224123 0)
(0.689855 0.00213618 0)
(0.685523 0.00203662 0)
(0.681174 0.00192931 0)
(0.677401 0.00178279 0)
(0.673393 0.0017272 0)
(0.670185 0.00135596 0)
(0.666652 0.00156375 0)
(0.663438 0.000375029 0)
(1.00451 0.0349662 0)
(1.0436 0.0339703 0)
(1.05994 0.0240513 0)
(1.06224 0.020307 0)
(1.06253 0.0178256 0)
(1.06187 0.0157708 0)
(1.05931 0.0143302 0)
(1.05477 0.0132361 0)
(1.04856 0.0122924 0)
(1.04101 0.0114526 0)
(1.03238 0.0107055 0)
(1.02293 0.0100371 0)
(1.01288 0.00943465 0)
(1.00245 0.00888863 0)
(0.991778 0.00839218 0)
(0.981009 0.00793969 0)
(0.970244 0.00752638 0)
(0.959562 0.00714802 0)
(0.949026 0.0068009 0)
(0.938681 0.00648174 0)
(0.928561 0.00618763 0)
(0.91869 0.005916 0)
(0.909082 0.00566456 0)
(0.899749 0.00543128 0)
(0.890695 0.00521435 0)
(0.881921 0.00501214 0)
(0.873426 0.00482321 0)
(0.865207 0.00464621 0)
(0.85726 0.00447995 0)
(0.849578 0.00432333 0)
(0.842155 0.0041753 0)
(0.834985 0.00403498 0)
(0.828062 0.00390128 0)
(0.821377 0.00377372 0)
(0.814926 0.00365071 0)
(0.808701 0.00353273 0)
(0.802697 0.00341663 0)
(0.796913 0.00330528 0)
(0.791333 0.00319168 0)
(0.785976 0.00308393 0)
(0.780799 0.0029676 0)
(0.775872 0.00285905 0)
(0.771074 0.00273528 0)
(0.766602 0.0026148 0)
(0.762159 0.00248825 0)
(0.758185 0.00231613 0)
(0.754098 0.00223523 0)
(0.750621 0.00185263 0)
(0.746981 0.00197331 0)
(0.743618 0.00107629 0)
(1.00412 0.0325356 0)
(1.04027 0.0329169 0)
(1.05617 0.0234168 0)
(1.05888 0.0199227 0)
(1.06026 0.0176966 0)
(1.06164 0.0157734 0)
(1.06202 0.0144342 0)
(1.06113 0.0134555 0)
(1.05909 0.0126277 0)
(1.05598 0.0118937 0)
(1.0519 0.0112397 0)
(1.04696 0.0106515 0)
(1.0413 0.010116 0)
(1.03502 0.0096246 0)
(1.02826 0.00917141 0)
(1.02112 0.00875221 0)
(1.01369 0.00836356 0)
(1.00608 0.00800257 0)
(0.998331 0.0076667 0)
(0.990522 0.00735372 0)
(0.982699 0.00706163 0)
(0.974904 0.00678862 0)
(0.967171 0.00653307 0)
(0.959527 0.00629349 0)
(0.951993 0.00606853 0)
(0.944587 0.00585693 0)
(0.937322 0.00565754 0)
(0.930208 0.00546927 0)
(0.923251 0.00529113 0)
(0.916458 0.00512216 0)
(0.909831 0.00496142 0)
(0.903373 0.00480813 0)
(0.897086 0.00466125 0)
(0.890968 0.00452035 0)
(0.885022 0.00438382 0)
(0.879245 0.0042522 0)
(0.873638 0.00412222 0)
(0.868202 0.00399683 0)
(0.86293 0.00386888 0)
(0.857838 0.00374636 0)
(0.852896 0.00361503 0)
(0.848159 0.00349022 0)
(0.843541 0.00335076 0)
(0.839185 0.00321102 0)
(0.834885 0.00306782 0)
(0.830948 0.00287277 0)
(0.826983 0.00276624 0)
(0.823463 0.00238133 0)
(0.819889 0.00242002 0)
(0.816554 0.00175473 0)
(1.00374 0.0302013 0)
(1.03727 0.0318678 0)
(1.05284 0.0228134 0)
(1.05564 0.0195206 0)
(1.05717 0.0175063 0)
(1.0591 0.0156718 0)
(1.06055 0.0143803 0)
(1.06125 0.013465 0)
(1.06126 0.0127107 0)
(1.06062 0.0120509 0)
(1.05933 0.0114692 0)
(1.05739 0.01095 0)
(1.05484 0.010479 0)
(1.05174 0.0100461 0)
(1.04813 0.00964512 0)
(1.04408 0.00927161 0)
(1.03964 0.00892235 0)
(1.03489 0.00859481 0)
(1.02987 0.00828691 0)
(1.02464 0.00799693 0)
(1.01925 0.0077234 0)
(1.01373 0.00746504 0)
(1.00812 0.0072207 0)
(1.00245 0.00698932 0)
(0.996756 0.00676998 0)
(0.991059 0.00656176 0)
(0.985378 0.00636383 0)
(0.979731 0.00617539 0)
(0.974132 0.00599566 0)
(0.968595 0.00582389 0)
(0.96313 0.0056593 0)
(0.957746 0.00550125 0)
(0.952449 0.00534879 0)
(0.947247 0.0052016 0)
(0.942144 0.0050581 0)
(0.937146 0.00491888 0)
(0.932255 0.00478071 0)
(0.927479 0.00464647 0)
(0.922815 0.00450918 0)
(0.918278 0.0043763 0)
(0.913851 0.00423451 0)
(0.909575 0.00409715 0)
(0.905394 0.00394622 0)
(0.901408 0.00379057 0)
(0.897485 0.00363415 0)
(0.893823 0.00342076 0)
(0.890184 0.0032898 0)
(0.886855 0.00291063 0)
(0.88353 0.00287644 0)
(0.880413 0.00238517 0)
(1.00337 0.0279657 0)
(1.03443 0.0308106 0)
(1.04973 0.0222349 0)
(1.05268 0.0191157 0)
(1.05417 0.0172975 0)
(1.05616 0.0155411 0)
(1.05788 0.0142716 0)
(1.0591 0.0133871 0)
(1.05992 0.0126734 0)
(1.06039 0.0120568 0)
(1.06049 0.0115201 0)
(1.06019 0.0110476 0)
(1.05949 0.0106237 0)
(1.05839 0.0102374 0)
(1.0569 0.00988118 0)
(1.05505 0.00955007 0)
(1.05285 0.00924033 0)
(1.05034 0.00894912 0)
(1.04755 0.00867424 0)
(1.04451 0.00841396 0)
(1.04124 0.00816687 0)
(1.03779 0.00793184 0)
(1.03417 0.00770788 0)
(1.03042 0.00749417 0)
(1.02655 0.00728997 0)
(1.0226 0.0070946 0)
(1.01858 0.00690744 0)
(1.01451 0.00672788 0)
(1.0104 0.00655533 0)
(1.00628 0.0063892 0)
(1.00215 0.00622886 0)
(0.99803 0.0060738 0)
(0.993924 0.00592316 0)
(0.989843 0.00577671 0)
(0.985797 0.00563296 0)
(0.981794 0.00549252 0)
(0.977839 0.00535225 0)
(0.973942 0.00521488 0)
(0.970104 0.0050738 0)
(0.96634 0.0049357 0)
(0.962642 0.00478862 0)
(0.959041 0.00464331 0)
(0.955503 0.00448573 0)
(0.952095 0.00431867 0)
(0.948741 0.00415296 0)
(0.945562 0.003927 0)
(0.942422 0.00377424 0)
(0.939488 0.00340738 0)
(0.936578 0.00331186 0)
(0.93385 0.00294343 0)
(1.00301 0.0258325 0)
(1.03171 0.0297413 0)
(1.04674 0.0216776 0)
(1.04988 0.018708 0)
(1.05135 0.0170769 0)
(1.0533 0.0154033 0)
(1.05506 0.0141492 0)
(1.05639 0.0132808 0)
(1.05745 0.0125902 0)
(1.05831 0.0119974 0)
(1.05897 0.0114852 0)
(1.05941 0.0110394 0)
(1.05961 0.0106443 0)
(1.05958 0.0102881 0)
(1.05929 0.00996285 0)
(1.05876 0.00966293 0)
(1.05798 0.00938406 0)
(1.05697 0.00912296 0)
(1.05572 0.00887706 0)
(1.05426 0.00864437 0)
(1.0526 0.00842329 0)
(1.05075 0.00821255 0)
(1.04873 0.00801111 0)
(1.04656 0.00781812 0)
(1.04425 0.00763287 0)
(1.04182 0.00745473 0)
(1.03929 0.00728315 0)
(1.03666 0.00711759 0)
(1.03396 0.00695756 0)
(1.03118 0.00680254 0)
(1.02836 0.00665199 0)
(1.02549 0.00650547 0)
(1.02259 0.00636218 0)
(1.01967 0.00622196 0)
(1.01674 0.00608335 0)
(1.0138 0.00594698 0)
(1.01086 0.00580983 0)
(1.00793 0.00567438 0)
(1.00502 0.00553456 0)
(1.00213 0.00539601 0)
(0.999278 0.0052485 0)
(0.99647 0.00509985 0)
(0.993695 0.00494017 0)
(0.990994 0.00476653 0)
(0.988329 0.00459538 0)
(0.98577 0.00436285 0)
(0.983247 0.00419197 0)
(0.980851 0.00384191 0)
(0.978479 0.0036976 0)
(0.976264 0.00340889 0)
(1.00268 0.023804 0)
(1.02911 0.0286581 0)
(1.04382 0.0211411 0)
(1.04719 0.0182971 0)
(1.04866 0.0168429 0)
(1.05058 0.0152612 0)
(1.05233 0.014024 0)
(1.05367 0.0131672 0)
(1.05477 0.012493 0)
(1.05572 0.0119151 0)
(1.05655 0.0114167 0)
(1.05725 0.0109852 0)
(1.05782 0.0106058 0)
(1.05825 0.0102668 0)
(1.05854 0.00995995 0)
(1.05868 0.00967945 0)
(1.05867 0.00942077 0)
(1.05851 0.00918034 0)
(1.05818 0.00895532 0)
(1.05771 0.00874344 0)
(1.05709 0.00854288 0)
(1.05632 0.00835217 0)
(1.05541 0.00817012 0)
(1.05438 0.00799574 0)
(1.05322 0.00782825 0)
(1.05195 0.00766694 0)
(1.05057 0.00751123 0)
(1.04909 0.00736057 0)
(1.04753 0.00721444 0)
(1.04589 0.00707238 0)
(1.04417 0.00693381 0)
(1.04239 0.00679832 0)
(1.04056 0.00666513 0)
(1.03868 0.00653409 0)
(1.03676 0.00640374 0)
(1.03481 0.00627467 0)
(1.03283 0.00614402 0)
(1.03083 0.0060139 0)
(1.02882 0.00587888 0)
(1.0268 0.00574339 0)
(1.02479 0.00559908 0)
(1.02278 0.00545079 0)
(1.02079 0.00529257 0)
(1.01883 0.00511661 0)
(1.01688 0.00494314 0)
(1.01499 0.00470931 0)
(1.01313 0.00452424 0)
(1.01133 0.00419326 0)
(1.00955 0.00401194 0)
(1.00791 0.00376886 0)
(1.00238 0.0218821 0)
(1.02664 0.0275604 0)
(1.041 0.020625 0)
(1.04458 0.0178848 0)
(1.04607 0.0165942 0)
(1.04796 0.0151131 0)
(1.0497 0.0138974 0)
(1.05104 0.0130512 0)
(1.05213 0.0123917 0)
(1.05309 0.0118263 0)
(1.05395 0.0113373 0)
(1.05472 0.0109144 0)
(1.0554 0.010544 0)
(1.056 0.0102145 0)
(1.05651 0.00991793 0)
(1.05693 0.00964839 0)
(1.05727 0.00940143 0)
(1.05752 0.00917341 0)
(1.05767 0.00896138 0)
(1.05772 0.00876294 0)
(1.05768 0.00857614 0)
(1.05754 0.00839936 0)
(1.05731 0.00823128 0)
(1.05699 0.00807081 0)
(1.05657 0.00791703 0)
(1.05606 0.00776916 0)
(1.05548 0.00762655 0)
(1.05481 0.00748859 0)
(1.05407 0.00735472 0)
(1.05325 0.00722443 0)
(1.05237 0.00709711 0)
(1.05143 0.00697235 0)
(1.05043 0.0068493 0)
(1.04937 0.00672779 0)
(1.04828 0.0066064 0)
(1.04713 0.00648556 0)
(1.04596 0.00636259 0)
(1.04475 0.00623917 0)
(1.04351 0.00611057 0)
(1.04225 0.00597993 0)
(1.04098 0.00584075 0)
(1.0397 0.00569508 0)
(1.03841 0.00554033 0)
(1.03713 0.00536506 0)
(1.03585 0.00519125 0)
(1.03459 0.00495994 0)
(1.03335 0.00476419 0)
(1.03214 0.00445235 0)
(1.03093 0.00424376 0)
(1.02985 0.00402094 0)
(1.0021 0.0200678 0)
(1.02431 0.02645 0)
(1.03827 0.0201271 0)
(1.04206 0.0174729 0)
(1.04356 0.0163309 0)
(1.04543 0.0149579 0)
(1.04717 0.0137687 0)
(1.04851 0.0129331 0)
(1.04959 0.0122884 0)
(1.05053 0.0117353 0)
(1.05138 0.0112548 0)
(1.05215 0.0108387 0)
(1.05285 0.0104746 0)
(1.05349 0.0101512 0)
(1.05407 0.00986068 0)
(1.05459 0.00959744 0)
(1.05506 0.0093571 0)
(1.05547 0.00913608 0)
(1.05582 0.00893148 0)
(1.05612 0.00874087 0)
(1.05636 0.00856227 0)
(1.05654 0.00839401 0)
(1.05666 0.00823471 0)
(1.05672 0.00808322 0)
(1.05672 0.00793854 0)
(1.05667 0.00779986 0)
(1.05655 0.00766645 0)
(1.05638 0.00753765 0)
(1.05616 0.00741286 0)
(1.05588 0.00729153 0)
(1.05555 0.00717301 0)
(1.05518 0.00705684 0)
(1.05475 0.00694214 0)
(1.05429 0.00682869 0)
(1.05378 0.00671508 0)
(1.05323 0.00660156 0)
(1.05265 0.00648567 0)
(1.05203 0.00636857 0)
(1.05139 0.00624624 0)
(1.05072 0.00612059 0)
(1.05004 0.00598679 0)
(1.04933 0.0058445 0)
(1.04862 0.0056937 0)
(1.04789 0.00552066 0)
(1.04717 0.00534725 0)
(1.04645 0.00512053 0)
(1.04572 0.00491674 0)
(1.04502 0.00462217 0)
(1.04432 0.00439349 0)
(1.04372 0.00417293 0)
(1.00185 0.0183612 0)
(1.02211 0.0253309 0)
(1.03564 0.0196436 0)
(1.03962 0.0170631 0)
(1.04115 0.0160535 0)
(1.04298 0.0147946 0)
(1.04473 0.0136374 0)
(1.04607 0.0128128 0)
(1.04713 0.0121829 0)
(1.04806 0.0116427 0)
(1.0489 0.011171 0)
(1.04966 0.0107614 0)
(1.05035 0.0104028 0)
(1.05099 0.0100844 0)
(1.05158 0.00979838 0)
(1.05212 0.00953943 0)
(1.05262 0.00930328 0)
(1.05308 0.00908649 0)
(1.0535 0.00888621 0)
(1.05389 0.00870009 0)
(1.05424 0.00852615 0)
(1.05456 0.00836275 0)
(1.05483 0.0082085 0)
(1.05508 0.00806223 0)
(1.05528 0.00792294 0)
(1.05545 0.00778979 0)
(1.05559 0.00766202 0)
(1.05569 0.00753898 0)
(1.05576 0.00742001 0)
(1.05579 0.00730455 0)
(1.05578 0.00719192 0)
(1.05575 0.00708163 0)
(1.05568 0.0069728 0)
(1.05558 0.0068651 0)
(1.05545 0.00675718 0)
(1.05529 0.0066491 0)
(1.0551 0.00653862 0)
(1.05489 0.0064264 0)
(1.05465 0.00630908 0)
(1.0544 0.00618744 0)
(1.05413 0.00605807 0)
(1.05384 0.00591875 0)
(1.05354 0.0057712 0)
(1.05322 0.00560069 0)
(1.05291 0.00542742 0)
(1.05259 0.00520577 0)
(1.05227 0.00499565 0)
(1.05196 0.00471508 0)
(1.05165 0.00447103 0)
(1.05144 0.00424061 0)
(1.00162 0.016762 0)
(1.02004 0.0242075 0)
(1.03311 0.0191706 0)
(1.03727 0.0166572 0)
(1.03883 0.0157631 0)
(1.04063 0.0146225 0)
(1.04237 0.0135032 0)
(1.04371 0.0126902 0)
(1.04477 0.012075 0)
(1.04569 0.0115484 0)
(1.04651 0.011086 0)
(1.04726 0.0106831 0)
(1.04794 0.01033 0)
(1.04857 0.0100164 0)
(1.04914 0.00973452 0)
(1.04968 0.00947921 0)
(1.05018 0.00924638 0)
(1.05065 0.00903267 0)
(1.05108 0.00883534 0)
(1.05149 0.00865209 0)
(1.05188 0.008481 0)
(1.05224 0.00832045 0)
(1.05257 0.00816908 0)
(1.05289 0.00802575 0)
(1.05318 0.00788945 0)
(1.05345 0.00775937 0)
(1.05369 0.00763474 0)
(1.05392 0.00751491 0)
(1.05413 0.00739924 0)
(1.05431 0.00728715 0)
(1.05447 0.00717795 0)
(1.05462 0.00707115 0)
(1.05474 0.00696585 0)
(1.05484 0.00686168 0)
(1.05493 0.00675731 0)
(1.05499 0.00665265 0)
(1.05504 0.00654566 0)
(1.05507 0.00643655 0)
(1.05508 0.00632255 0)
(1.05509 0.00620349 0)
(1.05507 0.00607705 0)
(1.05505 0.00593972 0)
(1.05502 0.00579411 0)
(1.05498 0.00562561 0)
(1.05494 0.00545168 0)
(1.0549 0.00523447 0)
(1.05485 0.00501899 0)
(1.05482 0.00474847 0)
(1.05479 0.00449183 0)
(1.05484 0.00424382 0)
(1.00142 0.0152696 0)
(1.01812 0.0230837 0)
(1.03068 0.0187039 0)
(1.03501 0.0162565 0)
(1.03661 0.0154611 0)
(1.03837 0.0144411 0)
(1.0401 0.0133659 0)
(1.04145 0.0125652 0)
(1.0425 0.0119646 0)
(1.0434 0.0114523 0)
(1.04422 0.0109997 0)
(1.04495 0.0106038 0)
(1.04562 0.0102565 0)
(1.04623 0.00994767 0)
(1.0468 0.00966998 0)
(1.04732 0.00941823 0)
(1.04781 0.00918849 0)
(1.04827 0.00897754 0)
(1.04871 0.00878269 0)
(1.04912 0.0086017 0)
(1.0495 0.0084327 0)
(1.04987 0.00827411 0)
(1.05022 0.00812461 0)
(1.05055 0.00798305 0)
(1.05087 0.00784849 0)
(1.05117 0.0077201 0)
(1.05146 0.00759715 0)
(1.05173 0.00747901 0)
(1.05199 0.00736504 0)
(1.05224 0.00725468 0)
(1.05248 0.00714725 0)
(1.0527 0.00704223 0)
(1.05292 0.00693876 0)
(1.05312 0.00683641 0)
(1.05331 0.00673392 0)
(1.05349 0.00663102 0)
(1.05366 0.00652589 0)
(1.05381 0.00641834 0)
(1.05397 0.0063061 0)
(1.05411 0.00618826 0)
(1.05424 0.00606328 0)
(1.05437 0.00592683 0)
(1.0545 0.00578181 0)
(1.05462 0.00561446 0)
(1.05474 0.00543898 0)
(1.05487 0.00522504 0)
(1.05499 0.00500471 0)
(1.05512 0.00474027 0)
(1.05527 0.00447254 0)
(1.05549 0.00420262 0)
(1.00124 0.0138826 0)
(1.01633 0.0219636 0)
(1.02836 0.0182399 0)
(1.03284 0.0158623 0)
(1.03448 0.0151491 0)
(1.0362 0.0142499 0)
(1.03791 0.013225 0)
(1.03927 0.012438 0)
(1.04032 0.0118517 0)
(1.04121 0.011354 0)
(1.04201 0.010912 0)
(1.04274 0.0105235 0)
(1.0434 0.0101821 0)
(1.044 0.00987829 0)
(1.04455 0.00960488 0)
(1.04506 0.00935677 0)
(1.04554 0.00913017 0)
(1.04599 0.00892194 0)
(1.04641 0.00872948 0)
(1.04681 0.00855059 0)
(1.04719 0.00838345 0)
(1.04756 0.00822651 0)
(1.0479 0.00807847 0)
(1.04823 0.00793823 0)
(1.04855 0.00780484 0)
(1.04886 0.00767752 0)
(1.04915 0.00755555 0)
(1.04944 0.00743831 0)
(1.04972 0.0073252 0)
(1.04999 0.00721566 0)
(1.05025 0.00710904 0)
(1.0505 0.00700482 0)
(1.05075 0.00690214 0)
(1.05099 0.00680054 0)
(1.05122 0.00669883 0)
(1.05145 0.00659658 0)
(1.05168 0.00649219 0)
(1.05189 0.00638511 0)
(1.05211 0.00627349 0)
(1.05232 0.00615585 0)
(1.05253 0.00603117 0)
(1.05273 0.00589473 0)
(1.05294 0.00574918 0)
(1.05314 0.00558219 0)
(1.05335 0.00540448 0)
(1.05356 0.00519249 0)
(1.05377 0.00496768 0)
(1.054 0.00470583 0)
(1.05424 0.00442777 0)
(1.05456 0.00413433 0)
(1.00107 0.0125988 0)
(1.01467 0.0208513 0)
(1.02616 0.0177751 0)
(1.03075 0.0154755 0)
(1.03244 0.0148289 0)
(1.03412 0.0140483 0)
(1.03582 0.0130801 0)
(1.03718 0.0123085 0)
(1.03822 0.0117362 0)
(1.03911 0.0112536 0)
(1.0399 0.0108228 0)
(1.04062 0.010442 0)
(1.04126 0.0101067 0)
(1.04185 0.00980816 0)
(1.0424 0.00953919 0)
(1.0429 0.00929485 0)
(1.04337 0.00907148 0)
(1.0438 0.00886604 0)
(1.04422 0.008676 0)
(1.04461 0.00849922 0)
(1.04498 0.00833391 0)
(1.04533 0.00817855 0)
(1.04567 0.00803187 0)
(1.04599 0.00789279 0)
(1.0463 0.00776038 0)
(1.0466 0.00763388 0)
(1.04689 0.0075126 0)
(1.04718 0.00739595 0)
(1.04746 0.00728332 0)
(1.04773 0.0071742 0)
(1.04799 0.00706793 0)
(1.04825 0.00696399 0)
(1.04851 0.00686158 0)
(1.04876 0.00676016 0)
(1.04901 0.00665862 0)
(1.04925 0.00655642 0)
(1.04949 0.0064521 0)
(1.04973 0.00634485 0)
(1.04997 0.00623313 0)
(1.05021 0.00611507 0)
(1.05044 0.00598993 0)
(1.05068 0.00585292 0)
(1.05092 0.00570615 0)
(1.05116 0.00553889 0)
(1.0514 0.0053586 0)
(1.05165 0.00514743 0)
(1.05191 0.00491846 0)
(1.05218 0.00465646 0)
(1.05246 0.0043686 0)
(1.05282 0.00405193 0)
(1.00093 0.0114156 0)
(1.01314 0.0197507 0)
(1.02406 0.0173064 0)
(1.02875 0.0150965 0)
(1.0305 0.0145025 0)
(1.03214 0.0138361 0)
(1.03382 0.0129304 0)
(1.03518 0.0121768 0)
(1.03622 0.0116181 0)
(1.0371 0.0111509 0)
(1.03788 0.0107319 0)
(1.03859 0.0103593 0)
(1.03922 0.0100303 0)
(1.0398 0.00973719 0)
(1.04034 0.00947284 0)
(1.04083 0.00923241 0)
(1.04129 0.00901237 0)
(1.04171 0.00880981 0)
(1.04212 0.00862227 0)
(1.0425 0.00844765 0)
(1.04286 0.00828421 0)
(1.0432 0.00813045 0)
(1.04353 0.00798513 0)
(1.04384 0.00784718 0)
(1.04415 0.00771572 0)
(1.04444 0.00758998 0)
(1.04472 0.0074693 0)
(1.045 0.00735311 0)
(1.04527 0.00724083 0)
(1.04554 0.00713195 0)
(1.0458 0.00702585 0)
(1.04605 0.006922 0)
(1.04631 0.00681961 0)
(1.04656 0.00671811 0)
(1.0468 0.00661647 0)
(1.04705 0.00651402 0)
(1.04729 0.00640944 0)
(1.04753 0.00630172 0)
(1.04778 0.00618952 0)
(1.04802 0.00607073 0)
(1.04826 0.00594472 0)
(1.04851 0.00580685 0)
(1.04875 0.00565849 0)
(1.04901 0.00549056 0)
(1.04926 0.00530765 0)
(1.04952 0.0050964 0)
(1.04979 0.00486366 0)
(1.05007 0.00459958 0)
(1.05037 0.00430243 0)
(1.05073 0.00396413 0)
(1.0008 0.0103299 0)
(1.01174 0.0186661 0)
(1.02207 0.0168312 0)
(1.02683 0.0147259 0)
(1.02865 0.014172 0)
(1.03025 0.0136133 0)
(1.0319 0.0127755 0)
(1.03326 0.0120428 0)
(1.03431 0.0114975 0)
(1.03518 0.0110456 0)
(1.03595 0.0106392 0)
(1.03665 0.0102752 0)
(1.03728 0.00995286 0)
(1.03785 0.00966531 0)
(1.03837 0.00940574 0)
(1.03885 0.00916937 0)
(1.0393 0.00895279 0)
(1.03972 0.00875321 0)
(1.04011 0.00856825 0)
(1.04048 0.00839586 0)
(1.04083 0.00823434 0)
(1.04117 0.00808222 0)
(1.04149 0.00793829 0)
(1.04179 0.0078015 0)
(1.04209 0.00767098 0)
(1.04237 0.007546 0)
(1.04265 0.00742591 0)
(1.04292 0.00731016 0)
(1.04318 0.0071982 0)
(1.04344 0.00708952 0)
(1.04369 0.00698352 0)
(1.04394 0.00687968 0)
(1.04419 0.00677724 0)
(1.04443 0.00667558 0)
(1.04468 0.00657372 0)
(1.04492 0.00647091 0)
(1.04515 0.00636594 0)
(1.04539 0.00625763 0)
(1.04563 0.00614477 0)
(1.04587 0.00602516 0)
(1.04611 0.00589808 0)
(1.04635 0.00575924 0)
(1.0466 0.00560918 0)
(1.04685 0.00544036 0)
(1.0471 0.00525496 0)
(1.04736 0.00504302 0)
(1.04762 0.00480691 0)
(1.0479 0.00453954 0)
(1.0482 0.00423375 0)
(1.04855 0.00387629 0)
(1.00069 0.00933771 0)
(1.01046 0.0176016 0)
(1.0202 0.0163471 0)
(1.025 0.0143633 0)
(1.02689 0.0138393 0)
(1.02845 0.0133799 0)
(1.03007 0.0126147 0)
(1.03144 0.0119064 0)
(1.03249 0.0113743 0)
(1.03335 0.0109379 0)
(1.03411 0.0105445 0)
(1.0348 0.0101897 0)
(1.03542 0.00987421 0)
(1.03598 0.00959244 0)
(1.0365 0.00933782 0)
(1.03697 0.00910566 0)
(1.03741 0.00889267 0)
(1.03782 0.00869617 0)
(1.0382 0.00851387 0)
(1.03857 0.00834379 0)
(1.03891 0.00818425 0)
(1.03923 0.00803383 0)
(1.03954 0.00789132 0)
(1.03984 0.00775573 0)
(1.04013 0.00762618 0)
(1.0404 0.00750197 0)
(1.04067 0.00738248 0)
(1.04094 0.00726718 0)
(1.04119 0.00715553 0)
(1.04144 0.00704705 0)
(1.04169 0.00694115 0)
(1.04193 0.00683731 0)
(1.04217 0.00673479 0)
(1.04241 0.00663295 0)
(1.04264 0.00653085 0)
(1.04288 0.00642765 0)
(1.04311 0.00632224 0)
(1.04334 0.00621332 0)
(1.04357 0.00609975 0)
(1.0438 0.0059793 0)
(1.04404 0.00585112 0)
(1.04427 0.00571128 0)
(1.04451 0.00555958 0)
(1.04475 0.00538975 0)
(1.045 0.00520213 0)
(1.04525 0.0049891 0)
(1.0455 0.00474999 0)
(1.04577 0.00447874 0)
(1.04606 0.00416511 0)
(1.04639 0.00379146 0)
(1.0006 0.00843481 0)
(1.0093 0.0165611 0)
(1.01844 0.0158523 0)
(1.02326 0.0140087 0)
(1.02522 0.0135062 0)
(1.02674 0.0131366 0)
(1.02834 0.0124475 0)
(1.0297 0.0117673 0)
(1.03075 0.0112487 0)
(1.03161 0.0108274 0)
(1.03236 0.0104477 0)
(1.03304 0.0101026 0)
(1.03365 0.00979428 0)
(1.03421 0.00951848 0)
(1.03471 0.00926899 0)
(1.03518 0.0090412 0)
(1.03561 0.00883193 0)
(1.03601 0.00863862 0)
(1.03639 0.00845908 0)
(1.03674 0.00829137 0)
(1.03708 0.00813388 0)
(1.03739 0.00798521 0)
(1.0377 0.00784418 0)
(1.03799 0.00770981 0)
(1.03827 0.00758127 0)
(1.03853 0.00745786 0)
(1.0388 0.00733899 0)
(1.03905 0.00722415 0)
(1.0393 0.00711283 0)
(1.03954 0.00700455 0)
(1.03978 0.00689877 0)
(1.04002 0.00679493 0)
(1.04025 0.00669233 0)
(1.04048 0.00659032 0)
(1.04071 0.00648798 0)
(1.04093 0.00638441 0)
(1.04116 0.00627855 0)
(1.04138 0.00616905 0)
(1.04161 0.00605477 0)
(1.04183 0.00593352 0)
(1.04206 0.00580427 0)
(1.04229 0.00566345 0)
(1.04251 0.00551023 0)
(1.04275 0.00533936 0)
(1.04298 0.00514981 0)
(1.04322 0.00493548 0)
(1.04347 0.00469375 0)
(1.04373 0.00441849 0)
(1.044 0.004098 0)
(1.0443 0.00371131 0)
(1.00051 0.0076164 0)
(1.00825 0.0155486 0)
(1.0168 0.0153456 0)
(1.0216 0.0136612 0)
(1.02363 0.0131747 0)
(1.02513 0.012884 0)
(1.02668 0.0122732 0)
(1.02804 0.0116254 0)
(1.02909 0.0111206 0)
(1.02995 0.0107143 0)
(1.0307 0.0103486 0)
(1.03137 0.0100138 0)
(1.03197 0.00971296 0)
(1.03252 0.00944333 0)
(1.03302 0.00919916 0)
(1.03348 0.0089759 0)