/*--------------------------------*- C++ -*----------------------------------*\
  =========                 |
  \\      /  F ield         | OpenFOAM: The Open Source CFD Toolbox
   \\    /   O peration     | Website:  https://openfoam.org
    \\  /    A nd           | Version:  7
     \\/     M anipulation  |
\*---------------------------------------------------------------------------*/
FoamFile
{
    version     2.0;
    format      ascii;
    class       volVectorField;
    location    "0.24";
    object      U_0;
}
// * * * * * * * * * * * * * * * * * * * * * * * * * * * * * * * * * * * * * //

dimensions      [0 1 -1 0 0 0 0];

internalField   nonuniform List<vector> 
70000
(
(0.553414 0.0169781 0)
(0.25142 0.0034004 0)
(0.165932 0.000318964 0)
(0.132452 4.90226e-05 0)
(0.117349 4.40718e-05 0)
(0.107393 5.22348e-05 0)
(0.099424 4.4432e-05 0)
(0.0929824 3.53527e-05 0)
(0.0877405 2.93121e-05 0)
(0.0833736 2.5171e-05 0)
(0.0796537 2.20051e-05 0)
(0.0764333 1.94657e-05 0)
(0.0736113 1.73934e-05 0)
(0.0711135 1.56795e-05 0)
(0.0688838 1.42434e-05 0)
(0.0668788 1.30254e-05 0)
(0.0650642 1.19812e-05 0)
(0.0634129 1.10771e-05 0)
(0.0619027 1.02872e-05 0)
(0.0605155 9.59169e-06 0)
(0.0592364 8.97443e-06 0)
(0.0580529 8.42281e-06 0)
(0.0569545 7.9264e-06 0)
(0.0559324 7.47687e-06 0)
(0.0549788 7.0669e-06 0)
(0.0540872 6.69106e-06 0)
(0.0532521 6.3435e-06 0)
(0.0524686 6.02106e-06 0)
(0.0517324 5.71802e-06 0)
(0.0510397 5.43366e-06 0)
(0.0503876 5.16068e-06 0)
(0.0497731 4.90192e-06 0)
(0.0491939 4.64645e-06 0)
(0.048648 4.40099e-06 0)
(0.0481335 4.15302e-06 0)
(0.0476494 3.90363e-06 0)
(0.0471935 3.66182e-06 0)
(0.0467675 3.37197e-06 0)
(0.0463656 3.1655e-06 0)
(0.0459978 2.74061e-06 0)
(0.0456452 2.68992e-06 0)
(0.0453422 1.88163e-06 0)
(0.045031 2.34628e-06 0)
(0.0448104 5.27225e-07 0)
(0.0445247 2.48555e-06 0)
(0.0444207 -1.97889e-06 0)
(0.0441345 4.39001e-06 0)
(0.0441629 -7.5293e-06 0)
(0.0441116 2.52995e-05 0)
(0.0404368 -0.00162436 0)
(0.884863 0.0434931 0)
(0.650153 0.0201487 0)
(0.493991 0.00660449 0)
(0.403577 0.00275468 0)
(0.354872 0.00154794 0)
(0.323561 0.00113172 0)
(0.299665 0.000909356 0)
(0.280458 0.00074481 0)
(0.264746 0.000622148 0)
(0.251626 0.000531683 0)
(0.240446 0.000462993 0)
(0.230767 0.000408921 0)
(0.222282 0.000365217 0)
(0.214768 0.000329233 0)
(0.208058 0.000299167 0)
(0.202021 0.000273726 0)
(0.196555 0.000251955 0)
(0.191579 0.000233138 0)
(0.187025 0.00021673 0)
(0.182841 0.000202306 0)
(0.17898 0.000189534 0)
(0.175407 0.000178148 0)
(0.172088 0.000167934 0)
(0.168998 0.000158717 0)
(0.166114 0.000150354 0)
(0.163415 0.000142725 0)
(0.160885 0.000135728 0)
(0.158509 0.000129278 0)
(0.156274 0.000123297 0)
(0.154169 0.000117725 0)
(0.152184 0.000112492 0)
(0.150311 0.000107564 0)
(0.148543 0.00010286 0)
(0.146871 9.83784e-05 0)
(0.145292 9.40089e-05 0)
(0.143802 8.97886e-05 0)
(0.142393 8.55665e-05 0)
(0.141069 8.1397e-05 0)
(0.139814 7.71584e-05 0)
(0.138654 7.27152e-05 0)
(0.137538 6.84078e-05 0)
(0.136556 6.3022e-05 0)
(0.135554 5.90492e-05 0)
(0.134792 5.1006e-05 0)
(0.133863 4.95675e-05 0)
(0.133405 3.31862e-05 0)
(0.132495 4.71244e-05 0)
(0.132358 -2.36963e-05 0)
(0.132037 0.000262251 0)
(0.12754 -0.00265341 0)
(0.991208 0.0499553 0)
(0.890929 0.0305622 0)
(0.762508 0.01461 0)
(0.656562 0.0079705 0)
(0.585465 0.00487956 0)
(0.536099 0.00347473 0)
(0.498206 0.00273875 0)
(0.467574 0.00224464 0)
(0.442255 0.00188106 0)
(0.420941 0.00160955 0)
(0.402684 0.0014022 0)
(0.386817 0.00123897 0)
(0.372864 0.00110712 0)
(0.360477 0.000998562 0)
(0.349389 0.000907834 0)
(0.339396 0.000831033 0)
(0.330332 0.000765293 0)
(0.322068 0.000708461 0)
(0.314496 0.000658893 0)
(0.30753 0.000615318 0)
(0.301096 0.000576732 0)
(0.295134 0.000542338 0)
(0.289593 0.000511492 0)
(0.284428 0.000483671 0)
(0.279602 0.000458443 0)
(0.275083 0.000435447 0)
(0.270843 0.00041438 0)
(0.266857 0.000394985 0)
(0.263104 0.000377036 0)
(0.259565 0.000360348 0)
(0.256225 0.000344728 0)
(0.253069 0.000330055 0)
(0.250084 0.000316127 0)
(0.24726 0.000302903 0)
(0.244586 0.000290102 0)
(0.242056 0.000277829 0)
(0.239659 0.0002656 0)
(0.237398 0.000253783 0)
(0.23525 0.000241539 0)
(0.23325 0.000229563 0)
(0.231323 0.000216741 0)
(0.229599 0.000203511 0)
(0.227855 0.000190086 0)
(0.226461 0.000172667 0)
(0.224839 0.000161875 0)
(0.223886 0.000128585 0)
(0.22232 0.000147997 0)
(0.221826 -3.96094e-06 0)
(0.220887 0.000423134 0)
(0.217687 -0.00258585 0)
(1.01554 0.0489533 0)
(1.0065 0.0357233 0)
(0.935901 0.0208182 0)
(0.85204 0.0134978 0)
(0.782276 0.00919779 0)
(0.727134 0.00678367 0)
(0.682047 0.00538792 0)
(0.644284 0.00444705 0)
(0.612264 0.00375266 0)
(0.584793 0.00322696 0)
(0.560933 0.00282087 0)
(0.539979 0.00249902 0)
(0.521401 0.00223792 0)
(0.504797 0.0020222 0)
(0.489854 0.00184137 0)
(0.476322 0.00168789 0)
(0.464001 0.00155622 0)
(0.452728 0.00144219 0)
(0.442369 0.00134257 0)
(0.432814 0.00125488 0)
(0.423968 0.00117714 0)
(0.415754 0.00110779 0)
(0.408105 0.00104554 0)
(0.400962 0.000989375 0)
(0.394278 0.000938423 0)
(0.388009 0.000891975 0)
(0.382118 0.000849429 0)
(0.376572 0.000810274 0)
(0.371343 0.000774063 0)
(0.366407 0.000740423 0)
(0.361741 0.00070899 0)
(0.357324 0.000679504 0)
(0.353142 0.000651599 0)
(0.349178 0.000625166 0)
(0.345419 0.000599692 0)
(0.341855 0.000575372 0)
(0.338471 0.000551246 0)
(0.335271 0.000528179 0)
(0.332223 0.00050419 0)
(0.329369 0.000481466 0)
(0.32662 0.000456238 0)
(0.324124 0.000432433 0)
(0.321625 0.000405036 0)
(0.319544 0.000376147 0)
(0.317222 0.000350354 0)
(0.315672 0.000298251 0)
(0.313455 0.000315081 0)
(0.312478 9.25881e-05 0)
(0.310762 0.000548458 0)
(0.308424 -0.00212761 0)
(1.01435 0.0460976 0)
(1.04798 0.03734 0)
(1.02458 0.0241853 0)
(0.974703 0.0175564 0)
(0.92352 0.0131085 0)
(0.876802 0.0102055 0)
(0.834646 0.00834611 0)
(0.796903 0.00702384 0)
(0.763348 0.00601334 0)
(0.733537 0.00522599 0)
(0.706958 0.00460418 0)
(0.68314 0.00410353 0)
(0.661685 0.0036926 0)
(0.642263 0.00334996 0)
(0.624596 0.00306056 0)
(0.608455 0.00281339 0)
(0.593649 0.00260024 0)
(0.580015 0.00241479 0)
(0.567416 0.00225218 0)
(0.555738 0.00210856 0)
(0.544881 0.00198088 0)
(0.53476 0.00186669 0)
(0.525303 0.001764 0)
(0.516445 0.00167117 0)
(0.508131 0.00158683 0)
(0.500314 0.00150985 0)
(0.49295 0.00143927 0)
(0.486003 0.00137427 0)
(0.479439 0.00131414 0)
(0.473228 0.00125827 0)
(0.467347 0.00120608 0)
(0.46177 0.00115715 0)
(0.456478 0.00111091 0)
(0.451453 0.00106715 0)
(0.446678 0.00102511 0)
(0.442142 0.00098506 0)
(0.437826 0.00094549 0)
(0.433733 0.000907844 0)
(0.429829 0.000868793 0)
(0.426154 0.000832301 0)
(0.422617 0.000791426 0)
(0.419365 0.000754318 0)
(0.41614 0.000709611 0)
(0.413363 0.000666771 0)
(0.410375 0.000622305 0)
(0.408182 0.000549587 0)
(0.405358 0.000555511 0)
(0.403807 0.000278783 0)
(0.401415 0.000703425 0)
(0.399142 -0.00158706 0)
(1.00941 0.0430472 0)
(1.05564 0.0370952 0)
(1.05868 0.0253263 0)
(1.03632 0.0197607 0)
(1.00716 0.015796 0)
(0.976155 0.0129329 0)
(0.944638 0.0109623 0)
(0.91378 0.00947972 0)
(0.884435 0.00828888 0)
(0.856985 0.00732147 0)
(0.831507 0.00653192 0)
(0.807939 0.00587979 0)
(0.78616 0.00533373 0)
(0.766029 0.00487102 0)
(0.747398 0.00447498 0)
(0.730129 0.00413301 0)
(0.71409 0.00383532 0)
(0.699165 0.00357428 0)
(0.685247 0.00334381 0)
(0.672242 0.00313906 0)
(0.660066 0.00295611 0)
(0.648646 0.00279175 0)
(0.637914 0.00264336 0)
(0.627812 0.00250875 0)
(0.618288 0.00238609 0)
(0.609295 0.00227384 0)
(0.600793 0.00217069 0)
(0.592743 0.00207551 0)
(0.585112 0.00198731 0)
(0.577871 0.00190526 0)
(0.570994 0.00182855 0)
(0.564455 0.00175658 0)
(0.558235 0.00168857 0)
(0.552313 0.00162422 0)
(0.546673 0.00156247 0)
(0.5413 0.00150368 0)
(0.536178 0.00144579 0)
(0.531304 0.00139077 0)
(0.526648 0.00133399 0)
(0.522244 0.00128109 0)
(0.518007 0.00122213 0)
(0.51407 0.00116909 0)
(0.510198 0.00110491 0)
(0.506772 0.00104535 0)
(0.503195 0.00098021 0)
(0.500372 0.000884684 0)
(0.497027 0.000873598 0)
(0.494857 0.000554807 0)
(0.491954 0.000921358 0)
(0.48938 -0.000983867 0)
(1.00635 0.0401792 0)
(1.05241 0.0361485 0)
(1.06606 0.0252496 0)
(1.05954 0.0205654 0)
(1.04692 0.0172226 0)
(1.03088 0.0146507 0)
(1.01199 0.0128208 0)
(0.991315 0.0113957 0)
(0.969916 0.0101987 0)
(0.948521 0.00918345 0)
(0.927572 0.00832382 0)
(0.907331 0.00759153 0)
(0.887947 0.00696216 0)
(0.869488 0.00641699 0)
(0.851973 0.00594158 0)
(0.835391 0.00552449 0)
(0.819709 0.00515644 0)
(0.804887 0.00482987 0)
(0.790875 0.00453858 0)
(0.777627 0.00427748 0)
(0.765092 0.00404233 0)
(0.753225 0.00382962 0)
(0.741981 0.00363639 0)
(0.731318 0.00346014 0)
(0.721196 0.00329877 0)
(0.711581 0.00315045 0)
(0.702439 0.00301363 0)
(0.693739 0.00288694 0)
(0.685454 0.0027692 0)
(0.677558 0.00265937 0)
(0.670027 0.00255648 0)
(0.66284 0.00245974 0)
(0.655978 0.00236821 0)
(0.649423 0.00228149 0)
(0.643159 0.00219827 0)
(0.637173 0.00211895 0)
(0.63145 0.002041 0)
(0.625986 0.00196683 0)
(0.620754 0.00189069 0)
(0.615782 0.00181952 0)
(0.610997 0.00174103 0)
(0.606511 0.00167 0)
(0.602124 0.0015853 0)
(0.598158 0.00150653 0)
(0.594111 0.00142005 0)
(0.59074 0.00129953 0)
(0.586989 0.00126751 0)
(0.584238 0.000916846 0)
(0.580958 0.00120861 0)
(0.578029 -0.000324564 0)
(1.00506 0.037502 0)
(1.04763 0.0350502 0)
(1.06396 0.0247021 0)
(1.06419 0.0205964 0)
(1.06071 0.0177607 0)
(1.05482 0.0154915 0)
(1.04607 0.013877 0)
(1.03489 0.0126172 0)
(1.02199 0.0115311 0)
(1.00797 0.0105792 0)
(0.993294 0.00974744 0)
(0.97831 0.00901799 0)
(0.963283 0.00837407 0)
(0.948409 0.00780265 0)
(0.933823 0.00729349 0)
(0.919617 0.00683818 0)
(0.905851 0.00642955 0)
(0.892559 0.0060615 0)
(0.879759 0.00572884 0)
(0.867456 0.0054271 0)
(0.855646 0.00515247 0)
(0.844319 0.0049017 0)
(0.833461 0.00467195 0)
(0.823058 0.00446081 0)
(0.813089 0.00426615 0)
(0.803539 0.00408614 0)
(0.794387 0.00391915 0)
(0.785615 0.00376375 0)
(0.777207 0.00361867 0)
(0.769144 0.00348277 0)
(0.761412 0.00335498 0)
(0.753994 0.00323443 0)
(0.746877 0.00312006 0)
(0.740047 0.0030114 0)
(0.733492 0.00290696 0)
(0.727202 0.00280717 0)
(0.721164 0.00270913 0)
(0.715377 0.00261555 0)
(0.709818 0.00251987 0)
(0.704509 0.00242988 0)
(0.699392 0.00233174 0)
(0.694558 0.00224173 0)
(0.689845 0.0021367 0)
(0.685513 0.00203715 0)
(0.681162 0.00192983 0)
(0.677388 0.00178312 0)
(0.67338 0.00172743 0)
(0.670172 0.00135528 0)
(0.666639 0.00156205 0)
(0.663425 0.000369921 0)
(1.00451 0.0349662 0)
(1.0436 0.0339703 0)
(1.05994 0.0240513 0)
(1.06224 0.020307 0)
(1.06253 0.0178256 0)
(1.06187 0.0157708 0)
(1.05931 0.0143302 0)
(1.05477 0.0132362 0)
(1.04856 0.0122925 0)
(1.04101 0.0114527 0)
(1.03238 0.0107056 0)
(1.02293 0.0100372 0)
(1.01288 0.00943472 0)
(1.00245 0.0088887 0)
(0.991777 0.00839225 0)
(0.981008 0.00793976 0)
(0.970242 0.00752644 0)
(0.959561 0.00714809 0)
(0.949024 0.00680097 0)
(0.938679 0.00648181 0)
(0.928559 0.00618771 0)
(0.918688 0.00591608 0)
(0.90908 0.00566464 0)
(0.899747 0.00543137 0)
(0.890692 0.00521444 0)
(0.881918 0.00501225 0)
(0.873423 0.00482332 0)
(0.865204 0.00464633 0)
(0.857257 0.00448009 0)
(0.849575 0.00432349 0)
(0.842152 0.00417547 0)
(0.834981 0.00403518 0)
(0.828058 0.0039015 0)
(0.821373 0.00377397 0)
(0.814921 0.00365099 0)
(0.808696 0.00353304 0)
(0.802691 0.00341698 0)
(0.796907 0.00330567 0)
(0.791326 0.00319212 0)
(0.785969 0.00308443 0)
(0.780791 0.00296814 0)
(0.775864 0.00285965 0)
(0.771065 0.0027359 0)
(0.766592 0.00261545 0)
(0.762148 0.00248888 0)
(0.758173 0.00231656 0)
(0.754086 0.00223551 0)
(0.750608 0.00185198 0)
(0.746969 0.00197143 0)
(0.743605 0.00107107 0)
(1.00412 0.0325356 0)
(1.04027 0.0329169 0)
(1.05617 0.0234168 0)
(1.05888 0.0199226 0)
(1.06026 0.0176966 0)
(1.06164 0.0157735 0)
(1.06202 0.0144343 0)
(1.06114 0.0134555 0)
(1.05909 0.0126278 0)
(1.05598 0.0118938 0)
(1.0519 0.0112398 0)
(1.04696 0.0106516 0)
(1.04129 0.0101161 0)
(1.03502 0.00962469 0)
(1.02826 0.0091715 0)
(1.02112 0.0087523 0)
(1.01369 0.00836365 0)
(1.00607 0.00800266 0)
(0.99833 0.00766679 0)
(0.990521 0.00735381 0)
(0.982698 0.00706171 0)
(0.974903 0.00678871 0)
(0.967169 0.00653316 0)
(0.959525 0.00629359 0)
(0.951991 0.00606864 0)
(0.944585 0.00585705 0)
(0.93732 0.00565767 0)
(0.930205 0.00546942 0)
(0.923249 0.00529129 0)
(0.916455 0.00512234 0)
(0.909828 0.00496162 0)
(0.90337 0.00480836 0)
(0.897082 0.00466151 0)
(0.890964 0.00452064 0)
(0.885017 0.00438414 0)
(0.87924 0.00425255 0)
(0.873632 0.00412262 0)
(0.868196 0.00399728 0)
(0.862923 0.00386939 0)
(0.857831 0.00374693 0)
(0.852888 0.00361565 0)
(0.848151 0.0034909 0)
(0.843532 0.00335148 0)
(0.839176 0.00321176 0)
(0.834875 0.00306855 0)
(0.830936 0.0028733 0)
(0.826971 0.00276658 0)
(0.823451 0.00238072 0)
(0.819877 0.00241801 0)
(0.816542 0.00174945 0)
(1.00374 0.0302013 0)
(1.03727 0.0318677 0)
(1.05284 0.0228134 0)
(1.05564 0.0195205 0)
(1.05717 0.0175063 0)
(1.0591 0.0156719 0)
(1.06055 0.0143803 0)
(1.06125 0.013465 0)
(1.06126 0.0127108 0)
(1.06062 0.0120509 0)
(1.05933 0.0114693 0)
(1.05739 0.0109501 0)
(1.05484 0.0104791 0)
(1.05174 0.0100462 0)
(1.04813 0.00964523 0)
(1.04407 0.00927171 0)
(1.03964 0.00892246 0)
(1.03489 0.00859491 0)
(1.02987 0.00828701 0)
(1.02464 0.00799703 0)
(1.01925 0.00772351 0)
(1.01372 0.00746514 0)
(1.00811 0.0072208 0)
(1.00245 0.00698944 0)
(0.996754 0.0067701 0)
(0.991056 0.00656189 0)
(0.985375 0.00636398 0)
(0.979728 0.00617555 0)
(0.97413 0.00599584 0)
(0.968593 0.00582409 0)
(0.963127 0.00565953 0)
(0.957742 0.00550151 0)
(0.952446 0.00534908 0)
(0.947243 0.00520192 0)
(0.94214 0.00505846 0)
(0.937141 0.00491929 0)
(0.93225 0.00478117 0)
(0.927474 0.00464699 0)
(0.922809 0.00450975 0)
(0.918272 0.00437695 0)
(0.913844 0.00423522 0)
(0.909568 0.00409792 0)
(0.905386 0.00394704 0)
(0.901399 0.00379141 0)
(0.897475 0.00363498 0)
(0.893813 0.00342138 0)
(0.890173 0.00329018 0)
(0.886844 0.00291007 0)
(0.883518 0.00287438 0)
(0.8804 0.00237993 0)
(1.00337 0.0279657 0)
(1.03443 0.0308106 0)
(1.04973 0.0222349 0)
(1.05268 0.0191157 0)
(1.05417 0.0172975 0)
(1.05616 0.0155411 0)
(1.05788 0.0142716 0)
(1.0591 0.0133871 0)
(1.05992 0.0126735 0)
(1.06039 0.0120569 0)
(1.06049 0.0115202 0)
(1.06019 0.0110477 0)
(1.05949 0.0106239 0)
(1.05839 0.0102375 0)
(1.0569 0.00988131 0)
(1.05505 0.0095502 0)
(1.05285 0.00924045 0)
(1.05034 0.00894924 0)
(1.04755 0.00867436 0)
(1.04451 0.00841408 0)
(1.04124 0.00816699 0)
(1.03779 0.00793195 0)
(1.03417 0.007708 0)
(1.03042 0.00749429 0)
(1.02655 0.0072901 0)
(1.0226 0.00709475 0)
(1.01858 0.0069076 0)
(1.01451 0.00672806 0)
(1.0104 0.00655553 0)
(1.00628 0.00638943 0)
(1.00215 0.00622912 0)
(0.998027 0.00607409 0)
(0.99392 0.00592349 0)
(0.98984 0.00577708 0)
(0.985793 0.00563336 0)
(0.98179 0.00549297 0)
(0.977834 0.00535276 0)
(0.973937 0.00521545 0)
(0.970098 0.00507444 0)
(0.966335 0.00493641 0)
(0.962636 0.00478941 0)
(0.959034 0.00464417 0)
(0.955495 0.00448664 0)
(0.952087 0.0043196 0)
(0.948732 0.00415388 0)
(0.945552 0.00392771 0)
(0.942412 0.00377468 0)
(0.939478 0.00340687 0)
(0.936568 0.0033098 0)
(0.933838 0.00293835 0)
(1.00301 0.0258325 0)
(1.03171 0.0297412 0)
(1.04674 0.0216776 0)
(1.04988 0.018708 0)
(1.05135 0.0170769 0)
(1.0533 0.0154034 0)
(1.05506 0.0141492 0)
(1.05639 0.0132809 0)
(1.05745 0.0125903 0)
(1.05831 0.0119975 0)
(1.05897 0.0114853 0)
(1.05941 0.0110395 0)
(1.05961 0.0106444 0)
(1.05958 0.0102882 0)
(1.05929 0.00996299 0)
(1.05876 0.00966307 0)
(1.05798 0.0093842 0)
(1.05697 0.0091231 0)
(1.05572 0.0088772 0)
(1.05426 0.00864451 0)
(1.0526 0.00842342 0)
(1.05075 0.00821268 0)
(1.04873 0.00801124 0)
(1.04656 0.00781826 0)
(1.04425 0.00763302 0)
(1.04182 0.00745489 0)
(1.03929 0.00728333 0)
(1.03666 0.00711779 0)
(1.03395 0.00695778 0)
(1.03118 0.00680279 0)
(1.02836 0.00665227 0)
(1.02549 0.00650579 0)
(1.02259 0.00636254 0)
(1.01967 0.00622236 0)
(1.01673 0.0060838 0)
(1.01379 0.00594748 0)
(1.01085 0.00581039 0)
(1.00792 0.00567501 0)
(1.00501 0.00553526 0)
(1.00213 0.00539679 0)
(0.999272 0.00524936 0)
(0.996464 0.00510078 0)
(0.993688 0.00494116 0)
(0.990987 0.00476755 0)
(0.988322 0.00459639 0)
(0.985762 0.00436365 0)
(0.983239 0.00419246 0)
(0.980842 0.00384147 0)
(0.978469 0.0036956 0)
(0.976252 0.00340406 0)
(1.00268 0.023804 0)
(1.02911 0.0286581 0)
(1.04382 0.021141 0)
(1.04719 0.0182971 0)
(1.04866 0.0168429 0)
(1.05058 0.0152612 0)
(1.05233 0.0140241 0)
(1.05367 0.0131673 0)
(1.05477 0.0124931 0)
(1.05572 0.0119152 0)
(1.05655 0.0114168 0)
(1.05725 0.0109853 0)
(1.05782 0.0106059 0)
(1.05825 0.0102669 0)
(1.05854 0.0099601 0)
(1.05868 0.0096796 0)
(1.05867 0.00942092 0)
(1.05851 0.00918049 0)
(1.05818 0.00895547 0)
(1.05771 0.00874359 0)
(1.05709 0.00854303 0)
(1.05632 0.00835232 0)
(1.05541 0.00817026 0)
(1.05438 0.00799589 0)
(1.05322 0.0078284 0)
(1.05194 0.00766711 0)
(1.05057 0.00751141 0)
(1.04909 0.00736078 0)
(1.04753 0.00721468 0)
(1.04588 0.00707265 0)
(1.04417 0.00693411 0)
(1.04239 0.00679867 0)
(1.04056 0.00666552 0)
(1.03868 0.00653452 0)
(1.03676 0.00640423 0)
(1.0348 0.00627522 0)
(1.03282 0.00614463 0)
(1.03083 0.00601458 0)
(1.02881 0.00587963 0)
(1.0268 0.00574423 0)
(1.02478 0.00560001 0)
(1.02278 0.0054518 0)
(1.02078 0.00529364 0)
(1.01882 0.0051177 0)
(1.01688 0.00494422 0)
(1.01499 0.00471019 0)
(1.01312 0.00452478 0)
(1.01133 0.0041929 0)
(1.00954 0.00401005 0)
(1.0079 0.00376435 0)
(1.00238 0.0218821 0)
(1.02664 0.0275604 0)
(1.041 0.0206249 0)
(1.04458 0.0178848 0)
(1.04607 0.0165942 0)
(1.04796 0.0151131 0)
(1.04971 0.0138974 0)
(1.05104 0.0130512 0)
(1.05213 0.0123918 0)
(1.05309 0.0118264 0)
(1.05395 0.0113374 0)
(1.05472 0.0109146 0)
(1.0554 0.0105442 0)
(1.056 0.0102147 0)
(1.05651 0.00991809 0)
(1.05693 0.00964857 0)
(1.05727 0.00940161 0)
(1.05751 0.00917358 0)
(1.05767 0.00896155 0)
(1.05772 0.00876311 0)
(1.05768 0.00857631 0)
(1.05754 0.00839952 0)
(1.05731 0.00823144 0)
(1.05698 0.00807097 0)
(1.05657 0.00791719 0)
(1.05606 0.00776934 0)
(1.05548 0.00762675 0)
(1.05481 0.00748881 0)
(1.05406 0.00735497 0)
(1.05325 0.00722471 0)
(1.05237 0.00709743 0)
(1.05142 0.00697271 0)
(1.05042 0.00684971 0)
(1.04937 0.00672825 0)
(1.04827 0.00660692 0)
(1.04713 0.00648614 0)
(1.04595 0.00636325 0)
(1.04474 0.00623991 0)
(1.04351 0.00611138 0)
(1.04225 0.00598083 0)
(1.04097 0.00584173 0)
(1.03969 0.00569615 0)
(1.0384 0.00554147 0)
(1.03712 0.00536623 0)
(1.03584 0.0051924 0)
(1.03459 0.00496089 0)
(1.03334 0.00476479 0)
(1.03213 0.00445207 0)
(1.03093 0.00424203 0)
(1.02984 0.00401682 0)
(1.0021 0.0200678 0)
(1.02431 0.0264499 0)
(1.03827 0.020127 0)
(1.04206 0.0174728 0)
(1.04357 0.0163309 0)
(1.04543 0.0149579 0)
(1.04717 0.0137687 0)
(1.04851 0.0129332 0)
(1.04959 0.0122885 0)
(1.05053 0.0117354 0)
(1.05138 0.0112549 0)
(1.05215 0.0108389 0)
(1.05285 0.0104747 0)
(1.05349 0.0101514 0)
(1.05407 0.00986086 0)
(1.05459 0.00959763 0)
(1.05506 0.00935729 0)
(1.05547 0.00913627 0)
(1.05582 0.00893166 0)
(1.05612 0.00874105 0)
(1.05636 0.00856245 0)
(1.05654 0.00839419 0)
(1.05666 0.00823489 0)
(1.05672 0.00808339 0)
(1.05672 0.00793872 0)
(1.05666 0.00780005 0)
(1.05655 0.00766665 0)
(1.05638 0.00753788 0)
(1.05616 0.00741312 0)
(1.05588 0.00729183 0)
(1.05555 0.00717334 0)
(1.05517 0.00705722 0)
(1.05475 0.00694258 0)
(1.05428 0.00682918 0)
(1.05377 0.00671563 0)
(1.05323 0.00660218 0)
(1.05265 0.00648636 0)
(1.05203 0.00636935 0)
(1.05139 0.0062471 0)
(1.05072 0.00612155 0)
(1.05003 0.00598783 0)
(1.04933 0.00584563 0)
(1.04861 0.0056949 0)
(1.04789 0.00552189 0)
(1.04716 0.00534846 0)
(1.04644 0.00512154 0)
(1.04572 0.00491739 0)
(1.04502 0.00462199 0)
(1.04431 0.00439194 0)
(1.04371 0.00416924 0)
(1.00185 0.0183611 0)
(1.02211 0.0253309 0)
(1.03564 0.0196436 0)
(1.03962 0.0170631 0)
(1.04115 0.0160534 0)
(1.04298 0.0147946 0)
(1.04473 0.0136374 0)
(1.04607 0.0128129 0)
(1.04713 0.012183 0)
(1.04806 0.0116428 0)
(1.0489 0.0111711 0)
(1.04966 0.0107616 0)
(1.05035 0.010403 0)
(1.05099 0.0100845 0)
(1.05158 0.00979858 0)
(1.05212 0.00953964 0)
(1.05262 0.00930349 0)
(1.05308 0.0090867 0)
(1.0535 0.00888642 0)
(1.05389 0.00870029 0)
(1.05424 0.00852635 0)
(1.05455 0.00836294 0)
(1.05483 0.00820868 0)
(1.05508 0.00806241 0)
(1.05528 0.00792313 0)
(1.05545 0.00778999 0)
(1.05559 0.00766224 0)
(1.05569 0.00753921 0)
(1.05575 0.00742028 0)
(1.05578 0.00730485 0)
(1.05578 0.00719227 0)
(1.05574 0.00708203 0)
(1.05567 0.00697325 0)
(1.05557 0.00686562 0)
(1.05544 0.00675776 0)
(1.05528 0.00664976 0)
(1.0551 0.00653935 0)
(1.05489 0.00642722 0)
(1.05465 0.00630998 0)
(1.05439 0.00618845 0)
(1.05412 0.00605916 0)
(1.05383 0.00591994 0)
(1.05353 0.00577246 0)
(1.05322 0.00560198 0)
(1.0529 0.00542868 0)
(1.05258 0.00520684 0)
(1.05226 0.00499636 0)
(1.05195 0.00471501 0)
(1.05165 0.0044697 0)
(1.05143 0.00423738 0)
(1.00162 0.016762 0)
(1.02004 0.0242074 0)
(1.03311 0.0191705 0)
(1.03727 0.0166572 0)
(1.03883 0.0157631 0)
(1.04063 0.0146225 0)
(1.04237 0.0135033 0)
(1.04371 0.0126902 0)
(1.04477 0.0120751 0)
(1.04569 0.0115485 0)
(1.04651 0.0110861 0)
(1.04726 0.0106833 0)
(1.04794 0.0103302 0)
(1.04857 0.0100166 0)
(1.04914 0.00973473 0)
(1.04968 0.00947944 0)
(1.05018 0.0092466 0)
(1.05065 0.0090329 0)
(1.05108 0.00883557 0)
(1.05149 0.00865231 0)
(1.05188 0.00848121 0)
(1.05224 0.00832066 0)
(1.05257 0.00816928 0)
(1.05289 0.00802594 0)
(1.05318 0.00788965 0)
(1.05345 0.00775957 0)
(1.05369 0.00763496 0)
(1.05392 0.00751516 0)
(1.05412 0.00739952 0)
(1.05431 0.00728747 0)
(1.05447 0.00717832 0)
(1.05461 0.00707157 0)
(1.05474 0.00696633 0)
(1.05484 0.00686222 0)
(1.05492 0.00675792 0)
(1.05499 0.00665334 0)
(1.05504 0.00654642 0)
(1.05507 0.00643741 0)
(1.05508 0.0063235 0)
(1.05508 0.00620454 0)
(1.05507 0.0060782 0)
(1.05505 0.00594095 0)
(1.05502 0.00579542 0)
(1.05498 0.00562695 0)
(1.05494 0.00545299 0)
(1.05489 0.0052356 0)
(1.05485 0.00501977 0)
(1.05481 0.00474852 0)
(1.05478 0.00449073 0)
(1.05483 0.00424107 0)
(1.00142 0.0152696 0)
(1.01812 0.0230837 0)
(1.03068 0.0187038 0)
(1.03501 0.0162565 0)
(1.03661 0.0154611 0)
(1.03837 0.0144411 0)
(1.0401 0.0133659 0)
(1.04145 0.0125653 0)
(1.0425 0.0119647 0)
(1.0434 0.0114524 0)
(1.04422 0.0109999 0)
(1.04495 0.010604 0)
(1.04562 0.0102567 0)
(1.04623 0.00994789 0)
(1.0468 0.00967021 0)
(1.04732 0.00941847 0)
(1.04781 0.00918874 0)
(1.04827 0.00897779 0)
(1.04871 0.00878293 0)
(1.04912 0.00860194 0)
(1.0495 0.00843293 0)
(1.04987 0.00827434 0)
(1.05022 0.00812482 0)
(1.05055 0.00798326 0)
(1.05087 0.0078487 0)
(1.05117 0.00772032 0)
(1.05145 0.00759739 0)
(1.05173 0.00747927 0)
(1.05199 0.00736533 0)
(1.05224 0.00725501 0)
(1.05248 0.00714762 0)
(1.0527 0.00704267 0)
(1.05291 0.00693926 0)
(1.05311 0.00683697 0)
(1.0533 0.00673455 0)
(1.05348 0.00663173 0)
(1.05365 0.00652669 0)
(1.05381 0.00641924 0)
(1.05396 0.00630709 0)
(1.0541 0.00618935 0)
(1.05424 0.00606448 0)
(1.05437 0.00592812 0)
(1.0545 0.00578317 0)
(1.05462 0.00561586 0)
(1.05474 0.00544035 0)
(1.05486 0.00522623 0)
(1.05498 0.00500557 0)
(1.05512 0.00474046 0)
(1.05526 0.00447169 0)
(1.05548 0.00420037 0)
(1.00124 0.0138826 0)
(1.01633 0.0219636 0)
(1.02836 0.0182398 0)
(1.03284 0.0158623 0)
(1.03448 0.0151491 0)
(1.0362 0.0142499 0)
(1.03791 0.0132251 0)
(1.03927 0.012438 0)
(1.04032 0.0118518 0)
(1.04121 0.0113542 0)
(1.04201 0.0109122 0)
(1.04274 0.0105237 0)
(1.0434 0.0101823 0)
(1.044 0.00987852 0)
(1.04455 0.00960513 0)
(1.04506 0.00935703 0)
(1.04554 0.00913043 0)
(1.04599 0.00892221 0)
(1.04641 0.00872974 0)
(1.04681 0.00855085 0)
(1.04719 0.0083837 0)
(1.04755 0.00822675 0)
(1.0479 0.0080787 0)
(1.04823 0.00793845 0)
(1.04855 0.00780506 0)
(1.04885 0.00767774 0)
(1.04915 0.00755579 0)
(1.04944 0.00743858 0)
(1.04971 0.0073255 0)
(1.04998 0.007216 0)
(1.05025 0.00710943 0)
(1.0505 0.00700527 0)
(1.05075 0.00690266 0)
(1.05099 0.00680113 0)
(1.05122 0.00669949 0)
(1.05145 0.00659733 0)
(1.05167 0.00649303 0)
(1.05189 0.00638605 0)
(1.0521 0.00627453 0)
(1.05231 0.00615698 0)
(1.05252 0.00603241 0)
(1.05273 0.00589606 0)
(1.05293 0.0057506 0)
(1.05314 0.00558363 0)
(1.05335 0.0054059 0)
(1.05356 0.00519376 0)
(1.05377 0.00496862 0)
(1.05399 0.00470616 0)
(1.05424 0.0044272 0)
(1.05455 0.00413258 0)
(1.00107 0.0125988 0)
(1.01467 0.0208512 0)
(1.02616 0.017775 0)
(1.03075 0.0154754 0)
(1.03244 0.0148289 0)
(1.03412 0.0140483 0)
(1.03582 0.0130801 0)
(1.03718 0.0123086 0)
(1.03823 0.0117363 0)
(1.03911 0.0112537 0)
(1.0399 0.010823 0)
(1.04062 0.0104422 0)
(1.04126 0.0101069 0)
(1.04185 0.00980841 0)
(1.0424 0.00953946 0)
(1.0429 0.00929513 0)
(1.04337 0.00907176 0)
(1.0438 0.00886632 0)
(1.04422 0.00867628 0)
(1.04461 0.00849949 0)
(1.04498 0.00833417 0)
(1.04533 0.00817881 0)
(1.04566 0.00803211 0)
(1.04599 0.00789302 0)
(1.0463 0.00776062 0)
(1.0466 0.00763412 0)
(1.04689 0.00751285 0)
(1.04718 0.00739622 0)
(1.04745 0.00728363 0)
(1.04773 0.00717455 0)
(1.04799 0.00706833 0)
(1.04825 0.00696446 0)
(1.04851 0.00686211 0)
(1.04876 0.00676076 0)
(1.049 0.00665931 0)
(1.04925 0.0065572 0)
(1.04949 0.00645297 0)
(1.04973 0.00634583 0)
(1.04997 0.00623421 0)
(1.0502 0.00611625 0)
(1.05044 0.00599122 0)
(1.05067 0.00585431 0)
(1.05091 0.00570762 0)
(1.05115 0.00554039 0)
(1.0514 0.00536009 0)
(1.05165 0.00514877 0)
(1.0519 0.00491951 0)
(1.05217 0.00465697 0)
(1.05246 0.00436833 0)
(1.05281 0.00405068 0)
(1.00093 0.0114156 0)
(1.01314 0.0197507 0)
(1.02406 0.0173063 0)
(1.02875 0.0150965 0)
(1.0305 0.0145025 0)
(1.03214 0.0138361 0)
(1.03382 0.0129304 0)
(1.03518 0.0121769 0)
(1.03622 0.0116182 0)
(1.0371 0.011151 0)
(1.03788 0.0107321 0)
(1.03859 0.0103595 0)
(1.03922 0.0100306 0)
(1.0398 0.00973746 0)
(1.04034 0.00947312 0)
(1.04083 0.00923271 0)
(1.04129 0.00901267 0)
(1.04171 0.00881012 0)
(1.04212 0.00862257 0)
(1.0425 0.00844795 0)
(1.04286 0.00828449 0)
(1.0432 0.00813072 0)
(1.04353 0.00798538 0)
(1.04384 0.00784743 0)
(1.04414 0.00771596 0)
(1.04444 0.00759022 0)
(1.04472 0.00746956 0)
(1.045 0.00735339 0)
(1.04527 0.00724115 0)
(1.04554 0.00713232 0)
(1.0458 0.00702627 0)
(1.04605 0.00692248 0)
(1.04631 0.00682016 0)
(1.04656 0.00671875 0)
(1.0468 0.00661719 0)
(1.04705 0.00651483 0)
(1.04729 0.00641035 0)
(1.04753 0.00630274 0)
(1.04777 0.00619064 0)
(1.04801 0.00607196 0)
(1.04826 0.00594606 0)
(1.0485 0.00580829 0)
(1.04875 0.00566001 0)
(1.049 0.00549213 0)
(1.04926 0.0053092 0)
(1.04952 0.00509783 0)
(1.04978 0.00486483 0)
(1.05006 0.00460027 0)
(1.05036 0.00430247 0)
(1.05072 0.0039634 0)
(1.0008 0.0103299 0)
(1.01174 0.0186661 0)
(1.02207 0.0168311 0)
(1.02683 0.0147258 0)
(1.02865 0.0141719 0)
(1.03025 0.0136132 0)
(1.0319 0.0127755 0)
(1.03326 0.0120429 0)
(1.03431 0.0114976 0)
(1.03518 0.0110458 0)
(1.03595 0.0106394 0)
(1.03665 0.0102754 0)
(1.03728 0.00995311 0)
(1.03785 0.00966559 0)
(1.03837 0.00940604 0)
(1.03885 0.00916969 0)
(1.0393 0.00895312 0)
(1.03972 0.00875354 0)
(1.04011 0.00856857 0)
(1.04048 0.00839617 0)
(1.04083 0.00823464 0)
(1.04117 0.00808251 0)
(1.04149 0.00793856 0)
(1.04179 0.00780176 0)
(1.04209 0.00767123 0)
(1.04237 0.00754625 0)
(1.04265 0.00742618 0)
(1.04292 0.00731045 0)
(1.04318 0.00719853 0)
(1.04344 0.0070899 0)
(1.04369 0.00698396 0)
(1.04394 0.00688018 0)
(1.04419 0.00677781 0)
(1.04443 0.00667624 0)
(1.04467 0.00657447 0)
(1.04491 0.00647176 0)
(1.04515 0.00636688 0)
(1.04539 0.00625868 0)
(1.04563 0.00614593 0)
(1.04587 0.00602643 0)
(1.04611 0.00589947 0)
(1.04635 0.00576073 0)
(1.04659 0.00561076 0)
(1.04684 0.00544199 0)
(1.04709 0.00525658 0)
(1.04735 0.00504454 0)
(1.04762 0.0048082 0)
(1.0479 0.00454043 0)
(1.04819 0.0042341 0)
(1.04854 0.00387607 0)
(1.00069 0.00933769 0)
(1.01046 0.0176015 0)
(1.0202 0.016347 0)
(1.025 0.0143633 0)
(1.02689 0.0138392 0)
(1.02845 0.0133799 0)
(1.03007 0.0126147 0)
(1.03144 0.0119064 0)
(1.03249 0.0113744 0)
(1.03335 0.010938 0)
(1.03411 0.0105447 0)
(1.0348 0.0101899 0)
(1.03542 0.00987447 0)
(1.03598 0.00959274 0)
(1.0365 0.00933814 0)
(1.03697 0.009106 0)
(1.03741 0.00889301 0)
(1.03782 0.00869652 0)
(1.0382 0.00851421 0)
(1.03857 0.00834412 0)
(1.03891 0.00818457 0)
(1.03923 0.00803413 0)
(1.03954 0.00789161 0)
(1.03984 0.007756 0)
(1.04013 0.00762644 0)
(1.0404 0.00750224 0)
(1.04067 0.00738276 0)
(1.04093 0.00726748 0)
(1.04119 0.00715587 0)
(1.04144 0.00704744 0)
(1.04169 0.0069416 0)
(1.04193 0.00683783 0)
(1.04217 0.00673539 0)
(1.04241 0.00663363 0)
(1.04264 0.00653163 0)
(1.04287 0.00642853 0)
(1.0431 0.00632322 0)
(1.04334 0.00621442 0)
(1.04357 0.00610096 0)
(1.0438 0.00598063 0)
(1.04403 0.00585256 0)
(1.04427 0.00571283 0)
(1.04451 0.00556122 0)
(1.04475 0.00539144 0)
(1.04499 0.00520383 0)
(1.04524 0.00499072 0)
(1.0455 0.00475142 0)
(1.04577 0.00447985 0)
(1.04605 0.0041658 0)
(1.04638 0.00379174 0)
(1.0006 0.00843479 0)
(1.0093 0.0165611 0)
(1.01845 0.0158522 0)
(1.02326 0.0140086 0)
(1.02522 0.0135062 0)
(1.02674 0.0131366 0)
(1.02834 0.0124475 0)
(1.0297 0.0117674 0)
(1.03075 0.0112488 0)
(1.03161 0.0108276 0)
(1.03236 0.0104479 0)
(1.03304 0.0101028 0)
(1.03365 0.00979456 0)
(1.03421 0.00951879 0)
(1.03471 0.00926933 0)
(1.03518 0.00904156 0)
(1.03561 0.00883229 0)
(1.03601 0.00863899 0)
(1.03639 0.00845944 0)
(1.03674 0.00829173 0)
(1.03708 0.00813422 0)
(1.03739 0.00798553 0)
(1.0377 0.00784449 0)
(1.03799 0.0077101 0)
(1.03826 0.00758154 0)
(1.03853 0.00745813 0)
(1.03879 0.00733928 0)
(1.03905 0.00722446 0)
(1.0393 0.00711318 0)
(1.03954 0.00700495 0)
(1.03978 0.00689923 0)
(1.04002 0.00679547 0)
(1.04025 0.00669296 0)
(1.04048 0.00659103 0)
(1.04071 0.00648879 0)
(1.04093 0.00638533 0)
(1.04116 0.00627958 0)
(1.04138 0.00617019 0)
(1.0416 0.00605603 0)
(1.04183 0.0059349 0)
(1.04205 0.00580576 0)
(1.04228 0.00566506 0)
(1.04251 0.00551193 0)
(1.04274 0.00534113 0)
(1.04298 0.00515159 0)
(1.04322 0.00493721 0)
(1.04346 0.00469534 0)
(1.04372 0.00441983 0)
(1.04399 0.00409903 0)
(1.04429 0.00371209 0)
(1.00051 0.00761638 0)
(1.00825 0.0155486 0)
(1.0168 0.0153455 0)
(1.0216 0.0136611 0)
(1.02363 0.0131746 0)
(1.02513 0.0128839 0)
(1.02668 0.0122732 0)
(1.02804 0.0116254 0)
(1.02909 0.0111207 0)
(1.02995 0.0107144 0)
(1.0307 0.0103488 0)
(1.03137 0.010014 0)
(1.03197 0.00971326 0)
(1.03252 0.00944366 0)
(1.03302 0.00919952 0)