/*--------------------------------*- C++ -*----------------------------------*\
  =========                 |
  \\      /  F ield         | OpenFOAM: The Open Source CFD Toolbox
   \\    /   O peration     | Website:  https://openfoam.org
    \\  /    A nd           | Version:  7
     \\/     M anipulation  |
\*---------------------------------------------------------------------------*/
FoamFile
{
    version     2.0;
    format      ascii;
    class       volVectorField;
    location    "0.24";
    object      vorticity;
}
// * * * * * * * * * * * * * * * * * * * * * * * * * * * * * * * * * * * * * //

dimensions      [0 0 -1 0 0 0 0];

internalField   nonuniform List<vector> 
70000
(
(0 -0 -45716.1)
(0 -0 -28617.9)
(0 -0 -20913.9)
(0 -0 -16980.7)
(0 -0 -14959.5)
(0 -0 -13652.5)
(0 -0 -12643.1)
(0 -0 -11830.5)
(0 -0 -11166.6)
(0 -0 -10612.6)
(0 -0 -10140.6)
(0 -0 -9731.95)
(0 -0 -9373.74)
(0 -0 -9056.58)
(0 -0 -8773.36)
(0 -0 -8518.6)
(0 -0 -8287.95)
(0 -0 -8077.98)
(0 -0 -7885.88)
(0 -0 -7709.38)
(0 -0 -7546.56)
(0 -0 -7395.86)
(0 -0 -7255.94)
(0 -0 -7125.67)
(0 -0 -7004.08)
(0 -0 -6890.35)
(0 -0 -6783.75)
(0 -0 -6683.66)
(0 -0 -6589.54)
(0 -0 -6500.92)
(0 -0 -6417.4)
(0 -0 -6338.6)
(0 -0 -6264.23)
(0 -0 -6194.01)
(0 -0 -6127.7)
(0 -0 -6065.16)
(0 -0 -6006.1)
(0 -0 -5950.68)
(0 -0 -5898.22)
(0 -0 -5849.84)
(0 -0 -5803.33)
(0 -0 -5762.63)
(0 -0 -5721.08)
(0 -0 -5689.97)
(0 -0 -5651.5)
(0 -0 -5633.73)
(0 -0 -5595.85)
(0 -0 -5592.34)
(0 -0 -5586.2)
(0 -0 -5302.02)
(0 -0 -13549.7)
(0 -0 -19947.4)
(0 -0 -18536.4)
(0 -0 -16250)
(0 -0 -14504.1)
(0 -0 -13280.2)
(0 -0 -12352.1)
(0 -0 -11602)
(0 -0 -10979.7)
(0 -0 -10454.5)
(0 -0 -10004)
(0 -0 -9612.17)
(0 -0 -9267.32)
(0 -0 -8960.95)
(0 -0 -8686.55)
(0 -0 -8439.08)
(0 -0 -8214.54)
(0 -0 -8009.7)
(0 -0 -7821.96)
(0 -0 -7649.16)
(0 -0 -7489.52)
(0 -0 -7341.53)
(0 -0 -7203.92)
(0 -0 -7075.62)
(0 -0 -6955.7)
(0 -0 -6843.36)
(0 -0 -6737.9)
(0 -0 -6638.73)
(0 -0 -6545.32)
(0 -0 -6457.19)
(0 -0 -6373.96)
(0 -0 -6295.25)
(0 -0 -6220.77)
(0 -0 -6150.22)
(0 -0 -6083.36)
(0 -0 -6020.02)
(0 -0 -5959.93)
(0 -0 -5903.15)
(0 -0 -5849.09)
(0 -0 -5798.58)
(0 -0 -5749.86)
(0 -0 -5705.87)
(0 -0 -5661.56)
(0 -0 -5625.29)
(0 -0 -5583.95)
(0 -0 -5557.71)
(0 -0 -5518.28)
(0 -0 -5501.28)
(0 -0 -5484.07)
(0 -0 -5483.54)
(0 -0 -3818.76)
(0 -0 -10828.8)
(0 -0 -13363.3)
(0 -0 -13519.6)
(0 -0 -12866.3)
(0 -0 -12140.3)
(0 -0 -11498.7)
(0 -0 -10938.5)
(0 -0 -10446.7)
(0 -0 -10014.3)
(0 -0 -9632.41)
(0 -0 -9292.97)
(0 -0 -8989.23)
(0 -0 -8715.71)
(0 -0 -8468.03)
(0 -0 -8242.58)
(0 -0 -8036.4)
(0 -0 -7847.06)
(0 -0 -7672.5)
(0 -0 -7511.01)
(0 -0 -7361.13)
(0 -0 -7221.62)
(0 -0 -7091.41)
(0 -0 -6969.6)
(0 -0 -6855.38)
(0 -0 -6748.06)
(0 -0 -6647.03)
(0 -0 -6551.77)
(0 -0 -6461.79)
(0 -0 -6376.69)
(0 -0 -6296.1)
(0 -0 -6219.68)
(0 -0 -6147.15)
(0 -0 -6078.24)
(0 -0 -6012.74)
(0 -0 -5950.44)
(0 -0 -5891.11)
(0 -0 -5834.73)
(0 -0 -5780.88)
(0 -0 -5730)
(0 -0 -5680.96)
(0 -0 -5635.5)
(0 -0 -5590.55)
(0 -0 -5550.94)
(0 -0 -5509.17)
(0 -0 -5476.31)
(0 -0 -5437.45)
(0 -0 -5410.89)
(0 -0 -5379.3)
(0 -0 -5434.61)
(0 -0 -533.081)
(0 -0 -4662.59)
(0 -0 -7718.31)
(0 -0 -9328.37)
(0 -0 -9892.23)
(0 -0 -9957.72)
(0 -0 -9826.2)
(0 -0 -9614.45)
(0 -0 -9371.26)
(0 -0 -9121.32)
(0 -0 -8877.04)
(0 -0 -8644.01)
(0 -0 -8424.34)
(0 -0 -8218.47)
(0 -0 -8026.04)
(0 -0 -7846.35)
(0 -0 -7678.51)
(0 -0 -7521.62)
(0 -0 -7374.79)
(0 -0 -7237.17)
(0 -0 -7108.01)
(0 -0 -6986.58)
(0 -0 -6872.26)
(0 -0 -6764.47)
(0 -0 -6662.68)
(0 -0 -6566.42)
(0 -0 -6475.28)
(0 -0 -6388.86)
(0 -0 -6306.84)
(0 -0 -6228.89)
(0 -0 -6154.73)
(0 -0 -6084.12)
(0 -0 -6016.83)
(0 -0 -5952.64)
(0 -0 -5891.36)
(0 -0 -5832.84)
(0 -0 -5776.9)
(0 -0 -5723.45)
(0 -0 -5672.25)
(0 -0 -5623.42)
(0 -0 -5576.47)
(0 -0 -5531.95)
(0 -0 -5488.8)
(0 -0 -5448.46)
(0 -0 -5408.76)
(0 -0 -5372.46)
(0 -0 -5336.4)
(0 -0 -5304.07)
(0 -0 -5270.52)
(0 -0 -5289.94)
(0 -0 322.415)
(0 -0 -1444.53)
(0 -0 -3532.48)
(0 -0 -5258.96)
(0 -0 -6398.97)
(0 -0 -7073.76)
(0 -0 -7451.31)
(0 -0 -7642.06)
(0 -0 -7714.24)
(0 -0 -7712.08)
(0 -0 -7664.13)
(0 -0 -7588.47)
(0 -0 -7496.54)
(0 -0 -7395.61)
(0 -0 -7290.39)
(0 -0 -7183.9)
(0 -0 -7078.1)
(0 -0 -6974.23)
(0 -0 -6873.09)
(0 -0 -6775.12)
(0 -0 -6680.57)
(0 -0 -6589.57)
(0 -0 -6502.12)
(0 -0 -6418.18)
(0 -0 -6337.66)
(0 -0 -6260.44)
(0 -0 -6186.41)
(0 -0 -6115.43)
(0 -0 -6047.36)
(0 -0 -5982.07)
(0 -0 -5919.43)
(0 -0 -5859.3)
(0 -0 -5801.57)
(0 -0 -5746.12)
(0 -0 -5692.84)
(0 -0 -5641.63)
(0 -0 -5592.4)
(0 -0 -5545.03)
(0 -0 -5499.49)
(0 -0 -5455.62)
(0 -0 -5413.5)
(0 -0 -5372.76)
(0 -0 -5333.91)
(0 -0 -5295.85)
(0 -0 -5260.43)
(0 -0 -5224.27)
(0 -0 -5193.04)
(0 -0 -5157.83)
(0 -0 -5131.5)
(0 -0 -5117.99)
(0 -0 364.685)
(0 -0 -158.566)
(0 -0 -1181.47)
(0 -0 -2361.85)
(0 -0 -3417.21)
(0 -0 -4255.71)
(0 -0 -4890.76)
(0 -0 -5356.28)
(0 -0 -5687.34)
(0 -0 -5915.96)
(0 -0 -6068.43)
(0 -0 -6164.85)
(0 -0 -6220.16)
(0 -0 -6245.32)
(0 -0 -6248.39)
(0 -0 -6235.32)
(0 -0 -6210.49)
(0 -0 -6177.16)
(0 -0 -6137.77)
(0 -0 -6094.14)
(0 -0 -6047.63)
(0 -0 -5999.28)
(0 -0 -5949.87)
(0 -0 -5899.99)
(0 -0 -5850.09)
(0 -0 -5800.49)
(0 -0 -5751.45)
(0 -0 -5703.14)
(0 -0 -5655.72)
(0 -0 -5609.26)
(0 -0 -5563.85)
(0 -0 -5519.51)
(0 -0 -5476.29)
(0 -0 -5434.19)
(0 -0 -5393.23)
(0 -0 -5353.37)
(0 -0 -5314.64)
(0 -0 -5276.95)
(0 -0 -5240.43)
(0 -0 -5204.78)
(0 -0 -5170.48)
(0 -0 -5136.6)
(0 -0 -5104.67)
(0 -0 -5072.03)
(0 -0 -5043.01)
(0 -0 -5010.51)
(0 -0 -4985.8)
(0 -0 -4951.53)
(0 -0 -4932.88)
(0 -0 -4908.96)
(0 -0 254.007)
(0 -0 185.282)
(0 -0 -173.28)
(0 -0 -764.581)
(0 -0 -1447.46)
(0 -0 -2115.06)
(0 -0 -2720.07)
(0 -0 -3243.05)
(0 -0 -3679.87)
(0 -0 -4036.3)
(0 -0 -4322.61)
(0 -0 -4549.92)
(0 -0 -4728.53)
(0 -0 -4867.42)
(0 -0 -4974.11)
(0 -0 -5054.78)
(0 -0 -5114.46)
(0 -0 -5157.22)
(0 -0 -5186.33)
(0 -0 -5204.42)
(0 -0 -5213.61)
(0 -0 -5215.62)
(0 -0 -5211.85)
(0 -0 -5203.41)
(0 -0 -5191.22)
(0 -0 -5176.03)
(0 -0 -5158.44)
(0 -0 -5138.97)
(0 -0 -5118.01)
(0 -0 -5095.9)
(0 -0 -5072.93)
(0 -0 -5049.33)
(0 -0 -5025.28)
(0 -0 -5000.94)
(0 -0 -4976.45)
(0 -0 -4951.9)
(0 -0 -4927.41)
(0 -0 -4902.97)
(0 -0 -4878.82)
(0 -0 -4854.65)
(0 -0 -4831.15)
(0 -0 -4807.2)
(0 -0 -4784.78)
(0 -0 -4760.61)
(0 -0 -4740.1)
(0 -0 -4714.52)
(0 -0 -4697.65)
(0 -0 -4668.79)
(0 -0 -4656.28)
(0 -0 -4634.4)
(0 -0 178.732)
(0 -0 204.486)
(0 -0 130.65)
(0 -0 -85.1799)
(0 -0 -417.766)
(0 -0 -814.639)
(0 -0 -1235.95)
(0 -0 -1652.84)
(0 -0 -2045.45)
(0 -0 -2402.78)
(0 -0 -2720.6)
(0 -0 -2998.8)
(0 -0 -3239.55)
(0 -0 -3446.16)
(0 -0 -3622.37)
(0 -0 -3771.91)
(0 -0 -3898.29)
(0 -0 -4004.67)
(0 -0 -4093.88)
(0 -0 -4168.37)
(0 -0 -4230.25)
(0 -0 -4281.34)
(0 -0 -4323.2)
(0 -0 -4357.16)
(0 -0 -4384.35)
(0 -0 -4405.74)
(0 -0 -4422.14)
(0 -0 -4434.27)
(0 -0 -4442.72)
(0 -0 -4448.01)
(0 -0 -4450.57)
(0 -0 -4450.79)
(0 -0 -4448.98)
(0 -0 -4445.44)
(0 -0 -4440.41)
(0 -0 -4434.08)
(0 -0 -4426.67)
(0 -0 -4418.25)
(0 -0 -4409.13)
(0 -0 -4399.09)
(0 -0 -4388.85)
(0 -0 -4377.37)
(0 -0 -4366.68)
(0 -0 -4353.5)
(0 -0 -4343.36)
(0 -0 -4327.5)
(0 -0 -4319.54)
(0 -0 -4299.76)
(0 -0 -4293.42)
(0 -0 -4278.41)
(0 -0 148.004)
(0 -0 164.592)
(0 -0 169.97)
(0 -0 120.971)
(0 -0 1.0755)
(0 -0 -180.61)
(0 -0 -408.708)
(0 -0 -666.878)
(0 -0 -939.294)
(0 -0 -1213.04)
(0 -0 -1478.89)
(0 -0 -1730.83)
(0 -0 -1965.34)
(0 -0 -2180.73)
(0 -0 -2376.61)
(0 -0 -2553.41)
(0 -0 -2712.11)
(0 -0 -2853.96)
(0 -0 -2980.33)
(0 -0 -3092.62)
(0 -0 -3192.22)
(0 -0 -3280.4)
(0 -0 -3358.36)
(0 -0 -3427.21)
(0 -0 -3487.92)
(0 -0 -3541.38)
(0 -0 -3588.39)
(0 -0 -3629.65)
(0 -0 -3665.79)
(0 -0 -3697.36)
(0 -0 -3724.84)
(0 -0 -3748.69)
(0 -0 -3769.27)
(0 -0 -3786.94)
(0 -0 -3802)
(0 -0 -3814.7)
(0 -0 -3825.32)
(0 -0 -3833.99)
(0 -0 -3841.05)
(0 -0 -3846.37)
(0 -0 -3850.64)
(0 -0 -3852.99)
(0 -0 -3855.27)
(0 -0 -3854.59)
(0 -0 -3855.94)
(0 -0 -3851.57)
(0 -0 -3853.32)
(0 -0 -3844.72)
(0 -0 -3845.53)
(0 -0 -3839.54)
(0 -0 136.811)
(0 -0 137.057)
(0 -0 148.72)
(0 -0 149.664)
(0 -0 122.189)
(0 -0 60.1476)
(0 -0 -36.2743)
(0 -0 -163.422)
(0 -0 -314.946)
(0 -0 -483.542)
(0 -0 -662.295)
(0 -0 -845.292)
(0 -0 -1027.79)
(0 -0 -1206.2)
(0 -0 -1377.95)
(0 -0 -1541.35)
(0 -0 -1695.37)
(0 -0 -1839.5)
(0 -0 -1973.62)
(0 -0 -2097.87)
(0 -0 -2212.57)
(0 -0 -2318.18)
(0 -0 -2415.2)
(0 -0 -2504.2)
(0 -0 -2585.73)
(0 -0 -2660.34)
(0 -0 -2728.56)
(0 -0 -2790.91)
(0 -0 -2847.86)
(0 -0 -2899.84)
(0 -0 -2947.26)
(0 -0 -2990.51)
(0 -0 -3029.91)
(0 -0 -3065.8)
(0 -0 -3098.45)
(0 -0 -3128.13)
(0 -0 -3155.08)
(0 -0 -3179.48)
(0 -0 -3201.63)
(0 -0 -3221.49)
(0 -0 -3239.63)
(0 -0 -3255.4)
(0 -0 -3270.36)
(0 -0 -3282.12)
(0 -0 -3294.86)
(0 -0 -3302.26)
(0 -0 -3313.74)
(0 -0 -3316.75)
(0 -0 -3325.38)
(0 -0 -3329.07)
(0 -0 129.93)
(0 -0 123.985)
(0 -0 129.168)
(0 -0 136.368)
(0 -0 136.458)
(0 -0 123.202)
(0 -0 92.9569)
(0 -0 43.8712)
(0 -0 -23.8923)
(0 -0 -108.505)
(0 -0 -207.198)
(0 -0 -316.837)
(0 -0 -434.277)
(0 -0 -556.612)
(0 -0 -681.303)
(0 -0 -806.231)
(0 -0 -929.697)
(0 -0 -1050.39)
(0 -0 -1167.32)
(0 -0 -1279.8)
(0 -0 -1387.37)
(0 -0 -1489.76)
(0 -0 -1586.84)
(0 -0 -1678.6)
(0 -0 -1765.11)
(0 -0 -1846.5)
(0 -0 -1922.95)
(0 -0 -1994.66)
(0 -0 -2061.85)
(0 -0 -2124.75)
(0 -0 -2183.57)
(0 -0 -2238.56)
(0 -0 -2289.93)
(0 -0 -2337.89)
(0 -0 -2382.63)
(0 -0 -2424.37)
(0 -0 -2463.27)
(0 -0 -2499.49)
(0 -0 -2533.25)
(0 -0 -2564.53)
(0 -0 -2593.81)
(0 -0 -2620.56)
(0 -0 -2646.04)
(0 -0 -2668.37)
(0 -0 -2690.8)
(0 -0 -2708.56)
(0 -0 -2728.56)
(0 -0 -2741.96)
(0 -0 -2758.01)
(0 -0 -2770.57)
(0 -0 122.939)
(0 -0 116.632)
(0 -0 118.001)
(0 -0 122.477)
(0 -0 126.418)
(0 -0 126.889)
(0 -0 121.418)
(0 -0 107.704)
(0 -0 84.1064)
(0 -0 49.9135)
(0 -0 5.21586)
(0 -0 -49.2791)
(0 -0 -112.448)
(0 -0 -182.924)
(0 -0 -259.256)
(0 -0 -340.007)
(0 -0 -423.835)
(0 -0 -509.53)
(0 -0 -596.039)
(0 -0 -682.468)
(0 -0 -768.075)
(0 -0 -852.263)
(0 -0 -934.56)
(0 -0 -1014.61)
(0 -0 -1092.14)
(0 -0 -1166.97)
(0 -0 -1238.98)
(0 -0 -1308.1)
(0 -0 -1374.3)
(0 -0 -1437.6)
(0 -0 -1498.02)
(0 -0 -1555.62)
(0 -0 -1610.47)
(0 -0 -1662.63)
(0 -0 -1712.2)
(0 -0 -1759.26)
(0 -0 -1803.89)
(0 -0 -1846.19)
(0 -0 -1886.27)
(0 -0 -1924.11)
(0 -0 -1960.04)
(0 -0 -1993.64)
(0 -0 -2025.86)
(0 -0 -2055.27)
(0 -0 -2084.25)
(0 -0 -2109.39)
(0 -0 -2135.42)
(0 -0 -2156.53)
(0 -0 -2178.33)
(0 -0 -2197.64)
(0 -0 115.619)
(0 -0 110.4)
(0 -0 110.719)
(0 -0 113.158)
(0 -0 115.97)
(0 -0 118.228)
(0 -0 119.104)
(0 -0 117.395)
(0 -0 111.821)
(0 -0 101.325)
(0 -0 85.1843)
(0 -0 63.0218)
(0 -0 34.7795)
(0 -0 0.674004)
(0 -0 -38.8701)
(0 -0 -83.2853)
(0 -0 -131.92)
(0 -0 -184.089)
(0 -0 -239.105)
(0 -0 -296.312)
(0 -0 -355.097)
(0 -0 -414.907)
(0 -0 -475.247)
(0 -0 -535.689)
(0 -0 -595.862)
(0 -0 -655.457)
(0 -0 -714.212)
(0 -0 -771.918)
(0 -0 -828.401)
(0 -0 -883.529)
(0 -0 -937.192)
(0 -0 -989.318)
(0 -0 -1039.84)
(0 -0 -1088.73)
(0 -0 -1135.96)
(0 -0 -1181.51)
(0 -0 -1225.4)
(0 -0 -1267.6)
(0 -0 -1308.18)
(0 -0 -1347.05)
(0 -0 -1384.44)
(0 -0 -1419.97)
(0 -0 -1454.33)
(0 -0 -1486.46)
(0 -0 -1517.98)
(0 -0 -1546.58)
(0 -0 -1575.28)
(0 -0 -1600.5)
(0 -0 -1625.38)
(0 -0 -1648.46)
(0 -0 108.374)
(0 -0 104.182)
(0 -0 104.394)
(0 -0 106.102)
(0 -0 107.97)
(0 -0 109.679)
(0 -0 111.214)
(0 -0 112.228)
(0 -0 112.142)
(0 -0 110.322)
(0 -0 106.182)
(0 -0 99.2169)
(0 -0 89.0491)
(0 -0 75.4368)
(0 -0 58.2821)
(0 -0 37.608)
(0 -0 13.5431)
(0 -0 -13.7017)
(0 -0 -43.8571)
(0 -0 -76.615)
(0 -0 -111.647)
(0 -0 -148.617)
(0 -0 -187.196)
(0 -0 -227.067)
(0 -0 -267.934)
(0 -0 -309.522)
(0 -0 -351.581)
(0 -0 -393.888)
(0 -0 -436.241)
(0 -0 -478.466)
(0 -0 -520.406)
(0 -0 -561.929)
(0 -0 -602.914)
(0 -0 -643.266)
(0 -0 -682.895)
(0 -0 -721.731)
(0 -0 -759.714)
(0 -0 -796.78)
(0 -0 -832.922)
(0 -0 -868.021)
(0 -0 -902.203)
(0 -0 -935.162)
(0 -0 -967.327)
(0 -0 -997.959)
(0 -0 -1028.07)
(0 -0 -1056.19)
(0 -0 -1084.08)
(0 -0 -1109.68)
(0 -0 -1134.58)
(0 -0 -1158.22)
(0 -0 101.395)
(0 -0 97.9901)
(0 -0 98.2163)
(0 -0 99.6911)
(0 -0 101.204)
(0 -0 102.475)
(0 -0 103.697)
(0 -0 104.881)
(0 -0 105.855)
(0 -0 106.371)
(0 -0 106.149)
(0 -0 104.889)
(0 -0 102.299)
(0 -0 98.1219)
(0 -0 92.1438)
(0 -0 84.2116)
(0 -0 74.2304)
(0 -0 62.1624)
(0 -0 48.0222)
(0 -0 31.8681)
(0 -0 13.7952)
(0 -0 -6.07382)
(0 -0 -27.5959)
(0 -0 -50.6152)
(0 -0 -74.9687)
(0 -0 -100.492)
(0 -0 -127.022)
(0 -0 -154.401)
(0 -0 -182.477)
(0 -0 -211.109)
(0 -0 -240.162)
(0 -0 -269.511)
(0 -0 -299.041)
(0 -0 -328.646)
(0 -0 -358.229)
(0 -0 -387.7)
(0 -0 -416.982)
(0 -0 -445.988)
(0 -0 -474.683)
(0 -0 -502.941)
(0 -0 -530.817)
(0 -0 -558.072)
(0 -0 -584.947)
(0 -0 -610.952)
(0 -0 -636.654)
(0 -0 -661.182)
(0 -0 -685.449)
(0 -0 -708.371)
(0 -0 -730.647)
(0 -0 -752.097)
(0 -0 94.7182)
(0 -0 91.94)
(0 -0 92.1544)
(0 -0 93.4805)
(0 -0 94.8614)
(0 -0 95.9592)
(0 -0 96.9569)
(0 -0 97.9531)
(0 -0 98.9199)
(0 -0 99.7903)
(0 -0 100.475)
(0 -0 100.856)
(0 -0 100.796)
(0 -0 100.144)
(0 -0 98.7542)
(0 -0 96.4891)
(0 -0 93.2296)
(0 -0 88.8789)
(0 -0 83.365)
(0 -0 76.6414)
(0 -0 68.6866)
(0 -0 59.5012)
(0 -0 49.107)
(0 -0 37.5422)
(0 -0 24.859)
(0 -0 11.1205)
(0 -0 -3.6018)
(0 -0 -19.2315)
(0 -0 -35.6878)
(0 -0 -52.8893)
(0 -0 -70.7529)
(0 -0 -89.1976)
(0 -0 -108.142)
(0 -0 -127.51)
(0 -0 -147.224)
(0 -0 -167.211)
(0 -0 -187.407)
(0 -0 -207.733)
(0 -0 -228.15)
(0 -0 -248.553)
(0 -0 -268.958)
(0 -0 -289.194)
(0 -0 -309.375)
(0 -0 -329.203)
(0 -0 -348.953)
(0 -0 -368.148)
(0 -0 -387.199)
(0 -0 -405.578)
(0 -0 -423.532)
(0 -0 -441.018)
(0 -0 88.3417)
(0 -0 86.0837)
(0 -0 86.2796)
(0 -0 87.4562)
(0 -0 88.7389)
(0 -0 89.7575)
(0 -0 90.649)
(0 -0 91.517)
(0 -0 92.3657)
(0 -0 93.1807)
(0 -0 93.9461)
(0 -0 94.6329)
(0 -0 95.1958)
(0 -0 95.5758)
(0 -0 95.7047)
(0 -0 95.5091)
(0 -0 94.9143)
(0 -0 93.8484)
(0 -0 92.2451)
(0 -0 90.0462)
(0 -0 87.2036)
(0 -0 83.6798)
(0 -0 79.4486)
(0 -0 74.4946)
(0 -0 68.8127)
(0 -0 62.4074)
(0 -0 55.2907)
(0 -0 47.4826)
(0 -0 39.0086)
(0 -0 29.8992)
(0 -0 20.1889)
(0 -0 9.91548)
(0 -0 -0.880906)
(0 -0 -12.1579)
(0 -0 -23.8733)
(0 -0 -35.9807)
(0 -0 -48.4403)
(0 -0 -61.1988)
(0 -0 -74.2268)
(0 -0 -87.4554)
(0 -0 -100.878)
(0 -0 -114.394)
(0 -0 -128.043)
(0 -0 -141.661)
(0 -0 -155.357)
(0 -0 -168.894)
(0 -0 -182.419)
(0 -0 -195.699)
(0 -0 -208.784)
(0 -0 -221.662)
(0 -0 82.2642)
(0 -0 80.4392)
(0 -0 80.6252)
(0 -0 81.657)
(0 -0 82.8364)
(0 -0 83.7897)
(0 -0 84.6132)
(0 -0 85.4038)
(0 -0 86.1698)
(0 -0 86.9044)
(0 -0 87.6092)
(0 -0 88.2837)
(0 -0 88.9194)
(0 -0 89.5006)
(0 -0 90.0047)
(0 -0 90.4037)
(0 -0 90.6649)
(0 -0 90.7528)
(0 -0 90.63)
(0 -0 90.2595)
(0 -0 89.6055)
(0 -0 88.635)
(0 -0 87.3186)
(0 -0 85.631)
(0 -0 83.5516)
(0 -0 81.0647)
(0 -0 78.1594)
(0 -0 74.8288)
(0 -0 71.0711)
(0 -0 66.8882)
(0 -0 62.2855)
(0 -0 57.272)
(0 -0 51.8595)
(0 -0 46.0632)
(0 -0 39.8989)
(0 -0 33.3878)
(0 -0 26.5473)
(0 -0 19.4055)
(0 -0 11.9774)
(0 -0 4.30137)
(0 -0 -3.616)
(0 -0 -11.7193)
(0 -0 -20.019)
(0 -0 -28.434)
(0 -0 -36.9953)
(0 -0 -45.5974)
(0 -0 -54.2757)
(0 -0 -62.9312)
(0 -0 -71.5572)
(0 -0 -80.1328)
(0 -0 76.4861)
(0 -0 75.0179)
(0 -0 75.2031)
(0 -0 76.103)
(0 -0 77.1766)
(0 -0 78.0633)
(0 -0 78.8253)
(0 -0 79.5535)
(0 -0 80.2577)
(0 -0 80.9306)
(0 -0 81.5745)
(0 -0 82.1942)
(0 -0 82.7915)
(0 -0 83.3647)
(0 -0 83.9091)
(0 -0 84.4174)
(0 -0 84.8795)
(0 -0 85.2822)
(0 -0 85.6106)
(0 -0 85.8478)
(0 -0 85.9757)
(0 -0 85.976)
(0 -0 85.8302)
(0 -0 85.5208)
(0 -0 85.0312)
(0 -0 84.3461)
(0 -0 83.4522)
(0 -0 82.3379)
(0 -0 80.9935)
(0 -0 79.4114)
(0 -0 77.586)
(0 -0 75.5138)
(0 -0 73.1931)
(0 -0 70.6247)
(0 -0 67.81)
(0 -0 64.7545)
(0 -0 61.462)
(0 -0 57.9427)
(0 -0 54.2011)
(0 -0 50.2543)
(0 -0 46.1036)
(0 -0 41.7757)
(0 -0 37.2702)
(0 -0 32.6197)
(0 -0 27.8221)
(0 -0 22.9184)
(0 -0 17.909)
(0 -0 12.8356)
(0 -0 7.70791)
(0 -0 2.55847)
(0 -0 71.0072)
(0 -0 69.8302)
(0 -0 70.0204)
(0 -0 70.8028)
(0 -0 71.7725)
(0 -0 72.5924)
(0 -0 73.2946)
(0 -0 73.9634)
(0 -0 74.6118)
(0 -0 75.2318)
(0 -0 75.824)
(0 -0 76.393)
(0 -0 76.9422)
(0 -0 77.4728)
(0 -0 77.9852)
(0 -0 78.4789)
(0 -0 78.9518)
(0 -0 79.401)
(0 -0 79.8219)
(0 -0 80.209)
(0 -0 80.5556)
(0 -0 80.8541)
(0 -0 81.0962)
(0 -0 81.2734)
(0 -0 81.3768)
(0 -0 81.3976)
(0 -0 81.3272)
(0 -0 81.1574)
(0 -0 80.8801)
(0 -0 80.4882)
(0 -0 79.9751)
(0 -0 79.335)
(0 -0 78.5627)
(0 -0 77.6547)
(0 -0 76.6075)
(0 -0 75.4196)
(0 -0 74.0893)
(0 -0 72.6176)
(0 -0 71.0046)
(0 -0 69.2536)
(0 -0 67.3668)
(0 -0 65.3495)
(0 -0 63.2048)
(0 -0 60.9425)
(0 -0 58.5664)
(0 -0 56.0903)
(0 -0 53.5178)
(0 -0 50.8707)
(0 -0 48.1449)
(0 -0 45.3815)
(0 -0 65.826)
(0 -0 64.8846)
(0 -0 65.0828)
(0 -0 65.7613)
(0 -0 66.6309)
(0 -0 67.3854)
(0 -0 68.0299)
(0 -0 68.6415)
(0 -0 69.2362)
(0 -0 69.8062)
(0 -0 70.3508)
(0 -0 70.8738)
(0 -0 71.3783)
(0 -0 71.8659)
(0 -0 72.3377)
(0 -0 72.7946)
(0 -0 73.2369)
(0 -0 73.6646)
(0 -0 74.0772)
(0 -0 74.4733)
(0 -0 74.8515)
(0 -0 75.2094)
(0 -0 75.5443)
(0 -0 75.8534)
(0 -0 76.133)
(0 -0 76.3797)
(0 -0 76.5894)
(0 -0 76.7582)
(0 -0 76.8817)
(0 -0 76.9558)
(0 -0 76.9761)
(0 -0 76.9387)
(0 -0 76.8394)
(0 -0 76.6747)
(0 -0 76.4411)
(0 -0 76.1358)
(0 -0 75.7562)
(0 -0 75.3003)
(0 -0 74.7666)
(0 -0 74.1541)
(0 -0 73.4626)
(0 -0 72.692)
(0 -0 71.8436)
(0 -0 70.9185)
(0 -0 69.9186)
(0 -0 68.8491)
(0 -0 67.7077)
(0 -0 66.5118)
(0 -0 65.2429)
(0 -0 63.9486)
(0 -0 60.9398)
(0 -0 60.1875)
(0 -0 60.3943)
(0 -0 60.9816)
(0 -0 61.7559)
(0 -0 62.4468)
(0 -0 63.0366)
(0 -0 63.5936)
(0 -0 64.1365)
(0 -0 64.6585)
(0 -0 65.1577)
(0 -0 65.6373)
(0 -0 66.0999)
(0 -0 66.547)
(0 -0 66.9796)
(0 -0 67.3988)
(0 -0 67.8052)
(0 -0 68.1995)
(0 -0 68.582)
(0 -0 68.9529)
(0 -0 69.3122)
(0 -0 69.6596)
(0 -0 69.9948)
(0 -0 70.3172)
(0 -0 70.6259)
(0 -0 70.9201)
(0 -0 71.1985)
(0 -0 71.4599)
(0 -0 71.7025)
(0 -0 71.9246)
(0 -0 72.1242)
(0 -0 72.2993)
(0 -0 72.4475)
(0 -0 72.5668)
(0 -0 72.655)
(0 -0 72.7099)
(0 -0 72.7297)
(0 -0 72.7123)
(0 -0 72.6565)
(0 -0 72.5603)
(0 -0 72.4234)
(0 -0 72.2437)
(0 -0 72.0217)
(0 -0 71.7565)
(0 -0 71.4473)
(0 -0 71.0978)
(0 -0 70.7002)
(0 -0 70.2724)
(0 -0 69.7866)
(0 -0 69.2936)
(0 -0 56.3447)
(0 -0 55.7429)
(0 -0 55.9575)
(0 -0 56.4652)
(0 -0 57.1498)
(0 -0 57.7791)
(0 -0 58.3173)
(0 -0 58.8226)
(0 -0 59.3161)
(0 -0 59.7922)
(0 -0 60.2481)
(0 -0 60.6861)
(0 -0 61.1088)
(0 -0 61.5175)
(0 -0 61.913)
(0 -0 62.2962)
(0 -0 62.6678)
(0 -0 63.0284)
(0 -0 63.3785)
(0 -0 63.7186)
(0 -0 64.049)
(0 -0 64.37)
(0 -0 64.682)
(0 -0 64.9852)
(0 -0 65.2798)
(0 -0 65.5658)
(0 -0 65.8435)
(0 -0 66.1125)
(0 -0 66.3726)
(0 -0 66.6233)
(0 -0 66.8639)
(0 -0 67.0936)
(0 -0 67.3114)
(0 -0 67.5163)
(0 -0 67.7073)
(0 -0 67.8831)
(0 -0 68.0428)
(0 -0 68.1851)
(0 -0 68.3091)
(0 -0 68.4135)
(0 -0 68.4979)
(0 -0 68.5609)
(0 -0 68.6019)
(0 -0 68.6208)
(0 -0 68.6146)
(0 -0 68.5885)
(0 -0 68.5308)
(0 -0 68.4611)
(0 -0 68.3467)
(0 -0 68.2401)
(0 -0 52.0355)
(0 -0 51.5529)
(0 -0 51.7731)
(0 -0 52.2114)
(0 -0 52.8128)
(0 -0 53.3829)
(0 -0 53.8723)
(0 -0 54.3291)
(0 -0 54.7759)
(0 -0 55.2084)
(0 -0 55.6231)
(0 -0 56.0217)
(0 -0 56.4064)
(0 -0 56.7786)
(0 -0 57.1388)
(0 -0 57.4879)
(0 -0 57.8263)
(0 -0 58.1547)
(0 -0 58.4736)
(0 -0 58.7833)
(0 -0 59.0843)
(0 -0 59.377)
(0 -0 59.6619)
(0 -0 59.9393)
(0 -0 60.2098)
(0 -0 60.4739)
(0 -0 60.732)
(0 -0 60.9844)
(0 -0 61.2312)
(0 -0 61.4724)
(0 -0 61.708)
(0 -0 61.9377)
(0 -0 62.1612)
(0 -0 62.378)
(0 -0 62.5876)
(0 -0 62.7896)
(0 -0 62.9834)
(0 -0 63.1683)
(0 -0 63.344)
(0 -0 63.5096)
(0 -0 63.6649)
(0 -0 63.8093)
(0 -0 63.9417)
(0 -0 64.0631)
(0 -0 64.1694)
(0 -0 64.2669)
(0 -0 64.3426)
(0 -0 64.4167)
(0 -0 64.4552)
(0 -0 64.5107)
(0 -0 48.0057)
(0 -0 47.6172)
(0 -0 47.84)
(0 -0 48.2182)
(0 -0 48.7431)
(0 -0 49.2565)
(0 -0 49.7001)
(0 -0 50.1118)
(0 -0 50.5146)
(0 -0 50.9059)
(0 -0 51.2817)
(0 -0 51.6431)
(0 -0 51.992)
(0 -0 52.3296)
(0 -0 52.6565)
(0 -0 52.9732)
(0 -0 53.2802)
(0 -0 53.5781)
(0 -0 53.8673)
(0 -0 54.1481)
(0 -0 54.421)
(0 -0 54.6863)
(0 -0 54.9445)
(0 -0 55.1961)
(0 -0 55.4416)
(0 -0 55.6817)
(0 -0 55.9167)
(0 -0 56.1472)
(0 -0 56.3735)
(0 -0 56.5956)
(0 -0 56.8137)
(0 -0 57.0277)
(0 -0 57.2375)
(0 -0 57.443)
(0 -0 57.6437)
(0 -0 57.8396)
(0 -0 58.0304)
(0 -0 58.2156)
(0 -0 58.3952)
(0 -0 58.5687)
(0 -0 58.7358)
(0 -0 58.8966)
(0 -0 59.0498)
(0 -0 59.1971)
(0 -0 59.334)
(0 -0 59.4673)
(0 -0 59.5839)
(0 -0 59.704)
(0 -0 59.7938)
(0 -0 59.905)
(0 -0 44.2479)
(0 -0 43.9334)
(0 -0 44.1554)
(0 -0 44.4816)
(0 -0 44.9371)
(0 -0 45.3966)
(0 -0 45.7973)
(0 -0 46.1671)
(0 -0 46.5288)
(0 -0 46.8815)
(0 -0 47.2209)
(0 -0 47.5474)
(0 -0 47.8626)
(0 -0 48.1677)
(0 -0 48.4631)
(0 -0 48.7493)
(0 -0 49.0268)
(0 -0 49.2959)
(0 -0 49.5571)
(0 -0 49.8106)
(0 -0 50.0569)
(0 -0 50.2962)
(0 -0 50.5291)
(0 -0 50.7561)
(0 -0 50.9777)
(0 -0 51.1944)
(0 -0 51.4069)
(0 -0 51.6154)
(0 -0 51.8205)
(0 -0 52.0222)
(0 -0 52.2206)
(0 -0 52.4157)
(0 -0 52.6075)
(0 -0 52.7958)
(0 -0 52.9805)
(0 -0 53.1614)
(0 -0 53.3382)
(0 -0 53.5109)
(0 -0 53.6793)
(0 -0 53.8433)
(0 -0 54.0024)
(0 -0 54.1571)
(0 -0 54.306)
(0 -0 54.4512)
(0 -0 54.588)
(0 -0 54.7236)
(0 -0 54.845)
(0 -0 54.9719)
(0 -0 55.0718)
(0 -0 55.1944)
(0 -0 40.7533)
(0 -0 40.4972)
(0 -0 40.7146)
(0 -0 40.9962)
(0 -0 41.3892)
(0 -0 41.7979)
(0 -0 42.1587)
(0 -0 42.4899)
(0 -0 42.8135)
(0 -0 43.1301)
(0 -0 43.4356)
(0 -0 43.7295)
(0 -0 44.0133)
(0 -0 44.2879)
(0 -0 44.554)
(0 -0 44.8116)
(0 -0 45.0614)
(0 -0 45.3035)
(0 -0 45.5384)
(0 -0 45.7663)
(0 -0 45.9876)
(0 -0 46.2025)
(0 -0 46.4116)
(0 -0 46.6154)
(0 -0 46.8143)
(0 -0 47.0091)
(0 -0 47.2001)
(0 -0 47.3879)
(0 -0 47.5727)
(0 -0 47.7547)
(0 -0 47.934)
(0 -0 48.1105)
(0 -0 48.2842)
(0 -0 48.4549)
(0 -0 48.6225)
(0 -0 48.7868)
(0 -0 48.9477)
(0 -0 49.105)
(0 -0 49.2586)
(0 -0 49.4085)
(0 -0 49.5543)
(0 -0 49.6966)
(0 -0 49.8338)
(0 -0 49.9683)
(0 -0 50.0954)
(0 -0 50.2222)
(0 -0 50.3365)
(0 -0 50.4567)
(0 -0 50.5524)
(0 -0 50.6704)
(0 -0 37.5123)
(0 -0 37.3025)
(0 -0 37.5116)
(0 -0 37.7547)
(0 -0 38.0921)
(0 -0 38.4535)
(0 -0 38.7771)
(0 -0 39.073)
(0 -0 39.3615)
(0 -0 39.6447)
(0 -0 39.9186)
(0 -0 40.1824)
(0 -0 40.437)
(0 -0 40.6835)
(0 -0 40.9221)
(0 -0 41.1533)
(0 -0 41.3772)
(0 -0 41.5942)
(0 -0 41.8045)
(0 -0 42.0085)
(0 -0 42.2064)
(0 -0 42.3986)
(0 -0 42.5854)
(0 -0 42.7675)
(0 -0 42.9453)
(0 -0 43.1195)
(0 -0 43.2905)
(0 -0 43.4588)
(0 -0 43.6247)
(0 -0 43.7882)
(0 -0 43.9495)
(0 -0 44.1084)
(0 -0 44.265)
(0 -0 44.4189)
(0 -0 44.5701)
(0 -0 44.7185)
(0 -0 44.8637)
(0 -0 45.0058)
(0 -0 45.1445)
(0 -0 45.28)
(0 -0 45.4118)
(0 -0 45.5405)
(0 -0 45.6647)
(0 -0 45.7866)
(0 -0 45.902)
(0 -0 46.0173)
(0 -0 46.1212)
(0 -0 46.2311)
(0 -0 46.3184)
(0 -0 46.427)
(0 -0 34.5141)
(0 -0 34.3417)
(0 -0 34.5386)
(0 -0 34.7487)
(0 -0 35.0372)
(0 -0 35.3548)
(0 -0 35.6439)
(0 -0 35.9077)
(0 -0 36.1642)
(0 -0 36.4166)
(0 -0 36.6615)
(0 -0 36.8974)
(0 -0 37.1252)
(0 -0 37.3456)
(0 -0 37.559)
(0 -0 37.7656)
(0 -0 37.9656)
(0 -0 38.1593)
(0 -0 38.3469)
(0 -0 38.5287)
(0 -0 38.7049)
(0 -0 38.8759)
(0 -0 39.0421)
(0 -0 39.204)
(0 -0 39.3622)
(0 -0 39.5173)
(0 -0 39.6697)
(0 -0 39.82)
(0 -0 39.9682)
(0 -0 40.1146)
(0 -0 40.2592)
(0 -0 40.4018)
(0 -0 40.5424)
(0 -0 40.6807)
(0 -0 40.8166)
(0 -0 40.95)
(0 -0 41.0806)
(0 -0 41.2083)
(0 -0 41.333)
(0 -0 41.4547)
(0 -0 41.5731)
(0 -0 41.6888)
(0 -0 41.8003)
(0 -0 41.9099)
(0 -0 42.0136)
(0 -0 42.1173)
(0 -0 42.2107)
(0 -0 42.3097)
(0 -0 42.3881)
(0 -0 42.4864)
(0 -0 31.7475)
(0 -0 31.6054)
(0 -0 31.7872)
(0 -0 31.969)
(0 -0 32.2149)
(0 -0 32.4923)
(0 -0 32.7497)
(0 -0 32.9843)
(0 -0 33.2117)
(0 -0 33.436)
(0 -0 33.6543)
(0 -0 33.8648)
(0 -0 34.0679)
(0 -0 34.2644)
(0 -0 34.4546)
(0 -0 34.6386)
(0 -0 34.8167)
(0 -0 34.9889)
(0 -0 35.1556)
(0 -0 35.3169)
(0 -0 35.4731)
(0 -0 35.6245)
(0 -0 35.7716)
(0 -0 35.9149)
(0 -0 36.055)
(0 -0 36.1924)
(0 -0 36.3277)
(0 -0 36.4612)
(0 -0 36.5932)
(0 -0 36.7238)
(0 -0 36.8529)
(0 -0 36.9805)
(0 -0 37.1064)
(0 -0 37.2303)
(0 -0 37.3521)
(0 -0 37.4716)
(0 -0 37.5886)
(0 -0 37.7031)
(0 -0 37.8147)
(0 -0 37.9237)
(0 -0 38.0296)
(0 -0 38.1331)
(0 -0 38.2329)
(0 -0 38.3309)
(0 -0 38.4236)
(0 -0 38.5163)
(0 -0 38.5999)
(0 -0 38.6885)
(0 -0 38.7584)
(0 -0 38.8467)
(0 -0 29.2002)
(0 -0 29.083)
(0 -0 29.2476)
(0 -0 29.4058)
(0 -0 29.6148)
(0 -0 29.8557)
(0 -0 30.0839)
(0 -0 30.2921)
(0 -0 30.4932)
(0 -0 30.6919)
(0 -0 30.8859)
(0 -0 31.0732)
(0 -0 31.2539)
(0 -0 31.4286)
(0 -0 31.5976)
(0 -0 31.761)
(0 -0 31.9189)
(0 -0 32.0715)
(0 -0 32.2189)
(0 -0 32.3615)
(0 -0 32.4993)
(0 -0 32.6328)
(0 -0 32.7623)
(0 -0 32.8885)
(0 -0 33.0119)
(0 -0 33.1331)
(0 -0 33.2527)
(0 -0 33.3709)
(0 -0 33.488)
(0 -0 33.6041)
(0 -0 33.7192)
(0 -0 33.833)
(0 -0 33.9453)
(0 -0 34.0561)
(0 -0 34.1649)
(0 -0 34.2717)
(0 -0 34.3763)
(0 -0 34.4785)
(0 -0 34.5781)
(0 -0 34.6754)
(0 -0 34.7698)
(0 -0 34.8621)
(0 -0 34.951)
(0 -0 35.0384)
(0 -0 35.121)
(0 -0 35.2036)
(0 -0 35.278)
(0 -0 35.3569)
(0 -0 35.419)
(0 -0 35.498)
(0 -0 26.8599)
(0 -0 26.7628)
(0 -0 26.9095)
(0 -0 27.0477)
(0 -0 27.2251)
(0 -0 27.4332)
(0 -0 27.6347)
(0 -0 27.8192)
(0 -0 27.9967)
(0 -0 28.1723)
(0 -0 28.3443)
(0 -0 28.5106)
(0 -0 28.671)
(0 -0 28.8259)
(0 -0 28.9757)
(0 -0 29.1203)
(0 -0 29.2599)
(0 -0 29.3945)
(0 -0 29.5245)
(0 -0 29.6499)
(0 -0 29.7709)
(0 -0 29.888)
(0 -0 30.0015)
(0 -0 30.1121)
(0 -0 30.2203)
(0 -0 30.3267)
(0 -0 30.4319)
(0 -0 30.5361)
(0 -0 30.6397)
(0 -0 30.7426)
(0 -0 30.8448)
(0 -0 30.946)
(0 -0 31.0461)
(0 -0 31.1448)
(0 -0 31.2419)
(0 -0 31.3371)
(0 -0 31.4303)
(0 -0 31.5213)
(0 -0 31.61)
(0 -0 31.6966)
(0 -0 31.7806)
(0 -0 31.8626)
(0 -0 31.9416)
(0 -0 32.0192)
(0 -0 32.0926)
(0 -0 32.1659)
(0 -0 32.2319)
(0 -0 32.302)
(0 -0 32.357)
(0 -0 32.4273)
(0 -0 24.7136)
(0 -0 24.6329)
(0 -0 24.7617)
(0 -0 24.8828)
(0 -0 25.0332)
(0 -0 25.2122)
(0 -0 25.3894)
(0 -0 25.5527)
(0 -0 25.7092)
(0 -0 25.8642)
(0 -0 26.0164)
(0 -0 26.1638)
(0 -0 26.3059)
(0 -0 26.443)
(0 -0 26.5753)
(0 -0 26.703)
(0 -0 26.826)
(0 -0 26.9445)
(0 -0 27.0586)
(0 -0 27.1684)
(0 -0 27.2743)
(0 -0 27.3764)
(0 -0 27.4754)
(0 -0 27.5718)
(0 -0 27.6661)
(0 -0 27.7591)
(0 -0 27.8513)
(0 -0 27.9429)
(0 -0 28.0342)
(0 -0 28.1251)
(0 -0 28.2157)
(0 -0 28.3056)
(0 -0 28.3945)
(0 -0 28.4824)
(0 -0 28.5688)
(0 -0 28.6535)
(0 -0 28.7364)
(0 -0 28.8173)
(0 -0 28.8961)
(0 -0 28.9729)
(0 -0 29.0474)
(0 -0 29.1202)
(0 -0 29.1902)
(0 -0 29.2589)
(0 -0 29.3238)
(0 -0 29.3887)
(0 -0 29.4471)
(0 -0 29.5091)
(0 -0 29.5577)
(0 -0 29.62)
(0 -0 22.7485)
(0 -0 22.6809)
(0 -0 22.7925)
(0 -0 22.8988)
(0 -0 23.0264)
(0 -0 23.1798)
(0 -0 23.3351)
(0 -0 23.4794)
(0 -0 23.6174)
(0 -0 23.7539)
(0 -0 23.8885)
(0 -0 24.019)
(0 -0 24.1447)
(0 -0 24.2658)
(0 -0 24.3826)
(0 -0 24.4951)
(0 -0 24.6032)
(0 -0 24.7071)
(0 -0 24.8069)
(0 -0 24.9027)
(0 -0 24.9948)
(0 -0 25.0835)
(0 -0 25.1693)
(0 -0 25.2529)
(0 -0 25.3348)
(0 -0 25.4156)
(0 -0 25.496)
(0 -0 25.5762)
(0 -0 25.6565)
(0 -0 25.7367)
(0 -0 25.8168)
(0 -0 25.8965)
(0 -0 25.9755)
(0 -0 26.0536)
(0 -0 26.1304)
(0 -0 26.2057)
(0 -0 26.2793)
(0 -0 26.3511)
(0 -0 26.421)
(0 -0 26.489)
(0 -0 26.555)
(0 -0 26.6193)
(0 -0 26.6812)
(0 -0 26.7419)
(0 -0 26.7993)
(0 -0 26.8565)
(0 -0 26.9081)
(0 -0 26.9627)
(0 -0 27.0055)
(0 -0 27.0606)
(0 -0 20.9515)
(0 -0 20.8944)
(0 -0 20.99)
(0 -0 21.0832)
(0 -0 21.1916)
(0 -0 21.3227)
(0 -0 21.4584)
(0 -0 21.5859)
(0 -0 21.7075)
(0 -0 21.8278)
(0 -0 21.9466)
(0 -0 22.0621)
(0 -0 22.1733)
(0 -0 22.2802)
(0 -0 22.3831)
(0 -0 22.482)
(0 -0 22.5768)
(0 -0 22.6677)
(0 -0 22.7547)
(0 -0 22.8379)
(0 -0 22.9177)
(0 -0 22.9943)
(0 -0 23.0683)
(0 -0 23.1403)
(0 -0 23.211)
(0 -0 23.281)
(0 -0 23.3508)
(0 -0 23.4209)
(0 -0 23.4912)
(0 -0 23.5619)
(0 -0 23.6326)
(0 -0 23.7032)
(0 -0 23.7734)
(0 -0 23.8427)
(0 -0 23.9109)
(0 -0 23.9778)
(0 -0 24.0432)
(0 -0 24.1068)
(0 -0 24.1687)
(0 -0 24.2289)
(0 -0 24.2872)
(0 -0 24.344)
(0 -0 24.3986)
(0 -0 24.4521)
(0 -0 24.5027)
(0 -0 24.5531)
(0 -0 24.5985)
(0 -0 24.6465)
(0 -0 24.6842)
(0 -0 24.7326)
(0 -0 19.3098)
(0 -0 19.2611)
(0 -0 19.342)
(0 -0 19.4238)
(0 -0 19.516)
(0 -0 19.6279)
(0 -0 19.7461)
(0 -0 19.8586)
(0 -0 19.966)
(0 -0 20.072)
(0 -0 20.1769)
(0 -0 20.2791)
(0 -0 20.3774)
(0 -0 20.4718)
(0 -0 20.5624)
(0 -0 20.6492)
(0 -0 20.7323)
(0 -0 20.8115)
(0 -0 20.8871)
(0 -0 20.9591)
(0 -0 21.0278)
(0 -0 21.0937)
(0 -0 21.1571)
(0 -0 21.2188)
(0 -0 21.2794)
(0 -0 21.3397)
(0 -0 21.4002)
(0 -0 21.4612)
(0 -0 21.5227)
(0 -0 21.5849)
(0 -0 21.6473)
(0 -0 21.7099)
(0 -0 21.7721)
(0 -0 21.8337)
(0 -0 21.8944)
(0 -0 21.9538)
(0 -0 22.0118)
(0 -0 22.0682)
(0 -0 22.123)
(0 -0 22.1762)
(0 -0 22.2277)
(0 -0 22.2777)
(0 -0 22.3259)
(0 -0 22.373)
(0 -0 22.4175)
(0 -0 22.4617)
(0 -0 22.5017)
(0 -0 22.5438)
(0 -0 22.5769)
(0 -0 22.6194)
(0 -0 17.8109)
(0 -0 17.7688)
(0 -0 17.8366)
(0 -0 17.9082)
(0 -0 17.9868)
(0 -0 18.0822)
(0 -0 18.185)
(0 -0 18.2843)
(0 -0 18.3792)
(0 -0 18.4728)
(0 -0 18.5656)
(0 -0 18.6561)
(0 -0 18.7431)
(0 -0 18.8265)
(0 -0 18.9062)
(0 -0 18.9824)
(0 -0 19.0549)
(0 -0 19.1239)
(0 -0 19.1894)
(0 -0 19.2514)
(0 -0 19.3103)
(0 -0 19.3665)
(0 -0 19.4205)
(0 -0 19.4731)
(0 -0 19.5248)
(0 -0 19.5765)
(0 -0 19.6286)
(0 -0 19.6815)
(0 -0 19.7354)
(0 -0 19.79)
(0 -0 19.8452)
(0 -0 19.9006)
(0 -0 19.9559)
(0 -0 20.0107)
(0 -0 20.0647)
(0 -0 20.1175)
(0 -0 20.169)
(0 -0 20.219)
(0 -0 20.2675)
(0 -0 20.3146)
(0 -0 20.36)
(0 -0 20.4041)
(0 -0 20.4466)
(0 -0 20.4879)
(0 -0 20.5271)
(0 -0 20.5659)
(0 -0 20.601)
(0 -0 20.6379)
(0 -0 20.667)
(0 -0 20.7041)
(0 -0 16.4425)
(0 -0 16.4056)
(0 -0 16.462)
(0 -0 16.5244)
(0 -0 16.5918)
(0 -0 16.6732)
(0 -0 16.7624)
(0 -0 16.8501)
(0 -0 16.9342)
(0 -0 17.017)
(0 -0 17.0992)
(0 -0 17.1794)
(0 -0 17.2566)
(0 -0 17.3303)
(0 -0 17.4005)
(0 -0 17.4673)
(0 -0 17.5307)
(0 -0 17.5906)
(0 -0 17.6471)
(0 -0 17.7003)
(0 -0 17.7506)
(0 -0 17.7982)
(0 -0 17.8439)
(0 -0 17.8883)
(0 -0 17.9321)
(0 -0 17.9762)
(0 -0 18.021)
(0 -0 18.0668)
(0 -0 18.1138)
(0 -0 18.1618)
(0 -0 18.2106)
(0 -0 18.2598)
(0 -0 18.3091)
(0 -0 18.3579)
(0 -0 18.406)
(0 -0 18.4531)
(0 -0 18.4989)
(0 -0 18.5434)
(0 -0 18.5863)
(0 -0 18.6279)
(0 -0 18.6681)
(0 -0 18.7069)
(0 -0 18.7443)
(0 -0 18.7807)
(0 -0 18.8152)
(0 -0 18.8492)
(0 -0 18.88)
(0 -0 18.9122)
(0 -0 18.9377)
(0 -0 18.9701)
(0 -0 15.1932)
(0 -0 15.1604)
(0 -0 15.207)
(0 -0 15.2611)
(0 -0 15.3191)
(0 -0 15.3886)
(0 -0 15.4661)
(0 -0 15.5436)
(0 -0 15.6184)
(0 -0 15.6919)
(0 -0 15.7649)
(0 -0 15.8362)
(0 -0 15.9048)
(0 -0 15.97)
(0 -0 16.032)
(0 -0 16.0906)
(0 -0 16.1459)
(0 -0 16.1978)
(0 -0 16.2465)
(0 -0 16.2919)