/*--------------------------------*- C++ -*----------------------------------*\
  =========                 |
  \\      /  F ield         | OpenFOAM: The Open Source CFD Toolbox
   \\    /   O peration     | Website:  https://openfoam.org
    \\  /    A nd           | Version:  7
     \\/     M anipulation  |
\*---------------------------------------------------------------------------*/
FoamFile
{
    version     2.0;
    format      ascii;
    class       volVectorField;
    location    "0.24";
    object      wallShearStress;
}
// * * * * * * * * * * * * * * * * * * * * * * * * * * * * * * * * * * * * * //

dimensions      [0 2 -2 0 0 0 0];

internalField   uniform (0 0 0);

boundaryField
{
    velocityInlet
    {
        type            calculated;
        value           uniform (0 0 0);
    }
    pressureOutlet
    {
        type            calculated;
        value           uniform (0 0 0);
    }
    fixedWalls
    {
        type            calculated;
        value           nonuniform List<vector> 
100
(
(-0.0253698 -0.00902089 0)
(0.00246174 -0.00186465 0)
(-0.000537596 0.000688771 0)
(-0.000674674 0.000165419 0)
(-0.00168457 0.000179056 0)
(-0.00236197 0.000125065 0)
(-0.00278283 8.32274e-05 0)
(-0.00301203 5.35324e-05 0)
(-0.00313352 3.62718e-05 0)
(-0.00320388 2.73944e-05 0)
(-0.00323109 1.84072e-05 0)
(-0.00317094 -2.41514e-06 0)
(-0.00294305 -3.91672e-05 0)
(-0.00251932 -7.21832e-05 0)
(-0.00223297 -3.43199e-05 0)
(-0.0029445 0.000150176 0)
(-0.00511629 0.000357058 0)
(-0.00770099 0.00039167 0)
(-0.00865054 0.000117059 0)
(-0.00547039 -0.000633367 0)
(0.00161055 -0.00113414 0)
(0.00800838 -0.000939509 0)
(0.0102021 -0.000269931 0)
(0.00830166 0.000319976 0)
(0.00439053 0.000518303 0)
(0.000535944 0.000442206 0)
(-0.00219931 0.000282231 0)
(-0.00370894 0.000141918 0)
(-0.00437903 6.00273e-05 0)
(-0.00459239 2.13313e-05 0)
(-0.00458579 2.42996e-06 0)
(-0.00447738 -7.9763e-06 0)
(-0.00434631 -9.21752e-06 0)
(-0.00427834 2.57455e-06 0)
(-0.00431676 1.94597e-05 0)
(-0.00436271 2.22286e-05 0)
(-0.00419092 -1.27735e-05 0)
(-0.00364151 -6.55497e-05 0)
(-0.0028309 -9.71751e-05 0)
(-0.00208322 -8.55684e-05 0)
(-0.00164897 -4.73749e-05 0)
(-0.00155061 -1.51927e-05 0)
(-0.00167976 3.64831e-06 0)
(-0.00200374 2.42138e-05 0)
(-0.00261879 6.17144e-05 0)
(-0.00354577 9.95617e-05 0)
(-0.0046548 0.00012466 0)
(-0.00591068 0.00015907 0)
(-0.00710906 0.000171745 0)
(-0.00743495 7.58493e-05 0)
(-0.00578158 -0.000190564 0)
(-0.00175996 -0.000518108 0)
(0.00314564 -0.000568393 0)
(0.00660594 -0.000396898 0)
(0.00766091 -0.00010173 0)
(0.00647973 0.000143536 0)
(0.00412929 0.000243662 0)
(0.00166362 0.000232892 0)
(-0.000361205 0.000180574 0)
(-0.00176811 0.00012049 0)
(-0.00264714 7.37813e-05 0)
(-0.00314266 4.17448e-05 0)
(-0.00338579 2.11164e-05 0)
(-0.0034751 9.17739e-06 0)
(-0.00347949 2.53385e-06 0)
(-0.0034429 -4.50292e-07 0)
(-0.00338856 -1.53193e-06 0)
(-0.00332187 -2.4784e-06 0)
(-0.00323729 -4.26187e-06 0)
(-0.00312722 -6.94672e-06 0)
(-0.00298933 -9.92802e-06 0)
(-0.00283127 -1.20475e-05 0)
(-0.0026721 -1.18135e-05 0)
(-0.00253538 -8.8335e-06 0)
(-0.00243018 -5.39366e-06 0)
(-0.00233416 -5.77015e-06 0)
(-0.00220411 -1.17179e-05 0)
(-0.00202058 -1.91432e-05 0)
(-0.00182833 -2.03434e-05 0)
(-0.00172577 -1.10065e-05 0)
(-0.00180881 8.97778e-06 0)
(-0.00210633 2.9966e-05 0)
(-0.00254529 4.28175e-05 0)
(-0.00293766 3.71572e-05 0)
(-0.00299491 4.99232e-06 0)
(-0.0024455 -4.9101e-05 0)
(-0.00140524 -8.31678e-05 0)
(-0.000439462 -6.26917e-05 0)
(-8.25644e-05 -1.09797e-05 0)
(-0.000278942 2.30657e-05 0)
(-0.000599032 2.19328e-05 0)
(-0.000682212 -3.86588e-06 0)
(-0.000476475 -2.98604e-05 0)
(-0.000108652 -3.97374e-05 0)
(0.000210431 -3.22367e-05 0)
(0.000272087 -1.02677e-05 0)
(9.24434e-05 1.46325e-05 0)
(-0.00042861 3.37636e-05 0)
(-0.000930959 4.39479e-05 0)
(-0.00177036 3.5613e-05 0)
)
;
    }
    bottomWall
    {
        type            calculated;
        value           nonuniform List<vector> 
800
(
(-0.0353512 0.00216563 0)
(-0.0160363 0.000524971 0)
(-0.0105901 0.000100562 0)
(-0.00845512 3.45967e-05 0)
(-0.00749089 1.96904e-05 0)
(-0.00685504 1.60189e-05 0)
(-0.0063461 1.32185e-05 0)
(-0.00593476 1.07685e-05 0)
(-0.00560007 8.96744e-06 0)
(-0.00532128 7.66736e-06 0)
(-0.00508381 6.6823e-06 0)
(-0.00487824 5.90405e-06 0)
(-0.0046981 5.27369e-06 0)
(-0.00453865 4.75431e-06 0)
(-0.00439631 4.32025e-06 0)
(-0.00426829 3.95298e-06 0)
(-0.00415242 3.63878e-06 0)
(-0.00404694 3.36739e-06 0)
(-0.00395046 3.13097e-06 0)
(-0.0038618 2.92347e-06 0)
(-0.00378 2.74013e-06 0)
(-0.00370427 2.57716e-06 0)
(-0.00363392 2.4315e-06 0)
(-0.00356837 2.30066e-06 0)
(-0.00350713 2.18261e-06 0)
(-0.00344976 2.07565e-06 0)
(-0.00339591 1.97835e-06 0)
(-0.00334524 1.88954e-06 0)
(-0.00329748 1.80818e-06 0)
(-0.00325237 1.73343e-06 0)
(-0.00320969 1.66454e-06 0)
(-0.00316924 1.60089e-06 0)
(-0.00313086 1.54192e-06 0)
(-0.00309438 1.48716e-06 0)
(-0.00305967 1.4362e-06 0)
(-0.00302659 1.38867e-06 0)
(-0.00299503 1.34426e-06 0)
(-0.0029649 1.30268e-06 0)
(-0.00293609 1.26367e-06 0)
(-0.00290852 1.22703e-06 0)
(-0.00288211 1.19255e-06 0)
(-0.00285679 1.16004e-06 0)
(-0.0028325 1.12938e-06 0)
(-0.00280917 1.10034e-06 0)
(-0.00278675 1.07298e-06 0)
(-0.00276519 1.0468e-06 0)
(-0.00274443 1.02243e-06 0)
(-0.00272445 9.98443e-07 0)
(-0.00270518 9.76873e-07 0)
(-0.00268662 9.5384e-07 0)
(-0.0026711 9.34953e-07 0)
(-0.00265828 9.24234e-07 0)
(-0.00264563 9.10499e-07 0)
(-0.00263318 8.95847e-07 0)
(-0.00262091 8.82112e-07 0)
(-0.00260884 8.69041e-07 0)
(-0.00259694 8.56277e-07 0)
(-0.00258521 8.43781e-07 0)
(-0.00257366 8.3158e-07 0)
(-0.00256227 8.19669e-07 0)
(-0.00255104 8.08032e-07 0)
(-0.00253997 7.96655e-07 0)
(-0.00252905 7.85531e-07 0)
(-0.00251829 7.74652e-07 0)
(-0.00250768 7.64011e-07 0)
(-0.00249721 7.53601e-07 0)
(-0.00248688 7.43414e-07 0)
(-0.00247669 7.33444e-07 0)
(-0.00246664 7.23686e-07 0)
(-0.00245672 7.14132e-07 0)
(-0.00244693 7.04778e-07 0)
(-0.00243726 6.95617e-07 0)
(-0.00242773 6.86643e-07 0)
(-0.00241831 6.77852e-07 0)
(-0.00240902 6.69239e-07 0)
(-0.00239984 6.60797e-07 0)
(-0.00239078 6.52522e-07 0)
(-0.00238183 6.44411e-07 0)
(-0.00237299 6.36458e-07 0)
(-0.00236426 6.28658e-07 0)
(-0.00235563 6.21008e-07 0)
(-0.00234711 6.13504e-07 0)
(-0.00233869 6.06141e-07 0)
(-0.00233038 5.98916e-07 0)
(-0.00232216 5.91825e-07 0)
(-0.00231404 5.84865e-07 0)
(-0.00230601 5.78033e-07 0)
(-0.00229808 5.71324e-07 0)
(-0.00229024 5.64738e-07 0)
(-0.00228248 5.5827e-07 0)
(-0.00227482 5.51918e-07 0)
(-0.00226724 5.45679e-07 0)
(-0.00225975 5.3955e-07 0)
(-0.00225234 5.33529e-07 0)
(-0.00224502 5.27613e-07 0)
(-0.00223777 5.218e-07 0)
(-0.00223061 5.16087e-07 0)
(-0.00222352 5.10472e-07 0)
(-0.00221651 5.04953e-07 0)
(-0.00220957 4.99528e-07 0)
(-0.00220271 4.94193e-07 0)
(-0.00219592 4.88948e-07 0)
(-0.00218921 4.83791e-07 0)
(-0.00218256 4.78718e-07 0)
(-0.00217598 4.7373e-07 0)
(-0.00216948 4.68823e-07 0)
(-0.00216303 4.63996e-07 0)
(-0.00215666 4.59248e-07 0)
(-0.00215035 4.54576e-07 0)
(-0.0021441 4.4998e-07 0)
(-0.00213792 4.45458e-07 0)
(-0.0021318 4.41008e-07 0)
(-0.00212573 4.36629e-07 0)
(-0.00211973 4.3232e-07 0)
(-0.00211379 4.28079e-07 0)
(-0.00210791 4.23904e-07 0)
(-0.00210208 4.19794e-07 0)
(-0.00209631 4.15748e-07 0)
(-0.00209059 4.11765e-07 0)
(-0.00208493 4.07842e-07 0)
(-0.00207933 4.0398e-07 0)
(-0.00207377 4.00176e-07 0)
(-0.00206827 3.96429e-07 0)
(-0.00206282 3.92737e-07 0)
(-0.00205742 3.89101e-07 0)
(-0.00205207 3.85518e-07 0)
(-0.00204677 3.81989e-07 0)
(-0.00204152 3.78512e-07 0)
(-0.00203631 3.75086e-07 0)
(-0.00203115 3.71709e-07 0)
(-0.00202604 3.68382e-07 0)
(-0.00202097 3.65105e-07 0)
(-0.00201595 3.61876e-07 0)
(-0.00201097 3.58693e-07 0)
(-0.00200604 3.55556e-07 0)
(-0.00200115 3.52464e-07 0)
(-0.0019963 3.4942e-07 0)
(-0.00199149 3.46418e-07 0)
(-0.00198673 3.43464e-07 0)
(-0.001982 3.40546e-07 0)
(-0.00197732 3.37683e-07 0)
(-0.00197267 3.34844e-07 0)
(-0.00196806 3.32074e-07 0)
(-0.0019635 3.29304e-07 0)
(-0.00195896 3.26634e-07 0)
(-0.00195447 3.23915e-07 0)
(-0.00195001 3.21361e-07 0)
(-0.00194559 3.1866e-07 0)
(-0.0019412 3.1621e-07 0)
(-0.00193685 3.13446e-07 0)
(-0.0019332 3.10986e-07 0)
(-0.00193022 3.09717e-07 0)
(-0.00192723 3.08181e-07 0)
(-0.00192423 3.06411e-07 0)
(-0.00192123 3.04662e-07 0)
(-0.00191823 3.02959e-07 0)
(-0.00191522 3.01289e-07 0)
(-0.00191221 2.99622e-07 0)
(-0.00190919 2.97956e-07 0)
(-0.00190617 2.96303e-07 0)
(-0.00190314 2.9465e-07 0)
(-0.00190011 2.93008e-07 0)
(-0.00189708 2.9138e-07 0)
(-0.00189404 2.8975e-07 0)
(-0.001891 2.88135e-07 0)
(-0.00188795 2.86523e-07 0)
(-0.0018849 2.84917e-07 0)
(-0.00188184 2.8332e-07 0)
(-0.00187878 2.81728e-07 0)
(-0.00187572 2.80145e-07 0)
(-0.00187265 2.78564e-07 0)
(-0.00186958 2.76993e-07 0)
(-0.00186651 2.75435e-07 0)
(-0.00186343 2.73875e-07 0)
(-0.00186034 2.72331e-07 0)
(-0.00185726 2.70789e-07 0)
(-0.00185416 2.69251e-07 0)
(-0.00185107 2.67724e-07 0)
(-0.00184797 2.66198e-07 0)
(-0.00184487 2.64681e-07 0)
(-0.00184176 2.63179e-07 0)
(-0.00183865 2.61674e-07 0)
(-0.00183553 2.60186e-07 0)
(-0.00183241 2.58699e-07 0)
(-0.00182929 2.57218e-07 0)
(-0.00182616 2.55751e-07 0)
(-0.00182303 2.54282e-07 0)
(-0.0018199 2.52826e-07 0)
(-0.00181676 2.51382e-07 0)
(-0.00181362 2.49936e-07 0)
(-0.00181047 2.48511e-07 0)
(-0.00180732 2.47085e-07 0)
(-0.00180417 2.45665e-07 0)
(-0.00180101 2.44255e-07 0)
(-0.00179785 2.42853e-07 0)
(-0.00179468 2.41465e-07 0)
(-0.00179152 2.40071e-07 0)
(-0.00178834 2.38694e-07 0)
(-0.00178517 2.37333e-07 0)
(-0.00178199 2.35969e-07 0)
(-0.0017788 2.34627e-07 0)
(-0.00177561 2.33284e-07 0)
(-0.00177242 2.31947e-07 0)
(-0.00176923 2.30629e-07 0)
(-0.00176603 2.29304e-07 0)
(-0.00176282 2.27999e-07 0)
(-0.00175961 2.26709e-07 0)
(-0.0017564 2.25415e-07 0)
(-0.00175319 2.2415e-07 0)
(-0.00174997 2.22885e-07 0)
(-0.00174674 2.21624e-07 0)
(-0.00174352 2.20387e-07 0)
(-0.00174028 2.19133e-07 0)
(-0.00173705 2.1791e-07 0)
(-0.00173381 2.16702e-07 0)
(-0.00173056 2.15502e-07 0)
(-0.00172731 2.14328e-07 0)
(-0.00172406 2.13149e-07 0)
(-0.0017208 2.11978e-07 0)
(-0.00171754 2.10832e-07 0)
(-0.00171427 2.09692e-07 0)
(-0.001711 2.08579e-07 0)
(-0.00170772 2.07444e-07 0)
(-0.00170444 2.06361e-07 0)
(-0.00170115 2.05278e-07 0)
(-0.00169786 2.04234e-07 0)
(-0.00169456 2.03179e-07 0)
(-0.00169125 2.022e-07 0)
(-0.00168795 2.01108e-07 0)
(-0.00168463 2.00265e-07 0)
(-0.00168131 1.99072e-07 0)
(-0.00167797 1.98456e-07 0)
(-0.00167464 1.97021e-07 0)
(-0.00167129 1.96963e-07 0)
(-0.00166796 1.94832e-07 0)
(-0.00166456 1.9603e-07 0)
(-0.00166125 1.92067e-07 0)
(-0.00165779 1.96221e-07 0)
(-0.00165453 1.8796e-07 0)
(-0.00165094 1.9879e-07 0)
(-0.00164781 1.80774e-07 0)
(-0.00164398 2.0642e-07 0)
(-0.00164115 1.66905e-07 0)
(-0.00163683 2.24229e-07 0)
(-0.00163459 1.39614e-07 0)
(-0.00162942 2.60725e-07 0)
(-0.00162821 8.81178e-08 0)
(-0.00162171 3.25469e-07 0)
(-0.001622 6.77643e-09 0)
(-0.00161374 3.57831e-07 0)
(-0.0353512 -0.00216562 0)
(-0.0160365 -0.000524961 0)
(-0.0105907 -0.000100551 0)
(-0.00845599 -3.45867e-05 0)
(-0.00749203 -1.96816e-05 0)
(-0.00685641 -1.60116e-05 0)
(-0.00634762 -1.32127e-05 0)
(-0.00593636 -1.07643e-05 0)
(-0.0056017 -8.96445e-06 0)
(-0.0053229 -7.6652e-06 0)
(-0.00508541 -6.68052e-06 0)
(-0.00487981 -5.90227e-06 0)
(-0.00469964 -5.2716e-06 0)
(-0.00454018 -4.75167e-06 0)
(-0.00439782 -4.31694e-06 0)
(-0.00426982 -3.94888e-06 0)
(-0.00415397 -3.63378e-06 0)
(-0.00404854 -3.36132e-06 0)
(-0.00395212 -3.12363e-06 0)
(-0.00386356 -2.91459e-06 0)
(-0.0037819 -2.72938e-06 0)
(-0.00370634 -2.56415e-06 0)
(-0.00363621 -2.41579e-06 0)
(-0.00357096 -2.28177e-06 0)
(-0.00351008 -2.15998e-06 0)
(-0.00345316 -2.04869e-06 0)
(-0.00339984 -1.94638e-06 0)
(-0.00334982 -1.85184e-06 0)
(-0.00330282 -1.76384e-06 0)
(-0.0032586 -1.68159e-06 0)
(-0.00321696 -1.60391e-06 0)
(-0.00317773 -1.53043e-06 0)
(-0.00314076 -1.4597e-06 0)
(-0.0031059 -1.39191e-06 0)
(-0.00307306 -1.3251e-06 0)
(-0.00304215 -1.25987e-06 0)
(-0.00301305 -1.19434e-06 0)
(-0.00298586 -1.12749e-06 0)
(-0.0029602 -1.06188e-06 0)
(-0.00293673 -9.85732e-07 0)
(-0.00291421 -9.23382e-07 0)
(-0.00289487 -8.20492e-07 0)
(-0.002875 -7.79168e-07 0)
(-0.00286092 -6.05943e-07 0)
(-0.00284267 -6.48433e-07 0)
(-0.00283602 -2.79036e-07 0)
(-0.0028177 -6.72221e-07 0)
(-0.00281953 6.07375e-07 0)
(-0.00281314 -6.61152e-06 0)
(-0.00259072 0.000190065 0)
(-8.88698e-06 7.28572e-06 0)
(3.0903e-07 4.36516e-06 0)
(2.28067e-06 -1.03898e-05 0)
(3.74947e-06 -2.09584e-05 0)
(9.54939e-06 -3.46904e-05 0)
(1.9379e-05 -5.80818e-05 0)
(3.16119e-05 -9.66856e-05 0)
(4.45428e-05 -0.000152096 0)
(5.72689e-05 -0.000223856 0)
(6.94126e-05 -0.000310754 0)
(8.06958e-05 -0.000411399 0)
(9.07481e-05 -0.000524144 0)
(9.91764e-05 -0.000646963 0)
(0.000105692 -0.000777497 0)
(0.000110163 -0.000913232 0)
(0.000112589 -0.00105168 0)
(0.00011304 -0.00119048 0)
(0.000111623 -0.00132744 0)
(0.000108478 -0.00146059 0)
(0.000103804 -0.00158822 0)
(9.78467e-05 -0.00170892 0)
(9.08823e-05 -0.0018216 0)
(8.3197e-05 -0.00192549 0)
(7.50736e-05 -0.00202016 0)
(6.67684e-05 -0.00210551 0)
(5.84903e-05 -0.00218168 0)
(5.03827e-05 -0.00224906 0)
(4.25127e-05 -0.00230815 0)
(3.48705e-05 -0.00235952 0)
(2.73868e-05 -0.0024037 0)
(1.99437e-05 -0.00244114 0)
(1.24075e-05 -0.00247211 0)
(4.61085e-06 -0.00249677 0)
(-3.59982e-06 -0.00251502 0)
(-1.23621e-05 -0.00252667 0)
(-2.19081e-05 -0.00253133 0)
(-3.23782e-05 -0.00252831 0)
(-4.35688e-05 -0.00251694 0)
(-5.53106e-05 -0.00249673 0)
(-6.71618e-05 -0.00246741 0)
(-7.87134e-05 -0.00242895 0)
(-8.96908e-05 -0.00238151 0)
(-9.99027e-05 -0.00232543 0)
(-0.000109259 -0.00226125 0)
(-0.000117748 -0.00218956 0)
(-0.000125408 -0.00211107 0)
(-0.000132307 -0.00202647 0)
(-0.000138529 -0.00193648 0)
(-0.000144177 -0.00184173 0)
(-0.00014935 -0.00174279 0)
(-0.000154119 -0.00164016 0)
(-0.000158512 -0.0015343 0)
(-0.000162506 -0.00142558 0)
(-0.000166021 -0.00131439 0)
(-0.00016894 -0.00120111 0)
(-0.00017113 -0.00108614 0)
(-0.000172452 -0.00096992 0)
(-0.000172763 -0.00085292 0)
(-0.000171865 -0.000735643 0)
(-0.000169517 -0.000618684 0)
(-0.000165413 -0.000502649 0)
(-0.000159117 -0.000388374 0)
(-0.000150282 -0.000276668 0)
(-0.000138214 -0.000168757 0)
(-0.000123432 -6.75447e-05 0)
(-0.000110325 2.71132e-05 0)
(-9.79888e-05 0.000120839 0)
(-7.36603e-05 0.000213318 0)
(-3.07029e-05 0.000294505 0)
(2.2546e-05 0.000354589 0)
(7.31928e-05 0.00039192 0)
(0.000111952 0.00040917 0)
(0.000132386 0.000411382 0)
(0.000134601 0.000412222 0)
(0.000117979 0.000414134 0)
(8.37045e-05 0.000409162 0)
(4.11897e-05 0.000404739 0)
(-2.97005e-07 0.000408279 0)
(-3.37603e-05 0.000422577 0)
(-5.65491e-05 0.000442799 0)
(-6.9272e-05 0.000464227 0)
(-7.38182e-05 0.00048491 0)
(-7.17059e-05 0.000504251 0)
(-6.42235e-05 0.000521603 0)
(-5.23729e-05 0.000536071 0)
(-3.66506e-05 0.000546548 0)
(-1.71295e-05 0.000551275 0)
(5.34284e-06 0.000547665 0)
(2.75996e-05 0.000534072 0)
(4.65665e-05 0.000511276 0)
(6.09968e-05 0.000481706 0)
(7.11576e-05 0.000447392 0)
(7.74592e-05 0.000409643 0)
(7.98934e-05 0.000369949 0)
(7.83695e-05 0.000330455 0)
(7.33678e-05 0.000293796 0)
(6.61363e-05 0.000261968 0)
(5.78862e-05 0.000235624 0)
(4.92293e-05 0.000214718 0)
(4.04619e-05 0.000198918 0)
(3.19168e-05 0.000187783 0)
(2.43175e-05 0.000180665 0)
(1.88006e-05 0.000176415 0)
(1.66239e-05 0.000173286 0)
(1.86745e-05 0.00016898 0)
(2.49845e-05 0.000161079 0)
(3.44819e-05 0.000147547 0)
(4.50294e-05 0.000127303 0)
(5.38559e-05 0.000100707 0)
(5.83849e-05 6.97159e-05 0)
(5.68643e-05 3.75233e-05 0)
(4.89609e-05 8.10608e-06 0)
(3.62432e-05 -1.47501e-05 0)
(2.16278e-05 -2.89553e-05 0)
(8.01038e-06 -3.41405e-05 0)
(-1.91273e-06 -3.1112e-05 0)
(-6.06925e-06 -2.22001e-05 0)
(-3.68493e-06 -1.05283e-05 0)
(4.61669e-06 9.14732e-07 0)
(1.72577e-05 9.98111e-06 0)
(3.16796e-05 1.59405e-05 0)
(4.44939e-05 2.04039e-05 0)
(5.25443e-05 2.74673e-05 0)
(5.39223e-05 4.05317e-05 0)
(4.47603e-05 5.66904e-05 0)
(1.22666e-05 6.82847e-05 0)
(-6.49492e-05 7.8206e-05 0)
(-0.000198889 0.000115913 0)
(-0.00036353 0.000223568 0)
(-0.000501003 0.000409041 0)
(-0.000570774 0.000625254 0)
(-0.000581804 0.00081974 0)
(-0.000563157 0.000980469 0)
(-0.000530693 0.00111996 0)
(-0.0004879 0.001244 0)
(-0.000436767 0.00135143 0)
(-0.000379626 0.00144113 0)
(-0.000318544 0.00151279 0)
(-0.000255376 0.00156645 0)
(-0.000191752 0.00160255 0)
(-0.000128894 0.00162205 0)
(-6.75372e-05 0.00162603 0)
(-9.00194e-06 0.00161538 0)
(4.68455e-05 0.0015925 0)
(0.000100863 0.00155768 0)
(0.000152755 0.0015119 0)
(0.00020288 0.00145579 0)
(0.000251373 0.00138995 0)
(0.00029843 0.0013149 0)
(0.000344154 0.00123105 0)
(0.00038857 0.00113873 0)
(0.000431591 0.00103824 0)
(0.000472996 0.000929817 0)
(0.000512419 0.000813678 0)
(0.000549326 0.000690089 0)
(0.000583017 0.000559421 0)
(0.000612631 0.000422253 0)
(0.000637228 0.000279478 0)
(0.000655933 0.00013236 0)
(0.000667962 -1.75504e-05 0)
(0.000672664 -0.000168441 0)
(0.000669658 -0.000318367 0)
(0.000658852 -0.000465333 0)
(0.000640474 -0.000607479 0)
(0.000614979 -0.000743253 0)
(0.00058296 -0.000871383 0)
(0.000545121 -0.0009909 0)
(0.000502183 -0.00110111 0)
(0.000454846 -0.00120154 0)
(0.00040374 -0.00129187 0)
(0.000349423 -0.00137187 0)
(0.000292385 -0.00144139 0)
(0.000233076 -0.00150028 0)
(0.000171924 -0.00154845 0)
(0.000109354 -0.001586 0)
(4.56296e-05 -0.00161315 0)
(-1.85288e-05 -0.00163002 0)
(-8.40285e-05 -0.00163682 0)
(-0.000150998 -0.00163228 0)
(-0.000217602 -0.00161648 0)
(-0.000282905 -0.00158967 0)
(-0.000346307 -0.00155215 0)
(-0.000407142 -0.00150427 0)
(-0.000464619 -0.00144631 0)
(-0.00051775 -0.00137857 0)
(-0.000565439 -0.00130168 0)
(-0.000606696 -0.00121636 0)
(-0.000640414 -0.00112309 0)
(-0.000665245 -0.00102235 0)
(-0.000679646 -0.000914659 0)
(-0.000681851 -0.000800583 0)
(-0.000669939 -0.000681069 0)
(-0.000642123 -0.000558805 0)
(-0.000597781 -0.000440818 0)
(-0.000539742 -0.000341485 0)
(-0.000477973 -0.000284627 0)
(-0.000435036 -0.00030342 0)
(-0.000451315 -0.000436323 0)
(-0.000572631 -0.000704942 0)
(-0.000813754 -0.00108345 0)
(-4.44476e-07 1.06762e-05 0)
(-3.75913e-06 6.35797e-06 0)
(-7.6815e-07 7.03706e-06 0)
(-2.60474e-06 1.10722e-05 0)
(-9.05607e-06 1.61698e-05 0)
(-1.92993e-05 2.2001e-05 0)
(-3.341e-05 2.91624e-05 0)
(-5.35888e-05 3.82017e-05 0)
(-8.27558e-05 4.88756e-05 0)
(-0.000123073 6.05131e-05 0)
(-0.000175628 7.24669e-05 0)
(-0.000241088 8.45333e-05 0)
(-0.000320243 9.63987e-05 0)
(-0.000412657 0.000106848 0)
(-0.000515371 0.000113901 0)
(-0.00062331 0.000115028 0)
(-0.000728447 0.000107374 0)
(-0.000820852 9.09275e-05 0)
(-0.000893623 6.81999e-05 0)
(-0.000945925 4.04832e-05 0)
(-0.00097664 3.66997e-06 0)
(-0.000980848 -4.03895e-05 0)
(-0.00095639 -8.2317e-05 0)
(-0.00091104 -0.000113799 0)
(-0.00085556 -0.000131443 0)
(-0.000793365 -0.000138739 0)
(-0.000713497 -0.000126063 0)
(-0.000625755 -7.3679e-05 0)
(-0.000559446 1.65902e-05 0)
(-0.000524922 8.20873e-05 0)
(-0.00051504 7.0842e-05 0)
(-0.000464982 -1.94879e-05 0)
(-0.000320493 -0.000125486 0)
(-0.00013975 -0.000147816 0)
(-6.14947e-06 -0.000116415 0)
(8.84756e-05 -0.000105142 0)
(0.000166668 -9.83914e-05 0)
(0.000218099 -7.23005e-05 0)
(0.000224539 -2.37585e-05 0)
(0.000177251 3.78463e-05 0)
(7.47964e-05 0.000106761 0)
(-8.97736e-05 0.000180095 0)
(-0.000312732 0.000246445 0)
(-0.000570442 0.000298262 0)
(-0.000859109 0.000337849 0)
(-0.0011743 0.000363575 0)
(-0.00150441 0.00037188 0)
(-0.00183408 0.000358839 0)
(-0.0021455 0.000322809 0)
(-0.00241988 0.000263585 0)
(-0.00263852 0.000182916 0)
(-0.00278475 8.47795e-05 0)
(-0.00284658 -2.51684e-05 0)
(-0.00281509 -0.000140701 0)
(-0.00268739 -0.000250059 0)
(-0.00247427 -0.000339957 0)
(-0.00219492 -0.00040097 0)
(-0.00187563 -0.000428468 0)
(-0.00154452 -0.000424513 0)
(-0.00122535 -0.00039636 0)
(-0.000934017 -0.000353229 0)
(-0.000678519 -0.000303862 0)
(-0.000460768 -0.000255012 0)
(-0.000278609 -0.000211092 0)
(-0.000127481 -0.000174388 0)
(-1.38783e-06 -0.000145522 0)
(0.000105632 -0.000123211 0)
(0.000194842 -0.000105433 0)
(0.000270136 -9.33746e-05 0)
(0.000339296 -8.69655e-05 0)
(0.000405789 -8.47451e-05 0)
(0.000472029 -8.57099e-05 0)
(0.000539848 -8.89557e-05 0)
(0.000611129 -9.3798e-05 0)
(0.000686724 -9.95204e-05 0)
(0.000767549 -0.000105927 0)
(0.000854158 -0.000112823 0)
(0.000947491 -0.000120731 0)
(0.00104912 -0.000130584 0)
(0.00116437 -0.000142146 0)
(0.00130129 -0.000142358 0)
(0.00145177 -0.000100666 0)
(0.00156416 -3.14821e-06 0)
(0.00157999 8.44896e-05 0)
(0.00153198 6.0015e-05 0)
(0.00153344 -8.43102e-05 0)
(0.00165071 -0.000211353 0)
(0.00182095 -0.000180165 0)
(0.00187061 -1.61088e-05 0)
(0.00173858 0.000141577 0)
(0.00152526 0.000226424 0)
(0.00129274 0.000259506 0)
(0.00106236 0.000256489 0)
(0.000854887 0.000238317 0)
(0.000670711 0.00022029 0)
(0.000505357 0.000207876 0)
(0.000346581 0.000199594 0)
(0.000187175 0.000185325 0)
(2.07304e-05 0.000126344 0)
(-3.88257e-05 -1.17484e-05 0)
(-3.58367e-05 -1.39521e-05 0)
(4.37193e-05 4.96158e-05 0)
(6.56257e-05 0.000164 0)
(6.11603e-05 0.00024746 0)
(7.37658e-05 0.000364232 0)
(7.68238e-05 0.000490805 0)
(8.27474e-05 0.000625085 0)
(7.85645e-05 0.000755582 0)
(4.98029e-05 0.000842294 0)
(2.72878e-06 0.000868064 0)
(-3.09024e-05 0.000847266 0)
(-3.50877e-05 0.000818165 0)
(-3.4218e-05 0.000781919 0)
(-6.96918e-05 0.000685866 0)
(-0.000169208 0.000466616 0)
(-0.00031853 7.77481e-05 0)
(-0.000433444 -0.00045887 0)
(-0.000494039 -0.00102768 0)
(-0.00050889 -0.00160851 0)
(-0.000468575 -0.00217727 0)
(-0.000357767 -0.0026763 0)
(-0.000176088 -0.00303114 0)
(6.40984e-05 -0.00318651 0)
(0.000339032 -0.00309081 0)
(0.000603335 -0.0027202 0)
(0.000791508 -0.00209366 0)
(0.00082709 -0.00131399 0)
(0.000677281 -0.000545791 0)
(0.000398926 2.93137e-05 0)
(0.000108076 0.000322272 0)
(-8.362e-05 0.000386977 0)
(-0.000179496 0.000337817 0)
(-0.000187537 0.000226228 0)
(-0.000108275 1.15717e-05 0)
(9.31938e-05 -0.000183516 0)
(0.000253852 -0.000302778 0)
(0.000390096 -0.000309392 0)
(0.000317086 -9.73198e-05 0)
(-0.000195894 6.6201e-05 0)
(-0.000687728 -6.89809e-05 0)
(-0.000820098 -0.000287668 0)
(-0.000789309 -0.000524004 0)
(-0.000621434 -0.000793999 0)
(-6.53287e-05 -0.000629243 0)
(0.000384015 -0.000238416 0)
(0.000634826 0.000243093 0)
(0.000478411 0.000672691 0)
(0.000324061 0.000856593 0)
(0.000303123 0.00102139 0)
(0.000257673 0.0012002 0)
(0.000224854 0.00133629 0)
(0.000197052 0.00146478 0)
(0.000170377 0.00157224 0)
(0.000147713 0.00166806 0)
(0.000126233 0.00175129 0)
(0.000107219 0.0018248 0)
(8.90947e-05 0.00189026 0)
(7.29027e-05 0.00194876 0)
(5.84191e-05 0.00200253 0)
(4.63283e-05 0.00205258 0)
(3.7239e-05 0.0021005 0)
(3.18638e-05 0.00214723 0)
(3.07985e-05 0.00219382 0)
(3.43655e-05 0.00224109 0)
(4.27322e-05 0.00228986 0)
(5.59667e-05 0.00234081 0)
(7.38026e-05 0.0023945 0)
(9.5335e-05 0.0024514 0)
(0.000118754 0.00251195 0)
(0.000141057 0.00257629 0)
(0.000158132 0.00264386 0)
(0.00016545 0.00271298 0)
(0.000159654 0.00278065 0)
(0.000140559 0.00284321 0)
(0.000112342 0.00289793 0)
(8.30535e-05 0.00294463 0)
(6.17874e-05 0.00298625 0)
(5.52676e-05 0.00302759 0)
(6.58498e-05 0.0030732 0)
(9.14682e-05 0.00312582 0)
(0.000126963 0.00318597 0)
(0.000165281 0.00325262 0)
(0.000198222 0.00332375 0)
(0.000217798 0.00339618 0)
(0.000218454 0.00346509 0)
(0.000199247 0.00352469 0)
(0.00016445 0.00357018 0)
(0.000121577 0.0035995 0)
(7.83851e-05 0.00361386 0)
(4.01525e-05 0.00361678 0)
(9.29543e-06 0.00361211 0)
(-1.37157e-05 0.0036032 0)
(-3.02639e-05 0.00359317 0)
(-4.28634e-05 0.00358392 0)
(-5.33321e-05 0.0035759 0)
(-6.19309e-05 0.00356937 0)
(-6.79101e-05 0.00356493 0)
(-6.9513e-05 0.00356313 0)
(-6.39203e-05 0.00356482 0)
(-4.75372e-05 0.00357161 0)
(-1.66724e-05 0.00358577 0)
(3.18808e-05 0.00361032 0)
(9.95657e-05 0.00364947 0)
(0.00018351 0.00370886 0)
(0.000273002 0.00379449 0)
(0.000348077 0.00390906 0)
(0.000385319 0.00404512 0)
(0.00037152 0.00418016 0)
(0.000315944 0.00428788 0)
(0.000246156 0.00435577 0)
(0.000187427 0.00439405 0)
(0.000145628 0.00442244 0)
(0.00011085 0.00445066 0)
(7.41924e-05 0.00447458 0)
(3.70662e-05 0.00448753 0)
(5.95015e-06 0.00449029 0)
(-1.62844e-05 0.00448922 0)
(-3.15293e-05 0.00448894 0)
(-4.18329e-05 0.00449005 0)
(-4.68326e-05 0.00449237 0)
(-4.51591e-05 0.00449743 0)
(-3.62256e-05 0.00450762 0)
(-1.99779e-05 0.00452465 0)
(4.00594e-06 0.00454972 0)
(3.65078e-05 0.00458428 0)
(7.81734e-05 0.00463009 0)
(0.000129383 0.00468887 0)
(0.000190365 0.00476221 0)
(0.00026113 0.00485178 0)
(0.00034126 0.00495927 0)
(0.000429809 0.00508624 0)
(0.000525277 0.00523393 0)
(0.000625598 0.00540322 0)
(0.000728112 0.00559447 0)
(0.000829533 0.00580752 0)
(0.000925803 0.00604163 0)
(0.00101199 0.0062952 0)
(0.00108257 0.00656509 0)
(0.00113243 0.00684609 0)
(0.00115817 0.0071311 0)
(0.00115908 0.00741229 0)
(0.00113704 0.00768266 0)
(0.00109542 0.00793726 0)
(0.00103773 0.00817334 0)
(0.000966727 0.00838944 0)
(0.000884277 0.00858426 0)
(0.000792011 0.00875597 0)
(0.000691981 0.00890334 0)
(0.000585918 0.00902595 0)
(0.000475279 0.00912325 0)
(0.000361379 0.00919484 0)
(0.000245363 0.00924069 0)
(0.000129084 0.00926081 0)
(1.49777e-05 0.00925599 0)
(-9.46413e-05 0.00922925 0)
(-0.000202313 0.00918404 0)
(-0.00030911 0.00911851 0)
(-0.000413092 0.00903409 0)
(-0.000514973 0.00893206 0)
(-0.000614579 0.00881265 0)
(-0.000711634 0.00867708 0)
(-0.000806413 0.00852624 0)
(-0.000898863 0.0083609 0)
(-0.00098908 0.00818207 0)
(-0.00107723 0.00799058 0)
(-0.00116344 0.0077873 0)
(-0.0012479 0.00757312 0)
(-0.00133086 0.00734886 0)
(-0.00141257 0.00711535 0)
(-0.00149337 0.00687339 0)
(-0.00157361 0.00662375 0)
(-0.00165373 0.00636718 0)
(-0.00173422 0.00610439 0)
(-0.00181567 0.00583603 0)
(-0.00189873 0.00556269 0)
(-0.00198415 0.00528485 0)
(-0.00207279 0.00500284 0)
(-0.00216557 0.00471681 0)
(-0.00226349 0.00442662 0)
(-0.00236757 0.00413183 0)
(-0.00247882 0.00383165 0)
(-0.00259813 0.00352497 0)
(-0.00272628 0.00321041 0)
(-0.00286381 0.00288656 0)
(-0.00301114 0.00255211 0)
(-0.00316864 0.00220611 0)
(-0.00333682 0.0018481 0)
(-0.00351606 0.00147813 0)
(-0.00370577 0.0010969 0)
(-0.00390845 0.00070604 0)
(-0.00413215 0.000305845 0)
(-0.00437961 -0.000104946 0)
(-0.0046501 -0.000526861 0)
(-0.00494907 -0.000951298 0)
(-0.00529352 -0.00142091 0)
(-0.00565328 -0.00181441 0)
(-0.00612725 -0.00244717 0)
(-0.00645109 -0.00261945 0)
(-0.00713837 -0.00377184 0)
(-0.00678236 -0.00296221 0)
)
;
    }
    frontAndBack
    {
        type            empty;
    }
}


// ************************************************************************* //
