/*--------------------------------*- C++ -*----------------------------------*\
  =========                 |
  \\      /  F ield         | OpenFOAM: The Open Source CFD Toolbox
   \\    /   O peration     | Website:  https://openfoam.org
    \\  /    A nd           | Version:  7
     \\/     M anipulation  |
\*---------------------------------------------------------------------------*/
FoamFile
{
    version     2.0;
    format      ascii;
    class       surfaceScalarField;
    location    "0.32";
    object      ddtCorrDdt0(phi);
}
// * * * * * * * * * * * * * * * * * * * * * * * * * * * * * * * * * * * * * //

dimensions      [0 3 -2 0 0 0 0];

internalField   nonuniform List<scalar> 
139350
(
-3.94881e-10
3.95002e-10
-8.57886e-10
4.63338e-10
-1.23317e-09
3.75565e-10
-1.52176e-09
2.88946e-10
-1.70939e-09
1.87918e-10
-1.76363e-09
5.46209e-11
-1.68308e-09
-8.01642e-11
-1.49984e-09
-1.82663e-10
-1.2592e-09
-2.4021e-10
-9.996e-10
-2.58808e-10
-7.4854e-10
-2.50593e-10
-5.20137e-10
-2.27649e-10
-3.18761e-10
-2.00866e-10
-1.39332e-10
-1.78885e-10
2.89537e-11
-1.67649e-10
1.98929e-10
-1.69627e-10
3.83716e-10
-1.84014e-10
5.91515e-10
-2.0764e-10
8.28024e-10
-2.35769e-10
1.0916e-09
-2.63531e-10
1.37843e-09
-2.86289e-10
1.67922e-09
-3.0074e-10
1.98376e-09
-3.04068e-10
2.27832e-09
-2.94583e-10
2.54891e-09
-2.69998e-10
2.77719e-09
-2.28502e-10
2.94434e-09
-1.66538e-10
3.0247e-09
-8.06745e-11
2.99013e-09
3.49849e-11
2.8032e-09
1.8666e-10
2.41937e-09
3.84169e-10
1.78165e-09
6.37348e-10
8.1827e-10
9.63899e-10
-5.62161e-10
1.37975e-09
-2.4769e-09
1.91533e-09
-5.07629e-09
2.5986e-09
-8.5529e-09
3.47695e-09
-1.31663e-08
4.6128e-09
-1.92222e-08
6.05603e-09
-2.72134e-08
7.99074e-09
-3.75966e-08
1.03834e-08
-5.13387e-08
1.37411e-08
-6.90926e-08
1.77542e-08
-9.30656e-08
2.39708e-08
-1.23778e-07
3.07125e-08
-1.66359e-07
4.2578e-08
-2.22058e-07
5.57e-08
-3.04557e-07
8.2497e-08
-4.03391e-07
9.88353e-08
3.366e-07
-7.39991e-07
-5.56518e-10
9.51665e-10
-1.27458e-09
1.18177e-09
-1.7849e-09
8.86186e-10
-2.04552e-09
5.49951e-10
-1.97684e-09
1.19547e-10
-1.45535e-09
-4.66442e-10
-4.76601e-10
-1.0585e-09
8.46448e-10
-1.50507e-09
2.36386e-09
-1.75714e-09
3.94916e-09
-1.84325e-09
5.51736e-09
-1.81828e-09
7.0284e-09
-1.73789e-09
8.47939e-09
-1.6513e-09
9.89676e-09
-1.59567e-09
1.13236e-08
-1.59377e-09
1.28074e-08
-1.65311e-09
1.4392e-08
-1.76775e-09
1.61082e-08
-1.92369e-09
1.79754e-08
-2.10219e-09
1.99975e-08
-2.28552e-09
2.21697e-08
-2.4579e-09
2.44778e-08
-2.60879e-09
2.69042e-08
-2.73003e-09
2.94267e-08
-2.81713e-09
3.20215e-08
-2.86408e-09
3.46593e-08
-2.86657e-09
3.73084e-08
-2.81496e-09
3.99275e-08
-2.7001e-09
4.24684e-08
-2.50552e-09
4.4868e-08
-2.21327e-09
4.70478e-08
-1.79518e-09
4.89058e-08
-1.22114e-09
5.03116e-08
-4.41335e-10
5.10928e-08
5.97827e-10
5.103e-08
1.97875e-09
4.98269e-08
3.8009e-09
4.71131e-08
6.191e-09
4.23689e-08
9.35652e-09
3.49704e-08
1.34545e-08
2.39642e-08
1.89965e-08
8.33909e-09
2.60086e-08
-1.38682e-08
3.59472e-08
-4.40575e-08
4.79438e-08
-8.66198e-08
6.65307e-08
-1.42995e-07
8.70881e-08
-2.24362e-07
1.23942e-07
-3.30593e-07
1.61931e-07
-4.94584e-07
2.46486e-07
-7.14318e-07
3.18572e-07
7.10892e-07
-1.08861e-06
-5.42134e-10
1.49397e-09
-1.33189e-09
1.97191e-09
-1.89178e-09
1.44639e-09
-2.10875e-09
7.67329e-10
-1.83142e-09
-1.57446e-10
-8.28194e-10
-1.46922e-09
9.72248e-10
-2.85849e-09
3.43116e-09
-3.9633e-09
6.31055e-09
-4.63603e-09
9.38343e-09
-4.91521e-09
1.24837e-08
-4.918e-09
1.55225e-08
-4.77583e-09
1.8481e-08
-4.60919e-09
2.13959e-08
-4.50995e-09
2.43366e-08
-4.53376e-09
2.73834e-08
-4.69954e-09
3.06113e-08
-4.9948e-09
3.40768e-08
-5.38893e-09
3.78171e-08
-5.84174e-09
4.18475e-08
-6.31586e-09
4.61694e-08
-6.77913e-09
5.07711e-08
-7.21044e-09
5.56361e-08
-7.59451e-09
6.07423e-08
-7.92339e-09
6.6066e-08
-8.18709e-09
7.15779e-08
-8.37877e-09
7.72459e-08
-8.48227e-09
8.30275e-08
-8.48201e-09
8.88718e-08
-8.34942e-09
9.47108e-08
-8.05252e-09
1.00458e-07
-7.54171e-09
1.05997e-07
-6.76055e-09
1.11179e-07
-5.62334e-09
1.158e-07
-4.02414e-09
1.19606e-07
-1.82596e-09
1.22231e-07
1.17445e-09
1.23239e-07
5.18336e-09
1.21983e-07
1.06125e-08
1.177e-07
1.77376e-08
1.09217e-07
2.74789e-08
9.52187e-08
4.0007e-08
7.34719e-08
5.76929e-08
4.16916e-08
7.97243e-08
-5.02014e-09
1.1324e-07
-6.88113e-08
1.50879e-07
-1.64099e-07
2.19226e-07
-2.90157e-07
2.8799e-07
-4.84184e-07
4.40511e-07
-7.6638e-07
6.00769e-07
1.12944e-06
-1.18493e-06
-4.93836e-10
1.98798e-09
-1.31094e-09
2.78943e-09
-1.94811e-09
2.08389e-09
-2.24067e-09
1.06031e-09
-2.01298e-09
-3.84776e-10
-9.49197e-10
-2.53253e-09
1.15916e-09
-4.96638e-09
4.26288e-09
-7.06629e-09
8.11905e-09
-8.49167e-09
1.24266e-08
-9.22183e-09
1.69234e-08
-9.41417e-09
2.14373e-08
-9.28892e-09
2.58959e-08
-9.06713e-09
3.0313e-08
-8.92644e-09
3.47598e-08
-8.97978e-09
3.9333e-08
-9.27232e-09
4.41304e-08
-9.79123e-09
4.9231e-08
-1.04894e-08
5.46921e-08
-1.1302e-08
6.05442e-08
-1.21679e-08
6.68007e-08
-1.3035e-08
7.34593e-08
-1.3869e-08
8.05111e-08
-1.46457e-08
8.79404e-08
-1.53528e-08
9.57299e-08
-1.59759e-08
1.03856e-07
-1.65055e-08
1.12293e-07
-1.69186e-08
1.21004e-07
-1.71928e-08
1.29941e-07
-1.72867e-08
1.39042e-07
-1.71529e-08
1.4822e-07
-1.67193e-08
1.57357e-07
-1.5899e-08
1.66305e-07
-1.45705e-08
1.74847e-07
-1.25662e-08
1.82718e-07
-9.69673e-09
1.89529e-07
-5.63703e-09
1.94816e-07
-1.03912e-10
1.97883e-07
7.5453e-09
1.97905e-07
1.77156e-08
1.93626e-07
3.17571e-08
1.83586e-07
5.00474e-08
1.65377e-07
7.59001e-08
1.36616e-07
1.08486e-07
9.16267e-08
1.58226e-07
2.83645e-08
2.14141e-07
-6.83625e-08
3.1595e-07
-2.00836e-07
4.20464e-07
-3.98404e-07
6.38077e-07
-7.05738e-07
9.08106e-07
1.56276e-06
-1.13906e-06
-4.57068e-10
2.44524e-09
-1.29181e-09
3.62459e-09
-2.0169e-09
2.80933e-09
-2.44765e-09
1.49148e-09
-2.45848e-09
-3.73578e-10
-1.73921e-09
-3.2513e-09
5.35251e-11
-6.75863e-09
3.06469e-09
-1.00767e-08
7.18234e-09
-1.26088e-08
1.21273e-08
-1.41658e-08
1.75763e-08
-1.48626e-08
2.32622e-08
-1.49739e-08
2.90214e-08
-1.48257e-08
3.4801e-08
-1.47054e-08
4.06336e-08
-1.48116e-08
4.66006e-08
-1.52389e-08
5.28003e-08
-1.599e-08
5.93212e-08
-1.701e-08
6.62332e-08
-1.82132e-08
7.35811e-08
-1.95157e-08
8.13922e-08
-2.08455e-08
8.96775e-08
-2.21542e-08
9.84409e-08
-2.34085e-08
1.07679e-07
-2.45909e-08
1.17386e-07
-2.56823e-08
1.2755e-07
-2.66696e-08
1.38155e-07
-2.75228e-08
1.49173e-07
-2.82115e-08
1.60568e-07
-2.86812e-08
1.72282e-07
-2.88666e-08
1.84236e-07
-2.86731e-08
1.96315e-07
-2.79791e-08
2.08373e-07
-2.66277e-08
2.2019e-07
-2.43838e-08
2.315e-07
-2.1006e-08
2.41902e-07
-1.60403e-08
2.50922e-07
-9.12358e-09
2.57846e-07
6.20705e-10
2.61814e-07
1.37476e-08
2.61553e-07
3.20176e-08
2.55513e-07
5.60872e-08
2.41279e-07
9.01328e-08
2.16225e-07
1.3354e-07
1.74928e-07
1.99521e-07
1.14283e-07
2.74785e-07
2.10626e-08
4.09168e-07
-1.12673e-07
5.542e-07
-3.06501e-07
8.31903e-07
-6.14263e-07
1.21587e-06
1.99519e-06
-1.04669e-06
-4.39599e-10
2.88504e-09
-1.29496e-09
4.48039e-09
-2.09775e-09
3.61246e-09
-2.65463e-09
2.04881e-09
-2.9365e-09
-9.13231e-11
-2.75274e-09
-3.43457e-09
-1.72279e-09
-7.78809e-09
5.02162e-10
-1.23009e-08
4.05028e-09
-1.61563e-08
8.80048e-09
-1.8915e-08
1.44698e-08
-2.05313e-08
2.0741e-08
-2.12442e-08
2.73577e-08
-2.14418e-08
3.41707e-08
-2.15177e-08
4.11339e-08
-2.1774e-08
4.82749e-08
-2.23795e-08
5.56602e-08
-2.33743e-08
6.3362e-08
-2.47117e-08
7.14454e-08
-2.62957e-08
7.9957e-08
-2.80273e-08
8.89313e-08
-2.98191e-08
9.83899e-08
-3.16128e-08
1.0835e-07
-3.3368e-08
1.18823e-07
-3.50637e-08
1.29818e-07
-3.66767e-08
1.41338e-07
-3.81903e-08
1.53383e-07
-3.95672e-08
1.65939e-07
-4.07681e-08
1.78983e-07
-4.17247e-08
1.92468e-07
-4.23519e-08
2.06328e-07
-4.25318e-08
2.20452e-07
-4.21044e-08
2.34701e-07
-4.08762e-08
2.48857e-07
-3.85402e-08
2.62653e-07
-3.4801e-08
2.75686e-07
-2.90743e-08
2.8747e-07
-2.09073e-08
2.97291e-07
-9.20162e-09
3.0426e-07
6.77931e-09
3.07118e-07
2.91588e-08
3.04239e-07
5.89659e-08
2.93276e-07
1.01095e-07
2.71414e-07
1.55402e-07
2.33977e-07
2.36956e-07
1.75335e-07
3.33428e-07
8.68771e-08
4.97623e-07
-4.52876e-08
6.86365e-07
-2.34852e-07
1.02147e-06
-5.32235e-07
1.51326e-06
2.41919e-06
-9.56241e-07
-4.35964e-10
3.32121e-09
-1.32022e-09
5.36508e-09
-2.18946e-09
4.48206e-09
-2.83119e-09
2.69098e-09
-3.30784e-09
3.85712e-10
-3.61558e-09
-3.12632e-09
-3.46951e-09
-7.93364e-09
-2.41568e-09
-1.33539e-08
-8.11287e-11
-1.84903e-08
3.66429e-09
-2.26594e-08
8.6995e-09
-2.55659e-08
1.47559e-08
-2.72996e-08
2.15382e-08
-2.82234e-08
2.88137e-08
-2.87926e-08
3.64445e-08
-2.9404e-08
4.43784e-08
-3.03129e-08
5.26209e-08
-3.16158e-08
6.12013e-08
-3.32919e-08
7.01553e-08
-3.52488e-08
7.95104e-08
-3.73824e-08
8.9291e-08
-3.95991e-08
9.95162e-08
-4.18379e-08
1.10207e-07
-4.40587e-08
1.21386e-07
-4.6242e-08
1.33074e-07
-4.83645e-08
1.45291e-07
-5.04078e-08
1.58054e-07
-5.2329e-08
1.71365e-07
-5.40797e-08
1.85219e-07
-5.55784e-08
1.99586e-07
-5.67192e-08
2.14415e-07
-5.73603e-08
2.29611e-07
-5.73005e-08
2.45043e-07
-5.63079e-08
2.60503e-07
-5.40012e-08
2.75727e-07
-5.00246e-08
2.90319e-07
-4.3667e-08
3.03783e-07
-3.43708e-08
3.15417e-07
-2.0836e-08
3.24301e-07
-2.1049e-09
3.29219e-07
2.42404e-08
3.28466e-07
5.97183e-08
3.19847e-07
1.09713e-07
3.00297e-07
1.74952e-07
2.65616e-07
2.71634e-07
2.09658e-07
3.89385e-07
1.24885e-07
5.82392e-07
-3.70138e-09
8.14952e-07
-1.88579e-07
1.20634e-06
-4.71409e-07
1.79609e-06
2.82845e-06
-8.8067e-07
-4.4083e-10
3.76224e-09
-1.35676e-09
6.28147e-09
-2.28565e-09
5.4113e-09
-2.98414e-09
3.38993e-09
-3.55987e-09
9.61834e-10
-4.18914e-09
-2.49653e-09
-4.76891e-09
-7.35336e-09
-4.87725e-09
-1.32448e-08
-3.99406e-09
-1.93729e-08
-1.74701e-09
-2.49054e-08
1.97066e-09
-2.92829e-08
7.03512e-09
-3.23631e-08
1.31989e-08
-3.43865e-08
2.02032e-08
-3.57962e-08
2.78452e-08
-3.70451e-08
3.59979e-08
-3.84652e-08
4.4599e-08
-4.0216e-08
5.36214e-08
-4.23141e-08
6.30548e-08
-4.46812e-08
7.28886e-08
-4.72162e-08
8.31165e-08
-4.98264e-08
9.3735e-08
-5.24563e-08
1.04752e-07
-5.50751e-08
1.16183e-07
-5.76736e-08
1.28056e-07
-6.02363e-08
1.40397e-07
-6.27489e-08
1.53236e-07
-6.5167e-08
1.66591e-07
-6.74357e-08
1.80476e-07
-6.94629e-08
1.94879e-07
-7.11224e-08
2.0977e-07
-7.22504e-08
2.25073e-07
-7.26045e-08
2.40678e-07
-7.19125e-08
2.56396e-07
-6.97195e-08
2.71973e-07
-6.56016e-08
2.87032e-07
-5.87273e-08
3.01077e-07
-4.84154e-08
3.13431e-07
-3.31907e-08
3.23156e-07
-1.18297e-08
3.29095e-07
1.83014e-08
3.29491e-07
5.93223e-08
3.22307e-07
1.16896e-07
3.04338e-07
1.9292e-07
2.71827e-07
3.04142e-07
2.18146e-07
4.43065e-07
1.37256e-07
6.63279e-07
1.34516e-08
9.38757e-07
-1.64519e-07
1.38431e-06
-4.29565e-07
2.06114e-06
3.19011e-06
-7.91219e-07
-4.49984e-10
4.21244e-09
-1.39791e-09
7.22984e-09
-2.381e-09
6.39475e-09
-3.12412e-09
4.1335e-09
-3.74056e-09
1.57867e-09
-4.52445e-09
-1.71211e-09
-5.55915e-09
-6.31814e-09
-6.54816e-09
-1.22549e-08
-6.95236e-09
-1.89681e-08
-6.25042e-09
-2.56063e-08
-4.13145e-09
-3.14012e-08
-5.37823e-10
-3.59558e-08
4.3973e-09
-3.93209e-08
1.04566e-08
-4.18548e-08
1.7425e-08
-4.40127e-08
2.51352e-08
-4.6175e-08
3.34768e-08
-4.85566e-08
4.23761e-08
-5.12132e-08
5.17794e-08
-5.40837e-08
6.16343e-08
-5.7071e-08
7.1893e-08
-6.00845e-08
8.25134e-08
-6.30766e-08
9.34706e-08
-6.60316e-08
1.04756e-07
-6.89595e-08
1.16383e-07
-7.18625e-08
1.28373e-07
-7.4739e-08
1.40758e-07
-7.75508e-08
1.53563e-07
-8.02414e-08
1.66813e-07
-8.27129e-08
1.80514e-07
-8.48232e-08
1.94653e-07
-8.63896e-08
2.09181e-07
-8.71332e-08
2.24012e-07
-8.67424e-08
2.38984e-07
-8.46926e-08
2.5387e-07
-8.04872e-08
2.68325e-07
-7.31829e-08
2.81867e-07
-6.19575e-08
2.93865e-07
-4.51888e-08
3.03382e-07
-2.13475e-08
3.09335e-07
1.23478e-08
3.09979e-07
5.86788e-08
3.03394e-07
1.2348e-07
2.86444e-07
2.0987e-07
2.55609e-07
3.34974e-07
2.04482e-07
4.94192e-07
1.276e-07
7.40158e-07
1.00311e-08
1.05633e-06
-1.58119e-07
1.55246e-06
-4.01675e-07
2.30469e-06
3.51356e-06
-7.25129e-07
-4.61945e-10
4.6746e-09
-1.43985e-09
8.2082e-09
-2.47086e-09
7.42613e-09
-3.25759e-09
4.92069e-09
-3.89674e-09
2.21822e-09
-4.73731e-09
-8.71013e-10
-5.99491e-09
-5.06002e-09
-7.51377e-09
-1.07353e-08
-8.82367e-09
-1.76576e-08
-9.36471e-09
-2.50642e-08
-8.70506e-09
-3.20603e-08
-6.63873e-09
-3.80212e-08
-3.17212e-09
-4.27868e-08
1.55758e-09
-4.65838e-08
7.36866e-09
-4.98229e-08
1.40947e-08
-5.29006e-08
2.16102e-08
-5.60711e-08
2.98211e-08
-5.94239e-08
3.86509e-08
-6.29126e-08
4.80193e-08
-6.64394e-08
5.78441e-08
-6.99087e-08
6.80426e-08
-7.3275e-08
7.85478e-08
-7.65363e-08
8.93131e-08
-7.97249e-08
1.0032e-07
-8.28687e-08
1.11568e-07
-8.59877e-08
1.23077e-07
-8.90585e-08
1.34866e-07
-9.20307e-08
1.4696e-07
-9.48064e-08
1.5937e-07
-9.72339e-08
1.72098e-07
-9.91176e-08
1.85114e-07
-1.00149e-07
1.98355e-07
-9.99832e-08
2.11697e-07
-9.8035e-08
2.24943e-07
-9.37332e-08
2.37797e-07
-8.60378e-08
2.49811e-07
-7.39717e-08
2.60416e-07
-5.57938e-08
2.68716e-07
-2.96478e-08
2.73702e-07
7.36113e-09
2.73729e-07
5.8652e-08
2.66952e-07
1.30255e-07
2.50498e-07
2.26324e-07
2.20999e-07
3.6447e-07
1.72565e-07
5.42626e-07
1.0031e-07
8.12409e-07
-9.69436e-09
1.16633e-06
-1.64893e-07
1.70766e-06
-3.83011e-07
2.52281e-06
3.7939e-06
-6.63346e-07
-4.763e-10
5.15111e-09
-1.48358e-09
9.21593e-09
-2.55532e-09
8.49823e-09
-3.3843e-09
5.75013e-09
-4.05009e-09
2.88441e-09
-4.91493e-09
-5.64127e-12
-6.26261e-09
-3.71181e-09
-8.04193e-09
-8.95511e-09
-9.87124e-09
-1.58277e-08
-1.12225e-08
-2.37118e-08
-1.16306e-08
-3.16515e-08
-1.08101e-08
-3.88407e-08
-8.67541e-09
-4.49208e-08
-5.28707e-09
-4.99714e-08
-7.76955e-10
-5.43321e-08
4.71412e-09
-5.83913e-08
1.10719e-08
-6.24279e-08
1.82074e-08
-6.65593e-08
2.60458e-08
-7.075e-08
3.45017e-08
-7.48954e-08
4.34779e-08
-7.88842e-08
5.28642e-08
-8.26613e-08
6.25567e-08
-8.62282e-08
7.24677e-08
-8.96361e-08
8.25397e-08
-9.294e-08
9.2739e-08
-9.61873e-08
1.03059e-07
-9.93774e-08
1.135e-07
-1.02472e-07
1.24074e-07
-1.05381e-07
1.34787e-07
-1.07947e-07
1.4564e-07
-1.0997e-07
1.56612e-07
-1.11122e-07
1.67659e-07
-1.1103e-07
1.78686e-07
-1.09063e-07
1.89534e-07
-1.04581e-07
1.9996e-07
-9.64645e-08
2.09568e-07
-8.35798e-08
2.17862e-07
-6.40879e-08
2.24029e-07
-3.58149e-08
2.27136e-07
4.25348e-09
2.2572e-07
6.0068e-08
2.18004e-07
1.37969e-07
2.01488e-07
2.4284e-07
1.73013e-07
3.92942e-07
1.27288e-07
5.88351e-07
6.01771e-08
8.79517e-07
-4.06687e-08
1.26718e-06
-1.80244e-07
1.84723e-06
-3.70054e-07
2.71263e-06
4.02718e-06
-6.03335e-07
-4.9251e-10
5.64384e-09
-1.53039e-09
1.02543e-08
-2.63813e-09
9.60633e-09
-3.50565e-09
6.6181e-09
-4.20439e-09
3.58355e-09
-5.0956e-09
8.86098e-10
-6.48668e-09
-2.32021e-09
-8.37842e-09
-7.06253e-09
-1.04556e-08
-1.375e-08
-1.22423e-08
-2.1924e-08
-1.32905e-08
-3.06026e-08
-1.32964e-08
-3.88339e-08
-1.21332e-08
-4.60832e-08
-9.81552e-09
-5.22885e-08
-6.43669e-09
-5.77101e-08
-2.11068e-09
-6.27169e-08
3.06775e-09
-6.76053e-08
9.02655e-09
-7.25179e-08
1.57074e-08
-7.743e-08
2.30384e-08
-8.22263e-08
3.09263e-08
-8.67715e-08
3.92524e-08
-9.09874e-08
4.78906e-08
-9.48658e-08
5.67209e-08
-9.84665e-08
6.56493e-08
-1.01868e-07
7.46066e-08
-1.05145e-07
8.3554e-08
-1.08324e-07
9.24663e-08
-1.11385e-07
1.01333e-07
-1.14247e-07
1.10142e-07
-1.16757e-07
1.18882e-07
-1.18711e-07
1.27529e-07
-1.1977e-07
1.36044e-07
-1.19543e-07
1.44352e-07
-1.17372e-07
1.52324e-07
-1.12553e-07
1.59769e-07
-1.0391e-07
1.66352e-07
-9.01627e-08
1.71652e-07
-6.93885e-08
1.74972e-07
-3.91353e-08
1.75461e-07
3.76353e-09
1.71887e-07
6.36424e-08
1.6258e-07
1.47273e-07
1.45431e-07
2.59989e-07
1.17632e-07
4.20738e-07
7.45787e-08
6.31404e-07
1.27912e-08
9.41302e-07
-7.77395e-08
1.35771e-06
-2.00375e-07
1.96987e-06
-3.59893e-07
2.87215e-06
4.21168e-06
-5.44385e-07
-5.09901e-10
6.15395e-09
-1.58051e-09
1.13253e-08
-2.72261e-09
1.07488e-08
-3.62502e-09
7.52096e-09
-4.35919e-09
4.31811e-09
-5.28572e-09
1.81315e-09
-6.71565e-09
-8.89747e-10
-8.66599e-09
-5.11136e-09
-1.08522e-08
-1.15631e-08
-1.2836e-08
-1.99392e-08
-1.41997e-08
-2.92382e-08
-1.46532e-08
-3.83794e-08
-1.40668e-08
-4.66689e-08
-1.24417e-08
-5.39128e-08
-9.8564e-09
-6.02945e-08
-6.41088e-09
-6.6162e-08
-2.18722e-09
-7.1828e-08
2.75657e-09
-7.74616e-08
8.37985e-09
-8.30524e-08
1.46293e-08
-8.84757e-08
2.14268e-08
-9.35685e-08
2.8659e-08
-9.82196e-08
3.61916e-08
-1.02398e-07
4.38858e-08
-1.06161e-07
5.1621e-08
-1.09602e-07
5.92985e-08
-1.12823e-07
6.68493e-08
-1.15874e-07
7.42207e-08
-1.18757e-07
8.13771e-08
-1.21403e-07
8.82831e-08
-1.23663e-07
9.49071e-08
-1.25334e-07
1.0121e-07
-1.26073e-07
1.07145e-07
-1.25478e-07
1.12646e-07
-1.22873e-07
1.17601e-07
-1.17508e-07
1.21859e-07
-1.08169e-07
1.25146e-07
-9.34496e-08
1.2711e-07
-7.13533e-08
1.27184e-07
-3.92091e-08
1.24606e-07
6.34068e-09
1.18385e-07
6.98631e-08
1.07017e-07
1.5864e-07
8.87558e-08
2.7825e-07
6.12613e-08
4.48229e-07
2.05675e-08
6.72096e-07
-3.58998e-08
9.97766e-07
-1.15531e-07
1.43734e-06
-2.20825e-07
2.07516e-06
-3.49948e-07
3.00127e-06
4.34763e-06
-4.85903e-07
-5.27988e-10
6.68215e-09
-1.63335e-09
1.24311e-08
-2.81033e-09
1.19261e-08
-3.74569e-09
8.45676e-09
-4.51517e-09
5.08798e-09
-5.48272e-09
2.78124e-09
-6.95844e-09
5.8649e-10
-8.95802e-09
-3.11095e-09
-1.12027e-08
-9.31788e-09
-1.32695e-08
-1.78713e-08
-1.47619e-08
-2.77451e-08
-1.54093e-08
-3.77311e-08
-1.50953e-08
-4.69821e-08
-1.38283e-08
-5.51792e-08
-1.16893e-08
-6.24327e-08
-8.77944e-09
-6.90714e-08
-5.18059e-09
-7.54259e-08
-9.46012e-10
-8.1696e-08
3.89427e-09
-8.78918e-08
9.29859e-09
-9.388e-08
1.52069e-08
-9.94762e-08
2.15121e-08
-1.04525e-07
2.80775e-08
-1.08963e-07
3.47598e-08
-1.12843e-07
4.14234e-08
-1.16265e-07
4.79482e-08
-1.19348e-07
5.42401e-08
-1.22166e-07
6.02241e-08
-1.24741e-07
6.58422e-08
-1.27021e-07
7.1036e-08
-1.28857e-07
7.57499e-08
-1.30048e-07
7.99249e-08
-1.30249e-07
8.34977e-08
-1.2905e-07
8.6397e-08
-1.25774e-07
8.85197e-08
-1.1963e-07
8.97372e-08
-1.09388e-07
8.98272e-08
-9.35396e-08
8.84948e-08
-7.00217e-08
8.52957e-08
-3.60103e-08
7.95638e-08
1.20717e-08
7.05306e-08
7.88962e-08
5.68979e-08
1.72271e-07
3.72478e-08
2.97899e-07
9.75617e-09
4.75718e-07
-2.89171e-08
7.10769e-07
-8.02754e-08
1.04912e-06
-1.49593e-07
1.50666e-06
-2.37665e-07
2.16323e-06
-3.37702e-07
3.10131e-06
4.43893e-06
-4.28993e-07
-5.46579e-10
7.22894e-09
-1.68851e-09
1.35735e-08
-2.90154e-09
1.31395e-08
-3.86956e-09
9.42522e-09
-4.67398e-09
5.89278e-09
-5.68493e-09
3.79271e-09
-7.21226e-09
2.11434e-09
-9.265e-09
-1.05737e-09
-1.15577e-08
-7.02452e-09
-1.36675e-08
-1.57605e-08
-1.52056e-08
-2.62063e-08
-1.59143e-08
-3.70215e-08
-1.56913e-08
-4.72044e-08
-1.45575e-08
-5.63124e-08
-1.26047e-08
-6.43847e-08
-9.94317e-09
-7.17325e-08
-6.66171e-09
-7.87064e-08
-2.817e-09
-8.55406e-08
1.55815e-09
-9.22661e-08
6.43279e-09
-9.87547e-08
1.17403e-08
-1.04783e-07
1.73868e-08
-1.10171e-07
2.32542e-08
-1.1483e-07
2.91811e-08
-1.1877e-07
3.50235e-08
-1.22107e-07
4.06473e-08
-1.24972e-07
4.59412e-08
-1.27459e-07
5.08166e-08
-1.29617e-07
5.51978e-08
-1.31402e-07
5.90062e-08
-1.32666e-07
6.21642e-08
-1.33206e-07
6.45927e-08
-1.32678e-07
6.62098e-08
-1.30667e-07
6.69321e-08
-1.26497e-07
6.6655e-08
-1.19353e-07
6.52595e-08
-1.07993e-07
6.25618e-08
-9.0842e-08
5.83088e-08
-6.57695e-08
5.21601e-08
-2.98619e-08
4.3543e-08
2.06879e-08
3.18739e-08
9.05651e-08
1.60824e-08
1.8806e-07
-4.9722e-09
3.18953e-07
-3.26008e-08
5.03343e-07
-6.95117e-08
7.47679e-07
-1.16205e-07
1.09581e-06
-1.76197e-07
1.56665e-06
-2.48071e-07
2.23511e-06
-3.21251e-07
3.1745e-06
4.49101e-06
-3.73332e-07
-5.65663e-10
7.7948e-09
-1.74564e-09
1.47539e-08
-2.99602e-09
1.43902e-08
-3.99732e-09
1.0427e-08
-4.83699e-09
6.73283e-09
-5.89251e-09
4.84874e-09
-7.47473e-09
3.69707e-09
-9.58525e-09
1.05398e-09
-1.19278e-08
-4.68137e-09
-1.40718e-08
-1.36153e-08
-1.56279e-08
-2.46496e-08
-1.63434e-08
-3.6305e-08
-1.61251e-08
-4.7422e-08
-1.50046e-08
-5.74322e-08
-1.30842e-08
-6.63042e-08
-1.04843e-08
-7.43321e-08
-7.30225e-09
-8.18874e-08
-3.60301e-09
-8.92397e-08
5.77464e-10
-9.64458e-08
5.20016e-09
-1.03377e-07
1.02108e-08
-1.09793e-07
1.55095e-08
-1.1547e-07
2.0959e-08
-1.20279e-07
2.64161e-08
-1.24228e-07
3.17224e-08
-1.27413e-07
3.6737e-08
-1.29987e-07
4.13565e-08
-1.32078e-07
4.54653e-08
-1.33726e-07
4.89634e-08
-1.349e-07
5.17629e-08
-1.35466e-07
5.37761e-08
-1.35219e-07
5.49088e-08
-1.33812e-07
5.50616e-08
-1.3082e-07
5.41364e-08
-1.25573e-07
5.20218e-08
-1.17238e-07
4.85994e-08
-1.04572e-07
4.37112e-08
-8.5954e-08
3.71331e-08
-5.91923e-08
2.86036e-08
-2.13328e-08
1.76364e-08
3.16542e-08
3.78863e-09
1.04413e-07
-1.37839e-08
2.05631e-07
-3.59964e-08
3.41165e-07
-6.36863e-08
5.3103e-07
-9.89515e-08
7.82943e-07
-1.41457e-07
1.13831e-06
-1.93042e-07
1.61823e-06
-2.50385e-07
2.29245e-06
-3.00224e-07
3.22434e-06
4.50968e-06
-3.18893e-07
-5.85278e-10
8.38028e-09
-1.80459e-09
1.59737e-08
-3.09359e-09
1.56795e-08
-4.12908e-09
1.14629e-08
-5.00487e-09
7.60898e-09
-6.10618e-09
5.95055e-09
-7.74538e-09
5.33677e-09
-9.91677e-09
3.22618e-09
-1.23121e-08
-2.28547e-09
-1.44906e-08
-1.14358e-08
-1.60579e-08
-2.30816e-08
-1.67625e-08
-3.55995e-08
-1.6516e-08
-4.76678e-08
-1.53569e-08
-5.85907e-08
-1.33951e-08
-6.82651e-08
-1.07584e-08
-7.69684e-08
-7.55108e-09
-8.50938e-08
-3.84473e-09
-9.29459e-08
3.1835e-10
-1.00608e-07
4.89408e-09
-1.07953e-07
9.81967e-09
-1.14718e-07
1.49935e-08
-1.20644e-07
2.028e-08
-1.25565e-07
2.55207e-08
-1.29469e-07
3.05614e-08
-1.32453e-07
3.52531e-08
-1.34679e-07
3.94688e-08
-1.36294e-07
4.31008e-08
-1.37359e-07
4.60506e-08
-1.37849e-07
4.82158e-08
-1.37632e-07
4.94916e-08
-1.36495e-07
4.97705e-08
-1.34091e-07
4.89403e-08
-1.29989e-07
4.68917e-08
-1.23525e-07
4.35095e-08
-1.13856e-07
3.86722e-08
-9.9736e-08
3.22388e-08
-7.95208e-08
2.40059e-08
-5.09603e-08
1.37677e-08
-1.10949e-08
1.11501e-09
4.43058e-08
-1.4294e-08
1.19821e-07
-3.30941e-08
2.24429e-07
-5.60223e-08
3.64093e-07
-8.35024e-08
5.58507e-07
-1.17058e-07
8.16497e-07
-1.557e-07
1.17695e-06
-1.99686e-07
1.66222e-06
-2.44146e-07
2.33691e-06
-2.74105e-07
3.2543e-06
4.50036e-06
-2.64788e-07
-6.05456e-10
8.98593e-09
-1.86535e-09
1.72339e-08
-3.1942e-09
1.70087e-08
-4.26486e-09
1.25339e-08
-5.17789e-09
8.52236e-09
-6.32645e-09
7.09959e-09
-8.02454e-09
7.03536e-09
-1.02591e-08
5.46151e-09
-1.27093e-08
1.65328e-10
-1.49234e-08
-9.22056e-09
-1.65011e-08
-2.15032e-08
-1.71899e-08
-3.49099e-08
-1.69042e-08
-4.79528e-08
-1.56874e-08
-5.98068e-08
-1.36546e-08
-7.02971e-08
-1.0938e-08
-7.96847e-08
-7.64597e-09
-8.8385e-08
-3.85412e-09
-9.67377e-08
3.90064e-10
-1.04852e-07
5.03707e-09
-1.126e-07
1.0017e-08
-1.19698e-07
1.5221e-08
-1.25848e-07
2.05088e-08
-1.30852e-07
2.57161e-08
-1.34676e-07
3.06824e-08
-1.37419e-07
3.52562e-08
-1.39254e-07
3.9305e-08
-1.40342e-07
4.27136e-08
-1.40768e-07
4.53791e-08
-1.40515e-07
4.71946e-08
-1.39448e-07
4.80484e-08
-1.37348e-07
4.78246e-08
-1.33868e-07
4.64044e-08
-1.28569e-07
4.36715e-08
-1.20794e-07
3.95066e-08
-1.09691e-07
3.37877e-08
-9.40183e-08
2.63863e-08
-7.21197e-08
1.71174e-08
-4.16925e-08
5.81278e-09
2.09272e-10
-7.86402e-09
5.79814e-08
-2.41891e-08
1.36146e-07
-4.36121e-08
2.4385e-07
-6.67151e-08
3.87195e-07
-9.35689e-08
5.85358e-07
-1.2518e-07
8.48106e-07
-1.60034e-07
1.2118e-06
-1.96996e-07
1.69918e-06
-2.29878e-07
2.36979e-06
-2.42887e-07
3.26731e-06
4.46806e-06
-2.10576e-07
-6.26213e-10
9.61232e-09
-1.92793e-09
1.8536e-08
-3.29789e-09
1.83789e-08
-4.40471e-09
1.36411e-08
-5.35618e-09
9.47416e-09
-6.55358e-09
8.29747e-09
-8.31253e-09
8.79478e-09
-1.06122e-08
7.76201e-09
-1.3119e-08
2.6727e-09
-1.53697e-08
-6.96892e-09
-1.69573e-08
-1.9915e-08
-1.76282e-08
-3.42381e-08
-1.72992e-08
-4.82811e-08
-1.60179e-08
-6.10876e-08
-1.3903e-08
-7.24112e-08
-1.10896e-08
-8.24978e-08
-7.68808e-09
-9.17856e-08
-3.77598e-09
-1.0065e-07
5.96054e-10
-1.09223e-07
5.37376e-09
-1.17378e-07
1.04808e-08
-1.24805e-07
1.58011e-08
-1.31169e-07
2.11873e-08
-1.36238e-07
2.64701e-08
-1.39959e-07
3.14831e-08
-1.42431e-07
3.6071e-08
-1.43842e-07
4.01e-08
-1.44371e-07
4.34502e-08
-1.44119e-07
4.60134e-08
-1.43078e-07
4.76792e-08
-1.41115e-07
4.83331e-08
-1.38002e-07
4.78563e-08
-1.33392e-07
4.61267e-08
-1.26839e-07
4.30257e-08
-1.17694e-07
3.84363e-08
-1.05101e-07
3.22384e-08
-8.78216e-08
2.43162e-08
-6.41978e-08
1.45032e-08
-3.18806e-08
2.65995e-09
1.20519e-08
-1.1485e-08
7.21251e-08
-2.81546e-08
1.52815e-07
-4.76313e-08
2.63325e-07
-7.03733e-08
4.09936e-07
-9.61565e-08
6.11138e-07
-1.25518e-07
8.77465e-07
-1.56467e-07
1.24275e-06
-1.86767e-07
1.72948e-06
-2.09018e-07
2.39204e-06
-2.07228e-07
3.26552e-06
4.41655e-06
-1.55722e-07
-6.47563e-10
1.02601e-08
-1.99234e-09
1.98812e-08
-3.4047e-09
1.97915e-08
-4.54872e-09
1.47855e-08
-5.53984e-09
1.04656e-08
-6.78773e-09
9.54581e-09
-8.60955e-09
1.06171e-08
-1.09765e-08
1.01297e-08
-1.35415e-08
5.23823e-09
-1.58292e-08
-4.68021e-09
-1.74262e-08
-1.83173e-08
-1.80775e-08
-3.35859e-08
-1.77026e-08
-4.86553e-08
-1.63528e-08
-6.24368e-08
-1.41507e-08
-7.46126e-08
-1.12332e-08
-8.54149e-08
-7.71188e-09
-9.53062e-08
-3.66471e-09
-1.04697e-07
8.55695e-10
-1.13743e-07
5.79121e-09
-1.22314e-07
1.10595e-08
-1.30073e-07
1.65379e-08
-1.36647e-07
2.20718e-08
-1.41772e-07
2.74865e-08
-1.45374e-07
3.26112e-08
-1.47556e-07
3.72872e-08
-1.48519e-07
4.13788e-08
-1.48462e-07
4.47638e-08
-1.47505e-07
4.7331e-08
-1.45645e-07
4.89678e-08
-1.42752e-07
4.95583e-08
-1.38593e-07
4.8983e-08
-1.32818e-07
4.71209e-08
-1.24977e-07
4.38551e-08
-1.14429e-07
3.90748e-08
-1.00321e-07
3.26672e-08
-8.14153e-08
2.45304e-08
-5.60615e-08
1.45212e-08
-2.18725e-08
2.52444e-09
2.40481e-08
-1.16647e-08
8.6313e-08
-2.82281e-08
1.69377e-07
-4.72993e-08
2.82394e-07
-6.92057e-08
4.31841e-07
-9.34739e-08
6.35403e-07
-1.202e-07
9.0419e-07
-1.46975e-07
1.26952e-06
-1.70634e-07
1.75314e-06
-1.82914e-07
2.40432e-06
-1.67641e-07
3.25025e-06
4.34852e-06
-9.96057e-08
-6.69514e-10
1.09297e-08
-2.05859e-09
2.12706e-08
-3.51471e-09
2.12478e-08
-4.69701e-09
1.59681e-08
-5.72903e-09
1.14979e-08
-7.02904e-09
1.08462e-08
-8.91576e-09
1.25042e-08
-1.1352e-08
1.25667e-08
-1.39767e-08
7.86351e-09
-1.63021e-08
-2.35383e-09
-1.79079e-08
-1.67109e-08
-1.85381e-08
-3.29549e-08
-1.81146e-08
-4.90781e-08
-1.66932e-08
-6.38577e-08
-1.43998e-08
-7.69053e-08
-1.13737e-08
-8.84407e-08
-7.72661e-09
-9.89525e-08
-3.53671e-09
-1.08887e-07
1.14207e-09
-1.18421e-07
6.24823e-09
-1.2742e-07
1.16939e-08
-1.35518e-07
1.73496e-08
-1.42303e-07
2.30541e-08
-1.47476e-07
2.86275e-08
-1.50948e-07
3.3895e-08
-1.52823e-07
3.86953e-08
-1.5332e-07
4.2891e-08
-1.52658e-07
4.63585e-08
-1.50973e-07
4.89848e-08
-1.48272e-07
5.06564e-08
-1.44424e-07
5.12572e-08
-1.39194e-07
5.06686e-08
-1.3223e-07
4.87733e-08
-1.23082e-07
4.54596e-08
-1.11117e-07
4.06261e-08
-9.54877e-08
3.4172e-08
-7.49625e-08
2.60121e-08
-4.79022e-08
1.60308e-08
-1.18924e-08
4.13837e-09
3.59398e-08
-9.80368e-09
1.00254e-07
-2.59311e-08
1.85504e-07
-4.42428e-08
3.00704e-07
-6.49284e-08
4.52525e-07
-8.72945e-08
6.57765e-07
-1.11009e-07
9.27903e-07
-1.33277e-07
1.29179e-06
-1.50174e-07
1.77004e-06
-1.52665e-07
2.40681e-06
-1.24795e-07
3.22239e-06
4.26565e-06
-4.19206e-08
-6.92075e-10
1.16219e-08
-2.12669e-09
2.27055e-08
-3.62795e-09
2.27493e-08
-4.8497e-09
1.71902e-08
-5.92385e-09
1.25723e-08
-7.27761e-09
1.22004e-08
-9.23122e-09
1.44582e-08
-1.17388e-08
1.5075e-08
-1.4425e-08
1.05502e-08
-1.67888e-08
1.09367e-11
-1.84029e-08
-1.50962e-08
-1.90102e-08
-3.23468e-08
-1.85357e-08
-4.9552e-08
-1.70394e-08
-6.53536e-08
-1.46512e-08
-7.92928e-08
-1.15122e-08
-9.15794e-08
-7.73448e-09
-1.0273e-07
-3.39617e-09
-1.13225e-07
1.4477e-09
-1.23264e-07
6.73234e-09
-1.32705e-07
1.23643e-08
-1.4115e-07
1.82074e-08
-1.48146e-07
2.4094e-08
-1.53362e-07
2.98389e-08
-1.56693e-07
3.52636e-08
-1.58247e-07
4.0205e-08
-1.58261e-07
4.45242e-08
-1.56977e-07
4.80967e-08
-1.54546e-07
5.08086e-08
-1.50984e-07
5.2546e-08
-1.46163e-07
5.31935e-08
-1.39842e-07
5.26347e-08
-1.31672e-07
5.0758e-08
-1.21205e-07
4.74593e-08
-1.07819e-07
4.26491e-08
-9.06779e-08
3.62425e-08
-6.85572e-08
2.81739e-08
-3.98342e-08
1.83596e-08
-2.07934e-09
6.73859e-09
4.75601e-08
-6.75983e-09
1.13751e-07
-2.22178e-08
2.00961e-07
-3.95074e-08
3.17991e-07
-5.86652e-08
4.71682e-07
-7.8798e-08
6.77895e-07
-9.91592e-08
9.48263e-07
-1.16621e-07
1.30925e-06
-1.265e-07
1.77992e-06
-1.19296e-07
2.39961e-06
-7.93212e-08
3.18241e-06
4.16898e-06
1.73468e-08
-7.15256e-10
1.23373e-08
-2.19664e-09
2.41872e-08
-3.74448e-09
2.42973e-08
-5.00691e-09
1.84529e-08
-6.12434e-09
1.369e-08
-7.53356e-09
1.361e-08
-9.55602e-09
1.64811e-08
-1.2137e-08
1.76567e-08
-1.48863e-08
1.32999e-08
-1.72893e-08
2.41491e-09
-1.89114e-08
-1.34736e-08
-1.94945e-08
-3.1763e-08
-1.89665e-08
-5.00794e-08
-1.73922e-08
-6.69274e-08
-1.49055e-08
-8.17789e-08
-1.16494e-08
-9.48353e-08
-7.73643e-09
-1.06642e-07
-3.2444e-09
-1.17717e-07
1.77045e-09
-1.28279e-07
7.23998e-09
-1.38175e-07
1.3065e-08
-1.46975e-07
1.91027e-08
-1.54184e-07
2.51785e-08
-1.59438e-07
3.11023e-08
-1.62617e-07
3.66923e-08
-1.63837e-07
4.17833e-08
-1.63353e-07
4.62357e-08
-1.61429e-07
4.99241e-08
-1.58235e-07
5.27344e-08
-1.53794e-07
5.45526e-08
-1.47982e-07
5.52648e-08
-1.40554e-07
5.47581e-08
-1.31167e-07
5.29273e-08
-1.19375e-07
4.96781e-08
-1.04571e-07
4.49352e-08
-8.59354e-08
3.86324e-08
-6.22558e-08
3.07264e-08
-3.19288e-08
2.11691e-08
7.47656e-09
9.93274e-09
5.87956e-08
-2.98348e-09
1.26665e-07
-1.75996e-08
2.15576e-07
-3.36636e-08
3.34053e-07
-5.10466e-08
4.89063e-07
-6.86673e-08
6.95513e-07
-8.53621e-08
9.64956e-07
-9.76726e-08
1.32155e-06
-1.0037e-07
1.78261e-06
-8.34639e-08
2.3827e-06
-3.16812e-08
3.13063e-06
4.0592e-06
7.81018e-08
-7.39065e-10
1.30765e-08
-2.26845e-09
2.57168e-08
-3.86435e-09
2.58933e-08
-5.16875e-09
1.97575e-08
-6.33066e-09
1.4852e-08
-7.79696e-09
1.50766e-08
-9.89026e-09
1.85747e-08
-1.25466e-08
2.03137e-08
-1.53607e-08
1.61145e-08
-1.7804e-08
4.85905e-09
-1.94339e-08
-1.18432e-08
-1.99914e-08
-3.12048e-08
-1.94077e-08
-5.06626e-08
-1.77525e-08
-6.85823e-08
-1.51637e-08
-8.43672e-08
-1.17864e-08
-9.82124e-08
-7.73343e-09
-1.10694e-07
-3.08245e-09
-1.22368e-07
2.1091e-09
-1.3347e-07
7.76959e-09
-1.43836e-07
1.3794e-08
-1.52999e-07
2.00323e-08
-1.60423e-07
2.63035e-08
-1.65709e-07
3.24122e-08
-1.68726e-07
3.81731e-08
-1.69598e-07
4.34197e-08
-1.686e-07
4.80114e-08
-1.66021e-07
5.18225e-08
-1.62047e-07
5.47387e-08
-1.56711e-07
5.66464e-08
-1.4989e-07