/*--------------------------------*- C++ -*----------------------------------*\
  =========                 |
  \\      /  F ield         | OpenFOAM: The Open Source CFD Toolbox
   \\    /   O peration     | Website:  https://openfoam.org
    \\  /    A nd           | Version:  7
     \\/     M anipulation  |
\*---------------------------------------------------------------------------*/
FoamFile
{
    version     2.0;
    format      ascii;
    class       volScalarField;
    location    "0.32";
    object      p;
}
// * * * * * * * * * * * * * * * * * * * * * * * * * * * * * * * * * * * * * //

dimensions      [0 2 -2 0 0 0 0];

internalField   nonuniform List<scalar> 
70000
(
0.101113
0.0236471
0.0111041
0.013518
0.0136482
0.0125432
0.0115477
0.0107739
0.0101111
0.00951154
0.00896178
0.00845376
0.00797982
0.00753324
0.00710843
0.00670072
0.0063062
0.00592153
0.00554375
0.00517028
0.00479879
0.00442716
0.00405344
0.0036758
0.00329252
0.0029019
0.0025023
0.00209208
0.0016696
0.00123316
0.000781099
0.000311604
-0.000177037
-0.000686781
-0.00121936
-0.00177684
-0.00236098
-0.0029736
-0.00361678
-0.00429084
-0.00499961
-0.00573784
-0.00651626
-0.00731197
-0.00815923
-0.00898039
-0.00989131
-0.0106299
-0.0116064
-0.011921
0.0967455
0.024014
0.0113071
0.0136135
0.0137028
0.0125792
0.0115758
0.010797
0.0101305
0.00952813
0.00897621
0.00846649
0.00799118
0.00754347
0.0071177
0.00670919
0.00631399
0.00592872
0.00555042
0.00517649
0.00480458
0.00443258
0.00405853
0.00368059
0.00329703
0.00290615
0.00250631
0.00209586
0.00167315
0.00123651
0.000784239
0.000314542
-0.000174302
-0.000684249
-0.00121704
-0.00177473
-0.0023591
-0.00297195
-0.0036154
-0.00428973
-0.0049988
-0.0057374
-0.00651613
-0.00731231
-0.00816008
-0.00898183
-0.00989325
-0.0106341
-0.0116046
-0.0118899
0.0931651
0.0249542
0.0116476
0.0137427
0.013777
0.0126239
0.0116081
0.0108232
0.0101523
0.00954654
0.00899208
0.00848041
0.00800355
0.00755458
0.00712777
0.00671838
0.00632242
0.0059365
0.00555764
0.00518322
0.00481088
0.00443849
0.00406409
0.00368584
0.00330199
0.00291084
0.00251076
0.00210008
0.00167717
0.00124032
0.000787865
0.000317983
-0.000171041
-0.000681168
-0.00121414
-0.00177202
-0.00235658
-0.00296964
-0.00361331
-0.00428789
-0.00499727
-0.00573616
-0.00651542
-0.00731185
-0.00816036
-0.00898271
-0.009895
-0.0106395
-0.011587
-0.0118756
0.0900713
0.0260564
0.0121174
0.0139169
0.0138781
0.0126816
0.0116464
0.0108532
0.010177
0.00956712
0.00900959
0.00849561
0.00801696
0.00756656
0.00713858
0.00672821
0.00633143
0.00594481
0.00556535
0.0051904
0.00481761
0.00444482
0.00407006
0.00369149
0.00330735
0.00291596
0.00251565
0.00210476
0.00168166
0.00124463
0.000792016
0.000321986
-0.000167177
-0.000677436
-0.00121054
-0.00176854
-0.00235323
-0.00296642
-0.00361024
-0.00428498
-0.00499456
-0.0057337
-0.00651326
-0.00731019
-0.00815914
-0.00898278
-0.00989493
-0.0106462
-0.0115586
-0.0118795
0.0871123
0.0271534
0.0126839
0.0141379
0.014013
0.0127599
0.0116957
0.0108906
0.0102072
0.00959199
0.00903042
0.00851347
0.00803256
0.00758038
0.00715096
0.00673942
0.00634166
0.00595421
0.00557405
0.0051985
0.00482519
0.00445195
0.00407681
0.0036979
0.00331347
0.00292181
0.00252128
0.0021102
0.00168692
0.00124976
0.000797019
0.000326889
-0.000162355
-0.000672677
-0.00120583
-0.00176386
-0.00234858
-0.00296178
-0.00360563
-0.0042804
-0.00499004
-0.00572931
-0.00650902
-0.00730645
-0.00815553
-0.00898116
-0.00989192
-0.0106535
-0.0115257
-0.0118944
0.0842037
0.0281929
0.0132997
0.0143856
0.0141759
0.0128602
0.0117586
0.0109375
0.0102451
0.00962291
0.00905611
0.00853529
0.00805147
0.00759702
0.00716579
0.00675276
0.00635379
0.00596532
0.00558431
0.00520804
0.00483411
0.00446035
0.00408475
0.00370546
0.00332071
0.00292878
0.00252802
0.00211675
0.00169333
0.00125606
0.000803248
0.00033308
-0.000156171
-0.000666465
-0.00119956
-0.0017575
-0.0023421
-0.00295517
-0.00359885
-0.00427346
-0.00498294
-0.00572214
-0.00650175
-0.00729959
-0.00814902
-0.00897664
-0.00988469
-0.0106593
-0.0114918
-0.0119194
0.0813395
0.029156
0.0139312
0.0146382
0.0143534
0.0129779
0.0118341
0.0109938
0.0102908
0.00966054
0.0090874
0.00856185
0.00807445
0.0076172
0.00718373
0.00676888
0.0063684
0.00597869
0.00559662
0.00521947
0.0048448
0.00447041
0.00409429
0.00371456
0.00332944
0.00293722
0.00253622
0.00212479
0.00170125
0.00126391
0.000811087
0.000340959
-0.000148201
-0.000658348
-0.00119124
-0.00174893
-0.00233323
-0.00294593
-0.00358922
-0.0042634
-0.00497241
-0.00571125
-0.00649039
-0.00728845
-0.00813722
-0.00896799
-0.0098719
-0.0106615
-0.0114603
-0.0119548
0.0785256
0.0300348
0.0145624
0.014884
0.0145346
0.0131065
0.0119186
0.0110574
0.0103433
0.00970425
0.00912409
0.00859318
0.00810168
0.0076412
0.00720511
0.00678812
0.00638586
0.00599467
0.00561137
0.00523317
0.00485763
0.00448251
0.00410577
0.00372554
0.00334002
0.00294747
0.00254624
0.00213464
0.00171102
0.00127367
0.000820908
0.000350918
-0.000138031
-0.000647884
-0.00118041
-0.00173764
-0.0023214
-0.00293346
-0.00357605
-0.00424944
-0.00495761
-0.00569568
-0.00647388
-0.00727185
-0.00811936
-0.00895349
-0.00985237
-0.010658
-0.0114332
-0.0120002
0.075768
0.0308264
0.0151881
0.0151188
0.0147134
0.0132412
0.0120089
0.0111258
0.0104004
0.00975258
0.00916516
0.00862859
0.00813271
0.00766874
0.00722979
0.00681044
0.00640622
0.00601337
0.00562868
0.00524931
0.00487278
0.00449683
0.00411941
0.00373863
0.00335266
0.00295979
0.00255832
0.00214659
0.00172293
0.00128563
0.000833021
0.000363284
-0.000125312
-0.000634697
-0.00116665
-0.00172317
-0.00230612
-0.00291721
-0.00355873
-0.00423092
-0.00493778
-0.0056746
-0.00645128
-0.00724876
-0.00809426
-0.00893179
-0.00982515
-0.0106471
-0.0114111
-0.0120542
0.0730711
0.0315306
0.0158072
0.0153425
0.0148868
0.013379
0.0121028
0.0111968
0.0104603
0.00980396
0.00920931
0.00866703
0.0081667
0.00769915
0.00725727
0.00683546
0.00642917
0.00603458
0.00564841
0.00526779
0.0048902
0.00451338
0.00413524
0.00375387
0.00336745
0.00297425
0.00257258
0.00216075
0.00173712
0.00129996
0.000847609
0.00037826
-0.000109818
-0.000618535
-0.00114968
-0.00170521
-0.00228703
-0.00289679
-0.00353683
-0.00420734
-0.00491236
-0.00564737
-0.00642186
-0.00721838
-0.00806105
-0.00890178
-0.00978964
-0.0106277
-0.0113939
-0.012115
0.0704384
0.0321478
0.0164189
0.0155557
0.0150536
0.0135187
0.0121993
0.0112696
0.0105219
0.00985724
0.00925547
0.00870753
0.00820277
0.00773167
0.00728685
0.00686259
0.00645422
0.00605787
0.0056702
0.00528831
0.00490966
0.00453195
0.00415309
0.00377114
0.0033843
0.0029908
0.00258896
0.00217711
0.00175357
0.00131666
0.000864697
0.000395891
-9.14875e-05
-0.00059932
-0.00112941
-0.00168366
-0.002264
-0.00287203
-0.00351013
-0.00417846
-0.00488105
-0.00561369
-0.00638524
-0.00718022
-0.00801929
-0.00886273
-0.00974554
-0.0105992
-0.0113804
-0.0121802
0.0678727
0.0326784
0.0170218
0.0157596
0.0152126
0.0136593
0.012298
0.0113434
0.0105845
0.00991175
0.00930297
0.00874941
0.00824026
0.00776566
0.00731795
0.00689126
0.00648085
0.00608276
0.00569361
0.00531049
0.00493079
0.00455222
0.00417266
0.00379018
0.00340295
0.00300921
0.00260728
0.00219548
0.00177215
0.0013356
0.000884156
0.000416057
-7.0429e-05
-0.000577151
-0.00110592
-0.00165858
-0.0022371
-0.00284299
-0.00347869
-0.00414434
-0.0048439
-0.00557356
-0.00634145
-0.00713425
-0.00796902
-0.00881444
-0.00969306
-0.0105617
-0.0113687
-0.0122468
0.0653767
0.0331228
0.0176138
0.0159554
0.0153633
0.0138
0.0123989
0.0114183
0.0106478
0.00996716
0.00935147
0.00879229
0.00827878
0.0078007
0.00735013
0.00692106
0.00650863
0.00610885
0.00571827
0.00533393
0.00495324
0.00457385
0.00419364
0.00381068
0.00342312
0.00302922
0.00262727
0.00221561
0.00179259
0.00135652
0.000905746
0.00043852
-4.68796e-05
-0.000552267
-0.00107945
-0.00163023
-0.00220658
-0.00280995
-0.0034428
-0.00410528
-0.00480123
-0.00552734
-0.00629086
-0.00708083
-0.00791073
-0.00875725
-0.00963292
-0.0105157
-0.0113565
-0.0123114
0.0629528
0.0334819
0.0181926
0.0161443
0.0155052
0.01394
0.0125017
0.0114941
0.0107116
0.0100233
0.00940081
0.008836
0.00831812
0.00783657
0.00738317
0.00695173
0.00653732
0.00613586
0.00574388
0.00535838
0.00497672
0.00459655
0.00421576
0.00383236
0.00344454
0.00305053
0.00264865
0.00223723
0.00181462
0.00137916
0.000929187
0.000462994
-2.11363e-05
-0.000524979
-0.00105034
-0.00159896
-0.00217282
-0.00277331
-0.00340288
-0.00406175
-0.00475356
-0.00547557
-0.00623412
-0.00702061
-0.00784524
-0.00869192
-0.00956603
-0.0104621
-0.0113417
-0.0123701
0.0606034
0.033757
0.0187553
0.0163281
0.0156378
0.0140785
0.0126065
0.011571
0.010776
0.0100802
0.00945092
0.00888048
0.0083582
0.00787318
0.00741694
0.00698314
0.00656677
0.00616366
0.0057703
0.00538365
0.00500106
0.00462016
0.00423881
0.00385503
0.003467
0.00307296
0.00267121
0.00226011
0.00183801
0.00140326
0.000954225
0.000489209
6.51439e-06
-0.000495595
-0.00101891
-0.00156512
-0.00213621
-0.00273351
-0.00335944
-0.00401429
-0.00470149
-0.00541893
-0.006172
-0.00695438
-0.00777349
-0.00861942
-0.00949326
-0.0104019
-0.0113219
-0.0124194
0.0583305
0.0339498
0.0192986
0.0165081
0.0157609
0.0142143
0.0127128
0.0116488
0.0108408
0.0101376
0.00950178
0.0089257
0.00839899
0.00791048
0.00745141
0.00701526
0.00659691
0.00619216
0.00579743
0.00540966
0.00502617
0.00464456
0.00426268
0.00387857
0.00349038
0.00309636
0.00269481
0.0022841
0.00186259
0.00142866
0.000980669
0.000516959
3.58473e-05
-0.00046436
-0.00098544
-0.00152903
-0.00209708
-0.00269092
-0.00331288
-0.00396339
-0.00464559
-0.00535803
-0.00610522
-0.00688291
-0.00769637
-0.00854074
-0.00941534
-0.0103359
-0.0112957
-0.0124561
0.0561358
0.0340623
0.0198196
0.0166858
0.0158745
0.0143466
0.0128205
0.0117277
0.010906
0.0101955
0.00955335
0.00897165
0.00844048
0.00794847
0.00748656
0.00704806
0.00662774
0.00622135
0.00582527
0.00543639
0.005052
0.00466971
0.00428735
0.00390293
0.00351462
0.00312066
0.00271938
0.00230912
0.00188828
0.00145525
0.00100841
0.000546116
6.67189e-05
-0.00043144
-0.000950112
-0.00149089
-0.0020557
-0.00264583
-0.00326355
-0.00390941
-0.00458629
-0.00529335
-0.00603435
-0.00680684
-0.00761459
-0.00845672
-0.00933274
-0.0102644
-0.0112615
-0.0124775
0.0540207
0.034097
0.0203153
0.0168624
0.0159786
0.0144744
0.0129293
0.0118076
0.0109715
0.0102539
0.00960558
0.0090183
0.00848266
0.00798715
0.0075224
0.00708154
0.00665926
0.00625124
0.00585381
0.00546383
0.00507857
0.00469561
0.00431278
0.0039281
0.0035397
0.00314586
0.00274488
0.00233515
0.00191505
0.001483
0.00103739
0.000576623
9.90617e-05
-0.000396913
-0.000913022
-0.00145082
-0.00201218
-0.0025984
-0.00321163
-0.00385259
-0.00452386
-0.00522522
-0.00595977
-0.00672661
-0.00752859
-0.00836789
-0.00924564
-0.0101876
-0.0112181
-0.0124814
0.0519858
0.0340569
0.0207827
0.0170387
0.0160737
0.0145967
0.0130386
0.0118886
0.0110373
0.0103127
0.00965844
0.00906565
0.00852552
0.0080265
0.00755892
0.00711571
0.00669148
0.00628183
0.00588306
0.00549199
0.00510587
0.00472228
0.00433901
0.00395408
0.00356565
0.00317195
0.00277134
0.00236218
0.00194289
0.0015119
0.00106762
0.000608479
0.000132868
-0.000360795
-0.000874195
-0.00140885
-0.00196658
-0.00254869
-0.00315722
-0.00379302
-0.00445845
-0.00515378
-0.00588167
-0.00664243
-0.00743858
-0.00827452
-0.00915391
-0.0101051
-0.0111641
-0.0124659
0.0500316
0.0339454
0.0212191
0.0172154
0.01616
0.0147125
0.013148
0.0119706
0.0111034
0.0103717
0.00971186
0.00911368
0.00856907
0.00806653
0.00759613
0.00715058
0.0067244
0.00631313
0.00591303
0.0055209
0.00513395
0.00474973
0.00436605
0.00398091
0.00359247
0.00319898
0.00279878
0.00239026
0.00197185
0.00154199
0.00109913
0.000641715
0.000168168
-0.000323056
-0.000833603
-0.00136496
-0.00191888
-0.00249669
-0.0031003
-0.00373071
-0.00439006
-0.00507908
-0.00580008
-0.00655438
-0.00734454
-0.00817665
-0.0090572
-0.0100162
-0.0110985
-0.0124296
0.0481582
0.0337664
0.0216218
0.0173926
0.0162383
0.0148211
0.0132568
0.0120536
0.0111697
0.0104309
0.00976578
0.00916236
0.00861328
0.00810723
0.00763402
0.00718615
0.00675804
0.00634517
0.00594376
0.00555057
0.0051628
0.00477799
0.00439393
0.00400862
0.00362022
0.00322698
0.00282725
0.00241943
0.00200197
0.00157332
0.00113197
0.000676383
0.000205017
-0.00028364
-0.000791188
-0.00131909
-0.00186903
-0.00244233
-0.00304081
-0.0036656
-0.00431864
-0.00500104
-0.00571493
-0.00646239
-0.00724633
-0.00807408
-0.00895499
-0.00991998
-0.0110201
-0.0123711
0.0463649
0.0335245
0.0219883
0.0175702
0.0163093
0.0149218
0.0133644
0.0121376
0.0112363
0.0104902
0.00982012
0.00921165
0.00865814
0.0081486
0.0076726
0.00722243
0.0067924
0.00637794
0.00597524
0.00558103
0.00519247
0.00480709
0.00442269
0.00403725
0.00364892
0.00325598
0.00285677
0.00244972
0.00203329
0.00160594
0.00116619
0.000712546
0.000243481
-0.000242474
-0.000746874
-0.00127115
-0.00181692
-0.00238553
-0.00297867
-0.00359758
-0.00424408
-0.00491955
-0.00562608
-0.00636631
-0.00714369
-0.00796651
-0.00884668
-0.0098156
-0.0109278
-0.0122896
0.0446511
0.0332242
0.0223164
0.0177477
0.0163738
0.0150141
0.01347
0.0122223
0.011303
0.0105495
0.0098748
0.00926152
0.00870363
0.00819061
0.00771186
0.00725942
0.0068275
0.00641148
0.00600751
0.00561229
0.00522297
0.00483706
0.00445235
0.00406682
0.00367862
0.00328603
0.00288741
0.0024812
0.00206587
0.00163992
0.00120187
0.000750272
0.000283635
-0.000199478
-0.000700575
-0.00122106
-0.00176248
-0.00232617
-0.00291375
-0.00352653
-0.00416623
-0.00483446
-0.00553333
-0.00626592
-0.00703632
-0.00785352
-0.0087316
-0.00970204
-0.0108206
-0.0121842
0.0430155
0.0328706
0.0226042
0.0179243
0.0164327
0.0150976
0.0135727
0.0123075
0.0113701
0.0106087
0.0099297
0.00931192
0.00874975
0.00823327
0.00775179
0.00729712
0.00686334
0.00644579
0.00604058
0.00564438
0.00525434
0.00486793
0.00448295
0.00409737
0.00370935
0.00331718
0.00291921
0.00251391
0.00209977
0.0016753
0.00123907
0.000789637
0.000325559
-0.000154567
-0.000652198
-0.00116871
-0.00170557
-0.00226414
-0.00284592
-0.0034523
-0.00408494
-0.00474559
-0.00543647
-0.00616098
-0.00692387
-0.00773464
-0.00860907
-0.00957832
-0.0106975
-0.0120544
0.0414565
0.0324691
0.02285
0.0180985
0.0164871
0.0151721
0.0136718
0.0123929
0.0114373
0.0106678
0.00998474
0.00936278
0.00879646
0.00827656
0.00779239
0.00733554
0.00689994
0.00648088
0.00607446
0.00567733
0.00528659
0.00489973
0.00451452
0.00412894
0.00374116
0.00334946
0.00295223
0.00254792
0.00213505
0.00171217
0.00127786
0.000830715
0.000369335
-0.00010765
-0.000601645
-0.00111399
-0.0016461
-0.00219931
-0.00277506
-0.00337476
-0.00400004
-0.00465276
-0.00533528
-0.00605124
-0.00680597
-0.00760938
-0.00847841
-0.00944354
-0.0105578
-0.0118999
0.0399723
0.0320252
0.0230525
0.0182688
0.0165378
0.0152376
0.0137663
0.0124782
0.0115048
0.0107267
0.0100398
0.00941405
0.00884373
0.00832046
0.00783365
0.00737466
0.00693729
0.00651677
0.00610918
0.00571114
0.00531975
0.00493248
0.0045471
0.00416158
0.00377409
0.00338294
0.0029865
0.00258327
0.00217177
0.00175058
0.00131831
0.000873587
0.000415049
-5.86339e-05
-0.000548818
-0.0010568
-0.00158395
-0.00213155
-0.00270101
-0.00329374
-0.00391135
-0.00455578
-0.00522952
-0.0059364
-0.00668225
-0.00747724
-0.00833895
-0.00929682
-0.0104008
-0.0117205
0.0385606
0.0315444
0.023211
0.0184332
0.0165858
0.0152944
0.0138555
0.0125628
0.0115725
0.0107853
0.0100948
0.00946563
0.00889153
0.00836496
0.00787556
0.00741449
0.0069754
0.00655347
0.00614475
0.00574586
0.00535386
0.00496623
0.00458072
0.00419532
0.00380819
0.00341765
0.00302209
0.00262003
0.00221
0.00179061
0.0013605
0.000918335
0.000462791
-7.42276e-06
-0.00049361
-0.000997033
-0.00151899
-0.00206074
-0.00262364
-0.0032091
-0.0038187
-0.00445444
-0.00511894
-0.00581617
-0.00655231
-0.0073377
-0.00819003
-0.0091374
-0.0102259
-0.0115162
0.0372192
0.0310324
0.023325
0.0185895
0.0166319
0.0153429
0.0139387
0.0126463
0.0116403
0.0108436
0.0101496
0.00951743
0.00893981
0.00841004
0.0079181
0.00745502
0.00701427
0.00659099
0.00618119
0.00578149
0.00538894
0.005001
0.00461542
0.0042302
0.0038435
0.00345365
0.00305906
0.00265825
0.0022498
0.00183233
0.00140451
0.000965045
0.000512653
4.60831e-05
-0.000435915
-0.000934561
-0.00145109
-0.00198674
-0.0025428
-0.00312065
-0.00372189
-0.00434853
-0.00500329
-0.00569023
-0.00641578
-0.00719025
-0.00803106
-0.00896462
-0.0100326
-0.0112873
0.0359452
0.0304947
0.0233947
0.0187352
0.0166768
0.0153836
0.014015
0.0127281
0.0117082
0.0109017
0.0102041
0.00956935
0.00898853
0.00845566
0.00796126
0.00749625
0.00705391
0.00662933
0.00621851
0.00581805
0.00542501
0.00503682
0.00465124
0.00426626
0.00388007
0.00349099
0.00309746
0.00269801
0.00229124
0.00187581
0.00145042
0.0010138
0.000564728
0.000101986
-0.000375622
-0.000869269
-0.00138013
-0.0019094
-0.00245832
-0.00302824
-0.00362074
-0.00423784
-0.00488231
-0.00555828
-0.00627226
-0.00703439
-0.00786148
-0.00877792
-0.0098207
-0.0110339
0.0347359
0.0299369
0.0234208
0.0188677
0.0167208
0.0154172
0.0140841
0.0128075
0.0117758
0.0109594
0.0102582
0.00962129
0.00903761
0.00850181
0.00800502
0.00753815
0.00709431
0.00666851
0.00625673
0.00585558
0.0054621
0.00507373
0.00468821
0.00430356
0.00391795
0.00352973
0.00313735
0.00273936
0.00233439
0.00192113
0.00149831
0.0010647
0.000619116
0.000160391
-0.000312619
-0.000801035
-0.00130598
-0.00182859
-0.00237005
-0.00293169
-0.00351505
-0.00412214
-0.00475575
-0.00542
-0.00612136
-0.00686968
-0.00768077
-0.00857682
-0.00959002
-0.0107567
0.0335884
0.0293638
0.0234043
0.0189848
0.0167639
0.0154444
0.0141456
0.0128837
0.0118431
0.0110168
0.0103118
0.00967313
0.00908698
0.00854845
0.00804937
0.00758072
0.00713547
0.00670852
0.00629586
0.00589409
0.00550024
0.00511175
0.00472638
0.00434212
0.00395719
0.00356991
0.00317879
0.00278237
0.00237933
0.00196837
0.00154826
0.00111783
0.000675914
0.000221404
-0.000246789
-0.000729735
-0.0012285
-0.00174415
-0.00227784
-0.00283083
-0.00340463
-0.00400121
-0.00462335
-0.00527507
-0.0059627
-0.00669567
-0.00748849
-0.00836099
-0.00934053
-0.0104562
0.0324996
0.0287804
0.023347
0.0190842
0.0168059
0.0154661
0.0141993
0.0129562
0.0119097
0.0110738
0.0103649
0.00972475
0.00913656
0.00859554
0.00809427
0.00762395
0.00717738
0.00674938
0.00633592
0.00593359
0.00553945
0.00515093
0.00476578
0.00438201
0.00399783
0.00361161
0.00322184
0.00282712
0.00242613
0.00201761
0.00160038
0.00117328
0.000735225
0.000285137
-0.000178015
-0.000655243
-0.00114755
-0.00165595
-0.00218152
-0.00272547
-0.00328927
-0.00387482
-0.00448484
-0.0051232
-0.00579596
-0.00651196
-0.00728427
-0.00813018
-0.00907237
-0.0101332
0.0314666
0.0281908
0.0232509
0.0191642
0.016846
0.0154829
0.0142452
0.0130243
0.0119752
0.0111304
0.0104174
0.00977603
0.00918625
0.00864301
0.00813971
0.00766781
0.00722004
0.00679108
0.00637691
0.00597411
0.00557976
0.00519129
0.00480644
0.00442325
0.00403993
0.00365486
0.00326657
0.00287366
0.00247486
0.00206893
0.00165474
0.00123116
0.000797152
0.000351699
-0.000106177
-0.000577429
-0.00106299
-0.00156383
-0.00208093
-0.00261546
-0.00316879
-0.00374277
-0.00433997
-0.00496411
-0.00562081
-0.0063182
-0.0070678
-0.0078843
-0.0087858
-0.00978853
0.0304862
0.027599
0.0231187
0.0192231
0.0168834
0.0154955
0.0142834
0.0130873
0.0120392
0.0111865
0.0104693
0.00982688
0.00923595
0.00869083
0.00818565
0.00771229
0.00726342
0.00683363
0.00641884
0.00601568
0.0056212
0.00523286
0.00484842
0.0044659
0.00408354
0.00369974
0.00331304
0.00292208
0.0025256
0.00212242
0.00171143
0.00129156
0.000861802
0.000421204
-3.11556e-05
-0.000496166
-0.000974699
-0.00146764
-0.00197592
-0.0025006
-0.003043
-0.00360482
-0.0041885
-0.00479751
-0.00543697
-0.00611414
-0.0068389
-0.00762333
-0.00848124
-0.00942328
0.0295555
0.0270082
0.0229532
0.0192599
0.0169168
0.0155045
0.0143141
0.0131446
0.0121011
0.0112419
0.0105205
0.00987718
0.00928555
0.00873892
0.00823206
0.00775736
0.00730753
0.00687702
0.00646173
0.00605829
0.00566379
0.00527569
0.00489174
0.00451
0.00412871
0.00374629
0.00336131
0.00297244
0.00257844
0.00217817
0.00177055
0.00135457
0.000929278
0.000493764
4.71716e-05
-0.000411324
-0.000882524
-0.00136724
-0.00186631
-0.00238074
-0.00291169
-0.00346077
-0.00403019
-0.00462313
-0.00524419
-0.00589954
-0.00659746
-0.00734742
-0.00815923
-0.00903859
0.0286715
0.0264215
0.0227576
0.0192737
0.0169449
0.0155102
0.014338
0.013196
0.0121605
0.0112966
0.010571
0.00992684
0.00933493
0.00878719
0.0082789
0.00780301
0.00735234
0.00692125
0.00650557
0.00610197
0.00570756
0.00531979
0.00493645
0.0045556
0.0041755
0.00379459
0.00341146
0.00302481
0.00263344
0.00223625
0.00183219
0.00142031
0.000999689
0.000569494
0.000128926
-0.000322774
-0.000786331
-0.00126247
-0.00175197
-0.00225569
-0.0027747
-0.00331044
-0.00386486
-0.00444079
-0.00504222
-0.00567425
-0.00634345
-0.00705681
-0.00782045
-0.00863571
0.0278313
0.0258412
0.0225352
0.019264
0.0169661
0.0155129
0.0143553
0.013241
0.0122168
0.0113501
0.0106207
0.0099758
0.00938398
0.00883557
0.00832611
0.00784921
0.00739784
0.0069663
0.00655038
0.00614674
0.00575252
0.00536521
0.00498259
0.00460275
0.00422395
0.00384469
0.00346355
0.00307927
0.0026907
0.00229675
0.00189645
0.00148886
0.00107314
0.000648508
0.000214227
-0.000230388
-0.000685985
-0.00115321
-0.00163272
-0.00212529
-0.00263184
-0.00315363
-0.00369231
-0.00425029
-0.0048309
-0.00543818
-0.00607696
-0.00675187
-0.0074657
-0.00821603
0.0270322
0.0252695
0.0222893
0.0192309
0.0169791
0.0155125
0.0143666
0.0132795
0.0122695
0.0114023
0.0106696
0.010024
0.00943258
0.00888396
0.00837366
0.00789592
0.007444
0.00701217
0.00659614
0.0061926
0.0057987
0.00541196
0.00503019
0.00465148
0.00427413
0.00389664
0.00351764
0.0031359
0.00275028
0.00235977
0.00196341
0.00156033
0.00114974
0.000730918
0.000303195
-0.00013404
-0.000581354
-0.0010393
-0.00150844
-0.00198941
-0.00248297
-0.00299017
-0.00351239
-0.00405152
-0.00461017
-0.00519134
-0.00579818
-0.0064331
-0.00709592
-0.00778101
0.0262717
0.024708
0.0220233
0.0191747
0.0169824
0.0155089
0.0143724
0.0133115
0.012318
0.0114528
0.0107175
0.0100713
0.00948064
0.00893225
0.00842146
0.00794312
0.00749082
0.00705885
0.00664287
0.00623956
0.00584612
0.00546008
0.00507929
0.00470185
0.00432608
0.00395051
0.00357381
0.00319476
0.00281228
0.00242539
0.00203317
0.00163482
0.0012296
0.000816836
0.000395947
-3.3609e-05
-0.000472311
-0.000920618
-0.00137897
-0.00184789
-0.00232794
-0.00281993
-0.00332491
-0.00384437
-0.00438
-0.00493382
-0.0055074
-0.0061011
-0.00671214
-0.00733221
0.0255473
0.0241581
0.0217403
0.0190962
0.0169747
0.0155017
0.0143732
0.013337
0.0123621
0.0115013
0.0107644
0.0101178
0.00952806
0.00898033
0.00846945
0.00799075
0.00753826
0.00710632
0.00669056
0.00628764
0.0058948
0.00550961
0.00512993
0.0047539
0.00437986
0.00400637
0.00363211
0.00325593
0.00287677
0.00249369
0.00210583
0.00171242
0.00131281
0.000906371
0.000492595
7.1024e-05
-0.000358735
-0.000797036
-0.00124421
-0.0017006
-0.00216662
-0.0026428
-0.00312984
-0.00362875
-0.00414041
-0.00466579
-0.00520501
-0.0057566
-0.0063155
-0.00687127
0.0248567
0.0236206
0.0214436
0.0189965
0.0169552
0.0154904
0.0143694
0.0133563
0.0124013
0.0115472
0.0108101
0.0101632
0.00957474
0.00902811
0.00851755
0.00803878
0.00758629
0.00715457
0.0067392
0.00633684
0.00594475
0.00556056
0.00518214
0.00480767
0.00443552
0.00406426
0.00369262
0.00331948
0.00294383
0.00256476
0.00218147
0.00179324
0.00139948
0.000999627
0.00059325
0.000179971
-0.00024051
-0.00066844
-0.00110402
-0.00154745
-0.00199892
-0.00245871
-0.00292712
-0.00340467
-0.00389149
-0.00438752
-0.00489152
-0.0054004
-0.00590722
-0.00639986
0.0241978
0.0230962
0.0211357
0.0188769
0.016923
0.0154742
0.0143612
0.0133695
0.0124353
0.0115904
0.0108544
0.0102077
0.00962061
0.00907548
0.00856568
0.00808716
0.0076349
0.00720358
0.00678879
0.00638716
0.005996
0.00561295
0.00523596
0.00486321
0.0044931
0.00412424
0.0037554
0.00338549
0.00301354
0.00263868
0.00226018
0.00187737
0.0014897
0.00109671
0.000698015
0.000293337
-0.000117532
-0.000534726
-0.000958314
-0.00138832
-0.00182476
-0.00226759
-0.00271674
-0.0031722
-0.00363343
-0.00409934
-0.0045675
-0.00503342
-0.00548861
-0.00591972
0.0235686
0.0225855
0.0208195
0.0187388
0.0168776
0.0154524
0.0143487
0.0133771
0.0124641
0.0116303
0.010897
0.0102511
0.00966561
0.00912234
0.00861373
0.00813582
0.00768403
0.00725332
0.00683931
0.00643861
0.00604855
0.00566683
0.00529142
0.00492055
0.00455266
0.00418638
0.00382052
0.00345402
0.00308597
0.00271554
0.00234205
0.00196489
0.00158358
0.00119771
0.000806987
0.000411218
1.02943e-05
-0.000395804
-0.000807007
-0.00122317
-0.00164407
-0.00206941
-0.00249875
-0.0029315
-0.00336646
-0.00380168
-0.00423364
-0.00465666
-0.00506105
-0.0054326
0.0229672
0.0220887
0.0204971
0.018584
0.0168188
0.0154244
0.014332
0.0133792
0.0124875
0.0116666
0.0109377
0.0102932
0.00970966
0.0091686
0.00866162
0.0081847
0.00773367
0.00730379
0.00689076
0.00649118
0.00610241
0.00572219
0.00534855
0.00497975
0.00461425
0.00425073
0.00388803
0.00352515
0.0031612
0.00279542
0.00242716
0.0020559
0.00168119
0.00130271
0.000920255
0.000533702
0.000143051
-0.0002516
-0.000650037
-0.00105195
-0.00145686
-0.0018642
-0.00227323
-0.00268274
-0.00309092
-0.00349508
-0.00389072
-0.00427121
-0.00462596
-0.00494027
0.022392
0.021606
0.0201708
0.0184143
0.0167467
0.0153894
0.0143109
0.0133761
0.0125055
0.0116991
0.0109762
0.010334
0.00975269
0.00921417
0.00870926
0.00823372
0.00778376
0.00735495
0.00694311
0.00654488
0.0061576
0.00577907
0.00540738
0.00504082
0.0046779
0.00431733
0.003958
0.00359893
0.00323929
0.00287838
0.0025156
0.00215046
0.00178262
0.00141181
0.0010379
0.000660862
0.000280804
-0.000102058
-0.000487365
-0.000874631
-0.00126315
-0.00165207
-0.00204031
-0.00242616
-0.00280722
-0.00318011
-0.00353957
-0.00387819
-0.0041848
-0.0044445
0.0218415
0.0211372
0.0198422
0.0182314
0.0166617
0.0153469
0.0142854
0.0133682
0.0125182
0.0117274
0.0110122
0.0103733
0.00979465
0.00925898
0.00875655
0.00828282
0.00783425
0.00740677
0.00699636
0.00659968
0.00621411
0.00583749
0.00546794
0.00510382
0.00474367
0.00438625
0.00403047
0.00367543
0.00332033
0.0029645
0.00260742
0.00224867
0.00188794
0.00152507
0.00115998
0.000792761
0.000423607
5.28601e-05
-0.000318975
-0.000691245
-0.001063
-0.00143311
-0.00180019
-0.00216207
-0.00251581
-0.00285745
-0.00318111
-0.00347882
-0.00373905
-0.00394702
0.0213141
0.0206823
0.019513
0.0180372
0.0165641
0.0152964
0.014255
0.0133555
0.0125258
0.0117516
0.0110455
0.010411
0.00983544
0.00930295
0.00880341
0.00833192
0.00788509
0.00745922
0.00705049
0.0066556
0.00627196
0.00589744
0.00553025
0.00516876
0.00481159
0.00445752
0.00410552
0.00375471
0.00340435
0.00305385
0.00270271
0.00235058
0.00199723
0.00164255
0.00128657
0.000929443
0.000571489
0.000213166
-0.000144875
-0.000501813
-0.000856525
-0.00120751
-0.00155313
-0.00189085
-0.00221723
-0.00252783
-0.00281631
-0.00307431
-0.00329021
-0.00344952
0.0208086
0.0202411
0.0191845
0.0178333
0.0164546
0.0152376
0.0142197
0.0133382
0.0125284
0.0117713
0.0110759
0.0104468
0.00987498
0.00934602
0.00884975
0.00838092
0.00793623
0.00751228
0.00710547
0.00671261
0.00633113
0.00595896
0.00559432
0.00523569
0.0048817
0.00453119
0.00418317
0.00383681
0.00349143
0.00314647
0.00280151
0.00245625
0.00211052
0.0017643
0.00141769
0.00107094
0.000724464
0.000378848
3.4888e-05
-0.000306402
-0.000643709
-0.000975509
-0.00129948
-0.00161294
-0.00191209
-0.00219206
-0.00244619
-0.00266594
-0.00283975
-0.00295367
0.0203237
0.0198134
0.018858
0.0176214
0.0163342
0.0151705
0.0141791
0.0133165
0.0125262
0.0117866
0.011103
0.0104807
0.00991316
0.00938812
0.00889551
0.00842977
0.00798761
0.00756589
0.00716128
0.00677071
0.00639163
0.00602203
0.00566019
0.00530462
0.00495403
0.0046073
0.00426348
0.0039218
0.00358162
0.00324243
0.00290388
0.00256573
0.00222787
0.00189036
0.00155337
0.00121725
0.000882519
0.00054987
0.000220236
-0.000105197
-0.000424976
-0.000737295
-0.00103959
-0.00132886
-0.00160104
-0.00185099
-0.00207182
-0.00225497
-0.00238913
-0.00246105
0.0198583
0.0193989
0.0185343
0.0174031
0.0162037
0.015095
0.0141329
0.0132902
0.0125193
0.0117975
0.0111268
0.0105122
0.00994988
0.00942919
0.00894061
0.00847838
0.00803915
0.00762001
0.0072179
0.00682987
0.00645346
0.00608667
0.00572785
0.00537558
0.00502861
0.00468588
0.00434649
0.0040097
0.00367495
0.00334177
0.00300986
0.00267905
0.00234931
0.00202075
0.00169363
0.00136838
0.00104562
0.000726163
0.000411062
0.000101649
-0.00020043
-0.000493179
-0.000773847
-0.00103915
-0.00128481
-0.00150551
-0.00169428
-0.00184267
-0.00193978
-0.00197315
0.0194115
0.0189975
0.0182144
0.0171796
0.0160641
0.0150112
0.014081
0.0132595
0.0125079
0.0118041
0.0111471
0.0105415
0.00998501
0.00946915
0.00898499
0.00852667
0.00809079
0.00767461
0.0072753
0.00689009
0.0065166
0.00615288
0.00579733
0.00544859
0.00510547
0.00476696
0.00443222
0.00410056
0.00377146
0.00344452
0.00311948
0.00279625
0.00247485
0.00215547
0.00183844
0.00152428
0.00121371
0.000907632
0.000607222
0.00031396
2.96534e-05
-0.000243554
-0.000502743
-0.000744406
-0.00096414
-0.00115654
-0.00131467
-0.0014303
-0.00149306
-0.00149138
0.0189822
0.0186087
0.0178989
0.0169525
0.0159165
0.0149196
0.0140233
0.0132242
0.0124922
0.0118064
0.0111638
0.0105681
0.0100184
0.00950793
0.00902859
0.0085746
0.00814248
0.00772962
0.00733344
0.00695134
0.00658104
0.00622065
0.00586862
0.00552365
0.00518462
0.00485056
0.0045207
0.0041944
0.00387118
0.0035507
0.00323277
0.00291733
0.0026045
0.00229451
0.00198778
0.00168491
0.00138669
0.00109415
0.000808551
0.000531501
0.000264936
1.11664e-05
-0.000226793
-0.000445292
-0.000639841
-0.00080504
-0.00093409
-0.00101909
-0.00105029
-0.00101704
0.0185697
0.0182323
0.0175885
0.0167228
0.0157618
0.0148205
0.0139597
0.0131844
0.0124722
0.0118045
0.0111769
0.0105921
0.01005
0.00954546
0.00907135
0.00862208
0.00819414
0.007785
0.00739229
0.0070136
0.00664677
0.00628997
0.00594172
0.00560077
0.00526607
0.00493671
0.00461195
0.00429123
0.00397412
0.00366032
0.00334971
0.00304229
0.00273822
0.00243783
0.00214158
0.00185016
0.00156445
0.00128555
0.00101484
0.000753995
0.000505046
0.000270513
5.34336e-05
-0.000142492
-0.000312737
-0.000451974
-0.000553635
-0.000610227
-0.000612683
-0.000551341
0.0181731
0.0178679