/*--------------------------------*- C++ -*----------------------------------*\
  =========                 |
  \\      /  F ield         | OpenFOAM: The Open Source CFD Toolbox
   \\    /   O peration     | Website:  https://openfoam.org
    \\  /    A nd           | Version:  7
     \\/     M anipulation  |
\*---------------------------------------------------------------------------*/
FoamFile
{
    version     2.0;
    format      ascii;
    class       surfaceScalarField;
    location    "0.32";
    object      phi;
}
// * * * * * * * * * * * * * * * * * * * * * * * * * * * * * * * * * * * * * //

dimensions      [0 3 -1 0 0 0 0];

internalField   nonuniform List<scalar> 
139350
(
6.4514e-08
9.21175e-08
3.19698e-08
3.25442e-08
2.30683e-08
8.90152e-09
1.95874e-08
3.48086e-09
1.76395e-08
1.9479e-09
1.62134e-08
1.42612e-09
1.50845e-08
1.12885e-09
1.41762e-08
9.08317e-10
1.34298e-08
7.46474e-10
1.28018e-08
6.27958e-10
1.22636e-08
5.38215e-10
1.17958e-08
4.6777e-10
1.13848e-08
4.11016e-10
1.10204e-08
3.64426e-10
1.06948e-08
3.25598e-10
1.0402e-08
2.92813e-10
1.01372e-08
2.64808e-10
9.89651e-09
2.40639e-10
9.67693e-09
2.19583e-10
9.47585e-09
2.0108e-10
9.29116e-09
1.84685e-10
9.12112e-09
1.70043e-10
8.96425e-09
1.56867e-10
8.81933e-09
1.44918e-10
8.68533e-09
1.34001e-10
8.56139e-09
1.23948e-10
8.44677e-09
1.14617e-10
8.34088e-09
1.0589e-10
8.24323e-09
9.7653e-11
8.15341e-09
8.9821e-11
8.07111e-09
8.22923e-11
7.9961e-09
7.50128e-11
7.92823e-09
6.78687e-11
7.86738e-09
6.08516e-11
7.81358e-09
5.38019e-11
7.76679e-09
4.67864e-11
7.72723e-09
3.9562e-11
7.69494e-09
3.22925e-11
7.67026e-09
2.46729e-11
7.65341e-09
1.68502e-11
7.64461e-09
8.80209e-12
7.64469e-09
-7.55228e-14
7.65261e-09
-7.92021e-12
7.6717e-09
-1.90886e-11
7.69536e-09
-2.36681e-11
7.73698e-09
-4.16115e-11
7.7653e-09
-2.83209e-11
7.85322e-09
-8.79269e-11
7.67436e-09
1.78862e-10
-3.44391e-09
1.11183e-08
1.25946e-07
1.27615e-07
9.12993e-08
6.71908e-08
7.19559e-08
2.82449e-08
6.12507e-08
1.4186e-08
5.48251e-08
8.37351e-09
5.03412e-08
5.91e-09
4.68678e-08
4.60224e-09
4.40655e-08
3.71063e-09
4.17535e-08
3.05852e-09
3.98063e-08
2.57519e-09
3.81367e-08
2.20776e-09
3.6685e-08
1.91954e-09
3.54084e-08
1.68756e-09
3.42756e-08
1.4972e-09
3.32627e-08
1.33858e-09
3.23508e-08
1.20467e-09
3.15253e-08
1.09032e-09
3.07743e-08
9.91665e-10
3.00881e-08
9.05763e-10
2.94588e-08
8.30323e-10
2.888e-08
7.63536e-10
2.83461e-08
7.03953e-10
2.78525e-08
6.50402e-10
2.73955e-08
6.01915e-10
2.69719e-08
5.57695e-10
2.65787e-08
5.17067e-10
2.62139e-08
4.79459e-10
2.58754e-08
4.44382e-10
2.55617e-08
4.11395e-10
2.52713e-08
3.80133e-10
2.50034e-08
3.50222e-10
2.4757e-08
3.21396e-10
2.45316e-08
2.93269e-10
2.43268e-08
2.65715e-10
2.41424e-08
2.38211e-10
2.39783e-08
2.10892e-10
2.38349e-08
1.82876e-10
2.37124e-08
1.54839e-10
2.36119e-08
1.25165e-10
2.35332e-08
9.55167e-11
2.34789e-08
6.31384e-11
2.34478e-08
3.09739e-11
2.34444e-08
-4.43137e-12
2.34658e-08
-4.04837e-11
2.35174e-08
-7.53535e-11
2.35974e-08
-1.21528e-10
2.36951e-08
-1.26072e-10
2.38803e-08
-2.73136e-10
2.38478e-08
2.11365e-10
-4.20504e-09
2.46089e-08
1.58755e-07
1.35264e-07
1.36537e-07
8.94087e-08
1.17515e-07
4.72661e-08
1.03353e-07
2.83481e-08
9.33763e-08
1.83505e-08
8.60944e-08
1.31919e-08
8.04062e-08
1.02905e-08
7.57749e-08
8.34198e-09
7.19177e-08
6.91566e-09
6.86471e-08
5.84585e-09
6.58295e-08
5.02529e-09
6.33705e-08
4.37857e-09
6.12016e-08
3.85648e-09
5.92717e-08
3.42702e-09
5.75419e-08
3.06841e-09
5.59814e-08
2.76514e-09
5.4566e-08
2.5058e-09
5.32758e-08
2.28182e-09
5.20949e-08
2.08664e-09
5.10101e-08
1.91513e-09
5.00104e-08
1.76325e-09
4.90866e-08
1.62776e-09
4.8231e-08
1.506e-09
4.74371e-08
1.39583e-09
4.66993e-08
1.29543e-09
4.60131e-08
1.2033e-09
4.53744e-08
1.11816e-09
4.47799e-08
1.03889e-09
4.42268e-08
9.6452e-10
4.37127e-08
8.94215e-10
4.32357e-08
8.27168e-10
4.27944e-08
7.62742e-10
4.23875e-08
7.00146e-10
4.20142e-08
6.39002e-10
4.16742e-08
5.78274e-10
4.13669e-08
5.18123e-10
4.10931e-08
4.56708e-10
4.08524e-08
3.95502e-10
4.0647e-08
3.30646e-10
4.04758e-08
2.66685e-10
4.03437e-08
1.9528e-10
4.02471e-08
1.27522e-10
4.01963e-08
4.63922e-11
4.0181e-08
-2.52391e-11
4.02215e-08
-1.15835e-10
4.02955e-08
-1.95502e-10
4.04265e-08
-2.57096e-10
4.06332e-08
-4.79831e-10
4.08138e-08
3.07791e-11
-4.06805e-09
4.06768e-08
1.75613e-07
1.31167e-07
1.65631e-07
9.93902e-08
1.52755e-07
6.01426e-08
1.40162e-07
4.09407e-08
1.29502e-07
2.9011e-08
1.20885e-07
2.18086e-08
1.13797e-07
1.73786e-08
1.07841e-07
1.42974e-08
1.02768e-07
1.19892e-08
9.83932e-08
1.02205e-08
9.45777e-08
8.84083e-09
9.12156e-08
7.74059e-09
8.82274e-08
6.84467e-09
8.55518e-08
6.10268e-09
8.31405e-08
5.47965e-09
8.09554e-08
4.95032e-09
7.89653e-08
4.49592e-09
7.71449e-08
4.10222e-09
7.54733e-08
3.75823e-09
7.39331e-08
3.4553e-09
7.25098e-08
3.18658e-09
7.1191e-08
2.94652e-09
6.99664e-08
2.7306e-09
6.88271e-08
2.5351e-09
6.77656e-08
2.35692e-09
6.67755e-08
2.19343e-09
6.58513e-08
2.04242e-09
6.49882e-08
1.90196e-09
6.41823e-08
1.77037e-09
6.34304e-08
1.64618e-09
6.27295e-08
1.52802e-09
6.20775e-08
1.41474e-09
6.14726e-08
1.30504e-09
6.09134e-08
1.19817e-09
6.03993e-08
1.09247e-09
5.99293e-08
9.88057e-10
5.95041e-08
8.81933e-10
5.91231e-08
7.76495e-10
5.87887e-08
6.65088e-10
5.84995e-08
5.55849e-10
5.82615e-08
4.33322e-10
5.807e-08
3.19025e-10
5.7938e-08
1.78358e-10
5.78523e-08
6.04226e-11
5.78394e-08
-1.02864e-10
5.78703e-08
-2.26401e-10
5.79812e-08
-3.68069e-10
5.81643e-08
-6.62952e-10
5.84246e-08
-2.29514e-10
-3.77922e-09
5.81358e-08
1.84511e-07
1.23442e-07
1.82346e-07
1.01555e-07
1.76136e-07
6.63527e-08
1.67793e-07
4.92832e-08
1.59194e-07
3.76109e-08
1.51311e-07
2.96908e-08
1.44265e-07
2.44248e-08
1.37994e-07
2.05687e-08
1.32424e-07
1.75592e-08
1.2747e-07
1.51739e-08
1.23047e-07
1.32638e-08
1.19078e-07
1.17096e-08
1.15499e-07
1.04243e-08
1.12255e-07
9.3464e-09
1.09303e-07
8.43204e-09
1.06605e-07
7.64856e-09
1.04129e-07
6.97117e-09
1.01851e-07
6.3807e-09
9.97469e-08
5.86211e-09
9.77988e-08
5.40343e-09
9.59903e-08
4.99503e-09
9.43078e-08
4.62905e-09
9.27394e-08
4.29903e-09
9.12749e-08
3.99958e-09
8.99056e-08
3.72622e-09
8.86239e-08
3.47512e-09
8.74233e-08
3.24301e-09
8.62982e-08
3.02707e-09
8.52438e-08
2.82481e-09
8.42559e-08
2.63403e-09
8.33312e-08
2.45273e-09
8.24668e-08
2.27916e-09
8.16604e-08
2.11143e-09
8.09102e-08
1.94836e-09
8.02151e-08
1.78757e-09
7.95741e-08
1.6291e-09
7.89873e-08
1.4687e-09
7.84542e-08
1.30963e-09
7.79769e-08
1.14235e-09
7.75542e-08
9.78551e-10
7.7192e-08
7.9558e-10
7.68858e-08
6.25187e-10
7.66486e-08
4.15571e-10
7.64683e-08
2.40681e-10
7.63695e-08
-3.98521e-12
7.63292e-08
-1.86108e-10
7.63751e-08
-4.14022e-10
7.65066e-08
-7.94383e-10
7.67351e-08
-4.58085e-10
-3.46901e-09
7.64249e-08
1.90343e-07
1.15315e-07
1.91863e-07
1.00035e-07
1.90274e-07
6.7942e-08
1.86181e-07
5.33763e-08
1.80759e-07
4.30328e-08
1.75029e-07
3.54211e-08
1.69358e-07
3.0096e-08
1.63902e-07
2.60243e-08
1.58758e-07
2.27029e-08
1.53968e-07
1.99643e-08
1.49533e-07
1.76987e-08
1.45437e-07
1.58058e-08
1.41655e-07
1.42059e-08
1.38162e-07
1.28398e-08
1.34931e-07
1.16633e-08
1.31937e-07
1.06421e-08
1.29159e-07
9.74949e-09
1.26575e-07
8.96409e-09
1.24169e-07
8.2687e-09
1.21923e-07
7.64931e-09
1.19823e-07
7.09444e-09
1.17858e-07
6.59456e-09
1.16015e-07
6.14173e-09
1.14286e-07
5.72925e-09
1.1266e-07
5.35143e-09
1.11132e-07
5.00342e-09
1.09694e-07
4.68101e-09
1.08341e-07
4.38053e-09
1.07067e-07
4.09875e-09
1.05868e-07
3.83276e-09
1.04741e-07
3.57993e-09
1.03682e-07
3.33793e-09
1.02689e-07
3.10426e-09
1.0176e-07
2.87728e-09
1.00894e-07
2.65393e-09
1.00089e-07
2.43405e-09
9.93454e-08
2.21222e-09
9.86626e-08
1.99238e-09
9.80426e-08
1.7624e-09
9.74843e-08
1.53684e-09
9.69929e-08
1.28702e-09
9.65654e-08
1.05269e-09
9.62122e-08
7.68767e-10
9.5926e-08
5.26858e-10
9.57232e-08
1.9882e-10
9.55952e-08
-5.81158e-11
9.55497e-08
-3.6857e-10
9.56047e-08
-8.49363e-10
9.5759e-08
-6.12396e-10
-3.11618e-09
9.54062e-08
1.95505e-07
1.07624e-07
1.98251e-07
9.72892e-08
1.98995e-07
6.71977e-08
1.9781e-07
5.45613e-08
1.95189e-07
4.56537e-08
1.91868e-07
3.8743e-08
1.88158e-07
3.38058e-08
1.84233e-07
2.99494e-08
1.80242e-07
2.66934e-08
1.76295e-07
2.39109e-08
1.7246e-07
2.1534e-08
1.68774e-07
1.94915e-08
1.65258e-07
1.77221e-08
1.6192e-07
1.61784e-08
1.58759e-07
1.48237e-08
1.55773e-07
1.36286e-08
1.52953e-07
1.25689e-08
1.50293e-07
1.16247e-08
1.47782e-07
1.07795e-08
1.45412e-07
1.00193e-08
1.43174e-07
9.33241e-09
1.4106e-07
8.7089e-09
1.39061e-07
8.14026e-09
1.37171e-07
7.61919e-09
1.35383e-07
7.13941e-09
1.33691e-07
6.69544e-09
1.3209e-07
6.2825e-09
1.30574e-07
5.89632e-09
1.29139e-07
5.53315e-09
1.27783e-07
5.18955e-09
1.265e-07
4.86237e-09
1.25289e-07
4.54878e-09
1.24148e-07
4.24579e-09
1.23074e-07
3.95134e-09
1.22066e-07
3.66174e-09
1.21123e-07
3.37663e-09
1.20246e-07
3.0896e-09
1.19433e-07
2.80494e-09
1.18687e-07
2.50856e-09
1.18007e-07
2.21682e-09
1.17397e-07
1.89689e-09
1.16857e-07
1.59326e-09
1.16392e-07
1.23323e-09
1.16003e-07
9.16424e-10
1.15695e-07
5.06851e-10
1.15475e-07
1.62162e-10
1.15332e-07
-2.25727e-10
1.15294e-07
-8.11262e-10
1.15362e-07
-6.81211e-10
-2.71771e-09
1.14964e-07
2.0082e-07
1.00389e-07
2.03776e-07
9.43338e-08
2.05354e-07
6.56192e-08
2.05663e-07
5.42526e-08
2.04843e-07
4.64735e-08
2.03378e-07
4.02083e-08
2.01448e-07
3.57356e-08
1.99139e-07
3.22584e-08
1.96558e-07
2.92747e-08
1.93807e-07
2.66622e-08
1.90965e-07
2.43753e-08
1.88093e-07
2.23632e-08
1.85235e-07
2.05802e-08
1.82423e-07
1.89912e-08
1.79677e-07
1.75693e-08
1.77013e-07
1.62925e-08
1.7444e-07
1.5142e-08
1.71963e-07
1.41021e-08
1.69583e-07
1.3159e-08
1.67302e-07
1.23007e-08
1.65117e-07
1.15169e-08
1.63028e-07
1.07985e-08
1.6103e-07
1.01376e-08
1.59122e-07
9.52729e-09
1.573e-07
8.96131e-09
1.55561e-07
8.43422e-09
1.53903e-07
7.94115e-09
1.52321e-07
7.47769e-09
1.50815e-07
7.03986e-09
1.4938e-07
6.62398e-09
1.48016e-07
6.22662e-09
1.4672e-07
5.84467e-09
1.45491e-07
5.4748e-09
1.44328e-07
5.11462e-09
1.4323e-07
4.76002e-09
1.42196e-07
4.4104e-09
1.41227e-07
4.05863e-09
1.40323e-07
3.70908e-09
1.39485e-07
3.3464e-09
1.38714e-07
2.98765e-09
1.38013e-07
2.59791e-09
1.37383e-07
2.22299e-09
1.36828e-07
1.78831e-09
1.36352e-07
1.39242e-09
1.35954e-07
9.05302e-10
1.3565e-07
4.66153e-10
1.3542e-07
4.19471e-12
1.35288e-07
-6.79447e-10
1.35272e-07
-6.65535e-10
-2.29138e-09
1.34846e-07
2.06424e-07
9.34971e-08
2.09336e-07
9.1422e-08
2.11066e-07
6.38893e-08
2.11953e-07
5.3365e-08
2.12025e-07
4.64013e-08
2.11652e-07
4.05816e-08
2.10937e-07
3.64504e-08
2.09884e-07
3.33115e-08
2.08532e-07
3.06271e-08
2.06938e-07
2.82555e-08
2.0516e-07
2.61541e-08
2.03244e-07
2.42788e-08
2.01234e-07
2.25905e-08
1.99164e-07
2.10608e-08
1.97064e-07
1.96691e-08
1.94958e-07
1.83991e-08
1.92863e-07
1.72373e-08
1.90793e-07
1.61719e-08
1.88759e-07
1.51926e-08
1.8677e-07
1.42902e-08
1.8483e-07
1.34566e-08
1.82944e-07
1.26843e-08
1.81115e-07
1.19667e-08
1.79344e-07
1.12979e-08
1.77633e-07
1.06724e-08
1.75982e-07
1.00853e-08
1.74391e-07
9.53209e-09
1.7286e-07
9.00869e-09
1.71389e-07
8.51125e-09
1.69977e-07
8.03614e-09
1.68624e-07
7.57996e-09
1.67329e-07
7.13951e-09
1.66092e-07
6.71136e-09
1.64914e-07
6.29296e-09
1.63794e-07
5.87995e-09
1.62733e-07
5.47156e-09
1.61731e-07
5.06025e-09
1.6079e-07
4.65023e-09
1.59911e-07
4.22557e-09
1.59095e-07
3.80309e-09
1.58346e-07
3.34763e-09
1.57665e-07
2.90345e-09
1.57055e-07
2.39883e-09
1.56523e-07
1.92421e-09
1.56063e-07
1.36541e-09
1.55697e-07
8.31754e-10
1.55403e-07
2.98508e-10
1.55193e-07
-4.6985e-10
1.55105e-07
-5.77695e-10
-1.86185e-09
1.54676e-07
2.1227e-07
8.68894e-08
2.15145e-07
8.85474e-08
2.16821e-07
6.22131e-08
2.17868e-07
5.23179e-08
2.18285e-07
4.59843e-08
2.18412e-07
4.04542e-08
2.18349e-07
3.65137e-08
2.18064e-07
3.35965e-08
2.17552e-07
3.11395e-08
2.16831e-07
2.89764e-08
2.15925e-07
2.70596e-08
2.1486e-07
2.5344e-08
2.13661e-07
2.37899e-08
2.12352e-07
2.23693e-08
2.10958e-07
2.10634e-08
2.09499e-07
1.98582e-08
2.07993e-07
1.87426e-08
2.06458e-07
1.77075e-08
2.04906e-07
1.67448e-08
2.03348e-07
1.58477e-08
2.01795e-07
1.50098e-08
2.00254e-07
1.42254e-08
1.98731e-07
1.34892e-08
1.97233e-07
1.27964e-08
1.95763e-07
1.21426e-08
1.94324e-07
1.15237e-08
1.9292e-07
1.09359e-08
1.91554e-07
1.03754e-08
1.90226e-07
9.83898e-09
1.88939e-07
9.32321e-09
1.87694e-07
8.82493e-09
1.86492e-07
8.34108e-09
1.85335e-07
7.86828e-09
1.84224e-07
7.40403e-09
1.8316e-07
6.94388e-09
1.82145e-07
6.48699e-09
1.81179e-07
6.02562e-09
1.80266e-07
5.56376e-09
1.79406e-07
5.08542e-09
1.78603e-07
4.6065e-09
1.77857e-07
4.09304e-09
1.77175e-07
3.58568e-09
1.76555e-07
3.01894e-09
1.76009e-07
2.4706e-09
1.75526e-07
1.8479e-09
1.75132e-07
1.22584e-09
1.74805e-07
6.24993e-10
1.74547e-07
-2.11226e-10
1.7441e-07
-4.41071e-10
-1.45697e-09
1.74005e-07
2.18316e-07
8.05543e-08
2.21194e-07
8.56693e-08
2.22794e-07
6.06133e-08
2.23869e-07
5.12421e-08
2.24395e-07
4.54588e-08
2.247e-07
4.01494e-08
2.24912e-07
3.63014e-08
2.25004e-07
3.35047e-08
2.24955e-07
3.11884e-08
2.24766e-07
2.91654e-08
2.24441e-07
2.7384e-08
2.23988e-07
2.57978e-08
2.23413e-07
2.43642e-08
2.2273e-07
2.3053e-08
2.21949e-07
2.1844e-08
2.21085e-07
2.07227e-08
2.20149e-07
1.96784e-08
2.19154e-07
1.87023e-08
2.18111e-07
1.77874e-08
2.17031e-07
1.69277e-08
2.15923e-07
1.61177e-08
2.14796e-07
1.53528e-08
2.13656e-07
1.46287e-08
2.12511e-07
1.39414e-08
2.11367e-07
1.32873e-08
2.10228e-07
1.26629e-08
2.09098e-07
1.20651e-08
2.07983e-07
1.14907e-08
2.06885e-07
1.09368e-08
2.05808e-07
1.04004e-08
2.04754e-07
9.8786e-09
2.03727e-07
9.36865e-09
2.02728e-07
8.8673e-09
2.0176e-07
8.37219e-09
2.00825e-07
7.87888e-09
1.99925e-07
7.38656e-09
1.99063e-07
6.88749e-09
1.98242e-07
6.38533e-09
1.97463e-07
5.86449e-09
1.9673e-07
5.33946e-09
1.96044e-07
4.77856e-09
1.95412e-07
4.21735e-09
1.94833e-07
3.59882e-09
1.94318e-07
2.98564e-09
1.93857e-07
2.30859e-09
1.93474e-07
1.60907e-09
1.93152e-07
9.46128e-10
1.92881e-07
5.99397e-11
1.92727e-07
-2.86726e-10
-1.10581e-09
1.92376e-07
2.2455e-07
7.4498e-08
2.27454e-07
8.27648e-08
2.2899e-07
5.90774e-08
2.30073e-07
5.0159e-08
2.30639e-07
4.48924e-08
2.30993e-07
3.9796e-08
2.31295e-07
3.59996e-08
2.31534e-07
3.32653e-08
2.31693e-07
3.10296e-08
2.3177e-07
2.90884e-08
2.31764e-07
2.73895e-08
2.31675e-07
2.58876e-08
2.315e-07
2.45387e-08
2.31243e-07
2.33105e-08
2.30906e-07
2.21809e-08
2.30494e-07
2.11341e-08
2.30014e-07
2.01585e-08
2.29472e-07
1.92447e-08
2.28874e-07
1.83853e-08
2.28227e-07
1.75743e-08
2.27539e-07
1.68063e-08
2.26814e-07
1.60771e-08
2.26061e-07
1.53824e-08
2.25283e-07
1.47188e-08
2.24488e-07
1.40829e-08
2.23679e-07
1.34718e-08
2.22861e-07
1.28825e-08
2.2204e-07
1.23123e-08
2.21218e-07
1.17585e-08
2.204e-07
1.12186e-08
2.19589e-07
1.06898e-08
2.18788e-07
1.01696e-08
2.18e-07
9.65495e-09
2.17229e-07
9.14355e-09
2.16477e-07
8.63108e-09
2.15746e-07
8.11674e-09
2.15041e-07
7.59292e-09
2.14363e-07
7.06289e-09
2.13716e-07
6.51179e-09
2.13103e-07
5.95229e-09
2.12526e-07
5.35576e-09
2.11991e-07
4.75187e-09
2.11497e-07
4.09315e-09
2.11056e-07
3.42652e-09
2.10659e-07
2.70567e-09
2.10326e-07
1.94269e-09
2.10047e-07
1.225e-09
2.09801e-07
3.055e-10
2.09662e-07
-1.48037e-10
-8.35462e-10
2.09392e-07
2.30975e-07
6.87285e-08
2.33915e-07
7.98253e-08
2.35394e-07
5.75983e-08
2.36486e-07
4.90673e-08
2.37085e-07
4.42929e-08
2.37454e-07
3.94273e-08
2.37778e-07
3.56757e-08
2.38063e-07
3.29797e-08
2.38298e-07
3.07952e-08
2.38484e-07
2.89026e-08
2.38623e-07
2.72502e-08
2.38714e-07
2.57966e-08
2.38754e-07
2.44986e-08
2.38741e-07
2.33231e-08
2.38675e-07
2.22468e-08
2.38556e-07
2.12532e-08
2.38385e-07
2.03294e-08
2.38165e-07
1.94656e-08
2.37896e-07
1.86536e-08
2.37584e-07
1.78869e-08
2.3723e-07
1.71599e-08
2.36839e-07
1.64679e-08
2.36415e-07
1.58068e-08
2.35961e-07
1.51728e-08
2.35481e-07
1.45627e-08
2.34979e-07
1.39734e-08
2.34459e-07
1.34023e-08
2.33925e-07
1.28467e-08
2.33379e-07
1.2304e-08
2.32826e-07
1.17718e-08
2.32269e-07
1.12474e-08
2.3171e-07
1.07285e-08
2.31153e-07
1.0212e-08
2.30601e-07
9.69577e-09
2.30056e-07
9.17555e-09
2.29522e-07
8.6505e-09
2.29002e-07
8.11319e-09
2.28499e-07
7.5664e-09
2.28014e-07
6.99622e-09
2.27553e-07
6.41328e-09
2.27117e-07
5.79239e-09
2.26711e-07
5.15699e-09
2.26335e-07
4.46933e-09
2.26e-07
3.76136e-09
2.25699e-07
3.00706e-09
2.25446e-07
2.19561e-09
2.2524e-07
1.43142e-09
2.25052e-07
4.92878e-10
2.24959e-07
-5.50315e-11
-6.66843e-10
2.24791e-07
2.37602e-07
6.32514e-08
2.40581e-07
7.68464e-08
2.42003e-07
5.61761e-08
2.43102e-07
4.79682e-08
2.43738e-07
4.36564e-08
2.4412e-07
3.90453e-08
2.4445e-07
3.5346e-08
2.44749e-07
3.26812e-08
2.45006e-07
3.05377e-08
2.45229e-07
2.868e-08
2.45423e-07
2.70564e-08
2.45588e-07
2.56307e-08
2.45725e-07
2.43617e-08
2.45832e-07
2.32166e-08
2.45907e-07
2.2172e-08
2.45949e-07
2.12111e-08
2.45957e-07
2.03208e-08
2.45932e-07
1.94905e-08
2.45874e-07
1.87119e-08
2.45783e-07
1.79779e-08
2.45661e-07
1.72825e-08
2.45508e-07
1.66207e-08
2.45327e-07
1.59881e-08
2.45119e-07
1.53807e-08
2.44886e-07
1.47951e-08
2.44631e-07
1.42281e-08
2.44357e-07
1.36768e-08
2.44065e-07
1.31385e-08
2.43758e-07
1.26107e-08
2.43439e-07
1.20908e-08
2.43111e-07
1.15762e-08
2.42775e-07
1.10646e-08
2.42434e-07
1.05527e-08
2.42091e-07
1.00386e-08
2.41749e-07
9.51796e-09
2.41409e-07
8.98982e-09
2.41075e-07
8.447e-09
2.4075e-07
7.89164e-09
2.40435e-07
7.31096e-09
2.40135e-07
6.71332e-09
2.39851e-07
6.07721e-09
2.39588e-07
5.41985e-09
2.39344e-07
4.71275e-09
2.39131e-07
3.97451e-09
2.38943e-07
3.19569e-09
2.38788e-07
2.34971e-09
2.38673e-07
1.54711e-09
2.38566e-07
6.00084e-10
2.3854e-07
-2.90418e-11
-6.11197e-10
2.38484e-07
2.44437e-07
5.80706e-08
2.47454e-07
7.3829e-08
2.48821e-07
5.48092e-08
2.49924e-07
4.68661e-08
2.50599e-07
4.29812e-08
2.50998e-07
3.86464e-08
2.51332e-07
3.50113e-08
2.51637e-07
3.23767e-08
2.51902e-07
3.02721e-08
2.52136e-07
2.84461e-08
2.52348e-07
2.68452e-08
2.5254e-07
2.54385e-08
2.52714e-07
2.41879e-08
2.52869e-07
2.3061e-08
2.53006e-07
2.2035e-08
2.53124e-07
2.10931e-08
2.53223e-07
2.02224e-08
2.53301e-07
1.94123e-08
2.53358e-07
1.86543e-08
2.53395e-07
1.79411e-08
2.53411e-07
1.72666e-08
2.53406e-07
1.66255e-08
2.53381e-07
1.6013e-08
2.53337e-07
1.54252e-08
2.53274e-07
1.48582e-08
2.53193e-07
1.43088e-08
2.53096e-07
1.37738e-08
2.52984e-07
1.32506e-08
2.52859e-07
1.27362e-08
2.52721e-07
1.22282e-08
2.52574e-07
1.17238e-08
2.52418e-07
1.12205e-08
2.52255e-07
1.07152e-08
2.52088e-07
1.02058e-08
2.51918e-07
9.68785e-09
2.51748e-07
9.16029e-09
2.51579e-07
8.61621e-09
2.51413e-07
8.05699e-09
2.51253e-07
7.47105e-09
2.51102e-07
6.86446e-09
2.5096e-07
6.21929e-09
2.50833e-07
5.54697e-09
2.50718e-07
4.82716e-09
2.50625e-07
4.06753e-09
2.5055e-07
3.27084e-09
2.50498e-07
2.40165e-09
2.50478e-07
1.56759e-09
2.50459e-07
6.18381e-10
2.50511e-07
-8.00902e-11
-6.68752e-10
2.50568e-07
2.51489e-07
5.3188e-08
2.54535e-07
7.07831e-08
2.55858e-07
5.34864e-08
2.56958e-07
4.57664e-08
2.57671e-07
4.22681e-08
2.58089e-07
3.82279e-08
2.5843e-07
3.46705e-08
2.5874e-07
3.20664e-08
2.59012e-07
3.00007e-08
2.59251e-07
2.82071e-08
2.59468e-07
2.6628e-08
2.59669e-07
2.52379e-08
2.59855e-07
2.40016e-08
2.60028e-07
2.28878e-08
2.60189e-07
2.18742e-08
2.60338e-07
2.09442e-08
2.60475e-07
2.00854e-08
2.606e-07
1.92872e-08
2.60713e-07
1.85413e-08
2.60814e-07
1.78404e-08
2.60902e-07
1.71783e-08
2.60978e-07
1.65497e-08
2.61041e-07
1.59497e-08
2.61092e-07
1.53742e-08
2.61131e-07
1.48193e-08
2.61158e-07
1.42815e-08
2.61174e-07
1.37577e-08
2.6118e-07
1.32448e-08
2.61176e-07
1.27401e-08
2.61164e-07
1.22408e-08
2.61143e-07
1.17441e-08
2.61116e-07
1.12474e-08
2.61084e-07
1.07474e-08
2.61048e-07
1.02421e-08
2.61009e-07
9.72685e-09
2.60969e-07
9.20046e-09
2.60929e-07
8.65627e-09
2.60891e-07
8.09486e-09
2.60856e-07
7.50592e-09
2.60827e-07
6.89322e-09
2.60804e-07
6.24221e-09
2.60792e-07
5.55918e-09
2.60789e-07
4.83058e-09
2.60801e-07
4.05569e-09
2.60826e-07
3.24531e-09
2.60867e-07
2.36088e-09
2.60934e-07
1.50063e-09
2.61001e-07
5.51312e-10
2.61128e-07
-2.07108e-10
-8.29827e-10
2.61289e-07
2.58767e-07
4.86039e-08
2.61831e-07
6.77194e-08
2.6312e-07
5.2197e-08
2.64213e-07
4.46741e-08
2.64961e-07
4.15193e-08
2.65402e-07
3.77877e-08
2.6575e-07
3.43224e-08
2.66066e-07
3.17499e-08
2.66344e-07
2.97234e-08
2.66587e-07
2.79637e-08
2.66808e-07
2.64073e-08
2.67012e-07
2.50335e-08
2.67203e-07
2.38107e-08
2.67382e-07
2.27086e-08
2.67551e-07
2.1705e-08
2.67711e-07
2.07842e-08
2.67863e-07
1.99337e-08
2.68007e-07
1.91434e-08
2.68143e-07
1.8405e-08
2.68272e-07
1.77115e-08
2.68394e-07
1.70568e-08
2.68508e-07
1.64354e-08
2.68615e-07
1.58426e-08
2.68715e-07
1.52742e-08
2.68808e-07
1.47262e-08
2.68895e-07
1.41951e-08
2.68975e-07
1.36776e-08
2.69049e-07
1.31707e-08
2.69117e-07
1.26715e-08
2.69181e-07
1.21772e-08
2.6924e-07
1.16848e-08
2.69296e-07
1.11917e-08
2.69349e-07
1.06946e-08
2.694e-07
1.01912e-08
2.69449e-07
9.67709e-09
2.69499e-07
9.15063e-09
2.6955e-07
8.60559e-09
2.69603e-07
8.04171e-09
2.69659e-07
7.44989e-09
2.6972e-07
6.83183e-09
2.69787e-07
6.17593e-09
2.69862e-07
5.48422e-09
2.69944e-07
4.74839e-09
2.70038e-07
3.9619e-09
2.70143e-07
3.13982e-09
2.70259e-07
2.24487e-09
2.70398e-07
1.36192e-09
2.70538e-07
4.11065e-10
2.70732e-07
-4.00835e-10
-1.07795e-09
2.7098e-07
2.66279e-07
4.4317e-08
2.6935e-07
6.46484e-08
2.70617e-07
5.093e-08
2.71698e-07
4.35935e-08
2.72479e-07
4.07379e-08
2.72942e-07
3.73243e-08
2.73298e-07
3.39664e-08
2.73621e-07
3.14271e-08
2.73905e-07
2.94395e-08
2.74154e-07
2.77153e-08
2.74378e-07
2.6183e-08
2.74585e-07
2.48262e-08
2.74779e-07
2.36171e-08
2.74961e-07
2.25264e-08
2.75133e-07
2.15325e-08
2.75298e-07
2.06199e-08
2.75455e-07
1.97765e-08
2.75606e-07
1.89926e-08
2.75751e-07
1.82599e-08
2.75891e-07
1.75716e-08
2.76026e-07
1.69216e-08
2.76156e-07
1.63048e-08
2.76283e-07
1.57162e-08
2.76405e-07
1.51518e-08
2.76524e-07
1.46074e-08
2.76639e-07
1.40797e-08
2.76752e-07
1.35653e-08
2.76861e-07
1.30612e-08
2.76968e-07
1.25643e-08
2.77073e-07
1.20719e-08
2.77177e-07
1.1581e-08
2.7728e-07
1.10888e-08
2.77383e-07
1.05921e-08
2.77486e-07
1.00883e-08
2.7759e-07
9.57323e-09
2.77695e-07
9.04491e-09
2.77803e-07
8.49752e-09
2.77915e-07
7.92999e-09
2.78031e-07
7.33438e-09
2.78152e-07
6.71055e-09
2.78278e-07
6.0494e-09
2.78413e-07
5.34958e-09
2.78555e-07
4.60656e-09
2.78707e-07
3.81024e-09
2.78869e-07
2.977e-09
2.79041e-07
2.07356e-09
2.79233e-07
1.16988e-09
2.7943e-07
2.13724e-10
2.79677e-07
-6.47924e-10
-1.39387e-09
2.79993e-07
2.74034e-07
4.03243e-08
2.77101e-07
6.1581e-08
2.78356e-07
4.96753e-08
2.79421e-07
4.25283e-08
2.80231e-07
3.99276e-08
2.8072e-07
3.6836e-08
2.81085e-07
3.36015e-08
2.81414e-07
3.1098e-08
2.81704e-07
2.9149e-08
2.81958e-07
2.74616e-08
2.82186e-07
2.59549e-08
2.82396e-07
2.46158e-08
2.82593e-07
2.34207e-08
2.82777e-07
2.23419e-08
2.82952e-07
2.13578e-08
2.83119e-07
2.04534e-08
2.83278e-07
1.96169e-08
2.83432e-07
1.88389e-08
2.8358e-07
1.81113e-08
2.83725e-07
1.74273e-08
2.83865e-07
1.67812e-08
2.84002e-07
1.61677e-08
2.84137e-07
1.5582e-08
2.84268e-07
1.50199e-08
2.84398e-07
1.44777e-08
2.84526e-07
1.39516e-08
2.84653e-07
1.34384e-08
2.84779e-07
1.29351e-08
2.84905e-07
1.24386e-08
2.85031e-07
1.19461e-08
2.85157e-07
1.14546e-08
2.85285e-07
1.09614e-08
2.85413e-07
1.04631e-08
2.85545e-07
9.95718e-09
2.85678e-07
9.43946e-09
2.85816e-07
8.90771e-09
2.85957e-07
8.3565e-09
2.86102e-07
7.78406e-09
2.86253e-07
7.1835e-09
2.86411e-07
6.55311e-09
2.86574e-07
5.8858e-09
2.86746e-07
5.17778e-09
2.86926e-07
4.42691e-09
2.87115e-07
3.62134e-09
2.87315e-07
2.77669e-09
2.87524e-07
1.86502e-09
2.87752e-07
9.41475e-10
2.87991e-07
-2.49339e-11
2.88277e-07
-9.34684e-10
-1.75911e-09
2.88643e-07
2.82041e-07
3.66211e-08
2.85093e-07
5.85284e-08
2.86345e-07
4.84234e-08
2.87392e-07
4.14812e-08
2.88227e-07
3.90929e-08
2.88741e-07
3.63216e-08
2.89116e-07
3.32265e-08
2.89452e-07
3.07629e-08
2.89749e-07
2.88516e-08
2.90008e-07
2.72022e-08
2.90241e-07
2.57225e-08
2.90454e-07
2.4402e-08
2.90654e-07
2.32216e-08
2.90841e-07
2.21548e-08
2.91017e-07
2.11809e-08
2.91186e-07
2.02849e-08
2.91347e-07
1.94555e-08
2.91503e-07
1.86833e-08
2.91654e-07
1.79607e-08
2.918e-07
1.7281e-08
2.91943e-07
1.66383e-08
2.92083e-07
1.60277e-08
2.9222e-07
1.54444e-08
2.92356e-07
1.48842e-08
2.92491e-07
1.43432e-08
2.92624e-07
1.3818e-08
2.92758e-07
1.33052e-08
2.92891e-07
1.28017e-08
2.93025e-07
1.23045e-08
2.9316e-07
1.18109e-08
2.93297e-07
1.13177e-08
2.93436e-07
1.08223e-08
2.93578e-07
1.03212e-08
2.93723e-07
9.81197e-09
2.93873e-07
9.29043e-09
2.94026e-07
8.75412e-09
2.94185e-07
8.19802e-09
2.94349e-07
7.61971e-09
2.94519e-07
7.01319e-09
2.94697e-07
6.37556e-09
2.94881e-07
5.70119e-09
2.95075e-07
4.98465e-09
2.95276e-07
4.2251e-09
2.95487e-07
3.41031e-09
2.9571e-07
2.55373e-09
2.95942e-07
1.63306e-09
2.96194e-07
6.89868e-10
2.96461e-07
-2.91995e-10
2.96776e-07
-1.2495e-09
-2.15822e-09
2.97175e-07
2.90309e-07
3.32008e-08
2.93336e-07
5.55015e-08
2.94594e-07
4.71654e-08
2.95621e-07
4.04544e-08
2.96475e-07
3.82388e-08
2.97016e-07
3.578e-08
2.97403e-07
3.28403e-08
2.97744e-07
3.04215e-08
2.98048e-07
2.85473e-08
2.98314e-07
2.69367e-08
2.98551e-07
2.54857e-08
2.98768e-07
2.41848e-08
2.9897e-07
2.30193e-08
2.9916e-07
2.19652e-08
2.99339e-07
2.10017e-08
2.9951e-07
2.01144e-08
2.99673e-07
1.92921e-08
2.9983e-07
1.8526e-08
2.99982e-07
1.78084e-08
3.0013e-07
1.71329e-08
3.00275e-07
1.64938e-08
3.00417e-07
1.5886e-08
3.00556e-07
1.53049e-08
3.00694e-07
1.47464e-08
3.00831e-07
1.42065e-08
3.00967e-07
1.36818e-08
3.01103e-07
1.31689e-08
3.0124e-07
1.26648e-08
3.01378e-07
1.21665e-08
3.01518e-07
1.16712e-08
3.0166e-07
1.11757e-08
3.01804e-07
1.06775e-08
3.01953e-07
1.01731e-08
3.02105e-07
9.65985e-09
3.02261e-07
9.13383e-09
3.02423e-07
8.5923e-09
3.0259e-07
8.03061e-09
3.02764e-07
7.44584e-09
3.02945e-07
6.83268e-09
3.03133e-07
6.18736e-09
3.03329e-07
5.50523e-09
3.03534e-07
4.7799e-09
3.03748e-07
4.01101e-09
3.03971e-07
3.18675e-09
3.04207e-07
2.31777e-09
3.04454e-07
1.38691e-09
3.04719e-07
4.23937e-10
3.05006e-07
-5.78162e-10
3.0534e-07
-1.58371e-09
-2.5794e-09
3.05761e-07
2.98848e-07
3.00553e-08
3.01838e-07
5.25117e-08
3.0311e-07
4.58933e-08
3.04115e-07
3.94492e-08
3.04984e-07
3.73705e-08
3.05553e-07
3.52107e-08
3.05952e-07
3.24413e-08
3.06299e-07
3.00741e-08
3.06611e-07
2.82361e-08
3.06882e-07
2.66649e-08
3.07124e-07
2.52441e-08
3.07345e-07
2.39637e-08
3.07551e-07
2.28138e-08
3.07743e-07
2.17726e-08
3.07925e-07
2.082e-08
3.08098e-07
1.99416e-08
3.08263e-07
1.91268e-08
3.08422e-07
1.83669e-08
3.08576e-07
1.76545e-08
3.08726e-07
1.69833e-08
3.08872e-07
1.63477e-08
3.09015e-07
1.57428e-08
3.09156e-07
1.51639e-08
3.09295e-07
1.4607e-08
3.09434e-07
1.40681e-08
3.09572e-07
1.35438e-08
3.0971e-07
1.30307e-08
3.09849e-07
1.25259e-08
3.09989e-07
1.20263e-08
3.10131e-07
1.1529e-08
3.10276e-07
1.10311e-08
3.10424e-07
1.05297e-08
3.10575e-07
1.00216e-08
3.10731e-07
9.50405e-09
3.10892e-07
8.97318e-09
3.11058e-07
8.42609e-09
3.1123e-07
7.85843e-09
3.11409e-07
7.26687e-09
3.11595e-07
6.64666e-09
3.11789e-07
5.99339e-09
3.11991e-07
5.30306e-09
3.12202e-07
4.56879e-09
3.12423e-07
3.79009e-09
3.12654e-07
2.95608e-09
3.12897e-07
2.0744e-09
3.13152e-07
1.13203e-09
3.13427e-07
1.49012e-10
3.13726e-07
-8.77349e-10
3.14074e-07
-1.93132e-09
-3.01414e-09
3.14509e-07
3.07668e-07
2.71748e-08
3.10609e-07
4.95701e-08
3.11902e-07
4.46005e-08
3.12885e-07
3.84659e-08
3.13763e-07
3.64932e-08
3.1436e-07
3.46136e-08
3.14773e-07
3.20281e-08
3.15127e-07
2.97202e-08
3.15445e-07
2.79181e-08
3.15724e-07
2.63863e-08
3.15971e-07
2.49972e-08
3.16196e-07
2.37385e-08
3.16405e-07
2.26049e-08
3.166e-07
2.1577e-08
3.16785e-07
2.06356e-08
3.1696e-07
1.97664e-08
3.17127e-07
1.89593e-08
3.17288e-07
1.82058e-08
3.17444e-07
1.74987e-08
3.17596e-07
1.6832e-08
3.17743e-07
1.62e-08
3.17888e-07
1.5598e-08
3.18031e-07
1.50214e-08
3.18172e-07
1.44661e-08
3.18311e-07
1.39282e-08
3.18451e-07
1.34043e-08
3.18591e-07
1.2891e-08
3.18731e-07
1.23853e-08
3.18873e-07
1.18843e-08
3.19017e-07
1.13849e-08
3.19164e-07
1.08844e-08
3.19314e-07
1.03798e-08
3.19468e-07
9.86788e-09
3.19626e-07
9.34578e-09
3.19789e-07
8.80989e-09
3.19958e-07
8.25706e-09
3.20133e-07
7.68323e-09
3.20316e-07
7.08473e-09
3.20505e-07
6.45723e-09
3.20702e-07
5.79592e-09
3.20908e-07
5.09712e-09
3.21123e-07
4.35382e-09
3.21348e-07
3.56508e-09
3.21583e-07
2.72104e-09
3.21831e-07
1.8265e-09
3.22092e-07
8.71375e-10
3.22373e-07
-1.31996e-10
3.22681e-07
-1.1857e-09
3.23038e-07
-2.28827e-09
-3.4564e-09
3.23481e-07
3.16778e-07
2.45481e-08
3.1966e-07
4.66878e-08
3.20979e-07
4.32813e-08
3.21941e-07
3.75041e-08
3.22822e-07
3.5612e-08
3.23446e-07
3.39897e-08
3.23875e-07
3.15989e-08
3.24236e-07
2.93595e-08
3.24561e-07
2.75933e-08
3.24846e-07
2.61007e-08
3.25099e-07
2.47448e-08
3.25328e-07
2.3509e-08
3.25541e-07
2.23922e-08
3.2574e-07
2.13781e-08
3.25927e-07
2.04482e-08
3.26105e-07
1.95886e-08
3.26275e-07
1.87894e-08
3.26438e-07
1.80425e-08
3.26596e-07
1.73409e-08
3.26749e-07
1.66787e-08
3.26899e-07
1.60505e-08
3.27045e-07
1.54515e-08
3.27189e-07
1.48773e-08
3.27332e-07
1.43236e-08
3.27473e-07
1.37868e-08
3.27615e-07
1.32632e-08
3.27756e-07
1.27497e-08
3.27898e-07
1.22431e-08
3.28042e-07
1.17406e-08
3.28187e-07
1.12392e-08
3.28336e-07
1.07359e-08
3.28488e-07
1.0228e-08
3.28643e-07
9.71213e-09
3.28804e-07
9.18546e-09
3.28969e-07
8.64442e-09
3.29141e-07
8.08578e-09
3.29318e-07
7.50564e-09
3.29503e-07
6.90016e-09
3.29695e-07
6.26524e-09
3.29895e-07
5.59586e-09
3.30103e-07
4.88847e-09
3.30321e-07
4.13612e-09
3.30549e-07
3.33724e-09
3.30787e-07
2.48291e-09
3.31038e-07
1.57546e-09
3.31303e-07
6.06543e-10
3.31588e-07
-4.17504e-10
3.31903e-07
-1.50066e-09
3.32267e-07
-2.65158e-09
-3.9016e-09
3.32712e-07
3.26188e-07
2.21626e-08
3.29e-07
4.38757e-08
3.3035e-07
4.19314e-08
3.31291e-07
3.65628e-08
3.32172e-07
3.47316e-08
3.32821e-07
3.33404e-08
3.33268e-07
3.11525e-08
3.33636e-07
2.89915e-08
3.33967e-07
2.72617e-08
3.3426e-07
2.58079e-08
3.34518e-07
2.44863e-08
3.34753e-07
2.32749e-08
3.34969e-07
2.21756e-08
3.35172e-07
2.11757e-08
3.35362e-07
2.02577e-08
3.35543e-07
1.9408e-08
3.35715e-07
1.8617e-08
3.35881e-07
1.78768e-08
3.36041e-07
1.71809e-08
3.36196e-07
1.65235e-08
3.36347e-07
1.58991e-08
3.36496e-07
1.53032e-08
3.36642e-07
1.47314e-08
3.36786e-07
1.41794e-08
3.36929e-07
1.36436e-08
3.37072e-07
1.31204e-08
3.37215e-07
1.26067e-08
3.37359e-07
1.20992e-08