/*--------------------------------*- C++ -*----------------------------------*\
  =========                 |
  \\      /  F ield         | OpenFOAM: The Open Source CFD Toolbox
   \\    /   O peration     | Website:  https://openfoam.org
    \\  /    A nd           | Version:  7
     \\/     M anipulation  |
\*---------------------------------------------------------------------------*/
FoamFile
{
    version     2.0;
    format      ascii;
    class       surfaceScalarField;
    location    "0.32";
    object      phi_0;
}
// * * * * * * * * * * * * * * * * * * * * * * * * * * * * * * * * * * * * * //

dimensions      [0 3 -1 0 0 0 0];

internalField   nonuniform List<scalar> 
139350
(
6.4514e-08
9.21175e-08
3.19698e-08
3.25442e-08
2.30683e-08
8.90152e-09
1.95874e-08
3.48085e-09
1.76395e-08
1.9479e-09
1.62134e-08
1.42612e-09
1.50846e-08
1.12886e-09
1.41762e-08
9.08319e-10
1.34298e-08
7.46477e-10
1.28018e-08
6.2796e-10
1.22636e-08
5.38218e-10
1.17958e-08
4.67772e-10
1.13848e-08
4.11018e-10
1.10204e-08
3.64428e-10
1.06948e-08
3.25599e-10
1.0402e-08
2.92814e-10
1.01371e-08
2.6481e-10
9.89651e-09
2.40641e-10
9.67692e-09
2.19586e-10
9.47584e-09
2.01082e-10
9.29115e-09
1.84687e-10
9.12111e-09
1.70046e-10
8.96424e-09
1.5687e-10
8.81931e-09
1.44921e-10
8.68531e-09
1.34003e-10
8.56136e-09
1.2395e-10
8.44674e-09
1.14619e-10
8.34085e-09
1.0589e-10
8.2432e-09
9.76523e-11
8.15338e-09
8.98189e-11
8.07109e-09
8.22882e-11
7.99609e-09
7.5006e-11
7.92823e-09
6.78587e-11
7.86739e-09
6.08374e-11
7.81361e-09
5.37823e-11
7.76685e-09
4.67599e-11
7.72732e-09
3.95266e-11
7.69508e-09
3.22456e-11
7.67047e-09
2.46116e-11
7.6537e-09
1.67694e-11
7.645e-09
8.69716e-12
7.64521e-09
-2.14031e-13
7.65331e-09
-8.09923e-12
7.67264e-09
-1.93301e-11
7.69662e-09
-2.39768e-11
7.73866e-09
-4.20396e-11
7.76754e-09
-2.88805e-11
7.85629e-09
-8.87531e-11
7.67842e-09
1.77869e-10
-3.44729e-09
1.11257e-08
1.25946e-07
1.27615e-07
9.12993e-08
6.71908e-08
7.19559e-08
2.82449e-08
6.12507e-08
1.4186e-08
5.48251e-08
8.37351e-09
5.03413e-08
5.91e-09
4.68679e-08
4.60225e-09
4.40655e-08
3.71064e-09
4.17535e-08
3.05854e-09
3.98062e-08
2.57521e-09
3.81367e-08
2.20778e-09
3.66849e-08
1.91956e-09
3.54083e-08
1.68757e-09
3.42755e-08
1.49721e-09
3.32625e-08
1.33859e-09
3.23507e-08
1.20469e-09
3.15251e-08
1.09034e-09
3.07741e-08
9.91684e-10
3.00879e-08
9.05784e-10
2.94586e-08
8.30345e-10
2.88798e-08
7.6356e-10
2.83458e-08
7.03979e-10
2.78523e-08
6.50428e-10
2.73953e-08
6.01943e-10
2.69715e-08
5.57723e-10
2.65784e-08
5.17095e-10
2.62135e-08
4.79487e-10
2.5875e-08
4.44408e-10
2.55612e-08
4.11419e-10
2.52709e-08
3.80155e-10
2.5003e-08
3.50239e-10
2.47566e-08
3.21407e-10
2.45311e-08
2.93272e-10
2.43263e-08
2.65708e-10
2.41419e-08
2.38189e-10
2.39778e-08
2.10853e-10
2.38345e-08
1.82812e-10
2.3712e-08
1.54743e-10
2.36116e-08
1.25028e-10
2.3533e-08
9.5324e-11
2.34788e-08
6.28752e-11
2.3448e-08
3.06109e-11
2.34448e-08
-4.91507e-12
2.34667e-08
-4.11542e-11
2.35189e-08
-7.62295e-11
2.35996e-08
-1.22774e-10
2.36985e-08
-1.27699e-10
2.38853e-08
-2.75606e-10
2.3855e-08
2.08165e-10
-4.21216e-09
2.46199e-08
1.58755e-07
1.35264e-07
1.36537e-07
8.94087e-08
1.17515e-07
4.72661e-08
1.03353e-07
2.83481e-08
9.33764e-08
1.83505e-08
8.60945e-08
1.31919e-08
8.04062e-08
1.02905e-08
7.57748e-08
8.34202e-09
7.19177e-08
6.9157e-09
6.8647e-08
5.8459e-09
6.58294e-08
5.02534e-09
6.33703e-08
4.37862e-09
6.12014e-08
3.85653e-09
5.92715e-08
3.42706e-09
5.75417e-08
3.06846e-09
5.59812e-08
2.76519e-09
5.45657e-08
2.50585e-09
5.32755e-08
2.28188e-09
5.20945e-08
2.0867e-09
5.10097e-08
1.91519e-09
5.00099e-08
1.76332e-09
4.90861e-08
1.62783e-09
4.82304e-08
1.50608e-09
4.74365e-08
1.39591e-09
4.66987e-08
1.29551e-09
4.60124e-08
1.20339e-09
4.53736e-08
1.11824e-09
4.47791e-08
1.03897e-09
4.42259e-08
9.64602e-10
4.37118e-08
8.94294e-10
4.32348e-08
8.27242e-10
4.27934e-08
7.62807e-10
4.23864e-08
7.002e-10
4.20131e-08
6.3904e-10
4.1673e-08
5.7829e-10
4.13657e-08
5.18109e-10
4.10919e-08
4.56653e-10
4.08512e-08
3.95392e-10
4.06458e-08
3.30464e-10
4.04747e-08
2.66405e-10
4.03427e-08
1.94874e-10
4.02464e-08
1.26939e-10
4.01959e-08
4.55871e-11
4.01811e-08
-2.6381e-11
4.02222e-08
-1.17353e-10
4.02972e-08
-1.97707e-10
4.04295e-08
-2.59992e-10
4.06381e-08
-4.84249e-10
4.08215e-08
2.47461e-11
-4.07937e-09
4.06887e-08
1.75613e-07
1.31167e-07
1.65631e-07
9.93901e-08
1.52755e-07
6.01426e-08
1.40162e-07
4.09407e-08
1.29502e-07
2.9011e-08
1.20885e-07
2.18086e-08
1.13797e-07
1.73786e-08
1.07841e-07
1.42974e-08
1.02768e-07
1.19893e-08
9.83931e-08
1.02205e-08
9.45775e-08
8.84093e-09
9.12154e-08
7.74068e-09
8.82272e-08
6.84476e-09
8.55515e-08
6.10277e-09
8.31402e-08
5.47974e-09
8.0955e-08
4.95041e-09
7.89648e-08
4.49602e-09
7.71444e-08
4.10233e-09
7.54727e-08
3.75834e-09
7.39325e-08
3.45542e-09
7.25091e-08
3.18671e-09
7.11903e-08
2.94666e-09
6.99656e-08
2.73075e-09
6.88263e-08
2.53525e-09
6.77647e-08
2.35708e-09
6.67745e-08
2.1936e-09
6.58501e-08
2.04259e-09
6.4987e-08
1.90213e-09
6.4181e-08
1.77054e-09
6.3429e-08
1.64635e-09
6.2728e-08
1.52819e-09
6.20759e-08
1.4149e-09
6.1471e-08
1.30518e-09
6.09117e-08
1.19829e-09
6.03974e-08
1.09256e-09
5.99274e-08
9.88109e-10
5.95022e-08
8.81929e-10
5.91211e-08
7.76413e-10
5.87867e-08
6.64904e-10
5.84976e-08
5.55524e-10
5.82596e-08
4.32813e-10
5.80683e-08
3.18256e-10
5.79367e-08
1.77261e-10
5.78514e-08
5.88259e-11
5.78391e-08
-1.05021e-10
5.7871e-08
-2.2958e-10
5.79833e-08
-3.72297e-10
5.81684e-08
-6.69354e-10
5.84318e-08
-2.38629e-10
-3.79488e-09
5.81473e-08
1.84511e-07
1.23442e-07
1.82346e-07
1.01555e-07
1.76136e-07
6.63527e-08
1.67794e-07
4.92832e-08
1.59194e-07
3.76109e-08
1.51311e-07
2.96909e-08
1.44265e-07
2.44248e-08
1.37994e-07
2.05688e-08
1.32424e-07
1.75594e-08
1.2747e-07
1.51741e-08
1.23047e-07
1.32639e-08
1.19078e-07
1.17098e-08
1.15499e-07
1.04244e-08
1.12255e-07
9.34654e-09
1.09302e-07
8.43219e-09
1.06604e-07
7.64871e-09
1.04129e-07
6.97132e-09
1.0185e-07
6.38086e-09
9.97463e-08
5.86229e-09
9.77981e-08
5.40363e-09
9.59895e-08
4.99524e-09
9.43069e-08
4.62927e-09
9.27384e-08
4.29926e-09
9.12738e-08
3.99983e-09
8.99044e-08
3.72648e-09
8.86227e-08
3.47538e-09
8.7422e-08
3.24329e-09
8.62967e-08
3.02735e-09
8.52422e-08
2.82509e-09
8.42542e-08
2.63432e-09
8.33294e-08
2.45301e-09
8.24649e-08
2.27943e-09
8.16584e-08
2.11169e-09
8.09081e-08
1.94859e-09
8.02128e-08
1.78778e-09
7.95717e-08
1.62926e-09
7.89848e-08
1.46878e-09
7.84516e-08
1.30961e-09
7.79743e-08
1.1422e-09
7.75516e-08
9.78221e-10
7.71894e-08
7.95008e-10
7.68834e-08
6.24272e-10
7.66465e-08
4.14219e-10
7.64666e-08
2.38666e-10
7.63684e-08
-6.75308e-12
7.6329e-08
-1.90227e-10
7.63763e-08
-4.19597e-10
7.65097e-08
-8.02734e-10
7.67413e-08
-4.70287e-10
-3.48899e-09
7.64355e-08
1.90343e-07
1.15315e-07
1.91863e-07
1.00035e-07
1.90274e-07
6.79419e-08
1.86181e-07
5.33763e-08
1.80759e-07
4.30328e-08
1.75029e-07
3.54212e-08
1.69358e-07
3.0096e-08
1.63902e-07
2.60244e-08
1.58758e-07
2.2703e-08
1.53968e-07
1.99645e-08
1.49533e-07
1.76989e-08
1.45437e-07
1.5806e-08
1.41655e-07
1.42061e-08
1.38161e-07
1.284e-08
1.3493e-07
1.16635e-08
1.31937e-07
1.06423e-08
1.29158e-07
9.74972e-09
1.26575e-07
8.96434e-09
1.24168e-07
8.26896e-09
1.21922e-07
7.64959e-09
1.19823e-07
7.09473e-09
1.17857e-07
6.59488e-09
1.16014e-07
6.14206e-09
1.14284e-07
5.7296e-09
1.12659e-07
5.3518e-09
1.11131e-07
5.0038e-09
1.09693e-07
4.6814e-09
1.08339e-07
4.38093e-09
1.07065e-07
4.09916e-09
1.05866e-07
3.83318e-09
1.04739e-07
3.58036e-09
1.0368e-07
3.33834e-09
1.02687e-07
3.10466e-09
1.01758e-07
2.87766e-09
1.00891e-07
2.65427e-09
1.00086e-07
2.43433e-09
9.93425e-08
2.21242e-09
9.86597e-08
1.99246e-09
9.80396e-08
1.76232e-09
9.74812e-08
1.53654e-09
9.69898e-08
1.28641e-09
9.65625e-08
1.05166e-09
9.62095e-08
7.67193e-10
9.59237e-08
5.24464e-10
9.57215e-08
1.95459e-10
9.55944e-08
-6.31255e-11
9.55502e-08
-3.75474e-10
9.56071e-08
-8.5962e-10
9.57644e-08
-6.27582e-10
-3.14039e-09
9.54158e-08
1.95505e-07
1.07624e-07
1.98251e-07
9.72891e-08
1.98995e-07
6.71977e-08
1.9781e-07
5.45613e-08
1.95189e-07
4.56537e-08
1.91868e-07
3.87431e-08
1.88158e-07
3.38059e-08
1.84233e-07
2.99496e-08
1.80242e-07
2.66936e-08
1.76295e-07
2.39111e-08
1.7246e-07
2.15342e-08
1.68774e-07
1.94918e-08
1.65258e-07
1.77224e-08
1.61919e-07
1.61787e-08
1.58759e-07
1.4824e-08
1.55772e-07
1.36289e-08
1.52953e-07
1.25692e-08
1.50292e-07
1.1625e-08
1.47781e-07
1.07798e-08
1.45411e-07
1.00196e-08
1.43173e-07
9.3328e-09
1.41059e-07
8.70932e-09
1.3906e-07
8.1407e-09
1.3717e-07
7.61965e-09
1.35382e-07
7.13989e-09
1.3369e-07
6.69594e-09
1.32088e-07
6.28302e-09
1.30572e-07
5.89686e-09
1.29138e-07
5.53371e-09
1.27781e-07
5.19012e-09
1.26498e-07
4.86294e-09
1.25287e-07
4.54935e-09
1.24145e-07
4.24635e-09
1.23071e-07
3.95187e-09
1.22063e-07
3.66224e-09
1.2112e-07
3.37706e-09
1.20243e-07
3.08993e-09
1.1943e-07
2.80513e-09
1.18684e-07
2.50856e-09
1.18004e-07
2.21656e-09
1.17394e-07
1.89628e-09
1.16854e-07
1.59215e-09
1.16389e-07
1.23145e-09
1.16e-07
9.13678e-10
1.15693e-07
5.02924e-10
1.15473e-07
1.56297e-10
1.15332e-07
-2.33926e-10
1.15296e-07
-8.23379e-10
1.15367e-07
-6.99236e-10
-2.74598e-09
1.14973e-07
2.0082e-07
1.00389e-07
2.03776e-07
9.43338e-08
2.05354e-07
6.56191e-08
2.05663e-07
5.42525e-08
2.04843e-07
4.64735e-08
2.03378e-07
4.02083e-08
2.01448e-07
3.57356e-08
1.99139e-07
3.22585e-08
1.96558e-07
2.92749e-08
1.93807e-07
2.66625e-08
1.90965e-07
2.43756e-08
1.88093e-07
2.23636e-08
1.85235e-07
2.05805e-08
1.82422e-07
1.89916e-08
1.79677e-07
1.75697e-08
1.77013e-07
1.62929e-08
1.7444e-07
1.51424e-08
1.71962e-07
1.41025e-08
1.69582e-07
1.31594e-08
1.67301e-07
1.23011e-08
1.65116e-07
1.15174e-08
1.63027e-07
1.0799e-08
1.61029e-07
1.01382e-08
1.59121e-07
9.52786e-09
1.57299e-07
8.96191e-09
1.5556e-07
8.43484e-09
1.53901e-07
7.9418e-09
1.5232e-07
7.47836e-09
1.50813e-07
7.04055e-09
1.49378e-07
6.62468e-09
1.48014e-07
6.22734e-09
1.46718e-07
5.84539e-09
1.45489e-07
5.47551e-09
1.44325e-07
5.11531e-09
1.43227e-07
4.76067e-09
1.42193e-07
4.41097e-09
1.41224e-07
4.05911e-09
1.4032e-07
3.7094e-09
1.39482e-07
3.34651e-09
1.38711e-07
2.98745e-09
1.3801e-07
2.5973e-09
1.3738e-07
2.2218e-09
1.36825e-07
1.78635e-09
1.36349e-07
1.38934e-09
1.35952e-07
9.00832e-10
1.35648e-07
4.59472e-10
1.3542e-07
-5.25089e-12
1.3529e-07
-6.93354e-10
1.35277e-07
-6.86224e-10
-2.32333e-09
1.34854e-07
2.06424e-07
9.34971e-08
2.09336e-07
9.14219e-08
2.11066e-07
6.38892e-08
2.11953e-07
5.3365e-08
2.12025e-07
4.64013e-08
2.11652e-07
4.05816e-08
2.10937e-07
3.64505e-08
2.09884e-07
3.33116e-08
2.08532e-07
3.06273e-08
2.06938e-07
2.82557e-08
2.0516e-07
2.61544e-08
2.03244e-07
2.42792e-08
2.01234e-07
2.25909e-08
1.99164e-07
2.10612e-08
1.97064e-07
1.96695e-08
1.94958e-07
1.83996e-08
1.92862e-07
1.72378e-08
1.90792e-07
1.61724e-08
1.88759e-07
1.51931e-08
1.86769e-07
1.42908e-08
1.84829e-07
1.34572e-08
1.82943e-07
1.26849e-08
1.81114e-07
1.19674e-08
1.79343e-07
1.12985e-08
1.77632e-07
1.06731e-08
1.75981e-07
1.0086e-08
1.7439e-07
9.53286e-09
1.72859e-07
9.00949e-09
1.71387e-07
8.51207e-09
1.69975e-07
8.03699e-09
1.68622e-07
7.58082e-09
1.67327e-07
7.14038e-09
1.6609e-07
6.71222e-09
1.64911e-07
6.2938e-09
1.63791e-07
5.88074e-09
1.6273e-07
5.47228e-09
1.61728e-07
5.06085e-09
1.60787e-07
4.65067e-09
1.59908e-07
4.22577e-09
1.59092e-07
3.80294e-09
1.58343e-07
3.34702e-09
1.57662e-07
2.90218e-09
1.57052e-07
2.39669e-09
1.5652e-07
1.92082e-09
1.56061e-07
1.36042e-09
1.55696e-07
8.24297e-10
1.55403e-07
2.87878e-10
1.55195e-07
-4.85448e-10
1.5511e-07
-6.00832e-10
-1.89708e-09
1.54683e-07
2.1227e-07
8.68894e-08
2.15145e-07
8.85473e-08
2.16821e-07
6.2213e-08
2.17868e-07
5.23178e-08
2.18285e-07
4.59843e-08
2.18412e-07
4.04542e-08
2.18349e-07
3.65137e-08
2.18064e-07
3.35966e-08
2.17552e-07
3.11397e-08
2.16831e-07
2.89766e-08
2.15925e-07
2.70599e-08
2.1486e-07
2.53444e-08
2.13661e-07
2.37903e-08
2.12352e-07
2.23698e-08
2.10958e-07
2.10639e-08
2.09499e-07
1.98587e-08
2.07993e-07
1.87432e-08
2.06458e-07
1.77081e-08
2.04905e-07
1.67455e-08
2.03348e-07
1.58484e-08
2.01794e-07
1.50105e-08
2.00253e-07
1.42261e-08
1.98731e-07
1.34899e-08
1.97232e-07
1.27972e-08
1.95762e-07
1.21435e-08
1.94323e-07
1.15246e-08
1.92919e-07
1.09368e-08
1.91552e-07
1.03763e-08
1.90224e-07
9.83993e-09
1.88937e-07
9.32418e-09
1.87692e-07
8.82591e-09
1.8649e-07
8.34207e-09
1.85333e-07
7.86927e-09
1.84222e-07
7.405e-09
1.83158e-07
6.9448e-09
1.82142e-07
6.48783e-09
1.81177e-07
6.02634e-09
1.80263e-07
5.5643e-09
1.79403e-07
5.08569e-09
1.786e-07
4.6064e-09
1.77855e-07
4.09243e-09
1.77172e-07
3.58434e-09
1.76552e-07
3.01664e-09
1.76006e-07
2.46691e-09
1.75524e-07
1.84242e-09
1.75131e-07
1.21765e-09
1.74806e-07
6.13255e-10
1.74549e-07
-2.28386e-10
1.74414e-07
-4.66402e-10
-1.49503e-09
1.74012e-07
2.18316e-07
8.05543e-08
2.21194e-07
8.56692e-08
2.22794e-07
6.06132e-08
2.2387e-07
5.12421e-08
2.24395e-07
4.54587e-08
2.247e-07
4.01494e-08
2.24912e-07
3.63015e-08
2.25004e-07
3.35048e-08
2.24955e-07
3.11886e-08
2.24766e-07
2.91656e-08
2.24442e-07
2.73843e-08
2.23988e-07
2.57982e-08
2.23413e-07
2.43647e-08
2.2273e-07
2.30535e-08
2.21949e-07
2.18445e-08
2.21085e-07
2.07233e-08
2.20149e-07
1.9679e-08
2.19154e-07
1.8703e-08
2.18111e-07
1.77881e-08
2.17031e-07
1.69284e-08
2.15923e-07
1.61185e-08
2.14796e-07
1.53536e-08
2.13656e-07
1.46296e-08
2.12511e-07
1.39423e-08
2.11366e-07
1.32882e-08
2.10227e-07
1.26639e-08
2.09097e-07
1.20661e-08
2.07982e-07
1.14917e-08
2.06884e-07
1.09378e-08
2.05807e-07
1.04014e-08
2.04753e-07
9.87969e-09
2.03725e-07
9.36975e-09
2.02726e-07
8.8684e-09
2.01758e-07
8.37327e-09
2.00823e-07
7.87992e-09
1.99923e-07
7.38751e-09
1.99061e-07
6.8883e-09
1.9824e-07
6.38595e-09
1.9746e-07
5.86483e-09
1.96727e-07
5.33939e-09
1.96042e-07
4.77792e-09
1.9541e-07
4.21593e-09
1.94831e-07
3.59635e-09
1.94316e-07
2.98167e-09
1.93856e-07
2.30265e-09
1.93473e-07
1.6002e-09
1.93153e-07
9.33373e-10
1.92883e-07
4.13745e-11
1.92731e-07
-3.13966e-10
-1.14623e-09
1.92382e-07
2.2455e-07
7.44979e-08
2.27454e-07
8.27647e-08
2.2899e-07
5.90773e-08
2.30073e-07
5.01589e-08
2.30639e-07
4.48924e-08
2.30993e-07
3.9796e-08
2.31295e-07
3.59996e-08
2.31534e-07
3.32654e-08
2.31693e-07
3.10297e-08
2.3177e-07
2.90887e-08
2.31764e-07
2.73898e-08
2.31675e-07
2.5888e-08
2.315e-07
2.45392e-08
2.31243e-07
2.3311e-08
2.30906e-07
2.21814e-08
2.30494e-07
2.11348e-08
2.30014e-07
2.01592e-08
2.29472e-07
1.92454e-08
2.28874e-07
1.83861e-08
2.28227e-07
1.75751e-08
2.27538e-07
1.68072e-08
2.26814e-07
1.6078e-08
2.2606e-07
1.53834e-08
2.25283e-07
1.47198e-08
2.24487e-07
1.40839e-08
2.23678e-07
1.34728e-08
2.22861e-07
1.28835e-08
2.22039e-07
1.23134e-08
2.21217e-07
1.17597e-08
2.20399e-07
1.12198e-08
2.19588e-07
1.0691e-08
2.18786e-07
1.01708e-08
2.17999e-07
9.65613e-09
2.17227e-07
9.14471e-09
2.16475e-07
8.63219e-09
2.15745e-07
8.11776e-09
2.15039e-07
7.5938e-09
2.14362e-07
7.06356e-09
2.13714e-07
6.51215e-09
2.13101e-07
5.95223e-09
2.12524e-07
5.35509e-09
2.1199e-07
4.75036e-09
2.11496e-07
4.0905e-09
2.11055e-07
3.42226e-09
2.10658e-07
2.6993e-09
2.10325e-07
1.9332e-09
2.10048e-07
1.21134e-09
2.09803e-07
2.85698e-10
2.09666e-07
-1.76882e-10
-8.77741e-10
2.09398e-07
2.30975e-07
6.87284e-08
2.33915e-07
7.98252e-08
2.35394e-07
5.75982e-08
2.36486e-07
4.90672e-08
2.37085e-07
4.42928e-08
2.37454e-07
3.94273e-08
2.37778e-07
3.56757e-08
2.38063e-07
3.29798e-08
2.38298e-07
3.07953e-08
2.38484e-07
2.89028e-08
2.38623e-07
2.72505e-08
2.38714e-07
2.5797e-08
2.38754e-07
2.44991e-08
2.38741e-07
2.33236e-08
2.38676e-07
2.22474e-08
2.38556e-07
2.12538e-08
2.38385e-07
2.03302e-08
2.38165e-07
1.94664e-08
2.37896e-07
1.86545e-08
2.37583e-07
1.78878e-08
2.3723e-07
1.71609e-08
2.36839e-07
1.64689e-08
2.36414e-07
1.58078e-08
2.3596e-07
1.51738e-08
2.3548e-07
1.45638e-08
2.34979e-07
1.39746e-08
2.34459e-07
1.34035e-08
2.33924e-07
1.28479e-08
2.33379e-07
1.23052e-08
2.32825e-07
1.1773e-08
2.32268e-07
1.12487e-08
2.31709e-07
1.07298e-08
2.31152e-07
1.02132e-08
2.30599e-07
9.69699e-09
2.30055e-07
9.17671e-09
2.29521e-07
8.65156e-09
2.29001e-07
8.1141e-09
2.28497e-07
7.56709e-09
2.28013e-07
6.99659e-09
2.27552e-07
6.41318e-09
2.27115e-07
5.79165e-09
2.2671e-07
5.15536e-09
2.26334e-07
4.4665e-09
2.26e-07
3.75682e-09
2.25699e-07
3.00027e-09
2.25446e-07
2.18556e-09
2.25241e-07
1.41695e-09
2.25055e-07
4.72014e-10
2.24963e-07
-8.51763e-11
-7.10495e-10
2.24796e-07
2.37602e-07
6.32514e-08
2.40581e-07
7.68463e-08
2.42003e-07
5.6176e-08
2.43102e-07
4.79681e-08
2.43738e-07
4.36564e-08
2.4412e-07
3.90452e-08
2.4445e-07
3.5346e-08
2.44749e-07
3.26813e-08
2.45006e-07
3.05378e-08
2.45229e-07
2.86802e-08
2.45423e-07
2.70567e-08
2.45589e-07
2.56311e-08
2.45726e-07
2.43622e-08
2.45832e-07
2.32171e-08
2.45907e-07
2.21726e-08
2.45949e-07
2.12118e-08
2.45957e-07
2.03215e-08
2.45932e-07
1.94913e-08
2.45874e-07
1.87128e-08
2.45783e-07
1.79788e-08
2.45661e-07
1.72835e-08
2.45508e-07
1.66218e-08
2.45326e-07
1.59892e-08
2.45118e-07
1.53819e-08
2.44886e-07
1.47963e-08
2.44631e-07
1.42293e-08
2.44356e-07
1.3678e-08
2.44065e-07
1.31398e-08
2.43758e-07
1.2612e-08
2.43439e-07
1.20921e-08
2.4311e-07
1.15775e-08
2.42774e-07
1.10658e-08
2.42433e-07
1.0554e-08
2.4209e-07
1.00399e-08
2.41748e-07
9.51914e-09
2.41408e-07
8.9909e-09
2.41075e-07
8.44792e-09
2.40749e-07
7.89232e-09
2.40435e-07
7.31129e-09
2.40135e-07
6.71317e-09
2.3985e-07
6.07638e-09
2.39587e-07
5.41809e-09
2.39344e-07
4.70972e-09
2.39131e-07
3.96969e-09
2.38943e-07
3.18851e-09
2.38789e-07
2.33913e-09
2.38674e-07
1.53194e-09
2.38568e-07
5.78331e-10
2.38543e-07
-6.01959e-11
-6.55773e-10
2.38488e-07
2.44437e-07
5.80706e-08
2.47454e-07
7.38288e-08
2.48821e-07
5.4809e-08
2.49924e-07
4.6866e-08
2.50599e-07
4.29812e-08
2.50998e-07
3.86464e-08
2.51332e-07
3.50113e-08
2.51637e-07
3.23767e-08
2.51903e-07
3.02721e-08
2.52136e-07
2.84463e-08
2.52348e-07
2.68455e-08
2.5254e-07
2.54389e-08
2.52714e-07
2.41883e-08
2.52869e-07
2.30615e-08
2.53006e-07
2.20356e-08
2.53124e-07
2.10938e-08
2.53223e-07
2.02232e-08
2.53301e-07
1.94132e-08
2.53358e-07
1.86552e-08
2.53395e-07
1.79421e-08
2.53411e-07
1.72677e-08
2.53406e-07
1.66266e-08
2.53381e-07
1.60142e-08
2.53337e-07
1.54264e-08
2.53274e-07
1.48594e-08
2.53193e-07
1.431e-08
2.53096e-07
1.37751e-08
2.52984e-07
1.32518e-08
2.52858e-07
1.27375e-08
2.52721e-07
1.22295e-08
2.52573e-07
1.17251e-08
2.52417e-07
1.12218e-08
2.52255e-07
1.07165e-08
2.52087e-07
1.0207e-08
2.51918e-07
9.68902e-09
2.51747e-07
9.16135e-09
2.51578e-07
8.6171e-09
2.51413e-07
8.05762e-09
2.51253e-07
7.47132e-09
2.51102e-07
6.86422e-09
2.5096e-07
6.21834e-09
2.50833e-07
5.54504e-09
2.50718e-07
4.82392e-09
2.50626e-07
4.06243e-09
2.50551e-07
3.26329e-09
2.50499e-07
2.3906e-09
2.5048e-07
1.55181e-09
2.50462e-07
5.95903e-10
2.50514e-07
-1.11985e-10
-7.13857e-10
2.50572e-07
2.51489e-07
5.31879e-08
2.54535e-07
7.0783e-08
2.55858e-07
5.34863e-08
2.56958e-07
4.57663e-08
2.57671e-07
4.2268e-08
2.58089e-07
3.82278e-08
2.5843e-07
3.46704e-08
2.58741e-07
3.20664e-08
2.59012e-07
3.00008e-08
2.59251e-07
2.82073e-08
2.59468e-07
2.66283e-08
2.59669e-07
2.52382e-08
2.59855e-07
2.40021e-08
2.60028e-07
2.28884e-08
2.60189e-07
2.18748e-08
2.60338e-07
2.0945e-08
2.60475e-07
2.00862e-08
2.606e-07
1.92881e-08
2.60713e-07
1.85422e-08
2.60814e-07
1.78414e-08
2.60902e-07
1.71794e-08
2.60978e-07
1.65508e-08
2.61041e-07
1.59509e-08
2.61092e-07
1.53755e-08
2.61131e-07
1.48206e-08
2.61158e-07
1.42828e-08
2.61174e-07
1.3759e-08
2.6118e-07
1.32462e-08
2.61176e-07
1.27414e-08
2.61163e-07
1.22421e-08
2.61143e-07
1.17454e-08
2.61116e-07
1.12487e-08
2.61084e-07
1.07487e-08
2.61047e-07
1.02433e-08
2.61008e-07
9.72801e-09
2.60968e-07
9.20148e-09
2.60928e-07
8.6571e-09
2.60891e-07
8.09543e-09
2.60856e-07
7.5061e-09
2.60827e-07
6.89286e-09
2.60804e-07
6.24112e-09
2.60792e-07
5.55707e-09
2.60789e-07
4.82711e-09
2.60801e-07
4.05031e-09
2.60827e-07
3.2374e-09
2.60868e-07
2.3494e-09
2.60936e-07
1.48434e-09
2.61003e-07
5.28254e-10
2.61131e-07
-2.3951e-10
-8.75126e-10
2.61292e-07
2.58767e-07
4.86038e-08
2.61831e-07
6.77192e-08
2.6312e-07
5.21968e-08
2.64213e-07
4.4674e-08
2.64961e-07
4.15192e-08
2.65402e-07
3.77877e-08
2.6575e-07
3.43223e-08
2.66066e-07
3.17498e-08
2.66344e-07
2.97234e-08
2.66587e-07
2.79638e-08
2.66808e-07
2.64075e-08
2.67012e-07
2.50339e-08
2.67203e-07
2.38112e-08
2.67382e-07
2.27092e-08
2.67552e-07
2.17057e-08
2.67712e-07
2.07849e-08
2.67863e-07
1.99345e-08
2.68007e-07
1.91443e-08
2.68143e-07
1.8406e-08
2.68272e-07
1.77126e-08
2.68394e-07
1.70579e-08
2.68508e-07
1.64366e-08
2.68615e-07
1.58439e-08
2.68715e-07
1.52755e-08
2.68808e-07
1.47275e-08
2.68894e-07
1.41964e-08
2.68974e-07
1.3679e-08
2.69048e-07
1.31721e-08
2.69117e-07
1.26729e-08
2.6918e-07
1.21785e-08
2.6924e-07
1.16861e-08
2.69295e-07
1.1193e-08
2.69348e-07
1.06959e-08
2.69399e-07
1.01924e-08
2.69449e-07
9.67821e-09
2.69499e-07
9.15161e-09
2.6955e-07
8.60636e-09
2.69603e-07
8.04219e-09
2.69659e-07
7.44997e-09
2.6972e-07
6.83134e-09
2.69787e-07
6.17469e-09
2.69862e-07
5.48192e-09
2.69944e-07
4.74469e-09
2.70038e-07
3.95624e-09
2.70144e-07
3.13158e-09
2.70261e-07
2.233e-09
2.704e-07
1.34518e-09
2.70541e-07
3.87557e-10
2.70735e-07
-4.33544e-10
-1.12316e-09
2.70983e-07
2.66279e-07
4.43169e-08
2.6935e-07
6.46482e-08
2.70617e-07
5.09298e-08
2.71698e-07
4.35934e-08
2.72479e-07
4.07378e-08
2.72943e-07
3.73242e-08
2.73299e-07
3.39663e-08
2.73621e-07
3.1427e-08
2.73905e-07
2.94395e-08
2.74154e-07
2.77154e-08
2.74378e-07
2.61832e-08
2.74585e-07
2.48265e-08
2.74779e-07
2.36175e-08
2.74961e-07
2.2527e-08
2.75134e-07
2.15332e-08
2.75298e-07
2.06207e-08
2.75455e-07
1.97774e-08
2.75606e-07
1.89936e-08
2.75751e-07
1.8261e-08
2.75891e-07
1.75727e-08
2.76026e-07
1.69228e-08
2.76156e-07
1.6306e-08
2.76283e-07
1.57175e-08
2.76405e-07
1.51531e-08
2.76524e-07
1.46088e-08
2.76639e-07
1.40811e-08
2.76751e-07
1.35667e-08
2.76861e-07
1.30626e-08
2.76968e-07
1.25657e-08
2.77073e-07
1.20733e-08
2.77177e-07
1.15823e-08
2.7728e-07
1.10901e-08
2.77382e-07
1.05933e-08
2.77485e-07
1.00895e-08
2.77589e-07
9.5743e-09
2.77695e-07
9.04583e-09
2.77803e-07
8.49821e-09
2.77915e-07
7.93037e-09
2.78031e-07
7.33434e-09
2.78152e-07
6.70993e-09
2.78279e-07
6.04799e-09
2.78414e-07
5.34709e-09
2.78556e-07
4.60262e-09
2.78707e-07
3.80431e-09
2.78871e-07
2.96843e-09
2.79042e-07
2.06134e-09
2.79235e-07
1.15276e-09
2.79432e-07
1.89882e-10
2.7968e-07
-6.80769e-10
-1.43876e-09
2.79995e-07
2.74034e-07
4.03242e-08
2.77101e-07
6.15808e-08
2.78356e-07
4.96751e-08
2.79421e-07
4.25282e-08
2.80231e-07
3.99275e-08
2.8072e-07
3.68359e-08
2.81085e-07
3.36014e-08
2.81414e-07
3.10979e-08
2.81704e-07
2.9149e-08
2.81958e-07
2.74617e-08
2.82186e-07
2.5955e-08
2.82397e-07
2.46161e-08
2.82593e-07
2.34212e-08
2.82777e-07
2.23425e-08
2.82952e-07
2.13585e-08
2.83119e-07
2.04542e-08
2.83278e-07
1.96178e-08
2.83432e-07
1.88399e-08
2.8358e-07
1.81124e-08
2.83725e-07
1.74285e-08
2.83865e-07
1.67824e-08
2.84002e-07
1.6169e-08
2.84136e-07
1.55833e-08
2.84268e-07
1.50213e-08
2.84398e-07
1.44791e-08
2.84526e-07
1.3953e-08
2.84653e-07
1.34399e-08
2.84779e-07
1.29365e-08
2.84905e-07
1.244e-08
2.8503e-07
1.19475e-08
2.85157e-07
1.1456e-08
2.85284e-07
1.09627e-08
2.85413e-07
1.04644e-08
2.85544e-07
9.95834e-09
2.85678e-07
9.44049e-09
2.85815e-07
8.90856e-09
2.85956e-07
8.35711e-09
2.86102e-07
7.78435e-09
2.86253e-07
7.18334e-09
2.86411e-07
6.55235e-09
2.86575e-07
5.88422e-09
2.86747e-07
5.17509e-09
2.86927e-07
4.42274e-09
2.87116e-07
3.61515e-09
2.87316e-07
2.76782e-09
2.87525e-07
1.85248e-09
2.87754e-07
9.24053e-10
2.87993e-07
-4.90035e-11
2.8828e-07
-9.67517e-10
-1.8035e-09
2.88644e-07
2.82041e-07
3.6621e-08
2.85093e-07
5.85282e-08
2.86345e-07
4.84232e-08
2.87392e-07
4.14811e-08
2.88227e-07
3.90928e-08
2.88742e-07
3.63215e-08
2.89116e-07
3.32264e-08
2.89452e-07
3.07627e-08
2.89749e-07
2.88515e-08
2.90009e-07
2.72022e-08
2.90241e-07
2.57227e-08
2.90455e-07
2.44024e-08
2.90654e-07
2.3222e-08
2.90841e-07
2.21555e-08
2.91018e-07
2.11817e-08
2.91186e-07
2.02858e-08
2.91348e-07
1.94564e-08
2.91503e-07
1.86844e-08
2.91654e-07
1.79618e-08
2.918e-07
1.72822e-08
2.91943e-07
1.66396e-08
2.92083e-07
1.60291e-08
2.9222e-07
1.54458e-08
2.92356e-07
1.48856e-08
2.9249e-07
1.43447e-08
2.92624e-07
1.38195e-08
2.92757e-07
1.33066e-08
2.92891e-07
1.28031e-08
2.93025e-07
1.23059e-08
2.9316e-07
1.18123e-08
2.93297e-07
1.13191e-08
2.93436e-07
1.08236e-08
2.93578e-07
1.03225e-08
2.93723e-07
9.81309e-09
2.93872e-07
9.29141e-09
2.94026e-07
8.75491e-09
2.94184e-07
8.19854e-09
2.94349e-07
7.61989e-09
2.94519e-07
7.01291e-09
2.94697e-07
6.37465e-09
2.94882e-07
5.69945e-09
2.95075e-07
4.98177e-09
2.95277e-07
4.22071e-09
2.95488e-07
3.40387e-09
2.95712e-07
2.54459e-09
2.95944e-07
1.62025e-09
2.96196e-07
6.72205e-10
2.96463e-07
-3.16192e-10
2.96778e-07
-1.28219e-09
-2.20193e-09
2.97176e-07
2.90309e-07
3.32007e-08
2.93336e-07
5.55013e-08
2.94594e-07
4.71651e-08
2.95621e-07
4.04543e-08
2.96475e-07
3.82387e-08
2.97017e-07
3.57799e-08
2.97403e-07
3.28402e-08
2.97744e-07
3.04214e-08
2.98048e-07
2.85472e-08
2.98314e-07
2.69367e-08
2.98551e-07
2.54859e-08
2.98768e-07
2.41851e-08
2.9897e-07
2.30198e-08
2.9916e-07
2.19658e-08
2.99339e-07
2.10025e-08
2.9951e-07
2.01152e-08
2.99673e-07
1.92931e-08
2.9983e-07
1.85271e-08
2.99982e-07
1.78096e-08
3.0013e-07
1.71342e-08
3.00275e-07
1.64952e-08
3.00416e-07
1.58874e-08
3.00556e-07
1.53064e-08
3.00694e-07
1.47479e-08
3.0083e-07
1.4208e-08
3.00967e-07
1.36833e-08
3.01103e-07
1.31704e-08
3.0124e-07
1.26663e-08
3.01378e-07
1.2168e-08
3.01517e-07
1.16726e-08
3.01659e-07
1.11771e-08
3.01804e-07
1.06788e-08
3.01952e-07
1.01743e-08
3.02104e-07
9.66094e-09
3.02261e-07
9.13476e-09
3.02423e-07
8.59302e-09
3.0259e-07
8.03106e-09
3.02764e-07
7.44592e-09
3.02945e-07
6.83228e-09
3.03133e-07
6.1863e-09
3.03329e-07
5.50332e-09
3.03534e-07
4.77683e-09
3.03749e-07
4.00641e-09
3.03972e-07
3.18008e-09
3.04209e-07
2.3084e-09
3.04455e-07
1.37388e-09
3.04721e-07
4.06101e-10
3.05007e-07
-6.0239e-10
3.05341e-07
-1.61612e-09
-2.62228e-09
3.05761e-07
2.98848e-07
3.00552e-08
3.01838e-07
5.25114e-08
3.0311e-07
4.58931e-08
3.04115e-07
3.9449e-08
3.04984e-07
3.73704e-08
3.05553e-07
3.52105e-08
3.05952e-07
3.24412e-08
3.063e-07
3.00739e-08
3.06611e-07
2.8236e-08
3.06883e-07
2.66648e-08
3.07124e-07
2.52442e-08
3.07345e-07
2.3964e-08
3.07551e-07
2.28143e-08
3.07743e-07
2.17733e-08
3.07925e-07
2.08208e-08
3.08098e-07
1.99425e-08
3.08263e-07
1.91278e-08
3.08422e-07
1.8368e-08
3.08576e-07
1.76557e-08
3.08726e-07
1.69846e-08
3.08872e-07
1.63491e-08
3.09015e-07
1.57443e-08
3.09156e-07
1.51655e-08
3.09295e-07
1.46085e-08
3.09433e-07
1.40697e-08
3.09571e-07
1.35454e-08
3.09709e-07
1.30323e-08
3.09848e-07
1.25274e-08
3.09989e-07
1.20277e-08
3.10131e-07
1.15304e-08
3.10275e-07
1.10324e-08
3.10423e-07
1.0531e-08
3.10575e-07
1.00228e-08
3.1073e-07
9.5051e-09
3.10891e-07
8.97406e-09
3.11057e-07
8.42675e-09
3.1123e-07
7.8588e-09
3.11409e-07
7.26685e-09
3.11595e-07
6.64614e-09
3.11789e-07
5.9922e-09
3.11991e-07
5.30099e-09
3.12203e-07
4.56554e-09
3.12424e-07
3.7853e-09
3.12655e-07
2.94921e-09
3.12898e-07
2.06482e-09
3.13153e-07
1.11881e-09
3.13428e-07
1.31073e-10
3.13727e-07
-9.01509e-10
3.14075e-07
-1.96334e-09
-3.05607e-09
3.14508e-07
3.07668e-07
2.71747e-08
3.10609e-07
4.95698e-08
3.11902e-07
4.46003e-08
3.12886e-07
3.84657e-08
3.13763e-07
3.64931e-08
3.1436e-07
3.46135e-08
3.14773e-07
3.20279e-08
3.15127e-07
2.972e-08
3.15445e-07
2.7918e-08
3.15724e-07
2.63862e-08
3.15971e-07
2.49973e-08
3.16196e-07
2.37388e-08
3.16405e-07
2.26054e-08
3.166e-07
2.15777e-08
3.16785e-07
2.06364e-08
3.1696e-07
1.97673e-08
3.17127e-07
1.89603e-08
3.17289e-07
1.82069e-08
3.17444e-07
1.75e-08
3.17596e-07
1.68333e-08
3.17743e-07
1.62015e-08
3.17888e-07
1.55996e-08
3.1803e-07
1.5023e-08
3.18171e-07
1.44677e-08
3.18311e-07
1.39299e-08
3.18451e-07
1.34059e-08
3.1859e-07
1.28926e-08
3.18731e-07
1.23869e-08
3.18873e-07
1.18858e-08
3.19017e-07
1.13864e-08
3.19163e-07
1.08858e-08
3.19313e-07
1.03811e-08
3.19467e-07
9.86905e-09
3.19625e-07
9.3468e-09
3.19789e-07
8.81072e-09
3.19958e-07
8.25765e-09
3.20133e-07
7.68351e-09
3.20315e-07
7.08461e-09
3.20505e-07
6.4566e-09
3.20703e-07
5.7946e-09
3.20909e-07
5.0949e-09
3.21124e-07
4.35041e-09
3.21349e-07
3.56011e-09
3.21584e-07
2.71399e-09
3.21832e-07
1.81674e-09
3.22093e-07
8.58036e-10
3.22374e-07
-1.49966e-10
3.22682e-07
-1.20969e-09
3.23039e-07
-2.31978e-09
-3.49722e-09
3.2348e-07
3.16778e-07
2.4548e-08
3.1966e-07
4.66875e-08
3.20979e-07
4.3281e-08
3.21941e-07
3.75039e-08
3.22822e-07
3.56119e-08
3.23446e-07
3.39895e-08
3.23875e-07
3.15987e-08
3.24236e-07
2.93593e-08
3.24561e-07
2.75931e-08
3.24847e-07
2.61006e-08
3.25099e-07
2.47449e-08
3.25329e-07
2.35093e-08
3.25541e-07
2.23927e-08
3.2574e-07
2.13788e-08
3.25928e-07
2.0449e-08
3.26105e-07
1.95896e-08
3.26275e-07
1.87905e-08
3.26438e-07
1.80437e-08
3.26596e-07
1.73422e-08
3.26749e-07
1.66802e-08
3.26899e-07
1.60521e-08
3.27045e-07
1.54531e-08
3.27189e-07
1.48789e-08
3.27332e-07
1.43253e-08
3.27473e-07
1.37884e-08
3.27614e-07
1.32649e-08
3.27755e-07
1.27513e-08
3.27898e-07
1.22447e-08
3.28041e-07
1.17421e-08
3.28187e-07
1.12407e-08
3.28335e-07
1.07373e-08
3.28487e-07
1.02293e-08
3.28643e-07
9.71329e-09
3.28803e-07
9.18644e-09
3.28969e-07
8.6452e-09
3.2914e-07
8.08631e-09
3.29318e-07
7.50585e-09
3.29503e-07
6.89995e-09
3.29695e-07
6.2645e-09
3.29895e-07
5.59442e-09
3.30104e-07
4.88611e-09
3.30321e-07
4.13256e-09
3.30549e-07
3.33211e-09
3.30788e-07
2.47571e-09
3.31039e-07
1.56558e-09
3.31304e-07
5.93131e-10
3.31589e-07
-4.35432e-10
3.31904e-07
-1.5244e-09
3.32267e-07
-2.68246e-09
-3.94121e-09
3.32711e-07
3.26188e-07
2.21625e-08
3.29e-07
4.38755e-08
3.3035e-07
4.19311e-08
3.31291e-07
3.65626e-08
3.32172e-07
3.47314e-08
3.32821e-07
3.33402e-08
3.33268e-07
3.11523e-08
3.33636e-07
2.89912e-08
3.33967e-07
2.72615e-08
3.3426e-07
2.58078e-08
3.34519e-07
2.44864e-08
3.34753e-07
2.32752e-08
3.34969e-07
2.21761e-08
3.35172e-07
2.11764e-08
3.35362e-07
2.02585e-08
3.35543e-07
1.9409e-08
3.35715e-07
1.86181e-08
3.35881e-07
1.78781e-08
3.36041e-07
1.71823e-08
3.36196e-07
1.65249e-08
3.36347e-07
1.59007e-08
3.36496e-07
1.53049e-08
3.36641e-07
1.47331e-08
3.36786e-07
1.41811e-08
3.36929e-07
1.36453e-08
3.37071e-07
1.31222e-08
3.37214e-07
1.26084e-08
3.37358e-07
1.21009e-08
3.37504e-07
1.15968e-08