/*--------------------------------*- C++ -*----------------------------------*\
  =========                 |
  \\      /  F ield         | OpenFOAM: The Open Source CFD Toolbox
   \\    /   O peration     | Website:  https://openfoam.org
    \\  /    A nd           | Version:  7
     \\/     M anipulation  |
\*---------------------------------------------------------------------------*/
FoamFile
{
    version     2.0;
    format      ascii;
    class       volVectorField;
    location    "0.32";
    object      U;
}
// * * * * * * * * * * * * * * * * * * * * * * * * * * * * * * * * * * * * * //

dimensions      [0 1 -1 0 0 0 0];

internalField   nonuniform List<vector> 
70000
(
(0.553416 0.016978 0)
(0.251435 0.00340015 0)
(0.165964 0.000318694 0)
(0.132504 4.87945e-05 0)
(0.117424 4.38442e-05 0)
(0.107493 5.19973e-05 0)
(0.0995516 4.41828e-05 0)
(0.0931386 3.50883e-05 0)
(0.0879264 2.90319e-05 0)
(0.0835902 2.48758e-05 0)
(0.0799019 2.16948e-05 0)
(0.0767142 1.91394e-05 0)
(0.073926 1.70491e-05 0)
(0.0714635 1.53147e-05 0)
(0.0692706 1.38551e-05 0)
(0.0673042 1.26103e-05 0)
(0.0655302 1.15358e-05 0)
(0.0639216 1.05979e-05 0)
(0.0624565 9.77088e-06 0)
(0.0611169 9.03439e-06 0)
(0.0598881 8.37228e-06 0)
(0.058758 7.77124e-06 0)
(0.0577162 7.22026e-06 0)
(0.0567544 6.71008e-06 0)
(0.0558653 6.23266e-06 0)
(0.0550429 5.78128e-06 0)
(0.0542823 5.34942e-06 0)
(0.0535791 4.93247e-06 0)
(0.0529299 4.52366e-06 0)
(0.0523318 4.12138e-06 0)
(0.0517828 3.71601e-06 0)
(0.0512807 3.31111e-06 0)
(0.0508248 2.89048e-06 0)
(0.0504138 2.46628e-06 0)
(0.0500477 2.01274e-06 0)
(0.0497265 1.55068e-06 0)
(0.0494501 1.05374e-06 0)
(0.0492212 5.22056e-07 0)
(0.0490367 1.18773e-09 0)
(0.0489077 -6.84403e-07 0)
(0.0488168 -1.12248e-06 0)
(0.0488033 -2.10134e-06 0)
(0.0488001 -2.02462e-06 0)
(0.0489343 -4.1091e-06 0)
(0.0489844 -1.5697e-06 0)
(0.049339 -7.46204e-06 0)
(0.0493167 3.3752e-06 0)
(0.0500507 -1.53087e-05 0)
(0.0497799 4.08375e-05 0)
(0.0471379 -0.00184175 0)
(0.884864 0.0434923 0)
(0.650176 0.0201471 0)
(0.494053 0.00660225 0)
(0.403688 0.00275207 0)
(0.355039 0.00154501 0)
(0.323791 0.00112848 0)
(0.299964 0.000905867 0)
(0.280831 0.00074112 0)
(0.265195 0.000618279 0)
(0.252154 0.00052764 0)
(0.241056 0.000458767 0)
(0.231461 0.000404491 0)
(0.223063 0.000360556 0)
(0.21564 0.000324306 0)
(0.209024 0.000293939 0)
(0.203086 0.000268161 0)
(0.197723 0.000246021 0)
(0.192855 0.000226801 0)
(0.188416 0.000209953 0)
(0.184352 0.000195049 0)
(0.180619 0.000181747 0)
(0.177179 0.000169774 0)
(0.174002 0.000158903 0)
(0.171063 0.000148946 0)
(0.16834 0.000139746 0)
(0.165813 0.000131166 0)
(0.163468 0.000123088 0)
(0.161292 0.000115409 0)
(0.159274 0.00010803 0)
(0.157405 0.000100869 0)
(0.155677 9.38318e-05 0)
(0.154084 8.68578e-05 0)
(0.152624 7.98338e-05 0)
(0.151291 7.27376e-05 0)
(0.150086 6.53981e-05 0)
(0.149006 5.78705e-05 0)
(0.148052 4.98652e-05 0)
(0.14723 4.15812e-05 0)
(0.146532 3.2553e-05 0)
(0.145987 2.31463e-05 0)
(0.14555 1.284e-05 0)
(0.145325 1.9521e-06 0)
(0.145138 -9.22723e-06 0)
(0.145326 -2.33919e-05 0)
(0.145314 -3.31839e-05 0)
(0.14612 -5.37792e-05 0)
(0.146007 -4.6718e-05 0)
(0.147848 -0.000116691 0)
(0.147295 0.000195729 0)
(0.146484 -0.00300546 0)
(0.991208 0.0499538 0)
(0.890948 0.0305585 0)
(0.76257 0.0146047 0)
(0.656687 0.00796395 0)
(0.585667 0.00487198 0)
(0.53639 0.00346619 0)
(0.498597 0.00272942 0)
(0.468071 0.00223471 0)
(0.442865 0.00187063 0)
(0.421668 0.00159865 0)
(0.403531 0.00139082 0)
(0.387787 0.00122706 0)
(0.373962 0.00109459 0)
(0.361707 0.000985336 0)
(0.350758 0.000893813 0)
(0.340908 0.000816131 0)
(0.331996 0.000749427 0)
(0.32389 0.000691551 0)
(0.316484 0.000640852 0)
(0.309692 0.000596042 0)
(0.303442 0.0005561 0)
(0.297673 0.000520199 0)
(0.292336 0.000487664 0)
(0.287387 0.000457936 0)
(0.282792 0.000430543 0)
(0.278518 0.000405081 0)
(0.274542 0.000381201 0)
(0.27084 0.000358595 0)
(0.267395 0.00033698 0)
(0.26419 0.000316108 0)
(0.261214 0.00029572 0)
(0.258456 0.000275617 0)
(0.255909 0.000255511 0)
(0.253565 0.000235283 0)
(0.251421 0.00021451 0)
(0.249476 0.000193272 0)
(0.247727 0.000170792 0)
(0.246184 0.000147651 0)
(0.244832 0.00012227 0)
(0.243716 9.63588e-05 0)
(0.242767 6.67729e-05 0)
(0.242139 3.73649e-05 0)
(0.241579 2.75619e-06 0)
(0.241572 -3.17927e-05 0)
(0.241304 -7.16038e-05 0)
(0.242214 -0.000114439 0)
(0.241892 -0.00013432 0)
(0.244289 -0.000268433 0)
(0.243396 0.000116121 0)
(0.24544 -0.00307191 0)
(1.01554 0.0489514 0)
(1.00651 0.0357179 0)
(0.93595 0.0208096 0)
(0.85215 0.0134866 0)
(0.782468 0.00918445 0)
(0.727427 0.00676837 0)
(0.682456 0.00537097 0)
(0.64482 0.0044288 0)
(0.612937 0.00373338 0)
(0.58561 0.00320677 0)
(0.561898 0.00279976 0)
(0.541097 0.00247692 0)
(0.522678 0.00221471 0)
(0.506238 0.00199771 0)
(0.491465 0.00181543 0)
(0.478111 0.00166035 0)
(0.465976 0.00152694 0)
(0.454897 0.00141102 0)
(0.444742 0.00130937 0)
(0.435399 0.00121947 0)
(0.426777 0.00113931 0)
(0.418798 0.00106727 0)
(0.411395 0.00100201 0)
(0.404514 0.000942441 0)
(0.398107 0.000887622 0)
(0.392134 0.00083676 0)
(0.386559 0.000789169 0)
(0.381353 0.000744241 0)
(0.376493 0.000701429 0)
(0.371954 0.000660238 0)
(0.367722 0.000620181 0)
(0.36378 0.000580848 0)
(0.360118 0.000541714 0)
(0.356725 0.000502505 0)
(0.353596 0.000462465 0)
(0.350727 0.000421677 0)
(0.348115 0.000378705 0)
(0.345767 0.000334648 0)
(0.343669 0.000286306 0)
(0.341868 0.000237434 0)
(0.340288 0.000180648 0)
(0.339104 0.000125967 0)
(0.338027 5.71177e-05 0)
(0.337609 -2.97527e-06 0)
(0.336935 -8.74724e-05 0)
(0.337612 -0.000156626 0)
(0.336999 -0.00022745 0)
(0.339365 -0.00041352 0)
(0.338261 -6.99073e-05 0)
(0.341352 -0.00284441 0)
(1.01434 0.0460954 0)
(1.04799 0.0373333 0)
(1.02461 0.0241737 0)
(0.974787 0.0175406 0)
(0.923677 0.0130891 0)
(0.877054 0.0101829 0)
(0.835016 0.00832052 0)
(0.797408 0.00699593 0)
(0.764 0.00598357 0)
(0.734348 0.00519462 0)
(0.707936 0.00457132 0)
(0.684291 0.0040691 0)
(0.663016 0.00365644 0)
(0.64378 0.00331184 0)
(0.626307 0.00302023 0)
(0.610368 0.00277064 0)
(0.595771 0.00255483 0)
(0.582356 0.00236653 0)
(0.569987 0.00220085 0)
(0.558548 0.00205389 0)
(0.547942 0.00192257 0)
(0.538083 0.00180434 0)
(0.528902 0.00169712 0)
(0.520335 0.00159917 0)
(0.51233 0.00150902 0)
(0.504841 0.00142541 0)
(0.497827 0.00134724 0)
(0.491255 0.00127354 0)
(0.485096 0.00120345 0)
(0.479323 0.00113617 0)
(0.473918 0.00107094 0)
(0.46886 0.00100708 0)
(0.464136 0.000943797 0)
(0.459735 0.000880607 0)
(0.455648 0.000816378 0)
(0.451869 0.000751162 0)
(0.448393 0.000682778 0)
(0.445229 0.000612878 0)
(0.442359 0.000536424 0)
(0.43983 0.000459448 0)
(0.437568 0.000369783 0)
(0.435743 0.000284355 0)
(0.434075 0.000174747 0)
(0.433103 8.20875e-05 0)
(0.431944 -5.29203e-05 0)
(0.432133 -0.000156979 0)
(0.431204 -0.000288055 0)
(0.433053 -0.000528843 0)
(0.431967 -0.000250822 0)
(0.434606 -0.002622 0)
(1.00941 0.0430448 0)
(1.05565 0.0370876 0)
(1.0587 0.0253126 0)
(1.03638 0.0197414 0)
(1.00728 0.0157713 0)
(0.976353 0.0129032 0)
(0.94494 0.0109281 0)
(0.914207 0.00944173 0)
(0.885007 0.00824782 0)
(0.857717 0.00727783 0)
(0.832411 0.00648592 0)
(0.809026 0.00583146 0)
(0.787439 0.00528292 0)
(0.767506 0.00481745 0)
(0.749084 0.00441837 0)
(0.732031 0.00407304 0)
(0.716218 0.00377172 0)
(0.701528 0.00350676 0)
(0.687855 0.00327208 0)
(0.675107 0.00306277 0)
(0.663199 0.00287484 0)
(0.652058 0.00270497 0)
(0.64162 0.00255041 0)
(0.631828 0.00240884 0)
(0.622632 0.00227827 0)
(0.613986 0.002157 0)
(0.605853 0.00204352 0)
(0.598199 0.00193649 0)
(0.590995 0.00183473 0)
(0.584214 0.00173713 0)
(0.577835 0.00164262 0)
(0.571839 0.00155027 0)
(0.566212 0.00145897 0)
(0.560939 0.00136802 0)
(0.556014 0.00127588 0)
(0.551428 0.00118254 0)
(0.547177 0.00108508 0)
(0.543265 0.000985622 0)
(0.539679 0.000877366 0)
(0.53646 0.000768373 0)
(0.533542 0.000642098 0)
(0.531077 0.000521434 0)
(0.528821 0.000367657 0)
(0.527243 0.000235828 0)
(0.52559 4.73842e-05 0)
(0.52516 -0.00010046 0)
(0.523921 -0.000290095 0)
(0.524989 -0.00059749 0)
(0.523972 -0.000391523 0)
(0.525698 -0.00238713 0)
(1.00635 0.0401766 0)
(1.05242 0.03614 0)
(1.06608 0.0252343 0)
(1.05959 0.0205432 0)
(1.04701 0.0171937 0)
(1.03103 0.0146151 0)
(1.01222 0.0127789 0)
(0.991654 0.0113483 0)
(0.970383 0.0101466 0)
(0.949135 0.00912737 0)
(0.92835 0.00826419 0)
(0.908289 0.00752851 0)
(0.889095 0.00689567 0)
(0.870838 0.00634678 0)
(0.853536 0.00586735 0)
(0.837176 0.00544588 0)
(0.821727 0.00507312 0)
(0.807147 0.0047415 0)
(0.793389 0.00444479 0)
(0.780404 0.00417783 0)
(0.768146 0.00393629 0)
(0.756568 0.00371652 0)
(0.745626 0.00351539 0)
(0.735282 0.00333025 0)
(0.725497 0.00315876 0)
(0.716238 0.00299891 0)
(0.707476 0.0028489 0)
(0.699181 0.0027071 0)
(0.691331 0.00257205 0)
(0.683904 0.00244237 0)
(0.67688 0.00231675 0)
(0.670244 0.00219398 0)
(0.663984 0.0020727 0)
(0.658086 0.00195196 0)
(0.652544 0.00182987 0)
(0.647351 0.00170631 0)
(0.642505 0.00157769 0)
(0.638006 0.00144644 0)
(0.633848 0.00130431 0)
(0.630061 0.0011608 0)
(0.626598 0.000996034 0)
(0.623578 0.000836966 0)
(0.620813 0.000637855 0)
(0.618674 0.000462221 0)
(0.616578 0.000219906 0)
(0.615525 1.95486e-05 0)
(0.613995 -0.000222825 0)
(0.614255 -0.000603609 0)
(0.613213 -0.000473882 0)
(0.61408 -0.00211534 0)
(1.00506 0.0374991 0)
(1.04763 0.0350409 0)
(1.06398 0.0246855 0)
(1.06424 0.0205722 0)
(1.06079 0.0177286 0)
(1.05494 0.0154513 0)
(1.04625 0.0138289 0)
(1.03515 0.0125617 0)
(1.02236 0.0114692 0)
(1.00846 0.0105116 0)
(0.993933 0.00967471 0)
(0.979112 0.00894046 0)
(0.964264 0.00829179 0)
(0.949582 0.00771544 0)
(0.935202 0.00720109 0)
(0.921213 0.00674022 0)
(0.907676 0.00632569 0)
(0.894625 0.00595135 0)
(0.882077 0.00561197 0)
(0.870038 0.005303 0)
(0.858504 0.00502051 0)
(0.847466 0.00476105 0)
(0.836912 0.00452163 0)
(0.826827 0.00429957 0)
(0.817195 0.00409254 0)
(0.808001 0.00389842 0)
(0.799228 0.00371531 0)
(0.790862 0.00354144 0)
(0.782888 0.00337521 0)
(0.775293 0.00321508 0)
(0.768066 0.00305957 0)
(0.761196 0.00290727 0)
(0.754676 0.00275661 0)
(0.748496 0.00260644 0)
(0.742655 0.0024546 0)
(0.737147 0.0023008 0)
(0.731973 0.00214095 0)
(0.727134 0.00197758 0)
(0.722628 0.00180141 0)
(0.718479 0.00162266 0)
(0.714655 0.00141944 0)
(0.711247 0.00122051 0)
(0.708121 0.000977036 0)
(0.705552 0.000754443 0)
(0.703122 0.000462328 0)
(0.701552 0.000201553 0)
(0.699779 -8.93884e-05 0)
(0.699352 -0.000540257 0)
(0.698205 -0.000494276 0)
(0.698382 -0.00181417 0)
(1.00451 0.034963 0)
(1.0436 0.0339603 0)
(1.05996 0.0240334 0)
(1.06228 0.020281 0)
(1.0626 0.0177909 0)
(1.06198 0.0157271 0)
(1.05946 0.0142773 0)
(1.05498 0.0131743 0)
(1.04886 0.0122224 0)
(1.04141 0.0113752 0)
(1.0329 0.0106211 0)
(1.02358 0.00994631 0)
(1.0137 0.00933752 0)
(1.00343 0.00878512 0)
(0.992955 0.00828205 0)
(0.982388 0.00782265 0)
(0.971839 0.00740206 0)
(0.961386 0.00701604 0)
(0.951091 0.0066608 0)
(0.941 0.00633294 0)
(0.931147 0.00602941 0)
(0.921556 0.00574742 0)
(0.912243 0.00548446 0)
(0.90322 0.00523822 0)
(0.894494 0.00500661 0)
(0.886067 0.00478768 0)
(0.877942 0.00457966 0)
(0.870118 0.00438082 0)
(0.862594 0.00418957 0)
(0.855368 0.00400433 0)
(0.848438 0.00382358 0)
(0.841801 0.00364581 0)
(0.835457 0.00346933 0)
(0.829404 0.00329288 0)
(0.823645 0.00311405 0)
(0.818177 0.00293244 0)
(0.813006 0.00274361 0)
(0.808136 0.00255001 0)
(0.803569 0.00234176 0)
(0.799325 0.00212916 0)
(0.795386 0.00188955 0)
(0.79182 0.00165141 0)
(0.788539 0.00136641 0)
(0.785738 0.0010962 0)
(0.783135 0.000758796 0)
(0.781226 0.000435981 0)
(0.779305 9.80365e-05 0)
(0.778383 -0.000413795 0)
(0.777132 -0.000456066 0)
(0.776814 -0.00150099 0)
(1.00412 0.0325321 0)
(1.04027 0.032906 0)
(1.05619 0.0233976 0)
(1.05892 0.0198948 0)
(1.06033 0.0176597 0)
(1.06174 0.0157268 0)
(1.06216 0.0143774 0)
(1.06132 0.0133886 0)
(1.05934 0.0125511 0)
(1.05631 0.011808 0)
(1.05233 0.0111454 0)
(1.04751 0.010549 0)
(1.04198 0.0100056 0)
(1.03585 0.00950614 0)
(1.02925 0.00904476 0)
(1.02229 0.0086171 0)
(1.01507 0.00821965 0)
(1.00766 0.00784948 0)
(1.00013 0.00750395 0)
(0.992562 0.0071807 0)
(0.984989 0.00687754 0)
(0.977457 0.00659243 0)
(0.970002 0.00632346 0)
(0.962651 0.00606883 0)
(0.955428 0.00582686 0)
(0.948352 0.00559591 0)
(0.941438 0.00537446 0)
(0.934699 0.00516097 0)
(0.928146 0.004954 0)
(0.921786 0.00475205 0)
(0.915628 0.00455363 0)
(0.909678 0.00435726 0)
(0.903942 0.00416121 0)
(0.898426 0.00396414 0)
(0.893136 0.00376355 0)
(0.888078 0.00355894 0)
(0.88326 0.00334562 0)
(0.878689 0.0031259 0)
(0.874373 0.00288967 0)
(0.870329 0.00264673 0)
(0.866551 0.00237477 0)
(0.86309 0.00210033 0)
(0.859892 0.00177825 0)
(0.857094 0.00146273 0)
(0.854514 0.00108475 0)
(0.852483 0.000703345 0)
(0.850554 0.000320443 0)
(0.849358 -0.000241312 0)
(0.848076 -0.000371743 0)
(0.847471 -0.00119504 0)
(1.00374 0.0301975 0)
(1.03728 0.0318561 0)
(1.05286 0.0227929 0)
(1.05568 0.0194909 0)
(1.05724 0.0174671 0)
(1.0592 0.0156224 0)
(1.06068 0.01432 0)
(1.06143 0.0133937 0)
(1.0615 0.0126286 0)
(1.06093 0.0119583 0)
(1.05971 0.0113665 0)
(1.05787 0.0108376 0)
(1.05544 0.010357 0)
(1.05245 0.00991447 0)
(1.04899 0.00950366 0)
(1.04509 0.00912009 0)
(1.04083 0.00876043 0)
(1.03627 0.00842209 0)
(1.03145 0.00810291 0)
(1.02643 0.00780101 0)
(1.02126 0.00751471 0)
(1.01598 0.00724245 0)
(1.01062 0.00698277 0)
(1.00523 0.00673425 0)
(0.99982 0.00649557 0)
(0.994427 0.00626541 0)
(0.989072 0.0060425 0)
(0.983773 0.00582552 0)
(0.978549 0.0056132 0)
(0.973415 0.00540419 0)
(0.968386 0.00519709 0)
(0.963473 0.00499048 0)
(0.95869 0.00478266 0)
(0.954047 0.00457229 0)
(0.949555 0.00435681 0)
(0.945224 0.00413564 0)
(0.941066 0.00390401 0)
(0.937092 0.00366397 0)
(0.933312 0.00340549 0)
(0.929744 0.00313752 0)
(0.926388 0.00283883 0)
(0.923286 0.00253298 0)
(0.920406 0.00217966 0)
(0.917845 0.00182348 0)
(0.915492 0.00141073 0)
(0.913561 0.000976996 0)
(0.911785 0.000552407 0)
(0.910539 -4.9203e-05 0)
(0.909341 -0.000262003 0)
(0.908655 -0.000917398 0)
(1.00337 0.0279617 0)
(1.03444 0.030798 0)
(1.04975 0.022213 0)
(1.05272 0.0190842 0)
(1.05423 0.017256 0)
(1.05626 0.0154889 0)
(1.05801 0.014208 0)
(1.05928 0.0133117 0)
(1.06015 0.0125863 0)
(1.06068 0.0119581 0)
(1.06085 0.0114101 0)
(1.06064 0.0109264 0)
(1.06003 0.0104916 0)
(1.05904 0.0100941 0)
(1.05768 0.00972661 0)
(1.05596 0.0093839 0)
(1.05391 0.0090622 0)
(1.05156 0.0087586 0)
(1.04895 0.00847082 0)
(1.04609 0.00819696 0)
(1.04303 0.00793539 0)
(1.03979 0.00768466 0)
(1.0364 0.00744347 0)
(1.03289 0.00721056 0)
(1.02929 0.00698477 0)
(1.02561 0.00676495 0)
(1.02188 0.00654998 0)
(1.01813 0.00633871 0)
(1.01436 0.00612998 0)
(1.01061 0.00592253 0)
(1.00687 0.00571507 0)
(1.00318 0.00550623 0)
(0.999543 0.00529432 0)
(0.995971 0.00507806 0)
(0.992482 0.00485482 0)
(0.989086 0.00462398 0)
(0.985797 0.00438075 0)
(0.982629 0.00412688 0)
(0.979592 0.00385263 0)
(0.976706 0.00356585 0)
(0.973975 0.00324693 0)
(0.971432 0.00291574 0)
(0.969062 0.00253787 0)
(0.966933 0.00214744 0)
(0.964983 0.00170631 0)
(0.963343 0.0012287 0)
(0.961869 0.000766743 0)
(0.96077 0.000137958 0)
(0.959781 -0.000151509 0)
(0.959199 -0.000688793 0)
(1.00301 0.0258281 0)
(1.03172 0.0297278 0)
(1.04676 0.0216543 0)
(1.04993 0.0186745 0)
(1.05142 0.017033 0)
(1.0534 0.0153483 0)
(1.05519 0.0140822 0)
(1.05657 0.0132015 0)
(1.05768 0.0124983 0)
(1.05859 0.0118929 0)
(1.05932 0.0113683 0)
(1.05984 0.0109102 0)
(1.06013 0.0105028 0)
(1.06019 0.0101343 0)
(1.06002 0.00979643 0)
(1.05961 0.00948353 0)
(1.05896 0.00919128 0)
(1.05809 0.00891631 0)
(1.057 0.00865599 0)
(1.05571 0.00840814 0)
(1.05423 0.00817094 0)
(1.05257 0.00794279 0)
(1.05076 0.00772229 0)
(1.0488 0.00750816 0)
(1.04673 0.00729919 0)
(1.04454 0.00709424 0)
(1.04227 0.00689221 0)
(1.03993 0.00669196 0)
(1.03752 0.00649238 0)
(1.03508 0.00629224 0)
(1.03261 0.00609025 0)
(1.03013 0.00588508 0)
(1.02765 0.00567502 0)
(1.02518 0.00545879 0)
(1.02275 0.00523373 0)
(1.02035 0.00499915 0)
(1.018 0.00475028 0)
(1.01573 0.00448853 0)
(1.01353 0.00420458 0)
(1.01143 0.00390501 0)
(1.00943 0.0035722 0)
(1.00756 0.00322197 0)
(1.00582 0.00282617 0)
(1.00424 0.00240859 0)
(1.00281 0.00194538 0)
(1.00159 0.0014333 0)
(1.00053 0.000938931 0)
(0.999725 0.000295903 0)
(0.999046 -6.38721e-05 0)
(0.998709 -0.000526932 0)
(1.00268 0.0237993 0)
(1.02912 0.0286438 0)
(1.04385 0.0211163 0)
(1.04723 0.0182617 0)
(1.04873 0.0167965 0)
(1.05068 0.0152032 0)
(1.05246 0.0139536 0)
(1.05385 0.0130837 0)
(1.05499 0.0123962 0)
(1.056 0.0118049 0)
(1.0569 0.011293 0)
(1.05768 0.0108482 0)
(1.05833 0.0104555 0)
(1.05885 0.010103 0)
(1.05925 0.0097824 0)
(1.0595 0.00948772 0)
(1.05961 0.00921439 0)
(1.05957 0.00895878 0)
(1.0594 0.00871795 0)
(1.05907 0.00848948 0)
(1.05861 0.00827129 0)
(1.05802 0.0080616 0)
(1.0573 0.00785882 0)
(1.05646 0.00766149 0)
(1.05551 0.00746832 0)
(1.05446 0.00727803 0)
(1.05331 0.00708945 0)
(1.05209 0.00690139 0)
(1.0508 0.00671264 0)
(1.04945 0.00652197 0)
(1.04805 0.00632802 0)
(1.04662 0.00612943 0)
(1.04516 0.00592444 0)
(1.04368 0.00571172 0)
(1.0422 0.00548858 0)
(1.04073 0.0052542 0)
(1.03928 0.00500387 0)
(1.03786 0.00473859 0)
(1.03647 0.00444963 0)
(1.03515 0.00414209 0)
(1.03388 0.00380059 0)
(1.0327 0.0034368 0)
(1.0316 0.0030287 0)
(1.03062 0.00259068 0)
(1.02974 0.00211087 0)
(1.02901 0.00157345 0)
(1.0284 0.00105148 0)
(1.02798 0.000401938 0)
(1.02766 -1.81195e-05 0)
(1.02765 -0.000444041 0)
(1.00238 0.0218771 0)
(1.02665 0.0275451 0)
(1.04102 0.0205987 0)
(1.04463 0.0178473 0)
(1.04614 0.0165453 0)
(1.04806 0.0150521 0)
(1.04984 0.0138234 0)
(1.05122 0.0129634 0)
(1.05236 0.0122899 0)
(1.05337 0.0117101 0)
(1.0543 0.0112068 0)
(1.05514 0.0107697 0)
(1.0559 0.0103849 0)
(1.05659 0.010041 0)
(1.0572 0.00972951 0)
(1.05774 0.00944471 0)
(1.05819 0.00918198 0)
(1.05856 0.00893759 0)
(1.05884 0.00870852 0)
(1.05904 0.00849219 0)
(1.05915 0.00828641 0)
(1.05917 0.00808923 0)
(1.05911 0.0078989 0)
(1.05897 0.00771385 0)
(1.05874 0.00753262 0)
(1.05844 0.00735383 0)
(1.05807 0.00717617 0)
(1.05763 0.00699836 0)
(1.05713 0.00681911 0)
(1.05658 0.00663708 0)
(1.05598 0.00645082 0)
(1.05535 0.00625894 0)
(1.05468 0.00605956 0)
(1.05399 0.00585129 0)
(1.05328 0.00563137 0)
(1.05257 0.00539884 0)
(1.05186 0.0051491 0)
(1.05116 0.00488263 0)
(1.05047 0.00459138 0)
(1.04982 0.00427895 0)
(1.04921 0.0039322 0)
(1.04864 0.00355887 0)
(1.04813 0.00314248 0)
(1.0477 0.00268948 0)
(1.04734 0.00219716 0)
(1.04708 0.00164203 0)
(1.04691 0.0010969 0)
(1.04687 0.00044555 0)
(1.04693 -2.59856e-05 0)
(1.04727 -0.000444872 0)
(1.0021 0.0200624 0)
(1.02431 0.0264337 0)
(1.03829 0.0200992 0)
(1.0421 0.0174333 0)
(1.04363 0.0162793 0)
(1.04553 0.0148937 0)
(1.04731 0.0136909 0)
(1.04869 0.012841 0)
(1.04981 0.0121813 0)
(1.05081 0.011613 0)
(1.05173 0.0111172 0)
(1.05258 0.0106859 0)
(1.05336 0.0103065 0)
(1.05409 0.00996763 0)
(1.05476 0.00966131 0)
(1.05539 0.0093818 0)
(1.05597 0.00912464 0)
(1.0565 0.00888618 0)
(1.05698 0.0086634 0)
(1.05742 0.00845373 0)
(1.0578 0.00825491 0)
(1.05813 0.00806496 0)
(1.05842 0.00788205 0)
(1.05865 0.00770451 0)
(1.05883 0.00753079 0)
(1.05896 0.00735942 0)
(1.05905 0.007189 0)
(1.0591 0.00701816 0)
(1.0591 0.0068455 0)
(1.05906 0.00666962 0)
(1.059 0.00648897 0)
(1.0589 0.00630208 0)
(1.05878 0.00610698 0)
(1.05864 0.0059022 0)
(1.05848 0.00568493 0)
(1.05832 0.00545404 0)
(1.05816 0.00520503 0)
(1.058 0.00493788 0)
(1.05785 0.00464526 0)
(1.05772 0.00432926 0)
(1.05761 0.00397889 0)
(1.05754 0.00359835 0)
(1.05751 0.00317589 0)
(1.05752 0.0027117 0)
(1.05759 0.00220939 0)
(1.05773 0.00164198 0)
(1.05794 0.00107724 0)
(1.05824 0.000425667 0)
(1.05864 -9.04602e-05 0)
(1.0593 -0.000525598 0)
(1.00185 0.0183555 0)
(1.02211 0.0253136 0)
(1.03566 0.0196142 0)
(1.03967 0.0170214 0)
(1.04122 0.0159992 0)
(1.04308 0.0147272 0)
(1.04486 0.0135558 0)
(1.04625 0.0127161 0)
(1.04736 0.0120704 0)
(1.04835 0.0115141 0)
(1.04925 0.0110262 0)
(1.05009 0.0106004 0)
(1.05086 0.0102255 0)
(1.05159 0.00989059 0)
(1.05227 0.00958782 0)
(1.05292 0.00931161 0)
(1.05353 0.00905763 0)
(1.05411 0.00882236 0)
(1.05466 0.00860283 0)
(1.05518 0.00839653 0)
(1.05567 0.00820123 0)
(1.05614 0.00801492 0)
(1.05657 0.00783579 0)
(1.05698 0.00766212 0)
(1.05736 0.00749232 0)
(1.05771 0.00732487 0)
(1.05804 0.00715831 0)
(1.05834 0.0069912 0)
(1.05862 0.0068221 0)
(1.05888 0.00664954 0)
(1.05913 0.00647189 0)
(1.05935 0.00628761 0)
(1.05956 0.00609468 0)
(1.05977 0.00589153 0)
(1.05996 0.00567532 0)
(1.06016 0.00544474 0)
(1.06036 0.00519546 0)
(1.06056 0.00492693 0)
(1.06077 0.00463253 0)
(1.061 0.00431297 0)
(1.06125 0.00395919 0)
(1.06153 0.00357239 0)
(1.06184 0.00314455 0)
(1.06218 0.00267138 0)
(1.06257 0.00216015 0)
(1.06301 0.00158376 0)
(1.0635 0.00100163 0)
(1.06408 0.000349051 0)
(1.06474 -0.000206912 0)
(1.06566 -0.000675995 0)
(1.00162 0.016756 0)
(1.02005 0.0241892 0)
(1.03313 0.0191395 0)
(1.03732 0.0166132 0)
(1.0389 0.015706 0)
(1.04073 0.0145518 0)
(1.0425 0.0134177 0)
(1.04389 0.0125887 0)
(1.045 0.0119569 0)
(1.04597 0.0114133 0)
(1.04686 0.0109337 0)
(1.04769 0.0105135 0)
(1.04845 0.0101432 0)
(1.04916 0.00981206 0)
(1.04984 0.00951243 0)
(1.05048 0.00923886 0)
(1.05109 0.00898719 0)
(1.05168 0.00875397 0)
(1.05224 0.00853634 0)
(1.05279 0.00833182 0)
(1.05331 0.00813824 0)
(1.05382 0.00795363 0)
(1.05431 0.00777617 0)
(1.05478 0.00760414 0)
(1.05524 0.00743594 0)
(1.05569 0.00727003 0)
(1.05612 0.00710492 0)
(1.05655 0.00693915 0)
(1.05696 0.00677122 0)
(1.05736 0.00659964 0)
(1.05776 0.00642273 0)
(1.05816 0.0062389 0)
(1.05855 0.00604608 0)
(1.05894 0.00584263 0)
(1.05933 0.00562572 0)
(1.05973 0.00539384 0)
(1.06014 0.00514287 0)
(1.06056 0.00487175 0)
(1.06099 0.00457455 0)
(1.06144 0.00425073 0)
(1.06192 0.00389292 0)
(1.06241 0.00349989 0)
(1.06294 0.00306639 0)
(1.0635 0.00258521 0)
(1.0641 0.00206517 0)
(1.06474 0.00148122 0)
(1.06543 0.000882928 0)
(1.0662 0.00022676 0)
(1.06705 -0.00036648 0)
(1.06816 -0.000882559 0)
(1.00142 0.0152633 0)
(1.01812 0.0230643 0)
(1.0307 0.0186712 0)
(1.03505 0.0162102 0)
(1.03668 0.0154012 0)
(1.03846 0.014367 0)
(1.04023 0.0132763 0)
(1.04162 0.0124589 0)
(1.04273 0.0118408 0)
(1.04369 0.0113104 0)
(1.04457 0.0108396 0)
(1.04538 0.0104255 0)
(1.04613 0.0100598 0)
(1.04683 0.0097325 0)
(1.0475 0.009436 0)
(1.04813 0.00916497 0)
(1.04873 0.00891537 0)
(1.04931 0.00868386 0)
(1.04987 0.00846763 0)
(1.05041 0.00826429 0)
(1.05093 0.00807169 0)
(1.05145 0.00788789 0)
(1.05195 0.00771108 0)
(1.05244 0.00753956 0)
(1.05293 0.00737173 0)
(1.0534 0.00720603 0)
(1.05388 0.00704096 0)
(1.05434 0.00687505 0)
(1.05481 0.00670677 0)
(1.05528 0.00653461 0)
(1.05574 0.00635687 0)
(1.05621 0.00617193 0)
(1.05669 0.00597768 0)
(1.05717 0.00577241 0)
(1.05766 0.00555335 0)
(1.05816 0.00531877 0)
(1.05867 0.00506482 0)
(1.0592 0.00478991 0)
(1.05975 0.00448879 0)
(1.06032 0.00415987 0)
(1.06092 0.00379711 0)
(1.06154 0.00339749 0)
(1.06219 0.0029576 0)
(1.06287 0.00246864 0)
(1.06359 0.00193936 0)
(1.06435 0.00134803 0)
(1.06515 0.000734113 0)
(1.06604 7.05144e-05 0)
(1.06702 -0.000558957 0)
(1.06825 -0.00113106 0)
(1.00124 0.0138759 0)
(1.01633 0.0219432 0)
(1.02838 0.0182054 0)
(1.03288 0.0158136 0)
(1.03455 0.0150862 0)
(1.03629 0.0141721 0)
(1.03805 0.0131311 0)
(1.03944 0.0123266 0)
(1.04054 0.0117219 0)
(1.0415 0.0112052 0)
(1.04237 0.0107439 0)
(1.04316 0.0103361 0)
(1.0439 0.00997522 0)
(1.0446 0.00965191 0)
(1.04525 0.00935864 0)
(1.04587 0.00909021 0)
(1.04646 0.00884268 0)
(1.04703 0.00861282 0)
(1.04757 0.00839789 0)
(1.04811 0.00819554 0)
(1.04863 0.00800367 0)
(1.04913 0.00782035 0)
(1.04963 0.0076438 0)
(1.05012 0.00747232 0)
(1.05061 0.00730429 0)
(1.05109 0.00713817 0)
(1.05157 0.00697244 0)
(1.05205 0.00680562 0)
(1.05253 0.00663618 0)
(1.05301 0.00646257 0)
(1.0535 0.00628308 0)
(1.05399 0.00609607 0)
(1.0545 0.00589942 0)
(1.05501 0.00569135 0)
(1.05554 0.00546914 0)
(1.05608 0.00523091 0)
(1.05665 0.004973 0)
(1.05722 0.00469342 0)
(1.05783 0.00438749 0)
(1.05845 0.00405274 0)
(1.0591 0.00368419 0)
(1.05978 0.00327754 0)
(1.06049 0.00283048 0)
(1.06123 0.0023336 0)
(1.06201 0.00179452 0)
(1.06283 0.00119526 0)
(1.0637 0.000565786 0)
(1.06465 -0.000109387 0)
(1.0657 -0.000774922 0)
(1.06699 -0.00140892 0)
(1.00107 0.0125917 0)
(1.01467 0.0208297 0)
(1.02618 0.0177388 0)
(1.03079 0.0154243 0)
(1.03251 0.0147629 0)
(1.03422 0.0139669 0)
(1.03595 0.0129818 0)
(1.03735 0.012192 0)
(1.03845 0.0116002 0)
(1.0394 0.0110976 0)
(1.04025 0.0106464 0)
(1.04104 0.0102452 0)
(1.04177 0.00988938 0)
(1.04245 0.00957021 0)
(1.04309 0.00928031 0)
(1.0437 0.00901457 0)
(1.04428 0.00876918 0)
(1.04484 0.008541 0)
(1.04538 0.00832738 0)
(1.0459 0.008126 0)
(1.04641 0.0079348 0)
(1.04691 0.00775188 0)
(1.0474 0.00757545 0)
(1.04788 0.00740384 0)
(1.04836 0.00723541 0)
(1.04883 0.00706861 0)
(1.04931 0.00690192 0)
(1.04978 0.00673385 0)
(1.05026 0.00656284 0)
(1.05075 0.00638736 0)
(1.05124 0.00620566 0)
(1.05174 0.00601606 0)
(1.05225 0.00581648 0)
(1.05277 0.00560505 0)
(1.05331 0.00537913 0)
(1.05386 0.00513665 0)
(1.05443 0.00487418 0)
(1.05503 0.00458938 0)
(1.05565 0.00427801 0)
(1.05629 0.00393697 0)
(1.05696 0.003562 0)
(1.05765 0.003148 0)
(1.05838 0.00269314 0)
(1.05915 0.00218807 0)
(1.05995 0.00163873 0)
(1.06079 0.00103062 0)
(1.06168 0.000385439 0)
(1.06266 -0.000304979 0)
(1.06375 -0.00100701 0)
(1.06507 -0.00170628 0)
(1.00093 0.0114082 0)
(1.01315 0.019728 0)
(1.02408 0.0172683 0)
(1.02879 0.0150429 0)
(1.03057 0.0144334 0)
(1.03223 0.0137509 0)
(1.03395 0.0128276 0)
(1.03535 0.0120549 0)
(1.03645 0.0114758 0)
(1.03739 0.0109874 0)
(1.03823 0.010547 0)
(1.03901 0.0101528 0)
(1.03973 0.0098022 0)
(1.0404 0.00948731 0)
(1.04103 0.00920091 0)
(1.04163 0.00893797 0)
(1.0422 0.0086948 0)
(1.04275 0.00846838 0)
(1.04328 0.0082561 0)
(1.04379 0.00805572 0)
(1.04429 0.0078652 0)
(1.04478 0.00768267 0)
(1.04526 0.00750635 0)
(1.04573 0.00733455 0)
(1.0462 0.00716564 0)
(1.04667 0.00699808 0)
(1.04713 0.00683031 0)
(1.0476 0.00666083 0)
(1.04807 0.0064881 0)
(1.04855 0.00631053 0)
(1.04904 0.0061264 0)
(1.04953 0.00593399 0)
(1.05004 0.0057312 0)
(1.05055 0.00551613 0)
(1.05109 0.00528617 0)
(1.05164 0.00503915 0)
(1.05221 0.00477178 0)
(1.05281 0.00448144 0)
(1.05342 0.00416426 0)
(1.05407 0.00381667 0)
(1.05473 0.00343486 0)
(1.05543 0.00301331 0)
(1.05616 0.00255023 0)
(1.05693 0.00203672 0)
(1.05773 0.00147677 0)
(1.05857 0.00085887 0)
(1.05947 0.000197677 0)
(1.06046 -0.000511131 0)
(1.06155 -0.00125026 0)
(1.06288 -0.002016 0)
(1.0008 0.0103221 0)
(1.01175 0.0186422 0)
(1.0221 0.0167912 0)
(1.02687 0.0146696 0)
(1.02872 0.0140996 0)
(1.03034 0.0135241 0)
(1.03204 0.0126681 0)
(1.03344 0.0119153 0)
(1.03454 0.0113486 0)
(1.03547 0.0108745 0)
(1.03631 0.0104454 0)
(1.03708 0.0100587 0)
(1.03779 0.00971358 0)
(1.03845 0.00940313 0)
(1.03907 0.00912037 0)
(1.03966 0.00886034 0)
(1.04022 0.00861948 0)
(1.04076 0.00839487 0)
(1.04128 0.008184 0)
(1.04178 0.00798466 0)
(1.04227 0.00779485 0)
(1.04275 0.00761272 0)
(1.04322 0.00743651 0)
(1.04368 0.00726452 0)
(1.04414 0.00709512 0)
(1.0446 0.00692674 0)
(1.04506 0.00675785 0)
(1.04552 0.00658692 0)
(1.04598 0.00641237 0)
(1.04645 0.00623264 0)
(1.04693 0.00604597 0)
(1.04741 0.00585061 0)
(1.04791 0.00564449 0)
(1.04842 0.00542563 0)
(1.04895 0.00519148 0)
(1.04949 0.00493974 0)
(1.05006 0.00466729 0)
(1.05064 0.00437126 0)
(1.05125 0.00404806 0)
(1.05189 0.00369378 0)
(1.05255 0.0033049 0)
(1.05324 0.00287568 0)
(1.05396 0.00240412 0)
(1.05471 0.00188195 0)
(1.05551 0.0013112 0)
(1.05634 0.000682634 0)
(1.05723 4.99848e-06 0)
(1.05821 -0.000724677 0)
(1.0593 -0.00150131 0)
(1.06061 -0.00233303 0)
(1.00069 0.00932952 0)
(1.01047 0.0175765 0)
(1.02022 0.0163051 0)
(1.02504 0.0143045 0)
(1.02696 0.0137635 0)
(1.02855 0.0132867 0)
(1.03021 0.0125024 0)
(1.03161 0.0117731 0)
(1.03271 0.0112186 0)
(1.03364 0.0107588 0)
(1.03447 0.0103416 0)
(1.03523 0.00996289 0)
(1.03593 0.00962342 0)
(1.03658 0.00931757 0)
(1.0372 0.00903858 0)
(1.03778 0.00878159 0)
(1.03833 0.00854314 0)
(1.03886 0.00832042 0)
(1.03937 0.00811101 0)
(1.03986 0.00791275 0)
(1.04034 0.00772369 0)
(1.04081 0.00754198 0)
(1.04127 0.00736589 0)
(1.04173 0.00719371 0)
(1.04218 0.00702382 0)
(1.04263 0.00685462 0)
(1.04308 0.00668458 0)
(1.04353 0.00651215 0)
(1.04399 0.00633576 0)
(1.04445 0.0061538 0)
(1.04491 0.00596453 0)
(1.04539 0.00576616 0)
(1.04588 0.00555663 0)
(1.04638 0.00533389 0)
(1.0469 0.00509546 0)
(1.04744 0.00483892 0)
(1.04799 0.00456128 0)
(1.04857 0.0042595 0)
(1.04917 0.00393014 0)
(1.04979 0.00356913 0)
(1.05044 0.00317303 0)
(1.05112 0.0027361 0)
(1.05183 0.00225594 0)
(1.05257 0.00172489 0)
(1.05335 0.00114326 0)
(1.05417 0.000503196 0)
(1.05505 -0.00019115 0)
(1.05601 -0.000943477 0)
(1.05709 -0.00175778 0)
(1.05838 -0.00265368 0)
(1.0006 0.00842622 0)
(1.00931 0.0165348 0)
(1.01847 0.0158083 0)
(1.0233 0.0139471 0)
(1.02528 0.013427 0)
(1.02684 0.0130392 0)
(1.02847 0.0123302 0)
(1.02987 0.0116281 0)
(1.03098 0.011086 0)
(1.03189 0.0106402 0)
(1.03271 0.0102354 0)
(1.03347 0.00986515 0)
(1.03417 0.00953162 0)
(1.03481 0.00923052 0)
(1.03541 0.00895546 0)
(1.03599 0.00870163 0)
(1.03653 0.00846568 0)
(1.03705 0.00824493 0)
(1.03755 0.00803704 0)
(1.03804 0.00783992 0)
(1.03851 0.00765164 0)
(1.03897 0.00747039 0)
(1.03943 0.00729444 0)
(1.03987 0.00712208 0)
(1.04032 0.00695169 0)
(1.04076 0.00678167 0)
(1.0412 0.00661045 0)
(1.04164 0.00643651 0)
(1.04209 0.00625824 0)
(1.04254 0.00607403 0)
(1.043 0.00588211 0)
(1.04347 0.00568068 0)
(1.04395 0.00546768 0)
(1.04444 0.00524102 0)
(1.04495 0.00499824 0)
(1.04548 0.00473686 0)
(1.04602 0.00445395 0)
(1.04659 0.00414637 0)
(1.04718 0.00381079 0)
(1.04779 0.00344303 0)
(1.04842 0.00303965 0)
(1.04909 0.00259497 0)
(1.04978 0.00210618 0)
(1.05051 0.00156609 0)
(1.05127 0.000973536 0)
(1.05208 0.00032132 0)
(1.05294 -0.000389918 0)
(1.05389 -0.00116616 0)
(1.05495 -0.00201787 0)
(1.0562 -0.00297511 0)
(1.00051 0.0076074 0)
(1.00826 0.015521 0)
(1.01682 0.0152995 0)
(1.02164 0.0135968 0)
(1.02369 0.0130919 0)
(1.02523 0.0127822 0)
(1.02682 0.0121508 0)
(1.02822 0.0114801 0)
(1.02932 0.0109507 0)