/*--------------------------------*- C++ -*----------------------------------*\
  =========                 |
  \\      /  F ield         | OpenFOAM: The Open Source CFD Toolbox
   \\    /   O peration     | Website:  https://openfoam.org
    \\  /    A nd           | Version:  7
     \\/     M anipulation  |
\*---------------------------------------------------------------------------*/
FoamFile
{
    version     2.0;
    format      ascii;
    class       volVectorField;
    location    "0.32";
    object      U_0;
}
// * * * * * * * * * * * * * * * * * * * * * * * * * * * * * * * * * * * * * //

dimensions      [0 1 -1 0 0 0 0];

internalField   nonuniform List<vector> 
70000
(
(0.553416 0.016978 0)
(0.251435 0.00340015 0)
(0.165964 0.000318693 0)
(0.132504 4.87939e-05 0)
(0.117424 4.38436e-05 0)
(0.107494 5.19968e-05 0)
(0.0995517 4.41823e-05 0)
(0.0931387 3.50878e-05 0)
(0.0879265 2.90315e-05 0)
(0.0835902 2.48753e-05 0)
(0.079902 2.16944e-05 0)
(0.0767143 1.9139e-05 0)
(0.0739261 1.70485e-05 0)
(0.0714635 1.53141e-05 0)
(0.0692706 1.38545e-05 0)
(0.0673042 1.26096e-05 0)
(0.0655302 1.15351e-05 0)
(0.0639216 1.05971e-05 0)
(0.0624565 9.77005e-06 0)
(0.0611168 9.0335e-06 0)
(0.0598881 8.37133e-06 0)
(0.0587579 7.77021e-06 0)
(0.0577161 7.21913e-06 0)
(0.0567543 6.70882e-06 0)
(0.0558652 6.23126e-06 0)
(0.0550428 5.7797e-06 0)
(0.0542821 5.34762e-06 0)
(0.0535789 4.9304e-06 0)
(0.0529297 4.52127e-06 0)
(0.0523317 4.1186e-06 0)
(0.0517826 3.71276e-06 0)
(0.0512806 3.30728e-06 0)
(0.0508247 2.88595e-06 0)
(0.0504138 2.46088e-06 0)
(0.0500478 2.00626e-06 0)
(0.0497267 1.54288e-06 0)
(0.0494506 1.04426e-06 0)
(0.0492219 5.10453e-07 0)
(0.0490378 -1.30633e-08 0)
(0.0489092 -7.02256e-07 0)
(0.0488189 -1.14504e-06 0)
(0.0488062 -2.14059e-06 0)
(0.048804 -2.05675e-06 0)
(0.0489395 -4.15472e-06 0)
(0.0489913 -1.62649e-06 0)
(0.0493482 -7.53831e-06 0)
(0.0493291 3.27212e-06 0)
(0.050067 -1.54488e-05 0)
(0.0498031 4.07439e-05 0)
(0.0471656 -0.00184296 0)
(0.884864 0.0434923 0)
(0.650176 0.0201471 0)
(0.494053 0.00660224 0)
(0.403688 0.00275207 0)
(0.355039 0.00154501 0)
(0.323791 0.00112848 0)
(0.299964 0.000905868 0)
(0.280831 0.000741122 0)
(0.265195 0.000618281 0)
(0.252154 0.000527642 0)
(0.241056 0.000458769 0)
(0.231461 0.000404494 0)
(0.223062 0.000360558 0)
(0.215639 0.000324308 0)
(0.209023 0.000293941 0)
(0.203085 0.000268163 0)
(0.197722 0.000246023 0)
(0.192854 0.000226804 0)
(0.188415 0.000209956 0)
(0.184351 0.000195052 0)
(0.180617 0.000181751 0)
(0.177178 0.000169778 0)
(0.174001 0.000158907 0)
(0.171062 0.00014895 0)
(0.168338 0.00013975 0)
(0.165811 0.00013117 0)
(0.163466 0.000123092 0)
(0.16129 0.000115412 0)
(0.159272 0.000108032 0)
(0.157402 0.00010087 0)
(0.155674 9.38305e-05 0)
(0.154082 8.68539e-05 0)
(0.152621 7.98265e-05 0)
(0.151288 7.27259e-05 0)
(0.150082 6.53804e-05 0)
(0.149003 5.78451e-05 0)
(0.148049 4.98296e-05 0)
(0.147227 4.15321e-05 0)
(0.146529 3.24865e-05 0)
(0.145985 2.30562e-05 0)
(0.145549 1.27198e-05 0)
(0.145326 1.78043e-06 0)
(0.14514 -9.4541e-06 0)
(0.145331 -2.36897e-05 0)
(0.145321 -3.35735e-05 0)
(0.146131 -5.43305e-05 0)
(0.146024 -4.74498e-05 0)
(0.147872 -0.000117802 0)
(0.147333 0.000194349 0)
(0.146534 -0.00300922 0)
(0.991208 0.0499538 0)
(0.890948 0.0305585 0)
(0.76257 0.0146047 0)
(0.656687 0.00796395 0)
(0.585667 0.00487198 0)
(0.53639 0.0034662 0)
(0.498597 0.00272943 0)
(0.468071 0.00223472 0)
(0.442865 0.00187064 0)
(0.421667 0.00159867 0)
(0.40353 0.00139084 0)
(0.387786 0.00122707 0)
(0.373961 0.0010946 0)
(0.361706 0.000985347 0)
(0.350757 0.000893825 0)
(0.340907 0.000816143 0)
(0.331994 0.000749441 0)
(0.323888 0.000691566 0)
(0.316482 0.000640868 0)
(0.30969 0.00059606 0)
(0.30344 0.000556119 0)
(0.297671 0.00052022 0)
(0.292333 0.000487687 0)
(0.287384 0.00045796 0)
(0.282788 0.000430568 0)
(0.278514 0.000405107 0)
(0.274537 0.000381227 0)
(0.270835 0.000358621 0)
(0.26739 0.000337005 0)
(0.264185 0.000316131 0)
(0.261209 0.00029574 0)
(0.25845 0.000275634 0)
(0.255902 0.000255522 0)
(0.253558 0.000235286 0)
(0.251414 0.000214502 0)
(0.249469 0.000193249 0)
(0.24772 0.000170749 0)
(0.246177 0.000147582 0)
(0.244825 0.000122164 0)
(0.243709 9.62034e-05 0)
(0.242761 6.65538e-05 0)
(0.242134 3.70568e-05 0)
(0.241575 2.32e-06 0)
(0.241571 -3.24105e-05 0)
(0.241306 -7.24177e-05 0)
(0.24222 -0.000115622 0)
(0.241906 -0.000135891 0)
(0.244311 -0.000270866 0)
(0.243434 0.000112433 0)
(0.245493 -0.00307859 0)
(1.01554 0.0489514 0)
(1.00651 0.0357179 0)
(0.93595 0.0208096 0)
(0.85215 0.0134866 0)
(0.782468 0.00918445 0)
(0.727427 0.00676838 0)
(0.682456 0.00537098 0)
(0.64482 0.00442882 0)
(0.612937 0.0037334 0)
(0.585609 0.00320679 0)
(0.561898 0.00279979 0)
(0.541096 0.00247695 0)
(0.522676 0.00221474 0)
(0.506236 0.00199774 0)
(0.491463 0.00181546 0)
(0.478109 0.00166038 0)
(0.465973 0.00152697 0)
(0.454894 0.00141106 0)
(0.444739 0.00130941 0)
(0.435396 0.00121951 0)
(0.426773 0.00113936 0)
(0.418794 0.00106732 0)
(0.411391 0.00100207 0)
(0.404509 0.000942497 0)
(0.398102 0.00088768 0)
(0.392128 0.000836821 0)
(0.386553 0.000789232 0)
(0.381347 0.000744306 0)
(0.376485 0.000701494 0)
(0.371947 0.000660302 0)
(0.367714 0.000620243 0)
(0.363771 0.000580906 0)
(0.360108 0.000541766 0)
(0.356715 0.000502546 0)
(0.353586 0.000462491 0)
(0.350716 0.000421682 0)
(0.348103 0.000378681 0)
(0.345756 0.000334583 0)
(0.343657 0.000286186 0)
(0.341857 0.000237237 0)
(0.340277 0.000180349 0)
(0.339093 0.000125522 0)
(0.338018 5.6493e-05 0)
(0.337603 -3.89342e-06 0)
(0.336932 -8.87235e-05 0)
(0.337612 -0.000158483 0)
(0.337007 -0.000229933 0)
(0.339381 -0.000417372 0)
(0.338293 -7.56578e-05 0)
(0.341401 -0.00285417 0)
(1.01434 0.0460954 0)
(1.04799 0.0373333 0)
(1.02461 0.0241737 0)
(0.974787 0.0175406 0)
(0.923677 0.0130891 0)
(0.877055 0.0101829 0)
(0.835016 0.00832055 0)
(0.797408 0.00699597 0)
(0.764 0.00598361 0)
(0.734348 0.00519467 0)
(0.707935 0.00457137 0)
(0.68429 0.00406915 0)
(0.663015 0.00365649 0)
(0.643778 0.00331189 0)
(0.626304 0.00302028 0)
(0.610365 0.00277069 0)
(0.595768 0.00255489 0)
(0.582353 0.0023666 0)
(0.569983 0.00220091 0)
(0.558544 0.00205397 0)
(0.547937 0.00192265 0)
(0.538079 0.00180443 0)
(0.528897 0.00169721 0)
(0.52033 0.00159927 0)
(0.512324 0.00150913 0)
(0.504834 0.00142552 0)
(0.49782 0.00134735 0)
(0.491247 0.00127366 0)
(0.485087 0.00120357 0)
(0.479314 0.00113629 0)
(0.473908 0.00107106 0)
(0.468849 0.0010072 0)
(0.464125 0.000943909 0)
(0.459723 0.000880708 0)
(0.455635 0.000816462 0)
(0.451855 0.000751219 0)
(0.44838 0.000682798 0)
(0.445214 0.000612844 0)
(0.442344 0.000536316 0)
(0.439815 0.000459236 0)
(0.437553 0.000369432 0)
(0.435729 0.000283804 0)
(0.434062 0.000173937 0)
(0.433092 8.08928e-05 0)
(0.431936 -5.46782e-05 0)
(0.432129 -0.0001595 0)
(0.431207 -0.000291473 0)
(0.433064 -0.000534062 0)
(0.431992 -0.000258444 0)
(0.43465 -0.00263493 0)
(1.00941 0.0430448 0)
(1.05565 0.0370875 0)
(1.0587 0.0253126 0)
(1.03638 0.0197414 0)
(1.00728 0.0157713 0)
(0.976354 0.0129032 0)
(0.94494 0.0109281 0)
(0.914207 0.00944178 0)
(0.885007 0.00824788 0)
(0.857717 0.00727789 0)
(0.832411 0.00648599 0)
(0.809025 0.00583154 0)
(0.787437 0.00528299 0)
(0.767505 0.00481753 0)
(0.749082 0.00441845 0)
(0.732028 0.00407312 0)
(0.716215 0.0037718 0)
(0.701525 0.00350685 0)
(0.687852 0.00327218 0)
(0.675103 0.00306289 0)
(0.663194 0.00287496 0)
(0.652053 0.0027051 0)
(0.641615 0.00255055 0)
(0.631822 0.00240899 0)
(0.622625 0.00227843 0)
(0.613979 0.00215716 0)
(0.605845 0.00204369 0)
(0.598191 0.00193667 0)
(0.590986 0.00183492 0)
(0.584204 0.00173732 0)
(0.577824 0.00164282 0)
(0.571827 0.00155046 0)
(0.566199 0.00145916 0)
(0.560926 0.00136819 0)
(0.556 0.00127604 0)
(0.551413 0.00118267 0)
(0.547161 0.00108517 0)
(0.543249 0.000985639 0)
(0.539663 0.000877293 0)
(0.536443 0.000768169 0)
(0.533526 0.000641719 0)
(0.53106 0.0005208 0)
(0.528806 0.000366693 0)
(0.52723 0.000234358 0)
(0.525579 4.52305e-05 0)
(0.525152 -0.000103626 0)
(0.523919 -0.000294444 0)
(0.524996 -0.000604063 0)
(0.523992 -0.000401313 0)
(0.525736 -0.00240311 0)
(1.00635 0.0401766 0)
(1.05242 0.03614 0)
(1.06608 0.0252343 0)
(1.05959 0.0205432 0)
(1.04701 0.0171937 0)
(1.03103 0.0146151 0)
(1.01222 0.012779 0)
(0.991654 0.0113483 0)
(0.970383 0.0101466 0)
(0.949135 0.00912746 0)
(0.92835 0.00826429 0)
(0.908288 0.00752861 0)
(0.889094 0.00689577 0)
(0.870837 0.00634689 0)
(0.853534 0.00586746 0)
(0.837174 0.005446 0)
(0.821724 0.00507324 0)
(0.807144 0.00474163 0)
(0.793385 0.00444493 0)
(0.7804 0.00417798 0)
(0.768142 0.00393646 0)
(0.756563 0.00371669 0)
(0.745621 0.00351558 0)
(0.735276 0.00333045 0)
(0.72549 0.00315898 0)
(0.716231 0.00299914 0)
(0.707468 0.00284914 0)
(0.699172 0.00270735 0)
(0.691322 0.00257231 0)
(0.683893 0.00244264 0)
(0.676869 0.00231702 0)
(0.670233 0.00219426 0)
(0.663971 0.00207297 0)
(0.658073 0.00195222 0)
(0.65253 0.00183011 0)
(0.647336 0.00170652 0)
(0.642489 0.00157785 0)
(0.63799 0.00144653 0)
(0.633831 0.00130429 0)
(0.630044 0.00116063 0)
(0.62658 0.000995643 0)
(0.62356 0.000836269 0)
(0.620796 0.000636754 0)
(0.618659 0.000460506 0)
(0.616565 0.000217453 0)
(0.615516 1.58233e-05 0)
(0.613992 -0.000228075 0)
(0.61426 -0.000611496 0)
(0.61323 -0.000485751 0)
(0.614113 -0.00213428 0)
(1.00506 0.0374991 0)
(1.04763 0.0350409 0)
(1.06398 0.0246855 0)
(1.06424 0.0205721 0)
(1.06079 0.0177286 0)
(1.05494 0.0154513 0)
(1.04625 0.0138289 0)
(1.03515 0.0125618 0)
(1.02236 0.0114693 0)
(1.00846 0.0105117 0)
(0.993933 0.00967483 0)
(0.979111 0.00894059 0)
(0.964264 0.00829192 0)
(0.949581 0.00771559 0)
(0.9352 0.00720123 0)
(0.921212 0.00674038 0)
(0.907674 0.00632585 0)
(0.894622 0.00595153 0)
(0.882074 0.00561216 0)
(0.870034 0.0053032 0)
(0.8585 0.00502072 0)
(0.847461 0.00476128 0)
(0.836907 0.00452187 0)
(0.826821 0.00429983 0)
(0.817189 0.00409282 0)
(0.807994 0.00389871 0)
(0.799221 0.00371561 0)
(0.790854 0.00354176 0)
(0.782879 0.00337555 0)
(0.775283 0.00321543 0)
(0.768056 0.00305992 0)
(0.761185 0.00290763 0)
(0.754664 0.00275697 0)
(0.748483 0.0026068 0)
(0.742642 0.00245493 0)
(0.737133 0.0023011 0)
(0.731958 0.0021412 0)
(0.727118 0.00197774 0)
(0.722612 0.00180144 0)
(0.718462 0.00162252 0)
(0.714638 0.00141905 0)
(0.71123 0.00121976 0)
(0.708105 0.000975812 0)
(0.705537 0.000752507 0)
(0.70311 0.000459496 0)
(0.701543 0.000197282 0)
(0.699775 -9.55089e-05 0)
(0.699356 -0.000549411 0)
(0.69822 -0.000508093 0)
(0.698411 -0.00183594 0)
(1.00451 0.0349629 0)
(1.0436 0.0339602 0)
(1.05996 0.0240334 0)
(1.06228 0.020281 0)
(1.0626 0.0177909 0)
(1.06198 0.0157271 0)
(1.05946 0.0142773 0)
(1.05498 0.0131744 0)
(1.04886 0.0122225 0)
(1.04141 0.0113753 0)
(1.0329 0.0106213 0)
(1.02358 0.00994646 0)
(1.0137 0.00933768 0)
(1.00343 0.00878529 0)
(0.992954 0.00828223 0)
(0.982387 0.00782283 0)
(0.971837 0.00740226 0)
(0.961384 0.00701625 0)
(0.951089 0.00666103 0)
(0.940997 0.00633319 0)
(0.931144 0.00602967 0)
(0.921552 0.0057477 0)
(0.912239 0.00548475 0)
(0.903215 0.00523853 0)
(0.894488 0.00500694 0)
(0.886061 0.00478804 0)
(0.877936 0.00458003 0)
(0.870111 0.00438121 0)
(0.862587 0.00418997 0)
(0.855359 0.00400476 0)
(0.848428 0.00382401 0)
(0.841791 0.00364626 0)
(0.835446 0.00346978 0)
(0.829393 0.00329332 0)
(0.823632 0.00311447 0)
(0.818164 0.00293283 0)
(0.812992 0.00274394 0)
(0.808122 0.00255024 0)
(0.803554 0.00234186 0)
(0.79931 0.00212905 0)
(0.795371 0.00188916 0)
(0.791805 0.00165062 0)
(0.788524 0.00136508 0)
(0.785725 0.00109406 0)
(0.783124 0.000755613 0)
(0.781218 0.000431153 0)
(0.779301 9.10611e-05 0)
(0.778387 -0.000424167 0)
(0.777146 -0.000471696 0)
(0.77684 -0.00152527 0)
(1.00412 0.0325321 0)
(1.04027 0.032906 0)
(1.05619 0.0233976 0)
(1.05892 0.0198948 0)
(1.06033 0.0176597 0)
(1.06174 0.0157268 0)
(1.06216 0.0143774 0)
(1.06133 0.0133886 0)
(1.05934 0.0125512 0)
(1.05631 0.0118081 0)
(1.05233 0.0111456 0)
(1.04751 0.0105492 0)
(1.04198 0.0100057 0)
(1.03585 0.00950633 0)
(1.02925 0.00904497 0)
(1.02229 0.00861732 0)
(1.01507 0.00821989 0)
(1.00766 0.00784973 0)
(1.00013 0.00750422 0)
(0.99256 0.00718099 0)
(0.984986 0.00687785 0)
(0.977454 0.00659276 0)
(0.969998 0.00632381 0)
(0.962647 0.0060692 0)
(0.955423 0.00582725 0)
(0.948347 0.00559633 0)
(0.941432 0.00537489 0)
(0.934693 0.00516143 0)
(0.928139 0.00495448 0)
(0.921779 0.00475254 0)
(0.91562 0.00455414 0)
(0.909669 0.00435778 0)
(0.903933 0.00416173 0)
(0.898416 0.00396467 0)
(0.893125 0.00376406 0)
(0.888067 0.00355941 0)
(0.883248 0.00334603 0)
(0.878677 0.0031262 0)
(0.87436 0.00288982 0)
(0.870316 0.00264666 0)
(0.866538 0.00237438 0)
(0.863077 0.0020995 0)
(0.859879 0.0017768 0)
(0.857083 0.00146038 0)
(0.854504 0.00108123 0)
(0.852476 0.000698007 0)
(0.850551 0.000312688 0)
(0.849362 -0.000252814 0)
(0.848089 -0.000389041 0)
(0.847495 -0.00122152 0)
(1.00374 0.0301975 0)
(1.03728 0.0318561 0)
(1.05286 0.0227928 0)
(1.05568 0.0194909 0)
(1.05724 0.0174671 0)
(1.0592 0.0156224 0)
(1.06069 0.01432 0)
(1.06143 0.0133937 0)
(1.0615 0.0126286 0)
(1.06093 0.0119584 0)
(1.05971 0.0113666 0)
(1.05787 0.0108378 0)
(1.05544 0.0103571 0)
(1.05246 0.00991468 0)
(1.04899 0.00950389 0)
(1.04509 0.00912033 0)
(1.04083 0.0087607 0)
(1.03627 0.00842238 0)
(1.03145 0.00810322 0)
(1.02643 0.00780135 0)
(1.02126 0.00751507 0)
(1.01598 0.00724283 0)
(1.01062 0.00698317 0)
(1.00522 0.00673467 0)
(0.999817 0.00649602 0)
(0.994423 0.00626588 0)
(0.989067 0.00604299 0)
(0.983768 0.00582603 0)
(0.978543 0.00561374 0)
(0.973409 0.00540475 0)
(0.968379 0.00519766 0)
(0.963466 0.00499107 0)
(0.958682 0.00478326 0)
(0.954038 0.00457289 0)
(0.949546 0.00435739 0)
(0.945215 0.00413618 0)
(0.941057 0.00390448 0)
(0.937082 0.00366433 0)
(0.933301 0.00340568 0)
(0.929733 0.00313748 0)
(0.926377 0.00283844 0)
(0.923276 0.00253209 0)
(0.920396 0.0021781 0)
(0.917836 0.00182095 0)
(0.915485 0.0014069 0)
(0.913557 0.00097118 0)
(0.911784 0.00054391 0)
(0.910543 -6.18065e-05 0)
(0.909353 -0.000280732 0)
(0.908677 -0.000945767 0)
(1.00337 0.0279616 0)
(1.03444 0.030798 0)
(1.04975 0.022213 0)
(1.05272 0.0190842 0)
(1.05423 0.017256 0)
(1.05626 0.0154889 0)
(1.05801 0.014208 0)
(1.05928 0.0133118 0)
(1.06015 0.0125863 0)
(1.06068 0.0119582 0)
(1.06085 0.0114102 0)
(1.06064 0.0109266 0)
(1.06003 0.0104918 0)
(1.05904 0.0100943 0)
(1.05768 0.00972685 0)
(1.05596 0.00938417 0)
(1.05391 0.00906249 0)
(1.05156 0.00875892 0)
(1.04895 0.00847117 0)
(1.04609 0.00819733 0)
(1.04303 0.00793578 0)
(1.03979 0.00768508 0)
(1.0364 0.00744391 0)
(1.03289 0.00721102 0)
(1.02928 0.00698526 0)
(1.02561 0.00676546 0)
(1.02188 0.00655052 0)
(1.01813 0.00633928 0)
(1.01436 0.00613056 0)
(1.0106 0.00592314 0)
(1.00687 0.0057157 0)
(1.00318 0.00550687 0)
(0.999537 0.00529498 0)
(0.995965 0.0050787 0)
(0.992475 0.00485545 0)
(0.989079 0.00462457 0)
(0.985789 0.00438126 0)
(0.982621 0.00412728 0)
(0.979584 0.00385285 0)
(0.976698 0.00356581 0)
(0.973967 0.00324652 0)
(0.971425 0.0029148 0)
(0.969055 0.00253621 0)
(0.966927 0.00214472 0)
(0.964978 0.00170217 0)
(0.963341 0.00122244 0)
(0.96187 0.000757579 0)
(0.960776 0.000124359 0)
(0.959793 -0.000171494 0)
(0.959219 -0.000718675 0)
(1.00301 0.0258281 0)
(1.03172 0.0297278 0)
(1.04676 0.0216543 0)
(1.04993 0.0186745 0)
(1.05142 0.017033 0)
(1.0534 0.0153483 0)
(1.05519 0.0140823 0)
(1.05657 0.0132015 0)
(1.05768 0.0124983 0)
(1.0586 0.0118929 0)
(1.05932 0.0113684 0)
(1.05984 0.0109104 0)
(1.06013 0.010503 0)
(1.06019 0.0101345 0)
(1.06002 0.00979669 0)
(1.05961 0.00948382 0)
(1.05896 0.00919159 0)
(1.05809 0.00891666 0)
(1.057 0.00865636 0)
(1.05571 0.00840854 0)
(1.05423 0.00817137 0)
(1.05257 0.00794325 0)
(1.05075 0.00772278 0)
(1.0488 0.00750867 0)
(1.04672 0.00729972 0)
(1.04454 0.00709479 0)
(1.04227 0.00689279 0)
(1.03992 0.00669257 0)
(1.03752 0.00649301 0)
(1.03508 0.00629289 0)
(1.03261 0.00609092 0)
(1.03013 0.00588576 0)
(1.02764 0.00567571 0)
(1.02518 0.00545948 0)
(1.02274 0.0052344 0)
(1.02034 0.00499978 0)
(1.018 0.00475083 0)
(1.01572 0.00448895 0)
(1.01353 0.00420481 0)
(1.01142 0.00390496 0)
(1.00942 0.00357176 0)
(1.00756 0.00322096 0)
(1.00581 0.00282439 0)
(1.00424 0.00240568 0)
(1.00281 0.00194096 0)
(1.00159 0.00142664 0)
(1.00053 0.000929206 0)
(0.999733 0.000281516 0)
(0.999058 -8.4955e-05 0)
(0.998727 -0.000557965 0)
(1.00268 0.0237993 0)
(1.02912 0.0286437 0)
(1.04385 0.0211163 0)
(1.04723 0.0182616 0)
(1.04873 0.0167965 0)
(1.05068 0.0152032 0)
(1.05246 0.0139536 0)
(1.05385 0.0130837 0)
(1.05499 0.0123962 0)
(1.056 0.0118049 0)
(1.0569 0.0112931 0)
(1.05768 0.0108484 0)
(1.05833 0.0104557 0)
(1.05886 0.0101032 0)
(1.05925 0.00978267 0)
(1.0595 0.00948802 0)
(1.05961 0.00921472 0)
(1.05958 0.00895914 0)
(1.0594 0.00871835 0)
(1.05907 0.0084899 0)
(1.05861 0.00827175 0)
(1.05802 0.00806209 0)
(1.0573 0.00785934 0)
(1.05646 0.00766204 0)
(1.0555 0.00746889 0)
(1.05445 0.00727862 0)
(1.05331 0.00709007 0)
(1.05209 0.00690203 0)
(1.0508 0.0067133 0)
(1.04945 0.00652266 0)
(1.04805 0.00632872 0)
(1.04661 0.00613014 0)
(1.04515 0.00592516 0)
(1.04368 0.00571243 0)
(1.0422 0.00548926 0)
(1.04073 0.00525484 0)
(1.03927 0.00500443 0)
(1.03785 0.00473901 0)
(1.03647 0.00444985 0)
(1.03514 0.00414201 0)
(1.03388 0.0038001 0)
(1.0327 0.00343571 0)
(1.0316 0.00302679 0)
(1.03062 0.00258759 0)
(1.02974 0.00210618 0)
(1.02901 0.00156642 0)
(1.02841 0.00104124 0)
(1.02798 0.000386908 0)
(1.02768 -3.99978e-05 0)
(1.02767 -0.000475896 0)
(1.00238 0.0218771 0)
(1.02665 0.027545 0)
(1.04102 0.0205987 0)
(1.04463 0.0178472 0)
(1.04614 0.0165453 0)
(1.04806 0.0150521 0)
(1.04984 0.0138234 0)
(1.05122 0.0129634 0)
(1.05236 0.0122899 0)
(1.05337 0.0117102 0)
(1.0543 0.0112069 0)
(1.05514 0.0107698 0)
(1.0559 0.0103851 0)
(1.05659 0.0100412 0)
(1.0572 0.00972979 0)
(1.05774 0.00944503 0)
(1.05819 0.00918232 0)
(1.05856 0.00893798 0)
(1.05884 0.00870894 0)
(1.05904 0.00849264 0)
(1.05915 0.0082869 0)
(1.05917 0.00808975 0)
(1.05911 0.00789945 0)
(1.05897 0.00771443 0)
(1.05874 0.00753322 0)
(1.05844 0.00735445 0)
(1.05807 0.00717682 0)
(1.05763 0.00699903 0)
(1.05713 0.0068198 0)
(1.05658 0.00663778 0)
(1.05598 0.00645155 0)
(1.05535 0.00625967 0)
(1.05468 0.00606029 0)
(1.05399 0.00585201 0)
(1.05328 0.00563206 0)
(1.05257 0.00539948 0)
(1.05186 0.00514964 0)
(1.05115 0.00488303 0)
(1.05047 0.00459157 0)
(1.04982 0.00427883 0)
(1.0492 0.00393165 0)
(1.04864 0.00355769 0)
(1.04813 0.00314044 0)
(1.0477 0.0026862 0)
(1.04734 0.00219221 0)
(1.04708 0.00163466 0)
(1.04691 0.0010862 0)
(1.04688 0.000429986 0)
(1.04694 -4.84357e-05 0)
(1.04728 -0.000477241 0)
(1.0021 0.0200624 0)
(1.02431 0.0264336 0)
(1.03829 0.0200992 0)
(1.0421 0.0174332 0)
(1.04363 0.0162793 0)
(1.04553 0.0148937 0)
(1.04731 0.0136909 0)
(1.04869 0.012841 0)
(1.04981 0.0121813 0)
(1.05081 0.011613 0)
(1.05173 0.0111173 0)
(1.05258 0.0106861 0)
(1.05336 0.0103067 0)
(1.05409 0.00996788 0)
(1.05476 0.0096616 0)
(1.05539 0.00938213 0)
(1.05597 0.009125 0)
(1.0565 0.00888658 0)
(1.05698 0.00866384 0)
(1.05742 0.0084542 0)
(1.0578 0.00825543 0)
(1.05813 0.00806551 0)
(1.05842 0.00788263 0)
(1.05865 0.00770511 0)
(1.05883 0.00753142 0)
(1.05896 0.00736007 0)
(1.05905 0.00718968 0)
(1.05909 0.00701885 0)
(1.0591 0.00684621 0)
(1.05906 0.00667034 0)
(1.05899 0.00648971 0)
(1.0589 0.00630282 0)
(1.05878 0.00610772 0)
(1.05864 0.00590292 0)
(1.05848 0.00568561 0)
(1.05832 0.00545465 0)
(1.05816 0.00520555 0)
(1.058 0.00493825 0)
(1.05785 0.0046454 0)
(1.05772 0.00432908 0)
(1.05761 0.00397825 0)
(1.05754 0.00359706 0)
(1.05751 0.0031737 0)
(1.05752 0.00270823 0)
(1.05759 0.0022042 0)
(1.05773 0.00163431 0)
(1.05794 0.00106615 0)
(1.05825 0.000409659 0)
(1.05865 -0.000113334 0)
(1.05931 -0.000558226 0)
(1.00185 0.0183554 0)
(1.02211 0.0253136 0)
(1.03566 0.0196142 0)
(1.03967 0.0170213 0)
(1.04122 0.0159992 0)
(1.04308 0.0147272 0)
(1.04486 0.0135558 0)
(1.04625 0.0127161 0)
(1.04736 0.0120704 0)
(1.04835 0.0115142 0)
(1.04925 0.0110262 0)
(1.05009 0.0106005 0)
(1.05086 0.0102257 0)
(1.05159 0.00989084 0)
(1.05227 0.00958811 0)
(1.05292 0.00931194 0)
(1.05353 0.00905801 0)
(1.05411 0.00882278 0)
(1.05466 0.00860329 0)
(1.05518 0.00839702 0)
(1.05567 0.00820176 0)
(1.05614 0.00801549 0)
(1.05657 0.00783639 0)
(1.05698 0.00766275 0)
(1.05736 0.00749297 0)
(1.05771 0.00732554 0)
(1.05804 0.007159 0)
(1.05834 0.00699192 0)
(1.05862 0.00682283 0)
(1.05888 0.00665027 0)
(1.05912 0.00647263 0)
(1.05935 0.00628835 0)
(1.05956 0.00609541 0)
(1.05977 0.00589223 0)
(1.05996 0.00567598 0)
(1.06016 0.00544533 0)
(1.06035 0.00519595 0)
(1.06056 0.00492725 0)
(1.06077 0.00463261 0)
(1.061 0.00431271 0)
(1.06125 0.00395845 0)
(1.06153 0.00357097 0)
(1.06184 0.00314221 0)
(1.06218 0.00266772 0)
(1.06257 0.00215473 0)
(1.06301 0.0015758 0)
(1.06351 0.000990199 0)
(1.06409 0.000332695 0)
(1.06475 -0.000230075 0)
(1.06567 -0.000708666 0)
(1.00162 0.016756 0)
(1.02005 0.0241891 0)
(1.03313 0.0191395 0)
(1.03732 0.0166131 0)
(1.0389 0.015706 0)
(1.04073 0.0145518 0)
(1.0425 0.0134177 0)
(1.04389 0.0125887 0)
(1.045 0.0119569 0)
(1.04597 0.0114134 0)
(1.04686 0.0109338 0)
(1.04769 0.0105137 0)
(1.04845 0.0101434 0)
(1.04916 0.00981231 0)
(1.04984 0.00951273 0)
(1.05048 0.00923921 0)
(1.05109 0.00898758 0)
(1.05168 0.0087544 0)
(1.05224 0.00853681 0)
(1.05279 0.00833234 0)
(1.05331 0.0081388 0)
(1.05382 0.00795423 0)
(1.05431 0.0077768 0)
(1.05478 0.0076048 0)
(1.05524 0.00743662 0)
(1.05569 0.00727073 0)
(1.05612 0.00710564 0)
(1.05654 0.00693988 0)
(1.05696 0.00677196 0)
(1.05736 0.00660039 0)
(1.05776 0.00642347 0)
(1.05816 0.00623964 0)
(1.05855 0.0060468 0)
(1.05894 0.00584332 0)
(1.05933 0.00562636 0)
(1.05973 0.0053944 0)
(1.06014 0.00514331 0)
(1.06056 0.00487201 0)
(1.06099 0.00457456 0)
(1.06144 0.00425039 0)
(1.06192 0.00389208 0)
(1.06241 0.00349834 0)
(1.06294 0.0030639 0)
(1.0635 0.00258137 0)
(1.0641 0.00205952 0)
(1.06474 0.00147301 0)
(1.06543 0.000871216 0)
(1.0662 0.000210142 0)
(1.06706 -0.000389809 0)
(1.06817 -0.000915096 0)
(1.00142 0.0152633 0)
(1.01812 0.0230643 0)
(1.0307 0.0186711 0)
(1.03505 0.0162102 0)
(1.03668 0.0154011 0)
(1.03846 0.0143669 0)
(1.04023 0.0132763 0)
(1.04162 0.0124589 0)
(1.04273 0.0118408 0)
(1.04369 0.0113104 0)
(1.04457 0.0108397 0)
(1.04538 0.0104256 0)
(1.04613 0.01006 0)
(1.04683 0.00973276 0)
(1.0475 0.00943631 0)
(1.04813 0.00916533 0)
(1.04873 0.00891577 0)
(1.04931 0.00868431 0)
(1.04987 0.00846813 0)
(1.05041 0.00826483 0)
(1.05093 0.00807227 0)
(1.05145 0.00788851 0)
(1.05195 0.00771173 0)
(1.05244 0.00754024 0)
(1.05293 0.00737243 0)
(1.0534 0.00720675 0)
(1.05387 0.0070417 0)
(1.05434 0.00687579 0)
(1.05481 0.00670752 0)
(1.05527 0.00653537 0)
(1.05574 0.00635762 0)
(1.05621 0.00617267 0)
(1.05668 0.00597839 0)
(1.05716 0.00577309 0)
(1.05765 0.00555396 0)
(1.05816 0.0053193 0)
(1.05867 0.00506521 0)
(1.0592 0.00479011 0)
(1.05975 0.00448873 0)
(1.06032 0.00415944 0)
(1.06092 0.00379616 0)
(1.06154 0.00339581 0)
(1.06219 0.00295495 0)
(1.06287 0.00246462 0)
(1.06359 0.0019335 0)
(1.06435 0.00133958 0)
(1.06516 0.000722165 0)
(1.06605 5.36953e-05 0)
(1.06703 -0.00058234 0)
(1.06826 -0.00116331 0)
(1.00124 0.0138758 0)
(1.01633 0.0219431 0)
(1.02838 0.0182053 0)
(1.03288 0.0158136 0)
(1.03455 0.0150861 0)
(1.03629 0.0141721 0)
(1.03805 0.0131311 0)
(1.03944 0.0123266 0)
(1.04054 0.0117219 0)
(1.0415 0.0112052 0)
(1.04237 0.010744 0)
(1.04317 0.0103362 0)
(1.04391 0.00997542 0)
(1.0446 0.00965218 0)
(1.04525 0.00935896 0)
(1.04587 0.00909058 0)
(1.04646 0.0088431 0)
(1.04703 0.00861329 0)
(1.04757 0.00839841 0)
(1.04811 0.0081961 0)
(1.04863 0.00800427 0)
(1.04913 0.00782099 0)
(1.04963 0.00764448 0)
(1.05012 0.00747302 0)
(1.05061 0.00730502 0)
(1.05109 0.00713892 0)
(1.05157 0.0069732 0)
(1.05204 0.00680639 0)
(1.05253 0.00663694 0)
(1.05301 0.00646333 0)
(1.0535 0.00628384 0)
(1.05399 0.0060968 0)
(1.0545 0.00590012 0)
(1.05501 0.00569201 0)
(1.05554 0.00546973 0)
(1.05608 0.00523139 0)
(1.05664 0.00497334 0)
(1.05722 0.00469356 0)
(1.05783 0.00438735 0)
(1.05845 0.00405222 0)
(1.0591 0.00368313 0)
(1.05978 0.00327574 0)
(1.06049 0.00282769 0)
(1.06123 0.00232941 0)
(1.06201 0.00178846 0)
(1.06283 0.00118661 0)
(1.0637 0.000553646 0)
(1.06465 -0.000126337 0)
(1.0657 -0.000798252 0)
(1.067 -0.00144074 0)
(1.00107 0.0125917 0)
(1.01467 0.0208296 0)
(1.02618 0.0177387 0)
(1.03079 0.0154243 0)
(1.03251 0.0147629 0)
(1.03422 0.0139668 0)
(1.03596 0.0129817 0)
(1.03736 0.0121919 0)
(1.03845 0.0116002 0)
(1.0394 0.0110976 0)
(1.04025 0.0106465 0)
(1.04104 0.0102453 0)
(1.04177 0.00988959 0)
(1.04245 0.00957048 0)
(1.04309 0.00928064 0)
(1.0437 0.00901495 0)
(1.04428 0.00876961 0)
(1.04484 0.00854149 0)
(1.04538 0.00832792 0)
(1.0459 0.00812659 0)
(1.04641 0.00793543 0)
(1.04691 0.00775255 0)
(1.0474 0.00757616 0)
(1.04788 0.00740457 0)
(1.04836 0.00723616 0)
(1.04883 0.00706938 0)
(1.04931 0.0069027 0)
(1.04978 0.00673463 0)
(1.05026 0.00656362 0)
(1.05074 0.00638813 0)
(1.05123 0.00620641 0)
(1.05173 0.00601679 0)
(1.05224 0.00581717 0)
(1.05277 0.00560569 0)
(1.0533 0.00537968 0)
(1.05386 0.0051371 0)
(1.05443 0.00487447 0)
(1.05503 0.00458946 0)
(1.05564 0.0042778 0)
(1.05629 0.00393636 0)
(1.05696 0.00356084 0)
(1.05766 0.00314608 0)
(1.05839 0.0026902 0)
(1.05915 0.00218373 0)
(1.05995 0.0016325 0)
(1.0608 0.0010218 0)
(1.06169 0.000373157 0)
(1.06267 -0.00032198 0)
(1.06375 -0.00103019 0)
(1.06507 -0.00173756 0)
(1.00093 0.0114082 0)
(1.01315 0.0197279 0)
(1.02408 0.0172682 0)
(1.02879 0.0150428 0)
(1.03057 0.0144333 0)
(1.03223 0.0137508 0)
(1.03395 0.0128276 0)
(1.03535 0.0120548 0)
(1.03645 0.0114757 0)
(1.03739 0.0109874 0)
(1.03823 0.010547 0)
(1.03901 0.0101529 0)
(1.03973 0.00980241 0)
(1.0404 0.00948759 0)
(1.04104 0.00920125 0)
(1.04163 0.00893837 0)
(1.0422 0.00869525 0)
(1.04275 0.00846888 0)
(1.04328 0.00825666 0)
(1.04379 0.00805633 0)
(1.04429 0.00786586 0)
(1.04478 0.00768337 0)
(1.04526 0.00750708 0)
(1.04573 0.00733531 0)
(1.0462 0.00716643 0)
(1.04667 0.00699887 0)
(1.04713 0.00683111 0)
(1.0476 0.00666164 0)
(1.04807 0.00648889 0)
(1.04855 0.00631132 0)
(1.04903 0.00612716 0)
(1.04953 0.00593472 0)
(1.05003 0.00573188 0)
(1.05055 0.00551675 0)
(1.05109 0.0052867 0)
(1.05164 0.00503955 0)
(1.05221 0.00477202 0)
(1.05281 0.00448146 0)
(1.05342 0.00416398 0)
(1.05407 0.00381597 0)
(1.05474 0.0034336 0)
(1.05543 0.00301127 0)
(1.05616 0.00254716 0)
(1.05693 0.00203223 0)
(1.05773 0.00147039 0)
(1.05858 0.000849915 0)
(1.05948 0.0001853 0)
(1.06046 -0.000528119 0)
(1.06155 -0.0012732 0)
(1.06288 -0.00204664 0)
(1.0008 0.010322 0)
(1.01175 0.0186422 0)
(1.0221 0.0167911 0)
(1.02687 0.0146696 0)
(1.02872 0.0140995 0)
(1.03034 0.013524 0)
(1.03204 0.012668 0)
(1.03344 0.0119152 0)
(1.03454 0.0113485 0)
(1.03547 0.0108745 0)
(1.03631 0.0104455 0)
(1.03708 0.0100589 0)
(1.03779 0.00971379 0)
(1.03845 0.00940341 0)
(1.03907 0.00912072 0)
(1.03966 0.00886075 0)
(1.04022 0.00861995 0)
(1.04076 0.0083954 0)
(1.04128 0.00818458 0)
(1.04178 0.0079853 0)
(1.04227 0.00779554 0)
(1.04275 0.00761345 0)
(1.04322 0.00743727 0)
(1.04368 0.00726531 0)
(1.04414 0.00709593 0)
(1.0446 0.00692757 0)
(1.04506 0.00675867 0)
(1.04552 0.00658774 0)
(1.04598 0.00641318 0)
(1.04645 0.00623343 0)
(1.04692 0.00604673 0)
(1.04741 0.00585133 0)
(1.04791 0.00564516 0)
(1.04842 0.00542623 0)
(1.04895 0.00519198 0)
(1.04949 0.00494011 0)
(1.05006 0.00466748 0)
(1.05064 0.00437122 0)
(1.05125 0.0040477 0)
(1.05189 0.00369299 0)
(1.05255 0.00330353 0)
(1.05324 0.00287353 0)
(1.05396 0.00240093 0)
(1.05472 0.00187733 0)
(1.05551 0.00130469 0)
(1.05635 0.000673575 0)
(1.05724 -7.43006e-06 0)
(1.05821 -0.000741585 0)
(1.0593 -0.00152394 0)
(1.06061 -0.00236292 0)
(1.00069 0.00932947 0)
(1.01047 0.0175764 0)
(1.02022 0.016305 0)
(1.02504 0.0143044 0)
(1.02696 0.0137634 0)
(1.02855 0.0132866 0)
(1.03021 0.0125024 0)
(1.03161 0.0117731 0)
(1.03271 0.0112186 0)
(1.03364 0.0107588 0)
(1.03447 0.0103417 0)
(1.03523 0.00996302 0)
(1.03593 0.00962363 0)
(1.03659 0.00931786 0)
(1.0372 0.00903895 0)
(1.03778 0.00878202 0)
(1.03833 0.00854362 0)
(1.03886 0.00832096 0)
(1.03937 0.00811161 0)
(1.03986 0.00791341 0)
(1.04034 0.0077244 0)
(1.04081 0.00754274 0)
(1.04127 0.00736669 0)
(1.04173 0.00719454 0)
(1.04218 0.00702466 0)
(1.04263 0.00685547 0)
(1.04308 0.00668542 0)
(1.04353 0.00651299 0)
(1.04398 0.00633658 0)
(1.04444 0.00615461 0)
(1.04491 0.0059653 0)
(1.04539 0.00576688 0)
(1.04588 0.00555729 0)
(1.04638 0.00533447 0)
(1.0469 0.00509593 0)
(1.04743 0.00483926 0)
(1.04799 0.00456143 0)
(1.04857 0.0042594 0)
(1.04917 0.00392971 0)
(1.04979 0.00356826 0)
(1.05044 0.00317157 0)
(1.05112 0.00273385 0)
(1.05183 0.00225264 0)
(1.05257 0.00172017 0)
(1.05335 0.00113665 0)
(1.05417 0.000494067 0)
(1.05505 -0.000203575 0)
(1.05601 -0.000960234 0)
(1.05709 -0.00178 0)
(1.05837 -0.00268274 0)
(1.0006 0.00842617 0)
(1.00931 0.0165347 0)
(1.01847 0.0158082 0)
(1.0233 0.013947 0)
(1.02528 0.013427 0)
(1.02684 0.0130391 0)
(1.02847 0.0123301 0)
(1.02987 0.0116281 0)
(1.03098 0.0110859 0)
(1.03189 0.0106402 0)
(1.03272 0.0102355 0)
(1.03347 0.00986528 0)
(1.03417 0.00953184 0)
(1.03481 0.00923082 0)
(1.03541 0.00895584 0)
(1.03599 0.00870207 0)
(1.03653 0.00846619 0)
(1.03705 0.0082455 0)
(1.03755 0.00803767 0)
(1.03804 0.00784061 0)
(1.03851 0.00765238 0)
(1.03897 0.00747118 0)
(1.03943 0.00729526 0)
(1.03987 0.00712294 0)
(1.04032 0.00695256 0)
(1.04076 0.00678254 0)
(1.0412 0.00661132 0)
(1.04164 0.00643737 0)
(1.04209 0.00625908 0)
(1.04254 0.00607484 0)
(1.043 0.00588288 0)
(1.04347 0.0056814 0)
(1.04395 0.00546833 0)
(1.04444 0.00524158 0)
(1.04495 0.00499868 0)
(1.04548 0.00473715 0)
(1.04602 0.00445405 0)
(1.04659 0.00414621 0)
(1.04717 0.0038103 0)
(1.04779 0.00344209 0)
(1.04842 0.00303811 0)
(1.04909 0.00259264 0)
(1.04979 0.00210278 0)
(1.05051 0.00156127 0)
(1.05128 0.000966853 0)
(1.05208 0.000312161 0)
(1.05295 -0.000402287 0)
(1.05389 -0.0011827 0)
(1.05495 -0.0020396 0)
(1.05619 -0.00300324 0)
(1.00051 0.00760735 0)
(1.00826 0.0155209 0)
(1.01682 0.0152994 0)
(1.02164 0.0135967 0)
(1.02369 0.0130919 0)
(1.02523 0.0127822 0)
(1.02682 0.0121507 0)
(1.02822 0.01148 0)
(1.02932 0.0109506 0)