/*--------------------------------*- C++ -*----------------------------------*\
  =========                 |
  \\      /  F ield         | OpenFOAM: The Open Source CFD Toolbox
   \\    /   O peration     | Website:  https://openfoam.org
    \\  /    A nd           | Version:  7
     \\/     M anipulation  |
\*---------------------------------------------------------------------------*/
FoamFile
{
    version     2.0;
    format      ascii;
    class       volVectorField;
    location    "0.32";
    object      vorticity;
}
// * * * * * * * * * * * * * * * * * * * * * * * * * * * * * * * * * * * * * //

dimensions      [0 0 -1 0 0 0 0];

internalField   nonuniform List<vector> 
70000
(
(0 -0 -45716.2)
(0 -0 -28619)
(0 -0 -20916.8)
(0 -0 -16985.9)
(0 -0 -14967.2)
(0 -0 -13663)
(0 -0 -12656.6)
(0 -0 -11847.3)
(0 -0 -11186.8)
(0 -0 -10636.3)
(0 -0 -10167.8)
(0 -0 -9762.87)
(0 -0 -9408.48)
(0 -0 -9095.3)
(0 -0 -8816.24)
(0 -0 -8565.83)
(0 -0 -8339.75)
(0 -0 -8134.58)
(0 -0 -7947.54)
(0 -0 -7776.36)
(0 -0 -7619.17)
(0 -0 -7474.4)
(0 -0 -7340.78)
(0 -0 -7217.21)
(0 -0 -7102.77)
(0 -0 -6996.69)
(0 -0 -6898.32)
(0 -0 -6807.12)
(0 -0 -6722.63)
(0 -0 -6644.48)
(0 -0 -6572.36)
(0 -0 -6506.04)
(0 -0 -6445.34)
(0 -0 -6390.13)
(0 -0 -6340.36)
(0 -0 -6296)
(0 -0 -6257.06)
(0 -0 -6223.8)
(0 -0 -6195.87)
(0 -0 -6174.56)
(0 -0 -6157.87)
(0 -0 -6150.38)
(0 -0 -6144.39)
(0 -0 -6154.65)
(0 -0 -6155.89)
(0 -0 -6192.69)
(0 -0 -6188.46)
(0 -0 -6269.96)
(0 -0 -6250.48)
(0 -0 -6111.04)
(0 -0 -13549.6)
(0 -0 -19947.5)
(0 -0 -18537.3)
(0 -0 -16252.3)
(0 -0 -14508.1)
(0 -0 -13286.1)
(0 -0 -12360.3)
(0 -0 -11612.7)
(0 -0 -10992.9)
(0 -0 -10470.3)
(0 -0 -10022.6)
(0 -0 -9633.56)
(0 -0 -9291.63)
(0 -0 -8988.27)
(0 -0 -8717.02)
(0 -0 -8472.82)
(0 -0 -8251.71)
(0 -0 -8050.46)
(0 -0 -7866.47)
(0 -0 -7697.61)
(0 -0 -7542.09)
(0 -0 -7398.43)
(0 -0 -7265.4)
(0 -0 -7141.93)
(0 -0 -7027.15)
(0 -0 -6920.29)
(0 -0 -6820.71)
(0 -0 -6727.87)
(0 -0 -6641.3)
(0 -0 -6560.61)
(0 -0 -6485.49)
(0 -0 -6415.65)
(0 -0 -6350.91)
(0 -0 -6291.08)
(0 -0 -6236.09)
(0 -0 -6185.84)
(0 -0 -6140.31)
(0 -0 -6099.65)
(0 -0 -6063.58)
(0 -0 -6033.07)
(0 -0 -6006.59)
(0 -0 -5987.64)
(0 -0 -5970.5)
(0 -0 -5966.26)
(0 -0 -5956.5)
(0 -0 -5973.8)
(0 -0 -5964.78)
(0 -0 -6015.46)
(0 -0 -6007.43)
(0 -0 -6133.37)
(0 -0 -3818.7)
(0 -0 -10828.5)
(0 -0 -13362.9)
(0 -0 -13519.6)
(0 -0 -12867.1)
(0 -0 -12142.2)
(0 -0 -11502)
(0 -0 -10943.4)
(0 -0 -10453.5)
(0 -0 -10023)
(0 -0 -9643.12)
(0 -0 -9305.76)
(0 -0 -9004.17)
(0 -0 -8732.87)
(0 -0 -8487.48)
(0 -0 -8264.41)
(0 -0 -8060.71)
(0 -0 -7873.95)
(0 -0 -7702.07)
(0 -0 -7543.36)
(0 -0 -7396.38)
(0 -0 -7259.9)
(0 -0 -7132.87)
(0 -0 -7014.38)
(0 -0 -6903.67)
(0 -0 -6800.06)
(0 -0 -6702.99)
(0 -0 -6611.95)
(0 -0 -6526.53)
(0 -0 -6446.34)
(0 -0 -6371.09)
(0 -0 -6300.49)
(0 -0 -6234.35)
(0 -0 -6172.46)
(0 -0 -6114.7)
(0 -0 -6060.97)
(0 -0 -6011.18)
(0 -0 -5965.39)
(0 -0 -5923.38)
(0 -0 -5885.71)
(0 -0 -5851.45)
(0 -0 -5822.67)
(0 -0 -5796.03)
(0 -0 -5777.95)
(0 -0 -5758.17)
(0 -0 -5754.37)
(0 -0 -5739.72)
(0 -0 -5754.32)
(0 -0 -5748.69)
(0 -0 -5852.5)
(0 -0 -533.096)
(0 -0 -4662.3)
(0 -0 -7717.51)
(0 -0 -9327.16)
(0 -0 -9890.92)
(0 -0 -9956.63)
(0 -0 -9825.62)
(0 -0 -9614.67)
(0 -0 -9372.53)
(0 -0 -9123.82)
(0 -0 -8880.91)
(0 -0 -8649.33)
(0 -0 -8431.18)
(0 -0 -8226.88)
(0 -0 -8036.08)
(0 -0 -7858.06)
(0 -0 -7691.94)
(0 -0 -7536.83)
(0 -0 -7391.84)
(0 -0 -7256.13)
(0 -0 -7128.92)
(0 -0 -7009.53)
(0 -0 -6897.32)
(0 -0 -6791.72)
(0 -0 -6692.22)
(0 -0 -6598.36)
(0 -0 -6509.75)
(0 -0 -6426.01)
(0 -0 -6346.83)
(0 -0 -6271.92)
(0 -0 -6201.04)
(0 -0 -6133.97)
(0 -0 -6070.52)
(0 -0 -6010.52)
(0 -0 -5953.86)
(0 -0 -5900.41)
(0 -0 -5850.09)
(0 -0 -5802.86)
(0 -0 -5758.62)
(0 -0 -5717.51)
(0 -0 -5679.25)
(0 -0 -5644.45)
(0 -0 -5612.22)
(0 -0 -5584.19)
(0 -0 -5558.3)
(0 -0 -5537.37)
(0 -0 -5520.08)
(0 -0 -5502.84)
(0 -0 -5506.43)
(0 -0 -5512.02)
(0 -0 322.37)
(0 -0 -1444.4)
(0 -0 -3531.84)
(0 -0 -5257.6)
(0 -0 -6396.89)
(0 -0 -7071.11)
(0 -0 -7448.32)
(0 -0 -7639.01)
(0 -0 -7711.42)
(0 -0 -7709.73)
(0 -0 -7662.46)
(0 -0 -7587.63)
(0 -0 -7496.64)
(0 -0 -7396.72)
(0 -0 -7292.55)
(0 -0 -7187.16)
(0 -0 -7082.49)
(0 -0 -6979.79)
(0 -0 -6879.84)
(0 -0 -6783.1)
(0 -0 -6689.81)
(0 -0 -6600.11)
(0 -0 -6513.99)
(0 -0 -6431.42)
(0 -0 -6352.32)
(0 -0 -6276.57)
(0 -0 -6204.07)
(0 -0 -6134.68)
(0 -0 -6068.28)
(0 -0 -6004.73)
(0 -0 -5943.94)
(0 -0 -5885.77)
(0 -0 -5830.13)
(0 -0 -5776.92)
(0 -0 -5726.07)
(0 -0 -5677.48)
(0 -0 -5631.11)
(0 -0 -5586.87)
(0 -0 -5544.8)
(0 -0 -5504.71)
(0 -0 -5466.9)
(0 -0 -5430.74)
(0 -0 -5397.44)
(0 -0 -5364.74)
(0 -0 -5337.09)
(0 -0 -5305.85)
(0 -0 -5288.61)
(0 -0 -5250.61)
(0 -0 -5260.67)
(0 -0 -5210.92)
(0 -0 364.646)
(0 -0 -158.564)
(0 -0 -1181.16)
(0 -0 -2360.9)
(0 -0 -3415.39)
(0 -0 -4252.93)
(0 -0 -4887.03)
(0 -0 -5351.76)
(0 -0 -5682.27)
(0 -0 -5910.59)
(0 -0 -6063.01)
(0 -0 -6159.58)
(0 -0 -6215.2)
(0 -0 -6240.8)
(0 -0 -6244.39)
(0 -0 -6231.89)
(0 -0 -6207.67)
(0 -0 -6174.99)
(0 -0 -6136.27)
(0 -0 -6093.32)
(0 -0 -6047.52)
(0 -0 -5999.9)
(0 -0 -5951.24)
(0 -0 -5902.12)
(0 -0 -5853)
(0 -0 -5804.19)
(0 -0 -5755.96)
(0 -0 -5708.49)
(0 -0 -5661.92)
(0 -0 -5616.34)
(0 -0 -5571.81)
(0 -0 -5528.39)
(0 -0 -5486.1)
(0 -0 -5444.95)
(0 -0 -5404.96)
(0 -0 -5366.1)
(0 -0 -5328.42)
(0 -0 -5291.8)
(0 -0 -5256.43)
(0 -0 -5221.92)
(0 -0 -5188.97)
(0 -0 -5156.23)
(0 -0 -5126.14)
(0 -0 -5094.22)
(0 -0 -5068.56)
(0 -0 -5034.5)
(0 -0 -5018.58)
(0 -0 -4973.63)
(0 -0 -4980.94)
(0 -0 -4922.11)
(0 -0 253.98)
(0 -0 185.243)
(0 -0 -173.201)
(0 -0 -764.123)
(0 -0 -1446.33)
(0 -0 -2112.99)
(0 -0 -2716.9)
(0 -0 -3238.73)
(0 -0 -3674.47)
(0 -0 -4029.98)
(0 -0 -4315.57)
(0 -0 -4542.36)
(0 -0 -4720.64)
(0 -0 -4859.35)
(0 -0 -4965.98)
(0 -0 -5046.69)
(0 -0 -5106.47)
(0 -0 -5149.38)
(0 -0 -5178.66)
(0 -0 -5196.96)
(0 -0 -5206.38)
(0 -0 -5208.64)
(0 -0 -5205.12)
(0 -0 -5196.94)
(0 -0 -5185.01)
(0 -0 -5170.08)
(0 -0 -5152.76)
(0 -0 -5133.54)
(0 -0 -5112.82)
(0 -0 -5090.95)
(0 -0 -5068.18)
(0 -0 -5044.75)
(0 -0 -5020.82)
(0 -0 -4996.55)
(0 -0 -4972.07)
(0 -0 -4947.44)
(0 -0 -4922.78)
(0 -0 -4898.05)
(0 -0 -4873.51)
(0 -0 -4848.76)
(0 -0 -4824.62)
(0 -0 -4799.59)
(0 -0 -4776.43)
(0 -0 -4750.15)
(0 -0 -4729.55)
(0 -0 -4699.17)
(0 -0 -4685.59)
(0 -0 -4644.44)
(0 -0 -4645.58)
(0 -0 -4595.44)
(0 -0 178.711)
(0 -0 204.449)
(0 -0 130.629)
(0 -0 -85.0469)
(0 -0 -417.255)
(0 -0 -813.482)
(0 -0 -1233.89)
(0 -0 -1649.68)
(0 -0 -2041.08)
(0 -0 -2397.21)
(0 -0 -2713.9)
(0 -0 -2991.09)
(0 -0 -3230.97)
(0 -0 -3436.86)
(0 -0 -3612.47)
(0 -0 -3761.5)
(0 -0 -3887.46)
(0 -0 -3993.5)
(0 -0 -4082.41)
(0 -0 -4156.63)
(0 -0 -4218.28)
(0 -0 -4269.16)
(0 -0 -4310.82)
(0 -0 -4344.58)
(0 -0 -4371.57)
(0 -0 -4392.75)
(0 -0 -4408.93)
(0 -0 -4420.81)
(0 -0 -4428.98)
(0 -0 -4433.95)
(0 -0 -4436.14)
(0 -0 -4435.94)
(0 -0 -4433.62)
(0 -0 -4429.48)
(0 -0 -4423.72)
(0 -0 -4416.52)
(0 -0 -4408.06)
(0 -0 -4398.39)
(0 -0 -4387.79)
(0 -0 -4375.97)
(0 -0 -4363.69)
(0 -0 -4349.66)
(0 -0 -4336.33)
(0 -0 -4319.35)
(0 -0 -4306.34)
(0 -0 -4284.18)
(0 -0 -4274.71)
(0 -0 -4242.96)
(0 -0 -4240.72)
(0 -0 -4202.59)
(0 -0 147.982)
(0 -0 164.564)
(0 -0 169.932)
(0 -0 120.965)
(0 -0 1.21929)
(0 -0 -180.131)
(0 -0 -407.662)
(0 -0 -665.032)
(0 -0 -936.455)
(0 -0 -1209.08)
(0 -0 -1473.75)
(0 -0 -1724.51)
(0 -0 -1957.88)
(0 -0 -2172.2)
(0 -0 -2367.09)
(0 -0 -2542.98)
(0 -0 -2700.83)
(0 -0 -2841.89)
(0 -0 -2967.52)
(0 -0 -3079.13)
(0 -0 -3178.07)
(0 -0 -3265.62)
(0 -0 -3342.96)
(0 -0 -3411.18)
(0 -0 -3471.26)
(0 -0 -3524.08)
(0 -0 -3570.41)
(0 -0 -3610.96)
(0 -0 -3646.33)
(0 -0 -3677.09)
(0 -0 -3703.69)
(0 -0 -3726.57)
(0 -0 -3746.08)
(0 -0 -3762.55)
(0 -0 -3776.25)
(0 -0 -3787.43)
(0 -0 -3796.28)
(0 -0 -3802.94)
(0 -0 -3807.66)
(0 -0 -3810.3)
(0 -0 -3811.45)
(0 -0 -3810.2)
(0 -0 -3808.42)
(0 -0 -3802.79)
(0 -0 -3799.15)
(0 -0 -3787.56)
(0 -0 -3784.28)
(0 -0 -3763.93)
(0 -0 -3762.49)
(0 -0 -3736.56)
(0 -0 136.786)
(0 -0 137.031)
(0 -0 148.687)
(0 -0 149.625)
(0 -0 122.185)
(0 -0 60.268)
(0 -0 -35.8834)
(0 -0 -162.578)
(0 -0 -313.457)
(0 -0 -481.235)
(0 -0 -659.035)
(0 -0 -840.985)
(0 -0 -1022.38)
(0 -0 -1199.67)
(0 -0 -1370.3)
(0 -0 -1532.59)
(0 -0 -1685.53)
(0 -0 -1828.61)
(0 -0 -1961.7)
(0 -0 -2084.95)
(0 -0 -2198.68)
(0 -0 -2303.32)
(0 -0 -2399.39)
(0 -0 -2487.41)
(0 -0 -2567.95)
(0 -0 -2641.55)
(0 -0 -2708.71)
(0 -0 -2769.95)
(0 -0 -2825.72)
(0 -0 -2876.45)
(0 -0 -2922.53)
(0 -0 -2964.33)
(0 -0 -3002.16)
(0 -0 -3036.34)
(0 -0 -3067.08)
(0 -0 -3094.66)
(0 -0 -3119.24)
(0 -0 -3141)
(0 -0 -3160.11)
(0 -0 -3176.58)
(0 -0 -3190.78)
(0 -0 -3202.15)
(0 -0 -3211.98)
(0 -0 -3217.94)
(0 -0 -3224.2)
(0 -0 -3223.64)
(0 -0 -3227.76)
(0 -0 -3218.94)
(0 -0 -3221.19)
(0 -0 -3206.99)
(0 -0 129.902)
(0 -0 123.957)
(0 -0 129.139)
(0 -0 136.331)
(0 -0 136.418)
(0 -0 123.188)
(0 -0 93.0346)
(0 -0 44.1465)
(0 -0 -23.2849)
(0 -0 -107.419)
(0 -0 -205.492)
(0 -0 -314.383)
(0 -0 -430.97)
(0 -0 -552.368)
(0 -0 -676.059)
(0 -0 -799.942)
(0 -0 -922.331)
(0 -0 -1041.92)
(0 -0 -1157.75)
(0 -0 -1269.11)
(0 -0 -1375.56)
(0 -0 -1476.82)
(0 -0 -1572.76)
(0 -0 -1663.35)
(0 -0 -1748.65)
(0 -0 -1828.79)
(0 -0 -1903.93)
(0 -0 -1974.26)
(0 -0 -2039.98)
(0 -0 -2101.32)
(0 -0 -2158.47)
(0 -0 -2211.66)
(0 -0 -2261.08)
(0 -0 -2306.93)
(0 -0 -2349.36)
(0 -0 -2388.56)
(0 -0 -2424.63)
(0 -0 -2457.74)
(0 -0 -2487.96)
(0 -0 -2515.34)
(0 -0 -2540.11)
(0 -0 -2561.89)
(0 -0 -2581.56)
(0 -0 -2597.49)
(0 -0 -2612.58)
(0 -0 -2621.83)
(0 -0 -2633.13)
(0 -0 -2634.64)
(0 -0 -2641.75)
(0 -0 -2637.93)
(0 -0 122.909)
(0 -0 116.602)
(0 -0 117.971)
(0 -0 122.443)
(0 -0 126.377)
(0 -0 126.843)
(0 -0 121.388)
(0 -0 107.735)
(0 -0 84.2673)
(0 -0 50.2973)
(0 -0 5.92752)
(0 -0 -48.1305)
(0 -0 -110.756)
(0 -0 -180.589)
(0 -0 -256.188)
(0 -0 -336.126)
(0 -0 -419.072)
(0 -0 -503.827)
(0 -0 -589.347)
(0 -0 -674.745)
(0 -0 -759.285)
(0 -0 -842.369)
(0 -0 -923.522)
(0 -0 -1002.38)
(0 -0 -1078.67)
(0 -0 -1152.19)
(0 -0 -1222.82)
(0 -0 -1290.47)
(0 -0 -1355.11)
(0 -0 -1416.72)
(0 -0 -1475.33)
(0 -0 -1530.98)
(0 -0 -1583.7)
(0 -0 -1633.57)
(0 -0 -1680.61)
(0 -0 -1724.91)
(0 -0 -1766.49)
(0 -0 -1805.43)
(0 -0 -1841.74)
(0 -0 -1875.43)
(0 -0 -1906.6)
(0 -0 -1934.98)
(0 -0 -1961.15)
(0 -0 -1983.92)
(0 -0 -2005.27)
(0 -0 -2021.75)
(0 -0 -2038.56)
(0 -0 -2048.07)
(0 -0 -2059.62)
(0 -0 -2063.98)
(0 -0 115.587)
(0 -0 110.367)
(0 -0 110.687)
(0 -0 113.125)
(0 -0 115.932)
(0 -0 118.182)
(0 -0 119.051)
(0 -0 117.348)
(0 -0 111.808)
(0 -0 101.391)
(0 -0 85.3868)
(0 -0 63.4317)
(0 -0 35.4746)
(0 -0 1.73568)
(0 -0 -37.3594)
(0 -0 -81.2448)
(0 -0 -129.273)
(0 -0 -180.761)
(0 -0 -235.03)
(0 -0 -291.429)
(0 -0 -349.347)
(0 -0 -408.236)
(0 -0 -467.597)
(0 -0 -526.998)
(0 -0 -586.064)
(0 -0 -644.475)
(0 -0 -701.963)
(0 -0 -758.304)
(0 -0 -813.313)
(0 -0 -866.844)
(0 -0 -918.772)
(0 -0 -969.01)
(0 -0 -1017.47)
(0 -0 -1064.11)
(0 -0 -1108.86)
(0 -0 -1151.71)
(0 -0 -1192.59)
(0 -0 -1231.5)
(0 -0 -1268.38)
(0 -0 -1303.18)
(0 -0 -1335.93)
(0 -0 -1366.38)
(0 -0 -1394.88)
(0 -0 -1420.57)
(0 -0 -1444.73)
(0 -0 -1465.05)
(0 -0 -1484.75)
(0 -0 -1499.18)
(0 -0 -1513.62)
(0 -0 -1523.33)
(0 -0 108.339)
(0 -0 104.147)
(0 -0 104.359)
(0 -0 106.067)
(0 -0 107.932)
(0 -0 109.634)
(0 -0 111.16)
(0 -0 112.166)
(0 -0 112.079)
(0 -0 110.275)
(0 -0 106.176)
(0 -0 99.2878)
(0 -0 89.2408)
(0 -0 75.8008)
(0 -0 58.875)
(0 -0 38.491)
(0 -0 14.7797)
(0 -0 -12.0472)
(0 -0 -41.7214)
(0 -0 -73.9349)
(0 -0 -108.363)
(0 -0 -144.664)
(0 -0 -182.517)
(0 -0 -221.597)
(0 -0 -261.603)
(0 -0 -302.253)
(0 -0 -343.289)
(0 -0 -384.478)
(0 -0 -425.607)
(0 -0 -466.488)
(0 -0 -506.949)
(0 -0 -546.846)
(0 -0 -586.037)
(0 -0 -624.414)
(0 -0 -661.857)
(0 -0 -698.284)
(0 -0 -733.587)
(0 -0 -767.695)
(0 -0 -800.519)
(0 -0 -831.955)
(0 -0 -861.984)
(0 -0 -890.359)
(0 -0 -917.285)
(0 -0 -942.121)
(0 -0 -965.643)
(0 -0 -986.357)
(0 -0 -1006.11)
(0 -0 -1022.24)
(0 -0 -1037.46)
(0 -0 -1049.6)
(0 -0 101.358)
(0 -0 97.953)
(0 -0 98.179)
(0 -0 99.6533)
(0 -0 101.163)
(0 -0 102.429)
(0 -0 103.643)
(0 -0 104.818)
(0 -0 105.782)
(0 -0 106.294)
(0 -0 106.076)
(0 -0 104.835)
(0 -0 102.284)
(0 -0 98.1698)
(0 -0 92.2869)
(0 -0 84.4863)
(0 -0 74.678)
(0 -0 62.8273)
(0 -0 48.9518)
(0 -0 33.1118)
(0 -0 15.4028)
(0 -0 -4.05004)
(0 -0 -25.1025)
(0 -0 -47.596)
(0 -0 -71.3626)
(0 -0 -96.2326)
(0 -0 -122.035)
(0 -0 -148.605)
(0 -0 -175.779)
(0 -0 -203.406)
(0 -0 -231.337)
(0 -0 -259.436)
(0 -0 -287.568)
(0 -0 -315.618)
(0 -0 -343.461)
(0 -0 -370.996)
(0 -0 -398.111)
(0 -0 -424.706)
(0 -0 -450.687)
(0 -0 -475.929)
(0 -0 -500.388)
(0 -0 -523.846)
(0 -0 -546.397)
(0 -0 -567.585)
(0 -0 -587.829)
(0 -0 -606.215)
(0 -0 -623.689)
(0 -0 -638.828)
(0 -0 -652.867)
(0 -0 -664.931)
(0 -0 94.6792)
(0 -0 91.9005)
(0 -0 92.1148)
(0 -0 93.4402)
(0 -0 94.8186)
(0 -0 95.9113)
(0 -0 96.9016)
(0 -0 97.8886)
(0 -0 98.8458)
(0 -0 99.7075)
(0 -0 100.386)
(0 -0 100.766)
(0 -0 100.711)
(0 -0 100.075)
(0 -0 98.7143)
(0 -0 96.4962)
(0 -0 93.3054)
(0 -0 89.0486)
(0 -0 83.6576)
(0 -0 77.0875)
(0 -0 69.3219)
(0 -0 60.3574)
(0 -0 50.2265)
(0 -0 38.9662)
(0 -0 26.6327)
(0 -0 13.2933)
(0 -0 -0.97444)
(0 -0 -16.0873)
(0 -0 -31.9565)
(0 -0 -48.4916)
(0 -0 -65.5987)
(0 -0 -83.1861)
(0 -0 -101.159)
(0 -0 -119.428)
(0 -0 -137.9)
(0 -0 -156.486)
(0 -0 -175.099)
(0 -0 -193.646)
(0 -0 -212.048)
(0 -0 -230.191)
(0 -0 -248.028)
(0 -0 -265.386)
(0 -0 -282.293)
(0 -0 -298.445)
(0 -0 -314.031)
(0 -0 -328.526)
(0 -0 -342.343)
(0 -0 -354.78)
(0 -0 -366.298)
(0 -0 -376.609)
(0 -0 88.3003)
(0 -0 86.0417)
(0 -0 86.2376)
(0 -0 87.4136)
(0 -0 88.6937)
(0 -0 89.7072)
(0 -0 90.5913)
(0 -0 91.4504)
(0 -0 92.2898)
(0 -0 93.096)
(0 -0 93.8535)
(0 -0 94.534)
(0 -0 95.0925)
(0 -0 95.4712)
(0 -0 95.6036)
(0 -0 95.4183)
(0 -0 94.8431)
(0 -0 93.8086)
(0 -0 92.251)
(0 -0 90.1147)
(0 -0 87.3532)
(0 -0 83.9333)
(0 -0 79.8273)
(0 -0 75.0245)
(0 -0 69.5222)
(0 -0 63.3282)
(0 -0 56.4593)
(0 -0 48.9394)
(0 -0 40.8004)
(0 -0 32.0795)
(0 -0 22.8192)
(0 -0 13.0657)
(0 -0 2.86907)
(0 -0 -7.71811)
(0 -0 -18.641)
(0 -0 -29.8416)
(0 -0 -41.2632)
(0 -0 -52.8394)
(0 -0 -64.5169)
(0 -0 -76.2121)
(0 -0 -87.885)
(0 -0 -99.4174)
(0 -0 -110.804)
(0 -0 -121.86)
(0 -0 -132.645)
(0 -0 -142.883)
(0 -0 -152.709)
(0 -0 -161.802)
(0 -0 -170.277)
(0 -0 -178.066)
(0 -0 82.2203)
(0 -0 80.3946)
(0 -0 80.5807)
(0 -0 81.6121)
(0 -0 82.7889)
(0 -0 83.737)
(0 -0 84.5529)
(0 -0 85.3346)
(0 -0 86.0914)
(0 -0 86.8175)
(0 -0 87.5146)
(0 -0 88.1822)
(0 -0 88.8117)
(0 -0 89.3873)
(0 -0 89.887)
(0 -0 90.2836)
(0 -0 90.5456)
(0 -0 90.6388)
(0 -0 90.5273)
(0 -0 90.1757)
(0 -0 89.5493)
(0 -0 88.6172)
(0 -0 87.3505)
(0 -0 85.7258)
(0 -0 83.7243)
(0 -0 81.3323)
(0 -0 78.5415)
(0 -0 75.3486)
(0 -0 71.7552)
(0 -0 67.7677)
(0 -0 63.3967)
(0 -0 58.6575)
(0 -0 53.5682)
(0 -0 48.1515)
(0 -0 42.4323)
(0 -0 36.4402)
(0 -0 30.2037)
(0 -0 23.7613)
(0 -0 17.1425)
(0 -0 10.3983)
(0 -0 3.55484)
(0 -0 -3.31715)
(0 -0 -10.2023)
(0 -0 -17.0002)
(0 -0 -23.7138)
(0 -0 -30.2095)
(0 -0 -36.5041)
(0 -0 -42.4629)
(0 -0 -48.0774)
(0 -0 -53.3387)
(0 -0 76.4396)
(0 -0 74.9707)
(0 -0 75.156)
(0 -0 76.0557)
(0 -0 77.1268)
(0 -0 78.0082)
(0 -0 78.7624)
(0 -0 79.4814)
(0 -0 80.1765)
(0 -0 80.841)
(0 -0 81.4776)
(0 -0 82.0908)
(0 -0 82.6819)
(0 -0 83.2491)
(0 -0 83.7876)
(0 -0 84.2903)
(0 -0 84.7475)
(0 -0 85.1469)
(0 -0 85.474)
(0 -0 85.7129)
(0 -0 85.8461)
(0 -0 85.8557)
(0 -0 85.7241)
(0 -0 85.4342)
(0 -0 84.9703)
(0 -0 84.3183)
(0 -0 83.4661)
(0 -0 82.4039)
(0 -0 81.1242)
(0 -0 79.6219)
(0 -0 77.8945)
(0 -0 75.9421)
(0 -0 73.7672)
(0 -0 71.3755)
(0 -0 68.7735)
(0 -0 65.9728)
(0 -0 62.9838)
(0 -0 59.8244)
(0 -0 56.5071)
(0 -0 53.058)
(0 -0 49.4902)
(0 -0 45.8403)
(0 -0 42.1221)
(0 -0 38.3829)
(0 -0 34.6359)
(0 -0 30.9398)
(0 -0 27.312)
(0 -0 23.8057)
(0 -0 20.4536)
(0 -0 17.2602)
(0 -0 70.9581)
(0 -0 69.7804)
(0 -0 69.9708)
(0 -0 70.7531)
(0 -0 71.7204)
(0 -0 72.535)
(0 -0 73.2291)
(0 -0 73.8886)
(0 -0 74.5278)
(0 -0 75.1395)
(0 -0 75.7246)
(0 -0 76.2875)
(0 -0 76.831)
(0 -0 77.356)
(0 -0 77.8626)
(0 -0 78.3503)
(0 -0 78.8175)
(0 -0 79.2612)
(0 -0 79.6775)
(0 -0 80.061)
(0 -0 80.4052)
(0 -0 80.7026)
(0 -0 80.945)
(0 -0 81.1237)
(0 -0 81.2303)
(0 -0 81.2562)
(0 -0 81.1932)
(0 -0 81.0338)
(0 -0 80.7711)
(0 -0 80.399)
(0 -0 79.9126)
(0 -0 79.308)
(0 -0 78.5823)
(0 -0 77.7347)
(0 -0 76.7645)
(0 -0 75.6742)
(0 -0 74.4655)
(0 -0 73.1445)
(0 -0 71.7149)
(0 -0 70.187)
(0 -0 68.5666)
(0 -0 66.8685)
(0 -0 65.1005)
(0 -0 63.2831)
(0 -0 61.4269)
(0 -0 59.5564)
(0 -0 57.6865)
(0 -0 55.8412)
(0 -0 54.04)
(0 -0 52.2983)
(0 -0 65.7743)
(0 -0 64.832)
(0 -0 65.0304)
(0 -0 65.7091)
(0 -0 66.5764)
(0 -0 67.3254)
(0 -0 67.9618)
(0 -0 68.5639)
(0 -0 69.1493)
(0 -0 69.7112)
(0 -0 70.249)
(0 -0 70.7663)
(0 -0 71.2656)
(0 -0 71.748)
(0 -0 72.2145)
(0 -0 72.6659)
(0 -0 73.1026)
(0 -0 73.525)
(0 -0 73.9325)
(0 -0 74.3242)
(0 -0 74.6982)
(0 -0 75.0521)
(0 -0 75.3831)
(0 -0 75.6877)
(0 -0 75.9625)
(0 -0 76.2035)
(0 -0 76.4069)
(0 -0 76.5688)
(0 -0 76.6852)
(0 -0 76.7523)
(0 -0 76.7665)
(0 -0 76.7245)
(0 -0 76.6234)
(0 -0 76.461)
(0 -0 76.2353)
(0 -0 75.9457)
(0 -0 75.5909)
(0 -0 75.1723)
(0 -0 74.6896)
(0 -0 74.1459)
(0 -0 73.5424)
(0 -0 72.8843)
(0 -0 72.174)
(0 -0 71.4197)
(0 -0 70.6246)
(0 -0 69.801)
(0 -0 68.9512)
(0 -0 68.0941)
(0 -0 67.2256)
(0 -0 66.3766)
(0 -0 60.8853)
(0 -0 60.132)
(0 -0 60.3393)
(0 -0 60.9269)
(0 -0 61.699)
(0 -0 62.3844)
(0 -0 62.9658)
(0 -0 63.5132)
(0 -0 64.0468)
(0 -0 64.5608)
(0 -0 65.0536)
(0 -0 65.5278)
(0 -0 65.9856)
(0 -0 66.4281)
(0 -0 66.856)
(0 -0 67.2702)
(0 -0 67.6716)
(0 -0 68.061)
(0 -0 68.439)
(0 -0 68.8058)
(0 -0 69.1611)
(0 -0 69.5044)
(0 -0 69.835)
(0 -0 70.1516)
(0 -0 70.4533)
(0 -0 70.7387)
(0 -0 71.0063)
(0 -0 71.2548)
(0 -0 71.4824)
(0 -0 71.6873)
(0 -0 71.8677)
(0 -0 72.0218)
(0 -0 72.1479)
(0 -0 72.2444)
(0 -0 72.3097)
(0 -0 72.343)
(0 -0 72.3428)
(0 -0 72.309)
(0 -0 72.2404)
(0 -0 72.1375)
(0 -0 71.9994)
(0 -0 71.8278)
(0 -0 71.6215)
(0 -0 71.3848)
(0 -0 71.1144)
(0 -0 70.8203)
(0 -0 70.4926)
(0 -0 70.1538)
(0 -0 69.7791)
(0 -0 69.4143)
(0 -0 56.2874)
(0 -0 55.6846)
(0 -0 55.8997)
(0 -0 56.4078)
(0 -0 57.0904)
(0 -0 57.7142)
(0 -0 58.2438)
(0 -0 58.7393)
(0 -0 59.2235)
(0 -0 59.6918)
(0 -0 60.1415)
(0 -0 60.5747)
(0 -0 60.9932)
(0 -0 61.3978)
(0 -0 61.7891)
(0 -0 62.168)
(0 -0 62.5351)
(0 -0 62.8915)
(0 -0 63.2379)
(0 -0 63.5745)
(0 -0 63.9016)
(0 -0 64.2191)
(0 -0 64.5269)
(0 -0 64.8246)
(0 -0 65.112)
(0 -0 65.3888)
(0 -0 65.6547)
(0 -0 65.9093)
(0 -0 66.1521)
(0 -0 66.3824)
(0 -0 66.5995)
(0 -0 66.8027)
(0 -0 66.9911)
(0 -0 67.164)
(0 -0 67.3206)
(0 -0 67.4604)
(0 -0 67.5824)
(0 -0 67.6864)
(0 -0 67.7713)
(0 -0 67.8371)
(0 -0 67.8821)
(0 -0 67.9073)
(0 -0 67.9095)
(0 -0 67.8926)
(0 -0 67.8489)
(0 -0 67.7899)
(0 -0 67.697)
(0 -0 67.5982)
(0 -0 67.4536)
(0 -0 67.3225)
(0 -0 51.9752)
(0 -0 51.4916)
(0 -0 51.7125)
(0 -0 52.1515)
(0 -0 52.7509)
(0 -0 53.3153)
(0 -0 53.796)
(0 -0 54.2429)
(0 -0 54.6804)
(0 -0 55.1053)
(0 -0 55.5142)
(0 -0 55.9084)
(0 -0 56.2895)
(0 -0 56.6582)
(0 -0 57.0149)
(0 -0 57.3602)
(0 -0 57.6949)
(0 -0 58.0198)
(0 -0 58.3356)
(0 -0 58.6427)
(0 -0 58.9413)
(0 -0 59.2312)
(0 -0 59.5126)
(0 -0 59.7852)
(0 -0 60.049)
(0 -0 60.3042)
(0 -0 60.5507)
(0 -0 60.7886)
(0 -0 61.0177)
(0 -0 61.238)
(0 -0 61.4492)
(0 -0 61.651)
(0 -0 61.8431)
(0 -0 62.0253)
(0 -0 62.1973)
(0 -0 62.3588)
(0 -0 62.5095)
(0 -0 62.6493)
(0 -0 62.7771)
(0 -0 62.8933)
(0 -0 62.996)
(0 -0 63.0862)
(0 -0 63.1599)
(0 -0 63.2215)
(0 -0 63.2609)
(0 -0 63.2915)
(0 -0 63.2895)
(0 -0 63.288)
(0 -0 63.2365)
(0 -0 63.2058)
(0 -0 47.9425)
(0 -0 47.5529)
(0 -0 47.7766)
(0 -0 48.1556)
(0 -0 48.6787)
(0 -0 49.1862)
(0 -0 49.6209)
(0 -0 50.0225)
(0 -0 50.416)
(0 -0 50.8)
(0 -0 51.1705)
(0 -0 51.528)
(0 -0 51.8739)
(0 -0 52.2087)
(0 -0 52.5326)
(0 -0 52.8462)
(0 -0 53.1502)
(0 -0 53.4454)
(0 -0 53.7323)
(0 -0 54.0114)
(0 -0 54.2826)
(0 -0 54.546)
(0 -0 54.8015)
(0 -0 55.049)
(0 -0 55.2885)
(0 -0 55.5202)
(0 -0 55.7441)
(0 -0 55.9605)
(0 -0 56.1694)
(0 -0 56.3707)
(0 -0 56.5645)
(0 -0 56.7507)
(0 -0 56.9291)
(0 -0 57.0997)
(0 -0 57.2625)
(0 -0 57.4176)
(0 -0 57.5646)
(0 -0 57.7037)
(0 -0 57.8342)
(0 -0 57.9564)
(0 -0 58.0683)
(0 -0 58.1717)
(0 -0 58.2615)
(0 -0 58.3434)
(0 -0 58.4055)
(0 -0 58.4632)
(0 -0 58.4894)
(0 -0 58.5212)
(0 -0 58.5009)
(0 -0 58.5089)
(0 -0 44.1817)
(0 -0 43.866)
(0 -0 44.089)
(0 -0 44.4162)
(0 -0 44.8699)
(0 -0 45.3236)
(0 -0 45.7152)
(0 -0 46.0748)
(0 -0 46.4273)
(0 -0 46.7728)
(0 -0 47.1073)
(0 -0 47.4305)
(0 -0 47.7433)
(0 -0 48.0462)
(0 -0 48.3393)
(0 -0 48.6232)
(0 -0 48.8984)
(0 -0 49.1656)
(0 -0 49.4253)
(0 -0 49.678)
(0 -0 49.9235)
(0 -0 50.1618)
(0 -0 50.3929)
(0 -0 50.6164)
(0 -0 50.8326)
(0 -0 51.0416)
(0 -0 51.2434)
(0 -0 51.4383)
(0 -0 51.6264)
(0 -0 51.8078)
(0 -0 51.9822)
(0 -0 52.1499)
(0 -0 52.3108)
(0 -0 52.465)
(0 -0 52.6124)
(0 -0 52.7533)
(0 -0 52.8875)
(0 -0 53.0153)
(0 -0 53.136)
(0 -0 53.2501)
(0 -0 53.3556)
(0 -0 53.4545)
(0 -0 53.5415)
(0 -0 53.6228)
(0 -0 53.6859)
(0 -0 53.7472)
(0 -0 53.7781)
(0 -0 53.8182)
(0 -0 53.805)
(0 -0 53.8266)
(0 -0 40.6839)
(0 -0 40.4266)
(0 -0 40.6452)
(0 -0 40.9279)
(0 -0 41.3193)
(0 -0 41.7221)
(0 -0 42.0736)
(0 -0 42.3944)
(0 -0 42.7088)
(0 -0 43.0185)
(0 -0 43.3194)
(0 -0 43.6106)
(0 -0 43.8927)
(0 -0 44.1659)
(0 -0 44.4303)
(0 -0 44.6864)
(0 -0 44.9346)
(0 -0 45.1756)
(0 -0 45.41)
(0 -0 45.6379)
(0 -0 45.8594)
(0 -0 46.0742)
(0 -0 46.2823)
(0 -0 46.4834)
(0 -0 46.6777)
(0 -0 46.8652)
(0 -0 47.0462)
(0 -0 47.2207)
(0 -0 47.389)
(0 -0 47.5511)
(0 -0 47.7069)
(0 -0 47.8565)
(0 -0 47.9999)
(0 -0 48.1372)
(0 -0 48.2686)
(0 -0 48.3943)
(0 -0 48.5141)
(0 -0 48.6284)
(0 -0 48.7365)
(0 -0 48.8392)
(0 -0 48.9343)
(0 -0 49.024)
(0 -0 49.1029)
(0 -0 49.1777)
(0 -0 49.2352)
(0 -0 49.2929)
(0 -0 49.3209)
(0 -0 49.3609)
(0 -0 49.3472)
(0 -0 49.3732)
(0 -0 37.4397)
(0 -0 37.2286)
(0 -0 37.439)
(0 -0 37.6836)
(0 -0 38.0195)
(0 -0 38.3748)
(0 -0 38.6889)
(0 -0 38.9742)
(0 -0 39.2535)
(0 -0 39.53)
(0 -0 39.7999)
(0 -0 40.0615)
(0 -0 40.3151)
(0 -0 40.5608)
(0 -0 40.7986)
(0 -0 41.0289)
(0 -0 41.252)
(0 -0 41.4688)
(0 -0 41.6795)
(0 -0 41.8845)
(0 -0 42.0835)
(0 -0 42.2765)
(0 -0 42.4631)
(0 -0 42.6434)
(0 -0 42.8172)
(0 -0 42.9847)
(0 -0 43.1461)
(0 -0 43.3017)
(0 -0 43.4514)
(0 -0 43.5954)
(0 -0 43.7337)
(0 -0 43.8663)
(0 -0 43.9932)
(0 -0 44.1147)
(0 -0 44.2308)
(0 -0 44.3418)
(0 -0 44.4478)
(0 -0 44.549)
(0 -0 44.6447)
(0 -0 44.7359)
(0 -0 44.8203)
(0 -0 44.9003)
(0 -0 44.9704)
(0 -0 45.0375)
(0 -0 45.0882)
(0 -0 45.1406)
(0 -0 45.1642)
(0 -0 45.2019)
(0 -0 45.1859)
(0 -0 45.2135)
(0 -0 34.4382)
(0 -0 34.2645)
(0 -0 34.4629)
(0 -0 34.6745)
(0 -0 34.9617)
(0 -0 35.2731)
(0 -0 35.5525)
(0 -0 35.8055)
(0 -0 36.0527)
(0 -0 36.2987)
(0 -0 36.5401)
(0 -0 36.7745)
(0 -0 37.0019)
(0 -0 37.2223)
(0 -0 37.4356)
(0 -0 37.642)
(0 -0 37.8421)
(0 -0 38.0365)
(0 -0 38.2254)
(0 -0 38.4091)
(0 -0 38.5874)
(0 -0 38.7602)
(0 -0 38.927)
(0 -0 39.0878)
(0 -0 39.2426)
(0 -0 39.3916)
(0 -0 39.535)
(0 -0 39.6729)
(0 -0 39.8054)
(0 -0 39.9326)
(0 -0 40.0546)
(0 -0 40.1714)
(0 -0 40.283)
(0 -0 40.3897)
(0 -0 40.4917)
(0 -0 40.5892)
(0 -0 40.6822)
(0 -0 40.7712)
(0 -0 40.8555)
(0 -0 40.936)
(0 -0 41.0104)
(0 -0 41.0813)
(0 -0 41.1432)
(0 -0 41.2029)
(0 -0 41.2473)
(0 -0 41.2944)
(0 -0 41.3138)
(0 -0 41.3488)
(0 -0 41.3307)
(0 -0 41.3591)
(0 -0 31.6682)
(0 -0 31.5248)
(0 -0 31.7082)
(0 -0 31.8919)
(0 -0 32.1364)
(0 -0 32.4076)
(0 -0 32.6549)
(0 -0 32.8786)
(0 -0 33.0967)
(0 -0 33.3148)
(0 -0 33.53)
(0 -0 33.7396)
(0 -0 33.9431)
(0 -0 34.1403)
(0 -0 34.3311)
(0 -0 34.5158)
(0 -0 34.6947)
(0 -0 34.8685)
(0 -0 35.0374)
(0 -0 35.2016)
(0 -0 35.3609)
(0 -0 35.515)
(0 -0 35.6636)
(0 -0 35.8065)
(0 -0 35.9439)
(0 -0 36.0758)
(0 -0 36.2024)
(0 -0 36.324)
(0 -0 36.4407)
(0 -0 36.5525)
(0 -0 36.6594)
(0 -0 36.7616)
(0 -0 36.8592)
(0 -0 36.9523)
(0 -0 37.0413)
(0 -0 37.1264)
(0 -0 37.2076)
(0 -0 37.2855)
(0 -0 37.3593)
(0 -0 37.43)
(0 -0 37.4955)
(0 -0 37.5581)
(0 -0 37.6125)
(0 -0 37.6656)
(0 -0 37.7044)
(0 -0 37.7467)
(0 -0 37.7626)
(0 -0 37.795)
(0 -0 37.7755)
(0 -0 37.8045)
(0 -0 29.1174)
(0 -0 28.9988)
(0 -0 29.1653)
(0 -0 29.3255)
(0 -0 29.5333)
(0 -0 29.7678)
(0 -0 29.9857)
(0 -0 30.1827)
(0 -0 30.3745)
(0 -0 30.5672)
(0 -0 30.7586)
(0 -0 30.9457)
(0 -0 31.1274)
(0 -0 31.3036)
(0 -0 31.474)
(0 -0 31.6388)
(0 -0 31.7984)
(0 -0 31.9534)
(0 -0 32.1041)
(0 -0 32.2505)
(0 -0 32.3924)
(0 -0 32.5295)
(0 -0 32.6614)
(0 -0 32.7879)
(0 -0 32.9093)
(0 -0 33.0255)
(0 -0 33.1368)
(0 -0 33.2435)
(0 -0 33.3455)
(0 -0 33.4432)
(0 -0 33.5363)
(0 -0 33.6252)
(0 -0 33.7099)
(0 -0 33.7906)
(0 -0 33.8677)
(0 -0 33.9415)
(0 -0 34.012)
(0 -0 34.0798)
(0 -0 34.1442)
(0 -0 34.2061)
(0 -0 34.2635)
(0 -0 34.3188)
(0 -0 34.3667)
(0 -0 34.4138)
(0 -0 34.4478)
(0 -0 34.4859)
(0 -0 34.4989)
(0 -0 34.5292)
(0 -0 34.509)
(0 -0 34.5384)
(0 -0 26.7735)
(0 -0 26.675)
(0 -0 26.8238)
(0 -0 26.9642)
(0 -0 27.1404)
(0 -0 27.342)
(0 -0 27.5329)
(0 -0 27.7059)
(0 -0 27.8741)
(0 -0 28.044)
(0 -0 28.2138)
(0 -0 28.3805)
(0 -0 28.5426)
(0 -0 28.6997)
(0 -0 28.8516)
(0 -0 28.9985)
(0 -0 29.1406)
(0 -0 29.2786)
(0 -0 29.4128)
(0 -0 29.543)
(0 -0 29.6691)
(0 -0 29.7907)
(0 -0 29.9074)
(0 -0 30.0191)
(0 -0 30.1258)
(0 -0 30.2278)
(0 -0 30.3251)
(0 -0 30.4181)
(0 -0 30.5069)
(0 -0 30.5916)
(0 -0 30.6722)
(0 -0 30.7489)
(0 -0 30.8219)
(0 -0 30.8913)
(0 -0 30.9576)
(0 -0 31.0212)
(0 -0 31.082)
(0 -0 31.1407)
(0 -0 31.1967)
(0 -0 31.2508)
(0 -0 31.3011)
(0 -0 31.3498)
(0 -0 31.392)
(0 -0 31.4339)
(0 -0 31.4638)
(0 -0 31.4983)
(0 -0 31.5091)
(0 -0 31.5375)
(0 -0 31.5173)
(0 -0 31.5472)
(0 -0 24.6236)
(0 -0 24.5413)
(0 -0 24.6724)
(0 -0 24.796)
(0 -0 24.9452)
(0 -0 25.1176)
(0 -0 25.2839)
(0 -0 25.4355)
(0 -0 25.5826)
(0 -0 25.732)
(0 -0 25.8825)
(0 -0 26.0309)
(0 -0 26.1754)
(0 -0 26.3155)
(0 -0 26.4508)
(0 -0 26.5814)
(0 -0 26.7079)
(0 -0 26.8306)
(0 -0 26.9498)
(0 -0 27.0655)
(0 -0 27.1774)
(0 -0 27.285)
(0 -0 27.388)
(0 -0 27.4862)
(0 -0 27.5796)
(0 -0 27.6686)
(0 -0 27.7533)
(0 -0 27.8339)
(0 -0 27.9107)
(0 -0 27.9836)
(0 -0 28.0529)
(0 -0 28.1185)
(0 -0 28.1809)
(0 -0 28.2401)
(0 -0 28.2967)
(0 -0 28.351)
(0 -0 28.4032)
(0 -0 28.4538)
(0 -0 28.5023)
(0 -0 28.5495)
(0 -0 28.5935)
(0 -0 28.6364)
(0 -0 28.6737)
(0 -0 28.7111)
(0 -0 28.7376)
(0 -0 28.7689)
(0 -0 28.7781)
(0 -0 28.805)
(0 -0 28.7853)
(0 -0 28.8155)
(0 -0 22.6548)
(0 -0 22.5855)
(0 -0 22.6996)
(0 -0 22.8085)
(0 -0 22.935)
(0 -0 23.0816)
(0 -0 23.2257)
(0 -0 23.3581)
(0 -0 23.4865)
(0 -0 23.6177)
(0 -0 23.751)
(0 -0 23.8831)
(0 -0 24.0119)
(0 -0 24.1368)
(0 -0 24.2572)
(0 -0 24.3735)
(0 -0 24.4859)
(0 -0 24.5949)
(0 -0 24.7008)
(0 -0 24.8035)
(0 -0 24.9026)
(0 -0 24.9976)
(0 -0 25.0883)
(0 -0 25.1744)
(0 -0 25.2559)
(0 -0 25.3332)
(0 -0 25.4065)
(0 -0 25.476)
(0 -0 25.5419)
(0 -0 25.6042)
(0 -0 25.6632)
(0 -0 25.7189)
(0 -0 25.7716)
(0 -0 25.8218)
(0 -0 25.8696)
(0 -0 25.9157)
(0 -0 25.9602)
(0 -0 26.0036)
(0 -0 26.0454)
(0 -0 26.0865)
(0 -0 26.125)
(0 -0 26.163)
(0 -0 26.196)
(0 -0 26.2296)
(0 -0 26.2533)
(0 -0 26.2819)
(0 -0 26.29)
(0 -0 26.3156)
(0 -0 26.297)
(0 -0 26.3274)
(0 -0 20.854)
(0 -0 20.7952)
(0 -0 20.8933)
(0 -0 20.9895)
(0 -0 21.0968)
(0 -0 21.2209)
(0 -0 21.3451)
(0 -0 21.4602)
(0 -0 21.5722)
(0 -0 21.6873)
(0 -0 21.8053)
(0 -0 21.923)
(0 -0 22.038)
(0 -0 22.1493)
(0 -0 22.2567)
(0 -0 22.3601)
(0 -0 22.46)
(0 -0 22.5569)
(0 -0 22.651)
(0 -0 22.7421)
(0 -0 22.8298)
(0 -0 22.9137)
(0 -0 22.9934)
(0 -0 23.0686)
(0 -0 23.1395)
(0 -0 23.2063)
(0 -0 23.2693)
(0 -0 23.3288)
(0 -0 23.3849)
(0 -0 23.4378)
(0 -0 23.4875)
(0 -0 23.5343)
(0 -0 23.5785)
(0 -0 23.6204)
(0 -0 23.6605)
(0 -0 23.6993)
(0 -0 23.7369)
(0 -0 23.7739)
(0 -0 23.81)
(0 -0 23.8457)
(0 -0 23.8795)
(0 -0 23.9132)
(0 -0 23.9426)
(0 -0 23.973)
(0 -0 23.9944)
(0 -0 24.0209)
(0 -0 24.0283)
(0 -0 24.0528)
(0 -0 24.0356)
(0 -0 24.0661)
(0 -0 19.2083)
(0 -0 19.1578)
(0 -0 19.2415)
(0 -0 19.3265)
(0 -0 19.4177)
(0 -0 19.5223)
(0 -0 19.6286)
(0 -0 19.7284)
(0 -0 19.826)
(0 -0 19.927)
(0 -0 20.0315)
(0 -0 20.1365)
(0 -0 20.2393)
(0 -0 20.3388)
(0 -0 20.4346)
(0 -0 20.5268)
(0 -0 20.6157)
(0 -0 20.7019)
(0 -0 20.7854)
(0 -0 20.8663)
(0 -0 20.944)
(0 -0 21.018)
(0 -0 21.0879)
(0 -0 21.1535)
(0 -0 21.2148)
(0 -0 21.2723)
(0 -0 21.3262)
(0 -0 21.3768)
(0 -0 21.4241)
(0 -0 21.4685)
(0 -0 21.51)
(0 -0 21.5489)
(0 -0 21.5854)
(0 -0 21.62)
(0 -0 21.6532)
(0 -0 21.6855)
(0 -0 21.7171)
(0 -0 21.7486)
(0 -0 21.7796)
(0 -0 21.8107)
(0 -0 21.8404)
(0 -0 21.8704)
(0 -0 21.8969)
(0 -0 21.9245)
(0 -0 21.9442)
(0 -0 21.9689)
(0 -0 21.976)
(0 -0 21.9996)
(0 -0 21.9842)
(0 -0 22.0148)
(0 -0 17.7053)
(0 -0 17.6614)
(0 -0 17.7322)
(0 -0 17.8072)
(0 -0 17.8849)
(0 -0 17.9728)
(0 -0 18.0632)
(0 -0 18.1495)
(0 -0 18.2345)
(0 -0 18.3232)
(0 -0 18.4159)
(0 -0 18.5097)
(0 -0 18.6019)
(0 -0 18.6911)
(0 -0 18.7768)
(0 -0 18.859)
(0 -0 18.9383)
(0 -0 19.0151)
(0 -0 19.0895)
(0 -0 19.1614)
(0 -0 19.2302)
(0 -0 19.2955)
(0 -0 19.3567)
(0 -0 19.4138)
(0 -0 19.4667)
(0 -0 19.5159)
(0 -0 19.5617)
(0 -0 19.6043)
(0 -0 19.6439)
(0 -0 19.6808)
(0 -0 19.7149)
(0 -0 19.7467)
(0 -0 19.7764)
(0 -0 19.8046)
(0 -0 19.8316)
(0 -0 19.8582)
(0 -0 19.8846)
(0 -0 19.9112)
(0 -0 19.9378)
(0 -0 19.965)
(0 -0 19.9913)
(0 -0 20.0182)
(0 -0 20.0422)
(0 -0 20.0677)
(0 -0 20.086)
(0 -0 20.1092)
(0 -0 20.1164)
(0 -0 20.1393)
(0 -0 20.1259)
(0 -0 20.1564)
(0 -0 16.3328)
(0 -0 16.294)
(0 -0 16.3536)
(0 -0 16.4197)
(0 -0 16.4861)
(0 -0 16.5597)
(0 -0 16.6362)
(0 -0 16.7104)
(0 -0 16.7844)
(0 -0 16.8625)
(0 -0 16.9449)
(0 -0 17.0291)
(0 -0 17.1121)
(0 -0 17.1923)
(0 -0 17.2692)
(0 -0 17.3428)
(0 -0 17.4137)
(0 -0 17.4823)
(0 -0 17.5487)
(0 -0 17.6127)
(0 -0 17.6738)
(0 -0 17.7314)
(0 -0 17.7851)
(0 -0 17.8346)
(0 -0 17.8802)
(0 -0 17.922)
(0 -0 17.9606)
(0 -0 17.9962)
(0 -0 18.0289)
(0 -0 18.059)
(0 -0 18.0867)
(0 -0 18.1122)
(0 -0 18.1359)
(0 -0 18.1583)
(0 -0 18.18)
(0 -0 18.2016)
(0 -0 18.2234)
(0 -0 18.2458)
(0 -0 18.2687)
(0 -0 18.2925)
(0 -0 18.3159)
(0 -0 18.3403)
(0 -0 18.3624)
(0 -0 18.3859)
(0 -0 18.4033)
(0 -0 18.4254)
(0 -0 18.433)
(0 -0 18.4554)
(0 -0 18.4441)
(0 -0 18.4744)
(0 -0 15.0793)
(0 -0 15.0445)
(0 -0 15.0944)
(0 -0 15.1525)
(0 -0 15.2095)
(0 -0 15.271)
(0 -0 15.3352)
(0 -0 15.3988)
(0 -0 15.4633)
(0 -0 15.5322)
(0 -0 15.6058)
(0 -0 15.6816)
(0 -0 15.7567)
(0 -0 15.8291)
(0 -0 15.8984)
(0 -0 15.9646)
(0 -0 16.0282)
(0 -0 16.0897)
(0 -0 16.1491)
(0 -0 16.2064)