/*--------------------------------*- C++ -*----------------------------------*\
  =========                 |
  \\      /  F ield         | OpenFOAM: The Open Source CFD Toolbox
   \\    /   O peration     | Website:  https://openfoam.org
    \\  /    A nd           | Version:  7
     \\/     M anipulation  |
\*---------------------------------------------------------------------------*/
FoamFile
{
    version     2.0;
    format      ascii;
    class       volVectorField;
    location    "0.32";
    object      wallShearStress;
}
// * * * * * * * * * * * * * * * * * * * * * * * * * * * * * * * * * * * * * //

dimensions      [0 2 -2 0 0 0 0];

internalField   uniform (0 0 0);

boundaryField
{
    velocityInlet
    {
        type            calculated;
        value           uniform (0 0 0);
    }
    pressureOutlet
    {
        type            calculated;
        value           uniform (0 0 0);
    }
    fixedWalls
    {
        type            calculated;
        value           nonuniform List<vector> 
100
(
(-0.0175432 -0.00682797 0)
(0.00400689 -0.00122672 0)
(-0.000353389 0.00060678 0)
(-0.000559264 0.000118364 0)
(-0.00173349 0.000168757 0)
(-0.00255346 0.000116326 0)
(-0.00315679 8.28552e-05 0)
(-0.00360444 6.14391e-05 0)
(-0.0039471 4.82859e-05 0)
(-0.00421087 3.92693e-05 0)
(-0.0044006 3.11848e-05 0)
(-0.00451274 2.35147e-05 0)
(-0.00454673 1.56049e-05 0)
(-0.0045078 5.33379e-06 0)
(-0.00441038 -2.24195e-06 0)
(-0.00427534 -6.64857e-06 0)
(-0.00411931 -9.65288e-06 0)
(-0.00394803 -1.2772e-05 0)
(-0.00375193 -1.92172e-05 0)
(-0.00350868 -3.09933e-05 0)
(-0.00327221 -3.35795e-05 0)
(-0.00327867 1.01859e-05 0)
(-0.00382755 0.000102321 0)
(-0.00482296 0.000164716 0)
(-0.00548243 0.000127047 0)
(-0.00463862 -0.00015354 0)
(-0.0016792 -0.00047891 0)
(0.00217371 -0.000545246 0)
(0.00466417 -0.000314734 0)
(0.00464256 3.7506e-05 0)
(0.00260507 0.00027213 0)
(-0.000163749 0.000312611 0)
(-0.00261063 0.00024675 0)
(-0.00423726 0.000147926 0)
(-0.00504848 6.93175e-05 0)
(-0.00529205 2.31359e-05 0)
(-0.00521817 -4.3612e-06 0)
(-0.0049984 -1.71277e-05 0)
(-0.0047298 -2.11292e-05 0)
(-0.00446372 -2.05447e-05 0)
(-0.00421991 -1.82765e-05 0)
(-0.00399723 -1.65126e-05 0)
(-0.0037818 -1.66832e-05 0)
(-0.00355585 -1.91287e-05 0)
(-0.00330677 -2.30514e-05 0)
(-0.00303364 -2.69103e-05 0)
(-0.00274866 -2.90888e-05 0)
(-0.00247316 -2.85343e-05 0)
(-0.00223057 -2.51074e-05 0)
(-0.00203959 -1.95282e-05 0)
(-0.00191011 -1.29032e-05 0)
(-0.00184253 -6.47306e-06 0)
(-0.00182937 -1.32586e-06 0)
(-0.00185906 2.73625e-06 0)
(-0.00191974 5.28346e-06 0)
(-0.0020013 6.56851e-06 0)
(-0.0020973 7.01323e-06 0)
(-0.0022074 7.31496e-06 0)
(-0.00234382 9.27948e-06 0)
(-0.00254194 1.64912e-05 0)
(-0.00286365 3.23782e-05 0)
(-0.00337737 5.71327e-05 0)
(-0.00410283 8.40911e-05 0)
(-0.00490615 9.55663e-05 0)
(-0.0054184 7.28024e-05 0)
(-0.00510961 -1.69519e-05 0)
(-0.00361029 -0.000152198 0)
(-0.00098483 -0.000281074 0)
(0.00196754 -0.000299741 0)
(0.00407631 -0.000208637 0)
(0.00470773 -5.29338e-05 0)
(0.00392091 8.11075e-05 0)
(0.002372 0.000140784 0)
(0.000713555 0.000139045 0)
(-0.000683984 0.000112169 0)
(-0.00170417 7.83271e-05 0)
(-0.00238368 5.06935e-05 0)
(-0.002805 3.06923e-05 0)
(-0.00305034 1.72495e-05 0)
(-0.00318918 9.11209e-06 0)
(-0.00327936 5.36157e-06 0)
(-0.0033708 5.61738e-06 0)
(-0.00351281 1.0794e-05 0)
(-0.00375673 2.14744e-05 0)
(-0.00412729 3.44335e-05 0)
(-0.00458914 4.3575e-05 0)
(-0.00504817 4.46681e-05 0)
(-0.00539488 3.78592e-05 0)
(-0.0055181 2.53105e-05 0)
(-0.00530471 -1.53559e-06 0)
(-0.00464372 -4.0868e-05 0)
(-0.00346674 -8.95517e-05 0)
(-0.00187735 -0.000131257 0)
(-7.89003e-05 -0.000152671 0)
(0.00149006 -0.000132755 0)
(0.0025907 -9.25082e-05 0)
(0.0028479 -2.38929e-05 0)
(0.00249193 2.37782e-05 0)
(0.00167582 8.23214e-05 0)
(-0.000208909 7.51081e-05 0)
)
;
    }
    bottomWall
    {
        type            calculated;
        value           nonuniform List<vector> 
800
(
(-0.0353512 0.00216564 0)
(-0.016036 0.000524982 0)
(-0.0105896 0.000100575 0)
(-0.00845419 3.46096e-05 0)
(-0.00748954 1.97043e-05 0)
(-0.00685324 1.60339e-05 0)
(-0.0063438 1.32344e-05 0)
(-0.00593195 1.07851e-05 0)
(-0.00559673 8.98443e-06 0)
(-0.00531742 7.68457e-06 0)
(-0.00507943 6.69958e-06 0)
(-0.00487335 5.92137e-06 0)
(-0.0046927 5.29105e-06 0)
(-0.00453274 4.77174e-06 0)
(-0.00438989 4.33781e-06 0)
(-0.00426137 3.97071e-06 0)
(-0.00414499 3.65669e-06 0)
(-0.00403902 3.38544e-06 0)
(-0.00394203 3.14908e-06 0)
(-0.00385288 2.94154e-06 0)
(-0.00377061 2.75804e-06 0)
(-0.00369441 2.59479e-06 0)
(-0.00362361 2.44875e-06 0)
(-0.00355763 2.31747e-06 0)
(-0.00349597 2.1989e-06 0)
(-0.00343822 2.09137e-06 0)
(-0.003384 1.99349e-06 0)
(-0.00333298 1.90409e-06 0)
(-0.00328489 1.82216e-06 0)
(-0.00323946 1.74685e-06 0)
(-0.00319649 1.67743e-06 0)
(-0.00315577 1.61329e-06 0)
(-0.00311712 1.55386e-06 0)
(-0.0030804 1.49869e-06 0)
(-0.00304545 1.44733e-06 0)
(-0.00301214 1.39945e-06 0)
(-0.00298038 1.35471e-06 0)
(-0.00295004 1.31282e-06 0)
(-0.00292103 1.27354e-06 0)
(-0.00289327 1.23664e-06 0)
(-0.00286668 1.20193e-06 0)
(-0.00284119 1.16922e-06 0)
(-0.00281673 1.13838e-06 0)
(-0.00279324 1.10919e-06 0)
(-0.00277065 1.08171e-06 0)
(-0.00274893 1.05543e-06 0)
(-0.00272802 1.031e-06 0)
(-0.00270789 1.00696e-06 0)
(-0.00268846 9.85372e-07 0)
(-0.00266975 9.62344e-07 0)
(-0.00265411 9.43461e-07 0)
(-0.00264118 9.32735e-07 0)
(-0.00262842 9.19019e-07 0)
(-0.00261586 9.04402e-07 0)
(-0.00260348 8.90701e-07 0)
(-0.00259129 8.77666e-07 0)
(-0.00257928 8.6494e-07 0)
(-0.00256744 8.52483e-07 0)
(-0.00255577 8.40322e-07 0)
(-0.00254426 8.28452e-07 0)
(-0.00253292 8.16856e-07 0)
(-0.00252173 8.05521e-07 0)
(-0.00251069 7.94437e-07 0)
(-0.00249981 7.83596e-07 0)
(-0.00248907 7.72991e-07 0)
(-0.00247848 7.62614e-07 0)
(-0.00246803 7.52458e-07 0)
(-0.00245772 7.42516e-07 0)
(-0.00244754 7.32781e-07 0)
(-0.00243749 7.23248e-07 0)
(-0.00242758 7.13911e-07 0)
(-0.00241779 7.04763e-07 0)
(-0.00240812 6.958e-07 0)
(-0.00239858 6.87015e-07 0)
(-0.00238915 6.78403e-07 0)
(-0.00237985 6.6996e-07 0)
(-0.00237066 6.61681e-07 0)
(-0.00236158 6.53559e-07 0)
(-0.00235261 6.45592e-07 0)
(-0.00234375 6.37775e-07 0)
(-0.00233499 6.30103e-07 0)
(-0.00232634 6.22572e-07 0)
(-0.00231779 6.15178e-07 0)
(-0.00230935 6.07919e-07 0)
(-0.002301 6.00789e-07 0)
(-0.00229275 5.93787e-07 0)
(-0.00228459 5.86908e-07 0)
(-0.00227653 5.80149e-07 0)
(-0.00226856 5.73509e-07 0)
(-0.00226068 5.66982e-07 0)
(-0.00225289 5.60568e-07 0)
(-0.00224518 5.54264e-07 0)
(-0.00223757 5.48066e-07 0)
(-0.00223003 5.41972e-07 0)
(-0.00222258 5.3598e-07 0)
(-0.00221521 5.30088e-07 0)
(-0.00220792 5.24293e-07 0)
(-0.00220071 5.18592e-07 0)
(-0.00219358 5.12984e-07 0)
(-0.00218652 5.07465e-07 0)
(-0.00217954 5.02035e-07 0)
(-0.00217264 4.96689e-07 0)
(-0.0021658 4.91427e-07 0)
(-0.00215904 4.86246e-07 0)
(-0.00215235 4.81145e-07 0)
(-0.00214572 4.7612e-07 0)
(-0.00213917 4.7117e-07 0)
(-0.00213268 4.66295e-07 0)
(-0.00212626 4.61491e-07 0)
(-0.00211991 4.56758e-07 0)
(-0.00211362 4.52094e-07 0)
(-0.00210739 4.47499e-07 0)
(-0.00210123 4.4297e-07 0)
(-0.00209513 4.38508e-07 0)
(-0.00208908 4.34109e-07 0)
(-0.0020831 4.29775e-07 0)
(-0.00207718 4.25503e-07 0)
(-0.00207132 4.21293e-07 0)
(-0.00206551 4.17143e-07 0)
(-0.00205976 4.13053e-07 0)
(-0.00205406 4.09023e-07 0)
(-0.00204842 4.05049e-07 0)
(-0.00204284 4.01133e-07 0)
(-0.0020373 3.97273e-07 0)
(-0.00203182 3.93468e-07 0)
(-0.0020264 3.89717e-07 0)
(-0.00202102 3.8602e-07 0)
(-0.00201569 3.82375e-07 0)
(-0.00201041 3.78782e-07 0)
(-0.00200519 3.75241e-07 0)
(-0.00200001 3.7175e-07 0)
(-0.00199487 3.68309e-07 0)
(-0.00198979 3.64916e-07 0)
(-0.00198475 3.61573e-07 0)
(-0.00197976 3.58278e-07 0)
(-0.00197481 3.5503e-07 0)
(-0.0019699 3.51829e-07 0)
(-0.00196504 3.48673e-07 0)
(-0.00196023 3.45567e-07 0)
(-0.00195545 3.42499e-07 0)
(-0.00195072 3.39485e-07 0)
(-0.00194603 3.36499e-07 0)
(-0.00194138 3.33581e-07 0)
(-0.00193676 3.30665e-07 0)
(-0.00193219 3.27852e-07 0)
(-0.00192766 3.24989e-07 0)
(-0.00192317 3.22295e-07 0)
(-0.00191871 3.1945e-07 0)
(-0.00191429 3.16868e-07 0)
(-0.00190991 3.13956e-07 0)
(-0.00190623 3.11365e-07 0)
(-0.00190323 3.10014e-07 0)
(-0.00190022 3.08383e-07 0)
(-0.00189721 3.06516e-07 0)
(-0.00189419 3.04663e-07 0)
(-0.00189118 3.02879e-07 0)
(-0.00188815 3.01116e-07 0)
(-0.00188513 2.99356e-07 0)
(-0.0018821 2.97597e-07 0)
(-0.00187906 2.95843e-07 0)
(-0.00187603 2.94092e-07 0)
(-0.00187299 2.92347e-07 0)
(-0.00186995 2.90614e-07 0)
(-0.0018669 2.88896e-07 0)
(-0.00186385 2.87185e-07 0)
(-0.0018608 2.85472e-07 0)
(-0.00185774 2.83766e-07 0)
(-0.00185468 2.8207e-07 0)
(-0.00185162 2.80383e-07 0)
(-0.00184856 2.78699e-07 0)
(-0.00184549 2.77023e-07 0)
(-0.00184242 2.75352e-07 0)
(-0.00183935 2.73689e-07 0)
(-0.00183627 2.7204e-07 0)
(-0.00183319 2.70396e-07 0)
(-0.00183011 2.68762e-07 0)
(-0.00182702 2.67135e-07 0)
(-0.00182393 2.65512e-07 0)
(-0.00182084 2.63898e-07 0)
(-0.00181775 2.62291e-07 0)
(-0.00181465 2.60696e-07 0)
(-0.00181155 2.59115e-07 0)
(-0.00180845 2.57544e-07 0)
(-0.00180535 2.5598e-07 0)
(-0.00180224 2.54429e-07 0)
(-0.00179913 2.52886e-07 0)
(-0.00179602 2.51352e-07 0)
(-0.0017929 2.49832e-07 0)
(-0.00178978 2.48319e-07 0)
(-0.00178666 2.46833e-07 0)
(-0.00178354 2.45352e-07 0)
(-0.00178041 2.43889e-07 0)
(-0.00177728 2.42434e-07 0)
(-0.00177414 2.40987e-07 0)
(-0.00177101 2.39555e-07 0)
(-0.00176787 2.38141e-07 0)
(-0.00176472 2.36737e-07 0)
(-0.00176158 2.3534e-07 0)
(-0.00175843 2.33958e-07 0)
(-0.00175527 2.32611e-07 0)
(-0.00175211 2.31275e-07 0)
(-0.00174895 2.29948e-07 0)
(-0.00174579 2.28635e-07 0)
(-0.00174262 2.27337e-07 0)
(-0.00173945 2.26045e-07 0)
(-0.00173627 2.24777e-07 0)
(-0.00173309 2.23518e-07 0)
(-0.00172991 2.22296e-07 0)
(-0.00172672 2.21081e-07 0)
(-0.00172352 2.19895e-07 0)
(-0.00172032 2.18718e-07 0)
(-0.00171712 2.17561e-07 0)
(-0.00171391 2.16399e-07 0)
(-0.0017107 2.15259e-07 0)
(-0.00170748 2.14121e-07 0)
(-0.00170425 2.13069e-07 0)
(-0.00170102 2.12011e-07 0)
(-0.00169779 2.10955e-07 0)
(-0.00169455 2.09901e-07 0)
(-0.0016913 2.08901e-07 0)
(-0.00168804 2.07912e-07 0)
(-0.00168478 2.06941e-07 0)
(-0.00168152 2.05958e-07 0)
(-0.00167824 2.05022e-07 0)
(-0.00167496 2.04071e-07 0)
(-0.00167167 2.03222e-07 0)
(-0.00166837 2.02327e-07 0)
(-0.00166507 2.01535e-07 0)
(-0.00166175 2.00612e-07 0)
(-0.00165843 1.99958e-07 0)
(-0.0016551 1.98946e-07 0)
(-0.00165175 1.98518e-07 0)
(-0.00164841 1.97193e-07 0)
(-0.00164503 1.97424e-07 0)
(-0.00164169 1.95422e-07 0)
(-0.00163826 1.96932e-07 0)
(-0.00163493 1.93013e-07 0)
(-0.00163143 1.97598e-07 0)
(-0.00162814 1.89176e-07 0)
(-0.00162451 2.00725e-07 0)
(-0.00162135 1.82123e-07 0)
(-0.00161746 2.09089e-07 0)
(-0.0016146 1.68181e-07 0)
(-0.00161021 2.2794e-07 0)
(-0.00160795 1.40411e-07 0)
(-0.00160266 2.65978e-07 0)
(-0.00160147 8.76812e-08 0)
(-0.00159481 3.32907e-07 0)
(-0.00159514 4.46101e-09 0)
(-0.00158669 3.66449e-07 0)
(-0.0353514 -0.0021656 0)
(-0.0160374 -0.000524921 0)
(-0.0105927 -0.000100504 0)
(-0.00845936 -3.45402e-05 0)
(-0.00749684 -1.96317e-05 0)
(-0.00686283 -1.59575e-05 0)
(-0.00635577 -1.3155e-05 0)
(-0.00594634 -1.07031e-05 0)
(-0.00561357 -8.89993e-06 0)
(-0.00533673 -7.59747e-06 0)
(-0.00510126 -6.60952e-06 0)
(-0.00489775 -5.82771e-06 0)
(-0.00471974 -5.19301e-06 0)
(-0.00456252 -4.6685e-06 0)
(-0.00442252 -4.22854e-06 0)
(-0.00429697 -3.8546e-06 0)
(-0.00418372 -3.53296e-06 0)
(-0.00408102 -3.25331e-06 0)
(-0.00398748 -3.00773e-06 0)
(-0.00390195 -2.79005e-06 0)
(-0.0038235 -2.59534e-06 0)
(-0.00375135 -2.41961e-06 0)
(-0.00368484 -2.25957e-06 0)
(-0.00362343 -2.11249e-06 0)
(-0.00356667 -1.97602e-06 0)
(-0.00351417 -1.84819e-06 0)
(-0.0034656 -1.72721e-06 0)
(-0.00342071 -1.61158e-06 0)
(-0.00337926 -1.49976e-06 0)
(-0.00334108 -1.39065e-06 0)
(-0.00330602 -1.28264e-06 0)
(-0.00327397 -1.17509e-06 0)
(-0.00324486 -1.06591e-06 0)
(-0.00321862 -9.5525e-07 0)
(-0.00319525 -8.39936e-07 0)
(-0.00317474 -7.2153e-07 0)
(-0.0031571 -5.95164e-07 0)
(-0.00314248 -4.63872e-07 0)
(-0.00313071 -3.22543e-07 0)
(-0.00312247 -1.71178e-07 0)
(-0.00311666 -1.44894e-08 0)
(-0.0031158 1.61043e-07 0)
(-0.0031156 3.16133e-07 0)
(-0.00312417 5.52808e-07 0)
(-0.00312736 5.89729e-07 0)
(-0.00315001 1.00998e-06 0)
(-0.00314857 5.39665e-07 0)
(-0.00319551 1.83663e-06 0)
(-0.00317488 -6.95175e-06 0)
(-0.00302038 0.000214559 0)
(-5.37751e-05 2.86737e-05 0)
(-4.75742e-05 0.000100692 0)
(-4.10056e-05 0.000171121 0)
(-4.54041e-06 0.00024577 0)
(4.5342e-05 0.000265738 0)
(2.35371e-05 0.00028419 0)
(-0.000161854 0.000454161 0)
(-0.00038554 0.0008965 0)
(-0.00034514 0.00136397 0)
(-0.000178871 0.00155814 0)
(-0.000113585 0.00164681 0)
(-6.6561e-05 0.00170338 0)
(-2.33069e-05 0.00170502 0)
(5.77412e-06 0.00167698 0)
(3.19973e-05 0.00161939 0)
(5.58592e-05 0.00153965 0)
(8.31683e-05 0.00143134 0)
(0.000110301 0.00129518 0)
(0.000138301 0.00113101 0)
(0.000166534 0.000938148 0)
(0.000192491 0.000720226 0)
(0.000216593 0.000483527 0)
(0.000239242 0.00022529 0)
(0.00024675 -5.72483e-05 0)
(0.000246153 -0.000334675 0)
(0.000243073 -0.000606513 0)
(0.00023696 -0.000873375 0)
(0.000227659 -0.00113139 0)
(0.00021582 -0.00137737 0)
(0.000202165 -0.00160931 0)
(0.000187285 -0.001826 0)
(0.000171631 -0.00202679 0)
(0.000155535 -0.00221144 0)
(0.000139219 -0.00237995 0)
(0.000122824 -0.0025325 0)
(0.000106416 -0.00266937 0)
(9.00249e-05 -0.00279086 0)
(7.36295e-05 -0.00289728 0)
(5.72103e-05 -0.00298887 0)
(4.07161e-05 -0.00306597 0)
(2.40862e-05 -0.00312864 0)
(7.29121e-06 -0.00317721 0)
(-9.81225e-06 -0.00321162 0)
(-2.72712e-05 -0.00323203 0)
(-4.54674e-05 -0.00323867 0)
(-6.47923e-05 -0.00323041 0)
(-8.46112e-05 -0.00320753 0)
(-0.000104834 -0.00317021 0)
(-0.000125216 -0.00311846 0)
(-0.000145611 -0.00305251 0)
(-0.000165997 -0.00297268 0)
(-0.000186351 -0.00287928 0)
(-0.000206582 -0.00277257 0)
(-0.000226498 -0.00265286 0)
(-0.000245849 -0.00252057 0)
(-0.00026425 -0.00237625 0)
(-0.000281206 -0.00222058 0)
(-0.000296225 -0.0020545 0)
(-0.000308977 -0.001879 0)
(-0.000319383 -0.00169563 0)
(-0.000327849 -0.00150516 0)
(-0.000335194 -0.00131049 0)
(-0.00034517 -0.00111039 0)
(-0.00035788 -0.000911889 0)
(-0.000401575 -0.00070858 0)
(-0.000447909 -0.000413436 0)
(-0.000307966 -6.97569e-05 0)
(2.17683e-05 0.000185672 0)
(0.000429151 0.000302398 0)
(0.000633802 0.000213243 0)
(0.000666615 7.05385e-05 0)
(0.000595718 -6.35584e-05 0)
(0.000364116 -0.000173145 0)
(4.31438e-05 -0.000161642 0)
(-0.000144635 -5.48914e-05 0)
(-0.000151236 -1.54825e-05 0)
(-0.000136633 -8.57197e-05 0)
(-0.00017915 -0.000136703 0)
(-0.000181887 -0.000102263 0)
(-8.61573e-05 -5.85203e-05 0)
(3.26713e-05 -7.98945e-05 0)
(9.486e-05 -0.000142393 0)
(9.82842e-05 -0.000185391 0)
(8.12813e-05 -0.000200651 0)
(6.30574e-05 -0.000208611 0)
(4.56909e-05 -0.000219983 0)
(2.78929e-05 -0.00023262 0)
(1.13003e-05 -0.000241359 0)
(-2.61221e-06 -0.000242931 0)
(-1.2278e-05 -0.000237052 0)
(-1.78523e-05 -0.000225797 0)
(-2.06731e-05 -0.000210912 0)
(-2.18105e-05 -0.000193793 0)
(-2.2046e-05 -0.000175759 0)
(-2.20438e-05 -0.000158245 0)
(-2.24325e-05 -0.000142315 0)
(-2.35582e-05 -0.000128213 0)
(-2.5458e-05 -0.000115501 0)
(-2.78219e-05 -0.000103385 0)
(-3.01877e-05 -9.12415e-05 0)
(-3.19815e-05 -7.87475e-05 0)
(-3.25012e-05 -6.58061e-05 0)
(-3.08764e-05 -5.2819e-05 0)
(-2.64736e-05 -4.06654e-05 0)
(-1.91923e-05 -3.03188e-05 0)
(-9.67101e-06 -2.23439e-05 0)
(8.90113e-07 -1.64968e-05 0)
(1.11754e-05 -1.15312e-05 0)
(2.03585e-05 -5.82718e-06 0)
(2.8024e-05 1.72404e-06 0)
(3.33639e-05 1.12401e-05 0)
(3.45462e-05 2.2482e-05 0)
(2.89376e-05 3.57976e-05 0)
(1.40209e-05 5.27596e-05 0)
(-1.12898e-05 7.63746e-05 0)
(-4.53624e-05 0.000110192 0)
(-8.37929e-05 0.000156294 0)
(-0.000121572 0.00021352 0)
(-0.000155969 0.000278483 0)
(-0.000186799 0.000348413 0)
(-0.000214369 0.000422411 0)
(-0.000238 0.000500158 0)
(-0.000256496 0.000580497 0)
(-0.000269192 0.000661515 0)
(-0.000276263 0.000741358 0)
(-0.000278393 0.00081869 0)
(-0.000276385 0.000892674 0)
(-0.000270939 0.000962783 0)
(-0.000262602 0.00102864 0)
(-0.000251776 0.00108995 0)
(-0.000238764 0.00114644 0)
(-0.000223801 0.00119787 0)
(-0.000207087 0.001244 0)
(-0.000188793 0.00128463 0)
(-0.000169075 0.0013196 0)
(-0.000148088 0.00134873 0)
(-0.000126013 0.00137187 0)
(-0.000103066 0.0013889 0)
(-7.9448e-05 0.00139977 0)
(-5.52329e-05 0.0014045 0)
(-3.0734e-05 0.00140298 0)
(-6.15304e-06 0.00139559 0)
(1.86946e-05 0.00138236 0)
(4.37373e-05 0.00136334 0)
(6.89316e-05 0.00133858 0)
(9.42259e-05 0.00130816 0)
(0.000119549 0.00127216 0)
(0.000144823 0.00123069 0)
(0.000169952 0.00118389 0)
(0.000194829 0.00113189 0)
(0.00021933 0.00107487 0)
(0.000243317 0.001013 0)
(0.000266637 0.000946498 0)
(0.000289117 0.000875601 0)
(0.00031057 0.000800566 0)
(0.000330787 0.000721674 0)
(0.000349543 0.000639229 0)
(0.000366588 0.000553557 0)
(0.000381649 0.000465013 0)
(0.000394426 0.000373992 0)
(0.000404594 0.000280945 0)
(0.000411813 0.000186407 0)
(0.00041575 9.10161e-05 0)
(0.000416078 -4.48326e-06 0)
(0.000412525 -9.92344e-05 0)
(0.000404927 -0.000192321 0)
(0.000393187 -0.000282838 0)
(0.000377278 -0.000369851 0)
(0.000357337 -0.000452504 0)
(0.000333567 -0.000530082 0)
(0.000306243 -0.000601944 0)
(0.000275692 -0.000667552 0)
(0.000242281 -0.000726439 0)
(0.000206416 -0.000778214 0)
(0.00016855 -0.000822553 0)
(0.000129171 -0.000859225 0)
(8.8795e-05 -0.00088809 0)
(4.79498e-05 -0.000909112 0)
(7.24333e-06 -0.000922357 0)
(-3.29415e-05 -0.000928021 0)
(-7.23268e-05 -0.000926165 0)
(-0.000110173 -0.000916972 0)
(-0.000145823 -0.000900906 0)
(-0.000178893 -0.000878393 0)
(-0.000208981 -0.000849988 0)
(-0.000235741 -0.000816303 0)
(-0.000258887 -0.000777938 0)
(-0.00027819 -0.000735482 0)
(-0.000293471 -0.00068953 0)
(-0.000304581 -0.000640716 0)
(-0.00031142 -0.000589761 0)
(-0.000314 -0.000537608 0)
(-0.0003126 -0.000485806 0)
(-0.000308157 -0.00043749 0)
(-0.000303249 -0.000399539 0)
(-0.000304365 -0.000386569 0)
(-0.000327252 -0.000426525 0)
(-0.00040553 -0.000562168 0)
(-0.000587333 -0.000835282 0)
(-0.000889157 -0.00123775 0)
(-1.14738e-06 5.86035e-05 0)
(-6.67471e-05 6.19689e-05 0)
(-0.000112839 5.47291e-05 0)
(-0.000154594 4.89013e-05 0)
(-0.000198209 4.59238e-05 0)
(-0.000243167 4.3891e-05 0)
(-0.000287862 4.23597e-05 0)
(-0.000331637 4.23738e-05 0)
(-0.000375891 4.54498e-05 0)
(-0.000423515 5.28872e-05 0)
(-0.000478654 6.53565e-05 0)
(-0.000546679 8.17058e-05 0)
(-0.000631162 9.70709e-05 0)
(-0.000730128 0.000104973 0)
(-0.000835554 0.000100258 0)
(-0.000934624 8.16524e-05 0)
(-0.00101477 5.42801e-05 0)
(-0.00107055 2.65018e-05 0)
(-0.00110388 3.06168e-06 0)
(-0.00111746 -1.4801e-05 0)
(-0.00111434 -2.49894e-05 0)
(-0.0011014 -2.72126e-05 0)
(-0.00108431 -2.52805e-05 0)
(-0.0010662 -2.13779e-05 0)
(-0.00105079 -1.47994e-05 0)
(-0.00104328 -5.08577e-06 0)
(-0.0010473 9.27968e-06 0)
(-0.00106607 3.03318e-05 0)
(-0.00110313 5.79213e-05 0)
(-0.00116047 8.7483e-05 0)
(-0.00123625 0.000112657 0)
(-0.00132559 0.000128128 0)
(-0.00142193 0.000130212 0)
(-0.00151694 0.000116463 0)
(-0.00159993 8.62936e-05 0)
(-0.00166115 4.43571e-05 0)
(-0.00169578 -3.02031e-06 0)
(-0.00170269 -5.34231e-05 0)
(-0.00167735 -0.000109314 0)
(-0.00160899 -0.000172345 0)
(-0.00148561 -0.00023552 0)
(-0.001303 -0.000285815 0)
(-0.00107065 -0.000315066 0)
(-0.000807426 -0.000329437 0)
(-0.000527284 -0.000344869 0)
(-0.000225872 -0.000365561 0)
(0.000105439 -0.000365613 0)
(0.000423016 -0.000303109 0)
(0.000650744 -0.000189122 0)
(0.000784306 -7.21181e-05 0)
(0.000835623 2.47949e-05 0)
(0.00081169 9.19036e-05 0)
(0.000730119 0.000120497 0)
(0.000625836 0.000100736 0)
(0.000543178 4.95239e-05 0)
(0.00050947 3.0295e-05 0)
(0.000539001 9.63567e-05 0)
(0.000603228 0.000219662 0)
(0.000661457 0.000210562 0)
(0.000917271 -0.000207418 0)
(0.0011794 -0.000756007 0)
(0.00188849 -0.000821546 0)
(0.00225731 -0.000260771 0)
(0.00202996 4.34986e-05 0)
(0.00196266 -7.9623e-05 0)
(0.00206031 -8.25109e-05 0)
(0.0020345 5.71694e-05 0)
(0.00192597 7.53437e-05 0)
(0.00188031 2.82937e-05 0)
(0.00185305 4.11211e-05 0)
(0.00178585 7.83831e-05 0)
(0.0016978 9.09921e-05 0)
(0.00161217 9.15499e-05 0)
(0.00152429 9.86934e-05 0)
(0.00142605 0.000111239 0)
(0.00131713 0.000123407 0)
(0.00119979 0.000133654 0)
(0.00107523 0.000142561 0)
(0.000944025 0.000150452 0)
(0.000806942 0.000157153 0)
(0.000665206 0.000162312 0)
(0.000520576 0.000165599 0)
(0.000375307 0.00016685 0)
(0.000231043 0.000166021 0)
(8.67133e-05 0.000161026 0)
(-5.29267e-05 0.000147688 0)
(-0.000176462 0.000128825 0)
(-0.000282104 0.000106637 0)
(-0.000367826 8.094e-05 0)
(-0.000429325 5.20973e-05 0)
(-0.000463516 2.17107e-05 0)
(-0.000469561 -8.64582e-06 0)
(-0.000448583 -3.63294e-05 0)
(-0.00040479 -5.77151e-05 0)
(-0.000345649 -6.97732e-05 0)
(-0.000280997 -7.39217e-05 0)
(-0.000222318 -6.20527e-05 0)
(-0.000195382 -5.72485e-05 0)
(-0.000154456 -9.73086e-05 0)
(-1.05774e-05 -0.00011162 0)
(-0.000114541 -4.37153e-05 0)
(-0.000138465 -0.000240254 0)
(-0.000139034 -0.000425336 0)
(-0.000160314 -0.000612725 0)
(-0.000194974 -0.000846875 0)
(-0.000229596 -0.00113123 0)
(-0.000256329 -0.00145734 0)
(-0.000268544 -0.00180968 0)
(-0.000259832 -0.00216886 0)
(-0.000224875 -0.00250678 0)
(-0.000158181 -0.00279136 0)
(-6.17389e-05 -0.00298311 0)
(6.53199e-05 -0.00306141 0)
(0.00022185 -0.00298558 0)
(0.000395535 -0.00273913 0)
(0.000569434 -0.00230869 0)
(0.000714375 -0.00169983 0)
(0.000776349 -0.000938346 0)
(0.00065608 -0.000107963 0)
(0.00029803 0.00057916 0)
(3.19883e-06 0.000875288 0)
(5.77579e-05 0.000956871 0)
(0.00024142 0.00115305 0)
(0.00026872 0.00142162 0)
(0.000167044 0.00161414 0)
(3.35857e-05 0.00165983 0)
(-9.32735e-05 0.00156986 0)
(-0.000191201 0.00138309 0)
(-0.00026073 0.00112614 0)
(-0.000300839 0.000833362 0)
(-0.000321729 0.000531945 0)
(-0.000327477 0.000222794 0)
(-0.000313031 -7.89326e-05 0)
(-0.000304311 -0.000363379 0)
(-0.000263088 -0.000642035 0)
(-0.000190627 -0.000831012 0)
(-0.000141315 -0.000945373 0)
(-7.15887e-05 -0.00101409 0)
(2.1047e-05 -0.00101153 0)
(8.09331e-05 -0.000982491 0)
(0.000160028 -0.000989099 0)
(0.000329807 -0.000983052 0)
(0.000499849 -0.000840957 0)
(0.000483043 -0.000608146 0)
(0.000313269 -0.000571277 0)
(-0.000108594 -0.000630994 0)
(-0.000445358 -0.00065152 0)
(-0.000542753 -0.000670332 0)
(-0.000639456 -0.000796022 0)
(-0.000650119 -0.000869853 0)
(-0.000568487 -0.000894358 0)
(-0.000386186 -0.000853616 0)
(-7.06412e-05 -0.000710309 0)
(0.000359283 -0.000433273 0)
(0.000837146 3.93743e-05 0)
(0.00100691 0.000714207 0)
(0.000669005 0.00122781 0)
(0.000376767 0.0013368 0)
(0.000326316 0.00142108 0)
(0.000248677 0.00153479 0)
(0.000163988 0.00157362 0)
(0.000113882 0.00157511 0)
(7.10451e-05 0.00155549 0)
(5.06395e-05 0.00151722 0)
(5.56471e-05 0.00148354 0)
(8.13056e-05 0.00147149 0)
(0.000122511 0.00149595 0)
(0.000163508 0.00156439 0)
(0.000188927 0.001672 0)
(0.000187026 0.00180409 0)
(0.000152649 0.00194123 0)
(8.90291e-05 0.00206251 0)
(7.85169e-06 0.00214698 0)
(-7.40886e-05 0.00218023 0)
(-0.000143553 0.00217412 0)
(-0.000199594 0.0021886 0)
(-0.000261485 0.00226991 0)
(-0.00031192 0.00234959 0)
(-0.000206681 0.0023779 0)
(0.000232087 0.00265454 0)
(0.000931133 0.00281327 0)
(0.00127295 0.00318881 0)
(0.00101261 0.00397063 0)
(0.000306104 0.00413645 0)
(-1.16189e-05 0.00378867 0)
(9.98827e-05 0.00368342 0)
(0.000117605 0.00379998 0)
(-4.83401e-05 0.00382133 0)
(-0.000119169 0.00370202 0)
(-7.88161e-05 0.00363958 0)
(-9.09476e-05 0.00363434 0)
(-0.000142705 0.00358402 0)
(-0.000152789 0.0035072 0)
(-0.000147638 0.00345643 0)
(-0.000165233 0.00341117 0)
(-0.00018349 0.00334959 0)
(-0.000189384 0.00328892 0)
(-0.000198028 0.00323651 0)
(-0.00021129 0.00318219 0)
(-0.000220228 0.00312633 0)
(-0.000225848 0.00307534 0)
(-0.000231579 0.00302816 0)
(-0.000235236 0.00298251 0)
(-0.000235256 0.00293975 0)
(-0.0002327 0.00290039 0)
(-0.000227625 0.00286382 0)
(-0.000219964 0.00283117 0)
(-0.000210943 0.00280433 0)
(-0.000201499 0.00278492 0)
(-0.000191171 0.00277526 0)
(-0.000178041 0.00277878 0)
(-0.000158624 0.00279952 0)
(-0.000127353 0.00284108 0)
(-7.53653e-05 0.00290531 0)
(1.15173e-05 0.00299178 0)
(0.000154674 0.00310184 0)
(0.000380776 0.00324918 0)
(0.000710882 0.00346568 0)
(0.00112234 0.00377296 0)
(0.00151648 0.00420024 0)
(0.0017815 0.00480404 0)
(0.00183422 0.00546625 0)
(0.00171546 0.00602658 0)
(0.00154773 0.00642561 0)
(0.00141216 0.00674974 0)
(0.00130256 0.00706399 0)
(0.0011994 0.00736204 0)
(0.00110449 0.00763328 0)
(0.00101853 0.00788416 0)
(0.000936498 0.00811713 0)
(0.000856907 0.00833008 0)
(0.000779318 0.00852362 0)
(0.000702436 0.00869791 0)
(0.000626261 0.00885233 0)
(0.000551096 0.00898738 0)
(0.000476841 0.00910352 0)
(0.000403768 0.00920098 0)
(0.000332185 0.00928045 0)
(0.000262078 0.00934265 0)
(0.000193364 0.00938798 0)
(0.000126099 0.00941689 0)
(6.06126e-05 0.00942989 0)
(-2.39254e-06 0.0094277 0)
(-6.21448e-05 0.00941208 0)
(-0.000120668 0.00938498 0)
(-0.000178577 0.00934519 0)
(-0.000235236 0.00929383 0)
(-0.000291401 0.00923094 0)
(-0.000346838 0.00915675 0)
(-0.000401759 0.00907175 0)
(-0.000456261 0.00897608 0)
(-0.000510335 0.00887014 0)
(-0.000564088 0.0087542 0)
(-0.000617511 0.00862857 0)
(-0.000670642 0.00849357 0)
(-0.000723491 0.0083495 0)
(-0.000776065 0.00819669 0)
(-0.000828379 0.00803545 0)
(-0.000880442 0.00786609 0)
(-0.000932275 0.00768895 0)
(-0.0009839 0.00750435 0)
(-0.00103535 0.0073126 0)
(-0.00108667 0.00711403 0)
(-0.00113792 0.00690895 0)
(-0.00118916 0.00669768 0)
(-0.00124048 0.00648055 0)
(-0.00129197 0.00625786 0)
(-0.00134376 0.00602994 0)
(-0.00139599 0.0057971 0)
(-0.00144884 0.00555966 0)
(-0.00150251 0.00531793 0)
(-0.00155724 0.00507221 0)
(-0.00161333 0.0048228 0)
(-0.00167112 0.00456995 0)
(-0.00173101 0.00431387 0)
(-0.00179347 0.00405467 0)
(-0.00185899 0.00379234 0)
(-0.00192813 0.00352673 0)
(-0.00200146 0.00325747 0)
(-0.00207949 0.00298397 0)
(-0.00216269 0.00270547 0)
(-0.00225141 0.00242108 0)
(-0.00234584 0.0021299 0)
(-0.00244609 0.0018312 0)
(-0.00255228 0.00152459 0)
(-0.00266456 0.00121004 0)
(-0.00278275 0.000887983 0)
(-0.00290673 0.000559424 0)
(-0.0030404 0.00022565 0)
(-0.00318714 -0.000113758 0)
(-0.00334578 -0.00045861 0)
(-0.00351888 -0.000807804 0)
(-0.0037121 -0.00116381 0)
(-0.00392732 -0.00151973 0)
(-0.00417381 -0.00190998 0)
(-0.00442976 -0.00224409 0)
(-0.00476153 -0.00274656 0)
(-0.00499908 -0.00291142 0)
(-0.00546979 -0.00379931 0)
(-0.00523414 -0.00318299 0)
)
;
    }
    frontAndBack
    {
        type            empty;
    }
}


// ************************************************************************* //
