/*--------------------------------*- C++ -*----------------------------------*\
  =========                 |
  \\      /  F ield         | OpenFOAM: The Open Source CFD Toolbox
   \\    /   O peration     | Website:  https://openfoam.org
    \\  /    A nd           | Version:  7
     \\/     M anipulation  |
\*---------------------------------------------------------------------------*/
FoamFile
{
    version     2.0;
    format      ascii;
    class       volScalarField;
    location    "0.47";
    object      k;
}
// * * * * * * * * * * * * * * * * * * * * * * * * * * * * * * * * * * * * * //

dimensions      [0 2 -2 0 0 0 0];

internalField   nonuniform List<scalar> 
70000
(
1.08549e-05
4.21881e-06
2.82449e-06
2.31697e-06
1.99778e-06
1.75747e-06
1.56564e-06
1.40879e-06
1.27816e-06
1.16748e-06
1.07274e-06
9.90729e-07
9.19376e-07
8.56686e-07
8.01492e-07
7.524e-07
7.08729e-07
6.69464e-07
6.34222e-07
6.02266e-07
5.73372e-07
5.46995e-07
5.22976e-07
5.00935e-07
4.80719e-07
4.62103e-07
4.44897e-07
4.29029e-07
4.14234e-07
4.00615e-07
3.87766e-07
3.76046e-07
3.64751e-07
3.54705e-07
3.44602e-07
3.3613e-07
3.26846e-07
3.19939e-07
3.11425e-07
3.06489e-07
2.98391e-07
2.95217e-07
2.8742e-07
2.85976e-07
2.78161e-07
2.80517e-07
2.71927e-07
2.87149e-07
2.85662e-07
3.40207e-07
1.72795e-05
1.13673e-05
8.52087e-06
7.01083e-06
6.03798e-06
5.31179e-06
4.73276e-06
4.25906e-06
3.86451e-06
3.53023e-06
3.2441e-06
2.99643e-06
2.78092e-06
2.59156e-06
2.42482e-06
2.27649e-06
2.14452e-06
2.02586e-06
1.91933e-06
1.82274e-06
1.73538e-06
1.65563e-06
1.58301e-06
1.51635e-06
1.45522e-06
1.39891e-06
1.34688e-06
1.29886e-06
1.25412e-06
1.2129e-06
1.17403e-06
1.13856e-06
1.10437e-06
1.07398e-06
1.04337e-06
1.01775e-06
9.89621e-07
9.6873e-07
9.4288e-07
9.27436e-07
9.02796e-07
8.92314e-07
8.69028e-07
8.62557e-07
8.40309e-07
8.41965e-07
8.21386e-07
8.47579e-07
8.65147e-07
9.21023e-07
1.93701e-05
1.61297e-05
1.32914e-05
1.12901e-05
9.82952e-06
8.69711e-06
7.78009e-06
7.0224e-06
6.38669e-06
5.84536e-06
5.38033e-06
4.9766e-06
4.62443e-06
4.31429e-06
4.04067e-06
3.7968e-06
3.57946e-06
3.38374e-06
3.20779e-06
3.04808e-06
2.90348e-06
2.77136e-06
2.65093e-06
2.5403e-06
2.43878e-06
2.34516e-06
2.25866e-06
2.17869e-06
2.10422e-06
2.03549e-06
1.97071e-06
1.91152e-06
1.85445e-06
1.8037e-06
1.75254e-06
1.70969e-06
1.66277e-06
1.62751e-06
1.58423e-06
1.55712e-06
1.51599e-06
1.4969e-06
1.45801e-06
1.44468e-06
1.40864e-06
1.40485e-06
1.37495e-06
1.39361e-06
1.45831e-06
1.48011e-06
1.9861e-05
1.82599e-05
1.60859e-05
1.42005e-05
1.2641e-05
1.13495e-05
1.02624e-05
9.34007e-06
8.54964e-06
7.86629e-06
7.27286e-06
6.75303e-06
6.29621e-06
5.89132e-06
5.53207e-06
5.21017e-06
4.92195e-06
4.6613e-06
4.42617e-06
4.21204e-06
4.01764e-06
3.83952e-06
3.67684e-06
3.52695e-06
3.38927e-06
3.26186e-06
3.14414e-06
3.03488e-06
2.93325e-06
2.83902e-06
2.75036e-06
2.669e-06
2.59069e-06
2.52074e-06
2.45043e-06
2.39099e-06
2.32679e-06
2.27696e-06
2.21768e-06
2.1776e-06
2.1218e-06
2.09214e-06
2.0393e-06
2.01784e-06
1.96977e-06
1.95753e-06
1.91748e-06
1.92301e-06
2.00952e-06
2.01034e-06
1.99707e-05
1.78457e-05
1.60749e-05
1.47663e-05
1.36027e-05
1.25375e-05
1.157e-05
1.0702e-05
9.92213e-06
9.22624e-06
8.60749e-06
8.05441e-06
7.56025e-06
7.11592e-06
6.71665e-06
6.35466e-06
6.02735e-06
5.72869e-06
5.45737e-06
5.20857e-06
4.98146e-06
4.77205e-06
4.58005e-06
4.40202e-06
4.23817e-06
4.08549e-06
3.94439e-06
3.81244e-06
3.68988e-06
3.57535e-06
3.4679e-06
3.36841e-06
3.27311e-06
3.18697e-06
3.10131e-06
3.02725e-06
2.94939e-06
2.8861e-06
2.8147e-06
2.76156e-06
2.6956e-06
2.65223e-06
2.59104e-06
2.55831e-06
2.5015e-06
2.47876e-06
2.43231e-06
2.41423e-06
2.49275e-06
2.48552e-06
2.00095e-05
1.47038e-05
1.37475e-05
1.32102e-05
1.25907e-05
1.19261e-05
1.12773e-05
1.06564e-05
1.008e-05
9.54536e-06
9.04589e-06
8.57896e-06
8.14686e-06
7.74634e-06
7.37654e-06
7.03316e-06
6.71681e-06
6.42323e-06
6.15312e-06
5.90202e-06
5.67048e-06
5.45435e-06
5.25472e-06
5.06744e-06
4.89441e-06
4.73115e-06
4.58011e-06
4.43708e-06
4.3045e-06
4.17893e-06
4.06167e-06
3.95137e-06
3.84672e-06
3.75e-06
3.65573e-06
3.57108e-06
3.48571e-06
3.41161e-06
3.33409e-06
3.26929e-06
3.19913e-06
3.14246e-06
3.07954e-06
3.03042e-06
2.97534e-06
2.93274e-06
2.89365e-06
2.84491e-06
2.90143e-06
2.89239e-06
2.01331e-05
1.54686e-05
9.6347e-06
9.39693e-06
9.49118e-06
9.49015e-06
9.43124e-06
9.29214e-06
9.05222e-06
8.77794e-06
8.48367e-06
8.18574e-06
7.895e-06
7.61086e-06
7.33535e-06
7.07341e-06
6.8275e-06
6.59208e-06
6.37029e-06
6.15814e-06
5.95867e-06
5.76793e-06
5.58937e-06
5.41829e-06
5.25897e-06
5.10529e-06
4.96283e-06
4.8252e-06
4.69792e-06
4.5747e-06
4.46047e-06
4.35014e-06
4.24708e-06
4.14831e-06
4.05497e-06
3.9664e-06
3.88193e-06
3.80209e-06
3.72605e-06
3.65342e-06
3.58589e-06
3.51884e-06
3.46037e-06
3.3974e-06
3.34909e-06
3.28846e-06
3.25591e-06
3.18703e-06
3.21805e-06
3.20551e-06
2.01712e-05
1.86766e-05
8.69566e-06
5.54e-06
5.62956e-06
5.93237e-06
6.28988e-06
6.57404e-06
6.75306e-06
6.8609e-06
6.87967e-06
6.85989e-06
6.80755e-06
6.71788e-06
6.60744e-06
6.4848e-06
6.34779e-06
6.20458e-06
6.06312e-06
5.91954e-06
5.7802e-06
5.64124e-06
5.50856e-06
5.37711e-06
5.25272e-06
5.13023e-06
5.01707e-06
4.90396e-06
4.79956e-06
4.69466e-06
4.59831e-06
4.50121e-06
4.41249e-06
4.32268e-06
4.24128e-06
4.15803e-06
4.08391e-06
4.00618e-06
3.93958e-06
3.86612e-06
3.80742e-06
3.73701e-06
3.68681e-06
3.61857e-06
3.57716e-06
3.51051e-06
3.47819e-06
3.40346e-06
3.41149e-06
3.39342e-06
2.01671e-05
1.97241e-05
1.61696e-05
4.86517e-06
3.0425e-06
3.10494e-06
3.37259e-06
3.80138e-06
4.16618e-06
4.48268e-06
4.72902e-06
4.91706e-06
5.05689e-06
5.15547e-06
5.21316e-06
5.2478e-06
5.24981e-06
5.24044e-06
5.21788e-06
5.17654e-06
5.1292e-06
5.07119e-06
5.01157e-06
4.94414e-06
4.87781e-06
4.80518e-06
4.73533e-06
4.65978e-06
4.58976e-06
4.51494e-06
4.44689e-06
4.374e-06
4.3091e-06
4.23841e-06
4.17744e-06
4.10907e-06
4.05263e-06
3.98621e-06
3.93496e-06
3.86994e-06
3.82468e-06
3.76095e-06
3.72141e-06
3.65868e-06
3.62427e-06
3.56297e-06
3.53287e-06
3.46337e-06
3.4569e-06
3.4336e-06
2.01476e-05
1.99343e-05
1.90664e-05
1.45029e-05
5.25108e-06
2.15597e-06
1.91442e-06
1.99282e-06
2.20487e-06
2.50202e-06
2.7768e-06
3.02795e-06
3.2515e-06
3.44613e-06
3.60845e-06
3.7445e-06
3.85464e-06
3.94035e-06
4.01089e-06
4.06012e-06
4.09811e-06
4.11896e-06
4.13353e-06
4.13322e-06
4.12927e-06
4.11815e-06
4.10373e-06
4.0799e-06
4.05736e-06
4.02649e-06
3.99835e-06
3.96258e-06
3.93113e-06
3.89138e-06
3.85911e-06
3.81629e-06
3.78417e-06
3.73902e-06
3.70789e-06
3.66091e-06
3.63107e-06
3.58235e-06
3.55416e-06
3.5045e-06
3.47791e-06
3.42777e-06
3.40225e-06
3.34532e-06
3.33235e-06
3.30605e-06
2.01216e-05
1.99661e-05
1.96427e-05
1.85479e-05
1.52186e-05
8.3741e-06
3.11581e-06
1.63473e-06
1.44261e-06
1.44878e-06
1.52449e-06
1.68337e-06
1.86433e-06
2.03913e-06
2.20783e-06
2.36422e-06
2.5101e-06
2.63783e-06
2.75489e-06
2.85481e-06
2.94515e-06
3.01965e-06
3.08644e-06
3.13958e-06
3.18618e-06
3.22178e-06
3.25365e-06
3.27511e-06
3.29421e-06
3.30473e-06
3.31347e-06
3.31574e-06
3.31507e-06
3.31139e-06
3.3063e-06
3.2949e-06
3.28662e-06
3.26942e-06
3.25863e-06
3.23687e-06
3.224e-06
3.19843e-06
3.18391e-06
3.15503e-06
3.13894e-06
3.10678e-06
3.08885e-06
3.04964e-06
3.03408e-06
3.01107e-06
2.00981e-05
1.99327e-05
1.97576e-05
1.93534e-05
1.85086e-05
1.65431e-05
1.23446e-05
6.88308e-06
3.00398e-06
1.4976e-06
1.24406e-06
1.14744e-06
1.1507e-06
1.1917e-06
1.28237e-06
1.38666e-06
1.49821e-06
1.60478e-06
1.71352e-06
1.81493e-06
1.91337e-06
2.00251e-06
2.08735e-06
2.16268e-06
2.23377e-06
2.29555e-06
2.35379e-06
2.40339e-06
2.44988e-06
2.4887e-06
2.5248e-06
2.55423e-06
2.58144e-06
2.60216e-06
2.62244e-06
2.63573e-06
2.6496e-06
2.65681e-06
2.6646e-06
2.66728e-06
2.66868e-06
2.6673e-06
2.66467e-06
2.65791e-06
2.65217e-06
2.63953e-06
2.63025e-06
2.60948e-06
2.5973e-06
2.58012e-06
2.00781e-05
1.98876e-05
1.97571e-05
1.94618e-05
1.91473e-05
1.86438e-05
1.75621e-05
1.54382e-05
1.17678e-05
7.48157e-06
4.01431e-06
1.93278e-06
1.21335e-06
1.05817e-06
9.83427e-07
9.41067e-07
9.51141e-07
9.82497e-07
1.04375e-06
1.10481e-06
1.17238e-06
1.23917e-06
1.3078e-06
1.37418e-06
1.44068e-06
1.50242e-06
1.56318e-06
1.61855e-06
1.67264e-06
1.72121e-06
1.76847e-06
1.81018e-06
1.85066e-06
1.88565e-06
1.9195e-06
1.94832e-06
1.97593e-06
1.99892e-06
2.02071e-06
2.03828e-06
2.05462e-06
2.06667e-06
2.07811e-06
2.08469e-06
2.091e-06
2.09223e-06
2.09138e-06
2.0867e-06
2.08123e-06
2.07049e-06
2.00613e-05
1.98539e-05
1.97346e-05
1.9472e-05
1.92566e-05
1.90487e-05
1.87387e-05
1.81957e-05
1.71078e-05
1.52514e-05
1.26028e-05
9.2866e-06
6.03062e-06
3.52797e-06
1.91452e-06
1.18058e-06
9.67704e-07
8.92121e-07
8.38517e-07
7.9489e-07
7.95259e-07
8.0661e-07
8.33558e-07
8.69613e-07
9.08187e-07
9.47226e-07
9.89374e-07
1.03027e-06
1.07342e-06
1.11442e-06
1.15627e-06
1.19506e-06
1.23373e-06
1.26944e-06
1.30431e-06
1.33644e-06
1.3675e-06
1.39547e-06
1.4227e-06
1.44628e-06
1.4694e-06
1.48839e-06
1.50713e-06
1.52131e-06
1.53529e-06
1.54432e-06
1.55242e-06
1.55572e-06
1.55528e-06
1.55143e-06
2.00475e-05
1.98304e-05
1.9708e-05
1.94499e-05
1.92735e-05
1.91166e-05
1.89673e-05
1.8753e-05
1.84664e-05
1.79199e-05
1.70903e-05
1.57265e-05
1.39216e-05
1.15945e-05
8.93528e-06
6.33785e-06
4.15928e-06
2.57328e-06
1.55194e-06
1.05161e-06
8.69619e-07
8.02279e-07
7.54661e-07
7.12982e-07
6.82237e-07
6.73688e-07
6.77942e-07
6.88788e-07
7.08914e-07
7.29444e-07
7.52619e-07
7.74889e-07
7.99251e-07
8.23703e-07
8.48656e-07
8.73463e-07
8.98324e-07
9.21948e-07
9.45558e-07
9.66951e-07
9.88346e-07
1.007e-06
1.02565e-06
1.04095e-06
1.05658e-06
1.06761e-06
1.07937e-06
1.08547e-06
1.09097e-06
1.09016e-06
2.00362e-05
1.98125e-05
1.96855e-05
1.94197e-05
1.92596e-05
1.91103e-05
1.90023e-05
1.88516e-05
1.8715e-05
1.85044e-05
1.82533e-05
1.78414e-05
1.72474e-05
1.63856e-05
1.52029e-05
1.36842e-05
1.19035e-05
9.84745e-06
7.72366e-06
5.7367e-06
4.04707e-06
2.7527e-06
1.81337e-06
1.21747e-06
9.10388e-07
7.77256e-07
7.17948e-07
6.79963e-07
6.45746e-07
6.13417e-07
5.91541e-07
5.7706e-07
5.76673e-07
5.79535e-07
5.8633e-07
5.96796e-07
6.0817e-07
6.19886e-07
6.31809e-07
6.43614e-07
6.55692e-07
6.67522e-07
6.79568e-07
6.90778e-07
7.01917e-07
7.11304e-07
7.2061e-07
7.26775e-07
7.32285e-07
7.32741e-07
2.00271e-05
1.97986e-05
1.96663e-05
1.93978e-05
1.92339e-05
1.9083e-05
1.89843e-05
1.88549e-05
1.87393e-05
1.85991e-05
1.84642e-05
1.82936e-05
1.80882e-05
1.78032e-05
1.7424e-05
1.68869e-05
1.61926e-05
1.5287e-05
1.41716e-05
1.28529e-05
1.13899e-05
9.76546e-06
8.08935e-06
6.47143e-06
4.99894e-06
3.74453e-06
2.74406e-06
1.96619e-06
1.39941e-06
1.02928e-06
8.18938e-07
7.09903e-07
6.54274e-07
6.19919e-07
5.92791e-07
5.67277e-07
5.42953e-07
5.22598e-07
5.06842e-07
4.97372e-07
4.9165e-07
4.9135e-07
4.9237e-07
4.95032e-07
4.9819e-07
5.02504e-07
5.05379e-07
5.09e-07
5.10802e-07
5.13535e-07
2.002e-05
1.97901e-05
1.96461e-05
1.93815e-05
1.92099e-05
1.90542e-05
1.89463e-05
1.88288e-05
1.87178e-05
1.85926e-05
1.84756e-05
1.83495e-05
1.82257e-05
1.80835e-05
1.7928e-05
1.77315e-05
1.7491e-05
1.7178e-05
1.67817e-05
1.62737e-05
1.56532e-05
1.49015e-05
1.40126e-05
1.29987e-05
1.18801e-05
1.06829e-05
9.4034e-06
8.10261e-06
6.83101e-06
5.63841e-06
4.55955e-06
3.62123e-06
2.84295e-06
2.20449e-06
1.69231e-06
1.29996e-06
1.01743e-06
8.29018e-07
7.1102e-07
6.40066e-07
5.96669e-07
5.68446e-07
5.47185e-07
5.2992e-07
5.13623e-07
5.00741e-07
4.87014e-07
4.7888e-07
4.72139e-07
4.73141e-07
2.00144e-05
1.97902e-05
1.96197e-05
1.93684e-05
1.91893e-05
1.9028e-05
1.89102e-05
1.87932e-05
1.86777e-05
1.85574e-05
1.84449e-05
1.83286e-05
1.82155e-05
1.80991e-05
1.79837e-05
1.78647e-05
1.77391e-05
1.76003e-05
1.74408e-05
1.72538e-05
1.70263e-05
1.67547e-05
1.64211e-05
1.60238e-05
1.55491e-05
1.50011e-05
1.4369e-05
1.36568e-05
1.28678e-05
1.2016e-05
1.1112e-05
1.01771e-05
9.20196e-06
8.22083e-06
7.25605e-06
6.33279e-06
5.46746e-06
4.67822e-06
3.96912e-06
3.35144e-06
2.82476e-06
2.38012e-06
2.0088e-06
1.70562e-06
1.46425e-06
1.28222e-06
1.14741e-06
1.0648e-06
1.01419e-06
1.00777e-06
2.00102e-05
1.97943e-05
1.95927e-05
1.93549e-05
1.91703e-05
1.90033e-05
1.88765e-05
1.8758e-05
1.86379e-05
1.85153e-05
1.83991e-05
1.82835e-05
1.81705e-05
1.80616e-05
1.79512e-05
1.78456e-05
1.77362e-05
1.76305e-05
1.75211e-05
1.74131e-05
1.72956e-05
1.71731e-05
1.70325e-05
1.68769e-05
1.66958e-05
1.64879e-05
1.62453e-05
1.59667e-05
1.56447e-05
1.52801e-05
1.48653e-05
1.44102e-05
1.39047e-05
1.33577e-05
1.27668e-05
1.21436e-05
1.14933e-05
1.08247e-05
1.01457e-05
9.46783e-06
8.78787e-06
8.12928e-06
7.4932e-06
6.90471e-06
6.3558e-06
5.88238e-06
5.4615e-06
5.12978e-06
4.85996e-06
4.67882e-06
2.0007e-05
1.9802e-05
1.95679e-05
1.93419e-05
1.91526e-05
1.89801e-05
1.88444e-05
1.87241e-05
1.85995e-05
1.84739e-05
1.83534e-05
1.82357e-05
1.81187e-05
1.80082e-05
1.78952e-05
1.77901e-05
1.7684e-05
1.75839e-05
1.74814e-05
1.73856e-05
1.72858e-05
1.71908e-05
1.70921e-05
1.69953e-05
1.68954e-05
1.67909e-05
1.66788e-05
1.65585e-05
1.64261e-05
1.62803e-05
1.61141e-05
1.59359e-05
1.57303e-05
1.55098e-05
1.52581e-05
1.4988e-05
1.4692e-05
1.43747e-05
1.40303e-05
1.36727e-05
1.3292e-05
1.29066e-05
1.2501e-05
1.21025e-05
1.16941e-05
1.13167e-05
1.09413e-05
1.0602e-05
1.03116e-05
1.00699e-05
2.00047e-05
1.98105e-05
1.95449e-05
1.93288e-05
1.91356e-05
1.89584e-05
1.88137e-05
1.86914e-05
1.85629e-05
1.84338e-05
1.83096e-05
1.81886e-05
1.80679e-05
1.79546e-05
1.78382e-05
1.77307e-05
1.76209e-05
1.75182e-05
1.74137e-05
1.73171e-05
1.72195e-05
1.71292e-05
1.70365e-05
1.69482e-05
1.68617e-05
1.67751e-05
1.66874e-05
1.66021e-05
1.6517e-05
1.64305e-05
1.63391e-05
1.62515e-05
1.61517e-05
1.60557e-05
1.5943e-05
1.58301e-05
1.57074e-05
1.55769e-05
1.54321e-05
1.52822e-05
1.51197e-05
1.49561e-05
1.47734e-05
1.45909e-05
1.43959e-05
1.4212e-05
1.40147e-05
1.3823e-05
1.36479e-05
1.34927e-05
2.0003e-05
1.98193e-05
1.95238e-05
1.93151e-05
1.91189e-05
1.8938e-05
1.87846e-05
1.86597e-05
1.85281e-05
1.83956e-05
1.82681e-05
1.81436e-05
1.80193e-05
1.79031e-05
1.77832e-05
1.76729e-05
1.75599e-05
1.74543e-05
1.73464e-05
1.72473e-05
1.71463e-05
1.70526e-05
1.69571e-05
1.68666e-05
1.67797e-05
1.66942e-05
1.66101e-05
1.65305e-05
1.64522e-05
1.63745e-05
1.62963e-05
1.62248e-05
1.61463e-05
1.6077e-05
1.59987e-05
1.59279e-05
1.58557e-05
1.57842e-05
1.57065e-05
1.56306e-05
1.55528e-05
1.54793e-05
1.5393e-05
1.53103e-05
1.52215e-05
1.51411e-05
1.50469e-05
1.49555e-05
1.48621e-05
1.47854e-05
2.00017e-05
1.98274e-05
1.95047e-05
1.93002e-05
1.91021e-05
1.89189e-05
1.8757e-05
1.86293e-05
1.84951e-05
1.83596e-05
1.8229e-05
1.81014e-05
1.79737e-05
1.78545e-05
1.77315e-05
1.76183e-05
1.75023e-05
1.73941e-05
1.72826e-05
1.71813e-05
1.70776e-05
1.69809e-05
1.68823e-05
1.6789e-05
1.66991e-05
1.66106e-05
1.65216e-05
1.64401e-05
1.63588e-05
1.62785e-05
1.61999e-05
1.6128e-05
1.6053e-05
1.5987e-05
1.59143e-05
1.58497e-05
1.57851e-05
1.57249e-05
1.5659e-05
1.5598e-05
1.55391e-05
1.54866e-05
1.54244e-05
1.53696e-05
1.53123e-05
1.52639e-05
1.52055e-05
1.515e-05
1.50892e-05
1.50457e-05
2.00009e-05
1.98305e-05
1.9489e-05
1.92847e-05
1.90854e-05
1.89014e-05
1.87316e-05
1.86006e-05
1.84641e-05
1.83263e-05
1.81928e-05
1.80624e-05
1.79316e-05
1.78098e-05
1.7684e-05
1.75679e-05
1.74492e-05
1.73386e-05
1.72238e-05
1.71205e-05
1.70144e-05
1.69151e-05
1.68138e-05
1.67185e-05
1.66257e-05
1.65352e-05
1.64425e-05
1.63592e-05
1.62745e-05
1.6191e-05
1.61098e-05
1.60345e-05
1.59559e-05
1.58857e-05
1.5811e-05
1.57438e-05
1.56764e-05
1.5616e-05
1.55486e-05
1.54884e-05
1.54316e-05
1.53824e-05
1.53234e-05
1.52726e-05
1.52204e-05
1.51761e-05
1.5125e-05
1.50755e-05
1.50218e-05
1.49844e-05
2.00003e-05
1.98288e-05
1.94763e-05
1.92685e-05
1.90687e-05
1.88857e-05
1.87087e-05
1.8574e-05
1.84357e-05
1.82962e-05
1.816e-05
1.80273e-05
1.78936e-05
1.77695e-05
1.76413e-05
1.75228e-05
1.74017e-05
1.72889e-05
1.71711e-05
1.7066e-05
1.69577e-05
1.6856e-05
1.67524e-05
1.66558e-05
1.65602e-05
1.64683e-05
1.63729e-05
1.62882e-05
1.62009e-05
1.61151e-05
1.60318e-05
1.59542e-05
1.58728e-05
1.57996e-05
1.57231e-05
1.56531e-05
1.55823e-05
1.552e-05
1.54494e-05
1.53869e-05
1.53276e-05
1.52757e-05
1.52141e-05
1.51615e-05
1.51081e-05
1.50626e-05
1.50102e-05
1.49614e-05
1.49061e-05
1.48669e-05
2e-05
1.98271e-05
1.94655e-05
1.92507e-05
1.90513e-05
1.88713e-05
1.86883e-05
1.85497e-05
1.84098e-05
1.82694e-05
1.8131e-05
1.79963e-05
1.78603e-05
1.77345e-05
1.76042e-05
1.74837e-05
1.73605e-05
1.72458e-05
1.71255e-05
1.7019e-05
1.69089e-05
1.68049e-05
1.66996e-05
1.66019e-05
1.65037e-05
1.64107e-05
1.63132e-05
1.62273e-05
1.61381e-05
1.60504e-05
1.59657e-05
1.58864e-05
1.58028e-05
1.5728e-05
1.56503e-05
1.55784e-05
1.55055e-05
1.54413e-05
1.53687e-05
1.53051e-05
1.52442e-05
1.51899e-05
1.51258e-05
1.50724e-05
1.50168e-05
1.49705e-05
1.49139e-05
1.48662e-05
1.48076e-05
1.47655e-05
1.99999e-05
1.98258e-05
1.94576e-05
1.92325e-05
1.90339e-05
1.88586e-05
1.8671e-05
1.85283e-05
1.83869e-05
1.82463e-05
1.81064e-05
1.79701e-05
1.78323e-05
1.77053e-05
1.75734e-05
1.74513e-05
1.73266e-05
1.72101e-05
1.70881e-05
1.69805e-05
1.68688e-05
1.67628e-05
1.66564e-05
1.65579e-05
1.64576e-05
1.63635e-05
1.62648e-05
1.61778e-05
1.6087e-05
1.59979e-05
1.59122e-05
1.58315e-05
1.57463e-05
1.56706e-05
1.55918e-05
1.55186e-05
1.54446e-05
1.53789e-05
1.53049e-05
1.52414e-05
1.51795e-05
1.51232e-05
1.50576e-05
1.50047e-05
1.49473e-05
1.49009e-05
1.48406e-05
1.47942e-05
1.47339e-05
1.46882e-05
1.99999e-05
1.98251e-05
1.94526e-05
1.92151e-05
1.90173e-05
1.88479e-05
1.86575e-05
1.85105e-05
1.83677e-05
1.82276e-05
1.80869e-05
1.79492e-05
1.78104e-05
1.76827e-05
1.75496e-05
1.74266e-05
1.73007e-05
1.71828e-05
1.70597e-05
1.69514e-05
1.68385e-05
1.67311e-05
1.66241e-05
1.65249e-05
1.64231e-05
1.63282e-05
1.62288e-05
1.61411e-05
1.60487e-05
1.5959e-05
1.58726e-05
1.57904e-05
1.57044e-05
1.56282e-05
1.55482e-05
1.54745e-05
1.53999e-05
1.53326e-05
1.5258e-05
1.51954e-05
1.51326e-05
1.50745e-05
1.50083e-05
1.49565e-05
1.4898e-05
1.48507e-05
1.47891e-05
1.47425e-05
1.46827e-05
1.46325e-05
1.99999e-05
1.98247e-05
1.94501e-05
1.91992e-05
1.90021e-05
1.88392e-05
1.86481e-05
1.84969e-05
1.83527e-05
1.82138e-05
1.80729e-05
1.79344e-05
1.77953e-05
1.76674e-05
1.75335e-05
1.74102e-05
1.72836e-05
1.71648e-05
1.70413e-05
1.69327e-05
1.68188e-05
1.67107e-05
1.66037e-05
1.65041e-05
1.64016e-05
1.63058e-05
1.62066e-05
1.61184e-05
1.60246e-05
1.5935e-05
1.58481e-05
1.57645e-05
1.56786e-05
1.56021e-05
1.5521e-05
1.54473e-05
1.53725e-05
1.53037e-05
1.5229e-05
1.51678e-05
1.5104e-05
1.50442e-05
1.49782e-05
1.49276e-05
1.48685e-05
1.48198e-05
1.47584e-05
1.47109e-05
1.46521e-05
1.45984e-05
1.99999e-05
1.98248e-05
1.94502e-05
1.91858e-05
1.89888e-05
1.88322e-05
1.8643e-05
1.84878e-05
1.83423e-05
1.8205e-05
1.80649e-05
1.79259e-05
1.77872e-05
1.76596e-05
1.75256e-05
1.74026e-05
1.72757e-05
1.71568e-05
1.70334e-05
1.69252e-05
1.68105e-05
1.67025e-05
1.65961e-05
1.64964e-05
1.6394e-05
1.62975e-05
1.61991e-05
1.61109e-05
1.60159e-05
1.59272e-05
1.584e-05
1.57553e-05
1.56701e-05
1.55935e-05
1.55115e-05
1.54383e-05
1.53634e-05
1.52934e-05
1.52194e-05
1.51595e-05
1.50945e-05
1.50336e-05
1.49685e-05
1.49189e-05
1.48591e-05
1.48093e-05
1.47484e-05
1.47004e-05
1.46413e-05
1.45861e-05
1.99999e-05
1.98252e-05
1.94524e-05
1.91752e-05
1.89775e-05
1.88267e-05
1.8642e-05
1.84834e-05
1.83367e-05
1.82015e-05
1.80627e-05
1.79242e-05
1.77865e-05
1.76599e-05
1.75265e-05
1.74042e-05
1.72776e-05
1.7159e-05
1.70363e-05
1.69286e-05
1.68139e-05
1.67064e-05
1.66008e-05
1.65013e-05
1.63995e-05
1.63028e-05
1.62055e-05
1.61175e-05
1.60219e-05
1.59344e-05
1.58471e-05
1.57622e-05
1.56779e-05
1.56012e-05
1.5519e-05
1.54467e-05
1.53717e-05
1.53012e-05
1.52283e-05
1.51695e-05
1.51035e-05
1.50421e-05
1.49785e-05
1.49295e-05
1.48691e-05
1.48189e-05
1.47583e-05
1.47108e-05
1.46496e-05
1.4595e-05
1.99999e-05
1.98262e-05
1.94569e-05
1.91683e-05
1.89687e-05
1.88231e-05
1.86445e-05
1.84836e-05
1.83359e-05
1.8203e-05
1.80662e-05
1.79287e-05
1.77924e-05
1.76668e-05
1.75344e-05
1.74134e-05
1.72875e-05
1.71698e-05
1.70485e-05
1.69421e-05
1.68276e-05
1.67215e-05
1.66175e-05
1.65186e-05
1.64182e-05
1.63217e-05
1.62264e-05
1.61391e-05
1.60432e-05
1.59576e-05
1.58704e-05
1.57857e-05
1.57029e-05
1.56264e-05
1.55444e-05
1.54733e-05
1.53984e-05
1.53278e-05
1.52567e-05
1.51988e-05
1.51319e-05
1.50706e-05
1.50089e-05
1.49605e-05
1.48996e-05
1.48494e-05
1.47892e-05
1.47422e-05
1.46791e-05
1.4625e-05
1.99999e-05
1.98277e-05
1.94635e-05
1.91647e-05
1.89626e-05
1.88205e-05
1.86508e-05
1.84883e-05
1.83393e-05
1.82089e-05
1.80747e-05
1.79391e-05
1.7805e-05
1.76813e-05
1.75508e-05
1.74318e-05
1.73072e-05
1.71912e-05
1.70719e-05
1.69671e-05
1.68536e-05
1.67495e-05
1.66475e-05
1.655e-05
1.64513e-05
1.6356e-05
1.62628e-05
1.61766e-05
1.60813e-05
1.59979e-05
1.59111e-05
1.58275e-05
1.57464e-05
1.56703e-05
1.55891e-05
1.55196e-05
1.5445e-05
1.53749e-05
1.53058e-05
1.52486e-05
1.51809e-05
1.51205e-05
1.50607e-05
1.50125e-05
1.49513e-05
1.49013e-05
1.48417e-05
1.47946e-05
1.47304e-05
1.46761e-05
1.99999e-05
1.98296e-05
1.94717e-05
1.91651e-05
1.89592e-05
1.88196e-05
1.86595e-05
1.84975e-05
1.83477e-05
1.82197e-05
1.80885e-05
1.79554e-05
1.78239e-05
1.77025e-05
1.75743e-05
1.74576e-05
1.73349e-05
1.72211e-05
1.71042e-05
1.70016e-05
1.68896e-05
1.67882e-05
1.66887e-05
1.65931e-05
1.64965e-05
1.64029e-05
1.63125e-05
1.62276e-05
1.61336e-05
1.60528e-05
1.59668e-05
1.58849e-05
1.58058e-05
1.57302e-05
1.56506e-05
1.55829e-05
1.55087e-05
1.54397e-05
1.53729e-05
1.53163e-05
1.52483e-05
1.51893e-05
1.51315e-05
1.50834e-05
1.5022e-05
1.49727e-05
1.49138e-05
1.48664e-05
1.48014e-05
1.47473e-05
1.99999e-05
1.9832e-05
1.94814e-05
1.91688e-05
1.89586e-05
1.88203e-05
1.86702e-05
1.85104e-05
1.836e-05
1.82344e-05
1.81064e-05
1.79765e-05
1.78479e-05
1.77293e-05
1.76039e-05
1.74898e-05
1.73697e-05
1.72586e-05
1.71445e-05
1.70445e-05
1.69346e-05
1.68364e-05
1.67396e-05
1.66466e-05
1.65525e-05
1.64613e-05
1.63739e-05
1.62908e-05
1.61988e-05
1.61208e-05
1.6036e-05
1.59565e-05
1.58794e-05
1.58048e-05
1.57273e-05
1.56616e-05
1.55882e-05
1.55208e-05
1.54563e-05
1.54002e-05
1.53323e-05
1.52752e-05
1.52193e-05
1.51712e-05
1.51099e-05
1.50616e-05
1.50032e-05
1.49556e-05
1.48902e-05
1.48363e-05
1.99999e-05
1.98348e-05
1.94918e-05
1.91764e-05
1.8961e-05
1.88228e-05
1.86824e-05
1.85265e-05
1.83761e-05
1.82524e-05
1.81279e-05
1.80015e-05
1.78763e-05
1.77608e-05
1.76385e-05
1.75274e-05
1.74103e-05
1.73023e-05
1.71914e-05
1.70943e-05
1.69871e-05
1.68925e-05
1.67987e-05
1.67089e-05
1.66176e-05
1.65294e-05
1.64455e-05
1.63644e-05
1.6275e-05
1.62e-05
1.61169e-05
1.60403e-05
1.59654e-05
1.58921e-05
1.58172e-05
1.57536e-05
1.56812e-05
1.56158e-05
1.55538e-05
1.54981e-05
1.54308e-05
1.5376e-05
1.53217e-05
1.52736e-05
1.52128e-05
1.51656e-05
1.51076e-05
1.506e-05
1.49944e-05
1.4941e-05
1.99999e-05
1.9838e-05
1.9503e-05
1.91868e-05
1.89663e-05
1.88276e-05
1.86958e-05
1.85455e-05
1.83955e-05
1.82736e-05
1.81524e-05
1.80298e-05
1.79084e-05
1.77963e-05
1.76773e-05
1.75694e-05
1.74556e-05
1.73511e-05
1.72436e-05
1.71498e-05
1.70455e-05
1.6955e-05
1.68646e-05
1.67783e-05
1.669e-05
1.66054e-05
1.65252e-05
1.64466e-05
1.63603e-05
1.62885e-05
1.62074e-05
1.61341e-05
1.60614e-05
1.59898e-05
1.5918e-05
1.58565e-05
1.57854e-05
1.57225e-05
1.56628e-05
1.56075e-05
1.55413e-05
1.5489e-05
1.54362e-05
1.5388e-05
1.5328e-05
1.5282e-05
1.52244e-05
1.5177e-05
1.51114e-05
1.50587e-05
1.99999e-05
1.98414e-05
1.95145e-05
1.91998e-05
1.89744e-05
1.88346e-05
1.87098e-05
1.85665e-05
1.84178e-05
1.82973e-05
1.81792e-05
1.80606e-05
1.79432e-05
1.78348e-05
1.77192e-05
1.76146e-05
1.75046e-05
1.74037e-05
1.72997e-05
1.72093e-05
1.71085e-05
1.70223e-05
1.69355e-05
1.68531e-05
1.67681e-05
1.66875e-05
1.6611e-05
1.65353e-05
1.64525e-05
1.6384e-05
1.63055e-05
1.62356e-05
1.61651e-05
1.60958e-05
1.60274e-05
1.5968e-05
1.58984e-05
1.58383e-05
1.57808e-05
1.57258e-05
1.56611e-05
1.56114e-05
1.556e-05
1.55117e-05
1.54527e-05
1.54079e-05
1.53507e-05
1.53036e-05
1.52384e-05
1.51866e-05
1.99999e-05
1.98449e-05
1.95261e-05
1.92148e-05
1.89853e-05
1.88438e-05
1.87242e-05
1.85888e-05
1.84423e-05
1.83231e-05
1.82078e-05
1.80932e-05
1.79799e-05
1.78754e-05
1.77633e-05
1.76621e-05
1.7556e-05
1.74588e-05
1.73585e-05
1.72717e-05
1.71745e-05
1.70929e-05
1.70099e-05
1.69316e-05
1.68499e-05
1.67738e-05
1.67012e-05
1.66288e-05
1.65497e-05
1.64847e-05
1.64089e-05
1.63427e-05
1.62745e-05
1.62078e-05
1.61429e-05
1.60855e-05
1.60177e-05
1.59605e-05
1.59051e-05
1.58505e-05
1.57877e-05
1.57406e-05
1.56902e-05
1.56419e-05
1.55841e-05
1.55404e-05
1.54839e-05
1.54372e-05
1.53726e-05
1.53216e-05
1.99999e-05
1.98486e-05
1.95376e-05
1.92314e-05
1.89986e-05
1.88554e-05
1.8739e-05
1.86118e-05
1.84686e-05
1.83505e-05
1.82377e-05
1.81269e-05
1.8018e-05
1.79174e-05
1.78087e-05
1.7711e-05
1.76089e-05
1.75155e-05
1.74188e-05
1.73358e-05
1.72423e-05
1.71654e-05
1.70861e-05
1.70123e-05
1.69339e-05
1.68629e-05
1.67939e-05
1.67252e-05
1.66499e-05
1.65884e-05
1.65158e-05
1.64531e-05
1.63873e-05
1.63236e-05
1.62621e-05
1.62069e-05
1.61411e-05
1.60867e-05
1.60332e-05
1.59792e-05
1.59185e-05
1.58738e-05
1.58243e-05
1.5776e-05
1.57195e-05
1.56769e-05
1.56213e-05
1.55751e-05
1.55113e-05
1.54612e-05
1.99999e-05
1.98523e-05
1.95489e-05
1.92492e-05
1.9014e-05
1.8869e-05
1.87542e-05
1.86351e-05
1.84962e-05
1.83792e-05
1.82685e-05
1.81614e-05
1.80568e-05
1.79602e-05
1.78547e-05
1.77604e-05
1.76624e-05
1.75728e-05
1.74795e-05
1.74003e-05
1.73106e-05
1.72386e-05
1.71628e-05
1.70938e-05
1.70186e-05
1.69533e-05
1.68873e-05
1.68232e-05
1.67512e-05
1.66935e-05
1.66244e-05
1.65649e-05
1.65019e-05
1.64414e-05
1.63829e-05
1.633e-05
1.62665e-05
1.62146e-05
1.61628e-05
1.61098e-05
1.60512e-05
1.60086e-05
1.59599e-05
1.59117e-05
1.58564e-05
1.58151e-05
1.57604e-05
1.5715e-05
1.56521e-05
1.56029e-05
1.99999e-05
1.9856e-05
1.95599e-05
1.92677e-05
1.90313e-05
1.88845e-05
1.87698e-05
1.86581e-05
1.85243e-05
1.84086e-05
1.82997e-05
1.81961e-05
1.80956e-05
1.8003e-05
1.79007e-05
1.78096e-05
1.77157e-05
1.76298e-05
1.75398e-05
1.74644e-05
1.73785e-05
1.73113e-05
1.72389e-05
1.71749e-05
1.71027e-05
1.70436e-05
1.69802e-05
1.69212e-05
1.68522e-05
1.67985e-05
1.67331e-05
1.66763e-05
1.66166e-05
1.65594e-05
1.65035e-05
1.64532e-05
1.63919e-05
1.63422e-05
1.62923e-05
1.62404e-05
1.61838e-05
1.61429e-05
1.6095e-05
1.60467e-05
1.59929e-05
1.59528e-05
1.58992e-05
1.58545e-05
1.57927e-05
1.57447e-05
1.99999e-05
1.98596e-05
1.95706e-05
1.92864e-05
1.90499e-05
1.89015e-05
1.87858e-05
1.86806e-05
1.85526e-05
1.84384e-05
1.8331e-05
1.82308e-05
1.81341e-05
1.80452e-05
1.7946e-05
1.78582e-05
1.77683e-05
1.76858e-05
1.75988e-05
1.75272e-05
1.74451e-05
1.73827e-05
1.73132e-05
1.72544e-05
1.71854e-05
1.71325e-05
1.70713e-05
1.70178e-05
1.69517e-05
1.6902e-05
1.68404e-05
1.6786e-05
1.67301e-05
1.6676e-05
1.66221e-05
1.65748e-05
1.65158e-05
1.64678e-05
1.64198e-05
1.63692e-05
1.63144e-05
1.62749e-05
1.62275e-05
1.61795e-05
1.6127e-05
1.60882e-05
1.60358e-05
1.59919e-05
1.59311e-05
1.58845e-05
1.99999e-05
1.98631e-05
1.9581e-05
1.93051e-05
1.90695e-05
1.89196e-05
1.88022e-05
1.87025e-05
1.85806e-05
1.84682e-05
1.83622e-05
1.82651e-05
1.81718e-05
1.80865e-05
1.79904e-05
1.79057e-05
1.78195e-05
1.77403e-05
1.76561e-05
1.75881e-05
1.75098e-05
1.74517e-05
1.73851e-05
1.73317e-05
1.72657e-05
1.7219e-05
1.71599e-05
1.71119e-05
1.70488e-05
1.70028e-05
1.69453e-05
1.68929e-05
1.68409e-05
1.679e-05
1.67378e-05
1.66934e-05
1.66367e-05
1.65902e-05
1.65441e-05
1.64948e-05
1.64417e-05
1.64031e-05
1.63561e-05
1.63085e-05
1.62573e-05
1.62199e-05
1.61689e-05
1.61255e-05
1.60662e-05
1.60204e-05
1.99999e-05
1.98665e-05
1.9591e-05
1.93233e-05
1.90897e-05
1.89386e-05
1.88192e-05
1.87238e-05
1.86078e-05
1.84976e-05
1.8393e-05
1.82989e-05
1.82085e-05
1.81263e-05
1.80334e-05
1.79518e-05
1.7869e-05
1.77926e-05
1.77112e-05
1.76466e-05
1.7572e-05
1.75178e-05
1.74541e-05
1.74058e-05
1.73432e-05
1.73022e-05
1.72455e-05
1.72025e-05
1.71428e-05
1.71001e-05
1.70468e-05
1.69963e-05
1.69482e-05
1.69001e-05
1.68498e-05
1.68079e-05
1.67534e-05
1.67084e-05
1.66642e-05
1.66162e-05
1.65644e-05
1.65262e-05
1.64797e-05
1.64327e-05
1.63829e-05
1.63467e-05
1.62967e-05
1.6254e-05
1.61965e-05
1.61521e-05
1.99999e-05
1.98698e-05
1.96006e-05
1.93409e-05
1.91101e-05
1.8958e-05
1.88367e-05
1.87445e-05
1.86339e-05
1.85265e-05
1.84233e-05
1.8332e-05
1.82439e-05
1.81646e-05
1.80749e-05
1.79963e-05
1.79165e-05
1.78424e-05
1.77637e-05
1.77024e-05
1.76312e-05
1.75805e-05
1.75197e-05
1.74762e-05
1.74173e-05
1.73812e-05
1.73277e-05
1.72888e-05
1.72331e-05
1.71935e-05
1.71437e-05
1.70958e-05
1.7051e-05
1.70054e-05
1.69575e-05
1.69176e-05
1.68649e-05
1.68218e-05
1.67794e-05
1.67324e-05
1.66815e-05
1.66435e-05
1.65975e-05
1.65511e-05
1.6503e-05
1.64678e-05
1.64183e-05
1.63766e-05
1.63212e-05
1.62789e-05
1.99999e-05
1.98729e-05
1.96098e-05
1.93577e-05
1.91304e-05
1.89776e-05
1.88546e-05
1.87646e-05
1.86589e-05
1.85546e-05
1.84531e-05
1.83642e-05
1.82778e-05
1.82011e-05
1.81147e-05
1.8039e-05
1.79618e-05
1.78897e-05
1.78136e-05
1.77553e-05
1.7687e-05
1.76394e-05
1.75817e-05
1.75426e-05
1.74877e-05
1.74555e-05
1.74062e-05
1.73705e-05
1.73192e-05
1.72826e-05
1.72357e-05
1.71908e-05
1.7149e-05
1.71056e-05
1.70602e-05
1.70218e-05
1.69711e-05
1.69301e-05
1.68888e-05
1.68424e-05
1.67925e-05
1.67549e-05
1.67089e-05
1.6663e-05
1.6617e-05
1.65824e-05
1.65331e-05
1.64926e-05
1.64398e-05
1.63999e-05
1.99999e-05
1.98758e-05
1.96186e-05
1.93737e-05
1.91503e-05
1.89972e-05
1.88729e-05
1.87843e-05
1.86826e-05
1.85816e-05
1.84821e-05
1.83954e-05
1.83101e-05
1.8236e-05
1.81527e-05
1.80797e-05
1.80046e-05
1.79341e-05
1.78607e-05
1.78049e-05
1.77391e-05
1.76941e-05
1.76399e-05
1.76046e-05
1.75538e-05
1.75252e-05
1.74801e-05
1.74476e-05
1.74004e-05
1.73669e-05
1.73225e-05
1.72809e-05
1.72416e-05
1.72004e-05
1.71575e-05
1.71201e-05
1.70715e-05
1.70329e-05
1.69919e-05
1.69458e-05
1.68972e-05
1.68599e-05
1.68134e-05
1.6768e-05
1.67243e-05
1.669e-05
1.66409e-05
1.66014e-05
1.65516e-05
1.65145e-05
1.99999e-05
1.98786e-05
1.96268e-05
1.93888e-05
1.91693e-05
1.90166e-05
1.88914e-05
1.88035e-05
1.87049e-05
1.86076e-05
1.85103e-05
1.84252e-05
1.83409e-05
1.82692e-05
1.81888e-05