/*--------------------------------*- C++ -*----------------------------------*\
  =========                 |
  \\      /  F ield         | OpenFOAM: The Open Source CFD Toolbox
   \\    /   O peration     | Website:  https://openfoam.org
    \\  /    A nd           | Version:  7
     \\/     M anipulation  |
\*---------------------------------------------------------------------------*/
FoamFile
{
    version     2.0;
    format      ascii;
    class       volScalarField;
    location    "0.47";
    object      k_0;
}
// * * * * * * * * * * * * * * * * * * * * * * * * * * * * * * * * * * * * * //

dimensions      [0 2 -2 0 0 0 0];

internalField   nonuniform List<scalar> 
70000
(
1.08549e-05
4.21881e-06
2.82449e-06
2.31697e-06
1.99778e-06
1.75747e-06
1.56564e-06
1.40879e-06
1.27816e-06
1.16748e-06
1.07274e-06
9.9073e-07
9.19377e-07
8.56687e-07
8.01492e-07
7.524e-07
7.08729e-07
6.69465e-07
6.34223e-07
6.02267e-07
5.73373e-07
5.46995e-07
5.22977e-07
5.00936e-07
4.80719e-07
4.62104e-07
4.44898e-07
4.29029e-07
4.14235e-07
4.00616e-07
3.87766e-07
3.76047e-07
3.64752e-07
3.54705e-07
3.44604e-07
3.3613e-07
3.26847e-07
3.1994e-07
3.11425e-07
3.06489e-07
2.98391e-07
2.95216e-07
2.87419e-07
2.85971e-07
2.78155e-07
2.80505e-07
2.71922e-07
2.87122e-07
2.85665e-07
3.40183e-07
1.72795e-05
1.13673e-05
8.52087e-06
7.01083e-06
6.03798e-06
5.31179e-06
4.73276e-06
4.25906e-06
3.86451e-06
3.53024e-06
3.2441e-06
2.99643e-06
2.78092e-06
2.59156e-06
2.42482e-06
2.27649e-06
2.14452e-06
2.02586e-06
1.91933e-06
1.82274e-06
1.73538e-06
1.65563e-06
1.58301e-06
1.51636e-06
1.45522e-06
1.39891e-06
1.34688e-06
1.29887e-06
1.25412e-06
1.2129e-06
1.17403e-06
1.13857e-06
1.10437e-06
1.07398e-06
1.04337e-06
1.01775e-06
9.89624e-07
9.68731e-07
9.42881e-07
9.27437e-07
9.02797e-07
8.92314e-07
8.69028e-07
8.62549e-07
8.40298e-07
8.41941e-07
8.21375e-07
8.4752e-07
8.65201e-07
9.21004e-07
1.93701e-05
1.61297e-05
1.32914e-05
1.12901e-05
9.82952e-06
8.69712e-06
7.78009e-06
7.0224e-06
6.38669e-06
5.84536e-06
5.38033e-06
4.9766e-06
4.62443e-06
4.31429e-06
4.04067e-06
3.7968e-06
3.57946e-06
3.38374e-06
3.2078e-06
3.04808e-06
2.90348e-06
2.77136e-06
2.65093e-06
2.5403e-06
2.43879e-06
2.34516e-06
2.25866e-06
2.17869e-06
2.10422e-06
2.03549e-06
1.97071e-06
1.91152e-06
1.85445e-06
1.80371e-06
1.75254e-06
1.70969e-06
1.66277e-06
1.62751e-06
1.58423e-06
1.55713e-06
1.51599e-06
1.4969e-06
1.45801e-06
1.44468e-06
1.40864e-06
1.40483e-06
1.37494e-06
1.39356e-06
1.45837e-06
1.48008e-06
1.9861e-05
1.82599e-05
1.60859e-05
1.42005e-05
1.2641e-05
1.13495e-05
1.02624e-05
9.34007e-06
8.54964e-06
7.8663e-06
7.27286e-06
6.75303e-06
6.29621e-06
5.89132e-06
5.53207e-06
5.21017e-06
4.92195e-06
4.6613e-06
4.42617e-06
4.21204e-06
4.01765e-06
3.83953e-06
3.67684e-06
3.52695e-06
3.38928e-06
3.26186e-06
3.14415e-06
3.03489e-06
2.93325e-06
2.83903e-06
2.75037e-06
2.669e-06
2.5907e-06
2.52074e-06
2.45044e-06
2.39099e-06
2.3268e-06
2.27697e-06
2.21769e-06
2.1776e-06
2.12181e-06
2.09215e-06
2.03931e-06
2.01784e-06
1.96977e-06
1.95752e-06
1.91746e-06
1.92297e-06
2.00959e-06
2.01032e-06
1.99707e-05
1.78457e-05
1.60749e-05
1.47663e-05
1.36027e-05
1.25375e-05
1.157e-05
1.0702e-05
9.92213e-06
9.22624e-06
8.6075e-06
8.05441e-06
7.56025e-06
7.11592e-06
6.71665e-06
6.35466e-06
6.02735e-06
5.72869e-06
5.45737e-06
5.20857e-06
4.98146e-06
4.77206e-06
4.58005e-06
4.40203e-06
4.23818e-06
4.0855e-06
3.9444e-06
3.81245e-06
3.68989e-06
3.57536e-06
3.46791e-06
3.36841e-06
3.27312e-06
3.18697e-06
3.10132e-06
3.02726e-06
2.9494e-06
2.88611e-06
2.8147e-06
2.76157e-06
2.6956e-06
2.65225e-06
2.59104e-06
2.55831e-06
2.5015e-06
2.47876e-06
2.43231e-06
2.41421e-06
2.49283e-06
2.48552e-06
2.00095e-05
1.47038e-05
1.37475e-05
1.32102e-05
1.25907e-05
1.19261e-05
1.12773e-05
1.06564e-05
1.008e-05
9.54537e-06
9.04589e-06
8.57896e-06
8.14686e-06
7.74634e-06
7.37654e-06
7.03316e-06
6.71681e-06
6.42322e-06
6.15312e-06
5.90202e-06
5.67048e-06
5.45435e-06
5.25472e-06
5.06745e-06
4.89441e-06
4.73115e-06
4.58011e-06
4.43709e-06
4.30451e-06
4.17893e-06
4.06168e-06
3.95137e-06
3.84673e-06
3.75e-06
3.65574e-06
3.57109e-06
3.48571e-06
3.41162e-06
3.33409e-06
3.26931e-06
3.19913e-06
3.14248e-06
3.07954e-06
3.03043e-06
2.97534e-06
2.93274e-06
2.89365e-06
2.8449e-06
2.90153e-06
2.89244e-06
2.01331e-05
1.54686e-05
9.6347e-06
9.39693e-06
9.49118e-06
9.49015e-06
9.43124e-06
9.29215e-06
9.05222e-06
8.77794e-06
8.48368e-06
8.18574e-06
7.895e-06
7.61086e-06
7.33535e-06
7.07341e-06
6.82749e-06
6.59208e-06
6.37029e-06
6.15814e-06
5.95866e-06
5.76793e-06
5.58936e-06
5.41829e-06
5.25897e-06
5.1053e-06
4.96284e-06
4.8252e-06
4.69793e-06
4.5747e-06
4.46048e-06
4.35014e-06
4.24709e-06
4.14831e-06
4.05498e-06
3.96641e-06
3.88193e-06
3.8021e-06
3.72605e-06
3.65343e-06
3.58589e-06
3.51885e-06
3.46037e-06
3.39741e-06
3.34909e-06
3.28846e-06
3.25591e-06
3.18703e-06
3.21815e-06
3.20559e-06
2.01712e-05
1.86766e-05
8.69569e-06
5.54001e-06
5.62956e-06
5.93237e-06
6.28988e-06
6.57404e-06
6.75306e-06
6.8609e-06
6.87967e-06
6.85989e-06
6.80755e-06
6.71787e-06
6.60743e-06
6.4848e-06
6.34779e-06
6.20457e-06
6.0631e-06
5.91953e-06
5.78019e-06
5.64123e-06
5.50855e-06
5.37711e-06
5.25272e-06
5.13023e-06
5.01707e-06
4.90396e-06
4.79957e-06
4.69466e-06
4.59832e-06
4.50121e-06
4.4125e-06
4.32269e-06
4.24129e-06
4.15804e-06
4.08391e-06
4.00619e-06
3.93958e-06
3.86613e-06
3.80741e-06
3.73702e-06
3.68681e-06
3.61858e-06
3.57716e-06
3.51051e-06
3.47819e-06
3.40347e-06
3.41157e-06
3.39349e-06
2.01671e-05
1.97241e-05
1.61697e-05
4.86519e-06
3.0425e-06
3.10494e-06
3.37259e-06
3.80138e-06
4.16618e-06
4.48268e-06
4.72903e-06
4.91706e-06
5.05689e-06
5.15546e-06
5.21316e-06
5.2478e-06
5.2498e-06
5.24043e-06
5.21787e-06
5.17653e-06
5.12918e-06
5.07118e-06
5.01156e-06
4.94413e-06
4.8778e-06
4.80517e-06
4.73533e-06
4.65977e-06
4.58976e-06
4.51493e-06
4.4469e-06
4.374e-06
4.3091e-06
4.23842e-06
4.17744e-06
4.10907e-06
4.05263e-06
3.98622e-06
3.93495e-06
3.86994e-06
3.82468e-06
3.76096e-06
3.72141e-06
3.65868e-06
3.62428e-06
3.56298e-06
3.53287e-06
3.46337e-06
3.45696e-06
3.43367e-06
2.01476e-05
1.99343e-05
1.90664e-05
1.4503e-05
5.25111e-06
2.15597e-06
1.91442e-06
1.99283e-06
2.20487e-06
2.50203e-06
2.7768e-06
3.02795e-06
3.2515e-06
3.44613e-06
3.60844e-06
3.74449e-06
3.85463e-06
3.94033e-06
4.01088e-06
4.06011e-06
4.09809e-06
4.11894e-06
4.13351e-06
4.13321e-06
4.12925e-06
4.11813e-06
4.10372e-06
4.07989e-06
4.05736e-06
4.02648e-06
3.99835e-06
3.96257e-06
3.93113e-06
3.89138e-06
3.85911e-06
3.81629e-06
3.78417e-06
3.73902e-06
3.70788e-06
3.66091e-06
3.63107e-06
3.58236e-06
3.55416e-06
3.5045e-06
3.47791e-06
3.42778e-06
3.40227e-06
3.34532e-06
3.3324e-06
3.30612e-06
2.01216e-05
1.99661e-05
1.96427e-05
1.85479e-05
1.52186e-05
8.37413e-06
3.11582e-06
1.63473e-06
1.44261e-06
1.44878e-06
1.52449e-06
1.68337e-06
1.86433e-06
2.03913e-06
2.20782e-06
2.36421e-06
2.51009e-06
2.63782e-06
2.75487e-06
2.8548e-06
2.94513e-06
3.01963e-06
3.08642e-06
3.13956e-06
3.18617e-06
3.22176e-06
3.25363e-06
3.2751e-06
3.2942e-06
3.30473e-06
3.31346e-06
3.31574e-06
3.31506e-06
3.31139e-06
3.3063e-06
3.2949e-06
3.28662e-06
3.26942e-06
3.25862e-06
3.23687e-06
3.224e-06
3.19843e-06
3.18391e-06
3.15504e-06
3.13895e-06
3.10679e-06
3.08887e-06
3.04965e-06
3.03416e-06
3.01114e-06
2.00981e-05
1.99327e-05
1.97576e-05
1.93534e-05
1.85086e-05
1.65431e-05
1.23446e-05
6.8831e-06
3.00399e-06
1.4976e-06
1.24406e-06
1.14744e-06
1.1507e-06
1.1917e-06
1.28236e-06
1.38665e-06
1.4982e-06
1.60478e-06
1.71351e-06
1.81492e-06
1.91335e-06
2.0025e-06
2.08733e-06
2.16266e-06
2.23375e-06
2.29553e-06
2.35378e-06
2.40338e-06
2.44987e-06
2.48869e-06
2.52479e-06
2.55422e-06
2.58143e-06
2.60216e-06
2.62244e-06
2.63573e-06
2.64959e-06
2.65681e-06
2.6646e-06
2.66727e-06
2.66868e-06
2.6673e-06
2.66468e-06
2.65791e-06
2.65217e-06
2.63954e-06
2.63027e-06
2.6095e-06
2.59737e-06
2.58019e-06
2.00781e-05
1.98876e-05
1.97572e-05
1.94618e-05
1.91473e-05
1.86438e-05
1.75621e-05
1.54382e-05
1.17678e-05
7.48157e-06
4.01431e-06
1.93278e-06
1.21335e-06
1.05817e-06
9.83426e-07
9.41065e-07
9.51138e-07
9.82493e-07
1.04374e-06
1.1048e-06
1.17237e-06
1.23916e-06
1.30779e-06
1.37417e-06
1.44066e-06
1.50241e-06
1.56317e-06
1.61854e-06
1.67263e-06
1.7212e-06
1.76846e-06
1.81017e-06
1.85065e-06
1.88564e-06
1.91949e-06
1.94832e-06
1.97593e-06
1.99892e-06
2.02071e-06
2.03828e-06
2.05462e-06
2.06667e-06
2.0781e-06
2.0847e-06
2.09101e-06
2.09225e-06
2.09141e-06
2.08674e-06
2.08129e-06
2.07055e-06
2.00613e-05
1.98539e-05
1.97346e-05
1.9472e-05
1.92566e-05
1.90487e-05
1.87387e-05
1.81957e-05
1.71078e-05
1.52514e-05
1.26028e-05
9.2866e-06
6.03063e-06
3.52798e-06
1.91452e-06
1.18059e-06
9.67704e-07
8.92121e-07
8.38517e-07
7.94888e-07
7.95256e-07
8.06606e-07
8.33552e-07
8.69606e-07
9.08179e-07
9.47219e-07
9.89364e-07
1.03026e-06
1.07341e-06
1.11441e-06
1.15626e-06
1.19505e-06
1.23372e-06
1.26943e-06
1.30431e-06
1.33643e-06
1.36749e-06
1.39547e-06
1.4227e-06
1.44628e-06
1.4694e-06
1.48839e-06
1.50713e-06
1.52131e-06
1.53529e-06
1.54434e-06
1.55244e-06
1.55577e-06
1.55533e-06
1.55149e-06
2.00475e-05
1.98304e-05
1.9708e-05
1.94499e-05
1.92736e-05
1.91166e-05
1.89673e-05
1.8753e-05
1.84664e-05
1.79199e-05
1.70903e-05
1.57265e-05
1.39216e-05
1.15945e-05
8.9353e-06
6.33788e-06
4.15931e-06
2.57331e-06
1.55196e-06
1.05163e-06
8.69623e-07
8.0228e-07
7.54663e-07
7.12983e-07
6.82237e-07
6.73686e-07
6.7794e-07
6.88785e-07
7.0891e-07
7.29439e-07
7.52617e-07
7.74882e-07
7.9925e-07
8.23697e-07
8.48652e-07
8.73463e-07
8.98316e-07
9.21948e-07
9.45553e-07
9.66949e-07
9.88344e-07
1.007e-06
1.02565e-06
1.04096e-06
1.05659e-06
1.06763e-06
1.0794e-06
1.08549e-06
1.09102e-06
1.09022e-06
2.00362e-05
1.98125e-05
1.96855e-05
1.94197e-05
1.92596e-05
1.91103e-05
1.90023e-05
1.88516e-05
1.8715e-05
1.85044e-05
1.82533e-05
1.78414e-05
1.72474e-05
1.63856e-05
1.52029e-05
1.36842e-05
1.19036e-05
9.8475e-06
7.72373e-06
5.73679e-06
4.04716e-06
2.75278e-06
1.81344e-06
1.21751e-06
9.10409e-07
7.77265e-07
7.17952e-07
6.79968e-07
6.4575e-07
6.1342e-07
5.91544e-07
5.77061e-07
5.76673e-07
5.79535e-07
5.86329e-07
5.96797e-07
6.08165e-07
6.19887e-07
6.31807e-07
6.43613e-07
6.55691e-07
6.67524e-07
6.79567e-07
6.90788e-07
7.01918e-07
7.11323e-07
7.20616e-07
7.26808e-07
7.32312e-07
7.32792e-07
2.00271e-05
1.97986e-05
1.96663e-05
1.93978e-05
1.92339e-05
1.9083e-05
1.89843e-05
1.88549e-05
1.87393e-05
1.85991e-05
1.84642e-05
1.82936e-05
1.80882e-05
1.78031e-05
1.7424e-05
1.68869e-05
1.61926e-05
1.52871e-05
1.41717e-05
1.28529e-05
1.139e-05
9.76559e-06
8.0895e-06
6.47159e-06
4.9991e-06
3.74467e-06
2.74418e-06
1.96628e-06
1.39948e-06
1.02932e-06
8.18959e-07
7.09913e-07
6.5428e-07
6.19923e-07
5.92794e-07
5.67281e-07
5.42954e-07
5.22599e-07
5.06842e-07
4.97371e-07
4.91649e-07
4.91349e-07
4.92368e-07
4.95033e-07
4.98188e-07
5.02506e-07
5.05374e-07
5.09005e-07
5.10797e-07
5.13517e-07
2.002e-05
1.97901e-05
1.96461e-05
1.93815e-05
1.921e-05
1.90542e-05
1.89463e-05
1.88288e-05
1.87178e-05
1.85926e-05
1.84756e-05
1.83495e-05
1.82257e-05
1.80834e-05
1.7928e-05
1.77315e-05
1.7491e-05
1.7178e-05
1.67817e-05
1.62738e-05
1.56532e-05
1.49016e-05
1.40127e-05
1.29988e-05
1.18803e-05
1.06831e-05
9.40358e-06
8.1028e-06
6.8312e-06
5.63858e-06
4.5597e-06
3.62136e-06
2.84305e-06
2.20457e-06
1.69236e-06
1.29999e-06
1.01745e-06
8.29019e-07
7.11013e-07
6.40054e-07
5.96655e-07
5.68428e-07
5.47161e-07
5.29888e-07
5.13585e-07
5.00688e-07
4.86938e-07
4.78802e-07
4.71994e-07
4.72957e-07
2.00144e-05
1.97902e-05
1.96197e-05
1.93684e-05
1.91893e-05
1.9028e-05
1.89102e-05
1.87932e-05
1.86777e-05
1.85574e-05
1.84449e-05
1.83285e-05
1.82155e-05
1.80991e-05
1.79837e-05
1.78647e-05
1.77391e-05
1.76003e-05
1.74408e-05
1.72538e-05
1.70263e-05
1.67547e-05
1.64212e-05
1.60239e-05
1.55492e-05
1.50012e-05
1.43691e-05
1.36569e-05
1.28679e-05
1.20161e-05
1.11121e-05
1.01772e-05
9.20211e-06
8.22096e-06
7.25616e-06
6.33291e-06
5.46754e-06
4.67827e-06
3.96912e-06
3.3514e-06
2.82468e-06
2.37997e-06
2.00859e-06
1.70533e-06
1.46391e-06
1.28181e-06
1.14691e-06
1.06425e-06
1.01355e-06
1.00699e-06
2.00102e-05
1.97943e-05
1.95927e-05
1.93549e-05
1.91703e-05
1.90033e-05
1.88765e-05
1.8758e-05
1.86379e-05
1.85152e-05
1.83992e-05
1.82834e-05
1.81705e-05
1.80616e-05
1.79512e-05
1.78456e-05
1.77362e-05
1.76305e-05
1.75211e-05
1.74131e-05
1.72956e-05
1.71731e-05
1.70325e-05
1.68769e-05
1.66958e-05
1.64879e-05
1.62454e-05
1.59668e-05
1.56448e-05
1.52802e-05
1.48654e-05
1.44103e-05
1.39047e-05
1.33578e-05
1.27669e-05
1.21437e-05
1.14934e-05
1.08247e-05
1.01457e-05
9.46785e-06
8.78787e-06
8.12918e-06
7.49301e-06
6.90435e-06
6.35532e-06
5.88179e-06
5.46042e-06
5.12866e-06
4.85873e-06
4.67683e-06
2.0007e-05
1.9802e-05
1.95679e-05
1.93419e-05
1.91526e-05
1.89801e-05
1.88444e-05
1.87242e-05
1.85995e-05
1.84739e-05
1.83534e-05
1.82357e-05
1.81187e-05
1.80081e-05
1.78952e-05
1.77901e-05
1.7684e-05
1.75839e-05
1.74814e-05
1.73856e-05
1.72859e-05
1.71908e-05
1.70921e-05
1.69953e-05
1.68954e-05
1.67909e-05
1.66788e-05
1.65586e-05
1.64261e-05
1.62803e-05
1.61141e-05
1.59359e-05
1.57303e-05
1.55098e-05
1.52581e-05
1.49881e-05
1.46921e-05
1.43747e-05
1.40303e-05
1.36728e-05
1.32921e-05
1.29066e-05
1.2501e-05
1.21023e-05
1.1694e-05
1.13166e-05
1.09405e-05
1.06014e-05
1.03112e-05
1.00683e-05
2.00047e-05
1.98105e-05
1.95449e-05
1.93288e-05
1.91356e-05
1.89583e-05
1.88137e-05
1.86914e-05
1.85629e-05
1.84338e-05
1.83096e-05
1.81886e-05
1.80679e-05
1.79546e-05
1.78381e-05
1.77307e-05
1.76209e-05
1.75182e-05
1.74137e-05
1.73171e-05
1.72196e-05
1.71293e-05
1.70365e-05
1.69482e-05
1.68618e-05
1.67751e-05
1.66874e-05
1.66022e-05
1.6517e-05
1.64305e-05
1.63391e-05
1.62515e-05
1.61517e-05
1.60557e-05
1.59429e-05
1.58302e-05
1.57075e-05
1.55768e-05
1.5432e-05
1.52822e-05
1.51198e-05
1.49561e-05
1.47733e-05
1.45908e-05
1.4396e-05
1.4212e-05
1.40142e-05
1.38228e-05
1.36482e-05
1.34919e-05
2.0003e-05
1.98193e-05
1.95238e-05
1.93151e-05
1.9119e-05
1.8938e-05
1.87846e-05
1.86598e-05
1.8528e-05
1.83956e-05
1.82681e-05
1.81436e-05
1.80193e-05
1.79031e-05
1.77831e-05
1.76729e-05
1.75599e-05
1.74543e-05
1.73464e-05
1.72473e-05
1.71464e-05
1.70526e-05
1.69571e-05
1.68667e-05
1.67797e-05
1.66941e-05
1.66101e-05
1.65306e-05
1.64522e-05
1.63744e-05
1.62963e-05
1.62248e-05
1.61463e-05
1.6077e-05
1.59985e-05
1.5928e-05
1.58558e-05
1.57842e-05
1.57064e-05
1.56305e-05
1.55529e-05
1.54793e-05
1.53928e-05
1.53102e-05
1.52216e-05
1.51411e-05
1.50466e-05
1.49554e-05
1.48625e-05
1.4785e-05
2.00017e-05
1.98274e-05
1.95047e-05
1.93002e-05
1.91022e-05
1.89189e-05
1.8757e-05
1.86294e-05
1.8495e-05
1.83596e-05
1.8229e-05
1.81013e-05
1.79737e-05
1.78545e-05
1.77315e-05
1.76183e-05
1.75023e-05
1.73941e-05
1.72827e-05
1.71813e-05
1.70777e-05
1.6981e-05
1.68823e-05
1.67891e-05
1.66992e-05
1.66106e-05
1.65217e-05
1.64402e-05
1.63588e-05
1.62785e-05
1.62e-05
1.6128e-05
1.6053e-05
1.5987e-05
1.59142e-05
1.58498e-05
1.57852e-05
1.57248e-05
1.56589e-05
1.5598e-05
1.55393e-05
1.54865e-05
1.54242e-05
1.53696e-05
1.53124e-05
1.52639e-05
1.52053e-05
1.51498e-05
1.50895e-05
1.50455e-05
2.00009e-05
1.98305e-05
1.9489e-05
1.92847e-05
1.90854e-05
1.89014e-05
1.87316e-05
1.86007e-05
1.84641e-05
1.83263e-05
1.81928e-05
1.80624e-05
1.79316e-05
1.78097e-05
1.7684e-05
1.75679e-05
1.74492e-05
1.73386e-05
1.72238e-05
1.71206e-05
1.70144e-05
1.69151e-05
1.68138e-05
1.67186e-05
1.66258e-05
1.65352e-05
1.64426e-05
1.63593e-05
1.62745e-05
1.6191e-05
1.61099e-05
1.60345e-05
1.59559e-05
1.58856e-05
1.58109e-05
1.57438e-05
1.56765e-05
1.5616e-05
1.55484e-05
1.54884e-05
1.54318e-05
1.53824e-05
1.53232e-05
1.52725e-05
1.52205e-05
1.51761e-05
1.51248e-05
1.50753e-05
1.5022e-05
1.49842e-05
2.00003e-05
1.98288e-05
1.94763e-05
1.92685e-05
1.90687e-05
1.88857e-05
1.87087e-05
1.85741e-05
1.84356e-05
1.82962e-05
1.81601e-05
1.80272e-05
1.78936e-05
1.77695e-05
1.76413e-05
1.75228e-05
1.74017e-05
1.72889e-05
1.71711e-05
1.70661e-05
1.69578e-05
1.68561e-05
1.67525e-05
1.66559e-05
1.65603e-05
1.64683e-05
1.63729e-05
1.62883e-05
1.62009e-05
1.6115e-05
1.60318e-05
1.59542e-05
1.58728e-05
1.57996e-05
1.57231e-05
1.56531e-05
1.55824e-05
1.55199e-05
1.54492e-05
1.53869e-05
1.53278e-05
1.52756e-05
1.52139e-05
1.51614e-05
1.51082e-05
1.50626e-05
1.50101e-05
1.49611e-05
1.49062e-05
1.48667e-05
2e-05
1.98271e-05
1.94655e-05
1.92507e-05
1.90514e-05
1.88713e-05
1.86883e-05
1.85498e-05
1.84097e-05
1.82694e-05
1.81311e-05
1.79962e-05
1.78603e-05
1.77345e-05
1.76042e-05
1.74837e-05
1.73605e-05
1.72457e-05
1.71255e-05
1.70191e-05
1.6909e-05
1.68049e-05
1.66996e-05
1.6602e-05
1.65038e-05
1.64107e-05
1.63133e-05
1.62274e-05
1.61381e-05
1.60504e-05
1.59658e-05
1.58864e-05
1.58028e-05
1.5728e-05
1.56502e-05
1.55783e-05
1.55055e-05
1.54413e-05
1.53685e-05
1.53051e-05
1.52443e-05
1.51898e-05
1.51257e-05
1.50723e-05
1.50169e-05
1.49705e-05
1.49138e-05
1.4866e-05
1.48077e-05
1.47654e-05
1.99999e-05
1.98258e-05
1.94576e-05
1.92325e-05
1.9034e-05
1.88585e-05
1.8671e-05
1.85283e-05
1.83868e-05
1.82463e-05
1.81064e-05
1.797e-05
1.78323e-05
1.77053e-05
1.75734e-05
1.74513e-05
1.73266e-05
1.721e-05
1.70881e-05
1.69806e-05
1.68689e-05
1.67629e-05
1.66565e-05
1.6558e-05
1.64577e-05
1.63636e-05
1.62649e-05
1.6178e-05
1.6087e-05
1.59979e-05
1.59123e-05
1.58314e-05
1.57463e-05
1.56706e-05
1.55917e-05
1.55186e-05
1.54446e-05
1.53788e-05
1.53047e-05
1.52415e-05
1.51797e-05
1.51231e-05
1.50575e-05
1.50047e-05
1.49474e-05
1.49008e-05
1.48405e-05
1.47941e-05
1.47338e-05
1.46882e-05
1.99999e-05
1.98251e-05
1.94526e-05
1.92151e-05
1.90174e-05
1.88478e-05
1.86575e-05
1.85105e-05
1.83676e-05
1.82276e-05
1.80869e-05
1.79491e-05
1.78104e-05
1.76827e-05
1.75495e-05
1.74266e-05
1.73007e-05
1.71828e-05
1.70598e-05
1.69515e-05
1.68386e-05
1.67311e-05
1.66243e-05
1.65251e-05
1.64232e-05
1.63282e-05
1.62289e-05
1.61412e-05
1.60487e-05
1.5959e-05
1.58727e-05
1.57903e-05
1.57044e-05
1.56283e-05
1.55482e-05
1.54745e-05
1.53999e-05
1.53325e-05
1.52579e-05
1.51956e-05
1.51327e-05
1.50743e-05
1.50082e-05
1.49565e-05
1.48981e-05
1.48506e-05
1.4789e-05
1.47425e-05
1.46826e-05
1.46325e-05
1.99999e-05
1.98247e-05
1.94501e-05
1.91992e-05
1.90022e-05
1.88391e-05
1.86482e-05
1.84969e-05
1.83526e-05
1.82138e-05
1.8073e-05
1.79343e-05
1.77953e-05
1.76673e-05
1.75335e-05
1.74102e-05
1.72836e-05
1.71648e-05
1.70413e-05
1.69329e-05
1.68188e-05
1.67107e-05
1.66038e-05
1.65042e-05
1.64017e-05
1.63058e-05
1.62067e-05
1.61185e-05
1.60245e-05
1.59351e-05
1.58482e-05
1.57645e-05
1.56786e-05
1.56021e-05
1.55209e-05
1.54473e-05
1.53725e-05
1.53035e-05
1.5229e-05
1.5168e-05
1.5104e-05
1.5044e-05
1.49782e-05
1.49277e-05
1.48685e-05
1.48197e-05
1.47584e-05
1.4711e-05
1.4652e-05
1.45984e-05
1.99999e-05
1.98248e-05
1.94502e-05
1.91859e-05
1.89889e-05
1.88322e-05
1.8643e-05
1.84878e-05
1.83422e-05
1.8205e-05
1.80648e-05
1.79258e-05
1.77872e-05
1.76596e-05
1.75256e-05
1.74027e-05
1.72757e-05
1.71567e-05
1.70335e-05
1.69253e-05
1.68106e-05
1.67026e-05
1.65963e-05
1.64965e-05
1.63941e-05
1.62976e-05
1.61993e-05
1.6111e-05
1.60159e-05
1.59273e-05
1.584e-05
1.57553e-05
1.56702e-05
1.55935e-05
1.55114e-05
1.54384e-05
1.53633e-05
1.52932e-05
1.52194e-05
1.51596e-05
1.50945e-05
1.50334e-05
1.49686e-05
1.4919e-05
1.48591e-05
1.48093e-05
1.47485e-05
1.47006e-05
1.46412e-05
1.45861e-05
1.99999e-05
1.98252e-05
1.94524e-05
1.91752e-05
1.89776e-05
1.88267e-05
1.8642e-05
1.84834e-05
1.83365e-05
1.82015e-05
1.80627e-05
1.79241e-05
1.77865e-05
1.76598e-05
1.75265e-05
1.74042e-05
1.72775e-05
1.71589e-05
1.70364e-05
1.69288e-05
1.68139e-05
1.67066e-05
1.6601e-05
1.65014e-05
1.63996e-05
1.63029e-05
1.62057e-05
1.61177e-05
1.60219e-05
1.59345e-05
1.58471e-05
1.57621e-05
1.5678e-05
1.56012e-05
1.5519e-05
1.54467e-05
1.53717e-05
1.5301e-05
1.52284e-05
1.51696e-05
1.51034e-05
1.5042e-05
1.49786e-05
1.49296e-05
1.48691e-05
1.48189e-05
1.47584e-05
1.47109e-05
1.46496e-05
1.4595e-05
1.99999e-05
1.98262e-05
1.9457e-05
1.91683e-05
1.89687e-05
1.8823e-05
1.86446e-05
1.84836e-05
1.83358e-05
1.8203e-05
1.80662e-05
1.79286e-05
1.77924e-05
1.76668e-05
1.75344e-05
1.74135e-05
1.72874e-05
1.71698e-05
1.70486e-05
1.69422e-05
1.68276e-05
1.67217e-05
1.66177e-05
1.65188e-05
1.64183e-05
1.63219e-05
1.62266e-05
1.61392e-05
1.60432e-05
1.59578e-05
1.58704e-05
1.57857e-05
1.5703e-05
1.56263e-05
1.55444e-05
1.54734e-05
1.53983e-05
1.53276e-05
1.52568e-05
1.51989e-05
1.51317e-05
1.50705e-05
1.5009e-05
1.49606e-05
1.48996e-05
1.48494e-05
1.47894e-05
1.47424e-05
1.46792e-05
1.46252e-05
1.99999e-05
1.98277e-05
1.94635e-05
1.91648e-05
1.89627e-05
1.88205e-05
1.86508e-05
1.84883e-05
1.83392e-05
1.82089e-05
1.80746e-05
1.7939e-05
1.7805e-05
1.76813e-05
1.75507e-05
1.74318e-05
1.73071e-05
1.71912e-05
1.7072e-05
1.69673e-05
1.68536e-05
1.67497e-05
1.66478e-05
1.65502e-05
1.64515e-05
1.63561e-05
1.62631e-05
1.61766e-05
1.60813e-05
1.59981e-05
1.59111e-05
1.58275e-05
1.57465e-05
1.56702e-05
1.55891e-05
1.55196e-05
1.54448e-05
1.53747e-05
1.53059e-05
1.52486e-05
1.51807e-05
1.51204e-05
1.50609e-05
1.50126e-05
1.49513e-05
1.49014e-05
1.4842e-05
1.47949e-05
1.47305e-05
1.46764e-05
1.99999e-05
1.98296e-05
1.94717e-05
1.91651e-05
1.89592e-05
1.88196e-05
1.86596e-05
1.84975e-05
1.83476e-05
1.82198e-05
1.80884e-05
1.79553e-05
1.78239e-05
1.77025e-05
1.75742e-05
1.74575e-05
1.73349e-05
1.72211e-05
1.71044e-05
1.70018e-05
1.68897e-05
1.67885e-05
1.66889e-05
1.65933e-05
1.64967e-05
1.64031e-05
1.63128e-05
1.62277e-05
1.61337e-05
1.60529e-05
1.59668e-05
1.5885e-05
1.58059e-05
1.57302e-05
1.56507e-05
1.55829e-05
1.55086e-05
1.54397e-05
1.5373e-05
1.53163e-05
1.52481e-05
1.51893e-05
1.51317e-05
1.50835e-05
1.5022e-05
1.49728e-05
1.49141e-05
1.48667e-05
1.48017e-05
1.47477e-05
1.99999e-05
1.9832e-05
1.94814e-05
1.91688e-05
1.89587e-05
1.88203e-05
1.86703e-05
1.85103e-05
1.83599e-05
1.82344e-05
1.81063e-05
1.79764e-05
1.7848e-05
1.77292e-05
1.76038e-05
1.74898e-05
1.73696e-05
1.72586e-05
1.71447e-05
1.70447e-05
1.69347e-05
1.68367e-05
1.67399e-05
1.66468e-05
1.65527e-05
1.64615e-05
1.63743e-05
1.62909e-05
1.61989e-05
1.61209e-05
1.6036e-05
1.59566e-05
1.58795e-05
1.58048e-05
1.57274e-05
1.56616e-05
1.5588e-05
1.55207e-05
1.54565e-05
1.54001e-05
1.53321e-05
1.52753e-05
1.52196e-05
1.51712e-05
1.511e-05
1.50619e-05
1.50035e-05
1.49559e-05
1.48906e-05
1.48369e-05
1.99999e-05
1.98348e-05
1.94918e-05
1.91764e-05
1.8961e-05
1.88228e-05
1.86825e-05
1.85265e-05
1.8376e-05
1.82524e-05
1.81278e-05
1.80014e-05
1.78764e-05
1.77608e-05
1.76385e-05
1.75274e-05
1.74102e-05
1.73023e-05
1.71916e-05
1.70945e-05
1.69872e-05
1.68928e-05
1.67991e-05
1.67092e-05
1.66178e-05
1.65297e-05
1.64458e-05
1.63645e-05
1.62752e-05
1.62002e-05
1.61169e-05
1.60404e-05
1.59654e-05
1.5892e-05
1.58173e-05
1.57536e-05
1.5681e-05
1.56158e-05
1.55539e-05
1.5498e-05
1.54306e-05
1.53761e-05
1.5322e-05
1.52736e-05
1.5213e-05
1.51659e-05
1.5108e-05
1.50605e-05
1.4995e-05
1.49418e-05
1.99999e-05
1.9838e-05
1.9503e-05
1.91868e-05
1.89664e-05
1.88277e-05
1.86959e-05
1.85455e-05
1.83955e-05
1.82736e-05
1.81523e-05
1.80297e-05
1.79084e-05
1.77962e-05
1.76772e-05
1.75694e-05
1.74556e-05
1.73511e-05
1.72438e-05
1.71499e-05
1.70457e-05
1.69553e-05
1.6865e-05
1.67786e-05
1.66903e-05
1.66057e-05
1.65255e-05
1.64467e-05
1.63605e-05
1.62886e-05
1.62074e-05
1.61342e-05
1.60614e-05
1.59898e-05
1.59181e-05
1.58565e-05
1.57852e-05
1.57226e-05
1.5663e-05
1.56073e-05
1.55411e-05
1.54892e-05
1.54365e-05
1.53881e-05
1.53283e-05
1.52824e-05
1.52249e-05
1.51776e-05
1.51122e-05
1.50597e-05
1.99999e-05
1.98414e-05
1.95145e-05
1.91998e-05
1.89745e-05
1.88346e-05
1.87098e-05
1.85664e-05
1.84177e-05
1.82973e-05
1.81791e-05
1.80605e-05
1.79432e-05
1.78347e-05
1.77191e-05
1.76146e-05
1.75045e-05
1.74037e-05
1.72999e-05
1.72095e-05
1.71086e-05
1.70227e-05
1.69359e-05
1.68534e-05
1.67683e-05
1.66878e-05
1.66114e-05
1.65354e-05
1.64527e-05
1.63842e-05
1.63055e-05
1.62358e-05
1.61651e-05
1.60958e-05
1.60275e-05
1.59679e-05
1.58982e-05
1.58384e-05
1.57809e-05
1.57256e-05
1.5661e-05
1.56117e-05
1.55603e-05
1.55118e-05
1.5453e-05
1.54084e-05
1.53514e-05
1.53043e-05
1.52393e-05
1.51877e-05
1.99999e-05
1.98449e-05
1.95261e-05
1.92148e-05
1.89854e-05
1.88439e-05
1.87243e-05
1.85888e-05
1.84423e-05
1.83231e-05
1.82077e-05
1.8093e-05
1.798e-05
1.78753e-05
1.77632e-05
1.76621e-05
1.75559e-05
1.74588e-05
1.73586e-05
1.72719e-05
1.71747e-05
1.70933e-05
1.70102e-05
1.69319e-05
1.68502e-05
1.67743e-05
1.67016e-05
1.66289e-05
1.65499e-05
1.64849e-05
1.64089e-05
1.63428e-05
1.62745e-05
1.62078e-05
1.6143e-05
1.60855e-05
1.60175e-05
1.59606e-05
1.59052e-05
1.58502e-05
1.57876e-05
1.57409e-05
1.56905e-05
1.5642e-05
1.55844e-05
1.5541e-05
1.54846e-05
1.5438e-05
1.53737e-05
1.5323e-05
1.99999e-05
1.98486e-05
1.95376e-05
1.92314e-05
1.89987e-05
1.88554e-05
1.87391e-05
1.86118e-05
1.84686e-05
1.83505e-05
1.82376e-05
1.81268e-05
1.80181e-05
1.79174e-05
1.78086e-05
1.77109e-05
1.76088e-05
1.75155e-05
1.74189e-05
1.73359e-05
1.72424e-05
1.71658e-05
1.70865e-05
1.70126e-05
1.69342e-05
1.68634e-05
1.67943e-05
1.67254e-05
1.66501e-05
1.65886e-05
1.65159e-05
1.64532e-05
1.63873e-05
1.63236e-05
1.62622e-05
1.62068e-05
1.61409e-05
1.60869e-05
1.60332e-05
1.59789e-05
1.59185e-05
1.58741e-05
1.58246e-05
1.57762e-05
1.57199e-05
1.56776e-05
1.56221e-05
1.55761e-05
1.55126e-05
1.54628e-05
1.99999e-05
1.98523e-05
1.95489e-05
1.92492e-05
1.90142e-05
1.88691e-05
1.87542e-05
1.86351e-05
1.84961e-05
1.83792e-05
1.82683e-05
1.81613e-05
1.80568e-05
1.79601e-05
1.78546e-05
1.77603e-05
1.76623e-05
1.75728e-05
1.74796e-05
1.74004e-05
1.73108e-05
1.7239e-05
1.71633e-05
1.70941e-05
1.70189e-05
1.69538e-05
1.68878e-05
1.68234e-05
1.67514e-05
1.66938e-05
1.66245e-05
1.6565e-05
1.65019e-05
1.64415e-05
1.63831e-05
1.63299e-05
1.62663e-05
1.62148e-05
1.61629e-05
1.61096e-05
1.60513e-05
1.6009e-05
1.59602e-05
1.59119e-05
1.5857e-05
1.58158e-05
1.57613e-05
1.57161e-05
1.56536e-05
1.56047e-05
1.99999e-05
1.98559e-05
1.95599e-05
1.92677e-05
1.90314e-05
1.88846e-05
1.87698e-05
1.86581e-05
1.85243e-05
1.84086e-05
1.82995e-05
1.8196e-05
1.80957e-05
1.80029e-05
1.79005e-05
1.78096e-05
1.77157e-05
1.76298e-05
1.75399e-05
1.74645e-05
1.73787e-05
1.73118e-05
1.72393e-05
1.71752e-05
1.71031e-05
1.70441e-05
1.69806e-05
1.69214e-05
1.68524e-05
1.67988e-05
1.67332e-05
1.66765e-05
1.66167e-05
1.65595e-05
1.65036e-05
1.64531e-05
1.63918e-05
1.63423e-05
1.62923e-05
1.62402e-05
1.61839e-05
1.61433e-05
1.60952e-05
1.60469e-05
1.59935e-05
1.59537e-05
1.59002e-05
1.58557e-05
1.57943e-05
1.57467e-05
1.99999e-05
1.98596e-05
1.95706e-05
1.92865e-05
1.905e-05
1.89016e-05
1.87858e-05
1.86806e-05
1.85526e-05
1.84384e-05
1.83308e-05
1.82307e-05
1.81342e-05
1.80452e-05
1.79458e-05
1.78581e-05
1.77682e-05
1.76858e-05
1.75989e-05
1.75273e-05
1.74454e-05
1.73831e-05
1.73137e-05
1.72548e-05
1.71858e-05
1.71331e-05
1.70718e-05
1.7018e-05
1.6952e-05
1.69023e-05
1.68405e-05
1.67862e-05
1.67301e-05
1.66761e-05
1.66223e-05
1.65747e-05
1.65157e-05
1.64679e-05
1.64198e-05
1.6369e-05
1.63146e-05
1.62753e-05
1.62278e-05
1.61797e-05
1.61277e-05
1.60892e-05
1.6037e-05
1.59932e-05
1.5933e-05
1.58867e-05
1.99999e-05
1.98631e-05
1.95809e-05
1.93051e-05
1.90696e-05
1.89198e-05
1.88022e-05
1.87026e-05
1.85805e-05
1.84681e-05
1.8362e-05
1.8265e-05
1.81719e-05
1.80864e-05
1.79902e-05
1.79056e-05
1.78195e-05
1.77401e-05
1.76562e-05
1.75882e-05
1.75101e-05
1.74522e-05
1.73856e-05
1.73321e-05
1.72662e-05
1.72196e-05
1.71604e-05
1.71122e-05
1.70491e-05
1.70031e-05
1.69454e-05
1.68931e-05
1.6841e-05
1.679e-05
1.6738e-05
1.66933e-05
1.66365e-05
1.65903e-05
1.65441e-05
1.64946e-05
1.64419e-05
1.64035e-05
1.63564e-05
1.63088e-05
1.62581e-05
1.62209e-05
1.61701e-05
1.61269e-05
1.60682e-05
1.60229e-05
1.99999e-05
1.98665e-05
1.95909e-05
1.93233e-05
1.90899e-05
1.89387e-05
1.88192e-05
1.87238e-05
1.86077e-05
1.84976e-05
1.83928e-05
1.82988e-05
1.82085e-05
1.81262e-05
1.80332e-05
1.79517e-05
1.7869e-05
1.77924e-05
1.77112e-05
1.76467e-05
1.75723e-05
1.75183e-05
1.74546e-05
1.74062e-05
1.73437e-05
1.73029e-05
1.7246e-05
1.72029e-05
1.7143e-05
1.71005e-05
1.70468e-05
1.69965e-05
1.69483e-05
1.69001e-05
1.68499e-05
1.68078e-05
1.67532e-05
1.67086e-05
1.66642e-05
1.6616e-05
1.65646e-05
1.65266e-05
1.648e-05
1.6433e-05
1.63838e-05
1.63479e-05
1.6298e-05
1.62556e-05
1.61987e-05
1.61547e-05
1.99999e-05
1.98697e-05
1.96006e-05
1.93409e-05
1.91103e-05
1.89582e-05
1.88367e-05
1.87445e-05
1.86339e-05
1.85264e-05
1.84232e-05
1.83319e-05
1.82439e-05
1.81644e-05
1.80747e-05
1.79962e-05
1.79164e-05
1.78422e-05
1.77638e-05
1.77025e-05
1.76315e-05
1.7581e-05
1.75202e-05
1.74767e-05
1.74179e-05
1.73818e-05
1.73283e-05
1.72892e-05
1.72334e-05
1.71939e-05
1.71438e-05
1.7096e-05
1.70512e-05
1.70055e-05
1.69577e-05
1.69175e-05
1.68648e-05
1.6822e-05
1.67794e-05
1.67322e-05
1.66816e-05
1.66439e-05
1.65978e-05
1.65515e-05
1.6504e-05
1.6469e-05
1.64197e-05
1.63783e-05
1.63236e-05
1.62817e-05
1.99999e-05
1.98729e-05
1.96098e-05
1.93578e-05
1.91306e-05
1.89778e-05
1.88547e-05
1.87647e-05
1.86588e-05
1.85545e-05
1.84529e-05
1.83641e-05
1.82778e-05
1.8201e-05
1.81145e-05
1.80389e-05
1.79616e-05
1.78894e-05
1.78136e-05
1.77554e-05
1.76872e-05
1.76398e-05
1.75822e-05
1.75432e-05
1.74883e-05
1.74562e-05
1.74067e-05
1.73709e-05
1.73195e-05
1.7283e-05
1.72358e-05
1.7191e-05
1.71492e-05
1.71057e-05
1.70604e-05
1.70218e-05
1.69709e-05
1.69303e-05
1.68888e-05
1.68422e-05
1.67927e-05
1.67552e-05
1.67091e-05
1.66635e-05
1.66181e-05
1.65836e-05
1.65345e-05
1.64944e-05
1.64423e-05
1.64029e-05
1.99999e-05
1.98758e-05
1.96185e-05
1.93738e-05
1.91505e-05
1.89974e-05
1.8873e-05
1.87844e-05
1.86825e-05
1.85815e-05
1.8482e-05
1.83952e-05
1.83101e-05
1.82358e-05
1.81525e-05
1.80796e-05
1.80044e-05
1.79339e-05
1.78607e-05
1.7805e-05
1.77393e-05
1.76946e-05
1.76405e-05
1.76052e-05
1.75545e-05
1.7526e-05
1.74807e-05
1.74481e-05
1.74008e-05
1.73673e-05
1.73226e-05
1.72812e-05
1.72418e-05
1.72004e-05
1.71577e-05
1.71201e-05
1.70714e-05
1.7033e-05
1.69919e-05
1.69456e-05
1.68974e-05
1.68602e-05
1.68136e-05
1.67685e-05
1.67254e-05
1.66912e-05
1.66423e-05
1.66034e-05
1.65542e-05
1.65177e-05
1.99999e-05
1.98786e-05
1.96268e-05
1.93889e-05
1.91695e-05
1.90168e-05
1.88915e-05
1.88036e-05
1.87048e-05
1.86075e-05
1.85102e-05
1.8425e-05
1.83408e-05
1.8269e-05
1.81886e-05