/*--------------------------------*- C++ -*----------------------------------*\
  =========                 |
  \\      /  F ield         | OpenFOAM: The Open Source CFD Toolbox
   \\    /   O peration     | Website:  https://openfoam.org
    \\  /    A nd           | Version:  7
     \\/     M anipulation  |
\*---------------------------------------------------------------------------*/
FoamFile
{
    version     2.0;
    format      ascii;
    class       volScalarField;
    location    "0.47";
    object      nut;
}
// * * * * * * * * * * * * * * * * * * * * * * * * * * * * * * * * * * * * * //

dimensions      [0 2 -1 0 0 0 0];

internalField   nonuniform List<scalar> 
70000
(
0
0
0
0
0
0
0
0
0
0
0
0
0
0
0
0
0
0
0
0
0
0
0
0
0
0
0
0
0
0
0
0
0
0
0
0
0
0
6.7103e-15
3.50089e-14
4.00538e-14
9.87021e-14
6.31501e-14
2.16434e-13
9.06228e-14
4.77874e-13
4.50802e-14
1.34291e-12
0
0
0
0
0
0
0
0
0
0
0
0
0
0
0
0
0
0
0
0
0
0
0
0
0
0
0
0
0
0
0
0
0
0
0
0
0
0
0
1.61411e-14
3.76618e-14
8.74814e-14
9.12537e-14
1.98441e-13
1.25984e-13
4.0333e-13
1.36952e-13
8.94921e-13
7.11683e-15
2.63174e-12
8.04029e-13
0
0
0
0
0
0
0
0
0
0
0
0
0
0
0
0
0
0
0
0
0
0
0
0
0
0
0
0
0
0
0
0
0
0
0
0
0
0
3.07149e-14
5.19788e-14
1.11458e-13
1.04028e-13
2.43552e-13
1.30289e-13
4.92497e-13
4.3111e-14
1.113e-12
0
3.34776e-12
5.93444e-12
0
0
0
0
0
0
0
0
0
0
0
0
0
0
0
0
0
0
0
0
0
0
0
0
0
0
0
0
0
0
0
0
0
0
0
0
0
0
0
0
1.20475e-14
0
1.59721e-13
7.5968e-15
4.49527e-13
0
1.09968e-12
0
3.15914e-12
1.05707e-11
0
0
0
0
0
0
0
0
0
0
0
0
0
0
0
0
0
0
0
0
0
0
0
0
0
0
0
0
0
0
0
0
0
0
0
0
0
0
0
0
0
0
0
0
2.99389e-13
0
9.20176e-13
0
2.39861e-12
1.28569e-11
0
9.44979e-10
0
0
0
0
0
0
0
0
0
0
0
0
0
0
0
0
0
0
0
0
0
0
0
0
0
0
0
0
0
0
0
0
0
0
0
0
0
0
0
0
0
0
5.90056e-14
0
6.46715e-13
0
1.48245e-12
1.35302e-11
0
1.31872e-08
0
0
0
0
0
0
0
0
0
0
0
0
0
0
0
0
0
0
0
0
0
0
0
0
0
0
0
0
0
0
0
0
0
0
0
0
0
0
0
0
0
0
0
0
2.93189e-13
0
4.81658e-13
1.34993e-11
0
1.20809e-08
0
0
0
0
0
0
0
0
0
0
0
0
0
0
0
0
0
0
0
0
0
0
0
0
0
0
0
0
0
0
0
0
0
0
0
0
0
0
0
0
0
0
0
0
0
0
0
1.30384e-11
0
1.1062e-08
0
0
0
0
0
0
0
0
0
0
0
0
0
0
0
0
0
0
0
0
0
0
0
0
0
0
0
0
0
0
0
0
0
0
0
0
0
0
0
0
0
0
0
0
0
0
0
1.22448e-11
0
1.0214e-08
0
0
0
0
0
0
0
0
0
0
0
0
0
0
0
0
0
0
0
0
0
0
0
0
0
0
0
0
0
0
0
0
0
0
0
0
0
0
0
0
0
0
0
0
0
0
0
1.11919e-11
0
9.50368e-09
0
0
0
0
0
0
0
0
0
0
0
0
0
0
0
0
0
0
0
0
0
0
0
0
0
0
0
0
0
0
0
0
0
0
0
0
0
0
0
0
0
0
0
0
0
0
0
9.98119e-12
0
8.86051e-09
0
0
0
0
0
0
0
0
0
0
0
0
0
0
0
0
0
0
0
0
0
0
0
0
0
0
0
0
0
0
0
0
0
0
0
0
0
0
0
0
0
0
0
0
0
0
0
8.74899e-12
0
8.21881e-09
0
0
0
0
0
0
0
0
0
0
0
0
0
0
0
0
0
0
0
0
0
0
0
0
0
0
0
0
0
0
0
0
0
0
0
0
0
0
0
0
0
0
0
0
0
1.83957e-13
0
7.62921e-12
0
7.55874e-09
0
0
0
0
0
0
0
0
0
0
0
0
0
0
0
0
0
0
0
0
0
0
0
0
0
0
0
0
0
0
0
0
0
0
0
0
0
0
0
0
0
0
0
0
0
1.01193e-12
0
6.76352e-12
0
6.88647e-09
0
0
0
0
0
0
0
0
0
0
0
0
0
0
0
0
6.98213e-12
0
0
0
0
0
0
0
0
0
0
0
0
0
0
0
0
0
0
0
0
0
0
0
0
0
0
0
0
2.24321e-12
0
6.41539e-12
0
6.21306e-09
0
0
0
0
0
0
0
0
0
0
0
0
0
0
0
0
0
0
0
1.48942e-13
6.54157e-12
1.88785e-12
0
0
0
0
0
0
0
0
0
0
0
0
0
0
0
0
0
0
0
0
0
0
0
4.42527e-12
0
7.17933e-12
0
5.54702e-09
0
0
0
4.05158e-11
0
0
0
0
0
0
0
0
0
0
0
0
0
0
0
0
0
0
0
0
0
0
0
0
0
0
0
0
0
0
0
0
0
0
0
0
0
0
0
1.29965e-12
5.60255e-13
9.5446e-12
1.00209e-12
1.0951e-11
0
4.89464e-09
0
0
0
1.19248e-10
0
0
0
0
0
0
0
0
0
0
0
0
0
0
0
0
0
0
0
0
0
0
0
0
0
0
0
0
0
0
0
0
0
0
0
0
0
0
0
1.80531e-12
3.22852e-12
2.18008e-11
1.12094e-11
2.43536e-11
0
4.2614e-09
0
0
0
1.68835e-10
0
0
0
0
0
0
0
0
0
0
0
0
0
0
0
0
0
0
0
0
0
0
0
0
0
0
0
0
0
0
0
0
0
0
0
0
0
0
0
0
0
0
0
0
0
3.65242e-09
0
0
0
1.73996e-10
0
0
0
0
0
0
0
0
0
0
0
0
0
0
0
0
0
0
0
0
0
0
0
0
0
0
0
0
0
0
0
0
0
0
0
0
0
0
0
0
0
0
0
0
0
3.07198e-09
0
0
0
1.17129e-10
0
0
0
0
0
0
0
0
0
0
0
0
0
0
0
0
0
0
0
0
0
0
0
0
0
0
0
0
0
0
0
0
0
0
0
0
0
0
0
0
0
0
0
0
0
2.52301e-09
0
0
0
0
0
0
0
0
0
0
0
0
0
0
0
0
0
0
0
0
0
0
0
0
0
0
0
0
0
0
0
0
0
0
0
0
0
0
0
0
0
0
0
0
0
0
0
0
0
2.00684e-09
0
0
0
0
0
0
0
0
0
0
0
0
0
0
0
0
0
0
0
0
0
0
0
0
0
0
0
0
0
0
0
0
0
0
0
0
0
0
0
0
0
0
0
0
0
0
0
0
3.99144e-11
1.52304e-09
0
0
0
0
0
0
0
0
0
0
0
0
0
0
0
0
0
0
0
0
0
0
0
0
0
0
0
0
0
0
0
0
0
0
0
0
0
0
0
0
0
0
0
0
0
0
0
0
1.30507e-10
1.06963e-09
0
0
0
0
0
0
0
0
0
0
0
0
0
0
0
0
0
0
0
0
0
0
0
0
0
0
0
0
0
0
0
0
0
0
0
0
0
0
0
0
0
0
0
0
0
0
0
0
2.31692e-10
6.43428e-10
0
0
0
0
0
0
0
0
0
0
0
0
0
0
0
0
0
0
0
0
0
0
0
0
0
0
0
0
0
0
0
0
0
0
0
0
0
0
0
0
0
0
0
0
0
0
0
5.69165e-12
3.4429e-10
2.40654e-10
0
0
0
0
0
0
0
0
0
0
0
0
0
0
0
0
0
0
0
0
0
0
0
0
0
0
0
0
0
0
0
0
0
0
0
0
0
0
0
0
0
0
0
0
0
0
0
1.04996e-10
4.68137e-10
0
0
0
0
0
0
0
0
0
0
0
0
0
0
0
0
0
0
0
0
0
0
0
0
0
0
0
0
0
0
0
0
0
0
0
0
0
0
0
0
0
0
0
0
0
0
0
0
2.15833e-10
6.02479e-10
0
0
0
0
0
0
0
0
0
0
0
0
0
0
0
0
0
0
0
0
0
0
0
0
0
0
0
0
0
0
0
0
0
0
0
0
0
0
0
0
0
0
0
0
0
0
0
0
3.38255e-10
7.46428e-10
0
0
0
0
0
0
0
0
0
0
0
0
0
0
0
0
0
0
0
0
0
0
0
0
0
0
0
0
0
0
0
0
0
0
0
0
0
0
0
0
0
0
0
0
0
0
0
1.16951e-13
4.71849e-10
8.98854e-10
0
0
0
0
0
0
0
0
0
0
0
0
0
0
0
0
0
0
0
0
0
0
0
0
0
0
0
0
0
0
0
0
0
0
0
0
0
0
0
0
0
0
0
0
0
0
0
1.00752e-10
6.15486e-10
1.05829e-09
0
0
0
0
0
0
0
0
0
0
0
0
0
0
0
0
0
0
0
0
0
0
0
0
0
0
0
0
0
0
0
0
0
0
0
0
0
0
0
0
0
0
0
0
0
0
0
2.11899e-10
7.6792e-10
1.22294e-09
0
7.00211e-10
0
0
0
0
0
0
0
0
0
0
0
0
0
0
0
0
0
0
0
0
0
0
0
0
0
0
0
0
0
0
0
0
0
0
0
0
0
0
0
0
0
0
0
0
0
3.33185e-10
9.27876e-10
1.39082e-09
0
1.61338e-09
0
0
0
0
0
0
0
0
0
0
0
0
0
0
0
0
0
0
0
0
0
0
0
0
0
0
0
0
0
0
0
0
0
0
0
0
0
0
0
0
0
0
0
0
0
4.63426e-10
1.0934e-09
1.5596e-09
0
2.40091e-09
0
0
0
0
0
0
0
0
0
0
0
0
0
0
0
0
0
0
0
0
0
0
0
0
0
0
0
0
0
0
0
0
0
0
0
0
0
0
0
0
0
0
0
0
9.08822e-11
6.00624e-10
1.26155e-09
1.72617e-09
0
3.06536e-09
0
0
0
0
0
0
0
0
0
0
0
0
0
0
0
0
0
0
0
0
0
0
0
0
0
0
0
0
0
0
0
0
0
0
0
0
0
0
0
0
0
0
0
0
1.98196e-10
7.42855e-10
1.42966e-09
1.88744e-09
0
3.61231e-09
0
0
0
0
0
0
0
0
0
0
0
0
0
0
0
0
0
0
0
0
0
0
0
0
0
0
0
0
0
0
0
0
0
0
0
0
0
0
0
0
0
0
0
0
3.11738e-10
8.88071e-10
1.5951e-09
2.04039e-09
0
4.04954e-09
0
0
0
0
0
0
0
0
0
0
0
0
0
0
0
0
0
0
0
0
0
0
0
0
0
0
0
0
0
0
0
0
0
0
0
0
0
0
0
0
0
0
0
0
4.2956e-10
1.03311e-09
1.75398e-09
2.18127e-09
0
4.38558e-09
0
0
0
0
0
0
0
0
0
0
0
0
0
0
0
0
0
0
0
0
0
0
0
0
0
0
0
0
0
0
0
0
0
0
0
0
0
0
0
0
0
0
0
1.22461e-11
5.49349e-10
1.17439e-09
1.90216e-09
2.30639e-09
0
4.62954e-09
0
0
0
0
0
0
0
0
0
0
0
0
0
0
0
0
0
0
0
0
0
0
0
0
0
0
0
0
0
0
0
0
0
0
0
0
0
0
0
0
0
0
0
1.06898e-10
6.68448e-10
1.30917e-09
2.03659e-09
2.41257e-09
0
4.79173e-09
0
0
0
0
0
0
0
0
0
0
0
0
0
0
0
0
0
0
0
0
0
0
0
0
0
0
0
0
0
0
0
0
0
0
0
0
0
0
0
0
0
0
0
2.03011e-10
7.83968e-10
1.43481e-09
2.15461e-09
2.49707e-09
0
4.88344e-09
0
0
0
0
0
0
0
0
0
0
0
0
0
0
0
0
0
0
0
0
0
0
0
0
0
0
0
0
0
0
0
0
0
0
0
0
0
0
0
0
0
0
0
2.98408e-10
8.93013e-10
1.54775e-09
2.25283e-09
2.5574e-09
0
4.91594e-09
0
0
0
0
0
0
0
0
0
0
0
0
0
0
0
0
0
0
0
0
0
0
0
0
0
0
0
0
0
0
0
0
0
0
0
0
0
0
0
0
0
0
0
3.90812e-10
9.92806e-10
1.64439e-09
2.32796e-09
2.59162e-09
0
4.89958e-09
0
0
0
0
0
0
0
0
0
0
0
0
0
0
0
0
0
0
0
0
0
0
0
0
0
0
0
0
0
0
0
0
0
0
0
0
0
0
0
0
0
0
0
4.77472e-10
1.08085e-09
1.72258e-09
2.37799e-09
2.59816e-09
0
4.84338e-09
0
0
0
0
0
0
0
0
0
0
0
0
0
0
0
0
0
0
0
0
0
0
0
0
0
0
0
0
0
0
0
0
0
0
0
0
0
0
0
0
0
0
2.94583e-11
5.55905e-10
1.15501e-09
1.78051e-09
2.40135e-09
2.57628e-09
0
4.755e-09
0
0
0
0
0
0
0
0
0
0
0
0
0
0
0
0
0
0
0
0
0
0
0
0
0
0
0
0
0
0
0
0
0
0
0
0
0
0
0
0
0
0
9.5077e-11
6.24012e-10
1.21262e-09
1.81641e-09
2.39792e-09
2.52759e-09
0
4.64085e-09
0
0
0
0
0
0
0
0
0
0
0
0
0
0
0
0
0
0
0
0
0
0
0
0
0
0
0
0
0
0
0
0
0
0
0
0
0
0
0
0
0
0
1.53917e-10
6.80009e-10
1.25096e-09
1.82885e-09
2.3684e-09
2.45364e-09
0
4.50617e-09
0
0
0
0
0
0
0
0
0
0
0
0
0
0
0
0
0
0
0
0
0
0
0
0
0
0
0
0
0
0
0
0
0
0
0
0
0
0
0
0
0
0
2.04341e-10
7.23292e-10
1.2708e-09
1.81696e-09
2.31144e-09
2.35487e-09
0
4.35533e-09
0
0
0
0
0
0
0
0
0
0
0
0
0
0
0
0
0
0
0
0
0
0
0
0
0
0
0
0
0
0
0
0
0
0
0
0
0
0
0
0
0
0
2.44821e-10
7.53289e-10
1.27885e-09
1.78765e-09
2.23061e-09
2.23451e-09
0
4.19203e-09
0
0
0
0
0
0
0
0
0
0
0
0
0
0
0
0
0
0
0
0
0
0
0
0
0
0
0
0
0
0
0
0
0
0
0
0
0
0
0
0
0
0
2.74213e-10
7.68212e-10
1.27503e-09
1.7453e-09
2.13186e-09
2.09803e-09
0
4.01948e-09
0
0
0
0
0
0
0
0
0
0
0
0
0
0
0
0
0
0
0
0
0
0
0
0
0
0
0
0
0
0
0
0
0
0
0
0
0
0
0
0
0
0
2.92145e-10
7.67251e-10
1.24695e-09
1.6777e-09
2.01201e-09
1.9476e-09
0
3.84046e-09
0
0
0
0
0
0
0
0
0
0
0
0
0
0
0
0
0
0
0
0
0
0
0
0
0
0
0
0
0
0
0
0
0
0
0
0
0
0
0
0
0
0
2.97935e-10
7.50408e-10
1.19189e-09
1.58107e-09
1.87368e-09
1.78839e-09
0
3.65738e-09
0
0
0
0
0
0
0
0
0
0
0
0
0
0
0
0
0
0
0
0
0
0
0
0
0
0
0
0
0
0
0
0
0
0
0
0
0
0
0
0
0
0
2.91489e-10
7.1853e-10
1.11886e-09
1.46289e-09
1.72247e-09
1.62577e-09
0
3.47236e-09
0
0
0
0
0
0
0
0
0
0
0
0
0
0
0
0
0
0
0
0
0
0
0
0
0
0
0
0
0
0
0
0
0
0
0
0
0
0
0
0
0
0
2.73313e-10
6.73822e-10
1.03834e-09
1.33965e-09
1.56391e-09
1.46035e-09
0
3.28738e-09
0
0
0
0
0
0
0
0
0
0
0
0
0
0
0
0
0
0
0
0
0
0
0
0
0
0
0
0
0
0
0
0
0
0
0
0
0
0
0
0
0
0
2.4416e-10
6.17956e-10
9.57163e-10
1.23281e-09
1.41336e-09
1.2986e-09
0
3.1043e-09
0
0
0
0
0
0
0
0
0
0
0
0
0
0
0
0
0
0
0
0
0
0
0
0
0
0
0
0
0
0
0
0
0
0
0
0
0
0
0
0
0
0
2.0568e-10
5.52934e-10
8.69072e-10
1.12731e-09
1.26572e-09
1.14183e-09
0
2.92476e-09
0
0
0
0
0
0
0
0
0
0
0
0
0
0
0
0
0
0
0
0
0
0
0
0
0
0
0
0
0
0
0
0
0
0
0
0
0
0
0
0
0
0
1.59567e-10
4.81089e-10
7.68631e-10
1.00055e-09
1.10761e-09
9.87336e-10
0
2.75014e-09
0
0
0
0
0
0
0
0
0
0
0
0
0
0
0
0
0
0
0
0
0
0
0
0
0
0
0
0
0
0
0
0
0
0
0
0
0
0
0
0
0
0
1.07607e-10
4.03916e-10
6.61871e-10
8.65203e-10
9.5223e-10
8.43174e-10
0
2.58155e-09
0
0
0
0
0
0
0
0
0
0
0
0
0
0
0
0
0
0
0
0
0
0
0
0
0
0
0
0
0
0
0
0
0
0
0
0
0
0
0
0
0
0
5.16094e-11
3.23273e-10
5.55121e-10
7.36319e-10
8.13819e-10
7.14134e-10
0
2.41985e-09
0
0
0
0
0
0
0
0
0
0
0
0
0
0
0
0
0
0
0
0
0
0
0
0
0
0
0
0
0
0
0
0
0
0
0
0
0
0
0
0
0
0
0
2.42021e-10
4.51608e-10
6.16678e-10
6.959e-10
6.03039e-10
0
2.26566e-09
0
0
0
0
0
0
0
0
0
0
0
0
0
0
0
0
0
0
0
0
0
0
0
0
0
0
0
0
0
0
0
0
0
0
0
0
0
0
0
0
0
0
0
1.61963e-10
3.51918e-10
5.06983e-10
5.94062e-10
5.09908e-10
0
2.11942e-09
0
0
0
0
0
0
0
0
0
0
0
0
0
0
0
0
0
0
0
0
0
0
0
0
0
0
0
0
0
0
0
0
0
0
0
0
0
0
0
0
0
0
0
8.65381e-11
2.59282e-10
4.00174e-10
4.78623e-10
4.07441e-10
0
1.9814e-09
0
0
0
0
0
0
0
0
0
0
0
0
0
0
0
0
0
0
0
0
0
0
0
0
0
0
0
0
0
0
0
0
0
0
0
0
0
0
0
0
0
0
0
1.71866e-11
1.73963e-10
2.95744e-10
3.53035e-10
2.96915e-10
0
1.85174e-09
4.39801e-11
0
0
0
0
0
0
0
0
0
0
0
0
0
0
0
0
0
0
0
0
0
0
0
0
0
0
0
0
0
0
0
0
0
0
0
0
0
0
0
0
0
0
0
9.7743e-11
2.0598e-10
2.5836e-10
2.21919e-10
0
1.73051e-09
8.4042e-11
0
0
0
0
0
0
0
0
0
0
0
0
0
0
0
0
0
0
0
0
0
0
0
0
0
0
0
0
0
0
0
0
0
0
0
0
0
0
0
0
0
0
0
3.24985e-11
1.36795e-10
2.06334e-10
1.94515e-10
0
1.61769e-09
1.15313e-10
0
0
0
0
0
0
0
0
0
0
0
0
0
0
0
0
0
0
0
0
0
0
0
0
0
0
0
0
0
0
0
0
0
0
0
0
0
0
0
0
0
0
0
0
8.35462e-11
1.56311e-10
1.52579e-10
0
1.51319e-09
1.39426e-10
0
0
0
0
0
0
0
0
0
0
0
0
0
0
0
0
0
0
0
0
0
0
0
0
0
0
0
0
0
0
0
0
0
0
0
0
0
0
0
0
0
0
0
0
3.74115e-11
9.89711e-11
9.0266e-11
0
1.41689e-09
1.57789e-10
0
0
0
0
0
0
0
0
0
0
0
0
0
0
0
0
0
0
0
0
0
0
0
0
0
0
0
0
0
0
0
0
0
0
0
0
0
0
0
0
0
0
0
0
0
5.76302e-11
4.57915e-11
0
1.32859e-09
1.71625e-10
0
0
0
0
0
0
0
0
0
0
0
0
0
0
0
0
0
0
0
0
0
0
0
0
0
0
0
0
0
0
0
0
0
0
0
0
0
0
0
0
0
0
0
0
0
2.66346e-11
1.29599e-11
0
1.24812e-09
1.81999e-10
0
0
0
0
0
0
0
0
0
0
0
0
0
0
0
0
0
0
0
0
0
0
0
0
0
0
0
0
0
0
0
0
0
0
0
0
0
0
0
0
0
0
0
0
0
5.39444e-12
0
0
1.17528e-09
1.89844e-10
0
0
0
0
0
0
0
0
0
0
0
0
0
0
0
0
0
0
0
0
0
0
0
0
0
0
0
0
0
0
0
0
0
0
0
0
0
0
0
0
0
0
0
0
0
0
0
0
1.10988e-09
1.95979e-10
0
0
0
0
0
0
0
0
0
0
0
0
0
0
0
0
0
0
0
0
0
0
0
0
0
0
0
0
0
0
0
0
0
0
0
0
0
0
0
0
0
0
0
0
0
0
0
0
1.05178e-09
2.01121e-10
0
0
0
0
0
0
0
0
0
0
0
0
0
0
0
0
0
0
0
0
0
0
0
0
0
0
0
0
0
0
0
0
0
0
0
0
0
0
0
0
0
0
0
0
0
0
0
0
1.00086e-09
2.05918e-10
0
0
0
0
0
0
0
0
0
0
0
0
0
0
0
0
0
0
0
0
0
0
0
0
0
0
0
0
0
0
0
0
0
0
0
0
0
0
0
0
0
0
0
0
0
0
0
0
9.57066e-10
2.10977e-10
0
0
0
0
0
0
0
0
0
0
0
0
0
0
0
0
0
0
0
0
0
0
0
0
0
0
0
0
0
0
0
0
0
0
0
0
0
0
0
0
0
0
0
0
2.23691e-12
0
0
0
9.20405e-10
2.16905e-10
0
0
0
0
0
0
0
0
0
0
0
0
0
0
0
0
0
0
0
0
0
0
0
0
0
0
0
0
0
0
0
0
0
0
0
0
0
0
0
0
0
2.32814e-11
4.66782e-11
5.36847e-11
3.91257e-11
0
0
0
8.90988e-10
2.24346e-10
0
0
0
0
0
0
0
0
0
0
0
0
0
0
0
0
0
0
0
0
0
0
0
0
0
0
0
0
0
0
0
0
0
0
0
0
0
0
0
6.17879e-11
1.09457e-10
1.36345e-10
1.40619e-10
1.27888e-10
9.22656e-11
3.224e-11
0
0
8.6905e-10
2.34017e-10
0
0
0
0
0
0
0
0
0
0
0
0
0
0
0
0
0
0
0
0
0
0
0
0
0
0
0
0
0
0
0
0
0
0
0
0
9.1373e-12
1.11697e-10
1.87136e-10
2.385e-10
2.66082e-10
2.72933e-10
2.5707e-10
2.22939e-10
1.65273e-10
8.41378e-11
0
0
8.54991e-10
2.4678e-10
0
0
0
0
0
0
0
0
0
0
0
0
0
0
0
0
0
0
0
0
0
0
0
0
0
0
0
0
0
0
0
0
0
0
4.11575e-11
1.77363e-10
2.84163e-10
3.63456e-10
4.15924e-10
4.45295e-10
4.51731e-10
4.37694e-10
4.00848e-10
3.44648e-10
2.64195e-10
1.60525e-10
0
0
8.49451e-10
2.63763e-10
0
0
0
0
0
0
0
0
0
0
0
0
0
0
0
0
0
0
0
0
0
0
0
0
0
0
0
0
0
0
0
0
9.11899e-11
2.65684e-10
4.06977e-10
5.17471e-10
5.99238e-10
6.5411e-10
6.82198e-10
6.88177e-10
6.72409e-10
6.3655e-10
5.77956e-10
4.99034e-10
3.9423e-10
2.67582e-10
9.11379e-11
0
8.53387e-10
2.86446e-10
0
0
0
0
0
0
0
0
0
0
0
0
0
0
0
0
0
0
0
0
0
0
0
0
0
0
0
0
0
0
1.61542e-10
3.80792e-10
5.63357e-10
7.10401e-10
8.237e-10
9.0635e-10
9.61123e-10
9.90233e-10
9.92709e-10
9.7431e-10
9.35852e-10
8.77663e-10
7.96858e-10
6.94485e-10
5.65725e-10
4.18898e-10
2.39522e-10
0
8.68191e-10
3.16834e-10
0
0
0
0
0
0
0
0
0
0
0
0
0
0
0
0
0
0
0
0
0
0
0
0
0
0
0
0
2.49053e-10
5.19217e-10
7.51395e-10
9.44382e-10
1.09888e-09
1.21667e-09
1.30016e-09
1.35309e-09
1.37903e-09
1.38082e-09
1.35634e-09
1.31208e-09
1.25057e-09
1.1708e-09
1.06905e-09
9.44723e-10
7.93363e-10
6.28514e-10
4.53106e-10
0
8.95881e-10
3.57767e-10
0
0
0
0
0
0
0
0
0
0
0
0
0
0
0
0
0
0
0
0
0
0
0
0
0
0
3.4758e-10
6.68825e-10
9.57232e-10
1.20765e-09
1.41657e-09
1.58299e-09
1.70827e-09
1.79506e-09
1.84659e-09
1.86764e-09
1.86316e-09
1.83681e-09
1.78524e-09
1.71387e-09
1.62884e-09
1.52754e-09
1.40655e-09
1.2624e-09
1.09148e-09
9.12173e-10
7.49991e-10
0
9.39386e-10
4.13344e-10
0
0
0
0
0
0
0
0
0
0
0
0
0
0
0
0
0
0
0
0
0
0
0
7.79107e-11
4.53081e-10
8.14931e-10
1.15567e-09
1.46797e-09
1.74465e-09
1.97935e-09
2.16767e-09
2.30851e-09
2.40411e-09
2.45873e-09
2.47666e-09
2.46381e-09
2.42682e-09
2.37104e-09
2.2927e-09
2.19369e-09
2.08615e-09
1.96508e-09
1.82652e-09
1.66415e-09
1.47571e-09
1.28811e-09
1.15468e-09
0
1.003e-09
4.89567e-10
0
0
0
0
0
0
0
0
0
0
0
0
0
0
0
0
0
0
0
0
0
2.02251e-10
5.88432e-10
9.61034e-10
1.32627e-09
1.6893e-09
2.03159e-09
2.34348e-09
2.61612e-09
2.8417e-09
3.01463e-09
3.13319e-09
3.20023e-09
3.22218e-09
3.20559e-09
3.15788e-09
3.08755e-09
3.00186e-09
2.89776e-09
2.76983e-09
2.63924e-09
2.50059e-09
2.34934e-09
2.17416e-09
1.97554e-09
1.78912e-09
1.69807e-09
0
1.09308e-09
5.95451e-10
0
0
0
0
0
0
0
0
0
0
0
0
0
0
0
0
0
0
0
3.94909e-10
7.85795e-10
1.16229e-09
1.52596e-09
1.87948e-09
2.23397e-09
2.60875e-09
2.96708e-09
3.29248e-09
3.57378e-09
3.8012e-09
3.96762e-09
4.07053e-09
4.1131e-09
4.10373e-09
4.0525e-09
3.96907e-09
3.86471e-09
3.74949e-09
3.62261e-09
3.46726e-09
3.31306e-09
3.15791e-09
2.99641e-09
2.81428e-09
2.61362e-09
2.43976e-09
2.41028e-09
0
1.2192e-09
7.44414e-10
0
0
0
0
0
0
0
0
0
0
0
0
0
0
0
0
1.49709e-10
6.21901e-10
1.04088e-09
1.42363e-09
1.78515e-09
2.13421e-09
2.47331e-09
2.80671e-09
3.14986e-09
3.54362e-09
3.9417e-09
4.30211e-09
4.61184e-09
4.85874e-09
5.03363e-09
5.13256e-09
5.15885e-09
5.12313e-09
5.0401e-09
4.92299e-09
4.7859e-09
4.64258e-09
4.49538e-09
4.3174e-09
4.13835e-09
3.96725e-09
3.80069e-09
3.61374e-09
3.41439e-09
3.2606e-09
3.31803e-09
0
1.39616e-09
9.55989e-10
0
0
0
0
0
0
0
0
0
0
0
0
0
0
2.18748e-10
8.05991e-10
1.3152e-09
1.74612e-09
2.116e-09
2.44935e-09
2.76678e-09
3.07969e-09
3.39033e-09
3.70134e-09
4.0322e-09
4.44529e-09
4.91718e-09
5.3461e-09
5.71448e-09
6.00756e-09
6.21379e-09
6.32743e-09
6.35142e-09
6.29843e-09
6.18867e-09
6.04265e-09
5.87775e-09
5.71165e-09
5.55021e-09
5.35924e-09
5.15287e-09
4.96303e-09
4.79096e-09
4.6064e-09
4.42004e-09
4.30051e-09
4.46897e-09
0
1.64738e-09
1.26005e-09
0
0
0
0
0
0
0
0
0
0
0
0
1.9373e-10
8.55564e-10
1.50831e-09
2.06632e-09
2.52045e-09
2.87955e-09
3.17085e-09
3.42996e-09
3.68549e-09
3.95175e-09
4.2297e-09
4.51633e-09
4.8325e-09
5.25228e-09
5.83499e-09
6.37904e-09
6.84967e-09
7.22831e-09
7.5004e-09
7.65764e-09
7.7021e-09
7.64824e-09
7.522e-09
7.35469e-09
7.17081e-09
6.99145e-09
6.8256e-09
6.6329e-09
6.39653e-09
6.18636e-09
6.01191e-09
5.83261e-09
5.66477e-09
5.58867e-09
5.88535e-09
0
2.01086e-09
1.7e-09
0
0
0
0
0
0
0
0
0
0
2.14014e-10
8.63808e-10
1.54187e-09
2.23945e-09
2.8963e-09
3.38578e-09
3.74496e-09
3.9932e-09
4.17113e-09
4.32821e-09
4.50228e-09
4.71054e-09
4.95173e-09
5.21486e-09
5.51544e-09
5.92699e-09
6.61484e-09
7.33879e-09
7.96637e-09
8.48033e-09
8.86393e-09
9.10625e-09
9.20627e-09
9.17769e-09
9.05086e-09
8.8704e-09
8.67709e-09
8.50053e-09
8.35643e-09
8.19689e-09
7.93334e-09
7.69507e-09
7.51507e-09
7.3327e-09
7.16458e-09
7.11674e-09
7.55953e-09
0
2.54949e-09
2.33416e-09
0
0
0
0
0
0
0
0
3.13789e-10
9.53831e-10
1.60976e-09
2.29189e-09
3.00592e-09
3.73287e-09
4.35627e-09
4.72879e-09
4.95569e-09
5.06725e-09
5.11688e-09
5.16468e-09
5.25358e-09
5.40091e-09
5.60323e-09
5.84412e-09
6.12758e-09
6.51547e-09
7.21277e-09
8.16355e-09
9.00711e-09
9.7102e-09
1.02532e-08
1.06286e-08
1.0835e-08
1.08808e-08
1.07948e-08
1.06316e-08
1.04521e-08
1.02979e-08
1.01936e-08
1.00939e-08
9.82802e-09
9.53644e-09
9.29871e-09
9.06524e-09
8.87006e-09
8.84452e-09
9.43378e-09
0
3.3689e-09
3.2261e-09
0
0
0
0
0
0
4.78478e-10
1.12415e-09
1.77774e-09
2.44275e-09
3.12567e-09
3.83944e-09
4.58554e-09
5.32051e-09
5.83108e-09
6.02993e-09
6.10065e-09
6.08375e-09
6.03868e-09
6.02168e-09
6.06633e-09
6.1824e-09
6.36352e-09
6.59417e-09
6.86978e-09
7.22796e-09
7.79605e-09
8.83843e-09
9.92763e-09
1.08714e-08
1.16314e-08
1.21906e-08
1.25493e-08
1.27179e-08
1.27279e-08
1.26398e-08
1.25297e-08
1.24447e-08
1.23921e-08
1.23185e-08
1.19985e-08
1.16067e-08
1.1282e-08
1.09726e-08
1.07294e-08
1.07073e-08
1.14245e-08
0
4.65077e-09
4.42521e-09
0
0
0
0
6.54023e-10
1.34988e-09
2.02275e-09
2.6942e-09
3.37239e-09
4.05891e-09
4.76248e-09
5.50087e-09
6.2654e-09
6.95846e-09
7.23214e-09
7.23127e-09
7.17068e-09
7.10268e-09
7.07379e-09
7.10609e-09
7.20138e-09
7.35297e-09
7.55597e-09
7.83092e-09
8.15512e-09
8.52709e-09
8.97036e-09
9.55547e-09
1.05515e-08
1.17599e-08
1.28257e-08
1.36641e-08
1.42411e-08
1.45701e-08
1.46997e-08
1.47011e-08
1.4663e-08
1.4657e-08
1.4687e-08
1.46634e-08
1.42737e-08
1.37797e-08
1.33733e-08
1.29978e-08
1.27083e-08
1.26805e-08
1.35072e-08
0
6.6912e-09
5.95971e-09
1.16515e-09
2.26413e-10
7.10599e-10
1.4514e-09
2.21996e-09
2.95082e-09
3.66267e-09
4.37205e-09
5.08108e-09
5.7885e-09
6.50676e-09
7.25989e-09
8.01579e-09
8.56229e-09
8.50317e-09
8.35076e-09
8.25672e-09
8.26811e-09
8.36835e-09
8.50834e-09
8.65571e-09
8.9103e-09
9.26828e-09
9.6264e-09
1.00043e-08
1.04146e-08
1.08614e-08
1.13323e-08
1.1826e-08
1.24385e-08
1.35175e-08
1.47249e-08
1.56143e-08
1.61852e-08
1.64894e-08
1.66145e-08
1.66698e-08
1.67532e-08
1.68682e-08
1.68683e-08
1.63832e-08
1.5843e-08
1.54171e-08
1.50424e-08
1.47729e-08
1.48046e-08
1.58036e-08
0
9.9454e-09
7.59168e-09
2.48677e-09
1.75087e-09
2.21148e-09
2.91334e-09
3.74212e-09
4.54302e-09
5.32802e-09
6.10369e-09
6.8589e-09
7.58769e-09
8.31021e-09
9.05962e-09
9.75784e-09
9.99431e-09
9.66744e-09
9.44599e-09
9.43495e-09
9.60546e-09
9.82761e-09
1.00316e-08
1.05041e-08
1.10857e-08
1.1502e-08
1.1868e-08
1.22747e-08
1.26465e-08
1.28912e-08
1.32603e-08
1.37246e-08
1.42058e-08
1.47278e-08
1.55718e-08
1.66633e-08
1.74258e-08
1.78839e-08
1.81293e-08
1.82835e-08
1.84575e-08
1.86383e-08
1.8586e-08
1.80584e-08
1.76075e-08
1.73086e-08
1.7098e-08
1.70115e-08
1.72408e-08
1.85333e-08
7.96491e-10
1.48915e-08
8.84802e-09
3.6479e-09
3.13473e-09
3.60298e-09
4.20096e-09
4.98999e-09
5.96504e-09
6.90765e-09
7.80214e-09
8.62461e-09
9.37131e-09
1.00813e-08
1.07991e-08
1.13602e-08
1.1174e-08
1.0717e-08
1.05516e-08
1.06929e-08
1.09887e-08
1.12515e-08
1.17541e-08
1.28609e-08
1.36548e-08
1.41807e-08
1.46109e-08
1.50752e-08
1.54264e-08
1.53065e-08
1.52937e-08
1.55231e-08
1.5931e-08
1.64148e-08
1.68908e-08
1.75008e-08
1.82249e-08
1.87056e-08
1.89981e-08
1.92096e-08
1.94321e-08
1.96211e-08
1.94965e-08
1.92107e-08
1.91042e-08
1.91398e-08
1.92538e-08
1.94145e-08
1.98805e-08
2.14184e-08
5.52599e-09
2.09949e-08
9.62444e-09
4.96814e-09
4.55254e-09
5.00852e-09
5.52709e-09
6.05156e-09
6.89903e-09
8.17115e-09
9.29518e-09
1.02278e-08
1.09895e-08
1.16637e-08
1.23066e-08
1.25974e-08
1.20439e-08
1.1667e-08
1.16863e-08
1.20019e-08
1.23462e-08
1.27571e-08
1.39682e-08
1.54754e-08
1.63881e-08
1.69611e-08
1.74243e-08
1.79511e-08
1.83983e-08
1.81524e-08
1.76869e-08
1.74957e-08
1.75543e-08
1.77979e-08
1.81407e-08
1.85024e-08
1.88283e-08
1.90994e-08
1.93296e-08
1.95503e-08
1.97722e-08
1.99201e-08
1.99838e-08
2.01712e-08
2.04593e-08
2.07811e-08
2.1051e-08
2.12794e-08
2.19662e-08
2.42729e-08
1.80762e-08
2.40655e-08
9.76356e-09
6.57145e-09
6.50766e-09
6.64073e-09
6.99726e-09
7.44262e-09
7.9245e-09
8.87425e-09
1.02976e-08
1.13747e-08
1.21477e-08
1.27658e-08
1.32919e-08
1.32459e-08
1.27337e-08
1.26287e-08
1.29093e-08
1.33371e-08
1.37484e-08
1.46323e-08
1.66682e-08
1.81464e-08
1.90044e-08
1.95629e-08
2.00674e-08
2.06883e-08
2.13198e-08
2.13215e-08
2.05552e-08
1.99534e-08
1.95698e-08
1.93848e-08
1.93449e-08
1.93879e-08
1.94656e-08
1.95549e-08
1.96568e-08
1.97871e-08
1.99657e-08
2.02061e-08
2.05072e-08
2.08451e-08
2.11763e-08
2.14991e-08
2.19373e-08
2.30353e-08
2.48682e-08
2.7592e-08
4.36123e-08
1.99464e-08
9.33368e-09
7.98546e-09
8.48519e-09
8.62093e-09
8.63046e-09
8.85141e-09
9.25083e-09
9.74607e-09
1.07328e-08
1.18291e-08
1.25587e-08
1.31021e-08
1.35327e-08
1.34687e-08
1.34038e-08
1.37057e-08
1.41906e-08
1.46608e-08
1.53956e-08
1.73369e-08
1.9405e-08
2.06096e-08
2.13167e-08
2.18259e-08
2.23528e-08
2.3043e-08
2.38426e-08
2.43065e-08
2.36577e-08
2.28477e-08
2.2125e-08
2.15196e-08
2.10489e-08
2.07141e-08
2.05047e-08
2.04054e-08
2.04019e-08
2.04833e-08
2.0641e-08
2.08619e-08
2.11201e-08
2.1402e-08
2.17599e-08
2.24166e-08
2.41008e-08
2.61359e-08
2.79693e-08
3.06713e-08
4.18656e-08
1.2919e-08
8.38691e-09
8.34436e-09
9.4474e-09
1.02062e-08
1.02446e-08
1.01716e-08
1.02895e-08
1.06439e-08
1.10939e-08
1.16861e-08
1.22439e-08
1.27118e-08
1.31313e-08
1.34724e-08
1.39446e-08
1.44748e-08
1.50377e-08
1.58711e-08
1.78088e-08
2.01559e-08
2.15964e-08
2.24023e-08
2.28767e-08
2.32724e-08
2.37717e-08
2.44916e-08
2.53975e-08
2.6176e-08
2.60158e-08
2.52901e-08
2.45714e-08
2.389e-08
2.32897e-08
2.28073e-08
2.24648e-08
2.22665e-08
2.22029e-08
2.22544e-08
2.23953e-08
2.25908e-08
2.2807e-08
2.30822e-08
2.35893e-08
2.49543e-08
2.71413e-08
2.8803e-08
3.03086e-08
3.27571e-08
0
0
0
2.78356e-11
8.96761e-11
8.19507e-11
7.52429e-11
7.26979e-11
7.13043e-11
6.29567e-11
3.84659e-11
0
0
0
0
3.68753e-11
2.63091e-10
5.73371e-10
0
0
0
0
0
0
0
3.94596e-09
2.2082e-08
5.28405e-08
8.13871e-08
9.37201e-08
6.98044e-08
3.09585e-08
7.36148e-09
9.7841e-10
1.08634e-09
1.64483e-09
2.0446e-09
1.44934e-09
5.33409e-10
1.36079e-09
1.11157e-09
0
0
1.91491e-09
3.78944e-09
3.58531e-09
2.38849e-09
4.74022e-11
0
0
0
0
0
0
0
0
0
1.80387e-09
6.59585e-09
9.81887e-09
7.72506e-09
0
0
0
0
0
0
1.86182e-08
2.86232e-08
1.22696e-08
0
0
0
0
0
0
0
1.31881e-09
2.99748e-10
0
0
4.82505e-10
6.49497e-09
9.11911e-09
9.61586e-09
7.10351e-09
2.60191e-09
1.44334e-10
2.61175e-09
8.12997e-09
1.52855e-08
1.73623e-08
2.72518e-08
2.7242e-08
3.4011e-08
3.3182e-08
4.45596e-08
4.25039e-08
4.73318e-09
0
0
0
0
0
3.65081e-11
4.89368e-11
5.44988e-11
5.68528e-11
5.79094e-11
5.34136e-11
3.58317e-11
5.33804e-12
0
0
0
5.20241e-11
2.65672e-10
6.44194e-10
6.9207e-10
0
0
0
0
0
0
3.53388e-09
2.21064e-08
5.119e-08
7.94367e-08
9.11585e-08
6.5542e-08
2.79065e-08
6.09724e-09
1.41777e-09
1.92181e-09
2.35293e-09
2.70489e-09
2.13144e-09
8.19258e-10
1.31019e-09
1.69522e-09
0
0
9.09073e-10
3.39776e-09
3.36349e-09
2.16995e-09
5.73043e-10
0
0
0
0
0
0
0
0
0
4.5559e-10
5.02e-09
8.13702e-09
6.30984e-09
0
0
0
0
0
0
0
1.59309e-08
8.2968e-09
0
0
0
0
0
0
0
1.34677e-09
1.03643e-09
0
0
0
5.60082e-09
8.76122e-09
9.49978e-09
7.47712e-09
2.96555e-09
0
2.08572e-09
7.08441e-09
1.41051e-08
1.58303e-08
2.58473e-08
2.54939e-08
3.24176e-08
3.15438e-08
4.25185e-08
3.75334e-08
3.98852e-08
2.44159e-08
0
1.85023e-11
0
0
9.19412e-12
2.43907e-11
3.46381e-11
4.00212e-11
4.27035e-11
4.07944e-11
2.84598e-11
5.4171e-12
0
0
0
7.33391e-11
2.77766e-10
6.51333e-10
1.05367e-09
1.56123e-10
0
0
0
0
0
3.32363e-09
2.19941e-08
4.99007e-08
7.7846e-08
8.83313e-08
6.14123e-08
2.47881e-08
4.85013e-09
1.99593e-09
2.83729e-09
3.13941e-09
3.43056e-09
2.88563e-09
1.21901e-09
1.2135e-09
2.16702e-09
0
0
0
2.91952e-09
3.13815e-09
1.98784e-09
8.90499e-10
0
0
0
0
0
0
0
0
0
0
3.38996e-09
6.42824e-09
5.02103e-09
0
0
0
0
0
0
0
2.94727e-09
3.93468e-09
0
0
0
0
0
0
0
1.32773e-09
1.74378e-09
0
0
0
4.64795e-09
8.38617e-09
9.42748e-09
7.87031e-09
3.43652e-09
0
1.61211e-09
6.06067e-09
1.29679e-08
1.43352e-08
2.44072e-08
2.3708e-08
3.07885e-08
2.96645e-08
3.94303e-08
3.10561e-08
5.38263e-08
1.25165e-07
0
3.15009e-11
0
0
0
1.07194e-11
2.08099e-11
2.69429e-11
3.00521e-11
2.92142e-11
2.01083e-11
2.54844e-12
0
0
1.65526e-11
1.01009e-10
2.99877e-10
6.51453e-10
1.1624e-09
1.07767e-09
0
0
0
0
0
3.30753e-09
2.16988e-08
4.84667e-08
7.60084e-08
8.44399e-08
5.69343e-08
2.12287e-08
3.68064e-09
2.73801e-09
3.80127e-09
4.01781e-09
4.19428e-09
3.66987e-09
1.75023e-09
1.10878e-09
2.43319e-09
0
0
0
2.27468e-09
2.84716e-09
1.84241e-09
1.09061e-09
0
0
0
0
0
0
0
0
0
0
1.66728e-09
4.61343e-09
3.76554e-09
0
0
0
0
0
0
0
0
0
0
0
0
0
0
0
0
1.26939e-09
2.36906e-09
0
0
0
3.60528e-09
7.91908e-09
9.33687e-09
8.21814e-09
3.9968e-09
0
1.1868e-09
5.03808e-09
1.17786e-08
1.28399e-08
2.2783e-08
2.17743e-08
2.8836e-08
2.7414e-08
3.50808e-08
2.36556e-08
3.78585e-08
1.63621e-07
0
4.30355e-11
0
0
0
5.32675e-12
1.37422e-11
1.92751e-11
2.18242e-11
2.05689e-11
1.26613e-11
0
0
0
3.9079e-11
1.33967e-10
3.2924e-10
6.70825e-10
1.14315e-09
1.51612e-09
4.22527e-10
0
0
0
0
3.44362e-09
2.12418e-08
4.68674e-08
7.34361e-08
7.9105e-08
5.21694e-08
1.72644e-08
2.76546e-09
3.63187e-09
4.75622e-09
5.01551e-09
4.9512e-09
4.42821e-09
2.40296e-09
1.05725e-09
2.4428e-09
1.01802e-09
0
0
1.20034e-09
2.47388e-09
1.71635e-09
1.23604e-09
0
0
0
0
0
0
0
0
0
0
0
2.7011e-09
2.54249e-09
0
0
0
0
0
0
0
0
0
2.26159e-10
3.8501e-10
0
0
1.73011e-10
0
0
1.20472e-09
2.86608e-09
0
0
0
2.50292e-09
7.31623e-09
9.19237e-09
8.4856e-09
4.61908e-09
0
8.14773e-10
4.01991e-09
1.05189e-08
1.13278e-08
2.09374e-08
1.96643e-08
2.65963e-08
2.49734e-08
2.97574e-08
1.64325e-08
6.26254e-09
1.74014e-07
0
5.18035e-11
0
0
0
4.51392e-12
1.136e-11
1.58455e-11
1.72689e-11
1.47873e-11
6.61574e-12
0
0
3.33503e-12
6.04044e-11
1.70138e-10
3.61167e-10
7.05135e-10
1.12901e-09
1.61519e-09
1.25023e-09
0
0
0
0
3.69898e-09
2.07719e-08
4.51766e-08
6.9846e-08
7.2552e-08
4.66852e-08
1.28558e-08
2.29095e-09
4.6137e-09
5.71397e-09
6.09739e-09
5.70062e-09
5.12764e-09
3.15753e-09
1.11239e-09
2.20586e-09
2.08677e-09
0
0
0
1.99669e-09
1.59401e-09
1.36275e-09
1.0972e-09
0
0
0
0
0
0
0
0
0
0
7.0452e-10
1.33593e-09
0
0
0
0
0
0
0
0
0
7.17166e-10
2.63722e-09
1.23787e-09
6.26488e-10
1.10803e-09
6.03702e-10
0
1.16448e-09
3.21651e-09
7.4943e-10
0
0
1.39773e-09
6.55323e-09
8.97583e-09
8.66482e-09
5.2769e-09
0
4.97183e-10
3.01725e-09
9.19018e-09
9.81972e-09
1.88835e-08
1.73847e-08
2.40728e-08
2.25407e-08
2.43654e-08
1.03768e-08
0
1.7287e-07
0
5.46843e-11
0
0
0
5.57737e-12
1.13576e-11
1.47466e-11
1.47714e-11
1.06064e-11
1.42221e-12
0
0
1.42041e-11
8.31501e-11
2.07502e-10
3.98093e-10
7.34673e-10
1.13774e-09
1.55214e-09
1.62279e-09
1.30166e-10
0
0
0
4.05023e-09
2.00255e-08
4.32491e-08
6.49674e-08
6.49033e-08
4.05934e-08
8.28266e-09
2.46048e-09
5.6181e-09
6.75255e-09
7.20993e-09
6.43445e-09
5.74671e-09
3.97182e-09
1.31786e-09
1.78761e-09
2.88608e-09
0
0
0
1.36732e-09
1.4399e-09
1.48498e-09
2.02639e-09
0
0
0
0
0
0
0
0
0
0
0
1.16525e-10
0
0
0
0
0
0
0
0
0
1.29628e-09
4.92281e-09
3.37316e-09
2.04077e-09
2.07265e-09
1.52768e-09
3.95567e-10
1.17803e-09
3.41754e-09
1.67131e-09
0
0
3.66359e-10
5.61813e-09
8.66915e-09
8.75573e-09
5.93316e-09
3.24184e-11
2.34088e-10
2.04834e-09
7.8066e-09
8.36176e-09
1.66313e-08
1.49826e-08
2.12775e-08
2.01269e-08
1.94819e-08
5.95328e-09
0
8.18137e-08
0
5.32742e-11
9.18025e-13
0
0
6.57334e-12
1.18997e-11
1.42802e-11
1.28521e-11
6.77002e-12
0
0
0
2.83567e-11
1.10441e-10
2.46207e-10
4.39781e-10
7.46577e-10
1.15317e-09
1.48661e-09
1.61913e-09
6.51091e-10
0
0
0
4.45391e-09
1.91999e-08
4.09158e-08
5.85646e-08
5.6545e-08
3.39246e-08
3.92994e-09
3.27636e-09
6.57571e-09
7.95474e-09
8.26898e-09
7.15373e-09
6.27695e-09
4.78455e-09
1.706e-09
1.30539e-09
3.25486e-09
0
0
0
2.67468e-10
1.25352e-09
1.60572e-09
2.68167e-09
6.71606e-10
0
0
0
0
0
0
0
0
0
0
0
3.44298e-09
6.19787e-09
0
0
0
0
0
0
0
2.05606e-09
7.23303e-09
5.60024e-09
3.56589e-09
3.07051e-09
2.47737e-09
1.0607e-09
1.26892e-09
3.48444e-09
2.55422e-09
0
0
0
4.5218e-09
8.23772e-09
8.76048e-09
6.54469e-09
3.33122e-10
2.36592e-11
1.13196e-09
6.38887e-09
6.97558e-09
1.42178e-08
1.24949e-08
1.82824e-08
1.78e-08
1.52619e-08
2.88188e-09
0
0
0
5.00384e-11
7.28969e-12
0
0
6.48904e-12
1.18236e-11
1.32683e-11
1.02736e-11
2.22477e-12
0
0
0
4.71262e-11
1.44515e-10
2.8866e-10
4.81563e-10
7.47048e-10
1.1422e-09
1.42574e-09
1.50634e-09
8.94195e-10
0
0
0
4.88179e-09
1.83433e-08
3.76242e-08
5.07848e-08
4.81476e-08
2.6657e-08
6.47941e-10
4.53459e-09
7.48466e-09
9.21731e-09
9.28274e-09
7.85538e-09
6.72214e-09
5.52857e-09
2.2923e-09
8.96069e-10
3.14054e-09
5.61769e-10
0
0
0
1.03024e-09
1.70474e-09
3.15205e-09
2.62356e-09
0
0
0
0
0
0
0
0
0
0
0
6.86417e-09
2.22621e-08
1.1503e-08
0
0
0
0
0
0
3.08322e-09
9.56356e-09
7.88898e-09
5.19183e-09
4.10739e-09
3.43041e-09
1.81574e-09
1.45368e-09
3.44303e-09
3.3328e-09
0
0
0
3.30054e-09
7.63718e-09
8.67857e-09
7.07021e-09
7.88874e-10
0
2.85325e-10
4.96374e-09
5.66253e-09
1.17155e-08
9.93673e-09
1.51608e-08
1.55175e-08
1.16146e-08
6.30141e-10
0
0
0
4.60144e-11
1.30926e-11
0
0
5.13245e-12
1.06544e-11
1.10416e-11
6.28726e-12
0
0
0
4.71768e-12
7.2519e-11
1.86973e-10
3.37593e-10
5.22653e-10
7.53905e-10
1.07877e-09
1.34466e-09
1.36659e-09
9.19052e-10
0
0
0
5.20046e-09
1.73209e-08
3.28752e-08
4.23829e-08
4.05049e-08
1.8538e-08
0
5.86388e-09
8.53484e-09
1.04617e-08
1.02007e-08
8.53095e-09