/*--------------------------------*- C++ -*----------------------------------*\
  =========                 |
  \\      /  F ield         | OpenFOAM: The Open Source CFD Toolbox
   \\    /   O peration     | Website:  https://openfoam.org
    \\  /    A nd           | Version:  7
     \\/     M anipulation  |
\*---------------------------------------------------------------------------*/
FoamFile
{
    version     2.0;
    format      ascii;
    class       volScalarField;
    location    "0.47";
    object      p;
}
// * * * * * * * * * * * * * * * * * * * * * * * * * * * * * * * * * * * * * //

dimensions      [0 2 -2 0 0 0 0];

internalField   nonuniform List<scalar> 
70000
(
0.114545
0.0376555
0.0245101
0.0269631
0.0272248
0.0261786
0.0252191
0.024488
0.0238765
0.0233347
0.0228488
0.0224109
0.0220134
0.0216496
0.021314
0.021002
0.0207097
0.0204341
0.0201723
0.0199222
0.0196815
0.0194484
0.0192214
0.0189988
0.0187791
0.0185609
0.0183428
0.0181234
0.0179013
0.017675
0.0174429
0.0172033
0.0169542
0.0166936
0.0164191
0.0161277
0.0158164
0.0154815
0.0151177
0.0147217
0.0142832
0.0138016
0.0132546
0.0126537
0.0119458
0.0111789
0.0102265
0.00923217
0.00790609
0.00652945
0.110245
0.0380175
0.0247126
0.0270576
0.0272792
0.0262143
0.025247
0.024511
0.0238958
0.0233511
0.0228631
0.0224235
0.0220246
0.0216598
0.0213232
0.0210104
0.0207174
0.0204412
0.0201789
0.0199283
0.0196872
0.0194538
0.0192264
0.0190035
0.0187835
0.0185651
0.0183468
0.0181272
0.0179049
0.0176783
0.0174461
0.0172062
0.016957
0.0166962
0.0164215
0.01613
0.0158184
0.0154833
0.0151194
0.0147231
0.0142843
0.0138025
0.0132552
0.0126539
0.0119455
0.0111779
0.010225
0.00922736
0.00790507
0.00658034
0.106639
0.03894
0.0250572
0.0271863
0.0273539
0.0262593
0.0252793
0.0245372
0.0239176
0.0233696
0.022879
0.0224374
0.022037
0.0216709
0.0213333
0.0210195
0.0207259
0.020449
0.0201861
0.019935
0.0196935
0.0194597
0.0192319
0.0190087
0.0187884
0.0185697
0.0183511
0.0181313
0.0179088
0.0176821
0.0174496
0.0172096
0.0169602
0.0166993
0.0164244
0.0161327
0.015821
0.0154858
0.0151217
0.0147253
0.0142864
0.0138044
0.0132569
0.0126556
0.0119469
0.0111791
0.0102266
0.0092257
0.00793127
0.00664421
0.103535
0.0400392
0.0255338
0.0273589
0.0274551
0.0263173
0.0253176
0.0245672
0.0239422
0.0233901
0.0228965
0.0224526
0.0220504
0.0216828
0.021344
0.0210293
0.0207348
0.0204572
0.0201937
0.0199421
0.0197001
0.0194659
0.0192378
0.0190142
0.0187936
0.0185746
0.0183558
0.0181358
0.0179131
0.0176862
0.0174536
0.0172134
0.0169639
0.0167028
0.0164278
0.0161361
0.0158243
0.0154891
0.015125
0.0147286
0.0142897
0.0138079
0.0132606
0.0126596
0.0119515
0.0111838
0.0102338
0.0092294
0.00797683
0.00672509
0.100579
0.0411331
0.0261074
0.0275773
0.0275899
0.0263959
0.0253668
0.0246043
0.0239723
0.0234149
0.0229172
0.0224703
0.0220659
0.0216965
0.0213563
0.0210404
0.0207449
0.0204664
0.0202023
0.01995
0.0197075
0.0194728
0.0192443
0.0190203
0.0187995
0.0185802
0.0183612
0.0181409
0.017918
0.017691
0.0174582
0.0172179
0.0169683
0.0167072
0.0164322
0.0161405
0.0158288
0.0154936
0.0151297
0.0147336
0.0142951
0.0138137
0.0132672
0.0126669
0.0119606
0.0111935
0.0102493
0.00924188
0.00804197
0.00683116
0.0976714
0.0421653
0.0267315
0.0278219
0.0277522
0.0264966
0.0254295
0.0246508
0.0240099
0.0234456
0.0229427
0.022492
0.0220846
0.0217129
0.0213709
0.0210535
0.0207568
0.0204773
0.0202123
0.0199593
0.0197161
0.0194809
0.0192519
0.0190276
0.0188063
0.0185868
0.0183675
0.018147
0.0179239
0.0176967
0.0174639
0.0172235
0.0169739
0.0167128
0.0164379
0.0161463
0.0158348
0.0155
0.0151365
0.0147409
0.0143032
0.0138228
0.0132776
0.0126787
0.0119755
0.0112101
0.0102754
0.00926767
0.00812632
0.00696448
0.0948061
0.0431187
0.0273725
0.0280717
0.0279288
0.0266148
0.0255048
0.0247068
0.0240554
0.023483
0.0229738
0.0225183
0.0221074
0.0217329
0.0213886
0.0210694
0.0207712
0.0204904
0.0202243
0.0199704
0.0197265
0.0194906
0.0192611
0.0190363
0.0188146
0.0185947
0.0183751
0.0181544
0.0179312
0.0177039
0.0174709
0.0172306
0.0169811
0.0167201
0.0164454
0.0161541
0.015843
0.0155087
0.015146
0.0147513
0.0143149
0.013836
0.0132932
0.0126966
0.0119982
0.0112356
0.0103148
0.00931133
0.00823041
0.00712484
0.0919918
0.0439867
0.0280145
0.0283147
0.0281088
0.0267437
0.0255892
0.0247699
0.0241074
0.0235265
0.0230102
0.0225494
0.0221343
0.0217566
0.0214097
0.0210883
0.0207883
0.0205061
0.0202387
0.0199838
0.0197389
0.0195023
0.0192721
0.0190467
0.0188246
0.0186044
0.0183845
0.0181635
0.0179401
0.0177128
0.0174798
0.0172396
0.0169901
0.0167294
0.0164551
0.0161643
0.0158539
0.0155205
0.0151588
0.0147656
0.014331
0.0138544
0.0133149
0.0127218
0.0120303
0.0112722
0.0103696
0.00937678
0.00835537
0.0073117
0.089235
0.0447669
0.0286519
0.0285472
0.028286
0.0268786
0.0256793
0.0248378
0.0241641
0.0235744
0.023051
0.0225845
0.022165
0.0217838
0.021434
0.0211103
0.0208083
0.0205244
0.0202557
0.0199995
0.0197536
0.0195161
0.0192852
0.0190592
0.0188366
0.0186159
0.0183957
0.0181746
0.0179511
0.0177236
0.0174907
0.0172506
0.0170015
0.0167412
0.0164674
0.0161774
0.0158679
0.0155357
0.0151756
0.0147843
0.0143523
0.0138788
0.0133439
0.0127555
0.0120731
0.0113221
0.0104417
0.00946686
0.00850252
0.00752429
0.0865391
0.0454585
0.0292832
0.0287691
0.0284575
0.0270166
0.0257731
0.0249083
0.0242235
0.0236254
0.0230947
0.0226226
0.0221986
0.0218138
0.0214611
0.0211349
0.0208308
0.0205452
0.0202749
0.0200175
0.0197705
0.0195321
0.0193004
0.0190738
0.0188506
0.0186295
0.018409
0.0181877
0.0179641
0.0177367
0.0175039
0.0172641
0.0170153
0.0167556
0.0164826
0.0161935
0.0158853
0.0155547
0.0151967
0.014808
0.0143794
0.0139098
0.0133809
0.0127987
0.0121278
0.0113868
0.0105322
0.00958305
0.0086729
0.00776159
0.0839074
0.0460617
0.0299075
0.0289812
0.0286218
0.0271563
0.0258695
0.0249805
0.0242845
0.0236782
0.0231404
0.0226626
0.0222342
0.0218459
0.0214902
0.0211615
0.0208553
0.0205679
0.0202962
0.0200374
0.0197894
0.01955
0.0193175
0.0190902
0.0188666
0.0186451
0.0184243
0.0182028
0.0179791
0.0177518
0.0175193
0.0172799
0.0170317
0.0167727
0.0165007
0.0162129
0.0159063
0.0155778
0.0152223
0.0148368
0.0144124
0.0139478
0.0134262
0.0128518
0.0121948
0.0114673
0.0106418
0.00972539
0.00886677
0.00802216
0.0813428
0.0465771
0.0305232
0.0291849
0.0287781
0.0272966
0.0259682
0.0250538
0.0243464
0.0237321
0.0231874
0.0227039
0.0222712
0.0218793
0.0215207
0.0211896
0.0208814
0.0205922
0.0203189
0.0200589
0.0198098
0.0195695
0.0193363
0.0191083
0.0188842
0.0186623
0.0184413
0.0182197
0.0179961
0.017769
0.0175368
0.0172979
0.0170505
0.0167924
0.0165216
0.0162354
0.0159308
0.0156047
0.0152523
0.0148707
0.0144513
0.0139927
0.0134798
0.0129149
0.012274
0.0115633
0.0107697
0.0098927
0.00908347
0.00830406
0.0788481
0.0470052
0.0311281
0.0293815
0.0289257
0.0274368
0.026069
0.025128
0.0244089
0.0237868
0.0232353
0.0227462
0.0223091
0.0219137
0.0215522
0.0212187
0.0209084
0.0206175
0.0203428
0.0200815
0.0198314
0.0195902
0.0193562
0.0191277
0.0189032
0.018681
0.0184598
0.0182382
0.0180147
0.0177879
0.0175561
0.0173179
0.0170713
0.0168145
0.0165451
0.0162608
0.0159585
0.0156353
0.0152865
0.0149093
0.0144958
0.0140442
0.0135412
0.0129875
0.0123645
0.011674
0.0109147
0.0100823
0.00932119
0.00860487
0.076426
0.047347
0.0317194
0.0295725
0.0290641
0.0275761
0.0261717
0.0252032
0.024472
0.0238423
0.023284
0.0227892
0.0223477
0.0219488
0.0215845
0.0212486
0.0209363
0.0206437
0.0203675
0.0201051
0.0198539
0.0196119
0.0193772
0.0191482
0.0189232
0.0187008
0.0184795
0.0182579
0.0180346
0.0178082
0.017577
0.0173396
0.0170941
0.0168386
0.0165709
0.0162887
0.015989
0.0156691
0.0153244
0.0149523
0.0145454
0.0141016
0.0136097
0.0130688
0.0124654
0.0117981
0.0110749
0.0102907
0.00957734
0.00892191
0.0740787
0.0476039
0.0322941
0.0297593
0.0291931
0.0277134
0.0262763
0.0252794
0.0245354
0.0238983
0.0233333
0.0228329
0.022387
0.0219846
0.0216174
0.0212791
0.0209648
0.0206705
0.0203929
0.0201293
0.0198771
0.0196342
0.0193989
0.0191694
0.0189441
0.0187214
0.0185001
0.0182786
0.0180556
0.0178296
0.0175992
0.0173626
0.0171183
0.0168643
0.0165986
0.0163187
0.016022
0.0157057
0.0153656
0.014999
0.0145994
0.0141643
0.0136844
0.0131578
0.0125754
0.0119339
0.0112478
0.0105141
0.00984889
0.0092525
0.0718083
0.0477777
0.0328488
0.0299436
0.0293124
0.0278478
0.0263825
0.0253565
0.0245993
0.0239548
0.0233833
0.0228773
0.0224268
0.022021
0.0216509
0.0213102
0.0209939
0.0206979
0.0204189
0.020154
0.0199009
0.0196572
0.0194213
0.0191913
0.0189656
0.0187429
0.0185215
0.0183002
0.0180775
0.0178521
0.0176224
0.0173869
0.0171439
0.0168916
0.0166279
0.0163506
0.0160571
0.0157447
0.0154096
0.015049
0.0146572
0.0142316
0.0137646
0.0132535
0.0126931
0.0120795
0.0114313
0.0107492
0.0101329
0.00959418
0.0696163
0.0478705
0.0333806
0.0301266
0.0294221
0.0279784
0.02649
0.0254347
0.0246634
0.0240117
0.0234339
0.0229222
0.0224673
0.0220579
0.0216849
0.0213419
0.0210235
0.0207259
0.0204454
0.0201794
0.0199252
0.0196808
0.0194442
0.0192138
0.0189878
0.0187649
0.0185436
0.0183225
0.0181002
0.0178754
0.0176466
0.0174122
0.0171706
0.0169201
0.0166586
0.0163841
0.016094
0.0157858
0.015456
0.0151019
0.0147184
0.014303
0.0138495
0.0133551
0.0128175
0.0122334
0.0116237
0.0109931
0.0104266
0.00994491
0.067504
0.0478849
0.0338863
0.0303094
0.0295224
0.028104
0.0265984
0.0255139
0.0247278
0.024069
0.023485
0.0229678
0.0225084
0.0220954
0.0217196
0.0213741
0.0210537
0.0207543
0.0204725
0.0202053
0.0199501
0.0197049
0.0194678
0.0192368
0.0190106
0.0187876
0.0185664
0.0183455
0.0181237
0.0178995
0.0176716
0.0174384
0.0171984
0.0169498
0.0166907
0.0164192
0.0161327
0.015829
0.0155047
0.0151575
0.0147828
0.0143781
0.0139388
0.0134619
0.0129478
0.0123943
0.0118233
0.011244
0.0107281
0.0103031
0.0654721
0.0478243
0.0343628
0.0304928
0.0296136
0.0282237
0.0267073
0.0255942
0.0247924
0.0241265
0.0235367
0.023014
0.02255
0.0221334
0.0217547
0.0214068
0.0210844
0.0207834
0.0205001
0.0202317
0.0199756
0.0197296
0.0194918
0.0192605
0.019034
0.0188109
0.0185898
0.0183692
0.0181479
0.0179244
0.0176975
0.0174656
0.0172272
0.0169806
0.0167241
0.0164556
0.016173
0.015874
0.0155557
0.0152156
0.0148501
0.0144566
0.014032
0.0135736
0.0130835
0.0125615
0.0120293
0.0115004
0.0110358
0.0106676
0.0635209
0.0476923
0.0348073
0.0306771
0.0296964
0.0283367
0.0268161
0.0256754
0.0248571
0.0241841
0.0235888
0.0230606
0.0225921
0.022172
0.0217904
0.0214401
0.0211157
0.0208129
0.0205282
0.0202586
0.0200015
0.0197548
0.0195164
0.0192847
0.019058
0.0188348
0.0186138
0.0183936
0.0181728
0.0179502
0.0177243
0.0174937
0.017257
0.0170126
0.0167587
0.0164935
0.016215
0.0159209
0.0156087
0.0152762
0.0149202
0.0145385
0.0141291
0.0136898
0.0132243
0.0127341
0.012241
0.0117616
0.0113486
0.0110374
0.0616504
0.0474931
0.0352168
0.0308625
0.0297714
0.028442
0.026924
0.0257576
0.0249221
0.0242418
0.0236412
0.0231078
0.0226348
0.0222111
0.0218266
0.0214739
0.0211475
0.020843
0.0205569
0.0202861
0.0200281
0.0197806
0.0195416
0.0193095
0.0190826
0.0188594
0.0186386
0.0184187
0.0181985
0.0179767
0.0177519
0.0175228
0.0172879
0.0170458
0.0167947
0.0165329
0.0162586
0.0159697
0.0156639
0.0153392
0.0149932
0.0146238
0.0142299
0.0138103
0.0133698
0.012912
0.0124578
0.012027
0.0116659
0.011412
0.0598601
0.0472312
0.0355889
0.0310486
0.0298394
0.0285392
0.0270305
0.0258407
0.0249871
0.0242994
0.0236939
0.0231555
0.022678
0.0222507
0.0218633
0.0215082
0.0211798
0.0208736
0.0205861
0.0203141
0.0200552
0.0198069
0.0195674
0.0193349
0.0191078
0.0188846
0.018664
0.0184445
0.018225
0.018004
0.0177805
0.0175529
0.0173199
0.0170801
0.016832
0.0165738
0.0163039
0.0160204
0.0157213
0.0154048
0.0150691
0.0147124
0.0143345
0.0139352
0.0135201
0.0130947
0.0126795
0.0122964
0.0119871
0.0117905
0.0581491
0.0469115
0.0359211
0.0312348
0.0299015
0.0286276
0.0271346
0.0259244
0.0250523
0.0243569
0.0237468
0.0232036
0.0227216
0.0222907
0.0219005
0.0215431
0.0212126
0.0209048
0.0206158
0.0203427
0.0200828
0.0198338
0.0195938
0.019361
0.0191337
0.0189105
0.0186901
0.0184711
0.0182522
0.0180323
0.0178099
0.017584
0.017353
0.0171158
0.0168707
0.0166163
0.016351
0.0160731
0.015781
0.015473
0.0151479
0.0148043
0.0144429
0.0140643
0.0136749
0.013282
0.0129058
0.0125694
0.0123117
0.0121724
0.0565162
0.0465393
0.0362114
0.0314199
0.0299586
0.028707
0.0272356
0.0260084
0.0251177
0.0244142
0.0237998
0.023252
0.0227657
0.0223313
0.0219382
0.0215784
0.021246
0.0209365
0.0206461
0.0203719
0.0201111
0.0198614
0.0196208
0.0193876
0.0191602
0.0189371
0.018717
0.0184985
0.0182803
0.0180614
0.0178404
0.0176161
0.0173873
0.0171527
0.0169108
0.0166604
0.0163999
0.0161279
0.015843
0.0155438
0.0152296
0.0148996
0.014555
0.0141975
0.0138342
0.0134738
0.0131363
0.0128457
0.0126391
0.0125566
0.0549597
0.04612
0.0364582
0.0316024
0.0300117
0.0287772
0.0273325
0.0260926
0.0251832
0.0244711
0.0238527
0.0233008
0.0228102
0.0223722
0.0219764
0.0216142
0.0212799
0.0209687
0.020677
0.0204016
0.0201399
0.0198895
0.0196484
0.0194149
0.0191874
0.0189644
0.0187446
0.0185266
0.0183093
0.0180915
0.0178719
0.0176494
0.0174228
0.0171909
0.0169524
0.0167061
0.0164506
0.0161847
0.0159073
0.0156173
0.0153143
0.0149983
0.0146709
0.0143348
0.0139977
0.0136698
0.0133706
0.0131251
0.0129689
0.0129423
0.0534776
0.0456593
0.0366603
0.0317806
0.0300619
0.0288384
0.0274245
0.0261764
0.0252489
0.0245277
0.0239054
0.0233497
0.022855
0.0224136
0.0220149
0.0216505
0.0213142
0.0210014
0.0207084
0.0204319
0.0201693
0.0199182
0.0196767
0.0194429
0.0192153
0.0189924
0.018773
0.0185556
0.0183391
0.0181225
0.0179044
0.0176838
0.0174595
0.0172305
0.0169955
0.0167535
0.0165032
0.0162437
0.015974
0.0156935
0.0154021
0.0151003
0.0147905
0.0144761
0.0141655
0.0138698
0.0136086
0.0134072
0.0133004
0.0133286
0.0520677
0.0451628
0.0368167
0.0319522
0.03011
0.0288908
0.0275108
0.0262594
0.0253146
0.0245839
0.0239579
0.0233987
0.0229002
0.0224553
0.0220539
0.0216873
0.0213491
0.0210347
0.0207403
0.0204627
0.0201992
0.0199475
0.0197055
0.0194715
0.0192439
0.0190212
0.0188021
0.0185854
0.0183699
0.0181544
0.0179379
0.0177193
0.0174975
0.0172715
0.0170402
0.0168026
0.0165578
0.0163048
0.0160431
0.0157724
0.0154929
0.0152057
0.0149137
0.0146213
0.0143372
0.0140735
0.0138498
0.0136916
0.013633
0.0137144
0.0507276
0.0446363
0.0369274
0.0321148
0.0301568
0.028935
0.0275906
0.026341
0.0253803
0.0246397
0.0240099
0.0234477
0.0229456
0.0224973
0.0220933
0.0217245
0.0213844
0.0210685
0.0207728
0.0204941
0.0202298
0.0199775
0.0197351
0.0195008
0.0192732
0.0190507
0.0188321
0.0186161
0.0184016
0.0181874
0.0179726
0.0177561
0.0175369
0.017314
0.0170865
0.0168535
0.0166143
0.0163682
0.0161148
0.015854
0.0155868
0.0153145
0.0150406
0.0147702
0.0145126
0.0142806
0.0140939
0.0139777
0.0139659
0.0140984
0.0494546
0.0440853
0.0369924
0.0322658
0.0302029
0.0289715
0.0276632
0.0264205
0.0254459
0.0246949
0.0240614
0.0234966
0.0229911
0.0225397
0.022133
0.021762
0.0214202
0.0211027
0.0208058
0.0205261
0.020261
0.020008
0.0197652
0.0195308
0.0193033
0.0190811
0.0188629
0.0186477
0.0184342
0.0182214
0.0180084
0.0177941
0.0175775
0.0173579
0.0171344
0.0169063
0.0166729
0.0164338
0.0161889
0.0159384
0.0156837
0.0154265
0.0151709
0.0149227
0.0146916
0.0144908
0.0143402
0.0142649
0.0142983
0.0144797
0.0482457
0.0435151
0.0370128
0.0324027
0.0302484
0.029001
0.0277282
0.0264973
0.0255112
0.0247497
0.0241122
0.0235452
0.0230368
0.0225822
0.022173
0.0217999
0.0214564
0.0211375
0.0208393
0.0205586
0.0202927
0.0200392
0.0197961
0.0195616
0.019334
0.0191121
0.0188946
0.0186802
0.0184678
0.0182565
0.0180453
0.0178333
0.0176196
0.0174034
0.0171841
0.0169609
0.0167335
0.0165016
0.0162655
0.0160256
0.0157835
0.0155418
0.0153046
0.0150786
0.0148737
0.0147038
0.0145884
0.0145527
0.0146294
0.0148571
0.0470981
0.0429308
0.0369896
0.032523
0.0302932
0.0290243
0.0277853
0.0265706
0.0255758
0.0248039
0.0241624
0.0235934
0.0230825
0.022625
0.0222132
0.0218382
0.021493
0.0211727
0.0208733
0.0205917
0.020325
0.020071
0.0198276
0.019593
0.0193656
0.0191441
0.0189271
0.0187136
0.0185025
0.0182927
0.0180834
0.0178738
0.0176631
0.0174504
0.0172354
0.0170174
0.0167962
0.0165718
0.0163446
0.0161155
0.0158864
0.0156601
0.0154416
0.0152376
0.0150588
0.014919
0.014838
0.0148403
0.0149582
0.0152293
0.0460087
0.042337
0.0369249
0.0326246
0.0303368
0.0290423
0.0278344
0.0266398
0.0256394
0.0248576
0.0242117
0.0236412
0.0231281
0.0226679
0.0222537
0.0218768
0.02153
0.0212083
0.0209078
0.0206253
0.0203579
0.0201035
0.0198598
0.0196251
0.0193979
0.0191768
0.0189605
0.018748
0.0185381
0.01833
0.0181228
0.0179157
0.017708
0.0174991
0.0172884
0.0170758
0.016861
0.0166443
0.0164262
0.0162081
0.0159921
0.0157815
0.0155816
0.0153996
0.0152464
0.0151361
0.0150883
0.0151271
0.0152839
0.0155952
0.0449744
0.0417379
0.036821
0.0327056
0.0303785
0.0290557
0.0278753
0.026704
0.0257017
0.0249106
0.0242602
0.0236882
0.0231734
0.0227108
0.0222943
0.0219156
0.0215673
0.0212443
0.0209428
0.0206594
0.0203914
0.0201365
0.0198926
0.0196579
0.019431
0.0192103
0.0189948
0.0187833
0.0185748
0.0183684
0.0181633
0.0179589
0.0177543
0.0175493
0.0173433
0.0171361
0.0169279
0.016719
0.0165103
0.0163034
0.0161006
0.0159058
0.0157244
0.0155642
0.0154362
0.0153545
0.0153387
0.0154122
0.0156055
0.0159536
0.0439923
0.0411372
0.0366805
0.0327645
0.030417
0.029065
0.0279084
0.0267628
0.025762
0.0249628
0.0243078
0.0237345
0.0232184
0.0227537
0.0223351
0.0219546
0.0216049
0.0212808
0.0209782
0.020694
0.0204255
0.0201702
0.0199261
0.0196915
0.0194648
0.0192447
0.01903
0.0188196
0.0186126
0.018408
0.0182052
0.0180034
0.0178022
0.0176011
0.0173998
0.0171984
0.0169969
0.016796
0.0165969
0.0164012
0.0162118
0.0160328
0.0158699
0.0157312
0.0156277
0.0155739
0.0155886
0.0156948
0.015922
0.0163034
0.0430591
0.0405382
0.0365065
0.0328001
0.030451
0.0290709
0.0279339
0.0268155
0.02582
0.0250141
0.0243543
0.0237799
0.0232629
0.0227965
0.0223759
0.0219937
0.0216427
0.0213175
0.021014
0.0207292
0.0204601
0.0202045
0.0199603
0.0197258
0.0194995
0.01928
0.0190662
0.0188569
0.0186514
0.0184487
0.0182483
0.0180494
0.0178516
0.0176546
0.0174582
0.0172626
0.017068
0.0168753
0.0166858
0.0165016
0.0163256
0.0161623
0.0160177
0.0159001
0.0158206
0.0157935
0.0158373
0.0159743
0.0162325
0.0166435
0.0421721
0.0399436
0.0363023
0.0328116
0.0304791
0.0290735
0.0279524
0.0268617
0.025875
0.0250642
0.0243999
0.0238243
0.0233068
0.0228391
0.0224167
0.022033
0.0216808
0.0213546
0.0210503
0.0207647
0.0204952
0.0202394
0.0199952
0.0197608
0.0195349
0.0193161
0.0191032
0.0188952
0.0186913
0.0184907
0.0182926
0.0180967
0.0179025
0.0177097
0.0175184
0.0173287
0.0171412
0.0169568
0.0167771
0.0166043
0.0164418
0.0162942
0.0161676
0.0160706
0.0160144
0.0160128
0.0160841
0.0162496
0.016536
0.0169729
0.0413283
0.0393559
0.0360712
0.0327987
0.0304997
0.0290732
0.0279642
0.0269013
0.0259264
0.0251129
0.0244443
0.0238676
0.0233499
0.0228813
0.0224574
0.0220723
0.021719
0.0213919
0.0210869
0.0208008
0.0205309
0.0202748
0.0200306
0.0197966
0.0195712
0.0193531
0.0191412
0.0189346
0.0187323
0.0185338
0.0183383
0.0181454
0.0179549
0.0177665
0.0175803
0.0173967
0.0172164
0.0170404
0.0168706
0.0167094
0.0165603
0.0164281
0.0163193
0.0162424
0.0162085
0.0162313
0.0163283
0.01652
0.0168315
0.0172906
0.040525
0.0387769
0.0358167
0.0327614
0.0305113
0.0290696
0.0279699
0.0269339
0.0259738
0.0251598
0.0244875
0.0239096
0.0233921
0.022923
0.022498
0.0221116
0.0217573
0.0214295
0.0211238
0.0208372
0.020567
0.0203109
0.0200668
0.019833
0.0196082
0.0193909
0.0191801
0.0189749
0.0187745
0.0185781
0.0183853
0.0181956
0.0180088
0.0178249
0.017644
0.0174666
0.0172936
0.0171262
0.0169663
0.0168166
0.0166808
0.0165639
0.0164725
0.016415
0.0164024
0.0164482
0.0165691
0.0167846
0.0171183
0.0175956
0.0397597
0.0382083
0.0355422
0.0327002
0.0305123
0.0290626
0.02797
0.0269596
0.0260166
0.0252046
0.0245293
0.0239504
0.0234333
0.0229641
0.0225382
0.0221508
0.0217957
0.0214672
0.0211611
0.0208741
0.0206037
0.0203475
0.0201036
0.0198702
0.019646
0.0194296
0.01922
0.0190163
0.0188177
0.0186236
0.0184336
0.0182472
0.0180643
0.017885
0.0177095
0.0175384
0.0173727
0.0172139
0.017064
0.0169258
0.0168032
0.0167013
0.0166267
0.0165879
0.0165957
0.016663
0.0168059
0.0170427
0.0173953
0.0178871
0.03903
0.0376511
0.0352507
0.032616
0.0305016
0.0290516
0.027965
0.0269785
0.0260543
0.0252468
0.0245697
0.0239898
0.0234733
0.0230044
0.0225781
0.0221899
0.0218341
0.021505
0.0211985
0.0209113
0.0206407
0.0203846
0.0201409
0.0199081
0.0196845
0.0194691
0.0192608
0.0190587
0.0188621
0.0186704
0.0184831
0.0183001
0.0181212
0.0179466
0.0177766
0.017612
0.0174537
0.0173035
0.0171635
0.0170367
0.0169271
0.0168398
0.0167816
0.0167607
0.0167877
0.016875
0.0170379
0.0172934
0.0176619
0.0181644
0.0383334
0.0371063
0.0349453
0.0325099
0.0304781
0.029036
0.027955
0.0269907
0.0260866
0.0252861
0.0246083
0.0240278
0.023512
0.0230439
0.0226174
0.0222287
0.0218723
0.0215429
0.0212362
0.0209488
0.0206782
0.0204222
0.0201789
0.0199466
0.0197238
0.0195095
0.0193025
0.0191021
0.0189075
0.0187183
0.018534
0.0183545
0.0181797
0.0180098
0.0178454
0.0176873
0.0175365
0.0173949
0.0172648
0.0171493
0.0170524
0.0169794
0.0169368
0.0169329
0.0169779
0.0170836
0.0172643
0.017536
0.0179172
0.0184267
0.037668
0.0365744
0.0346289
0.0323832
0.0304411
0.0290151
0.0279404
0.0269966
0.0261133
0.0253219
0.024645
0.0240642
0.0235494
0.0230823
0.0226562
0.0222672
0.0219105
0.0215808
0.0212739
0.0209865
0.0207161
0.0204603
0.0202174
0.0199858
0.0197639
0.0195507
0.0193452
0.0191465
0.0189541
0.0187674
0.0185862
0.0184102
0.0182396
0.0180746
0.0179159
0.0177642
0.017621
0.017488
0.0173677
0.0172632
0.0171787
0.0171194
0.0170919
0.017104
0.0171656
0.017288
0.0174845
0.0177698
0.0181606
0.0186737
0.0370318
0.0360559
0.0343039
0.0322375
0.0303901
0.0289879
0.0279212
0.0269963
0.026134
0.0253539
0.0246795
0.024099
0.0235853
0.0231196
0.0226942
0.0223052
0.0219483
0.0216186
0.0213118
0.0210245
0.0207542
0.0204989
0.0202565
0.0200256
0.0198047
0.0195927
0.0193887
0.0191919
0.0190017
0.0188177
0.0186395
0.0184672
0.0183009
0.0181409
0.0179878
0.0178427
0.017707
0.0175825
0.0174719
0.0173782
0.0173058
0.0172597
0.0172463
0.0172735
0.0173504
0.0174877
0.0176978
0.0179941
0.0183916
0.0189047
0.0364228
0.0355509
0.0339726
0.0320746
0.0303249
0.0289538
0.0278973
0.0269902
0.0261489
0.0253818
0.0247114
0.0241319
0.0236195
0.0231556
0.0227312
0.0223427
0.0219859
0.0216563
0.0213496
0.0210626
0.0207927
0.0205378
0.0202961
0.020066
0.0198461
0.0196355
0.0194331
0.0192382
0.0190504
0.0188691
0.0186942
0.0185256
0.0183636
0.0182085
0.0180612
0.0179227
0.0177944
0.0176784
0.0175772
0.0174941
0.0174332
0.0173997
0.0173998
0.0174408
0.0175316
0.0176821
0.0179036
0.0182083
0.0186095
0.0191196
0.0358394
0.0350595
0.033637
0.0318962
0.0302456
0.0289121
0.0278686
0.0269784
0.0261578
0.0254051
0.0247405
0.0241628
0.0236521
0.0231901
0.0227673
0.0223795
0.0220231
0.0216938
0.0213874
0.0211008
0.0208314
0.0205771
0.0203361
0.0201069
0.0198883
0.019679
0.0194783
0.0192855
0.0191
0.0189216
0.0187499
0.0185852
0.0184275
0.0182775
0.018136
0.018004
0.0178831
0.0177754
0.0176834
0.0176105
0.0175608
0.0175392
0.0175517
0.0176054
0.0177086
0.0178705
0.0181013
0.0184119
0.018814
0.019318
0.0352801
0.0345816
0.0332989
0.0317042
0.0301525
0.0288621
0.0278349
0.0269613
0.0261608
0.0254236
0.0247665
0.0241915
0.0236829
0.0232231
0.0228022
0.0224155
0.0220597
0.0217309
0.0214251
0.0211391
0.0208703
0.0206167
0.0203765
0.0201484
0.019931
0.0197233
0.0195244
0.0193337
0.0191507
0.0189751
0.0188068
0.0186459
0.0184927
0.0183478
0.018212
0.0180864
0.0179728
0.0178732
0.0177903
0.0177272
0.017688
0.0176776
0.0177016
0.0177669
0.017881
0.0180524
0.0182904
0.0186045
0.0190047
0.0194999
0.0347433
0.0341172
0.0329598
0.0315002
0.0300461
0.0288033
0.0277957
0.0269389
0.0261581
0.0254371
0.0247889
0.0242178
0.0237117
0.0232545
0.0228357
0.0224506
0.0220958
0.0217677
0.0214626
0.0211772
0.0209092
0.0206565
0.0204174
0.0201904
0.0199743
0.0197682
0.0195712
0.0193827
0.0192023
0.0190297
0.0188648
0.0187078
0.0185591
0.0184192
0.0182891
0.01817
0.0180635
0.0179718
0.0178975
0.0178438
0.0178146
0.0178145
0.0178491
0.0179246
0.0180481
0.0182272
0.0184703
0.0187855
0.0191815
0.0196653
0.0342278
0.0336658
0.0326209
0.031286
0.0299271
0.0287354
0.0277509
0.0269113
0.0261497
0.0254454
0.0248076
0.0242415
0.0237384
0.023284
0.0228679
0.0224846
0.0221311
0.0218039
0.0214997
0.0212153
0.0209482
0.0206965
0.0204585
0.0202328
0.0200182
0.0198138
0.0196188
0.0194326
0.0192548
0.0190852
0.0189238
0.0187707
0.0186264
0.0184916
0.0183671
0.0182543
0.0181549
0.0180708
0.0180048
0.01796
0.0179401
0.0179496
0.0179937
0.0180782
0.0182095
0.0183945
0.0186407
0.0189549
0.0193443
0.0198144
0.0337323
0.0332274
0.0322834
0.0310633
0.0297964
0.0286582
0.0277
0.0268785
0.0261357
0.0254486
0.0248222
0.0242623
0.0237629
0.0233117
0.0228984
0.0225174
0.0221655
0.0218396
0.0215365
0.0212532
0.0209872
0.0207366
0.0204998
0.0202755
0.0200625
0.0198599
0.019667
0.0194831
0.019308
0.0191415
0.0189836
0.0188345
0.0186947
0.0185649
0.018446
0.0183394
0.0182467
0.01817
0.0181119
0.0180755
0.0180642
0.0180825
0.0181349
0.0182271
0.0183646
0.0185539
0.0188012
0.0191123
0.0194929
0.0199473
0.0332556
0.0328016
0.0319482
0.0308334
0.0296547
0.0285719
0.0276427
0.0268404
0.0261164
0.0254466
0.0248326
0.0242799
0.023785
0.0233374
0.0229273
0.0225489
0.022199
0.0218746
0.0215728
0.0212907
0.021026
0.0207767
0.0205414
0.0203186
0.0201073
0.0199066
0.0197158
0.0195344
0.0193621
0.0191987
0.0190443
0.0188992
0.0187638
0.0186389
0.0185255
0.0184249
0.0183388
0.0182692
0.0182185
0.0181898
0.0181865
0.0182126
0.0182724
0.0183708
0.0185132
0.0187049
0.0189514
0.0192576
0.0196276
0.0200645
0.0327968
0.032388
0.0316161
0.0305977
0.0295032
0.0284764
0.0275789
0.0267971
0.0260917
0.0254393
0.0248385
0.0242943
0.0238045
0.0233609
0.0229544
0.022579
0.0222313
0.0219087
0.0216085
0.0213279
0.0210647
0.0208169
0.020583
0.0203618
0.0201523
0.0199536
0.0197651
0.0195862
0.0194167
0.0192565
0.0191057
0.0189646
0.0188336
0.0187136
0.0186055
0.0185107
0.0184309
0.0183679
0.0183243
0.0183028
0.0183066
0.0183395
0.0184055
0.0185091
0.0186548
0.0188473
0.0190914
0.0193909
0.0197484
0.0201664
0.0323547
0.0319864
0.0312877
0.0303576
0.0293427
0.0283721
0.0275083
0.0267484
0.0260619
0.0254269
0.02484
0.024305
0.0238213
0.0233822
0.0229795
0.0226074
0.0222624
0.021942
0.0216436
0.0213647
0.021103
0.0208568
0.0206246
0.0204053
0.0201977
0.0200011
0.0198148
0.0196385
0.0194719
0.0193149
0.0191677
0.0190305
0.0189039
0.0187886
0.0186858
0.0185966
0.0185227
0.018466
0.0184289
0.0184139
0.0184241
0.018463
0.0185341
0.0186414
0.018789
0.0189809
0.0192209
0.0195121
0.0198556
0.0202535
0.0319286
0.0315964
0.0309635
0.0301142
0.0291744
0.0282594
0.0274309
0.0266942
0.0260268
0.0254093
0.0248368
0.024312
0.0238351
0.023401
0.0230026
0.0226341
0.0222922
0.0219742
0.0216778
0.0214008
0.021141
0.0208966
0.0206662
0.0204487
0.0202432
0.0200488
0.0198649
0.0196913
0.0195276
0.0193738
0.0192301
0.0190968
0.0189745
0.0188639
0.0187661
0.0186822
0.018614
0.0185632
0.018532
0.0185229
0.0185387
0.0185825
0.0186576
0.0187675
0.0189156
0.0191053
0.0193397
0.0196215
0.0199496
0.0203264
0.0315176
0.0312176
0.030644
0.0298684
0.0289992
0.0281387
0.0273467
0.0266345
0.0259866
0.0253866
0.0248289
0.0243151
0.0238458
0.0234173
0.0230235
0.022659
0.0223204
0.0220051
0.0217112
0.0214362
0.0211784
0.020936
0.0207076
0.0204922
0.0202887
0.0200966
0.0199153
0.0197444
0.0195836
0.0194331
0.0192929
0.0191635
0.0190453
0.0189392
0.0188462
0.0187674
0.0187045
0.0186591
0.0186333
0.0186294
0.01865
0.0186978
0.0187758
0.018887
0.0190343
0.0192204
0.0194479
0.0197196
0.0200306
0.0203858
0.0311208
0.0308497
0.0303296
0.0296211
0.028818
0.0280107
0.0272557
0.0265691
0.0259414
0.025359
0.0248163
0.0243141
0.0238532
0.0234308
0.0230421
0.0226819
0.022347
0.0220348
0.0217435
0.0214709
0.0212153
0.020975
0.0207487
0.0205355
0.0203343
0.0201446
0.0199658
0.0197976
0.0196398
0.0194925
0.0193559
0.0192302
0.0191161
0.0190144
0.0189259
0.0188519
0.0187939
0.0187534
0.0187324
0.018733
0.0187575
0.0188085
0.0188883
0.0189997
0.019145
0.0193263
0.0195451
0.0198006
0.0200989
0.0204324
0.0307377
0.0304925
0.0300204
0.0293733
0.0286319
0.0278758
0.0271583
0.0264981
0.025891
0.0253264
0.0247991
0.024309
0.0238571
0.0234415
0.0230582
0.0227028
0.0223718
0.0220631
0.0217746
0.0215046
0.0212514
0.0210135
0.0207895
0.0205785
0.0203797
0.0201924
0.0200163
0.0198509
0.0196961
0.019552
0.0194188
0.0192969
0.0191867
0.0190891
0.019005
0.0189354
0.0188819
0.0188459
0.0188291
0.0188335
0.0188612
0.0189143
0.018995
0.0191054
0.0192475
0.0194229
0.0196325
0.0198764
0.0201562
0.0204672
0.0303675
0.0301455
0.0297167
0.0291256
0.0284415
0.0277348
0.0270546
0.0264216
0.0258356
0.025289
0.0247771
0.0242997
0.0238574
0.0234492
0.0230718
0.0227214
0.0223948
0.0220897
0.0218045
0.0215373
0.0212867
0.0210513
0.0208297
0.0206212
0.0204248
0.0202401
0.0200666
0.0199041
0.0197523
0.0196115
0.0194816
0.0193633
0.0192569
0.0191632
0.0190831
0.0190177
0.0189683
0.0189361
0.018923
0.0189305
0.0189605
0.0190149
0.0190955
0.019204
0.019342
0.0195104
0.01971
0.0199408
0.0202026
0.0204909
0.0300095
0.0298084
0.0294188
0.0288787
0.0282479
0.0275883
0.026945
0.0263397
0.0257751
0.0252467
0.0247506
0.0242861
0.0238541
0.0234538
0.0230828
0.0227377
0.0224157
0.0221147
0.0218329
0.0215688
0.0213211
0.0210883
0.0208693
0.0206633
0.0204696
0.0202875
0.0201168
0.0199571
0.0198083
0.0196706
0.0195441
0.0194292
0.0193264
0.0192365
0.0191602
0.0190985
0.0190527
0.019024
0.0190138
0.0190237
0.0190553
0.0191101
0.0191897
0.0192953
0.0194282
0.019589
0.0197778
0.0199945
0.0202388
0.0205041
0.0296634
0.0294809
0.0291266
0.028633
0.0280516
0.0274368
0.0268299
0.0262524
0.0257098
0.0251997
0.0247195
0.0242683
0.023847
0.0234551
0.0230909
0.0227516
0.0224346
0.0221378
0.0218598
0.021599
0.0213543
0.0211244
0.0209082
0.0207049
0.0205138
0.0203344
0.0201665
0.0200096
0.0198639
0.0197293
0.019606
0.0194944
0.0193951
0.0193086
0.0192358
0.0191775
0.0191349
0.019109
0.0191013
0.0191129
0.0191453
0.0191997
0.0192774
0.0193794
0.0195063
0.0196586
0.0198361
0.0200378
0.020261
0.0205075
0.0293284
0.0291628
0.0288404
0.0283891
0.0278535
0.0272812