/*--------------------------------*- C++ -*----------------------------------*\
  =========                 |
  \\      /  F ield         | OpenFOAM: The Open Source CFD Toolbox
   \\    /   O peration     | Website:  https://openfoam.org
    \\  /    A nd           | Version:  7
     \\/     M anipulation  |
\*---------------------------------------------------------------------------*/
FoamFile
{
    version     2.0;
    format      ascii;
    class       surfaceScalarField;
    location    "0.47";
    object      phi;
}
// * * * * * * * * * * * * * * * * * * * * * * * * * * * * * * * * * * * * * //

dimensions      [0 3 -1 0 0 0 0];

internalField   nonuniform List<scalar> 
139350
(
6.4593e-08
9.20385e-08
3.19527e-08
3.26403e-08
2.30633e-08
8.88941e-09
1.95711e-08
3.49223e-09
1.76217e-08
1.94932e-09
1.6197e-08
1.42477e-09
1.50671e-08
1.12989e-09
1.41566e-08
9.10513e-10
1.34079e-08
7.48699e-10
1.27779e-08
6.30013e-10
1.22377e-08
5.40145e-10
1.17681e-08
4.69613e-10
1.13553e-08
4.12801e-10
1.09891e-08
3.66179e-10
1.06618e-08
3.27341e-10
1.03672e-08
2.94564e-10
1.01006e-08
2.66581e-10
9.85819e-09
2.42441e-10
9.63677e-09
2.21422e-10
9.43381e-09
2.02961e-10
9.24719e-09
1.86619e-10
9.07515e-09
1.72044e-10
8.9162e-09
1.58954e-10
8.76908e-09
1.47116e-10
8.63274e-09
1.36337e-10
8.50629e-09
1.26455e-10
8.38896e-09
1.1733e-10
8.28011e-09
1.08845e-10
8.17922e-09
1.0089e-10
8.08584e-09
9.3379e-11
7.99963e-09
8.62092e-11
7.92031e-09
7.93219e-11
7.84771e-09
7.26025e-11
7.78169e-09
6.60212e-11
7.72227e-09
5.9423e-11
7.66946e-09
5.28094e-11
7.62349e-09
4.59681e-11
7.58461e-09
3.88794e-11
7.55324e-09
3.13678e-11
7.53016e-09
2.30765e-11
7.51574e-09
1.44268e-11
7.51227e-09
3.47208e-12
7.5189e-09
-6.62987e-12
7.54254e-09
-2.36442e-11
7.57694e-09
-3.44018e-11
7.64376e-09
-6.6818e-11
7.71293e-09
-6.91675e-11
7.88168e-09
-1.68752e-10
7.80007e-09
8.16084e-11
-3.85999e-09
1.16601e-08
1.26026e-07
1.27456e-07
9.12664e-08
6.74004e-08
7.19495e-08
2.82063e-08
6.12278e-08
1.42139e-08
5.47879e-08
8.38926e-09
5.03013e-08
5.91134e-09
4.68253e-08
4.60592e-09
4.40183e-08
3.71749e-09
4.17012e-08
3.06581e-09
3.97493e-08
2.58192e-09
3.80755e-08
2.21391e-09
3.66199e-08
1.92524e-09
3.53398e-08
1.69293e-09
3.42036e-08
1.50235e-09
3.31873e-08
1.34359e-09
3.22723e-08
1.2096e-09
3.14437e-08
1.0952e-09
3.06896e-08
9.96517e-10
3.00004e-08
9.10603e-10
2.93682e-08
8.35168e-10
2.87864e-08
7.68416e-10
2.82495e-08
7.08918e-10
2.7753e-08
6.55518e-10
2.72928e-08
6.07268e-10
2.68658e-08
5.63385e-10
2.6469e-08
5.23211e-10
2.61002e-08
4.86186e-10
2.57572e-08
4.5183e-10
2.54384e-08
4.19711e-10
2.51423e-08
3.89475e-10
2.48677e-08
3.60743e-10
2.46138e-08
3.33259e-10
2.43798e-08
3.06622e-10
2.41651e-08
2.80684e-10
2.39696e-08
2.54904e-10
2.37931e-08
2.29303e-10
2.36361e-08
2.03021e-10
2.34986e-08
1.76317e-10
2.33822e-08
1.47847e-10
2.32873e-08
1.17949e-10
2.32167e-08
8.50606e-11
2.3172e-08
4.81853e-11
2.31573e-08
8.07051e-12
2.3178e-08
-4.43703e-11
2.32365e-08
-9.29383e-11
2.33568e-08
-1.87059e-10
2.35074e-08
-2.19765e-10
2.38597e-08
-5.21091e-10
2.40002e-08
-5.88794e-11
-5.19876e-09
2.53389e-08
1.58808e-07
1.35052e-07
1.36497e-07
8.97106e-08
1.17501e-07
4.72025e-08
1.03331e-07
2.83844e-08
9.33328e-08
1.83872e-08
8.60413e-08
1.32029e-08
8.03471e-08
1.03001e-08
7.57089e-08
8.35569e-09
7.18446e-08
6.93018e-09
6.85672e-08
5.85926e-09
6.57438e-08
5.03731e-09
6.32796e-08
4.38942e-09
6.11062e-08
3.86641e-09
5.91723e-08
3.43626e-09
5.74387e-08
3.07715e-09
5.58748e-08
2.77349e-09
5.44562e-08
2.51383e-09
5.31631e-08
2.28957e-09
5.19796e-08
2.09411e-09
5.08924e-08
1.92236e-09
4.98905e-08
1.7703e-09
4.89647e-08
1.63471e-09
4.81073e-08
1.513e-09
4.73115e-08
1.40303e-09
4.65718e-08
1.30305e-09
4.58835e-08
1.21156e-09
4.52424e-08
1.12732e-09
4.46449e-08
1.04924e-09
4.40883e-08
9.76361e-10
4.35699e-08
9.07884e-10
4.30876e-08
8.42993e-10
4.26398e-08
7.8109e-10
4.22251e-08
7.2135e-10
4.18424e-08
6.63407e-10
4.14911e-08
6.06158e-10
4.11708e-08
5.49644e-10
4.08818e-08
4.92004e-10
4.0624e-08
4.3409e-10
4.03994e-08
3.72436e-10
4.0208e-08
3.09355e-10
4.00544e-08
2.38617e-10
3.99385e-08
1.64084e-10
3.98695e-08
7.71626e-11
3.9848e-08
-2.2918e-11
3.9887e-08
-1.31955e-10
4.00033e-08
-3.03303e-10
4.01796e-08
-3.96144e-10
4.0579e-08
-9.20444e-10
4.09851e-08
-4.64974e-10
-5.65374e-09
4.14401e-08
1.75664e-07
1.30903e-07
1.65597e-07
9.97781e-08
1.5273e-07
6.0069e-08
1.40139e-07
4.0976e-08
1.29459e-07
2.90666e-08
1.20828e-07
2.18339e-08
1.1373e-07
1.7398e-08
1.07765e-07
1.43206e-08
1.02682e-07
1.20132e-08
9.8299e-08
1.02426e-08
9.44759e-08
8.86043e-09
9.11074e-08
7.75789e-09
8.81138e-08
6.86007e-09
8.54335e-08
6.11657e-09
8.30183e-08
5.49232e-09
8.08298e-08
4.96197e-09
7.8837e-08
4.50669e-09
7.70144e-08
4.11215e-09
7.53411e-08
3.76734e-09
7.37999e-08
3.46364e-09
7.23759e-08
3.19422e-09
7.1057e-08
2.95361e-09
6.98327e-08
2.73734e-09
6.8694e-08
2.54176e-09
6.76332e-08
2.36381e-09
6.66438e-08
2.20093e-09
6.57202e-08
2.05093e-09
6.48575e-08
1.91194e-09
6.40516e-08
1.78231e-09
6.32988e-08
1.66062e-09
6.25963e-08
1.54549e-09
6.19416e-08
1.43587e-09
6.13325e-08
1.33038e-09
6.07676e-08
1.22836e-09
6.02457e-08
1.128e-09
5.9766e-08
1.02936e-09
5.93287e-08
9.29328e-10
5.89333e-08
8.2952e-10
5.85819e-08
7.23798e-10
5.82741e-08
6.17131e-10
5.80156e-08
4.97176e-10
5.7805e-08
3.7466e-10
5.7654e-08
2.28192e-10
5.75612e-08
6.98682e-11
5.7544e-08
-1.14798e-10
5.7616e-08
-3.75245e-10
5.77728e-08
-5.52965e-10
5.81369e-08
-1.28454e-09
5.86753e-08
-1.00344e-09
-5.89226e-09
5.89139e-08
1.8456e-07
1.23128e-07
1.82322e-07
1.02016e-07
1.76107e-07
6.62842e-08
1.6777e-07
4.93129e-08
1.59156e-07
3.76808e-08
1.51258e-07
2.97315e-08
1.44199e-07
2.44566e-08
1.37916e-07
2.06038e-08
1.32334e-07
1.7595e-08
1.2737e-07
1.5207e-08
1.22937e-07
1.32931e-08
1.1896e-07
1.17352e-08
1.15373e-07
1.04466e-08
1.12124e-07
9.36598e-09
1.09167e-07
8.44929e-09
1.06465e-07
7.66379e-09
1.03987e-07
6.98457e-09
1.01707e-07
6.39235e-09
9.96024e-08
5.87206e-09
9.76543e-08
5.41173e-09
9.58468e-08
5.0018e-09
9.41659e-08
4.63448e-09
9.25998e-08
4.30341e-09
9.11383e-08
4.00328e-09
8.97724e-08
3.72968e-09
8.84945e-08
3.47885e-09
8.72978e-08
3.24759e-09
8.61767e-08
3.03313e-09
8.51259e-08
2.83302e-09
8.41414e-08
2.64517e-09
8.32194e-08
2.46754e-09
8.23567e-08
2.29854e-09
8.15509e-08
2.13618e-09
8.07998e-08
1.97943e-09
8.01021e-08
1.82573e-09
7.94564e-08
1.67505e-09
7.88627e-08
1.52302e-09
7.83203e-08
1.37194e-09
7.78312e-08
1.2129e-09
7.73948e-08
1.05354e-09
7.70167e-08
8.75241e-10
7.66958e-08
6.95593e-10
7.64435e-08
4.80418e-10
7.62593e-08
2.5413e-10
7.61602e-08
-1.56755e-11
7.61597e-08
-3.74747e-10
7.62632e-08
-6.56562e-10
7.65535e-08
-1.57483e-09
7.70978e-08
-1.54771e-09
-6.05703e-09
7.72626e-08
1.90388e-07
1.14957e-07
1.91852e-07
1.00552e-07
1.90246e-07
6.78904e-08
1.8616e-07
5.33994e-08
1.80727e-07
4.31128e-08
1.74982e-07
3.54766e-08
1.69298e-07
3.0141e-08
1.63829e-07
2.60726e-08
1.58672e-07
2.27522e-08
1.53869e-07
2.00105e-08
1.49422e-07
1.774e-08
1.45315e-07
1.5842e-08
1.41524e-07
1.42373e-08
1.38023e-07
1.2867e-08
1.34786e-07
1.16866e-08
1.31787e-07
1.06621e-08
1.29006e-07
9.76632e-09
1.2642e-07
8.97789e-09
1.24013e-07
8.27953e-09
1.21767e-07
7.65726e-09
1.19669e-07
7.09968e-09
1.17706e-07
6.59735e-09
1.15867e-07
6.14245e-09
1.14142e-07
5.72838e-09
1.12522e-07
5.34956e-09
1.11e-07
5.0012e-09
1.09568e-07
4.67918e-09
1.08222e-07
4.37992e-09
1.06954e-07
4.10021e-09
1.05762e-07
3.8373e-09
1.04641e-07
3.58852e-09
1.03588e-07
3.35172e-09
1.026e-07
3.12433e-09
1.01675e-07
2.90487e-09
1.0081e-07
2.69009e-09
1.00005e-07
2.47979e-09
9.92601e-08
2.26839e-09
9.85733e-08
2.05871e-09
9.79469e-08
1.83932e-09
9.73804e-08
1.62004e-09
9.68789e-08
1.37676e-09
9.6442e-08
1.13245e-09
9.60798e-08
8.42644e-10
9.57939e-08
5.39983e-10
9.55982e-08
1.8003e-10
9.55089e-08
-2.85462e-10
9.55361e-08
-6.83725e-10
9.57332e-08
-1.77192e-09
9.62142e-08
-2.02872e-09
-6.15044e-09
9.63076e-08
1.95541e-07
1.0723e-07
1.98248e-07
9.78453e-08
1.9897e-07
6.71682e-08
1.97792e-07
5.45776e-08
1.95164e-07
4.57406e-08
1.91829e-07
3.88117e-08
1.88106e-07
3.38634e-08
1.84168e-07
3.00107e-08
1.80164e-07
2.67569e-08
1.76203e-07
2.39715e-08
1.72353e-07
2.15893e-08
1.68655e-07
1.95407e-08
1.65127e-07
1.77652e-08
1.61778e-07
1.62157e-08
1.58609e-07
1.48557e-08
1.55616e-07
1.36555e-08
1.52791e-07
1.2591e-08
1.50127e-07
1.16422e-08
1.47614e-07
1.07924e-08
1.45243e-07
1.00278e-08
1.43006e-07
9.33674e-09
1.40894e-07
8.70935e-09
1.38899e-07
8.13732e-09
1.37014e-07
7.61348e-09
1.35232e-07
7.13167e-09
1.33547e-07
6.68649e-09
1.31953e-07
6.27325e-09
1.30445e-07
5.8878e-09
1.29019e-07
5.52641e-09
1.2767e-07
5.1858e-09
1.26396e-07
4.8628e-09
1.25193e-07
4.55482e-09
1.24058e-07
4.25877e-09
1.2299e-07
3.97279e-09
1.21987e-07
3.693e-09
1.21048e-07
3.41899e-09
1.20172e-07
3.14416e-09
1.1936e-07
2.8716e-09
1.18611e-07
2.58787e-09
1.17927e-07
2.30411e-09
1.17312e-07
1.99222e-09
1.16766e-07
1.67816e-09
1.16298e-07
1.31097e-09
1.15911e-07
9.25997e-10
1.15617e-07
4.74207e-10
1.15434e-07
-1.02507e-10
1.15375e-07
-6.23949e-10
1.15468e-07
-1.86567e-09
1.15852e-07
-2.41275e-09
-6.17018e-09
1.15872e-07
2.00848e-07
9.99672e-08
2.03776e-07
9.49172e-08
2.05328e-07
6.56163e-08
2.05645e-07
5.42604e-08
2.04822e-07
4.65642e-08
2.03345e-07
4.02883e-08
2.01404e-07
3.58043e-08
1.99083e-07
3.23314e-08
1.96489e-07
2.93515e-08
1.93723e-07
2.67374e-08
1.90867e-07
2.44456e-08
1.8798e-07
2.24271e-08
1.85108e-07
2.06371e-08
1.82283e-07
1.90412e-08
1.79526e-07
1.76126e-08
1.76852e-07
1.63292e-08
1.74271e-07
1.51724e-08
1.71787e-07
1.41261e-08
1.69403e-07
1.31766e-08
1.67119e-07
1.23121e-08
1.64933e-07
1.15223e-08
1.62844e-07
1.07984e-08
1.60849e-07
1.01326e-08
1.58944e-07
9.51807e-09
1.57127e-07
8.9488e-09
1.55394e-07
8.41944e-09
1.53742e-07
7.92521e-09
1.52168e-07
7.4618e-09
1.50669e-07
7.0253e-09
1.49243e-07
6.61218e-09
1.47887e-07
6.21902e-09
1.46598e-07
5.84292e-09
1.45377e-07
5.48048e-09
1.4422e-07
5.12955e-09
1.43127e-07
4.7858e-09
1.42098e-07
4.44859e-09
1.41131e-07
4.11057e-09
1.40228e-07
3.77485e-09
1.39389e-07
3.42659e-09
1.38616e-07
3.07738e-09
1.37911e-07
2.69676e-09
1.37278e-07
2.3112e-09
1.36722e-07
1.86728e-09
1.3625e-07
1.39748e-09
1.35869e-07
8.55335e-10
1.356e-07
1.66828e-10
1.35456e-07
-4.80057e-10
1.35447e-07
-1.85658e-09
1.35719e-07
-2.68515e-09
-6.12206e-09
1.35671e-07
2.06447e-07
9.30522e-08
2.0934e-07
9.20244e-08
2.11038e-07
6.39183e-08
2.11933e-07
5.33651e-08
2.12004e-07
4.64929e-08
2.11622e-07
4.0671e-08
2.10897e-07
3.65287e-08
2.09834e-07
3.33945e-08
2.0847e-07
3.07158e-08
2.06863e-07
2.83443e-08
2.05069e-07
2.62391e-08
2.03139e-07
2.43579e-08
2.01113e-07
2.26627e-08
1.99029e-07
2.11256e-08
1.96915e-07
1.97262e-08
1.94796e-07
1.84485e-08
1.92689e-07
1.72789e-08
1.9061e-07
1.62055e-08
1.88568e-07
1.52182e-08
1.86572e-07
1.43079e-08
1.84628e-07
1.34664e-08
1.8274e-07
1.26868e-08
1.8091e-07
1.19626e-08
1.7914e-07
1.1288e-08
1.77431e-07
1.06578e-08
1.75783e-07
1.00672e-08
1.74197e-07
9.5119e-09
1.72671e-07
8.98779e-09
1.71205e-07
8.49115e-09
1.69798e-07
8.01851e-09
1.68451e-07
7.56646e-09
1.67162e-07
7.13206e-09
1.65931e-07
6.71177e-09
1.64757e-07
6.30332e-09
1.63641e-07
5.9021e-09
1.62582e-07
5.50733e-09
1.61581e-07
5.11117e-09
1.60639e-07
4.71656e-09
1.59758e-07
4.30788e-09
1.58939e-07
3.8964e-09
1.58185e-07
3.45086e-09
1.575e-07
2.996e-09
1.56888e-07
2.47957e-09
1.56359e-07
1.92661e-09
1.55915e-07
1.29881e-09
1.55579e-07
5.0281e-10
1.55367e-07
-2.67278e-10
1.55267e-07
-1.75734e-09
1.55429e-07
-2.84639e-09
-6.01623e-09
1.55323e-07
2.12289e-07
8.64256e-08
2.15153e-07
8.91606e-08
2.16792e-07
6.22787e-08
2.17846e-07
5.23118e-08
2.18263e-07
4.60756e-08
2.18382e-07
4.05519e-08
2.1831e-07
3.66004e-08
2.18017e-07
3.36881e-08
2.17494e-07
3.12386e-08
2.16761e-07
2.90776e-08
2.15841e-07
2.71586e-08
2.14761e-07
2.54382e-08
2.13546e-07
2.38778e-08
2.12221e-07
2.245e-08
2.10811e-07
2.11361e-08
2.09337e-07
1.99226e-08
2.07818e-07
1.87982e-08
2.0627e-07
1.7754e-08
2.04706e-07
1.6782e-08
2.03138e-07
1.58753e-08
2.01577e-07
1.50279e-08
2.00029e-07
1.42345e-08
1.98502e-07
1.34899e-08
1.97e-07
1.27898e-08
1.95528e-07
1.21299e-08
1.94089e-07
1.15063e-08
1.92685e-07
1.09153e-08
1.9132e-07
1.03534e-08
1.89994e-07
9.81718e-09
1.88709e-07
9.3036e-09
1.87466e-07
8.80941e-09
1.86266e-07
8.33182e-09
1.8511e-07
7.86736e-09
1.84e-07
7.41378e-09
1.82936e-07
6.96639e-09
1.81919e-07
6.5243e-09
1.8095e-07
6.07947e-09
1.80032e-07
5.63453e-09
1.79167e-07
5.17366e-09
1.78356e-07
4.70713e-09
1.77602e-07
4.20427e-09
1.76912e-07
3.68634e-09
1.76287e-07
3.10509e-09
1.75738e-07
2.47499e-09
1.75268e-07
1.76932e-09
1.74895e-07
8.75226e-10
1.74639e-07
-1.13148e-11
1.74474e-07
-1.59176e-09
1.74538e-07
-2.91059e-09
-5.86696e-09
1.74389e-07
2.1833e-07
8.00763e-08
2.21206e-07
8.62843e-08
2.22765e-07
6.07201e-08
2.23845e-07
5.12317e-08
2.24372e-07
4.55488e-08
2.24669e-07
4.02551e-08
2.24873e-07
3.63963e-08
2.24957e-07
3.36042e-08
2.24898e-07
3.12969e-08
2.24698e-07
2.92779e-08
2.24361e-07
2.74961e-08
2.23892e-07
2.59066e-08
2.23302e-07
2.44677e-08
2.22602e-07
2.31499e-08
2.21805e-07
2.19333e-08
2.20924e-07
2.08036e-08
2.19972e-07
1.97502e-08
2.18962e-07
1.87644e-08
2.17905e-07
1.78392e-08
2.16811e-07
1.69687e-08
2.15691e-07
1.6148e-08
2.14553e-07
1.53727e-08
2.13404e-07
1.46388e-08
2.12251e-07
1.39427e-08
2.111e-07
1.32811e-08
2.09956e-07
1.26509e-08
2.08822e-07
1.20489e-08
2.07703e-07
1.14723e-08
2.06602e-07
1.09182e-08
2.05522e-07
1.03838e-08
2.04465e-07
9.86615e-09
2.03434e-07
9.36279e-09
2.02431e-07
8.87037e-09
2.01458e-07
8.38676e-09
2.00517e-07
7.90729e-09
1.99611e-07
7.43105e-09
1.9874e-07
6.94996e-09
1.97908e-07
6.46628e-09
1.97118e-07
5.96442e-09
1.96372e-07
5.45319e-09
1.95672e-07
4.90358e-09
1.95026e-07
4.33211e-09
1.94435e-07
3.69652e-09
1.93911e-07
2.99913e-09
1.93454e-07
2.22595e-09
1.93082e-07
1.24772e-09
1.92815e-07
2.55257e-10
1.92615e-07
-1.39111e-09
1.92606e-07
-2.90246e-09
-5.69267e-09
1.92432e-07
2.24559e-07
7.40107e-08
2.27471e-07
8.33725e-08
2.28962e-07
5.92289e-08
2.30047e-07
5.01463e-08
2.30615e-07
4.49807e-08
2.30961e-07
3.99095e-08
2.31254e-07
3.61027e-08
2.31486e-07
3.33725e-08
2.31636e-07
3.1147e-08
2.31702e-07
2.92118e-08
2.31684e-07
2.75141e-08
2.3158e-07
2.60104e-08
2.3139e-07
2.46575e-08
2.31117e-07
2.34237e-08
2.30763e-07
2.22871e-08
2.30334e-07
2.12324e-08
2.29836e-07
2.02478e-08
2.29277e-07
1.93241e-08
2.28662e-07
1.8454e-08
2.27999e-07
1.76316e-08
2.27295e-07
1.68521e-08
2.26556e-07
1.61114e-08
2.25789e-07
1.54058e-08
2.24999e-07
1.47323e-08
2.24193e-07
1.40879e-08
2.23374e-07
1.34699e-08
2.22547e-07
1.28757e-08
2.21716e-07
1.23027e-08
2.20886e-07
1.17485e-08
2.20059e-07
1.12105e-08
2.19239e-07
1.06861e-08
2.18429e-07
1.0173e-08
2.17632e-07
9.66803e-09
2.16849e-07
9.16914e-09
2.16085e-07
8.67177e-09
2.15341e-07
8.17495e-09
2.1462e-07
7.67074e-09
2.13925e-07
7.16086e-09
2.13259e-07
6.63038e-09
2.12626e-07
6.08621e-09
2.12028e-07
5.50183e-09
2.11472e-07
4.88824e-09
2.10958e-07
4.21027e-09
2.105e-07
3.45795e-09
2.10096e-07
2.62925e-09
2.0976e-07
1.58345e-09
2.09516e-07
4.99681e-10
2.09314e-07
-1.18945e-09
2.09264e-07
-2.85243e-09
-5.51423e-09
2.09086e-07
2.30979e-07
6.82371e-08
2.33935e-07
8.04168e-08
2.35367e-07
5.77969e-08
2.36459e-07
4.90546e-08
2.3706e-07
4.4379e-08
2.37421e-07
3.95486e-08
2.37737e-07
3.57876e-08
2.38014e-07
3.3095e-08
2.38239e-07
3.09216e-08
2.38415e-07
2.90367e-08
2.38542e-07
2.73871e-08
2.38619e-07
2.59332e-08
2.38644e-07
2.46326e-08
2.38615e-07
2.34525e-08
2.38532e-07
2.23702e-08
2.38395e-07
2.13692e-08
2.38206e-07
2.0437e-08
2.37966e-07
1.95635e-08
2.37679e-07
1.87409e-08
2.37348e-07
1.79627e-08
2.36977e-07
1.72238e-08
2.36568e-07
1.65197e-08
2.36127e-07
1.5847e-08
2.35657e-07
1.52023e-08
2.35162e-07
1.45829e-08
2.34646e-07
1.39862e-08
2.34112e-07
1.34097e-08
2.33564e-07
1.28509e-08
2.33005e-07
1.23077e-08
2.32438e-07
1.17775e-08
2.31866e-07
1.1258e-08
2.31292e-07
1.07469e-08
2.30719e-07
1.02411e-08
2.30149e-07
9.73864e-09
2.29586e-07
9.23503e-09
2.29032e-07
8.72915e-09
2.28489e-07
8.2133e-09
2.27962e-07
7.68855e-09
2.27451e-07
7.14085e-09
2.26962e-07
6.57497e-09
2.26497e-07
5.96733e-09
2.26062e-07
5.32317e-09
2.25658e-07
4.61462e-09
2.25295e-07
3.82051e-09
2.24976e-07
2.94847e-09
2.24707e-07
1.85254e-09
2.24512e-07
6.94068e-10
2.2434e-07
-1.0169e-09
2.24278e-07
-2.79066e-09
-5.35169e-09
2.24115e-07
2.37601e-07
6.27613e-08
2.40603e-07
7.74148e-08
2.41978e-07
5.64221e-08
2.43074e-07
4.79581e-08
2.43713e-07
4.374e-08
2.44088e-07
3.91741e-08
2.44408e-07
3.5467e-08
2.44698e-07
3.28048e-08
2.44946e-07
3.06734e-08
2.45158e-07
2.88251e-08
2.45339e-07
2.72059e-08
2.45491e-07
2.57812e-08
2.45613e-07
2.45109e-08
2.45703e-07
2.33624e-08
2.45761e-07
2.23127e-08
2.45784e-07
2.13453e-08
2.45774e-07
2.04471e-08
2.4573e-07
1.96077e-08
2.45652e-07
1.88187e-08
2.45542e-07
1.80734e-08
2.45399e-07
1.73661e-08
2.45227e-07
1.66921e-08
2.45026e-07
1.60476e-08
2.44799e-07
1.54292e-08
2.44548e-07
1.48339e-08
2.44276e-07
1.4259e-08
2.43983e-07
1.37021e-08
2.43673e-07
1.31607e-08
2.43349e-07
1.26325e-08
2.43011e-07
1.21151e-08
2.42663e-07
1.16061e-08
2.42307e-07
1.11032e-08
2.41944e-07
1.06033e-08
2.41579e-07
1.01045e-08
2.41211e-07
9.60223e-09
2.40845e-07
9.0952e-09
2.40483e-07
8.57594e-09
2.40126e-07
8.04477e-09
2.39779e-07
7.48869e-09
2.39443e-07
6.91012e-09
2.39122e-07
6.28869e-09
2.38821e-07
5.62399e-09
2.38541e-07
4.89496e-09
2.3829e-07
4.07122e-09
2.38072e-07
3.16695e-09
2.37887e-07
2.03711e-09
2.3776e-07
8.20761e-10
2.37638e-07
-8.94608e-10
2.37589e-07
-2.74154e-09
-5.22052e-09
2.37458e-07
2.44431e-07
5.75868e-08
2.47472e-07
7.43731e-08
2.48798e-07
5.50961e-08
2.49895e-07
4.68612e-08
2.50573e-07
4.30623e-08
2.50965e-07
3.87824e-08
2.5129e-07
3.51419e-08
2.51585e-07
3.25092e-08
2.51841e-07
3.04174e-08
2.52064e-07
2.86025e-08
2.52262e-07
2.70076e-08
2.5244e-07
2.56034e-08
2.52598e-07
2.43526e-08
2.52737e-07
2.32234e-08
2.52857e-07
2.21933e-08
2.52956e-07
2.12457e-08
2.53036e-07
2.03679e-08
2.53094e-07
1.95493e-08
2.53131e-07
1.87815e-08
2.53147e-07
1.80574e-08
2.53142e-07
1.73711e-08
2.53116e-07
1.67179e-08
2.5307e-07
1.60936e-08
2.53005e-07
1.54946e-08
2.52921e-07
1.49178e-08
2.52819e-07
1.43605e-08
2.52702e-07
1.382e-08
2.52568e-07
1.32939e-08
2.52421e-07
1.27796e-08
2.52262e-07
1.22748e-08
2.52091e-07
1.17769e-08
2.5191e-07
1.12837e-08
2.51722e-07
1.07919e-08
2.51527e-07
1.02995e-08
2.51327e-07
9.802e-09
2.51124e-07
9.29777e-09
2.50921e-07
8.77963e-09
2.50718e-07
8.24703e-09
2.50519e-07
7.6881e-09
2.50326e-07
7.10293e-09
2.50141e-07
6.47423e-09
2.49968e-07
5.7965e-09
2.49809e-07
5.05449e-09
2.49669e-07
4.21103e-09
2.49552e-07
3.28354e-09
2.49456e-07
2.13332e-09
2.49402e-07
8.74569e-10
2.4934e-07
-8.3199e-10
2.49318e-07
-2.72003e-09
-5.12894e-09
2.49226e-07
2.51478e-07
5.27156e-08
2.5455e-07
7.13013e-08
2.55837e-07
5.38088e-08
2.56929e-07
4.57695e-08
2.57644e-07
4.23468e-08
2.58056e-07
3.83706e-08
2.58387e-07
3.48108e-08
2.58688e-07
3.22081e-08
2.5895e-07
3.01561e-08
2.59177e-07
2.83751e-08
2.59381e-07
2.68037e-08
2.59567e-07
2.54175e-08
2.59737e-07
2.41823e-08
2.59893e-07
2.30674e-08
2.60036e-07
2.20506e-08
2.60166e-07
2.11158e-08
2.60283e-07
2.02505e-08
2.60388e-07
1.94446e-08
2.6048e-07
1.86894e-08
2.60559e-07
1.7978e-08
2.60626e-07
1.73046e-08
2.60679e-07
1.66642e-08
2.6072e-07
1.60525e-08
2.60749e-07
1.5466e-08
2.60765e-07
1.49015e-08
2.6077e-07
1.4356e-08
2.60763e-07
1.38269e-08
2.60745e-07
1.33117e-08
2.60717e-07
1.28077e-08
2.60679e-07
1.23125e-08
2.60633e-07
1.18236e-08
2.60578e-07
1.13384e-08
2.60516e-07
1.08538e-08
2.60448e-07
1.03674e-08
2.60376e-07
9.87493e-09
2.60299e-07
9.37432e-09
2.6022e-07
8.85872e-09
2.6014e-07
8.32667e-09
2.60061e-07
7.76742e-09
2.59985e-07
7.17885e-09
2.59913e-07
6.54648e-09
2.59849e-07
5.86055e-09
2.59793e-07
5.11024e-09
2.5975e-07
4.25423e-09
2.59723e-07
3.31011e-09
2.59707e-07
2.14962e-09
2.5972e-07
8.61613e-10
2.59715e-07
-8.27224e-10
2.59726e-07
-2.73095e-09
-5.07718e-09
2.59674e-07
2.58751e-07
4.81476e-08
2.61843e-07
6.82092e-08
2.63102e-07
5.25494e-08
2.64184e-07
4.46881e-08
2.64935e-07
4.1596e-08
2.65369e-07
3.79366e-08
2.65707e-07
3.44728e-08
2.66013e-07
3.19014e-08
2.6628e-07
2.98891e-08
2.66512e-07
2.81438e-08
2.66719e-07
2.65968e-08
2.66908e-07
2.52284e-08
2.67082e-07
2.4008e-08
2.67244e-07
2.29058e-08
2.67394e-07
2.19001e-08
2.67535e-07
2.09752e-08
2.67666e-07
2.0119e-08
2.67789e-07
1.93216e-08
2.67904e-07
1.85747e-08
2.68011e-07
1.78713e-08
2.6811e-07
1.72056e-08
2.68201e-07
1.65728e-08
2.68285e-07
1.59686e-08
2.68362e-07
1.53894e-08
2.68431e-07
1.4832e-08
2.68494e-07
1.42936e-08
2.68549e-07
1.37713e-08
2.68598e-07
1.32627e-08
2.68641e-07
1.27651e-08
2.68677e-07
1.22761e-08
2.68708e-07
1.17928e-08
2.68733e-07
1.1313e-08
2.68754e-07
1.08332e-08
2.6877e-07
1.0351e-08
2.68783e-07
9.86213e-09
2.68793e-07
9.36416e-09
2.68802e-07
8.85059e-09
2.68809e-07
8.31906e-09
2.68817e-07
7.7599e-09
2.68826e-07
7.16904e-09
2.68839e-07
6.53435e-09
2.68856e-07
5.84278e-09
2.6888e-07
5.08658e-09
2.68912e-07
4.22262e-09
2.68955e-07
3.2663e-09
2.69003e-07
2.10234e-09
2.69069e-07
7.95591e-10
2.69112e-07
-8.70301e-10
2.69152e-07
-2.77087e-09
-5.05888e-09
2.69133e-07
2.66259e-07
4.38813e-08
2.6936e-07
6.51074e-08
2.70602e-07
5.13075e-08
2.71669e-07
4.36214e-08
2.72451e-07
4.08134e-08
2.72909e-07
3.74786e-08
2.73255e-07
3.4127e-08
2.73568e-07
3.15888e-08
2.73841e-07
2.96161e-08
2.74077e-07
2.79079e-08
2.74287e-07
2.63867e-08
2.74478e-07
2.50368e-08
2.74655e-07
2.38313e-08
2.74819e-07
2.27418e-08
2.74972e-07
2.17468e-08
2.75117e-07
2.0831e-08
2.75253e-07
1.99828e-08
2.75382e-07
1.91924e-08
2.75505e-07
1.84517e-08
2.75622e-07
1.7754e-08
2.75734e-07
1.70936e-08
2.75841e-07
1.64657e-08
2.75944e-07
1.5866e-08
2.76042e-07
1.52911e-08
2.76136e-07
1.47378e-08
2.76227e-07
1.42032e-08
2.76314e-07
1.36846e-08
2.76397e-07
1.31795e-08
2.76477e-07
1.26852e-08
2.76553e-07
1.21994e-08
2.76627e-07
1.17192e-08
2.76698e-07
1.1242e-08
2.76766e-07
1.07647e-08
2.76833e-07
1.02846e-08
2.76897e-07
9.79748e-09
2.76961e-07
9.30057e-09
2.77024e-07
8.78773e-09
2.77087e-07
8.25579e-09
2.77151e-07
7.69607e-09
2.77217e-07
7.10284e-09
2.77286e-07
6.46585e-09
2.77359e-07
5.76975e-09
2.77437e-07
5.00856e-09
2.7752e-07
4.13937e-09
2.77613e-07
3.17369e-09
2.77704e-07
2.01044e-09
2.77807e-07
6.9311e-10
2.77884e-07
-9.47316e-10
2.77945e-07
-2.83154e-09
-5.06391e-09
2.7795e-07
2.74009e-07
3.99131e-08
2.7711e-07
6.2007e-08
2.78344e-07
5.00729e-08
2.79393e-07
4.25729e-08
2.80203e-07
4.00031e-08
2.80687e-07
3.69952e-08
2.81041e-07
3.37724e-08
2.8136e-07
3.12706e-08
2.81639e-07
2.93367e-08
2.8188e-07
2.7667e-08
2.82093e-07
2.61733e-08
2.82287e-07
2.48426e-08
2.82466e-07
2.36526e-08
2.82632e-07
2.2576e-08
2.82787e-07
2.15918e-08
2.82933e-07
2.06851e-08
2.83071e-07
1.98446e-08
2.83202e-07
1.90608e-08
2.83328e-07
1.83259e-08
2.83449e-07
1.76331e-08
2.83566e-07
1.6977e-08
2.83679e-07
1.63527e-08
2.83789e-07
1.57563e-08
2.83895e-07
1.51841e-08
2.84e-07
1.46332e-08
2.84102e-07
1.41007e-08
2.84203e-07
1.3584e-08
2.84302e-07
1.30806e-08
2.84399e-07
1.25878e-08
2.84495e-07
1.21033e-08
2.8459e-07
1.16242e-08
2.84685e-07
1.11479e-08
2.84778e-07
1.06713e-08
2.84871e-07
1.01916e-08
2.84964e-07
9.70466e-09
2.85057e-07
9.20738e-09
2.85151e-07
8.69399e-09
2.85246e-07
8.16061e-09
2.85343e-07
7.5994e-09
2.85442e-07
7.00333e-09
2.85544e-07
6.36355e-09
2.85651e-07
5.66333e-09
2.85762e-07
4.89734e-09
2.85877e-07
4.02444e-09
2.85999e-07
3.05142e-09
2.86118e-07
1.8913e-09
2.86242e-07
5.69724e-10
2.86339e-07
-1.04432e-09
2.8641e-07
-2.90326e-09
-5.08124e-09
2.86428e-07
2.82013e-07
3.62378e-08
2.851e-07
5.89194e-08
2.86337e-07
4.8836e-08
2.87365e-07
4.15454e-08
2.88198e-07
3.91696e-08
2.88709e-07
3.6485e-08
2.89073e-07
3.34078e-08
2.89397e-07
3.09467e-08
2.89683e-07
2.9051e-08
2.89929e-07
2.74209e-08
2.90146e-07
2.59561e-08
2.90343e-07
2.46456e-08
2.90524e-07
2.34716e-08
2.90692e-07
2.24083e-08
2.90848e-07
2.14352e-08
2.90995e-07
2.05379e-08
2.91135e-07
1.97052e-08
2.91268e-07
1.8928e-08
2.91395e-07
1.81987e-08
2.91517e-07
1.75107e-08
2.91636e-07
1.68586e-08
2.91751e-07
1.62376e-08
2.91863e-07
1.56439e-08
2.91973e-07
1.50739e-08
2.92082e-07
1.45247e-08
2.92189e-07
1.39936e-08
2.92295e-07
1.34778e-08
2.92401e-07
1.29751e-08
2.92506e-07
1.24828e-08
2.9261e-07
1.19986e-08
2.92715e-07
1.15195e-08
2.9282e-07
1.10431e-08
2.92925e-07
1.05662e-08
2.93031e-07
1.00858e-08
2.93137e-07
9.59798e-09
2.93245e-07
9.09938e-09
2.93355e-07
8.58451e-09
2.93467e-07
8.04892e-09
2.93581e-07
7.48546e-09
2.93698e-07
6.88616e-09
2.93818e-07
6.24309e-09
2.93943e-07
5.53893e-09
2.94072e-07
4.76823e-09
2.94203e-07
3.89259e-09
2.94341e-07
2.9139e-09
2.94474e-07
1.75839e-09
2.94606e-07
4.37641e-10
2.94711e-07
-1.14978e-09
2.94786e-07
-2.97739e-09
-5.1011e-09
2.94805e-07
2.90278e-07
3.28482e-08
2.93341e-07
5.58564e-08
2.9459e-07
4.75879e-08
2.95594e-07
4.05406e-08
2.96446e-07
3.83183e-08
2.96984e-07
3.59471e-08
2.97359e-07
3.30319e-08
2.97689e-07
3.06172e-08
2.97981e-07
2.87589e-08
2.98233e-07
2.71691e-08
2.98454e-07
2.57349e-08
2.98654e-07
2.44457e-08
2.98838e-07
2.3288e-08
2.99007e-07
2.22385e-08
2.99166e-07
2.1277e-08
2.99314e-07
2.03892e-08
2.99455e-07
1.95646e-08
2.99589e-07
1.87942e-08
2.99717e-07
1.80706e-08
2.9984e-07
1.73874e-08
2.9996e-07
1.67392e-08
3.00076e-07
1.61215e-08
3.00189e-07
1.55303e-08
3.00301e-07
1.49623e-08
3.00411e-07
1.44146e-08
3.0052e-07
1.38844e-08
3.00629e-07
1.33694e-08
3.00737e-07
1.2867e-08
3.00845e-07
1.23748e-08
3.00953e-07
1.18903e-08
3.01062e-07
1.14108e-08
3.01171e-07
1.09337e-08
3.01282e-07
1.04558e-08
3.01393e-07
9.97426e-09
3.01506e-07
9.485e-09
3.01621e-07
8.98454e-09
3.01738e-07
8.46767e-09
3.01857e-07
7.92946e-09
3.0198e-07
7.3633e-09
3.02105e-07
6.76059e-09
3.02234e-07
6.11397e-09
3.02367e-07
5.40612e-09
3.02504e-07
4.63094e-09
3.02644e-07
3.75331e-09
3.02787e-07
2.77062e-09
3.02925e-07
1.62083e-09
3.03057e-07
3.05148e-10
3.03163e-07
-1.25541e-09
3.03233e-07
-3.04748e-09
-5.11609e-09
3.03248e-07
2.98815e-07
2.97354e-08
3.01842e-07
5.283e-08
3.03109e-07
4.63208e-08
3.0409e-07
3.95594e-08
3.04954e-07
3.74547e-08
3.0552e-07
3.5381e-08
3.05909e-07
3.26431e-08
3.06244e-07
3.02819e-08
3.06542e-07
2.84604e-08
3.068e-07
2.69114e-08
3.07026e-07
2.55094e-08
3.07229e-07
2.42424e-08
3.07415e-07
2.31018e-08
3.07587e-07
2.20665e-08
3.07747e-07
2.11169e-08
3.07897e-07
2.0239e-08
3.08039e-07
1.94226e-08
3.08174e-07
1.86592e-08
3.08304e-07
1.79414e-08
3.08428e-07
1.72631e-08
3.08548e-07
1.6619e-08
3.08665e-07
1.60045e-08
3.0878e-07
1.54158e-08
3.08892e-07
1.48498e-08
3.09003e-07
1.43034e-08
3.09113e-07
1.37742e-08
3.09223e-07
1.32597e-08
3.09332e-07
1.27575e-08
3.09442e-07
1.22652e-08
3.09552e-07
1.17803e-08
3.09663e-07
1.13001e-08
3.09774e-07
1.08221e-08
3.09887e-07
1.03431e-08
3.10001e-07
9.86011e-09
3.10117e-07
9.36918e-09
3.10235e-07
8.86665e-09
3.10355e-07
8.34754e-09
3.10478e-07
7.80658e-09
3.10604e-07
7.23753e-09
3.10733e-07
6.63148e-09
3.10865e-07
5.98128e-09
3.11001e-07
5.2701e-09
3.11141e-07
4.49092e-09
3.11283e-07
3.61208e-09
3.11426e-07
2.62714e-09
3.11563e-07
1.48413e-09
3.11691e-07
1.77203e-10
3.11791e-07
-1.35596e-09
3.11853e-07
-3.10928e-09
-5.12119e-09
3.11858e-07
3.07634e-07
2.6889e-08
3.10611e-07
4.98523e-08
3.11904e-07
4.50278e-08
3.12862e-07
3.86019e-08
3.13733e-07
3.65839e-08
3.14327e-07
3.4787e-08
3.1473e-07
3.22398e-08
3.15071e-07
2.99408e-08
3.15376e-07
2.81555e-08
3.1564e-07
2.66474e-08
3.1587e-07
2.52791e-08
3.16077e-07
2.40357e-08
3.16266e-07
2.29128e-08
3.1644e-07
2.18921e-08
3.16603e-07
2.09547e-08
3.16755e-07
2.00871e-08
3.16898e-07
1.92792e-08
3.17034e-07
1.85229e-08
3.17165e-07
1.78112e-08
3.1729e-07
1.71378e-08
3.17411e-07
1.64978e-08
3.17529e-07
1.58866e-08
3.17644e-07
1.53005e-08
3.17758e-07
1.47364e-08
3.1787e-07
1.41915e-08
3.17981e-07
1.36632e-08
3.18091e-07
1.31492e-08
3.18202e-07
1.26471e-08
3.18312e-07
1.21546e-08
3.18423e-07
1.16692e-08
3.18535e-07
1.11884e-08
3.18648e-07
1.07094e-08
3.18762e-07
1.02291e-08
3.18877e-07
9.74459e-09
3.18994e-07
9.25191e-09
3.19114e-07
8.74727e-09
3.19236e-07
8.22586e-09
3.1936e-07
7.68219e-09
3.19487e-07
7.11027e-09
3.19618e-07
6.50107e-09
3.19751e-07
5.8475e-09
3.19888e-07
5.13346e-09
3.20028e-07
4.35098e-09
3.20168e-07
3.47177e-09
3.20309e-07
2.48642e-09
3.20442e-07
1.35136e-09
3.20562e-07
5.64621e-11
3.20655e-07
-1.44836e-09
3.20706e-07
-3.16027e-09
-5.11334e-09
3.20698e-07
3.16743e-07
2.42969e-08
3.1966e-07
4.69353e-08
3.20984e-07
4.37037e-08
3.21919e-07
3.76668e-08
3.22792e-07
3.57112e-08
3.23413e-07
3.41663e-08
3.23832e-07
3.18204e-08
3.2418e-07
2.95932e-08
3.24491e-07
2.78444e-08
3.24761e-07
2.63769e-08
3.24997e-07
2.50438e-08
3.25207e-07
2.38252e-08
3.25399e-07
2.27206e-08
3.25576e-07
2.17149e-08
3.25741e-07
2.07903e-08
3.25895e-07
1.99332e-08
3.2604e-07
1.91341e-08
3.26178e-07
1.83852e-08
3.26309e-07
1.76796e-08
3.26436e-07
1.70114e-08
3.26558e-07
1.63755e-08
3.26677e-07
1.57677e-08
3.26793e-07
1.51843e-08
3.26907e-07
1.46222e-08
3.2702e-07
1.40786e-08
3.27132e-07
1.35513e-08
3.27243e-07
1.30378e-08
3.27355e-07
1.25358e-08
3.27466e-07
1.20431e-08
3.27578e-07
1.15573e-08
3.27691e-07
1.10757e-08
3.27805e-07
1.05957e-08
3.2792e-07
1.01142e-08
3.28036e-07
9.6281e-09
3.28154e-07
9.13368e-09
3.28275e-07
8.62698e-09
3.28397e-07
8.10331e-09
3.28522e-07
7.55706e-09
3.2865e-07
6.98239e-09
3.28781e-07
6.37034e-09
3.28915e-07
5.71374e-09
3.29051e-07
4.9974e-09
3.29189e-07
4.21248e-09
3.29327e-07
3.3338e-09
3.29464e-07
2.34993e-09
3.29591e-07
1.22414e-09
3.29703e-07
-5.57575e-11
3.29786e-07
-1.53091e-09
3.29824e-07
-3.19905e-09
-5.09079e-09
3.29802e-07
3.26154e-07
2.19457e-08
3.28998e-07
4.40907e-08
3.30357e-07
4.23447e-08
3.31272e-07
3.67522e-08
3.32142e-07
3.48415e-08
3.32787e-07
3.35205e-08
3.33224e-07
3.13835e-08
3.33579e-07
2.92386e-08
3.33896e-07
2.75272e-08
3.34173e-07
2.60998e-08
3.34414e-07
2.4803e-08
3.34629e-07
2.36105e-08
3.34824e-07
2.25251e-08
3.35004e-07
2.1535e-08
3.35171e-07
2.06234e-08
3.35327e-07
1.97772e-08
3.35474e-07
1.89872e-08
3.35613e-07
1.82459e-08
3.35746e-07
1.75466e-08
3.35874e-07
1.68837e-08
3.35998e-07
1.62521e-08
3.36118e-07
1.56477e-08
3.36235e-07
1.5067e-08
3.3635e-07
1.45069e-08
3.36464e-07
1.39648e-08
3.36577e-07
1.34384e-08
3.36689e-07
1.29254e-08
3.36801e-07
1.24236e-08