/*--------------------------------*- C++ -*----------------------------------*\
  =========                 |
  \\      /  F ield         | OpenFOAM: The Open Source CFD Toolbox
   \\    /   O peration     | Website:  https://openfoam.org
    \\  /    A nd           | Version:  7
     \\/     M anipulation  |
\*---------------------------------------------------------------------------*/
FoamFile
{
    version     2.0;
    format      ascii;
    class       volVectorField;
    location    "0.47";
    object      U_0;
}
// * * * * * * * * * * * * * * * * * * * * * * * * * * * * * * * * * * * * * //

dimensions      [0 1 -1 0 0 0 0];

internalField   nonuniform List<vector> 
70000
(
(0.553391 0.016723 0)
(0.251265 0.00340092 0)
(0.166212 0.000321896 0)
(0.132474 5.41871e-05 0)
(0.117293 4.56215e-05 0)
(0.107381 5.37886e-05 0)
(0.099446 4.61476e-05 0)
(0.0930214 3.67991e-05 0)
(0.0877941 3.04746e-05 0)
(0.0834441 2.6136e-05 0)
(0.0797433 2.28239e-05 0)
(0.0765437 2.01657e-05 0)
(0.073744 1.79921e-05 0)
(0.0712702 1.61902e-05 0)
(0.0690663 1.46762e-05 0)
(0.0670888 1.3388e-05 0)
(0.0653037 1.22793e-05 0)
(0.0636837 1.13143e-05 0)
(0.062207 1.04668e-05 0)
(0.0608556 9.71454e-06 0)
(0.0596147 9.04144e-06 0)
(0.0584721 8.4335e-06 0)
(0.0574174 7.87974e-06 0)
(0.056442 7.37081e-06 0)
(0.0555386 6.89893e-06 0)
(0.0547008 6.45687e-06 0)
(0.0539236 6.03875e-06 0)
(0.0532024 5.63899e-06 0)
(0.0525336 5.25124e-06 0)
(0.051914 4.87244e-06 0)
(0.0513412 4.49327e-06 0)
(0.0508131 4.11375e-06 0)
(0.0503283 3.72006e-06 0)
(0.0498859 3.31456e-06 0)
(0.0494853 2.87908e-06 0)
(0.0491272 2.41036e-06 0)
(0.0488109 1.9015e-06 0)
(0.0485408 1.29793e-06 0)
(0.0483134 6.95309e-07 0)
(0.0481432 -2.0887e-07 0)
(0.0480138 -8.66421e-07 0)
(0.0479693 -2.5411e-06 0)
(0.047952 -2.9884e-06 0)
(0.0480867 -6.23398e-06 0)
(0.0482011 -5.4163e-06 0)
(0.0486178 -1.29666e-05 0)
(0.0489115 -8.26914e-06 0)
(0.0497307 -2.60446e-05 0)
(0.0507833 1.82366e-05 0)
(0.0471208 -0.0019395 0)
(0.884899 0.0431672 0)
(0.649722 0.0201935 0)
(0.494342 0.00659749 0)
(0.403707 0.00276658 0)
(0.354808 0.00155081 0)
(0.323536 0.00113022 0)
(0.299712 0.000908836 0)
(0.280556 0.000744737 0)
(0.264888 0.000621675 0)
(0.251816 0.000530693 0)
(0.240691 0.000461553 0)
(0.231071 0.000407076 0)
(0.22265 0.000362988 0)
(0.215205 0.000326628 0)
(0.208568 0.000296184 0)
(0.20261 0.000270358 0)
(0.197229 0.000248189 0)
(0.192342 0.000228956 0)
(0.187884 0.000212109 0)
(0.183802 0.000197217 0)
(0.18005 0.000183943 0)
(0.176592 0.000172016 0)
(0.173398 0.000161216 0)
(0.170439 0.000151359 0)
(0.167696 0.000142294 0)
(0.165148 0.000133889 0)
(0.16278 0.00012603 0)
(0.160578 0.000118618 0)
(0.15853 0.000111557 0)
(0.156627 0.00010477 0)
(0.154861 9.81618e-05 0)
(0.153226 9.16725e-05 0)
(0.151715 8.51859e-05 0)
(0.150326 7.86654e-05 0)
(0.149055 7.19371e-05 0)
(0.147904 6.50007e-05 0)
(0.146868 5.75801e-05 0)
(0.145959 4.96934e-05 0)
(0.145164 4.09743e-05 0)
(0.144519 3.12497e-05 0)
(0.14398 2.04306e-05 0)
(0.143659 7.09608e-06 0)
(0.1434 -6.37154e-06 0)
(0.143524 -2.78273e-05 0)
(0.143576 -4.50669e-05 0)
(0.144384 -8.57661e-05 0)
(0.144853 -9.66737e-05 0)
(0.14658 -0.000230372 0)
(0.148769 7.44238e-05 0)
(0.145938 -0.00351716 0)
(0.991237 0.0499011 0)
(0.890353 0.0307177 0)
(0.762706 0.0145959 0)
(0.656724 0.00797718 0)
(0.585435 0.00488184 0)
(0.536075 0.00346754 0)
(0.49826 0.00273151 0)
(0.467699 0.00223866 0)
(0.442448 0.00187493 0)
(0.421208 0.00160268 0)
(0.403033 0.00139453 0)
(0.387257 0.0012305 0)
(0.373403 0.00109785 0)
(0.361122 0.000988469 0)
(0.35015 0.000896872 0)
(0.340279 0.00081915 0)
(0.331347 0.000752429 0)
(0.323223 0.000694545 0)
(0.315801 0.000643847 0)
(0.308994 0.00059905 0)
(0.30273 0.000559141 0)
(0.296949 0.00052331 0)
(0.291601 0.000490895 0)
(0.286641 0.000461352 0)
(0.282034 0.000434225 0)
(0.277749 0.000409124 0)
(0.273759 0.000385714 0)
(0.270042 0.0003637 0)
(0.266578 0.00034281 0)
(0.26335 0.000322814 0)
(0.260346 0.000303454 0)
(0.257553 0.000284549 0)
(0.254962 0.000265802 0)
(0.252567 0.000247093 0)
(0.250362 0.000227981 0)
(0.248345 0.000208478 0)
(0.24651 0.000187805 0)
(0.244871 0.00016623 0)
(0.243409 0.000142346 0)
(0.242175 0.000116773 0)
(0.2411 8.72787e-05 0)
(0.240344 5.42711e-05 0)
(0.239679 1.62075e-05 0)
(0.239561 -3.25773e-05 0)
(0.239338 -8.43076e-05 0)
(0.240164 -0.000174594 0)
(0.240521 -0.000217971 0)
(0.242586 -0.00051499 0)
(0.2449 -0.000150723 0)
(0.244948 -0.0040197 0)
(1.0156 0.0489199 0)
(1.00596 0.0358735 0)
(0.935967 0.0207889 0)
(0.852163 0.0135002 0)
(0.782263 0.00920249 0)
(0.727115 0.0067747 0)
(0.682094 0.00537582 0)
(0.644407 0.00443556 0)
(0.612467 0.00374068 0)
(0.585085 0.00321361 0)
(0.561327 0.00280594 0)
(0.540485 0.00248253 0)
(0.522031 0.00221985 0)
(0.505562 0.00200251 0)
(0.490765 0.00181997 0)
(0.477389 0.00166469 0)
(0.465237 0.00153112 0)
(0.454144 0.00141504 0)
(0.443978 0.00131324 0)
(0.434627 0.00122319 0)
(0.426 0.00114292 0)
(0.418019 0.00107081 0)
(0.410617 0.00100557 0)
(0.403739 0.00094612 0)
(0.397336 0.000891559 0)
(0.391367 0.000841116 0)
(0.385797 0.00079413 0)
(0.380595 0.00075002 0)
(0.375735 0.000708258 0)
(0.371195 0.000668385 0)
(0.366956 0.00062992 0)
(0.363002 0.000592498 0)
(0.359319 0.00055558 0)
(0.355898 0.000518924 0)
(0.35273 0.000481733 0)
(0.349812 0.000444033 0)
(0.347135 0.000404365 0)
(0.344712 0.000363402 0)
(0.342521 0.000318201 0)
(0.340618 0.000270832 0)
(0.338923 0.000215457 0)
(0.337617 0.000156359 0)
(0.336439 8.37993e-05 0)
(0.335903 1.48468e-06 0)
(0.335273 -9.67366e-05 0)
(0.335835 -0.000245074 0)
(0.335904 -0.000339917 0)
(0.337917 -0.00079545 0)
(0.339803 -0.000510703 0)
(0.341695 -0.00419136 0)
(1.01434 0.0460033 0)
(1.04753 0.0374868 0)
(1.02459 0.024148 0)
(0.974783 0.0175534 0)
(0.923502 0.0131144 0)
(0.876777 0.010196 0)
(0.834676 0.00833033 0)
(0.797004 0.00700724 0)
(0.763528 0.00599535 0)
(0.73381 0.00520562 0)
(0.707339 0.00458115 0)
(0.683643 0.00407783 0)
(0.662326 0.00366423 0)
(0.643054 0.00331885 0)
(0.625552 0.00302661 0)
(0.60959 0.00277647 0)
(0.594976 0.00256018 0)
(0.581549 0.0023714 0)
(0.569173 0.00220524 0)
(0.557732 0.00205781 0)
(0.547128 0.00192605 0)
(0.537278 0.00180745 0)
(0.528108 0.00169997 0)
(0.519557 0.00160191 0)
(0.51157 0.00151184 0)
(0.504101 0.00142853 0)
(0.497109 0.00135093 0)
(0.49056 0.00127812 0)
(0.484423 0.00120924 0)
(0.478671 0.00114356 0)
(0.473282 0.00108034 0)
(0.468238 0.00101898 0)
(0.463521 0.000958647 0)
(0.45912 0.000898948 0)
(0.455023 0.000838682 0)
(0.451225 0.00077787 0)
(0.447716 0.000714286 0)
(0.444508 0.000649056 0)
(0.441576 0.000577486 0)
(0.438977 0.000503345 0)
(0.43663 0.000416645 0)
(0.434714 0.000326211 0)
(0.43297 0.000213472 0)
(0.431907 9.04153e-05 0)
(0.430803 -5.9249e-05 0)
(0.430912 -0.000272732 0)
(0.430603 -0.000434329 0)
(0.432272 -0.00102899 0)
(0.433641 -0.000914161 0)
(0.436055 -0.00432154 0)
(1.00933 0.0429147 0)
(1.05528 0.0372619 0)
(1.05869 0.0252916 0)
(1.03638 0.0197518 0)
(1.00714 0.0158013 0)
(0.976123 0.0129225 0)
(0.944648 0.0109433 0)
(0.913847 0.00945831 0)
(0.884572 0.00826493 0)
(0.857207 0.0072939 0)
(0.831832 0.00650035 0)
(0.808384 0.00584421 0)
(0.786743 0.00529411 0)
(0.766765 0.0048273 0)
(0.748305 0.00442703 0)
(0.731222 0.00408064 0)
(0.715387 0.00377834 0)
(0.700682 0.00351241 0)
(0.687002 0.00327676 0)
(0.674252 0.00306648 0)
(0.662349 0.00287762 0)
(0.65122 0.0027069 0)
(0.6408 0.00255164 0)
(0.631031 0.00240955 0)
(0.621862 0.00227871 0)
(0.613248 0.00215746 0)
(0.605149 0.00204434 0)
(0.597532 0.00193808 0)
(0.590364 0.00183752 0)
(0.58362 0.00174163 0)
(0.577277 0.00164936 0)
(0.571314 0.0015599 0)
(0.565716 0.0014721 0)
(0.560467 0.00138539 0)
(0.555556 0.00129815 0)
(0.550978 0.00121036 0)
(0.546722 0.00111904 0)
(0.542796 0.0010257 0)
(0.53918 0.000923948 0)
(0.535923 0.000819082 0)
(0.532953 0.00069722 0)
(0.530432 0.000571175 0)
(0.528129 0.000414482 0)
(0.526501 0.000245766 0)
(0.524911 3.92168e-05 0)
(0.524472 -0.000242892 0)
(0.523757 -0.000481087 0)
(0.524885 -0.00120029 0)
(0.525782 -0.00128837 0)
(0.527996 -0.00441497 0)
(1.00625 0.0400332 0)
(1.05206 0.0363342 0)
(1.06609 0.0252204 0)
(1.05961 0.0205506 0)
(1.0469 0.0172263 0)
(1.03084 0.0146397 0)
(1.01198 0.0127993 0)
(0.99135 0.0113702 0)
(0.970006 0.0101694 0)
(0.94868 0.00914925 0)
(0.92782 0.00828414 0)
(0.907686 0.00754629 0)
(0.888427 0.00691131 0)
(0.870111 0.00636044 0)
(0.852759 0.00587917 0)
(0.836358 0.005456 0)
(0.820877 0.00508161 0)
(0.806273 0.00474836 0)
(0.792499 0.00445003 0)
(0.779508 0.00418144 0)
(0.767251 0.00393832 0)
(0.755681 0.00371707 0)
(0.744756 0.00351464 0)
(0.734434 0.00332842 0)
(0.724678 0.00315616 0)
(0.715454 0.0029959 0)
(0.706729 0.0028459 0)
(0.698476 0.00270459 0)
(0.690669 0.00257057 0)
(0.683286 0.00244254 0)
(0.676307 0.00231923 0)
(0.669714 0.00219957 0)
(0.663494 0.00208216 0)
(0.657632 0.00196622 0)
(0.65212 0.00184977 0)
(0.64695 0.0017327 0)
(0.642116 0.00161136 0)
(0.637624 0.00148749 0)
(0.633457 0.00135326 0)
(0.629655 0.00121505 0)
(0.626162 0.00105587 0)
(0.623115 0.000891162 0)
(0.620323 0.000688796 0)
(0.618171 0.000471011 0)
(0.616138 0.000204255 0)
(0.615144 -0.00014835 0)
(0.614041 -0.000468147 0)
(0.614548 -0.00129939 0)
(0.615002 -0.00160052 0)
(0.616726 -0.00445511 0)
(1.00495 0.0373552 0)
(1.04727 0.035252 0)
(1.06398 0.0246801 0)
(1.06426 0.0205762 0)
(1.0607 0.0177628 0)
(1.05478 0.0154804 0)
(1.04605 0.0138539 0)
(1.0349 0.0125887 0)
(1.02204 0.0114977 0)
(1.00807 0.0105395 0)
(0.993464 0.0097008 0)
(0.978565 0.00896418 0)
(0.963643 0.00831297 0)
(0.948893 0.00773411 0)
(0.93445 0.0072173 0)
(0.920407 0.00675405 0)
(0.906823 0.00633716 0)
(0.893735 0.00596046 0)
(0.881158 0.00561868 0)
(0.8691 0.0053073 0)
(0.857555 0.00502244 0)
(0.846516 0.00476074 0)
(0.835969 0.00451927 0)
(0.825899 0.00429547 0)
(0.816289 0.00408704 0)
(0.807123 0.00389197 0)
(0.798383 0.00370839 0)
(0.790054 0.00353465 0)
(0.782119 0.00336917 0)
(0.774566 0.00321054 0)
(0.767381 0.00305728 0)
(0.760552 0.00290818 0)
(0.754071 0.00276164 0)
(0.747928 0.00261669 0)
(0.742118 0.00247107 0)
(0.736637 0.00232455 0)
(0.731479 0.00217292 0)
(0.726651 0.00201801 0)
(0.722144 0.00185092 0)
(0.717989 0.00167852 0)
(0.714145 0.00148176 0)
(0.710723 0.00127706 0)
(0.707578 0.00102938 0)
(0.705016 0.000760326 0)
(0.702639 0.000436073 0)
(0.701167 9.9972e-06 0)
(0.699739 -0.00039348 0)
(0.699653 -0.00132275 0)
(0.699689 -0.00183418 0)
(0.700841 -0.00444283 0)
(1.0044 0.0348072 0)
(1.04324 0.0341787 0)
(1.05994 0.0240388 0)
(1.0623 0.0202818 0)
(1.06251 0.0178257 0)
(1.06183 0.0157601 0)
(1.05928 0.0143063 0)
(1.05476 0.0132056 0)
(1.04859 0.012256 0)
(1.04106 0.0114089 0)
(1.03248 0.0106535 0)
(1.02309 0.00997645 0)
(1.01313 0.00936504 0)
(1.00279 0.00880983 0)
(0.992241 0.00830387 0)
(0.981608 0.00784153 0)
(0.970998 0.00741794 0)
(0.960493 0.00702882 0)
(0.950154 0.0066704 0)
(0.940027 0.00633931 0)
(0.930148 0.00603256 0)
(0.920539 0.00574749 0)
(0.911218 0.00548166 0)
(0.902195 0.0052329 0)
(0.893476 0.0049992 0)
(0.885063 0.0047787 0)
(0.876958 0.00456969 0)
(0.869158 0.00437054 0)
(0.86166 0.00417972 0)
(0.854463 0.00399577 0)
(0.847563 0.00381719 0)
(0.840955 0.00364267 0)
(0.83464 0.00347049 0)
(0.828612 0.0032996 0)
(0.822873 0.00312751 0)
(0.817422 0.00295386 0)
(0.812259 0.00277408 0)
(0.807392 0.00258992 0)
(0.802816 0.00239177 0)
(0.798561 0.00218646 0)
(0.794598 0.00195394 0)
(0.791015 0.00171004 0)
(0.787709 0.00141936 0)
(0.784914 0.0010995 0)
(0.782346 0.000721 0)
(0.780538 0.00022265 0)
(0.77889 -0.000264273 0)
(0.778324 -0.0012762 0)
(0.778 -0.00198468 0)
(0.778604 -0.00438435 0)
(1.00402 0.032367 0)
(1.03991 0.0331284 0)
(1.05617 0.0234154 0)
(1.05893 0.0198931 0)
(1.06024 0.0176945 0)
(1.0616 0.0157631 0)
(1.06199 0.0144099 0)
(1.06112 0.0134235 0)
(1.05909 0.0125892 0)
(1.056 0.0118471 0)
(1.05196 0.0111838 0)
(1.04707 0.0105856 0)
(1.04146 0.0100398 0)
(1.03526 0.00953759 0)
(1.02858 0.00907316 0)
(1.02155 0.00864223 0)
(1.01425 0.00824133 0)
(1.00677 0.00786749 0)
(0.999191 0.0075181 0)
(0.991566 0.00719087 0)
(0.983949 0.00688369 0)
(0.976381 0.00659466 0)
(0.968898 0.00632201 0)
(0.961528 0.00606408 0)
(0.954293 0.00581929 0)
(0.947211 0.00558612 0)
(0.940297 0.00536313 0)
(0.933562 0.0051489 0)
(0.927016 0.00494203 0)
(0.920666 0.00474116 0)
(0.914518 0.00454485 0)
(0.908578 0.00435179 0)
(0.90285 0.00416025 0)
(0.897339 0.00396912 0)
(0.89205 0.00377578 0)
(0.886988 0.00357979 0)
(0.882159 0.00337634 0)
(0.877572 0.00316698 0)
(0.873229 0.00294179 0)
(0.869156 0.00270708 0)
(0.865337 0.00244271 0)
(0.861841 0.00216264 0)
(0.858601 0.0018332 0)
(0.85579 0.00146564 0)
(0.853218 0.0010371 0)
(0.851264 0.000473015 0)
(0.849536 -9.78939e-05 0)
(0.848654 -0.00117465 0)
(0.848066 -0.00205836 0)
(0.848219 -0.00428828 0)
(1.00364 0.0300265 0)
(1.03692 0.0320807 0)
(1.05282 0.0228253 0)
(1.0557 0.0194872 0)
(1.05714 0.0175016 0)
(1.05906 0.0156619 0)
(1.06051 0.0143557 0)
(1.06123 0.0134318 0)
(1.06126 0.0126705 0)
(1.06064 0.0120021 0)
(1.05937 0.0114104 0)
(1.05746 0.0108804 0)
(1.05495 0.0103979 0)
(1.0519 0.00995294 0)
(1.04835 0.00953921 0)
(1.04438 0.00915233 0)
(1.04004 0.00878903 0)
(1.0354 0.0084467 0)
(1.03051 0.00812321 0)
(1.02542 0.00781676 0)
(1.02019 0.00752579 0)
(1.01486 0.0072489 0)
(1.00946 0.0069848 0)
(1.00402 0.00673225 0)
(0.998579 0.00649008 0)
(0.993159 0.00625709 0)
(0.987781 0.00603213 0)
(0.982464 0.00581402 0)
(0.977224 0.00560153 0)
(0.972076 0.00539346 0)
(0.967033 0.00518847 0)
(0.962105 0.00498533 0)
(0.957305 0.00478231 0)
(0.952642 0.00457831 0)
(0.948125 0.00437068 0)
(0.943764 0.00415887 0)
(0.939569 0.00393798 0)
(0.935552 0.00370927 0)
(0.931719 0.0034628 0)
(0.928094 0.00320401 0)
(0.924672 0.00291344 0)
(0.921507 0.0026022 0)
(0.91856 0.00223993 0)
(0.915954 0.00182997 0)
(0.913575 0.00135758 0)
(0.911676 0.0007359 0)
(0.910026 9.0384e-05 0)
(0.909014 -0.00103773 0)
(0.90829 -0.00207037 0)
(0.908126 -0.00416684 0)
(1.00327 0.0277868 0)
(1.03409 0.0310218 0)
(1.04971 0.0222616 0)
(1.05273 0.0190794 0)
(1.05414 0.0172899 0)
(1.05611 0.0155314 0)
(1.05784 0.0142469 0)
(1.05908 0.0133529 0)
(1.05991 0.0126319 0)
(1.0604 0.0120064 0)
(1.06051 0.0114592 0)
(1.06024 0.0109752 0)
(1.05957 0.0105391 0)
(1.0585 0.0101396 0)
(1.05706 0.00976955 0)
(1.05527 0.00942375 0)
(1.05314 0.00909847 0)
(1.05071 0.00879082 0)
(1.04802 0.00849855 0)
(1.04509 0.00821982 0)
(1.04195 0.00795316 0)
(1.03864 0.0076973 0)
(1.03519 0.00745113 0)
(1.03162 0.00721361 0)
(1.02796 0.00698377 0)
(1.02424 0.00676063 0)
(1.02047 0.00654322 0)
(1.01667 0.0063305 0)
(1.01287 0.00612143 0)
(1.00907 0.0059149 0)
(1.0053 0.00570966 0)
(1.00157 0.00550455 0)
(0.997884 0.00529789 0)
(0.994266 0.00508857 0)
(0.990723 0.00487392 0)
(0.987268 0.00465332 0)
(0.983913 0.00442182 0)
(0.980671 0.00418036 0)
(0.977553 0.00391921 0)
(0.974579 0.00364264 0)
(0.971752 0.00333249 0)
(0.969113 0.00299637 0)
(0.966644 0.00260818 0)
(0.964432 0.00216289 0)
(0.962415 0.00165389 0)
(0.960754 0.000984603 0)
(0.959327 0.000277079 0)
(0.958359 -0.000889285 0)
(0.957635 -0.00204199 0)
(0.957303 -0.0040352 0)
(1.00292 0.0256509 0)
(1.03138 0.0299471 0)
(1.04671 0.0217201 0)
(1.04994 0.0186694 0)
(1.05133 0.017066 0)
(1.05326 0.0153938 0)
(1.05502 0.0141244 0)
(1.05637 0.0132457 0)
(1.05744 0.0125475 0)
(1.05832 0.0119456 0)
(1.05899 0.0114226 0)
(1.05945 0.0109648 0)
(1.05968 0.0105568 0)
(1.05967 0.0101868 0)
(1.05942 0.00984687 0)
(1.05893 0.00953124 0)
(1.05821 0.00923567 0)
(1.05725 0.00895681 0)
(1.05608 0.00869204 0)
(1.05471 0.00843927 0)
(1.05314 0.00819681 0)
(1.05141 0.00796327 0)
(1.04952 0.00773746 0)
(1.04749 0.00751835 0)
(1.04535 0.00730496 0)
(1.0431 0.00709636 0)
(1.04076 0.00689162 0)
(1.03836 0.00668979 0)
(1.03589 0.00648984 0)
(1.03339 0.00629073 0)
(1.03086 0.00609124 0)
(1.02831 0.00589023 0)
(1.02576 0.00568602 0)
(1.02322 0.00547748 0)
(1.02071 0.00526194 0)
(1.01822 0.00503864 0)
(1.01578 0.00480269 0)
(1.01341 0.00455458 0)
(1.0111 0.004285 0)
(1.00888 0.00399685 0)
(1.00675 0.00367365 0)
(1.00475 0.0033192 0)
(1.00287 0.00291206 0)
(1.00118 0.00243928 0)
(0.999634 0.0019011 0)
(0.99834 0.00119583 0)
(0.997243 0.000433793 0)
(0.996458 -0.000753843 0)
(0.99585 -0.00199632 0)
(0.995484 -0.00390893 0)
(1.0026 0.0236218 0)
(1.02879 0.0288555 0)
(1.04379 0.0211994 0)
(1.04725 0.0182573 0)
(1.04865 0.0168286 0)
(1.05054 0.0152516 0)
(1.05229 0.0139993 0)
(1.05365 0.0131312 0)
(1.05476 0.012449 0)
(1.05573 0.011862 0)
(1.05657 0.0113525 0)
(1.05729 0.0109087 0)
(1.05788 0.010516 0)
(1.05834 0.0101626 0)
(1.05866 0.0098404 0)
(1.05883 0.00954343 0)
(1.05886 0.00926716 0)
(1.05875 0.00900797 0)
(1.05848 0.00876293 0)
(1.05808 0.00852967 0)
(1.05753 0.00830628 0)
(1.05685 0.00809115 0)
(1.05605 0.00788295 0)
(1.05512 0.0076805 0)
(1.05409 0.00748274 0)
(1.05296 0.00728867 0)
(1.05174 0.00709732 0)
(1.05045 0.00690768 0)
(1.04908 0.00671872 0)
(1.04765 0.00652938 0)
(1.04617 0.00633837 0)
(1.04465 0.00614455 0)
(1.0431 0.0059462 0)
(1.04153 0.00574213 0)
(1.03995 0.00552963 0)
(1.03837 0.00530778 0)
(1.03679 0.00507177 0)
(1.03524 0.00482159 0)
(1.03372 0.00454845 0)
(1.03225 0.00425378 0)
(1.03083 0.00392296 0)
(1.02949 0.00355603 0)
(1.02823 0.00313601 0)
(1.02708 0.00264319 0)
(1.02606 0.00208279 0)
(1.02519 0.00135212 0)
(1.02447 0.000546676 0)
(1.02395 -0.000648889 0)
(1.02354 -0.00195351 0)
(1.02324 -0.0038015 0)
(1.0023 0.0217011 0)
(1.02634 0.0277477 0)
(1.04096 0.0206981 0)
(1.04465 0.0178446 0)
(1.04606 0.0165764 0)
(1.04792 0.0151034 0)
(1.04967 0.0138728 0)
(1.05103 0.0130143 0)
(1.05213 0.0123466 0)
(1.05309 0.0117718 0)
(1.05397 0.0112715 0)
(1.05475 0.0108361 0)
(1.05546 0.010452 0)
(1.05608 0.0101077 0)
(1.05662 0.00979517 0)
(1.05708 0.00950857 0)
(1.05745 0.00924333 0)
(1.05774 0.00899575 0)
(1.05794 0.0087628 0)
(1.05805 0.00854197 0)
(1.05807 0.00833119 0)
(1.05801 0.0081287 0)
(1.05786 0.00793303 0)
(1.05763 0.00774289 0)
(1.05731 0.00755711 0)
(1.05692 0.00737459 0)
(1.05646 0.00719427 0)
(1.05594 0.00701511 0)
(1.05535 0.00683596 0)
(1.05471 0.00665572 0)
(1.05402 0.00647305 0)
(1.05328 0.00628674 0)
(1.05251 0.00609497 0)
(1.05171 0.0058965 0)
(1.05088 0.00568855 0)
(1.05004 0.00547002 0)
(1.04919 0.0052362 0)
(1.04834 0.00498651 0)
(1.0475 0.00471279 0)
(1.04667 0.00441494 0)
(1.04588 0.00408023 0)
(1.04513 0.00370521 0)
(1.04443 0.00327683 0)
(1.0438 0.0027702 0)
(1.04325 0.00219328 0)
(1.04281 0.00144635 0)
(1.04246 0.000608025 0)
(1.04223 -0.000585063 0)
(1.04203 -0.00192774 0)
(1.04186 -0.00372158 0)
(1.00203 0.0198897 0)
(1.02402 0.0266269 0)
(1.03822 0.0202129 0)
(1.04212 0.0174332 0)
(1.04356 0.0163094 0)
(1.04539 0.0149476 0)
(1.04714 0.0137441 0)
(1.0485 0.0128955 0)
(1.04958 0.0122419 0)
(1.05054 0.0116794 0)
(1.05141 0.0111874 0)
(1.05219 0.0107585 0)
(1.05292 0.0103803 0)
(1.05358 0.0100417 0)
(1.05418 0.00973482 0)
(1.05473 0.00945399 0)
(1.05523 0.00919478 0)
(1.05568 0.00895356 0)
(1.05608 0.00872729 0)
(1.05643 0.00851346 0)
(1.05673 0.00830994 0)
(1.05697 0.00811493 0)
(1.05716 0.00792688 0)
(1.0573 0.00774442 0)
(1.0574 0.00756632 0)
(1.05744 0.00739144 0)
(1.05743 0.00721864 0)
(1.05738 0.0070468 0)
(1.05729 0.00687475 0)
(1.05716 0.00670129 0)
(1.05699 0.00652503 0)
(1.05678 0.00634467 0)
(1.05654 0.00615835 0)
(1.05628 0.0059647 0)
(1.05599 0.00576093 0)
(1.05569 0.00554569 0)
(1.05537 0.00531442 0)
(1.05505 0.00506596 0)
(1.05472 0.0047928 0)
(1.05441 0.00449334 0)
(1.05411 0.00415668 0)
(1.05383 0.00377632 0)
(1.05358 0.00334237 0)
(1.05338 0.00282645 0)
(1.05323 0.00223721 0)
(1.05314 0.00148104 0)
(1.05311 0.000618946 0)
(1.05313 -0.000564375 0)
(1.05314 -0.00192549 0)
(1.0531 -0.00367178 0)
(1.00179 0.0181878 0)
(1.02183 0.0254969 0)
(1.03558 0.0197402 0)
(1.03968 0.0170248 0)
(1.04116 0.0160283 0)
(1.04295 0.0147835 0)
(1.0447 0.0136129 0)
(1.04606 0.0127744 0)
(1.04714 0.0121351 0)
(1.04808 0.0115853 0)
(1.04893 0.011102 0)
(1.04971 0.0106792 0)
(1.05042 0.0103062 0)
(1.05108 0.00997218 0)
(1.05169 0.00966939 0)
(1.05226 0.00939235 0)
(1.0528 0.0091368 0)
(1.0533 0.0088992 0)
(1.05376 0.0086766 0)
(1.0542 0.00846652 0)
(1.0546 0.00826686 0)
(1.05498 0.00807581 0)
(1.05532 0.0078918 0)
(1.05564 0.00771348 0)
(1.05593 0.00753957 0)
(1.05619 0.00736892 0)
(1.05642 0.00720036 0)
(1.05663 0.00703276 0)
(1.05681 0.00686488 0)
(1.05696 0.00669551 0)
(1.05709 0.00652318 0)
(1.0572 0.00634656 0)
(1.05729 0.00616372 0)
(1.05737 0.00597318 0)
(1.05742 0.00577216 0)
(1.05747 0.00555908 0)
(1.0575 0.00532954 0)
(1.05753 0.00508182 0)
(1.05756 0.00480902 0)
(1.05759 0.00450824 0)
(1.05764 0.00417013 0)
(1.05769 0.00378577 0)
(1.05777 0.00334755 0)
(1.05788 0.00282525 0)
(1.05802 0.0022265 0)
(1.0582 0.00146588 0)
(1.05841 0.000587469 0)
(1.05862 -0.000581696 0)
(1.05879 -0.00194636 0)
(1.05886 -0.00364917 0)
(1.00157 0.016595 0)
(1.01979 0.0243617 0)
(1.03305 0.0192757 0)
(1.03733 0.0166213 0)
(1.03884 0.0157345 0)
(1.0406 0.0146103 0)
(1.04235 0.0134788 0)
(1.04371 0.012651 0)
(1.04478 0.0120259 0)
(1.04571 0.0114896 0)
(1.04655 0.0110153 0)
(1.04731 0.0105989 0)
(1.04801 0.0102311 0)
(1.04866 0.00990141 0)
(1.04926 0.00960231 0)
(1.04983 0.00932842 0)
(1.05036 0.00907564 0)
(1.05087 0.00884054 0)
(1.05135 0.00862026 0)
(1.05181 0.00841237 0)
(1.05224 0.0082148 0)
(1.05266 0.00802577 0)
(1.05306 0.00784375 0)
(1.05345 0.00766737 0)
(1.05381 0.0074954 0)
(1.05417 0.00732667 0)
(1.0545 0.00716003 0)
(1.05483 0.00699433 0)
(1.05514 0.00682834 0)
(1.05544 0.00666081 0)
(1.05573 0.00649027 0)
(1.056 0.00631532 0)
(1.05627 0.00613403 0)
(1.05652 0.00594481 0)
(1.05677 0.00574491 0)
(1.05702 0.00553253 0)
(1.05726 0.00530345 0)
(1.0575 0.00505543 0)
(1.05774 0.00478217 0)
(1.05799 0.00447962 0)
(1.05825 0.00413973 0)
(1.05851 0.0037518 0)
(1.0588 0.00330963 0)
(1.05911 0.00278261 0)
(1.05944 0.00217611 0)
(1.05979 0.00141399 0)
(1.06015 0.000525164 0)
(1.06049 -0.000627695 0)
(1.06077 -0.00198522 0)
(1.06091 -0.00364701 0)
(1.00137 0.0151105 0)
(1.01788 0.0232252 0)
(1.03062 0.0188156 0)
(1.03507 0.0162241 0)
(1.03663 0.0154294 0)
(1.03834 0.0144275 0)
(1.04008 0.0133414 0)
(1.04144 0.0125254 0)
(1.04251 0.0119142 0)
(1.04343 0.0113918 0)
(1.04425 0.0109273 0)
(1.04501 0.0105176 0)
(1.0457 0.0101551 0)
(1.04633 0.00982986 0)
(1.04692 0.00953444 0)
(1.04748 0.0092636 0)
(1.048 0.00901337 0)
(1.0485 0.00878044 0)
(1.04898 0.00856201 0)
(1.04943 0.0083557 0)
(1.04987 0.00815948 0)
(1.0503 0.0079716 0)
(1.05071 0.00779056 0)
(1.05111 0.00761503 0)
(1.0515 0.00744378 0)
(1.05188 0.00727568 0)
(1.05226 0.00710958 0)
(1.05263 0.00694437 0)
(1.05299 0.0067788 0)
(1.05335 0.00661164 0)
(1.05371 0.00644139 0)
(1.05406 0.00626664 0)
(1.0544 0.00608544 0)
(1.05475 0.00589613 0)
(1.05509 0.00569601 0)
(1.05544 0.00548305 0)
(1.05578 0.00525327 0)
(1.05613 0.00500392 0)
(1.05649 0.00472926 0)
(1.05685 0.00442432 0)
(1.05722 0.00408201 0)
(1.05761 0.0036905 0)
(1.05801 0.00324426 0)
(1.05843 0.00271342 0)
(1.05886 0.00210035 0)
(1.05931 0.00133849 0)
(1.05975 0.000443838 0)
(1.06016 -0.000691954 0)
(1.06048 -0.00203493 0)
(1.06066 -0.00365702 0)
(1.0012 0.0137327 0)
(1.0161 0.0220915 0)
(1.0283 0.0183562 0)
(1.03289 0.0158344 0)
(1.0345 0.0151146 0)
(1.03618 0.0142343 0)
(1.0379 0.0132003 0)
(1.03927 0.0123975 0)
(1.04033 0.0118 0)
(1.04124 0.011292 0)
(1.04205 0.0108378 0)
(1.0428 0.0104351 0)
(1.04347 0.0100781 0)
(1.0441 0.00975752 0)
(1.04468 0.0094659 0)
(1.04522 0.00919819 0)
(1.04573 0.00895053 0)
(1.04622 0.00871971 0)
(1.04669 0.00850302 0)
(1.04714 0.00829811 0)
(1.04757 0.008103 0)
(1.04799 0.00791596 0)
(1.0484 0.00773551 0)
(1.0488 0.00756035 0)
(1.04919 0.00738928 0)
(1.04958 0.0072212 0)
(1.04996 0.00705498 0)
(1.05034 0.00688952 0)
(1.05072 0.0067236 0)
(1.05109 0.00655597 0)
(1.05147 0.00638515 0)
(1.05185 0.0062097 0)
(1.05222 0.0060277 0)
(1.0526 0.0058374 0)
(1.05298 0.00563615 0)
(1.05337 0.00542176 0)
(1.05376 0.00519042 0)
(1.05416 0.004939 0)
(1.05456 0.00466219 0)
(1.05498 0.00435436 0)
(1.0554 0.00400907 0)
(1.05584 0.00361391 0)
(1.0563 0.00316343 0)
(1.05676 0.0026293 0)
(1.05724 0.00201066 0)
(1.05773 0.00125011 0)
(1.0582 0.000353291 0)
(1.05862 -0.000765218 0)
(1.05896 -0.00208855 0)
(1.05914 -0.00367144 0)
(1.00104 0.0124592 0)
(1.01446 0.020965 0)
(1.02609 0.0178941 0)
(1.0308 0.015453 0)
(1.03247 0.0147922 0)
(1.03411 0.0140305 0)
(1.03581 0.013055 0)
(1.03718 0.0122675 0)
(1.03824 0.0116831 0)
(1.03914 0.0111899 0)
(1.03995 0.0107467 0)
(1.04068 0.0103514 0)
(1.04135 0.0100002 0)
(1.04196 0.00968432 0)
(1.04253 0.00939665 0)
(1.04306 0.00913217 0)
(1.04356 0.00888715 0)
(1.04404 0.00865851 0)
(1.0445 0.00844357 0)
(1.04493 0.00824005 0)
(1.04536 0.00804599 0)
(1.04577 0.0078597 0)
(1.04617 0.00767972 0)
(1.04656 0.00750477 0)
(1.04694 0.00733368 0)
(1.04733 0.00716537 0)
(1.04771 0.00699874 0)
(1.04808 0.00683271 0)
(1.04846 0.00666607 0)
(1.04884 0.00649758 0)
(1.04922 0.00632577 0)
(1.0496 0.00614918 0)
(1.04998 0.0059659 0)
(1.05037 0.00577412 0)
(1.05076 0.00557124 0)
(1.05115 0.00535493 0)
(1.05156 0.00512153 0)
(1.05197 0.00486761 0)
(1.05239 0.0045882 0)
(1.05282 0.00427719 0)
(1.05327 0.00392858 0)
(1.05372 0.00352979 0)
(1.05419 0.00307506 0)
(1.05467 0.00253808 0)
(1.05516 0.00191489 0)
(1.05565 0.00115641 0)
(1.05612 0.000260503 0)
(1.05653 -0.00084053 0)
(1.05685 -0.00214072 0)
(1.05701 -0.00368422 0)
(1.0009 0.0112873 0)
(1.01295 0.01985 0)
(1.02399 0.0174262 0)
(1.0288 0.0150803 0)
(1.03054 0.0144641 0)
(1.03213 0.0138158 0)
(1.03381 0.0129048 0)
(1.03519 0.0121352 0)
(1.03625 0.0115637 0)
(1.03713 0.0110854 0)
(1.03793 0.0106538 0)
(1.03865 0.0102664 0)
(1.03931 0.0099211 0)
(1.03991 0.00961019 0)
(1.04047 0.00932662 0)
(1.041 0.00906549 0)
(1.04149 0.00882321 0)
(1.04195 0.0085968 0)
(1.0424 0.00838367 0)
(1.04283 0.00818157 0)
(1.04324 0.00798858 0)
(1.04364 0.00780303 0)
(1.04403 0.00762349 0)
(1.04442 0.00744871 0)
(1.04479 0.00727753 0)
(1.04517 0.00710891 0)
(1.04554 0.00694177 0)
(1.04591 0.00677505 0)
(1.04628 0.00660754 0)
(1.04665 0.00643803 0)
(1.04703 0.00626505 0)
(1.0474 0.00608711 0)
(1.04778 0.00590233 0)
(1.04816 0.00570885 0)
(1.04855 0.00550411 0)
(1.04895 0.00528564 0)
(1.04935 0.00504996 0)
(1.04976 0.00479334 0)
(1.05018 0.00451112 0)
(1.05061 0.00419687 0)
(1.05105 0.00384481 0)
(1.05151 0.00344255 0)
(1.05197 0.00298378 0)
(1.05245 0.0024444 0)
(1.05293 0.00181778 0)
(1.0534 0.00106211 0)
(1.05384 0.000169812 0)
(1.05423 -0.000913382 0)
(1.05452 -0.00218785 0)
(1.05463 -0.00369115 0)
(1.00078 0.0102133 0)
(1.01157 0.0187509 0)
(1.022 0.0169497 0)
(1.02688 0.0147164 0)
(1.02869 0.0141325 0)
(1.03025 0.0135902 0)
(1.0319 0.0127492 0)
(1.03328 0.0120006 0)
(1.03434 0.0114417 0)
(1.03522 0.0109784 0)
(1.03601 0.010559 0)
(1.03672 0.01018 0)
(1.03737 0.00984085 0)
(1.03796 0.00953504 0)
(1.03851 0.00925572 0)
(1.03902 0.00899807 0)
(1.03951 0.00875863 0)
(1.03997 0.00853453 0)
(1.0404 0.00832327 0)
(1.04082 0.00812264 0)
(1.04122 0.00793075 0)
(1.04162 0.00774596 0)
(1.042 0.00756687 0)
(1.04237 0.00739224 0)
(1.04274 0.00722096 0)
(1.04311 0.007052 0)
(1.04347 0.00688432 0)
(1.04383 0.00671685 0)
(1.0442 0.00654843 0)
(1.04456 0.00637783 0)
(1.04492 0.00620361 0)
(1.04529 0.00602425 0)
(1.04567 0.00583789 0)
(1.04604 0.00564262 0)
(1.04642 0.00543593 0)
(1.04681 0.00521524 0)
(1.04721 0.00497717 0)
(1.04761 0.00471785 0)
(1.04802 0.00443275 0)
(1.04845 0.00411534 0)
(1.04888 0.00375989 0)
(1.04932 0.00335442 0)
(1.04977 0.00289199 0)
(1.05023 0.00235075 0)
(1.05069 0.00172193 0)
(1.05114 0.00096984 0)
(1.05155 8.35757e-05 0)
(1.0519 -0.00098112 0)
(1.05215 -0.00222781 0)
(1.05222 -0.00368953 0)
(1.00067 0.00923322 0)
(1.01031 0.0176722 0)
(1.02013 0.0164625 0)
(1.02504 0.0143611 0)
(1.02693 0.0137994 0)
(1.02846 0.013354 0)
(1.03008 0.0125874 0)
(1.03145 0.0118636 0)
(1.03252 0.0113172 0)
(1.03339 0.0108688 0)
(1.03417 0.0104622 0)
(1.03488 0.010092 0)
(1.03552 0.00975932 0)
(1.0361 0.00945878 0)
(1.03664 0.00918386 0)
(1.03715 0.00892983 0)
(1.03762 0.00869334 0)
(1.03807 0.00847164 0)
(1.0385 0.00826231 0)
(1.03891 0.0080632 0)
(1.0393 0.00787244 0)
(1.03969 0.00768844 0)
(1.04006 0.00750981 0)
(1.04043 0.00733535 0)
(1.04079 0.00716397 0)
(1.04114 0.00699466 0)
(1.0415 0.00682642 0)
(1.04185 0.00665819 0)
(1.04221 0.00648884 0)
(1.04256 0.00631713 0)
(1.04292 0.00614164 0)
(1.04328 0.00596084 0)
(1.04365 0.00577287 0)
(1.04402 0.00557578 0)
(1.04439 0.00536712 0)
(1.04477 0.00514421 0)
(1.04515 0.00490376 0)
(1.04555 0.00464178 0)
(1.04595 0.00435386 0)
(1.04636 0.00403344 0)
(1.04678 0.00367478 0)
(1.04721 0.00326643 0)
(1.04765 0.00280087 0)
(1.04809 0.00225836 0)
(1.04852 0.00162862 0)
(1.04894 0.000881064 0)
(1.04932 2.67096e-06 0)
(1.04963 -0.00104235 0)
(1.04983 -0.00225936 0)
(1.04986 -0.00367782 0)
(1.00058 0.00834246 0)
(1.00917 0.0166182 0)
(1.01837 0.0159629 0)
(1.02329 0.0140138 0)
(1.02526 0.0134667 0)
(1.02676 0.0131077 0)
(1.02834 0.0124189 0)
(1.02972 0.0117239 0)
(1.03078 0.0111902 0)
(1.03165 0.0107564 0)
(1.03242 0.0103632 0)
(1.03312 0.0100024 0)
(1.03375 0.00967642 0)
(1.03433 0.00938133 0)
(1.03486 0.00911097 0)
(1.03536 0.00886069 0)
(1.03583 0.00862726 0)
(1.03627 0.00840805 0)
(1.03669 0.00820072 0)
(1.03709 0.00800317 0)
(1.03748 0.0078136 0)
(1.03785 0.00763041 0)
(1.03822 0.00745226 0)
(1.03858 0.00727797 0)
(1.03893 0.00710649 0)
(1.03928 0.00693684 0)
(1.03963 0.00676804 0)
(1.03997 0.00659905 0)
(1.04032 0.00642875 0)
(1.04067 0.00625593 0)
(1.04102 0.00607916 0)
(1.04137 0.00589691 0)
(1.04173 0.00570733 0)
(1.04209 0.00550844 0)
(1.04245 0.00529782 0)
(1.04282 0.00507273 0)
(1.0432 0.00482993 0)
(1.04358 0.00456538 0)
(1.04398 0.00427474 0)
(1.04437 0.00395152 0)
(1.04478 0.00358991 0)
(1.04519 0.00317905 0)
(1.04561 0.00271098 0)
(1.04603 0.00216786 0)
(1.04644 0.00153849 0)
(1.04683 0.000796517 0)
(1.04718 -7.18436e-05 0)
(1.04744 -0.00109624 0)
(1.04761 -0.00228187 0)
(1.04759 -0.00365517 0)
(1.0005 0.00753596 0)
(1.00813 0.0155932 0)
(1.01673 0.0154498 0)
(1.02163 0.0136734 0)
(1.02368 0.0131362 0)
(1.02515 0.0128522 0)
(1.02669 0.0122431 0)
(1.02806 0.0115812 0)
(1.02913 0.0110609 0)
(1.03 0.0106413 0)
(1.03076 0.0102619 0)