/*--------------------------------*- C++ -*----------------------------------*\
  =========                 |
  \\      /  F ield         | OpenFOAM: The Open Source CFD Toolbox
   \\    /   O peration     | Website:  https://openfoam.org
    \\  /    A nd           | Version:  7
     \\/     M anipulation  |
\*---------------------------------------------------------------------------*/
FoamFile
{
    version     2.0;
    format      ascii;
    class       volVectorField;
    location    "0.47";
    object      wallShearStress;
}
// * * * * * * * * * * * * * * * * * * * * * * * * * * * * * * * * * * * * * //

dimensions      [0 2 -2 0 0 0 0];

internalField   uniform (0 0 0);

boundaryField
{
    velocityInlet
    {
        type            calculated;
        value           uniform (0 0 0);
    }
    pressureOutlet
    {
        type            calculated;
        value           uniform (0 0 0);
    }
    fixedWalls
    {
        type            calculated;
        value           nonuniform List<vector> 
100
(
(-0.00836778 -0.0020532 0)
(-0.00111916 -0.00047613 0)
(-0.00128508 -8.87776e-05 0)
(8.06523e-05 -0.000186833 0)
(0.00101118 -0.000131162 0)
(0.00159303 -7.56193e-05 0)
(0.00181794 -2.44487e-05 0)
(0.00174416 2.04679e-05 0)
(0.00144221 5.19681e-05 0)
(0.000983893 7.13876e-05 0)
(0.000467952 6.6181e-05 0)
(8.41913e-05 3.68374e-05 0)
(-0.00020975 4.54918e-05 0)
(-0.00125904 0.000182099 0)
(-0.00383038 0.000383128 0)
(-0.00717657 0.00045298 0)
(-0.00998629 0.000430672 0)
(-0.0104989 6.55255e-05 0)
(-0.00551881 -0.00112684 0)
(0.00435284 -0.00152408 0)
(0.0119658 -0.00117413 0)
(0.0142075 -0.000281091 0)
(0.0114497 0.000450119 0)
(0.00611889 0.000716004 0)
(0.00077576 0.000609761 0)
(-0.00303938 0.000383304 0)
(-0.00509049 0.000178019 0)
(-0.00587386 5.8335e-05 0)
(-0.00596999 3.42264e-06 0)
(-0.00575553 -2.33854e-05 0)
(-0.00541836 -3.65227e-05 0)
(-0.00510728 -2.90478e-05 0)
(-0.00501104 6.40021e-06 0)
(-0.00518375 4.7035e-05 0)
(-0.00533507 4.53051e-05 0)
(-0.00498687 -4.02862e-05 0)
(-0.00395727 -0.00013411 0)
(-0.00263906 -0.000162278 0)
(-0.0016225 -0.000112266 0)
(-0.00116716 -4.45258e-05 0)
(-0.00113151 -7.43019e-07 0)
(-0.00124571 1.1178e-05 0)
(-0.00133595 3.91087e-06 0)
(-0.00134993 -6.01431e-06 0)
(-0.00131436 -1.08544e-05 0)
(-0.00128305 -8.84517e-06 0)
(-0.00130079 -8.82351e-07 0)
(-0.00138637 8.47573e-06 0)
(-0.00153185 1.6235e-05 0)
(-0.00171236 2.06763e-05 0)
(-0.00189748 2.13829e-05 0)
(-0.00205881 1.8643e-05 0)
(-0.00217416 1.32705e-05 0)
(-0.00223163 6.80231e-06 0)
(-0.0022339 4.13252e-07 0)
(-0.00219995 -3.74919e-06 0)
(-0.0021612 -4.2323e-06 0)
(-0.00215143 -1.44358e-06 0)
(-0.00219753 4.78293e-06 0)
(-0.00231491 1.29404e-05 0)
(-0.00250358 2.14936e-05 0)
(-0.00273985 2.7635e-05 0)
(-0.00296965 2.76831e-05 0)
(-0.00311645 2.05221e-05 0)
(-0.00310211 5.0225e-06 0)
(-0.00286823 -1.72345e-05 0)
(-0.0023853 -4.38755e-05 0)
(-0.00165442 -7.27049e-05 0)
(-0.000741308 -9.51113e-05 0)
(0.000171507 -9.296e-05 0)
(0.000803587 -6.15269e-05 0)
(0.000908874 -6.41513e-06 0)
(0.000470404 4.53099e-05 0)
(-0.000304307 6.71646e-05 0)
(-0.00114299 7.19085e-05 0)
(-0.00185102 5.76999e-05 0)
(-0.00236131 4.00682e-05 0)
(-0.00269156 2.56919e-05 0)
(-0.00289892 1.69257e-05 0)
(-0.00304283 1.36622e-05 0)
(-0.00316224 1.36199e-05 0)
(-0.00325624 1.29859e-05 0)
(-0.00327687 7.61257e-06 0)
(-0.00314709 -6.39525e-06 0)
(-0.00280602 -2.57391e-05 0)
(-0.00225449 -4.44154e-05 0)
(-0.00156336 -5.68797e-05 0)
(-0.000840707 -6.03161e-05 0)
(-0.000208713 -5.28935e-05 0)
(0.000203518 -3.36522e-05 0)
(0.000293348 -6.05094e-06 0)
(4.4832e-05 1.94531e-05 0)
(-0.000434766 3.61369e-05 0)
(-0.00100052 4.18089e-05 0)
(-0.00151623 3.72374e-05 0)
(-0.00195367 3.10486e-05 0)
(-0.00228664 2.60754e-05 0)
(-0.0025113 1.98314e-05 0)
(-0.00275749 1.57244e-05 0)
(-0.0024824 -9.38729e-06 0)
)
;
    }
    bottomWall
    {
        type            calculated;
        value           nonuniform List<vector> 
800
(
(-0.0353488 0.00214398 0)
(-0.0160265 0.000524835 0)
(-0.0106077 0.000100717 0)
(-0.00845577 3.52599e-05 0)
(-0.00748604 1.98594e-05 0)
(-0.00685239 1.61196e-05 0)
(-0.00634492 1.33536e-05 0)
(-0.00593378 1.08978e-05 0)
(-0.005599 9.07674e-06 0)
(-0.00532012 7.76125e-06 0)
(-0.00508256 6.76561e-06 0)
(-0.00487687 5.97941e-06 0)
(-0.00469658 5.34265e-06 0)
(-0.00453695 4.81786e-06 0)
(-0.00439442 4.3792e-06 0)
(-0.0042662 4.00805e-06 0)
(-0.00415011 3.69047e-06 0)
(-0.00404441 3.41612e-06 0)
(-0.00394769 3.17707e-06 0)
(-0.00385879 2.96727e-06 0)
(-0.00377676 2.78178e-06 0)
(-0.00370079 2.61686e-06 0)
(-0.00363021 2.46953e-06 0)
(-0.00356442 2.33701e-06 0)
(-0.00350296 2.21735e-06 0)
(-0.00344538 2.10907e-06 0)
(-0.00339131 2.0103e-06 0)
(-0.00334044 1.92008e-06 0)
(-0.00329249 1.83745e-06 0)
(-0.00324719 1.76142e-06 0)
(-0.00320434 1.69147e-06 0)
(-0.00316373 1.62671e-06 0)
(-0.00312519 1.5666e-06 0)
(-0.00308857 1.51088e-06 0)
(-0.00305372 1.45903e-06 0)
(-0.00302052 1.41058e-06 0)
(-0.00298884 1.36535e-06 0)
(-0.00295859 1.323e-06 0)
(-0.00292968 1.28335e-06 0)
(-0.002902 1.24601e-06 0)
(-0.0028755 1.21082e-06 0)
(-0.00285009 1.17767e-06 0)
(-0.00282571 1.14645e-06 0)
(-0.0028023 1.11703e-06 0)
(-0.0027798 1.0891e-06 0)
(-0.00275817 1.06241e-06 0)
(-0.00273734 1.03769e-06 0)
(-0.00271729 1.01331e-06 0)
(-0.00269795 9.91487e-07 0)
(-0.00267932 9.68088e-07 0)
(-0.00266375 9.48874e-07 0)
(-0.00265088 9.37913e-07 0)
(-0.00263819 9.23902e-07 0)
(-0.00262569 9.09197e-07 0)
(-0.00261338 8.95155e-07 0)
(-0.00260126 8.81856e-07 0)
(-0.00258932 8.69104e-07 0)
(-0.00257755 8.56419e-07 0)
(-0.00256595 8.43829e-07 0)
(-0.00255452 8.31826e-07 0)
(-0.00254324 8.2007e-07 0)
(-0.00253213 8.08389e-07 0)
(-0.00252118 7.97281e-07 0)
(-0.00251037 7.86245e-07 0)
(-0.00249971 7.75277e-07 0)
(-0.00248921 7.64709e-07 0)
(-0.00247884 7.54371e-07 0)
(-0.00246861 7.44096e-07 0)
(-0.00245852 7.34216e-07 0)
(-0.00244856 7.2456e-07 0)
(-0.00243874 7.14963e-07 0)
(-0.00242904 7.05589e-07 0)
(-0.00241947 6.96603e-07 0)
(-0.00241001 6.87671e-07 0)
(-0.00240069 6.78624e-07 0)
(-0.00239148 6.70128e-07 0)
(-0.00238238 6.61682e-07 0)
(-0.0023734 6.53282e-07 0)
(-0.00236454 6.45264e-07 0)
(-0.00235578 6.3729e-07 0)
(-0.00234713 6.29527e-07 0)
(-0.00233858 6.21806e-07 0)
(-0.00233014 6.14128e-07 0)
(-0.0023218 6.06823e-07 0)
(-0.00231356 5.99558e-07 0)
(-0.00230542 5.92497e-07 0)
(-0.00229737 5.85475e-07 0)
(-0.00228942 5.78489e-07 0)
(-0.00228156 5.71871e-07 0)
(-0.00227379 5.65288e-07 0)
(-0.00226611 5.5874e-07 0)
(-0.00225852 5.52225e-07 0)
(-0.00225102 5.4591e-07 0)
(-0.0022436 5.39793e-07 0)
(-0.00223626 5.33873e-07 0)
(-0.002229 5.27819e-07 0)
(-0.00222183 5.21795e-07 0)
(-0.00221474 5.16132e-07 0)
(-0.00220772 5.105e-07 0)
(-0.00220078 5.05062e-07 0)
(-0.00219391 4.99485e-07 0)
(-0.00218713 4.93936e-07 0)
(-0.00218041 4.88746e-07 0)
(-0.00217376 4.83582e-07 0)
(-0.00216719 4.7861e-07 0)
(-0.00216068 4.73495e-07 0)
(-0.00215424 4.68404e-07 0)
(-0.00214787 4.63503e-07 0)
(-0.00214157 4.58792e-07 0)
(-0.00213532 4.54103e-07 0)
(-0.00212915 4.49436e-07 0)
(-0.00212303 4.44957e-07 0)
(-0.00211698 4.40332e-07 0)
(-0.00211099 4.35894e-07 0)
(-0.00210506 4.31477e-07 0)
(-0.00209919 4.27245e-07 0)
(-0.00209338 4.23034e-07 0)
(-0.00208763 4.18842e-07 0)
(-0.00208192 4.14835e-07 0)
(-0.00207628 4.10847e-07 0)
(-0.00207069 4.06876e-07 0)
(-0.00206515 4.02757e-07 0)
(-0.00205968 3.98989e-07 0)
(-0.00205424 3.95238e-07 0)
(-0.00204887 3.91504e-07 0)
(-0.00204354 3.87953e-07 0)
(-0.00203826 3.84253e-07 0)
(-0.00203303 3.80568e-07 0)
(-0.00202785 3.77066e-07 0)
(-0.00202272 3.73746e-07 0)
(-0.00201763 3.70273e-07 0)
(-0.00201259 3.66815e-07 0)
(-0.0020076 3.63705e-07 0)
(-0.00200264 3.60443e-07 0)
(-0.00199774 3.5703e-07 0)
(-0.00199288 3.53962e-07 0)
(-0.00198806 3.50911e-07 0)
(-0.00198329 3.47869e-07 0)
(-0.00197855 3.44847e-07 0)
(-0.00197386 3.41829e-07 0)
(-0.0019692 3.38838e-07 0)
(-0.00196459 3.36006e-07 0)
(-0.00196001 3.33219e-07 0)
(-0.00195548 3.30228e-07 0)
(-0.00195099 3.27657e-07 0)
(-0.00194652 3.24826e-07 0)
(-0.00194211 3.22154e-07 0)
(-0.00193772 3.19625e-07 0)
(-0.00193337 3.17014e-07 0)
(-0.00192906 3.14113e-07 0)
(-0.00192544 3.11642e-07 0)
(-0.00192248 3.10276e-07 0)
(-0.00191952 3.08748e-07 0)
(-0.00191655 3.07128e-07 0)
(-0.00191357 3.05315e-07 0)
(-0.0019106 3.03321e-07 0)
(-0.00190762 3.01795e-07 0)
(-0.00190464 3.00056e-07 0)
(-0.00190165 2.98317e-07 0)
(-0.00189866 2.96819e-07 0)
(-0.00189567 2.94876e-07 0)
(-0.00189267 2.93392e-07 0)
(-0.00188966 2.91692e-07 0)
(-0.00188666 2.90002e-07 0)
(-0.00188365 2.88538e-07 0)
(-0.00188064 2.86649e-07 0)
(-0.00187762 2.84983e-07 0)
(-0.0018746 2.83542e-07 0)
(-0.00187158 2.81894e-07 0)
(-0.00186855 2.80043e-07 0)
(-0.00186553 2.78411e-07 0)
(-0.00186249 2.76997e-07 0)
(-0.00185945 2.7538e-07 0)
(-0.00185641 2.73774e-07 0)
(-0.00185337 2.72174e-07 0)
(-0.00185032 2.70583e-07 0)
(-0.00184727 2.69002e-07 0)
(-0.00184422 2.67426e-07 0)
(-0.00184116 2.65861e-07 0)
(-0.0018381 2.64302e-07 0)
(-0.00183504 2.6275e-07 0)
(-0.00183198 2.61016e-07 0)
(-0.00182891 2.59481e-07 0)
(-0.00182584 2.58148e-07 0)
(-0.00182276 2.5663e-07 0)
(-0.00181969 2.5493e-07 0)
(-0.00181661 2.5343e-07 0)
(-0.00181352 2.51938e-07 0)
(-0.00181044 2.5045e-07 0)
(-0.00180735 2.48978e-07 0)
(-0.00180426 2.47504e-07 0)
(-0.00180116 2.46046e-07 0)
(-0.00179807 2.44415e-07 0)
(-0.00179497 2.42972e-07 0)
(-0.00179187 2.41538e-07 0)
(-0.00178877 2.40109e-07 0)
(-0.00178566 2.38694e-07 0)
(-0.00178255 2.37283e-07 0)
(-0.00177943 2.35878e-07 0)
(-0.00177632 2.34317e-07 0)
(-0.0017732 2.32925e-07 0)
(-0.00177008 2.3172e-07 0)
(-0.00176695 2.30186e-07 0)
(-0.00176383 2.28823e-07 0)
(-0.00176069 2.2748e-07 0)
(-0.00175756 2.26136e-07 0)
(-0.00175442 2.24803e-07 0)
(-0.00175129 2.23322e-07 0)
(-0.00174815 2.22163e-07 0)
(-0.001745 2.20862e-07 0)
(-0.00174185 2.1957e-07 0)
(-0.0017387 2.18283e-07 0)
(-0.00173554 2.17017e-07 0)
(-0.00173238 2.15752e-07 0)
(-0.00172922 2.14495e-07 0)
(-0.00172606 2.13254e-07 0)
(-0.00172289 2.12013e-07 0)
(-0.00171972 2.10943e-07 0)
(-0.00171654 2.09729e-07 0)
(-0.00171336 2.08523e-07 0)
(-0.00171017 2.07474e-07 0)
(-0.00170698 2.06286e-07 0)
(-0.00170379 2.05116e-07 0)
(-0.00170059 2.04098e-07 0)
(-0.00169739 2.02924e-07 0)
(-0.00169418 2.01943e-07 0)
(-0.00169096 2.00896e-07 0)
(-0.00168774 1.99835e-07 0)
(-0.00168452 1.9875e-07 0)
(-0.00168129 1.97806e-07 0)
(-0.00167806 1.96717e-07 0)
(-0.00167481 1.96068e-07 0)
(-0.00167157 1.94695e-07 0)
(-0.0016683 1.946e-07 0)
(-0.00166506 1.92354e-07 0)
(-0.00166175 1.9359e-07 0)
(-0.00165853 1.89647e-07 0)
(-0.00165516 1.93762e-07 0)
(-0.00165199 1.85665e-07 0)
(-0.00164849 1.96348e-07 0)
(-0.00164545 1.78422e-07 0)
(-0.00164171 2.03951e-07 0)
(-0.00163896 1.64625e-07 0)
(-0.00163475 2.21704e-07 0)
(-0.00163257 1.37611e-07 0)
(-0.00162752 2.57837e-07 0)
(-0.00162635 8.63874e-08 0)
(-0.00162 3.22308e-07 0)
(-0.00162029 5.29195e-09 0)
(-0.00161224 3.54897e-07 0)
(-0.0353488 -0.00214397 0)
(-0.0160268 -0.000524817 0)
(-0.0106086 -0.000100694 0)
(-0.00845736 -3.5237e-05 0)
(-0.0074884 -1.98349e-05 0)
(-0.00685558 -1.60932e-05 0)
(-0.00634901 -1.33251e-05 0)
(-0.00593883 -1.08667e-05 0)
(-0.00560509 -9.0423e-06 0)
(-0.00532738 -7.72283e-06 0)
(-0.0050911 -6.72275e-06 0)
(-0.00488682 -5.93169e-06 0)
(-0.00470808 -5.28965e-06 0)
(-0.00455013 -4.75936e-06 0)
(-0.00440942 -4.31483e-06 0)
(-0.00428317 -3.93751e-06 0)
(-0.0041692 -3.61351e-06 0)
(-0.00406576 -3.33202e-06 0)
(-0.00397149 -3.08527e-06 0)
(-0.0038852 -2.86697e-06 0)
(-0.00380598 -2.67212e-06 0)
(-0.00373302 -2.49684e-06 0)
(-0.00366568 -2.33771e-06 0)
(-0.00360341 -2.19223e-06 0)
(-0.00354572 -2.05806e-06 0)
(-0.00349223 -1.9332e-06 0)
(-0.00344261 -1.81618e-06 0)
(-0.00339656 -1.70517e-06 0)
(-0.00335385 -1.59872e-06 0)
(-0.00331429 -1.49585e-06 0)
(-0.00327772 -1.39483e-06 0)
(-0.003244 -1.29477e-06 0)
(-0.00321305 -1.19363e-06 0)
(-0.00318481 -1.0909e-06 0)
(-0.00315922 -9.83295e-07 0)
(-0.00313636 -8.7059e-07 0)
(-0.00311617 -7.48506e-07 0)
(-0.00309893 -6.15217e-07 0)
(-0.00308441 -4.68121e-07 0)
(-0.00307355 -2.94493e-07 0)
(-0.0030653 -1.09413e-07 0)
(-0.00306247 1.50651e-07 0)
(-0.00306138 3.83961e-07 0)
(-0.00307 8.05944e-07 0)
(-0.0030773 1.05819e-06 0)
(-0.00310393 1.90912e-06 0)
(-0.00312265 1.9873e-06 0)
(-0.003175 4.40064e-06 0)
(-0.00323855 -4.70362e-06 0)
(-0.00301044 0.000229873 0)
(-4.56427e-05 3.85552e-05 0)
(9.16373e-06 7.71502e-05 0)
(6.63918e-05 -2.3555e-05 0)
(7.58879e-05 -0.000175743 0)
(3.36186e-05 -0.000296203 0)
(-2.71498e-05 -0.000335989 0)
(-7.66859e-05 -0.000290306 0)
(-0.000111145 -0.00019023 0)
(-0.000122494 -5.48178e-05 0)
(-8.39669e-05 9.38507e-05 0)
(-9.54006e-06 0.000212478 0)
(6.5142e-05 0.000234932 0)
(0.000102577 0.00014461 0)
(0.000114339 5.9454e-05 0)
(6.08379e-05 3.57651e-05 0)
(-0.000162209 0.000173152 0)
(-0.000470129 0.000629484 0)
(-0.000588552 0.00128893 0)
(-0.000472713 0.0018203 0)
(-0.000277592 0.00211266 0)
(-9.40553e-05 0.00219882 0)
(5.67398e-05 0.00212318 0)
(0.000161524 0.00194182 0)
(0.000229426 0.00168654 0)
(0.000262689 0.00139279 0)
(0.000271877 0.00108759 0)
(0.000267505 0.000787209 0)
(0.000256974 0.000499575 0)
(0.000243058 0.000227419 0)
(0.000231444 -2.90314e-05 0)
(0.000221146 -0.000271718 0)
(0.000214541 -0.000507295 0)
(0.000206801 -0.000728699 0)
(0.000198944 -0.000939562 0)
(0.000190574 -0.00114215 0)
(0.000181508 -0.0013382 0)
(0.000171057 -0.00152425 0)
(0.000159054 -0.00169921 0)
(0.000145494 -0.00186187 0)
(0.000130479 -0.00201117 0)
(0.000114187 -0.00214622 0)
(9.68031e-05 -0.00226631 0)
(7.85581e-05 -0.00237094 0)
(5.96242e-05 -0.00245984 0)
(4.01841e-05 -0.0025328 0)
(2.03943e-05 -0.00258997 0)
(2.28074e-07 -0.00263127 0)
(-2.01253e-05 -0.002657 0)
(-4.10614e-05 -0.00266775 0)
(-6.32447e-05 -0.00266241 0)
(-8.58468e-05 -0.00264149 0)
(-0.000108321 -0.00260556 0)
(-0.000130556 -0.00255493 0)
(-0.000152658 -0.00249005 0)
(-0.000174774 -0.00241128 0)
(-0.000197003 -0.00231894 0)
(-0.000219377 -0.00221324 0)
(-0.000241801 -0.00209432 0)
(-0.000263969 -0.00196228 0)
(-0.000285162 -0.00181726 0)
(-0.000304069 -0.00165956 0)
(-0.000318794 -0.00149001 0)
(-0.000326844 -0.00131005 0)
(-0.000325218 -0.00112261 0)
(-0.000310982 -0.000931659 0)
(-0.000283393 -0.000742364 0)
(-0.000242179 -0.000558493 0)
(-0.000183117 -0.00038378 0)
(-0.000101087 -0.000227538 0)
(-5.9663e-08 -0.000104148 0)
(0.000107185 -2.16769e-05 0)
(0.000203914 1.83968e-05 0)
(0.000274005 2.03312e-05 0)
(0.000302031 -6.49587e-06 0)
(0.000287518 -4.63527e-05 0)
(0.000238007 -8.82516e-05 0)
(0.000162381 -0.000122655 0)
(7.71912e-05 -0.000142571 0)
(2.2419e-06 -0.000146002 0)
(-4.68279e-05 -0.000140561 0)
(-6.78801e-05 -0.000137509 0)
(-7.14938e-05 -0.000140562 0)
(-6.70389e-05 -0.000143662 0)
(-5.60978e-05 -0.00014074 0)
(-3.89843e-05 -0.000132575 0)
(-1.81805e-05 -0.000124131 0)
(1.76399e-06 -0.000120926 0)
(1.31822e-05 -0.000122708 0)
(1.30314e-05 -0.000124224 0)
(4.79291e-06 -0.000120716 0)
(-5.71131e-06 -0.000112214 0)
(-1.5887e-05 -0.000101119 0)
(-2.53454e-05 -8.81818e-05 0)
(-3.3371e-05 -7.25562e-05 0)
(-3.76264e-05 -5.42495e-05 0)
(-3.53279e-05 -3.54186e-05 0)
(-2.36912e-05 -1.95943e-05 0)
(-1.75436e-06 -1.23203e-05 0)
(2.90914e-05 -1.96887e-05 0)
(6.57888e-05 -4.594e-05 0)
(0.000102569 -9.36042e-05 0)
(0.000131258 -0.000160635 0)
(0.000145403 -0.000240647 0)
(0.000140776 -0.000324917 0)
(0.000116778 -0.000403001 0)
(7.70729e-05 -0.000465467 0)
(2.8239e-05 -0.000506229 0)
(-2.30698e-05 -0.00052298 0)
(-6.98599e-05 -0.000515271 0)
(-0.00010569 -0.000486238 0)
(-0.000125945 -0.000442192 0)
(-0.00012868 -0.000390242 0)
(-0.000115423 -0.000338045 0)
(-9.09402e-05 -0.000292237 0)
(-6.09578e-05 -0.000256323 0)
(-2.94542e-05 -0.000231063 0)
(1.65271e-06 -0.000216436 0)
(2.96816e-05 -0.000211049 0)
(5.09062e-05 -0.000209979 0)
(6.48022e-05 -0.000207404 0)
(7.15151e-05 -0.000202648 0)
(6.43581e-05 -0.000198834 0)
(3.22933e-05 -0.000193384 0)
(-3.08635e-05 -0.000173618 0)
(-0.000116316 -0.000123594 0)
(-0.000203457 -3.90462e-05 0)
(-0.000274119 6.97628e-05 0)
(-0.000321249 0.000188558 0)
(-0.000344957 0.000306611 0)
(-0.000348597 0.000417497 0)
(-0.000336443 0.000517745 0)
(-0.000312332 0.000605589 0)
(-0.000279332 0.000680157 0)
(-0.000239826 0.000740987 0)
(-0.000195745 0.000787824 0)
(-0.000148739 0.000820582 0)
(-0.0001001 0.000839404 0)
(-5.06949e-05 0.00084462 0)
(-1.21701e-06 0.000836481 0)
(4.71768e-05 0.000816283 0)
(9.40767e-05 0.000784563 0)
(0.000139429 0.000741901 0)
(0.000182974 0.000688887 0)
(0.000224422 0.000626016 0)
(0.000263423 0.00055377 0)
(0.000299511 0.000472627 0)
(0.000332059 0.000383174 0)
(0.000360319 0.000286391 0)
(0.000383465 0.000183799 0)
(0.000400908 7.7517e-05 0)
(0.000412594 -3.01766e-05 0)
(0.0004206 -0.000138286 0)
(0.00042709 -0.000247704 0)
(0.000428661 -0.000356359 0)
(0.000425747 -0.000463096 0)
(0.000418627 -0.000567118 0)
(0.000407573 -0.0006677 0)
(0.000392885 -0.000764105 0)
(0.000374887 -0.000855778 0)
(0.000353861 -0.000942239 0)
(0.000330107 -0.00102303 0)
(0.000303943 -0.0010978 0)
(0.00027567 -0.00116627 0)
(0.000245588 -0.00122823 0)
(0.000213975 -0.00128361 0)
(0.000181037 -0.00133235 0)
(0.000146968 -0.00137443 0)
(0.000111963 -0.00140989 0)
(7.61449e-05 -0.00143881 0)
(3.96449e-05 -0.00146125 0)
(2.53904e-06 -0.00147731 0)
(-3.48361e-05 -0.00148704 0)
(-7.30304e-05 -0.00149068 0)
(-0.000112271 -0.0014875 0)
(-0.000151619 -0.00147758 0)
(-0.000190735 -0.00146111 0)
(-0.000229824 -0.00144076 0)
(-0.000268316 -0.00141419 0)
(-0.000305689 -0.00138072 0)
(-0.000341556 -0.00134059 0)
(-0.000375451 -0.00129403 0)
(-0.000406852 -0.0012413 0)
(-0.000435223 -0.0011827 0)
(-0.000459937 -0.00111862 0)
(-0.000480383 -0.00104951 0)
(-0.000495918 -0.000975888 0)
(-0.000505834 -0.000898363 0)
(-0.000509444 -0.000817677 0)
(-0.000506125 -0.000734662 0)
(-0.000495362 -0.000650223 0)
(-0.000476716 -0.000565413 0)
(-0.000450325 -0.000482374 0)
(-0.000416273 -0.000404013 0)
(-0.000375571 -0.000335874 0)
(-0.000332802 -0.000289642 0)
(-0.000298615 -0.000285895 0)
(-0.000295737 -0.000357161 0)
(-0.00036799 -0.0005454 0)
(-0.00057477 -0.000878955 0)
(-0.000918147 -0.00131044 0)
(4.77255e-06 5.94534e-05 0)
(-5.13384e-05 5.85407e-05 0)
(-6.19349e-05 2.39277e-05 0)
(-1.86864e-05 -4.92376e-05 0)
(0.000110806 -0.000204041 0)
(0.000384997 -0.000335086 0)
(0.000658495 -0.000276 0)
(0.000766198 -0.000110096 0)
(0.000737939 2.98895e-05 0)
(0.000626317 0.000143942 0)
(0.000444575 0.000236354 0)
(0.000203675 0.000312001 0)
(-9.11519e-05 0.000355272 0)
(-0.000398515 0.000343793 0)
(-0.000668833 0.000296096 0)
(-0.000892799 0.000240725 0)
(-0.00107568 0.000186063 0)
(-0.00122088 0.000132131 0)
(-0.00132934 7.47827e-05 0)
(-0.00139597 1.16091e-05 0)
(-0.00141881 -5.99063e-05 0)
(-0.00138672 -0.000140217 0)
(-0.0012921 -0.000230385 0)
(-0.00112391 -0.000322993 0)
(-0.000871956 -0.000381521 0)
(-0.000576376 -0.00037065 0)
(-0.000301509 -0.000309043 0)
(-7.42739e-05 -0.000246553 0)
(0.000120598 -0.000202736 0)
(0.000296891 -0.00017087 0)
(0.000455856 -0.000153103 0)
(0.000600178 -0.000140058 0)
(0.000726343 -0.000101251 0)
(0.000809447 -2.48055e-05 0)
(0.000829801 6.84241e-05 0)
(0.00078766 0.000146137 0)
(0.000702563 0.000182815 0)
(0.000609036 0.000177446 0)
(0.000546625 0.000154156 0)
(0.000521864 0.000124069 0)
(0.000529374 6.97762e-05 0)
(0.000575019 -2.24362e-05 0)
(0.000673997 -0.000128628 0)
(0.000820241 -0.000193849 0)
(0.000972649 -0.000196164 0)
(0.00109754 -0.000176071 0)
(0.00120383 -0.00017107 0)
(0.00130822 -0.000167693 0)
(0.00140268 -0.000147465 0)
(0.00147584 -0.000120499 0)
(0.00153134 -9.82978e-05 0)
(0.00157442 -7.78941e-05 0)
(0.00160375 -5.59125e-05 0)
(0.0016175 -3.37315e-05 0)
(0.00161543 -1.26517e-05 0)
(0.00159807 8.07108e-06 0)
(0.00156473 2.93786e-05 0)
(0.00151411 5.15515e-05 0)
(0.00144543 7.49476e-05 0)
(0.00135723 9.97614e-05 0)
(0.00124836 0.000126089 0)
(0.00111742 0.000153844 0)
(0.000963364 0.000182589 0)
(0.000785555 0.000211702 0)
(0.000584003 0.000240173 0)
(0.000359721 0.000266429 0)
(0.000115792 0.00028924 0)
(-0.0001455 0.000306121 0)
(-0.000419617 0.000316763 0)
(-0.000698107 0.000317465 0)
(-0.000973161 0.000309494 0)
(-0.00123743 0.000292035 0)
(-0.00148308 0.00026561 0)
(-0.00170333 0.000232047 0)
(-0.00189334 0.000193716 0)
(-0.00205042 0.000153475 0)
(-0.00217448 0.000114193 0)
(-0.00226751 7.76775e-05 0)
(-0.00233314 4.49735e-05 0)
(-0.00237557 1.69392e-05 0)
(-0.00239979 -8.26979e-06 0)
(-0.00240724 -3.41296e-05 0)
(-0.00240018 -6.13187e-05 0)
(-0.00237546 -0.000106688 0)
(-0.00231624 -0.000164553 0)
(-0.00222863 -0.000259714 0)
(-0.00204638 -0.000399684 0)
(-0.00180682 -0.000551441 0)
(-0.0013791 -0.000876818 0)
(-0.000519862 -0.000896269 0)
(0.000103508 -0.000288704 0)
(0.000286885 6.97094e-05 0)
(0.000376405 0.000119545 0)
(0.000374696 0.000153177 0)
(0.000264154 0.000149976 0)
(0.000163061 0.000131304 0)
(8.7113e-05 9.68305e-05 0)
(4.12296e-05 6.49865e-05 0)
(1.97599e-05 4.38581e-05 0)
(-4.14999e-06 3.8058e-05 0)
(2.7454e-05 2.66914e-05 0)
(-1.12757e-05 3.51614e-05 0)
(-4.45514e-05 -2.55374e-05 0)
(-6.7067e-05 -0.000124274 0)
(-6.90882e-05 -0.000243372 0)
(-4.8042e-05 -0.000347054 0)
(-1.04182e-05 -0.000407546 0)
(3.08014e-05 -0.000406229 0)
(6.37712e-05 -0.000347101 0)
(8.55738e-05 -0.000245787 0)
(9.80144e-05 -0.000120931 0)
(0.000103281 1.25674e-05 0)
(0.000103507 0.000146475 0)
(9.69547e-05 0.00026463 0)
(8.73764e-05 0.000361573 0)
(7.69262e-05 0.000445075 0)
(6.13801e-05 0.000522861 0)
(2.81134e-05 0.000594342 0)
(-2.46427e-05 0.000638688 0)
(-7.20261e-05 0.000628904 0)
(-9.27092e-05 0.000567308 0)
(-9.86719e-05 0.000481247 0)
(-0.000105582 0.000370895 0)
(-0.000117485 0.000236142 0)
(-0.000134731 7.60784e-05 0)
(-0.000157271 -0.000115889 0)
(-0.000179103 -0.000344136 0)
(-0.000185813 -0.000595641 0)
(-0.000158141 -0.000842666 0)
(-8.39402e-05 -0.00103748 0)
(3.14989e-05 -0.00113121 0)
(0.000168066 -0.00109168 0)
(0.000285428 -0.000914835 0)
(0.000344268 -0.000629745 0)
(0.000322822 -0.000306938 0)
(0.00023372 -2.7041e-05 0)
(0.000114528 0.000161286 0)
(-8.25538e-06 0.000244418 0)
(-0.00011622 0.000204818 0)
(-0.000193208 0.000112552 0)
(-0.000234549 -3.09419e-06 0)
(-0.000220265 -0.000153596 0)
(-0.000144424 -0.000326273 0)
(-2.46671e-05 -0.000468306 0)
(8.94777e-05 -0.000624278 0)
(0.000353907 -0.00076556 0)
(0.000701445 -0.000659805 0)
(0.000677055 -0.000286747 0)
(0.000228384 -2.7158e-05 0)
(-0.000301608 -5.1485e-05 0)
(-0.000654779 -0.00023593 0)
(-0.000819884 -0.000439333 0)
(-0.000846725 -0.00059077 0)
(-0.000728253 -0.000645226 0)
(-0.000490645 -0.000569421 0)
(-0.000169939 -0.000350537 0)
(0.000227647 5.43919e-06 0)
(0.000714867 0.000475445 0)
(0.00127957 0.00115087 0)
(0.00143887 0.0020791 0)
(0.000907162 0.00274934 0)
(0.000532236 0.00291813 0)
(0.000569972 0.00310385 0)
(0.000468394 0.00340323 0)
(0.000318018 0.00355523 0)
(0.000292703 0.00366375 0)
(0.000228529 0.00378942 0)
(0.000160611 0.00385726 0)
(0.000137392 0.003908 0)
(0.000101503 0.00395738 0)
(7.1327e-05 0.00398285 0)
(5.97982e-05 0.00400248 0)
(4.55676e-05 0.00402128 0)
(3.58277e-05 0.0040316 0)
(3.45575e-05 0.00404099 0)
(3.3487e-05 0.00405145 0)
(3.43822e-05 0.00405993 0)
(3.84e-05 0.00406888 0)
(4.17744e-05 0.00407881 0)
(4.39602e-05 0.0040877 0)
(4.50402e-05 0.00409529 0)
(4.3279e-05 0.00410099 0)
(3.8204e-05 0.00410294 0)
(3.04319e-05 0.00410019 0)
(2.00811e-05 0.00409235 0)
(7.59912e-06 0.00407867 0)
(-5.99953e-06 0.00405903 0)
(-1.99318e-05 0.00403381 0)
(-3.36014e-05 0.00400354 0)
(-4.64786e-05 0.0039689 0)
(-5.82371e-05 0.00393071 0)
(-6.87593e-05 0.00388973 0)
(-7.80097e-05 0.00384665 0)
(-8.5985e-05 0.00380211 0)
(-9.27178e-05 0.00375669 0)
(-9.82294e-05 0.00371089 0)
(-0.000102499 0.00366521 0)
(-0.00010547 0.00362011 0)
(-0.000107047 0.00357604 0)
(-0.00010711 0.00353344 0)
(-0.000105498 0.00349272 0)
(-0.000102039 0.0034543 0)
(-9.65556e-05 0.00341851 0)
(-8.8881e-05 0.0033857 0)
(-7.88537e-05 0.00335608 0)
(-6.63303e-05 0.00332987 0)
(-5.12359e-05 0.00330725 0)
(-3.35945e-05 0.00328837 0)
(-1.36017e-05 0.0032734 0)
(8.33693e-06 0.00326248 0)
(3.15395e-05 0.00325573 0)
(5.50017e-05 0.00325317 0)
(7.74389e-05 0.00325462 0)
(9.7466e-05 0.0032597 0)
(0.000113355 0.00326811 0)
(0.000122964 0.00327913 0)
(0.000124193 0.0032914 0)
(0.000115228 0.00330281 0)
(9.55045e-05 0.00331007 0)
(6.66475e-05 0.00330962 0)
(3.23162e-05 0.00329893 0)
(-2.99687e-06 0.00327739 0)
(-3.54338e-05 0.00324651 0)
(-6.30689e-05 0.00320901 0)
(-8.60641e-05 0.00316737 0)
(-0.000105768 0.00312291 0)
(-0.000123589 0.00307584 0)
(-0.000140351 0.00302581 0)
(-0.000156289 0.0029726 0)
(-0.000171348 0.00291628 0)
(-0.000185502 0.00285716 0)
(-0.000198838 0.00279556 0)
(-0.000211459 0.00273169 0)
(-0.000223457 0.00266573 0)
(-0.000234907 0.0025978 0)
(-0.000245838 0.00252807 0)
(-0.000256297 0.0024567 0)
(-0.00026635 0.00238383 0)
(-0.000276022 0.00230956 0)
(-0.00028536 0.00223403 0)
(-0.000294388 0.00215732 0)
(-0.00030312 0.00207955 0)
(-0.000311602 0.00200082 0)
(-0.000319853 0.00192119 0)
(-0.000327875 0.00184074 0)
(-0.000335682 0.00175956 0)
(-0.000343282 0.00167771 0)
(-0.000350684 0.00159527 0)
(-0.000357902 0.00151231 0)
(-0.000364916 0.00142886 0)
(-0.000371718 0.00134502 0)
(-0.000378322 0.00126085 0)
(-0.000384723 0.00117641 0)
(-0.000390904 0.00109177 0)
(-0.000396882 0.00100701 0)
(-0.000402652 0.000922154 0)
(-0.000408197 0.000837287 0)
(-0.000413515 0.000752473 0)
(-0.000418598 0.000667779 0)
(-0.000423431 0.000583281 0)
(-0.000428039 0.000499082 0)
(-0.000435005 0.000417623 0)
(-0.000445552 0.000338348 0)
(-0.000456289 0.000257309 0)
(-0.0004664 0.000174133 0)
(-0.0004747 8.89892e-05 0)
(-0.000480345 2.9032e-06 0)
(-0.000483124 -8.27439e-05 0)
(-0.00048312 -0.000166582 0)
(-0.000481162 -0.000247578 0)
(-0.000478449 -0.000325586 0)
(-0.000475683 -0.00040096 0)
(-0.000473274 -0.000474177 0)
(-0.000471482 -0.000545719 0)
(-0.000470399 -0.000615978 0)
(-0.000472155 -0.000688294 0)
(-0.000474787 -0.00076043 0)
(-0.000477906 -0.000831486 0)
(-0.000481859 -0.000901463 0)
(-0.000487119 -0.000970309 0)
(-0.000494342 -0.00103793 0)
(-0.000504457 -0.0011042 0)
(-0.000518702 -0.00116901 0)
(-0.000538646 -0.00123241 0)
(-0.000566151 -0.00129482 0)
(-0.0006031 -0.00135739 0)
(-0.000651039 -0.00142224 0)
(-0.000710687 -0.0014925 0)
(-0.000781468 -0.00157202 0)
(-0.000861331 -0.00166449 0)
(-0.000947007 -0.00177243 0)
(-0.00103472 -0.00189622 0)
(-0.00112116 -0.00203368 0)
(-0.00120497 -0.00218008 0)
(-0.0012863 -0.00233231 0)
(-0.00136984 -0.00247291 0)
(-0.00146004 -0.00265315 0)
(-0.00154513 -0.00269095 0)
(-0.00167913 -0.00305896 0)
(-0.00158435 -0.00260581 0)
)
;
    }
    frontAndBack
    {
        type            empty;
    }
}


// ************************************************************************* //
