/*--------------------------------*- C++ -*----------------------------------*\
  =========                 |
  \\      /  F ield         | OpenFOAM: The Open Source CFD Toolbox
   \\    /   O peration     | Website:  https://openfoam.org
    \\  /    A nd           | Version:  7
     \\/     M anipulation  |
\*---------------------------------------------------------------------------*/
FoamFile
{
    version     2.0;
    format      ascii;
    class       surfaceScalarField;
    location    "0.43";
    object      ddtCorrDdt0(phi);
}
// * * * * * * * * * * * * * * * * * * * * * * * * * * * * * * * * * * * * * //

dimensions      [0 3 -2 0 0 0 0];

internalField   nonuniform List<scalar> 
139350
(
-7.37923e-10
7.36823e-10
-2.09426e-09
1.35623e-09
-3.69167e-09
1.59518e-09
-5.1736e-09
1.48136e-09
-6.43742e-09
1.26272e-09
-7.48702e-09
1.04871e-09
-8.38293e-09
8.94962e-10
-9.22063e-09
8.37715e-10
-1.00894e-08
8.67938e-10
-1.10399e-08
9.51784e-10
-1.20994e-08
1.05875e-09
-1.32683e-08
1.16985e-09
-1.45433e-08
1.27454e-09
-1.59151e-08
1.37155e-09
-1.73768e-08
1.46256e-09
-1.89341e-08
1.55561e-09
-2.05882e-08
1.65702e-09
-2.23663e-08
1.77454e-09
-2.42753e-08
1.91219e-09
-2.63533e-08
2.07387e-09
-2.86162e-08
2.26404e-09
-3.1102e-08
2.48339e-09
-3.38371e-08
2.73572e-09
-3.68637e-08
3.02467e-09
-4.02148e-08
3.35373e-09
-4.39487e-08
3.73015e-09
-4.81065e-08
4.16093e-09
-5.27664e-08
4.65543e-09
-5.79932e-08
5.22788e-09
-6.38871e-08
5.89094e-09
-7.05497e-08
6.66295e-09
-7.81167e-08
7.56428e-09
-8.67318e-08
8.61728e-09
-9.65875e-08
9.85088e-09
-1.07878e-07
1.12931e-08
-1.20864e-07
1.29805e-08
-1.35808e-07
1.49444e-08
-1.53047e-07
1.72344e-08
-1.72889e-07
1.98408e-08
-1.95777e-07
2.28846e-08
-2.21901e-07
2.61238e-08
-2.5186e-07
2.99538e-08
-2.85154e-07
3.32962e-08
-3.2253e-07
3.73652e-08
-3.61072e-07
3.85445e-08
-4.01236e-07
4.01497e-08
-4.30906e-07
2.96708e-08
-4.50425e-07
1.95111e-08
-3.84635e-07
-6.57828e-08
3.04063e-08
-4.15038e-07
-1.0888e-09
1.82428e-09
-4.04641e-09
4.31372e-09
-8.01145e-09
5.55787e-09
-1.17145e-08
5.18379e-09
-1.46358e-08
4.18282e-09
-1.68008e-08
3.21273e-09
-1.84371e-08
2.53026e-09
-1.98528e-08
2.2535e-09
-2.13224e-08
2.33663e-09
-2.30066e-08
2.63734e-09
-2.4971e-08
3.02235e-09
-2.72082e-08
3.4081e-09
-2.96869e-08
3.7528e-09
-3.23672e-08
4.05144e-09
-3.52209e-08
4.31731e-09
-3.82481e-08
4.58097e-09
-4.14578e-08
4.86991e-09
-4.48951e-08
5.20786e-09
-4.85915e-08
5.61192e-09
-5.26147e-08
6.09274e-09
-5.70118e-08
6.66231e-09
-6.18544e-08
7.32347e-09
-6.7204e-08
8.08607e-09
-7.31425e-08
8.96098e-09
-7.97472e-08
9.96143e-09
-8.71289e-08
1.11077e-08
-9.53909e-08
1.24262e-08
-1.04688e-07
1.39473e-08
-1.15176e-07
1.57171e-08
-1.27069e-07
1.77807e-08
-1.40605e-07
2.01998e-08
-1.56088e-07
2.30448e-08
-1.73866e-07
2.63976e-08
-1.94381e-07
3.03604e-08
-2.18127e-07
3.50414e-08
-2.45738e-07
4.05858e-08
-2.77914e-07
4.71204e-08
-3.1555e-07
5.48658e-08
-3.59583e-07
6.38719e-08
-4.11268e-07
7.45656e-08
-4.71669e-07
8.65252e-08
-5.42492e-07
1.00771e-07
-6.24313e-07
1.1512e-07
-7.1923e-07
1.3227e-07
-8.2487e-07
1.44186e-07
-9.42861e-07
1.58126e-07
-1.0582e-06
1.45008e-07
-1.1644e-06
1.2571e-07
-1.18024e-06
-4.99431e-08
-2.37082e-07
-9.12743e-07
-8.03206e-10
2.62597e-09
-4.03552e-09
7.54589e-09
-9.20896e-09
1.07289e-08
-1.45991e-08
1.05732e-08
-1.8951e-08
8.53351e-09
-2.19741e-08
6.2348e-09
-2.39324e-08
4.48755e-09
-2.53106e-08
3.63184e-09
-2.65873e-08
3.61231e-09
-2.80834e-08
4.13502e-09
-2.99533e-08
4.89141e-09
-3.22148e-08
5.67057e-09
-3.48232e-08
6.36074e-09
-3.77098e-08
6.93768e-09
-4.08194e-08
7.42806e-09
-4.41347e-08
7.89422e-09
-4.76583e-08
8.39688e-09
-5.14382e-08
8.98366e-09
-5.55147e-08
9.6918e-09
-5.99676e-08
1.05411e-08
-6.48572e-08
1.15531e-08
-7.02691e-08
1.27328e-08
-7.62795e-08
1.40973e-08
-8.29866e-08
1.56658e-08
-9.04867e-08
1.74647e-08
-9.89135e-08
1.95301e-08
-1.08398e-07
2.19143e-08
-1.19131e-07
2.4675e-08
-1.31313e-07
2.78997e-08
-1.45212e-07
3.16765e-08
-1.61135e-07
3.61238e-08
-1.79473e-07
4.13795e-08
-2.00678e-07
4.76052e-08
-2.25329e-07
5.50056e-08
-2.54081e-07
6.37963e-08
-2.87787e-07
7.42863e-08
-3.27396e-07
8.67293e-08
-3.74154e-07
1.01618e-07
-4.29387e-07
1.19104e-07
-4.94893e-07
1.40067e-07
-5.72384e-07
1.64017e-07
-6.64329e-07
1.92709e-07
-7.72416e-07
2.2321e-07
-8.99729e-07
2.5957e-07
-1.04559e-06
2.90049e-07
-1.21269e-06
3.25216e-07
-1.38941e-06
3.21722e-07
-1.56088e-06
2.97172e-07
-1.67521e-06
6.43995e-08
-5.16185e-07
-1.3961e-06
-4.33065e-10
3.05737e-09
-3.05105e-09
1.01637e-08
-8.15544e-09
1.58308e-08
-1.43991e-08
1.6816e-08
-2.00762e-08
1.42093e-08
-2.42644e-08
1.0422e-08
-2.68808e-08
7.10277e-09
-2.83582e-08
5.10945e-09
-2.93037e-08
4.5568e-09
-3.02281e-08
5.06105e-09
-3.14515e-08
6.1139e-09
-3.3096e-08
7.31613e-09
-3.51622e-08
8.4265e-09
-3.75857e-08
9.36065e-09
-4.02954e-08
1.01391e-08
-4.32541e-08
1.08507e-08
-4.64466e-08
1.1593e-08
-4.99102e-08
1.24429e-08
-5.36783e-08
1.34635e-08
-5.78283e-08
1.46865e-08
-6.24193e-08
1.61452e-08
-6.75371e-08
1.7848e-08
-7.32593e-08
1.98204e-08
-7.9687e-08
2.20911e-08
-8.69206e-08
2.47016e-08
-9.51014e-08
2.77062e-08
-1.0437e-07
3.11863e-08
-1.1493e-07
3.52301e-08
-1.27e-07
3.99706e-08
-1.40871e-07
4.55441e-08
-1.56878e-07
5.21315e-08
-1.75448e-07
5.99459e-08
-1.97076e-07
6.92366e-08
-2.22404e-07
8.03268e-08
-2.52153e-07
9.3549e-08
-2.87282e-07
1.09408e-07
-3.28847e-07
1.28295e-07
-3.78265e-07
1.51032e-07
-4.37059e-07
1.77895e-07
-5.07287e-07
2.10292e-07
-5.91029e-07
2.4776e-07
-6.91127e-07
2.928e-07
-8.09963e-07
3.4205e-07
-9.51147e-07
4.00739e-07
-1.11534e-06
4.54249e-07
-1.30534e-06
5.15197e-07
-1.51459e-06
5.30969e-07
-1.72e-06
5.02581e-07
-1.88778e-06
2.32188e-07
-6.75549e-07
-1.72841e-06
-2.4974e-10
3.30535e-09
-2.05e-09
1.19638e-08
-6.24866e-09
2.00269e-08
-1.234e-08
2.29066e-08
-1.88301e-08
2.06981e-08
-2.436e-08
1.59508e-08
-2.82554e-08
1.0997e-08
-3.05402e-08
7.39456e-09
-3.16909e-08
5.70645e-09
-3.23031e-08
5.67488e-09
-3.28788e-08
6.68866e-09
-3.37213e-08
8.15972e-09
-3.49632e-08
9.66798e-09
-3.66137e-08
1.10107e-08
-3.86295e-08
1.21563e-08
-4.09725e-08
1.31914e-08
-4.36133e-08
1.42375e-08
-4.6572e-08
1.53971e-08
-4.98646e-08
1.67597e-08
-5.35539e-08
1.8371e-08
-5.76859e-08
2.02783e-08
-6.23355e-08
2.24949e-08
-6.7571e-08
2.50569e-08
-7.3487e-08
2.80046e-08
-8.01794e-08
3.13975e-08
-8.77887e-08
3.53107e-08
-9.64571e-08
3.98581e-08
-1.06393e-07
4.51614e-08
-1.17823e-07
5.14014e-08
-1.31048e-07
5.87657e-08
-1.46415e-07
6.74995e-08
-1.64368e-07
7.78954e-08
-1.8542e-07
9.02914e-08
-2.10236e-07
1.05137e-07
-2.39567e-07
1.22883e-07
-2.7441e-07
1.44244e-07
-3.15867e-07
1.69752e-07
-3.65419e-07
2.00579e-07
-4.24677e-07
2.37151e-07
-4.95785e-07
2.81396e-07
-5.81016e-07
3.32991e-07
-6.83313e-07
3.9509e-07
-8.05465e-07
4.64206e-07
-9.51116e-07
5.46377e-07
-1.12213e-06
6.25266e-07
-1.32007e-06
7.13115e-07
-1.54337e-06
7.54273e-07
-1.76434e-06
7.23549e-07
-1.95138e-06
4.19241e-07
-7.07644e-07
-1.91928e-06
-2.43114e-10
3.54662e-09
-1.48516e-09
1.32057e-08
-4.61839e-09
2.31575e-08
-9.87302e-09
2.81604e-08
-1.64161e-08
2.72398e-08
-2.29515e-08
2.24851e-08
-2.83806e-08
1.64249e-08
-3.21587e-08
1.1173e-08
-3.43414e-08
7.88813e-09
-3.53649e-08
6.70001e-09
-3.57898e-08
7.11266e-09
-3.60897e-08
8.46073e-09
-3.65841e-08
1.0162e-08
-3.74312e-08
1.18573e-08
-3.86826e-08
1.34091e-08
-4.03465e-08
1.4853e-08
-4.2406e-08
1.63009e-08
-4.48754e-08
1.78619e-08
-4.7755e-08
1.9643e-08
-5.10884e-08
2.16996e-08
-5.49012e-08
2.40923e-08
-5.92487e-08
2.68397e-08
-6.41804e-08
2.99897e-08
-6.97748e-08
3.35963e-08
-7.61142e-08
3.77405e-08
-8.33306e-08
4.25223e-08
-9.15614e-08
4.80923e-08
-1.01015e-07
5.46103e-08
-1.11921e-07
6.23083e-08
-1.24588e-07
7.14292e-08
-1.39372e-07
8.22836e-08
-1.56727e-07
9.52472e-08
-1.77178e-07
1.10745e-07
-2.01405e-07
1.29358e-07
-2.30172e-07
1.51653e-07
-2.64492e-07
1.78557e-07
-3.05492e-07
2.10751e-07
-3.54662e-07
2.49744e-07
-4.13665e-07
2.96153e-07
-4.8464e-07
3.52367e-07
-5.69977e-07
4.18329e-07
-6.72563e-07
4.97668e-07
-7.95485e-07
5.87131e-07
-9.42085e-07
6.92962e-07
-1.11536e-06
7.98544e-07
-1.3153e-06
9.13041e-07
-1.5434e-06
9.82373e-07
-1.77302e-06
9.53157e-07
-1.96944e-06
6.15677e-07
-6.40352e-07
-2.03672e-06
-3.0109e-10
3.8458e-09
-1.33694e-09
1.42413e-08
-3.72104e-09
2.55389e-08
-8.01119e-09
3.24497e-08
-1.40472e-08
3.32744e-08
-2.0971e-08
2.94078e-08
-2.76435e-08
2.30962e-08
-3.31077e-08
1.66375e-08
-3.6909e-08
1.16883e-08
-3.91093e-08
8.90202e-09
-4.01214e-08
8.12388e-09
-4.0463e-08
8.8034e-09
-4.06031e-08
1.03018e-08
-4.0874e-08
1.21276e-08
-4.14736e-08
1.40102e-08
-4.25118e-08
1.58888e-08
-4.40288e-08
1.78219e-08
-4.6064e-08
1.98925e-08
-4.86213e-08
2.2204e-08
-5.17352e-08
2.48087e-08
-5.54146e-08
2.77727e-08
-5.96937e-08
3.11162e-08
-6.45984e-08
3.48955e-08
-7.01829e-08
3.91782e-08
-7.65064e-08
4.40677e-08
-8.36814e-08
4.96924e-08
-9.18302e-08
5.62446e-08
-1.01153e-07
6.39281e-08
-1.11875e-07
7.30315e-08
-1.24308e-07
8.38588e-08
-1.38813e-07
9.67893e-08
-1.55856e-07
1.12286e-07
-1.75969e-07
1.30862e-07
-1.99845e-07
1.53229e-07
-2.2826e-07
1.8007e-07
-2.62232e-07
2.12522e-07
-3.02905e-07
2.51425e-07
-3.51758e-07
2.98592e-07
-4.10492e-07
3.54885e-07
-4.8119e-07
4.23061e-07
-5.66332e-07
5.03472e-07
-6.68667e-07
5.99995e-07
-7.91522e-07
7.09989e-07
-9.37845e-07
8.39272e-07
-1.11143e-06
9.72128e-07
-1.31149e-06
1.11309e-06
-1.53998e-06
1.21086e-06
-1.77559e-06
1.18876e-06
-1.98387e-06
8.23975e-07
-4.93558e-07
-2.13066e-06
-3.48476e-10
4.19231e-09
-1.40221e-09
1.52949e-08
-3.46065e-09
2.75946e-08
-7.06274e-09
3.60508e-08
-1.24538e-08
3.8664e-08
-1.92724e-08
3.62253e-08
-2.66357e-08
3.04583e-08
-3.34757e-08
2.34777e-08
-3.89689e-08
1.71805e-08
-4.27626e-08
1.26974e-08
-4.49738e-08
1.03343e-08
-4.60033e-08
9.8339e-09
-4.63543e-08
1.06525e-08
-4.64796e-08
1.22524e-08
-4.6721e-08
1.42532e-08
-4.73156e-08
1.6481e-08
-4.83982e-08
1.89084e-08
-5.00695e-08
2.15591e-08
-5.23679e-08
2.45061e-08
-5.53428e-08
2.77788e-08
-5.90038e-08
3.14348e-08
-6.33755e-08
3.54853e-08
-6.84657e-08
3.99868e-08
-7.4304e-08
4.50139e-08
-8.09209e-08
5.06883e-08
-8.83996e-08
5.71661e-08
-9.68346e-08
6.46832e-08
-1.06404e-07
7.34923e-08
-1.17316e-07
8.39447e-08
-1.29874e-07
9.64134e-08
-1.44436e-07
1.11352e-07
-1.61469e-07
1.29316e-07
-1.81514e-07
1.5091e-07
-2.05266e-07
1.76975e-07
-2.33512e-07
2.08319e-07
-2.67264e-07
2.46268e-07
-3.07683e-07
2.91842e-07
-3.56212e-07
3.47116e-07
-4.14581e-07
4.13252e-07
-4.8479e-07
4.93266e-07
-5.69369e-07
5.88053e-07
-6.7091e-07
7.01529e-07
-7.92851e-07
8.31934e-07
-9.37907e-07
9.84314e-07
-1.11004e-06
1.14426e-06
-1.30883e-06
1.31187e-06
-1.53507e-06
1.4371e-06
-1.77411e-06
1.42779e-06
-1.99844e-06
1.04832e-06
-2.76311e-07
-2.21567e-06
-3.67874e-10
4.55817e-09
-1.50874e-09
1.64355e-08
-3.53998e-09
2.96231e-08
-6.84329e-09
3.93532e-08
-1.17711e-08
4.35904e-08
-1.83062e-08
4.27593e-08
-2.5897e-08
3.80479e-08
-3.3595e-08
3.1176e-08
-4.04389e-08
2.40234e-08
-4.57803e-08
1.80407e-08
-4.94304e-08
1.39834e-08
-5.1578e-08
1.19826e-08
-5.26439e-08
1.17181e-08
-5.31055e-08
1.27135e-08
-5.33909e-08
1.45402e-08
-5.38435e-08
1.69312e-08
-5.46969e-08
1.97659e-08
-5.61323e-08
2.299e-08
-5.82473e-08
2.66248e-08
-6.1132e-08
3.06588e-08
-6.48211e-08
3.51249e-08
-6.93512e-08
4.00128e-08
-7.47294e-08
4.53661e-08
-8.09725e-08
5.12545e-08
-8.80878e-08
5.78073e-08
-9.61266e-08
6.52002e-08
-1.05148e-07
7.37077e-08
-1.15293e-07
8.36323e-08
-1.26737e-07
9.53905e-08
-1.39759e-07
1.09431e-07
-1.54695e-07
1.2629e-07
-1.72003e-07
1.4662e-07
-1.92215e-07
1.71125e-07
-2.1602e-07
2.00774e-07
-2.44204e-07
2.36505e-07
-2.77761e-07
2.79819e-07
-3.17852e-07
3.31933e-07
-3.65873e-07
3.95133e-07
-4.23551e-07
4.70929e-07
-4.92789e-07
5.625e-07
-5.761e-07
6.71365e-07
-6.75947e-07
8.01369e-07
-7.95677e-07
9.51667e-07
-9.37996e-07
1.12662e-06
-1.10652e-06
1.31278e-06
-1.30175e-06
1.50709e-06
-1.52336e-06
1.65871e-06
-1.7626e-06
1.66703e-06
-2.00443e-06
1.29016e-06
5.4464e-09
-2.28618e-06
-3.70967e-10
4.92709e-09
-1.5914e-09
1.76557e-08
-3.71839e-09
3.17473e-08
-7.00428e-09
4.26381e-08
-1.17535e-08
4.83381e-08
-1.80845e-08
4.90891e-08
-2.56901e-08
4.56522e-08
-3.38151e-08
3.93014e-08
-4.15324e-08
3.17396e-08
-4.80678e-08
2.45779e-08
-5.30215e-08
1.89364e-08
-5.63774e-08
1.53396e-08
-5.84178e-08
1.37583e-08
-5.95654e-08
1.38606e-08
-6.0262e-08
1.52384e-08
-6.09046e-08
1.75716e-08
-6.17975e-08
2.06628e-08
-6.31926e-08
2.43804e-08
-6.52506e-08
2.86865e-08
-6.81154e-08
3.3519e-08
-7.18649e-08
3.88754e-08
-7.65688e-08
4.47141e-08
-8.22553e-08
5.10538e-08
-8.89491e-08
5.79457e-08
-9.66501e-08
6.5512e-08
-1.05388e-07
7.39335e-08
-1.15188e-07
8.35111e-08
-1.2615e-07
9.45892e-08
-1.38404e-07
1.07646e-07
-1.52185e-07
1.23209e-07
-1.67792e-07
1.41898e-07
-1.85649e-07
1.64474e-07
-2.06263e-07
1.91742e-07
-2.30297e-07
2.24802e-07
-2.58518e-07
2.64729e-07
-2.91884e-07
3.13179e-07
-3.31535e-07
3.71583e-07
-3.788e-07
4.42393e-07
-4.35362e-07
5.2749e-07
-5.03021e-07
6.30155e-07
-5.8418e-07
7.52525e-07
-6.8121e-07
8.98391e-07
-7.9718e-07
1.06764e-06
-9.34896e-07
1.26432e-06
-1.09743e-06
1.47532e-06
-1.28616e-06
1.69581e-06
-1.50051e-06
1.87306e-06
-1.73663e-06
1.90315e-06
-1.99416e-06
1.54771e-06
3.4448e-07
-2.33318e-06
-3.71481e-10
5.29647e-09
-1.64923e-09
1.89332e-08
-3.8926e-09
3.39878e-08
-7.29291e-09
4.60375e-08
-1.20799e-08
5.31236e-08
-1.83796e-08
5.53877e-08
-2.59965e-08
5.32678e-08
-3.43225e-08
4.76277e-08
-4.25283e-08
3.99444e-08
-4.9837e-08
3.18884e-08
-5.57556e-08
2.48543e-08
-6.01343e-08
1.97194e-08
-6.31307e-08
1.67545e-08
-6.50838e-08
1.58132e-08
-6.63993e-08
1.65556e-08
-6.74778e-08
1.86478e-08
-6.86522e-08
2.18413e-08
-7.02166e-08
2.59403e-08
-7.23789e-08
3.08525e-08
-7.53308e-08
3.64664e-08
-7.91966e-08
4.27422e-08
-8.40887e-08
4.96038e-08
-9.00724e-08
5.70387e-08
-9.71994e-08
6.50702e-08
-1.05483e-07
7.37994e-08
-1.1495e-07
8.3396e-08
-1.25605e-07
9.41692e-08
-1.37511e-07
1.06491e-07
-1.50754e-07
1.20889e-07
-1.65513e-07
1.37964e-07
-1.82036e-07
1.58422e-07
-2.00694e-07
1.83128e-07
-2.21948e-07
2.13e-07
-2.46413e-07
2.49262e-07
-2.74816e-07
2.93134e-07
-3.08057e-07
3.46415e-07
-3.47225e-07
4.10751e-07
-3.93565e-07
4.88728e-07
-4.48667e-07
5.82591e-07
-5.14223e-07
6.95707e-07
-5.92436e-07
8.3074e-07
-6.85592e-07
9.91539e-07
-7.96381e-07
1.17843e-06
-9.27646e-07
1.39557e-06
-1.08199e-06
1.62966e-06
-1.26132e-06
1.87512e-06
-1.4658e-06
2.07754e-06
-1.69583e-06
2.13318e-06
-1.96539e-06
1.81728e-06
7.31198e-07
-2.35209e-06
-3.74866e-10
5.66921e-09
-1.69856e-09
2.02566e-08
-4.04496e-09
3.63314e-08
-7.5948e-09
4.95863e-08
-1.25296e-08
5.8057e-08
-1.89391e-08
6.1796e-08
-2.66497e-08
6.09771e-08
-3.51236e-08
5.6102e-08
-4.36079e-08
4.84277e-08
-5.13685e-08
3.96509e-08
-5.79023e-08
3.13874e-08
-6.3004e-08
2.48222e-08
-6.67565e-08
2.05068e-08
-6.94302e-08
1.84865e-08
-7.13828e-08
1.85099e-08
-7.29907e-08
2.02535e-08
-7.45837e-08
2.34384e-08
-7.64683e-08
2.78206e-08
-7.88757e-08
3.32635e-08
-8.20276e-08
3.96138e-08
-8.60837e-08
4.67993e-08
-9.11957e-08
5.47133e-08
-9.74688e-08
6.33132e-08
-1.04992e-07
7.25907e-08
-1.13807e-07
8.26181e-08
-1.23955e-07
9.35403e-08
-1.35441e-07
1.05658e-07
-1.48306e-07
1.19351e-07
-1.62597e-07
1.35182e-07
-1.78445e-07
1.53809e-07
-1.96039e-07
1.76017e-07
-2.15687e-07
2.02772e-07
-2.37788e-07
2.35105e-07
-2.62891e-07
2.7436e-07
-2.91661e-07
3.21906e-07
-3.24921e-07
3.79669e-07
-3.63681e-07
4.4951e-07
-4.09085e-07
5.34128e-07
-4.62587e-07
6.36092e-07
-5.25756e-07
7.58872e-07
-6.00541e-07
9.05526e-07
-6.89103e-07
1.08009e-06
-7.9374e-07
1.28307e-06
-9.17183e-07
1.519e-06
-1.06175e-06
1.77423e-06
-1.22955e-06
2.04291e-06
-1.4221e-06
2.27009e-06
-1.64384e-06
2.35492e-06
-1.92121e-06
2.09467e-06
1.15452e-06
-2.34451e-06
-3.80961e-10
6.04801e-09
-1.74983e-09
2.16252e-08
-4.1881e-09
3.87667e-08
-7.88584e-09
5.3283e-08
-1.30052e-08
6.31749e-08
-1.9601e-08
6.83907e-08
-2.74849e-08
6.88597e-08
-3.6132e-08
6.47495e-08
-4.48232e-08
5.71179e-08
-5.28604e-08
4.769e-08
-5.97607e-08
3.82871e-08
-6.53138e-08
3.03764e-08
-6.95766e-08
2.47696e-08
-7.27838e-08
2.16934e-08
-7.5259e-08
2.09868e-08
-7.73522e-08
2.23446e-08
-7.93776e-08
2.54679e-08
-8.16363e-08
3.00751e-08
-8.43633e-08
3.5994e-08
-8.77919e-08
4.30382e-08
-9.21015e-08
5.11099e-08
-9.74699e-08
6.00795e-08
-1.04035e-07
6.98796e-08
-1.11921e-07
8.04741e-08
-1.21203e-07
9.19043e-08
-1.31951e-07
1.04284e-07
-1.44179e-07
1.1789e-07
-1.57929e-07
1.33097e-07
-1.73225e-07
1.50479e-07
-1.90157e-07
1.70739e-07
-2.08865e-07
1.94726e-07
-2.29592e-07
2.23496e-07
-2.52672e-07
2.58188e-07
-2.78577e-07
3.0026e-07
-3.07897e-07
3.51229e-07
-3.41367e-07
4.13134e-07
-3.79893e-07
4.88036e-07
-4.24511e-07
5.78742e-07
-4.7651e-07
6.88089e-07
-5.37317e-07
8.19675e-07
-6.08604e-07
9.76814e-07
-6.9236e-07
1.16384e-06
-7.90523e-07
1.38124e-06
-9.05569e-07
1.63404e-06
-1.03969e-06
1.90836e-06
-1.19504e-06
2.19825e-06
-1.37476e-06
2.44981e-06
-1.58722e-06
2.56738e-06
-1.86856e-06
2.37604e-06
1.60344e-06
-2.31747e-06
-3.88333e-10
6.43415e-09
-1.80572e-09
2.30423e-08
-4.33323e-09
4.12914e-08
-8.17359e-09
5.71223e-08
-1.34843e-08
6.8484e-08
-2.02964e-08
7.52016e-08
-2.84003e-08
7.69624e-08
-3.72591e-08
7.36088e-08
-4.61543e-08
6.60121e-08
-5.44017e-08
5.59393e-08
-6.15369e-08
4.54218e-08
-6.73626e-08
3.62034e-08
-7.19384e-08
2.93453e-08
-7.54914e-08
2.52461e-08
-7.83316e-08
2.38289e-08
-8.07943e-08
2.48052e-08
-8.31806e-08
2.78583e-08
-8.57824e-08
3.26727e-08
-8.88299e-08
3.9045e-08
-9.25565e-08
4.67608e-08
-9.71485e-08
5.57028e-08
-1.02796e-07
6.57247e-08
-1.09657e-07
7.67418e-08
-1.17882e-07
8.86969e-08
-1.27576e-07
1.01603e-07
-1.38837e-07
1.1554e-07
-1.51702e-07
1.30757e-07
-1.66217e-07
1.47608e-07
-1.82404e-07
1.66666e-07
-2.00327e-07
1.8866e-07
-2.2009e-07
2.1449e-07
-2.41882e-07
2.45285e-07
-2.65976e-07
2.82285e-07
-2.92771e-07
3.27051e-07
-3.22778e-07
3.81238e-07
-3.56642e-07
4.46992e-07
-3.9516e-07
5.26553e-07
-4.39252e-07
6.2283e-07
-4.90034e-07
7.38869e-07
-5.48786e-07
8.78424e-07
-6.16907e-07
1.04494e-06
-6.96174e-07
1.2431e-06
-7.88226e-07
1.4733e-06
-8.95191e-07
1.74099e-06
-1.01928e-06
2.03245e-06
-1.16262e-06
2.34157e-06
-1.33003e-06
2.61722e-06
-1.53366e-06
2.77101e-06
-1.81634e-06
2.65874e-06
2.06861e-06
-2.28149e-06
-3.96161e-10
6.82809e-09
-1.86424e-09
2.451e-08
-4.48451e-09
4.39087e-08
-8.46707e-09
6.11038e-08
-1.39704e-08
7.39859e-08
-2.10091e-08
8.22391e-08
-2.93543e-08
8.53064e-08
-3.84509e-08
8.27059e-08
-4.75658e-08
7.51261e-08
-5.60113e-08
6.43868e-08
-6.33307e-08
5.27407e-08
-6.93398e-08
4.22136e-08
-7.41096e-08
3.41152e-08
-7.78744e-08
2.90107e-08
-8.09461e-08
2.69024e-08
-8.36575e-08
2.75148e-08
-8.63058e-08
3.05107e-08
-8.91775e-08
3.55406e-08
-9.24986e-08
4.23695e-08
-9.64996e-08
5.0758e-08
-1.01365e-07
6.05696e-08
-1.07291e-07
7.16483e-08
-1.14445e-07
8.38976e-08
-1.22993e-07
9.72428e-08
-1.33059e-07
1.11672e-07
-1.44767e-07
1.27244e-07
-1.58172e-07
1.44165e-07
-1.7333e-07
1.62762e-07
-1.9027e-07
1.83608e-07
-2.0905e-07
2.07438e-07
-2.29746e-07
2.35188e-07
-2.52512e-07
2.68048e-07
-2.77572e-07
3.07348e-07
-3.05263e-07
3.54738e-07
-3.36026e-07
4.12003e-07
-3.70423e-07
4.81384e-07
-4.09147e-07
5.65278e-07
-4.53014e-07
6.66694e-07
-5.02975e-07
7.88829e-07
-5.60164e-07
9.35609e-07
-6.25742e-07
1.11052e-06
-7.01258e-07
1.31861e-06
-7.88119e-07
1.56016e-06
-8.88101e-07
1.84096e-06
-1.0035e-06
2.14785e-06
-1.13648e-06
2.47454e-06
-1.29352e-06
2.77427e-06
-1.49e-06
2.96749e-06
-1.77308e-06
2.94185e-06
2.54294e-06
-2.24738e-06
-4.04274e-10
7.23012e-09
-1.92475e-09
2.60301e-08
-4.64242e-09
4.66235e-08
-8.77026e-09
6.52306e-08
-1.44696e-08
7.96838e-08
-2.17408e-08
8.95091e-08
-3.03374e-08
9.39018e-08
-3.9686e-08
9.20549e-08
-4.90343e-08
8.44736e-08
-5.76832e-08
7.30377e-08
-6.51753e-08
6.02325e-08
-7.13342e-08
4.83739e-08
-7.62426e-08
3.90237e-08
-8.01456e-08
3.29136e-08
-8.3364e-08
3.01226e-08
-8.62362e-08
3.03852e-08
-8.90624e-08
3.33411e-08
-9.21302e-08
3.86047e-08
-9.56653e-08
4.59081e-08
-9.98966e-08
5.49856e-08
-1.05009e-07
6.56834e-08
-1.11198e-07
7.78348e-08
-1.18634e-07
9.1335e-08
-1.27488e-07
1.06096e-07
-1.37904e-07
1.22092e-07
-1.50003e-07
1.39339e-07
-1.63864e-07
1.5803e-07
-1.79575e-07
1.7847e-07
-1.97156e-07
2.0119e-07
-2.1666e-07
2.26939e-07
-2.38155e-07
2.56684e-07
-2.6177e-07
2.91661e-07
-2.87698e-07
3.33279e-07
-3.16231e-07
3.83267e-07
-3.47753e-07
4.43528e-07
-3.82762e-07
5.16389e-07
-4.21864e-07
6.0438e-07
-4.65783e-07
7.10609e-07
-5.15332e-07
8.38378e-07
-5.71514e-07
9.91788e-07
-6.35304e-07
1.17431e-06
-7.08033e-07
1.39134e-06
-7.9095e-07
1.64308e-06
-8.85537e-07
1.93554e-06
-9.94199e-07
2.25652e-06
-1.11934e-06
2.59967e-06
-1.26885e-06
2.92379e-06
-1.4608e-06
3.15944e-06
-1.74476e-06
3.22584e-06
3.02131e-06
-2.22311e-06
-4.12742e-10
7.64059e-09
-1.98721e-09
2.76042e-08
-4.80663e-09
4.944e-08
-9.08404e-09
6.95069e-08
-1.49846e-08
8.55829e-08
-2.24948e-08
9.70182e-08
-3.13503e-08
1.02756e-07
-4.09593e-08
1.01664e-07
-5.05503e-08
9.40637e-08
-5.94096e-08
8.1899e-08
-6.70757e-08
6.78983e-08
-7.33765e-08
5.4676e-08
-7.84037e-08
4.40512e-08
-8.24134e-08
3.69233e-08
-8.57363e-08
3.34475e-08
-8.87195e-08
3.33669e-08
-9.16706e-08
3.62962e-08
-9.48817e-08
4.18124e-08
-9.85824e-08
4.96123e-08
-1.03003e-07
5.94031e-08
-1.08331e-07
7.10119e-08
-1.14759e-07
8.42618e-08
-1.22463e-07
9.90397e-08
-1.31616e-07
1.15247e-07
-1.4236e-07
1.3284e-07
-1.54841e-07
1.51816e-07
-1.69136e-07
1.72329e-07
-1.85324e-07
1.94654e-07
-2.03448e-07
2.19315e-07
-2.23565e-07
2.47054e-07
-2.45736e-07
2.78857e-07
-2.70079e-07
3.16001e-07
-2.96765e-07
3.59968e-07
-3.26058e-07
4.12557e-07
-3.58302e-07
4.75775e-07
-3.93949e-07
5.52031e-07
-4.33537e-07
6.43968e-07
-4.77721e-07
7.54789e-07
-5.27213e-07
8.8787e-07
-5.82892e-07
1.04746e-06
-6.45622e-07
1.23704e-06
-7.16558e-07
1.46227e-06
-7.96835e-07
1.72336e-06
-8.87748e-07
2.02644e-06
-9.91826e-07
2.3606e-06
-1.11193e-06
2.71977e-06
-1.25708e-06
3.06895e-06
-1.44761e-06
3.34999e-06
-1.73361e-06
3.51185e-06
3.50054e-06
-2.21281e-06
-4.21661e-10
8.05997e-09
-2.05162e-09
2.92338e-08
-4.977e-09
5.23624e-08
-9.40847e-09
7.39372e-08
-1.55159e-08
9.16889e-08
-2.32729e-08
1.04774e-07
-3.23947e-08
1.11877e-07
-4.22715e-08
1.11542e-07
-5.21116e-08
1.03903e-07
-6.1187e-08
9.09765e-08
-6.90305e-08
7.57418e-08
-7.54733e-08
6.11202e-08
-8.06146e-08
4.9193e-08
-8.47204e-08
4.10292e-08
-8.81313e-08
3.68604e-08
-9.12035e-08
3.64378e-08
-9.42529e-08
3.93497e-08
-9.75782e-08
4.51346e-08
-1.01415e-07
5.34527e-08
-1.05998e-07
6.3983e-08
-1.11517e-07
7.65318e-08
-1.18169e-07
9.09116e-08
-1.26127e-07
1.07e-07
-1.3557e-07
1.24688e-07
-1.46641e-07
1.43915e-07
-1.59482e-07
1.64655e-07
-1.74181e-07
1.87031e-07
-1.9082e-07
2.11291e-07
-2.09442e-07
2.37938e-07
-2.30103e-07
2.67714e-07
-2.52866e-07
3.01622e-07
-2.77843e-07
3.40976e-07
-3.05192e-07
3.87321e-07
-3.35164e-07
4.42524e-07
-3.68074e-07
5.08688e-07
-4.04346e-07
5.88299e-07
-4.44471e-07
6.84094e-07
-4.89057e-07
7.99373e-07
-5.3874e-07
9.37553e-07
-5.94357e-07
1.10308e-06
-6.56633e-07
1.29932e-06
-7.26559e-07
1.53219e-06
-8.05325e-07
1.80213e-06
-8.94113e-07
2.11522e-06
-9.95601e-07
2.46209e-06
-1.11324e-06
2.83739e-06
-1.25697e-06
3.21269e-06
-1.44894e-06
3.54196e-06
-1.73809e-06
3.80103e-06
3.97897e-06
-2.21649e-06
-4.31103e-10
8.48877e-09
-2.11804e-09
3.09203e-08
-5.15356e-09
5.5395e-08
-9.7436e-09
7.85261e-08
-1.60635e-08
9.80075e-08
-2.40753e-08
1.12785e-07
-3.34716e-08
1.21272e-07
-4.36232e-08
1.21694e-07
-5.37186e-08
1.13998e-07
-6.30147e-08
1.00275e-07
-7.10387e-08
8.37658e-08
-7.76247e-08
6.77077e-08
-8.28798e-08
5.44486e-08
-8.70792e-08
4.52287e-08
-9.05731e-08
4.03564e-08
-9.37265e-08
3.95901e-08
-9.68639e-08
4.24912e-08
-1.00291e-07
4.8559e-08
-1.04251e-07
5.74158e-08
-1.08982e-07
6.87114e-08
-1.1468e-07
8.22307e-08
-1.21544e-07
9.77741e-08
-1.29751e-07
1.15209e-07
-1.3948e-07
1.34416e-07
-1.50875e-07
1.55314e-07
-1.64078e-07
1.77855e-07
-1.79175e-07
2.02131e-07
-1.96249e-07
2.28362e-07
-2.15342e-07
2.57033e-07
-2.36509e-07
2.8888e-07
-2.59811e-07
3.24926e-07
-2.85357e-07
3.66519e-07
-3.133e-07
4.15268e-07
-3.43881e-07
4.73102e-07
-3.77401e-07
5.42212e-07
-4.14265e-07
6.2516e-07
-4.54937e-07
7.24767e-07
-4.9999e-07
8.44422e-07
-5.50023e-07
9.87586e-07
-6.05769e-07
1.15882e-06
-6.67982e-07
1.36153e-06
-7.37584e-07
1.60179e-06
-8.15704e-07
1.88025e-06
-9.03557e-07
2.20307e-06
-1.00401e-06
2.56254e-06
-1.1212e-06
2.95459e-06
-1.26575e-06
3.35724e-06
-1.46131e-06
3.73753e-06
-1.75458e-06
4.09432e-06
4.45498e-06
-2.23056e-06
-4.41133e-10
8.9276e-09
-2.18652e-09
3.26652e-08
-5.33641e-09
5.85421e-08
-1.00896e-08
8.32782e-08
-1.66276e-08
1.04544e-07
-2.49021e-08
1.21058e-07
-3.45812e-08
1.3095e-07
-4.5015e-08
1.32128e-07
-5.53718e-08
1.24355e-07
-6.48929e-08
1.09798e-07
-7.31001e-08
9.19733e-08
-7.9831e-08
7.44402e-08
-8.52003e-08
5.98186e-08
-8.94927e-08
4.95216e-08
-9.30683e-08
4.39342e-08
-9.63009e-08
4.28219e-08
-9.95235e-08
4.57179e-08
-1.03049e-07
5.20818e-08
-1.07126e-07
6.14969e-08
-1.12001e-07
7.35836e-08
-1.17873e-07
8.81039e-08
-1.24946e-07
1.04846e-07
-1.334e-07
1.23666e-07
-1.43415e-07
1.4443e-07
-1.55137e-07
1.6704e-07
-1.68703e-07
1.9142e-07
-1.84199e-07
2.1763e-07
-2.01705e-07
2.45865e-07
-2.21258e-07
2.76588e-07
-2.42911e-07
3.10532e-07
-2.66722e-07
3.4874e-07
-2.92797e-07
3.92593e-07
-3.21287e-07
4.43761e-07
-3.52425e-07
5.04237e-07
-3.86505e-07
5.76295e-07
-4.2392e-07
6.62572e-07
-4.65117e-07
7.65965e-07
-5.10646e-07
8.89949e-07
-5.61081e-07
1.03802e-06
-6.1713e-07
1.21487e-06
-6.79515e-07
1.42392e-06
-7.49101e-07
1.67137e-06
-8.2709e-07
1.95824e-06
-9.14778e-07
2.29075e-06
-1.01523e-06
2.66299e-06
-1.13327e-06
3.07262e-06
-1.28011e-06
3.50409e-06
-1.48008e-06
3.93751e-06
-1.77701e-06
4.39128e-06
4.92664e-06
-2.24864e-06
-4.51813e-10
9.3771e-09
-2.2571e-09
3.447e-08
-5.52562e-09
6.18077e-08
-1.04466e-08
8.81981e-08
-1.72081e-08
1.11304e-07
-2.57532e-08
1.29602e-07
-3.57237e-08
1.4092e-07
-4.64471e-08
1.42853e-07
-5.70715e-08
1.34979e-07
-6.68223e-08
1.19551e-07
-7.52155e-08
1.00367e-07
-8.20925e-08
8.13189e-08
-8.75763e-08
6.53033e-08
-9.19617e-08
5.39076e-08
-9.56187e-08
4.75935e-08
-9.893e-08
4.61327e-08
-1.02237e-07
4.90292e-08
-1.0586e-07
5.57026e-08
-1.10055e-07
6.56956e-08
-1.15073e-07
7.8599e-08
-1.21119e-07
9.41512e-08
-1.28401e-07
1.12127e-07
-1.37103e-07
1.3237e-07
-1.47407e-07
1.54733e-07
-1.59457e-07
1.79095e-07
-1.73392e-07
2.05352e-07
-1.8929e-07
2.33532e-07
-2.07226e-07
2.638e-07
-2.27236e-07
2.96599e-07
-2.49365e-07
3.3266e-07
-2.73668e-07
3.73046e-07
-3.00247e-07
4.19171e-07
-3.29249e-07
4.72767e-07
-3.60904e-07
5.3589e-07
-3.955e-07
6.10894e-07
-4.33421e-07
7.0049e-07
-4.75102e-07
8.07648e-07
-5.21078e-07
9.35923e-07
-5.7191e-07
1.08886e-06
-6.28276e-07
1.27123e-06
-6.90905e-07
1.48655e-06
-7.60641e-07
1.7411e-06
-8.38745e-07
2.03635e-06
-9.26658e-07
2.37866e-06
-1.02764e-06
2.76397e-06
-1.14717e-06
3.19216e-06
-1.29683e-06
3.65376e-06
-1.50129e-06
4.14198e-06
-1.80093e-06
4.69095e-06
5.39082e-06
-2.26507e-06
-4.63207e-10
9.83799e-09
-2.32983e-09
3.63361e-08
-5.72121e-09
6.51963e-08
-1.08148e-08
9.32907e-08
-1.7805e-08
1.18293e-07
-2.66285e-08
1.38425e-07
-3.68988e-08
1.51189e-07
-4.79196e-08
1.53874e-07
-5.88179e-08
1.45877e-07
-6.88031e-08
1.29538e-07
-7.73853e-08
1.0895e-07
-8.44099e-08
8.83454e-08
-9.00087e-08
7.09031e-08
-9.44869e-08
5.83867e-08
-9.82249e-08
5.13339e-08
-1.01615e-07
4.95223e-08
-1.05007e-07
5.24254e-08
-1.08727e-07
5.94217e-08
-1.13041e-07
7.00128e-08
-1.18203e-07
8.37588e-08
-1.24424e-07
1.00374e-07
-1.31917e-07
1.1962e-07
-1.4087e-07
1.41325e-07
-1.51466e-07
1.65327e-07
-1.63849e-07
1.91482e-07
-1.78154e-07
2.19655e-07
-1.94457e-07
2.49839e-07
-2.12826e-07
2.82168e-07
-2.33289e-07
3.17065e-07
-2.55887e-07
3.55258e-07
-2.80669e-07
3.97831e-07
-3.07733e-07
4.46234e-07
-3.3722e-07
5.02259e-07
-3.69358e-07
5.68027e-07
-4.04427e-07
6.45967e-07
-4.42806e-07
7.38867e-07
-4.84919e-07
8.49762e-07
-5.31286e-07
9.82288e-07
-5.82462e-07
1.14003e-06
-6.391e-07
1.32787e-06
-7.01944e-07
1.5494e-06
-7.71832e-07
1.81099e-06
-8.50087e-07
2.11461e-06
-9.38319e-07
2.46688e-06
-1.03996e-06
2.86562e-06
-1.16108e-06
3.31327e-06
-1.3134e-06
3.80609e-06
-1.52133e-06
4.34992e-06
-1.82168e-06
4.99133e-06
5.84429e-06
-2.27512e-06
-4.75376e-10
1.03111e-08
-2.40474e-09
3.82649e-08
-5.92318e-09
6.8712e-08
-1.11943e-08
9.85607e-08
-1.84186e-08
1.25516e-07
-2.75277e-08
1.47533e-07
-3.81066e-08
1.61767e-07
-4.94325e-08
1.65201e-07
-6.06111e-08
1.57055e-07
-7.08356e-08
1.39765e-07
-7.961e-08
1.17725e-07
-8.67839e-08
9.55213e-08
-9.24982e-08
7.66188e-08
-9.70692e-08
6.29588e-08
-1.00888e-07
5.51552e-08
-1.04356e-07
5.29904e-08
-1.07833e-07
5.59064e-08
-1.11652e-07
6.32397e-08
-1.16085e-07
7.44493e-08
-1.21392e-07
8.90645e-08
-1.27791e-07
1.06775e-07
-1.35498e-07
1.27326e-07
-1.44704e-07
1.50535e-07
-1.55594e-07
1.76218e-07
-1.68314e-07
2.04206e-07
-1.82992e-07
2.34332e-07
-1.99701e-07
2.66551e-07
-2.18501e-07
3.00967e-07
-2.39415e-07
3.37981e-07
-2.62475e-07
3.78318e-07
-2.87723e-07
4.23082e-07
-3.15252e-07
4.73763e-07
-3.452e-07
5.32211e-07
-3.77786e-07
6.00612e-07
-4.13286e-07
6.81472e-07
-4.52069e-07
7.77649e-07
-4.94551e-07
8.92247e-07
-5.41237e-07
1.02897e-06
-5.92675e-07
1.19147e-06
-6.49496e-07
1.38469e-06
-7.12454e-07
1.61236e-06
-7.82397e-07
1.88093e-06
-8.60699e-07
2.19292e-06
-9.49142e-07
2.55532e-06
-1.05129e-06
2.96778e-06
-1.17367e-06
3.43565e-06
-1.32797e-06
3.96041e-06
-1.53777e-06
4.55973e-06
-1.83606e-06
5.28965e-06
6.28286e-06
-2.2746e-06
-4.88381e-10
1.07971e-08
-2.48186e-09
4.02579e-08
-6.13148e-09
7.23589e-08
-1.1585e-08
1.04013e-07
-1.90488e-08
1.32979e-07
-2.84507e-08
1.56935e-07
-3.93467e-08
1.72662e-07
-5.09855e-08
1.76841e-07
-6.2451e-08
1.68521e-07
-7.292e-08
1.50237e-07
-8.189e-08
1.26696e-07
-8.9215e-08
1.02848e-07
-9.50456e-08
8.2451e-08
-9.97094e-08
6.76239e-08
-1.03609e-07
5.90572e-08
-1.07154e-07
5.65369e-08
-1.10716e-07
5.94723e-08
-1.14634e-07
6.71567e-08
-1.19187e-07
7.90058e-08
-1.2464e-07
9.45171e-08
-1.31218e-07
1.13355e-07
-1.39141e-07
1.35249e-07
-1.48603e-07
1.6e-07
-1.59791e-07
1.87406e-07
-1.72848e-07
2.17268e-07
-1.87901e-07
2.49385e-07
-2.05016e-07
2.83671e-07
-2.24246e-07
3.20197e-07
-2.45605e-07
3.59342e-07
-2.69117e-07
4.01831e-07
-2.94818e-07
4.48787e-07
-3.22792e-07
5.01738e-07