/*--------------------------------*- C++ -*----------------------------------*\
  =========                 |
  \\      /  F ield         | OpenFOAM: The Open Source CFD Toolbox
   \\    /   O peration     | Website:  https://openfoam.org
    \\  /    A nd           | Version:  7
     \\/     M anipulation  |
\*---------------------------------------------------------------------------*/
FoamFile
{
    version     2.0;
    format      ascii;
    class       volScalarField;
    location    "0.43";
    object      p;
}
// * * * * * * * * * * * * * * * * * * * * * * * * * * * * * * * * * * * * * //

dimensions      [0 2 -2 0 0 0 0];

internalField   nonuniform List<scalar> 
70000
(
0.119109
0.0416544
0.0291347
0.0315822
0.0317565
0.0307061
0.0297752
0.0290756
0.0284967
0.0279909
0.0275447
0.0271504
0.0268005
0.0264884
0.0262088
0.0259572
0.0257301
0.0255245
0.0253381
0.0251687
0.0250149
0.0248752
0.0247485
0.024634
0.0245309
0.0244388
0.0243572
0.024286
0.0242251
0.0241746
0.024135
0.0241068
0.024091
0.0240887
0.0241018
0.0241321
0.0241828
0.0242571
0.0243597
0.0244965
0.0246733
0.0249025
0.0251863
0.0255558
0.0259913
0.0265781
0.0272095
0.028143
0.0289427
0.0304169
0.114741
0.0420213
0.0293377
0.0316778
0.0318111
0.0307421
0.0298033
0.0290988
0.0285162
0.0280075
0.0275592
0.0271632
0.0268119
0.0264987
0.0262182
0.0259658
0.025738
0.0255318
0.0253449
0.0251751
0.0250208
0.0248807
0.0247537
0.0246389
0.0245356
0.0244432
0.0243614
0.0242899
0.0242288
0.0241782
0.0241384
0.02411
0.0240941
0.0240916
0.0241045
0.0241346
0.0241851
0.0242593
0.0243617
0.0244984
0.0246749
0.0249041
0.0251877
0.0255571
0.0259924
0.0265794
0.027211
0.0281442
0.028951
0.0304583
0.111161
0.0429613
0.029678
0.0318068
0.0318853
0.0307868
0.0298356
0.029125
0.028538
0.0280259
0.0275751
0.0271772
0.0268243
0.0265099
0.0262283
0.025975
0.0257465
0.0255396
0.0253521
0.0251818
0.0250271
0.0248866
0.0247593
0.0246441
0.0245405
0.0244479
0.0243658
0.0242942
0.0242328
0.024182
0.024142
0.0241134
0.0240973
0.0240946
0.0241073
0.0241372
0.0241875
0.0242614
0.0243636
0.0245
0.0246762
0.0249051
0.0251883
0.0255573
0.0259922
0.026579
0.0272103
0.0281424
0.0289706
0.0304907
0.108067
0.0440631
0.0301476
0.0319809
0.0319862
0.0308443
0.0298738
0.0291549
0.0285626
0.0280464
0.0275925
0.0271923
0.0268376
0.0265217
0.026239
0.0259847
0.0257554
0.0255478
0.0253597
0.0251889
0.0250337
0.0248928
0.0247651
0.0246496
0.0245457
0.0244527
0.0243704
0.0242985
0.024237
0.0241859
0.0241457
0.0241169
0.0241005
0.0240976
0.0241101
0.0241398
0.0241898
0.0242634
0.0243653
0.0245013
0.0246771
0.0249053
0.0251879
0.0255562
0.0259902
0.0265758
0.0272073
0.0281352
0.0289979
0.0305122
0.105107
0.0451597
0.0307136
0.0322015
0.0321208
0.0309223
0.0299228
0.029192
0.0285926
0.028071
0.0276131
0.0272099
0.026853
0.0265353
0.0262511
0.0259957
0.0257653
0.0255569
0.0253681
0.0251966
0.0250409
0.0248995
0.0247714
0.0246555
0.0245513
0.024458
0.0243754
0.0243032
0.0242414
0.0241901
0.0241497
0.0241207
0.0241041
0.0241009
0.0241131
0.0241425
0.0241923
0.0242655
0.0243669
0.0245024
0.0246776
0.024905
0.0251866
0.0255536
0.0259864
0.0265695
0.0272015
0.0281218
0.0290263
0.0305251
0.102198
0.0461987
0.0313289
0.0324487
0.0322832
0.0310221
0.0299853
0.0292384
0.02863
0.0281015
0.0276384
0.0272313
0.0268715
0.0265515
0.0262654
0.0260085
0.0257769
0.0255675
0.0253778
0.0252056
0.0250492
0.0249073
0.0247786
0.0246623
0.0245576
0.024464
0.0243811
0.0243086
0.0242465
0.024195
0.0241543
0.024125
0.0241082
0.0241048
0.0241167
0.0241458
0.0241951
0.0242679
0.0243688
0.0245037
0.024678
0.0249044
0.0251846
0.0255497
0.0259807
0.0265598
0.0271925
0.0281015
0.0290493
0.0305262
0.0993335
0.0471613
0.0319598
0.0327007
0.03246
0.0311392
0.0300601
0.0292941
0.0286751
0.0281385
0.027669
0.0272572
0.0268938
0.026571
0.0262827
0.0260239
0.0257908
0.0255801
0.0253893
0.0252161
0.025059
0.0249163
0.0247871
0.0246702
0.0245651
0.024471
0.0243877
0.0243149
0.0242525
0.0242007
0.0241597
0.0241302
0.024113
0.0241093
0.024121
0.0241497
0.0241986
0.024271
0.0243712
0.0245053
0.0246785
0.0249035
0.0251821
0.0255446
0.025973
0.0265464
0.0271795
0.0280736
0.0290609
0.030509
0.0965191
0.0480394
0.0325903
0.0329458
0.0326406
0.0312671
0.0301439
0.029357
0.0287268
0.0281815
0.0277049
0.0272877
0.0269202
0.0265941
0.0263031
0.0260422
0.0258072
0.025595
0.0254029
0.0252286
0.0250705
0.024927
0.024797
0.0246796
0.0245739
0.0244794
0.0243956
0.0243224
0.0242596
0.0242074
0.0241662
0.0241364
0.0241189
0.024115
0.0241262
0.0241546
0.0242031
0.0242749
0.0243744
0.0245076
0.0246795
0.0249028
0.0251792
0.0255382
0.0259634
0.026529
0.0271617
0.0280375
0.0290551
0.0304682
0.0937608
0.0488303
0.0332153
0.0331799
0.0328186
0.031401
0.0302333
0.0294245
0.028783
0.0282289
0.027745
0.0273221
0.0269502
0.0266206
0.0263267
0.0260633
0.0258263
0.0256123
0.0254187
0.0252432
0.025084
0.0249396
0.0248088
0.0246906
0.0245842
0.0244892
0.0244049
0.0243313
0.0242681
0.0242156
0.024174
0.0241438
0.0241261
0.0241218
0.0241328
0.0241608
0.0242088
0.02428
0.0243787
0.0245108
0.0246812
0.0249025
0.0251761
0.0255308
0.0259518
0.0265076
0.0271384
0.0279924
0.0290276
0.0303989
0.0910633
0.0495337
0.0338336
0.0334028
0.0329913
0.0315379
0.0303262
0.0294945
0.0288419
0.0282792
0.027788
0.0273594
0.0269829
0.0266496
0.0263527
0.0260868
0.0258477
0.0256319
0.0254367
0.0252598
0.0250994
0.0249539
0.0248222
0.0247032
0.0245962
0.0245005
0.0244157
0.0243416
0.024278
0.0242251
0.0241832
0.0241527
0.0241347
0.0241301
0.0241407
0.0241683
0.0242158
0.0242864
0.0243841
0.0245151
0.0246837
0.0249025
0.025173
0.0255224
0.0259383
0.0264821
0.0271086
0.0279378
0.028975
0.0302969
0.0884298
0.0501501
0.0344444
0.0336151
0.033157
0.0316766
0.0304217
0.0295662
0.0289023
0.0283312
0.0278329
0.0273985
0.0270175
0.0266807
0.0263807
0.0261122
0.0258709
0.0256532
0.0254564
0.0252781
0.0251165
0.0249699
0.0248373
0.0247174
0.0246097
0.0245133
0.024428
0.0243534
0.0242893
0.024236
0.0241937
0.024163
0.0241446
0.0241398
0.02415
0.0241773
0.0242242
0.0242941
0.0243909
0.0245205
0.0246872
0.0249031
0.0251698
0.025513
0.0259227
0.0264526
0.0270717
0.0278731
0.028896
0.0301597
0.0858632
0.0506797
0.0350463
0.033818
0.0333151
0.0318161
0.0305193
0.0296388
0.0289636
0.0283844
0.027879
0.0274389
0.0270535
0.0267129
0.02641
0.026139
0.0258954
0.0256759
0.0254774
0.0252977
0.0251348
0.0249872
0.0248536
0.024733
0.0246244
0.0245275
0.0244415
0.0243664
0.0243019
0.0242482
0.0242056
0.0241746
0.0241559
0.0241508
0.0241607
0.0241875
0.0242339
0.0243031
0.0243988
0.0245269
0.0246914
0.0249041
0.0251666
0.0255026
0.0259048
0.026419
0.0270271
0.0277978
0.0287906
0.0299868
0.0833662
0.0511231
0.0356372
0.0340127
0.0334646
0.0319556
0.0306189
0.0297124
0.0290255
0.0284384
0.027926
0.0274802
0.0270902
0.0267461
0.0264402
0.0261666
0.0259209
0.0256995
0.0254994
0.0253183
0.0251542
0.0250055
0.024871
0.0247495
0.0246402
0.0245426
0.0244561
0.0243805
0.0243156
0.0242615
0.0242186
0.0241872
0.0241683
0.0241628
0.0241724
0.0241989
0.0242447
0.0243132
0.0244077
0.0245341
0.0246963
0.0249053
0.0251631
0.0254909
0.0258845
0.0263814
0.0269745
0.0277116
0.0286607
0.0297796
0.0809412
0.051481
0.0362148
0.0342004
0.0336052
0.0320943
0.0307204
0.0297868
0.0290879
0.0284929
0.0279736
0.0275221
0.0271277
0.02678
0.026471
0.0261949
0.0259471
0.0257238
0.0255222
0.0253396
0.0251743
0.0250245
0.024889
0.0247667
0.0246568
0.0245585
0.0244714
0.0243953
0.02433
0.0242756
0.0242323
0.0242007
0.0241815
0.0241758
0.024185
0.0242111
0.0242563
0.024324
0.0244172
0.0245418
0.0247014
0.0249063
0.0251589
0.0254778
0.0258614
0.0263398
0.0269138
0.0276148
0.0285089
0.0295416
0.0785906
0.0517549
0.0367762
0.0343829
0.0337365
0.0322313
0.0308235
0.029862
0.0291506
0.028548
0.0280219
0.0275646
0.0271656
0.0268143
0.0265024
0.0262238
0.0259738
0.0257487
0.0255454
0.0253615
0.0251949
0.0250441
0.0249077
0.0247845
0.0246738
0.0245749
0.0244874
0.0244108
0.0243451
0.0242903
0.0242467
0.0242148
0.0241953
0.0241893
0.0241982
0.0242239
0.0242684
0.0243352
0.0244271
0.0245497
0.0247064
0.0249069
0.0251537
0.025463
0.0258354
0.0262941
0.0268454
0.0275075
0.0283383
0.0292774
0.0763164
0.0519464
0.0373181
0.0345614
0.0338581
0.0323656
0.0309282
0.0299381
0.0292136
0.0286036
0.0280708
0.0276077
0.0272042
0.0268492
0.0265343
0.0262531
0.0260009
0.025774
0.0255691
0.0253837
0.025216
0.0250641
0.0249267
0.0248027
0.0246913
0.0245918
0.0245037
0.0244266
0.0243605
0.0243054
0.0242615
0.0242293
0.0242095
0.0242032
0.0242118
0.0242369
0.0242808
0.0243466
0.024437
0.0245574
0.0247111
0.0249067
0.0251472
0.0254463
0.0258062
0.0262443
0.0267695
0.0273904
0.0281523
0.0289923
0.0741204
0.0520574
0.0378375
0.0347375
0.0339701
0.0324962
0.0310342
0.0300151
0.0292768
0.0286594
0.0281201
0.0276513
0.0272432
0.0268846
0.0265666
0.0262829
0.0260285
0.0257996
0.0255931
0.0254064
0.0252374
0.0250844
0.0249461
0.0248213
0.0247092
0.024609
0.0245203
0.0244428
0.0243763
0.0243208
0.0242765
0.0242441
0.024224
0.0242174
0.0242255
0.0242501
0.0242933
0.0243579
0.0244468
0.0245647
0.024715
0.0249055
0.0251392
0.0254275
0.0257737
0.0261902
0.0266867
0.0272642
0.0279536
0.0286912
0.0720036
0.0520905
0.0383315
0.0349124
0.0340725
0.0326222
0.031141
0.030093
0.0293402
0.0287156
0.02817
0.0276955
0.0272827
0.0269204
0.0265994
0.0263131
0.0260565
0.0258257
0.0256176
0.0254294
0.0252591
0.0251051
0.0249658
0.0248402
0.0247273
0.0246265
0.0245373
0.0244593
0.0243923
0.0243364
0.0242918
0.024259
0.0242386
0.0242316
0.0242393
0.0242633
0.0243056
0.024369
0.0244561
0.0245714
0.0247181
0.024903
0.0251293
0.0254063
0.0257377
0.026132
0.0265974
0.0271297
0.0277449
0.0283786
0.069967
0.0520486
0.038797
0.0350869
0.0341656
0.0327424
0.0312482
0.0301718
0.0294037
0.0287719
0.0282203
0.0277401
0.0273227
0.0269566
0.0266326
0.0263437
0.0260849
0.0258522
0.0256424
0.0254528
0.0252813
0.0251261
0.0249858
0.0248593
0.0247457
0.0246443
0.0245545
0.0244759
0.0244085
0.0243522
0.0243073
0.0242741
0.0242533
0.0242459
0.0242531
0.0242764
0.0243177
0.0243798
0.0244649
0.0245774
0.0247201
0.0248991
0.0251176
0.0253827
0.0256984
0.0260695
0.0265021
0.0269877
0.0275283
0.0280583
0.068011
0.0519352
0.0392314
0.0352615
0.0342499
0.0328561
0.0313553
0.0302514
0.0294673
0.0288283
0.0282709
0.0277851
0.027363
0.0269933
0.0266662
0.0263747
0.0261137
0.0258791
0.0256675
0.0254765
0.0253037
0.0251474
0.0250061
0.0248788
0.0247644
0.0246623
0.0245719
0.0244928
0.0244249
0.0243682
0.0243229
0.0242893
0.0242681
0.0242602
0.0242668
0.0242893
0.0243296
0.0243901
0.0244731
0.0245825
0.024721
0.0248937
0.0251038
0.0253566
0.0256555
0.0260028
0.0264013
0.0268389
0.0273054
0.0277333
0.0661355
0.0517542
0.0396319
0.0354365
0.0343259
0.0329623
0.0314616
0.0303318
0.0295309
0.0288847
0.0283218
0.0278306
0.0274038
0.0270304
0.0267002
0.0264061
0.0261428
0.0259063
0.0256931
0.0255005
0.0253264
0.025169
0.0250268
0.0248985
0.0247834
0.0246805
0.0245895
0.0245099
0.0244415
0.0243843
0.0243386
0.0243045
0.0242829
0.0242745
0.0242803
0.024302
0.0243411
0.0243999
0.0244807
0.0245867
0.0247207
0.0248868
0.0250879
0.025328
0.0256094
0.0259321
0.0262955
0.0266843
0.0270777
0.0274062
0.06434
0.05151
0.0399961
0.0356117
0.0343944
0.0330605
0.0315665
0.0304129
0.0295944
0.0289408
0.0283729
0.0278764
0.027445
0.0270678
0.0267346
0.0264379
0.0261724
0.0259338
0.0257189
0.0255249
0.0253495
0.0251909
0.0250477
0.0249185
0.0248026
0.024699
0.0246074
0.0245272
0.0244583
0.0244006
0.0243544
0.0243199
0.0242977
0.0242887
0.0242938
0.0243145
0.0243522
0.0244092
0.0244875
0.0245899
0.024719
0.0248782
0.0250699
0.0252967
0.0255599
0.0258574
0.026185
0.0265246
0.0268467
0.0270793
0.0626238
0.0512072
0.0403217
0.0357866
0.0344562
0.0331499
0.0316691
0.0304946
0.029658
0.0289968
0.028424
0.0279226
0.0274865
0.0271056
0.0267693
0.02647
0.0262022
0.0259618
0.0257451
0.0255496
0.0253729
0.0252131
0.0250688
0.0249388
0.024822
0.0247178
0.0246254
0.0245446
0.0244752
0.024417
0.0243702
0.0243352
0.0243125
0.0243028
0.0243071
0.0243266
0.024363
0.0244179
0.0244935
0.0245921
0.024716
0.024868
0.0250497
0.0252628
0.0255072
0.0257789
0.0260703
0.0263607
0.0266135
0.0267547
0.0609855
0.050851
0.0406067
0.0359603
0.0345123
0.0332304
0.0317687
0.0305765
0.0297216
0.0290524
0.0284751
0.0279689
0.0275283
0.0271436
0.0268043
0.0265025
0.0262324
0.02599
0.0257717
0.0255746
0.0253966
0.0252356
0.0250903
0.0249593
0.0248417
0.0247367
0.0246437
0.0245623
0.0244922
0.0244335
0.0243862
0.0243506
0.0243272
0.0243168
0.0243201
0.0243385
0.0243733
0.0244261
0.0244987
0.0245933
0.0247117
0.024856
0.0250274
0.0252264
0.0254514
0.0256969
0.025952
0.0261935
0.0263794
0.0264341
0.0594237
0.0504467
0.0408495
0.0361314
0.0345635
0.0333017
0.0318644
0.0306583
0.0297851
0.0291075
0.028526
0.0280154
0.0275704
0.027182
0.0268396
0.0265352
0.026263
0.0260186
0.0257985
0.0255999
0.0254205
0.0252584
0.025112
0.0249801
0.0248616
0.0247558
0.0246621
0.0245801
0.0245094
0.0244501
0.0244022
0.024366
0.0243419
0.0243306
0.024333
0.0243501
0.0243831
0.0244336
0.0245031
0.0245934
0.024706
0.0248424
0.0250031
0.0251875
0.0253927
0.0256117
0.0258306
0.026024
0.0261458
0.0261195
0.0579364
0.0499996
0.0410489
0.0362984
0.0346108
0.0333637
0.0319553
0.0307398
0.0298486
0.0291622
0.0285766
0.028062
0.0276127
0.0272205
0.0268752
0.0265682
0.0262938
0.0260474
0.0258256
0.0256255
0.0254448
0.0252815
0.025134
0.0250011
0.0248818
0.0247752
0.0246808
0.024598
0.0245267
0.0244668
0.0244183
0.0243814
0.0243565
0.0243444
0.0243456
0.0243612
0.0243924
0.0244404
0.0245065
0.0245923
0.0246988
0.024827
0.0249766
0.0251462
0.0253313
0.0255236
0.0257067
0.0258532
0.0259141
0.0258126
0.0565214
0.0495154
0.0412039
0.0364593
0.0346552
0.0334167
0.0320405
0.0308203
0.029912
0.0292162
0.0286268
0.0281085
0.0276551
0.0272593
0.026911
0.0266015
0.0263248
0.0260765
0.025853
0.0256514
0.0254693
0.0253048
0.0251562
0.0250223
0.0249021
0.0247947
0.0246995
0.0246161
0.0245442
0.0244836
0.0244343
0.0243967
0.024371
0.0243579
0.0243579
0.024372
0.0244012
0.0244465
0.0245091
0.0245901
0.0246903
0.0248099
0.0249482
0.0251026
0.0252675
0.0254331
0.025581
0.025682
0.0256855
0.0255152
0.0551763
0.0489998
0.0413142
0.0366117
0.0346974
0.0334611
0.0321194
0.0308993
0.0299751
0.0292697
0.0286764
0.0281548
0.0276976
0.0272982
0.0269469
0.026635
0.0263561
0.0261059
0.0258807
0.0256775
0.0254941
0.0253283
0.0251786
0.0250438
0.0249226
0.0248144
0.0247185
0.0246343
0.0245617
0.0245004
0.0244504
0.024412
0.0243854
0.0243712
0.0243699
0.0243824
0.0244094
0.0244519
0.0245108
0.0245868
0.0246804
0.0247912
0.0249178
0.0250568
0.0252014
0.0253406
0.0254542
0.0255116
0.0254614
0.0252289
0.0538984
0.0484583
0.0413798
0.0367532
0.034738
0.0334974
0.0321912
0.0309763
0.0300379
0.0293224
0.0287254
0.0282008
0.02774
0.0273372
0.026983
0.0266686
0.0263876
0.0261355
0.0259085
0.0257039
0.025519
0.0253521
0.0252013
0.0250654
0.0249434
0.0248343
0.0247376
0.0246526
0.0245792
0.0245172
0.0244665
0.0244272
0.0243997
0.0243843
0.0243816
0.0243923
0.024417
0.0244565
0.0245115
0.0245823
0.0246691
0.0247709
0.0248856
0.0250091
0.0251335
0.0252465
0.0253269
0.025343
0.0252433
0.0249552
0.0526849
0.0478962
0.0414015
0.0368813
0.0347773
0.0335263
0.0322554
0.0310505
0.0301002
0.0293745
0.0287735
0.0282465
0.0277824
0.0273762
0.0270191
0.0267023
0.0264193
0.0261652
0.0259366
0.0257304
0.0255442
0.025376
0.0252241
0.0250872
0.0249642
0.0248543
0.0247567
0.024671
0.0245969
0.024534
0.0244825
0.0244423
0.0244138
0.0243972
0.024393
0.0244018
0.024424
0.0244604
0.0245112
0.0245767
0.0246564
0.024749
0.0248517
0.0249596
0.025064
0.0251515
0.0252
0.0251772
0.0250323
0.0246957
0.0515329
0.0473186
0.0413804
0.0369935
0.0348155
0.0335484
0.0323116
0.0311212
0.0301617
0.0294258
0.0288207
0.0282915
0.0278246
0.0274152
0.0270553
0.0267361
0.026451
0.0261951
0.0259648
0.0257571
0.0255696
0.0254001
0.0252471
0.0251092
0.0249853
0.0248744
0.024776
0.0246895
0.0246145
0.0245509
0.0244984
0.0244573
0.0244277
0.0244097
0.0244039
0.0244107
0.0244304
0.0244635
0.02451
0.0245699
0.0246423
0.0247256
0.0248162
0.0249086
0.0249932
0.0250561
0.0250742
0.0250153
0.0248298
0.0244517
0.0504392
0.0467302
0.0413181
0.0370877
0.0348522
0.0335646
0.0323595
0.0311878
0.030222
0.0294762
0.0288669
0.0283358
0.0278664
0.027454
0.0270914
0.02677
0.0264828
0.0262251
0.0259932
0.025784
0.0255951
0.0254244
0.0252703
0.0251313
0.0250064
0.0248947
0.0247954
0.024708
0.0246322
0.0245677
0.0245143
0.0244722
0.0244413
0.024422
0.0244145
0.0244191
0.0244361
0.0244657
0.0245078
0.024562
0.024627
0.0247008
0.0247793
0.0248563
0.0249217
0.0249608
0.0249503
0.0248583
0.024637
0.0242244
0.0494009
0.0461354
0.0412166
0.0371621
0.0348866
0.0335755
0.0323993
0.0312494
0.0302808
0.0295258
0.028912
0.0283793
0.0279078
0.0274926
0.0271274
0.0268038
0.0265147
0.0262552
0.0260216
0.025811
0.0256207
0.0254488
0.0252935
0.0251535
0.0250276
0.024915
0.0248148
0.0247266
0.0246498
0.0245844
0.0245301
0.0244868
0.0244547
0.0244339
0.0244246
0.024427
0.0244411
0.0244671
0.0245047
0.024553
0.0246105
0.0246747
0.0247412
0.0248031
0.0248498
0.0248662
0.0248291
0.0247073
0.0244549
0.0240148
0.0484148
0.0455378
0.0410786
0.0372151
0.0349178
0.0335818
0.0324309
0.0313055
0.0303375
0.0295743
0.0289559
0.0284217
0.0279486
0.027531
0.0271632
0.0268374
0.0265465
0.0262853
0.0260502
0.025838
0.0256464
0.0254733
0.0253169
0.0251758
0.0250489
0.0249353
0.0248342
0.0247451
0.0246674
0.024601
0.0245457
0.0245013
0.0244678
0.0244455
0.0244342
0.0244342
0.0244455
0.0244677
0.0245005
0.0245429
0.0245929
0.0246475
0.024702
0.0247492
0.024778
0.0247731
0.0247115
0.024563
0.0242847
0.0238237
0.047478
0.0449409
0.0409069
0.0372455
0.0349446
0.0335839
0.0324546
0.0313555
0.0303917
0.0296217
0.0289986
0.028463
0.0279886
0.0275689
0.0271988
0.0268709
0.0265782
0.0263154
0.0260787
0.0258651
0.0256722
0.0254979
0.0253403
0.0251982
0.0250703
0.0249557
0.0248537
0.0247636
0.024685
0.0246176
0.0245611
0.0245155
0.0244807
0.0244566
0.0244434
0.0244409
0.0244491
0.0244675
0.0244955
0.0245317
0.0245741
0.0246193
0.0246621
0.024695
0.0247067
0.0246819
0.0245981
0.0244265
0.0241271
0.0236519
0.0465874
0.0443475
0.0407046
0.0372523
0.0349655
0.0335823
0.0324708
0.0313989
0.0304428
0.0296676
0.0290399
0.028503
0.0280278
0.0276063
0.027234
0.0269042
0.0266097
0.0263453
0.0261071
0.0258922
0.025698
0.0255224
0.0253637
0.0252205
0.0250916
0.0249761
0.0248731
0.024782
0.0247024
0.0246339
0.0245763
0.0245294
0.0244931
0.0244674
0.024452
0.024447
0.024452
0.0244665
0.0244895
0.0245197
0.0245545
0.0245903
0.0246216
0.0246408
0.0246364
0.0245932
0.0244898
0.0242986
0.0239828
0.0234997
0.0457401
0.0437602
0.0404749
0.0372353
0.0349791
0.0335772
0.03248
0.0314354
0.0304903
0.0297118
0.0290798
0.0285416
0.0280659
0.027643
0.0272688
0.0269371
0.026641
0.0263751
0.0261355
0.0259192
0.0257237
0.025547
0.0253872
0.0252429
0.0251129
0.0249964
0.0248924
0.0248003
0.0247197
0.0246501
0.0245913
0.0245431
0.0245053
0.0244776
0.0244601
0.0244524
0.0244542
0.0244646
0.0244827
0.0245067
0.0245339
0.0245606
0.0245809
0.024587
0.0245676
0.0245078
0.024387
0.0241798
0.0238524
0.0233675
0.0449335
0.0431809
0.0402213
0.0371942
0.0349839
0.0335684
0.0324826
0.0314649
0.0305334
0.0297541
0.0291182
0.0285787
0.0281027
0.027679
0.0273031
0.0269696
0.026672
0.0264046
0.0261637
0.0259461
0.0257494
0.0255714
0.0254105
0.0252652
0.0251342
0.0250166
0.0249116
0.0248185
0.0247368
0.0246661
0.0246061
0.0245564
0.024517
0.0244875
0.0244677
0.0244572
0.0244556
0.024462
0.024475
0.0244929
0.0245127
0.0245304
0.0245401
0.0245339
0.0245007
0.024426
0.0242906
0.0240708
0.0237365
0.0232551
0.0441648
0.0426112
0.039947
0.0371296
0.0349785
0.0335558
0.0324791
0.0314871
0.0305719
0.0297939
0.029155
0.0286142
0.0281382
0.0277139
0.0273367
0.0270016
0.0267025
0.0264339
0.0261916
0.0259728
0.0257749
0.0255958
0.0254338
0.0252874
0.0251553
0.0250367
0.0249307
0.0248365
0.0247537
0.0246819
0.0246205
0.0245694
0.0245282
0.0244968
0.0244746
0.0244614
0.0244563
0.0244586
0.0244666
0.0244784
0.0244909
0.0244999
0.0244995
0.0244819
0.0244361
0.0243485
0.024201
0.023972
0.0236351
0.0231623
0.0434317
0.0420524
0.0396552
0.037042
0.0349615
0.0335389
0.0324699
0.0315023
0.030605
0.0298309
0.0291899
0.028648
0.0281722
0.0277478
0.0273695
0.0270331
0.0267326
0.0264627
0.0262193
0.0259992
0.0258002
0.0256199
0.0254568
0.0253094
0.0251763
0.0250567
0.0249496
0.0248543
0.0247704
0.0246973
0.0246346
0.0245819
0.024539
0.0245055
0.024481
0.0244648
0.0244563
0.0244544
0.0244574
0.0244632
0.0244686
0.0244694
0.0244595
0.0244313
0.0243744
0.0242757
0.0241186
0.0238839
0.0235484
0.0230888
0.0427317
0.0415055
0.0393488
0.0369325
0.0349319
0.0335172
0.0324554
0.0315104
0.0306326
0.0298647
0.0292227
0.0286799
0.0282046
0.0277803
0.0274014
0.0270638
0.0267621
0.0264911
0.0262466
0.0260254
0.0258252
0.0256439
0.0254797
0.0253312
0.0251971
0.0250764
0.0249682
0.0248719
0.0247868
0.0247124
0.0246483
0.0245941
0.0245494
0.0245137
0.0244867
0.0244676
0.0244556
0.0244495
0.0244476
0.0244475
0.0244461
0.0244389
0.0244203
0.0243825
0.0243158
0.024208
0.024044
0.0238066
0.0234762
0.0230338
0.0420627
0.0409711
0.0390308
0.0368024
0.0348889
0.0334899
0.0324357
0.0315117
0.0306542
0.0298948
0.0292532
0.0287099
0.0282352
0.0278114
0.0274323
0.0270937
0.026791
0.0265189
0.0262734
0.0260512
0.0258499
0.0256675
0.0255023
0.0253528
0.0252176
0.0250959
0.0249866
0.0248891
0.0248028
0.0247271
0.0246616
0.0246057
0.0245592
0.0245214
0.0244918
0.0244698
0.0244543
0.024444
0.0244372
0.0244314
0.0244234
0.0244088
0.024382
0.0243357
0.0242607
0.0241457
0.0239772
0.0237403
0.0234183
0.0229965
0.0414228
0.0404496
0.0387036
0.0366532
0.034832
0.0334563
0.0324109
0.0315065
0.0306696
0.0299207
0.0292812
0.0287378
0.0282638
0.0278409
0.0274618
0.0271227
0.0268191
0.0265461
0.0262996
0.0260764
0.0258742
0.0256908
0.0255246
0.025374
0.0252378
0.025115
0.0250047
0.024906
0.0248185
0.0247414
0.0246744
0.0246169
0.0245684
0.0245284
0.0244963
0.0244712
0.0244522
0.0244378
0.0244262
0.0244149
0.0244007
0.0243793
0.0243451
0.0242914
0.0242094
0.0240891
0.0239185
0.0236847
0.0233743
0.0229758
0.0408099
0.0399412
0.0383695
0.0364865
0.034761
0.0334156
0.0323811
0.031495
0.0306788
0.0299422
0.0293062
0.0287635
0.0282904
0.0278687
0.0274901
0.0271506
0.0268463
0.0265725
0.0263252
0.0261012
0.025898
0.0257137
0.0255464
0.0253949
0.0252577
0.0251338
0.0250223
0.0249225
0.0248337
0.0247553
0.0246867
0.0246275
0.024577
0.0245348
0.0245001
0.024472
0.0244495
0.0244311
0.0244148
0.0243983
0.0243782
0.0243504
0.0243097
0.0242496
0.0241622
0.0240384
0.0238679
0.0236398
0.0233435
0.0229706
0.0402224
0.039446
0.0380306
0.036304
0.0346758
0.033367
0.032346
0.0314774
0.0306816
0.0299588
0.029328
0.0287867
0.0283148
0.0278946
0.0275167
0.0271772
0.0268724
0.026598
0.02635
0.0261252
0.0259212
0.025736
0.0255678
0.0254153
0.025277
0.0251521
0.0250395
0.0249385
0.0248484
0.0247686
0.0246984
0.0246375
0.024585
0.0245405
0.0245032
0.0244721
0.0244462
0.0244238
0.0244031
0.0243815
0.024356
0.0243225
0.024276
0.0242106
0.0241192
0.0239937
0.0238253
0.0236052
0.0233252
0.0229795
0.0396586
0.038964
0.0376886
0.0361074
0.0345767
0.0333101
0.0323055
0.0314539
0.0306782
0.0299702
0.0293463
0.0288073
0.028337
0.0279183
0.0275417
0.0272025
0.0268975
0.0266226
0.026374
0.0261486
0.0259438
0.0257577
0.0255886
0.0254351
0.0252959
0.0251699
0.0250562
0.024954
0.0248626
0.0247813
0.0247096
0.0246468
0.0245924
0.0245456
0.0245056
0.0244716
0.0244422
0.024416
0.024391
0.0243648
0.0243342
0.0242956
0.0242443
0.0241747
0.0240806
0.023955
0.0237906
0.0235804
0.0233184
0.0230013
0.0391172
0.0384949
0.0373451
0.0358986
0.0344641
0.0332442
0.0322593
0.0314247
0.0306685
0.0299762
0.0293606
0.0288249
0.0283566
0.0279399
0.0275648
0.0272263
0.0269213
0.0266461
0.0263971
0.0261711
0.0259656
0.0257788
0.0256088
0.0254544
0.0253142
0.0251872
0.0250723
0.0249689
0.0248762
0.0247934
0.0247201
0.0246555
0.024599
0.0245499
0.0245074
0.0244704
0.0244377
0.0244078
0.0243787
0.0243481
0.024313
0.0242699
0.0242145
0.0241418
0.0240464
0.0239222
0.0237634
0.0235648
0.0233223
0.0230346
0.0385966
0.0380386
0.0370014
0.0356791
0.0343387
0.033169
0.0322069
0.0313898
0.0306527
0.0299767
0.0293707
0.0288395
0.0283737
0.0279592
0.0275858
0.0272483
0.0269436
0.0266684
0.026419
0.0261926
0.0259866
0.025799
0.0256283
0.025473
0.0253318
0.0252038
0.0250878
0.0249832
0.0248891
0.0248049
0.0247299
0.0246635
0.024605
0.0245536
0.0245084
0.0244685
0.0244326
0.0243992
0.0243663
0.0243316
0.0242925
0.0242455
0.0241869
0.0241121
0.0240165
0.0238951
0.0237434
0.0235576
0.0233357
0.0230788
0.0380957
0.0375948
0.0366585
0.0354506
0.0342013
0.0330843
0.0321481
0.0313492
0.0306309
0.0299715
0.0293763
0.0288506
0.0283879
0.0279759
0.0276046
0.0272686
0.0269645
0.0266893
0.0264398
0.0262131
0.0260066
0.0258184
0.0256469
0.0254908
0.0253487
0.0252196
0.0251026
0.0249967
0.0249013
0.0248156
0.0247389
0.0246707
0.0246101
0.0245564
0.0245087
0.024466
0.024427
0.0243902
0.0243537
0.0243154
0.0242727
0.0242225
0.0241614
0.0240855
0.0239908
0.0238735
0.02373
0.023558
0.0233572
0.0231306
0.0376132
0.0371631
0.0363174
0.0352145
0.0340526
0.03299
0.0320826
0.0313029
0.0306031
0.0299606
0.0293772
0.0288581
0.0283992
0.0279901
0.0276211
0.0272867
0.0269835
0.0267087
0.0264593
0.0262323
0.0260255
0.0258368
0.0256647
0.0255077
0.0253648
0.0252347
0.0251165
0.0250094
0.0249127
0.0248255
0.0247472
0.0246771
0.0246145
0.0245585
0.0245083
0.0244628
0.0244208
0.0243808
0.0243411
0.0242995
0.0242537
0.0242009
0.0241381
0.024062
0.0239693
0.0238569
0.0237226
0.0235651
0.0233854
0.0231874
0.037148
0.0367432
0.0359789
0.0349721
0.0338936
0.0328864
0.0320101
0.0312507
0.0305695
0.0299439
0.0293731
0.0288616
0.0284073
0.0280014
0.0276352
0.0273027
0.0270008
0.0267265
0.0264773
0.0262503
0.0260432
0.0258541
0.0256814
0.0255237
0.0253799
0.0252488
0.0251296
0.0250213
0.0249232
0.0248345
0.0247546
0.0246826
0.024618
0.0245598
0.0245072
0.024459
0.0244142
0.0243712
0.0243284
0.024284
0.0242356
0.0241808
0.024117
0.0240414
0.0239515
0.023845
0.0237205
0.0235778
0.0234189
0.0232482
0.0366993
0.0363348
0.0356436
0.0347248
0.0337254
0.0327735
0.0319305
0.0311927
0.0305301
0.0299214
0.0293639
0.028861
0.0284119
0.0280098
0.0276465
0.0273164
0.0270159
0.0267426
0.0264937
0.0262668
0.0260596
0.0258702
0.025697
0.0255386
0.025394
0.025262
0.0251417
0.0250322
0.0249328
0.0248426
0.024761
0.0246873
0.0246206
0.0245602
0.0245052
0.0244545
0.024407
0.0243613
0.0243158
0.0242688
0.0242182
0.024162
0.0240979
0.0240236
0.0239373
0.0238372
0.023723
0.0235952
0.0234565
0.0233118
0.036266
0.0359375
0.035312
0.0344736
0.0335487
0.0326518
0.0318435
0.0311287
0.0304849
0.0298933
0.0293495
0.028856
0.028413
0.028015
0.0276551
0.0273276
0.0270289
0.0267567
0.0265085
0.0262818
0.0260746
0.0258849
0.0257113
0.0255524
0.025407
0.0252741
0.0251528
0.0250421
0.0249413
0.0248497
0.0247665
0.0246909
0.0246223
0.0245598
0.0245025
0.0244494
0.0243993
0.0243511
0.0243031
0.0242539
0.0242017
0.0241446
0.0240807
0.0240084
0.0239261
0.023833
0.0237293
0.0236161
0.0234968
0.0233764
0.0358472
0.0355509
0.0349845
0.0342196
0.0333647
0.0325217
0.0317493
0.0310586
0.030434
0.0298594
0.0293297
0.0288465
0.0284102
0.028017
0.0276607
0.0273361
0.0270396
0.0267687
0.0265213
0.0262951
0.026088
0.0258983
0.0257243
0.0255649
0.0254188
0.025285
0.0251627
0.0250509
0.0249488
0.0248557
0.0247709
0.0246936
0.024623
0.0245584
0.0244989
0.0244435
0.0243911
0.0243405
0.0242904
0.0242394
0.0241859
0.0241283
0.0240652
0.0239953
0.0239176
0.0238317
0.0237385
0.0236395
0.0235385
0.0234407
0.0354423
0.0351748
0.0346615
0.0339635
0.0331742
0.0323837
0.0316479
0.0309823
0.0303774
0.0298199
0.0293046
0.0288322
0.0284035
0.0280155
0.0276632
0.0273418
0.0270477
0.0267785
0.0265321
0.0263066
0.0260998
0.02591
0.0257358
0.0255759
0.0254292
0.0252947
0.0251714
0.0250584
0.0249551
0.0248606
0.0247742
0.0246951
0.0246227
0.0245561
0.0244945
0.0244369
0.0243823
0.0243296
0.0242776
0.0242251
0.0241707
0.0241131
0.0240512
0.0239841
0.0239112
0.0238327
0.0237497
0.0236643
0.0235804
0.0235031
0.0350503
0.0348086
0.0343432
0.0337063
0.0329781
0.0322384
0.0315394
0.0308998
0.030315
0.0297748
0.0292742
0.0288131
0.0283925
0.0280103
0.0276625
0.0273445
0.0270531
0.0267859
0.0265408
0.026316
0.0261097
0.0259201
0.0257458
0.0255855
0.0254382
0.0253029
0.0251787
0.0250647
0.0249601
0.0248642
0.0247762
0.0246955
0.0246213
0.0245527
0.0244891
0.0244295
0.0243729
0.0243183
0.0242647
0.024211
0.024156
0.0240988
0.0240384
0.0239743
0.0239064
0.0238352
0.0237621
0.0236894
0.0236211
0.0235623
0.0346707
0.034452
0.0340299
0.0334485
0.0327773
0.0320863
0.0314241
0.0308111
0.0302469
0.0297242
0.0292383
0.0287891
0.0283772
0.0280014
0.0276583
0.0273442
0.0270557
0.0267907
0.0265471
0.0263234
0.0261176
0.0259283
0.0257539
0.0255934
0.0254457
0.0253097
0.0251846
0.0250695
0.0249637
0.0248665
0.024777
0.0246947
0.0246187
0.0245483
0.0244828
0.0244212
0.0243628
0.0243066
0.0242516
0.0241969
0.0241417
0.024085
0.0240264
0.0239656
0.0239027
0.0238385
0.0237748
0.0237139
0.0236597
0.0236171
0.0343027
0.0341048
0.0337216
0.0331909
0.0325726
0.0319281
0.0313023
0.0307164
0.0301732
0.029668
0.0291971
0.02876
0.0283574
0.0279884
0.0276506
0.0273406
0.0270554
0.0267928
0.026551
0.0263284
0.0261234
0.0259345
0.0257603
0.0255996
0.0254515
0.0253149
0.0251889
0.0250729
0.0249659
0.0248674
0.0247765
0.0246925
0.0246149
0.0245427
0.0244754
0.024412
0.0243519
0.0242942
0.0242381
0.0241827
0.0241274
0.0240716
0.0240149
0.0239574
0.0238994
0.0238419
0.0237868
0.0237366
0.0236949
0.0236663
0.0339459
0.0337666
0.0334184
0.0329339
0.0323646
0.0317644
0.0311742
0.0306156
0.0300937
0.0296063
0.0291505
0.0287259
0.028333
0.0279714
0.0276392
0.0273336
0.0270519
0.026792
0.0265523
0.0263311
0.026127
0.0259386
0.0257646
0.0256039
0.0254554
0.0253183
0.0251916
0.0250746
0.0249666
0.0248668
0.0247744
0.024689
0.0246097
0.0245359
0.0244669
0.0244019
0.0243403
0.0242812
0.0242241
0.0241682
0.0241131
0.0240582
0.0240036
0.0239492
0.0238959
0.0238447
0.0237974
0.0237566
0.0237258
0.023709
0.0335995
0.033437
0.0331205
0.032678
0.032154
0.0315957
0.0310404
0.030509
0.0300087
0.0295392
0.0290986
0.0286866
0.0283038
0.0279501