/*--------------------------------*- C++ -*----------------------------------*\
  =========                 |
  \\      /  F ield         | OpenFOAM: The Open Source CFD Toolbox
   \\    /   O peration     | Website:  https://openfoam.org
    \\  /    A nd           | Version:  7
     \\/     M anipulation  |
\*---------------------------------------------------------------------------*/
FoamFile
{
    version     2.0;
    format      ascii;
    class       surfaceScalarField;
    location    "0.43";
    object      phi_0;
}
// * * * * * * * * * * * * * * * * * * * * * * * * * * * * * * * * * * * * * //

dimensions      [0 3 -1 0 0 0 0];

internalField   nonuniform List<scalar> 
139350
(
6.45122e-08
9.21193e-08
3.19651e-08
3.25471e-08
2.30603e-08
8.90484e-09
1.9576e-08
3.48428e-09
1.76245e-08
1.95148e-09
1.61946e-08
1.42992e-09
1.50617e-08
1.13288e-09
1.41491e-08
9.1256e-10
1.33982e-08
7.50916e-10
1.27656e-08
6.32581e-10
1.22226e-08
5.43012e-10
1.17499e-08
4.72744e-10
1.13337e-08
4.16181e-10
1.09639e-08
3.69805e-10
1.06327e-08
3.31216e-10
1.0334e-08
2.98696e-10
1.0063e-08
2.70981e-10
9.81588e-09
2.47123e-10
9.58948e-09
2.26399e-10
9.38124e-09
2.08249e-10
9.189e-09
1.92235e-10
9.01099e-09
1.78007e-10
8.84571e-09
1.65283e-10
8.69187e-09
1.53836e-10
8.54839e-09
1.4348e-10
8.41433e-09
1.3406e-10
8.28889e-09
1.25447e-10
8.17135e-09
1.17536e-10
8.06112e-09
1.10233e-10
7.95765e-09
1.03468e-10
7.86048e-09
9.71642e-11
7.76919e-09
9.12942e-11
7.68342e-09
8.57734e-11
7.60278e-09
8.06419e-11
7.527e-09
7.57705e-11
7.45568e-09
7.13244e-11
7.38861e-09
6.70687e-11
7.32522e-09
6.33876e-11
7.26534e-09
5.98861e-11
7.20812e-09
5.72207e-11
7.15313e-09
5.49854e-11
7.09939e-09
5.37448e-11
7.04516e-09
5.42247e-11
6.99053e-09
5.46334e-11
6.92868e-09
6.18451e-11
6.86674e-09
6.19462e-11
6.77796e-09
8.87782e-11
6.71512e-09
6.28418e-11
6.43628e-09
2.7884e-10
-2.84911e-09
9.28539e-09
1.25943e-07
1.2762e-07
9.12908e-08
6.71996e-08
7.19398e-08
2.82558e-08
6.12267e-08
1.41974e-08
5.47928e-08
8.38543e-09
5.02999e-08
5.92282e-09
4.68168e-08
4.61599e-09
4.40041e-08
3.7252e-09
4.16812e-08
3.07383e-09
3.97227e-08
2.59115e-09
3.80414e-08
2.22432e-09
3.65774e-08
1.93671e-09
3.52882e-08
1.70538e-09
3.41422e-08
1.51576e-09
3.31155e-08
1.35796e-09
3.21892e-08
1.22495e-09
3.13486e-08
1.11157e-09
3.05818e-08
1.01395e-09
2.98791e-08
9.29128e-10
2.92325e-08
8.54832e-10
2.86355e-08
7.89262e-10
2.80825e-08
7.30992e-10
2.75689e-08
6.78875e-10
2.70908e-08
6.3198e-10
2.66447e-08
5.89541e-10
2.62278e-08
5.50927e-10
2.58377e-08
5.15607e-10
2.54721e-08
4.83138e-10
2.51292e-08
4.53137e-10
2.48073e-08
4.25293e-10
2.45052e-08
3.99308e-10
2.42215e-08
3.74997e-10
2.39552e-08
3.52078e-10
2.37053e-08
3.30552e-10
2.3471e-08
3.10038e-10
2.32514e-08
2.90908e-10
2.30461e-08
2.72433e-10
2.28537e-08
2.55792e-10
2.26741e-08
2.39406e-10
2.25053e-08
2.26113e-10
2.23476e-08
2.12619e-10
2.21966e-08
2.04795e-10
2.20541e-08
1.96698e-10
2.19104e-08
1.98303e-10
2.17697e-08
2.02541e-10
2.16137e-08
2.17953e-10
2.14422e-08
2.6031e-10
2.12699e-08
2.35115e-10
2.08931e-08
6.55613e-10
-3.14306e-09
2.11871e-08
1.58752e-07
1.35271e-07
1.36528e-07
8.9424e-08
1.17497e-07
4.72865e-08
1.03324e-07
2.83702e-08
9.33359e-08
1.8374e-08
8.60414e-08
1.32173e-08
8.03395e-08
1.03179e-08
7.56934e-08
8.37127e-09
7.18207e-08
6.94657e-09
6.85337e-08
5.87818e-09
6.56991e-08
5.0589e-09
6.32223e-08
4.41345e-09
6.1035e-08
3.8927e-09
5.90861e-08
3.46473e-09
5.73362e-08
3.10777e-09
5.57549e-08
2.80631e-09
5.43175e-08
2.54891e-09
5.30045e-08
2.32696e-09
5.17997e-08
2.1339e-09
5.069e-08
1.96461e-09
4.96642e-08
1.81507e-09
4.87131e-08
1.68208e-09
4.78289e-08
1.56307e-09
4.70049e-08
1.45592e-09
4.62355e-08
1.35892e-09
4.55158e-08
1.27063e-09
4.48416e-08
1.18986e-09
4.42092e-08
1.11557e-09
4.36154e-08
1.04692e-09
4.30575e-08
9.83165e-10
4.25332e-08
9.23646e-10
4.20403e-08
8.67868e-10
4.15771e-08
8.15258e-10
4.1142e-08
7.65644e-10
4.07337e-08
7.18316e-10
4.03509e-08
6.73782e-10
3.99926e-08
6.30648e-10
3.96573e-08
5.91101e-10
3.9345e-08
5.51705e-10
3.90524e-08
5.18744e-10
3.87815e-08
4.83545e-10
3.85243e-08
4.61957e-10
3.82878e-08
4.3319e-10
3.80524e-08
4.33687e-10
3.78368e-08
4.18163e-10
3.75959e-08
4.58839e-10
3.7366e-08
4.90201e-10
3.70995e-08
5.01631e-10
3.6756e-08
9.99106e-10
-2.44775e-09
3.60607e-08
1.75611e-07
1.31175e-07
1.65624e-07
9.9411e-08
1.52738e-07
6.01724e-08
1.40134e-07
4.09748e-08
1.2946e-07
2.90478e-08
1.20829e-07
2.18487e-08
1.13724e-07
1.74222e-08
1.07751e-07
1.43443e-08
1.02659e-07
1.20391e-08
9.82641e-08
1.02729e-08
9.44275e-08
8.89549e-09
9.10435e-08
7.79742e-09
8.80325e-08
6.90375e-09
8.5333e-08
6.16421e-09
8.28969e-08
5.54387e-09
8.06858e-08
5.01746e-09
7.86685e-08
4.56618e-09
7.68197e-08
4.17573e-09
7.51185e-08
3.83509e-09
7.35475e-08
3.53566e-09
7.20919e-08
3.2706e-09
7.07396e-08
3.03445e-09
6.94799e-08
2.82278e-09
6.83038e-08
2.63197e-09
6.72037e-08
2.45904e-09
6.61729e-08
2.30149e-09
6.52055e-08
2.15724e-09
6.42965e-08
2.02451e-09
6.34417e-08
1.90178e-09
6.26371e-08
1.78774e-09
6.18795e-08
1.68126e-09
6.1166e-08
1.58139e-09
6.04941e-08
1.48717e-09
5.98616e-08
1.39816e-09
5.92666e-08
1.31323e-09
5.87075e-08
1.23296e-09
5.8183e-08
1.15515e-09
5.7691e-08
1.08308e-09
5.72316e-08
1.01106e-09
5.68009e-08
9.4945e-10
5.64016e-08
8.82854e-10
5.60242e-08
8.39399e-10
5.56779e-08
7.79483e-10
5.5339e-08
7.72514e-10
5.5032e-08
7.25223e-10
5.47034e-08
7.87398e-10
5.43981e-08
7.9555e-10
5.40522e-08
8.47465e-10
5.36812e-08
1.3702e-09
-1.50819e-09
5.27416e-08
1.8451e-07
1.23451e-07
1.82341e-07
1.0158e-07
1.76123e-07
6.63906e-08
1.67769e-07
4.93284e-08
1.59156e-07
3.76611e-08
1.51258e-07
2.97462e-08
1.44195e-07
2.44856e-08
1.37904e-07
2.06347e-08
1.32313e-07
1.76299e-08
1.27338e-07
1.52487e-08
1.22891e-07
1.33422e-08
1.18897e-07
1.17915e-08
1.15291e-07
1.05096e-08
1.1202e-07
9.43535e-09
1.09039e-07
8.52493e-09
1.06311e-07
7.74567e-09
1.03804e-07
7.07273e-09
1.01493e-07
6.48688e-09
9.93549e-08
5.97306e-09
9.73712e-08
5.51931e-09
9.55258e-08
5.11605e-09
9.38047e-08
4.75552e-09
9.21961e-08
4.43141e-09
9.06896e-08
4.13847e-09
8.92762e-08
3.87239e-09
8.79482e-08
3.62951e-09
8.66986e-08
3.40678e-09
8.55216e-08
3.20153e-09
8.44119e-08
3.01153e-09
8.33648e-08
2.83481e-09
8.23764e-08
2.66967e-09
8.14431e-08
2.51466e-09
8.05619e-08
2.36837e-09
7.97301e-08
2.22998e-09
7.89454e-08
2.09793e-09
7.82056e-08
1.97277e-09
7.75093e-08
1.85148e-09
7.6854e-08
1.73836e-09
7.62396e-08
1.6254e-09
7.56621e-08
1.52701e-09
7.51239e-08
1.42107e-09
7.46155e-08
1.34772e-09
7.41458e-08
1.24921e-09
7.36924e-08
1.22595e-09
7.32759e-08
1.14172e-09
7.28516e-08
1.21168e-09
7.24466e-08
1.20056e-09
7.20235e-08
1.2705e-09
7.15621e-08
1.83162e-09
-4.82018e-10
7.0536e-08
1.90342e-07
1.15325e-07
1.91859e-07
1.00063e-07
1.90263e-07
6.79864e-08
1.8616e-07
5.34311e-08
1.80726e-07
4.30952e-08
1.74982e-07
3.5491e-08
1.69294e-07
3.01735e-08
1.63819e-07
2.61092e-08
1.58655e-07
2.27947e-08
1.53841e-07
2.00623e-08
1.49381e-07
1.78022e-08
1.45258e-07
1.59145e-08
1.41448e-07
1.43196e-08
1.37925e-07
1.29587e-08
1.34662e-07
1.17875e-08
1.31636e-07
1.07721e-08
1.28823e-07
9.88546e-09
1.26204e-07
9.10622e-09
1.2376e-07
8.41714e-09
1.21475e-07
7.80424e-09
1.19335e-07
7.25611e-09
1.17327e-07
6.76337e-09
1.1544e-07
6.31824e-09
1.13664e-07
5.91422e-09
1.11991e-07
5.54586e-09
1.10412e-07
5.2085e-09
1.0892e-07
4.89822e-09
1.0751e-07
4.61157e-09
1.06176e-07
4.34565e-09
1.04913e-07
4.09783e-09
1.03717e-07
3.86588e-09
1.02584e-07
3.64782e-09
1.0151e-07
3.44181e-09
1.00494e-07
3.24665e-09
9.95312e-08
3.06031e-09
9.86207e-08
2.88329e-09
9.77604e-08
2.7118e-09
9.69478e-08
2.55096e-09
9.61824e-08
2.3908e-09
9.54603e-08
2.24903e-09
9.47833e-08
2.09809e-09
9.41434e-08
1.98769e-09
9.35461e-08
1.84643e-09
9.29749e-08
1.79724e-09
9.24401e-08
1.67652e-09
9.19153e-08
1.73647e-09
9.1398e-08
1.71786e-09
9.08874e-08
1.7811e-09
9.03241e-08
2.39488e-09
6.38654e-10
8.92034e-08
1.95504e-07
1.07635e-07
1.98247e-07
9.73208e-08
1.98986e-07
6.72476e-08
1.97793e-07
5.46242e-08
1.95161e-07
4.57265e-08
1.91827e-07
3.88256e-08
1.88102e-07
3.38982e-08
1.84159e-07
3.00517e-08
1.80149e-07
2.6805e-08
1.7618e-07
2.40311e-08
1.7232e-07
2.16621e-08
1.68608e-07
1.9627e-08
1.65063e-07
1.78647e-08
1.61693e-07
1.63281e-08
1.585e-07
1.49807e-08
1.55479e-07
1.37931e-08
1.52623e-07
1.27411e-08
1.49925e-07
1.18048e-08
1.47374e-07
1.09676e-08
1.44963e-07
1.02157e-08
1.42682e-07
9.53728e-09
1.40522e-07
8.92272e-09
1.38477e-07
8.36369e-09
1.36538e-07
7.85317e-09
1.34699e-07
7.38513e-09
1.32953e-07
6.95438e-09
1.31294e-07
6.55646e-09
1.29719e-07
6.18741e-09
1.2822e-07
5.84384e-09
1.26796e-07
5.52266e-09
1.2544e-07
5.22123e-09
1.24151e-07
4.93715e-09
1.22925e-07
4.66821e-09
1.21758e-07
4.41288e-09
1.2065e-07
4.16876e-09
1.19597e-07
3.93625e-09
1.18598e-07
3.71097e-09
1.1765e-07
3.49858e-09
1.16753e-07
3.28773e-09
1.15904e-07
3.09837e-09
1.15102e-07
2.89947e-09
1.14343e-07
2.74675e-09
1.13628e-07
2.56149e-09
1.12948e-07
2.47801e-09
1.123e-07
2.32418e-09
1.11678e-07
2.35852e-09
1.11053e-07
2.34236e-09
1.10447e-07
2.38761e-09
1.09792e-07
3.04965e-09
1.8418e-09
1.08589e-07
2.00819e-07
1.00401e-07
2.03772e-07
9.43685e-08
2.05345e-07
6.56741e-08
2.05647e-07
5.43226e-08
2.04818e-07
4.65555e-08
2.03342e-07
4.03017e-08
2.01399e-07
3.58409e-08
1.99075e-07
3.23756e-08
1.96476e-07
2.94037e-08
1.93705e-07
2.68024e-08
1.90841e-07
2.4526e-08
1.87944e-07
2.25239e-08
1.85058e-07
2.07505e-08
1.82215e-07
1.91711e-08
1.79437e-07
1.77588e-08
1.76739e-07
1.64917e-08
1.74129e-07
1.5351e-08
1.71613e-07
1.4321e-08
1.69193e-07
1.33878e-08
1.66869e-07
1.25396e-08
1.6464e-07
1.17662e-08
1.62504e-07
1.10587e-08
1.60458e-07
1.04095e-08
1.58499e-07
9.81194e-09
1.56624e-07
9.26012e-09
1.54829e-07
8.74894e-09
1.53112e-07
8.27391e-09
1.51468e-07
7.83098e-09
1.49896e-07
7.41662e-09
1.48391e-07
7.02756e-09
1.46951e-07
6.66096e-09
1.45574e-07
6.3142e-09
1.44257e-07
5.98488e-09
1.42999e-07
5.67124e-09
1.41797e-07
5.37067e-09
1.4065e-07
5.08346e-09
1.39556e-07
4.80488e-09
1.38514e-07
4.54089e-09
1.37522e-07
4.27939e-09
1.36579e-07
4.04152e-09
1.35683e-07
3.79485e-09
1.34833e-07
3.59746e-09
1.34025e-07
3.36958e-09
1.33256e-07
3.24652e-09
1.32516e-07
3.06395e-09
1.31812e-07
3.06289e-09
1.311e-07
3.05403e-09
1.30405e-07
3.083e-09
1.29675e-07
3.77945e-09
3.08914e-09
1.28428e-07
2.06423e-07
9.35104e-08
2.09331e-07
9.14598e-08
2.11056e-07
6.39492e-08
2.11937e-07
5.34418e-08
2.12001e-07
4.64916e-08
2.11618e-07
4.06848e-08
2.10892e-07
3.65669e-08
2.09826e-07
3.34416e-08
2.08459e-07
3.07709e-08
2.06848e-07
2.84128e-08
2.0505e-07
2.63245e-08
2.03112e-07
2.4462e-08
2.01076e-07
2.27861e-08
1.98979e-07
2.12686e-08
1.96848e-07
1.98891e-08
1.94709e-07
1.86314e-08
1.92578e-07
1.74819e-08
1.9047e-07
1.64287e-08
1.88396e-07
1.54615e-08
1.86365e-07
1.45714e-08
1.84381e-07
1.37503e-08
1.82448e-07
1.2991e-08
1.80571e-07
1.22873e-08
1.78749e-07
1.16335e-08
1.76985e-07
1.10247e-08
1.75277e-07
1.04563e-08
1.73627e-07
9.92427e-09
1.72033e-07
9.4249e-09
1.70495e-07
8.9549e-09
1.69011e-07
8.5111e-09
1.67581e-07
8.09078e-09
1.66204e-07
7.6913e-09
1.64879e-07
7.31026e-09
1.63604e-07
6.94587e-09
1.62379e-07
6.59546e-09
1.61204e-07
6.25928e-09
1.60076e-07
5.9325e-09
1.58996e-07
5.62119e-09
1.57962e-07
5.31312e-09
1.56974e-07
5.02969e-09
1.5603e-07
4.73886e-09
1.55129e-07
4.49811e-09
1.54267e-07
4.2316e-09
1.53446e-07
4.06775e-09
1.52648e-07
3.86138e-09
1.5189e-07
3.82155e-09
1.51123e-07
3.82118e-09
1.50363e-07
3.8429e-09
1.49583e-07
4.55911e-09
4.33465e-09
1.48337e-07
2.12269e-07
8.69039e-08
2.1514e-07
8.85885e-08
2.16811e-07
6.22781e-08
2.17851e-07
5.24014e-08
2.1826e-07
4.60827e-08
2.18379e-07
4.05665e-08
2.18305e-07
3.66403e-08
2.18009e-07
3.37379e-08
2.17484e-07
3.12961e-08
2.16748e-07
2.91484e-08
2.15826e-07
2.72469e-08
2.14741e-07
2.55466e-08
2.1352e-07
2.40076e-08
2.12186e-07
2.26021e-08
2.10764e-07
2.13111e-08
2.09275e-07
2.01209e-08
2.07736e-07
1.90202e-08
2.06165e-07
1.79999e-08
2.04575e-07
1.70519e-08
2.02977e-07
1.61694e-08
2.01381e-07
1.53463e-08
1.99795e-07
1.45771e-08
1.98225e-07
1.38571e-08
1.96676e-07
1.31819e-08
1.95154e-07
1.25474e-08
1.9366e-07
1.19501e-08
1.92197e-07
1.13866e-08
1.90769e-07
1.08537e-08
1.89375e-07
1.03487e-08
1.88017e-07
9.8688e-09
1.86696e-07
9.41151e-09
1.85413e-07
8.97443e-09
1.84168e-07
8.55535e-09
1.82961e-07
8.15257e-09
1.81793e-07
7.76352e-09
1.80664e-07
7.38855e-09
1.79574e-07
7.02286e-09
1.78522e-07
6.6726e-09
1.7751e-07
6.32584e-09
1.76536e-07
6.00359e-09
1.75599e-07
5.67557e-09
1.74701e-07
5.39647e-09
1.73834e-07
5.09789e-09
1.73006e-07
4.89616e-09
1.72196e-07
4.67178e-09
1.71422e-07
4.59538e-09
1.7064e-07
4.60327e-09
1.69853e-07
4.62965e-09
1.69058e-07
5.35355e-09
5.53013e-09
1.67863e-07
2.18315e-07
8.057e-08
2.21189e-07
8.57138e-08
2.22784e-07
6.06836e-08
2.23853e-07
5.13327e-08
2.2437e-07
4.55653e-08
2.24666e-07
4.02708e-08
2.24868e-07
3.64379e-08
2.24949e-07
3.36567e-08
2.24889e-07
3.13567e-08
2.24687e-07
2.93503e-08
2.24347e-07
2.75861e-08
2.23877e-07
2.60173e-08
2.23283e-07
2.46012e-08
2.22578e-07
2.33076e-08
2.21772e-07
2.21162e-08
2.20881e-07
2.10127e-08
2.19915e-07
1.99859e-08
2.18888e-07
1.90273e-08
2.1781e-07
1.81296e-08
2.16692e-07
1.72869e-08
2.15544e-07
1.64943e-08
2.14374e-07
1.57471e-08
2.1319e-07
1.50417e-08
2.11997e-07
1.43744e-08
2.10802e-07
1.37423e-08
2.0961e-07
1.31424e-08
2.08425e-07
1.2572e-08
2.0725e-07
1.20288e-08
2.06088e-07
1.15103e-08
2.04943e-07
1.10142e-08
2.03816e-07
1.05385e-08
2.02709e-07
1.00811e-08
2.01624e-07
9.63996e-09
2.00563e-07
9.2137e-09
1.99527e-07
8.79985e-09
1.98516e-07
8.39897e-09
1.97533e-07
8.00643e-09
1.96577e-07
7.6284e-09
1.95649e-07
7.25355e-09
1.94751e-07
6.9021e-09
1.9388e-07
6.54639e-09
1.9304e-07
6.23694e-09
1.92223e-07
5.9149e-09
1.91437e-07
5.68162e-09
1.90663e-07
5.4459e-09
1.89919e-07
5.33938e-09
1.89167e-07
5.35523e-09
1.88398e-07
5.39832e-09
1.87631e-07
6.12139e-09
6.62813e-09
1.86533e-07
2.24548e-07
7.4515e-08
2.27449e-07
8.28129e-08
2.2898e-07
5.91532e-08
2.30056e-07
5.02567e-08
2.30613e-07
4.50074e-08
2.30958e-07
3.99267e-08
2.3125e-07
3.61459e-08
2.31479e-07
3.34278e-08
2.31626e-07
3.1209e-08
2.31691e-07
2.92857e-08
2.31672e-07
2.76052e-08
2.31567e-07
2.61224e-08
2.31375e-07
2.4793e-08
2.31098e-07
2.35846e-08
2.30739e-07
2.2475e-08
2.30303e-07
2.14485e-08
2.29796e-07
2.0493e-08
2.29224e-07
1.95991e-08
2.28595e-07
1.87595e-08
2.27914e-07
1.7968e-08
2.27188e-07
1.72198e-08
2.26424e-07
1.65107e-08
2.25629e-07
1.58372e-08
2.24807e-07
1.51961e-08
2.23964e-07
1.45849e-08
2.23106e-07
1.4001e-08
2.22235e-07
1.34424e-08
2.21357e-07
1.29067e-08
2.20475e-07
1.23923e-08
2.19593e-07
1.1897e-08
2.18712e-07
1.14193e-08
2.17836e-07
1.09572e-08
2.16967e-07
1.0509e-08
2.16107e-07
1.00736e-08
2.15258e-07
9.64873e-09
2.14422e-07
9.23505e-09
2.136e-07
8.8282e-09
2.12794e-07
8.43431e-09
2.12005e-07
8.0429e-09
2.11234e-07
7.67301e-09
2.1048e-07
7.30024e-09
2.09747e-07
6.96998e-09
2.09028e-07
6.63406e-09
2.08332e-07
6.3777e-09
2.0764e-07
6.13766e-09
2.06969e-07
6.01008e-09
2.06291e-07
6.03396e-09
2.05585e-07
6.10406e-09
2.04885e-07
6.82112e-09
7.58677e-09
2.03926e-07
2.30974e-07
6.87467e-08
2.3391e-07
7.9877e-08
2.35383e-07
5.76798e-08
2.36468e-07
4.91725e-08
2.37059e-07
4.44166e-08
2.37418e-07
3.95675e-08
2.37731e-07
3.58322e-08
2.38006e-07
3.31529e-08
2.38229e-07
3.09859e-08
2.38403e-07
2.91119e-08
2.38529e-07
2.74791e-08
2.38606e-07
2.60459e-08
2.3863e-07
2.47691e-08
2.38599e-07
2.36153e-08
2.38513e-07
2.25611e-08
2.38371e-07
2.15899e-08
2.38176e-07
2.06885e-08
2.37928e-07
1.9847e-08
2.3763e-07
1.90571e-08
2.37286e-07
1.83123e-08
2.36898e-07
1.76074e-08
2.36471e-07
1.69379e-08
2.36008e-07
1.63002e-08
2.35513e-07
1.56912e-08
2.3499e-07
1.51083e-08
2.34442e-07
1.45491e-08
2.33873e-07
1.40115e-08
2.33286e-07
1.34938e-08
2.32684e-07
1.2994e-08
2.3207e-07
1.25106e-08
2.31448e-07
1.20419e-08
2.30819e-07
1.15863e-08
2.30185e-07
1.11423e-08
2.2955e-07
1.0709e-08
2.28915e-07
1.0284e-08
2.28281e-07
9.8684e-09
2.27652e-07
9.45797e-09
2.27027e-07
9.05871e-09
2.26409e-07
8.66112e-09
2.25799e-07
8.28276e-09
2.25197e-07
7.90289e-09
2.24605e-07
7.56122e-09
2.24019e-07
7.22048e-09
2.23447e-07
6.95004e-09
2.22872e-07
6.7121e-09
2.22309e-07
6.57329e-09
2.21737e-07
6.60553e-09
2.21132e-07
6.70981e-09
2.20535e-07
7.41815e-09
8.37544e-09
2.19746e-07
2.376e-07
6.32711e-08
2.40576e-07
7.69019e-08
2.41992e-07
5.62635e-08
2.43083e-07
4.8081e-08
2.43711e-07
4.37891e-08
2.44083e-07
3.91953e-08
2.44402e-07
3.55129e-08
2.4469e-07
3.28653e-08
2.44936e-07
3.07399e-08
2.45146e-07
2.89016e-08
2.45327e-07
2.72986e-08
2.45478e-07
2.58945e-08
2.45599e-07
2.46481e-08
2.45688e-07
2.35264e-08
2.45743e-07
2.25057e-08
2.45764e-07
2.15691e-08
2.4575e-07
2.07032e-08
2.45699e-07
1.98973e-08
2.45614e-07
1.91428e-08
2.45493e-07
1.84329e-08
2.45339e-07
1.77617e-08
2.45152e-07
1.71247e-08
2.44934e-07
1.65177e-08
2.44688e-07
1.59376e-08
2.44415e-07
1.53815e-08
2.44117e-07
1.4847e-08
2.43797e-07
1.4332e-08
2.43456e-07
1.38346e-08
2.43097e-07
1.33531e-08
2.42722e-07
1.28857e-08
2.42332e-07
1.24311e-08
2.41931e-07
1.19878e-08
2.41519e-07
1.1554e-08
2.41099e-07
1.11292e-08
2.40672e-07
1.0711e-08
2.4024e-07
1.03006e-08
2.39804e-07
9.89394e-09
2.39366e-07
9.49678e-09
2.38926e-07
9.10069e-09
2.38487e-07
8.72153e-09
2.38048e-07
8.34232e-09
2.37612e-07
7.99697e-09
2.37174e-07
7.65863e-09
2.36742e-07
7.38212e-09
2.36303e-07
7.15117e-09
2.35866e-07
7.00999e-09
2.35421e-07
7.05068e-09
2.34938e-07
7.19239e-09
2.34466e-07
7.89049e-09
8.97899e-09
2.33862e-07
2.44436e-07
5.80916e-08
2.47449e-07
7.38884e-08
2.4881e-07
5.49025e-08
2.49904e-07
4.69868e-08
2.5057e-07
4.31232e-08
2.50959e-07
3.88066e-08
2.51283e-07
3.51889e-08
2.51576e-07
3.25721e-08
2.5183e-07
3.04861e-08
2.52051e-07
2.86803e-08
2.52249e-07
2.71009e-08
2.52426e-07
2.57171e-08
2.52584e-07
2.44904e-08
2.52722e-07
2.33884e-08
2.5284e-07
2.2388e-08
2.52937e-07
2.14721e-08
2.53012e-07
2.06276e-08
2.53066e-07
1.98438e-08
2.53097e-07
1.91119e-08
2.53105e-07
1.84247e-08
2.5309e-07
1.77763e-08
2.53053e-07
1.71618e-08
2.52994e-07
1.65771e-08
2.52913e-07
1.60185e-08
2.52811e-07
1.54832e-08
2.52689e-07
1.49686e-08
2.52549e-07
1.44725e-08
2.52391e-07
1.39928e-08
2.52216e-07
1.35278e-08
2.52026e-07
1.30759e-08
2.51822e-07
1.26354e-08
2.51604e-07
1.22049e-08
2.51376e-07
1.17829e-08
2.51136e-07
1.13687e-08
2.50887e-07
1.09599e-08
2.5063e-07
1.05578e-08
2.50365e-07
1.01585e-08
2.50095e-07
9.76738e-09
2.49818e-07
9.37716e-09
2.49538e-07
9.00182e-09
2.49252e-07
8.62813e-09
2.48965e-07
8.28432e-09
2.48671e-07
7.95297e-09
2.48376e-07
7.67637e-09
2.48072e-07
7.45518e-09
2.47764e-07
7.31827e-09
2.47448e-07
7.36684e-09
2.47095e-07
7.54517e-09
2.46754e-07
8.23158e-09
9.39903e-09
2.46334e-07
2.51488e-07
5.32104e-08
2.5453e-07
7.08465e-08
2.55846e-07
5.3586e-08
2.56938e-07
4.58952e-08
2.57641e-07
4.24196e-08
2.58049e-07
3.83985e-08
2.58379e-07
3.48591e-08
2.58678e-07
3.22734e-08
2.58937e-07
3.02271e-08
2.59163e-07
2.84543e-08
2.59366e-07
2.68977e-08
2.59552e-07
2.55316e-08
2.59722e-07
2.43206e-08
2.59877e-07
2.32333e-08
2.60018e-07
2.22467e-08
2.60145e-07
2.13445e-08
2.60259e-07
2.05136e-08
2.6036e-07
1.97434e-08
2.60446e-07
1.90254e-08
2.60519e-07
1.83523e-08
2.60577e-07
1.77181e-08
2.60621e-07
1.7118e-08
2.6065e-07
1.65475e-08
2.60666e-07
1.60032e-08
2.60667e-07
1.54819e-08
2.60655e-07
1.49811e-08
2.60629e-07
1.44983e-08
2.6059e-07
1.40315e-08
2.60539e-07
1.3579e-08
2.60476e-07
1.31389e-08
2.60402e-07
1.27097e-08
2.60316e-07
1.229e-08
2.60221e-07
1.18781e-08
2.60117e-07
1.14734e-08
2.60003e-07
1.10736e-08
2.59881e-07
1.06798e-08
2.59751e-07
1.02884e-08
2.59614e-07
9.90432e-09
2.5947e-07
9.5214e-09
2.5932e-07
9.15171e-09
2.59162e-07
8.78554e-09
2.59001e-07
8.44596e-09
2.5883e-07
8.12355e-09
2.58656e-07
7.85047e-09
2.58472e-07
7.63965e-09
2.58279e-07
7.51098e-09
2.5808e-07
7.56593e-09
2.57848e-07
7.77651e-09
2.57631e-07
8.44901e-09
9.65166e-09
2.57378e-07
2.58766e-07
4.86278e-08
2.61825e-07
6.7787e-08
2.63108e-07
5.23029e-08
2.64192e-07
4.48113e-08
2.64931e-07
4.16806e-08
2.65361e-07
3.79691e-08
2.65697e-07
3.45225e-08
2.66002e-07
3.19689e-08
2.66267e-07
2.99623e-08
2.66497e-07
2.82243e-08
2.66703e-07
2.66914e-08
2.66892e-07
2.53429e-08
2.67065e-07
2.41468e-08
2.67226e-07
2.30725e-08
2.67375e-07
2.20978e-08
2.67513e-07
2.12063e-08
2.67642e-07
2.03854e-08
2.6776e-07
1.96248e-08
2.6787e-07
1.89161e-08
2.6797e-07
1.82521e-08
2.68061e-07
1.7627e-08
2.68143e-07
1.70357e-08
2.68216e-07
1.64742e-08
2.68281e-07
1.59387e-08
2.68337e-07
1.54262e-08
2.68384e-07
1.49339e-08
2.68422e-07
1.44596e-08
2.68453e-07
1.40012e-08
2.68475e-07
1.35567e-08
2.68489e-07
1.31246e-08
2.68496e-07
1.27031e-08
2.68495e-07
1.22909e-08
2.68487e-07
1.18863e-08
2.68471e-07
1.14887e-08
2.68449e-07
1.10958e-08
2.6842e-07
1.07086e-08
2.68385e-07
1.03239e-08
2.68343e-07
9.94591e-09
2.68295e-07
9.56975e-09
2.68241e-07
9.20558e-09
2.6818e-07
8.84689e-09
2.68114e-07
8.5122e-09
2.68039e-07
8.19862e-09
2.67958e-07
7.93061e-09
2.67869e-07
7.72912e-09
2.6777e-07
7.61005e-09
2.67667e-07
7.6691e-09
2.67538e-07
7.90491e-09
2.67427e-07
8.56012e-09
9.76242e-09
2.67316e-07
2.66278e-07
4.43424e-08
2.69344e-07
6.47203e-08
2.70605e-07
5.10426e-08
2.71677e-07
4.37394e-08
2.72448e-07
4.09093e-08
2.729e-07
3.75167e-08
2.73245e-07
3.41782e-08
2.73555e-07
3.16584e-08
2.73826e-07
2.96915e-08
2.7406e-07
2.79898e-08
2.7427e-07
2.6482e-08
2.74461e-07
2.51517e-08
2.74637e-07
2.39707e-08
2.748e-07
2.29095e-08
2.74952e-07
2.19461e-08
2.75093e-07
2.10645e-08
2.75226e-07
2.02525e-08
2.75351e-07
1.94999e-08
2.75469e-07
1.87986e-08
2.75579e-07
1.81415e-08
2.75683e-07
1.75228e-08
2.75781e-07
1.69378e-08
2.75874e-07
1.63821e-08
2.7596e-07
1.58523e-08
2.76041e-07
1.53452e-08
2.76117e-07
1.48582e-08
2.76187e-07
1.4389e-08
2.76253e-07
1.39355e-08
2.76314e-07
1.34959e-08
2.7637e-07
1.30685e-08
2.76421e-07
1.26517e-08
2.76468e-07
1.22441e-08
2.7651e-07
1.18441e-08
2.76548e-07
1.14509e-08
2.76581e-07
1.10627e-08
2.7661e-07
1.06799e-08
2.76634e-07
1.03001e-08
2.76653e-07
9.92655e-09
2.76667e-07
9.55571e-09
2.76677e-07
9.19595e-09
2.7668e-07
8.84356e-09
2.76679e-07
8.5133e-09
2.7667e-07
8.20722e-09
2.76657e-07
7.94437e-09
2.76635e-07
7.75016e-09
2.76605e-07
7.64007e-09
2.76574e-07
7.70044e-09
2.76526e-07
7.95288e-09
2.765e-07
8.5863e-09
9.75998e-09
2.76502e-07
2.74032e-07
4.03512e-08
2.77095e-07
6.16574e-08
2.78343e-07
4.97947e-08
2.79399e-07
4.2683e-08
2.80199e-07
4.01095e-08
2.80676e-07
3.70399e-08
2.81029e-07
3.38254e-08
2.81345e-07
3.13421e-08
2.81622e-07
2.94144e-08
2.81862e-07
2.77504e-08
2.82074e-07
2.62693e-08
2.82268e-07
2.4958e-08
2.82446e-07
2.37925e-08
2.82611e-07
2.27447e-08
2.82764e-07
2.17928e-08
2.82908e-07
2.09211e-08
2.83043e-07
2.01178e-08
2.8317e-07
1.93729e-08
2.8329e-07
1.86784e-08
2.83404e-07
1.80274e-08
2.83512e-07
1.74142e-08
2.83616e-07
1.68341e-08
2.83715e-07
1.6283e-08
2.8381e-07
1.57573e-08
2.83901e-07
1.5254e-08
2.83989e-07
1.47705e-08
2.84074e-07
1.43045e-08
2.84155e-07
1.3854e-08
2.84234e-07
1.34172e-08
2.8431e-07
1.29925e-08
2.84384e-07
1.25782e-08
2.84454e-07
1.21732e-08
2.84523e-07
1.17757e-08
2.84589e-07
1.13852e-08
2.84652e-07
1.09996e-08
2.84712e-07
1.06196e-08
2.84769e-07
1.02428e-08
2.84824e-07
9.8722e-09
2.84874e-07
9.50514e-09
2.84922e-07
9.14852e-09
2.84964e-07
8.80093e-09
2.85003e-07
8.47417e-09
2.85037e-07
8.17383e-09
2.85066e-07
7.91543e-09
2.8509e-07
7.72614e-09
2.85107e-07
7.62313e-09
2.85125e-07
7.6818e-09
2.85136e-07
7.94177e-09
2.85175e-07
8.54804e-09
9.67078e-09
2.85264e-07
2.82039e-07
3.66495e-08
2.85087e-07
5.86093e-08
2.86332e-07
4.85498e-08
2.8737e-07
4.16451e-08
2.88194e-07
3.92856e-08
2.88697e-07
3.65373e-08
2.89059e-07
3.3463e-08
2.89381e-07
3.10201e-08
2.89665e-07
2.91309e-08
2.89909e-07
2.75058e-08
2.90126e-07
2.60528e-08
2.90322e-07
2.47615e-08
2.90503e-07
2.36121e-08
2.90669e-07
2.25781e-08
2.90824e-07
2.1638e-08
2.90969e-07
2.07765e-08
2.91104e-07
1.9982e-08
2.91232e-07
1.92449e-08
2.91354e-07
1.85571e-08
2.91469e-07
1.7912e-08
2.91579e-07
1.73041e-08
2.91685e-07
1.67286e-08
2.91786e-07
1.61815e-08
2.91884e-07
1.56593e-08
2.91979e-07
1.51591e-08
2.92071e-07
1.46783e-08
2.92161e-07
1.42146e-08
2.92249e-07
1.37661e-08
2.92335e-07
1.33311e-08
2.9242e-07
1.29079e-08
2.92503e-07
1.24951e-08
2.92585e-07
1.20914e-08
2.92665e-07
1.16953e-08
2.92744e-07
1.13061e-08
2.92821e-07
1.09221e-08
2.92898e-07
1.05435e-08
2.92972e-07
1.01686e-08
2.93044e-07
9.79979e-09
2.93114e-07
9.43529e-09
2.93182e-07
9.08076e-09
2.93246e-07
8.73661e-09
2.93308e-07
8.41244e-09
2.93365e-07
8.11613e-09
2.9342e-07
7.86116e-09
2.93471e-07
7.67451e-09
2.93518e-07
7.576e-09
2.9357e-07
7.62997e-09
2.93624e-07
7.88841e-09
2.9371e-07
8.46161e-09
9.51611e-09
2.93865e-07
2.90307e-07
3.32308e-08
2.9333e-07
5.55871e-08
2.9458e-07
4.72991e-08
2.95598e-07
4.06277e-08
2.96441e-07
3.84425e-08
2.9697e-07
3.60078e-08
2.97344e-07
3.30897e-08
2.97671e-07
3.06923e-08
2.97961e-07
2.88409e-08
2.98212e-07
2.72555e-08
2.98432e-07
2.58324e-08
2.98632e-07
2.4562e-08
2.98814e-07
2.34292e-08
2.98983e-07
2.24094e-08
2.99139e-07
2.14816e-08
2.99285e-07
2.06306e-08
2.99422e-07
1.98452e-08
2.99551e-07
1.91159e-08
2.99673e-07
1.8435e-08
2.99789e-07
1.7796e-08
2.999e-07
1.71933e-08
3.00006e-07
1.66224e-08
3.00108e-07
1.60792e-08
3.00207e-07
1.55604e-08
3.00303e-07
1.5063e-08
3.00397e-07
1.45846e-08
3.00489e-07
1.41229e-08
3.00579e-07
1.3676e-08
3.00668e-07
1.32422e-08
3.00756e-07
1.28202e-08
3.00843e-07
1.24082e-08
3.00929e-07
1.20053e-08
3.01014e-07
1.161e-08
3.01099e-07
1.12215e-08
3.01183e-07
1.08382e-08
3.01266e-07
1.04605e-08
3.01348e-07
1.00868e-08
3.01428e-07
9.71893e-09
3.01507e-07
9.35616e-09
3.01585e-07
9.00301e-09
3.01661e-07
8.66127e-09
3.01734e-07
8.33895e-09
3.01805e-07
8.04524e-09
3.01874e-07
7.79259e-09
3.01941e-07
7.6066e-09
3.02008e-07
7.5097e-09
3.02082e-07
7.55601e-09
3.02166e-07
7.80454e-09
3.02289e-07
8.33842e-09
9.31108e-09
3.02494e-07
2.98846e-07
3.0087e-08
3.01831e-07
5.26021e-08
3.03096e-07
4.60346e-08
3.04092e-07
3.96321e-08
3.04948e-07
3.75856e-08
3.05505e-07
3.54509e-08
3.05891e-07
3.27039e-08
3.06225e-07
3.03588e-08
3.06521e-07
2.85445e-08
3.06777e-07
2.69994e-08
3.07002e-07
2.56077e-08
3.07205e-07
2.43592e-08
3.0739e-07
2.32437e-08
3.07561e-07
2.22386e-08
3.07719e-07
2.13234e-08
3.07866e-07
2.04833e-08
3.08004e-07
1.97072e-08
3.08134e-07
1.89861e-08
3.08257e-07
1.83122e-08
3.08374e-07
1.76794e-08
3.08485e-07
1.7082e-08
3.08592e-07
1.65157e-08
3.08695e-07
1.59765e-08
3.08794e-07
1.5461e-08
3.08891e-07
1.49664e-08
3.08985e-07
1.44903e-08
3.09077e-07
1.40304e-08
3.09168e-07
1.3585e-08
3.09258e-07
1.31524e-08
3.09347e-07
1.27312e-08
3.09435e-07
1.232e-08
3.09523e-07
1.19176e-08
3.0961e-07
1.15227e-08
3.09697e-07
1.11346e-08
3.09783e-07
1.07518e-08
3.09869e-07
1.03746e-08
3.09955e-07
1.00016e-08
3.10039e-07
9.63441e-09
3.10122e-07
9.27284e-09
3.10205e-07
8.92064e-09
3.10286e-07
8.58056e-09
3.10365e-07
8.25951e-09
3.10443e-07
7.96726e-09
3.1052e-07
7.71582e-09
3.10598e-07
7.52877e-09
3.10677e-07
7.43053e-09
3.10766e-07
7.46626e-09
3.10874e-07
7.69724e-09
3.11027e-07
8.1855e-09
9.06567e-09
3.11272e-07
3.07666e-07
2.72082e-08
3.10603e-07
4.96655e-08
3.11888e-07
4.47495e-08
3.12861e-07
3.86588e-08
3.13727e-07
3.672e-08
3.14311e-07
3.48667e-08
3.1471e-07
3.23043e-08
3.1505e-07
3.00193e-08
3.15353e-07
2.82417e-08
3.15615e-07
2.6737e-08
3.15845e-07
2.53783e-08
3.16051e-07
2.4153e-08
3.16239e-07
2.30553e-08
3.16412e-07
2.20654e-08
3.16573e-07
2.11633e-08
3.16721e-07
2.03344e-08
3.16861e-07
1.95679e-08
3.16992e-07
1.88551e-08
3.17115e-07
1.81886e-08
3.17233e-07
1.7562e-08
3.17345e-07
1.69701e-08
3.17452e-07
1.64085e-08
3.17555e-07
1.58733e-08
3.17655e-07
1.53612e-08
3.17752e-07
1.48695e-08
3.17846e-07
1.43957e-08
3.17939e-07
1.39377e-08
3.1803e-07
1.34937e-08
3.18121e-07
1.30622e-08
3.1821e-07
1.26418e-08
3.18299e-07
1.22311e-08
3.18387e-07
1.18292e-08
3.18475e-07
1.14346e-08
3.18563e-07
1.10468e-08
3.18651e-07
1.06644e-08
3.18738e-07
1.02874e-08
3.18824e-07
9.91499e-09
3.18911e-07
9.54828e-09
3.18996e-07
9.18758e-09
3.1908e-07
8.83607e-09
3.19164e-07
8.49708e-09
3.19247e-07
8.17682e-09
3.19329e-07
7.8851e-09
3.19411e-07
7.63376e-09
3.19495e-07
7.44411e-09
3.19584e-07
7.34161e-09
3.19687e-07
7.36381e-09
3.19814e-07
7.57041e-09
3.19992e-07
8.0069e-09
8.78622e-09
3.20272e-07
3.16776e-07
2.45833e-08
3.19653e-07
4.67884e-08
3.20964e-07
4.34382e-08
3.21916e-07
3.77074e-08
3.22785e-07
3.58508e-08
3.23396e-07
3.42561e-08
3.23811e-07
3.18892e-08
3.24157e-07
2.96734e-08
3.24466e-07
2.79325e-08
3.24735e-07
2.64681e-08
3.24969e-07
2.51438e-08
3.25179e-07
2.3943e-08
3.25371e-07
2.28639e-08
3.25546e-07
2.18896e-08
3.25709e-07
2.1001e-08
3.25859e-07
2.01837e-08
3.26e-07
1.94272e-08
3.26132e-07
1.87229e-08
3.26257e-07
1.80638e-08
3.26375e-07
1.74437e-08
3.26488e-07
1.68575e-08
3.26596e-07
1.63007e-08
3.26699e-07
1.57696e-08
3.268e-07
1.5261e-08
3.26897e-07
1.47722e-08
3.26992e-07
1.43007e-08
3.27085e-07
1.38445e-08
3.27177e-07
1.3402e-08
3.27267e-07
1.29716e-08
3.27357e-07
1.2552e-08
3.27446e-07
1.21419e-08
3.27535e-07
1.17403e-08
3.27624e-07
1.13461e-08
3.27712e-07
1.09585e-08
3.278e-07
1.05764e-08
3.27888e-07
1.01997e-08
3.27975e-07
9.82766e-09
3.28062e-07
9.46129e-09
3.28148e-07
9.10124e-09
3.28234e-07
8.75021e-09
3.28319e-07
8.41187e-09
3.28404e-07
8.09196e-09
3.28489e-07
7.79995e-09
3.28576e-07
7.54757e-09
3.28666e-07
7.35386e-09
3.28763e-07
7.24424e-09
3.28877e-07
7.24992e-09
3.29021e-07
7.42606e-09
3.29223e-07
7.80496e-09
8.47685e-09
3.29533e-07
3.26186e-07
2.21995e-08
3.28993e-07
4.39817e-08
3.30335e-07
4.20966e-08
3.31265e-07
3.67767e-08
3.32133e-07
3.49828e-08
3.32769e-07
3.36204e-08
3.33201e-07
3.14573e-08
3.33554e-07
2.93206e-08
3.33869e-07
2.7617e-08
3.34145e-07
2.61926e-08
3.34385e-07
2.4904e-08
3.34599e-07
2.3729e-08
3.34793e-07
2.26691e-08
3.34972e-07
2.1711e-08
3.35137e-07
2.08363e-08
3.35289e-07
2.0031e-08
3.35432e-07
1.92847e-08
3.35565e-07
1.85894e-08
3.35691e-07
1.7938e-08
3.3581e-07
1.73245e-08
3.35924e-07
1.6744e-08
3.36032e-07
1.61922e-08
3.36137e-07
1.56653e-08
3.36237e-07
1.51603e-08
3.36335e-07
1.46744e-08
3.36431e-07
1.42053e-08
3.36524e-07
1.3751e-08
3.36616e-07
1.33099e-08
3.36707e-07
1.28806e-08
3.36797e-07
1.24618e-08
3.36887e-07
1.20523e-08
3.36976e-07
1.16511e-08
3.37065e-07