/*--------------------------------*- C++ -*----------------------------------*\
  =========                 |
  \\      /  F ield         | OpenFOAM: The Open Source CFD Toolbox
   \\    /   O peration     | Website:  https://openfoam.org
    \\  /    A nd           | Version:  7
     \\/     M anipulation  |
\*---------------------------------------------------------------------------*/
FoamFile
{
    version     2.0;
    format      ascii;
    class       volVectorField;
    location    "0.43";
    object      U;
}
// * * * * * * * * * * * * * * * * * * * * * * * * * * * * * * * * * * * * * //

dimensions      [0 1 -1 0 0 0 0];

internalField   nonuniform List<vector> 
70000
(
(0.553413 0.0169782 0)
(0.251415 0.00340047 0)
(0.165923 0.000319024 0)
(0.132442 4.90782e-05 0)
(0.11734 4.41216e-05 0)
(0.107385 5.22785e-05 0)
(0.0994185 4.44729e-05 0)
(0.092979 3.53934e-05 0)
(0.0877389 2.93545e-05 0)
(0.0833737 2.52162e-05 0)
(0.0796553 2.20536e-05 0)
(0.0764364 1.95173e-05 0)
(0.0736158 1.74478e-05 0)
(0.0711195 1.57363e-05 0)
(0.0688915 1.43023e-05 0)
(0.0668883 1.30866e-05 0)
(0.0650758 1.20447e-05 0)
(0.0634267 1.11435e-05 0)
(0.061919 1.03569e-05 0)
(0.0605346 9.66521e-06 0)
(0.0592587 9.05232e-06 0)
(0.058079 8.5057e-06 0)
(0.0569848 8.01498e-06 0)
(0.0559675 7.57213e-06 0)
(0.0550196 7.17006e-06 0)
(0.0541345 6.80401e-06 0)
(0.0533069 6.46861e-06 0)
(0.0525317 6.16195e-06 0)
(0.0518051 5.87918e-06 0)
(0.0511231 5.62207e-06 0)
(0.0504828 5.38383e-06 0)
(0.0498811 5.17364e-06 0)
(0.0493158 4.97779e-06 0)
(0.0487841 4.82054e-06 0)
(0.0482846 4.67343e-06 0)
(0.0478144 4.58597e-06 0)
(0.0473719 4.5115e-06 0)
(0.0469551 4.5198e-06 0)
(0.0465593 4.58841e-06 0)
(0.0461877 4.7034e-06 0)
(0.0458217 5.11926e-06 0)
(0.0454873 5.23085e-06 0)
(0.0451157 6.59533e-06 0)
(0.0448167 6.07194e-06 0)
(0.0443565 1.02094e-05 0)
(0.0441235 6.43903e-06 0)
(0.0433641 1.91169e-05 0)
(0.0433518 2.28227e-06 0)
(0.041908 4.44795e-05 0)
(0.0395551 -0.00156869 0)
(0.884862 0.0434934 0)
(0.650146 0.0201491 0)
(0.493977 0.00660469 0)
(0.403563 0.00275464 0)
(0.354864 0.00154774 0)
(0.323563 0.00113143 0)
(0.299678 0.000909027 0)
(0.280482 0.000744491 0)
(0.264781 0.000621851 0)
(0.251671 0.000531407 0)
(0.240501 0.000462727 0)
(0.230832 0.000408653 0)
(0.222357 0.000364936 0)
(0.214853 0.000328931 0)
(0.208154 0.000298836 0)
(0.202128 0.000273359 0)
(0.196674 0.000251547 0)
(0.191711 0.000232684 0)
(0.187171 0.000216219 0)
(0.183002 0.000201728 0)
(0.179158 0.000188874 0)
(0.175603 0.000177389 0)
(0.172305 0.000167058 0)
(0.169238 0.000157703 0)
(0.16638 0.000149178 0)
(0.16371 0.000141365 0)
(0.161213 0.000134159 0)
(0.158875 0.000127478 0)
(0.156682 0.000121244 0)
(0.154624 0.000115403 0)
(0.152693 0.000109889 0)
(0.150878 0.000104681 0)
(0.149175 9.97076e-05 0)
(0.147576 9.50072e-05 0)
(0.146076 9.0466e-05 0)
(0.144669 8.62519e-05 0)
(0.143352 8.21327e-05 0)
(0.142119 7.85465e-05 0)
(0.140962 7.5021e-05 0)
(0.139889 7.24737e-05 0)
(0.138856 7.011e-05 0)
(0.137936 6.94224e-05 0)
(0.136952 6.97624e-05 0)
(0.1362 7.21632e-05 0)
(0.135074 7.93483e-05 0)
(0.134597 8.51279e-05 0)
(0.132828 0.000112511 0)
(0.133008 9.40715e-05 0)
(0.129656 0.000348153 0)
(0.127947 -0.00241718 0)
(0.991208 0.0499558 0)
(0.890922 0.030563 0)
(0.762492 0.0146104 0)
(0.656546 0.00797014 0)
(0.585459 0.00487861 0)
(0.53611 0.00347345 0)
(0.498238 0.00273734 0)
(0.467626 0.00224324 0)
(0.442329 0.00187971 0)
(0.421035 0.00160826 0)
(0.402798 0.00140093 0)
(0.386949 0.00123768 0)
(0.373016 0.00110578 0)
(0.360648 0.000997144 0)
(0.349581 0.000906313 0)
(0.339609 0.000829392 0)
(0.330567 0.000763511 0)
(0.322327 0.000706516 0)
(0.314781 0.000656754 0)
(0.307842 0.000612944 0)
(0.301438 0.000574075 0)
(0.295509 0.000539341 0)
(0.290003 0.00050809 0)
(0.284878 0.00047979 0)
(0.280097 0.000454001 0)
(0.275628 0.000430358 0)
(0.271444 0.00040855 0)
(0.267521 0.000388316 0)
(0.263839 0.000369427 0)
(0.260381 0.000351692 0)
(0.257131 0.00033493 0)
(0.254075 0.000319022 0)
(0.251204 0.000303789 0)
(0.248504 0.000289237 0)
(0.24597 0.000275106 0)
(0.243591 0.000261689 0)
(0.241363 0.000248425 0)
(0.239279 0.000236323 0)
(0.237325 0.000223997 0)
(0.235518 0.000214156 0)
(0.233793 0.000203417 0)
(0.23226 0.000198254 0)
(0.230666 0.000191049 0)
(0.229443 0.000195688 0)
(0.227733 0.000197309 0)
(0.226989 0.000219964 0)
(0.224513 0.000251435 0)
(0.224749 0.000247701 0)
(0.220266 0.000607148 0)
(0.220152 -0.00211188 0)
(1.01554 0.0489541 0)
(1.00649 0.0357246 0)
(0.935886 0.020819 0)
(0.852022 0.0134972 0)
(0.782266 0.00919592 0)
(0.727143 0.00678098 0)
(0.682081 0.00538484 0)
(0.644347 0.00444389 0)
(0.612357 0.00374957 0)
(0.584916 0.00322397 0)
(0.561084 0.00281792 0)
(0.540157 0.00249604 0)
(0.521607 0.00223485 0)
(0.505032 0.00201898 0)
(0.490117 0.00183795 0)
(0.476614 0.00168423 0)
(0.464324 0.00155229 0)
(0.453083 0.00143793 0)
(0.442759 0.00133793 0)
(0.43324 0.00124978 0)
(0.424434 0.00117148 0)
(0.416262 0.00110145 0)
(0.408659 0.00103839 0)
(0.401569 0.000981266 0)
(0.394942 0.00092919 0)
(0.388737 0.000881436 0)
(0.382918 0.000837387 0)
(0.377453 0.000796513 0)
(0.372315 0.000758359 0)
(0.367481 0.000722529 0)
(0.362929 0.000688666 0)
(0.358642 0.000656492 0)
(0.354605 0.00062568 0)
(0.350803 0.000596144 0)
(0.347225 0.000567437 0)
(0.343859 0.000539944 0)
(0.340699 0.000512684 0)
(0.337736 0.000487343 0)
(0.334954 0.000461254 0)
(0.332371 0.000439565 0)
(0.329916 0.000414979 0)
(0.327712 0.000401371 0)
(0.325477 0.000379819 0)
(0.3237 0.000384721 0)
(0.32142 0.000370955 0)
(0.320254 0.000413781 0)
(0.317263 0.000434449 0)
(0.317182 0.00046496 0)
(0.312265 0.000846653 0)
(0.312309 -0.00144324 0)
(1.01435 0.0460985 0)
(1.04798 0.0373418 0)
(1.02456 0.0241865 0)
(0.974683 0.0175557 0)
(0.923502 0.0131058 0)
(0.876798 0.0102014 0)
(0.834667 0.00834105 0)
(0.796956 0.00701843 0)
(0.763435 0.00600791 0)
(0.733661 0.00522064 0)
(0.707117 0.00459891 0)
(0.683334 0.00409824 0)
(0.661914 0.00368719 0)
(0.642526 0.00334434 0)
(0.624894 0.00305464 0)
(0.608789 0.00280713 0)
(0.59402 0.00259355 0)
(0.580424 0.0024076 0)
(0.567865 0.00224439 0)
(0.556229 0.00210004 0)
(0.545418 0.00197148 0)
(0.535346 0.00185623 0)
(0.525941 0.00175226 0)
(0.517142 0.0016579 0)
(0.508893 0.00157177 0)
(0.501148 0.00149271 0)
(0.493865 0.00141973 0)
(0.487008 0.00135196 0)
(0.480545 0.00128868 0)
(0.474449 0.00122924 0)
(0.468696 0.00117306 0)
(0.463263 0.00111966 0)
(0.458133 0.00106853 0)
(0.453288 0.00101944 0)
(0.448718 0.000971748 0)
(0.444405 0.00092588 0)
(0.440342 0.000880388 0)
(0.43652 0.000837649 0)
(0.432921 0.000793571 0)
(0.429561 0.000755945 0)
(0.426371 0.000713077 0)
(0.423469 0.00068701 0)
(0.420582 0.000646221 0)
(0.41818 0.000647441 0)
(0.415346 0.000613209 0)
(0.413601 0.00067082 0)
(0.410229 0.000678652 0)
(0.409456 0.000735353 0)
(0.404607 0.00113846 0)
(0.403629 -0.000726627 0)
(1.00941 0.0430482 0)
(1.05563 0.0370975 0)
(1.05867 0.0253281 0)
(1.0363 0.0197604 0)
(1.00713 0.015793 0)
(0.976137 0.0129276 0)
(0.944638 0.0109554 0)
(0.913807 0.00947192 0)
(0.884496 0.00828075 0)
(0.857085 0.00731331 0)
(0.831647 0.00652379 0)
(0.808119 0.00587164 0)
(0.78638 0.00532545 0)
(0.766288 0.00486248 0)
(0.747697 0.00446609 0)
(0.730468 0.00412365 0)
(0.71447 0.0038254 0)
(0.699587 0.00356369 0)
(0.685713 0.0033324 0)
(0.672754 0.00312665 0)
(0.660627 0.00294248 0)
(0.649259 0.00277664 0)
(0.638583 0.00262647 0)
(0.628544 0.00248974 0)
(0.619088 0.00236458 0)
(0.610171 0.00224942 0)
(0.601753 0.00214288 0)
(0.593797 0.0020438 0)
(0.586272 0.00195116 0)
(0.57915 0.00186404 0)
(0.572405 0.00178163 0)
(0.566016 0.00170324 0)
(0.559963 0.00162816 0)
(0.554228 0.001556 0)
(0.5488 0.0014859 0)
(0.543659 0.0014183 0)
(0.5388 0.0013513 0)
(0.534209 0.00128789 0)
(0.529872 0.00122265 0)
(0.5258 0.00116576 0)
(0.521931 0.00110156 0)
(0.518366 0.00105931 0)
(0.514869 0.000996758 0)
(0.511836 0.000989083 0)
(0.508494 0.000934341 0)
(0.506093 0.000995884 0)
(0.502433 0.000999365 0)
(0.500788 0.00106223 0)
(0.496153 0.00150528 0)
(0.493961 4.60668e-05 0)
(1.00635 0.0401804 0)
(1.05241 0.0361511 0)
(1.06605 0.025252 0)
(1.05952 0.0205656 0)
(1.04689 0.0172198 0)
(1.03085 0.0146449 0)
(1.01197 0.0128125 0)
(0.991312 0.0113858 0)
(0.969942 0.0101879 0)
(0.948583 0.00917229 0)
(0.927673 0.00831252 0)
(0.907475 0.00758013 0)
(0.888133 0.00695058 0)
(0.869716 0.00640511 0)
(0.852244 0.00592929 0)
(0.835705 0.00551165 0)
(0.820067 0.00514291 0)
(0.805289 0.00481551 0)
(0.791324 0.0045232 0)
(0.778123 0.00426083 0)
(0.76564 0.00402413 0)
(0.753826 0.00380953 0)
(0.74264 0.00361401 0)
(0.73204 0.00343504 0)
(0.721988 0.00327044 0)
(0.71245 0.00311835 0)
(0.703392 0.00297715 0)
(0.694787 0.00284542 0)
(0.686608 0.0027219 0)
(0.678829 0.00260546 0)
(0.671431 0.00249511 0)
(0.664392 0.00238994 0)
(0.657697 0.00228909 0)
(0.651327 0.00219201 0)
(0.645273 0.00209763 0)
(0.639517 0.00200639 0)
(0.634054 0.00191601 0)
(0.62887 0.00182993 0)
(0.623955 0.0017417 0)
(0.619311 0.00166331 0)
(0.614894 0.00157624 0)
(0.610775 0.00151488 0)
(0.606774 0.00143007 0)
(0.603185 0.00140831 0)
(0.599422 0.00133601 0)
(0.596407 0.00139011 0)
(0.592522 0.00139905 0)
(0.590056 0.00145556 0)
(0.585562 0.00194007 0)
(0.582424 0.000889926 0)
(1.00506 0.0375033 0)
(1.04762 0.0350531 0)
(1.06395 0.0247051 0)
(1.06417 0.0205974 0)
(1.06068 0.0177585 0)
(1.05478 0.0154856 0)
(1.04603 0.013868 0)
(1.03486 0.0126057 0)
(1.02198 0.0115181 0)
(1.00799 0.0105653 0)
(0.993352 0.00973297 0)
(0.978407 0.00900319 0)
(0.963422 0.00835897 0)
(0.948591 0.00778717 0)
(0.934048 0.00727752 0)
(0.919886 0.00682157 0)
(0.906165 0.00641215 0)
(0.892918 0.00604312 0)
(0.880165 0.00570923 0)
(0.867911 0.00540597 0)
(0.856151 0.00512947 0)
(0.844879 0.0048764 0)
(0.834079 0.00464388 0)
(0.823738 0.00442941 0)
(0.813839 0.00423081 0)
(0.804363 0.00404618 0)
(0.795295 0.00387383 0)
(0.786616 0.00371223 0)
(0.778311 0.00356005 0)
(0.770363 0.00341602 0)
(0.762759 0.00327905 0)
(0.755484 0.00314809 0)
(0.748528 0.00302217 0)
(0.741877 0.00290063 0)
(0.735523 0.00278224 0)
(0.729454 0.00266744 0)
(0.723665 0.00255368 0)
(0.718145 0.00244468 0)
(0.712888 0.00233335 0)
(0.707892 0.00223278 0)
(0.703128 0.00212294 0)
(0.69864 0.00204087 0)
(0.694302 0.00193491 0)
(0.690315 0.00189527 0)
(0.686266 0.00180923 0)
(0.682779 0.00184786 0)
(0.678744 0.00186797 0)
(0.67565 0.00191719 0)
(0.671227 0.0024332 0)
(0.667464 0.00178074 0)
(1.00451 0.0349675 0)
(1.04359 0.0339736 0)
(1.05993 0.0240549 0)
(1.06222 0.0203088 0)
(1.0625 0.017824 0)
(1.06183 0.0157654 0)
(1.05926 0.0143211 0)
(1.05473 0.0132239 0)
(1.04853 0.0122778 0)
(1.041 0.0114364 0)
(1.0324 0.0106882 0)
(1.02298 0.0100192 0)
(1.01297 0.00941614 0)
(1.00258 0.00886957 0)
(0.991949 0.0083725 0)
(0.981223 0.00791927 0)
(0.970501 0.00750503 0)
(0.959864 0.00712554 0)
(0.949374 0.00677701 0)
(0.939076 0.00645609 0)
(0.929006 0.0061598 0)
(0.919187 0.00588548 0)
(0.909636 0.00563079 0)
(0.900363 0.0053936 0)
(0.891375 0.00517205 0)
(0.882673 0.00496441 0)
(0.874259 0.00476917 0)
(0.866128 0.00458487 0)
(0.858279 0.00441024 0)
(0.850706 0.00424404 0)
(0.843405 0.00408518 0)
(0.836371 0.00393257 0)
(0.829598 0.00378521 0)
(0.823081 0.00364238 0)
(0.816818 0.00350281 0)
(0.810799 0.0033669 0)
(0.805027 0.00323198 0)
(0.79949 0.00310191 0)
(0.79419 0.00296936 0)
(0.789122 0.00284783 0)
(0.78427 0.00271707 0)
(0.779658 0.00261457 0)
(0.775206 0.00248993 0)
(0.771041 0.00243085 0)
(0.766884 0.00233489 0)
(0.76314 0.00235444 0)
(0.759073 0.00238759 0)
(0.755602 0.00243541 0)
(0.751274 0.00297183 0)
(0.747184 0.0026863 0)
(1.00412 0.0325371 0)
(1.04026 0.0329206 0)
(1.05616 0.0234209 0)
(1.05886 0.0199252 0)
(1.06023 0.0176959 0)
(1.0616 0.0157688 0)
(1.06197 0.0144254 0)
(1.06108 0.0134429 0)
(1.05904 0.0126121 0)
(1.05594 0.0118758 0)
(1.05189 0.0112201 0)
(1.04698 0.0106307 0)
(1.04135 0.0100943 0)
(1.03511 0.00960211 0)
(1.02838 0.00914811 0)
(1.02128 0.008728 0)
(1.0139 0.00833828 0)
(1.00632 0.00797598 0)
(0.998619 0.0076385 0)
(0.990855 0.00732351 0)
(0.983079 0.00702894 0)
(0.975333 0.00675288 0)
(0.967653 0.00649362 0)
(0.960065 0.00624958 0)
(0.952594 0.00601933 0)
(0.945255 0.00580152 0)
(0.938065 0.0055949 0)
(0.931033 0.00539827 0)
(0.924168 0.00521054 0)
(0.917476 0.00503059 0)
(0.910962 0.00485745 0)
(0.904629 0.00469009 0)
(0.898481 0.00452755 0)
(0.892517 0.00436915 0)
(0.886742 0.00421361 0)
(0.881153 0.00406135 0)
(0.875755 0.00390969 0)
(0.870544 0.00376254 0)
(0.865523 0.00361262 0)
(0.86069 0.00347338 0)
(0.856037 0.00332531 0)
(0.85158 0.00320468 0)
(0.847266 0.00306509 0)
(0.843177 0.0029875 0)
(0.839129 0.00288544 0)
(0.835372 0.00288623 0)
(0.831436 0.00293233 0)
(0.827855 0.00298718 0)
(0.823725 0.00353583 0)
(0.819595 0.0035731 0)
(1.00374 0.030203 0)
(1.03727 0.0318718 0)
(1.05283 0.0228181 0)
(1.05562 0.0195239 0)
(1.05714 0.0175065 0)
(1.05906 0.0156679 0)
(1.0605 0.0143719 0)
(1.06119 0.0134524 0)
(1.06121 0.0126945 0)
(1.06058 0.0120317 0)
(1.0593 0.0114477 0)
(1.05739 0.0109269 0)
(1.05487 0.0104545 0)
(1.05179 0.0100206 0)
(1.04821 0.00961849 0)
(1.0442 0.00924387 0)
(1.0398 0.00889335 0)
(1.03509 0.00856431 0)
(1.03011 0.00825459 0)
(1.02492 0.00796237 0)
(1.01956 0.00768607 0)
(1.01409 0.0074243 0)
(1.00853 0.00717582 0)
(1.00291 0.00693947 0)
(0.997275 0.00671422 0)
(0.991638 0.00649904 0)
(0.986025 0.00629303 0)
(0.980452 0.00609522 0)
(0.974937 0.00590477 0)
(0.969491 0.00572072 0)
(0.964128 0.00554227 0)
(0.958856 0.00536852 0)
(0.953684 0.00519859 0)
(0.948619 0.00503187 0)
(0.943669 0.00486716 0)
(0.938837 0.00470492 0)
(0.934131 0.00454253 0)
(0.929552 0.00438389 0)
(0.925106 0.00422202 0)
(0.920795 0.00406993 0)
(0.916615 0.00390958 0)
(0.912579 0.00377485 0)
(0.908654 0.00362515 0)
(0.90489 0.00353211 0)
(0.901171 0.00342795 0)
(0.897645 0.00341326 0)
(0.894023 0.00347164 0)
(0.890588 0.00354224 0)
(0.8868 0.00409766 0)
(0.882898 0.00440653 0)
(1.00337 0.0279676 0)
(1.03443 0.0308151 0)
(1.04972 0.0222403 0)
(1.05266 0.0191198 0)
(1.05413 0.0172986 0)
(1.05612 0.015538 0)
(1.05783 0.0142638 0)
(1.05905 0.0133746 0)
(1.05987 0.0126568 0)
(1.06035 0.0120367 0)
(1.06046 0.0114971 0)
(1.06018 0.0110225 0)
(1.0595 0.0105969 0)
(1.05842 0.0102091 0)
(1.05696 0.00985157 0)
(1.05514 0.00951914 0)
(1.05298 0.00920795 0)
(1.0505 0.00891505 0)
(1.04774 0.00863814 0)
(1.04474 0.00837537 0)
(1.04151 0.00812524 0)
(1.0381 0.00788647 0)
(1.03452 0.00765798 0)
(1.03081 0.00743883 0)
(1.027 0.00722815 0)
(1.0231 0.00702516 0)
(1.01914 0.00682912 0)
(1.01513 0.00663929 0)
(1.0111 0.00645497 0)
(1.00706 0.00627539 0)
(1.00302 0.00609987 0)
(0.998994 0.00592763 0)
(0.994997 0.0057579 0)
(0.991036 0.00559018 0)
(0.987122 0.00542328 0)
(0.983262 0.00525778 0)
(0.979465 0.00509113 0)
(0.975735 0.00492719 0)
(0.972081 0.00475942 0)
(0.968506 0.00460016 0)
(0.965011 0.00443327 0)
(0.961607 0.00428952 0)
(0.958272 0.00413508 0)
(0.95504 0.00403109 0)
(0.95184 0.00392887 0)
(0.948751 0.00390386 0)
(0.945607 0.00397387 0)
(0.94254 0.00406782 0)
(0.939236 0.00462655 0)
(0.935785 0.00515407 0)
(1.00301 0.0258345 0)
(1.03171 0.0297462 0)
(1.04673 0.0216837 0)
(1.04986 0.0187129 0)
(1.05132 0.0170789 0)
(1.05326 0.0154011 0)
(1.05501 0.014142 0)
(1.05634 0.0132686 0)
(1.0574 0.0125733 0)
(1.05826 0.0119764 0)
(1.05893 0.011461 0)
(1.05939 0.0110125 0)
(1.05961 0.0106153 0)
(1.0596 0.0102573 0)
(1.05934 0.00993056 0)
(1.05883 0.00962912 0)
(1.05809 0.0093486 0)
(1.0571 0.00908563 0)
(1.05589 0.00883751 0)
(1.05446 0.00860212 0)
(1.05283 0.00837774 0)
(1.05102 0.00816297 0)
(1.04904 0.00795666 0)
(1.0469 0.00775781 0)
(1.04464 0.00756559 0)
(1.04226 0.00737924 0)
(1.03977 0.00719809 0)
(1.0372 0.00702145 0)
(1.03456 0.00684872 0)
(1.03186 0.00667922 0)
(1.02911 0.00651231 0)
(1.02632 0.00634734 0)
(1.02352 0.00618356 0)
(1.0207 0.00602056 0)
(1.01787 0.00585719 0)
(1.01505 0.0056941 0)
(1.01225 0.00552883 0)
(1.00946 0.00536514 0)
(1.00669 0.00519703 0)
(1.00396 0.00503595 0)
(1.00127 0.00486799 0)
(0.998613 0.00472034 0)
(0.99599 0.0045663 0)
(0.993418 0.00445636 0)
(0.990857 0.00435969 0)
(0.988345 0.00433021 0)
(0.985793 0.00441132 0)
(0.983249 0.00453396 0)
(0.980536 0.00509412 0)
(0.977692 0.00578927 0)
(1.00268 0.0238062 0)
(1.02911 0.0286635 0)
(1.04381 0.0211478 0)
(1.04717 0.0183029 0)
(1.04863 0.0168458 0)
(1.05054 0.0152597 0)
(1.05228 0.0140174 0)
(1.05362 0.0131552 0)
(1.05471 0.0124758 0)
(1.05567 0.0118934 0)
(1.05651 0.0113911 0)
(1.05723 0.0109566 0)
(1.05782 0.0105748 0)
(1.05827 0.0102338 0)
(1.05858 0.00992517 0)
(1.05875 0.00964296 0)
(1.05876 0.00938248 0)
(1.05862 0.00914002 0)
(1.05833 0.00891261 0)
(1.05789 0.00869784 0)
(1.05729 0.00849377 0)
(1.05656 0.00829879 0)
(1.05568 0.00811156 0)
(1.05468 0.00793098 0)
(1.05356 0.00775609 0)
(1.05233 0.00758607 0)
(1.05099 0.00742019 0)
(1.04957 0.00725776 0)
(1.04806 0.00709815 0)
(1.04647 0.00694069 0)
(1.04482 0.00678477 0)
(1.04312 0.00662975 0)
(1.04136 0.00647489 0)
(1.03957 0.00631984 0)
(1.03774 0.00616343 0)
(1.03589 0.00600636 0)
(1.03401 0.00584625 0)
(1.03213 0.00568671 0)
(1.03023 0.00552233 0)
(1.02834 0.00536354 0)
(1.02644 0.00519876 0)
(1.02455 0.00505145 0)
(1.02266 0.00490186 0)
(1.02079 0.0047905 0)
(1.0189 0.00470202 0)
(1.01702 0.00467346 0)
(1.0151 0.00476503 0)
(1.01315 0.00491887 0)
(1.01108 0.00547925 0)
(1.00892 0.00629531 0)
(1.00238 0.0218845 0)
(1.02664 0.0275662 0)
(1.04099 0.0206324 0)
(1.04456 0.0178915 0)
(1.04604 0.0165981 0)
(1.04792 0.0151125 0)
(1.04966 0.0138914 0)
(1.05099 0.0130393 0)
(1.05208 0.0123743 0)
(1.05304 0.0118038 0)
(1.05391 0.0113105 0)
(1.05469 0.0108842 0)
(1.05539 0.0105111 0)
(1.05601 0.0101793 0)
(1.05655 0.00988074 0)
(1.057 0.00960935 0)
(1.05736 0.00936045 0)
(1.05763 0.00913026 0)
(1.0578 0.0089157 0)
(1.05789 0.00871422 0)
(1.05787 0.00852373 0)
(1.05776 0.00834247 0)
(1.05756 0.00816897 0)
(1.05727 0.008002 0)
(1.05688 0.00784047 0)
(1.05642 0.00768348 0)
(1.05587 0.0075302 0)
(1.05524 0.00737989 0)
(1.05454 0.00723186 0)
(1.05378 0.00708543 0)
(1.05295 0.00693992 0)
(1.05207 0.00679473 0)
(1.05114 0.00664905 0)
(1.05016 0.00650257 0)
(1.04913 0.0063541 0)
(1.04807 0.00620431 0)
(1.04698 0.00605096 0)
(1.04586 0.00589739 0)
(1.04471 0.00573888 0)
(1.04354 0.00558467 0)
(1.04236 0.00542558 0)
(1.04116 0.00528135 0)
(1.03994 0.00513867 0)
(1.0387 0.00502923 0)
(1.03745 0.0049502 0)
(1.03617 0.00492665 0)
(1.03485 0.00502761 0)
(1.03349 0.00521216 0)
(1.03204 0.00577135 0)
(1.03055 0.00666721 0)
(1.0021 0.0200703 0)
(1.0243 0.0264563 0)
(1.03826 0.0201352 0)
(1.04204 0.0174805 0)
(1.04353 0.0163357 0)
(1.04539 0.0149581 0)
(1.04712 0.0137633 0)
(1.04846 0.0129215 0)
(1.04953 0.0122706 0)
(1.05048 0.0117119 0)
(1.05134 0.0112267 0)
(1.05213 0.0108068 0)
(1.05285 0.0104396 0)
(1.05351 0.0101137 0)
(1.05411 0.00982109 0)
(1.05465 0.00955585 0)
(1.05514 0.00931346 0)
(1.05558 0.00909017 0)
(1.05595 0.00888291 0)
(1.05628 0.00868913 0)
(1.05654 0.00850669 0)
(1.05675 0.00833378 0)
(1.0569 0.00816886 0)
(1.05699 0.00801062 0)
(1.05702 0.00785792 0)
(1.057 0.00770976 0)
(1.05692 0.00756526 0)
(1.05679 0.00742363 0)
(1.0566 0.00728412 0)
(1.05637 0.00714602 0)
(1.05609 0.00700862 0)
(1.05577 0.00687129 0)
(1.0554 0.0067332 0)
(1.05499 0.00659403 0)
(1.05455 0.00645258 0)
(1.05407 0.00630948 0)
(1.05356 0.00616261 0)
(1.05301 0.00601502 0)
(1.05244 0.00586268 0)
(1.05184 0.00571364 0)
(1.05121 0.00556098 0)
(1.05056 0.00542101 0)
(1.04989 0.00528599 0)
(1.04918 0.00518034 0)
(1.04845 0.00511063 0)
(1.04769 0.0050944 0)
(1.04689 0.0052031 0)
(1.04605 0.00541519 0)
(1.04514 0.00597099 0)
(1.04425 0.00691148 0)
(1.00185 0.0183639 0)
(1.0221 0.0253377 0)
(1.03563 0.0196526 0)
(1.0396 0.0170717 0)
(1.04112 0.0160593 0)
(1.04294 0.0147957 0)
(1.04468 0.0136326 0)
(1.04601 0.0128013 0)
(1.04708 0.0121648 0)
(1.04802 0.0116185 0)
(1.04886 0.0111416 0)
(1.04964 0.0107278 0)
(1.05035 0.0103658 0)
(1.05101 0.0100446 0)
(1.05161 0.00975634 0)
(1.05218 0.00949527 0)
(1.0527 0.00925696 0)
(1.05319 0.0090378 0)
(1.05363 0.00883477 0)
(1.05405 0.00864536 0)
(1.05442 0.00846746 0)
(1.05476 0.00829925 0)
(1.05507 0.00813921 0)
(1.05534 0.00798598 0)
(1.05558 0.00783842 0)
(1.05578 0.00769548 0)
(1.05595 0.00755629 0)
(1.05608 0.00741999 0)
(1.05618 0.00728582 0)
(1.05625 0.00715307 0)
(1.05629 0.00702098 0)
(1.0563 0.00688895 0)
(1.05629 0.0067561 0)
(1.05624 0.00662212 0)
(1.05616 0.00648581 0)
(1.05606 0.00634774 0)
(1.05593 0.00620598 0)
(1.05578 0.0060632 0)
(1.0556 0.00591612 0)
(1.0554 0.00577159 0)
(1.05517 0.00562481 0)
(1.05491 0.00548901 0)
(1.05463 0.00536107 0)
(1.05432 0.00525979 0)
(1.05399 0.00519811 0)
(1.05362 0.00518983 0)
(1.05321 0.00530404 0)
(1.05278 0.00553847 0)
(1.05232 0.00608768 0)
(1.05192 0.00704357 0)
(1.00162 0.0167649 0)
(1.02004 0.0242148 0)
(1.0331 0.0191803 0)
(1.03725 0.0166668 0)
(1.0388 0.0157699 0)
(1.04059 0.0146246 0)
(1.04232 0.0134991 0)
(1.04366 0.0126789 0)
(1.04472 0.0120565 0)
(1.04564 0.0115234 0)
(1.04648 0.0110552 0)
(1.04724 0.0106477 0)
(1.04794 0.0102909 0)
(1.04858 0.00997428 0)
(1.04918 0.00968996 0)
(1.04974 0.00943241 0)
(1.05026 0.00919731 0)
(1.05075 0.00898115 0)
(1.05122 0.00878098 0)
(1.05165 0.00859434 0)
(1.05206 0.00841916 0)
(1.05245 0.00825368 0)
(1.05281 0.00809636 0)
(1.05315 0.00794588 0)
(1.05347 0.00780108 0)
(1.05377 0.00766095 0)
(1.05404 0.00752457 0)
(1.0543 0.00739112 0)
(1.05454 0.00725983 0)
(1.05477 0.00712999 0)
(1.05497 0.00700084 0)
(1.05516 0.00687179 0)
(1.05533 0.00674196 0)
(1.05548 0.00661106 0)
(1.05561 0.00647791 0)
(1.05573 0.00634301 0)
(1.05583 0.00620464 0)
(1.05591 0.00606511 0)
(1.05597 0.00592186 0)
(1.05601 0.00578061 0)
(1.05603 0.00563846 0)
(1.05604 0.00550602 0)
(1.05601 0.00538382 0)
(1.05597 0.00528654 0)
(1.0559 0.005231 0)
(1.05581 0.00522995 0)
(1.05568 0.00534716 0)
(1.05555 0.00559745 0)
(1.05542 0.00613597 0)
(1.05539 0.00708358 0)
(1.00142 0.0152727 0)
(1.01811 0.0230916 0)
(1.03067 0.0187144 0)
(1.03499 0.0162671 0)
(1.03658 0.015469 0)
(1.03832 0.0144442 0)
(1.04005 0.0133624 0)
(1.04139 0.0125541 0)
(1.04245 0.0119458 0)
(1.04336 0.0114263 0)
(1.04418 0.0109675 0)
(1.04493 0.0105666 0)
(1.04562 0.0102152 0)
(1.04625 0.00990317 0)
(1.04684 0.00962283 0)
(1.04739 0.00936871 0)
(1.0479 0.00913662 0)
(1.04838 0.00892312 0)
(1.04884 0.00872533 0)
(1.04927 0.00854086 0)
(1.04968 0.00836767 0)
(1.05008 0.00820401 0)
(1.05045 0.0080484 0)
(1.05081 0.00789952 0)
(1.05115 0.00775625 0)
(1.05149 0.00761756 0)
(1.0518 0.00748256 0)
(1.05211 0.00735045 0)
(1.05241 0.00722047 0)
(1.05269 0.00709193 0)
(1.05297 0.00696409 0)
(1.05323 0.00683637 0)
(1.05349 0.00670794 0)
(1.05374 0.00657849 0)
(1.05398 0.00644692 0)
(1.0542 0.00631363 0)
(1.05442 0.00617715 0)
(1.05462 0.00603943 0)
(1.05482 0.0058986 0)
(1.055 0.00575939 0)
(1.05516 0.00562048 0)
(1.05531 0.00549041 0)
(1.05544 0.00537235 0)
(1.05556 0.00527825 0)
(1.05565 0.0052268 0)
(1.05573 0.00523142 0)
(1.05579 0.00534902 0)
(1.05586 0.00560822 0)
(1.05596 0.00613144 0)
(1.0562 0.00705183 0)
(1.00124 0.0138859 0)
(1.01632 0.0219721 0)
(1.02835 0.0182512 0)
(1.03282 0.0158739 0)
(1.03445 0.0151581 0)
(1.03615 0.0142538 0)
(1.03786 0.0132221 0)
(1.03921 0.012427 0)
(1.04026 0.0118325 0)
(1.04117 0.0113271 0)
(1.04198 0.0108783 0)
(1.04272 0.0104843 0)
(1.04339 0.0101385 0)
(1.04401 0.00983131 0)
(1.04459 0.00955508 0)
(1.04513 0.00930447 0)
(1.04563 0.0090754 0)
(1.0461 0.00886454 0)
(1.04655 0.00866905 0)
(1.04697 0.00848658 0)
(1.04738 0.00831513 0)
(1.04776 0.008153 0)
(1.04813 0.00799871 0)
(1.04849 0.00785096 0)
(1.04884 0.00770865 0)
(1.04917 0.00757078 0)
(1.0495 0.00743647 0)
(1.04982 0.00730493 0)
(1.05013 0.00717542 0)
(1.05043 0.00704729 0)
(1.05073 0.00691983 0)
(1.05103 0.00679248 0)
(1.05132 0.00666444 0)
(1.0516 0.0065354 0)
(1.05188 0.00640436 0)
(1.05216 0.00627163 0)
(1.05243 0.00613597 0)
(1.05269 0.00599902 0)
(1.05294 0.00585952 0)
(1.05319 0.00572136 0)
(1.05342 0.0055845 0)
(1.05365 0.0054559 0)
(1.05386 0.00534054 0)
(1.05406 0.00524868 0)
(1.05425 0.0051994 0)
(1.05443 0.00520772 0)
(1.0546 0.00532322 0)
(1.05481 0.0055845 0)
(1.05506 0.00608743 0)
(1.05549 0.00696567 0)
(1.00107 0.0126023 0)
(1.01466 0.0208603 0)
(1.02614 0.0177873 0)
(1.03073 0.0154881 0)
(1.03241 0.014839 0)
(1.03408 0.0140532 0)
(1.03577 0.0130778 0)
(1.03712 0.0122977 0)
(1.03817 0.0117165 0)
(1.03906 0.0112256 0)
(1.03987 0.0107876 0)
(1.0406 0.0104009 0)
(1.04126 0.0100608 0)
(1.04187 0.00975861 0)
(1.04244 0.00948665 0)
(1.04296 0.00923967 0)
(1.04345 0.00901374 0)
(1.04391 0.00880557 0)
(1.04435 0.00861241 0)
(1.04476 0.00843195 0)
(1.04516 0.00826222 0)
(1.04554 0.00810154 0)
(1.0459 0.00794846 0)
(1.04625 0.0078017 0)
(1.04659 0.00766015 0)
(1.04692 0.00752286 0)
(1.04724 0.00738894 0)
(1.04756 0.00725764 0)
(1.04787 0.00712824 0)
(1.04817 0.00700011 0)
(1.04848 0.00687256 0)
(1.04878 0.00674508 0)
(1.04908 0.0066169 0)
(1.04937 0.00648772 0)
(1.04966 0.00635662 0)
(1.04995 0.00622383 0)
(1.05024 0.00608837 0)
(1.05052 0.00595154 0)
(1.0508 0.00581265 0)
(1.05107 0.00567489 0)
(1.05133 0.00553919 0)
(1.05159 0.00541138 0)
(1.05184 0.00529754 0)
(1.05208 0.00520702 0)
(1.05232 0.00515832 0)
(1.05256 0.00516823 0)
(1.0528 0.0052793 0)
(1.05309 0.00553627 0)
(1.05344 0.00601388 0)
(1.05402 0.00683819 0)
(1.00093 0.0114194 0)
(1.01314 0.0197604 0)
(1.02405 0.0173196 0)
(1.02873 0.0151103 0)
(1.03047 0.0145138 0)
(1.03209 0.013842 0)
(1.03377 0.0129288 0)
(1.03512 0.0121662 0)
(1.03617 0.011598 0)
(1.03705 0.0111218 0)
(1.03785 0.0106951 0)
(1.03857 0.0103161 0)
(1.03922 0.00998208 0)
(1.03982 0.00968501 0)
(1.04038 0.00941747 0)
(1.04089 0.00917428 0)
(1.04137 0.00895157 0)
(1.04182 0.00874619 0)
(1.04225 0.00855544 0)
(1.04265 0.00837704 0)
(1.04304 0.00820907 0)
(1.04341 0.00804985 0)
(1.04376 0.00789797 0)
(1.0441 0.00775217 0)
(1.04443 0.00761135 0)
(1.04475 0.00747455 0)
(1.04507 0.00734093 0)
(1.04538 0.00720975 0)
(1.04568 0.00708031 0)
(1.04598 0.00695201 0)
(1.04628 0.00682419 0)
(1.04658 0.00669636 0)
(1.04687 0.00656781 0)
(1.04717 0.00643822 0)
(1.04746 0.00630678 0)
(1.04775 0.00617363 0)
(1.04804 0.00603801 0)
(1.04832 0.00590096 0)
(1.0486 0.00576224 0)
(1.04888 0.00562449 0)
(1.04916 0.00548935 0)
(1.04943 0.00536185 0)
(1.04969 0.00524863 0)
(1.04995 0.00515862 0)
(1.05021 0.00510917 0)
(1.05048 0.00511856 0)
(1.05076 0.005223 0)
(1.05111 0.00546985 0)
(1.05154 0.00591725 0)
(1.05221 0.00667841 0)
(1.0008 0.0103338 0)
(1.01174 0.0186764 0)
(1.02206 0.0168453 0)
(1.02681 0.0147408 0)
(1.02862 0.0141844 0)
(1.0302 0.0136202 0)
(1.03185 0.0127745 0)
(1.03321 0.0120323 0)
(1.03426 0.0114769 0)
(1.03514 0.0110155 0)
(1.03592 0.0106007 0)
(1.03663 0.0102299 0)
(1.03728 0.00990216 0)
(1.03787 0.00961041 0)
(1.03841 0.00934747 0)
(1.03892 0.0091082 0)
(1.03939 0.00888885 0)
(1.03983 0.00868635 0)
(1.04025 0.00849809 0)
(1.04064 0.00832182 0)
(1.04102 0.00815565 0)
(1.04137 0.00799794 0)
(1.04172 0.00784729 0)
(1.04205 0.00770246 0)
(1.04237 0.00756237 0)
(1.04269 0.00742607 0)
(1.04299 0.00729273 0)
(1.04329 0.00716163 0)
(1.04359 0.0070321 0)
(1.04388 0.00690357 0)
(1.04418 0.00677541 0)
(1.04447 0.00664715 0)
(1.04475 0.00651813 0)
(1.04504 0.00638802 0)
(1.04533 0.00625611 0)
(1.04561 0.00612247 0)
(1.0459 0.00598651 0)
(1.04618 0.00584907 0)
(1.04646 0.00571026 0)
(1.04673 0.00557229 0)
(1.04701 0.00543729 0)
(1.04728 0.00530975 0)
(1.04755 0.00519645 0)
(1.04782 0.00510618 0)
(1.04809 0.00505485 0)
(1.04838 0.00506165 0)
(1.04869 0.0051573 0)
(1.04907 0.00538887 0)
(1.04956 0.00580117 0)
(1.05031 0.00649197 0)
(1.00069 0.00934191 0)
(1.01046 0.0176125 0)
(1.02019 0.0163622 0)
(1.02498 0.0143795 0)
(1.02686 0.0138529 0)
(1.02841 0.0133879 0)
(1.03003 0.0126144 0)
(1.03138 0.011896 0)
(1.03243 0.0113532 0)
(1.03331 0.0109066 0)
(1.03408 0.0105043 0)
(1.03478 0.0101422 0)
(1.03542 0.00982097 0)
(1.036 0.00953474 0)
(1.03654 0.00927656 0)
(1.03703 0.00904137 0)
(1.0375 0.00882549 0)
(1.03793 0.00862598 0)
(1.03834 0.00844029 0)
(1.03872 0.00826622 0)
(1.03909 0.00810192 0)
(1.03944 0.00794577 0)
(1.03978 0.00779639 0)
(1.0401 0.00765256 0)
(1.04041 0.00751321 0)
(1.04072 0.00737741 0)
(1.04102 0.00724436 0)
(1.04131 0.00711334 0)
(1.0416 0.00698371 0)
(1.04189 0.00685493 0)
(1.04217 0.00672641 0)
(1.04245 0.00659769 0)
(1.04273 0.00646816 0)
(1.04301 0.0063375 0)
(1.04329 0.00620507 0)
(1.04357 0.00607087 0)
(1.04385 0.00593448 0)
(1.04412 0.00579656 0)
(1.0444 0.00565748 0)
(1.04467 0.00551915 0)
(1.04494 0.00538397 0)
(1.04521 0.00525607 0)
(1.04548 0.00514214 0)
(1.04575 0.00505082 0)
(1.04603 0.00499659 0)
(1.04633 0.00499877 0)
(1.04666 0.00508348 0)
(1.04708 0.00529517 0)
(1.04762 0.00566779 0)
(1.04843 0.00628246 0)
(1.0006 0.00843926 0)
(1.0093 0.0165727 0)
(1.01843 0.0158684 0)
(1.02324 0.014026 0)
(1.02518 0.0135212 0)
(1.0267 0.0131456 0)
(1.02829 0.0124478 0)
(1.02964 0.011757 0)
(1.0307 0.0112271 0)
(1.03156 0.010795 0)
(1.03233 0.0104058 0)
(1.03302 0.0100529 0)
(1.03366 0.00973843 0)
(1.03423 0.0094579 0)
(1.03476 0.00920466 0)
(1.03524 0.00897369 0)
(1.0357 0.00876143 0)
(1.03612 0.00856502 0)
(1.03652 0.00838198 0)
(1.0369 0.00821019 0)
(1.03726 0.00804782 0)
(1.0376 0.00789328 0)
(1.03793 0.00774522 0)
(1.03824 0.00760242 0)
(1.03855 0.00746384 0)
(1.03885 0.00732856 0)
(1.03914 0.0071958 0)
(1.03942 0.00706486 0)
(1.03971 0.00693514 0)
(1.03998 0.00680611 0)
(1.04026 0.00667722 0)
(1.04054 0.00654803 0)
(1.04081 0.00641798 0)
(1.04108 0.00628674 0)
(1.04136 0.00615377 0)
(1.04163 0.00601898 0)
(1.0419 0.0058821 0)
(1.04217 0.00574364 0)
(1.04244 0.00560417 0)
(1.0427 0.00546535 0)
(1.04297 0.00532972 0)
(1.04324 0.00520116 0)
(1.0435 0.00508607 0)
(1.04378 0.00499294 0)
(1.04406 0.00493478 0)
(1.04437 0.00493042 0)
(1.04473 0.00500199 0)
(1.04517 0.00518964 0)
(1.04575 0.00551848 0)
(1.04661 0.00605226 0)
(1.00051 0.0076211 0)
(1.00825 0.015561 0)
(1.01679 0.0153628 0)
(1.02157 0.0136798 0)
(1.0236 0.0131909 0)
(1.02509 0.0128941 0)
(1.02663 0.0122742 0)
(1.02799 0.0116152 0)
(1.02904 0.0110985 0)
(1.0299 0.0106806 0)
(1.03066 0.0103048 0)
(1.03135 0.00996175 0)
(1.03198 0.00965443 0)
(1.03254 0.00937979 0)
(1.03306 0.00913167 0)