/*--------------------------------*- C++ -*----------------------------------*\
  =========                 |
  \\      /  F ield         | OpenFOAM: The Open Source CFD Toolbox
   \\    /   O peration     | Website:  https://openfoam.org
    \\  /    A nd           | Version:  7
     \\/     M anipulation  |
\*---------------------------------------------------------------------------*/
FoamFile
{
    version     2.0;
    format      ascii;
    class       volVectorField;
    location    "0.43";
    object      U_0;
}
// * * * * * * * * * * * * * * * * * * * * * * * * * * * * * * * * * * * * * //

dimensions      [0 1 -1 0 0 0 0];

internalField   nonuniform List<vector> 
70000
(
(0.553413 0.0169782 0)
(0.251415 0.00340047 0)
(0.165924 0.000319022 0)
(0.132442 4.90771e-05 0)
(0.11734 4.41206e-05 0)
(0.107386 5.22775e-05 0)
(0.099419 4.4472e-05 0)
(0.0929795 3.53925e-05 0)
(0.0877395 2.93535e-05 0)
(0.0833744 2.52152e-05 0)
(0.0796561 2.20525e-05 0)
(0.0764372 1.95162e-05 0)
(0.0736167 1.74465e-05 0)
(0.0711205 1.57349e-05 0)
(0.0688925 1.43008e-05 0)
(0.0668894 1.3085e-05 0)
(0.065077 1.20429e-05 0)
(0.063428 1.11415e-05 0)
(0.0619204 1.03547e-05 0)
(0.0605362 9.66287e-06 0)
(0.0592605 9.04973e-06 0)
(0.0580809 8.50283e-06 0)
(0.0569869 8.01179e-06 0)
(0.0559698 7.56856e-06 0)
(0.055022 7.16606e-06 0)
(0.0541372 6.79951e-06 0)
(0.0533098 6.46355e-06 0)
(0.052535 6.15624e-06 0)
(0.0518086 5.87273e-06 0)
(0.051127 5.61476e-06 0)
(0.0504871 5.37552e-06 0)
(0.0498858 5.16418e-06 0)
(0.0493211 4.96701e-06 0)
(0.04879 4.80823e-06 0)
(0.0482911 4.65937e-06 0)
(0.0478216 4.56992e-06 0)
(0.0473801 4.4932e-06 0)
(0.0469642 4.499e-06 0)
(0.0465697 4.56497e-06 0)
(0.0461994 4.67703e-06 0)
(0.045835 5.09053e-06 0)
(0.0455023 5.19927e-06 0)
(0.0451327 6.56405e-06 0)
(0.044836 6.03978e-06 0)
(0.0443781 1.01873e-05 0)
(0.0441477 6.42468e-06 0)
(0.0433904 1.91487e-05 0)
(0.04338 2.34088e-06 0)
(0.0419343 4.48039e-05 0)
(0.0395799 -0.00156969 0)
(0.884862 0.0434934 0)
(0.650146 0.0201491 0)
(0.493978 0.00660468 0)
(0.403564 0.00275463 0)
(0.354865 0.00154773 0)
(0.323564 0.00113142 0)
(0.299679 0.000909021 0)
(0.280483 0.000744485 0)
(0.264782 0.000621844 0)
(0.251672 0.000531399 0)
(0.240503 0.000462718 0)
(0.230833 0.000408643 0)
(0.222358 0.000364926 0)
(0.214855 0.000328919 0)
(0.208156 0.000298823 0)
(0.20213 0.000273346 0)
(0.196677 0.000251533 0)
(0.191713 0.000232668 0)
(0.187174 0.000216202 0)
(0.183005 0.000201709 0)
(0.179162 0.000188853 0)
(0.175607 0.000177366 0)
(0.172309 0.000167032 0)
(0.169243 0.000157674 0)
(0.166384 0.000149146 0)
(0.163715 0.000141328 0)
(0.161219 0.000134118 0)
(0.158881 0.000127431 0)
(0.156689 0.000121191 0)
(0.154632 0.000115341 0)
(0.152701 0.000109818 0)
(0.150887 0.000104599 0)
(0.149185 9.9613e-05 0)
(0.147587 9.48974e-05 0)
(0.146089 9.03381e-05 0)
(0.144683 8.61024e-05 0)
(0.143368 8.19576e-05 0)
(0.142137 7.8341e-05 0)
(0.140982 7.47803e-05 0)
(0.139913 7.21909e-05 0)
(0.138884 6.97807e-05 0)
(0.137968 6.90377e-05 0)
(0.136988 6.93241e-05 0)
(0.136242 7.16618e-05 0)
(0.135121 7.88114e-05 0)
(0.134651 8.45544e-05 0)
(0.132889 0.000112037 0)
(0.133077 9.37275e-05 0)
(0.129728 0.000348835 0)
(0.128024 -0.00241644 0)
(0.991208 0.0499558 0)
(0.890922 0.030563 0)
(0.762493 0.0146104 0)
(0.656547 0.00797011 0)
(0.58546 0.00487859 0)
(0.536111 0.00347343 0)
(0.498239 0.00273733 0)
(0.467628 0.00224323 0)
(0.44233 0.0018797 0)
(0.421037 0.00160824 0)
(0.402799 0.00140091 0)
(0.386951 0.00123766 0)
(0.373018 0.00110576 0)
(0.36065 0.000997119 0)
(0.349583 0.000906287 0)
(0.339611 0.000829364 0)
(0.33057 0.000763481 0)
(0.32233 0.000706483 0)
(0.314784 0.000656718 0)
(0.307845 0.000612904 0)
(0.301442 0.000574031 0)
(0.295513 0.000539292 0)
(0.290008 0.000508035 0)
(0.284883 0.000479728 0)
(0.280102 0.000453931 0)
(0.275633 0.000430279 0)
(0.27145 0.00040846 0)
(0.267528 0.000388213 0)
(0.263847 0.000369309 0)
(0.260389 0.000351557 0)
(0.25714 0.000334774 0)
(0.254086 0.000318841 0)
(0.251215 0.000303578 0)
(0.248517 0.000288991 0)
(0.245985 0.000274817 0)
(0.243608 0.000261349 0)
(0.241382 0.000248023 0)
(0.2393 0.000235848 0)
(0.237349 0.000223435 0)
(0.235546 0.000213488 0)
(0.233825 0.000202628 0)
(0.232297 0.000197319 0)
(0.230709 0.000189959 0)
(0.229493 0.000194413 0)
(0.227791 0.000195882 0)
(0.227056 0.000218364 0)
(0.224591 0.000249896 0)
(0.224838 0.00024631 0)
(0.220361 0.000607306 0)
(0.220263 -0.00210896 0)
(1.01554 0.048954 0)
(1.00649 0.0357246 0)
(0.935886 0.0208189 0)
(0.852022 0.0134971 0)
(0.782267 0.00919587 0)
(0.727144 0.00678095 0)
(0.682083 0.00538482 0)
(0.644349 0.00444387 0)
(0.612359 0.00374956 0)
(0.584917 0.00322395 0)
(0.561086 0.00281789 0)
(0.540159 0.00249601 0)
(0.521609 0.00223482 0)
(0.505034 0.00201895 0)
(0.490119 0.00183791 0)
(0.476617 0.00168419 0)
(0.464327 0.00155225 0)
(0.453086 0.00143788 0)
(0.442762 0.00133788 0)
(0.433243 0.00124972 0)
(0.424437 0.00117141 0)
(0.416266 0.00110137 0)
(0.408664 0.00103831 0)
(0.401573 0.00098117 0)
(0.394947 0.000929082 0)
(0.388742 0.000881313 0)
(0.382923 0.000837247 0)
(0.377459 0.000796352 0)
(0.372322 0.000758175 0)
(0.367488 0.000722316 0)
(0.362938 0.000688419 0)
(0.358652 0.000656206 0)
(0.354616 0.000625345 0)
(0.350815 0.000595751 0)
(0.347239 0.000566973 0)
(0.343875 0.000539396 0)
(0.340717 0.000512034 0)
(0.337756 0.000486569 0)
(0.334978 0.000460332 0)
(0.332399 0.000438463 0)
(0.329948 0.000413666 0)
(0.327749 0.000399803 0)
(0.32552 0.000377969 0)
(0.323751 0.000382533 0)
(0.321479 0.000368459 0)
(0.320325 0.000410928 0)
(0.317344 0.000431533 0)
(0.317277 0.000462212 0)
(0.312367 0.000845715 0)
(0.312431 -0.00143873 0)
(1.01435 0.0460985 0)
(1.04798 0.0373418 0)
(1.02456 0.0241864 0)
(0.974683 0.0175556 0)
(0.923503 0.0131057 0)
(0.876799 0.0102013 0)
(0.834669 0.00834102 0)
(0.796958 0.00701841 0)
(0.763437 0.00600789 0)
(0.733662 0.00522062 0)
(0.707119 0.00459888 0)
(0.683336 0.0040982 0)
(0.661916 0.00368715 0)
(0.642528 0.0033443 0)
(0.624896 0.00305459 0)
(0.608792 0.00280707 0)
(0.594022 0.00259349 0)
(0.580426 0.00240754 0)
(0.567868 0.00224432 0)
(0.556232 0.00209996 0)
(0.545421 0.00197139 0)
(0.535349 0.00185613 0)
(0.525945 0.00175214 0)
(0.517146 0.00165777 0)
(0.508898 0.00157163 0)
(0.501153 0.00149255 0)
(0.49387 0.00141954 0)
(0.487014 0.00135175 0)
(0.480552 0.00128843 0)
(0.474456 0.00122895 0)
(0.468703 0.00117272 0)
(0.463271 0.00111927 0)
(0.458143 0.00106807 0)
(0.4533 0.00101891 0)
(0.44873 0.000971111 0)
(0.444419 0.000925123 0)
(0.440359 0.000879486 0)
(0.436539 0.000836571 0)
(0.432943 0.000792281 0)
(0.429587 0.000754396 0)
(0.426401 0.000711223 0)
(0.423505 0.000684783 0)
(0.420624 0.000643576 0)
(0.41823 0.000644293 0)
(0.415404 0.000609575 0)
(0.41367 0.000666631 0)
(0.410309 0.000674222 0)
(0.40955 0.000731101 0)
(0.40471 0.00113623 0)
(0.403752 -0.00072142 0)
(1.00941 0.0430482 0)
(1.05563 0.0370974 0)
(1.05867 0.025328 0)
(1.0363 0.0197603 0)
(1.00713 0.0157929 0)
(0.976138 0.0129275 0)
(0.944639 0.0109554 0)
(0.913809 0.00947188 0)
(0.884498 0.00828073 0)
(0.857087 0.00731328 0)
(0.831649 0.00652376 0)
(0.808121 0.00587161 0)
(0.786382 0.00532541 0)
(0.76629 0.00486243 0)
(0.747699 0.00446603 0)
(0.73047 0.00412358 0)
(0.714472 0.00382533 0)
(0.699589 0.00356361 0)
(0.685715 0.00333232 0)
(0.672757 0.00312656 0)
(0.66063 0.00294237 0)
(0.649262 0.00277652 0)
(0.638587 0.00262634 0)
(0.628547 0.00248959 0)
(0.619092 0.00236441 0)
(0.610176 0.00224921 0)
(0.601758 0.00214265 0)
(0.593802 0.00204354 0)
(0.586278 0.00195086 0)
(0.579156 0.00186368 0)
(0.572412 0.00178121 0)
(0.566024 0.00170275 0)
(0.559972 0.00162758 0)
(0.554239 0.00155532 0)
(0.548811 0.00148509 0)
(0.543673 0.00141734 0)
(0.538815 0.00135015 0)
(0.534227 0.00128652 0)
(0.529893 0.00122099 0)
(0.525824 0.00116376 0)
(0.52196 0.00109916 0)
(0.5184 0.00105642 0)
(0.514909 0.000993311 0)
(0.511884 0.000984965 0)
(0.50855 0.000929549 0)
(0.50616 0.000990339 0)
(0.50251 0.000993372 0)
(0.50088 0.0010564 0)
(0.496254 0.00150167 0)
(0.494081 5.11623e-05 0)
(1.00635 0.0401804 0)
(1.05241 0.036151 0)
(1.06605 0.0252519 0)
(1.05952 0.0205655 0)
(1.04689 0.0172197 0)
(1.03085 0.0146448 0)
(1.01197 0.0128125 0)
(0.991314 0.0113857 0)
(0.969944 0.0101878 0)
(0.948585 0.00917226 0)
(0.927675 0.00831249 0)
(0.907477 0.00758009 0)
(0.888135 0.00695054 0)
(0.869718 0.00640506 0)
(0.852246 0.00592923 0)
(0.835707 0.00551158 0)
(0.82007 0.00514284 0)
(0.805292 0.00481542 0)
(0.791327 0.0045231 0)
(0.778126 0.00426072 0)
(0.765643 0.00402401 0)
(0.75383 0.00380938 0)
(0.742644 0.00361385 0)
(0.732044 0.00343485 0)
(0.721992 0.00327023 0)
(0.712454 0.00311811 0)
(0.703397 0.00297688 0)
(0.694792 0.0028451 0)
(0.686613 0.00272153 0)
(0.678835 0.00260504 0)
(0.671438 0.00249461 0)
(0.6644 0.00238936 0)
(0.657706 0.0022884 0)
(0.651337 0.00219119 0)
(0.645284 0.00209665 0)
(0.63953 0.00200522 0)
(0.634069 0.00191461 0)
(0.628887 0.00182825 0)
(0.623975 0.00173968 0)
(0.619335 0.00166087 0)
(0.614922 0.0015733 0)
(0.610807 0.00151133 0)
(0.606812 0.00142582 0)
(0.603231 0.00140323 0)
(0.599476 0.00133005 0)
(0.596471 0.00138321 0)
(0.592597 0.00139148 0)
(0.590145 0.0014481 0)
(0.585661 0.00193503 0)
(0.582541 0.000894191 0)
(1.00506 0.0375033 0)
(1.04762 0.0350531 0)
(1.06395 0.024705 0)
(1.06417 0.0205972 0)
(1.06068 0.0177583 0)
(1.05478 0.0154855 0)
(1.04603 0.0138679 0)
(1.03486 0.0126057 0)
(1.02198 0.0115181 0)
(1.008 0.0105652 0)
(0.993354 0.00973293 0)
(0.978409 0.00900315 0)
(0.963425 0.00835892 0)
(0.948593 0.00778711 0)
(0.93405 0.00727746 0)
(0.919889 0.0068215 0)
(0.906167 0.00641206 0)
(0.892921 0.00604302 0)
(0.880168 0.00570912 0)
(0.867913 0.00540584 0)
(0.856154 0.00512933 0)
(0.844882 0.00487624 0)
(0.834083 0.00464369 0)
(0.823742 0.00442919 0)
(0.813843 0.00423057 0)
(0.804368 0.00404591 0)
(0.7953 0.00387352 0)
(0.786621 0.00371187 0)
(0.778316 0.00355963 0)
(0.770369 0.00341553 0)
(0.762766 0.00327847 0)
(0.755492 0.00314742 0)
(0.748537 0.00302137 0)
(0.741887 0.00289967 0)
(0.735534 0.0027811 0)
(0.729466 0.00266608 0)
(0.72368 0.00255204 0)
(0.718162 0.0024427 0)
(0.712908 0.00233097 0)
(0.707915 0.0022299 0)
(0.703156 0.00211946 0)
(0.698672 0.00203667 0)
(0.69434 0.00192986 0)
(0.69036 0.00188922 0)
(0.686318 0.00180212 0)
(0.682842 0.0018396 0)
(0.678817 0.00185884 0)
(0.675736 0.00190807 0)
(0.671325 0.00242663 0)
(0.667579 0.00178367 0)
(1.00451 0.0349675 0)
(1.04359 0.0339735 0)
(1.05993 0.0240548 0)
(1.06222 0.0203086 0)
(1.0625 0.0178239 0)
(1.06183 0.0157653 0)
(1.05926 0.014321 0)
(1.05473 0.0132238 0)
(1.04854 0.0122777 0)
(1.041 0.0114364 0)
(1.0324 0.0106882 0)
(1.02298 0.0100191 0)
(1.01298 0.00941609 0)
(1.00258 0.00886952 0)
(0.991952 0.00837243 0)
(0.981226 0.00791919 0)
(0.970504 0.00750494 0)
(0.959867 0.00712543 0)
(0.949377 0.00677689 0)
(0.939079 0.00645595 0)
(0.929009 0.00615964 0)
(0.919191 0.0058853 0)
(0.90964 0.00563058 0)
(0.900367 0.00539336 0)
(0.891379 0.00517178 0)
(0.882678 0.0049641 0)
(0.874264 0.0047688 0)
(0.866134 0.00458445 0)
(0.858285 0.00440976 0)
(0.850713 0.00424348 0)
(0.843413 0.00408452 0)
(0.836379 0.00393179 0)
(0.829608 0.00378429 0)
(0.823092 0.00364129 0)
(0.816829 0.0035015 0)
(0.810812 0.00336533 0)
(0.805041 0.0032301 0)
(0.799507 0.00309964 0)
(0.79421 0.00296662 0)
(0.789145 0.00284451 0)
(0.784296 0.00271307 0)
(0.77969 0.00260972 0)
(0.775243 0.00248409 0)
(0.771084 0.00242385 0)
(0.766935 0.00232664 0)
(0.7632 0.00234485 0)
(0.759143 0.00237692 0)
(0.755684 0.00242463 0)
(0.751368 0.00296361 0)
(0.747295 0.00268748 0)
(1.00412 0.0325371 0)
(1.04026 0.0329205 0)
(1.05616 0.0234208 0)
(1.05886 0.019925 0)
(1.06023 0.0176957 0)
(1.0616 0.0157686 0)
(1.06197 0.0144253 0)
(1.06109 0.0134428 0)
(1.05904 0.012612 0)
(1.05595 0.0118757 0)
(1.05189 0.0112201 0)
(1.04698 0.0106306 0)
(1.04135 0.0100943 0)
(1.03511 0.00960205 0)
(1.02838 0.00914804 0)
(1.02128 0.00872792 0)
(1.0139 0.00833819 0)
(1.00632 0.00797587 0)
(0.998622 0.00763837 0)
(0.990858 0.00732336 0)
(0.983082 0.00702876 0)
(0.975337 0.00675267 0)
(0.967657 0.00649338 0)
(0.96007 0.00624931 0)
(0.952598 0.00601902 0)
(0.94526 0.00580116 0)
(0.93807 0.00559448 0)
(0.931039 0.00539779 0)
(0.924174 0.00520999 0)
(0.917483 0.00502996 0)
(0.91097 0.00485671 0)
(0.904637 0.00468922 0)
(0.89849 0.00452652 0)
(0.892528 0.00436792 0)
(0.886754 0.00421214 0)
(0.881166 0.00405959 0)
(0.87577 0.00390758 0)
(0.870561 0.00375998 0)
(0.865542 0.00360953 0)
(0.860712 0.00346963 0)
(0.856063 0.00332078 0)
(0.851611 0.00319919 0)
(0.847302 0.00305849 0)
(0.843219 0.00297957 0)
(0.839178 0.00287608 0)
(0.83543 0.00287533 0)
(0.831503 0.00292016 0)
(0.827933 0.00297473 0)
(0.823816 0.00352586 0)
(0.819703 0.00357208 0)
(1.00374 0.030203 0)
(1.03727 0.0318718 0)
(1.05283 0.022818 0)
(1.05562 0.0195237 0)
(1.05714 0.0175063 0)
(1.05906 0.0156677 0)
(1.0605 0.0143717 0)
(1.0612 0.0134522 0)
(1.06121 0.0126943 0)
(1.06058 0.0120316 0)
(1.05931 0.0114476 0)
(1.05739 0.0109268 0)
(1.05487 0.0104545 0)
(1.05179 0.0100205 0)
(1.04822 0.00961842 0)
(1.0442 0.00924379 0)
(1.0398 0.00889326 0)
(1.03509 0.0085642 0)
(1.03011 0.00825445 0)
(1.02492 0.0079622 0)
(1.01957 0.00768587 0)
(1.01409 0.00742407 0)
(1.00853 0.00717555 0)
(1.00292 0.00693917 0)
(0.997279 0.00671386 0)
(0.991643 0.00649864 0)
(0.98603 0.00629256 0)
(0.980458 0.00609469 0)
(0.974943 0.00590415 0)
(0.969499 0.00572001 0)
(0.964136 0.00554144 0)
(0.958865 0.00536754 0)
(0.953694 0.00519744 0)
(0.94863 0.00503051 0)
(0.943682 0.00486553 0)
(0.938851 0.00470296 0)
(0.934147 0.00454018 0)
(0.92957 0.00438105 0)
(0.925126 0.00421859 0)
(0.920817 0.00406577 0)
(0.916641 0.00390455 0)
(0.912609 0.00376876 0)
(0.908688 0.00361781 0)
(0.90493 0.0035233 0)
(0.901218 0.00341753 0)
(0.8977 0.00340112 0)
(0.894087 0.00345803 0)
(0.890663 0.00352818 0)
(0.886887 0.00408584 0)
(0.883002 0.00440294 0)
(1.00337 0.0279676 0)
(1.03443 0.030815 0)
(1.04972 0.0222402 0)
(1.05266 0.0191197 0)
(1.05414 0.0172984 0)
(1.05612 0.0155378 0)
(1.05783 0.0142636 0)
(1.05905 0.0133744 0)
(1.05987 0.0126566 0)
(1.06035 0.0120365 0)
(1.06046 0.011497 0)
(1.06018 0.0110224 0)
(1.0595 0.0105968 0)
(1.05843 0.010209 0)
(1.05697 0.0098515 0)
(1.05514 0.00951905 0)
(1.05298 0.00920784 0)
(1.0505 0.00891492 0)
(1.04775 0.00863799 0)
(1.04474 0.00837519 0)
(1.04151 0.00812502 0)
(1.0381 0.00788621 0)
(1.03452 0.00765769 0)
(1.03082 0.00743848 0)
(1.027 0.00722775 0)
(1.02311 0.0070247 0)
(1.01914 0.0068286 0)
(1.01514 0.00663869 0)
(1.01111 0.00645428 0)
(1.00707 0.0062746 0)
(1.00303 0.00609895 0)
(0.999003 0.00592655 0)
(0.995007 0.00575663 0)
(0.991047 0.00558867 0)
(0.987135 0.00542148 0)
(0.983276 0.00525562 0)
(0.979481 0.00508854 0)
(0.975753 0.00492407 0)
(0.972101 0.00475565 0)
(0.968529 0.0045956 0)
(0.965037 0.00442775 0)
(0.961636 0.00428284 0)
(0.958306 0.00412704 0)
(0.955079 0.00402144 0)
(0.951885 0.00391745 0)
(0.948803 0.00389054 0)
(0.945667 0.0039589 0)
(0.94261 0.00405218 0)
(0.939318 0.00461281 0)
(0.935884 0.00514761 0)
(1.00301 0.0258345 0)
(1.03171 0.0297461 0)
(1.04673 0.0216835 0)
(1.04986 0.0187127 0)
(1.05132 0.0170786 0)
(1.05326 0.0154008 0)
(1.05501 0.0141417 0)
(1.05634 0.0132683 0)
(1.0574 0.0125731 0)
(1.05827 0.0119762 0)
(1.05894 0.0114608 0)
(1.05939 0.0110124 0)
(1.05962 0.0106152 0)
(1.0596 0.0102573 0)
(1.05934 0.00993048 0)
(1.05884 0.00962902 0)
(1.05809 0.00934849 0)
(1.0571 0.0090855 0)
(1.05589 0.00883735 0)
(1.05446 0.00860192 0)
(1.05283 0.0083775 0)
(1.05102 0.00816269 0)
(1.04904 0.00795633 0)
(1.04691 0.00775743 0)
(1.04464 0.00756515 0)
(1.04226 0.00737873 0)
(1.03978 0.0071975 0)
(1.03721 0.00702078 0)
(1.03456 0.00684795 0)
(1.03186 0.00667833 0)
(1.02912 0.00651129 0)
(1.02633 0.00634614 0)
(1.02353 0.00618216 0)
(1.02071 0.0060189 0)
(1.01789 0.00585522 0)
(1.01507 0.00569175 0)
(1.01226 0.00552601 0)
(1.00947 0.00536174 0)
(1.00671 0.00519293 0)
(1.00399 0.005031 0)
(1.00129 0.004862 0)
(0.998641 0.00471311 0)
(0.996022 0.0045576 0)
(0.993456 0.00444592 0)
(0.9909 0.00434734 0)
(0.988395 0.0043158 0)
(0.98585 0.00439507 0)
(0.983315 0.00451682 0)
(0.980613 0.00507842 0)
(0.977786 0.0057797 0)
(1.00268 0.0238062 0)
(1.02911 0.0286634 0)
(1.04381 0.0211477 0)
(1.04717 0.0183027 0)
(1.04863 0.0168455 0)
(1.05054 0.0152594 0)
(1.05228 0.0140172 0)
(1.05362 0.0131549 0)
(1.05472 0.0124756 0)
(1.05567 0.0118932 0)
(1.05652 0.011391 0)
(1.05723 0.0109564 0)
(1.05782 0.0105747 0)
(1.05828 0.0102337 0)
(1.05859 0.00992507 0)
(1.05875 0.00964286 0)
(1.05877 0.00938236 0)
(1.05863 0.00913988 0)
(1.05833 0.00891243 0)
(1.05789 0.00869763 0)
(1.0573 0.00849351 0)
(1.05656 0.00829848 0)
(1.05569 0.0081112 0)
(1.05469 0.00793056 0)
(1.05357 0.0077556 0)
(1.05233 0.0075855 0)
(1.051 0.00741954 0)
(1.04957 0.00725701 0)
(1.04806 0.00709729 0)
(1.04648 0.00693971 0)
(1.04483 0.00678364 0)
(1.04313 0.00662844 0)
(1.04137 0.00647336 0)
(1.03958 0.00631803 0)
(1.03775 0.00616129 0)
(1.0359 0.0060038 0)
(1.03403 0.0058432 0)
(1.03214 0.00568304 0)
(1.03025 0.00551792 0)
(1.02836 0.00535822 0)
(1.02646 0.00519233 0)
(1.02458 0.00504369 0)
(1.02269 0.00489254 0)
(1.02082 0.00477933 0)
(1.01894 0.0046888 0)
(1.01707 0.00465804 0)
(1.01515 0.00474759 0)
(1.01321 0.00490028 0)
(1.01115 0.00546157 0)
(1.009 0.00628248 0)
(1.00238 0.0218844 0)
(1.02664 0.0275661 0)
(1.04099 0.0206323 0)
(1.04456 0.0178913 0)
(1.04604 0.0165978 0)
(1.04792 0.0151122 0)
(1.04966 0.0138911 0)
(1.05099 0.013039 0)
(1.05208 0.012374 0)
(1.05304 0.0118035 0)
(1.05391 0.0113103 0)
(1.0547 0.010884 0)
(1.0554 0.0105109 0)
(1.05601 0.0101792 0)
(1.05655 0.00988063 0)
(1.057 0.00960923 0)
(1.05736 0.00936032 0)
(1.05763 0.0091301 0)
(1.05781 0.00891551 0)
(1.05789 0.00871399 0)
(1.05788 0.00852345 0)
(1.05777 0.00834213 0)
(1.05757 0.00816858 0)
(1.05727 0.00800153 0)
(1.05689 0.00783993 0)
(1.05642 0.00768285 0)
(1.05587 0.00752948 0)
(1.05525 0.00737906 0)
(1.05455 0.00723092 0)
(1.05379 0.00708434 0)
(1.05296 0.00693868 0)
(1.05208 0.00679328 0)
(1.05115 0.00664737 0)
(1.05017 0.0065006 0)
(1.04915 0.00635178 0)
(1.04809 0.00620156 0)
(1.047 0.00604768 0)
(1.04588 0.00589346 0)
(1.04473 0.00573415 0)
(1.04357 0.00557899 0)
(1.04238 0.00541873 0)
(1.04118 0.0052731 0)
(1.03997 0.00512877 0)
(1.03874 0.00501737 0)
(1.03749 0.00493618 0)
(1.03621 0.00491029 0)
(1.0349 0.00500906 0)
(1.03355 0.00519219 0)
(1.03211 0.00575167 0)
(1.03063 0.00665102 0)
(1.0021 0.0200703 0)
(1.0243 0.0264562 0)
(1.03826 0.0201351 0)
(1.04204 0.0174803 0)
(1.04353 0.0163354 0)
(1.04539 0.0149578 0)
(1.04713 0.0137629 0)
(1.04846 0.0129211 0)
(1.04953 0.0122703 0)
(1.05048 0.0117117 0)
(1.05135 0.0112265 0)
(1.05213 0.0108066 0)
(1.05285 0.0104395 0)
(1.05351 0.0101136 0)
(1.05411 0.00982096 0)
(1.05465 0.00955572 0)
(1.05514 0.00931331 0)
(1.05558 0.00909 0)
(1.05596 0.00888271 0)
(1.05628 0.00868888 0)
(1.05655 0.00850639 0)
(1.05675 0.00833342 0)
(1.0569 0.00816843 0)
(1.05699 0.00801011 0)
(1.05703 0.00785732 0)
(1.057 0.00770907 0)
(1.05693 0.00756447 0)
(1.0568 0.00742272 0)
(1.05661 0.00728308 0)
(1.05638 0.00714483 0)
(1.0561 0.00700726 0)
(1.05578 0.00686972 0)
(1.05541 0.00673138 0)
(1.05501 0.0065919 0)
(1.05456 0.00645008 0)
(1.05408 0.00630652 0)
(1.05357 0.00615909 0)
(1.05303 0.00601082 0)
(1.05246 0.00585765 0)
(1.05186 0.00570759 0)
(1.05124 0.00555372 0)
(1.05059 0.00541228 0)
(1.04992 0.00527553 0)
(1.04922 0.00516785 0)
(1.04849 0.00509586 0)
(1.04773 0.00507716 0)
(1.04694 0.00518349 0)
(1.0461 0.00539386 0)
(1.0452 0.00594932 0)
(1.04433 0.00689187 0)
(1.00185 0.0183638 0)
(1.0221 0.0253376 0)
(1.03563 0.0196524 0)
(1.0396 0.0170715 0)
(1.04112 0.016059 0)
(1.04294 0.0147954 0)
(1.04468 0.0136322 0)
(1.04602 0.012801 0)
(1.04708 0.0121644 0)
(1.04802 0.0116182 0)
(1.04887 0.0111413 0)
(1.04964 0.0107275 0)
(1.05035 0.0103656 0)
(1.05101 0.0100445 0)
(1.05162 0.0097562 0)
(1.05218 0.00949512 0)
(1.05271 0.0092568 0)
(1.05319 0.00903761 0)
(1.05364 0.00883455 0)
(1.05405 0.00864509 0)
(1.05443 0.00846713 0)
(1.05477 0.00829886 0)
(1.05507 0.00813874 0)
(1.05534 0.00798543 0)
(1.05558 0.00783777 0)
(1.05578 0.00769473 0)
(1.05595 0.00755542 0)
(1.05609 0.00741899 0)
(1.05619 0.00728469 0)
(1.05626 0.00715177 0)
(1.0563 0.0070195 0)
(1.05631 0.00688724 0)
(1.0563 0.00675412 0)
(1.05625 0.00661982 0)
(1.05618 0.00648312 0)
(1.05608 0.00634457 0)
(1.05595 0.00620222 0)
(1.0558 0.00605873 0)
(1.05562 0.00591078 0)
(1.05542 0.0057652 0)
(1.05519 0.00561715 0)
(1.05494 0.00547981 0)
(1.05466 0.00535008 0)
(1.05436 0.00524667 0)
(1.05402 0.00518263 0)
(1.05366 0.00517175 0)
(1.05326 0.00528342 0)
(1.05284 0.00551581 0)
(1.05238 0.00606399 0)
(1.05199 0.00702052 0)
(1.00162 0.0167649 0)
(1.02004 0.0242147 0)
(1.0331 0.0191801 0)
(1.03725 0.0166665 0)
(1.0388 0.0157696 0)
(1.04059 0.0146242 0)
(1.04232 0.0134986 0)
(1.04366 0.0126784 0)
(1.04472 0.0120561 0)
(1.04564 0.011523 0)
(1.04648 0.0110549 0)
(1.04724 0.0106474 0)
(1.04794 0.0102907 0)
(1.04859 0.00997411 0)
(1.04919 0.00968981 0)
(1.04974 0.00943225 0)
(1.05027 0.00919714 0)
(1.05076 0.00898095 0)
(1.05122 0.00878074 0)
(1.05166 0.00859405 0)
(1.05206 0.00841881 0)
(1.05245 0.00825325 0)
(1.05281 0.00809585 0)
(1.05315 0.00794528 0)
(1.05347 0.00780038 0)
(1.05377 0.00766013 0)
(1.05405 0.00752363 0)
(1.05431 0.00739004 0)
(1.05455 0.0072586 0)
(1.05477 0.00712858 0)
(1.05498 0.00699923 0)
(1.05517 0.00686994 0)
(1.05534 0.00673984 0)
(1.05549 0.00660859 0)
(1.05562 0.00647503 0)
(1.05574 0.00633963 0)
(1.05584 0.00620064 0)
(1.05592 0.00606037 0)
(1.05599 0.00591621 0)
(1.05603 0.00577387 0)
(1.05606 0.0056304 0)
(1.05606 0.00549638 0)
(1.05604 0.00537231 0)
(1.056 0.00527283 0)
(1.05594 0.00521483 0)
(1.05585 0.00521107 0)
(1.05573 0.00532554 0)
(1.05561 0.00557346 0)
(1.05548 0.00611024 0)
(1.05547 0.00705707 0)
(1.00142 0.0152727 0)
(1.01811 0.0230915 0)
(1.03067 0.0187142 0)
(1.03499 0.0162668 0)
(1.03658 0.0154686 0)
(1.03832 0.0144437 0)
(1.04005 0.0133619 0)
(1.04139 0.0125536 0)
(1.04245 0.0119453 0)
(1.04336 0.0114259 0)
(1.04419 0.0109672 0)
(1.04494 0.0105663 0)
(1.04562 0.0102149 0)
(1.04626 0.00990298 0)
(1.04684 0.00962266 0)
(1.04739 0.00936854 0)
(1.0479 0.00913643 0)
(1.04839 0.0089229 0)
(1.04884 0.00872507 0)
(1.04928 0.00854054 0)
(1.04969 0.00836728 0)
(1.05008 0.00820355 0)
(1.05046 0.00804785 0)
(1.05082 0.00789887 0)
(1.05116 0.00775549 0)
(1.05149 0.00761667 0)
(1.05181 0.00748154 0)
(1.05212 0.00734929 0)
(1.05241 0.00721914 0)
(1.0527 0.00709041 0)
(1.05298 0.00696235 0)
(1.05324 0.00683439 0)
(1.0535 0.00670566 0)
(1.05375 0.00657584 0)
(1.05399 0.00644384 0)
(1.05422 0.00631003 0)
(1.05443 0.00617291 0)
(1.05464 0.00603441 0)
(1.05484 0.00589264 0)
(1.05502 0.0057523 0)
(1.05518 0.00561202 0)
(1.05534 0.00548031 0)
(1.05547 0.00536033 0)
(1.05559 0.00526396 0)
(1.05568 0.00520994 0)
(1.05577 0.00521173 0)
(1.05583 0.00532641 0)
(1.05592 0.00558286 0)
(1.05602 0.00610364 0)
(1.05628 0.00702186 0)
(1.00124 0.0138858 0)
(1.01632 0.021972 0)
(1.02835 0.018251 0)
(1.03282 0.0158736 0)
(1.03445 0.0151577 0)
(1.03615 0.0142534 0)
(1.03787 0.0132216 0)
(1.03922 0.0124265 0)
(1.04027 0.011832 0)
(1.04117 0.0113266 0)
(1.04198 0.010878 0)
(1.04272 0.010484 0)
(1.0434 0.0101383 0)
(1.04402 0.0098311 0)
(1.04459 0.00955489 0)
(1.04513 0.00930428 0)
(1.04563 0.0090752 0)
(1.0461 0.0088643 0)
(1.04655 0.00866877 0)
(1.04698 0.00848624 0)
(1.04738 0.00831473 0)
(1.04777 0.00815251 0)
(1.04814 0.00799812 0)
(1.0485 0.00785026 0)
(1.04884 0.00770783 0)
(1.04918 0.00756983 0)
(1.0495 0.00743537 0)
(1.04982 0.00730367 0)
(1.05014 0.00717399 0)
(1.05044 0.00704566 0)
(1.05074 0.00691796 0)
(1.05104 0.00679035 0)
(1.05133 0.00666199 0)
(1.05162 0.00653258 0)
(1.0519 0.00640108 0)
(1.05217 0.0062678 0)
(1.05244 0.00613149 0)
(1.05271 0.00599373 0)
(1.05296 0.00585326 0)
(1.05321 0.00571392 0)
(1.05345 0.00557565 0)
(1.05367 0.00544535 0)
(1.05389 0.005328 0)
(1.05409 0.0052338 0)
(1.05428 0.00518187 0)
(1.05447 0.00518724 0)
(1.05464 0.0052996 0)
(1.05486 0.00555776 0)
(1.05512 0.00605753 0)
(1.05557 0.00693227 0)
(1.00107 0.0126023 0)
(1.01466 0.0208602 0)
(1.02614 0.0177871 0)
(1.03073 0.0154878 0)
(1.03241 0.0148386 0)
(1.03408 0.0140528 0)
(1.03577 0.0130772 0)
(1.03713 0.0122972 0)
(1.03817 0.011716 0)
(1.03907 0.0112252 0)
(1.03987 0.0107872 0)
(1.0406 0.0104005 0)
(1.04127 0.0100606 0)
(1.04188 0.00975838 0)
(1.04244 0.00948644 0)
(1.04296 0.00923947 0)
(1.04346 0.00901352 0)
(1.04392 0.00880532 0)
(1.04435 0.00861211 0)
(1.04477 0.00843159 0)
(1.04516 0.00826179 0)
(1.04554 0.00810101 0)
(1.0459 0.00794782 0)
(1.04625 0.00780095 0)
(1.04659 0.00765927 0)
(1.04692 0.00752183 0)
(1.04725 0.00738776 0)
(1.04756 0.00725629 0)
(1.04787 0.00712669 0)
(1.04818 0.00699835 0)
(1.04849 0.00687056 0)
(1.04879 0.0067428 0)
(1.04909 0.00661429 0)
(1.04938 0.00648471 0)
(1.04968 0.00635314 0)
(1.04997 0.00621979 0)
(1.05025 0.00608363 0)
(1.05054 0.00594597 0)
(1.05082 0.00580607 0)
(1.05109 0.00566709 0)
(1.05136 0.00552994 0)
(1.05162 0.00540039 0)
(1.05187 0.00528449 0)
(1.05211 0.00519156 0)
(1.05235 0.00514011 0)
(1.05259 0.00514693 0)
(1.05284 0.00525465 0)
(1.05313 0.00550811 0)
(1.0535 0.00598185 0)
(1.05409 0.00680139 0)
(1.00093 0.0114193 0)
(1.01314 0.0197602 0)
(1.02405 0.0173193 0)
(1.02873 0.01511 0)
(1.03047 0.0145133 0)
(1.03209 0.0138415 0)
(1.03377 0.0129282 0)
(1.03513 0.0121656 0)
(1.03617 0.0115974 0)
(1.03706 0.0111213 0)
(1.03785 0.0106947 0)
(1.03857 0.0103157 0)
(1.03923 0.00998179 0)
(1.03983 0.00968476 0)
(1.04038 0.00941725 0)
(1.04089 0.00917406 0)
(1.04138 0.00895134 0)
(1.04183 0.00874592 0)
(1.04225 0.00855512 0)
(1.04266 0.00837666 0)
(1.04304 0.0082086 0)
(1.04341 0.00804929 0)
(1.04376 0.00789729 0)
(1.04411 0.00775136 0)
(1.04444 0.0076104 0)
(1.04476 0.00747346 0)
(1.04507 0.00733967 0)
(1.04538 0.0072083 0)
(1.04569 0.00707866 0)
(1.04599 0.00695013 0)
(1.04629 0.00682206 0)
(1.04659 0.00669393 0)
(1.04688 0.00656503 0)
(1.04718 0.00643503 0)
(1.04747 0.0063031 0)
(1.04776 0.00616936 0)
(1.04805 0.00603302 0)
(1.04834 0.00589511 0)
(1.04862 0.00575535 0)
(1.0489 0.00561634 0)
(1.04918 0.0054797 0)
(1.04945 0.00535041 0)
(1.04972 0.00523508 0)
(1.04998 0.00514258 0)
(1.05024 0.00509029 0)
(1.05051 0.00509645 0)
(1.0508 0.00519731 0)
(1.05115 0.00544024 0)
(1.05159 0.00588308 0)
(1.05228 0.00663827 0)
(1.0008 0.0103338 0)
(1.01174 0.0186763 0)
(1.02206 0.016845 0)
(1.02681 0.0147404 0)
(1.02862 0.014184 0)
(1.03021 0.0136196 0)
(1.03185 0.0127739 0)
(1.03321 0.0120316 0)
(1.03426 0.0114763 0)
(1.03514 0.011015 0)
(1.03592 0.0106003 0)
(1.03663 0.0102295 0)
(1.03728 0.00990184 0)
(1.03787 0.00961015 0)
(1.03841 0.00934723 0)
(1.03892 0.00910797 0)
(1.03939 0.0088886 0)
(1.03983 0.00868607 0)
(1.04025 0.00849775 0)
(1.04064 0.00832141 0)
(1.04102 0.00815515 0)
(1.04138 0.00799734 0)
(1.04172 0.00784657 0)
(1.04206 0.0077016 0)
(1.04238 0.00756136 0)
(1.04269 0.0074249 0)
(1.043 0.00729138 0)
(1.0433 0.00716008 0)
(1.0436 0.00703034 0)
(1.04389 0.00690157 0)
(1.04419 0.00677314 0)
(1.04448 0.00664457 0)
(1.04477 0.00651518 0)
(1.04505 0.00638465 0)
(1.04534 0.00625223 0)
(1.04563 0.00611797 0)
(1.04591 0.00598127 0)
(1.0462 0.00584293 0)
(1.04648 0.00570305 0)
(1.04676 0.00556378 0)
(1.04703 0.00542724 0)
(1.0473 0.00529785 0)
(1.04757 0.00518238 0)
(1.04785 0.00508956 0)
(1.04812 0.00503528 0)
(1.04841 0.0050387 0)
(1.04873 0.00513055 0)
(1.04912 0.00535779 0)
(1.04962 0.00576485 0)
(1.05038 0.00644859 0)
(1.00069 0.00934188 0)
(1.01046 0.0176124 0)
(1.02019 0.0163619 0)
(1.02498 0.0143791 0)
(1.02686 0.0138524 0)
(1.02841 0.0133873 0)
(1.03003 0.0126137 0)
(1.03139 0.0118953 0)
(1.03244 0.0113526 0)
(1.03331 0.010906 0)
(1.03408 0.0105038 0)
(1.03479 0.0101418 0)
(1.03542 0.00982063 0)
(1.03601 0.00953445 0)
(1.03654 0.00927631 0)
(1.03704 0.00904112 0)
(1.0375 0.00882523 0)
(1.03793 0.00862568 0)
(1.03834 0.00843993 0)
(1.03873 0.00826579 0)
(1.03909 0.00810139 0)
(1.03944 0.00794513 0)
(1.03978 0.00779562 0)
(1.0401 0.00765165 0)
(1.04042 0.00751214 0)
(1.04072 0.00737617 0)
(1.04102 0.00724292 0)
(1.04132 0.00711169 0)
(1.04161 0.00698184 0)
(1.04189 0.0068528 0)
(1.04218 0.006724 0)
(1.04246 0.00659496 0)
(1.04274 0.00646505 0)
(1.04302 0.00633394 0)
(1.0433 0.00620098 0)
(1.04358 0.00606614 0)
(1.04386 0.00592898 0)
(1.04414 0.00579014 0)
(1.04442 0.00564995 0)
(1.04469 0.00551029 0)
(1.04496 0.00537352 0)
(1.04523 0.00524373 0)
(1.0455 0.00512756 0)
(1.04578 0.00503361 0)
(1.04606 0.00497633 0)
(1.04637 0.00497499 0)
(1.0467 0.00505566 0)
(1.04713 0.00526262 0)
(1.04768 0.00562936 0)
(1.0485 0.00623595 0)
(1.0006 0.00843922 0)
(1.0093 0.0165726 0)
(1.01843 0.0158681 0)
(1.02324 0.0140256 0)
(1.02519 0.0135206 0)
(1.0267 0.013145 0)
(1.02829 0.0124471 0)
(1.02965 0.0117563 0)
(1.0307 0.0112264 0)
(1.03156 0.0107944 0)
(1.03233 0.0104052 0)
(1.03303 0.0100524 0)
(1.03366 0.00973806 0)
(1.03423 0.00945759 0)
(1.03476 0.00920439 0)
(1.03525 0.00897343 0)
(1.0357 0.00876115 0)
(1.03613 0.0085647 0)
(1.03653 0.0083816 0)
(1.0369 0.00820973 0)
(1.03726 0.00804726 0)
(1.0376 0.0078926 0)
(1.03793 0.0077444 0)
(1.03825 0.00760145 0)
(1.03856 0.0074627 0)
(1.03885 0.00732724 0)
(1.03914 0.00719427 0)
(1.03943 0.00706311 0)
(1.03971 0.00693315 0)
(1.03999 0.00680385 0)
(1.04027 0.00667466 0)
(1.04055 0.00654514 0)
(1.04082 0.00641469 0)
(1.04109 0.00628299 0)
(1.04137 0.00614946 0)
(1.04164 0.00601402 0)
(1.04191 0.00587634 0)
(1.04218 0.00573693 0)
(1.04245 0.00559632 0)
(1.04272 0.00545614 0)
(1.04299 0.00531888 0)
(1.04326 0.00518837 0)
(1.04353 0.00507098 0)
(1.04381 0.00497514 0)
(1.04409 0.00491383 0)
(1.04441 0.0049058 0)
(1.04476 0.00497309 0)
(1.04522 0.00515562 0)
(1.04581 0.00547797 0)
(1.04667 0.00600278 0)
(1.00051 0.00762106 0)
(1.00825 0.0155608 0)
(1.01679 0.0153625 0)
(1.02157 0.0136794 0)
(1.0236 0.0131903 0)
(1.02509 0.0128934 0)
(1.02664 0.0122735 0)
(1.02799 0.0116144 0)
(1.02904 0.0110977 0)
(1.02991 0.0106799 0)
(1.03067 0.0103043 0)
(1.03135 0.00996126 0)
(1.03198 0.00965403 0)
(1.03255 0.00937946 0)
(1.03307 0.00913138 0)
(1.03355 0.00890481 0)
(1.03399 0.00869628 0)