/*--------------------------------*- C++ -*----------------------------------*\
  =========                 |
  \\      /  F ield         | OpenFOAM: The Open Source CFD Toolbox
   \\    /   O peration     | Website:  https://openfoam.org
    \\  /    A nd           | Version:  7
     \\/     M anipulation  |
\*---------------------------------------------------------------------------*/
FoamFile
{
    version     2.0;
    format      ascii;
    class       volVectorField;
    location    "0.43";
    object      vorticity;
}
// * * * * * * * * * * * * * * * * * * * * * * * * * * * * * * * * * * * * * //

dimensions      [0 0 -1 0 0 0 0];

internalField   nonuniform List<vector> 
70000
(
(0 -0 -45716)
(0 -0 -28617.5)
(0 -0 -20913.1)
(0 -0 -16980)
(0 -0 -14959)
(0 -0 -13652.4)
(0 -0 -12643.3)
(0 -0 -11831.1)
(0 -0 -11167.7)
(0 -0 -10614.1)
(0 -0 -10142.4)
(0 -0 -9734.08)
(0 -0 -9376.22)
(0 -0 -9059.43)
(0 -0 -8776.6)
(0 -0 -8522.25)
(0 -0 -8292.05)
(0 -0 -8082.56)
(0 -0 -7890.99)
(0 -0 -7715.05)
(0 -0 -7552.86)
(0 -0 -7402.86)
(0 -0 -7263.72)
(0 -0 -7134.33)
(0 -0 -7013.74)
(0 -0 -6901.13)
(0 -0 -6795.81)
(0 -0 -6697.17)
(0 -0 -6604.68)
(0 -0 -6517.89)
(0 -0 -6436.42)
(0 -0 -6359.88)
(0 -0 -6288.02)
(0 -0 -6220.5)
(0 -0 -6157.16)
(0 -0 -6097.69)
(0 -0 -6041.93)
(0 -0 -5989.68)
(0 -0 -5940.46)
(0 -0 -5894.71)
(0 -0 -5850.37)
(0 -0 -5810.61)
(0 -0 -5767.62)
(0 -0 -5734.29)
(0 -0 -5683.97)
(0 -0 -5661.39)
(0 -0 -5581.21)
(0 -0 -5586.37)
(0 -0 -5439.95)
(0 -0 -5285.69)
(0 -0 -13549.7)
(0 -0 -19947.3)
(0 -0 -18536.1)
(0 -0 -16249.8)
(0 -0 -14504.3)
(0 -0 -13280.8)
(0 -0 -12353.2)
(0 -0 -11603.8)
(0 -0 -10982)
(0 -0 -10457.4)
(0 -0 -10007.5)
(0 -0 -9616.16)
(0 -0 -9271.85)
(0 -0 -8966.04)
(0 -0 -8692.22)
(0 -0 -8445.36)
(0 -0 -8221.45)
(0 -0 -8017.28)
(0 -0 -7830.24)
(0 -0 -7658.2)
(0 -0 -7499.37)
(0 -0 -7352.27)
(0 -0 -7215.64)
(0 -0 -7088.42)
(0 -0 -6969.71)
(0 -0 -6858.71)
(0 -0 -6754.76)
(0 -0 -6657.29)
(0 -0 -6565.78)
(0 -0 -6479.81)
(0 -0 -6399)
(0 -0 -6323.01)
(0 -0 -6251.59)
(0 -0 -6184.46)
(0 -0 -6121.47)
(0 -0 -6062.38)
(0 -0 -6007.09)
(0 -0 -5955.47)
(0 -0 -5907.23)
(0 -0 -5862.78)
(0 -0 -5820.7)
(0 -0 -5783.56)
(0 -0 -5745.71)
(0 -0 -5717.09)
(0 -0 -5678.32)
(0 -0 -5662.43)
(0 -0 -5609.22)
(0 -0 -5616.17)
(0 -0 -5531.53)
(0 -0 -5585.68)
(0 -0 -3818.78)
(0 -0 -10828.8)
(0 -0 -13363.3)
(0 -0 -13519.4)
(0 -0 -12866.2)
(0 -0 -12140.5)
(0 -0 -11499.3)
(0 -0 -10939.7)
(0 -0 -10448.5)
(0 -0 -10016.6)
(0 -0 -9635.28)
(0 -0 -9296.38)
(0 -0 -8993.17)
(0 -0 -8720.19)
(0 -0 -8473.04)
(0 -0 -8248.14)
(0 -0 -8042.52)
(0 -0 -7853.76)
(0 -0 -7679.81)
(0 -0 -7518.95)
(0 -0 -7369.75)
(0 -0 -7230.96)
(0 -0 -7101.55)
(0 -0 -6980.59)
(0 -0 -6867.32)
(0 -0 -6761.05)
(0 -0 -6661.19)
(0 -0 -6567.23)
(0 -0 -6478.73)
(0 -0 -6395.28)
(0 -0 -6316.55)
(0 -0 -6242.24)
(0 -0 -6172.11)
(0 -0 -6105.9)
(0 -0 -6043.48)
(0 -0 -5984.63)
(0 -0 -5929.26)
(0 -0 -5877.27)
(0 -0 -5828.46)
(0 -0 -5783.1)
(0 -0 -5740.36)
(0 -0 -5701.81)
(0 -0 -5664.2)
(0 -0 -5633.4)
(0 -0 -5598.67)
(0 -0 -5577.96)
(0 -0 -5541.23)
(0 -0 -5532.4)
(0 -0 -5494.75)
(0 -0 -5537.39)
(0 -0 -533.088)
(0 -0 -4662.68)
(0 -0 -7718.37)
(0 -0 -9328.23)
(0 -0 -9891.88)
(0 -0 -9957.3)
(0 -0 -9825.91)
(0 -0 -9614.45)
(0 -0 -9371.67)
(0 -0 -9122.18)
(0 -0 -8878.38)
(0 -0 -8645.82)
(0 -0 -8426.59)
(0 -0 -8221.15)
(0 -0 -8029.15)
(0 -0 -7849.88)
(0 -0 -7682.46)
(0 -0 -7525.98)
(0 -0 -7379.58)
(0 -0 -7242.4)
(0 -0 -7113.69)
(0 -0 -6992.75)
(0 -0 -6878.93)
(0 -0 -6771.68)
(0 -0 -6670.48)
(0 -0 -6574.88)
(0 -0 -6484.45)
(0 -0 -6398.82)
(0 -0 -6317.68)
(0 -0 -6240.72)
(0 -0 -6167.69)
(0 -0 -6098.34)
(0 -0 -6032.49)
(0 -0 -5969.92)
(0 -0 -5910.52)
(0 -0 -5854.12)
(0 -0 -5800.63)
(0 -0 -5749.94)
(0 -0 -5701.96)
(0 -0 -5656.71)
(0 -0 -5613.96)
(0 -0 -5574.09)
(0 -0 -5536.32)
(0 -0 -5501.96)
(0 -0 -5469.05)
(0 -0 -5439.83)
(0 -0 -5413.67)
(0 -0 -5383.15)
(0 -0 -5380.57)
(0 -0 -5346.27)
(0 -0 322.425)
(0 -0 -1444.59)
(0 -0 -3532.57)
(0 -0 -5258.88)
(0 -0 -6398.55)
(0 -0 -7073)
(0 -0 -7450.33)
(0 -0 -7641.05)
(0 -0 -7713.36)
(0 -0 -7711.45)
(0 -0 -7663.82)
(0 -0 -7588.51)
(0 -0 -7496.93)
(0 -0 -7396.33)
(0 -0 -7291.42)
(0 -0 -7185.23)
(0 -0 -7079.72)
(0 -0 -6976.13)
(0 -0 -6875.26)
(0 -0 -6777.56)
(0 -0 -6683.29)
(0 -0 -6592.56)
(0 -0 -6505.39)
(0 -0 -6421.75)
(0 -0 -6341.53)
(0 -0 -6264.65)
(0 -0 -6190.97)
(0 -0 -6120.38)
(0 -0 -6052.72)
(0 -0 -5987.89)
(0 -0 -5925.76)
(0 -0 -5866.21)
(0 -0 -5809.13)
(0 -0 -5754.42)
(0 -0 -5701.99)
(0 -0 -5651.74)
(0 -0 -5603.64)
(0 -0 -5557.56)
(0 -0 -5513.54)
(0 -0 -5471.37)
(0 -0 -5431.36)
(0 -0 -5392.83)
(0 -0 -5357.04)
(0 -0 -5321.51)
(0 -0 -5291.25)
(0 -0 -5256.21)
(0 -0 -5237.24)
(0 -0 -5191.68)
(0 -0 -5206.5)
(0 -0 -5133.93)
(0 -0 364.701)
(0 -0 -158.594)
(0 -0 -1181.56)
(0 -0 -2361.85)
(0 -0 -3416.91)
(0 -0 -4254.97)
(0 -0 -4889.58)
(0 -0 -5354.78)
(0 -0 -5685.68)
(0 -0 -5914.29)
(0 -0 -6066.87)
(0 -0 -6163.47)
(0 -0 -6218.99)
(0 -0 -6244.37)
(0 -0 -6247.66)
(0 -0 -6234.79)
(0 -0 -6210.15)
(0 -0 -6177)
(0 -0 -6137.78)
(0 -0 -6094.3)
(0 -0 -6047.94)
(0 -0 -5999.73)
(0 -0 -5950.46)
(0 -0 -5900.71)
(0 -0 -5850.93)
(0 -0 -5801.46)
(0 -0 -5752.54)
(0 -0 -5704.36)
(0 -0 -5657.05)
(0 -0 -5610.71)
(0 -0 -5565.42)
(0 -0 -5521.21)
(0 -0 -5478.12)
(0 -0 -5436.16)
(0 -0 -5395.35)
(0 -0 -5355.67)
(0 -0 -5317.15)
(0 -0 -5279.72)
(0 -0 -5243.52)
(0 -0 -5208.22)
(0 -0 -5174.48)
(0 -0 -5141.01)
(0 -0 -5110.29)
(0 -0 -5077.67)
(0 -0 -5051.93)
(0 -0 -5016.86)
(0 -0 -5002.76)
(0 -0 -4954.72)
(0 -0 -4969.93)
(0 -0 -4901.7)
(0 -0 254.021)
(0 -0 185.281)
(0 -0 -173.331)
(0 -0 -764.621)
(0 -0 -1447.32)
(0 -0 -2114.56)
(0 -0 -2719.11)
(0 -0 -3241.62)
(0 -0 -3678.06)
(0 -0 -4034.25)
(0 -0 -4320.44)
(0 -0 -4547.73)
(0 -0 -4726.39)
(0 -0 -4865.37)
(0 -0 -4972.16)
(0 -0 -5052.94)
(0 -0 -5112.72)
(0 -0 -5155.57)
(0 -0 -5184.76)
(0 -0 -5202.92)
(0 -0 -5212.17)
(0 -0 -5214.23)
(0 -0 -5210.5)
(0 -0 -5202.08)
(0 -0 -5189.9)
(0 -0 -5174.71)
(0 -0 -5157.1)
(0 -0 -5137.59)
(0 -0 -5116.57)
(0 -0 -5094.38)
(0 -0 -5071.3)
(0 -0 -5047.55)
(0 -0 -5023.32)
(0 -0 -4998.76)
(0 -0 -4974)
(0 -0 -4949.14)
(0 -0 -4924.28)
(0 -0 -4899.45)
(0 -0 -4874.84)
(0 -0 -4850.17)
(0 -0 -4826.2)
(0 -0 -4801.55)
(0 -0 -4778.98)
(0 -0 -4753.49)
(0 -0 -4734.35)
(0 -0 -4705.1)
(0 -0 -4695.09)
(0 -0 -4654.75)
(0 -0 -4664.38)
(0 -0 -4614.42)
(0 -0 178.743)
(0 -0 204.497)
(0 -0 130.631)
(0 -0 -85.221)
(0 -0 -417.737)
(0 -0 -814.394)
(0 -0 -1235.35)
(0 -0 -1651.81)
(0 -0 -2043.98)
(0 -0 -2400.93)
(0 -0 -2718.46)
(0 -0 -2996.46)
(0 -0 -3237.1)
(0 -0 -3443.65)
(0 -0 -3619.84)
(0 -0 -3769.37)
(0 -0 -3895.74)
(0 -0 -4002.13)
(0 -0 -4091.34)
(0 -0 -4165.82)
(0 -0 -4227.68)
(0 -0 -4278.74)
(0 -0 -4320.55)
(0 -0 -4354.45)
(0 -0 -4381.57)
(0 -0 -4402.85)
(0 -0 -4419.14)
(0 -0 -4431.12)
(0 -0 -4439.39)
(0 -0 -4444.46)
(0 -0 -4446.75)
(0 -0 -4446.66)
(0 -0 -4444.48)
(0 -0 -4440.49)
(0 -0 -4434.92)
(0 -0 -4427.99)
(0 -0 -4419.85)
(0 -0 -4410.63)
(0 -0 -4400.56)
(0 -0 -4389.49)
(0 -0 -4378.09)
(0 -0 -4365.29)
(0 -0 -4353.42)
(0 -0 -4338.38)
(0 -0 -4327.89)
(0 -0 -4308.61)
(0 -0 -4303.82)
(0 -0 -4276)
(0 -0 -4282.8)
(0 -0 -4250.91)
(0 -0 148.013)
(0 -0 164.604)
(0 -0 169.97)
(0 -0 120.947)
(0 -0 1.05899)
(0 -0 -180.534)
(0 -0 -408.426)
(0 -0 -666.289)
(0 -0 -938.339)
(0 -0 -1211.71)
(0 -0 -1477.21)
(0 -0 -1728.86)
(0 -0 -1963.14)
(0 -0 -2178.35)
(0 -0 -2374.08)
(0 -0 -2550.77)
(0 -0 -2709.37)
(0 -0 -2851.13)
(0 -0 -2977.41)
(0 -0 -3089.61)
(0 -0 -3189.11)
(0 -0 -3277.18)
(0 -0 -3355.03)
(0 -0 -3423.73)
(0 -0 -3484.28)
(0 -0 -3537.56)
(0 -0 -3584.36)
(0 -0 -3625.37)
(0 -0 -3661.23)
(0 -0 -3692.47)
(0 -0 -3719.57)
(0 -0 -3742.98)
(0 -0 -3763.04)
(0 -0 -3780.11)
(0 -0 -3794.45)
(0 -0 -3806.35)
(0 -0 -3815.99)
(0 -0 -3823.61)
(0 -0 -3829.37)
(0 -0 -3833.34)
(0 -0 -3835.97)
(0 -0 -3836.65)
(0 -0 -3837.02)
(0 -0 -3834.27)
(0 -0 -3833.98)
(0 -0 -3826.66)
(0 -0 -3828.98)
(0 -0 -3814.88)
(0 -0 -3823.38)
(0 -0 -3807.63)
(0 -0 136.819)
(0 -0 137.066)
(0 -0 148.726)
(0 -0 149.655)
(0 -0 122.168)
(0 -0 60.1481)
(0 -0 -36.1859)
(0 -0 -163.165)
(0 -0 -314.45)
(0 -0 -482.761)
(0 -0 -661.214)
(0 -0 -843.92)
(0 -0 -1026.15)
(0 -0 -1204.32)
(0 -0 -1375.87)
(0 -0 -1539.07)
(0 -0 -1692.92)
(0 -0 -1836.89)
(0 -0 -1970.84)
(0 -0 -2094.93)
(0 -0 -2209.47)
(0 -0 -2314.9)
(0 -0 -2411.74)
(0 -0 -2500.53)
(0 -0 -2581.82)
(0 -0 -2656.17)
(0 -0 -2724.1)
(0 -0 -2786.12)
(0 -0 -2842.69)
(0 -0 -2894.26)
(0 -0 -2941.2)
(0 -0 -2983.9)
(0 -0 -3022.68)
(0 -0 -3057.85)
(0 -0 -3089.65)
(0 -0 -3118.38)
(0 -0 -3144.2)
(0 -0 -3167.37)
(0 -0 -3188.02)
(0 -0 -3206.31)
(0 -0 -3222.51)
(0 -0 -3236.38)
(0 -0 -3248.97)
(0 -0 -3258.52)
(0 -0 -3268.83)
(0 -0 -3273.55)
(0 -0 -3284.11)
(0 -0 -3283.13)
(0 -0 -3296.25)
(0 -0 -3294.85)
(0 -0 129.94)
(0 -0 123.992)
(0 -0 129.174)
(0 -0 136.366)
(0 -0 136.444)
(0 -0 123.183)
(0 -0 92.9603)
(0 -0 43.9439)
(0 -0 -23.6965)
(0 -0 -108.138)
(0 -0 -206.625)
(0 -0 -316.04)
(0 -0 -433.252)
(0 -0 -555.362)
(0 -0 -679.836)
(0 -0 -804.556)
(0 -0 -927.821)
(0 -0 -1048.31)
(0 -0 -1165.05)
(0 -0 -1277.33)
(0 -0 -1384.7)
(0 -0 -1486.87)
(0 -0 -1583.72)
(0 -0 -1675.22)
(0 -0 -1761.45)
(0 -0 -1842.53)
(0 -0 -1918.63)
(0 -0 -1989.96)
(0 -0 -2056.71)
(0 -0 -2119.13)
(0 -0 -2177.41)
(0 -0 -2231.78)
(0 -0 -2282.44)
(0 -0 -2329.61)
(0 -0 -2373.44)
(0 -0 -2414.14)
(0 -0 -2451.82)
(0 -0 -2486.72)
(0 -0 -2518.86)
(0 -0 -2548.48)
(0 -0 -2575.66)
(0 -0 -2600.39)
(0 -0 -2623.29)
(0 -0 -2643.3)
(0 -0 -2662.97)
(0 -0 -2678.12)
(0 -0 -2696.44)
(0 -0 -2706.73)
(0 -0 -2725.3)
(0 -0 -2735.78)
(0 -0 122.951)
(0 -0 116.64)
(0 -0 118.006)
(0 -0 122.476)
(0 -0 126.409)
(0 -0 126.87)
(0 -0 121.396)
(0 -0 107.701)
(0 -0 84.1506)
(0 -0 50.0397)
(0 -0 5.456)
(0 -0 -48.8996)
(0 -0 -111.911)
(0 -0 -182.219)
(0 -0 -258.376)
(0 -0 -338.949)
(0 -0 -422.595)
(0 -0 -508.104)
(0 -0 -594.423)
(0 -0 -680.654)
(0 -0 -766.055)
(0 -0 -850.022)
(0 -0 -932.081)
(0 -0 -1011.87)
(0 -0 -1089.11)
(0 -0 -1163.62)
(0 -0 -1235.27)
(0 -0 -1303.98)
(0 -0 -1369.74)
(0 -0 -1432.53)
(0 -0 -1492.39)
(0 -0 -1549.36)
(0 -0 -1603.48)
(0 -0 -1654.84)
(0 -0 -1703.47)
(0 -0 -1749.49)
(0 -0 -1792.9)
(0 -0 -1833.86)
(0 -0 -1872.34)
(0 -0 -1908.5)
(0 -0 -1942.35)
(0 -0 -1973.92)
(0 -0 -2003.57)
(0 -0 -2030.65)
(0 -0 -2056.83)
(0 -0 -2079.42)
(0 -0 -2103.46)
(0 -0 -2122.03)
(0 -0 -2145.05)
(0 -0 -2164.07)
(0 -0 115.631)
(0 -0 110.408)
(0 -0 110.723)
(0 -0 113.157)
(0 -0 115.963)
(0 -0 118.212)
(0 -0 119.079)
(0 -0 117.369)
(0 -0 111.806)
(0 -0 101.341)
(0 -0 85.2505)
(0 -0 63.1589)
(0 -0 35.0054)
(0 -0 1.0034)
(0 -0 -38.4249)
(0 -0 -82.7141)
(0 -0 -131.214)
(0 -0 -183.238)
(0 -0 -238.101)
(0 -0 -295.144)
(0 -0 -353.754)
(0 -0 -413.373)
(0 -0 -473.505)
(0 -0 -533.716)
(0 -0 -593.631)
(0 -0 -652.935)
(0 -0 -711.363)
(0 -0 -768.699)
(0 -0 -824.764)
(0 -0 -879.422)
(0 -0 -932.556)
(0 -0 -984.086)
(0 -0 -1033.93)
(0 -0 -1082.06)
(0 -0 -1128.42)
(0 -0 -1173)
(0 -0 -1215.74)
(0 -0 -1256.7)
(0 -0 -1295.8)
(0 -0 -1333.09)
(0 -0 -1368.56)
(0 -0 -1402.18)
(0 -0 -1434.17)
(0 -0 -1464.07)
(0 -0 -1492.98)
(0 -0 -1519.19)
(0 -0 -1545.85)
(0 -0 -1568.96)
(0 -0 -1594.2)
(0 -0 -1617.83)
(0 -0 108.387)
(0 -0 104.192)
(0 -0 104.398)
(0 -0 106.101)
(0 -0 107.962)
(0 -0 109.664)
(0 -0 111.19)
(0 -0 112.199)
(0 -0 112.11)
(0 -0 110.298)
(0 -0 106.175)
(0 -0 99.2399)
(0 -0 89.1137)
(0 -0 75.5547)
(0 -0 58.4641)
(0 -0 37.8643)
(0 -0 13.8837)
(0 -0 -13.2669)
(0 -0 -43.318)
(0 -0 -75.9605)
(0 -0 -110.865)
(0 -0 -147.693)
(0 -0 -186.115)
(0 -0 -225.808)
(0 -0 -266.473)
(0 -0 -307.831)
(0 -0 -349.627)
(0 -0 -391.633)
(0 -0 -433.642)
(0 -0 -475.476)
(0 -0 -516.97)
(0 -0 -557.988)
(0 -0 -598.397)
(0 -0 -638.1)
(0 -0 -676.981)
(0 -0 -714.98)
(0 -0 -751.987)
(0 -0 -787.976)
(0 -0 -822.842)
(0 -0 -856.576)
(0 -0 -889.112)
(0 -0 -920.388)
(0 -0 -950.517)
(0 -0 -979.174)
(0 -0 -1007.02)
(0 -0 -1033.01)
(0 -0 -1058.99)
(0 -0 -1082.85)
(0 -0 -1107.6)
(0 -0 -1132)
(0 -0 101.41)
(0 -0 98.0007)
(0 -0 98.2213)
(0 -0 99.6898)
(0 -0 101.195)
(0 -0 102.459)
(0 -0 103.673)
(0 -0 104.851)
(0 -0 105.82)
(0 -0 106.336)
(0 -0 106.118)
(0 -0 104.868)
(0 -0 102.296)
(0 -0 98.1413)
(0 -0 92.1933)
(0 -0 84.2982)
(0 -0 74.3615)
(0 -0 62.3457)
(0 -0 48.2659)
(0 -0 32.1813)
(0 -0 14.1876)
(0 -0 -5.59082)
(0 -0 -27.0091)
(0 -0 -49.9094)
(0 -0 -74.1246)
(0 -0 -99.4884)
(0 -0 -125.831)
(0 -0 -152.993)
(0 -0 -180.818)
(0 -0 -209.16)
(0 -0 -237.876)
(0 -0 -266.842)
(0 -0 -295.929)
(0 -0 -325.031)
(0 -0 -354.031)
(0 -0 -382.843)
(0 -0 -411.358)
(0 -0 -439.51)
(0 -0 -467.195)
(0 -0 -494.358)
(0 -0 -520.929)
(0 -0 -546.816)
(0 -0 -572.068)
(0 -0 -596.447)
(0 -0 -620.311)
(0 -0 -643.085)
(0 -0 -665.71)
(0 -0 -687.236)
(0 -0 -709.068)
(0 -0 -731.168)
(0 -0 94.7341)
(0 -0 91.9516)
(0 -0 92.1601)
(0 -0 93.4792)
(0 -0 94.8525)
(0 -0 95.9421)
(0 -0 96.9322)
(0 -0 97.9218)
(0 -0 98.8842)
(0 -0 99.7526)
(0 -0 100.438)
(0 -0 100.823)
(0 -0 100.768)
(0 -0 100.126)
(0 -0 98.7485)
(0 -0 96.4992)
(0 -0 93.2598)
(0 -0 88.9337)
(0 -0 83.4496)
(0 -0 76.7616)
(0 -0 68.8492)
(0 -0 59.7134)
(0 -0 49.378)
(0 -0 37.8824)
(0 -0 25.2813)
(0 -0 11.6401)
(0 -0 -2.96639)
(0 -0 -18.4588)
(0 -0 -34.7524)
(0 -0 -51.7626)
(0 -0 -69.4011)
(0 -0 -87.5842)
(0 -0 -106.223)
(0 -0 -125.238)
(0 -0 -144.541)
(0 -0 -164.059)
(0 -0 -183.705)
(0 -0 -203.412)
(0 -0 -223.099)
(0 -0 -242.697)
(0 -0 -262.148)
(0 -0 -281.363)
(0 -0 -300.347)
(0 -0 -318.943)
(0 -0 -337.312)
(0 -0 -355.164)
(0 -0 -372.91)
(0 -0 -390.221)
(0 -0 -407.624)
(0 -0 -425.539)
(0 -0 88.3589)
(0 -0 86.0963)
(0 -0 86.2859)
(0 -0 87.4551)
(0 -0 88.7295)
(0 -0 89.7394)
(0 -0 90.6228)
(0 -0 91.4842)
(0 -0 92.3286)
(0 -0 93.1417)
(0 -0 93.9073)
(0 -0 94.5961)
(0 -0 95.1621)
(0 -0 95.5462)
(0 -0 95.6801)
(0 -0 95.4907)
(0 -0 94.9038)
(0 -0 93.8478)
(0 -0 92.2568)
(0 -0 90.0734)
(0 -0 87.2497)
(0 -0 83.7493)
(0 -0 79.5463)
(0 -0 74.6267)
(0 -0 68.9863)
(0 -0 62.6323)
(0 -0 55.5767)
(0 -0 47.844)
(0 -0 39.462)
(0 -0 30.4631)
(0 -0 20.886)
(0 -0 10.7705)
(0 -0 0.162112)
(0 -0 -10.8947)
(0 -0 -22.3496)
(0 -0 -34.1555)
(0 -0 -46.2591)
(0 -0 -58.6107)
(0 -0 -71.1582)
(0 -0 -83.8468)
(0 -0 -96.6342)
(0 -0 -109.454)
(0 -0 -122.291)
(0 -0 -135.055)
(0 -0 -147.792)
(0 -0 -160.383)
(0 -0 -172.954)
(0 -0 -185.465)
(0 -0 -198.024)
(0 -0 -211.121)
(0 -0 82.2826)
(0 -0 80.4528)
(0 -0 80.6322)
(0 -0 81.6561)
(0 -0 82.8265)
(0 -0 83.7706)
(0 -0 84.5854)
(0 -0 85.3693)
(0 -0 86.1309)
(0 -0 86.8639)
(0 -0 87.5693)
(0 -0 88.2457)
(0 -0 88.8841)
(0 -0 89.4681)
(0 -0 89.975)
(0 -0 90.3768)
(0 -0 90.6411)
(0 -0 90.7324)
(0 -0 90.6138)
(0 -0 90.2487)
(0 -0 89.6015)
(0 -0 88.6397)
(0 -0 87.3342)
(0 -0 85.6604)
(0 -0 83.5984)
(0 -0 81.133)
(0 -0 78.2555)
(0 -0 74.9596)
(0 -0 71.2454)
(0 -0 67.1168)
(0 -0 62.5817)
(0 -0 57.651)
(0 -0 52.3394)
(0 -0 46.6642)
(0 -0 40.646)
(0 -0 34.3073)
(0 -0 27.673)
(0 -0 20.7709)
(0 -0 13.6279)
(0 -0 6.27789)
(0 -0 -1.25428)
(0 -0 -8.92792)
(0 -0 -16.7259)
(0 -0 -24.6029)
(0 -0 -32.5545)
(0 -0 -40.5506)
(0 -0 -48.5867)
(0 -0 -56.7361)
(0 -0 -64.9223)
(0 -0 -73.5806)
(0 -0 76.5059)
(0 -0 75.0326)
(0 -0 75.2108)
(0 -0 76.1022)
(0 -0 77.1663)
(0 -0 78.0431)
(0 -0 78.796)
(0 -0 79.5171)
(0 -0 80.217)
(0 -0 80.8884)
(0 -0 81.5332)
(0 -0 82.1553)
(0 -0 82.7555)
(0 -0 83.3316)
(0 -0 83.8785)
(0 -0 84.3888)
(0 -0 84.8523)
(0 -0 85.2563)
(0 -0 85.5858)
(0 -0 85.8242)
(0 -0 85.9537)
(0 -0 85.9559)
(0 -0 85.8128)
(0 -0 85.5068)
(0 -0 85.0218)
(0 -0 84.3429)
(0 -0 83.4574)
(0 -0 82.3545)
(0 -0 81.0257)
(0 -0 79.4644)
(0 -0 77.6665)
(0 -0 75.6299)
(0 -0 73.3546)
(0 -0 70.8429)
(0 -0 68.0985)
(0 -0 65.1286)
(0 -0 61.9403)
(0 -0 58.5452)
(0 -0 54.9534)
(0 -0 51.1809)
(0 -0 47.2393)
(0 -0 43.1484)
(0 -0 38.9215)
(0 -0 34.5746)
(0 -0 30.1283)
(0 -0 25.5738)
(0 -0 20.958)
(0 -0 16.1855)
(0 -0 11.3781)
(0 -0 6.20783)
(0 -0 71.0284)
(0 -0 69.846)
(0 -0 70.0288)
(0 -0 70.8022)
(0 -0 71.7617)
(0 -0 72.5712)
(0 -0 73.2637)
(0 -0 73.9251)
(0 -0 74.5692)
(0 -0 75.1879)
(0 -0 75.7813)
(0 -0 76.3532)
(0 -0 76.9057)
(0 -0 77.4396)
(0 -0 77.9547)
(0 -0 78.4503)
(0 -0 78.9245)
(0 -0 79.3743)
(0 -0 79.7955)
(0 -0 80.1824)
(0 -0 80.5286)
(0 -0 80.8265)
(0 -0 81.0678)
(0 -0 81.2441)
(0 -0 81.3465)
(0 -0 81.3663)
(0 -0 81.2952)
(0 -0 81.1253)
(0 -0 80.8494)
(0 -0 80.4608)
(0 -0 79.9538)
(0 -0 79.3235)
(0 -0 78.5657)
(0 -0 77.6776)
(0 -0 76.6568)
(0 -0 75.5032)
(0 -0 74.2161)
(0 -0 72.7986)
(0 -0 71.2516)
(0 -0 69.5812)
(0 -0 67.7907)
(0 -0 65.8869)
(0 -0 63.8779)
(0 -0 61.7656)
(0 -0 59.5695)
(0 -0 57.2693)
(0 -0 54.9148)
(0 -0 52.4222)
(0 -0 49.9073)
(0 -0 47.1313)
(0 -0 65.8487)
(0 -0 64.9015)
(0 -0 65.0918)
(0 -0 65.7608)
(0 -0 66.6196)
(0 -0 67.363)
(0 -0 67.9974)
(0 -0 68.6012)
(0 -0 69.1915)
(0 -0 69.7605)
(0 -0 70.3068)
(0 -0 70.8331)
(0 -0 71.3414)
(0 -0 71.8327)
(0 -0 72.3075)
(0 -0 72.7665)
(0 -0 73.2102)
(0 -0 73.6386)
(0 -0 74.0511)
(0 -0 74.4468)
(0 -0 74.824)
(0 -0 75.1805)
(0 -0 75.5136)
(0 -0 75.8201)
(0 -0 76.0966)
(0 -0 76.3393)
(0 -0 76.5446)
(0 -0 76.7085)
(0 -0 76.8271)
(0 -0 76.8967)
(0 -0 76.9133)
(0 -0 76.8734)
(0 -0 76.7734)
(0 -0 76.6104)
(0 -0 76.381)
(0 -0 76.0835)
(0 -0 75.7151)
(0 -0 75.2756)
(0 -0 74.7629)
(0 -0 74.1784)
(0 -0 73.5216)
(0 -0 72.794)
(0 -0 71.9989)
(0 -0 71.1338)
(0 -0 70.2117)
(0 -0 69.2138)
(0 -0 68.1799)
(0 -0 67.0423)
(0 -0 65.912)
(0 -0 64.5874)
(0 -0 60.964)
(0 -0 60.2056)
(0 -0 60.4041)
(0 -0 60.9813)
(0 -0 61.7441)
(0 -0 62.4232)
(0 -0 63.0024)
(0 -0 63.5513)
(0 -0 64.0898)
(0 -0 64.6111)
(0 -0 65.1124)
(0 -0 65.5957)
(0 -0 66.0626)
(0 -0 66.5138)
(0 -0 66.9498)
(0 -0 67.3714)
(0 -0 67.7793)
(0 -0 68.1743)
(0 -0 68.557)
(0 -0 68.9274)
(0 -0 69.2857)
(0 -0 69.6315)
(0 -0 69.9645)
(0 -0 70.2838)
(0 -0 70.5887)
(0 -0 70.878)
(0 -0 71.1506)
(0 -0 71.4053)
(0 -0 71.6407)
(0 -0 71.8552)
(0 -0 72.0471)
(0 -0 72.2148)
(0 -0 72.3561)
(0 -0 72.4692)
(0 -0 72.5519)
(0 -0 72.6027)
(0 -0 72.6191)
(0 -0 72.6005)
(0 -0 72.5443)
(0 -0 72.4508)
(0 -0 72.318)
(0 -0 72.1462)
(0 -0 71.9356)
(0 -0 71.684)
(0 -0 71.3981)
(0 -0 71.0648)
(0 -0 70.7117)
(0 -0 70.2889)
(0 -0 69.8854)
(0 -0 69.3467)
(0 -0 56.3705)
(0 -0 55.7623)
(0 -0 55.9681)
(0 -0 56.4649)
(0 -0 57.1375)
(0 -0 57.7543)
(0 -0 58.2812)
(0 -0 58.7782)
(0 -0 59.2674)
(0 -0 59.743)
(0 -0 60.2015)
(0 -0 60.6438)
(0 -0 61.0713)
(0 -0 61.4845)
(0 -0 61.8837)
(0 -0 62.2696)
(0 -0 62.6429)
(0 -0 63.0044)
(0 -0 63.3547)
(0 -0 63.6943)
(0 -0 64.0238)
(0 -0 64.3432)
(0 -0 64.6529)
(0 -0 64.953)
(0 -0 65.2434)
(0 -0 65.5244)
(0 -0 65.7957)
(0 -0 66.0576)
(0 -0 66.3096)
(0 -0 66.5518)
(0 -0 66.7834)
(0 -0 67.0041)
(0 -0 67.2128)
(0 -0 67.4089)
(0 -0 67.5909)
(0 -0 67.7582)
(0 -0 67.909)
(0 -0 68.043)
(0 -0 68.1581)
(0 -0 68.2548)
(0 -0 68.3304)
(0 -0 68.3861)
(0 -0 68.4199)
(0 -0 68.4317)
(0 -0 68.4232)
(0 -0 68.3877)
(0 -0 68.342)
(0 -0 68.2517)
(0 -0 68.186)
(0 -0 68.0216)
(0 -0 52.0629)
(0 -0 51.5736)
(0 -0 51.7845)
(0 -0 52.2114)
(0 -0 52.7999)
(0 -0 53.3567)
(0 -0 53.8343)
(0 -0 54.2826)
(0 -0 54.7251)
(0 -0 55.1574)
(0 -0 55.5752)
(0 -0 55.9786)
(0 -0 56.3688)
(0 -0 56.7459)
(0 -0 57.1102)
(0 -0 57.4622)
(0 -0 57.8026)
(0 -0 58.132)
(0 -0 58.4512)
(0 -0 58.7605)
(0 -0 59.0606)
(0 -0 59.3518)
(0 -0 59.6343)
(0 -0 59.9086)
(0 -0 60.175)
(0 -0 60.4338)
(0 -0 60.6855)
(0 -0 60.9305)
(0 -0 61.1691)
(0 -0 61.4015)
(0 -0 61.6279)
(0 -0 61.8483)
(0 -0 62.0623)
(0 -0 62.2697)
(0 -0 62.4696)
(0 -0 62.6619)
(0 -0 62.8453)
(0 -0 63.0201)
(0 -0 63.1843)
(0 -0 63.3389)
(0 -0 63.4811)
(0 -0 63.6131)
(0 -0 63.7313)
(0 -0 63.8382)
(0 -0 63.9316)
(0 -0 64.0105)
(0 -0 64.0826)
(0 -0 64.1266)
(0 -0 64.1941)
(0 -0 64.187)
(0 -0 48.0348)
(0 -0 47.6392)
(0 -0 47.8522)
(0 -0 48.2183)
(0 -0 48.7296)
(0 -0 49.229)
(0 -0 49.6603)
(0 -0 50.0631)
(0 -0 50.4616)
(0 -0 50.8531)
(0 -0 51.2325)
(0 -0 51.5994)
(0 -0 51.9542)
(0 -0 52.2973)
(0 -0 52.6285)
(0 -0 52.9485)
(0 -0 53.2577)
(0 -0 53.5568)
(0 -0 53.8464)
(0 -0 54.1269)
(0 -0 54.3989)
(0 -0 54.6627)
(0 -0 54.9186)
(0 -0 55.1671)
(0 -0 55.4084)
(0 -0 55.6431)
(0 -0 55.8717)
(0 -0 56.0948)
(0 -0 56.3128)
(0 -0 56.5262)
(0 -0 56.7352)
(0 -0 56.9401)
(0 -0 57.1406)
(0 -0 57.3369)
(0 -0 57.5281)
(0 -0 57.7146)
(0 -0 57.8951)
(0 -0 58.0703)
(0 -0 58.2382)
(0 -0 58.4005)
(0 -0 58.5539)
(0 -0 58.7016)
(0 -0 58.8389)
(0 -0 58.9704)
(0 -0 59.0907)
(0 -0 59.2036)
(0 -0 59.3097)
(0 -0 59.3982)
(0 -0 59.505)
(0 -0 59.554)
(0 -0 44.2787)
(0 -0 43.9568)
(0 -0 44.1684)
(0 -0 44.4819)
(0 -0 44.9229)
(0 -0 45.3677)
(0 -0 45.7555)
(0 -0 46.1162)
(0 -0 46.4737)
(0 -0 46.8269)
(0 -0 47.1704)
(0 -0 47.503)
(0 -0 47.8248)
(0 -0 48.1358)
(0 -0 48.436)
(0 -0 48.7258)
(0 -0 49.0056)
(0 -0 49.2761)
(0 -0 49.5378)
(0 -0 49.7911)
(0 -0 50.0366)
(0 -0 50.2744)
(0 -0 50.5051)
(0 -0 50.7289)
(0 -0 50.9462)
(0 -0 51.1576)
(0 -0 51.3635)
(0 -0 51.5646)
(0 -0 51.7615)
(0 -0 51.9546)
(0 -0 52.1441)
(0 -0 52.3304)
(0 -0 52.5133)
(0 -0 52.6929)
(0 -0 52.8687)
(0 -0 53.0408)
(0 -0 53.2082)
(0 -0 53.3716)
(0 -0 53.5292)
(0 -0 53.6827)
(0 -0 53.8288)
(0 -0 53.9714)
(0 -0 54.1047)
(0 -0 54.235)
(0 -0 54.3546)
(0 -0 54.4709)
(0 -0 54.5787)
(0 -0 54.6762)
(0 -0 54.7846)
(0 -0 54.8491)
(0 -0 40.7859)
(0 -0 40.522)
(0 -0 40.7285)
(0 -0 40.9966)
(0 -0 41.3744)
(0 -0 41.7676)
(0 -0 42.1148)
(0 -0 42.4366)
(0 -0 42.756)
(0 -0 43.0736)
(0 -0 43.3837)
(0 -0 43.6844)
(0 -0 43.9753)
(0 -0 44.2565)
(0 -0 44.5277)
(0 -0 44.7893)
(0 -0 45.0416)
(0 -0 45.2852)
(0 -0 45.5207)
(0 -0 45.7485)
(0 -0 45.969)
(0 -0 46.1826)
(0 -0 46.3894)
(0 -0 46.59)
(0 -0 46.7847)
(0 -0 46.974)
(0 -0 47.1585)
(0 -0 47.3388)
(0 -0 47.5155)
(0 -0 47.689)
(0 -0 47.8596)
(0 -0 48.0277)
(0 -0 48.193)
(0 -0 48.3556)
(0 -0 48.515)
(0 -0 48.6714)
(0 -0 48.8237)
(0 -0 48.9727)
(0 -0 49.1166)
(0 -0 49.2573)
(0 -0 49.3912)
(0 -0 49.5228)
(0 -0 49.6454)
(0 -0 49.7668)
(0 -0 49.8771)
(0 -0 49.9868)
(0 -0 50.0859)
(0 -0 50.1802)
(0 -0 50.2778)
(0 -0 50.3431)
(0 -0 37.5468)
(0 -0 37.3288)
(0 -0 37.5264)
(0 -0 37.7553)
(0 -0 38.0767)
(0 -0 38.4217)
(0 -0 38.7311)
(0 -0 39.0172)
(0 -0 39.3017)
(0 -0 39.5862)
(0 -0 39.8655)
(0 -0 40.1366)
(0 -0 40.399)
(0 -0 40.6525)
(0 -0 40.8968)
(0 -0 41.1321)
(0 -0 41.3589)
(0 -0 41.5775)
(0 -0 41.7886)
(0 -0 41.9926)
(0 -0 42.1898)
(0 -0 42.3805)
(0 -0 42.5651)
(0 -0 42.744)
(0 -0 42.9175)
(0 -0 43.0862)
(0 -0 43.2506)
(0 -0 43.4115)
(0 -0 43.5692)
(0 -0 43.7244)
(0 -0 43.8774)
(0 -0 44.0282)
(0 -0 44.1769)
(0 -0 44.3234)
(0 -0 44.4671)
(0 -0 44.6084)
(0 -0 44.746)
(0 -0 44.8808)
(0 -0 45.011)
(0 -0 45.1385)
(0 -0 45.2598)
(0 -0 45.3794)
(0 -0 45.4902)
(0 -0 45.601)
(0 -0 45.7002)
(0 -0 45.8009)
(0 -0 45.8887)
(0 -0 45.9763)
(0 -0 46.0601)
(0 -0 46.1219)
(0 -0 34.5505)
(0 -0 34.3696)
(0 -0 34.5544)
(0 -0 34.7495)
(0 -0 35.0211)
(0 -0 35.3215)
(0 -0 35.5957)
(0 -0 35.8494)
(0 -0 36.1019)
(0 -0 36.3561)
(0 -0 36.6069)
(0 -0 36.851)
(0 -0 37.0872)
(0 -0 37.3152)
(0 -0 37.5347)
(0 -0 37.7458)
(0 -0 37.9488)
(0 -0 38.1443)
(0 -0 38.3328)
(0 -0 38.5146)
(0 -0 38.6902)
(0 -0 38.8598)
(0 -0 39.0238)
(0 -0 39.1825)
(0 -0 39.3363)
(0 -0 39.4858)
(0 -0 39.6316)
(0 -0 39.7743)
(0 -0 39.9146)
(0 -0 40.0528)
(0 -0 40.1893)
(0 -0 40.3242)
(0 -0 40.4574)
(0 -0 40.589)
(0 -0 40.7182)
(0 -0 40.8453)
(0 -0 40.9692)
(0 -0 41.0908)
(0 -0 41.2081)
(0 -0 41.3232)
(0 -0 41.4324)
(0 -0 41.5404)
(0 -0 41.64)
(0 -0 41.7403)
(0 -0 41.8286)
(0 -0 41.9202)
(0 -0 41.997)
(0 -0 42.0771)
(0 -0 42.1476)
(0 -0 42.205)
(0 -0 31.7858)
(0 -0 31.6349)
(0 -0 31.8039)
(0 -0 31.9701)
(0 -0 32.1981)
(0 -0 32.4574)
(0 -0 32.6993)
(0 -0 32.9235)
(0 -0 33.1469)
(0 -0 33.3733)
(0 -0 33.5982)
(0 -0 33.8175)
(0 -0 34.0298)
(0 -0 34.2345)
(0 -0 34.4312)
(0 -0 34.6201)
(0 -0 34.8014)
(0 -0 34.9756)
(0 -0 35.1432)
(0 -0 35.3047)
(0 -0 35.4603)
(0 -0 35.6104)
(0 -0 35.7552)
(0 -0 35.8952)
(0 -0 36.0309)
(0 -0 36.1626)
(0 -0 36.2912)
(0 -0 36.4172)
(0 -0 36.5413)
(0 -0 36.6639)
(0 -0 36.7853)
(0 -0 36.9056)
(0 -0 37.0246)
(0 -0 37.1423)
(0 -0 37.2582)
(0 -0 37.3724)
(0 -0 37.4837)
(0 -0 37.593)
(0 -0 37.6985)
(0 -0 37.8021)
(0 -0 37.9002)
(0 -0 37.9975)
(0 -0 38.0867)
(0 -0 38.1772)
(0 -0 38.2555)
(0 -0 38.3384)
(0 -0 38.4048)
(0 -0 38.4781)
(0 -0 38.5359)
(0 -0 38.5897)
(0 -0 29.2406)
(0 -0 29.1141)
(0 -0 29.2654)
(0 -0 29.4071)
(0 -0 29.5973)
(0 -0 29.8192)
(0 -0 30.0311)
(0 -0 30.2286)
(0 -0 30.4257)
(0 -0 30.6271)
(0 -0 30.8283)
(0 -0 31.0252)
(0 -0 31.2158)
(0 -0 31.3992)
(0 -0 31.5752)
(0 -0 31.7437)
(0 -0 31.9051)
(0 -0 32.0599)
(0 -0 32.2084)
(0 -0 32.3511)
(0 -0 32.4884)
(0 -0 32.6206)
(0 -0 32.7479)
(0 -0 32.8708)
(0 -0 32.9897)
(0 -0 33.1051)
(0 -0 33.2179)
(0 -0 33.3286)
(0 -0 33.4378)
(0 -0 33.5461)
(0 -0 33.6536)
(0 -0 33.7605)
(0 -0 33.8666)
(0 -0 33.9718)
(0 -0 34.0755)
(0 -0 34.1778)
(0 -0 34.2777)
(0 -0 34.3758)
(0 -0 34.4704)
(0 -0 34.5636)
(0 -0 34.6515)
(0 -0 34.7391)
(0 -0 34.8187)
(0 -0 34.9002)
(0 -0 34.9694)
(0 -0 35.0443)
(0 -0 35.1014)
(0 -0 35.1683)
(0 -0 35.2145)
(0 -0 35.2657)
(0 -0 26.9024)
(0 -0 26.7956)
(0 -0 26.9284)
(0 -0 27.0492)
(0 -0 27.2068)
(0 -0 27.395)
(0 -0 27.5795)
(0 -0 27.7529)
(0 -0 27.9265)
(0 -0 28.1052)
(0 -0 28.2851)
(0 -0 28.4618)
(0 -0 28.6327)
(0 -0 28.7969)
(0 -0 28.9542)
(0 -0 29.1043)
(0 -0 29.2476)
(0 -0 29.3846)
(0 -0 29.5158)
(0 -0 29.6414)
(0 -0 29.762)
(0 -0 29.8778)
(0 -0 29.989)
(0 -0 30.0962)
(0 -0 30.1998)
(0 -0 30.3004)
(0 -0 30.3987)
(0 -0 30.4954)
(0 -0 30.5911)
(0 -0 30.6863)
(0 -0 30.7813)
(0 -0 30.876)
(0 -0 30.9704)
(0 -0 31.0642)
(0 -0 31.1569)
(0 -0 31.2484)
(0 -0 31.3379)
(0 -0 31.4259)
(0 -0 31.5107)
(0 -0 31.5943)
(0 -0 31.6731)
(0 -0 31.7518)
(0 -0 31.8228)
(0 -0 31.8961)
(0 -0 31.9571)
(0 -0 32.0246)
(0 -0 32.0734)
(0 -0 32.1343)
(0 -0 32.1708)
(0 -0 32.2191)
(0 -0 24.7584)
(0 -0 24.6675)
(0 -0 24.7817)
(0 -0 24.8845)
(0 -0 25.0142)
(0 -0 25.1723)
(0 -0 25.3317)
(0 -0 25.4835)
(0 -0 25.6362)
(0 -0 25.7947)
(0 -0 25.9555)
(0 -0 26.114)
(0 -0 26.2674)
(0 -0 26.4144)
(0 -0 26.5547)
(0 -0 26.6883)
(0 -0 26.8153)
(0 -0 26.9362)
(0 -0 27.0516)
(0 -0 27.1618)
(0 -0 27.2672)
(0 -0 27.3681)
(0 -0 27.4648)
(0 -0 27.5577)
(0 -0 27.6474)
(0 -0 27.7344)
(0 -0 27.8196)
(0 -0 27.9036)
(0 -0 27.9871)
(0 -0 28.0705)
(0 -0 28.1541)
(0 -0 28.2379)
(0 -0 28.3216)
(0 -0 28.4052)
(0 -0 28.4879)
(0 -0 28.5698)
(0 -0 28.6499)
(0 -0 28.7288)
(0 -0 28.8049)
(0 -0 28.8799)
(0 -0 28.9505)
(0 -0 29.0211)
(0 -0 29.0844)
(0 -0 29.1503)
(0 -0 29.204)
(0 -0 29.2648)
(0 -0 29.3064)
(0 -0 29.3616)
(0 -0 29.3896)
(0 -0 29.4356)
(0 -0 22.7955)
(0 -0 22.7173)
(0 -0 22.8136)
(0 -0 22.9007)
(0 -0 23.0066)
(0 -0 23.138)
(0 -0 23.2748)
(0 -0 23.4073)
(0 -0 23.5415)
(0 -0 23.6819)
(0 -0 23.8258)
(0 -0 23.9682)
(0 -0 24.1059)
(0 -0 24.2376)
(0 -0 24.3629)
(0 -0 24.4815)
(0 -0 24.5939)
(0 -0 24.7005)
(0 -0 24.8017)
(0 -0 24.898)
(0 -0 24.9896)
(0 -0 25.0771)
(0 -0 25.1606)
(0 -0 25.2406)
(0 -0 25.3176)
(0 -0 25.3925)
(0 -0 25.4658)
(0 -0 25.5383)
(0 -0 25.6108)
(0 -0 25.6836)
(0 -0 25.757)
(0 -0 25.8309)
(0 -0 25.9052)
(0 -0 25.9796)
(0 -0 26.0535)
(0 -0 26.1268)
(0 -0 26.1986)
(0 -0 26.2693)
(0 -0 26.3375)
(0 -0 26.4049)
(0 -0 26.4681)
(0 -0 26.5315)
(0 -0 26.588)
(0 -0 26.6472)
(0 -0 26.6944)
(0 -0 26.7493)
(0 -0 26.7843)
(0 -0 26.8347)
(0 -0 26.8553)
(0 -0 26.8989)
(0 -0 21.0009)
(0 -0 20.9327)
(0 -0 21.0123)
(0 -0 21.0855)
(0 -0 21.171)
(0 -0 21.2791)
(0 -0 21.3955)
(0 -0 21.5106)
(0 -0 21.6286)
(0 -0 21.7532)
(0 -0 21.8821)
(0 -0 22.0102)
(0 -0 22.1342)
(0 -0 22.2523)
(0 -0 22.3642)
(0 -0 22.4696)
(0 -0 22.569)
(0 -0 22.6627)
(0 -0 22.7512)
(0 -0 22.8349)
(0 -0 22.9143)
(0 -0 22.9897)
(0 -0 23.0613)
(0 -0 23.1297)
(0 -0 23.1954)
(0 -0 23.2592)
(0 -0 23.3219)
(0 -0 23.3842)
(0 -0 23.4467)
(0 -0 23.5101)
(0 -0 23.5744)
(0 -0 23.6396)
(0 -0 23.7055)
(0 -0 23.7717)
(0 -0 23.8378)
(0 -0 23.9034)
(0 -0 23.9678)
(0 -0 24.0313)
(0 -0 24.0926)
(0 -0 24.1532)
(0 -0 24.21)
(0 -0 24.267)
(0 -0 24.3174)
(0 -0 24.3706)
(0 -0 24.4122)
(0 -0 24.4616)
(0 -0 24.4909)
(0 -0 24.5373)
(0 -0 24.5509)
(0 -0 24.5932)
(0 -0 19.3616)
(0 -0 19.3014)
(0 -0 19.3655)
(0 -0 19.4263)
(0 -0 19.4946)
(0 -0 19.5824)
(0 -0 19.6804)
(0 -0 19.7802)
(0 -0 19.8839)
(0 -0 19.9947)
(0 -0 20.1104)
(0 -0 20.226)
(0 -0 20.3379)
(0 -0 20.4442)
(0 -0 20.5442)
(0 -0 20.638)
(0 -0 20.7257)
(0 -0 20.808)
(0 -0 20.8852)
(0 -0 20.9578)
(0 -0 21.0262)
(0 -0 21.0908)
(0 -0 21.1518)
(0 -0 21.2098)
(0 -0 21.2654)
(0 -0 21.3193)
(0 -0 21.3724)
(0 -0 21.4255)
(0 -0 21.4793)
(0 -0 21.5342)
(0 -0 21.5904)
(0 -0 21.6479)
(0 -0 21.7064)
(0 -0 21.7655)
(0 -0 21.8246)
(0 -0 21.8835)
(0 -0 21.9415)
(0 -0 21.9987)
(0 -0 22.0539)
(0 -0 22.1084)
(0 -0 22.1595)
(0 -0 22.2109)
(0 -0 22.2561)
(0 -0 22.304)
(0 -0 22.3406)
(0 -0 22.3852)
(0 -0 22.4098)
(0 -0 22.452)
(0 -0 22.4606)
(0 -0 22.5011)
(0 -0 17.8651)
(0 -0 17.811)
(0 -0 17.8614)
(0 -0 17.911)
(0 -0 17.9646)
(0 -0 18.0348)
(0 -0 18.1165)
(0 -0 18.2026)
(0 -0 18.2939)
(0 -0 18.3927)
(0 -0 18.4969)
(0 -0 18.6017)
(0 -0 18.7031)
(0 -0 18.7989)
(0 -0 18.8886)
(0 -0 18.9721)
(0 -0 19.0497)
(0 -0 19.1219)
(0 -0 19.1891)
(0 -0 19.2518)
(0 -0 19.3104)
(0 -0 19.3653)
(0 -0 19.4169)
(0 -0 19.4656)
(0 -0 19.5121)
(0 -0 19.5573)
(0 -0 19.6019)
(0 -0 19.6468)
(0 -0 19.6928)
(0 -0 19.7403)
(0 -0 19.7894)
(0 -0 19.8401)
(0 -0 19.8921)
(0 -0 19.9449)
(0 -0 19.998)
(0 -0 20.0511)
(0 -0 20.1033)
(0 -0 20.155)
(0 -0 20.2049)
(0 -0 20.2543)
(0 -0 20.3005)
(0 -0 20.3469)
(0 -0 20.3876)
(0 -0 20.4307)
(0 -0 20.4632)
(0 -0 20.5034)
(0 -0 20.524)
(0 -0 20.5626)
(0 -0 20.5671)
(0 -0 20.6053)
(0 -0 16.4993)
(0 -0 16.45)
(0 -0 16.4881)
(0 -0 16.5276)
(0 -0 16.5687)
(0 -0 16.6238)
(0 -0 16.691)
(0 -0 16.765)
(0 -0 16.8455)
(0 -0 16.934)
(0 -0 17.0283)
(0 -0 17.1237)
(0 -0 17.216)
(0 -0 17.3028)
(0 -0 17.3836)
(0 -0 17.4581)
(0 -0 17.5267)
(0 -0 17.59)
(0 -0 17.6484)
(0 -0 17.7023)
(0 -0 17.7523)
(0 -0 17.7987)
(0 -0 17.8418)
(0 -0 17.8823)
(0 -0 17.9207)
(0 -0 17.958)
(0 -0 17.9951)
(0 -0 18.0329)
(0 -0 18.072)
(0 -0 18.1129)
(0 -0 18.1558)
(0 -0 18.2006)
(0 -0 18.2469)
(0 -0 18.2943)
(0 -0 18.3422)
(0 -0 18.3902)
(0 -0 18.4376)
(0 -0 18.4845)
(0 -0 18.5298)
(0 -0 18.5746)
(0 -0 18.6166)
(0 -0 18.6587)
(0 -0 18.6955)
(0 -0 18.7346)
(0 -0 18.7634)
(0 -0 18.7998)
(0 -0 18.817)
(0 -0 18.8524)
(0 -0 18.8533)
(0 -0 18.8901)
(0 -0 15.2526)
(0 -0 15.2069)
(0 -0 15.2344)
(0 -0 15.2646)
(0 -0 15.2952)
(0 -0 15.3372)
(0 -0 15.3917)
(0 -0 15.455)
(0 -0 15.5262)
(0 -0 15.6058)
(0 -0 15.6917)
(0 -0 15.779)
(0 -0 15.8634)
(0 -0 15.9426)
(0 -0 16.0155)
(0 -0 16.0823)
(0 -0 16.1431)
(0 -0 16.1986)