/*--------------------------------*- C++ -*----------------------------------*\
  =========                 |
  \\      /  F ield         | OpenFOAM: The Open Source CFD Toolbox
   \\    /   O peration     | Website:  https://openfoam.org
    \\  /    A nd           | Version:  7
     \\/     M anipulation  |
\*---------------------------------------------------------------------------*/
FoamFile
{
    version     2.0;
    format      ascii;
    class       volVectorField;
    location    "0.43";
    object      wallShearStress;
}
// * * * * * * * * * * * * * * * * * * * * * * * * * * * * * * * * * * * * * //

dimensions      [0 2 -2 0 0 0 0];

internalField   uniform (0 0 0);

boundaryField
{
    velocityInlet
    {
        type            calculated;
        value           uniform (0 0 0);
    }
    pressureOutlet
    {
        type            calculated;
        value           uniform (0 0 0);
    }
    fixedWalls
    {
        type            calculated;
        value           nonuniform List<vector> 
100
(
(-0.0197158 -0.00927779 0)
(0.010014 -0.0016968 0)
(0.00321305 0.000191556 0)
(0.00481851 0.000134156 0)
(0.00212648 0.000401936 0)
(7.79524e-05 0.000332965 0)
(-0.00134844 0.000198517 0)
(-0.00187106 6.76883e-05 0)
(-0.00184195 -1.10458e-05 0)
(-0.00156928 -4.49833e-05 0)
(-0.00122339 -5.59103e-05 0)
(-0.000882565 -5.6052e-05 0)
(-0.000585889 -5.00887e-05 0)
(-0.000353281 -4.12378e-05 0)
(-0.000194906 -3.09193e-05 0)
(-0.00012575 -1.95249e-05 0)
(-0.000167803 -2.36199e-06 0)
(-0.000342629 1.65601e-05 0)
(-0.00067224 3.89964e-05 0)
(-0.0011859 6.96143e-05 0)
(-0.00191674 0.000111213 0)
(-0.00285406 0.000150674 0)
(-0.00372315 0.000148137 0)
(-0.0038193 1.19816e-05 0)
(-0.00235577 -0.000260469 0)
(0.000359237 -0.000401349 0)
(0.00251762 -0.000277817 0)
(0.00267201 1.7534e-05 0)
(0.00105017 0.000220239 0)
(-0.00118485 0.000251447 0)
(-0.00305026 0.000188128 0)
(-0.00418553 0.000106011 0)
(-0.00469703 4.8833e-05 0)
(-0.00483733 2.19549e-05 0)
(-0.00479827 7.76219e-06 0)
(-0.00467022 -1.71139e-07 0)
(-0.00446348 -1.11629e-05 0)
(-0.00414745 -2.86595e-05 0)
(-0.00370197 -4.90149e-05 0)
(-0.003157 -6.42304e-05 0)
(-0.00259675 -6.68628e-05 0)
(-0.00212775 -5.45096e-05 0)
(-0.0018344 -3.29474e-05 0)
(-0.00174894 -1.05275e-05 0)
(-0.00186747 1.37198e-05 0)
(-0.00217702 3.70999e-05 0)
(-0.00261545 5.14276e-05 0)
(-0.00301487 3.75257e-05 0)
(-0.00316959 -1.89558e-06 0)
(-0.00309491 -3.1286e-05 0)
(-0.00314761 -3.4326e-06 0)
(-0.00369525 6.48534e-05 0)
(-0.00468306 0.000111552 0)
(-0.00577179 0.000118562 0)
(-0.00676113 0.000116027 0)
(-0.00758533 0.000111176 0)
(-0.00809773 9.26631e-05 0)
(-0.00801429 3.33224e-05 0)
(-0.00702617 -7.61025e-05 0)
(-0.00496325 -0.000215178 0)
(-0.0018526 -0.00037004 0)
(0.00161255 -0.000382894 0)
(0.00432844 -0.000307592 0)
(0.00568354 -0.000148323 0)
(0.005453 2.78095e-05 0)
(0.00398021 0.000151501 0)
(0.0019337 0.000194811 0)
(-0.000148097 0.000189603 0)
(-0.00198146 0.000161765 0)
(-0.00348328 0.000133697 0)
(-0.00467404 0.000113381 0)
(-0.00552999 8.98217e-05 0)
(-0.00589997 5.48514e-05 0)
(-0.00558432 -8.96365e-06 0)
(-0.00451824 -8.06766e-05 0)
(-0.00278061 -0.000148767 0)
(-0.000621378 -0.00019428 0)
(0.00158707 -0.000203876 0)
(0.00349401 -0.000184093 0)
(0.00483115 -0.000132993 0)
(0.00541792 -6.44402e-05 0)
(0.00519537 1.15014e-05 0)
(0.00423009 7.84189e-05 0)
(0.00274128 0.000122432 0)
(0.00104712 0.000136299 0)
(-0.000556131 0.000123416 0)
(-0.00184805 9.60949e-05 0)
(-0.00275108 6.5033e-05 0)
(-0.0033024 3.88863e-05 0)
(-0.00358175 1.94372e-05 0)
(-0.00368849 8.32143e-06 0)
(-0.00367986 5.76484e-07 0)
(-0.003623 -2.25627e-06 0)
(-0.00350736 -6.27643e-06 0)
(-0.0034043 -5.27124e-06 0)
(-0.00325309 -6.01547e-06 0)
(-0.00308007 -1.00003e-05 0)
(-0.00284117 -1.87884e-05 0)
(-0.00222825 -4.86542e-05 0)
(-0.001638 -3.23414e-05 0)
)
;
    }
    bottomWall
    {
        type            calculated;
        value           nonuniform List<vector> 
800
(
(-0.0353512 0.00216562 0)
(-0.0160365 0.000524964 0)
(-0.0105905 0.000100556 0)
(-0.00845564 3.45915e-05 0)
(-0.00749148 1.96863e-05 0)
(-0.00685568 1.60157e-05 0)
(-0.00634676 1.32157e-05 0)
(-0.00593543 1.0766e-05 0)
(-0.00560075 8.96486e-06 0)
(-0.00532198 7.66465e-06 0)
(-0.00508454 6.67941e-06 0)
(-0.004879 5.90096e-06 0)
(-0.00469889 5.2704e-06 0)
(-0.00453948 4.7508e-06 0)
(-0.00439718 4.31652e-06 0)
(-0.00426922 3.94902e-06 0)
(-0.00415341 3.63457e-06 0)
(-0.00404801 3.3629e-06 0)
(-0.0039516 3.12619e-06 0)
(-0.00386302 2.91839e-06 0)
(-0.00378132 2.73473e-06 0)
(-0.00370569 2.57145e-06 0)
(-0.00363544 2.42549e-06 0)
(-0.00357001 2.29439e-06 0)
(-0.00350888 2.1761e-06 0)
(-0.00345164 2.06891e-06 0)
(-0.00339792 1.97143e-06 0)
(-0.00334738 1.88244e-06 0)
(-0.00329975 1.80093e-06 0)
(-0.00325477 1.72604e-06 0)
(-0.00321222 1.65703e-06 0)
(-0.00317192 1.59325e-06 0)
(-0.00313367 1.53418e-06 0)
(-0.00309733 1.47932e-06 0)
(-0.00306276 1.42826e-06 0)
(-0.00302982 1.38065e-06 0)
(-0.0029984 1.33616e-06 0)
(-0.00296841 1.29453e-06 0)
(-0.00293974 1.25548e-06 0)
(-0.0029123 1.2188e-06 0)
(-0.00288603 1.18431e-06 0)
(-0.00286084 1.15181e-06 0)
(-0.00283668 1.12116e-06 0)
(-0.00281348 1.09215e-06 0)
(-0.00279118 1.06484e-06 0)
(-0.00276974 1.03872e-06 0)
(-0.0027491 1.01443e-06 0)
(-0.00272924 9.90525e-07 0)
(-0.00271008 9.69047e-07 0)
(-0.00269162 9.46121e-07 0)
(-0.0026762 9.27337e-07 0)
(-0.00266346 9.16693e-07 0)
(-0.00265088 9.03039e-07 0)
(-0.0026385 8.88484e-07 0)
(-0.00262631 8.74842e-07 0)
(-0.0026143 8.61863e-07 0)
(-0.00260247 8.49197e-07 0)
(-0.00259081 8.36801e-07 0)
(-0.00257932 8.24704e-07 0)
(-0.002568 8.129e-07 0)
(-0.00255684 8.01373e-07 0)
(-0.00254583 7.90108e-07 0)
(-0.00253498 7.79099e-07 0)
(-0.00252427 7.68336e-07 0)
(-0.00251372 7.57813e-07 0)
(-0.0025033 7.47522e-07 0)
(-0.00249303 7.37456e-07 0)
(-0.0024829 7.27607e-07 0)
(-0.0024729 7.17972e-07 0)
(-0.00246303 7.08541e-07 0)
(-0.00245329 6.9931e-07 0)
(-0.00244367 6.90271e-07 0)
(-0.00243418 6.8142e-07 0)
(-0.00242481 6.72748e-07 0)
(-0.00241556 6.64252e-07 0)
(-0.00240643 6.55925e-07 0)
(-0.00239741 6.47762e-07 0)
(-0.0023885 6.39758e-07 0)
(-0.0023797 6.31908e-07 0)
(-0.00237101 6.24208e-07 0)
(-0.00236242 6.16655e-07 0)
(-0.00235394 6.09243e-07 0)
(-0.00234556 6.01969e-07 0)
(-0.00233728 5.9483e-07 0)
(-0.00232909 5.87822e-07 0)
(-0.00232101 5.80943e-07 0)
(-0.00231301 5.74188e-07 0)
(-0.00230511 5.67556e-07 0)
(-0.0022973 5.61044e-07 0)
(-0.00228958 5.54649e-07 0)
(-0.00228195 5.48369e-07 0)
(-0.0022744 5.422e-07 0)
(-0.00226694 5.3614e-07 0)
(-0.00225956 5.30188e-07 0)
(-0.00225226 5.2434e-07 0)
(-0.00224504 5.18594e-07 0)
(-0.0022379 5.12948e-07 0)
(-0.00223084 5.07398e-07 0)
(-0.00222386 5.01945e-07 0)
(-0.00221695 4.96584e-07 0)
(-0.00221011 4.91314e-07 0)
(-0.00220335 4.86133e-07 0)
(-0.00219665 4.8104e-07 0)
(-0.00219003 4.7603e-07 0)
(-0.00218347 4.71105e-07 0)
(-0.00217699 4.66261e-07 0)
(-0.00217057 4.61498e-07 0)
(-0.00216421 4.56812e-07 0)
(-0.00215792 4.52205e-07 0)
(-0.00215169 4.47672e-07 0)
(-0.00214553 4.43214e-07 0)
(-0.00213943 4.38828e-07 0)
(-0.00213338 4.34514e-07 0)
(-0.0021274 4.30269e-07 0)
(-0.00212147 4.26093e-07 0)
(-0.00211561 4.21984e-07 0)
(-0.00210979 4.17941e-07 0)
(-0.00210404 4.13962e-07 0)
(-0.00209834 4.10047e-07 0)
(-0.00209269 4.06193e-07 0)
(-0.0020871 4.024e-07 0)
(-0.00208156 3.98667e-07 0)
(-0.00207607 3.94992e-07 0)
(-0.00207063 3.91373e-07 0)
(-0.00206524 3.87811e-07 0)
(-0.0020599 3.84302e-07 0)
(-0.00205461 3.80848e-07 0)
(-0.00204937 3.77445e-07 0)
(-0.00204417 3.74094e-07 0)
(-0.00203902 3.70792e-07 0)
(-0.00203392 3.67541e-07 0)
(-0.00202886 3.64339e-07 0)
(-0.00202384 3.61185e-07 0)
(-0.00201887 3.58074e-07 0)
(-0.00201394 3.5501e-07 0)
(-0.00200906 3.51988e-07 0)
(-0.00200421 3.49013e-07 0)
(-0.00199941 3.46076e-07 0)
(-0.00199465 3.43184e-07 0)
(-0.00198993 3.40325e-07 0)
(-0.00198525 3.37516e-07 0)
(-0.0019806 3.34729e-07 0)
(-0.001976 3.32006e-07 0)
(-0.00197143 3.2928e-07 0)
(-0.00196691 3.26652e-07 0)
(-0.00196241 3.23971e-07 0)
(-0.00195796 3.21451e-07 0)
(-0.00195354 3.18781e-07 0)
(-0.00194915 3.16363e-07 0)
(-0.00194481 3.13624e-07 0)
(-0.00194116 3.11187e-07 0)
(-0.00193818 3.09934e-07 0)
(-0.00193519 3.08421e-07 0)
(-0.00193219 3.0666e-07 0)
(-0.0019292 3.04928e-07 0)
(-0.00192619 3.03228e-07 0)
(-0.00192319 3.01572e-07 0)
(-0.00192018 2.9991e-07 0)
(-0.00191716 2.98261e-07 0)
(-0.00191415 2.96612e-07 0)
(-0.00191112 2.94982e-07 0)
(-0.0019081 2.93351e-07 0)
(-0.00190506 2.91736e-07 0)
(-0.00190203 2.90107e-07 0)
(-0.00189899 2.88497e-07 0)
(-0.00189595 2.86888e-07 0)
(-0.0018929 2.85294e-07 0)
(-0.00188985 2.83697e-07 0)
(-0.00188679 2.82112e-07 0)
(-0.00188373 2.8053e-07 0)
(-0.00188067 2.78966e-07 0)
(-0.0018776 2.77402e-07 0)
(-0.00187453 2.75849e-07 0)
(-0.00187145 2.74293e-07 0)
(-0.00186837 2.72749e-07 0)
(-0.00186529 2.71207e-07 0)
(-0.0018622 2.69679e-07 0)
(-0.00185911 2.6815e-07 0)
(-0.00185602 2.66642e-07 0)
(-0.00185292 2.65135e-07 0)
(-0.00184982 2.63636e-07 0)
(-0.00184671 2.62141e-07 0)
(-0.0018436 2.6065e-07 0)
(-0.00184049 2.59169e-07 0)
(-0.00183737 2.57704e-07 0)
(-0.00183425 2.56238e-07 0)
(-0.00183112 2.54793e-07 0)
(-0.00182799 2.53344e-07 0)
(-0.00182486 2.51913e-07 0)
(-0.00182172 2.50477e-07 0)
(-0.00181858 2.49059e-07 0)
(-0.00181544 2.47643e-07 0)
(-0.00181229 2.46243e-07 0)
(-0.00180914 2.44852e-07 0)
(-0.00180598 2.43476e-07 0)
(-0.00180282 2.42097e-07 0)
(-0.00179966 2.40742e-07 0)
(-0.00179649 2.39391e-07 0)
(-0.00179331 2.38056e-07 0)
(-0.00179014 2.36714e-07 0)
(-0.00178696 2.35385e-07 0)
(-0.00178377 2.34064e-07 0)
(-0.00178058 2.32762e-07 0)
(-0.00177739 2.31457e-07 0)
(-0.00177419 2.30178e-07 0)
(-0.00177099 2.28892e-07 0)
(-0.00176779 2.27627e-07 0)
(-0.00176458 2.26353e-07 0)
(-0.00176136 2.25097e-07 0)
(-0.00175815 2.23835e-07 0)
(-0.00175492 2.22596e-07 0)
(-0.0017517 2.2135e-07 0)
(-0.00174847 2.20137e-07 0)
(-0.00174523 2.18928e-07 0)
(-0.00174199 2.1774e-07 0)
(-0.00173874 2.16521e-07 0)
(-0.0017355 2.15331e-07 0)
(-0.00173224 2.1415e-07 0)
(-0.00172898 2.12994e-07 0)
(-0.00172572 2.11827e-07 0)
(-0.00172245 2.10682e-07 0)
(-0.00171918 2.09541e-07 0)
(-0.0017159 2.08434e-07 0)
(-0.00171261 2.0734e-07 0)
(-0.00170932 2.06255e-07 0)
(-0.00170603 2.05179e-07 0)
(-0.00170273 2.04088e-07 0)
(-0.00169942 2.03076e-07 0)
(-0.00169611 2.01983e-07 0)
(-0.00169279 2.01082e-07 0)
(-0.00168947 1.99898e-07 0)
(-0.00168613 1.99272e-07 0)
(-0.0016828 1.97839e-07 0)
(-0.00167944 1.97728e-07 0)
(-0.0016761 1.95528e-07 0)
(-0.0016727 1.96704e-07 0)
(-0.00166939 1.92716e-07 0)
(-0.00166592 1.96848e-07 0)
(-0.00166266 1.88565e-07 0)
(-0.00165906 1.99434e-07 0)
(-0.00165593 1.81283e-07 0)
(-0.00165209 2.07071e-07 0)
(-0.00164925 1.67231e-07 0)
(-0.00164493 2.2487e-07 0)
(-0.00164269 1.39664e-07 0)
(-0.0016375 2.61463e-07 0)
(-0.00163631 8.78041e-08 0)
(-0.00162978 3.26385e-07 0)
(-0.00163008 6.03187e-09 0)
(-0.0016218 3.58889e-07 0)
(-0.0353512 -0.00216563 0)
(-0.0160362 -0.000524971 0)
(-0.0105901 -0.000100559 0)
(-0.00845538 -3.45917e-05 0)
(-0.00749146 -1.96845e-05 0)
(-0.00685593 -1.6013e-05 0)
(-0.00634727 -1.32135e-05 0)
(-0.00593615 -1.07652e-05 0)
(-0.0056016 -8.96568e-06 0)
(-0.00532291 -7.66687e-06 0)
(-0.00508552 -6.6826e-06 0)
(-0.00488001 -5.90463e-06 0)
(-0.00469993 -5.2741e-06 0)
(-0.00454056 -4.75419e-06 0)
(-0.00439831 -4.31939e-06 0)
(-0.00427042 -3.9512e-06 0)
(-0.0041547 -3.63594e-06 0)
(-0.00404942 -3.3633e-06 0)
(-0.00395316 -3.12538e-06 0)
(-0.00386478 -2.91606e-06 0)
(-0.00378332 -2.73047e-06 0)
(-0.003708 -2.56477e-06 0)
(-0.00363814 -2.41582e-06 0)
(-0.0035732 -2.2811e-06 0)
(-0.00351268 -2.15851e-06 0)
(-0.00345617 -2.04638e-06 0)
(-0.00340333 -1.94323e-06 0)
(-0.00335384 -1.84797e-06 0)
(-0.00330745 -1.7595e-06 0)
(-0.00326391 -1.67725e-06 0)
(-0.00322303 -1.60026e-06 0)
(-0.00318461 -1.52867e-06 0)
(-0.00314852 -1.46126e-06 0)
(-0.00311458 -1.3996e-06 0)
(-0.00308269 -1.34141e-06 0)
(-0.00305266 -1.29107e-06 0)
(-0.00302442 -1.24411e-06 0)
(-0.0029978 -1.20963e-06 0)
(-0.00297254 -1.18067e-06 0)
(-0.00294881 -1.1708e-06 0)
(-0.00292545 -1.17751e-06 0)
(-0.0029041 -1.20414e-06 0)
(-0.00288037 -1.29169e-06 0)
(-0.00286129 -1.35734e-06 0)
(-0.0028319 -1.64437e-06 0)
(-0.00281704 -1.68074e-06 0)
(-0.00276853 -2.51128e-06 0)
(-0.0027678 -1.90929e-06 0)
(-0.00267276 -8.29804e-06 0)
(-0.00253467 0.000180851 0)
(-1.37467e-05 5.2861e-05 0)
(9.29889e-05 -3.8815e-05 0)
(0.000128406 -0.000265985 0)
(8.3524e-05 -0.000460165 0)
(-1.6335e-05 -0.000568773 0)
(-0.000119828 -0.000523812 0)
(-0.000129761 -0.00035205 0)
(-5.09027e-05 -0.000194053 0)
(3.7295e-05 -0.000143401 0)
(9.01461e-05 -0.000189474 0)
(7.12334e-05 -0.000251327 0)
(-8.51964e-05 -0.000189915 0)
(-0.000278547 0.000127593 0)
(-0.000314481 0.000513015 0)
(-0.000223716 0.000782138 0)
(-0.000108837 0.000898864 0)
(-1.03269e-05 0.000899232 0)
(7.06055e-05 0.000811947 0)
(0.000129011 0.000660041 0)
(0.000168807 0.000467958 0)
(0.000192618 0.000246109 0)
(0.000195457 5.81797e-06 0)
(0.000190442 -0.000225408 0)
(0.000180296 -0.000445182 0)
(0.0001662 -0.000650115 0)
(0.000150374 -0.0008377 0)
(0.000134458 -0.00100739 0)
(0.000119414 -0.00115993 0)
(0.0001057 -0.00129675 0)
(9.34244e-05 -0.00141953 0)
(8.24718e-05 -0.00152987 0)
(7.26056e-05 -0.00162921 0)
(6.35452e-05 -0.00171868 0)
(5.50153e-05 -0.00179915 0)
(4.67744e-05 -0.00187125 0)
(3.86222e-05 -0.00193536 0)
(3.0407e-05 -0.00199171 0)
(2.20164e-05 -0.00204042 0)
(1.33852e-05 -0.00208148 0)
(4.4619e-06 -0.00211488 0)
(-4.76808e-06 -0.00214051 0)
(-1.43452e-05 -0.00215835 0)
(-2.43274e-05 -0.00216823 0)
(-3.48604e-05 -0.00217017 0)
(-4.60006e-05 -0.00216374 0)
(-5.76034e-05 -0.00214895 0)
(-6.965e-05 -0.00212578 0)
(-8.20465e-05 -0.00209414 0)
(-9.47639e-05 -0.00205398 0)
(-0.00010783 -0.00200526 0)
(-0.000121245 -0.00194788 0)
(-0.000134909 -0.00188171 0)
(-0.000148601 -0.00180668 0)
(-0.000161992 -0.0017228 0)
(-0.000174662 -0.00163022 0)
(-0.000186119 -0.00152927 0)
(-0.000195865 -0.00142052 0)
(-0.000203459 -0.00130479 0)
(-0.000208591 -0.00118311 0)
(-0.000211163 -0.00105669 0)
(-0.0002113 -0.000926808 0)
(-0.000209261 -0.000794599 0)
(-0.000205032 -0.000660887 0)
(-0.00019761 -0.000526322 0)
(-0.000184567 -0.000392248 0)
(-0.000163428 -0.000262556 0)
(-0.000136584 -0.000144365 0)
(-0.000117048 -4.32243e-05 0)
(-0.000125451 5.41202e-05 0)
(-0.000136293 0.000180931 0)
(-8.24274e-05 0.000319908 0)
(3.17366e-05 0.000431144 0)
(0.000160276 0.000502687 0)
(0.000264012 0.000511832 0)
(0.00030313 0.00044312 0)
(0.000308459 0.000385754 0)
(0.000266635 0.000331255 0)
(0.000191203 0.00032 0)
(5.3049e-05 0.000321571 0)
(-7.0793e-05 0.000349019 0)
(-0.000108011 0.000363161 0)
(-8.34074e-05 0.00037903 0)
(-4.72904e-05 0.000341715 0)
(-3.59001e-05 0.000285734 0)
(-3.87916e-05 0.000247564 0)
(-3.17723e-05 0.000233408 0)
(-5.62712e-06 0.000229459 0)
(2.93212e-05 0.000219871 0)
(5.50721e-05 0.000201536 0)
(6.13586e-05 0.000183516 0)
(4.99578e-05 0.000174404 0)
(2.7653e-05 0.00017638 0)
(-5.06478e-08 0.000187339 0)
(-2.93306e-05 0.000205437 0)
(-5.80415e-05 0.000230228 0)
(-8.47235e-05 0.000261737 0)
(-0.000108184 0.000299966 0)
(-0.000127321 0.000344542 0)
(-0.00014116 0.000394333 0)
(-0.000149123 0.000447551 0)
(-0.000150832 0.000502021 0)
(-0.000146124 0.000555303 0)
(-0.000135076 0.000604831 0)
(-0.000118147 0.000648028 0)
(-9.63487e-05 0.000682575 0)
(-7.11401e-05 0.000706779 0)
(-4.40993e-05 0.000719704 0)
(-1.68349e-05 0.000720934 0)
(9.02398e-06 0.000711004 0)
(3.24275e-05 0.000690998 0)
(5.25552e-05 0.000662382 0)
(6.89378e-05 0.00062691 0)
(8.13893e-05 0.0005865 0)
(9.00267e-05 0.000543113 0)
(9.52845e-05 0.000498584 0)
(9.78511e-05 0.000454451 0)
(9.85609e-05 0.000411836 0)
(9.82576e-05 0.000371401 0)
(9.76854e-05 0.000333389 0)
(9.74351e-05 0.000297666 0)
(9.78492e-05 0.000263826 0)
(9.90328e-05 0.00023135 0)
(0.000100887 0.000199708 0)
(0.000103131 0.000168444 0)
(0.000105311 0.000137299 0)
(0.000106894 0.00010635 0)
(0.000107418 7.60345e-05 0)
(0.000106584 4.7061e-05 0)
(0.000104042 2.04104e-05 0)
(9.96165e-05 -2.63393e-06 0)
(9.31114e-05 -2.04456e-05 0)
(8.49547e-05 -3.13018e-05 0)
(7.58612e-05 -3.4947e-05 0)
(6.532e-05 -3.29151e-05 0)
(5.06736e-05 -2.73902e-05 0)
(2.76923e-05 -1.87218e-05 0)
(-7.00719e-06 -4.31128e-06 0)
(-5.35564e-05 2.06825e-05 0)
(-0.000107818 6.06583e-05 0)
(-0.000162846 0.000116734 0)
(-0.000211848 0.000186009 0)
(-0.000250432 0.000263333 0)
(-0.000276951 0.000343693 0)
(-0.000291531 0.000423287 0)
(-0.000295139 0.000499392 0)
(-0.000289119 0.00056998 0)
(-0.000275007 0.000633543 0)
(-0.000254405 0.000689059 0)
(-0.000228871 0.000735942 0)
(-0.000199826 0.000773968 0)
(-0.000168515 0.000803206 0)
(-0.000135972 0.000823962 0)
(-0.000102921 0.000836691 0)
(-6.9731e-05 0.000841852 0)
(-3.68104e-05 0.000839679 0)
(-4.58176e-06 0.000830727 0)
(2.69395e-05 0.00081547 0)
(5.77047e-05 0.000794236 0)
(8.77069e-05 0.000767328 0)
(0.000116936 0.000735014 0)
(0.000145364 0.00069753 0)
(0.000172937 0.000655096 0)
(0.000199564 0.000607916 0)
(0.00022511 0.000556189 0)
(0.000249392 0.000500118 0)
(0.000272172 0.000439922 0)
(0.000293153 0.000375852 0)
(0.000311987 0.000308206 0)
(0.000328271 0.000237351 0)
(0.000341564 0.000163746 0)
(0.000351405 8.79497e-05 0)
(0.000357307 1.06289e-05 0)
(0.000358803 -6.7422e-05 0)
(0.000355514 -0.000145299 0)
(0.000347153 -0.00022206 0)
(0.000333499 -0.0002967 0)
(0.000314464 -0.000368223 0)
(0.000290031 -0.000435659 0)
(0.000260323 -0.000498007 0)
(0.000225613 -0.000554324 0)
(0.000186314 -0.000603738 0)
(0.000142973 -0.000645464 0)
(9.62782e-05 -0.000678804 0)
(4.70781e-05 -0.000703182 0)
(-3.55474e-06 -0.000718161 0)
(-5.5052e-05 -0.000723402 0)
(-0.000106165 -0.000718319 0)
(-0.000155092 -0.000703187 0)
(-0.000200606 -0.000678328 0)
(-0.000241456 -0.000644355 0)
(-0.000276507 -0.00060222 0)
(-0.000304784 -0.000553116 0)
(-0.000325562 -0.000498684 0)
(-0.000338656 -0.000441789 0)
(-0.000345095 -0.000388441 0)
(-0.000349047 -0.000351585 0)
(-0.000362707 -0.000356411 0)
(-0.000414088 -0.000442497 0)
(-0.000542212 -0.00064997 0)
(-0.000766519 -0.00098544 0)
(1.02114e-05 4.90232e-05 0)
(-9.22948e-06 1.03214e-05 0)
(4.78107e-05 -7.27302e-05 0)
(0.000171704 -0.000139429 0)
(0.000306817 -0.000151431 0)
(0.000410027 -0.000117536 0)
(0.000459426 -5.9731e-05 0)
(0.000451344 5.10537e-06 0)
(0.000391773 6.19926e-05 0)
(0.000295018 0.000102602 0)
(0.00017792 0.000127779 0)
(4.91254e-05 0.000146822 0)
(-9.37574e-05 0.000171887 0)
(-0.000266199 0.000201109 0)
(-0.000461829 0.000205804 0)
(-0.000646928 0.000165484 0)
(-0.000781777 8.73513e-05 0)
(-0.000842269 -1.01129e-05 0)
(-0.000816819 -0.000102751 0)
(-0.000713179 -0.000164089 0)
(-0.000564672 -0.000176608 0)
(-0.000415757 -0.000144326 0)
(-0.000297009 -9.14234e-05 0)
(-0.000215163 -5.09986e-05 0)
(-0.000158367 -3.72776e-05 0)
(-0.000133557 -3.63195e-05 0)
(-0.000145044 -4.74946e-05 0)
(-0.000160072 -4.67859e-05 0)
(-0.000184286 6.98821e-06 0)
(-0.000226823 0.000123195 0)
(-0.000245934 0.000181533 0)
(-0.000292911 0.000169282 0)
(-0.000302052 9.38023e-05 0)
(-0.00025657 1.24407e-06 0)
(-0.000165466 -5.85602e-05 0)
(-6.59422e-05 -8.80122e-05 0)
(3.87941e-05 -0.000114528 0)
(0.000156167 -0.00013903 0)
(0.000282326 -0.000156719 0)
(0.000413124 -0.000167533 0)
(0.000545339 -0.000172539 0)
(0.000677577 -0.000173596 0)
(0.000809462 -0.000172531 0)
(0.000941618 -0.00017064 0)
(0.00107462 -0.000168512 0)
(0.00120856 -0.000166335 0)
(0.00134285 -0.000164034 0)
(0.00147624 -0.000161255 0)
(0.00160679 -0.000157214 0)
(0.00173174 -0.000150744 0)
(0.00184743 -0.000140485 0)
(0.00194941 -0.000125084 0)
(0.00203261 -0.000103368 0)
(0.00209187 -7.4838e-05 0)
(0.00212255 -4.06325e-05 0)
(0.00212015 -3.7986e-06 0)
(0.00208262 3.41994e-05 0)
(0.00201106 7.38357e-05 0)
(0.00190437 0.000114451 0)
(0.00176358 0.000154763 0)
(0.00159051 0.000194348 0)
(0.0013869 0.000232975 0)
(0.00115488 0.000270912 0)
(0.000896603 0.000309203 0)
(0.000613828 0.000350328 0)
(0.000301458 0.000399718 0)
(-6.37086e-05 0.000452921 0)
(-0.000466745 0.000484286 0)
(-0.000863794 0.0005001 0)
(-0.00127093 0.000513886 0)
(-0.00169647 0.000521376 0)
(-0.00213194 0.000514618 0)
(-0.00256075 0.000487457 0)
(-0.00296319 0.000436074 0)
(-0.00331712 0.000359047 0)
(-0.00360165 0.00025816 0)
(-0.00379606 0.000139572 0)
(-0.00389125 8.33196e-06 0)
(-0.00387303 -0.000125874 0)
(-0.00374228 -0.000249017 0)
(-0.00352158 -0.000337278 0)
(-0.00325307 -0.000396377 0)
(-0.00295001 -0.000431278 0)
(-0.00265465 -0.000457338 0)
(-0.00232475 -0.000528163 0)
(-0.00197392 -0.000575552 0)
(-0.00158753 -0.000761808 0)
(-0.000833326 -0.000826908 0)
(-0.000197149 -0.000320774 0)
(-1.93076e-05 0.000104477 0)
(-1.50595e-05 0.000168248 0)
(-6.7305e-05 0.000139912 0)
(-0.000124265 8.63287e-05 0)
(-0.000145032 3.47022e-05 0)
(-0.000135267 3.32121e-06 0)
(-0.000120122 -5.80862e-06 0)
(-0.00011918 -8.60958e-06 0)
(-0.000118514 -3.1916e-05 0)
(-7.78241e-05 -5.81544e-05 0)
(-3.49701e-07 -5.22817e-05 0)
(-4.91265e-05 -2.25626e-05 0)
(-4.9261e-05 -0.00012197 0)
(-2.37409e-05 -0.000190268 0)
(4.36587e-06 -0.000205424 0)
(2.98575e-05 -0.000172947 0)
(7.32647e-05 -8.84091e-05 0)
(0.000126593 6.51981e-05 0)
(0.000151516 0.000259232 0)
(0.000134618 0.000430657 0)
(9.76324e-05 0.000548964 0)
(6.23939e-05 0.000619981 0)
(3.64436e-05 0.000657309 0)
(2.08902e-05 0.000674492 0)
(1.57301e-05 0.000683756 0)
(1.7929e-05 0.000701466 0)
(1.12979e-05 0.000740666 0)
(-4.00166e-06 0.00078952 0)
(1.00151e-05 0.000833595 0)
(6.62087e-05 0.000895635 0)
(0.000118605 0.00100153 0)
(0.000118831 0.00112517 0)
(6.14331e-05 0.0012055 0)
(-2.41951e-05 0.0012012 0)
(-0.000106643 0.00111047 0)
(-0.000171933 0.000949737 0)
(-0.000215723 0.000732955 0)
(-0.000228484 0.000486696 0)
(-0.000206563 0.000246123 0)
(-0.000153704 4.2137e-05 0)
(-9.36681e-05 -9.51843e-05 0)
(-4.04611e-05 -0.000167854 0)
(-3.14832e-06 -0.000195498 0)
(2.34167e-05 -0.000201872 0)
(5.14076e-05 -0.000184153 0)
(5.95139e-05 -0.000141949 0)
(3.73824e-05 -0.000102026 0)
(-1.5146e-05 -7.22022e-05 0)
(-7.86879e-05 -5.35345e-05 0)
(-8.16025e-05 -9.28492e-05 0)
(2.12951e-05 -0.000153027 0)
(0.000149834 -0.000157825 0)
(0.000152187 -0.000220073 0)
(0.000184634 -0.000321611 0)
(0.000230601 -0.000320055 0)
(-0.00013769 -0.000134761 0)
(-0.000551348 -0.000198794 0)
(-0.000734835 -0.000378994 0)
(-0.000733797 -0.000623929 0)
(-0.000581949 -0.000930199 0)
(-9.51379e-05 -0.000768417 0)
(0.000289513 -0.000389367 0)
(0.000452437 -8.7003e-06 0)
(0.000366184 0.000275564 0)
(0.000306562 0.000440831 0)
(0.00026254 0.000590492 0)
(0.000218673 0.000705692 0)
(0.000179483 0.000794244 0)
(0.000142564 0.00085316 0)
(0.000112665 0.000886573 0)
(9.00265e-05 0.000898522 0)
(7.8745e-05 0.000895095 0)
(8.24868e-05 0.000885909 0)
(0.000106582 0.000884149 0)
(0.000154195 0.000908928 0)
(0.000218581 0.000977926 0)
(0.000290325 0.00110313 0)
(0.000352719 0.00128745 0)
(0.000388002 0.0015179 0)
(0.000384352 0.00177033 0)
(0.000338902 0.0020189 0)
(0.000256001 0.00224349 0)
(0.000146341 0.00242234 0)
(3.8934e-05 0.00253088 0)
(-2.64146e-05 0.00259089 0)
(-6.68013e-05 0.00272807 0)
(-0.000184947 0.00300095 0)
(-0.000249131 0.00313327 0)
(0.000505087 0.00413467 0)
(0.00245471 0.00478147 0)
(0.0027763 0.00534339 0)
(0.00192573 0.00739964 0)
(0.000489028 0.00698715 0)
(0.000357935 0.00649903 0)
(0.000331019 0.00670935 0)
(-0.000136462 0.00671943 0)
(-0.000288599 0.00635939 0)
(-0.000221263 0.00621084 0)
(-0.000339082 0.00610484 0)
(-0.00041259 0.00585167 0)
(-0.000358535 0.00564863 0)
(-0.000358341 0.00551077 0)
(-0.000379316 0.00533148 0)
(-0.000348834 0.00515648 0)
(-0.000324327 0.0050224 0)
(-0.000321301 0.00488739 0)
(-0.000305547 0.00474973 0)
(-0.000286185 0.00463023 0)
(-0.000277589 0.0045184 0)
(-0.000269148 0.00440609 0)
(-0.000258334 0.00430041 0)
(-0.0002514 0.00420077 0)
(-0.000246417 0.00410244 0)
(-0.000240465 0.00400684 0)
(-0.000235111 0.00391519 0)
(-0.000230518 0.00382604 0)
(-0.00022527 0.00373942 0)
(-0.000219455 0.00365639 0)
(-0.000213544 0.00357691 0)
(-0.000207309 0.00350089 0)
(-0.000200792 0.00342871 0)
(-0.000194428 0.00336041 0)
(-0.000188462 0.00329571 0)
(-0.000183028 0.00323438 0)
(-0.000178345 0.00317615 0)
(-0.000174569 0.00312065 0)
(-0.000171728 0.0030675 0)
(-0.00016982 0.00301642 0)
(-0.000168822 0.00296718 0)
(-0.000168672 0.00291962 0)
(-0.000169298 0.00287363 0)
(-0.000170637 0.0028292 0)
(-0.00017263 0.00278632 0)
(-0.000175216 0.00274504 0)
(-0.000178321 0.0027054 0)
(-0.000181836 0.00266748 0)
(-0.000185597 0.00263132 0)
(-0.000189362 0.00259704 0)
(-0.000192816 0.00256474 0)
(-0.000195583 0.00253459 0)
(-0.000197275 0.00250678 0)
(-0.000197561 0.00248142 0)
(-0.000196243 0.0024585 0)
(-0.000193304 0.00243771 0)
(-0.000188948 0.00241837 0)
(-0.000183625 0.00239951 0)
(-0.000177959 0.00237999 0)
(-0.000172454 0.00235866 0)
(-0.000166817 0.00233445 0)
(-0.000158877 0.00230678 0)
(-0.000144131 0.00227698 0)
(-0.000117908 0.00224943 0)
(-7.63043e-05 0.00222859 0)
(-1.52637e-05 0.00221589 0)
(7.34066e-05 0.00220874 0)
(0.000209314 0.00221401 0)
(0.000436695 0.00228986 0)
(0.000809114 0.00246918 0)
(0.00118606 0.00253737 0)
(0.00141958 0.00267159 0)
(0.00157029 0.00313805 0)
(0.0015428 0.00362113 0)
(0.00139387 0.00395567 0)
(0.00121549 0.00415207 0)
(0.00104622 0.00430866 0)
(0.000876259 0.00445286 0)
(0.00070282 0.00456305 0)
(0.000534922 0.0046362 0)
(0.000374064 0.00468451 0)
(0.000217249 0.00470844 0)
(6.82327e-05 0.00470259 0)
(-6.62628e-05 0.00467115 0)
(-0.000188704 0.00462534 0)
(-0.000305755 0.00456616 0)
(-0.000417157 0.0044906 0)
(-0.000522368 0.0044005 0)
(-0.000622797 0.00429849 0)
(-0.00071957 0.00418489 0)
(-0.000813143 0.00406003 0)
(-0.000904148 0.00392514 0)
(-0.000993456 0.00378124 0)
(-0.0010819 0.00362888 0)
(-0.0011703 0.00346852 0)
(-0.00125947 0.00330047 0)
(-0.0013502 0.00312472 0)
(-0.00144321 0.00294098 0)
(-0.00153906 0.00274865 0)
(-0.00163818 0.00254697 0)
(-0.00174078 0.00233516 0)
(-0.00184701 0.00211255 0)
(-0.00195706 0.00187873 0)
(-0.00207106 0.00163351 0)
(-0.00218918 0.00137737 0)
(-0.002312 0.00111098 0)
(-0.00243985 0.000834956 0)
(-0.00257295 0.000550243 0)
(-0.00271562 0.000257724 0)
(-0.00287107 -4.38403e-05 0)
(-0.00303719 -0.000355012 0)
(-0.00321533 -0.000675131 0)
(-0.00341044 -0.00100489 0)
(-0.00362592 -0.00134649 0)
(-0.00386416 -0.00169741 0)
(-0.00412995 -0.00207311 0)
(-0.00441639 -0.00244276 0)
(-0.00474833 -0.00288215 0)
(-0.00507646 -0.00323237 0)
(-0.00551086 -0.00381878 0)
(-0.0058125 -0.00400207 0)
(-0.00638891 -0.00498547 0)
(-0.00621635 -0.00444933 0)
)
;
    }
    frontAndBack
    {
        type            empty;
    }
}


// ************************************************************************* //
