/*--------------------------------*- C++ -*----------------------------------*\
  =========                 |
  \\      /  F ield         | OpenFOAM: The Open Source CFD Toolbox
   \\    /   O peration     | Website:  https://openfoam.org
    \\  /    A nd           | Version:  7
     \\/     M anipulation  |
\*---------------------------------------------------------------------------*/
FoamFile
{
    version     2.0;
    format      ascii;
    class       surfaceScalarField;
    location    "0.47";
    object      ddtCorrDdt0(phi);
}
// * * * * * * * * * * * * * * * * * * * * * * * * * * * * * * * * * * * * * //

dimensions      [0 3 -2 0 0 0 0];

internalField   nonuniform List<scalar> 
139350
(
4.49985e-10
-4.53529e-10
1.36477e-09
-9.21621e-10
2.49485e-09
-1.13808e-09
3.56255e-09
-1.07401e-09
4.47147e-09
-9.14755e-10
5.20944e-09
-7.43803e-10
5.80785e-09
-6.04214e-10
6.33229e-09
-5.32133e-10
6.86763e-09
-5.4129e-10
7.47798e-09
-6.20305e-10
8.2209e-09
-7.48639e-10
9.11556e-09
-9.03432e-10
1.01717e-08
-1.06161e-09
1.13774e-08
-1.21155e-09
1.27176e-08
-1.34718e-09
1.41884e-08
-1.47445e-09
1.57763e-08
-1.59783e-09
1.75009e-08
-1.72553e-09
1.93573e-08
-1.86663e-09
2.1384e-08
-2.02599e-09
2.3589e-08
-2.21178e-09
2.60139e-08
-2.42581e-09
2.86822e-08
-2.67431e-09
3.16436e-08
-2.96247e-09
3.493e-08
-3.29605e-09
3.86171e-08
-3.68488e-09
4.27478e-08
-4.14134e-09
4.74276e-08
-4.67587e-09
5.27309e-08
-5.30985e-09
5.87925e-08
-6.05936e-09
6.57333e-08
-6.94594e-09
7.37428e-08
-8.00612e-09
8.29858e-08
-9.25195e-09
9.3747e-08
-1.07523e-08
1.06219e-07
-1.24825e-08
1.20811e-07
-1.45807e-08
1.37732e-07
-1.69271e-08
1.57511e-07
-1.97729e-08
1.80338e-07
-2.28292e-08
2.06687e-07
-2.63471e-08
2.36836e-07
-3.01526e-08
2.70194e-07
-3.33539e-08
3.07882e-07
-3.76951e-08
3.45314e-07
-3.74193e-08
3.85357e-07
-4.00489e-08
4.11276e-07
-2.59021e-08
4.35332e-07
-2.40553e-08
3.91218e-07
4.41286e-08
3.25077e-07
6.61354e-08
7.63957e-08
2.48687e-07
6.80494e-10
-1.13832e-09
2.77959e-09
-3.02814e-09
5.73654e-09
-4.10353e-09
8.57344e-09
-3.91768e-09
1.08481e-08
-3.19576e-09
1.25188e-08
-2.42086e-09
1.36938e-08
-1.7855e-09
1.45875e-08
-1.43439e-09
1.54672e-08
-1.42745e-09
1.65538e-08
-1.71771e-09
1.80055e-08
-2.20654e-09
1.98818e-08
-2.78905e-09
2.21864e-08
-3.37217e-09
2.48757e-08
-3.90705e-09
2.7897e-08
-4.37624e-09
3.12161e-08
-4.79744e-09
3.48005e-08
-5.19307e-09
3.86646e-08
-5.59055e-09
4.28091e-08
-6.02195e-09
4.7288e-08
-6.50421e-09
5.21304e-08
-7.06137e-09
5.74059e-08
-7.70237e-09
6.31713e-08
-8.44636e-09
6.9517e-08
-9.30918e-09
7.65242e-08
-1.03139e-08
8.43328e-08
-1.14909e-08
9.30637e-08
-1.28835e-08
1.02922e-07
-1.45303e-08
1.14106e-07
-1.65008e-08
1.26903e-07
-1.88538e-08
1.41622e-07
-2.16708e-08
1.58688e-07
-2.50682e-08
1.78558e-07
-2.91316e-08
2.01871e-07
-3.40553e-08
2.29261e-07
-3.98838e-08
2.61669e-07
-4.69771e-08
2.99955e-07
-5.5219e-08
3.45435e-07
-6.52464e-08
3.99174e-07
-7.65702e-08
4.62802e-07
-8.99742e-08
5.37548e-07
-1.04902e-07
6.24417e-07
-1.20218e-07
7.25295e-07
-1.38581e-07
8.35264e-07
-1.47373e-07
9.6298e-07
-1.67772e-07
1.06685e-06
-1.29752e-07
1.21139e-06
-1.686e-07
1.19343e-06
6.21123e-08
1.17196e-06
8.75985e-08
4.68006e-07
7.80352e-07
4.60568e-10
-1.60379e-09
2.75232e-09
-5.32779e-09
6.64017e-09
-8.00031e-09
1.08233e-08
-8.10799e-09
1.42954e-08
-6.67456e-09
1.6742e-08
-4.87423e-09
1.8245e-08
-3.2952e-09
1.91143e-08
-2.31287e-09
1.97804e-08
-2.10042e-09
2.06373e-08
-2.5861e-09
2.19774e-08
-3.55318e-09
2.39356e-08
-4.75708e-09
2.65392e-08
-5.98206e-09
2.97321e-08
-7.10649e-09
3.34329e-08
-8.08545e-09
3.7576e-08
-8.94455e-09
4.21015e-08
-9.73018e-09
4.70048e-08
-1.04947e-08
5.2273e-08
-1.13015e-08
5.79535e-08
-1.21841e-08
6.40723e-08
-1.31876e-08
7.07003e-08
-1.43316e-08
7.78996e-08
-1.56529e-08
8.57712e-08
-1.71817e-08
9.44115e-08
-1.89655e-08
1.03985e-07
-2.10616e-08
1.14645e-07
-2.35553e-08
1.26643e-07
-2.65234e-08
1.40234e-07
-3.00993e-08
1.55783e-07
-3.44002e-08
1.73698e-07
-3.95922e-08
1.94527e-07
-4.58928e-08
2.18895e-07
-5.35105e-08
2.47635e-07
-6.27839e-08
2.81667e-07
-7.39273e-08
3.22226e-07
-8.75245e-08
3.70658e-07
-1.03657e-07
4.28734e-07
-1.23317e-07
4.9828e-07
-1.46118e-07
5.81709e-07
-1.73401e-07
6.8121e-07
-2.04407e-07
7.99076e-07
-2.38079e-07
9.38803e-07
-2.78317e-07
1.09571e-06
-3.04268e-07
1.28537e-06
-3.57436e-07
1.44775e-06
-2.92114e-07
1.69222e-06
-4.13063e-07
1.74713e-06
7.21792e-09
1.75116e-06
8.35589e-08
7.22964e-07
1.49621e-06
1.83747e-10
-1.79288e-09
1.98548e-09
-7.13781e-09
5.78775e-09
-1.18118e-08
1.0609e-08
-1.29367e-08
1.51217e-08
-1.11942e-08
1.85403e-08
-8.29996e-09
2.0663e-08
-5.42499e-09
2.17116e-08
-3.3711e-09
2.21685e-08
-2.56453e-09
2.25609e-08
-2.99048e-09
2.33342e-08
-4.33336e-09
2.47516e-08
-6.18461e-09
2.69261e-08
-8.16319e-09
2.98453e-08
-1.00326e-08
3.34401e-08
-1.1689e-08
3.76372e-08
-1.31458e-08
4.2359e-08
-1.44642e-08
4.75804e-08
-1.57168e-08
5.32647e-08
-1.69976e-08
5.94377e-08
-1.83565e-08
6.61037e-08
-1.98613e-08
7.3315e-08
-2.15443e-08
8.11177e-08
-2.34631e-08
8.96016e-08
-2.56665e-08
9.88555e-08
-2.82314e-08
1.09043e-07
-3.12461e-08
1.2032e-07
-3.48448e-08
1.3295e-07
-3.91488e-08
1.47206e-07
-4.43626e-08
1.6348e-07
-5.06714e-08
1.82219e-07
-5.83381e-08
2.0402e-07
-6.76884e-08
2.29581e-07
-7.90833e-08
2.59816e-07
-9.30076e-08
2.95786e-07
-1.09909e-07
3.38854e-07
-1.3058e-07
3.90622e-07
-1.55431e-07
4.53076e-07
-1.85764e-07
5.2847e-07
-2.21514e-07
6.19637e-07
-2.64567e-07
7.29369e-07
-3.14144e-07
8.60782e-07
-3.69487e-07
1.0182e-06
-4.35745e-07
1.19767e-06
-4.83723e-07
1.4193e-06
-5.7907e-07
1.61685e-06
-4.89641e-07
1.90175e-06
-6.97963e-07
2.05386e-06
-1.44878e-07
2.01766e-06
1.1975e-07
8.7577e-07
1.86486e-06
4.97034e-11
-1.84826e-09
1.20776e-09
-8.30446e-09
4.26797e-09
-1.48816e-08
8.90829e-09
-1.75848e-08
1.39844e-08
-1.62776e-08
1.84193e-08
-1.27423e-08
2.16009e-08
-8.61378e-09
2.343e-08
-5.21027e-09
2.4226e-08
-3.36799e-09
2.45031e-08
-3.27999e-09
2.47976e-08
-4.63489e-09
2.5509e-08
-6.90645e-09
2.68887e-08
-9.54985e-09
2.9038e-08
-1.21888e-08
3.19669e-08
-1.46271e-08
3.56496e-08
-1.68326e-08
4.00291e-08
-1.88563e-08
4.50827e-08
-2.07712e-08
5.07602e-08
-2.2687e-08
5.70643e-08
-2.46601e-08
6.39703e-08
-2.67751e-08
7.14988e-08
-2.90743e-08
7.96647e-08
-3.16368e-08
8.85306e-08
-3.45333e-08
9.81614e-08
-3.78745e-08
1.08703e-07
-4.17848e-08
1.20299e-07
-4.64527e-08
1.33204e-07
-5.20496e-08
1.47691e-07
-5.88565e-08
1.64153e-07
-6.71317e-08
1.83051e-07
-7.72427e-08
2.04992e-07
-8.96243e-08
2.30704e-07
-1.04806e-07
2.6112e-07
-1.23413e-07
2.97365e-07
-1.46166e-07
3.40834e-07
-1.74036e-07
3.93249e-07
-2.07852e-07
4.56655e-07
-2.49164e-07
5.33514e-07
-2.98375e-07
6.26799e-07
-3.5785e-07
7.39641e-07
-4.2699e-07
8.75368e-07
-5.05208e-07
1.03952e-06
-5.99909e-07
1.22641e-06
-6.70598e-07
1.45929e-06
-8.11951e-07
1.68022e-06
-7.10548e-07
1.95845e-06
-9.76196e-07
2.19327e-06
-3.79686e-07
2.14074e-06
1.72272e-07
1.139e-06
1.87752e-06
4.77975e-11
-1.90199e-09
7.64882e-10
-9.0304e-09
2.96824e-09
-1.70948e-08
6.899e-09
-2.15234e-08
1.1917e-08
-2.1303e-08
1.70266e-08
-1.78595e-08
2.1368e-08
-1.29627e-08
2.44654e-08
-8.318e-09
2.62971e-08
-5.20729e-09
2.71641e-08
-4.15973e-09
2.75368e-08
-5.01491e-09
2.78658e-08
-7.24608e-09
2.85231e-08
-1.02143e-08
2.97546e-08
-1.34274e-08
3.17072e-08
-1.65891e-08
3.44673e-08
-1.95971e-08
3.80598e-08
-2.24618e-08
4.2515e-08
-2.52272e-08
4.78067e-08
-2.79909e-08
5.39388e-08
-3.07918e-08
6.08686e-08
-3.37128e-08
6.85865e-08
-3.67937e-08
7.70695e-08
-4.01278e-08
8.63419e-08
-4.38065e-08
9.64316e-08
-4.79767e-08
1.07453e-07
-5.28034e-08
1.19524e-07
-5.85353e-08
1.32879e-07
-6.54006e-08
1.47777e-07
-7.37621e-08
1.64605e-07
-8.39568e-08
1.83819e-07
-9.64639e-08
2.06026e-07
-1.11826e-07
2.31962e-07
-1.30754e-07
2.62564e-07
-1.54002e-07
2.98979e-07
-1.82593e-07
3.426e-07
-2.17645e-07
3.95203e-07
-2.60461e-07
4.58824e-07
-3.12779e-07
5.36022e-07
-3.75575e-07
6.29748e-07
-4.51575e-07
7.4335e-07
-5.40598e-07
8.80079e-07
-6.4193e-07
1.04577e-06
-7.65607e-07
1.23559e-06
-8.604e-07
1.46777e-06
-1.04414e-06
1.70793e-06
-9.50689e-07
1.96344e-06
-1.2317e-06
2.23727e-06
-6.53502e-07
2.23566e-06
1.73867e-07
1.60095e-06
1.7737e-06
9.22192e-11
-2.00034e-09
6.38901e-10
-9.58615e-09
2.24132e-09
-1.87072e-08
5.3889e-09
-2.46791e-08
9.93388e-09
-2.58556e-08
1.52153e-08
-2.31487e-08
2.04073e-08
-1.81623e-08
2.4815e-08
-1.27363e-08
2.80762e-08
-8.47628e-09
3.01646e-08
-6.26117e-09
3.13245e-08
-6.18222e-09
3.19091e-08
-7.84145e-09
3.23083e-08
-1.06207e-08
3.2864e-08
-1.39904e-08
3.38585e-08
-1.75932e-08
3.55222e-08
-2.12652e-08
3.80128e-08
-2.49656e-08
4.14717e-08
-2.86869e-08
4.59546e-08
-3.24861e-08
5.15165e-08
-3.63533e-08
5.81348e-08
-4.0339e-08
6.57939e-08
-4.44544e-08
7.44446e-08
-4.87866e-08
8.40731e-08
-5.34359e-08
9.46634e-08
-5.85797e-08
1.06288e-07
-6.44244e-08
1.19022e-07
-7.12825e-08
1.33072e-07
-7.94458e-08
1.48667e-07
-8.93649e-08
1.66176e-07
-1.01462e-07
1.86041e-07
-1.16336e-07
2.08859e-07
-1.34639e-07
2.35361e-07
-1.57268e-07
2.66475e-07
-1.85104e-07
3.03358e-07
-2.19488e-07
3.47382e-07
-2.61657e-07
4.00346e-07
-3.13431e-07
4.64245e-07
-3.76672e-07
5.4168e-07
-4.53012e-07
6.35523e-07
-5.45416e-07
7.49192e-07
-6.54272e-07
8.85936e-07
-7.78668e-07
1.05098e-06
-9.30664e-07
1.24245e-06
-1.05185e-06
1.46922e-06
-1.27092e-06
1.72284e-06
-1.20429e-06
1.96322e-06
-1.47208e-06
2.23111e-06
-9.21386e-07
2.31409e-06
9.08791e-08
2.1357e-06
1.77934e-06
1.26494e-10
-2.13314e-09
6.74163e-10
-1.01431e-08
2.00855e-09
-2.00518e-08
4.60986e-09
-2.72887e-08
8.61627e-09
-2.98697e-08
1.37163e-08
-2.82566e-08
1.93038e-08
-2.37575e-08
2.46854e-08
-1.81288e-08
2.9309e-08
-1.31078e-08
3.28602e-08
-9.82548e-09
3.52979e-08
-8.62758e-09
3.67632e-08
-9.31767e-09
3.75359e-08
-1.14009e-08
3.79459e-08
-1.44077e-08
3.83378e-08
-1.79949e-08
3.90529e-08
-2.19848e-08
4.03829e-08
-2.63089e-08
4.26094e-08
-3.09144e-08
4.59174e-08
-3.58064e-08
5.04695e-08
-4.09051e-08
5.63195e-08
-4.6197e-08
6.34944e-08
-5.16309e-08
7.19542e-08
-5.72546e-08
8.16685e-08
-6.31511e-08
9.25859e-08
-6.95098e-08
1.04734e-07
-7.65688e-08
1.1814e-07
-8.47011e-08
1.32963e-07
-9.42646e-08
1.49393e-07
-1.05803e-07
1.67763e-07
-1.19829e-07
1.88488e-07
-1.37068e-07
2.12137e-07
-1.58283e-07
2.39425e-07
-1.84568e-07
2.71253e-07
-2.16921e-07
3.08767e-07
-2.57013e-07
3.53309e-07
-3.06188e-07
4.0666e-07
-3.66787e-07
4.70769e-07
-4.40775e-07
5.482e-07
-5.30446e-07
6.41789e-07
-6.39004e-07
7.54747e-07
-7.67235e-07
8.90762e-07
-9.14676e-07
1.05343e-06
-1.09334e-06
1.24519e-06
-1.24359e-06
1.46454e-06
-1.49027e-06
1.72201e-06
-1.46175e-06
1.96142e-06
-1.71148e-06
2.203e-06
-1.16295e-06
2.3433e-06
-4.94358e-08
2.56093e-06
1.91806e-06
1.3864e-10
-2.27824e-09
7.40135e-10
-1.0754e-08
2.03759e-09
-2.13595e-08
4.40405e-09
-2.96635e-08
8.04572e-09
-3.35193e-08
1.28759e-08
-3.30948e-08
1.85272e-08
-2.94167e-08
2.44444e-08
-2.4057e-08
3.00592e-08
-1.87307e-08
3.49045e-08
-1.46842e-08
3.87135e-08
-1.24444e-08
4.13963e-08
-1.20115e-08
4.3048e-08
-1.30603e-08
4.38854e-08
-1.52526e-08
4.42147e-08
-1.83341e-08
4.4404e-08
-2.21786e-08
4.48234e-08
-2.67417e-08
4.58692e-08
-3.19613e-08
4.78612e-08
-3.78108e-08
5.10999e-08
-4.41436e-08
5.57633e-08
-5.08683e-08
6.19753e-08
-5.78446e-08
6.97575e-08
-6.50451e-08
7.9105e-08
-7.24995e-08
8.99601e-08
-8.03777e-08
1.0232e-07
-8.8926e-08
1.1617e-07
-9.8563e-08
1.31616e-07
-1.09707e-07
1.48798e-07
-1.22992e-07
1.67997e-07
-1.39026e-07
1.89585e-07
-1.58663e-07
2.14085e-07
-1.82777e-07
2.42171e-07
-2.12665e-07
2.747e-07
-2.49439e-07
3.12776e-07
-2.951e-07
3.57691e-07
-3.51091e-07
4.11158e-07
-4.20259e-07
4.75079e-07
-5.0469e-07
5.51864e-07
-6.07232e-07
6.44401e-07
-7.31539e-07
7.55404e-07
-8.78243e-07
8.89207e-07
-1.04847e-06
1.04761e-06
-1.25175e-06
1.2362e-06
-1.43217e-06
1.44883e-06
-1.7029e-06
1.69872e-06
-1.71162e-06
1.94164e-06
-1.9544e-06
2.16897e-06
-1.39027e-06
2.31112e-06
-1.91601e-07
2.76847e-06
2.10358e-06
1.37951e-10
-2.42278e-09
7.88822e-10
-1.14145e-08
2.14399e-09
-2.27252e-08
4.49246e-09
-3.20204e-08
8.00321e-09
-3.7038e-08
1.2664e-08
-3.77638e-08
1.82631e-08
-3.50237e-08
2.44007e-08
-3.02057e-08
3.05915e-08
-2.49297e-08
3.63494e-08
-2.04556e-08
4.12966e-08
-1.73996e-08
4.51767e-08
-1.59028e-08
4.79077e-08
-1.57989e-08
4.95519e-08
-1.69045e-08
5.03053e-08
-1.90974e-08
5.04782e-08
-2.23562e-08
5.04376e-08
-2.67146e-08
5.06279e-08
-3.21528e-08
5.14607e-08
-3.86559e-08
5.33592e-08
-4.60421e-08
5.66376e-08
-5.41546e-08
6.15498e-08
-6.27586e-08
6.82243e-08
-7.17278e-08
7.67298e-08
-8.10059e-08
8.7045e-08
-9.07057e-08
9.91709e-08
-1.01049e-07
1.13068e-07
-1.12472e-07
1.28802e-07
-1.25437e-07
1.46461e-07
-1.40658e-07
1.66269e-07
-1.58831e-07
1.88538e-07
-1.80939e-07
2.13732e-07
-2.07966e-07
2.4246e-07
-2.41405e-07
2.75515e-07
-2.82483e-07
3.1392e-07
-3.33515e-07
3.58898e-07
-3.96058e-07
4.12028e-07
-4.73395e-07
4.7517e-07
-5.67826e-07
5.50444e-07
-6.82509e-07
6.40823e-07
-8.21916e-07
7.48447e-07
-9.85873e-07
8.77897e-07
-1.17792e-06
1.03036e-06
-1.40423e-06
1.21117e-06
-1.61296e-06
1.41629e-06
-1.90803e-06
1.65337e-06
-1.94868e-06
1.88878e-06
-2.18982e-06
2.12688e-06
-1.62836e-06
2.25522e-06
-3.19961e-07
2.78562e-06
2.23805e-06
1.3467e-10
-2.56416e-09
8.19547e-10
-1.21091e-08
2.24974e-09
-2.4166e-08
4.67857e-09
-3.44578e-08
8.2244e-09
-4.05918e-08
1.28666e-08
-4.24143e-08
1.84511e-08
-4.06163e-08
2.46768e-08
-3.64428e-08
3.1156e-08
-3.14172e-08
3.7454e-08
-2.67673e-08
4.31786e-08
-2.31323e-08
4.7998e-08
-2.07335e-08
5.17138e-08
-1.95226e-08
5.4257e-08
-1.94553e-08
5.56979e-08
-2.05484e-08
5.62447e-08
-2.29079e-08
5.61975e-08
-2.66809e-08
5.5978e-08
-3.19346e-08
5.60232e-08
-3.87135e-08
5.68283e-08
-4.68472e-08
5.88142e-08
-5.61483e-08
6.23603e-08
-6.63066e-08
6.77192e-08
-7.7095e-08
7.50646e-08
-8.83523e-08
8.44504e-08
-1.00104e-07
9.59179e-08
-1.12513e-07
1.09436e-07
-1.26002e-07
1.25052e-07
-1.41049e-07
1.42814e-07
-1.58427e-07
1.62896e-07
-1.78911e-07
1.85549e-07
-2.03598e-07
2.11167e-07
-2.33579e-07
2.4028e-07
-2.70529e-07
2.736e-07
-3.15792e-07
3.12033e-07
-3.71959e-07
3.56722e-07
-4.40735e-07
4.09042e-07
-5.2572e-07
4.70799e-07
-6.29578e-07
5.43759e-07
-7.55471e-07
6.30836e-07
-9.0899e-07
7.33855e-07
-1.0889e-06
8.5675e-07
-1.30081e-06
1.00168e-06
-1.54917e-06
1.17108e-06
-1.78235e-06
1.36542e-06
-2.10238e-06
1.58973e-06
-2.17297e-06
1.80449e-06
-2.40457e-06
2.05989e-06
-1.88375e-06
2.21536e-06
-4.75454e-07
2.68517e-06
2.3158e-06
1.32767e-10
-2.70376e-09
8.43922e-10
-1.28301e-08
2.34122e-09
-2.5674e-08
4.87587e-09
-3.70012e-08
8.53587e-09
-4.426e-08
1.32691e-08
-4.71558e-08
1.89226e-08
-4.62779e-08
2.52335e-08
-4.27651e-08
3.18742e-08
-3.80664e-08
3.84682e-08
-3.33751e-08
4.46555e-08
-2.93279e-08
5.00961e-08
-2.61855e-08
5.45441e-08
-2.39785e-08
5.78525e-08
-2.27715e-08
5.99965e-08
-2.27027e-08
6.10853e-08
-2.40016e-08
6.13299e-08
-2.6939e-08
6.10862e-08
-3.16925e-08
6.07614e-08
-3.8401e-08
6.08633e-08
-4.69493e-08
6.18687e-08
-5.71615e-08
6.42463e-08
-6.86861e-08
6.83563e-08
-8.12132e-08
7.44801e-08
-9.44771e-08
8.27641e-08
-1.08401e-07
9.33163e-08
-1.23063e-07
1.06142e-07
-1.3884e-07
1.21298e-07
-1.56201e-07
1.38815e-07
-1.75951e-07
1.58831e-07
-1.98925e-07
1.81544e-07
-2.26317e-07
2.07285e-07
-2.59314e-07
2.36497e-07
-2.99753e-07
2.69808e-07
-3.49091e-07
3.07985e-07
-4.10147e-07
3.52078e-07
-4.84817e-07
4.03224e-07
-5.7687e-07
4.63125e-07
-6.89474e-07
5.33231e-07
-8.25579e-07
6.16121e-07
-9.91878e-07
7.13702e-07
-1.18648e-06
8.28535e-07
-1.41563e-06
9.64293e-07
-1.68493e-06
1.12092e-06
-1.93896e-06
1.2998e-06
-2.28126e-06
1.51281e-06
-2.38597e-06
1.70514e-06
-2.59691e-06
1.96102e-06
-2.13963e-06
2.19234e-06
-7.06797e-07
2.47984e-06
2.39766e-06
1.3221e-10
-2.8429e-09
8.69078e-10
-1.3577e-08
2.42692e-09
-2.72427e-08
5.06672e-09
-3.96497e-08
8.86486e-09
-4.80663e-08
1.37428e-08
-5.20422e-08
1.95308e-08
-5.20742e-08
2.59677e-08
-4.92135e-08
3.27473e-08
-4.48547e-08
3.95284e-08
-4.017e-08
4.59848e-08
-3.57927e-08
5.17961e-08
-3.20082e-08
5.67127e-08
-2.89032e-08
6.05597e-08
-2.66263e-08
6.32621e-08
-2.54154e-08
6.48626e-08
-2.56071e-08
6.54974e-08
-2.75874e-08
6.54508e-08
-3.16474e-08
6.50741e-08
-3.80365e-08
6.48477e-08
-4.67233e-08
6.52565e-08
-5.75781e-08
6.68123e-08
-7.02438e-08
6.99458e-08
-8.4355e-08
7.50237e-08
-9.95559e-08
8.2277e-08
-1.15667e-07
9.18861e-08
-1.32669e-07
1.03909e-07
-1.50874e-07
1.18428e-07
-1.70717e-07
1.35481e-07
-1.93011e-07
1.55188e-07
-2.18629e-07
1.77708e-07
-2.48844e-07
2.03323e-07
-2.84924e-07
2.32397e-07
-3.28837e-07
2.6548e-07
-3.82163e-07
3.03197e-07
-4.47874e-07
3.46497e-07
-5.28107e-07
3.96285e-07
-6.26663e-07
4.54088e-07
-7.47272e-07
5.21144e-07
-8.92637e-07
5.99465e-07
-1.0702e-06
6.91224e-07
-1.27825e-06
7.97599e-07
-1.522e-06
9.22969e-07
-1.81031e-06
1.06715e-06
-2.08313e-06
1.22831e-06
-2.44242e-06
1.42795e-06
-2.5856e-06
1.60741e-06
-2.77637e-06
1.84691e-06
-2.37912e-06
2.16611e-06
-1.02602e-06
2.12258e-06
2.52334e-06
1.32146e-10
-2.98207e-09
8.96745e-10
-1.43517e-08
2.51415e-09
-2.8871e-08
5.25641e-09
-4.24008e-08
9.19635e-09
-5.20145e-08
1.42374e-08
-5.70917e-08
2.01932e-08
-5.80383e-08
2.67924e-08
-5.58243e-08
3.37283e-08
-5.17994e-08
4.06704e-08
-4.71261e-08
4.7311e-08
-4.24419e-08
5.3348e-08
-3.80568e-08
5.85433e-08
-3.41068e-08
6.27221e-08
-3.08131e-08
6.57948e-08
-2.84983e-08
6.77729e-08
-2.75905e-08
6.87489e-08
-2.85768e-08
6.8954e-08
-3.18543e-08
6.86881e-08
-3.77826e-08
6.83908e-08
-4.64265e-08
6.85283e-08
-5.77232e-08
6.96188e-08
-7.13362e-08
7.21251e-08
-8.68696e-08
7.6466e-08
-1.03898e-07
8.29331e-08
-1.22146e-07
9.17668e-08
-1.41501e-07
1.03075e-07
-1.62194e-07
1.16975e-07
-1.84614e-07
1.33519e-07
-2.09562e-07
1.52828e-07
-2.37935e-07
1.75038e-07
-2.71061e-07
2.00399e-07
-3.10279e-07
2.29208e-07
-3.57657e-07
2.61952e-07
-4.14897e-07
2.99129e-07
-4.8506e-07
3.41586e-07
-5.70553e-07
3.90037e-07
-6.75118e-07
4.45775e-07
-8.03006e-07
5.09916e-07
-9.56779e-07
5.83855e-07
-1.14413e-06
6.69918e-07
-1.36432e-06
7.6843e-07
-1.62051e-06
8.83328e-07
-1.92522e-06
1.01593e-06
-2.21572e-06
1.16087e-06
-2.58736e-06
1.34469e-06
-2.76941e-06
1.5204e-06
-2.95208e-06
1.74427e-06
-2.60299e-06
2.13e-06
-1.41177e-06
1.56876e-06
2.68379e-06
1.32151e-10
-3.12132e-09
9.25447e-10
-1.51551e-08
2.60535e-09
-3.05619e-08
5.45081e-09
-4.52551e-08
9.53366e-09
-5.61056e-08
1.47431e-08
-6.23096e-08
2.08796e-08
-6.41832e-08
2.76612e-08
-6.26176e-08
3.47732e-08
-5.89203e-08
4.18824e-08
-5.42492e-08
4.86846e-08
-4.92529e-08
5.48859e-08
-4.42696e-08
6.02574e-08
-3.94866e-08
6.46318e-08
-3.51955e-08
6.79217e-08
-3.17985e-08
7.01324e-08
-2.98066e-08
7.13397e-08
-2.97975e-08
7.17483e-08
-3.22649e-08
7.16257e-08
-3.76719e-08
7.13793e-08
-4.61808e-08
7.14502e-08
-5.78016e-08
7.23464e-08
-7.22344e-08
7.45384e-08
-8.90698e-08
7.84663e-08
-1.07827e-07
8.44535e-08
-1.28146e-07
9.27851e-08
-1.4983e-07
1.03601e-07
-1.73021e-07
1.17041e-07
-1.98051e-07
1.33185e-07
-2.25711e-07
1.52158e-07
-2.56906e-07
1.74087e-07
-2.92996e-07
1.99201e-07
-3.35389e-07
2.2775e-07
-3.86215e-07
2.60173e-07
-4.4731e-07
2.96868e-07
-5.21764e-07
3.38582e-07
-6.12257e-07
3.85892e-07
-7.22432e-07
4.3985e-07
-8.56959e-07
5.01483e-07
-1.01841e-06
5.71688e-07
-1.21434e-06
6.52709e-07
-1.44534e-06
7.44573e-07
-1.71236e-06
8.5022e-07
-2.03087e-06
9.72614e-07
-2.3381e-06
1.10492e-06
-2.71968e-06
1.27293e-06
-2.93741e-06
1.44955e-06
-3.12871e-06
1.67209e-06
-2.82553e-06
2.09802e-06
-1.83773e-06
8.21988e-07
2.84477e-06
1.32185e-10
-3.26068e-09
9.54925e-10
-1.59881e-08
2.70069e-09
-3.23187e-08
5.65216e-09
-4.82155e-08
9.88079e-09
-6.03425e-08
1.52623e-08
-6.76998e-08
2.15851e-08
-7.05142e-08
2.85584e-08
-6.96027e-08
3.58588e-08
-6.62296e-08
4.31458e-08
-6.15503e-08
5.01111e-08
-5.6227e-08
5.646e-08
-5.06301e-08
6.19662e-08
-4.50012e-08
6.64672e-08
-3.97046e-08
6.98816e-08
-3.52231e-08
7.22185e-08
-3.2149e-08
7.35539e-08
-3.11461e-08
7.40858e-08
-3.2799e-08
7.40706e-08
-3.76683e-08
7.38989e-08
-4.601e-08
7.39976e-08
-5.79076e-08
7.48613e-08
-7.31001e-08
7.69566e-08
-9.11731e-08
8.07261e-08
-1.11597e-07
8.65145e-08
-1.33946e-07
9.46037e-08
-1.57917e-07
1.05167e-07
-1.83595e-07
1.18387e-07
-2.11268e-07
1.34333e-07
-2.41663e-07
1.53137e-07
-2.75708e-07
1.74921e-07
-3.14787e-07
1.99907e-07
-3.6037e-07
2.28309e-07
-4.14627e-07
2.60535e-07
-4.79526e-07
2.96912e-07
-5.58149e-07
3.38099e-07
-6.53434e-07
3.84585e-07
-7.68923e-07
4.37211e-07
-9.09581e-07
4.96922e-07
-1.07813e-06
5.6429e-07
-1.2817e-06
6.41314e-07
-1.52237e-06
7.28055e-07
-1.7991e-06
8.26495e-07
-2.12932e-06
9.40691e-07
-2.45229e-06
1.06427e-06
-2.84326e-06
1.22086e-06
-3.09399e-06
1.39857e-06
-3.30642e-06
1.63626e-06
-3.06323e-06
2.08657e-06
-2.28806e-06
-7.87674e-08
2.9873e-06
1.32319e-10
-3.40022e-09
9.85313e-10
-1.68513e-08
2.79997e-09
-3.41444e-08
5.86079e-09
-5.12852e-08
1.02392e-08
-6.47292e-08
1.57976e-08
-7.32667e-08
2.23112e-08
-7.70362e-08
2.94818e-08
-7.6785e-08
3.69776e-08
-7.37346e-08
4.44502e-08
-6.90369e-08
5.15844e-08
-6.33702e-08
5.80809e-08
-5.71381e-08
6.37104e-08
-5.06392e-08
6.83114e-08
-4.43137e-08
7.18061e-08
-3.87281e-08
7.42093e-08
-3.45579e-08
7.56035e-08
-3.25533e-08
7.61912e-08
-3.33891e-08
7.62315e-08
-3.772e-08
7.61139e-08
-4.58934e-08
7.62615e-08
-5.80624e-08
7.71643e-08
-7.40049e-08
7.92843e-08
-9.33009e-08
8.30644e-08
-1.15379e-07
8.88438e-08
-1.39737e-07
9.69298e-08
-1.66001e-07
1.07491e-07
-1.94167e-07
1.20693e-07
-2.24468e-07
1.36635e-07
-2.57611e-07
1.55455e-07
-2.94525e-07
1.77269e-07
-3.36606e-07
2.02292e-07
-3.85387e-07
2.30714e-07
-4.43058e-07
2.62921e-07
-5.11723e-07
2.99197e-07
-5.94433e-07
3.40126e-07
-6.94354e-07
3.86147e-07
-8.14947e-07
4.3794e-07
-9.61369e-07
4.96368e-07
-1.13656e-06
5.61841e-07
-1.34717e-06
6.36043e-07
-1.59658e-06
7.1925e-07
-1.8823e-06
8.12748e-07
-2.22282e-06
9.21341e-07
-2.56087e-06
1.03964e-06
-2.96156e-06
1.19004e-06
-3.24438e-06
1.37085e-06
-3.48725e-06
1.63219e-06
-3.32457e-06
2.10793e-06
-2.76383e-06
-1.08101e-06
3.11014e-06
1.32614e-10
-3.5401e-09
1.01665e-09
-1.77456e-08
2.90315e-09
-3.60419e-08
6.07662e-09
-5.44675e-08
1.06091e-08
-6.92699e-08
1.63499e-08
-7.9016e-08
2.30596e-08
-8.37544e-08
3.04323e-08
-8.41694e-08
3.81287e-08
-8.14401e-08
4.57924e-08
-7.67145e-08
5.31004e-08
-7.06874e-08
5.97475e-08
-6.37967e-08
6.54995e-08
-5.63998e-08
7.01929e-08
-4.90153e-08
7.37511e-08
-4.22966e-08
7.61932e-08
-3.70058e-08
7.76091e-08
-3.39821e-08
7.82102e-08
-3.39928e-08
7.82657e-08
-3.77867e-08
7.81729e-08
-4.58017e-08
7.83616e-08
-5.82581e-08
7.93241e-08
-7.49695e-08
8.15232e-08
-9.55078e-08
8.54001e-08
-1.19257e-07
9.12936e-08
-1.45642e-07
9.95041e-08
-1.74209e-07
1.10205e-07
-2.04878e-07
1.23568e-07
-2.37828e-07
1.39685e-07
-2.73733e-07
1.58691e-07
-3.1353e-07
1.80701e-07
-3.58622e-07
2.05926e-07
-4.10607e-07
2.34541e-07
-4.71682e-07
2.66911e-07
-5.44084e-07
3.03295e-07
-6.30825e-07
3.44222e-07
-7.35273e-07
3.90102e-07
-8.60831e-07
4.41508e-07
-1.01277e-06
4.99237e-07
-1.19429e-06
5.6361e-07
-1.41154e-06
6.36114e-07
-1.66909e-06
7.17222e-07
-1.9634e-06
8.07578e-07
-2.31319e-06
9.12851e-07
-2.66613e-06
1.02877e-06
-3.07749e-06
1.17822e-06
-3.39382e-06
1.36475e-06
-3.67379e-06
1.65143e-06
-3.61126e-06
2.15866e-06
-3.27108e-06
-2.1367e-06
3.21432e-06
1.33115e-10
-3.6805e-09
1.049e-09
-1.86717e-08
3.01028e-09
-3.80142e-08
6.29969e-09
-5.77657e-08
1.09903e-08
-7.39687e-08
1.69191e-08
-8.49534e-08
2.38307e-08
-9.06744e-08
3.14109e-08
-9.17613e-08
3.93128e-08
-8.93513e-08
4.71719e-08
-8.45875e-08
5.46576e-08
-7.81824e-08
6.14581e-08
-7.06087e-08
6.73339e-08
-6.22842e-08
7.21181e-08
-5.38078e-08
7.57342e-08
-4.59228e-08
7.8204e-08
-3.94815e-08
7.96247e-08
-3.54154e-08
8.0217e-08
-3.45879e-08
8.02634e-08
-3.7844e-08
8.01735e-08
-4.57131e-08
8.03893e-08
-5.84807e-08
8.14115e-08
-7.59937e-08
8.37077e-08
-9.78116e-08
8.77201e-08
-1.2327e-07
9.37867e-08
-1.51719e-07
1.02203e-07
-1.82624e-07
1.1314e-07
-2.15824e-07
1.26766e-07
-2.51451e-07
1.43168e-07
-2.90141e-07
1.62481e-07
-3.3284e-07
1.8481e-07
-3.80956e-07
2.10361e-07
-4.36153e-07
2.393e-07
-5.00629e-07
2.71974e-07
-5.76749e-07
3.08631e-07
-6.67489e-07
3.49753e-07
-7.76386e-07
3.95741e-07
-9.06822e-07
4.47095e-07
-1.06412e-06
5.04553e-07
-1.25175e-06
5.68475e-07
-1.47546e-06
6.40044e-07
-1.74067e-06
7.20156e-07
-2.04351e-06
8.09198e-07
-2.40224e-06
9.13435e-07
-2.77036e-06
1.02961e-06
-3.19367e-06
1.18107e-06
-3.54527e-06
1.37727e-06
-3.87001e-06
1.68822e-06
-3.92221e-06
2.22754e-06
-3.81044e-06
-3.21718e-06
3.30799e-06
1.33865e-10
-3.82165e-09
1.08239e-09
-1.96304e-08
3.1214e-09
-4.00641e-08
6.53008e-09
-6.11831e-08
1.13827e-08
-7.88294e-08
1.75052e-08
-9.10843e-08
2.46246e-08
-9.78021e-08
3.24176e-08
-9.9566e-08
4.05302e-08
-9.74731e-08
4.85892e-08
-9.26604e-08
5.6256e-08
-8.58586e-08
6.32124e-08
-7.75765e-08
6.92129e-08
-6.82935e-08
7.40876e-08
-5.86907e-08
7.77591e-08
-4.96043e-08
8.02515e-08
-4.19799e-08
8.16687e-08
-3.6845e-08
8.22412e-08
-3.51633e-08
8.22654e-08
-3.78787e-08
8.21652e-08
-4.56143e-08
8.23977e-08
-5.87198e-08
8.34744e-08
-7.70724e-08
8.58714e-08
-1.00216e-07
9.00334e-08
-1.27433e-07
9.62985e-08
-1.57995e-07
1.04958e-07
-1.91282e-07
1.1618e-07
-2.27055e-07
1.30125e-07
-2.65393e-07
1.46877e-07
-3.06899e-07
1.66563e-07
-3.52525e-07
1.89285e-07
-4.03683e-07
2.15239e-07
-4.62101e-07
2.44584e-07
-5.29982e-07
2.7765e-07
-6.09807e-07
3.1468e-07
-7.04526e-07
3.56117e-07
-8.17815e-07
4.0236e-07
-9.53068e-07
4.53866e-07
-1.11562e-06
5.11322e-07
-1.30921e-06
5.75153e-07
-1.53929e-06
6.46356e-07
-1.81188e-06
7.26174e-07
-2.12332e-06
8.14778e-07
-2.49085e-06
9.19128e-07
-2.8747e-06
1.03729e-06
-3.31184e-06
1.19322e-06
-3.70119e-06
1.40053e-06
-4.07734e-06
1.73392e-06
-4.25562e-06
2.30258e-06
-4.37913e-06
-4.30415e-06
3.38952e-06
1.34908e-10
-3.96383e-09
1.11684e-09
-2.06225e-08
3.23655e-09
-4.21946e-08
6.76787e-09
-6.47231e-08
1.17862e-08
-8.38557e-08
1.8108e-08
-9.74144e-08
2.54411e-08
-1.05143e-07
3.34526e-08
-1.07589e-07
4.1781e-08
-1.05811e-07
5.00446e-08
-1.00938e-07
5.78959e-08
-9.37194e-08
6.50103e-08
-8.47022e-08
7.11366e-08
-7.44284e-08
7.61012e-08
-6.36635e-08
7.9826e-08
-5.33391e-08
8.23375e-08
-4.44975e-08
8.37461e-08
-3.82658e-08
8.42921e-08
-3.57125e-08
8.42865e-08
-3.78834e-08
8.41682e-08
-4.54974e-08
8.44104e-08
-5.89684e-08
8.55375e-08
-7.82014e-08
8.80346e-08
-1.0272e-07
9.23505e-08
-1.3175e-07
9.88238e-08
-1.64478e-07
1.07742e-07
-2.00199e-07
1.19269e-07
-2.3859e-07
1.33559e-07
-2.7968e-07
1.5069e-07
-3.24035e-07
1.70782e-07
-3.72614e-07
1.9393e-07
-4.26836e-07
2.20321e-07
-4.88487e-07
2.50109e-07
-5.59777e-07
2.83605e-07
-6.43294e-07
3.21048e-07
-7.41975e-07
3.6285e-07
-8.5961e-07
4.09406e-07
-9.99627e-07
4.61149e-07
-1.16736e-06
5.18725e-07
-1.36679e-06
5.82636e-07
-1.6032e-06
6.53741e-07
-1.88299e-06
7.33627e-07
-2.20321e-06
8.22418e-07
-2.57965e-06
9.27596e-07
-2.97987e-06
1.0487e-06
-3.43294e-06
1.20991e-06
-3.8624e-06
1.42924e-06
-4.29669e-06
1.78217e-06
-4.60857e-06
2.37264e-06
-4.96963e-06
-5.38268e-06
3.45113e-06
1.3629e-10
-4.10735e-09
1.15237e-09
-2.16485e-08
3.35572e-09
-4.44085e-08
7.01307e-09
-6.83889e-08
1.2201e-08
-8.90514e-08
1.87273e-08
-1.03949e-07
2.62802e-08
-1.12704e-07
3.45158e-08
-1.15836e-07
4.30652e-08
-1.14369e-07
5.15379e-08
-1.09424e-07
5.95774e-08
-1.01769e-07
6.68521e-08
-9.19881e-08
7.31049e-08
-8.06899e-08
7.81587e-08
-6.87256e-08
8.19349e-08
-5.7125e-08
8.4462e-08
-4.70308e-08
8.58576e-08
-3.96731e-08
8.63717e-08
-3.62299e-08
8.63306e-08
-3.78522e-08
8.61887e-08
-4.5357e-08
8.6436e-08
-5.92219e-08
8.76102e-08
-7.93773e-08
9.02059e-08
-1.05323e-07
9.46766e-08
-1.36222e-07
1.01361e-07
-1.71173e-07
1.10544e-07
-2.09381e-07
1.22383e-07
-2.50437e-07
1.37026e-07
-2.94321e-07
1.54545e-07
-3.41559e-07
1.75051e-07
-3.93118e-07
1.98634e-07
-4.50424e-07
2.25468e-07
-5.15316e-07
2.55701e-07
-5.90018e-07
2.89626e-07
-6.77211e-07
3.27479e-07
-7.79834e-07
3.69641e-07
-9.01765e-07
4.16501e-07
-1.04649e-06
4.68478e-07
-1.21933e-06
5.26182e-07
-1.4245e-06
5.90192e-07
-1.66721e-06
6.61271e-07
-1.95407e-06
7.41305e-07
-2.28324e-06
8.30526e-07
-2.66888e-06
9.36753e-07
-3.08609e-06
1.0611e-06
-3.55729e-06
1.22768e-06
-4.02899e-06
1.45817e-06
-4.5272e-06
1.82679e-06
-4.9772e-06
2.42993e-06
-5.5728e-06
-6.43767e-06
3.48488e-06
1.38056e-10
-4.25257e-09
1.18901e-09
-2.27093e-08
3.47886e-09
-4.67088e-08
7.26572e-09
-7.21841e-08
1.26271e-08
-9.44204e-08
1.93629e-08
-1.10693e-07
2.71415e-08
-1.20491e-07
3.56069e-08
-1.24313e-07
4.43825e-08
-1.23154e-07
5.3069e-08
-1.18124e-07
6.13004e-08
-1.10009e-07
6.87378e-08
-9.94364e-08
7.5118e-08
-8.70787e-08
8.02606e-08
-7.38764e-08
8.40861e-08
-6.09601e-08
8.66254e-08
-4.95764e-08
8.80035e-08
-4.10626e-08
8.84806e-08
-3.67104e-08
8.83987e-08
-3.77798e-08
8.82282e-08
-4.51882e-08
8.84766e-08
-5.94762e-08
8.96948e-08
-8.05972e-08
9.23877e-08
-1.08022e-07
9.70126e-08
-1.40847e-07
1.03909e-07
-1.78079e-07
1.13357e-07
-2.18827e-07
1.25509e-07
-2.62597e-07
1.40505e-07
-3.09314e-07
1.58411e-07
-3.59468e-07
1.79327e-07
-4.14032e-07
2.03336e-07
-4.74437e-07
2.30601e-07
-5.42576e-07
2.61263e-07
-6.20686e-07
2.95592e-07
-7.11533e-07
3.33821e-07
-8.18067e-07
3.76301e-07
-9.44239e-07
4.23412e-07
-1.0936e-06
4.7556e-07
-1.27148e-06
5.33323e-07
-1.48227e-06
5.97349e-07
-1.73123e-06
6.68343e-07
-2.02507e-06
7.48424e-07
-2.36331e-06
8.38039e-07
-2.7585e-06
9.45175e-07
-3.19322e-06
1.07261e-06
-3.68474e-06
1.24428e-06
-4.20066e-06
1.48346e-06
-4.7664e-06
1.86285e-06
-5.35661e-06
2.46883e-06
-6.17881e-06
-7.45481e-06
3.48593e-06
1.4025e-10
-4.3999e-09
1.22677e-09
-2.38055e-08
3.60591e-09
-4.90981e-08
7.52575e-09
-7.6112e-08
1.30642e-08
-9.99662e-08
2.00144e-08
-1.17651e-07
2.80249e-08
-1.28509e-07
3.67258e-08
-1.33025e-07
4.57328e-08
-1.32171e-07
5.46378e-08
-1.27042e-07
6.30648e-08
-1.18446e-07
7.06672e-08
-1.0705e-07
7.71759e-08
-9.3596e-08
8.24068e-08
-7.91154e-08
8.62796e-08
-6.48423e-08
8.88279e-08
-5.2131e-08
9.01839e-08
-4.24298e-08
9.06189e-08
-3.71489e-08
9.0491e-08
-3.7661e-08
9.02871e-08
-4.49858e-08
9.05323e-08
-5.97271e-08
9.17914e-08
-8.18578e-08
9.4579e-08
-1.10816e-07
9.93567e-08
-1.45626e-07
1.06464e-07
-1.85195e-07
1.16175e-07
-2.28537e-07
1.28638e-07
-2.75068e-07
1.43983e-07
-3.24656e-07
1.62267e-07
-3.77757e-07
1.83583e-07
-4.35345e-07
2.08003e-07
-4.98862e-07
2.35676e-07
-5.70244e-07
2.66736e-07