/*--------------------------------*- C++ -*----------------------------------*\
  =========                 |
  \\      /  F ield         | OpenFOAM: The Open Source CFD Toolbox
   \\    /   O peration     | Website:  https://openfoam.org
    \\  /    A nd           | Version:  7
     \\/     M anipulation  |
\*---------------------------------------------------------------------------*/
FoamFile
{
    version     2.0;
    format      ascii;
    class       volVectorField;
    location    "0.47";
    object      ddtCorrDdt0(U);
}
// * * * * * * * * * * * * * * * * * * * * * * * * * * * * * * * * * * * * * //

dimensions      [0 1 -2 0 0 0 0];

internalField   nonuniform List<vector> 
70000
(
(0.000527071 -5.13379e-05 0)
(0.0050939 -8.59034e-05 0)
(0.0123481 -8.91353e-05 0)
(0.0196669 -6.85629e-05 0)
(0.0259595 -6.52112e-05 0)
(0.031174 -6.20308e-05 0)
(0.0353404 -5.88681e-05 0)
(0.0387796 -5.64966e-05 0)
(0.0420316 -5.6001e-05 0)
(0.0456008 -5.81911e-05 0)
(0.0498801 -6.36877e-05 0)
(0.0551054 -7.27448e-05 0)
(0.0613555 -8.38126e-05 0)
(0.0686046 -9.63364e-05 0)
(0.0767562 -0.000109082 0)
(0.085744 -0.000122675 0)
(0.0955105 -0.000136844 0)
(0.106078 -0.000152041 0)
(0.117493 -0.000169661 0)
(0.129867 -0.000189344 0)
(0.143348 -0.000213124 0)
(0.158095 -0.000240362 0)
(0.174315 -0.000272323 0)
(0.192241 -0.000309524 0)
(0.212129 -0.000352723 0)
(0.234318 -0.00040235 0)
(0.259189 -0.000461048 0)
(0.287203 -0.000528033 0)
(0.318938 -0.000607474 0)
(0.355054 -0.000699681 0)
(0.396353 -0.00080655 0)
(0.443835 -0.000933022 0)
(0.498574 -0.00107511 0)
(0.562107 -0.00124611 0)
(0.635699 -0.00142616 0)
(0.721724 -0.00165078 0)
(0.821313 -0.00186355 0)
(0.938166 -0.00213821 0)
(1.07255 -0.00236407 0)
(1.22927 -0.00260923 0)
(1.40791 -0.00288319 0)
(1.60928 -0.00289851 0)
(1.83727 -0.00229497 0)
(2.07355 -0.00122794 0)
(2.32051 -0.000444419 0)
(2.57254 0.00239867 0)
(2.58628 0.00948121 0)
(3.0044 0.0143296 0)
(1.89491 0.0242072 0)
(0.932295 -0.0362344 0)
(-7.79451e-05 -0.000273986 0)
(0.00834088 -0.000680389 0)
(0.0259874 -0.000873384 0)
(0.0452114 -0.000823444 0)
(0.0611573 -0.000692627 0)
(0.07326 -0.000557459 0)
(0.081797 -0.000450298 0)
(0.087779 -0.000400273 0)
(0.0928647 -0.000418393 0)
(0.0986711 -0.000495527 0)
(0.106396 -0.000614438 0)
(0.116687 -0.000756162 0)
(0.129699 -0.000902016 0)
(0.145253 -0.00104255 0)
(0.163019 -0.0011735 0)
(0.18271 -0.00129939 0)
(0.204112 -0.00142509 0)
(0.227177 -0.00155757 0)
(0.251952 -0.00170565 0)
(0.278617 -0.0018743 0)
(0.30743 -0.00207148 0)
(0.338696 -0.00230049 0)
(0.372806 -0.00256837 0)
(0.410216 -0.00288146 0)
(0.451443 -0.00324815 0)
(0.497165 -0.00368004 0)
(0.548191 -0.00419297 0)
(0.605501 -0.0048017 0)
(0.670357 -0.00553235 0)
(0.744235 -0.00640796 0)
(0.82895 -0.00745957 0)
(0.926799 -0.00873318 0)
(1.04035 -0.0102596 0)
(1.1733 -0.0121192 0)
(1.32884 -0.0143208 0)
(1.51314 -0.0170106 0)
(1.72937 -0.0201186 0)
(1.98806 -0.0239096 0)
(2.29081 -0.0281394 0)
(2.65357 -0.0330925 0)
(3.07697 -0.0384879 0)
(3.5734 -0.0433359 0)
(4.15641 -0.0531258 0)
(4.79916 -0.0526681 0)
(5.52669 -0.0581709 0)
(6.36101 -0.0411605 0)
(6.70947 -0.0460088 0)
(8.37426 0.051698 0)
(6.11902 0.0796669 0)
(6.83968 0.252247 0)
(-0.000855016 -0.000508126 0)
(0.00623332 -0.00154291 0)
(0.0266789 -0.00219931 0)
(0.0532033 -0.00216677 0)
(0.0769924 -0.00177418 0)
(0.0948188 -0.00132502 0)
(0.106354 -0.000951396 0)
(0.112863 -0.000746627 0)
(0.116809 -0.000752691 0)
(0.120867 -0.000945468 0)
(0.127177 -0.00126654 0)
(0.137 -0.00165194 0)
(0.150765 -0.00204427 0)
(0.168301 -0.00241275 0)
(0.189137 -0.00274621 0)
(0.212803 -0.00305446 0)
(0.238903 -0.0033522 0)
(0.267255 -0.00365691 0)
(0.297805 -0.00399054 0)
(0.330668 -0.00436535 0)
(0.366069 -0.00479924 0)
(0.404298 -0.00530091 0)
(0.445753 -0.00588657 0)
(0.490923 -0.0065707 0)
(0.540385 -0.00737484 0)
(0.594912 -0.00832572 0)
(0.655462 -0.00946261 0)
(0.723208 -0.0108224 0)
(0.799691 -0.0124683 0)
(0.886738 -0.0144586 0)
(0.986627 -0.0168744 0)
(1.10227 -0.0198254 0)
(1.23694 -0.0234142 0)
(1.39548 -0.0278187 0)
(1.582 -0.0331419 0)
(1.805 -0.0396917 0)
(2.06848 -0.047488 0)
(2.38767 -0.0570669 0)
(2.76443 -0.0681826 0)
(3.22318 -0.0815199 0)
(3.76497 -0.096555 0)
(4.41194 -0.112206 0)
(5.18669 -0.134845 0)
(6.06421 -0.148777 0)
(7.08181 -0.171561 0)
(8.32141 -0.138423 0)
(8.92701 -0.190434 0)
(11.4907 0.0424964 0)
(9.15292 0.0678039 0)
(10.3725 0.507733 0)
(-0.000948122 -0.000627647 0)
(0.0029533 -0.0023206 0)
(0.0200493 -0.00370384 0)
(0.047513 -0.00393381 0)
(0.076274 -0.00332772 0)
(0.100013 -0.00244273 0)
(0.116102 -0.00161666 0)
(0.124761 -0.00107558 0)
(0.128352 -0.000937858 0)
(0.130101 -0.00118689 0)
(0.133004 -0.00171827 0)
(0.139148 -0.0024034 0)
(0.149582 -0.00312358 0)
(0.164509 -0.00380737 0)
(0.183615 -0.00442532 0)
(0.206442 -0.00498692 0)
(0.232521 -0.00551636 0)
(0.261558 -0.0060422 0)
(0.29337 -0.0066015 0)
(0.327934 -0.00721545 0)
(0.365342 -0.00791331 0)
(0.405754 -0.00871081 0)
(0.449454 -0.00963487 0)
(0.496838 -0.01071 0)
(0.548409 -0.0119734 0)
(0.60489 -0.0134697 0)
(0.667218 -0.0152652 0)
(0.73657 -0.017424 0)
(0.814526 -0.0200514 0)
(0.902988 -0.0232484 0)
(1.00435 -0.0271562 0)
(1.12172 -0.0319564 0)
(1.25853 -0.0378456 0)
(1.42012 -0.0451068 0)
(1.61074 -0.0539849 0)
(1.84004 -0.0649566 0)
(2.11192 -0.0782421 0)
(2.44425 -0.0946381 0)
(2.83809 -0.114101 0)
(3.32296 -0.137748 0)
(3.89904 -0.165172 0)
(4.59511 -0.195871 0)
(5.43612 -0.231644 0)
(6.40498 -0.253905 0)
(7.53581 -0.316157 0)
(8.96727 -0.265431 0)
(9.73262 -0.385391 0)
(12.5235 -0.0296649 0)
(11.0479 0.0754884 0)
(11.1374 0.609126 0)
(-0.000558723 -0.000657188 0)
(0.000996927 -0.00285996 0)
(0.0125624 -0.0050247 0)
(0.0358356 -0.00579723 0)
(0.0650211 -0.00523609 0)
(0.0931141 -0.00400118 0)
(0.115149 -0.00264606 0)
(0.129108 -0.00159713 0)
(0.135879 -0.00111857 0)
(0.138143 -0.00125696 0)
(0.139107 -0.00189155 0)
(0.141516 -0.00283375 0)
(0.147213 -0.00389247 0)
(0.157133 -0.004939 0)
(0.171518 -0.00590936 0)
(0.19028 -0.00679976 0)
(0.213141 -0.00763572 0)
(0.239876 -0.00845123 0)
(0.270272 -0.00929516 0)
(0.304194 -0.0101954 0)
(0.34158 -0.0111919 0)
(0.382409 -0.0123073 0)
(0.426773 -0.0135803 0)
(0.47489 -0.0150468 0)
(0.527103 -0.0167618 0)
(0.583992 -0.0187894 0)
(0.646383 -0.0212259 0)
(0.715358 -0.0241649 0)
(0.792426 -0.0277567 0)
(0.879436 -0.0321483 0)
(0.97874 -0.0375463 0)
(1.09346 -0.0442055 0)
(1.22694 -0.0524295 0)
(1.38467 -0.0626044 0)
(1.57071 -0.0751489 0)
(1.79522 -0.0906876 0)
(2.06148 -0.109709 0)
(2.38875 -0.133232 0)
(2.77677 -0.161526 0)
(3.25778 -0.196125 0)
(3.83015 -0.236771 0)
(4.52676 -0.283297 0)
(5.37162 -0.339603 0)
(6.35359 -0.37262 0)
(7.50047 -0.475241 0)
(8.96046 -0.411 0)
(9.89559 -0.586976 0)
(12.345 -0.171977 0)
(12.1145 0.11689 0)
(11.0589 0.723798 0)
(-0.000186723 -0.000670977 0)
(0.000600145 -0.00319173 0)
(0.00772261 -0.00600394 0)
(0.0250227 -0.00744743 0)
(0.0508029 -0.00722933 0)
(0.0799172 -0.00591521 0)
(0.106815 -0.00415954 0)
(0.127557 -0.00257092 0)
(0.140851 -0.00159863 0)
(0.147704 -0.00141633 0)
(0.150479 -0.0019476 0)
(0.151857 -0.00298482 0)
(0.154164 -0.00428258 0)
(0.159091 -0.00565484 0)
(0.167677 -0.00699285 0)
(0.180535 -0.00826514 0)
(0.197929 -0.0094848 0)
(0.220011 -0.0106793 0)
(0.246782 -0.0118989 0)
(0.278172 -0.0131702 0)
(0.314069 -0.0145381 0)
(0.354314 -0.0160287 0)
(0.398799 -0.0176907 0)
(0.44752 -0.0195722 0)
(0.5006 -0.0217472 0)
(0.558412 -0.0243015 0)
(0.621597 -0.027364 0)
(0.69108 -0.0310602 0)
(0.768234 -0.0355879 0)
(0.854796 -0.0411426 0)
(0.953009 -0.0479993 0)
(1.06592 -0.0564855 0)
(1.19674 -0.067019 0)
(1.35095 -0.0800834 0)
(1.5323 -0.0962894 0)
(1.75115 -0.11639 0)
(2.01012 -0.141181 0)
(2.32907 -0.171866 0)
(2.70646 -0.209097 0)
(3.17585 -0.254762 0)
(3.73346 -0.308877 0)
(4.41495 -0.371465 0)
(5.24047 -0.448016 0)
(6.2028 -0.509021 0)
(7.34091 -0.643676 0)
(8.72272 -0.566946 0)
(9.8746 -0.772083 0)
(11.7668 -0.361698 0)
(12.5171 0.147076 0)
(11.3297 0.95899 0)
(-3.69186e-05 -0.000700215 0)
(0.000929382 -0.00341367 0)
(0.00581004 -0.00668688 0)
(0.0182574 -0.00877188 0)
(0.0392684 -0.00907879 0)
(0.066448 -0.00797738 0)
(0.095412 -0.00608582 0)
(0.121703 -0.00410093 0)
(0.142375 -0.00262576 0)
(0.156473 -0.00198419 0)
(0.164738 -0.00219763 0)
(0.168905 -0.00309795 0)
(0.171058 -0.00443163 0)
(0.173195 -0.00598229 0)
(0.176987 -0.00760584 0)
(0.183806 -0.00924038 0)
(0.194666 -0.0108771 0)
(0.210372 -0.0125245 0)
(0.231448 -0.0142204 0)
(0.258181 -0.0159764 0)
(0.290649 -0.0178301 0)
(0.328729 -0.0198011 0)
(0.372221 -0.0219417 0)
(0.420938 -0.0243085 0)
(0.474776 -0.026994 0)
(0.533858 -0.0301068 0)
(0.598582 -0.0338104 0)
(0.669654 -0.0382654 0)
(0.748245 -0.0437198 0)
(0.835925 -0.0504203 0)
(0.934769 -0.058714 0)
(1.04771 -0.0690004 0)
(1.17775 -0.0818169 0)
(1.33028 -0.0977393 0)
(1.50877 -0.117583 0)
(1.72355 -0.14221 0)
(1.97666 -0.172752 0)
(2.28808 -0.210557 0)
(2.65527 -0.256715 0)
(3.11207 -0.313377 0)
(3.65311 -0.380995 0)
(4.31463 -0.459488 0)
(5.11589 -0.556591 0)
(6.04087 -0.636931 0)
(7.17513 -0.792817 0)
(8.42745 -0.736741 0)
(9.77752 -0.940886 0)
(11.2268 -0.56064 0)
(12.3917 0.11273 0)
(11.9806 1.31754 0)
(-5.18359e-05 -0.000743965 0)
(0.00128617 -0.00360977 0)
(0.00561379 -0.00720872 0)
(0.0153558 -0.00982674 0)
(0.0324442 -0.0107011 0)
(0.056527 -0.0100059 0)
(0.0850193 -0.00824504 0)
(0.1142 -0.00610212 0)
(0.140627 -0.00425684 0)
(0.161999 -0.00315294 0)
(0.177438 -0.00292355 0)
(0.187276 -0.0034812 0)
(0.192687 -0.00461416 0)
(0.195318 -0.00611915 0)
(0.196954 -0.007847 0)
(0.199405 -0.00972195 0)
(0.204315 -0.0117189 0)
(0.213196 -0.0138249 0)
(0.22727 -0.0160568 0)
(0.247441 -0.0183984 0)
(0.274267 -0.0208646 0)
(0.307941 -0.0234537 0)
(0.348397 -0.0262072 0)
(0.395423 -0.0291808 0)
(0.448775 -0.0324789 0)
(0.508353 -0.0362303 0)
(0.574295 -0.0406329 0)
(0.64704 -0.0458848 0)
(0.727492 -0.0522863 0)
(0.816986 -0.0601385 0)
(0.91736 -0.0698639 0)
(1.03135 -0.0819347 0)
(1.1617 -0.0970118 0)
(1.31363 -0.115759 0)
(1.49025 -0.139204 0)
(1.7017 -0.168306 0)
(1.94957 -0.204544 0)
(2.2534 -0.249381 0)
(2.61019 -0.30438 0)
(3.05272 -0.37189 0)
(3.57586 -0.452822 0)
(4.21199 -0.547145 0)
(4.98756 -0.663748 0)
(5.86334 -0.761995 0)
(6.98608 -0.932196 0)
(8.11052 -0.915404 0)
(9.55244 -1.10265 0)
(10.8191 -0.743141 0)
(11.9618 0.0134667 0)
(12.3875 1.69344 0)
(-0.000111594 -0.00079615 0)
(0.00143981 -0.00382245 0)
(0.00590815 -0.00768922 0)
(0.0147509 -0.0107385 0)
(0.0295911 -0.0121382 0)
(0.0510262 -0.0119228 0)
(0.0778827 -0.0104717 0)
(0.107607 -0.00839559 0)
(0.137186 -0.00637677 0)
(0.163902 -0.00492066 0)
(0.185866 -0.00424658 0)
(0.202173 -0.00435432 0)
(0.212874 -0.0051026 0)
(0.218803 -0.00633876 0)
(0.221318 -0.00794458 0)
(0.222159 -0.00985984 0)
(0.223206 -0.0120642 0)
(0.226425 -0.0145367 0)
(0.23365 -0.0172779 0)
(0.246463 -0.0202415 0)
(0.266082 -0.0234097 0)
(0.293262 -0.0267447 0)
(0.328345 -0.0302599 0)
(0.371337 -0.033994 0)
(0.422046 -0.0380496 0)
(0.480271 -0.0425671 0)
(0.545951 -0.0477731 0)
(0.619267 -0.0539017 0)
(0.70083 -0.0613061 0)
(0.791683 -0.0703431 0)
(0.893359 -0.0815135 0)
(1.00831 -0.0953617 0)
(1.13895 -0.112675 0)
(1.29018 -0.134202 0)
(1.46476 -0.161186 0)
(1.67233 -0.194673 0)
(1.91416 -0.236492 0)
(2.20874 -0.288209 0)
(2.55331 -0.351836 0)
(2.97769 -0.429967 0)
(3.47983 -0.523744 0)
(4.08297 -0.633813 0)
(4.82683 -0.768287 0)
(5.64518 -0.889015 0)
(6.72997 -1.07775 0)
(7.76716 -1.09273 0)
(9.15371 -1.2686 0)
(10.4284 -0.904313 0)
(11.497 -0.107372 0)
(12.2058 1.90073 0)
(-0.000152933 -0.000849231 0)
(0.00144583 -0.00405678 0)
(0.00614464 -0.00818199 0)
(0.014947 -0.0116173 0)
(0.0289554 -0.0134867 0)
(0.0488559 -0.013747 0)
(0.074155 -0.0126826 0)
(0.103238 -0.0108209 0)
(0.133824 -0.00880414 0)
(0.163445 -0.00714753 0)
(0.189919 -0.0061152 0)
(0.21164 -0.00577313 0)
(0.22777 -0.0060513 0)
(0.238278 -0.00686419 0)
(0.243821 -0.00814951 0)
(0.245674 -0.00988997 0)
(0.245512 -0.0120967 0)
(0.245356 -0.014764 0)
(0.247339 -0.0178948 0)
(0.253534 -0.0214247 0)
(0.265777 -0.0253055 0)
(0.285472 -0.0294573 0)
(0.313542 -0.0338521 0)
(0.350442 -0.038494 0)
(0.396255 -0.0434665 0)
(0.450875 -0.0489057 0)
(0.514181 -0.0550557 0)
(0.586186 -0.0621793 0)
(0.667242 -0.0706783 0)
(0.7581 -0.0809638 0)
(0.859955 -0.0936143 0)
(0.974901 -0.109246 0)
(1.10498 -0.12877 0)
(1.25464 -0.153019 0)
(1.42621 -0.183446 0)
(1.62859 -0.221185 0)
(1.86289 -0.268385 0)
(2.14572 -0.326749 0)
(2.4755 -0.398624 0)
(2.87704 -0.487049 0)
(3.35356 -0.592932 0)
(3.9169 -0.718391 0)
(4.61736 -0.869452 0)
(5.37852 -1.0116 0)
(6.38293 -1.21679 0)
(7.37712 -1.26072 0)
(8.61977 -1.43548 0)
(9.89004 -1.06299 0)
(11.1275 -0.211402 0)
(11.6957 1.96119 0)
(-0.000169829 -0.000900772 0)
(0.00140606 -0.00430607 0)
(0.00623433 -0.0087036 0)
(0.0152297 -0.0125159 0)
(0.0291387 -0.014827 0)
(0.048445 -0.0155385 0)
(0.0728106 -0.0148735 0)
(0.10107 -0.0132923 0)
(0.13153 -0.0113884 0)
(0.162197 -0.00965996 0)
(0.191043 -0.00838145 0)
(0.216284 -0.00765559 0)
(0.236625 -0.00746657 0)
(0.251423 -0.0077921 0)
(0.260686 -0.00863273 0)
(0.265096 -0.0100288 0)
(0.265868 -0.0120426 0)
(0.264741 -0.0147072 0)
(0.263789 -0.0180515 0)
(0.26526 -0.0220143 0)
(0.271372 -0.0265325 0)
(0.284058 -0.0314909 0)
(0.304828 -0.0368162 0)
(0.334679 -0.042467 0)
(0.374128 -0.0484912 0)
(0.423346 -0.0550033 0)
(0.482323 -0.0622485 0)
(0.551043 -0.0705064 0)
(0.629701 -0.0802176 0)
(0.71881 -0.0918417 0)
(0.819262 -0.10603 0)
(0.932772 -0.123467 0)
(1.061 -0.145184 0)
(1.20781 -0.172091 0)
(1.37517 -0.205837 0)
(1.5709 -0.247657 0)
(1.79615 -0.29996 0)
(2.06496 -0.364661 0)
(2.37757 -0.444249 0)
(2.75266 -0.54246 0)
(3.1984 -0.659591 0)
(3.71867 -0.799494 0)
(4.3618 -0.966306 0)
(5.06973 -1.1274 0)
(5.96328 -1.3515 0)
(6.91723 -1.41401 0)
(8.02941 -1.58867 0)
(9.16894 -1.23575 0)
(10.7259 -0.303636 0)
(11.3494 1.92931 0)
(-0.000175342 -0.000951279 0)
(0.00137138 -0.00456555 0)
(0.00624873 -0.00925207 0)
(0.0154141 -0.0134537 0)
(0.0294558 -0.0162028 0)
(0.0486691 -0.0173505 0)
(0.0726521 -0.0170769 0)
(0.100362 -0.0157917 0)
(0.130404 -0.0140494 0)
(0.161142 -0.0123267 0)
(0.190848 -0.0108913 0)
(0.21785 -0.00986089 0)
(0.240756 -0.00925356 0)
(0.258642 -0.00909617 0)
(0.271107 -0.00944526 0)
(0.27835 -0.0103995 0)
(0.281104 -0.0120798 0)
(0.280688 -0.0145722 0)
(0.27888 -0.0179508 0)
(0.277818 -0.0221809 0)
(0.279814 -0.0272051 0)
(0.287091 -0.0328893 0)
(0.301585 -0.0391227 0)
(0.324775 -0.0458165 0)
(0.357638 -0.0529737 0)
(0.400714 -0.0606731 0)
(0.454229 -0.0691447 0)
(0.51827 -0.0786705 0)
(0.593001 -0.0897163 0)
(0.678792 -0.102781 0)
(0.776312 -0.11858 0)
(0.886932 -0.137859 0)
(1.01197 -0.161758 0)
(1.15468 -0.191266 0)
(1.31672 -0.228197 0)
(1.50461 -0.273906 0)
(1.71976 -0.330978 0)
(1.97318 -0.401635 0)
(2.26699 -0.488322 0)
(2.61429 -0.595578 0)
(3.02513 -0.723131 0)
(3.50247 -0.875884 0)
(4.0791 -1.05786 0)
(4.7338 -1.23507 0)
(5.51289 -1.47737 0)
(6.39497 -1.56236 0)
(7.43043 -1.72521 0)
(8.38976 -1.41909 0)
(10.1217 -0.431793 0)
(11.3159 1.83184 0)
(-0.000178921 -0.00100152 0)
(0.00134944 -0.00483421 0)
(0.00624863 -0.00982363 0)
(0.0155287 -0.0144321 0)
(0.0297177 -0.0176302 0)
(0.0490032 -0.0192132 0)
(0.072902 -0.0193239 0)
(0.100354 -0.0183324 0)
(0.130054 -0.0167648 0)
(0.160558 -0.0150804 0)
(0.190357 -0.0135383 0)
(0.217964 -0.0122615 0)
(0.242068 -0.0112886 0)
(0.261702 -0.010682 0)
(0.276299 -0.010543 0)
(0.285784 -0.0110207 0)
(0.290547 -0.0122921 0)
(0.291526 -0.0144995 0)
(0.290149 -0.0177724 0)
(0.288292 -0.0221188 0)
(0.288151 -0.0275067 0)
(0.292001 -0.033802 0)
(0.301985 -0.04087 0)
(0.319899 -0.0485817 0)
(0.347084 -0.0568938 0)
(0.384424 -0.065842 0)
(0.432422 -0.0756292 0)
(0.491342 -0.0865264 0)
(0.561413 -0.0990114 0)
(0.642954 -0.113612 0)
(0.736515 -0.131094 0)
(0.843187 -0.152258 0)
(0.964049 -0.178337 0)
(1.10174 -0.210397 0)
(1.25771 -0.250377 0)
(1.43714 -0.299784 0)
(1.64176 -0.361282 0)
(1.87967 -0.437461 0)
(2.15419 -0.530639 0)
(2.47463 -0.646012 0)
(2.84924 -0.783203 0)
(3.28549 -0.946977 0)
(3.79573 -1.14314 0)
(4.39258 -1.33442 0)
(5.07373 -1.59167 0)
(5.85764 -1.70343 0)
(6.83186 -1.84572 0)
(7.69451 -1.59356 0)
(9.34597 -0.626219 0)
(11.3708 1.65037 0)
(-0.000183259 -0.00105175 0)
(0.00133436 -0.00511265 0)
(0.00625403 -0.0104171 0)
(0.0156221 -0.0154493 0)
(0.0299297 -0.0191117 0)
(0.0493054 -0.0211377 0)
(0.0732195 -0.0216331 0)
(0.100576 -0.0209326 0)
(0.130072 -0.0195386 0)
(0.160333 -0.0178998 0)
(0.189967 -0.01627 0)
(0.217616 -0.0147756 0)
(0.242081 -0.0134714 0)
(0.262452 -0.0124474 0)
(0.278151 -0.0118411 0)
(0.289008 -0.0118431 0)
(0.295233 -0.0126792 0)
(0.297522 -0.0145445 0)
(0.297023 -0.0176254 0)
(0.295346 -0.0219807 0)
(0.294484 -0.0276158 0)
(0.296616 -0.0344121 0)
(0.303906 -0.0422257 0)
(0.318287 -0.0508979 0)
(0.341318 -0.0603436 0)
(0.37412 -0.070555 0)
(0.417438 -0.0817011 0)
(0.471701 -0.0940329 0)
(0.53725 -0.108029 0)
(0.614416 -0.124237 0)
(0.703709 -0.143461 0)
(0.806017 -0.166549 0)
(0.92228 -0.194804 0)
(1.05458 -0.229376 0)
(1.2043 -0.272285 0)
(1.37533 -0.325208 0)
(1.56971 -0.390817 0)
(1.79312 -0.472068 0)
(2.04922 -0.571183 0)
(2.34529 -0.693701 0)
(2.68588 -0.839712 0)
(3.08386 -1.0129 0)
(3.53551 -1.22162 0)
(4.0725 -1.42608 0)
(4.67386 -1.69383 0)
(5.36556 -1.83408 0)
(6.25632 -1.96602 0)
(7.13311 -1.75324 0)
(8.58702 -0.877554 0)
(11.2806 1.33919 0)
(-0.00018806 -0.00110201 0)
(0.00132184 -0.00540157 0)
(0.006265 -0.0110332 0)
(0.0157148 -0.0165048 0)
(0.0301242 -0.0206474 0)
(0.0495755 -0.0231267 0)
(0.0735168 -0.024012 0)
(0.100831 -0.0236029 0)
(0.130206 -0.0223803 0)
(0.160282 -0.0207852 0)
(0.189713 -0.0190693 0)
(0.21721 -0.0173648 0)
(0.241649 -0.0157423 0)
(0.262185 -0.0143176 0)
(0.278281 -0.0132601 0)
(0.289767 -0.0127966 0)
(0.296801 -0.0131953 0)
(0.299964 -0.0146989 0)
(0.300243 -0.0175472 0)
(0.299056 -0.0218512 0)
(0.298213 -0.0276586 0)
(0.299738 -0.0348763 0)
(0.305737 -0.0433608 0)
(0.318142 -0.0529341 0)
(0.338591 -0.0634743 0)
(0.368307 -0.0749364 0)
(0.408251 -0.0874496 0)
(0.458867 -0.101244 0)
(0.520657 -0.116791 0)
(0.593983 -0.134649 0)
(0.679359 -0.155652 0)
(0.777526 -0.180689 0)
(0.889372 -0.211117 0)
(1.0165 -0.248165 0)
(1.16033 -0.2939 0)
(1.32365 -0.350176 0)
(1.50871 -0.419631 0)
(1.71943 -0.505532 0)
(1.9592 -0.610099 0)
(2.23427 -0.738901 0)
(2.54572 -0.892868 0)
(2.90969 -1.07426 0)
(3.31367 -1.29364 0)
(3.79612 -1.51064 0)
(4.33193 -1.78647 0)
(4.95531 -1.9526 0)
(5.74908 -2.08943 0)
(6.68876 -1.90635 0)
(8.00865 -1.16509 0)
(11.0209 0.878178 0)
(-0.00019278 -0.00115231 0)
(0.00131085 -0.00570118 0)
(0.00627875 -0.0116732 0)
(0.0158092 -0.0175997 0)
(0.0303159 -0.0222382 0)
(0.0498328 -0.0251817 0)
(0.0737937 -0.0264632 0)
(0.101074 -0.0263485 0)
(0.130355 -0.0252964 0)
(0.160283 -0.0237415 0)
(0.189531 -0.0219352 0)
(0.216839 -0.0200169 0)
(0.241119 -0.0180748 0)
(0.261568 -0.0162511 0)
(0.277689 -0.014747 0)
(0.289339 -0.0138235 0)
(0.296684 -0.0137879 0)
(0.300273 -0.0149267 0)
(0.301028 -0.0175294 0)
(0.300266 -0.0217574 0)
(0.29967 -0.0277017 0)
(0.301157 -0.0352968 0)
(0.306714 -0.0444066 0)
(0.318234 -0.0548381 0)
(0.33731 -0.0664418 0)
(0.365297 -0.0791315 0)
(0.402938 -0.0930081 0)
(0.451117 -0.108273 0)
(0.510217 -0.125386 0)
(0.580607 -0.144917 0)
(0.662827 -0.167716 0)
(0.75751 -0.194715 0)
(0.865549 -0.227303 0)
(0.98818 -0.266797 0)
(1.12687 -0.315276 0)
(1.28358 -0.374766 0)
(1.46066 -0.44786 0)
(1.66086 -0.538058 0)
(1.88706 -0.647667 0)
(2.14486 -0.782074 0)
(2.43315 -0.943176 0)
(2.76878 -1.1319 0)
(3.13607 -1.36035 0)
(3.57451 -1.58909 0)
(4.05778 -1.87208 0)
(4.63752 -2.06226 0)
(5.35136 -2.21317 0)
(6.33669 -2.06434 0)
(7.6576 -1.47295 0)
(10.6892 0.287609 0)
(-0.000197199 -0.00120267 0)
(0.00130154 -0.00601168 0)
(0.00629397 -0.0123383 0)
(0.0159033 -0.0187351 0)
(0.0305065 -0.0238854 0)
(0.0500857 -0.0273043 0)
(0.0740602 -0.0289884 0)
(0.101304 -0.0291717 0)
(0.130494 -0.0282906 0)
(0.160287 -0.0267727 0)
(0.189368 -0.0248702 0)
(0.21649 -0.0227306 0)
(0.240581 -0.0204606 0)
(0.260859 -0.0182307 0)
(0.276851 -0.0162746 0)
(0.288438 -0.0148883 0)
(0.295806 -0.0144176 0)
(0.299511 -0.0151917 0)
(0.300463 -0.0175474 0)
(0.299943 -0.0216949 0)
(0.299575 -0.0277666 0)
(0.301196 -0.0357255 0)
(0.306722 -0.0454433 0)
(0.317962 -0.0567148 0)
(0.336496 -0.0693654 0)
(0.363557 -0.083273 0)
(0.400149 -0.0985017 0)
(0.446803 -0.11524 0)
(0.5041 -0.133927 0)
(0.572414 -0.15514 0)
(0.652295 -0.179742 0)
(0.744281 -0.208707 0)
(0.849282 -0.243445 0)
(0.968236 -0.285356 0)
(1.10269 -0.336518 0)
(1.25402 -0.399112 0)
(1.42459 -0.475693 0)
(1.61636 -0.569918 0)
(1.83184 -0.684237 0)
(2.07597 -0.823777 0)
(2.34679 -0.991322 0)
(2.66011 -1.18676 0)
(3.00064 -1.42316 0)
(3.40661 -1.66296 0)
(3.85202 -1.95344 0)
(4.40341 -2.16618 0)
(5.06952 -2.33627 0)
(6.07774 -2.23811 0)
(7.47131 -1.79814 0)
(10.4397 -0.399267 0)
(-0.000201302 -0.00125314 0)
(0.00129412 -0.00633336 0)
(0.00631048 -0.0130295 0)
(0.0159957 -0.0199123 0)
(0.0306942 -0.0255906 0)
(0.0503345 -0.0294964 0)
(0.0743199 -0.0315897 0)
(0.101523 -0.0320745 0)
(0.130623 -0.0313648 0)
(0.160283 -0.0298813 0)
(0.189201 -0.0278767 0)
(0.21614 -0.0255071 0)
(0.24004 -0.0228987 0)
(0.260126 -0.0202508 0)
(0.275938 -0.0178318 0)
(0.28737 -0.0159738 0)
(0.294628 -0.0150621 0)
(0.298282 -0.0154692 0)
(0.299253 -0.0175789 0)
(0.298819 -0.0216494 0)
(0.298585 -0.0278533 0)
(0.30035 -0.0361806 0)
(0.305978 -0.0465097 0)
(0.317224 -0.0586246 0)
(0.335609 -0.0723228 0)
(0.362335 -0.087451 0)
(0.398322 -0.10404 0)
(0.444175 -0.122253 0)
(0.500408 -0.142518 0)
(0.567375 -0.165419 0)
(0.645625 -0.191829 0)
(0.735625 -0.222762 0)
(0.838293 -0.259639 0)
(0.954366 -0.303948 0)
(1.08543 -0.357751 0)
(1.23244 -0.423369 0)
(1.39779 -0.503329 0)
(1.58288 -0.601393 0)
(1.79008 -0.720183 0)
(2.02358 -0.864522 0)
(2.28135 -1.03803 0)
(2.5783 -1.23981 0)
(2.89965 -1.4833 0)
(3.28166 -1.73388 0)
(3.70231 -2.03201 0)
(4.23618 -2.26731 0)
(4.88351 -2.46622 0)
(5.90417 -2.43016 0)
(7.37511 -2.14223 0)
(10.3085 -1.14223 0)
(-0.000205082 -0.00130377 0)
(0.00128863 -0.00666654 0)
(0.00632825 -0.013748 0)
(0.0160858 -0.0211326 0)
(0.0308776 -0.0273554 0)
(0.0505774 -0.0317604 0)
(0.0745716 -0.0342691 0)
(0.101734 -0.0350588 0)
(0.130742 -0.0345212 0)
(0.160268 -0.033069 0)
(0.189022 -0.0309563 0)
(0.215778 -0.0283478 0)
(0.239484 -0.0253894 0)
(0.259372 -0.0223105 0)
(0.274989 -0.0194151 0)
(0.286236 -0.0170732 0)
(0.293331 -0.0157109 0)
(0.296861 -0.0157458 0)
(0.297759 -0.0176096 0)
(0.297316 -0.0216089 0)
(0.297136 -0.0279553 0)
(0.299004 -0.0366649 0)
(0.304753 -0.0476211 0)
(0.316097 -0.0605952 0)
(0.334508 -0.0753567 0)
(0.361148 -0.0917199 0)
(0.396884 -0.109681 0)
(0.442299 -0.129382 0)
(0.497882 -0.151235 0)
(0.563952 -0.175835 0)
(0.641041 -0.20406 0)
(0.729554 -0.236964 0)
(0.830399 -0.275978 0)
(0.944169 -0.322669 0)
(1.07245 -0.379088 0)
(1.21595 -0.447673 0)
(1.37701 -0.530943 0)
(1.55673 -0.632718 0)
(1.75733 -0.75581 0)
(1.98242 -0.904766 0)
(2.23072 -1.08386 0)
(2.51454 -1.29185 0)
(2.82346 -1.54198 0)
(3.18966 -1.80338 0)
(3.59713 -2.1098 0)
(4.12035 -2.36922 0)
(4.76692 -2.60205 0)
(5.80087 -2.63955 0)
(7.33207 -2.51199 0)
(10.237 -1.90911 0)
(-0.000208545 -0.00135464 0)
(0.00128504 -0.00701148 0)
(0.00634719 -0.0144948 0)
(0.016173 -0.022397 0)
(0.0310555 -0.0291813 0)
(0.0508128 -0.0340983 0)
(0.0748134 -0.037029 0)
(0.101933 -0.0381269 0)
(0.130849 -0.0377617 0)
(0.160241 -0.0363378 0)
(0.188828 -0.0341107 0)
(0.215399 -0.0312537 0)
(0.238908 -0.0279333 0)
(0.258594 -0.0244095 0)
(0.274008 -0.0210231 0)
(0.285059 -0.0181834 0)
(0.291971 -0.0163593 0)
(0.295344 -0.0160152 0)
(0.296128 -0.0176318 0)
(0.295628 -0.0215655 0)
(0.295454 -0.0280668 0)
(0.297387 -0.0371764 0)
(0.30324 -0.0487814 0)
(0.314696 -0.0626382 0)
(0.333186 -0.0784866 0)
(0.359833 -0.0961069 0)
(0.395459 -0.115461 0)
(0.440612 -0.136668 0)
(0.495747 -0.160127 0)
(0.561155 -0.186439 0)
(0.637334 -0.216489 0)
(0.724642 -0.251372 0)
(0.823957 -0.292523 0)
(0.935771 -0.341589 0)
(1.06165 -0.400609 0)
(1.20211 -0.472122 0)
(1.35946 -0.558657 0)
(1.53454 -0.664065 0)
(1.72964 -0.791335 0)
(1.94767 -0.944829 0)
(2.18838 -1.12928 0)
(2.46204 -1.34344 0)
(2.76183 -1.60015 0)
(3.11575 -1.87249 0)
(3.51613 -2.18886 0)
(4.03428 -2.47429 0)
(4.68814 -2.73991 0)
(5.7338 -2.86518 0)
(7.3012 -2.90603 0)
(10.1732 -2.69242 0)
(-0.00021167 -0.00140585 0)
(0.00128328 -0.00736846 0)
(0.00636712 -0.015271 0)
(0.0162568 -0.0237069 0)
(0.0312266 -0.0310698 0)
(0.0510391 -0.0365123 0)
(0.0750433 -0.0398718 0)
(0.102118 -0.0412809 0)
(0.130942 -0.0410884 0)
(0.160198 -0.0396895 0)
(0.188618 -0.0373411 0)
(0.215001 -0.0342257 0)
(0.238309 -0.0305308 0)
(0.257788 -0.0265476 0)
(0.272993 -0.022655 0)
(0.283839 -0.019303 0)
(0.290558 -0.0170047 0)
(0.293761 -0.0162736 0)
(0.294411 -0.0176413 0)
(0.29383 -0.021515 0)
(0.293634 -0.028184 0)
(0.295605 -0.037713 0)
(0.301541 -0.049991 0)
(0.313098 -0.0647572 0)
(0.331671 -0.0817201 0)
(0.358344 -0.100624 0)
(0.393897 -0.121395 0)
(0.438844 -0.144131 0)
(0.493605 -0.169216 0)
(0.558438 -0.197257 0)
(0.633806 -0.229146 0)
(0.720024 -0.266015 0)
(0.817928 -0.30931 0)
(0.927937 -0.360745 0)
(1.05155 -0.422358 0)
(1.18919 -0.49677 0)
(1.34309 -0.586537 0)
(1.51389 -0.695524 0)
(1.70399 -0.826891 0)
(1.91567 -0.984877 0)
(2.14978 -1.17453 0)
(2.41464 -1.39496 0)
(2.70727 -1.65812 0)
(3.05145 -1.94211 0)
(3.44775 -2.26902 0)
(3.96257 -2.58148 0)
(4.62529 -2.89086 0)
(5.67912 -3.10674 0)
(7.25987 -3.31758 0)
(10.0658 -3.47341 0)
(-0.000214469 -0.00145751 0)
(0.00128327 -0.00773773 0)
(0.00638788 -0.0160776 0)
(0.0163367 -0.0250636 0)
(0.03139 -0.0330222 0)
(0.0512548 -0.0390046 0)
(0.0752594 -0.0427997 0)
(0.102287 -0.044523 0)
(0.131017 -0.0445034 0)
(0.160137 -0.0431259 0)
(0.188388 -0.040649 0)
(0.21458 -0.0372648 0)
(0.237685 -0.0331823 0)
(0.256951 -0.0287246 0)
(0.271943 -0.0243098 0)
(0.282576 -0.0204303 0)
(0.289094 -0.017645 0)
(0.292116 -0.0165186 0)
(0.292621 -0.0176353 0)
(0.291944 -0.0214544 0)
(0.291711 -0.0283044 0)
(0.293703 -0.038273 0)
(0.299703 -0.0512493 0)
(0.311343 -0.0669533 0)
(0.329984 -0.0850599 0)
(0.356671 -0.105276 0)
(0.392147 -0.127491 0)
(0.436887 -0.15178 0)
(0.491275 -0.178511 0)
(0.55554 -0.208299 0)
(0.630105 -0.242042 0)
(0.715246 -0.280907 0)
(0.811745 -0.32635 0)
(0.919966 -0.380149 0)
(1.04133 -0.444347 0)
(1.17618 -0.521632 0)
(1.32666 -0.6146 0)
(1.49325 -0.727123 0)
(1.67847 -0.862519 0)
(1.88403 -1.02497 0)
(2.11185 -1.21974 0)
(2.36844 -1.44652 0)
(2.65451 -1.71637 0)
(2.98992 -2.01208 0)
(3.3827 -2.35174 0)
(3.89398 -2.69382 0)
(4.56284 -3.04403 0)
(5.61613 -3.35919 0)
(7.18901 -3.74301 0)
(9.89047 -4.24646 0)
(-0.000216933 -0.00150975 0)
(0.00128487 -0.00811956 0)
(0.00640923 -0.0169158 0)
(0.0164121 -0.0264684 0)
(0.0315443 -0.0350401 0)
(0.0514584 -0.0415771 0)
(0.0754596 -0.0458151 0)
(0.102437 -0.0478556 0)
(0.131072 -0.0480087 0)
(0.160055 -0.0466489 0)
(0.188136 -0.0440359 0)
(0.214135 -0.0403719 0)
(0.237032 -0.035888 0)
(0.256083 -0.0309401 0)
(0.270855 -0.0259867 0)
(0.281271 -0.0215638 0)
(0.28758 -0.0182782 0)
(0.290413 -0.0167479 0)
(0.290764 -0.0176114 0)
(0.28998 -0.0213815 0)
(0.289697 -0.0284261 0)
(0.291694 -0.038855 0)
(0.297742 -0.0525556 0)
(0.309446 -0.0692266 0)
(0.328135 -0.0885068 0)
(0.354815 -0.110065 0)
(0.390187 -0.133751 0)
(0.434695 -0.159617 0)
(0.488682 -0.188015 0)
(0.552348 -0.219566 0)
(0.62607 -0.255175 0)
(0.710091 -0.296043 0)
(0.80513 -0.343638 0)
(0.911506 -0.399794 0)
(1.03055 -0.466566 0)
(1.16253 -0.546696 0)
(1.3095 -0.64283 0)
(1.47178 -0.758845 0)
(1.65203 -0.898203 0)
(1.85141 -1.06511 0)
(2.07281 -1.26491 0)
(2.32117 -1.49815 0)
(2.60045 -1.77485 0)
(2.92702 -2.08284 0)
(3.31513 -2.43636 0)
(3.8218 -2.80901 0)
(4.49126 -3.208 0)
(5.53123 -3.62211 0)
(7.07482 -4.17354 0)
(9.63647 -4.99852 0)
(-0.00021909 -0.0015627 0)
(0.00128794 -0.00851419 0)
(0.00643098 -0.0177864 0)
(0.0164826 -0.0279226 0)
(0.0316885 -0.0371248 0)
(0.0516482 -0.0442316 0)
(0.0756421 -0.0489204 0)
(0.102566 -0.0512807 0)
(0.131104 -0.0516066 0)
(0.159948 -0.0502605 0)
(0.187858 -0.0475033 0)
(0.213662 -0.0435481 0)
(0.23635 -0.0386484 0)
(0.255181 -0.033194 0)
(0.26973 -0.0276847 0)
(0.279923 -0.022702 0)
(0.286018 -0.0189022 0)
(0.288655 -0.016959 0)
(0.288843 -0.017567 0)
(0.287943 -0.0212939 0)
(0.287597 -0.0285471 0)
(0.289586 -0.0394576 0)
(0.295664 -0.053909 0)
(0.307413 -0.0715765 0)
(0.326126 -0.0920607 0)
(0.35277 -0.114989 0)
(0.388009 -0.140172 0)
(0.432248 -0.167639 0)
(0.485791 -0.197724 0)
(0.548806 -0.231053 0)
(0.621627 -0.26854 0)
(0.704458 -0.311414 0)
(0.797953 -0.36116 0)
(0.902389 -0.41966 0)
(1.01898 -0.488988 0)
(1.14797 -0.571928 0)
(1.29127 -0.671186 0)
(1.44908 -0.790641 0)
(1.62411 -0.933887 0)
(1.81711 -1.1052 0)
(2.03174 -1.30997 0)
(2.27162 -1.54974 0)
(2.54336 -1.83351 0)
(2.86049 -2.15412 0)
(3.24228 -2.52269 0)
(3.73996 -2.92696 0)
(4.40379 -3.3797 0)
(5.41948 -3.89039 0)
(6.91096 -4.603 0)
(9.30207 -5.71831 0)
(-0.000220941 -0.00161651 0)
(0.00129226 -0.00892188 0)
(0.00645285 -0.0186906 0)
(0.0165478 -0.0294275 0)
(0.0318214 -0.0392777 0)
(0.0518227 -0.0469699 0)
(0.075805 -0.0521179 0)
(0.102671 -0.0548008 0)
(0.131109 -0.055299 0)
(0.159814 -0.0539625 0)
(0.187551 -0.0510529 0)
(0.213159 -0.0467943 0)
(0.235635 -0.0414639 0)
(0.254245 -0.035486 0)
(0.268567 -0.029403 0)
(0.278532 -0.0238434 0)
(0.284408 -0.0195151 0)
(0.286844 -0.0171495 0)
(0.286861 -0.0174996 0)
(0.285836 -0.0211892 0)
(0.285417 -0.0286654 0)
(0.287382 -0.040079 0)
(0.293473 -0.0553083 0)
(0.305244 -0.0740021 0)
(0.323955 -0.0957205 0)
(0.350533 -0.120048 0)
(0.385601 -0.146755 0)
(0.429529 -0.175843 0)
(0.482577 -0.207633 0)
(0.544885 -0.242753 0)
(0.616733 -0.282125 0)
(0.698295 -0.327006 0)
(0.790146 -0.378898 0)
(0.892527 -0.439722 0)
(1.00654 -0.51158 0)
(1.13236 -0.597288 0)
(1.27179 -0.699614 0)
(1.42491 -0.822443 0)
(1.59446 -0.969493 0)
(1.78077 -1.14515 0)
(1.98817 -1.35483 0)
(2.21915 -1.60111 0)
(2.48241 -1.89221 0)
(2.78904 -2.22547 0)
(3.16202 -2.61068 0)
(3.64716 -3.04752 0)
(4.29808 -3.55038 0)
(5.27577 -4.15923 0)
(6.6941 -5.02517 0)
(8.88999 -6.39596 0)