/*--------------------------------*- C++ -*----------------------------------*\
  =========                 |
  \\      /  F ield         | OpenFOAM: The Open Source CFD Toolbox
   \\    /   O peration     | Website:  https://openfoam.org
    \\  /    A nd           | Version:  7
     \\/     M anipulation  |
\*---------------------------------------------------------------------------*/
FoamFile
{
    version     2.0;
    format      ascii;
    class       volScalarField;
    location    "0.47";
    object      p;
}
// * * * * * * * * * * * * * * * * * * * * * * * * * * * * * * * * * * * * * //

dimensions      [0 2 -2 0 0 0 0];

internalField   nonuniform List<scalar> 
70000
(
0.0947955
0.0173343
0.0048007
0.00722654
0.00737118
0.00628341
0.0053084
0.00455861
0.0039239
0.00335667
0.00284355
0.00237637
0.00194729
0.0015494
0.001177
0.000825392
0.000490718
0.000169703
-0.000140447
-0.000442219
-0.000737826
-0.00102933
-0.00131864
-0.00160763
-0.00189811
-0.00219194
-0.00249102
-0.00279743
-0.00311334
-0.00344132
-0.00378411
-0.00414507
-0.00452791
-0.00493731
-0.00537846
-0.00585803
-0.00638374
-0.00696486
-0.00761372
-0.00834233
-0.00917183
-0.0101155
-0.0112113
-0.0124683
-0.0139583
-0.0156606
-0.0177491
-0.0199834
-0.0231309
-0.0254481
0.0904276
0.0177012
0.00500371
0.00732217
0.00742577
0.00631946
0.00533659
0.00458188
0.00394341
0.00337335
0.00285807
0.00238919
0.00195874
0.00155973
0.00118639
0.000833986
0.000498632
0.00017703
-0.000133632
-0.000435854
-0.00073186
-0.00102372
-0.00131335
-0.00160263
-0.00189337
-0.00218744
-0.00248674
-0.00279334
-0.00310945
-0.0034376
-0.00378055
-0.00414167
-0.00452466
-0.00493421
-0.00537551
-0.00585522
-0.00638109
-0.00696237
-0.00761141
-0.00834021
-0.00916997
-0.0101139
-0.01121
-0.0124678
-0.0139585
-0.015662
-0.017752
-0.0199903
-0.0231348
-0.0254815
0.0868471
0.0186413
0.0053441
0.00745128
0.00750005
0.00636423
0.00536894
0.00460808
0.00396523
0.0033918
0.00287399
0.00240316
0.00197117
0.0015709
0.00119652
0.000843245
0.00050715
0.00018491
-0.000126305
-0.000429011
-0.000725442
-0.00101767
-0.00130764
-0.00159722
-0.00188823
-0.00218254
-0.00248206
-0.00278886
-0.00310514
-0.00343344
-0.00377654
-0.00413779
-0.00452088
-0.00493051
-0.00537188
-0.00585165
-0.00637754
-0.00695882
-0.00760785
-0.0083366
-0.00916631
-0.0101102
-0.0112062
-0.0124637
-0.0139545
-0.0156582
-0.0177484
-0.0199907
-0.0231117
-0.025564
0.0837531
0.0197432
0.00581373
0.00762535
0.00760104
0.00642187
0.0054072
0.00463809
0.00398989
0.00341236
0.00289147
0.00241834
0.00198457
0.00158288
0.00120733
0.000853086
0.000516175
0.000193241
-0.000118571
-0.000421793
-0.000718674
-0.0010113
-0.00130162
-0.0015915
-0.00188278
-0.00217733
-0.00247705
-0.00278403
-0.00310047
-0.0034289
-0.00377209
-0.00413341
-0.00451654
-0.00492618
-0.00536751
-0.00584718
-0.00637292
-0.00695398
-0.0076027
-0.00833102
-0.00916019
-0.0101033
-0.0111985
-0.0124548
-0.013944
-0.0156468
-0.0177335
-0.0199818
-0.0230649
-0.0256919
0.0807939
0.0208399
0.0063798
0.00784604
0.00773568
0.00649988
0.00545633
0.00467531
0.00402005
0.00343713
0.00291221
0.0024361
0.00200006
0.00159659
0.00121961
0.000864192
0.000526305
0.00020255
-0.000109959
-0.000413778
-0.000711173
-0.00100425
-0.00129495
-0.00158516
-0.00187673
-0.00217152
-0.00247146
-0.00277861
-0.00309518
-0.00342371
-0.00376696
-0.00412828
-0.00451137
-0.00492091
-0.00536206
-0.00584147
-0.00636684
-0.00694737
-0.0075954
-0.00832281
-0.00915076
-0.0100924
-0.0111855
-0.0124399
-0.0139248
-0.0156248
-0.0177035
-0.0199581
-0.0229951
-0.0258344
0.0778851
0.021879
0.0069952
0.00809324
0.00789812
0.00659985
0.00551897
0.00472194
0.00405765
0.00346785
0.00293769
0.00245771
0.00201875
0.001613
0.0012342
0.000877301
0.000538192
0.000213419
-9.99476e-05
-0.000404493
-0.000702509
-0.000996111
-0.00128726
-0.00157787
-0.00186976
-0.00216483
-0.00246498
-0.0027723
-0.00308899
-0.00341759
-0.00376084
-0.00412211
-0.00450507
-0.00491437
-0.00535518
-0.0058341
-0.00635882
-0.00693847
-0.00758533
-0.0083112
-0.0091371
-0.0100762
-0.0111657
-0.012416
-0.0138943
-0.0155885
-0.0176539
-0.0199127
-0.0228998
-0.0259643
0.0750205
0.0228418
0.00762621
0.00834536
0.0080751
0.00671712
0.00559401
0.00477789
0.00410308
0.00350516
0.00296867
0.00248394
0.00204138
0.00163281
0.00125176
0.00089302
0.000552396
0.000226362
-8.80625e-05
-0.000393501
-0.000692274
-0.000986519
-0.00127822
-0.00156928
-0.00186155
-0.00215693
-0.00245733
-0.00276482
-0.00308162
-0.00341025
-0.00375346
-0.00411459
-0.0044973
-0.00490622
-0.0053465
-0.00582467
-0.0063484
-0.00692671
-0.00757182
-0.00829539
-0.00911822
-0.0100534
-0.0111375
-0.0123814
-0.0138498
-0.0155342
-0.0175799
-0.0198385
-0.0227734
-0.026051
0.0722064
0.0237202
0.00825689
0.00859057
0.00825575
0.00684521
0.00567804
0.00484108
0.00415511
0.00354847
0.00300494
0.00251482
0.00206813
0.0016563
0.00127259
0.00091169
0.00056927
0.000241735
-7.39527e-05
-0.000380459
-0.000680138
-0.00097515
-0.0012675
-0.0015591
-0.00185182
-0.00214755
-0.00244821
-0.00275589
-0.00307278
-0.0034014
-0.00374451
-0.0041054
-0.00448774
-0.00489611
-0.00533562
-0.00581275
-0.00633508
-0.00691154
-0.00755422
-0.00827458
-0.00909314
-0.0100229
-0.0110993
-0.012334
-0.0137886
-0.0154584
-0.0174768
-0.0197282
-0.0226088
-0.0260628
0.0694484
0.0245114
0.00888209
0.00882487
0.00843397
0.00697926
0.00576775
0.00490893
0.00421174
0.00359631
0.00304549
0.00254968
0.00209856
0.00168319
0.00129659
0.000933286
0.000588858
0.000259633
-5.74865e-05
-0.00036521
-0.000665923
-0.000961813
-0.0012549
-0.00154712
-0.00184034
-0.00213647
-0.00243742
-0.00274528
-0.00306225
-0.00339082
-0.00373375
-0.0040943
-0.00447612
-0.00488374
-0.00532223
-0.00579795
-0.00631845
-0.00689246
-0.00753192
-0.00824806
-0.00906097
-0.00998343
-0.0110498
-0.012272
-0.0137084
-0.0153579
-0.0173407
-0.0195754
-0.0223976
-0.0259726
0.0667512
0.0252151
0.00950061
0.0090479
0.00860682
0.00711651
0.00586104
0.00497945
0.00427113
0.00364713
0.00308905
0.00258748
0.00213185
0.00171284
0.00132325
0.00095743
0.000610884
0.00027986
-3.8794e-05
-0.000347829
-0.000649664
-0.000946509
-0.0012404
-0.00153329
-0.00182705
-0.0021236
-0.00242485
-0.00273288
-0.00304989
-0.00337836
-0.00372102
-0.00408111
-0.00446225
-0.00486889
-0.00530607
-0.00578001
-0.00629818
-0.00686909
-0.00750448
-0.00821529
-0.00902103
-0.00993429
-0.0109879
-0.012194
-0.0136072
-0.0152296
-0.0171688
-0.0193746
-0.0221316
-0.0257595
0.0641181
0.0258318
0.0101117
0.0092605
0.00877287
0.00725553
0.00595691
0.00505155
0.00433209
0.00369979
0.00313455
0.00262726
0.00216714
0.00174451
0.0013519
0.000983561
0.00063487
0.000302015
-1.82093e-05
-0.000328594
-0.000631586
-0.000929419
-0.00122414
-0.00151772
-0.00181204
-0.002109
-0.00241054
-0.00271871
-0.00303571
-0.003364
-0.00370629
-0.00406579
-0.00444606
-0.00485148
-0.00528704
-0.0057588
-0.00627412
-0.00684124
-0.00747166
-0.00817596
-0.00897295
-0.00987495
-0.0109129
-0.0120993
-0.0134841
-0.015073
-0.0169594
-0.0191222
-0.021803
-0.0254085
0.061552
0.0263618
0.010714
0.00946373
0.00893123
0.00739541
0.00605498
0.00512475
0.00439401
0.00375362
0.00318133
0.00266835
0.00220377
0.00177755
0.00138198
0.00101113
0.000660315
0.000325642
3.85534e-06
-0.000307873
-0.000612019
-0.000910835
-0.00120639
-0.00150065
-0.0017955
-0.00209286
-0.00239464
-0.00270291
-0.00301983
-0.00334785
-0.00368966
-0.0040484
-0.00442761
-0.00483157
-0.00526518
-0.00573435
-0.00624627
-0.00680892
-0.00743345
-0.00813006
-0.00891668
-0.00980536
-0.0108248
-0.0119878
-0.0133391
-0.0148873
-0.0167127
-0.0188169
-0.0214064
-0.024914
0.0590555
0.0268057
0.0113054
0.00965877
0.00908122
0.00753538
0.0061551
0.00519891
0.00445659
0.00380829
0.00322904
0.00271038
0.00224135
0.00181158
0.00141306
0.00103974
0.00068682
0.000350354
2.70305e-05
-0.000286017
-0.000591294
-0.00089107
-0.00118742
-0.00148233
-0.00177769
-0.0020754
-0.00237738
-0.00268567
-0.00300244
-0.00333009
-0.00367129
-0.00402912
-0.00440707
-0.00480931
-0.00524066
-0.00570681
-0.00621481
-0.0067723
-0.00739003
-0.0080778
-0.00885251
-0.00972585
-0.010724
-0.0118599
-0.0131729
-0.0146737
-0.01643
-0.0184599
-0.0209392
-0.02428
0.0566311
0.0271642
0.0118834
0.00984701
0.00922229
0.00767462
0.00625718
0.00527398
0.00451971
0.00386367
0.00327754
0.00275318
0.00227969
0.00184636
0.00144491
0.00106913
0.000714129
0.00037589
5.10517e-05
-0.000263291
-0.000569672
-0.000870379
-0.0011675
-0.00146303
-0.00175885
-0.00205686
-0.00235898
-0.00266723
-0.00298375
-0.00331094
-0.00365139
-0.00400815
-0.00438464
-0.00478492
-0.00521368
-0.00567643
-0.00617998
-0.00673167
-0.00734175
-0.00801959
-0.00878091
-0.00963704
-0.0106114
-0.0117169
-0.0129871
-0.0144343
-0.0161141
-0.0180545
-0.0204029
-0.023518
0.0542811
0.0274387
0.0124454
0.0100299
0.00935408
0.00781221
0.00636106
0.00534999
0.00458327
0.00391965
0.00332675
0.00279669
0.00231871
0.0018818
0.00147742
0.00109918
0.000742105
0.000402103
7.57625e-05
-0.000239859
-0.000547323
-0.000848935
-0.0011468
-0.0014429
-0.00173914
-0.00203741
-0.00233961
-0.00264776
-0.00296395
-0.00329056
-0.00363015
-0.0039857
-0.00436053
-0.0047586
-0.00518448
-0.00564345
-0.00614208
-0.00668735
-0.00728899
-0.00795589
-0.0087025
-0.00953967
-0.010488
-0.01156
-0.0127837
-0.0141715
-0.0157684
-0.0176051
-0.0198018
-0.0226444
0.0520076
0.0276308
0.0129879
0.0102091
0.00947635
0.00794721
0.00646653
0.00542695
0.0046472
0.00397617
0.00337664
0.00284086
0.00235835
0.00191787
0.00151054
0.00112984
0.000770687
0.000428923
0.000101086
-0.000215804
-0.000524336
-0.000826836
-0.00112542
-0.00142207
-0.0017187
-0.00201718
-0.00231941
-0.00262737
-0.00294317
-0.00326911
-0.00360771
-0.00396189
-0.00433489
-0.00473053
-0.00515324
-0.00560807
-0.00610132
-0.00663962
-0.00723208
-0.00788711
-0.00861782
-0.00943447
-0.0103548
-0.0113907
-0.0125645
-0.0138881
-0.0153961
-0.0171169
-0.0191426
-0.0216778
0.0498123
0.0277426
0.0135081
0.010386
0.00958905
0.00807861
0.00657332
0.0055049
0.00471146
0.00403315
0.00342716
0.00288568
0.00239863
0.00195453
0.00154426
0.00116109
0.000799854
0.000456326
0.000126994
-0.000191159
-0.000500751
-0.000804123
-0.0011034
-0.00140058
-0.00169756
-0.00199621
-0.00229842
-0.00260615
-0.00292146
-0.00324664
-0.00358415
-0.00393681
-0.00430781
-0.0047008
-0.00512007
-0.00557044
-0.00605789
-0.00658869
-0.00717128
-0.0078136
-0.00852731
-0.00932204
-0.0102127
-0.01121
-0.0123313
-0.0135864
-0.0150004
-0.0165948
-0.018433
-0.0206372
0.0476965
0.0277766
0.0140029
0.0105616
0.00969228
0.00820542
0.00668108
0.00558383
0.00477598
0.00409051
0.00347829
0.00293113
0.00243951
0.0019918
0.00157857
0.00119293
0.000829602
0.000484307
0.000153481
-0.000165932
-0.000476574
-0.000780806
-0.00108077
-0.00137845
-0.00167575
-0.00197453
-0.00227667
-0.0025841
-0.00289887
-0.00322319
-0.00355949
-0.00391051
-0.00427933
-0.00466947
-0.00508503
-0.00553062
-0.00601185
-0.00653465
-0.00710674
-0.00773555
-0.00843129
-0.00920279
-0.0100622
-0.0110189
-0.0120853
-0.0132683
-0.0145837
-0.0160431
-0.0176806
-0.0195406
0.0456608
0.0277356
0.0144693
0.010737
0.00978632
0.00832666
0.00678935
0.00566377
0.00484071
0.00414815
0.00352995
0.0029772
0.00248098
0.00202965
0.00161347
0.00122535
0.000859933
0.00051287
0.000180551
-0.000140116
-0.000451801
-0.00075688
-0.0010575
-0.00135566
-0.00165325
-0.00195213
-0.00225415
-0.00256123
-0.00287536
-0.00319874
-0.00353372
-0.00388296
-0.00424943
-0.00463651
-0.00504812
-0.0054886
-0.00596322
-0.00647753
-0.00703853
-0.00765305
-0.0083299
-0.00907698
-0.00990382
-0.0108179
-0.0118273
-0.0129352
-0.0141482
-0.0154658
-0.0168926
-0.0184034
0.0437058
0.0276232
0.0149047
0.0109126
0.00987162
0.00844142
0.00689762
0.00574468
0.00490563
0.00420598
0.0035821
0.00302386
0.00252305
0.00206808
0.00164895
0.00125836
0.00089085
0.000542021
0.000208213
-0.000113703
-0.00042642
-0.000732332
-0.00103359
-0.00133221
-0.00163006
-0.00192899
-0.00223084
-0.0025375
-0.00285094
-0.00317328
-0.00350682
-0.00385414
-0.00421809
-0.0046019
-0.00500929
-0.00544435
-0.00591197
-0.0064173
-0.00696661
-0.00756611
-0.0082232
-0.00894471
-0.00973768
-0.0106076
-0.0115581
-0.0125882
-0.0136954
-0.014866
-0.0160757
-0.017239
0.0418315
0.0274433
0.0153064
0.0110887
0.00994879
0.00854889
0.00700528
0.00582652
0.00497071
0.00426391
0.00363466
0.00307108
0.00256568
0.00210707
0.001685
0.00129195
0.000922357
0.000571767
0.000236475
-8.66794e-05
-0.000400417
-0.000707145
-0.00100903
-0.00130806
-0.00160614
-0.00190509
-0.00220671
-0.00251289
-0.00282555
-0.00314676
-0.00347875
-0.003824
-0.00418525
-0.00456558
-0.00496848
-0.0053978
-0.00585803
-0.0063539
-0.00689093
-0.00747468
-0.00811116
-0.00880603
-0.00956394
-0.0103881
-0.011278
-0.0122281
-0.0132267
-0.0142468
-0.0152361
-0.0160593
0.0400373
0.0272004
0.0156718
0.0112652
0.0100186
0.00864838
0.00711161
0.00590917
0.00503594
0.00432184
0.00368755
0.00311881
0.00260885
0.00214662
0.00172162
0.00132612
0.000954455
0.000602112
0.000265346
-5.90351e-05
-0.000373777
-0.000681303
-0.000983781
-0.00128321
-0.00158148
-0.00188039
-0.00218174
-0.00248737
-0.00279916
-0.00311913
-0.00344945
-0.00379248
-0.00415086
-0.00452748
-0.00492563
-0.00534888
-0.00580131
-0.00628723
-0.00681142
-0.00737869
-0.00799374
-0.00866094
-0.00938265
-0.0101596
-0.0109874
-0.0118556
-0.0127435
-0.0136108
-0.0143798
-0.0148748
0.0383224
0.026899
0.0159988
0.0114414
0.0100818
0.00873936
0.00721586
0.00599249
0.00510132
0.00437967
0.00374066
0.00316701
0.00265256
0.0021867
0.00175879
0.00136087
0.000987145
0.000633062
0.000294835
-3.07584e-05
-0.000346488
-0.000654788
-0.000957836
-0.00125763
-0.00155604
-0.00185487
-0.00215589
-0.00246089
-0.00277173
-0.00309036
-0.00341887
-0.00375954
-0.00411484
-0.00448753
-0.00488065
-0.00529749
-0.00574173
-0.00621721
-0.00672798
-0.00727807
-0.00787089
-0.00850943
-0.00919387
-0.00992244
-0.0106867
-0.0114714
-0.0122471
-0.0129612
-0.0135125
-0.0136952
0.0366857
0.0265443
0.0162853
0.0116166
0.0101394
0.00882146
0.0073172
0.00607623
0.00516684
0.00443732
0.00379391
0.00321563
0.00269676
0.0022273
0.00179651
0.00139619
0.00102043
0.00066462
0.000324949
-1.83838e-06
-0.000318533
-0.000627584
-0.000931171
-0.00123129
-0.0015298
-0.0018285
-0.00212911
-0.00243342
-0.00274322
-0.0030604
-0.00338697
-0.0037251
-0.00407715
-0.00444567
-0.00483347
-0.00524357
-0.00567921
-0.00614376
-0.00664053
-0.00717274
-0.00774256
-0.00835152
-0.0089977
-0.00967673
-0.0103764
-0.0110765
-0.0117394
-0.0123008
-0.0126401
-0.0125294
0.0351255
0.0261416
0.0165298
0.0117895
0.0101923
0.00889452
0.00741478
0.00616011
0.0052325
0.00449472
0.00384718
0.0032646
0.00274143
0.00226839
0.00183475
0.00143206
0.0010543
0.000696788
0.000355695
2.77353e-05
-0.000289901
-0.000599673
-0.000903766
-0.00120417
-0.00150274
-0.00180124
-0.00210139
-0.00240492
-0.00271358
-0.00302919
-0.00335369
-0.00368912
-0.0040377
-0.00440182
-0.00478402
-0.00518703
-0.00561366
-0.00606679
-0.006549
-0.00706267
-0.00760874
-0.00818724
-0.00879426
-0.0094228
-0.010057
-0.0106718
-0.011222
-0.011633
-0.0117682
-0.0113855
0.03364
0.0256963
0.0167309
0.0119583
0.0102415
0.00895855
0.00750774
0.00624374
0.00529829
0.0045518
0.00390036
0.00331384
0.00278653
0.00230996
0.0018735
0.00146849
0.00108875
0.000729569
0.000387078
5.79724e-05
-0.000260576
-0.000571038
-0.000875601
-0.00117625
-0.00147483
-0.00177308
-0.00207269
-0.00237535
-0.00268276
-0.00299669
-0.00331897
-0.00365153
-0.00399645
-0.00435591
-0.00473222
-0.00512779
-0.00554501
-0.00598624
-0.00645333
-0.00694781
-0.00746942
-0.0080167
-0.00858376
-0.00916103
-0.00972921
-0.0102586
-0.010697
-0.0109612
-0.0109025
-0.0102712
0.032227
0.0252141
0.0168879
0.0121211
0.010288
0.00901374
0.00759527
0.00632665
0.00536417
0.00460851
0.00395333
0.00336326
0.00283201
0.00235197
0.00191273
0.00150545
0.00112378
0.000762961
0.000419102
8.88815e-05
-0.000230548
-0.000541664
-0.000846655
-0.0011475
-0.00144603
-0.00174396
-0.00204296
-0.00234467
-0.00265074
-0.00296285
-0.00328276
-0.00361227
-0.00395331
-0.00430787
-0.004678
-0.00506579
-0.00547319
-0.00590204
-0.00635349
-0.00682815
-0.00732465
-0.00784
-0.00836645
-0.0088919
-0.00939377
-0.00983811
-0.0101667
-0.0102891
-0.0100483
-0.00919326
0.0308841
0.0247006
0.0170004
0.0122758
0.0103324
0.00906049
0.0076766
0.0064083
0.00543005
0.00466483
0.00400596
0.00341277
0.00287783
0.0023944
0.00195243
0.00154292
0.00115938
0.000796962
0.000451772
0.000120471
-0.000199802
-0.000511532
-0.000816908
-0.0011179
-0.00141632
-0.00171387
-0.00201218
-0.00231284
-0.00261745
-0.00292762
-0.003245
-0.00357129
-0.00390824
-0.00425764
-0.00462129
-0.00500095
-0.00539813
-0.00581414
-0.00624944
-0.00670373
-0.00717451
-0.00765734
-0.00814265
-0.00861595
-0.00905164
-0.0094119
-0.00963336
-0.00962037
-0.00921085
-0.00815788
0.0296085
0.0241614
0.0170684
0.0124197
0.0103754
0.00909935
0.00775108
0.00648809
0.00549583
0.0047207
0.00405816
0.00346225
0.00292392
0.00243721
0.00199256
0.0015809
0.00119553
0.000831569
0.000485088
0.000152746
-0.000168329
-0.000480629
-0.000786341
-0.00108743
-0.00138568
-0.00168277
-0.0019803
-0.00227982
-0.00258286
-0.00289096
-0.00320565
-0.00352853
-0.00386117
-0.00420517
-0.00456204
-0.00493322
-0.0053198
-0.00572253
-0.00614118
-0.00657457
-0.00701912
-0.00746894
-0.00791276
-0.00833385
-0.00870387
-0.00898161
-0.0090996
-0.00895865
-0.00839519
-0.00717037
0.0283976
0.0236019
0.0170927
0.0125503
0.0104175
0.00913099
0.00781818
0.00656535
0.00556131
0.00477612
0.00410983
0.00351158
0.0029702
0.00248036
0.0020331
0.00161935
0.00123223
0.000866773
0.000519051
0.000185714
-0.000136118
-0.00044894
-0.000754935
-0.00105605
-0.00135407
-0.00165063
-0.0019473
-0.00224557
-0.00254692
-0.0028528
-0.00316466
-0.00348393
-0.00381204
-0.00415038
-0.00450018
-0.00486255
-0.00523815
-0.00562717
-0.00602873
-0.00644075
-0.00685863
-0.00727508
-0.00767725
-0.00804635
-0.00835161
-0.00854901
-0.00856802
-0.00830757
-0.00760591
-0.00623544
0.0272483
0.023027
0.0170743
0.0126654
0.0104586
0.00915615
0.00787754
0.00663939
0.00562625
0.00483105
0.00416086
0.00356064
0.0030166
0.0025238
0.00207402
0.00165824
0.00126944
0.000902567
0.000553659
0.000219378
-0.000103159
-0.000416449
-0.00072267
-0.00102376
-0.00132147
-0.00161742
-0.00191313
-0.00221005
-0.00250959
-0.00281311
-0.00312196
-0.00343744
-0.00376081
-0.00409323
-0.00443568
-0.0047889
-0.00515316
-0.00552809
-0.00591214
-0.0063024
-0.00669325
-0.00707612
-0.00743668
-0.00775429
-0.00799614
-0.00811595
-0.0080413
-0.00767081
-0.0068471
-0.00535678
0.0261576
0.0224417
0.017015
0.0127627
0.0104984
0.00917559
0.00792895
0.0067095
0.00569034
0.00488545
0.00421118
0.0036093
0.00306301
0.00256749
0.00211528
0.00169756
0.00130717
0.000938939
0.000588908
0.00025374
-6.9446e-05
-0.000383146
-0.00068953
-0.000990523
-0.00128785
-0.00158311
-0.00187777
-0.00217323
-0.00247083
-0.00277185
-0.00307752
-0.00338902
-0.00370742
-0.00403367
-0.00436848
-0.00471226
-0.00506482
-0.0054253
-0.00579149
-0.00615965
-0.00652324
-0.00687246
-0.00719167
-0.0074586
-0.00763882
-0.00768441
-0.00752205
-0.00705178
-0.00612268
-0.00453743
0.0251225
0.02185
0.0169168
0.0128405
0.0105362
0.00919004
0.00797239
0.00677501
0.00575317
0.00493926
0.00426074
0.00365743
0.00310933
0.00261135
0.00215684
0.00173727
0.00134537
0.000975874
0.000624792
0.000288801
-3.49713e-05
-0.000349017
-0.000655498
-0.000956321
-0.00125319
-0.00154766
-0.00184117
-0.00213506
-0.00243059
-0.00272896
-0.00303129
-0.00333861
-0.00365182
-0.00397166
-0.00429856
-0.00463259
-0.00497315
-0.00531885
-0.00566687
-0.0060127
-0.00634889
-0.00666457
-0.00694291
-0.0071603
-0.0072811
-0.0072564
-0.00701297
-0.0064537
-0.00543594
-0.00377967
0.0241399
0.0212559
0.0167824
0.0128971
0.0105712
0.00920015
0.008008
0.00683529
0.00581429
0.00499237
0.00430946
0.00370492
0.00315544
0.00265532
0.00219866
0.00177733
0.00138403
0.00101335
0.000661302
0.00032456
2.69293e-07
-0.000314053
-0.000620559
-0.000921135
-0.00121746
-0.00151105
-0.00180331
-0.0020955
-0.00238883
-0.00268441
-0.00298323
-0.00328618
-0.00359399
-0.00390718
-0.00422591
-0.0045499
-0.00487818
-0.00520882
-0.00553843
-0.00586176
-0.00617056
-0.00645297
-0.00669118
-0.00686048
-0.00692448
-0.00683393
-0.00651691
-0.00587961
-0.00478954
-0.00308508
0.0232068
0.0206628
0.0166145
0.0129314
0.010602
0.00920646
0.00803606
0.0068898
0.00587321
0.00504464
0.00435731
0.00375165
0.00320121
0.00269931
0.00224069
0.00181772
0.0014231
0.00105136
0.000698427
0.000361013
3.62786e-05
-0.000278246
-0.000584698
-0.000884946
-0.00118064
-0.00147326
-0.00176415
-0.00205453
-0.00234553
-0.00263815
-0.00293329
-0.00323168
-0.00353389
-0.00384019
-0.0041505
-0.00446422
-0.00477995
-0.00509531
-0.00540634
-0.00570712
-0.00598866
-0.00623826
-0.0064373
-0.0065603
-0.00657052
-0.00641903
-0.00603622
-0.00533226
-0.00418595
-0.00245447
0.0223203
0.0200736
0.0164163
0.0129425
0.0106272
0.00920935
0.00805695
0.0069381
0.00592939
0.00509588
0.00440422
0.00379752
0.00324653
0.00274324
0.00228287
0.00185837
0.00146257
0.00108986
0.000736151
0.000398153
7.30572e-05
-0.000241588
-0.000547904
-0.000847737
-0.0011427
-0.00143425
-0.00172367
-0.00201212
-0.00230064
-0.00259016
-0.00288145
-0.0031751
-0.00347149
-0.0037707
-0.00407236
-0.00437557
-0.00467854
-0.00497844
-0.0052708
-0.00554907
-0.00580364
-0.00602108
-0.00618218
-0.00626097
-0.00622081
-0.00601367
-0.00557297
-0.00481414
-0.00362732
-0.00188796
0.0214775
0.0194906
0.0161911
0.0129299
0.0106456
0.00920902
0.00807116
0.00697988
0.00598227
0.00514583
0.00445013
0.00384243
0.00329126
0.00278699
0.00232513
0.00189927
0.00150239
0.00112884
0.000774457
0.000435972
0.000110604
-0.000204075
-0.000510167
-0.000809492
-0.00110364
-0.001394
-0.00168183
-0.00196822
-0.00225414
-0.00254041
-0.00282768
-0.0031164
-0.00340679
-0.00369869
-0.00399151
-0.004284
-0.00457405
-0.00485838
-0.00513206
-0.00538798
-0.00561601
-0.00580213
-0.00592676
-0.00596373
-0.00587692
-0.00561974
-0.0051292
-0.00432787
-0.00311522
-0.00138534
0.0206756
0.0189161
0.0159423
0.0128938
0.0106554
0.00920547
0.00807918
0.00701496
0.00603133
0.0051942
0.00449497
0.0038863
0.00333527
0.00283046
0.00236741
0.00194034
0.00154253
0.00116826
0.000813324
0.000474458
0.000148914
-0.000165705
-0.000471478
-0.000770198
-0.00106342
-0.0013525
-0.00163862
-0.00192283
-0.002206
-0.00248886
-0.00277195
-0.00305558
-0.00333977
-0.00362419
-0.00390797
-0.00418959
-0.0044666
-0.00473532
-0.00499038
-0.00522424
-0.0054263
-0.00558215
-0.00567202
-0.00566984
-0.00554041
-0.00523904
-0.0047069
-0.00387377
-0.002652
-0.000953478
0.019912
0.0183515
0.0156732
0.0128345
0.0106554
0.00919848
0.00808151
0.00704329
0.00607607
0.00524063
0.00453861
0.00392906
0.00337844
0.00287352
0.00240962
0.00198155
0.00158294
0.00120809
0.000852726
0.000513595
0.000187981
-0.000126478
-0.000431832
-0.000729845
-0.00102203
-0.00130971
-0.00159401
-0.00187591
-0.0021562
-0.0024355
-0.00271426
-0.00299262
-0.00327046
-0.00354722
-0.00382181
-0.00409244
-0.00435633
-0.00460946
-0.00484609
-0.00505829
-0.00523512
-0.00536193
-0.00541898
-0.00538058
-0.0052128
-0.00487329
-0.00430777
-0.00345318
-0.00223392
-0.000575923
0.0191844
0.0177983
0.015387
0.0127526
0.0106442
0.00918764
0.00807858
0.00706495
0.00611603
0.00528473
0.00458092
0.00397063
0.00342066
0.00291605
0.00245167
0.00202283
0.00162357
0.00124828
0.000892636
0.000553365
0.000227795
-8.63972e-05
-0.000391226
-0.000688425
-0.000979473
-0.00126564
-0.00154799
-0.00182744
-0.00210471
-0.00238032
-0.00265458
-0.00292753
-0.00319885
-0.00346781
-0.0037331
-0.00399265
-0.00424341
-0.00448106
-0.00469953
-0.00489059
-0.00504309
-0.00514228
-0.00516865
-0.00509719
-0.00489553
-0.00452402
-0.0039332
-0.00306728
-0.00186185
-0.000257055
0.0184903
0.0172573
0.0150867
0.0126493
0.010621
0.0091724
0.00807076
0.00708008
0.00615087
0.0053261
0.00462172
0.00401093
0.00346182
0.00295793
0.00249345
0.00206411
0.00166438
0.00128881
0.000933021
0.000593747
0.000268342
-4.54679e-05
-0.00034966
-0.000645933
-0.000935725
-0.00122026
-0.00150054
-0.00177742
-0.00205153
-0.00232331
-0.00259294
-0.00286032
-0.003125
-0.00338604
-0.00364193
-0.00389036
-0.00412806
-0.00435039
-0.00455108
-0.00472165
-0.00485086
-0.00492403
-0.00492207
-0.00482088
-0.00458995
-0.00419258
-0.00358436
-0.00271661
-0.00153558
5.5036e-06
0.0178277
0.0167293
0.0147751
0.0125258
0.0105848
0.00915209
0.00805829
0.00708894
0.00618029
0.00536433
0.00466079
0.00404989
0.00350183
0.00299903
0.00253487
0.00210531
0.00170532
0.00132962
0.000973846
0.000634712
0.000309606
-3.69978e-06
-0.000307138
-0.000602367
-0.000890785
-0.00117356
-0.00145166
-0.00172584
-0.00199666
-0.00226446
-0.00252933
-0.00279102
-0.00304893
-0.00330196
-0.0035484
-0.00378575
-0.00401048
-0.00421777
-0.00440115
-0.00455201
-0.00465913
-0.00470803
-0.00468026
-0.00455282
-0.0042973
-0.00388017
-0.00326208
-0.00240133
-0.00125411
0.000214598
0.0171946
0.0162147
0.0144549
0.0123836
0.0105352
0.00912596
0.0080413
0.00709178
0.00620412
0.00539903
0.00469788
0.00408739
0.00354059
0.00303923
0.00257581
0.00214636
0.00174632
0.00137067
0.00101507
0.000676233
0.000351566
3.88941e-05
-0.000263666
-0.00055773
-0.000844653
-0.00112555
-0.00140133
-0.00167268
-0.00194009
-0.0022038
-0.00246377
-0.00271966
-0.00297072
-0.00321568
-0.00345266
-0.00367898
-0.00389093
-0.00408353
-0.00425017
-0.00438222
-0.00446858
-0.00449512
-0.00444419
-0.0042941
-0.00401868
-0.00358771
-0.00296691
-0.00212122
-0.00101596
0.000373463
0.0165891
0.0157137
0.0141283
0.0122245
0.0104719
0.00909328
0.00801978
0.00708889
0.00622227
0.00542984
0.00473271
0.00412331
0.00357801
0.00307842
0.00261615
0.00218717
0.00178732
0.0014119
0.00105666
0.000718275
0.000394197
8.22969e-05
-0.000219256
-0.000512029
-0.00079733
-0.00107623
-0.00134957
-0.00161797
-0.00188184
-0.00214133
-0.0023963
-0.0026463
-0.00289043
-0.00312729
-0.00335485
-0.00357026
-0.00376969
-0.00394803
-0.00409861
-0.00421286
-0.00427992
-0.00428615
-0.0042148
-0.0040457
-0.00375503
-0.00331596
-0.0026991
-0.00187569
-0.000819313
0.000485631
0.0160094
0.0152264
0.0137974
0.0120502
0.0103951
0.00905338
0.00799363
0.00708053
0.00623473
0.00545643
0.00476499
0.00415751
0.00361402
0.00311649
0.00265577
0.00222762
0.00182825
0.00145327
0.00109855
0.0007608
0.00043747
0.000126487
-0.000173922
-0.000465273
-0.000748826
-0.0010256
-0.00129637
-0.0015617
-0.00182192
-0.00207708
-0.00232697
-0.00257099
-0.00280815
-0.00303692
-0.00325514
-0.00345983
-0.00364706
-0.00381164
-0.00394695
-0.00404453
-0.00409384
-0.0040819
-0.00399298
-0.00380852
-0.00350715
-0.00306541
-0.0024586
-0.00166382
-0.000661976
0.00055485
0.0154542
0.0147529
0.013464
0.0118624
0.010305
0.00900564
0.00796264
0.00706693
0.00624156
0.00547857
0.00479441
0.00418981
0.0036485
0.00315333
0.00269455
0.00226763
0.00186903
0.00149471
0.00114071
0.000803767
0.000481351
0.000171439
-0.000127684
-0.000417479
-0.000699155
-0.000973673
-0.00124176
-0.0015039
-0.00176036
-0.0020111
-0.00225581
-0.00249382
-0.002724
-0.00294472
-0.00315372
-0.00334793
-0.00352334
-0.00367477
-0.00379567
-0.00387779
-0.00391105
-0.00388314
-0.00377953
-0.00358333
-0.00327564
-0.00283631
-0.00224508
-0.00148436
-0.000541513
0.000585022
0.0149217
0.0142929
0.0131297
0.0116629
0.010202
0.00894961
0.00792657
0.00704826
0.00624287
0.00549605
0.0048207
0.00422002
0.00368136
0.00318886
0.00273239
0.00230709
0.00190958
0.00153617
0.00118308
0.000847129
0.000525803
0.000217123
-8.05667e-05
-0.000368667
-0.000648334
-0.000920474
-0.00118575
-0.0014446
-0.00169719
-0.00194343
-0.00218291
-0.00241486
-0.00263808
-0.00285085
-0.0030508
-0.00323482
-0.00339887
-0.00353783
-0.00364527
-0.00371325
-0.00373219
-0.0036906
-0.00357516
-0.00337075
-0.00306092
-0.00262869
-0.00205793
-0.00133582
-0.000455256
0.000580141
0.0144109
0.0138464
0.0127958
0.0114535
0.0100869
0.00888497
0.00788511
0.00702463
0.0062388
0.00550875
0.00484358
0.00424795
0.00371249
0.00322297
0.00276918
0.00234589
0.00194981
0.00157756
0.00122561
0.000890839
0.000570784
0.000263502
-3.26007e-05
-0.000318865
-0.000596389
-0.000866026
-0.00112838
-0.00138383
-0.00163247
-0.00187413
-0.00210834
-0.00233424
-0.00255055
-0.00275547
-0.0029466
-0.00312078
-0.00327401
-0.00340123
-0.00349625
-0.00355147
-0.00355789
-0.00350491
-0.0033805
-0.0031713
-0.00286323
-0.00244235
-0.00189628
-0.00121644
-0.000400363
0.000544234
0.0139203
0.013413
0.0124635
0.0112357
0.00996041
0.00881156
0.00783798
0.0069961
0.00622949
0.00551661
0.00486281
0.00427336
0.00374176
0.00325557
0.0028048
0.00238391
0.00198962
0.00161882
0.00126823
0.000934843
0.000616246
0.000310537
1.6179e-05
-0.000268104
-0.000543352
-0.000810363
-0.00106969
-0.00132163
-0.00156624
-0.00180327
-0.00203219
-0.00225206
-0.00246154
-0.00265879
-0.00284136
-0.00300612
-0.0031491
-0.00326541
-0.0033491
-0.00339299
-0.00338874
-0.00332667
-0.00319606
-0.00298529
-0.00268261
-0.00227685
-0.00175906
-0.00112427
-0.000373871
0.000481312
0.0134489
0.0129924
0.0121337
0.0110111
0.00982348
0.00872939
0.00778492
0.00696266
0.0062151
0.0055196
0.0048782
0.00429606
0.00376902
0.00328657
0.00283916
0.00242105
0.00202891
0.00165986
0.00131087
0.000979083
0.000662137
0.00035818
6.57309e-05
-0.000216423
-0.000489261
-0.000753525
-0.00100971
-0.00125807
-0.00149858
-0.00173094
-0.00195456
-0.00216845
-0.00237122
-0.002561
-0.00273534
-0.00289113
-0.00302452
-0.00313079
-0.00320429
-0.00323834
-0.00322526
-0.00315635
-0.00302221
-0.00281293
-0.00251891
-0.00213157
-0.00164494
-0.00105718
-0.00037274
0.00039532
0.0129957
0.0125845
0.0118072
0.0107811
0.00967708
0.00863862
0.00772572
0.00692429
0.00619574
0.00551776
0.00488961
0.00431584
0.00379413
0.00331587
0.00287217
0.00245721
0.00206759
0.0017006
0.00135347
0.0010235
0.000708404
0.000406382
0.000116008
-0.000163868
-0.000434162
-0.000695561
-0.000948508
-0.00119319
-0.00142955
-0.00165723
-0.00187558
-0.00208357
-0.00227978
-0.00246233
-0.00262879
-0.00277613
-0.00290062
-0.00299777
-0.00306228
-0.00308798
-0.00306792
-0.00299438
-0.00285925
-0.00265425
-0.00237181
-0.00200567
-0.00155248
-0.00101293
-0.000393897
0.000290092
0.0125596
0.0121889
0.0114848
0.0105469
0.0095222
0.00853952
0.00766024
0.00688093
0.00617153
0.00551115
0.00489692