/*--------------------------------*- C++ -*----------------------------------*\
  =========                 |
  \\      /  F ield         | OpenFOAM: The Open Source CFD Toolbox
   \\    /   O peration     | Website:  https://openfoam.org
    \\  /    A nd           | Version:  7
     \\/     M anipulation  |
\*---------------------------------------------------------------------------*/
FoamFile
{
    version     2.0;
    format      ascii;
    class       surfaceScalarField;
    location    "0.47";
    object      phi;
}
// * * * * * * * * * * * * * * * * * * * * * * * * * * * * * * * * * * * * * //

dimensions      [0 3 -1 0 0 0 0];

internalField   nonuniform List<scalar> 
139350
(
6.4513e-08
9.21185e-08
3.19666e-08
3.25463e-08
2.30622e-08
8.90446e-09
1.95779e-08
3.48429e-09
1.76262e-08
1.95166e-09
1.61962e-08
1.43005e-09
1.50634e-08
1.13281e-09
1.41511e-08
9.12204e-10
1.34009e-08
7.50278e-10
1.27692e-08
6.3171e-10
1.22272e-08
5.41979e-10
1.17556e-08
4.71619e-10
1.13405e-08
4.15022e-10
1.09719e-08
3.6865e-10
1.06418e-08
3.30081e-10
1.03442e-08
2.97583e-10
1.00743e-08
2.69881e-10
9.82832e-09
2.46024e-10
9.60303e-09
2.25288e-10
9.39592e-09
2.07115e-10
9.20485e-09
1.91066e-10
9.02806e-09
1.76793e-10
8.86405e-09
1.6401e-10
8.71156e-09
1.52487e-10
8.56954e-09
1.42027e-10
8.43707e-09
1.32468e-10
8.3134e-09
1.23664e-10
8.19791e-09
1.15496e-10
8.09007e-09
1.07842e-10
7.98945e-09
1.00612e-10
7.89577e-09
9.36828e-11
7.80878e-09
8.69857e-11
7.72842e-09
8.03611e-11
7.65466e-09
7.37685e-11
7.58769e-09
6.69623e-11
7.52777e-09
5.992e-11
7.4755e-09
5.22768e-11
7.43156e-09
4.39327e-11
7.39707e-09
3.44903e-11
7.37371e-09
2.33628e-11
7.36307e-09
1.06396e-11
7.36907e-09
-5.99763e-12
7.39347e-09
-2.44047e-11
7.4452e-09
-5.17309e-11
7.52443e-09
-7.92292e-11
7.65356e-09
-1.29122e-10
7.81666e-09
-1.63102e-10
8.10032e-09
-2.83659e-10
8.18019e-09
-7.98785e-11
-4.01866e-09
1.21989e-08
1.25944e-07
1.27618e-07
9.12932e-08
6.71975e-08
7.19423e-08
2.82553e-08
6.1228e-08
1.41986e-08
5.47922e-08
8.38749e-09
5.02975e-08
5.92472e-09
4.68133e-08
4.61704e-09
4.40004e-08
3.72508e-09
4.16781e-08
3.07253e-09
3.9721e-08
2.58889e-09
3.80415e-08
2.22143e-09
3.65796e-08
1.93349e-09
3.52926e-08
1.70208e-09
3.41487e-08
1.51253e-09
3.31239e-08
1.35487e-09
3.21995e-08
1.22202e-09
3.13606e-08
1.10879e-09
3.05953e-08
1.01128e-09
2.98941e-08
9.26542e-10
2.92489e-08
8.5231e-10
2.86531e-08
7.8679e-10
2.81014e-08
7.28557e-10
2.75889e-08
6.76459e-10
2.71119e-08
6.29553e-10
2.66668e-08
5.87051e-10
2.6251e-08
5.48294e-10
2.5862e-08
5.12714e-10
2.54976e-08
4.79824e-10
2.51563e-08
4.49178e-10
2.48365e-08
4.20397e-10
2.45371e-08
3.93069e-10
2.42572e-08
3.6689e-10
2.39962e-08
3.41376e-10
2.37537e-08
3.163e-10
2.35297e-08
2.90928e-10
2.33245e-08
2.65142e-10
2.31391e-08
2.37695e-10
2.29744e-08
2.0858e-10
2.28332e-08
1.75709e-10
2.27177e-08
1.38905e-10
2.26331e-08
9.51514e-11
2.25844e-08
4.27755e-11
2.25813e-08
-2.13364e-11
2.26338e-08
-1.04228e-10
2.27596e-08
-2.05021e-10
2.29784e-08
-3.47946e-10
2.3324e-08
-5.0869e-10
2.38478e-08
-8.07459e-10
2.44351e-08
-6.67169e-10
-5.2669e-09
2.56833e-08
1.58753e-07
1.35268e-07
1.36531e-07
8.94202e-08
1.175e-07
4.72858e-08
1.03325e-07
2.83736e-08
9.33331e-08
1.83796e-08
8.60349e-08
1.32229e-08
8.033e-08
1.03219e-08
7.56823e-08
8.37274e-09
7.18095e-08
6.94536e-09
6.85237e-08
5.87471e-09
6.56913e-08
5.05386e-09
6.32172e-08
4.40755e-09
6.10328e-08
3.88652e-09
5.90866e-08
3.45866e-09
5.73395e-08
3.10201e-09
5.57606e-08
2.80092e-09
5.43255e-08
2.54388e-09
5.30145e-08
2.32227e-09
5.18116e-08
2.1295e-09
5.07034e-08
1.96049e-09
4.96789e-08
1.81123e-09
4.8729e-08
1.67852e-09
4.78457e-08
1.55977e-09
4.70224e-08
1.45286e-09
4.62534e-08
1.35603e-09
4.55339e-08
1.2678e-09
4.48597e-08
1.1869e-09
4.42273e-08
1.11225e-09
4.36336e-08
1.04287e-09
4.30761e-08
9.77913e-10
4.25526e-08
9.16544e-10
4.20614e-08
8.58055e-10
4.16013e-08
8.01531e-10
4.11712e-08
7.4641e-10
4.07707e-08
6.91343e-10
4.03998e-08
6.36036e-10
4.00595e-08
5.78021e-10
3.97505e-08
5.17641e-10
3.94762e-08
4.50012e-10
3.92383e-08
3.76718e-10
3.90451e-08
2.88382e-10
3.88997e-08
1.88206e-10
3.88188e-08
5.95701e-11
3.88084e-08
-9.38606e-11
3.8903e-08
-2.99569e-10
3.91071e-08
-5.52074e-10
3.95105e-08
-9.12063e-10
4.00792e-08
-1.37617e-09
4.10097e-08
-1.59765e-09
-5.758e-09
4.15008e-08
1.75612e-07
1.31172e-07
1.65627e-07
9.94054e-08
1.52742e-07
6.01708e-08
1.40136e-07
4.09798e-08
1.29458e-07
2.90575e-08
1.20821e-07
2.18595e-08
1.13712e-07
1.74311e-08
1.07736e-07
1.43492e-08
1.02642e-07
1.20394e-08
9.82472e-08
1.0269e-08
9.44125e-08
8.88859e-09
9.10314e-08
7.78862e-09
8.80239e-08
6.8941e-09
8.53281e-08
6.15446e-09
8.28956e-08
5.53444e-09
8.0688e-08
5.00855e-09
7.8674e-08
4.55785e-09
7.68283e-08
4.16798e-09
7.51299e-08
3.82792e-09
7.35613e-08
3.52908e-09
7.21079e-08
3.26463e-09
7.07573e-08
3.02911e-09
6.9499e-08
2.81808e-09
6.8324e-08
2.6279e-09
6.72245e-08
2.45552e-09
6.61939e-08
2.29837e-09
6.52265e-08
2.15428e-09
6.43174e-08
2.02137e-09
6.34623e-08
1.89798e-09
6.26576e-08
1.78263e-09
6.19002e-08
1.67394e-09
6.11876e-08
1.57068e-09
6.05177e-08
1.4714e-09
5.9889e-08
1.3751e-09
5.93006e-08
1.27971e-09
5.8752e-08
1.18471e-09
5.82438e-08
1.08621e-09
5.77764e-08
9.85046e-10
5.73535e-08
8.72913e-10
5.69763e-08
7.53903e-10
5.66541e-08
6.10592e-10
5.63891e-08
4.53174e-10
5.62011e-08
2.47539e-10
5.6094e-08
1.32407e-11
5.61104e-08
-3.15954e-10
5.62463e-08
-6.87918e-10
5.66184e-08
-1.28417e-09
5.7161e-08
-1.91885e-09
5.81443e-08
-2.58096e-09
-6.3283e-09
5.87147e-08
1.84511e-07
1.23446e-07
1.82343e-07
1.01573e-07
1.76127e-07
6.63873e-08
1.67773e-07
4.93338e-08
1.59156e-07
3.76739e-08
1.51254e-07
2.97623e-08
1.44184e-07
2.45004e-08
1.37889e-07
2.06449e-08
1.32294e-07
1.76338e-08
1.27317e-07
1.52463e-08
1.22871e-07
1.33347e-08
1.18879e-07
1.17804e-08
1.15277e-07
1.04965e-08
1.1201e-07
9.4214e-09
1.09033e-07
8.51092e-09
1.0631e-07
7.73205e-09
1.03808e-07
7.05973e-09
1.01501e-07
6.47463e-09
9.93676e-08
5.96162e-09
9.73879e-08
5.50878e-09
9.5546e-08
5.10651e-09
9.3828e-08
4.74706e-09
9.2222e-08
4.42406e-09
9.07177e-08
4.13224e-09
8.9306e-08
3.86718e-09
8.79793e-08
3.62514e-09
8.67306e-08
3.40293e-09
8.55542e-08
3.19776e-09
8.4445e-08
3.00723e-09
8.33985e-08
2.82914e-09
8.24109e-08
2.66148e-09
8.14792e-08
2.50242e-09
8.06006e-08
2.34993e-09
7.97732e-08
2.2025e-09
7.89957e-08
2.05728e-09
7.82669e-08
1.91348e-09
7.75874e-08
1.76569e-09
7.69573e-08
1.61521e-09
7.638e-08
1.45021e-09
7.58566e-08
1.27728e-09
7.53963e-08
1.07082e-09
7.50017e-08
8.47818e-10
7.46925e-08
5.56773e-10
7.4473e-08
2.3275e-10
7.43868e-08
-2.29805e-10
7.44314e-08
-7.32541e-10
7.47174e-08
-1.57015e-09
7.52168e-08
-2.41828e-09
7.60974e-08
-3.4615e-09
-7.04968e-09
7.68188e-08
1.90343e-07
1.1532e-07
1.91861e-07
1.00054e-07
1.90268e-07
6.79809e-08
1.86166e-07
5.34355e-08
1.80731e-07
4.31094e-08
1.74982e-07
3.5511e-08
1.69288e-07
3.01941e-08
1.63808e-07
2.61256e-08
1.58637e-07
2.28039e-08
1.5382e-07
2.00635e-08
1.49359e-07
1.77962e-08
1.45236e-07
1.59028e-08
1.41429e-07
1.43041e-08
1.37909e-07
1.29409e-08
1.34651e-07
1.17688e-08
1.3163e-07
1.07531e-08
1.28823e-07
9.86669e-09
1.2621e-07
9.08805e-09
1.23772e-07
8.39984e-09
1.21493e-07
7.78806e-09
1.19358e-07
7.24129e-09
1.17355e-07
6.75008e-09
1.15472e-07
6.30659e-09
1.137e-07
5.90425e-09
1.1203e-07
5.53746e-09
1.10454e-07
5.20145e-09
1.08964e-07
4.89213e-09
1.07556e-07
4.60588e-09
1.06224e-07
4.33957e-09
1.04963e-07
4.09032e-09
1.03769e-07
3.85552e-09
1.02638e-07
3.63272e-09
1.01569e-07
3.41933e-09
1.00558e-07
3.21328e-09
9.96045e-08
3.01099e-09
9.87067e-08
2.81132e-09
9.7865e-08
2.60739e-09
9.70794e-08
2.40082e-09
9.63531e-08
2.17651e-09
9.56874e-08
1.94294e-09
9.50909e-08
1.66736e-09
9.4567e-08
1.37172e-09
9.41337e-08
9.90047e-10
9.37983e-08
5.6819e-10
9.35992e-08
-3.07275e-11
9.35459e-08
-6.79221e-10
9.37174e-08
-1.7417e-09
9.41565e-08
-2.85735e-09
9.4914e-08
-4.21898e-09
-7.81059e-09
9.56749e-08
1.95505e-07
1.0763e-07
1.98249e-07
9.73098e-08
1.9899e-07
6.72397e-08
1.97799e-07
5.46263e-08
1.95169e-07
4.57402e-08
1.91832e-07
3.88477e-08
1.88103e-07
3.39233e-08
1.84154e-07
3.00741e-08
1.80137e-07
2.68207e-08
1.76163e-07
2.40379e-08
1.72299e-07
2.16601e-08
1.68584e-07
1.96173e-08
1.65039e-07
1.78491e-08
1.61672e-07
1.63084e-08
1.58482e-07
1.49583e-08
1.55467e-07
1.3769e-08
1.52617e-07
1.27163e-08
1.49925e-07
1.178e-08
1.47381e-07
1.09434e-08
1.44977e-07
1.01924e-08
1.42703e-07
9.51558e-09
1.4055e-07
8.90291e-09
1.3851e-07
8.34605e-09
1.36577e-07
7.8378e-09
1.34742e-07
7.37196e-09
1.33001e-07
6.94315e-09
1.31346e-07
6.5467e-09
1.29774e-07
6.17843e-09
1.28278e-07
5.83468e-09
1.26857e-07
5.51204e-09
1.25505e-07
5.20742e-09
1.2422e-07
4.91788e-09
1.22999e-07
4.64031e-09
1.2184e-07
4.37219e-09
1.20742e-07
4.10923e-09
1.19703e-07
3.84991e-09
1.18724e-07
3.58611e-09
1.17806e-07
3.31948e-09
1.1695e-07
3.0322e-09
1.16159e-07
2.73373e-09
1.15441e-07
2.38582e-09
1.148e-07
2.01269e-09
1.14251e-07
1.53836e-09
1.13807e-07
1.01225e-09
1.13497e-07
2.79641e-10
1.13347e-07
-5.2955e-10
1.13399e-07
-1.79351e-09
1.13753e-07
-3.2116e-09
1.14411e-07
-4.8762e-09
-8.55214e-09
1.15152e-07
2.0082e-07
1.00395e-07
2.03774e-07
9.43559e-08
2.0535e-07
6.56636e-08
2.05654e-07
5.4322e-08
2.04827e-07
4.65674e-08
2.03351e-07
4.03241e-08
2.01405e-07
3.58687e-08
1.99076e-07
3.24031e-08
1.96471e-07
2.94259e-08
1.93693e-07
2.68162e-08
1.90823e-07
2.45303e-08
1.87921e-07
2.2519e-08
1.85032e-07
2.07377e-08
1.82189e-07
1.91519e-08
1.79412e-07
1.77348e-08
1.76717e-07
1.64642e-08
1.74112e-07
1.53212e-08
1.71602e-07
1.42899e-08
1.69189e-07
1.33563e-08
1.66873e-07
1.25087e-08
1.64652e-07
1.17366e-08
1.62524e-07
1.10312e-08
1.60485e-07
1.03845e-08
1.58534e-07
9.78972e-09
1.56665e-07
9.24073e-09
1.54876e-07
8.73214e-09
1.53163e-07
8.25919e-09
1.51524e-07
7.81751e-09
1.49956e-07
7.40326e-09
1.48455e-07
7.01277e-09
1.4702e-07
6.64271e-09
1.45648e-07
6.28979e-09
1.44337e-07
5.95059e-09
1.43087e-07
5.62221e-09
1.41897e-07
5.29984e-09
1.40765e-07
4.98161e-09
1.39693e-07
4.65836e-09
1.38681e-07
4.33156e-09
1.37732e-07
3.98133e-09
1.36848e-07
3.61714e-09
1.36037e-07
3.1971e-09
1.35305e-07
2.74493e-09
1.34664e-07
2.17944e-09
1.3413e-07
1.54595e-09
1.33723e-07
6.86195e-10
1.33486e-07
-2.92559e-10
1.33431e-07
-1.73765e-09
1.33682e-07
-3.46346e-09
1.34256e-07
-5.44965e-09
-9.26947e-09
1.34973e-07
2.06423e-07
9.35037e-08
2.09334e-07
9.14456e-08
2.11061e-07
6.39362e-08
2.11945e-07
5.34383e-08
2.12011e-07
4.6501e-08
2.11629e-07
4.07061e-08
2.10902e-07
3.65959e-08
2.09832e-07
3.34728e-08
2.08459e-07
3.07989e-08
2.06842e-07
2.84338e-08
2.05036e-07
2.63363e-08
2.03091e-07
2.44639e-08
2.0105e-07
2.27787e-08
1.98948e-07
2.1253e-08
1.96817e-07
1.98665e-08
1.94678e-07
1.86031e-08
1.9255e-07
1.74491e-08
1.90447e-07
1.63928e-08
1.8838e-07
1.54238e-08
1.86355e-07
1.45331e-08
1.84379e-07
1.37126e-08
1.82455e-07
1.29551e-08
1.80586e-07
1.2254e-08
1.78772e-07
1.16034e-08
1.77015e-07
1.09979e-08
1.75314e-07
1.04328e-08
1.7367e-07
9.90349e-09
1.72081e-07
9.40594e-09
1.70548e-07
8.93645e-09
1.6907e-07
8.49139e-09
1.67645e-07
8.06741e-09
1.66274e-07
7.66116e-09
1.64955e-07
7.26906e-09
1.63689e-07
6.88802e-09
1.62476e-07
6.51287e-09
1.61316e-07
6.14148e-09
1.60211e-07
5.76392e-09
1.59161e-07
5.3813e-09
1.5817e-07
4.97233e-09
1.57241e-07
4.54573e-09
1.56381e-07
4.05764e-09
1.55597e-07
3.52883e-09
1.54899e-07
2.87755e-09
1.54307e-07
2.13804e-09
1.53832e-07
1.1608e-09
1.53527e-07
1.30392e-11
1.53387e-07
-1.59827e-09
1.53536e-07
-3.61236e-09
1.5403e-07
-5.94371e-09
-9.97607e-09
1.54737e-07
2.12269e-07
8.68965e-08
2.15142e-07
8.85726e-08
2.16816e-07
6.22626e-08
2.17859e-07
5.2395e-08
2.18271e-07
4.60894e-08
2.18391e-07
4.05861e-08
2.18317e-07
3.66695e-08
2.18018e-07
3.37717e-08
2.17488e-07
3.13292e-08
2.16746e-07
2.91763e-08
2.15815e-07
2.72668e-08
2.14722e-07
2.55568e-08
2.13493e-07
2.40078e-08
2.12154e-07
2.25926e-08
2.10727e-07
2.12928e-08
2.09236e-07
2.00946e-08
2.07698e-07
1.89873e-08
2.06129e-07
1.79616e-08
2.04543e-07
1.70098e-08
2.02951e-07
1.61251e-08
2.01362e-07
1.53014e-08
1.99784e-07
1.45333e-08
1.98222e-07
1.38155e-08
1.96682e-07
1.31435e-08
1.95168e-07
1.25127e-08
1.93681e-07
1.19191e-08
1.92226e-07
1.1359e-08
1.90803e-07
1.08285e-08
1.89415e-07
1.03245e-08
1.88063e-07
9.8436e-09
1.86748e-07
9.3826e-09
1.85471e-07
8.93827e-09
1.84233e-07
8.50705e-09
1.83035e-07
8.08584e-09
1.81878e-07
7.66923e-09
1.80765e-07
7.25496e-09
1.79696e-07
6.83254e-09
1.78675e-07
6.40268e-09
1.77704e-07
5.94324e-09
1.76788e-07
5.46151e-09
1.75933e-07
4.91333e-09
1.75147e-07
4.31435e-09
1.74438e-07
3.5863e-09
1.73829e-07
2.74731e-09
1.73325e-07
1.66445e-09
1.7298e-07
3.58563e-10
1.72788e-07
-1.40685e-09
1.72853e-07
-3.67704e-09
1.73268e-07
-6.35813e-09
-1.0676e-08
1.73968e-07
2.18315e-07
8.05619e-08
2.21192e-07
8.56961e-08
2.22789e-07
6.06656e-08
2.23861e-07
5.13232e-08
2.24381e-07
4.55692e-08
2.24678e-07
4.02885e-08
2.24881e-07
3.64668e-08
2.2496e-07
3.36925e-08
2.24895e-07
3.13941e-08
2.24687e-07
2.93848e-08
2.2434e-07
2.7614e-08
2.2386e-07
2.60364e-08
2.23258e-07
2.46102e-08
2.22544e-07
2.33061e-08
2.21733e-07
2.21044e-08
2.20836e-07
2.09911e-08
2.19868e-07
1.99555e-08
2.1884e-07
1.89892e-08
2.17765e-07
1.80855e-08
2.16651e-07
1.72387e-08
2.15509e-07
1.64438e-08
2.14345e-07
1.56964e-08
2.13169e-07
1.49924e-08
2.11984e-07
1.43279e-08
2.10797e-07
1.36995e-08
2.09613e-07
1.31036e-08
2.08435e-07
1.25371e-08
2.07266e-07
1.19968e-08
2.06111e-07
1.14799e-08
2.04971e-07
1.09832e-08
2.0385e-07
1.05038e-08
2.0275e-07
1.00388e-08
2.01672e-07
9.58464e-09
2.0062e-07
9.13831e-09
1.99595e-07
8.69427e-09
1.98599e-07
8.2502e-09
1.97637e-07
7.79526e-09
1.9671e-07
7.32966e-09
1.95822e-07
6.83096e-09
1.94979e-07
6.30446e-09
1.94185e-07
5.70713e-09
1.93452e-07
5.04789e-09
1.92783e-07
4.25487e-09
1.92203e-07
3.32782e-09
1.91714e-07
2.15288e-09
1.91365e-07
7.07787e-10
1.91156e-07
-1.19745e-09
1.91168e-07
-3.68938e-09
1.91509e-07
-6.69967e-09
-1.13534e-08
1.92187e-07
2.24549e-07
7.45061e-08
2.27452e-07
8.27933e-08
2.28985e-07
5.91325e-08
2.30064e-07
5.02442e-08
2.30625e-07
4.50084e-08
2.30971e-07
3.99423e-08
2.31263e-07
3.61744e-08
2.3149e-07
3.34652e-08
2.31634e-07
3.12504e-08
2.31693e-07
2.93263e-08
2.31666e-07
2.76411e-08
2.31552e-07
2.61505e-08
2.3135e-07
2.48114e-08
2.31064e-07
2.35922e-08
2.30697e-07
2.24713e-08
2.30255e-07
2.14334e-08
2.29743e-07
2.04672e-08
2.29169e-07
1.95636e-08
2.28539e-07
1.87157e-08
2.27859e-07
1.7918e-08
2.27138e-07
1.71657e-08
2.26379e-07
1.64547e-08
2.2559e-07
1.57814e-08
2.24776e-07
1.51424e-08
2.23941e-07
1.45345e-08
2.2309e-07
1.39547e-08
2.22227e-07
1.34001e-08
2.21356e-07
1.28679e-08
2.2048e-07
1.23554e-08
2.19603e-07
1.18599e-08
2.18728e-07
1.13787e-08
2.17858e-07
1.09088e-08
2.16996e-07
1.04469e-08
2.16144e-07
9.98998e-09
2.15306e-07
9.53247e-09
2.14485e-07
9.07197e-09
2.13682e-07
8.59743e-09
2.12904e-07
8.10844e-09
2.12152e-07
7.58278e-09
2.11433e-07
7.02322e-09
2.10751e-07
6.38905e-09
2.10117e-07
5.68156e-09
2.09536e-07
4.83671e-09
2.09027e-07
3.83635e-09
2.08596e-07
2.58428e-09
2.08281e-07
1.02277e-09
2.08086e-07
-1.00302e-09
2.0808e-07
-3.68331e-09
2.08367e-07
-6.9867e-09
-1.19832e-08
2.08997e-07
2.30975e-07
6.87371e-08
2.33913e-07
7.98555e-08
2.35389e-07
5.76563e-08
2.36476e-07
4.91569e-08
2.3707e-07
4.44147e-08
2.37431e-07
3.95812e-08
2.37745e-07
3.58603e-08
2.38019e-07
3.31919e-08
2.38238e-07
3.10312e-08
2.38406e-07
2.91586e-08
2.38524e-07
2.75228e-08
2.38591e-07
2.60832e-08
2.38605e-07
2.47973e-08
2.38565e-07
2.36325e-08
2.3847e-07
2.25664e-08
2.38321e-07
2.15826e-08
2.38119e-07
2.06689e-08
2.37867e-07
1.98157e-08
2.37567e-07
1.90156e-08
2.37223e-07
1.82624e-08
2.36837e-07
1.75514e-08
2.36413e-07
1.68783e-08
2.35955e-07
1.62394e-08
2.35466e-07
1.56313e-08
2.3495e-07
1.50511e-08
2.34409e-07
1.44956e-08
2.33847e-07
1.39622e-08
2.33267e-07
1.34481e-08
2.32671e-07
1.29508e-08
2.32064e-07
1.24674e-08
2.31447e-07
1.19954e-08
2.30824e-07
1.1532e-08
2.30197e-07
1.10736e-08
2.2957e-07
1.06175e-08
2.28944e-07
1.01578e-08
2.28324e-07
9.69199e-09
2.27713e-07
9.20901e-09
2.27114e-07
8.70763e-09
2.2653e-07
8.16626e-09
2.25969e-07
7.58474e-09
2.25432e-07
6.92548e-09
2.24932e-07
6.18197e-09
2.2447e-07
5.29819e-09
2.24066e-07
4.24023e-09
2.23724e-07
2.92673e-09
2.23475e-07
1.27191e-09
2.23324e-07
-8.51829e-10
2.23327e-07
-3.68627e-09
2.23582e-07
-7.24195e-09
-1.25468e-08
2.24145e-07
2.37601e-07
6.32606e-08
2.40578e-07
7.68783e-08
2.41998e-07
5.62371e-08
2.43092e-07
4.80621e-08
2.43723e-07
4.37843e-08
2.44097e-07
3.9207e-08
2.44417e-07
3.55406e-08
2.44702e-07
3.2906e-08
2.44944e-07
3.07891e-08
2.45149e-07
2.89544e-08
2.45321e-07
2.73502e-08
2.45464e-07
2.59409e-08
2.45575e-07
2.46862e-08
2.45654e-07
2.35536e-08
2.45699e-07
2.25205e-08
2.45712e-07
2.15704e-08
2.4569e-07
2.06907e-08
2.45634e-07
1.98714e-08
2.45545e-07
1.91048e-08
2.45423e-07
1.83845e-08
2.45269e-07
1.77053e-08
2.45085e-07
1.70627e-08
2.44871e-07
1.6453e-08
2.4463e-07
1.58726e-08
2.44363e-07
1.53183e-08
2.44071e-07
1.47871e-08
2.43757e-07
1.42761e-08
2.43423e-07
1.37825e-08
2.4307e-07
1.33036e-08
2.42701e-07
1.28367e-08
2.42317e-07
1.2379e-08
2.41921e-07
1.19277e-08
2.41516e-07
1.14791e-08
2.41103e-07
1.10303e-08
2.40685e-07
1.05755e-08
2.40266e-07
1.01118e-08
2.39846e-07
9.62822e-09
2.39432e-07
9.12244e-09
2.39024e-07
8.57392e-09
2.38629e-07
7.97933e-09
2.3825e-07
7.30454e-09
2.37897e-07
6.53568e-09
2.37571e-07
5.62421e-09
2.37288e-07
4.52308e-09
2.37051e-07
3.16314e-09
2.36886e-07
1.43678e-09
2.36798e-07
-7.63167e-10
2.36827e-07
-3.71593e-09
2.37068e-07
-7.48212e-09
-1.30356e-08
2.37556e-07
2.44436e-07
5.80803e-08
2.47452e-07
7.38627e-08
2.48816e-07
5.48732e-08
2.49914e-07
4.69646e-08
2.50583e-07
4.31153e-08
2.50973e-07
3.88163e-08
2.51297e-07
3.52163e-08
2.51589e-07
3.26146e-08
2.51839e-07
3.05395e-08
2.52054e-07
2.87393e-08
2.52243e-07
2.71606e-08
2.52411e-07
2.57729e-08
2.52559e-07
2.45385e-08
2.52687e-07
2.34258e-08
2.52795e-07
2.24125e-08
2.52883e-07
2.14823e-08
2.52951e-07
2.06228e-08
2.52998e-07
1.9824e-08
2.53025e-07
1.90782e-08
2.53031e-07
1.83787e-08
2.53016e-07
1.77203e-08
2.5298e-07
1.70986e-08
2.52923e-07
1.65094e-08
2.52846e-07
1.59493e-08
2.5275e-07
1.54149e-08
2.52634e-07
1.49029e-08
2.525e-07
1.44105e-08
2.52348e-07
1.39346e-08
2.52179e-07
1.34725e-08
2.51994e-07
1.30212e-08
2.51795e-07
1.25777e-08
2.51584e-07
1.21393e-08
2.51361e-07
1.1702e-08
2.51128e-07
1.12629e-08
2.50888e-07
1.08157e-08
2.50642e-07
1.03575e-08
2.50393e-07
9.8773e-09
2.50144e-07
9.37161e-09
2.49897e-07
8.82113e-09
2.49657e-07
8.21931e-09
2.49426e-07
7.53556e-09
2.49212e-07
6.74937e-09
2.49018e-07
5.81883e-09
2.48854e-07
4.68642e-09
2.48725e-07
3.29267e-09
2.48648e-07
1.51402e-09
2.48628e-07
-7.43208e-10
2.48692e-07
-3.78015e-09
2.48922e-07
-7.7126e-09
-1.34472e-08
2.49334e-07
2.51489e-07
5.31982e-08
2.54533e-07
7.08187e-08
2.55852e-07
5.35536e-08
2.56947e-07
4.58696e-08
2.57654e-07
4.24087e-08
2.58064e-07
3.84062e-08
2.58394e-07
3.48863e-08
2.58691e-07
3.23178e-08
2.58946e-07
3.02847e-08
2.59165e-07
2.85198e-08
2.5936e-07
2.69657e-08
2.59536e-07
2.5597e-08
2.59695e-07
2.4379e-08
2.5984e-07
2.32811e-08
2.59971e-07
2.22812e-08
2.6009e-07
2.13638e-08
2.60196e-07
2.05166e-08
2.6029e-07
1.97301e-08
2.60372e-07
1.89963e-08
2.60441e-07
1.83091e-08
2.60499e-07
1.76631e-08
2.60543e-07
1.70539e-08
2.60575e-07
1.64775e-08
2.60594e-07
1.59303e-08
2.606e-07
1.54089e-08
2.60593e-07
1.49101e-08
2.60573e-07
1.44307e-08
2.6054e-07
1.39676e-08
2.60494e-07
1.3518e-08
2.60437e-07
1.30788e-08
2.60368e-07
1.26468e-08
2.60288e-07
1.22191e-08
2.60198e-07
1.17916e-08
2.601e-07
1.13611e-08
2.59994e-07
1.09214e-08
2.59883e-07
1.04689e-08
2.59767e-07
9.99289e-09
2.5965e-07
9.48877e-09
2.59533e-07
8.93847e-09
2.5942e-07
8.33241e-09
2.59312e-07
7.64329e-09
2.59217e-07
6.84498e-09
2.59134e-07
5.90108e-09
2.59074e-07
4.74636e-09
2.59039e-07
3.32833e-09
2.59039e-07
1.51351e-09
2.59081e-07
-7.85343e-10
2.59179e-07
-3.87732e-09
2.59394e-07
-7.9285e-09
-1.37798e-08
2.59727e-07
2.58767e-07
4.86146e-08
2.61828e-07
6.77568e-08
2.63115e-07
5.22674e-08
2.64202e-07
4.47822e-08
2.64944e-07
4.16666e-08
2.65376e-07
3.79749e-08
2.65712e-07
3.45494e-08
2.66015e-07
3.20153e-08
2.66275e-07
3.00244e-08
2.66499e-07
2.82965e-08
2.66696e-07
2.67679e-08
2.66875e-07
2.54181e-08
2.67038e-07
2.42157e-08
2.67189e-07
2.3131e-08
2.67327e-07
2.21425e-08
2.67456e-07
2.12349e-08
2.67576e-07
2.03965e-08
2.67688e-07
1.9618e-08
2.67793e-07
1.88919e-08
2.6789e-07
1.82119e-08
2.6798e-07
1.75731e-08
2.68063e-07
1.69712e-08
2.68138e-07
1.64021e-08
2.68206e-07
1.58624e-08
2.68266e-07
1.53488e-08
2.68318e-07
1.48579e-08
2.68362e-07
1.43866e-08
2.68398e-07
1.39318e-08
2.68426e-07
1.34904e-08
2.68445e-07
1.30593e-08
2.68457e-07
1.26352e-08
2.68461e-07
1.2215e-08
2.68458e-07
1.17945e-08
2.68449e-07
1.13702e-08
2.68434e-07
1.0936e-08
2.68415e-07
1.04877e-08
2.68393e-07
1.0015e-08
2.6837e-07
9.51205e-09
2.68347e-07
8.96202e-09
2.68326e-07
8.35261e-09
2.6831e-07
7.65948e-09
2.68303e-07
6.85198e-09
2.68306e-07
5.89804e-09
2.68325e-07
4.72733e-09
2.68362e-07
3.29182e-09
2.68422e-07
1.45326e-09
2.6851e-07
-8.73765e-10
2.6863e-07
-3.99733e-09
2.68821e-07
-8.11914e-09
-1.40226e-08
2.69064e-07
2.66279e-07
4.43283e-08
2.69348e-07
6.46877e-08
2.70611e-07
5.10038e-08
2.71687e-07
4.37067e-08
2.72461e-07
4.08921e-08
2.72916e-07
3.75205e-08
2.7326e-07
3.4205e-08
2.73568e-07
3.17071e-08
2.73834e-07
2.97582e-08
2.74062e-07
2.80689e-08
2.74263e-07
2.65674e-08
2.74444e-07
2.52371e-08
2.74609e-07
2.40505e-08
2.74761e-07
2.29789e-08
2.74902e-07
2.20012e-08
2.75035e-07
2.11027e-08
2.75159e-07
2.02719e-08
2.75277e-07
1.94998e-08
2.7539e-07
1.87793e-08
2.75497e-07
1.81044e-08
2.756e-07
1.74703e-08
2.75699e-07
1.68727e-08
2.75793e-07
1.6308e-08
2.75883e-07
1.57727e-08
2.75968e-07
1.52635e-08
2.76048e-07
1.47773e-08
2.76124e-07
1.43107e-08
2.76195e-07
1.38608e-08
2.76261e-07
1.34244e-08
2.76322e-07
1.29982e-08
2.76379e-07
1.25789e-08
2.7643e-07
1.21633e-08
2.76478e-07
1.17471e-08
2.76521e-07
1.13267e-08
2.76562e-07
1.08957e-08
2.76599e-07
1.04497e-08
2.76636e-07
9.97879e-09
2.76672e-07
9.47569e-09
2.76709e-07
8.92505e-09
2.7675e-07
8.31215e-09
2.76794e-07
7.61514e-09
2.76846e-07
6.80007e-09
2.76906e-07
5.83781e-09
2.76978e-07
4.65548e-09
2.77062e-07
3.2074e-09
2.77161e-07
1.3548e-09
2.77276e-07
-9.88707e-10
2.77403e-07
-4.12438e-09
2.77557e-07
-8.27337e-09
-1.41676e-08
2.77702e-07
2.74033e-07
4.03362e-08
2.77099e-07
6.16224e-08
2.7835e-07
4.97526e-08
2.7941e-07
4.26466e-08
2.80213e-07
4.0089e-08
2.80692e-07
3.70416e-08
2.81045e-07
3.38521e-08
2.81359e-07
3.13931e-08
2.81631e-07
2.94859e-08
2.81863e-07
2.78367e-08
2.82067e-07
2.63637e-08
2.8225e-07
2.50538e-08
2.82417e-07
2.38834e-08
2.82571e-07
2.28253e-08
2.82714e-07
2.18586e-08
2.82847e-07
2.0969e-08
2.82973e-07
2.01456e-08
2.83094e-07
1.93796e-08
2.83209e-07
1.86641e-08
2.8332e-07
1.79934e-08
2.83427e-07
1.73629e-08
2.83531e-07
1.67686e-08
2.83632e-07
1.62068e-08
2.83731e-07
1.56744e-08
2.83826e-07
1.5168e-08
2.83919e-07
1.46846e-08
2.84009e-07
1.42209e-08
2.84096e-07
1.3774e-08
2.8418e-07
1.33404e-08
2.84261e-07
1.29172e-08
2.84339e-07
1.25008e-08
2.84414e-07
1.20878e-08
2.84488e-07
1.16739e-08
2.84559e-07
1.12554e-08
2.84628e-07
1.0826e-08
2.84698e-07
1.03807e-08
2.84766e-07
9.90999e-09
2.84836e-07
9.40563e-09
2.84908e-07
8.85337e-09
2.84984e-07
8.23659e-09
2.85063e-07
7.53538e-09
2.8515e-07
6.71363e-09
2.85243e-07
5.74415e-09
2.85345e-07
4.55348e-09
2.85456e-07
3.09672e-09
2.85574e-07
1.2374e-09
2.85697e-07
-1.11188e-09
2.85815e-07
-4.24303e-09
2.85922e-07
-8.3799e-09
-1.42039e-08
2.85958e-07
2.8204e-07
3.66335e-08
2.85091e-07
5.85717e-08
2.86339e-07
4.85042e-08
2.87381e-07
4.16049e-08
2.88208e-07
3.92618e-08
2.88713e-07
3.6537e-08
2.89075e-07
3.34897e-08
2.89395e-07
3.10735e-08
2.89673e-07
2.92074e-08
2.89911e-07
2.75995e-08
2.90118e-07
2.61566e-08
2.90303e-07
2.4868e-08
2.90472e-07
2.37144e-08
2.90628e-07
2.26701e-08
2.90771e-07
2.17148e-08
2.90906e-07
2.08344e-08
2.91033e-07
2.00184e-08
2.91154e-07
1.92585e-08
2.91271e-07
1.85479e-08
2.91383e-07
1.78812e-08
2.91492e-07
1.7254e-08
2.91598e-07
1.66625e-08
2.91702e-07
1.61032e-08
2.91803e-07
1.5573e-08
2.91902e-07
1.50687e-08
2.91999e-07
1.45873e-08
2.92095e-07
1.41257e-08
2.92188e-07
1.36807e-08
2.92279e-07
1.32492e-08
2.92369e-07
1.28278e-08
2.92456e-07
1.24131e-08
2.92542e-07
1.20016e-08
2.92627e-07
1.1589e-08
2.92712e-07
1.11712e-08
2.92795e-07
1.07423e-08
2.92879e-07
1.02966e-08
2.92964e-07
9.82521e-09
2.93051e-07
9.31885e-09
2.9314e-07
8.76426e-09
2.93233e-07
8.14343e-09
2.93331e-07
7.43785e-09
2.93434e-07
6.61033e-09
2.93544e-07
5.63463e-09
2.93659e-07
4.4384e-09
2.93779e-07
2.97661e-09
2.93899e-07
1.11713e-09
2.94015e-07
-1.22782e-09
2.9411e-07
-4.33819e-09
2.94158e-07
-8.42761e-09
-1.41235e-08
2.94077e-07
2.90309e-07
3.32137e-08
2.93333e-07
5.55469e-08
2.94588e-07
4.72498e-08
2.95609e-07
4.05836e-08
2.96455e-07
3.84154e-08
2.96987e-07
3.60056e-08
2.9736e-07
3.31164e-08
2.97685e-07
3.07482e-08
2.9797e-07
2.89227e-08
2.98213e-07
2.73569e-08
2.98423e-07
2.59459e-08
2.98612e-07
2.46795e-08
2.98783e-07
2.35432e-08
2.9894e-07
2.25132e-08
2.99085e-07
2.15696e-08
2.99221e-07
2.06987e-08
2.99349e-07
1.98903e-08
2.99471e-07
1.91366e-08
2.99588e-07
1.8431e-08
2.99701e-07
1.77683e-08
2.9981e-07
1.71444e-08
2.99917e-07
1.65556e-08
3.00022e-07
1.59986e-08
3.00124e-07
1.54704e-08
3.00225e-07
1.49681e-08
3.00324e-07
1.44885e-08
3.00421e-07
1.40286e-08
3.00517e-07
1.35852e-08
3.00611e-07
1.31552e-08
3.00703e-07
1.27352e-08
3.00795e-07
1.23217e-08
3.00885e-07
1.19112e-08
3.00975e-07
1.14993e-08
3.01064e-07
1.10818e-08
3.01153e-07
1.06528e-08
3.01244e-07
1.02063e-08
3.01335e-07
9.73371e-09
3.01429e-07
9.22507e-09
3.01525e-07
8.66786e-09
3.01626e-07
8.04318e-09
3.0173e-07
7.33342e-09
3.01839e-07
6.50121e-09
3.01953e-07
5.52061e-09
3.0207e-07
4.32155e-09
3.02188e-07
2.85854e-09
3.023e-07
1.00516e-09
3.02398e-07
-1.32528e-09
3.02458e-07
-4.39852e-09
3.02439e-07
-8.40847e-09
-1.39228e-08
3.02238e-07
2.98848e-07
3.00688e-08
3.01835e-07
5.25592e-08
3.03103e-07
4.59816e-08
3.04103e-07
3.9584e-08
3.04963e-07
3.7555e-08
3.05522e-07
3.54467e-08
3.05908e-07
3.27307e-08
3.06239e-07
3.04174e-08
3.0653e-07
2.86317e-08
3.06778e-07
2.71087e-08
3.06993e-07
2.57311e-08
3.07184e-07
2.44881e-08
3.07358e-07
2.33697e-08
3.07516e-07
2.23545e-08
3.07663e-07
2.14229e-08
3.078e-07
2.05618e-08
3.07929e-07
1.97613e-08
3.08052e-07
1.90138e-08
3.0817e-07
1.83133e-08
3.08283e-07
1.76547e-08
3.08393e-07
1.70341e-08
3.08501e-07
1.64481e-08
3.08606e-07
1.58934e-08
3.08709e-07
1.53673e-08
3.0881e-07
1.48668e-08
3.0891e-07
1.43889e-08
3.09008e-07
1.39307e-08
3.09104e-07
1.34888e-08
3.09199e-07
1.30602e-08
3.09293e-07
1.26415e-08
3.09386e-07
1.22291e-08
3.09477e-07
1.18194e-08
3.09569e-07
1.14081e-08
3.0966e-07
1.09907e-08
3.09751e-07
1.05614e-08
3.09844e-07
1.0114e-08
3.09937e-07
9.64005e-09
3.10033e-07
9.12922e-09
3.10131e-07
8.56947e-09
3.10233e-07
7.94146e-09
3.10339e-07
7.22806e-09
3.10447e-07
6.3925e-09
3.10559e-07
5.40867e-09
3.10671e-07
4.20969e-09
3.1078e-07
2.74965e-09
3.10876e-07
9.0879e-10
3.10948e-07
-1.39676e-09
3.10965e-07
-4.41608e-09
3.10874e-07
-8.31716e-09
-1.36025e-08
3.10554e-07
3.07667e-07
2.71889e-08
3.10607e-07
4.96198e-08
3.11896e-07
4.46927e-08
3.12873e-07
3.86066e-08
3.13742e-07
3.66859e-08
3.14328e-07
3.48605e-08
3.14728e-07
3.23313e-08
3.15064e-07
3.00807e-08
3.15362e-07
2.83345e-08
3.15616e-07
2.68545e-08
3.15835e-07
2.55119e-08
3.16029e-07
2.42935e-08
3.16205e-07
2.31937e-08
3.16366e-07
2.21936e-08
3.16515e-07
2.12746e-08
3.16653e-07
2.04234e-08
3.16783e-07
1.9631e-08
3.16907e-07
1.88901e-08
3.17025e-07
1.81948e-08
3.1714e-07
1.75404e-08
3.17251e-07
1.69232e-08
3.17359e-07
1.63399e-08
3.17465e-07
1.57877e-08
3.17568e-07
1.52636e-08
3.1767e-07
1.4765e-08
3.1777e-07
1.42889e-08
3.17868e-07
1.38323e-08
3.17965e-07
1.3392e-08
3.18061e-07
1.29648e-08
3.18155e-07
1.25474e-08
3.18248e-07
1.21361e-08
3.1834e-07
1.17272e-08
3.18432e-07
1.13164e-08
3.18523e-07
1.08991e-08
3.18615e-07
1.04696e-08
3.18708e-07
1.00214e-08
3.18802e-07
9.54625e-09
3.18897e-07
9.03355e-09
3.18995e-07
8.47161e-09
3.19096e-07
7.84099e-09
3.19199e-07
7.12481e-09
3.19304e-07
6.28743e-09
3.1941e-07
5.30244e-09
3.19513e-07
4.10665e-09
3.19609e-07
2.65416e-09
3.19685e-07
8.32656e-10
3.19726e-07
-1.43756e-09
3.19695e-07
-4.38576e-09
3.19529e-07
-8.15102e-09
-1.31659e-08
3.19092e-07
3.16777e-07
2.45628e-08
3.19657e-07
4.67398e-08
3.20973e-07
4.33775e-08
3.21928e-07
3.7651e-08
3.22801e-07
3.58132e-08
3.23414e-07
3.42478e-08
3.23828e-07
3.19165e-08
3.24171e-07
2.97379e-08
3.24475e-07
2.80311e-08
3.24735e-07
2.65941e-08
3.24959e-07
2.52881e-08
3.25157e-07
2.40955e-08
3.25336e-07
2.3015e-08
3.25499e-07
2.20305e-08
3.25649e-07
2.11243e-08
3.25789e-07
2.02836e-08
3.2592e-07
1.94995e-08
3.26045e-07
1.87652e-08
3.26165e-07
1.80752e-08
3.2628e-07
1.74252e-08
3.26392e-07
1.68115e-08
3.26501e-07
1.62311e-08
3.26607e-07
1.56812e-08
3.26711e-07
1.51594e-08
3.26814e-07
1.46627e-08
3.26914e-07
1.41884e-08
3.27013e-07
1.37335e-08
3.2711e-07
1.32948e-08
3.27206e-07
1.28691e-08
3.273e-07
1.2453e-08
3.27393e-07
1.20428e-08
3.27486e-07
1.16348e-08
3.27578e-07
1.12246e-08
3.27669e-07
1.08076e-08
3.27761e-07
1.0378e-08
3.27853e-07
9.92917e-09
3.27946e-07
9.45314e-09
3.2804e-07
8.93902e-09
3.28137e-07
8.37538e-09
3.28235e-07
7.74305e-09
3.28334e-07
7.02517e-09
3.28434e-07
6.18768e-09
3.28533e-07
5.20384e-09
3.28625e-07
4.01458e-09
3.28704e-07
2.57454e-09
3.28757e-07
7.79469e-10
3.28764e-07
-1.44448e-09
3.28683e-07
-4.3047e-09
3.28442e-07
-7.9094e-09
-1.2619e-08
3.27895e-07
3.26188e-07
2.21779e-08
3.28997e-07
4.393e-08
3.30343e-07
4.20318e-08
3.31278e-07
3.67159e-08
3.3215e-07
3.49415e-08
3.32787e-07
3.36101e-08
3.33219e-07
3.14849e-08
3.33569e-07
2.93883e-08
3.33878e-07
2.77218e-08
3.34145e-07
2.63274e-08
3.34374e-07
2.50591e-08
3.34575e-07
2.38938e-08
3.34757e-07
2.28332e-08
3.34923e-07
2.18649e-08
3.35075e-07
2.09719e-08
3.35217e-07
2.01419e-08
3.3535e-07
1.93664e-08
3.35476e-07
1.8639e-08
3.35597e-07
1.79546e-08
3.35713e-07
1.7309e-08
3.35825e-07
1.66988e-08
3.35935e-07
1.61214e-08
3.36042e-07
1.55741e-08
3.36147e-07
1.50544e-08
3.3625e-07
1.45597e-08
3.36351e-07
1.40873e-08
3.36451e-07
1.36342e-08