/*--------------------------------*- C++ -*----------------------------------*\
  =========                 |
  \\      /  F ield         | OpenFOAM: The Open Source CFD Toolbox
   \\    /   O peration     | Website:  https://openfoam.org
    \\  /    A nd           | Version:  7
     \\/     M anipulation  |
\*---------------------------------------------------------------------------*/
FoamFile
{
    version     2.0;
    format      ascii;
    class       surfaceScalarField;
    location    "0.47";
    object      phi_0;
}
// * * * * * * * * * * * * * * * * * * * * * * * * * * * * * * * * * * * * * //

dimensions      [0 3 -1 0 0 0 0];

internalField   nonuniform List<scalar> 
139350
(
6.4513e-08
9.21185e-08
3.19666e-08
3.25463e-08
2.30621e-08
8.90447e-09
1.95778e-08
3.4843e-09
1.76262e-08
1.95166e-09
1.61961e-08
1.43006e-09
1.50633e-08
1.13282e-09
1.41511e-08
9.12209e-10
1.34008e-08
7.50283e-10
1.27691e-08
6.31716e-10
1.22271e-08
5.41986e-10
1.17555e-08
4.71628e-10
1.13404e-08
4.15033e-10
1.09718e-08
3.68662e-10
1.06417e-08
3.30094e-10
1.03441e-08
2.97597e-10
1.00742e-08
2.69897e-10
9.82815e-09
2.46041e-10
9.60284e-09
2.25306e-10
9.3957e-09
2.07135e-10
9.20462e-09
1.91089e-10
9.0278e-09
1.76817e-10
8.86376e-09
1.64037e-10
8.71125e-09
1.52516e-10
8.56919e-09
1.4206e-10
8.43668e-09
1.32504e-10
8.31298e-09
1.23705e-10
8.19743e-09
1.15542e-10
8.08954e-09
1.07896e-10
7.98887e-09
1.00673e-10
7.89511e-09
9.37523e-11
7.80805e-09
8.70657e-11
7.72759e-09
8.04536e-11
7.65372e-09
7.38759e-11
7.58663e-09
6.7087e-11
7.52657e-09
6.00656e-11
7.47412e-09
5.24457e-11
7.42999e-09
4.41299e-11
7.39527e-09
3.47179e-11
7.37165e-09
2.36253e-11
7.36071e-09
1.09399e-11
7.36637e-09
-5.66606e-12
7.3904e-09
-2.40301e-11
7.44176e-09
-5.136e-11
7.5206e-09
-7.88331e-11
7.64947e-09
-1.2887e-10
7.81234e-09
-1.62869e-10
8.09645e-09
-2.84111e-10
8.177e-09
-8.05527e-11
-4.01949e-09
1.21965e-08
1.25944e-07
1.27618e-07
9.12931e-08
6.71975e-08
7.19423e-08
2.82553e-08
6.12279e-08
1.41987e-08
5.47921e-08
8.38752e-09
5.02974e-08
5.92474e-09
4.68131e-08
4.61706e-09
4.40002e-08
3.72509e-09
4.1678e-08
3.07254e-09
3.97208e-08
2.58891e-09
3.80413e-08
2.22145e-09
3.65794e-08
1.93352e-09
3.52924e-08
1.70212e-09
3.41484e-08
1.51257e-09
3.31236e-08
1.35492e-09
3.21992e-08
1.22207e-09
3.13602e-08
1.10884e-09
3.05949e-08
1.01133e-09
2.98936e-08
9.26603e-10
2.92484e-08
8.52375e-10
2.86526e-08
7.86861e-10
2.81008e-08
7.28634e-10
2.75883e-08
6.76543e-10
2.71112e-08
6.29646e-10
2.66661e-08
5.87154e-10
2.62502e-08
5.48409e-10
2.5861e-08
5.12843e-10
2.54966e-08
4.7997e-10
2.51551e-08
4.49343e-10
2.48352e-08
4.20585e-10
2.45357e-08
3.93286e-10
2.42556e-08
3.67141e-10
2.39944e-08
3.41667e-10
2.37516e-08
3.1664e-10
2.35274e-08
2.91327e-10
2.33219e-08
2.65612e-10
2.31361e-08
2.38246e-10
2.2971e-08
2.09232e-10
2.28292e-08
1.76473e-10
2.2713e-08
1.39802e-10
2.26278e-08
9.61973e-11
2.25781e-08
4.39726e-11
2.25741e-08
-1.99571e-11
2.26255e-08
-1.02764e-10
2.275e-08
-2.03357e-10
2.29678e-08
-3.46668e-10
2.33119e-08
-5.07029e-10
2.38359e-08
-8.08109e-10
2.44235e-08
-6.68101e-10
-5.27167e-09
2.56757e-08
1.58753e-07
1.35268e-07
1.36531e-07
8.94203e-08
1.175e-07
4.72859e-08
1.03325e-07
2.83736e-08
9.3333e-08
1.83797e-08
8.60347e-08
1.3223e-08
8.03298e-08
1.0322e-08
7.56821e-08
8.37277e-09
7.18093e-08
6.94538e-09
6.85235e-08
5.87473e-09
6.5691e-08
5.05389e-09
6.3217e-08
4.4076e-09
6.10325e-08
3.88658e-09
5.90863e-08
3.45873e-09
5.73392e-08
3.10209e-09
5.57602e-08
2.80101e-09
5.43251e-08
2.54398e-09
5.30141e-08
2.32237e-09
5.1811e-08
2.12961e-09
5.07028e-08
1.96061e-09
4.96783e-08
1.81136e-09
4.87283e-08
1.67866e-09
4.78449e-08
1.55993e-09
4.70215e-08
1.45303e-09
4.62524e-08
1.35622e-09
4.55328e-08
1.26801e-09
4.48585e-08
1.18714e-09
4.4226e-08
1.11251e-09
4.36322e-08
1.04317e-09
4.30745e-08
9.78258e-10
4.25508e-08
9.16941e-10
4.20595e-08
8.58515e-10
4.15991e-08
8.02067e-10
4.11687e-08
7.47039e-10
4.07679e-08
6.92082e-10
4.03966e-08
6.36911e-10
4.00558e-08
5.79057e-10
3.97462e-08
5.18873e-10
3.94712e-08
4.51471e-10
3.92325e-08
3.78449e-10
3.90383e-08
2.90421e-10
3.88917e-08
1.90579e-10
3.88094e-08
6.23426e-11
3.87975e-08
-9.08339e-11
3.88901e-08
-2.96017e-10
3.90926e-08
-5.49188e-10
3.94936e-08
-9.0798e-10
4.00618e-08
-1.37629e-09
4.09923e-08
-1.5986e-09
-5.76534e-09
4.14859e-08
1.75612e-07
1.31172e-07
1.65627e-07
9.94055e-08
1.52742e-07
6.01709e-08
1.40136e-07
4.09799e-08
1.29458e-07
2.90576e-08
1.20821e-07
2.18596e-08
1.13712e-07
1.74311e-08
1.07735e-07
1.43493e-08
1.02641e-07
1.20394e-08
9.8247e-08
1.02691e-08
9.44123e-08
8.88863e-09
9.10312e-08
7.78869e-09
8.80236e-08
6.89419e-09
8.53278e-08
6.15456e-09
8.28953e-08
5.53455e-09
8.06876e-08
5.00868e-09
7.86736e-08
4.55799e-09
7.68278e-08
4.16814e-09
7.51294e-08
3.82809e-09
7.35607e-08
3.52926e-09
7.21073e-08
3.26482e-09
7.07566e-08
3.02932e-09
6.94982e-08
2.81832e-09
6.83231e-08
2.62816e-09
6.72235e-08
2.4558e-09
6.61928e-08
2.29868e-09
6.52253e-08
2.15463e-09
6.43161e-08
2.02176e-09
6.34608e-08
1.89842e-09
6.26559e-08
1.78314e-09
6.18984e-08
1.67453e-09
6.11855e-08
1.57136e-09
6.05154e-08
1.47219e-09
5.98864e-08
1.37603e-09
5.92977e-08
1.28081e-09
5.87486e-08
1.18602e-09
5.82399e-08
1.08777e-09
5.77718e-08
9.86903e-10
5.73482e-08
8.75127e-10
5.69701e-08
7.56545e-10
5.66468e-08
6.13728e-10
5.63805e-08
4.56859e-10
5.61909e-08
2.51882e-10
5.60821e-08
1.8056e-11
5.60962e-08
-3.10194e-10
5.62301e-08
-6.83071e-10
5.65994e-08
-1.27727e-09
5.71406e-08
-1.91746e-09
5.81243e-08
-2.58233e-09
-6.33719e-09
5.86961e-08
1.84511e-07
1.23446e-07
1.82343e-07
1.01573e-07
1.76127e-07
6.63875e-08
1.67773e-07
4.9334e-08
1.59156e-07
3.7674e-08
1.51253e-07
2.97624e-08
1.44184e-07
2.45005e-08
1.37888e-07
2.06449e-08
1.32294e-07
1.76338e-08
1.27317e-07
1.52463e-08
1.22871e-07
1.33347e-08
1.18879e-07
1.17805e-08
1.15276e-07
1.04966e-08
1.12009e-07
9.42152e-09
1.09033e-07
8.51107e-09
1.06309e-07
7.73222e-09
1.03807e-07
7.05992e-09
1.01501e-07
6.47483e-09
9.9367e-08
5.96185e-09
9.73873e-08
5.50902e-09
9.55453e-08
5.10678e-09
9.38273e-08
4.74735e-09
9.22212e-08
4.42438e-09
9.07168e-08
4.13259e-09
8.9305e-08
3.86756e-09
8.79782e-08
3.62556e-09
8.67294e-08
3.4034e-09
8.55529e-08
3.19829e-09
8.44435e-08
3.00782e-09
8.33968e-08
2.82981e-09
8.24091e-08
2.66226e-09
8.14771e-08
2.50332e-09
8.05983e-08
2.35098e-09
7.97706e-08
2.20373e-09
7.89927e-08
2.05874e-09
7.82635e-08
1.91522e-09
7.75835e-08
1.76777e-09
7.69527e-08
1.6177e-09
7.63746e-08
1.4532e-09
7.58503e-08
1.28086e-09
7.53889e-08
1.07508e-09
7.49929e-08
8.52859e-10
7.46821e-08
5.62755e-10
7.44607e-08
2.39428e-10
7.43722e-08
-2.21725e-10
7.44146e-08
-7.25498e-10
7.46979e-08
-1.56049e-09
7.5195e-08
-2.41456e-09
7.60761e-08
-3.46343e-09
-7.06125e-09
7.68001e-08
1.90343e-07
1.1532e-07
1.91861e-07
1.00054e-07
1.90268e-07
6.79811e-08
1.86166e-07
5.34357e-08
1.80731e-07
4.31096e-08
1.74982e-07
3.55112e-08
1.69288e-07
3.01942e-08
1.63807e-07
2.61256e-08
1.58637e-07
2.28039e-08
1.5382e-07
2.00635e-08
1.49359e-07
1.77962e-08
1.45236e-07
1.59029e-08
1.41429e-07
1.43042e-08
1.37909e-07
1.29411e-08
1.34651e-07
1.17689e-08
1.3163e-07
1.07533e-08
1.28823e-07
9.86691e-09
1.2621e-07
9.0883e-09
1.23771e-07
8.40012e-09
1.21492e-07
7.78837e-09
1.19357e-07
7.24162e-09
1.17354e-07
6.75045e-09
1.15471e-07
6.307e-09
1.13699e-07
5.90469e-09
1.12029e-07
5.53794e-09
1.10453e-07
5.20198e-09
1.08963e-07
4.89272e-09
1.07555e-07
4.60654e-09
1.06222e-07
4.34031e-09
1.04961e-07
4.09116e-09
1.03767e-07
3.85649e-09
1.02636e-07
3.63384e-09
1.01567e-07
3.42064e-09
1.00556e-07
3.21483e-09
9.96015e-08
3.01282e-09
9.87032e-08
2.8135e-09
9.7861e-08
2.60999e-09
9.70748e-08
2.40395e-09
9.63477e-08
2.18026e-09
9.56811e-08
1.94745e-09
9.50834e-08
1.67276e-09
9.45582e-08
1.37812e-09
9.41232e-08
9.97683e-10
9.37859e-08
5.76761e-10
9.35845e-08
-2.03345e-11
9.35288e-08
-6.69789e-10
9.36978e-08
-1.72951e-09
9.41342e-08
-2.85093e-09
9.48917e-08
-4.22096e-09
-7.82682e-09
9.56573e-08
1.95505e-07
1.0763e-07
1.98249e-07
9.73099e-08
1.9899e-07
6.72399e-08
1.97799e-07
5.46266e-08
1.95169e-07
4.57405e-08
1.91832e-07
3.88479e-08
1.88103e-07
3.39235e-08
1.84154e-07
3.00742e-08
1.80137e-07
2.68208e-08
1.76163e-07
2.4038e-08
1.72299e-07
2.16601e-08
1.68584e-07
1.96174e-08
1.65039e-07
1.78492e-08
1.61672e-07
1.63085e-08
1.58482e-07
1.49584e-08
1.55466e-07
1.37693e-08
1.52616e-07
1.27166e-08
1.49924e-07
1.17803e-08
1.47381e-07
1.09437e-08
1.44976e-07
1.01928e-08
1.42702e-07
9.51598e-09
1.40549e-07
8.90336e-09
1.3851e-07
8.34654e-09
1.36576e-07
7.83833e-09
1.34741e-07
7.37255e-09
1.33e-07
6.9438e-09
1.31345e-07
6.54742e-09
1.29772e-07
6.17923e-09
1.28277e-07
5.83557e-09
1.26855e-07
5.51305e-09
1.25503e-07
5.20859e-09
1.24218e-07
4.91923e-09
1.22996e-07
4.64189e-09
1.21837e-07
4.37404e-09
1.20739e-07
4.11142e-09
1.19699e-07
3.85253e-09
1.1872e-07
3.58925e-09
1.17801e-07
3.32325e-09
1.16944e-07
3.03673e-09
1.16153e-07
2.73918e-09
1.15433e-07
2.39236e-09
1.14791e-07
2.02047e-09
1.14241e-07
1.54765e-09
1.13795e-07
1.02273e-09
1.13482e-07
2.92293e-10
1.1333e-07
-5.17595e-10
1.13379e-07
-1.77893e-09
1.13731e-07
-3.20253e-09
1.14387e-07
-4.87737e-09
-8.57374e-09
1.15134e-07
2.0082e-07
1.00395e-07
2.03774e-07
9.4356e-08
2.0535e-07
6.56638e-08
2.05654e-07
5.43223e-08
2.04827e-07
4.65677e-08
2.0335e-07
4.03243e-08
2.01405e-07
3.58689e-08
1.99076e-07
3.24033e-08
1.96471e-07
2.9426e-08
1.93692e-07
2.68163e-08
1.90822e-07
2.45304e-08
1.87921e-07
2.25191e-08
1.85032e-07
2.07378e-08
1.82188e-07
1.91521e-08
1.79412e-07
1.7735e-08
1.76717e-07
1.64644e-08
1.74112e-07
1.53215e-08
1.71602e-07
1.42902e-08
1.69189e-07
1.33567e-08
1.66873e-07
1.25091e-08
1.64652e-07
1.17371e-08
1.62523e-07
1.10317e-08
1.60485e-07
1.03851e-08
1.58533e-07
9.79035e-09
1.56664e-07
9.24143e-09
1.54875e-07
8.73291e-09
1.53162e-07
8.26004e-09
1.51523e-07
7.81845e-09
1.49954e-07
7.40432e-09
1.48453e-07
7.01397e-09
1.47018e-07
6.64408e-09
1.45646e-07
6.29138e-09
1.44335e-07
5.95244e-09
1.43085e-07
5.62439e-09
1.41894e-07
5.30241e-09
1.40762e-07
4.98467e-09
1.39689e-07
4.66203e-09
1.38676e-07
4.33597e-09
1.37726e-07
3.98663e-09
1.36842e-07
3.62353e-09
1.36029e-07
3.20476e-09
1.35296e-07
2.75406e-09
1.34653e-07
2.19035e-09
1.34117e-07
1.55835e-09
1.33709e-07
7.01032e-10
1.33469e-07
-2.78044e-10
1.33411e-07
-1.72069e-09
1.3366e-07
-3.452e-09
1.34232e-07
-5.44945e-09
-9.29533e-09
1.34954e-07
2.06423e-07
9.35037e-08
2.09334e-07
9.14457e-08
2.11061e-07
6.39364e-08
2.11945e-07
5.34386e-08
2.12011e-07
4.65013e-08
2.11629e-07
4.07064e-08
2.10902e-07
3.65962e-08
2.09832e-07
3.3473e-08
2.08459e-07
3.07991e-08
2.06841e-07
2.84339e-08
2.05035e-07
2.63364e-08
2.0309e-07
2.44641e-08
2.01049e-07
2.27789e-08
1.98948e-07
2.12532e-08
1.96816e-07
1.98667e-08
1.94677e-07
1.86033e-08
1.92549e-07
1.74494e-08
1.90447e-07
1.63931e-08
1.88379e-07
1.54242e-08
1.86355e-07
1.45336e-08
1.84379e-07
1.37131e-08
1.82455e-07
1.29557e-08
1.80585e-07
1.22546e-08
1.78771e-07
1.16041e-08
1.77014e-07
1.09988e-08
1.75313e-07
1.04337e-08
1.73669e-07
9.90448e-09
1.7208e-07
9.40704e-09
1.70547e-07
8.93769e-09
1.69068e-07
8.49278e-09
1.67643e-07
8.069e-09
1.66271e-07
7.66299e-09
1.64953e-07
7.27119e-09
1.63686e-07
6.89052e-09
1.62473e-07
6.51583e-09
1.61313e-07
6.145e-09
1.60207e-07
5.76813e-09
1.59156e-07
5.38635e-09
1.58164e-07
4.97841e-09
1.57235e-07
4.55304e-09
1.56373e-07
4.06642e-09
1.55588e-07
3.5393e-09
1.54888e-07
2.89004e-09
1.54294e-07
2.15232e-09
1.53818e-07
1.17775e-09
1.5351e-07
3.00388e-11
1.53368e-07
-1.57889e-09
1.53514e-07
-3.59866e-09
1.54007e-07
-5.94214e-09
-1.0004e-08
1.54716e-07
2.12269e-07
8.68965e-08
2.15142e-07
8.85727e-08
2.16816e-07
6.22629e-08
2.17859e-07
5.23953e-08
2.18271e-07
4.60897e-08
2.18391e-07
4.05864e-08
2.18317e-07
3.66699e-08
2.18018e-07
3.3772e-08
2.17488e-07
3.13294e-08
2.16745e-07
2.91765e-08
2.15815e-07
2.72669e-08
2.14722e-07
2.5557e-08
2.13493e-07
2.4008e-08
2.12153e-07
2.25928e-08
2.10727e-07
2.1293e-08
2.09235e-07
2.00949e-08
2.07697e-07
1.89875e-08
2.06128e-07
1.79619e-08
2.04542e-07
1.70102e-08
2.0295e-07
1.61256e-08
2.01362e-07
1.5302e-08
1.99783e-07
1.45339e-08
1.98222e-07
1.38163e-08
1.96682e-07
1.31443e-08
1.95167e-07
1.25136e-08
1.9368e-07
1.19201e-08
1.92225e-07
1.13601e-08
1.90802e-07
1.08298e-08
1.89414e-07
1.03259e-08
1.88061e-07
9.84519e-09
1.86746e-07
9.38441e-09
1.85468e-07
8.94036e-09
1.8423e-07
8.50947e-09
1.83032e-07
8.08867e-09
1.81875e-07
7.67257e-09
1.80761e-07
7.25892e-09
1.79692e-07
6.83728e-09
1.7867e-07
6.40836e-09
1.77699e-07
5.95006e-09
1.76782e-07
5.46973e-09
1.75925e-07
4.92318e-09
1.75138e-07
4.32611e-09
1.74428e-07
3.60031e-09
1.73817e-07
2.76338e-09
1.73311e-07
1.68345e-09
1.72963e-07
3.77922e-10
1.7277e-07
-1.38515e-09
1.72832e-07
-3.66097e-09
1.73245e-07
-6.35531e-09
-1.07042e-08
1.73945e-07
2.18315e-07
8.05619e-08
2.21192e-07
8.56962e-08
2.22789e-07
6.06659e-08
2.23861e-07
5.13236e-08
2.24381e-07
4.55696e-08
2.24678e-07
4.02889e-08
2.24881e-07
3.64672e-08
2.2496e-07
3.36928e-08
2.24895e-07
3.13944e-08
2.24687e-07
2.93851e-08
2.24339e-07
2.76143e-08
2.2386e-07
2.60366e-08
2.23257e-07
2.46104e-08
2.22544e-07
2.33063e-08
2.21732e-07
2.21046e-08
2.20836e-07
2.09913e-08
2.19867e-07
1.99557e-08
2.1884e-07
1.89895e-08
2.17764e-07
1.80859e-08
2.1665e-07
1.72392e-08
2.15508e-07
1.64444e-08
2.14345e-07
1.56971e-08
2.13168e-07
1.49931e-08
2.11983e-07
1.43288e-08
2.10797e-07
1.37005e-08
2.09612e-07
1.31048e-08
2.08434e-07
1.25384e-08
2.07265e-07
1.19983e-08
2.0611e-07
1.14815e-08
2.0497e-07
1.09849e-08
2.03848e-07
1.05059e-08
2.02748e-07
1.00411e-08
2.0167e-07
9.58736e-09
2.00617e-07
9.14147e-09
1.99592e-07
8.698e-09
1.98596e-07
8.25462e-09
1.97633e-07
7.80052e-09
1.96705e-07
7.33596e-09
1.95817e-07
6.83851e-09
1.94973e-07
6.31355e-09
1.94178e-07
5.71801e-09
1.93443e-07
5.06088e-09
1.92773e-07
4.27033e-09
1.92191e-07
3.34558e-09
1.91701e-07
2.17381e-09
1.91349e-07
7.29381e-10
1.91138e-07
-1.17362e-09
1.91147e-07
-3.67078e-09
1.91487e-07
-6.69532e-09
-1.13807e-08
1.92164e-07
2.24549e-07
7.45061e-08
2.27452e-07
8.27934e-08
2.28985e-07
5.91327e-08
2.30064e-07
5.02446e-08
2.30625e-07
4.50089e-08
2.30971e-07
3.99428e-08
2.31263e-07
3.61749e-08
2.3149e-07
3.34656e-08
2.31634e-07
3.12508e-08
2.31692e-07
2.93266e-08
2.31665e-07
2.76414e-08
2.31551e-07
2.61508e-08
2.3135e-07
2.48117e-08
2.31064e-07
2.35924e-08
2.30697e-07
2.24715e-08
2.30254e-07
2.14337e-08
2.29743e-07
2.04674e-08
2.29168e-07
1.95639e-08
2.28538e-07
1.87161e-08
2.27859e-07
1.79185e-08
2.27137e-07
1.71663e-08
2.26379e-07
1.64554e-08
2.25589e-07
1.57822e-08
2.24775e-07
1.51433e-08
2.2394e-07
1.45356e-08
2.23089e-07
1.39559e-08
2.22226e-07
1.34015e-08
2.21354e-07
1.28695e-08
2.20479e-07
1.23572e-08
2.19602e-07
1.18619e-08
2.18727e-07
1.1381e-08
2.17856e-07
1.09114e-08
2.16994e-07
1.04499e-08
2.16142e-07
9.99348e-09
2.15303e-07
9.53658e-09
2.14481e-07
9.07683e-09
2.13678e-07
8.6032e-09
2.12899e-07
8.11534e-09
2.12146e-07
7.59104e-09
2.11427e-07
7.03313e-09
2.10744e-07
6.4009e-09
2.10109e-07
5.6957e-09
2.09526e-07
4.85352e-09
2.09016e-07
3.85568e-09
2.08583e-07
2.60699e-09
2.08266e-07
1.04649e-09
2.08069e-07
-9.77278e-10
2.08061e-07
-3.66218e-09
2.08345e-07
-6.98004e-09
-1.20086e-08
2.08973e-07
2.30975e-07
6.87371e-08
2.33913e-07
7.98556e-08
2.35389e-07
5.76566e-08
2.36476e-07
4.91572e-08
2.3707e-07
4.44152e-08
2.37431e-07
3.95817e-08
2.37745e-07
3.58608e-08
2.38018e-07
3.31924e-08
2.38238e-07
3.10316e-08
2.38405e-07
2.9159e-08
2.38523e-07
2.75232e-08
2.38591e-07
2.60835e-08
2.38605e-07
2.47976e-08
2.38564e-07
2.36328e-08
2.38469e-07
2.25666e-08
2.3832e-07
2.15829e-08
2.38118e-07
2.06692e-08
2.37866e-07
1.98161e-08
2.37566e-07
1.9016e-08
2.37222e-07
1.82629e-08
2.36836e-07
1.7552e-08
2.36413e-07
1.6879e-08
2.35955e-07
1.62402e-08
2.35466e-07
1.56323e-08
2.34949e-07
1.50522e-08
2.34408e-07
1.44969e-08
2.33846e-07
1.39637e-08
2.33265e-07
1.34498e-08
2.3267e-07
1.29527e-08
2.32062e-07
1.24696e-08
2.31445e-07
1.19979e-08
2.30822e-07
1.15348e-08
2.30195e-07
1.10769e-08
2.29567e-07
1.06213e-08
2.28941e-07
1.01623e-08
2.28321e-07
9.69728e-09
2.27709e-07
9.21529e-09
2.27109e-07
8.71511e-09
2.26525e-07
8.17519e-09
2.25963e-07
7.59544e-09
2.25425e-07
6.93825e-09
2.24924e-07
6.19717e-09
2.24461e-07
5.31626e-09
2.24056e-07
4.26099e-09
2.23712e-07
2.95105e-09
2.2346e-07
1.29762e-09
2.23308e-07
-8.24307e-10
2.23308e-07
-3.66278e-09
2.2356e-07
-7.23211e-09
-1.25686e-08
2.2412e-07
2.37601e-07
6.32606e-08
2.40578e-07
7.68785e-08
2.41998e-07
5.62374e-08
2.43092e-07
4.80626e-08
2.43723e-07
4.37848e-08
2.44097e-07
3.92076e-08
2.44416e-07
3.55412e-08
2.44702e-07
3.29066e-08
2.44944e-07
3.07896e-08
2.45148e-07
2.89548e-08
2.45321e-07
2.73506e-08
2.45463e-07
2.59413e-08
2.45574e-07
2.46865e-08
2.45653e-07
2.35539e-08
2.45699e-07
2.25207e-08
2.45711e-07
2.15706e-08
2.45689e-07
2.0691e-08
2.45634e-07
1.98718e-08
2.45544e-07
1.91052e-08
2.45422e-07
1.8385e-08
2.45268e-07
1.77058e-08
2.45084e-07
1.70634e-08
2.4487e-07
1.64538e-08
2.44629e-07
1.58736e-08
2.44362e-07
1.53195e-08
2.4407e-07
1.47885e-08
2.43756e-07
1.42777e-08
2.43422e-07
1.37843e-08
2.43069e-07
1.33057e-08
2.42699e-07
1.28391e-08
2.42315e-07
1.23817e-08
2.41919e-07
1.19308e-08
2.41514e-07
1.14827e-08
2.41101e-07
1.10345e-08
2.40682e-07
1.05804e-08
2.40262e-07
1.01175e-08
2.39842e-07
9.63498e-09
2.39427e-07
9.13048e-09
2.39019e-07
8.58349e-09
2.38623e-07
7.99077e-09
2.38244e-07
7.31818e-09
2.37889e-07
6.55186e-09
2.37562e-07
5.64342e-09
2.37278e-07
4.54517e-09
2.3704e-07
3.1889e-09
2.36873e-07
1.46431e-09
2.36783e-07
-7.33896e-10
2.3681e-07
-3.69023e-09
2.37046e-07
-7.46845e-09
-1.3052e-08
2.3753e-07
2.44436e-07
5.80803e-08
2.47452e-07
7.38628e-08
2.48816e-07
5.48735e-08
2.49914e-07
4.6965e-08
2.50582e-07
4.31159e-08
2.50973e-07
3.88169e-08
2.51297e-07
3.5217e-08
2.51589e-07
3.26152e-08
2.51838e-07
3.05401e-08
2.52053e-07
2.87399e-08
2.52243e-07
2.71611e-08
2.52411e-07
2.57733e-08
2.52558e-07
2.45389e-08
2.52686e-07
2.34262e-08
2.52794e-07
2.24128e-08
2.52882e-07
2.14826e-08
2.5295e-07
2.06231e-08
2.52997e-07
1.98244e-08
2.53024e-07
1.90785e-08
2.5303e-07
1.83791e-08
2.53015e-07
1.77209e-08
2.52979e-07
1.70993e-08
2.52922e-07
1.65103e-08
2.52846e-07
1.59504e-08
2.52749e-07
1.54162e-08
2.52633e-07
1.49044e-08
2.52499e-07
1.44122e-08
2.52346e-07
1.39366e-08
2.52177e-07
1.34747e-08
2.51993e-07
1.30237e-08
2.51794e-07
1.25807e-08
2.51582e-07
1.21427e-08
2.51359e-07
1.17059e-08
2.51126e-07
1.12674e-08
2.50885e-07
1.0821e-08
2.50639e-07
1.03637e-08
2.50389e-07
9.88453e-09
2.5014e-07
9.38019e-09
2.49892e-07
8.83132e-09
2.49651e-07
8.23145e-09
2.49419e-07
7.55001e-09
2.49205e-07
6.76647e-09
2.49009e-07
5.83909e-09
2.48845e-07
4.70973e-09
2.48714e-07
3.31975e-09
2.48635e-07
1.54323e-09
2.48613e-07
-7.12178e-10
2.48675e-07
-3.75225e-09
2.48901e-07
-7.6947e-09
-1.34561e-08
2.49305e-07
2.51489e-07
5.31982e-08
2.54533e-07
7.08188e-08
2.55852e-07
5.3554e-08
2.56947e-07
4.58701e-08
2.57654e-07
4.24093e-08
2.58064e-07
3.84069e-08
2.58394e-07
3.4887e-08
2.58691e-07
3.23185e-08
2.58945e-07
3.02853e-08
2.59165e-07
2.85204e-08
2.5936e-07
2.69663e-08
2.59535e-07
2.55975e-08
2.59695e-07
2.43795e-08
2.5984e-07
2.32815e-08
2.59971e-07
2.22816e-08
2.60089e-07
2.13641e-08
2.60195e-07
2.05169e-08
2.60289e-07
1.97304e-08
2.60371e-07
1.89967e-08
2.60441e-07
1.83095e-08
2.60498e-07
1.76637e-08
2.60543e-07
1.70546e-08
2.60574e-07
1.64784e-08
2.60593e-07
1.59314e-08
2.60599e-07
1.54103e-08
2.60592e-07
1.49116e-08
2.60572e-07
1.44325e-08
2.60539e-07
1.39698e-08
2.60493e-07
1.35204e-08
2.60435e-07
1.30816e-08
2.60366e-07
1.265e-08
2.60286e-07
1.22227e-08
2.60196e-07
1.17958e-08
2.60097e-07
1.13659e-08
2.59991e-07
1.0927e-08
2.5988e-07
1.04754e-08
2.59764e-07
1.00006e-08
2.59646e-07
9.49787e-09
2.59528e-07
8.94926e-09
2.59414e-07
8.34522e-09
2.59306e-07
7.6585e-09
2.59209e-07
6.86294e-09
2.59126e-07
5.92232e-09
2.59065e-07
4.7708e-09
2.59028e-07
3.35664e-09
2.59027e-07
1.54428e-09
2.59067e-07
-7.52541e-10
2.59162e-07
-3.84706e-09
2.59374e-07
-7.90613e-09
-1.37797e-08
2.59697e-07
2.58767e-07
4.86147e-08
2.61828e-07
6.7757e-08
2.63115e-07
5.22677e-08
2.64202e-07
4.47827e-08
2.64944e-07
4.16672e-08
2.65375e-07
3.79756e-08
2.65712e-07
3.45502e-08
2.66015e-07
3.20161e-08
2.66275e-07
3.00251e-08
2.66498e-07
2.82972e-08
2.66696e-07
2.67686e-08
2.66875e-07
2.54187e-08
2.67038e-07
2.42162e-08
2.67188e-07
2.31315e-08
2.67327e-07
2.21429e-08
2.67455e-07
2.12353e-08
2.67576e-07
2.03968e-08
2.67688e-07
1.96183e-08
2.67792e-07
1.88922e-08
2.67889e-07
1.82124e-08
2.67979e-07
1.75737e-08
2.68062e-07
1.69719e-08
2.68137e-07
1.6403e-08
2.68205e-07
1.58636e-08
2.68265e-07
1.53502e-08
2.68317e-07
1.48596e-08
2.68361e-07
1.43886e-08
2.68397e-07
1.39341e-08
2.68424e-07
1.3493e-08
2.68444e-07
1.30622e-08
2.68455e-07
1.26386e-08
2.68459e-07
1.22188e-08
2.68456e-07
1.17989e-08
2.68446e-07
1.13753e-08
2.68431e-07
1.09419e-08
2.68412e-07
1.04947e-08
2.68389e-07
1.00232e-08
2.68366e-07
9.52166e-09
2.68342e-07
8.97339e-09
2.68321e-07
8.36608e-09
2.68304e-07
7.67544e-09
2.68296e-07
6.87078e-09
2.68298e-07
5.92021e-09
2.68316e-07
4.75285e-09
2.68351e-07
3.32131e-09
2.6841e-07
1.48552e-09
2.68497e-07
-8.39162e-10
2.68614e-07
-3.96447e-09
2.688e-07
-8.09204e-09
-1.40125e-08
2.69033e-07
2.66279e-07
4.43283e-08
2.69348e-07
6.46879e-08
2.70611e-07
5.10041e-08
2.71687e-07
4.37072e-08
2.72461e-07
4.08928e-08
2.72915e-07
3.75213e-08
2.7326e-07
3.42058e-08
2.73568e-07
3.17079e-08
2.73834e-07
2.9759e-08
2.74062e-07
2.80697e-08
2.74262e-07
2.65681e-08
2.74443e-07
2.52377e-08
2.74608e-07
2.4051e-08
2.7476e-07
2.29794e-08
2.74902e-07
2.20017e-08
2.75034e-07
2.1103e-08
2.75158e-07
2.02722e-08
2.75277e-07
1.95002e-08
2.75389e-07
1.87797e-08
2.75497e-07
1.81049e-08
2.75599e-07
1.74709e-08
2.75698e-07
1.68735e-08
2.75792e-07
1.6309e-08
2.75882e-07
1.57739e-08
2.75967e-07
1.5265e-08
2.76047e-07
1.4779e-08
2.76123e-07
1.43128e-08
2.76194e-07
1.38632e-08
2.7626e-07
1.34271e-08
2.76321e-07
1.30013e-08
2.76377e-07
1.25825e-08
2.76428e-07
1.21674e-08
2.76475e-07
1.17518e-08
2.76519e-07
1.13321e-08
2.76559e-07
1.0902e-08
2.76596e-07
1.04571e-08
2.76632e-07
9.9874e-09
2.76668e-07
9.48582e-09
2.76704e-07
8.937e-09
2.76744e-07
8.32626e-09
2.76788e-07
7.63182e-09
2.76839e-07
6.81967e-09
2.76898e-07
5.86089e-09
2.76969e-07
4.68206e-09
2.77052e-07
3.23805e-09
2.77149e-07
1.38855e-09
2.77262e-07
-9.52244e-10
2.77386e-07
-4.08866e-09
2.77535e-07
-8.24121e-09
-1.4147e-08
2.7767e-07
2.74033e-07
4.03362e-08
2.77099e-07
6.16226e-08
2.7835e-07
4.97529e-08
2.7941e-07
4.26472e-08
2.80213e-07
4.00898e-08
2.80692e-07
3.70425e-08
2.81045e-07
3.3853e-08
2.81358e-07
3.1394e-08
2.81631e-07
2.94868e-08
2.81863e-07
2.78376e-08
2.82066e-07
2.63645e-08
2.8225e-07
2.50545e-08
2.82417e-07
2.3884e-08
2.8257e-07
2.28258e-08
2.82713e-07
2.18591e-08
2.82846e-07
2.09694e-08
2.82973e-07
2.01459e-08
2.83093e-07
1.938e-08
2.83208e-07
1.86645e-08
2.83319e-07
1.79939e-08
2.83426e-07
1.73635e-08
2.8353e-07
1.67693e-08
2.83632e-07
1.62078e-08
2.8373e-07
1.56756e-08
2.83825e-07
1.51695e-08
2.83918e-07
1.46864e-08
2.84008e-07
1.42231e-08
2.84094e-07
1.37765e-08
2.84178e-07
1.33433e-08
2.84259e-07
1.29205e-08
2.84337e-07
1.25046e-08
2.84412e-07
1.20921e-08
2.84485e-07
1.1679e-08
2.84556e-07
1.12612e-08
2.84625e-07
1.08327e-08
2.84694e-07
1.03885e-08
2.84762e-07
9.91907e-09
2.84832e-07
9.41628e-09
2.84903e-07
8.86589e-09
2.84978e-07
8.25134e-09
2.85057e-07
7.55277e-09
2.85143e-07
6.73403e-09
2.85235e-07
5.76811e-09
2.85336e-07
4.58109e-09
2.85446e-07
3.12853e-09
2.85562e-07
1.27266e-09
2.85683e-07
-1.07346e-09
2.85799e-07
-4.20421e-09
2.859e-07
-8.34237e-09
-1.41726e-08
2.85925e-07
2.8204e-07
3.66335e-08
2.85091e-07
5.85719e-08
2.86339e-07
4.85046e-08
2.87381e-07
4.16055e-08
2.88208e-07
3.92626e-08
2.88713e-07
3.65379e-08
2.89075e-07
3.34906e-08
2.89395e-07
3.10744e-08
2.89673e-07
2.92084e-08
2.8991e-07
2.76004e-08
2.90117e-07
2.61575e-08
2.90303e-07
2.48687e-08
2.90472e-07
2.37151e-08
2.90627e-07
2.26707e-08
2.90771e-07
2.17153e-08
2.90905e-07
2.08348e-08
2.91032e-07
2.00188e-08
2.91154e-07
1.92588e-08
2.9127e-07
1.85483e-08
2.91382e-07
1.78817e-08
2.91491e-07
1.72546e-08
2.91597e-07
1.66632e-08
2.91701e-07
1.61042e-08
2.91802e-07
1.55742e-08
2.91901e-07
1.50703e-08
2.91998e-07
1.45892e-08
2.92094e-07
1.4128e-08
2.92187e-07
1.36834e-08
2.92278e-07
1.32522e-08
2.92367e-07
1.28313e-08
2.92454e-07
1.24171e-08
2.9254e-07
1.20062e-08
2.92625e-07
1.15943e-08
2.92709e-07
1.11774e-08
2.92792e-07
1.07494e-08
2.92876e-07
1.03048e-08
2.9296e-07
9.83475e-09
2.93046e-07
9.33001e-09
2.93135e-07
8.77735e-09
2.93227e-07
8.15882e-09
2.93324e-07
7.45595e-09
2.93427e-07
6.63153e-09
2.93535e-07
5.65948e-09
2.93649e-07
4.46705e-09
2.93768e-07
3.00959e-09
2.93887e-07
1.15394e-09
2.94001e-07
-1.18733e-09
2.94093e-07
-4.29605e-09
2.94135e-07
-8.3844e-09
-1.40812e-08
2.94043e-07
2.90309e-07
3.32138e-08
2.93333e-07
5.55471e-08
2.94588e-07
4.72503e-08
2.95609e-07
4.05843e-08
2.96455e-07
3.84162e-08
2.96987e-07
3.60065e-08
2.9736e-07
3.31174e-08
2.97685e-07
3.07493e-08
2.9797e-07
2.89237e-08
2.98212e-07
2.73579e-08
2.98423e-07
2.59468e-08
2.98611e-07
2.46803e-08
2.98782e-07
2.3544e-08
2.98939e-07
2.25139e-08
2.99084e-07
2.15702e-08
2.9922e-07
2.06992e-08
2.99348e-07
1.98907e-08
2.9947e-07
1.91369e-08
2.99587e-07
1.84313e-08
2.997e-07
1.77688e-08
2.99809e-07
1.7145e-08
2.99916e-07
1.65563e-08
3.00021e-07
1.59996e-08
3.00123e-07
1.54717e-08
3.00224e-07
1.49697e-08
3.00323e-07
1.44905e-08
3.0042e-07
1.4031e-08
3.00515e-07
1.3588e-08
3.00609e-07
1.31584e-08
3.00701e-07
1.27389e-08
3.00793e-07
1.2326e-08
3.00883e-07
1.19161e-08
3.00972e-07
1.15049e-08
3.01061e-07
1.10883e-08
3.0115e-07
1.06602e-08
3.0124e-07
1.02149e-08
3.01331e-07
9.74371e-09
3.01424e-07
9.23675e-09
3.0152e-07
8.68153e-09
3.0162e-07
8.05921e-09
3.01724e-07
7.35223e-09
3.01832e-07
6.5232e-09
3.01945e-07
5.54634e-09
3.02061e-07
4.35125e-09
3.02178e-07
2.89273e-09
3.02288e-07
1.04359e-09
3.02383e-07
-1.2826e-09
3.0244e-07
-4.35284e-09
3.02415e-07
-8.35936e-09
-1.38699e-08
3.02204e-07
2.98848e-07
3.00688e-08
3.01835e-07
5.25594e-08
3.03103e-07
4.59821e-08
3.04103e-07
3.95847e-08
3.04963e-07
3.75559e-08
3.05522e-07
3.54477e-08
3.05908e-07
3.27319e-08
3.06238e-07
3.04186e-08
3.06529e-07
2.86328e-08
3.06777e-07
2.71098e-08
3.06992e-07
2.57321e-08
3.07183e-07
2.4489e-08
3.07357e-07
2.33705e-08
3.07516e-07
2.23552e-08
3.07662e-07
2.14235e-08
3.07799e-07
2.05622e-08
3.07928e-07
1.97617e-08
3.08051e-07
1.90142e-08
3.08169e-07
1.83137e-08
3.08282e-07
1.76552e-08
3.08393e-07
1.70347e-08
3.085e-07
1.64488e-08
3.08605e-07
1.58945e-08
3.08708e-07
1.53687e-08
3.08809e-07
1.48685e-08
3.08909e-07
1.4391e-08
3.09007e-07
1.39332e-08
3.09103e-07
1.34918e-08
3.09198e-07
1.30636e-08
3.09291e-07
1.26455e-08
3.09384e-07
1.22336e-08
3.09475e-07
1.18246e-08
3.09566e-07
1.1414e-08
3.09657e-07
1.09975e-08
3.09748e-07
1.05692e-08
3.0984e-07
1.0123e-08
3.09933e-07
9.65052e-09
3.10028e-07
9.14142e-09
3.10126e-07
8.58372e-09
3.10227e-07
7.95812e-09
3.10332e-07
7.24758e-09
3.1044e-07
6.41529e-09
3.10551e-07
5.4353e-09
3.10662e-07
4.24046e-09
3.10769e-07
2.78509e-09
3.10864e-07
9.4888e-10
3.10933e-07
-1.35177e-09
3.10947e-07
-4.36672e-09
3.1085e-07
-8.26202e-09
-1.3539e-08
3.10519e-07
3.07667e-07
2.7189e-08
3.10607e-07
4.962e-08
3.11895e-07
4.46932e-08
3.12873e-07
3.86073e-08
3.13742e-07
3.66869e-08
3.14328e-07
3.48616e-08
3.14727e-07
3.23325e-08
3.15064e-07
3.0082e-08
3.15361e-07
2.83357e-08
3.15615e-07
2.68557e-08
3.15834e-07
2.5513e-08
3.16029e-07
2.42945e-08
3.16205e-07
2.31946e-08
3.16365e-07
2.21944e-08
3.16514e-07
2.12752e-08
3.16652e-07
2.04239e-08
3.16782e-07
1.96314e-08
3.16906e-07
1.88904e-08
3.17025e-07
1.81951e-08
3.17139e-07
1.75409e-08
3.1725e-07
1.69238e-08
3.17358e-07
1.63407e-08
3.17464e-07
1.57887e-08
3.17567e-07
1.5265e-08
3.17669e-07
1.47668e-08
3.17769e-07
1.42911e-08
3.17867e-07
1.38349e-08
3.17964e-07
1.33951e-08
3.18059e-07
1.29684e-08
3.18153e-07
1.25515e-08
3.18246e-07
1.21408e-08
3.18338e-07
1.17326e-08
3.18429e-07
1.13226e-08
3.1852e-07
1.09062e-08
3.18612e-07
1.04778e-08
3.18704e-07
1.00308e-08
3.18797e-07
9.5572e-09
3.18892e-07
9.04627e-09
3.1899e-07
8.48643e-09
3.1909e-07
7.8583e-09
3.19192e-07
7.14504e-09
3.19296e-07
6.31103e-09
3.19402e-07
5.32996e-09
3.19504e-07
4.13849e-09
3.19598e-07
2.69086e-09
3.19672e-07
8.74461e-10
3.19711e-07
-1.39018e-09
3.19677e-07
-4.33261e-09
3.19504e-07
-8.08981e-09
-1.30922e-08
3.19058e-07
3.16777e-07
2.45629e-08
3.19657e-07
4.674e-08
3.20972e-07
4.3378e-08
3.21928e-07
3.76517e-08
3.22801e-07
3.58142e-08
3.23413e-07
3.4249e-08
3.23828e-07
3.19178e-08
3.24171e-07
2.97392e-08
3.24474e-07
2.80325e-08
3.24734e-07
2.65954e-08
3.24958e-07
2.52893e-08
3.25156e-07
2.40966e-08
3.25335e-07
2.30159e-08
3.25498e-07
2.20313e-08
3.25648e-07
2.11249e-08
3.25788e-07
2.02841e-08
3.25919e-07
1.94999e-08
3.26044e-07
1.87656e-08
3.26164e-07
1.80756e-08
3.26279e-07
1.74257e-08
3.26391e-07
1.68121e-08
3.265e-07
1.62319e-08
3.26606e-07
1.56824e-08
3.2671e-07
1.51608e-08
3.26813e-07
1.46645e-08
3.26913e-07
1.41907e-08
3.27012e-07
1.37362e-08
3.27109e-07
1.32981e-08
3.27204e-07
1.28729e-08
3.27298e-07
1.24574e-08
3.27391e-07
1.20478e-08
3.27483e-07
1.16405e-08
3.27575e-07
1.12312e-08
3.27666e-07
1.08151e-08
3.27757e-07
1.03866e-08
3.27849e-07
9.93905e-09
3.27942e-07
9.46456e-09
3.28036e-07
8.95226e-09
3.28131e-07
8.39078e-09
3.28229e-07
7.76099e-09
3.28328e-07
7.04611e-09
3.28426e-07
6.21208e-09
3.28524e-07
5.23226e-09
3.28615e-07
4.0475e-09
3.28693e-07
2.61255e-09
3.28745e-07
8.23027e-10
3.28749e-07
-1.39464e-09
3.28664e-07
-4.2477e-09
3.28417e-07
-7.8422e-09
-1.25356e-08
3.2786e-07
3.26188e-07
2.21779e-08
3.28997e-07
4.39302e-08
3.30343e-07
4.20323e-08
3.31278e-07
3.67167e-08
3.3215e-07
3.49426e-08
3.32787e-07
3.36113e-08
3.33219e-07
3.14863e-08
3.33568e-07
2.93897e-08
3.33877e-07
2.77232e-08
3.34144e-07
2.63287e-08
3.34373e-07
2.50604e-08
3.34575e-07
2.3895e-08
3.34756e-07
2.28343e-08
3.34922e-07
2.18657e-08
3.35074e-07
2.09726e-08
3.35216e-07
2.01425e-08
3.35349e-07
1.93669e-08
3.35475e-07
1.86394e-08
3.35596e-07
1.7955e-08
3.35712e-07
1.73094e-08
3.35825e-07
1.66994e-08
3.35934e-07
1.61222e-08
3.36041e-07
1.55752e-08
3.36146e-07
1.50559e-08
3.36249e-07
1.45616e-08
3.3635e-07
1.40897e-08