/*--------------------------------*- C++ -*----------------------------------*\
  =========                 |
  \\      /  F ield         | OpenFOAM: The Open Source CFD Toolbox
   \\    /   O peration     | Website:  https://openfoam.org
    \\  /    A nd           | Version:  7
     \\/     M anipulation  |
\*---------------------------------------------------------------------------*/
FoamFile
{
    version     2.0;
    format      ascii;
    class       volVectorField;
    location    "0.47";
    object      U;
}
// * * * * * * * * * * * * * * * * * * * * * * * * * * * * * * * * * * * * * //

dimensions      [0 1 -1 0 0 0 0];

internalField   nonuniform List<vector> 
70000
(
(0.553414 0.0169781 0)
(0.251423 0.00340037 0)
(0.165935 0.000318934 0)
(0.132455 4.89877e-05 0)
(0.117352 4.40366e-05 0)
(0.107396 5.21981e-05 0)
(0.0994288 4.43911e-05 0)
(0.0929908 3.53044e-05 0)
(0.087754 2.92536e-05 0)
(0.0833938 2.5101e-05 0)
(0.0796817 2.1924e-05 0)
(0.0764698 1.93749e-05 0)
(0.0736567 1.72947e-05 0)
(0.0711679 1.55743e-05 0)
(0.0689473 1.41323e-05 0)
(0.0669513 1.29082e-05 0)
(0.065146 1.18566e-05 0)
(0.063504 1.09433e-05 0)
(0.0620035 1.0142e-05 0)
(0.0606264 9.43253e-06 0)
(0.0593581 8.79842e-06 0)
(0.058186 8.22681e-06 0)
(0.0571 7.70662e-06 0)
(0.0560913 7.22893e-06 0)
(0.0551525 6.78501e-06 0)
(0.0542774 6.36834e-06 0)
(0.0534607 5.97062e-06 0)
(0.0526981 5.58715e-06 0)
(0.0519858 5.20778e-06 0)
(0.0513209 4.83021e-06 0)
(0.0507011 4.43847e-06 0)
(0.0501246 4.03478e-06 0)
(0.0495907 3.59042e-06 0)
(0.0490985 3.1157e-06 0)
(0.0486493 2.56341e-06 0)
(0.0482438 1.94251e-06 0)
(0.0478849 1.20538e-06 0)
(0.0475777 2.94424e-07 0)
(0.0473239 -7.24482e-07 0)
(0.0471419 -2.21907e-06 0)
(0.0470219 -3.62678e-06 0)
(0.0470194 -6.31282e-06 0)
(0.0470832 -8.37618e-06 0)
(0.0473659 -1.31715e-05 0)
(0.0476947 -1.48145e-05 0)
(0.0484809 -2.58401e-05 0)
(0.0491335 -2.07702e-05 0)
(0.0510537 -5.68635e-05 0)
(0.0515845 3.2294e-05 0)
(0.0530543 -0.0021823 0)
(0.884864 0.043493 0)
(0.650158 0.0201486 0)
(0.493996 0.00660452 0)
(0.403577 0.00275477 0)
(0.354867 0.00154799 0)
(0.323554 0.00113162 0)
(0.299659 0.000909044 0)
(0.28046 0.000744268 0)
(0.26476 0.000621389 0)
(0.251657 0.000530747 0)
(0.240498 0.000461927 0)
(0.230841 0.000407773 0)
(0.222379 0.000364023 0)
(0.214889 0.000328016 0)
(0.208202 0.000297934 0)
(0.202189 0.000272471 0)
(0.196746 0.000250667 0)
(0.191792 0.000231801 0)
(0.187262 0.000215325 0)
(0.183102 0.000200812 0)
(0.179267 0.000187928 0)
(0.17572 0.000176404 0)
(0.17243 0.000166022 0)
(0.16937 0.0001566 0)
(0.166519 0.000147985 0)
(0.163856 0.000140045 0)
(0.161366 0.000132664 0)
(0.159035 0.000125737 0)
(0.156852 0.000119164 0)
(0.154806 0.000112859 0)
(0.15289 0.000106709 0)
(0.151097 0.000100638 0)
(0.149423 9.44901e-05 0)
(0.147863 8.82012e-05 0)
(0.146418 8.15081e-05 0)
(0.145088 7.4356e-05 0)
(0.143877 6.63019e-05 0)
(0.142793 5.72406e-05 0)
(0.141837 4.65167e-05 0)
(0.14105 3.36749e-05 0)
(0.1404 1.8123e-05 0)
(0.140023 -1.90087e-06 0)
(0.139772 -2.5737e-05 0)
(0.140038 -6.07129e-05 0)
(0.140348 -0.000100198 0)
(0.141752 -0.000163862 0)
(0.142753 -0.000223742 0)
(0.146746 -0.000370763 0)
(0.147512 -0.000171435 0)
(0.155491 -0.00359724 0)
(0.991209 0.049955 0)
(0.890934 0.0305619 0)
(0.762513 0.0146102 0)
(0.656561 0.00797098 0)
(0.585455 0.00487997 0)
(0.536083 0.00347474 0)
(0.498189 0.00273814 0)
(0.467564 0.00224331 0)
(0.442261 0.00187905 0)
(0.420972 0.00160699 0)
(0.402745 0.00139925 0)
(0.386912 0.00123577 0)
(0.372995 0.00110379 0)
(0.360645 0.000995184 0)
(0.349595 0.000904429 0)
(0.339639 0.000827597 0)
(0.330612 0.000761799 0)
(0.322384 0.000704871 0)
(0.31485 0.000655162 0)
(0.307922 0.000611396 0)
(0.301527 0.000572567 0)
(0.295606 0.000537868 0)
(0.290107 0.000506645 0)
(0.284987 0.000478357 0)
(0.280209 0.000452548 0)
(0.275742 0.000428832 0)
(0.271559 0.00040687 0)
(0.267637 0.000386365 0)
(0.263957 0.000367038 0)
(0.2605 0.000348641 0)
(0.257255 0.000330898 0)
(0.254208 0.000313585 0)
(0.251351 0.00029635 0)
(0.248676 0.00027899 0)
(0.246182 0.000260921 0)
(0.243863 0.000242001 0)
(0.241724 0.000221128 0)
(0.239774 0.000198294 0)
(0.238009 0.000171395 0)
(0.236484 0.000140562 0)
(0.235144 0.000102089 0)
(0.234181 5.57965e-05 0)
(0.233372 -3.59383e-06 0)
(0.233263 -8.12907e-05 0)
(0.233171 -0.000183411 0)
(0.234556 -0.000321031 0)
(0.235316 -0.00049921 0)
(0.240111 -0.000780607 0)
(0.240473 -0.000768935 0)
(0.252796 -0.00407181 0)
(1.01554 0.0489529 0)
(1.0065 0.0357228 0)
(0.935908 0.0208185 0)
(0.852042 0.0134988 0)
(0.782268 0.00919882 0)
(0.727117 0.00678409 0)
(0.682024 0.00538721 0)
(0.644265 0.00444494 0)
(0.61226 0.00374917 0)
(0.584816 0.00322229 0)
(0.560991 0.0028153 0)
(0.540079 0.00249288 0)
(0.521548 0.00223146 0)
(0.504994 0.00201558 0)
(0.490101 0.00183467 0)
(0.47662 0.00168113 0)
(0.46435 0.00154936 0)
(0.453128 0.00143517 0)
(0.442821 0.00133533 0)
(0.433317 0.00124733 0)
(0.424525 0.0011692 0)
(0.416365 0.00109934 0)
(0.408772 0.00103647 0)
(0.401689 0.000979509 0)
(0.395067 0.000927569 0)
(0.388865 0.000879886 0)
(0.383047 0.000835799 0)
(0.377582 0.000794727 0)
(0.372444 0.000756143 0)
(0.367609 0.000719562 0)
(0.363059 0.000684493 0)
(0.358776 0.000650496 0)
(0.354748 0.000616981 0)
(0.350963 0.000583549 0)
(0.347417 0.000549239 0)
(0.344102 0.000513793 0)
(0.341019 0.000475292 0)
(0.338177 0.000433963 0)
(0.335568 0.000385693 0)
(0.333252 0.000331907 0)
(0.331163 0.000264024 0)
(0.329514 0.000185681 0)
(0.328048 8.01619e-05 0)
(0.327376 -4.52481e-05 0)
(0.326723 -0.000226198 0)
(0.327722 -0.000443665 0)
(0.328006 -0.000780326 0)
(0.332728 -0.00117894 0)
(0.332848 -0.00150478 0)
(0.345592 -0.0043911 0)
(1.01435 0.0460971 0)
(1.04799 0.0373394 0)
(1.02458 0.0241856 0)
(0.97471 0.0175577 0)
(0.923519 0.0131102 0)
(0.87679 0.0102066 0)
(0.834626 0.00834565 0)
(0.796882 0.00702127 0)
(0.763335 0.00600851 0)
(0.733547 0.00521911 0)
(0.707001 0.00459567 0)
(0.683228 0.00409386 0)
(0.661825 0.0036822 0)
(0.642459 0.00333914 0)
(0.624852 0.00304949 0)
(0.608774 0.00280214 0)
(0.594031 0.0025888 0)
(0.580461 0.00240311 0)
(0.567928 0.00224016 0)
(0.556316 0.00209611 0)
(0.545526 0.00196787 0)
(0.535473 0.00185297 0)
(0.526086 0.00174937 0)
(0.5173 0.00165539 0)
(0.509063 0.0015696 0)
(0.501326 0.0014908 0)
(0.49405 0.00141794 0)
(0.487197 0.0013501 0)
(0.480738 0.00128644 0)
(0.474646 0.0012262 0)
(0.468897 0.00116863 0)
(0.463472 0.00111303 0)
(0.458355 0.00105854 0)
(0.453531 0.00100452 0)
(0.448994 0.000949606 0)
(0.444733 0.000893396 0)
(0.440749 0.000833072 0)
(0.437047 0.000769154 0)
(0.433618 0.00069528 0)
(0.430522 0.000614448 0)
(0.42769 0.000512619 0)
(0.425335 0.000397909 0)
(0.4232 0.00024153 0)
(0.421889 6.1426e-05 0)
(0.420643 -0.000204468 0)
(0.421064 -0.000506806 0)
(0.420864 -0.00101505 0)
(0.424907 -0.00154638 0)
(0.425294 -0.00218778 0)
(0.436094 -0.00488149 0)
(1.00941 0.0430466 0)
(1.05564 0.0370943 0)
(1.05869 0.0253264 0)
(1.03633 0.0197622 0)
(1.00716 0.0157983 0)
(0.976154 0.0129347 0)
(0.944627 0.0109624 0)
(0.913761 0.00947716 0)
(0.884418 0.00828323 0)
(0.85698 0.00731281 0)
(0.831528 0.00652067 0)
(0.807998 0.00586655 0)
(0.786268 0.00531908 0)
(0.766193 0.00485542 0)
(0.747626 0.00445875 0)
(0.730425 0.0041163 0)
(0.714459 0.0038182 0)
(0.699608 0.00355674 0)
(0.685767 0.00332577 0)
(0.67284 0.00312043 0)
(0.660743 0.00293673 0)
(0.649403 0.00277144 0)
(0.638753 0.00262186 0)
(0.628736 0.00248574 0)
(0.6193 0.00236117 0)
(0.610399 0.00224648 0)
(0.601995 0.00214026 0)
(0.594051 0.00204123 0)
(0.586537 0.00194827 0)
(0.579425 0.00186029 0)
(0.572692 0.0017763 0)
(0.566317 0.0016953 0)
(0.560284 0.00161618 0)
(0.554577 0.00153802 0)
(0.549189 0.00145903 0)
(0.544108 0.00137866 0)
(0.539334 0.00129318 0)
(0.53487 0.00120334 0)
(0.530709 0.00110061 0)
(0.526904 0.000989344 0)
(0.523396 0.000850405 0)
(0.520376 0.000695649 0)
(0.517621 0.000485392 0)
(0.515672 0.000245251 0)
(0.513867 -0.000106379 0)
(0.513629 -0.000502815 0)
(0.513022 -0.00117473 0)
(0.516049 -0.00187872 0)
(0.516917 -0.00277016 0)
(0.525379 -0.0054348 0)
(1.00635 0.0401785 0)
(1.05241 0.0361473 0)
(1.06607 0.0252494 0)
(1.05955 0.0205668 0)
(1.04693 0.0172252 0)
(1.03089 0.0146531 0)
(1.01199 0.0128216 0)
(0.991304 0.0113936 0)
(0.969899 0.0101929 0)
(0.948506 0.00917378 0)
(0.92757 0.00831059 0)
(0.907355 0.00757531 0)
(0.888008 0.0069436 0)
(0.869597 0.00639667 0)
(0.852141 0.00591994 0)
(0.835626 0.00550182 0)
(0.820018 0.00513291 0)
(0.805274 0.00480555 0)
(0.791346 0.00451347 0)
(0.778183 0.00425152 0)
(0.765737 0.0040154 0)
(0.75396 0.00380151 0)
(0.742807 0.00360681 0)
(0.732238 0.00342871 0)
(0.722214 0.00326496 0)
(0.712699 0.0031136 0)
(0.703663 0.00297293 0)
(0.695077 0.00284139 0)
(0.686915 0.00271761 0)
(0.679153 0.00260026 0)
(0.671773 0.0024881 0)
(0.664755 0.0023799 0)
(0.658086 0.00227426 0)
(0.651751 0.00217004 0)
(0.645744 0.00206503 0)
(0.640055 0.00195848 0)
(0.634684 0.00184587 0)
(0.629633 0.00172801 0)
(0.624899 0.00159449 0)
(0.620527 0.00145048 0)
(0.616471 0.0012727 0)
(0.612895 0.00107518 0)
(0.609621 0.000809888 0)
(0.607106 0.000506957 0)
(0.604824 6.68085e-05 0)
(0.603934 -0.000430988 0)
(0.602999 -0.00124857 0)
(0.604946 -0.0021588 0)
(0.606139 -0.00327058 0)
(0.612732 -0.00596648 0)
(1.00506 0.0375012 0)
(1.04763 0.0350488 0)
(1.06397 0.0247016 0)
(1.0642 0.0205976 0)
(1.06073 0.0177633 0)
(1.05483 0.0154942 0)
(1.04608 0.0138785 0)
(1.03489 0.0126158 0)
(1.02197 0.0115258 0)
(1.00795 0.0105694 0)
(0.993274 0.00973326 0)
(0.9783 0.00899983 0)
(0.963295 0.00835254 0)
(0.948455 0.00777835 0)
(0.933915 0.00726693 0)
(0.919766 0.00680973 0)
(0.906067 0.0063995 0)
(0.89285 0.00603004 0)
(0.880133 0.00569606 0)
(0.867917 0.00539304 0)
(0.856199 0.00511708 0)
(0.844967 0.00486481 0)
(0.834208 0.00463329 0)
(0.823904 0.00441993 0)
(0.814039 0.00422247 0)
(0.804594 0.00403885 0)
(0.795553 0.00386728 0)
(0.786899 0.00370606 0)
(0.778617 0.00355371 0)
(0.770691 0.00340873 0)
(0.76311 0.00326973 0)
(0.755861 0.00313529 0)
(0.748935 0.00300381 0)
(0.742322 0.00287393 0)
(0.73602 0.00274312 0)
(0.73002 0.00261042 0)
(0.724327 0.00247058 0)
(0.718943 0.00232438 0)
(0.713869 0.00215987 0)
(0.709143 0.00198245 0)
(0.704735 0.00176585 0)
(0.70078 0.00152443 0)
(0.697146 0.00120504 0)
(0.694204 0.000837107 0)
(0.691569 0.000311177 0)
(0.690124 -0.000294595 0)
(0.688924 -0.00124011 0)
(0.689928 -0.00236884 0)
(0.691154 -0.00370402 0)
(0.696416 -0.00647355 0)
(1.00451 0.0349652 0)
(1.0436 0.0339686 0)
(1.05994 0.0240504 0)
(1.06225 0.0203079 0)
(1.06255 0.017828 0)
(1.06189 0.0157738 0)
(1.05932 0.0143323 0)
(1.05477 0.0132356 0)
(1.04856 0.012288 0)
(1.04099 0.0114436 0)
(1.03234 0.0106915 0)
(1.02289 0.0100184 0)
(1.01285 0.00941154 0)
(1.00243 0.00886168 0)
(0.991794 0.00836186 0)
(0.981066 0.00790641 0)
(0.970354 0.00749048 0)
(0.959737 0.00710979 0)
(0.949275 0.00676057 0)
(0.939012 0.00643945 0)
(0.928981 0.00614345 0)
(0.919204 0.00586985 0)
(0.909695 0.00561623 0)
(0.900463 0.00538034 0)
(0.891513 0.00516016 0)
(0.882848 0.00495383 0)
(0.874465 0.00475964 0)
(0.866364 0.00457596 0)
(0.858542 0.00440131 0)
(0.850995 0.00423416 0)
(0.84372 0.00407309 0)
(0.836713 0.00391657 0)
(0.829973 0.00376289 0)
(0.823496 0.00361054 0)
(0.817284 0.00345672 0)
(0.811336 0.00330029 0)
(0.805658 0.00313545 0)
(0.800256 0.00296277 0)
(0.795134 0.00276917 0)
(0.790328 0.00255973 0)
(0.785819 0.00230632 0)
(0.781721 0.00202194 0)
(0.77794 0.00165147 0)
(0.774767 0.0012186 0)
(0.771949 0.00061607 0)
(0.770115 -0.000103062 0)
(0.768725 -0.00116333 0)
(0.769024 -0.00250101 0)
(0.770056 -0.00407849 0)
(0.774341 -0.00695929 0)
(1.00412 0.0325345 0)
(1.04027 0.032915 0)
(1.05618 0.0234155 0)
(1.05889 0.0199231 0)
(1.06028 0.0176988 0)
(1.06166 0.0157765 0)
(1.06204 0.0144368 0)
(1.06114 0.0134558 0)
(1.05908 0.0126245 0)
(1.05595 0.0118858 0)
(1.05186 0.0112267 0)
(1.04691 0.0106332 0)
(1.04124 0.0100926 0)
(1.03496 0.00959641 0)
(1.02821 0.00913876 0)
(1.0211 0.00871543 0)
(1.01371 0.00832299 0)
(1.00614 0.00795853 0)
(0.998455 0.0076195 0)
(0.990716 0.00730362 0)
(0.982973 0.00700882 0)
(0.975265 0.00673316 0)
(0.967625 0.00647484 0)
(0.960079 0.00623214 0)
(0.952648 0.00600344 0)
(0.945348 0.00578718 0)
(0.938193 0.0055819 0)
(0.931193 0.00538616 0)
(0.924358 0.00519859 0)
(0.917693 0.00501777 0)
(0.911207 0.0048423 0)
(0.904903 0.00467067 0)
(0.898787 0.00450111 0)
(0.892863 0.00433203 0)
(0.887138 0.00416046 0)
(0.881617 0.00398511 0)
(0.87631 0.00379974 0)
(0.871227 0.00360464 0)
(0.866376 0.00338599 0)
(0.861791 0.00314805 0)
(0.857463 0.00286192 0)
(0.853487 0.00253773 0)
(0.849804 0.00212126 0)
(0.846634 0.0016265 0)
(0.84383 0.000955047 0)
(0.841825 0.000127483 0)
(0.840346 -0.00103937 0)
(0.840201 -0.00256395 0)
(0.840964 -0.00439317 0)
(0.844433 -0.00743903 0)
(1.00374 0.0302001 0)
(1.03727 0.0318656 0)
(1.05284 0.0228118 0)
(1.05565 0.0195207 0)
(1.05718 0.0175083 0)
(1.05912 0.0156749 0)
(1.06056 0.0143832 0)
(1.06126 0.0134661 0)
(1.06126 0.0127086 0)
(1.0606 0.0120444 0)
(1.05929 0.0114576 0)
(1.05733 0.010933 0)
(1.05477 0.0104564 0)
(1.05165 0.010018 0)
(1.04804 0.0096116 0)
(1.044 0.00923287 0)
(1.03959 0.00887863 0)
(1.03486 0.00854638 0)
(1.02989 0.00823409 0)
(1.02472 0.00794008 0)
(1.01939 0.00766281 0)
(1.01394 0.00740088 0)
(1.00841 0.00715299 0)
(1.00284 0.00691782 0)
(0.997237 0.00669413 0)
(0.991639 0.00648067 0)
(0.986062 0.00627623 0)
(0.980523 0.00607957 0)
(0.975039 0.00588949 0)
(0.969622 0.0057047 0)
(0.964287 0.00552388 0)
(0.959044 0.00534556 0)
(0.953904 0.00516799 0)
(0.948877 0.00498954 0)
(0.943974 0.00480711 0)
(0.939206 0.00461929 0)
(0.934584 0.00441953 0)
(0.930124 0.00420779 0)
(0.925837 0.0039698 0)
(0.921755 0.00370866 0)
(0.917878 0.00339563 0)
(0.914282 0.00303676 0)
(0.91094 0.00258105 0)
(0.90801 0.00203032 0)
(0.905422 0.00129831 0)
(0.903474 0.000373991 0)
(0.902035 -0.000892601 0)
(0.901675 -0.00257911 0)
(0.902233 -0.00465034 0)
(0.904975 -0.00791802 0)
(1.00337 0.0279645 0)
(1.03444 0.0308082 0)
(1.04974 0.022233 0)
(1.05269 0.0191155 0)
(1.05418 0.0172993 0)
(1.05618 0.0155442 0)
(1.05789 0.0142749 0)
(1.05911 0.013389 0)
(1.05992 0.0126726 0)
(1.06037 0.0120519 0)
(1.06045 0.0115103 0)
(1.06013 0.0110323 0)
(1.05941 0.0106027 0)
(1.05829 0.0102103 0)
(1.05679 0.00984798 0)
(1.05494 0.00951073 0)
(1.05275 0.00919491 0)
(1.05025 0.0088978 0)
(1.04749 0.0086173 0)
(1.04449 0.00835173 0)
(1.04127 0.00809972 0)
(1.03788 0.00786005 0)
(1.03433 0.00763159 0)
(1.03066 0.00741326 0)
(1.02688 0.00720399 0)
(1.02301 0.00700272 0)
(1.01909 0.0068084 0)
(1.01512 0.00661991 0)
(1.01112 0.00643619 0)
(1.0071 0.00625602 0)
(1.00309 0.00607814 0)
(0.999094 0.00590114 0)
(0.995127 0.00572323 0)
(0.991202 0.00554282 0)
(0.987332 0.00535664 0)
(0.98353 0.00516321 0)
(0.97981 0.00495575 0)
(0.976189 0.00473378 0)
(0.97268 0.00448295 0)
(0.969314 0.0042048 0)
(0.966096 0.00387163 0)
(0.963087 0.00348456 0)
(0.96028 0.00299724 0)
(0.957791 0.00239889 0)
(0.955593 0.00161544 0)
(0.953899 0.000608709 0)
(0.952646 -0.000746699 0)
(0.952244 -0.00257163 0)
(0.952713 -0.00486132 0)
(0.954858 -0.00837976 0)
(1.00301 0.0258311 0)
(1.03171 0.0297386 0)
(1.04674 0.0216753 0)
(1.0499 0.0187074 0)
(1.05136 0.0170784 0)
(1.05332 0.0154065 0)
(1.05507 0.0141528 0)
(1.0564 0.0132836 0)
(1.05745 0.0125906 0)
(1.05829 0.0119941 0)
(1.05893 0.0114774 0)
(1.05935 0.0110262 0)
(1.05953 0.0106251 0)
(1.05947 0.0102626 0)
(1.05917 0.00993078 0)
(1.05863 0.00962398 0)
(1.05785 0.00933811 0)
(1.05684 0.00907003 0)
(1.05561 0.00881733 0)
(1.05418 0.00857813 0)
(1.05255 0.00835092 0)
(1.05075 0.00813438 0)
(1.04879 0.00792738 0)
(1.04669 0.00772884 0)
(1.04445 0.0075377 0)
(1.0421 0.00735293 0)
(1.03965 0.00717351 0)
(1.03711 0.00699835 0)
(1.0345 0.00682639 0)
(1.03182 0.00665643 0)
(1.0291 0.00648722 0)
(1.02635 0.00631734 0)
(1.02357 0.00614495 0)
(1.02078 0.00596841 0)
(1.018 0.00578435 0)
(1.01523 0.00559115 0)
(1.01249 0.00538187 0)
(1.0098 0.00515552 0)
(1.00717 0.00489793 0)
(1.00462 0.00460879 0)
(1.00218 0.00426206 0)
(0.999875 0.00385364 0)
(0.997722 0.00334226 0)
(0.995801 0.00270572 0)
(0.99411 0.00188023 0)
(0.992801 0.000806615 0)
(0.991856 -0.000623419 0)
(0.991541 -0.00256476 0)
(0.992005 -0.00504431 0)
(0.993727 -0.00880524 0)
(1.00268 0.0238025 0)
(1.02911 0.0286551 0)
(1.04383 0.0211384 0)
(1.0472 0.0182962 0)
(1.04867 0.0168442 0)
(1.0506 0.0152644 0)
(1.05234 0.0140281 0)
(1.05368 0.0131708 0)
(1.05476 0.0124947 0)
(1.0557 0.0119136 0)
(1.05651 0.0114108 0)
(1.05719 0.0109741 0)
(1.05774 0.0105888 0)
(1.05815 0.0102433 0)
(1.05842 0.00992946 0)
(1.05854 0.0096415 0)
(1.05852 0.00937505 0)
(1.05836 0.00912671 0)
(1.05804 0.00889382 0)
(1.05759 0.0086743 0)
(1.05699 0.00846643 0)
(1.05626 0.00826878 0)
(1.05541 0.00808009 0)
(1.05442 0.00789918 0)
(1.05333 0.00772493 0)
(1.05212 0.00755623 0)
(1.05082 0.00739199 0)
(1.04942 0.00723107 0)
(1.04794 0.00707234 0)
(1.04638 0.00691456 0)
(1.04476 0.00675637 0)
(1.04308 0.00659634 0)
(1.04135 0.00643251 0)
(1.03958 0.00626317 0)
(1.03779 0.0060848 0)
(1.03599 0.00589561 0)
(1.03418 0.00568858 0)
(1.03238 0.00546206 0)
(1.0306 0.00520233 0)
(1.02887 0.00490705 0)
(1.0272 0.00455216 0)
(1.02562 0.00412853 0)
(1.02414 0.00359971 0)
(1.02283 0.00293393 0)
(1.02168 0.00207572 0)
(1.02082 0.000949441 0)
(1.02024 -0.000539078 0)
(1.0201 -0.00257376 0)
(1.02059 -0.00521537 0)
(1.02204 -0.00918425 0)
(1.00238 0.0218805 0)
(1.02665 0.0275571 0)
(1.04101 0.0206219 0)
(1.0446 0.0178835 0)
(1.04608 0.0165954 0)
(1.04798 0.0151164 0)
(1.04972 0.0139019 0)
(1.05105 0.0130556 0)
(1.05213 0.0123947 0)
(1.05307 0.0118264 0)
(1.05391 0.0113334 0)
(1.05465 0.0109056 0)
(1.05531 0.0105294 0)
(1.05589 0.0101932 0)
(1.05638 0.00988927 0)
(1.05679 0.00961177 0)
(1.05712 0.00935637 0)
(1.05736 0.00911961 0)
(1.05751 0.00889876 0)
(1.05758 0.00869163 0)
(1.05756 0.00849643 0)
(1.05746 0.00831162 0)
(1.05726 0.00813585 0)
(1.05699 0.00796787 0)
(1.05662 0.00780648 0)
(1.05618 0.00765046 0)
(1.05566 0.00749865 0)
(1.05506 0.00734982 0)
(1.05438 0.00720273 0)
(1.05365 0.00705605 0)
(1.05284 0.00690833 0)
(1.05198 0.00675804 0)
(1.05108 0.00660307 0)
(1.05012 0.00644163 0)
(1.04913 0.00627006 0)
(1.04811 0.00608632 0)
(1.04708 0.00588338 0)
(1.04604 0.00565886 0)
(1.045 0.00539966 0)
(1.04397 0.00510132 0)
(1.04299 0.00474191 0)
(1.04205 0.0043077 0)
(1.04119 0.00376657 0)
(1.04044 0.00307896 0)
(1.03981 0.00219629 0)
(1.03937 0.00103009 0)
(1.03915 -0.000502798 0)
(1.03922 -0.00260712 0)
(1.03975 -0.00538256 0)
(1.04097 -0.0095128 0)
(1.0021 0.020066 0)
(1.02431 0.0264464 0)
(1.03828 0.0201236 0)
(1.04207 0.0174712 0)
(1.04358 0.0163318 0)
(1.04544 0.0149612 0)
(1.04719 0.0137736 0)
(1.04852 0.0129385 0)
(1.04958 0.0122927 0)
(1.05051 0.0117372 0)
(1.05134 0.011253 0)
(1.05209 0.0108322 0)
(1.05277 0.0104622 0)
(1.05338 0.0101321 0)
(1.05394 0.00983395 0)
(1.05445 0.0095623 0)
(1.0549 0.0093129 0)
(1.05531 0.00908238 0)
(1.05566 0.00886807 0)
(1.05597 0.00866779 0)
(1.05623 0.00847976 0)
(1.05644 0.00830244 0)
(1.05659 0.00813446 0)
(1.0567 0.00797453 0)
(1.05675 0.00782142 0)
(1.05674 0.00767386 0)
(1.05669 0.00753061 0)
(1.05658 0.00739038 0)
(1.05642 0.00725183 0)
(1.05621 0.00711355 0)
(1.05595 0.00697396 0)
(1.05565 0.00683146 0)
(1.05531 0.00668381 0)
(1.05493 0.00652907 0)
(1.05451 0.00636349 0)
(1.05407 0.00618473 0)
(1.05361 0.00598586 0)
(1.05314 0.00576367 0)
(1.05266 0.00550579 0)
(1.05219 0.00520573 0)
(1.05174 0.00484363 0)
(1.05132 0.00440174 0)
(1.05096 0.00385168 0)
(1.05067 0.00314792 0)
(1.05047 0.00224701 0)
(1.05038 0.00105208 0)
(1.05046 -0.000513962 0)
(1.05072 -0.00266691 0)
(1.05125 -0.00554444 0)
(1.05225 -0.00978939 0)
(1.00185 0.0183593 0)
(1.02211 0.025327 0)
(1.03564 0.0196398 0)
(1.03964 0.0170611 0)
(1.04117 0.0160542 0)
(1.043 0.014798 0)
(1.04474 0.0136428 0)
(1.04607 0.0128191 0)
(1.04713 0.0121886 0)
(1.04804 0.0116464 0)
(1.04886 0.0111713 0)
(1.0496 0.0107572 0)
(1.05027 0.0103928 0)
(1.05088 0.0100675 0)
(1.05145 0.00977364 0)
(1.05197 0.00950582 0)
(1.05246 0.00926002 0)
(1.05292 0.00903299 0)
(1.05334 0.00882215 0)
(1.05374 0.00862541 0)
(1.05411 0.00844105 0)
(1.05445 0.00826759 0)
(1.05476 0.0081037 0)
(1.05504 0.00794812 0)
(1.05529 0.00779961 0)
(1.05552 0.0076569 0)
(1.05571 0.00751871 0)
(1.05586 0.00738371 0)
(1.05599 0.00725051 0)
(1.05608 0.00711762 0)
(1.05614 0.00698339 0)
(1.05617 0.00684611 0)
(1.05617 0.00670345 0)
(1.05615 0.00655335 0)
(1.0561 0.00639198 0)
(1.05604 0.00621668 0)
(1.05596 0.00602069 0)
(1.05587 0.00579998 0)
(1.05577 0.00554294 0)
(1.05568 0.00524122 0)
(1.05561 0.00487685 0)
(1.05556 0.00442878 0)
(1.05555 0.00387161 0)
(1.05559 0.0031557 0)
(1.0557 0.00224098 0)
(1.05587 0.00102627 0)
(1.05616 -0.000563954 0)
(1.05654 -0.00274819 0)
(1.05707 -0.00569416 0)
(1.0578 -0.0100075 0)
(1.00162 0.01676 0)
(1.02005 0.0242032 0)
(1.03311 0.0191663 0)
(1.03729 0.0166548 0)
(1.03885 0.0157636 0)
(1.04064 0.014626 0)
(1.04238 0.0135092 0)
(1.04372 0.0126974 0)
(1.04476 0.0120821 0)
(1.04567 0.011554 0)
(1.04647 0.0110886 0)
(1.0472 0.0106813 0)
(1.04786 0.0103225 0)
(1.04846 0.0100018 0)
(1.04902 0.00971179 0)
(1.04954 0.00944717 0)
(1.05003 0.00920406 0)
(1.05049 0.00897937 0)
(1.05093 0.00877062 0)
(1.05135 0.00857583 0)
(1.05175 0.00839334 0)
(1.05213 0.00822176 0)
(1.0525 0.00805983 0)
(1.05285 0.00790632 0)
(1.05318 0.00776005 0)
(1.0535 0.00761975 0)
(1.0538 0.00748416 0)
(1.05408 0.00735192 0)
(1.05434 0.00722158 0)
(1.05459 0.00709166 0)
(1.05481 0.0069604 0)
(1.05502 0.00682606 0)
(1.0552 0.00668622 0)
(1.05538 0.00653869 0)
(1.05554 0.00637961 0)
(1.05569 0.00620603 0)
(1.05583 0.00601139 0)
(1.05597 0.00579085 0)
(1.05611 0.00553361 0)
(1.05625 0.00522966 0)
(1.05641 0.00486265 0)
(1.05659 0.00440906 0)
(1.05681 0.00384565 0)
(1.05705 0.00312033 0)
(1.05735 0.00219506 0)
(1.05768 0.000967026 0)
(1.05809 -0.000638548 0)
(1.05851 -0.00283978 0)
(1.05898 -0.00582256 0)
(1.05943 -0.0101597 0)
(1.00142 0.0152675 0)
(1.01812 0.0230791 0)
(1.03069 0.0186992 0)
(1.03502 0.0162538 0)
(1.03662 0.0154614 0)
(1.03838 0.0144448 0)
(1.04011 0.0133724 0)
(1.04145 0.0125735 0)
(1.04249 0.0119733 0)
(1.04338 0.0114598 0)
(1.04418 0.0110046 0)
(1.04489 0.0106045 0)
(1.04554 0.0102514 0)
(1.04613 0.00993552 0)
(1.04667 0.00964931 0)
(1.04718 0.00938776 0)
(1.04766 0.00914713 0)
(1.04812 0.00892443 0)
(1.04855 0.00871728 0)
(1.04897 0.0085238 0)
(1.04937 0.00834243 0)
(1.04976 0.00817183 0)
(1.05015 0.00801083 0)
(1.05051 0.00785827 0)
(1.05087 0.00771299 0)
(1.05122 0.00757376 0)
(1.05156 0.00743934 0)
(1.05189 0.00730835 0)
(1.0522 0.00717934 0)
(1.05251 0.00705078 0)
(1.0528 0.0069209 0)
(1.05309 0.00678787 0)
(1.05336 0.00664924 0)
(1.05363 0.0065027 0)
(1.05389 0.00634441 0)
(1.05415 0.00617111 0)
(1.0544 0.00597646 0)
(1.05466 0.00575494 0)
(1.05492 0.00549643 0)
(1.05519 0.0051896 0)
(1.05548 0.00481939 0)
(1.05579 0.00436059 0)
(1.05612 0.00379135 0)
(1.05647 0.00305865 0)
(1.05687 0.00212533 0)
(1.05728 0.000889189 0)
(1.05772 -0.000724244 0)
(1.05812 -0.00293025 0)
(1.05849 -0.00592006 0)
(1.05863 -0.0102344 0)
(1.00124 0.0138802 0)
(1.01633 0.0219587 0)
(1.02837 0.0182347 0)
(1.03285 0.0158592 0)
(1.03449 0.0151493 0)
(1.03621 0.0142537 0)
(1.03793 0.0132321 0)
(1.03927 0.0124473 0)
(1.04031 0.0118619 0)
(1.04119 0.0113635 0)
(1.04197 0.0109192 0)
(1.04268 0.0105267 0)
(1.04331 0.0101796 0)
(1.04389 0.00986855 0)
(1.04442 0.0095863 0)
(1.04492 0.0093279 0)
(1.04539 0.00908975 0)
(1.04583 0.00886898 0)
(1.04626 0.00866333 0)
(1.04667 0.00847098 0)
(1.04707 0.00829046 0)
(1.04745 0.00812053 0)
(1.04783 0.00796006 0)
(1.0482 0.00780797 0)
(1.04856 0.00766313 0)
(1.04891 0.00752436 0)
(1.04926 0.00739041 0)
(1.0496 0.00725992 0)
(1.04993 0.00713143 0)
(1.05025 0.00700337 0)
(1.05057 0.00687395 0)
(1.05088 0.00674129 0)
(1.05119 0.00660291 0)
(1.05149 0.00645639 0)
(1.05179 0.00629791 0)
(1.0521 0.00612394 0)
(1.0524 0.00592838 0)
(1.05271 0.00570509 0)
(1.05302 0.00544457 0)
(1.05335 0.00513444 0)
(1.05369 0.00476064 0)
(1.05405 0.00429693 0)
(1.05443 0.00372229 0)
(1.05483 0.00298398 0)
(1.05525 0.00204481 0)
(1.05567 0.00080545 0)
(1.05609 -0.000809772 0)
(1.05642 -0.0030091 0)
(1.05664 -0.00597928 0)
(1.05647 -0.0102266 0)
(1.00107 0.0125963 0)
(1.01467 0.020846 0)
(1.02616 0.0177695 0)
(1.03076 0.0154719 0)
(1.03246 0.0148289 0)
(1.03413 0.0140523 0)
(1.03583 0.0130877 0)
(1.03718 0.0123189 0)
(1.03822 0.011748 0)
(1.03909 0.0112652 0)
(1.03986 0.0108323 0)
(1.04055 0.0104478 0)
(1.04118 0.0101068 0)
(1.04175 0.00980087 0)
(1.04227 0.00952273 0)
(1.04276 0.00926759 0)
(1.04321 0.00903198 0)
(1.04365 0.00881319 0)
(1.04406 0.00860904 0)
(1.04446 0.0084178 0)
(1.04485 0.00823808 0)
(1.04523 0.00806873 0)
(1.0456 0.00790868 0)
(1.04596 0.00775689 0)
(1.04631 0.0076123 0)
(1.04666 0.00747375 0)
(1.047 0.00734 0)
(1.04734 0.00720971 0)
(1.04767 0.00708137 0)
(1.04799 0.00695344 0)
(1.04831 0.00682405 0)
(1.04863 0.00669131 0)
(1.04894 0.0065527 0)
(1.04925 0.00640569 0)
(1.04957 0.00624653 0)
(1.04988 0.00607141 0)
(1.0502 0.00587445 0)
(1.05052 0.00564902 0)
(1.05085 0.0053861 0)
(1.05119 0.0050726 0)
(1.05155 0.00469512 0)
(1.05192 0.00422706 0)
(1.05231 0.00364772 0)
(1.0527 0.00290547 0)
(1.05311 0.00196315 0)
(1.0535 0.000724233 0)
(1.05386 -0.000885113 0)
(1.05409 -0.00306567 0)
(1.05413 -0.00599233 0)
(1.05366 -0.0101308 0)
(1.00093 0.011413 0)
(1.01314 0.019745 0)
(1.02407 0.0173004 0)
(1.02876 0.0150926 0)
(1.03052 0.0145023 0)
(1.03215 0.0138403 0)
(1.03383 0.0129387 0)
(1.03518 0.0121884 0)
(1.03621 0.0116316 0)
(1.03708 0.0111645 0)
(1.03784 0.0107439 0)
(1.03852 0.0103677 0)
(1.03914 0.0100331 0)
(1.0397 0.00973241 0)
(1.04021 0.00945853 0)
(1.04069 0.00920676 0)
(1.04114 0.0089738 0)
(1.04156 0.00875704 0)
(1.04197 0.00855443 0)
(1.04236 0.00836432 0)
(1.04273 0.00818542 0)
(1.0431 0.00801664 0)
(1.04346 0.00785698 0)
(1.04381 0.00770547 0)
(1.04416 0.00756109 0)
(1.0445 0.0074227 0)
(1.04483 0.00728907 0)
(1.04516 0.00715887 0)
(1.04548 0.00703058 0)
(1.0458 0.00690262 0)
(1.04612 0.00677312 0)
(1.04643 0.00664011 0)
(1.04674 0.00650109 0)
(1.04705 0.00635342 0)
(1.04736 0.00619337 0)
(1.04767 0.00601693 0)
(1.04798 0.00581841 0)
(1.0483 0.00559078 0)
(1.04863 0.00532538 0)
(1.04897 0.00500873 0)
(1.04932 0.0046278 0)
(1.04967 0.00415615 0)
(1.05005 0.00357308 0)
(1.05042 0.00282883 0)
(1.0508 0.00188586 0)
(1.05112 0.00065241 0)
(1.0514 -0.000944742 0)
(1.05151 -0.00309488 0)
(1.05136 -0.00595561 0)
(1.0506 -0.00994679 0)
(1.0008 0.0103271 0)
(1.01174 0.0186601 0)
(1.02208 0.0168247 0)
(1.02684 0.0147215 0)
(1.02867 0.0141716 0)
(1.03026 0.0136176 0)
(1.03191 0.0127845 0)
(1.03327 0.0120556 0)
(1.0343 0.0115126 0)
(1.03515 0.0110615 0)
(1.03591 0.0106537 0)
(1.03658 0.0102863 0)
(1.03719 0.0099584 0)
(1.03774 0.00966309 0)
(1.03824 0.00939362 0)
(1.03871 0.00914535 0)
(1.03915 0.00891512 0)
(1.03957 0.00870047 0)
(1.03996 0.00849945 0)
(1.04034 0.00831052 0)
(1.04071 0.00813246 0)
(1.04107 0.00796427 0)
(1.04142 0.00780502 0)
(1.04177 0.0076538 0)
(1.0421 0.00750963 0)
(1.04243 0.00737139 0)
(1.04276 0.00723789 0)
(1.04308 0.00710776 0)
(1.04339 0.0069795 0)
(1.0437 0.00685149 0)
(1.04401 0.00672185 0)
(1.04432 0.00658855 0)
(1.04462 0.00644908 0)
(1.04492 0.00630071 0)
(1.04522 0.00613975 0)
(1.04552 0.00596202 0)
(1.04583 0.00576194 0)
(1.04614 0.00553225 0)
(1.04645 0.00526453 0)
(1.04678 0.00494513 0)
(1.04711 0.00456122 0)
(1.04745 0.00408694 0)
(1.0478 0.00350141 0)
(1.04813 0.00275719 0)
(1.04846 0.0018167 0)
(1.04872 0.000593003 0)
(1.04891 -0.000983919 0)
(1.04888 -0.00309129 0)
(1.04856 -0.00586575 0)
(1.04751 -0.00967622 0)
(1.00069 0.00933471 0)
(1.01046 0.0175951 0)
(1.02021 0.0163401 0)
(1.02501 0.0143586 0)
(1.0269 0.0138387 0)
(1.02846 0.0133845 0)
(1.03008 0.0126244 0)
(1.03144 0.0119204 0)
(1.03248 0.0113913 0)
(1.03332 0.0109559 0)
(1.03407 0.0105616 0)
(1.03474 0.0102036 0)
(1.03533 0.00988254 0)
(1.03587 0.00959283 0)
(1.03637 0.00932793 0)
(1.03683 0.00908329 0)
(1.03726 0.00885589 0)
(1.03767 0.00864342 0)
(1.03805 0.00844404 0)
(1.03843 0.00825633 0)
(1.03879 0.00807915 0)
(1.03914 0.00791158 0)
(1.03948 0.00775277 0)
(1.03982 0.00760186 0)
(1.04014 0.00745791 0)
(1.04047 0.00731985 0)
(1.04078 0.00718649 0)
(1.0411 0.00705646 0)
(1.0414 0.00692825 0)
(1.04171 0.00680021 0)
(1.042 0.00667045 0)
(1.0423 0.00653689 0)
(1.04259 0.00639701 0)
(1.04288 0.00624799 0)
(1.04318 0.00608618 0)
(1.04347 0.00590725 0)
(1.04376 0.00570576 0)
(1.04406 0.00547425 0)
(1.04436 0.00520449 0)
(1.04467 0.00488288 0)
(1.04499 0.00449664 0)
(1.0453 0.0040208 0)
(1.04562 0.00343431 0)
(1.04591 0.0026923 0)
(1.04619 0.00175767 0)
(1.04638 0.000548367 0)
(1.04648 -0.00100015 0)
(1.04631 -0.00305258 0)
(1.0458 -0.00572185 0)
(1.04451 -0.00932285 0)
(1.0006 0.00843163 0)
(1.0093 0.0165542 0)
(1.01845 0.0158448 0)
(1.02327 0.0140035 0)
(1.02523 0.0135056 0)
(1.02676 0.0131414 0)
(1.02835 0.0124579 0)
(1.0297 0.0117826 0)
(1.03074 0.0112675 0)
(1.03158 0.0108478 0)
(1.03232 0.0104675 0)
(1.03298 0.0101194 0)
(1.03357 0.00980548 0)
(1.0341 0.00952153 0)
(1.03459 0.00926136 0)
(1.03504 0.00902049 0)
(1.03546 0.00879602 0)
(1.03586 0.00858581 0)
(1.03624 0.00838814 0)
(1.03661 0.00820169 0)
(1.03696 0.00802543 0)
(1.0373 0.0078585 0)
(1.03764 0.00770015 0)
(1.03796 0.00754958 0)
(1.03828 0.00740589 0)
(1.0386 0.00726804 0)
(1.03891 0.00713485 0)
(1.03921 0.00700495 0)
(1.03951 0.00687682 0)
(1.03981 0.0067488 0)
(1.0401 0.00661895 0)
(1.04038 0.00648519 0)
(1.04067 0.00634496 0)
(1.04095 0.00619537 0)
(1.04123 0.00603282 0)
(1.04151 0.00585286 0)
(1.0418 0.00565013 0)
(1.04208 0.00541712 0)
(1.04237 0.00514568 0)
(1.04266 0.00482246 0)
(1.04296 0.00443468 0)
(1.04324 0.00395847 0)
(1.04353 0.00337266 0)
(1.04378 0.00263527 0)
(1.044 0.00170983 0)
(1.04412 0.000520511 0)
(1.04412 -0.000992694 0)
(1.04383 -0.00297822 0)
(1.04315 -0.00552457 0)
(1.04163 -0.00889215 0)
(1.00051 0.00761303 0)
(1.00825 0.0155413 0)
(1.01681 0.0153376 0)
(1.02161 0.0136557 0)
(1.02364 0.0131739 0)
(1.02514 0.0128891 0)
(1.02669 0.0122844 0)
(1.02804 0.011642 0)
(1.02908 0.0111413 0)