/*--------------------------------*- C++ -*----------------------------------*\
  =========                 |
  \\      /  F ield         | OpenFOAM: The Open Source CFD Toolbox
   \\    /   O peration     | Website:  https://openfoam.org
    \\  /    A nd           | Version:  7
     \\/     M anipulation  |
\*---------------------------------------------------------------------------*/
FoamFile
{
    version     2.0;
    format      ascii;
    class       volVectorField;
    location    "0.47";
    object      U_0;
}
// * * * * * * * * * * * * * * * * * * * * * * * * * * * * * * * * * * * * * //

dimensions      [0 1 -1 0 0 0 0];

internalField   nonuniform List<vector> 
70000
(
(0.553414 0.0169781 0)
(0.251423 0.00340037 0)
(0.165935 0.000318935 0)
(0.132455 4.89883e-05 0)
(0.117351 4.40373e-05 0)
(0.107396 5.21987e-05 0)
(0.0994285 4.43917e-05 0)
(0.0929904 3.53049e-05 0)
(0.0877536 2.92541e-05 0)
(0.0833933 2.51016e-05 0)
(0.0796812 2.19246e-05 0)
(0.0764693 1.93756e-05 0)
(0.0736561 1.72955e-05 0)
(0.0711672 1.55752e-05 0)
(0.0689465 1.41334e-05 0)
(0.0669505 1.29094e-05 0)
(0.065145 1.18579e-05 0)
(0.063503 1.09448e-05 0)
(0.0620023 1.01437e-05 0)
(0.0606251 9.43441e-06 0)
(0.0593566 8.80053e-06 0)
(0.0581845 8.2292e-06 0)
(0.0570983 7.70933e-06 0)
(0.0560894 7.23201e-06 0)
(0.0551504 6.78852e-06 0)
(0.0542751 6.37235e-06 0)
(0.0534581 5.97521e-06 0)
(0.0526952 5.59241e-06 0)
(0.0519826 5.21383e-06 0)
(0.0513173 4.83718e-06 0)
(0.0506972 4.44651e-06 0)
(0.0501201 4.04408e-06 0)
(0.0495857 3.60114e-06 0)
(0.0490929 3.12811e-06 0)
(0.0486429 2.57762e-06 0)
(0.0482366 1.95895e-06 0)
(0.0478767 1.22393e-06 0)
(0.0475683 3.15689e-07 0)
(0.0473132 -7.0099e-07 0)
(0.0471296 -2.19319e-06 0)
(0.0470078 -3.59818e-06 0)
(0.0470033 -6.28422e-06 0)
(0.0470649 -8.35386e-06 0)
(0.0473453 -1.31598e-05 0)
(0.0476716 -1.48108e-05 0)
(0.0484553 -2.58651e-05 0)
(0.0491078 -2.0866e-05 0)
(0.0510239 -5.70095e-05 0)
(0.0515657 3.20534e-05 0)
(0.0530457 -0.00218198 0)
(0.884864 0.043493 0)
(0.650157 0.0201486 0)
(0.493995 0.00660452 0)
(0.403577 0.00275478 0)
(0.354867 0.00154799 0)
(0.323554 0.00113163 0)
(0.299659 0.000909048 0)
(0.280459 0.000744272 0)
(0.264759 0.000621394 0)
(0.251656 0.000530752 0)
(0.240497 0.000461933 0)
(0.23084 0.00040778 0)
(0.222378 0.000364032 0)
(0.214888 0.000328026 0)
(0.208201 0.000297945 0)
(0.202187 0.000272484 0)
(0.196744 0.000250681 0)
(0.19179 0.000231817 0)
(0.18726 0.000215342 0)
(0.1831 0.00020083 0)
(0.179264 0.000187948 0)
(0.175717 0.000176427 0)
(0.172426 0.000166047 0)
(0.169366 0.000156629 0)
(0.166514 0.000148017 0)
(0.163851 0.000140082 0)
(0.161361 0.000132705 0)
(0.159029 0.000125785 0)
(0.156845 0.00011922 0)
(0.154799 0.000112923 0)
(0.152882 0.000106783 0)
(0.151087 0.000100726 0)
(0.149412 9.45927e-05 0)
(0.147851 8.83223e-05 0)
(0.146405 8.16511e-05 0)
(0.145073 7.45259e-05 0)
(0.14386 6.65028e-05 0)
(0.142773 5.74791e-05 0)
(0.141814 4.67973e-05 0)
(0.141024 3.40047e-05 0)
(0.140369 1.85064e-05 0)
(0.139987 -1.46998e-06 0)
(0.139731 -2.52097e-05 0)
(0.13999 -6.01903e-05 0)
(0.140293 -9.96224e-05 0)
(0.141688 -0.000163459 0)
(0.142686 -0.000223292 0)
(0.146662 -0.000371294 0)
(0.147452 -0.000172253 0)
(0.155424 -0.00359982 0)
(0.991209 0.049955 0)
(0.890934 0.0305619 0)
(0.762513 0.0146102 0)
(0.656561 0.007971 0)
(0.585455 0.00487999 0)
(0.536082 0.00347476 0)
(0.498188 0.00273815 0)
(0.467563 0.00224332 0)
(0.44226 0.00187906 0)
(0.42097 0.001607 0)
(0.402744 0.00139926 0)
(0.38691 0.00123579 0)
(0.372994 0.00110381 0)
(0.360644 0.000995208 0)
(0.349594 0.000904457 0)
(0.339636 0.000827628 0)
(0.330609 0.000761833 0)
(0.322382 0.000704907 0)
(0.314847 0.000655202 0)
(0.307918 0.00061144 0)
(0.301523 0.000572615 0)
(0.295602 0.000537921 0)
(0.290102 0.000506703 0)
(0.284982 0.000478422 0)
(0.280203 0.000452622 0)
(0.275736 0.000428915 0)
(0.271553 0.000406965 0)
(0.26763 0.000386473 0)
(0.263949 0.000367162 0)
(0.260491 0.000348785 0)
(0.257245 0.000331067 0)
(0.254197 0.000313784 0)
(0.251339 0.000296584 0)
(0.248662 0.000279268 0)
(0.246166 0.000261253 0)
(0.243845 0.000242397 0)
(0.241704 0.000221603 0)
(0.23975 0.000198864 0)
(0.237981 0.000172076 0)
(0.236451 0.000141376 0)
(0.235107 0.000103051 0)
(0.234137 5.69141e-05 0)
(0.23332 -2.25243e-06 0)
(0.233202 -7.98117e-05 0)
(0.2331 -0.000181708 0)
(0.234473 -0.000319666 0)
(0.235227 -0.000497331 0)
(0.239996 -0.000781059 0)
(0.240382 -0.000769671 0)
(0.252694 -0.00407696 0)
(1.01554 0.0489529 0)
(1.0065 0.0357229 0)
(0.935908 0.0208186 0)
(0.852042 0.0134988 0)
(0.782268 0.00919885 0)
(0.727116 0.00678411 0)
(0.682023 0.00538723 0)
(0.644264 0.00444495 0)
(0.612259 0.00374918 0)
(0.584814 0.0032223 0)
(0.56099 0.00281532 0)
(0.540078 0.0024929 0)
(0.521547 0.00223149 0)
(0.504992 0.00201562 0)
(0.490099 0.00183471 0)
(0.476618 0.00168118 0)
(0.464347 0.00154942 0)
(0.453125 0.00143523 0)
(0.442818 0.0013354 0)
(0.433314 0.00124741 0)
(0.424521 0.00116928 0)
(0.416361 0.00109943 0)
(0.408767 0.00103656 0)
(0.401684 0.000979617 0)
(0.395061 0.000927689 0)
(0.388859 0.000880021 0)
(0.38304 0.000835952 0)
(0.377575 0.000794902 0)
(0.372436 0.000756344 0)
(0.3676 0.000719795 0)
(0.363049 0.000684765 0)
(0.358764 0.000650816 0)
(0.354736 0.00061736 0)
(0.350949 0.000584001 0)
(0.347401 0.000549779 0)
(0.344083 0.000514443 0)
(0.340998 0.000476074 0)
(0.338153 0.000434909 0)
(0.335539 0.000386833 0)
(0.333218 0.000333283 0)
(0.331124 0.000265672 0)
(0.329468 0.000187633 0)
(0.327993 8.24694e-05 0)
(0.327312 -4.27324e-05 0)
(0.326647 -0.000223055 0)
(0.327633 -0.00044104 0)
(0.327909 -0.000776513 0)
(0.332604 -0.00117868 0)
(0.332737 -0.00150563 0)
(0.345482 -0.00439728 0)
(1.01435 0.0460971 0)
(1.04799 0.0373394 0)
(1.02458 0.0241856 0)
(0.97471 0.0175578 0)
(0.923519 0.0131102 0)
(0.876789 0.0102067 0)
(0.834625 0.00834567 0)
(0.79688 0.00702129 0)
(0.763334 0.00600853 0)
(0.733545 0.00521912 0)
(0.707 0.00459569 0)
(0.683226 0.00409389 0)
(0.661823 0.00368224 0)
(0.642457 0.00333919 0)
(0.62485 0.00304954 0)
(0.608772 0.00280221 0)
(0.594029 0.00258887 0)
(0.580459 0.00240319 0)
(0.567926 0.00224026 0)
(0.556313 0.00209621 0)
(0.545522 0.00196798 0)
(0.535469 0.00185309 0)
(0.526081 0.00174951 0)
(0.517295 0.00165554 0)
(0.509058 0.00156977 0)
(0.50132 0.00149099 0)
(0.494043 0.00141816 0)
(0.48719 0.00135034 0)
(0.480731 0.00128672 0)
(0.474637 0.00122652 0)
(0.468887 0.001169 0)
(0.463461 0.00111347 0)
(0.458343 0.00105906 0)
(0.453517 0.00100515 0)
(0.448978 0.000950358 0)
(0.444715 0.000894304 0)
(0.440728 0.000834169 0)
(0.437023 0.000770486 0)
(0.43359 0.000696895 0)
(0.430489 0.000616407 0)
(0.427652 0.000514983 0)
(0.425289 0.000400735 0)
(0.423146 0.000244916 0)
(0.421826 6.51255e-05 0)
(0.420568 -0.000199741 0)
(0.420975 -0.000502735 0)
(0.420765 -0.00100924 0)
(0.424784 -0.00154471 0)
(0.425173 -0.00218909 0)
(0.435985 -0.00488884 0)
(1.00941 0.0430466 0)
(1.05564 0.0370944 0)
(1.05869 0.0253265 0)
(1.03633 0.0197623 0)
(1.00716 0.0157983 0)
(0.976153 0.0129347 0)
(0.944626 0.0109625 0)
(0.91376 0.00947718 0)
(0.884416 0.00828324 0)
(0.856979 0.00731282 0)
(0.831527 0.00652069 0)
(0.807996 0.00586658 0)
(0.786266 0.00531913 0)
(0.766191 0.00485548 0)
(0.747624 0.00445882 0)
(0.730423 0.00411638 0)
(0.714457 0.0038183 0)
(0.699606 0.00355684 0)
(0.685764 0.00332589 0)
(0.672837 0.00312056 0)
(0.66074 0.00293688 0)
(0.6494 0.0027716 0)
(0.638749 0.00262204 0)
(0.628732 0.00248594 0)
(0.619295 0.00236138 0)
(0.610394 0.00224672 0)
(0.601989 0.00214054 0)
(0.594044 0.00204154 0)
(0.586529 0.00194862 0)
(0.579416 0.0018607 0)
(0.572682 0.00177678 0)
(0.566306 0.00169587 0)
(0.560272 0.00161685 0)
(0.554564 0.00153882 0)
(0.549173 0.00145999 0)
(0.544091 0.00137982 0)
(0.539314 0.00129459 0)
(0.534847 0.00120506 0)
(0.530682 0.0011027 0)
(0.526872 0.00099189 0)
(0.523358 0.00085349 0)
(0.520332 0.000699356 0)
(0.517568 0.000489859 0)
(0.51561 0.00025032 0)
(0.513794 -9.99653e-05 0)
(0.513542 -0.000497192 0)
(0.512924 -0.00116709 0)
(0.515931 -0.00187516 0)
(0.516792 -0.00277179 0)
(0.525267 -0.00544454 0)
(1.00635 0.0401785 0)
(1.05241 0.0361473 0)
(1.06607 0.0252494 0)
(1.05955 0.0205669 0)
(1.04693 0.0172252 0)
(1.03088 0.0146532 0)
(1.01199 0.0128217 0)
(0.991303 0.0113936 0)
(0.969897 0.0101929 0)
(0.948504 0.0091738 0)
(0.927568 0.00831061 0)
(0.907353 0.00757534 0)
(0.888006 0.00694364 0)
(0.869595 0.00639673 0)
(0.852139 0.00592002 0)
(0.835624 0.00550192 0)
(0.820016 0.00513302 0)
(0.805272 0.00480567 0)
(0.791344 0.00451361 0)
(0.778181 0.00425168 0)
(0.765734 0.00401558 0)
(0.753957 0.00380171 0)
(0.742804 0.00360703 0)
(0.732234 0.00342895 0)
(0.722209 0.00326523 0)
(0.712694 0.0031139 0)
(0.703657 0.00297327 0)
(0.69507 0.00284177 0)
(0.686908 0.00271805 0)
(0.679145 0.00260077 0)
(0.671764 0.00248869 0)
(0.664745 0.00238059 0)
(0.658074 0.00227508 0)
(0.651738 0.00217102 0)
(0.645729 0.0020662 0)
(0.640038 0.00195991 0)
(0.634664 0.0018476 0)
(0.629611 0.00173012 0)
(0.624873 0.00159706 0)
(0.620496 0.00145361 0)
(0.616434 0.00127651 0)
(0.612852 0.00107976 0)
(0.60957 0.000815439 0)
(0.607046 0.000513303 0)
(0.604752 7.47083e-05 0)
(0.60385 -0.000423677 0)
(0.602901 -0.00123925 0)
(0.604834 -0.00215328 0)
(0.606015 -0.00327188 0)
(0.612613 -0.00597983 0)
(1.00506 0.0375012 0)
(1.04763 0.0350488 0)
(1.06397 0.0247016 0)
(1.0642 0.0205977 0)
(1.06073 0.0177634 0)
(1.05483 0.0154943 0)
(1.04608 0.0138786 0)
(1.03488 0.0126158 0)
(1.02197 0.0115258 0)
(1.00795 0.0105695 0)
(0.993272 0.00973329 0)
(0.978298 0.00899987 0)
(0.963293 0.00835259 0)
(0.948453 0.00777841 0)
(0.933913 0.00726701 0)
(0.919764 0.00680983 0)
(0.906065 0.00639962 0)
(0.892848 0.00603017 0)
(0.88013 0.00569622 0)
(0.867915 0.00539322 0)
(0.856196 0.00511729 0)
(0.844964 0.00486505 0)
(0.834204 0.00463355 0)
(0.8239 0.00442023 0)
(0.814034 0.00422279 0)
(0.804589 0.00403921 0)
(0.795547 0.00386768 0)
(0.786893 0.00370652 0)
(0.77861 0.00355423 0)
(0.770683 0.00340933 0)
(0.763101 0.00327043 0)
(0.75585 0.00313611 0)
(0.748923 0.00300478 0)
(0.742309 0.00287509 0)
(0.736005 0.00274451 0)
(0.730003 0.0026121 0)
(0.724307 0.00247263 0)
(0.718921 0.00232688 0)
(0.713843 0.00216291 0)
(0.709113 0.00198616 0)
(0.704699 0.00177037 0)
(0.700738 0.00152989 0)
(0.697096 0.00121166 0)
(0.694145 0.0008447 0)
(0.691499 0.000320458 0)
(0.690043 -0.000285507 0)
(0.688829 -0.00122919 0)
(0.689821 -0.00236152 0)
(0.691035 -0.00370435 0)
(0.696293 -0.00649067 0)
(1.00451 0.0349652 0)
(1.0436 0.0339686 0)
(1.05994 0.0240505 0)
(1.06225 0.020308 0)
(1.06255 0.0178281 0)
(1.06189 0.0157739 0)
(1.05932 0.0143324 0)
(1.05477 0.0132357 0)
(1.04855 0.0122881 0)
(1.04098 0.0114436 0)
(1.03234 0.0106915 0)
(1.02289 0.0100184 0)
(1.01285 0.00941159 0)
(1.00243 0.00886175 0)
(0.991792 0.00836194 0)
(0.981064 0.00790651 0)
(0.970352 0.0074906 0)
(0.959735 0.00710994 0)
(0.949272 0.00676074 0)
(0.93901 0.00643966 0)
(0.928978 0.00614368 0)
(0.919201 0.00587012 0)
(0.909691 0.00561653 0)
(0.900459 0.00538068 0)
(0.891509 0.00516055 0)
(0.882843 0.00495426 0)
(0.87446 0.00476012 0)
(0.866358 0.0045765 0)
(0.858535 0.00440192 0)
(0.850987 0.00423487 0)
(0.843711 0.0040739 0)
(0.836703 0.00391753 0)
(0.829961 0.00376402 0)
(0.823483 0.00361189 0)
(0.81727 0.00345834 0)
(0.811319 0.00330224 0)
(0.805639 0.00313782 0)
(0.800234 0.00296565 0)
(0.795108 0.00277269 0)
(0.790298 0.00256402 0)
(0.785784 0.00231155 0)
(0.78168 0.00202827 0)
(0.777892 0.00165913 0)
(0.774711 0.00122746 0)
(0.771881 0.000626801 0)
(0.770037 -9.21903e-05 0)
(0.768634 -0.00115076 0)
(0.76892 -0.00249209 0)
(0.769941 -0.00407764 0)
(0.77422 -0.00697848 0)
(1.00412 0.0325345 0)
(1.04027 0.032915 0)
(1.05618 0.0234156 0)
(1.05889 0.0199232 0)
(1.06028 0.017699 0)
(1.06166 0.0157767 0)
(1.06204 0.0144369 0)
(1.06114 0.0134559 0)
(1.05908 0.0126245 0)
(1.05595 0.0118859 0)
(1.05186 0.0112267 0)
(1.04691 0.0106332 0)
(1.04124 0.0100927 0)
(1.03496 0.00959648 0)
(1.02821 0.00913884 0)
(1.02109 0.00871553 0)
(1.01371 0.00832312 0)
(1.00614 0.00795868 0)
(0.998452 0.00761968 0)
(0.990714 0.00730383 0)
(0.98297 0.00700907 0)
(0.975262 0.00673346 0)
(0.967622 0.00647518 0)
(0.960076 0.00623253 0)
(0.952644 0.00600387 0)
(0.945343 0.00578767 0)
(0.938187 0.00558245 0)
(0.931187 0.00538678 0)
(0.924351 0.0051993 0)
(0.917686 0.00501858 0)
(0.911198 0.00484324 0)
(0.904893 0.00467176 0)
(0.898776 0.0045024 0)
(0.89285 0.00433357 0)
(0.887124 0.0041623 0)
(0.881601 0.00398732 0)
(0.876291 0.00380243 0)
(0.871205 0.00360791 0)
(0.866351 0.00338997 0)
(0.861762 0.00315292 0)
(0.85743 0.00286784 0)
(0.853448 0.0025449 0)
(0.849758 0.00212993 0)
(0.846581 0.00163658 0)
(0.843767 0.000967163 0)
(0.841752 0.000140025 0)
(0.84026 -0.00102514 0)
(0.840103 -0.00255346 0)
(0.840853 -0.00439132 0)
(0.844317 -0.00745886 0)
(1.00374 0.0302001 0)
(1.03727 0.0318656 0)
(1.05284 0.0228119 0)
(1.05565 0.0195208 0)
(1.05718 0.0175084 0)
(1.05912 0.0156751 0)
(1.06056 0.0143833 0)
(1.06126 0.0134663 0)
(1.06126 0.0127087 0)
(1.0606 0.0120445 0)
(1.05929 0.0114577 0)
(1.05733 0.0109331 0)
(1.05477 0.0104565 0)
(1.05165 0.0100181 0)
(1.04804 0.00961168 0)
(1.04399 0.00923297 0)
(1.03958 0.00887875 0)
(1.03486 0.00854652 0)
(1.02989 0.00823428 0)
(1.02471 0.0079403 0)
(1.01938 0.00766307 0)
(1.01394 0.0074012 0)
(1.00841 0.00715336 0)
(1.00283 0.00691825 0)
(0.997234 0.00669462 0)
(0.991635 0.00648122 0)
(0.986057 0.00627685 0)
(0.980518 0.00608027 0)
(0.975032 0.0058903 0)
(0.969615 0.00570562 0)
(0.964279 0.00552494 0)
(0.959034 0.0053468 0)
(0.953893 0.00516945 0)
(0.948864 0.00499127 0)
(0.94396 0.00480917 0)
(0.93919 0.00462177 0)
(0.934566 0.00442254 0)
(0.930104 0.00421144 0)
(0.925813 0.00397424 0)
(0.921728 0.00371408 0)
(0.917846 0.00340222 0)
(0.914245 0.00304474 0)
(0.910896 0.00259069 0)
(0.907959 0.00204156 0)
(0.905362 0.00131177 0)
(0.903405 0.000388041 0)
(0.901955 -0.000876853 0)
(0.901583 -0.00256691 0)
(0.902126 -0.00464758 0)
(0.904862 -0.0079376 0)
(1.00337 0.0279645 0)
(1.03444 0.0308082 0)
(1.04974 0.0222331 0)
(1.05269 0.0191157 0)
(1.05418 0.0172994 0)
(1.05618 0.0155444 0)
(1.05789 0.014275 0)
(1.05911 0.0133892 0)
(1.05992 0.0126727 0)
(1.06037 0.0120521 0)
(1.06045 0.0115104 0)
(1.06013 0.0110324 0)
(1.05941 0.0106028 0)
(1.05829 0.0102104 0)
(1.05679 0.00984807 0)
(1.05493 0.00951083 0)
(1.05274 0.00919503 0)
(1.05025 0.00889795 0)
(1.04749 0.00861747 0)
(1.04448 0.00835195 0)
(1.04127 0.0081 0)
(1.03788 0.00786038 0)
(1.03433 0.00763198 0)
(1.03065 0.00741372 0)
(1.02687 0.00720452 0)
(1.02301 0.00700333 0)
(1.01908 0.00680909 0)
(1.01511 0.0066207 0)
(1.01111 0.00643709 0)
(1.0071 0.00625705 0)
(1.00308 0.00607933 0)
(0.999085 0.00590252 0)
(0.995117 0.00572486 0)
(0.99119 0.00554473 0)
(0.987319 0.00535893 0)
(0.983515 0.00516596 0)
(0.979793 0.00495906 0)
(0.97617 0.0047378 0)
(0.972658 0.00448784 0)
(0.969288 0.00421076 0)
(0.966066 0.00387885 0)
(0.963052 0.0034933 0)
(0.96024 0.0030078 0)
(0.957744 0.0024112 0)
(0.955538 0.00163015 0)
(0.953835 0.000624238 0)
(0.952572 -0.000729598 0)
(0.95216 -0.00255761 0)
(0.952612 -0.0048573 0)
(0.954745 -0.00839845 0)
(1.00301 0.0258311 0)
(1.03171 0.0297386 0)
(1.04674 0.0216754 0)
(1.0499 0.0187076 0)
(1.05136 0.0170786 0)
(1.05332 0.0154067 0)
(1.05507 0.014153 0)
(1.0564 0.0132838 0)
(1.05745 0.0125908 0)
(1.05829 0.0119943 0)
(1.05893 0.0114775 0)
(1.05934 0.0110263 0)
(1.05953 0.0106253 0)
(1.05947 0.0102628 0)
(1.05917 0.00993088 0)
(1.05863 0.00962409 0)
(1.05785 0.00933823 0)
(1.05684 0.00907017 0)
(1.05561 0.00881751 0)
(1.05417 0.00857836 0)
(1.05255 0.00835119 0)
(1.05075 0.00813472 0)
(1.04879 0.00792779 0)
(1.04668 0.00772932 0)
(1.04445 0.00753827 0)
(1.0421 0.00735359 0)
(1.03964 0.00717427 0)
(1.0371 0.00699922 0)
(1.03449 0.00682739 0)
(1.03182 0.00665757 0)
(1.02909 0.00648853 0)
(1.02634 0.00631887 0)
(1.02356 0.00614674 0)
(1.02077 0.00597052 0)
(1.01798 0.00578686 0)
(1.01521 0.00559416 0)
(1.01247 0.00538549 0)
(1.00978 0.0051599 0)
(1.00715 0.00490324 0)
(1.0046 0.00461525 0)
(1.00215 0.00426988 0)
(0.999842 0.0038631 0)
(0.997684 0.00335366 0)
(0.995757 0.00271902 0)
(0.994059 0.00189608 0)
(0.992743 0.000823549 0)
(0.991787 -0.000605121 0)
(0.991464 -0.00254902 0)
(0.991912 -0.00503834 0)
(0.993614 -0.00882218 0)
(1.00268 0.0238025 0)
(1.02911 0.0286552 0)
(1.04383 0.0211385 0)
(1.0472 0.0182964 0)
(1.04867 0.0168444 0)
(1.0506 0.0152646 0)
(1.05234 0.0140283 0)
(1.05368 0.013171 0)
(1.05476 0.0124949 0)
(1.0557 0.0119137 0)
(1.05651 0.0114109 0)
(1.05719 0.0109742 0)
(1.05774 0.010589 0)
(1.05815 0.0102434 0)
(1.05842 0.00992958 0)
(1.05854 0.00964162 0)
(1.05852 0.00937517 0)
(1.05835 0.00912685 0)
(1.05804 0.008894 0)
(1.05759 0.00867452 0)
(1.05699 0.0084667 0)
(1.05626 0.00826913 0)
(1.0554 0.00808052 0)
(1.05442 0.00789969 0)
(1.05332 0.00772554 0)
(1.05212 0.00755694 0)
(1.05081 0.00739281 0)
(1.04941 0.00723201 0)
(1.04793 0.00707343 0)
(1.04637 0.0069158 0)
(1.04475 0.00675781 0)
(1.04307 0.00659801 0)
(1.04134 0.00643446 0)
(1.03957 0.00626547 0)
(1.03778 0.00608753 0)
(1.03597 0.00589887 0)
(1.03416 0.00569249 0)
(1.03236 0.00546678 0)
(1.03058 0.00520805 0)
(1.02885 0.00491398 0)
(1.02717 0.00456055 0)
(1.02559 0.00413865 0)
(1.02411 0.0036119 0)
(1.02279 0.00294814 0)
(1.02164 0.00209259 0)
(1.02076 0.000967677 0)
(1.02018 -0.000519584 0)
(1.02003 -0.00255645 0)
(1.02051 -0.0052069 0)
(1.02192 -0.00919813 0)
(1.00238 0.0218805 0)
(1.02665 0.0275572 0)
(1.04101 0.020622 0)
(1.0446 0.0178837 0)
(1.04608 0.0165956 0)
(1.04798 0.0151166 0)
(1.04972 0.0139021 0)
(1.05105 0.0130558 0)
(1.05212 0.0123949 0)
(1.05307 0.0118266 0)
(1.05391 0.0113336 0)
(1.05465 0.0109058 0)
(1.05531 0.0105295 0)
(1.05589 0.0101934 0)
(1.05638 0.0098894 0)
(1.05679 0.0096119 0)
(1.05711 0.0093565 0)
(1.05736 0.00911976 0)
(1.05751 0.00889894 0)
(1.05758 0.00869185 0)
(1.05756 0.0084967 0)
(1.05745 0.00831197 0)
(1.05726 0.00813629 0)
(1.05698 0.0079684 0)
(1.05662 0.00780711 0)
(1.05618 0.00765121 0)
(1.05565 0.00749953 0)
(1.05505 0.00735083 0)
(1.05438 0.0072039 0)
(1.05364 0.0070574 0)
(1.05284 0.00690989 0)
(1.05198 0.00675985 0)
(1.05107 0.00660519 0)
(1.05011 0.00644412 0)
(1.04912 0.00627301 0)
(1.0481 0.00608982 0)
(1.04706 0.00588758 0)
(1.04602 0.00566392 0)
(1.04498 0.00540577 0)
(1.04395 0.00510871 0)
(1.04296 0.00475084 0)
(1.04202 0.00431843 0)
(1.04116 0.00377947 0)
(1.0404 0.00309402 0)
(1.03977 0.00221407 0)
(1.03932 0.00104951 0)
(1.03909 -0.000482075 0)
(1.03916 -0.0025883 0)
(1.03967 -0.00537123 0)
(1.04086 -0.00952208 0)
(1.0021 0.020066 0)
(1.02431 0.0264464 0)
(1.03828 0.0201237 0)
(1.04207 0.0174714 0)
(1.04358 0.016332 0)
(1.04544 0.0149614 0)
(1.04719 0.0137739 0)
(1.04852 0.0129387 0)
(1.04958 0.012293 0)
(1.05051 0.0117374 0)
(1.05134 0.0112532 0)
(1.05209 0.0108324 0)
(1.05277 0.0104624 0)
(1.05338 0.0101323 0)
(1.05394 0.0098341 0)
(1.05444 0.00956244 0)
(1.0549 0.00931303 0)
(1.0553 0.00908253 0)
(1.05566 0.00886825 0)
(1.05597 0.00866801 0)
(1.05623 0.00848004 0)
(1.05643 0.00830279 0)
(1.05659 0.0081349 0)
(1.05669 0.00797508 0)
(1.05674 0.00782208 0)
(1.05674 0.00767465 0)
(1.05668 0.00753155 0)
(1.05658 0.00739146 0)
(1.05642 0.00725308 0)
(1.05621 0.007115 0)
(1.05595 0.00697564 0)
(1.05564 0.00683341 0)
(1.0553 0.00668608 0)
(1.05492 0.00653175 0)
(1.0545 0.00636665 0)
(1.05406 0.00618848 0)
(1.0536 0.00599034 0)
(1.05312 0.00576905 0)
(1.05264 0.00551227 0)
(1.05217 0.00521355 0)
(1.05172 0.00485305 0)
(1.0513 0.00441305 0)
(1.05093 0.00386525 0)
(1.05063 0.00316376 0)
(1.05042 0.00226565 0)
(1.05034 0.00107258 0)
(1.0504 -0.000492006 0)
(1.05065 -0.00264652 0)
(1.05118 -0.00553006 0)
(1.05215 -0.00979278 0)
(1.00185 0.0183593 0)
(1.02211 0.025327 0)
(1.03564 0.0196399 0)
(1.03963 0.0170613 0)
(1.04117 0.0160544 0)
(1.043 0.0147982 0)
(1.04474 0.0136431 0)
(1.04607 0.0128194 0)
(1.04713 0.0121889 0)
(1.04804 0.0116467 0)
(1.04886 0.0111716 0)
(1.0496 0.0107574 0)
(1.05027 0.010393 0)
(1.05088 0.0100677 0)
(1.05145 0.0097738 0)
(1.05197 0.00950597 0)
(1.05246 0.00926016 0)
(1.05292 0.00903314 0)
(1.05334 0.00882232 0)
(1.05374 0.00862563 0)
(1.05411 0.00844133 0)
(1.05445 0.00826795 0)
(1.05476 0.00810416 0)
(1.05504 0.00794869 0)
(1.05529 0.0078003 0)
(1.05551 0.00765773 0)
(1.0557 0.0075197 0)
(1.05586 0.00738487 0)
(1.05598 0.00725185 0)
(1.05607 0.00711917 0)
(1.05613 0.00698519 0)
(1.05616 0.0068482 0)
(1.05617 0.00670589 0)
(1.05614 0.00655621 0)
(1.05609 0.00639535 0)
(1.05602 0.00622068 0)
(1.05594 0.00602545 0)
(1.05585 0.00580568 0)
(1.05575 0.00554979 0)
(1.05566 0.00524946 0)
(1.05559 0.00488675 0)
(1.05554 0.00444063 0)
(1.05552 0.00388581 0)
(1.05556 0.00317228 0)
(1.05566 0.00226043 0)
(1.05583 0.00104781 0)
(1.05611 -0.000540771 0)
(1.05648 -0.00272607 0)
(1.05699 -0.00567655 0)
(1.0577 -0.010004 0)
(1.00162 0.01676 0)
(1.02005 0.0242033 0)
(1.03311 0.0191664 0)
(1.03728 0.016655 0)
(1.03885 0.0157639 0)
(1.04064 0.0146263 0)
(1.04238 0.0135095 0)
(1.04372 0.0126977 0)
(1.04476 0.0120825 0)
(1.04566 0.0115543 0)
(1.04647 0.0110888 0)
(1.0472 0.0106815 0)
(1.04785 0.0103227 0)
(1.04846 0.0100021 0)
(1.04901 0.00971197 0)
(1.04953 0.00944733 0)
(1.05002 0.00920421 0)
(1.05049 0.00897953 0)
(1.05092 0.0087708 0)
(1.05134 0.00857604 0)
(1.05175 0.00839362 0)
(1.05213 0.00822212 0)
(1.0525 0.00806029 0)
(1.05285 0.00790691 0)
(1.05318 0.00776077 0)
(1.0535 0.00762063 0)
(1.0538 0.0074852 0)
(1.05408 0.00735314 0)
(1.05434 0.00722301 0)
(1.05458 0.00709332 0)
(1.0548 0.00696233 0)
(1.05501 0.00682829 0)
(1.0552 0.00668882 0)
(1.05537 0.00654173 0)
(1.05553 0.0063832 0)
(1.05567 0.00621027 0)
(1.05581 0.00601642 0)
(1.05595 0.00579687 0)
(1.05609 0.00554081 0)
(1.05623 0.0052383 0)
(1.05639 0.00487302 0)
(1.05657 0.00442144 0)
(1.05678 0.00386045 0)
(1.05702 0.00313761 0)
(1.05731 0.0022153 0)
(1.05764 0.000989574 0)
(1.05804 -0.000614071 0)
(1.05845 -0.00281576 0)
(1.05891 -0.00580152 0)
(1.05932 -0.0101489 0)
(1.00142 0.0152675 0)
(1.01812 0.0230792 0)
(1.03069 0.0186993 0)
(1.03502 0.016254 0)
(1.03662 0.0154617 0)
(1.03838 0.0144451 0)
(1.04011 0.0133728 0)
(1.04145 0.0125738 0)
(1.04249 0.0119736 0)
(1.04338 0.0114601 0)
(1.04417 0.0110049 0)
(1.04489 0.0106048 0)
(1.04553 0.0102517 0)
(1.04612 0.00993574 0)
(1.04667 0.0096495 0)
(1.04718 0.00938793 0)
(1.04766 0.00914728 0)
(1.04811 0.00892458 0)
(1.04855 0.00871746 0)
(1.04897 0.00852402 0)
(1.04937 0.00834271 0)
(1.04976 0.0081722 0)
(1.05014 0.00801131 0)
(1.05051 0.00785888 0)
(1.05087 0.00771374 0)
(1.05122 0.00757468 0)
(1.05156 0.00744043 0)
(1.05188 0.00730964 0)
(1.0522 0.00718085 0)
(1.0525 0.00705254 0)
(1.0528 0.00692294 0)
(1.05308 0.00679024 0)
(1.05336 0.006652 0)
(1.05362 0.00650593 0)
(1.05388 0.00634821 0)
(1.05414 0.00617559 0)
(1.05439 0.00598177 0)
(1.05464 0.00576127 0)
(1.05491 0.00550399 0)
(1.05517 0.00519864 0)
(1.05546 0.00483022 0)
(1.05576 0.00437348 0)
(1.05609 0.00380674 0)
(1.05644 0.00307663 0)
(1.05683 0.00214634 0)
(1.05724 0.000912752 0)
(1.05767 -0.000698414 0)
(1.05807 -0.00290414 0)
(1.05841 -0.00589534 0)
(1.05853 -0.0102159 0)
(1.00124 0.0138802 0)
(1.01633 0.0219587 0)
(1.02837 0.0182349 0)
(1.03285 0.0158594 0)
(1.03449 0.0151495 0)
(1.03621 0.014254 0)
(1.03793 0.0132325 0)
(1.03927 0.0124477 0)
(1.04031 0.0118623 0)
(1.04119 0.0113639 0)
(1.04197 0.0109195 0)
(1.04267 0.010527 0)
(1.04331 0.0101799 0)
(1.04389 0.0098688 0)
(1.04442 0.00958651 0)
(1.04492 0.00932809 0)
(1.04539 0.00908991 0)
(1.04583 0.00886914 0)
(1.04626 0.0086635 0)
(1.04667 0.00847119 0)
(1.04706 0.00829074 0)
(1.04745 0.0081209 0)
(1.04783 0.00796055 0)
(1.04819 0.00780859 0)
(1.04855 0.00766391 0)
(1.04891 0.00752532 0)
(1.04925 0.00739156 0)
(1.04959 0.00726129 0)
(1.04992 0.00713303 0)
(1.05025 0.00700524 0)
(1.05056 0.00687612 0)
(1.05087 0.00674381 0)
(1.05118 0.00660584 0)
(1.05148 0.00645981 0)
(1.05178 0.00630192 0)
(1.05208 0.00612867 0)
(1.05239 0.00593397 0)
(1.05269 0.00571174 0)
(1.05301 0.00545248 0)
(1.05333 0.00514388 0)
(1.05367 0.00477192 0)
(1.05402 0.00431034 0)
(1.0544 0.00373826 0)
(1.0548 0.00300264 0)
(1.05522 0.00206661 0)
(1.05563 0.000830061 0)
(1.05604 -0.000782566 0)
(1.05636 -0.00298074 0)
(1.05656 -0.00595063 0)
(1.05637 -0.0102002 0)
(1.00107 0.0125963 0)
(1.01467 0.020846 0)
(1.02616 0.0177696 0)
(1.03076 0.0154722 0)
(1.03246 0.0148292 0)
(1.03413 0.0140526 0)
(1.03583 0.0130881 0)
(1.03718 0.0123194 0)
(1.03822 0.0117484 0)
(1.03908 0.0112656 0)
(1.03986 0.0108327 0)
(1.04055 0.0104481 0)
(1.04117 0.0101071 0)
(1.04174 0.00980114 0)
(1.04227 0.00952296 0)
(1.04275 0.00926778 0)
(1.04321 0.00903215 0)
(1.04365 0.00881335 0)
(1.04406 0.00860921 0)
(1.04446 0.00841801 0)
(1.04485 0.00823836 0)
(1.04523 0.00806911 0)
(1.04559 0.00790918 0)
(1.04595 0.00775754 0)
(1.04631 0.00761312 0)
(1.04666 0.00747476 0)
(1.047 0.00734122 0)
(1.04733 0.00721115 0)
(1.04766 0.00708307 0)
(1.04799 0.00695541 0)
(1.04831 0.00682635 0)
(1.04862 0.00669397 0)
(1.04893 0.00655579 0)
(1.04925 0.00640931 0)
(1.04956 0.00625076 0)
(1.04987 0.00607638 0)
(1.05018 0.00588032 0)
(1.0505 0.00565598 0)
(1.05083 0.00539436 0)
(1.05117 0.00508244 0)
(1.05153 0.00470686 0)
(1.05189 0.00424098 0)
(1.05228 0.00366426 0)
(1.05267 0.00292483 0)
(1.05308 0.00198575 0)
(1.05346 0.000749913 0)
(1.05381 -0.0008564 0)
(1.05403 -0.00303489 0)
(1.05406 -0.00595957 0)
(1.05355 -0.0100966 0)
(1.00093 0.011413 0)
(1.01314 0.0197451 0)
(1.02407 0.0173005 0)
(1.02876 0.0150929 0)
(1.03052 0.0145027 0)
(1.03215 0.0138406 0)
(1.03383 0.0129391 0)
(1.03518 0.0121888 0)
(1.03621 0.011632 0)
(1.03707 0.0111649 0)
(1.03784 0.0107443 0)
(1.03852 0.0103681 0)
(1.03914 0.0100335 0)
(1.03969 0.0097327 0)
(1.04021 0.00945877 0)
(1.04068 0.00920697 0)
(1.04113 0.00897397 0)
(1.04156 0.00875721 0)
(1.04196 0.0085546 0)
(1.04235 0.00836454 0)
(1.04273 0.00818571 0)
(1.0431 0.00801702 0)
(1.04346 0.00785749 0)
(1.04381 0.00770614 0)
(1.04415 0.00756194 0)
(1.04449 0.00742375 0)
(1.04483 0.00729035 0)
(1.04516 0.00716039 0)
(1.04548 0.00703237 0)
(1.0458 0.00690471 0)
(1.04611 0.00677554 0)
(1.04642 0.00664293 0)
(1.04673 0.00650436 0)
(1.04704 0.00635722 0)
(1.04734 0.00619782 0)
(1.04765 0.00602215 0)
(1.04797 0.00582456 0)
(1.04828 0.00559805 0)
(1.04861 0.005334 0)
(1.04895 0.00501897 0)
(1.0493 0.00463998 0)
(1.04965 0.00417059 0)
(1.05002 0.0035902 0)
(1.05039 0.00284889 0)
(1.05076 0.00190928 0)
(1.05108 0.000679213 0)
(1.05136 -0.000914499 0)
(1.05145 -0.00306158 0)
(1.05129 -0.0059186 0)
(1.0505 -0.00990493 0)
(1.0008 0.0103271 0)
(1.01174 0.0186601 0)
(1.02208 0.0168248 0)
(1.02684 0.0147218 0)
(1.02867 0.014172 0)
(1.03026 0.013618 0)
(1.03191 0.0127849 0)
(1.03327 0.0120561 0)
(1.0343 0.0115131 0)
(1.03515 0.0110619 0)
(1.03591 0.0106541 0)
(1.03658 0.0102867 0)
(1.03719 0.00995876 0)
(1.03774 0.00966341 0)
(1.03824 0.00939388 0)
(1.03871 0.00914557 0)
(1.03915 0.0089153 0)
(1.03956 0.00870064 0)
(1.03996 0.00849963 0)
(1.04034 0.00831073 0)
(1.04071 0.00813275 0)
(1.04107 0.00796466 0)
(1.04142 0.00780555 0)
(1.04176 0.0076545 0)
(1.0421 0.00751051 0)
(1.04243 0.0073725 0)
(1.04275 0.00723923 0)
(1.04307 0.00710936 0)
(1.04339 0.00698138 0)
(1.0437 0.00685369 0)
(1.04401 0.0067244 0)
(1.04431 0.00659152 0)
(1.04461 0.00645253 0)
(1.04491 0.00630471 0)
(1.04521 0.00614442 0)
(1.04551 0.00596749 0)
(1.04581 0.00576838 0)
(1.04612 0.00553984 0)
(1.04644 0.00527351 0)
(1.04676 0.00495578 0)
(1.04709 0.00457386 0)
(1.04743 0.0041019 0)
(1.04777 0.00351912 0)
(1.0481 0.00277796 0)
(1.04843 0.00184097 0)
(1.04868 0.000620956 0)
(1.04887 -0.000952037 0)
(1.04883 -0.00305535 0)
(1.04849 -0.00582443 0)
(1.04741 -0.00962683 0)
(1.00069 0.00933472 0)
(1.01046 0.0175952 0)
(1.02021 0.0163403 0)
(1.02501 0.0143589 0)
(1.0269 0.0138391 0)
(1.02846 0.0133849 0)
(1.03008 0.0126249 0)
(1.03144 0.0119209 0)
(1.03247 0.0113918 0)
(1.03332 0.0109564 0)
(1.03407 0.0105621 0)
(1.03473 0.010204 0)
(1.03533 0.00988293 0)
(1.03587 0.00959316 0)
(1.03637 0.00932821 0)
(1.03683 0.00908352 0)
(1.03726 0.00885608 0)
(1.03766 0.00864359 0)
(1.03805 0.00844422 0)
(1.03842 0.00825654 0)
(1.03879 0.00807944 0)
(1.03914 0.00791197 0)
(1.03948 0.0077533 0)
(1.03981 0.00760257 0)
(1.04014 0.00745883 0)
(1.04046 0.00732101 0)
(1.04078 0.00718789 0)
(1.04109 0.00705814 0)
(1.0414 0.00693023 0)
(1.0417 0.00680253 0)
(1.042 0.00667313 0)
(1.04229 0.00654001 0)
(1.04259 0.00640062 0)
(1.04288 0.00625219 0)
(1.04317 0.00609108 0)
(1.04346 0.00591298 0)
(1.04375 0.00571248 0)
(1.04405 0.00548216 0)
(1.04435 0.00521383 0)
(1.04465 0.00489392 0)
(1.04497 0.00450973 0)
(1.04528 0.00403628 0)
(1.04559 0.00345261 0)
(1.04588 0.00271378 0)
(1.04616 0.0017828 0)
(1.04634 0.0005775 0)
(1.04643 -0.000966555 0)
(1.04626 -0.00301397 0)
(1.04574 -0.00567623 0)
(1.04441 -0.00926625 0)
(1.0006 0.00843164 0)
(1.0093 0.0165543 0)
(1.01845 0.015845 0)
(1.02327 0.0140038 0)
(1.02523 0.013506 0)
(1.02676 0.0131419 0)
(1.02834 0.0124584 0)
(1.0297 0.0117832 0)
(1.03074 0.011268 0)
(1.03158 0.0108483 0)
(1.03231 0.010468 0)
(1.03297 0.0101198 0)
(1.03356 0.00980589 0)
(1.0341 0.00952189 0)
(1.03459 0.00926165 0)
(1.03504 0.00902073 0)
(1.03546 0.00879622 0)
(1.03586 0.00858598 0)
(1.03624 0.00838832 0)
(1.0366 0.0082019 0)
(1.03696 0.00802571 0)
(1.0373 0.0078589 0)
(1.03763 0.00770071 0)
(1.03796 0.00755032 0)
(1.03828 0.00740685 0)
(1.0386 0.00726924 0)
(1.03891 0.00713631 0)
(1.03921 0.00700671 0)
(1.03951 0.0068789 0)
(1.0398 0.00675123 0)
(1.04009 0.00662178 0)
(1.04038 0.00648846 0)
(1.04066 0.00634875 0)
(1.04094 0.00619977 0)
(1.04122 0.00603794 0)
(1.0415 0.00585884 0)
(1.04178 0.00565713 0)
(1.04207 0.00542535 0)
(1.04236 0.00515538 0)
(1.04264 0.00483391 0)
(1.04294 0.00444821 0)
(1.04322 0.00397445 0)
(1.0435 0.00339155 0)
(1.04375 0.00265746 0)
(1.04397 0.00173584 0)
(1.04408 0.000550851 0)
(1.04408 -0.000957385 0)
(1.04378 -0.00293691 0)
(1.04309 -0.00547472 0)
(1.04154 -0.00882876 0)
(1.00051 0.00761305 0)
(1.00825 0.0155414 0)
(1.01681 0.0153378 0)
(1.02161 0.013656 0)
(1.02364 0.0131743 0)
(1.02514 0.0128896 0)
(1.02669 0.0122849 0)
(1.02804 0.0116426 0)
(1.02908 0.0111419 0)
(1.02992 0.0107376 0)