/*--------------------------------*- C++ -*----------------------------------*\
  =========                 |
  \\      /  F ield         | OpenFOAM: The Open Source CFD Toolbox
   \\    /   O peration     | Website:  https://openfoam.org
    \\  /    A nd           | Version:  7
     \\/     M anipulation  |
\*---------------------------------------------------------------------------*/
FoamFile
{
    version     2.0;
    format      ascii;
    class       volVectorField;
    location    "0.47";
    object      vorticity;
}
// * * * * * * * * * * * * * * * * * * * * * * * * * * * * * * * * * * * * * //

dimensions      [0 0 -1 0 0 0 0];

internalField   nonuniform List<vector> 
70000
(
(0 -0 -45716.1)
(0 -0 -28618.1)
(0 -0 -20914.1)
(0 -0 -16980.8)
(0 -0 -14959.5)
(0 -0 -13652.4)
(0 -0 -12643.1)
(0 -0 -11830.8)
(0 -0 -11167.5)
(0 -0 -10614.3)
(0 -0 -10143.1)
(0 -0 -9735.44)
(0 -0 -9378.25)
(0 -0 -9062.12)
(0 -0 -8779.94)
(0 -0 -8526.19)
(0 -0 -8296.57)
(0 -0 -8087.63)
(0 -0 -7896.59)
(0 -0 -7721.18)
(0 -0 -7559.51)
(0 -0 -7410.01)
(0 -0 -7271.38)
(0 -0 -7142.5)
(0 -0 -7022.42)
(0 -0 -6910.35)
(0 -0 -6805.61)
(0 -0 -6707.62)
(0 -0 -6615.89)
(0 -0 -6530.02)
(0 -0 -6449.7)
(0 -0 -6374.64)
(0 -0 -6304.7)
(0 -0 -6239.72)
(0 -0 -6179.75)
(0 -0 -6124.8)
(0 -0 -6075.08)
(0 -0 -6031.05)
(0 -0 -5992.77)
(0 -0 -5962.13)
(0 -0 -5937.8)
(0 -0 -5925.88)
(0 -0 -5920.07)
(0 -0 -5937.58)
(0 -0 -5958.02)
(0 -0 -6027.59)
(0 -0 -6080.31)
(0 -0 -6267.76)
(0 -0 -6316.88)
(0 -0 -6540.96)
(0 -0 -13549.7)
(0 -0 -19947.4)
(0 -0 -18536.4)
(0 -0 -16249.9)
(0 -0 -14503.8)
(0 -0 -13279.6)
(0 -0 -12351.4)
(0 -0 -11601.5)
(0 -0 -10979.5)
(0 -0 -10454.8)
(0 -0 -10005)
(0 -0 -9613.97)
(0 -0 -9269.98)
(0 -0 -8964.47)
(0 -0 -8690.95)
(0 -0 -8444.35)
(0 -0 -8220.66)
(0 -0 -8016.67)
(0 -0 -7829.78)
(0 -0 -7657.84)
(0 -0 -7499.07)
(0 -0 -7351.97)
(0 -0 -7215.29)
(0 -0 -7087.96)
(0 -0 -6969.07)
(0 -0 -6857.84)
(0 -0 -6753.6)
(0 -0 -6655.76)
(0 -0 -6563.85)
(0 -0 -6477.41)
(0 -0 -6396.1)
(0 -0 -6319.6)
(0 -0 -6247.69)
(0 -0 -6180.11)
(0 -0 -6116.8)
(0 -0 -6057.59)
(0 -0 -6002.5)
(0 -0 -5951.67)
(0 -0 -5904.92)
(0 -0 -5863.4)
(0 -0 -5825.73)
(0 -0 -5796.1)
(0 -0 -5769.23)
(0 -0 -5757.31)
(0 -0 -5744.56)
(0 -0 -5763.5)
(0 -0 -5767.38)
(0 -0 -5856.09)
(0 -0 -5862.95)
(0 -0 -6144.32)
(0 -0 -3818.74)
(0 -0 -10828.8)
(0 -0 -13363.4)
(0 -0 -13519.6)
(0 -0 -12866.2)
(0 -0 -12139.9)
(0 -0 -11498.2)
(0 -0 -10937.9)
(0 -0 -10446.2)
(0 -0 -10014)
(0 -0 -9632.6)
(0 -0 -9293.77)
(0 -0 -8990.73)
(0 -0 -8717.99)
(0 -0 -8471.11)
(0 -0 -8246.49)
(0 -0 -8041.15)
(0 -0 -7852.64)
(0 -0 -7678.91)
(0 -0 -7518.25)
(0 -0 -7369.2)
(0 -0 -7230.52)
(0 -0 -7101.16)
(0 -0 -6980.21)
(0 -0 -6866.88)
(0 -0 -6760.5)
(0 -0 -6660.46)
(0 -0 -6566.27)
(0 -0 -6477.46)
(0 -0 -6393.64)
(0 -0 -6314.48)
(0 -0 -6239.65)
(0 -0 -6168.94)
(0 -0 -6102.08)
(0 -0 -6038.93)
(0 -0 -5979.3)
(0 -0 -5923.09)
(0 -0 -5870.29)
(0 -0 -5820.66)
(0 -0 -5774.77)
(0 -0 -5731.62)
(0 -0 -5693.53)
(0 -0 -5657.16)
(0 -0 -5629.23)
(0 -0 -5600.55)
(0 -0 -5588.86)
(0 -0 -5567.92)
(0 -0 -5589.58)
(0 -0 -5580.91)
(0 -0 -5679.61)
(0 -0 -533.07)
(0 -0 -4662.57)
(0 -0 -7718.38)
(0 -0 -9328.58)
(0 -0 -9892.48)
(0 -0 -9957.86)
(0 -0 -9826.11)
(0 -0 -9614.1)
(0 -0 -9370.71)
(0 -0 -9120.71)
(0 -0 -8876.54)
(0 -0 -8643.8)
(0 -0 -8424.57)
(0 -0 -8219.27)
(0 -0 -8027.51)
(0 -0 -7848.55)
(0 -0 -7681.5)
(0 -0 -7525.41)
(0 -0 -7379.39)
(0 -0 -7242.59)
(0 -0 -7114.24)
(0 -0 -6993.62)
(0 -0 -6880.11)
(0 -0 -6773.12)
(0 -0 -6672.14)
(0 -0 -6576.72)
(0 -0 -6486.44)
(0 -0 -6400.93)
(0 -0 -6319.87)
(0 -0 -6242.96)
(0 -0 -6169.93)
(0 -0 -6100.56)
(0 -0 -6034.64)
(0 -0 -5971.96)
(0 -0 -5912.39)
(0 -0 -5855.77)
(0 -0 -5801.97)
(0 -0 -5750.93)
(0 -0 -5702.46)
(0 -0 -5656.72)
(0 -0 -5613.3)
(0 -0 -5572.86)
(0 -0 -5534.38)
(0 -0 -5499.65)
(0 -0 -5466.33)
(0 -0 -5438.87)
(0 -0 -5411.55)
(0 -0 -5389.89)
(0 -0 -5399.33)
(0 -0 -5316.12)
(0 -0 322.417)
(0 -0 -1444.49)
(0 -0 -3532.5)
(0 -0 -5259.18)
(0 -0 -6399.37)
(0 -0 -7074.22)
(0 -0 -7451.64)
(0 -0 -7642.09)
(0 -0 -7713.87)
(0 -0 -7711.33)
(0 -0 -7663.1)
(0 -0 -7587.31)
(0 -0 -7495.42)
(0 -0 -7394.71)
(0 -0 -7289.86)
(0 -0 -7183.87)
(0 -0 -7078.67)
(0 -0 -6975.47)
(0 -0 -6875.04)
(0 -0 -6777.8)
(0 -0 -6684)
(0 -0 -6593.74)
(0 -0 -6507.02)
(0 -0 -6423.79)
(0 -0 -6343.98)
(0 -0 -6267.48)
(0 -0 -6194.15)
(0 -0 -6123.89)
(0 -0 -6056.56)
(0 -0 -5992.04)
(0 -0 -5930.22)
(0 -0 -5870.96)
(0 -0 -5814.18)
(0 -0 -5759.76)
(0 -0 -5707.61)
(0 -0 -5657.64)
(0 -0 -5609.78)
(0 -0 -5563.93)
(0 -0 -5520.06)
(0 -0 -5478.01)
(0 -0 -5437.95)
(0 -0 -5399.33)
(0 -0 -5363.08)
(0 -0 -5327.35)
(0 -0 -5295.2)
(0 -0 -5261.09)
(0 -0 -5236.68)
(0 -0 -5189.39)
(0 -0 -5218.3)
(0 -0 -5063.19)
(0 -0 364.679)
(0 -0 -158.541)
(0 -0 -1181.46)
(0 -0 -2361.98)
(0 -0 -3417.56)
(0 -0 -4256.24)
(0 -0 -4891.29)
(0 -0 -5356.59)
(0 -0 -5687.23)
(0 -0 -5915.31)
(0 -0 -6067.19)
(0 -0 -6163.1)
(0 -0 -6218.02)
(0 -0 -6242.96)
(0 -0 -6245.99)
(0 -0 -6233.04)
(0 -0 -6208.49)
(0 -0 -6175.56)
(0 -0 -6136.66)
(0 -0 -6093.57)
(0 -0 -6047.65)
(0 -0 -5999.91)
(0 -0 -5951.1)
(0 -0 -5901.82)
(0 -0 -5852.48)
(0 -0 -5803.43)
(0 -0 -5754.92)
(0 -0 -5707.13)
(0 -0 -5660.2)
(0 -0 -5614.23)
(0 -0 -5569.31)
(0 -0 -5525.47)
(0 -0 -5482.76)
(0 -0 -5441.2)
(0 -0 -5400.79)
(0 -0 -5361.52)
(0 -0 -5323.42)
(0 -0 -5286.41)
(0 -0 -5250.6)
(0 -0 -5215.65)
(0 -0 -5182.15)
(0 -0 -5148.87)
(0 -0 -5117.84)
(0 -0 -5085.28)
(0 -0 -5057.37)
(0 -0 -5022.52)
(0 -0 -5003.43)
(0 -0 -4946.79)
(0 -0 -4976.05)
(0 -0 -4833.05)
(0 -0 253.999)
(0 -0 185.293)
(0 -0 -173.255)
(0 -0 -764.625)
(0 -0 -1447.67)
(0 -0 -2115.46)
(0 -0 -2720.58)
(0 -0 -3243.48)
(0 -0 -3679.98)
(0 -0 -4035.89)
(0 -0 -4321.52)
(0 -0 -4548.09)
(0 -0 -4726)
(0 -0 -4864.28)
(0 -0 -4970.5)
(0 -0 -5050.87)
(0 -0 -5110.42)
(0 -0 -5153.2)
(0 -0 -5182.46)
(0 -0 -5200.81)
(0 -0 -5210.35)
(0 -0 -5212.76)
(0 -0 -5209.4)
(0 -0 -5201.38)
(0 -0 -5189.6)
(0 -0 -5174.79)
(0 -0 -5157.55)
(0 -0 -5138.39)
(0 -0 -5117.7)
(0 -0 -5095.82)
(0 -0 -5073.04)
(0 -0 -5049.59)
(0 -0 -5025.66)
(0 -0 -5001.4)
(0 -0 -4976.95)
(0 -0 -4952.41)
(0 -0 -4927.88)
(0 -0 -4903.35)
(0 -0 -4879.03)
(0 -0 -4854.59)
(0 -0 -4830.73)
(0 -0 -4806.08)
(0 -0 -4782.99)
(0 -0 -4757.1)
(0 -0 -4735.64)
(0 -0 -4704.79)
(0 -0 -4690.48)
(0 -0 -4637.7)
(0 -0 -4653.81)
(0 -0 -4548.76)
(0 -0 178.725)
(0 -0 204.486)
(0 -0 130.669)
(0 -0 -85.1761)
(0 -0 -417.85)
(0 -0 -814.868)
(0 -0 -1236.31)
(0 -0 -1653.23)
(0 -0 -2045.67)
(0 -0 -2402.62)
(0 -0 -2719.85)
(0 -0 -2997.31)
(0 -0 -3237.24)
(0 -0 -3443.04)
(0 -0 -3618.49)
(0 -0 -3767.37)
(0 -0 -3893.22)
(0 -0 -3999.24)
(0 -0 -4088.22)
(0 -0 -4162.61)
(0 -0 -4224.52)
(0 -0 -4275.72)
(0 -0 -4317.76)
(0 -0 -4351.92)
(0 -0 -4379.33)
(0 -0 -4400.92)
(0 -0 -4417.49)
(0 -0 -4429.74)
(0 -0 -4438.26)
(0 -0 -4443.56)
(0 -0 -4446.06)
(0 -0 -4446.15)
(0 -0 -4444.14)
(0 -0 -4440.32)
(0 -0 -4434.91)
(0 -0 -4428.12)
(0 -0 -4420.11)
(0 -0 -4410.99)
(0 -0 -4400.97)
(0 -0 -4389.85)
(0 -0 -4378.27)
(0 -0 -4365.02)
(0 -0 -4352.3)
(0 -0 -4335.94)
(0 -0 -4322.88)
(0 -0 -4299.91)
(0 -0 -4290.03)
(0 -0 -4248.84)
(0 -0 -4250.76)
(0 -0 -4178.93)
(0 -0 147.998)
(0 -0 164.589)
(0 -0 169.979)
(0 -0 120.988)
(0 -0 1.062)
(0 -0 -180.702)
(0 -0 -408.902)
(0 -0 -667.136)
(0 -0 -939.509)
(0 -0 -1213.05)
(0 -0 -1478.49)
(0 -0 -1729.85)
(0 -0 -1963.63)
(0 -0 -2178.2)
(0 -0 -2373.22)
(0 -0 -2549.2)
(0 -0 -2707.13)
(0 -0 -2848.3)
(0 -0 -2974.11)
(0 -0 -3085.98)
(0 -0 -3185.27)
(0 -0 -3273.26)
(0 -0 -3351.12)
(0 -0 -3419.92)
(0 -0 -3480.63)
(0 -0 -3534.09)
(0 -0 -3581.09)
(0 -0 -3622.3)
(0 -0 -3658.33)
(0 -0 -3689.72)
(0 -0 -3716.95)
(0 -0 -3740.45)
(0 -0 -3760.58)
(0 -0 -3777.7)
(0 -0 -3792.05)
(0 -0 -3803.94)
(0 -0 -3813.54)
(0 -0 -3821.05)
(0 -0 -3826.65)
(0 -0 -3830.28)
(0 -0 -3832.46)
(0 -0 -3832.21)
(0 -0 -3831.41)
(0 -0 -3826.43)
(0 -0 -3823.12)
(0 -0 -3810.65)
(0 -0 -3805.81)
(0 -0 -3778.87)
(0 -0 -3772.96)
(0 -0 -3722.6)
(0 -0 136.805)
(0 -0 137.053)
(0 -0 148.723)
(0 -0 149.677)
(0 -0 122.201)
(0 -0 60.1302)
(0 -0 -36.348)
(0 -0 -163.554)
(0 -0 -315.094)
(0 -0 -483.61)
(0 -0 -662.148)
(0 -0 -844.773)
(0 -0 -1026.74)
(0 -0 -1204.49)
(0 -0 -1375.49)
(0 -0 -1538.08)
(0 -0 -1691.27)
(0 -0 -1834.6)
(0 -0 -1967.98)
(0 -0 -2091.57)
(0 -0 -2205.72)
(0 -0 -2310.87)
(0 -0 -2407.53)
(0 -0 -2496.24)
(0 -0 -2577.54)
(0 -0 -2651.95)
(0 -0 -2719.98)
(0 -0 -2782.11)
(0 -0 -2838.79)
(0 -0 -2890.44)
(0 -0 -2937.46)
(0 -0 -2980.2)
(0 -0 -3018.97)
(0 -0 -3054.11)
(0 -0 -3085.85)
(0 -0 -3114.46)
(0 -0 -3140.12)
(0 -0 -3163.03)
(0 -0 -3183.36)
(0 -0 -3201.09)
(0 -0 -3216.65)
(0 -0 -3229.22)
(0 -0 -3240.37)
(0 -0 -3247.08)
(0 -0 -3253.78)
(0 -0 -3252.69)
(0 -0 -3253.96)
(0 -0 -3240.3)
(0 -0 -3234.38)
(0 -0 -3197.1)
(0 -0 129.924)
(0 -0 123.982)
(0 -0 129.169)
(0 -0 136.376)
(0 -0 136.473)
(0 -0 123.213)
(0 -0 92.9454)
(0 -0 43.8249)
(0 -0 -23.9662)
(0 -0 -108.568)
(0 -0 -207.175)
(0 -0 -316.623)
(0 -0 -433.751)
(0 -0 -555.65)
(0 -0 -679.788)
(0 -0 -804.069)
(0 -0 -926.821)
(0 -0 -1046.76)
(0 -0 -1162.94)
(0 -0 -1274.7)
(0 -0 -1381.59)
(0 -0 -1483.38)
(0 -0 -1579.92)
(0 -0 -1671.21)
(0 -0 -1757.32)
(0 -0 -1838.34)
(0 -0 -1914.43)
(0 -0 -1985.79)
(0 -0 -2052.58)
(0 -0 -2115.03)
(0 -0 -2173.34)
(0 -0 -2227.72)
(0 -0 -2278.35)
(0 -0 -2325.45)
(0 -0 -2369.16)
(0 -0 -2409.7)
(0 -0 -2447.16)
(0 -0 -2481.71)
(0 -0 -2513.46)
(0 -0 -2542.38)
(0 -0 -2568.81)
(0 -0 -2592.05)
(0 -0 -2613.31)
(0 -0 -2630.25)
(0 -0 -2645.79)
(0 -0 -2654.96)
(0 -0 -2663.01)
(0 -0 -2659.83)
(0 -0 -2658.71)
(0 -0 -2632.24)
(0 -0 122.933)
(0 -0 116.63)
(0 -0 118.003)
(0 -0 122.483)
(0 -0 126.431)
(0 -0 126.905)
(0 -0 121.429)
(0 -0 107.701)
(0 -0 84.0837)
(0 -0 49.8801)
(0 -0 5.20218)
(0 -0 -49.219)
(0 -0 -112.239)
(0 -0 -182.476)
(0 -0 -258.472)
(0 -0 -338.794)
(0 -0 -422.107)
(0 -0 -507.22)
(0 -0 -593.103)
(0 -0 -678.884)
(0 -0 -763.847)
(0 -0 -847.414)
(0 -0 -929.127)
(0 -0 -1008.63)
(0 -0 -1085.66)
(0 -0 -1160.03)
(0 -0 -1231.59)
(0 -0 -1300.26)
(0 -0 -1365.99)
(0 -0 -1428.78)
(0 -0 -1488.63)
(0 -0 -1545.58)
(0 -0 -1599.65)
(0 -0 -1650.93)
(0 -0 -1699.44)
(0 -0 -1745.28)
(0 -0 -1788.46)
(0 -0 -1829.06)
(0 -0 -1867.12)
(0 -0 -1902.55)
(0 -0 -1935.62)
(0 -0 -1965.68)
(0 -0 -1993.6)
(0 -0 -2017.68)
(0 -0 -2039.61)
(0 -0 -2056.23)
(0 -0 -2070.42)
(0 -0 -2074.85)
(0 -0 -2078.92)
(0 -0 -2063.86)
(0 -0 115.611)
(0 -0 110.397)
(0 -0 110.721)
(0 -0 113.165)
(0 -0 115.981)
(0 -0 118.244)
(0 -0 119.12)
(0 -0 117.408)
(0 -0 111.824)
(0 -0 101.316)
(0 -0 85.1711)
(0 -0 63.0251)
(0 -0 34.8359)
(0 -0 0.834721)
(0 -0 -38.5416)
(0 -0 -82.7181)
(0 -0 -131.042)
(0 -0 -182.829)
(0 -0 -237.406)
(0 -0 -294.127)
(0 -0 -352.399)
(0 -0 -411.684)
(0 -0 -471.503)
(0 -0 -531.435)
(0 -0 -591.119)
(0 -0 -650.24)
(0 -0 -708.532)
(0 -0 -765.774)
(0 -0 -821.777)
(0 -0 -876.392)
(0 -0 -929.491)
(0 -0 -980.983)
(0 -0 -1030.78)
(0 -0 -1078.83)
(0 -0 -1125.07)
(0 -0 -1169.49)
(0 -0 -1212.03)
(0 -0 -1252.65)
(0 -0 -1291.36)
(0 -0 -1327.98)
(0 -0 -1362.7)
(0 -0 -1394.95)
(0 -0 -1425.28)
(0 -0 -1452.45)
(0 -0 -1477.44)
(0 -0 -1497.93)
(0 -0 -1516)
(0 -0 -1525.67)
(0 -0 -1532.88)
(0 -0 -1528.22)
(0 -0 108.365)
(0 -0 104.179)
(0 -0 104.396)
(0 -0 106.11)
(0 -0 107.982)
(0 -0 109.694)
(0 -0 111.231)
(0 -0 112.245)
(0 -0 112.154)
(0 -0 110.327)
(0 -0 106.177)
(0 -0 99.2081)
(0 -0 89.049)
(0 -0 75.4685)
(0 -0 58.3787)
(0 -0 37.8119)
(0 -0 13.9035)
(0 -0 -13.1323)
(0 -0 -43.0266)
(0 -0 -75.4759)
(0 -0 -110.16)
(0 -0 -146.753)
(0 -0 -184.937)
(0 -0 -224.405)
(0 -0 -264.866)
(0 -0 -306.048)
(0 -0 -347.701)
(0 -0 -389.595)
(0 -0 -431.52)
(0 -0 -473.291)
(0 -0 -514.733)
(0 -0 -555.705)
(0 -0 -596.062)
(0 -0 -635.696)
(0 -0 -674.487)
(0 -0 -712.35)
(0 -0 -749.189)
(0 -0 -784.9)
(0 -0 -819.448)
(0 -0 -852.616)
(0 -0 -884.511)
(0 -0 -914.64)
(0 -0 -943.345)
(0 -0 -969.661)
(0 -0 -994.25)
(0 -0 -1015.19)
(0 -0 -1034.06)
(0 -0 -1046.6)
(0 -0 -1054.97)
(0 -0 -1057.08)
(0 -0 101.386)
(0 -0 97.9868)
(0 -0 98.2189)
(0 -0 99.6991)
(0 -0 101.216)
(0 -0 102.49)
(0 -0 103.715)
(0 -0 104.899)
(0 -0 105.87)
(0 -0 106.381)
(0 -0 106.15)
(0 -0 104.881)
(0 -0 102.285)
(0 -0 98.1079)
(0 -0 92.1439)
(0 -0 84.246)
(0 -0 74.3259)
(0 -0 62.3511)
(0 -0 48.3398)
(0 -0 32.3513)
(0 -0 14.4787)
(0 -0 -5.15913)
(0 -0 -26.4249)
(0 -0 -49.169)
(0 -0 -73.2331)
(0 -0 -98.4576)
(0 -0 -124.677)
(0 -0 -151.737)
(0 -0 -179.478)
(0 -0 -207.753)
(0 -0 -236.414)
(0 -0 -265.332)
(0 -0 -294.371)
(0 -0 -323.417)
(0 -0 -352.349)
(0 -0 -381.061)
(0 -0 -409.453)
(0 -0 -437.398)
(0 -0 -464.845)
(0 -0 -491.582)
(0 -0 -517.655)
(0 -0 -542.662)
(0 -0 -566.809)
(0 -0 -589.338)
(0 -0 -610.717)
(0 -0 -629.444)
(0 -0 -646.504)
(0 -0 -659.361)
(0 -0 -667.816)
(0 -0 -672.358)
(0 -0 94.7084)
(0 -0 91.9363)
(0 -0 92.1571)
(0 -0 93.489)
(0 -0 94.8747)
(0 -0 95.976)
(0 -0 96.9756)
(0 -0 97.9716)
(0 -0 98.9361)
(0 -0 99.8018)
(0 -0 100.479)
(0 -0 100.851)
(0 -0 100.78)
(0 -0 100.118)
(0 -0 98.7221)
(0 -0 96.4582)
(0 -0 93.2117)
(0 -0 88.8902)
(0 -0 83.4255)
(0 -0 76.774)
(0 -0 68.9158)
(0 -0 59.8503)
(0 -0 49.5989)
(0 -0 38.1961)
(0 -0 25.6916)
(0 -0 12.1455)
(0 -0 -2.37155)
(0 -0 -17.7838)
(0 -0 -34.0079)
(0 -0 -50.9594)
(0 -0 -68.5486)
(0 -0 -86.6889)
(0 -0 -105.288)
(0 -0 -124.261)
(0 -0 -143.517)
(0 -0 -162.966)
(0 -0 -182.532)
(0 -0 -202.1)
(0 -0 -221.625)
(0 -0 -240.933)
(0 -0 -260.037)
(0 -0 -278.635)
(0 -0 -296.848)
(0 -0 -314.111)
(0 -0 -330.729)
(0 -0 -345.657)
(0 -0 -359.383)
(0 -0 -370.497)
(0 -0 -378.293)
(0 -0 -382.523)
(0 -0 88.3311)
(0 -0 86.0795)
(0 -0 86.2824)
(0 -0 87.4652)
(0 -0 88.7531)
(0 -0 89.7755)
(0 -0 90.6689)
(0 -0 91.5367)
(0 -0 92.383)
(0 -0 93.1932)
(0 -0 93.9515)
(0 -0 94.629)
(0 -0 95.1806)
(0 -0 95.548)
(0 -0 95.6642)
(0 -0 95.4575)
(0 -0 94.8558)
(0 -0 93.7897)
(0 -0 92.1957)
(0 -0 90.0185)
(0 -0 87.2117)
(0 -0 83.7395)
(0 -0 79.5753)
(0 -0 74.7035)
(0 -0 69.1175)
(0 -0 62.821)
(0 -0 55.8228)
(0 -0 48.1457)
(0 -0 39.8144)
(0 -0 30.8605)
(0 -0 21.3223)
(0 -0 11.2407)
(0 -0 0.662614)
(0 -0 -10.3639)
(0 -0 -21.7879)
(0 -0 -33.5513)
(0 -0 -45.6069)
(0 -0 -57.8755)
(0 -0 -70.3262)
(0 -0 -82.8351)
(0 -0 -95.4096)
(0 -0 -107.832)
(0 -0 -120.175)
(0 -0 -132.065)
(0 -0 -143.672)
(0 -0 -154.326)
(0 -0 -164.262)
(0 -0 -172.57)
(0 -0 -178.982)
(0 -0 -182.273)
(0 -0 82.2527)
(0 -0 80.4346)
(0 -0 80.628)
(0 -0 81.6666)
(0 -0 82.8515)
(0 -0 83.8089)
(0 -0 84.6344)
(0 -0 85.4249)
(0 -0 86.1882)
(0 -0 86.9179)
(0 -0 87.6154)
(0 -0 88.2804)
(0 -0 88.9046)
(0 -0 89.4725)
(0 -0 89.9622)
(0 -0 90.3465)
(0 -0 90.594)
(0 -0 90.6704)
(0 -0 90.5404)
(0 -0 90.1687)
(0 -0 89.5212)
(0 -0 88.5663)
(0 -0 87.2753)
(0 -0 85.6231)
(0 -0 83.5888)
(0 -0 81.1557)
(0 -0 78.3132)
(0 -0 75.0524)
(0 -0 71.3725)
(0 -0 67.2756)
(0 -0 62.769)
(0 -0 57.8634)
(0 -0 52.5738)
(0 -0 46.9192)
(0 -0 40.9205)
(0 -0 34.6059)
(0 -0 27.9976)
(0 -0 21.1392)
(0 -0 14.0479)
(0 -0 6.79421)
(0 -0 -0.620258)
(0 -0 -8.07137)
(0 -0 -15.5927)
(0 -0 -22.9563)
(0 -0 -30.2613)
(0 -0 -37.0856)
(0 -0 -43.6122)
(0 -0 -49.135)
(0 -0 -53.8773)
(0 -0 -56.3023)
(0 -0 76.4738)
(0 -0 75.0129)
(0 -0 75.206)
(0 -0 76.1132)
(0 -0 77.1927)
(0 -0 78.0837)
(0 -0 78.8479)
(0 -0 79.5759)
(0 -0 80.2774)
(0 -0 80.9451)
(0 -0 81.5814)
(0 -0 82.1913)
(0 -0 82.7767)
(0 -0 83.3362)
(0 -0 83.8657)
(0 -0 84.3583)
(0 -0 84.8045)
(0 -0 85.1923)
(0 -0 85.5078)
(0 -0 85.7351)
(0 -0 85.8577)
(0 -0 85.858)
(0 -0 85.7184)
(0 -0 85.4215)
(0 -0 84.9505)
(0 -0 84.2899)
(0 -0 83.4257)
(0 -0 82.3457)
(0 -0 81.04)
(0 -0 79.501)
(0 -0 77.7237)
(0 -0 75.7053)
(0 -0 73.446)
(0 -0 70.9481)
(0 -0 68.216)
(0 -0 65.2586)
(0 -0 62.0833)
(0 -0 58.7071)
(0 -0 55.1394)
(0 -0 51.4088)
(0 -0 47.5244)
(0 -0 43.538)
(0 -0 39.4384)
(0 -0 35.3564)
(0 -0 31.2209)
(0 -0 27.307)
(0 -0 23.4093)
(0 -0 20.128)
(0 -0 16.9695)
(0 -0 15.4209)
(0 -0 70.994)
(0 -0 69.8247)
(0 -0 70.0234)
(0 -0 70.8136)
(0 -0 71.7896)
(0 -0 72.6142)
(0 -0 73.3186)
(0 -0 73.9872)
(0 -0 74.6327)
(0 -0 75.2472)
(0 -0 75.8315)
(0 -0 76.3903)
(0 -0 76.9271)
(0 -0 77.4437)
(0 -0 77.9408)
(0 -0 78.4182)
(0 -0 78.8747)
(0 -0 79.3079)
(0 -0 79.7142)
(0 -0 80.0889)
(0 -0 80.4262)
(0 -0 80.7193)
(0 -0 80.9603)
(0 -0 81.1407)
(0 -0 81.2516)
(0 -0 81.2835)
(0 -0 81.2273)
(0 -0 81.074)
(0 -0 80.8153)
(0 -0 80.4436)
(0 -0 79.9524)
(0 -0 79.3361)
(0 -0 78.5904)
(0 -0 77.7121)
(0 -0 76.6995)
(0 -0 75.5521)
(0 -0 74.2709)
(0 -0 72.859)
(0 -0 71.3201)
(0 -0 69.663)
(0 -0 67.8908)
(0 -0 66.0297)
(0 -0 64.0706)
(0 -0 62.0766)
(0 -0 59.9973)
(0 -0 58.0143)
(0 -0 55.9327)
(0 -0 54.2316)
(0 -0 52.3656)
(0 -0 51.5158)
(0 -0 65.8119)
(0 -0 64.8787)
(0 -0 65.0858)
(0 -0 65.7727)
(0 -0 66.6491)
(0 -0 67.4084)
(0 -0 68.0554)
(0 -0 68.6667)
(0 -0 69.2583)
(0 -0 69.8226)
(0 -0 70.3588)
(0 -0 70.8712)
(0 -0 71.3629)
(0 -0 71.836)
(0 -0 72.292)
(0 -0 72.7322)
(0 -0 73.1577)
(0 -0 73.5691)
(0 -0 73.9666)
(0 -0 74.3498)
(0 -0 74.7178)
(0 -0 75.069)
(0 -0 75.4009)
(0 -0 75.7104)
(0 -0 75.9938)
(0 -0 76.2468)
(0 -0 76.4647)
(0 -0 76.6428)
(0 -0 76.7762)
(0 -0 76.8601)
(0 -0 76.8903)
(0 -0 76.8623)
(0 -0 76.7725)
(0 -0 76.617)
(0 -0 76.3938)
(0 -0 76.0993)
(0 -0 75.7335)
(0 -0 75.293)
(0 -0 74.781)
(0 -0 74.1943)
(0 -0 73.5388)
(0 -0 72.8162)
(0 -0 72.0274)
(0 -0 71.1988)
(0 -0 70.2927)
(0 -0 69.4252)
(0 -0 68.4281)
(0 -0 67.6564)
(0 -0 66.6284)
(0 -0 66.2324)
(0 -0 60.9247)
(0 -0 60.181)
(0 -0 60.3975)
(0 -0 60.9937)
(0 -0 61.7752)
(0 -0 62.4712)
(0 -0 63.0636)
(0 -0 63.6202)
(0 -0 64.1598)
(0 -0 64.6758)
(0 -0 65.1663)
(0 -0 65.6346)
(0 -0 66.0839)
(0 -0 66.516)
(0 -0 66.9323)
(0 -0 67.3344)
(0 -0 67.7237)
(0 -0 68.1014)
(0 -0 68.4688)
(0 -0 68.8268)
(0 -0 69.1761)
(0 -0 69.5169)
(0 -0 69.8491)
(0 -0 70.1717)
(0 -0 70.4837)
(0 -0 70.7832)
(0 -0 71.0683)
(0 -0 71.3368)
(0 -0 71.5864)
(0 -0 71.8147)
(0 -0 72.0194)
(0 -0 72.198)
(0 -0 72.3486)
(0 -0 72.4684)
(0 -0 72.5563)
(0 -0 72.6086)
(0 -0 72.6262)
(0 -0 72.6037)
(0 -0 72.5451)
(0 -0 72.4424)
(0 -0 72.3034)
(0 -0 72.1196)
(0 -0 71.8968)
(0 -0 71.641)
(0 -0 71.3274)
(0 -0 71.0286)
(0 -0 70.6101)
(0 -0 70.3322)
(0 -0 69.7865)
(0 -0 69.6825)
(0 -0 56.3286)
(0 -0 55.736)
(0 -0 55.9608)
(0 -0 56.4779)
(0 -0 57.1702)
(0 -0 57.805)
(0 -0 58.3457)
(0 -0 58.8506)
(0 -0 59.3407)
(0 -0 59.8104)
(0 -0 60.257)
(0 -0 60.6834)
(0 -0 61.0922)
(0 -0 61.4853)
(0 -0 61.864)
(0 -0 62.2297)
(0 -0 62.5837)
(0 -0 62.9276)
(0 -0 63.2626)
(0 -0 63.59)
(0 -0 63.9108)
(0 -0 64.2258)
(0 -0 64.5354)
(0 -0 64.8397)
(0 -0 65.1381)
(0 -0 65.43)
(0 -0 65.7146)
(0 -0 65.9907)
(0 -0 66.2573)
(0 -0 66.5132)
(0 -0 66.7576)
(0 -0 66.989)
(0 -0 67.2068)
(0 -0 67.4091)
(0 -0 67.5958)
(0 -0 67.764)
(0 -0 67.9153)
(0 -0 68.0442)
(0 -0 68.1557)
(0 -0 68.2402)
(0 -0 68.3072)
(0 -0 68.3436)
(0 -0 68.3592)
(0 -0 68.3486)
(0 -0 68.2989)
(0 -0 68.2529)
(0 -0 68.1096)
(0 -0 68.0597)
(0 -0 67.7662)
(0 -0 67.8096)
(0 -0 52.0183)
(0 -0 51.5455)
(0 -0 51.7765)
(0 -0 52.2248)
(0 -0 52.8344)
(0 -0 53.4102)
(0 -0 53.9023)
(0 -0 54.3587)
(0 -0 54.8017)
(0 -0 55.2274)
(0 -0 55.6324)
(0 -0 56.0187)
(0 -0 56.389)
(0 -0 56.745)
(0 -0 57.0879)
(0 -0 57.419)
(0 -0 57.7396)
(0 -0 58.0511)
(0 -0 58.3549)
(0 -0 58.6522)
(0 -0 58.9441)
(0 -0 59.2315)
(0 -0 59.515)
(0 -0 59.7945)
(0 -0 60.07)
(0 -0 60.3409)
(0 -0 60.6067)
(0 -0 60.8667)
(0 -0 61.1205)
(0 -0 61.3672)
(0 -0 61.6065)
(0 -0 61.8377)
(0 -0 62.0606)
(0 -0 62.274)
(0 -0 62.4784)
(0 -0 62.6712)
(0 -0 62.8547)
(0 -0 63.0238)
(0 -0 63.1838)
(0 -0 63.3251)
(0 -0 63.4581)
(0 -0 63.568)
(0 -0 63.6677)
(0 -0 63.7442)
(0 -0 63.7967)
(0 -0 63.8448)
(0 -0 63.8199)
(0 -0 63.8572)
(0 -0 63.6897)
(0 -0 63.7884)
(0 -0 47.9875)
(0 -0 47.6093)
(0 -0 47.8436)
(0 -0 48.2324)
(0 -0 48.766)
(0 -0 49.2853)
(0 -0 49.7318)
(0 -0 50.1429)
(0 -0 50.5416)
(0 -0 50.9257)
(0 -0 51.2913)
(0 -0 51.6399)
(0 -0 51.9737)
(0 -0 52.2945)
(0 -0 52.6034)
(0 -0 52.9016)
(0 -0 53.1906)
(0 -0 53.4714)
(0 -0 53.7456)
(0 -0 54.0144)
(0 -0 54.2788)
(0 -0 54.5397)
(0 -0 54.7975)
(0 -0 55.0524)
(0 -0 55.304)
(0 -0 55.552)
(0 -0 55.7959)
(0 -0 56.035)
(0 -0 56.2688)
(0 -0 56.497)
(0 -0 56.7192)
(0 -0 56.935)
(0 -0 57.1443)
(0 -0 57.3464)
(0 -0 57.5418)
(0 -0 57.7284)
(0 -0 57.9087)
(0 -0 58.0777)
(0 -0 58.2411)
(0 -0 58.3896)
(0 -0 58.5338)
(0 -0 58.6583)
(0 -0 58.7786)
(0 -0 58.8764)
(0 -0 58.9611)
(0 -0 59.0342)
(0 -0 59.0562)
(0 -0 59.1163)
(0 -0 59.0136)
(0 -0 59.1211)
(0 -0 44.2285)
(0 -0 43.9249)
(0 -0 44.1591)
(0 -0 44.4966)
(0 -0 44.9612)
(0 -0 45.427)
(0 -0 45.8307)
(0 -0 46.1998)
(0 -0 46.5572)
(0 -0 46.9021)
(0 -0 47.2308)
(0 -0 47.5437)
(0 -0 47.8432)
(0 -0 48.1308)
(0 -0 48.4077)
(0 -0 48.6751)
(0 -0 48.9341)
(0 -0 49.1861)
(0 -0 49.4324)
(0 -0 49.6742)
(0 -0 49.9127)
(0 -0 50.1486)
(0 -0 50.3823)
(0 -0 50.6137)
(0 -0 50.8427)
(0 -0 51.0686)
(0 -0 51.291)
(0 -0 51.5091)
(0 -0 51.7225)
(0 -0 51.9309)
(0 -0 52.1339)
(0 -0 52.3312)
(0 -0 52.5228)
(0 -0 52.708)
(0 -0 52.8875)
(0 -0 53.0595)
(0 -0 53.2261)
(0 -0 53.383)
(0 -0 53.5356)
(0 -0 53.6751)
(0 -0 53.8121)
(0 -0 53.9311)
(0 -0 54.0491)
(0 -0 54.1447)
(0 -0 54.2347)
(0 -0 54.3071)
(0 -0 54.347)
(0 -0 54.4049)
(0 -0 54.3401)
(0 -0 54.4365)
(0 -0 40.7328)
(0 -0 40.4882)
(0 -0 40.7184)
(0 -0 41.0119)
(0 -0 41.4146)
(0 -0 41.83)
(0 -0 42.1938)
(0 -0 42.5242)
(0 -0 42.8432)
(0 -0 43.1516)
(0 -0 43.4456)
(0 -0 43.7254)
(0 -0 43.9927)
(0 -0 44.2492)
(0 -0 44.4961)
(0 -0 44.7344)
(0 -0 44.9653)
(0 -0 45.1902)
(0 -0 45.4104)
(0 -0 45.6271)
(0 -0 45.8413)
(0 -0 46.0538)
(0 -0 46.2649)
(0 -0 46.4746)
(0 -0 46.6823)
(0 -0 46.8875)
(0 -0 47.0896)
(0 -0 47.2879)
(0 -0 47.4819)
(0 -0 47.6712)
(0 -0 47.8556)
(0 -0 48.0346)
(0 -0 48.2085)
(0 -0 48.3764)
(0 -0 48.5391)
(0 -0 48.6949)
(0 -0 48.8458)
(0 -0 48.9879)
(0 -0 49.1263)
(0 -0 49.2527)
(0 -0 49.3775)
(0 -0 49.4854)
(0 -0 49.5944)
(0 -0 49.6806)
(0 -0 49.7674)
(0 -0 49.8309)
(0 -0 49.8781)
(0 -0 49.9262)
(0 -0 49.8875)
(0 -0 49.9658)
(0 -0 37.4906)
(0 -0 37.293)
(0 -0 37.5155)
(0 -0 37.7712)
(0 -0 38.1189)
(0 -0 38.4873)
(0 -0 38.814)
(0 -0 39.109)
(0 -0 39.3925)
(0 -0 39.667)
(0 -0 39.9289)
(0 -0 40.1777)
(0 -0 40.4152)
(0 -0 40.6428)
(0 -0 40.8616)
(0 -0 41.0728)
(0 -0 41.2776)
(0 -0 41.4773)
(0 -0 41.6731)
(0 -0 41.8663)
(0 -0 42.058)
(0 -0 42.2488)
(0 -0 42.439)
(0 -0 42.6283)
(0 -0 42.8163)
(0 -0 43.0023)
(0 -0 43.1856)
(0 -0 43.3654)
(0 -0 43.5413)
(0 -0 43.7128)
(0 -0 43.8797)
(0 -0 44.0415)
(0 -0 44.1985)
(0 -0 44.35)
(0 -0 44.4965)
(0 -0 44.6366)
(0 -0 44.7722)
(0 -0 44.8997)
(0 -0 45.0238)
(0 -0 45.1368)
(0 -0 45.2487)
(0 -0 45.3446)
(0 -0 45.4431)
(0 -0 45.5188)
(0 -0 45.5995)
(0 -0 45.6531)
(0 -0 45.7032)
(0 -0 45.7404)
(0 -0 45.7231)
(0 -0 45.7816)
(0 -0 34.4912)
(0 -0 34.3316)
(0 -0 34.5428)
(0 -0 34.7661)
(0 -0 35.0654)
(0 -0 35.3903)
(0 -0 35.6827)
(0 -0 35.9454)
(0 -0 36.1965)
(0 -0 36.4397)
(0 -0 36.6719)
(0 -0 36.8922)
(0 -0 37.102)
(0 -0 37.3028)
(0 -0 37.4957)
(0 -0 37.6818)
(0 -0 37.8623)
(0 -0 38.0386)
(0 -0 38.2119)
(0 -0 38.3834)
(0 -0 38.5543)
(0 -0 38.7251)
(0 -0 38.8959)
(0 -0 39.0665)
(0 -0 39.2364)
(0 -0 39.4047)
(0 -0 39.5706)
(0 -0 39.7334)
(0 -0 39.8925)
(0 -0 40.0475)
(0 -0 40.1981)
(0 -0 40.344)
(0 -0 40.4852)
(0 -0 40.6214)
(0 -0 40.7528)
(0 -0 40.8783)
(0 -0 40.9994)
(0 -0 41.1131)
(0 -0 41.2236)
(0 -0 41.3238)
(0 -0 41.4234)
(0 -0 41.5078)
(0 -0 41.5959)
(0 -0 41.6616)
(0 -0 41.7357)
(0 -0 41.78)
(0 -0 41.8311)
(0 -0 41.8586)
(0 -0 41.8582)
(0 -0 41.8991)
(0 -0 31.7233)
(0 -0 31.5947)
(0 -0 31.7915)
(0 -0 31.9873)
(0 -0 32.2446)
(0 -0 32.5297)
(0 -0 32.7904)
(0 -0 33.0238)
(0 -0 33.2454)
(0 -0 33.46)
(0 -0 33.6649)
(0 -0 33.8589)
(0 -0 34.0433)
(0 -0 34.2193)
(0 -0 34.3883)
(0 -0 34.5513)
(0 -0 34.7094)
(0 -0 34.8641)
(0 -0 35.0166)
(0 -0 35.1683)
(0 -0 35.32)
(0 -0 35.4724)
(0 -0 35.6255)
(0 -0 35.7791)
(0 -0 35.9323)
(0 -0 36.0843)
(0 -0 36.2344)
(0 -0 36.3815)
(0 -0 36.5253)
(0 -0 36.6651)
(0 -0 36.8007)
(0 -0 36.9319)
(0 -0 37.0587)
(0 -0 37.1806)
(0 -0 37.298)
(0 -0 37.4099)
(0 -0 37.5176)
(0 -0 37.6186)
(0 -0 37.7164)
(0 -0 37.8048)
(0 -0 37.8928)
(0 -0 37.9666)
(0 -0 38.0449)
(0 -0 38.1012)
(0 -0 38.1688)
(0 -0 38.2048)
(0 -0 38.256)
(0 -0 38.2747)
(0 -0 38.2885)
(0 -0 38.3142)
(0 -0 29.1747)
(0 -0 29.0717)
(0 -0 29.2521)
(0 -0 29.425)
(0 -0 29.646)
(0 -0 29.8949)
(0 -0 30.1266)
(0 -0 30.3335)
(0 -0 30.5284)
(0 -0 30.7168)
(0 -0 30.8967)
(0 -0 31.0667)
(0 -0 31.2278)
(0 -0 31.3812)
(0 -0 31.5282)
(0 -0 31.6699)
(0 -0 31.8075)
(0 -0 31.9424)
(0 -0 32.0759)
(0 -0 32.2093)
(0 -0 32.3436)
(0 -0 32.4792)
(0 -0 32.6163)
(0 -0 32.7543)
(0 -0 32.8924)
(0 -0 33.0297)
(0 -0 33.1653)
(0 -0 33.2982)
(0 -0 33.4279)
(0 -0 33.5539)
(0 -0 33.6758)
(0 -0 33.7935)
(0 -0 33.907)
(0 -0 34.0159)
(0 -0 34.1204)
(0 -0 34.2199)
(0 -0 34.3152)
(0 -0 34.4043)
(0 -0 34.4905)
(0 -0 34.568)
(0 -0 34.6453)
(0 -0 34.7093)
(0 -0 34.7784)
(0 -0 34.8263)
(0 -0 34.8875)
(0 -0 34.9163)
(0 -0 34.9669)
(0 -0 34.9777)
(0 -0 35.0041)
(0 -0 35.0153)
(0 -0 26.8331)
(0 -0 26.7508)
(0 -0 26.9142)
(0 -0 27.0679)
(0 -0 27.2578)
(0 -0 27.4744)
(0 -0 27.6795)
(0 -0 27.8625)
(0 -0 28.0335)
(0 -0 28.1981)
(0 -0 28.3553)
(0 -0 28.5034)
(0 -0 28.6432)
(0 -0 28.776)
(0 -0 28.9029)
(0 -0 29.0252)
(0 -0 29.1441)
(0 -0 29.2609)
(0 -0 29.3771)
(0 -0 29.4939)
(0 -0 29.6124)
(0 -0 29.7328)
(0 -0 29.8553)
(0 -0 29.9793)
(0 -0 30.1038)
(0 -0 30.2278)
(0 -0 30.3503)
(0 -0 30.4704)
(0 -0 30.5873)
(0 -0 30.7007)
(0 -0 30.8103)
(0 -0 30.9157)
(0 -0 31.0171)
(0 -0 31.1141)
(0 -0 31.2069)
(0 -0 31.2949)
(0 -0 31.3789)
(0 -0 31.4573)
(0 -0 31.5327)
(0 -0 31.6002)
(0 -0 31.6676)
(0 -0 31.7227)
(0 -0 31.7833)
(0 -0 31.8236)
(0 -0 31.8787)
(0 -0 31.901)
(0 -0 31.951)
(0 -0 31.9536)
(0 -0 31.9922)
(0 -0 31.9896)
(0 -0 24.6855)
(0 -0 24.6203)
(0 -0 24.7666)
(0 -0 24.9039)
(0 -0 25.0675)
(0 -0 25.2554)
(0 -0 25.4364)
(0 -0 25.598)
(0 -0 25.7476)
(0 -0 25.891)
(0 -0 26.0275)
(0 -0 26.1559)
(0 -0 26.2764)
(0 -0 26.3904)
(0 -0 26.4992)
(0 -0 26.6038)
(0 -0 26.7057)
(0 -0 26.8061)
(0 -0 26.9066)
(0 -0 27.0084)
(0 -0 27.1126)
(0 -0 27.2194)
(0 -0 27.3288)
(0 -0 27.4402)
(0 -0 27.5525)
(0 -0 27.6646)
(0 -0 27.7754)
(0 -0 27.8839)
(0 -0 27.9894)
(0 -0 28.0915)
(0 -0 28.1899)
(0 -0 28.2843)
(0 -0 28.3746)
(0 -0 28.4608)
(0 -0 28.543)
(0 -0 28.6206)
(0 -0 28.6944)
(0 -0 28.7628)
(0 -0 28.8285)
(0 -0 28.8869)
(0 -0 28.9453)
(0 -0 28.9923)
(0 -0 29.045)
(0 -0 29.0785)
(0 -0 29.1278)
(0 -0 29.1446)
(0 -0 29.1926)
(0 -0 29.1901)
(0 -0 29.2357)
(0 -0 29.2234)
(0 -0 22.719)
(0 -0 22.6676)
(0 -0 22.7977)
(0 -0 22.921)
(0 -0 23.0624)
(0 -0 23.2251)
(0 -0 23.3843)
(0 -0 23.5268)
(0 -0 23.6575)
(0 -0 23.7817)
(0 -0 23.8998)
(0 -0 24.0103)
(0 -0 24.1135)
(0 -0 24.2106)
(0 -0 24.3029)
(0 -0 24.3916)
(0 -0 24.4781)
(0 -0 24.5637)
(0 -0 24.6501)
(0 -0 24.7384)
(0 -0 24.8297)
(0 -0 24.9244)
(0 -0 25.0222)
(0 -0 25.1223)
(0 -0 25.2238)
(0 -0 25.3253)
(0 -0 25.4257)
(0 -0 25.5239)
(0 -0 25.6193)
(0 -0 25.7113)
(0 -0 25.7995)
(0 -0 25.884)
(0 -0 25.9645)
(0 -0 26.041)
(0 -0 26.1135)
(0 -0 26.1818)
(0 -0 26.2462)
(0 -0 26.3058)
(0 -0 26.3625)
(0 -0 26.4128)
(0 -0 26.4628)
(0 -0 26.5027)
(0 -0 26.548)
(0 -0 26.5755)
(0 -0 26.6192)
(0 -0 26.6312)
(0 -0 26.6769)
(0 -0 26.6704)
(0 -0 26.7201)
(0 -0 26.7004)
(0 -0 20.9206)
(0 -0 20.8805)
(0 -0 20.9953)
(0 -0 21.1065)
(0 -0 21.2294)
(0 -0 21.3702)
(0 -0 21.5099)
(0 -0 21.6354)
(0 -0 21.7493)
(0 -0 21.8567)
(0 -0 21.9582)
(0 -0 22.0527)
(0 -0 22.1404)
(0 -0 22.2222)
(0 -0 22.2997)
(0 -0 22.374)
(0 -0 22.4467)
(0 -0 22.519)
(0 -0 22.5927)
(0 -0 22.669)
(0 -0 22.7489)
(0 -0 22.8327)
(0 -0 22.9202)
(0 -0 23.0105)
(0 -0 23.1025)
(0 -0 23.1947)
(0 -0 23.2859)
(0 -0 23.375)
(0 -0 23.4614)
(0 -0 23.5444)
(0 -0 23.6237)
(0 -0 23.6993)
(0 -0 23.771)
(0 -0 23.8388)
(0 -0 23.9027)
(0 -0 23.9625)
(0 -0 24.0186)
(0 -0 24.0701)
(0 -0 24.1189)
(0 -0 24.1617)
(0 -0 24.2042)
(0 -0 24.2375)
(0 -0 24.2762)
(0 -0 24.2983)
(0 -0 24.3368)
(0 -0 24.3446)
(0 -0 24.3878)
(0 -0 24.3774)
(0 -0 24.4314)
(0 -0 24.404)
(0 -0 19.2774)
(0 -0 19.2465)
(0 -0 19.3476)
(0 -0 19.4482)
(0 -0 19.5555)
(0 -0 19.6776)
(0 -0 19.8)
(0 -0 19.9104)
(0 -0 20.0096)
(0 -0 20.102)
(0 -0 20.1888)
(0 -0 20.269)
(0 -0 20.3427)
(0 -0 20.411)
(0 -0 20.4752)
(0 -0 20.5366)
(0 -0 20.5968)
(0 -0 20.6573)
(0 -0 20.7196)
(0 -0 20.7852)
(0 -0 20.855)
(0 -0 20.9293)
(0 -0 21.0078)
(0 -0 21.0895)
(0 -0 21.1731)
(0 -0 21.2571)
(0 -0 21.3403)
(0 -0 21.4215)
(0 -0 21.4999)
(0 -0 21.5751)
(0 -0 21.6465)
(0 -0 21.7143)
(0 -0 21.7782)
(0 -0 21.8383)
(0 -0 21.8945)
(0 -0 21.9467)
(0 -0 21.9954)
(0 -0 22.0397)
(0 -0 22.0812)
(0 -0 22.1173)
(0 -0 22.1531)
(0 -0 22.1806)
(0 -0 22.2131)
(0 -0 22.2305)
(0 -0 22.264)
(0 -0 22.2682)
(0 -0 22.3087)
(0 -0 22.2953)
(0 -0 22.3513)
(0 -0 22.3182)
(0 -0 17.777)
(0 -0 17.7535)
(0 -0 17.8425)
(0 -0 17.9337)
(0 -0 18.0283)
(0 -0 18.1343)
(0 -0 18.2414)
(0 -0 18.3385)
(0 -0 18.4248)
(0 -0 18.5041)
(0 -0 18.5777)
(0 -0 18.6452)
(0 -0 18.7066)
(0 -0 18.7627)
(0 -0 18.815)
(0 -0 18.8649)
(0 -0 18.914)
(0 -0 18.9639)
(0 -0 19.0162)
(0 -0 19.0723)
(0 -0 19.1332)
(0 -0 19.1991)
(0 -0 19.2697)
(0 -0 19.3439)
(0 -0 19.4203)
(0 -0 19.4973)
(0 -0 19.5736)
(0 -0 19.6479)
(0 -0 19.7194)
(0 -0 19.7876)
(0 -0 19.8522)
(0 -0 19.9131)
(0 -0 19.9701)
(0 -0 20.0233)
(0 -0 20.0727)
(0 -0 20.1183)
(0 -0 20.1602)
(0 -0 20.1981)
(0 -0 20.2332)
(0 -0 20.2634)
(0 -0 20.293)
(0 -0 20.3153)
(0 -0 20.3423)
(0 -0 20.3555)
(0 -0 20.3843)
(0 -0 20.3855)
(0 -0 20.423)
(0 -0 20.4073)
(0 -0 20.4643)
(0 -0 20.4255)
(0 -0 16.407)
(0 -0 16.3896)
(0 -0 16.4682)
(0 -0 16.5511)
(0 -0 16.6351)
(0 -0 16.7276)
(0 -0 16.8214)
(0 -0 16.9067)
(0 -0 16.9817)
(0 -0 17.0495)
(0 -0 17.1117)
(0 -0 17.1679)
(0 -0 17.2182)
(0 -0 17.2635)
(0 -0 17.3052)
(0 -0 17.3449)
(0 -0 17.3841)
(0 -0 17.4245)
(0 -0 17.4679)
(0 -0 17.5156)
(0 -0 17.5687)
(0 -0 17.6274)
(0 -0 17.6912)
(0 -0 17.759)
(0 -0 17.8291)
(0 -0 17.9001)
(0 -0 17.9704)
(0 -0 18.0388)
(0 -0 18.1044)
(0 -0 18.1666)
(0 -0 18.2252)
(0 -0 18.2801)
(0 -0 18.3311)
(0 -0 18.3783)
(0 -0 18.4217)
(0 -0 18.4613)
(0 -0 18.4974)
(0 -0 18.5295)
(0 -0 18.5589)
(0 -0 18.5837)
(0 -0 18.6079)
(0 -0 18.6256)
(0 -0 18.6474)
(0 -0 18.657)
(0 -0 18.6814)
(0 -0 18.6801)
(0 -0 18.7145)
(0 -0 18.6971)
(0 -0 18.7534)
(0 -0 18.7115)
(0 -0 15.1562)
(0 -0 15.1437)
(0 -0 15.2134)
(0 -0 15.289)
(0 -0 15.3644)
(0 -0 15.4456)
(0 -0 15.5278)
(0 -0 15.6027)
(0 -0 15.6679)
(0 -0 15.7257)
(0 -0 15.7777)
(0 -0 15.8239)
(0 -0 15.8645)
(0 -0 15.9001)
(0 -0 15.9324)
(0 -0 15.963)
(0 -0 15.9934)
(0 -0 16.0254)
(0 -0 16.0609)
(0 -0 16.1013)