/*--------------------------------*- C++ -*----------------------------------*\
  =========                 |
  \\      /  F ield         | OpenFOAM: The Open Source CFD Toolbox
   \\    /   O peration     | Website:  https://openfoam.org
    \\  /    A nd           | Version:  7
     \\/     M anipulation  |
\*---------------------------------------------------------------------------*/
FoamFile
{
    version     2.0;
    format      ascii;
    class       volVectorField;
    location    "0.47";
    object      wallShearStress;
}
// * * * * * * * * * * * * * * * * * * * * * * * * * * * * * * * * * * * * * //

dimensions      [0 2 -2 0 0 0 0];

internalField   uniform (0 0 0);

boundaryField
{
    velocityInlet
    {
        type            calculated;
        value           uniform (0 0 0);
    }
    pressureOutlet
    {
        type            calculated;
        value           uniform (0 0 0);
    }
    fixedWalls
    {
        type            calculated;
        value           nonuniform List<vector> 
100
(
(0.00166308 0.000640717 0)
(-0.00206171 0.000330239 0)
(-0.00220418 9.90206e-05 0)
(-0.0025775 0.00010687 0)
(-0.00295784 8.84581e-05 0)
(-0.00325991 7.11223e-05 0)
(-0.00348904 4.36862e-05 0)
(-0.00341979 -1.81953e-05 0)
(-0.00310595 -4.59337e-05 0)
(-0.00361476 0.000136819 0)
(-0.00613533 0.00043515 0)
(-0.00943313 0.000493922 0)
(-0.0103113 1.55825e-05 0)
(-0.00510396 -0.00116366 0)
(0.0045986 -0.00157178 0)
(0.0111012 -0.000932745 0)
(0.0109468 0.000147539 0)
(0.00619351 0.000715119 0)
(0.000391647 0.000714591 0)
(-0.00407511 0.000456152 0)
(-0.00647773 0.000198493 0)
(-0.0072837 4.80997e-05 0)
(-0.00723299 -2.02962e-05 0)
(-0.0068313 -4.55259e-05 0)
(-0.00632463 -5.19645e-05 0)
(-0.00581126 -5.20819e-05 0)
(-0.0053245 -5.01912e-05 0)
(-0.00487543 -4.72015e-05 0)
(-0.00446975 -4.32442e-05 0)
(-0.00411087 -3.86629e-05 0)
(-0.0038007 -3.37053e-05 0)
(-0.00354281 -2.80081e-05 0)
(-0.00334705 -2.03609e-05 0)
(-0.0032313 -9.61912e-06 0)
(-0.00321699 4.68082e-06 0)
(-0.00331386 2.12089e-05 0)
(-0.00347527 3.12614e-05 0)
(-0.00353965 1.82147e-05 0)
(-0.00325623 -3.63324e-05 0)
(-0.00251388 -9.71509e-05 0)
(-0.00158275 -0.000113753 0)
(-0.000934432 -6.99975e-05 0)
(-0.000823773 -1.09782e-05 0)
(-0.00114423 3.30719e-05 0)
(-0.00162839 4.71823e-05 0)
(-0.00208249 4.1847e-05 0)
(-0.00243089 3.15514e-05 0)
(-0.00267134 2.25451e-05 0)
(-0.0028286 1.61465e-05 0)
(-0.0029295 1.20642e-05 0)
(-0.00299721 1.02255e-05 0)
(-0.00304773 9.63259e-06 0)
(-0.00308501 9.3709e-06 0)
(-0.00309811 7.75398e-06 0)
(-0.00306125 2.0612e-06 0)
(-0.00294265 -7.69036e-06 0)
(-0.00272136 -2.00088e-05 0)
(-0.00240474 -3.13991e-05 0)
(-0.00203554 -3.78056e-05 0)
(-0.00168235 -3.63033e-05 0)
(-0.00141691 -2.66328e-05 0)
(-0.00128842 -1.31749e-05 0)
(-0.00130825 1.01864e-06 0)
(-0.00145225 1.24472e-05 0)
(-0.00167699 1.92094e-05 0)
(-0.00193941 2.17088e-05 0)
(-0.00221274 2.23149e-05 0)
(-0.00249179 2.36171e-05 0)
(-0.00277617 2.50971e-05 0)
(-0.00304038 2.20417e-05 0)
(-0.00322412 1.00943e-05 0)
(-0.00327679 -7.94229e-06 0)
(-0.0032674 -1.60596e-05 0)
(-0.00345548 1.19654e-05 0)
(-0.00412155 6.56125e-05 0)
(-0.00522088 0.000103845 0)
(-0.00643442 0.000110171 0)
(-0.00751457 0.00010397 0)
(-0.0082696 8.2081e-05 0)
(-0.00845294 3.94138e-05 0)
(-0.00794479 -1.23278e-05 0)
(-0.00683111 -5.99777e-05 0)
(-0.00513344 -0.00011785 0)
(-0.00272289 -0.000212945 0)
(0.000366146 -0.000276522 0)
(0.00362738 -0.000308689 0)
(0.00635008 -0.0002624 0)
(0.00794416 -0.000151647 0)
(0.00810757 -1.6588e-05 0)
(0.00697573 9.98198e-05 0)
(0.00503758 0.000161284 0)
(0.00287043 0.000170946 0)
(0.000860053 0.000149232 0)
(-0.000749408 0.000118051 0)
(-0.0019586 8.2051e-05 0)
(-0.00275528 5.38226e-05 0)
(-0.00334965 3.46471e-05 0)
(-0.00374095 2.67621e-05 0)
(-0.00404096 1.88541e-05 0)
(-0.0045203 2.06648e-05 0)
)
;
    }
    bottomWall
    {
        type            calculated;
        value           nonuniform List<vector> 
800
(
(-0.0353512 0.00216563 0)
(-0.0160362 0.000524974 0)
(-0.01059 0.000100565 0)
(-0.00845493 3.45987e-05 0)
(-0.00749069 1.96923e-05 0)
(-0.00685483 1.60211e-05 0)
(-0.00634586 1.32213e-05 0)
(-0.00593444 1.07724e-05 0)
(-0.00559963 8.97248e-06 0)
(-0.00532068 7.67355e-06 0)
(-0.00508302 6.68948e-06 0)
(-0.00487724 5.91199e-06 0)
(-0.00469686 5.28212e-06 0)
(-0.00453718 4.76297e-06 0)
(-0.0043946 4.329e-06 0)
(-0.00426635 3.96169e-06 0)
(-0.00415026 3.64743e-06 0)
(-0.00404456 3.37597e-06 0)
(-0.00394787 3.13948e-06 0)
(-0.003859 2.93189e-06 0)
(-0.00377701 2.74844e-06 0)
(-0.00370108 2.58534e-06 0)
(-0.00363055 2.43951e-06 0)
(-0.00356483 2.30845e-06 0)
(-0.00350342 2.19015e-06 0)
(-0.00344591 2.08292e-06 0)
(-0.00339192 1.98532e-06 0)
(-0.00334112 1.89618e-06 0)
(-0.00329323 1.81452e-06 0)
(-0.00324801 1.73951e-06 0)
(-0.00320523 1.67038e-06 0)
(-0.00316469 1.60653e-06 0)
(-0.00312621 1.54738e-06 0)
(-0.00308965 1.49249e-06 0)
(-0.00305485 1.44147e-06 0)
(-0.00302169 1.3939e-06 0)
(-0.00299006 1.34946e-06 0)
(-0.00295985 1.30789e-06 0)
(-0.00293096 1.26896e-06 0)
(-0.00290331 1.23241e-06 0)
(-0.00287682 1.19801e-06 0)
(-0.00285143 1.16562e-06 0)
(-0.00282705 1.13513e-06 0)
(-0.00280364 1.10625e-06 0)
(-0.00278113 1.07907e-06 0)
(-0.00275948 1.05308e-06 0)
(-0.00273863 1.02891e-06 0)
(-0.00271856 1.00516e-06 0)
(-0.00269919 9.83818e-07 0)
(-0.00268054 9.6103e-07 0)
(-0.00266493 9.42329e-07 0)
(-0.00265204 9.31766e-07 0)
(-0.00263931 9.1825e-07 0)
(-0.00262677 9.03767e-07 0)
(-0.00261442 8.90207e-07 0)
(-0.00260226 8.77308e-07 0)
(-0.00259027 8.6472e-07 0)
(-0.00257846 8.524e-07 0)
(-0.00256681 8.40376e-07 0)
(-0.00255532 8.28641e-07 0)
(-0.002544 8.17178e-07 0)
(-0.00253283 8.05975e-07 0)
(-0.00252181 7.95023e-07 0)
(-0.00251094 7.84313e-07 0)
(-0.00250022 7.7384e-07 0)
(-0.00248964 7.63592e-07 0)
(-0.0024792 7.53567e-07 0)
(-0.0024689 7.43754e-07 0)
(-0.00245873 7.3415e-07 0)
(-0.00244869 7.24748e-07 0)
(-0.00243878 7.15545e-07 0)
(-0.00242899 7.06529e-07 0)
(-0.00241933 6.97699e-07 0)
(-0.00240979 6.89049e-07 0)
(-0.00240036 6.80574e-07 0)
(-0.00239105 6.72265e-07 0)
(-0.00238186 6.64122e-07 0)
(-0.00237277 6.56137e-07 0)
(-0.0023638 6.48309e-07 0)
(-0.00235493 6.40629e-07 0)
(-0.00234616 6.33095e-07 0)
(-0.0023375 6.25704e-07 0)
(-0.00232894 6.18452e-07 0)
(-0.00232048 6.11332e-07 0)
(-0.00231212 6.04344e-07 0)
(-0.00230385 5.97483e-07 0)
(-0.00229567 5.90748e-07 0)
(-0.00228759 5.84132e-07 0)
(-0.00227959 5.77635e-07 0)
(-0.00227169 5.71255e-07 0)
(-0.00226387 5.6499e-07 0)
(-0.00225614 5.58832e-07 0)
(-0.00224849 5.52784e-07 0)
(-0.00224092 5.46843e-07 0)
(-0.00223344 5.41007e-07 0)
(-0.00222603 5.35269e-07 0)
(-0.0022187 5.29633e-07 0)
(-0.00221145 5.24092e-07 0)
(-0.00220428 5.18648e-07 0)
(-0.00219717 5.13294e-07 0)
(-0.00219015 5.08032e-07 0)
(-0.00218319 5.02858e-07 0)
(-0.0021763 4.97772e-07 0)
(-0.00216949 4.92767e-07 0)
(-0.00216274 4.87846e-07 0)
(-0.00215606 4.83004e-07 0)
(-0.00214944 4.78242e-07 0)
(-0.00214289 4.73553e-07 0)
(-0.00213641 4.68939e-07 0)
(-0.00212999 4.64396e-07 0)
(-0.00212362 4.59923e-07 0)
(-0.00211733 4.55517e-07 0)
(-0.00211109 4.51178e-07 0)
(-0.00210491 4.46903e-07 0)
(-0.00209878 4.42691e-07 0)
(-0.00209272 4.38538e-07 0)
(-0.00208671 4.34445e-07 0)
(-0.00208076 4.30409e-07 0)
(-0.00207486 4.26431e-07 0)
(-0.00206902 4.22507e-07 0)
(-0.00206323 4.18638e-07 0)
(-0.0020575 4.14822e-07 0)
(-0.00205182 4.11059e-07 0)
(-0.00204618 4.07347e-07 0)
(-0.0020406 4.03687e-07 0)
(-0.00203507 4.00076e-07 0)
(-0.00202959 3.96516e-07 0)
(-0.00202415 3.93004e-07 0)
(-0.00201877 3.89542e-07 0)
(-0.00201343 3.86124e-07 0)
(-0.00200814 3.82753e-07 0)
(-0.00200289 3.79429e-07 0)
(-0.00199769 3.76153e-07 0)
(-0.00199253 3.72918e-07 0)
(-0.00198742 3.69731e-07 0)
(-0.00198235 3.66585e-07 0)
(-0.00197732 3.63486e-07 0)
(-0.00197234 3.60426e-07 0)
(-0.0019674 3.57415e-07 0)
(-0.0019625 3.54437e-07 0)
(-0.00195764 3.51512e-07 0)
(-0.00195282 3.48611e-07 0)
(-0.00194803 3.45776e-07 0)
(-0.00194329 3.42941e-07 0)
(-0.00193859 3.40205e-07 0)
(-0.00193392 3.37419e-07 0)
(-0.00192929 3.34796e-07 0)
(-0.0019247 3.32024e-07 0)
(-0.00192014 3.29504e-07 0)
(-0.00191562 3.26658e-07 0)
(-0.00191183 3.24135e-07 0)
(-0.00190873 3.22823e-07 0)
(-0.00190562 3.21228e-07 0)
(-0.00190251 3.1939e-07 0)
(-0.00189939 3.17585e-07 0)
(-0.00189627 3.15816e-07 0)
(-0.00189315 3.14083e-07 0)
(-0.00189002 3.12346e-07 0)
(-0.00188688 3.10612e-07 0)
(-0.00188374 3.08885e-07 0)
(-0.0018806 3.0716e-07 0)
(-0.00187745 3.05441e-07 0)
(-0.0018743 3.03735e-07 0)
(-0.00187114 3.0202e-07 0)
(-0.00186798 3.00319e-07 0)
(-0.00186482 2.98615e-07 0)
(-0.00186165 2.96916e-07 0)
(-0.00185847 2.9522e-07 0)
(-0.0018553 2.93529e-07 0)
(-0.00185212 2.91843e-07 0)
(-0.00184893 2.9016e-07 0)
(-0.00184574 2.88481e-07 0)
(-0.00184255 2.86815e-07 0)
(-0.00183935 2.85142e-07 0)
(-0.00183615 2.83484e-07 0)
(-0.00183295 2.81825e-07 0)
(-0.00182974 2.80171e-07 0)
(-0.00182653 2.78524e-07 0)
(-0.00182332 2.76881e-07 0)
(-0.0018201 2.75245e-07 0)
(-0.00181688 2.7362e-07 0)
(-0.00181365 2.71993e-07 0)
(-0.00181043 2.70378e-07 0)
(-0.00180719 2.68766e-07 0)
(-0.00180396 2.6716e-07 0)
(-0.00180072 2.65562e-07 0)
(-0.00179748 2.63968e-07 0)
(-0.00179424 2.62381e-07 0)
(-0.00179099 2.60804e-07 0)
(-0.00178774 2.59227e-07 0)
(-0.00178449 2.57663e-07 0)
(-0.00178123 2.56102e-07 0)
(-0.00177797 2.54549e-07 0)
(-0.00177471 2.53003e-07 0)
(-0.00177144 2.51467e-07 0)
(-0.00176818 2.4994e-07 0)
(-0.00176491 2.48419e-07 0)
(-0.00176163 2.46908e-07 0)
(-0.00175835 2.45409e-07 0)
(-0.00175508 2.43915e-07 0)
(-0.00175179 2.42434e-07 0)
(-0.00174851 2.40962e-07 0)
(-0.00174522 2.395e-07 0)
(-0.00174193 2.38049e-07 0)
(-0.00173863 2.36609e-07 0)
(-0.00173534 2.35178e-07 0)
(-0.00173204 2.33759e-07 0)
(-0.00172873 2.32347e-07 0)
(-0.00172543 2.30947e-07 0)
(-0.00172212 2.29557e-07 0)
(-0.00171881 2.28177e-07 0)
(-0.00171549 2.26809e-07 0)
(-0.00171218 2.25451e-07 0)
(-0.00170886 2.24103e-07 0)
(-0.00170553 2.22765e-07 0)
(-0.00170221 2.21435e-07 0)
(-0.00169888 2.20116e-07 0)
(-0.00169554 2.18809e-07 0)
(-0.00169221 2.17514e-07 0)
(-0.00168887 2.1623e-07 0)
(-0.00168553 2.14956e-07 0)
(-0.00168218 2.13702e-07 0)
(-0.00167883 2.12454e-07 0)
(-0.00167548 2.11229e-07 0)
(-0.00167212 2.10001e-07 0)
(-0.00166876 2.08815e-07 0)
(-0.0016654 2.07598e-07 0)
(-0.00166203 2.0648e-07 0)
(-0.00165866 2.0525e-07 0)
(-0.00165529 2.04252e-07 0)
(-0.00165191 2.02939e-07 0)
(-0.00164852 2.02188e-07 0)
(-0.00164514 2.00603e-07 0)
(-0.00164173 2.00404e-07 0)
(-0.00163835 1.98085e-07 0)
(-0.00163491 1.99176e-07 0)
(-0.00163155 1.95045e-07 0)
(-0.00162804 1.99104e-07 0)
(-0.00162474 1.90665e-07 0)
(-0.00162112 2.01472e-07 0)
(-0.00161795 1.8317e-07 0)
(-0.00161408 2.0893e-07 0)
(-0.00161121 1.68974e-07 0)
(-0.00160687 2.26617e-07 0)
(-0.0016046 1.4138e-07 0)
(-0.00159939 2.63104e-07 0)
(-0.00159816 8.95944e-08 0)
(-0.00159162 3.27948e-07 0)
(-0.00159189 8.12378e-09 0)
(-0.00158359 3.59951e-07 0)
(-0.0353513 -0.00216562 0)
(-0.0160367 -0.000524956 0)
(-0.0105909 -0.000100548 0)
(-0.0084562 -3.45841e-05 0)
(-0.00749221 -1.96786e-05 0)
(-0.00685661 -1.60071e-05 0)
(-0.00634793 -1.32058e-05 0)
(-0.0059369 -1.07545e-05 0)
(-0.00560257 -8.95147e-06 0)
(-0.0053242 -7.64935e-06 0)
(-0.0050872 -6.66233e-06 0)
(-0.00488214 -5.88231e-06 0)
(-0.00470254 -5.25041e-06 0)
(-0.00454365 -4.72962e-06 0)
(-0.00440187 -4.29415e-06 0)
(-0.00427445 -3.92528e-06 0)
(-0.00415919 -3.60914e-06 0)
(-0.00405436 -3.33532e-06 0)
(-0.00395856 -3.09586e-06 0)
(-0.00387064 -2.8846e-06 0)
(-0.00378966 -2.69667e-06 0)
(-0.00371484 -2.52817e-06 0)
(-0.0036455 -2.37587e-06 0)
(-0.0035811 -2.23713e-06 0)
(-0.00352116 -2.1096e-06 0)
(-0.00346529 -1.99134e-06 0)
(-0.00341315 -1.88043e-06 0)
(-0.00336446 -1.77533e-06 0)
(-0.00331899 -1.67421e-06 0)
(-0.00327653 -1.57575e-06 0)
(-0.00323697 -1.47771e-06 0)
(-0.00320016 -1.37895e-06 0)
(-0.00316607 -1.27605e-06 0)
(-0.00313465 -1.1682e-06 0)
(-0.00310597 -1.04966e-06 0)
(-0.00308008 -9.19507e-07 0)
(-0.00305717 -7.69111e-07 0)
(-0.00303755 -5.94263e-07 0)
(-0.00302135 -3.8662e-07 0)
(-0.00300973 -1.26146e-07 0)
(-0.00300206 1.7984e-07 0)
(-0.0030019 6.03771e-07 0)
(-0.00300597 1.09235e-06 0)
(-0.00302402 1.79752e-06 0)
(-0.00304501 2.5147e-06 0)
(-0.00309521 3.83453e-06 0)
(-0.00313683 4.7454e-06 0)
(-0.00325957 7.69578e-06 0)
(-0.00328955 -3.67787e-07 0)
(-0.00342064 0.000253647 0)
(1.52774e-05 3.2e-06 0)
(3.78561e-05 -4.90866e-05 0)
(3.7293e-05 -0.000125389 0)
(2.3489e-05 -0.000172045 0)
(2.11634e-05 -0.000190476 0)
(3.56394e-05 -0.000214405 0)
(5.19811e-05 -0.000267267 0)
(5.51719e-05 -0.000331984 0)
(5.1049e-05 -0.000376914 0)
(3.1914e-05 -0.000379913 0)
(-3.13138e-05 -0.000322945 0)
(-0.00010491 -0.000180158 0)
(-0.000128229 -1.69904e-05 0)
(-0.000127155 0.000126436 0)
(-0.00012353 0.000254795 0)
(-0.000117592 0.000369507 0)
(-0.000109 0.000470611 0)
(-9.58164e-05 0.000554952 0)
(-7.82097e-05 0.00061853 0)
(-5.71738e-05 0.000658841 0)
(-3.39269e-05 0.000673968 0)
(-9.60467e-06 0.000663413 0)
(1.43063e-05 0.00062928 0)
(3.80754e-05 0.000571906 0)
(6.13352e-05 0.000492285 0)
(8.41571e-05 0.000392706 0)
(0.000107512 0.000273746 0)
(0.000128853 0.000130803 0)
(0.000146971 -3.18917e-05 0)
(0.000164121 -0.000209359 0)
(0.00017874 -0.000399417 0)
(0.000190414 -0.000600273 0)
(0.000198195 -0.00080874 0)
(0.000201451 -0.00102116 0)
(0.00019982 -0.00123334 0)
(0.000193258 -0.00144087 0)
(0.000182061 -0.00163953 0)
(0.000166793 -0.00182561 0)
(0.000148219 -0.0019961 0)
(0.00012719 -0.00214874 0)
(0.000104573 -0.00228206 0)
(8.11601e-05 -0.00239541 0)
(5.75623e-05 -0.00248864 0)
(3.43331e-05 -0.00256218 0)
(1.16811e-05 -0.00261685 0)
(-1.02029e-05 -0.00265329 0)
(-3.13195e-05 -0.00267312 0)
(-5.24174e-05 -0.00267662 0)
(-7.34564e-05 -0.00266398 0)
(-9.36952e-05 -0.00263658 0)
(-0.000113114 -0.00259533 0)
(-0.000131818 -0.00254093 0)
(-0.000149962 -0.00247409 0)
(-0.00016769 -0.00239542 0)
(-0.000185097 -0.00230536 0)
(-0.000202243 -0.00220431 0)
(-0.000219107 -0.00209257 0)
(-0.000235585 -0.00197052 0)
(-0.000251488 -0.00183854 0)
(-0.000266407 -0.00169701 0)
(-0.000279755 -0.00154646 0)
(-0.000290805 -0.00138755 0)
(-0.000298637 -0.00122119 0)
(-0.000302051 -0.00104852 0)
(-0.000299392 -0.000870944 0)
(-0.000288116 -0.000690133 0)
(-0.000264574 -0.000508827 0)
(-0.000223378 -0.000330378 0)
(-0.000158672 -0.000161736 0)
(-6.77634e-05 -1.52377e-05 0)
(4.38309e-05 9.79174e-05 0)
(0.000158874 0.000167622 0)
(0.000258862 0.000192042 0)
(0.000324007 0.000178078 0)
(0.000341339 0.000138713 0)
(0.000315012 9.24029e-05 0)
(0.000250657 4.61612e-05 0)
(0.000152811 9.96487e-06 0)
(3.89151e-05 -4.26855e-06 0)
(-6.05672e-05 1.01376e-05 0)
(-0.000123242 4.29817e-05 0)
(-0.000131527 6.79802e-05 0)
(-0.00011391 7.24652e-05 0)
(-9.50216e-05 6.32003e-05 0)
(-7.89828e-05 5.94309e-05 0)
(-5.74059e-05 6.66928e-05 0)
(-2.69801e-05 7.69931e-05 0)
(7.65489e-06 8.04302e-05 0)
(3.74434e-05 7.20501e-05 0)
(5.4103e-05 5.54332e-05 0)
(5.7795e-05 3.86227e-05 0)
(5.49337e-05 2.52247e-05 0)
(5.17003e-05 1.28316e-05 0)
(4.93891e-05 -2.53638e-06 0)
(4.67093e-05 -2.13305e-05 0)
(4.25917e-05 -4.09008e-05 0)
(3.83518e-05 -5.92117e-05 0)
(3.53986e-05 -7.60377e-05 0)
(3.42898e-05 -9.23599e-05 0)
(3.45587e-05 -0.000108981 0)
(3.60413e-05 -0.000126301 0)
(3.85173e-05 -0.000144909 0)
(4.14721e-05 -0.000165318 0)
(4.40484e-05 -0.000187713 0)
(4.51722e-05 -0.000211722 0)
(4.38433e-05 -0.000236372 0)
(3.93919e-05 -0.000260247 0)
(3.15969e-05 -0.000281736 0)
(2.07277e-05 -0.00029924 0)
(7.56182e-06 -0.000311456 0)
(-6.89283e-06 -0.000317563 0)
(-2.14701e-05 -0.000317163 0)
(-3.48808e-05 -0.000310363 0)
(-4.59636e-05 -0.000297964 0)
(-5.39334e-05 -0.000281188 0)
(-5.84158e-05 -0.00026152 0)
(-5.94518e-05 -0.000240476 0)
(-5.73615e-05 -0.000219479 0)
(-5.26874e-05 -0.000199801 0)
(-4.60909e-05 -0.000182404 0)
(-3.81185e-05 -0.000167715 0)
(-2.87997e-05 -0.000155651 0)
(-1.77497e-05 -0.00014636 0)
(-5.36425e-06 -0.000140876 0)
(6.09325e-06 -0.000138236 0)
(1.3568e-05 -0.000127887 0)
(1.92896e-05 -0.000110513 0)
(2.77144e-05 -8.27426e-05 0)
(3.77609e-05 -5.29397e-05 0)
(3.86132e-05 -3.10769e-05 0)
(1.31156e-05 -2.05081e-05 0)
(-5.43687e-05 -8.9698e-06 0)
(-0.000162765 3.30549e-05 0)
(-0.000281987 0.000131605 0)
(-0.000371358 0.000278439 0)
(-0.000413586 0.000434749 0)
(-0.00042276 0.000570531 0)
(-0.000420557 0.000683931 0)
(-0.000419039 0.000786443 0)
(-0.000420938 0.000886362 0)
(-0.000425148 0.000986754 0)
(-0.000429663 0.00108806 0)
(-0.000432568 0.00118959 0)
(-0.000432437 0.00129009 0)
(-0.000428449 0.00138815 0)
(-0.000420311 0.0014825 0)
(-0.000408089 0.00157208 0)
(-0.000392051 0.00165613 0)
(-0.00037254 0.00173405 0)
(-0.000349914 0.00180541 0)
(-0.000324512 0.00186988 0)
(-0.000296645 0.00192722 0)
(-0.000266607 0.00197721 0)
(-0.000234672 0.00201971 0)
(-0.00020107 0.00205463 0)
(-0.00016601 0.00208183 0)
(-0.000129754 0.00210118 0)
(-9.25807e-05 0.00211269 0)
(-5.46088e-05 0.00211652 0)
(-1.6532e-05 0.00211263 0)
(2.17178e-05 0.00210185 0)
(6.07538e-05 0.00208393 0)
(0.000100222 0.00205888 0)
(0.000140104 0.00202678 0)
(0.000180326 0.00198762 0)
(0.000220771 0.00194148 0)
(0.000261339 0.00188843 0)
(0.000301901 0.00182855 0)
(0.000342298 0.00176192 0)
(0.000382307 0.00168859 0)
(0.000421631 0.00160869 0)
(0.000459926 0.00152241 0)
(0.000496837 0.00142999 0)
(0.000531996 0.00133174 0)
(0.000564995 0.00122793 0)
(0.000595359 0.00111889 0)
(0.000622555 0.00100498 0)
(0.00064599 0.000886668 0)
(0.000665023 0.000764477 0)
(0.000678969 0.000639048 0)
(0.0006871 0.000511131 0)
(0.000688646 0.000381606 0)
(0.000682846 0.000251498 0)
(0.000669447 0.000121967 0)
(0.000646662 -6.00468e-06 0)
(0.00061313 -0.00013024 0)
(0.000569995 -0.000248973 0)
(0.000516577 -0.000360985 0)
(0.000451601 -0.000463925 0)
(0.000375503 -0.000555685 0)
(0.000288684 -0.000634219 0)
(0.000191897 -0.000697624 0)
(8.62138e-05 -0.000744408 0)
(-2.71411e-05 -0.000773896 0)
(-0.000147097 -0.000787058 0)
(-0.000273497 -0.000788525 0)
(-0.000410612 -0.000793829 0)
(-0.000577194 -0.00084272 0)
(-0.00080107 -0.00100516 0)
(-0.00109736 -0.00135551 0)
(3.98007e-06 -7.9383e-06 0)
(2.38089e-05 -1.43817e-05 0)
(5.32257e-05 -2.93585e-05 0)
(0.000100317 -5.19915e-05 0)
(0.000163535 -7.1421e-05 0)
(0.000232387 -7.86089e-05 0)
(0.000294432 -7.14266e-05 0)
(0.000339996 -5.21726e-05 0)
(0.000361845 -2.45596e-05 0)
(0.000357838 5.1127e-06 0)
(0.000329859 3.21567e-05 0)
(0.000281937 5.39439e-05 0)
(0.000218481 6.75218e-05 0)
(0.000147862 6.93112e-05 0)
(8.17663e-05 5.91067e-05 0)
(3.10435e-05 4.33875e-05 0)
(-7.51256e-07 3.23322e-05 0)
(-2.10874e-05 3.24099e-05 0)
(-4.3211e-05 3.8781e-05 0)
(-7.28633e-05 4.34638e-05 0)
(-0.00010835 4.41542e-05 0)
(-0.000146188 4.30704e-05 0)
(-0.000180728 3.94191e-05 0)
(-0.000200635 3.27937e-05 0)
(-0.000211241 1.56478e-05 0)
(-0.000213934 -3.03547e-05 0)
(-0.000187748 -8.29084e-05 0)
(-0.000163558 -8.29609e-05 0)
(-0.000197078 -3.85569e-05 0)
(-0.00018772 5.81861e-05 0)
(-0.000140945 0.00019647 0)
(-0.000193272 0.000275931 0)
(-0.000366265 0.00022395 0)
(-0.000256342 -9.00247e-05 0)
(-1.18481e-05 -0.000275509 0)
(0.000217377 -0.000216805 0)
(0.000281312 -0.00010436 0)
(0.000332954 -0.000113281 0)
(0.000416291 -0.000110342 0)
(0.000484161 -9.57256e-05 0)
(0.00054787 -9.07601e-05 0)
(0.000609314 -8.24307e-05 0)
(0.000665362 -7.56043e-05 0)
(0.000717916 -6.97136e-05 0)
(0.000766265 -6.40382e-05 0)
(0.000810542 -5.87833e-05 0)
(0.000850456 -5.32002e-05 0)
(0.000885561 -4.73101e-05 0)
(0.000915489 -4.08428e-05 0)
(0.000939653 -3.3637e-05 0)
(0.000957409 -2.56169e-05 0)
(0.000967983 -1.68009e-05 0)
(0.000970591 -7.26826e-06 0)
(0.000964228 3.12275e-06 0)
(0.000947741 1.48013e-05 0)
(0.00091993 2.79933e-05 0)
(0.000879476 4.28362e-05 0)
(0.000825041 5.9337e-05 0)
(0.00075537 7.73806e-05 0)
(0.000669397 9.67081e-05 0)
(0.000566381 0.000116965 0)
(0.000446005 0.000137794 0)
(0.000308369 0.000158729 0)
(0.000154119 0.000180165 0)
(-1.98583e-05 0.000202289 0)
(-0.000216666 0.000224163 0)
(-0.000421262 0.000237122 0)
(-0.000624878 0.000243878 0)
(-0.000834185 0.000247875 0)
(-0.00104838 0.000248471 0)
(-0.00126289 0.000245046 0)
(-0.00147332 0.000239199 0)
(-0.00167835 0.00023006 0)
(-0.00187361 0.00022061 0)
(-0.00206358 0.000208483 0)
(-0.00224022 0.000186 0)
(-0.00240245 0.000163516 0)
(-0.00255075 0.00010696 0)
(-0.0026426 3.56472e-05 0)
(-0.00271577 -7.21648e-05 0)
(-0.0026584 -0.000270414 0)
(-0.00250536 -0.00042242 0)
(-0.00224206 -0.000798744 0)
(-0.00136631 -0.000982049 0)
(-0.000595153 -0.000413327 0)
(-0.000407238 8.4557e-05 0)
(-0.000436719 0.000176341 0)
(-0.000494353 0.000101055 0)
(-0.000478133 -7.74927e-06 0)
(-0.000396297 -7.34904e-05 0)
(-0.000307176 -8.32268e-05 0)
(-0.000246448 -5.935e-05 0)
(-0.000223456 -2.58132e-05 0)
(-0.000232165 4.6166e-07 0)
(-0.000259854 5.39579e-06 0)
(-0.000281787 -1.67894e-05 0)
(-0.000271005 -6.01374e-05 0)
(-0.000208922 -9.83316e-05 0)
(-0.000112901 -0.000104694 0)
(-4.33911e-07 -8.32125e-05 0)
(-8.04639e-05 -3.5618e-05 0)
(-8.03416e-05 -0.000190607 0)
(-3.94293e-05 -0.000299026 0)
(4.36879e-06 -0.000332994 0)
(3.55236e-05 -0.000309148 0)
(5.05712e-05 -0.00024452 0)
(5.10977e-05 -0.000160447 0)
(6.44163e-05 -5.58931e-05 0)
(0.000231518 0.000153333 0)
(0.000409101 0.000651513 0)
(0.000303284 0.00109965 0)
(0.000102117 0.00121392 0)
(-5.31951e-06 0.00119092 0)
(-8.1443e-05 0.00108228 0)
(-0.000114205 0.000928754 0)
(-0.000114596 0.000771538 0)
(-0.000101868 0.000629654 0)
(-7.79553e-05 0.000514975 0)
(-5.30346e-05 0.000432926 0)
(-3.44437e-05 0.000375886 0)
(-2.45098e-05 0.000330584 0)
(-1.85828e-05 0.000283461 0)
(-1.00405e-06 0.00023171 0)
(4.27193e-05 0.000198133 0)
(4.70926e-05 0.000224884 0)
(-3.39171e-05 0.000250765 0)
(-8.27612e-05 0.000238917 0)
(-6.64515e-05 0.000216268 0)
(-4.15759e-05 0.000185408 0)
(-3.51736e-05 0.000151754 0)
(-4.64344e-05 0.000106584 0)
(-6.93039e-05 3.23808e-05 0)
(-8.04108e-05 -6.86802e-05 0)
(-6.31832e-05 -0.000169811 0)
(-2.14148e-05 -0.000237743 0)
(2.68017e-05 -0.000258189 0)
(6.00724e-05 -0.000235474 0)
(6.72214e-05 -0.000181013 0)
(5.08414e-05 -0.000121936 0)
(4.28984e-05 -6.88853e-05 0)
(5.32434e-05 -7.33292e-07 0)
(5.88508e-05 6.26507e-05 0)
(8.45583e-05 8.47488e-05 0)
(0.000133199 9.46492e-05 0)
(0.000136642 0.000129076 0)
(3.00971e-05 0.000157343 0)
(-0.000154608 0.000114468 0)
(-0.00032579 8.23713e-06 0)
(-0.000425758 -0.000115514 0)
(-0.000434662 -0.000226484 0)
(-0.000383263 -0.000337746 0)
(-0.000205939 -0.000385838 0)
(2.37304e-05 -0.000296263 0)
(0.000154346 -0.000197905 0)
(0.000213603 -0.000117747 0)
(0.000179873 4.88224e-05 0)
(-9.06434e-07 0.000302828 0)
(-0.00023581 0.000481695 0)
(-0.000320575 0.000553134 0)
(-0.000180314 0.000615466 0)
(0.000244469 0.00080606 0)
(0.000897805 0.00115029 0)
(0.00129292 0.00184889 0)
(0.000997012 0.0026902 0)
(0.000365086 0.00286133 0)
(0.000267142 0.00277828 0)
(0.000383652 0.00294338 0)
(0.000263695 0.00315382 0)
(0.000147493 0.00319873 0)
(0.000166129 0.00324142 0)
(0.000138783 0.00332816 0)
(7.65072e-05 0.00336483 0)
(6.27229e-05 0.00337508 0)
(5.16262e-05 0.00339957 0)
(2.34153e-05 0.00341107 0)
(9.29748e-06 0.00340537 0)
(2.3603e-06 0.00340018 0)
(-1.20693e-05 0.00338972 0)
(-2.68429e-05 0.00336584 0)
(-4.22849e-05 0.00333164 0)
(-6.70561e-05 0.00328239 0)
(-0.000102265 0.0032082 0)
(-0.000146386 0.0031019 0)
(-0.000196847 0.00295641 0)
(-0.000242649 0.00276696 0)
(-0.000264834 0.00254032 0)
(-0.000246791 0.00229968 0)
(-0.000188191 0.00207836 0)
(-0.000111858 0.00190225 0)
(-4.86059e-05 0.00177456 0)
(-4.87361e-06 0.00169027 0)
(4.17155e-05 0.00168949 0)
(6.76676e-05 0.00186573 0)
(-2.13697e-05 0.00222494 0)
(-0.000200883 0.00252566 0)
(-0.000182011 0.00259619 0)
(0.000660622 0.00359497 0)
(0.00321506 0.00473973 0)
(0.00320734 0.00447594 0)
(0.00294537 0.00708486 0)
(0.00129108 0.00741406 0)
(0.000734617 0.00657187 0)
(0.000703226 0.00677166 0)
(0.000226301 0.00703162 0)
(-0.000107226 0.00673829 0)
(-0.000138633 0.00656987 0)
(-0.000282852 0.00651077 0)
(-0.000423217 0.00628878 0)
(-0.000434187 0.00606527 0)
(-0.000461531 0.0059041 0)
(-0.000502416 0.00570344 0)
(-0.000496459 0.00549408 0)
(-0.000485555 0.00531735 0)
(-0.000484935 0.00514067 0)
(-0.000471735 0.00496217 0)
(-0.000453661 0.00480013 0)
(-0.000441123 0.0046468 0)
(-0.000427541 0.00449622 0)
(-0.000412098 0.00435417 0)
(-0.000399166 0.00422012 0)
(-0.00038777 0.00409037 0)
(-0.000376384 0.00396567 0)
(-0.000366037 0.00384658 0)
(-0.000356928 0.00373171 0)
(-0.000348332 0.0036206 0)
(-0.000340206 0.00351347 0)
(-0.000332665 0.00340996 0)
(-0.000325481 0.00330973 0)
(-0.000318505 0.00321275 0)
(-0.000311738 0.00311896 0)
(-0.000305127 0.00302821 0)
(-0.000298607 0.00294044 0)
(-0.000292167 0.00285561 0)
(-0.00028581 0.00277366 0)
(-0.000279529 0.00269452 0)
(-0.000273332 0.00261817 0)
(-0.000267237 0.00254453 0)
(-0.000261256 0.00247354 0)
(-0.000255402 0.00240514 0)
(-0.000249688 0.00233927 0)
(-0.000244122 0.00227585 0)
(-0.000238704 0.00221483 0)
(-0.000233431 0.00215613 0)
(-0.000228293 0.0020997 0)
(-0.000223273 0.00204549 0)
(-0.00021835 0.00199345 0)
(-0.000213496 0.00194355 0)
(-0.000208678 0.00189576 0)
(-0.000203861 0.00185007 0)
(-0.000199002 0.00180647 0)
(-0.000194059 0.00176496 0)
(-0.000188985 0.00172557 0)
(-0.000183733 0.00168832 0)
(-0.000178253 0.00165324 0)
(-0.000172496 0.00162038 0)
(-0.000166413 0.0015898 0)
(-0.000159955 0.00156155 0)
(-0.000153072 0.00153571 0)
(-0.000145717 0.00151234 0)
(-0.00013784 0.00149153 0)
(-0.00012939 0.00147336 0)
(-0.000120319 0.00145791 0)
(-0.000110567 0.00144526 0)
(-0.000100025 0.00143548 0)
(-8.85695e-05 0.0014286 0)
(-7.62869e-05 0.00142458 0)
(-6.28668e-05 0.00142338 0)
(-4.80278e-05 0.00142547 0)
(-3.18571e-05 0.001431 0)
(-1.43759e-05 0.00144005 0)
(4.37601e-06 0.0014527 0)
(2.43195e-05 0.00146902 0)
(4.5345e-05 0.00148903 0)
(6.72836e-05 0.00151279 0)
(8.98571e-05 0.00154034 0)
(0.000112601 0.0015718 0)
(0.000134758 0.00160737 0)
(0.000155129 0.00164731 0)
(0.000171915 0.00169193 0)
(0.00018257 0.00174136 0)
(0.000183824 0.0017951 0)
(0.000172172 0.00185112 0)
(0.000145204 0.00190452 0)
(0.000104232 0.00194659 0)
(5.71587e-05 0.00196673 0)
(1.75052e-05 0.00195876 0)
(-4.7244e-07 0.00192819 0)
(8.70631e-06 0.00189258 0)
(3.8345e-05 0.0018697 0)
(7.63488e-05 0.00187017 0)
(0.000111011 0.00189565 0)
(0.000134139 0.00194142 0)
(0.000142198 0.00199167 0)
(0.000140296 0.00201166 0)
(0.000148525 0.00194851 0)
(0.000242605 0.00197971 0)
(0.000598692 0.00200965 0)
(0.00118281 0.00174789 0)
(0.00177572 0.00178665 0)
(0.00193558 0.00219486 0)
)
;
    }
    frontAndBack
    {
        type            empty;
    }
}


// ************************************************************************* //
