/*--------------------------------*- C++ -*----------------------------------*\
  =========                 |
  \\      /  F ield         | OpenFOAM: The Open Source CFD Toolbox
   \\    /   O peration     | Website:  https://openfoam.org
    \\  /    A nd           | Version:  7
     \\/     M anipulation  |
\*---------------------------------------------------------------------------*/
FoamFile
{
    version     2.0;
    format      ascii;
    class       volVectorField;
    location    "0.17";
    object      ddt0(U);
}
// * * * * * * * * * * * * * * * * * * * * * * * * * * * * * * * * * * * * * //

dimensions      [0 1 -2 0 0 0 0];

internalField   nonuniform List<vector> 
70000
(
(-3.16942e-05 5.24645e-06 0)
(-0.000807676 1.68592e-05 0)
(-0.00277472 2.37516e-05 0)
(-0.00594752 1.87745e-05 0)
(-0.0103705 2.02081e-05 0)
(-0.0162257 2.4546e-05 0)
(-0.0233522 2.99397e-05 0)
(-0.0313925 3.67488e-05 0)
(-0.0399717 4.24484e-05 0)
(-0.0488213 4.64098e-05 0)
(-0.0577701 4.86721e-05 0)
(-0.0667717 5.04008e-05 0)
(-0.0758839 5.25026e-05 0)
(-0.0851785 5.49905e-05 0)
(-0.0947745 5.84438e-05 0)
(-0.104721 6.21019e-05 0)
(-0.115107 6.69322e-05 0)
(-0.125938 7.16119e-05 0)
(-0.137256 7.72382e-05 0)
(-0.149091 8.33517e-05 0)
(-0.161466 8.99382e-05 0)
(-0.174463 9.77036e-05 0)
(-0.188133 0.000106286 0)
(-0.202532 0.000114983 0)
(-0.217771 0.000125888 0)
(-0.23387 0.000136498 0)
(-0.250943 0.000149168 0)
(-0.269082 0.000163451 0)
(-0.28836 0.000178502 0)
(-0.308957 0.000196383 0)
(-0.330968 0.000215605 0)
(-0.354542 0.000236593 0)
(-0.379854 0.000261041 0)
(-0.407023 0.000287296 0)
(-0.436187 0.000315322 0)
(-0.467658 0.000350571 0)
(-0.501353 0.000381511 0)
(-0.537962 0.000426022 0)
(-0.577016 0.000461653 0)
(-0.619759 0.000512067 0)
(-0.66514 0.000558971 0)
(-0.715024 0.000602711 0)
(-0.76784 0.000673057 0)
(-0.825595 0.000695941 0)
(-0.886464 0.000755683 0)
(-0.953791 0.000827494 0)
(-1.01895 0.000673245 0)
(-1.10084 0.000812929 0)
(-1.17061 0.000844357 0)
(-1.09887 0.0412145 0)
(0.00011855 3.29959e-05 0)
(-0.00126894 0.000151622 0)
(-0.00606071 0.000310924 0)
(-0.0146289 0.000476386 0)
(-0.0270936 0.000653392 0)
(-0.0439986 0.000829171 0)
(-0.0649739 0.000974475 0)
(-0.0888346 0.0010758 0)
(-0.114315 0.00113677 0)
(-0.140505 0.00117158 0)
(-0.166909 0.001196 0)
(-0.193416 0.0012227 0)
(-0.22019 0.00126113 0)
(-0.247472 0.00131243 0)
(-0.275547 0.00137702 0)
(-0.304597 0.00145107 0)
(-0.334812 0.00153491 0)
(-0.366269 0.00162538 0)
(-0.399069 0.0017234 0)
(-0.433313 0.00183117 0)
(-0.469091 0.00194703 0)
(-0.506574 0.00207599 0)
(-0.545899 0.00221668 0)
(-0.587228 0.00236993 0)
(-0.63078 0.00254105 0)
(-0.676708 0.00272775 0)
(-0.725265 0.00293442 0)
(-0.776711 0.00316641 0)
(-0.831298 0.00341952 0)
(-0.889413 0.00370457 0)
(-0.951361 0.0040182 0)
(-1.01755 0.00436512 0)
(-1.08836 0.00475101 0)
(-1.16426 0.00517683 0)
(-1.24558 0.0056435 0)
(-1.33316 0.00617036 0)
(-1.42688 0.00673324 0)
(-1.52851 0.00737541 0)
(-1.63687 0.00806044 0)
(-1.75543 0.00882982 0)
(-1.88113 0.00967315 0)
(-2.01964 0.0105629 0)
(-2.16621 0.0116085 0)
(-2.32718 0.0125781 0)
(-2.49787 0.0138286 0)
(-2.68701 0.014809 0)
(-2.87418 0.0161148 0)
(-3.11057 0.0175806 0)
(-3.31428 0.0116186 0)
(-3.41046 0.076909 0)
(0.000239736 5.48748e-05 0)
(-0.000686385 0.000338623 0)
(-0.00578315 0.000770894 0)
(-0.0166149 0.00127234 0)
(-0.0337399 0.00182787 0)
(-0.0580064 0.00239431 0)
(-0.0892412 0.00287343 0)
(-0.125872 0.00320456 0)
(-0.165844 0.00339846 0)
(-0.20748 0.00350355 0)
(-0.249754 0.00357326 0)
(-0.292294 0.00364787 0)
(-0.335205 0.00375472 0)
(-0.378802 0.00389957 0)
(-0.423481 0.0040816 0)
(-0.469548 0.00429322 0)
(-0.517291 0.00453083 0)
(-0.566876 0.00478987 0)
(-0.618472 0.00506959 0)
(-0.672253 0.00537636 0)
(-0.728383 0.00570728 0)
(-0.787106 0.00607256 0)
(-0.848632 0.00647048 0)
(-0.913208 0.00690591 0)
(-0.981139 0.00738666 0)
(-1.05268 0.00791535 0)
(-1.12819 0.00849755 0)
(-1.20807 0.00914886 0)
(-1.29271 0.00986306 0)
(-1.38265 0.0106623 0)
(-1.47838 0.0115437 0)
(-1.5805 0.0125202 0)
(-1.68959 0.0136022 0)
(-1.80639 0.0147992 0)
(-1.93138 0.016116 0)
(-2.06588 0.0175868 0)
(-2.20973 0.0191893 0)
(-2.3656 0.020979 0)
(-2.53176 0.0229372 0)
(-2.71347 0.025099 0)
(-2.90621 0.0275 0)
(-3.11849 0.0300747 0)
(-3.34359 0.0330144 0)
(-3.59067 0.03595 0)
(-3.85389 0.0396087 0)
(-4.14535 0.0424644 0)
(-4.43813 0.0471359 0)
(-4.80066 0.0511408 0)
(-5.13004 0.0454995 0)
(-5.40212 0.116107 0)
(0.00020431 5.1386e-05 0)
(-1.01166e-05 0.000483285 0)
(-0.00362578 0.00123327 0)
(-0.0132461 0.00215881 0)
(-0.0304276 0.0032243 0)
(-0.0566055 0.00436338 0)
(-0.0922042 0.00538776 0)
(-0.135971 0.00614549 0)
(-0.185618 0.00662077 0)
(-0.238857 0.00689024 0)
(-0.293984 0.00705916 0)
(-0.350057 0.00721408 0)
(-0.406812 0.00741553 0)
(-0.464384 0.00768353 0)
(-0.52313 0.00802055 0)
(-0.583403 0.00841713 0)
(-0.64557 0.00886455 0)
(-0.709893 0.00935749 0)
(-0.776634 0.00989157 0)
(-0.846055 0.0104786 0)
(-0.918402 0.0111137 0)
(-0.993999 0.011813 0)
(-1.07313 0.0125744 0)
(-1.1561 0.0134084 0)
(-1.2433 0.0143247 0)
(-1.33505 0.0153344 0)
(-1.43178 0.0164432 0)
(-1.53399 0.017681 0)
(-1.64216 0.0190402 0)
(-1.75695 0.0205571 0)
(-1.87895 0.0222318 0)
(-2.00894 0.0240881 0)
(-2.14762 0.0261434 0)
(-2.29596 0.0284192 0)
(-2.45455 0.0309298 0)
(-2.62507 0.0337203 0)
(-2.80736 0.0367902 0)
(-3.00476 0.0401864 0)
(-3.21523 0.0439505 0)
(-3.44517 0.0480734 0)
(-3.68944 0.0526836 0)
(-3.95799 0.0576675 0)
(-4.24375 0.0632901 0)
(-4.5567 0.0690877 0)
(-4.89181 0.0762137 0)
(-5.26142 0.0819067 0)
(-5.64097 0.0912633 0)
(-6.0897 0.0995168 0)
(-6.54333 0.096731 0)
(-6.906 0.174431 0)
(0.000103208 3.28077e-05 0)
(0.000280009 0.000555531 0)
(-0.00158516 0.00157609 0)
(-0.0081647 0.00293429 0)
(-0.0217537 0.00456603 0)
(-0.0445383 0.00638407 0)
(-0.0779225 0.00811981 0)
(-0.121688 0.00951303 0)
(-0.174162 0.0104775 0)
(-0.233061 0.0110823 0)
(-0.296211 0.0114709 0)
(-0.361985 0.0117802 0)
(-0.429439 0.0121174 0)
(-0.498176 0.0125324 0)
(-0.568225 0.0130433 0)
(-0.639788 0.0136469 0)
(-0.713203 0.0143332 0)
(-0.788785 0.0150985 0)
(-0.866886 0.0159348 0)
(-0.947869 0.0168594 0)
(-1.03208 0.0178653 0)
(-1.11993 0.0189739 0)
(-1.21179 0.0201827 0)
(-1.30805 0.0215078 0)
(-1.40913 0.02296 0)
(-1.51544 0.0245607 0)
(-1.62747 0.026315 0)
(-1.74573 0.0282688 0)
(-1.87078 0.0304149 0)
(-2.00334 0.0328043 0)
(-2.14407 0.0354433 0)
(-2.29382 0.0383683 0)
(-2.45337 0.0416065 0)
(-2.62384 0.0451931 0)
(-2.80589 0.0491581 0)
(-3.00145 0.0535539 0)
(-3.21038 0.0584174 0)
(-3.43643 0.0637755 0)
(-3.67749 0.0697544 0)
(-3.9405 0.07629 0)
(-4.22039 0.0836124 0)
(-4.52733 0.0915857 0)
(-4.85519 0.100522 0)
(-5.21313 0.109904 0)
(-5.59868 0.121301 0)
(-6.02028 0.130936 0)
(-6.46664 0.145328 0)
(-6.96262 0.160635 0)
(-7.52049 0.160023 0)
(-7.94619 0.245264 0)
(3.9353e-05 1.40921e-05 0)
(0.000266612 0.00057756 0)
(-0.000484199 0.00177199 0)
(-0.00415307 0.00347347 0)
(-0.0129484 0.00561988 0)
(-0.0293261 0.00811472 0)
(-0.0555309 0.0106329 0)
(-0.0927158 0.0128183 0)
(-0.140578 0.0144888 0)
(-0.197721 0.0156599 0)
(-0.262194 0.0164727 0)
(-0.332021 0.0170899 0)
(-0.405577 0.0176617 0)
(-0.481708 0.0182776 0)
(-0.559792 0.0189867 0)
(-0.639584 0.0198074 0)
(-0.721166 0.0207393 0)
(-0.80476 0.0217885 0)
(-0.890729 0.0229468 0)
(-0.979501 0.0242388 0)
(-1.07152 0.025656 0)
(-1.1673 0.0272244 0)
(-1.26729 0.0289406 0)
(-1.37199 0.0308258 0)
(-1.48189 0.0328909 0)
(-1.59744 0.0351672 0)
(-1.71919 0.0376589 0)
(-1.84769 0.0404273 0)
(-1.98351 0.0434662 0)
(-2.1274 0.0468415 0)
(-2.28002 0.0505675 0)
(-2.44225 0.0546942 0)
(-2.61488 0.0592618 0)
(-2.79909 0.0643199 0)
(-2.99555 0.0699202 0)
(-3.20634 0.0761205 0)
(-3.43132 0.0830045 0)
(-3.67442 0.0905784 0)
(-3.93367 0.0990548 0)
(-4.21599 0.108332 0)
(-4.51695 0.118717 0)
(-4.84597 0.130105 0)
(-5.19869 0.142806 0)
(-5.58225 0.156337 0)
(-5.99825 0.172455 0)
(-6.44762 0.187216 0)
(-6.9382 0.206425 0)
(-7.45625 0.230743 0)
(-8.0717 0.234269 0)
(-8.56936 0.320447 0)
(2.7649e-05 -7.48873e-07 0)
(0.000179663 0.000577977 0)
(-0.000126456 0.00186468 0)
(-0.00200178 0.00378555 0)
(-0.00690521 0.00630403 0)
(-0.0168499 0.00935076 0)
(-0.0342219 0.0125907 0)
(-0.0611545 0.0156058 0)
(-0.0988577 0.0181252 0)
(-0.147431 0.0200824 0)
(-0.205966 0.021568 0)
(-0.272886 0.0227247 0)
(-0.346358 0.0237141 0)
(-0.424637 0.0246545 0)
(-0.506363 0.0256315 0)
(-0.590615 0.0266996 0)
(-0.676963 0.0278841 0)
(-0.7653 0.0292146 0)
(-0.855831 0.0306924 0)
(-0.948941 0.0323555 0)
(-1.0451 0.0341972 0)
(-1.14491 0.0362488 0)
(-1.2489 0.0385067 0)
(-1.35765 0.0409962 0)
(-1.47174 0.0437275 0)
(-1.5917 0.0467413 0)
(-1.71813 0.0500393 0)
(-1.85162 0.0536964 0)
(-1.99277 0.0577073 0)
(-2.14232 0.0621505 0)
(-2.30092 0.0670488 0)
(-2.46941 0.0724657 0)
(-2.64855 0.0784562 0)
(-2.83949 0.0850846 0)
(-3.04286 0.0924287 0)
(-3.26074 0.100553 0)
(-3.49302 0.10959 0)
(-3.74356 0.119534 0)
(-4.01069 0.130672 0)
(-4.30085 0.142897 0)
(-4.61064 0.156553 0)
(-4.94811 0.171625 0)
(-5.31105 0.188354 0)
(-5.70392 0.206445 0)
(-6.13285 0.227458 0)
(-6.59106 0.248231 0)
(-7.10123 0.272335 0)
(-7.62857 0.305662 0)
(-8.25463 0.3169 0)
(-8.81224 0.399381 0)
(3.59859e-05 -1.42295e-05 0)
(0.000141916 0.000573346 0)
(-0.000102503 0.00190861 0)
(-0.00119465 0.00395201 0)
(-0.00385887 0.0066897 0)
(-0.00924093 0.0100981 0)
(-0.0191605 0.0138822 0)
(-0.0359036 0.0176182 0)
(-0.0616244 0.0209862 0)
(-0.0978354 0.0238435 0)
(-0.145057 0.0262032 0)
(-0.202783 0.0281419 0)
(-0.269693 0.0297856 0)
(-0.34399 0.031247 0)
(-0.423878 0.0326324 0)
(-0.507815 0.0340331 0)
(-0.594758 0.0355109 0)
(-0.684095 0.0371334 0)
(-0.775678 0.0389259 0)
(-0.869685 0.0409499 0)
(-0.9665 0.0432084 0)
(-1.0667 0.0457426 0)
(-1.17088 0.0485506 0)
(-1.27967 0.051663 0)
(-1.39373 0.055089 0)
(-1.51366 0.0588778 0)
(-1.64011 0.0630288 0)
(-1.77376 0.067628 0)
(-1.91524 0.0726696 0)
(-2.0653 0.0782414 0)
(-2.22458 0.0843733 0)
(-2.39388 0.0911389 0)
(-2.57388 0.0986088 0)
(-2.76565 0.106861 0)
(-2.96973 0.116001 0)
(-3.18807 0.126102 0)
(-3.42058 0.137346 0)
(-3.67085 0.149727 0)
(-3.93758 0.163587 0)
(-4.22646 0.178853 0)
(-4.5352 0.19586 0)
(-4.87024 0.214745 0)
(-5.23152 0.235607 0)
(-5.62086 0.258478 0)
(-6.04776 0.284451 0)
(-6.5012 0.311573 0)
(-7.00865 0.341085 0)
(-7.53484 0.382402 0)
(-8.14262 0.403625 0)
(-8.728 0.481972 0)
(4.33781e-05 -2.82586e-05 0)
(0.000146268 0.000568387 0)
(-0.000104638 0.00194032 0)
(-0.00100873 0.0040525 0)
(-0.00274276 0.00690118 0)
(-0.00571344 0.0105003 0)
(-0.010907 0.0146171 0)
(-0.020076 0.0188715 0)
(-0.0354986 0.022949 0)
(-0.0594513 0.0266679 0)
(-0.0936282 0.0299719 0)
(-0.138763 0.0328508 0)
(-0.194518 0.0353555 0)
(-0.259636 0.0375505 0)
(-0.332399 0.0395292 0)
(-0.410993 0.0414019 0)
(-0.493923 0.0432631 0)
(-0.580084 0.0452248 0)
(-0.668892 0.0473473 0)
(-0.760191 0.0497275 0)
(-0.854153 0.0523889 0)
(-0.951237 0.0553901 0)
(-1.052 0.0587368 0)
(-1.15709 0.0624669 0)
(-1.26719 0.0665908 0)
(-1.38295 0.0711666 0)
(-1.5051 0.0761923 0)
(-1.63435 0.0817637 0)
(-1.77141 0.0878744 0)
(-1.91708 0.0946176 0)
(-2.07201 0.102027 0)
(-2.23699 0.110183 0)
(-2.41262 0.119167 0)
(-2.59989 0.129069 0)
(-2.79921 0.14002 0)
(-3.01231 0.152106 0)
(-3.2391 0.16555 0)
(-3.48274 0.180365 0)
(-3.74231 0.196925 0)
(-4.02254 0.215229 0)
(-4.32227 0.235562 0)
(-4.64625 0.25826 0)
(-4.99617 0.283241 0)
(-5.37202 0.310902 0)
(-5.78447 0.341867 0)
(-6.22253 0.375228 0)
(-6.71051 0.410663 0)
(-7.22283 0.458968 0)
(-7.7979 0.490713 0)
(-8.37941 0.566114 0)
(4.67752e-05 -4.36542e-05 0)
(0.000164112 0.00056309 0)
(-7.7326e-05 0.00196904 0)
(-0.000953586 0.00413446 0)
(-0.00243553 0.00704093 0)
(-0.00448983 0.0107217 0)
(-0.00740125 0.0150031 0)
(-0.0122235 0.0195693 0)
(-0.0207702 0.0241529 0)
(-0.0353496 0.0285799 0)
(-0.0582087 0.032758 0)
(-0.0909768 0.0366004 0)
(-0.134296 0.0400678 0)
(-0.187717 0.0431461 0)
(-0.250008 0.0458813 0)
(-0.319497 0.0483737 0)
(-0.394556 0.0507338 0)
(-0.473786 0.0531112 0)
(-0.55625 0.055604 0)
(-0.641453 0.0583511 0)
(-0.729292 0.0614065 0)
(-0.820035 0.0648548 0)
(-0.914132 0.0687161 0)
(-1.01217 0.0730403 0)
(-1.11482 0.0778422 0)
(-1.22275 0.0831899 0)
(-1.33669 0.0890833 0)
(-1.45742 0.095628 0)
(-1.58569 0.102819 0)
(-1.72237 0.110753 0)
(-1.86816 0.119466 0)
(-2.02388 0.129037 0)
(-2.19013 0.139557 0)
(-2.3678 0.151119 0)
(-2.55721 0.163875 0)
(-2.75984 0.177926 0)
(-2.97559 0.193525 0)
(-3.20704 0.210722 0)
(-3.45364 0.229897 0)
(-3.71908 0.251156 0)
(-4.00312 0.274711 0)
(-4.30905 0.301101 0)
(-4.63957 0.330101 0)
(-4.99393 0.362383 0)
(-5.38198 0.398287 0)
(-5.79531 0.437569 0)
(-6.25221 0.479133 0)
(-6.73734 0.53368 0)
(-7.2708 0.575452 0)
(-7.82511 0.649202 0)
(4.90108e-05 -6.03464e-05 0)
(0.000182835 0.000556662 0)
(-3.37718e-05 0.00199682 0)
(-0.000892578 0.00421333 0)
(-0.00233077 0.00716224 0)
(-0.00415495 0.0108768 0)
(-0.00629523 0.0152254 0)
(-0.00922443 0.0199548 0)
(-0.0141609 0.0248613 0)
(-0.0230551 0.029811 0)
(-0.0381154 0.0347125 0)
(-0.061328 0.03943 0)
(-0.0939558 0.0438435 0)
(-0.136244 0.0478504 0)
(-0.187552 0.0514275 0)
(-0.246588 0.05464 0)
(-0.311871 0.057593 0)
(-0.381956 0.060459 0)
(-0.455732 0.0633676 0)
(-0.532465 0.066499 0)
(-0.611815 0.0699421 0)
(-0.693842 0.0738139 0)
(-0.778855 0.0781562 0)
(-0.86734 0.0830352 0)
(-0.959928 0.088474 0)
(-1.05723 0.0945524 0)
(-1.15997 0.101275 0)
(-1.26892 0.10876 0)
(-1.38487 0.117006 0)
(-1.50872 0.126116 0)
(-1.64127 0.136127 0)
(-1.7834 0.147116 0)
(-1.93575 0.159173 0)
(-2.09915 0.172392 0)
(-2.27395 0.186933 0)
(-2.46132 0.202913 0)
(-2.6612 0.220597 0)
(-2.87556 0.24009 0)
(-3.10415 0.261756 0)
(-3.34962 0.285824 0)
(-3.61236 0.312433 0)
(-3.89455 0.342298 0)
(-4.19914 0.375128 0)
(-4.52541 0.411738 0)
(-4.88145 0.452392 0)
(-5.26184 0.497183 0)
(-5.67935 0.544751 0)
(-6.12584 0.604919 0)
(-6.61037 0.655741 0)
(-7.12127 0.728901 0)
(5.13434e-05 -7.8287e-05 0)
(0.000201918 0.000548882 0)
(1.25834e-05 0.00202324 0)
(-0.000816309 0.00429236 0)
(-0.00223367 0.00728336 0)
(-0.0040299 0.0110195 0)
(-0.00602183 0.0153973 0)
(-0.00838825 0.0202121 0)
(-0.0119225 0.0253212 0)
(-0.0181055 0.0306447 0)
(-0.0288599 0.0361155 0)
(-0.0461079 0.0415756 0)
(-0.0713175 0.0468435 0)
(-0.105113 0.0517354 0)
(-0.147289 0.056153 0)
(-0.196932 0.0601127 0)
(-0.25282 0.0636981 0)
(-0.313624 0.0670893 0)
(-0.37822 0.0704371 0)
(-0.445768 0.0739567 0)
(-0.515774 0.0777717 0)
(-0.588136 0.0820336 0)
(-0.663025 0.0868105 0)
(-0.740824 0.0921889 0)
(-0.822085 0.0982028 0)
(-0.907355 0.104945 0)
(-0.997312 0.112428 0)
(-1.09268 0.120783 0)
(-1.19422 0.130019 0)
(-1.30286 0.140247 0)
(-1.41946 0.151508 0)
(-1.54496 0.163877 0)
(-1.68009 0.17744 0)
(-1.82569 0.192286 0)
(-1.98216 0.208572 0)
(-2.15046 0.226427 0)
(-2.33059 0.246112 0)
(-2.52396 0.267791 0)
(-2.7305 0.291797 0)
(-2.95202 0.318481 0)
(-3.18916 0.347931 0)
(-3.44332 0.380982 0)
(-3.7172 0.417371 0)
(-4.01041 0.457932 0)
(-4.32909 0.503002 0)
(-4.6702 0.552813 0)
(-5.04248 0.60601 0)
(-5.44197 0.671175 0)
(-5.87175 0.72986 0)
(-6.32837 0.803226 0)
(5.33942e-05 -9.75725e-05 0)
(0.000222211 0.000539782 0)
(5.9669e-05 0.00204799 0)
(-0.000736469 0.0043711 0)
(-0.00212298 0.00740719 0)
(-0.00391152 0.0111664 0)
(-0.00592043 0.0155658 0)
(-0.00823525 0.0204392 0)
(-0.011427 0.025695 0)
(-0.0166717 0.0313055 0)
(-0.0255727 0.0372365 0)
(-0.0398377 0.0433238 0)
(-0.0608626 0.0493405 0)
(-0.0893527 0.055034 0)
(-0.125305 0.0602356 0)
(-0.168038 0.0649098 0)
(-0.216541 0.0691115 0)
(-0.269635 0.0730186 0)
(-0.32626 0.0767937 0)
(-0.385564 0.0806798 0)
(-0.446978 0.0848313 0)
(-0.510294 0.0894336 0)
(-0.575578 0.0945832 0)
(-0.643119 0.100389 0)
(-0.71339 0.106897 0)
(-0.786865 0.114215 0)
(-0.864147 0.122363 0)
(-0.945885 0.131485 0)
(-1.03278 0.141607 0)
(-1.12574 0.15285 0)
(-1.22562 0.165266 0)
(-1.3334 0.17893 0)
(-1.44991 0.193923 0)
(-1.57604 0.210329 0)
(-1.71225 0.228286 0)
(-1.85938 0.247937 0)
(-2.01751 0.269518 0)
(-2.18762 0.29325 0)
(-2.36973 0.319427 0)
(-2.565 0.348504 0)
(-2.77405 0.380546 0)
(-2.9978 0.416453 0)
(-3.23837 0.456057 0)
(-3.49571 0.500137 0)
(-3.77424 0.549174 0)
(-4.07247 0.603442 0)
(-4.39635 0.661708 0)
(-4.74415 0.731203 0)
(-5.11599 0.79649 0)
(-5.51235 0.870616 0)
(5.48389e-05 -0.000118342 0)
(0.000242906 0.000529296 0)
(0.000108208 0.00207105 0)
(-0.000656631 0.00444918 0)
(-0.00200991 0.0075331 0)
(-0.00378061 0.0113192 0)
(-0.00581574 0.0157435 0)
(-0.00819665 0.0206731 0)
(-0.0114177 0.0260601 0)
(-0.0165051 0.0319232 0)
(-0.0248626 0.0382601 0)
(-0.037994 0.0449046 0)
(-0.0571398 0.0515928 0)
(-0.082939 0.0580114 0)
(-0.115392 0.0639286 0)
(-0.153898 0.0692597 0)
(-0.197555 0.0740304 0)
(-0.245278 0.0784123 0)
(-0.296077 0.0825751 0)
(-0.349115 0.086783 0)
(-0.403795 0.091218 0)
(-0.459845 0.096097 0)
(-0.517256 0.101545 0)
(-0.576239 0.107694 0)
(-0.637196 0.114605 0)
(-0.700532 0.122396 0)
(-0.766765 0.131096 0)
(-0.836457 0.140864 0)
(-0.910223 0.15174 0)
(-0.988888 0.163863 0)
(-1.07328 0.177299 0)
(-1.16438 0.192129 0)
(-1.26307 0.208431 0)
(-1.37024 0.226283 0)
(-1.4865 0.245801 0)
(-1.61257 0.267133 0)
(-1.74864 0.290481 0)
(-1.89539 0.316109 0)
(-2.05287 0.344273 0)
(-2.22177 0.375502 0)
(-2.40256 0.409865 0)
(-2.59583 0.448273 0)
(-2.80305 0.490706 0)
(-3.02439 0.53784 0)
(-3.26289 0.590321 0)
(-3.5179 0.64843 0)
(-3.79347 0.711085 0)
(-4.08893 0.784203 0)
(-4.40314 0.85485 0)
(-4.73829 0.930068 0)
(5.58468e-05 -0.000140606 0)
(0.00026289 0.000517052 0)
(0.000157426 0.0020925 0)
(-0.000576422 0.00452663 0)
(-0.00189916 0.00766081 0)
(-0.00364924 0.0114772 0)
(-0.00569826 0.0159313 0)
(-0.00814422 0.0209224 0)
(-0.0114684 0.0264433 0)
(-0.0166445 0.0325544 0)
(-0.0249853 0.0392824 0)
(-0.037872 0.0464572 0)
(-0.0564164 0.0537787 0)
(-0.0811505 0.0608765 0)
(-0.112012 0.0674586 0)
(-0.148382 0.0733955 0)
(-0.189373 0.0786854 0)
(-0.23394 0.0834934 0)
(-0.281117 0.0879947 0)
(-0.330081 0.0924718 0)
(-0.380219 0.0971313 0)
(-0.431218 0.10222 0)
(-0.483015 0.10789 0)
(-0.535761 0.114298 0)
(-0.589792 0.121518 0)
(-0.645451 0.129679 0)
(-0.703177 0.138817 0)
(-0.763442 0.149104 0)
(-0.826763 0.160596 0)
(-0.893866 0.17345 0)
(-0.965516 0.187752 0)
(-1.04263 0.203593 0)
(-1.12611 0.221052 0)
(-1.21684 0.240204 0)
(-1.31549 0.26114 0)
(-1.42275 0.284009 0)
(-1.53888 0.30897 0)
(-1.66436 0.336318 0)
(-1.79925 0.366271 0)
(-1.94393 0.3994 0)
(-2.09866 0.435805 0)
(-2.26381 0.476362 0)
(-2.44024 0.521218 0)
(-2.62823 0.570937 0)
(-2.82972 0.626309 0)
(-3.04446 0.687624 0)
(-3.27516 0.753933 0)
(-3.52163 0.829963 0)
(-3.78233 0.904823 0)
(-4.06014 0.981287 0)
(5.66854e-05 -0.000164313 0)
(0.000281791 0.000502475 0)
(0.000206079 0.00211246 0)
(-0.000496019 0.00460354 0)
(-0.00179051 0.00779043 0)
(-0.00352222 0.0116404 0)
(-0.00558063 0.0161284 0)
(-0.00807844 0.0211874 0)
(-0.0114998 0.02685 0)
(-0.0168064 0.0332174 0)
(-0.0252809 0.0403419 0)
(-0.0382485 0.0480475 0)
(-0.0567448 0.0559951 0)
(-0.0812207 0.0637558 0)
(-0.111544 0.070979 0)
(-0.14705 0.0774911 0)
(-0.186828 0.0832656 0)
(-0.229828 0.0884615 0)
(-0.275086 0.0932598 0)
(-0.321773 0.09796 0)
(-0.369263 0.102793 0)
(-0.417213 0.108032 0)
(-0.465517 0.11386 0)
(-0.51428 0.120452 0)
(-0.563785 0.1279 0)
(-0.614317 0.136341 0)
(-0.66625 0.145817 0)
(-0.719972 0.156509 0)
(-0.775914 0.168491 0)
(-0.834694 0.181937 0)
(-0.896999 0.196954 0)
(-0.963658 0.213651 0)
(-1.03555 0.232108 0)
(-1.11352 0.252403 0)
(-1.19827 0.274599 0)
(-1.29043 0.298845 0)
(-1.39032 0.325255 0)
(-1.49829 0.354138 0)
(-1.61437 0.38568 0)
(-1.73877 0.420464 0)
(-1.87152 0.458637 0)
(-2.01286 0.50101 0)
(-2.16315 0.547896 0)
(-2.32266 0.599756 0)
(-2.49252 0.657483 0)
(-2.67264 0.721391 0)
(-2.86473 0.790635 0)
(-3.06882 0.868904 0)
(-3.2834 0.946984 0)
(-3.5117 1.02475 0)
(5.74709e-05 -0.000189447 0)
(0.000299734 0.000485316 0)
(0.000253526 0.00213093 0)
(-0.000416227 0.00467987 0)
(-0.00168355 0.00792205 0)
(-0.00339916 0.0118091 0)
(-0.00546712 0.0163349 0)
(-0.00801114 0.0214677 0)
(-0.0115186 0.0272808 0)
(-0.0169496 0.0339158 0)
(-0.0255799 0.0414505 0)
(-0.0387129 0.0497001 0)
(-0.0573447 0.0582837 0)
(-0.0818772 0.0667114 0)
(-0.112128 0.0745727 0)
(-0.147394 0.0816501 0)
(-0.186737 0.087893 0)
(-0.22909 0.093455 0)
(-0.27348 0.098524 0)
(-0.319069 0.103416 0)
(-0.365217 0.108385 0)
(-0.411557 0.113733 0)
(-0.457959 0.11967 0)
(-0.50449 0.126394 0)
(-0.551391 0.13401 0)
(-0.598904 0.142662 0)
(-0.647346 0.152399 0)
(-0.697044 0.163409 0)
(-0.748353 0.17578 0)
(-0.801806 0.189705 0)
(-0.858008 0.205314 0)
(-0.917705 0.222733 0)
(-0.981719 0.242048 0)
(-1.05083 0.263341 0)
(-1.12574 0.28665 0)
(-1.20703 0.31212 0)
(-1.29501 0.339821 0)
(-1.38995 0.370065 0)
(-1.49185 0.403009 0)
(-1.60079 0.439228 0)
(-1.71664 0.478919 0)
(-1.83953 0.522814 0)
(-1.96944 0.571376 0)
(-2.1066 0.624984 0)
(-2.25155 0.684587 0)
(-2.40424 0.750539 0)
(-2.56563 0.822068 0)
(-2.73592 0.901993 0)
(-2.91379 0.982499 0)
(-3.10283 1.06159 0)
(5.82154e-05 -0.000216047 0)
(0.00031689 0.000465528 0)
(0.000299646 0.00214791 0)
(-0.00033763 0.00475555 0)
(-0.00157845 0.00805567 0)
(-0.00327924 0.0119836 0)
(-0.00535722 0.0165512 0)
(-0.00794578 0.0217635 0)
(-0.0115343 0.0277356 0)
(-0.0170823 0.0346508 0)
(-0.0258643 0.0426114 0)
(-0.0391739 0.051423 0)
(-0.0579841 0.0606598 0)
(-0.0826672 0.0697686 0)
(-0.113009 0.0782769 0)
(-0.148282 0.0859228 0)
(-0.187527 0.0926317 0)
(-0.229669 0.0985521 0)
(-0.273724 0.103879 0)
(-0.318848 0.108946 0)
(-0.364392 0.114031 0)
(-0.409981 0.119463 0)
(-0.455465 0.125481 0)
(-0.500889 0.132302 0)
(-0.546467 0.140047 0)
(-0.592408 0.148867 0)
(-0.638989 0.158815 0)
(-0.686489 0.170083 0)
(-0.735216 0.182776 0)
(-0.785636 0.197102 0)
(-0.838297 0.213215 0)
(-0.893864 0.23126 0)
(-0.953116 0.251327 0)
(-1.01675 0.273507 0)
(-1.08544 0.297811 0)
(-1.15969 0.324378 0)
(-1.23981 0.353239 0)
(-1.32602 0.384695 0)
(-1.41823 0.418887 0)
(-1.51649 0.456353 0)
(-1.62049 0.497353 0)
(-1.73029 0.542532 0)
(-1.84566 0.592476 0)
(-1.9667 0.647509 0)
(-2.09359 0.708594 0)
(-2.22627 0.776135 0)
(-2.36517 0.849416 0)
(-2.51067 0.930544 0)
(-2.66168 1.0129 0)
(-2.82226 1.09342 0)
(5.88936e-05 -0.000244118 0)
(0.000333346 0.000443081 0)
(0.000344497 0.00216336 0)
(-0.000260438 0.00483058 0)
(-0.00147547 0.00819125 0)
(-0.00316223 0.0121641 0)
(-0.00525002 0.0167777 0)
(-0.00788187 0.0220751 0)
(-0.0115492 0.0282152 0)
(-0.0172107 0.0354234 0)
(-0.0261405 0.0438266 0)
(-0.0396245 0.0532197 0)
(-0.0586182 0.0631295 0)
(-0.0834714 0.0729373 0)
(-0.113947 0.082107 0)
(-0.149303 0.090331 0)
(-0.18857 0.0975111 0)
(-0.230668 0.103791 0)
(-0.274609 0.109373 0)
(-0.319547 0.114608 0)
(-0.364836 0.119799 0)
(-0.410095 0.125303 0)
(-0.455171 0.131386 0)
(-0.500099 0.138289 0)
(-0.545073 0.146144 0)
(-0.590281 0.155107 0)
(-0.635974 0.165238 0)
(-0.682404 0.176732 0)
(-0.729849 0.189708 0)
(-0.778733 0.204392 0)
(-0.829568 0.220958 0)
(-0.882966 0.23957 0)
(-0.939654 0.260325 0)
(-1.00027 0.283317 0)
(-1.06546 0.308538 0)
(-1.13565 0.336112 0)
(-1.21113 0.36604 0)
(-1.29203 0.398599 0)
(-1.37826 0.43392 0)
(-1.46975 0.472496 0)
(-1.56617 0.514645 0)
(-1.66748 0.560931 0)
(-1.7733 0.612032 0)
(-1.88365 0.668248 0)
(-1.99848 0.730516 0)
(-2.11771 0.799301 0)
(-2.24142 0.873938 0)
(-2.37022 0.955961 0)
(-2.50331 1.03981 0)
(-2.64523 1.12193 0)
(5.94949e-05 -0.000273666 0)
(0.000349114 0.000417895 0)
(0.000388108 0.00217725 0)
(-0.000184664 0.00490497 0)
(-0.00137465 0.00832875 0)
(-0.00304808 0.0123509 0)
(-0.0051451 0.0170149 0)
(-0.00781858 0.0224033 0)
(-0.0115628 0.0287204 0)
(-0.0173359 0.0362349 0)
(-0.0264113 0.045098 0)
(-0.0400678 0.0550927 0)
(-0.0592435 0.0656965 0)
(-0.0842685 0.0762226 0)
(-0.114886 0.0860698 0)
(-0.150343 0.0948843 0)
(-0.189664 0.102544 0)
(-0.231767 0.109187 0)
(-0.275667 0.115025 0)
(-0.32052 0.120427 0)
(-0.365686 0.125721 0)
(-0.410788 0.131292 0)
(-0.455676 0.137437 0)
(-0.500383 0.144414 0)
(-0.545091 0.152371 0)
(-0.58998 0.161469 0)
(-0.635282 0.171771 0)
(-0.681234 0.183477 0)
(-0.7281 0.19672 0)
(-0.776285 0.211743 0)
(-0.826281 0.228739 0)
(-0.87867 0.247892 0)
(-0.934145 0.269305 0)
(-0.993306 0.293073 0)
(-1.05674 0.319169 0)
(-1.12484 0.3477 0)
(-1.19784 0.378638 0)
(-1.27584 0.41223 0)
(-1.35868 0.448602 0)
(-1.44628 0.4882 0)
(-1.53823 0.531386 0)
(-1.63442 0.578661 0)
(-1.73444 0.630761 0)
(-1.8382 0.687993 0)
(-1.94552 0.751242 0)
(-2.05636 0.821033 0)
(-2.17058 0.896759 0)
(-2.28902 0.979515 0)
(-2.41116 1.06469 0)
(-2.54218 1.14868 0)
(6.00093e-05 -0.00030468 0)
(0.000364204 0.000389887 0)
(0.000430479 0.00218953 0)
(-0.000110315 0.00497878 0)
(-0.00127589 0.00846812 0)
(-0.00293669 0.0125442 0)
(-0.00504228 0.0172631 0)
(-0.00775545 0.0227485 0)
(-0.0115744 0.0292521 0)
(-0.0174569 0.0370868 0)
(-0.0266761 0.0464278 0)
(-0.0405033 0.057045 0)
(-0.0598594 0.0683643 0)
(-0.0850547 0.0796286 0)
(-0.115814 0.0901703 0)
(-0.151373 0.0995883 0)
(-0.190752 0.107737 0)
(-0.232871 0.114749 0)
(-0.276747 0.120846 0)
(-0.321541 0.126415 0)
(-0.366621 0.131812 0)
(-0.411621 0.13745 0)
(-0.456397 0.143655 0)
(-0.500983 0.150706 0)
(-0.54556 0.158764 0)
(-0.590298 0.167995 0)
(-0.635421 0.178466 0)
(-0.681157 0.190381 0)
(-0.727768 0.203889 0)
(-0.775652 0.219248 0)
(-0.825297 0.236673 0)
(-0.87727 0.256364 0)
(-0.932243 0.278429 0)
(-0.990786 0.302964 0)
(-1.05345 0.329921 0)
(-1.12059 0.359388 0)
(-1.19239 0.39131 0)
(-1.26892 0.4259 0)
(-1.34999 0.46328 0)
(-1.43547 0.503846 0)
(-1.52492 0.548001 0)
(-1.6182 0.596195 0)
(-1.71485 0.649195 0)
(-1.81475 0.707339 0)
(-1.91764 0.771442 0)
(-2.02353 0.842094 0)
(-2.13215 0.918757 0)
(-2.24463 1.0022 0)
(-2.36074 1.08871 0)
(-2.48614 1.17489 0)
(6.04395e-05 -0.000337162 0)
(0.000378617 0.000358973 0)
(0.000471585 0.00220016 0)
(-3.73996e-05 0.00505207 0)
(-0.00117908 0.00860933 0)
(-0.00282786 0.0127442 0)
(-0.0049414 0.0175229 0)
(-0.00769218 0.0231113 0)
(-0.0115833 0.0298112 0)
(-0.0175729 0.0379806 0)
(-0.0269335 0.0478181 0)
(-0.040929 0.0590794 0)
(-0.0604632 0.0711365 0)
(-0.0858264 0.0831596 0)
(-0.116724 0.0944131 0)
(-0.152385 0.104448 0)
(-0.19182 0.113095 0)
(-0.233954 0.120482 0)
(-0.277804 0.126842 0)
(-0.322541 0.132578 0)
(-0.36754 0.138079 0)
(-0.412447 0.143785 0)
(-0.457126 0.150051 0)
(-0.50162 0.157178 0)
(-0.546102 0.16534 0)
(-0.590743 0.174705 0)
(-0.635758 0.185348 0)
(-0.681372 0.197475 0)
(-0.727852 0.211252 0)
(-0.775593 0.226954 0)
(-0.825088 0.244816 0)
(-0.876901 0.265055 0)
(-0.93169 0.287783 0)
(-0.990008 0.313092 0)
(-1.05237 0.340917 0)
(-1.11911 0.371319 0)
(-1.19036 0.40422 0)
(-1.26618 0.439795 0)
(-1.34633 0.478164 0)
(-1.43065 0.519674 0)
(-1.51872 0.564759 0)
(-1.61031 0.613836 0)
(-1.705 0.667679 0)
(-1.80262 0.726674 0)
(-1.90288 0.791565 0)
(-2.00587 0.863002 0)
(-2.11127 0.940531 0)
(-2.22047 1.02472 0)
(-2.33352 1.11263 0)
(-2.4565 1.20138 0)
(6.07808e-05 -0.000371096 0)
(0.000392377 0.000325078 0)
(0.000511424 0.00220911 0)
(3.40397e-05 0.00512489 0)
(-0.00108407 0.00875247 0)
(-0.00272139 0.0129509 0)
(-0.00484223 0.0177946 0)
(-0.0076285 0.0234923 0)
(-0.0115891 0.0303986 0)
(-0.017683 0.0389176 0)
(-0.027182 0.0492712 0)
(-0.0413424 0.0611989 0)
(-0.0610512 0.0740166 0)
(-0.0865788 0.0868196 0)
(-0.117612 0.0988027 0)
(-0.153369 0.109468 0)
(-0.192858 0.118624 0)
(-0.235001 0.126391 0)
(-0.278821 0.133017 0)
(-0.323495 0.138922 0)
(-0.368409 0.144526 0)
(-0.413217 0.150301 0)
(-0.457798 0.15663 0)
(-0.502197 0.163836 0)
(-0.546588 0.172105 0)
(-0.591139 0.181609 0)
(-0.636059 0.192427 0)
(-0.681573 0.204772 0)
(-0.727952 0.218826 0)
(-0.775598 0.234881 0)
(-0.825008 0.253195 0)
(-0.87675 0.273998 0)
(-0.93147 0.297408 0)
(-0.989712 0.323508 0)
(-1.05196 0.352217 0)
(-1.11853 0.383565 0)
(-1.18952 0.417453 0)
(-1.26495 0.454015 0)
(-1.34457 0.493366 0)
(-1.42819 0.535814 0)
(-1.51538 0.581809 0)
(-1.6059 0.631753 0)
(-1.69932 0.686408 0)
(-1.79547 0.746222 0)
(-1.89403 0.81187 0)
(-1.99518 0.884059 0)
(-2.09862 0.96244 0)
(-2.20594 1.04746 0)
(-2.31747 1.13693 0)
(-2.43954 1.2286 0)
(6.10382e-05 -0.000406475 0)
(0.000405496 0.000288127 0)
(0.000549981 0.00221634 0)
(0.000103975 0.00519728 0)
(-0.000990743 0.00889763 0)
(-0.00261703 0.0131644 0)
(-0.00474459 0.0180786 0)
(-0.00756415 0.0238921 0)
(-0.0115914 0.031015 0)
(-0.0177864 0.0398993 0)
(-0.02742 0.0507891 0)
(-0.041741 0.0634063 0)
(-0.0616194 0.0770082 0)
(-0.0873064 0.0906127 0)
(-0.11847 0.103344 0)
(-0.154319 0.114654 0)
(-0.193855 0.124327 0)
(-0.236003 0.132482 0)
(-0.279787 0.139375 0)
(-0.32439 0.145451 0)
(-0.36921 0.151159 0)
(-0.413913 0.157003 0)
(-0.458387 0.163398 0)
(-0.502683 0.170686 0)
(-0.546974 0.179065 0)
(-0.591425 0.188711 0)
(-0.636244 0.199709 0)
(-0.681652 0.212278 0)
(-0.727928 0.226618 0)
(-0.77548 0.24304 0)
(-0.824814 0.261822 0)
(-0.8765 0.28321 0)
(-0.93118 0.307322 0)
(-0.989384 0.334236 0)
(-1.05158 0.363849 0)
(-1.11804 0.39616 0)
(-1.18886 0.431048 0)
(-1.26401 0.468604 0)
(-1.34324 0.508939 0)
(-1.42633 0.552326 0)
(-1.51286 0.59922 0)
(-1.60253 0.650025 0)
(-1.69497 0.705476 0)
(-1.78997 0.766091 0)
(-1.88724 0.832486 0)
(-1.98702 0.905422 0)
(-2.08906 0.98467 0)
(-2.19509 1.07065 0)
(-2.30571 1.16184 0)
(-2.42733 1.25675 0)
(6.12082e-05 -0.000443276 0)
(0.000418014 0.000248056 0)
(0.000587263 0.0022218 0)
(0.000172357 0.00526927 0)
(-0.000898985 0.0090449 0)
(-0.00251456 0.0133847 0)
(-0.00464827 0.0183754 0)
(-0.00749887 0.0243114 0)
(-0.0115896 0.0316614 0)
(-0.0178822 0.0409271 0)
(-0.0276461 0.0523739 0)
(-0.0421223 0.0657044 0)
(-0.0621642 0.0801146 0)
(-0.0880041 0.0945429 0)
(-0.119292 0.10804 0)
(-0.155226 0.120009 0)
(-0.194804 0.130211 0)
(-0.236949 0.138757 0)
(-0.28069 0.145921 0)
(-0.325214 0.152168 0)
(-0.369933 0.157981 0)
(-0.414521 0.163895 0)
(-0.458877 0.170358 0)
(-0.503059 0.17773 0)
(-0.547237 0.186223 0)
(-0.591577 0.196014 0)
(-0.636279 0.207198 0)
(-0.681568 0.219997 0)
(-0.727728 0.234632 0)
(-0.775173 0.251435 0)
(-0.824419 0.270703 0)
(-0.87604 0.292697 0)
(-0.930669 0.317536 0)
(-0.98883 0.345286 0)
(-1.05096 0.375827 0)
(-1.11732 0.409119 0)
(-1.18798 0.445021 0)
(-1.26287 0.483583 0)
(-1.34174 0.524907 0)
(-1.42432 0.569235 0)
(-1.51023 0.617023 0)
(-1.59913 0.668684 0)