/*--------------------------------*- C++ -*----------------------------------*\
  =========                 |
  \\      /  F ield         | OpenFOAM: The Open Source CFD Toolbox
   \\    /   O peration     | Website:  https://openfoam.org
    \\  /    A nd           | Version:  7
     \\/     M anipulation  |
\*---------------------------------------------------------------------------*/
FoamFile
{
    version     2.0;
    format      ascii;
    class       surfaceScalarField;
    location    "0.17";
    object      ddtCorrDdt0(phi);
}
// * * * * * * * * * * * * * * * * * * * * * * * * * * * * * * * * * * * * * //

dimensions      [0 3 -2 0 0 0 0];

internalField   nonuniform List<scalar> 
139350
(
-6.61641e-11
5.38801e-11
-2.81333e-10
1.91042e-10
-6.8659e-10
3.76713e-10
-1.28406e-09
5.73684e-10
-2.08894e-09
7.81656e-10
-3.10264e-09
9.89586e-10
-4.28621e-09
1.15826e-09
-5.58922e-09
1.27308e-09
-6.95305e-09
1.33587e-09
-8.35269e-09
1.36389e-09
-9.75695e-09
1.37598e-09
-1.11786e-08
1.38865e-09
-1.2619e-08
1.41359e-09
-1.40971e-08
1.45134e-09
-1.56306e-08
1.50312e-09
-1.72168e-08
1.56262e-09
-1.88872e-08
1.63205e-09
-2.06125e-08
1.70515e-09
-2.24357e-08
1.78463e-09
-2.43236e-08
1.87162e-09
-2.63163e-08
1.96383e-09
-2.83992e-08
2.06693e-09
-3.06039e-08
2.17863e-09
-3.29154e-08
2.29788e-09
-3.5384e-08
2.43264e-09
-3.79656e-08
2.57585e-09
-4.07405e-08
2.73483e-09
-4.36562e-08
2.91234e-09
-4.67897e-08
3.1029e-09
-5.01181e-08
3.31758e-09
-5.36971e-08
3.55073e-09
-5.75137e-08
3.80491e-09
-6.16421e-08
4.08722e-09
-6.60339e-08
4.39309e-09
-7.0803e-08
4.72433e-09
-7.58929e-08
5.09816e-09
-8.14049e-08
5.48429e-09
-8.73347e-08
5.93021e-09
-9.37337e-08
6.38709e-09
-1.00642e-07
6.90317e-09
-1.08116e-07
7.45603e-09
-1.16128e-07
8.01953e-09
-1.24862e-07
8.69934e-09
-1.34088e-07
9.26743e-09
-1.44156e-07
1.00359e-08
-1.54713e-07
1.06146e-08
-1.6593e-07
1.1199e-08
-1.78043e-07
1.21384e-08
-1.83941e-07
5.82698e-09
8.27892e-08
-2.66785e-07
-9.43567e-11
1.33334e-10
-5.96061e-10
6.66524e-10
-1.67892e-09
1.42907e-09
-3.37999e-09
2.24903e-09
-5.75166e-09
3.12804e-09
-8.80625e-09
4.01781e-09
-1.24209e-08
4.74527e-09
-1.64059e-08
5.22518e-09
-2.0577e-08
5.47653e-09
-2.48295e-08
5.57757e-09
-2.90996e-08
5.61555e-09
-3.3404e-08
5.65759e-09
-3.77663e-08
5.74683e-09
-4.22335e-08
5.88968e-09
-4.68479e-08
6.08418e-09
-5.16259e-08
6.31504e-09
-5.66134e-08
6.57772e-09
-6.17912e-08
6.86144e-09
-6.72137e-08
7.16583e-09
-7.28581e-08
7.49842e-09
-7.87782e-08
7.85317e-09
-8.49732e-08
8.24455e-09
-9.14908e-08
8.66764e-09
-9.83333e-08
9.126e-09
-1.05572e-07
9.63158e-09
-1.13183e-07
1.01811e-08
-1.21274e-07
1.07829e-08
-1.29819e-07
1.14535e-08
-1.38928e-07
1.21799e-08
-1.48612e-07
1.29896e-08
-1.58966e-07
1.38728e-08
-1.70014e-07
1.48411e-08
-1.81877e-07
1.59052e-08
-1.9455e-07
1.70683e-08
-2.08204e-07
1.83307e-08
-2.2283e-07
1.97332e-08
-2.38602e-07
2.12275e-08
-2.55568e-07
2.28958e-08
-2.73871e-07
2.46772e-08
-2.93609e-07
2.6636e-08
-3.14945e-07
2.87718e-08
-3.37929e-07
3.1014e-08
-3.6285e-07
3.35811e-08
-3.89536e-07
3.6001e-08
-4.18629e-07
3.90959e-08
-4.49269e-07
4.13156e-08
-4.82987e-07
4.48969e-08
-5.18974e-07
4.81501e-08
-5.52577e-07
3.93462e-08
1.31776e-07
-6.01621e-07
-3.8587e-11
1.54943e-10
-5.44231e-10
1.14422e-09
-1.87513e-09
2.72786e-09
-4.20497e-09
4.55159e-09
-7.65121e-09
6.54736e-09
-1.22674e-08
8.60583e-09
-1.79106e-08
1.0359e-08
-2.42873e-08
1.15666e-08
-3.10779e-08
1.22347e-08
-3.80669e-08
1.25252e-08
-4.51227e-08
1.2639e-08
-5.2236e-08
1.27335e-08
-5.94326e-08
1.29125e-08
-6.67761e-08
1.32027e-08
-7.43298e-08
1.36022e-08
-8.21291e-08
1.40873e-08
-9.02368e-08
1.46408e-08
-9.86462e-08
1.52482e-08
-1.07425e-07
1.59014e-08
-1.16562e-07
1.6617e-08
-1.26125e-07
1.73838e-08
-1.36125e-07
1.82263e-08
-1.46625e-07
1.91369e-08
-1.57641e-07
2.01271e-08
-1.69262e-07
2.12104e-08
-1.81482e-07
2.23949e-08
-1.94431e-07
2.36868e-08
-2.08105e-07
2.51232e-08
-2.22643e-07
2.66845e-08
-2.38085e-07
2.84179e-08
-2.54558e-07
3.03124e-08
-2.72121e-07
3.23924e-08
-2.90938e-07
3.46737e-08
-3.11039e-07
3.71723e-08
-3.32652e-07
3.98941e-08
-3.55804e-07
4.28946e-08
-3.80746e-07
4.61401e-08
-4.07558e-07
4.97067e-08
-4.36488e-07
5.3595e-08
-4.67667e-07
5.78091e-08
-5.01379e-07
6.24613e-08
-5.37742e-07
6.73888e-08
-5.77134e-07
7.29333e-08
-6.19501e-07
7.84178e-08
-6.65713e-07
8.52756e-08
-7.14585e-07
9.025e-08
-7.68692e-07
9.89823e-08
-8.26653e-07
1.06134e-07
-8.86693e-07
9.92929e-08
1.99318e-07
-9.54292e-07
1.5502e-11
1.20906e-10
-3.17147e-10
1.44754e-09
-1.45789e-09
3.83517e-09
-3.76142e-09
6.82658e-09
-7.48365e-09
1.02414e-08
-1.2781e-08
1.38737e-08
-1.95853e-08
1.71324e-08
-2.7601e-08
1.95452e-08
-3.64263e-08
2.1026e-08
-4.5728e-08
2.17838e-08
-5.52638e-08
2.2141e-08
-6.49436e-08
2.23745e-08
-7.47471e-08
2.26836e-08
-8.4721e-08
2.31449e-08
-9.49316e-08
2.37753e-08
-1.05426e-07
2.45534e-08
-1.16284e-07
2.54519e-08
-1.27514e-07
2.64554e-08
-1.39203e-07
2.75452e-08
-1.51354e-07
2.87478e-08
-1.64049e-07
3.00454e-08
-1.77313e-07
3.14714e-08
-1.91223e-07
3.30151e-08
-2.05808e-07
3.46968e-08
-2.21172e-07
3.65298e-08
-2.3732e-07
3.85377e-08
-2.54402e-07
4.07225e-08
-2.7243e-07
4.31464e-08
-2.91565e-07
4.57842e-08
-3.11866e-07
4.87052e-08
-3.3349e-07
5.19012e-08
-3.56521e-07
5.54119e-08
-3.81159e-07
5.92616e-08
-4.07465e-07
6.34816e-08
-4.35714e-07
6.80919e-08
-4.65965e-07
7.31549e-08
-4.98533e-07
7.86782e-08
-5.33531e-07
8.47034e-08
-5.71289e-07
9.13401e-08
-6.11983e-07
9.84975e-08
-6.55978e-07
1.06433e-07
-7.03486e-07
1.1491e-07
-7.54948e-07
1.24354e-07
-8.10427e-07
1.3395e-07
-8.70939e-07
1.45755e-07
-9.35444e-07
1.54819e-07
-1.00616e-06
1.69671e-07
-1.08382e-06
1.83816e-07
-1.16381e-06
1.79185e-07
2.89794e-07
-1.25435e-06
3.28529e-11
6.83573e-11
-1.19559e-10
1.56949e-09
-8.70502e-10
4.55162e-09
-2.65895e-09
8.5855e-09
-5.87861e-09
1.34318e-08
-1.08435e-08
1.88079e-08
-1.76622e-08
2.3919e-08
-2.61757e-08
2.80201e-08
-3.60239e-08
3.08391e-08
-4.68223e-08
3.25375e-08
-5.82189e-08
3.35026e-08
-7e-08
3.41155e-08
-8.20376e-08
3.46878e-08
-9.43041e-08
3.53786e-08
-1.06825e-07
3.62576e-08
-1.19634e-07
3.73331e-08
-1.32815e-07
3.85845e-08
-1.4639e-07
4.00065e-08
-1.60465e-07
4.15732e-08
-1.75059e-07
4.33221e-08
-1.90276e-07
4.52283e-08
-2.06157e-07
4.73325e-08
-2.22794e-07
4.96193e-08
-2.40229e-07
5.21166e-08
-2.5858e-07
5.48353e-08
-2.77864e-07
5.78154e-08
-2.98242e-07
6.10529e-08
-3.19736e-07
6.46359e-08
-3.42522e-07
6.85351e-08
-3.66674e-07
7.2842e-08
-3.92363e-07
7.7555e-08
-4.19694e-07
8.27309e-08
-4.48891e-07
8.84066e-08
-4.80036e-07
9.46303e-08
-5.1344e-07
1.01445e-07
-5.49191e-07
1.08914e-07
-5.87647e-07
1.17105e-07
-6.28958e-07
1.26013e-07
-6.73505e-07
1.35874e-07
-7.21522e-07
1.46509e-07
-7.73415e-07
1.58302e-07
-8.29496e-07
1.71005e-07
-8.90242e-07
1.85059e-07
-9.55859e-07
1.99621e-07
-1.02729e-06
2.17157e-07
-1.10427e-06
2.31863e-07
-1.18736e-06
2.52738e-07
-1.28068e-06
2.77153e-07
-1.37722e-06
2.75616e-07
3.91284e-07
-1.47877e-06
2.69505e-11
2.08161e-11
-2.3716e-11
1.58876e-09
-4.29101e-10
4.92159e-09
-1.56961e-09
9.69567e-09
-3.86732e-09
1.56995e-08
-7.74634e-09
2.26554e-08
-1.3521e-08
2.96608e-08
-2.12775e-08
3.57369e-08
-3.085e-08
4.03754e-08
-4.19426e-08
4.35842e-08
-5.41809e-08
4.5705e-08
-6.72504e-08
4.71441e-08
-8.08883e-08
4.82913e-08
-9.49377e-08
4.93945e-08
-1.09326e-07
5.06055e-08
-1.24022e-07
5.19996e-08
-1.39081e-07
5.35949e-08
-1.54521e-07
5.54208e-08
-1.70453e-07
5.74589e-08
-1.86917e-07
5.97655e-08
-2.04035e-07
6.23116e-08
-2.21868e-07
6.51449e-08
-2.40527e-07
6.82445e-08
-2.6007e-07
7.16438e-08
-2.80629e-07
7.53485e-08
-3.02234e-07
7.94138e-08
-3.25056e-07
8.38273e-08
-3.49126e-07
8.87004e-08
-3.74626e-07
9.39997e-08
-4.01635e-07
9.98367e-08
-4.30335e-07
1.06218e-07
-4.60835e-07
1.13219e-07
-4.93372e-07
1.20891e-07
-5.2804e-07
1.29302e-07
-5.65171e-07
1.38524e-07
-6.0487e-07
1.48622e-07
-6.47524e-07
1.59731e-07
-6.93316e-07
1.71804e-07
-7.42649e-07
1.85194e-07
-7.95819e-07
1.99675e-07
-8.53241e-07
2.157e-07
-9.1532e-07
2.33099e-07
-9.82536e-07
2.52232e-07
-1.05528e-06
2.72419e-07
-1.13421e-06
2.96061e-07
-1.22011e-06
3.17823e-07
-1.31193e-06
3.4453e-07
-1.41525e-06
3.80495e-07
-1.52558e-06
3.85836e-07
4.98304e-07
-1.63268e-06
1.87822e-11
-1.92793e-11
6.68551e-13
1.57467e-09
-2.05843e-10
5.09191e-09
-8.45263e-10
1.0304e-08
-2.24294e-09
1.70665e-08
-4.80603e-09
2.51862e-08
-8.96474e-09
3.37859e-08
-1.50427e-08
4.17742e-08
-2.31516e-08
4.84474e-08
-3.32244e-08
5.36102e-08
-4.501e-08
5.7454e-08
-5.8202e-08
6.02944e-08
-7.24543e-08
6.25086e-08
-8.748e-08
6.43861e-08
-1.03071e-07
6.6156e-08
-1.19086e-07
6.79836e-08
-1.35501e-07
6.99598e-08
-1.52288e-07
7.21828e-08
-1.69546e-07
7.4669e-08
-1.87312e-07
7.75109e-08
-2.05723e-07
8.06876e-08
-2.24857e-07
8.42582e-08
-2.44845e-07
8.81983e-08
-2.65763e-07
9.2546e-08
-2.87762e-07
9.73004e-08
-3.10884e-07
1.02529e-07
-3.35315e-07
1.0821e-07
-3.61094e-07
1.14473e-07
-3.88409e-07
1.21279e-07
-4.17341e-07
1.28754e-07
-4.48072e-07
1.36913e-07
-4.80709e-07
1.45844e-07
-5.15489e-07
1.55619e-07
-5.52504e-07
1.6632e-07
-5.9209e-07
1.78059e-07
-6.3436e-07
1.909e-07
-6.79709e-07
2.05052e-07
-7.28346e-07
2.20439e-07
-7.80673e-07
2.37509e-07
-8.3704e-07
2.56038e-07
-8.97851e-07
2.76486e-07
-9.63588e-07
2.98852e-07
-1.0347e-06
3.23307e-07
-1.11178e-06
3.49546e-07
-1.19518e-06
3.79433e-07
-1.28637e-06
4.09081e-07
-1.38386e-06
4.41999e-07
-1.49211e-06
4.88754e-07
-1.61126e-06
5.04868e-07
6.10316e-07
-1.72336e-06
1.67177e-11
-5.79264e-11
-8.2907e-13
1.55929e-09
-1.3137e-10
5.18555e-09
-4.96132e-10
1.06371e-08
-1.27732e-09
1.78163e-08
-2.7544e-09
2.66304e-08
-5.3313e-09
3.63284e-08
-9.44869e-09
4.58501e-08
-1.545e-08
5.4411e-08
-2.35412e-08
6.16538e-08
-3.37056e-08
6.75809e-08
-4.57796e-08
7.23259e-08
-5.94509e-08
7.61442e-08
-7.43765e-08
7.9277e-08
-9.02394e-08
8.19775e-08
-1.06774e-07
8.44869e-08
-1.23848e-07
8.69827e-08
-1.41349e-07
8.9659e-08
-1.59326e-07
9.25971e-08
-1.77788e-07
9.59517e-08
-1.96866e-07
9.97304e-08
-2.16644e-07
1.04016e-07
-2.37268e-07
1.08788e-07
-2.5883e-07
1.14092e-07
-2.81498e-07
1.19921e-07
-3.0533e-07
1.26355e-07
-3.3053e-07
1.33362e-07
-3.57148e-07
1.41086e-07
-3.85384e-07
1.49479e-07
-4.15321e-07
1.58676e-07
-4.4714e-07
1.68696e-07
-4.80942e-07
1.79633e-07
-5.16953e-07
1.91578e-07
-5.55254e-07
2.04625e-07
-5.96168e-07
2.18923e-07
-6.39804e-07
2.34545e-07
-6.86543e-07
2.51762e-07
-7.36607e-07
2.70502e-07
-7.9038e-07
2.91269e-07
-8.48251e-07
3.13905e-07
-9.10598e-07
3.38809e-07
-9.77955e-07
3.66227e-07
-1.05075e-06
3.96062e-07
-1.12966e-06
4.2851e-07
-1.21496e-06
4.64708e-07
-1.30821e-06
5.02392e-07
-1.40847e-06
5.42229e-07
-1.51805e-06
5.98348e-07
-1.64045e-06
6.27139e-07
7.25669e-07
-1.75589e-06
1.85146e-11
-9.89166e-11
-9.46596e-13
1.54517e-09
-1.16137e-10
5.26319e-09
-3.80119e-10
1.08689e-08
-8.51364e-10
1.82557e-08
-1.66041e-09
2.74059e-08
-3.08726e-09
3.77204e-08
-5.5461e-09
4.82667e-08
-9.48012e-09
5.83067e-08
-1.52948e-08
6.74201e-08
-2.32143e-08
7.54622e-08
-3.32911e-08
8.23598e-08
-4.53554e-08
8.81721e-08
-5.91142e-08
9.30007e-08
-7.42218e-08
9.70431e-08
-9.03316e-08
1.00565e-07
-1.07213e-07
1.03813e-07
-1.2466e-07
1.07079e-07
-1.42641e-07
1.1053e-07
-1.61116e-07
1.14405e-07
-1.80184e-07
1.18763e-07
-1.99918e-07
1.23729e-07
-2.20465e-07
1.293e-07
-2.41924e-07
1.35535e-07
-2.64478e-07
1.42427e-07
-2.88197e-07
1.50069e-07
-3.13303e-07
1.5842e-07
-3.3986e-07
1.67637e-07
-3.68083e-07
1.77668e-07
-3.98068e-07
1.88646e-07
-4.3e-07
2.00591e-07
-4.63974e-07
2.13595e-07
-5.00206e-07
2.27758e-07
-5.38759e-07
2.43181e-07
-5.79932e-07
2.60045e-07
-6.23817e-07
2.78437e-07
-6.70759e-07
2.98677e-07
-7.20983e-07
3.20726e-07
-7.74833e-07
3.45106e-07
-8.32715e-07
3.71784e-07
-8.94978e-07
4.01048e-07
-9.62165e-07
4.33433e-07
-1.03471e-06
4.6857e-07
-1.11327e-06
5.07121e-07
-1.19821e-06
5.49628e-07
-1.29082e-06
5.95061e-07
-1.39095e-06
6.42333e-07
-1.49918e-06
7.06583e-07
-1.62029e-06
7.4812e-07
8.41251e-07
-1.73598e-06
2.14003e-11
-1.43294e-10
3.00133e-12
1.52937e-09
-1.1073e-10
5.33877e-09
-3.53538e-10
1.1079e-08
-7.19106e-10
1.85889e-08
-1.22349e-09
2.78762e-08
-2.01097e-09
3.84724e-08
-3.38934e-09
4.96022e-08
-5.77157e-09
6.06498e-08
-9.63574e-09
7.12353e-08
-1.53623e-08
8.115e-08
-2.31981e-08
9.01521e-08
-3.3152e-08
9.80891e-08
-4.50549e-08
1.04868e-07
-5.86144e-08
1.1056e-07
-7.34744e-08
1.15394e-07
-8.93531e-08
1.1964e-07
-1.05971e-07
1.2367e-07
-1.23226e-07
1.27736e-07
-1.41012e-07
1.32169e-07
-1.59383e-07
1.37099e-07
-1.78386e-07
1.4271e-07
-1.98153e-07
1.49032e-07
-2.18781e-07
1.56147e-07
-2.40455e-07
1.64055e-07
-2.63255e-07
1.72861e-07
-2.87411e-07
1.82528e-07
-3.13004e-07
1.93223e-07
-3.40264e-07
2.04894e-07
-3.69306e-07
2.17673e-07
-4.00328e-07
2.31575e-07
-4.33429e-07
2.46684e-07
-4.68821e-07
2.63098e-07
-5.06554e-07
2.80918e-07
-5.46895e-07
3.00338e-07
-5.89915e-07
3.21465e-07
-6.3591e-07
3.44646e-07
-6.85089e-07
3.69905e-07
-7.37741e-07
3.97746e-07
-7.94262e-07
4.28303e-07
-8.5497e-07
4.61733e-07
-9.20368e-07
4.9885e-07
-9.90932e-07
5.39097e-07
-1.06719e-06
5.83435e-07
-1.1497e-06
6.32109e-07
-1.23938e-06
6.848e-07
-1.33667e-06
7.39601e-07
-1.44111e-06
8.1102e-07
-1.5575e-06
8.64378e-07
9.53794e-07
-1.67016e-06
2.44173e-11
-1.91153e-10
8.88996e-12
1.51015e-09
-1.03231e-10
5.41219e-09
-3.45956e-10
1.12884e-08
-6.94011e-10
1.89042e-08
-1.10786e-09
2.82555e-08
-1.63622e-09
3.89648e-08
-2.47224e-09
5.03947e-08
-3.94093e-09
6.20789e-08
-6.49296e-09
7.37377e-08
-1.05549e-08
8.51725e-08
-1.64845e-08
9.60377e-08
-2.44308e-08
1.05998e-07
-3.43555e-08
1.14757e-07
-4.606e-08
1.22221e-07
-5.92331e-08
1.28534e-07
-7.35944e-08
1.33949e-07
-8.88335e-08
1.38882e-07
-1.04799e-07
1.43653e-07
-1.21334e-07
1.48682e-07
-1.38447e-07
1.54176e-07
-1.56146e-07
1.60389e-07
-1.74545e-07
1.67396e-07
-1.93727e-07
1.75313e-07
-2.13873e-07
1.84154e-07
-2.3506e-07
1.94042e-07
-2.57521e-07
2.04942e-07
-2.81346e-07
2.17042e-07
-3.06778e-07
2.30292e-07
-3.3395e-07
2.44831e-07
-3.6308e-07
2.60669e-07
-3.94283e-07
2.77876e-07
-4.27777e-07
2.96542e-07
-4.63609e-07
3.16753e-07
-5.02021e-07
3.38703e-07
-5.43064e-07
3.62515e-07
-5.86979e-07
3.88535e-07
-6.33945e-07
4.16872e-07
-6.8419e-07
4.4798e-07
-7.38068e-07
4.8218e-07
-7.9587e-07
5.19512e-07
-8.58011e-07
5.61011e-07
-9.2501e-07
6.06061e-07
-9.97253e-07
6.55733e-07
-1.07541e-06
7.1024e-07
-1.16014e-06
7.69593e-07
-1.2522e-06
8.31628e-07
-1.35055e-06
9.0936e-07
-1.45947e-06
9.73166e-07
1.06038e-06
-1.56618e-06
2.76474e-11
-2.4268e-10
1.53384e-11
1.48717e-09
-9.32635e-11
5.48157e-09
-3.3675e-10
1.14983e-08
-6.9052e-10
1.92247e-08
-1.09837e-09
2.86282e-08
-1.56488e-09
3.93948e-08
-2.21105e-09
5.09967e-08
-3.27453e-09
6.31021e-08
-5.13706e-09
7.555e-08
-8.20065e-09
8.81961e-08
-1.28492e-08
1.00642e-07
-1.93007e-08
1.12412e-07
-2.76044e-08
1.23024e-07
-3.76443e-08
1.32218e-07
-4.91699e-08
1.40027e-07
-6.19318e-08
1.46658e-07
-7.56227e-08
1.52546e-07
-9.00721e-08
1.58053e-07
-1.05091e-07
1.63678e-07
-1.20652e-07
1.69702e-07
-1.36733e-07
1.76449e-07
-1.53423e-07
1.84051e-07
-1.7079e-07
1.92664e-07
-1.89002e-07
2.0232e-07
-2.08129e-07
2.13161e-07
-2.28398e-07
2.25164e-07
-2.49896e-07
2.38534e-07
-2.72874e-07
2.53236e-07
-2.97476e-07
2.69419e-07
-3.2394e-07
2.87097e-07
-3.52404e-07
3.06329e-07
-3.831e-07
3.27188e-07
-4.16087e-07
3.49743e-07
-4.51593e-07
3.74162e-07
-4.89654e-07
4.00584e-07
-5.30467e-07
4.29324e-07
-5.74172e-07
4.60578e-07
-6.20938e-07
4.94736e-07
-6.71051e-07
5.32293e-07
-7.24771e-07
5.73211e-07
-7.82405e-07
6.18665e-07
-8.44484e-07
6.68107e-07
-9.11265e-07
7.22568e-07
-9.83443e-07
7.82398e-07
-1.06152e-06
8.47722e-07
-1.14632e-06
9.16401e-07
-1.23657e-06
9.99593e-07
-1.33583e-06
1.07229e-06
1.15855e-06
-1.43414e-06
3.11542e-11
-2.9812e-10
2.22005e-11
1.46036e-09
-8.21673e-11
5.54626e-09
-3.24715e-10
1.17067e-08
-6.8529e-10
1.95517e-08
-1.10749e-09
2.90149e-08
-1.5844e-09
3.98347e-08
-2.20553e-09
5.15732e-08
-3.15704e-09
6.40127e-08
-4.76161e-09
7.71039e-08
-7.37398e-09
9.07679e-08
-1.13572e-08
1.0458e-07
-1.69375e-08
1.17954e-07
-2.41974e-08
1.30247e-07
-3.30662e-08
1.41043e-07
-4.3336e-08
1.50264e-07
-5.47896e-08
1.58059e-07
-6.71356e-08
1.64864e-07
-8.02025e-08
1.71072e-07
-9.37874e-08
1.77241e-07
-1.0784e-07
1.83719e-07
-1.22314e-07
1.90903e-07
-1.3728e-07
1.98982e-07
-1.52787e-07
2.08156e-07
-1.68992e-07
2.18478e-07
-1.85951e-07
2.30114e-07
-2.03879e-07
2.43046e-07
-2.22855e-07
2.57503e-07
-2.43122e-07
2.7347e-07
-2.6483e-07
2.91113e-07
-2.88229e-07
3.10461e-07
-3.13477e-07
3.31566e-07
-3.40824e-07
3.54486e-07
-3.7035e-07
3.79271e-07
-4.0228e-07
4.06048e-07
-4.3665e-07
4.34961e-07
-4.7362e-07
4.66272e-07
-5.13295e-07
5.00254e-07
-5.55794e-07
5.37227e-07
-6.01322e-07
5.77822e-07
-6.50106e-07
6.21976e-07
-7.02334e-07
6.70915e-07
-7.58517e-07
7.2426e-07
-8.18803e-07
7.82907e-07
-8.83843e-07
8.4742e-07
-9.54011e-07
9.17941e-07
-1.03012e-06
9.92473e-07
-1.11078e-06
1.08024e-06
-1.19888e-06
1.16024e-06
1.24647e-06
-1.28695e-06
3.48201e-11
-3.57607e-10
2.94241e-11
1.42956e-09
-7.01988e-11
5.60577e-09
-3.11386e-10
1.19134e-08
-6.77237e-10
1.98836e-08
-1.1143e-09
2.94161e-08
-1.6167e-09
4.02997e-08
-2.26761e-09
5.21789e-08
-3.23336e-09
6.49371e-08
-4.80547e-09
7.86249e-08
-7.30317e-09
9.32244e-08
-1.10583e-08
1.0829e-07
-1.62791e-08
1.23136e-07
-2.3043e-08
1.36974e-07
-3.12868e-08
1.49243e-07
-4.08189e-08
1.59763e-07
-5.14378e-08
1.68625e-07
-6.28636e-08
1.76261e-07
-7.49276e-08
1.83087e-07
-8.7421e-08
1.89711e-07
-1.00279e-07
1.96542e-07
-1.13441e-07
2.04044e-07
-1.26959e-07
2.12466e-07
-1.40868e-07
2.22049e-07
-1.55312e-07
2.32877e-07
-1.70333e-07
2.45128e-07
-1.86129e-07
2.58798e-07
-2.02766e-07
2.74133e-07
-2.20471e-07
2.91144e-07
-2.39391e-07
3.10018e-07
-2.59773e-07
3.30809e-07
-2.81791e-07
3.53574e-07
-3.05709e-07
3.78357e-07
-3.31626e-07
4.05192e-07
-3.59775e-07
4.34154e-07
-3.90196e-07
4.65389e-07
-4.23031e-07
4.99085e-07
-4.58349e-07
5.35575e-07
-4.96238e-07
5.75107e-07
-5.36818e-07
6.18406e-07
-5.80284e-07
6.65423e-07
-6.26711e-07
7.17365e-07
-6.76557e-07
7.74079e-07
-7.29883e-07
8.36286e-07
-7.87249e-07
9.0477e-07
-8.48923e-07
9.79662e-07
-9.15624e-07
1.05914e-06
-9.85998e-07
1.15059e-06
-1.06228e-06
1.23637e-06
1.32321e-06
-1.13917e-06
3.85335e-11
-4.21153e-10
3.86902e-11
1.39282e-09
-5.73471e-11
5.66133e-09
-2.9725e-10
1.21186e-08
-6.68136e-10
2.02202e-08
-1.11886e-09
2.98305e-08
-1.64637e-09
4.07895e-08
-2.33703e-09
5.2824e-08
-3.35539e-09
6.59136e-08
-4.98419e-09
8.02023e-08
-7.52737e-09
9.5726e-08
-1.12963e-08
1.12014e-07
-1.64778e-08
1.28278e-07
-2.31313e-08
1.4359e-07
-3.11819e-08
1.57249e-07
-4.04322e-08
1.68979e-07
-5.068e-08
1.7882e-07
-6.1646e-08
1.87199e-07
-7.31591e-08
1.94552e-07
-8.50057e-08
2.01535e-07
-9.71107e-08
2.08613e-07
-1.09401e-07
2.16314e-07
-1.21915e-07
2.24946e-07
-1.34677e-07
2.34796e-07
-1.47817e-07
2.45971e-07
-1.61363e-07
2.58668e-07
-1.75498e-07
2.7289e-07
-1.90268e-07
2.88897e-07
-2.05883e-07
3.06728e-07
-2.22475e-07
3.26597e-07
-2.40285e-07
3.48585e-07
-2.59486e-07
3.72766e-07
-2.8035e-07
3.99175e-07
-3.02991e-07
4.27837e-07
-3.27648e-07
4.5877e-07
-3.54367e-07
4.92115e-07
-3.83281e-07
5.2798e-07
-4.14434e-07
5.66732e-07
-4.47889e-07
6.08555e-07
-4.83696e-07
6.54218e-07
-5.22013e-07
7.03724e-07
-5.62823e-07
7.58199e-07
-6.06512e-07
8.17743e-07
-6.5307e-07
8.82898e-07
-7.02941e-07
9.54627e-07
-7.563e-07
1.03307e-06
-8.13745e-07
1.11654e-06
-8.74005e-07
1.21082e-06
-9.38805e-07
1.30102e-06
1.38885e-06
-1.00462e-06
4.22699e-11
-4.88754e-10
4.88109e-11
1.34937e-09
-4.37346e-11
5.7131e-09
-2.8231e-10
1.23221e-08
-6.58498e-10
2.0562e-08
-1.12311e-09
3.02585e-08
-1.67474e-09
4.1303e-08
-2.40459e-09
5.35079e-08
-3.48228e-09
6.6949e-08
-5.19357e-09
8.18619e-08
-7.84153e-09
9.83318e-08
-1.173e-08
1.15857e-07
-1.70329e-08
1.33542e-07
-2.37925e-08
1.50312e-07
-3.19171e-08
1.6533e-07
-4.11956e-08
1.78223e-07
-5.14146e-08
1.88987e-07
-6.22877e-08
1.98043e-07
-7.36362e-08
2.05853e-07
-8.52396e-08
2.13115e-07
-9.70133e-08
2.20353e-07
-1.08875e-07
2.28155e-07
-1.20851e-07
2.36889e-07
-1.32956e-07
2.46886e-07
-1.45307e-07
2.58279e-07
-1.57924e-07
2.71278e-07
-1.7097e-07
2.85894e-07
-1.84478e-07
3.02399e-07
-1.98635e-07
3.20855e-07
-2.13558e-07
3.41507e-07
-2.29472e-07
3.64467e-07
-2.46546e-07
3.89831e-07
-2.65046e-07
4.17631e-07
-2.85095e-07
4.47889e-07
-3.06932e-07
4.80568e-07
-3.30606e-07
5.15797e-07
-3.56247e-07
5.53603e-07
-3.83876e-07
5.94365e-07
-4.13541e-07
6.38214e-07
-4.45234e-07
6.85918e-07
-4.79079e-07
7.37554e-07
-5.14989e-07
7.94135e-07
-5.53268e-07
8.56e-07
-5.93856e-07
9.23538e-07
-6.37076e-07
9.97834e-07
-6.83019e-07
1.07905e-06
-7.32156e-07
1.16564e-06
-7.83336e-07
1.26196e-06
-8.3792e-07
1.35544e-06
1.44451e-06
-8.93757e-07
4.6047e-11
-5.60406e-10
5.9263e-11
1.29898e-09
-2.95107e-11
5.76086e-09
-2.66618e-10
1.2524e-08
-6.48212e-10
2.09089e-08
-1.1275e-09
3.0701e-08
-1.70371e-09
4.18409e-08
-2.47232e-09
5.42303e-08
-3.60981e-09
6.80437e-08
-5.40917e-09
8.36093e-08
-8.17958e-09
1.0106e-07
-1.22256e-08
1.19857e-07
-1.77159e-08
1.38993e-07
-2.46811e-08
1.57239e-07
-3.30153e-08
1.7362e-07
-4.24931e-08
1.87667e-07
-5.28879e-08
1.9933e-07
-6.3903e-08
2.0903e-07
-7.53494e-08
2.17253e-07
-8.69993e-08
2.24742e-07
-9.8759e-08
2.32079e-07
-1.10539e-07
2.39914e-07
-1.22356e-07
2.48675e-07
-1.34219e-07
2.58734e-07
-1.46234e-07
2.70252e-07
-1.58412e-07
2.83449e-07
-1.70902e-07
2.98344e-07
-1.83725e-07
3.15216e-07
-1.9705e-07
3.34152e-07
-2.10978e-07
3.55424e-07
-2.2572e-07
3.79178e-07
-2.41432e-07
4.05535e-07
-2.58372e-07
4.3453e-07
-2.76662e-07
4.66183e-07
-2.96535e-07
5.00406e-07
-3.18039e-07
5.3731e-07
-3.413e-07
5.76848e-07
-3.66316e-07
6.19388e-07
-3.93127e-07
6.6502e-07
-4.21678e-07
7.14478e-07
-4.52066e-07
7.67929e-07
-4.84152e-07
8.26249e-07
-5.18161e-07
8.8999e-07
-5.53999e-07
9.59429e-07
-5.91879e-07
1.0357e-06
-6.31819e-07
1.11903e-06
-6.74182e-07
1.20795e-06
-7.17954e-07
1.30569e-06
-7.64261e-07
1.40159e-06
1.49209e-06
-8.12022e-07
4.98805e-11
-6.36132e-10
7.0057e-11
1.24145e-09
-1.47471e-11
5.8045e-09
-2.50279e-10
1.27242e-08
-6.37185e-10
2.12611e-08
-1.13188e-09
3.11587e-08
-1.73368e-09
4.24042e-08
-2.54185e-09
5.4992e-08
-3.74008e-09
6.91989e-08
-5.62981e-09
8.54471e-08
-8.52867e-09
1.03916e-07
-1.27454e-08
1.24029e-07
-1.84475e-08
1.44655e-07
-2.56584e-08
1.64412e-07
-3.42611e-08
1.82179e-07
-4.40185e-08
1.9739e-07
-5.46915e-08
2.09951e-07
-6.59739e-08
2.20283e-07
-7.76664e-08
2.28899e-07
-8.95346e-08
2.36588e-07
-1.01478e-07
2.4399e-07
-1.134e-07
2.51818e-07
-1.25316e-07
2.60559e-07
-1.37225e-07
2.70629e-07
-1.49229e-07
2.82215e-07
-1.61331e-07
2.95546e-07
-1.73672e-07
3.10647e-07
-1.86264e-07
3.27802e-07
-1.99262e-07
3.47123e-07
-2.12757e-07
3.68909e-07
-2.26945e-07
3.93337e-07
-2.41975e-07
4.20559e-07
-2.58093e-07
4.50608e-07
-2.75412e-07
4.83506e-07
-2.94158e-07
5.19119e-07
-3.14372e-07
5.57533e-07
-3.36174e-07
5.98635e-07
-3.59541e-07
6.42763e-07
-3.84509e-07
6.89984e-07
-4.10986e-07
7.40967e-07
-4.39035e-07
7.95967e-07
-4.68495e-07
8.55737e-07
-4.99515e-07
9.20996e-07
-5.31985e-07
9.91951e-07
-5.66026e-07
1.06974e-06
-6.01601e-07
1.15464e-06
-6.38988e-07
1.24529e-06
-6.77321e-07
1.34397e-06
-7.17604e-07
1.44171e-06
1.53388e-06
-7.59583e-07
5.37733e-11
-7.15935e-10
8.12134e-11
1.17655e-09
5.5115e-13
5.84395e-09
-2.33363e-10
1.29227e-08
-6.25405e-10
2.16185e-08
-1.13607e-09
3.16323e-08
-1.76451e-09
4.2994e-08
-2.61349e-09
5.57945e-08
-3.87427e-09
7.04165e-08
-5.85717e-09
8.73781e-08
-8.88897e-09
1.06905e-07
-1.32834e-08
1.28378e-07
-1.92086e-08
1.50541e-07
-2.66822e-08
1.71848e-07
-3.55783e-08
1.91032e-07
-4.565e-08
2.07427e-07
-5.66471e-08
2.20898e-07
-6.82552e-08
2.31862e-07
-8.02658e-08
2.40865e-07
-9.24395e-08
2.4874e-07
-1.0467e-07
2.56189e-07
-1.1686e-07
2.63989e-07
-1.29019e-07
2.72687e-07
-1.41146e-07
2.82742e-07
-1.53336e-07
2.94367e-07
-1.65593e-07
3.07797e-07
-1.78047e-07
3.23065e-07
-1.90709e-07
3.40459e-07
-2.03725e-07
3.60114e-07
-2.17181e-07
3.82356e-07
-2.31265e-07
4.07394e-07
-2.46119e-07
4.35406e-07
-2.61978e-07
4.6643e-07
-2.78949e-07
5.00483e-07
-2.97249e-07
5.37388e-07
-3.16908e-07
5.77201e-07
-3.38037e-07
6.19752e-07
-3.60596e-07
6.65333e-07
-3.84609e-07
7.13995e-07
-4.09963e-07
7.66335e-07
-4.36698e-07
8.22694e-07
-4.64635e-07
8.83705e-07
-4.93862e-07
9.50212e-07
-5.24262e-07
1.0224e-06
-5.55889e-07
1.10135e-06
-5.88664e-07
1.18744e-06
-6.22816e-07
1.27939e-06
-6.57643e-07
1.37874e-06
-6.94098e-07
1.478e-06
1.57216e-06
-7.32574e-07
5.772e-11
-7.99828e-10
9.27387e-11
1.10405e-09
1.64013e-11
5.8791e-09
-2.15887e-10
1.31196e-08
-6.12862e-10
2.19808e-08
-1.13999e-09
3.21223e-08
-1.79606e-09
4.36114e-08
-2.68713e-09
5.6639e-08
-4.01253e-09
7.16985e-08
-6.09194e-09
8.94058e-08
-9.26156e-09
1.10031e-07
-1.38403e-08
1.32911e-07
-1.99967e-08
1.56658e-07
-2.77437e-08
1.79558e-07
-3.69466e-08
2.00191e-07
-4.73496e-08
2.17796e-07
-5.86922e-08
2.32191e-07
-7.06526e-08
2.43794e-07
-8.30138e-08
2.53182e-07
-9.55331e-08
2.61237e-07
-1.081e-07
2.68726e-07
-1.20617e-07
2.76488e-07
-1.33092e-07
2.85133e-07
-1.45524e-07
2.95162e-07
-1.58007e-07
3.06813e-07
-1.70543e-07
3.20327e-07
-1.83257e-07
3.35745e-07
-1.96162e-07
3.53359e-07
-2.09399e-07
3.73329e-07
-2.23055e-07
3.96003e-07
-2.37314e-07
4.21627e-07
-2.52315e-07
4.50403e-07
-2.68289e-07
4.82368e-07
-2.85336e-07
5.17536e-07
-3.03662e-07
5.55687e-07
-3.23289e-07
5.96839e-07
-3.44318e-07
6.40771e-07
-3.66694e-07
6.87721e-07
-3.90432e-07
7.37732e-07
-4.15402e-07
7.91321e-07
-4.41618e-07
8.48904e-07
-4.68901e-07
9.1102e-07
-4.97289e-07
9.78591e-07
-5.26663e-07
1.05183e-06
-5.57036e-07
1.13172e-06
-5.88305e-07
1.21874e-06
-6.20674e-07
1.3117e-06
-6.53606e-07
1.41161e-06
-6.88068e-07
1.51229e-06
1.60888e-06
-7.2498e-07
6.17142e-11
-8.87789e-10
1.04635e-10
1.02376e-09
3.28197e-11
5.9099e-09
-1.97847e-10
1.33151e-08
-5.9953e-10
2.23481e-08
-1.14357e-09
3.26294e-08
-1.82823e-09
4.42575e-08
-2.76267e-09
5.75271e-08
-4.15477e-09
7.30472e-08
-6.33412e-09
9.15337e-08
-9.64669e-09
1.13301e-07
-1.44163e-08
1.37636e-07
-2.08123e-08
1.63015e-07
-2.88421e-08
1.8755e-07
-3.83625e-08
2.09669e-07
-4.91086e-08
2.28508e-07
-6.08096e-08
2.43843e-07
-7.31368e-08
2.56093e-07
-8.58651e-08
2.65868e-07
-9.87488e-08
2.741e-07
-1.11674e-07
2.81623e-07
-1.24545e-07
2.89341e-07
-1.3737e-07
2.9793e-07
-1.50149e-07
3.07929e-07
-1.62974e-07
3.19603e-07
-1.75848e-07
3.33198e-07
-1.88896e-07
3.48761e-07
-2.0213e-07
3.66591e-07
-2.15694e-07
3.86871e-07
-2.29676e-07
4.09979e-07
-2.44263e-07
4.36191e-07
-2.59594e-07
4.65732e-07
-2.75896e-07
4.98639e-07
-2.93269e-07
5.34915e-07
-3.11909e-07
5.74302e-07
-3.31829e-07
6.16771e-07
-3.53123e-07
6.62056e-07
-3.75721e-07
7.10334e-07
-3.99629e-07
7.61641e-07
-4.24706e-07
8.16418e-07
-4.50946e-07
8.7514e-07
-4.78173e-07
9.38282e-07
-5.06386e-07
1.0068e-06
-5.35472e-07
1.08096e-06
-5.65418e-07
1.16166e-06
-5.96113e-07
1.24946e-06
-6.27761e-07
1.34328e-06
-6.59995e-07
1.44377e-06
-6.93819e-07
1.54594e-06
1.64543e-06
-7.30565e-07
6.575e-11
-9.7981e-10
1.16901e-10
9.35428e-10
4.98194e-11
5.93623e-09
-1.79223e-10
1.35092e-08
-5.85511e-10
2.27203e-08
-1.14673e-09
3.31539e-08
-1.86093e-09
4.49333e-08
-2.84003e-09
5.846e-08
-4.30086e-09
7.44647e-08
-6.58354e-09
9.37655e-08
-1.00442e-08
1.16719e-07
-1.50115e-08
1.42559e-07
-2.16552e-08
1.6962e-07
-2.99772e-08
1.95835e-07
-3.98251e-08
2.19476e-07
-5.09251e-08
2.39574e-07
-6.29954e-08
2.55866e-07
-7.57004e-08
2.6877e-07
-8.88067e-08
2.78934e-07
-1.02066e-07
2.87339e-07
-1.15363e-07
2.94892e-07
-1.28601e-07
3.02564e-07
-1.41792e-07
3.11095e-07
-1.54936e-07
3.21064e-07
-1.68126e-07
3.3276e-07
-1.81367e-07
3.46435e-07
-1.9478e-07
3.62146e-07
-2.08384e-07
3.80193e-07
-2.22323e-07
4.00791e-07
-2.36693e-07
4.24344e-07
-2.51682e-07
4.51158e-07
-2.67434e-07
4.81482e-07
-2.84176e-07
5.15352e-07
-3.02005e-07
5.52753e-07
-3.21114e-07
5.93388e-07
-3.41506e-07
6.37177e-07
-3.63268e-07
6.83812e-07
-3.86318e-07
7.33401e-07
-4.10653e-07
7.85978e-07
-4.36127e-07
8.41914e-07
-4.62713e-07
9.01725e-07
-4.90244e-07
9.65848e-07
-5.18688e-07
1.03524e-06
-5.47939e-07
1.11026e-06
-5.77977e-07
1.19169e-06
-6.08691e-07
1.28019e-06
-6.40302e-07
1.37483e-06
-6.72611e-07
1.476e-06
-7.06671e-07
1.57983e-06
1.68271e-06
-7.44142e-07
6.98236e-11
-1.07584e-09
1.29536e-10
8.38879e-10
6.74138e-11
5.95804e-09
-1.59995e-10
1.37021e-08
-5.71098e-10
2.30977e-08
-1.14942e-09
3.36958e-08
-1.89406e-09
4.564e-08
-2.91914e-09
5.94394e-08
-4.4507e-09
7.59531e-08
-6.84001e-09
9.61045e-08
-1.04537e-08
1.2029e-07
-1.56253e-08
1.47687e-07
-2.25249e-08
1.76481e-07
-3.11483e-08
2.04423e-07
-4.13339e-08
2.29621e-07
-5.27981e-08
2.51005e-07
-6.52481e-08
2.6827e-07
-7.8341e-08
2.81836e-07
-9.1835e-08
2.92389e-07
-1.0548e-07
3.00964e-07
-1.19156e-07
3.08543e-07
-1.32772e-07
3.16166e-07
-1.46338e-07
3.24636e-07
-1.59858e-07
3.34575e-07
-1.73425e-07
3.46296e-07
-1.87046e-07
3.60054e-07
-2.0084e-07
3.75914e-07
-2.14833e-07
3.94185e-07
-2.2917e-07
4.15111e-07
-2.43953e-07
4.39125e-07
-2.59379e-07
4.66565e-07
-2.75595e-07
4.97699e-07
-2.92828e-07
5.3256e-07
-3.11178e-07
5.71112e-07
-3.3083e-07
6.13021e-07
-3.51782e-07
6.58144e-07
-3.74113e-07
7.06138e-07
-3.97733e-07
7.57039e-07
-4.22627e-07
8.10877e-07
-4.48646e-07
8.67959e-07
-4.75747e-07
9.28827e-07
-5.0377e-07
9.93909e-07
-5.32664e-07
1.06414e-06
-5.62325e-07
1.13997e-06
-5.92739e-07
1.2221e-06
-6.23803e-07
1.31127e-06
-6.55762e-07
1.40672e-06
-6.88577e-07
1.50874e-06
-7.23351e-07
1.61443e-06
1.72114e-06
-7.61982e-07
7.39319e-11
-1.17586e-09
1.4254e-10
7.3388e-10
8.5621e-11
5.97519e-09
-1.40127e-10
1.38939e-08
-5.56055e-10
2.34805e-08
-1.15154e-09
3.42554e-08
-1.92746e-09
4.63784e-08
-2.99991e-09
6.04667e-08
-4.60416e-09
7.75146e-08
-7.10328e-09
9.85541e-08
-1.08749e-08
1.24019e-07
-1.62573e-08
1.53027e-07
-2.34206e-08
1.83607e-07
-3.23546e-08
2.13321e-07
-4.28877e-08
2.40115e-07
-5.47265e-08
2.62812e-07
-6.75664e-08
2.81066e-07
-8.10572e-08
2.953e-07
-9.49483e-08
3.06243e-07
-1.08987e-07
3.14985e-07
-1.23052e-07
3.22585e-07
-1.37053e-07
3.30154e-07
-1.51002e-07
3.38563e-07
-1.64907e-07
3.48473e-07
-1.78858e-07
3.6022e-07
-1.92867e-07
3.74061e-07
-2.07051e-07
3.90075e-07
-2.21442e-07
4.08577e-07
-2.36188e-07
4.29843e-07
-2.514e-07
4.54336e-07
-2.67279e-07
4.82426e-07
-2.83978e-07
5.14401e-07
-3.01728e-07
5.50287e-07
-3.20628e-07
5.90023e-07