/*--------------------------------*- C++ -*----------------------------------*\
  =========                 |
  \\      /  F ield         | OpenFOAM: The Open Source CFD Toolbox
   \\    /   O peration     | Website:  https://openfoam.org
    \\  /    A nd           | Version:  7
     \\/     M anipulation  |
\*---------------------------------------------------------------------------*/
FoamFile
{
    version     2.0;
    format      ascii;
    class       volScalarField;
    location    "0.17";
    object      nut;
}
// * * * * * * * * * * * * * * * * * * * * * * * * * * * * * * * * * * * * * //

dimensions      [0 2 -1 0 0 0 0];

internalField   nonuniform List<scalar> 
70000
(
9.96331e-12
6.88463e-14
2.55161e-16
8.52873e-17
4.86706e-17
7.98708e-17
2.82315e-17
1.32868e-17
9.05214e-18
6.63871e-18
4.8918e-18
3.66997e-18
2.81929e-18
2.21253e-18
1.7682e-18
1.43561e-18
1.18188e-18
9.8543e-19
8.31034e-19
7.08388e-19
6.09833e-19
5.29977e-19
4.64673e-19
4.11071e-19
3.66606e-19
3.2996e-19
2.99197e-19
2.74132e-19
2.52752e-19
2.36265e-19
2.2146e-19
2.1223e-19
2.02021e-19
2.00031e-19
1.93125e-19
1.99344e-19
1.9613e-19
2.09781e-19
2.20221e-19
2.22527e-19
3.0969e-19
1.88986e-19
7.42179e-19
3.27429e-20
4.51535e-18
5.17366e-19
6.99157e-17
1.14893e-16
3.29366e-15
6.05229e-13
1.04286e-10
5.98529e-12
6.43952e-14
2.14449e-14
2.89032e-16
1.70248e-17
2.53924e-17
2.13596e-17
1.24478e-17
7.43629e-18
4.8938e-18
3.42741e-18
2.49415e-18
1.86839e-18
1.43424e-18
1.12436e-18
8.97783e-19
7.28316e-19
5.99304e-19
4.99356e-19
4.2085e-19
3.58381e-19
3.08189e-19
2.67336e-19
2.34035e-19
2.0636e-19
1.83708e-19
1.64401e-19
1.48918e-19
1.34996e-19
1.24849e-19
1.14244e-19
1.08702e-19
9.98889e-20
9.88746e-20
9.10348e-20
9.40244e-20
8.96822e-20
8.99389e-20
1.09053e-19
6.97998e-20
2.32554e-19
1.6279e-20
1.41424e-18
4.76157e-19
2.47746e-17
5.97249e-17
8.18602e-16
1.44053e-14
5.86346e-14
3.19273e-10
3.39399e-12
1.90381e-13
1.98531e-14
7.59389e-16
5.7344e-17
7.14643e-18
4.1284e-18
2.10414e-18
1.04643e-18
5.82031e-19
3.5776e-19
2.33753e-19
1.59109e-19
1.11876e-19
8.08748e-20
5.99023e-20
4.52805e-20
3.48545e-20
2.72375e-20
2.15742e-20
1.72872e-20
1.40031e-20
1.14377e-20
9.44224e-21
7.83521e-21
6.59527e-21
5.55911e-21
4.819e-21
4.14395e-21
3.81432e-21
3.38924e-21
3.52799e-21
3.34524e-21
4.23737e-21
4.53397e-21
6.96472e-21
9.02624e-21
1.45689e-20
2.51958e-20
3.58348e-20
1.02312e-19
1.58225e-19
9.53554e-19
3.15351e-18
2.47237e-17
1.17768e-16
1.07316e-15
1.24753e-14
5.35813e-14
6.15471e-09
1.92514e-11
7.8124e-13
6.07625e-14
5.42871e-15
9.15635e-16
1.08155e-16
2.87597e-17
1.20043e-17
5.31164e-18
2.47395e-18
1.26598e-18
7.05962e-19
4.1863e-19
2.59541e-19
1.66595e-19
1.09942e-19
7.41431e-20
5.08122e-20
3.51971e-20
2.45117e-20
1.70612e-20
1.17881e-20
8.01728e-21
5.30768e-21
3.36561e-21
1.99649e-21
1.06353e-21
4.7222e-22
1.46849e-22
1.8302e-23
4.63138e-26
4.31563e-23
3.31773e-22
1.35439e-21
3.66177e-21
9.40595e-21
1.90201e-20
4.3123e-20
7.49208e-20
1.72755e-19
2.78629e-19
7.83465e-19
1.57888e-18
6.79355e-18
2.77342e-17
1.20883e-16
9.69816e-16
6.66115e-15
7.3048e-14
2.32612e-09
2.23083e-10
4.43614e-12
3.1981e-13
2.2756e-14
4.34087e-15
7.07722e-16
1.98407e-16
8.109e-17
3.59968e-17
1.68338e-17
8.55146e-18
4.70726e-18
2.75627e-18
1.69133e-18
1.07744e-18
7.07613e-19
4.76284e-19
3.268e-19
2.27438e-19
1.59782e-19
1.12735e-19
7.94345e-20
5.55328e-20
3.8197e-20
2.55662e-20
1.63918e-20
9.83319e-21
5.2958e-21
2.38418e-21
7.4587e-22
9.48566e-23
1.06079e-25
2.00395e-22
1.82065e-21
6.73466e-21
2.10088e-20
4.67209e-20
1.16294e-19
2.083e-19
5.05864e-19
7.96648e-19
2.17262e-18
3.68067e-18
1.27705e-17
4.07046e-17
1.12131e-16
8.75188e-16
3.12742e-15
6.78995e-14
3.01876e-09
5.28965e-09
4.33794e-11
1.93202e-12
1.06519e-13
1.76939e-14
3.17522e-15
9.24482e-16
3.7668e-16
1.68374e-16
7.94424e-17
4.04359e-17
2.2176e-17
1.29066e-17
7.86871e-18
4.9824e-18
3.25559e-18
2.18319e-18
1.49511e-18
1.04079e-18
7.3326e-19
5.20464e-19
3.70371e-19
2.62793e-19
1.84666e-19
1.27415e-19
8.53312e-20
5.45515e-20
3.24188e-20
1.71619e-20
7.3836e-21
2.12837e-21
1.83936e-22
1.03084e-23
1.41635e-21
8.74113e-21
3.54873e-20
8.89367e-20
2.43969e-19
4.5696e-19
1.16299e-18
1.84835e-18
5.0148e-18
7.98359e-18
2.40521e-17
6.41892e-17
1.12482e-16
8.34551e-16
1.26588e-15
6.09123e-14
1.07684e-09
4.7609e-09
3.70743e-09
1.8351e-11
6.60126e-13
8.98564e-14
1.48093e-14
4.02791e-15
1.55586e-15
6.77986e-16
3.1624e-16
1.59598e-16
8.67951e-17
5.01021e-17
3.03073e-17
1.90499e-17
1.23646e-17
8.24384e-18
5.61956e-18
3.89957e-18
2.74354e-18
1.94888e-18
1.39168e-18
9.9421e-19
7.06484e-19
4.95787e-19
3.40444e-19
2.25803e-19
1.41846e-19
8.19464e-20
4.10284e-20
1.6076e-20
3.52688e-21
9.87494e-23
4.61229e-22
8.58309e-21
5.00828e-20
1.46662e-19
4.45127e-19
8.81153e-19
2.33561e-18
3.80906e-18
1.0269e-17
1.62486e-17
4.381e-17
1.05365e-16
1.28538e-16
8.78527e-16
4.16514e-16
5.43034e-14
2.42662e-09
3.86559e-09
8.18748e-10
2.38684e-09
8.43488e-12
6.96231e-13
8.79258e-14
2.00131e-14
6.8713e-15
2.77671e-15
1.2313e-15
5.99021e-16
3.16819e-16
1.7894e-16
1.06355e-16
6.58775e-17
4.22293e-17
2.7857e-17
1.88188e-17
1.29626e-17
9.0679e-18
6.41661e-18
4.57417e-18
3.27037e-18
2.33309e-18
1.65035e-18
1.14848e-18
7.77809e-19
5.04657e-19
3.06622e-19
1.67036e-19
7.62939e-20
2.40127e-20
3.128e-21
4.80161e-24
6.53711e-21
6.41649e-20
2.26911e-19
7.62018e-19
1.60774e-18
4.38203e-18
7.44584e-18
1.96451e-17
3.20438e-17
7.78589e-17
1.78702e-16
1.75718e-16
1.06457e-15
1.77421e-16
4.81613e-14
3.36791e-09
4.36613e-09
5.87803e-10
2.98001e-10
5.44114e-10
1.79482e-11
9.24374e-13
1.40005e-13
3.8238e-14
1.33592e-14
5.34663e-15
2.40984e-15
1.20243e-15
6.49061e-16
3.72131e-16
2.23852e-16
1.40057e-16
9.05253e-17
6.01068e-17
4.07999e-17
2.81918e-17
1.97484e-17
1.39671e-17
9.93036e-18
7.06336e-18
4.99699e-18
3.49146e-18
2.38637e-18
1.5743e-18
9.83327e-19
5.6171e-19
2.78744e-19
1.04756e-19
2.23704e-20
3.07999e-22
3.873e-21
8.06657e-20
3.52125e-19
1.29888e-18
2.92492e-18
8.09003e-18
1.44031e-17
3.67888e-17
6.26764e-17
1.39071e-16
3.13132e-16
2.92326e-16
1.50877e-15
3.3258e-16
4.42871e-14
3.40918e-09
4.60312e-09
6.68725e-10
1.91864e-10
4.62494e-11
6.61165e-11
2.8276e-10
2.67618e-12
3.72629e-13
9.33942e-14
3.03798e-14
1.18486e-14
5.31472e-15
2.6447e-15
1.42223e-15
8.12417e-16
4.87119e-16
3.03833e-16
1.95743e-16
1.29486e-16
8.75125e-17
6.01487e-17
4.18578e-17
2.93604e-17
2.06577e-17
1.44962e-17
1.00786e-17
6.8806e-18
4.55718e-18
2.87782e-18
1.68203e-18
8.70859e-19
3.58364e-19
9.52174e-20
5.29875e-21
1.80805e-21
1.08618e-19
5.83215e-19
2.3194e-18
5.53302e-18
1.53273e-17
2.84985e-17
7.00612e-17
1.24486e-16
2.56775e-16
5.72054e-16
5.67331e-16
2.44971e-15
1.20951e-15
4.51082e-14
3.20984e-09
4.38639e-09
7.69166e-10
2.00187e-10
3.5761e-11
2.1232e-11
1.3033e-11
2.06057e-11
1.29547e-10
2.09879e-12
3.37088e-13
9.16992e-14
3.28133e-14
1.39527e-14
6.67615e-15
3.48288e-15
1.94177e-15
1.14087e-15
6.99108e-16
4.43203e-16
2.88778e-16
1.92289e-16
1.30175e-16
8.91405e-17
6.14248e-17
4.23408e-17
2.90026e-17
1.95683e-17
1.28567e-17
8.0907e-18
4.74601e-18
2.49208e-18
1.06582e-18
3.11174e-19
2.71992e-20
8.07091e-22
1.73809e-19
1.0949e-18
4.54173e-18
1.12931e-17
3.08851e-17
5.94225e-17
1.40068e-16
2.57371e-16
5.01661e-16
1.10461e-15
1.2176e-15
4.4302e-15
3.95187e-15
5.40714e-14
3.01533e-09
3.96745e-09
8.41196e-10
2.10756e-10
3.7907e-11
1.9519e-11
8.30135e-12
4.41703e-12
4.05652e-12
6.75202e-12
9.28173e-11
4.41484e-12
5.24835e-13
1.37292e-13
4.93177e-14
2.1197e-14
1.02553e-14
5.40107e-15
3.0321e-15
1.78843e-15
1.09668e-15
6.93321e-16
4.4873e-16
2.95428e-16
1.96633e-16
1.31437e-16
8.7605e-17
5.76938e-17
3.71107e-17
2.29334e-17
1.32605e-17
6.89384e-18
2.94604e-18
8.73655e-19
8.56188e-20
8.11269e-22
3.6581e-19
2.4566e-18
1.01533e-17
2.57165e-17
6.8343e-17
1.34316e-16
3.02479e-16
5.67979e-16
1.05933e-15
2.29164e-15
2.81467e-15
8.80164e-15
1.14026e-14
7.85357e-14
2.84385e-09
3.50691e-09
9.02272e-10
2.07918e-10
4.12704e-11
2.09433e-11
8.67005e-12
3.73235e-12
2.35377e-12
1.83861e-12
1.68757e-12
2.03328e-12
4.40502e-12
9.17305e-11
2.32295e-12
3.65661e-13
1.09698e-13
4.3179e-14
1.98365e-14
1.00828e-14
5.50476e-15
3.16755e-15
1.89554e-15
1.16737e-15
7.33279e-16
4.65765e-16
2.96583e-16
1.87392e-16
1.16021e-16
6.91741e-17
3.86426e-17
1.94012e-17
7.98145e-18
2.24538e-18
1.94793e-19
4.88404e-21
1.07947e-18
6.85551e-18
2.68413e-17
6.74211e-17
1.71267e-16
3.38618e-16
7.25712e-16
1.37355e-15
2.47123e-15
5.20877e-15
7.01274e-15
1.92584e-14
3.12639e-14
1.37571e-13
2.67376e-09
3.05082e-09
9.70662e-10
1.96526e-10
4.42979e-11
2.22862e-11
9.83908e-12
4.00146e-12
2.2824e-12
1.53549e-12
1.09702e-12
8.49509e-13
7.41575e-13
7.52503e-13
9.41076e-13
1.71493e-12
9.61629e-12
5.91588e-12
5.60797e-13
1.47754e-13
5.53388e-14
2.47705e-14
1.23468e-14
6.60286e-15
3.70124e-15
2.1377e-15
1.25421e-15
7.37026e-16
4.27078e-16
2.39175e-16
1.25529e-16
5.893e-17
2.23026e-17
5.47814e-18
3.07004e-19
7.78807e-20
4.54567e-18
2.45743e-17
8.69888e-17
2.10702e-16
5.03261e-16
9.83909e-16
1.99732e-15
3.75259e-15
6.53656e-15
1.3296e-14
1.918e-14
4.71106e-14
8.6826e-14
2.85403e-13
2.49521e-09
2.61535e-09
1.04985e-09
1.82193e-10
4.74639e-11
2.3068e-11
1.11368e-11
4.46792e-12
2.47046e-12
1.6056e-12
1.07904e-12
7.52062e-13
5.58828e-13
4.45046e-13
3.79466e-13
3.48245e-13
3.49097e-13
3.93584e-13
5.30428e-13
9.96571e-13
4.72653e-12
9.57243e-13
4.10959e-13
1.11502e-13
4.16175e-14
1.82235e-14
8.70371e-15
4.34406e-15
2.19407e-15
1.08701e-15
5.07093e-16
2.09932e-16
6.76089e-17
1.24539e-17
1.81359e-19
1.57742e-18
2.80737e-17
1.19497e-16
3.6627e-16
8.29185e-16
1.82744e-15
3.45939e-15
6.60093e-15
1.20901e-14
2.0352e-14
3.94969e-14
5.95291e-14
1.32409e-13
2.58253e-13
6.95044e-13
2.3088e-09
2.21453e-09
1.13451e-09
1.67529e-10
5.12253e-11
2.34182e-11
1.24668e-11
4.99036e-12
2.71709e-12
1.7613e-12
1.17457e-12
7.97243e-13
5.65659e-13
4.20989e-13
3.26339e-13
2.624e-13
2.18793e-13
1.89531e-13
1.71204e-13
1.62293e-13
1.632e-13
1.77344e-13
2.15459e-13
3.13994e-13
6.56189e-13
3.84699e-12
1.97883e-12
6.24994e-14
2.49074e-14
8.86675e-15
3.06424e-15
9.34844e-16
2.00647e-16
1.49963e-17
3.52668e-19
4.94458e-17
3.08886e-16
9.3822e-16
2.32861e-15
4.6766e-15
9.18595e-15
1.62621e-14
2.86231e-14
4.97377e-14
7.99326e-14
1.45422e-13
2.22203e-13
4.48808e-13
8.75071e-13
2.01694e-12
2.1168e-09
1.85462e-09
1.21732e-09
1.53568e-10
5.56208e-11
2.34618e-11
1.38506e-11
5.56578e-12
2.98463e-12
1.94121e-12
1.30466e-12
8.83989e-13
6.20436e-13
4.53217e-13
3.4152e-13
2.63676e-13
2.07964e-13
1.67341e-13
1.37287e-13
1.14818e-13
9.79408e-14
8.53035e-14
7.59971e-14
6.94414e-14
6.5351e-14
6.37781e-14
6.5334e-14
7.18652e-14
8.88039e-14
1.36424e-13
3.36444e-13
2.98488e-12
7.1203e-11
2.96024e-13
3.1754e-14
1.87208e-14
2.11512e-14
2.82134e-14
4.19702e-14
6.11085e-14
9.33618e-14
1.38742e-13
2.09415e-13
3.22293e-13
4.71849e-13
7.70204e-13
1.13348e-12
2.03676e-12
3.72576e-12
7.37623e-12
1.92089e-09
1.53606e-09
1.29172e-09
1.41069e-10
6.04042e-11
2.32656e-11
1.52868e-11
6.2158e-12
3.27539e-12
2.13509e-12
1.45124e-12
9.88584e-13
6.93737e-13
5.05323e-13
3.78476e-13
2.89023e-13
2.24081e-13
1.75962e-13
1.39703e-13
1.11979e-13
9.05196e-14
7.37273e-14
6.04464e-14
4.98216e-14
4.121e-14
3.41247e-14
2.81984e-14
2.316e-14
1.87976e-14
1.49765e-14
1.15687e-14
8.55678e-15
5.87862e-15
3.67512e-15
1.95823e-15
9.72784e-16
7.17569e-16
5.59011e-15
4.83606e-13
6.77812e-11
7.26664e-11
2.10973e-11
1.16709e-11
9.37027e-12
8.97095e-12
1.03289e-11
1.21249e-11
1.70238e-11
2.53008e-11
3.96896e-11
1.72329e-09
1.25871e-09
1.35201e-09
1.30914e-10
6.51721e-11
2.28977e-11
1.67371e-11
6.95804e-12
3.59683e-12
2.34446e-12
1.61254e-12
1.10671e-12
7.7862e-13
5.68002e-13
4.25768e-13
3.24804e-13
2.50878e-13
1.9562e-13
1.53626e-13
1.21265e-13
9.60485e-14
7.62161e-14
6.04867e-14
4.79044e-14
3.77471e-14
2.94704e-14
2.26676e-14
1.70468e-14
1.23909e-14
8.56728e-15
5.47161e-15
3.08325e-15
1.37438e-15
3.78411e-16
1.81496e-17
2.15382e-17
8.56258e-16
5.46574e-15
2.1996e-14
6.90214e-14
1.93474e-13
5.1317e-13
1.26139e-12
3.21452e-12
7.03716e-12
1.28716e-11
4.3674e-12
3.37923e-11
2.68496e-10
3.5709e-10
1.52677e-09
1.02227e-09
1.39331e-09
1.24029e-10
6.94033e-11
2.24561e-11
1.81386e-11
7.80524e-12
3.95497e-12
2.57157e-12
1.7898e-12
1.23918e-12
8.74751e-13
6.39666e-13
4.80721e-13
3.67411e-13
2.83923e-13
2.21115e-13
1.73094e-13
1.35885e-13
1.06758e-13
8.37793e-14
6.55336e-14
5.0959e-14
3.92483e-14
2.97915e-14
2.21315e-14
1.59406e-14
1.09731e-14
7.071e-15
4.10396e-15
2.00797e-15
7.0141e-16
1.07209e-16
1.59909e-23
1.62908e-16
1.71922e-15
7.57859e-15
2.44613e-14
6.57817e-14
1.606e-13
3.73079e-13
8.1886e-13
1.8349e-12
3.93745e-12
9.03028e-12
2.13224e-11
5.49391e-11
1.79791e-10
6.3994e-10
1.33428e-09
8.25564e-10
1.4116e-09
1.21284e-10
7.25e-11
2.20667e-11
1.94135e-11
8.76679e-12
4.35525e-12
2.81801e-12
1.98393e-12
1.38752e-12
9.83408e-13
7.20987e-13
5.43441e-13
4.16442e-13
3.22341e-13
2.51148e-13
1.96439e-13
1.53861e-13
1.20409e-13
9.395e-14
7.29153e-14
5.61205e-14
4.26588e-14
3.18429e-14
2.31558e-14
1.62266e-14
1.07745e-14
6.61122e-15
3.57537e-15
1.56136e-15
4.35503e-16
3.15409e-17
6.45039e-18
4.31883e-16
2.8933e-15
1.07007e-14
3.0868e-14
7.6805e-14
1.75013e-13
3.8149e-13
7.90303e-13
1.65037e-12
3.3424e-12
7.03715e-12
1.52813e-11
3.50588e-11
9.36433e-11
2.58871e-10
1.14879e-09
6.6628e-10
1.404e-09
1.23442e-10
7.39006e-11
2.18679e-11
2.04783e-11
9.84746e-12
4.80356e-12
3.08517e-12
2.19525e-12
1.55302e-12
1.10606e-12
8.13135e-13
6.14792e-13
4.72491e-13
3.66455e-13
2.85773e-13
2.23468e-13
1.74781e-13
1.36406e-13
1.05988e-13
8.17839e-14
6.2467e-14
4.70138e-14
3.46456e-14
2.47747e-14
1.69793e-14
1.09382e-14
6.42875e-15
3.25485e-15
1.26632e-15
2.71309e-16
4.99154e-18
4.94615e-17
9.29515e-16
4.7813e-15
1.57661e-14
4.22556e-14
1.00073e-13
2.18881e-13
4.60041e-13
9.2542e-13
1.86334e-12
3.6814e-12
7.4477e-12
1.56222e-11
3.40108e-11
8.30655e-11
2.05225e-10
9.73199e-10
5.41078e-10
1.36912e-09
1.31147e-10
7.3221e-11
2.19856e-11
2.12559e-11
1.10444e-11
5.30657e-12
3.37458e-12
2.4236e-12
1.7366e-12
1.24414e-12
9.17347e-13
6.95792e-13
5.36409e-13
4.16947e-13
3.25489e-13
2.54497e-13
1.98793e-13
1.54751e-13
1.19774e-13
9.1923e-14
6.97115e-14
5.19806e-14
3.78447e-14
2.66332e-14
1.78637e-14
1.11673e-14
6.27948e-15
2.96127e-15
1.00718e-15
1.50665e-16
5.41575e-21
1.79545e-16
1.82219e-15
7.79969e-15
2.35885e-14
5.98378e-14
1.36614e-13
2.90517e-13
5.95752e-13
1.17778e-12
2.3199e-12
4.52693e-12
8.96461e-12
1.84626e-11
3.90789e-11
9.0614e-11
2.10319e-10
8.10225e-10
4.45791e-10
1.3073e-09
1.44894e-10
7.03266e-11
2.2512e-11
2.16877e-11
1.23433e-11
5.87171e-12
3.68797e-12
2.66845e-12
1.93876e-12
1.39893e-12
1.03486e-12
7.87483e-13
6.09102e-13
4.74593e-13
3.70922e-13
2.90001e-13
2.26229e-13
1.75648e-13
1.35402e-13
1.0334e-13
7.77947e-14
5.74528e-14
4.13054e-14
2.85856e-14
1.87394e-14
1.13402e-14
6.07062e-15
2.63584e-15
7.56848e-16
6.48938e-17
3.91161e-18
4.85258e-16
3.36373e-15
1.25245e-14
3.5306e-14
8.56518e-14
1.89759e-13
3.9488e-13
7.94693e-13
1.55242e-12
3.01295e-12
5.83543e-12
1.14114e-11
2.32217e-11
4.82966e-11
1.08099e-10
2.40614e-10
6.6217e-10
3.75741e-10
1.22079e-09
1.64904e-10
6.53679e-11
2.349e-11
2.17456e-11
1.37139e-11
6.50683e-12
4.02722e-12
2.92894e-12
2.15943e-12
1.57157e-12
1.16688e-12
8.90895e-13
6.91479e-13
5.40191e-13
4.22738e-13
3.30497e-13
2.57467e-13
1.99353e-13
1.53025e-13
1.16104e-13
8.6722e-14
6.33916e-14
4.4962e-14
3.05553e-14
1.95325e-14
1.13974e-14
5.76456e-15
2.26468e-15
5.18758e-16
1.58525e-17
4.50269e-17
1.1155e-15
5.93772e-15
1.9786e-14
5.25498e-14
1.22723e-13
2.64868e-13
5.41223e-13
1.07233e-12
2.07488e-12
3.98302e-12
7.67002e-12
1.4875e-11
2.99844e-11
6.15643e-11
1.34146e-10
2.89138e-10
5.30754e-10
3.26076e-10
1.11361e-09
1.90902e-10
5.88108e-11
2.48907e-11
2.14424e-11
1.51064e-11
7.21941e-12
4.39429e-12
3.20396e-12
2.39783e-12
1.76283e-12
1.31452e-12
1.00702e-12
7.84424e-13
6.14532e-13
4.81603e-13
3.76509e-13
2.9289e-13
2.26121e-13
1.72792e-13
1.30282e-13
9.64989e-14
6.97615e-14
4.87564e-14
3.24776e-14
2.0186e-14
1.12997e-14
5.34545e-15
1.85349e-15
3.08115e-16
4.46194e-19
1.97771e-16
2.31125e-15
1.01196e-14
3.0787e-14
7.76533e-14
1.75391e-13
3.69765e-13
7.43447e-13
1.45305e-12
2.78774e-12
5.30451e-12
1.01608e-11
1.9582e-11
3.91373e-11
7.94835e-11
1.69394e-10
3.55259e-10
4.16983e-10
2.92006e-10
9.91347e-10
2.21834e-10
5.1414e-11
2.6584e-11
2.08362e-11
1.64509e-11
8.01503e-12
4.7911e-12
3.4922e-12
2.65238e-12
1.97301e-12
1.47872e-12
1.13675e-12
8.88745e-13
6.98363e-13
5.48161e-13
4.28542e-13
3.32858e-13
2.56183e-13
1.94828e-13
1.45912e-13
1.07105e-13
7.65052e-14
5.26144e-14
3.42796e-14
2.06422e-14
1.10145e-14
4.80901e-15
1.4196e-15
1.43714e-16
2.02208e-18
5.9694e-16
4.45291e-15
1.67654e-14
4.72629e-14
1.13929e-13
2.49779e-13
5.15502e-13
1.02129e-12
1.97188e-12
3.75315e-12
7.08834e-12
1.35066e-11
2.58906e-11
5.13283e-11
1.03184e-10
2.15666e-10
4.41166e-10
3.21069e-10
2.68995e-10
8.61365e-10
2.55525e-10
4.41583e-11
2.8329e-11
2.00244e-11
1.7662e-11
8.89522e-12
5.21938e-12
3.79224e-12
2.92059e-12
2.20169e-12
1.66014e-12
1.28082e-12
1.00513e-12
7.92338e-13
6.22991e-13
4.87051e-13
3.77686e-13
2.89724e-13
2.19207e-13
1.6299e-13
1.1848e-13
8.35317e-14
5.64372e-14
3.58731e-14
2.08391e-14
1.05144e-14
4.16161e-15
9.89877e-16
4.11459e-17
4.69018e-17
1.47379e-15
8.12956e-15
2.71376e-14
7.17005e-14
1.66045e-13
3.54418e-13
7.17414e-13
1.4021e-12
2.67751e-12
5.05785e-12
9.49023e-12
1.79894e-11
3.43138e-11
6.74995e-11
1.3435e-10
2.75842e-10
5.5097e-10
2.42343e-10
2.5309e-10
7.32405e-10
2.8854e-10
3.80643e-11
2.98107e-11
1.9129e-11
1.86467e-11
9.85437e-12
5.68071e-12
4.10263e-12
3.19912e-12
2.44755e-12
1.85899e-12
1.43973e-12
1.13407e-12
8.96958e-13
7.06561e-13
5.52403e-13
4.27613e-13
3.26858e-13
2.45943e-13
1.81452e-13
1.30512e-13
9.07088e-14
6.00963e-14
3.71545e-14
2.0712e-14
9.77978e-15
3.42281e-15
5.99304e-16
2.51465e-18
2.5066e-16
3.21008e-15
1.42389e-14
4.30804e-14
1.0764e-13
2.40535e-13
5.0112e-13
9.9659e-13
1.92333e-12
3.63654e-12
6.8206e-12
1.27237e-11
2.39969e-11
4.55596e-11
8.89549e-11
1.7532e-10
3.53892e-10
6.90294e-10
1.79405e-10
2.41059e-10
6.11789e-10
3.16805e-10
3.38975e-11
3.06894e-11
1.82757e-11
1.93168e-11
1.08753e-11
6.17617e-12
4.42176e-12
3.48388e-12
2.70814e-12
2.07485e-12
1.61363e-12
1.27579e-12
1.0125e-12
7.99166e-13
6.24832e-13
4.82762e-13
3.67599e-13
2.74956e-13
2.01155e-13
1.43026e-13
9.78563e-14
6.34326e-14
3.80063e-14
2.01985e-14
8.80495e-15
2.62837e-15
2.86892e-16
1.27725e-18
8.32097e-16
6.41783e-15
2.41297e-14
6.72647e-14
1.60087e-13
3.46496e-13
7.06148e-13
1.38187e-12
2.63601e-12
4.93944e-12
9.2028e-12
1.70789e-11
3.20571e-11
6.0591e-11
1.17462e-10
2.29227e-10
4.54966e-10
8.65848e-10
1.30425e-10
2.30123e-10
5.03327e-10
3.36715e-10
3.2034e-11
3.0657e-11
1.75675e-11
1.96072e-11
1.19251e-11
6.70575e-12
4.74774e-12
3.77015e-12
2.97974e-12
2.30649e-12
1.80223e-12
1.43017e-12
1.13896e-12
9.00864e-13
7.04381e-13
5.43103e-13
4.11826e-13
3.06054e-13
2.21862e-13
1.55771e-13
1.04742e-13
6.62569e-14
3.83025e-14
1.9246e-14
7.60449e-15
1.832e-15
8.61799e-17
6.02362e-17
2.17526e-15
1.20553e-14
3.98025e-14
1.03526e-13
2.36079e-13
4.96528e-13
9.91809e-13
1.91255e-12
3.6094e-12
6.70881e-12
1.2423e-11
2.29488e-11
4.28846e-11
8.071e-11
1.55387e-10
3.00175e-10
5.8541e-10
1.08471e-09
9.32996e-11
2.18083e-10
4.08566e-10
3.45926e-10
3.25782e-11
2.95487e-11
1.70596e-11
1.94926e-11
1.29541e-11
7.26758e-12
5.07825e-12
4.0529e-12
3.25733e-12
2.55164e-12
2.00462e-12
1.59666e-12
1.27593e-12
1.0114e-12
7.90848e-13
6.08402e-13
4.59249e-13
3.38904e-13
2.43226e-13
1.68417e-13
1.11078e-13
6.83545e-14
3.79176e-14
1.78214e-14
6.22064e-15
1.1037e-15
6.33741e-18
3.73169e-16
4.92351e-15
2.15935e-14
6.41902e-14
1.57329e-13
3.45448e-13
7.08012e-13
1.38859e-12
2.64204e-12
4.93733e-12
9.11046e-12
1.6777e-11
3.08651e-11
5.74455e-11
1.07669e-10
2.05869e-10
3.93407e-10
7.5259e-10
1.35298e-09
6.58251e-11
2.03678e-10
3.28095e-10
3.43581e-10
3.5488e-11
2.74364e-11
1.67465e-11
1.89937e-11
1.38972e-11
7.85672e-12
5.41048e-12
4.32709e-12
3.53475e-12
2.80686e-12
2.21922e-12
1.77424e-12
1.42261e-12
1.13017e-12
8.83737e-13
6.78188e-13
5.09385e-13
3.73016e-13
2.64779e-13
1.80545e-13
1.16531e-13
6.94953e-14
3.67392e-14
1.59239e-14
4.72917e-15
5.21419e-16
1.55072e-18
1.32234e-15
1.01177e-14
3.72522e-14
1.01547e-13
2.36401e-13
5.01858e-13
1.00481e-12
1.93802e-12
3.64275e-12
6.7467e-12
1.23685e-11
2.26645e-11
4.15463e-11
7.7043e-11
1.43811e-10
2.73009e-10
5.15392e-10
9.64229e-10
1.6735e-09
4.59248e-11
1.86546e-10
2.61646e-10
3.3021e-10
4.05543e-11
2.46063e-11
1.65629e-11
1.81739e-11
1.46797e-11
8.46317e-12
5.74091e-12
4.58785e-12
3.80495e-12
3.06743e-12
2.44364e-12
1.96132e-12
1.57771e-12
1.25613e-12
9.82208e-13
7.51717e-13
5.6153e-13
4.07728e-13
2.85923e-13
1.91657e-13
1.20726e-13
6.9449e-14
3.46849e-14
1.35977e-14
3.24155e-15
1.51325e-16
1.00829e-16
3.58678e-15
1.93958e-14
6.2331e-14
1.57985e-13
3.5159e-13
7.24193e-13
1.41956e-12
2.69652e-12
5.01263e-12
9.20893e-12
1.67855e-11
3.06252e-11
5.59625e-11
1.03428e-10
1.92243e-10
3.62042e-10
6.73639e-10
1.22694e-09
2.04274e-09
3.17775e-11
1.67034e-10
2.08143e-10
3.07504e-10
4.72998e-11
2.1468e-11
1.63961e-11
1.71261e-11
1.52265e-11
9.06951e-12
6.0652e-12
4.83052e-12
4.06043e-12
3.32732e-12
2.67452e-12
2.15573e-12
1.73946e-12
1.3878e-12
1.08504e-12
8.2794e-13
6.14744e-13
4.422e-13
3.0594e-13
2.01185e-13
1.23268e-13
6.80068e-14
3.17233e-14
1.09449e-14
1.89905e-15
9.54032e-18
6.59098e-16
8.31033e-15
3.52782e-14
1.01671e-13
2.42202e-13
5.18031e-13
1.03843e-12
1.99673e-12
3.7405e-12
6.88394e-12
1.25552e-11
2.27694e-11
4.13876e-11
7.54197e-11
1.38937e-10
2.57019e-10
4.79401e-10
8.76013e-10
1.54363e-09
2.44751e-09
2.18734e-11
1.46022e-10
1.65914e-10
2.77959e-10
5.49351e-11
1.84545e-11
1.61084e-11
1.59542e-11
1.54749e-11
9.64899e-12
6.37785e-12
5.05065e-12
4.2937e-12
3.57938e-12
2.90749e-12
2.35463e-12
1.90557e-12
1.52323e-12
1.19062e-12
9.05494e-13
6.67847e-13
4.75419e-13
3.24003e-13
2.0851e-13
1.23768e-13
6.50087e-14
2.78955e-14
8.13318e-15
8.52681e-16
4.38735e-18
2.38651e-15
1.73466e-14
6.15692e-14
1.6229e-13
3.66484e-13
7.56714e-13
1.48015e-12
2.79671e-12
5.17323e-12
9.435e-12
1.7097e-11
3.08704e-11
5.59322e-11
1.01669e-10
1.86659e-10
3.43293e-10
6.32498e-10
1.12913e-09
1.90993e-09
2.86354e-09
1.50146e-11
1.2473e-10
1.32996e-10
2.44408e-10
6.2423e-11
1.5933e-11
1.55753e-11
1.47511e-11
1.5388e-11
1.01653e-11
6.67187e-12
5.24389e-12
4.49775e-12
3.81558e-12
3.13715e-12
2.55454e-12
2.07326e-12
1.66003e-12
1.29693e-12
9.82702e-13
7.19428e-13
5.06217e-13
3.39201e-13
2.12999e-13
1.21876e-13
6.03756e-14
2.33372e-14
5.39382e-15
2.20227e-16
2.16053e-16
6.54296e-15
3.36105e-14
1.03919e-13
2.54258e-13
5.48057e-13
1.0966e-12
2.0979e-12
3.90133e-12
7.13404e-12
1.29059e-11
2.32536e-11
4.18286e-11
7.55755e-11
1.37038e-10
2.50598e-10
4.57346e-10
8.28933e-10
1.43559e-09
2.31065e-09
3.25798e-09
1.02963e-11
1.04288e-10
1.0744e-10
2.09663e-10
6.865e-11
1.41375e-11
1.47284e-11
1.3583e-11
1.49625e-11
1.05745e-11
6.93839e-12
5.40595e-12
4.66655e-12
4.02759e-12
3.35717e-12
2.75132e-12
2.23933e-12
1.79541e-12
1.40159e-12
1.0576e-12
7.67881e-13
5.33313e-13
3.50582e-13
2.14044e-13
1.17326e-13
5.41442e-14
1.82943e-14
3.00236e-15
7.89607e-18
1.34564e-15
1.52422e-14
6.15767e-14
1.70606e-13
3.91896e-13
8.10919e-13
1.57745e-12
2.9577e-12
5.4212e-12
9.81065e-12
1.76198e-11
3.15891e-11
5.66379e-11
1.02075e-10
1.84589e-10
3.35805e-10
6.0631e-10
1.07477e-09
1.79016e-09
2.71873e-09
3.59669e-09
7.06712e-12
8.53988e-11
8.74869e-11
1.76129e-10
7.2685e-11
1.31347e-11
1.35734e-11
1.24797e-11
1.42297e-11
1.08299e-11
7.16561e-12
5.53241e-12
4.79515e-12
4.20725e-12
3.56045e-12
2.94015e-12
2.40015e-12
1.92628e-12
1.50194e-12
1.12798e-12
8.1144e-13
5.55355e-13
3.57205e-13
2.11117e-13
1.09981e-13
4.64995e-14
1.31261e-14
1.2306e-15
2.03555e-17
4.76399e-15
3.18905e-14
1.07981e-13
2.7361e-13
5.95407e-13
1.18833e-12
2.2537e-12
4.14913e-12
7.50556e-12
1.34557e-11
2.40109e-11
4.28603e-11
7.66282e-11
1.37759e-10
2.48263e-10
4.48352e-10
7.9728e-10
1.37159e-09
2.17634e-09
3.09907e-09
3.85357e-09
4.86191e-12
6.85068e-11
7.16662e-11
1.4538e-10
7.39887e-11
1.28501e-11
1.21857e-11
1.14354e-11
1.32489e-11
1.08892e-11
7.33821e-12
5.61853e-12
4.87969e-12
4.3472e-12
3.73939e-12
3.11568e-12
2.55179e-12
2.04927e-12
1.59507e-12
1.19146e-12
8.48246e-13
5.70982e-13
3.58203e-13
2.0383e-13
9.98843e-14
3.78002e-14
8.28731e-15
2.55179e-16
5.49181e-16
1.28706e-14
6.18126e-14
1.82796e-13
4.301e-13
8.93101e-13
1.72615e-12
3.19958e-12
5.79349e-12
1.03556e-11
1.84087e-11
3.26621e-11
5.80811e-11
1.03568e-10
1.85664e-10
3.32974e-10
5.94969e-10
1.03548e-09
1.71275e-09
2.56586e-09
3.41745e-09
4.01702e-09
3.35316e-12
5.39272e-11
5.88495e-11
1.18189e-10
7.24705e-11
1.31181e-11
1.06892e-11
1.04218e-11
1.20948e-11
1.07228e-11
7.43749e-12
5.65919e-12
4.91728e-12
4.44137e-12
3.88639e-12
3.27206e-12
2.69001e-12
2.16089e-12
1.67795e-12
1.24556e-12
8.76417e-13
5.78906e-13
3.52856e-13
1.91998e-13
8.73025e-14
2.8588e-14
4.27482e-15
1.90809e-18
3.02578e-15
2.96414e-14
1.13134e-13
3.00592e-13
6.64465e-13
1.32442e-12
2.48742e-12
4.5161e-12
8.05467e-12
1.4242e-11
2.51256e-11
4.43543e-11
7.86026e-11
1.39784e-10
2.49664e-10
4.44526e-10
7.82046e-10
1.32126e-09
2.08029e-09
2.92352e-09
3.6504e-09
4.09043e-09
2.31751e-12
4.17599e-11
4.8238e-11
9.48253e-11
6.84397e-11
1.3714e-11
9.21794e-12
9.4069e-12
1.08434e-11
1.03199e-11
7.44252e-12
5.64887e-12
4.90584e-12
4.48531e-12
3.99429e-12
3.40317e-12
2.81037e-12
2.2576e-12
1.74757e-12
1.28782e-12
8.94144e-13
5.77988e-13
3.40668e-13
1.75706e-13
7.27622e-14
1.95706e-14
1.52171e-15
1.02106e-16
1.01248e-14
6.14118e-14
1.98018e-13
4.82405e-13
1.01109e-12
1.94406e-12
3.55843e-12
6.34035e-12
1.11538e-11
1.95288e-11
3.42175e-11
6.01293e-11
1.06211e-10
1.88287e-10
3.34511e-10
5.89149e-10
1.01367e-09
1.64655e-09
2.44536e-09
3.21688e-09
3.79061e-09
4.08753e-09
1.6041e-12
3.18943e-11
3.93052e-11
7.52168e-11
6.24797e-11
1.43821e-11
7.87947e-12
8.36942e-12
9.56022e-12
9.69217e-12
7.33272e-12
5.58151e-12
4.84389e-12
4.47635e-12
4.05699e-12
3.50294e-12
2.9084e-12
2.33594e-12
1.801e-12
1.3159e-12
8.99802e-13
5.6734e-13
3.21453e-13
1.55364e-13
5.70659e-14
1.15626e-14
2.14387e-16
1.50694e-15
2.64234e-14
1.17984e-13
3.34382e-13
7.58319e-13
1.51816e-12
2.82748e-12
5.05704e-12
8.85803e-12
1.53889e-11
2.6704e-11
4.65006e-11
8.13692e-11
1.43239e-10
2.52865e-10
4.45681e-10
7.72383e-10
1.28868e-09
1.99234e-09
2.77404e-09
3.42578e-09
3.8454e-09
4.02617e-09
1.11096e-12
2.40845e-11
3.17224e-11
5.90626e-11
5.52867e-11
1.48756e-11
6.73566e-12
7.30702e-12
8.29416e-12
8.87178e-12
7.09162e-12
5.45077e-12
4.73051e-12
4.41355e-12
4.06987e-12
3.56569e-12
2.97964e-12
2.39261e-12
1.83563e-12
1.32776e-12
8.92064e-13
5.46425e-13
2.95412e-13
1.31755e-13
4.12732e-14
5.36285e-15
7.09284e-20
7.10032e-15
5.9365e-14
2.14175e-13
5.48278e-13
1.17099e-12
2.2528e-12
4.07852e-12
7.1437e-12
1.23202e-11
2.11603e-11
3.64205e-11
6.30591e-11
1.09887e-10
1.92666e-10
3.38071e-10
5.88796e-10
9.97033e-10
1.59735e-09
2.33005e-09
3.03721e-09
3.54636e-09
3.83073e-09
3.9234e-09
7.69148e-13
1.80212e-11
2.52894e-11
4.59387e-11
4.75357e-11
1.49993e-11
5.79975e-12
6.23755e-12
7.0766e-12
7.90685e-12
6.71093e-12
5.25056e-12
4.5653e-12
4.29751e-12
4.03022e-12
3.58657e-12
3.01998e-12
2.42464e-12
1.84918e-12
1.32175e-12
8.70027e-13
5.15155e-13
2.63199e-13
1.0605e-13
2.66331e-14
1.5421e-15
4.60256e-16
2.20193e-14
1.20621e-13
3.7198e-13
8.7717e-13
1.7805e-12
3.30812e-12
5.83945e-12
1.00364e-11
1.70652e-11
2.90045e-11
4.95472e-11
8.53214e-11
1.48026e-10
2.58175e-10
4.48975e-10
7.6838e-10
1.2603e-09
1.91981e-09
2.62805e-09
3.21889e-09
3.58813e-09
3.7648e-09
3.79287e-09
5.31823e-13
1.33866e-11
1.98749e-11
3.53848e-11
3.97975e-11
1.46407e-11
5.04685e-12
5.19333e-12
5.92576e-12
6.85353e-12
6.19387e-12
4.97603e-12
4.34848e-12
4.13014e-12
3.93736e-12
3.56199e-12
3.02579e-12
2.42945e-12
1.83994e-12
1.29679e-12
8.33339e-13
4.73984e-13
2.25973e-13
7.97823e-14
1.44404e-14
1.03156e-16
4.148e-15
5.48044e-14
2.27992e-13
6.23542e-13
1.37442e-12
2.67089e-12
4.81261e-12
8.30461e-12
1.40301e-11
2.35478e-11
3.96369e-11
6.72315e-11
1.15143e-10
1.98727e-10
3.44069e-10
5.90468e-10
9.85765e-10
1.55096e-09
2.22829e-09
2.86108e-09
3.31854e-09
3.5675e-09
3.66365e-09
3.64397e-09
3.6696e-13
9.88742e-12
1.53774e-11
2.69643e-11
3.2495e-11
1.37819e-11
4.42937e-12
4.21059e-12
4.8526e-12
5.76836e-12
5.55663e-12
4.62519e-12
4.08115e-12
3.9145e-12
3.79266e-12
3.49004e-12
2.9943e-12
2.40506e-12
1.80676e-12
1.25245e-12
7.823e-13
4.23983e-13
1.85408e-13
5.47701e-14
5.79108e-15
3.18692e-17
1.66326e-14
1.19017e-13
4.08031e-13
1.01524e-12
2.11538e-12
3.95906e-12
6.94293e-12
1.17384e-11
1.95228e-11
3.2376e-11
5.40046e-11
9.09701e-11
1.54883e-10
2.65536e-10
4.54907e-10
7.65892e-10
1.23639e-09
1.84865e-09
2.49416e-09
3.01711e-09
3.34711e-09
3.50175e-09
3.53936e-09
3.48201e-09
2.52518e-13
7.27035e-12
1.17051e-11
2.02932e-11
2.58951e-11
1.24888e-11
3.89284e-12
3.3189e-12
3.86584e-12
4.70231e-12
4.82753e-12
4.20057e-12
3.76561e-12
3.65463e-12
3.59938e-12
3.37069e-12
2.92388e-12
2.35023e-12
1.74926e-12
1.18907e-12
7.17954e-13
3.66883e-13
1.4366e-13
3.29435e-14
1.19635e-15
1.76723e-15
4.73974e-14
2.35473e-13
6.9964e-13
1.61322e-12
3.20567e-12
5.80669e-12
9.94064e-12
1.6499e-11
2.70481e-11
4.43564e-11
7.33463e-11
1.22678e-10
2.07431e-10
3.52422e-10
5.94676e-10
9.74944e-10
1.50763e-09
2.12702e-09
2.69642e-09
3.09815e-09
3.32058e-09
3.40534e-09
3.39964e-09
3.30847e-09
1.73243e-13
5.32558e-12
8.76668e-12
1.50491e-11
2.01354e-11
1.08832e-11
3.39031e-12
2.5368e-12
2.97524e-12
3.69756e-12
4.04406e-12
3.71088e-12
3.40595e-12
3.35561e-12
3.36242e-12
3.20597e-12
2.81434e-12
2.26468e-12
1.66785e-12
1.10781e-12
6.42141e-13
3.05073e-13
1.03262e-13
1.60674e-14
1.15852e-17
1.08848e-14
1.11668e-13
4.35286e-13
1.15893e-12
2.51088e-12
4.79219e-12
8.43599e-12
1.41343e-11
2.30683e-11
3.73159e-11
6.05469e-11
9.92538e-11
1.64731e-10
2.7614e-10
4.6329e-10
7.65318e-10
1.21128e-09
1.77899e-09
2.36086e-09
2.82692e-09
3.11564e-09
3.25465e-09
3.28862e-09
3.24824e-09
3.121e-09
1.185e-13
3.8868e-12
6.46302e-12
1.09673e-11
1.52601e-11
9.11128e-12
2.89165e-12
1.87188e-12
2.19204e-12
2.78674e-12
3.24855e-12
3.17183e-12
3.00874e-12
3.02367e-12
3.08808e-12
2.99994e-12
2.66715e-12
2.14921e-12