/*--------------------------------*- C++ -*----------------------------------*\
  =========                 |
  \\      /  F ield         | OpenFOAM: The Open Source CFD Toolbox
   \\    /   O peration     | Website:  https://openfoam.org
    \\  /    A nd           | Version:  7
     \\/     M anipulation  |
\*---------------------------------------------------------------------------*/
FoamFile
{
    version     2.0;
    format      ascii;
    class       volScalarField;
    location    "0.17";
    object      p;
}
// * * * * * * * * * * * * * * * * * * * * * * * * * * * * * * * * * * * * * //

dimensions      [0 2 -2 0 0 0 0];

internalField   nonuniform List<scalar> 
70000
(
0.139745
0.0623017
0.0498031
0.0522791
0.0524891
0.0514823
0.0506036
0.0499647
0.0494556
0.0490284
0.04867
0.0483724
0.0481281
0.0479306
0.0477747
0.0476562
0.0475718
0.0475188
0.0474954
0.0474996
0.0475305
0.0475869
0.0476682
0.047774
0.0479041
0.0480585
0.0482374
0.0484411
0.0486703
0.0489256
0.049208
0.0495186
0.0498589
0.0502303
0.0506347
0.051074
0.051551
0.0520679
0.0526282
0.0532352
0.0538922
0.0546063
0.0553759
0.0562215
0.0571191
0.0581366
0.0591655
0.0604375
0.0615425
0.0632862
0.135377
0.0626685
0.0500062
0.0523748
0.0525437
0.0515185
0.0506318
0.0499881
0.0494752
0.0490452
0.0486846
0.0483853
0.0481396
0.047941
0.0477842
0.0476648
0.0475798
0.0475263
0.0475023
0.0475061
0.0475366
0.0475926
0.0476736
0.0477792
0.047909
0.0480632
0.0482419
0.0484454
0.0486744
0.0489296
0.0492119
0.0495224
0.0498626
0.0502339
0.0506382
0.0510775
0.0515545
0.0520713
0.0526316
0.0532386
0.0538956
0.0546098
0.0553795
0.0562253
0.057123
0.0581408
0.0591699
0.0604416
0.0615509
0.0633198
0.131797
0.0636082
0.0503463
0.0525038
0.052618
0.0515632
0.0506642
0.0500143
0.049497
0.0490636
0.0487005
0.0483993
0.0481521
0.0479522
0.0477943
0.0476741
0.0475883
0.0475341
0.0475096
0.0475129
0.0475429
0.0475986
0.0476793
0.0477845
0.0479141
0.048068
0.0482465
0.0484498
0.0486786
0.0489336
0.0492157
0.0495261
0.0498662
0.0502373
0.0506416
0.0510807
0.0515576
0.0520743
0.0526345
0.0532415
0.0538985
0.0546126
0.0553822
0.0562281
0.0571256
0.0581437
0.0591727
0.0604437
0.0615677
0.0633391
0.128702
0.0647096
0.0508155
0.0526775
0.0527187
0.0516206
0.0507022
0.0500441
0.0495215
0.049084
0.0487179
0.0484143
0.0481653
0.047964
0.0478049
0.0476837
0.0475971
0.0475422
0.0475171
0.0475199
0.0475494
0.0476046
0.0476849
0.0477898
0.0479191
0.0480727
0.0482509
0.048454
0.0486826
0.0489374
0.0492193
0.0495295
0.0498694
0.0502403
0.0506444
0.0510834
0.0515601
0.0520766
0.0526367
0.0532434
0.0539002
0.0546141
0.0553835
0.0562292
0.0571264
0.0581441
0.0591735
0.0604413
0.0615902
0.0633427
0.125742
0.0658056
0.0513809
0.0528976
0.0528528
0.0516982
0.050751
0.050081
0.0495513
0.0491085
0.0487383
0.0484317
0.0481805
0.0479774
0.0478168
0.0476945
0.0476068
0.0475511
0.0475252
0.0475274
0.0475563
0.0476111
0.0476909
0.0477954
0.0479243
0.0480776
0.0482555
0.0484583
0.0486866
0.0489411
0.0492227
0.0495327
0.0498723
0.050243
0.0506468
0.0510855
0.0515619
0.0520782
0.0526378
0.0532442
0.0539006
0.0546141
0.0553829
0.056228
0.0571247
0.0581412
0.0591716
0.0604336
0.0616145
0.0633364
0.122833
0.066844
0.0519955
0.0531441
0.0530146
0.0517975
0.050813
0.050127
0.0495883
0.0491386
0.0487632
0.0484528
0.0481986
0.0479932
0.0478308
0.047707
0.0476181
0.0475613
0.0475345
0.0475358
0.0475641
0.0476182
0.0476975
0.0478015
0.0479299
0.0480828
0.0482603
0.0484627
0.0486906
0.0489448
0.0492261
0.0495357
0.0498749
0.0502452
0.0506487
0.051087
0.0515629
0.0520787
0.0526378
0.0532437
0.0538994
0.0546121
0.0553801
0.056224
0.0571199
0.0581341
0.0591661
0.0604194
0.0616354
0.0633203
0.119968
0.0678059
0.0526255
0.0533953
0.0531907
0.0519139
0.0508872
0.0501821
0.0496329
0.0491751
0.0487934
0.0484782
0.0482204
0.0480122
0.0478476
0.0477218
0.0476313
0.0475732
0.0475453
0.0475457
0.0475731
0.0476264
0.047705
0.0478084
0.0479362
0.0480886
0.0482655
0.0484674
0.0486949
0.0489486
0.0492295
0.0495386
0.0498773
0.0502471
0.05065
0.0510878
0.0515631
0.0520782
0.0526365
0.0532415
0.0538961
0.0546077
0.0553744
0.0562166
0.0571111
0.0581217
0.0591558
0.0603978
0.0616479
0.0632924
0.117153
0.0686833
0.0532552
0.0536395
0.0533703
0.052041
0.0509702
0.0502443
0.0496839
0.0492174
0.0488286
0.0485081
0.0482461
0.0480346
0.0478673
0.0477393
0.047647
0.0475873
0.047558
0.0475572
0.0475835
0.0476359
0.0477137
0.0478163
0.0479434
0.0480951
0.0482714
0.0484727
0.0486996
0.0489527
0.0492329
0.0495414
0.0498796
0.0502487
0.0506509
0.0510878
0.0515622
0.0520764
0.0526336
0.0532374
0.0538906
0.0546005
0.0553653
0.056205
0.0570975
0.0581031
0.0591391
0.0603677
0.0616473
0.0632503
0.114394
0.0694734
0.0538792
0.0538726
0.0535474
0.0521738
0.0510587
0.0503109
0.0497393
0.049264
0.0488679
0.0485417
0.0482753
0.0480602
0.0478899
0.0477595
0.047665
0.0476035
0.0475726
0.0475705
0.0475956
0.0476469
0.0477237
0.0478253
0.0479516
0.0481025
0.048278
0.0484786
0.0487047
0.0489571
0.0492366
0.0495443
0.0498817
0.05025
0.0506512
0.0510871
0.0515604
0.0520733
0.0526291
0.0532312
0.0538824
0.0545901
0.0553523
0.0561887
0.0570785
0.0580774
0.0591148
0.060328
0.0616295
0.0631913
0.111695
0.0701759
0.0544965
0.0540944
0.053719
0.0523098
0.0511506
0.0503801
0.0497973
0.0493134
0.04891
0.048578
0.048307
0.0480883
0.0479149
0.0477819
0.0476852
0.0476218
0.0475892
0.0475855
0.0476092
0.0476593
0.047735
0.0478356
0.0479609
0.0481108
0.0482855
0.0484852
0.0487105
0.0489619
0.0492406
0.0495474
0.0498837
0.0502509
0.050651
0.0510857
0.0515575
0.0520688
0.0526227
0.0532228
0.0538715
0.0545763
0.0553353
0.0561672
0.0570534
0.058044
0.0590817
0.060278
0.0615916
0.0631128
0.109061
0.0707913
0.0551061
0.0543056
0.0538836
0.0524473
0.051245
0.0504506
0.0498567
0.0493644
0.0489539
0.0486161
0.0483406
0.0481181
0.0479417
0.047806
0.047707
0.0476416
0.0476072
0.0476019
0.0476243
0.047673
0.0477475
0.0478469
0.0479712
0.0481201
0.0482937
0.0484924
0.0487167
0.0489672
0.0492448
0.0495505
0.0498856
0.0502516
0.0506503
0.0510834
0.0515535
0.0520629
0.0526145
0.053212
0.0538577
0.054559
0.0553138
0.0561403
0.0570219
0.0580026
0.0590387
0.0602168
0.0615319
0.063013
0.106494
0.0713199
0.0557069
0.0545073
0.0540404
0.0525856
0.0513414
0.0505221
0.0499169
0.0494165
0.0489988
0.0486553
0.0483752
0.0481491
0.0479696
0.0478312
0.04773
0.0476625
0.0476263
0.0476195
0.0476403
0.0476877
0.0477609
0.0478591
0.0479822
0.04813
0.0483026
0.0485002
0.0487234
0.0489727
0.0492491
0.0495536
0.0498874
0.0502519
0.050649
0.0510804
0.0515484
0.0520555
0.0526044
0.0531989
0.053841
0.0545379
0.055288
0.0561078
0.0569838
0.0579533
0.0589853
0.0601442
0.0614502
0.0628906
0.103996
0.0717622
0.0562966
0.0547007
0.0541887
0.0527238
0.0514397
0.0505944
0.0499775
0.0494692
0.0490445
0.0486952
0.0484106
0.0481808
0.0479982
0.0478572
0.0477537
0.0476842
0.0476462
0.0476377
0.047657
0.0477031
0.0477749
0.0478719
0.0479939
0.0481405
0.0483119
0.0485083
0.0487303
0.0489784
0.0492535
0.0495566
0.0498889
0.0502518
0.0506471
0.0510764
0.0515421
0.0520467
0.0525925
0.0531834
0.0538213
0.0545133
0.0552579
0.05607
0.0569392
0.0578962
0.0589214
0.06006
0.0613474
0.0627458
0.10157
0.072119
0.0568728
0.0548871
0.054328
0.0528611
0.0515398
0.0506675
0.0500385
0.0495223
0.0490907
0.0487356
0.0484465
0.048213
0.0480273
0.0478837
0.0477779
0.0477064
0.0476666
0.0476564
0.0476742
0.0477188
0.0477893
0.0478851
0.0480058
0.0481512
0.0483214
0.0485166
0.0487373
0.0489841
0.0492578
0.0495594
0.0498901
0.0502512
0.0506445
0.0510716
0.0515347
0.0520363
0.0525787
0.0531656
0.0537989
0.0544852
0.0552235
0.0560271
0.0568883
0.0578317
0.0588472
0.0599646
0.0612256
0.06258
0.0992179
0.0723916
0.0574327
0.055068
0.0544577
0.0529966
0.0516415
0.0507412
0.0500998
0.0495759
0.0491374
0.0487765
0.0484828
0.0482456
0.0480569
0.0479106
0.0478024
0.0477289
0.0476872
0.0476754
0.0476917
0.0477348
0.047804
0.0478984
0.0480178
0.048162
0.0483309
0.0485248
0.0487442
0.0489896
0.0492619
0.0495619
0.0498908
0.05025
0.050641
0.0510657
0.051526
0.0520244
0.052563
0.0531456
0.0537738
0.0544538
0.0551852
0.0559795
0.0568316
0.0577605
0.0587635
0.0598584
0.0610871
0.0623954
0.0969424
0.0725816
0.0579731
0.055245
0.0545778
0.0531293
0.0517446
0.0508157
0.0501612
0.0496298
0.0491846
0.0488179
0.0485195
0.0482786
0.0480867
0.0479377
0.0478272
0.0477516
0.0477081
0.0476945
0.0477092
0.0477509
0.0478187
0.0479118
0.0480299
0.0481727
0.0483403
0.0485329
0.0487509
0.0489949
0.0492655
0.0495638
0.0498909
0.050248
0.0506367
0.0510588
0.051516
0.0520109
0.0525455
0.0531233
0.053746
0.0544193
0.0551432
0.0559274
0.0567692
0.057683
0.0586709
0.0597423
0.0609345
0.0621947
0.0947449
0.0726912
0.0584909
0.0554195
0.054688
0.0532582
0.0518488
0.050891
0.0502227
0.0496839
0.0492321
0.0488596
0.0485565
0.0483118
0.0481168
0.0479651
0.0478522
0.0477745
0.0477291
0.0477138
0.0477269
0.0477671
0.0478334
0.0479251
0.0480418
0.0481833
0.0483496
0.0485408
0.0487573
0.0489997
0.0492687
0.0495652
0.0498903
0.0502452
0.0506314
0.0510507
0.0515047
0.0519959
0.0525262
0.0530989
0.0537157
0.0543817
0.0550975
0.055871
0.0567017
0.0575996
0.0585701
0.0596169
0.0607699
0.0619806
0.0926267
0.0727226
0.0589831
0.0555925
0.0547886
0.0533823
0.0519537
0.050967
0.0502842
0.0497382
0.04928
0.0489017
0.0485939
0.0483454
0.0481471
0.0479927
0.0478774
0.0477975
0.0477502
0.0477331
0.0477446
0.0477832
0.0478481
0.0479384
0.0480537
0.0481938
0.0483586
0.0485483
0.0487633
0.0490041
0.0492714
0.0495659
0.0498889
0.0502415
0.0506251
0.0510414
0.051492
0.0519792
0.0525049
0.0530722
0.0536827
0.0543412
0.0550483
0.0558107
0.0566291
0.0575106
0.058462
0.0594829
0.0605953
0.0617556
0.0905884
0.072679
0.0594467
0.055765
0.0548798
0.0535006
0.0520589
0.0510438
0.0503456
0.0497924
0.0493281
0.048944
0.0486315
0.0483791
0.0481777
0.0480205
0.0479027
0.0478206
0.0477713
0.0477525
0.0477623
0.0477994
0.0478627
0.0479515
0.0480653
0.048204
0.0483673
0.0485555
0.0487689
0.049008
0.0492734
0.049566
0.0498867
0.0502369
0.0506177
0.0510308
0.0514778
0.0519608
0.0524817
0.0530433
0.0536472
0.0542976
0.0549956
0.0557464
0.0565517
0.0574162
0.0583468
0.0593408
0.0604121
0.0615216
0.0886306
0.0725637
0.0598791
0.0559375
0.054962
0.0536121
0.0521638
0.0511212
0.050407
0.0498465
0.0493764
0.0489866
0.0486693
0.0484131
0.0482084
0.0480484
0.0479282
0.0478439
0.0477926
0.0477719
0.04778
0.0478154
0.0478771
0.0479644
0.0480768
0.0482139
0.0483757
0.0485623
0.048774
0.0490113
0.0492747
0.0495652
0.0498837
0.0502312
0.0506091
0.0510188
0.051462
0.0519407
0.0524564
0.053012
0.053609
0.054251
0.0549393
0.0556781
0.0564695
0.0573165
0.058225
0.059191
0.0602211
0.0612802
0.0867531
0.0723807
0.0602775
0.0561103
0.0550358
0.0537161
0.0522678
0.0511993
0.0504681
0.0499004
0.0494247
0.0490294
0.0487073
0.0484472
0.0482392
0.0480764
0.0479537
0.0478672
0.0478139
0.0477913
0.0477976
0.0478313
0.0478915
0.0479772
0.048088
0.0482235
0.0483837
0.0485686
0.0487785
0.0490139
0.0492754
0.0495636
0.0498796
0.0502244
0.0505992
0.0510054
0.0514446
0.0519186
0.0524291
0.0529783
0.053568
0.0542012
0.0548794
0.0556057
0.0563824
0.0572112
0.0580967
0.0590338
0.0600229
0.0610322
0.0849556
0.0721343
0.0606393
0.0562831
0.0551019
0.0538118
0.0523702
0.0512779
0.0505292
0.0499539
0.049473
0.0490724
0.0487454
0.0484814
0.0482702
0.0481046
0.0479793
0.0478905
0.0478351
0.0478106
0.0478151
0.0478472
0.0479056
0.0479897
0.0480989
0.0482327
0.0483912
0.0485744
0.0487825
0.0490159
0.0492752
0.0495611
0.0498745
0.0502164
0.0505879
0.0509905
0.0514255
0.0518946
0.0523994
0.0529421
0.0535241
0.0541481
0.0548157
0.055529
0.0562904
0.0571004
0.057962
0.0588694
0.0598181
0.0607784
0.0832371
0.0718293
0.0609624
0.0564554
0.0551611
0.0538987
0.0524702
0.0513568
0.05059
0.050007
0.0495212
0.0491154
0.0487837
0.0485157
0.0483013
0.0481328
0.048005
0.0479139
0.0478563
0.0478299
0.0478325
0.0478628
0.0479196
0.048002
0.0481094
0.0482416
0.0483983
0.0485796
0.0487858
0.0490171
0.0492742
0.0495576
0.0498683
0.0502071
0.0505753
0.0509739
0.0514045
0.0518685
0.0523674
0.0529031
0.0534772
0.0540916
0.054748
0.055448
0.0561933
0.0569839
0.0578209
0.058698
0.0596067
0.0605192
0.0815964
0.0714706
0.0612448
0.0566263
0.0552144
0.0539763
0.0525669
0.0514357
0.0506505
0.0500595
0.0495691
0.0491584
0.0488219
0.04855
0.0483323
0.048161
0.0480306
0.0479372
0.0478775
0.047849
0.0478498
0.0478783
0.0479332
0.0480139
0.0481196
0.04825
0.0484048
0.0485842
0.0487884
0.0490175
0.0492722
0.0495531
0.0498609
0.0501965
0.050561
0.0509556
0.0513815
0.0518401
0.0523328
0.0528614
0.053427
0.0540316
0.0546763
0.0553625
0.0560911
0.0568616
0.0576735
0.0585197
0.0593891
0.060255
0.0800319
0.0710635
0.0614848
0.0567946
0.0552626
0.0540446
0.0526595
0.0515144
0.0507108
0.0501113
0.0496165
0.0492012
0.0488602
0.0485843
0.0483633
0.0481891
0.0480562
0.0479604
0.0478986
0.047868
0.0478669
0.0478935
0.0479466
0.0480255
0.0481293
0.0482578
0.0484108
0.0485882
0.0487902
0.049017
0.0492692
0.0495474
0.0498522
0.0501845
0.0505452
0.0509355
0.0513564
0.0518094
0.0522957
0.0528166
0.0533736
0.0539678
0.0546005
0.0552722
0.0559836
0.0567334
0.0575197
0.0583347
0.0591652
0.0599858
0.0785417
0.0706135
0.0616811
0.0569584
0.0553068
0.0541034
0.0527471
0.0515925
0.0507708
0.0501624
0.0496634
0.0492439
0.0488983
0.0486185
0.0483942
0.0482172
0.0480817
0.0479835
0.0479194
0.0478869
0.0478837
0.0479084
0.0479597
0.0480366
0.0481386
0.0482652
0.0484161
0.0485914
0.0487912
0.0490156
0.0492652
0.0495405
0.0498421
0.0501708
0.0505276
0.0509134
0.0513292
0.0517763
0.0522557
0.0527688
0.0533166
0.0539001
0.0545202
0.0551771
0.0558707
0.0565993
0.0573594
0.058143
0.0589354
0.0597119
0.0771236
0.0701263
0.0618328
0.0571159
0.0553477
0.054153
0.0528288
0.0516693
0.0508304
0.0502126
0.0497095
0.0492861
0.0489363
0.0486526
0.048425
0.0482451
0.048107
0.0480064
0.0479401
0.0479054
0.0479003
0.047923
0.0479723
0.0480473
0.0481474
0.0482719
0.0484208
0.0485939
0.0487913
0.0490132
0.04926
0.0495323
0.0498306
0.0501556
0.0505081
0.0508892
0.0512996
0.0517405
0.0522129
0.0527178
0.053256
0.0538284
0.0544354
0.055077
0.0557523
0.0564591
0.0571928
0.0579448
0.0586996
0.0594334
0.0757752
0.0696073
0.0619396
0.0572647
0.0553863
0.0541937
0.0529039
0.0517445
0.0508896
0.0502619
0.0497548
0.0493279
0.048974
0.0486864
0.0484556
0.0482728
0.0481321
0.0480291
0.0479606
0.0479237
0.0479165
0.0479372
0.0479845
0.0480575
0.0481555
0.048278
0.0484247
0.0485954
0.0487904
0.0490097
0.0492536
0.0495227
0.0498175
0.0501386
0.0504868
0.0508628
0.0512676
0.0517021
0.052167
0.0526633
0.0531917
0.0537525
0.054346
0.0549717
0.0556283
0.0563128
0.0570199
0.0577403
0.0584581
0.0591505
0.0744937
0.0690621
0.0620016
0.0574023
0.0554229
0.0542261
0.0529716
0.0518172
0.050948
0.0503102
0.0497991
0.0493691
0.0490113
0.0487199
0.0484858
0.0483002
0.0481569
0.0480515
0.0479807
0.0479416
0.0479323
0.0479509
0.0479962
0.0480671
0.048163
0.0482833
0.0484277
0.0485961
0.0487884
0.0490049
0.0492459
0.0495116
0.0498027
0.0501197
0.0504633
0.0508341
0.051233
0.0516607
0.0521179
0.0526053
0.0531234
0.0536722
0.0542518
0.0548612
0.0554985
0.0561603
0.0568406
0.0575295
0.058211
0.0588632
0.0732764
0.0684962
0.0620193
0.0575262
0.0554581
0.0542507
0.0530315
0.051887
0.0510057
0.0503574
0.0498422
0.0494094
0.0490481
0.0487531
0.0485157
0.0483273
0.0481814
0.0480736
0.0480004
0.0479592
0.0479476
0.0479641
0.0480073
0.0480761
0.0481698
0.0482878
0.0484298
0.0485957
0.0487853
0.0489989
0.0492367
0.049499
0.0497862
0.0500989
0.0504376
0.050803
0.0511957
0.0516163
0.0520655
0.0525436
0.053051
0.0535875
0.0541527
0.0547453
0.055363
0.0560018
0.056655
0.0573125
0.0579585
0.0585718
0.0721202
0.0679145
0.061994
0.0576341
0.0554918
0.0542683
0.053083
0.0519529
0.0510621
0.0504035
0.049884
0.0494488
0.0490843
0.0487857
0.0485452
0.048354
0.0482055
0.0480952
0.0480197
0.0479762
0.0479625
0.0479768
0.0480178
0.0480844
0.0481758
0.0482914
0.048431
0.0485942
0.048781
0.0489916
0.049226
0.0494846
0.0497678
0.050076
0.0504096
0.0507693
0.0511555
0.0515688
0.0520096
0.0524781
0.0529744
0.0534981
0.0540485
0.0546239
0.0552215
0.055837
0.0564632
0.0570896
0.0577007
0.0582763
0.0710221
0.0673216
0.0619271
0.0577236
0.0555236
0.0542796
0.053126
0.0520142
0.0511171
0.0504484
0.0499244
0.0494871
0.0491197
0.0488178
0.048574
0.0483801
0.0482291
0.0481164
0.0480385
0.0479927
0.0479767
0.0479888
0.0480276
0.0480919
0.0481809
0.0482941
0.0484311
0.0485915
0.0487754
0.0489828
0.0492137
0.0494685
0.0497474
0.0500508
0.0503792
0.0507329
0.0511124
0.051518
0.05195
0.0524085
0.0528934
0.0534039
0.0539391
0.0544969
0.0550742
0.0556661
0.0562652
0.0568609
0.0574378
0.0579769
0.069979
0.066722
0.0618207
0.057793
0.0555529
0.0542853
0.0531604
0.0520703
0.0511702
0.050492
0.0499633
0.049524
0.0491542
0.0488491
0.0486023
0.0484056
0.0482521
0.0481369
0.0480567
0.0480086
0.0479903
0.0480001
0.0480365
0.0480985
0.0481851
0.0482957
0.04843
0.0485876
0.0487684
0.0489724
0.0491997
0.0494504
0.0497249
0.0500234
0.0503462
0.0506937
0.0510661
0.0514638
0.0518867
0.0523349
0.0528078
0.0533048
0.0538244
0.0543643
0.0549209
0.0554891
0.0560611
0.0566264
0.05717
0.0576737
0.0689878
0.0661193
0.0616775
0.0578406
0.0555786
0.0542859
0.0531863
0.0521205
0.0512208
0.0505342
0.0500006
0.0495594
0.0491876
0.0488796
0.0486298
0.0484304
0.0482744
0.0481568
0.0480742
0.0480237
0.0480032
0.0480106
0.0480447
0.0481042
0.0481882
0.0482962
0.0484277
0.0485823
0.0487598
0.0489603
0.0491838
0.0494303
0.0497001
0.0499934
0.0503104
0.0506514
0.0510165
0.0514059
0.0518194
0.0522569
0.0527177
0.0532007
0.0537043
0.0542259
0.0547616
0.055306
0.0558511
0.0563863
0.0568974
0.0573671
0.0680455
0.0655169
0.0615002
0.0578652
0.0555995
0.0542821
0.0532039
0.0521642
0.0512684
0.0505747
0.0500361
0.0495932
0.0492197
0.0489091
0.0486565
0.0484544
0.0482959
0.0481759
0.048091
0.0480381
0.0480152
0.0480202
0.0480518
0.0481088
0.0481902
0.0482955
0.048424
0.0485755
0.0487496
0.0489465
0.0491659
0.0494081
0.049673
0.0499609
0.0502719
0.0506061
0.0509636
0.0513443
0.0517481
0.0521745
0.0526227
0.0530914
0.0535787
0.0540817
0.0545963
0.0551168
0.0556351
0.0561409
0.0566203
0.057057
0.067149
0.0649176
0.0612919
0.0578659
0.0556141
0.0542741
0.0532136
0.0522008
0.0513124
0.0506132
0.0500698
0.0496252
0.0492504
0.0489375
0.0486822
0.0484774
0.0483165
0.0481942
0.0481068
0.0480516
0.0480262
0.0480288
0.0480579
0.0481123
0.048191
0.0482934
0.0484189
0.0485671
0.0487377
0.0489307
0.049146
0.0493835
0.0496434
0.0499256
0.0502303
0.0505574
0.050907
0.0512788
0.0516725
0.0520875
0.0525228
0.0529768
0.0534475
0.0539316
0.054425
0.0549216
0.0554134
0.0558902
0.0563388
0.0567438
0.0662955
0.0643239
0.0610559
0.0578423
0.055621
0.0542621
0.0532158
0.0522301
0.0513523
0.0506496
0.0501015
0.0496551
0.0492793
0.0489646
0.0487067
0.0484995
0.0483361
0.0482115
0.0481217
0.0480641
0.0480363
0.0480364
0.0480629
0.0481146
0.0481905
0.0482899
0.0484122
0.048557
0.048724
0.0489129
0.0491238
0.0493566
0.0496111
0.0498874
0.0501855
0.0505053
0.0508467
0.0512093
0.0515926
0.0519958
0.0524178
0.0528569
0.0533106
0.0537757
0.0542476
0.0547204
0.055186
0.0556344
0.0560531
0.0564276
0.0654821
0.0637379
0.0607954
0.0577943
0.0556187
0.054246
0.0532109
0.0522518
0.0513874
0.0506834
0.0501311
0.049683
0.0493065
0.0489902
0.04873
0.0485203
0.0483546
0.0482276
0.0481355
0.0480755
0.0480452
0.0480427
0.0480666
0.0481155
0.0481885
0.0482848
0.0484038
0.048545
0.0487082
0.048893
0.0490993
0.049327
0.049576
0.0498462
0.0501375
0.0504497
0.0507825
0.0511355
0.0515081
0.0518992
0.0523077
0.0527314
0.053168
0.0536139
0.0540644
0.0545134
0.0549531
0.0553738
0.0557634
0.0561086
0.0647062
0.0631609
0.0605138
0.0577221
0.0556055
0.0542255
0.0531993
0.0522658
0.0514172
0.0507142
0.0501584
0.0497086
0.0493316
0.0490142
0.0487519
0.0485398
0.0483719
0.0482426
0.0481481
0.0480857
0.0480528
0.0480478
0.0480689
0.048115
0.048185
0.0482781
0.0483936
0.0485312
0.0486903
0.0488708
0.0490724
0.0492948
0.049538
0.0498018
0.050086
0.0503903
0.0507143
0.0510574
0.0514189
0.0517977
0.0521922
0.0526005
0.0530196
0.0534461
0.0538751
0.0543006
0.0547148
0.0551084
0.0554699
0.055787
0.0639653
0.0625944
0.0602141
0.0576266
0.0555803
0.0542002
0.0531816
0.0522721
0.0514412
0.0507416
0.0501832
0.0497318
0.0493544
0.0490362
0.0487722
0.0485579
0.0483877
0.0482562
0.0481594
0.0480945
0.0480591
0.0480514
0.0480698
0.0481129
0.0481797
0.0482695
0.0483815
0.0485152
0.0486702
0.0488461
0.0490427
0.0492598
0.049497
0.0497541
0.0500309
0.050327
0.0506419
0.0509749
0.051325
0.0516911
0.0520714
0.0524638
0.0528654
0.0532724
0.05368
0.0540822
0.0544713
0.0548384
0.0551728
0.0554631
0.0632571
0.0620392
0.0598994
0.0575085
0.055542
0.0541695
0.0531578
0.0522707
0.0514588
0.0507651
0.0502053
0.0497525
0.0493749
0.0490562
0.0487907
0.0485744
0.048402
0.0482683
0.0481692
0.0481018
0.0480639
0.0480535
0.048069
0.0481091
0.0481727
0.048259
0.0483673
0.0484971
0.0486477
0.0488189
0.0490104
0.0492217
0.0494527
0.0497029
0.0499721
0.0502597
0.0505652
0.0508877
0.0512261
0.0515792
0.0519451
0.0523215
0.0527054
0.0530929
0.0534791
0.0538582
0.0542227
0.0545641
0.0548724
0.0551369
0.0625793
0.0614959
0.0595724
0.0573693
0.0554897
0.0541327
0.0531283
0.0522619
0.0514699
0.0507842
0.0502243
0.0497704
0.0493927
0.0490738
0.0488072
0.0485891
0.0484146
0.0482787
0.0481774
0.0481076
0.048067
0.0480539
0.0480664
0.0481034
0.0481637
0.0482465
0.048351
0.0484765
0.0486227
0.048789
0.048975
0.0491805
0.049405
0.0496481
0.0499094
0.0501882
0.050484
0.0507957
0.0511222
0.0514621
0.0518133
0.0521735
0.0525395
0.0529074
0.0532725
0.0536287
0.0539692
0.0542856
0.0545687
0.0548086
0.0619298
0.0609649
0.0592357
0.0572104
0.0554228
0.0540888
0.0530931
0.0522459
0.0514741
0.0507984
0.0502399
0.0497854
0.0494077
0.0490889
0.0488216
0.0486019
0.0484254
0.0482874
0.0481838
0.0481116
0.0480684
0.0480524
0.048062
0.0480958
0.0481527
0.0482318
0.0483323
0.0484535
0.048595
0.0487562
0.0489367
0.049136
0.0493537
0.0495895
0.0498425
0.0501124
0.0503981
0.0506988
0.0510131
0.0513395
0.0516759
0.0520197
0.0523677
0.0527162
0.0530602
0.053394
0.0537109
0.0540031
0.054262
0.0544785
0.0613069
0.0604464
0.0588914
0.0570333
0.0553412
0.0540372
0.053052
0.0522229
0.0514713
0.0508073
0.0502519
0.0497972
0.0494198
0.0491013
0.0488335
0.0486124
0.0484341
0.0482941
0.0481883
0.0481136
0.0480678
0.048049
0.0480555
0.048086
0.0481394
0.0482147
0.048311
0.0484278
0.0485644
0.0487203
0.048895
0.049088
0.0492988
0.0495269
0.0497715
0.0500321
0.0503076
0.0505969
0.0508988
0.0512114
0.0515327
0.05186
0.0521901
0.0525191
0.0528423
0.0531541
0.053448
0.0537169
0.0539525
0.0541467
0.0607086
0.0599404
0.0585415
0.0568397
0.0552446
0.0539771
0.053005
0.0521929
0.0514614
0.0508105
0.0502597
0.0498058
0.0494288
0.0491108
0.0488428
0.0486206
0.0484407
0.0482986
0.0481907
0.0481136
0.0480652
0.0480435
0.0480468
0.048074
0.0481237
0.048195
0.0482871
0.0483993
0.0485309
0.0486813
0.04885
0.0490364
0.04924
0.0494601
0.0496961
0.0499471
0.0502121
0.0504899
0.0507791
0.0510778
0.0513838
0.0516946
0.0520067
0.0523164
0.052619
0.0529092
0.0531807
0.0534269
0.0536403
0.0538133
0.0601333
0.0594468
0.0581879
0.0566313
0.0551334
0.0539077
0.0529518
0.0521563
0.0514443
0.0508077
0.050263
0.0498106
0.0494344
0.0491172
0.0488493
0.0486263
0.0484448
0.0483009
0.0481908
0.0481113
0.0480602
0.0480356
0.0480358
0.0480595
0.0481055
0.0481727
0.0482604
0.0483678
0.0484942
0.0486389
0.0488014
0.048981
0.0491772
0.0493892
0.0496162
0.0498574
0.0501116
0.0503776
0.0506539
0.0509385
0.0512292
0.0515233
0.0518175
0.052108
0.0523903
0.0526593
0.0529092
0.0531335
0.0533256
0.0534785
0.0595796
0.0589654
0.0578319
0.0564099
0.055008
0.0538286
0.0528919
0.052113
0.05142
0.0507986
0.0502614
0.0498116
0.0494365
0.0491202
0.0488527
0.0486291
0.0484463
0.0483006
0.0481884
0.0481066
0.0480529
0.0480253
0.0480222
0.0480424
0.0480845
0.0481476
0.0482307
0.0483331
0.0484541
0.048593
0.048749
0.0489217
0.0491102
0.0493138
0.0495316
0.0497627
0.050006
0.05026
0.0505231
0.0507935
0.0510687
0.0513461
0.0516225
0.051894
0.0521564
0.0524047
0.0526335
0.0528369
0.0530085
0.0531423
0.0590459
0.0584959
0.0574749
0.0561769
0.0548688
0.0537392
0.052825
0.0520631
0.0513887
0.0507828
0.0502545
0.0498083
0.0494348
0.0491196
0.0488528
0.0486289
0.048445
0.0482976
0.0481834
0.0480993
0.0480429
0.0480123
0.0480059
0.0480225
0.0480606
0.0481194
0.0481979
0.0482952
0.0484106
0.0485433
0.0486928
0.0488582
0.0490388
0.0492338
0.0494422
0.049663
0.049895
0.0501368
0.0503867
0.0506427
0.0509024
0.0511632
0.0514218
0.0516746
0.0519174
0.0521456
0.0523539
0.052537
0.0526892
0.0528049
0.058531
0.0580381
0.0571179
0.055934
0.0547167
0.0536395
0.0527507
0.0520065
0.0513503
0.0507604
0.0502421
0.0498005
0.0494291
0.0491153
0.0488493
0.0486255
0.0484407
0.0482918
0.0481756
0.0480891
0.0480301
0.0479965
0.0479868
0.0479996
0.0480337
0.048088
0.0481616
0.0482537
0.0483633
0.0484898
0.0486325
0.0487904
0.0489629
0.049149
0.0493478
0.0495582
0.0497788
0.0500082
0.0502446
0.0504861
0.0507303
0.0509745
0.0512155
0.0514498
0.0516734
0.0518819
0.0520705
0.0522342
0.0523678
0.0524664
0.0580336
0.0575914
0.0567617
0.0556826
0.0545524
0.0535293
0.0526687
0.0519432
0.0513049
0.0507311
0.0502237
0.0497878
0.0494191
0.0491071
0.0488421
0.0486185
0.048433
0.0482827
0.0481647
0.0480759
0.0480142
0.0479776
0.0479645
0.0479735
0.0480035
0.0480532
0.0481219
0.0482085
0.0483122
0.0484323
0.0485679
0.0487182
0.0488823
0.0490594
0.0492483
0.049448
0.049657
0.0498738
0.0500968
0.0503237
0.0505524
0.0507801
0.0510037
0.0512198
0.0514246
0.051614
0.0517834
0.0519285
0.0520443
0.0521267
0.0575526
0.0571556
0.0564071
0.055424
0.0543768
0.0534085
0.0525787
0.051873
0.0512525
0.0506948
0.0501991
0.0497699
0.0494046
0.0490946
0.0488309
0.0486078
0.0484219
0.0482704
0.0481505
0.0480595
0.0479951
0.0479555
0.0479389
0.0479441
0.0479698
0.0480149
0.0480784
0.0481594
0.0482571
0.0483705
0.0484989
0.0486413
0.0487969
0.0489647
0.0491436
0.0493324
0.0495296
0.0497338
0.0499431
0.0501555
0.0503687
0.0505799
0.0507863
0.0509846
0.051171
0.0513418
0.0514929
0.05162
0.051719
0.051786
0.057087
0.0567302
0.0560547
0.0551593
0.0541909
0.0532775
0.0524804
0.0517956
0.051193
0.0506515
0.0501682
0.0497464
0.0493852
0.0490776
0.0488155
0.0485932
0.048407
0.0482544
0.0481328
0.0480396
0.0479726
0.0479299
0.0479098
0.0479111
0.0479324
0.0479727
0.048031
0.0481063
0.0481977
0.0483043
0.0484253
0.0485597
0.0487066
0.0488649
0.0490336
0.0492113
0.0493966
0.049588
0.0497836
0.0499814
0.0501791
0.0503741
0.0505636
0.0507443
0.0509128
0.0510657
0.051199
0.051309
0.0513918
0.0514443
0.0566357
0.0563149
0.0557048
0.0548896
0.0539954
0.0531365
0.0523736
0.0517111
0.0511266
0.0506012
0.0501306
0.0497172
0.0493608
0.049056
0.0487957
0.0485743
0.0483881
0.0482346
0.0481114
0.0480161
0.0479465
0.0479006
0.047877
0.0478743
0.0478912
0.0479266
0.0479795
0.0480489
0.0481339
0.0482335
0.0483469
0.0484731
0.0486111
0.0487598
0.048918
0.0490845
0.0492579
0.0494364
0.0496183
0.0498015
0.0499839
0.0501628
0.0503355
0.0504991
0.0506502
0.0507856
0.0509018
0.0509954
0.0510629
0.0511015
0.0561978
0.0559091
0.0553579
0.0546158
0.0537913
0.0529859
0.0522582
0.0516191
0.0510531
0.0505439
0.0500863
0.0496819
0.049331
0.0490295
0.0487712
0.0485509
0.0483649
0.0482107
0.048086
0.0479887
0.0479164
0.0478675
0.0478403
0.0478335
0.0478459
0.0478763
0.0479237
0.0479871
0.0480655
0.048158
0.0482636
0.0483814
0.0485103
0.0486492
0.0487969
0.0489521
0.0491133
0.0492789
0.0494471
0.0496158
0.0497829
0.0499459
0.0501022
0.050249
0.0503832
0.0505018
0.0506015
0.0506794
0.0507323
0.0507578
0.0557724
0.0555124
0.0550143
0.0543388
0.0535794
0.052826
0.0521343
0.0515196
0.0509724
0.0504794
0.0500351
0.0496403
0.0492954
0.0489977
0.0487418
0.0485228
0.0483372
0.0481825
0.0480565
0.0479571
0.0478823
0.0478302
0.0477994
0.0477885
0.0477963
0.0478216
0.0478634
0.0479206
0.0479923
0.0480775
0.0481752
0.0482844
0.0484041
0.048533
0.0486701
0.0488138
0.0489628
0.0491155
0.0492699
0.0494242
0.0495763
0.0497236
0.0498639
0.0499943
0.050112
0.0502143
0.0502982
0.050361
0.0504
0.050413
0.0553587
0.0551244
0.054674
0.0540593
0.0533607
0.0526574
0.0520019
0.0514125
0.0508845
0.0504077
0.0499769
0.0495921
0.049254
0.0489605
0.0487072
0.0484898
0.0483048
0.0481497
0.0480224
0.0479211
0.0478437
0.0477886
0.0477542
0.0477391
0.0477422
0.0477623
0.0477983
0.0478492
0.0479141
0.0479918
0.0480815
0.048182
0.0482923
0.0484112
0.0485374
0.0486697
0.0488065
0.0489461
0.0490869
0.0492269
0.049364
0.049496
0.0496205
0.0497349
0.0498367
0.0499233
0.049992
0.0500404
0.0500661
0.0500673
0.0549561
0.0547448
0.0543373
0.0537779
0.0531357
0.0524807
0.0518613
0.0512976
0.0507893
0.0503288
0.0499116
0.0495373
0.0492064
0.0489175
0.0486673
0.0484516
0.0482673
0.048112
0.0479837
0.0478805
0.0478006
0.0477424
0.0477043
0.047685
0.0476834
0.0476982
0.0477283
0.0477729
0.0478307
0.0479009
0.0479823
0.048074
0.0481748
0.0482835
0.0483989
0.0485196
0.0486441
0.0487709
0.0488981
0.0490239
0.0491463
0.0492631
0.0493722
0.0494711
0.0495574
0.0496288
0.0496829
0.0497175
0.0497306
0.0497204
0.0545636
0.0543729
0.0540042
0.0534951
0.0529053
0.0522962
0.0517125
0.051175
0.0506867
0.0502427
0.0498392
0.0494756
0.0491523
0.0488686
0.0486216
0.048408
0.0482246
0.0480693
0.04794
0.047835
0.0477527
0.0476914
0.0476496
0.0476261
0.0476196
0.047629
0.0476532
0.0476912
0.047742
0.0478045
0.0478776
0.0479604
0.0480515
0.04815
0.0482545
0.0483635
0.0484758
0.0485896
0.0487033
0.0488151
0.048923
0.0490251
0.0491191
0.0492029
0.0492743
0.0493311
0.0493711
0.0493925
0.0493935
0.0493726
0.0541808
0.0540086
0.0536746
0.0532114
0.0526701
0.0521047
0.0515558
0.0510448
0.0505767
0.0501493
0.0497595
0.0494069
0.0490917
0.0488135
0.0485701
0.0483587
0.0481765
0.0480212
0.0478911
0.0477844
0.0476997
0.0476353
0.0475898
0.047562
0.0475507
0.0475546
0.0475728
0.0476042
0.0476478
0.0477024
0.0477671
0.0478408
0.0479223
0.0480105
0.0481039
0.0482014
0.0483014
0.0484024
0.0485028
0.0486007
0.0486944
0.0487819
0.0488613
0.0489304
0.0489873
0.0490301
0.0490567
0.0490655
0.0490548
0.0490236
0.0538068
0.0536512
0.0533487
0.0529271
0.0524307
0.0519065
0.0513916
0.0509069
0.0504594
0.0500485
0.0496726
0.0493311
0.0490242
0.0487519