/*--------------------------------*- C++ -*----------------------------------*\
  =========                 |
  \\      /  F ield         | OpenFOAM: The Open Source CFD Toolbox
   \\    /   O peration     | Website:  https://openfoam.org
    \\  /    A nd           | Version:  7
     \\/     M anipulation  |
\*---------------------------------------------------------------------------*/
FoamFile
{
    version     2.0;
    format      ascii;
    class       surfaceScalarField;
    location    "0.17";
    object      phi;
}
// * * * * * * * * * * * * * * * * * * * * * * * * * * * * * * * * * * * * * //

dimensions      [0 3 -1 0 0 0 0];

internalField   nonuniform List<scalar> 
139350
(
6.45103e-08
9.21212e-08
3.19594e-08
3.25508e-08
2.30497e-08
8.90973e-09
1.95599e-08
3.48977e-09
1.76026e-08
1.95729e-09
1.61668e-08
1.43586e-09
1.5028e-08
1.13877e-09
1.41097e-08
9.18305e-10
1.33532e-08
7.56521e-10
1.27151e-08
6.3809e-10
1.21666e-08
5.48483e-10
1.16884e-08
4.78237e-10
1.12666e-08
4.21749e-10
1.08911e-08
3.75489e-10
1.05541e-08
3.37052e-10
1.02493e-08
3.04718e-10
9.97212e-09
2.77224e-10
9.71849e-09
2.5363e-10
9.48527e-09
2.33222e-10
9.26982e-09
2.15449e-10
9.06994e-09
1.99879e-10
8.88377e-09
1.86173e-10
8.70971e-09
1.74056e-10
8.5464e-09
1.6331e-10
8.39265e-09
1.53754e-10
8.2474e-09
1.45244e-10
8.10974e-09
1.3766e-10
7.97884e-09
1.30907e-10
7.85394e-09
1.249e-10
7.73435e-09
1.19585e-10
7.61946e-09
1.14894e-10
7.50864e-09
1.10818e-10
7.40136e-09
1.07281e-10
7.29702e-09
1.04341e-10
7.19515e-09
1.01872e-10
7.09509e-09
1.00058e-10
6.99645e-09
9.8637e-11
6.89842e-09
9.80321e-11
6.8007e-09
9.77202e-11
6.70222e-09
9.84805e-11
6.60271e-09
9.95112e-11
6.50099e-09
1.01721e-10
6.39611e-09
1.04878e-10
6.28819e-09
1.07918e-10
6.17235e-09
1.15839e-10
6.05635e-09
1.16003e-10
5.91751e-09
1.38836e-10
5.80756e-09
1.0995e-10
5.51259e-09
2.94976e-10
-2.40675e-09
7.91934e-09
1.2594e-07
1.27624e-07
9.128e-08
6.72112e-08
7.1917e-08
2.82727e-08
6.11897e-08
1.42171e-08
5.47404e-08
8.40653e-09
5.02318e-08
5.94447e-09
4.67332e-08
4.63741e-09
4.39055e-08
3.74596e-09
4.15682e-08
3.0939e-09
3.95956e-08
2.6107e-09
3.79004e-08
2.2436e-09
3.64227e-08
1.95595e-09
3.51197e-08
1.72478e-09
3.39597e-08
1.53545e-09
3.29187e-08
1.37808e-09
3.19778e-08
1.24561e-09
3.11221e-08
1.13289e-09
3.03397e-08
1.03609e-09
2.96206e-08
9.52289e-10
2.89568e-08
8.7923e-10
2.83416e-08
8.15153e-10
2.77691e-08
7.58661e-10
2.72345e-08
7.08638e-10
2.67336e-08
6.64182e-10
2.62628e-08
6.24555e-10
2.58189e-08
5.89162e-10
2.53991e-08
5.57506e-10
2.50008e-08
5.29188e-10
2.46218e-08
5.03867e-10
2.42601e-08
4.81289e-10
2.39138e-08
4.61206e-10
2.35811e-08
4.43506e-10
2.32604e-08
4.2796e-10
2.29501e-08
4.14654e-10
2.26487e-08
4.03249e-10
2.23546e-08
3.94206e-10
2.20664e-08
3.86788e-10
2.17822e-08
3.82264e-10
2.1501e-08
3.78888e-10
2.12199e-08
3.79606e-10
2.09389e-08
3.80565e-10
2.06528e-08
3.87758e-10
2.03638e-08
3.93891e-10
2.00628e-08
4.08908e-10
1.97555e-08
4.2311e-10
1.94275e-08
4.44006e-10
1.90829e-08
4.83465e-10
1.87436e-08
4.4923e-10
1.822e-08
8.18612e-10
-2.5683e-09
1.83815e-08
1.5875e-07
1.35278e-07
1.36517e-07
8.9444e-08
1.17472e-07
4.73186e-08
1.03279e-07
2.84099e-08
9.32677e-08
1.84176e-08
8.59498e-08
1.32624e-08
8.02244e-08
1.03628e-08
7.55556e-08
8.41477e-09
7.16611e-08
6.98841e-09
6.83531e-08
5.91864e-09
6.54982e-08
5.09848e-09
6.30015e-08
4.45265e-09
6.07944e-08
3.93194e-09
5.88255e-08
3.50433e-09
5.70556e-08
3.14799e-09
5.54538e-08
2.84739e-09
5.39956e-08
2.59112e-09
5.2661e-08
2.37063e-09
5.14339e-08
2.17942e-09
5.03007e-08
2.01245e-09
4.92501e-08
1.86576e-09
4.82725e-08
1.73622e-09
4.73599e-08
1.6213e-09
4.65051e-08
1.51898e-09
4.5702e-08
1.42759e-09
4.49454e-08
1.34576e-09
4.42306e-08
1.27237e-09
4.35532e-08
1.20651e-09
4.29097e-08
1.14739e-09
4.22966e-08
1.09441e-09
4.17108e-08
1.04703e-09
4.11494e-08
1.00492e-09
4.06097e-08
9.67626e-10
4.00892e-08
9.35184e-10
3.95854e-08
9.07002e-10
3.90958e-08
8.83802e-10
3.86183e-08
8.64271e-10
3.81499e-08
8.50746e-10
3.7689e-08
8.39769e-10
3.72311e-08
8.37517e-10
3.67765e-08
8.35113e-10
3.63167e-08
8.47558e-10
3.58571e-08
8.53483e-10
3.53792e-08
8.86797e-10
3.49015e-08
9.00824e-10
3.43843e-08
9.61248e-10
3.38668e-08
1.00093e-09
3.33134e-08
1.00265e-09
3.26923e-08
1.43966e-09
-1.68726e-09
3.18113e-08
1.7561e-07
1.31184e-07
1.65616e-07
9.94376e-08
1.52716e-07
6.02187e-08
1.4009e-07
4.10357e-08
1.29391e-07
2.91174e-08
1.2073e-07
2.19226e-08
1.13596e-07
1.74968e-08
1.07594e-07
1.4417e-08
1.02474e-07
1.2109e-08
9.80522e-08
1.03401e-08
9.41898e-08
8.96084e-09
9.07809e-08
7.8616e-09
8.77453e-08
6.96747e-09
8.50216e-08
6.22804e-09
8.25613e-08
5.60826e-09
8.03259e-08
5.08284e-09
7.8284e-08
4.63299e-09
7.64102e-08
4.24452e-09
7.46831e-08
3.90651e-09
7.3085e-08
3.61047e-09
7.16011e-08
3.34967e-09
7.02186e-08
3.11876e-09
6.89265e-08
2.9134e-09
6.77154e-08
2.73009e-09
6.6577e-08
2.56594e-09
6.55042e-08
2.41858e-09
6.44905e-08
2.28605e-09
6.35303e-08
2.16673e-09
6.26184e-08
2.05926e-09
6.17503e-08
1.96255e-09
6.09217e-08
1.87566e-09
6.01287e-08
1.79793e-09
5.93676e-08
1.72863e-09
5.86352e-08
1.66766e-09
5.7928e-08
1.61414e-09
5.72428e-08
1.56901e-09
5.65768e-08
1.53033e-09
5.59259e-08
1.50157e-09
5.52884e-08
1.47733e-09
5.46583e-08
1.46755e-09
5.40361e-08
1.45731e-09
5.34111e-08
1.47261e-09
5.279e-08
1.47456e-09
5.21497e-08
1.52716e-09
5.15134e-08
1.53708e-09
5.08317e-08
1.64292e-09
5.01547e-08
1.678e-09
4.9423e-08
1.73431e-09
4.86871e-08
2.17556e-09
-4.4626e-10
4.74461e-08
1.84509e-07
1.2346e-07
1.82335e-07
1.01611e-07
1.76106e-07
6.64478e-08
1.67734e-07
4.9408e-08
1.59095e-07
3.77561e-08
1.51168e-07
2.98504e-08
1.44071e-07
2.45932e-08
1.37747e-07
2.07413e-08
1.32123e-07
1.77332e-08
1.27115e-07
1.53482e-08
1.22637e-07
1.34384e-08
1.18613e-07
1.18853e-08
1.14979e-07
1.0602e-08
1.1168e-07
9.52716e-09
1.08671e-07
8.61685e-09
1.05915e-07
7.83835e-09
1.03382e-07
7.16687e-09
1.01043e-07
6.58329e-09
9.88766e-08
6.07267e-09
9.68639e-08
5.62323e-09
9.4988e-08
5.22553e-09
9.32348e-08
4.87197e-09
9.15918e-08
4.55636e-09
9.00483e-08
4.27363e-09
8.85946e-08
4.01959e-09
8.72224e-08
3.79078e-09
8.59242e-08
3.58431e-09
8.46931e-08
3.39776e-09
8.35233e-08
3.22914e-09
8.2409e-08
3.07678e-09
8.13454e-08
2.9393e-09
8.03277e-08
2.81564e-09
7.93516e-08
2.70476e-09
7.84129e-08
2.60635e-09
7.75078e-08
2.51924e-09
7.66322e-08
2.44452e-09
7.57829e-08
2.37964e-09
7.49554e-08
2.32915e-09
7.41469e-08
2.28576e-09
7.33514e-08
2.26305e-09
7.25685e-08
2.24024e-09
7.1787e-08
2.25412e-09
7.10128e-08
2.24878e-09
7.02228e-08
2.31709e-09
6.94373e-08
2.32258e-09
6.86121e-08
2.46815e-09
6.77841e-08
2.50604e-09
6.69097e-08
2.60867e-09
6.60247e-08
3.06056e-09
9.31834e-10
6.46466e-08
1.90341e-07
1.15335e-07
1.91855e-07
1.00098e-07
1.90252e-07
6.80513e-08
1.86135e-07
5.35249e-08
1.80679e-07
4.32116e-08
1.74906e-07
3.56231e-08
1.69186e-07
3.03138e-08
1.63676e-07
2.62514e-08
1.58474e-07
2.29346e-08
1.53624e-07
2.01982e-08
1.49129e-07
1.79339e-08
1.44972e-07
1.60425e-08
1.41129e-07
1.44449e-08
1.37574e-07
1.30823e-08
1.3428e-07
1.19104e-08
1.31223e-07
1.08951e-08
1.28381e-07
1.00096e-08
1.25731e-07
9.23262e-09
1.23257e-07
8.54706e-09
1.20941e-07
7.93916e-09
1.18769e-07
7.39771e-09
1.16727e-07
6.91349e-09
1.14805e-07
6.47891e-09
1.12991e-07
6.08767e-09
1.11276e-07
5.73451e-09
1.09651e-07
5.41502e-09
1.0811e-07
5.12551e-09
1.06645e-07
4.86286e-09
1.0525e-07
4.62448e-09
1.03918e-07
4.40815e-09
1.02646e-07
4.21208e-09
1.01427e-07
4.03483e-09
1.00256e-07
3.87505e-09
9.91303e-08
3.73223e-09
9.80447e-08
3.60492e-09
9.69949e-08
3.49431e-09
9.59772e-08
3.39734e-09
9.49869e-08
3.31944e-09
9.40208e-08
3.2518e-09
9.30729e-08
3.21101e-09
9.21416e-08
3.17157e-09
9.12167e-08
3.17897e-09
9.03013e-08
3.16419e-09
8.93766e-08
3.24175e-09
8.84536e-08
3.24563e-09
8.75035e-08
3.4182e-09
8.65366e-08
3.47295e-09
8.55432e-08
3.60205e-09
8.4515e-08
4.08876e-09
2.41482e-09
8.3032e-08
1.95503e-07
1.07646e-07
1.98243e-07
9.73578e-08
1.98976e-07
6.73181e-08
1.97773e-07
5.47283e-08
1.95125e-07
4.58594e-08
1.91767e-07
3.89808e-08
1.88013e-07
3.40678e-08
1.84037e-07
3.02278e-08
1.7999e-07
2.6982e-08
1.75982e-07
2.42054e-08
1.72084e-07
2.18323e-08
1.68333e-07
1.9793e-08
1.64751e-07
1.8027e-08
1.61346e-07
1.64875e-08
1.58118e-07
1.51382e-08
1.55064e-07
1.39498e-08
1.52175e-07
1.28984e-08
1.49444e-07
1.1964e-08
1.4686e-07
1.11304e-08
1.44416e-07
1.03839e-08
1.421e-07
9.71305e-09
1.39905e-07
9.10837e-09
1.37822e-07
8.56176e-09
1.35844e-07
8.06642e-09
1.33962e-07
7.61658e-09
1.32169e-07
7.20732e-09
1.3046e-07
6.83451e-09
1.28829e-07
6.49458e-09
1.27269e-07
6.18454e-09
1.25775e-07
5.90185e-09
1.24343e-07
5.64438e-09
1.22967e-07
5.41044e-09
1.21643e-07
5.19848e-09
1.20368e-07
5.00781e-09
1.19136e-07
4.83682e-09
1.17944e-07
4.68675e-09
1.16787e-07
4.55425e-09
1.15661e-07
4.44532e-09
1.14562e-07
4.35022e-09
1.13486e-07
4.28758e-09
1.12428e-07
4.22899e-09
1.11382e-07
4.22545e-09
1.10345e-07
4.20057e-09
1.09307e-07
4.28037e-09
1.08266e-07
4.28691e-09
1.07211e-07
4.47286e-09
1.06127e-07
4.55715e-09
1.0503e-07
4.69834e-09
1.03888e-07
5.23091e-09
3.98648e-09
1.02317e-07
2.00818e-07
1.00413e-07
2.03768e-07
9.44084e-08
2.05336e-07
6.57494e-08
2.0563e-07
5.44347e-08
2.04788e-07
4.6701e-08
2.03294e-07
4.04752e-08
2.01327e-07
3.60348e-08
1.98973e-07
3.25818e-08
1.9634e-07
2.96153e-08
1.93531e-07
2.70144e-08
1.90627e-07
2.47357e-08
1.8769e-07
2.27298e-08
1.84765e-07
2.09524e-08
1.81883e-07
1.93693e-08
1.79067e-07
1.79542e-08
1.76332e-07
1.66854e-08
1.73685e-07
1.55446e-08
1.71133e-07
1.4516e-08
1.68677e-07
1.35863e-08
1.66318e-07
1.27439e-08
1.64052e-07
1.19787e-08
1.61878e-07
1.12824e-08
1.59792e-07
1.06473e-08
1.57792e-07
1.00671e-08
1.55872e-07
9.53632e-09
1.54029e-07
9.05008e-09
1.52259e-07
8.6043e-09
1.50559e-07
8.19537e-09
1.48923e-07
7.82027e-09
1.47348e-07
7.47637e-09
1.45831e-07
7.16151e-09
1.44368e-07
6.87388e-09
1.42954e-07
6.61192e-09
1.41587e-07
6.37488e-09
1.40263e-07
6.16115e-09
1.38978e-07
5.97201e-09
1.37728e-07
5.80406e-09
1.36509e-07
5.66368e-09
1.35319e-07
5.54077e-09
1.34151e-07
5.45504e-09
1.33003e-07
5.37701e-09
1.31869e-07
5.36e-09
1.30743e-07
5.32594e-09
1.29621e-07
5.40267e-09
1.28492e-07
5.41617e-09
1.27359e-07
5.60539e-09
1.2619e-07
5.72668e-09
1.25012e-07
5.87617e-09
1.2379e-07
6.45251e-09
5.61108e-09
1.22166e-07
2.06421e-07
9.35236e-08
2.09327e-07
9.15027e-08
2.11047e-07
6.40293e-08
2.11921e-07
5.3561e-08
2.11974e-07
4.66475e-08
2.11577e-07
4.08731e-08
2.1083e-07
3.6781e-08
2.09739e-07
3.36735e-08
2.08341e-07
3.10133e-08
2.06695e-07
2.86599e-08
2.04859e-07
2.65722e-08
2.02881e-07
2.47077e-08
2.00805e-07
2.30285e-08
1.98667e-07
2.15075e-08
1.96496e-07
2.01248e-08
1.94317e-07
1.88648e-08
1.92147e-07
1.77145e-08
1.9e-07
1.66623e-08
1.87888e-07
1.56986e-08
1.85817e-07
1.48145e-08
1.83794e-07
1.40023e-08
1.81821e-07
1.32553e-08
1.79901e-07
1.25673e-08
1.78035e-07
1.19332e-08
1.76223e-07
1.13481e-08
1.74465e-07
1.08079e-08
1.7276e-07
1.03091e-08
1.71107e-07
9.84843e-09
1.69505e-07
9.42315e-09
1.6795e-07
9.03086e-09
1.66442e-07
8.66962e-09
1.64978e-07
8.33779e-09
1.63556e-07
8.03394e-09
1.62173e-07
7.75748e-09
1.60828e-07
7.50691e-09
1.59516e-07
7.28369e-09
1.58235e-07
7.08457e-09
1.56983e-07
6.91612e-09
1.55755e-07
6.76849e-09
1.54549e-07
6.66163e-09
1.53359e-07
6.56661e-09
1.52183e-07
6.53639e-09
1.51013e-07
6.49585e-09
1.49848e-07
6.56715e-09
1.48673e-07
6.59168e-09
1.47499e-07
6.77906e-09
1.46286e-07
6.94022e-09
1.4506e-07
7.10218e-09
1.43797e-07
7.71486e-09
7.24179e-09
1.42167e-07
2.12268e-07
8.69182e-08
2.15136e-07
8.86346e-08
2.16802e-07
6.23632e-08
2.17835e-07
5.25278e-08
2.18234e-07
4.62484e-08
2.18339e-07
4.07679e-08
2.18249e-07
3.68718e-08
2.1793e-07
3.39921e-08
2.17377e-07
3.15659e-08
2.1661e-07
2.94273e-08
2.15652e-07
2.75301e-08
2.14529e-07
2.58306e-08
2.13268e-07
2.429e-08
2.11893e-07
2.28818e-08
2.1043e-07
2.15879e-08
2.089e-07
2.03954e-08
2.0732e-07
1.92937e-08
2.05708e-07
1.82743e-08
2.04077e-07
1.73297e-08
2.02438e-07
1.64536e-08
2.008e-07
1.56403e-08
1.99171e-07
1.48846e-08
1.97556e-07
1.4182e-08
1.95961e-07
1.35285e-08
1.94388e-07
1.29205e-08
1.92842e-07
1.23547e-08
1.91322e-07
1.18282e-08
1.89832e-07
1.13385e-08
1.88372e-07
1.08835e-08
1.86942e-07
1.04611e-08
1.85542e-07
1.00698e-08
1.84171e-07
9.70841e-09
1.82829e-07
9.3757e-09
1.81515e-07
9.07139e-09
1.80228e-07
8.79431e-09
1.78965e-07
8.54614e-09
1.77726e-07
8.32397e-09
1.76508e-07
8.13455e-09
1.75308e-07
7.96858e-09
1.74123e-07
7.84581e-09
1.72951e-07
7.73894e-09
1.71789e-07
7.69873e-09
1.70628e-07
7.65623e-09
1.69472e-07
7.72293e-09
1.68302e-07
7.76261e-09
1.67133e-07
7.94769e-09
1.65924e-07
8.14896e-09
1.64694e-07
8.33187e-09
1.63436e-07
8.97299e-09
8.82694e-09
1.61851e-07
2.18313e-07
8.05855e-08
2.21185e-07
8.57631e-08
2.22774e-07
6.0774e-08
2.23836e-07
5.14664e-08
2.24343e-07
4.57408e-08
2.24626e-07
4.0485e-08
2.24812e-07
3.66857e-08
2.24873e-07
3.39316e-08
2.24787e-07
3.16515e-08
2.24556e-07
2.96587e-08
2.24183e-07
2.79025e-08
2.23676e-07
2.63375e-08
2.23044e-07
2.49221e-08
2.22299e-07
2.36273e-08
2.21453e-07
2.24339e-08
2.2052e-07
2.13285e-08
2.19512e-07
2.0301e-08
2.18443e-07
1.93435e-08
2.17323e-07
1.84497e-08
2.16163e-07
1.7614e-08
2.14971e-07
1.68319e-08
2.13756e-07
1.60995e-08
2.12525e-07
1.54132e-08
2.11284e-07
1.477e-08
2.10037e-07
1.4167e-08
2.0879e-07
1.36019e-08
2.07546e-07
1.30725e-08
2.06307e-07
1.25768e-08
2.05077e-07
1.21133e-08
2.03858e-07
1.16806e-08
2.0265e-07
1.12775e-08
2.01456e-07
1.09032e-08
2.00274e-07
1.05569e-08
1.99107e-07
1.02389e-08
1.97953e-07
9.9481e-09
1.96813e-07
9.68668e-09
1.95684e-07
9.4521e-09
1.94568e-07
9.25129e-09
1.93461e-07
9.07573e-09
1.92362e-07
8.94467e-09
1.91268e-07
8.83313e-09
1.90178e-07
8.78851e-09
1.89084e-07
8.75e-09
1.87991e-07
8.81555e-09
1.86879e-07
8.87466e-09
1.85766e-07
9.06052e-09
1.84615e-07
9.30088e-09
1.83432e-07
9.51477e-09
1.82227e-07
1.0178e-08
1.03141e-08
1.80739e-07
2.24547e-07
7.45316e-08
2.27445e-07
8.28656e-08
2.2897e-07
5.92489e-08
2.30038e-07
5.03982e-08
2.30586e-07
4.51931e-08
2.30917e-07
4.01538e-08
2.31193e-07
3.64101e-08
2.31401e-07
3.37227e-08
2.31525e-07
3.15279e-08
2.31562e-07
2.9622e-08
2.31511e-07
2.79533e-08
2.31371e-07
2.64773e-08
2.31142e-07
2.5151e-08
2.30826e-07
2.39431e-08
2.30427e-07
2.28328e-08
2.29951e-07
2.18052e-08
2.29402e-07
2.08496e-08
2.28788e-07
1.99575e-08
2.28115e-07
1.91222e-08
2.27391e-07
1.83386e-08
2.26621e-07
1.76021e-08
2.25811e-07
1.69092e-08
2.24968e-07
1.62567e-08
2.24096e-07
1.5642e-08
2.232e-07
1.50627e-08
2.22285e-07
1.45169e-08
2.21354e-07
1.40029e-08
2.20412e-07
1.35192e-08
2.19461e-07
1.30648e-08
2.18503e-07
1.26384e-08
2.17541e-07
1.22395e-08
2.16576e-07
1.18676e-08
2.15611e-07
1.15223e-08
2.14646e-07
1.1204e-08
2.13682e-07
1.09123e-08
2.12719e-07
1.06494e-08
2.11757e-07
1.04135e-08
2.10797e-07
1.02114e-08
2.09837e-07
1.00357e-08
2.08877e-07
9.90483e-09
2.07914e-07
9.79659e-09
2.06948e-07
9.75419e-09
2.05972e-07
9.72615e-09
2.04992e-07
9.79551e-09
2.03988e-07
9.8781e-09
2.02979e-07
1.007e-08
2.01932e-07
1.03478e-08
2.00845e-07
1.0602e-08
1.9974e-07
1.12834e-08
1.16557e-08
1.98398e-07
2.30973e-07
6.87645e-08
2.33905e-07
7.99331e-08
2.35373e-07
5.77811e-08
2.3645e-07
4.93219e-08
2.3703e-07
4.46128e-08
2.37376e-07
3.9808e-08
2.37673e-07
3.6113e-08
2.37927e-07
3.34682e-08
2.38126e-07
3.13289e-08
2.38272e-07
2.94761e-08
2.38367e-07
2.78584e-08
2.38409e-07
2.6435e-08
2.38397e-07
2.51636e-08
2.38328e-07
2.4012e-08
2.38202e-07
2.29584e-08
2.3802e-07
2.19871e-08
2.37784e-07
2.10865e-08
2.37494e-07
2.02474e-08
2.37153e-07
1.94627e-08
2.36765e-07
1.87267e-08
2.36333e-07
1.80347e-08
2.35859e-07
1.7383e-08
2.35347e-07
1.67683e-08
2.34801e-07
1.61879e-08
2.34224e-07
1.56398e-08
2.33619e-07
1.5122e-08
2.32989e-07
1.46329e-08
2.32337e-07
1.41714e-08
2.31665e-07
1.37365e-08
2.30976e-07
1.33274e-08
2.30272e-07
1.29436e-08
2.29555e-07
1.25848e-08
2.28826e-07
1.22511e-08
2.28087e-07
1.1943e-08
2.27339e-07
1.16603e-08
2.26583e-07
1.14058e-08
2.25818e-07
1.11777e-08
2.25047e-07
1.09832e-08
2.24267e-07
1.08156e-08
2.23479e-07
1.06924e-08
2.22681e-07
1.05946e-08
2.21875e-07
1.05607e-08
2.21052e-07
1.05489e-08
2.2022e-07
1.06272e-08
2.19362e-07
1.07363e-08
2.18492e-07
1.09401e-08
2.17587e-07
1.12532e-08
2.16634e-07
1.15546e-08
2.15665e-07
1.22521e-08
1.28162e-08
2.14505e-07
2.37599e-07
6.329e-08
2.40571e-07
7.69616e-08
2.41981e-07
5.63705e-08
2.43065e-07
4.82387e-08
2.43681e-07
4.39963e-08
2.44039e-07
3.94498e-08
2.44341e-07
3.5811e-08
2.44608e-07
3.32016e-08
2.44829e-07
3.11076e-08
2.45011e-07
2.92941e-08
2.4516e-07
2.77093e-08
2.45278e-07
2.63177e-08
2.45362e-07
2.5079e-08
2.45413e-07
2.39612e-08
2.45429e-07
2.29424e-08
2.45409e-07
2.20068e-08
2.45353e-07
2.11423e-08
2.45261e-07
2.03397e-08
2.45133e-07
1.95913e-08
2.44968e-07
1.88912e-08
2.44768e-07
1.82343e-08
2.44535e-07
1.76165e-08
2.44269e-07
1.70346e-08
2.43971e-07
1.64855e-08
2.43644e-07
1.5967e-08
2.43289e-07
1.54772e-08
2.42907e-07
1.50145e-08
2.42501e-07
1.45777e-08
2.42071e-07
1.41658e-08
2.41621e-07
1.3778e-08
2.4115e-07
1.34141e-08
2.40661e-07
1.30739e-08
2.40155e-07
1.27573e-08
2.39633e-07
1.24652e-08
2.39095e-07
1.21977e-08
2.38544e-07
1.19575e-08
2.37978e-07
1.17432e-08
2.37399e-07
1.1562e-08
2.36807e-07
1.14082e-08
2.36201e-07
1.12981e-08
2.3558e-07
1.12159e-08
2.34945e-07
1.11951e-08
2.34291e-07
1.12035e-08
2.33623e-07
1.12949e-08
2.32927e-07
1.1432e-08
2.32215e-07
1.16526e-08
2.3147e-07
1.19981e-08
2.30674e-07
1.23505e-08
2.29863e-07
1.3063e-08
1.37776e-08
2.28902e-07
2.44434e-07
5.81118e-08
2.47444e-07
7.39517e-08
2.48799e-07
5.50154e-08
2.49885e-07
4.71529e-08
2.5054e-07
4.33418e-08
2.50914e-07
3.90755e-08
2.5122e-07
3.5505e-08
2.51492e-07
3.293e-08
2.5172e-07
3.08793e-08
2.51912e-07
2.91018e-08
2.52077e-07
2.75439e-08
2.5222e-07
2.61752e-08
2.52341e-07
2.49583e-08
2.5244e-07
2.38619e-08
2.52518e-07
2.28645e-08
2.52574e-07
2.19506e-08
2.52608e-07
2.11084e-08
2.52619e-07
2.03286e-08
2.52607e-07
1.96036e-08
2.52571e-07
1.89272e-08
2.52511e-07
1.82944e-08
2.52426e-07
1.77009e-08
2.52318e-07
1.71431e-08
2.52185e-07
1.6618e-08
2.52029e-07
1.61232e-08
2.5185e-07
1.56565e-08
2.51648e-07
1.52164e-08
2.51424e-07
1.48015e-08
2.51179e-07
1.44108e-08
2.50914e-07
1.40435e-08
2.50629e-07
1.36993e-08
2.50324e-07
1.33781e-08
2.50002e-07
1.30797e-08
2.49662e-07
1.28053e-08
2.49305e-07
1.25548e-08
2.48931e-07
1.23311e-08
2.48541e-07
1.21332e-08
2.48135e-07
1.19679e-08
2.47713e-07
1.18305e-08
2.47275e-07
1.1736e-08
2.46819e-07
1.16718e-08
2.46348e-07
1.16665e-08
2.45854e-07
1.16968e-08
2.45346e-07
1.18038e-08
2.44809e-07
1.19683e-08
2.44253e-07
1.22092e-08
2.43667e-07
1.25836e-08
2.43031e-07
1.29868e-08
2.4238e-07
1.37136e-08
1.45417e-08
2.41616e-07
2.51487e-07
5.32318e-08
2.54525e-07
7.09136e-08
2.55835e-07
5.3705e-08
2.56918e-07
4.60702e-08
2.5761e-07
4.265e-08
2.58003e-07
3.86824e-08
2.58314e-07
3.51938e-08
2.5859e-07
3.26538e-08
2.58823e-07
3.06466e-08
2.59019e-07
2.89058e-08
2.59189e-07
2.73739e-08
2.59339e-07
2.60256e-08
2.59471e-07
2.48265e-08
2.59586e-07
2.37463e-08
2.59687e-07
2.2764e-08
2.59773e-07
2.18645e-08
2.59845e-07
2.10367e-08
2.59902e-07
2.02713e-08
2.59944e-07
1.9561e-08
2.59972e-07
1.88997e-08
2.59984e-07
1.82824e-08
2.5998e-07
1.77048e-08
2.5996e-07
1.71633e-08
2.59923e-07
1.66548e-08
2.5987e-07
1.61768e-08
2.59799e-07
1.57271e-08
2.59711e-07
1.53041e-08
2.59607e-07
1.49062e-08
2.59485e-07
1.45325e-08
2.59346e-07
1.41822e-08
2.59191e-07
1.38547e-08
2.59019e-07
1.355e-08
2.58831e-07
1.3268e-08
2.58626e-07
1.30098e-08
2.58406e-07
1.27753e-08
2.58169e-07
1.25675e-08
2.57917e-07
1.23855e-08
2.57649e-07
1.22359e-08
2.57364e-07
1.2115e-08
2.57064e-07
1.20363e-08
2.56746e-07
1.19903e-08
2.56411e-07
1.20008e-08
2.56056e-07
1.20525e-08
2.55684e-07
1.21758e-08
2.55286e-07
1.23655e-08
2.54867e-07
1.26281e-08
2.54424e-07
1.30272e-08
2.53932e-07
1.34782e-08
2.53428e-07
1.42183e-08
1.5128e-08
2.52842e-07
2.58764e-07
4.86504e-08
2.6182e-07
6.78578e-08
2.63097e-07
5.24282e-08
2.64172e-07
4.49953e-08
2.64899e-07
4.19232e-08
2.65312e-07
3.82686e-08
2.6563e-07
3.48764e-08
2.65911e-07
3.23724e-08
2.66149e-07
3.0409e-08
2.66348e-07
2.87067e-08
2.6652e-07
2.72018e-08
2.66672e-07
2.58738e-08
2.66807e-07
2.46917e-08
2.66927e-07
2.36262e-08
2.67034e-07
2.26568e-08
2.67129e-07
2.17689e-08
2.67214e-07
2.09518e-08
2.67289e-07
2.01967e-08
2.67353e-07
1.94965e-08
2.67408e-07
1.88453e-08
2.67452e-07
1.82383e-08
2.67485e-07
1.76713e-08
2.67508e-07
1.71406e-08
2.6752e-07
1.66433e-08
2.67519e-07
1.61769e-08
2.67508e-07
1.5739e-08
2.67484e-07
1.53281e-08
2.67447e-07
1.49426e-08
2.67398e-07
1.45815e-08
2.67336e-07
1.42441e-08
2.67261e-07
1.39296e-08
2.67173e-07
1.36381e-08
2.67072e-07
1.33695e-08
2.66957e-07
1.31247e-08
2.66828e-07
1.29039e-08
2.66686e-07
1.27097e-08
2.6653e-07
1.25418e-08
2.66359e-07
1.24062e-08
2.66174e-07
1.23003e-08
2.65975e-07
1.22359e-08
2.65758e-07
1.22066e-08
2.65527e-07
1.22318e-08
2.65277e-07
1.2303e-08
2.6501e-07
1.2442e-08
2.64722e-07
1.26538e-08
2.64413e-07
1.29376e-08
2.64082e-07
1.33574e-08
2.6371e-07
1.38508e-08
2.63325e-07
1.46027e-08
1.55676e-08
2.62886e-07
2.66276e-07
4.43662e-08
2.69339e-07
6.47951e-08
2.70593e-07
5.11743e-08
2.71655e-07
4.39328e-08
2.72414e-07
4.11645e-08
2.7285e-07
3.78323e-08
2.73175e-07
3.4552e-08
2.73461e-07
3.2086e-08
2.73704e-07
3.01664e-08
2.73907e-07
2.85041e-08
2.74081e-07
2.70277e-08
2.74234e-07
2.57207e-08
2.7437e-07
2.45558e-08
2.74491e-07
2.3505e-08
2.746e-07
2.2548e-08
2.74698e-07
2.16709e-08
2.74786e-07
2.08634e-08
2.74866e-07
2.0117e-08
2.74937e-07
1.9425e-08
2.75001e-07
1.87817e-08
2.75057e-07
1.81824e-08
2.75105e-07
1.76231e-08
2.75145e-07
1.71004e-08
2.75177e-07
1.66111e-08
2.75201e-07
1.61529e-08
2.75217e-07
1.57235e-08
2.75224e-07
1.53213e-08
2.75221e-07
1.49449e-08
2.7521e-07
1.45932e-08
2.75188e-07
1.42653e-08
2.75157e-07
1.39608e-08
2.75116e-07
1.36795e-08
2.75064e-07
1.34214e-08
2.75001e-07
1.31873e-08
2.74928e-07
1.29775e-08
2.74843e-07
1.27947e-08
2.74746e-07
1.26385e-08
2.74638e-07
1.25147e-08
2.74516e-07
1.24217e-08
2.74382e-07
1.23698e-08
2.74234e-07
1.23551e-08
2.74072e-07
1.23933e-08
2.73894e-07
1.24814e-08
2.73701e-07
1.26348e-08
2.7349e-07
1.28652e-08
2.73258e-07
1.3169e-08
2.7301e-07
1.36057e-08
2.72726e-07
1.4135e-08
2.72432e-07
1.4897e-08
1.58961e-08
2.72103e-07
2.74031e-07
4.03764e-08
2.7709e-07
6.17362e-08
2.78331e-07
4.99332e-08
2.79378e-07
4.28861e-08
2.80165e-07
4.03777e-08
2.80625e-07
3.73721e-08
2.80957e-07
3.42198e-08
2.81248e-07
3.17945e-08
2.81496e-07
2.99183e-08
2.81703e-07
2.82977e-08
2.81879e-07
2.68514e-08
2.82034e-07
2.55662e-08
2.8217e-07
2.44191e-08
2.82292e-07
2.33832e-08
2.82401e-07
2.24389e-08
2.825e-07
2.15726e-08
2.82588e-07
2.07744e-08
2.82669e-07
2.00364e-08
2.82742e-07
1.9352e-08
2.82808e-07
1.87158e-08
2.82867e-07
1.81234e-08
2.82919e-07
1.75706e-08
2.82965e-07
1.70544e-08
2.83005e-07
1.65716e-08
2.83038e-07
1.612e-08
2.83064e-07
1.56974e-08
2.83083e-07
1.53021e-08
2.83095e-07
1.49328e-08
2.831e-07
1.45884e-08
2.83097e-07
1.42682e-08
2.83086e-07
1.39715e-08
2.83068e-07
1.36983e-08
2.8304e-07
1.34486e-08
2.83004e-07
1.32233e-08
2.82959e-07
1.30225e-08
2.82905e-07
1.2849e-08
2.82841e-07
1.27027e-08
2.82767e-07
1.25889e-08
2.82682e-07
1.25068e-08
2.82586e-07
1.24655e-08
2.82478e-07
1.24634e-08
2.82358e-07
1.25132e-08
2.82223e-07
1.26156e-08
2.82076e-07
1.27822e-08
2.81913e-07
1.30279e-08
2.81732e-07
1.33499e-08
2.81538e-07
1.38004e-08
2.81314e-07
1.43591e-08
2.81081e-07
1.51293e-08
1.61468e-08
2.80831e-07
2.82038e-07
3.6676e-08
2.85082e-07
5.86923e-08
2.8632e-07
4.86952e-08
2.87348e-07
4.18582e-08
2.88158e-07
3.95673e-08
2.88644e-07
3.68867e-08
2.88985e-07
3.38787e-08
2.89281e-07
3.14981e-08
2.89535e-07
2.96648e-08
2.89745e-07
2.80871e-08
2.89924e-07
2.66725e-08
2.9008e-07
2.54102e-08
2.90218e-07
2.42813e-08
2.9034e-07
2.32609e-08
2.90449e-07
2.23296e-08
2.90548e-07
2.14744e-08
2.90636e-07
2.06858e-08
2.90716e-07
1.99561e-08
2.90789e-07
1.92793e-08
2.90855e-07
1.86501e-08
2.90914e-07
1.80641e-08
2.90967e-07
1.75177e-08
2.91014e-07
1.70075e-08
2.91055e-07
1.65307e-08
2.9109e-07
1.6085e-08
2.91119e-07
1.56684e-08
2.91142e-07
1.52792e-08
2.91159e-07
1.49161e-08
2.91169e-07
1.4578e-08
2.91173e-07
1.42643e-08
2.9117e-07
1.39744e-08
2.9116e-07
1.37082e-08
2.91143e-07
1.34657e-08
2.91118e-07
1.32479e-08
2.91086e-07
1.30549e-08
2.91045e-07
1.28894e-08
2.90996e-07
1.27517e-08
2.90939e-07
1.26465e-08
2.90871e-07
1.25741e-08
2.90795e-07
1.25421e-08
2.90707e-07
1.2551e-08
2.90609e-07
1.2611e-08
2.90499e-07
1.27259e-08
2.90377e-07
1.29045e-08
2.90241e-07
1.31632e-08
2.9009e-07
1.35015e-08
2.89927e-07
1.39636e-08
2.8974e-07
1.45456e-08
2.89547e-07
1.53222e-08
1.63464e-08
2.89348e-07
2.90306e-07
3.32586e-08
2.93324e-07
5.56744e-08
2.94568e-07
4.74516e-08
2.95575e-07
4.08511e-08
2.96404e-07
3.87381e-08
2.96915e-07
3.63751e-08
2.97267e-07
3.35274e-08
2.97568e-07
3.11969e-08
2.97827e-07
2.94058e-08
2.98042e-07
2.78721e-08
2.98224e-07
2.64909e-08
2.98381e-07
2.52524e-08
2.9852e-07
2.41424e-08
2.98643e-07
2.3138e-08
2.98753e-07
2.22201e-08
2.98851e-07
2.13762e-08
2.98939e-07
2.05974e-08
2.99019e-07
1.98763e-08
2.99091e-07
1.92072e-08
2.99156e-07
1.85851e-08
2.99215e-07
1.80057e-08
2.99267e-07
1.74655e-08
2.99313e-07
1.69613e-08
2.99354e-07
1.64904e-08
2.99388e-07
1.60505e-08
2.99417e-07
1.56396e-08
2.9944e-07
1.52562e-08
2.99457e-07
1.4899e-08
2.99468e-07
1.45669e-08
2.99473e-07
1.42592e-08
2.99472e-07
1.39756e-08
2.99464e-07
1.37159e-08
2.9945e-07
1.34801e-08
2.99429e-07
1.32691e-08
2.99401e-07
1.30833e-08
2.99365e-07
1.29251e-08
2.99321e-07
1.27952e-08
2.9927e-07
1.26979e-08
2.9921e-07
1.26342e-08
2.99141e-07
1.26109e-08
2.99062e-07
1.26297e-08
2.98974e-07
1.26992e-08
2.98875e-07
1.28252e-08
2.98765e-07
1.30149e-08
2.98643e-07
1.32849e-08
2.98507e-07
1.36378e-08
2.9836e-07
1.41099e-08
2.98196e-07
1.47101e-08
2.98027e-07
1.54911e-08
1.65138e-08
2.97859e-07
2.98845e-07
3.01162e-08
3.01826e-07
5.26939e-08
3.03083e-07
4.61945e-08
3.04068e-07
3.98662e-08
3.0491e-07
3.78956e-08
3.05449e-07
3.58367e-08
3.05811e-07
3.31645e-08
3.06118e-07
3.08908e-08
3.06382e-07
2.91414e-08
3.06602e-07
2.76522e-08
3.06787e-07
2.63061e-08
3.06946e-07
2.50926e-08
3.07087e-07
2.40022e-08
3.0721e-07
2.30141e-08
3.0732e-07
2.21101e-08
3.07419e-07
2.1278e-08
3.07507e-07
2.05092e-08
3.07586e-07
1.9797e-08
3.07658e-07
1.91358e-08
3.07722e-07
1.85208e-08
3.07779e-07
1.79481e-08
3.07831e-07
1.74143e-08
3.07876e-07
1.69162e-08
3.07915e-07
1.64512e-08
3.07948e-07
1.60171e-08
3.07976e-07
1.5612e-08
3.07998e-07
1.52344e-08
3.08014e-07
1.48829e-08
3.08024e-07
1.45567e-08
3.08028e-07
1.42551e-08
3.08026e-07
1.39776e-08
3.08018e-07
1.37242e-08
3.08003e-07
1.34948e-08
3.07981e-07
1.32904e-08
3.07953e-07
1.31115e-08
3.07918e-07
1.29604e-08
3.07875e-07
1.28379e-08
3.07825e-07
1.27482e-08
3.07766e-07
1.26928e-08
3.077e-07
1.26777e-08
3.07623e-07
1.27057e-08
3.07538e-07
1.27844e-08
3.07443e-07
1.29204e-08
3.07337e-07
1.31207e-08
3.07221e-07
1.34009e-08
3.07092e-07
1.37669e-08
3.06954e-07
1.42479e-08
3.06803e-07
1.48618e-08
3.06648e-07
1.56455e-08
1.66611e-08
3.06501e-07
3.07665e-07
2.72388e-08
3.10597e-07
4.97618e-08
3.11874e-07
4.49171e-08
3.12836e-07
3.89039e-08
3.13687e-07
3.7045e-08
3.14252e-07
3.52716e-08
3.14628e-07
3.27884e-08
3.14939e-07
3.05796e-08
3.15209e-07
2.88716e-08
3.15434e-07
2.74273e-08
3.15622e-07
2.61179e-08
3.15784e-07
2.49307e-08
3.15926e-07
2.38605e-08
3.16051e-07
2.28893e-08
3.16161e-07
2.19996e-08
3.1626e-07
2.11796e-08
3.16348e-07
2.04211e-08
3.16427e-07
1.9718e-08
3.16498e-07
1.90649e-08
3.16561e-07
1.84573e-08
3.16618e-07
1.78915e-08
3.16668e-07
1.73641e-08
3.16712e-07
1.68722e-08
3.1675e-07
1.64133e-08
3.16782e-07
1.59851e-08
3.16808e-07
1.55859e-08
3.16828e-07
1.52141e-08
3.16843e-07
1.48685e-08
3.16851e-07
1.45482e-08
3.16854e-07
1.42526e-08
3.1685e-07
1.39813e-08
3.1684e-07
1.37341e-08
3.16824e-07
1.35112e-08
3.16801e-07
1.33134e-08
3.16771e-07
1.31413e-08
3.16734e-07
1.29971e-08
3.1669e-07
1.28819e-08
3.16639e-07
1.27996e-08
3.16579e-07
1.27522e-08
3.16512e-07
1.27452e-08
3.16436e-07
1.27821e-08
3.1635e-07
1.28696e-08
3.16256e-07
1.3015e-08
3.16151e-07
1.32255e-08
3.16037e-07
1.3515e-08
3.15911e-07
1.38927e-08
3.15777e-07
1.43818e-08
3.15633e-07
1.50059e-08
3.15488e-07
1.57904e-08
1.67948e-08
3.15355e-07
3.16775e-07
2.46153e-08
3.19647e-07
4.68893e-08
3.20951e-07
4.36137e-08
3.21891e-07
3.79639e-08
3.22744e-07
3.61912e-08
3.23335e-07
3.46808e-08
3.23726e-07
3.23978e-08
3.24042e-07
3.0263e-08
3.24317e-07
2.85966e-08
3.24548e-07
2.7197e-08
3.2474e-07
2.5926e-08
3.24904e-07
2.47664e-08
3.25047e-07
2.37172e-08
3.25173e-07
2.27634e-08
3.25284e-07
2.18884e-08
3.25383e-07
2.10808e-08
3.25471e-07
2.0333e-08
3.2555e-07
1.96392e-08
3.25621e-07
1.89944e-08
3.25683e-07
1.83944e-08
3.25739e-07
1.78356e-08
3.25788e-07
1.73149e-08
3.25831e-07
1.68294e-08
3.25868e-07
1.63766e-08
3.25899e-07
1.59545e-08
3.25923e-07
1.55612e-08
3.25942e-07
1.51953e-08
3.25955e-07
1.48557e-08
3.25962e-07
1.45415e-08
3.25962e-07
1.4252e-08
3.25957e-07
1.39869e-08
3.25945e-07
1.3746e-08
3.25926e-07
1.35296e-08
3.25901e-07
1.33384e-08
3.2587e-07
1.31731e-08
3.25831e-07
1.30358e-08
3.25785e-07
1.29279e-08
3.25732e-07
1.2853e-08
3.2567e-07
1.28135e-08
3.25601e-07
1.28143e-08
3.25524e-07
1.28598e-08
3.25437e-07
1.2956e-08
3.25342e-07
1.31105e-08
3.25237e-07
1.33306e-08
3.25123e-07
1.3629e-08
3.24998e-07
1.4017e-08
3.24867e-07
1.45133e-08
3.24728e-07
1.51444e-08
3.24591e-07
1.59279e-08
1.69182e-08
3.24467e-07
3.26185e-07
2.2233e-08
3.28987e-07
4.40874e-08
3.3032e-07
4.22802e-08
3.31239e-07
3.70449e-08
3.32091e-07
3.53391e-08
3.32707e-07
3.40656e-08
3.33113e-07
3.19911e-08
3.33436e-07
2.99405e-08
3.33716e-07
2.83164e-08
3.33952e-07
2.69614e-08
3.34148e-07
2.573e-08
3.34315e-07
2.45995e-08
3.3446e-07
2.3572e-08
3.34587e-07
2.2636e-08
3.34699e-07
2.17762e-08
3.34798e-07
2.09815e-08
3.34887e-07
2.02448e-08
3.34965e-07
1.95605e-08
3.35036e-07
1.89243e-08
3.35098e-07
1.83321e-08
3.35153e-07
1.77805e-08
3.35201e-07
1.72665e-08
3.35243e-07
1.67875e-08
3.35279e-07
1.63411e-08
3.35308e-07
1.59251e-08
3.35331e-07
1.55379e-08
3.35349e-07
1.51781e-08
3.3536e-07
1.48446e-08
3.35365e-07
1.45365e-08
3.35364e-07
1.42532e-08
3.35356e-07
1.39943e-08
3.35342e-07
1.37599e-08
3.35322e-07