/*--------------------------------*- C++ -*----------------------------------*\
  =========                 |
  \\      /  F ield         | OpenFOAM: The Open Source CFD Toolbox
   \\    /   O peration     | Website:  https://openfoam.org
    \\  /    A nd           | Version:  7
     \\/     M anipulation  |
\*---------------------------------------------------------------------------*/
FoamFile
{
    version     2.0;
    format      ascii;
    class       surfaceScalarField;
    location    "0.17";
    object      phi_0;
}
// * * * * * * * * * * * * * * * * * * * * * * * * * * * * * * * * * * * * * //

dimensions      [0 3 -1 0 0 0 0];

internalField   nonuniform List<scalar> 
139350
(
6.45103e-08
9.21212e-08
3.19594e-08
3.25508e-08
2.30497e-08
8.90972e-09
1.95599e-08
3.48976e-09
1.76026e-08
1.95728e-09
1.61668e-08
1.43585e-09
1.5028e-08
1.13876e-09
1.41097e-08
9.18293e-10
1.33532e-08
7.56508e-10
1.27152e-08
6.38076e-10
1.21667e-08
5.48469e-10
1.16885e-08
4.78223e-10
1.12667e-08
4.21735e-10
1.08913e-08
3.75475e-10
1.05542e-08
3.37037e-10
1.02495e-08
3.04702e-10
9.97231e-09
2.77207e-10
9.7187e-09
2.53613e-10
9.48549e-09
2.33204e-10
9.27006e-09
2.1543e-10
9.0702e-09
1.9986e-10
8.88405e-09
1.86152e-10
8.71002e-09
1.74034e-10
8.54673e-09
1.63287e-10
8.393e-09
1.53729e-10
8.24778e-09
1.45219e-10
8.11015e-09
1.37633e-10
7.97927e-09
1.30878e-10
7.8544e-09
1.24869e-10
7.73485e-09
1.19552e-10
7.61999e-09
1.14859e-10
7.50921e-09
1.1078e-10
7.40197e-09
1.0724e-10
7.29767e-09
1.04297e-10
7.19585e-09
1.01824e-10
7.09584e-09
1.00007e-10
6.99726e-09
9.85822e-11
6.89929e-09
9.79728e-11
6.80163e-09
9.76564e-11
6.70322e-09
9.84116e-11
6.60378e-09
9.94368e-11
6.50214e-09
1.01641e-10
6.39735e-09
1.04791e-10
6.28952e-09
1.07826e-10
6.17379e-09
1.15739e-10
6.05789e-09
1.15897e-10
5.91916e-09
1.38726e-10
5.80933e-09
1.0983e-10
5.51441e-09
2.94922e-10
-2.40757e-09
7.92198e-09
1.2594e-07
1.27624e-07
9.128e-08
6.72112e-08
7.1917e-08
2.82727e-08
6.11897e-08
1.42171e-08
5.47405e-08
8.4065e-09
5.02319e-08
5.94443e-09
4.67333e-08
4.63736e-09
4.39057e-08
3.7459e-09
4.15684e-08
3.09384e-09
3.95958e-08
2.61065e-09
3.79007e-08
2.24355e-09
3.6423e-08
1.9559e-09
3.51201e-08
1.72472e-09
3.39601e-08
1.53539e-09
3.29192e-08
1.37801e-09
3.19783e-08
1.24554e-09
3.11227e-08
1.13282e-09
3.03403e-08
1.03602e-09
2.96213e-08
9.52217e-10
2.89576e-08
8.79154e-10
2.83423e-08
8.15074e-10
2.77699e-08
7.58579e-10
2.72354e-08
7.08551e-10
2.67346e-08
6.6409e-10
2.62639e-08
6.24459e-10
2.582e-08
5.8906e-10
2.54003e-08
5.57398e-10
2.50021e-08
5.29073e-10
2.46232e-08
5.03745e-10
2.42616e-08
4.81159e-10
2.39154e-08
4.61067e-10
2.35828e-08
4.43358e-10
2.32622e-08
4.27801e-10
2.2952e-08
4.14484e-10
2.26508e-08
4.03066e-10
2.23568e-08
3.94009e-10
2.20688e-08
3.86576e-10
2.17847e-08
3.82036e-10
2.15038e-08
3.78642e-10
2.12228e-08
3.79339e-10
2.0942e-08
3.80277e-10
2.06562e-08
3.87449e-10
2.03674e-08
3.93556e-10
2.00667e-08
4.08549e-10
1.97597e-08
4.2272e-10
1.9432e-08
4.43595e-10
1.90877e-08
4.83019e-10
1.87488e-08
4.48753e-10
1.82255e-08
8.18228e-10
-2.56959e-09
1.83875e-08
1.5875e-07
1.35278e-07
1.36518e-07
8.9444e-08
1.17472e-07
4.73186e-08
1.03279e-07
2.84099e-08
9.32678e-08
1.84175e-08
8.59499e-08
1.32623e-08
8.02246e-08
1.03627e-08
7.55558e-08
8.41465e-09
7.16614e-08
6.98828e-09
6.83535e-08
5.91852e-09
6.54987e-08
5.09836e-09
6.30021e-08
4.45252e-09
6.0795e-08
3.93181e-09
5.88262e-08
3.50419e-09
5.70563e-08
3.14786e-09
5.54546e-08
2.84725e-09
5.39965e-08
2.59097e-09
5.2662e-08
2.37048e-09
5.1435e-08
2.17926e-09
5.03018e-08
2.01228e-09
4.92513e-08
1.86558e-09
4.82739e-08
1.73603e-09
4.73613e-08
1.62111e-09
4.65066e-08
1.51878e-09
4.57037e-08
1.42738e-09
4.49472e-08
1.34553e-09
4.42325e-08
1.27214e-09
4.35553e-08
1.20625e-09
4.29119e-08
1.14712e-09
4.2299e-08
1.09413e-09
4.17133e-08
1.04673e-09
4.11521e-08
1.00459e-09
4.06126e-08
9.67279e-10
4.00923e-08
9.34812e-10
3.95887e-08
9.06603e-10
3.90994e-08
8.83373e-10
3.86221e-08
8.6381e-10
3.81539e-08
8.50249e-10
3.76933e-08
8.39233e-10
3.72357e-08
8.36939e-10
3.67815e-08
8.34489e-10
3.63221e-08
8.46885e-10
3.58629e-08
8.52755e-10
3.53854e-08
8.86014e-10
3.49082e-08
8.99973e-10
3.43914e-08
9.60349e-10
3.38745e-08
9.99948e-10
3.33216e-08
1.0016e-09
3.27012e-08
1.43868e-09
-1.68921e-09
3.18208e-08
1.7561e-07
1.31184e-07
1.65616e-07
9.94376e-08
1.52716e-07
6.02187e-08
1.40091e-07
4.10356e-08
1.29391e-07
2.91173e-08
1.20731e-07
2.19225e-08
1.13597e-07
1.74966e-08
1.07595e-07
1.44168e-08
1.02474e-07
1.21088e-08
9.80526e-08
1.03399e-08
9.41904e-08
8.96062e-09
9.07815e-08
7.86137e-09
8.77461e-08
6.96724e-09
8.50225e-08
6.22781e-09
8.25623e-08
5.60802e-09
8.0327e-08
5.08259e-09
7.82852e-08
4.63273e-09
7.64114e-08
4.24425e-09
7.46845e-08
3.90623e-09
7.30866e-08
3.61018e-09
7.16028e-08
3.34937e-09
7.02204e-08
3.11844e-09
6.89284e-08
2.91307e-09
6.77174e-08
2.72974e-09
6.65792e-08
2.56558e-09
6.55066e-08
2.4182e-09
6.44931e-08
2.28565e-09
6.3533e-08
2.1663e-09
6.26213e-08
2.05881e-09
6.17534e-08
1.96206e-09
6.0925e-08
1.87514e-09
6.01322e-08
1.79737e-09
5.93715e-08
1.72804e-09
5.86392e-08
1.66703e-09
5.79324e-08
1.61346e-09
5.72475e-08
1.56828e-09
5.65817e-08
1.52954e-09
5.59313e-08
1.50072e-09
5.52941e-08
1.47642e-09
5.46645e-08
1.46656e-09
5.40427e-08
1.45625e-09
5.34181e-08
1.47146e-09
5.27976e-08
1.47331e-09
5.21578e-08
1.52583e-09
5.15221e-08
1.53562e-09
5.08411e-08
1.64137e-09
5.01647e-08
1.67631e-09
4.94338e-08
1.73248e-09
4.86987e-08
2.17378e-09
-4.49113e-10
4.74586e-08
1.84509e-07
1.2346e-07
1.82335e-07
1.01611e-07
1.76106e-07
6.64478e-08
1.67734e-07
4.94079e-08
1.59095e-07
3.7756e-08
1.51168e-07
2.98502e-08
1.44071e-07
2.45929e-08
1.37747e-07
2.0741e-08
1.32123e-07
1.77329e-08
1.27115e-07
1.53479e-08
1.22637e-07
1.34381e-08
1.18614e-07
1.1885e-08
1.14979e-07
1.06016e-08
1.1168e-07
9.52681e-09
1.08672e-07
8.61648e-09
1.05917e-07
7.83798e-09
1.03383e-07
7.16648e-09
1.01044e-07
6.58289e-09
9.88782e-08
6.07226e-09
9.68656e-08
5.6228e-09
9.49899e-08
5.22508e-09
9.32368e-08
4.8715e-09
9.1594e-08
4.55587e-09
9.00507e-08
4.27311e-09
8.85972e-08
4.01905e-09
8.72252e-08
3.7902e-09
8.59272e-08
3.5837e-09
8.46963e-08
3.39711e-09
8.35267e-08
3.22846e-09
8.24127e-08
3.07606e-09
8.13493e-08
2.93852e-09
8.03319e-08
2.81481e-09
7.9356e-08
2.70387e-09
7.84177e-08
2.60541e-09
7.75129e-08
2.51823e-09
7.66377e-08
2.44344e-09
7.57888e-08
2.37847e-09
7.49616e-08
2.32789e-09
7.41537e-08
2.2844e-09
7.33586e-08
2.26158e-09
7.25762e-08
2.23866e-09
7.17953e-08
2.25241e-09
7.10217e-08
2.24693e-09
7.02324e-08
2.3151e-09
6.94476e-08
2.32041e-09
6.86231e-08
2.46583e-09
6.77959e-08
2.50352e-09
6.69225e-08
2.60591e-09
6.60385e-08
3.05782e-09
9.27973e-10
6.46614e-08
1.90341e-07
1.15335e-07
1.91855e-07
1.00098e-07
1.90252e-07
6.80512e-08
1.86135e-07
5.35248e-08
1.80679e-07
4.32115e-08
1.74906e-07
3.56228e-08
1.69186e-07
3.03135e-08
1.63676e-07
2.6251e-08
1.58475e-07
2.29342e-08
1.53625e-07
2.01978e-08
1.49129e-07
1.79334e-08
1.44972e-07
1.6042e-08
1.4113e-07
1.44444e-08
1.37575e-07
1.30818e-08
1.34281e-07
1.19099e-08
1.31225e-07
1.08946e-08
1.28382e-07
1.00091e-08
1.25733e-07
9.23207e-09
1.23259e-07
8.54649e-09
1.20943e-07
7.93857e-09
1.18771e-07
7.39708e-09
1.16729e-07
6.91283e-09
1.14807e-07
6.47823e-09
1.12993e-07
6.08695e-09
1.11279e-07
5.73375e-09
1.09655e-07
5.41422e-09
1.08114e-07
5.12467e-09
1.06649e-07
4.86197e-09
1.05254e-07
4.62354e-09
1.03922e-07
4.40715e-09
1.0265e-07
4.21102e-09
1.01431e-07
4.0337e-09
1.00261e-07
3.87384e-09
9.91356e-08
3.73094e-09
9.80503e-08
3.60354e-09
9.70009e-08
3.49282e-09
9.59836e-08
3.39575e-09
9.49938e-08
3.31772e-09
9.40283e-08
3.24995e-09
9.30808e-08
3.20901e-09
9.21501e-08
3.16941e-09
9.12258e-08
3.17664e-09
9.03111e-08
3.16167e-09
8.93872e-08
3.23903e-09
8.84649e-08
3.24267e-09
8.75157e-08
3.41503e-09
8.65497e-08
3.46952e-09
8.55574e-08
3.59826e-09
8.45303e-08
4.08493e-09
2.40989e-09
8.30483e-08
1.95503e-07
1.07646e-07
1.98243e-07
9.73578e-08
1.98976e-07
6.73181e-08
1.97773e-07
5.47282e-08
1.95125e-07
4.58593e-08
1.91767e-07
3.89805e-08
1.88013e-07
3.40675e-08
1.84037e-07
3.02274e-08
1.7999e-07
2.69815e-08
1.75983e-07
2.42049e-08
1.72084e-07
2.18318e-08
1.68334e-07
1.97924e-08
1.64752e-07
1.80263e-08
1.61347e-07
1.64869e-08
1.58119e-07
1.51376e-08
1.55065e-07
1.39492e-08
1.52176e-07
1.28977e-08
1.49445e-07
1.19633e-08
1.46862e-07
1.11296e-08
1.44417e-07
1.03831e-08
1.42102e-07
9.71224e-09
1.39908e-07
9.10752e-09
1.37825e-07
8.56088e-09
1.35846e-07
8.06549e-09
1.33964e-07
7.6156e-09
1.32172e-07
7.2063e-09
1.30464e-07
6.83343e-09
1.28832e-07
6.49343e-09
1.27272e-07
6.18333e-09
1.25779e-07
5.90056e-09
1.24347e-07
5.64301e-09
1.22972e-07
5.40898e-09
1.21649e-07
5.19692e-09
1.20373e-07
5.00615e-09
1.19142e-07
4.83504e-09
1.1795e-07
4.68485e-09
1.16793e-07
4.5522e-09
1.15668e-07
4.44311e-09
1.1457e-07
4.34785e-09
1.13494e-07
4.28503e-09
1.12437e-07
4.22622e-09
1.11391e-07
4.22247e-09
1.10356e-07
4.19734e-09
1.09318e-07
4.27688e-09
1.08278e-07
4.28312e-09
1.07224e-07
4.46878e-09
1.06141e-07
4.55274e-09
1.05045e-07
4.69347e-09
1.03904e-07
5.22589e-09
3.98044e-09
1.02334e-07
2.00818e-07
1.00413e-07
2.03768e-07
9.44083e-08
2.05336e-07
6.57494e-08
2.0563e-07
5.44346e-08
2.04788e-07
4.67008e-08
2.03294e-07
4.04749e-08
2.01327e-07
3.60344e-08
1.98973e-07
3.25814e-08
1.9634e-07
2.96147e-08
1.93531e-07
2.70138e-08
1.90628e-07
2.4735e-08
1.87691e-07
2.27291e-08
1.84766e-07
2.09516e-08
1.81884e-07
1.93685e-08
1.79068e-07
1.79534e-08
1.76333e-07
1.66846e-08
1.73687e-07
1.55437e-08
1.71135e-07
1.45151e-08
1.68679e-07
1.35854e-08
1.66319e-07
1.27429e-08
1.64054e-07
1.19777e-08
1.6188e-07
1.12813e-08
1.59795e-07
1.06462e-08
1.57794e-07
1.0066e-08
1.55875e-07
9.53512e-09
1.54032e-07
9.04882e-09
1.52263e-07
8.60296e-09
1.50562e-07
8.19396e-09
1.48927e-07
7.81878e-09
1.47352e-07
7.47479e-09
1.45836e-07
7.15982e-09
1.44372e-07
6.87209e-09
1.42959e-07
6.61e-09
1.41593e-07
6.37284e-09
1.40269e-07
6.15896e-09
1.38984e-07
5.96967e-09
1.37735e-07
5.80155e-09
1.36517e-07
5.66097e-09
1.35327e-07
5.53786e-09
1.3416e-07
5.4519e-09
1.33013e-07
5.37362e-09
1.31879e-07
5.35634e-09
1.30754e-07
5.32199e-09
1.29632e-07
5.39839e-09
1.28504e-07
5.41153e-09
1.27372e-07
5.60038e-09
1.26204e-07
5.72128e-09
1.25027e-07
5.87021e-09
1.23807e-07
6.44627e-09
5.60389e-09
1.22183e-07
2.06421e-07
9.35236e-08
2.09327e-07
9.15027e-08
2.11047e-07
6.40292e-08
2.11921e-07
5.35609e-08
2.11974e-07
4.66473e-08
2.11577e-07
4.08728e-08
2.1083e-07
3.67806e-08
2.09739e-07
3.3673e-08
2.08341e-07
3.10127e-08
2.06695e-07
2.86592e-08
2.04859e-07
2.65714e-08
2.02881e-07
2.47069e-08
2.00805e-07
2.30277e-08
1.98667e-07
2.15066e-08
1.96497e-07
2.01238e-08
1.94317e-07
1.88638e-08
1.92148e-07
1.77134e-08
1.90002e-07
1.66613e-08
1.8789e-07
1.56975e-08
1.85819e-07
1.48133e-08
1.83796e-07
1.40011e-08
1.81823e-07
1.3254e-08
1.79903e-07
1.2566e-08
1.78037e-07
1.19318e-08
1.76226e-07
1.13467e-08
1.74468e-07
1.08064e-08
1.72764e-07
1.03075e-08
1.71111e-07
9.84675e-09
1.69508e-07
9.42137e-09
1.67954e-07
9.02898e-09
1.66446e-07
8.66762e-09
1.64983e-07
8.33566e-09
1.63561e-07
8.03167e-09
1.62179e-07
7.75504e-09
1.60833e-07
7.50431e-09
1.59522e-07
7.28091e-09
1.58242e-07
7.08158e-09
1.5699e-07
6.91292e-09
1.55763e-07
6.76504e-09
1.54557e-07
6.65792e-09
1.53368e-07
6.5626e-09
1.52192e-07
6.53205e-09
1.51023e-07
6.49117e-09
1.49859e-07
6.56208e-09
1.48685e-07
6.58619e-09
1.47512e-07
6.77312e-09
1.463e-07
6.93382e-09
1.45075e-07
7.09513e-09
1.43813e-07
7.70742e-09
7.23344e-09
1.42184e-07
2.12268e-07
8.69182e-08
2.15136e-07
8.86346e-08
2.16802e-07
6.23632e-08
2.17835e-07
5.25277e-08
2.18234e-07
4.62482e-08
2.18339e-07
4.07676e-08
2.18249e-07
3.68714e-08
2.1793e-07
3.39917e-08
2.17377e-07
3.15653e-08
2.1661e-07
2.94266e-08
2.15652e-07
2.75293e-08
2.14529e-07
2.58297e-08
2.13268e-07
2.4289e-08
2.11894e-07
2.28807e-08
2.10431e-07
2.15868e-08
2.089e-07
2.03942e-08
2.07321e-07
1.92925e-08
2.05709e-07
1.82731e-08
2.04078e-07
1.73285e-08
2.02439e-07
1.64523e-08
2.00802e-07
1.56389e-08
1.99173e-07
1.48831e-08
1.97558e-07
1.41805e-08
1.95963e-07
1.3527e-08
1.94391e-07
1.29189e-08
1.92844e-07
1.23529e-08
1.91325e-07
1.18264e-08
1.89836e-07
1.13366e-08
1.88375e-07
1.08814e-08
1.86945e-07
1.04589e-08
1.85546e-07
1.00675e-08
1.84175e-07
9.70594e-09
1.82834e-07
9.37307e-09
1.8152e-07
9.06858e-09
1.80233e-07
8.79131e-09
1.78971e-07
8.54293e-09
1.77732e-07
8.32053e-09
1.76514e-07
8.13085e-09
1.75315e-07
7.9646e-09
1.74131e-07
7.84153e-09
1.7296e-07
7.73433e-09
1.71798e-07
7.69375e-09
1.70638e-07
7.65085e-09
1.69483e-07
7.71711e-09
1.68313e-07
7.7563e-09
1.67145e-07
7.94085e-09
1.65938e-07
8.14158e-09
1.64709e-07
8.32379e-09
1.63452e-07
8.96438e-09
8.81747e-09
1.61868e-07
2.18313e-07
8.05855e-08
2.21185e-07
8.57631e-08
2.22774e-07
6.07739e-08
2.23836e-07
5.14663e-08
2.24343e-07
4.57406e-08
2.24626e-07
4.04847e-08
2.24812e-07
3.66853e-08
2.24873e-07
3.39311e-08
2.24787e-07
3.16509e-08
2.24556e-07
2.96579e-08
2.24183e-07
2.79017e-08
2.23677e-07
2.63365e-08
2.23045e-07
2.4921e-08
2.22299e-07
2.36261e-08
2.21453e-07
2.24327e-08
2.2052e-07
2.13272e-08
2.19513e-07
2.02997e-08
2.18444e-07
1.93422e-08
2.17324e-07
1.84482e-08
2.16164e-07
1.76125e-08
2.14973e-07
1.68304e-08
2.13758e-07
1.60979e-08
2.12527e-07
1.54116e-08
2.11285e-07
1.47682e-08
2.10039e-07
1.41652e-08
2.08792e-07
1.36e-08
2.07548e-07
1.30704e-08
2.0631e-07
1.25746e-08
2.05081e-07
1.2111e-08
2.03861e-07
1.16781e-08
2.02654e-07
1.12749e-08
2.0146e-07
1.09004e-08
2.00279e-07
1.0554e-08
1.99112e-07
1.02357e-08
1.97958e-07
9.94472e-09
1.96818e-07
9.68306e-09
1.9569e-07
9.44822e-09
1.94574e-07
9.24712e-09
1.93467e-07
9.07125e-09
1.92369e-07
8.93985e-09
1.91275e-07
8.82794e-09
1.90186e-07
8.7829e-09
1.89093e-07
8.74394e-09
1.88001e-07
8.809e-09
1.8689e-07
8.86756e-09
1.85778e-07
9.05284e-09
1.84627e-07
9.29258e-09
1.83445e-07
9.5057e-09
1.82241e-07
1.01684e-08
1.03035e-08
1.80755e-07
2.24547e-07
7.45316e-08
2.27445e-07
8.28656e-08
2.2897e-07
5.92489e-08
2.30038e-07
5.03981e-08
2.30586e-07
4.51929e-08
2.30917e-07
4.01535e-08
2.31193e-07
3.64097e-08
2.31401e-07
3.37222e-08
2.31525e-07
3.15273e-08
2.31562e-07
2.96213e-08
2.31511e-07
2.79524e-08
2.31371e-07
2.64763e-08
2.31142e-07
2.51499e-08
2.30827e-07
2.39419e-08
2.30428e-07
2.28315e-08
2.29951e-07
2.18038e-08
2.29403e-07
2.08481e-08
2.28789e-07
1.99559e-08
2.28116e-07
1.91207e-08
2.27392e-07
1.83369e-08
2.26622e-07
1.76004e-08
2.25812e-07
1.69075e-08
2.24969e-07
1.62549e-08
2.24097e-07
1.564e-08
2.23202e-07
1.50607e-08
2.22287e-07
1.45148e-08
2.21357e-07
1.40006e-08
2.20415e-07
1.35169e-08
2.19463e-07
1.30622e-08
2.18506e-07
1.26357e-08
2.17544e-07
1.22367e-08
2.1658e-07
1.18645e-08
2.15615e-07
1.1519e-08
2.1465e-07
1.12005e-08
2.13686e-07
1.09085e-08
2.12724e-07
1.06454e-08
2.11763e-07
1.04092e-08
2.10803e-07
1.02068e-08
2.09844e-07
1.00308e-08
2.08884e-07
9.89951e-09
2.07921e-07
9.79086e-09
2.06956e-07
9.74801e-09
2.0598e-07
9.71948e-09
2.05001e-07
9.7883e-09
2.03998e-07
9.87028e-09
2.0299e-07
1.00615e-08
2.01944e-07
1.03387e-08
2.00857e-07
1.0592e-08
1.99753e-07
1.12727e-08
1.16441e-08
1.98412e-07
2.30973e-07
6.87645e-08
2.33905e-07
7.99331e-08
2.35373e-07
5.7781e-08
2.3645e-07
4.93218e-08
2.3703e-07
4.46126e-08
2.37376e-07
3.98077e-08
2.37673e-07
3.61126e-08
2.37927e-07
3.34676e-08
2.38126e-07
3.13283e-08
2.38272e-07
2.94753e-08
2.38367e-07
2.78575e-08
2.38409e-07
2.64339e-08
2.38397e-07
2.51624e-08
2.38328e-07
2.40107e-08
2.38203e-07
2.2957e-08
2.38021e-07
2.19856e-08
2.37784e-07
2.10849e-08
2.37494e-07
2.02457e-08
2.37154e-07
1.9461e-08
2.36766e-07
1.87249e-08
2.36334e-07
1.80329e-08
2.3586e-07
1.73811e-08
2.35349e-07
1.67663e-08
2.34803e-07
1.61859e-08
2.34226e-07
1.56376e-08
2.33621e-07
1.51197e-08
2.32991e-07
1.46305e-08
2.32339e-07
1.41689e-08
2.31667e-07
1.37338e-08
2.30979e-07
1.33245e-08
2.30275e-07
1.29405e-08
2.29558e-07
1.25815e-08
2.28829e-07
1.22475e-08
2.28091e-07
1.19392e-08
2.27343e-07
1.16563e-08
2.26587e-07
1.14015e-08
2.25823e-07
1.1173e-08
2.25052e-07
1.09782e-08
2.24272e-07
1.08102e-08
2.23485e-07
1.06866e-08
2.22688e-07
1.05884e-08
2.21882e-07
1.0554e-08
2.21059e-07
1.05417e-08
2.20228e-07
1.06194e-08
2.19371e-07
1.07279e-08
2.18501e-07
1.09309e-08
2.17597e-07
1.12433e-08
2.16645e-07
1.15439e-08
2.15677e-07
1.22405e-08
1.28038e-08
2.14518e-07
2.37599e-07
6.329e-08
2.40571e-07
7.69616e-08
2.41981e-07
5.63704e-08
2.43065e-07
4.82385e-08
2.43681e-07
4.39961e-08
2.44039e-07
3.94495e-08
2.44341e-07
3.58106e-08
2.44608e-07
3.3201e-08
2.44829e-07
3.1107e-08
2.45011e-07
2.92933e-08
2.4516e-07
2.77084e-08
2.45278e-07
2.63166e-08
2.45362e-07
2.50778e-08
2.45413e-07
2.39599e-08
2.45429e-07
2.29409e-08
2.4541e-07
2.20052e-08
2.45354e-07
2.11406e-08
2.45262e-07
2.03379e-08
2.45133e-07
1.95895e-08
2.44969e-07
1.88893e-08
2.44769e-07
1.82323e-08
2.44536e-07
1.76145e-08
2.4427e-07
1.70324e-08
2.43972e-07
1.64833e-08
2.43645e-07
1.59647e-08
2.4329e-07
1.54748e-08
2.42909e-07
1.50119e-08
2.42503e-07
1.4575e-08
2.42074e-07
1.41629e-08
2.41623e-07
1.37749e-08
2.41153e-07
1.34108e-08
2.40664e-07
1.30703e-08
2.40158e-07
1.27535e-08
2.39636e-07
1.24612e-08
2.39099e-07
1.21934e-08
2.38548e-07
1.19528e-08
2.37982e-07
1.17382e-08
2.37404e-07
1.15567e-08
2.36812e-07
1.14025e-08
2.36206e-07
1.12919e-08
2.35586e-07
1.12092e-08
2.34952e-07
1.11879e-08
2.34298e-07
1.11957e-08
2.3363e-07
1.12865e-08
2.32935e-07
1.1423e-08
2.32223e-07
1.16429e-08
2.31479e-07
1.19876e-08
2.30684e-07
1.2339e-08
2.29874e-07
1.30507e-08
1.37644e-08
2.28913e-07
2.44434e-07
5.81118e-08
2.47444e-07
7.39517e-08
2.48799e-07
5.50154e-08
2.49885e-07
4.71528e-08
2.5054e-07
4.33416e-08
2.50914e-07
3.90752e-08
2.5122e-07
3.55046e-08
2.51492e-07
3.29295e-08
2.5172e-07
3.08787e-08
2.51912e-07
2.9101e-08
2.52078e-07
2.75429e-08
2.5222e-07
2.61741e-08
2.52341e-07
2.4957e-08
2.5244e-07
2.38605e-08
2.52518e-07
2.28629e-08
2.52575e-07
2.19489e-08
2.52609e-07
2.11066e-08
2.5262e-07
2.03267e-08
2.52608e-07
1.96016e-08
2.52572e-07
1.89252e-08
2.52512e-07
1.82923e-08
2.52428e-07
1.76987e-08
2.52319e-07
1.71409e-08
2.52187e-07
1.66157e-08
2.52031e-07
1.61207e-08
2.51852e-07
1.56539e-08
2.5165e-07
1.52137e-08
2.51426e-07
1.47986e-08
2.51181e-07
1.44077e-08
2.50916e-07
1.40403e-08
2.50631e-07
1.36958e-08
2.50327e-07
1.33743e-08
2.50005e-07
1.30757e-08
2.49665e-07
1.28011e-08
2.49308e-07
1.25502e-08
2.48935e-07
1.23262e-08
2.48545e-07
1.21279e-08
2.48139e-07
1.19622e-08
2.47717e-07
1.18244e-08
2.4728e-07
1.17294e-08
2.46824e-07
1.16648e-08
2.46353e-07
1.16589e-08
2.4586e-07
1.16886e-08
2.45352e-07
1.1795e-08
2.44816e-07
1.19588e-08
2.4426e-07
1.21989e-08
2.43675e-07
1.25724e-08
2.4304e-07
1.29748e-08
2.4239e-07
1.37007e-08
1.45279e-08
2.41626e-07
2.51487e-07
5.32318e-08
2.54525e-07
7.09136e-08
2.55835e-07
5.37049e-08
2.56918e-07
4.607e-08
2.5761e-07
4.26497e-08
2.58003e-07
3.86821e-08
2.58314e-07
3.51934e-08
2.5859e-07
3.26532e-08
2.58823e-07
3.06459e-08
2.59019e-07
2.8905e-08
2.59189e-07
2.73729e-08
2.59339e-07
2.60244e-08
2.59471e-07
2.48251e-08
2.59587e-07
2.37448e-08
2.59687e-07
2.27623e-08
2.59773e-07
2.18628e-08
2.59845e-07
2.10348e-08
2.59902e-07
2.02693e-08
2.59945e-07
1.95589e-08
2.59973e-07
1.88976e-08
2.59985e-07
1.82802e-08
2.59981e-07
1.77025e-08
2.59961e-07
1.71609e-08
2.59924e-07
1.66523e-08
2.59871e-07
1.61742e-08
2.598e-07
1.57244e-08
2.59713e-07
1.53012e-08
2.59608e-07
1.49032e-08
2.59487e-07
1.45293e-08
2.59348e-07
1.41787e-08
2.59193e-07
1.3851e-08
2.59021e-07
1.35461e-08
2.58833e-07
1.32639e-08
2.58629e-07
1.30053e-08
2.58409e-07
1.27705e-08
2.58173e-07
1.25624e-08
2.5792e-07
1.238e-08
2.57653e-07
1.223e-08
2.57368e-07
1.21087e-08
2.57068e-07
1.20294e-08
2.5675e-07
1.19829e-08
2.56416e-07
1.19928e-08
2.56061e-07
1.20439e-08
2.55689e-07
1.21665e-08
2.55293e-07
1.23556e-08
2.54874e-07
1.26173e-08
2.54431e-07
1.30156e-08
2.5394e-07
1.34656e-08
2.53436e-07
1.42048e-08
1.51136e-08
2.5285e-07
2.58764e-07
4.86504e-08
2.6182e-07
6.78578e-08
2.63097e-07
5.24281e-08
2.64172e-07
4.49952e-08
2.64899e-07
4.19229e-08
2.65312e-07
3.82683e-08
2.6563e-07
3.4876e-08
2.65911e-07
3.23719e-08
2.66149e-07
3.04084e-08
2.66348e-07
2.87058e-08
2.6652e-07
2.72008e-08
2.66672e-07
2.58726e-08
2.66807e-07
2.46903e-08
2.66927e-07
2.36246e-08
2.67034e-07
2.2655e-08
2.6713e-07
2.1767e-08
2.67215e-07
2.09498e-08
2.6729e-07
2.01946e-08
2.67354e-07
1.94943e-08
2.67409e-07
1.88431e-08
2.67453e-07
1.8236e-08
2.67486e-07
1.76689e-08
2.67509e-07
1.71381e-08
2.67521e-07
1.66408e-08
2.67521e-07
1.61742e-08
2.67509e-07
1.57362e-08
2.67485e-07
1.53251e-08
2.67449e-07
1.49395e-08
2.674e-07
1.45782e-08
2.67338e-07
1.42405e-08
2.67263e-07
1.39258e-08
2.67176e-07
1.36341e-08
2.67074e-07
1.33652e-08
2.66959e-07
1.31201e-08
2.66831e-07
1.28988e-08
2.66689e-07
1.27044e-08
2.66533e-07
1.2536e-08
2.66363e-07
1.24e-08
2.66178e-07
1.22936e-08
2.65979e-07
1.22288e-08
2.65763e-07
1.2199e-08
2.65532e-07
1.22236e-08
2.65282e-07
1.22941e-08
2.65016e-07
1.24324e-08
2.64728e-07
1.26434e-08
2.64419e-07
1.29265e-08
2.64089e-07
1.33453e-08
2.63717e-07
1.38378e-08
2.63333e-07
1.45888e-08
1.55528e-08
2.62894e-07
2.66276e-07
4.43662e-08
2.69339e-07
6.47951e-08
2.70593e-07
5.11742e-08
2.71655e-07
4.39326e-08
2.72414e-07
4.11642e-08
2.7285e-07
3.78319e-08
2.73175e-07
3.45516e-08
2.73461e-07
3.20854e-08
2.73704e-07
3.01657e-08
2.73907e-07
2.85033e-08
2.74081e-07
2.70267e-08
2.74234e-07
2.57195e-08
2.7437e-07
2.45544e-08
2.74491e-07
2.35033e-08
2.746e-07
2.25462e-08
2.74698e-07
2.16689e-08
2.74787e-07
2.08613e-08
2.74866e-07
2.01148e-08
2.74938e-07
1.94227e-08
2.75002e-07
1.87793e-08
2.75058e-07
1.818e-08
2.75106e-07
1.76206e-08
2.75146e-07
1.70977e-08
2.75179e-07
1.66084e-08
2.75203e-07
1.615e-08
2.75218e-07
1.57206e-08
2.75225e-07
1.53182e-08
2.75223e-07
1.49417e-08
2.75212e-07
1.45897e-08
2.75191e-07
1.42616e-08
2.75159e-07
1.39569e-08
2.75118e-07
1.36753e-08
2.75067e-07
1.34169e-08
2.75004e-07
1.31825e-08
2.74931e-07
1.29723e-08
2.74846e-07
1.27891e-08
2.74749e-07
1.26325e-08
2.74641e-07
1.25083e-08
2.7452e-07
1.24148e-08
2.74386e-07
1.23624e-08
2.74238e-07
1.23471e-08
2.74077e-07
1.23848e-08
2.73899e-07
1.24722e-08
2.73706e-07
1.26249e-08
2.73495e-07
1.28545e-08
2.73264e-07
1.31575e-08
2.73016e-07
1.35932e-08
2.72733e-07
1.41216e-08
2.72439e-07
1.48826e-08
1.58809e-08
2.72111e-07
2.74031e-07
4.03764e-08
2.7709e-07
6.17362e-08
2.78331e-07
4.99331e-08
2.79378e-07
4.2886e-08
2.80165e-07
4.03775e-08
2.80625e-07
3.73717e-08
2.80957e-07
3.42194e-08
2.81248e-07
3.1794e-08
2.81496e-07
2.99176e-08
2.81703e-07
2.82969e-08
2.81879e-07
2.68503e-08
2.82034e-07
2.55649e-08
2.82171e-07
2.44176e-08
2.82292e-07
2.33815e-08
2.82402e-07
2.2437e-08
2.825e-07
2.15705e-08
2.82589e-07
2.07722e-08
2.8267e-07
2.00341e-08
2.82743e-07
1.93496e-08
2.82809e-07
1.87133e-08
2.82868e-07
1.81208e-08
2.82921e-07
1.7568e-08
2.82967e-07
1.70516e-08
2.83006e-07
1.65688e-08
2.83039e-07
1.61171e-08
2.83065e-07
1.56943e-08
2.83085e-07
1.52989e-08
2.83097e-07
1.49294e-08
2.83102e-07
1.45848e-08
2.83099e-07
1.42643e-08
2.83089e-07
1.39674e-08
2.8307e-07
1.3694e-08
2.83043e-07
1.34439e-08
2.83007e-07
1.32183e-08
2.82962e-07
1.30172e-08
2.82908e-07
1.28432e-08
2.82844e-07
1.26965e-08
2.8277e-07
1.25822e-08
2.82685e-07
1.24997e-08
2.8259e-07
1.24579e-08
2.82482e-07
1.24552e-08
2.82362e-07
1.25043e-08
2.82228e-07
1.26061e-08
2.82081e-07
1.2772e-08
2.81919e-07
1.30169e-08
2.81738e-07
1.33381e-08
2.81544e-07
1.37876e-08
2.8132e-07
1.43453e-08
2.81088e-07
1.51146e-08
1.61311e-08
2.80838e-07
2.82038e-07
3.6676e-08
2.85082e-07
5.86923e-08
2.8632e-07
4.86951e-08
2.87348e-07
4.18581e-08
2.88158e-07
3.9567e-08
2.88644e-07
3.68863e-08
2.88985e-07
3.38782e-08
2.89281e-07
3.14976e-08
2.89535e-07
2.96641e-08
2.89745e-07
2.80862e-08
2.89924e-07
2.66714e-08
2.9008e-07
2.54088e-08
2.90218e-07
2.42798e-08
2.9034e-07
2.32591e-08
2.9045e-07
2.23276e-08
2.90548e-07
2.14722e-08
2.90637e-07
2.06834e-08
2.90717e-07
1.99537e-08
2.9079e-07
1.92768e-08
2.90856e-07
1.86475e-08
2.90915e-07
1.80614e-08
2.90968e-07
1.75149e-08
2.91015e-07
1.70046e-08
2.91056e-07
1.65278e-08
2.91091e-07
1.6082e-08
2.91121e-07
1.56652e-08
2.91144e-07
1.52759e-08
2.9116e-07
1.49126e-08
2.91171e-07
1.45743e-08
2.91175e-07
1.42604e-08
2.91172e-07
1.39702e-08
2.91162e-07
1.37037e-08
2.91145e-07
1.34609e-08
2.91121e-07
1.32427e-08
2.91089e-07
1.30494e-08
2.91049e-07
1.28834e-08
2.91e-07
1.27453e-08
2.90942e-07
1.26396e-08
2.90875e-07
1.25667e-08
2.90799e-07
1.25342e-08
2.90712e-07
1.25425e-08
2.90614e-07
1.26019e-08
2.90504e-07
1.27162e-08
2.90382e-07
1.2894e-08
2.90247e-07
1.31519e-08
2.90096e-07
1.34894e-08
2.89933e-07
1.39505e-08
2.89747e-07
1.45315e-08
2.89554e-07
1.53071e-08
1.63304e-08
2.89355e-07
2.90306e-07
3.32586e-08
2.93324e-07
5.56744e-08
2.94568e-07
4.74515e-08
2.95575e-07
4.0851e-08
2.96404e-07
3.87379e-08
2.96915e-07
3.63748e-08
2.97267e-07
3.35269e-08
2.97568e-07
3.11963e-08
2.97827e-07
2.94051e-08
2.98042e-07
2.78711e-08
2.98224e-07
2.64897e-08
2.98382e-07
2.5251e-08
2.98521e-07
2.41408e-08
2.98644e-07
2.31361e-08
2.98753e-07
2.2218e-08
2.98851e-07
2.1374e-08
2.9894e-07
2.05949e-08
2.9902e-07
1.98738e-08
2.99092e-07
1.92046e-08
2.99157e-07
1.85823e-08
2.99216e-07
1.80029e-08
2.99268e-07
1.74626e-08
2.99315e-07
1.69583e-08
2.99355e-07
1.64873e-08
2.9939e-07
1.60473e-08
2.99419e-07
1.56363e-08
2.99442e-07
1.52527e-08
2.99459e-07
1.48953e-08
2.9947e-07
1.4563e-08
2.99476e-07
1.42552e-08
2.99475e-07
1.39712e-08
2.99467e-07
1.37112e-08
2.99453e-07
1.34751e-08
2.99432e-07
1.32637e-08
2.99404e-07
1.30775e-08
2.99368e-07
1.29189e-08
2.99325e-07
1.27886e-08
2.99274e-07
1.26908e-08
2.99214e-07
1.26266e-08
2.99145e-07
1.26027e-08
2.99067e-07
1.2621e-08
2.98979e-07
1.26899e-08
2.9888e-07
1.28151e-08
2.9877e-07
1.30041e-08
2.98648e-07
1.32733e-08
2.98513e-07
1.36253e-08
2.98367e-07
1.40965e-08
2.98202e-07
1.46957e-08
2.98034e-07
1.54757e-08
1.64974e-08
2.97867e-07
2.98845e-07
3.01162e-08
3.01826e-07
5.26938e-08
3.03083e-07
4.61944e-08
3.04068e-07
3.98661e-08
3.0491e-07
3.78954e-08
3.05449e-07
3.58364e-08
3.05811e-07
3.3164e-08
3.06118e-07
3.08902e-08
3.06382e-07
2.91406e-08
3.06602e-07
2.76512e-08
3.06787e-07
2.63049e-08
3.06947e-07
2.50912e-08
3.07087e-07
2.40005e-08
3.07211e-07
2.30122e-08
3.07321e-07
2.21079e-08
3.07419e-07
2.12756e-08
3.07507e-07
2.05066e-08
3.07587e-07
1.97943e-08
3.07658e-07
1.9133e-08
3.07723e-07
1.85179e-08
3.0778e-07
1.79452e-08
3.07832e-07
1.74112e-08
3.07877e-07
1.6913e-08
3.07916e-07
1.6448e-08
3.0795e-07
1.60138e-08
3.07978e-07
1.56086e-08
3.08e-07
1.52308e-08
3.08016e-07
1.48791e-08
3.08026e-07
1.45527e-08
3.0803e-07
1.42509e-08
3.08028e-07
1.39731e-08
3.0802e-07
1.37194e-08
3.08006e-07
1.34897e-08
3.07984e-07
1.32849e-08
3.07956e-07
1.31056e-08
3.07921e-07
1.2954e-08
3.07879e-07
1.28311e-08
3.07829e-07
1.27409e-08
3.0777e-07
1.2685e-08
3.07704e-07
1.26693e-08
3.07628e-07
1.26967e-08
3.07543e-07
1.27747e-08
3.07448e-07
1.29101e-08
3.07343e-07
1.31096e-08
3.07227e-07
1.3389e-08
3.07098e-07
1.37541e-08
3.06961e-07
1.42342e-08
3.06809e-07
1.48471e-08
3.06655e-07
1.56298e-08
1.66443e-08
3.06508e-07
3.07665e-07
2.72388e-08
3.10597e-07
4.97618e-08
3.11874e-07
4.4917e-08
3.12836e-07
3.89038e-08
3.13687e-07
3.70448e-08
3.14252e-07
3.52713e-08
3.14628e-07
3.2788e-08
3.14939e-07
3.0579e-08
3.15209e-07
2.88709e-08
3.15434e-07
2.74263e-08
3.15622e-07
2.61167e-08
3.15784e-07
2.49293e-08
3.15926e-07
2.38588e-08
3.16051e-07
2.28873e-08
3.16162e-07
2.19973e-08
3.1626e-07
2.11771e-08
3.16348e-07
2.04185e-08
3.16427e-07
1.97152e-08
3.16498e-07
1.90619e-08
3.16562e-07
1.84543e-08
3.16619e-07
1.78884e-08
3.16669e-07
1.73609e-08
3.16713e-07
1.6869e-08
3.16751e-07
1.64099e-08
3.16783e-07
1.59816e-08
3.1681e-07
1.55823e-08
3.1683e-07
1.52103e-08
3.16845e-07
1.48646e-08
3.16853e-07
1.45441e-08
3.16856e-07
1.42483e-08
3.16853e-07
1.39766e-08
3.16843e-07
1.37291e-08
3.16827e-07
1.35059e-08
3.16804e-07
1.33077e-08
3.16774e-07
1.31352e-08
3.16738e-07
1.29905e-08
3.16694e-07
1.28749e-08
3.16643e-07
1.27921e-08
3.16584e-07
1.27441e-08
3.16516e-07
1.27365e-08
3.1644e-07
1.27728e-08
3.16355e-07
1.28597e-08
3.16261e-07
1.30044e-08
3.16157e-07
1.32141e-08
3.16043e-07
1.35028e-08
3.15917e-07
1.38796e-08
3.15784e-07
1.43678e-08
3.1564e-07
1.49908e-08
3.15495e-07
1.57743e-08
1.67776e-08
3.15362e-07
3.16775e-07
2.46153e-08
3.19647e-07
4.68893e-08
3.20951e-07
4.36136e-08
3.21891e-07
3.79638e-08
3.22744e-07
3.6191e-08
3.23335e-07
3.46804e-08
3.23726e-07
3.23973e-08
3.24042e-07
3.02624e-08
3.24317e-07
2.85958e-08
3.24548e-07
2.71961e-08
3.2474e-07
2.59248e-08
3.24904e-07
2.47649e-08
3.25047e-07
2.37154e-08
3.25174e-07
2.27612e-08
3.25285e-07
2.1886e-08
3.25384e-07
2.10782e-08
3.25472e-07
2.03302e-08
3.25551e-07
1.96363e-08
3.25621e-07
1.89913e-08
3.25685e-07
1.83913e-08
3.25741e-07
1.78324e-08
3.2579e-07
1.73116e-08
3.25833e-07
1.6826e-08
3.2587e-07
1.63731e-08
3.259e-07
1.59509e-08
3.25925e-07
1.55575e-08
3.25944e-07
1.51914e-08
3.25957e-07
1.48516e-08
3.25964e-07
1.45372e-08
3.25965e-07
1.42475e-08
3.25959e-07
1.3982e-08
3.25948e-07
1.37409e-08
3.25929e-07
1.35241e-08
3.25905e-07
1.33325e-08
3.25873e-07
1.31667e-08
3.25835e-07
1.3029e-08
3.25789e-07
1.29206e-08
3.25736e-07
1.28452e-08
3.25675e-07
1.28051e-08
3.25606e-07
1.28054e-08
3.25528e-07
1.28502e-08
3.25442e-07
1.29458e-08
3.25347e-07
1.30996e-08
3.25242e-07
1.33189e-08
3.25129e-07
1.36165e-08
3.25005e-07
1.40036e-08
3.24874e-07
1.4499e-08
3.24735e-07
1.5129e-08
3.24598e-07
1.59114e-08
1.69007e-08
3.24475e-07
3.26185e-07
2.2233e-08
3.28987e-07
4.40874e-08
3.3032e-07
4.22802e-08
3.31239e-07
3.70448e-08
3.32091e-07
3.53389e-08
3.32707e-07
3.40652e-08
3.33113e-07
3.19906e-08
3.33436e-07
2.99399e-08
3.33716e-07
2.83156e-08
3.33952e-07
2.69604e-08
3.34148e-07
2.57287e-08
3.34315e-07
2.45979e-08
3.3446e-07
2.35701e-08
3.34587e-07
2.26338e-08
3.347e-07
2.17737e-08
3.34799e-07
2.09788e-08
3.34887e-07
2.02418e-08
3.34966e-07
1.95574e-08
3.35037e-07
1.89211e-08
3.35099e-07
1.83288e-08
3.35154e-07
1.77771e-08
3.35203e-07
1.72631e-08
3.35245e-07
1.6784e-08
3.35281e-07
1.63374e-08
3.3531e-07
1.59214e-08
3.35333e-07
1.5534e-08
3.35351e-07
1.51741e-08
3.35362e-07
1.48404e-08
3.35367e-07
1.4532e-08
3.35366e-07
1.42485e-08
3.35359e-07
1.39894e-08
3.35345e-07
1.37546e-08