/*--------------------------------*- C++ -*----------------------------------*\
  =========                 |
  \\      /  F ield         | OpenFOAM: The Open Source CFD Toolbox
   \\    /   O peration     | Website:  https://openfoam.org
    \\  /    A nd           | Version:  7
     \\/     M anipulation  |
\*---------------------------------------------------------------------------*/
FoamFile
{
    version     2.0;
    format      ascii;
    class       volVectorField;
    location    "0.17";
    object      U;
}
// * * * * * * * * * * * * * * * * * * * * * * * * * * * * * * * * * * * * * //

dimensions      [0 1 -1 0 0 0 0];

internalField   nonuniform List<vector> 
70000
(
(0.55341 0.0169784 0)
(0.251393 0.00340086 0)
(0.165873 0.000319441 0)
(0.132358 4.94191e-05 0)
(0.117219 4.44579e-05 0)
(0.107227 5.26224e-05 0)
(0.0992224 4.48227e-05 0)
(0.0927458 3.57501e-05 0)
(0.0874696 2.97167e-05 0)
(0.0830691 2.55834e-05 0)
(0.0793158 2.24278e-05 0)
(0.076062 1.99023e-05 0)
(0.0732062 1.78477e-05 0)
(0.0706742 1.61548e-05 0)
(0.0684095 1.4743e-05 0)
(0.0663686 1.35524e-05 0)
(0.0645171 1.25387e-05 0)
(0.0628274 1.1669e-05 0)
(0.0612774 1.09177e-05 0)
(0.0598485 1.0266e-05 0)
(0.0585255 9.69828e-06 0)
(0.0572955 9.20292e-06 0)
(0.0561476 8.77021e-06 0)
(0.0550724 8.39298e-06 0)
(0.0540618 8.06472e-06 0)
(0.0531087 7.7817e-06 0)
(0.0522068 7.53896e-06 0)
(0.0513505 7.33574e-06 0)
(0.0505349 7.16745e-06 0)
(0.0497552 7.03684e-06 0)
(0.0490076 6.93744e-06 0)
(0.0482878 6.87894e-06 0)
(0.0475924 6.84717e-06 0)
(0.0469174 6.86678e-06 0)
(0.04626 6.90626e-06 0)
(0.045616 7.01672e-06 0)
(0.0449825 7.13826e-06 0)
(0.0443558 7.35506e-06 0)
(0.0437307 7.59203e-06 0)
(0.0431079 7.90653e-06 0)
(0.0424712 8.37917e-06 0)
(0.0418414 8.64002e-06 0)
(0.041161 9.79273e-06 0)
(0.0405254 9.27753e-06 0)
(0.0397347 1.26747e-05 0)
(0.0391397 8.6883e-06 0)
(0.0380744 1.95953e-05 0)
(0.0376995 2.97781e-06 0)
(0.036068 4.23619e-05 0)
(0.0338002 -0.00131215 0)
(0.884861 0.0434946 0)
(0.650112 0.0201518 0)
(0.493879 0.00660841 0)
(0.403381 0.00275889 0)
(0.35459 0.00155227 0)
(0.323192 0.0011361 0)
(0.299209 0.000913699 0)
(0.279919 0.00074909 0)
(0.264126 0.000626385 0)
(0.250928 0.000535915 0)
(0.239673 0.000467261 0)
(0.229918 0.000413263 0)
(0.221358 0.000369668 0)
(0.213768 0.000333823 0)
(0.206982 0.000303923 0)
(0.200867 0.000278676 0)
(0.195321 0.000257132 0)
(0.190263 0.000238584 0)
(0.185625 0.00022249 0)
(0.181352 0.000208438 0)
(0.177399 0.000196101 0)
(0.173728 0.000185223 0)
(0.170305 0.000175598 0)
(0.167104 0.000167062 0)
(0.164099 0.000159482 0)
(0.16127 0.000152751 0)
(0.158598 0.000146783 0)
(0.156068 0.00014151 0)
(0.153663 0.000136876 0)
(0.151372 0.000132845 0)
(0.149182 0.000129376 0)
(0.147081 0.000126475 0)
(0.14506 0.000124094 0)
(0.143107 0.000122305 0)
(0.141215 0.000121012 0)
(0.139372 0.000120419 0)
(0.137571 0.000120286 0)
(0.135802 0.0001211 0)
(0.13405 0.000122289 0)
(0.132318 0.000124864 0)
(0.130564 0.000127698 0)
(0.128843 0.000132482 0)
(0.127003 0.000137748 0)
(0.125297 0.000144838 0)
(0.123202 0.00015491 0)
(0.121632 0.000161989 0)
(0.118867 0.000186558 0)
(0.117866 0.000164419 0)
(0.113724 0.000385613 0)
(0.111176 -0.00204738 0)
(0.991209 0.049958 0)
(0.890896 0.0305688 0)
(0.762394 0.0146194 0)
(0.656337 0.00798105 0)
(0.585121 0.00489057 0)
(0.535632 0.00348591 0)
(0.497617 0.00274984 0)
(0.466867 0.00225549 0)
(0.441435 0.00189168 0)
(0.420014 0.00162005 0)
(0.401653 0.00141269 0)
(0.385684 0.00124955 0)
(0.371631 0.00111788 0)
(0.359145 0.00100958 0)
(0.347958 0.000919175 0)
(0.337864 0.000842762 0)
(0.328699 0.000777489 0)
(0.320332 0.000721223 0)
(0.312654 0.00067234 0)
(0.305578 0.000629588 0)
(0.29903 0.000591987 0)
(0.292948 0.000558758 0)
(0.287278 0.000529283 0)
(0.281976 0.00050306 0)
(0.277002 0.000479685 0)
(0.272322 0.00045883 0)
(0.267906 0.000440229 0)
(0.263728 0.000423669 0)
(0.259764 0.000408975 0)
(0.255992 0.000396023 0)
(0.252393 0.000384698 0)
(0.24895 0.000374968 0)
(0.245645 0.00036673 0)
(0.242462 0.000360098 0)
(0.239388 0.000354887 0)
(0.236406 0.000351512 0)
(0.233503 0.000349465 0)
(0.230666 0.000349868 0)
(0.227872 0.000351296 0)
(0.225126 0.000356513 0)
(0.222365 0.000361888 0)
(0.219669 0.000373727 0)
(0.216821 0.000383746 0)
(0.214181 0.000404971 0)
(0.211003 0.000421234 0)
(0.208583 0.000453711 0)
(0.20451 0.000488514 0)
(0.20287 0.000480062 0)
(0.196907 0.000800704 0)
(0.195185 -0.00165459 0)
(1.01554 0.0489568 0)
(1.00647 0.0357332 0)
(0.935811 0.0208336 0)
(0.851841 0.0135161 0)
(0.781944 0.00921736 0)
(0.726659 0.00680375 0)
(0.681425 0.00540791 0)
(0.643517 0.00446657 0)
(0.61136 0.00377166 0)
(0.583759 0.00324558 0)
(0.559774 0.00283928 0)
(0.5387 0.00251744 0)
(0.520006 0.00225651 0)
(0.503289 0.00204109 0)
(0.488233 0.00186066 0)
(0.47459 0.00170772 0)
(0.462158 0.00157672 0)
(0.450773 0.00146352 0)
(0.4403 0.00136495 0)
(0.430628 0.00127854 0)
(0.421661 0.00120237 0)
(0.41332 0.0011349 0)
(0.405535 0.0010749 0)
(0.398249 0.00102138 0)
(0.39141 0.000973513 0)
(0.384972 0.000930658 0)
(0.378897 0.000892272 0)
(0.373149 0.00085792 0)
(0.367698 0.000827249 0)
(0.362514 0.000799988 0)
(0.357573 0.000775911 0)
(0.35285 0.000754907 0)
(0.348324 0.000736801 0)
(0.343974 0.000721721 0)
(0.339782 0.000709387 0)
(0.335727 0.000700428 0)
(0.331791 0.00069403 0)
(0.327958 0.000692073 0)
(0.324202 0.00069205 0)
(0.320523 0.000699033 0)
(0.316852 0.000705887 0)
(0.313274 0.000725611 0)
(0.309545 0.000739392 0)
(0.306068 0.000778937 0)
(0.302003 0.00079881 0)
(0.298794 0.000867539 0)
(0.293777 0.000905623 0)
(0.291384 0.000937928 0)
(0.284352 0.00127785 0)
(0.282537 -0.000801057 0)
(1.01435 0.0461016 0)
(1.04797 0.0373524 0)
(1.02451 0.0242059 0)
(0.974549 0.0175824 0)
(0.923242 0.0131374 0)
(0.876378 0.0102359 0)
(0.834066 0.00837667 0)
(0.796163 0.00705386 0)
(0.762451 0.00604251 0)
(0.73249 0.00525438 0)
(0.705768 0.00463205 0)
(0.681815 0.00413113 0)
(0.66023 0.0037202 0)
(0.640682 0.00337776 0)
(0.622894 0.00308873 0)
(0.606634 0.00284214 0)
(0.59171 0.00262975 0)
(0.577959 0.00244533 0)
(0.565244 0.00228404 0)
(0.553446 0.00214211 0)
(0.542467 0.00201653 0)
(0.532219 0.00190491 0)
(0.522628 0.00180531 0)
(0.513628 0.00171616 0)
(0.505162 0.00163617 0)
(0.497179 0.00156428 0)
(0.489635 0.00149963 0)
(0.482489 0.0014415 0)
(0.475705 0.00138934 0)
(0.469251 0.00134267 0)
(0.463097 0.00130114 0)
(0.457216 0.00126451 0)
(0.451582 0.00123254 0)
(0.44617 0.00120533 0)
(0.440961 0.00118251 0)
(0.435929 0.0011649 0)
(0.431055 0.00115139 0)
(0.426318 0.00114463 0)
(0.421692 0.00114097 0)
(0.417172 0.00114798 0)
(0.412689 0.00115469 0)
(0.408321 0.0011815 0)
(0.403829 0.00119793 0)
(0.399598 0.0012563 0)
(0.394817 0.00127944 0)
(0.390855 0.00138578 0)
(0.385211 0.00142921 0)
(0.381934 0.00150768 0)
(0.374528 0.00185335 0)
(0.371602 0.000165728 0)
(1.0094 0.0430517 0)
(1.05563 0.0371094 0)
(1.05863 0.0253509 0)
(1.03621 0.0197933 0)
(1.00694 0.0158337 0)
(0.97581 0.0129736 0)
(0.944143 0.0110043 0)
(0.913122 0.00952148 0)
(0.883611 0.00832974 0)
(0.855997 0.00736126 0)
(0.830361 0.00657078 0)
(0.806642 0.00591801 0)
(0.784719 0.0053716 0)
(0.76445 0.00490882 0)
(0.745687 0.00451298 0)
(0.72829 0.00417146 0)
(0.712127 0.00387452 0)
(0.69708 0.00361458 0)
(0.68304 0.00338561 0)
(0.669914 0.00318285 0)
(0.657615 0.00300244 0)
(0.646067 0.00284125 0)
(0.635202 0.00269672 0)
(0.624961 0.00256677 0)
(0.615287 0.00244965 0)
(0.606134 0.00234393 0)
(0.597456 0.00224844 0)
(0.589214 0.00216218 0)
(0.581372 0.00208438 0)
(0.573896 0.00201438 0)
(0.566757 0.00195168 0)
(0.559924 0.00189592 0)
(0.553373 0.00184678 0)
(0.547077 0.00180433 0)
(0.541014 0.00176811 0)
(0.535158 0.00173912 0)
(0.52949 0.00171597 0)
(0.523986 0.00170203 0)
(0.51862 0.00169266 0)
(0.513381 0.00169765 0)
(0.508211 0.00170269 0)
(0.503165 0.00173476 0)
(0.498041 0.00175331 0)
(0.493154 0.00182819 0)
(0.487818 0.00185695 0)
(0.483162 0.00199489 0)
(0.477132 0.00205383 0)
(0.472943 0.00216652 0)
(0.465571 0.00253872 0)
(0.461287 0.00120184 0)
(1.00635 0.0401841 0)
(1.0524 0.0361641 0)
(1.06602 0.0252771 0)
(1.05945 0.020603 0)
(1.04675 0.0172677 0)
(1.0306 0.0147009 0)
(1.01158 0.0128738 0)
(0.990758 0.0114495 0)
(0.969197 0.0102521 0)
(0.947635 0.00923585 0)
(0.926519 0.0083751 0)
(0.906116 0.00764183 0)
(0.886574 0.00701173 0)
(0.867964 0.00646611 0)
(0.850306 0.00599058 0)
(0.833585 0.0055737 0)
(0.81777 0.00520624 0)
(0.802817 0.00488072 0)
(0.788678 0.00459101 0)
(0.775302 0.0043321 0)
(0.762639 0.00409985 0)
(0.750641 0.00389081 0)
(0.739262 0.00370213 0)
(0.728457 0.00353142 0)
(0.718187 0.00337669 0)
(0.708412 0.00323626 0)
(0.699097 0.00310873 0)
(0.69021 0.00299295 0)
(0.681719 0.00288795 0)
(0.673594 0.00279295 0)
(0.66581 0.00270733 0)
(0.658339 0.00263068 0)
(0.651159 0.00256258 0)
(0.644244 0.00250311 0)
(0.637574 0.00245175 0)
(0.631123 0.00240964 0)
(0.624875 0.00237524 0)
(0.618802 0.00235244 0)
(0.612884 0.00233593 0)
(0.607104 0.00233723 0)
(0.601416 0.00233964 0)
(0.59585 0.00237493 0)
(0.590253 0.00239586 0)
(0.584849 0.00248355 0)
(0.57912 0.00252187 0)
(0.573893 0.00268246 0)
(0.567651 0.00276858 0)
(0.562679 0.00290274 0)
(0.555466 0.00331563 0)
(0.550104 0.00231038 0)
(1.00506 0.0375074 0)
(1.04761 0.0350672 0)
(1.06392 0.0247321 0)
(1.06411 0.0206381 0)
(1.06057 0.0178118 0)
(1.05459 0.0155495 0)
(1.04573 0.0139398 0)
(1.03442 0.0126823 0)
(1.02137 0.011597 0)
(1.0072 0.0106447 0)
(0.992353 0.00981202 0)
(0.977202 0.00908153 0)
(0.962011 0.00843665 0)
(0.946977 0.00786447 0)
(0.932235 0.00735484 0)
(0.91788 0.00689943 0)
(0.90397 0.00649116 0)
(0.890537 0.00612403 0)
(0.8776 0.00579294 0)
(0.865161 0.00549352 0)
(0.853215 0.00522207 0)
(0.84175 0.00497541 0)
(0.830751 0.00475084 0)
(0.8202 0.00454605 0)
(0.810078 0.00435907 0)
(0.800363 0.00418821 0)
(0.791036 0.00403206 0)
(0.782076 0.00388942 0)
(0.773462 0.0037593 0)
(0.765174 0.00364089 0)
(0.757193 0.00353354 0)
(0.749498 0.00343682 0)
(0.742072 0.00335032 0)
(0.734893 0.00327413 0)
(0.727946 0.00320778 0)
(0.721208 0.00315249 0)
(0.714666 0.0031067 0)
(0.708294 0.00307469 0)
(0.702078 0.00305085 0)
(0.695993 0.00304773 0)
(0.690012 0.00304752 0)
(0.684139 0.00308457 0)
(0.678271 0.00310894 0)
(0.672547 0.00320597 0)
(0.666606 0.00325788 0)
(0.661003 0.00343343 0)
(0.654693 0.00355465 0)
(0.649183 0.00370534 0)
(0.642162 0.00416002 0)
(0.636125 0.00347207 0)
(1.00451 0.0349721 0)
(1.04358 0.0339887 0)
(1.0599 0.0240836 0)
(1.06216 0.0203522 0)
(1.0624 0.0178816 0)
(1.06167 0.0158356 0)
(1.05901 0.0144015 0)
(1.05436 0.0133115 0)
(1.04803 0.0123699 0)
(1.04033 0.0115309 0)
(1.03154 0.0107836 0)
(1.02192 0.0101145 0)
(1.01172 0.00951119 0)
(1.00112 0.00896431 0)
(0.990287 0.00846717 0)
(0.97936 0.00801435 0)
(0.968441 0.00760118 0)
(0.957609 0.0072236 0)
(0.946926 0.00687803 0)
(0.936435 0.0065613 0)
(0.926169 0.00627063 0)
(0.91615 0.00600353 0)
(0.906392 0.00575787 0)
(0.896903 0.00553173 0)
(0.887686 0.00532347 0)
(0.878741 0.00513165 0)
(0.870064 0.00495504 0)
(0.86165 0.00479259 0)
(0.853493 0.00464344 0)
(0.845582 0.00450684 0)
(0.83791 0.00438229 0)
(0.830464 0.00426938 0)
(0.823235 0.00416784 0)
(0.816208 0.0040778 0)
(0.809375 0.00399892 0)
(0.802717 0.00393252 0)
(0.796226 0.00387717 0)
(0.78988 0.00383737 0)
(0.783671 0.00380756 0)
(0.777574 0.00380078 0)
(0.771572 0.00379919 0)
(0.765657 0.00383778 0)
(0.759762 0.00386739 0)
(0.753964 0.00397169 0)
(0.748024 0.00404059 0)
(0.74229 0.00422656 0)
(0.736077 0.00438634 0)
(0.730322 0.00455546 0)
(0.72356 0.00504708 0)
(0.71723 0.00465455 0)
(1.00412 0.032542 0)
(1.04025 0.0329368 0)
(1.05613 0.0234515 0)
(1.0588 0.0199713 0)
(1.06013 0.0177572 0)
(1.06145 0.0158442 0)
(1.06175 0.014513 0)
(1.06076 0.01354 0)
(1.0586 0.0127159 0)
(1.05536 0.0119839 0)
(1.05114 0.0113308 0)
(1.04605 0.0107426 0)
(1.04022 0.0102068 0)
(1.03378 0.00971469 0)
(1.02686 0.00926085 0)
(1.01956 0.00884124 0)
(1.01198 0.00845265 0)
(1.0042 0.00809239 0)
(0.996302 0.00775809 0)
(0.988339 0.00744769 0)
(0.980362 0.00715932 0)
(0.972411 0.0068913 0)
(0.964517 0.00664215 0)
(0.956708 0.00641053 0)
(0.949002 0.00619524 0)
(0.941415 0.00599525 0)
(0.933959 0.00580966 0)
(0.926641 0.00563769 0)
(0.919467 0.00547871 0)
(0.912439 0.0053322 0)
(0.905557 0.00519782 0)
(0.898821 0.00507536 0)
(0.892227 0.00496468 0)
(0.885771 0.00486609 0)
(0.879449 0.00477939 0)
(0.87325 0.0047061 0)
(0.867171 0.00464496 0)
(0.861196 0.00460063 0)
(0.855321 0.00456788 0)
(0.849526 0.00455982 0)
(0.8438 0.00455942 0)
(0.838132 0.00460082 0)
(0.832479 0.0046382 0)
(0.82688 0.00474946 0)
(0.821179 0.00483818 0)
(0.815587 0.00503315 0)
(0.809665 0.00523203 0)
(0.803965 0.00542502 0)
(0.797592 0.00594804 0)
(0.791314 0.00582156 0)
(1.00374 0.0302083 0)
(1.03726 0.0318892 0)
(1.0528 0.0228506 0)
(1.05556 0.0195727 0)
(1.05704 0.0175715 0)
(1.05891 0.0157483 0)
(1.06028 0.014466 0)
(1.06089 0.0135578 0)
(1.0608 0.0128086 0)
(1.06004 0.0121522 0)
(1.05861 0.0115726 0)
(1.05653 0.0110545 0)
(1.05384 0.0105838 0)
(1.05057 0.0101507 0)
(1.0468 0.00974937 0)
(1.04259 0.00937562 0)
(1.038 0.00902652 0)
(1.03309 0.0086998 0)
(1.02792 0.00839362 0)
(1.02253 0.00810647 0)
(1.01697 0.00783705 0)
(1.01128 0.00758421 0)
(1.00551 0.00734696 0)
(0.999669 0.00712443 0)
(0.993794 0.00691583 0)
(0.987908 0.00672051 0)
(0.982027 0.0065379 0)
(0.976168 0.00636751 0)
(0.970344 0.006209 0)
(0.964564 0.00606209 0)
(0.958838 0.00592666 0)
(0.95317 0.0058027 0)
(0.947565 0.0056903 0)
(0.942024 0.00558996 0)
(0.93655 0.00550169 0)
(0.931138 0.00542717 0)
(0.925788 0.00536543 0)
(0.920493 0.00532126 0)
(0.915251 0.00528989 0)
(0.910048 0.00528422 0)
(0.904879 0.00528863 0)
(0.899732 0.0053354 0)
(0.89458 0.00538369 0)
(0.889442 0.00550316 0)
(0.884218 0.00561417 0)
(0.879028 0.00581909 0)
(0.873602 0.00605605 0)
(0.868239 0.0062795 0)
(0.862414 0.00682948 0)
(0.856496 0.00693543 0)
(1.00337 0.0279733 0)
(1.03442 0.0308337 0)
(1.04969 0.0222747 0)
(1.0526 0.0191715 0)
(1.05403 0.0173673 0)
(1.05597 0.0156232 0)
(1.05761 0.0143642 0)
(1.05874 0.013488 0)
(1.05947 0.0127807 0)
(1.05983 0.0121688 0)
(1.0598 0.0116354 0)
(1.05937 0.0111649 0)
(1.05852 0.0107422 0)
(1.05727 0.0103564 0)
(1.05563 0.0100003 0)
(1.05362 0.0096693 0)
(1.05127 0.00936 0)
(1.0486 0.00906988 0)
(1.04565 0.00879702 0)
(1.04245 0.00853994 0)
(1.03902 0.00829745 0)
(1.0354 0.00806858 0)
(1.03161 0.00785253 0)
(1.02768 0.00764864 0)
(1.02363 0.00745637 0)
(1.01948 0.00727527 0)
(1.01525 0.00710503 0)
(1.01097 0.00694536 0)
(1.00663 0.00679614 0)
(1.00226 0.00665728 0)
(0.99786 0.00652887 0)
(0.99345 0.00641109 0)
(0.989032 0.00630422 0)
(0.984613 0.00620895 0)
(0.980198 0.0061255 0)
(0.975787 0.00605574 0)
(0.971385 0.00599896 0)
(0.966987 0.00596007 0)
(0.962595 0.00593485 0)
(0.9582 0.00593582 0)
(0.953801 0.00594908 0)
(0.949389 0.00600445 0)
(0.944945 0.006067 0)
(0.94048 0.00619684 0)
(0.93593 0.00633218 0)
(0.931356 0.00654944 0)
(0.926604 0.00682264 0)
(0.921811 0.00708269 0)
(0.916685 0.00765649 0)
(0.911377 0.00795984 0)
(1.00301 0.0258407 0)
(1.0317 0.029766 0)
(1.0467 0.0217201 0)
(1.0498 0.0187675 0)
(1.05122 0.0171516 0)
(1.05311 0.0154914 0)
(1.05479 0.0142488 0)
(1.05604 0.01339 0)
(1.057 0.0127069 0)
(1.05775 0.0121199 0)
(1.05829 0.0116121 0)
(1.0586 0.0111694 0)
(1.05866 0.0107762 0)
(1.05849 0.0104213 0)
(1.05805 0.0100967 0)
(1.05737 0.00979743 0)
(1.05644 0.00951941 0)
(1.05527 0.00925979 0)
(1.05387 0.00901634 0)
(1.05225 0.00878735 0)
(1.05042 0.00857147 0)
(1.04841 0.00836764 0)
(1.04621 0.00817502 0)
(1.04386 0.00799295 0)
(1.04137 0.00782092 0)
(1.03874 0.00765855 0)
(1.03599 0.00750558 0)
(1.03314 0.00736186 0)
(1.0302 0.00722733 0)
(1.02718 0.00710206 0)
(1.02408 0.00698622 0)
(1.02093 0.00688015 0)
(1.01771 0.00678424 0)
(1.01445 0.00669935 0)
(1.01115 0.00662585 0)
(1.00781 0.00656579 0)
(1.00443 0.00651869 0)
(1.00102 0.00648951 0)
(0.99758 0.00647464 0)
(0.9941 0.00648607 0)
(0.990582 0.00651181 0)
(0.987021 0.00657881 0)
(0.983405 0.00665851 0)
(0.979737 0.00680105 0)
(0.975982 0.00696196 0)
(0.972161 0.00719445 0)
(0.968195 0.00750141 0)
(0.964128 0.00780262 0)
(0.959806 0.0083981 0)
(0.955272 0.00886436 0)
(1.00268 0.0238128 0)
(1.0291 0.0286846 0)
(1.04378 0.0211863 0)
(1.04711 0.0183605 0)
(1.04853 0.0169226 0)
(1.05039 0.0153553 0)
(1.05206 0.0141309 0)
(1.05332 0.0132847 0)
(1.05431 0.0126192 0)
(1.05516 0.0120483 0)
(1.05587 0.0115552 0)
(1.05645 0.0111278 0)
(1.05688 0.0107513 0)
(1.05717 0.0104141 0)
(1.05732 0.0101086 0)
(1.05731 0.00982927 0)
(1.05715 0.00957193 0)
(1.05683 0.00933345 0)
(1.05636 0.00911138 0)
(1.05572 0.00890378 0)
(1.05494 0.00870911 0)
(1.05401 0.00852615 0)
(1.05293 0.00835392 0)
(1.05171 0.00819165 0)
(1.05036 0.00803876 0)
(1.04889 0.00789481 0)
(1.0473 0.00775952 0)
(1.04561 0.00763272 0)
(1.0438 0.00751439 0)
(1.04191 0.0074046 0)
(1.03992 0.00730357 0)
(1.03785 0.00721172 0)
(1.03571 0.00712946 0)
(1.03349 0.0070578 0)
(1.03121 0.00699716 0)
(1.02886 0.00694972 0)
(1.02646 0.00691521 0)
(1.02399 0.00689858 0)
(1.02147 0.00689682 0)
(1.01889 0.00692123 0)
(1.01624 0.00696189 0)
(1.01354 0.00704261 0)
(1.01077 0.00714123 0)
(1.00792 0.00729825 0)
(1.00498 0.0074848 0)
(1.00196 0.00773498 0)
(0.998808 0.00807266 0)
(0.995527 0.00841716 0)
(0.99204 0.00903277 0)
(0.988349 0.00962939 0)
(1.00238 0.0218915 0)
(1.02663 0.0275886 0)
(1.04096 0.0206731 0)
(1.0445 0.0179522 0)
(1.04594 0.0166791 0)
(1.04777 0.0152136 0)
(1.04943 0.0140118 0)
(1.05069 0.0131774 0)
(1.05168 0.0125278 0)
(1.05252 0.0119704 0)
(1.05327 0.0114878 0)
(1.05391 0.0110699 0)
(1.05446 0.0107032 0)
(1.05492 0.0103763 0)
(1.05529 0.0100816 0)
(1.05557 0.00981372 0)
(1.05576 0.00956858 0)
(1.05585 0.00934301 0)
(1.05585 0.00913447 0)
(1.05575 0.00894094 0)
(1.05555 0.00876078 0)
(1.05525 0.00859264 0)
(1.05485 0.00843545 0)
(1.05434 0.00828833 0)
(1.05374 0.0081506 0)
(1.05304 0.00802176 0)
(1.05224 0.00790146 0)
(1.05135 0.00778948 0)
(1.05037 0.00768576 0)
(1.0493 0.00759035 0)
(1.04815 0.00750346 0)
(1.04692 0.00742552 0)
(1.04561 0.00735696 0)
(1.04422 0.00729881 0)
(1.04277 0.00725155 0)
(1.04124 0.00721743 0)
(1.03964 0.00719632 0)
(1.03798 0.00719312 0)
(1.03625 0.0072054 0)
(1.03445 0.00724366 0)
(1.03259 0.00730007 0)
(1.03065 0.00739524 0)
(1.02863 0.00751306 0)
(1.02654 0.00768529 0)
(1.02436 0.00789625 0)
(1.02208 0.00816551 0)
(1.01969 0.00853033 0)
(1.01716 0.00891763 0)
(1.01446 0.00955182 0)
(1.01159 0.0102492 0)
(1.0021 0.0200777 0)
(1.02429 0.02648 0)
(1.03823 0.0201781 0)
(1.04198 0.0175445 0)
(1.04343 0.0164211 0)
(1.04523 0.0150649 0)
(1.0469 0.0138908 0)
(1.04815 0.0130682 0)
(1.04913 0.0124345 0)
(1.04996 0.0118906 0)
(1.0507 0.0114176 0)
(1.05135 0.0110074 0)
(1.05191 0.0106477 0)
(1.05241 0.0103276 0)
(1.05285 0.0100396 0)
(1.05323 0.00977856 0)
(1.05355 0.00954053 0)
(1.05381 0.00932248 0)
(1.05401 0.00912192 0)
(1.05416 0.00893686 0)
(1.05424 0.00876567 0)
(1.05425 0.00860697 0)
(1.05421 0.00845966 0)
(1.05409 0.00832281 0)
(1.05391 0.0081957 0)
(1.05366 0.00807775 0)
(1.05334 0.00796859 0)
(1.05295 0.00786795 0)
(1.05249 0.00777572 0)
(1.05196 0.00769194 0)
(1.05136 0.00761678 0)
(1.0507 0.00755067 0)
(1.04997 0.007494 0)
(1.04917 0.00744785 0)
(1.04831 0.00741269 0)
(1.04738 0.00739081 0)
(1.04639 0.00738222 0)
(1.04534 0.00739164 0)
(1.04422 0.0074173 0)
(1.04303 0.00746876 0)
(1.04178 0.00754027 0)
(1.04046 0.00764929 0)
(1.03906 0.00778522 0)
(1.03758 0.00797226 0)
(1.03603 0.00820523 0)
(1.03437 0.00849369 0)
(1.03262 0.0088817 0)
(1.03075 0.00930899 0)
(1.02873 0.0099599 0)
(1.02657 0.0107321 0)
(1.00185 0.0183718 0)
(1.02209 0.0253628 0)
(1.0356 0.0196977 0)
(1.03954 0.017139 0)
(1.04102 0.0161493 0)
(1.04279 0.0149084 0)
(1.04446 0.0137675 0)
(1.04571 0.0129572 0)
(1.04668 0.0123395 0)
(1.0475 0.0118096 0)
(1.04822 0.0113464 0)
(1.04885 0.0109436 0)
(1.04941 0.0105903 0)
(1.04991 0.0102759 0)
(1.05036 0.00999299 0)
(1.05076 0.00973673 0)
(1.05111 0.00950339 0)
(1.05142 0.00929006 0)
(1.0517 0.00909439 0)
(1.05193 0.00891447 0)
(1.05212 0.00874872 0)
(1.05228 0.00859583 0)
(1.05239 0.00845468 0)
(1.05246 0.00832438 0)
(1.05248 0.00820419 0)
(1.05246 0.00809353 0)
(1.05239 0.00799199 0)
(1.05227 0.00789931 0)
(1.0521 0.00781536 0)
(1.05188 0.00774017 0)
(1.05161 0.00767388 0)
(1.05129 0.00761691 0)
(1.05092 0.00756965 0)
(1.05049 0.00753318 0)
(1.05001 0.00750799 0)
(1.04948 0.00749634 0)
(1.0489 0.00749841 0)
(1.04825 0.0075187 0)
(1.04755 0.00755607 0)
(1.0468 0.00761913 0)
(1.04598 0.00770407 0)
(1.0451 0.00782548 0)
(1.04416 0.00797746 0)
(1.04314 0.00817813 0)
(1.04205 0.00843002 0)
(1.04088 0.0087367 0)
(1.03962 0.00914394 0)
(1.03825 0.00960673 0)
(1.03677 0.0102722 0)
(1.03518 0.0110972 0)
(1.00162 0.0167733 0)
(1.02003 0.0242414 0)
(1.03307 0.0192278 0)
(1.03719 0.0167376 0)
(1.0387 0.0158646 0)
(1.04043 0.0147433 0)
(1.0421 0.0136416 0)
(1.04335 0.0128441 0)
(1.04431 0.0122424 0)
(1.04512 0.0117273 0)
(1.04583 0.0112745 0)
(1.04645 0.0108794 0)
(1.047 0.0105324 0)
(1.04749 0.0102234 0)
(1.04792 0.00994523 0)
(1.04832 0.00969313 0)
(1.04867 0.0094636 0)
(1.04899 0.00925387 0)
(1.04928 0.00906172 0)
(1.04954 0.00888533 0)
(1.04977 0.00872323 0)
(1.04996 0.00857414 0)
(1.05013 0.00843702 0)
(1.05027 0.008311 0)
(1.05038 0.00819536 0)
(1.05046 0.00808955 0)
(1.0505 0.00799317 0)
(1.05051 0.00790596 0)
(1.05048 0.0078278 0)
(1.05042 0.00775873 0)
(1.05032 0.00769888 0)
(1.05018 0.00764869 0)
(1.05 0.00760854 0)
(1.04978 0.0075795 0)
(1.04952 0.00756211 0)
(1.04922 0.00755859 0)
(1.04888 0.00756929 0)
(1.04848 0.00759847 0)
(1.04805 0.00764561 0)
(1.04756 0.00771838 0)
(1.04702 0.00781472 0)
(1.04643 0.00794674 0)
(1.04578 0.00811238 0)
(1.04507 0.00832512 0)
(1.0443 0.00859273 0)
(1.04346 0.00891602 0)
(1.04255 0.00933887 0)
(1.04154 0.00983187 0)
(1.04045 0.0105094 0)
(1.03928 0.0113696 0)
(1.00142 0.0152816 0)
(1.0181 0.0231196 0)
(1.03064 0.0187644 0)
(1.03493 0.0163415 0)
(1.03648 0.0155686 0)
(1.03817 0.0145692 0)
(1.03982 0.0135128 0)
(1.04109 0.012729 0)
(1.04204 0.0121431 0)
(1.04284 0.0116435 0)
(1.04353 0.0112017 0)
(1.04414 0.0108145 0)
(1.04468 0.0104741 0)
(1.04515 0.0101707 0)
(1.04558 0.00989726 0)
(1.04596 0.00964925 0)
(1.04631 0.00942332 0)
(1.04662 0.00921685 0)
(1.0469 0.00902776 0)
(1.04716 0.00885431 0)
(1.04739 0.00869511 0)
(1.0476 0.00854896 0)
(1.04778 0.00841487 0)
(1.04794 0.00829201 0)
(1.04807 0.00817969 0)
(1.04818 0.00807739 0)
(1.04827 0.00798474 0)
(1.04832 0.00790151 0)
(1.04836 0.00782758 0)
(1.04836 0.00776303 0)
(1.04833 0.00770799 0)
(1.04828 0.00766291 0)
(1.04819 0.00762819 0)
(1.04808 0.0076049 0)
(1.04793 0.00759363 0)
(1.04775 0.00759655 0)
(1.04753 0.0076142 0)
(1.04727 0.00765057 0)
(1.04698 0.00770577 0)
(1.04664 0.00778657 0)
(1.04626 0.00789248 0)
(1.04584 0.0080335 0)
(1.04537 0.00821056 0)
(1.04485 0.00843388 0)
(1.04428 0.00871438 0)
(1.04364 0.00905246 0)
(1.04295 0.00948794 0)
(1.04218 0.0100058 0)
(1.04135 0.0106932 0)
(1.04046 0.0115746 0)
(1.00124 0.0138952 0)
(1.01631 0.0220016 0)
(1.02832 0.0183037 0)
(1.03276 0.015952 0)
(1.03435 0.0152627 0)
(1.036 0.0143854 0)
(1.03764 0.0133807 0)
(1.03891 0.0126119 0)
(1.03986 0.0120417 0)
(1.04064 0.011558 0)
(1.04133 0.0111278 0)
(1.04193 0.0107491 0)
(1.04245 0.0104154 0)
(1.04292 0.0101177 0)
(1.04333 0.00984923 0)
(1.0437 0.0096054 0)
(1.04403 0.0093831 0)
(1.04434 0.00917989 0)
(1.04461 0.00899376 0)
(1.04486 0.00882311 0)
(1.04508 0.0086666 0)
(1.04528 0.00852311 0)
(1.04546 0.00839168 0)
(1.04562 0.00827153 0)
(1.04576 0.00816201 0)
(1.04587 0.00806263 0)
(1.04597 0.00797305 0)
(1.04604 0.00789306 0)
(1.04609 0.00782257 0)
(1.04611 0.00776168 0)
(1.04611 0.00771053 0)
(1.04609 0.00766961 0)
(1.04604 0.00763931 0)
(1.04597 0.00762073 0)
(1.04587 0.00761451 0)
(1.04574 0.00762274 0)
(1.04557 0.00764621 0)
(1.04538 0.00768861 0)
(1.04516 0.00775062 0)
(1.0449 0.00783825 0)
(1.04461 0.00795231 0)
(1.04427 0.00810113 0)
(1.0439 0.00828785 0)
(1.04348 0.00852057 0)
(1.04302 0.00881177 0)
(1.04251 0.00916295 0)
(1.04194 0.00960887 0)
(1.04132 0.0101467 0)
(1.04065 0.0108418 0)
(1.03995 0.0117342 0)
(1.00107 0.0126121 0)
(1.01465 0.0208914 0)
(1.02612 0.0178424 0)
(1.03067 0.01557 0)
(1.03231 0.0149489 0)
(1.03392 0.0141916 0)
(1.03555 0.0132449 0)
(1.03682 0.012493 0)
(1.03776 0.0119381 0)
(1.03854 0.0114707 0)
(1.03921 0.0110529 0)
(1.0398 0.0106829 0)
(1.04032 0.0103562 0)
(1.04077 0.0100646 0)
(1.04117 0.0098011 0)
(1.04153 0.00956159 0)
(1.04186 0.00934304 0)
(1.04215 0.00914315 0)
(1.04241 0.00896005 0)
(1.04265 0.00879221 0)
(1.04287 0.00863838 0)
(1.04306 0.00849749 0)
(1.04323 0.00836865 0)
(1.04338 0.0082511 0)
(1.04351 0.00814423 0)
(1.04362 0.00804758 0)
(1.04371 0.00796082 0)
(1.04378 0.00788379 0)
(1.04383 0.00781641 0)
(1.04386 0.00775881 0)
(1.04387 0.00771116 0)
(1.04385 0.00767393 0)
(1.04381 0.00764757 0)
(1.04375 0.00763316 0)
(1.04367 0.00763142 0)
(1.04356 0.00764436 0)
(1.04342 0.00767299 0)
(1.04325 0.00772073 0)
(1.04306 0.0077888 0)
(1.04283 0.00788254 0)
(1.04258 0.00800379 0)
(1.04229 0.00815968 0)
(1.04196 0.00835482 0)
(1.0416 0.00859614 0)
(1.04119 0.00889649 0)
(1.04074 0.00925934 0)
(1.04025 0.00971419 0)
(1.03972 0.0102679 0)
(1.03914 0.0109689 0)
(1.03856 0.0118649 0)
(1.00093 0.0114296 0)
(1.01313 0.019793 0)
(1.02402 0.0173774 0)
(1.02867 0.0151961 0)
(1.03037 0.014629 0)
(1.03194 0.0139874 0)
(1.03354 0.0131047 0)
(1.03481 0.0123721 0)
(1.03576 0.0118322 0)
(1.03653 0.0113815 0)
(1.03719 0.0109768 0)
(1.03777 0.010616 0)
(1.03828 0.0102966 0)
(1.03872 0.010011 0)
(1.03911 0.00975282 0)
(1.03946 0.00951778 0)
(1.03978 0.00930309 0)
(1.04006 0.00910663 0)
(1.04031 0.00892664 0)
(1.04054 0.00876169 0)
(1.04075 0.0086106 0)
(1.04093 0.00847237 0)
(1.04109 0.00834614 0)
(1.04124 0.0082312 0)
(1.04136 0.00812698 0)
(1.04146 0.00803303 0)
(1.04155 0.00794906 0)
(1.04161 0.00787492 0)
(1.04165 0.00781058 0)
(1.04168 0.00775616 0)
(1.04168 0.00771186 0)
(1.04166 0.00767817 0)
(1.04163 0.00765557 0)
(1.04157 0.00764511 0)
(1.04148 0.0076476 0)
(1.04137 0.00766498 0)
(1.04124 0.00769845 0)
(1.04109 0.00775122 0)
(1.0409 0.00782494 0)
(1.04069 0.00792442 0)
(1.04045 0.0080523 0)
(1.04018 0.00821486 0)
(1.03987 0.00841762 0)
(1.03953 0.008667 0)
(1.03916 0.00897553 0)
(1.03875 0.00934885 0)
(1.0383 0.00981163 0)
(1.03781 0.0103778 0)
(1.0373 0.0110831 0)
(1.03679 0.0119775 0)
(1.0008 0.0103446 0)
(1.01173 0.0187107 0)
(1.02203 0.0169058 0)
(1.02675 0.0148307 0)
(1.02852 0.0143053 0)
(1.03005 0.0137728 0)
(1.03163 0.0129595 0)
(1.0329 0.0122493 0)
(1.03385 0.0117242 0)
(1.03461 0.0112903 0)
(1.03526 0.0108992 0)
(1.03583 0.0105482 0)
(1.03633 0.0102363 0)
(1.03676 0.00995711 0)
(1.03715 0.00970433 0)
(1.03749 0.00947391 0)
(1.03779 0.00926322 0)
(1.03807 0.0090703 0)
(1.03831 0.00889351 0)
(1.03853 0.00873154 0)
(1.03873 0.00858327 0)
(1.0389 0.00844776 0)
(1.03906 0.00832421 0)
(1.03919 0.00821194 0)
(1.03931 0.00811041 0)
(1.0394 0.00801921 0)
(1.03948 0.00793806 0)
(1.03953 0.00786685 0)
(1.03957 0.00780556 0)
(1.03959 0.00775433 0)
(1.03959 0.00771338 0)
(1.03957 0.00768321 0)
(1.03952 0.00766432 0)
(1.03946 0.00765776 0)
(1.03937 0.00766441 0)
(1.03926 0.00768616 0)
(1.03913 0.00772435 0)
(1.03897 0.00778202 0)
(1.03879 0.00786118 0)
(1.03858 0.00796625 0)
(1.03835 0.00810045 0)
(1.03808 0.00826947 0)
(1.03779 0.00847936 0)
(1.03746 0.00873645 0)
(1.0371 0.00905252 0)
(1.03671 0.00943533 0)
(1.03629 0.0099053 0)
(1.03584 0.0104811 0)
(1.03537 0.0111892 0)
(1.03491 0.0120785 0)
(1.00069 0.00935319 0)
(1.01045 0.0176485 0)
(1.02016 0.0164256 0)
(1.02492 0.0144735 0)
(1.02676 0.0139795 0)
(1.02825 0.013548 0)
(1.0298 0.0128088 0)
(1.03107 0.0121244 0)
(1.03202 0.0116141 0)
(1.03278 0.0111969 0)
(1.03342 0.0108202 0)
(1.03399 0.0104794 0)
(1.03447 0.0101754 0)
(1.0349 0.00990273 0)
(1.03527 0.00965556 0)
(1.03561 0.00942992 0)
(1.0359 0.00922337 0)
(1.03617 0.00903409 0)
(1.0364 0.00886062 0)
(1.03661 0.00870171 0)
(1.0368 0.00855634 0)
(1.03697 0.00842363 0)
(1.03712 0.00830283 0)
(1.03724 0.00819331 0)
(1.03735 0.00809454 0)
(1.03744 0.00800615 0)
(1.03751 0.00792789 0)
(1.03756 0.00785967 0)
(1.03759 0.00780147 0)
(1.0376 0.00775348 0)
(1.03759 0.00771593 0)
(1.03756 0.00768932 0)
(1.03752 0.00767417 0)
(1.03745 0.00767154 0)
(1.03736 0.00768235 0)
(1.03724 0.00770844 0)
(1.03711 0.00775132 0)
(1.03695 0.00781388 0)
(1.03677 0.00789839 0)
(1.03656 0.00800899 0)
(1.03633 0.0081493 0)
(1.03607 0.00832469 0)
(1.03578 0.00854138 0)
(1.03546 0.0088059 0)
(1.03511 0.00912909 0)
(1.03474 0.00952047 0)
(1.03433 0.00999701 0)
(1.03391 0.0105801 0)
(1.03347 0.0112895 0)
(1.03305 0.0121712 0)
(1.0006 0.00845106 0)
(1.00929 0.0166104 0)
(1.0184 0.0159348 0)
(1.02318 0.0141244 0)
(1.02508 0.0136537 0)
(1.02655 0.0133135 0)
(1.02806 0.0126519 0)
(1.02933 0.0119973 0)
(1.03028 0.0115019 0)
(1.03103 0.0111014 0)
(1.03167 0.0107396 0)
(1.03222 0.0104096 0)
(1.03271 0.0101137 0)
(1.03312 0.0098478 0)
(1.03349 0.00960643 0)
(1.03381 0.00938575 0)
(1.0341 0.00918347 0)
(1.03436 0.00899796 0)
(1.03459 0.0088279 0)
(1.03479 0.00867215 0)
(1.03497 0.00852977 0)
(1.03513 0.00839995 0)
(1.03527 0.00828198 0)
(1.03539 0.00817528 0)
(1.03549 0.00807935 0)
(1.03557 0.00799384 0)
(1.03564 0.00791853 0)
(1.03568 0.00785336 0)
(1.0357 0.00779833 0)
(1.03571 0.00775364 0)
(1.0357 0.00771955 0)
(1.03566 0.00769655 0)
(1.03561 0.0076852 0)
(1.03554 0.00768653 0)
(1.03544 0.00770154 0)
(1.03533 0.007732 0)
(1.03519 0.00777957 0)
(1.03503 0.00784701 0)
(1.03485 0.00793682 0)
(1.03464 0.00805294 0)
(1.03441 0.00819923 0)
(1.03415 0.00838089 0)
(1.03387 0.00860414 0)
(1.03355 0.0088758 0)
(1.03321 0.00920576 0)
(1.03285 0.00960485 0)
(1.03246 0.0100873 0)
(1.03206 0.0106757 0)
(1.03165 0.011385 0)
(1.03127 0.0122572 0)
(1.00051 0.00763344 0)
(1.00824 0.0156004 0)
(1.01676 0.0154322 0)
(1.02152 0.0137827 0)
(1.02349 0.0133296 0)
(1.02493 0.01307 0)
(1.02641 0.0124883 0)
(1.02767 0.0118677 0)
(1.02863 0.0113877 0)
(1.02937 0.0110035 0)
(1.03 0.0106571 0)
(1.03055 0.0103386 0)
(1.03103 0.0100511 0)
(1.03144 0.00979224 0)
(1.0318 0.00955687 0)
(1.03211 0.00934131 0)
(1.03239 0.00914345 0)
(1.03264 0.00896184 0)
(1.03287 0.0087953 0)
(1.03306 0.00864281 0)