/*--------------------------------*- C++ -*----------------------------------*\
  =========                 |
  \\      /  F ield         | OpenFOAM: The Open Source CFD Toolbox
   \\    /   O peration     | Website:  https://openfoam.org
    \\  /    A nd           | Version:  7
     \\/     M anipulation  |
\*---------------------------------------------------------------------------*/
FoamFile
{
    version     2.0;
    format      ascii;
    class       volVectorField;
    location    "0.17";
    object      vorticity;
}
// * * * * * * * * * * * * * * * * * * * * * * * * * * * * * * * * * * * * * //

dimensions      [0 0 -1 0 0 0 0];

internalField   nonuniform List<vector> 
70000
(
(0 -0 -45715.9)
(0 -0 -28615.7)
(0 -0 -20908.4)
(0 -0 -16971.5)
(0 -0 -14946.5)
(0 -0 -13635.6)
(0 -0 -12622.2)
(0 -0 -11805.8)
(0 -0 -11138.4)
(0 -0 -10580.8)
(0 -0 -10105.3)
(0 -0 -9693.22)
(0 -0 -9331.55)
(0 -0 -9010.89)
(0 -0 -8724.14)
(0 -0 -8465.76)
(0 -0 -8231.41)
(0 -0 -8017.63)
(0 -0 -7821.58)
(0 -0 -7640.95)
(0 -0 -7473.8)
(0 -0 -7318.52)
(0 -0 -7173.72)
(0 -0 -7038.22)
(0 -0 -6911)
(0 -0 -6791.17)
(0 -0 -6677.95)
(0 -0 -6570.64)
(0 -0 -6468.62)
(0 -0 -6371.32)
(0 -0 -6278.23)
(0 -0 -6188.86)
(0 -0 -6102.78)
(0 -0 -6019.52)
(0 -0 -5938.73)
(0 -0 -5859.93)
(0 -0 -5782.77)
(0 -0 -5706.83)
(0 -0 -5631.49)
(0 -0 -5556.87)
(0 -0 -5481.09)
(0 -0 -5406.57)
(0 -0 -5326.7)
(0 -0 -5252.45)
(0 -0 -5160.96)
(0 -0 -5092.3)
(0 -0 -4970.91)
(0 -0 -4927.18)
(0 -0 -4748.89)
(0 -0 -4569.36)
(0 -0 -13549.8)
(0 -0 -19947.1)
(0 -0 -18534.6)
(0 -0 -16245.9)
(0 -0 -14497.5)
(0 -0 -13270.8)
(0 -0 -12340)
(0 -0 -11587.4)
(0 -0 -10962.6)
(0 -0 -10435.1)
(0 -0 -9982.46)
(0 -0 -9588.48)
(0 -0 -9241.57)
(0 -0 -8933.17)
(0 -0 -8656.77)
(0 -0 -8407.3)
(0 -0 -8180.75)
(0 -0 -7973.9)
(0 -0 -7784.1)
(0 -0 -7609.18)
(0 -0 -7447.33)
(0 -0 -7297.03)
(0 -0 -7156.96)
(0 -0 -7026.03)
(0 -0 -6903.27)
(0 -0 -6787.83)
(0 -0 -6679)
(0 -0 -6576.1)
(0 -0 -6478.57)
(0 -0 -6385.88)
(0 -0 -6297.57)
(0 -0 -6213.18)
(0 -0 -6132.35)
(0 -0 -6054.65)
(0 -0 -5979.78)
(0 -0 -5907.34)
(0 -0 -5837.02)
(0 -0 -5768.51)
(0 -0 -5701.31)
(0 -0 -5635.5)
(0 -0 -5569.66)
(0 -0 -5505.6)
(0 -0 -5438.4)
(0 -0 -5376.22)
(0 -0 -5302.2)
(0 -0 -5245.57)
(0 -0 -5152.32)
(0 -0 -5112.45)
(0 -0 -4986.61)
(0 -0 -4984.9)
(0 -0 -3818.86)
(0 -0 -10829.3)
(0 -0 -13364)
(0 -0 -13519.5)
(0 -0 -12864.8)
(0 -0 -12137)
(0 -0 -11493.7)
(0 -0 -10931.6)
(0 -0 -10438.1)
(0 -0 -10004.1)
(0 -0 -9620.75)
(0 -0 -9279.98)
(0 -0 -8975)
(0 -0 -8700.34)
(0 -0 -8451.58)
(0 -0 -8225.12)
(0 -0 -8017.98)
(0 -0 -7827.72)
(0 -0 -7652.27)
(0 -0 -7489.9)
(0 -0 -7339.15)
(0 -0 -7198.74)
(0 -0 -7067.61)
(0 -0 -6944.81)
(0 -0 -6829.53)
(0 -0 -6721.05)
(0 -0 -6618.74)
(0 -0 -6522.03)
(0 -0 -6430.43)
(0 -0 -6343.48)
(0 -0 -6260.79)
(0 -0 -6181.96)
(0 -0 -6106.67)
(0 -0 -6034.59)
(0 -0 -5965.45)
(0 -0 -5898.92)
(0 -0 -5834.76)
(0 -0 -5772.7)
(0 -0 -5712.42)
(0 -0 -5653.87)
(0 -0 -5596.19)
(0 -0 -5540.36)
(0 -0 -5483.49)
(0 -0 -5430.2)
(0 -0 -5370.89)
(0 -0 -5321.55)
(0 -0 -5253.86)
(0 -0 -5211.07)
(0 -0 -5132.64)
(0 -0 -5141.69)
(0 -0 -533.049)
(0 -0 -4663.14)
(0 -0 -7719.78)
(0 -0 -9330.4)
(0 -0 -9894.14)
(0 -0 -9958.96)
(0 -0 -9826.42)
(0 -0 -9613.44)
(0 -0 -9368.97)
(0 -0 -9117.79)
(0 -0 -8872.38)
(0 -0 -8638.34)
(0 -0 -8417.79)
(0 -0 -8211.16)
(0 -0 -8018.09)
(0 -0 -7837.84)
(0 -0 -7669.53)
(0 -0 -7512.24)
(0 -0 -7365.07)
(0 -0 -7227.17)
(0 -0 -7097.78)
(0 -0 -6976.16)
(0 -0 -6861.67)
(0 -0 -6753.73)
(0 -0 -6651.8)
(0 -0 -6555.4)
(0 -0 -6464.09)
(0 -0 -6377.48)
(0 -0 -6295.2)
(0 -0 -6216.93)
(0 -0 -6142.37)
(0 -0 -6071.24)
(0 -0 -6003.28)
(0 -0 -5938.25)
(0 -0 -5875.94)
(0 -0 -5816.11)
(0 -0 -5758.6)
(0 -0 -5703.17)
(0 -0 -5649.67)
(0 -0 -5597.89)
(0 -0 -5547.59)
(0 -0 -5498.79)
(0 -0 -5450.75)
(0 -0 -5404.32)
(0 -0 -5357.41)
(0 -0 -5312.37)
(0 -0 -5266.56)
(0 -0 -5217.84)
(0 -0 -5183.04)
(0 -0 -5137.49)
(0 -0 322.505)
(0 -0 -1444.76)
(0 -0 -3533.67)
(0 -0 -5261.35)
(0 -0 -6402.26)
(0 -0 -7077.44)
(0 -0 -7454.88)
(0 -0 -7645.11)
(0 -0 -7716.48)
(0 -0 -7713.38)
(0 -0 -7664.48)
(0 -0 -7587.92)
(0 -0 -7495.19)
(0 -0 -7393.58)
(0 -0 -7287.78)
(0 -0 -7180.83)
(0 -0 -7074.66)
(0 -0 -6970.52)
(0 -0 -6869.16)
(0 -0 -6771.06)
(0 -0 -6676.45)
(0 -0 -6585.44)
(0 -0 -6498.05)
(0 -0 -6414.21)
(0 -0 -6333.85)
(0 -0 -6256.84)
(0 -0 -6183.06)
(0 -0 -6112.36)
(0 -0 -6044.6)
(0 -0 -5979.64)
(0 -0 -5917.34)
(0 -0 -5857.56)
(0 -0 -5800.17)
(0 -0 -5745.02)
(0 -0 -5692.02)
(0 -0 -5641.01)
(0 -0 -5591.91)
(0 -0 -5544.55)
(0 -0 -5498.94)
(0 -0 -5454.74)
(0 -0 -5412.23)
(0 -0 -5370.62)
(0 -0 -5331)
(0 -0 -5291.05)
(0 -0 -5254.86)
(0 -0 -5213.85)
(0 -0 -5185.17)
(0 -0 -5133.33)
(0 -0 -5129.86)
(0 -0 -5050.62)
(0 -0 364.762)
(0 -0 -158.567)
(0 -0 -1182.08)
(0 -0 -2363.57)
(0 -0 -3420.2)
(0 -0 -4259.78)
(0 -0 -4895.54)
(0 -0 -5361.31)
(0 -0 -5692.22)
(0 -0 -5920.37)
(0 -0 -6072.18)
(0 -0 -6167.85)
(0 -0 -6222.41)
(0 -0 -6246.87)
(0 -0 -6249.33)
(0 -0 -6235.72)
(0 -0 -6210.44)
(0 -0 -6176.74)
(0 -0 -6137.05)
(0 -0 -6093.19)
(0 -0 -6046.52)
(0 -0 -5998.07)
(0 -0 -5948.62)
(0 -0 -5898.77)
(0 -0 -5848.95)
(0 -0 -5799.5)
(0 -0 -5750.68)
(0 -0 -5702.66)
(0 -0 -5655.59)
(0 -0 -5609.57)
(0 -0 -5564.65)
(0 -0 -5520.89)
(0 -0 -5478.3)
(0 -0 -5436.9)
(0 -0 -5396.68)
(0 -0 -5357.63)
(0 -0 -5319.76)
(0 -0 -5282.97)
(0 -0 -5247.42)
(0 -0 -5212.72)
(0 -0 -5179.5)
(0 -0 -5146.52)
(0 -0 -5115.98)
(0 -0 -5083.71)
(0 -0 -5057.39)
(0 -0 -5022.54)
(0 -0 -5006.13)
(0 -0 -4958.45)
(0 -0 -4968.86)
(0 -0 -4893.64)
(0 -0 254.057)
(0 -0 185.362)
(0 -0 -173.436)
(0 -0 -765.439)
(0 -0 -1449.38)
(0 -0 -2118.19)
(0 -0 -2724.32)
(0 -0 -3248.13)
(0 -0 -3685.43)
(0 -0 -4041.97)
(0 -0 -4328.08)
(0 -0 -4554.97)
(0 -0 -4733.03)
(0 -0 -4871.32)
(0 -0 -4977.4)
(0 -0 -5057.49)
(0 -0 -5116.63)
(0 -0 -5158.91)
(0 -0 -5187.57)
(0 -0 -5205.28)
(0 -0 -5214.13)
(0 -0 -5215.86)
(0 -0 -5211.84)
(0 -0 -5203.21)
(0 -0 -5190.88)
(0 -0 -5175.62)
(0 -0 -5158.03)
(0 -0 -5138.62)
(0 -0 -5117.82)
(0 -0 -5095.96)
(0 -0 -5073.32)
(0 -0 -5050.16)
(0 -0 -5026.66)
(0 -0 -5002.99)
(0 -0 -4979.28)
(0 -0 -4955.63)
(0 -0 -4932.18)
(0 -0 -4908.92)
(0 -0 -4886.1)
(0 -0 -4863.43)
(0 -0 -4841.63)
(0 -0 -4819.47)
(0 -0 -4799.41)
(0 -0 -4777.01)
(0 -0 -4760.58)
(0 -0 -4735.1)
(0 -0 -4727.66)
(0 -0 -4691.22)
(0 -0 -4704.63)
(0 -0 -4650.83)
(0 -0 178.77)
(0 -0 204.561)
(0 -0 130.689)
(0 -0 -85.4438)
(0 -0 -418.673)
(0 -0 -816.464)
(0 -0 -1238.83)
(0 -0 -1656.73)
(0 -0 -2050.17)
(0 -0 -2408.07)
(0 -0 -2726.16)
(0 -0 -3004.37)
(0 -0 -3244.92)
(0 -0 -3451.18)
(0 -0 -3626.95)
(0 -0 -3775.99)
(0 -0 -3901.85)
(0 -0 -4007.72)
(0 -0 -4096.43)
(0 -0 -4170.44)
(0 -0 -4231.86)
(0 -0 -4282.51)
(0 -0 -4323.97)
(0 -0 -4357.55)
(0 -0 -4384.39)
(0 -0 -4405.48)
(0 -0 -4421.63)
(0 -0 -4433.57)
(0 -0 -4441.91)
(0 -0 -4447.16)
(0 -0 -4449.8)
(0 -0 -4450.2)
(0 -0 -4448.71)
(0 -0 -4445.63)
(0 -0 -4441.2)
(0 -0 -4435.65)
(0 -0 -4429.19)
(0 -0 -4421.96)
(0 -0 -4414.21)
(0 -0 -4405.85)
(0 -0 -4397.5)
(0 -0 -4388.3)
(0 -0 -4380.3)
(0 -0 -4369.94)
(0 -0 -4364.13)
(0 -0 -4350.7)
(0 -0 -4351.47)
(0 -0 -4329.92)
(0 -0 -4344.55)
(0 -0 -4313.64)
(0 -0 148.043)
(0 -0 164.648)
(0 -0 170.047)
(0 -0 120.975)
(0 -0 0.799895)
(0 -0 -181.405)
(0 -0 -410.231)
(0 -0 -669.244)
(0 -0 -942.503)
(0 -0 -1216.99)
(0 -0 -1483.4)
(0 -0 -1735.69)
(0 -0 -1970.34)
(0 -0 -2185.7)
(0 -0 -2381.39)
(0 -0 -2557.92)
(0 -0 -2716.26)
(0 -0 -2857.69)
(0 -0 -2983.62)
(0 -0 -3095.46)
(0 -0 -3194.59)
(0 -0 -3282.3)
(0 -0 -3359.8)
(0 -0 -3428.18)
(0 -0 -3488.44)
(0 -0 -3541.47)
(0 -0 -3588.07)
(0 -0 -3628.96)
(0 -0 -3664.78)
(0 -0 -3696.09)
(0 -0 -3723.41)
(0 -0 -3747.2)
(0 -0 -3767.85)
(0 -0 -3785.74)
(0 -0 -3801.18)
(0 -0 -3814.47)
(0 -0 -3825.87)
(0 -0 -3835.62)
(0 -0 -3843.95)
(0 -0 -3850.98)
(0 -0 -3857.15)
(0 -0 -3862.06)
(0 -0 -3867.11)
(0 -0 -3870)
(0 -0 -3875.65)
(0 -0 -3875.51)
(0 -0 -3885.2)
(0 -0 -3879.14)
(0 -0 -3897.33)
(0 -0 -3886.47)
(0 -0 136.856)
(0 -0 137.105)
(0 -0 148.787)
(0 -0 149.735)
(0 -0 122.185)
(0 -0 59.927)
(0 -0 -36.8779)
(0 -0 -164.558)
(0 -0 -316.71)
(0 -0 -485.952)
(0 -0 -665.302)
(0 -0 -848.791)
(0 -0 -1031.65)
(0 -0 -1210.26)
(0 -0 -1382.09)
(0 -0 -1545.45)
(0 -0 -1699.32)
(0 -0 -1843.22)
(0 -0 -1977.06)
(0 -0 -2100.98)
(0 -0 -2215.32)
(0 -0 -2320.53)
(0 -0 -2417.15)
(0 -0 -2505.72)
(0 -0 -2586.81)
(0 -0 -2660.98)
(0 -0 -2728.76)
(0 -0 -2790.68)
(0 -0 -2847.22)
(0 -0 -2898.85)
(0 -0 -2945.97)
(0 -0 -2989.01)
(0 -0 -3028.31)
(0 -0 -3064.24)
(0 -0 -3097.08)
(0 -0 -3127.17)
(0 -0 -3154.73)
(0 -0 -3180.08)
(0 -0 -3203.37)
(0 -0 -3224.9)
(0 -0 -3244.89)
(0 -0 -3263.34)
(0 -0 -3281.07)
(0 -0 -3296.85)
(0 -0 -3313.88)
(0 -0 -3326.59)
(0 -0 -3345.65)
(0 -0 -3353.92)
(0 -0 -3377.75)
(0 -0 -3383.83)
(0 -0 129.98)
(0 -0 124.035)
(0 -0 129.225)
(0 -0 136.439)
(0 -0 136.527)
(0 -0 123.213)
(0 -0 92.8179)
(0 -0 43.4725)
(0 -0 -24.6534)
(0 -0 -109.701)
(0 -0 -208.857)
(0 -0 -318.942)
(0 -0 -436.776)
(0 -0 -559.425)
(0 -0 -684.336)
(0 -0 -809.391)
(0 -0 -932.894)
(0 -0 -1053.54)
(0 -0 -1170.36)
(0 -0 -1282.68)
(0 -0 -1390.05)
(0 -0 -1492.19)
(0 -0 -1588.99)
(0 -0 -1680.44)
(0 -0 -1766.62)
(0 -0 -1847.66)
(0 -0 -1923.74)
(0 -0 -1995.08)
(0 -0 -2061.9)
(0 -0 -2124.44)
(0 -0 -2182.96)
(0 -0 -2237.7)
(0 -0 -2288.89)
(0 -0 -2336.81)
(0 -0 -2381.64)
(0 -0 -2423.67)
(0 -0 -2463.05)
(0 -0 -2500.09)
(0 -0 -2534.88)
(0 -0 -2567.74)
(0 -0 -2598.77)
(0 -0 -2628.17)
(0 -0 -2656.4)
(0 -0 -2682.85)
(0 -0 -2709.61)
(0 -0 -2733.12)
(0 -0 -2760.55)
(0 -0 -2780.73)
(0 -0 -2810.5)
(0 -0 -2830.04)
(0 -0 122.995)
(0 -0 116.687)
(0 -0 118.057)
(0 -0 122.54)
(0 -0 126.492)
(0 -0 126.959)
(0 -0 121.45)
(0 -0 107.642)
(0 -0 83.8818)
(0 -0 49.4587)
(0 -0 4.47924)
(0 -0 -50.3257)
(0 -0 -113.806)
(0 -0 -184.571)
(0 -0 -261.15)
(0 -0 -342.096)
(0 -0 -426.06)
(0 -0 -511.834)
(0 -0 -598.369)
(0 -0 -684.774)
(0 -0 -770.317)
(0 -0 -854.403)
(0 -0 -936.565)
(0 -0 -1016.45)
(0 -0 -1093.79)
(0 -0 -1168.4)
(0 -0 -1240.17)
(0 -0 -1309.04)
(0 -0 -1374.98)
(0 -0 -1438.02)
(0 -0 -1498.21)
(0 -0 -1555.61)
(0 -0 -1610.3)
(0 -0 -1662.42)
(0 -0 -1712.04)
(0 -0 -1759.34)
(0 -0 -1804.38)
(0 -0 -1847.38)
(0 -0 -1888.38)
(0 -0 -1927.65)
(0 -0 -1965.21)
(0 -0 -2001.3)
(0 -0 -2036.17)
(0 -0 -2069.52)
(0 -0 -2102.77)
(0 -0 -2133.59)
(0 -0 -2166.78)
(0 -0 -2195.29)
(0 -0 -2229.47)
(0 -0 -2258.29)
(0 -0 115.678)
(0 -0 110.46)
(0 -0 110.779)
(0 -0 113.221)
(0 -0 116.039)
(0 -0 118.304)
(0 -0 119.178)
(0 -0 117.447)
(0 -0 111.818)
(0 -0 101.227)
(0 -0 84.9485)
(0 -0 62.6141)
(0 -0 34.1773)
(0 -0 -0.131064)
(0 -0 -39.8718)
(0 -0 -84.4657)
(0 -0 -133.253)
(0 -0 -185.543)
(0 -0 -240.648)
(0 -0 -297.912)
(0 -0 -356.725)
(0 -0 -416.536)
(0 -0 -476.852)
(0 -0 -537.247)
(0 -0 -597.352)
(0 -0 -656.858)
(0 -0 -715.507)
(0 -0 -773.091)
(0 -0 -829.441)
(0 -0 -884.432)
(0 -0 -937.964)
(0 -0 -989.981)
(0 -0 -1040.43)
(0 -0 -1089.32)
(0 -0 -1136.62)
(0 -0 -1182.4)
(0 -0 -1226.63)
(0 -0 -1269.46)
(0 -0 -1310.84)
(0 -0 -1350.97)
(0 -0 -1389.81)
(0 -0 -1427.55)
(0 -0 -1464.35)
(0 -0 -1500.02)
(0 -0 -1535.52)
(0 -0 -1569.37)
(0 -0 -1604.65)
(0 -0 -1637.16)
(0 -0 -1672.91)
(0 -0 -1706.33)
(0 -0 108.437)
(0 -0 104.246)
(0 -0 104.459)
(0 -0 106.169)
(0 -0 108.039)
(0 -0 109.753)
(0 -0 111.292)
(0 -0 112.307)
(0 -0 112.208)
(0 -0 110.358)
(0 -0 106.164)
(0 -0 99.1213)
(0 -0 88.8539)
(0 -0 75.1261)
(0 -0 57.8472)
(0 -0 37.048)
(0 -0 12.8638)
(0 -0 -14.4896)
(0 -0 -44.7398)
(0 -0 -77.5772)
(0 -0 -112.673)
(0 -0 -149.693)
(0 -0 -188.308)
(0 -0 -228.202)
(0 -0 -269.079)
(0 -0 -310.665)
(0 -0 -352.711)
(0 -0 -394.996)
(0 -0 -437.319)
(0 -0 -479.51)
(0 -0 -521.419)
(0 -0 -562.923)
(0 -0 -603.913)
(0 -0 -644.318)
(0 -0 -684.055)
(0 -0 -723.109)
(0 -0 -761.413)
(0 -0 -799.009)
(0 -0 -835.833)
(0 -0 -871.979)
(0 -0 -907.408)
(0 -0 -942.206)
(0 -0 -976.485)
(0 -0 -1010.09)
(0 -0 -1043.69)
(0 -0 -1076.33)
(0 -0 -1109.91)
(0 -0 -1142.1)
(0 -0 -1176.16)
(0 -0 -1209.65)
(0 -0 101.463)
(0 -0 98.0591)
(0 -0 98.2863)
(0 -0 99.7621)
(0 -0 101.276)
(0 -0 102.55)
(0 -0 103.775)
(0 -0 104.963)
(0 -0 105.936)
(0 -0 106.445)
(0 -0 106.206)
(0 -0 104.916)
(0 -0 102.283)
(0 -0 98.05)
(0 -0 92.0063)
(0 -0 84.002)
(0 -0 73.9459)
(0 -0 61.8037)
(0 -0 47.5921)
(0 -0 31.3711)
(0 -0 13.2366)
(0 -0 -6.68874)
(0 -0 -28.262)
(0 -0 -51.3278)
(0 -0 -75.7235)
(0 -0 -101.285)
(0 -0 -127.849)
(0 -0 -155.26)
(0 -0 -183.365)
(0 -0 -212.027)
(0 -0 -241.111)
(0 -0 -270.503)
(0 -0 -300.091)
(0 -0 -329.787)
(0 -0 -359.499)
(0 -0 -389.176)
(0 -0 -418.74)
(0 -0 -448.179)
(0 -0 -477.427)
(0 -0 -506.508)
(0 -0 -535.385)
(0 -0 -564.076)
(0 -0 -592.657)
(0 -0 -621.008)
(0 -0 -649.534)
(0 -0 -677.698)
(0 -0 -706.568)
(0 -0 -734.98)
(0 -0 -764.544)
(0 -0 -794.466)
(0 -0 94.7903)
(0 -0 92.0136)
(0 -0 92.2293)
(0 -0 93.5563)
(0 -0 94.9387)
(0 -0 96.0381)
(0 -0 97.0378)
(0 -0 98.0358)
(0 -0 99.0035)
(0 -0 99.8725)
(0 -0 100.551)
(0 -0 100.922)
(0 -0 100.843)
(0 -0 100.167)
(0 -0 98.7458)
(0 -0 96.4443)
(0 -0 93.1447)
(0 -0 88.7516)
(0 -0 83.1944)
(0 -0 76.4275)
(0 -0 68.4297)
(0 -0 59.2022)
(0 -0 48.7659)
(0 -0 37.159)
(0 -0 24.4333)
(0 -0 10.6514)
(0 -0 -4.11542)
(0 -0 -19.7914)
(0 -0 -36.2962)
(0 -0 -53.5499)
(0 -0 -71.4702)
(0 -0 -89.9811)
(0 -0 -109.003)
(0 -0 -128.471)
(0 -0 -148.312)
(0 -0 -168.478)
(0 -0 -188.903)
(0 -0 -209.562)
(0 -0 -230.399)
(0 -0 -251.408)
(0 -0 -272.558)
(0 -0 -293.838)
(0 -0 -315.294)
(0 -0 -336.841)
(0 -0 -358.707)
(0 -0 -380.618)
(0 -0 -403.113)
(0 -0 -425.709)
(0 -0 -449.097)
(0 -0 -473.228)
(0 -0 88.4184)
(0 -0 86.162)
(0 -0 86.3593)
(0 -0 87.5369)
(0 -0 88.8209)
(0 -0 89.8409)
(0 -0 90.7336)
(0 -0 91.6026)
(0 -0 92.4514)
(0 -0 93.2651)
(0 -0 94.027)
(0 -0 94.7076)
(0 -0 95.2612)
(0 -0 95.6286)
(0 -0 95.742)
(0 -0 95.5283)
(0 -0 94.9134)
(0 -0 93.8259)
(0 -0 92.1999)
(0 -0 89.9776)
(0 -0 87.111)
(0 -0 83.5625)
(0 -0 79.3056)
(0 -0 74.3243)
(0 -0 68.6132)
(0 -0 62.1759)
(0 -0 55.0245)
(0 -0 47.1777)
(0 -0 38.6609)
(0 -0 29.5034)
(0 -0 19.7396)
(0 -0 9.40419)
(0 -0 -1.46331)
(0 -0 -12.8275)
(0 -0 -24.6477)
(0 -0 -36.8926)
(0 -0 -49.5235)
(0 -0 -62.5172)
(0 -0 -75.841)
(0 -0 -89.4796)
(0 -0 -103.416)
(0 -0 -117.634)
(0 -0 -132.157)
(0 -0 -146.939)
(0 -0 -162.09)
(0 -0 -177.5)
(0 -0 -193.399)
(0 -0 -209.655)
(0 -0 -226.501)
(0 -0 -244.149)
(0 -0 82.3456)
(0 -0 80.5223)
(0 -0 80.7099)
(0 -0 81.7426)
(0 -0 82.9231)
(0 -0 83.8775)
(0 -0 84.702)
(0 -0 85.4931)
(0 -0 86.2584)
(0 -0 86.991)
(0 -0 87.692)
(0 -0 88.3606)
(0 -0 88.9887)
(0 -0 89.5607)
(0 -0 90.0546)
(0 -0 90.4428)
(0 -0 90.6929)
(0 -0 90.7694)
(0 -0 90.6354)
(0 -0 90.2537)
(0 -0 89.5886)
(0 -0 88.6067)
(0 -0 87.2782)
(0 -0 85.5774)
(0 -0 83.4831)
(0 -0 80.9789)
(0 -0 78.0532)
(0 -0 74.6989)
(0 -0 70.9133)
(0 -0 66.6976)
(0 -0 62.0568)
(0 -0 56.9988)
(0 -0 51.5338)
(0 -0 45.6746)
(0 -0 39.436)
(0 -0 32.8308)
(0 -0 25.8756)
(0 -0 18.5821)
(0 -0 10.965)
(0 -0 3.03346)
(0 -0 -5.20495)
(0 -0 -13.7412)
(0 -0 -22.5857)
(0 -0 -31.7231)
(0 -0 -41.1957)
(0 -0 -50.9816)
(0 -0 -61.1529)
(0 -0 -71.731)
(0 -0 -82.7445)
(0 -0 -94.451)
(0 -0 76.5724)
(0 -0 75.1061)
(0 -0 75.2929)
(0 -0 76.1936)
(0 -0 77.268)
(0 -0 78.1557)
(0 -0 78.9183)
(0 -0 79.6465)
(0 -0 80.3496)
(0 -0 81.0198)
(0 -0 81.659)
(0 -0 82.2723)
(0 -0 82.8616)
(0 -0 83.4258)
(0 -0 83.9612)
(0 -0 84.4607)
(0 -0 84.9146)
(0 -0 85.3102)
(0 -0 85.6325)
(0 -0 85.8644)
(0 -0 85.988)
(0 -0 85.9846)
(0 -0 85.8352)
(0 -0 85.5219)
(0 -0 85.0275)
(0 -0 84.3362)
(0 -0 83.4342)
(0 -0 82.3091)
(0 -0 80.951)
(0 -0 79.3514)
(0 -0 77.5045)
(0 -0 75.4058)
(0 -0 73.0535)
(0 -0 70.4463)
(0 -0 67.5856)
(0 -0 64.4731)
(0 -0 61.1119)
(0 -0 57.5046)
(0 -0 53.6545)
(0 -0 49.5637)
(0 -0 45.2335)
(0 -0 40.6649)
(0 -0 35.8546)
(0 -0 30.7988)
(0 -0 25.4894)
(0 -0 19.9083)
(0 -0 14.0533)
(0 -0 7.85456)
(0 -0 1.35606)
(0 -0 -5.66184)
(0 -0 71.0985)
(0 -0 69.9235)
(0 -0 70.1154)
(0 -0 70.8985)
(0 -0 71.8687)
(0 -0 72.6893)
(0 -0 73.3917)
(0 -0 74.0601)
(0 -0 74.7069)
(0 -0 75.3236)
(0 -0 75.9103)
(0 -0 76.4721)
(0 -0 77.0125)
(0 -0 77.5336)
(0 -0 78.0367)
(0 -0 78.5217)
(0 -0 78.9872)
(0 -0 79.4305)
(0 -0 79.8471)
(0 -0 80.2315)
(0 -0 80.5768)
(0 -0 80.8752)
(0 -0 81.1181)
(0 -0 81.2964)
(0 -0 81.4008)
(0 -0 81.4221)
(0 -0 81.3511)
(0 -0 81.179)
(0 -0 80.8976)
(0 -0 80.4991)
(0 -0 79.9765)
(0 -0 79.3236)
(0 -0 78.535)
(0 -0 77.6064)
(0 -0 76.5343)
(0 -0 75.3159)
(0 -0 73.9491)
(0 -0 72.4322)
(0 -0 70.764)
(0 -0 68.9425)
(0 -0 66.9669)
(0 -0 64.8325)
(0 -0 62.5403)
(0 -0 60.0784)
(0 -0 57.4531)
(0 -0 54.6342)
(0 -0 51.6443)
(0 -0 48.4106)
(0 -0 44.995)
(0 -0 41.2274)
(0 -0 65.9225)
(0 -0 64.9832)
(0 -0 65.1831)
(0 -0 65.8622)
(0 -0 66.7321)
(0 -0 67.4868)
(0 -0 68.1312)
(0 -0 68.7419)
(0 -0 69.3344)
(0 -0 69.9004)
(0 -0 70.4389)
(0 -0 70.9538)
(0 -0 71.4487)
(0 -0 71.926)
(0 -0 72.3879)
(0 -0 72.8358)
(0 -0 73.2706)
(0 -0 73.6927)
(0 -0 74.1015)
(0 -0 74.4959)
(0 -0 74.8741)
(0 -0 75.2335)
(0 -0 75.5713)
(0 -0 75.8839)
(0 -0 76.1674)
(0 -0 76.4178)
(0 -0 76.6308)
(0 -0 76.802)
(0 -0 76.9267)
(0 -0 77.0003)
(0 -0 77.0182)
(0 -0 76.9761)
(0 -0 76.8698)
(0 -0 76.6955)
(0 -0 76.4499)
(0 -0 76.13)
(0 -0 75.7333)
(0 -0 75.2573)
(0 -0 74.7)
(0 -0 74.0586)
(0 -0 73.3325)
(0 -0 72.5157)
(0 -0 71.6114)
(0 -0 70.6062)
(0 -0 69.5112)
(0 -0 68.2975)
(0 -0 66.993)
(0 -0 65.5365)
(0 -0 63.9901)
(0 -0 62.2249)
(0 -0 61.0416)
(0 -0 60.2916)
(0 -0 60.5001)
(0 -0 61.0879)
(0 -0 61.8621)
(0 -0 62.5529)
(0 -0 63.1421)
(0 -0 63.6977)
(0 -0 64.2378)
(0 -0 64.7551)
(0 -0 65.2473)
(0 -0 65.7178)
(0 -0 66.1699)
(0 -0 66.606)
(0 -0 67.028)
(0 -0 67.4378)
(0 -0 67.8365)
(0 -0 68.2251)
(0 -0 68.6041)
(0 -0 68.9737)
(0 -0 69.3337)
(0 -0 69.6836)
(0 -0 70.0226)
(0 -0 70.3496)
(0 -0 70.6636)
(0 -0 70.9632)
(0 -0 71.2467)
(0 -0 71.5126)
(0 -0 71.7589)
(0 -0 71.9835)
(0 -0 72.1841)
(0 -0 72.3585)
(0 -0 72.5043)
(0 -0 72.6196)
(0 -0 72.7022)
(0 -0 72.7507)
(0 -0 72.7633)
(0 -0 72.7385)
(0 -0 72.6755)
(0 -0 72.5717)
(0 -0 72.4276)
(0 -0 72.2383)
(0 -0 72.0077)
(0 -0 71.7246)
(0 -0 71.4007)
(0 -0 71.0125)
(0 -0 70.5863)
(0 -0 70.0747)
(0 -0 69.5334)
(0 -0 68.8649)
(0 -0 56.4519)
(0 -0 55.8526)
(0 -0 56.069)
(0 -0 56.5769)
(0 -0 57.2612)
(0 -0 57.89)
(0 -0 58.427)
(0 -0 58.9304)
(0 -0 59.4204)
(0 -0 59.891)
(0 -0 60.339)
(0 -0 60.767)
(0 -0 61.1783)
(0 -0 61.5751)
(0 -0 61.9593)
(0 -0 62.3326)
(0 -0 62.6962)
(0 -0 63.051)
(0 -0 63.3978)
(0 -0 63.7369)
(0 -0 64.0685)
(0 -0 64.3926)
(0 -0 64.709)
(0 -0 65.0177)
(0 -0 65.3183)
(0 -0 65.6106)
(0 -0 65.8943)
(0 -0 66.1688)
(0 -0 66.4337)
(0 -0 66.6881)
(0 -0 66.931)
(0 -0 67.1616)
(0 -0 67.3788)
(0 -0 67.5818)
(0 -0 67.77)
(0 -0 67.9427)
(0 -0 68.0994)
(0 -0 68.2397)
(0 -0 68.3636)
(0 -0 68.4697)
(0 -0 68.5593)
(0 -0 68.6287)
(0 -0 68.6824)
(0 -0 68.7119)
(0 -0 68.7278)
(0 -0 68.7121)
(0 -0 68.6883)
(0 -0 68.6194)
(0 -0 68.5552)
(0 -0 68.4169)
(0 -0 52.1483)
(0 -0 51.6684)
(0 -0 51.8905)
(0 -0 52.3288)
(0 -0 52.9295)
(0 -0 53.4986)
(0 -0 53.9864)
(0 -0 54.4406)
(0 -0 54.8832)
(0 -0 55.3093)
(0 -0 55.7152)
(0 -0 56.1028)
(0 -0 56.4751)
(0 -0 56.8345)
(0 -0 57.1827)
(0 -0 57.5213)
(0 -0 57.8515)
(0 -0 58.1741)
(0 -0 58.4898)
(0 -0 58.7988)
(0 -0 59.1014)
(0 -0 59.3977)
(0 -0 59.6876)
(0 -0 59.9711)
(0 -0 60.2483)
(0 -0 60.5192)
(0 -0 60.7838)
(0 -0 61.0422)
(0 -0 61.2942)
(0 -0 61.5395)
(0 -0 61.7779)
(0 -0 62.0088)
(0 -0 62.2321)
(0 -0 62.4476)
(0 -0 62.6551)
(0 -0 62.8547)
(0 -0 63.0469)
(0 -0 63.2315)
(0 -0 63.4095)
(0 -0 63.58)
(0 -0 63.7449)
(0 -0 63.9016)
(0 -0 64.0546)
(0 -0 64.1974)
(0 -0 64.3396)
(0 -0 64.4672)
(0 -0 64.6009)
(0 -0 64.7106)
(0 -0 64.8415)
(0 -0 64.9262)
(0 -0 48.1243)
(0 -0 47.7387)
(0 -0 47.9633)
(0 -0 48.3415)
(0 -0 48.8653)
(0 -0 49.3772)
(0 -0 49.8187)
(0 -0 50.2271)
(0 -0 50.6249)
(0 -0 51.009)
(0 -0 51.375)
(0 -0 51.7242)
(0 -0 52.0597)
(0 -0 52.3835)
(0 -0 52.6976)
(0 -0 53.0033)
(0 -0 53.3018)
(0 -0 53.5939)
(0 -0 53.88)
(0 -0 54.1605)
(0 -0 54.4354)
(0 -0 54.7048)
(0 -0 54.9686)
(0 -0 55.2268)
(0 -0 55.4795)
(0 -0 55.7268)
(0 -0 55.9688)
(0 -0 56.2056)
(0 -0 56.4372)
(0 -0 56.6636)
(0 -0 56.8844)
(0 -0 57.0996)
(0 -0 57.309)
(0 -0 57.5128)
(0 -0 57.7112)
(0 -0 57.9046)
(0 -0 58.0937)
(0 -0 58.2787)
(0 -0 58.4607)
(0 -0 58.6396)
(0 -0 58.8172)
(0 -0 58.9917)
(0 -0 59.1672)
(0 -0 59.3387)
(0 -0 59.5148)
(0 -0 59.684)
(0 -0 59.8647)
(0 -0 60.0314)
(0 -0 60.2252)
(0 -0 60.3864)
(0 -0 44.3724)
(0 -0 44.061)
(0 -0 44.2848)
(0 -0 44.6109)
(0 -0 45.0649)
(0 -0 45.5224)
(0 -0 45.9205)
(0 -0 46.2864)
(0 -0 46.6423)
(0 -0 46.9867)
(0 -0 47.3152)
(0 -0 47.6284)
(0 -0 47.929)
(0 -0 48.2194)
(0 -0 48.5012)
(0 -0 48.7759)
(0 -0 49.0446)
(0 -0 49.3078)
(0 -0 49.566)
(0 -0 49.8196)
(0 -0 50.0683)
(0 -0 50.3123)
(0 -0 50.5514)
(0 -0 50.7855)
(0 -0 51.0147)
(0 -0 51.2391)
(0 -0 51.4587)
(0 -0 51.6738)
(0 -0 51.8843)
(0 -0 52.0901)
(0 -0 52.2911)
(0 -0 52.487)
(0 -0 52.678)
(0 -0 52.8641)
(0 -0 53.0458)
(0 -0 53.2236)
(0 -0 53.3981)
(0 -0 53.57)
(0 -0 53.7403)
(0 -0 53.9091)
(0 -0 54.078)
(0 -0 54.246)
(0 -0 54.4165)
(0 -0 54.5855)
(0 -0 54.7605)
(0 -0 54.932)
(0 -0 55.1163)
(0 -0 55.2908)
(0 -0 55.4933)
(0 -0 55.6694)
(0 -0 40.8839)
(0 -0 40.6311)
(0 -0 40.8504)
(0 -0 41.1316)
(0 -0 41.5227)
(0 -0 41.929)
(0 -0 42.2865)
(0 -0 42.6131)
(0 -0 42.9301)
(0 -0 43.2375)
(0 -0 43.5308)
(0 -0 43.8103)
(0 -0 44.0783)
(0 -0 44.3373)
(0 -0 44.5889)
(0 -0 44.8345)
(0 -0 45.075)
(0 -0 45.3112)
(0 -0 45.5433)
(0 -0 45.7716)
(0 -0 45.9958)
(0 -0 46.216)
(0 -0 46.4318)
(0 -0 46.6432)
(0 -0 46.8503)
(0 -0 47.053)
(0 -0 47.2515)
(0 -0 47.446)
(0 -0 47.6362)
(0 -0 47.8221)
(0 -0 48.0036)
(0 -0 48.1804)
(0 -0 48.3527)
(0 -0 48.5205)
(0 -0 48.6844)
(0 -0 48.8447)
(0 -0 49.0025)
(0 -0 49.1582)
(0 -0 49.3128)
(0 -0 49.4666)
(0 -0 49.6212)
(0 -0 49.7756)
(0 -0 49.9328)
(0 -0 50.0896)
(0 -0 50.2525)
(0 -0 50.4132)
(0 -0 50.5864)
(0 -0 50.7516)
(0 -0 50.9436)
(0 -0 51.1122)
(0 -0 37.6492)
(0 -0 37.443)
(0 -0 37.6539)
(0 -0 37.8964)
(0 -0 38.2317)
(0 -0 38.59)
(0 -0 38.9097)
(0 -0 39.2003)
(0 -0 39.4813)
(0 -0 39.7543)
(0 -0 40.0149)
(0 -0 40.263)
(0 -0 40.5006)
(0 -0 40.7303)
(0 -0 40.9537)
(0 -0 41.1721)
(0 -0 41.3865)
(0 -0 41.5975)
(0 -0 41.8053)
(0 -0 42.0099)
(0 -0 42.2113)
(0 -0 42.4092)
(0 -0 42.6033)
(0 -0 42.7936)
(0 -0 42.9799)
(0 -0 43.1624)
(0 -0 43.3412)
(0 -0 43.5162)
(0 -0 43.6874)
(0 -0 43.8547)
(0 -0 44.0177)
(0 -0 44.1764)
(0 -0 44.3308)
(0 -0 44.4811)
(0 -0 44.6277)
(0 -0 44.7711)
(0 -0 44.9123)
(0 -0 45.0518)
(0 -0 45.1906)
(0 -0 45.329)
(0 -0 45.4683)
(0 -0 45.6079)
(0 -0 45.7502)
(0 -0 45.8927)
(0 -0 46.0409)
(0 -0 46.1875)
(0 -0 46.3456)
(0 -0 46.4969)
(0 -0 46.6727)
(0 -0 46.8271)
(0 -0 34.6575)
(0 -0 34.4889)
(0 -0 34.6876)
(0 -0 34.8969)
(0 -0 35.1829)
(0 -0 35.497)
(0 -0 35.7816)
(0 -0 36.0393)
(0 -0 36.2873)
(0 -0 36.5284)
(0 -0 36.7589)
(0 -0 36.9778)
(0 -0 37.1874)
(0 -0 37.3898)
(0 -0 37.587)
(0 -0 37.7803)
(0 -0 37.9705)
(0 -0 38.1581)
(0 -0 38.3433)
(0 -0 38.5261)
(0 -0 38.7063)
(0 -0 38.8835)
(0 -0 39.0576)
(0 -0 39.2282)
(0 -0 39.3953)
(0 -0 39.559)
(0 -0 39.7194)
(0 -0 39.8763)
(0 -0 40.0299)
(0 -0 40.1797)
(0 -0 40.3255)
(0 -0 40.4673)
(0 -0 40.6049)
(0 -0 40.7387)
(0 -0 40.869)
(0 -0 40.9966)
(0 -0 41.1221)
(0 -0 41.2463)
(0 -0 41.37)
(0 -0 41.4936)
(0 -0 41.6183)
(0 -0 41.7435)
(0 -0 41.8714)
(0 -0 41.9997)
(0 -0 42.1332)
(0 -0 42.2656)
(0 -0 42.4084)
(0 -0 42.5449)
(0 -0 42.7039)
(0 -0 42.8429)
(0 -0 31.8974)
(0 -0 31.7595)
(0 -0 31.9431)
(0 -0 32.124)
(0 -0 32.367)
(0 -0 32.6403)
(0 -0 32.8926)
(0 -0 33.1204)
(0 -0 33.3384)
(0 -0 33.5502)
(0 -0 33.7528)
(0 -0 33.9449)
(0 -0 34.1285)
(0 -0 34.3059)
(0 -0 34.479)
(0 -0 34.6491)
(0 -0 34.8169)
(0 -0 34.983)
(0 -0 35.1474)
(0 -0 35.3101)
(0 -0 35.4708)
(0 -0 35.629)
(0 -0 35.7845)
(0 -0 35.937)
(0 -0 36.0864)
(0 -0 36.2328)
(0 -0 36.3761)
(0 -0 36.5164)
(0 -0 36.6535)
(0 -0 36.7871)
(0 -0 36.9171)
(0 -0 37.043)
(0 -0 37.1651)
(0 -0 37.2835)
(0 -0 37.3988)
(0 -0 37.5115)
(0 -0 37.6224)
(0 -0 37.7323)
(0 -0 37.842)
(0 -0 37.9517)
(0 -0 38.0628)
(0 -0 38.1745)
(0 -0 38.2889)
(0 -0 38.4038)
(0 -0 38.5235)
(0 -0 38.6423)
(0 -0 38.7705)
(0 -0 38.8929)
(0 -0 39.0358)
(0 -0 39.1597)
(0 -0 29.357)
(0 -0 29.2441)
(0 -0 29.4107)
(0 -0 29.5678)
(0 -0 29.7735)
(0 -0 30.0098)
(0 -0 30.2322)
(0 -0 30.4328)
(0 -0 30.6236)
(0 -0 30.8087)
(0 -0 30.9857)
(0 -0 31.1533)
(0 -0 31.3131)
(0 -0 31.4675)
(0 -0 31.6184)
(0 -0 31.7671)
(0 -0 31.9145)
(0 -0 32.0608)
(0 -0 32.2062)
(0 -0 32.3504)
(0 -0 32.4932)
(0 -0 32.6341)
(0 -0 32.7726)
(0 -0 32.9085)
(0 -0 33.0416)
(0 -0 33.1721)
(0 -0 33.2998)
(0 -0 33.4248)
(0 -0 33.5468)
(0 -0 33.6655)
(0 -0 33.7807)
(0 -0 33.8922)
(0 -0 33.9999)
(0 -0 34.1041)
(0 -0 34.2054)
(0 -0 34.3043)
(0 -0 34.4018)
(0 -0 34.4984)
(0 -0 34.5951)
(0 -0 34.6921)
(0 -0 34.7904)
(0 -0 34.8897)
(0 -0 34.9915)
(0 -0 35.094)
(0 -0 35.201)
(0 -0 35.3071)
(0 -0 35.4218)
(0 -0 35.531)
(0 -0 35.6587)
(0 -0 35.7686)
(0 -0 27.0237)
(0 -0 26.9312)
(0 -0 27.0799)
(0 -0 27.2168)
(0 -0 27.3905)
(0 -0 27.5935)
(0 -0 27.7886)
(0 -0 27.9647)
(0 -0 28.1309)
(0 -0 28.2918)
(0 -0 28.4454)
(0 -0 28.5906)
(0 -0 28.7287)
(0 -0 28.8621)
(0 -0 28.9927)
(0 -0 29.122)
(0 -0 29.2507)
(0 -0 29.379)
(0 -0 29.507)
(0 -0 29.6346)
(0 -0 29.7611)
(0 -0 29.8861)
(0 -0 30.0091)
(0 -0 30.1299)
(0 -0 30.2482)
(0 -0 30.3641)
(0 -0 30.4776)
(0 -0 30.5886)
(0 -0 30.6968)
(0 -0 30.8019)
(0 -0 30.9036)
(0 -0 31.0017)
(0 -0 31.0962)
(0 -0 31.1874)
(0 -0 31.2758)
(0 -0 31.3621)
(0 -0 31.4471)
(0 -0 31.5316)
(0 -0 31.6163)
(0 -0 31.7016)
(0 -0 31.7883)
(0 -0 31.8761)
(0 -0 31.9664)
(0 -0 32.0575)
(0 -0 32.1527)
(0 -0 32.2471)
(0 -0 32.3494)
(0 -0 32.4464)
(0 -0 32.5601)
(0 -0 32.6571)
(0 -0 24.8847)
(0 -0 24.8088)
(0 -0 24.9397)
(0 -0 25.0593)
(0 -0 25.2057)
(0 -0 25.379)
(0 -0 25.5492)
(0 -0 25.7033)
(0 -0 25.8475)
(0 -0 25.9865)
(0 -0 26.119)
(0 -0 26.2438)
(0 -0 26.3622)
(0 -0 26.4765)
(0 -0 26.5888)
(0 -0 26.7004)
(0 -0 26.8121)
(0 -0 26.9241)
(0 -0 27.0364)
(0 -0 27.1488)
(0 -0 27.2606)
(0 -0 27.3712)
(0 -0 27.4803)
(0 -0 27.5873)
(0 -0 27.6923)
(0 -0 27.795)
(0 -0 27.8956)
(0 -0 27.9939)
(0 -0 28.0895)
(0 -0 28.1823)
(0 -0 28.2717)
(0 -0 28.3575)
(0 -0 28.4399)
(0 -0 28.5192)
(0 -0 28.5958)
(0 -0 28.6705)
(0 -0 28.7442)
(0 -0 28.8175)
(0 -0 28.8914)
(0 -0 28.9659)
(0 -0 29.0421)
(0 -0 29.1194)
(0 -0 29.1993)
(0 -0 29.2799)
(0 -0 29.3644)
(0 -0 29.4481)
(0 -0 29.5389)
(0 -0 29.6248)
(0 -0 29.7257)
(0 -0 29.8109)
(0 -0 22.927)
(0 -0 22.8646)
(0 -0 22.9783)
(0 -0 23.0829)
(0 -0 23.2061)
(0 -0 23.3533)
(0 -0 23.5009)
(0 -0 23.6353)
(0 -0 23.76)
(0 -0 23.8793)
(0 -0 23.9927)
(0 -0 24.0992)
(0 -0 24.1997)
(0 -0 24.2968)
(0 -0 24.3924)
(0 -0 24.4881)
(0 -0 24.5845)
(0 -0 24.6818)
(0 -0 24.78)
(0 -0 24.8787)
(0 -0 24.9773)
(0 -0 25.0751)
(0 -0 25.1716)
(0 -0 25.2663)
(0 -0 25.3592)
(0 -0 25.4501)
(0 -0 25.539)
(0 -0 25.6258)
(0 -0 25.7101)
(0 -0 25.7916)
(0 -0 25.8699)
(0 -0 25.9447)
(0 -0 26.0161)
(0 -0 26.0845)
(0 -0 26.1504)
(0 -0 26.2146)
(0 -0 26.2779)
(0 -0 26.3412)
(0 -0 26.4051)
(0 -0 26.4699)
(0 -0 26.5365)
(0 -0 26.6044)
(0 -0 26.6747)
(0 -0 26.7459)
(0 -0 26.8206)
(0 -0 26.8947)
(0 -0 26.9751)
(0 -0 27.0509)
(0 -0 27.1401)
(0 -0 27.2146)
(0 -0 21.1377)
(0 -0 21.0861)
(0 -0 21.1838)
(0 -0 21.2753)
(0 -0 21.3788)
(0 -0 21.5033)
(0 -0 21.6306)
(0 -0 21.7473)
(0 -0 21.8547)
(0 -0 21.9565)
(0 -0 22.0528)
(0 -0 22.1427)
(0 -0 22.2272)
(0 -0 22.3087)
(0 -0 22.3894)
(0 -0 22.4707)
(0 -0 22.5534)
(0 -0 22.6375)
(0 -0 22.7231)
(0 -0 22.8096)
(0 -0 22.8964)
(0 -0 22.9827)
(0 -0 23.0679)
(0 -0 23.1516)
(0 -0 23.2337)
(0 -0 23.314)
(0 -0 23.3925)
(0 -0 23.469)
(0 -0 23.5432)
(0 -0 23.6146)
(0 -0 23.6828)
(0 -0 23.7476)
(0 -0 23.8091)
(0 -0 23.8676)
(0 -0 23.9238)
(0 -0 23.9785)
(0 -0 24.0325)
(0 -0 24.0866)
(0 -0 24.1416)
(0 -0 24.1977)
(0 -0 24.2556)
(0 -0 24.3149)
(0 -0 24.3766)
(0 -0 24.4393)
(0 -0 24.5053)
(0 -0 24.5707)
(0 -0 24.6417)
(0 -0 24.7084)
(0 -0 24.787)
(0 -0 24.8519)
(0 -0 19.5039)
(0 -0 19.461)
(0 -0 19.5441)
(0 -0 19.6239)
(0 -0 19.711)
(0 -0 19.8157)
(0 -0 19.9249)
(0 -0 20.0258)
(0 -0 20.1179)
(0 -0 20.2042)
(0 -0 20.2852)
(0 -0 20.3602)
(0 -0 20.4304)
(0 -0 20.498)
(0 -0 20.5652)
(0 -0 20.6337)
(0 -0 20.7041)
(0 -0 20.7765)
(0 -0 20.8508)
(0 -0 20.9265)
(0 -0 21.0028)
(0 -0 21.0789)
(0 -0 21.1541)
(0 -0 21.2281)
(0 -0 21.3005)
(0 -0 21.3714)
(0 -0 21.4407)
(0 -0 21.508)
(0 -0 21.5731)
(0 -0 21.6355)
(0 -0 21.6947)
(0 -0 21.7505)
(0 -0 21.8031)
(0 -0 21.8527)
(0 -0 21.9002)
(0 -0 21.9463)
(0 -0 21.9919)
(0 -0 22.0377)
(0 -0 22.0847)
(0 -0 22.1329)
(0 -0 22.1831)
(0 -0 22.2348)
(0 -0 22.2888)
(0 -0 22.3439)
(0 -0 22.402)
(0 -0 22.4596)
(0 -0 22.5222)
(0 -0 22.5807)
(0 -0 22.6499)
(0 -0 22.7063)
(0 -0 18.0131)
(0 -0 17.9771)
(0 -0 18.0473)
(0 -0 18.1167)
(0 -0 18.1899)
(0 -0 18.2776)
(0 -0 18.3707)
(0 -0 18.4576)
(0 -0 18.5362)
(0 -0 18.6088)
(0 -0 18.6761)
(0 -0 18.7379)
(0 -0 18.7952)
(0 -0 18.8503)
(0 -0 18.9056)
(0 -0 18.9626)
(0 -0 19.0221)
(0 -0 19.0841)
(0 -0 19.1485)
(0 -0 19.2146)
(0 -0 19.2816)
(0 -0 19.3486)
(0 -0 19.4151)
(0 -0 19.4804)
(0 -0 19.5444)
(0 -0 19.6069)
(0 -0 19.668)
(0 -0 19.7272)
(0 -0 19.7842)
(0 -0 19.8386)
(0 -0 19.8897)
(0 -0 19.9375)
(0 -0 19.9821)
(0 -0 20.0238)
(0 -0 20.0634)
(0 -0 20.1018)
(0 -0 20.1399)
(0 -0 20.1784)
(0 -0 20.2181)
(0 -0 20.2594)
(0 -0 20.3026)
(0 -0 20.3475)
(0 -0 20.3948)
(0 -0 20.4431)
(0 -0 20.4942)
(0 -0 20.5449)
(0 -0 20.6)
(0 -0 20.6513)
(0 -0 20.7119)
(0 -0 20.7608)
(0 -0 16.6531)
(0 -0 16.6227)
(0 -0 16.6815)
(0 -0 16.7416)
(0 -0 16.8031)
(0 -0 16.8763)
(0 -0 16.9552)
(0 -0 17.0297)
(0 -0 17.0965)
(0 -0 17.1571)
(0 -0 17.2123)
(0 -0 17.2622)
(0 -0 17.308)
(0 -0 17.3521)
(0 -0 17.3967)
(0 -0 17.4435)
(0 -0 17.4932)
(0 -0 17.5461)
(0 -0 17.6016)
(0 -0 17.6593)
(0 -0 17.7181)
(0 -0 17.7773)
(0 -0 17.836)
(0 -0 17.8938)
(0 -0 17.9503)
(0 -0 18.0055)
(0 -0 18.0593)
(0 -0 18.1114)
(0 -0 18.1613)
(0 -0 18.2085)
(0 -0 18.2526)
(0 -0 18.2932)
(0 -0 18.3306)
(0 -0 18.3653)
(0 -0 18.3979)
(0 -0 18.4293)
(0 -0 18.4607)
(0 -0 18.4927)
(0 -0 18.526)
(0 -0 18.561)
(0 -0 18.5982)
(0 -0 18.6371)
(0 -0 18.6783)
(0 -0 18.7206)
(0 -0 18.7656)
(0 -0 18.8101)
(0 -0 18.8586)
(0 -0 18.9035)
(0 -0 18.9566)
(0 -0 18.9988)
(0 -0 15.4123)
(0 -0 15.3864)
(0 -0 15.4355)
(0 -0 15.4872)
(0 -0 15.539)
(0 -0 15.5998)
(0 -0 15.6663)
(0 -0 15.7298)
(0 -0 15.7862)
(0 -0 15.8362)
(0 -0 15.8807)
(0 -0 15.9201)
(0 -0 15.9557)
(0 -0 15.9898)
(0 -0 16.025)
(0 -0 16.0627)
(0 -0 16.1039)
(0 -0 16.1486)
(0 -0 16.1965)
(0 -0 16.2467)