/*--------------------------------*- C++ -*----------------------------------*\
  =========                 |
  \\      /  F ield         | OpenFOAM: The Open Source CFD Toolbox
   \\    /   O peration     | Website:  https://openfoam.org
    \\  /    A nd           | Version:  7
     \\/     M anipulation  |
\*---------------------------------------------------------------------------*/
FoamFile
{
    version     2.0;
    format      ascii;
    class       volVectorField;
    location    "0.17";
    object      wallShearStress;
}
// * * * * * * * * * * * * * * * * * * * * * * * * * * * * * * * * * * * * * //

dimensions      [0 2 -2 0 0 0 0];

internalField   uniform (0 0 0);

boundaryField
{
    velocityInlet
    {
        type            calculated;
        value           uniform (0 0 0);
    }
    pressureOutlet
    {
        type            calculated;
        value           uniform (0 0 0);
    }
    fixedWalls
    {
        type            calculated;
        value           nonuniform List<vector> 
100
(
(-0.0135686 -0.00819621 0)
(0.0123207 -0.000676109 0)
(-0.00244151 0.00076229 0)
(0.00200374 -0.000101107 0)
(-0.000888942 0.00013397 0)
(-0.000450347 0.00010549 0)
(-0.00168351 4.43981e-05 0)
(-0.00126463 1.69261e-05 0)
(-0.00105743 -1.44627e-05 0)
(-0.000436903 -8.86113e-06 0)
(5.14772e-05 -2.74156e-05 0)
(0.00102024 -0.000127215 0)
(0.00294452 -0.000326599 0)
(0.00613384 -0.000566073 0)
(0.00995574 -0.000694873 0)
(0.0130334 -0.000548285 0)
(0.0138058 -0.000136714 0)
(0.01155 0.000367796 0)
(0.00673957 0.000722049 0)
(0.00111992 0.000644554 0)
(-0.00270155 0.000309684 0)
(-0.0038571 0.00016941 0)
(-0.0033887 3.02222e-05 0)
(-0.00212143 -0.000133978 0)
(-0.000624479 -0.000169195 0)
(0.000494147 -0.0001384 0)
(0.00124927 -0.000102207 0)
(0.00178093 -7.08337e-05 0)
(0.00215428 -5.81619e-05 0)
(0.00248573 -5.85668e-05 0)
(0.00280705 -6.36774e-05 0)
(0.00309946 -6.33461e-05 0)
(0.00329696 -5.22135e-05 0)
(0.003325 -2.82928e-05 0)
(0.00312932 4.02969e-06 0)
(0.00270351 3.66954e-05 0)
(0.00209176 6.34256e-05 0)
(0.00136906 7.89424e-05 0)
(0.000616907 8.3534e-05 0)
(-9.36107e-05 7.97453e-05 0)
(-0.000717529 7.03034e-05 0)
(-0.00123598 5.85829e-05 0)
(-0.00165205 4.72387e-05 0)
(-0.00198154 3.77966e-05 0)
(-0.00224366 3.06765e-05 0)
(-0.00245406 2.55004e-05 0)
(-0.00261918 2.08041e-05 0)
(-0.00273496 1.53131e-05 0)
(-0.00279276 8.82571e-06 0)
(-0.00278978 1.66149e-06 0)
(-0.00273871 -3.85457e-06 0)
(-0.0026674 -5.65214e-06 0)
(-0.00260799 -3.40095e-06 0)
(-0.00258336 1.44186e-06 0)
(-0.00259837 6.84034e-06 0)
(-0.00263816 1.06294e-05 0)
(-0.00267019 1.14905e-05 0)
(-0.00264869 6.12424e-06 0)
(-0.00252416 -5.4008e-06 0)
(-0.00226021 -2.18101e-05 0)
(-0.00185067 -4.00357e-05 0)
(-0.00132708 -5.57271e-05 0)
(-0.000758441 -6.37746e-05 0)
(-0.000245273 -5.96829e-05 0)
(9.7473e-05 -4.23986e-05 0)
(0.000171083 -1.34075e-05 0)
(-7.5473e-05 1.65481e-05 0)
(-0.000625268 4.75356e-05 0)
(-0.00141036 7.16883e-05 0)
(-0.00235587 8.91913e-05 0)
(-0.00340017 0.000103105 0)
(-0.00444161 0.000108629 0)
(-0.00519045 8.68776e-05 0)
(-0.0051411 1.15107e-05 0)
(-0.00381742 -0.000121445 0)
(-0.00106936 -0.000278855 0)
(0.00229374 -0.000317184 0)
(0.00487976 -0.000243766 0)
(0.00586455 -8.31847e-05 0)
(0.00511386 7.82833e-05 0)
(0.00327162 0.000161572 0)
(0.00120166 0.000165622 0)
(-0.000554756 0.000131122 0)
(-0.00177385 8.61531e-05 0)
(-0.00251308 5.04126e-05 0)
(-0.00290916 2.66825e-05 0)
(-0.00309086 1.25102e-05 0)
(-0.00315349 5.12703e-06 0)
(-0.00316003 2.17789e-06 0)
(-0.00315059 1.85326e-06 0)
(-0.00314198 3.04452e-06 0)
(-0.00312509 2.70366e-06 0)
(-0.00306228 -6.67326e-07 0)
(-0.00291365 -8.45917e-06 0)
(-0.00264291 -1.77887e-05 0)
(-0.00228707 -2.57339e-05 0)
(-0.00186093 -2.9885e-05 0)
(-0.00147803 -2.84706e-05 0)
(-0.00112208 -2.44692e-05 0)
(-0.000880342 -1.14526e-05 0)
)
;
    }
    bottomWall
    {
        type            calculated;
        value           nonuniform List<vector> 
800
(
(-0.0353513 0.00216561 0)
(-0.016037 0.000524939 0)
(-0.0105918 0.000100526 0)
(-0.00845782 3.45618e-05 0)
(-0.00749462 1.96555e-05 0)
(-0.00685981 1.5984e-05 0)
(-0.0063519 1.31841e-05 0)
(-0.00594154 1.07349e-05 0)
(-0.00560778 8.93462e-06 0)
(-0.00532989 7.63532e-06 0)
(-0.00509328 6.65091e-06 0)
(-0.00488854 5.87317e-06 0)
(-0.00470921 5.24319e-06 0)
(-0.00455054 4.72413e-06 0)
(-0.00440895 4.2904e-06 0)
(-0.00428167 3.92347e-06 0)
(-0.00416652 3.60966e-06 0)
(-0.00406174 3.33867e-06 0)
(-0.00396592 3.10265e-06 0)
(-0.00387791 2.89552e-06 0)
(-0.00379674 2.7125e-06 0)
(-0.00372162 2.54979e-06 0)
(-0.00365187 2.40433e-06 0)
(-0.0035869 2.27363e-06 0)
(-0.00352623 2.15567e-06 0)
(-0.00346943 2.04873e-06 0)
(-0.00341614 1.95142e-06 0)
(-0.00336602 1.86254e-06 0)
(-0.0033188 1.7811e-06 0)
(-0.00327423 1.70624e-06 0)
(-0.00323209 1.63724e-06 0)
(-0.00319217 1.57348e-06 0)
(-0.00315432 1.5144e-06 0)
(-0.00311836 1.45954e-06 0)
(-0.00308417 1.40849e-06 0)
(-0.0030516 1.36088e-06 0)
(-0.00302056 1.31639e-06 0)
(-0.00299093 1.27475e-06 0)
(-0.00296262 1.2357e-06 0)
(-0.00293554 1.19901e-06 0)
(-0.00290962 1.16449e-06 0)
(-0.00288478 1.13196e-06 0)
(-0.00286097 1.10128e-06 0)
(-0.00283811 1.07223e-06 0)
(-0.00281615 1.04488e-06 0)
(-0.00279505 1.01871e-06 0)
(-0.00277474 9.94377e-07 0)
(-0.00275521 9.70434e-07 0)
(-0.00273638 9.48923e-07 0)
(-0.00271825 9.25954e-07 0)
(-0.0027031 9.07139e-07 0)
(-0.0026906 8.96507e-07 0)
(-0.00267826 8.82836e-07 0)
(-0.00266611 8.68244e-07 0)
(-0.00265416 8.5458e-07 0)
(-0.00264239 8.41591e-07 0)
(-0.00263079 8.28911e-07 0)
(-0.00261937 8.16499e-07 0)
(-0.00260813 8.04382e-07 0)
(-0.00259704 7.92556e-07 0)
(-0.00258612 7.81004e-07 0)
(-0.00257535 7.69712e-07 0)
(-0.00256475 7.58672e-07 0)
(-0.00255429 7.47875e-07 0)
(-0.00254398 7.37315e-07 0)
(-0.00253381 7.26983e-07 0)
(-0.00252379 7.16874e-07 0)
(-0.0025139 7.0698e-07 0)
(-0.00250415 6.97296e-07 0)
(-0.00249453 6.87814e-07 0)
(-0.00248505 6.78531e-07 0)
(-0.00247569 6.69439e-07 0)
(-0.00246645 6.60535e-07 0)
(-0.00245734 6.51812e-07 0)
(-0.00244834 6.43267e-07 0)
(-0.00243947 6.34894e-07 0)
(-0.00243071 6.2669e-07 0)
(-0.00242206 6.1865e-07 0)
(-0.00241352 6.10771e-07 0)
(-0.00240509 6.03047e-07 0)
(-0.00239677 5.95477e-07 0)
(-0.00238855 5.88056e-07 0)
(-0.00238044 5.8078e-07 0)
(-0.00237242 5.73648e-07 0)
(-0.0023645 5.66655e-07 0)
(-0.00235668 5.59798e-07 0)
(-0.00234895 5.53076e-07 0)
(-0.00234132 5.46485e-07 0)
(-0.00233377 5.40022e-07 0)
(-0.00232632 5.33685e-07 0)
(-0.00231895 5.27472e-07 0)
(-0.00231167 5.21379e-07 0)
(-0.00230447 5.15405e-07 0)
(-0.00229735 5.09547e-07 0)
(-0.00229032 5.03803e-07 0)
(-0.00228336 4.9817e-07 0)
(-0.00227648 4.92646e-07 0)
(-0.00226968 4.87228e-07 0)
(-0.00226296 4.81915e-07 0)
(-0.0022563 4.76703e-07 0)
(-0.00224972 4.71592e-07 0)
(-0.00224321 4.66579e-07 0)
(-0.00223677 4.61662e-07 0)
(-0.0022304 4.56839e-07 0)
(-0.00222409 4.52108e-07 0)
(-0.00221785 4.47467e-07 0)
(-0.00221167 4.42916e-07 0)
(-0.00220556 4.38452e-07 0)
(-0.00219951 4.34073e-07 0)
(-0.00219352 4.29778e-07 0)
(-0.00218759 4.25565e-07 0)
(-0.00218172 4.21432e-07 0)
(-0.0021759 4.17378e-07 0)
(-0.00217014 4.13401e-07 0)
(-0.00216444 4.09498e-07 0)
(-0.00215879 4.0567e-07 0)
(-0.0021532 4.01912e-07 0)
(-0.00214765 3.98224e-07 0)
(-0.00214216 3.94604e-07 0)
(-0.00213672 3.9105e-07 0)
(-0.00213133 3.8756e-07 0)
(-0.00212599 3.84132e-07 0)
(-0.0021207 3.80766e-07 0)
(-0.00211545 3.77459e-07 0)
(-0.00211025 3.7421e-07 0)
(-0.00210509 3.71018e-07 0)
(-0.00209998 3.67881e-07 0)
(-0.00209492 3.648e-07 0)
(-0.00208989 3.61772e-07 0)
(-0.00208491 3.58796e-07 0)
(-0.00207997 3.55872e-07 0)
(-0.00207508 3.52998e-07 0)
(-0.00207022 3.50174e-07 0)
(-0.0020654 3.47398e-07 0)
(-0.00206062 3.44671e-07 0)
(-0.00205588 3.41989e-07 0)
(-0.00205118 3.39355e-07 0)
(-0.00204651 3.36765e-07 0)
(-0.00204188 3.34223e-07 0)
(-0.00203729 3.31718e-07 0)
(-0.00203273 3.29266e-07 0)
(-0.00202821 3.2684e-07 0)
(-0.00202372 3.2448e-07 0)
(-0.00201926 3.22122e-07 0)
(-0.00201484 3.19862e-07 0)
(-0.00201045 3.17555e-07 0)
(-0.00200609 3.15406e-07 0)
(-0.00200176 3.13119e-07 0)
(-0.00199746 3.11068e-07 0)
(-0.00199319 3.0872e-07 0)
(-0.00198961 3.06631e-07 0)
(-0.00198668 3.05621e-07 0)
(-0.00198374 3.0435e-07 0)
(-0.00198079 3.02858e-07 0)
(-0.00197784 3.01379e-07 0)
(-0.00197488 2.99959e-07 0)
(-0.00197192 2.98563e-07 0)
(-0.00196895 2.97171e-07 0)
(-0.00196597 2.95783e-07 0)
(-0.00196299 2.94401e-07 0)
(-0.00196 2.93024e-07 0)
(-0.001957 2.91654e-07 0)
(-0.001954 2.90291e-07 0)
(-0.00195099 2.8893e-07 0)
(-0.00194797 2.87576e-07 0)
(-0.00194495 2.86226e-07 0)
(-0.00194192 2.8488e-07 0)
(-0.00193889 2.83538e-07 0)
(-0.00193585 2.82201e-07 0)
(-0.0019328 2.80867e-07 0)
(-0.00192975 2.79536e-07 0)
(-0.00192669 2.78209e-07 0)
(-0.00192362 2.76886e-07 0)
(-0.00192055 2.75564e-07 0)
(-0.00191747 2.74248e-07 0)
(-0.00191439 2.72933e-07 0)
(-0.0019113 2.71621e-07 0)
(-0.0019082 2.70313e-07 0)
(-0.0019051 2.69006e-07 0)
(-0.00190199 2.67702e-07 0)
(-0.00189887 2.66402e-07 0)
(-0.00189575 2.65102e-07 0)
(-0.00189262 2.63807e-07 0)
(-0.00188949 2.62513e-07 0)
(-0.00188635 2.61222e-07 0)
(-0.0018832 2.59933e-07 0)
(-0.00188005 2.58645e-07 0)
(-0.00187689 2.57359e-07 0)
(-0.00187373 2.56076e-07 0)
(-0.00187056 2.54794e-07 0)
(-0.00186738 2.53517e-07 0)
(-0.0018642 2.52241e-07 0)
(-0.00186102 2.50965e-07 0)
(-0.00185782 2.49692e-07 0)
(-0.00185463 2.48422e-07 0)
(-0.00185142 2.47154e-07 0)
(-0.00184821 2.45887e-07 0)
(-0.001845 2.44623e-07 0)
(-0.00184178 2.43363e-07 0)
(-0.00183855 2.42101e-07 0)
(-0.00183532 2.40846e-07 0)
(-0.00183208 2.3959e-07 0)
(-0.00182884 2.38335e-07 0)
(-0.00182559 2.37082e-07 0)
(-0.00182234 2.35828e-07 0)
(-0.00181908 2.34573e-07 0)
(-0.00181582 2.33323e-07 0)
(-0.00181255 2.32068e-07 0)
(-0.00180928 2.30818e-07 0)
(-0.001806 2.29563e-07 0)
(-0.00180272 2.28307e-07 0)
(-0.00179943 2.27052e-07 0)
(-0.00179614 2.25793e-07 0)
(-0.00179284 2.24531e-07 0)
(-0.00178954 2.23274e-07 0)
(-0.00178624 2.2201e-07 0)
(-0.00178293 2.20753e-07 0)
(-0.00177962 2.19492e-07 0)
(-0.0017763 2.1823e-07 0)
(-0.00177298 2.1697e-07 0)
(-0.00176965 2.15708e-07 0)
(-0.00176632 2.14454e-07 0)
(-0.00176299 2.13194e-07 0)
(-0.00175965 2.11947e-07 0)
(-0.00175631 2.10695e-07 0)
(-0.00175297 2.09467e-07 0)
(-0.00174962 2.08212e-07 0)
(-0.00174627 2.07031e-07 0)
(-0.00174291 2.05738e-07 0)
(-0.00173955 2.04655e-07 0)
(-0.00173619 2.03263e-07 0)
(-0.00173282 2.02398e-07 0)
(-0.00172945 2.00736e-07 0)
(-0.00172606 2.0039e-07 0)
(-0.0017227 1.98009e-07 0)
(-0.00171928 1.989e-07 0)
(-0.00171595 1.94741e-07 0)
(-0.00171247 1.98502e-07 0)
(-0.00170919 1.90149e-07 0)
(-0.00170559 2.00459e-07 0)
(-0.00170245 1.82509e-07 0)
(-0.00169862 2.07377e-07 0)
(-0.00169577 1.683e-07 0)
(-0.00169148 2.243e-07 0)
(-0.00168922 1.4093e-07 0)
(-0.00168409 2.59676e-07 0)
(-0.00168286 8.97031e-08 0)
(-0.00167642 3.23043e-07 0)
(-0.00167667 8.88734e-09 0)
(-0.00166849 3.54913e-07 0)
(-0.035351 -0.00216567 0)
(-0.0160348 -0.000525033 0)
(-0.0105869 -0.000100633 0)
(-0.00845 -3.46646e-05 0)
(-0.00748377 -1.97601e-05 0)
(-0.00684584 -1.60912e-05 0)
(-0.00633475 -1.32925e-05 0)
(-0.00592126 -1.08442e-05 0)
(-0.00558441 -9.04463e-06 0)
(-0.00530346 -7.74611e-06 0)
(-0.00506384 -6.7628e-06 0)
(-0.00485611 -5.98663e-06 0)
(-0.00467378 -5.35874e-06 0)
(-0.00451213 -4.84221e-06 0)
(-0.00436754 -4.41144e-06 0)
(-0.00423724 -4.04791e-06 0)
(-0.00411903 -3.73798e-06 0)
(-0.00401116 -3.47146e-06 0)
(-0.0039122 -3.24057e-06 0)
(-0.00382097 -3.03937e-06 0)
(-0.00373651 -2.86318e-06 0)
(-0.00365798 -2.70832e-06 0)
(-0.00358469 -2.57185e-06 0)
(-0.00351605 -2.45144e-06 0)
(-0.00345153 -2.34517e-06 0)
(-0.00339068 -2.2516e-06 0)
(-0.00333309 -2.16944e-06 0)
(-0.00327843 -2.09787e-06 0)
(-0.00322635 -2.03602e-06 0)
(-0.00317658 -1.98361e-06 0)
(-0.00312885 -1.93993e-06 0)
(-0.00308289 -1.90545e-06 0)
(-0.00303849 -1.87912e-06 0)
(-0.0029954 -1.86285e-06 0)
(-0.00295343 -1.85432e-06 0)
(-0.00291231 -1.85822e-06 0)
(-0.00287187 -1.86922e-06 0)
(-0.00283186 -1.89713e-06 0)
(-0.00279195 -1.93139e-06 0)
(-0.00275219 -1.98861e-06 0)
(-0.00271154 -2.0549e-06 0)
(-0.00267133 -2.14365e-06 0)
(-0.00262789 -2.26746e-06 0)
(-0.00258731 -2.36756e-06 0)
(-0.00253682 -2.63083e-06 0)
(-0.00249885 -2.63119e-06 0)
(-0.00243081 -3.32335e-06 0)
(-0.00240693 -2.61061e-06 0)
(-0.00230037 -8.23724e-06 0)
(-0.00216855 0.00015161 0)
(5.25795e-05 -2.18674e-05 0)
(6.02978e-05 -0.000122286 0)
(5.25865e-05 -0.000212332 0)
(4.13121e-05 -0.000281668 0)
(3.25682e-05 -0.000332001 0)
(2.82366e-05 -0.000365038 0)
(2.49518e-05 -0.000375409 0)
(-8.15685e-06 -0.00034686 0)
(-7.26119e-05 -0.000250397 0)
(-0.000102897 -0.000112364 0)
(-8.25166e-05 -8.74733e-06 0)
(-5.41517e-05 4.64965e-05 0)
(-3.54802e-05 6.95277e-05 0)
(-2.86384e-05 7.98079e-05 0)
(-2.90185e-05 8.87499e-05 0)
(-3.10523e-05 0.00010154 0)
(-2.84039e-05 0.000114949 0)
(-1.70863e-05 0.000120091 0)
(3.92036e-06 0.000106418 0)
(3.31137e-05 6.42013e-05 0)
(6.62543e-05 -1.33762e-05 0)
(0.000100563 -0.000128263 0)
(0.00013177 -0.00027702 0)
(0.000157732 -0.000454341 0)
(0.000176872 -0.000652674 0)
(0.000188713 -0.000864438 0)
(0.000193499 -0.00108252 0)
(0.000192021 -0.00130037 0)
(0.000185368 -0.00151236 0)
(0.00017469 -0.00171415 0)
(0.00016102 -0.00190264 0)
(0.000145209 -0.00207575 0)
(0.000127933 -0.00223211 0)
(0.0001097 -0.00237096 0)
(9.09078e-05 -0.00249196 0)
(7.18486e-05 -0.00259506 0)
(5.27483e-05 -0.0026804 0)
(3.38737e-05 -0.00274836 0)
(1.52651e-05 -0.00279946 0)
(-2.79252e-06 -0.00283404 0)
(-2.01622e-05 -0.00285347 0)
(-3.74901e-05 -0.00285791 0)
(-5.43626e-05 -0.00284738 0)
(-6.95942e-05 -0.00282359 0)
(-8.28366e-05 -0.00278804 0)
(-9.42569e-05 -0.00274221 0)
(-0.000104163 -0.00268745 0)
(-0.00011283 -0.00262496 0)
(-0.000120516 -0.00255584 0)
(-0.000127489 -0.00248105 0)
(-0.000134047 -0.00240135 0)
(-0.000140479 -0.00231728 0)
(-0.00014702 -0.00222922 0)
(-0.000153869 -0.00213736 0)
(-0.000161154 -0.00204176 0)
(-0.000168958 -0.00194237 0)
(-0.000177331 -0.00183904 0)
(-0.00018617 -0.00173159 0)
(-0.000195383 -0.00161986 0)
(-0.000204858 -0.00150353 0)
(-0.000213998 -0.00138256 0)
(-0.000222683 -0.00125717 0)
(-0.000230759 -0.00112666 0)
(-0.000235932 -0.00099183 0)
(-0.000238786 -0.000855717 0)
(-0.000244495 -0.000715472 0)
(-0.000246909 -0.000563021 0)
(-0.00022333 -0.000399757 0)
(-0.000158142 -0.00024442 0)
(-6.11866e-05 -0.000119339 0)
(4.36822e-05 -3.33914e-05 0)
(0.000136266 1.61325e-05 0)
(0.000203926 3.43799e-05 0)
(0.000240842 2.94001e-05 0)
(0.000244254 1.21546e-05 0)
(0.000217176 -8.28098e-06 0)
(0.000167931 -2.43139e-05 0)
(0.000105639 -3.07673e-05 0)
(4.20603e-05 -2.63154e-05 0)
(-1.21309e-05 -1.35987e-05 0)
(-5.07829e-05 2.14464e-06 0)
(-7.36594e-05 1.64834e-05 0)
(-8.38944e-05 2.81628e-05 0)
(-8.48969e-05 3.89605e-05 0)
(-7.92855e-05 5.11622e-05 0)
(-6.91635e-05 6.56707e-05 0)
(-5.73071e-05 8.26688e-05 0)
(-4.56627e-05 0.000101215 0)
(-3.59397e-05 0.000120409 0)
(-2.94e-05 0.000139622 0)
(-2.61505e-05 0.000158802 0)
(-2.56306e-05 0.000178009 0)
(-2.67396e-05 0.00019709 0)
(-2.82494e-05 0.000215598 0)
(-2.9085e-05 0.000232866 0)
(-2.85021e-05 0.000248124 0)
(-2.61346e-05 0.000260625 0)
(-2.19592e-05 0.000269747 0)
(-1.61754e-05 0.000275049 0)
(-9.19558e-06 0.000276267 0)
(-1.43939e-06 0.000273409 0)
(6.6938e-06 0.00026657 0)
(1.47855e-05 0.000255922 0)
(2.24213e-05 0.000241755 0)
(2.92049e-05 0.00022447 0)
(3.47952e-05 0.000204615 0)
(3.8978e-05 0.000182903 0)
(4.17578e-05 0.000160066 0)
(4.32007e-05 0.000136796 0)
(4.34958e-05 0.000113725 0)
(4.28275e-05 9.13988e-05 0)
(4.14705e-05 7.02684e-05 0)
(3.96918e-05 5.06479e-05 0)
(3.77369e-05 3.27438e-05 0)
(3.5814e-05 1.66518e-05 0)
(3.4079e-05 2.3429e-06 0)
(3.26238e-05 -1.03303e-05 0)
(3.14733e-05 -2.15617e-05 0)
(3.06246e-05 -3.15725e-05 0)
(3.00616e-05 -4.0603e-05 0)
(2.97631e-05 -4.89081e-05 0)
(2.97021e-05 -5.67499e-05 0)
(2.98384e-05 -6.43842e-05 0)
(3.01091e-05 -7.20408e-05 0)
(3.04235e-05 -7.98995e-05 0)
(3.06659e-05 -8.8066e-05 0)
(3.07085e-05 -9.65566e-05 0)
(3.04299e-05 -0.000105296 0)
(2.97339e-05 -0.000114128 0)
(2.8561e-05 -0.000122841 0)
(2.68933e-05 -0.00013118 0)
(2.47551e-05 -0.000138874 0)
(2.2211e-05 -0.000145637 0)
(1.93666e-05 -0.000151187 0)
(1.63631e-05 -0.000155258 0)
(1.33479e-05 -0.000157619 0)
(1.0495e-05 -0.000158103 0)
(7.89865e-06 -0.000156717 0)
(5.40445e-06 -0.000153619 0)
(2.55069e-06 -0.000149 0)
(-1.38156e-06 -0.000142977 0)
(-7.26252e-06 -0.000135461 0)
(-1.58663e-05 -0.000126031 0)
(-2.75739e-05 -0.000113863 0)
(-4.21214e-05 -9.79471e-05 0)
(-5.85248e-05 -7.75384e-05 0)
(-7.52785e-05 -5.25028e-05 0)
(-9.0787e-05 -2.34378e-05 0)
(-0.000103716 8.51078e-06 0)
(-0.000113199 4.19169e-05 0)
(-0.000118928 7.54017e-05 0)
(-0.000121007 0.000107855 0)
(-0.000119749 0.000138436 0)
(-0.000115592 0.000166547 0)
(-0.000109017 0.000191781 0)
(-0.000100502 0.000213886 0)
(-9.04931e-05 0.000232724 0)
(-7.93889e-05 0.000248252 0)
(-6.75309e-05 0.000260492 0)
(-5.52216e-05 0.000269501 0)
(-4.27408e-05 0.000275394 0)
(-3.03072e-05 0.000278361 0)
(-1.80925e-05 0.000278589 0)
(-6.25136e-06 0.000276269 0)
(5.14543e-06 0.000271629 0)
(1.60674e-05 0.000264871 0)
(2.64773e-05 0.000256188 0)
(3.63649e-05 0.000245757 0)
(4.57339e-05 0.000233736 0)
(5.45945e-05 0.00022027 0)
(6.29582e-05 0.000205485 0)
(7.08329e-05 0.00018949 0)
(7.82183e-05 0.000172383 0)
(8.51017e-05 0.000154249 0)
(9.14549e-05 0.000135166 0)
(9.7232e-05 0.000115214 0)
(0.000102369 9.44763e-05 0)
(0.000106783 7.30506e-05 0)
(0.000110379 5.10535e-05 0)
(0.000113055 2.86266e-05 0)
(0.000114705 5.94092e-06 0)
(0.000115226 -1.68003e-05 0)
(0.000114536 -3.93574e-05 0)
(0.000112586 -6.14581e-05 0)
(0.00010936 -8.28057e-05 0)
(0.000104898 -0.000103088 0)
(9.92933e-05 -0.000121998 0)
(9.26938e-05 -0.000139259 0)
(8.52841e-05 -0.000154669 0)
(7.72496e-05 -0.000168164 0)
(6.8704e-05 -0.000179921 0)
(5.95512e-05 -0.000190539 0)
(4.9232e-05 -0.000201367 0)
(3.63061e-05 -0.000215077 0)
(1.77264e-05 -0.000236678 0)
(-1.24372e-05 -0.000274944 0)
(-6.6101e-05 -0.000344456 0)
(-0.000165885 -0.000466871 0)
(-0.000339535 -0.000664324 0)
(-0.000591687 -0.000939965 0)
(1.3372e-06 -5.35955e-05 0)
(7.42271e-05 -6.43043e-05 0)
(0.000132705 -6.0434e-05 0)
(0.000176107 -4.7872e-05 0)
(0.000203547 -3.45868e-05 0)
(0.000221111 -2.64344e-05 0)
(0.000237128 -2.37359e-05 0)
(0.00025665 -2.2799e-05 0)
(0.000279983 -1.97912e-05 0)
(0.000303889 -1.2787e-05 0)
(0.000323571 -2.51359e-06 0)
(0.000335149 8.66825e-06 0)
(0.000336958 1.89609e-05 0)
(0.000328605 2.80949e-05 0)
(0.000309838 3.68531e-05 0)
(0.000279445 4.65198e-05 0)
(0.000235512 5.73539e-05 0)
(0.000177443 6.75537e-05 0)
(0.00010759 7.34421e-05 0)
(3.11772e-05 7.0295e-05 0)
(-4.4568e-05 5.42204e-05 0)
(-0.000108344 2.35668e-05 0)
(-0.000152859 2.0643e-06 0)
(-0.000186764 1.91759e-05 0)
(-0.000215152 7.06496e-05 0)
(-0.000229062 0.000148036 0)
(-0.000224576 0.000215893 0)
(-0.000218503 0.000227335 0)
(-0.000225085 0.000150935 0)
(-0.000176442 -8.13146e-05 0)
(1.27568e-05 -0.000335706 0)
(0.000289386 -0.000462254 0)
(0.000524366 -0.000328038 0)
(0.000551623 -9.60208e-05 0)
(0.000478978 1.01319e-05 0)
(0.000427687 3.34124e-05 0)
(0.000386077 6.07011e-05 0)
(0.000323753 9.87994e-05 0)
(0.000235823 0.000130465 0)
(0.000126695 0.000156077 0)
(-4.29993e-06 0.000180015 0)
(-0.000160677 0.000203151 0)
(-0.00034242 0.000222413 0)
(-0.000528618 0.000229305 0)
(-0.000710321 0.000226913 0)
(-0.000892868 0.000218775 0)
(-0.00107164 0.000205239 0)
(-0.00123921 0.00018642 0)
(-0.00138986 0.000163991 0)
(-0.00152089 0.000140037 0)
(-0.00163221 0.00011666 0)
(-0.00172547 9.55365e-05 0)
(-0.00180342 7.77303e-05 0)
(-0.00186925 6.36292e-05 0)
(-0.001926 5.27553e-05 0)
(-0.00197597 4.4111e-05 0)
(-0.00202048 3.61427e-05 0)
(-0.00205954 2.6789e-05 0)
(-0.00209172 1.4166e-05 0)
(-0.00211449 -4.40694e-06 0)
(-0.00212327 -3.2443e-05 0)
(-0.00211027 -7.32127e-05 0)
(-0.00206547 -0.000133479 0)
(-0.00197461 -0.000219217 0)
(-0.0018241 -0.000341179 0)
(-0.00159347 -0.000513094 0)
(-0.00125549 -0.00075858 0)
(-0.000662866 -0.00107572 0)
(0.000356955 -0.00121875 0)
(0.001386 -0.000667078 0)
(0.00148115 -0.000111179 0)
(0.00153823 -0.00014182 0)
(0.00171072 -7.30762e-05 0)
(0.00168256 0.000138301 0)
(0.00151736 0.000210383 0)
(0.00133335 0.000233411 0)
(0.00114386 0.000229035 0)
(0.000989963 0.000182751 0)
(0.000895762 0.00011859 0)
(0.000845657 6.38888e-05 0)
(0.000810424 3.48346e-05 0)
(0.000774057 2.38381e-05 0)
(0.000742435 1.68696e-05 0)
(0.000712606 1.73032e-05 0)
(0.000680051 1.85971e-05 0)
(0.000649652 2.02092e-05 0)
(0.000616222 2.5449e-05 0)
(0.000578087 3.20619e-05 0)
(0.000534502 4.0017e-05 0)
(0.000484559 4.82273e-05 0)
(0.000428977 5.53098e-05 0)
(0.000369288 6.04305e-05 0)
(0.000307496 6.33628e-05 0)
(0.000245426 6.4347e-05 0)
(0.000184075 6.37624e-05 0)
(0.000123602 6.11613e-05 0)
(6.46381e-05 5.36561e-05 0)
(1.28603e-05 3.64122e-05 0)
(-1.91423e-05 8.00937e-06 0)
(-7.76481e-06 -1.8022e-05 0)
(-2.27097e-05 -7.85973e-06 0)
(-1.51485e-05 -2.47179e-05 0)
(1.78614e-07 -1.26374e-05 0)
(1.61517e-05 2.12509e-05 0)
(2.40745e-05 5.63007e-05 0)
(2.45921e-05 8.38521e-05 0)
(2.51481e-05 0.000108732 0)
(2.56771e-05 0.000134864 0)
(1.9534e-05 0.000157338 0)
(4.76812e-06 0.000167453 0)
(-1.48477e-05 0.000155778 0)
(-3.50148e-05 0.000115094 0)
(-5.09473e-05 4.60903e-05 0)
(-5.7074e-05 -4.34068e-05 0)
(-4.35365e-05 -0.000133151 0)
(-1.04924e-05 -0.000196075 0)
(3.63439e-05 -0.000211839 0)
(8.26969e-05 -0.000172233 0)
(0.000130154 -8.52279e-05 0)
(0.000164155 5.82865e-05 0)
(0.000191175 0.000242508 0)
(9.34706e-05 0.000473435 0)
(-4.9489e-05 0.000541481 0)
(2.55634e-05 0.000517987 0)
(0.000131643 0.000651705 0)
(5.00855e-05 0.000783217 0)
(-0.00017794 0.00065979 0)
(-0.00036161 0.000277527 0)
(-0.000326673 -0.00018604 0)
(-0.000137306 -0.000485566 0)
(7.42821e-05 -0.000533668 0)
(0.000184451 -0.000393619 0)
(0.000177295 -0.000166184 0)
(8.86673e-05 6.17068e-05 0)
(4.7297e-06 0.000226419 0)
(-7.84287e-09 0.000310764 0)
(0.000131561 0.000424531 0)
(0.000250364 0.000269994 0)
(0.000428558 0.000153054 0)
(0.000580557 0.000196818 0)
(0.000332161 0.000439996 0)
(-0.000372479 0.000540667 0)
(-0.00101583 0.000276976 0)
(-0.00115507 -9.78697e-05 0)
(-0.00105927 -0.000392365 0)
(-0.00081741 -0.000614748 0)
(-0.000292213 -0.000485166 0)
(0.00011116 -0.000146184 0)
(0.000179565 0.000265927 0)
(-4.90542e-05 0.000553307 0)
(-7.62758e-05 0.000657477 0)
(0.000162734 0.000852687 0)
(0.000544699 0.00118811 0)
(0.00104149 0.00167167 0)
(0.00134215 0.00244068 0)
(0.00105752 0.00326806 0)
(0.000392681 0.00354232 0)
(0.000106893 0.00340738 0)
(0.000223115 0.00342007 0)
(0.000247008 0.00359622 0)
(9.52694e-05 0.00368752 0)
(2.52871e-05 0.00365819 0)
(6.86386e-05 0.00365757 0)
(7.3949e-05 0.00370461 0)
(2.70578e-05 0.00372124 0)
(9.8906e-06 0.00370265 0)
(2.40312e-05 0.00369569 0)
(2.30865e-05 0.0037018 0)
(8.47734e-06 0.00369612 0)
(3.86095e-06 0.00368083 0)
(6.86454e-06 0.00366898 0)
(5.34688e-06 0.0036597 0)
(4.4979e-07 0.00364646 0)
(-1.77415e-06 0.00363006 0)
(-2.09496e-06 0.00361406 0)
(-3.68336e-06 0.00359818 0)
(-6.17618e-06 0.00358067 0)
(-7.95125e-06 0.00356177 0)
(-9.21122e-06 0.00354251 0)
(-1.08045e-05 0.00352285 0)
(-1.26148e-05 0.00350232 0)
(-1.41768e-05 0.00348104 0)
(-1.55319e-05 0.00345935 0)
(-1.69205e-05 0.00343727 0)
(-1.83307e-05 0.00341471 0)
(-1.96426e-05 0.00339171 0)
(-2.0865e-05 0.00336839 0)
(-2.20714e-05 0.00334477 0)
(-2.32759e-05 0.00332084 0)
(-2.4457e-05 0.00329661 0)
(-2.56202e-05 0.00327212 0)
(-2.67895e-05 0.00324736 0)
(-2.79762e-05 0.00322235 0)
(-2.918e-05 0.00319706 0)
(-3.04042e-05 0.00317152 0)
(-3.16565e-05 0.0031457 0)
(-3.29422e-05 0.00311961 0)
(-3.4263e-05 0.00309324 0)
(-3.56203e-05 0.00306658 0)
(-3.70169e-05 0.00303962 0)
(-3.8455e-05 0.00301237 0)
(-3.99364e-05 0.0029848 0)
(-4.14627e-05 0.00295691 0)
(-4.30359e-05 0.00292869 0)
(-4.46584e-05 0.00290014 0)
(-4.63327e-05 0.00287125 0)
(-4.80618e-05 0.002842 0)
(-4.98488e-05 0.00281239 0)
(-5.16975e-05 0.0027824 0)
(-5.36121e-05 0.00275203 0)
(-5.55974e-05 0.00272126 0)
(-5.76584e-05 0.00269009 0)
(-5.98008e-05 0.00265849 0)
(-6.20305e-05 0.00262644 0)
(-6.4354e-05 0.00259395 0)
(-6.67778e-05 0.00256097 0)
(-6.93086e-05 0.00252751 0)
(-7.19533e-05 0.00249352 0)
(-7.47189e-05 0.002459 0)
(-7.7612e-05 0.00242393 0)
(-8.06395e-05 0.00238826 0)
(-8.38076e-05 0.00235199 0)
(-8.71228e-05 0.00231508 0)
(-9.05908e-05 0.00227751 0)
(-9.42172e-05 0.00223925 0)
(-9.80075e-05 0.00220028 0)
(-0.000101966 0.00216056 0)
(-0.000106098 0.00212008 0)
(-0.000110408 0.00207879 0)
(-0.000114899 0.00203668 0)
(-0.000119575 0.00199373 0)
(-0.000124439 0.00194989 0)
(-0.000129495 0.00190515 0)
(-0.000134746 0.00185948 0)
(-0.000140194 0.00181287 0)
(-0.000145844 0.00176527 0)
(-0.0001517 0.00171667 0)
(-0.000157767 0.00166706 0)
(-0.000164051 0.00161639 0)
(-0.00017056 0.00156467 0)
(-0.000177303 0.00151185 0)
(-0.000184291 0.00145792 0)
(-0.000191536 0.00140286 0)
(-0.000199053 0.00134664 0)
(-0.000206858 0.00128925 0)
(-0.000214969 0.00123064 0)
(-0.000223404 0.00117081 0)
(-0.000232183 0.00110972 0)
(-0.000241329 0.00104734 0)
(-0.000250868 0.000983667 0)
(-0.000260831 0.000918657 0)
(-0.000271252 0.000852289 0)
(-0.000282174 0.000784532 0)
(-0.000293647 0.000715344 0)
(-0.000305727 0.000644666 0)
(-0.000318477 0.000572403 0)
(-0.000331942 0.000498422 0)
(-0.000346149 0.000422554 0)
(-0.000361113 0.000344611 0)
(-0.000376805 0.000264427 0)
(-0.000393137 0.000181912 0)
(-0.000410162 9.70866e-05 0)
(-0.00042786 9.93614e-06 0)
(-0.000446106 -7.9397e-05 0)
(-0.000465105 -0.000170751 0)
(-0.000485122 -0.000264192 0)
(-0.000506264 -0.000359798 0)
(-0.000528705 -0.000457701 0)
(-0.000552623 -0.000558066 0)
(-0.000578193 -0.000661074 0)
(-0.0006056 -0.000766912 0)
(-0.000635037 -0.00087577 0)
(-0.000666716 -0.000987836 0)
(-0.000700874 -0.0011033 0)
(-0.000737779 -0.00122238 0)
(-0.000777734 -0.00134526 0)
(-0.00082108 -0.00147218 0)
(-0.000868205 -0.00160338 0)
(-0.000919548 -0.00173911 0)
(-0.000975605 -0.00187967 0)
(-0.00103693 -0.00202535 0)
(-0.00110416 -0.00217648 0)
(-0.001178 -0.00233345 0)
(-0.00125923 -0.00249665 0)
(-0.00134875 -0.00266656 0)
(-0.00144751 -0.00284356 0)
(-0.00155668 -0.00302846 0)
(-0.00167736 -0.00322134 0)
(-0.00181117 -0.00342395 0)
(-0.00195908 -0.00363485 0)
(-0.00212387 -0.00385929 0)
(-0.00230514 -0.00408943 0)
(-0.00250947 -0.00434352 0)
(-0.00273008 -0.00458938 0)
(-0.00298661 -0.00489184 0)
(-0.00324755 -0.00513219 0)
(-0.00357513 -0.00553426 0)
(-0.00384608 -0.00568697 0)
(-0.00424534 -0.00633238 0)
(-0.00429307 -0.00607441 0)
)
;
    }
    frontAndBack
    {
        type            empty;
    }
}


// ************************************************************************* //
