/*--------------------------------*- C++ -*----------------------------------*\
  =========                 |
  \\      /  F ield         | OpenFOAM: The Open Source CFD Toolbox
   \\    /   O peration     | Website:  https://openfoam.org
    \\  /    A nd           | Version:  7
     \\/     M anipulation  |
\*---------------------------------------------------------------------------*/
FoamFile
{
    version     2.0;
    format      ascii;
    class       volScalarField;
    location    "0.15";
    object      k_0;
}
// * * * * * * * * * * * * * * * * * * * * * * * * * * * * * * * * * * * * * //

dimensions      [0 2 -2 0 0 0 0];

internalField   nonuniform List<scalar> 
70000
(
1.08549e-05
4.21855e-06
2.82388e-06
2.31615e-06
1.99655e-06
1.75609e-06
1.56378e-06
1.40684e-06
1.27569e-06
1.16497e-06
1.06964e-06
9.87662e-07
9.15675e-07
8.53078e-07
7.97195e-07
7.48255e-07
7.03824e-07
6.64734e-07
6.28658e-07
5.96891e-07
5.67083e-07
5.40902e-07
5.15887e-07
4.9404e-07
4.72742e-07
4.54307e-07
4.35919e-07
4.20203e-07
4.04115e-07
3.90599e-07
3.76345e-07
3.64633e-07
3.51846e-07
3.41625e-07
3.3001e-07
3.21027e-07
3.10347e-07
3.02384e-07
2.9246e-07
2.85315e-07
2.76015e-07
2.6953e-07
2.60679e-07
2.54915e-07
2.46041e-07
2.41364e-07
2.31226e-07
2.3436e-07
2.23617e-07
2.39791e-07
1.72794e-05
1.13669e-05
8.51931e-06
7.00864e-06
6.03454e-06
5.30789e-06
4.72743e-06
4.25347e-06
3.85735e-06
3.52297e-06
3.23506e-06
2.98748e-06
2.77004e-06
2.58096e-06
2.41213e-06
2.26427e-06
2.13e-06
2.01187e-06
1.90283e-06
1.80682e-06
1.71669e-06
1.63755e-06
1.56191e-06
1.49586e-06
1.43144e-06
1.37571e-06
1.32008e-06
1.27257e-06
1.22389e-06
1.18303e-06
1.13989e-06
1.10449e-06
1.06579e-06
1.03491e-06
9.99752e-07
9.72616e-07
9.40299e-07
9.16243e-07
8.86239e-07
8.64638e-07
8.36557e-07
8.16953e-07
7.90206e-07
7.72881e-07
7.45999e-07
7.31941e-07
7.01264e-07
7.05868e-07
6.78639e-07
6.96375e-07
1.937e-05
1.61295e-05
1.32897e-05
1.12875e-05
9.82502e-06
8.69198e-06
7.77265e-06
7.01461e-06
6.37632e-06
5.83489e-06
5.36692e-06
4.96339e-06
4.60798e-06
4.29835e-06
4.02122e-06
3.77816e-06
3.55695e-06
3.36217e-06
3.182e-06
3.02332e-06
2.87408e-06
2.74305e-06
2.61753e-06
2.50801e-06
2.40093e-06
2.30839e-06
2.21578e-06
2.13681e-06
2.05566e-06
1.98771e-06
1.91573e-06
1.85683e-06
1.79218e-06
1.7408e-06
1.68203e-06
1.63687e-06
1.58285e-06
1.54279e-06
1.49269e-06
1.45664e-06
1.40983e-06
1.37713e-06
1.33245e-06
1.30377e-06
1.25876e-06
1.23541e-06
1.18463e-06
1.18448e-06
1.14642e-06
1.1471e-06
1.9861e-05
1.82601e-05
1.6085e-05
1.41992e-05
1.26376e-05
1.13456e-05
1.02557e-05
9.33328e-06
8.53949e-06
7.85621e-06
7.25887e-06
6.7395e-06
6.27828e-06
5.87419e-06
5.51011e-06
5.18941e-06
4.89582e-06
4.6366e-06
4.39562e-06
4.18307e-06
3.98222e-06
3.8058e-06
3.63598e-06
3.48789e-06
3.34236e-06
3.21677e-06
3.09039e-06
2.98291e-06
2.8718e-06
2.77911e-06
2.68026e-06
2.59981e-06
2.51082e-06
2.44055e-06
2.3595e-06
2.29768e-06
2.22312e-06
2.16815e-06
2.09906e-06
2.04944e-06
1.98495e-06
1.93994e-06
1.87819e-06
1.83897e-06
1.77677e-06
1.74459e-06
1.67664e-06
1.66648e-06
1.62221e-06
1.59291e-06
1.99706e-05
1.78462e-05
1.60749e-05
1.47674e-05
1.36026e-05
1.25378e-05
1.15678e-05
1.07004e-05
9.91694e-06
9.22166e-06
8.59864e-06
8.04656e-06
7.54724e-06
7.10422e-06
6.69917e-06
6.33886e-06
6.00494e-06
5.70838e-06
5.42983e-06
5.18335e-06
4.9482e-06
4.74135e-06
4.54034e-06
4.36513e-06
4.19124e-06
4.04149e-06
3.88925e-06
3.7603e-06
3.62558e-06
3.51385e-06
3.39332e-06
3.29598e-06
3.18696e-06
3.10169e-06
3.00201e-06
2.92678e-06
2.83488e-06
2.76768e-06
2.68252e-06
2.62157e-06
2.54202e-06
2.48674e-06
2.4103e-06
2.3621e-06
2.28547e-06
2.24543e-06
2.16498e-06
2.14255e-06
2.09418e-06
2.03412e-06
2.00096e-05
1.47037e-05
1.37495e-05
1.32145e-05
1.25948e-05
1.19316e-05
1.12814e-05
1.06617e-05
1.00837e-05
9.55083e-06
9.04792e-06
8.58292e-06
8.14581e-06
7.74751e-06
7.37172e-06
7.03063e-06
6.70716e-06
6.41668e-06
6.13851e-06
5.8908e-06
5.65018e-06
5.43779e-06
5.2278e-06
5.04477e-06
4.85989e-06
4.70114e-06
4.53689e-06
4.39865e-06
4.25162e-06
4.13078e-06
3.99794e-06
3.89191e-06
3.77072e-06
3.67726e-06
3.56571e-06
3.48277e-06
3.37945e-06
3.3048e-06
3.20884e-06
3.1407e-06
3.05077e-06
2.98883e-06
2.9023e-06
2.84749e-06
2.76183e-06
2.71476e-06
2.6305e-06
2.59083e-06
2.54551e-06
2.45989e-06
2.01333e-05
1.54628e-05
9.63449e-06
9.40362e-06
9.49977e-06
9.50186e-06
9.44466e-06
9.3093e-06
9.06787e-06
8.79554e-06
8.49977e-06
8.20413e-06
7.90962e-06
7.62862e-06
7.34762e-06
7.09025e-06
6.83846e-06
6.60749e-06
6.37778e-06
6.17055e-06
5.96199e-06
5.77656e-06
5.5874e-06
5.4223e-06
5.25019e-06
5.10308e-06
4.94638e-06
4.81589e-06
4.67283e-06
4.55695e-06
4.42551e-06
4.32244e-06
4.20081e-06
4.10891e-06
3.99569e-06
3.91322e-06
3.80739e-06
3.7323e-06
3.63339e-06
3.56431e-06
3.47105e-06
3.4077e-06
3.31826e-06
3.26034e-06
3.17365e-06
3.12116e-06
3.04197e-06
2.98786e-06
2.94391e-06
2.84845e-06
2.01715e-05
1.86732e-05
8.67729e-06
5.54173e-06
5.63483e-06
5.94367e-06
6.30535e-06
6.59432e-06
6.77735e-06
6.88906e-06
6.91168e-06
6.89362e-06
6.84247e-06
6.75717e-06
6.64567e-06
6.52515e-06
6.38411e-06
6.24526e-06
6.09722e-06
5.96009e-06
5.81272e-06
5.68038e-06
5.53828e-06
5.41352e-06
5.27911e-06
5.16615e-06
5.03971e-06
4.93634e-06
4.81662e-06
4.72197e-06
4.6086e-06
4.52219e-06
4.41471e-06
4.33596e-06
4.23401e-06
4.16175e-06
4.06474e-06
3.99793e-06
3.90617e-06
3.84404e-06
3.75672e-06
3.69862e-06
3.61544e-06
3.55972e-06
3.48126e-06
3.42772e-06
3.36027e-06
3.2997e-06
3.25966e-06
3.16614e-06
2.01674e-05
1.97232e-05
1.61579e-05
4.8468e-06
3.04272e-06
3.1093e-06
3.38375e-06
3.8179e-06
4.18797e-06
4.51077e-06
4.76181e-06
4.95636e-06
5.09901e-06
5.20431e-06
5.26418e-06
5.30439e-06
5.31045e-06
5.30337e-06
5.28105e-06
5.24857e-06
5.19656e-06
5.14764e-06
5.0822e-06
5.02439e-06
4.94984e-06
4.88491e-06
4.8042e-06
4.7395e-06
4.6568e-06
4.59407e-06
4.51154e-06
4.4515e-06
4.37021e-06
4.31333e-06
4.23361e-06
4.18042e-06
4.1046e-06
4.05495e-06
3.98177e-06
3.93471e-06
3.86396e-06
3.81841e-06
3.75103e-06
3.70532e-06
3.64342e-06
3.596e-06
3.54515e-06
3.48816e-06
3.45593e-06
3.3758e-06
2.01479e-05
1.9934e-05
1.90625e-05
1.44814e-05
5.21309e-06
2.1504e-06
1.91572e-06
1.99839e-06
2.21755e-06
2.5216e-06
2.80119e-06
3.0611e-06
3.28941e-06
3.49275e-06
3.65934e-06
3.80402e-06
3.91805e-06
4.01341e-06
4.08479e-06
4.14531e-06
4.18339e-06
4.21486e-06
4.2295e-06
4.23872e-06
4.2369e-06
4.23198e-06
4.21804e-06
4.20546e-06
4.1786e-06
4.16122e-06
4.12635e-06
4.10507e-06
4.06579e-06
4.04142e-06
3.99991e-06
3.97273e-06
3.92732e-06
3.89902e-06
3.85219e-06
3.82385e-06
3.77669e-06
3.74766e-06
3.7017e-06
3.67098e-06
3.62935e-06
3.59396e-06
3.56197e-06
3.51922e-06
3.49834e-06
3.44283e-06
2.01218e-05
1.99659e-05
1.96409e-05
1.85398e-05
1.51877e-05
8.30205e-06
3.06763e-06
1.62818e-06
1.44267e-06
1.45302e-06
1.53492e-06
1.70377e-06
1.88952e-06
2.073e-06
2.24678e-06
2.41396e-06
2.56418e-06
2.70388e-06
2.82465e-06
2.93691e-06
3.03117e-06
3.11789e-06
3.18885e-06
3.25389e-06
3.30481e-06
3.35299e-06
3.38725e-06
3.42297e-06
3.44377e-06
3.46869e-06
3.47964e-06
3.49531e-06
3.49948e-06
3.50709e-06
3.50731e-06
3.50795e-06
3.50544e-06
3.50311e-06
3.49607e-06
3.49168e-06
3.48096e-06
3.475e-06
3.46161e-06
3.45478e-06
3.44155e-06
3.42972e-06
3.41934e-06
3.39805e-06
3.39015e-06
3.36271e-06
2.00984e-05
1.99328e-05
1.97562e-05
1.93488e-05
1.84967e-05
1.65121e-05
1.22656e-05
6.77538e-06
2.92708e-06
1.47959e-06
1.24082e-06
1.14965e-06
1.15744e-06
1.20551e-06
1.30448e-06
1.41862e-06
1.53453e-06
1.65254e-06
1.76643e-06
1.87975e-06
1.98419e-06
2.08593e-06
2.17734e-06
2.26601e-06
2.34401e-06
2.41991e-06
2.48517e-06
2.5494e-06
2.60358e-06
2.65717e-06
2.70214e-06
2.74631e-06
2.78365e-06
2.81989e-06
2.8507e-06
2.88098e-06
2.90569e-06
2.93201e-06
2.95169e-06
2.97466e-06
2.99013e-06
3.01046e-06
3.02303e-06
3.04047e-06
3.05289e-06
3.06549e-06
3.08125e-06
3.08809e-06
3.10432e-06
3.10815e-06
2.00783e-05
1.98876e-05
1.9756e-05
1.94573e-05
1.91401e-05
1.86307e-05
1.75313e-05
1.53838e-05
1.16469e-05
7.32043e-06
3.87204e-06
1.85195e-06
1.195e-06
1.05528e-06
9.78791e-07
9.50087e-07
9.65159e-07
1.00736e-06
1.07282e-06
1.14425e-06
1.21857e-06
1.29603e-06
1.37286e-06
1.45146e-06
1.52669e-06
1.60126e-06
1.67207e-06
1.74108e-06
1.80639e-06
1.86953e-06
1.92925e-06
1.98654e-06
2.0407e-06
2.09286e-06
2.14147e-06
2.18961e-06
2.23303e-06
2.27762e-06
2.3171e-06
2.3585e-06
2.39453e-06
2.43382e-06
2.4674e-06
2.50359e-06
2.53762e-06
2.56859e-06
2.6043e-06
2.63133e-06
2.66424e-06
2.69433e-06
2.00616e-05
1.98539e-05
1.97334e-05
1.94678e-05
1.92494e-05
1.904e-05
1.87246e-05
1.81726e-05
1.70596e-05
1.51706e-05
1.24454e-05
9.06034e-06
5.7782e-06
3.31562e-06
1.77702e-06
1.13232e-06
9.58018e-07
8.8873e-07
8.32625e-07
8.05026e-07
8.11349e-07
8.31482e-07
8.70411e-07
9.14243e-07
9.61171e-07
1.01098e-06
1.06348e-06
1.11624e-06
1.1714e-06
1.22531e-06
1.28025e-06
1.33349e-06
1.3871e-06
1.43926e-06
1.49071e-06
1.54195e-06
1.59118e-06
1.64093e-06
1.68865e-06
1.73724e-06
1.78273e-06
1.83162e-06
1.87523e-06
1.92264e-06
1.96805e-06
2.0114e-06
2.05819e-06
2.10127e-06
2.14291e-06
2.19085e-06
2.00477e-05
1.98303e-05
1.97066e-05
1.94456e-05
1.92661e-05
1.91081e-05
1.89563e-05
1.87395e-05
1.84466e-05
1.78862e-05
1.70355e-05
1.56137e-05
1.37567e-05
1.13285e-05
8.58811e-06
5.94917e-06
3.81216e-06
2.29182e-06
1.37726e-06
9.81141e-07
8.50365e-07
7.92873e-07
7.46144e-07
7.08294e-07
6.93702e-07
6.98062e-07
7.11303e-07
7.3463e-07
7.6442e-07
7.94278e-07
8.28692e-07
8.63956e-07
9.02288e-07
9.41123e-07
9.81963e-07
1.02359e-06
1.06589e-06
1.10869e-06
1.15248e-06
1.19679e-06
1.24e-06
1.28774e-06
1.3303e-06
1.37865e-06
1.42519e-06
1.47072e-06
1.5202e-06
1.56764e-06
1.61395e-06
1.66522e-06
2.00364e-05
1.98124e-05
1.9684e-05
1.9415e-05
1.92517e-05
1.91016e-05
1.89912e-05
1.88394e-05
1.87004e-05
1.84858e-05
1.8228e-05
1.78021e-05
1.71782e-05
1.62816e-05
1.50196e-05
1.34327e-05
1.15313e-05
9.35856e-06
7.15993e-06
5.13839e-06
3.50941e-06
2.29431e-06
1.47086e-06
1.01943e-06
8.23697e-07
7.45275e-07
7.03414e-07
6.64297e-07
6.3375e-07
6.11114e-07
6.08367e-07
6.12455e-07
6.22858e-07
6.39728e-07
6.60303e-07
6.82869e-07
7.07933e-07
7.34622e-07
7.64646e-07
7.95373e-07
8.2744e-07
8.64182e-07
8.97565e-07
9.36924e-07
9.76024e-07
1.01435e-06
1.05817e-06
1.0996e-06
1.14354e-06
1.18835e-06
2.00273e-05
1.97986e-05
1.96647e-05
1.93929e-05
1.92251e-05
1.90739e-05
1.89719e-05
1.88437e-05
1.87231e-05
1.85852e-05
1.84421e-05
1.82744e-05
1.80526e-05
1.77648e-05
1.73527e-05
1.679e-05
1.60335e-05
1.50606e-05
1.3831e-05
1.24185e-05
1.07975e-05
9.02658e-06
7.2331e-06
5.55634e-06
4.0796e-06
2.91449e-06
2.01905e-06
1.38113e-06
9.93004e-07
7.9313e-07
7.02582e-07
6.55732e-07
6.24352e-07
5.94088e-07
5.69017e-07
5.51259e-07
5.44462e-07
5.46273e-07
5.52127e-07
5.62698e-07
5.76982e-07
5.95767e-07
6.13818e-07
6.36899e-07
6.6207e-07
6.86499e-07
7.18119e-07
7.4617e-07
7.80898e-07
8.13025e-07
2.00202e-05
1.97901e-05
1.96444e-05
1.93765e-05
1.91998e-05
1.90446e-05
1.8932e-05
1.88169e-05
1.87001e-05
1.85785e-05
1.84537e-05
1.83311e-05
1.81988e-05
1.80582e-05
1.78917e-05
1.76897e-05
1.74286e-05
1.70936e-05
1.66542e-05
1.609e-05
1.53966e-05
1.45335e-05
1.35251e-05
1.23509e-05
1.10892e-05
9.68121e-06
8.2133e-06
6.75187e-06
5.38694e-06
4.14672e-06
3.12717e-06
2.30581e-06
1.66498e-06
1.20118e-06
9.07416e-07
7.42823e-07
6.5894e-07
6.14212e-07
5.83473e-07
5.59546e-07
5.36293e-07
5.19785e-07
5.07025e-07
5.05227e-07
5.07449e-07
5.12785e-07
5.24072e-07
5.35035e-07
5.53208e-07
5.69706e-07
2.00146e-05
1.97902e-05
1.96178e-05
1.93629e-05
1.91785e-05
1.90169e-05
1.8895e-05
1.87791e-05
1.86589e-05
1.85409e-05
1.84227e-05
1.83075e-05
1.81901e-05
1.80726e-05
1.79544e-05
1.78327e-05
1.7703e-05
1.75567e-05
1.73879e-05
1.71806e-05
1.69303e-05
1.66174e-05
1.62329e-05
1.57615e-05
1.51933e-05
1.45317e-05
1.37434e-05
1.28645e-05
1.18642e-05
1.0814e-05
9.66002e-06
8.44238e-06
7.21367e-06
6.00786e-06
4.88953e-06
3.85907e-06
3.00112e-06
2.29301e-06
1.72026e-06
1.27898e-06
9.70664e-07
7.78644e-07
6.69085e-07
6.09536e-07
5.73379e-07
5.46987e-07
5.26304e-07
5.09523e-07
4.93927e-07
4.88256e-07
2.00103e-05
1.97943e-05
1.95911e-05
1.93485e-05
1.91593e-05
1.89898e-05
1.88607e-05
1.87409e-05
1.86181e-05
1.84952e-05
1.83756e-05
1.82583e-05
1.81436e-05
1.80324e-05
1.7921e-05
1.78136e-05
1.77018e-05
1.75943e-05
1.74811e-05
1.73695e-05
1.72428e-05
1.7112e-05
1.69518e-05
1.67788e-05
1.65583e-05
1.63149e-05
1.60057e-05
1.56581e-05
1.5229e-05
1.47472e-05
1.41792e-05
1.35434e-05
1.28106e-05
1.20185e-05
1.11331e-05
1.02192e-05
9.21775e-06
8.16125e-06
7.088e-06
6.02184e-06
5.00694e-06
4.05777e-06
3.22285e-06
2.5273e-06
1.95004e-06
1.48765e-06
1.13157e-06
8.90208e-07
7.3047e-07
6.45801e-07
2.00071e-05
1.98018e-05
1.95666e-05
1.93344e-05
1.91414e-05
1.89642e-05
1.88279e-05
1.87041e-05
1.85779e-05
1.8451e-05
1.83269e-05
1.82071e-05
1.80882e-05
1.79749e-05
1.78609e-05
1.77546e-05
1.76461e-05
1.75468e-05
1.74401e-05
1.73454e-05
1.72374e-05
1.71429e-05
1.70339e-05
1.69372e-05
1.68204e-05
1.67117e-05
1.65751e-05
1.64393e-05
1.62668e-05
1.60854e-05
1.58585e-05
1.56128e-05
1.53097e-05
1.49766e-05
1.45772e-05
1.41354e-05
1.36265e-05
1.30597e-05
1.24167e-05
1.17178e-05
1.09429e-05
1.01283e-05
9.24563e-06
8.30345e-06
7.31276e-06
6.33121e-06
5.34984e-06
4.45689e-06
3.59713e-06
2.91327e-06
2.00048e-05
1.98104e-05
1.95437e-05
1.93205e-05
1.91239e-05
1.89404e-05
1.8796e-05
1.86687e-05
1.85388e-05
1.84083e-05
1.82795e-05
1.81564e-05
1.80332e-05
1.79169e-05
1.7799e-05
1.76904e-05
1.75771e-05
1.74758e-05
1.73665e-05
1.72718e-05
1.71678e-05
1.7079e-05
1.69786e-05
1.68931e-05
1.67951e-05
1.67095e-05
1.66095e-05
1.65254e-05
1.64228e-05
1.63334e-05
1.62212e-05
1.6118e-05
1.59867e-05
1.5857e-05
1.56949e-05
1.55238e-05
1.53178e-05
1.50911e-05
1.48228e-05
1.45228e-05
1.4172e-05
1.37812e-05
1.33316e-05
1.2832e-05
1.22649e-05
1.16364e-05
1.09538e-05
1.02032e-05
9.43286e-06
8.60049e-06
2.00031e-05
1.98198e-05
1.95221e-05
1.93063e-05
1.91061e-05
1.8918e-05
1.8765e-05
1.86341e-05
1.8501e-05
1.8367e-05
1.82339e-05
1.81071e-05
1.79801e-05
1.78601e-05
1.77387e-05
1.76266e-05
1.75101e-05
1.74048e-05
1.7293e-05
1.71941e-05
1.70866e-05
1.69928e-05
1.68908e-05
1.68022e-05
1.6705e-05
1.66241e-05
1.6531e-05
1.6455e-05
1.63644e-05
1.62909e-05
1.62004e-05
1.61259e-05
1.60334e-05
1.59587e-05
1.5865e-05
1.5782e-05
1.56838e-05
1.55852e-05
1.54742e-05
1.5352e-05
1.5213e-05
1.50602e-05
1.48781e-05
1.46782e-05
1.44452e-05
1.4172e-05
1.38756e-05
1.35153e-05
1.31242e-05
1.26904e-05
2.00018e-05
1.98287e-05
1.95023e-05
1.92912e-05
1.90881e-05
1.88971e-05
1.87353e-05
1.86006e-05
1.84645e-05
1.83275e-05
1.81902e-05
1.80599e-05
1.79292e-05
1.78056e-05
1.76809e-05
1.75651e-05
1.74458e-05
1.73363e-05
1.72221e-05
1.71189e-05
1.70092e-05
1.69103e-05
1.6806e-05
1.67127e-05
1.66124e-05
1.65256e-05
1.64285e-05
1.63488e-05
1.62559e-05
1.61814e-05
1.60928e-05
1.60253e-05
1.59402e-05
1.58755e-05
1.57939e-05
1.57279e-05
1.56505e-05
1.55787e-05
1.55022e-05
1.54273e-05
1.53504e-05
1.52724e-05
1.51884e-05
1.50976e-05
1.50071e-05
1.48902e-05
1.47807e-05
1.46387e-05
1.44732e-05
1.43153e-05
2.0001e-05
1.98305e-05
1.94863e-05
1.92762e-05
1.90705e-05
1.88783e-05
1.87076e-05
1.85688e-05
1.84298e-05
1.82903e-05
1.81489e-05
1.80156e-05
1.78811e-05
1.77543e-05
1.76264e-05
1.75069e-05
1.73851e-05
1.72713e-05
1.71554e-05
1.70473e-05
1.69363e-05
1.68321e-05
1.67263e-05
1.66282e-05
1.65254e-05
1.64344e-05
1.6334e-05
1.62493e-05
1.61536e-05
1.60737e-05
1.59808e-05
1.59072e-05
1.58175e-05
1.5749e-05
1.56639e-05
1.55976e-05
1.55203e-05
1.54568e-05
1.53878e-05
1.53235e-05
1.526e-05
1.51942e-05
1.51355e-05
1.50622e-05
1.5005e-05
1.49279e-05
1.48609e-05
1.47984e-05
1.47029e-05
1.4646e-05
2.00004e-05
1.98288e-05
1.94728e-05
1.92601e-05
1.90524e-05
1.88613e-05
1.8682e-05
1.8539e-05
1.83972e-05
1.8256e-05
1.81104e-05
1.79747e-05
1.78363e-05
1.77069e-05
1.75758e-05
1.7453e-05
1.73289e-05
1.72109e-05
1.70936e-05
1.69808e-05
1.68686e-05
1.67593e-05
1.66522e-05
1.655e-05
1.64445e-05
1.635e-05
1.62468e-05
1.61575e-05
1.60604e-05
1.59749e-05
1.58799e-05
1.58006e-05
1.57084e-05
1.5633e-05
1.5546e-05
1.54724e-05
1.53916e-05
1.53199e-05
1.52465e-05
1.51749e-05
1.51116e-05
1.50373e-05
1.49845e-05
1.49115e-05
1.48623e-05
1.48045e-05
1.47409e-05
1.47e-05
1.46236e-05
1.45817e-05
2e-05
1.98272e-05
1.94616e-05
1.92425e-05
1.90335e-05
1.88457e-05
1.86586e-05
1.85112e-05
1.83669e-05
1.82246e-05
1.80753e-05
1.79375e-05
1.77956e-05
1.76638e-05
1.753e-05
1.74041e-05
1.72781e-05
1.71561e-05
1.70374e-05
1.69207e-05
1.68067e-05
1.66936e-05
1.65842e-05
1.64789e-05
1.63705e-05
1.6273e-05
1.61673e-05
1.60737e-05
1.59758e-05
1.58847e-05
1.57887e-05
1.57043e-05
1.56106e-05
1.55289e-05
1.54414e-05
1.53603e-05
1.52792e-05
1.51991e-05
1.51245e-05
1.50452e-05
1.49773e-05
1.48998e-05
1.48356e-05
1.47657e-05
1.46949e-05
1.46442e-05
1.45644e-05
1.45241e-05
1.4445e-05
1.44034e-05
1.99999e-05
1.98261e-05
1.94537e-05
1.92245e-05
1.90145e-05
1.88317e-05
1.8638e-05
1.8486e-05
1.83395e-05
1.81965e-05
1.80441e-05
1.79045e-05
1.77596e-05
1.76257e-05
1.74897e-05
1.7361e-05
1.72332e-05
1.71082e-05
1.69876e-05
1.68684e-05
1.67512e-05
1.66362e-05
1.65236e-05
1.6416e-05
1.63048e-05
1.62042e-05
1.60964e-05
1.5999e-05
1.58999e-05
1.5804e-05
1.5707e-05
1.56182e-05
1.55223e-05
1.54367e-05
1.53473e-05
1.52613e-05
1.51785e-05
1.50934e-05
1.50156e-05
1.49337e-05
1.48576e-05
1.4783e-05
1.47048e-05
1.464e-05
1.45551e-05
1.45039e-05
1.44167e-05
1.43679e-05
1.42857e-05
1.42296e-05
1.99999e-05
1.98256e-05
1.9449e-05
1.92073e-05
1.89964e-05
1.88197e-05
1.86212e-05
1.84644e-05
1.83157e-05
1.81723e-05
1.80178e-05
1.78763e-05
1.77291e-05
1.75934e-05
1.74556e-05
1.73245e-05
1.71951e-05
1.7068e-05
1.6945e-05
1.68245e-05
1.67035e-05
1.65881e-05
1.64714e-05
1.63623e-05
1.62487e-05
1.61448e-05
1.6035e-05
1.5935e-05
1.58332e-05
1.57344e-05
1.56353e-05
1.55434e-05
1.54441e-05
1.53567e-05
1.52634e-05
1.51752e-05
1.50886e-05
1.50017e-05
1.49183e-05
1.48366e-05
1.47523e-05
1.46804e-05
1.45922e-05
1.45271e-05
1.44386e-05
1.43779e-05
1.42942e-05
1.42318e-05
1.41492e-05
1.40837e-05
1.99999e-05
1.98256e-05
1.94475e-05
1.91918e-05
1.89799e-05
1.88098e-05
1.86086e-05
1.84469e-05
1.82962e-05
1.81527e-05
1.79969e-05
1.78537e-05
1.77046e-05
1.75677e-05
1.74283e-05
1.72956e-05
1.71646e-05
1.70361e-05
1.6911e-05
1.67895e-05
1.66651e-05
1.65495e-05
1.6429e-05
1.63187e-05
1.6203e-05
1.6096e-05
1.59844e-05
1.58827e-05
1.5777e-05
1.56772e-05
1.55748e-05
1.54807e-05
1.53778e-05
1.52892e-05
1.51916e-05
1.5102e-05
1.5011e-05
1.49234e-05
1.48341e-05
1.47526e-05
1.46619e-05
1.45899e-05
1.44965e-05
1.44268e-05
1.43392e-05
1.42684e-05
1.41868e-05
1.41155e-05
1.40292e-05
1.39594e-05
1.99999e-05
1.9826e-05
1.94486e-05
1.91787e-05
1.89655e-05
1.88014e-05
1.86006e-05
1.84337e-05
1.82813e-05
1.81379e-05
1.79816e-05
1.78371e-05
1.76866e-05
1.75491e-05
1.7408e-05
1.72749e-05
1.7142e-05
1.70131e-05
1.68863e-05
1.67635e-05
1.6637e-05
1.65209e-05
1.63973e-05
1.62861e-05
1.61683e-05
1.60587e-05
1.59454e-05
1.58426e-05
1.57327e-05
1.56327e-05
1.55268e-05
1.54307e-05
1.53251e-05
1.52345e-05
1.51336e-05
1.50423e-05
1.49473e-05
1.48589e-05
1.47641e-05
1.46822e-05
1.45871e-05
1.45124e-05
1.44169e-05
1.43411e-05
1.42541e-05
1.4177e-05
1.40924e-05
1.40176e-05
1.39254e-05
1.3852e-05
1.99999e-05
1.9827e-05
1.94525e-05
1.91688e-05
1.89537e-05
1.87945e-05
1.85971e-05
1.84252e-05
1.82714e-05
1.81279e-05
1.79722e-05
1.78266e-05
1.76753e-05
1.75378e-05
1.73951e-05
1.72625e-05
1.71279e-05
1.69992e-05
1.68713e-05
1.67472e-05
1.66197e-05
1.65025e-05
1.6377e-05
1.62649e-05
1.61452e-05
1.60337e-05
1.59189e-05
1.58148e-05
1.57018e-05
1.56012e-05
1.54924e-05
1.53942e-05
1.52865e-05
1.51936e-05
1.50899e-05
1.49972e-05
1.4898e-05
1.48091e-05
1.47094e-05
1.46265e-05
1.45286e-05
1.44495e-05
1.43532e-05
1.42722e-05
1.41835e-05
1.41035e-05
1.40133e-05
1.39368e-05
1.38394e-05
1.37611e-05
1.99999e-05
1.98285e-05
1.94591e-05
1.91626e-05
1.89449e-05
1.87892e-05
1.85979e-05
1.84216e-05
1.82669e-05
1.81228e-05
1.7969e-05
1.78223e-05
1.76712e-05
1.75337e-05
1.73899e-05
1.72585e-05
1.71225e-05
1.69946e-05
1.68659e-05
1.67409e-05
1.66134e-05
1.64947e-05
1.63685e-05
1.62553e-05
1.61341e-05
1.60213e-05
1.59051e-05
1.57996e-05
1.56847e-05
1.55828e-05
1.54718e-05
1.53717e-05
1.52624e-05
1.51672e-05
1.50609e-05
1.49671e-05
1.48641e-05
1.47743e-05
1.46712e-05
1.45859e-05
1.44864e-05
1.44028e-05
1.43055e-05
1.42212e-05
1.41286e-05
1.40476e-05
1.39517e-05
1.38729e-05
1.37721e-05
1.36882e-05
1.99999e-05
1.98305e-05
1.94677e-05
1.91606e-05
1.89392e-05
1.87856e-05
1.86024e-05
1.84228e-05
1.82672e-05
1.81228e-05
1.79713e-05
1.78239e-05
1.76736e-05
1.75361e-05
1.73923e-05
1.72617e-05
1.71252e-05
1.69982e-05
1.6869e-05
1.67438e-05
1.66164e-05
1.64968e-05
1.63705e-05
1.62564e-05
1.61343e-05
1.6021e-05
1.59037e-05
1.5797e-05
1.56811e-05
1.55778e-05
1.5465e-05
1.53634e-05
1.52525e-05
1.51555e-05
1.50469e-05
1.49517e-05
1.48457e-05
1.47544e-05
1.46492e-05
1.45612e-05
1.446e-05
1.43733e-05
1.42736e-05
1.4188e-05
1.40907e-05
1.40088e-05
1.3909e-05
1.38265e-05
1.3724e-05
1.36349e-05
1.99999e-05
1.98332e-05
1.94786e-05
1.91627e-05
1.89368e-05
1.87836e-05
1.86103e-05
1.84288e-05
1.82722e-05
1.81266e-05
1.79785e-05
1.78304e-05
1.76819e-05
1.7544e-05
1.74008e-05
1.72714e-05
1.7135e-05
1.70093e-05
1.688e-05
1.67551e-05
1.6628e-05
1.65077e-05
1.63816e-05
1.62665e-05
1.61436e-05
1.60298e-05
1.59116e-05
1.5804e-05
1.56875e-05
1.5583e-05
1.54691e-05
1.53665e-05
1.52545e-05
1.51562e-05
1.50462e-05
1.49498e-05
1.48419e-05
1.47488e-05
1.46423e-05
1.45521e-05
1.44489e-05
1.43604e-05
1.42578e-05
1.41714e-05
1.40703e-05
1.39867e-05
1.38847e-05
1.37983e-05
1.36942e-05
1.36019e-05
1.99999e-05
1.98363e-05
1.9491e-05
1.91693e-05
1.89377e-05
1.87842e-05
1.86203e-05
1.84397e-05
1.82819e-05
1.81358e-05
1.79907e-05
1.78428e-05
1.76963e-05
1.75582e-05
1.74165e-05
1.72879e-05
1.71528e-05
1.70281e-05
1.68993e-05
1.67755e-05
1.66487e-05
1.65285e-05
1.64031e-05
1.62873e-05
1.61644e-05
1.60506e-05
1.59316e-05
1.58232e-05
1.57064e-05
1.56004e-05
1.54853e-05
1.53815e-05
1.52683e-05
1.51683e-05
1.50566e-05
1.49587e-05
1.48493e-05
1.47547e-05
1.46471e-05
1.45554e-05
1.44506e-05
1.43612e-05
1.42568e-05
1.41695e-05
1.40666e-05
1.3981e-05
1.38776e-05
1.3789e-05
1.36829e-05
1.35894e-05
1.99999e-05
1.984e-05
1.95042e-05
1.91808e-05
1.89419e-05
1.87875e-05
1.8632e-05
1.84552e-05
1.82953e-05
1.81497e-05
1.80066e-05
1.78601e-05
1.77151e-05
1.75774e-05
1.74375e-05
1.73095e-05
1.71764e-05
1.70528e-05
1.6925e-05
1.68025e-05
1.66763e-05
1.65565e-05
1.64318e-05
1.63157e-05
1.61933e-05
1.60796e-05
1.59604e-05
1.58518e-05
1.57351e-05
1.56284e-05
1.55127e-05
1.54083e-05
1.52946e-05
1.51934e-05
1.50808e-05
1.49815e-05
1.48708e-05
1.47746e-05
1.46656e-05
1.45722e-05
1.44653e-05
1.43743e-05
1.42681e-05
1.41792e-05
1.4075e-05
1.39878e-05
1.38832e-05
1.37937e-05
1.36861e-05
1.3593e-05
1.99999e-05
1.98441e-05
1.95182e-05
1.91959e-05
1.89498e-05
1.87941e-05
1.86453e-05
1.84748e-05
1.83127e-05
1.81679e-05
1.8026e-05
1.7882e-05
1.7738e-05
1.7601e-05
1.7463e-05
1.73358e-05
1.72049e-05
1.70823e-05
1.6956e-05
1.6835e-05
1.67095e-05
1.65905e-05
1.64667e-05
1.63506e-05
1.62287e-05
1.61153e-05
1.59963e-05
1.58875e-05
1.5771e-05
1.56639e-05
1.55479e-05
1.54429e-05
1.5329e-05
1.52268e-05
1.51137e-05
1.50135e-05
1.49021e-05
1.48051e-05
1.46955e-05
1.46013e-05
1.44936e-05
1.44017e-05
1.42948e-05
1.42047e-05
1.40997e-05
1.40108e-05
1.39049e-05
1.38148e-05
1.37057e-05
1.36131e-05
1.99999e-05
1.98485e-05
1.95331e-05
1.92139e-05
1.89616e-05
1.88033e-05
1.86602e-05
1.84971e-05
1.83336e-05
1.81898e-05
1.80487e-05
1.79074e-05
1.77642e-05
1.76284e-05
1.7492e-05
1.73657e-05
1.7237e-05
1.71158e-05
1.69912e-05
1.68718e-05
1.67473e-05
1.66291e-05
1.65062e-05
1.63906e-05
1.62693e-05
1.61561e-05
1.60376e-05
1.59287e-05
1.58128e-05
1.57053e-05
1.55894e-05
1.54838e-05
1.53697e-05
1.52668e-05
1.51535e-05
1.50525e-05
1.49407e-05
1.48429e-05
1.4733e-05
1.46381e-05
1.45301e-05
1.44376e-05
1.43305e-05
1.42401e-05
1.41348e-05
1.4046e-05
1.39404e-05
1.38506e-05
1.37427e-05
1.3651e-05
1.99999e-05
1.98532e-05
1.95489e-05
1.92339e-05
1.89777e-05
1.88152e-05
1.86768e-05
1.85216e-05
1.83582e-05
1.82149e-05
1.80744e-05
1.79357e-05
1.77933e-05
1.76587e-05
1.75239e-05
1.73987e-05
1.7272e-05
1.71524e-05
1.70295e-05
1.69117e-05
1.67884e-05
1.66711e-05
1.65492e-05
1.64342e-05
1.63136e-05
1.62007e-05
1.60828e-05
1.59741e-05
1.58585e-05
1.57511e-05
1.56352e-05
1.55291e-05
1.54151e-05
1.53117e-05
1.51983e-05
1.50967e-05
1.49848e-05
1.48863e-05
1.47763e-05
1.46811e-05
1.45731e-05
1.44802e-05
1.43732e-05
1.42829e-05
1.41779e-05
1.40895e-05
1.39847e-05
1.3896e-05
1.37899e-05
1.37005e-05
1.99999e-05
1.98581e-05
1.95653e-05
1.92556e-05
1.89978e-05
1.88301e-05
1.86951e-05
1.85475e-05
1.8386e-05
1.82428e-05
1.81029e-05
1.79664e-05
1.78249e-05
1.76915e-05
1.75581e-05
1.7434e-05
1.73089e-05
1.71912e-05
1.70701e-05
1.69539e-05
1.68318e-05
1.67154e-05
1.65946e-05
1.64801e-05
1.63602e-05
1.62477e-05
1.61304e-05
1.60219e-05
1.59068e-05
1.57994e-05
1.56837e-05
1.55773e-05
1.54633e-05
1.53595e-05
1.52463e-05
1.51442e-05
1.50323e-05
1.49333e-05
1.48234e-05
1.47281e-05
1.46206e-05
1.45276e-05
1.44211e-05
1.43311e-05
1.42272e-05
1.41396e-05
1.40363e-05
1.39493e-05
1.38458e-05
1.37598e-05
1.99999e-05
1.9863e-05
1.95817e-05
1.92791e-05
1.90214e-05
1.88481e-05
1.8715e-05
1.85748e-05
1.84164e-05
1.82732e-05
1.81339e-05
1.79991e-05
1.78587e-05
1.77263e-05
1.75941e-05
1.7471e-05
1.73473e-05
1.72314e-05
1.71122e-05
1.69974e-05
1.68765e-05
1.6761e-05
1.66412e-05
1.65272e-05
1.64079e-05
1.62958e-05
1.61791e-05
1.60708e-05
1.59562e-05
1.58487e-05
1.57333e-05
1.56266e-05
1.55127e-05
1.54086e-05
1.52956e-05
1.51931e-05
1.50813e-05
1.4982e-05
1.48725e-05
1.47773e-05
1.46704e-05
1.45777e-05
1.44721e-05
1.43827e-05
1.42805e-05
1.41943e-05
1.40931e-05
1.40085e-05
1.39082e-05
1.38262e-05
1.99999e-05
1.98681e-05
1.95977e-05
1.93042e-05
1.90478e-05
1.88691e-05
1.87363e-05
1.8603e-05
1.84488e-05
1.83061e-05
1.81673e-05
1.80336e-05
1.78942e-05
1.77628e-05
1.76316e-05
1.75093e-05
1.73867e-05
1.72726e-05
1.7155e-05
1.70415e-05
1.69218e-05
1.68072e-05
1.66883e-05
1.65746e-05
1.64558e-05
1.6344e-05
1.62278e-05
1.61197e-05
1.60054e-05
1.58978e-05
1.57826e-05
1.56757e-05
1.55618e-05
1.54573e-05
1.53445e-05
1.52418e-05
1.51302e-05
1.50307e-05
1.49219e-05
1.48268e-05
1.47209e-05
1.46286e-05
1.45243e-05
1.44361e-05
1.43359e-05
1.42514e-05
1.4153e-05
1.40712e-05
1.39748e-05
1.38972e-05
1.99999e-05
1.98731e-05
1.96133e-05
1.93306e-05
1.90763e-05
1.88929e-05
1.87592e-05
1.86321e-05
1.84829e-05
1.83414e-05
1.8203e-05
1.80699e-05
1.79313e-05
1.78007e-05
1.76702e-05
1.75484e-05
1.74268e-05
1.73143e-05
1.71982e-05
1.70857e-05
1.6967e-05
1.68533e-05
1.6735e-05
1.66214e-05
1.65029e-05
1.63915e-05
1.62757e-05
1.61675e-05
1.60533e-05
1.59455e-05
1.58305e-05
1.57233e-05
1.56094e-05
1.55046e-05
1.53919e-05
1.5289e-05
1.51776e-05
1.50781e-05
1.497e-05
1.48753e-05
1.47704e-05
1.46789e-05
1.45763e-05
1.44895e-05
1.43916e-05
1.43094e-05
1.42142e-05
1.41356e-05
1.40436e-05
1.39707e-05
1.99999e-05
1.98782e-05
1.96288e-05
1.93577e-05
1.91062e-05
1.89193e-05
1.8784e-05
1.86619e-05
1.85183e-05
1.8379e-05
1.82409e-05
1.81077e-05
1.79699e-05
1.784e-05
1.77095e-05
1.75879e-05
1.74673e-05
1.73561e-05
1.72411e-05
1.71294e-05
1.70119e-05
1.68988e-05
1.67809e-05
1.66672e-05
1.65489e-05
1.64376e-05
1.63219e-05
1.62135e-05
1.60992e-05
1.59911e-05
1.58761e-05
1.57687e-05
1.56545e-05
1.55493e-05
1.54367e-05
1.53335e-05
1.52224e-05
1.5123e-05
1.50157e-05
1.49215e-05
1.48178e-05
1.47272e-05
1.46267e-05
1.45417e-05
1.44463e-05
1.43667e-05
1.42751e-05
1.42001e-05
1.41127e-05
1.40446e-05
1.99999e-05
1.98832e-05
1.96443e-05
1.93848e-05
1.91373e-05
1.89483e-05
1.88109e-05
1.86924e-05
1.85551e-05
1.84188e-05
1.82806e-05
1.81472e-05
1.801e-05
1.78803e-05
1.77494e-05
1.7628e-05
1.75084e-05
1.7398e-05
1.72837e-05
1.71728e-05
1.70563e-05
1.69436e-05
1.68255e-05
1.67117e-05
1.65934e-05
1.64821e-05
1.63661e-05
1.62573e-05
1.61428e-05
1.60342e-05
1.59191e-05
1.5811e-05
1.56966e-05
1.55908e-05
1.54782e-05
1.53747e-05
1.5264e-05
1.51647e-05
1.50583e-05
1.49646e-05
1.48623e-05
1.47729e-05
1.46747e-05
1.45917e-05
1.44991e-05
1.44223e-05
1.43346e-05
1.42635e-05
1.4181e-05
1.41177e-05
1.99999e-05
1.98881e-05
1.96598e-05
1.94114e-05
1.91694e-05
1.89798e-05
1.88398e-05
1.87237e-05
1.8593e-05
1.84602e-05
1.8322e-05
1.81886e-05
1.80517e-05
1.79216e-05
1.77901e-05
1.7669e-05
1.755e-05
1.74399e-05
1.73261e-05
1.72162e-05
1.71004e-05
1.69876e-05
1.6869e-05
1.67552e-05
1.66366e-05
1.65249e-05
1.64082e-05
1.62987e-05
1.6184e-05
1.60747e-05
1.59591e-05
1.58502e-05
1.57353e-05
1.5629e-05
1.55162e-05
1.54122e-05
1.53018e-05
1.52029e-05
1.50974e-05
1.50044e-05
1.49035e-05
1.48155e-05
1.47197e-05
1.46389e-05
1.45495e-05
1.44757e-05
1.43921e-05
1.43248e-05
1.42475e-05
1.41889e-05
1.99999e-05
1.9893e-05
1.96749e-05
1.94378e-05
1.92026e-05
1.90133e-05
1.88703e-05
1.87562e-05
1.86318e-05
1.8503e-05
1.83655e-05
1.82321e-05
1.80949e-05
1.79638e-05
1.78318e-05
1.77109e-05
1.75921e-05
1.74819e-05
1.73687e-05
1.72596e-05
1.7144e-05
1.70309e-05
1.69118e-05
1.67977e-05
1.66786e-05
1.65658e-05
1.64484e-05
1.63382e-05
1.62229e-05
1.61126e-05
1.59961e-05
1.58864e-05
1.57709e-05
1.5664e-05
1.55507e-05
1.54462e-05
1.53362e-05
1.52378e-05
1.51333e-05
1.50409e-05
1.49414e-05
1.4855e-05
1.47617e-05
1.46834e-05
1.45973e-05
1.45267e-05
1.44471e-05
1.43838e-05
1.43116e-05
1.42577e-05
1.99999e-05
1.98978e-05
1.96895e-05
1.94639e-05
1.92362e-05
1.9048e-05
1.89027e-05
1.87901e-05
1.86714e-05
1.85469e-05
1.84111e-05
1.82778e-05
1.81395e-05
1.80072e-05
1.78747e-05
1.77536e-05
1.76344e-05
1.75243e-05
1.74116e-05
1.7303e-05
1.71871e-05
1.70735e-05
1.6954e-05
1.68392e-05
1.67191e-05
1.6605e-05
1.64869e-05
1.63758e-05
1.62596e-05
1.6148e-05
1.60305e-05
1.59199e-05
1.58038e-05
1.56959e-05
1.5582e-05
1.54772e-05
1.53678e-05
1.52698e-05
1.51662e-05
1.50745e-05
1.49766e-05
1.4892e-05
1.48015e-05
1.47258e-05
1.46429e-05
1.45756e-05
1.45002e-05
1.44409e-05
1.43737e-05
1.43242e-05
1.99999e-05
1.99024e-05
1.97039e-05
1.94894e-05
1.92697e-05
1.90838e-05
1.8937e-05
1.88254e-05
1.87117e-05
1.85923e-05
1.84587e-05
1.83254e-05
1.81857e-05
1.80522e-05
1.79188e-05
1.77971e-05