/*--------------------------------*- C++ -*----------------------------------*\
  =========                 |
  \\      /  F ield         | OpenFOAM: The Open Source CFD Toolbox
   \\    /   O peration     | Website:  https://openfoam.org
    \\  /    A nd           | Version:  7
     \\/     M anipulation  |
\*---------------------------------------------------------------------------*/
FoamFile
{
    version     2.0;
    format      ascii;
    class       volScalarField;
    location    "0.15";
    object      nut;
}
// * * * * * * * * * * * * * * * * * * * * * * * * * * * * * * * * * * * * * //

dimensions      [0 2 -1 0 0 0 0];

internalField   nonuniform List<scalar> 
70000
(
0
0
0
0
0
0
0
0
0
0
0
0
0
0
0
0
0
0
0
0
0
0
0
0
0
0
0
0
0
0
0
0
0
0
0
0
0
0
0
0
0
0
0
0
0
0
0
7.91648e-13
0
0
0
0
0
0
0
0
0
0
0
0
0
0
0
0
0
0
0
0
0
0
0
0
0
0
0
0
0
0
0
0
0
0
0
0
0
0
0
0
0
0
0
0
0
0
0
0
0
1.66951e-12
0
0
0
0
0
0
0
0
0
0
0
0
0
0
0
0
0
0
0
0
0
0
0
0
0
0
0
0
0
0
0
0
0
0
0
0
0
0
0
0
0
0
0
0
0
0
0
0
0
2.35555e-12
0
0
0
0
0
0
0
0
0
0
0
0
0
0
0
0
0
0
0
0
0
0
0
0
0
0
0
0
0
0
0
0
0
0
0
0
0
0
0
0
0
0
0
0
0
0
0
0
0
2.51373e-12
0
0
0
0
0
0
0
0
0
0
0
0
0
0
0
0
0
0
0
0
0
0
0
0
0
0
0
0
0
0
0
0
0
0
0
0
0
0
0
0
0
0
0
0
0
0
0
0
0
2.48386e-12
0
0
9.44452e-10
0
0
0
0
0
0
0
0
0
0
0
0
0
0
0
0
0
0
0
0
0
0
0
0
0
0
0
0
0
0
0
0
0
0
0
0
0
0
0
0
0
0
0
0
1.98769e-13
0
2.51215e-12
0
0
1.32096e-08
0
0
0
0
0
0
0
0
0
0
0
0
0
0
0
0
0
0
0
0
0
0
0
0
0
0
0
0
0
0
0
0
0
0
0
0
0
0
0
0
0
0
0
0
5.18092e-13
0
2.50219e-12
0
0
1.21034e-08
0
0
0
0
0
0
0
0
0
0
0
0
0
0
0
0
0
0
0
0
0
0
0
0
0
0
0
0
0
0
0
0
0
0
0
0
0
0
0
0
0
0
0
0
8.43355e-13
0
2.3399e-12
4.79928e-13
0
1.10824e-08
0
0
0
0
0
0
0
0
0
0
0
0
0
0
0
0
0
0
0
0
0
0
0
0
0
0
0
0
0
0
0
0
0
0
0
0
0
0
0
0
0
0
2.18139e-13
0
1.13287e-12
0
2.00701e-12
1.18211e-12
0
1.02335e-08
0
0
0
0
0
0
0
0
0
0
0
0
0
0
0
0
0
0
0
0
0
0
0
0
0
0
0
0
0
0
0
0
0
0
0
0
0
0
0
0
0
0
4.48149e-13
0
1.37254e-12
0
1.55957e-12
1.87761e-12
0
9.52378e-09
0
0
0
0
0
0
0
0
0
0
0
0
0
0
0
0
0
0
0
0
0
0
0
0
0
0
0
0
0
0
0
0
0
0
0
0
0
0
0
0
6.76136e-14
0
6.90484e-13
0
1.58242e-12
0
1.07923e-12
2.48293e-12
0
8.88212e-09
0
0
0
0
0
0
0
0
0
0
0
0
0
0
0
0
0
0
0
0
0
0
0
0
0
0
0
0
0
0
0
0
0
0
0
0
0
0
0
0
2.91559e-13
0
9.81762e-13
0
1.79371e-12
0
6.36377e-13
2.98487e-12
0
8.2423e-09
0
0
0
0
0
0
0
0
0
2.51517e-11
0
0
0
0
0
0
0
0
0
0
0
0
0
0
0
0
0
0
0
0
0
0
0
0
0
0
0
0
4.06481e-14
1.2364e-13
6.51602e-13
3.30507e-13
1.38875e-12
1.84299e-13
2.07847e-12
3.02508e-13
3.18964e-13
3.42552e-12
0
7.58434e-09
0
0
0
0
0
0
0
0
0
0
0
8.63931e-11
1.06312e-10
4.08102e-11
6.48925e-12
0
0
0
0
0
0
0
0
0
0
0
0
0
0
0
0
0
0
0
0
0
0
1.98879e-13
5.75226e-13
6.51752e-13
1.25201e-12
8.98442e-13
2.01457e-12
8.45746e-13
2.54069e-12
1.19871e-12
2.31012e-13
3.90316e-12
0
6.91444e-09
0
0
0
0
0
0
0
0
0
0
0
0
0
6.27848e-11
1.40439e-10
1.88529e-10
1.43054e-10
6.15877e-11
2.14578e-11
6.47064e-12
9.7984e-13
0
0
0
0
0
0
0
0
0
0
0
0
0
2.63581e-13
5.50064e-13
8.85763e-13
1.12512e-12
1.55659e-12
1.61691e-12
2.29166e-12
1.89439e-12
3.0492e-12
1.92279e-12
3.35709e-12
2.4378e-12
5.20041e-13
4.57487e-12
0
6.24373e-09
0
0
0
5.29962e-11
0
0
0
0
0
0
0
0
0
0
2.34653e-12
3.51844e-11
7.91633e-11
1.38489e-10
2.0573e-10
2.55018e-10
2.33304e-10
1.40891e-10
6.82978e-11
3.31324e-11
1.73166e-11
1.0024e-11
6.30754e-12
4.22386e-12
2.98637e-12
2.31238e-12
2.00412e-12
1.94642e-12
2.02832e-12
2.18863e-12
2.40713e-12
2.62835e-12
2.94274e-12
3.13489e-12
3.58855e-12
3.57797e-12
4.30514e-12
3.80726e-12
4.96074e-12
3.83408e-12
4.92264e-12
4.36628e-12
1.47271e-12
5.7443e-12
0
5.58082e-09
0
0
0
1.59796e-10
0
0
0
0
0
0
0
0
0
0
0
0
9.10864e-12
2.82941e-11
4.86326e-11
7.32788e-11
1.08417e-10
1.57913e-10
2.2063e-10
2.88383e-10
3.40945e-10
3.26156e-10
2.30463e-10
1.35338e-10
7.82816e-11
4.85022e-11
3.28311e-11
2.41189e-11
1.87153e-11
1.5154e-11
1.2785e-11
1.12008e-11
1.03389e-11
9.64009e-12
9.5629e-12
8.99152e-12
9.45343e-12
8.47961e-12
9.39139e-12
7.97857e-12
8.46194e-12
8.05506e-12
3.89849e-12
8.21347e-12
0
4.93201e-09
0
0
0
2.5244e-10
0
0
0
0
0
0
0
0
0
0
0
0
0
1.45877e-13
1.2763e-11
2.50424e-11
3.73125e-11
4.99712e-11
6.3589e-11
7.98895e-11
1.0234e-10
1.36215e-10
1.8432e-10
2.47619e-10
3.23933e-10
4.08407e-10
4.70873e-10
4.46907e-10
3.35964e-10
2.21945e-10
1.45371e-10
1.00259e-10
7.41236e-11
5.75435e-11
4.70832e-11
3.85131e-11
3.35208e-11
2.78338e-11
2.57542e-11
2.16998e-11
1.98614e-11
1.83173e-11
1.13417e-11
1.51058e-11
1.00328e-12
4.30287e-09
0
0
0
3.18651e-10
0
0
0
0
0
0
0
0
0
0
0
0
0
0
0
5.89347e-12
1.3515e-11
2.05827e-11
2.72538e-11
3.36559e-11
3.989e-11
4.60459e-11
5.23454e-11
5.92087e-11
6.79159e-11
8.10563e-11
1.03248e-10
1.38948e-10
1.91424e-10
2.64044e-10
3.60141e-10
4.82197e-10
6.09762e-10
6.63069e-10
5.82739e-10
4.31081e-10
3.02245e-10
2.11737e-10
1.57562e-10
1.18886e-10
9.32047e-11
7.56551e-11
5.27946e-11
4.85435e-11
2.35072e-11
3.69854e-09
0
0
0
3.43722e-10
0
0
0
0
0
0
0
0
0
0
0
0
0
0
0
0
3.09581e-12
7.33321e-12
1.06252e-11
1.30594e-11
1.46767e-11
1.5481e-11
1.54304e-11
1.4469e-11
1.24962e-11
9.4217e-12
5.21053e-12
0
0
0
0
0
0
1.66916e-11
6.71946e-11
1.43961e-10
2.64791e-10
4.32426e-10
6.49624e-10
8.50649e-10
9.03608e-10
7.82553e-10
5.73797e-10
4.18576e-10
2.69592e-10
3.12333e-09
0
0
0
3.10726e-10
0
0
0
0
0
0
0
0
0
0
0
0
0
0
0
0
0
1.69328e-12
3.06546e-12
3.17307e-12
2.04591e-12
0
0
0
0
0
0
0
0
0
0
0
0
0
0
0
0
0
0
0
0
2.95603e-11
2.17372e-10
5.12158e-10
8.71795e-10
2.58019e-09
0
0
0
2.01127e-10
0
0
0
0
0
0
0
0
0
0
0
0
0
0
0
0
0
0
0
0
0
0
0
0
0
0
0
0
0
0
0
0
0
0
0
0
0
0
0
0
0
0
0
0
4.72625e-11
2.07044e-09
0
0
0
0
0
0
0
0
0
0
0
0
0
0
0
0
0
0
0
0
0
0
0
0
0
0
0
0
0
0
0
0
0
0
0
0
0
0
0
0
0
0
0
0
0
0
0
0
0
1.59363e-09
0
0
0
0
0
0
0
0
0
0
0
0
0
0
0
0
0
0
0
0
0
0
0
0
0
0
0
0
0
0
0
0
0
0
0
0
0
0
0
0
0
0
0
0
0
0
0
0
0
1.14769e-09
0
0
0
0
0
0
0
0
0
0
0
0
0
0
0
0
0
0
0
0
0
0
0
0
0
0
0
0
0
0
0
0
0
0
0
0
0
0
0
0
0
0
0
0
0
0
0
0
0
7.29413e-10
0
0
0
0
0
0
0
0
0
0
0
0
0
0
0
0
0
0
0
0
0
0
0
0
0
0
0
0
0
0
0
0
0
0
0
0
0
0
0
0
0
0
0
0
0
0
0
0
0
3.34959e-10
0
0
0
0
0
0
0
0
0
0
0
0
0
0
0
0
0
0
0
0
0
0
0
0
0
0
0
0
0
0
0
0
0
0
0
0
0
0
0
0
0
0
0
0
0
0
0
0
0
0
0
0
0
0
0
0
0
0
0
0
0
0
0
0
0
0
0
0
0
0
0
0
0
0
0
0
0
0
0
0
0
0
0
0
0
0
0
0
0
0
0
0
0
0
0
0
0
0
0
0
0
0
0
0
0
0
0
0
0
0
0
0
0
0
0
0
0
0
0
0
0
0
0
0
0
0
0
0
0
0
0
0
0
0
0
0
0
0
0
0
0
0
0
0
0
0
0
0
0
0
0
0
0
0
0
0
0
0
0
0
0
0
0
0
0
0
0
0
0
0
0
0
0
0
0
0
0
0
0
0
0
0
0
0
0
0
0
0
0
0
0
0
0
0
0
0
0
0
0
0
0
0
0
0
0
0
0
0
0
0
0
0
0
0
0
0
0
0
0
0
0
0
0
0
0
0
0
0
0
0
0
0
0
0
0
0
0
0
0
0
0
0
0
0
0
0
0
0
0
0
3.00249e-10
0
0
0
0
0
0
0
0
0
0
0
0
0
0
0
0
0
0
0
0
0
0
0
0
0
0
0
0
0
0
0
0
0
0
0
0
0
0
0
0
0
0
0
0
0
0
0
0
0
1.39659e-09
0
0
0
0
0
0
0
0
0
0
0
0
0
0
0
0
0
0
0
0
0
0
0
0
0
0
0
0
0
0
0
0
0
0
0
0
0
0
0
0
0
0
0
0
0
0
0
0
0
2.36919e-09
0
0
0
0
0
0
0
0
0
0
0
0
0
0
0
0
0
0
0
0
0
0
0
0
0
0
0
0
0
0
0
0
0
0
0
0
0
0
0
0
0
0
0
0
0
0
0
0
0
3.21576e-09
0
0
0
0
0
0
0
0
0
0
0
0
0
0
0
0
0
0
0
0
0
0
0
0
0
0
0
0
0
0
0
0
0
0
0
0
0
0
0
0
0
0
0
0
0
0
0
0
0
3.93713e-09
0
0
0
0
0
0
0
0
0
0
0
0
0
0
0
0
0
0
0
0
0
0
0
0
0
0
0
0
0
0
0
0
0
0
0
0
0
0
0
0
0
0
0
0
0
0
0
0
0
4.53766e-09
0
0
0
0
0
0
0
0
0
0
0
0
0
0
0
0
0
0
0
0
0
0
0
0
0
0
0
0
0
0
0
0
0
0
0
0
0
0
0
0
0
0
0
0
0
0
0
0
0
5.02418e-09
0
0
0
0
0
0
0
0
0
0
0
0
0
0
0
0
0
3.0085e-12
0
0
0
0
0
0
0
0
0
0
0
0
0
0
0
0
0
0
0
0
0
0
0
0
0
0
0
0
0
0
0
5.40433e-09
0
0
0
0
0
0
0
0
0
0
0
0
0
0
0
0
1.12243e-11
9.1588e-12
0
0
0
0
0
0
0
0
0
0
0
0
0
0
0
0
0
0
0
0
0
0
0
0
0
0
0
0
0
0
0
5.68634e-09
0
0
0
0
0
0
0
0
0
0
0
0
0
0
0
1.13001e-11
2.78129e-11
1.81479e-11
0
0
0
0
0
0
0
0
0
0
0
0
0
0
0
0
0
0
0
0
0
0
0
0
0
0
0
0
0
0
0
5.87976e-09
0
0
0
0
0
0
0
0
0
0
0
0
0
0
0
3.9838e-11
5.06182e-11
3.11317e-11
0
0
0
0
0
0
0
0
0
0
0
0
0
0
0
0
0
0
0
0
0
0
0
0
0
0
0
0
0
0
0
5.99529e-09
0
0
0
0
0
0
0
0
0
0
0
0
0
0
2.8527e-11
7.83037e-11
8.15285e-11
4.9636e-11
0
0
0
0
0
0
0
0
0
0
0
0
0
0
0
0
0
0
0
0
0
0
0
0
0
0
0
0
0
0
0
6.04381e-09
0
0
0
0
0
0
0
0
0
0
0
0
0
0
8.41566e-11
1.29479e-10
1.22924e-10
7.565e-11
0
0
0
0
0
0
0
0
0
0
0
0
0
0
0
0
0
0
0
0
0
0
0
0
0
0
0
0
0
0
0
6.03544e-09
0
0
0
0
0
0
0
0
0
0
0
0
0
6.92438e-11
1.59491e-10
1.96903e-10
1.77817e-10
1.11753e-10
2.37713e-12
0
0
0
0
0
0
0
0
0
0
0
0
0
0
0
0
0
0
0
0
0
0
0
0
0
0
0
0
0
0
5.97915e-09
0
0
0
0
0
0
0
0
0
0
0
1.80738e-11
1.05825e-10
1.87299e-10
2.60139e-10
2.85073e-10
2.50035e-10
1.61287e-10
2.24994e-11
0
0
0
0
0
0
0
0
0
0
0
0
0
0
0
0
0
0
0
0
0
0
0
0
0
0
0
0
0
0
5.8827e-09
0
0
0
0
0
0
0
0
0
0
0
2.16288e-10
2.94143e-10
3.44989e-10
3.92966e-10
3.99682e-10
3.44455e-10
2.28572e-10
5.47496e-11
0
0
0
0
0
0
0
0
0
0
0
0
0
0
0
0
0
0
0
0
0
0
0
0
0
0
0
0
0
0
5.75264e-09
0
0
0
0
0
0
0
0
0
0
1.16418e-10
4.62938e-10
5.3462e-10
5.5099e-10
5.66254e-10
5.47875e-10
4.67285e-10
3.19172e-10
1.03996e-10
0
0
0
0
0
0
0
0
0
0
0
0
0
0
0
0
0
0
0
0
0
0
0
0
0
0
0
0
8.20569e-10
0
5.59452e-09
0
0
0
0
0
0
0
0
0
0
3.75574e-10
7.66704e-10
8.35948e-10
8.15172e-10
7.89877e-10
7.38549e-10
6.2643e-10
4.40275e-10
1.76701e-10
0
0
0
0
0
0
0
0
0
0
0
0
0
0
0
0
0
0
0
0
0
0
0
0
0
0
0
1.77632e-10
1.57434e-09
0
5.41308e-09
3.85668e-11
0
0
0
0
0
0
0
0
0
7.07849e-10
1.13821e-09
1.20809e-09
1.14871e-09
1.0755e-09
9.82715e-10
8.31964e-10
6.0121e-10
2.81455e-10
0
0
0
0
0
0
0
0
0
0
0
0
0
0
0
0
0
0
0
0
0
0
0
0
0
0
0
1.12099e-09
2.03658e-09
0
5.21259e-09
6.74311e-10
0
0
0
0
0
0
0
0
2.79639e-10
1.1292e-09
1.59025e-09
1.66267e-09
1.56435e-09
1.43682e-09
1.29387e-09
1.09664e-09
8.14056e-10
4.29664e-10
0
0
0
0
0
0
0
0
0
0
0
0
0
0
0
0
0
0
0
0
0
0
0
0
0
0
5.44832e-10
1.71743e-09
2.24475e-09
0
4.99698e-09
1.22228e-09
0
0
0
0
0
3.86885e-10
1.6913e-10
1.83316e-10
8.39996e-10
1.65663e-09
2.13787e-09
2.21334e-09
2.07674e-09
1.88988e-09
1.68844e-09
1.43653e-09
1.09447e-09
6.36521e-10
4.51479e-11
0
0
0
0
0
0
0
0
0
0
0
0
0
0
0
0
0
0
0
0
0
0
0
0
0
1.26384e-09
2.01301e-09
2.24528e-09
0
4.76966e-09
1.68619e-09
0
0
0
0
0
9.28557e-10
9.39997e-10
9.6307e-10
1.53414e-09
2.30731e-09
2.79807e-09
2.87603e-09
2.70283e-09
2.45347e-09
2.18635e-09
1.87186e-09
1.46271e-09
9.2225e-10
2.24716e-10
0
0
0
0
0
0
0
0
0
0
0
0
0
0
0
0
0
0
0
0
0
0
0
0
7.84108e-10
1.6498e-09
2.06278e-09
2.08516e-09
0
4.53371e-09
2.07006e-09
0
0
0
0
0
1.50085e-09
1.76939e-09
1.85553e-09
2.3696e-09
3.09737e-09
3.58911e-09
3.66879e-09
3.46189e-09
3.14934e-09
2.81147e-09
2.42783e-09
1.94492e-09
1.31371e-09
4.97483e-10
0
0
0
0
0
0
0
0
0
0
0
0
0
0
0
0
0
0
0
0
0
0
0
3.42622e-10
1.25598e-09
1.76442e-09
1.92142e-09
1.80753e-09
0
4.29195e-09
2.37879e-09
0
0
0
0
2.59919e-10
2.10761e-09
2.65143e-09
2.85433e-09
3.34988e-09
4.04074e-09
4.52962e-09
4.61148e-09
4.37568e-09
4.00258e-09
3.59232e-09
3.13575e-09
2.57483e-09
1.84681e-09
9.00811e-10
0
0
0
0
0
0
0
0
0
0
0
0
0
0
0
0
0
0
0
0
0
0
0
8.9951e-10
1.4351e-09
1.66822e-09
1.63848e-09
1.44998e-09
0
4.04704e-09
2.61801e-09
0
0
0
0
7.21923e-10
2.74995e-09
3.57899e-09
3.94986e-09
4.47391e-09
5.14793e-09
5.63743e-09
5.72524e-09
5.46851e-09
5.04195e-09
4.56271e-09
4.03432e-09
3.39586e-09
2.56956e-09
1.48664e-09
8.52812e-11
0
0
0
0
0
0
0
0
0
0
0
0
0
0
0
0
0
0
0
0
0
5.41087e-10
1.14218e-09
1.38718e-09
1.41556e-09
1.25671e-09
1.04442e-09
0
3.8015e-09
2.7937e-09
0
0
0
0
1.24781e-09
3.4249e-09
4.5427e-09
5.12875e-09
5.73476e-09
6.42395e-09
6.92739e-09
7.03093e-09
6.76623e-09
6.29955e-09
5.76215e-09
5.17088e-09
4.46349e-09
3.54597e-09
2.32741e-09
7.21064e-10
0
0
0
0
0
0
0
0
0
0
0
0
0
0
0
0
0
0
0
0
2.16557e-10
8.44444e-10
1.14159e-09
1.17091e-09
1.05298e-09
8.11968e-10
6.17437e-10
0
3.5576e-09
2.91196e-09
0
0
0
0
1.82306e-09
4.12449e-09
5.52985e-09
6.37292e-09
7.11839e-09
7.86629e-09
8.40885e-09
8.54656e-09
8.2944e-09
7.80972e-09
7.23554e-09
6.60216e-09
5.84781e-09
4.86126e-09
3.52444e-09
1.71646e-09
0
0
0
0
0
0
0
0
0
0
0
0
0
0
0
0
0
0
0
0
5.80453e-10
8.88186e-10
9.60828e-10
8.36286e-10
6.19225e-10
3.33945e-10
1.91104e-10
0
3.31733e-09
2.97899e-09
2.56071e-10
0
0
0
2.42799e-09
4.83516e-09
6.52305e-09
7.65845e-09
8.60222e-09
9.46245e-09
1.00821e-08
1.02838e-08
1.00754e-08
9.60676e-09
9.03156e-09
8.39429e-09
7.63591e-09
6.62771e-09
5.2194e-09
3.24459e-09
5.19535e-10
0
0
0
0
0
0
0
0
0
0
0
0
0
0
0
0
0
0
3.27498e-10
6.66982e-10
7.40074e-10
6.53449e-10
4.24758e-10
1.46358e-10
0
0
0
3.08242e-09
3.001e-09
7.22065e-10
0
0
5.19624e-10
3.03905e-09
5.53758e-09
7.49941e-09
8.95414e-09
1.01528e-08
1.11865e-08
1.19335e-08
1.22431e-08
1.21231e-08
1.172e-08
1.11989e-08
1.06206e-08
9.93232e-09
8.99025e-09
7.60899e-09
5.56471e-09
2.58791e-09
0
0
0
0
0
0
0
0
0
0
0
0
0
0
0
0
0
1.17987e-10
4.55038e-10
5.49267e-10
4.57476e-10
2.63893e-10
0
0
0
0
0
2.85434e-09
2.98397e-09
1.09977e-09
0
0
1.19336e-09
3.63006e-09
6.20757e-09
8.42994e-09
1.02214e-08
1.17243e-08
1.29957e-08
1.39306e-08
1.44062e-08
1.44353e-08
1.41653e-08
1.37782e-08
1.33543e-08
1.28542e-08
1.21281e-08
1.09601e-08
9.06308e-09
6.05765e-09
1.37082e-09
0
0
0
0
0
0
0
0
0
0
0
0
0
0
0
0
2.83826e-10
3.65158e-10
2.8898e-10
8.7956e-11
0
0
0
0
0
0
2.63423e-09
2.93357e-09
1.39474e-09
2.3396e-10
3.43402e-10
1.80549e-09
4.17363e-09
6.81762e-09
9.28004e-09
1.14137e-08
1.32583e-08
1.48268e-08
1.60175e-08
1.67271e-08
1.69816e-08
1.69323e-08
1.67873e-08
1.66512e-08
1.65153e-08
1.62439e-08
1.56142e-08
1.42969e-08
1.18161e-08
7.34385e-09
0
0
0
0
0
0
0
0
0
0
0
0
0
0
0
1.464e-10
2.16258e-10
1.23171e-10
0
0
0
0
0
0
0
0
2.42296e-09
2.85529e-09
1.61365e-09
7.05427e-10
9.12997e-10
2.33561e-09
4.64347e-09
7.33794e-09
1.0013e-08
1.24761e-08
1.46845e-08
1.65956e-08
1.81077e-08
1.91226e-08
1.96899e-08
1.99656e-08
2.01952e-08
2.05178e-08
2.09889e-08
2.15174e-08
2.1946e-08
2.19953e-08
2.12464e-08
1.8832e-08
1.25959e-08
0
0
0
0
0
0
0
0
0
0
0
0
0
6.86838e-11
9.36788e-11
0
0
0
0
0
0
0
0
0
0
2.22122e-09
2.75436e-09
1.76406e-09
1.07643e-09
1.37572e-09
2.76774e-09
5.01655e-09
7.7395e-09
1.05904e-08
1.33521e-08
1.59209e-08
1.82003e-08
2.008e-08
2.1468e-08
2.24298e-08
2.31412e-08
2.38859e-08
2.48621e-08
2.62267e-08
2.79928e-08
3.01998e-08
3.28476e-08
3.60742e-08
4.01166e-08
4.52438e-08
4.94228e-08
1.27832e-08
0
0
0
0
0
0
0
0
0
0
5.91285e-11
2.21743e-11
0
0
0
0
0
0
0
0
0
0
0
2.02951e-09
2.63565e-09
1.85407e-09
1.3531e-09
1.73015e-09
3.09092e-09
5.27444e-09
7.99771e-09
1.09763e-08
1.39875e-08
1.68825e-08
1.95244e-08
2.17875e-08
2.35906e-08
2.50065e-08
2.62428e-08
2.76196e-08
2.94243e-08
3.19336e-08
3.53616e-08
4.00747e-08
4.66958e-08
5.67174e-08
7.36805e-08
1.07532e-07
1.81029e-07
1.75849e-07
3.48981e-08
3.04464e-09
0
0
0
0
0
1.0577e-10
1.85501e-10
1.41938e-10
3.19977e-12
0
0
0
0
0
0
0
0
0
0
0
0
1.84818e-09
2.50366e-09
1.89199e-09
1.54332e-09
1.97885e-09
3.30013e-09
5.40516e-09
8.09465e-09
1.11429e-08
1.43343e-08
1.74919e-08
2.04496e-08
2.3071e-08
2.52823e-08
2.71666e-08
2.8957e-08
3.10123e-08
3.371e-08
3.74495e-08
4.26707e-08
5.00762e-08
6.09085e-08
7.76755e-08
1.04838e-07
1.44919e-07
1.60538e-07
9.49901e-08
3.7831e-08
1.49265e-08
6.54724e-09
3.29807e-09
1.92487e-09
1.26861e-09
8.83491e-10
5.93385e-10
3.23998e-10
5.1708e-11
0
0
0
0
0
0
0
0
0
0
0
0
0
1.67741e-09
2.36245e-09
1.88611e-09
1.65645e-09
2.12822e-09
3.39636e-09
5.40441e-09
8.02144e-09
1.10735e-08
1.43606e-08
1.76893e-08
2.08757e-08
2.37794e-08
2.63327e-08
2.86274e-08
3.09089e-08
3.35626e-08
3.70153e-08
4.1739e-08
4.82559e-08
5.7288e-08
6.97786e-08
8.65177e-08
1.05282e-07
1.1326e-07
9.21243e-08
5.58227e-08
2.95107e-08
1.55105e-08
8.53929e-09
4.98209e-09
3.04987e-09
1.9089e-09
1.16022e-09
6.12278e-10
1.66978e-10
0
0
0
0
0
0
0
0
0
0
0
0
0
0
1.51729e-09
2.21566e-09
1.84441e-09
1.70283e-09
2.18777e-09
3.38608e-09
5.27558e-09
7.77949e-09
1.07667e-08
1.40553e-08
1.74439e-08
2.074e-08
2.38036e-08
2.65724e-08
2.91401e-08
3.1746e-08
3.47653e-08
3.86054e-08
4.36824e-08
5.03411e-08
5.88056e-08
6.87425e-08
7.8248e-08
8.22503e-08
7.44893e-08
5.61135e-08
3.66195e-08
2.23e-08
1.33972e-08
8.14111e-09
5.02251e-09
3.10291e-09
1.85701e-09
9.91914e-10
3.48863e-10
0
0
0
0
0
0
0
0
0
0
0
0
0
0
0
1.36776e-09
2.06644e-09
1.77445e-09
1.69329e-09
2.16928e-09
3.28029e-09
5.02929e-09
7.38072e-09
1.0237e-08
1.3432e-08
1.6763e-08
2.00325e-08
2.3105e-08
2.59211e-08
2.85665e-08
3.1252e-08
3.42987e-08
3.80192e-08
4.26489e-08
4.818e-08
5.41945e-08
5.9456e-08
6.17053e-08
5.83765e-08
4.90798e-08
3.68064e-08
2.54e-08
1.67235e-08
1.07807e-08
6.87366e-09
4.31682e-09
2.60927e-09
1.43016e-09
5.78326e-10
0
0
0
0
0
0
0
0
0
0
0
0
0
0
0
0
1.22868e-09
1.91752e-09
1.6832e-09
1.63873e-09
2.08592e-09
3.09361e-09
4.68219e-09
6.84645e-09
9.51337e-09
1.25286e-08
1.56918e-08
1.88026e-08
2.17308e-08
2.44179e-08
2.6932e-08
2.94385e-08
3.21748e-08
3.53193e-08
3.88983e-08
4.26128e-08
4.57566e-08
4.71641e-08
4.56292e-08
4.0684e-08
3.32767e-08
2.52147e-08
1.80372e-08
1.23943e-08
8.2684e-09
5.35185e-09
3.31027e-09
1.86725e-09
8.26632e-10
5.36733e-11
0
0
0
0
0
0
0
0
0
0
0
0
0
0
0
0
1.09983e-09
1.77119e-09
1.57694e-09
1.54959e-09
1.95158e-09
2.84265e-09
4.25522e-09
6.2051e-09
8.63639e-09
1.1403e-08
1.43074e-08
1.71514e-08
1.98063e-08
2.22161e-08
2.44263e-08
2.65521e-08
2.87454e-08
3.10666e-08
3.34034e-08
3.53635e-08
3.63327e-08
3.56299e-08
3.29105e-08
2.84302e-08
2.30155e-08
1.75948e-08
1.28286e-08
8.97744e-09
6.03016e-09
3.83963e-09
2.23246e-09
1.05063e-09
1.72841e-10
0
0
0
0
0
0
0
0
0
0
0
0
0
0
0
1.76796e-10
0
9.80882e-10
1.62934e-09
1.46122e-09
1.43554e-09
1.77985e-09
2.54493e-09
3.77134e-09
5.48911e-09
7.65371e-09
1.01247e-08
1.27077e-08
1.52116e-08
1.75075e-08
1.9544e-08
2.13462e-08
2.2988e-08
2.45547e-08
2.60396e-08
2.72899e-08
2.79711e-08
2.76957e-08
2.61822e-08
2.34665e-08
1.98962e-08
1.60021e-08
1.2256e-08
8.96645e-09
6.25146e-09
4.10646e-09
2.45628e-09
1.20611e-09
2.62743e-10
0
0
0
0
0
0
0
0
0
0
0
0
0
0
0
0
8.27692e-10
0
8.71485e-10
1.49344e-09
1.34077e-09
1.30523e-09
1.58334e-09
2.21748e-09
3.25368e-09
4.73167e-09
6.61451e-09
8.76591e-09
1.09964e-08
1.31242e-08
1.50241e-08
1.66502e-08
1.80129e-08
1.91619e-08
2.01446e-08
2.09345e-08
2.14008e-08
2.1321e-08
2.04957e-08
1.8855e-08
1.65376e-08
1.38156e-08
1.10061e-08
8.35723e-09
6.02595e-09
4.0724e-09
2.49567e-09
1.25542e-09
2.9753e-10
0
0
0
0
0
0
0
0
0
0
0
0
0
0
0
0
0
1.58222e-09
0
7.71231e-10
1.3646e-09
1.21955e-09
1.16611e-09
1.37328e-09
1.87587e-09
2.72387e-09
3.96396e-09
5.5647e-09
7.39367e-09
9.26831e-09
1.1019e-08
1.25273e-08
1.37537e-08
1.47036e-08
1.54154e-08
1.59239e-08
1.62114e-08
1.61906e-08
1.57362e-08
1.47626e-08
1.32826e-08
1.14286e-08
9.38671e-09
7.34521e-09
5.44167e-09
3.7626e-09
2.34231e-09
1.18199e-09
2.59496e-10
0
0
0
0
0
0
0
0
0
0
0
0
0
0
0
0
0
1.52333e-10
2.43725e-09
0
6.79666e-10
1.24365e-09
1.10069e-09
1.02434e-09
1.15918e-09
1.53353e-09
2.20069e-09
3.21296e-09
4.54353e-09
6.06435e-09
7.60167e-09
8.99925e-09
1.01496e-08
1.1019e-08
1.16153e-08
1.19748e-08
1.21349e-08
1.20971e-08
1.18151e-08
1.12252e-08
1.02979e-08
9.0683e-09
7.63205e-09
6.11158e-09
4.621e-09
3.2414e-09
2.02424e-09
9.91693e-10
1.46326e-10
0
0
0
0
0
0
0
0
0
0
0
0
0
0
0
0
0
1.12362e-10
9.59631e-10
3.3883e-09
0
5.96308e-10
1.13114e-09
9.8663e-10
8.84842e-10
9.48789e-10
1.20145e-09
1.6994e-09
2.50021e-09
3.58149e-09
4.82053e-09
6.05336e-09
7.13762e-09
7.97894e-09
8.54938e-09
8.86236e-09
8.9582e-09
8.88242e-09
8.65514e-09
8.25988e-09
7.66593e-09
6.86452e-09
5.88723e-09
4.79834e-09
3.67454e-09
2.58755e-09
1.58829e-09
7.10256e-10
0
0
0
0
0
0
0
0
0
0
0
0
0
0
0
0
0
1.27529e-10
4.97216e-10
9.48985e-10
1.86786e-09
4.42979e-09
0
5.20652e-10
1.02735e-09
8.79165e-10
7.51381e-10
7.48056e-10
8.88017e-10
1.23148e-09
1.84147e-09
2.70004e-09
3.69058e-09
4.65929e-09
5.47724e-09
6.06312e-09
6.39515e-09
6.49296e-09
6.4028e-09
6.17952e-09
5.85716e-09
5.43689e-09
4.90296e-09
4.25027e-09
3.49893e-09
2.68944e-09
1.86959e-09
1.08533e-09
3.71164e-10
0
0
0
0
0
0
0
0
0
0
0
0
0
0
0
0
1.86709e-10
5.63577e-10
9.71202e-10
1.38891e-09
1.88703e-09
2.87155e-09
5.55555e-09
0
4.52186e-10
9.32387e-10
7.79541e-10
6.26672e-10
5.61283e-10
5.99157e-10
8.04768e-10
1.24692e-09
1.9122e-09
2.6903e-09
3.43736e-09
4.03675e-09
4.41902e-09
4.5684e-09
4.51018e-09
4.29688e-09
3.99068e-09
3.6347e-09
3.23848e-09
2.79118e-09
2.28468e-09
1.72703e-09
1.14135e-09
5.57821e-10
6.84772e-12
0
0
0
0
0
0
0
0
0
0
0
0
0
0
0
2.48632e-10
6.30222e-10
1.03972e-09
1.46627e-09
1.91987e-09
2.38102e-09
2.9207e-09
3.96462e-09
6.75905e-09
0
3.90392e-10
8.4616e-10
6.88535e-10
5.12529e-10
3.91293e-10
3.38633e-10
4.23927e-10
7.22e-10
1.22391e-09
1.8254e-09
2.39173e-09
2.81708e-09
3.04222e-09
3.05695e-09
2.89132e-09
2.60319e-09
2.25984e-09
1.90879e-09
1.56257e-09
1.20975e-09
8.37152e-10
4.43008e-10
3.84937e-11
0
0
0
0
0
0
0
0
0
0
0
0
0
0
0
3.12101e-10
6.97427e-10
1.10995e-09
1.54325e-09
2.0009e-09
2.47258e-09
2.96748e-09
3.46729e-09
4.04357e-09
5.14041e-09
8.03328e-09
0
3.34759e-10
7.68476e-10
6.0655e-10
4.10013e-10
2.39659e-10
1.0834e-10
9.09378e-11
2.68364e-10
6.35766e-10
1.09425e-09
1.51715e-09
1.80784e-09
1.91569e-09
1.8355e-09
1.60122e-09
1.27475e-09
9.26202e-10
6.04169e-10
3.20683e-10
6.17741e-11
0
0
0
0
0
0
0
0
0
0
0
0
0
0
0
1.46247e-11
3.75208e-10
7.63902e-10
1.18004e-09
1.61938e-09
2.08245e-09
2.56293e-09
3.06407e-09
3.57609e-09
4.10744e-09
4.64095e-09
5.24876e-09
6.39187e-09
9.37099e-09
0
2.84791e-10
6.99049e-10
5.33691e-10
3.19611e-10
1.07067e-10
0
0
0
1.4458e-10
4.90503e-10
8.0273e-10
9.92489e-10
1.01633e-09
8.73569e-10
6.01295e-10
2.6414e-10
0
0
0
0
0
0
0
0
0
0
0
0
0
0
0
0
0
7.18258e-11
4.357e-10
8.2816e-10
1.24821e-09
1.69306e-09
2.16207e-09
2.65088e-09
3.15989e-09
3.68285e-09
4.2227e-09
4.77012e-09
5.33289e-09
5.89497e-09
6.52906e-09
7.71161e-09
1.07646e-08
0
2.40013e-10
6.37537e-10
4.69861e-10
2.41427e-10
0
0
0
0
0
4.99678e-12
2.34742e-10
3.51971e-10
3.19468e-10
1.40702e-10
0
0
0
0
0
0
0
0
0
0
0
0
0
0
0
0
0
1.22705e-10
4.91126e-10
8.88658e-10
1.31359e-09
1.76374e-09
2.23839e-09
2.73464e-09
3.25181e-09
3.78535e-09
4.33553e-09
4.89611e-09
5.46972e-09
6.0475e-09
6.6366e-09
7.22207e-09
7.87718e-09
9.09236e-09
1.22071e-08
0
1.99979e-10
5.83576e-10
4.14839e-10
1.75281e-10
0
0
0
0
0
0
0
0
0
0
0
0
0
0
0
0
0
0
0
0
0
0
0
0
0
1.69238e-10
5.40642e-10
9.43824e-10
1.37513e-09
1.83162e-09
2.31225e-09
2.815e-09
3.33932e-09
3.88212e-09
4.44263e-09
5.016e-09
5.60237e-09
6.19553e-09
6.79786e-09
7.40087e-09
8.01121e-09
8.61495e-09
9.28589e-09
1.0527e-08
1.36915e-08
0
1.64274e-10
5.36805e-10
3.68343e-10
1.20836e-10
0
0
0
0
0
0
0
0
0
0
0
0
0
0
0
0
0
0
0
0
0
0
0
2.18528e-10
5.8781e-10
9.93698e-10
1.43128e-09
1.8957e-09
2.38412e-09
2.89407e-09
3.42513e-09
3.97537e-09
4.54437e-09
5.12872e-09
5.72757e-09
6.33577e-09
6.95327e-09
7.57392e-09
8.19988e-09
8.82304e-09
9.44954e-09
1.00665e-08
1.07481e-08
1.20086e-08
1.52116e-08
0
1.32524e-10
4.96891e-10
3.30091e-10
7.77305e-11
0
0
0
0
0
0
0
0
0
0
0
0
0
0
0
0
0
0
0
0
0
2.73422e-10
6.38375e-10
1.0422e-09
1.48221e-09
1.9535e-09
2.45139e-09
2.97137e-09
3.51137e-09
4.06943e-09
4.6457e-09
5.23827e-09
5.84683e-09
6.46768e-09
7.09977e-09
7.73773e-09
8.38129e-09
9.02431e-09
9.66884e-09
1.03071e-08
1.09448e-08
1.15699e-08
1.22573e-08
1.35309e-08
1.67614e-08
0
1.04403e-10
4.63559e-10
2.99861e-10
4.56963e-11
0
0
0
0
0
0
0
0
0
0
0
0
0
0
0
0
0
0
0
3.22397e-10
6.90416e-10
1.09262e-09
1.53131e-09
2.00507e-09
2.51025e-09
3.04143e-09
3.59412e-09
4.16424e-09
4.75042e-09
5.35128e-09
5.96744e-09
6.59717e-09
7.2401e-09
7.89234e-09
8.55254e-09
9.21521e-09
9.87976e-09
1.05402e-08
1.11982e-08
1.18467e-08
1.24908e-08
1.31194e-08
1.38078e-08
1.50884e-08
1.83363e-08
0
7.96365e-11
4.36616e-10
2.7755e-10
2.46557e-11
0
0
0
0
0
0
0
0
0
0
0
0
0
0
0
0
0
3.45349e-10
7.31009e-10
1.14106e-09
1.58074e-09
2.05395e-09
2.56142e-09
3.10007e-09
3.66522e-09
4.251e-09
4.85312e-09
5.46802e-09
6.09503e-09
6.73339e-09
7.38411e-09
8.04575e-09
8.71783e-09
9.39634e-09
1.00795e-08
1.07619e-08
1.14424e-08
1.21152e-08
1.2782e-08
1.34358e-08
1.40817e-08
1.47093e-08
1.53943e-08
1.66762e-08
1.9932e-08
0
5.80155e-11
4.15981e-10
2.63227e-10
1.48191e-11
0
0
0
0
0
0
0
0
0
0
0
0
0
0
0
3.34011e-10
7.44377e-10
1.17559e-09
1.62725e-09
2.10425e-09
2.61124e-09
3.15095e-09
3.72249e-09
4.32116e-09
4.94116e-09
5.57637e-09
6.22259e-09
6.87692e-09
7.53937e-09
8.20995e-09
8.88996e-09
9.57822e-09
1.02742e-08
1.09738e-08
1.16749e-08
1.2372e-08
1.30636e-08
1.37441e-08
1.44149e-08
1.50695e-08
1.57127e-08
1.63351e-08
1.70124e-08
1.82905e-08
2.15457e-08
0
3.94036e-11
4.01717e-10
2.57202e-10
1.67996e-11
0
0
0
0
0
0
0
0
0
0
0
0
3.80831e-12
3.29711e-10
7.32718e-10
1.1831e-09
1.65915e-09
2.15291e-09
2.66676e-09
3.20671e-09
3.77679e-09
4.37847e-09
5.00938e-09
5.66322e-09
6.33286e-09
7.01221e-09
7.69721e-09
8.3857e-09
9.07821e-09
9.77566e-09
1.04796e-08
1.11893e-08
1.1904e-08
1.26196e-08
1.33336e-08
1.40405e-08
1.47384e-08
1.54221e-08
1.60923e-08
1.67436e-08
1.73798e-08
1.7993e-08
1.8659e-08
1.99287e-08
2.31756e-08
0
2.37554e-11
3.94073e-10
2.60105e-10
3.17552e-11
0
0
0
0
0
0
0
0
0
9.17341e-12
1.77893e-10
4.18467e-10
7.52321e-10
1.1748e-09
1.66082e-09
2.18215e-09
2.72109e-09
3.27386e-09
3.84597e-09
4.44474e-09
5.07356e-09
5.73251e-09
6.41789e-09
7.12177e-09
7.8359e-09
8.55388e-09
9.27214e-09
9.98962e-09
1.07069e-08
1.14259e-08
1.21484e-08
1.28745e-08
1.36026e-08
1.43293e-08
1.50512e-08
1.57632e-08
1.64629e-08
1.71454e-08
1.7811e-08
1.84548e-08
1.90802e-08
1.96806e-08
2.03316e-08
2.15888e-08
2.48209e-08
0
1.11382e-11
3.93548e-10
2.73003e-10
6.15673e-11
0
0
0
0
0
0
0
1.14935e-10
3.30379e-10
5.62021e-10
8.43298e-10
1.20236e-09
1.6493e-09
2.17111e-09
2.74005e-09
3.33021e-09
3.9288e-09
4.53666e-09
5.16277e-09
5.81588e-09
6.49877e-09
7.20995e-09
7.94459e-09
8.69313e-09
9.4463e-09
1.01974e-08
1.09434e-08
1.16842e-08
1.24214e-08
1.31566e-08
1.38925e-08
1.46295e-08
1.53662e-08
1.60991e-08
1.68242e-08
1.75368e-08
1.82339e-08
1.89111e-08
1.95682e-08
2.0201e-08
2.08122e-08
2.13965e-08
2.20295e-08
2.32706e-08
2.64823e-08
0
1.77148e-12
4.00978e-10
2.97553e-10
1.09096e-10
0
0
0
0
0
0
2.99719e-10
5.96527e-10
9.01393e-10
1.2423e-09
1.64708e-09
2.1332e-09
2.69837e-09
3.3212e-09
3.97195e-09
4.628e-09
5.28231e-09
5.94079e-09
6.61608e-09
7.3186e-09
8.0505e-09
8.80844e-09
9.58673e-09
1.03743e-08
1.11608e-08
1.19394e-08
1.27076e-08
1.34661e-08
1.42177e-08
1.49645e-08
1.57086e-08
1.64515e-08
1.71917e-08
1.79259e-08
1.86498e-08
1.93588e-08
2.00493e-08
2.07174e-08
2.13623e-08
2.19809e-08
2.2575e-08
2.31404e-08
2.37528e-08
2.49747e-08
2.81617e-08
0
0
4.1766e-10
3.36233e-10
1.78548e-10
0
0
0
0
7.93405e-11
4.44461e-10
8.16349e-10
1.19224e-09
1.5975e-09
2.05913e-09
2.59753e-09
3.21808e-09
3.90518e-09
4.62925e-09
5.35943e-09
6.07739e-09
6.78268e-09
7.4866e-09
8.20567e-09
8.95208e-09
9.72743e-09
1.05262e-08
1.13421e-08
1.21626e-08
1.29765e-08
1.37769e-08
1.45615e-08
1.53323e-08
1.60929e-08
1.68467e-08
1.75941e-08
1.83379e-08
1.90769e-08
1.98078e-08
2.05262e-08
2.12275e-08
2.19078e-08
2.25634e-08
2.3193e-08
2.37944e-08
2.43687e-08
2.4913e-08
2.55026e-08
2.6703e-08
2.9862e-08
0
0
4.45545e-10
3.92664e-10
2.76e-10
1.20978e-10
0
0
1.94931e-10
5.73162e-10
1.0076e-09
1.45158e-09
1.91537e-09
2.43155e-09
3.0246e-09
3.70542e-09
4.46601e-09
5.27682e-09
6.10053e-09
6.90622e-09
7.6809e-09
8.43152e-09
9.17504e-09
9.93182e-09
1.0716e-08
1.15287e-08
1.23618e-08
1.32088e-08
1.40558e-08
1.4891e-08
1.57071e-08
1.65026e-08
1.72802e-08
1.80446e-08
1.88003e-08
1.95475e-08
2.0287e-08
2.10201e-08
2.17434e-08
2.24524e-08
2.31422e-08
2.38089e-08
2.44489e-08
2.50607e-08
2.56423e-08
2.61947e-08
2.67157e-08
2.7281e-08
2.84584e-08
3.15874e-08
0
0
4.87547e-10
4.72148e-10
4.10177e-10
3.32315e-10
2.86189e-10
3.98044e-10
7.24744e-10
1.19122e-09
1.70099e-09
2.2233e-09
2.78297e-09
3.41974e-09
4.15363e-09
4.98366e-09
5.88752e-09
6.82132e-09
7.74083e-09
8.61633e-09
9.44121e-09
1.02306e-08
1.10071e-08
1.17949e-08
1.26099e-08
1.34533e-08
1.43139e-08
1.51849e-08
1.60518e-08
1.69018e-08
1.77277e-08
1.85283e-08
1.93073e-08
2.00705e-08
2.08231e-08
2.15666e-08
2.22978e-08
2.30204e-08
2.37319e-08
2.44276e-08
2.51027e-08
2.57528e-08
2.63746e-08
2.69662e-08
2.7526e-08
2.80549e-08
2.85513e-08
2.90912e-08
3.02442e-08
3.3343e-08
0
1.06393e-11
5.48072e-10
5.82506e-10
5.93677e-10
6.17958e-10
6.99344e-10
9.47813e-10
1.39663e-09
1.95907e-09
2.54855e-09
3.15392e-09
3.81608e-09
4.58165e-09
5.46376e-09
6.44683e-09
7.49385e-09
8.54676e-09
9.55567e-09
1.04933e-08
1.13605e-08
1.21811e-08
1.29833e-08
1.37947e-08
1.46332e-08
1.54999e-08
1.63809e-08
1.72684e-08
1.81481e-08
1.90063e-08
1.98359e-08
2.06361e-08
2.14114e-08
2.21685e-08
2.29134e-08
2.36488e-08
2.43697e-08
2.50772e-08
2.57728e-08
2.64517e-08
2.71089e-08
2.77399e-08
2.8341e-08
2.89106e-08
2.94472e-08
2.99514e-08
3.04223e-08
3.09364e-08
3.20647e-08
3.51336e-08
0
3.25709e-11
6.33799e-10
7.35421e-10
8.44879e-10
1.00379e-09
1.24679e-09
1.65887e-09
2.24486e-09
2.90872e-09
3.57971e-09
4.27065e-09
5.03984e-09
5.94015e-09
6.97475e-09
8.11049e-09
9.29618e-09
1.04604e-08
1.15492e-08
1.25393e-08
1.34395e-08
1.42828e-08
1.51028e-08
1.59299e-08
1.67838e-08
1.7666e-08
1.85598e-08
1.94559e-08
2.0341e-08
2.12009e-08
2.20282e-08
2.28226e-08
2.35893e-08
2.43357e-08
2.50687e-08
2.57914e-08
2.64998e-08
2.71888e-08
2.78648e-08
2.85237e-08
2.91601e-08
2.97696e-08
3.03485e-08
3.08947e-08
3.1407e-08
3.1886e-08
3.23312e-08
3.28194e-08
3.39236e-08
3.6964e-08
0
6.92062e-11
7.54821e-10
9.48467e-10
1.19078e-09
1.52636e-09
1.97173e-09
2.57616e-09
3.31216e-09
4.07902e-09
4.82971e-09
5.60555e-09
6.48318e-09
7.52061e-09
8.70755e-09
9.98989e-09
1.13041e-08
1.25671e-08
1.37228e-08
1.47532e-08
1.56756e-08
1.65325e-08
1.73622e-08
1.81969e-08
1.90578e-08
1.99471e-08
2.08459e-08
2.17423e-08
2.26253e-08
2.34801e-08
2.42993e-08
2.50827e-08
2.58361e-08
2.65676e-08
2.72847e-08
2.7991e-08
2.86835e-08
2.93521e-08
3.0005e-08
3.06408e-08
3.1254e-08
3.18401e-08
3.23951e-08
3.29171e-08
3.34047e-08
3.38585e-08
3.42781e-08
3.47413e-08
3.58225e-08
3.88365e-08
0
1.27111e-10
9.26161e-10
1.24758e-09
1.67e-09
2.23544e-09
2.92948e-09
3.7538e-09
4.6473e-09
5.51252e-09
6.33587e-09
7.19139e-09
8.17411e-09
9.34559e-09
1.06781e-08
1.20929e-08
1.35181e-08
1.48614e-08
1.60672e-08
1.71237e-08
1.80564e-08
1.89171e-08
1.97484e-08
2.05825e-08
2.14418e-08
2.23296e-08
2.32258e-08
2.41141e-08
2.49872e-08
2.58302e-08
2.66355e-08
2.74031e-08
2.81392e-08
2.88522e-08
2.955e-08
3.02367e-08
3.09101e-08
3.15578e-08
3.21842e-08
3.2794e-08
3.33818e-08
3.39428e-08
3.44731e-08
3.49705e-08
3.54336e-08
3.58629e-08
3.62582e-08
3.66977e-08
3.77576e-08
4.07476e-08
0
2.14478e-10
1.16552e-09
1.66087e-09
2.31938e-09
3.1698e-09
4.15111e-09
5.20899e-09
6.25343e-09
7.20127e-09
8.08209e-09
9.0043e-09
1.00795e-08
1.13707e-08
1.28291e-08
1.43471e-08
1.58526e-08