/*--------------------------------*- C++ -*----------------------------------*\
  =========                 |
  \\      /  F ield         | OpenFOAM: The Open Source CFD Toolbox
   \\    /   O peration     | Website:  https://openfoam.org
    \\  /    A nd           | Version:  7
     \\/     M anipulation  |
\*---------------------------------------------------------------------------*/
FoamFile
{
    version     2.0;
    format      ascii;
    class       surfaceScalarField;
    location    "0.15";
    object      phi;
}
// * * * * * * * * * * * * * * * * * * * * * * * * * * * * * * * * * * * * * //

dimensions      [0 3 -1 0 0 0 0];

internalField   nonuniform List<scalar> 
139350
(
6.45897e-08
9.20418e-08
3.19433e-08
3.26464e-08
2.30459e-08
8.89738e-09
1.95446e-08
3.50132e-09
1.75852e-08
1.95943e-09
1.61492e-08
1.43597e-09
1.50071e-08
1.14211e-09
1.40833e-08
9.23753e-10
1.33204e-08
7.62972e-10
1.2675e-08
6.45341e-10
1.21185e-08
5.56553e-10
1.16313e-08
4.87135e-10
1.11999e-08
4.31477e-10
1.08138e-08
3.8606e-10
1.04653e-08
3.48485e-10
1.01483e-08
3.17041e-10
9.8578e-09
2.90473e-10
9.58996e-09
2.67845e-10
9.34151e-09
2.48445e-10
9.10979e-09
2.31726e-10
8.89253e-09
2.17259e-10
8.68782e-09
2.04706e-10
8.49403e-09
1.93795e-10
8.30972e-09
1.84309e-10
8.13365e-09
1.76068e-10
7.96472e-09
1.68926e-10
7.80196e-09
1.62761e-10
7.64449e-09
1.57473e-10
7.49152e-09
1.52971e-10
7.34233e-09
1.49187e-10
7.19629e-09
1.46044e-10
7.05279e-09
1.43502e-10
6.91132e-09
1.41471e-10
6.77136e-09
1.39953e-10
6.63256e-09
1.38806e-10
6.49446e-09
1.38101e-10
6.35687e-09
1.37587e-10
6.21941e-09
1.37456e-10
6.08213e-09
1.37281e-10
5.94476e-09
1.37372e-10
5.80753e-09
1.37233e-10
5.67067e-09
1.36861e-10
5.53394e-09
1.3673e-10
5.39978e-09
1.3416e-10
5.26439e-09
1.3539e-10
5.13901e-09
1.25378e-10
5.0033e-09
1.35708e-10
4.91188e-09
9.14184e-11
4.6799e-09
2.31986e-10
-2.26923e-09
6.94913e-09
1.26022e-07
1.27464e-07
9.12487e-08
6.74194e-08
7.19124e-08
2.82337e-08
6.11675e-08
1.42462e-08
5.47013e-08
8.42563e-09
5.01852e-08
5.95207e-09
4.66764e-08
4.6509e-09
4.38336e-08
3.76657e-09
4.14776e-08
3.11898e-09
3.94837e-08
2.63924e-09
3.77648e-08
2.27546e-09
3.62608e-08
1.99113e-09
3.49289e-08
1.7633e-09
3.37376e-08
1.57736e-09
3.26627e-08
1.42345e-09
3.16851e-08
1.29456e-09
3.079e-08
1.18557e-09
2.99652e-08
1.09266e-09
2.92008e-08
1.01292e-09
2.84884e-08
9.44112e-10
2.78211e-08
8.84491e-10
2.71932e-08
8.32673e-10
2.65994e-08
7.87554e-10
2.60355e-08
7.4824e-10
2.54975e-08
7.14006e-10
2.49822e-08
6.84257e-10
2.44865e-08
6.58498e-10
2.40076e-08
6.36323e-10
2.35432e-08
6.17379e-10
2.3091e-08
6.01381e-10
2.2649e-08
5.88049e-10
2.22153e-08
5.77196e-10
2.17883e-08
5.6854e-10
2.13662e-08
5.62004e-10
2.09478e-08
5.57185e-10
2.05317e-08
5.54209e-10
2.0117e-08
5.52333e-10
1.97023e-08
5.52109e-10
1.92875e-08
5.52059e-10
1.88714e-08
5.53557e-10
1.84547e-08
5.53861e-10
1.80361e-08
5.55487e-10
1.76184e-08
5.54426e-10
1.71996e-08
5.52988e-10
1.67851e-08
5.49843e-10
1.63742e-08
5.36251e-10
1.59681e-08
5.41836e-10
1.56091e-08
4.50456e-10
1.51177e-08
7.23349e-10
-2.52408e-09
1.53726e-08
1.58804e-07
1.35063e-07
1.3648e-07
8.97435e-08
1.17459e-07
4.72544e-08
1.03257e-07
2.84489e-08
9.3221e-08
1.84614e-08
8.58862e-08
1.32868e-08
8.01435e-08
1.03936e-08
7.54514e-08
8.45859e-09
7.15281e-08
7.04228e-09
6.81868e-08
5.98062e-09
6.52941e-08
5.16808e-09
6.27555e-08
4.52979e-09
6.05022e-08
4.01663e-09
5.84829e-08
3.59665e-09
5.66582e-08
3.24814e-09
5.49972e-08
2.9556e-09
5.3475e-08
2.7077e-09
5.20718e-08
2.49594e-09
5.07708e-08
2.31384e-09
4.95585e-08
2.15642e-09
4.84233e-08
2.01974e-09
4.73552e-08
1.90071e-09
4.6346e-08
1.79684e-09
4.53881e-08
1.70613e-09
4.44751e-08
1.62694e-09
4.36015e-08
1.55792e-09
4.2762e-08
1.49798e-09
4.19521e-08
1.44618e-09
4.11677e-08
1.40176e-09
4.04051e-08
1.36405e-09
3.96607e-08
1.33247e-09
3.89313e-08
1.30658e-09
3.8214e-08
1.28582e-09
3.75061e-08
1.26995e-09
3.6805e-08
1.25824e-09
3.61084e-08
1.25083e-09
3.54144e-08
1.24635e-09
3.47207e-08
1.2458e-09
3.40265e-08
1.24621e-09
3.33294e-08
1.25069e-09
3.26306e-08
1.2526e-09
3.19264e-08
1.25975e-09
3.12228e-08
1.25802e-09
3.05114e-08
1.26436e-09
2.98092e-08
1.252e-09
2.90973e-08
1.24821e-09
2.84086e-08
1.23055e-09
2.774e-08
1.11903e-09
2.70509e-08
1.41242e-09
-1.70202e-09
2.62289e-08
1.75662e-07
1.30917e-07
1.65584e-07
9.98219e-08
1.52694e-07
6.01439e-08
1.40068e-07
4.10747e-08
1.29346e-07
2.9184e-08
1.20663e-07
2.19689e-08
1.13507e-07
1.75504e-08
1.07476e-07
1.44896e-08
1.02319e-07
1.21986e-08
9.78556e-08
1.04444e-08
9.39449e-08
9.07877e-09
9.04816e-08
7.99304e-09
8.73859e-08
7.11239e-09
8.4596e-08
6.38654e-09
8.20635e-08
5.78062e-09
7.97496e-08
5.26945e-09
7.7623e-08
4.83437e-09
7.56576e-08
4.46128e-09
7.38321e-08
4.13932e-09
7.21285e-08
3.86007e-09
7.05313e-08
3.61688e-09
6.90276e-08
3.40446e-09
6.76059e-08
3.21855e-09
6.62563e-08
3.0557e-09
6.49702e-08
2.91308e-09
6.37397e-08
2.78838e-09
6.2558e-08
2.67968e-09
6.14188e-08
2.58538e-09
6.03165e-08
2.50413e-09
5.92457e-08
2.43482e-09
5.82017e-08
2.37643e-09
5.71801e-08
2.32819e-09
5.61767e-08
2.28921e-09
5.51876e-08
2.25903e-09
5.42093e-08
2.23655e-09
5.32383e-08
2.22187e-09
5.22717e-08
2.21293e-09
5.13063e-08
2.21125e-09
5.03404e-08
2.21209e-09
4.93704e-08
2.22069e-09
4.83974e-08
2.22558e-09
4.74157e-08
2.24149e-09
4.64328e-08
2.24085e-09
4.54363e-08
2.26087e-09
4.44491e-08
2.23928e-09
4.34423e-08
2.25497e-09
4.24651e-08
2.20778e-09
4.14856e-08
2.09847e-09
4.0564e-08
2.33406e-09
-3.79625e-10
3.92416e-08
1.84559e-07
1.23144e-07
1.82313e-07
1.02068e-07
1.7608e-07
6.63771e-08
1.67713e-07
4.94417e-08
1.59057e-07
3.78397e-08
1.51107e-07
2.99188e-08
1.43986e-07
2.46711e-08
1.37631e-07
2.08446e-08
1.31968e-07
1.78615e-08
1.26914e-07
1.5499e-08
1.22382e-07
1.36107e-08
1.18296e-07
1.20787e-08
1.14592e-07
1.08165e-08
1.11216e-07
9.76285e-09
1.08122e-07
8.87406e-09
1.05274e-07
8.11763e-09
1.0264e-07
7.46895e-09
1.00192e-07
6.90904e-09
9.79081e-08
6.42309e-09
9.57687e-08
5.99943e-09
9.37568e-08
5.62875e-09
9.18578e-08
5.30354e-09
9.00586e-08
5.01775e-09
8.83478e-08
4.7664e-09
8.67155e-08
4.54543e-09
8.51524e-08
4.35144e-09
8.36505e-08
4.18165e-09
8.22021e-08
4.0337e-09
8.08006e-08
3.90565e-09
7.94396e-08
3.7958e-09
7.81133e-08
3.70274e-09
7.68163e-08
3.62527e-09
7.55433e-08
3.56217e-09
7.42896e-08
3.51272e-09
7.30507e-08
3.47544e-09
7.18222e-08
3.45037e-09
7.06004e-08
3.43477e-09
6.9381e-08
3.43064e-09
6.81616e-08
3.43148e-09
6.69376e-08
3.44473e-09
6.57093e-08
3.45382e-09
6.44699e-08
3.48086e-09
6.32268e-08
3.484e-09
6.19659e-08
3.52175e-09
6.07102e-08
3.49499e-09
5.94307e-08
3.53451e-09
5.81749e-08
3.46356e-09
5.69102e-08
3.36313e-09
5.57126e-08
3.53172e-09
1.21335e-09
5.41196e-08
1.90387e-07
1.14973e-07
1.91845e-07
1.00609e-07
1.90226e-07
6.79963e-08
1.86116e-07
5.35516e-08
1.80649e-07
4.33067e-08
1.74858e-07
3.57105e-08
1.69115e-07
3.04139e-08
1.63576e-07
2.63833e-08
1.58338e-07
2.30998e-08
1.53442e-07
2.03948e-08
1.48892e-07
1.81609e-08
1.44671e-07
1.62998e-08
1.40755e-07
1.47325e-08
1.37117e-07
1.34002e-08
1.33732e-07
1.22591e-08
1.30575e-07
1.12752e-08
1.27622e-07
1.0422e-08
1.24852e-07
9.67843e-09
1.22248e-07
9.02765e-09
1.19791e-07
8.45604e-09
1.17468e-07
7.95254e-09
1.15263e-07
7.50814e-09
1.13165e-07
7.11541e-09
1.11163e-07
6.76821e-09
1.09247e-07
6.46144e-09
1.07408e-07
6.19086e-09
1.05637e-07
5.95291e-09
1.03926e-07
5.74458e-09
1.02268e-07
5.56337e-09
1.00657e-07
5.40712e-09
9.90856e-08
5.27399e-09
9.75484e-08
5.16242e-09
9.60397e-08
5.07091e-09
9.4554e-08
4.99844e-09
9.30862e-08
4.94324e-09
9.16313e-08
4.90526e-09
9.01849e-08
4.88117e-09
8.87421e-08
4.87339e-09
8.72998e-08
4.87382e-09
8.58526e-08
4.89187e-09
8.44001e-08
4.90638e-09
8.2935e-08
4.94598e-09
8.14628e-08
4.95619e-09
7.99709e-08
5.01359e-09
7.84773e-08
4.98866e-09
7.69606e-08
5.05111e-09
7.54529e-08
4.97126e-09
7.3943e-08
4.87309e-09
7.24734e-08
5.00133e-09
3.02517e-09
7.06616e-08
1.95539e-07
1.07249e-07
1.98241e-07
9.7907e-08
1.98954e-07
6.72837e-08
1.97758e-07
5.47472e-08
1.95104e-07
4.59615e-08
1.91731e-07
3.90835e-08
1.87959e-07
3.41859e-08
1.83959e-07
3.03831e-08
1.7988e-07
2.71785e-08
1.75833e-07
2.44423e-08
1.71884e-07
2.21092e-08
1.68074e-07
2.01102e-08
1.64422e-07
1.83847e-08
1.60936e-07
1.6886e-08
1.57617e-07
1.5578e-08
1.54461e-07
1.44316e-08
1.51459e-07
1.34233e-08
1.48604e-07
1.25334e-08
1.45886e-07
1.1746e-08
1.43295e-07
1.10475e-08
1.4082e-07
1.04269e-08
1.38454e-07
9.87481e-09
1.36186e-07
9.3834e-09
1.34008e-07
8.94611e-09
1.31912e-07
8.5574e-09
1.2989e-07
8.2126e-09
1.27935e-07
7.90775e-09
1.2604e-07
7.63949e-09
1.24199e-07
7.40496e-09
1.22404e-07
7.20172e-09
1.2065e-07
7.02767e-09
1.18932e-07
6.88101e-09
1.17243e-07
6.76003e-09
1.15578e-07
6.66355e-09
1.13931e-07
6.58957e-09
1.12298e-07
6.53798e-09
1.10675e-07
6.50503e-09
1.09055e-07
6.49345e-09
1.07435e-07
6.49388e-09
1.05809e-07
6.51725e-09
1.04177e-07
6.53884e-09
1.02531e-07
6.59202e-09
1.00874e-07
6.61316e-09
9.91967e-08
6.69061e-09
9.75092e-08
6.67609e-09
9.58027e-08
6.75764e-09
9.40873e-08
6.68667e-09
9.23775e-08
6.58284e-09
9.06829e-08
6.69596e-09
5.0289e-09
8.86792e-08
2.00846e-07
9.99872e-08
2.0377e-07
9.49837e-08
2.05313e-07
6.57403e-08
2.05617e-07
5.44438e-08
2.04772e-07
4.68061e-08
2.03266e-07
4.05896e-08
2.01285e-07
3.61663e-08
1.98914e-07
3.27542e-08
1.96257e-07
2.98355e-08
1.93417e-07
2.7283e-08
1.90472e-07
2.50534e-08
1.87485e-07
2.30978e-08
1.84498e-07
2.13715e-08
1.81544e-07
1.98403e-08
1.78644e-07
1.84778e-08
1.75813e-07
1.72626e-08
1.73059e-07
1.61767e-08
1.70388e-07
1.52047e-08
1.67801e-07
1.43335e-08
1.65296e-07
1.35518e-08
1.62873e-07
1.28501e-08
1.60528e-07
1.222e-08
1.58257e-07
1.16545e-08
1.56056e-07
1.11473e-08
1.5392e-07
1.06934e-08
1.51844e-07
1.02882e-08
1.49824e-07
9.92778e-09
1.47855e-07
9.60895e-09
1.45931e-07
9.32884e-09
1.44047e-07
9.08498e-09
1.422e-07
8.87529e-09
1.40383e-07
8.69791e-09
1.38592e-07
8.55112e-09
1.36822e-07
8.43371e-09
1.35068e-07
8.34361e-09
1.33325e-07
8.28073e-09
1.31589e-07
8.24107e-09
1.29855e-07
8.2276e-09
1.28118e-07
8.23017e-09
1.26375e-07
8.26063e-09
1.24622e-07
8.29204e-09
1.22854e-07
8.36031e-09
1.2107e-07
8.39689e-09
1.19266e-07
8.49459e-09
1.17443e-07
8.49926e-09
1.15604e-07
8.59641e-09
1.13741e-07
8.54964e-09
1.11885e-07
8.43911e-09
1.10031e-07
8.54988e-09
7.17067e-09
1.07889e-07
2.06445e-07
9.3074e-08
2.09333e-07
9.20959e-08
2.11023e-07
6.40505e-08
2.11906e-07
5.3561e-08
2.11959e-07
4.67524e-08
2.11553e-07
4.09963e-08
2.10797e-07
3.69221e-08
2.09693e-07
3.38575e-08
2.08279e-07
3.12498e-08
2.06611e-07
2.8951e-08
2.04744e-07
2.69201e-08
2.02727e-07
2.51149e-08
2.00602e-07
2.34968e-08
1.98404e-07
2.20384e-08
1.96162e-07
2.07196e-08
1.939e-07
1.9525e-08
1.91635e-07
1.84416e-08
1.89381e-07
1.74584e-08
1.87148e-07
1.6566e-08
1.84944e-07
1.57559e-08
1.82774e-07
1.50208e-08
1.80639e-07
1.43543e-08
1.78543e-07
1.37507e-08
1.76485e-07
1.32051e-08
1.74466e-07
1.27131e-08
1.72483e-07
1.2271e-08
1.70535e-07
1.18756e-08
1.6862e-07
1.15239e-08
1.66735e-07
1.12136e-08
1.64878e-07
1.09425e-08
1.63044e-07
1.07088e-08
1.61231e-07
1.05108e-08
1.59435e-07
1.0347e-08
1.57653e-07
1.02164e-08
1.5588e-07
1.01169e-08
1.54112e-07
1.00486e-08
1.52345e-07
1.00076e-08
1.50576e-07
9.99687e-09
1.488e-07
1.0006e-08
1.47013e-07
1.00473e-08
1.45213e-07
1.00928e-08
1.43394e-07
1.01789e-08
1.41555e-07
1.02363e-08
1.39694e-07
1.03554e-08
1.37805e-07
1.03875e-08
1.35903e-07
1.04993e-08
1.33964e-07
1.04877e-08
1.32027e-07
1.0377e-08
1.30087e-07
1.04899e-08
9.37619e-09
1.27881e-07
2.12287e-07
8.64493e-08
2.15146e-07
8.92374e-08
2.16777e-07
6.24195e-08
2.17817e-07
5.25201e-08
2.18218e-07
4.63516e-08
2.18316e-07
4.08983e-08
2.18218e-07
3.70203e-08
2.17892e-07
3.41841e-08
2.17328e-07
3.18131e-08
2.16546e-07
2.97337e-08
2.15567e-07
2.7899e-08
2.14416e-07
2.62656e-08
2.13118e-07
2.47946e-08
2.11698e-07
2.34584e-08
2.10179e-07
2.22388e-08
2.08581e-07
2.11225e-08
2.06924e-07
2.00993e-08
2.05221e-07
1.91609e-08
2.03487e-07
1.83002e-08
2.01732e-07
1.75111e-08
1.99965e-07
1.67883e-08
1.98192e-07
1.61272e-08
1.96419e-07
1.55237e-08
1.94649e-07
1.49742e-08
1.92887e-07
1.44754e-08
1.91134e-07
1.40246e-08
1.8939e-07
1.36193e-08
1.87656e-07
1.32575e-08
1.85933e-07
1.29373e-08
1.84218e-07
1.2657e-08
1.82511e-07
1.24155e-08
1.80811e-07
1.22113e-08
1.79114e-07
1.20434e-08
1.7742e-07
1.1911e-08
1.75724e-07
1.18124e-08
1.74025e-07
1.17479e-08
1.72319e-07
1.17136e-08
1.70603e-07
1.17128e-08
1.68874e-07
1.17352e-08
1.67128e-07
1.1793e-08
1.65363e-07
1.18584e-08
1.63575e-07
1.19667e-08
1.6176e-07
1.20508e-08
1.59922e-07
1.21942e-08
1.58048e-07
1.2261e-08
1.56158e-07
1.23896e-08
1.54225e-07
1.24205e-08
1.52281e-07
1.23209e-08
1.50333e-07
1.24378e-08
1.15631e-08
1.48147e-07
2.18328e-07
8.01018e-08
2.21199e-07
8.63665e-08
2.22749e-07
6.08698e-08
2.23816e-07
5.14527e-08
2.24326e-07
4.58414e-08
2.24603e-07
4.06219e-08
2.24782e-07
3.68408e-08
2.24837e-07
3.41295e-08
2.24744e-07
3.19062e-08
2.24502e-07
2.99752e-08
2.24116e-07
2.82854e-08
2.2359e-07
2.67917e-08
2.22932e-07
2.54521e-08
2.22154e-07
2.42369e-08
2.21266e-07
2.31263e-08
2.20282e-07
2.21066e-08
2.19214e-07
2.11677e-08
2.18073e-07
2.03019e-08
2.1687e-07
1.95032e-08
2.15614e-07
1.87665e-08
2.14315e-07
1.80876e-08
2.12979e-07
1.7463e-08
2.11613e-07
1.68896e-08
2.10223e-07
1.63649e-08
2.08812e-07
1.58864e-08
2.07384e-07
1.54524e-08
2.05942e-07
1.50611e-08
2.04488e-07
1.47112e-08
2.03024e-07
1.44015e-08
2.0155e-07
1.41309e-08
2.00067e-07
1.38987e-08
1.98574e-07
1.37041e-08
1.97071e-07
1.35464e-08
1.95557e-07
1.34252e-08
1.9403e-07
1.33392e-08
1.92489e-07
1.32891e-08
1.90931e-07
1.32711e-08
1.89355e-07
1.32889e-08
1.87758e-07
1.33325e-08
1.86137e-07
1.34134e-08
1.8449e-07
1.35055e-08
1.82816e-07
1.36411e-08
1.81109e-07
1.37582e-08
1.79373e-07
1.39297e-08
1.77596e-07
1.40377e-08
1.75799e-07
1.41874e-08
1.73954e-07
1.42654e-08
1.72084e-07
1.41904e-08
1.70209e-07
1.4313e-08
1.36485e-08
1.68123e-07
2.24557e-07
7.40382e-08
2.27463e-07
8.34603e-08
2.28945e-07
5.93878e-08
2.30017e-07
5.03805e-08
2.30568e-07
4.52904e-08
2.30893e-07
4.02971e-08
2.31162e-07
3.65717e-08
2.31366e-07
3.3926e-08
2.31483e-07
3.17887e-08
2.31512e-07
2.99463e-08
2.31451e-07
2.83463e-08
2.31298e-07
2.6945e-08
2.31051e-07
2.56991e-08
2.30712e-07
2.45764e-08
2.30283e-07
2.35554e-08
2.29768e-07
2.2621e-08
2.29174e-07
2.17621e-08
2.28505e-07
2.09705e-08
2.27768e-07
2.024e-08
2.26969e-07
1.95655e-08
2.26114e-07
1.8943e-08
2.25208e-07
1.83694e-08
2.24255e-07
1.78421e-08
2.23261e-07
1.73588e-08
2.2223e-07
1.69178e-08
2.21165e-07
1.65175e-08
2.20069e-07
1.61571e-08
2.18945e-07
1.58354e-08
2.17794e-07
1.55518e-08
2.16619e-07
1.53059e-08
2.15421e-07
1.50972e-08
2.14199e-07
1.49255e-08
2.12955e-07
1.47904e-08
2.11689e-07
1.4692e-08
2.10398e-07
1.46293e-08
2.09084e-07
1.46032e-08
2.07745e-07
1.46105e-08
2.06379e-07
1.46549e-08
2.04985e-07
1.47268e-08
2.03561e-07
1.48375e-08
2.02104e-07
1.49622e-08
2.00615e-07
1.51302e-08
1.99087e-07
1.52855e-08
1.97528e-07
1.54891e-08
1.95923e-07
1.5643e-08
1.94291e-07
1.58193e-08
1.92609e-07
1.59467e-08
1.90891e-07
1.5909e-08
1.89164e-07
1.604e-08
1.55562e-08
1.87256e-07
2.30978e-07
6.82665e-08
2.33927e-07
8.05104e-08
2.3535e-07
5.79653e-08
2.36428e-07
4.93024e-08
2.37012e-07
4.47063e-08
2.37352e-07
3.99575e-08
2.37642e-07
3.62815e-08
2.37891e-07
3.36769e-08
2.38084e-07
3.15953e-08
2.38224e-07
2.98071e-08
2.3831e-07
2.82596e-08
2.38342e-07
2.69132e-08
2.38316e-07
2.57254e-08
2.38229e-07
2.46632e-08
2.3808e-07
2.37038e-08
2.3787e-07
2.28312e-08
2.37599e-07
2.20336e-08
2.37267e-07
2.1302e-08
2.36878e-07
2.06294e-08
2.36433e-07
2.00107e-08
2.35934e-07
1.94415e-08
2.35385e-07
1.89185e-08
2.34788e-07
1.84391e-08
2.34146e-07
1.8001e-08
2.33461e-07
1.76026e-08
2.32736e-07
1.72426e-08
2.31973e-07
1.69202e-08
2.31174e-07
1.66345e-08
2.3034e-07
1.63853e-08
2.29474e-07
1.61723e-08
2.28576e-07
1.59953e-08
2.27647e-07
1.58546e-08
2.26687e-07
1.575e-08
2.25697e-07
1.56818e-08
2.24677e-07
1.56494e-08
2.23626e-07
1.56539e-08
2.22544e-07
1.56926e-08
2.2143e-07
1.5769e-08
2.20283e-07
1.58743e-08
2.19101e-07
1.6019e-08
2.17883e-07
1.61804e-08
2.16629e-07
1.63839e-08
2.15334e-07
1.65808e-08
2.14004e-07
1.68191e-08
2.12626e-07
1.70211e-08
2.11217e-07
1.72286e-08
2.09758e-07
1.74054e-08
2.08252e-07
1.74148e-08
2.06735e-07
1.75575e-08
1.72256e-08
2.05065e-07
2.37599e-07
6.27927e-08
2.40595e-07
7.75143e-08
2.4196e-07
5.66001e-08
2.43042e-07
4.82199e-08
2.43663e-07
4.40856e-08
2.44016e-07
3.96051e-08
2.44311e-07
3.59866e-08
2.44571e-07
3.34159e-08
2.44787e-07
3.13797e-08
2.44963e-07
2.96316e-08
2.45104e-07
2.81184e-08
2.45211e-07
2.68056e-08
2.45284e-07
2.56529e-08
2.4532e-07
2.46275e-08
2.45317e-07
2.37066e-08
2.45274e-07
2.28739e-08
2.45191e-07
2.21173e-08
2.45065e-07
2.14273e-08
2.44898e-07
2.07968e-08
2.44689e-07
2.022e-08
2.44437e-07
1.96926e-08
2.44145e-07
1.92109e-08
2.43812e-07
1.8772e-08
2.43439e-07
1.83737e-08
2.43028e-07
1.80141e-08
2.42579e-07
1.7692e-08
2.42092e-07
1.74063e-08
2.4157e-07
1.71564e-08
2.41014e-07
1.69421e-08
2.40423e-07
1.67632e-08
2.39798e-07
1.66198e-08
2.39141e-07
1.6512e-08
2.38451e-07
1.644e-08
2.37728e-07
1.64044e-08
2.36973e-07
1.64045e-08
2.36185e-07
1.64419e-08
2.35364e-07
1.65139e-08
2.34509e-07
1.66241e-08
2.33619e-07
1.67643e-08
2.32694e-07
1.6944e-08
2.31731e-07
1.71429e-08
2.30733e-07
1.73823e-08
2.29693e-07
1.7621e-08
2.28618e-07
1.78943e-08
2.27495e-07
1.81435e-08
2.26339e-07
1.83848e-08
2.25136e-07
1.86081e-08
2.23881e-07
1.86703e-08
2.22611e-07
1.88275e-08
1.862e-08
2.21216e-07
2.44429e-07
5.76202e-08
2.47464e-07
7.44787e-08
2.4878e-07
5.52842e-08
2.49863e-07
4.71374e-08
2.50522e-07
4.34266e-08
2.5089e-07
3.92362e-08
2.51189e-07
3.56879e-08
2.51455e-07
3.31503e-08
2.51677e-07
3.11573e-08
2.51863e-07
2.9446e-08
2.5202e-07
2.79609e-08
2.52153e-07
2.66725e-08
2.52263e-07
2.55436e-08
2.52348e-07
2.45423e-08
2.52408e-07
2.36459e-08
2.52444e-07
2.28384e-08
2.52453e-07
2.21077e-08
2.52436e-07
2.14446e-08
2.52391e-07
2.08418e-08
2.52317e-07
2.02936e-08
2.52215e-07
1.97953e-08
2.52082e-07
1.93433e-08
2.5192e-07
1.89345e-08
2.51727e-07
1.85666e-08
2.51504e-07
1.82375e-08
2.5125e-07
1.79459e-08
2.50965e-07
1.76907e-08
2.50651e-07
1.74712e-08
2.50306e-07
1.72872e-08
2.4993e-07
1.71385e-08
2.49525e-07
1.70251e-08
2.49089e-07
1.69474e-08
2.48624e-07
1.69056e-08
2.48128e-07
1.69002e-08
2.47602e-07
1.69309e-08
2.47044e-07
1.69992e-08
2.46456e-07
1.71025e-08
2.45836e-07
1.72443e-08
2.45182e-07
1.74173e-08
2.44497e-07
1.76297e-08
2.43776e-07
1.78638e-08
2.43022e-07
1.81363e-08
2.42229e-07
1.84138e-08
2.41404e-07
1.87197e-08
2.40535e-07
1.90119e-08
2.39633e-07
1.92866e-08
2.3869e-07
1.95514e-08
2.37693e-07
1.9667e-08
2.36681e-07
1.98402e-08
1.97316e-08
2.35569e-07
2.51476e-07
5.2751e-08
2.54542e-07
7.14131e-08
2.55819e-07
5.40071e-08
2.56895e-07
4.60605e-08
2.57592e-07
4.27305e-08
2.5798e-07
3.88479e-08
2.58284e-07
3.53842e-08
2.58554e-07
3.28803e-08
2.5878e-07
3.09306e-08
2.58969e-07
2.9257e-08
2.59131e-07
2.7799e-08
2.59271e-07
2.65326e-08
2.59391e-07
2.54235e-08
2.59493e-07
2.44408e-08
2.59576e-07
2.35623e-08
2.59642e-07
2.27724e-08
2.59691e-07
2.20593e-08
2.59721e-07
2.1414e-08
2.59734e-07
2.08295e-08
2.59727e-07
2.03e-08
2.59701e-07
1.98212e-08
2.59655e-07
1.93893e-08
2.59589e-07
1.90013e-08
2.595e-07
1.86547e-08
2.5939e-07
1.83476e-08
2.59258e-07
1.80785e-08
2.59102e-07
1.78462e-08
2.58923e-07
1.765e-08
2.58721e-07
1.74895e-08
2.58495e-07
1.73647e-08
2.58244e-07
1.72756e-08
2.57969e-07
1.72225e-08
2.57669e-07
1.72056e-08
2.57344e-07
1.72255e-08
2.56993e-07
1.72819e-08
2.56616e-07
1.73763e-08
2.56212e-07
1.75063e-08
2.55781e-07
1.76752e-08
2.55322e-07
1.78762e-08
2.54836e-07
1.81165e-08
2.54319e-07
1.83806e-08
2.53774e-07
1.86814e-08
2.53195e-07
1.89921e-08
2.52589e-07
1.9326e-08
2.51947e-07
1.96545e-08
2.51273e-07
1.99598e-08
2.50566e-07
2.02588e-08
2.49809e-07
2.04243e-08
2.49036e-07
2.06134e-08
2.05807e-08
2.48186e-07
2.58749e-07
4.81851e-08
2.61835e-07
6.83275e-08
2.63083e-07
5.27583e-08
2.64149e-07
4.49944e-08
2.6488e-07
4.19997e-08
2.6529e-07
3.84381e-08
2.656e-07
3.50744e-08
2.65875e-07
3.26056e-08
2.66106e-07
3.06994e-08
2.66298e-07
2.9065e-08
2.66461e-07
2.76353e-08
2.66603e-07
2.63908e-08
2.66726e-07
2.53008e-08
2.66831e-07
2.43353e-08
2.66921e-07
2.34724e-08
2.66997e-07
2.2697e-08
2.67058e-07
2.19977e-08
2.67106e-07
2.13659e-08
2.67141e-07
2.07946e-08
2.67163e-07
2.02786e-08
2.67171e-07
1.98134e-08
2.67164e-07
1.93955e-08
2.67144e-07
1.9022e-08
2.67108e-07
1.86904e-08
2.67057e-07
1.83987e-08
2.6699e-07
1.81455e-08
2.66906e-07
1.79297e-08
2.66806e-07
1.77504e-08
2.66688e-07
1.76074e-08
2.66553e-07
1.75004e-08
2.66399e-07
1.74295e-08
2.66226e-07
1.73951e-08
2.66034e-07
1.73973e-08
2.65823e-07
1.74369e-08
2.65591e-07
1.75133e-08
2.6534e-07
1.76282e-08
2.65067e-07
1.77792e-08
2.64772e-07
1.79694e-08
2.64456e-07
1.81928e-08
2.64117e-07
1.8455e-08
2.63755e-07
1.87432e-08
2.6337e-07
1.90661e-08
2.62959e-07
1.94031e-08
2.62525e-07
1.97595e-08
2.62064e-07
2.01163e-08
2.61576e-07
2.04476e-08
2.61061e-07
2.07731e-08
2.60504e-07
2.09819e-08
2.59932e-07
2.11856e-08
2.12092e-08
2.59303e-07
2.66256e-07
4.39209e-08
2.69352e-07
6.52323e-08
2.70583e-07
5.15273e-08
2.71634e-07
4.39434e-08
2.72396e-07
4.12377e-08
2.72829e-07
3.80051e-08
2.73145e-07
3.47577e-08
2.73425e-07
3.23261e-08
2.73661e-07
3.04632e-08
2.73856e-07
2.88698e-08
2.74022e-07
2.747e-08
2.74164e-07
2.62481e-08
2.74288e-07
2.51775e-08
2.74394e-07
2.42291e-08
2.74485e-07
2.33815e-08
2.74562e-07
2.26199e-08
2.74626e-07
2.19332e-08
2.74679e-07
2.13132e-08
2.7472e-07
2.07532e-08
2.74751e-07
2.02481e-08
2.74771e-07
1.97937e-08
2.74779e-07
1.93867e-08
2.74777e-07
1.90242e-08
2.74764e-07
1.87038e-08
2.74739e-07
1.84237e-08
2.74702e-07
1.81824e-08
2.74653e-07
1.79787e-08
2.74591e-07
1.7812e-08
2.74517e-07
1.76818e-08
2.74429e-07
1.75881e-08
2.74328e-07
1.75308e-08
2.74213e-07
1.75104e-08
2.74083e-07
1.75269e-08
2.73939e-07
1.75811e-08
2.73779e-07
1.76727e-08
2.73605e-07
1.7803e-08
2.73414e-07
1.797e-08
2.73207e-07
1.81762e-08
2.72983e-07
1.84165e-08
2.72743e-07
1.8695e-08
2.72485e-07
1.90013e-08
2.72211e-07
1.93406e-08
2.71917e-07
1.96973e-08
2.71606e-07
2.00704e-08
2.71274e-07
2.04481e-08
2.70921e-07
2.08002e-08
2.70549e-07
2.1145e-08
2.70142e-07
2.13895e-08
2.69721e-07
2.16061e-08
2.16704e-08
2.6926e-07
2.74007e-07
3.99548e-08
2.77101e-07
6.21386e-08
2.78324e-07
5.0304e-08
2.79357e-07
4.29111e-08
2.80146e-07
4.04486e-08
2.80603e-07
3.75475e-08
2.80928e-07
3.4433e-08
2.81212e-07
3.20418e-08
2.81454e-07
3.02218e-08
2.81652e-07
2.8671e-08
2.8182e-07
2.73027e-08
2.81963e-07
2.61044e-08
2.82087e-07
2.50537e-08
2.82193e-07
2.4123e-08
2.82284e-07
2.3291e-08
2.82361e-07
2.25432e-08
2.82425e-07
2.1869e-08
2.82478e-07
2.12605e-08
2.8252e-07
2.07111e-08
2.82551e-07
2.02162e-08
2.82573e-07
1.97716e-08
2.82586e-07
1.93742e-08
2.82589e-07
1.90212e-08
2.82582e-07
1.87104e-08
2.82566e-07
1.84399e-08
2.8254e-07
1.82083e-08
2.82505e-07
1.80144e-08
2.82459e-07
1.78577e-08
2.82403e-07
1.77378e-08
2.82336e-07
1.76544e-08
2.8226e-07
1.76078e-08
2.82172e-07
1.75982e-08
2.82073e-07
1.76258e-08
2.81963e-07
1.76913e-08
2.81841e-07
1.77945e-08
2.81708e-07
1.79364e-08
2.81562e-07
1.81155e-08
2.81404e-07
1.83337e-08
2.81234e-07
1.85866e-08
2.81052e-07
1.8877e-08
2.80857e-07
1.91967e-08
2.8065e-07
1.95478e-08
2.80428e-07
1.99187e-08
2.80195e-07
2.03041e-08
2.79946e-07
2.06965e-08
2.79682e-07
2.10648e-08
2.79403e-07
2.14233e-08
2.79097e-07
2.1696e-08
2.78779e-07
2.19243e-08
2.20183e-08
2.78431e-07
2.82011e-07
3.62816e-08
2.85091e-07
5.9058e-08
2.86317e-07
4.90787e-08
2.87328e-07
4.19001e-08
2.88139e-07
3.9637e-08
2.88623e-07
3.70638e-08
2.88956e-07
3.40994e-08
2.89245e-07
3.1753e-08
2.89492e-07
2.99753e-08
2.89695e-07
2.84682e-08
2.89864e-07
2.71331e-08
2.90009e-07
2.59595e-08
2.90133e-07
2.49295e-08
2.9024e-07
2.40168e-08
2.9033e-07
2.32009e-08
2.90405e-07
2.24673e-08
2.90469e-07
2.18059e-08
2.9052e-07
2.1209e-08
2.90561e-07
2.06704e-08
2.90592e-07
2.01855e-08
2.90613e-07
1.97506e-08
2.90624e-07
1.93624e-08
2.90627e-07
1.90185e-08
2.90621e-07
1.87166e-08
2.90606e-07
1.8455e-08
2.90582e-07
1.82322e-08
2.90549e-07
1.80472e-08
2.90507e-07
1.78994e-08
2.90457e-07
1.77883e-08
2.90397e-07
1.77139e-08
2.90329e-07
1.76763e-08
2.90251e-07
1.76758e-08
2.90164e-07
1.77126e-08
2.90068e-07
1.77875e-08
2.89963e-07
1.79001e-08
2.89848e-07
1.80515e-08
2.89723e-07
1.82402e-08
2.89589e-07
1.84677e-08
2.89445e-07
1.87304e-08
2.89292e-07
1.90299e-08
2.89129e-07
1.93596e-08
2.88958e-07
1.97195e-08
2.88776e-07
2.01008e-08
2.88584e-07
2.04952e-08
2.88383e-07
2.0898e-08
2.88169e-07
2.12791e-08
2.87944e-07
2.16477e-08
2.87697e-07
2.1943e-08
2.87439e-07
2.21826e-08
2.22995e-08
2.87158e-07
2.90276e-07
3.28942e-08
2.93332e-07
5.60021e-08
2.94568e-07
4.78426e-08
2.95556e-07
4.09124e-08
2.96385e-07
3.88082e-08
2.96895e-07
3.65533e-08
2.97239e-07
3.37553e-08
2.97533e-07
3.14596e-08
2.97784e-07
2.97236e-08
2.97992e-07
2.82611e-08
2.98164e-07
2.6961e-08
2.9831e-07
2.58133e-08
2.98435e-07
2.48045e-08
2.98541e-07
2.39106e-08
2.98631e-07
2.31112e-08
2.98706e-07
2.23923e-08
2.98768e-07
2.1744e-08
2.98818e-07
2.11589e-08
2.98857e-07
2.06313e-08
2.98886e-07
2.01567e-08
2.98905e-07
1.97315e-08
2.98914e-07
1.93527e-08
2.98915e-07
1.90179e-08
2.98907e-07
1.87248e-08
2.9889e-07
1.84719e-08
2.98864e-07
1.82578e-08
2.9883e-07
1.80813e-08
2.98788e-07
1.7942e-08
2.98737e-07
1.78393e-08
2.98677e-07
1.77733e-08
2.98609e-07
1.77441e-08
2.98533e-07
1.7752e-08
2.98449e-07
1.77972e-08
2.98356e-07
1.78804e-08
2.98254e-07
1.80013e-08
2.98145e-07
1.8161e-08
2.98027e-07
1.8358e-08
2.97901e-07
1.85935e-08
2.97767e-07
1.88644e-08
2.97626e-07
1.91715e-08
2.97476e-07
1.95093e-08
2.97319e-07
1.98762e-08
2.97155e-07
2.02654e-08
2.96983e-07
2.06673e-08
2.96803e-07
2.10779e-08
2.96612e-07
2.14699e-08
2.96413e-07
2.18468e-08
2.96195e-07
2.21607e-08
2.95965e-07
2.24124e-08
2.25495e-08
2.95715e-07
2.98813e-07
2.97837e-08
3.01832e-07
5.2983e-08
3.03087e-07
4.65877e-08
3.04051e-07
3.99489e-08
3.04891e-07
3.79676e-08
3.05429e-07
3.60154e-08
3.05785e-07
3.33992e-08
3.06083e-07
3.11616e-08
3.0634e-07
2.94667e-08
3.06552e-07
2.80494e-08
3.06727e-07
2.67861e-08
3.06874e-07
2.56655e-08
3.07e-07
2.46787e-08
3.07107e-07
2.38041e-08
3.07196e-07
2.30218e-08
3.0727e-07
2.2318e-08
3.07331e-07
2.16832e-08
3.0738e-07
2.11104e-08
3.07417e-07
2.0594e-08
3.07444e-07
2.01299e-08
3.07461e-07
1.97146e-08
3.07468e-07
1.93454e-08
3.07466e-07
1.90198e-08
3.07455e-07
1.87358e-08
3.07435e-07
1.84917e-08
3.07407e-07
1.82863e-08
3.0737e-07
1.81184e-08
3.07324e-07
1.79875e-08
3.0727e-07
1.78932e-08
3.07208e-07
1.78355e-08
3.07138e-07
1.78145e-08
3.07059e-07
1.78305e-08
3.06973e-07
1.78838e-08
3.06878e-07
1.7975e-08
3.06776e-07
1.8104e-08
3.06665e-07
1.82713e-08
3.06547e-07
1.84761e-08
3.06421e-07
1.8719e-08
3.06288e-07
1.89974e-08
3.06149e-07
1.93113e-08
3.06001e-07
1.96563e-08
3.05848e-07
2.00296e-08
3.05688e-07
2.04257e-08
3.05521e-07
2.08344e-08
3.05347e-07
2.12517e-08
3.05163e-07
2.16535e-08
3.04972e-07
2.20386e-08
3.04763e-07
2.2369e-08
3.04541e-07
2.26346e-08
2.27922e-08
3.04298e-07
3.07631e-07
2.69396e-08
3.10602e-07
5.00128e-08
3.11882e-07
4.53074e-08
3.12821e-07
3.90094e-08
3.13668e-07
3.71206e-08
3.14233e-07
3.54505e-08
3.14603e-07
3.30297e-08
3.14906e-07
3.08588e-08
3.15167e-07
2.92047e-08
3.15384e-07
2.78329e-08
3.15562e-07
2.6608e-08
3.15712e-07
2.55159e-08
3.15838e-07
2.45519e-08
3.15945e-07
2.36972e-08
3.16035e-07
2.29325e-08
3.16108e-07
2.22443e-08
3.16168e-07
2.16234e-08
3.16215e-07
2.10631e-08
3.16251e-07
2.05584e-08
3.16276e-07
2.01051e-08
3.1629e-07
1.97e-08
3.16295e-07
1.93405e-08
3.16291e-07
1.90244e-08
3.16277e-07
1.87496e-08
3.16254e-07
1.85146e-08
3.16222e-07
1.8318e-08
3.16182e-07
1.81588e-08
3.16133e-07
1.80365e-08
3.16075e-07
1.79507e-08
3.1601e-07
1.79013e-08
3.15935e-07
1.78886e-08
3.15853e-07
1.79128e-08
3.15763e-07
1.79742e-08
3.15664e-07
1.80734e-08
3.15558e-07
1.82103e-08
3.15444e-07
1.83853e-08
3.15322e-07
1.85978e-08
3.15193e-07
1.88479e-08
3.15057e-07
1.91336e-08
3.14914e-07
1.94542e-08
3.14765e-07
1.98061e-08
3.14609e-07
2.01856e-08
3.14446e-07
2.05883e-08
3.14277e-07
2.10038e-08
3.14101e-07
2.14277e-08
3.13915e-07
2.18392e-08
3.1372e-07
2.22333e-08
3.1351e-07
2.25795e-08
3.13283e-07
2.28615e-08
2.30419e-08
3.13033e-07
3.16741e-07
2.43499e-08
3.1965e-07
4.71035e-08
3.20961e-07
4.39964e-08
3.21878e-07
3.8093e-08
3.22726e-07
3.62724e-08
3.23317e-07
3.48598e-08
3.23701e-07
3.26452e-08
3.24009e-07
3.05508e-08
3.24276e-07
2.89378e-08
3.24498e-07
2.76113e-08
3.24679e-07
2.64265e-08
3.24831e-07
2.53642e-08
3.24959e-07
2.44239e-08
3.25066e-07
2.35898e-08
3.25156e-07
2.28432e-08
3.25229e-07
2.21711e-08
3.25288e-07
2.15645e-08
3.25334e-07
2.10172e-08
3.25368e-07
2.05243e-08
3.25391e-07
2.00821e-08
3.25403e-07
1.96875e-08
3.25406e-07
1.93381e-08
3.25398e-07
1.90317e-08
3.25382e-07
1.87663e-08
3.25356e-07
1.85405e-08
3.25321e-07
1.8353e-08
3.25277e-07
1.82027e-08
3.25224e-07
1.80891e-08
3.25163e-07
1.80119e-08
3.25093e-07
1.79711e-08
3.25015e-07
1.79668e-08
3.24928e-07
1.79994e-08
3.24834e-07
1.8069e-08
3.24731e-07
1.81763e-08
3.2462e-07
1.83211e-08
3.24501e-07
1.8504e-08
3.24375e-07
1.87242e-08
3.24241e-07
1.89816e-08
3.241e-07
1.92747e-08
3.23952e-07
1.96021e-08
3.23797e-07
1.99609e-08
3.23636e-07
2.03469e-08
3.23468e-07
2.07562e-08
3.23293e-07
2.11789e-08
3.23111e-07
2.161e-08
3.22918e-07
2.20316e-08
3.22716e-07
2.2436e-08
3.22497e-07
2.27983e-08
3.22259e-07
2.30994e-08
2.33064e-08
3.21994e-07
3.26151e-07
2.20011e-08
3.28988e-07
4.42668e-08
3.30334e-07
4.26509e-08
3.31229e-07
3.71976e-08
3.32074e-07
3.54278e-08
3.32689e-07
3.42448e-08
3.3309e-07
3.22442e-08
3.33403e-07
3.02369e-08
3.33675e-07
2.86661e-08
3.33902e-07
2.73846e-08
3.34087e-07
2.62411e-08
3.34241e-07
2.52103e-08
3.34371e-07
2.42946e-08
3.34479e-07
2.34815e-08
3.34568e-07
2.27538e-08
3.34641e-07
2.20982e-08
3.34699e-07
2.15064e-08
3.34744e-07
2.09724e-08
3.34777e-07
2.04917e-08
3.34798e-07
2.00609e-08
3.34808e-07
1.96771e-08
3.34808e-07
1.9338e-08
3.34798e-07
1.90415e-08
3.34779e-07
1.87859e-08
3.3475e-07
1.85695e-08
3.34712e-07
1.83912e-08
3.34664e-07
1.825e-08
3.34608e-07
1.81454e-08
3.34543e-07
1.80771e-08
3.34469e-07
1.80449e-08
3.34387e-07
1.80492e-08
3.34296e-07