/*--------------------------------*- C++ -*----------------------------------*\
  =========                 |
  \\      /  F ield         | OpenFOAM: The Open Source CFD Toolbox
   \\    /   O peration     | Website:  https://openfoam.org
    \\  /    A nd           | Version:  7
     \\/     M anipulation  |
\*---------------------------------------------------------------------------*/
FoamFile
{
    version     2.0;
    format      ascii;
    class       volVectorField;
    location    "0.15";
    object      U;
}
// * * * * * * * * * * * * * * * * * * * * * * * * * * * * * * * * * * * * * //

dimensions      [0 1 -1 0 0 0 0];

internalField   nonuniform List<vector> 
70000
(
(0.553386 0.0167234 0)
(0.251229 0.00340159 0)
(0.166129 0.000322631 0)
(0.132335 5.48028e-05 0)
(0.117093 4.62411e-05 0)
(0.107113 5.44383e-05 0)
(0.0991036 4.6832e-05 0)
(0.0925976 3.75333e-05 0)
(0.0872824 3.12667e-05 0)
(0.082838 2.69903e-05 0)
(0.0790358 2.37455e-05 0)
(0.0757279 2.11594e-05 0)
(0.0728127 1.90633e-05 0)
(0.0702159 1.73444e-05 0)
(0.067881 1.59196e-05 0)
(0.0657644 1.47272e-05 0)
(0.0638313 1.37217e-05 0)
(0.0620541 1.2869e-05 0)
(0.0604102 1.2143e-05 0)
(0.0588808 1.15238e-05 0)
(0.0574505 1.09954e-05 0)
(0.056106 1.05456e-05 0)
(0.054836 1.01643e-05 0)
(0.0536309 9.84352e-06 0)
(0.0524822 9.57641e-06 0)
(0.0513824 9.35817e-06 0)
(0.0503249 9.18328e-06 0)
(0.0493038 9.04926e-06 0)
(0.0483139 8.95062e-06 0)
(0.0473504 8.88715e-06 0)
(0.0464089 8.85126e-06 0)
(0.0454854 8.84703e-06 0)
(0.0445766 8.85976e-06 0)
(0.0436789 8.90299e-06 0)
(0.0427898 8.94731e-06 0)
(0.0419064 9.02251e-06 0)
(0.0410269 9.07755e-06 0)
(0.0401495 9.15692e-06 0)
(0.0392721 9.20686e-06 0)
(0.0383974 9.22021e-06 0)
(0.0375169 9.30416e-06 0)
(0.03665 9.02797e-06 0)
(0.0357601 9.434e-06 0)
(0.0349255 8.1114e-06 0)
(0.0340062 1.00491e-05 0)
(0.0332781 5.12692e-06 0)
(0.0322528 1.30024e-05 0)
(0.0318318 -4.36727e-06 0)
(0.030574 2.64292e-05 0)
(0.0287612 -0.00120141 0)
(0.884896 0.0431691 0)
(0.649666 0.0201979 0)
(0.494179 0.0066036 0)
(0.403409 0.00277367 0)
(0.354358 0.0015588 0)
(0.322913 0.00113917 0)
(0.298896 0.000918743 0)
(0.279527 0.000755603 0)
(0.263628 0.000633539 0)
(0.250305 0.000543599 0)
(0.23891 0.000475548 0)
(0.229001 0.000422218 0)
(0.22027 0.000379344 0)
(0.212494 0.000344274 0)
(0.205506 0.000315207 0)
(0.199173 0.000290858 0)
(0.193392 0.00027028 0)
(0.18808 0.000252771 0)
(0.183171 0.000237795 0)
(0.178607 0.00022494 0)
(0.174343 0.000213887 0)
(0.170339 0.000204383 0)
(0.166562 0.000196228 0)
(0.162982 0.000189262 0)
(0.159575 0.000183354 0)
(0.156317 0.000178403 0)
(0.15319 0.00017432 0)
(0.150175 0.00017104 0)
(0.147257 0.000168501 0)
(0.144421 0.000166659 0)
(0.141655 0.000165464 0)
(0.138945 0.000164894 0)
(0.136282 0.000164882 0)
(0.133654 0.000165443 0)
(0.131054 0.000166453 0)
(0.128471 0.000167993 0)
(0.125899 0.000169812 0)
(0.123333 0.000172128 0)
(0.120763 0.000174444 0)
(0.118196 0.000177192 0)
(0.115606 0.000179579 0)
(0.113042 0.000182064 0)
(0.110406 0.000184154 0)
(0.1079 0.000184658 0)
(0.105156 0.000187043 0)
(0.102888 0.000180398 0)
(0.0998356 0.00018966 0)
(0.0982897 0.000144549 0)
(0.094591 0.000311276 0)
(0.0920445 -0.00196762 0)
(0.991239 0.0499047 0)
(0.890308 0.0307273 0)
(0.762542 0.0146104 0)
(0.656384 0.00799505 0)
(0.584885 0.00490249 0)
(0.535282 0.00349112 0)
(0.49719 0.00275801 0)
(0.466321 0.00226804 0)
(0.440731 0.00190723 0)
(0.419122 0.001638 0)
(0.400547 0.00143299 0)
(0.384339 0.00127225 0)
(0.370021 0.00114306 0)
(0.357245 0.00103733 0)
(0.345742 0.000949621 0)
(0.335306 0.000876059 0)
(0.325771 0.000813811 0)
(0.317006 0.000760763 0)
(0.308901 0.000715308 0)
(0.301366 0.000676212 0)
(0.294326 0.000642513 0)
(0.287718 0.000613452 0)
(0.281487 0.000588427 0)
(0.275585 0.000566959 0)
(0.269972 0.000548658 0)
(0.264611 0.000533215 0)
(0.25947 0.000520376 0)
(0.25452 0.000509935 0)
(0.249735 0.000501722 0)
(0.245091 0.000495605 0)
(0.240568 0.000491453 0)
(0.236143 0.000489192 0)
(0.231801 0.00048868 0)
(0.227522 0.000489912 0)
(0.223292 0.000492644 0)
(0.219096 0.000497017 0)
(0.21492 0.000502486 0)
(0.210754 0.000509551 0)
(0.206583 0.000516959 0)
(0.202412 0.000526035 0)
(0.198203 0.000534065 0)
(0.194022 0.00054399 0)
(0.189724 0.000550605 0)
(0.185598 0.00055907 0)
(0.181112 0.000561889 0)
(0.177285 0.000562275 0)
(0.172319 0.000566604 0)
(0.169445 0.000499976 0)
(0.163471 0.000733147 0)
(0.161006 -0.00166672 0)
(1.0156 0.0489246 0)
(1.00593 0.0358877 0)
(0.935841 0.0208126 0)
(0.851867 0.0135309 0)
(0.781738 0.00923892 0)
(0.726315 0.00681687 0)
(0.680974 0.00542381 0)
(0.642922 0.00448931 0)
(0.610575 0.00380025 0)
(0.582745 0.00327914 0)
(0.558497 0.00287766 0)
(0.537123 0.00256068 0)
(0.518096 0.00230474 0)
(0.50101 0.00209449 0)
(0.485552 0.00191946 0)
(0.471469 0.00177219 0)
(0.458562 0.00164721 0)
(0.446663 0.0015404 0)
(0.435638 0.00144863 0)
(0.425371 0.00136947 0)
(0.415767 0.00130104 0)
(0.406743 0.00124184 0)
(0.398229 0.00119068 0)
(0.390162 0.0011466 0)
(0.382489 0.00110885 0)
(0.375162 0.00107679 0)
(0.368139 0.00104994 0)
(0.361381 0.00102789 0)
(0.354853 0.0010103 0)
(0.348525 0.000996911 0)
(0.342366 0.00098749 0)
(0.33635 0.000981878 0)
(0.330453 0.00097985 0)
(0.324649 0.000981366 0)
(0.31892 0.000986055 0)
(0.313241 0.000994117 0)
(0.307597 0.00100469 0)
(0.30197 0.00101861 0)
(0.29634 0.00103368 0)
(0.290709 0.0010525 0)
(0.285027 0.00106958 0)
(0.279371 0.00109189 0)
(0.273565 0.00110638 0)
(0.267944 0.00113006 0)
(0.261882 0.00113431 0)
(0.256559 0.00115325 0)
(0.249905 0.00114657 0)
(0.245589 0.00108167 0)
(0.237711 0.00129998 0)
(0.234658 -0.000811234 0)
(1.01434 0.0460086 0)
(1.04752 0.0375044 0)
(1.0245 0.0241795 0)
(0.974562 0.0175966 0)
(0.923077 0.0131675 0)
(0.876086 0.0102586 0)
(0.833661 0.00840246 0)
(0.795609 0.00708888 0)
(0.761701 0.00608657 0)
(0.731499 0.00530663 0)
(0.704491 0.00469228 0)
(0.680209 0.00419944 0)
(0.658252 0.00379677 0)
(0.638289 0.00346286 0)
(0.620043 0.00318272 0)
(0.603282 0.00294545 0)
(0.587812 0.00274293 0)
(0.573468 0.00256897 0)
(0.560112 0.00241881 0)
(0.547625 0.00228873 0)
(0.535904 0.0021758 0)
(0.52486 0.00207769 0)
(0.514415 0.00199255 0)
(0.504501 0.00191887 0)
(0.495058 0.00185545 0)
(0.486031 0.00180129 0)
(0.477372 0.0017556 0)
(0.469037 0.00171775 0)
(0.460985 0.00168721 0)
(0.45318 0.00166357 0)
(0.445587 0.00164646 0)
(0.438174 0.00163564 0)
(0.430912 0.0016308 0)
(0.423771 0.00163185 0)
(0.416728 0.00163831 0)
(0.409755 0.00165045 0)
(0.402831 0.00166707 0)
(0.395932 0.00168942 0)
(0.389036 0.00171427 0)
(0.382138 0.00174569 0)
(0.375187 0.00177501 0)
(0.368251 0.00181401 0)
(0.361151 0.00184035 0)
(0.354221 0.00188534 0)
(0.346824 0.00189498 0)
(0.340142 0.00194052 0)
(0.332115 0.00192504 0)
(0.326333 0.00187761 0)
(0.317113 0.00205227 0)
(0.312562 0.000268012 0)
(1.00933 0.0429204 0)
(1.05526 0.0372818 0)
(1.05863 0.0253288 0)
(1.03623 0.0198052 0)
(1.00682 0.0158692 0)
(0.975583 0.0130046 0)
(0.943819 0.0110396 0)
(0.912666 0.00956863 0)
(0.882977 0.0083894 0)
(0.855136 0.00743281 0)
(0.829224 0.00665412 0)
(0.80518 0.00601333 0)
(0.782881 0.00547918 0)
(0.762186 0.00502904 0)
(0.742947 0.00464632 0)
(0.725022 0.00431854 0)
(0.708281 0.00403609 0)
(0.692602 0.00379148 0)
(0.677877 0.0035788 0)
(0.664009 0.00339336 0)
(0.650908 0.00323143 0)
(0.638498 0.00308998 0)
(0.626706 0.00296656 0)
(0.61547 0.00285921 0)
(0.604731 0.00276629 0)
(0.594436 0.00268651 0)
(0.584538 0.0026188 0)
(0.574993 0.00256228 0)
(0.565758 0.00251626 0)
(0.556795 0.00248018 0)
(0.54807 0.00245358 0)
(0.539548 0.00243611 0)
(0.531198 0.00242741 0)
(0.522987 0.00242735 0)
(0.51489 0.00243537 0)
(0.506876 0.00245179 0)
(0.498922 0.00247516 0)
(0.491 0.00250712 0)
(0.483087 0.00254346 0)
(0.475171 0.0025897 0)
(0.467201 0.00263413 0)
(0.459235 0.0026932 0)
(0.451106 0.00273558 0)
(0.44311 0.00280616 0)
(0.434669 0.00282746 0)
(0.42684 0.00290309 0)
(0.4178 0.00288928 0)
(0.41065 0.00286074 0)
(0.400637 0.00300893 0)
(0.394261 0.00150147 0)
(1.00625 0.0400395 0)
(1.05205 0.036356 0)
(1.06604 0.0252617 0)
(1.05949 0.0206116 0)
(1.04666 0.0173061 0)
(1.03043 0.0147384 0)
(1.01134 0.0129171 0)
(0.990415 0.0115072 0)
(0.96871 0.0103257 0)
(0.946958 0.00932531 0)
(0.925603 0.00848053 0)
(0.904909 0.00776363 0)
(0.885022 0.00715037 0)
(0.866011 0.00662212 0)
(0.847895 0.0061646 0)
(0.830662 0.00576652 0)
(0.814276 0.00541883 0)
(0.798695 0.00511418 0)
(0.783868 0.0048466 0)
(0.769743 0.0046112 0)
(0.756267 0.00440399 0)
(0.74339 0.00422169 0)
(0.731061 0.00406159 0)
(0.719235 0.00392148 0)
(0.707866 0.00379952 0)
(0.696912 0.00369421 0)
(0.686334 0.00360434 0)
(0.676093 0.00352889 0)
(0.666153 0.00346707 0)
(0.65648 0.00341822 0)
(0.647042 0.00338185 0)
(0.637804 0.00335755 0)
(0.62874 0.00334494 0)
(0.619816 0.00334389 0)
(0.611008 0.0033538 0)
(0.602284 0.00337509 0)
(0.593622 0.00340608 0)
(0.584992 0.00344879 0)
(0.576371 0.00349823 0)
(0.567742 0.00356114 0)
(0.559061 0.00362328 0)
(0.550366 0.00370492 0)
(0.541518 0.00376752 0)
(0.532755 0.00386622 0)
(0.5236 0.00390669 0)
(0.514904 0.00401228 0)
(0.50522 0.00401487 0)
(0.496947 0.00400028 0)
(0.486543 0.00414648 0)
(0.478608 0.00288709 0)
(1.00495 0.0373621 0)
(1.04726 0.0352755 0)
(1.06393 0.0247247 0)
(1.06416 0.0206429 0)
(1.0605 0.0178516 0)
(1.05446 0.0155921 0)
(1.04555 0.0139892 0)
(1.03417 0.0127481 0)
(1.02102 0.0116818 0)
(1.0067 0.010749 0)
(0.991672 0.0099365 0)
(0.976285 0.00922696 0)
(0.960805 0.0086038 0)
(0.945425 0.00805411 0)
(0.930281 0.00756783 0)
(0.915463 0.00713678 0)
(0.901029 0.00675405 0)
(0.887013 0.00641385 0)
(0.873429 0.00611124 0)
(0.860278 0.00584205 0)
(0.847553 0.00560276 0)
(0.83524 0.00539039 0)
(0.823321 0.00520245 0)
(0.811774 0.00503685 0)
(0.800576 0.00489184 0)
(0.789704 0.00476598 0)
(0.779131 0.00465807 0)
(0.768832 0.00456714 0)
(0.758782 0.00449244 0)
(0.748954 0.00443333 0)
(0.739324 0.00438934 0)
(0.729864 0.00436012 0)
(0.720552 0.00434532 0)
(0.711359 0.00434489 0)
(0.702263 0.00435825 0)
(0.693237 0.00438593 0)
(0.684259 0.00442617 0)
(0.675301 0.00448127 0)
(0.666343 0.00454573 0)
(0.657364 0.00462718 0)
(0.64833 0.00470964 0)
(0.63926 0.00481588 0)
(0.630047 0.00490282 0)
(0.620864 0.00503102 0)
(0.611352 0.00509822 0)
(0.602139 0.00523228 0)
(0.592167 0.00526502 0)
(0.583146 0.00526249 0)
(0.572645 0.00542092 0)
(0.563674 0.00439744 0)
(1.0044 0.0348147 0)
(1.04322 0.034204 0)
(1.05989 0.0240864 0)
(1.06219 0.0203534 0)
(1.06234 0.0179217 0)
(1.06155 0.0158819 0)
(1.05887 0.0144553 0)
(1.05417 0.0133829 0)
(1.04777 0.0124628 0)
(1.03997 0.0116463 0)
(1.03105 0.0109229 0)
(1.02127 0.010279 0)
(1.01084 0.00970218 0)
(0.999965 0.00918295 0)
(0.988807 0.00871463 0)
(0.977495 0.00829191 0)
(0.96613 0.00791032 0)
(0.954792 0.00756599 0)
(0.943539 0.00725555 0)
(0.932413 0.00697606 0)
(0.921445 0.00672496 0)
(0.910654 0.00650004 0)
(0.90005 0.00629938 0)
(0.88964 0.00612137 0)
(0.879423 0.00596463 0)
(0.869395 0.00582803 0)
(0.859547 0.00571063 0)
(0.84987 0.00561167 0)
(0.840351 0.00553059 0)
(0.830977 0.00546691 0)
(0.821732 0.00542033 0)
(0.812598 0.00539064 0)
(0.80356 0.00537763 0)
(0.794596 0.00538137 0)
(0.785691 0.00540141 0)
(0.776822 0.00543842 0)
(0.767971 0.00549069 0)
(0.759115 0.00556073 0)
(0.750238 0.00564285 0)
(0.741317 0.00574516 0)
(0.732328 0.00585085 0)
(0.723275 0.0059837 0)
(0.714085 0.00609898 0)
(0.70487 0.00625781 0)
(0.695379 0.00635841 0)
(0.686044 0.00652016 0)
(0.676143 0.006593 0)
(0.666815 0.00660625 0)
(0.656492 0.00678227 0)
(0.64704 0.00598238 0)
(1.00402 0.0323752 0)
(1.03989 0.0331556 0)
(1.05612 0.0234661 0)
(1.05883 0.0199693 0)
(1.06007 0.0177969 0)
(1.06134 0.0158935 0)
(1.06161 0.0145701 0)
(1.0606 0.0136151 0)
(1.05839 0.012814 0)
(1.05509 0.0121069 0)
(1.05078 0.0114806 0)
(1.04558 0.0109212 0)
(1.0396 0.010416 0)
(1.03296 0.00995624 0)
(1.02579 0.00953638 0)
(1.01819 0.00915243 0)
(1.01026 0.00880131 0)
(1.00207 0.00848054 0)
(0.993701 0.00818798 0)
(0.985206 0.00792182 0)
(0.976633 0.00768045 0)
(0.968018 0.00746249 0)
(0.959392 0.00726674 0)
(0.950776 0.00709219 0)
(0.942188 0.00693799 0)
(0.933638 0.00680345 0)
(0.925134 0.00668804 0)
(0.91668 0.00659133 0)
(0.908276 0.00651309 0)
(0.899918 0.00645311 0)
(0.891602 0.00641135 0)
(0.883321 0.00638782 0)
(0.875065 0.00638256 0)
(0.866823 0.00639584 0)
(0.858586 0.00642739 0)
(0.850335 0.00647809 0)
(0.842062 0.00654636 0)
(0.833746 0.00663492 0)
(0.825376 0.00673812 0)
(0.816932 0.00686423 0)
(0.808398 0.00699641 0)
(0.799771 0.00715819 0)
(0.791 0.00730562 0)
(0.782156 0.00749649 0)
(0.773069 0.00763592 0)
(0.764024 0.00782605 0)
(0.754551 0.00794511 0)
(0.745372 0.00798161 0)
(0.735524 0.008177 0)
(0.726107 0.00758303 0)
(1.00364 0.0300355 0)
(1.0369 0.0321098 0)
(1.05277 0.0228793 0)
(1.05559 0.0195682 0)
(1.05697 0.0176103 0)
(1.0588 0.0158001 0)
(1.06015 0.0145257 0)
(1.06074 0.0136356 0)
(1.06062 0.0129103 0)
(1.05982 0.0122802 0)
(1.05833 0.0117294 0)
(1.05618 0.0112427 0)
(1.05338 0.0108059 0)
(1.04998 0.0104091 0)
(1.04603 0.0100462 0)
(1.04161 0.009713 0)
(1.03675 0.0094067 0)
(1.03153 0.00912521 0)
(1.02599 0.00886693 0)
(1.02018 0.00863059 0)
(1.01414 0.0084152 0)
(1.00792 0.00821992 0)
(1.00154 0.00804411 0)
(0.995036 0.00788723 0)
(0.988423 0.00774891 0)
(0.981723 0.00762887 0)
(0.974952 0.00752699 0)
(0.96812 0.00744322 0)
(0.961237 0.00737763 0)
(0.954306 0.00733037 0)
(0.947331 0.00730169 0)
(0.940312 0.00729188 0)
(0.933248 0.00730124 0)
(0.926133 0.00733029 0)
(0.918962 0.00737902 0)
(0.911727 0.00744852 0)
(0.904422 0.00753745 0)
(0.897033 0.00764867 0)
(0.889553 0.00777678 0)
(0.881966 0.00792999 0)
(0.874262 0.00809202 0)
(0.866435 0.00828522 0)
(0.858452 0.00846824 0)
(0.850354 0.00869281 0)
(0.842033 0.0088751 0)
(0.833666 0.00909554 0)
(0.824963 0.00926397 0)
(0.816355 0.00933253 0)
(0.807283 0.00954836 0)
(0.798363 0.0091386 0)
(1.00327 0.0277963 0)
(1.03408 0.0310529 0)
(1.04966 0.022319 0)
(1.05263 0.0191652 0)
(1.05397 0.017405 0)
(1.05585 0.0156776 0)
(1.05748 0.0144265 0)
(1.0586 0.013568 0)
(1.05929 0.012885 0)
(1.05962 0.0123003 0)
(1.05955 0.0117969 0)
(1.05907 0.0113597 0)
(1.05815 0.0109734 0)
(1.05681 0.0106267 0)
(1.05505 0.0103126 0)
(1.05288 0.0100261 0)
(1.05034 0.00976405 0)
(1.04745 0.00952404 0)
(1.04422 0.00930438 0)
(1.0407 0.00910387 0)
(1.03691 0.00892164 0)
(1.03287 0.00875706 0)
(1.02862 0.00860968 0)
(1.02416 0.00847925 0)
(1.01952 0.00836563 0)
(1.01472 0.00826884 0)
(1.00977 0.00818903 0)
(1.00469 0.00812641 0)
(0.99948 0.00808136 0)
(0.994158 0.00805429 0)
(0.988726 0.0080457 0)
(0.983188 0.00805617 0)
(0.977547 0.00808624 0)
(0.971802 0.00813669 0)
(0.965952 0.00820775 0)
(0.959994 0.00830073 0)
(0.953924 0.00841455 0)
(0.947735 0.00855221 0)
(0.941422 0.00870865 0)
(0.934974 0.00889187 0)
(0.928385 0.00908657 0)
(0.921649 0.00931325 0)
(0.914743 0.00953441 0)
(0.907694 0.00979411 0)
(0.900431 0.0100217 0)
(0.89306 0.0102748 0)
(0.885412 0.0104935 0)
(0.877725 0.0106023 0)
(0.869698 0.0108399 0)
(0.861653 0.0105906 0)
(1.00292 0.0256612 0)
(1.03136 0.0299804 0)
(1.04666 0.0217809 0)
(1.04984 0.0187603 0)
(1.05116 0.0171878 0)
(1.053 0.0155482 0)
(1.05466 0.0143137 0)
(1.05589 0.013472 0)
(1.05683 0.0128135 0)
(1.05755 0.0122543 0)
(1.05806 0.0117773 0)
(1.05832 0.011369 0)
(1.05834 0.0110139 0)
(1.05809 0.0107003 0)
(1.05757 0.0104203 0)
(1.05677 0.0101686 0)
(1.0557 0.00994124 0)
(1.05436 0.00973559 0)
(1.05276 0.00954962 0)
(1.05091 0.0093819 0)
(1.04881 0.00923143 0)
(1.04648 0.00909751 0)
(1.04393 0.00897969 0)
(1.04118 0.00887773 0)
(1.03823 0.00879157 0)
(1.0351 0.0087213 0)
(1.03179 0.00866721 0)
(1.02832 0.00862965 0)
(1.0247 0.00860916 0)
(1.02092 0.00860632 0)
(1.01701 0.00862183 0)
(1.01295 0.00865646 0)
(1.00876 0.00871096 0)
(1.00443 0.00878631 0)
(0.999967 0.00888293 0)
(0.99537 0.00900234 0)
(0.990637 0.00914368 0)
(0.985762 0.00931007 0)
(0.980744 0.00949685 0)
(0.975575 0.00971165 0)
(0.970249 0.00994046 0)
(0.964765 0.0102015 0)
(0.959105 0.0104618 0)
(0.953285 0.0107571 0)
(0.947262 0.0110305 0)
(0.941093 0.011318 0)
(0.934689 0.0115856 0)
(0.928163 0.0117408 0)
(0.92137 0.0120013 0)
(0.914465 0.0118884 0)
(1.0026 0.0236328 0)
(1.02878 0.0288909 0)
(1.04374 0.0212638 0)
(1.04715 0.0183534 0)
(1.04847 0.0169572 0)
(1.05028 0.0154145 0)
(1.05193 0.0141985 0)
(1.05317 0.013369 0)
(1.05415 0.012728 0)
(1.05496 0.0121853 0)
(1.05564 0.0117237 0)
(1.05618 0.0113316 0)
(1.05657 0.0109943 0)
(1.05681 0.0107001 0)
(1.05688 0.0104411 0)
(1.05678 0.0102115 0)
(1.05651 0.0100075 0)
(1.05607 0.00982591 0)
(1.05544 0.00966458 0)
(1.05462 0.00952188 0)
(1.05363 0.00939664 0)
(1.05246 0.00928803 0)
(1.05111 0.00919547 0)
(1.04959 0.00911865 0)
(1.0479 0.00905746 0)
(1.04605 0.00901198 0)
(1.04403 0.00898248 0)
(1.04186 0.00896936 0)
(1.03954 0.00897322 0)
(1.03707 0.00899471 0)
(1.03445 0.00903465 0)
(1.03169 0.00909392 0)
(1.02878 0.00917337 0)
(1.02574 0.00927415 0)
(1.02256 0.00939682 0)
(1.01924 0.00954305 0)
(1.01577 0.00971214 0)
(1.01216 0.00990728 0)
(1.00841 0.0101242 0)
(1.0045 0.0103701 0)
(1.00043 0.0106324 0)
(0.996213 0.0109268 0)
(0.991822 0.0112252 0)
(0.98727 0.0115549 0)
(0.982533 0.0118721 0)
(0.977634 0.0121943 0)
(0.972534 0.0125076 0)
(0.967273 0.0127121 0)
(0.96179 0.0129962 0)
(0.956154 0.0129963 0)
(1.0023 0.0217128 0)
(1.02632 0.0277854 0)
(1.04091 0.0207662 0)
(1.04454 0.0179461 0)
(1.04589 0.0167121 0)
(1.04766 0.0152749 0)
(1.04931 0.0140822 0)
(1.05055 0.013264 0)
(1.05151 0.0126389 0)
(1.05233 0.0121101 0)
(1.05305 0.0116595 0)
(1.05365 0.0112777 0)
(1.05416 0.0109511 0)
(1.05457 0.0106685 0)
(1.05487 0.0104218 0)
(1.05507 0.0102055 0)
(1.05517 0.0100157 0)
(1.05515 0.00984924 0)
(1.05502 0.00970392 0)
(1.05478 0.00957803 0)
(1.05441 0.00947033 0)
(1.05392 0.00937989 0)
(1.0533 0.00930608 0)
(1.05256 0.0092485 0)
(1.05169 0.00920697 0)
(1.05069 0.00918152 0)
(1.04957 0.00917237 0)
(1.04832 0.00917993 0)
(1.04694 0.00920476 0)
(1.04543 0.00924758 0)
(1.0438 0.00930921 0)
(1.04205 0.00939061 0)
(1.04016 0.00949268 0)
(1.03816 0.00961668 0)
(1.03602 0.00976321 0)
(1.03376 0.00993407 0)
(1.03136 0.0101287 0)
(1.02884 0.0103502 0)
(1.02618 0.0105949 0)
(1.02338 0.0108692 0)
(1.02044 0.0111622 0)
(1.01736 0.0114868 0)
(1.01413 0.01182 0)
(1.01075 0.012181 0)
(1.00721 0.0125378 0)
(1.00352 0.012893 0)
(0.999652 0.0132467 0)
(0.995621 0.0134998 0)
(0.9914 0.0138069 0)
(0.98702 0.0138979 0)
(1.00203 0.0199021 0)
(1.024 0.0266668 0)
(1.03817 0.0202848 0)
(1.04202 0.0175401 0)
(1.04339 0.0164524 0)
(1.04513 0.0151281 0)
(1.04678 0.0139642 0)
(1.04802 0.0131573 0)
(1.04897 0.0125481 0)
(1.04978 0.0120332 0)
(1.05048 0.0115926 0)
(1.05109 0.0112192 0)
(1.05162 0.0109006 0)
(1.05207 0.0106259 0)
(1.05244 0.0103872 0)
(1.05274 0.0101793 0)
(1.05298 0.00999826 0)
(1.05314 0.00984114 0)
(1.05322 0.00970577 0)
(1.05324 0.0095905 0)
(1.05317 0.0094941 0)
(1.05303 0.00941567 0)
(1.0528 0.00935455 0)
(1.05249 0.00931032 0)
(1.05209 0.00928277 0)
(1.05159 0.0092719 0)
(1.05101 0.00927791 0)
(1.05033 0.00930117 0)
(1.04956 0.00934226 0)
(1.04869 0.00940188 0)
(1.04773 0.00948086 0)
(1.04666 0.0095802 0)
(1.0455 0.00970083 0)
(1.04423 0.00984404 0)
(1.04286 0.0100105 0)
(1.04138 0.010202 0)
(1.0398 0.0104182 0)
(1.03811 0.0106621 0)
(1.03631 0.0109303 0)
(1.03439 0.0112287 0)
(1.03236 0.0115479 0)
(1.03021 0.011898 0)
(1.02793 0.0122609 0)
(1.02553 0.0126486 0)
(1.023 0.0130389 0)
(1.02033 0.0134235 0)
(1.01753 0.0138109 0)
(1.01458 0.0141087 0)
(1.01146 0.014437 0)
(1.00821 0.0145987 0)
(1.00179 0.0182009 0)
(1.02182 0.0255391 0)
(1.03554 0.0198159 0)
(1.03958 0.0171375 0)
(1.04099 0.0161789 0)
(1.04269 0.0149733 0)
(1.04434 0.0138439 0)
(1.04558 0.0130488 0)
(1.04652 0.0124555 0)
(1.04732 0.0119551 0)
(1.04801 0.0115249 0)
(1.04861 0.0111596 0)
(1.04912 0.0108483 0)
(1.04957 0.0105803 0)
(1.04995 0.0103481 0)
(1.05028 0.0101464 0)
(1.05055 0.00997159 0)
(1.05076 0.00982082 0)
(1.05092 0.00969204 0)
(1.05104 0.00958371 0)
(1.05109 0.00949468 0)
(1.0511 0.0094241 0)
(1.05104 0.00937137 0)
(1.05093 0.00933607 0)
(1.05076 0.00931802 0)
(1.05053 0.00931722 0)
(1.05024 0.00933387 0)
(1.04988 0.00936833 0)
(1.04945 0.00942118 0)
(1.04895 0.00949313 0)
(1.04838 0.00958502 0)
(1.04774 0.00969788 0)
(1.04702 0.00983264 0)
(1.04623 0.00999063 0)
(1.04536 0.0101725 0)
(1.04441 0.0103802 0)
(1.04338 0.0106133 0)
(1.04226 0.0108748 0)
(1.04106 0.0111617 0)
(1.03978 0.011479 0)
(1.0384 0.011819 0)
(1.03693 0.0121894 0)
(1.03537 0.0125759 0)
(1.0337 0.0129849 0)
(1.03195 0.0134017 0)
(1.03008 0.013811 0)
(1.0281 0.0142248 0)
(1.02601 0.0145613 0)
(1.02378 0.0149079 0)
(1.02143 0.0151226 0)
(1.00157 0.0166089 0)
(1.01977 0.0244063 0)
(1.033 0.0193554 0)
(1.03723 0.0167398 0)
(1.03867 0.0158928 0)
(1.04034 0.0148096 0)
(1.04199 0.013721 0)
(1.04323 0.0129384 0)
(1.04416 0.012361 0)
(1.04494 0.0118757 0)
(1.04562 0.0114566 0)
(1.04621 0.0110996 0)
(1.04671 0.0107956 0)
(1.04715 0.0105343 0)
(1.04752 0.0103081 0)
(1.04784 0.010112 0)
(1.04811 0.00994247 0)
(1.04833 0.00979686 0)
(1.04851 0.0096732 0)
(1.04865 0.00957007 0)
(1.04875 0.00948642 0)
(1.0488 0.00942146 0)
(1.04881 0.00937465 0)
(1.04878 0.00934564 0)
(1.04871 0.00933426 0)
(1.04859 0.00934053 0)
(1.04843 0.00936467 0)
(1.04822 0.00940708 0)
(1.04796 0.00946832 0)
(1.04765 0.00954915 0)
(1.04729 0.00965039 0)
(1.04688 0.00977311 0)
(1.04641 0.00991825 0)
(1.04589 0.0100872 0)
(1.04531 0.0102806 0)
(1.04467 0.0105003 0)
(1.04398 0.0107461 0)
(1.04322 0.0110206 0)
(1.0424 0.0113216 0)
(1.04151 0.0116531 0)
(1.04057 0.0120089 0)
(1.03955 0.0123943 0)
(1.03847 0.0127987 0)
(1.03731 0.0132237 0)
(1.03608 0.0136603 0)
(1.03478 0.0140892 0)
(1.03339 0.0145226 0)
(1.03192 0.0148907 0)
(1.03034 0.0152526 0)
(1.02866 0.0155059 0)
(1.00137 0.0151252 0)
(1.01786 0.0232722 0)
(1.03057 0.0188995 0)
(1.03497 0.0163486 0)
(1.03646 0.0155957 0)
(1.03809 0.0146366 0)
(1.03972 0.0135953 0)
(1.04096 0.0128261 0)
(1.0419 0.0122645 0)
(1.04267 0.011795 0)
(1.04333 0.0113874 0)
(1.0439 0.0110392 0)
(1.0444 0.0107428 0)
(1.04482 0.0104882 0)
(1.04518 0.0102681 0)
(1.04549 0.0100776 0)
(1.04575 0.00991319 0)
(1.04597 0.00977242 0)
(1.04614 0.00965342 0)
(1.04628 0.00955487 0)
(1.04638 0.00947579 0)
(1.04644 0.00941549 0)
(1.04647 0.00937347 0)
(1.04646 0.00934945 0)
(1.04642 0.00934327 0)
(1.04634 0.00935501 0)
(1.04623 0.00938488 0)
(1.04608 0.00943332 0)
(1.04589 0.00950089 0)
(1.04566 0.00958838 0)
(1.0454 0.00969663 0)
(1.04509 0.00982673 0)
(1.04475 0.00997962 0)
(1.04436 0.0101567 0)
(1.04393 0.0103586 0)
(1.04346 0.0105873 0)
(1.04295 0.0108425 0)
(1.04239 0.0111268 0)
(1.04178 0.0114382 0)
(1.04113 0.01178 0)
(1.04043 0.0121474 0)
(1.03968 0.0125436 0)
(1.03889 0.012961 0)
(1.03805 0.0133979 0)
(1.03716 0.0138486 0)
(1.03621 0.0142926 0)
(1.0352 0.01474 0)
(1.03412 0.0151333 0)
(1.03297 0.0155077 0)
(1.03173 0.0157889 0)
(1.00119 0.0137481 0)
(1.01609 0.0221411 0)
(1.02825 0.0184443 0)
(1.03279 0.0159651 0)
(1.03433 0.0152892 0)
(1.03592 0.0144536 0)
(1.03754 0.0134661 0)
(1.03879 0.012712 0)
(1.03972 0.0121658 0)
(1.04048 0.0117126 0)
(1.04113 0.0113174 0)
(1.04169 0.0109784 0)
(1.04218 0.0106897 0)
(1.04259 0.0104422 0)
(1.04294 0.0102284 0)
(1.04323 0.0100435 0)
(1.04348 0.00988436 0)
(1.04369 0.00974845 0)
(1.04385 0.00963406 0)
(1.04398 0.00953996 0)
(1.04407 0.00946526 0)
(1.04413 0.00940933 0)
(1.04416 0.00937173 0)
(1.04415 0.00935219 0)
(1.04411 0.00935064 0)
(1.04404 0.00936713 0)
(1.04394 0.00940192 0)
(1.04381 0.00945545 0)
(1.04364 0.00952832 0)
(1.04344 0.00962131 0)
(1.04321 0.0097353 0)
(1.04295 0.00987137 0)
(1.04266 0.0100305 0)
(1.04233 0.010214 0)
(1.04197 0.0104228 0)
(1.04157 0.0106584 0)
(1.04114 0.010921 0)
(1.04068 0.0112126 0)
(1.04018 0.011532 0)
(1.03964 0.0118815 0)
(1.03908 0.0122576 0)
(1.03848 0.0126618 0)
(1.03784 0.0130886 0)
(1.03717 0.0135342 0)
(1.03646 0.0139949 0)
(1.03572 0.0144507 0)
(1.03493 0.0149083 0)
(1.03409 0.0153213 0)
(1.03318 0.0157068 0)
(1.03221 0.0160088 0)
(1.00104 0.0124755 0)
(1.01445 0.0210171 0)
(1.02604 0.0179866 0)
(1.0307 0.01559 0)
(1.0323 0.0149752 0)
(1.03385 0.0142603 0)
(1.03545 0.0133331 0)
(1.0367 0.0125962 0)
(1.03763 0.012065 0)
(1.03838 0.0116286 0)
(1.03902 0.0112464 0)
(1.03958 0.010917 0)
(1.04005 0.0106365 0)
(1.04045 0.0103961 0)
(1.04079 0.0101888 0)
(1.04107 0.0100099 0)
(1.04131 0.00985607 0)
(1.0415 0.00972515 0)
(1.04166 0.00961547 0)
(1.04178 0.0095259 0)
(1.04186 0.00945561 0)
(1.04191 0.00940403 0)
(1.04193 0.0093708 0)
(1.04191 0.00935567 0)
(1.04187 0.00935858 0)
(1.04179 0.00937962 0)
(1.04169 0.00941906 0)
(1.04156 0.00947735 0)
(1.04139 0.0095551 0)
(1.0412 0.00965312 0)
(1.04098 0.00977227 0)
(1.04073 0.00991366 0)
(1.04045 0.0100783 0)
(1.04014 0.0102675 0)
(1.0398 0.010482 0)
(1.03943 0.0107236 0)
(1.03904 0.0109924 0)
(1.03861 0.0112902 0)
(1.03816 0.0116161 0)
(1.03768 0.0119719 0)
(1.03717 0.0123548 0)
(1.03664 0.0127653 0)
(1.03608 0.0131994 0)
(1.03549 0.0136518 0)
(1.03488 0.0141201 0)
(1.03423 0.0145855 0)
(1.03355 0.0150512 0)
(1.03283 0.0154802 0)
(1.03205 0.0158762 0)
(1.03121 0.0161954 0)
(1.0009 0.0113043 0)
(1.01294 0.0199048 0)
(1.02394 0.0175232 0)
(1.0287 0.0152239 0)
(1.03037 0.0146558 0)
(1.03187 0.0140563 0)
(1.03345 0.0131957 0)
(1.03471 0.0124785 0)
(1.03563 0.0119622 0)
(1.03638 0.0115427 0)
(1.03701 0.0111743 0)
(1.03755 0.0108551 0)
(1.03801 0.0105828 0)
(1.0384 0.01035 0)
(1.03873 0.0101494 0)
(1.03901 0.00997656 0)
(1.03923 0.00982831 0)
(1.03942 0.00970253 0)
(1.03956 0.0095977 0)
(1.03967 0.00951277 0)
(1.03974 0.00944701 0)
(1.03978 0.00939989 0)
(1.03979 0.0093711 0)
(1.03977 0.00936043 0)
(1.03972 0.00936785 0)
(1.03964 0.00939345 0)
(1.03953 0.00943753 0)
(1.03939 0.00950053 0)
(1.03922 0.00958309 0)
(1.03902 0.009686 0)
(1.0388 0.00981016 0)
(1.03855 0.00995667 0)
(1.03827 0.0101265 0)
(1.03796 0.010321 0)
(1.03763 0.0105411 0)
(1.03727 0.0107882 0)
(1.03688 0.0110626 0)
(1.03647 0.011366 0)
(1.03603 0.0116978 0)
(1.03557 0.0120591 0)
(1.03509 0.012448 0)
(1.03458 0.0128641 0)
(1.03405 0.0133043 0)
(1.03349 0.0137628 0)
(1.03292 0.0142374 0)
(1.03231 0.0147112 0)
(1.03168 0.0151844 0)
(1.031 0.0156273 0)
(1.03027 0.0160345 0)
(1.02948 0.0163702 0)
(1.00078 0.0102312 0)
(1.01156 0.0188084 0)
(1.02195 0.0170514 0)
(1.02678 0.0148667 0)
(1.02852 0.0143332 0)
(1.02999 0.0138418 0)
(1.03154 0.0130531 0)
(1.0328 0.012359 0)
(1.03373 0.0118573 0)
(1.03446 0.0114549 0)
(1.03508 0.0111009 0)
(1.03562 0.0107924 0)
(1.03607 0.0105288 0)
(1.03645 0.0103037 0)
(1.03677 0.0101101 0)
(1.03704 0.00994356 0)
(1.03725 0.00980103 0)
(1.03743 0.00968056 0)
(1.03756 0.00958073 0)
(1.03766 0.00950059 0)
(1.03773 0.00943948 0)
(1.03776 0.00939696 0)
(1.03776 0.00937273 0)
(1.03773 0.00936664 0)
(1.03767 0.00937866 0)
(1.03758 0.00940892 0)
(1.03746 0.00945771 0)
(1.03731 0.0095255 0)
(1.03714 0.00961292 0)
(1.03693 0.00972077 0)
(1.03671 0.00984996 0)
(1.03645 0.0100016 0)
(1.03617 0.0101767 0)
(1.03586 0.0103765 0)
(1.03552 0.0106019 0)
(1.03516 0.0108544 0)
(1.03477 0.0111344 0)
(1.03436 0.0114432 0)
(1.03393 0.0117806 0)
(1.03347 0.0121473 0)
(1.03299 0.0125419 0)
(1.03249 0.0129633 0)
(1.03196 0.0134092 0)
(1.03142 0.0138736 0)
(1.03085 0.0143542 0)
(1.03026 0.0148363 0)
(1.02963 0.0153171 0)
(1.02897 0.0157729 0)
(1.02825 0.016193 0)
(1.02746 0.0165461 0)
(1.00067 0.00925197 0)
(1.0103 0.0177325 0)
(1.02008 0.016569 0)
(1.02494 0.0145184 0)
(1.02676 0.0140093 0)
(1.0282 0.0136171 0)
(1.02972 0.0129048 0)
(1.03098 0.0122375 0)
(1.03191 0.0117504 0)
(1.03263 0.011365 0)
(1.03325 0.0110262 0)
(1.03377 0.0107289 0)
(1.03422 0.0104744 0)
(1.03459 0.0102572 0)
(1.0349 0.0100709 0)
(1.03516 0.00991079 0)
(1.03537 0.00977418 0)
(1.03553 0.00965919 0)
(1.03566 0.00956452 0)
(1.03575 0.00948932 0)
(1.03581 0.009433 0)
(1.03583 0.0093952 0)
(1.03582 0.00937567 0)
(1.03578 0.00937428 0)
(1.03571 0.00939104 0)
(1.03562 0.00942608 0)
(1.03549 0.00947971 0)
(1.03534 0.00955239 0)
(1.03516 0.00964478 0)
(1.03495 0.00975767 0)
(1.03471 0.00989199 0)
(1.03445 0.0100488 0)
(1.03416 0.0102292 0)
(1.03385 0.0104344 0)
(1.03351 0.0106653 0)
(1.03314 0.0109232 0)
(1.03275 0.0112088 0)
(1.03234 0.0115232 0)
(1.0319 0.0118662 0)
(1.03144 0.0122383 0)
(1.03096 0.0126385 0)
(1.03046 0.0130654 0)
(1.02993 0.013517 0)
(1.02938 0.0139875 0)
(1.02882 0.0144743 0)
(1.02822 0.0149648 0)
(1.02759 0.0154541 0)
(1.02692 0.015923 0)
(1.02619 0.0163577 0)
(1.02538 0.0167308 0)
(1.00058 0.00836207 0)
(1.00915 0.0166814 0)
(1.01833 0.0160743 0)
(1.0232 0.0141782 0)
(1.02509 0.0136861 0)
(1.0265 0.0133826 0)
(1.02798 0.0127502 0)
(1.02924 0.0121138 0)
(1.03017 0.0116416 0)
(1.0309 0.011273 0)
(1.0315 0.0109499 0)
(1.03202 0.0106645 0)
(1.03246 0.0104194 0)
(1.03282 0.0102105 0)
(1.03312 0.0100316 0)
(1.03337 0.00987821 0)
(1.03357 0.00974771 0)
(1.03373 0.00963837 0)
(1.03385 0.00954903 0)
(1.03393 0.00947891 0)
(1.03398 0.00942754 0)
(1.034 0.0093946 0)
(1.03398 0.00937991 0)
(1.03394 0.00938336 0)
(1.03386 0.00940498 0)
(1.03376 0.00944493 0)
(1.03362 0.00950351 0)
(1.03346 0.00958122 0)
(1.03328 0.0096787 0)
(1.03306 0.00979676 0)
(1.03282 0.00993632 0)
(1.03255 0.0100985 0)
(1.03226 0.0102843 0)
(1.03194 0.0104949 0)
(1.0316 0.0107314 0)
(1.03123 0.010995 0)
(1.03083 0.0112862 0)
(1.03042 0.0116062 0)
(1.02997 0.011955 0)
(1.02951 0.0123327 0)
(1.02903 0.0127387 0)
(1.02852 0.0131714 0)
(1.02799 0.0136289 0)
(1.02744 0.014106 0)
(1.02686 0.0145995 0)
(1.02626 0.0150988 0)
(1.02562 0.0155977 0)
(1.02493 0.0160803 0)
(1.02419 0.0165318 0)
(1.02336 0.0169279 0)
(1.0005 0.00755644 0)
(1.00812 0.0156593 0)
(1.01668 0.0155663 0)
(1.02153 0.0138452 0)
(1.02351 0.0133654 0)
(1.02489 0.0131392 0)
(1.02634 0.0125888 0)
(1.02759 0.0119876 0)
(1.02852 0.0115309 0)
(1.02924 0.0111789 0)
(1.02984 0.0108719 0)
(1.03035 0.0105991 0)
(1.03078 0.0103637 0)
(1.03114 0.0101633 0)
(1.03144 0.00999214 0)
(1.03168 0.00984574 0)
(1.03187 0.00972156 0)
(1.03202 0.00961805 0)
(1.03213 0.00953419 0)
(1.03221 0.00946932 0)
(1.03225 0.00942305 0)
(1.03226 0.00939512 0)
(1.03224 0.00938539 0)
(1.03218 0.00939382 0)
(1.0321 0.00942044 0)
(1.03199 0.00946543 0)
(1.03185 0.00952911 0)
(1.03169 0.00961197 0)