/*--------------------------------*- C++ -*----------------------------------*\
  =========                 |
  \\      /  F ield         | OpenFOAM: The Open Source CFD Toolbox
   \\    /   O peration     | Website:  https://openfoam.org
    \\  /    A nd           | Version:  7
     \\/     M anipulation  |
\*---------------------------------------------------------------------------*/
FoamFile
{
    version     2.0;
    format      ascii;
    class       volScalarField;
    location    "0.17";
    object      p;
}
// * * * * * * * * * * * * * * * * * * * * * * * * * * * * * * * * * * * * * //

dimensions      [0 2 -2 0 0 0 0];

internalField   nonuniform List<scalar> 
70000
(
0.125423
0.0485345
0.0353908
0.0378467
0.0381134
0.0370744
0.0361247
0.035406
0.0348093
0.0342848
0.0338183
0.033402
0.0330282
0.0326904
0.0323829
0.0321013
0.0318419
0.0316017
0.0313779
0.0311685
0.0309715
0.0307855
0.030609
0.0304408
0.03028
0.0301256
0.0299771
0.0298336
0.0296948
0.0295599
0.0294288
0.029301
0.0291763
0.0290544
0.0289354
0.0288189
0.0287054
0.0285945
0.0284872
0.0283833
0.0282839
0.0281907
0.0281011
0.028028
0.0279484
0.0279199
0.0278401
0.0279318
0.0277872
0.028349
0.121123
0.0488965
0.0355933
0.0379412
0.0381677
0.03711
0.0361525
0.0354289
0.0348285
0.0343011
0.0338325
0.0334145
0.0330394
0.0327004
0.032392
0.0321096
0.0318495
0.0316087
0.0313844
0.0311745
0.0309772
0.0307907
0.0306139
0.0304454
0.0302843
0.0301297
0.0299809
0.0298373
0.0296982
0.0295631
0.0294318
0.0293038
0.029179
0.0290569
0.0289376
0.0288209
0.0287072
0.0285962
0.0284887
0.0283846
0.0282849
0.0281916
0.0281017
0.0280285
0.0279485
0.02792
0.0278398
0.0279304
0.027792
0.028362
0.117518
0.049819
0.0359379
0.0380699
0.0382424
0.037155
0.0361848
0.035455
0.0348502
0.0343195
0.0338483
0.0334284
0.0330517
0.0327114
0.0324019
0.0321187
0.0318578
0.0316163
0.0313915
0.0311811
0.0309833
0.0307965
0.0306192
0.0304504
0.030289
0.0301342
0.0299851
0.0298412
0.0297019
0.0295667
0.0294351
0.0293069
0.0291819
0.0290596
0.0289402
0.0288233
0.0287094
0.0285981
0.0284904
0.0283861
0.0282862
0.0281927
0.0281025
0.0280291
0.0279486
0.02792
0.0278392
0.0279277
0.0278113
0.0283431
0.114413
0.0509182
0.0364145
0.0382426
0.0383437
0.037213
0.036223
0.0354849
0.0348749
0.03434
0.0338658
0.0334435
0.033065
0.0327233
0.0324126
0.0321283
0.0318667
0.0316244
0.031399
0.031188
0.0309898
0.0308025
0.0306249
0.0304558
0.0302941
0.0301389
0.0299896
0.0298455
0.0297059
0.0295705
0.0294387
0.0293103
0.0291851
0.0290626
0.028943
0.0288259
0.0287119
0.0286004
0.0284925
0.028388
0.0282879
0.0281941
0.0281036
0.02803
0.027949
0.0279198
0.0278394
0.0279224
0.0278392
0.0282901
0.111457
0.0520121
0.0369882
0.0384611
0.0384785
0.0372917
0.0362723
0.0355222
0.034905
0.0343648
0.0338865
0.0334612
0.0330804
0.0327369
0.0324248
0.0321393
0.0318767
0.0316336
0.0314074
0.0311958
0.030997
0.0308093
0.0306313
0.0304617
0.0302997
0.0301443
0.0299947
0.0298503
0.0297105
0.0295748
0.0294429
0.0293143
0.0291889
0.0290662
0.0289465
0.0288292
0.028715
0.0286034
0.0284953
0.0283907
0.0282903
0.0281964
0.0281055
0.0280316
0.0279503
0.02792
0.0278409
0.0279149
0.0278681
0.0282152
0.10855
0.0530443
0.0376123
0.0387059
0.038641
0.0373927
0.0363353
0.0355689
0.0349428
0.0343957
0.0339121
0.0334829
0.0330992
0.0327534
0.0324394
0.0321525
0.0318885
0.0316444
0.0314173
0.031205
0.0310056
0.0308173
0.0306387
0.0304688
0.0303064
0.0301506
0.0300007
0.029856
0.029716
0.0295801
0.029448
0.0293192
0.0291936
0.0290709
0.028951
0.0288336
0.0287193
0.0286075
0.0284994
0.0283946
0.0282941
0.0282
0.0281089
0.0280346
0.0279531
0.0279209
0.0278443
0.0279054
0.0278924
0.0281242
0.105684
0.0539977
0.0382535
0.0389557
0.0388179
0.0375111
0.0364109
0.0356251
0.0349885
0.0344333
0.0339434
0.0335095
0.0331221
0.0327735
0.0324572
0.0321684
0.0319029
0.0316575
0.0314294
0.0312161
0.0310159
0.0308269
0.0306478
0.0304773
0.0303144
0.0301583
0.030008
0.0298631
0.0297228
0.0295867
0.0294544
0.0293255
0.0291998
0.0290769
0.0289569
0.0288395
0.0287251
0.0286133
0.0285051
0.0284003
0.0282997
0.0282056
0.0281143
0.0280397
0.0279581
0.0279234
0.0278502
0.0278958
0.0279078
0.0280215
0.10287
0.0548658
0.0388955
0.0391989
0.0389982
0.0376404
0.0364957
0.0356887
0.0350409
0.0344771
0.0339802
0.0335408
0.0331493
0.0327974
0.0324785
0.0321875
0.0319202
0.0316732
0.0314438
0.0312295
0.0310283
0.0308385
0.0306587
0.0304876
0.0303242
0.0301676
0.0300171
0.0298718
0.0297312
0.0295949
0.0294625
0.0293334
0.0292076
0.0290847
0.0289647
0.0288473
0.0287329
0.0286213
0.0285131
0.0284085
0.0283079
0.0282139
0.0281225
0.0280476
0.0279661
0.0279282
0.027859
0.0278867
0.0279117
0.0279119
0.100113
0.055646
0.0395329
0.0394316
0.0391756
0.0377756
0.0365862
0.035757
0.035098
0.0345254
0.0340213
0.0335763
0.0331804
0.0328249
0.0325031
0.0322097
0.0319404
0.0316917
0.0314608
0.0312452
0.031043
0.0308523
0.0306717
0.0305
0.0303361
0.030179
0.030028
0.0298824
0.0297416
0.0296051
0.0294725
0.0293434
0.0292176
0.0290947
0.0289747
0.0288575
0.0287432
0.0286318
0.0285238
0.0284195
0.0283191
0.0282254
0.0281341
0.0280588
0.0279779
0.0279361
0.0278709
0.0278794
0.0279035
0.0278005
0.0974172
0.0563375
0.0401643
0.0396536
0.0393473
0.037914
0.0366804
0.0358279
0.0351579
0.0345768
0.0340655
0.0336147
0.0332143
0.0328553
0.0325305
0.0322346
0.0319631
0.0317127
0.0314802
0.0312633
0.0310599
0.0308683
0.0306869
0.0305144
0.0303499
0.0301923
0.030041
0.029895
0.029754
0.0296174
0.0294847
0.0293555
0.0292297
0.029107
0.0289872
0.0288702
0.0287562
0.0286451
0.0285375
0.0284337
0.0283337
0.0282404
0.0281496
0.0280739
0.0279938
0.0279478
0.0278859
0.0278748
0.0278847
0.0276919
0.0947854
0.0569407
0.0407887
0.0398659
0.0395119
0.0380539
0.0367772
0.0359005
0.0352193
0.0346301
0.0341116
0.0336552
0.0332504
0.0328877
0.0325599
0.0322615
0.0319879
0.0317356
0.0315016
0.0312834
0.0310788
0.0308862
0.0307039
0.0305308
0.0303657
0.0302076
0.0300559
0.0299097
0.0297684
0.0296317
0.0294989
0.0293699
0.0292442
0.0291216
0.0290021
0.0288855
0.028772
0.0286614
0.0285544
0.0284513
0.0283518
0.0282592
0.028169
0.0280931
0.0280141
0.0279638
0.0279039
0.0278736
0.0278587
0.0275898
0.0922207
0.0574561
0.0414044
0.0400698
0.0396684
0.0381946
0.0368762
0.0359742
0.0352816
0.0346844
0.034159
0.033697
0.0332877
0.0329215
0.0325908
0.0322899
0.0320142
0.0317601
0.0315246
0.031305
0.0310993
0.0309057
0.0307226
0.0305488
0.0303831
0.0302246
0.0300725
0.029926
0.0297846
0.0296478
0.0295151
0.0293862
0.0292607
0.0291385
0.0290194
0.0289033
0.0287904
0.0286806
0.0285743
0.028472
0.0283735
0.0282817
0.0281925
0.0281164
0.0280387
0.0279841
0.0279247
0.0278761
0.027829
0.0274984
0.089726
0.0578842
0.0420094
0.0402665
0.0398162
0.0383351
0.0369773
0.0360488
0.0353446
0.0347396
0.0342073
0.0337397
0.033326
0.0329563
0.0326227
0.0323193
0.0320416
0.0317857
0.0315486
0.0313278
0.031121
0.0309264
0.0307425
0.030568
0.0304018
0.0302429
0.0300904
0.0299438
0.0298023
0.0296655
0.029533
0.0294042
0.0292791
0.0291573
0.0290388
0.0289233
0.0288111
0.0287023
0.0285969
0.0284957
0.0283983
0.0283075
0.0282195
0.0281435
0.0280672
0.0280085
0.0279481
0.0278825
0.0277998
0.0274213
0.0873038
0.0582259
0.0426007
0.0404575
0.0399549
0.0384746
0.0370805
0.0361244
0.035408
0.0347955
0.0342564
0.0337831
0.033365
0.0329918
0.0326553
0.0323495
0.0320697
0.0318121
0.0315735
0.0313514
0.0311435
0.030948
0.0307633
0.0305882
0.0304215
0.0302622
0.0301095
0.0299627
0.0298212
0.0296845
0.0295521
0.0294237
0.029299
0.0291777
0.0290598
0.0289452
0.0288339
0.0287261
0.0286218
0.0285219
0.0284258
0.0283362
0.0282497
0.0281738
0.0280989
0.0280367
0.0279737
0.0278929
0.0277746
0.0273614
0.0849565
0.0584828
0.0431754
0.0406445
0.040084
0.0386122
0.0371854
0.036201
0.0354719
0.0348519
0.0343061
0.0338272
0.0334047
0.0330279
0.0326885
0.0323803
0.0320984
0.0318391
0.031599
0.0313756
0.0311666
0.0309702
0.0307849
0.0306091
0.0304419
0.0302823
0.0301294
0.0299825
0.0298411
0.0297045
0.0295723
0.0294443
0.0293201
0.0291994
0.0290823
0.0289685
0.0288582
0.0287516
0.0286486
0.0285501
0.0284554
0.0283672
0.0282823
0.0282068
0.0281332
0.0280681
0.0280013
0.027907
0.0277564
0.0273203
0.0826859
0.0586565
0.0437301
0.0408289
0.0402035
0.0387469
0.0372919
0.0362785
0.0355361
0.0349087
0.0343565
0.0338719
0.0334449
0.0330646
0.0327223
0.0324116
0.0321277
0.0318666
0.0316251
0.0314004
0.0311903
0.0309931
0.0308069
0.0306306
0.030463
0.0303031
0.03015
0.030003
0.0298616
0.0297252
0.0295933
0.0294657
0.029342
0.0292221
0.0291057
0.028993
0.0288838
0.0287784
0.0286768
0.0285798
0.0284868
0.0284
0.0283169
0.028242
0.0281695
0.0281019
0.0280308
0.0279249
0.0277469
0.0272992
0.0804938
0.0587492
0.0442619
0.041012
0.0403134
0.0388777
0.0373997
0.036357
0.0356006
0.034966
0.0344075
0.0339172
0.0334857
0.0331018
0.0327566
0.0324435
0.0321575
0.0318946
0.0316516
0.0314257
0.0312146
0.0310164
0.0308295
0.0306527
0.0304846
0.0303243
0.0301711
0.0300241
0.0298827
0.0297465
0.029615
0.0294878
0.0293647
0.0292455
0.0291301
0.0290183
0.0289103
0.0288062
0.0287061
0.0286107
0.0285194
0.0284342
0.028353
0.0282789
0.0282074
0.0281379
0.0280622
0.0279467
0.0277476
0.0272979
0.0783814
0.0587636
0.0447675
0.0411948
0.0404138
0.0390035
0.0375084
0.0364365
0.0356653
0.0350236
0.0344589
0.033963
0.033527
0.0331395
0.0327914
0.0324758
0.0321878
0.0319231
0.0316786
0.0314514
0.0312392
0.0310402
0.0308526
0.0306751
0.0305066
0.0303461
0.0301927
0.0300456
0.0299044
0.0297684
0.0296372
0.0295105
0.0293881
0.0292696
0.0291551
0.0290444
0.0289376
0.0288349
0.0287363
0.0286426
0.0285531
0.0284696
0.0283902
0.0283171
0.0282466
0.0281756
0.0280956
0.0279726
0.0277587
0.0273157
0.0763493
0.0587028
0.045244
0.0413782
0.0405052
0.0391235
0.0376175
0.0365171
0.0357302
0.0350814
0.0345109
0.0340095
0.0335689
0.0331778
0.0328267
0.0325087
0.0322185
0.0319521
0.0317061
0.0314776
0.0312644
0.0310644
0.0308761
0.0306981
0.0305292
0.0303683
0.0302147
0.0300677
0.0299265
0.0297908
0.02966
0.0295338
0.029412
0.0292943
0.0291807
0.0290712
0.0289656
0.0288644
0.0287674
0.0286753
0.0285877
0.0285058
0.0284284
0.0283564
0.0282868
0.0282149
0.0281311
0.0280027
0.0277804
0.0273517
0.074398
0.0585707
0.0456884
0.0415625
0.040588
0.0392366
0.0377265
0.0365986
0.0357952
0.0351393
0.0345632
0.0340564
0.0336112
0.0332165
0.0328625
0.032542
0.0322498
0.0319816
0.031734
0.0315043
0.03129
0.0310891
0.0309001
0.0307215
0.0305521
0.030391
0.0302373
0.0300902
0.0299491
0.0298136
0.0296832
0.0295576
0.0294364
0.0293196
0.0292069
0.0290985
0.0289943
0.0288945
0.0287991
0.0287087
0.028623
0.0285429
0.0284674
0.0283967
0.028328
0.0282556
0.028169
0.0280373
0.0278125
0.0274044
0.0725274
0.0583714
0.0460979
0.0417479
0.040663
0.0393421
0.0378346
0.036681
0.0358604
0.0351973
0.0346159
0.0341038
0.0336541
0.0332558
0.0328988
0.0325759
0.0322815
0.0320116
0.0317625
0.0315314
0.031316
0.0311143
0.0309245
0.0307454
0.0305756
0.0304142
0.0302603
0.0301132
0.0299723
0.029837
0.029707
0.0295819
0.0294614
0.0293454
0.0292338
0.0291265
0.0290236
0.0289252
0.0288315
0.0287429
0.0286591
0.0285808
0.0285073
0.028438
0.0283703
0.0282979
0.0282095
0.0280767
0.0278546
0.0274724
0.0707369
0.0581093
0.0464698
0.041934
0.0407311
0.0394393
0.0379413
0.0367643
0.0359257
0.0352551
0.0346688
0.0341516
0.0336974
0.0332954
0.0329356
0.0326102
0.0323137
0.032042
0.0317914
0.031559
0.0313426
0.0311399
0.0309494
0.0307697
0.0305995
0.0304378
0.0302838
0.0301366
0.0299959
0.0298609
0.0297313
0.0296067
0.0294869
0.0293718
0.0292611
0.029155
0.0290535
0.0289566
0.0288646
0.0287777
0.0286959
0.0286195
0.0285479
0.0284802
0.0284137
0.0283418
0.0282528
0.0281211
0.0279062
0.0275535
0.0690257
0.0577894
0.0468019
0.0421201
0.0407932
0.0395278
0.0380455
0.0368481
0.0359911
0.0353128
0.0347219
0.0341999
0.0337411
0.0333355
0.0329728
0.0326449
0.0323464
0.0320728
0.0318207
0.0315871
0.0313695
0.031166
0.0309748
0.0307945
0.0306238
0.0304619
0.0303077
0.0301606
0.03002
0.0298852
0.0297561
0.0296321
0.029513
0.0293987
0.0292891
0.0291842
0.029084
0.0289887
0.0288983
0.0288132
0.0287334
0.028659
0.0285894
0.0285234
0.0284583
0.0283874
0.028299
0.0281705
0.0279668
0.0276464
0.0673925
0.057417
0.0470921
0.0423051
0.0408503
0.0396072
0.0381466
0.0369323
0.0360566
0.0353702
0.0347749
0.0342484
0.0337852
0.0333761
0.0330104
0.0326801
0.0323795
0.0321042
0.0318505
0.0316156
0.031397
0.0311925
0.0310006
0.0308197
0.0306487
0.0304864
0.0303321
0.030185
0.0300445
0.0299101
0.0297814
0.0296579
0.0295396
0.0294262
0.0293177
0.029214
0.0291151
0.0290213
0.0289327
0.0288495
0.0287716
0.0286992
0.0286317
0.0285676
0.0285042
0.0284349
0.0283484
0.0282251
0.0280356
0.0277496
0.0658357
0.0569975
0.0473387
0.0424876
0.0409034
0.0396775
0.0382436
0.0370166
0.0361222
0.0354272
0.0348279
0.0342971
0.0338297
0.0334169
0.0330484
0.0327157
0.032413
0.0321359
0.0318808
0.0316446
0.0314249
0.0312196
0.0310269
0.0308455
0.030674
0.0305115
0.0303571
0.03021
0.0300696
0.0299355
0.0298072
0.0296844
0.0295668
0.0294543
0.0293468
0.0292443
0.0291469
0.0290547
0.0289678
0.0288864
0.0288106
0.0287403
0.0286749
0.0286129
0.0285514
0.0284843
0.028401
0.0282847
0.0281117
0.0278621
0.0643534
0.0565365
0.0475405
0.0426656
0.0409535
0.0397387
0.0383356
0.0371005
0.0361879
0.0354838
0.0348806
0.034346
0.0338744
0.0334581
0.0330867
0.0327517
0.032447
0.0321681
0.0319115
0.031674
0.0314532
0.031247
0.0310537
0.0308716
0.0306998
0.030537
0.0303825
0.0302354
0.0300953
0.0299614
0.0298336
0.0297114
0.0295945
0.029483
0.0293765
0.0292753
0.0291793
0.0290887
0.0290035
0.0289241
0.0288503
0.0287821
0.0287189
0.0286592
0.0286001
0.0285358
0.0284568
0.0283492
0.0281946
0.0279815
0.0629432
0.0560397
0.0476967
0.0428371
0.0410015
0.0397911
0.0384218
0.0371835
0.0362537
0.03554
0.034933
0.0343949
0.0339195
0.0334996
0.0331254
0.032788
0.0324813
0.0322008
0.0319426
0.0317039
0.0314821
0.031275
0.0310809
0.0308983
0.0307261
0.030563
0.0304084
0.0302614
0.0301214
0.0299879
0.0298605
0.0297389
0.0296228
0.0295122
0.0294069
0.0293069
0.0292124
0.0291233
0.02904
0.0289625
0.0288908
0.0288248
0.0287639
0.0287067
0.0286502
0.0285894
0.0285158
0.0284183
0.0282834
0.0281068
0.0616028
0.0555129
0.0478071
0.0429994
0.0410482
0.0398351
0.0385015
0.037265
0.0363193
0.0355957
0.0349849
0.0344438
0.0339646
0.0335414
0.0331644
0.0328247
0.0325161
0.0322338
0.0319742
0.0317342
0.0315113
0.0313033
0.0311085
0.0309254
0.0307528
0.0305895
0.0304348
0.0302878
0.030148
0.0300149
0.029888
0.029767
0.0296517
0.029542
0.0294378
0.0293392
0.029246
0.0291587
0.0290771
0.0290016
0.028932
0.0288683
0.0288099
0.0287553
0.0287019
0.0286452
0.0285779
0.0284917
0.0283777
0.0282367
0.0603293
0.0549615
0.0478718
0.0431502
0.041094
0.0398714
0.0385741
0.0373444
0.0363848
0.0356508
0.0350363
0.0344924
0.0340099
0.0335834
0.0332036
0.0328617
0.0325511
0.0322672
0.0320061
0.0317649
0.031541
0.0313322
0.0311367
0.030953
0.03078
0.0306165
0.0304617
0.0303148
0.0301752
0.0300424
0.029916
0.0297957
0.0296812
0.0295725
0.0294694
0.029372
0.0292804
0.0291946
0.0291149
0.0290414
0.028974
0.0289127
0.0288568
0.0288051
0.0287551
0.028703
0.028643
0.028569
0.0284762
0.02837
0.0591201
0.054391
0.0478918
0.0432867
0.0411393
0.0399007
0.0386389
0.037421
0.0364499
0.0357054
0.0350869
0.0345408
0.0340552
0.0336255
0.033243
0.0328989
0.0325865
0.0323009
0.0320384
0.031796
0.0315711
0.0313614
0.0311653
0.0309811
0.0308077
0.030644
0.0304891
0.0303423
0.0302029
0.0300704
0.0299445
0.0298249
0.0297112
0.0296035
0.0295016
0.0294055
0.0293154
0.0292313
0.0291534
0.0290819
0.0290168
0.0289579
0.0289047
0.028856
0.0288098
0.0287629
0.0287109
0.0286497
0.0285783
0.0285055
0.057972
0.0538062
0.0478683
0.0434067
0.0411838
0.0399238
0.0386958
0.0374941
0.0365142
0.0357593
0.0351367
0.0345886
0.0341004
0.0336677
0.0332826
0.0329364
0.0326221
0.032335
0.0320711
0.0318275
0.0316016
0.0313911
0.0311943
0.0310096
0.0308359
0.030672
0.030517
0.0303702
0.0302311
0.030099
0.0299736
0.0298546
0.0297418
0.0296351
0.0295343
0.0294396
0.029351
0.0292686
0.0291926
0.0291232
0.0290603
0.0290039
0.0289535
0.0289081
0.028866
0.0288247
0.0287813
0.0287335
0.0286832
0.028642
0.0568821
0.053212
0.0478031
0.0435079
0.0412271
0.0399415
0.0387445
0.0375629
0.0365776
0.0358126
0.0351856
0.0346359
0.0341454
0.0337099
0.0333223
0.032974
0.032658
0.0323693
0.0321041
0.0318594
0.0316325
0.0314212
0.0312237
0.0310386
0.0308645
0.0307004
0.0305454
0.0303987
0.0302598
0.0301281
0.0300033
0.029885
0.029773
0.0296673
0.0295677
0.0294743
0.0293872
0.0293066
0.0292325
0.0291651
0.0291046
0.0290507
0.0290033
0.0289614
0.0289237
0.0288885
0.028854
0.0288199
0.0287902
0.0287785
0.0558472
0.0526123
0.0476987
0.0435884
0.0412683
0.0399545
0.0387851
0.0376268
0.0366394
0.0358652
0.0352336
0.0346824
0.0341901
0.0337521
0.0333621
0.0330118
0.0326941
0.0324039
0.0321375
0.0318916
0.0316637
0.0314517
0.0312536
0.031068
0.0308936
0.0307293
0.0305742
0.0304277
0.030289
0.0301577
0.0300335
0.0299159
0.0298048
0.0297001
0.0296017
0.0295097
0.0294241
0.0293452
0.029273
0.0292078
0.0291496
0.0290984
0.029054
0.0290157
0.0289827
0.0289539
0.0289286
0.0289081
0.0288984
0.0289139
0.0548644
0.052011
0.0475576
0.0436468
0.0413063
0.0399634
0.0388177
0.0376851
0.0366993
0.0359169
0.0352806
0.034728
0.0342344
0.0337941
0.0334018
0.0330496
0.0327303
0.0324388
0.032171
0.0319241
0.0316953
0.0314825
0.0312838
0.0310978
0.0309231
0.0307586
0.0306036
0.0304572
0.0303188
0.0301879
0.0300642
0.0299473
0.0298371
0.0297334
0.0296362
0.0295456
0.0294616
0.0293844
0.0293142
0.0292511
0.0291953
0.0291468
0.0291055
0.0290711
0.029043
0.0290208
0.0290049
0.0289978
0.029007
0.0290475
0.0539306
0.0514113
0.047383
0.0436818
0.0413398
0.0399687
0.0388427
0.0377373
0.0367567
0.0359676
0.0353265
0.0347726
0.034278
0.0338359
0.0334415
0.0330874
0.0327667
0.0324738
0.0322049
0.0319569
0.0317272
0.0315137
0.0313145
0.031128
0.030953
0.0307884
0.0306334
0.0304871
0.030349
0.0302186
0.0300954
0.0299793
0.02987
0.0297673
0.0296714
0.0295821
0.0294997
0.0294242
0.0293559
0.029295
0.0292417
0.029196
0.0291579
0.0291274
0.0291044
0.029089
0.0290824
0.0290884
0.0291154
0.0291784
0.0530428
0.050816
0.0471781
0.0436926
0.0413673
0.0399707
0.0388605
0.0377829
0.036811
0.036017
0.0353712
0.0348161
0.0343209
0.0338773
0.033481
0.0331252
0.032803
0.0325089
0.0322389
0.0319899
0.0317595
0.0315453
0.0313455
0.0311586
0.0309834
0.0308187
0.0306636
0.0305175
0.0303797
0.0302497
0.0301272
0.0300118
0.0299034
0.0298018
0.0297071
0.0296192
0.0295383
0.0294646
0.0293983
0.0293396
0.0292887
0.0292458
0.0292111
0.0291846
0.0291667
0.0291582
0.0291609
0.0291794
0.0292228
0.0293057
0.0521983
0.0502275
0.0469462
0.043679
0.0413872
0.0399696
0.0388717
0.0378217
0.0368617
0.0360649
0.0354147
0.0348583
0.0343628
0.0339182
0.0335202
0.0331629
0.0328394
0.0325441
0.0322731
0.0320232
0.0317919
0.0315771
0.0313768
0.0311896
0.0310141
0.0308493
0.0306943
0.0305484
0.0304109
0.0302814
0.0301595
0.0300448
0.0299373
0.0298368
0.0297433
0.0296568
0.0295776
0.0295056
0.0294413
0.0293848
0.0293364
0.0292963
0.029265
0.0292426
0.0292299
0.0292281
0.0292398
0.0292702
0.0293285
0.029429
0.0513941
0.0496477
0.0466909
0.0436409
0.0413979
0.0399653
0.0388766
0.0378535
0.0369082
0.0361108
0.0354569
0.0348993
0.0344038
0.0339585
0.0335591
0.0332004
0.0328756
0.0325793
0.0323073
0.0320566
0.0318246
0.0316092
0.0314085
0.0312209
0.0310452
0.0308804
0.0307254
0.0305797
0.0304426
0.0303135
0.0301922
0.0300783
0.0299717
0.0298723
0.0297801
0.029695
0.0296173
0.0295471
0.0294848
0.0294305
0.0293846
0.0293474
0.0293194
0.0293012
0.0292937
0.0292985
0.0293189
0.0293603
0.0294319
0.0295475
0.0506279
0.0490781
0.0464154
0.0435788
0.0413981
0.0399574
0.0388758
0.0378782
0.03695
0.0361546
0.0354976
0.0349388
0.0344435
0.033998
0.0335976
0.0332376
0.0329117
0.0326145
0.0323416
0.0320902
0.0318575
0.0316416
0.0314404
0.0312525
0.0310767
0.0309118
0.030757
0.0306114
0.0304747
0.0303461
0.0302254
0.0301123
0.0300067
0.0299083
0.0298173
0.0297337
0.0296575
0.0295892
0.0295288
0.0294767
0.0294333
0.029399
0.0293744
0.0293602
0.0293578
0.029369
0.0293976
0.029449
0.0295325
0.0296607
0.049897
0.0485199
0.0461229
0.0434936
0.0413864
0.0399454
0.0388697
0.0378961
0.0369866
0.0361956
0.0355367
0.0349768
0.034482
0.0340366
0.0336355
0.0332744
0.0329476
0.0326495
0.0323759
0.0321238
0.0318906
0.0316741
0.0314726
0.0312845
0.0311085
0.0309436
0.0307888
0.0306436
0.0305072
0.0303791
0.0302591
0.0301468
0.0300421
0.0299448
0.029855
0.0297728
0.0296982
0.0296316
0.0295732
0.0295233
0.0294824
0.0294509
0.0294297
0.0294196
0.029422
0.0294394
0.0294755
0.029536
0.0296297
0.0297682
0.0491994
0.0479739
0.0458164
0.0433863
0.0413618
0.0399287
0.0388586
0.0379071
0.0370176
0.0362335
0.0355739
0.0350132
0.034519
0.0340741
0.0336727
0.0333108
0.0329832
0.0326844
0.0324102
0.0321574
0.0319237
0.0317068
0.0315049
0.0313166
0.0311405
0.0309756
0.0308211
0.0306761
0.03054
0.0304125
0.0302932
0.0301817
0.0300779
0.0299817
0.0298932
0.0298123
0.0297394
0.0296745
0.029618
0.0295703
0.0295318
0.0295032
0.0294852
0.029479
0.0294862
0.0295093
0.0295523
0.0296208
0.029723
0.0298695
0.0485327
0.0474408
0.0454988
0.0432584
0.0413236
0.0399066
0.0388427
0.0379117
0.0370429
0.0362679
0.0356089
0.0350478
0.0345544
0.0341104
0.0337091
0.0333467
0.0330183
0.0327189
0.0324442
0.032191
0.0319568
0.0317396
0.0315375
0.031349
0.0311728
0.031008
0.0308536
0.0307089
0.0305733
0.0304463
0.0303276
0.030217
0.0301141
0.030019
0.0299317
0.0298523
0.0297808
0.0297177
0.0296631
0.0296175
0.0295815
0.0295556
0.0295408
0.0295383
0.02955
0.0295784
0.0296276
0.0297028
0.0298119
0.0299644
0.0478951
0.0469209
0.0451725
0.0431114
0.0412712
0.0398781
0.0388221
0.0379099
0.0370621
0.0362982
0.0356416
0.0350806
0.0345881
0.0341453
0.0337445
0.0333818
0.033053
0.0327532
0.0324781
0.0322245
0.03199
0.0317724
0.0315701
0.0313815
0.0312054
0.0310406
0.0308864
0.030742
0.0306069
0.0304805
0.0303625
0.0302526
0.0301507
0.0300567
0.0299706
0.0298925
0.0298226
0.0297612
0.0297085
0.029665
0.0296312
0.029608
0.0295963
0.0295974
0.0296132
0.0296464
0.0297009
0.0297818
0.0298962
0.0300525
0.0472847
0.0464145
0.0448397
0.042947
0.0412046
0.0398425
0.0387967
0.0379022
0.0370753
0.0363242
0.0356716
0.0351114
0.0346201
0.0341787
0.0337787
0.0334162
0.0330871
0.032787
0.0325116
0.0322578
0.032023
0.0318053
0.0316028
0.0314142
0.031238
0.0310734
0.0309195
0.0307754
0.0306407
0.0305149
0.0303976
0.0302885
0.0301876
0.0300947
0.0300098
0.0299331
0.0298647
0.0298049
0.029754
0.0297125
0.0296811
0.0296604
0.0296515
0.0296559
0.0296755
0.0297129
0.0297719
0.0298573
0.0299755
0.0301338
0.0466997
0.0459215
0.0445026
0.0427671
0.0411237
0.0397991
0.0387664
0.0378887
0.0370823
0.0363455
0.0356986
0.03514
0.0346501
0.0342105
0.0338117
0.0334496
0.0331205
0.0328203
0.0325448
0.0322908
0.0320559
0.031838
0.0316355
0.0314469
0.0312708
0.0311064
0.0309527
0.030809
0.0306748
0.0305496
0.030433
0.0303248
0.0302248
0.0301329
0.0300492
0.0299739
0.0299069
0.0298487
0.0297996
0.0297601
0.0297308
0.0297125
0.0297063
0.0297137
0.0297366
0.0297776
0.0298403
0.029929
0.0300495
0.030208
0.0461387
0.0454419
0.0441627
0.0425733
0.0410288
0.0397473
0.0387308
0.0378696
0.0370833
0.0363618
0.0357222
0.0351662
0.0346781
0.0342405
0.0338433
0.033482
0.0331531
0.0328529
0.0325775
0.0323235
0.0320886
0.0318707
0.0316682
0.0314796
0.0313037
0.0311395
0.0309861
0.0308428
0.0307091
0.0305845
0.0304686
0.0303612
0.0302621
0.0301714
0.0300889
0.0300148
0.0299492
0.0298926
0.0298452
0.0298075
0.0297802
0.0297642
0.0297605
0.0297705
0.0297963
0.0298402
0.0299057
0.0299966
0.0301181
0.0302752
0.0456001
0.0449756
0.0438217
0.0423674
0.0409205
0.0396865
0.0386896
0.037845
0.0370783
0.036373
0.035742
0.0351897
0.0347039
0.0342685
0.0338733
0.0335131
0.0331848
0.0328849
0.0326096
0.0323557
0.0321209
0.0319031
0.0317007
0.0315122
0.0313365
0.0311726
0.0310196
0.0308767
0.0307435
0.0306195
0.0305044
0.0303978
0.0302997
0.0302099
0.0301286
0.0300557
0.0299916
0.0299364
0.0298906
0.0298547
0.0298293
0.0298153
0.0298138
0.0298261
0.0298543
0.0299005
0.0299679
0.03006
0.030181
0.0303352
0.0450825
0.0445223
0.0434808
0.0421512
0.0407994
0.0396165
0.0386425
0.0378151
0.0370674
0.0363787
0.0357579
0.0352104
0.0347274
0.0342946
0.0339015
0.0335429
0.0332154
0.032916
0.032641
0.0323875
0.0321528
0.0319352
0.031733
0.0315448
0.0313693
0.0312057
0.0310531
0.0309107
0.030778
0.0306547
0.0305402
0.0304345
0.0303373
0.0302486
0.0301683
0.0300967
0.0300339
0.0299801
0.0299359
0.0299016
0.0298779
0.0298657
0.0298661
0.0298804
0.0299104
0.0299582
0.0300267
0.0301188
0.0302382
0.0303882
0.0445848
0.0440817
0.0431412
0.0419262
0.0406664
0.039537
0.0385892
0.0377798
0.0370508
0.0363791
0.0357695
0.0352279
0.0347484
0.0343184
0.0339279
0.0335711
0.0332449
0.0329461
0.0326717
0.0324186
0.0321843
0.031967
0.031765
0.0315771
0.031402
0.0312387
0.0310865
0.0309446
0.0308126
0.0306898
0.0305761
0.0304712
0.0303749
0.0302872
0.0302081
0.0301376
0.030076
0.0300236
0.0299807
0.0299479
0.0299258
0.0299151
0.0299171
0.0299329
0.0299643
0.0300131
0.0300818
0.030173
0.0302896
0.0304344
0.0441058
0.0436535
0.0428036
0.0416939
0.0405223
0.0394482
0.0385294
0.037739
0.0370286
0.036374
0.0357766
0.0352421
0.0347667
0.03434
0.0339523
0.0335977
0.033273
0.0329752
0.0327015
0.0324489
0.0322152
0.0319983
0.0317967
0.0316091
0.0314344
0.0312716
0.0311198
0.0309785
0.030847
0.030725
0.030612
0.0305079
0.0304125
0.0303257
0.0302476
0.0301783
0.0301179
0.0300667
0.0300251
0.0299936
0.0299728
0.0299635
0.0299668
0.0299837
0.0300158
0.030065
0.0301331
0.0302224
0.0303353
0.0304738
0.0436444
0.0432374
0.0424689
0.0414557
0.0403681
0.03935
0.0384627
0.0376927
0.0370008
0.0363634
0.0357791
0.0352526
0.0347821
0.0343591
0.0339745
0.0336225
0.0332996
0.0330031
0.0327303
0.0324785
0.0322453
0.032029
0.0318279
0.0316408
0.0314665
0.0313042
0.031153
0.0310122
0.0308814
0.03076
0.0306478
0.0305445
0.0304499
0.0303641
0.030287
0.0302187
0.0301594
0.0301093
0.0300689
0.0300385
0.0300189
0.0300106
0.0300148
0.0300324
0.0300648
0.0301136
0.0301804
0.0302671
0.0303754
0.0305067
0.0431997
0.042833
0.0421377
0.0412128
0.0402048
0.0392427
0.038389
0.0376408
0.0369676
0.0363473
0.0357767
0.0352593
0.0347945
0.0343756
0.0339945
0.0336453
0.0333245
0.0330296
0.0327579
0.0325071
0.0322747
0.032059
0.0318586
0.031672
0.0314983
0.0313365
0.0311859
0.0310457
0.0309155
0.0307948
0.0306833
0.0305808
0.0304871
0.0304022
0.030326
0.0302587
0.0302004
0.0301513
0.0301119
0.0300825
0.0300638
0.0300563
0.030061
0.0300789
0.0301111
0.0301589
0.0302237
0.0303069
0.0304098
0.0305333
0.0427706
0.04244
0.0418106
0.0409663
0.0400334
0.0391268
0.0383083
0.0375832
0.0369289
0.0363259
0.0357693
0.0352618
0.0348035
0.0343893
0.034012
0.033666
0.0333477
0.0330546
0.0327843
0.0325346
0.0323032
0.0320883
0.0318886
0.0317027
0.0315296
0.0313684
0.0312184
0.0310788
0.0309493
0.0308293
0.0307186
0.0306169
0.030524
0.0304399
0.0303646
0.0302982
0.0302408
0.0301926
0.030154
0.0301254
0.0301074
0.0301004
0.0301054
0.0301231
0.0301545
0.0302008
0.0302629
0.030342
0.0304389
0.030554
0.0423564
0.0420581
0.0414879
0.0407173
0.0398548
0.0390027
0.0382205
0.0375197
0.0368848
0.0362991
0.035757
0.0352602
0.0348091
0.0344001
0.034027
0.0336845
0.033369
0.033078
0.0328094
0.0325609
0.0323306
0.0321167
0.0319178
0.0317327
0.0315603
0.0313998
0.0312504
0.0311116
0.0309827
0.0308635
0.0307535
0.0306525
0.0305605
0.0304772
0.0304027
0.0303371
0.0302805
0.030233
0.0301951
0.0301671
0.0301495
0.0301427
0.0301476
0.0301647
0.0301949
0.0302391
0.0302981
0.0303725
0.0304628
0.0305691
0.0419563
0.0416868
0.0411699
0.0404665
0.0396701
0.038871
0.0381257
0.0374503
0.0368353
0.036267
0.0357397
0.0352542
0.0348111
0.0344079
0.0340393
0.0337006
0.0333882
0.0330996
0.0328329
0.032586
0.032357
0.0321442
0.0319462
0.0317619
0.0315903
0.0314306
0.0312819
0.0311438
0.0310157
0.0308971
0.0307879
0.0306877
0.0305963
0.0305138
0.0304401
0.0303752
0.0303193
0.0302725
0.0302351
0.0302075
0.03019
0.0301832
0.0301875
0.0302036
0.0302322
0.0302738
0.0303291
0.0303983
0.0304817
0.030579
0.0415695
0.0413259
0.0408571
0.0402149
0.03948
0.0387321
0.0380242
0.0373751
0.0367804
0.0362296
0.0357174
0.0352436
0.0348092
0.0344123
0.0340488
0.0337142
0.0334052
0.0331193
0.0328547
0.0326096
0.032382
0.0321704
0.0319736
0.0317903
0.0316196
0.0314606
0.0313128
0.0311754
0.031048
0.0309302
0.0308217
0.0307222
0.0306316
0.0305498
0.0304767
0.0304124
0.0303571
0.0303107
0.0302737
0.0302463
0.0302287
0.0302215
0.0302251
0.0302398
0.0302664
0.030305
0.0303561
0.0304198
0.0304959
0.030584
0.0411953
0.0409749
0.0405494
0.0399632
0.0392856
0.0385868
0.0379161
0.0372939
0.0367201
0.036187
0.03569
0.0352285
0.0348034
0.0344134
0.0340553
0.0337252
0.0334198
0.033137
0.0328748
0.0326316
0.0324056
0.0321955
0.0319999
0.0318176
0.0316479
0.0314898
0.0313428
0.0312062
0.0310796
0.0309626
0.0308548
0.030756
0.030666
0.0305849
0.0305124
0.0304487
0.0303937
0.0303478
0.0303109
0.0302834
0.0302656
0.0302577
0.0302601
0.0302732
0.0302973
0.0303326
0.0303792
0.030437
0.0305057
0.0305845
0.0408332
0.0406336
0.0402472
0.0397119
0.0390875
0.0384357
0.0378017
0.037207
0.0366544
0.0361393
0.0356576
0.0352088
0.0347935
0.0344109
0.0340587
0.0337333
0.033432
0.0331524
0.0328929
0.0326519
0.0324278
0.0322192
0.0320249
0.0318439
0.0316752
0.0315181
0.031372
0.0312362
0.0311104
0.0309941
0.030887
0.0307889
0.0306996
0.030619
0.0305471
0.0304837
0.0304291
0.0303833
0.0303465
0.0303188
0.0303004
0.0302916
0.0302926
0.0303037
0.030325
0.0303566
0.0303984
0.0304502
0.0305114
0.030581
0.0404825
0.0403017
0.0399505
0.0394616
0.0388865
0.0382794
0.0376814
0.0371144
0.0365835
0.0360865
0.0356203
0.0351844
0.0347794
0.0344048
0.0340588
0.0337386
0.0334415
0.0331655
0.0329089
0.0326703
0.0324482
0.0322413
0.0320486
0.0318688
0.0317013
0.0315453
0.0314001
0.0312652
0.0311402
0.0310247
0.0309183
0.0308208
0.0307321
0.030652
0.0305805
0.0305175
0.0304631
0.0304174
0.0303804
0.0303522
0.0303331
0.0303231
0.0303224
0.0303312
0.0303495
0.0303772
0.030414
0.0304596
0.0305133
0.0305739
0.0401428
0.0399787
0.0396594
0.0392127
0.0386832
0.0381184
0.0375557
0.0370163
0.0365074
0.0360286
0.0355781
0.0351554
0.034761
0.0343948
0.0340555
0.0337407
0.0334483