/*--------------------------------*- C++ -*----------------------------------*\
  =========                 |
  \\      /  F ield         | OpenFOAM: The Open Source CFD Toolbox
   \\    /   O peration     | Website:  https://openfoam.org
    \\  /    A nd           | Version:  7
     \\/     M anipulation  |
\*---------------------------------------------------------------------------*/
FoamFile
{
    version     2.0;
    format      ascii;
    class       surfaceScalarField;
    location    "0.17";
    object      phi;
}
// * * * * * * * * * * * * * * * * * * * * * * * * * * * * * * * * * * * * * //

dimensions      [0 3 -1 0 0 0 0];

internalField   nonuniform List<scalar> 
139350
(
6.45929e-08
9.20386e-08
3.19526e-08
3.26403e-08
2.30635e-08
8.88912e-09
1.9572e-08
3.49147e-09
1.7624e-08
1.94805e-09
1.62009e-08
1.42302e-09
1.50732e-08
1.12771e-09
1.41652e-08
9.08023e-10
1.34192e-08
7.45978e-10
1.27921e-08
6.27137e-10
1.22549e-08
5.37171e-10
1.17883e-08
4.66585e-10
1.13786e-08
4.09747e-10
1.10155e-08
3.63118e-10
1.06912e-08
3.24288e-10
1.03996e-08
2.91531e-10
1.01361e-08
2.6358e-10
9.89657e-09
2.39487e-10
9.67805e-09
2.18526e-10
9.47791e-09
2.00137e-10
9.29403e-09
1.83877e-10
9.12464e-09
1.69393e-10
8.96824e-09
1.56401e-10
8.82357e-09
1.44669e-10
8.68957e-09
1.34004e-10
8.56532e-09
1.24248e-10
8.45005e-09
1.15266e-10
8.34311e-09
1.06947e-10
8.24392e-09
9.91903e-11
8.15199e-09
9.19226e-11
8.06694e-09
8.50562e-11
7.98838e-09
7.85538e-11
7.91606e-09
7.23183e-11
7.84969e-09
6.63697e-11
7.78914e-09
6.05524e-11
7.73414e-09
5.50063e-11
7.68472e-09
4.9414e-11
7.64054e-09
4.41818e-11
7.60191e-09
3.86342e-11
7.56822e-09
3.36847e-11
7.54015e-09
2.80707e-11
7.5168e-09
2.33527e-11
7.49887e-09
1.79306e-11
7.48585e-09
1.30184e-11
7.47631e-09
9.53574e-12
7.47412e-09
2.1898e-12
7.46415e-09
9.97401e-12
7.48802e-09
-2.38672e-11
7.29274e-09
1.95273e-10
-3.24832e-09
1.05411e-08
1.26026e-07
1.27456e-07
9.12662e-08
6.74004e-08
7.19502e-08
2.82052e-08
6.12308e-08
1.42108e-08
5.47948e-08
8.38404e-09
5.03138e-08
5.90401e-09
4.68448e-08
4.5968e-09
4.40458e-08
3.707e-09
4.17374e-08
3.05432e-09
3.97948e-08
2.56976e-09
3.81307e-08
2.20131e-09
3.66849e-08
1.91239e-09
3.54147e-08
1.67993e-09
3.42885e-08
1.48928e-09
3.32823e-08
1.3305e-09
3.23773e-08
1.19655e-09
3.15586e-08
1.08225e-09
3.08144e-08
9.83711e-10
3.01349e-08
8.97984e-10
2.95123e-08
8.22773e-10
2.89399e-08
7.56273e-10
2.84123e-08
6.97041e-10
2.79247e-08
6.43915e-10
2.74735e-08
5.95945e-10
2.70551e-08
5.52348e-10
2.66669e-08
5.12475e-10
2.63064e-08
4.75778e-10
2.59715e-08
4.418e-10
2.56606e-08
4.10138e-10
2.5372e-08
3.80473e-10
2.51046e-08
3.52474e-10
2.48572e-08
3.25944e-10
2.4629e-08
3.00552e-10
2.44191e-08
2.76267e-10
2.4227e-08
2.52619e-10
2.40521e-08
2.29913e-10
2.38943e-08
2.07237e-10
2.37528e-08
1.8568e-10
2.36282e-08
1.63201e-10
2.35192e-08
1.42713e-10
2.34277e-08
1.19537e-10
2.33504e-08
1.00687e-10
2.32926e-08
7.5761e-11
2.32453e-08
6.03212e-11
2.32216e-08
3.31916e-11
2.32e-08
2.38078e-11
2.32024e-08
7.58321e-12
2.32274e-08
-4.88531e-11
2.30956e-08
3.27011e-10
-3.57589e-09
2.34232e-08
1.58807e-07
1.35052e-07
1.36497e-07
8.97108e-08
1.17502e-07
4.72004e-08
1.03334e-07
2.83783e-08
9.33422e-08
1.83762e-08
8.60592e-08
1.3187e-08
8.03761e-08
1.02799e-08
7.57509e-08
8.33218e-09
7.1901e-08
6.90418e-09
6.86393e-08
5.83153e-09
6.58321e-08
5.00843e-09
6.33847e-08
4.35981e-09
6.12283e-08
3.83636e-09
5.93116e-08
3.40596e-09
5.75953e-08
3.04674e-09
5.60488e-08
2.74312e-09
5.46474e-08
2.48362e-09
5.33715e-08
2.25962e-09
5.22049e-08
2.06453e-09
5.11345e-08
1.89323e-09
5.01491e-08
1.74164e-09
4.92396e-08
1.60655e-09
4.83982e-08
1.48533e-09
4.76183e-08
1.37585e-09
4.68943e-08
1.27633e-09
4.62215e-08
1.1853e-09
4.55957e-08
1.10154e-09
4.50135e-08
1.02399e-09
4.44719e-08
9.51767e-10
4.39683e-08
8.84115e-10
4.35004e-08
8.20315e-10
4.30665e-08
7.59873e-10
4.26649e-08
7.02103e-10
4.22944e-08
6.46821e-10
4.19539e-08
5.93133e-10
4.16424e-08
5.41442e-10
4.13595e-08
4.90106e-10
4.11042e-08
4.40946e-10
4.08772e-08
3.90182e-10
4.06766e-08
3.43358e-10
4.05053e-08
2.90795e-10
4.03579e-08
2.481e-10
4.0244e-08
1.8971e-10
4.01468e-08
1.57481e-10
4.00931e-08
8.68624e-11
4.00393e-08
7.76371e-11
4.00394e-08
7.45671e-12
4.00463e-08
-5.57297e-11
4.00231e-08
3.50242e-10
-3.02383e-09
3.9471e-08
1.75664e-07
1.30904e-07
1.65596e-07
9.97785e-08
1.5273e-07
6.00665e-08
1.40141e-07
4.09673e-08
1.29468e-07
2.90498e-08
1.20846e-07
2.18084e-08
1.13762e-07
1.73646e-08
1.07813e-07
1.42807e-08
1.02749e-07
1.19684e-08
9.83864e-08
1.01941e-08
9.45853e-08
8.80953e-09
9.12397e-08
7.70535e-09
8.82696e-08
6.80647e-09
8.56133e-08
6.0623e-09
8.32223e-08
5.4377e-09
8.10581e-08
4.90729e-09
7.90896e-08
4.45218e-09
7.72912e-08
4.05803e-09
7.56419e-08
3.71379e-09
7.41244e-08
3.41079e-09
7.27239e-08
3.14214e-09
7.14281e-08
2.90232e-09
7.02266e-08
2.68681e-09
6.91105e-08
2.49194e-09
6.80722e-08
2.31465e-09
6.71051e-08
2.15238e-09
6.62036e-08
2.00299e-09
6.5363e-08
1.86466e-09
6.45789e-08
1.7358e-09
6.38479e-08
1.61511e-09
6.31669e-08
1.50134e-09
6.25332e-08
1.39358e-09
6.19446e-08
1.29069e-09
6.13992e-08
1.19222e-09
6.08956e-08
1.09678e-09
6.04322e-08
1.00478e-09
6.00086e-08
9.13781e-10
5.96232e-08
8.26265e-10
5.92768e-08
7.3659e-10
5.89671e-08
6.53095e-10
5.86974e-08
5.60456e-10
5.84615e-08
4.84068e-10
5.82703e-08
3.80882e-10
5.81052e-08
3.22593e-10
5.79952e-08
1.96875e-10
5.78966e-08
1.76237e-10
5.7857e-08
4.69872e-11
5.78444e-08
-4.30416e-11
5.78234e-08
3.71186e-10
-2.39488e-09
5.71945e-08
1.8456e-07
1.23129e-07
1.82322e-07
1.02017e-07
1.76106e-07
6.62818e-08
1.67771e-07
4.93027e-08
1.59161e-07
3.76594e-08
1.51272e-07
2.96975e-08
1.44227e-07
2.44103e-08
1.3796e-07
2.05468e-08
1.32399e-07
1.75295e-08
1.27458e-07
1.51349e-08
1.23052e-07
1.32163e-08
1.19102e-07
1.16552e-08
1.15544e-07
1.03643e-08
1.12324e-07
9.28219e-09
1.09397e-07
8.36461e-09
1.06726e-07
7.57872e-09
1.04279e-07
6.89954e-09
1.02029e-07
6.30775e-09
9.99544e-08
5.78819e-09
9.80364e-08
5.32883e-09
9.62585e-08
4.91998e-09
9.46071e-08
4.55378e-09
9.30701e-08
4.22378e-09
9.16374e-08
3.92465e-09
9.03001e-08
3.65194e-09
8.90506e-08
3.40191e-09
8.78822e-08
3.1714e-09
8.67891e-08
2.9577e-09
8.57664e-08
2.75849e-09
8.48098e-08
2.57179e-09
8.39154e-08
2.39575e-09
8.308e-08
2.22897e-09
8.23009e-08
2.06978e-09
8.15757e-08
1.9174e-09
8.09025e-08
1.76993e-09
8.02797e-08
1.62763e-09
7.97061e-08
1.48734e-09
7.91804e-08
1.35198e-09
7.87028e-08
1.21423e-09
7.8271e-08
1.08484e-09
7.78881e-08
9.43341e-10
7.75484e-08
8.23841e-10
7.72613e-08
6.68006e-10
7.70117e-08
5.72189e-10
7.68206e-08
3.87897e-10
7.66617e-08
3.35218e-10
7.65508e-08
1.57857e-10
7.65006e-08
7.14167e-12
7.64293e-08
4.42525e-10
-1.76701e-09
7.58014e-08
1.90388e-07
1.14957e-07
1.91852e-07
1.00553e-07
1.90245e-07
6.78884e-08
1.86159e-07
5.33888e-08
1.8073e-07
4.30889e-08
1.74991e-07
3.54366e-08
1.69317e-07
3.00843e-08
1.63863e-07
2.60004e-08
1.58725e-07
2.2667e-08
1.53946e-07
1.99148e-08
1.49526e-07
1.76363e-08
1.45448e-07
1.57324e-08
1.41689e-07
1.41234e-08
1.38221e-07
1.275e-08
1.35018e-07
1.15677e-08
1.32055e-07
1.0542e-08
1.29309e-07
9.64585e-09
1.26759e-07
8.85765e-09
1.24387e-07
8.16003e-09
1.22177e-07
7.53889e-09
1.20114e-07
6.98265e-09
1.18186e-07
6.48176e-09
1.16382e-07
6.02826e-09
1.14691e-07
5.61549e-09
1.13105e-07
5.23782e-09
1.11616e-07
4.89048e-09
1.10219e-07
4.56939e-09
1.08905e-07
4.27104e-09
1.07671e-07
3.99238e-09
1.06512e-07
3.7308e-09
1.05424e-07
3.48386e-09
1.04403e-07
3.24965e-09
1.03447e-07
3.02603e-09
1.02553e-07
2.81178e-09
1.01718e-07
2.60456e-09
1.00942e-07
2.40435e-09
1.00221e-07
2.20745e-09
9.95565e-08
2.01691e-09
9.89466e-08
1.82413e-09
9.83899e-08
1.64152e-09
9.78884e-08
1.44484e-09
9.74381e-08
1.27411e-09
9.7045e-08
1.06115e-09
9.67007e-08
9.1644e-10
9.64138e-08
6.74778e-10
9.61794e-08
5.6971e-10
9.59821e-08
3.55074e-10
9.58629e-08
1.26348e-10
9.5739e-08
5.6641e-10
-1.10553e-09
9.50776e-08
1.95541e-07
1.07231e-07
1.98247e-07
9.78466e-08
1.98969e-07
6.71667e-08
1.97791e-07
5.45674e-08
1.95163e-07
4.5716e-08
1.91831e-07
3.87686e-08
1.88116e-07
3.38e-08
1.84189e-07
2.99273e-08
1.802e-07
2.66556e-08
1.7626e-07
2.3855e-08
1.72436e-07
2.14605e-08
1.68766e-07
1.94024e-08
1.6527e-07
1.76195e-08
1.61955e-07
1.60646e-08
1.58822e-07
1.47007e-08
1.55866e-07
1.3498e-08
1.5308e-07
1.24321e-08
1.50455e-07
1.14829e-08
1.47981e-07
1.06335e-08
1.4565e-07
9.8699e-09
1.43453e-07
9.18023e-09
1.4138e-07
8.55446e-09
1.39424e-07
7.98408e-09
1.37578e-07
7.46179e-09
1.35834e-07
6.98136e-09
1.34187e-07
6.53741e-09
1.32631e-07
6.12527e-09
1.31162e-07
5.7409e-09
1.29773e-07
5.38073e-09
1.28462e-07
5.04165e-09
1.27225e-07
4.72081e-09
1.26059e-07
4.41583e-09
1.24961e-07
4.1242e-09
1.23929e-07
3.84431e-09
1.2296e-07
3.57348e-09
1.22053e-07
3.31136e-09
1.21206e-07
3.05386e-09
1.20419e-07
2.80391e-09
1.19691e-07
2.5522e-09
1.19021e-07
2.31178e-09
1.18409e-07
2.0565e-09
1.17854e-07
1.82894e-09
1.17358e-07
1.55717e-09
1.1692e-07
1.35499e-09
1.16536e-07
1.05837e-09
1.16219e-07
8.87417e-10
1.15934e-07
6.39188e-10
1.15726e-07
3.34882e-10
1.15547e-07
7.45105e-10
-4.30085e-10
1.14872e-07
2.00848e-07
9.99679e-08
2.03776e-07
9.49187e-08
2.05327e-07
6.56153e-08
2.05644e-07
5.4251e-08
2.04819e-07
4.65402e-08
2.03344e-07
4.02445e-08
2.01406e-07
3.57377e-08
1.99092e-07
3.22412e-08
1.96509e-07
2.9239e-08
1.93759e-07
2.6605e-08
1.90923e-07
2.42962e-08
1.88062e-07
2.22637e-08
1.85219e-07
2.04625e-08
1.82425e-07
1.88579e-08
1.79704e-07
1.74226e-08
1.77067e-07
1.61344e-08
1.74525e-07
1.49744e-08
1.72081e-07
1.39264e-08
1.69738e-07
1.29764e-08
1.67496e-07
1.21124e-08
1.65352e-07
1.13237e-08
1.63306e-07
1.06013e-08
1.61353e-07
9.93712e-09
1.5949e-07
9.32422e-09
1.57715e-07
8.75645e-09
1.56024e-07
8.22843e-09
1.54414e-07
7.73541e-09
1.52882e-07
7.2732e-09
1.51424e-07
6.83805e-09
1.50039e-07
6.42665e-09
1.48724e-07
6.03592e-09
1.47477e-07
5.66325e-09
1.46295e-07
5.30591e-09
1.45177e-07
4.96201e-09
1.44122e-07
4.62867e-09
1.43128e-07
4.30521e-09
1.42195e-07
3.9874e-09
1.41321e-07
3.67784e-09
1.40506e-07
3.36703e-09
1.3975e-07
3.06786e-09
1.39053e-07
2.75387e-09
1.38414e-07
2.4674e-09
1.37834e-07
2.13768e-09
1.37315e-07
1.87384e-09
1.36848e-07
1.52502e-09
1.36453e-07
1.28245e-09
1.36092e-07
9.99909e-10
1.35796e-07
6.31563e-10
1.3556e-07
9.80573e-10
2.24548e-10
1.34906e-07
2.06447e-07
9.3053e-08
2.0934e-07
9.20261e-08
2.11037e-07
6.39178e-08
2.11931e-07
5.33566e-08
2.12002e-07
4.647e-08
2.11618e-07
4.06279e-08
2.10894e-07
3.64614e-08
2.09834e-07
3.33012e-08
2.08477e-07
3.05966e-08
2.06881e-07
2.82012e-08
2.05102e-07
2.60745e-08
2.03191e-07
2.41749e-08
2.01189e-07
2.24642e-08
1.99133e-07
2.09143e-08
1.97051e-07
1.95048e-08
1.94966e-07
1.82193e-08
1.92896e-07
1.7044e-08
1.90856e-07
1.59669e-08
1.88855e-07
1.49774e-08
1.86901e-07
1.40663e-08
1.84999e-07
1.32251e-08
1.83154e-07
1.24464e-08
1.81368e-07
1.17235e-08
1.79642e-07
1.10503e-08
1.77977e-07
1.04214e-08
1.76373e-07
9.8321e-09
1.74831e-07
9.27792e-09
1.73349e-07
8.75497e-09
1.71927e-07
8.25968e-09
1.70565e-07
7.78884e-09
1.69262e-07
7.33942e-09
1.68016e-07
6.90879e-09
1.66828e-07
6.49423e-09
1.65696e-07
6.09369e-09
1.6462e-07
5.70431e-09
1.636e-07
5.32515e-09
1.62636e-07
4.95203e-09
1.61726e-07
4.58718e-09
1.60872e-07
4.22124e-09
1.60074e-07
3.86654e-09
1.5933e-07
3.4973e-09
1.58644e-07
3.15392e-09
1.58011e-07
2.7699e-09
1.5744e-07
2.44484e-09
1.56918e-07
2.04775e-09
1.56466e-07
1.73414e-09
1.5605e-07
1.41602e-09
1.55684e-07
9.97461e-10
1.55402e-07
1.26274e-09
8.29759e-10
1.54797e-07
2.12289e-07
8.64265e-08
2.15152e-07
8.91626e-08
2.16791e-07
6.22788e-08
2.17844e-07
5.23042e-08
2.1826e-07
4.60539e-08
2.18378e-07
4.05101e-08
2.18305e-07
3.65337e-08
2.18013e-07
3.3594e-08
2.17493e-07
3.11163e-08
2.16766e-07
2.89282e-08
2.15856e-07
2.6984e-08
2.1479e-07
2.52411e-08
2.13593e-07
2.36611e-08
2.12291e-07
2.22164e-08
2.10907e-07
2.08886e-08
2.09463e-07
1.96638e-08
2.07976e-07
1.85307e-08
2.06463e-07
1.748e-08
2.04937e-07
1.65036e-08
2.03409e-07
1.55943e-08
2.01888e-07
1.47457e-08
2.00383e-07
1.3952e-08
1.98898e-07
1.32079e-08
1.9744e-07
1.25086e-08
1.96012e-07
1.18495e-08
1.94617e-07
1.12267e-08
1.93259e-07
1.06365e-08
1.91938e-07
1.00754e-08
1.90658e-07
9.54037e-09
1.89418e-07
9.02844e-09
1.8822e-07
8.53689e-09
1.87066e-07
8.06325e-09
1.85955e-07
7.60498e-09
1.84889e-07
7.16006e-09
1.83867e-07
6.72576e-09
1.82892e-07
6.30105e-09
1.81962e-07
5.88188e-09
1.81079e-07
5.47024e-09
1.80243e-07
5.05705e-09
1.79455e-07
4.65395e-09
1.78716e-07
4.23646e-09
1.78028e-07
3.84201e-09
1.77388e-07
3.41029e-09
1.76804e-07
3.02863e-09
1.76263e-07
2.58908e-09
1.75787e-07
2.21009e-09
1.75346e-07
1.85626e-09
1.74943e-07
1.40136e-09
1.74636e-07
1.56957e-09
1.35986e-09
1.74106e-07
2.1833e-07
8.00773e-08
2.21206e-07
8.62866e-08
2.22764e-07
6.07207e-08
2.23843e-07
5.1225e-08
2.24369e-07
4.55285e-08
2.24664e-07
4.02148e-08
2.24867e-07
3.63309e-08
2.2495e-07
3.35105e-08
2.24893e-07
3.11735e-08
2.24696e-07
2.91251e-08
2.24365e-07
2.73152e-08
2.23906e-07
2.56998e-08
2.23329e-07
2.42378e-08
2.22646e-07
2.28995e-08
2.2187e-07
2.16652e-08
2.21013e-07
2.05208e-08
2.20088e-07
1.94553e-08
2.19108e-07
1.846e-08
2.18084e-07
1.75278e-08
2.17026e-07
1.66524e-08
2.15943e-07
1.58285e-08
2.14844e-07
1.50513e-08
2.13735e-07
1.43165e-08
2.12624e-07
1.36201e-08
2.11515e-07
1.29585e-08
2.10413e-07
1.23283e-08
2.09323e-07
1.17265e-08
2.08249e-07
1.11502e-08
2.07192e-07
1.05967e-08
2.06157e-07
1.00635e-08
2.05146e-07
9.54828e-09
2.0416e-07
9.04879e-09
2.03202e-07
8.56275e-09
2.02274e-07
8.0883e-09
2.01377e-07
7.62292e-09
2.00513e-07
7.16559e-09
1.99682e-07
6.71246e-09
1.98887e-07
6.26539e-09
1.98128e-07
5.81568e-09
1.97408e-07
5.37422e-09
1.96726e-07
4.91822e-09
1.96087e-07
4.48153e-09
1.95486e-07
4.01118e-09
1.94933e-07
3.58089e-09
1.94416e-07
3.1064e-09
1.93955e-07
2.67159e-09
1.93527e-07
2.2836e-09
1.93124e-07
1.80519e-09
1.92822e-07
1.87095e-09
1.79217e-09
1.9239e-07
2.24559e-07
7.40119e-08
2.2747e-07
8.3375e-08
2.28961e-07
5.92301e-08
2.30045e-07
5.01406e-08
2.30612e-07
4.49617e-08
2.30956e-07
3.98708e-08
2.31248e-07
3.60389e-08
2.31479e-07
3.32798e-08
2.31629e-07
3.10235e-08
2.31697e-07
2.90572e-08
2.31683e-07
2.73292e-08
2.31586e-07
2.5797e-08
2.31405e-07
2.44179e-08
2.31144e-07
2.31605e-08
2.30806e-07
2.20031e-08
2.30397e-07
2.09304e-08
2.29921e-07
1.99306e-08
2.29387e-07
1.89945e-08
2.288e-07
1.81146e-08
2.28168e-07
1.72848e-08
2.27496e-07
1.64999e-08
2.26792e-07
1.57554e-08
2.26061e-07
1.50473e-08
2.25309e-07
1.4372e-08
2.24541e-07
1.37264e-08
2.23762e-07
1.31074e-08
2.22976e-07
1.25125e-08
2.22187e-07
1.1939e-08
2.214e-07
1.13846e-08
2.20616e-07
1.08472e-08
2.19839e-07
1.03247e-08
2.19073e-07
9.81514e-09
2.18319e-07
9.31643e-09
2.17581e-07
8.82693e-09
2.16859e-07
8.34429e-09
2.16157e-07
7.86762e-09
2.15477e-07
7.39322e-09
2.14819e-07
6.92293e-09
2.14186e-07
6.44843e-09
2.13581e-07
5.97987e-09
2.13002e-07
5.49636e-09
2.12456e-07
5.02785e-09
2.11938e-07
4.52919e-09
2.11459e-07
4.06033e-09
2.11006e-07
3.55939e-09
2.10597e-07
3.08068e-09
2.10218e-07
2.66173e-09
2.09853e-07
2.1704e-09
2.09589e-07
2.13514e-09
2.10936e-09
2.09272e-07
2.30979e-07
6.82384e-08
2.33935e-07
8.04197e-08
2.35366e-07
5.77988e-08
2.36457e-07
4.905e-08
2.37057e-07
4.43614e-08
2.37416e-07
3.95115e-08
2.3773e-07
3.57253e-08
2.38006e-07
3.30033e-08
2.38232e-07
3.07983e-08
2.38408e-07
2.88809e-08
2.38538e-07
2.71993e-08
2.3862e-07
2.57147e-08
2.38653e-07
2.43855e-08
2.38634e-07
2.31792e-08
2.38564e-07
2.20734e-08
2.38442e-07
2.10516e-08
2.38271e-07
2.01015e-08
2.38053e-07
1.92129e-08
2.3779e-07
1.8378e-08
2.37485e-07
1.75899e-08
2.37141e-07
1.68433e-08
2.36763e-07
1.61336e-08
2.36354e-07
1.54565e-08
2.35917e-07
1.48086e-08
2.35457e-07
1.41866e-08
2.34977e-07
1.35878e-08
2.3448e-07
1.30094e-08
2.3397e-07
1.24492e-08
2.33449e-07
1.1905e-08
2.32922e-07
1.13746e-08
2.3239e-07
1.08563e-08
2.31857e-07
1.03481e-08
2.31325e-07
9.84823e-09
2.30797e-07
9.35512e-09
2.30275e-07
8.86655e-09
2.29761e-07
8.38174e-09
2.29257e-07
7.89712e-09
2.28765e-07
7.41451e-09
2.28288e-07
6.92598e-09
2.27827e-07
6.44086e-09
2.27383e-07
5.94038e-09
2.2696e-07
5.4503e-09
2.26556e-07
4.9334e-09
2.2618e-07
4.43651e-09
2.25822e-07
3.91746e-09
2.25495e-07
3.40725e-09
2.25195e-07
2.96171e-09
2.24901e-07
2.46497e-09
2.24701e-07
2.33514e-09
2.30202e-09
2.24508e-07
2.37601e-07
6.27627e-08
2.40602e-07
7.74181e-08
2.41976e-07
5.64246e-08
2.43072e-07
4.79546e-08
2.43709e-07
4.37239e-08
2.44082e-07
3.91387e-08
2.44401e-07
3.54063e-08
2.4469e-07
3.27143e-08
2.44938e-07
3.05503e-08
2.45151e-07
2.86682e-08
2.45335e-07
2.70154e-08
2.45491e-07
2.55582e-08
2.4562e-07
2.42571e-08
2.45719e-07
2.30802e-08
2.45787e-07
2.20047e-08
2.45825e-07
2.10142e-08
2.4583e-07
2.00958e-08
2.45804e-07
1.9239e-08
2.45747e-07
1.84354e-08
2.45659e-07
1.7678e-08
2.45541e-07
1.69611e-08
2.45395e-07
1.62795e-08
2.45223e-07
1.5629e-08
2.45025e-07
1.50058e-08
2.44805e-07
1.44067e-08
2.44565e-07
1.38286e-08
2.44305e-07
1.32688e-08
2.44029e-07
1.2725e-08
2.4374e-07
1.21948e-08
2.43438e-07
1.16764e-08
2.43126e-07
1.11678e-08
2.42807e-07
1.06672e-08
2.42483e-07
1.01728e-08
2.42155e-07
9.68305e-09
2.41825e-07
9.19589e-09
2.41497e-07
8.71057e-09
2.4117e-07
8.22358e-09
2.40848e-07
7.73667e-09
2.40532e-07
7.24237e-09
2.40223e-07
6.74902e-09
2.39924e-07
6.24009e-09
2.39637e-07
5.7371e-09
2.3936e-07
5.21039e-09
2.39102e-07
4.69497e-09
2.38854e-07
4.16489e-09
2.38627e-07
3.63434e-09
2.38422e-07
3.16686e-09
2.38218e-07
2.66885e-09
2.38099e-07
2.45367e-09
2.37062e-09
2.38031e-07
2.44431e-07
5.75883e-08
2.47472e-07
7.43768e-08
2.48797e-07
5.50995e-08
2.49893e-07
4.68588e-08
2.50569e-07
4.30477e-08
2.50959e-07
3.87487e-08
2.51282e-07
3.50827e-08
2.51577e-07
3.24197e-08
2.51833e-07
3.02944e-08
2.52057e-07
2.84444e-08
2.52258e-07
2.68143e-08
2.5244e-07
2.53758e-08
2.52605e-07
2.40924e-08
2.52752e-07
2.29328e-08
2.52882e-07
2.18748e-08
2.52994e-07
2.09021e-08
2.53088e-07
2.0002e-08
2.53163e-07
1.91639e-08
2.53219e-07
1.83795e-08
2.53255e-07
1.76415e-08
2.53273e-07
1.69438e-08
2.53271e-07
1.62813e-08
2.5325e-07
1.56495e-08
2.53212e-07
1.50445e-08
2.53156e-07
1.44628e-08
2.53083e-07
1.39012e-08
2.52995e-07
1.33569e-08
2.52892e-07
1.28275e-08
2.52777e-07
1.23105e-08
2.52649e-07
1.18039e-08
2.52511e-07
1.13057e-08
2.52364e-07
1.08141e-08
2.5221e-07
1.03272e-08
2.52049e-07
9.84368e-09
2.51884e-07
9.36122e-09
2.51715e-07
8.87918e-09
2.51545e-07
8.39409e-09
2.51374e-07
7.90755e-09
2.51204e-07
7.41256e-09
2.51036e-07
6.91638e-09
2.50872e-07
6.40475e-09
2.50714e-07
5.89504e-09
2.5056e-07
5.36444e-09
2.50417e-07
4.83793e-09
2.5028e-07
4.30194e-09
2.50154e-07
3.75976e-09
2.50047e-07
3.27444e-09
2.49939e-07
2.77607e-09
2.49908e-07
2.4855e-09
2.32571e-09
2.49953e-07
2.51478e-07
5.27172e-08
2.54549e-07
7.13053e-08
2.55836e-07
5.38129e-08
2.56926e-07
4.57684e-08
2.5764e-07
4.23337e-08
2.5805e-07
3.83386e-08
2.5838e-07
3.47532e-08
2.5868e-07
3.21197e-08
2.58941e-07
3.00332e-08
2.59169e-07
2.82159e-08
2.59376e-07
2.66077e-08
2.59567e-07
2.51853e-08
2.59743e-07
2.39156e-08
2.59908e-07
2.27683e-08
2.60061e-07
2.17216e-08
2.60204e-07
2.07597e-08
2.60335e-07
1.98703e-08
2.60456e-07
1.9043e-08
2.60566e-07
1.82695e-08
2.60665e-07
1.75425e-08
2.60753e-07
1.68561e-08
2.60829e-07
1.62049e-08
2.60894e-07
1.55846e-08
2.60948e-07
1.49909e-08
2.6099e-07
1.44204e-08
2.61022e-07
1.38699e-08
2.61042e-07
1.33363e-08
2.61053e-07
1.2817e-08
2.61054e-07
1.23097e-08
2.61045e-07
1.18121e-08
2.61029e-07
1.13222e-08
2.61005e-07
1.08381e-08
2.60974e-07
1.0358e-08
2.60937e-07
9.88026e-09
2.60896e-07
9.40275e-09
2.6085e-07
8.92476e-09
2.60802e-07
8.44286e-09
2.60751e-07
7.95841e-09
2.60698e-07
7.46497e-09
2.60646e-07
6.96861e-09
2.60593e-07
6.45729e-09
2.60544e-07
5.94451e-09
2.60495e-07
5.41338e-09
2.60452e-07
4.88076e-09
2.60412e-07
4.34186e-09
2.60378e-07
3.79383e-09
2.60359e-07
3.29367e-09
2.60342e-07
2.79326e-09
2.60391e-07
2.4365e-09
2.18576e-09
2.60531e-07
2.58751e-07
4.81494e-08
2.61842e-07
6.82137e-08
2.63101e-07
5.25544e-08
2.64181e-07
4.46883e-08
2.6493e-07
4.15846e-08
2.65362e-07
3.79064e-08
2.65699e-07
3.44169e-08
2.66004e-07
3.1814e-08
2.66271e-07
2.97663e-08
2.66504e-07
2.79832e-08
2.66714e-07
2.63977e-08
2.66908e-07
2.49913e-08
2.67089e-07
2.37344e-08
2.6726e-07
2.25978e-08
2.67421e-07
2.15603e-08
2.67574e-07
2.06064e-08
2.6772e-07
1.97242e-08
2.67859e-07
1.89038e-08
2.67992e-07
1.81368e-08
2.68118e-07
1.74162e-08
2.68238e-07
1.67361e-08
2.68352e-07
1.60913e-08
2.68459e-07
1.54772e-08
2.6856e-07
1.489e-08
2.68655e-07
1.43259e-08
2.68743e-07
1.37816e-08
2.68825e-07
1.32543e-08
2.68901e-07
1.27412e-08
2.68971e-07
1.22397e-08
2.69035e-07
1.17478e-08
2.69094e-07
1.12632e-08
2.69149e-07
1.0784e-08
2.69198e-07
1.03083e-08
2.69244e-07
9.83469e-09
2.69286e-07
9.36075e-09
2.69325e-07
8.88584e-09
2.69361e-07
8.40657e-09
2.69395e-07
7.92405e-09
2.69428e-07
7.43241e-09
2.6946e-07
6.93652e-09
2.69491e-07
6.42643e-09
2.69523e-07
5.91219e-09
2.69555e-07
5.38179e-09
2.6959e-07
4.84586e-09
2.69626e-07
4.30525e-09
2.69666e-07
3.75447e-09
2.69718e-07
3.24127e-09
2.69776e-07
2.73543e-09
2.69892e-07
2.32018e-09
1.97363e-09
2.70104e-07
2.66258e-07
4.38833e-08
2.6936e-07
6.51124e-08
2.70601e-07
5.13133e-08
2.71666e-07
4.36229e-08
2.72447e-07
4.08038e-08
2.72903e-07
3.74503e-08
2.73247e-07
3.40728e-08
2.73559e-07
3.15025e-08
2.73832e-07
2.94932e-08
2.74069e-07
2.77458e-08
2.74282e-07
2.61845e-08
2.74479e-07
2.47946e-08
2.74663e-07
2.35506e-08
2.74836e-07
2.24246e-08
2.75e-07
2.13958e-08
2.75158e-07
2.04491e-08
2.75309e-07
1.9573e-08
2.75455e-07
1.87578e-08
2.75596e-07
1.79954e-08
2.75733e-07
1.7279e-08
2.75867e-07
1.66028e-08
2.75996e-07
1.59617e-08
2.76122e-07
1.53512e-08
2.76245e-07
1.47673e-08
2.76364e-07
1.42065e-08
2.7648e-07
1.36656e-08
2.76593e-07
1.31415e-08
2.76703e-07
1.26315e-08
2.7681e-07
1.2133e-08
2.76913e-07
1.16439e-08
2.77015e-07
1.1162e-08
2.77113e-07
1.06853e-08
2.7721e-07
1.02119e-08
2.77304e-07
9.74022e-09
2.77397e-07
9.26809e-09
2.77488e-07
8.79468e-09
2.77578e-07
8.31678e-09
2.77667e-07
7.83516e-09
2.77755e-07
7.34458e-09
2.77842e-07
6.84875e-09
2.77929e-07
6.3396e-09
2.78017e-07
5.82424e-09
2.78104e-07
5.2945e-09
2.78194e-07
4.75648e-09
2.78285e-07
4.21417e-09
2.78378e-07
3.66166e-09
2.78483e-07
3.13628e-09
2.78597e-07
2.62085e-09
2.78764e-07
2.15324e-09
1.71242e-09
2.79025e-07
2.74009e-07
3.99153e-08
2.77109e-07
6.20125e-08
2.78343e-07
5.00797e-08
2.7939e-07
4.25759e-08
2.80198e-07
3.99952e-08
2.8068e-07
3.69688e-08
2.81033e-07
3.37199e-08
2.8135e-07
3.11853e-08
2.81629e-07
2.92138e-08
2.81872e-07
2.75034e-08
2.82089e-07
2.59676e-08
2.82288e-07
2.45951e-08
2.82474e-07
2.33644e-08
2.8265e-07
2.22493e-08
2.82816e-07
2.12292e-08
2.82976e-07
2.02896e-08
2.83129e-07
1.94193e-08
2.83278e-07
1.86089e-08
2.83423e-07
1.78506e-08
2.83565e-07
1.71376e-08
2.83703e-07
1.64643e-08
2.83839e-07
1.58257e-08
2.83973e-07
1.52174e-08
2.84105e-07
1.46355e-08
2.84235e-07
1.40765e-08
2.84363e-07
1.35372e-08
2.8449e-07
1.30145e-08
2.84616e-07
1.25058e-08
2.8474e-07
1.20086e-08
2.84864e-07
1.15205e-08
2.84986e-07
1.10394e-08
2.85108e-07
1.05635e-08
2.85229e-07
1.00906e-08
2.8535e-07
9.61936e-09
2.85471e-07
9.14751e-09
2.85591e-07
8.67422e-09
2.85711e-07
8.19643e-09
2.85832e-07
7.71458e-09
2.85953e-07
7.22407e-09
2.86074e-07
6.72753e-09
2.86195e-07
6.21856e-09
2.86317e-07
5.70186e-09
2.8644e-07
5.17209e-09
2.86564e-07
4.63229e-09
2.8669e-07
4.0877e-09
2.86819e-07
3.53319e-09
2.86959e-07
2.99589e-09
2.87113e-07
2.4668e-09
2.87315e-07
1.95179e-09
1.42225e-09
2.87605e-07
2.82013e-07
3.62401e-08
2.851e-07
5.89255e-08
2.86336e-07
4.88438e-08
2.87362e-07
4.15498e-08
2.88193e-07
3.91637e-08
2.88701e-07
3.64606e-08
2.89064e-07
3.33571e-08
2.89387e-07
3.08625e-08
2.89673e-07
2.8928e-08
2.89921e-07
2.72556e-08
2.90141e-07
2.57469e-08
2.90344e-07
2.43925e-08
2.90533e-07
2.31756e-08
2.90711e-07
2.20716e-08
2.90879e-07
2.10606e-08
2.91041e-07
2.01282e-08
2.91196e-07
1.92638e-08
2.91347e-07
1.84582e-08
2.91494e-07
1.77038e-08
2.91637e-07
1.6994e-08
2.91778e-07
1.63233e-08
2.91917e-07
1.56868e-08
2.92054e-07
1.50802e-08
2.9219e-07
1.44997e-08
2.92325e-07
1.39418e-08
2.92459e-07
1.34033e-08
2.92592e-07
1.28813e-08
2.92725e-07
1.23731e-08
2.92857e-07
1.1876e-08
2.9299e-07
1.1388e-08
2.93123e-07
1.09067e-08
2.93256e-07
1.04304e-08
2.93389e-07
9.95709e-09
2.93523e-07
9.48523e-09
2.93658e-07
9.01266e-09
2.93794e-07
8.53849e-09
2.9393e-07
8.05987e-09
2.94068e-07
7.57693e-09
2.94206e-07
7.08567e-09
2.94346e-07
6.58775e-09
2.94487e-07
6.07819e-09
2.94629e-07
5.55977e-09
2.94771e-07
5.0292e-09
2.94916e-07
4.48748e-09
2.95064e-07
3.9399e-09
2.95215e-07
3.38249e-09
2.95377e-07
2.83326e-09
2.95557e-07
2.28717e-09
2.9578e-07
1.72894e-09
1.11851e-09
2.96084e-07
2.90278e-07
3.28506e-08
2.93341e-07
5.58631e-08
2.94588e-07
4.75968e-08
2.95591e-07
4.05466e-08
2.9644e-07
3.83143e-08
2.96976e-07
3.59248e-08
2.9735e-07
3.2983e-08
2.97679e-07
3.0534e-08
2.97971e-07
2.86357e-08
2.98225e-07
2.7002e-08
2.9845e-07
2.5522e-08
2.98655e-07
2.41866e-08
2.98847e-07
2.29839e-08
2.99027e-07
2.18915e-08
2.99198e-07
2.08897e-08
2.99361e-07
1.99649e-08
2.99519e-07
1.91065e-08
2.99671e-07
1.83057e-08
2.9982e-07
1.75553e-08
2.99965e-07
1.68487e-08
3.00108e-07
1.61805e-08
3.00249e-07
1.5546e-08
3.00388e-07
1.4941e-08
3.00526e-07
1.43616e-08
3.00663e-07
1.38046e-08
3.008e-07
1.32667e-08
3.00936e-07
1.2745e-08
3.01072e-07
1.22367e-08
3.01209e-07
1.17395e-08
3.01346e-07
1.1251e-08
3.01483e-07
1.07691e-08
3.01622e-07
1.02919e-08
3.01762e-07
9.81753e-09
3.01902e-07
9.34446e-09
3.02044e-07
8.87059e-09
3.02188e-07
8.39497e-09
3.02333e-07
7.91496e-09
3.02479e-07
7.43039e-09
3.02627e-07
6.9378e-09
3.02777e-07
6.43806e-09
3.02928e-07
5.92731e-09
3.03081e-07
5.40689e-09
3.03235e-07
4.87485e-09
3.03392e-07
4.33096e-09
3.03552e-07
3.77979e-09
3.03716e-07
3.21839e-09
3.03892e-07
2.65715e-09
3.04087e-07
2.09178e-09
3.04322e-07
1.49399e-09
8.12099e-10
3.04629e-07
2.98815e-07
2.97381e-08
3.01841e-07
5.28373e-08
3.03107e-07
4.63307e-08
3.04086e-07
3.95671e-08
3.04948e-07
3.74527e-08
3.05512e-07
3.53608e-08
3.05899e-07
3.2596e-08
3.06233e-07
3.01998e-08
3.06532e-07
2.83369e-08
3.06792e-07
2.67423e-08
3.07021e-07
2.52925e-08
3.07231e-07
2.39772e-08
3.07425e-07
2.27892e-08
3.07608e-07
2.17086e-08
3.07781e-07
2.07165e-08
3.07947e-07
1.97994e-08
3.08106e-07
1.89472e-08
3.0826e-07
1.81514e-08
3.08411e-07
1.7405e-08
3.08558e-07
1.67016e-08
3.08702e-07
1.6036e-08
3.08845e-07
1.54035e-08
3.08986e-07
1.48e-08
3.09125e-07
1.42218e-08
3.09264e-07
1.36656e-08
3.09403e-07
1.31281e-08
3.09542e-07
1.26065e-08
3.0968e-07
1.20982e-08
3.09819e-07
1.16005e-08
3.09959e-07
1.11114e-08
3.10099e-07
1.06286e-08
3.10241e-07
1.01503e-08
3.10384e-07
9.67455e-09
3.10528e-07
9.19997e-09
3.10674e-07
8.72452e-09
3.10822e-07
8.24713e-09
3.10972e-07
7.76542e-09
3.11123e-07
7.27891e-09
3.11276e-07
6.78466e-09
3.11432e-07
6.28286e-09
3.11588e-07
5.77052e-09
3.11747e-07
5.24793e-09
3.11908e-07
4.71394e-09
3.12072e-07
4.16761e-09
3.12239e-07
3.61244e-09
3.12411e-07
3.04602e-09
3.12596e-07
2.47279e-09
3.12801e-07
1.88695e-09
3.13042e-07
1.25298e-09
5.09495e-10
3.13344e-07
3.07634e-07
2.68919e-08
3.10611e-07
4.98602e-08
3.11902e-07
4.50389e-08
3.12858e-07
3.86113e-08
3.13727e-07
3.6584e-08
3.14319e-07
3.4769e-08
3.1472e-07
3.21945e-08
3.1506e-07
2.98597e-08
3.15365e-07
2.80318e-08
3.15631e-07
2.64763e-08
3.15866e-07
2.5058e-08
3.16079e-07
2.3764e-08
3.16277e-07
2.25913e-08
3.16463e-07
2.15229e-08
3.16639e-07
2.05407e-08
3.16806e-07
1.96316e-08
3.16968e-07
1.87857e-08
3.17124e-07
1.79951e-08
3.17276e-07
1.72528e-08
3.17425e-07
1.65528e-08
3.17571e-07
1.58898e-08
3.17716e-07
1.52593e-08
3.17858e-07
1.46573e-08
3.18e-07
1.40803e-08
3.18141e-07
1.35247e-08
3.18281e-07
1.29877e-08
3.18421e-07
1.24662e-08
3.18562e-07
1.19577e-08
3.18703e-07
1.14595e-08
3.18845e-07
1.09696e-08
3.18987e-07
1.04858e-08
3.19131e-07
1.00062e-08
3.19277e-07
9.52906e-09
3.19424e-07
9.05284e-09
3.19573e-07
8.57564e-09
3.19724e-07
8.09635e-09
3.19876e-07
7.61276e-09
3.20031e-07
7.12418e-09
3.20188e-07
6.62806e-09
3.20346e-07
6.12409e-09
3.20507e-07
5.60991e-09
3.2067e-07
5.08506e-09
3.20835e-07
4.54883e-09
3.21003e-07
3.99981e-09
3.21175e-07
3.44036e-09
3.21353e-07
2.86809e-09
3.21543e-07
2.28301e-09
3.21753e-07
1.67648e-09
3.21996e-07
1.00978e-09
2.14609e-10
3.22291e-07
3.16743e-07
2.43e-08
3.19659e-07
4.69439e-08
3.20982e-07
4.3716e-08
3.21916e-07
3.7678e-08
3.22786e-07
3.57136e-08
3.23404e-07
3.41506e-08
3.23822e-07
3.1777e-08
3.24168e-07
2.95131e-08
3.2448e-07
2.77203e-08
3.24753e-07
2.62036e-08
3.24992e-07
2.48183e-08
3.2521e-07
2.35467e-08
3.25411e-07
2.23899e-08
3.256e-07
2.13341e-08
3.25779e-07
2.03621e-08
3.25949e-07
1.94612e-08
3.26113e-07
1.8622e-08
3.26271e-07
1.78367e-08
3.26425e-07
1.70986e-08
3.26576e-07
1.64019e-08
3.26724e-07
1.57416e-08
3.26871e-07
1.51132e-08
3.27015e-07
1.45128e-08
3.27159e-07
1.39368e-08
3.27301e-07
1.33821e-08
3.27443e-07
1.28454e-08
3.27586e-07
1.2324e-08
3.27728e-07
1.18152e-08
3.27871e-07
1.13165e-08
3.28015e-07
1.08258e-08
3.2816e-07
1.03409e-08
3.28306e-07
9.86e-09
3.28454e-07
9.38131e-09
3.28603e-07
8.90337e-09
3.28755e-07
8.42434e-09
3.28908e-07
7.94305e-09
3.29063e-07
7.45749e-09
3.29221e-07
6.96677e-09
3.2938e-07
6.46868e-09
3.29542e-07
5.96249e-09
3.29705e-07
5.4463e-09
3.29871e-07
4.91915e-09
3.30039e-07
4.38048e-09
3.30211e-07
3.82858e-09
3.30386e-07
3.2647e-09
3.30568e-07
2.68597e-09
3.30762e-07
2.08932e-09
3.30976e-07
1.46265e-09
3.31219e-07
7.66933e-10
-7.0518e-11
3.31504e-07
3.26154e-07
2.1949e-08
3.28997e-07
4.41001e-08
3.30355e-07
4.23583e-08
3.31268e-07
3.67653e-08
3.32135e-07
3.48461e-08
3.32779e-07
3.35071e-08
3.33214e-07
3.1342e-08
3.33567e-07
2.91595e-08
3.33885e-07
2.74026e-08
3.34164e-07
2.5924e-08
3.3441e-07
2.45729e-08
3.34632e-07
2.3325e-08
3.34837e-07
2.21847e-08
3.35029e-07
2.11419e-08
3.35211e-07
2.01805e-08
3.35384e-07
1.92881e-08
3.3555e-07
1.84557e-08
3.35711e-07
1.76758e-08
3.35867e-07
1.69421e-08
3.3602e-07
1.62489e-08
3.36171e-07
1.55913e-08
3.36319e-07
1.4965e-08
3.36465e-07
1.43662e-08
3.36611e-07
1.37914e-08
3.36755e-07
1.32374e-08
3.369e-07
1.27011e-08
3.37044e-07
1.21798e-08
3.37188e-07
1.16707e-08
3.37334e-07
1.11715e-08
3.37479e-07
1.06799e-08
3.37627e-07
1.01938e-08
3.37775e-07
9.71156e-09