/*--------------------------------*- C++ -*----------------------------------*\
  =========                 |
  \\      /  F ield         | OpenFOAM: The Open Source CFD Toolbox
   \\    /   O peration     | Website:  https://openfoam.org
    \\  /    A nd           | Version:  7
     \\/     M anipulation  |
\*---------------------------------------------------------------------------*/
FoamFile
{
    version     2.0;
    format      ascii;
    class       surfaceScalarField;
    location    "0.17";
    object      phi_0;
}
// * * * * * * * * * * * * * * * * * * * * * * * * * * * * * * * * * * * * * //

dimensions      [0 3 -1 0 0 0 0];

internalField   nonuniform List<scalar> 
139350
(
6.45929e-08
9.20386e-08
3.19526e-08
3.26403e-08
2.30635e-08
8.8891e-09
1.95721e-08
3.49145e-09
1.7624e-08
1.94803e-09
1.6201e-08
1.423e-09
1.50733e-08
1.12769e-09
1.41653e-08
9.08002e-10
1.34194e-08
7.45958e-10
1.27923e-08
6.27118e-10
1.22551e-08
5.37153e-10
1.17885e-08
4.66567e-10
1.13788e-08
4.09728e-10
1.10157e-08
3.63099e-10
1.06914e-08
3.24269e-10
1.03999e-08
2.91511e-10
1.01364e-08
2.63561e-10
9.89691e-09
2.39467e-10
9.6784e-09
2.18505e-10
9.47829e-09
2.00115e-10
9.29444e-09
1.83854e-10
9.12507e-09
1.69369e-10
8.96869e-09
1.56376e-10
8.82405e-09
1.44642e-10
8.69007e-09
1.33975e-10
8.56586e-09
1.24217e-10
8.45063e-09
1.15232e-10
8.34372e-09
1.06911e-10
8.24456e-09
9.9151e-11
8.15268e-09
9.18799e-11
8.06767e-09
8.50098e-11
7.98917e-09
7.85033e-11
7.91691e-09
7.22634e-11
7.8506e-09
6.63097e-11
7.79011e-09
6.04869e-11
7.73518e-09
5.49345e-11
7.68584e-09
4.93355e-11
7.64175e-09
4.40954e-11
7.60321e-09
3.8539e-11
7.56963e-09
3.358e-11
7.54167e-09
2.79538e-11
7.51845e-09
2.32246e-11
7.50066e-09
1.77845e-11
7.4878e-09
1.28593e-11
7.47846e-09
9.3476e-12
7.47647e-09
1.98981e-12
7.46676e-09
9.70776e-12
7.49089e-09
-2.41267e-11
7.29596e-09
1.94921e-10
-3.24999e-09
1.0546e-08
1.26026e-07
1.27456e-07
9.12663e-08
6.74004e-08
7.19503e-08
2.82051e-08
6.1231e-08
1.42108e-08
5.4795e-08
8.38396e-09
5.03141e-08
5.90394e-09
4.68451e-08
4.59673e-09
4.40461e-08
3.70693e-09
4.17378e-08
3.05426e-09
3.97953e-08
2.56969e-09
3.81312e-08
2.20125e-09
3.66854e-08
1.91232e-09
3.54153e-08
1.67987e-09
3.42892e-08
1.48921e-09
3.3283e-08
1.33044e-09
3.2378e-08
1.19649e-09
3.15594e-08
1.08218e-09
3.08152e-08
9.83644e-10
3.01358e-08
8.97915e-10
2.95132e-08
8.22702e-10
2.89409e-08
7.56198e-10
2.84133e-08
6.96962e-10
2.79258e-08
6.43831e-10
2.74746e-08
5.95855e-10
2.70563e-08
5.52252e-10
2.66682e-08
5.12371e-10
2.63077e-08
4.75665e-10
2.5973e-08
4.41678e-10
2.56621e-08
4.10005e-10
2.53737e-08
3.80328e-10
2.51064e-08
3.52316e-10
2.48591e-08
3.25772e-10
2.4631e-08
3.00363e-10
2.44212e-08
2.76061e-10
2.42293e-08
2.52393e-10
2.40546e-08
2.29664e-10
2.3897e-08
2.06963e-10
2.37557e-08
1.85377e-10
2.36314e-08
1.62866e-10
2.35226e-08
1.42343e-10
2.34314e-08
1.19125e-10
2.33544e-08
1.0023e-10
2.3297e-08
7.52432e-11
2.32501e-08
5.9754e-11
2.32269e-08
3.25197e-11
2.32058e-08
2.31056e-11
2.32089e-08
6.63794e-12
2.32345e-08
-4.97434e-11
2.31037e-08
3.25659e-10
-3.5785e-09
2.34322e-08
1.58807e-07
1.35052e-07
1.36497e-07
8.97107e-08
1.17502e-07
4.72003e-08
1.03335e-07
2.83781e-08
9.33424e-08
1.83761e-08
8.60595e-08
1.31869e-08
8.03765e-08
1.02798e-08
7.57514e-08
8.33203e-09
7.19016e-08
6.90404e-09
6.86399e-08
5.83139e-09
6.58328e-08
5.0083e-09
6.33855e-08
4.35969e-09
6.12291e-08
3.83624e-09
5.93125e-08
3.40584e-09
5.75963e-08
3.04662e-09
5.60498e-08
2.74299e-09
5.46485e-08
2.48349e-09
5.33726e-08
2.25949e-09
5.22061e-08
2.0644e-09
5.11358e-08
1.89309e-09
5.01505e-08
1.7415e-09
4.9241e-08
1.6064e-09
4.83997e-08
1.48517e-09
4.76199e-08
1.37567e-09
4.6896e-08
1.27614e-09
4.62232e-08
1.1851e-09
4.55976e-08
1.10132e-09
4.50155e-08
1.02376e-09
4.4474e-08
9.51508e-10
4.39705e-08
8.83833e-10
4.35028e-08
8.20005e-10
4.3069e-08
7.59534e-10
4.26677e-08
7.01731e-10
4.22973e-08
6.46413e-10
4.1957e-08
5.92683e-10
4.16458e-08
5.40946e-10
4.13632e-08
4.89557e-10
4.11082e-08
4.40339e-10
4.08816e-08
3.89508e-10
4.06813e-08
3.4261e-10
4.05105e-08
2.8996e-10
4.03635e-08
2.47171e-10
4.02501e-08
1.88657e-10
4.01535e-08
1.56324e-10
4.01006e-08
8.54904e-11
4.00475e-08
7.6206e-11
4.00486e-08
5.54685e-12
4.00564e-08
-5.75635e-11
4.00345e-08
3.4758e-10
-3.02785e-09
3.94838e-08
1.75664e-07
1.30904e-07
1.65596e-07
9.97784e-08
1.5273e-07
6.00664e-08
1.40141e-07
4.0967e-08
1.29468e-07
2.90495e-08
1.20847e-07
2.18081e-08
1.13762e-07
1.73644e-08
1.07814e-07
1.42805e-08
1.0275e-07
1.19681e-08
9.83871e-08
1.01939e-08
9.45861e-08
8.80931e-09
9.12406e-08
7.70514e-09
8.82706e-08
6.80626e-09
8.56143e-08
6.0621e-09
8.32234e-08
5.43751e-09
8.10593e-08
4.9071e-09
7.90909e-08
4.45198e-09
7.72925e-08
4.05783e-09
7.56433e-08
3.71359e-09
7.41258e-08
3.41058e-09
7.27254e-08
3.14192e-09
7.14297e-08
2.90209e-09
7.02283e-08
2.68657e-09
6.91123e-08
2.49168e-09
6.80741e-08
2.31437e-09
6.71071e-08
2.15208e-09
6.62058e-08
2.00266e-09
6.53652e-08
1.86429e-09
6.45814e-08
1.7354e-09
6.38505e-08
1.61468e-09
6.31697e-08
1.50086e-09
6.25361e-08
1.39305e-09
6.19478e-08
1.29011e-09
6.14026e-08
1.19158e-09
6.08992e-08
1.09607e-09
6.04361e-08
1.00399e-09
6.00128e-08
9.12912e-10
5.96278e-08
8.25302e-10
5.92818e-08
7.35517e-10
5.89725e-08
6.51901e-10
5.87034e-08
5.59121e-10
5.8468e-08
4.82579e-10
5.82774e-08
3.79192e-10
5.8113e-08
3.20732e-10
5.80038e-08
1.94668e-10
5.79061e-08
1.73917e-10
5.78677e-08
4.39634e-11
5.78562e-08
-4.60965e-11
5.78367e-08
3.67141e-10
-2.40075e-09
5.72096e-08
1.8456e-07
1.23129e-07
1.82322e-07
1.02017e-07
1.76106e-07
6.62816e-08
1.67771e-07
4.93024e-08
1.59162e-07
3.7659e-08
1.51273e-07
2.96972e-08
1.44227e-07
2.44099e-08
1.37961e-07
2.05465e-08
1.324e-07
1.75291e-08
1.27459e-07
1.51346e-08
1.23053e-07
1.3216e-08
1.19103e-07
1.16548e-08
1.15545e-07
1.0364e-08
1.12325e-07
9.2819e-09
1.09399e-07
8.36433e-09
1.06727e-07
7.57844e-09
1.0428e-07
6.89926e-09
1.0203e-07
6.30747e-09
9.99559e-08
5.78791e-09
9.8038e-08
5.32854e-09
9.62602e-08
4.91968e-09
9.46088e-08
4.55346e-09
9.3072e-08
4.22345e-09
9.16394e-08
3.92429e-09
9.03022e-08
3.65156e-09
8.90528e-08
3.40149e-09
8.78845e-08
3.17094e-09
8.67916e-08
2.95721e-09
8.5769e-08
2.75795e-09
8.48125e-08
2.57119e-09
8.39183e-08
2.39509e-09
8.30831e-08
2.22824e-09
8.23042e-08
2.06898e-09
8.15793e-08
1.91652e-09
8.09064e-08
1.76895e-09
8.02838e-08
1.62654e-09
7.97106e-08
1.48613e-09
7.91853e-08
1.35064e-09
7.87081e-08
1.21273e-09
7.82768e-08
1.08317e-09
7.78945e-08
9.41467e-10
7.75553e-08
8.21746e-10
7.72689e-08
6.65626e-10
7.702e-08
5.69561e-10
7.68299e-08
3.84792e-10
7.66719e-08
3.31905e-10
7.65622e-08
1.53672e-10
7.65134e-08
2.68418e-12
7.64435e-08
4.37032e-10
-1.77477e-09
7.58175e-08
1.90388e-07
1.14957e-07
1.91852e-07
1.00553e-07
1.90245e-07
6.78881e-08
1.86159e-07
5.33884e-08
1.8073e-07
4.30885e-08
1.74991e-07
3.54361e-08
1.69317e-07
3.00838e-08
1.63863e-07
2.59999e-08
1.58726e-07
2.26665e-08
1.53946e-07
1.99143e-08
1.49526e-07
1.76359e-08
1.45449e-07
1.5732e-08
1.4169e-07
1.4123e-08
1.38223e-07
1.27497e-08
1.3502e-07
1.15673e-08
1.32056e-07
1.05416e-08
1.2931e-07
9.64549e-09
1.2676e-07
8.85729e-09
1.24389e-07
8.15967e-09
1.22179e-07
7.53852e-09
1.20116e-07
6.98227e-09
1.18188e-07
6.48136e-09
1.16384e-07
6.02784e-09
1.14693e-07
5.61504e-09
1.13107e-07
5.23733e-09
1.11619e-07
4.88995e-09
1.10221e-07
4.56881e-09
1.08908e-07
4.27041e-09
1.07674e-07
3.99169e-09
1.06515e-07
3.73004e-09
1.05427e-07
3.48303e-09
1.04407e-07
3.24873e-09
1.03451e-07
3.02501e-09
1.02557e-07
2.81065e-09
1.01722e-07
2.6033e-09
1.00946e-07
2.40296e-09
1.00226e-07
2.2059e-09
9.95614e-08
2.01518e-09
9.8952e-08
1.8222e-09
9.83958e-08
1.63936e-09
9.78948e-08
1.44241e-09
9.74452e-08
1.2714e-09
9.70527e-08
1.05807e-09
9.67093e-08
9.13017e-10
9.64233e-08
6.7076e-10
9.61899e-08
5.65348e-10
9.59938e-08
3.49731e-10
9.58761e-08
1.20415e-10
9.57537e-08
5.59386e-10
-1.11507e-09
9.5094e-08
1.95541e-07
1.07231e-07
1.98247e-07
9.78465e-08
1.98969e-07
6.71664e-08
1.97791e-07
5.4567e-08
1.95164e-07
4.57155e-08
1.91832e-07
3.87681e-08
1.88116e-07
3.37994e-08
1.84189e-07
2.99267e-08
1.80201e-07
2.66549e-08
1.76261e-07
2.38544e-08
1.72437e-07
2.14599e-08
1.68767e-07
1.94018e-08
1.65271e-07
1.7619e-08
1.61956e-07
1.60641e-08
1.58823e-07
1.47002e-08
1.55868e-07
1.34975e-08
1.53081e-07
1.24316e-08
1.50456e-07
1.14824e-08
1.47983e-07
1.0633e-08
1.45652e-07
9.86944e-09
1.43455e-07
9.17976e-09
1.41382e-07
8.55397e-09
1.39426e-07
7.98356e-09
1.3758e-07
7.46124e-09
1.35837e-07
6.98077e-09
1.3419e-07
6.53677e-09
1.32634e-07
6.12458e-09
1.31164e-07
5.74015e-09
1.29776e-07
5.3799e-09
1.28465e-07
5.04074e-09
1.27229e-07
4.7198e-09
1.26063e-07
4.41471e-09
1.24965e-07
4.12296e-09
1.23932e-07
3.84294e-09
1.22964e-07
3.57196e-09
1.22057e-07
3.30967e-09
1.21211e-07
3.05197e-09
1.20424e-07
2.8018e-09
1.19697e-07
2.54984e-09
1.19027e-07
2.30913e-09
1.18416e-07
2.05353e-09
1.17862e-07
1.8256e-09
1.17366e-07
1.55338e-09
1.16928e-07
1.35077e-09
1.16546e-07
1.05345e-09
1.16229e-07
8.81999e-10
1.15946e-07
6.32694e-10
1.15739e-07
3.27504e-10
1.15562e-07
7.36491e-10
-4.4131e-10
1.14888e-07
2.00848e-07
9.99678e-08
2.03776e-07
9.49186e-08
2.05327e-07
6.5615e-08
2.05644e-07
5.42506e-08
2.0482e-07
4.65397e-08
2.03344e-07
4.02439e-08
2.01406e-07
3.5737e-08
1.99092e-07
3.22405e-08
1.96509e-07
2.92383e-08
1.93759e-07
2.66043e-08
1.90924e-07
2.42955e-08
1.88063e-07
2.2263e-08
1.8522e-07
2.04619e-08
1.82427e-07
1.88573e-08
1.79705e-07
1.7422e-08
1.77069e-07
1.61338e-08
1.74526e-07
1.49738e-08
1.72083e-07
1.39258e-08
1.6974e-07
1.29759e-08
1.67498e-07
1.21118e-08
1.65354e-07
1.13231e-08
1.63308e-07
1.06007e-08
1.61355e-07
9.93651e-09
1.59492e-07
9.32357e-09
1.57717e-07
8.75575e-09
1.56026e-07
8.22767e-09
1.54416e-07
7.73459e-09
1.52884e-07
7.2723e-09
1.51427e-07
6.83707e-09
1.50042e-07
6.42557e-09
1.48727e-07
6.03473e-09
1.4748e-07
5.66194e-09
1.46299e-07
5.30446e-09
1.45181e-07
4.9604e-09
1.44126e-07
4.62688e-09
1.43133e-07
4.30322e-09
1.422e-07
3.98517e-09
1.41326e-07
3.67536e-09
1.40512e-07
3.36425e-09
1.39756e-07
3.06475e-09
1.39059e-07
2.75037e-09
1.38421e-07
2.46346e-09
1.37841e-07
2.1332e-09
1.37323e-07
1.86884e-09
1.36858e-07
1.51923e-09
1.36464e-07
1.276e-09
1.36104e-07
9.92287e-10
1.35809e-07
6.22805e-10
1.35575e-07
9.70376e-10
2.11676e-10
1.34922e-07
2.06447e-07
9.3053e-08
2.0934e-07
9.2026e-08
2.11037e-07
6.39175e-08
2.11931e-07
5.33562e-08
2.12002e-07
4.64695e-08
2.11618e-07
4.06273e-08
2.10895e-07
3.64606e-08
2.09835e-07
3.33004e-08
2.08477e-07
3.05958e-08
2.06881e-07
2.82003e-08
2.05103e-07
2.60737e-08
2.03192e-07
2.41741e-08
2.0119e-07
2.24634e-08
1.99134e-07
2.09136e-08
1.97052e-07
1.95041e-08
1.94967e-07
1.82186e-08
1.92898e-07
1.70433e-08
1.90857e-07
1.59662e-08
1.88856e-07
1.49768e-08
1.86903e-07
1.40656e-08
1.85001e-07
1.32245e-08
1.83156e-07
1.24457e-08
1.8137e-07
1.17227e-08
1.79644e-07
1.10495e-08
1.77979e-07
1.04206e-08
1.76376e-07
9.83122e-09
1.74833e-07
9.27697e-09
1.73352e-07
8.75394e-09
1.7193e-07
8.25855e-09
1.70568e-07
7.78759e-09
1.69265e-07
7.33805e-09
1.68019e-07
6.90729e-09
1.66831e-07
6.49256e-09
1.657e-07
6.09184e-09
1.64625e-07
5.70226e-09
1.63605e-07
5.32287e-09
1.62641e-07
4.94948e-09
1.61732e-07
4.58434e-09
1.60878e-07
4.21805e-09
1.6008e-07
3.86296e-09
1.59337e-07
3.49328e-09
1.58651e-07
3.14939e-09
1.58019e-07
2.76476e-09
1.57449e-07
2.43908e-09
1.56927e-07
2.04111e-09
1.56476e-07
1.72669e-09
1.56061e-07
1.40731e-09
1.55697e-07
9.874e-10
1.55416e-07
1.25101e-09
8.1531e-10
1.54812e-07
2.12289e-07
8.64265e-08
2.15152e-07
8.91624e-08
2.16791e-07
6.22784e-08
2.17844e-07
5.23038e-08
2.1826e-07
4.60533e-08
2.18378e-07
4.05093e-08
2.18306e-07
3.65329e-08
2.18013e-07
3.35931e-08
2.17493e-07
3.11154e-08
2.16766e-07
2.89272e-08
2.15857e-07
2.6983e-08
2.14791e-07
2.52402e-08
2.13594e-07
2.36601e-08
2.12292e-07
2.22156e-08
2.10909e-07
2.08878e-08
2.09464e-07
1.96629e-08
2.07978e-07
1.85299e-08
2.06465e-07
1.74792e-08
2.04939e-07
1.65028e-08
2.03411e-07
1.55935e-08
2.0189e-07
1.47449e-08
2.00385e-07
1.39512e-08
1.989e-07
1.32071e-08
1.97442e-07
1.25077e-08
1.96014e-07
1.18486e-08
1.9462e-07
1.12257e-08
1.93261e-07
1.06354e-08
1.91941e-07
1.00742e-08
1.90661e-07
9.53908e-09
1.89421e-07
9.02702e-09
1.88224e-07
8.53533e-09
1.8707e-07
8.06154e-09
1.85959e-07
7.60308e-09
1.84893e-07
7.15796e-09
1.83872e-07
6.72344e-09
1.82896e-07
6.29847e-09
1.81967e-07
5.879e-09
1.81084e-07
5.46703e-09
1.80249e-07
5.05346e-09
1.79462e-07
4.64993e-09
1.78723e-07
4.23194e-09
1.78035e-07
3.83692e-09
1.77396e-07
3.40453e-09
1.76813e-07
3.02216e-09
1.76272e-07
2.58163e-09
1.75797e-07
2.2017e-09
1.75358e-07
1.84652e-09
1.74955e-07
1.39009e-09
1.7465e-07
1.5564e-09
1.3439e-09
1.74121e-07
2.1833e-07
8.00772e-08
2.21206e-07
8.62864e-08
2.22764e-07
6.07204e-08
2.23843e-07
5.12245e-08
2.24369e-07
4.55278e-08
2.24664e-07
4.0214e-08
2.24867e-07
3.633e-08
2.24951e-07
3.35096e-08
2.24893e-07
3.11725e-08
2.24697e-07
2.91241e-08
2.24365e-07
2.73142e-08
2.23907e-07
2.56988e-08
2.2333e-07
2.42367e-08
2.22647e-07
2.28985e-08
2.21871e-07
2.16642e-08
2.21014e-07
2.05198e-08
2.2009e-07
1.94543e-08
2.1911e-07
1.84591e-08
2.18086e-07
1.75268e-08
2.17028e-07
1.66515e-08
2.15945e-07
1.58276e-08
2.14846e-07
1.50503e-08
2.13738e-07
1.43155e-08
2.12626e-07
1.36191e-08
2.11517e-07
1.29574e-08
2.10416e-07
1.23271e-08
2.09326e-07
1.17253e-08
2.08252e-07
1.11488e-08
2.07195e-07
1.05952e-08
2.0616e-07
1.00619e-08
2.05149e-07
9.54652e-09
2.04164e-07
9.04686e-09
2.03206e-07
8.56062e-09
2.02278e-07
8.08596e-09
2.01382e-07
7.62032e-09
2.00517e-07
7.16271e-09
1.99687e-07
6.70926e-09
1.98892e-07
6.26183e-09
1.98134e-07
5.81169e-09
1.97414e-07
5.36976e-09
1.96733e-07
4.91321e-09
1.96094e-07
4.4759e-09
1.95494e-07
4.00481e-09
1.94942e-07
3.57373e-09
1.94426e-07
3.0982e-09
1.93965e-07
2.66233e-09
1.93539e-07
2.27289e-09
1.93136e-07
1.7928e-09
1.92836e-07
1.85646e-09
1.77481e-09
1.92405e-07
2.24559e-07
7.40118e-08
2.2747e-07
8.33748e-08
2.28961e-07
5.92297e-08
2.30045e-07
5.01401e-08
2.30612e-07
4.49611e-08
2.30956e-07
3.987e-08
2.31248e-07
3.60379e-08
2.31479e-07
3.32787e-08
2.31629e-07
3.10223e-08
2.31697e-07
2.9056e-08
2.31683e-07
2.7328e-08
2.31586e-07
2.57958e-08
2.31406e-07
2.44168e-08
2.31145e-07
2.31593e-08
2.30808e-07
2.2002e-08
2.30398e-07
2.09293e-08
2.29923e-07
1.99295e-08
2.29388e-07
1.89934e-08
2.28802e-07
1.81136e-08
2.28169e-07
1.72838e-08
2.27498e-07
1.64989e-08
2.26794e-07
1.57543e-08
2.26063e-07
1.50462e-08
2.25312e-07
1.43709e-08
2.24544e-07
1.37252e-08
2.23765e-07
1.31061e-08
2.22979e-07
1.25111e-08
2.22191e-07
1.19374e-08
2.21403e-07
1.1383e-08
2.20619e-07
1.08454e-08
2.19843e-07
1.03228e-08
2.19077e-07
9.81299e-09
2.18323e-07
9.31406e-09
2.17585e-07
8.82433e-09
2.16864e-07
8.34142e-09
2.16162e-07
7.86445e-09
2.15482e-07
7.3897e-09
2.14825e-07
6.91902e-09
2.14192e-07
6.44406e-09
2.13587e-07
5.97498e-09
2.13009e-07
5.49089e-09
2.12464e-07
5.0217e-09
2.11946e-07
4.52225e-09
2.11467e-07
4.05253e-09
2.11015e-07
3.55049e-09
2.10607e-07
3.07061e-09
2.10229e-07
2.65013e-09
2.09865e-07
2.157e-09
2.09602e-07
2.11947e-09
2.09072e-09
2.09286e-07
2.30979e-07
6.82383e-08
2.33935e-07
8.04195e-08
2.35366e-07
5.77984e-08
2.36457e-07
4.90495e-08
2.37057e-07
4.43607e-08
2.37416e-07
3.95106e-08
2.3773e-07
3.57243e-08
2.38007e-07
3.30022e-08
2.38232e-07
3.07971e-08
2.38408e-07
2.88796e-08
2.38538e-07
2.7198e-08
2.38621e-07
2.57134e-08
2.38653e-07
2.43841e-08
2.38635e-07
2.31779e-08
2.38565e-07
2.20721e-08
2.38444e-07
2.10504e-08
2.38273e-07
2.01003e-08
2.38055e-07
1.92117e-08
2.37791e-07
1.83767e-08
2.37486e-07
1.75887e-08
2.37143e-07
1.68421e-08
2.36765e-07
1.61323e-08
2.36356e-07
1.54552e-08
2.3592e-07
1.48072e-08
2.3546e-07
1.41852e-08
2.3498e-07
1.35863e-08
2.34483e-07
1.30078e-08
2.33973e-07
1.24475e-08
2.33453e-07
1.19031e-08
2.32925e-07
1.13726e-08
2.32394e-07
1.08541e-08
2.31861e-07
1.03457e-08
2.3133e-07
9.84562e-09
2.30802e-07
9.35226e-09
2.3028e-07
8.8634e-09
2.29766e-07
8.37827e-09
2.29262e-07
7.89328e-09
2.28771e-07
7.41024e-09
2.28294e-07
6.92123e-09
2.27833e-07
6.43556e-09
2.2739e-07
5.93446e-09
2.26968e-07
5.44366e-09
2.26564e-07
4.92593e-09
2.26189e-07
4.42812e-09
2.25831e-07
3.9079e-09
2.25505e-07
3.39644e-09
2.25206e-07
2.9493e-09
2.24913e-07
2.45067e-09
2.24714e-07
2.31843e-09
2.28225e-09
2.24522e-07
2.37601e-07
6.27626e-08
2.40602e-07
7.74179e-08
2.41976e-07
5.64242e-08
2.43072e-07
4.7954e-08
2.43709e-07
4.37231e-08
2.44082e-07
3.91378e-08
2.44401e-07
3.54052e-08
2.44691e-07
3.27131e-08
2.44939e-07
3.0549e-08
2.45151e-07
2.86668e-08
2.45335e-07
2.70139e-08
2.45492e-07
2.55567e-08
2.45621e-07
2.42557e-08
2.4572e-07
2.30788e-08
2.45788e-07
2.20033e-08
2.45826e-07
2.10128e-08
2.45832e-07
2.00944e-08
2.45806e-07
1.92376e-08
2.45749e-07
1.8434e-08
2.45661e-07
1.76767e-08
2.45543e-07
1.69597e-08
2.45397e-07
1.62781e-08
2.45225e-07
1.56275e-08
2.45028e-07
1.50043e-08
2.44808e-07
1.44051e-08
2.44567e-07
1.38269e-08
2.44308e-07
1.3267e-08
2.44033e-07
1.27231e-08
2.43743e-07
1.21928e-08
2.43441e-07
1.16742e-08
2.4313e-07
1.11654e-08
2.42811e-07
1.06646e-08
2.42487e-07
1.01699e-08
2.42159e-07
9.67991e-09
2.4183e-07
9.19244e-09
2.41502e-07
8.70679e-09
2.41176e-07
8.21941e-09
2.40854e-07
7.73206e-09
2.40538e-07
7.23725e-09
2.4023e-07
6.74332e-09
2.39931e-07
6.23374e-09
2.39644e-07
5.73e-09
2.39368e-07
5.2024e-09
2.3911e-07
4.68602e-09
2.38863e-07
4.15473e-09
2.38637e-07
3.62286e-09
2.38432e-07
3.15373e-09
2.38229e-07
2.65374e-09
2.38112e-07
2.43606e-09
2.34988e-09
2.38044e-07
2.44431e-07
5.75883e-08
2.47472e-07
7.43765e-08
2.48797e-07
5.5099e-08
2.49893e-07
4.68582e-08
2.50569e-07
4.30469e-08
2.50959e-07
3.87477e-08
2.51283e-07
3.50816e-08
2.51577e-07
3.24184e-08
2.51833e-07
3.0293e-08
2.52057e-07
2.84429e-08
2.52258e-07
2.68128e-08
2.52441e-07
2.53743e-08
2.52606e-07
2.40908e-08
2.52753e-07
2.29313e-08
2.52883e-07
2.18733e-08
2.52995e-07
2.09006e-08
2.53089e-07
2.00004e-08
2.53165e-07
1.91625e-08
2.53221e-07
1.8378e-08
2.53257e-07
1.764e-08
2.53275e-07
1.69423e-08
2.53273e-07
1.62798e-08
2.53253e-07
1.56479e-08
2.53214e-07
1.50429e-08
2.53158e-07
1.44611e-08
2.53086e-07
1.38994e-08
2.52998e-07
1.3355e-08
2.52895e-07
1.28254e-08
2.5278e-07
1.23082e-08
2.52653e-07
1.18015e-08
2.52515e-07
1.1303e-08
2.52368e-07
1.08112e-08
2.52214e-07
1.03241e-08
2.52054e-07
9.84027e-09
2.51889e-07
9.35748e-09
2.51721e-07
8.87509e-09
2.5155e-07
8.38959e-09
2.5138e-07
7.90258e-09
2.5121e-07
7.40706e-09
2.51043e-07
6.91029e-09
2.50879e-07
6.39797e-09
2.50721e-07
5.88748e-09
2.50568e-07
5.35597e-09
2.50425e-07
4.82845e-09
2.50289e-07
4.29122e-09
2.50164e-07
3.74766e-09
2.50057e-07
3.26064e-09
2.49951e-07
2.76025e-09
2.4992e-07
2.4671e-09
2.30415e-09
2.49965e-07
2.51478e-07
5.27171e-08
2.54549e-07
7.13051e-08
2.55836e-07
5.38124e-08
2.56926e-07
4.57677e-08
2.5764e-07
4.23329e-08
2.5805e-07
3.83376e-08
2.5838e-07
3.4752e-08
2.5868e-07
3.21183e-08
2.58941e-07
3.00317e-08
2.5917e-07
2.82143e-08
2.59377e-07
2.6606e-08
2.59567e-07
2.51836e-08
2.59744e-07
2.39139e-08
2.59909e-07
2.27666e-08
2.60062e-07
2.17199e-08
2.60205e-07
2.07581e-08
2.60337e-07
1.98686e-08
2.60458e-07
1.90414e-08
2.60568e-07
1.82678e-08
2.60667e-07
1.75408e-08
2.60755e-07
1.68544e-08
2.60832e-07
1.62032e-08
2.60897e-07
1.55828e-08
2.6095e-07
1.49891e-08
2.60993e-07
1.44185e-08
2.61025e-07
1.38679e-08
2.61045e-07
1.33341e-08
2.61056e-07
1.28147e-08
2.61057e-07
1.23072e-08
2.61049e-07
1.18095e-08
2.61033e-07
1.13193e-08
2.61009e-07
1.0835e-08
2.60978e-07
1.03546e-08
2.60942e-07
9.87657e-09
2.60901e-07
9.39872e-09
2.60856e-07
8.92036e-09
2.60807e-07
8.43802e-09
2.60757e-07
7.9531e-09
2.60705e-07
7.45911e-09
2.60653e-07
6.96213e-09
2.60601e-07
6.4501e-09
2.60552e-07
5.93651e-09
2.60503e-07
5.40444e-09
2.60461e-07
4.87077e-09
2.60421e-07
4.33061e-09
2.60388e-07
3.78116e-09
2.60369e-07
3.27927e-09
2.60353e-07
2.77679e-09
2.60402e-07
2.41743e-09
2.16352e-09
2.60543e-07
2.58751e-07
4.81493e-08
2.61842e-07
6.82134e-08
2.63101e-07
5.25539e-08
2.64181e-07
4.46876e-08
2.6493e-07
4.15838e-08
2.65363e-07
3.79054e-08
2.65699e-07
3.44156e-08
2.66005e-07
3.18126e-08
2.66272e-07
2.97647e-08
2.66505e-07
2.79815e-08
2.66715e-07
2.63959e-08
2.66909e-07
2.49895e-08
2.6709e-07
2.37325e-08
2.67261e-07
2.2596e-08
2.67422e-07
2.15585e-08
2.67576e-07
2.06046e-08
2.67722e-07
1.97225e-08
2.67861e-07
1.8902e-08
2.67994e-07
1.8135e-08
2.6812e-07
1.74144e-08
2.68241e-07
1.67342e-08
2.68354e-07
1.60894e-08
2.68462e-07
1.54753e-08
2.68563e-07
1.4888e-08
2.68658e-07
1.43238e-08
2.68746e-07
1.37794e-08
2.68828e-07
1.3252e-08
2.68905e-07
1.27387e-08
2.68975e-07
1.22371e-08
2.69039e-07
1.17449e-08
2.69099e-07
1.126e-08
2.69153e-07
1.07806e-08
2.69203e-07
1.03047e-08
2.69249e-07
9.83071e-09
2.69291e-07
9.35642e-09
2.6933e-07
8.88111e-09
2.69367e-07
8.4014e-09
2.69402e-07
7.91838e-09
2.69434e-07
7.42618e-09
2.69467e-07
6.92965e-09
2.69498e-07
6.41883e-09
2.69531e-07
5.90377e-09
2.69563e-07
5.3724e-09
2.69598e-07
4.83539e-09
2.69636e-07
4.2935e-09
2.69675e-07
3.74126e-09
2.69728e-07
3.2263e-09
2.69787e-07
2.71837e-09
2.69904e-07
2.30052e-09
1.95081e-09
2.70116e-07
2.66258e-07
4.38832e-08
2.6936e-07
6.51121e-08
2.70601e-07
5.13128e-08
2.71666e-07
4.36222e-08
2.72447e-07
4.08028e-08
2.72903e-07
3.74492e-08
2.73247e-07
3.40714e-08
2.73559e-07
3.1501e-08
2.73832e-07
2.94916e-08
2.7407e-07
2.7744e-08
2.74283e-07
2.61825e-08
2.7448e-07
2.47926e-08
2.74664e-07
2.35486e-08
2.74837e-07
2.24227e-08
2.75002e-07
2.13938e-08
2.75159e-07
2.04472e-08
2.7531e-07
1.9571e-08
2.75457e-07
1.87558e-08
2.75598e-07
1.79935e-08
2.75735e-07
1.72771e-08
2.75869e-07
1.66008e-08
2.75999e-07
1.59596e-08
2.76125e-07
1.53491e-08
2.76248e-07
1.47652e-08
2.76367e-07
1.42043e-08
2.76483e-07
1.36632e-08
2.76596e-07
1.3139e-08
2.76706e-07
1.26288e-08
2.76813e-07
1.21301e-08
2.76917e-07
1.16408e-08
2.77019e-07
1.11586e-08
2.77118e-07
1.06816e-08
2.77215e-07
1.02079e-08
2.77309e-07
9.73596e-09
2.77402e-07
9.26345e-09
2.77494e-07
8.78963e-09
2.77584e-07
8.31128e-09
2.77673e-07
7.82914e-09
2.77761e-07
7.33798e-09
2.77849e-07
6.84148e-09
2.77937e-07
6.33158e-09
2.78025e-07
5.81538e-09
2.78113e-07
5.28466e-09
2.78203e-07
4.74554e-09
2.78294e-07
4.20192e-09
2.78388e-07
3.64793e-09
2.78493e-07
3.12078e-09
2.78608e-07
2.60323e-09
2.78776e-07
2.13304e-09
1.6891e-09
2.79037e-07
2.74009e-07
3.99151e-08
2.77109e-07
6.20122e-08
2.78343e-07
5.00792e-08
2.7939e-07
4.25751e-08
2.80199e-07
3.99942e-08
2.8068e-07
3.69676e-08
2.81033e-07
3.37185e-08
2.8135e-07
3.11837e-08
2.8163e-07
2.9212e-08
2.81872e-07
2.75015e-08
2.82089e-07
2.59656e-08
2.82289e-07
2.4593e-08
2.82475e-07
2.33623e-08
2.82651e-07
2.22472e-08
2.82818e-07
2.12271e-08
2.82977e-07
2.02875e-08
2.83131e-07
1.94172e-08
2.8328e-07
1.86068e-08
2.83425e-07
1.78485e-08
2.83567e-07
1.71355e-08
2.83705e-07
1.64621e-08
2.83842e-07
1.58235e-08
2.83976e-07
1.52151e-08
2.84108e-07
1.46332e-08
2.84238e-07
1.40741e-08
2.84366e-07
1.35346e-08
2.84494e-07
1.30118e-08
2.84619e-07
1.25029e-08
2.84744e-07
1.20055e-08
2.84868e-07
1.15172e-08
2.8499e-07
1.10358e-08
2.85113e-07
1.05596e-08
2.85234e-07
1.00864e-08
2.85355e-07
9.6148e-09
2.85476e-07
9.14256e-09
2.85597e-07
8.66884e-09
2.85718e-07
8.19057e-09
2.85839e-07
7.7082e-09
2.85959e-07
7.21709e-09
2.86081e-07
6.71987e-09
2.86202e-07
6.21013e-09
2.86325e-07
5.69256e-09
2.86448e-07
5.1618e-09
2.86573e-07
4.62087e-09
2.867e-07
4.07497e-09
2.86829e-07
3.51895e-09
2.8697e-07
2.97987e-09
2.87124e-07
2.44866e-09
2.87326e-07
1.93111e-09
1.3985e-09
2.87617e-07
2.82013e-07
3.624e-08
2.851e-07
5.89251e-08
2.86336e-07
4.88432e-08
2.87362e-07
4.1549e-08
2.88193e-07
3.91626e-08
2.88702e-07
3.64594e-08
2.89065e-07
3.33556e-08
2.89387e-07
3.08608e-08
2.89673e-07
2.89261e-08
2.89921e-07
2.72535e-08
2.90142e-07
2.57447e-08
2.90345e-07
2.43902e-08
2.90534e-07
2.31733e-08
2.90712e-07
2.20693e-08
2.90881e-07
2.10583e-08
2.91042e-07
2.0126e-08
2.91198e-07
1.92615e-08
2.91349e-07
1.84559e-08
2.91496e-07
1.77015e-08
2.91639e-07
1.69917e-08
2.91781e-07
1.63209e-08
2.9192e-07
1.56844e-08
2.92057e-07
1.50777e-08
2.92193e-07
1.44972e-08
2.92328e-07
1.39392e-08
2.92462e-07
1.34006e-08
2.92595e-07
1.28784e-08
2.92728e-07
1.23699e-08
2.92861e-07
1.18727e-08
2.92994e-07
1.13844e-08
2.93127e-07
1.09029e-08
2.9326e-07
1.04263e-08
2.93394e-07
9.95259e-09
2.93528e-07
9.48036e-09
2.93664e-07
9.00739e-09
2.938e-07
8.53277e-09
2.93937e-07
8.05367e-09
2.94075e-07
7.57018e-09
2.94213e-07
7.0783e-09
2.94354e-07
6.57969e-09
2.94494e-07
6.06934e-09
2.94637e-07
5.55004e-09
2.9478e-07
5.01845e-09
2.94926e-07
4.47559e-09
2.95074e-07
3.92668e-09
2.95225e-07
3.36775e-09
2.95388e-07
2.81672e-09
2.95568e-07
2.26852e-09
2.95792e-07
1.70779e-09
1.09436e-09
2.96096e-07
2.90278e-07
3.28505e-08
2.93341e-07
5.58627e-08
2.94588e-07
4.75962e-08
2.95591e-07
4.05458e-08
2.9644e-07
3.83132e-08
2.96976e-07
3.59234e-08
2.97351e-07
3.29814e-08
2.97679e-07
3.05322e-08
2.97972e-07
2.86337e-08
2.98225e-07
2.69998e-08
2.9845e-07
2.55197e-08
2.98656e-07
2.41842e-08
2.98848e-07
2.29815e-08
2.99028e-07
2.1889e-08
2.99199e-07
2.08873e-08
2.99363e-07
1.99625e-08
2.9952e-07
1.9104e-08
2.99673e-07
1.83033e-08
2.99822e-07
1.75528e-08
2.99967e-07
1.68462e-08
3.0011e-07
1.6178e-08
3.00251e-07
1.55434e-08
3.00391e-07
1.49383e-08
3.00529e-07
1.43589e-08
3.00666e-07
1.38018e-08
3.00803e-07
1.32637e-08
3.0094e-07
1.27418e-08
3.01076e-07
1.22334e-08
3.01213e-07
1.17359e-08
3.0135e-07
1.12472e-08
3.01488e-07
1.0765e-08
3.01627e-07
1.02875e-08
3.01767e-07
9.81274e-09
3.01908e-07
9.33928e-09
3.0205e-07
8.865e-09
3.02194e-07
8.38892e-09
3.02339e-07
7.9084e-09
3.02486e-07
7.42326e-09
3.02634e-07
6.93004e-09
3.02784e-07
6.4296e-09
3.02936e-07
5.91804e-09
3.03089e-07
5.39672e-09
3.03244e-07
4.86364e-09
3.03401e-07
4.31859e-09
3.03562e-07
3.76608e-09
3.03726e-07
3.20314e-09
3.03903e-07
2.64011e-09
3.04099e-07
2.07264e-09
3.04334e-07
1.47239e-09
7.87599e-10
3.04641e-07
2.98815e-07
2.97379e-08
3.01841e-07
5.28369e-08
3.03107e-07
4.63301e-08
3.04087e-07
3.95662e-08
3.04948e-07
3.74515e-08
3.05512e-07
3.53594e-08
3.05899e-07
3.25943e-08
3.06234e-07
3.01979e-08
3.06533e-07
2.83348e-08
3.06792e-07
2.674e-08
3.07022e-07
2.529e-08
3.07232e-07
2.39746e-08
3.07426e-07
2.27867e-08
3.07609e-07
2.1706e-08
3.07783e-07
2.07139e-08
3.07948e-07
1.97968e-08
3.08108e-07
1.89446e-08
3.08262e-07
1.81488e-08
3.08413e-07
1.74024e-08
3.0856e-07
1.6699e-08
3.08705e-07
1.60334e-08
3.08847e-07
1.54008e-08
3.08988e-07
1.47972e-08
3.09128e-07
1.42189e-08
3.09268e-07
1.36625e-08
3.09407e-07
1.31249e-08
3.09545e-07
1.26032e-08
3.09684e-07
1.20946e-08
3.09823e-07
1.15967e-08
3.09963e-07
1.11073e-08
3.10104e-07
1.06242e-08
3.10246e-07
1.01455e-08
3.10389e-07
9.66945e-09
3.10534e-07
9.19448e-09
3.1068e-07
8.71859e-09
3.10829e-07
8.24073e-09
3.10978e-07
7.75849e-09
3.1113e-07
7.2714e-09
3.11284e-07
6.7765e-09
3.11439e-07
6.27398e-09
3.11597e-07
5.76082e-09
3.11756e-07
5.23731e-09
3.11917e-07
4.70228e-09
3.12081e-07
4.15476e-09
3.12249e-07
3.59824e-09
3.12422e-07
3.03027e-09
3.12607e-07
2.45525e-09
3.12812e-07
1.86732e-09
3.13054e-07
1.23093e-09
4.84653e-10
3.13357e-07
3.07634e-07
2.68917e-08
3.10611e-07
4.98598e-08
3.11902e-07
4.50382e-08
3.12858e-07
3.86103e-08
3.13727e-07
3.65829e-08
3.14319e-07
3.47676e-08
3.1472e-07
3.21928e-08
3.15061e-07
2.98576e-08
3.15366e-07
2.80295e-08
3.15632e-07
2.64738e-08
3.15867e-07
2.50554e-08
3.1608e-07
2.37613e-08
3.16278e-07
2.25886e-08
3.16464e-07
2.15201e-08
3.1664e-07
2.0538e-08
3.16808e-07
1.96288e-08
3.1697e-07
1.8783e-08
3.17126e-07
1.79924e-08
3.17278e-07
1.725e-08
3.17427e-07
1.655e-08
3.17574e-07
1.58869e-08
3.17718e-07
1.52564e-08
3.17861e-07
1.46543e-08
3.18003e-07
1.40772e-08
3.18144e-07
1.35215e-08
3.18285e-07
1.29843e-08
3.18425e-07
1.24626e-08
3.18566e-07
1.19539e-08
3.18707e-07
1.14555e-08
3.18849e-07
1.09653e-08
3.18992e-07
1.04811e-08
3.19137e-07
1.00012e-08
3.19282e-07
9.52366e-09
3.1943e-07
9.04702e-09
3.19579e-07
8.56937e-09
3.1973e-07
8.08958e-09
3.19883e-07
7.60546e-09
3.20038e-07
7.11628e-09
3.20195e-07
6.6195e-09
3.20354e-07
6.11479e-09
3.20516e-07
5.59977e-09
3.20679e-07
5.07398e-09
3.20844e-07
4.53669e-09
3.21013e-07
3.98648e-09
3.21185e-07
3.42566e-09
3.21364e-07
2.85183e-09
3.21554e-07
2.26497e-09
3.21765e-07
1.65637e-09
3.22009e-07
9.8731e-10
1.89432e-10
3.22304e-07
3.16743e-07
2.42998e-08
3.19659e-07
4.69435e-08
3.20982e-07
4.37153e-08
3.21916e-07
3.7677e-08
3.22786e-07
3.57123e-08
3.23405e-07
3.4149e-08
3.23822e-07
3.17752e-08
3.24169e-07
2.9511e-08
3.24481e-07
2.77179e-08
3.24753e-07
2.6201e-08
3.24993e-07
2.48155e-08
3.25211e-07
2.35438e-08
3.25412e-07
2.2387e-08
3.25601e-07
2.13311e-08
3.2578e-07
2.03592e-08
3.25951e-07
1.94583e-08
3.26115e-07
1.8619e-08
3.26273e-07
1.78337e-08
3.26428e-07
1.70956e-08
3.26579e-07
1.63989e-08
3.26727e-07
1.57386e-08
3.26873e-07
1.51101e-08
3.27018e-07
1.45096e-08
3.27162e-07
1.39335e-08
3.27305e-07
1.33786e-08
3.27447e-07
1.28418e-08
3.2759e-07
1.23202e-08
3.27732e-07
1.18112e-08
3.27876e-07
1.13122e-08
3.2802e-07
1.08212e-08
3.28165e-07
1.03359e-08
3.28311e-07
9.85468e-09
3.28459e-07
9.37559e-09
3.28609e-07
8.89721e-09
3.28761e-07
8.41771e-09
3.28915e-07
7.93592e-09
3.2907e-07
7.44981e-09
3.29228e-07
6.95846e-09
3.29388e-07
6.4597e-09
3.2955e-07
5.95275e-09
3.29714e-07
5.43571e-09
3.2988e-07
4.90761e-09
3.30049e-07
4.36786e-09
3.30221e-07
3.81475e-09
3.30397e-07
3.2495e-09
3.3058e-07
2.6692e-09
3.30774e-07
2.07078e-09
3.30988e-07
1.44207e-09
3.31231e-07
7.44044e-10
-9.60255e-11
3.31517e-07
3.26154e-07
2.19489e-08
3.28997e-07
4.40997e-08
3.30355e-07
4.23576e-08
3.31268e-07
3.67643e-08
3.32135e-07
3.48448e-08
3.32779e-07
3.35055e-08
3.33214e-07
3.13401e-08
3.33568e-07
2.91573e-08
3.33886e-07
2.74001e-08
3.34165e-07
2.59213e-08
3.34411e-07
2.457e-08
3.34633e-07
2.33219e-08
3.34838e-07
2.21816e-08
3.3503e-07
2.11388e-08
3.35212e-07
2.01774e-08
3.35385e-07
1.9285e-08
3.35552e-07
1.84525e-08
3.35713e-07
1.76727e-08
3.3587e-07
1.69389e-08
3.36023e-07
1.62457e-08
3.36173e-07
1.55881e-08
3.36322e-07
1.49617e-08
3.36468e-07
1.43628e-08
3.36614e-07
1.37879e-08
3.36759e-07
1.32337e-08
3.36904e-07
1.26973e-08
3.37048e-07
1.21757e-08
3.37193e-07
1.16664e-08
3.37338e-07
1.11669e-08
3.37484e-07
1.0675e-08
3.37632e-07
1.01886e-08
3.3778e-07
9.70592e-09
3.37931e-07
9.22523e-09