/*--------------------------------*- C++ -*----------------------------------*\
  =========                 |
  \\      /  F ield         | OpenFOAM: The Open Source CFD Toolbox
   \\    /   O peration     | Website:  https://openfoam.org
    \\  /    A nd           | Version:  7
     \\/     M anipulation  |
\*---------------------------------------------------------------------------*/
FoamFile
{
    version     2.0;
    format      ascii;
    class       volVectorField;
    location    "0.17";
    object      U;
}
// * * * * * * * * * * * * * * * * * * * * * * * * * * * * * * * * * * * * * //

dimensions      [0 1 -1 0 0 0 0];

internalField   nonuniform List<vector> 
70000
(
(0.553391 0.016723 0)
(0.251264 0.00340092 0)
(0.166212 0.00032188 0)
(0.132476 5.41717e-05 0)
(0.117302 4.55983e-05 0)
(0.107399 5.37522e-05 0)
(0.0994773 4.60992e-05 0)
(0.0930676 3.67383e-05 0)
(0.087857 3.04027e-05 0)
(0.083525 2.60557e-05 0)
(0.0798428 2.2738e-05 0)
(0.0766624 2.00767e-05 0)
(0.0738821 1.79018e-05 0)
(0.0714278 1.61e-05 0)
(0.0692433 1.45869e-05 0)
(0.0672852 1.33004e-05 0)
(0.0655193 1.21941e-05 0)
(0.0639183 1.12331e-05 0)
(0.0624602 1.03906e-05 0)
(0.061127 9.64563e-06 0)
(0.0599039 8.9816e-06 0)
(0.0587784 8.38511e-06 0)
(0.0577402 7.84524e-06 0)
(0.0567807 7.35302e-06 0)
(0.0558925 6.90076e-06 0)
(0.0550692 6.48238e-06 0)
(0.0543055 6.09196e-06 0)
(0.0535969 5.7258e-06 0)
(0.0529396 5.37834e-06 0)
(0.05233 5.04882e-06 0)
(0.0517655 4.72983e-06 0)
(0.0512436 4.42566e-06 0)
(0.0507622 4.12315e-06 0)
(0.0503197 3.83767e-06 0)
(0.0499147 3.53969e-06 0)
(0.0495459 3.27113e-06 0)
(0.0492125 2.96371e-06 0)
(0.048914 2.71468e-06 0)
(0.0486487 2.3914e-06 0)
(0.0484197 2.14693e-06 0)
(0.0482181 1.86658e-06 0)
(0.0480632 1.48324e-06 0)
(0.0479119 1.60285e-06 0)
(0.0478524 4.09009e-07 0)
(0.0477031 2.33641e-06 0)
(0.0478155 -2.09324e-06 0)
(0.0475014 6.92349e-06 0)
(0.0480231 -9.8937e-06 0)
(0.0471123 3.90348e-05 0)
(0.0452523 -0.0018543 0)
(0.884899 0.0431672 0)
(0.649721 0.0201935 0)
(0.494341 0.00659723 0)
(0.403716 0.00276592 0)
(0.354836 0.00154972 0)
(0.323593 0.00112873 0)
(0.299809 0.000906985 0)
(0.280699 0.000742605 0)
(0.265083 0.000619329 0)
(0.252068 0.000528189 0)
(0.241001 0.000458937 0)
(0.231441 0.00040438 0)
(0.223081 0.000360232 0)
(0.215698 0.000323828 0)
(0.209124 0.000293352 0)
(0.203228 0.000267503 0)
(0.197908 0.000245324 0)
(0.193082 0.000226093 0)
(0.188685 0.000209258 0)
(0.184662 0.000194391 0)
(0.180969 0.000181152 0)
(0.177569 0.000169269 0)
(0.174431 0.000158519 0)
(0.171528 0.000148721 0)
(0.168839 0.000139722 0)
(0.166344 0.000131395 0)
(0.164028 0.000123632 0)
(0.161877 0.000116341 0)
(0.159879 0.000109436 0)
(0.158024 0.000102855 0)
(0.156303 9.65201e-05 0)
(0.15471 9.03974e-05 0)
(0.153238 8.43958e-05 0)
(0.151881 7.85322e-05 0)
(0.150637 7.26538e-05 0)
(0.149501 6.6896e-05 0)
(0.14847 6.0933e-05 0)
(0.147544 5.51857e-05 0)
(0.146717 4.89131e-05 0)
(0.145999 4.31656e-05 0)
(0.145365 3.63579e-05 0)
(0.144868 3.071e-05 0)
(0.144395 2.33208e-05 0)
(0.144179 1.79141e-05 0)
(0.143745 1.09216e-05 0)
(0.144012 5.29483e-06 0)
(0.143216 7.31057e-06 0)
(0.144542 -2.50273e-05 0)
(0.142473 0.000223066 0)
(0.142469 -0.00270651 0)
(0.991237 0.0499012 0)
(0.890351 0.0307178 0)
(0.762704 0.0145953 0)
(0.656732 0.00797543 0)
(0.58547 0.00487875 0)
(0.536152 0.00346314 0)
(0.498396 0.00272594 0)
(0.467908 0.00223217 0)
(0.44274 0.00186774 0)
(0.421591 0.00159497 0)
(0.403513 0.00138644 0)
(0.387836 0.00122213 0)
(0.374083 0.00108927 0)
(0.361906 0.00097972 0)
(0.351037 0.000887992 0)
(0.34127 0.000810173 0)
(0.332442 0.000743388 0)
(0.324421 0.000685474 0)
(0.317102 0.000634777 0)
(0.310396 0.000590005 0)
(0.304232 0.00055014 0)
(0.29855 0.000514363 0)
(0.293298 0.000482007 0)
(0.288434 0.000452526 0)
(0.283922 0.000425464 0)
(0.27973 0.000400438 0)
(0.275833 0.000377121 0)
(0.272207 0.000355238 0)
(0.268834 0.000334538 0)
(0.265695 0.00031482 0)
(0.262779 0.000295869 0)
(0.260071 0.000277555 0)
(0.257562 0.000259645 0)
(0.255243 0.00024212 0)
(0.253107 0.000224625 0)
(0.251149 0.000207393 0)
(0.249362 0.000189702 0)
(0.247747 0.000172418 0)
(0.246294 0.000153834 0)
(0.245016 0.000136466 0)
(0.243881 0.000116036 0)
(0.24296 9.93166e-05 0)
(0.242096 7.55154e-05 0)
(0.241618 6.20181e-05 0)
(0.240863 3.27874e-05 0)
(0.241102 2.78894e-05 0)
(0.23995 1.88295e-06 0)
(0.241592 -4.0256e-05 0)
(0.239028 0.000262852 0)
(0.240859 -0.00245799 0)
(1.0156 0.0489201 0)
(1.00596 0.0358736 0)
(0.935963 0.020788 0)
(0.852167 0.0134973 0)
(0.78229 0.00919712 0)
(0.727187 0.00676667 0)
(0.682233 0.00536532 0)
(0.644633 0.00442303 0)
(0.612796 0.00372657 0)
(0.585531 0.0031983 0)
(0.561897 0.00278974 0)
(0.541186 0.00246566 0)
(0.522868 0.00220247 0)
(0.506538 0.00198472 0)
(0.491881 0.00180185 0)
(0.478647 0.00164633 0)
(0.466636 0.00151259 0)
(0.455685 0.00139641 0)
(0.445659 0.00129456 0)
(0.436447 0.00120452 0)
(0.427958 0.00112427 0)
(0.420112 0.00105221 0)
(0.412844 0.000987008 0)
(0.406098 0.000927588 0)
(0.399826 0.000873043 0)
(0.393987 0.000822612 0)
(0.388546 0.000775646 0)
(0.383473 0.000731591 0)
(0.378741 0.000689955 0)
(0.374328 0.000650326 0)
(0.370215 0.000612291 0)
(0.366385 0.000575564 0)
(0.362824 0.000539718 0)
(0.359519 0.000504647 0)
(0.356463 0.00046975 0)
(0.353644 0.000435309 0)
(0.351059 0.00040015 0)
(0.348701 0.000365585 0)
(0.346565 0.000328767 0)
(0.344659 0.000293963 0)
(0.342951 0.000253398 0)
(0.341517 0.000219991 0)
(0.340186 0.000171749 0)
(0.339315 0.000145799 0)
(0.338193 8.29745e-05 0)
(0.338161 7.71069e-05 0)
(0.33678 8.13784e-06 0)
(0.338154 -4.0152e-05 0)
(0.335766 0.000257626 0)
(0.337425 -0.00197009 0)
(1.01434 0.0460035 0)
(1.04753 0.037487 0)
(1.02458 0.0241471 0)
(0.974781 0.0175498 0)
(0.923515 0.013107 0)
(0.876826 0.0101844 0)
(0.834786 0.00831456 0)
(0.797199 0.00698786 0)
(0.763831 0.00597303 0)
(0.734239 0.00518101 0)
(0.707909 0.00455479 0)
(0.684365 0.00405014 0)
(0.663207 0.0036355 0)
(0.6441 0.00328931 0)
(0.626766 0.00299641 0)
(0.610976 0.00274578 0)
(0.596534 0.00252912 0)
(0.58328 0.00234011 0)
(0.571075 0.00217381 0)
(0.559805 0.00202634 0)
(0.54937 0.00189457 0)
(0.539687 0.00177599 0)
(0.530682 0.00166851 0)
(0.522294 0.00157043 0)
(0.51447 0.00148029 0)
(0.507162 0.00139689 0)
(0.50033 0.00131919 0)
(0.49394 0.0012463 0)
(0.487962 0.00117741 0)
(0.482368 0.00111187 0)
(0.477136 0.00104901 0)
(0.472246 0.000988338 0)
(0.467683 0.000929211 0)
(0.46343 0.000871382 0)
(0.459477 0.000813983 0)
(0.455812 0.000757281 0)
(0.452429 0.000699657 0)
(0.44932 0.000642784 0)
(0.446481 0.000582686 0)
(0.443914 0.00052533 0)
(0.441594 0.000459355 0)
(0.439584 0.000403935 0)
(0.437735 0.000325734 0)
(0.436363 0.00028109 0)
(0.434844 0.000180585 0)
(0.43433 0.000162017 0)
(0.43279 5.63496e-05 0)
(0.433479 -2.22053e-05 0)
(0.431544 0.000287763 0)
(0.432164 -0.00151995 0)
(1.00933 0.0429149 0)
(1.05527 0.0372622 0)
(1.05869 0.0252908 0)
(1.03638 0.0197479 0)
(1.00714 0.0157925 0)
(0.976145 0.0129081 0)
(0.944714 0.0109229 0)
(0.913983 0.00943235 0)
(0.884804 0.00823424 0)
(0.857559 0.00725937 0)
(0.832323 0.00646278 0)
(0.809031 0.00580424 0)
(0.787558 0.00525227 0)
(0.767759 0.00478396 0)
(0.749484 0.0043825 0)
(0.732592 0.0040352 0)
(0.71695 0.0037322 0)
(0.70244 0.00346581 0)
(0.688955 0.00322986 0)
(0.6764 0.00301943 0)
(0.664692 0.00283049 0)
(0.653755 0.00265973 0)
(0.643525 0.00250441 0)
(0.633944 0.00236222 0)
(0.624962 0.00223122 0)
(0.616534 0.00210975 0)
(0.60862 0.00199638 0)
(0.601186 0.00188988 0)
(0.594202 0.00178915 0)
(0.58764 0.00169323 0)
(0.581478 0.00160122 0)
(0.575694 0.0015124 0)
(0.570272 0.00142589 0)
(0.565196 0.00134127 0)
(0.560454 0.00125742 0)
(0.556032 0.00117451 0)
(0.551927 0.00109056 0)
(0.548125 0.00100743 0)
(0.544627 0.00092022 0)
(0.541428 0.000836211 0)
(0.538514 0.0007411 0)
(0.535925 0.000658954 0)
(0.533557 0.000547878 0)
(0.531638 0.000477463 0)
(0.52971 0.000340214 0)
(0.528613 0.000294059 0)
(0.526898 0.000162214 0)
(0.526789 3.21217e-05 0)
(0.525125 0.000356396 0)
(0.524912 -0.00105342 0)
(1.00625 0.0400335 0)
(1.05206 0.0363347 0)
(1.06609 0.0252198 0)
(1.0596 0.0205467 0)
(1.04689 0.017217 0)
(1.03084 0.0146235 0)
(1.01201 0.0127755 0)
(0.991422 0.0113389 0)
(0.97015 0.0101314 0)
(0.948923 0.00910541 0)
(0.928185 0.00823552 0)
(0.908195 0.00749378 0)
(0.889097 0.00685566 0)
(0.870958 0.00630225 0)
(0.853793 0.00581895 0)
(0.837588 0.00539417 0)
(0.822309 0.00501855 0)
(0.807912 0.00468442 0)
(0.794347 0.00438549 0)
(0.781567 0.00411653 0)
(0.76952 0.00387318 0)
(0.75816 0.00365176 0)
(0.747443 0.00344916 0)
(0.737329 0.00326273 0)
(0.727778 0.00309019 0)
(0.718758 0.00292957 0)
(0.710237 0.00277915 0)
(0.702186 0.00263742 0)
(0.694582 0.00250304 0)
(0.687399 0.00237483 0)
(0.68062 0.00225164 0)
(0.674224 0.00213257 0)
(0.668199 0.00201652 0)
(0.662527 0.00190288 0)
(0.657201 0.00179034 0)
(0.652207 0.0016789 0)
(0.647541 0.00156633 0)
(0.64319 0.0014545 0)
(0.639159 0.0013379 0)
(0.635434 0.00122453 0)
(0.632018 0.00109826 0)
(0.628923 0.000985858 0)
(0.626094 0.00084106 0)
(0.623669 0.000738851 0)
(0.621357 0.000567528 0)
(0.619701 0.000482482 0)
(0.61776 0.000330527 0)
(0.616946 0.000144564 0)
(0.615287 0.000459284 0)
(0.614538 -0.000561075 0)
(1.00495 0.0373554 0)
(1.04727 0.0352526 0)
(1.06398 0.0246797 0)
(1.06426 0.0205725 0)
(1.06069 0.0177535 0)
(1.05477 0.0154635 0)
(1.04605 0.0138282 0)
(1.03492 0.0125538 0)
(1.0221 0.0114541 0)
(1.00821 0.0104881 0)
(0.993695 0.00964253 0)
(0.978915 0.00890014 0)
(0.964133 0.00824412 0)
(0.94954 0.00766126 0)
(0.935272 0.00714117 0)
(0.921416 0.00667528 0)
(0.90803 0.00625631 0)
(0.895147 0.00587805 0)
(0.882781 0.00553514 0)
(0.870937 0.00522297 0)
(0.85961 0.00493757 0)
(0.848788 0.00467546 0)
(0.83846 0.00443362 0)
(0.828607 0.00420941 0)
(0.819215 0.00400052 0)
(0.810265 0.00380488 0)
(0.801741 0.00362068 0)
(0.793627 0.0034463 0)
(0.785908 0.00328026 0)
(0.778568 0.00312124 0)
(0.771596 0.00296798 0)
(0.764979 0.00281941 0)
(0.758706 0.00267429 0)
(0.752767 0.00253186 0)
(0.747157 0.00239067 0)
(0.741863 0.00225055 0)
(0.736887 0.00210912 0)
(0.732215 0.00196811 0)
(0.727856 0.00182173 0)
(0.723795 0.00167811 0)
(0.720041 0.00152046 0)
(0.716592 0.00137614 0)
(0.713429 0.0011983 0)
(0.710623 0.00106083 0)
(0.708005 0.000858076 0)
(0.705908 0.000728644 0)
(0.703742 0.000557492 0)
(0.702382 0.000324144 0)
(0.700611 0.000601397 0)
(0.699484 -6.96147e-05 0)
(1.0044 0.0348075 0)
(1.04324 0.0341793 0)
(1.05994 0.0240386 0)
(1.06229 0.0202785 0)
(1.0625 0.0178168 0)
(1.06181 0.0157433 0)
(1.05926 0.0142799 0)
(1.05475 0.0131688 0)
(1.0486 0.0122089 0)
(1.04112 0.011352 0)
(1.0326 0.0105877 0)
(1.0233 0.00990291 0)
(1.01345 0.00928475 0)
(1.00324 0.00872376 0)
(0.992836 0.00821292 0)
(0.982368 0.00774652 0)
(0.971937 0.00731965 0)
(0.961623 0.00692795 0)
(0.951483 0.00656755 0)
(0.941564 0.006235 0)
(0.931896 0.00592715 0)
(0.922503 0.00564122 0)
(0.913399 0.00537466 0)
(0.904595 0.00512517 0)
(0.896096 0.00489069 0)
(0.887904 0.00466934 0)
(0.880019 0.00445941 0)
(0.87244 0.00425933 0)
(0.865165 0.00406766 0)
(0.858189 0.00388309 0)
(0.851509 0.00370431 0)
(0.845121 0.0035302 0)
(0.839022 0.0033595 0)
(0.833208 0.00319132 0)
(0.827677 0.00302417 0)
(0.822424 0.0028577 0)
(0.817452 0.00268951 0)
(0.812752 0.00252111 0)
(0.808336 0.0023467 0)
(0.804188 0.00217413 0)
(0.800326 0.00198678 0)
(0.79674 0.00181113 0)
(0.793429 0.00160238 0)
(0.79043 0.0014291 0)
(0.787646 0.00119771 0)
(0.785283 0.00102326 0)
(0.782974 0.000831809 0)
(0.78125 0.000562296 0)
(0.779387 0.000784972 0)
(0.778023 0.000390901 0)
(1.00402 0.0323673 0)
(1.03991 0.0331291 0)
(1.05616 0.0234153 0)
(1.05893 0.0198901 0)
(1.06023 0.0176861 0)
(1.06158 0.0157467 0)
(1.06196 0.0143836 0)
(1.06109 0.013386 0)
(1.05907 0.0125402 0)
(1.05601 0.0117868 0)
(1.052 0.0111129 0)
(1.04717 0.010505 0)
(1.04164 0.00995049 0)
(1.03553 0.00944059 0)
(1.02898 0.00896947 0)
(1.02208 0.00853282 0)
(1.01493 0.00812713 0)
(1.00762 0.00774936 0)
(1.00022 0.00739685 0)
(0.992781 0.00706715 0)
(0.985359 0.00675804 0)
(0.977993 0.00646745 0)
(0.970717 0.00619346 0)
(0.963557 0.00593428 0)
(0.956534 0.00568824 0)
(0.949668 0.00545378 0)
(0.942971 0.00522944 0)
(0.936455 0.00501387 0)
(0.930129 0.00480577 0)
(0.923999 0.00460392 0)
(0.918072 0.00440713 0)
(0.912352 0.00421429 0)
(0.906844 0.00402418 0)
(0.901549 0.00383587 0)
(0.896473 0.00364791 0)
(0.891614 0.00345984 0)
(0.886981 0.00326928 0)
(0.882569 0.00307753 0)
(0.878392 0.00287893 0)
(0.87444 0.00268088 0)
(0.870731 0.0024674 0)
(0.867256 0.00226326 0)
(0.864023 0.00202723 0)
(0.861054 0.00182028 0)
(0.858294 0.00156375 0)
(0.855867 0.00134725 0)
(0.853558 0.00113479 0)
(0.851673 0.000839853 0)
(0.849811 0.000998583 0)
(0.848377 0.000801919 0)
(1.00364 0.0300269 0)
(1.03692 0.0320815 0)
(1.05282 0.0228255 0)
(1.05569 0.0194846 0)
(1.05713 0.0174937 0)
(1.05904 0.015646 0)
(1.06049 0.0143298 0)
(1.0612 0.0133943 0)
(1.06123 0.0126208 0)
(1.06061 0.01194 0)
(1.05937 0.0113363 0)
(1.0575 0.010795 0)
(1.05504 0.010302 0)
(1.05206 0.00984753 0)
(1.0486 0.00942531 0)
(1.04473 0.00903097 0)
(1.04052 0.00866121 0)
(1.03601 0.00831343 0)
(1.03127 0.00798541 0)
(1.02635 0.00767525 0)
(1.02129 0.00738126 0)
(1.01613 0.00710185 0)
(1.01092 0.00683558 0)
(1.00567 0.00658105 0)
(1.00043 0.00633696 0)
(0.995212 0.00610206 0)
(0.990037 0.00587518 0)
(0.984927 0.00565516 0)
(0.979897 0.00544091 0)
(0.97496 0.00523138 0)
(0.97013 0.00502548 0)
(0.965417 0.00482222 0)
(0.960831 0.00462046 0)
(0.95638 0.00441929 0)
(0.952072 0.00421733 0)
(0.947914 0.00401406 0)
(0.943915 0.00380717 0)
(0.940076 0.00359783 0)
(0.936411 0.00338053 0)
(0.932918 0.00316217 0)
(0.929612 0.00292773 0)
(0.92649 0.00269975 0)
(0.923563 0.00244151 0)
(0.920845 0.00220513 0)
(0.918307 0.00192787 0)
(0.916026 0.00167488 0)
(0.913881 0.00144173 0)
(0.912042 0.00113139 0)
(0.910309 0.00122036 0)
(0.908978 0.00115277 0)
(1.00327 0.0277872 0)
(1.03409 0.0310227 0)
(1.04971 0.022262 0)
(1.05273 0.0190772 0)
(1.05413 0.0172824 0)
(1.05609 0.0155162 0)
(1.05781 0.0142216 0)
(1.05904 0.0133158 0)
(1.05988 0.012582 0)
(1.06037 0.0119434 0)
(1.06049 0.0113831 0)
(1.06024 0.0108865 0)
(1.05961 0.0104385 0)
(1.0586 0.010028 0)
(1.05722 0.00964777 0)
(1.0555 0.00929287 0)
(1.05347 0.00895953 0)
(1.05115 0.00864487 0)
(1.04858 0.00834658 0)
(1.04578 0.00806278 0)
(1.04279 0.00779184 0)
(1.03964 0.00753233 0)
(1.03635 0.00728297 0)
(1.03295 0.00704257 0)
(1.02947 0.00680999 0)
(1.02592 0.00658417 0)
(1.02234 0.0063641 0)
(1.01873 0.0061488 0)
(1.01511 0.0059373 0)
(1.01151 0.00572867 0)
(1.00794 0.00552196 0)
(1.00441 0.00531625 0)
(1.00093 0.00511051 0)
(0.997507 0.00490386 0)
(0.994164 0.00469499 0)
(0.990903 0.00448337 0)
(0.987737 0.00426677 0)
(0.984671 0.00404624 0)
(0.981717 0.00381648 0)
(0.978879 0.00358386 0)
(0.97617 0.00333449 0)
(0.973592 0.00308838 0)
(0.971155 0.00281383 0)
(0.968872 0.00255368 0)
(0.96673 0.00226069 0)
(0.964773 0.00197849 0)
(0.962943 0.00172605 0)
(0.961334 0.00140827 0)
(0.95986 0.00142782 0)
(0.95878 0.00142772 0)
(1.00292 0.0256514 0)
(1.03138 0.0299482 0)
(1.0467 0.0217207 0)
(1.04994 0.0186676 0)
(1.05132 0.0170591 0)
(1.05324 0.0153792 0)
(1.05499 0.0140997 0)
(1.05634 0.013209 0)
(1.05741 0.0124976 0)
(1.05828 0.011882 0)
(1.05896 0.0113452 0)
(1.05944 0.0108738 0)
(1.05969 0.0104527 0)
(1.05973 0.0100704 0)
(1.05953 0.00971893 0)
(1.0591 0.00939278 0)
(1.05845 0.00908771 0)
(1.05759 0.0088004 0)
(1.05651 0.00852822 0)
(1.05525 0.00826901 0)
(1.05381 0.00802099 0)
(1.0522 0.00778262 0)
(1.05045 0.00755255 0)
(1.04857 0.00732955 0)
(1.04657 0.00711252 0)
(1.04448 0.00690039 0)
(1.04231 0.00669219 0)
(1.04007 0.00648699 0)
(1.03778 0.00628386 0)
(1.03545 0.00608192 0)
(1.03309 0.00588029 0)
(1.03073 0.00567807 0)
(1.02836 0.0054743 0)
(1.026 0.00526813 0)
(1.02367 0.00505827 0)
(1.02137 0.00484423 0)
(1.0191 0.0046238 0)
(1.01689 0.00439795 0)
(1.01474 0.00416159 0)
(1.01265 0.00392054 0)
(1.01064 0.00366213 0)
(1.00871 0.0034037 0)
(1.00687 0.00311869 0)
(1.00514 0.00284097 0)
(1.00351 0.00253718 0)
(1.002 0.00223357 0)
(1.00059 0.00196418 0)
(0.99934 0.00164447 0)
(0.998226 0.00159877 0)
(0.997499 0.00161529 0)
(1.0026 0.0236223 0)
(1.02879 0.0288567 0)
(1.04379 0.0212003 0)
(1.04724 0.0182559 0)
(1.04863 0.0168223 0)
(1.05052 0.0152377 0)
(1.05227 0.0139753 0)
(1.05362 0.013095 0)
(1.05472 0.0123993 0)
(1.05569 0.011798 0)
(1.05654 0.0112739 0)
(1.05728 0.0108156 0)
(1.05789 0.0104089 0)
(1.05838 0.0100421 0)
(1.05874 0.00970732 0)
(1.05897 0.00939865 0)
(1.05907 0.00911165 0)
(1.05902 0.00884275 0)
(1.05884 0.00858903 0)
(1.05853 0.00834811 0)
(1.05808 0.00811797 0)
(1.05752 0.00789689 0)
(1.05683 0.00768337 0)
(1.05603 0.00747607 0)
(1.05513 0.00727376 0)
(1.05413 0.00707532 0)
(1.05306 0.00687969 0)
(1.0519 0.0066859 0)
(1.05068 0.00649299 0)
(1.0494 0.00630006 0)
(1.04808 0.00610619 0)
(1.04672 0.00591051 0)
(1.04533 0.00571202 0)
(1.04392 0.0055099 0)
(1.04251 0.00530285 0)
(1.04109 0.00509038 0)
(1.03967 0.00487027 0)
(1.03827 0.00464344 0)
(1.0369 0.00440499 0)
(1.03555 0.00416013 0)
(1.03424 0.00389754 0)
(1.03297 0.00363175 0)
(1.03176 0.00334125 0)
(1.0306 0.00305164 0)
(1.02951 0.00274128 0)
(1.02849 0.0024235 0)
(1.02755 0.00213981 0)
(1.02673 0.0018211 0)
(1.02603 0.00171636 0)
(1.0257 0.00171104 0)
(1.0023 0.0217017 0)
(1.02634 0.0277491 0)
(1.04096 0.0206993 0)
(1.04464 0.0178437 0)
(1.04605 0.0165706 0)
(1.0479 0.0150901 0)
(1.04964 0.0138493 0)
(1.05099 0.0129785 0)
(1.05209 0.0122969 0)
(1.05306 0.0117073 0)
(1.05394 0.0111918 0)
(1.05474 0.0107411 0)
(1.05547 0.0103421 0)
(1.05612 0.00998354 0)
(1.0567 0.00965743 0)
(1.0572 0.00935809 0)
(1.05763 0.00908105 0)
(1.05799 0.00882269 0)
(1.05826 0.00857997 0)
(1.05846 0.00835039 0)
(1.05857 0.00813181 0)
(1.0586 0.00792236 0)
(1.05855 0.00772044 0)
(1.05843 0.00752456 0)
(1.05823 0.0073334 0)
(1.05796 0.00714573 0)
(1.05762 0.00696041 0)
(1.05722 0.00677635 0)
(1.05677 0.00659255 0)
(1.05626 0.00640802 0)
(1.0557 0.00622179 0)
(1.05511 0.00603296 0)
(1.05447 0.00584047 0)
(1.05381 0.0056435 0)
(1.05313 0.0054407 0)
(1.05243 0.00523156 0)
(1.05172 0.00501387 0)
(1.05101 0.00478841 0)
(1.05029 0.00455055 0)
(1.04959 0.00430479 0)
(1.04889 0.00404121 0)
(1.04821 0.00377161 0)
(1.04756 0.00347907 0)
(1.04694 0.0031821 0)
(1.04635 0.0028682 0)
(1.04581 0.00254197 0)
(1.04532 0.00224639 0)
(1.04492 0.00192922 0)
(1.04462 0.00177191 0)
(1.04467 0.00171875 0)
(1.00203 0.0198903 0)
(1.02402 0.0266284 0)
(1.03822 0.0202144 0)
(1.04211 0.0174327 0)
(1.04355 0.0163042 0)
(1.04537 0.014935 0)
(1.04712 0.0137213 0)
(1.04846 0.0128601 0)
(1.04955 0.0121924 0)
(1.0505 0.0116144 0)
(1.05138 0.0111066 0)
(1.05218 0.0106616 0)
(1.05293 0.0102677 0)
(1.05362 0.00991389 0)
(1.05426 0.0095925 0)
(1.05486 0.00929799 0)
(1.05541 0.00902603 0)
(1.05593 0.00877305 0)
(1.05639 0.00853606 0)
(1.05682 0.00831252 0)
(1.0572 0.00810028 0)
(1.05753 0.00789743 0)
(1.05782 0.00770229 0)
(1.05806 0.00751333 0)
(1.05825 0.00732915 0)
(1.0584 0.00714844 0)
(1.05851 0.00697 0)
(1.05857 0.00679265 0)
(1.05859 0.00661532 0)
(1.05857 0.00643696 0)
(1.05852 0.00625653 0)
(1.05844 0.00607307 0)
(1.05833 0.00588549 0)
(1.05819 0.00569292 0)
(1.05803 0.00549397 0)
(1.05786 0.00528811 0)
(1.05766 0.00507311 0)
(1.05746 0.00484962 0)
(1.05725 0.00461328 0)
(1.05704 0.00436784 0)
(1.05682 0.0041048 0)
(1.05661 0.00383334 0)
(1.05641 0.00354062 0)
(1.05623 0.00323927 0)
(1.05606 0.00292349 0)
(1.05592 0.0025927 0)
(1.0558 0.00228693 0)
(1.05577 0.00196987 0)
(1.05583 0.00176568 0)
(1.05621 0.00164911 0)
(1.00179 0.0181884 0)
(1.02183 0.0254986 0)
(1.03558 0.019742 0)
(1.03968 0.0170248 0)
(1.04114 0.0160238 0)
(1.04293 0.0147716 0)
(1.04467 0.0135907 0)
(1.04602 0.0127395 0)
(1.0471 0.0120856 0)
(1.04804 0.0115199 0)
(1.0489 0.0110199 0)
(1.0497 0.0105804 0)
(1.05043 0.0101908 0)
(1.05112 0.00984063 0)
(1.05177 0.00952241 0)
(1.05239 0.00923078 0)
(1.05298 0.00896155 0)
(1.05354 0.00871129 0)
(1.05407 0.00847707 0)
(1.05458 0.00825641 0)
(1.05507 0.00804719 0)
(1.05553 0.00784751 0)
(1.05596 0.00765568 0)
(1.05637 0.00747019 0)
(1.05675 0.00728959 0)
(1.05711 0.00711256 0)
(1.05745 0.00693782 0)
(1.05776 0.0067642 0)
(1.05805 0.00659053 0)
(1.05831 0.00641574 0)
(1.05855 0.00623874 0)
(1.05877 0.00605853 0)
(1.05898 0.00587396 0)
(1.05917 0.00568416 0)
(1.05934 0.00548768 0)
(1.0595 0.00528398 0)
(1.05964 0.00507082 0)
(1.05978 0.0048487 0)
(1.05991 0.00461359 0)
(1.06004 0.00436847 0)
(1.06016 0.00410616 0)
(1.06029 0.00383352 0)
(1.06041 0.0035411 0)
(1.06054 0.00323698 0)
(1.06068 0.00291982 0)
(1.06084 0.00258648 0)
(1.06102 0.00227143 0)
(1.06126 0.00195182 0)
(1.0616 0.00170497 0)
(1.06223 0.00151769 0)
(1.00157 0.0165957 0)
(1.01979 0.0243635 0)
(1.03305 0.0192778 0)
(1.03732 0.0166218 0)
(1.03883 0.0157307 0)
(1.04058 0.0145992 0)
(1.04232 0.0134573 0)
(1.04367 0.0126165 0)
(1.04474 0.0119764 0)
(1.04567 0.0114236 0)
(1.04652 0.010932 0)
(1.0473 0.010498 0)
(1.04802 0.0101127 0)
(1.0487 0.00976597 0)
(1.04934 0.0094505 0)
(1.04996 0.0091611 0)
(1.05054 0.00889373 0)
(1.05111 0.00864508 0)
(1.05166 0.0084123 0)
(1.05219 0.00819299 0)
(1.05271 0.00798506 0)
(1.05321 0.00778667 0)
(1.05369 0.00759616 0)
(1.05417 0.007412 0)
(1.05463 0.0072328 0)
(1.05508 0.0070572 0)
(1.05552 0.00688393 0)
(1.05594 0.00671178 0)
(1.05635 0.00653958 0)
(1.05676 0.00636622 0)
(1.05715 0.00619057 0)
(1.05753 0.00601164 0)
(1.0579 0.00582823 0)
(1.05827 0.00563947 0)
(1.05862 0.00544389 0)
(1.05897 0.00524091 0)
(1.05932 0.00502835 0)
(1.05966 0.00480652 0)
(1.06 0.00457175 0)
(1.06033 0.00432626 0)
(1.06066 0.00406414 0)
(1.061 0.00379019 0)
(1.06133 0.00349772 0)
(1.06167 0.0031914 0)
(1.06201 0.00287254 0)
(1.06237 0.00253725 0)
(1.06275 0.00221323 0)
(1.06319 0.00188764 0)
(1.06372 0.00160139 0)
(1.06451 0.00134281 0)
(1.00137 0.0151113 0)
(1.01788 0.0232272 0)
(1.03062 0.0188181 0)
(1.03506 0.0162251 0)
(1.03661 0.0154262 0)
(1.03832 0.014417 0)
(1.04005 0.0133206 0)
(1.04141 0.0124913 0)
(1.04247 0.0118647 0)
(1.04339 0.0113252 0)
(1.04423 0.0108426 0)
(1.045 0.0104145 0)
(1.04571 0.0100335 0)
(1.04638 0.00969035 0)
(1.04701 0.00937762 0)
(1.04761 0.00909032 0)
(1.04819 0.00882458 0)
(1.04875 0.00857718 0)
(1.04929 0.00834537 0)
(1.04982 0.0081268 0)
(1.05034 0.00791943 0)
(1.05084 0.00772147 0)
(1.05134 0.0075313 0)
(1.05184 0.00734742 0)
(1.05232 0.00716843 0)
(1.0528 0.00699302 0)
(1.05327 0.00681989 0)
(1.05374 0.00664785 0)
(1.0542 0.0064757 0)
(1.05466 0.00630234 0)
(1.05512 0.00612662 0)
(1.05557 0.00594754 0)
(1.05602 0.0057639 0)
(1.05647 0.00557482 0)
(1.05691 0.00537884 0)
(1.05736 0.00517533 0)
(1.0578 0.00496222 0)
(1.05825 0.00473961 0)
(1.0587 0.0045042 0)
(1.05914 0.00425753 0)
(1.05959 0.00399478 0)
(1.06004 0.00371909 0)
(1.0605 0.00342581 0)
(1.06095 0.00311728 0)
(1.06142 0.00279606 0)
(1.0619 0.00245853 0)
(1.06239 0.00212542 0)
(1.06295 0.00179033 0)
(1.0636 0.00146775 0)
(1.06448 0.00114023 0)
(1.0012 0.0137335 0)
(1.0161 0.0220937 0)
(1.02829 0.0183591 0)
(1.03288 0.015836 0)
(1.03449 0.0151122 0)
(1.03616 0.0142247 0)
(1.03787 0.0131802 0)
(1.03923 0.0123639 0)
(1.04029 0.0117504 0)
(1.0412 0.0112247 0)
(1.04203 0.0107517 0)
(1.04279 0.0103297 0)
(1.04349 0.00995335 0)
(1.04414 0.00961378 0)
(1.04476 0.00930387 0)
(1.04535 0.00901871 0)
(1.04592 0.00875458 0)
(1.04647 0.00850836 0)
(1.04701 0.00827739 0)
(1.04753 0.00805937 0)
(1.04804 0.00785232 0)
(1.04854 0.00765447 0)
(1.04903 0.00746425 0)
(1.04953 0.00728017 0)
(1.05001 0.00710088 0)
(1.05049 0.00692505 0)
(1.05097 0.00675142 0)
(1.05145 0.00657877 0)
(1.05193 0.00640592 0)
(1.0524 0.00623175 0)
(1.05288 0.00605513 0)
(1.05336 0.00587504 0)
(1.05383 0.00569029 0)
(1.05432 0.0055 0)
(1.0548 0.00530274 0)
(1.05528 0.00509784 0)
(1.05577 0.00488335 0)
(1.05627 0.00465914 0)
(1.05676 0.00442231 0)
(1.05726 0.00417379 0)
(1.05776 0.00390966 0)
(1.05827 0.00363175 0)
(1.05878 0.00333692 0)
(1.0593 0.00302592 0)
(1.05983 0.00270163 0)
(1.06037 0.00236109 0)
(1.06093 0.00201864 0)
(1.06156 0.00167109 0)
(1.06227 0.00131481 0)
(1.06319 0.000922609 0)
(1.00104 0.0124601 0)
(1.01446 0.0209674 0)
(1.02608 0.0178974 0)
(1.03079 0.0154552 0)
(1.03246 0.0147905 0)
(1.03408 0.0140217 0)
(1.03578 0.0130356 0)
(1.03715 0.0122343 0)
(1.03821 0.0116335 0)
(1.03911 0.0111219 0)
(1.03992 0.010659 0)
(1.04067 0.0102436 0)
(1.04136 0.00987199 0)
(1.04201 0.00953618 0)
(1.04262 0.0092292 0)
(1.0432 0.00894626 0)
(1.04375 0.00868379 0)
(1.04429 0.00843877 0)
(1.04482 0.00820863 0)
(1.04533 0.00799113 0)
(1.04583 0.00778432 0)
(1.04632 0.00758648 0)
(1.04681 0.00739607 0)
(1.04729 0.00721164 0)
(1.04777 0.00703183 0)
(1.04825 0.00685534 0)
(1.04873 0.00668091 0)
(1.0492 0.00650734 0)
(1.04968 0.00633342 0)
(1.05015 0.00615805 0)
(1.05063 0.00598009 0)
(1.05111 0.00579854 0)
(1.0516 0.00561222 0)
(1.05208 0.00542022 0)
(1.05258 0.00522118 0)
(1.05307 0.00501437 0)
(1.05358 0.00479796 0)
(1.05408 0.00457165 0)
(1.0546 0.00433289 0)
(1.05512 0.00408204 0)
(1.05564 0.00381599 0)
(1.05617 0.00353553 0)
(1.05671 0.00323853 0)
(1.05725 0.00292476 0)
(1.0578 0.00259682 0)
(1.05837 0.00225241 0)
(1.05896 0.00190033 0)
(1.05962 0.00153824 0)
(1.06036 0.00115035 0)
(1.06127 0.000699329 0)
(1.0009 0.0112882 0)
(1.01295 0.0198526 0)
(1.02398 0.0174299 0)
(1.02879 0.0150831 0)
(1.03052 0.0144632 0)
(1.03211 0.0138078 0)
(1.03378 0.0128861 0)
(1.03515 0.0121024 0)
(1.03621 0.011514 0)
(1.0371 0.0110167 0)
(1.03791 0.0105646 0)
(1.03865 0.010156 0)
(1.03933 0.00978938 0)
(1.03996 0.00945746 0)
(1.04056 0.00915352 0)
(1.04113 0.0088729 0)
(1.04168 0.00861214 0)
(1.04221 0.00836837 0)
(1.04272 0.00813909 0)
(1.04323 0.0079221 0)
(1.04372 0.00771553 0)
(1.0442 0.00751768 0)
(1.04468 0.00732704 0)
(1.04516 0.00714219 0)
(1.04563 0.00696178 0)
(1.0461 0.00678454 0)
(1.04656 0.00660921 0)
(1.04703 0.00643456 0)
(1.0475 0.00625942 0)
(1.04797 0.00608268 0)
(1.04845 0.00590319 0)
(1.04892 0.00571995 0)
(1.0494 0.00553181 0)
(1.04989 0.00533785 0)
(1.05038 0.00513676 0)
(1.05088 0.00492776 0)
(1.05138 0.00470916 0)
(1.05189 0.00448046 0)
(1.0524 0.00423944 0)
(1.05293 0.00398602 0)
(1.05345 0.00371768 0)
(1.05399 0.00343445 0)
(1.05453 0.00313487 0)
(1.05508 0.00281807 0)
(1.05564 0.00248606 0)
(1.05622 0.00213697 0)
(1.05682 0.00177507 0)
(1.05748 0.00139714 0)
(1.05822 0.000979869 0)
(1.05911 0.000477141 0)
(1.00078 0.0102143 0)
(1.01157 0.0187538 0)
(1.022 0.0169538 0)
(1.02687 0.0147199 0)
(1.02867 0.0141324 0)
(1.03022 0.013583 0)
(1.03187 0.0127312 0)
(1.03324 0.0119682 0)
(1.0343 0.0113919 0)
(1.03519 0.0109088 0)
(1.03598 0.0104681 0)
(1.03671 0.010067 0)
(1.03739 0.00970542 0)
(1.03801 0.00937752 0)
(1.0386 0.00907675 0)
(1.03916 0.00879854 0)
(1.0397 0.00853957 0)
(1.04022 0.00829709 0)
(1.04073 0.00806869 0)
(1.04122 0.00785225 0)
(1.04171 0.00764591 0)
(1.04218 0.00744805 0)
(1.04265 0.00725717 0)
(1.04312 0.00707188 0)
(1.04358 0.00689085 0)
(1.04404 0.00671282 0)
(1.0445 0.00653652 0)
(1.04496 0.00636075 0)
(1.04542 0.00618431 0)
(1.04589 0.0060061 0)
(1.04635 0.00582498 0)
(1.04682 0.00563994 0)
(1.0473 0.00544986 0)
(1.04778 0.00525382 0)
(1.04826 0.00505055 0)
(1.04876 0.00483922 0)
(1.04925 0.00461826 0)
(1.04976 0.00438703 0)
(1.05027 0.00414357 0)
(1.05079 0.00388744 0)
(1.05131 0.00361659 0)
(1.05184 0.00333048 0)
(1.05238 0.00302802 0)
(1.05293 0.00270798 0)
(1.05348 0.00237164 0)
(1.05406 0.00201718 0)
(1.05466 0.00164541 0)
(1.05532 0.00125106 0)
(1.05605 0.000806737 0)
(1.05691 0.000259976 0)
(1.00067 0.00923434 0)
(1.01031 0.0176754 0)
(1.02013 0.0164671 0)
(1.02503 0.0143653 0)
(1.02692 0.0138001 0)
(1.02843 0.0133477 0)
(1.03004 0.0125702 0)
(1.03142 0.0118316 0)
(1.03248 0.0112673 0)
(1.03336 0.0107983 0)
(1.03415 0.0103696 0)
(1.03487 0.00997621 0)
(1.03554 0.00962003 0)
(1.03615 0.00929628 0)
(1.03674 0.0089988 0)
(1.03729 0.00872309 0)
(1.03782 0.00846598 0)
(1.03833 0.00822485 0)
(1.03883 0.00799737 0)
(1.03931 0.00778149 0)
(1.03979 0.00757541 0)
(1.04026 0.00737754 0)
(1.04072 0.00718642 0)
(1.04118 0.00700068 0)
(1.04163 0.00681901 0)
(1.04208 0.00664016 0)
(1.04254 0.00646287 0)
(1.04299 0.00628593 0)
(1.04344 0.00610815 0)
(1.0439 0.00592841 0)
(1.04436 0.0057456 0)
(1.04482 0.00555871 0)
(1.04529 0.00536662 0)
(1.04576 0.00516842 0)
(1.04624 0.00496288 0)
(1.04673 0.00474914 0)
(1.04722 0.00452574 0)
(1.04771 0.0042919 0)
(1.04822 0.00404589 0)
(1.04873 0.00378698 0)
(1.04925 0.00351346 0)
(1.04977 0.00322441 0)
(1.0503 0.0029189 0)
(1.05085 0.00259545 0)
(1.0514 0.0022546 0)
(1.05197 0.00189425 0)
(1.05257 0.00151268 0)
(1.05321 0.00110198 0)
(1.05393 0.000632895 0)
(1.05475 5.08919e-05 0)
(1.00058 0.00834367 0)
(1.00917 0.0166217 0)
(1.01837 0.0159679 0)
(1.02328 0.0140186 0)
(1.02525 0.0134683 0)
(1.02673 0.0131023 0)
(1.02831 0.0124024 0)
(1.02968 0.0116923 0)
(1.03074 0.0111402 0)
(1.03162 0.010685 0)
(1.0324 0.0102687 0)
(1.03311 0.00988367 0)
(1.03377 0.00953309 0)
(1.03438 0.00921364 0)
(1.03496 0.00891957 0)
(1.0355 0.00864647 0)
(1.03603 0.00839129 0)
(1.03653 0.00815156 0)
(1.03702 0.00792504 0)
(1.0375 0.00770975 0)
(1.03797 0.00750395 0)
(1.03843 0.00730607 0)
(1.03888 0.00711471 0)
(1.03933 0.00692851 0)
(1.03978 0.00674619 0)
(1.04022 0.0065665 0)
(1.04067 0.00638819 0)
(1.04111 0.00621005 0)
(1.04156 0.0060309 0)
(1.04201 0.0058496 0)
(1.04246 0.00566506 0)
(1.04292 0.00547626 0)
(1.04338 0.00528211 0)
(1.04385 0.00508169 0)
(1.04432 0.00487383 0)
(1.04479 0.00465762 0)
(1.04528 0.00443171 0)
(1.04577 0.00419521 0)
(1.04627 0.00394657 0)
(1.04677 0.00368486 0)
(1.04728 0.00340858 0)
(1.0478 0.00311653 0)
(1.04832 0.00280785 0)
(1.04886 0.00248084 0)
(1.0494 0.00213539 0)
(1.04997 0.00176878 0)
(1.05056 0.0013776 0)
(1.05119 0.000951059 0)
(1.05188 0.000460051 0)
(1.05266 -0.000149635 0)
(1.0005 0.00753725 0)
(1.00813 0.0155969 0)
(1.01672 0.0154553 0)
(1.02162 0.013679 0)
(1.02366 0.0131387 0)
(1.02512 0.0128478 0)
(1.02666 0.0122274 0)
(1.02802 0.0115501 0)
(1.02909 0.0110106 0)
(1.02997 0.0105689 0)
(1.03074 0.0101654 0)
(1.03145 0.00978919 0)
(1.0321 0.00944451 0)
(1.0327 0.0091295 0)
(1.03327 0.00883895 0)