/*--------------------------------*- C++ -*----------------------------------*\
  =========                 |
  \\      /  F ield         | OpenFOAM: The Open Source CFD Toolbox
   \\    /   O peration     | Website:  https://openfoam.org
    \\  /    A nd           | Version:  7
     \\/     M anipulation  |
\*---------------------------------------------------------------------------*/
FoamFile
{
    version     2.0;
    format      ascii;
    class       volVectorField;
    location    "0.17";
    object      U_0;
}
// * * * * * * * * * * * * * * * * * * * * * * * * * * * * * * * * * * * * * //

dimensions      [0 1 -1 0 0 0 0];

internalField   nonuniform List<vector> 
70000
(
(0.553391 0.016723 0)
(0.251265 0.00340092 0)
(0.166212 0.000321879 0)
(0.132477 5.41703e-05 0)
(0.117302 4.55969e-05 0)
(0.1074 5.37508e-05 0)
(0.099478 4.60978e-05 0)
(0.0930685 3.67369e-05 0)
(0.087858 3.04013e-05 0)
(0.0835261 2.60543e-05 0)
(0.0798441 2.27366e-05 0)
(0.0766637 2.00752e-05 0)
(0.0738836 1.79003e-05 0)
(0.0714294 1.60984e-05 0)
(0.069245 1.45853e-05 0)
(0.0672871 1.32987e-05 0)
(0.0655213 1.21924e-05 0)
(0.0639204 1.12313e-05 0)
(0.0624624 1.03887e-05 0)
(0.0611294 9.64356e-06 0)
(0.0599064 8.97941e-06 0)
(0.058781 8.38279e-06 0)
(0.057743 7.84277e-06 0)
(0.0567837 7.35037e-06 0)
(0.0558956 6.89791e-06 0)
(0.0550725 6.4793e-06 0)
(0.0543091 6.08863e-06 0)
(0.0536007 5.7222e-06 0)
(0.0529436 5.37442e-06 0)
(0.0523343 5.04456e-06 0)
(0.0517701 4.72519e-06 0)
(0.0512484 4.42059e-06 0)
(0.0507674 4.11763e-06 0)
(0.0503253 3.83161e-06 0)
(0.0499206 3.53309e-06 0)
(0.0495523 3.26383e-06 0)
(0.0492193 2.95576e-06 0)
(0.0489215 2.70583e-06 0)
(0.0486567 2.38163e-06 0)
(0.0484284 2.13615e-06 0)
(0.0482274 1.8542e-06 0)
(0.0480733 1.46996e-06 0)
(0.0479228 1.58651e-06 0)
(0.0478644 3.91464e-07 0)
(0.0477161 2.31257e-06 0)
(0.0478298 -2.11481e-06 0)
(0.0475169 6.89264e-06 0)
(0.048041 -9.93382e-06 0)
(0.0471309 3.90139e-05 0)
(0.0452742 -0.00185525 0)
(0.884899 0.0431672 0)
(0.649721 0.0201935 0)
(0.494341 0.00659722 0)
(0.403716 0.00276591 0)
(0.354837 0.0015497 0)
(0.323595 0.00112871 0)
(0.299811 0.000906969 0)
(0.280701 0.000742589 0)
(0.265085 0.000619313 0)
(0.25207 0.000528174 0)
(0.241004 0.000458922 0)
(0.231444 0.000404364 0)
(0.223085 0.000360217 0)
(0.215702 0.000323812 0)
(0.209128 0.000293335 0)
(0.203232 0.000267486 0)
(0.197913 0.000245306 0)
(0.193087 0.000226074 0)
(0.18869 0.000209239 0)
(0.184668 0.000194371 0)
(0.180975 0.000181131 0)
(0.177575 0.000169246 0)
(0.174437 0.000158494 0)
(0.171535 0.000148694 0)
(0.168846 0.000139693 0)
(0.166352 0.000131364 0)
(0.164036 0.000123597 0)
(0.161885 0.000116303 0)
(0.159888 0.000109394 0)
(0.158033 0.000102809 0)
(0.156314 9.64693e-05 0)
(0.154721 9.03412e-05 0)
(0.15325 8.43337e-05 0)
(0.151894 7.84634e-05 0)
(0.150651 7.25775e-05 0)
(0.149516 6.68112e-05 0)
(0.148486 6.08386e-05 0)
(0.147561 5.50804e-05 0)
(0.146736 4.87954e-05 0)
(0.146019 4.30341e-05 0)
(0.145387 3.62093e-05 0)
(0.144892 3.05442e-05 0)
(0.144421 2.31302e-05 0)
(0.144207 1.77023e-05 0)
(0.143776 1.06694e-05 0)
(0.144047 5.02392e-06 0)
(0.143253 6.9988e-06 0)
(0.144585 -2.53758e-05 0)
(0.142518 0.000222547 0)
(0.142524 -0.002708 0)
(0.991237 0.0499012 0)
(0.890351 0.0307178 0)
(0.762704 0.0145953 0)
(0.656733 0.00797539 0)
(0.585471 0.0048787 0)
(0.536154 0.00346309 0)
(0.498399 0.0027259 0)
(0.467911 0.00223212 0)
(0.442744 0.0018677 0)
(0.421595 0.00159493 0)
(0.403517 0.0013864 0)
(0.38784 0.00122209 0)
(0.374088 0.00108923 0)
(0.361911 0.00097968 0)
(0.351043 0.000887951 0)
(0.341276 0.000810132 0)
(0.332448 0.000743345 0)
(0.324428 0.00068543 0)
(0.317109 0.000634731 0)
(0.310404 0.000589957 0)
(0.30424 0.000550089 0)
(0.298558 0.000514308 0)
(0.293306 0.000481948 0)
(0.288443 0.000452462 0)
(0.283931 0.000425394 0)
(0.27974 0.000400361 0)
(0.275844 0.000377037 0)
(0.272219 0.000355145 0)
(0.268846 0.000334435 0)
(0.265708 0.000314706 0)
(0.262793 0.000295743 0)
(0.260086 0.000277415 0)
(0.257578 0.000259489 0)
(0.25526 0.000241947 0)
(0.253126 0.000224432 0)
(0.251168 0.000207178 0)
(0.249384 0.000189461 0)
(0.24777 0.000172149 0)
(0.246319 0.000153531 0)
(0.245044 0.000136127 0)
(0.24391 0.000115651 0)
(0.242992 9.8885e-05 0)
(0.242131 7.50206e-05 0)
(0.241656 6.14674e-05 0)
(0.240905 3.21321e-05 0)
(0.241148 2.71901e-05 0)
(0.240001 9.80402e-07 0)
(0.24165 -4.11584e-05 0)
(0.239089 0.000261414 0)
(0.240934 -0.00246031 0)
(1.0156 0.0489201 0)
(1.00596 0.0358736 0)
(0.935964 0.020788 0)
(0.852168 0.0134973 0)
(0.782291 0.00919704 0)
(0.727188 0.00676658 0)
(0.682235 0.00536524 0)
(0.644636 0.00442295 0)
(0.6128 0.00372649 0)
(0.585535 0.00319822 0)
(0.561901 0.00278967 0)
(0.541191 0.00246559 0)
(0.522874 0.0022024 0)
(0.506544 0.00198465 0)
(0.491887 0.00180178 0)
(0.478654 0.00164626 0)
(0.466644 0.00151251 0)
(0.455692 0.00139633 0)
(0.445667 0.00129448 0)
(0.436456 0.00120444 0)
(0.427967 0.00112419 0)
(0.420121 0.00105212 0)
(0.412854 0.000986908 0)
(0.406108 0.000927479 0)
(0.399837 0.000872924 0)
(0.393999 0.000822481 0)
(0.388558 0.000775502 0)
(0.383486 0.000731432 0)
(0.378755 0.000689778 0)
(0.374343 0.000650131 0)
(0.370231 0.000612073 0)
(0.366401 0.000575321 0)
(0.362841 0.000539447 0)
(0.359538 0.000504346 0)
(0.356483 0.000469413 0)
(0.353666 0.000434932 0)
(0.351082 0.000399725 0)
(0.348727 0.000365109 0)
(0.346593 0.000328231 0)
(0.34469 0.000293359 0)
(0.342984 0.000252712 0)
(0.341553 0.000219217 0)
(0.340225 0.000170861 0)
(0.339358 0.000144809 0)
(0.338241 8.17848e-05 0)
(0.338214 7.58493e-05 0)
(0.336838 6.4532e-06 0)
(0.338221 -4.18408e-05 0)
(0.335837 0.000255202 0)
(0.337507 -0.00197366 0)
(1.01434 0.0460035 0)
(1.04753 0.037487 0)
(1.02458 0.024147 0)
(0.974782 0.0175497 0)
(0.923516 0.0131069 0)
(0.876827 0.0101842 0)
(0.834788 0.00831444 0)
(0.797202 0.00698773 0)
(0.763834 0.00597292 0)
(0.734243 0.00518089 0)
(0.707913 0.00455469 0)
(0.68437 0.00405003 0)
(0.663212 0.0036354 0)
(0.644106 0.0032892 0)
(0.626773 0.00299631 0)
(0.610983 0.00274567 0)
(0.596542 0.00252902 0)
(0.583288 0.00234 0)
(0.571084 0.0021737 0)
(0.559814 0.00202622 0)
(0.54938 0.00189445 0)
(0.539697 0.00177586 0)
(0.530693 0.00166837 0)
(0.522305 0.00157027 0)
(0.514481 0.00148012 0)
(0.507174 0.00139671 0)
(0.500343 0.00131899 0)
(0.493954 0.00124607 0)
(0.487976 0.00117716 0)
(0.482383 0.00111158 0)
(0.477152 0.00104869 0)
(0.472263 0.000987986 0)
(0.467701 0.000928818 0)
(0.463449 0.000870942 0)
(0.459498 0.000813489 0)
(0.455835 0.000756726 0)
(0.452453 0.000699031 0)
(0.449347 0.00064208 0)
(0.446509 0.00058189 0)
(0.443945 0.000524431 0)
(0.441628 0.000458334 0)
(0.439621 0.000402779 0)
(0.437776 0.000324403 0)
(0.436408 0.000279602 0)
(0.434893 0.000178799 0)
(0.434385 0.000160105 0)
(0.43285 5.38795e-05 0)
(0.433548 -2.50011e-05 0)
(0.43162 0.000284335 0)
(0.432249 -0.00152493 0)
(1.00933 0.0429149 0)
(1.05527 0.0372622 0)
(1.05869 0.0252907 0)
(1.03638 0.0197477 0)
(1.00714 0.0157924 0)
(0.976146 0.0129079 0)
(0.944716 0.0109227 0)
(0.913985 0.00943218 0)
(0.884807 0.00823408 0)
(0.857562 0.00725921 0)
(0.832328 0.00646262 0)
(0.809036 0.00580409 0)
(0.787564 0.00525212 0)
(0.767765 0.00478381 0)
(0.749491 0.00438236 0)
(0.732599 0.00403505 0)
(0.716958 0.00373206 0)
(0.702448 0.00346566 0)
(0.688964 0.00322971 0)
(0.676409 0.00301928 0)
(0.664701 0.00283033 0)
(0.653765 0.00265956 0)
(0.643536 0.00250422 0)
(0.633955 0.00236202 0)
(0.624974 0.002231 0)
(0.616546 0.00210951 0)
(0.608633 0.00199611 0)
(0.6012 0.00188958 0)
(0.594216 0.00178881 0)
(0.587655 0.00169286 0)
(0.581494 0.00160081 0)
(0.575711 0.00151194 0)
(0.57029 0.00142538 0)
(0.565215 0.00134069 0)
(0.560474 0.00125676 0)
(0.556055 0.00117378 0)
(0.551951 0.00108973 0)
(0.548151 0.00100649 0)
(0.544655 0.000919156 0)
(0.541459 0.000835006 0)
(0.538548 0.000739729 0)
(0.535962 0.000657398 0)
(0.533597 0.000546085 0)
(0.531683 0.000475452 0)
(0.52976 0.000337811 0)
(0.528668 0.000291439 0)
(0.526958 0.00015892 0)
(0.526857 2.83402e-05 0)
(0.525201 0.000351916 0)
(0.524996 -0.00105972 0)
(1.00625 0.0400334 0)
(1.05206 0.0363347 0)
(1.06609 0.0252197 0)
(1.0596 0.0205465 0)
(1.04689 0.0172168 0)
(1.03084 0.0146233 0)
(1.01201 0.0127753 0)
(0.991424 0.0113387 0)
(0.970153 0.0101311 0)
(0.948926 0.00910519 0)
(0.928189 0.00823531 0)
(0.908199 0.00749358 0)
(0.889102 0.00685547 0)
(0.870964 0.00630206 0)
(0.8538 0.00581876 0)
(0.837595 0.00539399 0)
(0.822317 0.00501837 0)
(0.80792 0.00468424 0)
(0.794356 0.00438531 0)
(0.781576 0.00411634 0)
(0.769529 0.00387298 0)
(0.75817 0.00365154 0)
(0.747454 0.00344893 0)
(0.73734 0.00326248 0)
(0.72779 0.00308992 0)
(0.71877 0.00292927 0)
(0.71025 0.00277882 0)
(0.7022 0.00263705 0)
(0.694596 0.00250263 0)
(0.687414 0.00237437 0)
(0.680636 0.00225113 0)
(0.674241 0.002132 0)
(0.668217 0.00201588 0)
(0.662547 0.00190216 0)
(0.657222 0.00178952 0)
(0.652229 0.00167799 0)
(0.647565 0.00156529 0)
(0.643216 0.00145333 0)
(0.639187 0.00133657 0)
(0.635465 0.00122302 0)
(0.632051 0.00109654 0)
(0.628959 0.000983902 0)
(0.626134 0.000838804 0)
(0.623713 0.000736309 0)
(0.621405 0.000564511 0)
(0.619754 0.000479137 0)
(0.61782 0.000326414 0)
(0.617012 0.00013993 0)
(0.615361 0.000453722 0)
(0.61462 -0.000568655 0)
(1.00495 0.0373554 0)
(1.04727 0.0352525 0)
(1.06398 0.0246796 0)
(1.06426 0.0205724 0)
(1.06069 0.0177533 0)
(1.05477 0.0154633 0)
(1.04605 0.013828 0)
(1.03492 0.0125535 0)
(1.02211 0.0114538 0)
(1.00821 0.0104878 0)
(0.993698 0.00964226 0)
(0.978919 0.00889988 0)
(0.964138 0.00824387 0)
(0.949546 0.00766102 0)
(0.935278 0.00714093 0)
(0.921423 0.00667505 0)
(0.908037 0.00625608 0)
(0.895155 0.00587782 0)
(0.88279 0.0055349 0)
(0.870946 0.00522274 0)
(0.859619 0.00493732 0)
(0.848798 0.0046752 0)
(0.83847 0.00443334 0)
(0.828618 0.00420912 0)
(0.819226 0.00400019 0)
(0.810277 0.00380452 0)
(0.801754 0.00362029 0)
(0.793641 0.00344587 0)
(0.785922 0.00327978 0)
(0.778583 0.0031207 0)
(0.771612 0.00296738 0)
(0.764995 0.00281873 0)
(0.758724 0.00267353 0)
(0.752786 0.002531 0)
(0.747177 0.0023897 0)
(0.741885 0.00224946 0)
(0.73691 0.00210788 0)
(0.732241 0.00196671 0)
(0.727884 0.00182014 0)
(0.723824 0.0016763 0)
(0.720074 0.0015184 0)
(0.716628 0.00137379 0)
(0.713467 0.00119559 0)
(0.710665 0.00105776 0)
(0.708051 0.00085446 0)
(0.705959 0.000724583 0)
(0.703799 0.000552593 0)
(0.702445 0.000318473 0)
(0.700683 0.000594701 0)
(0.699563 -7.82162e-05 0)
(1.0044 0.0348074 0)
(1.04324 0.0341792 0)
(1.05994 0.0240384 0)
(1.06229 0.0202783 0)
(1.0625 0.0178166 0)
(1.06182 0.015743 0)
(1.05926 0.0142796 0)
(1.05475 0.0131685 0)
(1.0486 0.0122085 0)
(1.04112 0.0113517 0)
(1.0326 0.0105874 0)
(1.0233 0.0099026 0)
(1.01345 0.00928445 0)
(1.00324 0.00872347 0)
(0.992842 0.00821263 0)
(0.982375 0.00774624 0)
(0.971945 0.00731937 0)
(0.96163 0.00692767 0)
(0.951492 0.00656727 0)
(0.941572 0.00623471 0)
(0.931905 0.00592686 0)
(0.922513 0.00564091 0)
(0.91341 0.00537433 0)
(0.904606 0.00512482 0)
(0.896108 0.00489031 0)
(0.887916 0.00466892 0)
(0.880032 0.00445895 0)
(0.872454 0.00425882 0)
(0.865179 0.0040671 0)
(0.858204 0.00388245 0)
(0.851525 0.0037036 0)
(0.845138 0.00352941 0)
(0.83904 0.00335862 0)
(0.833227 0.00319032 0)
(0.827697 0.00302304 0)
(0.822445 0.00285644 0)
(0.817475 0.00268808 0)
(0.812777 0.00251949 0)
(0.808363 0.00234486 0)
(0.804217 0.00217203 0)
(0.800358 0.00198439 0)
(0.796774 0.0018084 0)
(0.793466 0.00159923 0)
(0.790471 0.00142553 0)
(0.787691 0.00119351 0)
(0.785332 0.00101851 0)
(0.783029 0.000826146 0)
(0.78131 0.000555673 0)
(0.779455 0.000777158 0)
(0.778098 0.000381205 0)
(1.00402 0.0323673 0)
(1.03991 0.0331291 0)
(1.05616 0.0234152 0)
(1.05893 0.0198899 0)
(1.06023 0.0176858 0)
(1.06158 0.0157465 0)
(1.06197 0.0143833 0)
(1.0611 0.0133857 0)
(1.05907 0.0125398 0)
(1.05601 0.0117865 0)
(1.05201 0.0111125 0)
(1.04717 0.0105046 0)
(1.04164 0.00995013 0)
(1.03554 0.00944024 0)
(1.02898 0.00896912 0)
(1.02209 0.00853248 0)
(1.01494 0.00812679 0)
(1.00763 0.00774902 0)
(1.00023 0.00739651 0)
(0.99279 0.0070668 0)
(0.985368 0.00675768 0)
(0.978003 0.00646708 0)
(0.970727 0.00619307 0)
(0.963567 0.00593386 0)
(0.956546 0.00568779 0)
(0.94968 0.00545329 0)
(0.942984 0.00522891 0)
(0.936468 0.00501328 0)
(0.930143 0.00480512 0)
(0.924014 0.0046032 0)
(0.918088 0.00440632 0)
(0.912369 0.00421339 0)
(0.906862 0.00402317 0)
(0.901568 0.00383474 0)
(0.896493 0.00364664 0)
(0.891636 0.0034584 0)
(0.887004 0.00326765 0)
(0.882594 0.00307569 0)
(0.878419 0.00287684 0)
(0.874469 0.00267849 0)
(0.870762 0.00246468 0)
(0.86729 0.00226015 0)
(0.86406 0.00202366 0)
(0.861094 0.00181622 0)
(0.858337 0.001559 0)
(0.855915 0.00134184 0)
(0.85361 0.00112839 0)
(0.85173 0.000832352 0)
(0.849875 0.000989715 0)
(0.848448 0.000790962 0)
(1.00364 0.0300269 0)
(1.03692 0.0320814 0)
(1.05282 0.0228253 0)
(1.05569 0.0194845 0)
(1.05713 0.0174934 0)
(1.05904 0.0156457 0)
(1.06049 0.0143294 0)
(1.0612 0.013394 0)
(1.06123 0.0126204 0)
(1.06062 0.0119396 0)
(1.05937 0.0113359 0)
(1.0575 0.0107946 0)
(1.05505 0.0103016 0)
(1.05206 0.00984712 0)
(1.0486 0.0094249 0)
(1.04474 0.00903056 0)
(1.04052 0.00866081 0)
(1.03602 0.00831303 0)
(1.03128 0.00798501 0)
(1.02636 0.00767485 0)
(1.0213 0.00738084 0)
(1.01614 0.00710142 0)
(1.01093 0.00683512 0)
(1.00569 0.00658057 0)
(1.00044 0.00633644 0)
(0.995224 0.0061015 0)
(0.99005 0.00587457 0)
(0.984941 0.00565449 0)
(0.979911 0.00544017 0)
(0.974975 0.00523055 0)
(0.970146 0.00502457 0)
(0.965434 0.0048212 0)
(0.960849 0.00461932 0)
(0.956399 0.00441802 0)
(0.952093 0.0042159 0)
(0.947936 0.00401244 0)
(0.943938 0.00380535 0)
(0.940101 0.00359577 0)
(0.936438 0.00337819 0)
(0.932946 0.00315951 0)
(0.929642 0.0029247 0)
(0.926523 0.00269629 0)
(0.923599 0.00243754 0)
(0.920884 0.0022006 0)
(0.91835 0.00192261 0)
(0.916072 0.00166885 0)
(0.913931 0.00143464 0)
(0.912097 0.00112307 0)
(0.91037 0.0012105 0)
(0.909045 0.00114077 0)
(1.00327 0.0277871 0)
(1.03409 0.0310226 0)
(1.04971 0.0222619 0)
(1.05273 0.019077 0)
(1.05413 0.0172822 0)
(1.05609 0.0155159 0)
(1.05782 0.0142212 0)
(1.05905 0.0133154 0)
(1.05988 0.0125816 0)
(1.06037 0.0119429 0)
(1.0605 0.0113827 0)
(1.06025 0.010886 0)
(1.05961 0.010438 0)
(1.0586 0.0100275 0)
(1.05723 0.0096473 0)
(1.05551 0.0092924 0)
(1.05348 0.00895906 0)
(1.05116 0.0086444 0)
(1.04859 0.00834612 0)
(1.04579 0.00806231 0)
(1.0428 0.00779136 0)
(1.03965 0.00753183 0)
(1.03636 0.00728245 0)
(1.03296 0.00704202 0)
(1.02948 0.0068094 0)
(1.02593 0.00658354 0)
(1.02235 0.00636341 0)
(1.01874 0.00614804 0)
(1.01513 0.00593646 0)
(1.01153 0.00572774 0)
(1.00796 0.00552094 0)
(1.00442 0.00531511 0)
(1.00094 0.00510924 0)
(0.997527 0.00490244 0)
(0.994184 0.00469339 0)
(0.990925 0.00448158 0)
(0.987761 0.00426475 0)
(0.984696 0.00404396 0)
(0.981744 0.0038139 0)
(0.978907 0.00358093 0)
(0.9762 0.00333115 0)
(0.973625 0.00308458 0)
(0.97119 0.00280947 0)
(0.96891 0.00254872 0)
(0.96677 0.00225494 0)
(0.964817 0.00197188 0)
(0.962991 0.00171833 0)
(0.961387 0.00139921 0)
(0.959917 0.00141708 0)
(0.958843 0.00141474 0)
(1.00292 0.0256514 0)
(1.03138 0.0299481 0)
(1.0467 0.0217206 0)
(1.04994 0.0186674 0)
(1.05132 0.0170589 0)
(1.05324 0.0153789 0)
(1.05499 0.0140994 0)
(1.05634 0.0132086 0)
(1.05741 0.0124972 0)
(1.05828 0.0118815 0)
(1.05896 0.0113447 0)
(1.05944 0.0108732 0)
(1.0597 0.0104522 0)
(1.05973 0.0100698 0)
(1.05953 0.0097184 0)
(1.05911 0.00939226 0)
(1.05846 0.00908719 0)
(1.05759 0.00879988 0)
(1.05652 0.00852769 0)
(1.05526 0.00826848 0)
(1.05381 0.00802044 0)
(1.05221 0.00778205 0)
(1.05046 0.00755196 0)
(1.04858 0.00732893 0)
(1.04658 0.00711185 0)
(1.04449 0.00689967 0)
(1.04232 0.00669141 0)
(1.04008 0.00648613 0)
(1.03779 0.00628292 0)
(1.03546 0.00608089 0)
(1.03311 0.00587914 0)
(1.03074 0.00567681 0)
(1.02838 0.00547289 0)
(1.02602 0.00526655 0)
(1.02369 0.00505651 0)
(1.02139 0.00484227 0)
(1.01913 0.00462158 0)
(1.01691 0.00439546 0)
(1.01476 0.00415877 0)
(1.01268 0.00391735 0)
(1.01067 0.00365851 0)
(1.00874 0.00339958 0)
(1.00691 0.00311398 0)
(1.00518 0.00283559 0)
(1.00354 0.00253096 0)
(1.00204 0.00222644 0)
(1.00063 0.00195587 0)
(0.99939 0.00163474 0)
(0.99828 0.00158723 0)
(0.997557 0.00160143 0)
(1.0026 0.0236223 0)
(1.02879 0.0288566 0)
(1.04379 0.0212002 0)
(1.04724 0.0182557 0)
(1.04863 0.016822 0)
(1.05052 0.0152374 0)
(1.05227 0.0139749 0)
(1.05362 0.0130945 0)
(1.05472 0.0123988 0)
(1.05569 0.0117974 0)
(1.05654 0.0112733 0)
(1.05728 0.010815 0)
(1.05789 0.0104083 0)
(1.05839 0.0100416 0)
(1.05875 0.00970674 0)
(1.05898 0.00939806 0)
(1.05907 0.00911107 0)
(1.05903 0.00884216 0)
(1.05885 0.00858844 0)
(1.05854 0.00834751 0)
(1.05809 0.00811735 0)
(1.05752 0.00789625 0)
(1.05684 0.00768271 0)
(1.05604 0.00747536 0)
(1.05514 0.00727301 0)
(1.05415 0.00707451 0)
(1.05307 0.00687882 0)
(1.05191 0.00668495 0)
(1.05069 0.00649195 0)
(1.04942 0.00629891 0)
(1.0481 0.00610492 0)
(1.04674 0.00590911 0)
(1.04535 0.00571047 0)
(1.04394 0.00550817 0)
(1.04253 0.00530093 0)
(1.04111 0.00508823 0)
(1.0397 0.00486786 0)
(1.0383 0.00464074 0)
(1.03692 0.00440194 0)
(1.03558 0.00415668 0)
(1.03427 0.00389363 0)
(1.033 0.00362732 0)
(1.03179 0.00333619 0)
(1.03064 0.00304588 0)
(1.02955 0.00273465 0)
(1.02853 0.00241589 0)
(1.0276 0.00213097 0)
(1.02678 0.00181078 0)
(1.02608 0.00170413 0)
(1.02575 0.00169642 0)
(1.0023 0.0217016 0)
(1.02634 0.027749 0)
(1.04096 0.0206991 0)
(1.04464 0.0178434 0)
(1.04605 0.0165703 0)
(1.0479 0.0150897 0)
(1.04965 0.0138489 0)
(1.05099 0.0129781 0)
(1.05209 0.0122964 0)
(1.05306 0.0117067 0)
(1.05394 0.0111912 0)
(1.05474 0.0107405 0)
(1.05547 0.0103415 0)
(1.05612 0.0099829 0)
(1.0567 0.00965678 0)
(1.05721 0.00935744 0)
(1.05764 0.00908041 0)
(1.05799 0.00882203 0)
(1.05827 0.00857931 0)
(1.05846 0.00834972 0)
(1.05858 0.00813112 0)
(1.05861 0.00792165 0)
(1.05856 0.00771969 0)
(1.05844 0.00752377 0)
(1.05824 0.00733257 0)
(1.05797 0.00714484 0)
(1.05764 0.00695944 0)
(1.05724 0.0067753 0)
(1.05678 0.00659139 0)
(1.05627 0.00640675 0)
(1.05572 0.0062204 0)
(1.05512 0.00603142 0)
(1.05449 0.00583877 0)
(1.05383 0.00564162 0)
(1.05315 0.0054386 0)
(1.05245 0.00522923 0)
(1.05174 0.00501126 0)
(1.05103 0.00478549 0)
(1.05032 0.00454727 0)
(1.04961 0.00430109 0)
(1.04892 0.00403704 0)
(1.04824 0.00376688 0)
(1.04759 0.00347369 0)
(1.04697 0.00317598 0)
(1.04639 0.00286117 0)
(1.04585 0.00253393 0)
(1.04536 0.00223707 0)
(1.04496 0.00191836 0)
(1.04467 0.00175908 0)
(1.04472 0.00170348 0)
(1.00203 0.0198903 0)
(1.02402 0.0266283 0)
(1.03822 0.0202143 0)
(1.04211 0.0174324 0)
(1.04355 0.0163039 0)
(1.04537 0.0149347 0)
(1.04712 0.0137209 0)
(1.04846 0.0128596 0)
(1.04955 0.0121918 0)
(1.05051 0.0116138 0)
(1.05138 0.0111059 0)
(1.05219 0.0106609 0)
(1.05293 0.010267 0)
(1.05362 0.00991319 0)
(1.05426 0.00959179 0)
(1.05486 0.00929728 0)
(1.05542 0.00902532 0)
(1.05593 0.00877233 0)
(1.0564 0.00853533 0)
(1.05683 0.00831178 0)
(1.0572 0.00809951 0)
(1.05754 0.00789664 0)
(1.05783 0.00770146 0)
(1.05807 0.00751246 0)
(1.05826 0.00732823 0)
(1.05841 0.00714746 0)
(1.05852 0.00696893 0)
(1.05858 0.0067915 0)
(1.0586 0.00661405 0)
(1.05859 0.00643557 0)
(1.05854 0.006255 0)
(1.05846 0.0060714 0)
(1.05835 0.00588364 0)
(1.05821 0.00569088 0)
(1.05805 0.0054917 0)
(1.05788 0.0052856 0)
(1.05769 0.0050703 0)
(1.05748 0.00484648 0)
(1.05727 0.00460977 0)
(1.05706 0.0043639 0)
(1.05685 0.00410036 0)
(1.05665 0.00382833 0)
(1.05645 0.00353493 0)
(1.05626 0.00323282 0)
(1.05609 0.00291611 0)
(1.05595 0.00258425 0)
(1.05584 0.00227717 0)
(1.05581 0.00195854 0)
(1.05587 0.00175234 0)
(1.05625 0.00163327 0)
(1.00179 0.0181884 0)
(1.02183 0.0254985 0)
(1.03558 0.0197418 0)
(1.03968 0.0170245 0)
(1.04114 0.0160235 0)
(1.04293 0.0147712 0)
(1.04467 0.0135903 0)
(1.04603 0.0127389 0)
(1.0471 0.012085 0)
(1.04804 0.0115192 0)
(1.0489 0.0110192 0)
(1.0497 0.0105796 0)
(1.05043 0.01019 0)
(1.05112 0.00983986 0)
(1.05178 0.00952164 0)
(1.05239 0.00923 0)
(1.05298 0.00896078 0)
(1.05354 0.0087105 0)
(1.05408 0.00847627 0)
(1.05459 0.0082556 0)
(1.05507 0.00804635 0)
(1.05553 0.00784664 0)
(1.05597 0.00765478 0)
(1.05638 0.00746924 0)
(1.05677 0.00728858 0)
(1.05713 0.00711148 0)
(1.05746 0.00693666 0)
(1.05777 0.00676294 0)
(1.05806 0.00658915 0)
(1.05832 0.00641424 0)
(1.05857 0.00623708 0)
(1.05879 0.00605671 0)
(1.059 0.00587196 0)
(1.05918 0.00568195 0)
(1.05936 0.00548524 0)
(1.05952 0.00528127 0)
(1.05967 0.00506782 0)
(1.05981 0.00484536 0)
(1.05994 0.00460985 0)
(1.06007 0.00436428 0)
(1.06019 0.00410146 0)
(1.06032 0.00382823 0)
(1.06044 0.00353511 0)
(1.06058 0.0032302 0)
(1.06072 0.00291208 0)
(1.06088 0.00257765 0)
(1.06106 0.00226127 0)
(1.0613 0.00194006 0)
(1.06164 0.00169117 0)
(1.06227 0.00150138 0)
(1.00157 0.0165957 0)
(1.01979 0.0243634 0)
(1.03305 0.0192776 0)
(1.03732 0.0166215 0)
(1.03883 0.0157303 0)
(1.04058 0.0145987 0)
(1.04232 0.0134568 0)
(1.04367 0.0126159 0)
(1.04474 0.0119758 0)
(1.04567 0.0114228 0)
(1.04652 0.0109312 0)
(1.0473 0.0104972 0)
(1.04803 0.0101118 0)
(1.04871 0.00976514 0)
(1.04935 0.00944967 0)
(1.04996 0.00916026 0)
(1.05055 0.00889289 0)
(1.05112 0.00864422 0)
(1.05167 0.00841143 0)
(1.0522 0.0081921 0)
(1.05271 0.00798415 0)
(1.05322 0.00778572 0)
(1.0537 0.00759517 0)
(1.05418 0.00741097 0)
(1.05464 0.0072317 0)
(1.05509 0.00705603 0)
(1.05553 0.00688267 0)
(1.05595 0.00671041 0)
(1.05637 0.00653809 0)
(1.05677 0.00636459 0)
(1.05716 0.00618878 0)
(1.05754 0.00600967 0)
(1.05792 0.00582608 0)
(1.05828 0.00563709 0)
(1.05864 0.00544127 0)
(1.05899 0.00523801 0)
(1.05934 0.00502514 0)
(1.05968 0.00480296 0)
(1.06002 0.00456778 0)
(1.06036 0.00432183 0)
(1.06069 0.00405917 0)
(1.06103 0.00378462 0)
(1.06136 0.00349143 0)
(1.0617 0.00318429 0)
(1.06205 0.00286447 0)
(1.06241 0.00252806 0)
(1.06279 0.00220269 0)
(1.06323 0.00187547 0)
(1.06376 0.00158719 0)
(1.06455 0.00132614 0)
(1.00137 0.0151112 0)
(1.01788 0.0232271 0)
(1.03062 0.0188179 0)
(1.03506 0.0162249 0)
(1.03661 0.0154258 0)
(1.03832 0.0144166 0)
(1.04005 0.0133201 0)
(1.04141 0.0124907 0)
(1.04247 0.011864 0)
(1.04339 0.0113245 0)
(1.04423 0.0108418 0)
(1.045 0.0104136 0)
(1.04571 0.0100327 0)
(1.04638 0.00968946 0)
(1.04701 0.00937672 0)
(1.04761 0.00908941 0)
(1.04819 0.00882367 0)
(1.04875 0.00857625 0)
(1.0493 0.00834442 0)
(1.04983 0.00812583 0)
(1.05034 0.00791844 0)
(1.05085 0.00772044 0)
(1.05135 0.00753023 0)
(1.05185 0.00734629 0)
(1.05233 0.00716724 0)
(1.05281 0.00699175 0)
(1.05328 0.00681853 0)
(1.05375 0.00664637 0)
(1.05422 0.00647409 0)
(1.05467 0.00630058 0)
(1.05513 0.0061247 0)
(1.05558 0.00594543 0)
(1.05604 0.00576159 0)
(1.05648 0.00557227 0)
(1.05693 0.00537604 0)
(1.05738 0.00517224 0)
(1.05783 0.00495881 0)
(1.05827 0.00473583 0)
(1.05872 0.0045 0)
(1.05917 0.00425286 0)
(1.05962 0.00398956 0)
(1.06007 0.00371324 0)
(1.06053 0.00341923 0)
(1.06099 0.00310986 0)
(1.06145 0.00278765 0)
(1.06193 0.00244898 0)
(1.06243 0.00211451 0)
(1.06299 0.00177778 0)
(1.06365 0.00145319 0)
(1.06453 0.00112322 0)
(1.0012 0.0137335 0)
(1.0161 0.0220936 0)
(1.02829 0.0183589 0)
(1.03288 0.0158357 0)
(1.03449 0.0151118 0)
(1.03616 0.0142242 0)
(1.03787 0.0131796 0)
(1.03923 0.0123632 0)
(1.0403 0.0117496 0)
(1.04121 0.0112239 0)
(1.04203 0.0107508 0)
(1.04279 0.0103288 0)
(1.04349 0.00995241 0)
(1.04415 0.00961283 0)
(1.04477 0.00930291 0)
(1.04536 0.00901774 0)
(1.04593 0.0087536 0)
(1.04648 0.00850736 0)
(1.04701 0.00827637 0)
(1.04753 0.00805833 0)
(1.04805 0.00785125 0)
(1.04855 0.00765336 0)
(1.04904 0.00746309 0)
(1.04954 0.00727896 0)
(1.05002 0.00709959 0)
(1.0505 0.00692368 0)
(1.05098 0.00674995 0)
(1.05146 0.00657718 0)
(1.05194 0.00640419 0)
(1.05242 0.00622987 0)
(1.05289 0.00605307 0)
(1.05337 0.00587278 0)
(1.05385 0.00568782 0)
(1.05433 0.00549729 0)
(1.05482 0.00529976 0)
(1.0553 0.00509456 0)
(1.0558 0.00487973 0)
(1.05629 0.00465514 0)
(1.05679 0.00441788 0)
(1.05729 0.00416886 0)
(1.05779 0.00390417 0)
(1.0583 0.00362562 0)
(1.05881 0.00333005 0)
(1.05933 0.00301819 0)
(1.05986 0.0026929 0)
(1.06041 0.0023512 0)
(1.06097 0.00200738 0)
(1.0616 0.00165818 0)
(1.06231 0.00129992 0)
(1.06323 0.000905233 0)
(1.00104 0.0124601 0)
(1.01446 0.0209673 0)
(1.02608 0.0178972 0)
(1.03079 0.0154549 0)
(1.03246 0.01479 0)
(1.03408 0.0140212 0)
(1.03578 0.013035 0)
(1.03715 0.0122336 0)
(1.03821 0.0116327 0)
(1.03911 0.011121 0)
(1.03992 0.0106581 0)
(1.04067 0.0102426 0)
(1.04137 0.00987098 0)
(1.04201 0.00953516 0)
(1.04262 0.00922816 0)
(1.0432 0.00894522 0)
(1.04376 0.00868273 0)
(1.0443 0.0084377 0)
(1.04482 0.00820754 0)
(1.04534 0.00799001 0)
(1.04584 0.00778316 0)
(1.04633 0.00758528 0)
(1.04682 0.00739482 0)
(1.0473 0.00721033 0)
(1.04778 0.00703044 0)
(1.04826 0.00685387 0)
(1.04874 0.00667933 0)
(1.04921 0.00650563 0)
(1.04969 0.00633157 0)
(1.05017 0.00615603 0)
(1.05065 0.00597789 0)
(1.05113 0.00579613 0)
(1.05161 0.00560958 0)
(1.0521 0.00541733 0)
(1.0526 0.00521801 0)
(1.05309 0.00501089 0)
(1.0536 0.00479413 0)
(1.05411 0.00456743 0)
(1.05462 0.00432821 0)
(1.05514 0.00407686 0)
(1.05567 0.00381023 0)
(1.0562 0.00352911 0)
(1.05674 0.00323136 0)
(1.05728 0.00291671 0)
(1.05783 0.00258776 0)
(1.05841 0.00224218 0)
(1.059 0.00188871 0)
(1.05966 0.00152498 0)
(1.0604 0.00113513 0)
(1.06131 0.000681673 0)
(1.0009 0.0112882 0)
(1.01295 0.0198525 0)
(1.02398 0.0174296 0)
(1.02879 0.0150828 0)
(1.03052 0.0144627 0)
(1.03211 0.0138072 0)
(1.03378 0.0128855 0)
(1.03515 0.0121017 0)
(1.03621 0.0115131 0)
(1.0371 0.0110157 0)
(1.03791 0.0105636 0)
(1.03865 0.010155 0)
(1.03933 0.0097883 0)
(1.03997 0.00945636 0)
(1.04057 0.00915242 0)
(1.04114 0.00887178 0)
(1.04169 0.00861101 0)
(1.04222 0.00836722 0)
(1.04273 0.00813791 0)
(1.04323 0.0079209 0)
(1.04373 0.00771429 0)
(1.04421 0.00751639 0)
(1.04469 0.0073257 0)
(1.04517 0.00714078 0)
(1.04564 0.0069603 0)
(1.04611 0.00678296 0)
(1.04658 0.00660751 0)
(1.04705 0.00643274 0)
(1.04752 0.00625744 0)
(1.04799 0.00608052 0)
(1.04846 0.00590083 0)
(1.04894 0.00571738 0)
(1.04942 0.005529 0)
(1.04991 0.00533478 0)
(1.0504 0.0051334 0)
(1.0509 0.00492408 0)
(1.0514 0.00470511 0)
(1.05191 0.00447601 0)
(1.05243 0.00423452 0)
(1.05295 0.00398058 0)
(1.05348 0.00371165 0)
(1.05402 0.00342775 0)
(1.05456 0.00312739 0)
(1.05511 0.00280971 0)
(1.05567 0.00247667 0)
(1.05625 0.00212639 0)
(1.05686 0.0017631 0)
(1.05752 0.00138354 0)
(1.05826 0.000964319 0)
(1.05915 0.000459244 0)
(1.00078 0.0102143 0)
(1.01157 0.0187537 0)
(1.022 0.0169536 0)
(1.02687 0.0147195 0)
(1.02867 0.0141319 0)
(1.03022 0.0135825 0)
(1.03187 0.0127305 0)
(1.03324 0.0119675 0)
(1.0343 0.011391 0)
(1.03519 0.0109078 0)
(1.03598 0.0104671 0)
(1.03672 0.0100658 0)
(1.03739 0.00970428 0)
(1.03802 0.00937636 0)
(1.03861 0.00907557 0)
(1.03917 0.00879734 0)
(1.03971 0.00853835 0)
(1.04023 0.00829586 0)
(1.04074 0.00806743 0)
(1.04123 0.00785096 0)
(1.04171 0.00764458 0)
(1.04219 0.00744668 0)
(1.04266 0.00725573 0)
(1.04313 0.00707038 0)
(1.04359 0.00688927 0)
(1.04405 0.00671113 0)
(1.04451 0.00653471 0)
(1.04497 0.0063588 0)
(1.04544 0.0061822 0)
(1.0459 0.0060038 0)
(1.04637 0.00582247 0)
(1.04684 0.00563721 0)
(1.04732 0.00544688 0)
(1.0478 0.00525056 0)
(1.04828 0.00504698 0)
(1.04878 0.00483532 0)
(1.04927 0.00461398 0)
(1.04978 0.00438234 0)
(1.05029 0.0041384 0)
(1.05081 0.00388174 0)
(1.05134 0.00361028 0)
(1.05187 0.00332348 0)
(1.05241 0.00302023 0)
(1.05296 0.0026993 0)
(1.05352 0.00236192 0)
(1.0541 0.00200626 0)
(1.0547 0.0016331 0)
(1.05536 0.00123712 0)
(1.05609 0.000790863 0)
(1.05695 0.000241809 0)
(1.00067 0.00923429 0)
(1.01031 0.0176752 0)
(1.02013 0.0164668 0)
(1.02503 0.0143649 0)
(1.02692 0.0137996 0)
(1.02843 0.0133471 0)
(1.03005 0.0125695 0)
(1.03142 0.0118308 0)
(1.03248 0.0112663 0)
(1.03336 0.0107973 0)
(1.03415 0.0103685 0)
(1.03487 0.00997503 0)
(1.03554 0.00961881 0)
(1.03616 0.00929504 0)
(1.03674 0.00899754 0)
(1.03729 0.00872182 0)
(1.03783 0.00846469 0)
(1.03834 0.00822353 0)
(1.03883 0.00799602 0)
(1.03932 0.00778011 0)
(1.0398 0.00757399 0)
(1.04026 0.00737607 0)
(1.04073 0.00718488 0)
(1.04119 0.00699907 0)
(1.04164 0.00681732 0)
(1.0421 0.00663836 0)
(1.04255 0.00646094 0)
(1.043 0.00628385 0)
(1.04346 0.0061059 0)
(1.04391 0.00592597 0)
(1.04437 0.00574295 0)
(1.04484 0.00555581 0)
(1.04531 0.00536346 0)
(1.04578 0.00516497 0)
(1.04626 0.00495911 0)
(1.04675 0.00474502 0)
(1.04724 0.00452123 0)
(1.04774 0.00428696 0)
(1.04824 0.00404046 0)
(1.04876 0.00378101 0)
(1.04927 0.00350687 0)
(1.0498 0.00321712 0)
(1.05033 0.0029108 0)
(1.05088 0.00258644 0)
(1.05143 0.00224455 0)
(1.052 0.00188299 0)
(1.0526 0.00150002 0)
(1.05325 0.0010877 0)
(1.05397 0.000616713 0)
(1.05479 3.26113e-05 0)
(1.00058 0.00834361 0)
(1.00917 0.0166215 0)
(1.01837 0.0159677 0)
(1.02328 0.0140182 0)
(1.02525 0.0134678 0)
(1.02673 0.0131017 0)
(1.02831 0.0124017 0)
(1.02968 0.0116915 0)
(1.03075 0.0111392 0)
(1.03162 0.0106839 0)
(1.0324 0.0102675 0)
(1.03312 0.00988242 0)
(1.03378 0.0095318 0)
(1.03439 0.00921233 0)
(1.03496 0.00891823 0)
(1.03551 0.00864511 0)
(1.03603 0.00838992 0)
(1.03654 0.00815016 0)
(1.03703 0.00792361 0)
(1.0375 0.00770828 0)
(1.03797 0.00750244 0)
(1.03843 0.00730451 0)
(1.03889 0.00711307 0)
(1.03934 0.0069268 0)
(1.03979 0.00674439 0)
(1.04024 0.00656459 0)
(1.04068 0.00638615 0)
(1.04113 0.00620785 0)
(1.04158 0.00602851 0)
(1.04203 0.00584701 0)
(1.04248 0.00566224 0)
(1.04294 0.00547319 0)
(1.0434 0.00527877 0)
(1.04386 0.00507805 0)
(1.04434 0.00486986 0)
(1.04482 0.00465329 0)
(1.0453 0.00442697 0)
(1.04579 0.00419003 0)
(1.04629 0.00394089 0)
(1.0468 0.00367862 0)
(1.04731 0.0034017 0)
(1.04783 0.00310894 0)
(1.04835 0.00279944 0)
(1.04889 0.0024715 0)
(1.04944 0.00212499 0)
(1.05 0.00175717 0)
(1.05059 0.00136459 0)
(1.05123 0.000936444 0)
(1.05192 0.000443579 0)
(1.0527 -0.000168081 0)
(1.0005 0.00753719 0)
(1.00813 0.0155967 0)
(1.01672 0.015455 0)
(1.02162 0.0136786 0)
(1.02366 0.0131382 0)
(1.02512 0.0128471 0)
(1.02666 0.0122266 0)
(1.02803 0.0115492 0)
(1.02909 0.0110095 0)
(1.02997 0.0105678 0)
(1.03074 0.0101641 0)
(1.03145 0.00978788 0)
(1.0321 0.00944314 0)
(1.03271 0.0091281 0)
(1.03328 0.00883753 0)