/*--------------------------------*- C++ -*----------------------------------*\
  =========                 |
  \\      /  F ield         | OpenFOAM: The Open Source CFD Toolbox
   \\    /   O peration     | Website:  https://openfoam.org
    \\  /    A nd           | Version:  7
     \\/     M anipulation  |
\*---------------------------------------------------------------------------*/
FoamFile
{
    version     2.0;
    format      ascii;
    class       volVectorField;
    location    "0.17";
    object      wallShearStress;
}
// * * * * * * * * * * * * * * * * * * * * * * * * * * * * * * * * * * * * * //

dimensions      [0 2 -2 0 0 0 0];

internalField   uniform (0 0 0);

boundaryField
{
    velocityInlet
    {
        type            calculated;
        value           uniform (0 0 0);
    }
    pressureOutlet
    {
        type            calculated;
        value           uniform (0 0 0);
    }
    fixedWalls
    {
        type            calculated;
        value           nonuniform List<vector> 
100
(
(-0.0178435 -0.0103228 0)
(0.0153804 -0.0015173 0)
(-0.00130201 0.00104654 0)
(0.00257336 -0.000257913 0)
(0.00507865 -0.000835406 0)
(0.0115992 -0.00106804 0)
(0.0149009 -0.000584441 0)
(0.0145764 0.00017777 0)
(0.010956 0.000608001 0)
(0.006599 0.000661556 0)
(0.00272269 0.000508111 0)
(1.22962e-05 0.000337904 0)
(-0.00162824 0.00019703 0)
(-0.0025092 0.000102558 0)
(-0.00289739 4.55372e-05 0)
(-0.00298198 1.2795e-05 0)
(-0.00287849 -1.08554e-05 0)
(-0.00265133 -2.70986e-05 0)
(-0.00234665 -3.77269e-05 0)
(-0.00201421 -4.12598e-05 0)
(-0.00170732 -3.7143e-05 0)
(-0.00146176 -2.89046e-05 0)
(-0.001278 -2.19557e-05 0)
(-0.00112622 -1.98836e-05 0)
(-0.000969436 -2.28645e-05 0)
(-0.000784679 -2.82383e-05 0)
(-0.000573511 -3.24951e-05 0)
(-0.000362271 -3.23879e-05 0)
(-0.000192389 -2.63138e-05 0)
(-0.000103774 -1.64004e-05 0)
(-0.000120682 -2.73609e-06 0)
(-0.000243612 1.08097e-05 0)
(-0.000451456 2.17378e-05 0)
(-0.000713056 2.87832e-05 0)
(-0.000997823 3.2083e-05 0)
(-0.00128191 3.25889e-05 0)
(-0.00154966 3.13422e-05 0)
(-0.00179142 2.89858e-05 0)
(-0.00199994 2.56483e-05 0)
(-0.00216796 2.12046e-05 0)
(-0.00228845 1.56007e-05 0)
(-0.00235846 9.549e-06 0)
(-0.00238486 4.27114e-06 0)
(-0.00238859 1.46389e-06 0)
(-0.00240523 3.46016e-06 0)
(-0.00248071 1.2103e-05 0)
(-0.00265167 2.55687e-05 0)
(-0.00288967 3.45151e-05 0)
(-0.00304998 2.67337e-05 0)
(-0.00290968 -1.34639e-05 0)
(-0.00234174 -6.46978e-05 0)
(-0.00150592 -9.13716e-05 0)
(-0.000762392 -7.44873e-05 0)
(-0.000385276 -3.21128e-05 0)
(-0.000395092 4.56857e-06 0)
(-0.000618514 2.38049e-05 0)
(-0.000868248 2.29119e-05 0)
(-0.00103279 1.13356e-05 0)
(-0.0010816 -1.20465e-06 0)
(-0.00104459 -9.95186e-06 0)
(-0.000979226 -1.14537e-05 0)
(-0.000940647 -7.34886e-06 0)
(-0.000958937 -2.00061e-07 0)
(-0.00103142 5.45636e-06 0)
(-0.00113548 8.03677e-06 0)
(-0.00124969 8.50013e-06 0)
(-0.00136712 8.98332e-06 0)
(-0.00149406 1.08122e-05 0)
(-0.00163818 1.36554e-05 0)
(-0.00179708 1.60077e-05 0)
(-0.00195565 1.63652e-05 0)
(-0.00209236 1.42085e-05 0)
(-0.00218845 1.0128e-05 0)
(-0.00223428 5.42907e-06 0)
(-0.00223096 6.58126e-07 0)
(-0.00218784 -3.17225e-06 0)
(-0.00211855 -5.69253e-06 0)
(-0.00203884 -6.76392e-06 0)
(-0.00196746 -6.05905e-06 0)
(-0.00192767 -3.34594e-06 0)
(-0.00194576 2.14794e-06 0)
(-0.00204068 9.77329e-06 0)
(-0.00219815 1.59699e-05 0)
(-0.00234556 1.51407e-05 0)
(-0.00237141 4.28805e-06 0)
(-0.00218836 -1.49909e-05 0)
(-0.0018112 -3.17158e-05 0)
(-0.00136425 -3.69624e-05 0)
(-0.00100848 -2.81616e-05 0)
(-0.00083933 -1.2467e-05 0)
(-0.000868468 2.40338e-06 0)
(-0.00102416 1.22465e-05 0)
(-0.00123911 1.56494e-05 0)
(-0.00144141 1.56901e-05 0)
(-0.00161546 1.24166e-05 0)
(-0.00174489 1.1251e-05 0)
(-0.0018171 6.84853e-06 0)
(-0.00187197 5.53813e-06 0)
(-0.00182258 -1.24704e-06 0)
(-0.00165809 -8.00323e-06 0)
)
;
    }
    bottomWall
    {
        type            calculated;
        value           nonuniform List<vector> 
800
(
(-0.0353488 0.00214397 0)
(-0.0160266 0.000524834 0)
(-0.0106077 0.000100717 0)
(-0.00845583 3.5261e-05 0)
(-0.00748598 1.98627e-05 0)
(-0.00685213 1.61258e-05 0)
(-0.00634432 1.33622e-05 0)
(-0.00593281 1.09076e-05 0)
(-0.00559761 9.08764e-06 0)
(-0.00531831 7.77275e-06 0)
(-0.00508032 6.77737e-06 0)
(-0.00487421 5.99111e-06 0)
(-0.0046935 5.35398e-06 0)
(-0.00453349 4.82884e-06 0)
(-0.00439058 4.38981e-06 0)
(-0.004262 4.01807e-06 0)
(-0.00414558 3.70003e-06 0)
(-0.00403957 3.4252e-06 0)
(-0.00394256 3.18565e-06 0)
(-0.00385339 2.97524e-06 0)
(-0.0037711 2.78919e-06 0)
(-0.0036949 2.62368e-06 0)
(-0.0036241 2.47564e-06 0)
(-0.00355813 2.34256e-06 0)
(-0.00349649 2.22225e-06 0)
(-0.00343875 2.11322e-06 0)
(-0.00338455 2.01397e-06 0)
(-0.00333356 1.92328e-06 0)
(-0.00328549 1.84017e-06 0)
(-0.00324009 1.76378e-06 0)
(-0.00319715 1.69337e-06 0)
(-0.00315647 1.62826e-06 0)
(-0.00311786 1.56788e-06 0)
(-0.00308117 1.51181e-06 0)
(-0.00304627 1.4595e-06 0)
(-0.00301303 1.41077e-06 0)
(-0.00298132 1.36526e-06 0)
(-0.00295104 1.32252e-06 0)
(-0.00292211 1.28245e-06 0)
(-0.00289442 1.2448e-06 0)
(-0.00286792 1.20918e-06 0)
(-0.00284252 1.17569e-06 0)
(-0.00281815 1.14413e-06 0)
(-0.00279476 1.11413e-06 0)
(-0.00277229 1.08595e-06 0)
(-0.00275069 1.05889e-06 0)
(-0.0027299 1.03368e-06 0)
(-0.00270991 1.009e-06 0)
(-0.00269062 9.86678e-07 0)
(-0.00267206 9.62807e-07 0)
(-0.00265655 9.43269e-07 0)
(-0.00264374 9.32193e-07 0)
(-0.0026311 9.18087e-07 0)
(-0.00261866 9.02774e-07 0)
(-0.00260642 8.88631e-07 0)
(-0.00259436 8.75235e-07 0)
(-0.00258248 8.61889e-07 0)
(-0.00257079 8.48945e-07 0)
(-0.00255926 8.36263e-07 0)
(-0.00254791 8.23837e-07 0)
(-0.00253672 8.11828e-07 0)
(-0.0025257 8.00229e-07 0)
(-0.00251483 7.88705e-07 0)
(-0.00250411 7.77255e-07 0)
(-0.00249355 7.6621e-07 0)
(-0.00248314 7.55567e-07 0)
(-0.00247287 7.44989e-07 0)
(-0.00246274 7.34477e-07 0)
(-0.00245276 7.24361e-07 0)
(-0.00244291 7.14473e-07 0)
(-0.00243319 7.04812e-07 0)
(-0.0024236 6.95374e-07 0)
(-0.00241414 6.85993e-07 0)
(-0.0024048 6.76835e-07 0)
(-0.00239559 6.67896e-07 0)
(-0.0023865 6.5901e-07 0)
(-0.00237753 6.50343e-07 0)
(-0.00236867 6.42058e-07 0)
(-0.00235993 6.33822e-07 0)
(-0.0023513 6.25633e-07 0)
(-0.00234277 6.17825e-07 0)
(-0.00233435 6.10063e-07 0)
(-0.00232604 6.02345e-07 0)
(-0.00231783 5.94837e-07 0)
(-0.00230972 5.8754e-07 0)
(-0.00230171 5.80282e-07 0)
(-0.0022938 5.73233e-07 0)
(-0.00228598 5.6639e-07 0)
(-0.00227825 5.59419e-07 0)
(-0.00227062 5.52819e-07 0)
(-0.00226308 5.46256e-07 0)
(-0.00225563 5.39894e-07 0)
(-0.00224825 5.33569e-07 0)
(-0.00224097 5.27277e-07 0)
(-0.00223377 5.21352e-07 0)
(-0.00222665 5.15293e-07 0)
(-0.00221962 5.09432e-07 0)
(-0.00221266 5.03602e-07 0)
(-0.00220578 4.9797e-07 0)
(-0.00219898 4.92533e-07 0)
(-0.00219225 4.86959e-07 0)
(-0.00218559 4.81579e-07 0)
(-0.00217901 4.76227e-07 0)
(-0.00217251 4.71068e-07 0)
(-0.00216606 4.66101e-07 0)
(-0.00215969 4.6116e-07 0)
(-0.00215339 4.56245e-07 0)
(-0.00214715 4.51185e-07 0)
(-0.00214098 4.46483e-07 0)
(-0.00213487 4.41971e-07 0)
(-0.00212882 4.37315e-07 0)
(-0.00212284 4.32681e-07 0)
(-0.00211692 4.28237e-07 0)
(-0.00211106 4.23981e-07 0)
(-0.00210526 4.19581e-07 0)
(-0.00209952 4.15368e-07 0)
(-0.00209383 4.11344e-07 0)
(-0.0020882 4.07175e-07 0)
(-0.00208263 4.03193e-07 0)
(-0.0020771 3.99233e-07 0)
(-0.00207164 3.95294e-07 0)
(-0.00206623 3.91708e-07 0)
(-0.00206086 3.87976e-07 0)
(-0.00205554 3.84097e-07 0)
(-0.00205028 3.80573e-07 0)
(-0.00204507 3.77066e-07 0)
(-0.0020399 3.73413e-07 0)
(-0.00203479 3.70112e-07 0)
(-0.00202971 3.66829e-07 0)
(-0.00202469 3.63395e-07 0)
(-0.00201971 3.60146e-07 0)
(-0.00201477 3.56913e-07 0)
(-0.00200988 3.53864e-07 0)
(-0.00200503 3.5066e-07 0)
(-0.00200023 3.47641e-07 0)
(-0.00199546 3.44634e-07 0)
(-0.00199074 3.41644e-07 0)
(-0.00198606 3.3883e-07 0)
(-0.00198141 3.3587e-07 0)
(-0.00197681 3.3308e-07 0)
(-0.00197225 3.30318e-07 0)
(-0.00196772 3.27546e-07 0)
(-0.00196323 3.24819e-07 0)
(-0.00195878 3.22053e-07 0)
(-0.00195437 3.19538e-07 0)
(-0.00194999 3.16932e-07 0)
(-0.00194565 3.14479e-07 0)
(-0.00194134 3.11841e-07 0)
(-0.00193707 3.09446e-07 0)
(-0.00193283 3.06802e-07 0)
(-0.00192927 3.043e-07 0)
(-0.00192637 3.03026e-07 0)
(-0.00192346 3.01561e-07 0)
(-0.00192054 2.99997e-07 0)
(-0.00191762 2.98263e-07 0)
(-0.00191469 2.96309e-07 0)
(-0.00191177 2.94856e-07 0)
(-0.00190883 2.93397e-07 0)
(-0.00190589 2.91715e-07 0)
(-0.00190295 2.90047e-07 0)
(-0.00190001 2.88386e-07 0)
(-0.00189706 2.86957e-07 0)
(-0.0018941 2.85327e-07 0)
(-0.00189115 2.83683e-07 0)
(-0.00188818 2.82067e-07 0)
(-0.00188522 2.8045e-07 0)
(-0.00188225 2.79062e-07 0)
(-0.00187928 2.77463e-07 0)
(-0.0018763 2.75873e-07 0)
(-0.00187332 2.74294e-07 0)
(-0.00187034 2.72721e-07 0)
(-0.00186735 2.71367e-07 0)
(-0.00186436 2.6982e-07 0)
(-0.00186136 2.68266e-07 0)
(-0.00185836 2.66737e-07 0)
(-0.00185536 2.65204e-07 0)
(-0.00185235 2.63683e-07 0)
(-0.00184935 2.62168e-07 0)
(-0.00184633 2.6086e-07 0)
(-0.00184331 2.59362e-07 0)
(-0.00184029 2.57681e-07 0)
(-0.00183727 2.56194e-07 0)
(-0.00183425 2.54914e-07 0)
(-0.00183122 2.53445e-07 0)
(-0.00182818 2.51794e-07 0)
(-0.00182515 2.50343e-07 0)
(-0.00182211 2.49085e-07 0)
(-0.00181907 2.47647e-07 0)
(-0.00181602 2.4604e-07 0)
(-0.00181298 2.4461e-07 0)
(-0.00180992 2.43385e-07 0)
(-0.00180687 2.41974e-07 0)
(-0.00180381 2.40395e-07 0)
(-0.00180075 2.39005e-07 0)
(-0.00179768 2.37803e-07 0)
(-0.00179461 2.36255e-07 0)
(-0.00179155 2.34888e-07 0)
(-0.00178847 2.33708e-07 0)
(-0.00178539 2.32197e-07 0)
(-0.00178232 2.30852e-07 0)
(-0.00177923 2.29524e-07 0)
(-0.00177615 2.28199e-07 0)
(-0.00177306 2.26886e-07 0)
(-0.00176997 2.25581e-07 0)
(-0.00176687 2.24449e-07 0)
(-0.00176377 2.22997e-07 0)
(-0.00176067 2.2172e-07 0)
(-0.00175756 2.20601e-07 0)
(-0.00175446 2.19181e-07 0)
(-0.00175135 2.17914e-07 0)
(-0.00174823 2.16661e-07 0)
(-0.00174512 2.15414e-07 0)
(-0.00174199 2.14327e-07 0)
(-0.00173886 2.13102e-07 0)
(-0.00173574 2.11898e-07 0)
(-0.0017326 2.10668e-07 0)
(-0.00172947 2.09469e-07 0)
(-0.00172633 2.08263e-07 0)
(-0.00172318 2.0708e-07 0)
(-0.00172004 2.06041e-07 0)
(-0.00171688 2.05013e-07 0)
(-0.00171372 2.03849e-07 0)
(-0.00171056 2.0269e-07 0)
(-0.0017074 2.0156e-07 0)
(-0.00170423 2.00572e-07 0)
(-0.00170105 1.99603e-07 0)
(-0.00169787 1.98601e-07 0)
(-0.00169468 1.9769e-07 0)
(-0.00169149 1.96637e-07 0)
(-0.00168828 1.95727e-07 0)
(-0.00168508 1.94645e-07 0)
(-0.00168186 1.94167e-07 0)
(-0.00167865 1.92727e-07 0)
(-0.0016754 1.92771e-07 0)
(-0.00167219 1.90721e-07 0)
(-0.0016689 1.91954e-07 0)
(-0.0016657 1.88064e-07 0)
(-0.00166235 1.92198e-07 0)
(-0.0016592 1.8415e-07 0)
(-0.00165573 1.94985e-07 0)
(-0.0016527 1.77378e-07 0)
(-0.00164897 2.02922e-07 0)
(-0.00164623 1.63633e-07 0)
(-0.00164204 2.20657e-07 0)
(-0.00163988 1.36703e-07 0)
(-0.00163483 2.57152e-07 0)
(-0.00163368 8.54259e-08 0)
(-0.00162733 3.21739e-07 0)
(-0.00162764 4.12733e-09 0)
(-0.0016196 3.54717e-07 0)
(-0.0353488 -0.00214397 0)
(-0.0160268 -0.000524817 0)
(-0.0106086 -0.00010069 0)
(-0.00845755 -3.52293e-05 0)
(-0.00748904 -1.98227e-05 0)
(-0.00685679 -1.60761e-05 0)
(-0.00635102 -1.33029e-05 0)
(-0.0059418 -1.08403e-05 0)
(-0.00560914 -9.01266e-06 0)
(-0.00533257 -7.6909e-06 0)
(-0.00509749 -6.68909e-06 0)
(-0.00489444 -5.89682e-06 0)
(-0.00471693 -5.25407e-06 0)
(-0.00456024 -4.72332e-06 0)
(-0.00442077 -4.27861e-06 0)
(-0.00429576 -3.90117e-06 0)
(-0.00418302 -3.57719e-06 0)
(-0.00408081 -3.29616e-06 0)
(-0.00398771 -3.05005e-06 0)
(-0.0039026 -2.83259e-06 0)
(-0.00382451 -2.63898e-06 0)
(-0.00375265 -2.46525e-06 0)
(-0.00368637 -2.30797e-06 0)
(-0.00362511 -2.16454e-06 0)
(-0.00356841 -2.03293e-06 0)
(-0.00351584 -1.91127e-06 0)
(-0.00346709 -1.79775e-06 0)
(-0.00342185 -1.69104e-06 0)
(-0.00337988 -1.59013e-06 0)
(-0.00334096 -1.49408e-06 0)
(-0.00330492 -1.40145e-06 0)
(-0.0032716 -1.31229e-06 0)
(-0.00324087 -1.22476e-06 0)
(-0.00321262 -1.13961e-06 0)
(-0.00318676 -1.05412e-06 0)
(-0.00316321 -9.71312e-07 0)
(-0.00314193 -8.84639e-07 0)
(-0.00312287 -8.03315e-07 0)
(-0.00310593 -7.12351e-07 0)
(-0.00309131 -6.3232e-07 0)
(-0.00307844 -5.36215e-07 0)
(-0.00306855 -4.55239e-07 0)
(-0.00305889 -3.65463e-07 0)
(-0.0030551 -2.66308e-07 0)
(-0.00304556 -2.3818e-07 0)
(-0.00305275 -5.45805e-08 0)
(-0.00303267 -3.43138e-07 0)
(-0.00306606 3.75243e-07 0)
(-0.00300454 -6.61788e-06 0)
(-0.00291151 0.000213973 0)
(-5.00245e-06 4.66274e-06 0)
(1.80158e-06 1.96959e-06 0)
(3.8098e-06 -1.22736e-05 0)
(1.79994e-06 -2.68443e-05 0)
(-4.45985e-06 -3.68072e-05 0)
(-1.07202e-05 -3.50735e-05 0)
(-1.33271e-05 -2.46473e-05 0)
(-1.09971e-05 -1.10802e-05 0)
(-4.77154e-06 -1.24715e-06 0)
(3.58423e-06 -2.68785e-07 0)
(1.29516e-05 -1.07459e-05 0)
(2.27659e-05 -3.39468e-05 0)
(3.25052e-05 -7.0133e-05 0)
(4.15737e-05 -0.000118553 0)
(4.94441e-05 -0.000177635 0)
(5.572e-05 -0.00024528 0)
(6.01818e-05 -0.000319131 0)
(6.27722e-05 -0.000396835 0)
(6.3558e-05 -0.000476204 0)
(6.27104e-05 -0.000555253 0)
(6.04912e-05 -0.000632278 0)
(5.72252e-05 -0.000705963 0)
(5.32379e-05 -0.00077539 0)
(4.88206e-05 -0.000840011 0)
(4.42194e-05 -0.000899599 0)
(3.96286e-05 -0.000954171 0)
(3.51815e-05 -0.00100393 0)
(3.09594e-05 -0.00104917 0)
(2.69867e-05 -0.00109027 0)
(2.32434e-05 -0.00112756 0)
(1.96891e-05 -0.00116133 0)
(1.62644e-05 -0.00119181 0)
(1.28999e-05 -0.00121914 0)
(9.5436e-06 -0.00124336 0)
(6.15286e-06 -0.00126446 0)
(2.69767e-06 -0.00128237 0)
(-8.36169e-07 -0.001297 0)
(-4.42043e-06 -0.00130822 0)
(-7.96967e-06 -0.00131599 0)
(-1.13052e-05 -0.00132027 0)
(-1.43583e-05 -0.00132139 0)
(-1.75855e-05 -0.00131945 0)
(-2.17587e-05 -0.00131409 0)
(-2.61579e-05 -0.00130437 0)
(-2.77904e-05 -0.00129055 0)
(-2.51532e-05 -0.00127586 0)
(-2.47049e-05 -0.00126446 0)
(-4.06786e-05 -0.0012545 0)
(-8.138e-05 -0.00123356 0)
(-0.000133419 -0.00118602 0)
(-0.000167293 -0.00110957 0)
(-0.000162807 -0.00102001 0)
(-0.000122413 -0.000939161 0)
(-6.30025e-05 -0.000880414 0)
(-1.09262e-06 -0.000845655 0)
(5.32427e-05 -0.000829575 0)
(9.51387e-05 -0.000824338 0)
(0.000122334 -0.000824225 0)
(0.000136413 -0.000829188 0)
(0.000142804 -0.00084598 0)
(0.000148046 -0.000884374 0)
(0.000152106 -0.000956814 0)
(0.000145048 -0.00104639 0)
(0.000121469 -0.00113465 0)
(8.73162e-05 -0.0012045 0)
(5.43668e-05 -0.00124731 0)
(3.00729e-05 -0.0012642 0)
(1.33835e-05 -0.00126052 0)
(-7.40552e-07 -0.00124143 0)
(-1.6849e-05 -0.00120951 0)
(-3.62888e-05 -0.00116613 0)
(-5.77092e-05 -0.00111246 0)
(-7.87193e-05 -0.0010497 0)
(-9.76367e-05 -0.00097911 0)
(-0.000114289 -0.000901641 0)
(-0.000129834 -0.000817708 0)
(-0.000145424 -0.000727519 0)
(-0.00016064 -0.000631811 0)
(-0.000172115 -0.000533157 0)
(-0.000174492 -0.000437039 0)
(-0.000163212 -0.000350998 0)
(-0.00013616 -0.000282577 0)
(-9.35745e-05 -0.000235341 0)
(-4.17244e-05 -0.000219624 0)
(1.66318e-05 -0.000237747 0)
(7.47788e-05 -0.000288704 0)
(0.000124995 -0.000368244 0)
(0.000161196 -0.000468388 0)
(0.0001801 -0.000579263 0)
(0.000181371 -0.000691359 0)
(0.000166989 -0.000796587 0)
(0.000139809 -0.000888975 0)
(0.000102704 -0.000964278 0)
(5.82209e-05 -0.00101951 0)
(9.27858e-06 -0.0010525 0)
(-4.2401e-05 -0.0010629 0)
(-9.42899e-05 -0.00104856 0)
(-0.000143144 -0.00101182 0)
(-0.00018641 -0.000953464 0)
(-0.000221682 -0.000875441 0)
(-0.000247436 -0.00078159 0)
(-0.000262354 -0.000676045 0)
(-0.000265228 -0.000563457 0)
(-0.000254752 -0.000449156 0)
(-0.000230875 -0.000339332 0)
(-0.000196343 -0.000240514 0)
(-0.000154813 -0.000155689 0)
(-0.000107517 -8.42968e-05 0)
(-4.67534e-05 -2.31783e-05 0)
(3.52019e-05 1.80483e-05 0)
(0.000119833 4.61153e-05 0)
(0.000206686 9.29872e-05 0)
(0.000305367 9.77634e-05 0)
(0.000275648 -2.79234e-05 0)
(-5.23102e-05 -0.000160205 0)
(-0.000598963 1.49369e-05 0)
(-0.000957083 0.000537396 0)
(-0.000969085 0.00102303 0)
(-0.000894572 0.00130881 0)
(-0.000829633 0.00154073 0)
(-0.000750335 0.00175142 0)
(-0.000672252 0.00192868 0)
(-0.000595344 0.00208251 0)
(-0.000521337 0.0022122 0)
(-0.000451584 0.00232068 0)
(-0.000386057 0.00240967 0)
(-0.000325189 0.0024809 0)
(-0.000268743 0.00253612 0)
(-0.000216636 0.00257674 0)
(-0.000168576 0.00260421 0)
(-0.000124251 0.00261975 0)
(-8.33225e-05 0.00262445 0)
(-4.60584e-05 0.00261923 0)
(-1.19136e-05 0.00260601 0)
(2.00705e-05 0.00258517 0)
(5.00714e-05 0.00255742 0)
(7.85158e-05 0.00252322 0)
(0.000105674 0.00248302 0)
(0.000131848 0.00243719 0)
(0.000157322 0.00238606 0)
(0.000182349 0.00232987 0)
(0.000207161 0.00226883 0)
(0.000231987 0.00220308 0)
(0.000257031 0.00213271 0)
(0.000282486 0.00205777 0)
(0.000308525 0.00197825 0)
(0.000335281 0.00189409 0)
(0.000362869 0.0018052 0)
(0.000391348 0.00171145 0)
(0.000420724 0.00161268 0)
(0.000450911 0.00150869 0)
(0.000481692 0.00139927 0)
(0.000512741 0.00128428 0)
(0.000543732 0.00116362 0)
(0.000574061 0.00103688 0)
(0.000607496 0.000911747 0)
(0.000642099 0.000783807 0)
(0.000675573 0.000649107 0)
(0.000705971 0.000506243 0)
(0.00073054 0.000355145 0)
(0.000746612 0.000197736 0)
(0.000751874 3.76773e-05 0)
(0.000745932 -0.000120289 0)
(0.000729962 -0.000272075 0)
(0.000706625 -0.00041558 0)
(0.000679611 -0.000552358 0)
(0.000657263 -0.000690784 0)
(0.000629137 -0.000821974 0)
(0.000596172 -0.000945564 0)
(0.000558723 -0.00106101 0)
(0.000517297 -0.00116796 0)
(0.000472379 -0.00126613 0)
(0.000424343 -0.00135531 0)
(0.00037344 -0.00143537 0)
(0.000319843 -0.00150617 0)
(0.000263679 -0.00156759 0)
(0.000205036 -0.00161949 0)
(0.000144069 -0.00166171 0)
(8.0855e-05 -0.00169411 0)
(1.58897e-05 -0.00171647 0)
(-5.11898e-05 -0.00172888 0)
(-0.000120991 -0.00173051 0)
(-0.000192534 -0.00172082 0)
(-0.000265287 -0.00170301 0)
(-0.000338624 -0.00167631 0)
(-0.000410937 -0.00163614 0)
(-0.000481289 -0.00158278 0)
(-0.000548529 -0.0015165 0)
(-0.000611407 -0.00143767 0)
(-0.000668613 -0.00134692 0)
(-0.000718786 -0.00124505 0)
(-0.000760666 -0.00113345 0)
(-0.000793319 -0.00101339 0)
(-0.000819278 -0.000889909 0)
(-0.000834249 -0.000760329 0)
(-0.000836244 -0.00062972 0)
(-0.000827841 -0.000519782 0)
(-0.000829506 -0.000487149 0)
(-0.00088229 -0.000620518 0)
(-0.00103007 -0.00098286 0)
(1.25219e-07 6.46551e-06 0)
(-1.48272e-06 5.82928e-06 0)
(-4.99576e-06 1.00061e-05 0)
(-1.69756e-05 1.43395e-05 0)
(-3.14456e-05 1.53425e-05 0)
(-4.64254e-05 1.55711e-05 0)
(-6.25923e-05 1.41891e-05 0)
(-7.67163e-05 9.33691e-06 0)
(-8.34976e-05 1.98593e-06 0)
(-8.07359e-05 -3.34295e-06 0)
(-7.29518e-05 -3.20428e-06 0)
(-6.64149e-05 -1.83421e-06 0)
(-5.63753e-05 -8.86961e-06 0)
(-3.18139e-05 -2.77056e-05 0)
(1.13721e-05 -4.76675e-05 0)
(5.69351e-05 -4.33261e-05 0)
(6.73024e-05 -3.0073e-06 0)
(2.69249e-05 4.11667e-05 0)
(-3.63263e-05 5.85968e-05 0)
(-9.43842e-05 5.78187e-05 0)
(-0.000142046 5.47462e-05 0)
(-0.000184913 5.58762e-05 0)
(-0.000229033 6.13528e-05 0)
(-0.000278842 6.76443e-05 0)
(-0.000334691 6.05928e-05 0)
(-0.000387099 2.06007e-05 0)
(-0.000410214 -5.75994e-05 0)
(-0.000406679 -0.000114212 0)
(-0.000388571 -0.000128184 0)
(-0.000341642 -6.5905e-05 0)
(-0.000280748 0.000113493 0)
(-0.000270709 0.000309855 0)
(-0.000306761 0.000319875 0)
(-0.000288779 4.40618e-05 0)
(-1.58213e-05 -0.000453823 0)
(0.0005323 -0.000597854 0)
(0.000843575 -0.000369506 0)
(0.000975963 -0.000319835 0)
(0.00117348 -0.000297576 0)
(0.00130655 -0.000205409 0)
(0.00138068 -0.000158865 0)
(0.00144142 -0.000112614 0)
(0.00147157 -7.82702e-05 0)
(0.00149489 -6.56115e-05 0)
(0.00151798 -5.68693e-05 0)
(0.00154175 -5.56688e-05 0)
(0.00157076 -5.77938e-05 0)
(0.00160383 -5.97164e-05 0)
(0.00163936 -5.99243e-05 0)
(0.00167399 -5.59719e-05 0)
(0.00170328 -4.63169e-05 0)
(0.00172203 -2.97285e-05 0)
(0.00172396 -5.99256e-06 0)
(0.00170331 2.44266e-05 0)
(0.00165449 6.10474e-05 0)
(0.00157258 0.000103203 0)
(0.0014534 0.000150182 0)
(0.00129686 0.000201399 0)
(0.00109948 0.000255694 0)
(0.000857046 0.000310902 0)
(0.0005654 0.00036164 0)
(0.000237344 0.000408896 0)
(-0.000125954 0.000447159 0)
(-0.000518612 0.000479022 0)
(-0.000928027 0.000497077 0)
(-0.00134363 0.000496295 0)
(-0.00175144 0.000472776 0)
(-0.00213455 0.000424579 0)
(-0.00247466 0.000347467 0)
(-0.00274836 0.00023708 0)
(-0.00292965 9.88473e-05 0)
(-0.00300769 -7.36378e-05 0)
(-0.00294508 -0.000276604 0)
(-0.00277644 -0.000505613 0)
(-0.00240413 -0.000740366 0)
(-0.00181159 -0.000936915 0)
(-0.0010288 -0.00101894 0)
(-0.000164071 -0.000890758 0)
(0.000596403 -0.000424051 0)
(0.000907766 0.000244919 0)
(0.000579894 0.000404711 0)
(0.000365103 -3.84253e-05 0)
(0.000679232 -0.000504761 0)
(0.00121795 -0.000610458 0)
(0.00157618 -0.000442004 0)
(0.00176862 -0.00024432 0)
(0.00180548 -6.97324e-05 0)
(0.00171968 8.1987e-05 0)
(0.00156722 0.000179852 0)
(0.00137046 0.000219402 0)
(0.00117253 0.000227891 0)
(0.000981802 0.000219998 0)
(0.000807996 0.000199564 0)
(0.000654764 0.00017932 0)
(0.000516138 0.000166623 0)
(0.000384575 0.000160609 0)
(0.000251355 0.000161809 0)
(0.000105562 0.000155969 0)
(-5.02865e-05 8.74042e-05 0)
(-5.63363e-05 -6.29219e-05 0)
(-0.000110271 -2.38861e-05 0)
(-4.90998e-05 -8.96355e-05 0)
(3.96629e-05 -1.343e-05 0)
(2.89208e-05 7.01886e-05 0)
(-6.34759e-05 -5.04926e-06 0)
(-0.000145159 -0.000200383 0)
(-0.000193831 -0.000466711 0)
(-0.000220599 -0.0007639 0)
(-0.000231435 -0.00107365 0)
(-0.000234723 -0.00138479 0)
(-0.000235879 -0.00169553 0)
(-0.00023419 -0.00200675 0)
(-0.000224993 -0.00231521 0)
(-0.000202016 -0.00260994 0)
(-0.000159557 -0.00287167 0)
(-9.35644e-05 -0.00307501 0)
(-4.9513e-06 -0.00319362 0)
(0.000104142 -0.00320783 0)
(0.000221904 -0.00310103 0)
(0.000335249 -0.00287549 0)
(0.000431508 -0.00254025 0)
(0.000498947 -0.00211785 0)
(0.000529363 -0.00164121 0)
(0.000519563 -0.00114645 0)
(0.000464067 -0.000670955 0)
(0.000360809 -0.000253773 0)
(0.000232721 6.48746e-05 0)
(0.000102443 0.000294902 0)
(-2.39842e-05 0.000405127 0)
(-0.000105974 0.000359272 0)
(-0.000133383 0.000302015 0)
(-0.000104437 0.000227652 0)
(-2.93821e-05 0.000184543 0)
(8.32052e-05 0.000218431 0)
(0.000261642 0.000380466 0)
(0.000413915 0.00072108 0)
(0.000391327 0.00112301 0)
(0.000201996 0.00136489 0)
(8.59782e-06 0.00137123 0)
(-5.87948e-05 0.00120446 0)
(-0.000104671 0.00108612 0)
(-0.000244428 0.000920514 0)
(-0.000379292 0.000485051 0)
(-0.000220745 2.29506e-06 0)
(-4.92788e-05 -0.000217875 0)
(-0.000197563 -0.000410843 0)
(-0.000286474 -0.000544449 0)
(-0.000545687 -0.000580476 0)
(-0.000788816 -0.000667656 0)
(-0.000868879 -0.000839489 0)
(-0.000748589 -0.00100782 0)
(-0.00047737 -0.0012009 0)
(2.8233e-05 -0.00136396 0)
(0.000759024 -0.00109502 0)
(0.000957635 -0.000277521 0)
(0.000616632 0.000235125 0)
(0.000426024 0.000442954 0)
(0.000347709 0.000614174 0)
(0.00029437 0.00077279 0)
(0.000248561 0.000910028 0)
(0.00020719 0.00102612 0)
(0.000167892 0.0011208 0)
(0.00013054 0.00119515 0)
(9.40484e-05 0.0012492 0)
(5.82877e-05 0.0012828 0)
(2.27412e-05 0.00129557 0)
(-1.21898e-05 0.00128704 0)
(-4.62838e-05 0.00125826 0)
(-8.00785e-05 0.00121119 0)
(-0.000115498 0.00114892 0)
(-0.000154979 0.00107539 0)
(-0.000198663 0.000999533 0)
(-0.000242399 0.000942824 0)
(-0.000281692 0.000924819 0)
(-0.000311685 0.000962897 0)
(-0.000325733 0.00105407 0)
(-0.000298929 0.00118359 0)
(-0.000190066 0.00134224 0)
(5.20073e-05 0.00153505 0)
(0.0004779 0.0017967 0)
(0.00107119 0.00223451 0)
(0.00160886 0.00298823 0)
(0.00168449 0.0039201 0)
(0.00126922 0.00461038 0)
(0.000892787 0.00490196 0)
(0.000846748 0.00512836 0)
(0.000851737 0.00549787 0)
(0.000741626 0.0058471 0)
(0.000666866 0.00609805 0)
(0.000657653 0.00635375 0)
(0.000626798 0.00662291 0)
(0.000592681 0.00685806 0)
(0.000583566 0.00708112 0)
(0.000572851 0.00730675 0)
(0.000558927 0.00751946 0)
(0.000552001 0.00772287 0)
(0.000544018 0.00792273 0)
(0.000533281 0.00811387 0)
(0.00052283 0.0082965 0)
(0.000510184 0.0084719 0)
(0.000494865 0.00863801 0)
(0.000477741 0.00879447 0)
(0.000458041 0.00894115 0)
(0.000435694 0.00907704 0)
(0.000410927 0.00920164 0)
(0.000383567 0.00931449 0)
(0.000353739 0.00941491 0)
(0.000321652 0.00950269 0)
(0.000287587 0.00958046 0)
(0.000251748 0.00964495 0)
(0.000214495 0.009696 0)
(0.000176265 0.00973349 0)
(0.000137489 0.00975749 0)
(9.84901e-05 0.00976807 0)
(6.01825e-05 0.00976527 0)
(2.33531e-05 0.00975058 0)
(-1.30985e-05 0.00972516 0)
(-4.9129e-05 0.00968826 0)
(-8.43814e-05 0.00964093 0)
(-0.000119178 0.00958323 0)
(-0.000153241 0.00951561 0)
(-0.000186661 0.00943855 0)
(-0.000219382 0.00935235 0)
(-0.000251352 0.0092575 0)
(-0.000282565 0.00915437 0)
(-0.000312972 0.0090434 0)
(-0.000342569 0.00892499 0)
(-0.000371326 0.00879954 0)
(-0.000399224 0.00866746 0)
(-0.00042625 0.00852915 0)
(-0.000452401 0.008385 0)
(-0.000477679 0.00823539 0)
(-0.000502085 0.0080807 0)
(-0.000525613 0.00792129 0)
(-0.000548271 0.00775753 0)
(-0.000570069 0.00758975 0)
(-0.000591025 0.0074183 0)
(-0.000611152 0.0072435 0)
(-0.000630471 0.00706568 0)
(-0.000649017 0.00688512 0)
(-0.000666813 0.00670211 0)
(-0.000683902 0.00651692 0)
(-0.000700315 0.00632981 0)
(-0.000716101 0.00614103 0)
(-0.000731302 0.00595077 0)
(-0.000745959 0.00575927 0)
(-0.000760136 0.00556671 0)
(-0.000773887 0.00537327 0)
(-0.000787262 0.00517911 0)
(-0.000800328 0.00498437 0)
(-0.000813157 0.00478918 0)
(-0.000825806 0.00459365 0)
(-0.000838356 0.00439789 0)
(-0.000850874 0.00420197 0)
(-0.000863458 0.00400597 0)
(-0.000876193 0.00380994 0)
(-0.000889152 0.00361391 0)
(-0.000902461 0.00341796 0)
(-0.000916242 0.00322212 0)
(-0.000930679 0.00302638 0)
(-0.000945938 0.00283054 0)
(-0.000961974 0.00263436 0)
(-0.000978752 0.00243792 0)
(-0.000996445 0.00224132 0)
(-0.00101521 0.0020444 0)
(-0.00103512 0.00184707 0)
(-0.00105619 0.00164929 0)
(-0.00107887 0.00145102 0)
(-0.00110458 0.0012519 0)
(-0.00115993 0.00107604 0)
(-0.00122072 0.000891263 0)
(-0.00128552 0.000695419 0)
(-0.00135045 0.000485578 0)
(-0.00140967 0.000261819 0)
(-0.00145896 2.8601e-05 0)
(-0.001497 -0.000207329 0)
(-0.00152499 -0.000439415 0)
(-0.00154697 -0.00066342 0)
(-0.00156801 -0.000878368 0)
(-0.00159241 -0.00108559 0)
(-0.00162333 -0.00128761 0)
(-0.00166306 -0.00148743 0)
(-0.00173683 -0.00171173 0)
(-0.00182919 -0.00195051 0)
(-0.00193177 -0.00219519 0)
(-0.00204602 -0.00244672 0)
(-0.00217317 -0.0027061 0)
(-0.00231471 -0.00297329 0)
(-0.00247282 -0.00325075 0)
(-0.00264873 -0.00353615 0)
(-0.00284642 -0.00383733 0)
(-0.00306482 -0.00414201 0)
(-0.00331395 -0.00447784 0)
(-0.00358253 -0.00479597 0)
(-0.00390102 -0.00519273 0)
(-0.0042202 -0.00549487 0)
(-0.00463416 -0.00602104 0)
(-0.0049613 -0.00620065 0)
(-0.00546516 -0.00703146 0)
(-0.0054524 -0.00667889 0)
)
;
    }
    frontAndBack
    {
        type            empty;
    }
}


// ************************************************************************* //
