/*--------------------------------*- C++ -*----------------------------------*\
  =========                 |
  \\      /  F ield         | OpenFOAM: The Open Source CFD Toolbox
   \\    /   O peration     | Website:  https://openfoam.org
    \\  /    A nd           | Version:  7
     \\/     M anipulation  |
\*---------------------------------------------------------------------------*/
FoamFile
{
    version     2.0;
    format      ascii;
    class       volScalarField;
    location    "0.17";
    object      yPlus;
}
// * * * * * * * * * * * * * * * * * * * * * * * * * * * * * * * * * * * * * //

dimensions      [0 0 0 0 0 0 0];

internalField   uniform 0;

boundaryField
{
    velocityInlet
    {
        type            calculated;
        value           uniform 0;
    }
    pressureOutlet
    {
        type            calculated;
        value           uniform 0;
    }
    fixedWalls
    {
        type            calculated;
        value           nonuniform List<scalar> 
100
(
2.301
1.91459
0.587377
0.801389
1.12089
1.68773
1.91031
1.88895
1.63868
1.27313
0.81957
0.185795
0.631471
0.784173
0.842866
0.85517
0.840227
0.806417
0.758697
0.702956
0.647246
0.598917
0.55999
0.52564
0.487643
0.438711
0.375106
0.298271
0.217654
0.160276
0.172516
0.244722
0.332962
0.418348
0.494821
0.560821
0.616597
0.662943
0.700456
0.729276
0.749259
0.760631
0.76488
0.765496
0.768193
0.780197
0.806653
0.842043
0.864953
0.844659
0.757712
0.607814
0.432922
0.308101
0.311727
0.389687
0.461501
0.503274
0.515036
0.506189
0.49015
0.480438
0.485093
0.503068
0.527812
0.553709
0.579148
0.605447
0.633981
0.664009
0.692671
0.716459
0.732719
0.740347
0.739797
0.732616
0.720927
0.70724
0.694759
0.687708
0.690944
0.707606
0.734388
0.758576
0.762696
0.732633
0.666529
0.578536
0.497489
0.453888
0.461677
0.501309
0.551378
0.594665
0.629544
0.654273
0.667672
0.67768
0.668646
0.637767
)
;
    }
    bottomWall
    {
        type            calculated;
        value           nonuniform List<scalar> 
800
(
2.94479
1.98391
1.61344
1.44034
1.3552
1.29656
1.24759
1.20645
1.17187
1.14226
1.11641
1.09353
1.07307
1.05462
1.03786
1.02255
1.00849
0.995512
0.983486
0.9723
0.961864
0.952096
0.94293
0.934308
0.926179
0.918501
0.911233
0.904343
0.897799
0.891575
0.885647
0.879994
0.874596
0.869435
0.864497
0.859767
0.85523
0.850877
0.846695
0.842675
0.838808
0.835085
0.831498
0.828041
0.824705
0.821486
0.818376
0.815373
0.812466
0.809659
0.807305
0.805357
0.803429
0.801527
0.799652
0.7978
0.795972
0.794167
0.792385
0.790626
0.788889
0.787172
0.785476
0.783801
0.782147
0.780512
0.778896
0.7773
0.775722
0.774163
0.772622
0.771098
0.769591
0.768102
0.766629
0.765173
0.763734
0.76231
0.760902
0.759509
0.758131
0.756767
0.755419
0.754084
0.752764
0.751457
0.750165
0.748885
0.747618
0.746366
0.745124
0.743897
0.74268
0.741477
0.740284
0.739104
0.737935
0.736777
0.735632
0.734496
0.733371
0.732258
0.731154
0.730062
0.728979
0.727906
0.726842
0.725789
0.724745
0.723711
0.722685
0.721669
0.720662
0.719664
0.718674
0.717694
0.716721
0.715756
0.714801
0.713852
0.712912
0.71198
0.711055
0.710138
0.709228
0.708326
0.707431
0.706543
0.705662
0.704788
0.70392
0.70306
0.702206
0.701358
0.700518
0.699682
0.698854
0.698031
0.697215
0.696405
0.6956
0.694802
0.694009
0.693222
0.692441
0.691664
0.690894
0.690128
0.689369
0.688614
0.68798
0.687462
0.686942
0.686421
0.685899
0.685375
0.684852
0.684326
0.683799
0.683271
0.682742
0.682212
0.68168
0.681148
0.680614
0.68008
0.679545
0.679007
0.67847
0.67793
0.677391
0.676849
0.676307
0.675763
0.675218
0.674673
0.674126
0.673579
0.67303
0.672479
0.671928
0.671376
0.670823
0.670269
0.669713
0.669158
0.6686
0.668041
0.667482
0.666922
0.66636
0.665797
0.665234
0.664669
0.664104
0.663536
0.662969
0.6624
0.66183
0.661259
0.660687
0.660114
0.659539
0.658964
0.658388
0.657809
0.657232
0.656651
0.65607
0.655489
0.654905
0.654321
0.653736
0.653149
0.652561
0.651971
0.651381
0.650789
0.650197
0.649603
0.649007
0.64841
0.647811
0.647212
0.646611
0.646008
0.645404
0.644797
0.644189
0.643578
0.642968
0.642353
0.64174
0.641119
0.640503
0.639875
0.63926
0.638618
0.638011
0.637343
0.636761
0.636042
0.635514
0.634703
0.634285
0.633309
0.633086
0.631855
0.631914
0.63035
2.94479
1.98392
1.61351
1.44048
1.35548
1.297
1.24825
1.20737
1.17308
1.14379
1.1183
1.0958
1.07574
1.05773
1.04143
1.0266
1.01303
1.00058
0.989102
0.978489
0.96865
0.959508
0.950996
0.943061
0.935656
0.92874
0.922277
0.91624
0.910605
0.905347
0.90045
0.8959
0.891682
0.887787
0.884207
0.880934
0.877965
0.875298
0.872921
0.870865
0.86905
0.867653
0.866286
0.865748
0.864396
0.865414
0.862567
0.867292
0.859027
0.842252
0.248534
0.117841
0.348485
0.509764
0.598727
0.592086
0.510128
0.36784
0.195003
0.163052
0.374629
0.611696
0.857734
1.10358
1.34359
1.57386
1.7917
1.99539
2.18397
2.35694
2.51419
2.65605
2.78323
2.8967
2.99763
3.08724
3.16679
3.23746
3.30037
3.35642
3.40638
3.45085
3.49023
3.52474
3.55453
3.57961
3.59998
3.61556
3.62637
3.63243
3.63402
3.63105
3.62329
3.6106
3.59356
3.57376
3.55205
3.5252
3.48491
3.42116
3.32969
3.21837
3.10695
3.01598
2.95606
2.9243
2.90812
2.89683
2.89252
2.91202
2.97275
3.08775
3.22248
3.35084
3.45356
3.52013
3.54945
3.54617
3.51713
3.46721
3.40035
3.31926
3.22484
3.11635
2.99181
2.84875
2.68557
2.50328
2.30722
2.10732
1.91692
1.75179
1.62339
1.57858
1.63675
1.78494
1.98868
2.21241
2.43168
2.63304
2.80885
2.95488
3.06903
3.15045
3.19838
3.21414
3.19517
3.14423
3.0606
2.94404
2.79621
2.619
2.41592
2.19058
1.94536
1.68503
1.41242
1.1298
0.854327
0.789902
1.05604
1.37869
1.70595
1.78426
1.64689
2.30604
2.972
3.36637
3.67168
3.93912
4.1665
4.35926
4.52218
4.65811
4.77059
4.8622
4.93538
4.99221
5.03445
5.06365
5.08108
5.08781
5.08478
5.07374
5.05489
5.02887
4.996
4.95664
4.91102
4.85932
4.80163
4.73796
4.66826
4.59239
4.51015
4.42121
4.32521
4.22167
4.11002
3.9896
3.85963
3.71928
3.56767
3.40381
3.22652
3.04753
2.8599
2.65747
2.4412
2.22118
2.02958
1.92852
1.96736
2.11451
2.30389
2.50072
2.70699
2.89727
3.07067
3.22728
3.36767
3.49256
3.60275
3.69897
3.78184
3.85189
3.90954
3.95511
3.98893
4.01114
4.02235
4.02193
4.00929
3.98861
3.95964
3.91695
3.86053
3.7904
3.70659
3.60926
3.49868
3.37529
3.23967
3.09983
2.95006
2.78914
2.61938
2.4549
2.35051
2.46022
0.219968
0.261387
0.354693
0.553951
0.725208
0.871843
1.00427
1.10638
1.15631
1.14668
1.09826
1.03952
0.923402
0.649185
0.689138
0.975187
0.941075
0.605816
0.882602
1.26501
1.53546
1.75271
1.95164
2.14175
2.30876
2.42768
2.49689
2.55568
2.5989
2.57473
2.51354
2.59115
2.46537
1.61562
2.07615
3.1847
3.66592
4.00654
4.36125
4.58107
4.72087
4.82388
4.88365
4.9294
4.9703
5.01255
5.06066
5.11348
5.16857
5.22045
5.26273
5.28809
5.28763
5.25263
5.17375
5.04116
4.84383
4.57402
4.21275
3.72787
3.06283
2.20584
2.04012
3.06493
3.96093
4.71077
5.34782
5.88317
6.31776
6.64459
6.84821
6.92845
6.85116
6.65578
6.21685
5.47315
4.36792
2.92985
2.60296
3.56967
3.39165
2.93825
3.69274
4.53117
5.00054
5.28302
5.34181
5.22382
5.01788
4.71877
4.37954
4.02063
3.65658
3.29401
2.92631
2.53111
2.07629
1.51094
0.812509
0.814504
0.920281
0.911647
0.404147
0.820841
0.544412
1.49417
2.19774
2.78362
3.28707
3.72741
4.1215
4.48108
4.80977
5.10261
5.34766
5.529
5.63024
5.63997
5.54552
5.34391
5.031
4.60769
4.07853
3.4475
2.71075
1.8414
1.02664
1.60593
1.93845
1.87775
1.7801
1.5972
1.46887
1.62658
2.11408
2.76156
3.31423
3.60538
3.64647
3.46156
3.27699
2.98664
2.28642
0.91934
1.53106
2.22078
2.59456
2.85392
3.06543
3.22362
3.26046
3.28215
3.2885
3.05081
2.42785
1.96785
2.15635
2.48876
2.77473
3.00362
3.18652
3.32911
3.4375
3.51438
3.56144
3.57924
3.56752
3.52688
3.45795
3.36193
3.24227
3.11474
3.02042
3.00365
3.09552
3.28125
3.52792
3.8201
4.17186
4.61278
5.16119
5.76795
6.27705
6.64318
6.9248
7.17328
7.40707
7.61546
7.79967
7.97055
8.13039
8.27785
8.41627
8.54766
8.67179
8.78948
8.90146
9.00758
9.10794
9.2026
9.29139
9.3742
9.45089
9.52131
9.5853
9.64273
9.69345
9.73747
9.77625
9.80825
9.83345
9.85191
9.86372
9.86897
9.86763
9.86028
9.84745
9.82881
9.80482
9.77549
9.74102
9.70158
9.65729
9.60833
9.55482
9.49691
9.43474
9.36842
9.29809
9.22388
9.14589
9.06425
8.97905
8.89039
8.79839
8.70312
8.60468
8.50314
8.39858
8.29106
8.18064
8.06736
7.95125
7.83236
7.71068
7.58623
7.459
7.32896
7.19607
7.06027
6.9215
6.77965
6.63461
6.48623
6.33437
6.17879
6.01928
5.85557
5.68735
5.51427
5.33589
5.15171
4.96117
4.76367
4.55852
4.34503
4.1226
3.89101
3.65174
3.44719
3.23756
3.02874
2.84055
2.71695
2.71201
2.83824
3.05213
3.30193
3.55767
3.80796
4.05053
4.28638
4.54985
4.82246
5.09212
5.36003
5.62733
5.89497
6.16431
6.43592
6.71195
6.99149
7.27959
7.57005
7.87769
8.17856
8.5182
8.81613
9.20706
9.43264
)
;
    }
    frontAndBack
    {
        type            empty;
    }
}


// ************************************************************************* //
