/*--------------------------------*- C++ -*----------------------------------*\
  =========                 |
  \\      /  F ield         | OpenFOAM: The Open Source CFD Toolbox
   \\    /   O peration     | Website:  https://openfoam.org
    \\  /    A nd           | Version:  7
     \\/     M anipulation  |
\*---------------------------------------------------------------------------*/
FoamFile
{
    version     2.0;
    format      ascii;
    class       volVectorField;
    location    "0.4";
    object      ddtCorrDdt0(U);
}
// * * * * * * * * * * * * * * * * * * * * * * * * * * * * * * * * * * * * * //

dimensions      [0 1 -2 0 0 0 0];

internalField   nonuniform List<vector> 
70000
(
(-0.000834757 4.51844e-05 0)
(-0.00371404 4.4316e-05 0)
(-0.00483203 3.73372e-05 0)
(-0.00406432 4.01236e-05 0)
(-0.00260563 3.77505e-05 0)
(-0.000974176 3.67407e-05 0)
(0.000510424 3.82848e-05 0)
(0.00164434 4.11844e-05 0)
(0.00241408 4.50592e-05 0)
(0.00289887 4.93383e-05 0)
(0.00319151 5.34085e-05 0)
(0.00336353 5.70564e-05 0)
(0.00344771 6.05073e-05 0)
(0.00343988 6.41868e-05 0)
(0.00331441 6.84744e-05 0)
(0.00303982 7.36007e-05 0)
(0.00259174 7.95962e-05 0)
(0.00195576 8.63826e-05 0)
(0.0011334 9.38902e-05 0)
(0.000131651 0.000101927 0)
(-0.00104216 0.000110533 0)
(-0.00238648 0.000119637 0)
(-0.00391377 0.000129467 0)
(-0.0056516 0.000140174 0)
(-0.00764459 0.000152028 0)
(-0.00995313 0.000165242 0)
(-0.0126476 0.00017994 0)
(-0.0158063 0.00019619 0)
(-0.0195176 0.000214031 0)
(-0.023864 0.000233249 0)
(-0.0289454 0.000253505 0)
(-0.0348381 0.000274633 0)
(-0.0416383 0.000295068 0)
(-0.0493872 0.000314923 0)
(-0.0581381 0.000329922 0)
(-0.0678423 0.00034093 0)
(-0.0783768 0.000338336 0)
(-0.0895104 0.000322405 0)
(-0.100677 0.000278062 0)
(-0.111139 0.000191608 0)
(-0.119562 6.12241e-05 0)
(-0.12354 -0.000196191 0)
(-0.120796 -0.000509212 0)
(-0.104597 -0.00113034 0)
(-0.0691537 -0.00183716 0)
(-0.00556868 -0.00313444 0)
(0.124989 -0.00525143 0)
(0.270408 -0.00685486 0)
(0.716231 -0.0088032 0)
(0.765968 -0.0600295 0)
(-0.000949049 0.000205967 0)
(-0.00569641 0.00017627 0)
(-0.00594816 -5.07254e-05 0)
(-8.19582e-05 -0.000206289 0)
(0.0084474 -0.0002601 0)
(0.0176042 -0.000257763 0)
(0.0263691 -0.00022465 0)
(0.0341477 -0.000180387 0)
(0.0408962 -0.000141065 0)
(0.0468919 -0.000113006 0)
(0.0524596 -9.57994e-05 0)
(0.057836 -8.53282e-05 0)
(0.0631299 -7.64165e-05 0)
(0.0683431 -6.52419e-05 0)
(0.0734263 -4.99745e-05 0)
(0.0783278 -3.07161e-05 0)
(0.0830249 -8.73997e-06 0)
(0.0875302 1.40657e-05 0)
(0.0918964 3.63909e-05 0)
(0.0961889 5.76103e-05 0)
(0.100468 7.85064e-05 0)
(0.10477 0.000100409 0)
(0.109093 0.000125875 0)
(0.113396 0.000157491 0)
(0.117593 0.000198143 0)
(0.121564 0.000250355 0)
(0.125161 0.0003161 0)
(0.128217 0.000397462 0)
(0.130533 0.00049585 0)
(0.131918 0.000613078 0)
(0.132118 0.000749438 0)
(0.130926 0.00090722 0)
(0.12804 0.00108232 0)
(0.12327 0.00127767 0)
(0.116312 0.00147871 0)
(0.107043 0.00168504 0)
(0.0954139 0.00186258 0)
(0.0814246 0.00199676 0)
(0.0658324 0.00202 0)
(0.0492226 0.00185646 0)
(0.0337146 0.00141452 0)
(0.0228779 0.000390283 0)
(0.0198627 -0.00123552 0)
(0.0373089 -0.00447491 0)
(0.0841657 -0.00870623 0)
(0.174549 -0.0180432 0)
(0.397811 -0.0291095 0)
(0.602491 -0.0554264 0)
(1.47538 -0.0633526 0)
(1.63575 -0.218856 0)
(-0.000610194 0.000415879 0)
(-0.00614052 0.000348936 0)
(-0.00714123 -0.000282036 0)
(0.00116297 -0.000832789 0)
(0.0153876 -0.00106935 0)
(0.0318191 -0.00109987 0)
(0.0482677 -0.00102221 0)
(0.0634765 -0.00090232 0)
(0.0771068 -0.000794785 0)
(0.0894571 -0.000724264 0)
(0.101027 -0.000689941 0)
(0.112233 -0.000678406 0)
(0.123306 -0.000673958 0)
(0.134309 -0.000665839 0)
(0.145217 -0.000649878 0)
(0.155997 -0.000627578 0)
(0.166657 -0.000603401 0)
(0.177257 -0.000583064 0)
(0.187915 -0.000570296 0)
(0.198769 -0.000566498 0)
(0.209943 -0.000569319 0)
(0.221527 -0.000574628 0)
(0.233555 -0.000575842 0)
(0.246002 -0.000566119 0)
(0.258783 -0.000538367 0)
(0.271768 -0.000486492 0)
(0.284788 -0.000405464 0)
(0.297653 -0.000289892 0)
(0.310127 -0.000135973 0)
(0.321985 6.23942e-05 0)
(0.332911 0.000307517 0)
(0.342646 0.00060753 0)
(0.350784 0.000957633 0)
(0.357049 0.0013683 0)
(0.360991 0.00181741 0)
(0.362311 0.00230708 0)
(0.360844 0.00278237 0)
(0.356209 0.00321274 0)
(0.349216 0.0034771 0)
(0.339847 0.00343284 0)
(0.330381 0.00286011 0)
(0.324272 0.00123307 0)
(0.324195 -0.00167322 0)
(0.34463 -0.0078195 0)
(0.39557 -0.0161153 0)
(0.486706 -0.0351577 0)
(0.743144 -0.0567265 0)
(0.937337 -0.117421 0)
(1.93968 -0.129391 0)
(2.28426 -0.395213 0)
(-0.000209789 0.000615384 0)
(-0.00580808 0.000596863 0)
(-0.00916532 -0.000459918 0)
(-0.00292572 -0.00157737 0)
(0.0122202 -0.00219398 0)
(0.032488 -0.00237954 0)
(0.0545409 -0.00230369 0)
(0.0760685 -0.00210419 0)
(0.0959887 -0.00189985 0)
(0.11422 -0.00175617 0)
(0.131185 -0.001684 0)
(0.147381 -0.00166269 0)
(0.163172 -0.00166329 0)
(0.17874 -0.0016642 0)
(0.194153 -0.00165668 0)
(0.209448 -0.00164317 0)
(0.224691 -0.00163212 0)
(0.240005 -0.00163434 0)
(0.255569 -0.00165704 0)
(0.271581 -0.00170285 0)
(0.288224 -0.00176756 0)
(0.305637 -0.00184337 0)
(0.32389 -0.00191861 0)
(0.342985 -0.00198106 0)
(0.362856 -0.00201853 0)
(0.383388 -0.00202067 0)
(0.404421 -0.00197901 0)
(0.425774 -0.0018845 0)
(0.447222 -0.00173073 0)
(0.468551 -0.00150661 0)
(0.489449 -0.00120732 0)
(0.509666 -0.00081743 0)
(0.528789 -0.000340707 0)
(0.546516 0.000241851 0)
(0.562401 0.00090626 0)
(0.57601 0.00165558 0)
(0.587242 0.00242575 0)
(0.595375 0.00316302 0)
(0.601381 0.00370714 0)
(0.604701 0.00384629 0)
(0.607674 0.00322052 0)
(0.613378 0.00110041 0)
(0.624107 -0.00298302 0)
(0.653797 -0.0121195 0)
(0.714554 -0.0243441 0)
(0.807845 -0.0546443 0)
(1.07698 -0.0811955 0)
(1.27779 -0.182597 0)
(2.23718 -0.229789 0)
(2.80107 -0.569244 0)
(1.3793e-05 0.000784444 0)
(-0.00502223 0.000923851 0)
(-0.0106256 -0.000441795 0)
(-0.00902922 -0.00217007 0)
(0.00226727 -0.00334848 0)
(0.0213683 -0.00388283 0)
(0.0450529 -0.00394256 0)
(0.0702564 -0.00372736 0)
(0.0949125 -0.00343397 0)
(0.118113 -0.00319274 0)
(0.139773 -0.00304861 0)
(0.160187 -0.00298742 0)
(0.179716 -0.00297235 0)
(0.198639 -0.00297147 0)
(0.217151 -0.00296996 0)
(0.235413 -0.00296959 0)
(0.253595 -0.00298182 0)
(0.271906 -0.00302213 0)
(0.290591 -0.00310102 0)
(0.309902 -0.00322225 0)
(0.330064 -0.00337945 0)
(0.351247 -0.00356053 0)
(0.373543 -0.00374818 0)
(0.396975 -0.00392419 0)
(0.421487 -0.00407088 0)
(0.446981 -0.00417343 0)
(0.473309 -0.00421995 0)
(0.500309 -0.0041979 0)
(0.527775 -0.00409863 0)
(0.555516 -0.0039063 0)
(0.583258 -0.00361366 0)
(0.610771 -0.00319835 0)
(0.637702 -0.00266146 0)
(0.663738 -0.00197717 0)
(0.688544 -0.00116598 0)
(0.711578 -0.000228762 0)
(0.732932 0.000771546 0)
(0.751632 0.00175234 0)
(0.768885 0.00252293 0)
(0.783788 0.00280609 0)
(0.798779 0.00209913 0)
(0.816545 -0.000531586 0)
(0.839534 -0.00573068 0)
(0.880082 -0.017951 0)
(0.952289 -0.0336873 0)
(1.05448 -0.0761378 0)
(1.32138 -0.110948 0)
(1.55564 -0.246959 0)
(2.40666 -0.362823 0)
(3.15306 -0.745441 0)
(2.73897e-05 0.000928854 0)
(-0.00424801 0.00128916 0)
(-0.0109462 -0.000200874 0)
(-0.0137935 -0.00242866 0)
(-0.00847773 -0.00423192 0)
(0.00551997 -0.00529137 0)
(0.0264117 -0.0056819 0)
(0.0514431 -0.0056047 0)
(0.0780395 -0.00530967 0)
(0.104437 -0.00499658 0)
(0.129741 -0.00476477 0)
(0.153683 -0.00462886 0)
(0.176337 -0.00456068 0)
(0.19791 -0.00452724 0)
(0.218651 -0.00451126 0)
(0.238832 -0.00451418 0)
(0.258754 -0.00454928 0)
(0.278741 -0.00463501 0)
(0.299133 -0.00478349 0)
(0.320247 -0.0049981 0)
(0.342351 -0.00526914 0)
(0.365635 -0.00557922 0)
(0.3902 -0.00590479 0)
(0.416066 -0.00622123 0)
(0.443175 -0.00650525 0)
(0.471424 -0.0067376 0)
(0.500667 -0.00690319 0)
(0.530744 -0.00698637 0)
(0.561462 -0.00697667 0)
(0.592641 -0.00685449 0)
(0.624039 -0.00661023 0)
(0.655437 -0.0062165 0)
(0.68656 -0.0056701 0)
(0.717076 -0.00494226 0)
(0.746801 -0.00404528 0)
(0.77511 -0.00298939 0)
(0.802313 -0.00183004 0)
(0.827293 -0.000681758 0)
(0.851457 0.000237302 0)
(0.873763 0.000586378 0)
(0.896722 -0.000268701 0)
(0.922721 -0.00349902 0)
(0.954489 -0.00982588 0)
(1.00321 -0.025174 0)
(1.08231 -0.044631 0)
(1.1953 -0.0976712 0)
(1.44734 -0.148299 0)
(1.72294 -0.307929 0)
(2.461 -0.481215 0)
(3.30134 -0.929438 0)
(-7.18422e-05 0.00105735 0)
(-0.00379421 0.00165638 0)
(-0.0106048 0.000192413 0)
(-0.0161543 -0.00235209 0)
(-0.0161274 -0.00470188 0)
(-0.00842793 -0.00634731 0)
(0.00687783 -0.00722532 0)
(0.0282076 -0.00747088 0)
(0.0533408 -0.00733164 0)
(0.0801872 -0.00704768 0)
(0.107192 -0.00677045 0)
(0.133407 -0.00655758 0)
(0.158384 -0.00640867 0)
(0.182018 -0.00630612 0)
(0.204428 -0.00624136 0)
(0.225888 -0.00622173 0)
(0.246774 -0.00626467 0)
(0.267523 -0.00639143 0)
(0.288584 -0.00661398 0)
(0.310372 -0.00693293 0)
(0.333222 -0.00733282 0)
(0.357361 -0.00778874 0)
(0.382899 -0.00826928 0)
(0.409847 -0.00874246 0)
(0.438125 -0.009179 0)
(0.467606 -0.00955525 0)
(0.498121 -0.00985312 0)
(0.52949 -0.0100544 0)
(0.561512 -0.0101469 0)
(0.593989 -0.0101086 0)
(0.626697 -0.00992743 0)
(0.659397 -0.00957346 0)
(0.691877 -0.00903797 0)
(0.72377 -0.00829356 0)
(0.755023 -0.00734179 0)
(0.78496 -0.00620617 0)
(0.814055 -0.00493318 0)
(0.841164 -0.00366882 0)
(0.867782 -0.00265996 0)
(0.892924 -0.00231012 0)
(0.919016 -0.00337061 0)
(0.948436 -0.00727519 0)
(0.98365 -0.0147905 0)
(1.03611 -0.0331851 0)
(1.11518 -0.0567444 0)
(1.23539 -0.119296 0)
(1.46505 -0.184778 0)
(1.76611 -0.369585 0)
(2.40962 -0.594724 0)
(3.25877 -1.11118 0)
(-0.000168606 0.00118261 0)
(-0.00368253 0.00201514 0)
(-0.010165 0.000654859 0)
(-0.0167706 -0.00205069 0)
(-0.0199968 -0.00480324 0)
(-0.0174123 -0.00697666 0)
(-0.0079809 -0.00838973 0)
(0.007967 -0.00908386 0)
(0.0291071 -0.00925612 0)
(0.0536673 -0.00914184 0)
(0.0799183 -0.00891811 0)
(0.106469 -0.00867937 0)
(0.132371 -0.00846049 0)
(0.157097 -0.00827256 0)
(0.180469 -0.00812923 0)
(0.2026 -0.00805473 0)
(0.223818 -0.00807836 0)
(0.244594 -0.00822833 0)
(0.265465 -0.00851784 0)
(0.286951 -0.00894365 0)
(0.309485 -0.00948215 0)
(0.333372 -0.0100978 0)
(0.358763 -0.0107483 0)
(0.385677 -0.0113918 0)
(0.414015 -0.0119915 0)
(0.443614 -0.0125187 0)
(0.474263 -0.0129523 0)
(0.505738 -0.0132718 0)
(0.537804 -0.0134637 0)
(0.570224 -0.0135041 0)
(0.60276 -0.0133783 0)
(0.635129 -0.0130561 0)
(0.66714 -0.0125226 0)
(0.69838 -0.0117555 0)
(0.728862 -0.0107453 0)
(0.75789 -0.00953102 0)
(0.786005 -0.00815311 0)
(0.812149 -0.00678567 0)
(0.837743 -0.0057097 0)
(0.862061 -0.00538598 0)
(0.887195 -0.00668089 0)
(0.915872 -0.0112751 0)
(0.949673 -0.0200435 0)
(1.00115 -0.0412719 0)
(1.07457 -0.0693252 0)
(1.19439 -0.140019 0)
(1.39873 -0.221458 0)
(1.70192 -0.427158 0)
(2.26435 -0.697194 0)
(3.06234 -1.28368 0)
(-0.000218961 0.00131569 0)
(-0.00374294 0.00237256 0)
(-0.00997224 0.00113246 0)
(-0.0166607 -0.00164356 0)
(-0.0212642 -0.00467024 0)
(-0.0217112 -0.00726187 0)
(-0.0166682 -0.0091637 0)
(-0.00571387 -0.010337 0)
(0.0106968 -0.0109109 0)
(0.0314207 -0.0110824 0)
(0.0549907 -0.0110224 0)
(0.0799569 -0.0108415 0)
(0.105116 -0.010602 0)
(0.129607 -0.0103457 0)
(0.152934 -0.0101157 0)
(0.174948 -0.00996269 0)
(0.195807 -0.0099374 0)
(0.215909 -0.010083 0)
(0.235798 -0.0104197 0)
(0.256065 -0.0109431 0)
(0.277248 -0.0116217 0)
(0.299762 -0.0124069 0)
(0.323845 -0.0132421 0)
(0.349571 -0.0140718 0)
(0.376854 -0.0148484 0)
(0.405508 -0.0155359 0)
(0.435279 -0.0161089 0)
(0.465889 -0.0165447 0)
(0.497053 -0.0168279 0)
(0.528474 -0.016934 0)
(0.559878 -0.0168448 0)
(0.590922 -0.0165312 0)
(0.62139 -0.0159717 0)
(0.650814 -0.0151507 0)
(0.679196 -0.0140506 0)
(0.705842 -0.0127252 0)
(0.731241 -0.0112164 0)
(0.754495 -0.00971968 0)
(0.776812 -0.00856118 0)
(0.797845 -0.00824642 0)
(0.81919 -0.00976688 0)
(0.844021 -0.0150095 0)
(0.872997 -0.0250414 0)
(0.919189 -0.0488481 0)
(0.983467 -0.0815115 0)
(1.09457 -0.159399 0)
(1.27288 -0.256419 0)
(1.55768 -0.47756 0)
(2.04058 -0.819719 0)
(2.74737 -1.4451 0)
(-0.000232885 0.00145814 0)
(-0.00383585 0.00273798 0)
(-0.0099796 0.00161453 0)
(-0.016502 -0.00120428 0)
(-0.021392 -0.00443103 0)
(-0.0231056 -0.00734405 0)
(-0.0205245 -0.00965283 0)
(-0.0129989 -0.0112669 0)
(-0.000502547 -0.012256 0)
(0.0163642 -0.0127685 0)
(0.0365559 -0.0129482 0)
(0.0588314 -0.0129012 0)
(0.0819985 -0.0127025 0)
(0.105066 -0.0124164 0)
(0.127324 -0.0121136 0)
(0.148384 -0.0118743 0)
(0.16819 -0.0117769 0)
(0.18698 -0.0118876 0)
(0.20522 -0.0122415 0)
(0.223504 -0.0128398 0)
(0.242438 -0.0136465 0)
(0.262548 -0.0146015 0)
(0.284194 -0.0156315 0)
(0.307549 -0.0166637 0)
(0.332592 -0.017635 0)
(0.359156 -0.0184982 0)
(0.386969 -0.0192209 0)
(0.415709 -0.0197768 0)
(0.44504 -0.020148 0)
(0.474604 -0.0203095 0)
(0.504081 -0.0202389 0)
(0.533063 -0.0199084 0)
(0.561285 -0.0192897 0)
(0.588221 -0.0183736 0)
(0.613793 -0.0171372 0)
(0.637319 -0.015647 0)
(0.659137 -0.0139554 0)
(0.678523 -0.0122722 0)
(0.696384 -0.0109805 0)
(0.712726 -0.0106201 0)
(0.728693 -0.0123112 0)
(0.747606 -0.0181194 0)
(0.769766 -0.0293438 0)
(0.807328 -0.0554474 0)
(0.860344 -0.0925883 0)
(0.956061 -0.176802 0)
(1.10714 -0.288561 0)
(1.35357 -0.526322 0)
(1.75871 -0.916115 0)
(2.35069 -1.58395 0)
(-0.00023251 0.00160836 0)
(-0.00390676 0.00311753 0)
(-0.0100666 0.00210439 0)
(-0.016461 -0.000758215 0)
(-0.0212559 -0.00416043 0)
(-0.0232647 -0.00734111 0)
(-0.0216616 -0.0099887 0)
(-0.0159242 -0.0119849 0)
(-0.00590866 -0.0133575 0)
(0.00809102 -0.0142111 0)
(0.0253425 -0.0146574 0)
(0.0448702 -0.0147867 0)
(0.0656364 -0.014674 0)
(0.0866865 -0.0143954 0)
(0.107241 -0.0140416 0)
(0.126769 -0.013719 0)
(0.145033 -0.0135344 0)
(0.162096 -0.0135815 0)
(0.178293 -0.013917 0)
(0.194152 -0.0145552 0)
(0.210291 -0.0154629 0)
(0.227307 -0.0165722 0)
(0.245679 -0.0177946 0)
(0.265705 -0.019038 0)
(0.287472 -0.0202198 0)
(0.310877 -0.0212768 0)
(0.335676 -0.022165 0)
(0.361532 -0.0228522 0)
(0.388077 -0.023316 0)
(0.414909 -0.0235306 0)
(0.441665 -0.0234691 0)
(0.467892 -0.0231037 0)
(0.493265 -0.0223992 0)
(0.517216 -0.0213502 0)
(0.539559 -0.0199317 0)
(0.559615 -0.0182174 0)
(0.577521 -0.0162797 0)
(0.592679 -0.0143362 0)
(0.605691 -0.0128338 0)
(0.616742 -0.0123467 0)
(0.626722 -0.0141089 0)
(0.638606 -0.0203658 0)
(0.653011 -0.0326303 0)
(0.679861 -0.0607109 0)
(0.720267 -0.102017 0)
(0.796334 -0.191577 0)
(0.917966 -0.316757 0)
(1.11932 -0.57043 0)
(1.44023 -0.968971 0)
(1.89572 -1.6924 0)
(-0.000231067 0.0017652 0)
(-0.00395539 0.00351299 0)
(-0.0101583 0.00260751 0)
(-0.0165002 -0.000307677 0)
(-0.0211596 -0.00388701 0)
(-0.0231073 -0.00731839 0)
(-0.0217216 -0.0102703 0)
(-0.0166542 -0.0126048 0)
(-0.00782242 -0.01432 0)
(0.00452067 -0.0154884 0)
(0.0198057 -0.0161929 0)
(0.0372341 -0.0165062 0)
(0.0559301 -0.0164976 0)
(0.0750406 -0.0162472 0)
(0.0938164 -0.0158579 0)
(0.111677 -0.0154557 0)
(0.128277 -0.0151728 0)
(0.143542 -0.0151304 0)
(0.15767 -0.0154106 0)
(0.171087 -0.0160467 0)
(0.184365 -0.017015 0)
(0.198126 -0.0182467 0)
(0.212924 -0.0196418 0)
(0.229171 -0.02109 0)
(0.247075 -0.0224872 0)
(0.266632 -0.0237498 0)
(0.287659 -0.0248179 0)
(0.309845 -0.0256491 0)
(0.332821 -0.0262146 0)
(0.356166 -0.0264863 0)
(0.379492 -0.0264326 0)
(0.402328 -0.0260244 0)
(0.424304 -0.0252194 0)
(0.444842 -0.0240117 0)
(0.463645 -0.0223759 0)
(0.480043 -0.0203875 0)
(0.493971 -0.0181425 0)
(0.504883 -0.0158646 0)
(0.513127 -0.0140612 0)
(0.518857 -0.0133527 0)
(0.522902 -0.015056 0)
(0.527484 -0.0216122 0)
(0.533925 -0.0347047 0)
(0.549255 -0.0643977 0)
(0.576338 -0.109355 0)
(0.630655 -0.20335 0)
(0.721548 -0.340015 0)
(0.872508 -0.604753 0)
(1.10663 -1.02571 0)
(1.41743 -1.77547 0)
(-0.000231804 0.0019284 0)
(-0.00399451 0.00392427 0)
(-0.0102351 0.0031266 0)
(-0.0165605 0.00015094 0)
(-0.0211261 -0.00361544 0)
(-0.0229537 -0.00730045 0)
(-0.0215138 -0.0105477 0)
(-0.016572 -0.0132009 0)
(-0.00814734 -0.015233 0)
(0.00346619 -0.0166898 0)
(0.0177163 -0.0176319 0)
(0.0338825 -0.0181175 0)
(0.0511807 -0.0182098 0)
(0.0688492 -0.0179898 0)
(0.0861908 -0.017568 0)
(0.102636 -0.0170843 0)
(0.117796 -0.0166919 0)
(0.131512 -0.0165367 0)
(0.143872 -0.0167266 0)
(0.155202 -0.0173171 0)
(0.165997 -0.0182996 0)
(0.176854 -0.0196101 0)
(0.188357 -0.0211428 0)
(0.200992 -0.0227723 0)
(0.215063 -0.0243733 0)
(0.23067 -0.0258399 0)
(0.24771 -0.0270923 0)
(0.265922 -0.0280742 0)
(0.284961 -0.0287475 0)
(0.304417 -0.0290802 0)
(0.323898 -0.0290357 0)
(0.342942 -0.0285824 0)
(0.361161 -0.0276711 0)
(0.377992 -0.0262912 0)
(0.393066 -0.0244169 0)
(0.405727 -0.0221198 0)
(0.415749 -0.0195188 0)
(0.422578 -0.0168437 0)
(0.42638 -0.0146516 0)
(0.427118 -0.0136251 0)
(0.425667 -0.0151272 0)
(0.423304 -0.0218096 0)
(0.422094 -0.0354828 0)
(0.426128 -0.0663717 0)
(0.439864 -0.114381 0)
(0.47215 -0.211744 0)
(0.532129 -0.357575 0)
(0.631055 -0.630779 0)
(0.779385 -1.06638 0)
(0.946872 -1.82848 0)
(-0.00023383 0.00209816 0)
(-0.00403163 0.00435121 0)
(-0.0103012 0.00366232 0)
(-0.0166161 0.000620184 0)
(-0.0211164 -0.00334374 0)
(-0.0228442 -0.00729186 0)
(-0.0213014 -0.0108393 0)
(-0.0163029 -0.0138093 0)
(-0.00793463 -0.0161491 0)
(0.00345495 -0.0178798 0)
(0.0172876 -0.0190433 0)
(0.032848 -0.0196862 0)
(0.0493862 -0.0198677 0)
(0.0661827 -0.0196699 0)
(0.0825864 -0.0192089 0)
(0.0980479 -0.0186359 0)
(0.112173 -0.0181211 0)
(0.124759 -0.0178323 0)
(0.135829 -0.0179018 0)
(0.145626 -0.0184077 0)
(0.154566 -0.0193594 0)
(0.163206 -0.0207022 0)
(0.172102 -0.0223295 0)
(0.181772 -0.0241048 0)
(0.192587 -0.025884 0)
(0.204718 -0.0275381 0)
(0.218135 -0.0289654 0)
(0.232636 -0.0300932 0)
(0.247911 -0.0308712 0)
(0.263576 -0.0312621 0)
(0.279251 -0.031224 0)
(0.294502 -0.0307221 0)
(0.308946 -0.0297008 0)
(0.32206 -0.0281417 0)
(0.333441 -0.0260175 0)
(0.34246 -0.0233912 0)
(0.348788 -0.0203997 0)
(0.351834 -0.0172806 0)
(0.351646 -0.0146244 0)
(0.347926 -0.0131897 0)
(0.341616 -0.0143531 0)
(0.333053 -0.0209763 0)
(0.324854 -0.0349669 0)
(0.31852 -0.0666137 0)
(0.319518 -0.116989 0)
(0.330816 -0.216609 0)
(0.361084 -0.369323 0)
(0.40932 -0.647442 0)
(0.47676 -1.09069 0)
(0.5104 -1.84883 0)
(-0.000236069 0.00227473 0)
(-0.00406837 0.00479421 0)
(-0.0103623 0.0042147 0)
(-0.0166639 0.00110085 0)
(-0.0211069 -0.00307024 0)
(-0.0227527 -0.00729187 0)
(-0.0211167 -0.0111486 0)
(-0.0160296 -0.0144418 0)
(-0.00760856 -0.0170915 0)
(0.00376322 -0.0190932 0)
(0.0174812 -0.0204707 0)
(0.0328165 -0.0212611 0)
(0.0490194 -0.0215211 0)
(0.0653829 -0.0213351 0)
(0.0812736 -0.0208248 0)
(0.0961588 -0.0201519 0)
(0.109649 -0.0195017 0)
(0.121529 -0.019062 0)
(0.131788 -0.0189874 0)
(0.140608 -0.0193781 0)
(0.148365 -0.0202617 0)
(0.155517 -0.0215961 0)
(0.162638 -0.0232767 0)
(0.17022 -0.0251594 0)
(0.17865 -0.0270842 0)
(0.188144 -0.0288993 0)
(0.19871 -0.0304815 0)
(0.210207 -0.0317391 0)
(0.222348 -0.0326082 0)
(0.234779 -0.0330447 0)
(0.247138 -0.0330021 0)
(0.259027 -0.0324417 0)
(0.270077 -0.0313026 0)
(0.279819 -0.0295568 0)
(0.287843 -0.0271741 0)
(0.293558 -0.0242056 0)
(0.296587 -0.0207994 0)
(0.296294 -0.0172023 0)
(0.29266 -0.0140213 0)
(0.285133 -0.0120982 0)
(0.27468 -0.0127989 0)
(0.260842 -0.0191759 0)
(0.246497 -0.0332232 0)
(0.231089 -0.0651819 0)
(0.220399 -0.117196 0)
(0.212626 -0.218008 0)
(0.215336 -0.375111 0)
(0.216626 -0.654882 0)
(0.211445 -1.09891 0)
(0.123436 -1.84101 0)
(-0.000238133 0.0024583 0)
(-0.0041043 0.00525397 0)
(-0.0104206 0.00478389 0)
(-0.0167067 0.00159301 0)
(-0.0210921 -0.00279448 0)
(-0.0226612 -0.00729989 0)
(-0.020942 -0.0114757 0)
(-0.0157708 -0.0151014 0)
(-0.00727882 -0.0180679 0)
(0.0041339 -0.0203441 0)
(0.0178489 -0.0219353 0)
(0.0331268 -0.0228697 0)
(0.0492111 -0.0232019 0)
(0.0653929 -0.0230195 0)
(0.081042 -0.0224508 0)
(0.0956332 -0.0216678 0)
(0.108782 -0.0208709 0)
(0.120275 -0.0202669 0)
(0.130084 -0.0200313 0)
(0.138373 -0.0202854 0)
(0.14546 -0.0210751 0)
(0.151802 -0.02237 0)
(0.157882 -0.0240712 0)
(0.164194 -0.0260287 0)
(0.171118 -0.0280678 0)
(0.178877 -0.0300167 0)
(0.187526 -0.0317285 0)
(0.1969 -0.0330932 0)
(0.20676 -0.0340328 0)
(0.216775 -0.0344956 0)
(0.226597 -0.0344304 0)
(0.235858 -0.0337949 0)
(0.244203 -0.0325241 0)
(0.251213 -0.0305795 0)
(0.256485 -0.0279267 0)
(0.259469 -0.0246037 0)
(0.259768 -0.0207624 0)
(0.256719 -0.0166595 0)
(0.250257 -0.0129043 0)
(0.239626 -0.0104202 0)
(0.225758 -0.0105493 0)
(0.207593 -0.0164983 0)
(0.187989 -0.0303505 0)
(0.164874 -0.0621851 0)
(0.143752 -0.115119 0)
(0.119153 -0.21603 0)
(0.0969635 -0.375215 0)
(0.0565314 -0.653442 0)
(-0.0130193 -1.09107 0)
(-0.203912 -1.80976 0)
(-0.000240014 0.00264905 0)
(-0.00413887 0.00573109 0)
(-0.010476 0.00537024 0)
(-0.0167459 0.00209674 0)
(-0.0210725 -0.00251651 0)
(-0.0225647 -0.00731615 0)
(-0.0207651 -0.0118208 0)
(-0.0155146 -0.0157886 0)
(-0.00695327 -0.0190803 0)
(0.00450957 -0.0216371 0)
(0.0182506 -0.0234455 0)
(0.0335267 -0.0245242 0)
(0.0495777 -0.024926 0)
(0.0656907 -0.0247422 0)
(0.0812337 -0.0241081 0)
(0.0956838 -0.0232068 0)
(0.108662 -0.0222542 0)
(0.119958 -0.0214759 0)
(0.129544 -0.0210682 0)
(0.137574 -0.0211725 0)
(0.144348 -0.0218522 0)
(0.15029 -0.0230896 0)
(0.155868 -0.02479 0)
(0.16154 -0.0267994 0)
(0.167669 -0.0289292 0)
(0.174474 -0.0309885 0)
(0.181985 -0.0328081 0)
(0.19009 -0.0342577 0)
(0.19853 -0.0352458 0)
(0.206987 -0.0357127 0)
(0.215121 -0.0356037 0)
(0.222584 -0.0348725 0)
(0.229036 -0.033451 0)
(0.234085 -0.0312905 0)
(0.237346 -0.0283513 0)
(0.238299 -0.024658 0)
(0.236541 -0.0203601 0)
(0.231393 -0.0157239 0)
(0.222749 -0.0113502 0)
(0.209714 -0.00823567 0)
(0.193114 -0.00769494 0)
(0.171497 -0.0130421 0)
(0.147452 -0.0264571 0)
(0.117861 -0.0577524 0)
(0.0875359 -0.110885 0)
(0.0482524 -0.210873 0)
(0.00394287 -0.369956 0)
(-0.0729125 -0.643312 0)
(-0.197928 -1.06937 0)
(-0.474104 -1.75533 0)
(-0.000241769 0.00284718 0)
(-0.00417185 0.00622607 0)
(-0.0105283 0.00597417 0)
(-0.0167816 0.00261222 0)
(-0.0210491 -0.00223643 0)
(-0.0224632 -0.00734122 0)
(-0.0205831 -0.0121848 0)
(-0.015254 -0.0165041 0)
(-0.00662475 -0.0201299 0)
(0.00488809 -0.0229742 0)
(0.0186595 -0.0250042 0)
(0.0339472 -0.0262293 0)
(0.0499902 -0.0267004 0)
(0.0660736 -0.0265121 0)
(0.0815637 -0.0258073 0)
(0.0959388 -0.0247811 0)
(0.108824 -0.0236655 0)
(0.120016 -0.0227055 0)
(0.129493 -0.0221184 0)
(0.137409 -0.0220653 0)
(0.14406 -0.0226269 0)
(0.149854 -0.0237973 0)
(0.155246 -0.0254863 0)
(0.160669 -0.0275351 0)
(0.166472 -0.0297422 0)
(0.172853 -0.0318966 0)
(0.17984 -0.0338075 0)
(0.187304 -0.0353254 0)
(0.194993 -0.0363441 0)
(0.202594 -0.0367961 0)
(0.209766 -0.0366229 0)
(0.216174 -0.0357754 0)
(0.221476 -0.034183 0)
(0.225308 -0.0317869 0)
(0.227282 -0.0285413 0)
(0.226899 -0.0244576 0)
(0.22375 -0.019678 0)
(0.217144 -0.0144776 0)
(0.20693 -0.0094412 0)
(0.192114 -0.00562657 0)
(0.173397 -0.004322 0)
(0.148998 -0.00889528 0)
(0.121187 -0.021638 0)
(0.0861155 -0.0519951 0)
(0.0476269 -0.104633 0)
(-0.00453774 -0.202707 0)
(-0.0685463 -0.359596 0)
(-0.177143 -0.625275 0)
(-0.34963 -1.03485 0)
(-0.695412 -1.68049 0)
(-0.000243433 0.00305286 0)
(-0.00420314 0.00673937 0)
(-0.010577 0.00659614 0)
(-0.0168136 0.00313962 0)
(-0.0210221 -0.00195429 0)
(-0.0223576 -0.00737573 0)
(-0.0203963 -0.0125685 0)
(-0.0149882 -0.0172492 0)
(-0.00629026 -0.021218 0)
(0.00527295 -0.0243568 0)
(0.0190753 -0.0266134 0)
(0.0343766 -0.0279874 0)
(0.050417 -0.0285278 0)
(0.0664809 -0.0283327 0)
(0.0819342 -0.027553 0)
(0.0962566 -0.0263961 0)
(0.109078 -0.0251113 0)
(0.120204 -0.0239637 0)
(0.129619 -0.0231919 0)
(0.137482 -0.0229772 0)
(0.144095 -0.0234171 0)
(0.149861 -0.0245174 0)
(0.155226 -0.0261915 0)
(0.160613 -0.0282756 0)
(0.16635 -0.0305547 0)
(0.172624 -0.032797 0)
(0.179447 -0.0347903 0)
(0.186681 -0.0363655 0)
(0.19407 -0.0374022 0)
(0.201301 -0.0378249 0)
(0.208032 -0.0375722 0)
(0.213933 -0.0365915 0)
(0.218662 -0.0348101 0)
(0.221859 -0.0321593 0)
(0.223134 -0.0285863 0)
(0.221993 -0.0240892 0)
(0.218012 -0.0187997 0)
(0.210488 -0.0129994 0)
(0.199208 -0.00725361 0)
(0.18313 -0.0026647 0)
(0.162743 -0.000502037 0)
(0.13617 -0.00413115 0)
(0.105113 -0.0159641 0)
(0.0652615 -0.044997 0)
(0.0193872 -0.0964586 0)
(-0.0442917 -0.191654 0)
(-0.12603 -0.34445 0)
(-0.262403 -0.599798 0)
(-0.475387 -0.988276 0)
(-0.87815 -1.58775 0)
(-0.000245023 0.00326627 0)
(-0.00423263 0.00727142 0)
(-0.010622 0.00723662 0)
(-0.0168416 0.00367915 0)
(-0.0209914 -0.00167009 0)
(-0.022248 -0.00742029 0)
(-0.0202054 -0.0129731 0)
(-0.0147177 -0.0180251 0)
(-0.00595017 -0.0223459 0)
(0.00566463 -0.0257866 0)
(0.0194989 -0.0282746 0)
(0.0348145 -0.0298003 0)
(0.050853 -0.0304103 0)
(0.0668989 -0.0302063 0)
(0.0823184 -0.0293474 0)
(0.0965936 -0.0280543 0)
(0.10936 -0.0265945 0)
(0.12043 -0.0252538 0)
(0.129798 -0.0242929 0)
(0.137632 -0.0239139 0)
(0.144239 -0.0242311 0)
(0.150024 -0.0252616 0)
(0.155432 -0.026922 0)
(0.160877 -0.0290425 0)
(0.166677 -0.0313935 0)
(0.173001 -0.0337225 0)
(0.179852 -0.0357949 0)
(0.187081 -0.0374219 0)
(0.194426 -0.0384694 0)
(0.201575 -0.0388538 0)
(0.208185 -0.0385111 0)
(0.213929 -0.037385 0)
(0.21846 -0.0354001 0)
(0.221418 -0.0324781 0)
(0.222403 -0.0285572 0)
(0.220916 -0.0236228 0)
(0.216507 -0.0177932 0)
(0.208461 -0.011353 0)
(0.196489 -0.00484789 0)
(0.179514 0.000594683 0)
(0.157811 0.00371575 0)
(0.129386 0.00119902 0)
(0.0954345 -0.00947814 0)
(0.0512794 -0.0368033 0)
(-0.00143157 -0.086412 0)
(-0.0756386 -0.177781 0)
(-0.173647 -0.324708 0)
(-0.334609 -0.56719 0)
(-0.582691 -0.930848 0)
(-1.03201 -1.48041 0)
(-0.000246552 0.0034876 0)
(-0.00426025 0.0078227 0)
(-0.0106631 0.00789607 0)
(-0.0168654 0.00423097 0)
(-0.020957 -0.00138379 0)
(-0.0221345 -0.00747545 0)
(-0.0200107 -0.0133995 0)
(-0.0144437 -0.0188329 0)
(-0.0056057 -0.0235153 0)
(0.00606189 -0.0272652 0)
(0.0199291 -0.0299898 0)
(0.0352596 -0.0316697 0)
(0.0512966 -0.0323494 0)
(0.0673245 -0.0321342 0)
(0.0827102 -0.0311919 0)
(0.0969386 -0.0297572 0)
(0.109651 -0.0281163 0)
(0.120668 -0.0265772 0)
(0.129993 -0.0254234 0)
(0.137803 -0.0248779 0)
(0.144414 -0.0250725 0)
(0.150235 -0.0260351 0)
(0.155711 -0.0276852 0)
(0.161253 -0.0298461 0)
(0.167167 -0.0322724 0)
(0.173613 -0.0346902 0)
(0.180579 -0.0368419 0)
(0.18791 -0.0385191 0)
(0.19534 -0.0395741 0)
(0.202556 -0.0399155 0)
(0.209217 -0.0394762 0)
(0.214997 -0.0381964 0)
(0.219545 -0.0359973 0)
(0.222498 -0.03279 0)
(0.22344 -0.0285026 0)
(0.221863 -0.0231071 0)
(0.217281 -0.0167059 0)
(0.208967 -0.00958322 0)
(0.196544 -0.00226455 0)
(0.178909 0.00411544 0)
(0.156108 0.00830186 0)
(0.126067 0.00707429 0)
(0.0894416 -0.00219007 0)
(0.0412707 -0.0274206 0)
(-0.0179099 -0.0745058 0)
(-0.101948 -0.161093 0)
(-0.215063 -0.300502 0)
(-0.398118 -0.527749 0)
(-0.676797 -0.86351 0)
(-1.16421 -1.3598 0)
(-0.00024803 0.00371702 0)
(-0.0042859 0.00839363 0)
(-0.0107002 0.00857495 0)
(-0.0168848 0.00479526 0)
(-0.0209189 -0.0010954 0)
(-0.0220173 -0.00754172 0)
(-0.0198127 -0.0138488 0)
(-0.0141667 -0.019674 0)
(-0.00525815 -0.0247277 0)
(0.00646308 -0.0287946 0)
(0.0203641 -0.0317608 0)
(0.0357102 -0.0335974 0)
(0.0517457 -0.0343469 0)
(0.0677555 -0.0341181 0)
(0.0831069 -0.0330879 0)
(0.0972881 -0.0315058 0)
(0.109946 -0.0296778 0)
(0.12091 -0.0279349 0)
(0.130193 -0.0265842 0)
(0.137981 -0.0258704 0)
(0.144598 -0.0259429 0)
(0.15046 -0.0268405 0)
(0.156014 -0.028485 0)
(0.161665 -0.0306916 0)
(0.167715 -0.0331983 0)
(0.17431 -0.0357088 0)
(0.181428 -0.0379421 0)
(0.188907 -0.03967 0)
(0.196479 -0.0407316 0)
(0.203831 -0.0410276 0)
(0.210624 -0.0404881 0)
(0.216537 -0.0390491 0)
(0.221212 -0.0366272 0)
(0.224283 -0.0331229 0)
(0.225315 -0.0284517 0)
(0.223788 -0.0225715 0)
(0.21918 -0.0155668 0)
(0.210743 -0.00771662 0)
(0.198011 0.000473176 0)
(0.179853 0.00787867 0)
(0.156082 0.0132462 0)
(0.124557 0.0134889 0)
(0.0853957 0.0059075 0)
(0.0333951 -0.0168319 0)
(-0.0319837 -0.0607167 0)
(-0.125297 -0.141578 0)
(-0.252514 -0.271876 0)
(-0.455473 -0.481758 0)
(-0.760858 -0.786938 0)
(-1.27928 -1.22746 0)
(-0.000249469 0.00395472 0)
(-0.00430951 0.00898463 0)
(-0.0107331 0.00927371 0)
(-0.0168996 0.00537222 0)
(-0.0208769 -0.000804958 0)
(-0.0218966 -0.00761955 0)
(-0.0196116 -0.014322 0)
(-0.0138877 -0.0205498 0)
(-0.0049087 -0.0259844 0)
(0.00686659 -0.0303763 0)
(0.0208019 -0.0335894 0)
(0.036164 -0.0355853 0)
(0.0521982 -0.0364045 0)
(0.0681895 -0.0361595 0)
(0.0835062 -0.0350367 0)
(0.0976397 -0.0333013 0)
(0.110243 -0.03128 0)
(0.121154 -0.0293278 0)
(0.130394 -0.0277762 0)
(0.138161 -0.0268924 0)
(0.144785 -0.0268437 0)
(0.15069 -0.0276797 0)
(0.156324 -0.0293237 0)
(0.162092 -0.0315823 0)
(0.168285 -0.0341755 0)
(0.17504 -0.0367835 0)
(0.182325 -0.0391016 0)
(0.189972 -0.0408819 0)
(0.19771 -0.0419502 0)
(0.205229 -0.0421999 0)
(0.212193 -0.0415579 0)
(0.218283 -0.0399558 0)
(0.223139 -0.0373045 0)
(0.226387 -0.0334925 0)
(0.227577 -0.0284212 0)
(0.226174 -0.0220327 0)
(0.221613 -0.0143918 0)
(0.213133 -0.00576731 0)
(0.200167 0.00335472 0)
(0.181563 0.0118776 0)
(0.156898 0.01855 0)
(0.123967 0.0204502 0)
(0.0823653 0.014836 0)
(0.0266808 -0.00500701 0)
(-0.044654 -0.0450073 0)
(-0.146716 -0.1192 0)
(-0.287051 -0.238902 0)
(-0.507847 -0.429417 0)
(-0.836289 -0.701809 0)
(-1.3794 -1.08477 0)
(-0.000250874 0.00420087 0)
(-0.00433101 0.00959612 0)
(-0.0107617 0.00999278 0)
(-0.0169096 0.00596206 0)
(-0.0208312 -0.000512539 0)
(-0.0217725 -0.00770933 0)
(-0.0194078 -0.0148201 0)
(-0.0136071 -0.0214615 0)
(-0.0045585 -0.0272872 0)
(0.00727086 -0.0320123 0)
(0.0212407 -0.0354776 0)
(0.0366186 -0.0376353 0)
(0.0526514 -0.038524 0)
(0.068624 -0.03826 0)
(0.0839057 -0.0370398 0)
(0.0979914 -0.0351448 0)
(0.11054 -0.0329239 0)
(0.121398 -0.0307567 0)
(0.130596 -0.0290003 0)
(0.138341 -0.0279448 0)
(0.144974 -0.027776 0)
(0.150924 -0.0285542 0)
(0.156641 -0.0302036 0)
(0.162527 -0.0325208 0)
(0.168867 -0.0352069 0)
(0.175787 -0.0379179 0)
(0.183247 -0.0403247 0)
(0.191071 -0.0421595 0)
(0.198987 -0.0432355 0)
(0.206689 -0.0434387 0)
(0.213843 -0.0426929 0)
(0.220133 -0.0409247 0)
(0.225197 -0.038038 0)
(0.228655 -0.0339083 0)
(0.230036 -0.0284207 0)
(0.228795 -0.0215001 0)
(0.224324 -0.0131894 0)
(0.215842 -0.00374212 0)