/*--------------------------------*- C++ -*----------------------------------*\
  =========                 |
  \\      /  F ield         | OpenFOAM: The Open Source CFD Toolbox
   \\    /   O peration     | Website:  https://openfoam.org
    \\  /    A nd           | Version:  7
     \\/     M anipulation  |
\*---------------------------------------------------------------------------*/
FoamFile
{
    version     2.0;
    format      ascii;
    class       surfaceScalarField;
    location    "0.4";
    object      ddtCorrDdt0(phi);
}
// * * * * * * * * * * * * * * * * * * * * * * * * * * * * * * * * * * * * * //

dimensions      [0 3 -2 0 0 0 0];

internalField   nonuniform List<scalar> 
139350
(
-3.5084e-10
3.50942e-10
-6.64703e-10
3.13778e-10
-6.94861e-10
3.0351e-11
-5.25871e-10
-1.68988e-10
-2.81866e-10
-2.43905e-10
-3.50759e-11
-2.46692e-10
1.71699e-10
-2.06593e-10
3.22414e-10
-1.50571e-10
4.21835e-10
-9.9201e-11
4.82866e-10
-6.08981e-11
5.18939e-10
-3.59075e-11
5.38669e-10
-1.96503e-11
5.44711e-10
-5.94385e-12
5.34757e-10
1.00135e-11
5.04325e-10
3.05598e-11
4.48633e-10
5.57107e-11
3.6485e-10
8.40035e-11
2.51362e-10
1.1331e-10
1.0939e-10
1.42116e-10
-6.05356e-11
1.69606e-10
-2.57202e-10
1.96536e-10
-4.81518e-10
2.24088e-10
-7.36645e-10
2.5483e-10
-1.02805e-09
2.91148e-10
-1.36399e-09
3.35656e-10
-1.7551e-09
3.90532e-10
-2.21256e-09
4.57087e-10
-2.75008e-09
5.36753e-10
-3.38082e-09
6.30119e-10
-4.11937e-09
7.37904e-10
-4.97944e-09
8.59314e-10
-5.97562e-09
9.95471e-10
-7.11726e-09
1.14086e-09
-8.41595e-09
1.29752e-09
-9.86649e-09
1.44963e-09
-1.14659e-08
1.59792e-09
-1.31752e-08
1.70825e-09
-1.49476e-08
1.7712e-09
-1.66755e-08
1.72677e-09
-1.81879e-08
1.51156e-09
-1.92566e-08
1.06764e-09
-1.93761e-08
1.18891e-10
-1.81099e-08
-1.26723e-09
-1.41421e-08
-3.96839e-09
-6.56845e-09
-7.57491e-09
7.85667e-09
-1.44257e-08
3.08059e-08
-2.29508e-08
7.18683e-08
-4.1063e-08
1.22358e-07
-5.04897e-08
-1.87794e-07
3.10153e-07
-5.28115e-10
8.79182e-10
-9.35022e-10
7.20594e-10
-4.83885e-10
-4.20585e-10
6.72739e-10
-1.32561e-09
2.10443e-09
-1.67548e-09
3.55552e-09
-1.69768e-09
4.89319e-09
-1.54406e-09
6.06786e-09
-1.32508e-09
7.09791e-09
-1.12902e-09
8.03127e-09
-9.94114e-10
8.91409e-09
-9.18552e-10
9.77495e-09
-8.80425e-10
1.06233e-08
-8.54179e-10
1.14553e-08
-8.21918e-10
1.22627e-08
-7.76695e-10
1.3039e-08
-7.20591e-10
1.37835e-08
-6.60283e-10
1.45009e-08
-6.04295e-10
1.52013e-08
-5.58072e-10
1.58941e-08
-5.23579e-10
1.65878e-08
-4.97327e-10
1.72852e-08
-4.73561e-10
1.79828e-08
-4.43069e-10
1.86705e-08
-3.96839e-10
1.93316e-08
-3.25779e-10
1.99441e-08
-2.22626e-10
2.0483e-08
-8.21764e-11
2.09179e-08
1.00957e-10
2.12178e-08
3.29591e-10
2.13461e-08
6.08871e-10
2.12659e-08
9.38749e-10
2.09344e-08
1.32615e-09
2.0314e-08
1.76048e-09
1.93588e-08
2.25141e-09
1.80423e-08
2.76509e-09
1.6335e-08
3.30369e-09
1.42509e-08
3.79118e-09
1.18241e-08
4.1967e-09
9.17867e-09
4.37099e-09
6.53345e-09
4.15596e-09
4.26899e-09
3.33095e-09
3.11069e-09
1.27656e-09
3.95467e-09
-2.1124e-09
9.02491e-09
-9.03919e-09
1.98228e-08
-1.83742e-08
4.38918e-08
-3.84953e-08
8.05682e-08
-5.9629e-08
1.59353e-07
-1.19848e-07
2.61374e-07
-1.52511e-07
-4.1281e-07
4.86392e-07
-5.52229e-10
1.43155e-09
-1.10051e-09
1.26878e-09
-4.93186e-10
-1.0277e-09
1.37785e-09
-3.19663e-09
3.93331e-09
-4.23082e-09
6.67393e-09
-4.43818e-09
9.31013e-09
-4.18004e-09
1.17114e-08
-3.72616e-09
1.38741e-08
-3.29148e-09
1.5864e-08
-2.9839e-09
1.77583e-08
-2.81261e-09
1.96114e-08
-2.73347e-09
2.14484e-08
-2.69103e-09
2.32723e-08
-2.64581e-09
2.50784e-08
-2.58258e-09
2.68638e-08
-2.50604e-09
2.86345e-08
-2.43075e-09
3.04048e-08
-2.37476e-09
3.21962e-08
-2.34935e-09
3.40301e-08
-2.35784e-09
3.5925e-08
-2.3924e-09
3.78911e-08
-2.43988e-09
3.9929e-08
-2.48135e-09
4.20299e-08
-2.49806e-09
4.41758e-08
-2.47201e-09
4.63414e-08
-2.38896e-09
4.84973e-08
-2.23847e-09
5.06072e-08
-2.00981e-09
5.26331e-08
-1.69701e-09
5.45293e-08
-1.28812e-09
5.62483e-08
-7.81125e-10
5.77332e-08
-1.59531e-10
5.8929e-08
5.63759e-10
5.97695e-08
1.40957e-09
6.02003e-08
2.33314e-09
6.01667e-08
3.33569e-09
5.96418e-08
4.31485e-09
5.86335e-08
5.20374e-09
5.72232e-08
5.77995e-09
5.5601e-08
5.77727e-09
5.4159e-08
4.77176e-09
5.36034e-08
1.83148e-09
5.49557e-08
-3.46592e-09
6.07785e-08
-1.48626e-08
7.22838e-08
-2.98808e-08
9.9862e-08
-6.60742e-08
1.39689e-07
-9.94579e-08
2.30748e-07
-2.10907e-07
3.62889e-07
-2.84653e-07
-6.56158e-07
6.06238e-07
-5.06104e-10
1.93781e-09
-1.28129e-09
2.04387e-09
-1.03432e-09
-1.27447e-09
7.98879e-10
-5.02981e-09
3.8424e-09
-7.27421e-09
7.47768e-09
-8.07333e-09
1.12178e-08
-7.91989e-09
1.47741e-08
-7.28232e-09
1.80468e-08
-6.56396e-09
2.10646e-08
-6.00154e-09
2.39074e-08
-5.65518e-09
2.66498e-08
-5.47584e-09
2.93393e-08
-5.38036e-09
3.19971e-08
-5.30355e-09
3.46321e-08
-5.21741e-09
3.72527e-08
-5.12662e-09
3.98753e-08
-5.05308e-09
4.2525e-08
-5.02471e-09
4.52347e-08
-5.05891e-09
4.80366e-08
-5.16011e-09
5.09588e-08
-5.31481e-09
5.40192e-08
-5.50049e-09
5.7224e-08
-5.68652e-09
6.0568e-08
-5.84238e-09
6.40354e-08
-5.93977e-09
6.76022e-08
-5.95651e-09
7.12397e-08
-5.87648e-09
7.49123e-08
-5.68333e-09
7.85826e-08
-5.368e-09
8.22049e-08
-4.91118e-09
8.57311e-08
-4.30828e-09
8.91029e-08
-3.53222e-09
9.22609e-08
-2.59514e-09
9.51347e-08
-1.46567e-09
9.76571e-08
-1.90382e-10
9.97656e-08
1.22556e-09
1.01408e-07
2.67063e-09
1.02579e-07
4.03184e-09
1.03328e-07
5.03011e-09
1.03811e-07
5.29288e-09
1.04401e-07
4.18041e-09
1.05771e-07
4.61006e-10
1.08876e-07
-6.57236e-09
1.16513e-07
-2.24999e-08
1.29423e-07
-4.27927e-08
1.59003e-07
-9.56542e-08
2.01758e-07
-1.42216e-07
2.93486e-07
-3.02636e-07
4.43621e-07
-4.34787e-07
-9.05181e-07
6.92646e-07
-4.32444e-10
2.37042e-09
-1.38235e-09
2.99368e-09
-1.73834e-09
-9.18271e-10
-5.97745e-10
-6.17039e-09
2.09746e-09
-9.96928e-09
5.8869e-09
-1.18626e-08
1.02122e-08
-1.2245e-08
1.4622e-08
-1.16919e-08
1.88533e-08
-1.0795e-08
2.2818e-08
-9.96606e-09
2.65357e-08
-9.37271e-09
3.00653e-08
-9.00534e-09
3.34641e-08
-8.77899e-09
3.67739e-08
-8.61333e-09
4.00261e-08
-8.4694e-09
4.32493e-08
-8.34979e-09
4.64771e-08
-8.28067e-09
4.97491e-08
-8.2969e-09
5.31096e-08
-8.41933e-09
5.66004e-08
-8.65124e-09
6.02568e-08
-8.97146e-09
6.41021e-08
-9.34602e-09
6.81463e-08
-9.73111e-09
7.23868e-08
-1.00832e-08
7.68099e-08
-1.03632e-08
8.13932e-08
-1.05406e-08
8.61099e-08
-1.05937e-08
9.09267e-08
-1.0501e-08
9.58088e-08
-1.02509e-08
1.00714e-07
-9.81762e-09
1.05599e-07
-9.19396e-09
1.1041e-07
-8.34404e-09
1.1509e-07
-7.27606e-09
1.19576e-07
-5.95271e-09
1.23798e-07
-4.41345e-09
1.27699e-07
-2.6778e-09
1.31222e-07
-8.53078e-10
1.34357e-07
8.95021e-10
1.37146e-07
2.23964e-09
1.39733e-07
2.70559e-09
1.42467e-07
1.44492e-09
1.46033e-07
-3.106e-09
1.51272e-07
-1.18127e-08
1.61117e-07
-3.23451e-08
1.76207e-07
-5.7884e-08
2.07375e-07
-1.26823e-07
2.54137e-07
-1.8898e-07
3.43076e-07
-3.91575e-07
5.03252e-07
-5.94963e-07
-1.1584e-06
7.56476e-07
-3.73812e-10
2.7444e-09
-1.38419e-09
4.00395e-09
-2.25809e-09
-4.41581e-11
-2.03267e-09
-6.3958e-09
-2.63736e-10
-1.17381e-08
2.92384e-09
-1.50501e-08
7.11338e-09
-1.64343e-08
1.18211e-08
-1.63995e-08
1.66513e-08
-1.5625e-08
2.13613e-08
-1.46759e-08
2.58467e-08
-1.38578e-08
3.00907e-08
-1.32493e-08
3.41198e-08
-1.28079e-08
3.79755e-08
-1.24689e-08
4.17052e-08
-1.2199e-08
4.53607e-08
-1.20053e-08
4.89989e-08
-1.19186e-08
5.26797e-08
-1.19779e-08
5.64634e-08
-1.22029e-08
6.04027e-08
-1.25909e-08
6.45399e-08
-1.31089e-08
6.89016e-08
-1.37079e-08
7.34986e-08
-1.43285e-08
7.83279e-08
-1.49128e-08
8.33745e-08
-1.54102e-08
8.86154e-08
-1.57822e-08
9.40231e-08
-1.60019e-08
9.95647e-08
-1.60435e-08
1.05206e-07
-1.58934e-08
1.10909e-07
-1.55213e-08
1.16631e-07
-1.49171e-08
1.22326e-07
-1.40398e-08
1.2794e-07
-1.28911e-08
1.3342e-07
-1.14343e-08
1.38701e-07
-9.69525e-09
1.43737e-07
-7.71522e-09
1.48473e-07
-5.59038e-09
1.52908e-07
-3.54117e-09
1.57086e-07
-1.94043e-09
1.61155e-07
-1.36431e-09
1.65449e-07
-2.8497e-09
1.70679e-07
-8.33698e-09
1.77627e-07
-1.8762e-08
1.89141e-07
-4.38593e-08
2.06361e-07
-7.51061e-08
2.38047e-07
-1.58509e-07
2.88939e-07
-2.39873e-07
3.75043e-07
-4.7768e-07
5.37043e-07
-7.56963e-07
-1.4137e-06
7.9234e-07
-3.51376e-10
3.09595e-09
-1.35196e-09
5.00443e-09
-2.51815e-09
1.12224e-09
-3.03856e-09
-5.87537e-09
-2.30372e-09
-1.24728e-08
-1.33983e-10
-1.72197e-08
3.31314e-09
-1.98811e-08
7.68187e-09
-2.0768e-08
1.25665e-08
-2.05094e-08
1.76241e-08
-1.97334e-08
2.26209e-08
-1.88544e-08
2.74269e-08
-1.80552e-08
3.19912e-08
-1.73721e-08
3.63154e-08
-1.6793e-08
4.04363e-08
-1.63197e-08
4.44145e-08
-1.59835e-08
4.83264e-08
-1.58303e-08
5.22546e-08
-1.59063e-08
5.62807e-08
-1.62289e-08
6.04744e-08
-1.6785e-08
6.48892e-08
-1.75239e-08
6.95566e-08
-1.83756e-08
7.4488e-08
-1.92603e-08
7.96771e-08
-2.01023e-08
8.51044e-08
-2.08379e-08
9.07415e-08
-2.14201e-08
9.65562e-08
-2.18172e-08
1.02512e-07
-2.20001e-08
1.08571e-07
-2.19536e-08
1.14694e-07
-2.16451e-08
1.20837e-07
-2.10613e-08
1.26957e-07
-2.01605e-08
1.33001e-07
-1.89355e-08
1.38922e-07
-1.73575e-08
1.44661e-07
-1.54357e-08
1.50183e-07
-1.32384e-08
1.55442e-07
-1.08511e-08
1.60445e-07
-8.54551e-09
1.65249e-07
-6.7456e-09
1.70007e-07
-6.12302e-09
1.75049e-07
-7.89284e-09
1.81087e-07
-1.43759e-08
1.88939e-07
-2.6615e-08
2.01136e-07
-5.60576e-08
2.19646e-07
-9.36168e-08
2.50867e-07
-1.89731e-07
3.03789e-07
-2.92797e-07
3.87466e-07
-5.61357e-07
5.44509e-07
-9.14005e-07
-1.6632e-06
7.94015e-07
-3.60168e-10
3.4563e-09
-1.34074e-09
5.98488e-09
-2.61317e-09
2.3949e-09
-3.56826e-09
-4.92026e-09
-3.62179e-09
-1.24191e-08
-2.44964e-09
-1.83917e-08
1.40198e-11
-2.23445e-08
3.6104e-09
-2.43642e-08
8.03853e-09
-2.49372e-08
1.29583e-08
-2.4653e-08
1.80688e-08
-2.39647e-08
2.31449e-08
-2.31312e-08
2.80448e-08
-2.22719e-08
3.27006e-08
-2.14488e-08
3.71061e-08
-2.0725e-08
4.13034e-08
-2.01807e-08
4.537e-08
-1.98966e-08
4.94029e-08
-1.99395e-08
5.3505e-08
-2.03309e-08
5.77679e-08
-2.10482e-08
6.22634e-08
-2.20197e-08
6.70357e-08
-2.31482e-08
7.21011e-08
-2.43261e-08
7.74522e-08
-2.54538e-08
8.30635e-08
-2.64496e-08
8.88981e-08
-2.72555e-08
9.49147e-08
-2.78342e-08
1.01068e-07
-2.81542e-08
1.07312e-07
-2.81987e-08
1.13601e-07
-2.79349e-08
1.19884e-07
-2.73455e-08
1.26115e-07
-2.63917e-08
1.32235e-07
-2.50569e-08
1.38201e-07
-2.33248e-08
1.43954e-07
-2.11901e-08
1.49463e-07
-1.87492e-08
1.54695e-07
-1.6085e-08
1.59661e-07
-1.35126e-08
1.64434e-07
-1.15199e-08
1.69169e-07
-1.08586e-08
1.74205e-07
-1.29305e-08
1.80219e-07
-2.03905e-08
1.8811e-07
-3.45072e-08
2.00013e-07
-6.79612e-08
2.18611e-07
-1.12215e-07
2.48375e-07
-2.19496e-07
3.00694e-07
-3.45117e-07
3.8114e-07
-6.41803e-07
5.2798e-07
-1.06084e-06
-1.89691e-06
7.61695e-07
-3.8214e-10
3.83862e-09
-1.36937e-09
6.972e-09
-2.66428e-09
3.69002e-09
-3.79445e-09
-3.79007e-09
-4.29029e-09
-1.19231e-08
-3.82324e-09
-1.88586e-08
-2.22046e-09
-2.39471e-08
5.16441e-10
-2.71009e-08
4.22667e-09
-2.86471e-08
8.64824e-09
-2.90744e-08
1.3491e-08
-2.88073e-08
1.84915e-08
-2.81316e-08
2.34448e-08
-2.72251e-08
2.82158e-08
-2.62197e-08
3.27403e-08
-2.52493e-08
3.70189e-08
-2.44593e-08
4.11073e-08
-2.39847e-08
4.50986e-08
-2.39311e-08
4.9107e-08
-2.43392e-08
5.32443e-08
-2.51859e-08
5.76061e-08
-2.63818e-08
6.22577e-08
-2.78e-08
6.72299e-08
-2.92988e-08
7.25217e-08
-3.0746e-08
7.81059e-08
-3.20342e-08
8.39381e-08
-3.30885e-08
8.99656e-08
-3.38624e-08
9.61315e-08
-3.4321e-08
1.02378e-07
-3.44459e-08
1.08647e-07
-3.42053e-08
1.14879e-07
-3.35776e-08
1.21014e-07
-3.25282e-08
1.26987e-07
-3.10313e-08
1.32746e-07
-2.90848e-08
1.38228e-07
-2.6674e-08
1.43399e-07
-2.3921e-08
1.48233e-07
-2.09207e-08
1.52738e-07
-1.8019e-08
1.57003e-07
-1.57869e-08
1.61181e-07
-1.50368e-08
1.65618e-07
-1.73692e-08
1.70947e-07
-2.57199e-08
1.78115e-07
-4.16767e-08
1.88914e-07
-7.87608e-08
2.06418e-07
-1.2972e-07
2.33769e-07
-2.46847e-07
2.8317e-07
-3.9452e-07
3.58454e-07
-7.17088e-07
4.90352e-07
-1.19274e-06
-2.10574e-06
6.99176e-07
-4.04891e-10
4.2437e-09
-1.42212e-09
7.9891e-09
-2.73091e-09
4.99903e-09
-3.90826e-09
-2.61271e-09
-4.5794e-09
-1.12519e-08
-4.48205e-09
-1.89558e-08
-3.43658e-09
-2.49923e-08
-1.3712e-09
-2.91661e-08
1.65391e-09
-3.1672e-08
5.46769e-09
-3.2888e-08
9.83575e-09
-3.31751e-08
1.45089e-08
-3.28047e-08
1.92636e-08
-3.19796e-08
2.39251e-08
-3.08811e-08
2.83807e-08
-2.97047e-08
3.25843e-08
-2.86629e-08
3.65548e-08
-2.7955e-08
4.03641e-08
-2.77406e-08
4.41219e-08
-2.80969e-08
4.7951e-08
-2.90153e-08
5.19683e-08
-3.03993e-08
5.62649e-08
-3.20969e-08
6.08955e-08
-3.39298e-08
6.58759e-08
-3.57268e-08
7.11865e-08
-3.73453e-08
7.67818e-08
-3.86845e-08
8.2601e-08
-3.96822e-08
8.85756e-08
-4.02965e-08
9.46344e-08
-4.05057e-08
1.00708e-07
-4.02793e-08
1.0672e-07
-3.95909e-08
1.12601e-07
-3.84102e-08
1.18271e-07
-3.67023e-08
1.23662e-07
-3.44771e-08
1.28703e-07
-3.17166e-08
1.33343e-07
-2.85631e-08
1.3756e-07
-2.51389e-08
1.4135e-07
-2.18099e-08
1.44807e-07
-1.92457e-08
1.4808e-07
-1.83104e-08
1.51504e-07
-2.07946e-08
1.55679e-07
-2.98959e-08
1.61534e-07
-4.75327e-08
1.70591e-07
-8.78184e-08
1.86024e-07
-1.45154e-07
2.10048e-07
-2.70871e-07
2.544e-07
-4.38873e-07
3.20596e-07
-7.83284e-07
4.3699e-07
-1.30913e-06
-2.2803e-06
6.11553e-07
-4.24798e-10
4.66868e-09
-1.48301e-09
9.04719e-09
-2.81938e-09
6.33561e-09
-4.00966e-09
-1.42242e-09
-4.72266e-09
-1.05387e-08
-4.75744e-09
-1.89209e-08
-3.97379e-09
-2.57757e-08
-2.2981e-09
-3.08416e-08
2.52817e-10
-3.42226e-08
3.56826e-09
-3.62033e-08
7.46785e-09
-3.70745e-08
1.17392e-08
-3.70759e-08
1.61719e-08
-3.64122e-08
2.05826e-08
-3.52917e-08
2.48323e-08
-3.39542e-08
2.88391e-08
-3.26697e-08
3.2585e-08
-3.17006e-08
3.61115e-08
-3.12674e-08
3.9511e-08
-3.14963e-08
4.29042e-08
-3.24089e-08
4.64205e-08
-3.3916e-08
5.01742e-08
-3.58508e-08
5.42473e-08
-3.80032e-08
5.86806e-08
-4.01605e-08
6.34725e-08
-4.21376e-08
6.85855e-08
-4.37984e-08
7.39584e-08
-4.50556e-08
7.95157e-08
-4.58548e-08
8.5176e-08
-4.61669e-08
9.08579e-08
-4.5962e-08
9.64745e-08
-4.52085e-08
1.01942e-07
-4.38788e-08
1.07168e-07
-4.19293e-08
1.12066e-07
-3.93765e-08
1.16553e-07
-3.62043e-08
1.20554e-07
-3.25662e-08
1.24038e-07
-2.86241e-08
1.26984e-07
-2.47574e-08
1.29475e-07
-2.17381e-08
1.31655e-07
-2.04914e-08
1.33821e-07
-2.29613e-08
1.36548e-07
-3.26237e-08
1.40689e-07
-5.16744e-08
1.47533e-07
-9.46636e-08
1.60155e-07
-1.57777e-07
1.79972e-07
-2.90688e-07
2.17662e-07
-4.76564e-07
2.73776e-07
-8.39397e-07
3.68908e-07
-1.40427e-06
-2.4161e-06
5.04717e-07
-4.42916e-10
5.11178e-09
-1.54441e-09
1.01486e-08
-2.92006e-09
7.71147e-09
-4.12667e-09
-2.15803e-10
-4.83995e-09
-9.82531e-09
-4.89267e-09
-1.88681e-08
-4.18238e-09
-2.64857e-08
-2.65832e-09
-3.23655e-08
-3.39708e-10
-3.65409e-08
2.68164e-09
-3.92245e-08
6.25683e-09
-4.06495e-08
1.0204e-08
-4.1023e-08
1.4335e-08
-4.05431e-08
1.8475e-08
-3.94316e-08
2.24788e-08
-3.79578e-08
2.62448e-08
-3.64357e-08
2.97275e-08
-3.5183e-08
3.29398e-08
-3.44799e-08
3.59505e-08
-3.4507e-08
3.88685e-08
-3.53272e-08
4.18244e-08
-3.68722e-08
4.49471e-08
-3.89737e-08
4.8342e-08
-4.13986e-08
5.20767e-08
-4.38956e-08
5.61734e-08
-4.62347e-08
6.06111e-08
-4.82369e-08
6.53363e-08
-4.97814e-08
7.02737e-08
-5.07932e-08
7.53371e-08
-5.12312e-08
8.0438e-08
-5.10637e-08
8.54822e-08
-5.02538e-08
9.03766e-08
-4.87742e-08
9.50194e-08
-4.65732e-08
9.93086e-08
-4.36672e-08
1.03147e-07
-4.00438e-08
1.06438e-07
-3.58592e-08
1.09131e-07
-3.13183e-08
1.11185e-07
-2.68133e-08
1.12654e-07
-2.32081e-08
1.13674e-07
-2.15117e-08
1.14479e-07
-2.37677e-08
1.15613e-07
-3.37582e-08
1.17821e-07
-5.38834e-08
1.22159e-07
-9.90017e-08
1.31463e-07
-1.67082e-07
1.46454e-07
-3.05679e-07
1.76356e-07
-5.06467e-07
2.20494e-07
-8.83534e-07
2.9208e-07
-1.47585e-06
-2.50983e-06
3.85809e-07
-4.60848e-10
5.57282e-09
-1.6054e-09
1.1293e-08
-3.02503e-09
9.13131e-09
-4.25656e-09
1.01573e-09
-4.96753e-09
-9.11421e-09
-5.00177e-09
-1.88337e-08
-4.27792e-09
-2.72093e-08
-2.76753e-09
-3.38757e-08
-5.05956e-10
-3.88022e-08
2.40938e-09
-4.21396e-08
5.83566e-09
-4.40755e-08
9.60449e-09
-4.47917e-08
1.35427e-08
-4.44812e-08
1.7486e-08
-4.33749e-08
2.1292e-08
-4.17636e-08
2.48522e-08
-3.99958e-08
2.81052e-08
-3.84358e-08
3.10426e-08
-3.74174e-08
3.37115e-08
-3.71759e-08
3.62041e-08
-3.78201e-08
3.86441e-08
-3.93125e-08
4.11646e-08
-4.14945e-08
4.38857e-08
-4.41202e-08
4.68968e-08
-4.6907e-08
5.02431e-08
-4.95815e-08
5.39234e-08
-5.19181e-08
5.78973e-08
-5.3756e-08
6.20958e-08
-5.49926e-08
6.64337e-08
-5.557e-08
7.08206e-08
-5.54514e-08
7.51601e-08
-5.45943e-08
7.93549e-08
-5.29701e-08
8.33002e-08
-5.05196e-08
8.68845e-08
-4.7253e-08
9.00003e-08
-4.31609e-08
9.25336e-08
-3.83941e-08
9.44104e-08
-3.31966e-08
9.55712e-08
-2.79753e-08
9.6027e-08
-2.36652e-08
9.58988e-08
-2.13843e-08
9.53504e-08
-2.32204e-08
9.48683e-08
-3.32766e-08
9.50823e-08
-5.40984e-08
9.67934e-08
-1.00713e-07
1.02519e-07
-1.72809e-07
1.12341e-07
-3.15501e-07
1.33759e-07
-5.27886e-07
1.64723e-07
-9.14497e-07
2.11794e-07
-1.52292e-06
-2.56068e-06
2.62653e-07
-4.79324e-10
6.05233e-09
-1.6671e-09
1.24806e-08
-3.13194e-09
1.05964e-08
-4.39275e-09
2.27654e-09
-5.10637e-09
-8.40047e-09
-5.11749e-09
-1.88224e-08
-4.35298e-09
-2.79736e-08
-2.79656e-09
-3.54319e-08
-4.9823e-10
-4.11002e-08
2.43218e-09
-4.50699e-08
5.84489e-09
-4.74881e-08
9.57094e-09
-4.85177e-08
1.34407e-08
-4.83508e-08
1.72951e-08
-4.72292e-08
2.0995e-08
-4.54633e-08
2.44302e-08
-4.3431e-08
2.75318e-08
-4.15371e-08
3.02783e-08
-4.01642e-08
3.27015e-08
-3.95991e-08
3.48774e-08
-3.99964e-08
3.69196e-08
-4.13549e-08
3.89572e-08
-4.35324e-08
4.11151e-08
-4.62785e-08
4.34965e-08
-4.92888e-08
4.61641e-08
-5.22496e-08
4.91337e-08
-5.48885e-08
5.23785e-08
-5.70014e-08
5.58384e-08
-5.84535e-08
5.94328e-08
-5.91654e-08
6.30729e-08
-5.90923e-08
6.66641e-08
-5.81865e-08
7.01099e-08
-5.64169e-08
7.33072e-08
-5.3718e-08
7.61423e-08
-5.00895e-08
7.8503e-08
-4.5523e-08
8.02645e-08
-4.01572e-08
8.13323e-08
-3.4266e-08
8.16299e-08
-2.82741e-08
8.1125e-08
-2.31616e-08
7.99138e-08
-2.01739e-08
7.80901e-08
-2.13977e-08
7.60588e-08
-3.12458e-08
7.43367e-08
-5.23771e-08
7.34541e-08
-9.98302e-08
7.55525e-08
-1.74908e-07
8.0139e-08
-3.20087e-07
9.28393e-08
-5.40586e-07
1.10213e-07
-9.31869e-07
1.33012e-07
-1.54572e-06
-2.57019e-06
1.42526e-07
-4.98434e-10
6.55094e-09
-1.73124e-09
1.37133e-08
-3.24108e-09
1.21064e-08
-4.53234e-09
3.56779e-09
-5.25136e-09
-7.68133e-09
-5.24112e-09
-1.88326e-08
-4.43136e-09
-2.87831e-08
-2.81062e-09
-3.70525e-08
-4.37631e-10
-4.34729e-08
2.56702e-09
-4.80744e-08
6.04396e-09
-5.09648e-08
9.81741e-09
-5.22911e-08
1.37141e-08
-5.22473e-08
1.75737e-08
-5.10888e-08
2.12569e-08
-4.91463e-08
2.46527e-08
-4.68268e-08
2.76891e-08
-4.45733e-08
3.03385e-08
-4.28138e-08
3.26222e-08
-4.18827e-08
3.46064e-08
-4.19809e-08
3.63916e-08
-4.31404e-08
3.81015e-08
-4.52426e-08
3.98634e-08
-4.80409e-08
4.17827e-08
-5.12086e-08
4.39314e-08
-5.43988e-08
4.63356e-08
-5.72936e-08
4.89796e-08
-5.96461e-08
5.18116e-08
-6.12864e-08
5.47548e-08
-6.21095e-08
5.77233e-08
-6.20616e-08
6.06261e-08
-6.10904e-08
6.33699e-08
-5.91617e-08
6.58565e-08
-5.62057e-08
6.79744e-08
-5.2209e-08
6.96117e-08
-4.71616e-08
7.06393e-08
-4.11864e-08
7.09475e-08
-3.45755e-08
7.04462e-08
-2.7774e-08
6.90651e-08
-2.17818e-08
6.68686e-08
-1.79782e-08
6.38893e-08
-1.84193e-08
6.0431e-08
-2.77879e-08
5.69058e-08
-4.88527e-08
5.35677e-08
-9.6492e-08
5.21535e-08
-1.73494e-07
5.16508e-08
-3.19583e-07
5.57983e-08
-5.44734e-07
5.98649e-08
-9.35934e-07
5.95111e-08
-1.54536e-06
-2.5412e-06
3.05266e-08
-5.18099e-10
7.06922e-09
-1.79756e-09
1.49926e-08
-3.35304e-09
1.3662e-08
-4.67498e-09
4.88972e-09
-5.3999e-09
-6.9563e-09
-5.36879e-09
-1.88636e-08
-4.5134e-09
-2.96382e-08
-2.82422e-09
-3.87415e-08
-3.64676e-10
-4.59322e-08
2.73708e-09
-5.1176e-08
6.31347e-09
-5.4541e-08
1.01812e-08
-5.61587e-08
1.41605e-08
-5.62265e-08
1.80865e-08
-5.50147e-08
2.18168e-08
-5.28763e-08
2.52386e-08
-5.02486e-08
2.82785e-08
-4.76129e-08
3.0906e-08
-4.54416e-08
3.31389e-08
-4.41155e-08
3.50358e-08
-4.38782e-08
3.66932e-08
-4.47981e-08
3.82273e-08
-4.67769e-08
3.97584e-08
-4.95725e-08
4.13944e-08
-5.2845e-08
4.32094e-08
-5.62142e-08
4.52371e-08
-5.93221e-08
4.74641e-08
-6.18738e-08
4.98401e-08
-6.36633e-08
5.22946e-08
-6.4565e-08
5.47437e-08
-6.45116e-08
5.70991e-08
-6.34468e-08
5.927e-08
-6.13337e-08
6.11631e-08
-5.80999e-08
6.26709e-08
-5.37182e-08
6.36832e-08
-4.81752e-08
6.40713e-08
-4.15761e-08
6.37147e-08
-3.42203e-08
6.25133e-08
-2.65738e-08
6.03667e-08
-1.96363e-08
5.7303e-08
-1.49153e-08
5.3306e-08
-1.44232e-08
4.85674e-08
-2.30496e-08
4.34027e-08
-4.36885e-08
3.77991e-08
-9.08881e-08
3.30759e-08
-1.68771e-07
2.77453e-08
-3.14252e-07
2.37944e-08
-5.40783e-07
1.52048e-08
-9.27343e-07
-6.57951e-09
-1.52358e-06
-2.47845e-06
-6.93285e-08
-5.38266e-10
7.60767e-09
-1.86578e-09
1.63199e-08
-3.46803e-09
1.52645e-08
-4.82095e-09
6.24262e-09
-5.55154e-09
-6.2256e-09
-5.49852e-09
-1.89165e-08
-4.59627e-09
-3.05402e-08
-2.83684e-09
-4.05007e-08
-2.8676e-10
-4.8482e-08
2.9201e-09
-5.43827e-08
6.60958e-09
-5.82302e-08
1.05917e-08
-6.01407e-08
1.46803e-08
-6.0315e-08
1.87047e-08
-5.9039e-08
2.25181e-08
-5.66896e-08
2.60054e-08
-5.37358e-08
2.90918e-08
-5.06992e-08
3.17468e-08
-4.80967e-08
3.39869e-08
-4.63556e-08
3.58697e-08
-4.57612e-08
3.74876e-08
-4.64163e-08
3.89542e-08
-4.82438e-08
4.03871e-08
-5.10058e-08
4.18909e-08
-5.43492e-08
4.35392e-08
-5.78631e-08
4.53633e-08
-6.11471e-08
4.73529e-08
-6.38641e-08
4.94603e-08
-6.57716e-08
5.16119e-08
-6.67176e-08
5.37239e-08
-6.66244e-08
5.57088e-08
-6.54327e-08
5.74776e-08
-6.31035e-08
5.89395e-08
-5.95629e-08
5.999e-08
-5.47702e-08
6.05205e-08
-4.87071e-08
6.04036e-08
-4.14607e-08
5.95105e-08
-3.33285e-08
5.77325e-08
-2.4797e-08
5.49463e-08
-1.68512e-08
5.11411e-08
-1.11108e-08
4.62644e-08
-9.54734e-09
4.0392e-08
-1.71774e-08
3.37454e-08
-3.70424e-08
2.60657e-08
-8.3208e-08
1.825e-08
-1.60955e-07
8.38592e-09
-3.04387e-07
-3.12985e-09
-5.29266e-07
-2.35509e-08
-9.0692e-07
-6.45876e-08
-1.48254e-06
-2.38616e-06
-1.56869e-07
-5.58921e-10
8.16676e-09
-1.93582e-09
1.76967e-08
-3.58607e-09
1.69149e-08
-4.97038e-09
7.62691e-09
-5.70644e-09
-5.48946e-09
-5.62996e-09
-1.89929e-08
-4.67868e-09
-3.14913e-08
-2.84659e-09
-4.23326e-08
-2.0299e-10
-5.11253e-08
3.11308e-09
-5.76986e-08
6.92156e-09
-6.20385e-08
1.10266e-08
-6.42457e-08
1.52359e-08
-6.45243e-08
1.93731e-08
-6.31762e-08
2.32869e-08
-6.06032e-08
2.68593e-08
-5.73082e-08
3.00149e-08
-5.38545e-08
3.27235e-08
-5.08055e-08
3.50032e-08
-4.86353e-08
3.69128e-08
-4.76711e-08
3.8545e-08
-4.80488e-08
4.00129e-08
-4.97119e-08
4.1433e-08
-5.24264e-08
4.29078e-08
-5.58244e-08
4.45086e-08
-5.94645e-08
4.62647e-08
-6.2904e-08
4.81627e-08
-6.57629e-08
5.01526e-08
-6.77624e-08
5.21599e-08
-6.87259e-08
5.40989e-08
-6.85642e-08
5.58809e-08
-6.72157e-08
5.74157e-08
-6.46394e-08
5.8613e-08
-6.07613e-08
5.93689e-08
-5.55275e-08
5.95733e-08
-4.89128e-08
5.90983e-08
-4.09872e-08
5.78074e-08
-3.20389e-08
5.55827e-08
-2.25733e-08
5.22822e-08
-1.35517e-08
4.78569e-08
-6.68616e-09
4.22177e-08
-3.90884e-09
3.53287e-08
-1.02885e-08
2.73272e-08
-2.90413e-08
1.77239e-08
-7.36041e-08
6.99345e-09
-1.50225e-07
-7.16717e-09
-2.90225e-07
-2.57873e-08
-5.10645e-07
-5.7256e-08
-8.75449e-07
-1.15491e-07
-1.4243e-06
-2.26838e-06
-2.33264e-07
-5.80067e-10
8.74699e-09
-2.00762e-09
1.9124e-08
-3.70711e-09
1.86145e-08
-5.1233e-09
9.04306e-09
-5.86473e-09
-4.74794e-09
-5.76323e-09
-1.90943e-08
-4.76036e-09
-3.2494e-08
-2.85268e-09
-4.42402e-08
-1.12181e-10
-5.38655e-08
3.31691e-09
-6.11276e-08
7.24861e-09
-6.597e-08
1.14813e-08
-6.84783e-08
1.5817e-08
-6.88598e-08
2.00737e-08
-6.74328e-08
2.40956e-08
-6.46249e-08
2.77621e-08
-6.09746e-08
3.09969e-08
-5.70891e-08
3.37714e-08
-5.35802e-08
3.61058e-08
-5.09698e-08
3.8062e-08
-4.96276e-08
3.97355e-08
-4.97226e-08
4.12412e-08
-5.1218e-08
4.26965e-08
-5.38822e-08
4.42029e-08
-5.73313e-08
4.58298e-08
-6.10919e-08
4.76033e-08
-6.46783e-08
4.95066e-08
-6.76669e-08
5.14861e-08
-6.97428e-08
5.34647e-08
-7.07055e-08
5.5354e-08
-7.04542e-08
5.70631e-08
-6.89259e-08
5.84998e-08
-6.60771e-08
5.95714e-08
-6.18339e-08
6.01719e-08
-5.61293e-08
6.01871e-08
-4.89294e-08
5.94857e-08
-4.02871e-08
5.79224e-08
-3.04769e-08
5.53665e-08
-2.00185e-08
5.16613e-08
-9.84753e-09
4.67133e-08
-1.73869e-09
4.04104e-08
2.39342e-09
3.26063e-08
-2.48437e-09
2.33321e-08
-1.97673e-08
1.1897e-08
-6.21681e-08
-1.6394e-09
-1.36688e-07
-1.99514e-08
-2.71911e-07
-4.53155e-08
-4.8528e-07
-8.71245e-08
-8.33637e-07
-1.6094e-07
-1.35048e-06
-2.12854e-06
-3.00779e-07
-6.01702e-10
9.34885e-09
-2.08116e-09
2.06033e-08
-3.83112e-09
2.03646e-08
-5.27967e-09
1.04916e-08
-6.02649e-09
-4.00105e-09
-5.89845e-09
-1.92222e-08
-4.84138e-09
-3.35508e-08
-2.85497e-09
-4.62264e-08
-1.39045e-11
-5.67063e-08
3.53229e-09
-6.46737e-08
7.59143e-09
-7.0029e-08
1.1956e-08
-7.28427e-08
1.64221e-08
-7.33259e-08
2.08024e-08
-7.1813e-08
2.49366e-08
-6.87589e-08
2.87014e-08
-6.47394e-08
3.20202e-08
-6.04077e-08
3.48657e-08
-5.64258e-08
3.72613e-08
-5.33653e-08
3.92727e-08
-5.16392e-08
4.09995e-08
-5.14498e-08
4.25604e-08
-5.27791e-08
4.40746e-08
-5.53969e-08
4.56442e-08
-5.89014e-08
4.73368e-08
-6.2785e-08
4.91759e-08
-6.65182e-08
5.1141e-08
-6.96328e-08
5.31748e-08
-7.17775e-08
5.5197e-08
-7.27287e-08
5.71163e-08
-7.23744e-08
5.88396e-08
-7.06502e-08
6.02718e-08
-6.75103e-08
6.13162e-08
-6.28795e-08
6.1863e-08
-5.66775e-08
6.17915e-08
-4.88592e-08
6.09638e-08
-3.94608e-08
5.92243e-08
-2.87385e-08
5.64264e-08
-1.72216e-08
5.23978e-08
-5.81981e-09
4.70011e-08
3.65752e-09
4.00918e-08
9.30223e-09
3.14212e-08
6.18633e-09
2.0913e-08
-9.25902e-09
7.68397e-09
-4.89382e-08
-8.61733e-09
-1.20386e-07
-3.10348e-08
-2.49492e-07
-6.29174e-08
-4.53396e-07
-1.14559e-07
-7.81992e-07
-2.02703e-07
-1.26233e-06
-1.96956e-06
-3.61672e-07
-6.23828e-10
9.97283e-09
-2.1564e-09
2.21357e-08
-3.95806e-09
2.21664e-08
-5.43948e-09
1.19729e-08
-6.19177e-09
-3.24871e-09
-6.03571e-09
-1.93782e-08
-4.9218e-09
-3.46645e-08
-2.85346e-09
-4.82946e-08
9.19211e-11
-5.96515e-08
3.75947e-09
-6.83411e-08
7.95046e-09
-7.42198e-08
1.24511e-08
-7.73433e-08
1.70517e-08
-7.79264e-08
2.15591e-08
-7.63203e-08
2.58087e-08
-7.30084e-08
2.96747e-08
-6.86053e-08
3.30801e-08
-6.38129e-08
3.59993e-08
-5.93452e-08
3.8459e-08
-5.5825e-08
4.05294e-08
-5.37099e-08
4.23152e-08
-5.32359e-08
4.39391e-08
-5.44033e-08
4.55237e-08
-5.6982e-08
4.7172e-08
-6.05502e-08
4.89505e-08
-6.45642e-08
5.08802e-08
-6.84487e-08
5.2937e-08
-7.16904e-08
5.50602e-08
-7.39016e-08
5.71665e-08
-7.48359e-08
5.91621e-08
-7.43708e-08
6.09513e-08
-7.24403e-08
6.24359e-08
-6.89959e-08
6.35149e-08
-6.39596e-08
6.40732e-08
-5.72371e-08
6.39821e-08
-4.87692e-08
6.30945e-08
-3.85745e-08
6.12428e-08
-2.6888e-08
5.8262e-08
-1.42417e-08
5.39622e-08
-1.52084e-09
4.81606e-08
9.45874e-09
4.06767e-08
1.67857e-08
3.11629e-08
1.57004e-08
1.94208e-08
2.48325e-09
4.38683e-09
-3.39031e-08
-1.46963e-08
-1.01302e-07
-4.124e-08
-2.22946e-07
-7.95231e-08
-4.15111e-07
-1.40624e-07
-7.20888e-07
-2.42071e-07
-1.16088e-06
-1.7936e-06
-4.18035e-07
-6.46441e-10
1.06194e-08
-2.23329e-09
2.37223e-08
-4.08788e-09
2.40211e-08
-5.60269e-09
1.34876e-08
-6.36045e-09
-2.49092e-09
-6.17506e-09
-1.95636e-08
-5.00169e-09
-3.58377e-08
-2.84817e-09
-5.0448e-08
2.05296e-10
-6.27047e-08
3.9985e-09
-7.21342e-08
8.32585e-09
-7.85469e-08
1.2967e-08
-8.19844e-08
1.7706e-08
-8.26652e-08
2.23441e-08
-8.09583e-08
2.67122e-08
-7.73763e-08
3.06819e-08
-7.2575e-08
3.4176e-08
-6.73067e-08
3.71708e-08
-6.23401e-08
3.96966e-08
-5.83508e-08
4.18284e-08
-5.5842e-08
4.36762e-08
-5.5084e-08
4.53676e-08
-5.60951e-08
4.70288e-08
-5.86437e-08
4.87642e-08
-6.2286e-08
5.06395e-08
-6.64401e-08
5.26732e-08
-7.04831e-08
5.48378e-08
-7.38557e-08
5.70693e-08
-7.61339e-08
5.92816e-08
-7.70492e-08
6.13787e-08
-7.64687e-08
6.32625e-08
-7.43251e-08
6.48319e-08
-7.05663e-08
6.59811e-08
-6.51099e-08
6.65891e-08
-5.78464e-08
6.65178e-08
-4.86992e-08
6.56099e-08
-3.76679e-08
6.36841e-08
-2.49632e-08
6.05544e-08
-1.1113e-08
5.60117e-08
3.02125e-09
4.98262e-08
1.56438e-08
4.17756e-08
2.48361e-08
3.14168e-08
2.60595e-08
1.84171e-08
1.54833e-08
1.53825e-09
-1.70229e-08
-2.03744e-08
-7.9388e-08
-5.10972e-08
-1.92221e-07
-9.57047e-08
-3.70502e-07
-1.65948e-07
-6.50641e-07
-2.79825e-07
-1.047e-06
-1.60249e-06
-4.70924e-07
-6.69543e-10
1.12891e-08
-2.31181e-09
2.53643e-08
-4.22053e-09
2.59299e-08
-5.76929e-09
1.50363e-08
-6.53225e-09
-1.72794e-09
-6.31659e-09
-1.97792e-08
-5.08117e-09
-3.7073e-08
-2.83911e-09
-5.26899e-08
3.26212e-10
-6.58698e-08
4.24938e-09
-7.60573e-08
8.71767e-09
-8.30151e-08
1.35038e-08
-8.67704e-08
1.83853e-08
-8.75467e-08
2.31578e-08
-8.57307e-08
2.76475e-08
-8.18658e-08
3.17236e-08
-7.6651e-08
3.53086e-08
-7.08915e-08
3.83809e-08
-6.54125e-08
4.09745e-08
-6.09445e-08
4.31698e-08
-5.80375e-08
4.50821e-08
-5.69966e-08
4.68446e-08
-5.78578e-08
4.85869e-08
-6.03865e-08
5.04152e-08
-6.41149e-08
5.23945e-08
-6.84201e-08
5.45407e-08
-7.26301e-08
5.6823e-08
-7.61388e-08
5.91741e-08
-7.84858e-08
6.15055e-08
-7.93815e-08
6.37189e-08
-7.86829e-08
6.57141e-08
-7.63213e-08
6.73872e-08
-7.22403e-08
6.86273e-08
-6.6351e-08
6.93069e-08
-5.85272e-08
6.92783e-08
-4.86717e-08
6.83723e-08
-3.6763e-08
6.6393e-08
-2.29849e-08
6.31323e-08
-7.85308e-09
5.83585e-08
7.79442e-09
5.17956e-08
2.22065e-08
4.31717e-08
3.34599e-08
3.1952e-08
3.72797e-08
1.76593e-08
2.97765e-08
-1.11692e-09
1.75479e-09
-2.5914e-08
-5.45895e-08
-6.08654e-08
-1.57267e-07
-1.11721e-07
-3.19644e-07
-1.90775e-07
-5.71583e-07
-3.16243e-07
-9.2153e-07
-1.398e-06
-5.20731e-07
-6.93134e-10
1.19823e-08
-2.39191e-09
2.70628e-08
-4.35593e-09
2.78939e-08
-5.93924e-09
1.66195e-08
-6.70733e-09
-9.59865e-10
-6.46034e-09
-2.00262e-08
-5.16029e-09
-3.83729e-08
-2.82631e-09
-5.50238e-08
4.54653e-10
-6.91505e-08
4.51209e-09
-8.01146e-08
9.12593e-09
-8.76287e-08
1.40615e-08
-9.17059e-08
1.90899e-08
-9.2575e-08
2.40005e-08
-9.06412e-08
2.8615e-08
-8.64802e-08
3.28003e-08
-8.08361e-08
3.64784e-08
-7.45695e-08
3.96302e-08
-6.85644e-08
4.22937e-08
-6.3608e-08
4.45545e-08
-6.02986e-08
4.6534e-08
-5.89765e-08
4.83707e-08
-5.96948e-08
5.01984e-08
-6.22148e-08
5.21248e-08
-6.60418e-08
5.42142e-08
-7.05101e-08
5.64799e-08
-7.48965e-08
5.88877e-08
-7.85474e-08
6.13671e-08
-8.09661e-08
6.38271e-08