/*--------------------------------*- C++ -*----------------------------------*\
  =========                 |
  \\      /  F ield         | OpenFOAM: The Open Source CFD Toolbox
   \\    /   O peration     | Website:  https://openfoam.org
    \\  /    A nd           | Version:  7
     \\/     M anipulation  |
\*---------------------------------------------------------------------------*/
FoamFile
{
    version     2.0;
    format      ascii;
    class       volScalarField;
    location    "0.4";
    object      nut;
}
// * * * * * * * * * * * * * * * * * * * * * * * * * * * * * * * * * * * * * //

dimensions      [0 2 -1 0 0 0 0];

internalField   nonuniform List<scalar> 
70000
(
9.96257e-12
6.87897e-14
2.56925e-16
8.65808e-17
4.75849e-17
7.83017e-17
2.74566e-17
1.28076e-17
8.6662e-18
6.3117e-18
4.61317e-18
3.42916e-18
2.60735e-18
2.02285e-18
1.59599e-18
1.27721e-18
1.03452e-18
8.46806e-19
6.99371e-19
5.82141e-19
4.87761e-19
4.11003e-19
3.47891e-19
2.956e-19
2.51748e-19
2.14874e-19
1.83308e-19
1.56531e-19
1.33014e-19
1.13155e-19
9.50209e-20
8.01623e-20
6.57407e-20
5.46194e-20
4.31113e-20
3.45556e-20
2.62975e-20
1.84688e-20
1.55283e-20
5.6217e-21
1.26561e-20
1.96161e-24
3.86827e-20
6.70617e-20
5.7896e-19
3.63968e-18
1.40649e-17
7.04458e-17
8.59523e-15
5.0183e-14
1.04273e-10
5.98824e-12
6.4461e-14
2.14255e-14
2.89111e-16
1.69635e-17
2.51824e-17
2.11368e-17
1.22724e-17
7.29706e-18
4.77814e-18
3.32789e-18
2.40647e-18
1.7901e-18
1.36348e-18
1.05969e-18
8.37997e-19
6.72511e-19
5.46687e-19
4.49321e-19
3.72894e-19
3.12066e-19
2.63131e-19
2.23244e-19
1.90562e-19
1.63303e-19
1.40718e-19
1.21354e-19
1.0537e-19
9.10288e-20
7.96148e-20
6.84789e-20
6.04001e-20
5.14252e-20
4.56113e-20
3.87258e-20
3.31705e-20
3.06203e-20
2.04235e-20
3.12013e-20
6.6095e-21
6.88856e-20
1.94038e-20
5.37117e-19
1.84826e-18
9.62714e-18
6.02498e-17
1.91791e-16
3.80853e-14
5.58119e-14
3.19143e-10
3.39944e-12
1.91108e-13
1.99268e-14
7.71485e-16
5.9267e-17
7.50629e-18
4.30472e-18
2.20647e-18
1.10589e-18
6.18903e-19
3.82722e-19
2.51886e-19
1.72937e-19
1.22847e-19
8.9895e-20
6.75498e-20
5.19513e-20
4.08089e-20
3.26663e-20
2.6618e-20
2.20546e-20
1.85843e-20
1.59137e-20
1.38794e-20
1.2303e-20
1.11533e-20
1.02731e-20
9.75565e-21
9.38181e-21
9.43141e-21
9.52174e-21
1.02279e-20
1.09375e-20
1.25146e-20
1.44856e-20
1.70919e-20
2.26503e-20
2.54838e-20
4.41054e-20
4.50892e-20
1.32103e-19
1.98028e-19
9.81487e-19
3.70831e-18
1.59536e-17
1.0211e-16
2.79174e-16
5.61751e-14
1.97178e-13
6.15327e-09
1.92872e-11
7.85298e-13
6.12219e-14
5.51887e-15
9.37877e-16
1.12905e-16
3.05059e-17
1.29093e-17
5.81892e-18
2.7763e-18
1.46163e-18
8.42236e-19
5.19071e-19
3.36982e-19
2.28617e-19
1.61271e-19
1.17831e-19
8.88954e-20
6.90926e-20
5.52499e-20
4.54292e-20
3.84159e-20
3.343e-20
2.99665e-20
2.76948e-20
2.64132e-20
2.60139e-20
2.64557e-20
2.78107e-20
3.01373e-20
3.37968e-20
3.88499e-20
4.64061e-20
5.6087e-20
7.13687e-20
8.94652e-20
1.22183e-19
1.56272e-19
2.35782e-19
3.08954e-19
5.66133e-19
8.95045e-19
2.3934e-18
6.99131e-18
2.28154e-17
1.42378e-16
2.17671e-16
5.56838e-14
2.59411e-13
2.31989e-09
2.23489e-10
4.46374e-12
3.22563e-13
2.31743e-14
4.4491e-15
7.35435e-16
2.08797e-16
8.62835e-17
3.88523e-17
1.85109e-17
9.61689e-18
5.43499e-18
3.28327e-18
2.09167e-18
1.39412e-18
9.66985e-19
6.95101e-19
5.16105e-19
3.94828e-19
3.10727e-19
2.51372e-19
2.09029e-19
1.78761e-19
1.57356e-19
1.42711e-19
1.33467e-19
1.2885e-19
1.2839e-19
1.32273e-19
1.40479e-19
1.54568e-19
1.74395e-19
2.04873e-19
2.43678e-19
3.05884e-19
3.78603e-19
5.11219e-19
6.47316e-19
9.6103e-19
1.2353e-18
2.13332e-18
3.04872e-18
6.68838e-18
1.59544e-17
3.6817e-17
2.26307e-16
2.00033e-16
5.53245e-14
2.35398e-13
3.00644e-09
5.2851e-09
4.36992e-11
1.95121e-12
1.08731e-13
1.81931e-14
3.30325e-15
9.71837e-16
3.99617e-16
1.80711e-16
8.6564e-17
4.48792e-17
2.51561e-17
1.50287e-17
9.4567e-18
6.22188e-18
4.25868e-18
3.02033e-18
2.21228e-18
1.66933e-18
1.29552e-18
1.03317e-18
8.4656e-19
7.12961e-19
6.17638e-19
5.50875e-19
5.06332e-19
4.80089e-19
4.69685e-19
4.74889e-19
4.95123e-19
5.34711e-19
5.92877e-19
6.84357e-19
8.01624e-19
9.90565e-19
1.21085e-18
1.6127e-18
2.02198e-18
2.95888e-18
3.76234e-18
6.28683e-18
8.65771e-18
1.69698e-17
3.60648e-17
6.49154e-17
3.9502e-16
3.02122e-16
5.53792e-14
2.09875e-13
1.07674e-09
4.76781e-09
3.72246e-09
1.85803e-11
6.7614e-13
9.27446e-14
1.54593e-14
4.24576e-15
1.6536e-15
7.27821e-16
3.43887e-16
1.76292e-16
9.76856e-17
5.76774e-17
3.58645e-17
2.33135e-17
1.57628e-17
1.10408e-17
7.98533e-18
5.94867e-18
4.5567e-18
3.58569e-18
2.89788e-18
2.40602e-18
2.05365e-18
1.80355e-18
1.63124e-18
1.52104e-18
1.46271e-18
1.45302e-18
1.48839e-18
1.57875e-18
1.72069e-18
1.9515e-18
2.25076e-18
2.73483e-18
3.30136e-18
4.32522e-18
5.37843e-18
7.722e-18
9.79123e-18
1.58132e-17
2.16535e-17
3.89997e-17
7.86635e-17
1.21977e-16
7.05908e-16
6.37955e-16
5.519e-14
1.89615e-13
2.4295e-09
3.87241e-09
8.24542e-10
2.43832e-09
8.69464e-12
7.22326e-13
9.22707e-14
2.12114e-14
7.34161e-15
2.9944e-15
1.3434e-15
6.62775e-16
3.56443e-16
2.05442e-16
1.25183e-16
7.99443e-17
5.31902e-17
3.67021e-17
2.61692e-17
1.92274e-17
1.45299e-17
1.12804e-17
8.99363e-18
7.36462e-18
6.19759e-18
5.36376e-18
4.77848e-18
4.38635e-18
4.15077e-18
4.05531e-18
4.08527e-18
4.2594e-18
4.56625e-18
5.08978e-18
5.78142e-18
6.90443e-18
8.23079e-18
1.05919e-17
1.3069e-17
1.8362e-17
2.32815e-17
3.63084e-17
4.99816e-17
8.41056e-17
1.65145e-16
2.37755e-16
1.25134e-15
1.45029e-15
5.6098e-14
1.72295e-13
3.37125e-09
4.37327e-09
5.92778e-10
3.00582e-10
5.50536e-10
1.88652e-11
9.78701e-13
1.49717e-13
4.12175e-14
1.45287e-14
5.87907e-15
2.68475e-15
1.36054e-15
7.48377e-16
4.39178e-16
2.71883e-16
1.76192e-16
1.18826e-16
8.30205e-17
5.98829e-17
4.44855e-17
3.39838e-17
2.66777e-17
2.15173e-17
1.78384e-17
1.52085e-17
1.33454e-17
1.2063e-17
1.12383e-17
1.08056e-17
1.07125e-17
1.09862e-17
1.15918e-17
1.27051e-17
1.42177e-17
1.66901e-17
1.96477e-17
2.48236e-17
3.03845e-17
4.17429e-17
5.29199e-17
7.97923e-17
1.10547e-16
1.76356e-16
3.39017e-16
4.78084e-16
2.22841e-15
3.15584e-15
5.89054e-14
1.60799e-13
3.41295e-09
4.61051e-09
6.74662e-10
1.94099e-10
4.73852e-11
6.75315e-11
3.24676e-10
2.92211e-12
4.08082e-13
1.03007e-13
3.38453e-14
1.33638e-14
6.08301e-15
3.08184e-15
1.69477e-15
9.95403e-16
6.17594e-16
4.01513e-16
2.71834e-16
1.90757e-16
1.38287e-16
1.03333e-16
7.94863e-17
6.2906e-17
5.12207e-17
4.29203e-17
3.70342e-17
3.29257e-17
3.01768e-17
2.85432e-17
2.78431e-17
2.80884e-17
2.91706e-17
3.14455e-17
3.4668e-17
4.00106e-17
4.64986e-17
5.76814e-17
6.99875e-17
9.40333e-17
1.1902e-16
1.73903e-16
2.41873e-16
3.70249e-16
6.96641e-16
9.90305e-16
4.0325e-15
6.4996e-15
6.58141e-14
1.57928e-13
3.21397e-09
4.39435e-09
7.76196e-10
2.02802e-10
3.68205e-11
2.20024e-11
1.36292e-11
2.1294e-11
1.72388e-10
2.41111e-12
3.85761e-13
1.0575e-13
3.83119e-14
1.65618e-14
8.09587e-15
4.34001e-15
2.50301e-15
1.53267e-15
9.8696e-16
6.63685e-16
4.63712e-16
3.35458e-16
2.50702e-16
1.933e-16
1.53679e-16
1.25956e-16
1.06449e-16
9.27928e-17
8.34561e-17
7.7506e-17
7.42782e-17
7.36297e-17
7.51938e-17
7.96782e-17
8.6481e-17
9.81004e-17
1.12463e-16
1.36966e-16
1.64549e-16
2.1628e-16
2.72769e-16
3.87025e-16
5.3867e-16
7.9779e-16
1.46744e-15
2.12152e-15
7.52668e-15
1.30802e-14
8.10358e-14
1.67431e-13
3.01972e-09
3.97618e-09
8.49152e-10
2.13829e-10
3.91526e-11
2.03361e-11
8.76892e-12
4.7207e-12
4.33528e-12
7.07503e-12
7.95645e-11
5.71135e-12
6.47473e-13
1.69568e-13
6.18279e-14
2.72217e-14
1.3605e-14
7.46506e-15
4.40559e-15
2.75869e-15
1.81596e-15
1.24868e-15
8.93082e-16
6.62543e-16
5.08983e-16
4.0449e-16
3.32385e-16
2.82362e-16
2.47939e-16
2.25138e-16
2.1123e-16
2.0516e-16
2.0552e-16
2.13662e-16
2.27882e-16
2.53754e-16
2.86501e-16
3.42282e-16
4.06461e-16
5.22506e-16
6.55075e-16
9.03805e-16
1.25445e-15
1.80705e-15
3.24254e-15
4.75985e-15
1.47811e-14
2.66759e-14
1.11055e-13
1.95953e-13
2.84849e-09
3.51645e-09
9.11095e-10
2.11383e-10
4.27419e-11
2.19196e-11
9.21019e-12
4.03074e-12
2.56272e-12
2.01062e-12
1.84721e-12
2.20363e-12
4.53162e-12
8.34875e-11
3.55794e-12
5.1739e-13
1.55923e-13
6.32253e-14
3.0387e-14
1.63706e-14
9.59656e-15
6.01428e-15
3.98556e-15
2.77297e-15
2.01636e-15
1.52766e-15
1.20362e-15
9.84868e-16
8.36099e-16
7.36234e-16
6.71535e-16
6.35336e-16
6.21136e-16
6.30862e-16
6.58648e-16
7.17742e-16
7.95655e-16
9.30388e-16
1.08908e-15
1.36735e-15
1.69888e-15
2.27981e-15
3.14273e-15
4.41654e-15
7.70591e-15
1.14218e-14
3.12651e-14
5.68358e-14
1.7161e-13
2.58664e-13
2.67863e-09
3.06118e-09
9.80397e-10
2.0035e-10
4.59936e-11
2.34423e-11
1.05033e-11
4.35579e-12
2.51238e-12
1.70425e-12
1.22797e-12
9.58313e-13
8.41121e-13
8.54702e-13
1.0597e-12
1.84883e-12
8.05652e-12
2.16928e-11
1.10481e-12
2.80187e-13
1.08944e-13
5.23555e-14
2.87298e-14
1.73358e-14
1.12683e-14
7.7936e-15
5.69155e-15
4.3665e-15
3.50637e-15
2.94085e-15
2.5691e-15
2.33819e-15
2.2073e-15
2.17057e-15
2.201e-15
2.33163e-15
2.5226e-15
2.87288e-15
3.29863e-15
4.03089e-15
4.93985e-15
6.43848e-15
8.76801e-15
1.20297e-14
2.0318e-14
3.01781e-14
7.33549e-14
1.31312e-13
3.0623e-13
3.94494e-13
2.50032e-09
2.62657e-09
1.06057e-09
1.86393e-10
4.93953e-11
2.44078e-11
1.19484e-11
4.901e-12
2.74611e-12
1.80244e-12
1.22443e-12
8.63349e-13
6.49177e-13
5.23764e-13
4.53484e-13
4.23738e-13
4.33103e-13
4.96402e-13
6.69995e-13
1.19468e-12
4.14886e-12
1.41939e-10
1.81491e-12
4.2285e-13
1.6765e-13
8.47649e-14
4.96894e-14
3.23437e-14
2.28422e-14
1.7271e-14
1.38454e-14
1.17169e-14
1.03905e-14
9.67142e-15
9.34693e-15
9.47458e-15
9.86932e-15
1.08226e-14
1.20638e-14
1.42324e-14
1.70549e-14
2.14847e-14
2.86665e-14
3.83012e-14
6.22167e-14
9.1742e-14
1.99339e-13
3.45175e-13
6.53188e-13
7.19218e-13
2.31413e-09
2.2266e-09
1.14629e-09
1.72146e-10
5.34201e-11
2.49506e-11
1.34482e-11
5.51819e-12
3.05083e-12
1.99922e-12
1.34899e-12
9.27805e-13
6.67685e-13
5.05109e-13
3.99663e-13
3.2993e-13
2.84364e-13
2.56444e-13
2.42795e-13
2.42623e-13
2.58129e-13
2.9663e-13
3.77333e-13
5.56435e-13
1.05304e-12
3.48616e-12
4.29863e-10
3.54142e-12
8.06351e-13
3.44801e-13
1.93294e-13
1.27419e-13
9.38025e-14
7.54923e-14
6.49204e-14
5.96877e-14
5.73572e-14
5.85132e-14
6.15226e-14
6.8479e-14
7.8571e-14
9.42321e-14
1.21175e-13
1.56076e-13
2.41035e-13
3.48214e-13
6.78697e-13
1.11962e-12
1.78114e-12
1.67193e-12
2.12236e-09
1.86751e-09
1.23023e-09
1.58655e-10
5.81136e-11
2.5201e-11
1.50299e-11
6.2071e-12
3.38769e-12
2.22943e-12
1.5169e-12
1.04241e-12
7.42947e-13
5.52504e-13
4.25929e-13
3.38779e-13
2.77606e-13
2.34265e-13
2.03566e-13
1.82192e-13
1.68108e-13
1.60194e-13
1.58099e-13
1.62234e-13
1.7403e-13
1.96524e-13
2.35934e-13
3.05225e-13
4.34477e-13
7.06059e-13
1.40797e-12
4.16539e-12
3.62854e-11
2.68555e-11
4.37753e-12
1.92089e-12
1.18453e-12
8.90184e-13
7.50421e-13
7.00566e-13
7.03292e-13
7.50446e-13
8.79648e-13
1.04735e-12
1.48688e-12
2.04191e-12
3.54048e-12
5.45439e-12
7.39922e-12
5.80464e-12
1.92664e-09
1.54971e-09
1.3058e-09
1.4669e-10
6.32307e-11
2.52276e-11
1.66979e-11
6.99472e-12
3.76148e-12
2.48348e-12
1.70959e-12
1.18192e-12
8.42963e-13
6.25711e-13
4.80098e-13
3.78495e-13
3.05829e-13
2.52965e-13
2.13983e-13
1.84975e-13
1.63365e-13
1.47461e-13
1.36175e-13
1.28855e-13
1.25194e-13
1.25196e-13
1.29182e-13
1.37925e-13
1.52729e-13
1.7597e-13
2.11391e-13
2.66035e-13
3.51384e-13
4.91335e-13
7.28813e-13
1.16675e-12
2.02917e-12
3.9805e-12
9.11521e-12
2.68295e-11
8.36585e-11
2.7265e-10
1.20782e-10
6.62317e-11
5.82315e-11
5.90613e-11
7.863e-11
1.02065e-10
1.07551e-10
5.87146e-11
1.7292e-09
1.27305e-09
1.36732e-09
1.37153e-10
6.83671e-11
2.50997e-11
1.84177e-11
7.90466e-12
4.18314e-12
2.76501e-12
1.9267e-12
1.34276e-12
9.60873e-13
7.14893e-13
5.49573e-13
4.33548e-13
3.4987e-13
2.8836e-13
2.42391e-13
2.07555e-13
1.80918e-13
1.60515e-13
1.45033e-13
1.33604e-13
1.25674e-13
1.20939e-13
1.19279e-13
1.20804e-13
1.25794e-13
1.34914e-13
1.49053e-13
1.69985e-13
1.99828e-13
2.42958e-13
3.04319e-13
3.94901e-13
5.27123e-13
7.29504e-13
1.0383e-12
1.52877e-12
2.33055e-12
3.64045e-12
6.00856e-12
9.94242e-12
1.78255e-11
3.06687e-11
5.50051e-11
8.60541e-11
1.15951e-10
1.26017e-10
1.5328e-09
1.03721e-09
1.40991e-09
1.30997e-10
7.30008e-11
2.49179e-11
2.01292e-11
8.95614e-12
4.66273e-12
3.07891e-12
2.17155e-12
1.52743e-12
1.09753e-12
8.19206e-13
6.32046e-13
5.00331e-13
4.04904e-13
3.3439e-13
2.81375e-13
2.40895e-13
2.0963e-13
1.85354e-13
1.66572e-13
1.52281e-13
1.41818e-13
1.34774e-13
1.30919e-13
1.30222e-13
1.32776e-13
1.38974e-13
1.49317e-13
1.64942e-13
1.87049e-13
2.18291e-13
2.61248e-13
3.21841e-13
4.05831e-13
5.26149e-13
6.97799e-13
9.47523e-13
1.32348e-12
1.87496e-12
2.77904e-12
4.1157e-12
6.50892e-12
1.00329e-11
1.59241e-11
2.27465e-11
2.67692e-11
2.12623e-11
1.34039e-09
8.40995e-10
1.42955e-09
1.29134e-10
7.65332e-11
2.48132e-11
2.17565e-11
1.01659e-11
5.21049e-12
3.4298e-12
2.44755e-12
1.73961e-12
1.25596e-12
9.40684e-13
7.28696e-13
5.79283e-13
4.70678e-13
3.90156e-13
3.29416e-13
2.82866e-13
2.46746e-13
2.1854e-13
1.96555e-13
1.79661e-13
1.6711e-13
1.58435e-13
1.53356e-13
1.51808e-13
1.53837e-13
1.59795e-13
1.70123e-13
1.85869e-13
2.08127e-13
2.39285e-13
2.81672e-13
3.40329e-13
4.20351e-13
5.31908e-13
6.87827e-13
9.07177e-13
1.22848e-12
1.68347e-12
2.39892e-12
3.4235e-12
5.13504e-12
7.56091e-12
1.11816e-11
1.49722e-11
1.62545e-11
1.15069e-11
1.1549e-09
6.82106e-10
1.42335e-09
1.32374e-10
7.84037e-11
2.49313e-11
2.32166e-11
1.15468e-11
5.83812e-12
3.82267e-12
2.75786e-12
1.98313e-12
1.43976e-12
1.08226e-12
8.4188e-13
6.72309e-13
5.48689e-13
4.56759e-13
3.87243e-13
3.3384e-13
2.92296e-13
2.5976e-13
2.34325e-13
2.14725e-13
2.00131e-13
1.90035e-13
1.84135e-13
1.82367e-13
1.8479e-13
1.91793e-13
2.03878e-13
2.22185e-13
2.47957e-13
2.83731e-13
3.32162e-13
3.98412e-13
4.88233e-13
6.11581e-13
7.82415e-13
1.01862e-12
1.35905e-12
1.83329e-12
2.55569e-12
3.57429e-12
5.17702e-12
7.37977e-12
1.03507e-11
1.31503e-11
1.34781e-11
8.9457e-12
9.79256e-10
5.5722e-10
1.38993e-09
1.41408e-10
7.82316e-11
2.54077e-11
2.44317e-11
1.31046e-11
6.55935e-12
4.2634e-12
3.10567e-12
2.26192e-12
1.65293e-12
1.24731e-12
9.74475e-13
7.81936e-13
6.41178e-13
5.3618e-13
4.56589e-13
3.95322e-13
3.47565e-13
3.10092e-13
2.80756e-13
2.58149e-13
2.41359e-13
2.29848e-13
2.23311e-13
2.21712e-13
2.25157e-13
2.34125e-13
2.49252e-13
2.71873e-13
3.03542e-13
3.47166e-13
4.06051e-13
4.85969e-13
5.93996e-13
7.40969e-13
9.4337e-13
1.22042e-12
1.61459e-12
2.15862e-12
2.96441e-12
4.0872e-12
5.76223e-12
7.99249e-12
1.07407e-11
1.30532e-11
1.28082e-11
8.19649e-12
8.16145e-10
4.62201e-10
1.32964e-09
1.56767e-10
7.58861e-11
2.63451e-11
2.53413e-11
1.48341e-11
7.39011e-12
4.75897e-12
3.49433e-12
2.58001e-12
1.89989e-12
1.43971e-12
1.12979e-12
9.11132e-13
7.50865e-13
6.30918e-13
5.39762e-13
4.69449e-13
4.14537e-13
3.71378e-13
3.3756e-13
3.11521e-13
2.92275e-13
2.79262e-13
2.72193e-13
2.71081e-13
2.76115e-13
2.87906e-13
3.07291e-13
3.35886e-13
3.75691e-13
4.30161e-13
5.03524e-13
6.02522e-13
7.36053e-13
9.16594e-13
1.16402e-12
1.50047e-12
1.97349e-12
2.6219e-12
3.55805e-12
4.84639e-12
6.67927e-12
9.03801e-12
1.17188e-11
1.37173e-11
1.30235e-11
8.20463e-12
6.67873e-10
3.92415e-10
1.24474e-09
1.78691e-10
7.15218e-11
2.77963e-11
2.59145e-11
1.67133e-11
8.34834e-12
5.31757e-12
3.92755e-12
2.94144e-12
2.18545e-12
1.66381e-12
1.3116e-12
1.06331e-12
8.80925e-13
7.43946e-13
6.39554e-13
5.58859e-13
4.9572e-13
4.46014e-13
4.07036e-13
3.77066e-13
3.55045e-13
3.40411e-13
3.3291e-13
3.32634e-13
3.39892e-13
3.5547e-13
3.80475e-13
4.16896e-13
4.67316e-13
5.35918e-13
6.28114e-13
7.51965e-13
9.18647e-13
1.14295e-12
1.4488e-12
1.86257e-12
2.43758e-12
3.22054e-12
4.3245e-12
5.82217e-12
7.86407e-12
1.03991e-11
1.30777e-11
1.48358e-11
1.37536e-11
8.67705e-12
5.36161e-10
3.43041e-10
1.1392e-09
2.06894e-10
6.56082e-11
2.97397e-11
2.61614e-11
1.86994e-11
9.45321e-12
5.94872e-12
4.40948e-12
3.35018e-12
2.51477e-12
1.92452e-12
1.52422e-12
1.2424e-12
1.03504e-12
8.78755e-13
7.59281e-13
6.66721e-13
5.94158e-13
5.36941e-13
4.92043e-13
4.57581e-13
4.32437e-13
4.16067e-13
4.08284e-13
4.09292e-13
4.19564e-13
4.40116e-13
4.72405e-13
5.18896e-13
5.82911e-13
6.69564e-13
7.85739e-13
9.41198e-13
1.14985e-12
1.4295e-12
1.80874e-12
2.31927e-12
3.02064e-12
3.96841e-12
5.27558e-12
7.01989e-12
9.30884e-12
1.20471e-11
1.47583e-11
1.63186e-11
1.48966e-11
9.55598e-12
4.22024e-10
3.09314e-10
1.01862e-09
2.40291e-10
5.89103e-11
3.20483e-11
2.61385e-11
2.07276e-11
1.07235e-11
6.66332e-12
4.94495e-12
3.81002e-12
2.89323e-12
2.22731e-12
1.77251e-12
1.45285e-12
1.21746e-12
1.03941e-12
9.02847e-13
7.96797e-13
7.13496e-13
6.47706e-13
5.96053e-13
5.56488e-13
5.2786e-13
5.0967e-13
5.01841e-13
5.04734e-13
5.1904e-13
5.46073e-13
5.87737e-13
6.47096e-13
7.284e-13
8.37935e-13
9.84383e-13
1.17965e-12
1.44089e-12
1.78966e-12
2.25982e-12
2.88944e-12
3.74458e-12
4.88991e-12
6.43724e-12
8.46447e-12
1.10345e-11
1.39977e-11
1.67683e-11
1.81713e-11
1.64628e-11
1.08792e-11
3.25685e-10
2.86691e-10
8.9031e-10
2.76644e-10
5.24287e-11
3.44802e-11
2.59443e-11
2.27144e-11
1.21749e-11
7.47367e-12
5.53965e-12
4.32451e-12
3.32626e-12
2.57814e-12
2.06194e-12
1.69971e-12
1.433e-12
1.23061e-12
1.07482e-12
9.53527e-13
8.58067e-13
7.82556e-13
7.23245e-13
6.77932e-13
6.45457e-13
6.2542e-13
6.17905e-13
6.23486e-13
6.43148e-13
6.78583e-13
7.32261e-13
8.08e-13
9.11194e-13
1.0496e-12
1.23408e-12
1.47919e-12
1.80592e-12
2.24035e-12
2.8223e-12
3.59709e-12
4.63754e-12
6.01703e-12
7.8447e-12
1.0193e-11
1.30788e-11
1.62913e-11
1.91509e-11
2.0449e-11
1.85192e-11
1.27446e-11
2.46494e-10
2.71199e-10
7.62953e-10
3.12452e-10
4.72331e-11
3.67178e-11
2.57065e-11
2.45653e-11
1.38166e-11
8.39363e-12
6.20032e-12
4.89704e-12
3.81914e-12
2.98338e-12
2.39856e-12
1.9886e-12
1.68714e-12
1.45773e-12
1.28049e-12
1.14211e-12
1.03298e-12
9.46533e-13
8.78613e-13
8.26883e-13
7.90225e-13
7.68398e-13
7.6172e-13
7.71059e-13
7.97774e-13
8.44047e-13
9.13051e-13
1.00955e-12
1.14034e-12
1.31501e-12
1.54703e-12
1.85423e-12
2.26206e-12
2.80198e-12
3.52048e-12
4.47085e-12
5.73288e-12
7.38754e-12
9.53981e-12
1.22506e-11
1.54901e-11
1.89819e-11
2.19715e-11
2.32295e-11
2.11758e-11
1.53059e-11
1.83071e-10
2.5957e-10
6.43803e-10
3.43572e-10
4.41727e-11
3.84183e-11
2.55613e-11
2.61866e-11
1.56451e-11
9.4383e-12
6.9348e-12
5.53091e-12
4.3767e-12
3.44969e-12
2.78897e-12
2.32575e-12
1.98597e-12
1.72687e-12
1.52592e-12
1.36856e-12
1.24422e-12
1.14557e-12
1.06807e-12
1.00926e-12
9.68132e-13
9.44695e-13
9.39592e-13
9.54084e-13
9.90017e-13
1.05019e-12
1.13864e-12
1.26132e-12
1.42674e-12
1.6467e-12
1.93785e-12
2.32192e-12
2.82955e-12
3.49847e-12
4.38257e-12
5.54363e-12
7.06846e-12
9.04396e-12
1.15693e-11
1.46876e-11
1.83232e-11
2.21338e-11
2.53079e-11
2.66134e-11
2.45662e-11
1.8721e-11
1.33607e-10
2.48974e-10
5.36598e-10
3.66352e-10
4.37296e-11
3.92694e-11
2.56261e-11
2.75044e-11
1.76389e-11
1.06232e-11
7.75187e-12
6.22944e-12
5.00313e-12
3.98372e-12
3.24026e-12
2.71796e-12
2.33619e-12
2.04483e-12
1.818e-12
1.6398e-12
1.49869e-12
1.3866e-12
1.29854e-12
1.23202e-12
1.18623e-12
1.16153e-12
1.15902e-12
1.18046e-12
1.22834e-12
1.30621e-12
1.41921e-12
1.57471e-12
1.78329e-12
2.05949e-12
2.42368e-12
2.90224e-12
3.53183e-12
4.35725e-12
5.44055e-12
6.85223e-12
8.68607e-12
1.10325e-11
1.39834e-11
1.75585e-11
2.16378e-11
2.58175e-11
2.92483e-11
3.07172e-11
2.88433e-11
2.32731e-11
9.60176e-11
2.37165e-10
4.42838e-10
3.78414e-10
4.61101e-11
3.91032e-11
2.59713e-11
2.84826e-11
1.97556e-11
1.19629e-11
8.66123e-12
6.99633e-12
5.70177e-12
4.59186e-12
3.75988e-12
3.17255e-12
2.74513e-12
2.41912e-12
2.16443e-12
1.96365e-12
1.80431e-12
1.67757e-12
1.57807e-12
1.5033e-12
1.45278e-12
1.42738e-12
1.4288e-12
1.45949e-12
1.5227e-12
1.62295e-12
1.76669e-12
1.96304e-12
2.22507e-12
2.57057e-12
3.0243e-12
3.61809e-12
4.39545e-12
5.40905e-12
6.72976e-12
8.4367e-12
1.06303e-11
1.34019e-11
1.68342e-11
2.09194e-11
2.54967e-11
3.0107e-11
3.38876e-11
3.56649e-11
3.41857e-11
2.92379e-11
6.81144e-11
2.22838e-10
3.63078e-10
3.78869e-10
5.13415e-11
3.79935e-11
2.66029e-11
2.91312e-11
2.19323e-11
1.34697e-11
9.67338e-12
7.83599e-12
6.4752e-12
5.28e-12
4.35549e-12
3.69738e-12
3.22067e-12
2.85793e-12
2.57376e-12
2.34891e-12
2.17003e-12
2.0276e-12
1.91586e-12
1.83244e-12
1.77732e-12
1.75206e-12
1.75917e-12
1.80196e-12
1.88466e-12
2.01297e-12
2.1949e-12
2.44169e-12
2.76935e-12
3.19952e-12
3.76208e-12
4.49511e-12
5.44982e-12
6.68743e-12
8.28822e-12
1.03394e-11
1.29475e-11
1.62016e-11
2.01742e-11
2.48261e-11
2.99628e-11
3.50789e-11
3.93231e-11
4.15862e-11
4.07739e-11
3.68172e-11
4.78302e-11
2.05597e-10
2.97047e-10
3.68211e-10
5.92242e-11
3.6235e-11
2.74614e-11
2.95048e-11
2.40898e-11
1.51496e-11
1.07993e-11
8.75371e-12
7.32532e-12
6.05316e-12
5.03476e-12
4.30069e-12
3.77124e-12
3.37011e-12
3.05534e-12
2.80533e-12
2.6059e-12
2.44693e-12
2.32238e-12
2.23009e-12
2.17074e-12
2.1468e-12
2.16184e-12
2.22025e-12
2.32746e-12
2.49061e-12
2.71956e-12
3.02807e-12
3.43558e-12
3.96824e-12
4.66178e-12
5.56135e-12
6.72668e-12
8.22809e-12
1.01555e-11
1.26036e-11
1.56839e-11
1.948e-11
2.40537e-11
2.93323e-11
3.5096e-11
4.08052e-11
4.5652e-11
4.86115e-11
4.87875e-11
4.63015e-11
3.33483e-11
1.85769e-10
2.43687e-10
3.48084e-10
6.92226e-11
3.42554e-11
2.84322e-11
2.96923e-11
2.61422e-11
1.69988e-11
1.20499e-11
9.75577e-12
8.25365e-12
6.91528e-12
5.80509e-12
4.99103e-12
4.40571e-12
3.96507e-12
3.61927e-12
3.3436e-12
3.12304e-12
2.94701e-12
2.80934e-12
2.70825e-12
2.64533e-12
2.62429e-12
2.65003e-12
2.72831e-12
2.86601e-12
3.07197e-12
3.35824e-12
3.74151e-12
4.2452e-12
4.9006e-12
5.75009e-12
6.84665e-12
8.25929e-12
1.00677e-11
1.23716e-11
1.52715e-11
1.88835e-11
2.3282e-11
2.85181e-11
3.44858e-11
4.09503e-11
4.73548e-11
5.29558e-11
5.68508e-11
5.83916e-11
5.79072e-11
2.31596e-11
1.64226e-10
2.01361e-10
3.20928e-10
8.04362e-11
3.25238e-11
2.9369e-11
2.97985e-11
2.80102e-11
1.89997e-11
1.34354e-11
1.08493e-11
9.26174e-12
7.86905e-12
6.67326e-12
5.77709e-12
5.13339e-12
4.65275e-12
4.27633e-12
3.97528e-12
3.73359e-12
3.54044e-12
3.38969e-12
3.2802e-12
3.21476e-12
3.19866e-12
3.23846e-12
3.34163e-12
3.5168e-12
3.77478e-12
4.13019e-12
4.60304e-12
5.22128e-12
6.02204e-12
7.05506e-12
8.38186e-12
1.00813e-11
1.22424e-11
1.49747e-11
1.83828e-11
2.25859e-11
2.76464e-11
3.3606e-11
4.03258e-11
4.75705e-11
5.47797e-11
6.13073e-11
6.63909e-11
6.9669e-11
7.17482e-11
1.60626e-11
1.42206e-10
1.68151e-10
2.89509e-10
9.16898e-11
3.14722e-11
3.01372e-11
2.99228e-11
2.96356e-11
2.11186e-11
1.49636e-11
1.20421e-11
1.03516e-11
8.91595e-12
7.64515e-12
6.66751e-12
5.96386e-12
5.4435e-12
5.0379e-12
4.71274e-12
4.45069e-12
4.24091e-12
4.07761e-12
3.96051e-12
3.89401e-12
3.88536e-12
3.94324e-12
4.07713e-12
4.29776e-12
4.61823e-12
5.05603e-12
5.63496e-12
6.38805e-12
7.35885e-12
8.60523e-12
1.01977e-11
1.22255e-11
1.47867e-11
1.79998e-11
2.19721e-11
2.68239e-11
3.26036e-11
3.93454e-11
4.68794e-11
5.4988e-11
6.31143e-11
7.07523e-11
7.72795e-11
8.26662e-11
8.78321e-11
1.11475e-11
1.20867e-10
1.42141e-10
2.56576e-10
1.01729e-10
3.14256e-11
3.06623e-11
3.01413e-11
3.09926e-11
2.33068e-11
1.66392e-11
1.33424e-11
1.15263e-11
1.00566e-11
8.72552e-12
7.67065e-12
6.90697e-12
6.34808e-12
5.91586e-12
5.56904e-12
5.28838e-12
5.06319e-12
4.88836e-12
4.76493e-12
4.69928e-12
4.70112e-12
4.7817e-12
4.95296e-12
5.22802e-12
5.6226e-12
6.15739e-12
6.86039e-12
7.77021e-12
8.93744e-12
1.04286e-11
1.23236e-11
1.47222e-11
1.7731e-11
2.14765e-11
2.60666e-11
3.16211e-11
3.81737e-11
4.57511e-11
5.41603e-11
6.32152e-11
7.23741e-11
8.12954e-11
8.95177e-11
9.73681e-11
1.06031e-10
7.75735e-12
1.00933e-10
1.21593e-10
2.24473e-10
1.09496e-10
3.2539e-11
3.09506e-11
3.04931e-11
3.2091e-11
2.5504e-11
1.84607e-11
1.47582e-11
1.279e-11
1.12913e-11
9.91784e-12
8.79433e-12
7.97267e-12
7.37753e-12
6.9225e-12
6.55785e-12
6.26147e-12
6.02292e-12
5.83825e-12
5.71026e-12
5.64782e-12
5.6637e-12
5.77221e-12
5.98819e-12
6.32753e-12
6.80884e-12
7.45633e-12
8.30256e-12
9.39217e-12
1.07832e-11
1.25514e-11
1.47863e-11
1.75978e-11
2.11004e-11
2.54271e-11
3.06845e-11
3.69908e-11
4.43628e-11
5.28245e-11
6.21662e-11
7.22401e-11
8.25443e-11
9.29215e-11
1.03048e-10
1.13618e-10
1.26063e-10
5.42151e-12
8.28762e-11
1.05036e-10
1.94734e-10
1.14349e-10
3.47873e-11
3.10862e-11
3.09762e-11
3.29717e-11
2.76467e-11
2.04179e-11
1.62964e-11
1.41479e-11
1.26201e-11
1.12242e-11
1.00455e-11
9.17077e-12
8.54312e-12
8.07039e-12
7.69323e-12
7.38537e-12
7.13651e-12
6.94436e-12
6.81409e-12
6.75771e-12
6.79161e-12
6.93379e-12
7.20248e-12
7.61664e-12
8.19806e-12
8.97474e-12
9.98407e-12
1.12771e-11
1.29197e-11
1.4997e-11
1.76082e-11
2.0873e-11
2.49126e-11
2.9865e-11
3.58335e-11
4.29331e-11
5.11637e-11
6.05514e-11
7.08714e-11
8.20345e-11
9.358e-11
1.05553e-10
1.17753e-10
1.31221e-10
1.47571e-10
3.80695e-12
6.70536e-11
9.13292e-11
1.68113e-10
1.1611e-10
3.79926e-11
3.12126e-11
3.15604e-11
3.3696e-11
2.96775e-11
2.24909e-11
1.79618e-11
1.56059e-11
1.40438e-11
1.26455e-11
1.14299e-11
1.05107e-11
9.85612e-12
9.37223e-12
8.98946e-12
8.67585e-12
8.42084e-12
8.22434e-12
8.0946e-12
8.04751e-12
8.10379e-12
8.28576e-12
8.61552e-12
9.11548e-12
9.81084e-12
1.07335e-11
1.19259e-11
1.34458e-11
1.53672e-11
1.77844e-11
2.08064e-11
2.45616e-11
2.91768e-11
3.47933e-11
4.1509e-11
4.94346e-11
5.85546e-11
6.88978e-11
8.02351e-11
9.2545e-11
1.05398e-10
1.19073e-10
1.33451e-10
1.49889e-10
1.70078e-10
2.68559e-12
5.36121e-11
7.96588e-11
1.44883e-10
1.15016e-10
4.18558e-11
3.14939e-11
3.22083e-11
3.43325e-11
3.15545e-11
2.46491e-11
1.9756e-11
1.71701e-11
1.5564e-11
1.41816e-11
1.29519e-11
1.20013e-11
1.13277e-11
1.08407e-11
1.04608e-11
1.01488e-11
9.89301e-12
9.69606e-12
9.57014e-12
9.53586e-12
9.6191e-12
9.84716e-12
1.02465e-11
1.08434e-11
1.16664e-11
1.27516e-11
1.41467e-11
1.59158e-11
1.81414e-11
2.09271e-11
2.43907e-11
2.86689e-11
3.38923e-11
4.02035e-11
4.76938e-11
5.64682e-11
6.64968e-11
7.78159e-11
9.01953e-11
1.03682e-10
1.17909e-10
1.33313e-10
1.49872e-10
1.69283e-10
1.93112e-10
1.90274e-12
4.24851e-11
6.94912e-11
1.24995e-10
1.1159e-10
4.60011e-11
3.20729e-11
3.28921e-11
3.49436e-11
3.3256e-11
2.68541e-11
2.16758e-11
1.8846e-11
1.71834e-11
1.5832e-11
1.46144e-11
1.36502e-11
1.29684e-11
1.24882e-11
1.21213e-11
1.18198e-11
1.157e-11
1.13773e-11
1.12589e-11
1.12411e-11
1.13559e-11
1.16362e-11
1.21136e-11
1.2818e-11
1.3782e-11
1.50455e-11
1.66612e-11
1.87002e-11
2.12528e-11
2.44318e-11
2.83633e-11
3.31909e-11
3.90476e-11
4.60753e-11
5.43574e-11
6.39927e-11
7.49372e-11
8.72388e-11
1.00671e-10
1.15346e-10
1.30959e-10
1.48098e-10
1.66816e-10
1.89041e-10
2.16135e-10
1.35328e-12
3.34623e-11
6.05019e-11
1.08182e-10
1.06482e-10
5.00406e-11
3.30433e-11
3.36055e-11
3.55772e-11
3.4783e-11
2.90627e-11
2.37122e-11
2.06379e-11
1.89055e-11
1.75961e-11
1.64185e-11
1.54638e-11
1.47884e-11
1.43267e-11
1.39846e-11
1.3704e-11
1.34681e-11
1.32851e-11
1.31782e-11
1.31806e-11
1.33312e-11
1.36697e-11
1.42327e-11
1.50547e-11
1.61717e-11
1.76275e-11
1.94798e-11
2.18063e-11
2.47051e-11
2.82975e-11
3.27173e-11
3.81133e-11
4.46199e-11
5.23762e-11
6.14567e-11
7.19522e-11
8.38103e-11
9.70829e-11
1.1156e-10
1.27421e-10
1.4438e-10
1.63218e-10
1.84008e-10
2.08775e-10
2.38664e-10
9.65736e-13
2.62606e-11
5.25082e-11
9.40613e-11
1.00335e-10
5.36385e-11
3.44343e-11
3.43661e-11
3.62633e-11
3.61555e-11
3.12335e-11
2.58494e-11
2.25476e-11
2.07341e-11
1.94736e-11
1.83644e-11
1.74468e-11
1.67966e-11
1.63675e-11
1.60632e-11
1.58156e-11
1.56028e-11
1.54357e-11
1.53443e-11
1.53702e-11
1.55606e-11
1.59622e-11
1.66176e-11
1.75657e-11
1.88459e-11
2.05057e-11
2.26076e-11
2.52353e-11
2.84947e-11
3.25148e-11
3.74361e-11
4.34117e-11
5.05755e-11
5.9062e-11
6.89364e-11
8.028e-11
9.30338e-11
1.07255e-10
1.22751e-10
1.39755e-10
1.58018e-10
1.78449e-10
2.01098e-10
2.28091e-10
2.60285e-10
6.91265e-13
2.05792e-11
4.54084e-11
8.22128e-11
9.37056e-11
5.65569e-11
3.6211e-11
3.52108e-11
3.70174e-11
3.74061e-11
3.33317e-11
2.80652e-11
2.45737e-11
2.26729e-11
2.14647e-11
2.04507e-11
1.96019e-11
1.90001e-11
1.86205e-11
1.8369e-11
1.81674e-11
1.79879e-11
1.78434e-11
1.77716e-11
1.78239e-11
1.80568e-11
1.85253e-11
1.92783e-11
2.03589e-11
2.18101e-11
2.36826e-11
2.60431e-11
2.89812e-11
3.26098e-11
3.70652e-11
4.24938e-11
4.90512e-11
5.68697e-11
6.60778e-11
7.67295e-11
8.8899e-11
1.02515e-10
1.17649e-10
1.34119e-10
1.52192e-10
1.71687e-10
1.9357e-10
2.17809e-10
2.46646e-10
2.80626e-10
4.96231e-13
1.61336e-11
3.91381e-11
7.22397e-11
8.70156e-11
5.86754e-11
3.82845e-11
3.6182e-11
3.78456e-11
3.85724e-11
3.53333e-11
3.03323e-11
2.67105e-11
2.47242e-11
2.35701e-11
2.26755e-11
2.19297e-11
2.14042e-11
2.10943e-11
2.09117e-11
2.07705e-11
2.06352e-11
2.05203e-11
2.04719e-11
2.05524e-11
2.08294e-11
2.13669e-11
2.22205e-11
2.34377e-11
2.50645e-11
2.71543e-11
2.97779e-11
3.303e-11
3.70302e-11
4.19213e-11
4.78545e-11
5.49869e-11
6.34478e-11
7.33581e-11
8.47605e-11
9.77197e-11
1.12156e-10
1.28149e-10
1.45522e-10
1.64587e-10
1.85186e-10
2.08305e-10
2.33884e-10
2.64198e-10
2.99422e-10
3.573e-13
1.26726e-11
3.36488e-11
6.37969e-11
8.05474e-11
5.99817e-11
4.05285e-11
3.73106e-11
3.875e-11
3.96908e-11
3.72269e-11
3.26205e-11
2.89469e-11
2.68881e-11
2.57902e-11
2.50361e-11
2.44287e-11
2.40117e-11
2.3795e-11
2.36994e-11
2.36335e-11
2.3554e-11
2.34758e-11
2.34539e-11
2.35633e-11
2.38842e-11
2.44906e-11
2.54451e-11
2.67997e-11
2.86029e-11
3.09103e-11
3.37961e-11
3.73598e-11
4.1727e-11
4.70463e-11
5.34731e-11
6.11646e-11
7.02461e-11
8.0829e-11
9.29453e-11
1.06647e-10
1.21849e-10
1.38632e-10
1.56826e-10
1.76782e-10
1.98306e-10
2.22452e-10
2.49117e-10
2.80484e-10
3.16403e-10
2.58179e-13
9.98287e-12
2.88954e-11
5.6602e-11
7.44677e-11
6.05426e-11
4.28038e-11
3.86076e-11
3.97325e-11
4.07916e-11
3.90125e-11
3.48997e-11
3.12673e-11
2.91617e-11
2.81246e-11
2.75291e-11
2.70954e-11
2.68226e-11
2.6726e-11
2.67375e-11
2.67624e-11
2.67501e-11
2.67154e-11
2.67222e-11
2.68598e-11
2.72221e-11
2.78947e-11
2.89474e-11
3.04365e-11
3.24124e-11
3.49326e-11
3.8074e-11
4.19403e-11
4.66628e-11
5.2395e-11
5.9296e-11
6.75218e-11
7.71926e-11
8.84098e-11
1.01193e-10
1.15581e-10
1.31482e-10
1.48972e-10
1.67892e-10
1.8859e-10
2.10957e-10
2.35878e-10
2.63205e-10
2.95234e-10
3.31402e-10
1.87389e-13
7.89133e-12
2.48201e-11
5.0433e-11
6.88614e-11
6.04705e-11
4.49822e-11
4.00619e-11
4.07967e-11
4.18978e-11
4.06994e-11
3.71432e-11
3.36512e-11
3.15382e-11