/*--------------------------------*- C++ -*----------------------------------*\
  =========                 |
  \\      /  F ield         | OpenFOAM: The Open Source CFD Toolbox
   \\    /   O peration     | Website:  https://openfoam.org
    \\  /    A nd           | Version:  7
     \\/     M anipulation  |
\*---------------------------------------------------------------------------*/
FoamFile
{
    version     2.0;
    format      ascii;
    class       surfaceScalarField;
    location    "0.4";
    object      phi;
}
// * * * * * * * * * * * * * * * * * * * * * * * * * * * * * * * * * * * * * //

dimensions      [0 3 -1 0 0 0 0];

internalField   nonuniform List<scalar> 
139350
(
6.45135e-08
9.2118e-08
3.19683e-08
3.25452e-08
2.30655e-08
8.90284e-09
1.9583e-08
3.48249e-09
1.76332e-08
1.94982e-09
1.62049e-08
1.42826e-09
1.50738e-08
1.13113e-09
1.41631e-08
9.10649e-10
1.34143e-08
7.48823e-10
1.2784e-08
6.3031e-10
1.22434e-08
5.40578e-10
1.17733e-08
4.70162e-10
1.13598e-08
4.13459e-10
1.09929e-08
3.66941e-10
1.06647e-08
3.282e-10
1.03692e-08
2.95513e-10
1.01015e-08
2.67614e-10
9.85798e-09
2.43556e-10
9.63536e-09
2.2262e-10
9.43111e-09
2.0425e-10
9.2431e-09
1.88009e-10
9.06955e-09
1.73551e-10
8.90896e-09
1.60593e-10
8.76005e-09
1.48907e-10
8.62175e-09
1.38301e-10
8.49314e-09
1.28616e-10
8.37342e-09
1.19715e-10
8.26193e-09
1.11485e-10
8.15811e-09
1.03823e-10
8.06146e-09
9.6648e-11
7.9716e-09
8.9869e-11
7.88815e-09
8.34415e-11
7.81089e-09
7.72617e-11
7.73956e-09
7.13337e-11
7.67405e-09
6.55057e-11
7.61419e-09
5.98621e-11
7.56004e-09
5.41518e-11
7.51147e-09
4.85718e-11
7.46872e-09
4.27494e-11
7.43181e-09
3.69029e-11
7.40102e-09
3.07966e-11
7.3771e-09
2.39135e-11
7.35944e-09
1.76638e-11
7.35197e-09
7.47087e-12
7.34953e-09
2.43763e-12
7.36821e-09
-1.86742e-11
7.38278e-09
-1.45728e-11
7.47528e-09
-9.25049e-11
7.35317e-09
1.2211e-10
-3.55361e-09
1.09068e-08
1.25945e-07
1.27616e-07
9.12966e-08
6.71937e-08
7.195e-08
2.82494e-08
6.12406e-08
1.41919e-08
5.48098e-08
8.3806e-09
5.032e-08
5.91804e-09
4.68403e-08
4.61083e-09
4.40315e-08
3.71943e-09
4.1713e-08
3.06735e-09
3.97593e-08
2.58398e-09
3.80834e-08
2.21655e-09
3.66251e-08
1.9284e-09
3.5342e-08
1.69658e-09
3.42025e-08
1.50645e-09
3.31826e-08
1.34811e-09
3.22636e-08
1.2145e-09
3.14308e-08
1.10047e-09
3.06722e-08
1.00214e-09
2.99782e-08
9.1659e-10
2.93409e-08
8.41548e-10
2.87537e-08
7.75232e-10
2.8211e-08
7.16222e-10
2.77082e-08
6.63372e-10
2.72414e-08
6.15743e-10
2.68071e-08
5.72556e-10
2.64026e-08
5.33163e-10
2.60253e-08
4.97011e-10
2.56731e-08
4.63634e-10
2.53443e-08
4.32619e-10
2.50374e-08
4.03627e-10
2.47509e-08
3.76319e-10
2.44839e-08
3.50468e-10
2.42354e-08
3.25727e-10
2.40047e-08
3.02019e-10
2.37914e-08
2.78864e-10
2.35948e-08
2.56462e-10
2.3415e-08
2.33951e-10
2.32515e-08
2.12092e-10
2.3105e-08
1.8921e-10
2.29749e-08
1.67047e-10
2.28631e-08
1.42587e-10
2.27683e-08
1.18676e-10
2.26947e-08
9.12478e-11
2.26406e-08
6.16219e-11
2.26124e-08
3.06544e-11
2.26143e-08
-2.06116e-11
2.26389e-08
-3.92287e-11
2.27916e-08
-2.45133e-10
2.2778e-08
1.35712e-10
-4.66699e-09
2.38914e-08
1.58754e-07
1.35266e-07
1.36534e-07
8.94137e-08
1.17509e-07
4.72746e-08
1.03341e-07
2.83598e-08
9.33565e-08
1.83651e-08
8.60658e-08
1.32087e-08
8.03679e-08
1.03088e-08
7.57264e-08
8.36086e-09
7.18591e-08
6.93463e-09
6.85784e-08
5.86474e-09
6.57508e-08
5.04412e-09
6.32817e-08
4.39749e-09
6.11027e-08
3.87566e-09
5.91625e-08
3.44661e-09
5.74221e-08
3.08851e-09
5.58508e-08
2.78579e-09
5.44243e-08
2.52701e-09
5.31228e-08
2.30361e-09
5.19304e-08
2.10904e-09
5.08337e-08
1.93823e-09
4.98217e-08
1.7872e-09
4.88852e-08
1.65275e-09
4.80162e-08
1.53232e-09
4.72082e-08
1.42378e-09
4.64554e-08
1.32538e-09
4.57529e-08
1.23566e-09
4.50965e-08
1.15337e-09
4.44827e-08
1.07746e-09
4.39083e-08
1.00701e-09
4.33707e-08
9.41239e-10
4.28676e-08
8.79405e-10
4.23971e-08
8.20958e-10
4.19576e-08
7.65189e-10
4.15478e-08
7.11831e-10
4.11667e-08
6.59939e-10
4.08134e-08
6.09813e-10
4.04876e-08
5.59705e-10
4.01885e-08
5.11218e-10
3.99172e-08
4.60556e-10
3.9672e-08
4.12254e-10
3.94566e-08
3.57931e-10
3.92672e-08
3.08099e-10
3.9113e-08
2.45422e-10
3.89848e-08
1.8986e-10
3.89026e-08
1.12873e-10
3.88527e-08
2.92588e-11
3.88558e-08
-4.23031e-11
3.89828e-08
-3.722e-10
3.91312e-08
-1.26615e-11
-4.85546e-09
3.93197e-08
1.75612e-07
1.3117e-07
1.65629e-07
9.93968e-08
1.52749e-07
6.01546e-08
1.40151e-07
4.09583e-08
1.29482e-07
2.90339e-08
1.20855e-07
2.18359e-08
1.13755e-07
1.74088e-08
1.07786e-07
1.43291e-08
1.027e-07
1.20214e-08
9.83117e-08
1.02526e-08
9.44829e-08
8.87289e-09
9.11077e-08
7.77271e-09
8.81062e-08
6.87711e-09
8.54172e-08
6.13569e-09
8.29923e-08
5.51337e-09
8.07933e-08
4.98482e-09
7.87891e-08
4.53122e-09
7.69543e-08
4.13833e-09
7.52682e-08
3.7952e-09
7.37132e-08
3.49326e-09
7.22746e-08
3.22576e-09
7.09401e-08
2.98725e-09
6.96991e-08
2.7733e-09
6.85426e-08
2.58029e-09
6.74628e-08
2.40518e-09
6.6453e-08
2.24543e-09
6.55075e-08
2.09889e-09
6.46213e-08
1.96372e-09
6.379e-08
1.83831e-09
6.30099e-08
1.7213e-09
6.22779e-08
1.61143e-09
6.15912e-08
1.50768e-09
6.09475e-08
1.40889e-09
6.03448e-08
1.31451e-09
5.97817e-08
1.22301e-09
5.92568e-08
1.13476e-09
5.87695e-08
1.04693e-09
5.83187e-08
9.62111e-10
5.79053e-08
8.73907e-10
5.75273e-08
7.90294e-10
5.7189e-08
6.96144e-10
5.68853e-08
6.1182e-10
5.66279e-08
5.02852e-10
5.64041e-08
4.1369e-10
5.62394e-08
2.77557e-10
5.61141e-08
1.54501e-10
5.606e-08
1.18573e-11
5.61198e-08
-4.32055e-10
5.63209e-08
-2.13733e-10
-4.77976e-09
5.62452e-08
1.84511e-07
1.23444e-07
1.82345e-07
1.01563e-07
1.76132e-07
6.63674e-08
1.67784e-07
4.93058e-08
1.59177e-07
3.76413e-08
1.51285e-07
2.97284e-08
1.44226e-07
2.44676e-08
1.3794e-07
2.06147e-08
1.32355e-07
1.76067e-08
1.27386e-07
1.52218e-08
1.22947e-07
1.33117e-08
1.18962e-07
1.17577e-08
1.15366e-07
1.04727e-08
1.12107e-07
9.39547e-09
1.09138e-07
8.48198e-09
1.06423e-07
7.69946e-09
1.03931e-07
7.02305e-09
1.01636e-07
6.43358e-09
9.95153e-08
5.91606e-09
9.75499e-08
5.45864e-09
9.57239e-08
5.0518e-09
9.40233e-08
4.68785e-09
9.24361e-08
4.36045e-09
9.09521e-08
4.06436e-09
8.95621e-08
3.79518e-09
8.82583e-08
3.54921e-09
8.70339e-08
3.32327e-09
8.5883e-08
3.11465e-09
8.48003e-08
2.92099e-09
8.37814e-08
2.74024e-09
8.28222e-08
2.57054e-09
8.19196e-08
2.41036e-09
8.10705e-08
2.25798e-09
8.02725e-08
2.11251e-09
7.95237e-08
1.97181e-09
7.88222e-08
1.83622e-09
7.81673e-08
1.70181e-09
7.75574e-08
1.57206e-09
7.69933e-08
1.43795e-09
7.64728e-08
1.31083e-09
7.60002e-08
1.16879e-09
7.55701e-08
1.0419e-09
7.51941e-08
8.78866e-10
7.48604e-08
7.47322e-10
7.45924e-08
5.45581e-10
7.43755e-08
3.71376e-10
7.42359e-08
1.5151e-10
7.42107e-08
-4.06848e-10
7.43636e-08
-3.66631e-10
-4.58731e-09
7.41711e-08
1.90343e-07
1.15318e-07
1.91862e-07
1.00044e-07
1.90271e-07
6.79585e-08
1.86175e-07
5.34024e-08
1.80747e-07
4.30691e-08
1.75008e-07
3.54674e-08
1.69325e-07
3.01504e-08
1.63855e-07
2.60843e-08
1.58696e-07
2.27661e-08
1.53889e-07
2.00292e-08
1.49436e-07
1.77643e-08
1.45322e-07
1.58719e-08
1.41522e-07
1.42725e-08
1.3801e-07
1.29072e-08
1.34761e-07
1.17316e-08
1.31749e-07
1.07115e-08
1.28952e-07
9.82006e-09
1.26349e-07
9.03581e-09
1.23924e-07
8.34164e-09
1.21659e-07
7.72372e-09
1.1954e-07
7.17074e-09
1.17554e-07
6.67335e-09
1.15691e-07
6.22378e-09
1.1394e-07
5.81551e-09
1.12292e-07
5.443e-09
1.1074e-07
5.10151e-09
1.09276e-07
4.787e-09
1.07895e-07
4.49592e-09
1.0659e-07
4.22521e-09
1.05358e-07
3.97217e-09
1.04195e-07
3.73435e-09
1.03095e-07
3.50969e-09
1.02057e-07
3.29597e-09
1.01078e-07
3.09188e-09
1.00155e-07
2.8947e-09
9.92866e-08
2.70468e-09
9.84715e-08
2.51688e-09
9.77082e-08
2.33544e-09
9.69971e-08
2.14903e-09
9.63361e-08
1.97178e-09
9.57289e-08
1.77602e-09
9.51713e-08
1.59952e-09
9.46723e-08
1.37784e-09
9.42246e-08
1.19503e-09
9.38439e-08
9.26311e-10
9.35275e-08
6.87717e-10
9.32873e-08
3.91739e-10
9.3165e-08
-2.84544e-10
9.32253e-08
-4.26978e-10
-4.27933e-09
9.29174e-08
1.95505e-07
1.07627e-07
1.9825e-07
9.72986e-08
1.98993e-07
6.72156e-08
1.97805e-07
5.45897e-08
1.95181e-07
4.56941e-08
1.91852e-07
3.87957e-08
1.88133e-07
3.38695e-08
1.84196e-07
3.00216e-08
1.8019e-07
2.67714e-08
1.76227e-07
2.39924e-08
1.72374e-07
2.16176e-08
1.68669e-07
1.95765e-08
1.65133e-07
1.78083e-08
1.61775e-07
1.62657e-08
1.58594e-07
1.49122e-08
1.55588e-07
1.37183e-08
1.52748e-07
1.26598e-08
1.50067e-07
1.17169e-08
1.47535e-07
1.0873e-08
1.45145e-07
1.01145e-08
1.42885e-07
9.42985e-09
1.4075e-07
8.80928e-09
1.38729e-07
8.24454e-09
1.36816e-07
7.72855e-09
1.35004e-07
7.25519e-09
1.33286e-07
6.81916e-09
1.31657e-07
6.41584e-09
1.30112e-07
6.04116e-09
1.28645e-07
5.69155e-09
1.27254e-07
5.36381e-09
1.25933e-07
5.05505e-09
1.2468e-07
4.76277e-09
1.23492e-07
4.48432e-09
1.22365e-07
4.21806e-09
1.21299e-07
3.96075e-09
1.20292e-07
3.7125e-09
1.19341e-07
3.46755e-09
1.18446e-07
3.23044e-09
1.17607e-07
2.98811e-09
1.16822e-07
2.75643e-09
1.16094e-07
2.50381e-09
1.15421e-07
2.27259e-09
1.14809e-07
1.9906e-09
1.14254e-07
1.74919e-09
1.13766e-07
1.4152e-09
1.13352e-07
1.10147e-09
1.13011e-07
7.3211e-10
1.12786e-07
-5.89416e-11
1.1274e-07
-3.81328e-10
-3.85874e-09
1.1232e-07
2.0082e-07
1.00392e-07
2.03775e-07
9.43441e-08
2.05352e-07
6.56383e-08
2.05659e-07
5.42827e-08
2.04836e-07
4.65167e-08
2.03367e-07
4.02654e-08
2.0143e-07
3.5806e-08
1.99112e-07
3.23401e-08
1.96518e-07
2.93651e-08
1.93752e-07
2.67587e-08
1.90893e-07
2.4476e-08
1.88003e-07
2.24668e-08
1.85125e-07
2.0686e-08
1.82292e-07
1.90989e-08
1.79525e-07
1.76788e-08
1.7684e-07
1.64035e-08
1.74245e-07
1.52546e-08
1.71746e-07
1.42161e-08
1.69345e-07
1.32744e-08
1.67041e-07
1.2418e-08
1.64835e-07
1.16367e-08
1.62722e-07
1.09217e-08
1.60701e-07
1.02654e-08
1.58769e-07
9.66103e-09
1.56921e-07
9.10262e-09
1.55156e-07
8.58491e-09
1.53468e-07
8.10322e-09
1.51856e-07
7.65336e-09
1.50316e-07
7.23157e-09
1.48845e-07
6.83447e-09
1.47441e-07
6.45892e-09
1.46102e-07
6.1022e-09
1.44825e-07
5.76139e-09
1.43608e-07
5.43462e-09
1.42451e-07
5.1183e-09
1.41351e-07
4.81239e-09
1.40308e-07
4.5106e-09
1.39321e-07
4.21757e-09
1.3839e-07
3.91919e-09
1.37514e-07
3.63205e-09
1.36695e-07
3.32259e-09
1.35933e-07
3.03448e-09
1.35231e-07
2.69331e-09
1.34591e-07
2.38913e-09
1.34013e-07
1.99331e-09
1.33515e-07
1.59887e-09
1.33089e-07
1.15837e-09
1.32766e-07
2.63983e-10
1.32615e-07
-2.3048e-10
-3.34395e-09
1.321e-07
2.06423e-07
9.35008e-08
2.09334e-07
9.1433e-08
2.11063e-07
6.39095e-08
2.11949e-07
5.33967e-08
2.12019e-07
4.64465e-08
2.11643e-07
4.06419e-08
2.10923e-07
3.65257e-08
2.09863e-07
3.34004e-08
2.08501e-07
3.07273e-08
2.06895e-07
2.83645e-08
2.05101e-07
2.62697e-08
2.03169e-07
2.43994e-08
2.0114e-07
2.2715e-08
1.9905e-07
2.11884e-08
1.9693e-07
1.97993e-08
1.94802e-07
1.85316e-08
1.92684e-07
1.73717e-08
1.90592e-07
1.63081e-08
1.88536e-07
1.53306e-08
1.86524e-07
1.44304e-08
1.84561e-07
1.35996e-08
1.82652e-07
1.28311e-08
1.80798e-07
1.21188e-08
1.79002e-07
1.14569e-08
1.77265e-07
1.08401e-08
1.75586e-07
1.02639e-08
1.73965e-07
9.72385e-09
1.72403e-07
9.21618e-09
1.70897e-07
8.73728e-09
1.69447e-07
8.28387e-09
1.68053e-07
7.85286e-09
1.66714e-07
7.44152e-09
1.65429e-07
7.04686e-09
1.64196e-07
6.66694e-09
1.63017e-07
6.29802e-09
1.61889e-07
5.93998e-09
1.60813e-07
5.58622e-09
1.5979e-07
5.24134e-09
1.58818e-07
4.89079e-09
1.57899e-07
4.55102e-09
1.57034e-07
4.18819e-09
1.56223e-07
3.84468e-09
1.55468e-07
3.44831e-09
1.54776e-07
3.08127e-09
1.54141e-07
2.62864e-09
1.53586e-07
2.15384e-09
1.53099e-07
1.64488e-09
1.52699e-07
6.64481e-10
1.52456e-07
1.24205e-11
-2.76142e-09
1.51873e-07
2.1227e-07
8.68934e-08
2.15143e-07
8.85594e-08
2.16818e-07
6.22346e-08
2.17864e-07
5.23511e-08
2.18279e-07
4.60314e-08
2.18404e-07
4.05169e-08
2.18337e-07
3.65926e-08
2.18047e-07
3.36908e-08
2.17527e-07
3.12474e-08
2.16795e-07
2.90956e-08
2.15877e-07
2.71879e-08
2.14797e-07
2.54796e-08
2.13581e-07
2.39313e-08
2.12254e-07
2.25154e-08
2.1084e-07
2.12134e-08
2.0936e-07
2.00114e-08
2.07833e-07
1.88984e-08
2.06276e-07
1.78656e-08
2.04701e-07
1.69052e-08
2.03121e-07
1.60107e-08
2.01544e-07
1.51761e-08
1.99979e-07
1.43961e-08
1.98432e-07
1.36658e-08
1.96908e-07
1.29809e-08
1.95411e-07
1.23371e-08
1.93944e-07
1.17306e-08
1.92511e-07
1.11577e-08
1.91112e-07
1.06151e-08
1.89749e-07
1.00998e-08
1.88424e-07
9.6086e-09
1.87138e-07
9.13883e-09
1.85892e-07
8.6879e-09
1.84686e-07
8.25295e-09
1.83521e-07
7.83211e-09
1.82397e-07
7.42166e-09
1.81316e-07
7.02145e-09
1.80277e-07
6.62485e-09
1.79282e-07
6.23628e-09
1.78332e-07
5.84127e-09
1.77427e-07
5.45551e-09
1.76569e-07
5.04623e-09
1.75761e-07
4.65254e-09
1.75002e-07
4.20779e-09
1.74301e-07
3.78197e-09
1.7365e-07
3.27933e-09
1.73074e-07
2.73001e-09
1.72562e-07
2.157e-09
1.72115e-07
1.11145e-09
1.71805e-07
3.22691e-10
-2.14314e-09
1.71187e-07
2.18316e-07
8.05586e-08
2.21193e-07
8.56821e-08
2.22791e-07
6.06361e-08
2.23865e-07
5.1277e-08
2.24389e-07
4.55077e-08
2.24692e-07
4.02144e-08
2.24901e-07
3.63836e-08
2.24988e-07
3.36037e-08
2.24932e-07
3.13028e-08
2.24735e-07
2.92932e-08
2.244e-07
2.75232e-08
2.23933e-07
2.59465e-08
2.23343e-07
2.45207e-08
2.22643e-07
2.32159e-08
2.21844e-07
2.20121e-08
2.2096e-07
2.08952e-08
2.20004e-07
1.98545e-08
2.18988e-07
1.88815e-08
2.17924e-07
1.79695e-08
2.16822e-07
1.71128e-08
2.15691e-07
1.63067e-08
2.1454e-07
1.55469e-08
2.13377e-07
1.48296e-08
2.12206e-07
1.41511e-08
2.11035e-07
1.35082e-08
2.09868e-07
1.28977e-08
2.08709e-07
1.23167e-08
2.07562e-07
1.17623e-08
2.0643e-07
1.1232e-08
2.05315e-07
1.07231e-08
2.04221e-07
1.02331e-08
2.03149e-07
9.75987e-09
2.02101e-07
9.30062e-09
2.0108e-07
8.85369e-09
2.00086e-07
8.41548e-09
1.99122e-07
7.98588e-09
1.98188e-07
7.55838e-09
1.97287e-07
7.13716e-09
1.9642e-07
6.70821e-09
1.9559e-07
6.28601e-09
1.94796e-07
5.83986e-09
1.94044e-07
5.40427e-09
1.93332e-07
4.92029e-09
1.92671e-07
4.44332e-09
1.92051e-07
3.89912e-09
1.91495e-07
3.28558e-09
1.90997e-07
2.65522e-09
1.90541e-07
1.56692e-09
1.90197e-07
6.67463e-10
-1.52464e-09
1.89578e-07
2.24549e-07
7.45026e-08
2.27453e-07
8.27786e-08
2.28987e-07
5.91015e-08
2.30069e-07
5.01955e-08
2.30633e-07
4.49433e-08
2.30984e-07
3.98634e-08
2.31283e-07
3.60848e-08
2.31518e-07
3.33685e-08
2.31671e-07
3.11498e-08
2.3174e-07
2.9224e-08
2.31725e-07
2.75385e-08
2.31624e-07
2.6048e-08
2.31435e-07
2.47087e-08
2.31163e-07
2.34886e-08
2.30809e-07
2.23657e-08
2.3038e-07
2.13246e-08
2.29881e-07
2.03536e-08
2.29318e-07
1.94437e-08
2.287e-07
1.8588e-08
2.28032e-07
1.77807e-08
2.27322e-07
1.70173e-08
2.26575e-07
1.62937e-08
2.25798e-07
1.56066e-08
2.24996e-07
1.49528e-08
2.24175e-07
1.43293e-08
2.23339e-07
1.37335e-08
2.22493e-07
1.31628e-08
2.21641e-07
1.26148e-08
2.20785e-07
1.20871e-08
2.19931e-07
1.15776e-08
2.1908e-07
1.10839e-08
2.18236e-07
1.0604e-08
2.17401e-07
1.01356e-08
2.16578e-07
9.67695e-09
2.15769e-07
9.22472e-09
2.14976e-07
8.77884e-09
2.14201e-07
8.33297e-09
2.13447e-07
7.89101e-09
2.12716e-07
7.43965e-09
2.1201e-07
6.99183e-09
2.1133e-07
6.51963e-09
2.10682e-07
6.05209e-09
2.10063e-07
5.53923e-09
2.09486e-07
5.02104e-09
2.0894e-07
4.4447e-09
2.08446e-07
3.78013e-09
2.07999e-07
3.10125e-09
2.07574e-07
1.99221e-09
2.07231e-07
1.01077e-09
-9.41161e-10
2.06647e-07
2.30975e-07
6.87334e-08
2.33914e-07
7.98399e-08
2.35391e-07
5.76238e-08
2.36481e-07
4.91055e-08
2.37079e-07
4.43458e-08
2.37445e-07
3.94971e-08
2.37766e-07
3.57642e-08
2.38047e-07
3.30872e-08
2.38276e-07
3.09212e-08
2.38454e-07
2.90457e-08
2.38584e-07
2.74084e-08
2.38664e-07
2.59681e-08
2.38691e-07
2.46814e-08
2.38664e-07
2.35155e-08
2.38583e-07
2.24473e-08
2.38447e-07
2.14605e-08
2.38258e-07
2.05424e-08
2.38018e-07
1.96834e-08
2.37731e-07
1.88758e-08
2.37398e-07
1.81136e-08
2.37023e-07
1.73917e-08
2.36611e-07
1.67061e-08
2.36164e-07
1.60533e-08
2.35687e-07
1.543e-08
2.35183e-07
1.48334e-08
2.34655e-07
1.42609e-08
2.34108e-07
1.37102e-08
2.33544e-07
1.31788e-08
2.32967e-07
1.26646e-08
2.32379e-07
1.21654e-08
2.31783e-07
1.16793e-08
2.31183e-07
1.12042e-08
2.30581e-07
1.07379e-08
2.29979e-07
1.02788e-08
2.2938e-07
9.82375e-09
2.28786e-07
9.37256e-09
2.282e-07
8.91916e-09
2.27624e-07
8.46704e-09
2.2706e-07
8.00378e-09
2.26511e-07
7.54052e-09
2.25978e-07
7.05256e-09
2.25467e-07
6.56303e-09
2.24975e-07
6.03131e-09
2.24514e-07
5.48255e-09
2.24075e-07
4.88329e-09
2.23673e-07
4.18191e-09
2.2331e-07
3.46457e-09
2.22948e-07
2.35457e-09
2.22638e-07
1.32002e-09
-4.22747e-10
2.2212e-07
2.37601e-07
6.32568e-08
2.40579e-07
7.6862e-08
2.42e-07
5.6203e-08
2.43098e-07
4.80082e-08
2.43732e-07
4.37115e-08
2.44111e-07
3.91177e-08
2.44438e-07
3.54378e-08
2.44732e-07
3.27932e-08
2.44983e-07
3.06696e-08
2.45198e-07
2.88306e-08
2.45383e-07
2.72239e-08
2.45538e-07
2.58131e-08
2.45662e-07
2.4557e-08
2.45755e-07
2.34229e-08
2.45815e-07
2.23877e-08
2.4584e-07
2.14347e-08
2.45832e-07
2.05509e-08
2.45789e-07
1.97264e-08
2.45712e-07
1.89529e-08
2.45602e-07
1.8224e-08
2.45459e-07
1.75343e-08
2.45285e-07
1.68796e-08
2.45083e-07
1.6256e-08
2.44853e-07
1.56601e-08
2.44597e-07
1.50891e-08
2.44318e-07
1.45402e-08
2.44017e-07
1.40108e-08
2.43697e-07
1.34987e-08
2.4336e-07
1.30016e-08
2.43008e-07
1.25174e-08
2.42643e-07
1.2044e-08
2.42268e-07
1.15795e-08
2.41884e-07
1.11216e-08
2.41494e-07
1.06688e-08
2.411e-07
1.02179e-08
2.40704e-07
9.7687e-09
2.40308e-07
9.31532e-09
2.39914e-07
8.86071e-09
2.39524e-07
8.39348e-09
2.39142e-07
7.92275e-09
2.38767e-07
7.42726e-09
2.38406e-07
6.92417e-09
2.38056e-07
6.38191e-09
2.37726e-07
5.81232e-09
2.37411e-07
5.19809e-09
2.3712e-07
4.47322e-09
2.36857e-07
3.72758e-09
2.36579e-07
2.6327e-09
2.36327e-07
1.57166e-09
1.01688e-11
2.35894e-07
2.44437e-07
5.80763e-08
2.47453e-07
7.38455e-08
2.48819e-07
5.48375e-08
2.49919e-07
4.69078e-08
2.50592e-07
4.30385e-08
2.50988e-07
3.87215e-08
2.51319e-07
3.51066e-08
2.51619e-07
3.24933e-08
2.51879e-07
3.041e-08
2.52105e-07
2.86044e-08
2.52307e-07
2.70221e-08
2.52488e-07
2.5632e-08
2.52649e-07
2.43957e-08
2.52791e-07
2.32812e-08
2.52913e-07
2.22657e-08
2.53015e-07
2.13328e-08
2.53096e-07
2.04696e-08
2.53156e-07
1.96659e-08
2.53196e-07
1.89137e-08
2.53213e-07
1.82062e-08
2.5321e-07
1.7538e-08
2.53185e-07
1.69045e-08
2.53139e-07
1.63017e-08
2.53073e-07
1.57261e-08
2.52988e-07
1.51747e-08
2.52883e-07
1.46446e-08
2.52761e-07
1.4133e-08
2.52622e-07
1.36377e-08
2.52467e-07
1.31561e-08
2.52299e-07
1.26862e-08
2.52117e-07
1.22257e-08
2.51924e-07
1.17728e-08
2.5172e-07
1.13249e-08
2.51508e-07
1.08808e-08
2.51289e-07
1.04369e-08
2.51065e-07
9.99298e-09
2.50837e-07
9.54346e-09
2.50607e-07
9.0906e-09
2.50376e-07
8.62409e-09
2.50148e-07
8.15092e-09
2.49922e-07
7.65326e-09
2.49704e-07
7.14261e-09
2.4949e-07
6.59557e-09
2.4929e-07
6.01291e-09
2.49098e-07
5.38961e-09
2.48919e-07
4.6523e-09
2.48759e-07
3.88752e-09
2.48572e-07
2.81933e-09
2.4839e-07
1.75422e-09
3.49263e-10
2.48051e-07
2.51489e-07
5.3194e-08
2.54534e-07
7.08007e-08
2.55855e-07
5.35162e-08
2.56953e-07
4.581e-08
2.57664e-07
4.23276e-08
2.5808e-07
3.83058e-08
2.58417e-07
3.47693e-08
2.58722e-07
3.21878e-08
2.58987e-07
3.0145e-08
2.59218e-07
2.83735e-08
2.59426e-07
2.68147e-08
2.59615e-07
2.54428e-08
2.59788e-07
2.42224e-08
2.59947e-07
2.31223e-08
2.60093e-07
2.21203e-08
2.60225e-07
2.12002e-08
2.60345e-07
2.03497e-08
2.60453e-07
1.95587e-08
2.60547e-07
1.88191e-08
2.60629e-07
1.81244e-08
2.60698e-07
1.74692e-08
2.60754e-07
1.68487e-08
2.60796e-07
1.6259e-08
2.60826e-07
1.56964e-08
2.60843e-07
1.5158e-08
2.60847e-07
1.46405e-08
2.60838e-07
1.41415e-08
2.60818e-07
1.36581e-08
2.60786e-07
1.31881e-08
2.60743e-07
1.27292e-08
2.6069e-07
1.2279e-08
2.60627e-07
1.18356e-08
2.60555e-07
1.13964e-08
2.60476e-07
1.09599e-08
2.6039e-07
1.05228e-08
2.60299e-07
1.00845e-08
2.60202e-07
9.63967e-09
2.60103e-07
9.18982e-09
2.60001e-07
8.72579e-09
2.599e-07
8.25244e-09
2.59798e-07
7.75519e-09
2.597e-07
7.24044e-09
2.59604e-07
6.69175e-09
2.59516e-07
6.10138e-09
2.59432e-07
5.47267e-09
2.59354e-07
4.73106e-09
2.59287e-07
3.95464e-09
2.59186e-07
2.92018e-09
2.59072e-07
1.8682e-09
5.97895e-10
2.58823e-07
2.58767e-07
4.86103e-08
2.61829e-07
6.77379e-08
2.63117e-07
5.22282e-08
2.64208e-07
4.47196e-08
2.64954e-07
4.15811e-08
2.65392e-07
3.78685e-08
2.65736e-07
3.4425e-08
2.66047e-07
3.18763e-08
2.66318e-07
2.98742e-08
2.66553e-07
2.81383e-08
2.66764e-07
2.66041e-08
2.66957e-07
2.52502e-08
2.67134e-07
2.40448e-08
2.67299e-07
2.29577e-08
2.67452e-07
2.19669e-08
2.67596e-07
2.10568e-08
2.6773e-07
2.02154e-08
2.67855e-07
1.9433e-08
2.67973e-07
1.87016e-08
2.68083e-07
1.80148e-08
2.68184e-07
1.73674e-08
2.68279e-07
1.67546e-08
2.68365e-07
1.61725e-08
2.68444e-07
1.56177e-08
2.68515e-07
1.5087e-08
2.68578e-07
1.45772e-08
2.68634e-07
1.40858e-08
2.68682e-07
1.361e-08
2.68723e-07
1.31473e-08
2.68756e-07
1.26955e-08
2.68783e-07
1.22521e-08
2.68804e-07
1.18151e-08
2.68818e-07
1.13819e-08
2.68827e-07
1.09509e-08
2.68831e-07
1.05187e-08
2.68831e-07
1.00845e-08
2.68828e-07
9.64327e-09
2.68822e-07
9.1958e-09
2.68814e-07
8.73402e-09
2.68805e-07
8.26078e-09
2.68796e-07
7.76441e-09
2.68789e-07
7.24703e-09
2.68783e-07
6.69769e-09
2.68782e-07
6.10279e-09
2.68784e-07
5.47047e-09
2.68786e-07
4.72983e-09
2.68793e-07
3.94754e-09
2.68763e-07
2.94988e-09
2.68708e-07
1.92301e-09
7.68104e-10
2.68538e-07
2.66279e-07
4.43238e-08
2.69349e-07
6.4668e-08
2.70614e-07
5.09627e-08
2.71693e-07
4.3641e-08
2.72472e-07
4.08021e-08
2.72932e-07
3.7408e-08
2.73284e-07
3.40728e-08
2.73602e-07
3.15587e-08
2.73879e-07
2.95972e-08
2.74119e-07
2.78986e-08
2.74333e-07
2.63903e-08
2.74528e-07
2.5055e-08
2.74708e-07
2.38649e-08
2.74875e-07
2.27906e-08
2.75031e-07
2.18106e-08
2.75178e-07
2.09098e-08
2.75317e-07
2.00763e-08
2.75449e-07
1.93008e-08
2.75575e-07
1.85757e-08
2.75696e-07
1.78946e-08
2.75811e-07
1.72523e-08
2.75921e-07
1.66445e-08
2.76026e-07
1.60672e-08
2.76127e-07
1.55169e-08
2.76223e-07
1.49906e-08
2.76315e-07
1.44853e-08
2.76403e-07
1.39981e-08
2.76486e-07
1.35266e-08
2.76565e-07
1.3068e-08
2.76641e-07
1.26202e-08
2.76712e-07
1.21806e-08
2.7678e-07
1.17472e-08
2.76845e-07
1.13174e-08
2.76906e-07
1.08894e-08
2.76965e-07
1.04599e-08
2.77022e-07
1.00278e-08
2.77076e-07
9.58856e-09
2.7713e-07
9.14206e-09
2.77183e-07
8.68136e-09
2.77236e-07
8.2075e-09
2.77289e-07
7.71133e-09
2.77345e-07
7.19154e-09
2.77401e-07
6.64126e-09
2.7746e-07
6.04342e-09
2.77523e-07
5.40814e-09
2.77581e-07
4.67143e-09
2.77641e-07
3.88755e-09
2.77664e-07
2.92686e-09
2.77655e-07
1.93248e-09
8.76102e-10
2.77547e-07
2.74034e-07
4.03315e-08
2.771e-07
6.16017e-08
2.78353e-07
4.97096e-08
2.79416e-07
4.25778e-08
2.80224e-07
3.99943e-08
2.80709e-07
3.69229e-08
2.8107e-07
3.3712e-08
2.81394e-07
3.1235e-08
2.81677e-07
2.93138e-08
2.81922e-07
2.76538e-08
2.82139e-07
2.61729e-08
2.82337e-07
2.48572e-08
2.82519e-07
2.36827e-08
2.82688e-07
2.26216e-08
2.82846e-07
2.16526e-08
2.82995e-07
2.07609e-08
2.83136e-07
1.99352e-08
2.83271e-07
1.91663e-08
2.83399e-07
1.84468e-08
2.83524e-07
1.77705e-08
2.83643e-07
1.71325e-08
2.83759e-07
1.65284e-08
2.83872e-07
1.59544e-08
2.83982e-07
1.54072e-08
2.84089e-07
1.48837e-08
2.84193e-07
1.43809e-08
2.84295e-07
1.38963e-08
2.84395e-07
1.3427e-08
2.84492e-07
1.29706e-08
2.84587e-07
1.25248e-08
2.84681e-07
1.2087e-08
2.84773e-07
1.16552e-08
2.84864e-07
1.12268e-08
2.84953e-07
1.07999e-08
2.85042e-07
1.03713e-08
2.8513e-07
9.93973e-09
2.85218e-07
9.50081e-09
2.85306e-07
9.05388e-09
2.85394e-07
8.59293e-09
2.85484e-07
8.1175e-09
2.85575e-07
7.62044e-09
2.85669e-07
7.09797e-09
2.85764e-07
6.54596e-09
2.85862e-07
5.94588e-09
2.85962e-07
5.30774e-09
2.86057e-07
4.57638e-09
2.86151e-07
3.79407e-09
2.86209e-07
2.86872e-09
2.8623e-07
1.91066e-09
9.38164e-10
2.86168e-07
2.8204e-07
3.66286e-08
2.85092e-07
5.85501e-08
2.86342e-07
4.84593e-08
2.87387e-07
4.15327e-08
2.88219e-07
3.91622e-08
2.88731e-07
3.64117e-08
2.89101e-07
3.33412e-08
2.89431e-07
3.09054e-08
2.89721e-07
2.90237e-08
2.89971e-07
2.74037e-08
2.90192e-07
2.59518e-08
2.90393e-07
2.46565e-08
2.90577e-07
2.34982e-08
2.90748e-07
2.24506e-08
2.90908e-07
2.1493e-08
2.91058e-07
2.06107e-08
2.91201e-07
1.97928e-08
2.91337e-07
1.90305e-08
2.91467e-07
1.83165e-08
2.91592e-07
1.76449e-08
2.91714e-07
1.70108e-08
2.91833e-07
1.641e-08
2.91948e-07
1.58389e-08
2.92061e-07
1.52941e-08
2.92172e-07
1.47727e-08
2.92281e-07
1.42718e-08
2.92389e-07
1.37886e-08
2.92495e-07
1.33207e-08
2.926e-07
1.28654e-08
2.92705e-07
1.24205e-08
2.92808e-07
1.19834e-08
2.92911e-07
1.15521e-08
2.93014e-07
1.11238e-08
2.93117e-07
1.06969e-08
2.93221e-07
1.0268e-08
2.93325e-07
9.83579e-09
2.93429e-07
9.3961e-09
2.93536e-07
8.94772e-09
2.93643e-07
8.48547e-09
2.93753e-07
8.00768e-09
2.93864e-07
7.50878e-09
2.93979e-07
6.98328e-09
2.94096e-07
6.42874e-09
2.94216e-07
5.82672e-09
2.94337e-07
5.18577e-09
2.94454e-07
4.46032e-09
2.94566e-07
3.68202e-09
2.94645e-07
2.78947e-09
2.94687e-07
1.86897e-09
9.67746e-10
2.94657e-07
2.90309e-07
3.32087e-08
2.93334e-07
5.55243e-08
2.94591e-07
4.72029e-08
2.95616e-07
4.0508e-08
2.96467e-07
3.83107e-08
2.97005e-07
3.58734e-08
2.97387e-07
3.29594e-08
2.97723e-07
3.05699e-08
2.98019e-07
2.8727e-08
2.98275e-07
2.71478e-08
2.985e-07
2.57265e-08
2.98704e-07
2.44526e-08
2.98891e-07
2.33111e-08
2.99064e-07
2.22775e-08
2.99226e-07
2.13316e-08
2.99378e-07
2.0459e-08
2.99521e-07
1.96491e-08
2.99658e-07
1.88935e-08
2.9979e-07
1.81852e-08
2.99916e-07
1.75183e-08
3.00039e-07
1.68881e-08
3.00159e-07
1.62906e-08
3.00275e-07
1.57221e-08
3.0039e-07
1.51796e-08
3.00503e-07
1.466e-08
3.00614e-07
1.41606e-08
3.00724e-07
1.36786e-08
3.00833e-07
1.32117e-08
3.00941e-07
1.27571e-08
3.01049e-07
1.23125e-08
3.01157e-07
1.18756e-08
3.01265e-07
1.14441e-08
3.01373e-07
1.10155e-08
3.01482e-07
1.05878e-08
3.01592e-07
1.01581e-08
3.01704e-07
9.7245e-09
3.01816e-07
9.28336e-09
3.01931e-07
8.83292e-09
3.02048e-07
8.36869e-09
3.02167e-07
7.88808e-09
3.0229e-07
7.38664e-09
3.02415e-07
6.85793e-09
3.02543e-07
6.30033e-09
3.02674e-07
5.69654e-09
3.02806e-07
5.05304e-09
3.02933e-07
4.3336e-09
3.03054e-07
3.56124e-09
3.03145e-07
2.6987e-09
3.03198e-07
1.81522e-09
9.74427e-10
3.03192e-07
2.98848e-07
3.00636e-08
3.01836e-07
5.25356e-08
3.03107e-07
4.59326e-08
3.0411e-07
3.95049e-08
3.04975e-07
3.74451e-08
3.05541e-07
3.53075e-08
3.05936e-07
3.25649e-08
3.06277e-07
3.02285e-08
3.06581e-07
2.84238e-08
3.06843e-07
2.68858e-08
3.07072e-07
2.54969e-08
3.07279e-07
2.42455e-08
3.07469e-07
2.31212e-08
3.07645e-07
2.21021e-08
3.07808e-07
2.11682e-08
3.07961e-07
2.03056e-08
3.08107e-07
1.9504e-08
3.08245e-07
1.87553e-08
3.08377e-07
1.80527e-08
3.08505e-07
1.73906e-08
3.08628e-07
1.67644e-08
3.08749e-07
1.61702e-08
3.08867e-07
1.56044e-08
3.08982e-07
1.50641e-08
3.09096e-07
1.45463e-08
3.09208e-07
1.40483e-08
3.09319e-07
1.35675e-08
3.09429e-07
1.31013e-08
3.09539e-07
1.26472e-08
3.09649e-07
1.22029e-08
3.09759e-07
1.17658e-08
3.09869e-07
1.1334e-08
3.0998e-07
1.09047e-08
3.10091e-07
1.0476e-08
3.10204e-07
1.00451e-08
3.10319e-07
9.60987e-09
3.10435e-07
9.16694e-09
3.10554e-07
8.71415e-09
3.10675e-07
8.24754e-09
3.10799e-07
7.7639e-09
3.10927e-07
7.25954e-09
3.11057e-07
6.7276e-09
3.11191e-07
6.16669e-09
3.11326e-07
5.5613e-09
3.11463e-07
4.91571e-09
3.11595e-07
4.20222e-09
3.11718e-07
3.43733e-09
3.11815e-07
2.60206e-09
3.11876e-07
1.75386e-09
9.64151e-10
3.11887e-07
3.07667e-07
2.71835e-08
3.10608e-07
4.95952e-08
3.11899e-07
4.46415e-08
3.1288e-07
3.85238e-08
3.13754e-07
3.65706e-08
3.14348e-07
3.4714e-08
3.14757e-07
3.21563e-08
3.15104e-07
2.98808e-08
3.15414e-07
2.81139e-08
3.15682e-07
2.66175e-08
3.15917e-07
2.52624e-08
3.16128e-07
2.40347e-08
3.1632e-07
2.29284e-08
3.16498e-07
2.19241e-08
3.16664e-07
2.10027e-08
3.16819e-07
2.01504e-08
3.16966e-07
1.93574e-08
3.17105e-07
1.86158e-08
3.17239e-07
1.79191e-08
3.17368e-07
1.72619e-08
3.17492e-07
1.66397e-08
3.17614e-07
1.60488e-08
3.17732e-07
1.54858e-08
3.17849e-07
1.49477e-08
3.17963e-07
1.44318e-08
3.18076e-07
1.39352e-08
3.18188e-07
1.34555e-08
3.183e-07
1.299e-08
3.1841e-07
1.25364e-08
3.18521e-07
1.20922e-08
3.18632e-07
1.1655e-08
3.18743e-07
1.12227e-08
3.18855e-07
1.07926e-08
3.18969e-07
1.03629e-08
3.19083e-07
9.93056e-09
3.19199e-07
9.49357e-09
3.19318e-07
9.04868e-09
3.19438e-07
8.59342e-09
3.19562e-07
8.12426e-09
3.19688e-07
7.63756e-09
3.19817e-07
7.13008e-09
3.1995e-07
6.59499e-09
3.20086e-07
6.03077e-09
3.20223e-07
5.42397e-09
3.20362e-07
4.77689e-09
3.20495e-07
4.06924e-09
3.20619e-07
3.31295e-09
3.20719e-07
2.50239e-09
3.20786e-07
1.68694e-09
9.40149e-10
3.2081e-07
3.16777e-07
2.45572e-08
3.19659e-07
4.67141e-08
3.20976e-07
4.3324e-08
3.21935e-07
3.75644e-08
3.22814e-07
3.56922e-08
3.23434e-07
3.40938e-08
3.23858e-07
3.17321e-08
3.24212e-07
2.95267e-08
3.24529e-07
2.77975e-08
3.24804e-07
2.63426e-08
3.25043e-07
2.50227e-08
3.25258e-07
2.382e-08
3.25454e-07
2.27323e-08
3.25635e-07
2.17434e-08
3.25803e-07
2.08349e-08
3.2596e-07
1.99932e-08
3.26108e-07
1.9209e-08
3.26249e-07
1.84747e-08
3.26384e-07
1.77841e-08
3.26514e-07
1.71319e-08
3.2664e-07
1.65139e-08
3.26763e-07
1.59264e-08
3.26882e-07
1.53662e-08
3.26999e-07
1.48305e-08
3.27115e-07
1.43163e-08
3.27229e-07
1.38212e-08
3.27342e-07
1.33426e-08
3.27454e-07
1.28779e-08
3.27566e-07
1.24247e-08
3.27677e-07
1.19806e-08
3.27789e-07
1.15433e-08
3.27901e-07
1.11104e-08
3.28014e-07
1.06796e-08
3.28128e-07
1.02487e-08
3.28244e-07
9.81498e-09
3.28361e-07
9.37618e-09
3.28481e-07
8.92927e-09
3.28603e-07
8.47153e-09
3.28727e-07
7.99973e-09
3.28855e-07
7.51e-09
3.28985e-07
6.99937e-09
3.29119e-07
6.46127e-09
3.29256e-07
5.89387e-09
3.29394e-07
5.28587e-09
3.29533e-07
4.63797e-09
3.29666e-07
3.936e-09
3.2979e-07
3.18905e-09
3.29892e-07
2.40081e-09
3.29964e-07
1.6151e-09
9.03952e-10
3.3e-07
3.26188e-07
2.21721e-08
3.28999e-07
4.39032e-08
3.30347e-07
4.19759e-08
3.31286e-07
3.66254e-08
3.32163e-07
3.48148e-08
3.32809e-07
3.34483e-08
3.3325e-07
3.12907e-08
3.33611e-07
2.91654e-08
3.33934e-07
2.74747e-08
3.34216e-07
2.60608e-08
3.34461e-07
2.47775e-08
3.3468e-07
2.36011e-08
3.34879e-07
2.25329e-08
3.35063e-07
2.15597e-08
3.35233e-07
2.06645e-08
3.35393e-07
1.98338e-08
3.35543e-07
1.90587e-08
3.35686e-07
1.83319e-08
3.35822e-07
1.76475e-08
3.35954e-07
1.70005e-08
3.36081e-07
1.63868e-08
3.36204e-07
1.58028e-08
3.36325e-07
1.52455e-08
3.36443e-07
1.47121e-08
3.3656e-07
1.41999e-08
3.36675e-07
1.37063e-08
3.36789e-07
1.32287e-08
3.36902e-07
1.27649e-08
3.37014e-07
1.23121e-08
3.37127e-07
1.18682e-08
3.37239e-07