/*--------------------------------*- C++ -*----------------------------------*\
  =========                 |
  \\      /  F ield         | OpenFOAM: The Open Source CFD Toolbox
   \\    /   O peration     | Website:  https://openfoam.org
    \\  /    A nd           | Version:  7
     \\/     M anipulation  |
\*---------------------------------------------------------------------------*/
FoamFile
{
    version     2.0;
    format      ascii;
    class       volVectorField;
    location    "0.4";
    object      U;
}
// * * * * * * * * * * * * * * * * * * * * * * * * * * * * * * * * * * * * * //

dimensions      [0 1 -1 0 0 0 0];

internalField   nonuniform List<vector> 
70000
(
(0.553415 0.016978 0)
(0.251429 0.00340026 0)
(0.165951 0.00031881 0)
(0.132482 4.88917e-05 0)
(0.11739 4.39431e-05 0)
(0.107446 5.21041e-05 0)
(0.0994903 4.42977e-05 0)
(0.0930625 3.52113e-05 0)
(0.0878353 2.91616e-05 0)
(0.0834841 2.50103e-05 0)
(0.0797808 2.18338e-05 0)
(0.076578 1.92834e-05 0)
(0.0737744 1.71995e-05 0)
(0.071296 1.54736e-05 0)
(0.0690869 1.40245e-05 0)
(0.0671035 1.27922e-05 0)
(0.065312 1.17317e-05 0)
(0.0636851 1.08094e-05 0)
(0.062201 9.99929e-06 0)
(0.0608416 9.28137e-06 0)
(0.0595921 8.63963e-06 0)
(0.0584402 8.06154e-06 0)
(0.0573754 7.5366e-06 0)
(0.056389 7.05648e-06 0)
(0.0554736 6.61358e-06 0)
(0.0546226 6.2023e-06 0)
(0.0538309 5.8163e-06 0)
(0.0530936 5.45225e-06 0)
(0.052407 5.10368e-06 0)
(0.0517676 4.77006e-06 0)
(0.0511727 4.44261e-06 0)
(0.0506198 4.1258e-06 0)
(0.0501071 3.80441e-06 0)
(0.0496329 3.49193e-06 0)
(0.0491962 3.162e-06 0)
(0.0487961 2.83816e-06 0)
(0.0484318 2.48673e-06 0)
(0.0481046 2.11924e-06 0)
(0.047811 1.75028e-06 0)
(0.0475603 1.2442e-06 0)
(0.0473362 9.38824e-07 0)
(0.0471751 -1.83439e-08 0)
(0.0470158 9.76756e-08 0)
(0.0469802 -2.31303e-06 0)
(0.0468665 -6.41812e-07 0)
(0.0470515 -7.40575e-06 0)
(0.0469343 -4.36781e-07 0)
(0.04754 -2.01545e-05 0)
(0.0476924 1.81957e-05 0)
(0.0448799 -0.0017947 0)
(0.884864 0.0434926 0)
(0.650167 0.0201477 0)
(0.494028 0.00660325 0)
(0.40364 0.00275335 0)
(0.354961 0.00154653 0)
(0.323679 0.0011302 0)
(0.299814 0.000907704 0)
(0.28064 0.000743019 0)
(0.264965 0.000620209 0)
(0.251884 0.000529594 0)
(0.240746 0.000460754 0)
(0.231111 0.00040653 0)
(0.222672 0.000362665 0)
(0.215208 0.000326506 0)
(0.20855 0.000296243 0)
(0.202568 0.000270582 0)
(0.197161 0.000248565 0)
(0.192247 0.000229477 0)
(0.18776 0.000212773 0)
(0.183647 0.000198029 0)
(0.179863 0.000184912 0)
(0.17637 0.000173156 0)
(0.173138 0.000162543 0)
(0.17014 0.000152895 0)
(0.167353 0.000144062 0)
(0.164759 0.000135918 0)
(0.16234 0.000128351 0)
(0.160084 0.00012127 0)
(0.157977 0.000114585 0)
(0.15601 0.00010823 0)
(0.154173 0.000102122 0)
(0.15246 9.62179e-05 0)
(0.150865 9.04215e-05 0)
(0.149381 8.47311e-05 0)
(0.148006 7.89931e-05 0)
(0.146737 7.3291e-05 0)
(0.14557 6.73413e-05 0)
(0.144509 6.13833e-05 0)
(0.143543 5.49052e-05 0)
(0.142697 4.83354e-05 0)
(0.141925 4.09687e-05 0)
(0.141324 3.30069e-05 0)
(0.140728 2.449e-05 0)
(0.140457 1.28403e-05 0)
(0.139976 3.78792e-06 0)
(0.14026 -1.99011e-05 0)
(0.139745 -2.18054e-05 0)
(0.141016 -0.000118986 0)
(0.140956 0.000136176 0)
(0.139186 -0.00321809 0)
(0.991208 0.0499544 0)
(0.890941 0.03056 0)
(0.762546 0.0146071 0)
(0.656633 0.00796722 0)
(0.585573 0.00487604 0)
(0.536246 0.00347088 0)
(0.498397 0.00273451 0)
(0.467811 0.00223999 0)
(0.442544 0.00187598 0)
(0.421285 0.00160405 0)
(0.403088 0.00139629 0)
(0.387284 0.00123264 0)
(0.373398 0.00110035 0)
(0.361082 0.000991309 0)
(0.35007 0.000900041 0)
(0.340156 0.000822635 0)
(0.331178 0.000756221 0)
(0.323005 0.000698647 0)
(0.315531 0.000648274 0)
(0.308668 0.000603831 0)
(0.302346 0.000564316 0)
(0.296502 0.000528926 0)
(0.291087 0.000497011 0)
(0.286056 0.000468032 0)
(0.281372 0.000441541 0)
(0.277005 0.000417156 0)
(0.272927 0.000394551 0)
(0.269114 0.000373445 0)
(0.265548 0.000353584 0)
(0.262209 0.000334753 0)
(0.259085 0.000316732 0)
(0.256161 0.000299367 0)
(0.253429 0.000282415 0)
(0.250878 0.000265818 0)
(0.248502 0.000249206 0)
(0.246296 0.000232739 0)
(0.244255 0.000215688 0)
(0.24238 0.000198724 0)
(0.240658 0.000180271 0)
(0.239121 0.0001621 0)
(0.237704 0.000140908 0)
(0.236544 0.000120406 0)
(0.235404 9.45142e-05 0)
(0.234737 6.86734e-05 0)
(0.233779 3.60855e-05 0)
(0.233903 -8.58612e-06 0)
(0.23292 -3.62732e-05 0)
(0.234377 -0.00022982 0)
(0.233768 6.515e-05 0)
(0.23437 -0.00353686 0)
(1.01554 0.0489521 0)
(1.0065 0.03572 0)
(0.935931 0.0208134 0)
(0.852104 0.0134921 0)
(0.78238 0.00919161 0)
(0.727284 0.00677688 0)
(0.682247 0.00538041 0)
(0.644538 0.00443874 0)
(0.612579 0.00374353 0)
(0.585173 0.00321701 0)
(0.561385 0.00281011 0)
(0.540506 0.00248745 0)
(0.52201 0.00222552 0)
(0.505493 0.00200889 0)
(0.490641 0.00182704 0)
(0.477207 0.00167243 0)
(0.46499 0.00153951 0)
(0.453829 0.00142409 0)
(0.443589 0.00132297 0)
(0.434161 0.00123367 0)
(0.425451 0.00115421 0)
(0.417382 0.00108302 0)
(0.409886 0.00101881 0)
(0.402907 0.000960507 0)
(0.396397 0.000907234 0)
(0.390313 0.000858234 0)
(0.384619 0.00081286 0)
(0.379285 0.000770552 0)
(0.374283 0.000730816 0)
(0.369589 0.000693218 0)
(0.365185 0.000657339 0)
(0.361051 0.000622854 0)
(0.357175 0.000589325 0)
(0.353544 0.00055659 0)
(0.350147 0.000523999 0)
(0.346976 0.000491778 0)
(0.344024 0.000458617 0)
(0.341293 0.000425753 0)
(0.338764 0.000390127 0)
(0.336475 0.000355497 0)
(0.334349 0.000314595 0)
(0.332542 0.000276929 0)
(0.330783 0.000226046 0)
(0.329586 0.000182401 0)
(0.328089 0.000114612 0)
(0.32782 4.74837e-05 0)
(0.326372 -2.39483e-05 0)
(0.327586 -0.000300936 0)
(0.326446 -8.3125e-05 0)
(0.328102 -0.00349653 0)
(1.01434 0.0460963 0)
(1.04799 0.037336 0)
(1.0246 0.0241788 0)
(0.974754 0.0175483 0)
(0.923608 0.0130994 0)
(0.876935 0.0101955 0)
(0.834831 0.00833491 0)
(0.797146 0.00701139 0)
(0.763654 0.00599957 0)
(0.733914 0.00521089 0)
(0.707411 0.00458777 0)
(0.683677 0.00408581 0)
(0.662312 0.00367354 0)
(0.642985 0.00332946 0)
(0.62542 0.00303845 0)
(0.609389 0.00278951 0)
(0.594699 0.00257439 0)
(0.58119 0.00238679 0)
(0.568725 0.00222185 0)
(0.55719 0.00207573 0)
(0.546485 0.00194539 0)
(0.536526 0.00182837 0)
(0.527241 0.00172264 0)
(0.518566 0.00162652 0)
(0.510447 0.00153861 0)
(0.502837 0.00145771 0)
(0.495694 0.00138279 0)
(0.488983 0.00131294 0)
(0.482671 0.00124739 0)
(0.476731 0.00118543 0)
(0.471141 0.0011264 0)
(0.465878 0.00106976 0)
(0.460927 0.00101484 0)
(0.45627 0.00096133 0)
(0.451897 0.000908272 0)
(0.447797 0.000855929 0)
(0.44396 0.000802345 0)
(0.440387 0.000749353 0)
(0.437057 0.000692241 0)
(0.434007 0.000636969 0)
(0.431161 0.000571799 0)
(0.42867 0.000512782 0)
(0.426271 0.000431808 0)
(0.424462 0.000365955 0)
(0.422412 0.000257635 0)
(0.421581 0.000161825 0)
(0.419711 3.93151e-05 0)
(0.420342 -0.000314846 0)
(0.418888 -0.00021736 0)
(0.42028 -0.00338431 0)
(1.00941 0.0430458 0)
(1.05564 0.0370906 0)
(1.05869 0.0253184 0)
(1.03636 0.0197506 0)
(1.00723 0.0157842 0)
(0.976266 0.0129196 0)
(0.944797 0.0109474 0)
(0.913993 0.00946297 0)
(0.88471 0.00827024 0)
(0.857329 0.00730091 0)
(0.831928 0.00650944 0)
(0.808445 0.00585539 0)
(0.786758 0.00530736 0)
(0.766726 0.00484256 0)
(0.748202 0.00444424 0)
(0.731048 0.00409974 0)
(0.715133 0.00379929 0)
(0.70034 0.00353522 0)
(0.686563 0.00330149 0)
(0.67371 0.00309325 0)
(0.661696 0.00290659 0)
(0.650447 0.00273827 0)
(0.639898 0.00258565 0)
(0.629991 0.00244648 0)
(0.620673 0.00231887 0)
(0.611901 0.00220118 0)
(0.603632 0.00209201 0)
(0.595831 0.00199012 0)
(0.588468 0.00189443 0)
(0.581514 0.00180394 0)
(0.574944 0.00171776 0)
(0.568737 0.00163511 0)
(0.562875 0.00155508 0)
(0.557342 0.00147719 0)
(0.552124 0.00140016 0)
(0.54721 0.00132426 0)
(0.54259 0.0012469 0)
(0.538262 0.00117044 0)
(0.534208 0.00108858 0)
(0.530458 0.00100929 0)
(0.526947 0.000916689 0)
(0.523804 0.00083262 0)
(0.520801 0.000718787 0)
(0.518372 0.000625823 0)
(0.515805 0.000475878 0)
(0.514337 0.000343417 0)
(0.512101 0.000169445 0)
(0.511971 -0.000263539 0)
(0.510324 -0.000296327 0)
(0.510934 -0.00320369 0)
(1.00635 0.0401776 0)
(1.05242 0.0361433 0)
(1.06607 0.0252407 0)
(1.05957 0.0205535 0)
(1.04697 0.0172085 0)
(1.03097 0.0146345 0)
(1.01212 0.0128023 0)
(0.991494 0.0113748 0)
(0.970151 0.0101753 0)
(0.948819 0.0091575 0)
(0.927941 0.00829527 0)
(0.907781 0.00756034 0)
(0.888484 0.00692827 0)
(0.870122 0.00638024 0)
(0.852713 0.00590175 0)
(0.836245 0.00548129 0)
(0.820688 0.00510957 0)
(0.805999 0.00477901 0)
(0.792131 0.00448345 0)
(0.779037 0.00421779 0)
(0.766667 0.0039778 0)
(0.754975 0.00375994 0)
(0.743917 0.00356121 0)
(0.733452 0.00337904 0)
(0.723542 0.00321123 0)
(0.714151 0.00305586 0)
(0.705248 0.00291124 0)
(0.696803 0.00277587 0)
(0.68879 0.00264843 0)
(0.681185 0.00252769 0)
(0.673968 0.00241254 0)
(0.667118 0.00230199 0)
(0.660622 0.00219492 0)
(0.654461 0.00209068 0)
(0.648627 0.0019877 0)
(0.643107 0.00188622 0)
(0.637893 0.00178311 0)
(0.632982 0.00168107 0)
(0.62836 0.00157255 0)
(0.624047 0.00146694 0)
(0.619997 0.00134524 0)
(0.616308 0.00123326 0)
(0.612804 0.00108576 0)
(0.609826 0.000961171 0)
(0.606824 0.000771246 0)
(0.604753 0.000594366 0)
(0.602209 0.000372944 0)
(0.601322 -0.000139182 0)
(0.599483 -0.000302088 0)
(0.599271 -0.00293815 0)
(1.00506 0.0375003 0)
(1.04763 0.0350445 0)
(1.06397 0.0246924 0)
(1.06422 0.0205832 0)
(1.06076 0.0177447 0)
(1.05489 0.0154727 0)
(1.04618 0.0138555 0)
(1.03504 0.0125926 0)
(1.02219 0.0115035 0)
(1.00822 0.0105483 0)
(0.993608 0.00971321 0)
(0.978694 0.00898035 0)
(0.963747 0.00833291 0)
(0.948961 0.00775777 0)
(0.934473 0.00724463 0)
(0.920375 0.00678499 0)
(0.906727 0.00637169 0)
(0.893564 0.00599862 0)
(0.880904 0.00566058 0)
(0.868751 0.00535314 0)
(0.857102 0.00507248 0)
(0.845948 0.0048153 0)
(0.835274 0.00457873 0)
(0.825066 0.00436025 0)
(0.815306 0.00415764 0)
(0.805976 0.00396889 0)
(0.79706 0.00379227 0)
(0.78854 0.00362614 0)
(0.780401 0.00346907 0)
(0.772627 0.00331972 0)
(0.765205 0.00317681 0)
(0.758121 0.00303924 0)
(0.751365 0.00290571 0)
(0.744925 0.00277546 0)
(0.738794 0.00264669 0)
(0.732963 0.00251956 0)
(0.727429 0.00239057 0)
(0.722186 0.00226257 0)
(0.717227 0.00212716 0)
(0.712567 0.00199446 0)
(0.708174 0.00184362 0)
(0.704119 0.00170224 0)
(0.700278 0.00152195 0)
(0.696901 0.00136268 0)
(0.693592 0.00113571 0)
(0.691046 0.000909644 0)
(0.688272 0.00064357 0)
(0.686758 5.84338e-05 0)
(0.684719 -0.000231545 0)
(0.683799 -0.00259674 0)
(1.00451 0.0349642 0)
(1.0436 0.0339642 0)
(1.05995 0.0240407 0)
(1.06226 0.0202926 0)
(1.06258 0.0178078 0)
(1.06194 0.0157499 0)
(1.05941 0.014306 0)
(1.0549 0.0132085 0)
(1.04873 0.0122611 0)
(1.04122 0.0114175 0)
(1.03264 0.0106663 0)
(1.02325 0.00999381 0)
(1.01328 0.00938696 0)
(1.00291 0.00883632 0)
(0.992332 0.00833489 0)
(0.98166 0.00787706 0)
(0.971001 0.00745798 0)
(0.960438 0.00707347 0)
(0.950031 0.00671981 0)
(0.939826 0.00639374 0)
(0.929858 0.00609234 0)
(0.92015 0.00581301 0)
(0.910717 0.00555339 0)
(0.90157 0.00531134 0)
(0.892715 0.0050849 0)
(0.884153 0.00487229 0)
(0.875884 0.00467187 0)
(0.867906 0.0044821 0)
(0.860217 0.00430157 0)
(0.852812 0.00412895 0)
(0.845687 0.00396294 0)
(0.838838 0.00380238 0)
(0.832261 0.00364592 0)
(0.825951 0.00349271 0)
(0.819907 0.00334083 0)
(0.814124 0.00319037 0)
(0.808603 0.00303759 0)
(0.803342 0.00288534 0)
(0.798339 0.00272477 0)
(0.793604 0.00256613 0)
(0.78912 0.00238789 0)
(0.784939 0.00221749 0)
(0.780976 0.00200677 0)
(0.77741 0.00181206 0)
(0.77397 0.00155157 0)
(0.771142 0.00127555 0)
(0.768257 0.000966656 0)
(0.76631 0.000319445 0)
(0.764119 -8.887e-05 0)
(0.762659 -0.00219644 0)
(1.00412 0.0325335 0)
(1.04027 0.0329103 0)
(1.05619 0.0234054 0)
(1.0589 0.019907 0)
(1.06031 0.0176773 0)
(1.06171 0.0157506 0)
(1.06211 0.0144078 0)
(1.06126 0.0134252 0)
(1.05924 0.0125934 0)
(1.05617 0.011855 0)
(1.05213 0.0111964 0)
(1.04724 0.0106033 0)
(1.04163 0.0100627 0)
(1.03542 0.00956573 0)
(1.02873 0.00910661 0)
(1.02167 0.008681 0)
(1.01434 0.00828547 0)
(1.00682 0.00791714 0)
(0.999195 0.0075735 0)
(0.991512 0.00725234 0)
(0.983827 0.00695166 0)
(0.976181 0.00666962 0)
(0.968608 0.0064045 0)
(0.961136 0.0061547 0)
(0.953786 0.00591868 0)
(0.946577 0.00569501 0)
(0.939522 0.0054823 0)
(0.932632 0.00527924 0)
(0.925916 0.00508457 0)
(0.919381 0.00489707 0)
(0.913032 0.00471553 0)
(0.906874 0.00453883 0)
(0.90091 0.00436563 0)
(0.895144 0.00419507 0)
(0.889578 0.00402519 0)
(0.884215 0.00385604 0)
(0.87906 0.00368376 0)
(0.874114 0.0035111 0)
(0.869382 0.00332911 0)
(0.864873 0.00314768 0)
(0.860579 0.00294557 0)
(0.856539 0.00274858 0)
(0.8527 0.00251126 0)
(0.849189 0.00228279 0)
(0.845826 0.001993 0)
(0.842941 0.0016699 0)
(0.840105 0.00132036 0)
(0.837946 0.000625507 0)
(0.835707 0.000114921 0)
(0.833905 -0.00175848 0)
(1.00374 0.030199 0)
(1.03728 0.0318606 0)
(1.05285 0.0228011 0)
(1.05567 0.0195037 0)
(1.05721 0.0174855 0)
(1.05917 0.0156472 0)
(1.06064 0.0143517 0)
(1.06136 0.0134323 0)
(1.06141 0.0126736 0)
(1.0608 0.012009 0)
(1.05954 0.0114223 0)
(1.05764 0.0108977 0)
(1.05514 0.0104209 0)
(1.05209 0.00998171 0)
(1.04854 0.00957387 0)
(1.04455 0.00919297 0)
(1.0402 0.00883574 0)
(1.03554 0.00849969 0)
(1.03062 0.00818279 0)
(1.0255 0.00788336 0)
(1.02022 0.00759993 0)
(1.01483 0.00733119 0)
(1.00936 0.00707588 0)
(1.00385 0.00683284 0)
(0.99832 0.00660092 0)
(0.9928 0.006379 0)
(0.987309 0.00616599 0)
(0.981865 0.0059608 0)
(0.976485 0.00576239 0)
(0.971182 0.00556967 0)
(0.965969 0.00538158 0)
(0.960857 0.00519708 0)
(0.955855 0.00501489 0)
(0.950972 0.00483421 0)
(0.946216 0.00465307 0)
(0.941594 0.0044715 0)
(0.937116 0.00428565 0)
(0.932786 0.00409809 0)
(0.928614 0.00390001 0)
(0.924609 0.00370062 0)
(0.920771 0.00347968 0)
(0.917131 0.00326029 0)
(0.913658 0.00300145 0)
(0.91044 0.0027431 0)
(0.907368 0.00242901 0)
(0.904653 0.00206459 0)
(0.902037 0.00167792 0)
(0.899892 0.000951184 0)
(0.897741 0.000356633 0)
(0.895804 -0.00130851 0)
(1.00337 0.0279633 0)
(1.03444 0.0308029 0)
(1.04974 0.0222217 0)
(1.0527 0.0190976 0)
(1.05421 0.0172751 0)
(1.05622 0.0155146 0)
(1.05797 0.0142409 0)
(1.05921 0.013352 0)
(1.06007 0.0126337 0)
(1.06057 0.0120122 0)
(1.0607 0.0114701 0)
(1.06043 0.0109917 0)
(1.05977 0.0105615 0)
(1.05871 0.0101682 0)
(1.05727 0.00980446 0)
(1.05548 0.00946508 0)
(1.05335 0.0091464 0)
(1.05091 0.00884561 0)
(1.0482 0.00856057 0)
(1.04525 0.00828961 0)
(1.04209 0.00803134 0)
(1.03875 0.0077846 0)
(1.03525 0.00754833 0)
(1.03164 0.00732155 0)
(1.02792 0.00710332 0)
(1.02412 0.0068927 0)
(1.02027 0.0066888 0)
(1.01637 0.00649067 0)
(1.01246 0.00629742 0)
(1.00855 0.0061081 0)
(1.00464 0.00592174 0)
(1.00076 0.0057374 0)
(0.996915 0.00555385 0)
(0.993117 0.00537035 0)
(0.989379 0.00518496 0)
(0.985709 0.00499769 0)
(0.982119 0.00480472 0)
(0.978619 0.00460842 0)
(0.975217 0.00440029 0)
(0.971926 0.00418861 0)
(0.96875 0.00395468 0)
(0.965714 0.00371819 0)
(0.962802 0.00344367 0)
(0.960075 0.00316086 0)
(0.957472 0.00282795 0)
(0.955122 0.00243001 0)
(0.952882 0.00201123 0)
(0.950947 0.00126777 0)
(0.949024 0.00060813 0)
(0.947147 -0.000872033 0)
(1.00301 0.0258298 0)
(1.03172 0.029733 0)
(1.04675 0.0216635 0)
(1.04991 0.0186886 0)
(1.05139 0.0170529 0)
(1.05337 0.0153749 0)
(1.05515 0.0141164 0)
(1.05651 0.0132435 0)
(1.05759 0.012548 0)
(1.05848 0.01195 0)
(1.05917 0.0114322 0)
(1.05964 0.0109802 0)
(1.05988 0.0105784 0)
(1.05988 0.0102148 0)
(1.05964 0.00988134 0)
(1.05916 0.00957243 0)
(1.05844 0.00928378 0)
(1.05748 0.00901216 0)
(1.05631 0.00875507 0)
(1.05493 0.00851057 0)
(1.05336 0.00827713 0)
(1.05161 0.00805344 0)
(1.04969 0.00783842 0)
(1.04764 0.00763105 0)
(1.04546 0.00743041 0)
(1.04316 0.00723559 0)
(1.04077 0.00704573 0)
(1.0383 0.00685995 0)
(1.03577 0.00667739 0)
(1.03318 0.00649715 0)
(1.03055 0.0063183 0)
(1.02789 0.00613995 0)
(1.02522 0.00596089 0)
(1.02254 0.0057804 0)
(1.01987 0.00559653 0)
(1.01722 0.00540928 0)
(1.0146 0.00521488 0)
(1.01201 0.00501544 0)
(1.00948 0.0048029 0)
(1.00701 0.00458441 0)
(1.0046 0.00434315 0)
(1.00228 0.00409503 0)
(1.00005 0.00381054 0)
(0.997935 0.00350931 0)
(0.995917 0.00316299 0)
(0.994063 0.00274024 0)
(0.992307 0.00229525 0)
(0.990728 0.00154887 0)
(0.989141 0.00084497 0)
(0.98748 -0.000473079 0)
(1.00268 0.0238012 0)
(1.02912 0.0286493 0)
(1.04384 0.021126 0)
(1.04722 0.0182764 0)
(1.0487 0.0168172 0)
(1.05065 0.0152308 0)
(1.05242 0.013989 0)
(1.05379 0.0131275 0)
(1.05491 0.0124483 0)
(1.05589 0.011865 0)
(1.05675 0.0113607 0)
(1.05748 0.0109228 0)
(1.05809 0.0105364 0)
(1.05856 0.0101896 0)
(1.05888 0.00987404 0)
(1.05907 0.00958395 0)
(1.05911 0.00931479 0)
(1.059 0.00906303 0)
(1.05874 0.00882591 0)
(1.05833 0.00860124 0)
(1.05779 0.00838725 0)
(1.05711 0.00818249 0)
(1.05629 0.00798569 0)
(1.05536 0.00779573 0)
(1.05431 0.00761161 0)
(1.05316 0.00743233 0)
(1.05191 0.00725697 0)
(1.05057 0.00708462 0)
(1.04915 0.00691436 0)
(1.04766 0.00674529 0)
(1.04612 0.00657642 0)
(1.04452 0.00640687 0)
(1.04288 0.00623539 0)
(1.04122 0.00606124 0)
(1.03953 0.00588246 0)
(1.03782 0.00569896 0)
(1.03611 0.00550705 0)
(1.03441 0.00530849 0)
(1.03272 0.00509577 0)
(1.03105 0.00487476 0)
(1.02942 0.00463071 0)
(1.02783 0.00437563 0)
(1.0263 0.00408595 0)
(1.02483 0.00377198 0)
(1.02343 0.00341692 0)
(1.02213 0.00297778 0)
(1.02089 0.00251276 0)
(1.01974 0.00177493 0)
(1.01855 0.00104643 0)
(1.01721 -0.00012999 0)
(1.00238 0.0218791 0)
(1.02665 0.027551 0)
(1.04101 0.020609 0)
(1.04461 0.0178627 0)
(1.04611 0.0165668 0)
(1.04803 0.0150807 0)
(1.04979 0.0138601 0)
(1.05116 0.013009 0)
(1.05227 0.0123444 0)
(1.05326 0.0117734 0)
(1.05415 0.0112784 0)
(1.05495 0.0108489 0)
(1.05566 0.0104712 0)
(1.05629 0.0101335 0)
(1.05684 0.00982776 0)
(1.05731 0.00954812 0)
(1.0577 0.00929006 0)
(1.05799 0.00905001 0)
(1.0582 0.00882509 0)
(1.05832 0.00861299 0)
(1.05835 0.00841182 0)
(1.05829 0.00821999 0)
(1.05814 0.00803613 0)
(1.05791 0.007859 0)
(1.05759 0.00768749 0)
(1.05719 0.00752051 0)
(1.05672 0.00735706 0)
(1.05617 0.00719613 0)
(1.05556 0.00703673 0)
(1.05488 0.00687789 0)
(1.05415 0.00671856 0)
(1.05336 0.0065578 0)
(1.05253 0.0063943 0)
(1.05166 0.00622727 0)
(1.05076 0.0060547 0)
(1.04983 0.00587638 0)
(1.04889 0.00568872 0)
(1.04793 0.00549306 0)
(1.04696 0.00528249 0)
(1.046 0.00506153 0)
(1.04505 0.00481756 0)
(1.04412 0.00455879 0)
(1.04322 0.00426716 0)
(1.04235 0.00394501 0)
(1.04152 0.00358461 0)
(1.04074 0.00313621 0)
(1.04001 0.00265693 0)
(1.03929 0.00193608 0)
(1.03851 0.00120013 0)
(1.03751 0.000146425 0)
(1.0021 0.0200645 0)
(1.02431 0.0264399 0)
(1.03828 0.02011 0)
(1.04209 0.0174493 0)
(1.04361 0.0163016 0)
(1.04549 0.0149234 0)
(1.04726 0.0137291 0)
(1.04863 0.0128884 0)
(1.04973 0.0122383 0)
(1.0507 0.0116795 0)
(1.05158 0.0111928 0)
(1.05238 0.0107699 0)
(1.05312 0.0103982 0)
(1.05379 0.0100663 0)
(1.0544 0.00976624 0)
(1.05497 0.00949242 0)
(1.05548 0.00924042 0)
(1.05594 0.00900673 0)
(1.05635 0.00878852 0)
(1.05671 0.00858346 0)
(1.05701 0.00838964 0)
(1.05727 0.00820544 0)
(1.05747 0.00802942 0)
(1.05761 0.00786031 0)
(1.05771 0.00769693 0)
(1.05775 0.00753812 0)
(1.05774 0.00738281 0)
(1.05768 0.00722993 0)
(1.05757 0.00707841 0)
(1.05742 0.00692721 0)
(1.05723 0.00677521 0)
(1.05699 0.00662141 0)
(1.05672 0.00646442 0)
(1.05641 0.00630338 0)
(1.05608 0.00613626 0)
(1.05571 0.00596268 0)
(1.05533 0.00577918 0)
(1.05494 0.00558663 0)
(1.05453 0.00537877 0)
(1.05411 0.00515874 0)
(1.0537 0.00491599 0)
(1.05329 0.00465525 0)
(1.0529 0.00436326 0)
(1.05252 0.00403603 0)
(1.05217 0.00367229 0)
(1.05183 0.00321994 0)
(1.05152 0.00273125 0)
(1.05119 0.00203275 0)
(1.05075 0.00130273 0)
(1.05009 0.000354788 0)
(1.00185 0.0183577 0)
(1.02211 0.0253202 0)
(1.03565 0.0196255 0)
(1.03965 0.0170381 0)
(1.0412 0.0160224 0)
(1.04305 0.0147579 0)
(1.04482 0.0135954 0)
(1.04618 0.0127655 0)
(1.04727 0.01213 0)
(1.04823 0.011584 0)
(1.0491 0.0111059 0)
(1.04989 0.0106893 0)
(1.05062 0.0103228 0)
(1.05129 0.00999547 0)
(1.05191 0.00969957 0)
(1.05249 0.00942957 0)
(1.05304 0.00918123 0)
(1.05355 0.00895115 0)
(1.05403 0.00873658 0)
(1.05447 0.00853526 0)
(1.05489 0.00834531 0)
(1.05528 0.00816512 0)
(1.05563 0.00799329 0)
(1.05596 0.00782853 0)
(1.05625 0.00766963 0)
(1.05652 0.00751544 0)
(1.05675 0.00736485 0)
(1.05695 0.00721673 0)
(1.05713 0.00706997 0)
(1.05727 0.0069235 0)
(1.05739 0.00677612 0)
(1.05749 0.0066268 0)
(1.05755 0.00647407 0)
(1.0576 0.00631703 0)
(1.05763 0.00615362 0)
(1.05763 0.00598328 0)
(1.05763 0.00580272 0)
(1.05761 0.00561232 0)
(1.05758 0.00540648 0)
(1.05754 0.00518704 0)
(1.05751 0.00494533 0)
(1.05748 0.00468308 0)
(1.05745 0.00439095 0)
(1.05743 0.00406038 0)
(1.05743 0.00369409 0)
(1.05743 0.00324126 0)
(1.05744 0.00274695 0)
(1.0574 0.00207333 0)
(1.05724 0.0013588 0)
(1.05685 0.000501977 0)
(1.00162 0.0167584 0)
(1.02005 0.0241961 0)
(1.03312 0.0191514 0)
(1.0373 0.0166307 0)
(1.03888 0.0157301 0)
(1.04069 0.0145837 0)
(1.04246 0.0134588 0)
(1.04383 0.0126401 0)
(1.04491 0.0120193 0)
(1.04586 0.0114867 0)
(1.04671 0.0110177 0)
(1.04749 0.0106075 0)
(1.0482 0.0102463 0)
(1.04886 0.00992338 0)
(1.04948 0.00963121 0)
(1.05006 0.00936438 0)
(1.0506 0.00911881 0)
(1.05112 0.00889121 0)
(1.05161 0.00867891 0)
(1.05208 0.00847973 0)
(1.05253 0.00829184 0)
(1.05296 0.0081137 0)
(1.05337 0.00794392 0)
(1.05376 0.00778125 0)
(1.05414 0.00762451 0)
(1.0545 0.00747253 0)
(1.05484 0.00732421 0)
(1.05517 0.0071784 0)
(1.05548 0.00703399 0)
(1.05577 0.00688985 0)
(1.05605 0.00674478 0)
(1.05632 0.00659769 0)
(1.05657 0.0064471 0)
(1.05681 0.00629203 0)
(1.05704 0.00613043 0)
(1.05726 0.00596159 0)
(1.05747 0.00578239 0)
(1.05768 0.00559273 0)
(1.05788 0.00538769 0)
(1.05808 0.00516787 0)
(1.05829 0.0049263 0)
(1.05849 0.00466227 0)
(1.0587 0.0043694 0)
(1.05892 0.00403623 0)
(1.05915 0.00366743 0)
(1.05938 0.00321605 0)
(1.0596 0.00271894 0)
(1.05976 0.00207058 0)
(1.0598 0.00137779 0)
(1.05962 0.000598769 0)
(1.00142 0.0152658 0)
(1.01812 0.0230717 0)
(1.03069 0.0186836 0)
(1.03504 0.0162284 0)
(1.03666 0.0154261 0)
(1.03843 0.0144 0)
(1.04019 0.0133189 0)
(1.04156 0.0125124 0)
(1.04264 0.0119059 0)
(1.04357 0.0113874 0)
(1.04442 0.0109281 0)
(1.04518 0.0105246 0)
(1.04589 0.0101688 0)
(1.04653 0.00985047 0)
(1.04714 0.00956203 0)
(1.0477 0.00929827 0)
(1.04824 0.00905525 0)
(1.04875 0.00882977 0)
(1.04923 0.00861927 0)
(1.0497 0.00842161 0)
(1.05015 0.00823504 0)
(1.05059 0.00805804 0)
(1.05101 0.0078893 0)
(1.05142 0.00772759 0)
(1.05182 0.00757175 0)
(1.05222 0.00742065 0)
(1.0526 0.00727317 0)
(1.05297 0.0071282 0)
(1.05333 0.00698458 0)
(1.05369 0.00684121 0)
(1.05404 0.00669684 0)
(1.05438 0.00655038 0)
(1.05472 0.00640033 0)
(1.05506 0.00624566 0)
(1.05539 0.00608435 0)
(1.05571 0.00591554 0)
(1.05604 0.00573629 0)
(1.05636 0.00554608 0)
(1.05669 0.00534057 0)
(1.05702 0.00511937 0)
(1.05735 0.00487686 0)
(1.05769 0.0046105 0)
(1.05804 0.004316 0)
(1.0584 0.00398042 0)
(1.05876 0.00360883 0)
(1.05912 0.0031598 0)
(1.05947 0.00266201 0)
(1.05975 0.00203798 0)
(1.05992 0.00137027 0)
(1.05988 0.000657276 0)
(1.00124 0.0138785 0)
(1.01633 0.0219509 0)
(1.02838 0.0182184 0)
(1.03286 0.0158326 0)
(1.03453 0.0151121 0)
(1.03626 0.0142064 0)
(1.038 0.0131754 0)
(1.03938 0.0123823 0)
(1.04046 0.01179 0)
(1.04138 0.0112859 0)
(1.04221 0.0108369 0)
(1.04297 0.0104406 0)
(1.04366 0.0100904 0)
(1.04429 0.00977674 0)
(1.04489 0.00949216 0)
(1.04544 0.00923154 0)
(1.04596 0.00899106 0)
(1.04646 0.00876767 0)
(1.04694 0.00855885 0)
(1.0474 0.00836253 0)
(1.04784 0.00817702 0)
(1.04827 0.00800086 0)
(1.04869 0.00783276 0)
(1.0491 0.00767153 0)
(1.04951 0.00751604 0)
(1.0499 0.00736519 0)
(1.05029 0.00721786 0)
(1.05067 0.00707296 0)
(1.05105 0.00692932 0)
(1.05143 0.00678583 0)
(1.0518 0.00664125 0)
(1.05218 0.00649446 0)
(1.05255 0.00634397 0)
(1.05292 0.00618869 0)
(1.05329 0.00602667 0)
(1.05366 0.00585687 0)
(1.05403 0.00567658 0)
(1.05441 0.00548486 0)
(1.05479 0.00527793 0)
(1.05518 0.00505454 0)
(1.05558 0.00481017 0)
(1.05599 0.00454098 0)
(1.0564 0.00424403 0)
(1.05683 0.00390603 0)
(1.05726 0.00353142 0)
(1.05768 0.00308506 0)
(1.05809 0.00258825 0)
(1.05844 0.0019869 0)
(1.05868 0.00134552 0)
(1.05873 0.000688407 0)
(1.00107 0.0125945 0)
(1.01467 0.0208379 0)
(1.02617 0.0177524 0)
(1.03078 0.0154441 0)
(1.03249 0.0147899 0)
(1.03418 0.0140024 0)
(1.03591 0.0130277 0)
(1.03729 0.0122499 0)
(1.03837 0.0116713 0)
(1.03928 0.0111822 0)
(1.0401 0.0107442 0)
(1.04085 0.0103553 0)
(1.04153 0.0100109 0)
(1.04215 0.00970212 0)
(1.04273 0.00942153 0)
(1.04328 0.00916416 0)
(1.04379 0.00892632 0)
(1.04428 0.00870506 0)
(1.04474 0.00849793 0)
(1.04519 0.00830294 0)
(1.04563 0.00811845 0)
(1.04605 0.00794303 0)
(1.04646 0.00777544 0)
(1.04686 0.00761453 0)
(1.04726 0.00745919 0)
(1.04765 0.00730834 0)
(1.04803 0.00716088 0)
(1.04841 0.00701571 0)
(1.04879 0.00687168 0)
(1.04917 0.00672766 0)
(1.04955 0.00658242 0)
(1.04992 0.0064348 0)
(1.0503 0.00628336 0)
(1.05068 0.00612692 0)
(1.05106 0.00596361 0)
(1.05144 0.00579226 0)
(1.05183 0.00561031 0)
(1.05223 0.00541651 0)
(1.05263 0.00520752 0)
(1.05304 0.00498145 0)
(1.05347 0.00473458 0)
(1.0539 0.00446227 0)
(1.05434 0.0041623 0)
(1.05479 0.00382187 0)
(1.05524 0.00344421 0)
(1.05569 0.00300056 0)
(1.05612 0.0025061 0)
(1.0565 0.00192551 0)
(1.05677 0.0013103 0)
(1.05688 0.000700418 0)
(1.00093 0.0114111 0)
(1.01314 0.0197366 0)
(1.02407 0.0172826 0)
(1.02877 0.0150635 0)
(1.03055 0.0144613 0)
(1.0322 0.0137877 0)
(1.03391 0.0128753 0)
(1.03529 0.0121152 0)
(1.03636 0.01155 0)
(1.03727 0.011076 0)
(1.03808 0.0106496 0)
(1.03882 0.0102687 0)
(1.03949 0.00993033 0)
(1.0401 0.00962653 0)
(1.04067 0.00935009 0)
(1.04121 0.00909609 0)
(1.04171 0.00886098 0)
(1.04219 0.00864191 0)
(1.04264 0.00843653 0)
(1.04308 0.0082429 0)
(1.04351 0.00805943 0)
(1.04392 0.00788475 0)
(1.04432 0.00771766 0)
(1.04471 0.00755702 0)
(1.0451 0.00740178 0)
(1.04548 0.00725086 0)
(1.04586 0.00710316 0)
(1.04623 0.0069576 0)
(1.04661 0.00681303 0)
(1.04698 0.00666832 0)
(1.04735 0.00652221 0)
(1.04772 0.00637356 0)
(1.04809 0.00622092 0)
(1.04847 0.00606307 0)
(1.04885 0.00589819 0)
(1.04923 0.00572498 0)
(1.04962 0.00554106 0)
(1.05002 0.00534489 0)
(1.05043 0.00513349 0)
(1.05084 0.00490449 0)
(1.05127 0.00465474 0)
(1.0517 0.00437919 0)
(1.05215 0.0040759 0)
(1.0526 0.00373309 0)
(1.05306 0.00335256 0)
(1.05351 0.00291158 0)
(1.05394 0.00242059 0)
(1.05432 0.00185884 0)
(1.05461 0.00126873 0)
(1.05475 0.000698657 0)
(1.0008 0.0103251 0)
(1.01174 0.0186512 0)
(1.02209 0.0168061 0)
(1.02686 0.0146911 0)
(1.0287 0.0141286 0)
(1.03031 0.0135623 0)
(1.03199 0.0127175 0)
(1.03338 0.0119781 0)
(1.03445 0.0114261 0)
(1.03535 0.0109672 0)
(1.03615 0.0105531 0)
(1.03688 0.0101806 0)
(1.03754 0.0098485 0)
(1.03814 0.00954988 0)
(1.03871 0.00927775 0)
(1.03923 0.00902725 0)
(1.03972 0.00879497 0)
(1.04019 0.00857817 0)
(1.04064 0.00837459 0)
(1.04107 0.00818237 0)
(1.04148 0.00799996 0)
(1.04189 0.00782604 0)
(1.04228 0.00765945 0)
(1.04266 0.0074991 0)
(1.04304 0.00734394 0)
(1.04342 0.00719292 0)
(1.04379 0.00704497 0)
(1.04415 0.00689898 0)
(1.04452 0.00675382 0)
(1.04488 0.00660834 0)
(1.04524 0.00646131 0)
(1.04561 0.00631153 0)
(1.04597 0.00615759 0)
(1.04634 0.00599822 0)
(1.04671 0.00583165 0)
(1.04709 0.00565646 0)
(1.04748 0.00547042 0)
(1.04787 0.00527175 0)
(1.04827 0.00505776 0)
(1.04868 0.00482576 0)
(1.0491 0.00457293 0)
(1.04953 0.00429415 0)
(1.04997 0.00398744 0)
(1.05041 0.00364234 0)
(1.05087 0.00325931 0)
(1.05131 0.00282093 0)
(1.05173 0.0023343 0)
(1.05211 0.00178956 0)
(1.0524 0.00122288 0)
(1.05256 0.000686205 0)
(1.00069 0.00933272 0)
(1.01047 0.0175859 0)
(1.02022 0.0163206 0)
(1.02503 0.0143267 0)
(1.02694 0.0137936 0)
(1.02852 0.0133263 0)
(1.03016 0.0125538 0)
(1.03155 0.0118385 0)
(1.03263 0.0112995 0)
(1.03352 0.0108558 0)
(1.03431 0.0104545 0)
(1.03503 0.0100909 0)
(1.03568 0.00976534 0)
(1.03628 0.00947209 0)
(1.03683 0.00920443 0)
(1.03735 0.00895757 0)
(1.03783 0.00872821 0)
(1.03829 0.00851376 0)
(1.03873 0.00831205 0)
(1.03915 0.00812129 0)
(1.03956 0.00793997 0)
(1.03995 0.00776685 0)
(1.04034 0.00760078 0)
(1.04071 0.00744073 0)
(1.04108 0.00728566 0)
(1.04145 0.00713455 0)
(1.04181 0.00698633 0)
(1.04217 0.00683992 0)
(1.04252 0.00669415 0)
(1.04288 0.00654789 0)
(1.04323 0.00639989 0)
(1.04359 0.00624896 0)
(1.04395 0.00609368 0)
(1.04431 0.00593275 0)
(1.04467 0.00576443 0)
(1.04504 0.00558722 0)
(1.04542 0.00539898 0)
(1.0458 0.00519778 0)
(1.0462 0.00498112 0)
(1.0466 0.00474611 0)
(1.04701 0.00449014 0)
(1.04743 0.00420818 0)
(1.04786 0.00389812 0)
(1.0483 0.00355085 0)
(1.04874 0.00316573 0)
(1.04917 0.00272989 0)
(1.04958 0.00224826 0)
(1.04994 0.00171883 0)
(1.05024 0.00117351 0)
(1.05042 0.000664597 0)
(1.0006 0.00842957 0)
(1.0093 0.0165446 0)
(1.01846 0.0158245 0)
(1.02328 0.0139702 0)
(1.02526 0.0134582 0)
(1.02681 0.0130802 0)
(1.02842 0.0123835 0)
(1.02981 0.0116961 0)
(1.03089 0.0111703 0)
(1.03177 0.0107416 0)
(1.03256 0.0103537 0)
(1.03327 0.00999952 0)
(1.03392 0.00968078 0)
(1.03451 0.00939307 0)
(1.03505 0.00913003 0)
(1.03556 0.00888695 0)
(1.03603 0.00866063 0)
(1.03648 0.00844862 0)
(1.03691 0.00824884 0)
(1.03733 0.00805959 0)
(1.03773 0.00787941 0)
(1.03811 0.00770711 0)
(1.03849 0.0075416 0)
(1.03886 0.00738186 0)
(1.03922 0.0072269 0)
(1.03958 0.00707571 0)
(1.03993 0.00692723 0)
(1.04028 0.00678038 0)
(1.04063 0.006634 0)
(1.04098 0.00648695 0)
(1.04132 0.00633799 0)
(1.04167 0.00618589 0)
(1.04202 0.00602926 0)
(1.04237 0.00586674 0)
(1.04273 0.00569666 0)
(1.04309 0.00551741 0)
(1.04346 0.00532695 0)
(1.04384 0.00512323 0)
(1.04422 0.00490386 0)
(1.04461 0.00466588 0)
(1.04501 0.00440677 0)
(1.04542 0.00412172 0)
(1.04584 0.00380841 0)
(1.04627 0.0034591 0)
(1.04669 0.00307235 0)
(1.04711 0.00263896 0)
(1.04751 0.00216268 0)
(1.04787 0.00164699 0)
(1.04816 0.0011207 0)
(1.04836 0.00063448 0)
(1.00051 0.00761091 0)
(1.00826 0.0155313 0)
(1.01681 0.0153164 0)
(1.02162 0.0136208 0)
(1.02367 0.0131243 0)
(1.02519 0.0128248 0)
(1.02677 0.0122061 0)
(1.02815 0.0115508 0)
(1.02923 0.0110386 0)
(1.03012 0.0106246 0)
(1.03089 0.0102505 0)
(1.0316 0.00990629 0)
(1.03224 0.00959469 0)