/*--------------------------------*- C++ -*----------------------------------*\
  =========                 |
  \\      /  F ield         | OpenFOAM: The Open Source CFD Toolbox
   \\    /   O peration     | Website:  https://openfoam.org
    \\  /    A nd           | Version:  7
     \\/     M anipulation  |
\*---------------------------------------------------------------------------*/
FoamFile
{
    version     2.0;
    format      ascii;
    class       volVectorField;
    location    "0.4";
    object      U_0;
}
// * * * * * * * * * * * * * * * * * * * * * * * * * * * * * * * * * * * * * //

dimensions      [0 1 -1 0 0 0 0];

internalField   nonuniform List<vector> 
70000
(
(0.553415 0.016978 0)
(0.251429 0.00340026 0)
(0.165951 0.000318809 0)
(0.132482 4.88913e-05 0)
(0.11739 4.39427e-05 0)
(0.107446 5.21038e-05 0)
(0.0994903 4.42973e-05 0)
(0.0930625 3.52109e-05 0)
(0.0878353 2.91611e-05 0)
(0.0834841 2.50098e-05 0)
(0.0797808 2.18333e-05 0)
(0.076578 1.92828e-05 0)
(0.0737744 1.71989e-05 0)
(0.071296 1.54729e-05 0)
(0.0690868 1.40238e-05 0)
(0.0671035 1.27914e-05 0)
(0.065312 1.17309e-05 0)
(0.0636851 1.08086e-05 0)
(0.062201 9.99834e-06 0)
(0.0608416 9.28034e-06 0)
(0.0595921 8.63852e-06 0)
(0.0584402 8.06033e-06 0)
(0.0573755 7.5353e-06 0)
(0.0563891 7.05506e-06 0)
(0.0554737 6.61204e-06 0)
(0.0546228 6.20063e-06 0)
(0.053831 5.81449e-06 0)
(0.0530938 5.45027e-06 0)
(0.0524072 5.10153e-06 0)
(0.0517679 4.76771e-06 0)
(0.051173 4.44007e-06 0)
(0.0506201 4.12304e-06 0)
(0.0501076 3.80145e-06 0)
(0.0496334 3.48878e-06 0)
(0.0491968 3.1587e-06 0)
(0.0487968 2.83476e-06 0)
(0.0484326 2.48336e-06 0)
(0.0481055 2.11604e-06 0)
(0.047812 1.74753e-06 0)
(0.0475614 1.24232e-06 0)
(0.0473374 9.38274e-07 0)
(0.0471763 -1.62963e-08 0)
(0.047017 1.02879e-07 0)
(0.0469813 -2.30158e-06 0)
(0.0468672 -6.23306e-07 0)
(0.0470515 -7.37416e-06 0)
(0.0469331 -3.83965e-07 0)
(0.0475373 -2.00853e-05 0)
(0.0476852 1.82832e-05 0)
(0.0448722 -0.0017941 0)
(0.884864 0.0434926 0)
(0.650167 0.0201477 0)
(0.494028 0.00660326 0)
(0.40364 0.00275335 0)
(0.354961 0.00154654 0)
(0.323679 0.0011302 0)
(0.299813 0.000907706 0)
(0.28064 0.00074302 0)
(0.264964 0.00062021 0)
(0.251883 0.000529595 0)
(0.240746 0.000460755 0)
(0.23111 0.00040653 0)
(0.222672 0.000362666 0)
(0.215207 0.000326506 0)
(0.208549 0.000296244 0)
(0.202567 0.000270582 0)
(0.19716 0.000248565 0)
(0.192246 0.000229477 0)
(0.187759 0.000212772 0)
(0.183646 0.000198028 0)
(0.179862 0.000184911 0)
(0.176369 0.000173155 0)
(0.173137 0.000162542 0)
(0.170139 0.000152894 0)
(0.167352 0.00014406 0)
(0.164758 0.000135915 0)
(0.162339 0.000128348 0)
(0.160082 0.000121265 0)
(0.157976 0.00011458 0)
(0.156008 0.000108223 0)
(0.154172 0.000102114 0)
(0.152459 9.62087e-05 0)
(0.150863 9.04105e-05 0)
(0.14938 8.47182e-05 0)
(0.148005 7.89783e-05 0)
(0.146736 7.32741e-05 0)
(0.145569 6.73226e-05 0)
(0.144509 6.13634e-05 0)
(0.143543 5.48851e-05 0)
(0.142696 4.8317e-05 0)
(0.141925 4.09548e-05 0)
(0.141323 3.30036e-05 0)
(0.140728 2.45031e-05 0)
(0.140457 1.28861e-05 0)
(0.139976 3.87628e-06 0)
(0.140258 -1.97187e-05 0)
(0.139741 -2.15118e-05 0)
(0.14101 -0.000118428 0)
(0.140941 0.000136817 0)
(0.13917 -0.0032159 0)
(0.991208 0.0499544 0)
(0.890941 0.03056 0)
(0.762546 0.0146071 0)
(0.656633 0.00796723 0)
(0.585573 0.00487605 0)
(0.536246 0.00347089 0)
(0.498396 0.00273452 0)
(0.46781 0.00224 0)
(0.442543 0.00187599 0)
(0.421285 0.00160406 0)
(0.403087 0.00139629 0)
(0.387283 0.00123264 0)
(0.373397 0.00110035 0)
(0.361081 0.000991315 0)
(0.350069 0.000900047 0)
(0.340155 0.000822641 0)
(0.331176 0.000756227 0)
(0.323003 0.000698653 0)
(0.315529 0.00064828 0)
(0.308666 0.000603837 0)
(0.302344 0.000564321 0)
(0.2965 0.000528932 0)
(0.291084 0.000497017 0)
(0.286053 0.000468038 0)
(0.28137 0.000441546 0)
(0.277002 0.000417161 0)
(0.272924 0.000394555 0)
(0.269112 0.000373448 0)
(0.265545 0.000353585 0)
(0.262206 0.000334752 0)
(0.259082 0.000316729 0)
(0.256158 0.00029936 0)
(0.253425 0.000282405 0)
(0.250874 0.000265804 0)
(0.248499 0.000249187 0)
(0.246293 0.000232715 0)
(0.244251 0.00021566 0)
(0.242377 0.000198691 0)
(0.240654 0.000180236 0)
(0.239117 0.000162066 0)
(0.237701 0.00014088 0)
(0.236541 0.000120394 0)
(0.235401 9.45323e-05 0)
(0.234733 6.87537e-05 0)
(0.233776 3.62495e-05 0)
(0.233898 -8.23042e-06 0)
(0.232913 -3.57001e-05 0)
(0.234367 -0.000228637 0)
(0.233749 6.64758e-05 0)
(0.234347 -0.0035329 0)
(1.01554 0.0489521 0)
(1.0065 0.03572 0)
(0.935931 0.0208134 0)
(0.852104 0.0134921 0)
(0.78238 0.00919163 0)
(0.727284 0.00677691 0)
(0.682246 0.00538043 0)
(0.644537 0.00443876 0)
(0.612578 0.00374354 0)
(0.585172 0.00321703 0)
(0.561384 0.00281012 0)
(0.540505 0.00248747 0)
(0.522008 0.00222554 0)
(0.505491 0.00200891 0)
(0.490639 0.00182706 0)
(0.477205 0.00167245 0)
(0.464988 0.00153952 0)
(0.453826 0.0014241 0)
(0.443587 0.00132299 0)
(0.434158 0.00123369 0)
(0.425448 0.00115423 0)
(0.417379 0.00108304 0)
(0.409883 0.00101882 0)
(0.402904 0.000960526 0)
(0.396393 0.000907254 0)
(0.390309 0.000858253 0)
(0.384615 0.000812879 0)
(0.379281 0.00077057 0)
(0.374278 0.000730832 0)
(0.369585 0.000693232 0)
(0.36518 0.00065735 0)
(0.361046 0.000622862 0)
(0.35717 0.000589328 0)
(0.353538 0.000556587 0)
(0.350141 0.000523989 0)
(0.34697 0.000491761 0)
(0.344018 0.000458592 0)
(0.341287 0.000425721 0)
(0.338758 0.00039009 0)
(0.336469 0.000355459 0)
(0.334343 0.000314563 0)
(0.332536 0.000276919 0)
(0.330777 0.000226078 0)
(0.329579 0.000182526 0)
(0.328082 0.00011486 0)
(0.327812 4.80368e-05 0)
(0.326361 -2.31289e-05 0)
(0.327573 -0.000299096 0)
(0.326423 -8.07943e-05 0)
(0.328074 -0.00349084 0)
(1.01434 0.0460963 0)
(1.04799 0.0373359 0)
(1.0246 0.0241788 0)
(0.974754 0.0175483 0)
(0.923608 0.0130994 0)
(0.876935 0.0101955 0)
(0.834831 0.00833495 0)
(0.797145 0.00701143 0)
(0.763653 0.00599961 0)
(0.733912 0.00521092 0)
(0.70741 0.0045878 0)
(0.683675 0.00408584 0)
(0.66231 0.00367357 0)
(0.642983 0.00332949 0)
(0.625418 0.00303848 0)
(0.609387 0.00278954 0)
(0.594697 0.00257442 0)
(0.581187 0.00238682 0)
(0.568722 0.00222188 0)
(0.557187 0.00207576 0)
(0.546482 0.00194543 0)
(0.536523 0.0018284 0)
(0.527237 0.00172267 0)
(0.518562 0.00162656 0)
(0.510443 0.00153865 0)
(0.502833 0.00145775 0)
(0.49569 0.00138283 0)
(0.488978 0.00131299 0)
(0.482666 0.00124743 0)
(0.476726 0.00118547 0)
(0.471135 0.00112643 0)
(0.465872 0.00106979 0)
(0.460921 0.00101486 0)
(0.456264 0.000961349 0)
(0.45189 0.000908282 0)
(0.44779 0.000855931 0)
(0.443953 0.000802337 0)
(0.440379 0.000749335 0)
(0.437049 0.000692215 0)
(0.433999 0.000636942 0)
(0.431153 0.000571778 0)
(0.428662 0.000512789 0)
(0.426262 0.000431868 0)
(0.424453 0.000366139 0)
(0.422403 0.000257978 0)
(0.42157 0.000162596 0)
(0.419698 4.04355e-05 0)
(0.420326 -0.00031236 0)
(0.418863 -0.000213713 0)
(0.420249 -0.00337684 0)
(1.00941 0.0430458 0)
(1.05564 0.0370905 0)
(1.05869 0.0253184 0)
(1.03636 0.0197506 0)
(1.00723 0.0157843 0)
(0.976266 0.0129196 0)
(0.944797 0.0109474 0)
(0.913993 0.00946302 0)
(0.884709 0.0082703 0)
(0.857328 0.00730096 0)
(0.831927 0.00650949 0)
(0.808443 0.00585544 0)
(0.786756 0.00530741 0)
(0.766724 0.0048426 0)
(0.7482 0.00444428 0)
(0.731045 0.00409978 0)
(0.71513 0.00379933 0)
(0.700337 0.00353527 0)
(0.68656 0.00330154 0)
(0.673707 0.0030933 0)
(0.661692 0.00290664 0)
(0.650443 0.00273833 0)
(0.639894 0.00258571 0)
(0.629987 0.00244654 0)
(0.620669 0.00231893 0)
(0.611896 0.00220125 0)
(0.603627 0.00209208 0)
(0.595826 0.00199019 0)
(0.588463 0.00189449 0)
(0.581508 0.00180401 0)
(0.574938 0.00171783 0)
(0.56873 0.00163517 0)
(0.562869 0.00155513 0)
(0.557335 0.00147724 0)
(0.552117 0.0014002 0)
(0.547202 0.00132429 0)
(0.542582 0.00124692 0)
(0.538254 0.00117044 0)
(0.5342 0.00108858 0)
(0.530449 0.00100928 0)
(0.526938 0.000916693 0)
(0.523795 0.000832657 0)
(0.520792 0.000718888 0)
(0.518362 0.00062608 0)
(0.515794 0.000476332 0)
(0.514325 0.000344405 0)
(0.512087 0.000170944 0)
(0.511954 -0.000260437 0)
(0.5103 -0.000291494 0)
(0.510901 -0.00319437 0)
(1.00635 0.0401776 0)
(1.05242 0.0361433 0)
(1.06607 0.0252407 0)
(1.05957 0.0205536 0)
(1.04697 0.0172085 0)
(1.03097 0.0146345 0)
(1.01212 0.0128024 0)
(0.991494 0.0113749 0)
(0.97015 0.0101754 0)
(0.948818 0.00915757 0)
(0.92794 0.00829533 0)
(0.907779 0.00756041 0)
(0.888483 0.00692833 0)
(0.87012 0.0063803 0)
(0.852711 0.00590181 0)
(0.836243 0.00548135 0)
(0.820685 0.00510963 0)
(0.805996 0.00477908 0)
(0.792129 0.00448352 0)
(0.779034 0.00421786 0)
(0.766664 0.00397787 0)
(0.754972 0.00376002 0)
(0.743914 0.00356129 0)
(0.733448 0.00337913 0)
(0.723538 0.00321132 0)
(0.714146 0.00305595 0)
(0.705243 0.00291134 0)
(0.696797 0.00277597 0)
(0.688784 0.00264853 0)
(0.681179 0.00252779 0)
(0.673961 0.00241264 0)
(0.667112 0.00230209 0)
(0.660615 0.00219501 0)
(0.654454 0.00209076 0)
(0.64862 0.00198777 0)
(0.643099 0.00188628 0)
(0.637885 0.00178316 0)
(0.632973 0.0016811 0)
(0.628351 0.00157258 0)
(0.624039 0.00146696 0)
(0.619987 0.00134528 0)
(0.616299 0.00123333 0)
(0.612794 0.00108592 0)
(0.609816 0.000961509 0)
(0.606813 0.000771823 0)
(0.604741 0.000595573 0)
(0.602194 0.000374811 0)
(0.601304 -0.00013546 0)
(0.599459 -0.000296115 0)
(0.599238 -0.00292701 0)
(1.00506 0.0375003 0)
(1.04763 0.0350445 0)
(1.06397 0.0246924 0)
(1.06422 0.0205832 0)
(1.06076 0.0177447 0)
(1.05489 0.0154727 0)
(1.04618 0.0138555 0)
(1.03504 0.0125927 0)
(1.02219 0.0115036 0)
(1.00822 0.0105484 0)
(0.993607 0.0097133 0)
(0.978693 0.00898044 0)
(0.963746 0.00833299 0)
(0.948959 0.00775785 0)
(0.934471 0.00724471 0)
(0.920373 0.00678507 0)
(0.906725 0.00637177 0)
(0.893562 0.0059987 0)
(0.880901 0.00566066 0)
(0.868748 0.00535323 0)
(0.857099 0.00507257 0)
(0.845944 0.0048154 0)
(0.835271 0.00457884 0)
(0.825062 0.00436037 0)
(0.815302 0.00415775 0)
(0.805972 0.00396902 0)
(0.797055 0.00379239 0)
(0.788535 0.00362627 0)
(0.780396 0.00346921 0)
(0.772622 0.00331985 0)
(0.765199 0.00317695 0)
(0.758115 0.00303937 0)
(0.751358 0.00290584 0)
(0.744918 0.00277557 0)
(0.738787 0.00264679 0)
(0.732956 0.00251966 0)
(0.727421 0.00239065 0)
(0.722178 0.00226264 0)
(0.717219 0.00212721 0)
(0.712559 0.00199452 0)
(0.708165 0.00184369 0)
(0.70411 0.00170235 0)
(0.700268 0.00152216 0)
(0.696891 0.0013631 0)
(0.693581 0.00113641 0)
(0.691034 0.00091106 0)
(0.688258 0.000645808 0)
(0.686741 6.27373e-05 0)
(0.684696 -0.000224541 0)
(0.683768 -0.00258387 0)
(1.00451 0.0349642 0)
(1.0436 0.0339641 0)
(1.05995 0.0240407 0)
(1.06226 0.0202926 0)
(1.06258 0.0178079 0)
(1.06194 0.01575 0)
(1.05941 0.0143061 0)
(1.0549 0.0132086 0)
(1.04873 0.0122613 0)
(1.04122 0.0114176 0)
(1.03264 0.0106665 0)
(1.02325 0.00999392 0)
(1.01327 0.00938707 0)
(1.00291 0.00883642 0)
(0.992331 0.00833499 0)
(0.981658 0.00787716 0)
(0.970999 0.00745808 0)
(0.960436 0.00707357 0)
(0.950028 0.00671991 0)
(0.939824 0.00639385 0)
(0.929856 0.00609246 0)
(0.920147 0.00581314 0)
(0.910714 0.00555352 0)
(0.901567 0.00531148 0)
(0.892711 0.00508505 0)
(0.884149 0.00487245 0)
(0.87588 0.00467203 0)
(0.867902 0.00448226 0)
(0.860212 0.00430174 0)
(0.852807 0.00412911 0)
(0.845682 0.00396311 0)
(0.838832 0.00380255 0)
(0.832255 0.00364608 0)
(0.825945 0.00349286 0)
(0.819901 0.00334096 0)
(0.814117 0.0031905 0)
(0.808596 0.0030377 0)
(0.803334 0.00288544 0)
(0.798331 0.00272485 0)
(0.793596 0.00256621 0)
(0.789112 0.00238798 0)
(0.78493 0.00221764 0)
(0.780967 0.00200703 0)
(0.777401 0.00181255 0)
(0.77396 0.0015524 0)
(0.771131 0.00127716 0)
(0.768245 0.000969247 0)
(0.766295 0.000324257 0)
(0.764098 -8.05872e-05 0)
(0.762631 -0.00218194 0)
(1.00412 0.0325334 0)
(1.04027 0.0329102 0)
(1.05619 0.0234054 0)
(1.0589 0.019907 0)
(1.06031 0.0176774 0)
(1.06171 0.0157507 0)
(1.06211 0.0144079 0)
(1.06126 0.0134253 0)
(1.05924 0.0125935 0)
(1.05617 0.0118551 0)
(1.05213 0.0111965 0)
(1.04724 0.0106034 0)
(1.04163 0.0100628 0)
(1.03542 0.00956586 0)
(1.02873 0.00910673 0)
(1.02167 0.00868112 0)
(1.01434 0.00828559 0)
(1.00682 0.00791726 0)
(0.999193 0.00757362 0)
(0.99151 0.00725247 0)
(0.983824 0.0069518 0)
(0.976178 0.00666976 0)
(0.968605 0.00640466 0)
(0.961133 0.00615486 0)
(0.953783 0.00591886 0)
(0.946573 0.00569519 0)
(0.939518 0.00548249 0)
(0.932628 0.00527943 0)
(0.925912 0.00508477 0)
(0.919376 0.00489727 0)
(0.913027 0.00471573 0)
(0.906869 0.00453903 0)
(0.900905 0.00436582 0)
(0.895138 0.00419525 0)
(0.889572 0.00402535 0)
(0.884209 0.00385619 0)
(0.879053 0.0036839 0)
(0.874107 0.00351122 0)
(0.869375 0.00332922 0)
(0.864865 0.00314779 0)
(0.860571 0.0029457 0)
(0.856531 0.00274876 0)
(0.852693 0.00251156 0)
(0.849181 0.00228335 0)
(0.845818 0.00199394 0)
(0.842932 0.00167169 0)
(0.840094 0.00132328 0)
(0.837933 0.000630811 0)
(0.835689 0.000124173 0)
(0.833881 -0.00174258 0)
(1.00374 0.030199 0)
(1.03728 0.0318606 0)
(1.05285 0.0228011 0)
(1.05567 0.0195037 0)
(1.05721 0.0174855 0)
(1.05917 0.0156473 0)
(1.06064 0.0143518 0)
(1.06136 0.0134324 0)
(1.06141 0.0126737 0)
(1.0608 0.0120092 0)
(1.05954 0.0114224 0)
(1.05764 0.0108979 0)
(1.05514 0.010421 0)
(1.05209 0.00998185 0)
(1.04854 0.00957401 0)
(1.04455 0.0091931 0)
(1.0402 0.00883588 0)
(1.03553 0.00849983 0)
(1.03061 0.00818293 0)
(1.02549 0.00788351 0)
(1.02022 0.00760009 0)
(1.01483 0.00733135 0)
(1.00936 0.00707606 0)
(1.00385 0.00683303 0)
(0.998318 0.00660112 0)
(0.992797 0.00637921 0)
(0.987305 0.00616621 0)
(0.981861 0.00596103 0)
(0.976481 0.00576262 0)
(0.971178 0.00556991 0)
(0.965965 0.00538181 0)
(0.960852 0.00519731 0)
(0.95585 0.00501511 0)
(0.950966 0.00483442 0)
(0.94621 0.00465326 0)
(0.941589 0.00447168 0)
(0.93711 0.00428581 0)
(0.93278 0.00409824 0)
(0.928608 0.00390014 0)
(0.924603 0.00370074 0)
(0.920765 0.00347982 0)
(0.917125 0.00326049 0)
(0.913652 0.00300178 0)
(0.910434 0.00274372 0)
(0.907361 0.00243004 0)
(0.904645 0.00206653 0)
(0.902028 0.00168113 0)
(0.899881 0.000956934 0)
(0.897727 0.000366372 0)
(0.895785 -0.00129152 0)
(1.00337 0.0279633 0)
(1.03444 0.0308029 0)
(1.04974 0.0222217 0)
(1.0527 0.0190976 0)
(1.05421 0.0172751 0)
(1.05622 0.0155147 0)
(1.05797 0.014241 0)
(1.05921 0.0133522 0)
(1.06007 0.0126339 0)
(1.06057 0.0120123 0)
(1.06069 0.0114702 0)
(1.06043 0.0109919 0)
(1.05977 0.0105617 0)
(1.05871 0.0101684 0)
(1.05727 0.00980461 0)
(1.05548 0.00946524 0)
(1.05334 0.00914655 0)
(1.05091 0.00884576 0)
(1.0482 0.00856073 0)
(1.04525 0.00828977 0)
(1.04209 0.00803151 0)
(1.03875 0.00778478 0)
(1.03525 0.00754853 0)
(1.03163 0.00732176 0)
(1.02791 0.00710354 0)
(1.02412 0.00689294 0)
(1.02026 0.00668904 0)
(1.01637 0.00649092 0)
(1.01246 0.00629768 0)
(1.00854 0.00610837 0)
(1.00464 0.005922 0)
(1.00076 0.00573766 0)
(0.99691 0.0055541 0)
(0.993112 0.00537059 0)
(0.989374 0.00518518 0)
(0.985704 0.00499789 0)
(0.982114 0.0048049 0)
(0.978614 0.00460857 0)
(0.975212 0.00440043 0)
(0.971921 0.00418875 0)
(0.968745 0.00395483 0)
(0.965708 0.00371841 0)
(0.962797 0.00344402 0)
(0.960069 0.00316151 0)
(0.957466 0.00282906 0)
(0.955115 0.00243206 0)
(0.952875 0.00201466 0)
(0.950939 0.00127386 0)
(0.949013 0.000618443 0)
(0.947133 -0.000854202 0)
(1.00301 0.0258298 0)
(1.03172 0.029733 0)
(1.04675 0.0216635 0)
(1.04991 0.0186886 0)
(1.05139 0.0170529 0)
(1.05337 0.015375 0)
(1.05515 0.0141165 0)
(1.05651 0.0132436 0)
(1.05759 0.0125482 0)
(1.05848 0.0119502 0)
(1.05917 0.0114324 0)
(1.05964 0.0109804 0)
(1.05988 0.0105786 0)
(1.05988 0.0102149 0)
(1.05964 0.00988152 0)
(1.05916 0.0095726 0)
(1.05844 0.00928395 0)
(1.05748 0.00901232 0)
(1.05631 0.00875523 0)
(1.05493 0.00851075 0)
(1.05335 0.00827731 0)
(1.0516 0.00805364 0)
(1.04969 0.00783863 0)
(1.04764 0.00763127 0)
(1.04545 0.00743065 0)
(1.04316 0.00723584 0)
(1.04077 0.007046 0)
(1.0383 0.00686023 0)
(1.03576 0.00667767 0)
(1.03317 0.00649744 0)
(1.03054 0.00631859 0)
(1.02788 0.00614024 0)
(1.02521 0.00596117 0)
(1.02254 0.00578066 0)
(1.01987 0.00559677 0)
(1.01722 0.0054095 0)
(1.01459 0.00521508 0)
(1.01201 0.00501561 0)
(1.00948 0.00480304 0)
(1.007 0.00458455 0)
(1.0046 0.0043433 0)
(1.00228 0.00409525 0)
(1.00004 0.0038109 0)
(0.997931 0.00350998 0)
(0.995913 0.00316416 0)
(0.994059 0.00274239 0)
(0.992302 0.00229886 0)
(0.990721 0.00155523 0)
(0.989133 0.000855696 0)
(0.98747 -0.000454709 0)
(1.00268 0.0238012 0)
(1.02912 0.0286493 0)
(1.04384 0.021126 0)
(1.04722 0.0182764 0)
(1.0487 0.0168172 0)
(1.05065 0.0152309 0)
(1.05242 0.0139891 0)
(1.05379 0.0131276 0)
(1.05491 0.0124484 0)
(1.05589 0.0118652 0)
(1.05675 0.0113609 0)
(1.05748 0.010923 0)
(1.05809 0.0105366 0)
(1.05855 0.0101897 0)
(1.05888 0.00987423 0)
(1.05907 0.00958414 0)
(1.05911 0.00931497 0)
(1.059 0.0090632 0)
(1.05874 0.00882608 0)
(1.05833 0.00860142 0)
(1.05779 0.00838744 0)
(1.0571 0.00818269 0)
(1.05629 0.00798591 0)
(1.05536 0.00779597 0)
(1.05431 0.00761186 0)
(1.05316 0.0074326 0)
(1.0519 0.00725726 0)
(1.05057 0.00708492 0)
(1.04915 0.00691467 0)
(1.04766 0.0067456 0)
(1.04612 0.00657673 0)
(1.04452 0.00640718 0)
(1.04288 0.00623569 0)
(1.04121 0.00606152 0)
(1.03952 0.00588272 0)
(1.03782 0.00569919 0)
(1.03611 0.00550725 0)
(1.0344 0.00530866 0)
(1.03271 0.00509591 0)
(1.03105 0.0048749 0)
(1.02942 0.00463086 0)
(1.02783 0.00437585 0)
(1.02629 0.00408631 0)
(1.02483 0.00377266 0)
(1.02343 0.00341811 0)
(1.02212 0.00297997 0)
(1.02089 0.00251649 0)
(1.01974 0.00178146 0)
(1.01855 0.00105741 0)
(1.0172 -0.000111417 0)
(1.00238 0.0218791 0)
(1.02665 0.0275509 0)
(1.04101 0.0206089 0)
(1.04461 0.0178627 0)
(1.04611 0.0165668 0)
(1.04803 0.0150808 0)
(1.04979 0.0138602 0)
(1.05116 0.0130091 0)
(1.05227 0.0123446 0)
(1.05326 0.0117736 0)
(1.05415 0.0112786 0)
(1.05495 0.0108491 0)
(1.05566 0.0104714 0)
(1.05629 0.0101337 0)
(1.05684 0.00982797 0)
(1.05731 0.00954832 0)
(1.0577 0.00929026 0)
(1.05799 0.0090502 0)
(1.0582 0.00882527 0)
(1.05832 0.00861318 0)
(1.05835 0.00841202 0)
(1.05829 0.0082202 0)
(1.05814 0.00803636 0)
(1.05791 0.00785925 0)
(1.05759 0.00768776 0)
(1.05719 0.0075208 0)
(1.05672 0.00735736 0)
(1.05617 0.00719644 0)
(1.05556 0.00703705 0)
(1.05488 0.00687822 0)
(1.05415 0.00671889 0)
(1.05336 0.00655812 0)
(1.05253 0.00639461 0)
(1.05166 0.00622756 0)
(1.05076 0.00605497 0)
(1.04983 0.00587661 0)
(1.04888 0.00568892 0)
(1.04793 0.00549323 0)
(1.04696 0.00528263 0)
(1.046 0.00506165 0)
(1.04505 0.00481769 0)
(1.04412 0.00455898 0)
(1.04321 0.00426751 0)
(1.04234 0.00394568 0)
(1.04152 0.0035858 0)
(1.04074 0.00313842 0)
(1.04001 0.00266072 0)
(1.03929 0.00194269 0)
(1.0385 0.00121119 0)
(1.03751 0.000164928 0)
(1.0021 0.0200645 0)
(1.02431 0.0264399 0)
(1.03828 0.02011 0)
(1.04209 0.0174493 0)
(1.04361 0.0163016 0)
(1.04549 0.0149234 0)
(1.04726 0.0137292 0)
(1.04863 0.0128885 0)
(1.04973 0.0122385 0)
(1.0507 0.0116797 0)
(1.05158 0.0111931 0)
(1.05238 0.0107702 0)
(1.05312 0.0103984 0)
(1.05379 0.0100665 0)
(1.0544 0.00976646 0)
(1.05497 0.00949263 0)
(1.05548 0.00924063 0)
(1.05594 0.00900693 0)
(1.05635 0.00878872 0)
(1.05671 0.00858366 0)
(1.05701 0.00838985 0)
(1.05726 0.00820566 0)
(1.05746 0.00802966 0)
(1.05761 0.00786057 0)
(1.05771 0.0076972 0)
(1.05775 0.00753842 0)
(1.05774 0.00738313 0)
(1.05768 0.00723026 0)
(1.05757 0.00707874 0)
(1.05742 0.00692755 0)
(1.05722 0.00677555 0)
(1.05699 0.00662175 0)
(1.05671 0.00646474 0)
(1.05641 0.00630369 0)
(1.05607 0.00613654 0)
(1.05571 0.00596293 0)
(1.05533 0.00577939 0)
(1.05493 0.00558679 0)
(1.05452 0.0053789 0)
(1.05411 0.00515885 0)
(1.0537 0.0049161 0)
(1.05329 0.00465542 0)
(1.0529 0.00436358 0)
(1.05252 0.00403667 0)
(1.05217 0.00367346 0)
(1.05183 0.00322213 0)
(1.05152 0.00273505 0)
(1.05119 0.00203935 0)
(1.05075 0.00131372 0)
(1.05009 0.000372996 0)
(1.00185 0.0183577 0)
(1.02211 0.0253202 0)
(1.03565 0.0196255 0)
(1.03965 0.0170381 0)
(1.0412 0.0160224 0)
(1.04305 0.014758 0)
(1.04482 0.0135955 0)
(1.04618 0.0127656 0)
(1.04728 0.0121302 0)
(1.04823 0.0115842 0)
(1.0491 0.0111061 0)
(1.04989 0.0106895 0)
(1.05062 0.010323 0)
(1.05129 0.00999572 0)
(1.05191 0.00969981 0)
(1.05249 0.0094298 0)
(1.05304 0.00918145 0)
(1.05355 0.00895137 0)
(1.05403 0.00873679 0)
(1.05447 0.00853547 0)
(1.05489 0.00834553 0)
(1.05527 0.00816535 0)
(1.05563 0.00799353 0)
(1.05595 0.00782879 0)
(1.05625 0.00766992 0)
(1.05651 0.00751575 0)
(1.05675 0.00736517 0)
(1.05695 0.00721706 0)
(1.05713 0.00707032 0)
(1.05727 0.00692385 0)
(1.05739 0.00677647 0)
(1.05748 0.00662714 0)
(1.05755 0.0064744 0)
(1.0576 0.00631734 0)
(1.05762 0.0061539 0)
(1.05763 0.00598353 0)
(1.05762 0.00580292 0)
(1.0576 0.00561247 0)
(1.05758 0.0054066 0)
(1.05754 0.00518712 0)
(1.05751 0.0049454 0)
(1.05747 0.00468321 0)
(1.05745 0.00439123 0)
(1.05743 0.00406097 0)
(1.05743 0.00369522 0)
(1.05743 0.0032434 0)
(1.05744 0.0027507 0)
(1.0574 0.00207982 0)
(1.05725 0.00136958 0)
(1.05686 0.000519646 0)
(1.00162 0.0167584 0)
(1.02005 0.0241961 0)
(1.03312 0.0191513 0)
(1.0373 0.0166307 0)
(1.03888 0.0157301 0)
(1.04069 0.0145837 0)
(1.04246 0.0134589 0)
(1.04383 0.0126403 0)
(1.04491 0.0120195 0)
(1.04586 0.0114869 0)
(1.04671 0.0110179 0)
(1.04749 0.0106077 0)
(1.0482 0.0102465 0)
(1.04886 0.00992365 0)
(1.04948 0.00963147 0)
(1.05006 0.00936463 0)
(1.0506 0.00911904 0)
(1.05112 0.00889143 0)
(1.05161 0.00867913 0)
(1.05208 0.00847995 0)
(1.05253 0.00829207 0)
(1.05296 0.00811394 0)
(1.05337 0.00794417 0)
(1.05376 0.00778152 0)
(1.05414 0.0076248 0)
(1.0545 0.00747285 0)
(1.05484 0.00732454 0)
(1.05516 0.00717875 0)
(1.05548 0.00703435 0)
(1.05577 0.00689022 0)
(1.05605 0.00674514 0)
(1.05632 0.00659804 0)
(1.05657 0.00644744 0)
(1.05681 0.00629234 0)
(1.05704 0.00613071 0)
(1.05726 0.00596183 0)
(1.05747 0.00578259 0)
(1.05768 0.00559288 0)
(1.05788 0.00538778 0)
(1.05808 0.00516793 0)
(1.05828 0.00492635 0)
(1.05849 0.00466236 0)
(1.0587 0.00436963 0)
(1.05892 0.00403676 0)
(1.05915 0.00366849 0)
(1.05938 0.00321811 0)
(1.0596 0.00272259 0)
(1.05976 0.0020769 0)
(1.05981 0.00138822 0)
(1.05963 0.000615696 0)
(1.00142 0.0152658 0)
(1.01812 0.0230716 0)
(1.03069 0.0186835 0)
(1.03504 0.0162284 0)
(1.03666 0.0154262 0)
(1.03843 0.0144001 0)
(1.04019 0.013319 0)
(1.04156 0.0125126 0)
(1.04264 0.0119061 0)
(1.04357 0.0113876 0)
(1.04442 0.0109283 0)
(1.04518 0.0105249 0)
(1.04588 0.0101691 0)
(1.04653 0.00985075 0)
(1.04713 0.00956231 0)
(1.0477 0.00929854 0)
(1.04824 0.0090555 0)
(1.04875 0.00883001 0)
(1.04923 0.0086195 0)
(1.0497 0.00842183 0)
(1.05015 0.00823527 0)
(1.05059 0.00805829 0)
(1.05101 0.00788956 0)
(1.05142 0.00772787 0)
(1.05182 0.00757205 0)
(1.05221 0.00742097 0)
(1.05259 0.00727352 0)
(1.05297 0.00712856 0)
(1.05333 0.00698495 0)
(1.05369 0.00684158 0)
(1.05404 0.00669721 0)
(1.05438 0.00655074 0)
(1.05472 0.00640067 0)
(1.05505 0.00624597 0)
(1.05538 0.00608463 0)
(1.05571 0.00591578 0)
(1.05604 0.00573648 0)
(1.05636 0.00554621 0)
(1.05669 0.00534065 0)
(1.05702 0.0051194 0)
(1.05735 0.00487687 0)
(1.05769 0.00461055 0)
(1.05804 0.00431617 0)
(1.0584 0.00398088 0)
(1.05876 0.00360981 0)
(1.05912 0.00316175 0)
(1.05947 0.0026655 0)
(1.05975 0.00204404 0)
(1.05993 0.00138024 0)
(1.05989 0.000673281 0)
(1.00124 0.0138785 0)
(1.01633 0.0219509 0)
(1.02838 0.0182184 0)
(1.03286 0.0158326 0)
(1.03453 0.0151121 0)
(1.03626 0.0142065 0)
(1.038 0.0131755 0)
(1.03938 0.0123825 0)
(1.04046 0.0117902 0)
(1.04138 0.0112862 0)
(1.04221 0.0108372 0)
(1.04297 0.0104409 0)
(1.04366 0.0100907 0)
(1.04429 0.00977704 0)
(1.04488 0.00949245 0)
(1.04544 0.00923181 0)
(1.04596 0.00899133 0)
(1.04646 0.00876792 0)
(1.04694 0.00855909 0)
(1.0474 0.00836277 0)
(1.04784 0.00817726 0)
(1.04827 0.00800111 0)
(1.04869 0.00783302 0)
(1.0491 0.00767181 0)
(1.0495 0.00751635 0)
(1.0499 0.00736552 0)
(1.05029 0.00721822 0)
(1.05067 0.00707333 0)
(1.05105 0.0069297 0)
(1.05143 0.00678622 0)
(1.0518 0.00664163 0)
(1.05217 0.00649483 0)
(1.05254 0.00634432 0)
(1.05291 0.00618901 0)
(1.05328 0.00602695 0)
(1.05366 0.0058571 0)
(1.05403 0.00567675 0)
(1.05441 0.00548497 0)
(1.05479 0.00527797 0)
(1.05518 0.00505453 0)
(1.05558 0.00481013 0)
(1.05599 0.00454098 0)
(1.0564 0.00424414 0)
(1.05683 0.00390642 0)
(1.05726 0.00353231 0)
(1.05768 0.00308687 0)
(1.05809 0.00259155 0)
(1.05844 0.00199263 0)
(1.05868 0.00135492 0)
(1.05874 0.000703342 0)
(1.00107 0.0125945 0)
(1.01467 0.0208378 0)
(1.02617 0.0177524 0)
(1.03078 0.0154441 0)
(1.03249 0.0147899 0)
(1.03418 0.0140025 0)
(1.03591 0.0130278 0)
(1.03729 0.0122501 0)
(1.03837 0.0116715 0)
(1.03928 0.0111824 0)
(1.0401 0.0107445 0)
(1.04085 0.0103557 0)
(1.04153 0.0100113 0)
(1.04215 0.00970244 0)
(1.04273 0.00942184 0)
(1.04327 0.00916446 0)
(1.04379 0.0089266 0)
(1.04428 0.00870532 0)
(1.04474 0.00849818 0)
(1.04519 0.00830319 0)
(1.04562 0.00811869 0)
(1.04605 0.00794328 0)
(1.04646 0.00777571 0)
(1.04686 0.00761482 0)
(1.04726 0.00745951 0)
(1.04765 0.00730868 0)
(1.04803 0.00716124 0)
(1.04841 0.00701609 0)
(1.04879 0.00687207 0)
(1.04917 0.00672806 0)
(1.04954 0.00658281 0)
(1.04992 0.00643518 0)
(1.0503 0.00628371 0)
(1.05067 0.00612724 0)
(1.05106 0.00596389 0)
(1.05144 0.00579248 0)
(1.05183 0.00561047 0)
(1.05223 0.0054166 0)
(1.05263 0.00520754 0)
(1.05304 0.00498141 0)
(1.05346 0.0047345 0)
(1.0539 0.00446221 0)
(1.05434 0.00416233 0)
(1.05479 0.00382216 0)
(1.05524 0.00344498 0)
(1.0557 0.00300221 0)
(1.05613 0.00250915 0)
(1.0565 0.00193085 0)
(1.05678 0.00131902 0)
(1.05689 0.00071415 0)
(1.00093 0.0114111 0)
(1.01314 0.0197365 0)
(1.02407 0.0172825 0)
(1.02877 0.0150635 0)
(1.03055 0.0144613 0)
(1.0322 0.0137878 0)
(1.03391 0.0128754 0)
(1.03529 0.0121154 0)
(1.03636 0.0115503 0)
(1.03727 0.0110763 0)
(1.03808 0.0106499 0)
(1.03882 0.010269 0)
(1.03949 0.00993067 0)
(1.0401 0.00962687 0)
(1.04067 0.00935042 0)
(1.0412 0.00909641 0)
(1.04171 0.00886128 0)
(1.04218 0.00864219 0)
(1.04264 0.00843679 0)
(1.04308 0.00824316 0)
(1.0435 0.00805969 0)
(1.04392 0.00788502 0)
(1.04432 0.00771794 0)
(1.04471 0.00755733 0)
(1.0451 0.00740211 0)
(1.04548 0.00725121 0)
(1.04586 0.00710354 0)
(1.04623 0.006958 0)
(1.0466 0.00681343 0)
(1.04698 0.00666872 0)
(1.04735 0.00652261 0)
(1.04772 0.00637395 0)
(1.04809 0.00622128 0)
(1.04847 0.00606339 0)
(1.04885 0.00589847 0)
(1.04923 0.0057252 0)
(1.04962 0.00554121 0)
(1.05002 0.00534496 0)
(1.05042 0.00513348 0)
(1.05084 0.00490441 0)
(1.05126 0.00465461 0)
(1.0517 0.00437906 0)
(1.05214 0.00407585 0)
(1.0526 0.00373327 0)
(1.05306 0.00335319 0)
(1.05351 0.00291304 0)
(1.05395 0.00242336 0)
(1.05433 0.00186373 0)
(1.05462 0.0012767 0)
(1.05476 0.000711067 0)
(1.0008 0.0103251 0)
(1.01174 0.0186511 0)
(1.02209 0.016806 0)
(1.02686 0.014691 0)
(1.0287 0.0141286 0)
(1.03031 0.0135623 0)
(1.03199 0.0127177 0)
(1.03338 0.0119783 0)
(1.03445 0.0114263 0)
(1.03535 0.0109675 0)
(1.03615 0.0105534 0)
(1.03688 0.0101809 0)
(1.03754 0.00984886 0)
(1.03814 0.00955024 0)
(1.0387 0.0092781 0)
(1.03923 0.00902759 0)
(1.03972 0.00879528 0)
(1.04019 0.00857846 0)
(1.04064 0.00837486 0)
(1.04107 0.00818263 0)
(1.04148 0.00800022 0)
(1.04188 0.00782632 0)
(1.04228 0.00765974 0)
(1.04266 0.00749941 0)
(1.04304 0.00734428 0)
(1.04341 0.00719329 0)
(1.04378 0.00704535 0)
(1.04415 0.00689939 0)
(1.04451 0.00675423 0)
(1.04488 0.00660876 0)
(1.04524 0.00646172 0)
(1.0456 0.00631193 0)
(1.04597 0.00615796 0)
(1.04634 0.00599855 0)
(1.04671 0.00583193 0)
(1.04709 0.00565667 0)
(1.04748 0.00547055 0)
(1.04787 0.0052718 0)
(1.04827 0.00505772 0)
(1.04868 0.00482564 0)
(1.0491 0.00457275 0)
(1.04953 0.00429395 0)
(1.04997 0.0039873 0)
(1.05041 0.00364241 0)
(1.05087 0.00325978 0)
(1.05131 0.00282216 0)
(1.05174 0.00233674 0)
(1.05211 0.00179393 0)
(1.05241 0.00123 0)
(1.05258 0.00069719 0)
(1.00069 0.00933268 0)
(1.01047 0.0175858 0)
(1.02022 0.0163205 0)
(1.02503 0.0143267 0)
(1.02694 0.0137936 0)
(1.02852 0.0133264 0)
(1.03016 0.0125539 0)
(1.03155 0.0118387 0)
(1.03263 0.0112998 0)
(1.03352 0.0108561 0)
(1.03431 0.0104549 0)
(1.03503 0.0100913 0)
(1.03568 0.00976573 0)
(1.03628 0.00947247 0)
(1.03683 0.0092048 0)
(1.03735 0.00895792 0)
(1.03783 0.00872854 0)
(1.03829 0.00851407 0)
(1.03873 0.00831234 0)
(1.03915 0.00812156 0)
(1.03956 0.00794025 0)
(1.03995 0.00776713 0)
(1.04033 0.00760108 0)
(1.04071 0.00744105 0)
(1.04108 0.00728601 0)
(1.04145 0.00713493 0)
(1.04181 0.00698673 0)
(1.04216 0.00684033 0)
(1.04252 0.00669457 0)
(1.04288 0.00654832 0)
(1.04323 0.00640031 0)
(1.04359 0.00624937 0)
(1.04394 0.00609406 0)
(1.04431 0.00593308 0)
(1.04467 0.00576471 0)
(1.04504 0.00558742 0)
(1.04542 0.00539911 0)
(1.0458 0.00519782 0)
(1.04619 0.00498105 0)
(1.0466 0.00474595 0)
(1.04701 0.0044899 0)
(1.04743 0.00420791 0)
(1.04786 0.00389788 0)
(1.0483 0.00355078 0)
(1.04874 0.00316603 0)
(1.04917 0.00273086 0)
(1.04958 0.00225032 0)
(1.04995 0.00172261 0)
(1.05024 0.00117969 0)
(1.05044 0.000674065 0)
(1.0006 0.00842953 0)
(1.0093 0.0165445 0)
(1.01846 0.0158244 0)
(1.02328 0.0139701 0)
(1.02526 0.0134582 0)
(1.02681 0.0130803 0)
(1.02842 0.0123837 0)
(1.02981 0.0116963 0)
(1.03089 0.0111706 0)
(1.03177 0.0107419 0)
(1.03256 0.0103541 0)
(1.03327 0.00999991 0)
(1.03392 0.00968118 0)
(1.0345 0.00939347 0)
(1.03505 0.00913042 0)
(1.03555 0.00888731 0)
(1.03603 0.00866098 0)
(1.03648 0.00844894 0)
(1.03691 0.00824914 0)
(1.03733 0.00805987 0)
(1.03772 0.0078797 0)
(1.03811 0.0077074 0)
(1.03849 0.0075419 0)
(1.03886 0.00738219 0)
(1.03922 0.00722726 0)
(1.03957 0.0070761 0)
(1.03993 0.00692764 0)
(1.04028 0.00678081 0)
(1.04063 0.00663444 0)
(1.04097 0.00648739 0)
(1.04132 0.00633842 0)
(1.04167 0.00618631 0)
(1.04202 0.00602964 0)
(1.04237 0.00586708 0)
(1.04273 0.00569694 0)
(1.04309 0.00551761 0)
(1.04346 0.00532707 0)
(1.04384 0.00512324 0)
(1.04422 0.00490376 0)
(1.04461 0.00466567 0)
(1.04501 0.00440646 0)
(1.04542 0.00412136 0)
(1.04584 0.00380807 0)
(1.04627 0.0034589 0)
(1.04669 0.00307245 0)
(1.04712 0.00263965 0)
(1.04752 0.00216433 0)
(1.04787 0.00165013 0)
(1.04817 0.00112588 0)
(1.04838 0.000642353 0)
(1.00051 0.00761086 0)
(1.00826 0.0155312 0)
(1.01681 0.0153163 0)
(1.02162 0.0136208 0)
(1.02367 0.0131243 0)
(1.02519 0.0128249 0)
(1.02677 0.0122063 0)
(1.02815 0.011551 0)
(1.02923 0.0110389 0)
(1.03012 0.0106249 0)
(1.03089 0.0102509 0)
(1.0316 0.00990671 0)
(1.03224 0.00959512 0)