/*--------------------------------*- C++ -*----------------------------------*\
  =========                 |
  \\      /  F ield         | OpenFOAM: The Open Source CFD Toolbox
   \\    /   O peration     | Website:  https://openfoam.org
    \\  /    A nd           | Version:  7
     \\/     M anipulation  |
\*---------------------------------------------------------------------------*/
FoamFile
{
    version     2.0;
    format      ascii;
    class       volVectorField;
    location    "0.4";
    object      wallShearStress;
}
// * * * * * * * * * * * * * * * * * * * * * * * * * * * * * * * * * * * * * //

dimensions      [0 2 -2 0 0 0 0];

internalField   uniform (0 0 0);

boundaryField
{
    velocityInlet
    {
        type            calculated;
        value           uniform (0 0 0);
    }
    pressureOutlet
    {
        type            calculated;
        value           uniform (0 0 0);
    }
    fixedWalls
    {
        type            calculated;
        value           nonuniform List<vector> 
100
(
(-0.00802479 -0.000740061 0)
(-0.00712216 -0.000386012 0)
(-0.00523708 -0.00022527 0)
(-0.00401128 -0.000102218 0)
(-0.00329391 -5.92179e-05 0)
(-0.00279798 -3.97686e-05 0)
(-0.00249978 -2.1111e-05 0)
(-0.00241729 6.45536e-06 0)
(-0.00265171 5.57136e-05 0)
(-0.00330999 0.000128519 0)
(-0.0043618 0.000193794 0)
(-0.00546167 0.000205236 0)
(-0.00599419 0.000122464 0)
(-0.0051705 -0.000155834 0)
(-0.00214683 -0.000581219 0)
(0.00244556 -0.000747287 0)
(0.00602478 -0.000522925 0)
(0.00671747 -3.67603e-05 0)
(0.00478584 0.000329092 0)
(0.00184402 0.000409299 0)
(-0.000800079 0.000331834 0)
(-0.0025996 0.000206836 0)
(-0.00358739 0.000104789 0)
(-0.00398133 3.69141e-05 0)
(-0.0040231 -9.96543e-07 0)
(-0.00391752 -1.5253e-05 0)
(-0.00380101 -1.46633e-05 0)
(-0.00374691 -8.21175e-06 0)
(-0.00383135 1.4385e-05 0)
(-0.00418547 5.95317e-05 0)
(-0.00489252 0.000110602 0)
(-0.00561861 0.000116193 0)
(-0.00542257 -2.98719e-05 0)
(-0.00321763 -0.000324194 0)
(0.000478533 -0.000480909 0)
(0.0034679 -0.000354596 0)
(0.0044548 -0.000102935 0)
(0.00385752 7.51992e-05 0)
(0.00262337 0.000132543 0)
(0.00135211 0.000125712 0)
(0.000272357 0.000103692 0)
(-0.000589107 8.23819e-05 0)
(-0.00126667 6.5067e-05 0)
(-0.00179456 5.14266e-05 0)
(-0.00219743 4.00924e-05 0)
(-0.0024948 3.04022e-05 0)
(-0.00270485 2.21414e-05 0)
(-0.00284806 1.56296e-05 0)
(-0.00294937 1.16588e-05 0)
(-0.00303656 1.11517e-05 0)
(-0.00312963 1.30079e-05 0)
(-0.00322732 1.45715e-05 0)
(-0.00330223 1.28853e-05 0)
(-0.00331124 6.25999e-06 0)
(-0.00321855 -5.33837e-06 0)
(-0.00301534 -1.79597e-05 0)
(-0.0027253 -2.8089e-05 0)
(-0.00239689 -3.29087e-05 0)
(-0.0020883 -3.10192e-05 0)
(-0.00185024 -2.33153e-05 0)
(-0.00171122 -1.28334e-05 0)
(-0.00167103 -3.17193e-06 0)
(-0.00170766 4.69564e-06 0)
(-0.00179125 9.40904e-06 0)
(-0.0018952 1.17111e-05 0)
(-0.00200002 1.24514e-05 0)
(-0.00209026 1.18517e-05 0)
(-0.00214631 9.25031e-06 0)
(-0.00213789 2.09802e-06 0)
(-0.00202964 -9.99808e-06 0)
(-0.0018054 -2.38759e-05 0)
(-0.00149957 -3.31735e-05 0)
(-0.00120085 -3.14285e-05 0)
(-0.00101551 -1.82516e-05 0)
(-0.00101183 7.18444e-07 0)
(-0.00118474 1.82087e-05 0)
(-0.00146931 2.88131e-05 0)
(-0.00177531 3.07682e-05 0)
(-0.0020058 2.31252e-05 0)
(-0.00205343 4.56265e-06 0)
(-0.00182292 -2.44393e-05 0)
(-0.00133793 -4.80381e-05 0)
(-0.000823159 -4.77619e-05 0)
(-0.000590939 -2.06793e-05 0)
(-0.00082419 1.98135e-05 0)
(-0.00147089 5.17218e-05 0)
(-0.00233979 6.80037e-05 0)
(-0.00325846 7.23287e-05 0)
(-0.00411248 7.09266e-05 0)
(-0.00479797 6.28752e-05 0)
(-0.00514537 4.32723e-05 0)
(-0.004862 -8.71993e-06 0)
(-0.00375658 -8.65539e-05 0)
(-0.00170907 -0.000174903 0)
(0.000753165 -0.000204637 0)
(0.00294424 -0.000185 0)
(0.00395323 -7.70859e-05 0)
(0.00343152 4.41868e-05 0)
(0.00218688 0.000146805 0)
(-0.00128943 0.000132449 0)
)
;
    }
    bottomWall
    {
        type            calculated;
        value           nonuniform List<vector> 
800
(
(-0.0353512 0.00216563 0)
(-0.0160361 0.000524978 0)
(-0.0105898 0.000100569 0)
(-0.0084546 3.46029e-05 0)
(-0.00749022 1.96963e-05 0)
(-0.00685423 1.60249e-05 0)
(-0.00634513 1.32248e-05 0)
(-0.00593361 1.07754e-05 0)
(-0.00559872 8.97495e-06 0)
(-0.0053197 7.67551e-06 0)
(-0.005082 6.69099e-06 0)
(-0.00487619 5.91315e-06 0)
(-0.00469579 5.28307e-06 0)
(-0.00453609 4.76385e-06 0)
(-0.00439348 4.32991e-06 0)
(-0.00426521 3.96274e-06 0)
(-0.00414908 3.64867e-06 0)
(-0.00404335 3.37743e-06 0)
(-0.0039466 3.14119e-06 0)
(-0.00385768 2.93386e-06 0)
(-0.00377562 2.75067e-06 0)
(-0.00369962 2.5878e-06 0)
(-0.00362901 2.44217e-06 0)
(-0.0035632 2.31129e-06 0)
(-0.00350171 2.19312e-06 0)
(-0.0034441 2.08597e-06 0)
(-0.00339002 1.98842e-06 0)
(-0.00333913 1.89929e-06 0)
(-0.00329116 1.8176e-06 0)
(-0.00324585 1.7425e-06 0)
(-0.00320298 1.67325e-06 0)
(-0.00316236 1.60924e-06 0)
(-0.00312381 1.54991e-06 0)
(-0.00308718 1.4948e-06 0)
(-0.00305232 1.44351e-06 0)
(-0.00301911 1.39566e-06 0)
(-0.00298743 1.35093e-06 0)
(-0.00295718 1.30906e-06 0)
(-0.00292826 1.26978e-06 0)
(-0.00290058 1.2329e-06 0)
(-0.00287408 1.19819e-06 0)
(-0.00284867 1.16547e-06 0)
(-0.00282429 1.13464e-06 0)
(-0.00280088 1.10545e-06 0)
(-0.00277838 1.07797e-06 0)
(-0.00275674 1.05168e-06 0)
(-0.00273591 1.02723e-06 0)
(-0.00271586 1.00319e-06 0)
(-0.00269652 9.81574e-07 0)
(-0.00267789 9.58507e-07 0)
(-0.00266232 9.3958e-07 0)
(-0.00264945 9.2884e-07 0)
(-0.00263675 9.15097e-07 0)
(-0.00262425 9.00427e-07 0)
(-0.00261194 8.86677e-07 0)
(-0.00259982 8.73595e-07 0)
(-0.00258787 8.60821e-07 0)
(-0.0025761 8.48312e-07 0)
(-0.00256449 8.36099e-07 0)
(-0.00255305 8.24176e-07 0)
(-0.00254178 8.12528e-07 0)
(-0.00253066 8.01141e-07 0)
(-0.0025197 7.90007e-07 0)
(-0.00250889 7.79118e-07 0)
(-0.00249822 7.68468e-07 0)
(-0.0024877 7.58047e-07 0)
(-0.00247733 7.4785e-07 0)
(-0.00246709 7.37869e-07 0)
(-0.00245699 7.28099e-07 0)
(-0.00244702 7.18534e-07 0)
(-0.00243718 7.09167e-07 0)
(-0.00242747 6.99993e-07 0)
(-0.00241788 6.91007e-07 0)
(-0.00240842 6.82202e-07 0)
(-0.00239907 6.73575e-07 0)
(-0.00238984 6.65121e-07 0)
(-0.00238073 6.56834e-07 0)
(-0.00237173 6.4871e-07 0)
(-0.00236284 6.40746e-07 0)
(-0.00235406 6.32936e-07 0)
(-0.00234539 6.25277e-07 0)
(-0.00233682 6.17765e-07 0)
(-0.00232835 6.10397e-07 0)
(-0.00231998 6.03168e-07 0)
(-0.00231171 5.96074e-07 0)
(-0.00230354 5.89113e-07 0)
(-0.00229546 5.82281e-07 0)
(-0.00228748 5.75575e-07 0)
(-0.00227958 5.68991e-07 0)
(-0.00227178 5.62526e-07 0)
(-0.00226406 5.56177e-07 0)
(-0.00225644 5.49942e-07 0)
(-0.00224889 5.43816e-07 0)
(-0.00224143 5.37797e-07 0)
(-0.00223405 5.31884e-07 0)
(-0.00222675 5.26072e-07 0)
(-0.00221953 5.20359e-07 0)
(-0.00221239 5.14742e-07 0)
(-0.00220533 5.09219e-07 0)
(-0.00219834 5.03789e-07 0)
(-0.00219142 4.98447e-07 0)
(-0.00218458 4.93193e-07 0)
(-0.00217781 4.88024e-07 0)
(-0.00217111 4.82938e-07 0)
(-0.00216448 4.77934e-07 0)
(-0.00215792 4.7301e-07 0)
(-0.00215142 4.68164e-07 0)
(-0.00214499 4.63395e-07 0)
(-0.00213863 4.587e-07 0)
(-0.00213233 4.54079e-07 0)
(-0.00212609 4.4953e-07 0)
(-0.00211991 4.45051e-07 0)
(-0.0021138 4.40643e-07 0)
(-0.00210775 4.36302e-07 0)
(-0.00210175 4.32028e-07 0)
(-0.00209581 4.2782e-07 0)
(-0.00208993 4.23676e-07 0)
(-0.00208411 4.19596e-07 0)
(-0.00207834 4.15578e-07 0)
(-0.00207263 4.11621e-07 0)
(-0.00206697 4.07724e-07 0)
(-0.00206137 4.03886e-07 0)
(-0.00205582 4.00106e-07 0)
(-0.00205031 3.96382e-07 0)
(-0.00204486 3.92715e-07 0)
(-0.00203946 3.89102e-07 0)
(-0.00203411 3.85544e-07 0)
(-0.00202881 3.82039e-07 0)
(-0.00202355 3.78585e-07 0)
(-0.00201835 3.75183e-07 0)
(-0.00201318 3.7183e-07 0)
(-0.00200807 3.68526e-07 0)
(-0.002003 3.6527e-07 0)
(-0.00199797 3.62062e-07 0)
(-0.00199299 3.589e-07 0)
(-0.00198805 3.55784e-07 0)
(-0.00198316 3.52715e-07 0)
(-0.0019783 3.49689e-07 0)
(-0.00197349 3.46711e-07 0)
(-0.00196872 3.4377e-07 0)
(-0.00196399 3.40883e-07 0)
(-0.00195929 3.38021e-07 0)
(-0.00195464 3.35226e-07 0)
(-0.00195003 3.32433e-07 0)
(-0.00194545 3.29738e-07 0)
(-0.00194091 3.26993e-07 0)
(-0.00193641 3.24412e-07 0)
(-0.00193195 3.21682e-07 0)
(-0.00192752 3.19204e-07 0)
(-0.00192312 3.16398e-07 0)
(-0.00191944 3.13903e-07 0)
(-0.00191642 3.12617e-07 0)
(-0.0019134 3.11048e-07 0)
(-0.00191038 3.09246e-07 0)
(-0.00190735 3.07453e-07 0)
(-0.00190432 3.05728e-07 0)
(-0.00190128 3.04015e-07 0)
(-0.00189824 3.02309e-07 0)
(-0.0018952 3.00601e-07 0)
(-0.00189215 2.989e-07 0)
(-0.0018891 2.97199e-07 0)
(-0.00188604 2.95507e-07 0)
(-0.00188299 2.93816e-07 0)
(-0.00187992 2.9214e-07 0)
(-0.00187685 2.90465e-07 0)
(-0.00187378 2.88792e-07 0)
(-0.00187071 2.87122e-07 0)
(-0.00186763 2.85463e-07 0)
(-0.00186455 2.83809e-07 0)
(-0.00186146 2.82161e-07 0)
(-0.00185837 2.80514e-07 0)
(-0.00185528 2.78874e-07 0)
(-0.00185218 2.77242e-07 0)
(-0.00184909 2.75619e-07 0)
(-0.00184598 2.74001e-07 0)
(-0.00184288 2.72392e-07 0)
(-0.00183977 2.70786e-07 0)
(-0.00183665 2.6919e-07 0)
(-0.00183354 2.67595e-07 0)
(-0.00183042 2.66008e-07 0)
(-0.0018273 2.6443e-07 0)
(-0.00182417 2.62861e-07 0)
(-0.00182104 2.61302e-07 0)
(-0.00181791 2.59748e-07 0)
(-0.00181477 2.58199e-07 0)
(-0.00181163 2.56661e-07 0)
(-0.00180849 2.55126e-07 0)
(-0.00180535 2.53604e-07 0)
(-0.0018022 2.52086e-07 0)
(-0.00179905 2.50588e-07 0)
(-0.0017959 2.49092e-07 0)
(-0.00179274 2.47612e-07 0)
(-0.00178958 2.46136e-07 0)
(-0.00178642 2.4467e-07 0)
(-0.00178325 2.43211e-07 0)
(-0.00178008 2.4177e-07 0)
(-0.00177691 2.40333e-07 0)
(-0.00177373 2.38903e-07 0)
(-0.00177055 2.37481e-07 0)
(-0.00176737 2.36084e-07 0)
(-0.00176419 2.34694e-07 0)
(-0.001761 2.33313e-07 0)
(-0.00175781 2.31938e-07 0)
(-0.00175461 2.30577e-07 0)
(-0.00175141 2.29217e-07 0)
(-0.00174821 2.27873e-07 0)
(-0.00174501 2.26532e-07 0)
(-0.0017418 2.25215e-07 0)
(-0.00173859 2.23897e-07 0)
(-0.00173537 2.22603e-07 0)
(-0.00173215 2.2131e-07 0)
(-0.00172893 2.20035e-07 0)
(-0.00172571 2.1876e-07 0)
(-0.00172248 2.17487e-07 0)
(-0.00171925 2.16216e-07 0)
(-0.00171601 2.15001e-07 0)
(-0.00171277 2.13777e-07 0)
(-0.00170953 2.12564e-07 0)
(-0.00170628 2.11349e-07 0)
(-0.00170303 2.10177e-07 0)
(-0.00169977 2.09007e-07 0)
(-0.00169651 2.07858e-07 0)
(-0.00169325 2.06707e-07 0)
(-0.00168998 2.05575e-07 0)
(-0.00168671 2.04438e-07 0)
(-0.00168343 2.03378e-07 0)
(-0.00168015 2.02275e-07 0)
(-0.00167686 2.01284e-07 0)
(-0.00167356 2.00164e-07 0)
(-0.00167026 1.99295e-07 0)
(-0.00166696 1.98112e-07 0)
(-0.00166364 1.97464e-07 0)
(-0.00166033 1.95975e-07 0)
(-0.00165699 1.95933e-07 0)
(-0.00165368 1.93761e-07 0)
(-0.00165031 1.94987e-07 0)
(-0.00164701 1.90993e-07 0)
(-0.00164357 1.95175e-07 0)
(-0.00164033 1.86874e-07 0)
(-0.00163676 1.97772e-07 0)
(-0.00163365 1.79644e-07 0)
(-0.00162983 2.05449e-07 0)
(-0.00162702 1.65751e-07 0)
(-0.00162273 2.23326e-07 0)
(-0.0016205 1.38526e-07 0)
(-0.00161535 2.59894e-07 0)
(-0.00161416 8.70996e-08 0)
(-0.00160767 3.24599e-07 0)
(-0.00160797 5.9752e-09 0)
(-0.00159975 3.56748e-07 0)
(-0.0353513 -0.00216561 0)
(-0.0160371 -0.000524937 0)
(-0.0105919 -0.000100525 0)
(-0.00845792 -3.45615e-05 0)
(-0.00749468 -1.96557e-05 0)
(-0.00685982 -1.59843e-05 0)
(-0.00635186 -1.31838e-05 0)
(-0.00594148 -1.07334e-05 0)
(-0.00560776 -8.93115e-06 0)
(-0.00532996 -7.62944e-06 0)
(-0.00509353 -6.64226e-06 0)
(-0.00488905 -5.86143e-06 0)
(-0.00471006 -5.22807e-06 0)
(-0.00455183 -4.70526e-06 0)
(-0.00441079 -4.26736e-06 0)
(-0.00428416 -3.89575e-06 0)
(-0.00416978 -3.57668e-06 0)
(-0.00406592 -3.29982e-06 0)
(-0.00397116 -3.05728e-06 0)
(-0.00388438 -2.84295e-06 0)
(-0.00380461 -2.65201e-06 0)
(-0.00373106 -2.48061e-06 0)
(-0.00366308 -2.3256e-06 0)
(-0.00360011 -2.18442e-06 0)
(-0.00354166 -2.05487e-06 0)
(-0.00348733 -1.93513e-06 0)
(-0.00343678 -1.82356e-06 0)
(-0.00338972 -1.71884e-06 0)
(-0.00334588 -1.61961e-06 0)
(-0.00330506 -1.52496e-06 0)
(-0.00326708 -1.43351e-06 0)
(-0.00323177 -1.34488e-06 0)
(-0.00319904 -1.25722e-06 0)
(-0.00316877 -1.17102e-06 0)
(-0.00314089 -1.08324e-06 0)
(-0.00311534 -9.95864e-07 0)
(-0.00309208 -9.03693e-07 0)
(-0.0030712 -8.10516e-07 0)
(-0.00305245 -7.09253e-07 0)
(-0.00303644 -6.01619e-07 0)
(-0.00302214 -4.8756e-07 0)
(-0.00301185 -3.42725e-07 0)
(-0.00300168 -2.19667e-07 0)
(-0.00299941 3.13351e-08 0)
(-0.00299214 1.36842e-07 0)
(-0.00300396 7.05061e-07 0)
(-0.00299646 6.06482e-07 0)
(-0.00303518 2.59856e-06 0)
(-0.0030417 -4.72953e-06 0)
(-0.00286436 0.000210937 0)
(1.16652e-05 -4.58079e-06 0)
(1.09597e-05 -2.16042e-05 0)
(6.85502e-06 -2.81729e-05 0)
(1.19548e-05 -1.3228e-05 0)
(3.29604e-05 -1.78435e-06 0)
(3.72197e-05 1.43658e-05 0)
(-7.88415e-05 0.00012509 0)
(-0.000328658 0.000468979 0)
(-0.000449145 0.00101494 0)
(-0.000384326 0.00146528 0)
(-0.00031451 0.00179266 0)
(-0.000249591 0.00206136 0)
(-0.000161876 0.00223671 0)
(-6.50078e-05 0.00230937 0)
(3.71005e-05 0.00226878 0)
(0.000135073 0.00212304 0)
(0.000225271 0.0018754 0)
(0.00030081 0.00154199 0)
(0.000357511 0.00114731 0)
(0.000398759 0.000719208 0)
(0.000425955 0.000256081 0)
(0.000409975 -0.000227133 0)
(0.00037217 -0.000658123 0)
(0.000333357 -0.0010492 0)
(0.00029237 -0.00140231 0)
(0.000250326 -0.00171338 0)
(0.000209042 -0.00198166 0)
(0.000169861 -0.00220888 0)
(0.000133506 -0.00239795 0)
(0.000100253 -0.00255226 0)
(7.00192e-05 -0.00267521 0)
(4.26475e-05 -0.00276985 0)
(1.78107e-05 -0.00283922 0)
(-4.8731e-06 -0.00288545 0)
(-2.55279e-05 -0.00291114 0)
(-4.49641e-05 -0.00291811 0)
(-6.37101e-05 -0.00290668 0)
(-8.07598e-05 -0.0028789 0)
(-9.57047e-05 -0.00283662 0)
(-0.000108377 -0.00278149 0)
(-0.000118853 -0.0027153 0)
(-0.000127354 -0.00263976 0)
(-0.000134193 -0.00255642 0)
(-0.000139742 -0.00246663 0)
(-0.000144393 -0.00237156 0)
(-0.000148523 -0.00227213 0)
(-0.000152455 -0.002169 0)
(-0.000156422 -0.00206263 0)
(-0.000160555 -0.00195327 0)
(-0.000164878 -0.00184107 0)
(-0.00016932 -0.00172608 0)
(-0.000173723 -0.00160833 0)
(-0.000177848 -0.00148787 0)
(-0.000181384 -0.00136484 0)
(-0.000183948 -0.00123948 0)
(-0.000185089 -0.00111216 0)
(-0.000184296 -0.000983468 0)
(-0.000181007 -0.000854207 0)
(-0.000174657 -0.000725438 0)
(-0.000164731 -0.000598509 0)
(-0.000151009 -0.000475187 0)
(-0.000133974 -0.000357545 0)
(-0.0001156 -0.000247959 0)
(-0.000100076 -0.000147684 0)
(-9.19834e-05 -4.94468e-05 0)
(-7.10927e-05 5.96426e-05 0)
(-1.46965e-06 0.000160793 0)
(0.000100065 0.000223347 0)
(0.000193587 0.000237799 0)
(0.000246109 0.000205967 0)
(0.000250737 0.000156635 0)
(0.000201042 0.000107703 0)
(0.00010411 7.50011e-05 0)
(-6.18918e-06 9.13715e-05 0)
(-7.49554e-05 0.000134808 0)
(-6.70017e-05 0.000149061 0)
(-4.43101e-05 0.000124962 0)
(-5.2212e-05 9.25134e-05 0)
(-6.43378e-05 9.134e-05 0)
(-4.82994e-05 0.000112182 0)
(-1.79264e-06 0.000121156 0)
(4.82129e-05 9.67197e-05 0)
(7.02656e-05 5.30262e-05 0)
(6.80853e-05 1.93146e-05 0)
(6.39294e-05 -6.6914e-07 0)
(6.63936e-05 -2.18062e-05 0)
(7.10953e-05 -5.22852e-05 0)
(7.06977e-05 -8.75084e-05 0)
(6.5923e-05 -0.000120478 0)
(5.958e-05 -0.000148522 0)
(5.29416e-05 -0.000171695 0)
(4.62038e-05 -0.000190269 0)
(3.9289e-05 -0.000204647 0)
(3.2039e-05 -0.000215387 0)
(2.43659e-05 -0.000223207 0)
(1.62948e-05 -0.000228733 0)
(7.97778e-06 -0.000232336 0)
(-3.95151e-07 -0.000234157 0)
(-8.89195e-06 -0.000234036 0)
(-1.77263e-05 -0.000231295 0)
(-2.68669e-05 -0.000225141 0)
(-3.61873e-05 -0.000214913 0)
(-4.527e-05 -0.000200233 0)
(-5.36114e-05 -0.000181175 0)
(-6.06597e-05 -0.000158195 0)
(-6.60069e-05 -0.000132009 0)
(-6.9321e-05 -0.00010348 0)
(-7.0444e-05 -7.37233e-05 0)
(-6.94325e-05 -4.38689e-05 0)
(-6.65099e-05 -1.48652e-05 0)
(-6.20115e-05 1.26447e-05 0)
(-5.64132e-05 3.84041e-05 0)
(-5.03218e-05 6.2583e-05 0)
(-4.44098e-05 8.58109e-05 0)
(-3.92787e-05 0.000108994 0)
(-3.54519e-05 0.000133036 0)
(-3.3474e-05 0.000158558 0)
(-3.41056e-05 0.000185796 0)
(-3.84345e-05 0.000214777 0)
(-4.77178e-05 0.000245689 0)
(-6.29055e-05 0.000279217 0)
(-8.39856e-05 0.000316624 0)
(-0.00010946 0.000359391 0)
(-0.00013632 0.000408434 0)
(-0.000160776 0.000463303 0)
(-0.00017952 0.000521945 0)
(-0.000190786 0.000581352 0)
(-0.000194603 0.000638639 0)
(-0.000192256 0.000691866 0)
(-0.0001854 0.000740155 0)
(-0.000175497 0.000783333 0)
(-0.00016364 0.000821526 0)
(-0.000150596 0.000854942 0)
(-0.000136894 0.000883795 0)
(-0.000122897 0.000908308 0)
(-0.000108842 0.000928701 0)
(-9.48624e-05 0.000945185 0)
(-8.10123e-05 0.000957946 0)
(-6.73001e-05 0.000967119 0)
(-5.37295e-05 0.000972848 0)
(-4.01991e-05 0.000975249 0)
(-2.67437e-05 0.000974307 0)
(-1.33515e-05 0.000970219 0)
(1.06275e-07 0.000963014 0)
(1.36418e-05 0.00095272 0)
(2.72803e-05 0.000939363 0)
(4.10263e-05 0.000922962 0)
(5.48682e-05 0.000903543 0)
(6.87775e-05 0.000881132 0)
(8.27091e-05 0.000855767 0)
(9.66028e-05 0.000827496 0)
(0.000110384 0.00079638 0)
(0.000123963 0.0007625 0)
(0.000137239 0.000725951 0)
(0.000150099 0.000686855 0)
(0.000162422 0.000645352 0)
(0.000174077 0.000601608 0)
(0.000184928 0.000555812 0)
(0.000194836 0.000508177 0)
(0.000203662 0.000458939 0)
(0.000211267 0.000408356 0)
(0.000217516 0.000356706 0)
(0.000222281 0.000304285 0)
(0.00022544 0.000251408 0)
(0.000226884 0.000198409 0)
(0.000226522 0.000145637 0)
(0.000224285 9.34591e-05 0)
(0.00022008 4.22536e-05 0)
(0.00021387 -7.55495e-06 0)
(0.000205721 -5.55635e-05 0)
(0.000195666 -0.000101389 0)
(0.000183763 -0.00014465 0)
(0.000170142 -0.000185022 0)
(0.000154961 -0.000222203 0)
(0.000138401 -0.000255945 0)
(0.00012067 -0.000286049 0)
(0.000101991 -0.000312359 0)
(8.26058e-05 -0.000334755 0)
(6.27695e-05 -0.000353156 0)
(4.27512e-05 -0.000367513 0)
(2.28336e-05 -0.000377806 0)
(3.32041e-06 -0.00038404 0)
(-1.55e-05 -0.000386231 0)
(-3.32176e-05 -0.000384414 0)
(-4.93396e-05 -0.000378778 0)
(-6.35413e-05 -0.000369582 0)
(-7.5526e-05 -0.000357088 0)
(-8.49275e-05 -0.000341651 0)
(-9.14293e-05 -0.000323715 0)
(-9.48036e-05 -0.000303854 0)
(-9.49604e-05 -0.000282889 0)
(-9.20846e-05 -0.000262146 0)
(-8.69559e-05 -0.000243992 0)
(-8.1606e-05 -0.000232865 0)
(-8.05297e-05 -0.000237157 0)
(-9.29057e-05 -0.000272164 0)
(-0.000136763 -0.000362121 0)
(-0.000246863 -0.000540854 0)
(-0.000476622 -0.000838225 0)
(-0.000821248 -0.00122398 0)
(1.42848e-06 -1.08941e-05 0)
(1.29215e-05 -9.11619e-06 0)
(1.93076e-05 -6.52799e-06 0)
(2.05524e-05 3.46506e-06 0)
(3.84428e-06 2.22817e-05 0)
(-3.64079e-05 4.1921e-05 0)
(-9.38862e-05 5.21823e-05 0)
(-0.000154806 4.74065e-05 0)
(-0.000205104 2.86372e-05 0)
(-0.00023338 1.26522e-06 0)
(-0.00023318 -2.54072e-05 0)
(-0.000207781 -4.21775e-05 0)
(-0.000168187 -4.50247e-05 0)
(-0.000127089 -3.69101e-05 0)
(-9.30516e-05 -2.35464e-05 0)
(-6.98378e-05 -8.60634e-06 0)
(-5.92237e-05 6.29884e-06 0)
(-6.14383e-05 1.8504e-05 0)
(-7.40889e-05 2.33606e-05 0)
(-8.83402e-05 2.35221e-05 0)
(-0.000110188 2.55776e-05 0)
(-0.00013437 2.86429e-05 0)
(-0.000170203 3.90265e-05 0)
(-0.000221094 3.49484e-05 0)
(-0.000248638 1.41893e-05 0)
(-0.000259089 6.89247e-06 0)
(-0.000261234 -3.1057e-05 0)
(-0.000208957 -7.72233e-05 0)
(-0.000145603 -7.5347e-05 0)
(-0.000116758 -7.25482e-05 0)
(-8.3023e-05 -6.21443e-05 0)
(-7.56026e-05 1.66509e-05 0)
(-0.000104506 0.000105451 0)
(-0.000161526 0.000151591 0)
(-0.000191437 0.000164712 0)
(-0.000181548 0.00017469 0)
(-0.000154126 0.000167109 0)
(-9.18145e-05 8.68826e-05 0)
(4.99124e-05 -7.1159e-05 0)
(0.000296 -0.000255722 0)
(0.000631651 -0.000405651 0)
(0.00100521 -0.000488113 0)
(0.00137338 -0.000515946 0)
(0.00171063 -0.000496493 0)
(0.00199362 -0.000431909 0)
(0.00220556 -0.000341713 0)
(0.00234811 -0.000248882 0)
(0.00243322 -0.000167533 0)
(0.00247518 -0.000103677 0)
(0.00248641 -5.74991e-05 0)
(0.0024748 -2.48275e-05 0)
(0.0024471 2.23713e-06 0)
(0.00240326 2.84442e-05 0)
(0.00234247 5.29894e-05 0)
(0.00226596 7.69789e-05 0)
(0.0021725 0.000101295 0)
(0.00206166 0.000125174 0)
(0.00193334 0.000149166 0)
(0.00178659 0.000174203 0)
(0.00161996 0.000200857 0)
(0.00143175 0.000229612 0)
(0.00122012 0.000260726 0)
(0.000983656 0.00029406 0)
(0.000722012 0.000329515 0)
(0.000434531 0.000368432 0)
(0.000110872 0.00041328 0)
(-0.000261029 0.000447501 0)
(-0.000637236 0.000457603 0)
(-0.000996641 0.000453271 0)
(-0.0013558 0.000443469 0)
(-0.00171311 0.000425765 0)
(-0.00205765 0.000397777 0)
(-0.00237868 0.000359959 0)
(-0.00266813 0.000315011 0)
(-0.00292192 0.000264849 0)
(-0.0031362 0.000211396 0)
(-0.00331121 0.000154654 0)
(-0.00344437 9.11345e-05 0)
(-0.00353216 1.84589e-05 0)
(-0.00357148 -7.34711e-05 0)
(-0.00354163 -0.000190914 0)
(-0.00342477 -0.000339773 0)
(-0.00319488 -0.000520066 0)
(-0.00281678 -0.000725756 0)
(-0.00223503 -0.000874607 0)
(-0.00152796 -0.000821715 0)
(-0.000925619 -0.000593632 0)
(-0.000528779 -0.000383386 0)
(-0.000239359 -0.000339561 0)
(0.000123377 -0.000280299 0)
(0.000361552 4.95236e-05 0)
(0.000343449 0.000221238 0)
(0.00037371 0.000178355 0)
(0.000278125 0.000152808 0)
(0.000146689 0.000177098 0)
(8.50728e-07 0.000128407 0)
(-9.60686e-05 8.38589e-05 0)
(-0.000165289 9.72224e-06 0)
(-0.000137612 -7.44088e-05 0)
(-7.21887e-06 -9.30489e-05 0)
(-9.08022e-05 -3.95176e-05 0)
(-9.68353e-05 -0.000197277 0)
(-7.89715e-05 -0.0003245 0)
(-7.44027e-05 -0.000420058 0)
(-7.80681e-05 -0.000499607 0)
(-5.69523e-05 -0.000552085 0)
(9.26626e-07 -0.000539081 0)
(6.77161e-05 -0.000452195 0)
(0.000117812 -0.000317821 0)
(0.000152099 -0.00015216 0)
(0.000177085 3.95925e-05 0)
(0.000195613 0.000249648 0)
(0.00019214 0.000461234 0)
(0.000156213 0.00063821 0)
(9.06292e-05 0.000743374 0)
(1.11696e-05 0.000758882 0)
(-7.3449e-05 0.000685536 0)
(-0.000158016 0.000515094 0)
(-0.000215049 0.000259596 0)
(-0.000205424 -3.90446e-05 0)
(-0.000128607 -0.000284152 0)
(-1.6206e-05 -0.000414502 0)
(9.74919e-05 -0.000402515 0)
(0.000174005 -0.00026294 0)
(0.000194209 -4.97397e-05 0)
(0.00017628 0.000168997 0)
(0.000146524 0.000344701 0)
(0.0001052 0.000474189 0)
(4.45445e-05 0.000561696 0)
(-1.38794e-05 0.000594244 0)
(-5.28573e-05 0.000578399 0)
(-7.86597e-05 0.000525974 0)
(-9.7484e-05 0.000444599 0)
(-0.000104221 0.00034824 0)
(-9.91079e-05 0.00025589 0)
(-8.43023e-05 0.000173783 0)
(-6.05303e-05 0.000135929 0)
(-4.33309e-05 0.000137389 0)
(-5.36678e-06 0.000131187 0)
(2.98623e-05 0.000125906 0)
(3.90908e-05 8.962e-05 0)
(8.51604e-05 1.51352e-05 0)
(0.000139339 -1.67635e-06 0)
(3.7321e-05 7.85527e-06 0)
(-0.000174266 -6.54644e-05 0)
(-0.000376352 -0.000193508 0)
(-0.000529597 -0.000296941 0)
(-0.000623739 -0.000373905 0)
(-0.000627738 -0.00044019 0)
(-0.000514939 -0.000476391 0)
(-0.000272405 -0.000442138 0)
(0.000115199 -0.000266835 0)
(0.00055388 9.18109e-05 0)
(0.000818512 0.000653556 0)
(0.000633346 0.00120311 0)
(0.000400411 0.00142421 0)
(0.000440468 0.00160601 0)
(0.000429017 0.00188892 0)
(0.000378439 0.00210548 0)
(0.000375466 0.00229679 0)
(0.000343619 0.00248807 0)
(0.000316847 0.00264418 0)
(0.000295028 0.00278792 0)
(0.000265423 0.00291502 0)
(0.000239884 0.00302278 0)
(0.000212161 0.00311712 0)
(0.00018551 0.00319518 0)
(0.000161757 0.0032604 0)
(0.000139688 0.00331441 0)
(0.000120714 0.00335837 0)
(0.000103859 0.00339441 0)
(8.89467e-05 0.00342331 0)
(7.58508e-05 0.00344621 0)
(6.42055e-05 0.00346393 0)
(5.41439e-05 0.00347716 0)
(4.54795e-05 0.00348673 0)
(3.80586e-05 0.00349324 0)
(3.172e-05 0.00349718 0)
(2.62589e-05 0.00349894 0)
(2.15867e-05 0.00349884 0)
(1.75242e-05 0.00349722 0)
(1.39235e-05 0.00349421 0)
(1.06826e-05 0.00348999 0)
(7.6975e-06 0.00348463 0)
(4.89464e-06 0.00347821 0)
(2.19715e-06 0.00347077 0)
(-4.3679e-07 0.00346233 0)
(-3.05657e-06 0.0034529 0)
(-5.68723e-06 0.00344249 0)
(-8.34445e-06 0.0034311 0)
(-1.10338e-05 0.00341874 0)
(-1.3745e-05 0.00340544 0)
(-1.64584e-05 0.00339124 0)
(-1.91453e-05 0.00337617 0)
(-2.17698e-05 0.00336032 0)
(-2.42925e-05 0.00334377 0)
(-2.66741e-05 0.00332662 0)
(-2.88778e-05 0.00330898 0)
(-3.08717e-05 0.00329099 0)
(-3.2631e-05 0.00327277 0)
(-3.41379e-05 0.00325447 0)
(-3.53813e-05 0.00323621 0)
(-3.63546e-05 0.00321813 0)
(-3.70565e-05 0.00320034 0)
(-3.74902e-05 0.00318296 0)
(-3.76648e-05 0.00316606 0)
(-3.75978e-05 0.00314975 0)
(-3.73166e-05 0.0031341 0)
(-3.68591e-05 0.00311917 0)
(-3.62717e-05 0.00310501 0)
(-3.56053e-05 0.00309164 0)
(-3.4908e-05 0.00307907 0)
(-3.42144e-05 0.00306725 0)
(-3.35324e-05 0.00305611 0)
(-3.28305e-05 0.00304557 0)
(-3.20352e-05 0.00303552 0)
(-3.10407e-05 0.00302589 0)
(-2.9733e-05 0.00301667 0)
(-2.80256e-05 0.00300787 0)
(-2.58827e-05 0.00299956 0)
(-2.32933e-05 0.00299178 0)
(-2.02134e-05 0.00298453 0)
(-1.65525e-05 0.00297789 0)
(-1.22025e-05 0.00297195 0)
(-7.05027e-06 0.00296683 0)
(-9.81499e-07 0.00296266 0)
(6.10149e-06 0.00295959 0)
(1.42478e-05 0.00295779 0)
(2.34343e-05 0.00295746 0)
(3.34875e-05 0.00295883 0)
(4.40841e-05 0.00296204 0)
(5.47618e-05 0.00296719 0)
(6.49348e-05 0.00297423 0)
(7.39491e-05 0.00298298 0)
(8.11572e-05 0.00299307 0)
(8.60082e-05 0.00300395 0)
(8.8132e-05 0.00301492 0)
(8.73876e-05 0.00302526 0)
(8.38559e-05 0.00303426 0)
(7.77777e-05 0.00304135 0)
(6.94722e-05 0.00304609 0)
(5.9298e-05 0.00304817 0)
(4.77098e-05 0.00304728 0)
(3.51999e-05 0.00304333 0)
(2.21875e-05 0.00303627 0)
(9.14815e-06 0.00302619 0)
(-3.46173e-06 0.00301333 0)
(-1.5305e-05 0.00299804 0)
(-2.6182e-05 0.00298076 0)
(-3.59905e-05 0.00296186 0)
(-4.46269e-05 0.00294163 0)
(-5.19455e-05 0.00292036 0)
(-5.77874e-05 0.00289845 0)
(-6.20332e-05 0.00287632 0)
(-6.4599e-05 0.00285439 0)
(-6.54159e-05 0.00283306 0)
(-6.44332e-05 0.00281274 0)
(-6.16296e-05 0.00279383 0)
(-5.70104e-05 0.00277671 0)
(-5.06039e-05 0.00276171 0)
(-4.24641e-05 0.00274915 0)
(-3.26928e-05 0.00273932 0)
(-2.14405e-05 0.00273242 0)
(-8.80205e-06 0.00272855 0)
(5.26653e-06 0.00272777 0)
(2.07551e-05 0.00273032 0)
(3.72528e-05 0.00273655 0)
(5.42381e-05 0.00274661 0)
(7.11006e-05 0.00276062 0)
(8.69355e-05 0.00277867 0)
(0.000100575 0.00280074 0)
(0.000110593 0.00282662 0)
(0.000115356 0.00285576 0)
(0.000113192 0.00288702 0)
(0.000102746 0.00291843 0)
(8.34796e-05 0.00294706 0)
(5.62624e-05 0.00296937 0)
(2.37573e-05 0.00298203 0)
(-9.61716e-06 0.00298314 0)
(-3.99472e-05 0.00297384 0)
(-6.55896e-05 0.00295765 0)
(-8.69622e-05 0.00293965 0)
(-0.000107269 0.00292472 0)
(-0.000131848 0.00291514 0)
(-0.000166114 0.00290991 0)
(-0.000214111 0.00290583 0)
(-0.000278232 0.00289998 0)
(-0.00036014 0.00289153 0)
(-0.000462095 0.00288141 0)
(-0.000587697 0.00287049 0)
(-0.00074149 0.00285742 0)
(-0.000927421 0.00283682 0)
(-0.00114669 0.00279931 0)
(-0.00139678 0.00273462 0)
(-0.0016734 0.00263561 0)
(-0.00197518 0.00250116 0)
(-0.00230814 0.00233774 0)
(-0.00267998 0.00216326 0)
(-0.00304846 0.00201705 0)
(-0.00330972 0.00203279 0)
)
;
    }
    frontAndBack
    {
        type            empty;
    }
}


// ************************************************************************* //
