/*--------------------------------*- C++ -*----------------------------------*\
  =========                 |
  \\      /  F ield         | OpenFOAM: The Open Source CFD Toolbox
   \\    /   O peration     | Website:  https://openfoam.org
    \\  /    A nd           | Version:  7
     \\/     M anipulation  |
\*---------------------------------------------------------------------------*/
FoamFile
{
    version     2.0;
    format      ascii;
    class       volScalarField;
    location    "0.07";
    object      k;
}
// * * * * * * * * * * * * * * * * * * * * * * * * * * * * * * * * * * * * * //

dimensions      [0 2 -2 0 0 0 0];

internalField   nonuniform List<scalar> 
70000
(
1.08549e-05
4.21852e-06
2.82383e-06
2.31593e-06
1.99633e-06
1.75567e-06
1.56349e-06
1.40639e-06
1.27552e-06
1.16469e-06
1.06977e-06
9.87723e-07
9.16241e-07
8.53589e-07
7.98277e-07
7.49273e-07
7.05456e-07
6.66302e-07
6.30871e-07
5.99039e-07
5.69903e-07
5.43661e-07
5.19341e-07
4.97446e-07
4.76861e-07
4.5841e-07
4.40749e-07
4.25076e-07
4.09716e-07
3.96335e-07
3.82787e-07
3.71343e-07
3.59219e-07
3.49427e-07
3.38432e-07
3.30036e-07
3.19967e-07
3.12721e-07
3.03424e-07
2.97132e-07
2.88435e-07
2.82973e-07
2.74704e-07
2.69941e-07
2.61976e-07
2.57835e-07
2.48736e-07
2.52337e-07
2.44381e-07
2.55169e-07
1.72794e-05
1.13668e-05
8.51925e-06
7.00807e-06
6.03396e-06
5.30671e-06
4.7266e-06
4.25214e-06
3.85679e-06
3.52204e-06
3.2353e-06
2.98748e-06
2.77152e-06
2.58225e-06
2.4151e-06
2.26702e-06
2.13457e-06
2.01623e-06
1.9091e-06
1.81287e-06
1.72475e-06
1.64541e-06
1.57184e-06
1.50563e-06
1.44334e-06
1.38755e-06
1.33408e-06
1.28669e-06
1.24016e-06
1.19972e-06
1.15865e-06
1.12408e-06
1.08729e-06
1.05773e-06
1.02436e-06
9.98997e-07
9.68456e-07
9.4655e-07
9.18355e-07
8.99342e-07
8.72955e-07
8.56459e-07
8.31384e-07
8.16994e-07
7.92846e-07
7.80372e-07
7.5274e-07
7.58802e-07
7.39421e-07
7.54579e-07
1.937e-05
1.61294e-05
1.32898e-05
1.12868e-05
9.82441e-06
8.69037e-06
7.77158e-06
7.01261e-06
6.37548e-06
5.83328e-06
5.3671e-06
4.96301e-06
4.6099e-06
4.29981e-06
4.02533e-06
3.7818e-06
3.5635e-06
3.36824e-06
3.19116e-06
3.03201e-06
2.88602e-06
2.75455e-06
2.63242e-06
2.52253e-06
2.41893e-06
2.32621e-06
2.23712e-06
2.15831e-06
2.08061e-06
2.01336e-06
1.94461e-06
1.88714e-06
1.82546e-06
1.7763e-06
1.72031e-06
1.67808e-06
1.62684e-06
1.59033e-06
1.54299e-06
1.51133e-06
1.46698e-06
1.43952e-06
1.39739e-06
1.37345e-06
1.33285e-06
1.31213e-06
1.26615e-06
1.26877e-06
1.24329e-06
1.24662e-06
1.9861e-05
1.826e-05
1.60853e-05
1.41987e-05
1.26374e-05
1.13443e-05
1.02551e-05
9.33129e-06
8.53888e-06
7.85431e-06
7.25911e-06
6.73862e-06
6.28019e-06
5.87514e-06
5.51437e-06
5.1927e-06
4.90282e-06
4.64263e-06
4.40563e-06
4.19215e-06
3.99556e-06
3.81824e-06
3.65291e-06
3.50406e-06
3.36314e-06
3.23712e-06
3.11537e-06
3.008e-06
2.90133e-06
2.8096e-06
2.71481e-06
2.63637e-06
2.55105e-06
2.48385e-06
2.40629e-06
2.3484e-06
2.27736e-06
2.22723e-06
2.16148e-06
2.11805e-06
2.05631e-06
2.01871e-06
1.95999e-06
1.9273e-06
1.87059e-06
1.84236e-06
1.78055e-06
1.77469e-06
1.75124e-06
1.72697e-06
1.99706e-05
1.7846e-05
1.60752e-05
1.47672e-05
1.36031e-05
1.25374e-05
1.15684e-05
1.06995e-05
9.91745e-06
9.22039e-06
8.59948e-06
8.04556e-06
7.54906e-06
7.10427e-06
6.70265e-06
6.34054e-06
6.01065e-06
5.71224e-06
5.43812e-06
5.18985e-06
4.95953e-06
4.75098e-06
4.55514e-06
4.37844e-06
4.20991e-06
4.0592e-06
3.91228e-06
3.78321e-06
3.65341e-06
3.54278e-06
3.42662e-06
3.33174e-06
3.22662e-06
3.14502e-06
3.04916e-06
2.97856e-06
2.89052e-06
2.82927e-06
2.74745e-06
2.69443e-06
2.61736e-06
2.57147e-06
2.49799e-06
2.45834e-06
2.387e-06
2.35343e-06
2.28074e-06
2.26248e-06
2.24064e-06
2.1896e-06
2.00095e-05
1.47035e-05
1.37499e-05
1.32148e-05
1.25961e-05
1.19325e-05
1.12834e-05
1.06624e-05
1.00861e-05
9.55136e-06
9.05019e-06
8.58266e-06
8.14788e-06
7.74683e-06
7.37392e-06
7.02994e-06
6.71012e-06
6.41648e-06
6.14255e-06
5.89174e-06
5.65584e-06
5.4405e-06
5.23569e-06
5.05002e-06
4.87059e-06
4.71001e-06
4.55105e-06
4.41218e-06
4.26983e-06
4.14994e-06
4.02108e-06
3.91758e-06
3.79999e-06
3.71029e-06
3.60242e-06
3.5243e-06
3.42463e-06
3.35664e-06
3.26343e-06
3.20447e-06
3.11628e-06
3.06525e-06
2.9808e-06
2.93692e-06
2.85471e-06
2.8179e-06
2.74094e-06
2.70673e-06
2.68377e-06
2.61819e-06
2.01333e-05
1.54629e-05
9.63433e-06
9.40462e-06
9.50139e-06
9.5047e-06
9.44806e-06
9.31298e-06
9.07247e-06
8.79853e-06
8.50357e-06
8.20537e-06
7.91228e-06
7.62788e-06
7.3487e-06
7.08744e-06
6.838e-06
6.60236e-06
6.376e-06
6.16396e-06
5.95919e-06
5.76915e-06
5.5842e-06
5.41501e-06
5.24751e-06
5.09733e-06
4.94488e-06
4.81282e-06
4.6733e-06
4.55769e-06
4.42908e-06
4.32795e-06
4.20897e-06
4.12016e-06
4.00983e-06
3.93166e-06
3.82864e-06
3.76018e-06
3.66294e-06
3.60319e-06
3.51062e-06
3.45873e-06
3.36961e-06
3.325e-06
3.23855e-06
3.20037e-06
3.12594e-06
3.07795e-06
3.05378e-06
2.98157e-06
2.01715e-05
1.86733e-05
8.67677e-06
5.54223e-06
5.63597e-06
5.94611e-06
6.30939e-06
6.59896e-06
6.78326e-06
6.89484e-06
6.91668e-06
6.8977e-06
6.84586e-06
6.75699e-06
6.64499e-06
6.52068e-06
6.37961e-06
6.23561e-06
6.08944e-06
5.9459e-06
5.80088e-06
5.66239e-06
5.52283e-06
5.39298e-06
5.26003e-06
5.14242e-06
5.01795e-06
4.91166e-06
4.79335e-06
4.69757e-06
4.5851e-06
4.49914e-06
4.39261e-06
4.31536e-06
4.21467e-06
4.14547e-06
4.04984e-06
3.98835e-06
3.89677e-06
3.84239e-06
3.75451e-06
3.70678e-06
3.62183e-06
3.58017e-06
3.49906e-06
3.45949e-06
3.39689e-06
3.34091e-06
3.3175e-06
3.24658e-06
2.01674e-05
1.97232e-05
1.61575e-05
4.84538e-06
3.04307e-06
3.11046e-06
3.38663e-06
3.82178e-06
4.19332e-06
4.51641e-06
4.76785e-06
4.96084e-06
5.10317e-06
5.20554e-06
5.26326e-06
5.30064e-06
5.30174e-06
5.29218e-06
5.26757e-06
5.22704e-06
5.17505e-06
5.11788e-06
5.05248e-06
4.98662e-06
4.91223e-06
4.8429e-06
4.7612e-06
4.69258e-06
4.60869e-06
4.54304e-06
4.45932e-06
4.39765e-06
4.31541e-06
4.25796e-06
4.17778e-06
4.12491e-06
4.04673e-06
3.99888e-06
3.92366e-06
3.88093e-06
3.80802e-06
3.76968e-06
3.69888e-06
3.66382e-06
3.59861e-06
3.55978e-06
3.51471e-06
3.46096e-06
3.44124e-06
3.38254e-06
2.01479e-05
1.9934e-05
1.90623e-05
1.44798e-05
5.20913e-06
2.15005e-06
1.91664e-06
2.00012e-06
2.22094e-06
2.52546e-06
2.80616e-06
3.06506e-06
3.29356e-06
3.49444e-06
3.65958e-06
3.8004e-06
3.91201e-06
4.00087e-06
4.0708e-06
4.12273e-06
4.15861e-06
4.18116e-06
4.19304e-06
4.19257e-06
4.18715e-06
4.1771e-06
4.1553e-06
4.13834e-06
4.10514e-06
4.08221e-06
4.04284e-06
4.01613e-06
3.97276e-06
3.94429e-06
3.89801e-06
3.86959e-06
3.82151e-06
3.79369e-06
3.74353e-06
3.71636e-06
3.66577e-06
3.64011e-06
3.59015e-06
3.56499e-06
3.52049e-06
3.48888e-06
3.46064e-06
3.41817e-06
3.4046e-06
3.36449e-06
2.01218e-05
1.9966e-05
1.96408e-05
1.85391e-05
1.51841e-05
8.29204e-06
3.06045e-06
1.62774e-06
1.44341e-06
1.45439e-06
1.53715e-06
1.7066e-06
1.89295e-06
2.07445e-06
2.24817e-06
2.41126e-06
2.56064e-06
2.69388e-06
2.81282e-06
2.91731e-06
3.00814e-06
3.08638e-06
3.15236e-06
3.20889e-06
3.2528e-06
3.29342e-06
3.32014e-06
3.34747e-06
3.36121e-06
3.37683e-06
3.3817e-06
3.38715e-06
3.38605e-06
3.38407e-06
3.37744e-06
3.37231e-06
3.35997e-06
3.35288e-06
3.33711e-06
3.32863e-06
3.31034e-06
3.30099e-06
3.28115e-06
3.27135e-06
3.25345e-06
3.2385e-06
3.22899e-06
3.20907e-06
3.20589e-06
3.1898e-06
2.00983e-05
1.99328e-05
1.97563e-05
1.93485e-05
1.84953e-05
1.65075e-05
1.22522e-05
6.75638e-06
2.91436e-06
1.47755e-06
1.24111e-06
1.15057e-06
1.15872e-06
1.20679e-06
1.30616e-06
1.41739e-06
1.53307e-06
1.64628e-06
1.7586e-06
1.86581e-06
1.96674e-06
2.06136e-06
2.14722e-06
2.22819e-06
2.2987e-06
2.36636e-06
2.42311e-06
2.47837e-06
2.52345e-06
2.56733e-06
2.60275e-06
2.63697e-06
2.66397e-06
2.69076e-06
2.71025e-06
2.73143e-06
2.74494e-06
2.76147e-06
2.77049e-06
2.78336e-06
2.7892e-06
2.79915e-06
2.80299e-06
2.81051e-06
2.81475e-06
2.81874e-06
2.82561e-06
2.82842e-06
2.83958e-06
2.84185e-06
2.00783e-05
1.98877e-05
1.9756e-05
1.94572e-05
1.91393e-05
1.86286e-05
1.75256e-05
1.53728e-05
1.16233e-05
7.29311e-06
3.85246e-06
1.84435e-06
1.19476e-06
1.05579e-06
9.8029e-07
9.5044e-07
9.64942e-07
1.00494e-06
1.06961e-06
1.13694e-06
1.20828e-06
1.28082e-06
1.35246e-06
1.42523e-06
1.49332e-06
1.56122e-06
1.62303e-06
1.68448e-06
1.73956e-06
1.79406e-06
1.84254e-06
1.89034e-06
1.9324e-06
1.97414e-06
2.0104e-06
2.04661e-06
2.07801e-06
2.10943e-06
2.13681e-06
2.16414e-06
2.18857e-06
2.21244e-06
2.23503e-06
2.25574e-06
2.27847e-06
2.29593e-06
2.32035e-06
2.33578e-06
2.36028e-06
2.38286e-06
2.00615e-05
1.98539e-05
1.97334e-05
1.94678e-05
1.92487e-05
1.90387e-05
1.87217e-05
1.81674e-05
1.70487e-05
1.51537e-05
1.24182e-05
9.03115e-06
5.75737e-06
3.30721e-06
1.7784e-06
1.1356e-06
9.60299e-07
8.90146e-07
8.35374e-07
8.03995e-07
8.08684e-07
8.25896e-07
8.60095e-07
9.01096e-07
9.41859e-07
9.87057e-07
1.03167e-06
1.07886e-06
1.12442e-06
1.17141e-06
1.21588e-06
1.26053e-06
1.30281e-06
1.34453e-06
1.3844e-06
1.42291e-06
1.46042e-06
1.49591e-06
1.53112e-06
1.56383e-06
1.59722e-06
1.62751e-06
1.6597e-06
1.68799e-06
1.71995e-06
1.74658e-06
1.77942e-06
1.80594e-06
1.83633e-06
1.87051e-06
2.00477e-05
1.98304e-05
1.97067e-05
1.94455e-05
1.92655e-05
1.91069e-05
1.89538e-05
1.87361e-05
1.8441e-05
1.78781e-05
1.7023e-05
1.55953e-05
1.37359e-05
1.13094e-05
8.58015e-06
5.95959e-06
3.83612e-06
2.32345e-06
1.40411e-06
9.9536e-07
8.56043e-07
7.97642e-07
7.49762e-07
7.12425e-07
6.89159e-07
6.90667e-07
6.98768e-07
7.16657e-07
7.39072e-07
7.64701e-07
7.90548e-07
8.18533e-07
8.47804e-07
8.77292e-07
9.08461e-07
9.38575e-07
9.70598e-07
1.00049e-06
1.03243e-06
1.06187e-06
1.09357e-06
1.12265e-06
1.15427e-06
1.18322e-06
1.21516e-06
1.24401e-06
1.27729e-06
1.30695e-06
1.33865e-06
1.37492e-06
2.00364e-05
1.98125e-05
1.96841e-05
1.94147e-05
1.92514e-05
1.90998e-05
1.89894e-05
1.88355e-05
1.86966e-05
1.84795e-05
1.82221e-05
1.77923e-05
1.71681e-05
1.62683e-05
1.50096e-05
1.34292e-05
1.15455e-05
9.40131e-06
7.2334e-06
5.24188e-06
3.62096e-06
2.40515e-06
1.5625e-06
1.07681e-06
8.50639e-07
7.57924e-07
7.11049e-07
6.74164e-07
6.39155e-07
6.14002e-07
5.97484e-07
5.9666e-07
6.00112e-07
6.08094e-07
6.2163e-07
6.35831e-07
6.5281e-07
6.69323e-07
6.88595e-07
7.07627e-07
7.2907e-07
7.50117e-07
7.73302e-07
7.96138e-07
8.2094e-07
8.45002e-07
8.72146e-07
8.97785e-07
9.2498e-07
9.56421e-07
2.00273e-05
1.97986e-05
1.96648e-05
1.93921e-05
1.92253e-05
1.90715e-05
1.89704e-05
1.88388e-05
1.87196e-05
1.85787e-05
1.84376e-05
1.8267e-05
1.80473e-05
1.77566e-05
1.73469e-05
1.67833e-05
1.60347e-05
1.50704e-05
1.3866e-05
1.24797e-05
1.09081e-05
9.19481e-06
7.4568e-06
5.82613e-06
4.36801e-06
3.19522e-06
2.27792e-06
1.59615e-06
1.13951e-06
8.77534e-07
7.43646e-07
6.78141e-07
6.39424e-07
6.1014e-07
5.82715e-07
5.58055e-07
5.39814e-07
5.28145e-07
5.24429e-07
5.25814e-07
5.29808e-07
5.3708e-07
5.46504e-07
5.57444e-07
5.69988e-07
5.83502e-07
5.99327e-07
6.15809e-07
6.33532e-07
6.55319e-07
2.00201e-05
1.97894e-05
1.96455e-05
1.93754e-05
1.92002e-05
1.90418e-05
1.89304e-05
1.88118e-05
1.86961e-05
1.8572e-05
1.84484e-05
1.83243e-05
1.81939e-05
1.8052e-05
1.78874e-05
1.76845e-05
1.74265e-05
1.70931e-05
1.66622e-05
1.61093e-05
1.54368e-05
1.46056e-05
1.36436e-05
1.25269e-05
1.13379e-05
1.00248e-05
8.64924e-06
7.27658e-06
5.96488e-06
4.76984e-06
3.71988e-06
2.86003e-06
2.16301e-06
1.61414e-06
1.20881e-06
9.36137e-07
7.70512e-07
6.7653e-07
6.23515e-07
5.90214e-07
5.64671e-07
5.43198e-07
5.23492e-07
5.06533e-07
4.94031e-07
4.85907e-07
4.83865e-07
4.85306e-07
4.88975e-07
4.97294e-07
2.00146e-05
1.97893e-05
1.9619e-05
1.93622e-05
1.91786e-05
1.90143e-05
1.88924e-05
1.87741e-05
1.86533e-05
1.85345e-05
1.8416e-05
1.83009e-05
1.81842e-05
1.8067e-05
1.79497e-05
1.78284e-05
1.77005e-05
1.75541e-05
1.73897e-05
1.71835e-05
1.69435e-05
1.6637e-05
1.62757e-05
1.58233e-05
1.52997e-05
1.46788e-05
1.39695e-05
1.31601e-05
1.22756e-05
1.13139e-05
1.03102e-05
9.2395e-06
8.14229e-06
7.05307e-06
6.00154e-06
5.01871e-06
4.1201e-06
3.3329e-06
2.66884e-06
2.11237e-06
1.65445e-06
1.29182e-06
1.02149e-06
8.36311e-07
7.1607e-07
6.43911e-07
5.97857e-07
5.71215e-07
5.47731e-07
5.37041e-07
2.00103e-05
1.97937e-05
1.95916e-05
1.93484e-05
1.91586e-05
1.89878e-05
1.8857e-05
1.87361e-05
1.86107e-05
1.84888e-05
1.8367e-05
1.82512e-05
1.81365e-05
1.80261e-05
1.79158e-05
1.78086e-05
1.76995e-05
1.75903e-05
1.7483e-05
1.73677e-05
1.72505e-05
1.71158e-05
1.69704e-05
1.67958e-05
1.65986e-05
1.63622e-05
1.60893e-05
1.57667e-05
1.53936e-05
1.49658e-05
1.44788e-05
1.39366e-05
1.3328e-05
1.26644e-05
1.1944e-05
1.11784e-05
1.03756e-05
9.53936e-06
8.66118e-06
7.76706e-06
6.87154e-06
5.99814e-06
5.15458e-06
4.37178e-06
3.63701e-06
3.00376e-06
2.45489e-06
1.99877e-06
1.60936e-06
1.31722e-06
2.00071e-05
1.98018e-05
1.95665e-05
1.93349e-05
1.91401e-05
1.89625e-05
1.88233e-05
1.86991e-05
1.8569e-05
1.84439e-05
1.83168e-05
1.81988e-05
1.808e-05
1.79673e-05
1.78549e-05
1.77484e-05
1.76435e-05
1.75419e-05
1.7442e-05
1.73428e-05
1.72442e-05
1.71447e-05
1.70468e-05
1.69454e-05
1.6841e-05
1.6731e-05
1.66092e-05
1.64784e-05
1.63261e-05
1.61614e-05
1.59662e-05
1.57532e-05
1.55037e-05
1.5229e-05
1.49115e-05
1.45656e-05
1.41713e-05
1.37471e-05
1.32726e-05
1.2761e-05
1.22007e-05
1.16035e-05
1.09645e-05
1.02905e-05
9.58907e-06
8.85336e-06
8.06143e-06
7.27664e-06
6.45524e-06
5.67847e-06
2.00048e-05
1.98107e-05
1.95434e-05
1.93213e-05
1.91223e-05
1.89385e-05
1.87909e-05
1.86629e-05
1.85287e-05
1.84001e-05
1.82681e-05
1.81466e-05
1.80239e-05
1.79078e-05
1.77918e-05
1.76833e-05
1.75733e-05
1.74704e-05
1.73677e-05
1.72693e-05
1.71736e-05
1.70816e-05
1.699e-05
1.69015e-05
1.68121e-05
1.67258e-05
1.66339e-05
1.65492e-05
1.64559e-05
1.63681e-05
1.62678e-05
1.61702e-05
1.60578e-05
1.59435e-05
1.58081e-05
1.56715e-05
1.55065e-05
1.5337e-05
1.51366e-05
1.49254e-05
1.46789e-05
1.44175e-05
1.41164e-05
1.3793e-05
1.343e-05
1.30388e-05
1.25998e-05
1.21274e-05
1.16059e-05
1.10409e-05
2.00031e-05
1.98199e-05
1.95222e-05
1.93071e-05
1.91047e-05
1.89157e-05
1.87596e-05
1.86274e-05
1.84898e-05
1.83575e-05
1.8221e-05
1.80956e-05
1.79692e-05
1.78496e-05
1.77298e-05
1.76185e-05
1.75047e-05
1.73991e-05
1.72928e-05
1.71921e-05
1.70915e-05
1.69972e-05
1.69021e-05
1.68131e-05
1.67225e-05
1.66415e-05
1.65552e-05
1.6478e-05
1.63945e-05
1.63197e-05
1.62372e-05
1.61614e-05
1.60786e-05
1.6003e-05
1.59178e-05
1.5842e-05
1.57529e-05
1.56707e-05
1.55744e-05
1.54827e-05
1.53724e-05
1.52657e-05
1.5137e-05
1.50036e-05
1.48543e-05
1.46882e-05
1.45041e-05
1.42967e-05
1.40697e-05
1.38073e-05
2.00018e-05
1.98285e-05
1.9503e-05
1.92918e-05
1.90869e-05
1.88942e-05
1.87296e-05
1.85928e-05
1.84522e-05
1.83162e-05
1.81757e-05
1.80465e-05
1.79166e-05
1.77933e-05
1.76702e-05
1.75558e-05
1.74385e-05
1.73302e-05
1.72205e-05
1.71172e-05
1.70131e-05
1.69163e-05
1.68174e-05
1.67257e-05
1.66319e-05
1.65465e-05
1.64565e-05
1.63758e-05
1.62909e-05
1.62138e-05
1.61321e-05
1.60602e-05
1.59837e-05
1.59141e-05
1.58383e-05
1.5772e-05
1.56983e-05
1.56318e-05
1.55579e-05
1.54904e-05
1.54143e-05
1.53482e-05
1.52708e-05
1.51982e-05
1.51213e-05
1.50408e-05
1.49547e-05
1.48603e-05
1.4765e-05
1.46528e-05
2.0001e-05
1.98305e-05
1.94874e-05
1.92763e-05
1.90692e-05
1.88748e-05
1.87014e-05
1.85597e-05
1.84163e-05
1.82769e-05
1.81328e-05
1.79998e-05
1.78665e-05
1.77399e-05
1.76136e-05
1.74961e-05
1.73755e-05
1.72646e-05
1.71519e-05
1.70459e-05
1.69388e-05
1.68398e-05
1.67377e-05
1.66435e-05
1.65471e-05
1.64587e-05
1.63657e-05
1.62817e-05
1.61937e-05
1.6113e-05
1.60274e-05
1.59513e-05
1.587e-05
1.57965e-05
1.57178e-05
1.56486e-05
1.55738e-05
1.55076e-05
1.54364e-05
1.5375e-05
1.53065e-05
1.52474e-05
1.51795e-05
1.5119e-05
1.50553e-05
1.49935e-05
1.49266e-05
1.48578e-05
1.4791e-05
1.47237e-05
2.00004e-05
1.98289e-05
1.94744e-05
1.92599e-05
1.90511e-05
1.88573e-05
1.86753e-05
1.85285e-05
1.83824e-05
1.824e-05
1.80926e-05
1.7956e-05
1.78195e-05
1.76899e-05
1.75606e-05
1.74404e-05
1.73168e-05
1.72034e-05
1.70879e-05
1.69795e-05
1.68697e-05
1.67686e-05
1.66637e-05
1.65674e-05
1.64686e-05
1.63779e-05
1.62824e-05
1.61961e-05
1.61055e-05
1.60221e-05
1.59335e-05
1.58546e-05
1.57697e-05
1.56927e-05
1.56102e-05
1.55371e-05
1.54584e-05
1.5388e-05
1.53114e-05
1.52447e-05
1.51715e-05
1.5108e-05
1.50361e-05
1.4974e-05
1.49061e-05
1.48469e-05
1.47805e-05
1.47205e-05
1.46601e-05
1.46054e-05
2e-05
1.98273e-05
1.94636e-05
1.92421e-05
1.90322e-05
1.88412e-05
1.86514e-05
1.84993e-05
1.83506e-05
1.82057e-05
1.80554e-05
1.79156e-05
1.77762e-05
1.7644e-05
1.7512e-05
1.73892e-05
1.7263e-05
1.71475e-05
1.70294e-05
1.69189e-05
1.68065e-05
1.67038e-05
1.65963e-05
1.64982e-05
1.63972e-05
1.63048e-05
1.62069e-05
1.6119e-05
1.60261e-05
1.59406e-05
1.58495e-05
1.57687e-05
1.5681e-05
1.56016e-05
1.5516e-05
1.54403e-05
1.53583e-05
1.52849e-05
1.52044e-05
1.51343e-05
1.50571e-05
1.49889e-05
1.49126e-05
1.48464e-05
1.47728e-05
1.47088e-05
1.46352e-05
1.45701e-05
1.45004e-05
1.44429e-05
1.99999e-05
1.98263e-05
1.94558e-05
1.92242e-05
1.90133e-05
1.88268e-05
1.86303e-05
1.84726e-05
1.83215e-05
1.81745e-05
1.80219e-05
1.78791e-05
1.7737e-05
1.76027e-05
1.74682e-05
1.73434e-05
1.7215e-05
1.70976e-05
1.69773e-05
1.6865e-05
1.67505e-05
1.66462e-05
1.65366e-05
1.6437e-05
1.63341e-05
1.62403e-05
1.61404e-05
1.60511e-05
1.59561e-05
1.58691e-05
1.57759e-05
1.56935e-05
1.56034e-05
1.55223e-05
1.5434e-05
1.53564e-05
1.52718e-05
1.51962e-05
1.51127e-05
1.50404e-05
1.496e-05
1.48886e-05
1.48088e-05
1.47397e-05
1.46615e-05
1.45939e-05
1.4515e-05
1.44471e-05
1.43708e-05
1.43085e-05
1.99999e-05
1.98258e-05
1.94512e-05
1.92072e-05
1.89954e-05
1.88145e-05
1.8613e-05
1.84493e-05
1.82958e-05
1.81472e-05
1.79927e-05
1.78473e-05
1.77028e-05
1.75668e-05
1.74303e-05
1.73037e-05
1.71736e-05
1.70546e-05
1.69324e-05
1.68189e-05
1.67025e-05
1.6597e-05
1.64856e-05
1.63849e-05
1.62803e-05
1.61855e-05
1.6084e-05
1.59935e-05
1.58968e-05
1.58086e-05
1.57136e-05
1.56297e-05
1.55377e-05
1.54551e-05
1.53646e-05
1.52854e-05
1.51987e-05
1.51212e-05
1.50352e-05
1.49612e-05
1.48781e-05
1.48044e-05
1.47218e-05
1.46504e-05
1.45687e-05
1.44981e-05
1.44156e-05
1.43454e-05
1.42655e-05
1.41982e-05
1.99999e-05
1.98258e-05
1.94495e-05
1.9192e-05
1.89792e-05
1.88043e-05
1.86002e-05
1.84301e-05
1.82743e-05
1.81244e-05
1.79686e-05
1.78209e-05
1.76744e-05
1.75371e-05
1.73988e-05
1.72709e-05
1.71395e-05
1.70192e-05
1.68957e-05
1.67812e-05
1.66634e-05
1.65569e-05
1.64444e-05
1.63428e-05
1.62369e-05
1.61414e-05
1.60387e-05
1.59474e-05
1.58493e-05
1.57601e-05
1.56637e-05
1.55786e-05
1.5485e-05
1.5401e-05
1.53087e-05
1.52282e-05
1.51395e-05
1.50603e-05
1.49724e-05
1.48969e-05
1.48113e-05
1.47358e-05
1.46507e-05
1.45773e-05
1.4493e-05
1.44194e-05
1.43345e-05
1.42624e-05
1.41795e-05
1.41086e-05
1.99999e-05
1.98263e-05
1.94506e-05
1.91794e-05
1.89651e-05
1.87958e-05
1.85917e-05
1.84155e-05
1.82572e-05
1.81063e-05
1.79497e-05
1.78003e-05
1.76522e-05
1.75138e-05
1.73744e-05
1.72454e-05
1.71132e-05
1.6992e-05
1.68675e-05
1.67526e-05
1.66337e-05
1.65266e-05
1.64134e-05
1.63114e-05
1.62046e-05
1.61089e-05
1.60054e-05
1.59134e-05
1.58144e-05
1.57247e-05
1.56272e-05
1.55412e-05
1.54463e-05
1.53612e-05
1.52674e-05
1.51858e-05
1.50954e-05
1.50148e-05
1.49253e-05
1.48483e-05
1.47606e-05
1.46835e-05
1.45963e-05
1.4521e-05
1.44342e-05
1.43581e-05
1.42712e-05
1.41975e-05
1.41119e-05
1.40379e-05
1.99999e-05
1.98273e-05
1.94543e-05
1.917e-05
1.89536e-05
1.87891e-05
1.85876e-05
1.84057e-05
1.82448e-05
1.80932e-05
1.79361e-05
1.77856e-05
1.76363e-05
1.74971e-05
1.7357e-05
1.72274e-05
1.70949e-05
1.69732e-05
1.68481e-05
1.67332e-05
1.66139e-05
1.65065e-05
1.63931e-05
1.62912e-05
1.6184e-05
1.60884e-05
1.59846e-05
1.58923e-05
1.57929e-05
1.5703e-05
1.56048e-05
1.55181e-05
1.54223e-05
1.53365e-05
1.52415e-05
1.5159e-05
1.50671e-05
1.49855e-05
1.48946e-05
1.48162e-05
1.47267e-05
1.46483e-05
1.45591e-05
1.44822e-05
1.4393e-05
1.4315e-05
1.42264e-05
1.41512e-05
1.40627e-05
1.39864e-05
1.99999e-05
1.98288e-05
1.94609e-05
1.91644e-05
1.89453e-05
1.87842e-05
1.85879e-05
1.84011e-05
1.82374e-05
1.8085e-05
1.7928e-05
1.77767e-05
1.76266e-05
1.74869e-05
1.73467e-05
1.72168e-05
1.70845e-05
1.69627e-05
1.68376e-05
1.6723e-05
1.66039e-05
1.64966e-05
1.63836e-05
1.62822e-05
1.61753e-05
1.60801e-05
1.59767e-05
1.58846e-05
1.57851e-05
1.56955e-05
1.55968e-05
1.55099e-05
1.54133e-05
1.53271e-05
1.52314e-05
1.5148e-05
1.5055e-05
1.49726e-05
1.48807e-05
1.48011e-05
1.471e-05
1.46303e-05
1.45396e-05
1.44612e-05
1.43697e-05
1.42903e-05
1.42005e-05
1.41236e-05
1.40327e-05
1.39554e-05
1.99999e-05
1.98309e-05
1.94696e-05
1.9163e-05
1.894e-05
1.87814e-05
1.85917e-05
1.84016e-05
1.82348e-05
1.80818e-05
1.79252e-05
1.77736e-05
1.76231e-05
1.7483e-05
1.73431e-05
1.72134e-05
1.70817e-05
1.69604e-05
1.6836e-05
1.67222e-05
1.66038e-05
1.64969e-05
1.63845e-05
1.62838e-05
1.61773e-05
1.60826e-05
1.59797e-05
1.5888e-05
1.57887e-05
1.56995e-05
1.56009e-05
1.55139e-05
1.54171e-05
1.53308e-05
1.52348e-05
1.51508e-05
1.50573e-05
1.49744e-05
1.48818e-05
1.48016e-05
1.47096e-05
1.46287e-05
1.45373e-05
1.44578e-05
1.43643e-05
1.42843e-05
1.41936e-05
1.41153e-05
1.40226e-05
1.39447e-05
1.99999e-05
1.98335e-05
1.94807e-05
1.91655e-05
1.89385e-05
1.878e-05
1.85994e-05
1.8407e-05
1.82368e-05
1.80831e-05
1.79272e-05
1.77757e-05
1.76251e-05
1.74849e-05
1.73456e-05
1.72164e-05
1.70855e-05
1.69648e-05
1.6841e-05
1.6728e-05
1.66105e-05
1.65044e-05
1.63931e-05
1.62939e-05
1.61885e-05
1.6095e-05
1.59934e-05
1.59029e-05
1.58043e-05
1.57163e-05
1.56182e-05
1.55315e-05
1.54347e-05
1.53489e-05
1.52527e-05
1.51683e-05
1.50745e-05
1.49913e-05
1.4898e-05
1.48174e-05
1.47241e-05
1.46421e-05
1.45503e-05
1.44694e-05
1.43742e-05
1.42941e-05
1.42026e-05
1.41229e-05
1.4029e-05
1.39512e-05
1.99999e-05
1.98367e-05
1.94934e-05
1.91726e-05
1.89406e-05
1.87812e-05
1.86094e-05
1.84177e-05
1.82441e-05
1.80888e-05
1.79335e-05
1.77823e-05
1.76318e-05
1.74915e-05
1.73531e-05
1.72247e-05
1.7095e-05
1.69754e-05
1.68531e-05
1.67415e-05
1.66257e-05
1.6521e-05
1.64114e-05
1.6314e-05
1.62102e-05
1.61182e-05
1.60183e-05
1.59296e-05
1.58321e-05
1.57454e-05
1.56485e-05
1.55624e-05
1.54663e-05
1.53813e-05
1.52854e-05
1.5201e-05
1.51077e-05
1.50242e-05
1.49312e-05
1.48506e-05
1.47561e-05
1.46743e-05
1.45825e-05
1.44997e-05
1.44034e-05
1.43243e-05
1.42315e-05
1.415e-05
1.40555e-05
1.39789e-05
1.99999e-05
1.98405e-05
1.95074e-05
1.91839e-05
1.89469e-05
1.8785e-05
1.86222e-05
1.84326e-05
1.8256e-05
1.80991e-05
1.79445e-05
1.77938e-05
1.76436e-05
1.75035e-05
1.7366e-05
1.72384e-05
1.71101e-05
1.69918e-05
1.68713e-05
1.67611e-05
1.66471e-05
1.65441e-05
1.64364e-05
1.6341e-05
1.62392e-05
1.61491e-05
1.60511e-05
1.59645e-05
1.58686e-05
1.57834e-05
1.5688e-05
1.5603e-05
1.55078e-05
1.54238e-05
1.53284e-05
1.52449e-05
1.51517e-05
1.50682e-05
1.49768e-05
1.48951e-05
1.47999e-05
1.47202e-05
1.4627e-05
1.45426e-05
1.44486e-05
1.43696e-05
1.42742e-05
1.41933e-05
1.41014e-05
1.40269e-05
1.99999e-05
1.98446e-05
1.95224e-05
1.91989e-05
1.8957e-05
1.8792e-05
1.86373e-05
1.84516e-05
1.82724e-05
1.81135e-05
1.79592e-05
1.7809e-05
1.76592e-05
1.75192e-05
1.73826e-05
1.72559e-05
1.71292e-05
1.70122e-05
1.68937e-05
1.67851e-05
1.6673e-05
1.6572e-05
1.64666e-05
1.63733e-05
1.62738e-05
1.61859e-05
1.60903e-05
1.60061e-05
1.59122e-05
1.58286e-05
1.57352e-05
1.56513e-05
1.55581e-05
1.54743e-05
1.53803e-05
1.5298e-05
1.52044e-05
1.51226e-05
1.50321e-05
1.4949e-05
1.48555e-05
1.47765e-05
1.46813e-05
1.45979e-05
1.45056e-05
1.44254e-05
1.43292e-05
1.42502e-05
1.41603e-05
1.40874e-05
1.99999e-05
1.98491e-05
1.95379e-05
1.92173e-05
1.89711e-05
1.88024e-05
1.8654e-05
1.8474e-05
1.8293e-05
1.81318e-05
1.79773e-05
1.78275e-05
1.76781e-05
1.75381e-05
1.74023e-05
1.72764e-05
1.71513e-05
1.70357e-05
1.69192e-05
1.68123e-05
1.67023e-05
1.66034e-05
1.65004e-05
1.64094e-05
1.63124e-05
1.62271e-05
1.61341e-05
1.60523e-05
1.59608e-05
1.58792e-05
1.5788e-05
1.57052e-05
1.56149e-05
1.55303e-05
1.54397e-05
1.53571e-05
1.52645e-05
1.5185e-05
1.50937e-05
1.50109e-05
1.49201e-05
1.48401e-05
1.4744e-05
1.46633e-05
1.45716e-05
1.44897e-05
1.43945e-05
1.43184e-05
1.42301e-05
1.41589e-05
1.99999e-05
1.98538e-05
1.95538e-05
1.92383e-05
1.89891e-05
1.88164e-05
1.86726e-05
1.84993e-05
1.83175e-05
1.81538e-05
1.79986e-05
1.78489e-05
1.76998e-05
1.75597e-05
1.74243e-05
1.7299e-05
1.71755e-05
1.70613e-05
1.69466e-05
1.68413e-05
1.67336e-05
1.66369e-05
1.65364e-05
1.64477e-05
1.63534e-05
1.62708e-05
1.61806e-05
1.61015e-05
1.60123e-05
1.59335e-05
1.58441e-05
1.57634e-05
1.56752e-05
1.55906e-05
1.55042e-05
1.54196e-05
1.53304e-05
1.52525e-05
1.5159e-05
1.50794e-05
1.49906e-05
1.49078e-05
1.48135e-05
1.4736e-05
1.46429e-05
1.45602e-05
1.44682e-05
1.43949e-05
1.43076e-05
1.42377e-05
1.99999e-05
1.98588e-05
1.95699e-05
1.92618e-05
1.90109e-05
1.88343e-05
1.8693e-05
1.8527e-05
1.83457e-05
1.81793e-05
1.80227e-05
1.78727e-05
1.77238e-05
1.75834e-05
1.74482e-05
1.73232e-05
1.7201e-05
1.7088e-05
1.6975e-05
1.68713e-05
1.67659e-05
1.66712e-05
1.65732e-05
1.64868e-05
1.63953e-05
1.63155e-05
1.62282e-05
1.6152e-05
1.6065e-05
1.59897e-05
1.59011e-05
1.58246e-05
1.57355e-05
1.56548e-05
1.55692e-05
1.54847e-05
1.53996e-05
1.53211e-05
1.52273e-05
1.51522e-05
1.50624e-05
1.49783e-05
1.48883e-05
1.48115e-05
1.47164e-05
1.46357e-05
1.45477e-05
1.44756e-05
1.43887e-05
1.43214e-05
1.99999e-05
1.98638e-05
1.9586e-05
1.9287e-05
1.90363e-05
1.88558e-05
1.87155e-05
1.85567e-05
1.83771e-05
1.82082e-05
1.80496e-05
1.78988e-05
1.77497e-05
1.76086e-05
1.74732e-05
1.73483e-05
1.72272e-05
1.71151e-05
1.70036e-05
1.69013e-05
1.6798e-05
1.67051e-05
1.66095e-05
1.65253e-05
1.6437e-05
1.63594e-05
1.62756e-05
1.62014e-05
1.61184e-05
1.60443e-05
1.59594e-05
1.58844e-05
1.57961e-05
1.572e-05
1.56322e-05
1.55522e-05
1.54683e-05
1.53882e-05
1.52984e-05
1.52246e-05
1.51329e-05
1.50514e-05
1.49644e-05
1.48859e-05
1.47907e-05
1.47143e-05
1.46287e-05
1.45566e-05
1.44718e-05
1.44082e-05
1.99999e-05
1.98689e-05
1.96022e-05
1.93136e-05
1.90647e-05
1.8881e-05
1.87402e-05
1.85881e-05
1.84112e-05
1.82402e-05
1.80791e-05
1.79268e-05
1.7777e-05
1.7635e-05
1.7499e-05
1.73738e-05
1.72533e-05
1.71418e-05
1.70315e-05
1.69304e-05
1.6829e-05
1.67376e-05
1.66445e-05
1.6562e-05
1.64771e-05
1.64012e-05
1.63217e-05
1.62483e-05
1.61707e-05
1.60963e-05
1.6017e-05
1.59408e-05
1.58569e-05
1.57818e-05
1.56939e-05
1.56188e-05
1.55336e-05
1.54537e-05
1.53694e-05
1.52935e-05
1.52012e-05
1.51249e-05
1.50381e-05
1.49569e-05
1.48652e-05
1.47927e-05
1.47075e-05
1.46359e-05
1.45545e-05
1.44958e-05
1.99999e-05
1.98741e-05
1.96183e-05
1.93411e-05
1.90957e-05
1.89095e-05
1.87676e-05
1.8621e-05
1.84478e-05
1.82753e-05
1.81113e-05
1.7957e-05
1.78059e-05
1.76624e-05
1.75253e-05
1.73994e-05
1.7279e-05
1.71677e-05
1.70584e-05
1.6958e-05
1.68582e-05
1.67678e-05
1.66771e-05
1.65959e-05
1.65146e-05
1.64395e-05
1.6365e-05
1.62918e-05
1.62198e-05
1.61452e-05
1.60709e-05
1.59938e-05
1.59149e-05
1.58384e-05
1.57539e-05
1.56808e-05
1.55941e-05
1.55176e-05
1.5436e-05
1.53572e-05
1.52672e-05
1.51954e-05
1.51057e-05
1.5024e-05
1.49377e-05
1.48676e-05
1.47812e-05
1.47112e-05
1.46352e-05
1.45821e-05
1.99999e-05
1.98792e-05
1.96344e-05
1.93692e-05
1.91288e-05
1.89413e-05
1.87976e-05
1.86554e-05
1.84865e-05
1.83132e-05
1.81462e-05
1.79891e-05
1.78361e-05
1.76907e-05
1.7552e-05
1.74248e-05
1.73039e-05
1.71923e-05
1.70836e-05
1.69835e-05
1.68849e-05
1.67951e-05
1.67067e-05
1.66264e-05
1.65483e-05
1.64741e-05
1.6404e-05
1.63315e-05
1.6264e-05
1.61905e-05
1.61191e-05
1.60435e-05
1.59676e-05
1.58898e-05
1.58104e-05
1.57357e-05
1.56502e-05
1.55776e-05
1.54951e-05
1.5415e-05
1.53302e-05
1.52588e-05
1.51656e-05
1.50872e-05
1.50063e-05
1.49349e-05
1.48474e-05
1.47824e-05
1.47127e-05
1.46623e-05
1.99999e-05
1.98843e-05
1.96502e-05
1.93977e-05
1.91635e-05
1.8976e-05
1.88304e-05
1.86915e-05
1.85272e-05
1.83538e-05
1.81838e-05
1.80233e-05
1.78675e-05
1.77198e-05
1.7579e-05
1.74499e-05
1.7328e-05
1.72157e-05
1.7107e-05
1.70067e-05
1.69087e-05
1.68194e-05
1.67324e-05
1.66531e-05
1.65771e-05
1.65048e-05
1.64372e-05
1.63674e-05
1.63018e-05
1.62312e-05
1.61612e-05
1.6088e-05
1.60132e-05
1.59364e-05
1.58601e-05
1.57829e-05
1.5702e-05
1.56299e-05
1.55452e-05
1.54679e-05
1.53872e-05
1.53112e-05
1.52179e-05
1.51471e-05
1.50661e-05
1.49906e-05
1.49072e-05
1.48497e-05
1.47826e-05
1.47316e-05
1.99999e-05
1.98894e-05
1.96658e-05
1.94262e-05
1.91996e-05
1.90133e-05
1.88661e-05
1.87294e-05
1.85696e-05
1.83969e-05
1.8224e-05
1.80597e-05
1.79005e-05
1.77497e-05
1.76061e-05
1.74747e-05
1.73512e-05
1.72377e-05
1.71284e-05
1.70274e-05
1.69295e-05
1.68402e-05
1.67539e-05
1.66756e-05
1.66007e-05
1.65308e-05
1.64642e-05
1.63981e-05
1.63332e-05
1.62658e-05
1.61972e-05
1.61256e-05
1.60518e-05
1.59771e-05
1.59007e-05
1.58235e-05
1.57473e-05
1.56712e-05
1.55882e-05
1.55148e-05
1.54335e-05
1.5352e-05
1.52662e-05
1.51984e-05
1.51126e-05
1.50367e-05
1.49618e-05
1.49091e-05
1.48404e-05
1.47902e-05
1.99999e-05
1.98944e-05
1.96812e-05
1.94544e-05
1.92366e-05
1.90528e-05
1.89045e-05
1.87694e-05
1.86139e-05
1.84425e-05
1.8267e-05
1.80987e-05
1.79355e-05
1.7781e-05
1.76339e-05
1.74993e-05
1.73735e-05
1.72582e-05
1.71477e-05
1.70457e-05
1.69472e-05
1.68574e-05
1.67713e-05
1.66932e-05
1.66194e-05
1.65507e-05
1.64861e-05
1.64216e-05
1.63591e-05
1.6293e-05
1.62267e-05
1.61552e-05
1.60837e-05
1.60091e-05
1.59326e-05
1.58577e-05
1.57822e-05
1.57021e-05
1.56259e-05
1.55508e-05
1.5466e-05
1.53863e-05
1.53076e-05
1.52352e-05
1.51448e-05
1.50774e-05
1.501e-05
1.49536e-05
1.4884e-05
1.48412e-05
1.99999e-05
1.98993e-05
1.96962e-05
1.94821e-05
1.92741e-05
1.90943e-05
1.89457e-05
1.88117e-05
1.86601e-05
1.84908e-05
1.83131e-05
1.81405e-05
1.79729e-05
1.78142e-05
1.76629e-05
1.75245e-05
1.73955e-05
1.72777e-05
1.71653e-05
1.70615e-05
1.69619e-05
1.68708e-05
1.67844e-05
1.67057e-05
1.6633e-05
1.65643e-05
1.65021e-05
1.6438e-05
1.63781e-05
1.63133e-05
1.62477e-05
1.61779e-05
1.6107e-05
1.60314e-05
1.59573e-05
1.58824e-05
1.58047e-05
1.57263e-05
1.56549e-05
1.55705e-05
1.549e-05
1.54148e-05
1.53342e-05
1.52549e-05
1.51704e-05
1.51126e-05
1.50418e-05
1.49812e-05
1.49189e-05
1.48843e-05
1.99999e-05
1.99041e-05
1.9711e-05
1.95094e-05
1.93117e-05
1.91374e-05
1.89895e-05
1.88563e-05
1.87084e-05
1.85417e-05
1.83625e-05
1.81858e-05
1.80132e-05
1.78497e-05
1.76938e-05