/*--------------------------------*- C++ -*----------------------------------*\
  =========                 |
  \\      /  F ield         | OpenFOAM: The Open Source CFD Toolbox
   \\    /   O peration     | Website:  https://openfoam.org
    \\  /    A nd           | Version:  7
     \\/     M anipulation  |
\*---------------------------------------------------------------------------*/
FoamFile
{
    version     2.0;
    format      ascii;
    class       volScalarField;
    location    "0.07";
    object      k_0;
}
// * * * * * * * * * * * * * * * * * * * * * * * * * * * * * * * * * * * * * //

dimensions      [0 2 -2 0 0 0 0];

internalField   nonuniform List<scalar> 
70000
(
1.08549e-05
4.21852e-06
2.82383e-06
2.31593e-06
1.99633e-06
1.75567e-06
1.56349e-06
1.40639e-06
1.27552e-06
1.1647e-06
1.06977e-06
9.87726e-07
9.16245e-07
8.53594e-07
7.98283e-07
7.49279e-07
7.05463e-07
6.66309e-07
6.30879e-07
5.99047e-07
5.69911e-07
5.43669e-07
5.19351e-07
4.97455e-07
4.76871e-07
4.5842e-07
4.4076e-07
4.25086e-07
4.09728e-07
3.96347e-07
3.82801e-07
3.71356e-07
3.59233e-07
3.49441e-07
3.38448e-07
3.30052e-07
3.19983e-07
3.12738e-07
3.03441e-07
2.97151e-07
2.88453e-07
2.82992e-07
2.74724e-07
2.69961e-07
2.61996e-07
2.57855e-07
2.48756e-07
2.52351e-07
2.44405e-07
2.55186e-07
1.72794e-05
1.13668e-05
8.51925e-06
7.00806e-06
6.03395e-06
5.3067e-06
4.7266e-06
4.25213e-06
3.85679e-06
3.52204e-06
3.23531e-06
2.98749e-06
2.77153e-06
2.58226e-06
2.41511e-06
2.26704e-06
2.13459e-06
2.01625e-06
1.90912e-06
1.81289e-06
1.72478e-06
1.64543e-06
1.57187e-06
1.50566e-06
1.44337e-06
1.38757e-06
1.33411e-06
1.28672e-06
1.2402e-06
1.19975e-06
1.15868e-06
1.12411e-06
1.08734e-06
1.05777e-06
1.02441e-06
9.99043e-07
9.68503e-07
9.466e-07
9.18406e-07
8.99396e-07
8.73009e-07
8.56516e-07
8.3144e-07
8.17052e-07
7.92904e-07
7.80428e-07
7.52796e-07
7.58854e-07
7.39484e-07
7.54622e-07
1.937e-05
1.61294e-05
1.32898e-05
1.12868e-05
9.8244e-06
8.69036e-06
7.77157e-06
7.0126e-06
6.37548e-06
5.83328e-06
5.36711e-06
4.96302e-06
4.60992e-06
4.29982e-06
4.02535e-06
3.78182e-06
3.56352e-06
3.36827e-06
3.19119e-06
3.03204e-06
2.88606e-06
2.75458e-06
2.63246e-06
2.52257e-06
2.41897e-06
2.32626e-06
2.23717e-06
2.15836e-06
2.08066e-06
2.01341e-06
1.94467e-06
1.8872e-06
1.82553e-06
1.77636e-06
1.72038e-06
1.67815e-06
1.62692e-06
1.5904e-06
1.54307e-06
1.51141e-06
1.46706e-06
1.43961e-06
1.39747e-06
1.37354e-06
1.33294e-06
1.31222e-06
1.26623e-06
1.26887e-06
1.24336e-06
1.24667e-06
1.9861e-05
1.826e-05
1.60853e-05
1.41987e-05
1.26374e-05
1.13442e-05
1.02551e-05
9.33128e-06
8.53888e-06
7.85431e-06
7.25911e-06
6.73863e-06
6.28021e-06
5.87515e-06
5.51439e-06
5.19272e-06
4.90284e-06
4.64266e-06
4.40567e-06
4.19218e-06
3.99559e-06
3.81828e-06
3.65296e-06
3.5041e-06
3.36319e-06
3.23716e-06
3.11543e-06
3.00805e-06
2.90139e-06
2.80966e-06
2.71489e-06
2.63644e-06
2.55113e-06
2.48392e-06
2.40637e-06
2.34849e-06
2.27745e-06
2.22733e-06
2.16158e-06
2.11816e-06
2.05642e-06
2.01882e-06
1.9601e-06
1.92742e-06
1.8707e-06
1.84247e-06
1.78064e-06
1.77483e-06
1.75126e-06
1.72699e-06
1.99706e-05
1.7846e-05
1.60752e-05
1.47672e-05
1.36031e-05
1.25374e-05
1.15684e-05
1.06995e-05
9.91745e-06
9.22038e-06
8.59948e-06
8.04556e-06
7.54906e-06
7.10428e-06
6.70266e-06
6.34054e-06
6.01066e-06
5.71226e-06
5.43813e-06
5.18987e-06
4.95955e-06
4.75101e-06
4.55518e-06
4.37847e-06
4.20995e-06
4.05924e-06
3.91233e-06
3.78326e-06
3.65348e-06
3.54284e-06
3.42669e-06
3.33181e-06
3.2267e-06
3.1451e-06
3.04925e-06
2.97866e-06
2.89062e-06
2.82937e-06
2.74756e-06
2.69454e-06
2.61748e-06
2.5716e-06
2.49811e-06
2.45847e-06
2.38712e-06
2.35356e-06
2.28082e-06
2.2627e-06
2.24072e-06
2.18956e-06
2.00095e-05
1.47035e-05
1.37499e-05
1.32148e-05
1.25961e-05
1.19325e-05
1.12834e-05
1.06624e-05
1.00861e-05
9.55136e-06
9.05018e-06
8.58265e-06
8.14787e-06
7.74682e-06
7.37391e-06
7.02992e-06
6.71011e-06
6.41647e-06
6.14254e-06
5.89173e-06
5.65584e-06
5.4405e-06
5.23569e-06
5.05002e-06
4.87061e-06
4.71002e-06
4.55109e-06
4.4122e-06
4.26988e-06
4.14997e-06
4.02114e-06
3.91763e-06
3.80005e-06
3.71035e-06
3.60249e-06
3.52437e-06
3.42471e-06
3.35673e-06
3.26353e-06
3.20457e-06
3.11639e-06
3.06536e-06
2.98092e-06
2.93705e-06
2.85482e-06
2.81803e-06
2.741e-06
2.70699e-06
2.6839e-06
2.61817e-06
2.01333e-05
1.54629e-05
9.63433e-06
9.40464e-06
9.50141e-06
9.50472e-06
9.44808e-06
9.313e-06
9.07248e-06
8.79853e-06
8.50356e-06
8.20535e-06
7.91226e-06
7.62785e-06
7.34867e-06
7.0874e-06
6.83796e-06
6.60231e-06
6.37595e-06
6.16391e-06
5.95915e-06
5.7691e-06
5.58417e-06
5.41496e-06
5.24749e-06
5.09729e-06
4.94487e-06
4.81279e-06
4.6733e-06
4.55768e-06
4.42909e-06
4.32796e-06
4.20898e-06
4.12018e-06
4.00986e-06
3.93169e-06
3.82869e-06
3.76023e-06
3.66299e-06
3.60326e-06
3.51069e-06
3.45881e-06
3.36969e-06
3.3251e-06
3.23863e-06
3.20049e-06
3.12597e-06
3.07818e-06
3.05393e-06
2.98159e-06
2.01715e-05
1.86733e-05
8.6767e-06
5.54224e-06
5.63598e-06
5.94614e-06
6.30942e-06
6.59899e-06
6.78328e-06
6.89485e-06
6.91667e-06
6.89768e-06
6.84583e-06
6.75694e-06
6.64493e-06
6.52061e-06
6.37953e-06
6.23552e-06
6.08936e-06
5.94581e-06
5.80079e-06
5.66229e-06
5.52274e-06
5.39287e-06
5.25995e-06
5.14231e-06
5.01788e-06
4.91156e-06
4.79328e-06
4.69749e-06
4.58504e-06
4.49908e-06
4.39255e-06
4.31532e-06
4.21463e-06
4.14544e-06
4.04982e-06
3.98834e-06
3.89676e-06
3.8424e-06
3.75452e-06
3.7068e-06
3.62185e-06
3.58023e-06
3.49904e-06
3.45964e-06
3.39687e-06
3.34106e-06
3.31761e-06
3.24661e-06
2.01674e-05
1.97231e-05
1.61575e-05
4.84532e-06
3.04307e-06
3.11047e-06
3.38666e-06
3.8218e-06
4.19334e-06
4.51643e-06
4.76786e-06
4.96083e-06
5.10314e-06
5.20548e-06
5.26319e-06
5.30056e-06
5.30164e-06
5.29207e-06
5.26744e-06
5.2269e-06
5.17491e-06
5.11772e-06
5.05233e-06
4.98645e-06
4.91209e-06
4.84273e-06
4.76107e-06
4.69242e-06
4.60855e-06
4.54289e-06
4.45919e-06
4.39752e-06
4.31529e-06
4.25785e-06
4.17767e-06
4.1248e-06
4.04664e-06
3.99879e-06
3.92358e-06
3.88085e-06
3.80794e-06
3.76962e-06
3.69881e-06
3.66382e-06
3.59848e-06
3.55986e-06
3.51465e-06
3.46102e-06
3.44129e-06
3.38242e-06
2.01479e-05
1.9934e-05
1.90623e-05
1.44797e-05
5.20902e-06
2.15004e-06
1.91664e-06
2.00013e-06
2.22096e-06
2.52548e-06
2.80616e-06
3.06505e-06
3.29355e-06
3.4944e-06
3.65952e-06
3.80033e-06
3.91191e-06
4.00075e-06
4.07067e-06
4.12258e-06
4.15845e-06
4.18098e-06
4.19285e-06
4.19238e-06
4.18695e-06
4.17689e-06
4.1551e-06
4.13811e-06
4.10493e-06
4.08199e-06
4.04263e-06
4.01592e-06
3.97255e-06
3.94409e-06
3.89781e-06
3.8694e-06
3.82132e-06
3.79351e-06
3.74336e-06
3.7162e-06
3.66561e-06
3.63996e-06
3.58999e-06
3.56491e-06
3.52029e-06
3.48886e-06
3.46054e-06
3.41816e-06
3.40459e-06
3.36433e-06
2.01218e-05
1.9966e-05
1.96408e-05
1.85391e-05
1.5184e-05
8.29186e-06
3.06035e-06
1.62773e-06
1.44341e-06
1.45439e-06
1.53716e-06
1.7066e-06
1.89294e-06
2.07443e-06
2.24813e-06
2.4112e-06
2.56057e-06
2.69378e-06
2.8127e-06
2.91717e-06
3.00799e-06
3.0862e-06
3.15218e-06
3.20868e-06
3.25259e-06
3.29319e-06
3.31991e-06
3.34722e-06
3.36097e-06
3.37658e-06
3.38144e-06
3.38689e-06
3.38579e-06
3.3838e-06
3.37718e-06
3.37205e-06
3.35971e-06
3.35262e-06
3.33685e-06
3.32837e-06
3.31009e-06
3.30074e-06
3.28091e-06
3.27116e-06
3.25318e-06
3.23834e-06
3.22885e-06
3.20897e-06
3.20581e-06
3.18967e-06
2.00983e-05
1.99328e-05
1.97562e-05
1.93484e-05
1.84953e-05
1.65074e-05
1.2252e-05
6.75617e-06
2.91426e-06
1.47754e-06
1.24111e-06
1.15057e-06
1.15872e-06
1.20678e-06
1.30614e-06
1.41736e-06
1.53303e-06
1.64622e-06
1.75852e-06
1.86571e-06
1.96662e-06
2.06121e-06
2.14707e-06
2.22801e-06
2.29851e-06
2.36615e-06
2.42289e-06
2.47813e-06
2.52321e-06
2.56707e-06
2.60248e-06
2.6367e-06
2.66369e-06
2.69047e-06
2.70995e-06
2.73114e-06
2.74464e-06
2.76117e-06
2.77019e-06
2.78305e-06
2.7889e-06
2.79885e-06
2.8027e-06
2.81024e-06
2.81445e-06
2.8185e-06
2.8254e-06
2.82824e-06
2.83946e-06
2.84176e-06
2.00783e-05
1.98877e-05
1.9756e-05
1.94572e-05
1.91393e-05
1.86285e-05
1.75255e-05
1.53727e-05
1.16231e-05
7.29293e-06
3.85237e-06
1.84433e-06
1.19476e-06
1.05579e-06
9.80297e-07
9.50432e-07
9.64926e-07
1.00491e-06
1.06957e-06
1.13687e-06
1.20821e-06
1.28072e-06
1.35236e-06
1.4251e-06
1.49318e-06
1.56105e-06
1.62285e-06
1.68428e-06
1.73935e-06
1.79384e-06
1.8423e-06
1.8901e-06
1.93214e-06
1.97387e-06
2.01012e-06
2.04633e-06
2.07771e-06
2.10913e-06
2.1365e-06
2.16383e-06
2.18825e-06
2.21212e-06
2.23471e-06
2.25544e-06
2.27816e-06
2.29565e-06
2.3201e-06
2.33554e-06
2.36014e-06
2.38273e-06
2.00615e-05
1.98539e-05
1.97334e-05
1.94678e-05
1.92486e-05
1.90387e-05
1.87216e-05
1.81674e-05
1.70486e-05
1.51536e-05
1.24181e-05
9.03106e-06
5.75736e-06
3.30727e-06
1.77848e-06
1.13565e-06
9.60314e-07
8.90153e-07
8.35386e-07
8.03981e-07
8.08661e-07
8.25859e-07
8.60039e-07
9.01021e-07
9.41775e-07
9.8695e-07
1.03156e-06
1.07872e-06
1.12427e-06
1.17125e-06
1.2157e-06
1.26034e-06
1.3026e-06
1.34431e-06
1.38417e-06
1.42267e-06
1.46016e-06
1.49564e-06
1.53084e-06
1.56355e-06
1.59693e-06
1.62721e-06
1.6594e-06
1.68769e-06
1.71966e-06
1.74631e-06
1.77918e-06
1.80567e-06
1.83621e-06
1.87036e-06
2.00477e-05
1.98304e-05
1.97067e-05
1.94455e-05
1.92654e-05
1.91068e-05
1.89537e-05
1.87361e-05
1.84409e-05
1.78781e-05
1.70229e-05
1.55953e-05
1.37358e-05
1.13094e-05
8.58032e-06
5.95987e-06
3.83642e-06
2.32374e-06
1.40431e-06
9.95452e-07
8.56075e-07
7.97662e-07
7.49778e-07
7.12437e-07
6.89139e-07
6.90634e-07
6.9872e-07
7.16585e-07
7.38988e-07
7.64605e-07
7.90438e-07
8.18411e-07
8.47664e-07
8.77144e-07
9.08296e-07
9.38398e-07
9.70411e-07
1.00028e-06
1.03222e-06
1.06164e-06
1.09334e-06
1.12241e-06
1.15403e-06
1.18298e-06
1.21491e-06
1.24378e-06
1.27706e-06
1.30669e-06
1.33855e-06
1.37477e-06
2.00364e-05
1.98125e-05
1.96841e-05
1.94146e-05
1.92513e-05
1.90998e-05
1.89893e-05
1.88355e-05
1.86966e-05
1.84795e-05
1.8222e-05
1.77923e-05
1.71681e-05
1.62683e-05
1.50097e-05
1.34294e-05
1.15458e-05
9.4018e-06
7.23402e-06
5.24259e-06
3.62163e-06
2.40574e-06
1.56296e-06
1.07708e-06
8.50763e-07
7.57978e-07
7.11078e-07
6.74191e-07
6.3918e-07
6.14006e-07
5.97473e-07
5.96613e-07
6.00057e-07
6.08025e-07
6.21543e-07
6.35735e-07
6.52704e-07
6.69202e-07
6.88468e-07
7.07482e-07
7.28919e-07
7.49953e-07
7.73133e-07
7.95965e-07
8.2075e-07
8.4484e-07
8.71977e-07
8.97581e-07
9.2491e-07
9.56311e-07
2.00273e-05
1.97986e-05
1.96648e-05
1.93921e-05
1.92253e-05
1.90714e-05
1.89704e-05
1.88388e-05
1.87196e-05
1.85786e-05
1.84376e-05
1.82669e-05
1.80473e-05
1.77566e-05
1.73469e-05
1.67834e-05
1.60349e-05
1.50707e-05
1.38664e-05
1.24803e-05
1.09089e-05
9.19577e-06
7.45794e-06
5.82735e-06
4.36925e-06
3.19632e-06
2.27888e-06
1.59692e-06
1.14004e-06
8.77845e-07
7.43807e-07
6.78223e-07
6.39481e-07
6.10187e-07
5.82762e-07
5.581e-07
5.39837e-07
5.28156e-07
5.24406e-07
5.25782e-07
5.2976e-07
5.37024e-07
5.46434e-07
5.57371e-07
5.69897e-07
5.8343e-07
5.99246e-07
6.15705e-07
6.3351e-07
6.55277e-07
2.00201e-05
1.97894e-05
1.96455e-05
1.93754e-05
1.92002e-05
1.90417e-05
1.89304e-05
1.88118e-05
1.8696e-05
1.8572e-05
1.84484e-05
1.83243e-05
1.81939e-05
1.8052e-05
1.78875e-05
1.76845e-05
1.74266e-05
1.70932e-05
1.66624e-05
1.61096e-05
1.54372e-05
1.46061e-05
1.36443e-05
1.25278e-05
1.1339e-05
1.00261e-05
8.65084e-06
7.27836e-06
5.96673e-06
4.77172e-06
3.72159e-06
2.86157e-06
2.16437e-06
1.61529e-06
1.20971e-06
9.36769e-07
7.70929e-07
6.76797e-07
6.23698e-07
5.90356e-07
5.64804e-07
5.43321e-07
5.23623e-07
5.06668e-07
4.94156e-07
4.86034e-07
4.83982e-07
4.85422e-07
4.89098e-07
4.9743e-07
2.00146e-05
1.97893e-05
1.9619e-05
1.93621e-05
1.91785e-05
1.90143e-05
1.88924e-05
1.87741e-05
1.86533e-05
1.85344e-05
1.8416e-05
1.83009e-05
1.81842e-05
1.8067e-05
1.79497e-05
1.78284e-05
1.77005e-05
1.75542e-05
1.73897e-05
1.71837e-05
1.69437e-05
1.66372e-05
1.6276e-05
1.58236e-05
1.53002e-05
1.46794e-05
1.39704e-05
1.31612e-05
1.22769e-05
1.13154e-05
1.0312e-05
9.24162e-06
8.14464e-06
7.05556e-06
6.00413e-06
5.02125e-06
4.12261e-06
3.33516e-06
2.67089e-06
2.1142e-06
1.65605e-06
1.29317e-06
1.0226e-06
8.37184e-07
7.1677e-07
6.44493e-07
5.98368e-07
5.71687e-07
5.48191e-07
5.3748e-07
2.00103e-05
1.97937e-05
1.95916e-05
1.93484e-05
1.91586e-05
1.89878e-05
1.8857e-05
1.8736e-05
1.86106e-05
1.84888e-05
1.83669e-05
1.82512e-05
1.81364e-05
1.80261e-05
1.79159e-05
1.78086e-05
1.76995e-05
1.75904e-05
1.74831e-05
1.73677e-05
1.72506e-05
1.71159e-05
1.69705e-05
1.67959e-05
1.65988e-05
1.63624e-05
1.60897e-05
1.57672e-05
1.53942e-05
1.49665e-05
1.44797e-05
1.39376e-05
1.33293e-05
1.2666e-05
1.19458e-05
1.11805e-05
1.03779e-05
9.54195e-06
8.66403e-06
7.77008e-06
6.87469e-06
6.00129e-06
5.15769e-06
4.37468e-06
3.63971e-06
3.00604e-06
2.45679e-06
2.0003e-06
1.61056e-06
1.31815e-06
2.00071e-05
1.98018e-05
1.95665e-05
1.93349e-05
1.914e-05
1.89625e-05
1.88232e-05
1.8699e-05
1.85689e-05
1.84439e-05
1.83168e-05
1.81988e-05
1.808e-05
1.79673e-05
1.78549e-05
1.77485e-05
1.76435e-05
1.7542e-05
1.74421e-05
1.73428e-05
1.72443e-05
1.71448e-05
1.70469e-05
1.69455e-05
1.68412e-05
1.67312e-05
1.66093e-05
1.64786e-05
1.63263e-05
1.61617e-05
1.59665e-05
1.57536e-05
1.55042e-05
1.52296e-05
1.49123e-05
1.45665e-05
1.41724e-05
1.37484e-05
1.32741e-05
1.27628e-05
1.22026e-05
1.16057e-05
1.09668e-05
1.02931e-05
9.59168e-06
8.85602e-06
8.06399e-06
7.2789e-06
6.4569e-06
5.6794e-06
2.00048e-05
1.98107e-05
1.95434e-05
1.93213e-05
1.91223e-05
1.89384e-05
1.87908e-05
1.86628e-05
1.85287e-05
1.84001e-05
1.8268e-05
1.81465e-05
1.80239e-05
1.79078e-05
1.77918e-05
1.76833e-05
1.75733e-05
1.74704e-05
1.73677e-05
1.72694e-05
1.71736e-05
1.70817e-05
1.69901e-05
1.69016e-05
1.68122e-05
1.67259e-05
1.6634e-05
1.65493e-05
1.6456e-05
1.63682e-05
1.62679e-05
1.61703e-05
1.60579e-05
1.59436e-05
1.58084e-05
1.56718e-05
1.55069e-05
1.53374e-05
1.51371e-05
1.4926e-05
1.46796e-05
1.44184e-05
1.41173e-05
1.37942e-05
1.34313e-05
1.30401e-05
1.26012e-05
1.21288e-05
1.16071e-05
1.10417e-05
2.00031e-05
1.98199e-05
1.95222e-05
1.93071e-05
1.91046e-05
1.89156e-05
1.87595e-05
1.86273e-05
1.84898e-05
1.83574e-05
1.82209e-05
1.80956e-05
1.79692e-05
1.78496e-05
1.77298e-05
1.76186e-05
1.75047e-05
1.73992e-05
1.72929e-05
1.71922e-05
1.70916e-05
1.69973e-05
1.69022e-05
1.68132e-05
1.67227e-05
1.66416e-05
1.65553e-05
1.64781e-05
1.63946e-05
1.63198e-05
1.62372e-05
1.61615e-05
1.60787e-05
1.6003e-05
1.59179e-05
1.58421e-05
1.57529e-05
1.56708e-05
1.55746e-05
1.54829e-05
1.53726e-05
1.5266e-05
1.51372e-05
1.5004e-05
1.48547e-05
1.46886e-05
1.45045e-05
1.42972e-05
1.40701e-05
1.38076e-05
2.00018e-05
1.98285e-05
1.9503e-05
1.92918e-05
1.90868e-05
1.88942e-05
1.87295e-05
1.85926e-05
1.84521e-05
1.83161e-05
1.81756e-05
1.80465e-05
1.79165e-05
1.77933e-05
1.76702e-05
1.75558e-05
1.74385e-05
1.73303e-05
1.72206e-05
1.71173e-05
1.70132e-05
1.69165e-05
1.68175e-05
1.67258e-05
1.6632e-05
1.65466e-05
1.64567e-05
1.63759e-05
1.6291e-05
1.62139e-05
1.61322e-05
1.60603e-05
1.59838e-05
1.59141e-05
1.58384e-05
1.5772e-05
1.56983e-05
1.56318e-05
1.55579e-05
1.54904e-05
1.54144e-05
1.53482e-05
1.52708e-05
1.51983e-05
1.51214e-05
1.50407e-05
1.49546e-05
1.48604e-05
1.47651e-05
1.46527e-05
2.0001e-05
1.98305e-05
1.94873e-05
1.92762e-05
1.90691e-05
1.88748e-05
1.87013e-05
1.85596e-05
1.84162e-05
1.82768e-05
1.81327e-05
1.79998e-05
1.78665e-05
1.77398e-05
1.76136e-05
1.74962e-05
1.73756e-05
1.72647e-05
1.7152e-05
1.7046e-05
1.6939e-05
1.684e-05
1.67379e-05
1.66437e-05
1.65473e-05
1.64588e-05
1.63658e-05
1.62818e-05
1.61938e-05
1.61131e-05
1.60275e-05
1.59514e-05
1.58701e-05
1.57966e-05
1.57179e-05
1.56486e-05
1.55738e-05
1.55076e-05
1.54365e-05
1.5375e-05
1.53065e-05
1.52474e-05
1.51794e-05
1.5119e-05
1.50553e-05
1.49934e-05
1.49264e-05
1.48577e-05
1.4791e-05
1.47234e-05
2.00004e-05
1.98289e-05
1.94744e-05
1.92598e-05
1.9051e-05
1.88572e-05
1.86752e-05
1.85284e-05
1.83823e-05
1.82399e-05
1.80925e-05
1.7956e-05
1.78195e-05
1.76899e-05
1.75607e-05
1.74404e-05
1.73169e-05
1.72036e-05
1.7088e-05
1.69796e-05
1.68698e-05
1.67688e-05
1.66638e-05
1.65676e-05
1.64688e-05
1.63781e-05
1.62826e-05
1.61963e-05
1.61057e-05
1.60222e-05
1.59336e-05
1.58547e-05
1.57698e-05
1.56928e-05
1.56102e-05
1.55372e-05
1.54584e-05
1.5388e-05
1.53114e-05
1.52448e-05
1.51715e-05
1.51079e-05
1.5036e-05
1.4974e-05
1.49061e-05
1.48468e-05
1.47802e-05
1.47204e-05
1.46601e-05
1.46051e-05
2e-05
1.98273e-05
1.94635e-05
1.92421e-05
1.90321e-05
1.88411e-05
1.86512e-05
1.84991e-05
1.83505e-05
1.82056e-05
1.80553e-05
1.79156e-05
1.77761e-05
1.76439e-05
1.7512e-05
1.73893e-05
1.72631e-05
1.71476e-05
1.70295e-05
1.6919e-05
1.68067e-05
1.67039e-05
1.65964e-05
1.64984e-05
1.63975e-05
1.6305e-05
1.62072e-05
1.61192e-05
1.60263e-05
1.59408e-05
1.58497e-05
1.57689e-05
1.56811e-05
1.56017e-05
1.55161e-05
1.54404e-05
1.53584e-05
1.5285e-05
1.52044e-05
1.51344e-05
1.50572e-05
1.49889e-05
1.49126e-05
1.48464e-05
1.47728e-05
1.47087e-05
1.4635e-05
1.457e-05
1.45004e-05
1.44428e-05
1.99999e-05
1.98263e-05
1.94558e-05
1.92241e-05
1.90132e-05
1.88267e-05
1.86302e-05
1.84724e-05
1.83213e-05
1.81744e-05
1.80218e-05
1.7879e-05
1.77369e-05
1.76027e-05
1.74683e-05
1.73435e-05
1.72151e-05
1.70977e-05
1.69774e-05
1.68652e-05
1.67507e-05
1.66464e-05
1.65368e-05
1.64373e-05
1.63344e-05
1.62405e-05
1.61407e-05
1.60514e-05
1.59564e-05
1.58693e-05
1.57761e-05
1.56937e-05
1.56035e-05
1.55224e-05
1.54341e-05
1.53566e-05
1.5272e-05
1.51963e-05
1.51128e-05
1.50405e-05
1.49601e-05
1.48886e-05
1.48088e-05
1.47397e-05
1.46614e-05
1.45938e-05
1.45149e-05
1.4447e-05
1.43709e-05
1.43084e-05
1.99999e-05
1.98258e-05
1.94512e-05
1.92071e-05
1.89953e-05
1.88144e-05
1.86129e-05
1.84491e-05
1.82956e-05
1.81471e-05
1.79926e-05
1.78472e-05
1.77028e-05
1.75668e-05
1.74303e-05
1.73038e-05
1.71737e-05
1.70547e-05
1.69326e-05
1.68191e-05
1.67027e-05
1.65972e-05
1.64859e-05
1.63852e-05
1.62807e-05
1.61858e-05
1.60843e-05
1.59939e-05
1.58971e-05
1.58088e-05
1.57139e-05
1.563e-05
1.55379e-05
1.54553e-05
1.53647e-05
1.52856e-05
1.51989e-05
1.51213e-05
1.50354e-05
1.49614e-05
1.48782e-05
1.48045e-05
1.47218e-05
1.46504e-05
1.45687e-05
1.4498e-05
1.44155e-05
1.43454e-05
1.42655e-05
1.41982e-05
1.99999e-05
1.98258e-05
1.94495e-05
1.9192e-05
1.89791e-05
1.88042e-05
1.86e-05
1.84299e-05
1.82741e-05
1.81242e-05
1.79684e-05
1.78208e-05
1.76744e-05
1.7537e-05
1.73989e-05
1.7271e-05
1.71396e-05
1.70194e-05
1.68958e-05
1.67814e-05
1.66636e-05
1.65572e-05
1.64447e-05
1.63432e-05
1.62373e-05
1.61418e-05
1.60391e-05
1.59477e-05
1.58496e-05
1.57604e-05
1.5664e-05
1.55789e-05
1.54852e-05
1.54013e-05
1.53089e-05
1.52284e-05
1.51398e-05
1.50605e-05
1.49726e-05
1.48971e-05
1.48115e-05
1.47359e-05
1.46509e-05
1.45774e-05
1.4493e-05
1.44194e-05
1.43345e-05
1.42624e-05
1.41796e-05
1.41085e-05
1.99999e-05
1.98263e-05
1.94505e-05
1.91794e-05
1.8965e-05
1.87957e-05
1.85915e-05
1.84153e-05
1.8257e-05
1.81061e-05
1.79495e-05
1.78002e-05
1.76521e-05
1.75138e-05
1.73744e-05
1.72455e-05
1.71134e-05
1.69922e-05
1.68677e-05
1.67528e-05
1.6634e-05
1.65269e-05
1.64138e-05
1.63118e-05
1.62051e-05
1.61093e-05
1.60058e-05
1.59138e-05
1.58148e-05
1.57251e-05
1.56276e-05
1.55415e-05
1.54466e-05
1.53615e-05
1.52677e-05
1.51861e-05
1.50957e-05
1.5015e-05
1.49256e-05
1.48485e-05
1.47608e-05
1.46837e-05
1.45964e-05
1.45211e-05
1.44342e-05
1.43582e-05
1.42713e-05
1.41976e-05
1.41119e-05
1.40378e-05
1.99999e-05
1.98273e-05
1.94543e-05
1.91699e-05
1.89535e-05
1.8789e-05
1.85875e-05
1.84055e-05
1.82446e-05
1.80929e-05
1.79359e-05
1.77854e-05
1.76362e-05
1.74971e-05
1.73571e-05
1.72275e-05
1.70951e-05
1.69734e-05
1.68484e-05
1.67334e-05
1.66142e-05
1.65068e-05
1.63935e-05
1.62916e-05
1.61845e-05
1.60888e-05
1.59851e-05
1.58928e-05
1.57933e-05
1.57034e-05
1.56052e-05
1.55185e-05
1.54226e-05
1.53368e-05
1.52419e-05
1.51593e-05
1.50675e-05
1.49857e-05
1.4895e-05
1.48166e-05
1.47269e-05
1.46485e-05
1.45593e-05
1.44824e-05
1.43931e-05
1.43151e-05
1.42266e-05
1.41513e-05
1.40628e-05
1.39865e-05
1.99999e-05
1.98288e-05
1.94609e-05
1.91643e-05
1.89452e-05
1.8784e-05
1.85877e-05
1.84009e-05
1.82371e-05
1.80848e-05
1.79278e-05
1.77765e-05
1.76265e-05
1.74869e-05
1.73467e-05
1.72169e-05
1.70846e-05
1.69629e-05
1.68379e-05
1.67233e-05
1.66043e-05
1.6497e-05
1.63841e-05
1.62827e-05
1.61758e-05
1.60807e-05
1.59772e-05
1.58851e-05
1.57856e-05
1.56959e-05
1.55973e-05
1.55103e-05
1.54137e-05
1.53275e-05
1.52318e-05
1.51484e-05
1.50554e-05
1.49729e-05
1.4881e-05
1.48015e-05
1.47103e-05
1.46306e-05
1.45399e-05
1.44615e-05
1.43699e-05
1.42905e-05
1.42008e-05
1.41238e-05
1.40328e-05
1.39555e-05
1.99999e-05
1.98309e-05
1.94696e-05
1.91629e-05
1.89399e-05
1.87812e-05
1.85915e-05
1.84014e-05
1.82345e-05
1.80815e-05
1.79249e-05
1.77733e-05
1.76229e-05
1.74829e-05
1.73432e-05
1.72135e-05
1.70819e-05
1.69607e-05
1.68363e-05
1.67226e-05
1.66042e-05
1.64973e-05
1.6385e-05
1.62843e-05
1.61778e-05
1.60832e-05
1.59803e-05
1.58886e-05
1.57893e-05
1.57001e-05
1.56014e-05
1.55144e-05
1.54175e-05
1.53312e-05
1.52352e-05
1.51513e-05
1.50577e-05
1.49748e-05
1.48822e-05
1.4802e-05
1.47099e-05
1.4629e-05
1.45376e-05
1.4458e-05
1.43645e-05
1.42846e-05
1.41939e-05
1.41155e-05
1.40228e-05
1.3945e-05
1.99999e-05
1.98335e-05
1.94807e-05
1.91654e-05
1.89384e-05
1.87798e-05
1.85992e-05
1.84067e-05
1.82365e-05
1.80827e-05
1.79269e-05
1.77754e-05
1.76249e-05
1.74848e-05
1.73457e-05
1.72165e-05
1.70857e-05
1.6965e-05
1.68413e-05
1.67284e-05
1.66109e-05
1.65048e-05
1.63937e-05
1.62945e-05
1.61891e-05
1.60956e-05
1.5994e-05
1.59035e-05
1.58049e-05
1.57169e-05
1.56188e-05
1.5532e-05
1.54353e-05
1.53494e-05
1.52532e-05
1.51688e-05
1.5075e-05
1.49918e-05
1.48985e-05
1.48178e-05
1.47245e-05
1.46426e-05
1.45507e-05
1.44697e-05
1.43744e-05
1.42945e-05
1.4203e-05
1.41231e-05
1.40293e-05
1.39517e-05
1.99999e-05
1.98368e-05
1.94934e-05
1.91726e-05
1.89405e-05
1.8781e-05
1.86092e-05
1.84174e-05
1.82437e-05
1.80884e-05
1.79332e-05
1.7782e-05
1.76316e-05
1.74914e-05
1.73531e-05
1.72248e-05
1.70952e-05
1.69757e-05
1.68535e-05
1.67419e-05
1.66262e-05
1.65215e-05
1.6412e-05
1.63147e-05
1.62109e-05
1.61189e-05
1.6019e-05
1.59303e-05
1.58328e-05
1.57461e-05
1.56491e-05
1.55631e-05
1.54669e-05
1.53818e-05
1.52859e-05
1.52016e-05
1.51082e-05
1.50248e-05
1.49318e-05
1.48511e-05
1.47565e-05
1.46748e-05
1.4583e-05
1.45e-05
1.44039e-05
1.43248e-05
1.42319e-05
1.41503e-05
1.40559e-05
1.39797e-05
1.99999e-05
1.98405e-05
1.95075e-05
1.91839e-05
1.89468e-05
1.87848e-05
1.8622e-05
1.84322e-05
1.82556e-05
1.80987e-05
1.79441e-05
1.77935e-05
1.76434e-05
1.75033e-05
1.7366e-05
1.72385e-05
1.71103e-05
1.6992e-05
1.68717e-05
1.67616e-05
1.66475e-05
1.65446e-05
1.6437e-05
1.63417e-05
1.62399e-05
1.61498e-05
1.60519e-05
1.59654e-05
1.58694e-05
1.57841e-05
1.56887e-05
1.56037e-05
1.55085e-05
1.54244e-05
1.5329e-05
1.52455e-05
1.51523e-05
1.50689e-05
1.49774e-05
1.48957e-05
1.48005e-05
1.47208e-05
1.46274e-05
1.4543e-05
1.44492e-05
1.43701e-05
1.42747e-05
1.41938e-05
1.41021e-05
1.40278e-05
1.99999e-05
1.98446e-05
1.95224e-05
1.91989e-05
1.89569e-05
1.87918e-05
1.8637e-05
1.84513e-05
1.8272e-05
1.81131e-05
1.79588e-05
1.78087e-05
1.76589e-05
1.7519e-05
1.73826e-05
1.7256e-05
1.71294e-05
1.70125e-05
1.68941e-05
1.67856e-05
1.66735e-05
1.65726e-05
1.64673e-05
1.63741e-05
1.62746e-05
1.61868e-05
1.60912e-05
1.6007e-05
1.59131e-05
1.58294e-05
1.5736e-05
1.56521e-05
1.55588e-05
1.5475e-05
1.5381e-05
1.52987e-05
1.52051e-05
1.51233e-05
1.50328e-05
1.49496e-05
1.48562e-05
1.47771e-05
1.46818e-05
1.45985e-05
1.45063e-05
1.44259e-05
1.43297e-05
1.42509e-05
1.41612e-05
1.40884e-05
1.99999e-05
1.98491e-05
1.9538e-05
1.92173e-05
1.8971e-05
1.88022e-05
1.86538e-05
1.84737e-05
1.82926e-05
1.81313e-05
1.79768e-05
1.78271e-05
1.76778e-05
1.75379e-05
1.74022e-05
1.72764e-05
1.71515e-05
1.7036e-05
1.69196e-05
1.68127e-05
1.67028e-05
1.6604e-05
1.65012e-05
1.64102e-05
1.63133e-05
1.6228e-05
1.61351e-05
1.60533e-05
1.59618e-05
1.58801e-05
1.57889e-05
1.57061e-05
1.56157e-05
1.55311e-05
1.54405e-05
1.53579e-05
1.52653e-05
1.51858e-05
1.50945e-05
1.50116e-05
1.49209e-05
1.48407e-05
1.47446e-05
1.4664e-05
1.45723e-05
1.44903e-05
1.43952e-05
1.43193e-05
1.42311e-05
1.41599e-05
1.99999e-05
1.98539e-05
1.95539e-05
1.92384e-05
1.8989e-05
1.88163e-05
1.86723e-05
1.84989e-05
1.83171e-05
1.81533e-05
1.7998e-05
1.78484e-05
1.76994e-05
1.75595e-05
1.74243e-05
1.72991e-05
1.71757e-05
1.70616e-05
1.6947e-05
1.68418e-05
1.67342e-05
1.66376e-05
1.65372e-05
1.64486e-05
1.63543e-05
1.62718e-05
1.61817e-05
1.61026e-05
1.60134e-05
1.59345e-05
1.5845e-05
1.57644e-05
1.5676e-05
1.55914e-05
1.5505e-05
1.54203e-05
1.53313e-05
1.52533e-05
1.51597e-05
1.50803e-05
1.49914e-05
1.49084e-05
1.48143e-05
1.47369e-05
1.46435e-05
1.45609e-05
1.44691e-05
1.43959e-05
1.43086e-05
1.42389e-05
1.99999e-05
1.98588e-05
1.957e-05
1.92618e-05
1.90109e-05
1.88341e-05
1.86928e-05
1.85266e-05
1.83452e-05
1.81788e-05
1.80221e-05
1.78722e-05
1.77234e-05
1.75831e-05
1.74481e-05
1.73232e-05
1.72012e-05
1.70883e-05
1.69754e-05
1.68718e-05
1.67665e-05
1.66719e-05
1.6574e-05
1.64877e-05
1.63964e-05
1.63166e-05
1.62293e-05
1.61532e-05
1.60662e-05
1.59908e-05
1.59021e-05
1.58256e-05
1.57364e-05
1.56558e-05
1.557e-05
1.54856e-05
1.54006e-05
1.53218e-05
1.52282e-05
1.51532e-05
1.50632e-05
1.4979e-05
1.48892e-05
1.48123e-05
1.4717e-05
1.46365e-05
1.45487e-05
1.44766e-05
1.43898e-05
1.43227e-05
1.99999e-05
1.98638e-05
1.95861e-05
1.92871e-05
1.90362e-05
1.88557e-05
1.87152e-05
1.85563e-05
1.83765e-05
1.82076e-05
1.80489e-05
1.78982e-05
1.77492e-05
1.76083e-05
1.7473e-05
1.73483e-05
1.72274e-05
1.71154e-05
1.7004e-05
1.69018e-05
1.67986e-05
1.67058e-05
1.66104e-05
1.65263e-05
1.64381e-05
1.63606e-05
1.62769e-05
1.62026e-05
1.61197e-05
1.60455e-05
1.59605e-05
1.58854e-05
1.57971e-05
1.5721e-05
1.56331e-05
1.55532e-05
1.54693e-05
1.5389e-05
1.52995e-05
1.52256e-05
1.51336e-05
1.50523e-05
1.49654e-05
1.48866e-05
1.47915e-05
1.47153e-05
1.46298e-05
1.45577e-05
1.4473e-05
1.44097e-05
1.99999e-05
1.9869e-05
1.96023e-05
1.93137e-05
1.90647e-05
1.88808e-05
1.874e-05
1.85877e-05
1.84107e-05
1.82395e-05
1.80784e-05
1.79262e-05
1.77765e-05
1.76346e-05
1.74988e-05
1.73738e-05
1.72535e-05
1.71421e-05
1.70319e-05
1.69309e-05
1.68296e-05
1.67383e-05
1.66454e-05
1.65631e-05
1.64782e-05
1.64024e-05
1.6323e-05
1.62496e-05
1.6172e-05
1.60975e-05
1.60182e-05
1.59418e-05
1.5858e-05
1.57828e-05
1.56949e-05
1.56199e-05
1.55345e-05
1.54548e-05
1.53706e-05
1.52945e-05
1.52021e-05
1.5126e-05
1.5039e-05
1.49577e-05
1.48662e-05
1.47938e-05
1.47086e-05
1.4637e-05
1.45558e-05
1.44976e-05
1.99999e-05
1.98741e-05
1.96185e-05
1.93412e-05
1.90957e-05
1.89094e-05
1.87673e-05
1.86206e-05
1.84472e-05
1.82746e-05
1.81106e-05
1.79562e-05
1.78053e-05
1.7662e-05
1.7525e-05
1.73993e-05
1.72791e-05
1.71679e-05
1.70588e-05
1.69585e-05
1.68588e-05
1.67685e-05
1.66781e-05
1.6597e-05
1.65158e-05
1.64409e-05
1.63664e-05
1.62932e-05
1.62212e-05
1.61465e-05
1.60722e-05
1.5995e-05
1.59161e-05
1.58394e-05
1.5755e-05
1.5682e-05
1.55952e-05
1.55188e-05
1.54371e-05
1.53581e-05
1.52683e-05
1.51965e-05
1.51065e-05
1.50249e-05
1.49389e-05
1.48688e-05
1.47822e-05
1.47124e-05
1.46369e-05
1.4584e-05
1.99999e-05
1.98793e-05
1.96345e-05
1.93694e-05
1.91288e-05
1.89412e-05
1.87973e-05
1.8655e-05
1.84859e-05
1.83124e-05
1.81454e-05
1.79883e-05
1.78354e-05
1.76902e-05
1.75517e-05
1.74247e-05
1.7304e-05
1.71926e-05
1.7084e-05
1.6984e-05
1.68856e-05
1.6796e-05
1.67077e-05
1.66276e-05
1.65496e-05
1.64755e-05
1.64055e-05
1.63331e-05
1.62655e-05
1.61919e-05
1.61204e-05
1.60447e-05
1.59688e-05
1.58909e-05
1.58117e-05
1.57368e-05
1.56513e-05
1.55789e-05
1.54961e-05
1.5416e-05
1.53315e-05
1.52598e-05
1.51663e-05
1.50883e-05
1.50076e-05
1.49359e-05
1.48485e-05
1.47839e-05
1.47145e-05
1.46641e-05
1.99999e-05
1.98844e-05
1.96504e-05
1.93978e-05
1.91636e-05
1.8976e-05
1.88302e-05
1.86911e-05
1.85266e-05
1.8353e-05
1.81829e-05
1.80224e-05
1.78667e-05
1.77191e-05
1.75786e-05
1.74498e-05
1.73281e-05
1.72159e-05
1.71073e-05
1.70072e-05
1.69094e-05
1.68202e-05
1.67334e-05
1.66543e-05
1.65785e-05
1.65063e-05
1.64387e-05
1.6369e-05
1.63034e-05
1.62327e-05
1.61626e-05
1.60894e-05
1.60144e-05
1.59377e-05
1.58614e-05
1.5784e-05
1.57033e-05
1.56311e-05
1.55463e-05
1.54692e-05
1.53885e-05
1.53121e-05
1.52189e-05
1.51485e-05
1.50672e-05
1.49916e-05
1.49086e-05
1.48514e-05
1.47844e-05
1.47334e-05
1.99999e-05
1.98895e-05
1.9666e-05
1.94264e-05
1.91998e-05
1.90133e-05
1.88659e-05
1.8729e-05
1.8569e-05
1.83961e-05
1.8223e-05
1.80587e-05
1.78996e-05
1.77489e-05
1.76056e-05
1.74744e-05
1.73512e-05
1.72378e-05
1.71287e-05
1.70279e-05
1.69301e-05
1.68411e-05
1.67549e-05
1.66768e-05
1.66021e-05
1.65324e-05
1.64658e-05
1.63998e-05
1.63349e-05
1.62674e-05
1.61987e-05
1.6127e-05
1.60531e-05
1.59784e-05
1.59019e-05
1.58248e-05
1.57487e-05
1.56724e-05
1.55895e-05
1.55162e-05
1.54346e-05
1.53529e-05
1.52675e-05
1.51997e-05
1.51135e-05
1.50378e-05
1.49636e-05
1.49109e-05
1.4842e-05
1.47921e-05
1.99999e-05
1.98945e-05
1.96814e-05
1.94546e-05
1.92368e-05
1.90528e-05
1.89043e-05
1.87691e-05
1.86133e-05
1.84417e-05
1.82659e-05
1.80975e-05
1.79345e-05
1.77801e-05
1.76333e-05
1.7499e-05
1.73734e-05
1.72583e-05
1.7148e-05
1.70461e-05
1.69478e-05
1.68582e-05
1.67723e-05
1.66944e-05
1.66209e-05
1.65523e-05
1.64878e-05
1.64233e-05
1.63608e-05
1.62947e-05
1.62283e-05
1.61566e-05
1.60851e-05
1.60104e-05
1.59339e-05
1.58591e-05
1.57835e-05
1.57034e-05
1.56274e-05
1.5552e-05
1.5467e-05
1.53875e-05
1.5309e-05
1.52362e-05
1.51457e-05
1.5079e-05
1.50118e-05
1.49551e-05
1.48857e-05
1.48435e-05
1.99999e-05
1.98994e-05
1.96965e-05
1.94824e-05
1.92742e-05
1.90943e-05
1.89455e-05
1.88113e-05
1.86595e-05
1.84899e-05
1.83119e-05
1.81393e-05
1.79718e-05
1.78132e-05
1.76622e-05
1.75241e-05
1.73953e-05
1.72777e-05
1.71655e-05
1.70619e-05
1.69624e-05
1.68715e-05
1.67854e-05
1.6707e-05
1.66345e-05
1.6566e-05
1.65039e-05
1.64399e-05
1.638e-05
1.6315e-05
1.62493e-05
1.61794e-05
1.61084e-05
1.60327e-05
1.59588e-05
1.58838e-05
1.58059e-05
1.57278e-05
1.56562e-05
1.55715e-05
1.54913e-05
1.54161e-05
1.53352e-05
1.52557e-05
1.51718e-05
1.51144e-05
1.50432e-05
1.49826e-05
1.4921e-05
1.48868e-05
1.99999e-05
1.99042e-05
1.97112e-05
1.95097e-05
1.93119e-05
1.91376e-05
1.89894e-05
1.8856e-05
1.87078e-05
1.85408e-05
1.83613e-05
1.81845e-05
1.80119e-05
1.78485e-05
1.7693e-05