/*--------------------------------*- C++ -*----------------------------------*\
  =========                 |
  \\      /  F ield         | OpenFOAM: The Open Source CFD Toolbox
   \\    /   O peration     | Website:  https://openfoam.org
    \\  /    A nd           | Version:  7
     \\/     M anipulation  |
\*---------------------------------------------------------------------------*/
FoamFile
{
    version     2.0;
    format      ascii;
    class       volScalarField;
    location    "0.07";
    object      nut;
}
// * * * * * * * * * * * * * * * * * * * * * * * * * * * * * * * * * * * * * //

dimensions      [0 2 -1 0 0 0 0];

internalField   nonuniform List<scalar> 
70000
(
0
0
0
0
0
0
0
0
0
0
0
0
0
0
0
0
0
0
0
0
0
0
0
0
0
0
0
0
0
0
0
0
0
0
0
0
0
0
0
0
0
0
0
0
0
0
0
6.07741e-13
0
0
0
0
0
0
0
0
0
0
0
0
0
0
0
0
0
0
0
0
0
0
0
0
0
0
0
0
0
0
0
0
0
0
0
0
0
0
0
0
0
0
0
0
0
0
0
0
0
1.27663e-12
0
0
0
0
0
0
0
0
0
0
0
0
0
0
0
0
0
0
0
0
0
0
0
0
0
0
0
0
0
0
0
0
0
0
0
0
0
0
0
0
0
0
0
0
0
0
0
0
0
1.89449e-12
0
0
0
0
0
0
0
0
0
0
0
0
0
0
0
0
0
0
0
0
0
0
0
0
0
0
0
0
0
0
0
0
0
0
0
0
0
0
0
0
0
0
0
0
0
0
0
0
0
2.24033e-12
1.39305e-12
0
0
0
0
0
0
0
0
0
0
0
0
0
0
0
0
0
0
0
0
0
0
0
0
0
0
0
0
0
0
0
0
0
0
0
0
0
0
0
0
0
0
0
0
0
0
2.29504e-13
0
2.51434e-12
2.34802e-12
0
9.43883e-10
0
0
0
0
0
0
0
0
0
0
0
0
0
0
0
0
0
0
0
0
0
0
0
0
0
0
0
0
0
0
0
0
0
0
0
0
0
0
0
0
0
0
0
0
5.92192e-13
0
2.7899e-12
2.86409e-12
0
1.32065e-08
0
0
0
0
0
0
0
0
0
0
0
0
0
0
0
0
0
0
0
0
0
0
0
0
0
0
0
0
0
0
0
0
0
0
0
0
0
0
0
0
0
0
0
0
9.30421e-13
0
2.90494e-12
3.4249e-12
0
1.21002e-08
0
0
0
0
0
0
0
0
0
0
0
0
0
0
0
0
0
0
0
0
0
0
0
0
0
0
0
0
0
0
0
0
0
0
0
0
0
0
0
0
0
0
1.16875e-13
0
1.17849e-12
0
2.77089e-12
4.12003e-12
0
1.10791e-08
0
0
0
0
0
0
0
0
0
0
0
0
0
0
0
0
0
0
0
0
0
0
0
0
0
0
0
0
0
0
0
0
0
0
0
0
0
0
0
0
0
0
1.83919e-13
0
1.32377e-12
0
2.42469e-12
4.81271e-12
0
1.02299e-08
0
0
0
0
0
0
0
0
0
0
0
0
0
0
0
0
0
0
0
0
0
0
0
0
0
0
0
0
0
0
0
0
0
0
0
0
0
0
0
0
0
0
2.19402e-13
0
1.39052e-12
0
1.96318e-12
5.3922e-12
0
9.51991e-09
0
0
0
0
0
0
0
0
0
0
0
0
0
0
0
0
0
0
0
0
0
0
0
0
0
0
0
0
0
0
0
0
0
0
0
0
0
0
0
0
0
0
2.57918e-13
0
1.42075e-12
0
1.48077e-12
5.83868e-12
0
8.87784e-09
0
0
0
0
0
0
0
0
0
0
0
0
0
0
0
0
0
0
0
0
0
0
0
0
0
0
0
0
0
0
0
0
0
0
0
0
0
0
0
0
0
0
3.46788e-13
0
1.46756e-12
0
1.05723e-12
6.1668e-12
0
8.23755e-09
0
0
0
0
0
0
0
0
0
4.10898e-11
4.52037e-12
0
0
0
0
0
0
0
0
0
0
0
0
0
0
0
0
0
0
0
0
0
0
0
0
0
0
0
0
0
0
0
5.48622e-13
0
1.60655e-12
5.83841e-13
7.87534e-13
6.46411e-12
0
7.57908e-09
0
0
0
0
0
0
0
0
0
0
7.03857e-12
1.16435e-10
1.32762e-10
5.14871e-11
9.33297e-12
0
0
0
0
0
0
0
0
0
0
0
0
0
0
0
0
0
0
0
0
0
0
0
0
0
0
0
9.58044e-13
0
1.94909e-12
1.53581e-12
7.9407e-13
6.87578e-12
0
6.90862e-09
0
0
0
0
0
0
0
0
0
0
0
0
1.37063e-11
8.89383e-11
1.77586e-10
2.32127e-10
1.77129e-10
7.74989e-11
2.70746e-11
7.9156e-12
7.26525e-13
0
0
0
0
0
0
0
0
0
0
0
0
0
0
0
0
0
0
0
6.59868e-13
2.16744e-13
1.7701e-12
7.49811e-13
2.70938e-12
2.93212e-12
1.28995e-12
7.67687e-12
0
6.23729e-09
0
0
0
5.78482e-11
0
0
0
0
0
0
0
0
0
0
1.79256e-11
5.48466e-11
1.05329e-10
1.73923e-10
2.51738e-10
3.09734e-10
2.9033e-10
1.83304e-10
9.00226e-11
4.24375e-11
2.06431e-11
1.04992e-11
5.48661e-12
2.76397e-12
1.18364e-12
2.71618e-13
0
0
0
0
0
1.64903e-13
4.95631e-13
7.08388e-13
1.27462e-12
1.2894e-12
2.31562e-12
1.85136e-12
3.55605e-12
2.69312e-12
4.45149e-12
5.3368e-12
2.79929e-12
9.52154e-12
0
5.57369e-09
0
0
0
1.65804e-10
0
0
0
0
0
0
0
0
0
0
0
1.56081e-12
2.29957e-11
4.49121e-11
6.8682e-11
9.75197e-11
1.37688e-10
1.93066e-10
2.61833e-10
3.35084e-10
3.95592e-10
4.00152e-10
3.13145e-10
1.95438e-10
1.12564e-10
6.62373e-11
4.143e-11
2.78761e-11
2.00347e-11
1.51617e-11
1.19682e-11
9.82015e-12
8.55459e-12
7.59713e-12
7.56366e-12
6.97499e-12
7.91797e-12
7.07873e-12
8.83495e-12
7.90689e-12
9.33002e-12
1.08452e-11
7.15979e-12
1.45167e-11
0
4.92412e-09
0
0
0
2.59837e-10
0
0
0
0
0
0
0
0
0
0
0
0
0
1.11302e-11
2.54099e-11
3.98441e-11
5.47627e-11
7.05803e-11
8.77571e-11
1.07789e-10
1.33299e-10
1.6881e-10
2.16957e-10
2.77707e-10
3.49323e-10
4.27286e-10
5.02212e-10
5.40773e-10
4.95821e-10
3.80229e-10
2.61769e-10
1.76537e-10
1.23286e-10
9.03426e-11
7.08161e-11
5.6821e-11
4.92456e-11
4.11319e-11
3.83082e-11
3.32454e-11
3.14185e-11
3.18178e-11
2.4732e-11
3.30567e-11
1.55355e-11
4.29414e-09
0
0
0
3.27713e-10
0
0
0
0
0
0
0
0
0
0
0
0
0
0
7.35002e-12
1.69046e-11
2.60879e-11
3.51912e-11
4.43807e-11
5.38551e-11
6.36801e-11
7.40265e-11
8.49503e-11
9.68648e-11
1.10252e-10
1.26737e-10
1.48599e-10
1.79349e-10
2.21462e-10
2.76118e-10
3.45342e-10
4.29241e-10
5.3153e-10
6.45592e-10
7.48447e-10
7.77017e-10
7.04236e-10
5.62141e-10
4.2857e-10
3.21867e-10
2.50475e-10
2.07676e-10
1.6662e-10
1.61298e-10
1.20571e-10
3.68888e-09
0
0
0
3.54781e-10
0
0
0
0
0
0
0
0
0
0
0
0
0
0
6.14885e-13
7.94295e-12
1.43414e-11
2.00915e-11
2.53697e-11
3.03304e-11
3.50271e-11
3.95503e-11
4.38501e-11
4.79869e-11
5.1824e-11
5.53904e-11
5.85156e-11
6.11363e-11
6.33092e-11
6.46393e-11
6.62989e-11
6.70671e-11
7.16415e-11
7.72117e-11
9.48901e-11
1.17961e-10
1.62653e-10
2.22929e-10
3.15354e-10
4.52166e-10
6.3292e-10
8.91868e-10
1.14807e-09
1.37411e-09
1.34406e-09
3.11265e-09
0
0
0
3.24186e-10
0
0
0
0
0
0
0
0
0
0
0
0
0
0
0
5.56611e-12
1.07359e-11
1.48617e-11
1.81301e-11
2.06883e-11
2.25941e-11
2.39096e-11
2.458e-11
2.46067e-11
2.38349e-11
2.21872e-11
1.94519e-11
1.53604e-11
9.8571e-12
2.0379e-12
0
0
0
0
0
0
0
0
0
0
0
0
0
0
0
2.56843e-09
0
0
0
2.17475e-10
0
0
0
0
0
0
0
0
0
0
0
0
0
0
0
6.15496e-12
1.09027e-11
1.43086e-11
1.65676e-11
1.78237e-11
1.81346e-11
1.7546e-11
1.59995e-11
1.34632e-11
9.78135e-12
4.81999e-12
0
0
0
0
0
0
0
0
0
0
0
0
0
0
0
0
0
0
0
2.0575e-09
0
0
0
1.53662e-11
0
0
0
0
0
0
0
0
0
0
0
0
0
0
1.42282e-12
8.02276e-12
1.2725e-11
1.58422e-11
1.75804e-11
1.80793e-11
1.73945e-11
1.55485e-11
1.24727e-11
8.09948e-12
2.27131e-12
0
0
0
0
0
0
0
0
0
0
0
0
0
0
0
0
0
0
0
0
1.57943e-09
0
0
0
0
0
0
0
0
0
0
0
0
0
0
0
0
0
0
3.53646e-12
1.04833e-11
1.52844e-11
1.82771e-11
1.96828e-11
1.96385e-11
1.81937e-11
1.53481e-11
1.10175e-11
5.09176e-12
0
0
0
0
0
0
0
0
0
0
0
0
0
0
0
0
0
0
0
0
0
1.13217e-09
0
0
0
0
0
0
0
0
0
0
0
0
0
0
0
0
0
0
5.96174e-12
1.33023e-11
1.82348e-11
2.11292e-11
2.2227e-11
2.16645e-11
1.94859e-11
1.56636e-11
1.00947e-11
2.61839e-12
0
0
0
0
0
0
0
0
0
0
0
0
0
0
0
0
0
0
0
0
0
7.12499e-10
0
0
0
0
0
0
0
0
0
0
0
0
0
0
0
0
0
0
8.65965e-12
1.64057e-11
2.14533e-11
2.4211e-11
2.49447e-11
2.37905e-11
2.07857e-11
1.58712e-11
8.92118e-12
0
0
0
0
0
0
0
0
0
0
0
0
0
0
0
0
0
0
0
0
0
0
3.16607e-10
0
0
0
0
0
0
0
0
0
0
0
0
0
0
0
0
0
0
1.1609e-11
1.97538e-11
2.4874e-11
2.74231e-11
2.76943e-11
2.58215e-11
2.18321e-11
1.5629e-11
7.05541e-12
0
0
0
0
0
0
0
0
0
0
0
0
0
0
0
0
0
0
0
0
0
0
0
0
0
0
0
0
0
0
0
0
0
0
0
0
0
0
0
0
2.11714e-12
1.47755e-11
2.32942e-11
2.84226e-11
3.06654e-11
3.03449e-11
2.75899e-11
2.24118e-11
1.46677e-11
4.15685e-12
0
0
0
0
0
0
0
0
0
0
0
0
0
0
0
0
0
0
0
0
0
0
0
0
0
0
0
1.23507e-11
0
0
0
0
0
0
0
0
0
0
0
0
4.62805e-12
1.80994e-11
2.69437e-11
3.19904e-11
3.38013e-11
3.27293e-11
2.88937e-11
2.22814e-11
1.26941e-11
0
0
0
0
0
0
0
0
0
0
0
0
0
0
0
0
0
0
0
0
0
0
0
0
0
0
0
0
5.69571e-11
0
0
0
0
0
0
0
0
0
0
0
0
7.24324e-12
2.14872e-11
3.05774e-11
3.54199e-11
3.66398e-11
3.46211e-11
2.94687e-11
2.11321e-11
9.34545e-12
0
0
0
0
0
0
0
0
0
0
0
0
0
0
0
0
0
0
0
0
0
0
0
0
0
0
0
0
5.23563e-12
0
0
0
0
0
0
0
0
0
0
0
0
9.88174e-12
2.48046e-11
3.40175e-11
3.84916e-11
3.892e-11
3.57177e-11
2.89683e-11
1.85687e-11
4.16669e-12
0
0
0
0
0
0
0
0
0
0
0
0
0
0
0
0
0
0
0
0
0
0
0
0
2.45787e-10
0
0
0
0
0
0
0
0
0
0
0
0
0
0
0
0
1.24358e-11
2.78682e-11
3.70213e-11
4.09095e-11
4.02952e-11
3.56229e-11
2.69456e-11
1.40896e-11
0
0
0
0
0
0
0
0
0
0
0
0
0
0
0
0
0
0
0
0
0
0
0
0
0
1.33663e-09
0
0
0
0
0
0
0
0
0
0
0
0
0
0
0
0
1.47651e-11
3.04349e-11
3.92668e-11
4.22847e-11
4.03148e-11
3.3828e-11
2.28342e-11
7.06508e-12
0
0
0
0
0
0
0
0
0
0
0
0
0
0
0
0
0
0
0
0
0
0
0
0
0
2.30375e-09
0
0
0
0
0
0
0
0
0
0
0
0
0
0
0
0
1.66943e-11
3.21941e-11
4.03401e-11
4.21192e-11
3.84055e-11
2.96904e-11
1.5927e-11
0
0
0
0
0
0
0
0
0
0
0
0
0
0
0
0
0
0
0
0
0
0
0
0
0
0
3.14492e-09
0
0
0
0
0
0
0
0
0
0
0
0
0
0
0
0
1.80107e-11
3.2759e-11
3.97187e-11
3.97846e-11
3.385e-11
2.24132e-11
5.35346e-12
0
0
0
0
0
0
0
0
0
0
0
0
0
0
0
0
0
0
0
0
0
0
0
0
0
0
3.86105e-09
0
0
0
0
0
0
0
0
0
0
0
0
0
0
0
0
1.84644e-11
3.16653e-11
3.67668e-11
3.45127e-11
2.57722e-11
1.10254e-11
0
0
0
0
0
0
0
0
0
0
0
0
0
0
0
0
0
0
0
0
0
0
0
0
0
0
0
4.45658e-09
0
0
0
0
0
0
0
0
0
0
0
0
0
0
0
0
1.77641e-11
2.83587e-11
3.07118e-11
2.53649e-11
1.31029e-11
0
0
0
0
0
0
0
0
0
0
0
0
0
0
0
0
0
0
0
0
0
0
0
0
0
0
0
0
4.93846e-09
0
0
0
0
0
0
0
0
0
0
0
0
0
0
0
0
1.55748e-11
2.21931e-11
2.06383e-11
1.12214e-11
0
0
0
0
0
0
0
0
0
0
0
0
0
0
0
0
0
0
0
0
0
0
0
0
0
0
0
0
0
5.31443e-09
0
0
0
0
0
0
0
0
0
0
0
0
0
0
0
1.17405e-12
1.15143e-11
1.24243e-11
5.47618e-12
0
0
0
0
0
0
0
0
0
0
0
0
0
0
0
0
0
0
0
0
0
0
0
0
0
0
0
0
0
0
5.59276e-09
0
0
0
0
0
0
0
0
0
0
0
0
0
0
0
2.43474e-12
5.14946e-12
0
0
0
0
0
0
0
0
0
0
0
0
0
0
0
0
0
0
0
0
0
0
0
0
0
0
0
0
0
0
0
0
5.78304e-09
0
0
0
0
0
0
0
0
0
0
0
0
0
0
0
3.57086e-12
0
0
0
0
0
0
0
0
0
0
0
0
0
0
0
0
0
0
0
0
0
0
0
0
0
0
0
0
0
0
0
0
0
5.89603e-09
0
0
0
0
0
0
0
0
0
0
0
0
0
0
3.58237e-12
4.72855e-12
0
0
0
0
0
0
0
0
0
0
0
0
0
0
0
0
0
0
0
0
0
0
0
0
0
0
0
0
0
0
0
0
0
5.94259e-09
0
0
0
0
0
0
0
0
0
0
4.10499e-11
4.06444e-11
6.49772e-12
1.36238e-11
2.30627e-11
6.21824e-12
0
0
0
0
0
0
0
0
0
0
0
0
0
0
0
0
0
0
0
0
0
0
0
0
0
0
0
0
0
0
0
0
0
5.93283e-09
0
0
0
0
0
6.6386e-11
0
0
0
0
2.13269e-10
2.00034e-10
1.15913e-10
7.46921e-11
5.05354e-11
8.58163e-12
0
0
0
0
0
0
0
0
0
0
0
0
0
0
0
0
0
0
0
0
0
0
0
0
0
0
0
0
0
0
0
0
0
5.87571e-09
0
0
0
0
0
4.90072e-10
0
0
0
5.28471e-11
4.3113e-10
4.02419e-10
2.61409e-10
1.59174e-10
8.89875e-11
1.27107e-11
0
0
0
0
0
0
0
0
0
0
0
0
0
0
0
0
0
0
0
0
0
0
0
0
0
0
0
0
0
0
0
0
0
5.77895e-09
0
0
0
0
0
9.236e-10
1.92282e-10
0
0
3.32903e-10
7.06896e-10
6.55949e-10
4.50176e-10
2.73145e-10
1.42246e-10
1.99949e-11
0
0
0
0
0
0
0
0
0
0
0
0
0
0
0
0
0
0
0
0
0
0
0
0
0
0
0
0
0
0
0
0
0
5.64911e-09
0
0
0
0
0
1.38103e-09
1.01707e-09
1.08928e-10
1.4434e-10
7.16771e-10
1.05641e-09
9.71058e-10
6.90672e-10
4.23686e-10
2.15045e-10
3.24248e-11
0
0
0
0
0
0
0
0
0
0
0
0
0
0
0
0
0
0
0
0
0
0
0
0
0
0
0
0
0
0
0
0
0
5.49163e-09
0
0
0
0
0
1.88073e-09
1.92526e-09
1.01415e-09
8.28123e-10
1.22955e-09
1.49945e-09
1.36123e-09
9.93218e-10
6.19183e-10
3.13164e-10
5.26696e-11
0
0
0
0
0
0
0
0
0
0
0
0
0
0
0
0
0
0
0
0
0
0
0
0
0
0
0
0
0
0
0
0
0
5.31105e-09
6.33807e-11
0
0
0
0
2.44341e-09
2.92078e-09
2.07843e-09
1.69589e-09
1.89856e-09
2.06003e-09
1.84378e-09
1.37074e-09
8.69845e-10
4.43767e-10
8.42899e-11
0
0
0
0
0
0
0
0
0
0
0
0
0
0
0
0
0
0
0
0
0
0
0
0
0
0
0
0
0
0
0
0
0
5.11162e-09
7.04184e-10
0
0
0
0
3.08966e-09
4.01036e-09
3.30774e-09
2.76675e-09
2.75303e-09
2.76658e-09
2.44061e-09
1.83953e-09
1.18825e-09
6.15815e-10
1.32072e-10
0
0
0
0
0
0
0
0
0
0
0
0
0
0
0
0
0
0
0
0
0
0
0
0
0
0
0
0
0
0
0
0
0
4.89727e-09
1.25715e-09
0
0
0
0
3.83773e-09
5.20308e-09
4.70877e-09
4.05958e-09
3.82413e-09
3.65237e-09
3.17919e-09
2.42034e-09
1.59007e-09
8.40496e-10
2.0234e-10
0
0
0
0
0
0
0
0
0
0
0
0
0
0
0
0
0
0
0
0
0
0
0
0
0
0
0
0
0
0
0
0
0
4.67134e-09
1.7254e-09
0
0
0
2.79186e-10
4.70103e-09
6.50853e-09
6.28873e-09
5.59312e-09
5.14493e-09
4.7558e-09
4.0937e-09
3.13986e-09
2.09532e-09
1.13196e-09
3.03349e-10
0
0
0
0
0
0
0
0
0
0
0
0
0
0
0
0
0
0
0
0
0
0
0
0
0
0
0
0
0
0
0
2.38706e-10
0
4.43668e-09
2.11262e-09
0
0
0
1.13553e-09
5.68564e-09
7.9342e-09
8.05402e-09
7.3856e-09
6.75023e-09
6.12071e-09
5.22612e-09
4.03245e-09
2.73001e-09
1.50853e-09
4.45976e-10
0
0
0
0
0
0
0
0
0
0
0
0
0
0
0
0
0
0
0
0
0
0
0
0
0
0
0
0
0
0
5.18606e-11
7.95687e-10
0
4.19604e-09
2.42354e-09
0
0
0
2.11254e-09
6.78861e-09
9.48285e-09
1.00089e-08
9.45405e-09
8.67653e-09
7.79696e-09
6.62771e-09
5.14234e-09
3.52835e-09
1.9944e-09
6.4478e-10
0
0
0
0
0
0
0
0
0
0
0
0
0
0
0
0
0
0
0
0
0
0
0
0
0
0
0
0
0
0
6.84286e-10
1.07673e-09
0
3.95206e-09
2.66353e-09
0
0
0
3.18086e-09
7.9964e-09
1.11493e-08
1.21527e-08
1.18124e-08
1.09612e-08
9.84087e-09
8.36099e-09
6.5265e-09
4.53593e-09
2.62223e-09
9.19682e-10
0
0
0
0
0
0
0
0
0
0
0
0
0
0
0
0
0
0
0
0
0
0
0
0
0
0
0
0
0
6.54791e-10
1.01236e-09
1.14712e-09
0
3.70717e-09
2.83838e-09
0
0
0
4.30399e-09
9.28303e-09
1.29168e-08
1.44751e-08
1.44683e-08
1.36406e-08
1.23153e-08
1.05018e-08
8.25852e-09
5.81414e-09
3.43703e-09
1.29863e-09
0
0
0
0
0
0
0
0
0
0
0
0
0
0
0
0
0
0
0
0
0
0
0
0
0
0
0
0
5.90461e-10
1.01196e-09
1.10279e-09
1.0639e-09
0
3.46361e-09
2.9542e-09
3.99318e-10
0
1.1153e-09
5.43922e-09
1.06098e-08
1.47527e-08
1.69514e-08
1.74172e-08
1.67458e-08
1.52886e-08
1.3142e-08
1.04339e-08
7.4464e-09
4.5018e-09
1.8218e-09
0
0
0
0
0
0
0
0
0
0
0
0
0
0
0
0
0
0
0
0
0
0
0
0
0
0
0
5.47669e-10
9.77978e-10
1.1204e-09
1.01507e-09
8.74855e-10
0
3.22339e-09
3.01715e-09
9.56021e-10
2.34002e-10
2.17146e-09
6.53951e-09
1.1926e-08
1.6607e-08
1.95352e-08
2.06341e-08
2.02956e-08
1.88314e-08
1.63912e-08
1.31767e-08
9.54748e-09
5.90672e-09
2.54832e-09
0
0
0
0
0
0
0
0
0
0
0
0
0
0
0
0
0
0
0
0
0
0
0
0
0
0
4.60986e-10
9.65168e-10
1.10876e-09
1.03974e-09
8.00345e-10
6.19889e-10
0
2.9882e-09
3.03327e-09
1.41109e-09
1.03234e-09
3.11953e-09
7.55647e-09
1.31714e-08
1.84096e-08
2.2152e-08
2.4062e-08
2.42837e-08
2.30082e-08
2.03771e-08
1.66484e-08
1.22774e-08
7.78354e-09
3.56759e-09
0
0
0
0
0
0
0
0
0
0
0
0
0
0
0
0
0
0
0
0
0
0
0
0
0
3.75383e-10
9.10485e-10
1.11775e-09
1.04214e-09
8.2264e-10
5.0254e-10
3.32801e-10
0
2.75943e-09
3.00848e-09
1.76893e-09
1.70086e-09
3.9336e-09
8.44336e-09
1.42784e-08
2.00714e-08
2.46939e-08
2.75985e-08
2.86579e-08
2.78579e-08
2.52383e-08
2.10569e-08
1.58623e-08
1.03291e-08
5.01873e-09
2.74729e-10
0
0
0
0
0
0
0
0
0
0
0
0
0
0
0
0
0
0
0
0
0
0
0
2.54862e-10
8.58003e-10
1.08642e-09
1.06437e-09
8.32157e-10
5.15138e-10
1.59233e-10
4.17452e-11
0
2.53822e-09
2.94856e-09
2.03536e-09
2.2367e-09
4.594e-09
9.15824e-09
1.51781e-08
2.14888e-08
2.70187e-08
3.1081e-08
3.32909e-08
3.33601e-08
3.11036e-08
2.66617e-08
2.06231e-08
1.38452e-08
7.1263e-09
1.01397e-09
0
0
0
0
0
0
0
0
0
0
0
0
0
0
0
0
0
0
0
0
0
0
1.23562e-10
7.74134e-10
1.05759e-09
1.04737e-09
8.60791e-10
5.26911e-10
1.57142e-10
0
0
0
2.32545e-09
2.85907e-09
2.21769e-09
2.64145e-09
5.0884e-09
9.66753e-09
1.58071e-08
2.25541e-08
2.89549e-08
3.42771e-08
3.79444e-08
3.93767e-08
3.80389e-08
3.37598e-08
2.70113e-08
1.88052e-08
1.02677e-08
2.28517e-09
0
0
0
0
0
0
0
0
0
0
0
0
0
0
0
0
0
0
0
0
0
0
6.82885e-10
9.99634e-10
1.03234e-09
8.50992e-10
5.57449e-10
1.68386e-10
0
0
0
0
2.12185e-09
2.74537e-09
2.32445e-09
2.92084e-09
5.41244e-09
9.94946e-09
1.61158e-08
2.3168e-08
3.03191e-08
3.68923e-08
4.22417e-08
4.55705e-08
4.59352e-08
4.26129e-08
3.56328e-08
2.59632e-08
1.51064e-08
4.5e-09
0
0
0
0
0
0
0
0
0
0
0
0
0
0
0
0
0
0
0
0
0
5.67015e-10
9.3583e-10
9.89565e-10
8.42347e-10
5.50519e-10
1.98505e-10
0
0
0
0
0
1.92793e-09
2.61253e-09
2.36494e-09
3.08425e-09
5.56989e-09
9.99647e-09
1.60758e-08
2.32571e-08
3.09446e-08
3.86047e-08
4.56733e-08
5.1323e-08
5.43168e-08
5.32373e-08
4.71836e-08
3.65081e-08
2.28651e-08
8.49395e-09
0
0
0
0
0
0
0
0
0
0
0
0
0
0
0
0
0
0
0
0
4.40914e-10
8.50308e-10
9.41251e-10
8.06858e-10
5.43924e-10
1.92379e-10
0
0
0
0
0
0
1.7441e-09
2.4653e-09
2.34888e-09
3.1439e-09
5.57214e-09
9.81611e-09
1.56848e-08
2.27895e-08
3.07197e-08
3.91314e-08
4.76708e-08
5.57255e-08
6.2111e-08
6.49443e-08
6.20648e-08
5.21437e-08
3.58725e-08
1.61261e-08
0
0
0
0
0
0
0
0
0
0
0
0
0
0
0
0
0
0
0
2.99621e-10
7.56909e-10
8.726e-10
7.65569e-10
5.11304e-10
1.86021e-10
0
0
0
0
0
0
0
1.57061e-09
2.30806e-09
2.286e-09
3.11406e-09
5.43699e-09
9.43008e-09
1.49684e-08
2.17851e-08
2.96213e-08
3.83143e-08
4.77673e-08
5.77597e-08
6.75986e-08
7.56835e-08
7.91988e-08
7.44214e-08
5.84007e-08
3.19723e-08
1.43243e-09
0
0
0
0
0
0
0
0
0
0
0
0
0
0
0
0
0
1.56649e-10
6.5089e-10
7.96429e-10
7.04591e-10
4.72514e-10
1.54709e-10
0
0
0
0
0
0
0
0
1.40762e-09
2.14474e-09
2.18579e-09
3.0102e-09
5.1869e-09
8.87157e-09
1.39768e-08
2.03155e-08
2.77305e-08
3.61868e-08
4.57919e-08
5.67074e-08
6.89318e-08
8.19308e-08
9.40099e-08
1.01188e-07
9.57728e-08
6.78509e-08
1.74314e-08
0
0
0
0
0
0
0
0
0
0
0
0
0
0
0
0
1.88304e-11
5.44357e-10
7.07857e-10
6.35498e-10
4.14337e-10
1.17028e-10
0
0
0
0
0
0
0
0
0
1.25516e-09
1.97882e-09
2.05727e-09
2.84816e-09
4.84712e-09
8.18139e-09
1.27782e-08
1.84932e-08
2.52211e-08
3.2984e-08
4.19813e-08
5.25784e-08
6.52449e-08
8.04796e-08
9.869e-08
1.19672e-07
1.401e-07
1.4355e-07
8.24314e-08
0
0
0
0
0
0
0
0
0
0
0
0
0
0
0
0
4.42007e-10
6.1689e-10
5.53069e-10
3.47281e-10
6.07367e-11
0
0
0
0
0
0
0
0
0
0
1.11318e-09
1.81334e-09
1.90871e-09
2.64345e-09
4.44368e-09
7.40349e-09
1.14492e-08
1.64524e-08
2.23221e-08
2.90806e-08
3.69141e-08
4.61836e-08
5.74222e-08
7.13965e-08
8.9326e-08
1.13375e-07
1.47536e-07
1.97837e-07
2.46532e-07
1.12112e-08
0
0
0
0
0
0
0
0
0
0
0
0
0
0
3.57636e-10
5.25236e-10
4.64843e-10
2.65619e-10
0
0
0
0
0
0
0
0
0
0
0
0
9.81514e-10
1.65089e-09
1.74755e-09
2.4105e-09
4.00169e-09
6.58092e-09
1.00642e-08
1.43263e-08
1.92724e-08
2.48901e-08
3.13004e-08
3.8743e-08
4.75602e-08
5.82117e-08
7.13558e-08
8.79492e-08
1.09109e-07
1.34155e-07
1.4767e-07
7.90863e-08
0
0
0
0
0
0
0
0
0
0
0
0
0
3.00323e-10
4.41096e-10
3.70099e-10
1.75519e-10
0
0
0
0
0
0
0
0
0
0
0
2.40193e-10
0
8.59964e-10
1.49357e-09
1.58025e-09
2.16225e-09
3.54354e-09
5.75175e-09
8.69095e-09
1.22331e-08
1.6275e-08
2.07684e-08
2.57612e-08
3.13604e-08
3.76913e-08
4.48568e-08
5.28818e-08
6.15246e-08
6.97295e-08
7.42923e-08
6.8075e-08
4.29073e-08
5.36348e-09
0
0
0
0
0
0
0
0
0
0
0
2.80059e-10
3.67148e-10
2.73623e-10
7.52971e-11
0
0
0
0
0
0
0
0
0
0
0
0
7.42794e-10
0
7.48229e-10
1.3431e-09
1.41229e-09
1.90964e-09
3.08798e-09
4.94731e-09
7.38194e-09
1.02627e-08
1.34814e-08
1.69659e-08
2.07108e-08
2.47337e-08
2.90237e-08
3.34975e-08
3.79355e-08
4.18484e-08
4.42599e-08
4.35466e-08
3.78613e-08
2.67073e-08
1.27168e-08
4.90171e-10
0
0
0
0
0
0
0
0
6.31574e-11
2.98798e-10
3.06866e-10
1.75846e-10
0
0
0
0
0
0
0
0
0
0
0
0
0
0
1.33758e-09
0
6.45959e-10
1.2008e-09
1.24809e-09
1.6615e-09
2.64983e-09
4.19117e-09
6.17436e-09
8.47335e-09
1.09823e-08
1.36216e-08
1.63526e-08
1.91529e-08
2.19644e-08
2.46529e-08
2.69912e-08
2.86139e-08
2.89912e-08
2.75162e-08
2.38128e-08
1.81772e-08
1.17134e-08
5.83794e-09
1.55561e-09
0
0
0
0
0
5.05352e-11
2.98465e-10
3.48797e-10
2.56397e-10
7.79145e-11
0
0
0
0
0
0
0
0
0
0
0
0
0
0
1.9278e-10
2.01465e-09
0
5.52759e-10
1.0676e-09
1.09107e-09
1.42457e-09
2.23993e-09
3.49916e-09
5.09043e-09
6.89543e-09
8.81687e-09
1.07795e-08
1.27338e-08
1.46454e-08
1.6453e-08
1.80432e-08
1.92481e-08
1.98519e-08
1.96116e-08
1.83392e-08
1.60252e-08
1.293e-08
9.53671e-09
6.40932e-09
3.93711e-09
2.26113e-09
1.30553e-09
8.65631e-10
7.07493e-10
6.41039e-10
5.53994e-10
4.07058e-10
2.06898e-10
0
0
0
0
0
0
0
0
0
0
0
0
0
0
0
1.53871e-10
8.23657e-10
2.75967e-09
0
4.68189e-10
9.44121e-10
9.43713e-10
1.20365e-09
1.86536e-09
2.88016e-09
4.13973e-09
5.53698e-09
6.98715e-09
8.42581e-09
9.8061e-09
1.10958e-08
1.22465e-08
1.31791e-08
1.37867e-08
1.39566e-08
1.3589e-08
1.26422e-08
1.11749e-08
9.35622e-09
7.41589e-09
5.59769e-09
4.07791e-09
2.91831e-09
2.09225e-09
1.51783e-09
1.09798e-09
7.54039e-10
4.41128e-10
1.45097e-10
0
0
0
0
0
0
0
0
0
0
0
0
0
0
1.73959e-10
4.50223e-10
7.98559e-10
1.52381e-09
3.54792e-09
0
3.91778e-10
8.30671e-10
8.07674e-10
1.00183e-09
1.52998e-09
2.33736e-09
3.32216e-09
4.39037e-09
5.47142e-09
6.51385e-09
7.47904e-09
8.34191e-09
9.06923e-09
9.61095e-09
9.90415e-09
9.89411e-09
9.54554e-09
8.86323e-09
7.90411e-09
6.77001e-09
5.57738e-09
4.43184e-09
3.42275e-09
2.57858e-09
1.88835e-09
1.32014e-09
8.39743e-10
4.23806e-10
6.31876e-11
0
0
0
0
0
0
0
0
0
0
0
0
0
2.30149e-10
5.05714e-10
8.09202e-10
1.12264e-09
1.50299e-09
2.26788e-09
4.34754e-09
0
3.23026e-10
7.27312e-10
6.83901e-10
8.20721e-10
1.23503e-09
1.86957e-09
2.63084e-09
3.4383e-09
4.23534e-09
4.9829e-09
5.65172e-09
6.22374e-09
6.67834e-09
6.98573e-09
7.11032e-09
7.02742e-09
6.72908e-09
6.23182e-09
5.5779e-09
4.82705e-09
4.04052e-09
3.26242e-09
2.53968e-09
1.89047e-09
1.31317e-09
8.00699e-10
3.49591e-10
0
0
0
0
0
0
0
0
0
0
0
0
3.74688e-11
2.90979e-10
5.63196e-10
8.57847e-10
1.16681e-09
1.49868e-09
1.83775e-09
2.23877e-09
3.02533e-09
5.12608e-09
0
2.61418e-10
6.33896e-10
5.72768e-10
6.60761e-10
9.79777e-10
1.47258e-09
2.05479e-09
2.65861e-09
3.23995e-09
3.77028e-09
4.22881e-09
4.60258e-09
4.87983e-09
5.04361e-09
5.07461e-09
4.96256e-09
4.71071e-09
4.33598e-09
3.86712e-09
3.3385e-09
2.78225e-09
2.21805e-09
1.668e-09
1.15052e-09
6.71613e-10
2.38278e-10
0
0
0
0
0
0
0
0
0
0
0
1.02749e-10
3.58233e-10
6.29855e-10
9.18295e-10
1.21925e-09
1.53681e-09
1.86469e-09
2.21122e-09
2.56321e-09
2.97408e-09
3.76843e-09
5.85885e-09
0
2.0643e-10
5.50109e-10
4.74184e-10
5.21488e-10
7.62026e-10
1.14026e-09
1.58095e-09
2.02762e-09
2.4467e-09
2.81802e-09
3.12739e-09
3.36552e-09
3.52581e-09
3.59887e-09
3.57505e-09
3.45135e-09
3.235e-09
2.94031e-09
2.58619e-09
2.19221e-09
1.77526e-09
1.34559e-09
9.14368e-10
5.01003e-10
1.17543e-10
0
0
0
0
0
0
0
0
0
0
1.67868e-10
4.31064e-10
7.06633e-10
9.93646e-10
1.28975e-09
1.59685e-09
1.91239e-09
2.24082e-09
2.57725e-09
2.92934e-09
3.28575e-09
3.69815e-09
4.49013e-09
6.55354e-09
0
1.57537e-10
4.75512e-10
3.87702e-10
4.01835e-10
5.78729e-10
8.6555e-10
1.19564e-09
1.5223e-09
1.82028e-09
2.07568e-09
2.27896e-09
2.42351e-09
2.50551e-09
2.51986e-09
2.4624e-09
2.33413e-09
2.14357e-09
1.9026e-09
1.6238e-09
1.31826e-09
9.9501e-10
6.61064e-10
3.26152e-10
9.54634e-12
0
0
0
0
0
0
0
0
0
2.31384e-10
5.0777e-10
7.92262e-10
1.08289e-09
1.37838e-09
1.68025e-09
1.9885e-09
2.30623e-09
2.63222e-09
2.97063e-09
3.31684e-09
3.67666e-09
4.03921e-09
4.45436e-09
5.24649e-09
7.29465e-09
0
1.14223e-10
4.09586e-10
3.12628e-10
3.00297e-10
4.26359e-10
6.41155e-10
8.85717e-10
1.12149e-09
1.3297e-09
1.50097e-09
1.6288e-09
1.70831e-09
1.73717e-09
1.7129e-09
1.63466e-09
1.50599e-09
1.33574e-09
1.13404e-09
9.09889e-10
6.70234e-10
4.20934e-10
1.68605e-10
0
0
0
0
0
0
0
0
1.27674e-11
2.94043e-10
5.88405e-10
8.86408e-10
1.18445e-09
1.48227e-09
1.7825e-09
2.0877e-09
2.40179e-09
2.72622e-09
3.06389e-09
3.41273e-09
3.77444e-09
4.14234e-09
4.51991e-09
4.90413e-09
5.35633e-09
6.19458e-09
8.31601e-09
0
7.59818e-11
3.51758e-10
2.48137e-10
2.15156e-10
3.01202e-10
4.59967e-10
6.39172e-10
8.0677e-10
9.48829e-10
1.05922e-09
1.1335e-09
1.16825e-09
1.1615e-09
1.11216e-09
1.0217e-09
8.96252e-10
7.4502e-10
5.77224e-10
4.00009e-10
2.18573e-10
3.80475e-11
0
0
0
0
0
0
0
6.27913e-11
3.55443e-10
6.71671e-10
9.92145e-10
1.3064e-09
1.61203e-09
1.91263e-09
2.21419e-09
2.5236e-09
2.84561e-09
3.18367e-09
3.53686e-09
3.9038e-09
4.2777e-09
4.66232e-09
5.07567e-09
5.54163e-09
6.00389e-09
6.50946e-09
7.41288e-09
9.65816e-09
0
4.2337e-11
3.01429e-10
1.93312e-10
1.44641e-10
1.99704e-10
3.1544e-10
4.45268e-10
5.62326e-10
6.56259e-10
7.23124e-10
7.59904e-10
7.6408e-10
7.34222e-10
6.7043e-10
5.76026e-10
4.58616e-10
3.28232e-10
1.94404e-10
6.41261e-11
0
0
0
0
0
0
0
1.30869e-10
4.18545e-10
7.50202e-10
1.09873e-09
1.44222e-09
1.76918e-09
2.079e-09
2.37865e-09
2.6788e-09
2.98943e-09
3.31786e-09
3.66623e-09
4.03295e-09
4.41102e-09
4.7965e-09
5.20408e-09
5.69826e-09
6.29746e-09
6.89139e-09
7.45741e-09
8.04777e-09
9.05434e-09
1.1499e-08
0
1.28403e-11
2.58012e-10
1.47228e-10
8.69981e-11
1.18562e-10
2.01839e-10
2.9493e-10
3.75035e-10
4.34532e-10
4.71099e-10
4.82669e-10
4.67257e-10
4.24082e-10
3.5453e-10
2.63676e-10
1.60705e-10
5.6846e-11
0
0
0
0
0
0
3.06753e-12
2.02556e-10
4.76659e-10
8.12935e-10
1.18663e-09
1.56847e-09
1.9345e-09
2.27284e-09
2.58467e-09
2.88088e-09
3.17643e-09
3.48537e-09
3.81654e-09
4.17234e-09
4.54823e-09
4.93535e-09
5.33057e-09
5.76484e-09
6.34007e-09
7.09534e-09
7.83066e-09
8.53104e-09
9.18477e-09
9.85179e-09
1.09639e-08
1.36292e-08
0
0
2.20943e-10
1.09015e-10
4.06327e-11
5.48102e-11
1.14177e-10
1.80653e-10
2.34511e-10
2.70126e-10
2.86475e-10
2.82386e-10
2.56473e-10
2.08751e-10
1.41869e-10
6.25047e-11
0
0
0
0
0
0
5.47544e-11
2.41473e-10
5.02528e-10
8.36871e-10
1.2294e-09
1.65231e-09
2.07304e-09
2.46509e-09
2.816e-09
3.12919e-09
3.41985e-09
3.70813e-09
4.01213e-09
4.34312e-09
4.70332e-09
5.08678e-09
5.48091e-09
5.88759e-09
6.3498e-09
7.01414e-09
7.89635e-09
8.75258e-09
9.56386e-09
1.033e-08
1.10428e-08
1.1767e-08
1.29687e-08
1.583e-08
0
0
1.89702e-10
7.78728e-11
4.14864e-12
5.96653e-12
4.83305e-11
9.62902e-11
1.32508e-10
1.52811e-10
1.57135e-10
1.4518e-10
1.16524e-10
7.22154e-11
1.6447e-11
0
0
0
0
0
5.76075e-11
2.28226e-10
4.71601e-10
7.96482e-10
1.1974e-09
1.65401e-09
2.13661e-09
2.6067e-09
3.0328e-09
3.40072e-09
3.71593e-09
3.99867e-09
4.27531e-09
4.56958e-09
4.89605e-09
5.25759e-09
5.64601e-09
6.04615e-09
6.4648e-09
6.96395e-09
7.73865e-09
8.72961e-09
9.67584e-09
1.05732e-08
1.14181e-08
1.2214e-08
1.29554e-08
1.37113e-08
1.49752e-08
1.79854e-08
0
0
1.63849e-10
5.31236e-11
0
0
1.10949e-12
3.71542e-11
6.26707e-11
7.47219e-11
7.4161e-11
6.15454e-11
3.74818e-11
4.41069e-12
0
0
0
0
4.28703e-11
1.83765e-10
3.93913e-10
6.83265e-10
1.06173e-09
1.53308e-09
2.07771e-09
2.63206e-09
3.16435e-09
3.63745e-09
4.0317e-09
4.35278e-09
4.62649e-09
4.88725e-09
5.16611e-09
5.48238e-09
5.84029e-09
6.23045e-09
6.63447e-09
7.06377e-09
7.59849e-09
8.48108e-09
9.57826e-09
1.06099e-08
1.15772e-08
1.24861e-08
1.3338e-08
1.41396e-08
1.4888e-08
1.56559e-08
1.69579e-08
2.00742e-08
0
0
1.43021e-10
3.42477e-11
0
0
0
0
2.06877e-11
3.04399e-11
3.11512e-11
2.46153e-11
1.2781e-11
0
0
4.55903e-12
5.1158e-11
1.49265e-10
3.12922e-10
5.52941e-10
8.78892e-10
1.30043e-09
1.82451e-09
2.44632e-09
3.12151e-09
3.73704e-09
4.27444e-09
4.71044e-09
5.047e-09
5.31387e-09
5.55515e-09
5.81248e-09
6.11266e-09
6.46298e-09
6.85284e-09
7.25992e-09
7.69599e-09
8.25694e-09
9.22637e-09
1.04343e-08
1.15524e-08
1.25885e-08
1.35506e-08
1.4449e-08
1.5289e-08
1.60795e-08
1.68198e-08
1.75854e-08
1.8907e-08
2.20935e-08
0
0
1.26889e-10
2.08284e-11
0
0
0
0
3.7088e-12
1.68489e-11
2.47899e-11
3.08125e-11
3.86867e-11
5.43575e-11
8.75198e-11
1.52274e-10
2.65987e-10
4.46144e-10
7.07292e-10
1.06062e-09
1.51564e-09
2.08051e-09
2.7572e-09
3.52745e-09
4.30373e-09
4.93326e-09
5.43442e-09
5.80413e-09
6.0725e-09
6.29358e-09
6.5234e-09
6.80076e-09
7.13881e-09
7.52676e-09
7.93708e-09
8.37656e-09
8.95246e-09
9.98318e-09
1.12988e-08
1.25038e-08
1.36072e-08
1.46219e-08
1.55593e-08
1.6432e-08
1.72475e-08
1.80162e-08
1.87384e-08
1.9492e-08
2.08196e-08
2.40491e-08
0
0
1.15197e-10
1.25581e-11
0
0
0
0
1.02333e-11
3.21464e-11
5.35364e-11
7.94021e-11
1.15394e-10
1.69526e-10
2.53736e-10
3.84103e-10
5.79143e-10
8.56571e-10
1.23061e-09
1.71188e-09
2.30878e-09
3.02642e-09
3.85933e-09
4.76847e-09
5.59823e-09
6.19363e-09
6.62263e-09
6.90988e-09
7.11607e-09
7.31444e-09
7.56205e-09
7.88286e-09
8.26756e-09
8.68346e-09
9.12445e-09
9.70492e-09
1.07679e-08
1.21804e-08
1.3466e-08
1.46341e-08
1.5699e-08
1.66753e-08
1.75759e-08
1.84143e-08
1.91988e-08
1.99399e-08
2.06386e-08
2.13742e-08
2.26981e-08
2.59496e-08
0
0
1.07741e-10
9.40564e-12
0
0
0
2.77957e-12
4.0411e-11
7.67684e-11
1.1797e-10
1.71201e-10
2.44524e-10
3.48273e-10
4.96401e-10
7.06583e-10
9.98003e-10
1.38804e-09
1.88985e-09
2.51257e-09
3.2622e-09
4.1392e-09
5.12704e-09
6.15465e-09
6.97347e-09
7.4939e-09
7.82818e-09
8.0342e-09
8.20118e-09
8.41024e-09
8.7042e-09
9.08064e-09
9.50349e-09
9.94731e-09
1.05217e-08
1.15824e-08
1.30821e-08
1.44447e-08
1.5675e-08
1.679e-08
1.78045e-08
1.87337e-08
1.95912e-08
2.03903e-08
2.11398e-08
2.18497e-08
2.25212e-08
2.32344e-08
2.45471e-08
2.78041e-08
0
0
1.04578e-10
1.17071e-11
0
0
0
4.18613e-11
9.54155e-11
1.52323e-10
2.20683e-10
3.10049e-10
4.30976e-10
5.96277e-10
8.22031e-10
1.12749e-09
1.53189e-09
2.05113e-09
2.69587e-09
3.47232e-09
4.38283e-09
5.42156e-09
6.5561e-09
7.66478e-09
8.39972e-09
8.81931e-09
9.05292e-09
9.19677e-09
9.35922e-09
9.61267e-09
9.97156e-09
1.0401e-08
1.08515e-08
1.14082e-08
1.24148e-08
1.39983e-08
1.54431e-08
1.67375e-08
1.79021e-08
1.89545e-08
1.99109e-08
2.0787e-08
2.15967e-08
2.23534e-08
2.30652e-08
2.37415e-08
2.43833e-08
2.5071e-08
2.63669e-08
2.96167e-08
0
0
1.06175e-10
2.03839e-11
0
0
3.26927e-11
1.03102e-10
1.78554e-10
2.62796e-10
3.66191e-10
5.01155e-10
6.81293e-10
9.22111e-10
1.24141e-09
1.65912e-09
2.19333e-09
2.8573e-09
3.65827e-09
4.59858e-09
5.67559e-09
6.87471e-09
8.14043e-09
9.26746e-09
9.86216e-09
1.01669e-08
1.03093e-08
1.04231e-08
1.06194e-08
1.09437e-08
1.13721e-08
1.18352e-08
1.2366e-08
1.32606e-08
1.48963e-08
1.64544e-08
1.78266e-08
1.90465e-08
2.01381e-08
2.11215e-08
2.2014e-08
2.28325e-08
2.35911e-08
2.43026e-08
2.49748e-08
2.56154e-08
2.62255e-08
2.68849e-08
2.81592e-08
3.13912e-08
0
0
1.13443e-10
3.68038e-11
0
2.14414e-11
9.6279e-11
1.90509e-10
2.9458e-10
4.14049e-10
5.61968e-10
7.53847e-10
1.00634e-09
1.33752e-09
1.76671e-09
2.3142e-09
2.99584e-09
3.82067e-09
4.79066e-09
5.90263e-09
7.1476e-09
8.49918e-09
9.86833e-09
1.09202e-08
1.13587e-08
1.15397e-08
1.16165e-08
1.17399e-08
1.20026e-08
1.24085e-08
1.28876e-08
1.33959e-08
1.41562e-08
1.57093e-08
1.74461e-08
1.89313e-08
2.02247e-08
2.13641e-08
2.23772e-08
2.32863e-08
2.41109e-08
2.48686e-08
2.55736e-08
2.62377e-08
2.68678e-08
2.74705e-08
2.80466e-08
2.86754e-08
2.99243e-08
3.31301e-08
0
0
1.27769e-10
6.29802e-11
3.44361e-11
8.40341e-11
1.84983e-10
3.10265e-10
4.51011e-10
6.1481e-10
8.17853e-10
1.07933e-09
1.41936e-09
1.85838e-09
2.41628e-09
3.1122e-09
3.95808e-09
4.95721e-09
6.10523e-09
7.39256e-09
8.80262e-09
1.02926e-08
1.17225e-08
1.26038e-08
1.28783e-08
1.29503e-08
1.29966e-08
1.31663e-08
1.35146e-08
1.39928e-08
1.45006e-08
1.51411e-08
1.64282e-08
1.83668e-08
2.00213e-08
2.14244e-08
2.26311e-08
2.36833e-08
2.46123e-08
2.54431e-08
2.61967e-08
2.6891e-08
2.75401e-08
2.81546e-08
2.87407e-08
2.93035e-08
2.98436e-08
3.04398e-08
3.16603e-08
3.48337e-08
0
0
1.51205e-10
1.02002e-10
9.40365e-11
1.71083e-10
3.05786e-10
4.70683e-10
6.57781e-10
8.77031e-10
1.14806e-09
1.49395e-09
1.93832e-09
2.50352e-09
3.20933e-09
4.07265e-09
5.09975e-09
6.28621e-09
7.6194e-09
9.0818e-09
1.06473e-08
1.22506e-08
1.3672e-08
1.42951e-08
1.44197e-08
1.44112e-08
1.44676e-08
1.47144e-08
1.51521e-08
1.56771e-08
1.62404e-08
1.71796e-08
1.91235e-08
2.10438e-08
2.26153e-08
2.39266e-08
2.50392e-08
2.59991e-08
2.68407e-08
2.75911e-08
2.8272e-08
2.89015e-08
2.94929e-08
3.0056e-08
3.05959e-08
3.11168e-08
3.1619e-08