/*--------------------------------*- C++ -*----------------------------------*\
  =========                 |
  \\      /  F ield         | OpenFOAM: The Open Source CFD Toolbox
   \\    /   O peration     | Website:  https://openfoam.org
    \\  /    A nd           | Version:  7
     \\/     M anipulation  |
\*---------------------------------------------------------------------------*/
FoamFile
{
    version     2.0;
    format      ascii;
    class       volScalarField;
    location    "0.07";
    object      p;
}
// * * * * * * * * * * * * * * * * * * * * * * * * * * * * * * * * * * * * * //

dimensions      [0 2 -2 0 0 0 0];

internalField   nonuniform List<scalar> 
70000
(
0.130076
0.0532029
0.0400877
0.0425803
0.0428908
0.0419031
0.0410117
0.0403578
0.0398327
0.039387
0.0390074
0.0386863
0.0384167
0.0381923
0.0380081
0.0378599
0.0377445
0.0376591
0.0376016
0.0375701
0.0375632
0.0375795
0.0376182
0.0376784
0.0377594
0.0378608
0.0379821
0.0381231
0.0382835
0.0384633
0.0386623
0.0388804
0.0391176
0.0393735
0.0396481
0.0399406
0.0402508
0.040577
0.0409187
0.0412728
0.0416369
0.0420084
0.0423767
0.042748
0.0430841
0.0434286
0.0436587
0.0439408
0.0439117
0.0440443
0.125776
0.0535648
0.0402903
0.0426751
0.0429454
0.0419391
0.0410399
0.0403811
0.0398523
0.0394038
0.0390221
0.0386993
0.0384283
0.0382028
0.0380177
0.0378687
0.0377526
0.0376667
0.0376087
0.0375768
0.0375694
0.0375855
0.0376238
0.0376837
0.0377645
0.0378657
0.0379869
0.0381277
0.038288
0.0384677
0.0386667
0.0388847
0.0391218
0.0393777
0.0396523
0.0399448
0.040255
0.0405813
0.040923
0.0412773
0.0416414
0.0420132
0.0423816
0.0427533
0.0430895
0.0434344
0.0436648
0.0439467
0.0439211
0.04409
0.12217
0.0544869
0.0406346
0.0428036
0.0430201
0.0419842
0.0410723
0.0404075
0.0398743
0.0394225
0.0390382
0.0387135
0.038441
0.0382142
0.038028
0.0378782
0.0377614
0.0376748
0.0376162
0.0375838
0.037576
0.0375917
0.0376297
0.0376894
0.0377699
0.0378708
0.0379918
0.0381325
0.0382927
0.0384722
0.038671
0.038889
0.0391261
0.0393819
0.0396565
0.0399489
0.0402592
0.0405855
0.0409273
0.0412817
0.041646
0.042018
0.0423866
0.0427588
0.0430953
0.043441
0.0436718
0.0439541
0.043942
0.044139
0.119065
0.0555854
0.0411104
0.0429757
0.043121
0.0420419
0.0411104
0.0404373
0.0398989
0.039443
0.0390557
0.0387287
0.0384544
0.0382262
0.0380388
0.037888
0.0377704
0.0376831
0.0376239
0.037591
0.0375827
0.037598
0.0376357
0.037695
0.0377752
0.0378759
0.0379966
0.0381371
0.0382971
0.0384765
0.0386752
0.038893
0.03913
0.0393857
0.0396602
0.0399526
0.0402629
0.0405892
0.0409311
0.0412856
0.04165
0.0420223
0.0423912
0.0427638
0.0431009
0.0434474
0.0436798
0.0439621
0.0439744
0.0441912
0.116108
0.0566783
0.041683
0.0431931
0.0432548
0.0421197
0.0411589
0.0404739
0.0399286
0.0394674
0.0390761
0.0387461
0.0384696
0.0382396
0.0380508
0.0378988
0.0377802
0.037692
0.0376321
0.0375986
0.0375898
0.0376045
0.0376418
0.0377007
0.0377806
0.037881
0.0380014
0.0381416
0.0383014
0.0384805
0.038679
0.0388967
0.0391335
0.039389
0.0396634
0.0399557
0.0402659
0.0405922
0.040934
0.0412886
0.0416531
0.0420255
0.0423948
0.0427679
0.0431058
0.0434531
0.0436888
0.0439705
0.0440167
0.044252
0.1132
0.0577095
0.0423057
0.0434364
0.0434158
0.0422191
0.0412205
0.0405194
0.0399652
0.0394973
0.0391008
0.038767
0.0384876
0.0382554
0.0380648
0.0379113
0.0377914
0.0377022
0.0376414
0.037607
0.0375976
0.0376117
0.0376484
0.0377068
0.0377863
0.0378862
0.0380063
0.0381461
0.0383056
0.0384844
0.0386826
0.0389
0.0391365
0.0393918
0.039666
0.039958
0.040268
0.0405941
0.0409358
0.0412902
0.0416547
0.0420273
0.0423968
0.0427703
0.0431093
0.0434572
0.043698
0.0439789
0.0440664
0.0443221
0.110334
0.0586618
0.0429454
0.0436846
0.0435908
0.0423356
0.0412942
0.0405737
0.0400091
0.0395332
0.0391305
0.0387921
0.0385091
0.0382742
0.0380813
0.037926
0.0378045
0.037714
0.037652
0.0376167
0.0376064
0.0376197
0.0376557
0.0377135
0.0377924
0.0378918
0.0380114
0.0381507
0.0383097
0.0384881
0.0386859
0.0389028
0.0391389
0.0393939
0.0396676
0.0399593
0.0402689
0.0405946
0.0409359
0.0412901
0.0416544
0.0420269
0.0423964
0.0427702
0.0431105
0.0434589
0.0437066
0.043987
0.0441202
0.0443984
0.107519
0.0595286
0.0435858
0.043926
0.043769
0.0424626
0.0413766
0.0406349
0.0400593
0.0395748
0.0391652
0.0388214
0.0385344
0.0382962
0.0381007
0.0379431
0.0378198
0.0377278
0.0376644
0.0376279
0.0376165
0.0376289
0.037664
0.037721
0.0377992
0.0378979
0.0380168
0.0381555
0.0383139
0.0384917
0.0386889
0.0389052
0.0391407
0.0393951
0.0396682
0.0399593
0.0402682
0.0405934
0.040934
0.0412877
0.0416514
0.0420236
0.042393
0.0427668
0.0431085
0.043457
0.0437134
0.0439942
0.0441745
0.0444777
0.104761
0.0603075
0.0442216
0.0441567
0.0439442
0.0425954
0.0414645
0.0407006
0.0401137
0.0396206
0.0392037
0.0388543
0.0385629
0.0383212
0.0381228
0.0379628
0.0378374
0.0377435
0.0376786
0.0376407
0.037628
0.0376393
0.0376734
0.0377294
0.0378067
0.0379045
0.0380226
0.0381606
0.0383182
0.0384952
0.0386916
0.0389072
0.0391419
0.0393954
0.0396676
0.0399579
0.0402659
0.0405901
0.0409298
0.0412826
0.0416454
0.0420169
0.0423858
0.0427593
0.0431025
0.0434508
0.0437173
0.044
0.0442258
0.0445563
0.102064
0.0609977
0.0448512
0.0443766
0.0441136
0.0427312
0.0415559
0.0407687
0.0401706
0.039669
0.0392449
0.0388899
0.0385939
0.0383486
0.0381471
0.0379846
0.037857
0.0377612
0.0376945
0.0376551
0.037641
0.037651
0.0376839
0.0377388
0.037815
0.0379118
0.0380289
0.0381659
0.0383226
0.0384986
0.038694
0.0389086
0.0391423
0.0393947
0.0396659
0.0399549
0.0402617
0.0405847
0.040923
0.0412746
0.041636
0.0420064
0.0423745
0.0427471
0.0430918
0.0434396
0.0437172
0.0440035
0.0442712
0.04463
0.0994314
0.0615994
0.0454736
0.0445868
0.0442757
0.0428684
0.0416498
0.0408382
0.0402289
0.0397191
0.0392879
0.0389271
0.0386267
0.0383777
0.0381732
0.038008
0.0378781
0.0377803
0.0377119
0.0376707
0.0376552
0.0376638
0.0376954
0.0377491
0.0378241
0.0379198
0.0380357
0.0381716
0.0383271
0.038502
0.0386963
0.0389096
0.039142
0.0393932
0.0396629
0.0399505
0.0402557
0.0405771
0.0409137
0.0412636
0.0416232
0.0419919
0.0423588
0.0427301
0.0430761
0.0434232
0.0437122
0.0440041
0.0443082
0.0446953
0.0968654
0.0621132
0.0460874
0.0447884
0.0444297
0.0430063
0.0417458
0.0409088
0.040288
0.0397701
0.0393319
0.0389654
0.0386605
0.0384079
0.0382003
0.0380325
0.0379003
0.0378004
0.0377302
0.0376874
0.0376703
0.0376774
0.0377077
0.03776
0.0378337
0.0379282
0.0380429
0.0381775
0.0383317
0.0385054
0.0386983
0.0389102
0.0391411
0.0393907
0.0396587
0.0399446
0.0402479
0.0405673
0.0409018
0.0412495
0.041607
0.0419736
0.0423387
0.0427081
0.0430553
0.0434016
0.0437019
0.0440011
0.0443357
0.0447491
0.0943694
0.0625396
0.0466903
0.0449827
0.044575
0.0431439
0.0418438
0.0409801
0.0403476
0.0398218
0.0393767
0.0390045
0.0386951
0.0384388
0.0382282
0.0380577
0.0379233
0.0378213
0.0377492
0.0377047
0.037686
0.0376917
0.0377205
0.0377715
0.0378438
0.0379369
0.0380503
0.0381835
0.0383364
0.0385086
0.0387
0.0389103
0.0391396
0.0393874
0.0396535
0.0399374
0.0402384
0.0405556
0.0408875
0.0412328
0.0415876
0.0419516
0.0423147
0.0426817
0.0430298
0.0433753
0.0436862
0.043994
0.044353
0.0447897
0.0919457
0.0628796
0.0472794
0.0451713
0.0447109
0.0432804
0.0419437
0.0410523
0.0404076
0.039874
0.039422
0.039044
0.0387301
0.0384702
0.0382565
0.0380835
0.0379467
0.0378427
0.0377687
0.0377225
0.0377022
0.0377063
0.0377336
0.0377832
0.0378541
0.0379458
0.0380578
0.0381896
0.038341
0.0385116
0.0387014
0.03891
0.0391374
0.0393833
0.0396473
0.0399289
0.0402275
0.0405421
0.0408712
0.0412136
0.0415654
0.0419263
0.0422871
0.0426513
0.043
0.0433448
0.0436653
0.0439827
0.0443605
0.0448164
0.0895966
0.0631345
0.0478517
0.0453557
0.0448372
0.0434148
0.0420452
0.0411253
0.0404677
0.0399266
0.0394678
0.0390841
0.0387656
0.038502
0.0382852
0.0381095
0.0379704
0.0378643
0.0377884
0.0377405
0.0377185
0.0377211
0.037747
0.037795
0.0378645
0.0379548
0.0380653
0.0381956
0.0383454
0.0385144
0.0387024
0.0389093
0.0391347
0.0393784
0.0396402
0.0399193
0.0402152
0.040527
0.040853
0.0411922
0.0415408
0.0418984
0.0422565
0.0426177
0.0429666
0.0433109
0.0436397
0.0439671
0.0443589
0.0448296
0.0873243
0.0633062
0.0484041
0.0455373
0.0449537
0.0435463
0.0421482
0.0411991
0.0405281
0.0399796
0.0395141
0.0391246
0.0388015
0.0385342
0.0383143
0.0381359
0.0379944
0.0378862
0.0378084
0.0377587
0.0377351
0.0377361
0.0377604
0.037807
0.037875
0.0379637
0.0380727
0.0382014
0.0383496
0.0385169
0.0387031
0.038908
0.0391314
0.0393729
0.0396322
0.0399087
0.0402018
0.0405105
0.0408333
0.0411691
0.0415142
0.0418682
0.0422234
0.0425814
0.0429302
0.0432743
0.0436102
0.0439474
0.0443495
0.0448305
0.0851303
0.0633967
0.0489332
0.0457175
0.0450605
0.0436736
0.0422523
0.0412737
0.0405886
0.0400327
0.0395608
0.0391655
0.0388377
0.0385666
0.0383436
0.0381625
0.0380186
0.0379083
0.0378285
0.037777
0.0377517
0.0377511
0.0377738
0.0378189
0.0378854
0.0379726
0.03808
0.0382071
0.0383535
0.0385191
0.0387034
0.0389063
0.0391275
0.0393666
0.0396234
0.0398972
0.0401873
0.0404929
0.0408123
0.0411445
0.041486
0.0418361
0.0421883
0.0425431
0.0428915
0.0432357
0.0435774
0.0439238
0.0443333
0.0448209
0.0830157
0.0634088
0.0494362
0.0458974
0.0451576
0.0437959
0.0423571
0.0413492
0.0406491
0.040086
0.0396078
0.0392067
0.0388743
0.0385994
0.0383732
0.0381894
0.038043
0.0379305
0.0378488
0.0377954
0.0377684
0.0377661
0.0377873
0.0378307
0.0378956
0.0379813
0.038087
0.0382125
0.0383572
0.0385209
0.0387032
0.038904
0.039123
0.0393597
0.0396138
0.0398848
0.0401718
0.0404741
0.04079
0.0411185
0.0414563
0.0418025
0.0421516
0.0425032
0.0428508
0.0431953
0.0435418
0.0438967
0.0443113
0.0448023
0.0809814
0.0633456
0.0499098
0.0460775
0.0452455
0.0439121
0.0424622
0.0414255
0.0407096
0.0401392
0.0396551
0.0392483
0.0389111
0.0386324
0.038403
0.0382164
0.0380676
0.0379529
0.0378692
0.0378139
0.0377851
0.0377812
0.0378007
0.0378425
0.0379058
0.0379898
0.0380939
0.0382176
0.0383605
0.0385223
0.0387026
0.0389012
0.0391179
0.0393521
0.0396035
0.0398716
0.0401554
0.0404543
0.0407666
0.0410913
0.0414253
0.0417676
0.0421134
0.0424619
0.0428086
0.0431535
0.0435038
0.0438661
0.0442844
0.0447762
0.0790277
0.0632109
0.0503511
0.0462585
0.0453248
0.0440213
0.042567
0.0415026
0.0407701
0.0401924
0.0397025
0.0392902
0.0389482
0.0386656
0.0384331
0.0382437
0.0380924
0.0379754
0.0378896
0.0378325
0.0378019
0.0377962
0.037814
0.0378542
0.0379158
0.0379981
0.0381005
0.0382224
0.0383634
0.0385232
0.0387015
0.0388979
0.0391121
0.0393437
0.0395924
0.0398574
0.040138
0.0404335
0.0407421
0.0410629
0.041393
0.0417314
0.0420739
0.0424193
0.0427649
0.0431102
0.0434636
0.0438322
0.0442529
0.0447438
0.0771544
0.0630087
0.0507574
0.0464403
0.0453961
0.0441227
0.0426708
0.0415804
0.0408305
0.0402454
0.0397501
0.0393323
0.0389855
0.0386991
0.0384633
0.038271
0.0381173
0.0379981
0.0379102
0.0378511
0.0378186
0.0378112
0.0378272
0.0378657
0.0379256
0.0380062
0.0381068
0.0382269
0.038366
0.0385238
0.0386999
0.0388939
0.0391057
0.0393346
0.0395804
0.0398423
0.0401197
0.0404115
0.0407164
0.0410332
0.0413595
0.0416939
0.0420331
0.0423755
0.0427197
0.0430655
0.0434213
0.043795
0.0442173
0.0447058
0.0753611
0.0627436
0.0511259
0.0466227
0.0454602
0.0442157
0.0427728
0.0416589
0.0408908
0.0402981
0.0397976
0.0393745
0.039023
0.0387327
0.0384936
0.0382986
0.0381423
0.0380207
0.0379307
0.0378697
0.0378353
0.0378261
0.0378404
0.0378771
0.0379352
0.038014
0.0381128
0.0382309
0.0383681
0.0385238
0.0386976
0.0388893
0.0390985
0.0393247
0.0395675
0.0398263
0.0401002
0.0403885
0.0406896
0.0410024
0.0413247
0.0416551
0.0419909
0.0423305
0.0426732
0.0430191
0.0433769
0.0437545
0.0441776
0.0446629
0.0736469
0.0624206
0.0514544
0.0468049
0.0455181
0.0442998
0.0428723
0.0417377
0.0409509
0.0403503
0.039845
0.0394169
0.0390606
0.0387664
0.0385241
0.0383262
0.0381673
0.0380435
0.0379513
0.0378882
0.037852
0.0378409
0.0378533
0.0378882
0.0379446
0.0380215
0.0381184
0.0382346
0.0383697
0.0385232
0.0386948
0.038884
0.0390906
0.039314
0.0395538
0.0398093
0.0400797
0.0403642
0.0406615
0.0409703
0.0412886
0.041615
0.0419473
0.042284
0.042625
0.0429711
0.0433301
0.0437106
0.0441339
0.0446153
0.0720105
0.0620448
0.0517409
0.0469857
0.0455708
0.0443746
0.0429684
0.0418166
0.0410109
0.040402
0.0398922
0.0394592
0.0390983
0.0388001
0.0385546
0.0383539
0.0381924
0.0380662
0.0379719
0.0379068
0.0378686
0.0378555
0.0378661
0.0378992
0.0379537
0.0380287
0.0381236
0.0382378
0.0383708
0.0385221
0.0386913
0.038878
0.0390818
0.0393023
0.039539
0.0397912
0.040058
0.0403388
0.0406321
0.0409368
0.0412511
0.0415735
0.0419022
0.0422361
0.0425753
0.0429211
0.0432809
0.0436634
0.0440862
0.0445631
0.0704502
0.0616216
0.0519835
0.0471638
0.0456193
0.04444
0.0430602
0.0418953
0.0410708
0.0404531
0.0399389
0.0395015
0.039136
0.0388339
0.0385851
0.0383815
0.0382175
0.038089
0.0379924
0.0379252
0.037885
0.03787
0.0378787
0.0379099
0.0379625
0.0380356
0.0381285
0.0382406
0.0383713
0.0385203
0.038687
0.0388712
0.0390722
0.0392897
0.0395232
0.0397719
0.0400352
0.040312
0.0406013
0.0409019
0.041212
0.0415304
0.0418556
0.0421865
0.0425238
0.042869
0.0432291
0.0436126
0.0440344
0.0445065
0.068964
0.0611568
0.0521811
0.0473372
0.0456646
0.044496
0.0431467
0.0419734
0.0411305
0.0405035
0.0399852
0.0395436
0.0391736
0.0388677
0.0386156
0.0384092
0.0382426
0.0381116
0.0380129
0.0379435
0.0379013
0.0378843
0.0378911
0.0379203
0.0379709
0.038042
0.0381328
0.0382428
0.0383713
0.0385178
0.0386821
0.0388635
0.0390617
0.0392761
0.0395063
0.0397515
0.040011
0.0402839
0.0405691
0.0408655
0.0411715
0.0414858
0.0418073
0.0421352
0.0424703
0.0428147
0.0431746
0.0435582
0.0439783
0.0444454
0.0675499
0.0606559
0.0523329
0.0475038
0.0457074
0.044543
0.0432272
0.0420504
0.0411899
0.0405531
0.0400307
0.0395854
0.0392112
0.0389013
0.038646
0.0384367
0.0382676
0.0381342
0.0380332
0.0379617
0.0379174
0.0378984
0.0379032
0.0379304
0.0379789
0.038048
0.0381366
0.0382444
0.0383705
0.0385147
0.0386763
0.0388549
0.0390501
0.0392614
0.0394882
0.0397298
0.0399855
0.0402544
0.0405354
0.0408275
0.0411292
0.0414394
0.0417572
0.042082
0.0424148
0.0427578
0.043117
0.0435
0.0439178
0.0443796
0.0662051
0.0601246
0.0524385
0.047661
0.0457487
0.0445814
0.0433009
0.0421255
0.0412489
0.0406019
0.0400754
0.0396267
0.0392485
0.0389348
0.0386762
0.0384641
0.0382924
0.0381566
0.0380533
0.0379796
0.0379332
0.0379122
0.0379149
0.0379401
0.0379865
0.0380534
0.0381399
0.0382453
0.0383691
0.0385107
0.0386696
0.0388454
0.0390375
0.0392455
0.0394688
0.0397068
0.0399586
0.0402234
0.0405001
0.0407878
0.0410852
0.0413913
0.0417052
0.0420267
0.042357
0.0426984
0.0430563
0.043438
0.0438529
0.044309
0.0649271
0.0595686
0.0524982
0.0478064
0.0457888
0.0446118
0.0433672
0.0421983
0.0413074
0.0406498
0.0401192
0.0396675
0.0392855
0.038968
0.0387062
0.0384913
0.038317
0.0381788
0.0380732
0.0379973
0.0379488
0.0379257
0.0379263
0.0379493
0.0379937
0.0380583
0.0381426
0.0382456
0.0383669
0.0385058
0.038662
0.0388348
0.0390238
0.0392285
0.0394482
0.0396823
0.0399301
0.0401907
0.0404632
0.0407464
0.0410394
0.0413412
0.0416512
0.0419693
0.0422968
0.0426361
0.0429923
0.0433719
0.0437833
0.0442335
0.0637129
0.058993
0.0525129
0.0479372
0.045828
0.0446348
0.0434255
0.0422679
0.0413651
0.0406967
0.0401619
0.0397075
0.0393221
0.039001
0.038736
0.0385183
0.0383414
0.0382008
0.0380929
0.0380147
0.037964
0.0379387
0.0379372
0.0379581
0.0380002
0.0380627
0.0381445
0.0382451
0.0383638
0.0385001
0.0386534
0.0388231
0.0390089
0.0392101
0.0394262
0.0396564
0.0399001
0.0401564
0.0404244
0.0407031
0.0409916
0.0412891
0.041595
0.0419095
0.0422339
0.0425708
0.0429246
0.0433016
0.0437089
0.0441527
0.0625596
0.058403
0.0524838
0.0480511
0.0458662
0.0446513
0.0434754
0.0423337
0.0414218
0.0407427
0.0402034
0.0397466
0.0393581
0.0390335
0.0387653
0.0385449
0.0383655
0.0382224
0.0381122
0.0380318
0.0379789
0.0379514
0.0379477
0.0379664
0.0380062
0.0380663
0.0381458
0.0382439
0.0383599
0.0384934
0.0386437
0.0388103
0.0389927
0.0391904
0.0394027
0.0396289
0.0398684
0.0401203
0.0403838
0.0406579
0.0409418
0.0412348
0.0415365
0.0418472
0.0421683
0.0425022
0.0428533
0.0432269
0.0436296
0.0440666
0.0614641
0.057803
0.0524127
0.048146
0.0459028
0.044662
0.0435168
0.0423948
0.0414771
0.0407875
0.0402435
0.0397847
0.0393934
0.0390656
0.0387942
0.038571
0.0383891
0.0382437
0.0381311
0.0380484
0.0379933
0.0379635
0.0379576
0.037974
0.0380116
0.0380693
0.0381462
0.0382417
0.038355
0.0384856
0.0386329
0.0387963
0.0389752
0.0391692
0.0393776
0.0395998
0.039835
0.0400824
0.0403412
0.0406106
0.0408898
0.0411782
0.0414755
0.0417822
0.0420997
0.0424302
0.0427779
0.0431476
0.043545
0.0439748
0.0604233
0.0571973
0.0523019
0.0482198
0.0459369
0.0446677
0.0435497
0.0424506
0.0415304
0.0408312
0.0402823
0.0398215
0.0394279
0.039097
0.0388226
0.0385967
0.0384123
0.0382644
0.0381495
0.0380646
0.0380071
0.0379752
0.0379669
0.037981
0.0380162
0.0380714
0.0381458
0.0382386
0.0383491
0.0384767
0.0386208
0.0387809
0.0389563
0.0391465
0.039351
0.0395689
0.0397997
0.0400425
0.0402966
0.0405611
0.0408355
0.0411191
0.0414119
0.0417144
0.0420278
0.0423546
0.0426984
0.0430636
0.0434551
0.0438772
0.0594341
0.0565895
0.0521542
0.0482711
0.0459675
0.0446688
0.0435743
0.0425004
0.0415814
0.0408736
0.0403195
0.0398569
0.0394614
0.0391277
0.0388503
0.0386218
0.0384349
0.0382847
0.0381674
0.0380801
0.0380204
0.0379861
0.0379756
0.0379873
0.03802
0.0380727
0.0381445
0.0382345
0.0383421
0.0384666
0.0386075
0.0387641
0.0389359
0.0391222
0.0393226
0.0395362
0.0397624
0.0400005
0.0402497
0.0405093
0.0407787
0.0410575
0.0413456
0.0416435
0.0419526
0.0422752
0.0426145
0.0429745
0.0433596
0.0437735
0.0584935
0.055983
0.0519725
0.0482986
0.0459931
0.0446659
0.0435908
0.0425437
0.0416294
0.0409144
0.0403552
0.0398908
0.0394937
0.0391575
0.0388773
0.0386461
0.0384569
0.0383043
0.0381847
0.0380951
0.038033
0.0379964
0.0379835
0.0379927
0.038023
0.038073
0.0381421
0.0382293
0.0383339
0.0384553
0.0385928
0.0387458
0.0389138
0.0390962
0.0392923
0.0395015
0.0397231
0.0399564
0.0402006
0.0404551
0.0407194
0.0409931
0.0412762
0.0415694
0.0418739
0.0421918
0.042526
0.0428803
0.0432584
0.0436634
0.0575985
0.0553804
0.05176
0.0483016
0.0460122
0.0446593
0.0435997
0.0425799
0.0416738
0.0409535
0.0403891
0.039923
0.0395247
0.0391863
0.0389035
0.0386697
0.0384781
0.0383232
0.0382013
0.0381093
0.0380449
0.0380059
0.0379906
0.0379973
0.038025
0.0380724
0.0381386
0.0382229
0.0383244
0.0384425
0.0385766
0.038726
0.0388901
0.0390684
0.0392602
0.0394648
0.0396816
0.0399099
0.040149
0.0403983
0.0406573
0.0409258
0.0412038
0.0414919
0.0417913
0.042104
0.0424328
0.0427807
0.0431511
0.0435468
0.0567463
0.0547841
0.0515202
0.0482796
0.0460233
0.0446491
0.0436014
0.0426088
0.0417141
0.0409905
0.0404212
0.0399533
0.0395541
0.0392139
0.0389287
0.0386924
0.0384984
0.0383413
0.038217
0.0381228
0.038056
0.0380146
0.0379968
0.038001
0.038026
0.0380706
0.038134
0.0382153
0.0383136
0.0384283
0.0385588
0.0387045
0.0388646
0.0390386
0.039226
0.0394259
0.0396378
0.039861
0.0400949
0.0403388
0.0405924
0.0408554
0.041128
0.0414107
0.0417047
0.0420118
0.0423345
0.0426754
0.0430376
0.0434233
0.0559339
0.054196
0.0512564
0.0482326
0.0460248
0.0446352
0.0435963
0.0426302
0.0417497
0.041025
0.0404514
0.0399816
0.0395818
0.0392402
0.0389527
0.0387141
0.0385178
0.0383584
0.0382319
0.0381353
0.0380661
0.0380223
0.0380019
0.0380036
0.0380259
0.0380677
0.0381281
0.0382063
0.0383013
0.0384126
0.0385394
0.0386811
0.0388372
0.0390069
0.0391896
0.0393848
0.0395916
0.0398096
0.0400381
0.0402765
0.0405245
0.0407818
0.0410487
0.0413257
0.041614
0.041915
0.042231
0.0425644
0.0429177
0.0432929
0.055159
0.0536176
0.0509719
0.0481612
0.0460152
0.0446171
0.043585
0.042644
0.04178
0.0410566
0.0404794
0.0400079
0.0396076
0.0392649
0.0389755
0.0387346
0.0385361
0.0383745
0.0382458
0.0381468
0.0380753
0.038029
0.0380061
0.038005
0.0380246
0.0380635
0.0381209
0.0381958
0.0382875
0.0383952
0.0385182
0.038656
0.0388078
0.038973
0.039151
0.0393412
0.0395429
0.0397555
0.0399784
0.0402112
0.0404534
0.0407048
0.0409658
0.0412368
0.0415188
0.0418132
0.0421221
0.0424473
0.0427911
0.0431552
0.0544189
0.05305
0.0506699
0.0480661
0.0459931
0.0445944
0.0435678
0.0426503
0.0418044
0.0410849
0.0405051
0.0400319
0.0396313
0.0392879
0.0389969
0.0387539
0.0385532
0.0383895
0.0382585
0.0381573
0.0380833
0.0380345
0.038009
0.0380052
0.0380219
0.0380579
0.0381122
0.0381838
0.038272
0.038376
0.0384952
0.0386288
0.0387762
0.0389369
0.0391101
0.0392952
0.0394916
0.0396986
0.0399158
0.0401427
0.0403789
0.0406243
0.040879
0.0411436
0.041419
0.0417064
0.0420075
0.042324
0.0426578
0.0430101
0.0537113
0.0524942
0.0503533
0.0479484
0.0459577
0.0445663
0.043545
0.0426492
0.0418227
0.0411094
0.0405282
0.0400535
0.0396527
0.039309
0.0390167
0.0387717
0.038569
0.0384032
0.03827
0.0381665
0.0380901
0.0380387
0.0380106
0.0380041
0.0380179
0.0380508
0.0381019
0.0381701
0.0382547
0.038355
0.0384701
0.0385995
0.0387425
0.0388984
0.0390666
0.0392465
0.0394374
0.0396388
0.0398501
0.0400709
0.0403009
0.0405399
0.0407881
0.041046
0.0413143
0.0415942
0.0418871
0.0421943
0.0425174
0.0428574
0.0530342
0.0519505
0.0500249
0.0478094
0.0459079
0.0445321
0.0435167
0.0426408
0.0418345
0.0411296
0.0405485
0.0400726
0.0396717
0.039328
0.0390346
0.038788
0.0385833
0.0384154
0.0382802
0.0381744
0.0380955
0.0380416
0.0380108
0.0380015
0.0380124
0.0380422
0.0380899
0.0381547
0.0382356
0.038332
0.038443
0.038568
0.0387063
0.0388574
0.0390205
0.039195
0.0393803
0.0395759
0.0397811
0.0399957
0.0402192
0.0404516
0.040693
0.0409438
0.0412047
0.0414766
0.0417606
0.042058
0.0423699
0.0426969
0.0523855
0.0514194
0.0496872
0.0476507
0.0458434
0.044491
0.043483
0.0426255
0.0418396
0.0411451
0.0405655
0.0400889
0.0396882
0.0393446
0.0390506
0.0388025
0.038596
0.0384261
0.0382888
0.0381807
0.0380995
0.0380431
0.0380095
0.0379974
0.0380052
0.0380318
0.0380762
0.0381374
0.0382145
0.0383068
0.0384136
0.0385341
0.0386677
0.0388138
0.0389716
0.0391406
0.0393202
0.0395097
0.0397087
0.0399168
0.0401337
0.0403592
0.0405935
0.0408369
0.0410898
0.0413532
0.041628
0.0419149
0.042215
0.0425286
0.0517632
0.0509011
0.0493424
0.0474739
0.0457639
0.0444421
0.0434437
0.0426034
0.0418378
0.0411554
0.040579
0.0401024
0.0397019
0.0393587
0.0390644
0.0388151
0.0386069
0.0384352
0.0382958
0.0381855
0.0381019
0.0380429
0.0380066
0.0379915
0.0379962
0.0380196
0.0380605
0.038118
0.0381913
0.0382795
0.0383819
0.0384978
0.0386265
0.0387674
0.0389198
0.0390832
0.0392568
0.0394401
0.0396327
0.0398342
0.0400441
0.0402625
0.0404894
0.0407249
0.0409696
0.041224
0.0414889
0.041765
0.0420527
0.0423523
0.0511657
0.0503955
0.0489924
0.0472808
0.0456694
0.0443846
0.0433987
0.0425748
0.041829
0.0411601
0.0405886
0.0401127
0.0397127
0.0393702
0.0390758
0.0388256
0.0386159
0.0384423
0.038301
0.0381885
0.0381025
0.0380409
0.0380019
0.0379838
0.0379854
0.0380054
0.0380428
0.0380965
0.0381658
0.0382498
0.0383477
0.0384588
0.0385826
0.0387182
0.038865
0.0390225
0.03919
0.039367
0.039553
0.0397476
0.0399504
0.0401613
0.0403804
0.0406077
0.0408437
0.0410887
0.0413433
0.0416079
0.0418828
0.042168
0.0505913
0.0499025
0.048639
0.0470731
0.0455602
0.0443179
0.0433477
0.0425397
0.0418133
0.041159
0.0405938
0.0401196
0.0397204
0.0393787
0.0390846
0.0388338
0.0386227
0.0384475
0.0383042
0.0381896
0.0381013
0.038037
0.0379952
0.0379742
0.0379726
0.0379892
0.0380229
0.0380728
0.0381379
0.0382175
0.0383109
0.0384171
0.0385357
0.0386659
0.038807
0.0389585
0.0391198
0.0392902
0.0394694
0.0396568
0.0398522
0.0400555
0.0402664
0.0404852
0.040712
0.0409472
0.041191
0.0414437
0.0417053
0.0419755
0.0500386
0.0494219
0.0482836
0.0468526
0.0454367
0.0442414
0.0432902
0.0424982
0.0417907
0.0411517
0.0405944
0.0401228
0.0397248
0.0393841
0.0390907
0.0388394
0.0386272
0.0384504
0.0383053
0.0381887
0.038098
0.0380312
0.0379865
0.0379624
0.0379575
0.0379707
0.0380007
0.0380466
0.0381075
0.0381827
0.0382713
0.0383726
0.0384858
0.0386104
0.0387457
0.0388911
0.0390458
0.0392095
0.0393817
0.0395618
0.0397495
0.0399448
0.0401473
0.0403572
0.0405745
0.0407993
0.0410319
0.0412722
0.04152
0.0417749
0.0495061
0.0489535
0.0479274
0.0466207
0.0452996
0.0441547
0.0432259
0.0424504
0.0417613
0.0411381
0.0405899
0.040122
0.0397256
0.0393863
0.0390936
0.0388424
0.0386293
0.0384511
0.0383042
0.0381855
0.0380925
0.0380231
0.0379756
0.0379484
0.0379402
0.0379498
0.037976
0.0380178
0.0380745
0.0381451
0.0382288
0.0383249
0.0384328
0.0385517
0.0386809
0.0388199
0.0389681
0.0391249
0.0392897
0.0394623
0.0396421
0.039829
0.0400228
0.0402234
0.0404308
0.040645
0.0408659
0.0410934
0.041327
0.0415662
0.0489925
0.0484969
0.0475715
0.0463792
0.0451495
0.0440577
0.0431544
0.0423963
0.0417251
0.0411179
0.04058
0.040117
0.0397228
0.039385
0.0390934
0.0388423
0.0386286
0.0384491
0.0383006
0.0381799
0.0380846
0.0380126
0.0379622
0.037932
0.0379204
0.0379263
0.0379487
0.0379864
0.0380386
0.0381045
0.0381832
0.0382741
0.0383764
0.0384894
0.0386125
0.038745
0.0388863
0.039036
0.0391934
0.0393581
0.0395298
0.0397082
0.0398929
0.0400839
0.040281
0.040484
0.0406929
0.0409071
0.0411262
0.0413494
0.0484966
0.0480517
0.0472168
0.0461294
0.0449875
0.0439503
0.0430754
0.0423356
0.0416822
0.0410912
0.0405644
0.0401073
0.039716
0.0393801
0.0390897
0.0388392
0.038625
0.0384444
0.0382943
0.0381717
0.0380742
0.0379996
0.0379464
0.037913
0.037898
0.0379002
0.0379186
0.0379521
0.0379998
0.0380608
0.0381345
0.0382199
0.0383165
0.0384235
0.0385402
0.0386661
0.0388004
0.0389427
0.0390925
0.0392492
0.0394125
0.0395819
0.0397573
0.0399383
0.0401248
0.0403164
0.0405127
0.0407134
0.0409177
0.0411246
0.0480174
0.0476177
0.0468639
0.0458727
0.0448143
0.0438325
0.0429884
0.0422683
0.0416326
0.0410578
0.040543
0.0400927
0.039705
0.0393713
0.0390824
0.0388326
0.0386183
0.0384368
0.0382852
0.0381607
0.038061
0.0379839
0.0379278
0.0378912
0.0378728
0.0378712
0.0378856
0.0379147
0.0379578
0.0380139
0.0380823
0.0381623
0.038253
0.0383538
0.038464
0.038583
0.0387102
0.038845
0.0389869
0.0391353
0.0392899
0.0394502
0.0396159
0.0397867
0.0399621
0.0401419
0.0403255
0.0405124
0.0407015
0.0408919
0.0475537
0.0471943
0.0465135
0.0456102
0.0446309
0.0437046
0.0428934
0.0421942
0.0415763
0.0410178
0.0405154
0.0400729
0.0396895
0.0393584
0.0390713
0.0388224
0.0386082
0.0384259
0.038273
0.0381468
0.0380449
0.0379653
0.0379063
0.0378665
0.0378446
0.0378392
0.0378494
0.0378742
0.0379125
0.0379636
0.0380267
0.0381009
0.0381856
0.0382801
0.0383837
0.0384957
0.0386155
0.0387426
0.0388764
0.0390163
0.039162
0.0393129
0.0394686
0.0396288
0.0397929
0.0399606
0.0401312
0.0403039
0.0404777
0.0406515
0.0471046
0.0467812
0.0461659
0.0453429
0.0444383
0.0435668
0.0427901
0.0421131
0.0415132
0.040971
0.0404815
0.0400476
0.0396692
0.0393411
0.0390561
0.0388085
0.0385945
0.0384118
0.0382577
0.0381298
0.0380257
0.0379436
0.0378818
0.0378388
0.0378133
0.037804
0.03781
0.0378303
0.0378638
0.0379097
0.0379673
0.0380358
0.0381143
0.0382023
0.0382991
0.0384039
0.0385162
0.0386354
0.0387609
0.0388921
0.0390286
0.0391698
0.0393153
0.0394646
0.0396172
0.0397725
0.0399297
0.040088
0.0402464
0.0404034
0.0466692
0.0463779
0.0458217
0.0450719
0.0442372
0.0434196
0.0426784
0.0420249
0.0414435
0.0409174
0.0404413
0.0400166
0.0396439
0.0393193
0.0390367
0.0387905
0.0385771
0.038394
0.0382388
0.0381093
0.0380032
0.0379187
0.037854
0.0378077
0.0377786
0.0377655
0.0377672
0.0377828
0.0378114
0.0378521
0.0379041
0.0379666
0.0380389
0.0381203
0.0382101
0.0383075
0.0384121
0.0385232
0.0386402
0.0387625
0.0388895
0.0390209
0.0391559
0.0392941
0.0394348
0.0395774
0.0397211
0.0398649
0.0400077
0.040148
0.0462466
0.0459841
0.0454809
0.044798
0.0440288
0.0432635
0.0425585
0.0419295
0.0413669
0.0408571
0.0403945
0.0399796
0.0396133
0.0392928
0.0390127
0.0387682
0.0385556
0.0383723
0.0382163
0.0380853
0.0379772
0.0378902
0.0378227
0.0377732
0.0377404
0.0377233
0.0377207
0.0377317
0.0377552
0.0377906
0.0378368
0.0378933
0.0379592
0.0380338
0.0381164
0.0382064
0.0383031
0.0384059
0.0385142
0.0386273
0.0387448
0.0388659
0.0389903
0.0391171
0.0392458
0.0393756
0.0395055
0.0396347
0.0397618
0.0398854
0.0458361
0.0455993
0.0451439
0.0445219
0.0438137
0.0430989
0.0424304
0.0418267
0.0412835
0.04079
0.040341
0.0399365
0.0395772
0.0392612
0.0389841
0.0387415
0.0385298
0.0383466
0.0381899
0.0380575
0.0379475
0.0378581
0.0377877
0.0377349
0.0376985
0.0376774
0.0376704
0.0376766
0.0376951
0.0377249
0.0377654
0.0378157
0.037875
0.0379427
0.0380181
0.0381004
0.038189
0.0382834
0.0383827
0.0384865
0.0385942
0.038705
0.0388184
0.0389337
0.0390501
0.0391669
0.039283
0.0393975
0.0395089
0.039616
0.0454368
0.0452231
0.0448108
0.0442442
0.0435927
0.0429264
0.0422942
0.0417166
0.0411931
0.0407161
0.040281
0.0398871
0.0395354
0.0392243
0.0389505
0.0387101
0.0384996
0.0383167
0.0381593
0.0380257
0.0379138
0.0378221
0.0377489
0.0376928
0.0376528
0.0376275
0.0376161
0.0376175
0.0376307
0.037655
0.0376896
0.0377335
0.0377862
0.0378469
0.0379148
0.0379893
0.0380697
0.0381554
0.0382457
0.03834
0.0384377
0.0385379
0.0386402
0.0387438
0.0388478
0.0389515
0.0390537
0.0391534
0.0392493
0.0393399
0.0450481
0.0448551
0.0444816
0.0439655
0.0433667
0.0427466
0.0421503
0.0415991
0.0410957
0.0406354
0.0402141
0.0398313
0.0394875
0.0391819
0.0389118
0.0386738
0.0384647
0.0382822
0.0381244
0.0379896
0.037876
0.037782
0.0377059
0.0376466
0.0376029
0.0375735
0.0375576
0.0375541
0.037562
0.0375807
0.0376092
0.0376467
0.0376926
0.0377461
0.0378065
0.037873
0.0379451
0.038022
0.0381031
0.0381877
0.0382752
0.0383647
0.0384558
0.0385475
0.038639
0.0387294
0.0388177
0.0389027
0.0389831
0.0390575
0.0446694
0.0444949
0.0441564
0.0436863
0.0431362
0.04256
0.0419989
0.0414743
0.0409914
0.0405478
0.0401406
0.039769
0.0394336
0.0391339
0.0388677
0.0386323
0.0384248
0.038243
0.038085
0.0379491
0.0378338
0.0377375
0.0376587
0.0375962
0.0375487
0.0375152
0.0374947
0.0374862
0.0374888
0.0375017
0.0375241
0.0375551
0.0375941
0.0376403
0.037693
0.0377514
0.037815
0.037883
0.0379547
0.0380295
0.0381066
0.0381854
0.038265
0.0383447
0.0384236
0.0385008
0.0385752
0.0386456
0.0387107
0.0387691
0.0443
0.0441421
0.0438352
0.0434069
0.0429018
0.0423672
0.0418403
0.0413422
0.0408801
0.0404533
0.0400602
0.0397
0.0393733
0.0390799
0.0388181
0.0385856