/*--------------------------------*- C++ -*----------------------------------*\
  =========                 |
  \\      /  F ield         | OpenFOAM: The Open Source CFD Toolbox
   \\    /   O peration     | Website:  https://openfoam.org
    \\  /    A nd           | Version:  7
     \\/     M anipulation  |
\*---------------------------------------------------------------------------*/
FoamFile
{
    version     2.0;
    format      ascii;
    class       surfaceScalarField;
    location    "0.07";
    object      phi;
}
// * * * * * * * * * * * * * * * * * * * * * * * * * * * * * * * * * * * * * //

dimensions      [0 3 -1 0 0 0 0];

internalField   nonuniform List<scalar> 
139350
(
6.45898e-08
9.20417e-08
3.19432e-08
3.26466e-08
2.30452e-08
8.89799e-09
1.95429e-08
3.50232e-09
1.75823e-08
1.96064e-09
1.61451e-08
1.43721e-09
1.50019e-08
1.14317e-09
1.40775e-08
9.24434e-10
1.33144e-08
7.63116e-10
1.26695e-08
6.4482e-10
1.21143e-08
5.55263e-10
1.16293e-08
4.84998e-10
1.12008e-08
4.28439e-10
1.08188e-08
3.82085e-10
1.04752e-08
3.43554e-10
1.01641e-08
3.11144e-10
9.88045e-09
2.83609e-10
9.62043e-09
2.60014e-10
9.38078e-09
2.3965e-10
9.15881e-09
2.2197e-10
8.95227e-09
2.06543e-10
8.75924e-09
1.93029e-10
8.57808e-09
1.81157e-10
8.40738e-09
1.70705e-10
8.24588e-09
1.61493e-10
8.09251e-09
1.53376e-10
7.94628e-09
1.46229e-10
7.80632e-09
1.39958e-10
7.67185e-09
1.34473e-10
7.54213e-09
1.29716e-10
7.41652e-09
1.25615e-10
7.29436e-09
1.22155e-10
7.17512e-09
1.19243e-10
7.05818e-09
1.1694e-10
6.94311e-09
1.15069e-10
6.82927e-09
1.13845e-10
6.71639e-09
1.12879e-10
6.60371e-09
1.12682e-10
6.49125e-09
1.12459e-10
6.37805e-09
1.13192e-10
6.26451e-09
1.13545e-10
6.14972e-09
1.14792e-10
6.03397e-09
1.15748e-10
5.91803e-09
1.1594e-10
5.79949e-09
1.18538e-10
5.68719e-09
1.12307e-10
5.56469e-09
1.22496e-10
5.48336e-09
8.1325e-11
5.26609e-09
2.17272e-10
-2.38567e-09
7.65176e-09
1.26022e-07
1.27463e-07
9.12483e-08
6.74201e-08
7.191e-08
2.82363e-08
6.11617e-08
1.42506e-08
5.46912e-08
8.4311e-09
5.01706e-08
5.95781e-09
4.66578e-08
4.65603e-09
4.3812e-08
3.77025e-09
4.14545e-08
3.12053e-09
3.94613e-08
2.63811e-09
3.77453e-08
2.27121e-09
3.62469e-08
1.98344e-09
3.49234e-08
1.75193e-09
3.37433e-08
1.56217e-09
3.26825e-08
1.40437e-09
3.17221e-08
1.27155e-09
3.0847e-08
1.15863e-09
3.00452e-08
1.0618e-09
2.93067e-08
9.78151e-10
2.86233e-08
9.05453e-10
2.79879e-08
8.41952e-10
2.73946e-08
7.86257e-10
2.68385e-08
7.37252e-10
2.63152e-08
6.94034e-10
2.58208e-08
6.55866e-10
2.53521e-08
6.22146e-10
2.49059e-08
5.92376e-10
2.44797e-08
5.66152e-10
2.40711e-08
5.43129e-10
2.36777e-08
5.23045e-10
2.32977e-08
5.05648e-10
2.2929e-08
4.9081e-10
2.257e-08
4.78283e-10
2.22188e-08
4.68131e-10
2.18739e-08
4.59948e-10
2.15336e-08
4.5419e-10
2.11965e-08
4.4992e-10
2.08608e-08
4.48472e-10
2.05256e-08
4.47591e-10
2.01883e-08
4.50494e-10
1.98497e-08
4.52156e-10
1.95052e-08
4.59269e-10
1.91589e-08
4.62097e-10
1.88029e-08
4.71881e-10
1.84471e-08
4.74384e-10
1.80808e-08
4.78564e-10
1.77151e-08
4.88198e-10
1.73846e-08
4.11886e-10
1.69264e-08
6.75459e-10
-2.712e-09
1.72527e-08
1.58804e-07
1.35063e-07
1.3648e-07
8.97446e-08
1.17457e-07
4.72594e-08
1.03249e-07
2.84582e-08
9.32067e-08
1.84735e-08
8.58644e-08
1.33001e-08
8.01144e-08
1.04061e-08
7.54165e-08
8.46817e-09
7.14896e-08
7.04737e-09
6.81479e-08
5.97988e-09
6.52586e-08
5.16044e-09
6.27276e-08
4.51443e-09
6.04866e-08
3.993e-09
5.84844e-08
3.56438e-09
5.66817e-08
3.20701e-09
5.50478e-08
2.90553e-09
5.35577e-08
2.64865e-09
5.21916e-08
2.42793e-09
5.09329e-08
2.23691e-09
4.97677e-08
2.07059e-09
4.86846e-08
1.92506e-09
4.76737e-08
1.79717e-09
4.67265e-08
1.68444e-09
4.58357e-08
1.5848e-09
4.4995e-08
1.49661e-09
4.41986e-08
1.4185e-09
4.34417e-08
1.34933e-09
4.27197e-08
1.28818e-09
4.20285e-08
1.23429e-09
4.13645e-08
1.18702e-09
4.07243e-08
1.14586e-09
4.01047e-08
1.11043e-09
3.95027e-08
1.0803e-09
3.89154e-08
1.05543e-09
3.83401e-08
1.03521e-09
3.7774e-08
1.02025e-09
3.72149e-08
1.00909e-09
3.66594e-08
1.00395e-09
3.61061e-08
1.00084e-09
3.55506e-08
1.00603e-09
3.49937e-08
1.00906e-09
3.44273e-08
1.0257e-09
3.38586e-08
1.03076e-09
3.32707e-08
1.05983e-09
3.26857e-08
1.05932e-09
3.20701e-08
1.09422e-09
3.1467e-08
1.09124e-09
3.08657e-08
1.01319e-09
3.0237e-08
1.30416e-09
-2.00964e-09
2.95347e-08
1.75662e-07
1.30916e-07
1.65584e-07
9.9823e-08
1.52692e-07
6.01508e-08
1.40062e-07
4.10888e-08
1.29332e-07
2.92037e-08
1.2064e-07
2.19917e-08
1.13473e-07
1.75726e-08
1.07434e-07
1.4508e-08
1.02271e-07
1.221e-08
9.78048e-08
1.04461e-08
9.38963e-08
9.06889e-09
9.04408e-08
7.96989e-09
8.7359e-08
7.07481e-09
8.45897e-08
6.33376e-09
8.20845e-08
5.71214e-09
7.9805e-08
5.18502e-09
7.77198e-08
4.73387e-09
7.5803e-08
4.34469e-09
7.40333e-08
4.00668e-09
7.23924e-08
3.71143e-09
7.08652e-08
3.45228e-09
6.94385e-08
3.2239e-09
6.81009e-08
3.02201e-09
6.68426e-08
2.84307e-09
6.5655e-08
2.68423e-09
6.45304e-08
2.5431e-09
6.3462e-08
2.41772e-09
6.24438e-08
2.30645e-09
6.14701e-08
2.20798e-09
6.05359e-08
2.12117e-09
5.96367e-08
2.04513e-09
5.87679e-08
1.97915e-09
5.79257e-08
1.92257e-09
5.7106e-08
1.87515e-09
5.63051e-08
1.83609e-09
5.55193e-08
1.80607e-09
5.47452e-08
1.78316e-09
5.39787e-08
1.77045e-09
5.32174e-08
1.76213e-09
5.24555e-08
1.76792e-09
5.16935e-08
1.77109e-09
5.09208e-08
1.79836e-09
5.01458e-08
1.80578e-09
4.93465e-08
1.85916e-09
4.85493e-08
1.85646e-09
4.77116e-08
1.93195e-09
4.68855e-08
1.91733e-09
4.60402e-08
1.85855e-09
4.52277e-08
2.11664e-09
-8.59871e-10
4.40779e-08
1.84559e-07
1.23143e-07
1.82313e-07
1.02068e-07
1.76079e-07
6.63849e-08
1.67709e-07
4.94592e-08
1.59047e-07
3.7866e-08
1.51088e-07
2.99508e-08
1.43956e-07
2.47043e-08
1.3759e-07
2.08738e-08
1.31918e-07
1.78819e-08
1.26858e-07
1.55062e-08
1.22326e-07
1.36013e-08
1.18246e-07
1.20499e-08
1.14554e-07
1.07661e-08
1.11199e-07
9.68941e-09
1.08134e-07
8.77661e-09
1.05324e-07
7.99555e-09
1.02736e-07
7.32189e-09
1.00344e-07
6.73685e-09
9.81246e-08
6.22572e-09
9.60591e-08
5.77689e-09
9.41303e-08
5.38106e-09
9.23235e-08
5.0307e-09
9.06259e-08
4.71968e-09
8.9026e-08
4.44296e-09
8.75138e-08
4.19637e-09
8.60805e-08
3.97643e-09
8.47179e-08
3.78028e-09
8.34189e-08
3.60548e-09
8.21768e-08
3.45008e-09
8.09856e-08
3.31238e-09
7.98397e-08
3.19107e-09
7.87338e-08
3.08503e-09
7.7663e-08
2.99335e-09
7.66226e-08
2.91554e-09
7.56081e-08
2.8506e-09
7.46149e-08
2.79923e-09
7.3639e-08
2.75907e-09
7.26755e-08
2.73403e-09
7.1721e-08
2.71657e-09
7.07692e-08
2.71977e-09
6.98194e-08
2.72086e-09
6.88605e-08
2.75723e-09
6.78994e-08
2.76691e-09
6.69141e-08
2.84442e-09
6.59273e-08
2.84328e-09
6.49011e-08
2.95814e-09
6.38754e-08
2.94305e-09
6.28297e-08
2.90421e-09
6.1817e-08
3.12937e-09
5.20711e-10
6.04364e-08
1.90387e-07
1.14972e-07
1.91846e-07
1.0061e-07
1.90227e-07
6.80039e-08
1.86115e-07
5.35707e-08
1.80644e-07
4.33375e-08
1.74845e-07
3.57501e-08
1.69092e-07
3.04572e-08
1.63542e-07
2.64238e-08
1.58293e-07
2.31309e-08
1.53389e-07
2.04103e-08
1.48835e-07
1.81555e-08
1.44615e-07
1.62691e-08
1.40708e-07
1.4673e-08
1.37088e-07
1.33094e-08
1.3373e-07
1.21351e-08
1.30609e-07
1.11169e-08
1.27702e-07
1.02285e-08
1.2499e-07
9.4493e-09
1.22453e-07
8.76256e-09
1.20075e-07
8.15483e-09
1.17841e-07
7.61513e-09
1.15737e-07
7.13443e-09
1.13751e-07
6.70525e-09
1.11873e-07
6.32135e-09
1.10092e-07
5.97753e-09
1.08399e-07
5.6694e-09
1.06786e-07
5.39328e-09
1.05245e-07
5.14606e-09
1.0377e-07
4.92519e-09
1.02354e-07
4.72844e-09
1.00991e-07
4.55412e-09
9.96754e-08
4.40071e-09
9.84017e-08
4.26706e-09
9.71648e-08
4.15241e-09
9.59597e-08
4.05564e-09
9.47816e-08
3.97739e-09
9.36257e-08
3.915e-09
9.24867e-08
3.87298e-09
9.13608e-08
3.84248e-09
9.02413e-08
3.83931e-09
8.91263e-08
3.83582e-09
8.80055e-08
3.87801e-09
8.68825e-08
3.88996e-09
8.57394e-08
3.98744e-09
8.45894e-08
3.99335e-09
8.34088e-08
4.13872e-09
8.22132e-08
4.13864e-09
8.10082e-08
4.10921e-09
7.98151e-08
4.32251e-09
2.07589e-09
7.82599e-08
1.95539e-07
1.07247e-07
1.98242e-07
9.79068e-08
1.98955e-07
6.72909e-08
1.97759e-07
5.47666e-08
1.95102e-07
4.59945e-08
1.91724e-07
3.91281e-08
1.87944e-07
3.42371e-08
1.83934e-07
3.04337e-08
1.79845e-07
2.72205e-08
1.75787e-07
2.44678e-08
1.71832e-07
2.2111e-08
1.68019e-07
2.0082e-08
1.6437e-07
1.83215e-08
1.60896e-07
1.67838e-08
1.57597e-07
1.54337e-08
1.54471e-07
1.42431e-08
1.51511e-07
1.31889e-08
1.48708e-07
1.22521e-08
1.46054e-07
1.14169e-08
1.43538e-07
1.06701e-08
1.41153e-07
1.00008e-08
1.38887e-07
9.39973e-09
1.36734e-07
8.85899e-09
1.34683e-07
8.37195e-09
1.32728e-07
7.93295e-09
1.3086e-07
7.53715e-09
1.29073e-07
7.18046e-09
1.27359e-07
6.85933e-09
1.25714e-07
6.57087e-09
1.2413e-07
6.31249e-09
1.22602e-07
6.08223e-09
1.21124e-07
5.8783e-09
1.19692e-07
5.69941e-09
1.18299e-07
5.54458e-09
1.16942e-07
5.41265e-09
1.15616e-07
5.30418e-09
1.14314e-07
5.21638e-09
1.13033e-07
5.15419e-09
1.11768e-07
5.1079e-09
1.10512e-07
5.09519e-09
1.09262e-07
5.08534e-09
1.08011e-07
5.1297e-09
1.06756e-07
5.14436e-09
1.05488e-07
5.25604e-09
1.04206e-07
5.27463e-09
1.02906e-07
5.43946e-09
1.01577e-07
5.46751e-09
1.00247e-07
5.43932e-09
9.89142e-08
5.6549e-09
3.76874e-09
9.72213e-08
2.00847e-07
9.99856e-08
2.0377e-07
9.49831e-08
2.05314e-07
6.57467e-08
2.05618e-07
5.44628e-08
2.04773e-07
4.68398e-08
2.03264e-07
4.06369e-08
2.01278e-07
3.62227e-08
1.98899e-07
3.28127e-08
1.96233e-07
2.98873e-08
1.93382e-07
2.73189e-08
1.90428e-07
2.50646e-08
1.87434e-07
2.30762e-08
1.84445e-07
2.13103e-08
1.81495e-07
1.97338e-08
1.78607e-07
1.83216e-08
1.75797e-07
1.70531e-08
1.73075e-07
1.59111e-08
1.70446e-07
1.4881e-08
1.67913e-07
1.39501e-08
1.65475e-07
1.31076e-08
1.63132e-07
1.23441e-08
1.6088e-07
1.16515e-08
1.58717e-07
1.10227e-08
1.56637e-07
1.04515e-08
1.54637e-07
9.93273e-09
1.52713e-07
9.46163e-09
1.50859e-07
9.03425e-09
1.49071e-07
8.64706e-09
1.47345e-07
8.29715e-09
1.45675e-07
7.98188e-09
1.44058e-07
7.6993e-09
1.42489e-07
7.44749e-09
1.40963e-07
7.22522e-09
1.39477e-07
7.03141e-09
1.38024e-07
6.86497e-09
1.36602e-07
6.72648e-09
1.35205e-07
6.61317e-09
1.33829e-07
6.53023e-09
1.32469e-07
6.46767e-09
1.3112e-07
6.44413e-09
1.29778e-07
6.42764e-09
1.28436e-07
6.47169e-09
1.2709e-07
6.49018e-09
1.25735e-07
6.61106e-09
1.24363e-07
6.64699e-09
1.2298e-07
6.82247e-09
1.21561e-07
6.88626e-09
1.20142e-07
6.85887e-09
1.18715e-07
7.08155e-09
5.54878e-09
1.16935e-07
2.06445e-07
9.30723e-08
2.09334e-07
9.20948e-08
2.11024e-07
6.40564e-08
2.11908e-07
5.35794e-08
2.11961e-07
4.6786e-08
2.11554e-07
4.10447e-08
2.10795e-07
3.69817e-08
2.09686e-07
3.39216e-08
2.08263e-07
3.13096e-08
2.06586e-07
2.89967e-08
2.04709e-07
2.69415e-08
2.02682e-07
2.51025e-08
2.00551e-07
2.34422e-08
1.9835e-07
2.19343e-08
1.96112e-07
2.056e-08
1.9386e-07
1.93048e-08
1.91614e-07
1.81567e-08
1.8939e-07
1.71057e-08
1.87197e-07
1.61426e-08
1.85045e-07
1.52598e-08
1.82939e-07
1.44501e-08
1.80883e-07
1.37075e-08
1.78879e-07
1.30265e-08
1.76928e-07
1.24022e-08
1.75031e-07
1.18302e-08
1.73186e-07
1.13067e-08
1.71392e-07
1.08282e-08
1.69647e-07
1.03918e-08
1.67949e-07
9.9948e-09
1.66296e-07
9.63495e-09
1.64685e-07
9.31053e-09
1.63113e-07
9.01978e-09
1.61576e-07
8.76169e-09
1.60073e-07
8.53529e-09
1.58598e-07
8.33972e-09
1.57149e-07
8.17562e-09
1.55721e-07
8.04048e-09
1.54312e-07
7.93965e-09
1.52916e-07
7.86332e-09
1.5153e-07
7.83033e-09
1.50149e-07
7.80908e-09
1.48768e-07
7.8525e-09
1.47381e-07
7.87703e-09
1.45988e-07
8.00434e-09
1.44573e-07
8.06128e-09
1.43153e-07
8.24255e-09
1.41694e-07
8.34508e-09
1.40229e-07
8.32436e-09
1.38755e-07
8.55524e-09
7.35812e-09
1.36946e-07
2.12287e-07
8.64473e-08
2.15146e-07
8.92358e-08
2.16778e-07
6.24247e-08
2.1782e-07
5.25377e-08
2.18221e-07
4.63847e-08
2.18318e-07
4.0947e-08
2.18218e-07
3.70817e-08
2.17888e-07
3.42521e-08
2.17318e-07
3.18792e-08
2.16527e-07
2.97877e-08
2.15538e-07
2.79303e-08
2.14377e-07
2.62637e-08
2.1307e-07
2.47497e-08
2.11642e-07
2.33619e-08
2.10119e-07
2.20832e-08
2.08522e-07
2.09014e-08
2.06872e-07
1.98071e-08
2.05185e-07
1.8793e-08
2.03475e-07
1.78526e-08
2.01754e-07
1.69804e-08
2.00032e-07
1.61718e-08
1.98318e-07
1.54222e-08
1.96616e-07
1.47281e-08
1.94933e-07
1.40858e-08
1.93271e-07
1.34922e-08
1.91633e-07
1.29445e-08
1.90021e-07
1.24402e-08
1.88436e-07
1.1977e-08
1.86877e-07
1.1553e-08
1.85346e-07
1.11664e-08
1.8384e-07
1.08159e-08
1.8236e-07
1.05002e-08
1.80903e-07
1.02187e-08
1.79468e-07
9.97061e-09
1.78052e-07
9.75546e-09
1.76653e-07
9.57414e-09
1.75269e-07
9.42446e-09
1.73897e-07
9.31196e-09
1.72533e-07
9.22728e-09
1.71174e-07
9.18912e-09
1.69816e-07
9.16721e-09
1.68457e-07
9.2122e-09
1.67087e-07
9.24624e-09
1.65712e-07
9.37984e-09
1.64312e-07
9.46101e-09
1.62908e-07
9.64704e-09
1.61464e-07
9.7887e-09
1.60004e-07
9.78414e-09
1.58535e-07
1.00242e-08
9.13644e-09
1.56757e-07
2.18328e-07
8.00996e-08
2.212e-07
8.63645e-08
2.2275e-07
6.08744e-08
2.23818e-07
5.14697e-08
2.24329e-07
4.5874e-08
2.24605e-07
4.06707e-08
2.24783e-07
3.69035e-08
2.24835e-07
3.42006e-08
2.24737e-07
3.19775e-08
2.24488e-07
3.00367e-08
2.24092e-07
2.83261e-08
2.23555e-07
2.68006e-08
2.22886e-07
2.54187e-08
2.22097e-07
2.41514e-08
2.212e-07
2.29801e-08
2.20209e-07
2.18921e-08
2.19138e-07
2.08782e-08
2.17999e-07
1.99314e-08
2.16806e-07
1.90464e-08
2.15567e-07
1.82187e-08
2.14294e-07
1.74447e-08
2.12995e-07
1.67213e-08
2.11678e-07
1.60458e-08
2.10348e-07
1.54159e-08
2.0901e-07
1.48293e-08
2.07671e-07
1.42842e-08
2.06332e-07
1.37789e-08
2.04997e-07
1.33119e-08
2.03668e-07
1.2882e-08
2.02347e-07
1.2488e-08
2.01033e-07
1.21292e-08
1.99729e-07
1.18048e-08
1.98433e-07
1.15144e-08
1.97146e-07
1.1258e-08
1.95866e-07
1.10353e-08
1.94592e-07
1.08476e-08
1.93324e-07
1.0693e-08
1.92059e-07
1.05773e-08
1.90794e-07
1.04919e-08
1.89528e-07
1.04549e-08
1.88257e-07
1.04382e-08
1.8698e-07
1.04889e-08
1.8569e-07
1.0537e-08
1.84391e-07
1.06789e-08
1.83064e-07
1.07873e-08
1.81731e-07
1.09801e-08
1.8036e-07
1.116e-08
1.78962e-07
1.11824e-08
1.77552e-07
1.1434e-08
1.08239e-08
1.75864e-07
2.24557e-07
7.40357e-08
2.27464e-07
8.34577e-08
2.28947e-07
5.93917e-08
2.30019e-07
5.03968e-08
2.30571e-07
4.53225e-08
2.30896e-07
4.0346e-08
2.31164e-07
3.66355e-08
2.31364e-07
3.39998e-08
2.31477e-07
3.18646e-08
2.31499e-07
3.00145e-08
2.3143e-07
2.83959e-08
2.31266e-07
2.69646e-08
2.31007e-07
2.56777e-08
2.30654e-07
2.45038e-08
2.30212e-07
2.34221e-08
2.29686e-07
2.24184e-08
2.29082e-07
2.14826e-08
2.28406e-07
2.06071e-08
2.27666e-07
1.97861e-08
2.2687e-07
1.90153e-08
2.26023e-07
1.82912e-08
2.25133e-07
1.76111e-08
2.24207e-07
1.69726e-08
2.23249e-07
1.6374e-08
2.22264e-07
1.58137e-08
2.21258e-07
1.52903e-08
2.20234e-07
1.48027e-08
2.19196e-07
1.43501e-08
2.18146e-07
1.39317e-08
2.17087e-07
1.35469e-08
2.16021e-07
1.31955e-08
2.14949e-07
1.2877e-08
2.13871e-07
1.25918e-08
2.1279e-07
1.23398e-08
2.11703e-07
1.21214e-08
2.10613e-07
1.19382e-08
2.09517e-07
1.17887e-08
2.08416e-07
1.16789e-08
2.07307e-07
1.16008e-08
2.06189e-07
1.15721e-08
2.05061e-07
1.1567e-08
2.03921e-07
1.16285e-08
2.02763e-07
1.16954e-08
2.01593e-07
1.18488e-08
2.00393e-07
1.1987e-08
1.99183e-07
1.21903e-08
1.97936e-07
1.24069e-08
1.96652e-07
1.24664e-08
1.95353e-07
1.27329e-08
1.23662e-08
1.93811e-07
2.30978e-07
6.82638e-08
2.33928e-07
8.05073e-08
2.35351e-07
5.79684e-08
2.3643e-07
4.9318e-08
2.37015e-07
4.4738e-08
2.37354e-07
4.00067e-08
2.37643e-07
3.63465e-08
2.3789e-07
3.37533e-08
2.38078e-07
3.16758e-08
2.38211e-07
2.98819e-08
2.38289e-07
2.83179e-08
2.3831e-07
2.69436e-08
2.38271e-07
2.57165e-08
2.3817e-07
2.46044e-08
2.38007e-07
2.35852e-08
2.37782e-07
2.26437e-08
2.37496e-07
2.17688e-08
2.37151e-07
2.09521e-08
2.3675e-07
2.01871e-08
2.36296e-07
1.94691e-08
2.35793e-07
1.87942e-08
2.35244e-07
1.81595e-08
2.34654e-07
1.75627e-08
2.34026e-07
1.70019e-08
2.33364e-07
1.64758e-08
2.32671e-07
1.59831e-08
2.31951e-07
1.55231e-08
2.31206e-07
1.50952e-08
2.30439e-07
1.46989e-08
2.29652e-07
1.4334e-08
2.28847e-07
1.40005e-08
2.28025e-07
1.36985e-08
2.27189e-07
1.34284e-08
2.26338e-07
1.31907e-08
2.25473e-07
1.29858e-08
2.24596e-07
1.28159e-08
2.23705e-07
1.26796e-08
2.228e-07
1.25833e-08
2.21882e-07
1.25195e-08
2.20949e-07
1.25051e-08
2.19998e-07
1.25172e-08
2.19033e-07
1.25938e-08
2.18045e-07
1.26835e-08
2.17042e-07
1.28516e-08
2.16008e-07
1.3021e-08
2.14959e-07
1.3239e-08
2.13876e-07
1.349e-08
2.12748e-07
1.35946e-08
2.11601e-07
1.38799e-08
1.37219e-08
2.10245e-07
2.37599e-07
6.27896e-08
2.40596e-07
7.75107e-08
2.41962e-07
5.66025e-08
2.43045e-07
4.82348e-08
2.43666e-07
4.41169e-08
2.44018e-07
3.96545e-08
2.44312e-07
3.6053e-08
2.4457e-07
3.34952e-08
2.44781e-07
3.14649e-08
2.44949e-07
2.97132e-08
2.45082e-07
2.81855e-08
2.45179e-07
2.68468e-08
2.45238e-07
2.56567e-08
2.4526e-07
2.45831e-08
2.45241e-07
2.36038e-08
2.45182e-07
2.27033e-08
2.4508e-07
2.187e-08
2.44938e-07
2.1095e-08
2.44753e-07
2.03715e-08
2.44528e-07
1.96943e-08
2.44263e-07
1.90592e-08
2.4396e-07
1.84628e-08
2.4362e-07
1.79027e-08
2.43245e-07
1.73768e-08
2.42837e-07
1.68837e-08
2.42398e-07
1.6422e-08
2.4193e-07
1.59911e-08
2.41435e-07
1.55904e-08
2.40914e-07
1.52197e-08
2.40369e-07
1.48787e-08
2.39802e-07
1.45677e-08
2.39214e-07
1.4287e-08
2.38605e-07
1.40372e-08
2.37976e-07
1.3819e-08
2.37329e-07
1.3633e-08
2.36664e-07
1.34815e-08
2.3598e-07
1.33634e-08
2.35278e-07
1.32852e-08
2.34557e-07
1.32401e-08
2.33819e-07
1.32439e-08
2.33059e-07
1.32766e-08
2.32282e-07
1.33713e-08
2.31479e-07
1.34859e-08
2.3066e-07
1.36708e-08
2.2981e-07
1.38711e-08
2.28942e-07
1.41073e-08
2.28042e-07
1.43895e-08
2.27093e-07
1.45437e-08
2.26122e-07
1.48515e-08
1.48683e-08
2.24975e-07
2.44429e-07
5.76168e-08
2.47465e-07
7.44745e-08
2.48782e-07
5.52858e-08
2.49865e-07
4.71516e-08
2.50524e-07
4.34576e-08
2.50893e-07
3.9286e-08
2.5119e-07
3.57558e-08
2.51453e-07
3.32327e-08
2.5167e-07
3.12474e-08
2.51849e-07
2.95346e-08
2.51997e-07
2.80371e-08
2.52119e-07
2.67249e-08
2.52215e-07
2.55606e-08
2.52285e-07
2.45127e-08
2.5233e-07
2.35595e-08
2.52347e-07
2.26856e-08
2.52338e-07
2.18794e-08
2.52301e-07
2.11322e-08
2.52235e-07
2.04369e-08
2.52142e-07
1.97881e-08
2.52019e-07
1.91814e-08
2.51869e-07
1.86135e-08
2.5169e-07
1.80814e-08
2.51484e-07
1.7583e-08
2.51251e-07
1.71167e-08
2.50991e-07
1.66812e-08
2.50707e-07
1.62756e-08
2.50398e-07
1.58994e-08
2.50065e-07
1.55523e-08
2.4971e-07
1.52341e-08
2.49332e-07
1.49453e-08
2.48933e-07
1.4686e-08
2.48513e-07
1.44571e-08
2.48073e-07
1.42593e-08
2.47613e-07
1.40934e-08
2.47133e-07
1.39617e-08
2.46633e-07
1.38634e-08
2.46113e-07
1.38047e-08
2.45573e-07
1.37797e-08
2.45014e-07
1.38029e-08
2.44434e-07
1.38572e-08
2.43834e-07
1.39706e-08
2.4321e-07
1.41101e-08
2.42569e-07
1.43125e-08
2.41898e-07
1.45415e-08
2.41208e-07
1.47975e-08
2.4049e-07
1.51072e-08
2.39722e-07
1.53119e-08
2.38929e-07
1.56446e-08
1.58044e-08
2.37993e-07
2.51476e-07
5.27473e-08
2.54542e-07
7.14082e-08
2.5582e-07
5.4008e-08
2.56898e-07
4.6074e-08
2.57594e-07
4.27611e-08
2.57982e-07
3.8898e-08
2.58284e-07
3.54537e-08
2.58551e-07
3.2966e-08
2.58773e-07
3.10259e-08
2.58954e-07
2.93529e-08
2.59107e-07
2.78847e-08
2.59235e-07
2.65965e-08
2.59342e-07
2.5454e-08
2.59428e-07
2.44266e-08
2.59494e-07
2.3493e-08
2.59542e-07
2.26381e-08
2.5957e-07
2.18509e-08
2.5958e-07
2.11227e-08
2.5957e-07
2.04466e-08
2.59541e-07
1.98172e-08
2.59492e-07
1.92302e-08
2.59424e-07
1.8682e-08
2.59335e-07
1.81699e-08
2.59227e-07
1.76915e-08
2.59098e-07
1.72451e-08
2.5895e-07
1.68293e-08
2.58783e-07
1.64434e-08
2.58595e-07
1.60865e-08
2.58389e-07
1.57586e-08
2.58164e-07
1.54595e-08
2.5792e-07
1.51894e-08
2.57657e-07
1.49489e-08
2.57375e-07
1.47384e-08
2.57075e-07
1.45592e-08
2.56757e-07
1.44116e-08
2.5642e-07
1.42985e-08
2.56065e-07
1.42186e-08
2.55692e-07
1.41784e-08
2.55299e-07
1.41725e-08
2.54888e-07
1.4214e-08
2.54456e-07
1.42888e-08
2.54007e-07
1.44197e-08
2.53535e-07
1.45819e-08
2.53047e-07
1.48009e-08
2.52533e-07
1.50548e-08
2.52e-07
1.53308e-08
2.51444e-07
1.56635e-08
2.50839e-07
1.59165e-08
2.50209e-07
1.62751e-08
1.65493e-08
2.49464e-07
2.58749e-07
4.81811e-08
2.61836e-07
6.83219e-08
2.63085e-07
5.27584e-08
2.64152e-07
4.50072e-08
2.64883e-07
4.20301e-08
2.65292e-07
3.84887e-08
2.656e-07
3.51456e-08
2.65872e-07
3.26947e-08
2.66097e-07
3.08002e-08
2.66282e-07
2.91687e-08
2.66435e-07
2.7731e-08
2.66565e-07
2.64668e-08
2.66674e-07
2.53454e-08
2.66763e-07
2.4337e-08
2.66836e-07
2.34207e-08
2.66892e-07
2.2582e-08
2.66933e-07
2.18101e-08
2.66959e-07
2.10966e-08
2.6697e-07
2.04349e-08
2.66968e-07
1.98198e-08
2.66951e-07
1.9247e-08
2.6692e-07
1.87131e-08
2.66875e-07
1.82152e-08
2.66815e-07
1.77512e-08
2.66741e-07
1.73192e-08
2.66652e-07
1.69179e-08
2.66549e-07
1.65464e-08
2.66432e-07
1.62041e-08
2.663e-07
1.58908e-08
2.66153e-07
1.56064e-08
2.65991e-07
1.53511e-08
2.65814e-07
1.51255e-08
2.65623e-07
1.49301e-08
2.65416e-07
1.47662e-08
2.65193e-07
1.46341e-08
2.64955e-07
1.45366e-08
2.64701e-07
1.44727e-08
2.64431e-07
1.44484e-08
2.64144e-07
1.44592e-08
2.63842e-07
1.45165e-08
2.63521e-07
1.46092e-08
2.63186e-07
1.47553e-08
2.6283e-07
1.49372e-08
2.62461e-07
1.51707e-08
2.6207e-07
1.54451e-08
2.61661e-07
1.57398e-08
2.61234e-07
1.60912e-08
2.60762e-07
1.63879e-08
2.60265e-07
1.67724e-08
1.71362e-08
2.59678e-07
2.66257e-07
4.39165e-08
2.69353e-07
6.5226e-08
2.70584e-07
5.15265e-08
2.71636e-07
4.39554e-08
2.72399e-07
4.12678e-08
2.72831e-07
3.80563e-08
2.73146e-07
3.48308e-08
2.73422e-07
3.24188e-08
2.73652e-07
3.05698e-08
2.73839e-07
2.89816e-08
2.73994e-07
2.7576e-08
2.74124e-07
2.63367e-08
2.74233e-07
2.52366e-08
2.74323e-07
2.42473e-08
2.74395e-07
2.33481e-08
2.74453e-07
2.25248e-08
2.74496e-07
2.1767e-08
2.74526e-07
2.10667e-08
2.74543e-07
2.04175e-08
2.74548e-07
1.98143e-08
2.74542e-07
1.92531e-08
2.74525e-07
1.87305e-08
2.74496e-07
1.82438e-08
2.74457e-07
1.77908e-08
2.74406e-07
1.73698e-08
2.74344e-07
1.69794e-08
2.74272e-07
1.66189e-08
2.74188e-07
1.62876e-08
2.74094e-07
1.59854e-08
2.73988e-07
1.57123e-08
2.7387e-07
1.54685e-08
2.73741e-07
1.52546e-08
2.736e-07
1.50711e-08
2.73447e-07
1.49194e-08
2.73281e-07
1.47998e-08
2.73103e-07
1.4715e-08
2.72912e-07
1.46643e-08
2.72707e-07
1.46531e-08
2.72488e-07
1.46779e-08
2.72256e-07
1.47483e-08
2.7201e-07
1.48559e-08
2.7175e-07
1.50147e-08
2.71475e-07
1.52126e-08
2.71187e-07
1.54585e-08
2.70883e-07
1.57491e-08
2.70562e-07
1.60606e-08
2.70227e-07
1.6427e-08
2.69853e-07
1.67619e-08
2.69454e-07
1.71712e-08
1.76043e-08
2.68986e-07
2.74008e-07
3.99501e-08
2.77102e-07
6.21316e-08
2.78326e-07
5.03023e-08
2.79359e-07
4.29223e-08
2.80149e-07
4.04784e-08
2.80606e-07
3.75993e-08
2.80928e-07
3.45082e-08
2.81209e-07
3.21385e-08
2.81444e-07
3.03346e-08
2.81634e-07
2.87912e-08
2.81791e-07
2.74195e-08
2.81921e-07
2.62061e-08
2.8203e-07
2.5128e-08
2.82119e-07
2.41583e-08
2.82191e-07
2.32764e-08
2.82247e-07
2.24686e-08
2.82289e-07
2.17249e-08
2.82318e-07
2.10375e-08
2.82335e-07
2.04003e-08
2.82341e-07
1.98083e-08
2.82337e-07
1.92577e-08
2.82322e-07
1.87453e-08
2.82297e-07
1.82683e-08
2.82263e-07
1.78248e-08
2.8222e-07
1.7413e-08
2.82168e-07
1.70318e-08
2.82107e-07
1.66802e-08
2.82036e-07
1.63579e-08
2.81957e-07
1.60647e-08
2.81869e-07
1.58006e-08
2.81771e-07
1.5566e-08
2.81664e-07
1.53616e-08
2.81548e-07
1.51877e-08
2.81421e-07
1.5046e-08
2.81284e-07
1.49366e-08
2.81137e-07
1.48623e-08
2.80979e-07
1.48224e-08
2.8081e-07
1.48221e-08
2.80629e-07
1.48584e-08
2.80438e-07
1.49396e-08
2.80234e-07
1.50597e-08
2.8002e-07
1.52288e-08
2.79793e-07
1.54397e-08
2.79555e-07
1.56962e-08
2.79305e-07
1.59993e-08
2.7904e-07
1.63258e-08
2.78763e-07
1.67043e-08
2.78452e-07
1.70721e-08
2.78119e-07
1.75049e-08
1.79914e-08
2.77732e-07
2.82011e-07
3.62765e-08
2.85092e-07
5.90502e-08
2.86319e-07
4.90761e-08
2.8733e-07
4.19106e-08
2.88142e-07
3.96665e-08
2.88625e-07
3.71164e-08
2.88957e-07
3.41768e-08
2.89241e-07
3.18539e-08
2.89481e-07
3.00945e-08
2.89675e-07
2.85973e-08
2.89834e-07
2.72612e-08
2.89965e-07
2.60748e-08
2.90073e-07
2.50195e-08
2.90162e-07
2.40699e-08
2.90232e-07
2.32059e-08
2.90287e-07
2.2414e-08
2.90327e-07
2.16847e-08
2.90354e-07
2.10103e-08
2.90369e-07
2.03851e-08
2.90373e-07
1.98043e-08
2.90367e-07
1.92641e-08
2.90351e-07
1.87615e-08
2.90325e-07
1.82939e-08
2.90291e-07
1.78593e-08
2.90248e-07
1.74561e-08
2.90196e-07
1.70832e-08
2.90137e-07
1.67398e-08
2.90069e-07
1.64254e-08
2.89994e-07
1.61401e-08
2.8991e-07
1.5884e-08
2.89819e-07
1.56574e-08
2.89719e-07
1.54611e-08
2.89612e-07
1.52956e-08
2.89495e-07
1.51624e-08
2.8937e-07
1.50618e-08
2.89236e-07
1.49964e-08
2.89092e-07
1.4966e-08
2.88939e-07
1.49749e-08
2.88777e-07
1.50211e-08
2.88605e-07
1.51116e-08
2.88422e-07
1.52421e-08
2.88231e-07
1.54202e-08
2.88029e-07
1.56418e-08
2.87818e-07
1.59074e-08
2.87596e-07
1.62206e-08
2.87362e-07
1.65604e-08
2.87116e-07
1.69496e-08
2.86843e-07
1.73455e-08
2.86547e-07
1.78007e-08
1.83287e-08
2.8621e-07
2.90277e-07
3.28887e-08
2.93333e-07
5.59935e-08
2.9457e-07
4.78391e-08
2.95559e-07
4.09221e-08
2.96388e-07
3.88375e-08
2.96898e-07
3.66067e-08
2.97239e-07
3.38351e-08
2.97528e-07
3.15649e-08
2.97773e-07
2.98496e-08
2.97971e-07
2.83995e-08
2.98131e-07
2.71009e-08
2.98263e-07
2.59427e-08
2.98372e-07
2.49109e-08
2.9846e-07
2.39821e-08
2.98529e-07
2.31365e-08
2.98582e-07
2.2361e-08
2.9862e-07
2.16464e-08
2.98645e-07
2.09854e-08
2.98658e-07
2.03724e-08
2.98659e-07
1.9803e-08
2.9865e-07
1.92734e-08
2.98631e-07
1.87807e-08
2.98602e-07
1.83224e-08
2.98565e-07
1.78967e-08
2.98519e-07
1.75019e-08
2.98465e-07
1.71371e-08
2.98404e-07
1.68015e-08
2.98334e-07
1.64948e-08
2.98258e-07
1.62169e-08
2.98173e-07
1.59683e-08
2.98082e-07
1.57492e-08
2.97982e-07
1.55605e-08
2.97875e-07
1.54027e-08
2.9776e-07
1.52773e-08
2.97637e-07
1.51848e-08
2.97506e-07
1.51276e-08
2.97366e-07
1.51057e-08
2.97218e-07
1.5123e-08
2.97061e-07
1.51782e-08
2.96895e-07
1.5277e-08
2.96721e-07
1.54168e-08
2.96538e-07
1.5603e-08
2.96346e-07
1.58337e-08
2.96146e-07
1.61079e-08
2.95937e-07
1.64295e-08
2.95715e-07
1.67817e-08
2.95484e-07
1.7181e-08
2.95228e-07
1.76011e-08
2.94951e-07
1.80778e-08
1.86389e-08
2.94641e-07
2.98814e-07
2.97778e-08
3.01833e-07
5.29736e-08
3.03089e-07
4.65833e-08
3.04054e-07
3.99578e-08
3.04894e-07
3.79968e-08
3.05431e-07
3.60698e-08
3.05785e-07
3.34816e-08
3.06078e-07
3.12716e-08
3.06328e-07
2.95998e-08
3.0653e-07
2.81975e-08
3.06692e-07
2.69384e-08
3.06825e-07
2.58096e-08
3.06934e-07
2.48021e-08
3.07021e-07
2.38947e-08
3.0709e-07
2.30681e-08
3.07141e-07
2.23095e-08
3.07178e-07
2.161e-08
3.072e-07
2.09628e-08
3.0721e-07
2.03624e-08
3.07209e-07
1.98045e-08
3.07196e-07
1.92857e-08
3.07174e-07
1.88031e-08
3.07142e-07
1.83543e-08
3.07101e-07
1.79375e-08
3.07052e-07
1.75513e-08
3.06995e-07
1.71945e-08
3.06929e-07
1.68668e-08
3.06856e-07
1.65676e-08
3.06776e-07
1.62973e-08
3.06688e-07
1.6056e-08
3.06593e-07
1.58442e-08
3.06491e-07
1.56629e-08
3.06381e-07
1.55126e-08
3.06263e-07
1.53948e-08
3.06138e-07
1.53101e-08
3.06005e-07
1.52608e-08
3.05864e-07
1.5247e-08
3.05714e-07
1.52723e-08
3.05557e-07
1.5336e-08
3.05391e-07
1.54427e-08
3.05217e-07
1.55911e-08
3.05034e-07
1.5785e-08
3.04844e-07
1.60241e-08
3.04645e-07
1.63065e-08
3.04439e-07
1.6636e-08
3.04221e-07
1.69998e-08
3.03993e-07
1.74092e-08
3.03743e-07
1.78508e-08
3.03473e-07
1.83482e-08
1.89364e-08
3.03175e-07
3.07632e-07
2.69333e-08
3.10603e-07
5.00025e-08
3.11884e-07
4.5302e-08
3.12824e-07
3.90175e-08
3.13671e-07
3.71497e-08
3.14235e-07
3.5506e-08
3.14602e-07
3.31149e-08
3.149e-07
3.09738e-08
3.15154e-07
2.93454e-08
3.15361e-07
2.79913e-08
3.15526e-07
2.67732e-08
3.1566e-07
2.56754e-08
3.15769e-07
2.46931e-08
3.15856e-07
2.38076e-08
3.15923e-07
2.30006e-08
3.15974e-07
2.22595e-08
3.16008e-07
2.15755e-08
3.16028e-07
2.09424e-08
3.16036e-07
2.03548e-08
3.16032e-07
1.98089e-08
3.16016e-07
1.93011e-08
3.1599e-07
1.88288e-08
3.15955e-07
1.83897e-08
3.15911e-07
1.7982e-08
3.15857e-07
1.76044e-08
3.15796e-07
1.7256e-08
3.15727e-07
1.69361e-08
3.1565e-07
1.66447e-08
3.15565e-07
1.63818e-08
3.15473e-07
1.61479e-08
3.15374e-07
1.59435e-08
3.15267e-07
1.57695e-08
3.15153e-07
1.56267e-08
3.15031e-07
1.55165e-08
3.14902e-07
1.54396e-08
3.14765e-07
1.5398e-08
3.14619e-07
1.53923e-08
3.14466e-07
1.54255e-08
3.14305e-07
1.54974e-08
3.14136e-07
1.56119e-08
3.13958e-07
1.57686e-08
3.13773e-07
1.59702e-08
3.1358e-07
1.62172e-08
3.13378e-07
1.65078e-08
3.13169e-07
1.6845e-08
3.12949e-07
1.72202e-08
3.12718e-07
1.76401e-08
3.12468e-07
1.8101e-08
3.12198e-07
1.86182e-08
1.92297e-08
3.11905e-07
3.16741e-07
2.43431e-08
3.19652e-07
4.70923e-08
3.20964e-07
4.399e-08
3.21881e-07
3.81003e-08
3.22729e-07
3.63014e-08
3.23319e-07
3.49164e-08
3.237e-07
3.27334e-08
3.24003e-07
3.0671e-08
3.24262e-07
2.90865e-08
3.24473e-07
2.77804e-08
3.24641e-07
2.66051e-08
3.24776e-07
2.55399e-08
3.24886e-07
2.45835e-08
3.24973e-07
2.37208e-08
3.2504e-07
2.2934e-08
3.25088e-07
2.22107e-08
3.25121e-07
2.15428e-08
3.25139e-07
2.09241e-08
3.25144e-07
2.03499e-08
3.25137e-07
1.98161e-08
3.25119e-07
1.93196e-08
3.25089e-07
1.88578e-08
3.25051e-07
1.84286e-08
3.25002e-07
1.80303e-08
3.24945e-07
1.76615e-08
3.2488e-07
1.73215e-08
3.24806e-07
1.70096e-08
3.24725e-07
1.6726e-08
3.24636e-07
1.64707e-08
3.2454e-07
1.62443e-08
3.24436e-07
1.60474e-08
3.24324e-07
1.58809e-08
3.24205e-07
1.57456e-08
3.24079e-07
1.5643e-08
3.23945e-07
1.55738e-08
3.23803e-07
1.55401e-08
3.23652e-07
1.55424e-08
3.23494e-07
1.55835e-08
3.23328e-07
1.56636e-08
3.23154e-07
1.5786e-08
3.22972e-07
1.59508e-08
3.22782e-07
1.61602e-08
3.22584e-07
1.6415e-08
3.22378e-07
1.67139e-08
3.22164e-07
1.7059e-08
3.21939e-07
1.74452e-08
3.21703e-07
1.78762e-08
3.21449e-07
1.83548e-08
3.21177e-07
1.88911e-08
1.95229e-08
3.20883e-07
3.26152e-07
2.19939e-08
3.28989e-07
4.42547e-08
3.30336e-07
4.26435e-08
3.31232e-07
3.72042e-08
3.32077e-07
3.54568e-08
3.3269e-07
3.43027e-08
3.33088e-07
3.23355e-08
3.33397e-07
3.03627e-08
3.3366e-07
2.88231e-08
3.33875e-07
2.75649e-08
3.34047e-07
2.64338e-08
3.34184e-07
2.54027e-08
3.34294e-07
2.44733e-08
3.34381e-07
2.3634e-08
3.34447e-07
2.2868e-08
3.34494e-07
2.21632e-08
3.34525e-07
2.15118e-08
3.34542e-07
2.0908e-08
3.34544e-07
2.03473e-08
3.34534e-07
1.9826e-08
3.34513e-07
1.93411e-08
3.3448e-07
1.88902e-08
3.34438e-07
1.84711e-08
3.34386e-07
1.80823e-08
3.34325e-07
1.77225e-08
3.34255e-07
1.7391e-08
3.34178e-07
1.70874e-08
3.34092e-07
1.68117e-08
3.33999e-07
1.65641e-08
3.33898e-07
1.63453e-08
3.33789e-07
1.61559e-08
3.33673e-07
1.5997e-08
3.33549e-07