/*--------------------------------*- C++ -*----------------------------------*\
  =========                 |
  \\      /  F ield         | OpenFOAM: The Open Source CFD Toolbox
   \\    /   O peration     | Website:  https://openfoam.org
    \\  /    A nd           | Version:  7
     \\/     M anipulation  |
\*---------------------------------------------------------------------------*/
FoamFile
{
    version     2.0;
    format      ascii;
    class       surfaceScalarField;
    location    "0.07";
    object      phi_0;
}
// * * * * * * * * * * * * * * * * * * * * * * * * * * * * * * * * * * * * * //

dimensions      [0 3 -1 0 0 0 0];

internalField   nonuniform List<scalar> 
139350
(
6.45898e-08
9.20417e-08
3.19432e-08
3.26466e-08
2.30452e-08
8.89802e-09
1.95428e-08
3.50234e-09
1.75822e-08
1.96067e-09
1.61449e-08
1.43724e-09
1.50017e-08
1.14319e-09
1.40773e-08
9.24451e-10
1.33142e-08
7.63131e-10
1.26693e-08
6.44832e-10
1.21141e-08
5.55272e-10
1.1629e-08
4.85006e-10
1.12006e-08
4.28446e-10
1.08185e-08
3.82092e-10
1.0475e-08
3.43561e-10
1.01638e-08
3.11152e-10
9.88018e-09
2.83617e-10
9.62016e-09
2.60024e-10
9.3805e-09
2.39662e-10
9.15851e-09
2.21982e-10
8.95196e-09
2.06557e-10
8.75891e-09
1.93046e-10
8.57773e-09
1.81176e-10
8.40701e-09
1.70727e-10
8.24549e-09
1.61518e-10
8.09209e-09
1.53403e-10
7.94583e-09
1.4626e-10
7.80583e-09
1.39993e-10
7.67132e-09
1.34512e-10
7.54156e-09
1.29761e-10
7.4159e-09
1.25665e-10
7.29369e-09
1.22211e-10
7.17438e-09
1.19306e-10
7.05737e-09
1.17012e-10
6.94221e-09
1.15152e-10
6.82828e-09
1.13939e-10
6.71529e-09
1.12987e-10
6.60248e-09
1.12808e-10
6.48988e-09
1.12604e-10
6.37652e-09
1.13361e-10
6.26277e-09
1.13741e-10
6.14775e-09
1.15024e-10
6.03173e-09
1.16018e-10
5.91547e-09
1.16265e-10
5.79655e-09
1.18915e-10
5.68379e-09
1.12768e-10
5.56076e-09
1.23029e-10
5.47873e-09
8.20232e-11
5.26083e-09
2.17907e-10
-2.38184e-09
7.64267e-09
1.26022e-07
1.27463e-07
9.12483e-08
6.74202e-08
7.19099e-08
2.82364e-08
6.11615e-08
1.42507e-08
5.4691e-08
8.43119e-09
5.01703e-08
5.95789e-09
4.66574e-08
4.65609e-09
4.38116e-08
3.7703e-09
4.14541e-08
3.12057e-09
3.94608e-08
2.63814e-09
3.77449e-08
2.27123e-09
3.62464e-08
1.98345e-09
3.49229e-08
1.75193e-09
3.37429e-08
1.56218e-09
3.2682e-08
1.40437e-09
3.17216e-08
1.27156e-09
3.08466e-08
1.15864e-09
3.00448e-08
1.0618e-09
2.93063e-08
9.78162e-10
2.86229e-08
9.05469e-10
2.79874e-08
8.41974e-10
2.73942e-08
7.86285e-10
2.68381e-08
7.37287e-10
2.63147e-08
6.94077e-10
2.58203e-08
6.55917e-10
2.53515e-08
6.22207e-10
2.49053e-08
5.92448e-10
2.44791e-08
5.66235e-10
2.40704e-08
5.43225e-10
2.3677e-08
5.23156e-10
2.32969e-08
5.05775e-10
2.29281e-08
4.90957e-10
2.2569e-08
4.78452e-10
2.22177e-08
4.68327e-10
2.18727e-08
4.60175e-10
2.15321e-08
4.54455e-10
2.11949e-08
4.50228e-10
2.08589e-08
4.48833e-10
2.05235e-08
4.48015e-10
2.01858e-08
4.50997e-10
1.98468e-08
4.52748e-10
1.95019e-08
4.5998e-10
1.9155e-08
4.62934e-10
1.87983e-08
4.72903e-10
1.84416e-08
4.7558e-10
1.80743e-08
4.80068e-10
1.77075e-08
4.89917e-10
1.73752e-08
4.14242e-10
1.69153e-08
6.7783e-10
-2.70498e-09
1.72385e-08
1.58804e-07
1.35063e-07
1.3648e-07
8.97447e-08
1.17457e-07
4.72596e-08
1.03249e-07
2.84584e-08
9.32064e-08
1.84737e-08
8.5864e-08
1.33003e-08
8.01139e-08
1.04062e-08
7.5416e-08
8.46826e-09
7.14891e-08
7.04743e-09
6.81473e-08
5.97991e-09
6.52581e-08
5.16044e-09
6.27271e-08
4.51442e-09
6.04861e-08
3.99297e-09
5.84839e-08
3.56435e-09
5.66813e-08
3.20697e-09
5.50474e-08
2.90549e-09
5.35574e-08
2.64861e-09
5.21913e-08
2.4279e-09
5.09326e-08
2.23688e-09
4.97675e-08
2.07058e-09
4.86844e-08
1.92505e-09
4.76735e-08
1.79718e-09
4.67263e-08
1.68446e-09
4.58356e-08
1.58484e-09
4.49948e-08
1.49666e-09
4.41985e-08
1.41857e-09
4.34415e-08
1.34942e-09
4.27194e-08
1.28829e-09
4.20282e-08
1.23442e-09
4.13642e-08
1.18718e-09
4.0724e-08
1.14604e-09
4.01043e-08
1.11065e-09
3.95022e-08
1.08056e-09
3.89147e-08
1.05574e-09
3.83393e-08
1.03558e-09
3.77731e-08
1.02068e-09
3.72137e-08
1.0096e-09
3.6658e-08
1.00456e-09
3.61044e-08
1.00157e-09
3.55485e-08
1.00691e-09
3.49912e-08
1.01011e-09
3.44242e-08
1.02698e-09
3.38548e-08
1.03228e-09
3.3266e-08
1.06171e-09
3.268e-08
1.06155e-09
3.2063e-08
1.09707e-09
3.14585e-08
1.0945e-09
3.0855e-08
1.01774e-09
3.02238e-08
1.30905e-09
-1.99922e-09
2.9518e-08
1.75662e-07
1.30916e-07
1.65584e-07
9.98232e-08
1.52692e-07
6.01511e-08
1.40062e-07
4.10891e-08
1.29331e-07
2.9204e-08
1.2064e-07
2.19919e-08
1.13473e-07
1.75728e-08
1.07433e-07
1.45081e-08
1.0227e-07
1.22101e-08
9.78042e-08
1.04462e-08
9.38957e-08
9.06888e-09
9.04403e-08
7.96984e-09
8.73585e-08
7.07473e-09
8.45892e-08
6.33366e-09
8.20842e-08
5.71203e-09
7.98047e-08
5.18491e-09
7.77196e-08
4.73376e-09
7.58029e-08
4.34458e-09
7.40332e-08
4.00658e-09
7.23925e-08
3.71134e-09
7.08653e-08
3.4522e-09
6.94386e-08
3.22385e-09
6.81011e-08
3.02197e-09
6.68429e-08
2.84306e-09
6.56553e-08
2.68424e-09
6.45308e-08
2.54313e-09
6.34624e-08
2.41777e-09
6.24442e-08
2.30654e-09
6.14705e-08
2.2081e-09
6.05363e-08
2.12132e-09
5.96371e-08
2.04532e-09
5.87683e-08
1.9794e-09
5.7926e-08
1.92288e-09
5.71062e-08
1.87553e-09
5.63052e-08
1.83655e-09
5.55193e-08
1.80663e-09
5.47451e-08
1.78384e-09
5.39783e-08
1.77128e-09
5.32168e-08
1.76313e-09
5.24545e-08
1.76915e-09
5.16921e-08
1.77258e-09
5.09189e-08
1.80019e-09
5.01432e-08
1.80799e-09
4.93429e-08
1.86194e-09
4.85447e-08
1.85976e-09
4.77055e-08
1.93624e-09
4.68778e-08
1.92228e-09
4.603e-08
1.86548e-09
4.52146e-08
2.12452e-09
-8.4578e-10
4.40611e-08
1.84559e-07
1.23143e-07
1.82313e-07
1.02069e-07
1.76079e-07
6.63852e-08
1.67709e-07
4.94596e-08
1.59046e-07
3.78664e-08
1.51087e-07
2.99512e-08
1.43955e-07
2.47046e-08
1.37589e-07
2.08741e-08
1.31918e-07
1.7882e-08
1.26857e-07
1.55063e-08
1.22325e-07
1.36012e-08
1.18245e-07
1.20498e-08
1.14554e-07
1.07659e-08
1.11198e-07
9.68923e-09
1.08134e-07
8.7764e-09
1.05324e-07
7.99533e-09
1.02736e-07
7.32167e-09
1.00344e-07
6.73662e-09
9.81247e-08
6.2255e-09
9.60594e-08
5.77669e-09
9.41307e-08
5.38087e-09
9.2324e-08
5.03053e-09
9.06264e-08
4.71954e-09
8.90266e-08
4.44285e-09
8.75146e-08
4.19628e-09
8.60814e-08
3.97638e-09
8.47189e-08
3.78026e-09
8.34199e-08
3.6055e-09
8.21779e-08
3.45014e-09
8.09867e-08
3.31248e-09
7.98408e-08
3.19123e-09
7.8735e-08
3.08525e-09
7.76642e-08
2.99365e-09
7.66238e-08
2.91592e-09
7.56092e-08
2.85109e-09
7.4616e-08
2.79986e-09
7.364e-08
2.75986e-09
7.26763e-08
2.73501e-09
7.17216e-08
2.71779e-09
7.07695e-08
2.72129e-09
6.98193e-08
2.72272e-09
6.886e-08
2.75956e-09
6.78982e-08
2.76976e-09
6.69121e-08
2.84804e-09
6.59242e-08
2.84763e-09
6.48966e-08
2.96386e-09
6.38691e-08
2.94974e-09
6.28211e-08
2.9135e-09
6.18052e-08
3.14042e-09
5.38568e-10
6.04209e-08
1.90387e-07
1.14972e-07
1.91846e-07
1.0061e-07
1.90227e-07
6.80043e-08
1.86115e-07
5.35712e-08
1.80644e-07
4.3338e-08
1.74844e-07
3.57506e-08
1.69091e-07
3.04576e-08
1.63541e-07
2.64241e-08
1.58292e-07
2.31311e-08
1.53388e-07
2.04103e-08
1.48834e-07
1.81555e-08
1.44615e-07
1.6269e-08
1.40708e-07
1.46728e-08
1.37088e-07
1.33091e-08
1.33729e-07
1.21348e-08
1.30608e-07
1.11165e-08
1.27702e-07
1.02282e-08
1.24989e-07
9.44893e-09
1.22453e-07
8.76219e-09
1.20075e-07
8.15447e-09
1.17841e-07
7.61479e-09
1.15738e-07
7.13411e-09
1.13752e-07
6.70495e-09
1.11874e-07
6.32109e-09
1.10093e-07
5.9773e-09
1.084e-07
5.66921e-09
1.06787e-07
5.39313e-09
1.05247e-07
5.14595e-09
1.03772e-07
4.92513e-09
1.02356e-07
4.72844e-09
1.00993e-07
4.55419e-09
9.96772e-08
4.40085e-09
9.84035e-08
4.2673e-09
9.71667e-08
4.15276e-09
9.59617e-08
4.05612e-09
9.47835e-08
3.97803e-09
9.36275e-08
3.91583e-09
9.24885e-08
3.87406e-09
9.13624e-08
3.84384e-09
9.02427e-08
3.84105e-09
8.91274e-08
3.83801e-09
8.80062e-08
3.88078e-09
8.68825e-08
3.89339e-09
8.57387e-08
3.99185e-09
8.45877e-08
3.99871e-09
8.34057e-08
4.14578e-09
8.22084e-08
4.14705e-09
8.10012e-08
4.12078e-09
7.98048e-08
4.33676e-09
2.09747e-09
7.82459e-08
1.95539e-07
1.07247e-07
1.98242e-07
9.79071e-08
1.98955e-07
6.72913e-08
1.97759e-07
5.47672e-08
1.95102e-07
4.59951e-08
1.91724e-07
3.91287e-08
1.87944e-07
3.42376e-08
1.83934e-07
3.04341e-08
1.79844e-07
2.72208e-08
1.75787e-07
2.44679e-08
1.71831e-07
2.2111e-08
1.68018e-07
2.00819e-08
1.6437e-07
1.83212e-08
1.60895e-07
1.67834e-08
1.57597e-07
1.54333e-08
1.54471e-07
1.42427e-08
1.5151e-07
1.31884e-08
1.48708e-07
1.22516e-08
1.46054e-07
1.14163e-08
1.43539e-07
1.06696e-08
1.41153e-07
1.00003e-08
1.38888e-07
9.39923e-09
1.36734e-07
8.85851e-09
1.34684e-07
8.3715e-09
1.32729e-07
7.93254e-09
1.30861e-07
7.53679e-09
1.29074e-07
7.18014e-09
1.27361e-07
6.85906e-09
1.25715e-07
6.57066e-09
1.24132e-07
6.31234e-09
1.22604e-07
6.08216e-09
1.21126e-07
5.87832e-09
1.19694e-07
5.69954e-09
1.18302e-07
5.54484e-09
1.16945e-07
5.41306e-09
1.15618e-07
5.30478e-09
1.14317e-07
5.21721e-09
1.13035e-07
5.1553e-09
1.1177e-07
5.10936e-09
1.10514e-07
5.0971e-09
1.09264e-07
5.08778e-09
1.08012e-07
5.13285e-09
1.06757e-07
5.14831e-09
1.05488e-07
5.26115e-09
1.04206e-07
5.28093e-09
1.02904e-07
5.44778e-09
1.01573e-07
5.47759e-09
1.00241e-07
5.45306e-09
9.89053e-08
5.67225e-09
3.79393e-09
9.72088e-08
2.00847e-07
9.99857e-08
2.0377e-07
9.49833e-08
2.05314e-07
6.57472e-08
2.05618e-07
5.44634e-08
2.04773e-07
4.68405e-08
2.03264e-07
4.06376e-08
2.01278e-07
3.62234e-08
1.98899e-07
3.28133e-08
1.96232e-07
2.98877e-08
1.93381e-07
2.73192e-08
1.90427e-07
2.50647e-08
1.87433e-07
2.30761e-08
1.84444e-07
2.13101e-08
1.81494e-07
1.97335e-08
1.78606e-07
1.83211e-08
1.75796e-07
1.70525e-08
1.73074e-07
1.59105e-08
1.70446e-07
1.48804e-08
1.67912e-07
1.39495e-08
1.65475e-07
1.31069e-08
1.63132e-07
1.23434e-08
1.6088e-07
1.16508e-08
1.58717e-07
1.1022e-08
1.56638e-07
1.04509e-08
1.54638e-07
9.93212e-09
1.52714e-07
9.46107e-09
1.5086e-07
9.03374e-09
1.49073e-07
8.6466e-09
1.47346e-07
8.29676e-09
1.45677e-07
7.98157e-09
1.4406e-07
7.69907e-09
1.42491e-07
7.44736e-09
1.40966e-07
7.22521e-09
1.39479e-07
7.03154e-09
1.38027e-07
6.86529e-09
1.36604e-07
6.727e-09
1.35208e-07
6.61396e-09
1.33832e-07
6.53135e-09
1.32472e-07
6.4692e-09
1.31123e-07
6.44616e-09
1.2978e-07
6.43031e-09
1.28438e-07
6.47516e-09
1.27092e-07
6.49461e-09
1.25736e-07
6.61683e-09
1.24363e-07
6.65418e-09
1.22978e-07
6.83197e-09
1.21558e-07
6.89797e-09
1.20137e-07
6.87466e-09
1.18707e-07
7.10183e-09
5.57739e-09
1.16923e-07
2.06445e-07
9.30724e-08
2.09334e-07
9.20951e-08
2.11024e-07
6.40569e-08
2.11907e-07
5.358e-08
2.11961e-07
4.67867e-08
2.11553e-07
4.10454e-08
2.10794e-07
3.69824e-08
2.09685e-07
3.39223e-08
2.08263e-07
3.13101e-08
2.06585e-07
2.8997e-08
2.04708e-07
2.69417e-08
2.02682e-07
2.51025e-08
2.0055e-07
2.34421e-08
1.98349e-07
2.1934e-08
1.96111e-07
2.05595e-08
1.93859e-07
1.93042e-08
1.91613e-07
1.81561e-08
1.89389e-07
1.71049e-08
1.87196e-07
1.61418e-08
1.85044e-07
1.52589e-08
1.82939e-07
1.44493e-08
1.80883e-07
1.37067e-08
1.78879e-07
1.30257e-08
1.76929e-07
1.24014e-08
1.75031e-07
1.18294e-08
1.73186e-07
1.13059e-08
1.71393e-07
1.08275e-08
1.69648e-07
1.03911e-08
1.67951e-07
9.99422e-09
1.66298e-07
9.63445e-09
1.64687e-07
9.31012e-09
1.63115e-07
9.01949e-09
1.61578e-07
8.76153e-09
1.60074e-07
8.53529e-09
1.586e-07
8.33991e-09
1.57151e-07
8.17606e-09
1.55724e-07
8.04122e-09
1.54314e-07
7.94076e-09
1.52918e-07
7.86488e-09
1.51532e-07
7.83248e-09
1.5015e-07
7.81193e-09
1.48769e-07
7.85628e-09
1.47382e-07
7.88189e-09
1.45988e-07
8.01072e-09
1.44573e-07
8.06931e-09
1.43152e-07
8.25316e-09
1.41692e-07
8.35833e-09
1.40224e-07
8.3421e-09
1.38748e-07
8.57826e-09
7.38991e-09
1.36935e-07
2.12287e-07
8.64474e-08
2.15146e-07
8.92362e-08
2.16778e-07
6.24253e-08
2.17819e-07
5.25385e-08
2.18221e-07
4.63855e-08
2.18318e-07
4.09478e-08
2.18218e-07
3.70826e-08
2.17887e-07
3.42529e-08
2.17318e-07
3.18799e-08
2.16526e-07
2.97882e-08
2.15538e-07
2.79306e-08
2.14376e-07
2.62639e-08
2.13069e-07
2.47496e-08
2.11641e-07
2.33616e-08
2.10118e-07
2.20827e-08
2.08521e-07
2.09008e-08
2.06871e-07
1.98065e-08
2.05183e-07
1.87922e-08
2.03473e-07
1.78517e-08
2.01753e-07
1.69795e-08
2.00031e-07
1.61708e-08
1.98317e-07
1.54213e-08
1.96615e-07
1.47271e-08
1.94932e-07
1.40848e-08
1.9327e-07
1.34912e-08
1.91633e-07
1.29436e-08
1.90021e-07
1.24393e-08
1.88436e-07
1.19762e-08
1.86878e-07
1.15523e-08
1.85346e-07
1.11657e-08
1.83841e-07
1.08153e-08
1.82361e-07
1.04998e-08
1.80904e-07
1.02184e-08
1.79469e-07
9.97047e-09
1.78053e-07
9.75554e-09
1.76655e-07
9.57448e-09
1.75271e-07
9.42514e-09
1.73899e-07
9.31305e-09
1.72535e-07
9.22889e-09
1.71176e-07
9.19136e-09
1.69817e-07
9.17024e-09
1.68457e-07
9.21626e-09
1.67088e-07
9.25151e-09
1.65712e-07
9.38679e-09
1.64311e-07
9.46984e-09
1.62906e-07
9.65869e-09
1.61461e-07
9.8034e-09
1.59999e-07
9.8037e-09
1.58528e-07
1.00498e-08
9.17111e-09
1.56746e-07
2.18328e-07
8.00997e-08
2.212e-07
8.63648e-08
2.2275e-07
6.08749e-08
2.23818e-07
5.14704e-08
2.24329e-07
4.58749e-08
2.24605e-07
4.06717e-08
2.24783e-07
3.69045e-08
2.24834e-07
3.42015e-08
2.24736e-07
3.19783e-08
2.24487e-07
3.00373e-08
2.24091e-07
2.83266e-08
2.23554e-07
2.68008e-08
2.22885e-07
2.54187e-08
2.22095e-07
2.41513e-08
2.21198e-07
2.29798e-08
2.20207e-07
2.18916e-08
2.19136e-07
2.08775e-08
2.17998e-07
1.99306e-08
2.16804e-07
1.90455e-08
2.15566e-07
1.82177e-08
2.14293e-07
1.74437e-08
2.12994e-07
1.67203e-08
2.11676e-07
1.60448e-08
2.10346e-07
1.54148e-08
2.09009e-07
1.48282e-08
2.0767e-07
1.42831e-08
2.06331e-07
1.37778e-08
2.04997e-07
1.33109e-08
2.03668e-07
1.28811e-08
2.02346e-07
1.24872e-08
2.01033e-07
1.21285e-08
1.99729e-07
1.18042e-08
1.98433e-07
1.1514e-08
1.97146e-07
1.12578e-08
1.95866e-07
1.10353e-08
1.94593e-07
1.08478e-08
1.93324e-07
1.06936e-08
1.92059e-07
1.05784e-08
1.90794e-07
1.04935e-08
1.89528e-07
1.04573e-08
1.88257e-07
1.04414e-08
1.8698e-07
1.04933e-08
1.85689e-07
1.05427e-08
1.8439e-07
1.06864e-08
1.83062e-07
1.07969e-08
1.81728e-07
1.09927e-08
1.80356e-07
1.11761e-08
1.78956e-07
1.12037e-08
1.77544e-07
1.14618e-08
1.08611e-08
1.75854e-07
2.24557e-07
7.40358e-08
2.27464e-07
8.34581e-08
2.28946e-07
5.93923e-08
2.30019e-07
5.03976e-08
2.30571e-07
4.53235e-08
2.30895e-07
4.03471e-08
2.31163e-07
3.66366e-08
2.31364e-07
3.40008e-08
2.31477e-07
3.18655e-08
2.31499e-07
3.00153e-08
2.31429e-07
2.83965e-08
2.31265e-07
2.6965e-08
2.31005e-07
2.56779e-08
2.30653e-07
2.45038e-08
2.30211e-07
2.34219e-08
2.29684e-07
2.2418e-08
2.2908e-07
2.1482e-08
2.28404e-07
2.06063e-08
2.27664e-07
1.97852e-08
2.26868e-07
1.90143e-08
2.26021e-07
1.82902e-08
2.25132e-07
1.761e-08
2.24205e-07
1.69715e-08
2.23247e-07
1.63729e-08
2.22262e-07
1.58125e-08
2.21256e-07
1.52891e-08
2.20233e-07
1.48016e-08
2.19195e-07
1.4349e-08
2.18145e-07
1.39307e-08
2.17086e-07
1.3546e-08
2.1602e-07
1.31947e-08
2.14948e-07
1.28763e-08
2.13871e-07
1.25912e-08
2.12789e-07
1.23395e-08
2.11703e-07
1.21213e-08
2.10612e-07
1.19384e-08
2.09516e-07
1.17893e-08
2.08415e-07
1.168e-08
2.07306e-07
1.16026e-08
2.06189e-07
1.15746e-08
2.0506e-07
1.15704e-08
2.0392e-07
1.16331e-08
2.02761e-07
1.17014e-08
2.0159e-07
1.18568e-08
2.0039e-07
1.19973e-08
1.99179e-07
1.22039e-08
1.97931e-07
1.24242e-08
1.96645e-07
1.24892e-08
1.95344e-07
1.27626e-08
1.24056e-08
1.938e-07
2.30978e-07
6.82639e-08
2.33928e-07
8.05077e-08
2.35351e-07
5.79691e-08
2.3643e-07
4.93189e-08
2.37014e-07
4.47391e-08
2.37354e-07
4.00078e-08
2.37643e-07
3.63477e-08
2.37889e-07
3.37545e-08
2.38078e-07
3.16768e-08
2.3821e-07
2.98828e-08
2.38288e-07
2.83187e-08
2.38309e-07
2.69442e-08
2.3827e-07
2.57169e-08
2.38169e-07
2.46045e-08
2.38006e-07
2.35851e-08
2.3778e-07
2.26435e-08
2.37494e-07
2.17684e-08
2.37149e-07
2.09515e-08
2.36748e-07
2.01864e-08
2.36294e-07
1.94682e-08
2.35791e-07
1.87932e-08
2.35242e-07
1.81585e-08
2.34652e-07
1.75616e-08
2.34024e-07
1.70008e-08
2.33362e-07
1.64746e-08
2.32669e-07
1.59819e-08
2.31949e-07
1.5522e-08
2.31204e-07
1.5094e-08
2.30437e-07
1.46978e-08
2.2965e-07
1.4333e-08
2.28845e-07
1.39996e-08
2.28023e-07
1.36977e-08
2.27187e-07
1.34278e-08
2.26336e-07
1.31903e-08
2.25472e-07
1.29857e-08
2.24594e-07
1.28162e-08
2.23703e-07
1.26803e-08
2.22798e-07
1.25845e-08
2.2188e-07
1.25213e-08
2.20946e-07
1.25078e-08
2.19996e-07
1.25208e-08
2.1903e-07
1.25988e-08
2.18042e-07
1.269e-08
2.17038e-07
1.28602e-08
2.16004e-07
1.30321e-08
2.14954e-07
1.32535e-08
2.1387e-07
1.35085e-08
2.1274e-07
1.36188e-08
2.11592e-07
1.39114e-08
1.37631e-08
2.10234e-07
2.37599e-07
6.27898e-08
2.40596e-07
7.75111e-08
2.41961e-07
5.66033e-08
2.43045e-07
4.82357e-08
2.43666e-07
4.4118e-08
2.44018e-07
3.96557e-08
2.44311e-07
3.60542e-08
2.44569e-07
3.34965e-08
2.4478e-07
3.14661e-08
2.44948e-07
2.97143e-08
2.45081e-07
2.81865e-08
2.45177e-07
2.68475e-08
2.45237e-07
2.56572e-08
2.45258e-07
2.45834e-08
2.45239e-07
2.36039e-08
2.4518e-07
2.27031e-08
2.45078e-07
2.18696e-08
2.44935e-07
2.10945e-08
2.44751e-07
2.03709e-08
2.44526e-07
1.96935e-08
2.44261e-07
1.90583e-08
2.43957e-07
1.84618e-08
2.43617e-07
1.79017e-08
2.43242e-07
1.73757e-08
2.42834e-07
1.68825e-08
2.42395e-07
1.64208e-08
2.41927e-07
1.59899e-08
2.41432e-07
1.55893e-08
2.40911e-07
1.52186e-08
2.40367e-07
1.48777e-08
2.398e-07
1.45669e-08
2.39211e-07
1.42863e-08
2.38602e-07
1.40366e-08
2.37974e-07
1.38187e-08
2.37327e-07
1.36329e-08
2.36661e-07
1.34818e-08
2.35977e-07
1.33642e-08
2.35275e-07
1.32865e-08
2.34554e-07
1.32421e-08
2.33815e-07
1.32468e-08
2.33056e-07
1.32805e-08
2.32278e-07
1.33766e-08
2.31475e-07
1.34928e-08
2.30655e-07
1.36799e-08
2.29804e-07
1.38829e-08
2.28935e-07
1.41225e-08
2.28035e-07
1.44091e-08
2.27084e-07
1.45691e-08
2.26111e-07
1.48844e-08
1.4911e-08
2.24964e-07
2.44429e-07
5.7617e-08
2.47465e-07
7.44749e-08
2.48782e-07
5.52866e-08
2.49865e-07
4.71526e-08
2.50524e-07
4.34588e-08
2.50893e-07
3.92873e-08
2.5119e-07
3.57572e-08
2.51452e-07
3.32341e-08
2.51669e-07
3.12487e-08
2.51848e-07
2.95359e-08
2.51996e-07
2.80382e-08
2.52118e-07
2.67258e-08
2.52214e-07
2.55613e-08
2.52284e-07
2.45132e-08
2.52328e-07
2.35598e-08
2.52345e-07
2.26856e-08
2.52336e-07
2.18793e-08
2.52298e-07
2.11318e-08
2.52233e-07
2.04364e-08
2.52139e-07
1.97875e-08
2.52017e-07
1.91807e-08
2.51866e-07
1.86126e-08
2.51687e-07
1.80804e-08
2.51481e-07
1.7582e-08
2.51248e-07
1.71157e-08
2.50988e-07
1.66801e-08
2.50704e-07
1.62745e-08
2.50395e-07
1.58983e-08
2.50062e-07
1.55512e-08
2.49707e-07
1.52331e-08
2.49329e-07
1.49444e-08
2.4893e-07
1.46853e-08
2.4851e-07
1.44566e-08
2.4807e-07
1.42591e-08
2.47609e-07
1.40934e-08
2.47129e-07
1.39622e-08
2.46629e-07
1.38643e-08
2.46109e-07
1.38062e-08
2.45569e-07
1.37819e-08
2.4501e-07
1.3806e-08
2.44429e-07
1.38615e-08
2.43829e-07
1.39763e-08
2.43205e-07
1.41175e-08
2.42562e-07
1.43221e-08
2.41891e-07
1.45539e-08
2.412e-07
1.48135e-08
2.40482e-07
1.51277e-08
2.39713e-07
1.53384e-08
2.38918e-07
1.56787e-08
1.58482e-08
2.37981e-07
2.51476e-07
5.27475e-08
2.54542e-07
7.14087e-08
2.5582e-07
5.40088e-08
2.56898e-07
4.60751e-08
2.57594e-07
4.27624e-08
2.57982e-07
3.88995e-08
2.58284e-07
3.54552e-08
2.58551e-07
3.29675e-08
2.58772e-07
3.10274e-08
2.58953e-07
2.93543e-08
2.59106e-07
2.7886e-08
2.59234e-07
2.65976e-08
2.5934e-07
2.54549e-08
2.59426e-07
2.44273e-08
2.59493e-07
2.34934e-08
2.5954e-07
2.26384e-08
2.59568e-07
2.18509e-08
2.59577e-07
2.11225e-08
2.59568e-07
2.04462e-08
2.59538e-07
1.98167e-08
2.59489e-07
1.92295e-08
2.59421e-07
1.86813e-08
2.59332e-07
1.8169e-08
2.59224e-07
1.76905e-08
2.59095e-07
1.72441e-08
2.58947e-07
1.68283e-08
2.58779e-07
1.64423e-08
2.58592e-07
1.60855e-08
2.58386e-07
1.57576e-08
2.5816e-07
1.54586e-08
2.57916e-07
1.51887e-08
2.57653e-07
1.49483e-08
2.57372e-07
1.4738e-08
2.57072e-07
1.45591e-08
2.56753e-07
1.44118e-08
2.56416e-07
1.4299e-08
2.56061e-07
1.42197e-08
2.55687e-07
1.41801e-08
2.55294e-07
1.4175e-08
2.54882e-07
1.42174e-08
2.5445e-07
1.42934e-08
2.54001e-07
1.44258e-08
2.53529e-07
1.45898e-08
2.5304e-07
1.48111e-08
2.52526e-07
1.50679e-08
2.51992e-07
1.53476e-08
2.51434e-07
1.56849e-08
2.50829e-07
1.59439e-08
2.50197e-07
1.63102e-08
1.6594e-08
2.49451e-07
2.58749e-07
4.81813e-08
2.61836e-07
6.83224e-08
2.63085e-07
5.27593e-08
2.64152e-07
4.50083e-08
2.64883e-07
4.20314e-08
2.65292e-07
3.84902e-08
2.656e-07
3.51473e-08
2.65871e-07
3.26964e-08
2.66097e-07
3.08018e-08
2.66281e-07
2.91702e-08
2.66434e-07
2.77324e-08
2.66564e-07
2.64681e-08
2.66672e-07
2.53464e-08
2.66762e-07
2.43378e-08
2.66834e-07
2.34213e-08
2.6689e-07
2.25824e-08
2.66931e-07
2.18103e-08
2.66957e-07
2.10966e-08
2.66968e-07
2.04347e-08
2.66965e-07
1.98194e-08
2.66948e-07
1.92465e-08
2.66917e-07
1.87125e-08
2.66872e-07
1.82145e-08
2.66812e-07
1.77504e-08
2.66738e-07
1.73183e-08
2.66649e-07
1.6917e-08
2.66546e-07
1.65455e-08
2.66428e-07
1.62032e-08
2.66296e-07
1.58899e-08
2.66149e-07
1.56056e-08
2.65987e-07
1.53505e-08
2.6581e-07
1.51251e-08
2.65618e-07
1.49299e-08
2.65411e-07
1.47662e-08
2.65189e-07
1.46345e-08
2.6495e-07
1.45374e-08
2.64696e-07
1.4474e-08
2.64426e-07
1.44504e-08
2.64139e-07
1.4462e-08
2.63836e-07
1.45203e-08
2.63515e-07
1.46142e-08
2.63179e-07
1.47619e-08
2.62823e-07
1.49456e-08
2.62453e-07
1.51815e-08
2.62062e-07
1.54589e-08
2.61652e-07
1.57574e-08
2.61223e-07
1.61135e-08
2.60751e-07
1.64163e-08
2.60253e-07
1.68084e-08
1.71817e-08
2.59665e-07
2.66257e-07
4.39167e-08
2.69353e-07
6.52266e-08
2.70584e-07
5.15275e-08
2.71636e-07
4.39566e-08
2.72398e-07
4.12692e-08
2.72831e-07
3.80579e-08
2.73145e-07
3.48325e-08
2.73421e-07
3.24207e-08
2.73651e-07
3.05716e-08
2.73838e-07
2.89833e-08
2.73993e-07
2.75776e-08
2.74123e-07
2.63381e-08
2.74232e-07
2.52379e-08
2.74321e-07
2.42483e-08
2.74393e-07
2.33489e-08
2.74451e-07
2.25253e-08
2.74493e-07
2.17673e-08
2.74523e-07
2.10668e-08
2.7454e-07
2.04175e-08
2.74546e-07
1.98141e-08
2.74539e-07
1.92528e-08
2.74522e-07
1.87301e-08
2.74493e-07
1.82432e-08
2.74453e-07
1.77901e-08
2.74403e-07
1.7369e-08
2.74341e-07
1.69786e-08
2.74268e-07
1.66181e-08
2.74185e-07
1.62869e-08
2.7409e-07
1.59847e-08
2.73984e-07
1.57116e-08
2.73866e-07
1.5468e-08
2.73737e-07
1.52543e-08
2.73596e-07
1.5071e-08
2.73443e-07
1.49196e-08
2.73277e-07
1.48003e-08
2.73098e-07
1.4716e-08
2.72906e-07
1.46659e-08
2.72701e-07
1.46554e-08
2.72482e-07
1.4681e-08
2.7225e-07
1.47524e-08
2.72003e-07
1.48614e-08
2.71743e-07
1.50217e-08
2.71467e-07
1.52216e-08
2.71179e-07
1.547e-08
2.70874e-07
1.57636e-08
2.70552e-07
1.6079e-08
2.70216e-07
1.64501e-08
2.69841e-07
1.67912e-08
2.69441e-07
1.72079e-08
1.76503e-08
2.68973e-07
2.74008e-07
3.99503e-08
2.77102e-07
6.21322e-08
2.78326e-07
5.03033e-08
2.79359e-07
4.29236e-08
2.80148e-07
4.04799e-08
2.80605e-07
3.7601e-08
2.80928e-07
3.45101e-08
2.81208e-07
3.21405e-08
2.81443e-07
3.03366e-08
2.81633e-07
2.87931e-08
2.8179e-07
2.74213e-08
2.8192e-07
2.62077e-08
2.82028e-07
2.51295e-08
2.82117e-07
2.41595e-08
2.82189e-07
2.32774e-08
2.82245e-07
2.24694e-08
2.82287e-07
2.17254e-08
2.82316e-07
2.10378e-08
2.82333e-07
2.04004e-08
2.82339e-07
1.98083e-08
2.82334e-07
1.92575e-08
2.82319e-07
1.87449e-08
2.82294e-07
1.82679e-08
2.8226e-07
1.78243e-08
2.82217e-07
1.74124e-08
2.82164e-07
1.70311e-08
2.82103e-07
1.66796e-08
2.82032e-07
1.63573e-08
2.81953e-07
1.60641e-08
2.81865e-07
1.58001e-08
2.81767e-07
1.55657e-08
2.8166e-07
1.53614e-08
2.81543e-07
1.51878e-08
2.81416e-07
1.50464e-08
2.81279e-07
1.49374e-08
2.81132e-07
1.48635e-08
2.80973e-07
1.48243e-08
2.80804e-07
1.48247e-08
2.80623e-07
1.48619e-08
2.80431e-07
1.49442e-08
2.80227e-07
1.50655e-08
2.80012e-07
1.52364e-08
2.79785e-07
1.54493e-08
2.79546e-07
1.57083e-08
2.79296e-07
1.60145e-08
2.7903e-07
1.63449e-08
2.78752e-07
1.67283e-08
2.78441e-07
1.71022e-08
2.78106e-07
1.75424e-08
1.80379e-08
2.77719e-07
2.82011e-07
3.62767e-08
2.85092e-07
5.90509e-08
2.86319e-07
4.90772e-08
2.8733e-07
4.1912e-08
2.88142e-07
3.96682e-08
2.88625e-07
3.71183e-08
2.88956e-07
3.41788e-08
2.89241e-07
3.1856e-08
2.8948e-07
3.00966e-08
2.89674e-07
2.85993e-08
2.89832e-07
2.72632e-08
2.89963e-07
2.60766e-08
2.90072e-07
2.50211e-08
2.9016e-07
2.40713e-08
2.9023e-07
2.32071e-08
2.90285e-07
2.2415e-08
2.90325e-07
2.16854e-08
2.90352e-07
2.10108e-08
2.90367e-07
2.03854e-08
2.90371e-07
1.98044e-08
2.90364e-07
1.92641e-08
2.90348e-07
1.87614e-08
2.90322e-07
1.82936e-08
2.90287e-07
1.78589e-08
2.90244e-07
1.74557e-08
2.90192e-07
1.70827e-08
2.90133e-07
1.67392e-08
2.90065e-07
1.64249e-08
2.8999e-07
1.61396e-08
2.89906e-07
1.58836e-08
2.89815e-07
1.56572e-08
2.89715e-07
1.54611e-08
2.89607e-07
1.52959e-08
2.8949e-07
1.5163e-08
2.89365e-07
1.50628e-08
2.8923e-07
1.4998e-08
2.89086e-07
1.49681e-08
2.88933e-07
1.49778e-08
2.8877e-07
1.5025e-08
2.88598e-07
1.51165e-08
2.88415e-07
1.52485e-08
2.88223e-07
1.54282e-08
2.8802e-07
1.56519e-08
2.87808e-07
1.59202e-08
2.87587e-07
1.62364e-08
2.87351e-07
1.65803e-08
2.87105e-07
1.69744e-08
2.86831e-07
1.73763e-08
2.86534e-07
1.78388e-08
1.83756e-08
2.86197e-07
2.90277e-07
3.2889e-08
2.93333e-07
5.59942e-08
2.9457e-07
4.78402e-08
2.95559e-07
4.09236e-08
2.96388e-07
3.88393e-08
2.96897e-07
3.66087e-08
2.97239e-07
3.38372e-08
2.97527e-07
3.15672e-08
2.97772e-07
2.98519e-08
2.9797e-07
2.84017e-08
2.9813e-07
2.71031e-08
2.98262e-07
2.59447e-08
2.9837e-07
2.49127e-08
2.98458e-07
2.39837e-08
2.98527e-07
2.31379e-08
2.9858e-07
2.23621e-08
2.98618e-07
2.16473e-08
2.98643e-07
2.09861e-08
2.98655e-07
2.03729e-08
2.98656e-07
1.98032e-08
2.98647e-07
1.92735e-08
2.98628e-07
1.87806e-08
2.98599e-07
1.83223e-08
2.98562e-07
1.78964e-08
2.98516e-07
1.75016e-08
2.98462e-07
1.71367e-08
2.984e-07
1.6801e-08
2.9833e-07
1.64944e-08
2.98253e-07
1.62166e-08
2.98169e-07
1.59681e-08
2.98077e-07
1.57491e-08
2.97977e-07
1.55606e-08
2.9787e-07
1.54031e-08
2.97755e-07
1.52781e-08
2.97632e-07
1.51861e-08
2.975e-07
1.51295e-08
2.9736e-07
1.51082e-08
2.97212e-07
1.51263e-08
2.97054e-07
1.51825e-08
2.96888e-07
1.52824e-08
2.96713e-07
1.54236e-08
2.9653e-07
1.56115e-08
2.96337e-07
1.58444e-08
2.96136e-07
1.61212e-08
2.95927e-07
1.64461e-08
2.95705e-07
1.68023e-08
2.95473e-07
1.72064e-08
2.95216e-07
1.76326e-08
2.94939e-07
1.81165e-08
1.86861e-08
2.94628e-07
2.98813e-07
2.97781e-08
3.01833e-07
5.29744e-08
3.03089e-07
4.65844e-08
3.04053e-07
3.99593e-08
3.04894e-07
3.79987e-08
3.05431e-07
3.60719e-08
3.05784e-07
3.34839e-08
3.06077e-07
3.12741e-08
3.06327e-07
2.96023e-08
3.06528e-07
2.82e-08
3.06691e-07
2.69407e-08
3.06824e-07
2.58119e-08
3.06932e-07
2.48042e-08
3.07019e-07
2.38965e-08
3.07088e-07
2.30697e-08
3.07139e-07
2.23108e-08
3.07175e-07
2.16111e-08
3.07198e-07
2.09636e-08
3.07207e-07
2.0363e-08
3.07206e-07
1.98049e-08
3.07193e-07
1.9286e-08
3.07171e-07
1.88032e-08
3.07139e-07
1.83543e-08
3.07098e-07
1.79374e-08
3.07048e-07
1.75511e-08
3.06991e-07
1.71943e-08
3.06925e-07
1.68665e-08
3.06852e-07
1.65674e-08
3.06772e-07
1.62971e-08
3.06684e-07
1.60559e-08
3.06589e-07
1.58443e-08
3.06486e-07
1.56632e-08
3.06376e-07
1.55133e-08
3.06258e-07
1.53959e-08
3.06133e-07
1.53116e-08
3.05999e-07
1.52629e-08
3.05858e-07
1.52498e-08
3.05708e-07
1.52759e-08
3.0555e-07
1.53406e-08
3.05384e-07
1.54485e-08
3.05209e-07
1.55984e-08
3.05026e-07
1.57941e-08
3.04835e-07
1.60354e-08
3.04636e-07
1.63205e-08
3.04429e-07
1.66532e-08
3.0421e-07
1.70211e-08
3.03981e-07
1.74354e-08
3.03731e-07
1.7883e-08
3.0346e-07
1.83873e-08
1.89839e-08
3.03162e-07
3.07632e-07
2.69335e-08
3.10603e-07
5.00033e-08
3.11884e-07
4.53033e-08
3.12824e-07
3.90192e-08
3.13671e-07
3.71517e-08
3.14235e-07
3.55082e-08
3.14601e-07
3.31174e-08
3.14899e-07
3.09764e-08
3.15153e-07
2.93481e-08
3.15359e-07
2.79939e-08
3.15524e-07
2.67758e-08
3.15658e-07
2.56779e-08
3.15767e-07
2.46953e-08
3.15854e-07
2.38096e-08
3.15921e-07
2.30024e-08
3.15971e-07
2.2261e-08
3.16005e-07
2.15768e-08
3.16026e-07
2.09434e-08
3.16033e-07
2.03556e-08
3.16029e-07
1.98095e-08
3.16013e-07
1.93015e-08
3.15987e-07
1.88291e-08
3.15951e-07
1.83899e-08
3.15907e-07
1.79821e-08
3.15853e-07
1.76044e-08
3.15792e-07
1.72559e-08
3.15722e-07
1.6936e-08
3.15645e-07
1.66446e-08
3.15561e-07
1.63817e-08
3.15469e-07
1.6148e-08
3.15369e-07
1.59438e-08
3.15262e-07
1.57701e-08
3.15148e-07
1.56276e-08
3.15026e-07
1.55178e-08
3.14896e-07
1.54413e-08
3.14759e-07
1.54004e-08
3.14613e-07
1.53954e-08
3.1446e-07
1.54294e-08
3.14298e-07
1.55024e-08
3.14128e-07
1.56182e-08
3.1395e-07
1.57764e-08
3.13764e-07
1.59799e-08
3.13571e-07
1.62291e-08
3.13369e-07
1.65225e-08
3.13159e-07
1.6863e-08
3.12938e-07
1.72422e-08
3.12706e-07
1.7667e-08
3.12456e-07
1.81338e-08
3.12185e-07
1.86579e-08
1.92773e-08
3.11892e-07
3.16741e-07
2.43434e-08
3.19652e-07
4.70931e-08
3.20963e-07
4.39913e-08
3.21881e-07
3.81021e-08
3.22729e-07
3.63035e-08
3.23318e-07
3.49188e-08
3.237e-07
3.27359e-08
3.24002e-07
3.06738e-08
3.24261e-07
2.90893e-08
3.24472e-07
2.77833e-08
3.2464e-07
2.66079e-08
3.24775e-07
2.55425e-08
3.24884e-07
2.4586e-08
3.24971e-07
2.3723e-08
3.25037e-07
2.29359e-08
3.25086e-07
2.22124e-08
3.25118e-07
2.15443e-08
3.25136e-07
2.09253e-08
3.25141e-07
2.03508e-08
3.25134e-07
1.98168e-08
3.25115e-07
1.93202e-08
3.25086e-07
1.88583e-08
3.25047e-07
1.84289e-08
3.24998e-07
1.80305e-08
3.24941e-07
1.76616e-08
3.24876e-07
1.73215e-08
3.24802e-07
1.70097e-08
3.2472e-07
1.6726e-08
3.24631e-07
1.64708e-08
3.24535e-07
1.62445e-08
3.24431e-07
1.60478e-08
3.24319e-07
1.58816e-08
3.242e-07
1.57467e-08
3.24073e-07
1.56445e-08
3.23939e-07
1.55759e-08
3.23797e-07
1.55428e-08
3.23646e-07
1.55458e-08
3.23488e-07
1.55878e-08
3.23321e-07
1.5669e-08
3.23147e-07
1.57927e-08
3.22964e-07
1.59591e-08
3.22774e-07
1.61703e-08
3.22575e-07
1.64274e-08
3.22369e-07
1.67292e-08
3.22154e-07
1.70776e-08
3.21928e-07
1.74679e-08
3.21692e-07
1.79037e-08
3.21437e-07
1.83881e-08
3.21164e-07
1.89312e-08
1.95707e-08
3.2087e-07
3.26152e-07
2.19942e-08
3.28989e-07
4.42556e-08
3.30336e-07
4.26448e-08
3.31232e-07
3.7206e-08
3.32076e-07
3.5459e-08
3.3269e-07
3.43052e-08
3.33088e-07
3.23383e-08
3.33396e-07
3.03657e-08
3.33659e-07
2.88261e-08
3.33874e-07
2.7568e-08
3.34045e-07
2.64368e-08
3.34182e-07
2.54055e-08
3.34292e-07
2.4476e-08
3.34379e-07
2.36364e-08
3.34445e-07
2.28702e-08
3.34492e-07
2.21651e-08
3.34523e-07
2.15134e-08
3.34539e-07
2.09094e-08
3.34541e-07
2.03485e-08
3.34531e-07
1.9827e-08
3.34509e-07
1.93419e-08
3.34477e-07
1.88908e-08
3.34434e-07
1.84716e-08
3.34382e-07
1.80826e-08
3.34321e-07
1.77227e-08
3.34251e-07
1.73912e-08
3.34173e-07
1.70875e-08
3.34087e-07
1.68118e-08
3.33994e-07
1.65643e-08
3.33893e-07
1.63457e-08
3.33784e-07