/*--------------------------------*- C++ -*----------------------------------*\
  =========                 |
  \\      /  F ield         | OpenFOAM: The Open Source CFD Toolbox
   \\    /   O peration     | Website:  https://openfoam.org
    \\  /    A nd           | Version:  7
     \\/     M anipulation  |
\*---------------------------------------------------------------------------*/
FoamFile
{
    version     2.0;
    format      ascii;
    class       volVectorField;
    location    "0.07";
    object      U;
}
// * * * * * * * * * * * * * * * * * * * * * * * * * * * * * * * * * * * * * //

dimensions      [0 1 -1 0 0 0 0];

internalField   nonuniform List<vector> 
70000
(
(0.553386 0.0167234 0)
(0.25123 0.00340159 0)
(0.166127 0.000322654 0)
(0.132328 5.48078e-05 0)
(0.117079 4.62426e-05 0)
(0.107091 5.44376e-05 0)
(0.0990734 4.68239e-05 0)
(0.0925615 3.75132e-05 0)
(0.0872435 3.12289e-05 0)
(0.0828 2.69284e-05 0)
(0.0790035 2.36537e-05 0)
(0.0757064 2.10326e-05 0)
(0.0728077 1.88971e-05 0)
(0.0702332 1.71351e-05 0)
(0.0679267 1.5664e-05 0)
(0.0658446 1.44229e-05 0)
(0.0639523 1.33665e-05 0)
(0.062222 1.2461e-05 0)
(0.0606311 1.16802e-05 0)
(0.059161 1.10043e-05 0)
(0.057796 1.04174e-05 0)
(0.0565229 9.90734e-06 0)
(0.0553306 9.4641e-06 0)
(0.0542092 9.07994e-06 0)
(0.0531504 8.74816e-06 0)
(0.0521467 8.46429e-06 0)
(0.0511916 8.22293e-06 0)
(0.0502791 8.02249e-06 0)
(0.0494042 7.85729e-06 0)
(0.0485618 7.72938e-06 0)
(0.0477477 7.6296e-06 0)
(0.0469575 7.56838e-06 0)
(0.0461879 7.52381e-06 0)
(0.0454346 7.52656e-06 0)
(0.0446951 7.52439e-06 0)
(0.0439647 7.58979e-06 0)
(0.0432423 7.61215e-06 0)
(0.0425227 7.72975e-06 0)
(0.0418047 7.7615e-06 0)
(0.0410864 7.87182e-06 0)
(0.0403595 7.95562e-06 0)
(0.0396408 7.80633e-06 0)
(0.0388854 8.24906e-06 0)
(0.038186 6.95414e-06 0)
(0.0373622 8.95887e-06 0)
(0.0367613 3.77023e-06 0)
(0.0357732 1.11779e-05 0)
(0.0354797 -5.9911e-06 0)
(0.0342901 1.81351e-05 0)
(0.0322488 -0.00125342 0)
(0.884897 0.0431691 0)
(0.649668 0.0201981 0)
(0.494174 0.00660415 0)
(0.403386 0.00277455 0)
(0.35431 0.00155986 0)
(0.322837 0.00114025 0)
(0.298793 0.000919669 0)
(0.279401 0.00075621 0)
(0.263487 0.000633688 0)
(0.250161 0.000543171 0)
(0.238777 0.000474443 0)
(0.228893 0.000420351 0)
(0.220205 0.000376649 0)
(0.21249 0.000340699 0)
(0.20558 0.000310712 0)
(0.199343 0.00028541 0)
(0.193678 0.000263853 0)
(0.1885 0.00024534 0)
(0.183742 0.000229336 0)
(0.179348 0.000215429 0)
(0.175272 0.000203297 0)
(0.171474 0.000192685 0)
(0.167921 0.000183391 0)
(0.164584 0.000175251 0)
(0.161437 0.000168134 0)
(0.158458 0.000161934 0)
(0.155628 0.000156565 0)
(0.15293 0.000151959 0)
(0.150348 0.000148059 0)
(0.147867 0.00014483 0)
(0.145475 0.000142228 0)
(0.143158 0.000140254 0)
(0.140907 0.00013885 0)
(0.138709 0.000138085 0)
(0.136557 0.000137824 0)
(0.134436 0.000138282 0)
(0.132342 0.000139112 0)
(0.130259 0.000140853 0)
(0.128184 0.000142676 0)
(0.126107 0.000145739 0)
(0.124006 0.000148363 0)
(0.121919 0.000152548 0)
(0.119726 0.000155741 0)
(0.117663 0.000159816 0)
(0.115252 0.000163807 0)
(0.11339 0.000162735 0)
(0.110478 0.000172051 0)
(0.109291 0.000131097 0)
(0.105674 0.000291294 0)
(0.102948 -0.00207477 0)
(0.991239 0.0499046 0)
(0.890311 0.0307277 0)
(0.762538 0.0146119 0)
(0.656357 0.0079976 0)
(0.584822 0.00490577 0)
(0.535174 0.00349463 0)
(0.497036 0.0027612 0)
(0.466126 0.00227038 0)
(0.440506 0.00190827 0)
(0.418884 0.00163735 0)
(0.400317 0.00143034 0)
(0.384141 0.00126733 0)
(0.369883 0.00113566 0)
(0.357195 0.0010273 0)
(0.345809 0.000936838 0)
(0.335521 0.000860422 0)
(0.326164 0.000795241 0)
(0.317606 0.000739188 0)
(0.309739 0.00069066 0)
(0.302473 0.00064842 0)
(0.295732 0.000611501 0)
(0.289452 0.000579136 0)
(0.283578 0.000550714 0)
(0.278065 0.000525741 0)
(0.27287 0.00050382 0)
(0.267958 0.000484628 0)
(0.263297 0.000467906 0)
(0.258858 0.000453446 0)
(0.254617 0.00044108 0)
(0.25055 0.000430689 0)
(0.246636 0.000422163 0)
(0.242854 0.000415469 0)
(0.239188 0.000410504 0)
(0.235617 0.000407366 0)
(0.232129 0.000405843 0)
(0.228702 0.000406327 0)
(0.225327 0.000408196 0)
(0.22198 0.00041257 0)
(0.218652 0.000417679 0)
(0.21533 0.0004264 0)
(0.211976 0.000434196 0)
(0.208643 0.0004478 0)
(0.205155 0.000456835 0)
(0.201845 0.000475218 0)
(0.198023 0.000482731 0)
(0.194953 0.000500884 0)
(0.190382 0.000509751 0)
(0.18814 0.000458737 0)
(0.182428 0.000683746 0)
(0.179884 -0.00183409 0)
(1.0156 0.0489244 0)
(1.00594 0.0358882 0)
(0.935842 0.0208148 0)
(0.851848 0.0135354 0)
(0.781683 0.00924504 0)
(0.726209 0.00682378 0)
(0.680809 0.00543047 0)
(0.6427 0.00449463 0)
(0.610308 0.00380325 0)
(0.58245 0.003279 0)
(0.558199 0.00287366 0)
(0.536854 0.00255226 0)
(0.517889 0.00229143 0)
(0.500903 0.00207593 0)
(0.485584 0.00189538 0)
(0.471681 0.00174238 0)
(0.458994 0.00161148 0)
(0.447358 0.00149861 0)
(0.436637 0.00140063 0)
(0.426716 0.00131512 0)
(0.417498 0.00124018 0)
(0.408903 0.0011743 0)
(0.400858 0.00111627 0)
(0.393302 0.00106512 0)
(0.386182 0.00102004 0)
(0.379451 0.000980391 0)
(0.373066 0.000945655 0)
(0.36699 0.00091541 0)
(0.36119 0.000889323 0)
(0.355634 0.000867134 0)
(0.350296 0.000848648 0)
(0.345147 0.000833752 0)
(0.340165 0.000822305 0)
(0.335324 0.000814399 0)
(0.330606 0.000809782 0)
(0.325984 0.000808994 0)
(0.321444 0.000811185 0)
(0.316956 0.000818101 0)
(0.312507 0.000826937 0)
(0.308078 0.000842727 0)
(0.303623 0.000857225 0)
(0.299199 0.000883862 0)
(0.294601 0.000900837 0)
(0.290198 0.000940899 0)
(0.285213 0.000953081 0)
(0.281044 0.00100403 0)
(0.275202 0.00101068 0)
(0.271831 0.000974533 0)
(0.264647 0.0011955 0)
(0.261632 -0.00108321 0)
(1.01434 0.0460083 0)
(1.04752 0.0375047 0)
(1.02451 0.0241823 0)
(0.974555 0.0176027 0)
(0.923042 0.0131764 0)
(0.876005 0.0102693 0)
(0.833521 0.00841337 0)
(0.795405 0.00709825 0)
(0.761438 0.00609275 0)
(0.731193 0.00530815 0)
(0.704167 0.00468786 0)
(0.679898 0.00418801 0)
(0.657992 0.00377749 0)
(0.638123 0.00343504 0)
(0.620016 0.00314583 0)
(0.603443 0.00289908 0)
(0.58821 0.00268673 0)
(0.574156 0.00250265 0)
(0.56114 0.0023421 0)
(0.549045 0.00220138 0)
(0.537767 0.00207754 0)
(0.527219 0.00196824 0)
(0.517322 0.00187159 0)
(0.508008 0.00178602 0)
(0.499218 0.0017103 0)
(0.490898 0.00164339 0)
(0.483 0.00158445 0)
(0.47548 0.00153279 0)
(0.468301 0.0014879 0)
(0.461426 0.00144932 0)
(0.454823 0.00141675 0)
(0.44846 0.00138998 0)
(0.442311 0.00136883 0)
(0.436344 0.00135336 0)
(0.43054 0.00134329 0)
(0.424865 0.0013393 0)
(0.419305 0.00134035 0)
(0.413823 0.00134881 0)
(0.408405 0.00136086 0)
(0.403024 0.00138383 0)
(0.397637 0.00140555 0)
(0.392286 0.00144678 0)
(0.386776 0.00147333 0)
(0.38145 0.00153853 0)
(0.375562 0.00155863 0)
(0.370426 0.00164732 0)
(0.363714 0.00165806 0)
(0.359212 0.00164767 0)
(0.351252 0.00184844 0)
(0.347018 -0.00014236 0)
(1.00933 0.04292 0)
(1.05526 0.037282 0)
(1.05864 0.0253317 0)
(1.03623 0.0198122 0)
(1.00681 0.0158803 0)
(0.975537 0.0130187 0)
(0.943724 0.0110548 0)
(0.91251 0.00958261 0)
(0.882757 0.00839976 0)
(0.854861 0.00743729 0)
(0.828914 0.00665071 0)
(0.804861 0.0060003 0)
(0.782591 0.00545512 0)
(0.761967 0.00499279 0)
(0.742847 0.00459695 0)
(0.725094 0.00425531 0)
(0.708578 0.00395837 0)
(0.693182 0.00369876 0)
(0.678799 0.00347061 0)
(0.665331 0.00326927 0)
(0.652693 0.003091 0)
(0.640805 0.00293276 0)
(0.629597 0.00279207 0)
(0.619007 0.00266687 0)
(0.608976 0.00255551 0)
(0.599453 0.00245657 0)
(0.590391 0.00236893 0)
(0.581746 0.00229165 0)
(0.573479 0.00222399 0)
(0.565553 0.00216535 0)
(0.557934 0.00211531 0)
(0.55059 0.00207354 0)
(0.543492 0.00203983 0)
(0.536608 0.0020142 0)
(0.529915 0.0019964 0)
(0.523379 0.00198718 0)
(0.516984 0.0019854 0)
(0.51069 0.00199398 0)
(0.504484 0.00200825 0)
(0.498332 0.00203763 0)
(0.492196 0.00206649 0)
(0.4861 0.00212214 0)
(0.479881 0.00215972 0)
(0.473811 0.00224987 0)
(0.467268 0.00228282 0)
(0.461326 0.00240653 0)
(0.454081 0.00243353 0)
(0.448548 0.00244491 0)
(0.440313 0.00264196 0)
(0.43472 0.000926431 0)
(1.00625 0.040039 0)
(1.05205 0.036356 0)
(1.06605 0.0252644 0)
(1.0595 0.0206189 0)
(1.04666 0.0173184 0)
(1.03042 0.014755 0)
(1.01129 0.0129359 0)
(0.990315 0.0115256 0)
(0.968551 0.0103406 0)
(0.946741 0.00933374 0)
(0.925337 0.00847963 0)
(0.904614 0.0077509 0)
(0.884728 0.00712365 0)
(0.865755 0.00657961 0)
(0.847723 0.00610482 0)
(0.830622 0.00568825 0)
(0.814426 0.00532103 0)
(0.799091 0.00499597 0)
(0.784573 0.0047072 0)
(0.770821 0.00444991 0)
(0.757783 0.00422012 0)
(0.745411 0.00401455 0)
(0.733656 0.00383045 0)
(0.722472 0.00366554 0)
(0.711816 0.00351791 0)
(0.701646 0.00338595 0)
(0.691923 0.00326834 0)
(0.682611 0.00316397 0)
(0.673676 0.00307198 0)
(0.665084 0.00299163 0)
(0.656806 0.00292245 0)
(0.648809 0.00286402 0)
(0.64107 0.00281614 0)
(0.633555 0.00277879 0)
(0.626244 0.00275178 0)
(0.619102 0.00273594 0)
(0.612115 0.00273009 0)
(0.605242 0.00273761 0)
(0.598473 0.00275324 0)
(0.591766 0.00278802 0)
(0.585099 0.00282385 0)
(0.578468 0.00289277 0)
(0.571755 0.00294279 0)
(0.565147 0.00305547 0)
(0.55818 0.00310664 0)
(0.551635 0.00325886 0)
(0.544115 0.00331447 0)
(0.537774 0.00334081 0)
(0.529515 0.00354897 0)
(0.522871 0.00210945 0)
(1.00495 0.0373616 0)
(1.04726 0.0352754 0)
(1.06393 0.0247272 0)
(1.06416 0.0206502 0)
(1.06051 0.0178644 0)
(1.05446 0.0156101 0)
(1.04553 0.0140106 0)
(1.03412 0.0127701 0)
(1.02092 0.011701 0)
(1.00655 0.0107618 0)
(0.991464 0.00993925 0)
(0.976034 0.00921635 0)
(0.96053 0.00857687 0)
(0.945154 0.0080083 0)
(0.930049 0.00750098 0)
(0.915315 0.00704702 0)
(0.901015 0.0066398 0)
(0.887188 0.00627371 0)
(0.873851 0.00594397 0)
(0.861012 0.00564654 0)
(0.848665 0.00537795 0)
(0.836799 0.00513525 0)
(0.825398 0.00491594 0)
(0.814442 0.00471785 0)
(0.80391 0.00453915 0)
(0.793778 0.00437826 0)
(0.784024 0.0042339 0)
(0.774623 0.00410495 0)
(0.765552 0.00399054 0)
(0.756786 0.00388992 0)
(0.748303 0.00380265 0)
(0.740078 0.00372829 0)
(0.73209 0.00366672 0)
(0.724312 0.00361792 0)
(0.716728 0.00358181 0)
(0.709306 0.00355929 0)
(0.702034 0.00354929 0)
(0.694873 0.00355547 0)
(0.687818 0.00357237 0)
(0.680825 0.00361199 0)
(0.673881 0.00365504 0)
(0.666964 0.00373605 0)
(0.660002 0.00379999 0)
(0.653097 0.00393226 0)
(0.645938 0.00400625 0)
(0.639041 0.00418064 0)
(0.631457 0.00427306 0)
(0.624612 0.00431265 0)
(0.616466 0.00453732 0)
(0.609191 0.0033739 0)
(1.0044 0.0348141 0)
(1.04322 0.0342037 0)
(1.0599 0.0240887 0)
(1.0622 0.0203604 0)
(1.06235 0.0179346 0)
(1.06156 0.0159005 0)
(1.05887 0.0144783 0)
(1.05415 0.0134076 0)
(1.04771 0.0124856 0)
(1.03987 0.0116633 0)
(1.0309 0.0109298 0)
(1.02106 0.0102719 0)
(1.01059 0.00967725 0)
(0.999695 0.0091369 0)
(0.988538 0.00864453 0)
(0.977259 0.00819518 0)
(0.965968 0.00778468 0)
(0.954749 0.00740941 0)
(0.943667 0.0070662 0)
(0.932771 0.00675228 0)
(0.922094 0.00646517 0)
(0.91166 0.00620274 0)
(0.901483 0.00596309 0)
(0.891572 0.00574455 0)
(0.881929 0.00554567 0)
(0.872551 0.00536519 0)
(0.863433 0.00520206 0)
(0.854567 0.00505534 0)
(0.845943 0.00492435 0)
(0.837549 0.00480846 0)
(0.829372 0.00470737 0)
(0.821397 0.00462073 0)
(0.813611 0.00454856 0)
(0.805995 0.00449094 0)
(0.798536 0.00444794 0)
(0.791211 0.0044206 0)
(0.784011 0.00440801 0)
(0.776903 0.00441404 0)
(0.769885 0.00443332 0)
(0.762914 0.00447831 0)
(0.755988 0.00452962 0)
(0.749075 0.00462228 0)
(0.742133 0.00470179 0)
(0.73521 0.00485147 0)
(0.728107 0.00495162 0)
(0.721144 0.00514409 0)
(0.713706 0.00527691 0)
(0.706688 0.00533318 0)
(0.698797 0.00557516 0)
(0.691284 0.00467898 0)
(1.00402 0.0323746 0)
(1.0399 0.0331551 0)
(1.05612 0.0234682 0)
(1.05884 0.019976 0)
(1.06008 0.0178096 0)
(1.06135 0.0159123 0)
(1.06162 0.0145939 0)
(1.06059 0.0136416 0)
(1.05836 0.0128396 0)
(1.05502 0.0121276 0)
(1.05067 0.0114917 0)
(1.04541 0.0109182 0)
(1.03938 0.0103947 0)
(1.0327 0.00991253 0)
(1.0255 0.00946662 0)
(1.01789 0.0090533 0)
(1.00998 0.00866982 0)
(1.00184 0.00831394 0)
(0.993569 0.00798376 0)
(0.985216 0.00767763 0)
(0.976836 0.0073941 0)
(0.968473 0.00713187 0)
(0.960161 0.0068898 0)
(0.951926 0.00666686 0)
(0.943788 0.00646214 0)
(0.935763 0.00627484 0)
(0.92786 0.00610431 0)
(0.920086 0.00594995 0)
(0.912443 0.00581138 0)
(0.904931 0.00568822 0)
(0.897549 0.0055804 0)
(0.890291 0.00548777 0)
(0.883152 0.00541058 0)
(0.876121 0.00534906 0)
(0.869193 0.00530352 0)
(0.862352 0.00527514 0)
(0.855594 0.00526327 0)
(0.848892 0.00527196 0)
(0.842249 0.00529614 0)
(0.835629 0.00534834 0)
(0.829033 0.00540989 0)
(0.82243 0.0055149 0)
(0.815796 0.0056119 0)
(0.809149 0.00577816 0)
(0.802364 0.00590675 0)
(0.795633 0.00611564 0)
(0.788567 0.00628943 0)
(0.781703 0.00636854 0)
(0.774242 0.00662812 0)
(0.76685 0.00598155 0)
(1.00364 0.0300347 0)
(1.03691 0.0321092 0)
(1.05278 0.0228811 0)
(1.0556 0.0195747 0)
(1.05698 0.0176228 0)
(1.05881 0.015819 0)
(1.06016 0.0145501 0)
(1.06074 0.0136634 0)
(1.0606 0.0129381 0)
(1.05977 0.012304 0)
(1.05825 0.0117445 0)
(1.05604 0.0112443 0)
(1.05319 0.0107892 0)
(1.04973 0.0103696 0)
(1.04574 0.00997957 0)
(1.04127 0.00961536 0)
(1.03639 0.00927439 0)
(1.03117 0.00895478 0)
(1.02566 0.00865515 0)
(1.01991 0.00837442 0)
(1.01397 0.00811173 0)
(1.0079 0.00786637 0)
(1.00172 0.00763773 0)
(0.995466 0.00742533 0)
(0.989169 0.00722874 0)
(0.982851 0.0070476 0)
(0.97653 0.00688167 0)
(0.970221 0.00673073 0)
(0.963935 0.00659473 0)
(0.957682 0.0064736 0)
(0.951466 0.00636755 0)
(0.945291 0.00627669 0)
(0.939158 0.00620151 0)
(0.933065 0.00614247 0)
(0.927012 0.00610013 0)
(0.920989 0.00607589 0)
(0.914998 0.00606934 0)
(0.90902 0.00608474 0)
(0.90306 0.00611741 0)
(0.89709 0.00617977 0)
(0.891115 0.00625433 0)
(0.885108 0.00637337 0)
(0.879055 0.0064901 0)
(0.872962 0.00667324 0)
(0.866749 0.0068319 0)
(0.860527 0.00705741 0)
(0.854061 0.0072711 0)
(0.847648 0.00738001 0)
(0.840812 0.00765839 0)
(0.833855 0.00723813 0)
(1.00327 0.0277955 0)
(1.03408 0.0310521 0)
(1.04966 0.0223206 0)
(1.05264 0.0191715 0)
(1.05398 0.0174173 0)
(1.05586 0.0156966 0)
(1.05749 0.0144513 0)
(1.0586 0.0135969 0)
(1.05928 0.0129148 0)
(1.05958 0.012327 0)
(1.05948 0.0118158 0)
(1.05895 0.0113658 0)
(1.05798 0.0109617 0)
(1.05658 0.0105924 0)
(1.05476 0.010251 0)
(1.05253 0.00993281 0)
(1.04994 0.00963485 0)
(1.047 0.00935491 0)
(1.04376 0.00909146 0)
(1.04023 0.00884343 0)
(1.03647 0.00861008 0)
(1.03249 0.00839087 0)
(1.02832 0.00818544 0)
(1.024 0.00799355 0)
(1.01955 0.00781505 0)
(1.01499 0.00764988 0)
(1.01035 0.0074981 0)
(1.00562 0.00735976 0)
(1.00084 0.00723511 0)
(0.996015 0.00712433 0)
(0.99115 0.0070279 0)
(0.986254 0.00694618 0)
(0.981335 0.00687989 0)
(0.976393 0.00682973 0)
(0.971433 0.00679648 0)
(0.966451 0.00678179 0)
(0.96145 0.00678547 0)
(0.956421 0.00681199 0)
(0.951367 0.0068571 0)
(0.946272 0.00693294 0)
(0.941138 0.00702355 0)
(0.935949 0.00715875 0)
(0.930694 0.00729742 0)
(0.925375 0.00749839 0)
(0.919943 0.00768805 0)
(0.914457 0.0079315 0)
(0.908782 0.00818307 0)
(0.903062 0.00832821 0)
(0.897024 0.00862745 0)
(0.890762 0.00840742 0)
(1.00292 0.0256603 0)
(1.03137 0.0299793 0)
(1.04666 0.0217822 0)
(1.04985 0.0187663 0)
(1.05117 0.0172 0)
(1.05301 0.0155672 0)
(1.05467 0.014339 0)
(1.05589 0.013502 0)
(1.05681 0.0128451 0)
(1.05751 0.0122836 0)
(1.05798 0.0117998 0)
(1.05821 0.0113796 0)
(1.05817 0.0110075 0)
(1.05786 0.0106718 0)
(1.05728 0.0103648 0)
(1.05642 0.0100814 0)
(1.05528 0.00981783 0)
(1.05388 0.00957145 0)
(1.05222 0.00934039 0)
(1.05032 0.00912329 0)
(1.04819 0.00891924 0)
(1.04585 0.00872758 0)
(1.04332 0.00854792 0)
(1.04061 0.00838003 0)
(1.03774 0.00822383 0)
(1.03473 0.00807936 0)
(1.03159 0.00794681 0)
(1.02833 0.00782639 0)
(1.02497 0.00771851 0)
(1.02152 0.00762353 0)
(1.01798 0.00754211 0)
(1.01437 0.0074748 0)
(1.01069 0.0074225 0)
(1.00694 0.00738612 0)
(1.00313 0.00736659 0)
(0.999266 0.0073658 0)
(0.995341 0.00738374 0)
(0.991354 0.00742504 0)
(0.98731 0.0074859 0)
(0.983198 0.00757804 0)
(0.979022 0.00768723 0)
(0.974769 0.0078404 0)
(0.970436 0.0080026 0)
(0.96602 0.00822234 0)
(0.961495 0.00844297 0)
(0.956885 0.00870595 0)
(0.952121 0.00899264 0)
(0.947254 0.00917885 0)
(0.942131 0.00950127 0)
(0.936738 0.0094546 0)
(1.0026 0.0236317 0)
(1.02878 0.0288897 0)
(1.04374 0.0212649 0)
(1.04716 0.0183592 0)
(1.04849 0.0169693 0)
(1.05029 0.0154335 0)
(1.05194 0.0142244 0)
(1.05317 0.0134 0)
(1.05413 0.0127615 0)
(1.05492 0.0122174 0)
(1.05557 0.0117498 0)
(1.05607 0.0113467 0)
(1.05641 0.0109932 0)
(1.05658 0.0106777 0)
(1.05659 0.0103923 0)
(1.05642 0.0101316 0)
(1.05608 0.00989149 0)
(1.05555 0.00966912 0)
(1.05485 0.00946228 0)
(1.05397 0.00926938 0)
(1.05291 0.00908925 0)
(1.05168 0.00892106 0)
(1.0503 0.00876426 0)
(1.04875 0.0086185 0)
(1.04707 0.00848366 0)
(1.04524 0.00835973 0)
(1.04329 0.00824691 0)
(1.04121 0.00814545 0)
(1.03902 0.00805582 0)
(1.03672 0.00797848 0)
(1.03433 0.00791415 0)
(1.03184 0.00786353 0)
(1.02926 0.0078276 0)
(1.02659 0.00780744 0)
(1.02384 0.00780404 0)
(1.02102 0.00781952 0)
(1.01811 0.00785395 0)
(1.01513 0.00791209 0)
(1.01206 0.00799056 0)
(1.00892 0.00810052 0)
(1.0057 0.0082296 0)
(1.00239 0.00840152 0)
(0.998986 0.00858768 0)
(0.995494 0.00882647 0)
(0.991899 0.00907681 0)
(0.988203 0.0093604 0)
(0.984379 0.00967875 0)
(0.980422 0.00990849 0)
(0.976249 0.010256 0)
(0.971797 0.0103562 0)
(1.0023 0.0217117 0)
(1.02632 0.0277839 0)
(1.04091 0.0207669 0)
(1.04455 0.0179516 0)
(1.0459 0.016724 0)
(1.04767 0.0152941 0)
(1.04932 0.0141086 0)
(1.05055 0.0132962 0)
(1.05149 0.0126743 0)
(1.05229 0.012145 0)
(1.05297 0.0116893 0)
(1.05353 0.0112974 0)
(1.05399 0.0109556 0)
(1.05434 0.0106524 0)
(1.05458 0.0103801 0)
(1.05471 0.0101333 0)
(1.05473 0.00990799 0)
(1.05463 0.00970115 0)
(1.05442 0.00951049 0)
(1.05408 0.00933429 0)
(1.05363 0.00917124 0)
(1.05306 0.00902039 0)
(1.05237 0.00888105 0)
(1.05157 0.00875277 0)
(1.05065 0.00863532 0)
(1.04962 0.00852863 0)
(1.04848 0.00843285 0)
(1.04724 0.00834822 0)
(1.0459 0.0082752 0)
(1.04446 0.00821427 0)
(1.04293 0.0081662 0)
(1.04131 0.00813174 0)
(1.0396 0.00811189 0)
(1.0378 0.00810786 0)
(1.03592 0.00812066 0)
(1.03395 0.00815253 0)
(1.0319 0.00820363 0)
(1.02977 0.00827874 0)
(1.02756 0.0083749 0)
(1.02526 0.00850256 0)
(1.02289 0.00865126 0)
(1.02042 0.00884141 0)
(1.01787 0.0090505 0)
(1.01522 0.00930761 0)
(1.01248 0.00958505 0)
(1.00964 0.00988931 0)
(1.00669 0.0102353 0)
(1.0036 0.0105084 0)
(1.00032 0.0108819 0)
(0.99678 0.011104 0)
(1.00203 0.0199009 0)
(1.024 0.0266651 0)
(1.03818 0.0202853 0)
(1.04203 0.0175454 0)
(1.0434 0.0164641 0)
(1.04515 0.0151475 0)
(1.04679 0.0139912 0)
(1.04802 0.0131908 0)
(1.04895 0.0125856 0)
(1.04973 0.012071 0)
(1.0504 0.0116263 0)
(1.05097 0.0112437 0)
(1.05145 0.0109107 0)
(1.05184 0.0106164 0)
(1.05214 0.010353 0)
(1.05238 0.0101153 0)
(1.05253 0.00989942 0)
(1.05261 0.00970251 0)
(1.05261 0.00952229 0)
(1.05253 0.00935701 0)
(1.05237 0.00920536 0)
(1.05213 0.00906633 0)
(1.05182 0.00893917 0)
(1.05142 0.00882338 0)
(1.05094 0.00871867 0)
(1.05038 0.00862494 0)
(1.04974 0.00854227 0)
(1.04902 0.00847088 0)
(1.04822 0.00841123 0)
(1.04734 0.00836382 0)
(1.04639 0.00832939 0)
(1.04536 0.00830876 0)
(1.04426 0.0083029 0)
(1.04308 0.00831312 0)
(1.04183 0.0083404 0)
(1.0405 0.00838709 0)
(1.0391 0.00845337 0)
(1.03762 0.00854396 0)
(1.03607 0.00865637 0)
(1.03444 0.00880016 0)
(1.03273 0.00896683 0)
(1.03095 0.00917346 0)
(1.02908 0.00940317 0)
(1.02713 0.00967688 0)
(1.0251 0.00997777 0)
(1.02298 0.0103016 0)
(1.02077 0.0106707 0)
(1.01842 0.0109849 0)
(1.01592 0.0113842 0)
(1.01318 0.011705 0)
(1.00179 0.0181996 0)
(1.02182 0.0255372 0)
(1.03554 0.0198161 0)
(1.03959 0.0171424 0)
(1.041 0.0161905 0)
(1.04271 0.0149928 0)
(1.04435 0.0138715 0)
(1.04558 0.0130836 0)
(1.0465 0.0124952 0)
(1.04727 0.011996 0)
(1.04793 0.0115626 0)
(1.04848 0.0111891 0)
(1.04895 0.0108643 0)
(1.04934 0.0105776 0)
(1.04965 0.0103215 0)
(1.0499 0.0100908 0)
(1.05009 0.00988196 0)
(1.05023 0.00969213 0)
(1.0503 0.00951914 0)
(1.05032 0.00936133 0)
(1.05028 0.00921742 0)
(1.05019 0.00908642 0)
(1.05004 0.0089676 0)
(1.04983 0.00886046 0)
(1.04957 0.00876468 0)
(1.04925 0.00868016 0)
(1.04887 0.00860697 0)
(1.04844 0.00854534 0)
(1.04794 0.00849571 0)
(1.0474 0.00845861 0)
(1.04679 0.00843477 0)
(1.04612 0.00842506 0)
(1.0454 0.00843044 0)
(1.04462 0.00845227 0)
(1.04377 0.00849151 0)
(1.04287 0.00855056 0)
(1.0419 0.00862966 0)
(1.04087 0.00873338 0)
(1.03977 0.00885971 0)
(1.03862 0.00901723 0)
(1.03739 0.00919936 0)
(1.0361 0.00942002 0)
(1.03474 0.00966727 0)
(1.03332 0.00995527 0)
(1.03182 0.0102754 0)
(1.03025 0.010617 0)
(1.0286 0.0110049 0)
(1.02684 0.011356 0)
(1.02494 0.01178 0)
(1.02284 0.0121793 0)
(1.00157 0.0166074 0)
(1.01977 0.0244041 0)
(1.03301 0.0193553 0)
(1.03724 0.0167445 0)
(1.03869 0.0159044 0)
(1.04036 0.0148293 0)
(1.04199 0.0137494 0)
(1.04322 0.0129746 0)
(1.04414 0.0124029 0)
(1.0449 0.0119199 0)
(1.04554 0.0114985 0)
(1.04608 0.0111343 0)
(1.04654 0.0108178 0)
(1.04691 0.0105386 0)
(1.04722 0.0102893 0)
(1.04747 0.0100651 0)
(1.04766 0.00986236 0)
(1.04779 0.00967846 0)
(1.04788 0.0095113 0)
(1.04793 0.00935931 0)
(1.04793 0.00922128 0)
(1.04788 0.00909626 0)
(1.04779 0.00898357 0)
(1.04766 0.00888272 0)
(1.04749 0.00879342 0)
(1.04728 0.00871557 0)
(1.04702 0.00864927 0)
(1.04672 0.00859478 0)
(1.04638 0.00855255 0)
(1.046 0.00852315 0)
(1.04557 0.00850732 0)
(1.0451 0.00850597 0)
(1.04459 0.00852005 0)
(1.04403 0.008551 0)
(1.04342 0.00859974 0)
(1.04276 0.0086687 0)
(1.04206 0.00875821 0)
(1.0413 0.00887259 0)
(1.0405 0.00901038 0)
(1.03964 0.00917914 0)
(1.03872 0.00937406 0)
(1.03776 0.00960621 0)
(1.03674 0.00986777 0)
(1.03566 0.0101677 0)
(1.03454 0.0105031 0)
(1.03334 0.0108601 0)
(1.03209 0.011263 0)
(1.03074 0.0116464 0)
(1.02927 0.0120933 0)
(1.02764 0.0125539 0)
(1.00137 0.0151236 0)
(1.01786 0.0232698 0)
(1.03058 0.018899 0)
(1.03498 0.016353 0)
(1.03647 0.0156071 0)
(1.0381 0.0146565 0)
(1.03972 0.0136244 0)
(1.04096 0.0128639 0)
(1.04187 0.0123088 0)
(1.04262 0.0118425 0)
(1.04325 0.0114338 0)
(1.04378 0.0110793 0)
(1.04422 0.0107713 0)
(1.04458 0.0104998 0)
(1.04487 0.0102575 0)
(1.04511 0.0100397 0)
(1.04529 0.00984294 0)
(1.04542 0.00966465 0)
(1.04551 0.00950289 0)
(1.04555 0.00935613 0)
(1.04555 0.00922323 0)
(1.04551 0.00910331 0)
(1.04544 0.00899571 0)
(1.04533 0.00889998 0)
(1.04519 0.00881587 0)
(1.04501 0.00874331 0)
(1.0448 0.00868243 0)
(1.04456 0.00863351 0)
(1.04428 0.00859705 0)
(1.04397 0.00857364 0)
(1.04363 0.00856405 0)
(1.04325 0.00856926 0)
(1.04284 0.00859021 0)
(1.04239 0.00862839 0)
(1.0419 0.00868474 0)
(1.04137 0.00876166 0)
(1.04081 0.00885961 0)
(1.0402 0.00898263 0)
(1.03956 0.0091298 0)
(1.03887 0.00930768 0)
(1.03814 0.00951305 0)
(1.03736 0.00975456 0)
(1.03655 0.0100276 0)
(1.03569 0.0103374 0)
(1.03478 0.0106848 0)
(1.03383 0.0110552 0)
(1.03282 0.0114702 0)
(1.03174 0.0118812 0)
(1.03056 0.0123493 0)
(1.02924 0.0128576 0)
(1.00119 0.0137464 0)
(1.01609 0.0221384 0)
(1.02825 0.0184436 0)
(1.0328 0.0159692 0)
(1.03434 0.0153005 0)
(1.03593 0.0144738 0)
(1.03755 0.0134961 0)
(1.03878 0.0127514 0)
(1.03969 0.0122127 0)
(1.04043 0.0117637 0)
(1.04104 0.0113683 0)
(1.04156 0.0110241 0)
(1.04199 0.0107249 0)
(1.04234 0.0104613 0)
(1.04262 0.0102263 0)
(1.04285 0.010015 0)
(1.04302 0.00982428 0)
(1.04314 0.00965166 0)
(1.04321 0.00949526 0)
(1.04324 0.00935363 0)
(1.04324 0.00922568 0)
(1.0432 0.00911058 0)
(1.04312 0.00900772 0)
(1.04301 0.00891668 0)
(1.04288 0.00883723 0)
(1.04271 0.00876934 0)
(1.04251 0.00871318 0)
(1.04228 0.00866907 0)
(1.04202 0.00863752 0)
(1.04174 0.0086192 0)
(1.04142 0.00861489 0)
(1.04108 0.00862563 0)
(1.04071 0.00865237 0)
(1.0403 0.00869663 0)
(1.03987 0.0087594 0)
(1.03941 0.00884302 0)
(1.03891 0.00894809 0)
(1.03838 0.00907837 0)
(1.03781 0.00923345 0)
(1.03721 0.00941898 0)
(1.03657 0.00963309 0)
(1.0359 0.00988246 0)
(1.03519 0.010165 0)
(1.03445 0.0104832 0)
(1.03367 0.01084 0)
(1.03285 0.0112223 0)
(1.03199 0.0116475 0)
(1.03106 0.012082 0)
(1.03005 0.0125698 0)
(1.02892 0.0131154 0)
(1.00104 0.0124736 0)
(1.01445 0.0210141 0)
(1.02604 0.0179855 0)
(1.03071 0.0155938 0)
(1.03231 0.0149864 0)
(1.03386 0.0142808 0)
(1.03546 0.013364 0)
(1.0367 0.0126372 0)
(1.03761 0.0121146 0)
(1.03833 0.0116834 0)
(1.03893 0.0113021 0)
(1.03944 0.0109686 0)
(1.03986 0.0106785 0)
(1.0402 0.0104231 0)
(1.04047 0.0101955 0)
(1.04068 0.00999099 0)
(1.04084 0.00980651 0)
(1.04095 0.0096397 0)
(1.04101 0.00948877 0)
(1.04104 0.00935234 0)
(1.04102 0.00922939 0)
(1.04097 0.00911912 0)
(1.04089 0.00902095 0)
(1.04077 0.0089345 0)
(1.04063 0.00885959 0)
(1.04045 0.00879619 0)
(1.04025 0.00874451 0)
(1.04002 0.00870492 0)
(1.03977 0.00867795 0)
(1.03949 0.00866433 0)
(1.03918 0.00866487 0)
(1.03885 0.00868064 0)
(1.03849 0.00871265 0)
(1.0381 0.00876242 0)
(1.03769 0.00883098 0)
(1.03724 0.00892061 0)
(1.03677 0.00903209 0)
(1.03627 0.00916885 0)
(1.03574 0.00933099 0)
(1.03518 0.00952332 0)
(1.03459 0.00974511 0)
(1.03396 0.0100015 0)
(1.03331 0.0102921 0)
(1.03263 0.0106179 0)
(1.03191 0.0109827 0)
(1.03116 0.0113757 0)
(1.03037 0.0118102 0)
(1.02953 0.0122651 0)
(1.02861 0.0127714 0)
(1.02759 0.0133468 0)
(1.0009 0.0113023 0)
(1.01294 0.0199015 0)
(1.02395 0.0175217 0)
(1.02871 0.0152274 0)
(1.03038 0.014667 0)
(1.03188 0.0140772 0)
(1.03345 0.0132275 0)
(1.0347 0.0125214 0)
(1.03561 0.0120145 0)
(1.03632 0.0116014 0)
(1.03691 0.011235 0)
(1.03741 0.0109127 0)
(1.03782 0.010632 0)
(1.03815 0.0103851 0)
(1.03841 0.0101652 0)
(1.03861 0.00996769 0)
(1.03876 0.00978963 0)
(1.03886 0.0096288 0)
(1.03891 0.00948349 0)
(1.03892 0.0093524 0)
(1.0389 0.00923455 0)
(1.03884 0.0091292 0)
(1.03875 0.00903581 0)
(1.03862 0.00895401 0)
(1.03847 0.00888365 0)
(1.03829 0.00882475 0)
(1.03808 0.00877754 0)
(1.03785 0.00874242 0)
(1.03759 0.00871997 0)
(1.03731 0.00871095 0)
(1.037 0.00871621 0)
(1.03666 0.00873687 0)
(1.0363 0.00877395 0)
(1.03592 0.008829 0)
(1.03551 0.0089031 0)
(1.03507 0.00899847 0)
(1.03461 0.00911602 0)
(1.03412 0.00925891 0)
(1.0336 0.00942766 0)
(1.03305 0.00962641 0)
(1.03248 0.00985528 0)
(1.03188 0.0101183 0)
(1.03125 0.0104162 0)
(1.03059 0.0107493 0)
(1.0299 0.0111214 0)
(1.02918 0.0115244 0)
(1.02843 0.011968 0)
(1.02762 0.0124411 0)
(1.02675 0.0129651 0)
(1.0258 0.013565 0)
(1.00078 0.010229 0)
(1.01156 0.0188048 0)
(1.02196 0.0170496 0)
(1.02679 0.01487 0)
(1.02853 0.0143443 0)
(1.03 0.0138631 0)
(1.03154 0.013086 0)
(1.03279 0.0124038 0)
(1.0337 0.0119126 0)
(1.0344 0.0115177 0)
(1.03499 0.0111669 0)
(1.03548 0.0108564 0)
(1.03587 0.0105854 0)
(1.03619 0.0103473 0)
(1.03644 0.0101353 0)
(1.03663 0.00994504 0)
(1.03677 0.00977361 0)
(1.03686 0.00961893 0)
(1.0369 0.00947941 0)
(1.03691 0.0093538 0)
(1.03688 0.0092412 0)
(1.03681 0.0091409 0)
(1.03671 0.00905239 0)
(1.03658 0.00897535 0)
(1.03642 0.00890964 0)
(1.03623 0.00885532 0)
(1.03601 0.00881263 0)
(1.03577 0.00878204 0)
(1.03551 0.00876415 0)
(1.03522 0.00875976 0)
(1.0349 0.00876976 0)
(1.03457 0.00879531 0)
(1.0342 0.00883745 0)
(1.03382 0.00889775 0)
(1.03341 0.00897735 0)
(1.03297 0.00907838 0)
(1.0325 0.00920191 0)
(1.03202 0.00935083 0)
(1.0315 0.00952604 0)
(1.03096 0.00973109 0)
(1.03039 0.00996678 0)
(1.02979 0.0102363 0)
(1.02917 0.0105411 0)
(1.02853 0.0108814 0)
(1.02785 0.0112606 0)
(1.02715 0.0116733 0)
(1.02641 0.0121263 0)
(1.02562 0.0126158 0)
(1.02478 0.0131568 0)
(1.02386 0.0137777 0)
(1.00067 0.0092496 0)
(1.0103 0.0177286 0)
(1.02009 0.0165668 0)
(1.02495 0.0145213 0)
(1.02677 0.0140204 0)
(1.02821 0.0136388 0)
(1.02972 0.0129389 0)
(1.03097 0.0122844 0)
(1.03188 0.0118089 0)
(1.03257 0.0114321 0)
(1.03315 0.0110976 0)
(1.03363 0.0107995 0)
(1.03402 0.0105387 0)
(1.03433 0.0103096 0)
(1.03457 0.0101058 0)
(1.03475 0.00992301 0)
(1.03488 0.00975842 0)
(1.03496 0.00961008 0)
(1.035 0.00947651 0)
(1.03499 0.00935655 0)
(1.03495 0.00924934 0)
(1.03487 0.00915422 0)
(1.03476 0.00907072 0)
(1.03463 0.00899855 0)
(1.03446 0.0089376 0)
(1.03426 0.00888795 0)
(1.03404 0.0088499 0)
(1.03379 0.00882392 0)
(1.03352 0.00881067 0)
(1.03323 0.00881099 0)
(1.03291 0.00882581 0)
(1.03257 0.0088563 0)
(1.0322 0.00890357 0)
(1.03181 0.00896918 0)
(1.0314 0.00905432 0)
(1.03096 0.00916105 0)
(1.03049 0.00929057 0)
(1.03 0.00944556 0)
(1.02949 0.00962718 0)
(1.02894 0.00983857 0)
(1.02838 0.010081 0)
(1.02778 0.0103571 0)
(1.02717 0.0106688 0)
(1.02652 0.0110164 0)
(1.02586 0.0114027 0)
(1.02516 0.011825 0)
(1.02442 0.0122877 0)
(1.02365 0.0127924 0)
(1.02281 0.0133499 0)
(1.02192 0.0139893 0)
(1.00058 0.00835954 0)
(1.00916 0.0166771 0)
(1.01833 0.0160717 0)
(1.0232 0.0141808 0)
(1.0251 0.0136972 0)
(1.02651 0.0134048 0)
(1.02799 0.0127855 0)
(1.02923 0.0121628 0)
(1.03014 0.0117034 0)
(1.03083 0.0113446 0)
(1.0314 0.0110271 0)
(1.03187 0.0107421 0)
(1.03225 0.0104917 0)
(1.03255 0.0102719 0)
(1.03279 0.0100766 0)
(1.03296 0.00990155 0)
(1.03308 0.00974401 0)
(1.03315 0.00960221 0)
(1.03318 0.00947477 0)
(1.03317 0.00936062 0)
(1.03312 0.00925894 0)
(1.03303 0.00916915 0)
(1.03292 0.00909079 0)
(1.03277 0.00902362 0)
(1.0326 0.00896754 0)
(1.0324 0.00892268 0)
(1.03217 0.00888935 0)
(1.03192 0.00886809 0)
(1.03164 0.00885958 0)
(1.03134 0.00886471 0)
(1.03102 0.00888443 0)
(1.03067 0.00891996 0)
(1.0303 0.00897245 0)
(1.0299 0.00904344 0)
(1.02949 0.0091342 0)
(1.02904 0.0092467 0)
(1.02858 0.00938228 0)
(1.02809 0.0095434 0)
(1.02757 0.00973147 0)
(1.02703 0.00994929 0)
(1.02646 0.0101984 0)
(1.02587 0.0104813 0)
(1.02526 0.0107998 0)
(1.02462 0.0111548 0)
(1.02395 0.0115486 0)
(1.02325 0.0119803 0)
(1.02253 0.0124531 0)
(1.02175 0.0129722 0)
(1.02093 0.0135455 0)
(1.02005 0.0142016 0)
(1.0005 0.00755375 0)
(1.00812 0.0156547 0)
(1.01669 0.0155634 0)
(1.02154 0.0138475 0)
(1.02352 0.0133765 0)
(1.0249 0.013162 0)
(1.02634 0.0126253 0)
(1.02757 0.0120389 0)
(1.02849 0.0115961 0)
(1.02918 0.0112552 0)
(1.02974 0.0109551 0)
(1.0302 0.0106838 0)
(1.03057 0.0104444 0)
(1.03087 0.0102343 0)
(1.03109 0.0100477 0)
(1.03126 0.0098806 0)
(1.03137 0.00973035 0)
(1.03144 0.00959529 0)
(1.03146 0.00947416 0)
(1.03144 0.00936598 0)
(1.03138 0.00927 0)
(1.03129 0.00918567 0)
(1.03117 0.00911259 0)
(1.03101 0.00905053 0)