/*--------------------------------*- C++ -*----------------------------------*\
  =========                 |
  \\      /  F ield         | OpenFOAM: The Open Source CFD Toolbox
   \\    /   O peration     | Website:  https://openfoam.org
    \\  /    A nd           | Version:  7
     \\/     M anipulation  |
\*---------------------------------------------------------------------------*/
FoamFile
{
    version     2.0;
    format      ascii;
    class       volVectorField;
    location    "0.07";
    object      U_0;
}
// * * * * * * * * * * * * * * * * * * * * * * * * * * * * * * * * * * * * * //

dimensions      [0 1 -1 0 0 0 0];

internalField   nonuniform List<vector> 
70000
(
(0.553386 0.0167234 0)
(0.25123 0.0034016 0)
(0.166127 0.000322657 0)
(0.132327 5.48101e-05 0)
(0.117078 4.62448e-05 0)
(0.10709 5.44398e-05 0)
(0.0990724 4.68259e-05 0)
(0.0925604 3.75152e-05 0)
(0.0872423 3.12308e-05 0)
(0.0827987 2.69303e-05 0)
(0.0790022 2.36556e-05 0)
(0.075705 2.10345e-05 0)
(0.0728062 1.8899e-05 0)
(0.0702317 1.7137e-05 0)
(0.0679252 1.5666e-05 0)
(0.065843 1.4425e-05 0)
(0.0639506 1.33688e-05 0)
(0.0622203 1.24634e-05 0)
(0.0606293 1.16828e-05 0)
(0.0591591 1.10071e-05 0)
(0.057794 1.04205e-05 0)
(0.0565209 9.91073e-06 0)
(0.0553284 9.4678e-06 0)
(0.0542069 9.084e-06 0)
(0.0531479 8.75262e-06 0)
(0.0521441 8.46921e-06 0)
(0.0511888 8.22836e-06 0)
(0.0502761 8.0285e-06 0)
(0.0494009 7.86395e-06 0)
(0.0485583 7.73679e-06 0)
(0.0477439 7.63787e-06 0)
(0.0469534 7.57763e-06 0)
(0.0461834 7.5342e-06 0)
(0.0454296 7.53826e-06 0)
(0.0446897 7.5376e-06 0)
(0.0439587 7.60481e-06 0)
(0.0432356 7.62918e-06 0)
(0.0425153 7.74932e-06 0)
(0.0417965 7.78372e-06 0)
(0.0410772 7.89773e-06 0)
(0.0403491 7.98493e-06 0)
(0.039629 7.84113e-06 0)
(0.038872 8.2883e-06 0)
(0.0381708 7.00098e-06 0)
(0.0373446 9.01287e-06 0)
(0.0367413 3.83237e-06 0)
(0.0357497 1.12557e-05 0)
(0.0354532 -5.9088e-06 0)
(0.034257 1.82714e-05 0)
(0.032217 -0.00125183 0)
(0.884897 0.0431691 0)
(0.649667 0.0201981 0)
(0.494173 0.00660417 0)
(0.403385 0.00277457 0)
(0.354308 0.00155988 0)
(0.322835 0.00114027 0)
(0.29879 0.000919684 0)
(0.279398 0.000756222 0)
(0.263484 0.000633698 0)
(0.250159 0.00054318 0)
(0.238774 0.000474449 0)
(0.22889 0.000420356 0)
(0.220202 0.000376653 0)
(0.212487 0.000340703 0)
(0.205577 0.000310716 0)
(0.199341 0.000285415 0)
(0.193675 0.000263859 0)
(0.188497 0.000245347 0)
(0.183739 0.000229345 0)
(0.179346 0.000215439 0)
(0.17527 0.000203309 0)
(0.171472 0.000192699 0)
(0.167919 0.000183407 0)
(0.164581 0.00017527 0)
(0.161434 0.000168156 0)
(0.158455 0.00016196 0)
(0.155625 0.000156594 0)
(0.152926 0.000151993 0)
(0.150344 0.000148098 0)
(0.147862 0.000144874 0)
(0.14547 0.000142278 0)
(0.143153 0.000140313 0)
(0.140901 0.000138918 0)
(0.138703 0.000138164 0)
(0.13655 0.000137914 0)
(0.134428 0.000138388 0)
(0.132332 0.000139236 0)
(0.130249 0.000140999 0)
(0.128171 0.000142847 0)
(0.126093 0.000145943 0)
(0.123989 0.000148603 0)
(0.1219 0.000152838 0)
(0.119703 0.000156083 0)
(0.117637 0.000160235 0)
(0.11522 0.000164302 0)
(0.113354 0.000163354 0)
(0.110434 0.000172773 0)
(0.109241 0.000132078 0)
(0.105608 0.000292251 0)
(0.10288 -0.00207083 0)
(0.991239 0.0499046 0)
(0.890311 0.0307277 0)
(0.762537 0.0146119 0)
(0.656356 0.00799765 0)
(0.58482 0.00490581 0)
(0.535172 0.00349467 0)
(0.497034 0.00276124 0)
(0.466123 0.00227041 0)
(0.440503 0.00190829 0)
(0.418881 0.00163736 0)
(0.400314 0.00143034 0)
(0.384138 0.00126733 0)
(0.36988 0.00113566 0)
(0.357192 0.0010273 0)
(0.345807 0.000936833 0)
(0.335518 0.000860418 0)
(0.326162 0.000795238 0)
(0.317604 0.000739187 0)
(0.309738 0.000690662 0)
(0.302471 0.000648426 0)
(0.29573 0.00061151 0)
(0.28945 0.00057915 0)
(0.283577 0.000550733 0)
(0.278064 0.000525766 0)
(0.272869 0.000503851 0)
(0.267957 0.000484667 0)
(0.263296 0.000467952 0)
(0.258857 0.000453501 0)
(0.254616 0.000441146 0)
(0.250548 0.000430767 0)
(0.246634 0.000422255 0)
(0.242852 0.000415577 0)
(0.239185 0.000410632 0)
(0.235614 0.000407517 0)
(0.232125 0.000406022 0)
(0.228697 0.00040654 0)
(0.225321 0.00040845 0)
(0.221973 0.000412873 0)
(0.218643 0.000418042 0)
(0.215319 0.000426839 0)
(0.211962 0.000434723 0)
(0.208626 0.000448445 0)
(0.205135 0.000457609 0)
(0.20182 0.000476181 0)
(0.197992 0.000483879 0)
(0.194916 0.000502357 0)
(0.190335 0.000511461 0)
(0.188085 0.000461141 0)
(0.182353 0.000686255 0)
(0.179803 -0.00182783 0)
(1.0156 0.0489244 0)
(1.00594 0.0358882 0)
(0.935841 0.0208149 0)
(0.851847 0.0135355 0)
(0.781681 0.00924513 0)
(0.726206 0.00682386 0)
(0.680806 0.00543053 0)
(0.642697 0.00449468 0)
(0.610304 0.00380328 0)
(0.582447 0.00327901 0)
(0.558196 0.00287366 0)
(0.536851 0.00255224 0)
(0.517886 0.00229141 0)
(0.500901 0.0020759 0)
(0.485582 0.00189535 0)
(0.471679 0.00174235 0)
(0.458993 0.00161146 0)
(0.447357 0.00149858 0)
(0.436636 0.0014006 0)
(0.426716 0.0013151 0)
(0.417499 0.00124017 0)
(0.408903 0.0011743 0)
(0.400859 0.00111628 0)
(0.393303 0.00106513 0)
(0.386184 0.00102006 0)
(0.379453 0.000980422 0)
(0.373068 0.000945699 0)
(0.366992 0.000915467 0)
(0.361193 0.000889396 0)
(0.355637 0.000867226 0)
(0.350298 0.000848761 0)
(0.345149 0.000833891 0)
(0.340167 0.000822475 0)
(0.335326 0.000814605 0)
(0.330608 0.000810032 0)
(0.325984 0.000809298 0)
(0.321444 0.000811554 0)
(0.316955 0.000818551 0)
(0.312505 0.000827485 0)
(0.308074 0.000843401 0)
(0.303617 0.000858047 0)
(0.299189 0.000884881 0)
(0.294587 0.000902075 0)
(0.290181 0.000942463 0)
(0.285189 0.000954958 0)
(0.281014 0.00100649 0)
(0.275161 0.00101354 0)
(0.271782 0.000978598 0)
(0.264578 0.00120004 0)
(0.261553 -0.00107434 0)
(1.01434 0.0460083 0)
(1.04752 0.0375048 0)
(1.02451 0.0241824 0)
(0.974554 0.0176028 0)
(0.923041 0.0131765 0)
(0.876003 0.0102694 0)
(0.833518 0.00841347 0)
(0.795402 0.00709832 0)
(0.761434 0.00609279 0)
(0.731189 0.00530816 0)
(0.704163 0.00468784 0)
(0.679894 0.00418798 0)
(0.657989 0.00377744 0)
(0.63812 0.00343498 0)
(0.620014 0.00314576 0)
(0.603441 0.00289901 0)
(0.588209 0.00268666 0)
(0.574155 0.00250258 0)
(0.56114 0.00234203 0)
(0.549046 0.00220131 0)
(0.537769 0.00207748 0)
(0.527221 0.00196819 0)
(0.517325 0.00187155 0)
(0.508012 0.001786 0)
(0.499222 0.00171029 0)
(0.490902 0.00164339 0)
(0.483005 0.00158446 0)
(0.475486 0.00153283 0)
(0.468307 0.00148795 0)
(0.461432 0.0014494 0)
(0.454829 0.00141686 0)
(0.448466 0.00139012 0)
(0.442317 0.00136901 0)
(0.436351 0.00135359 0)
(0.430547 0.00134358 0)
(0.424871 0.00133966 0)
(0.419311 0.0013408 0)
(0.413828 0.00134937 0)
(0.408409 0.00136156 0)
(0.403027 0.0013847 0)
(0.397637 0.00140663 0)
(0.392285 0.00144814 0)
(0.386771 0.00147501 0)
(0.381441 0.00154068 0)
(0.375548 0.00156124 0)
(0.370406 0.00165077 0)
(0.363683 0.00166211 0)
(0.359172 0.00165343 0)
(0.351193 0.00185523 0)
(0.346947 -0.000130767 0)
(1.00933 0.0429201 0)
(1.05526 0.0372821 0)
(1.05864 0.0253319 0)
(1.03623 0.0198124 0)
(1.00681 0.0158805 0)
(0.975535 0.0130189 0)
(0.943721 0.0110549 0)
(0.912507 0.00958272 0)
(0.882753 0.00839982 0)
(0.854858 0.00743731 0)
(0.82891 0.00665069 0)
(0.804857 0.00600025 0)
(0.782587 0.00545504 0)
(0.761963 0.00499269 0)
(0.742844 0.00459683 0)
(0.725091 0.00425518 0)
(0.708577 0.00395824 0)
(0.693182 0.00369862 0)
(0.678799 0.00347047 0)
(0.665333 0.00326914 0)
(0.652695 0.00309087 0)
(0.640808 0.00293264 0)
(0.629601 0.00279196 0)
(0.619011 0.00266678 0)
(0.608982 0.00255543 0)
(0.599459 0.00245651 0)
(0.590398 0.00236889 0)
(0.581753 0.00229163 0)
(0.573487 0.002224 0)
(0.565561 0.00216538 0)
(0.557943 0.00211538 0)
(0.5506 0.00207364 0)
(0.543502 0.00203999 0)
(0.536618 0.00201442 0)
(0.529926 0.00199669 0)
(0.52339 0.00198756 0)
(0.516995 0.00198589 0)
(0.5107 0.00199462 0)
(0.504494 0.00200906 0)
(0.49834 0.00203867 0)
(0.492203 0.00206779 0)
(0.486105 0.00212381 0)
(0.479883 0.0021618 0)
(0.47381 0.00225256 0)
(0.467262 0.00228611 0)
(0.461313 0.00241093 0)
(0.454059 0.00243879 0)
(0.448517 0.00245229 0)
(0.440266 0.00265103 0)
(0.434658 0.000940735 0)
(1.00625 0.0400391 0)
(1.05205 0.0363561 0)
(1.06605 0.0252646 0)
(1.0595 0.0206191 0)
(1.04666 0.0173186 0)
(1.03042 0.0147552 0)
(1.01129 0.0129361 0)
(0.990312 0.0115257 0)
(0.968548 0.0103407 0)
(0.946737 0.00933379 0)
(0.925333 0.00847962 0)
(0.90461 0.00775084 0)
(0.884724 0.00712355 0)
(0.865752 0.00657948 0)
(0.84772 0.00610466 0)
(0.83062 0.00568806 0)
(0.814423 0.00532083 0)
(0.79909 0.00499577 0)
(0.784573 0.00470699 0)
(0.770821 0.0044497 0)
(0.757784 0.00421991 0)
(0.745413 0.00401435 0)
(0.733659 0.00383026 0)
(0.722476 0.00366537 0)
(0.711821 0.00351775 0)
(0.701652 0.00338581 0)
(0.69193 0.00326822 0)
(0.682619 0.00316387 0)
(0.673685 0.00307191 0)
(0.665094 0.00299159 0)
(0.656816 0.00292245 0)
(0.64882 0.00286407 0)
(0.641081 0.00281625 0)
(0.633567 0.00277897 0)
(0.626256 0.00275204 0)
(0.619115 0.00273631 0)
(0.612128 0.00273059 0)
(0.605255 0.00273828 0)
(0.598485 0.00275413 0)
(0.591778 0.00278917 0)
(0.585109 0.00282533 0)
(0.578476 0.0028947 0)
(0.571762 0.00294522 0)
(0.56515 0.00305865 0)
(0.558179 0.00311058 0)
(0.551628 0.00326414 0)
(0.544101 0.0033209 0)
(0.53775 0.00334974 0)
(0.529477 0.00356028 0)
(0.522818 0.00212638 0)
(1.00495 0.0373616 0)
(1.04726 0.0352755 0)
(1.06393 0.0247274 0)
(1.06416 0.0206504 0)
(1.06051 0.0178647 0)
(1.05446 0.0156103 0)
(1.04553 0.0140108 0)
(1.03412 0.0127703 0)
(1.02092 0.0117012 0)
(1.00654 0.0107619 0)
(0.99146 0.00993927 0)
(0.97603 0.0092163 0)
(0.960525 0.00857677 0)
(0.945149 0.00800815 0)
(0.930045 0.00750078 0)
(0.915311 0.00704679 0)
(0.901012 0.00663954 0)
(0.887185 0.00627343 0)
(0.873849 0.00594369 0)
(0.861011 0.00564624 0)
(0.848664 0.00537765 0)
(0.836799 0.00513496 0)
(0.825399 0.00491566 0)
(0.814444 0.00471758 0)
(0.803913 0.00453889 0)
(0.793783 0.00437803 0)
(0.78403 0.00423369 0)
(0.77463 0.00410476 0)
(0.76556 0.00399038 0)
(0.756795 0.0038898 0)
(0.748312 0.00380257 0)
(0.740088 0.00372826 0)
(0.732101 0.00366675 0)
(0.724324 0.00361803 0)
(0.71674 0.00358202 0)
(0.709318 0.00355963 0)
(0.702047 0.00354978 0)
(0.694886 0.00355616 0)
(0.687831 0.0035733 0)
(0.680837 0.00361323 0)
(0.673892 0.00365667 0)
(0.666974 0.0037382 0)
(0.66001 0.00380274 0)
(0.653102 0.00393588 0)
(0.64594 0.0040108 0)
(0.639037 0.00418675 0)
(0.631446 0.00428062 0)
(0.624592 0.00432305 0)
(0.616434 0.00455077 0)
(0.609143 0.00339335 0)
(1.0044 0.0348142 0)
(1.04322 0.0342038 0)
(1.0599 0.0240889 0)
(1.0622 0.0203606 0)
(1.06235 0.0179349 0)
(1.06156 0.0159008 0)
(1.05887 0.0144785 0)
(1.05415 0.0134078 0)
(1.04771 0.0124858 0)
(1.03987 0.0116634 0)
(1.03089 0.0109298 0)
(1.02106 0.0102719 0)
(1.01059 0.00967716 0)
(0.99969 0.00913675 0)
(0.988532 0.00864432 0)
(0.977254 0.00819492 0)
(0.965963 0.00778438 0)
(0.954744 0.00740908 0)
(0.943664 0.00706585 0)
(0.932768 0.00675191 0)
(0.922092 0.0064648 0)
(0.911658 0.00620236 0)
(0.901483 0.00596271 0)
(0.891572 0.00574418 0)
(0.88193 0.00554531 0)
(0.872553 0.00536485 0)
(0.863436 0.00520173 0)
(0.854571 0.00505504 0)
(0.845948 0.00492409 0)
(0.837555 0.00480824 0)
(0.829379 0.00470719 0)
(0.821405 0.00462061 0)
(0.81362 0.00454851 0)
(0.806004 0.00449097 0)
(0.798546 0.00444809 0)
(0.791222 0.00442089 0)
(0.784022 0.00440846 0)
(0.776914 0.00441472 0)
(0.769896 0.00443428 0)
(0.762925 0.00447962 0)
(0.755998 0.00453137 0)
(0.749084 0.00462463 0)
(0.74214 0.00470483 0)
(0.735214 0.00485551 0)
(0.728108 0.00495675 0)
(0.72114 0.00515096 0)
(0.713696 0.00528556 0)
(0.70667 0.00534497 0)
(0.698767 0.00559061 0)
(0.691241 0.0047008 0)
(1.00402 0.0323746 0)
(1.0399 0.0331552 0)
(1.05612 0.0234684 0)
(1.05884 0.0199763 0)
(1.06008 0.0178099 0)
(1.06135 0.0159126 0)
(1.06162 0.0145942 0)
(1.06059 0.0136419 0)
(1.05836 0.0128399 0)
(1.05502 0.0121278 0)
(1.05067 0.0114918 0)
(1.04541 0.0109183 0)
(1.03938 0.0103946 0)
(1.0327 0.0099124 0)
(1.0255 0.00946641 0)
(1.01789 0.00905303 0)
(1.00997 0.0086695 0)
(1.00184 0.00831358 0)
(0.993564 0.00798336 0)
(0.98521 0.0076772 0)
(0.976831 0.00739365 0)
(0.968469 0.00713141 0)
(0.960157 0.00688934 0)
(0.951923 0.0066664 0)
(0.943786 0.00646168 0)
(0.935762 0.0062744 0)
(0.92786 0.00610388 0)
(0.920086 0.00594955 0)
(0.912445 0.00581101 0)
(0.904934 0.00568789 0)
(0.897553 0.00558012 0)
(0.890295 0.00548756 0)
(0.883157 0.00541044 0)
(0.876127 0.00534901 0)
(0.8692 0.0053036 0)
(0.862359 0.00527537 0)
(0.855601 0.00526369 0)
(0.8489 0.00527263 0)
(0.842256 0.00529712 0)
(0.835636 0.00534972 0)
(0.82904 0.00541175 0)
(0.822435 0.00551742 0)
(0.8158 0.00561522 0)
(0.80915 0.00578259 0)
(0.802362 0.00591243 0)
(0.795626 0.00612324 0)
(0.788555 0.00629911 0)
(0.781683 0.00638164 0)
(0.774212 0.00664541 0)
(0.766807 0.00600555 0)
(1.00364 0.0300347 0)
(1.03691 0.0321093 0)
(1.05278 0.0228813 0)
(1.0556 0.019575 0)
(1.05698 0.0176232 0)
(1.05881 0.0158194 0)
(1.06016 0.0145505 0)
(1.06074 0.0136637 0)
(1.06059 0.0129384 0)
(1.05977 0.0123043 0)
(1.05824 0.0117446 0)
(1.05604 0.0112444 0)
(1.05318 0.0107892 0)
(1.04973 0.0103695 0)
(1.04573 0.00997939 0)
(1.04127 0.00961512 0)
(1.03639 0.00927408 0)
(1.03116 0.00895442 0)
(1.02565 0.00865474 0)
(1.0199 0.00837397 0)
(1.01397 0.00811125 0)
(1.00789 0.00786586 0)
(1.00171 0.00763721 0)
(0.99546 0.0074248 0)
(0.989164 0.0072282 0)
(0.982847 0.00704707 0)
(0.976526 0.00688116 0)
(0.970218 0.00673024 0)
(0.963933 0.00659427 0)
(0.95768 0.00647318 0)
(0.951465 0.00636718 0)
(0.945291 0.00627638 0)
(0.939159 0.00620129 0)
(0.933066 0.00614235 0)
(0.927013 0.00610014 0)
(0.920991 0.00607607 0)
(0.915 0.00606973 0)
(0.909023 0.0060854 0)
(0.903062 0.00611841 0)
(0.897092 0.0061812 0)
(0.891116 0.00625631 0)
(0.885108 0.00637607 0)
(0.879054 0.00649368 0)
(0.872958 0.00667804 0)
(0.866743 0.00683809 0)
(0.860517 0.00706569 0)
(0.854045 0.00728174 0)
(0.847625 0.00739433 0)
(0.84078 0.00767735 0)
(0.833813 0.00726408 0)
(1.00327 0.0277955 0)
(1.03408 0.0310523 0)
(1.04966 0.0223208 0)
(1.05264 0.0191718 0)
(1.05398 0.0174177 0)
(1.05586 0.015697 0)
(1.05749 0.0144517 0)
(1.0586 0.0135973 0)
(1.05928 0.0129151 0)
(1.05958 0.0123273 0)
(1.05947 0.011816 0)
(1.05894 0.011366 0)
(1.05797 0.0109617 0)
(1.05657 0.0105924 0)
(1.05475 0.0102508 0)
(1.05253 0.0099326 0)
(1.04993 0.00963457 0)
(1.047 0.00935456 0)
(1.04375 0.00909105 0)
(1.04023 0.00884298 0)
(1.03646 0.00860958 0)
(1.03248 0.00839034 0)
(1.02832 0.00818489 0)
(1.024 0.00799297 0)
(1.01955 0.00781446 0)
(1.01499 0.0076493 0)
(1.01034 0.00749752 0)
(1.00562 0.0073592 0)
(1.00084 0.00723458 0)
(0.996009 0.00712384 0)
(0.991145 0.00702746 0)
(0.98625 0.00694581 0)
(0.981331 0.00687961 0)
(0.976389 0.00682956 0)
(0.97143 0.00679645 0)
(0.966448 0.00678193 0)
(0.961447 0.00678584 0)
(0.956418 0.00681265 0)
(0.951364 0.00685813 0)
(0.946269 0.00693444 0)
(0.941134 0.00702565 0)
(0.935943 0.00716163 0)
(0.930687 0.00730125 0)
(0.925366 0.00750354 0)
(0.919931 0.00769474 0)
(0.914441 0.00794042 0)
(0.908761 0.00819461 0)
(0.903035 0.00834365 0)
(0.896989 0.00864791 0)
(0.890719 0.00843507 0)
(1.00292 0.0256603 0)
(1.03137 0.0299795 0)
(1.04666 0.0217825 0)
(1.04985 0.0187666 0)
(1.05117 0.0172004 0)
(1.05301 0.0155676 0)
(1.05467 0.0143394 0)
(1.05589 0.0135024 0)
(1.05681 0.0128455 0)
(1.05751 0.0122839 0)
(1.05798 0.0118001 0)
(1.0582 0.0113798 0)
(1.05817 0.0110076 0)
(1.05786 0.0106718 0)
(1.05727 0.0103648 0)
(1.05641 0.0100813 0)
(1.05527 0.00981759 0)
(1.05387 0.00957114 0)
(1.05221 0.00934001 0)
(1.05031 0.00912286 0)
(1.04818 0.00891875 0)
(1.04584 0.00872705 0)
(1.04331 0.00854736 0)
(1.0406 0.00837944 0)
(1.03773 0.00822322 0)
(1.03472 0.00807875 0)
(1.03158 0.0079462 0)
(1.02832 0.00782579 0)
(1.02496 0.00771793 0)
(1.02151 0.00762299 0)
(1.01798 0.00754162 0)
(1.01436 0.00747439 0)
(1.01068 0.00742217 0)
(1.00693 0.00738591 0)
(1.00313 0.00736653 0)
(0.999258 0.00736593 0)
(0.995333 0.00738411 0)
(0.991346 0.00742573 0)
(0.987301 0.00748698 0)
(0.983189 0.00757963 0)
(0.979012 0.00768947 0)
(0.974758 0.00784347 0)
(0.970423 0.0080067 0)
(0.966005 0.00822784 0)
(0.961477 0.00845014 0)
(0.956864 0.00871548 0)
(0.952096 0.00900501 0)
(0.947224 0.0091953 0)
(0.942094 0.00952302 0)
(0.936693 0.0094837 0)
(1.0026 0.0236318 0)
(1.02878 0.0288898 0)
(1.04374 0.0212651 0)
(1.04716 0.0183595 0)
(1.04848 0.0169697 0)
(1.05029 0.015434 0)
(1.05194 0.0142249 0)
(1.05317 0.0134005 0)
(1.05413 0.012762 0)
(1.05492 0.0122178 0)
(1.05557 0.0117502 0)
(1.05606 0.0113469 0)
(1.0564 0.0109934 0)
(1.05658 0.0106778 0)
(1.05658 0.0103923 0)
(1.05642 0.0101315 0)
(1.05607 0.00989131 0)
(1.05554 0.00966886 0)
(1.05484 0.00946196 0)
(1.05396 0.00926899 0)
(1.0529 0.0090888 0)
(1.05167 0.00892056 0)
(1.05029 0.00876372 0)
(1.04874 0.00861793 0)
(1.04706 0.00848306 0)
(1.04523 0.00835912 0)
(1.04327 0.00824629 0)
(1.0412 0.00814484 0)
(1.03901 0.00805523 0)
(1.03671 0.00797792 0)
(1.03432 0.00791365 0)
(1.03183 0.00786311 0)
(1.02925 0.00782727 0)
(1.02658 0.00780723 0)
(1.02383 0.00780399 0)
(1.021 0.00781967 0)
(1.0181 0.00785436 0)
(1.01511 0.00791284 0)
(1.01205 0.00799172 0)
(1.00891 0.00810223 0)
(1.00568 0.00823199 0)
(1.00237 0.0084048 0)
(0.998968 0.00859206 0)
(0.995474 0.00883232 0)
(0.991877 0.00908445 0)
(0.988178 0.00937051 0)
(0.984349 0.00969189 0)
(0.980388 0.00992586 0)
(0.976208 0.0102789 0)
(0.971751 0.0103865 0)
(1.0023 0.0217117 0)
(1.02632 0.0277841 0)
(1.04091 0.0207672 0)
(1.04455 0.0179519 0)
(1.0459 0.0167244 0)
(1.04767 0.0152946 0)
(1.04932 0.0141091 0)
(1.05054 0.0132967 0)
(1.05149 0.0126749 0)
(1.05229 0.0121455 0)
(1.05297 0.0116898 0)
(1.05353 0.0112977 0)
(1.05398 0.0109558 0)
(1.05433 0.0106526 0)
(1.05457 0.0103802 0)
(1.0547 0.0101333 0)
(1.05472 0.00990788 0)
(1.05462 0.00970096 0)
(1.05441 0.00951022 0)
(1.05407 0.00933395 0)
(1.05362 0.00917085 0)
(1.05305 0.00901994 0)
(1.05236 0.00888055 0)
(1.05156 0.00875223 0)
(1.05064 0.00863475 0)
(1.04961 0.00852804 0)
(1.04847 0.00843225 0)
(1.04723 0.00834762 0)
(1.04589 0.00827462 0)
(1.04445 0.00821373 0)
(1.04292 0.00816571 0)
(1.04129 0.00813133 0)
(1.03958 0.00811158 0)
(1.03778 0.00810768 0)
(1.0359 0.00812065 0)
(1.03394 0.00815274 0)
(1.03189 0.00820412 0)
(1.02976 0.00827958 0)
(1.02754 0.00837619 0)
(1.02525 0.00850441 0)
(1.02287 0.00865384 0)
(1.0204 0.00884492 0)
(1.01784 0.00905518 0)
(1.0152 0.00931382 0)
(1.01245 0.00959315 0)
(1.00961 0.00989997 0)
(1.00665 0.0102491 0)
(1.00356 0.0105266 0)
(1.00028 0.0109057 0)
(0.996733 0.0111352 0)
(1.00203 0.0199009 0)
(1.024 0.0266653 0)
(1.03818 0.0202856 0)
(1.04203 0.0175458 0)
(1.0434 0.0164646 0)
(1.04514 0.015148 0)
(1.04679 0.0139917 0)
(1.04801 0.0131913 0)
(1.04895 0.0125861 0)
(1.04973 0.0120715 0)
(1.0504 0.0116268 0)
(1.05097 0.0112441 0)
(1.05144 0.0109111 0)
(1.05183 0.0106166 0)
(1.05214 0.0103531 0)
(1.05237 0.0101153 0)
(1.05252 0.00989938 0)
(1.0526 0.00970239 0)
(1.0526 0.00952209 0)
(1.05252 0.00935674 0)
(1.05236 0.00920502 0)
(1.05212 0.00906593 0)
(1.0518 0.00893872 0)
(1.0514 0.00882289 0)
(1.05092 0.00871815 0)
(1.05036 0.00862438 0)
(1.04972 0.0085417 0)
(1.049 0.00847032 0)
(1.0482 0.00841069 0)
(1.04733 0.00836331 0)
(1.04638 0.00832894 0)
(1.04535 0.00830839 0)
(1.04424 0.00830264 0)
(1.04307 0.008313 0)
(1.04181 0.00834046 0)
(1.04048 0.00838738 0)
(1.03908 0.00845396 0)
(1.0376 0.00854492 0)
(1.03605 0.00865781 0)
(1.03442 0.00880219 0)
(1.03271 0.00896962 0)
(1.03092 0.00917723 0)
(1.02906 0.00940816 0)
(1.02711 0.00968347 0)
(1.02507 0.00998633 0)
(1.02295 0.0103128 0)
(1.02073 0.0106852 0)
(1.01838 0.0110038 0)
(1.01587 0.0114088 0)
(1.01313 0.011737 0)
(1.00179 0.0181996 0)
(1.02182 0.0255374 0)
(1.03554 0.0198164 0)
(1.03959 0.0171428 0)
(1.041 0.016191 0)
(1.0427 0.0149934 0)
(1.04435 0.0138721 0)
(1.04557 0.0130842 0)
(1.0465 0.0124958 0)
(1.04727 0.0119966 0)
(1.04792 0.0115632 0)
(1.04848 0.0111896 0)
(1.04894 0.0108647 0)
(1.04933 0.0105779 0)
(1.04965 0.0103217 0)
(1.0499 0.0100909 0)
(1.05009 0.00988199 0)
(1.05022 0.00969207 0)
(1.05029 0.00951901 0)
(1.05031 0.00936112 0)
(1.05027 0.00921715 0)
(1.05017 0.00908609 0)
(1.05002 0.00896722 0)
(1.04982 0.00886002 0)
(1.04955 0.00876421 0)
(1.04923 0.00867966 0)
(1.04886 0.00860646 0)
(1.04842 0.00854483 0)
(1.04793 0.00849522 0)
(1.04738 0.00845816 0)
(1.04677 0.00843438 0)
(1.04611 0.00842476 0)
(1.04538 0.00843025 0)
(1.0446 0.00845223 0)
(1.04375 0.00849167 0)
(1.04285 0.00855096 0)
(1.04188 0.00863038 0)
(1.04085 0.00873449 0)
(1.03975 0.00886132 0)
(1.03859 0.00901948 0)
(1.03737 0.0092024 0)
(1.03607 0.00942408 0)
(1.03472 0.00967259 0)
(1.03329 0.00996225 0)
(1.03179 0.0102845 0)
(1.03021 0.0106287 0)
(1.02856 0.01102 0)
(1.0268 0.0113756 0)
(1.02489 0.0118053 0)
(1.02279 0.0122119 0)
(1.00157 0.0166075 0)
(1.01977 0.0244043 0)
(1.03301 0.0193556 0)
(1.03724 0.0167449 0)
(1.03868 0.0159049 0)
(1.04035 0.01483 0)
(1.04199 0.0137501 0)
(1.04322 0.0129753 0)
(1.04414 0.0124036 0)
(1.04489 0.0119205 0)
(1.04554 0.0114991 0)
(1.04608 0.0111349 0)
(1.04653 0.0108183 0)
(1.04691 0.010539 0)
(1.04721 0.0102896 0)
(1.04746 0.0100653 0)
(1.04765 0.00986248 0)
(1.04779 0.00967848 0)
(1.04787 0.00951124 0)
(1.04792 0.00935918 0)
(1.04791 0.00922108 0)
(1.04787 0.009096 0)
(1.04778 0.00898325 0)
(1.04765 0.00888235 0)
(1.04748 0.00879301 0)
(1.04726 0.00871513 0)
(1.04701 0.00864882 0)
(1.04671 0.00859433 0)
(1.04637 0.00855212 0)
(1.04598 0.00852276 0)
(1.04556 0.008507 0)
(1.04509 0.00850574 0)
(1.04457 0.00851995 0)
(1.04401 0.00855106 0)
(1.0434 0.00860002 0)
(1.04275 0.00866924 0)
(1.04204 0.00875908 0)
(1.04128 0.00887387 0)
(1.04047 0.00901219 0)
(1.03961 0.00918162 0)
(1.0387 0.00937736 0)
(1.03773 0.00961058 0)
(1.03671 0.00987345 0)
(1.03563 0.0101751 0)
(1.0345 0.0105126 0)
(1.03331 0.0108724 0)
(1.03205 0.0112787 0)
(1.0307 0.0116666 0)
(1.02923 0.0121192 0)
(1.02759 0.012587 0)
(1.00137 0.0151236 0)
(1.01786 0.02327 0)
(1.03058 0.0188994 0)
(1.03498 0.0163535 0)
(1.03647 0.0156077 0)
(1.0381 0.0146572 0)
(1.03972 0.0136251 0)
(1.04096 0.0128646 0)
(1.04187 0.0123095 0)
(1.04261 0.0118432 0)
(1.04324 0.0114345 0)
(1.04377 0.01108 0)
(1.04421 0.0107719 0)
(1.04457 0.0105003 0)
(1.04487 0.0102579 0)
(1.0451 0.01004 0)
(1.04528 0.00984313 0)
(1.04541 0.00966475 0)
(1.0455 0.0095029 0)
(1.04554 0.00935607 0)
(1.04554 0.0092231 0)
(1.0455 0.00910311 0)
(1.04543 0.00899546 0)
(1.04532 0.00889968 0)
(1.04518 0.00881553 0)
(1.045 0.00874294 0)
(1.04479 0.00868204 0)
(1.04454 0.00863313 0)
(1.04427 0.00859669 0)
(1.04396 0.00857332 0)
(1.04361 0.00856381 0)
(1.04323 0.00856912 0)
(1.04282 0.00859021 0)
(1.04237 0.00862857 0)
(1.04188 0.00868514 0)
(1.04135 0.00876234 0)
(1.04079 0.00886064 0)
(1.04018 0.0089841 0)
(1.03953 0.00913182 0)
(1.03884 0.0093104 0)
(1.03811 0.00951664 0)
(1.03734 0.00975925 0)
(1.03652 0.0100337 0)
(1.03565 0.0103452 0)
(1.03475 0.0106947 0)
(1.03379 0.011068 0)
(1.03278 0.0114865 0)
(1.0317 0.011902 0)
(1.03051 0.0123758 0)
(1.02919 0.0128911 0)
(1.00119 0.0137464 0)
(1.01609 0.0221386 0)
(1.02825 0.0184439 0)
(1.0328 0.0159697 0)
(1.03434 0.0153011 0)
(1.03593 0.0144745 0)
(1.03754 0.0134969 0)
(1.03878 0.0127522 0)
(1.03969 0.0122135 0)
(1.04042 0.0117645 0)
(1.04104 0.0113691 0)
(1.04156 0.0110248 0)
(1.04198 0.0107255 0)
(1.04234 0.0104619 0)
(1.04262 0.0102267 0)
(1.04284 0.0100154 0)
(1.04301 0.00982455 0)
(1.04313 0.00965184 0)
(1.0432 0.00949535 0)
(1.04323 0.00935364 0)
(1.04323 0.00922562 0)
(1.04319 0.00911046 0)
(1.04311 0.00900754 0)
(1.043 0.00891645 0)
(1.04286 0.00883696 0)
(1.04269 0.00876904 0)
(1.04249 0.00871286 0)
(1.04226 0.00866875 0)
(1.04201 0.00863723 0)
(1.04172 0.00861896 0)
(1.04141 0.00861474 0)
(1.04106 0.00862558 0)
(1.04069 0.00865247 0)
(1.04029 0.00869693 0)
(1.03985 0.00875994 0)
(1.03939 0.00884386 0)
(1.03889 0.0089493 0)
(1.03835 0.00908004 0)
(1.03779 0.00923571 0)
(1.03718 0.00942196 0)
(1.03655 0.00963697 0)
(1.03587 0.00988748 0)
(1.03516 0.0101714 0)
(1.03442 0.0104914 0)
(1.03364 0.0108505 0)
(1.03282 0.0112355 0)
(1.03195 0.0116643 0)
(1.03102 0.0121033 0)
(1.03001 0.0125967 0)
(1.02888 0.0131491 0)
(1.00104 0.0124736 0)
(1.01445 0.0210144 0)
(1.02604 0.0179859 0)
(1.03071 0.0155943 0)
(1.03231 0.0149871 0)
(1.03386 0.0142815 0)
(1.03545 0.0133648 0)
(1.0367 0.0126381 0)
(1.0376 0.0121155 0)
(1.03832 0.0116843 0)
(1.03893 0.011303 0)
(1.03944 0.0109694 0)
(1.03985 0.0106792 0)
(1.04019 0.0104238 0)
(1.04046 0.010196 0)
(1.04067 0.00999145 0)
(1.04083 0.00980687 0)
(1.04094 0.00963996 0)
(1.041 0.00948894 0)
(1.04103 0.00935243 0)
(1.04101 0.00922941 0)
(1.04096 0.00911907 0)
(1.04088 0.00902084 0)
(1.04076 0.00893434 0)
(1.04061 0.00885938 0)
(1.04044 0.00879595 0)
(1.04024 0.00874426 0)
(1.04001 0.00870467 0)
(1.03975 0.00867774 0)
(1.03947 0.00866417 0)
(1.03917 0.0086648 0)
(1.03883 0.0086807 0)
(1.03847 0.00871286 0)
(1.03808 0.00876283 0)
(1.03767 0.00883165 0)
(1.03723 0.00892161 0)
(1.03675 0.00903348 0)
(1.03625 0.00917073 0)
(1.03572 0.00933347 0)
(1.03515 0.00952657 0)
(1.03456 0.0097493 0)
(1.03394 0.0100068 0)
(1.03328 0.0102989 0)
(1.03259 0.0106265 0)
(1.03188 0.0109937 0)
(1.03113 0.0113895 0)
(1.03033 0.0118276 0)
(1.02949 0.012287 0)
(1.02857 0.0127988 0)
(1.02755 0.0133808 0)
(1.0009 0.0113024 0)
(1.01294 0.0199017 0)
(1.02394 0.0175222 0)
(1.0287 0.0152279 0)
(1.03038 0.0146677 0)
(1.03188 0.014078 0)
(1.03345 0.0132284 0)
(1.0347 0.0125223 0)
(1.0356 0.0120155 0)
(1.03632 0.0116024 0)
(1.03691 0.011236 0)
(1.03741 0.0109136 0)
(1.03781 0.0106328 0)
(1.03814 0.0103859 0)
(1.0384 0.0101658 0)
(1.0386 0.00996823 0)
(1.03875 0.00979007 0)
(1.03885 0.00962914 0)
(1.0389 0.00948374 0)
(1.03891 0.00935256 0)
(1.03889 0.00923464 0)
(1.03883 0.00912923 0)
(1.03874 0.00903577 0)
(1.03861 0.00895392 0)
(1.03846 0.00888352 0)
(1.03828 0.00882459 0)
(1.03807 0.00877736 0)
(1.03784 0.00874225 0)
(1.03758 0.00871983 0)
(1.03729 0.00871087 0)
(1.03698 0.00871623 0)
(1.03665 0.00873702 0)
(1.03629 0.00877427 0)
(1.0359 0.00882954 0)
(1.03549 0.00890392 0)
(1.03505 0.00899963 0)
(1.03459 0.00911759 0)
(1.0341 0.009261 0)
(1.03358 0.00943039 0)
(1.03303 0.00962992 0)
(1.03245 0.00985977 0)
(1.03185 0.010124 0)
(1.03122 0.0104233 0)
(1.03056 0.0107583 0)
(1.02987 0.0111328 0)
(1.02915 0.0115387 0)
(1.02839 0.0119859 0)
(1.02758 0.0124634 0)
(1.02671 0.0129928 0)
(1.02576 0.0135992 0)
(1.00078 0.0102291 0)
(1.01156 0.0188051 0)
(1.02196 0.01705 0)
(1.02679 0.0148706 0)
(1.02853 0.0143451 0)
(1.03 0.013864 0)
(1.03154 0.013087 0)
(1.03279 0.0124048 0)
(1.03369 0.0119137 0)
(1.0344 0.0115187 0)
(1.03498 0.0111679 0)
(1.03547 0.0108574 0)
(1.03587 0.0105863 0)
(1.03619 0.0103481 0)
(1.03644 0.010136 0)
(1.03663 0.00994567 0)
(1.03676 0.00977413 0)
(1.03685 0.00961936 0)
(1.0369 0.00947974 0)
(1.0369 0.00935405 0)
(1.03687 0.00924137 0)
(1.0368 0.009141 0)
(1.0367 0.00905243 0)
(1.03656 0.00897533 0)
(1.0364 0.00890958 0)
(1.03621 0.00885522 0)
(1.036 0.00881253 0)
(1.03576 0.00878194 0)
(1.03549 0.00876409 0)
(1.0352 0.00875977 0)
(1.03489 0.00876987 0)
(1.03455 0.00879556 0)
(1.03419 0.00883789 0)
(1.0338 0.00889843 0)
(1.03339 0.00897832 0)
(1.03295 0.00907971 0)
(1.03249 0.00920367 0)
(1.03199 0.00935314 0)
(1.03148 0.009529 0)
(1.03093 0.00973487 0)
(1.03036 0.00997157 0)
(1.02977 0.0102424 0)
(1.02915 0.0105487 0)
(1.0285 0.0108909 0)
(1.02782 0.0112725 0)
(1.02711 0.0116881 0)
(1.02637 0.0121447 0)
(1.02558 0.0126386 0)
(1.02473 0.0131849 0)
(1.02381 0.0138121 0)
(1.00067 0.0092497 0)
(1.0103 0.0177289 0)
(1.02009 0.0165673 0)
(1.02495 0.0145219 0)
(1.02677 0.0140212 0)
(1.02821 0.0136397 0)
(1.02972 0.0129399 0)
(1.03096 0.0122854 0)
(1.03187 0.01181 0)
(1.03257 0.0114332 0)
(1.03315 0.0110988 0)
(1.03362 0.0108006 0)
(1.03401 0.0105397 0)
(1.03432 0.0103105 0)
(1.03456 0.0101066 0)
(1.03474 0.00992372 0)
(1.03487 0.00975902 0)
(1.03495 0.00961059 0)
(1.03499 0.00947692 0)
(1.03498 0.00935688 0)
(1.03494 0.00924959 0)
(1.03486 0.0091544 0)
(1.03475 0.00907084 0)
(1.03461 0.00899861 0)
(1.03444 0.00893761 0)
(1.03425 0.00888793 0)
(1.03403 0.00884986 0)
(1.03378 0.0088239 0)
(1.03351 0.00881069 0)
(1.03321 0.00881108 0)
(1.03289 0.00882601 0)
(1.03255 0.00885666 0)
(1.03218 0.00890413 0)
(1.03179 0.00896998 0)
(1.03138 0.00905543 0)
(1.03094 0.00916254 0)
(1.03047 0.00929252 0)
(1.02998 0.00944808 0)
(1.02946 0.00963039 0)
(1.02892 0.00984263 0)
(1.02835 0.0100861 0)
(1.02776 0.0103635 0)
(1.02714 0.0106767 0)
(1.02649 0.0110263 0)
(1.02582 0.011415 0)
(1.02512 0.0118402 0)
(1.02439 0.0123065 0)
(1.02361 0.0128156 0)
(1.02278 0.0133782 0)
(1.02188 0.0140237 0)
(1.00058 0.00835965 0)
(1.00915 0.0166774 0)
(1.01833 0.0160722 0)
(1.0232 0.0141815 0)
(1.0251 0.013698 0)
(1.02651 0.0134057 0)
(1.02798 0.0127865 0)
(1.02923 0.012164 0)
(1.03014 0.0117046 0)
(1.03083 0.0113459 0)
(1.0314 0.0110283 0)
(1.03187 0.0107432 0)
(1.03225 0.0104928 0)
(1.03255 0.0102729 0)
(1.03278 0.0100776 0)
(1.03295 0.00990235 0)
(1.03307 0.00974471 0)
(1.03314 0.00960281 0)
(1.03317 0.00947527 0)
(1.03316 0.00936103 0)
(1.03311 0.00925928 0)
(1.03302 0.00916941 0)
(1.03291 0.00909099 0)
(1.03276 0.00902375 0)
(1.03258 0.00896762 0)
(1.03238 0.00892273 0)
(1.03215 0.00888939 0)
(1.0319 0.00886815 0)
(1.03162 0.00885968 0)
(1.03132 0.00886488 0)
(1.031 0.00888472 0)
(1.03065 0.00892042 0)
(1.03028 0.00897311 0)
(1.02989 0.00904437 0)
(1.02947 0.00913546 0)
(1.02903 0.00924836 0)
(1.02856 0.00938442 0)
(1.02807 0.00954613 0)
(1.02755 0.00973492 0)
(1.02701 0.00995362 0)
(1.02644 0.0102038 0)
(1.02585 0.010488 0)
(1.02523 0.0108082 0)
(1.02459 0.0111651 0)
(1.02392 0.0115613 0)
(1.02322 0.011996 0)
(1.02249 0.0124724 0)
(1.02172 0.0129958 0)
(1.02089 0.0135742 0)
(1.02001 0.0142362 0)
(1.0005 0.00755386 0)
(1.00812 0.015655 0)
(1.01669 0.0155639 0)
(1.02154 0.0138482 0)
(1.02352 0.0133773 0)
(1.0249 0.013163 0)
(1.02634 0.0126264 0)
(1.02757 0.0120401 0)
(1.02849 0.0115974 0)
(1.02917 0.0112565 0)
(1.02973 0.0109564 0)
(1.0302 0.0106851 0)
(1.03057 0.0104456 0)
(1.03086 0.0102354 0)
(1.03109 0.0100487 0)
(1.03125 0.0098815 0)
(1.03136 0.00973114 0)
(1.03143 0.00959597 0)
(1.03145 0.00947474 0)
(1.03143 0.00936647 0)
(1.03137 0.00927041 0)
(1.03128 0.00918601 0)
(1.03115 0.00911286 0)
(1.031 0.00905074 0)