/*--------------------------------*- C++ -*----------------------------------*\
  =========                 |
  \\      /  F ield         | OpenFOAM: The Open Source CFD Toolbox
   \\    /   O peration     | Website:  https://openfoam.org
    \\  /    A nd           | Version:  7
     \\/     M anipulation  |
\*---------------------------------------------------------------------------*/
FoamFile
{
    version     2.0;
    format      ascii;
    class       volVectorField;
    location    "0.07";
    object      wallShearStress;
}
// * * * * * * * * * * * * * * * * * * * * * * * * * * * * * * * * * * * * * //

dimensions      [0 2 -2 0 0 0 0];

internalField   uniform (0 0 0);

boundaryField
{
    velocityInlet
    {
        type            calculated;
        value           uniform (0 0 0);
    }
    pressureOutlet
    {
        type            calculated;
        value           uniform (0 0 0);
    }
    fixedWalls
    {
        type            calculated;
        value           nonuniform List<vector> 
100
(
(-0.0102294 -0.00721801 0)
(0.0143154 -0.0005434 0)
(-0.00407685 0.000947401 0)
(-0.00317851 0.000307928 0)
(-0.00631361 0.000130758 0)
(-0.00466701 -0.000227981 0)
(0.000866332 -0.00111284 0)
(0.0107102 -0.00186442 0)
(0.0189096 -0.00158025 0)
(0.0197805 -9.83353e-05 0)
(0.00994068 0.00234022 0)
(-0.0140242 0.00179388 0)
(-0.0221591 -0.00103474 0)
(-0.0137482 -0.0012329 0)
(-0.006931 -0.000455284 0)
(-0.00585906 8.55781e-05 0)
(-0.00850569 0.000472751 0)
(-0.0124464 0.000527978 0)
(-0.0150392 0.000518285 0)
(-0.0150066 -0.000103466 0)
(-0.00544365 -0.00138891 0)
(0.00833794 -0.00229567 0)
(0.0208038 -0.00215173 0)
(0.0285792 -0.0013565 0)
(0.0312612 -0.000505997 0)
(0.0294855 0.000195831 0)
(0.0244829 0.000673079 0)
(0.0176645 0.000896555 0)
(0.010418 0.000894733 0)
(0.00397805 0.000708669 0)
(-0.000929377 0.000517413 0)
(-0.00418915 0.000307425 0)
(-0.00598402 0.000152781 0)
(-0.00669372 5.53776e-05 0)
(-0.00673721 2.24368e-07 0)
(-0.0064472 -2.76178e-05 0)
(-0.00604195 -3.60456e-05 0)
(-0.00564209 -3.37357e-05 0)
(-0.00529709 -2.72138e-05 0)
(-0.00500149 -2.26255e-05 0)
(-0.00471371 -2.42731e-05 0)
(-0.00438776 -3.18581e-05 0)
(-0.00400813 -4.04149e-05 0)
(-0.0036049 -4.37915e-05 0)
(-0.00323641 -3.89441e-05 0)
(-0.00295608 -2.76736e-05 0)
(-0.0027887 -1.41225e-05 0)
(-0.00272905 -1.95006e-06 0)
(-0.0027553 8.57002e-06 0)
(-0.00283935 1.61208e-05 0)
(-0.00294614 1.98008e-05 0)
(-0.00302853 1.83871e-05 0)
(-0.00302936 9.17381e-06 0)
(-0.00289336 -7.5351e-06 0)
(-0.00258471 -2.88662e-05 0)
(-0.00210162 -5.06722e-05 0)
(-0.00148309 -6.79016e-05 0)
(-0.000803107 -7.61956e-05 0)
(-0.000153825 -7.33986e-05 0)
(0.000376384 -5.9996e-05 0)
(0.00072392 -3.96434e-05 0)
(0.000866748 -1.85927e-05 0)
(0.000818978 3.14991e-06 0)
(0.000623436 1.77068e-05 0)
(0.000335638 2.70469e-05 0)
(2.03844e-06 3.08639e-05 0)
(-0.000338711 3.1874e-05 0)
(-0.00065885 3.00291e-05 0)
(-0.000940101 2.65074e-05 0)
(-0.00116869 2.17117e-05 0)
(-0.00133445 1.58838e-05 0)
(-0.00143259 9.57012e-06 0)
(-0.00146704 3.90515e-06 0)
(-0.00145293 -7.43576e-07 0)
(-0.00141451 -2.85592e-06 0)
(-0.00137777 -2.36789e-06 0)
(-0.00136183 -8.97145e-08 0)
(-0.00137233 2.5923e-06 0)
(-0.00139992 4.1864e-06 0)
(-0.00142329 3.5673e-06 0)
(-0.00141604 -2.13285e-07 0)
(-0.00135661 -6.30395e-06 0)
(-0.00124142 -1.26337e-05 0)
(-0.00109352 -1.6228e-05 0)
(-0.000959507 -1.45718e-05 0)
(-0.000891343 -8.10928e-06 0)
(-0.000921554 1.76563e-06 0)
(-0.00104736 1.06701e-05 0)
(-0.00123355 1.59064e-05 0)
(-0.00143834 1.7119e-05 0)
(-0.00162154 1.51212e-05 0)
(-0.00177302 1.22331e-05 0)
(-0.00187699 9.08156e-06 0)
(-0.00196005 7.03016e-06 0)
(-0.00199902 5.39943e-06 0)
(-0.00203576 3.95868e-06 0)
(-0.00201436 2.36764e-06 0)
(-0.00195409 -2.15657e-06 0)
(-0.00190492 -5.12419e-06 0)
(-0.00151084 -1.55968e-05 0)
)
;
    }
    bottomWall
    {
        type            calculated;
        value           nonuniform List<vector> 
800
(
(-0.0353489 0.00214396 0)
(-0.0160274 0.000524794 0)
(-0.0106098 0.000100665 0)
(-0.00845941 3.52079e-05 0)
(-0.0074914 1.98034e-05 0)
(-0.00685967 1.60598e-05 0)
(-0.0063542 1.3291e-05 0)
(-0.00594516 1.08326e-05 0)
(-0.0056125 9.00998e-06 0)
(-0.00533575 7.6937e-06 0)
(-0.0051003 6.69785e-06 0)
(-0.00489669 5.91202e-06 0)
(-0.00471841 5.27597e-06 0)
(-0.00456074 4.75226e-06 0)
(-0.00442008 4.31495e-06 0)
(-0.00429367 3.94511e-06 0)
(-0.00417933 3.62905e-06 0)
(-0.0040753 3.35622e-06 0)
(-0.00398018 3.11857e-06 0)
(-0.00389282 2.91002e-06 0)
(-0.00381228 2.7258e-06 0)
(-0.00373773 2.56206e-06 0)
(-0.00366853 2.41558e-06 0)
(-0.00360408 2.28391e-06 0)
(-0.00354392 2.16501e-06 0)
(-0.0034876 2.05713e-06 0)
(-0.00343477 1.95894e-06 0)
(-0.00338511 1.8693e-06 0)
(-0.00333833 1.78698e-06 0)
(-0.0032942 1.71125e-06 0)
(-0.00325248 1.64141e-06 0)
(-0.00321299 1.57685e-06 0)
(-0.00317555 1.51693e-06 0)
(-0.00314002 1.46122e-06 0)
(-0.00310624 1.40945e-06 0)
(-0.00307409 1.36098e-06 0)
(-0.00304346 1.31574e-06 0)
(-0.00301424 1.27337e-06 0)
(-0.00298635 1.23349e-06 0)
(-0.00295969 1.19625e-06 0)
(-0.00293417 1.16104e-06 0)
(-0.00290975 1.12778e-06 0)
(-0.00288635 1.09656e-06 0)
(-0.0028639 1.06692e-06 0)
(-0.00284235 1.039e-06 0)
(-0.00282166 1.01233e-06 0)
(-0.00280176 9.87527e-07 0)
(-0.00278263 9.63167e-07 0)
(-0.0027642 9.41143e-07 0)
(-0.00274648 9.17725e-07 0)
(-0.00273167 8.98697e-07 0)
(-0.00271945 8.87755e-07 0)
(-0.00270741 8.73578e-07 0)
(-0.00269556 8.58717e-07 0)
(-0.0026839 8.44869e-07 0)
(-0.00267243 8.31611e-07 0)
(-0.00266113 8.18732e-07 0)
(-0.00265001 8.06088e-07 0)
(-0.00263906 7.93705e-07 0)
(-0.00262828 7.81581e-07 0)
(-0.00261766 7.69705e-07 0)
(-0.0026072 7.58243e-07 0)
(-0.0025969 7.47188e-07 0)
(-0.00258674 7.36209e-07 0)
(-0.00257674 7.25299e-07 0)
(-0.00256688 7.14793e-07 0)
(-0.00255716 7.0452e-07 0)
(-0.00254758 6.94481e-07 0)
(-0.00253814 6.84671e-07 0)
(-0.00252883 6.75091e-07 0)
(-0.00251965 6.65736e-07 0)
(-0.0025106 6.56442e-07 0)
(-0.00250167 6.47372e-07 0)
(-0.00249287 6.38524e-07 0)
(-0.00248419 6.29895e-07 0)
(-0.00247562 6.2149e-07 0)
(-0.00246717 6.13302e-07 0)
(-0.00245882 6.05164e-07 0)
(-0.00245059 5.97242e-07 0)
(-0.00244247 5.89368e-07 0)
(-0.00243445 5.81707e-07 0)
(-0.00242654 5.74426e-07 0)
(-0.00241872 5.67021e-07 0)
(-0.00241101 5.59826e-07 0)
(-0.00240339 5.52674e-07 0)
(-0.00239588 5.45894e-07 0)
(-0.00238845 5.39153e-07 0)
(-0.00238112 5.32453e-07 0)
(-0.00237387 5.26123e-07 0)
(-0.00236671 5.19662e-07 0)
(-0.00235965 5.13235e-07 0)
(-0.00235267 5.07178e-07 0)
(-0.00234577 5.01321e-07 0)
(-0.00233895 4.95328e-07 0)
(-0.00233221 4.89365e-07 0)
(-0.00232556 4.8377e-07 0)
(-0.00231898 4.78203e-07 0)
(-0.00231248 4.72667e-07 0)
(-0.00230605 4.67323e-07 0)
(-0.0022997 4.62009e-07 0)
(-0.00229341 4.56722e-07 0)
(-0.00228721 4.51628e-07 0)
(-0.00228107 4.46558e-07 0)
(-0.002275 4.41514e-07 0)
(-0.002269 4.36828e-07 0)
(-0.00226306 4.31998e-07 0)
(-0.0022572 4.27189e-07 0)
(-0.00225139 4.22737e-07 0)
(-0.00224565 4.1814e-07 0)
(-0.00223997 4.13565e-07 0)
(-0.00223435 4.09174e-07 0)
(-0.0022288 4.04805e-07 0)
(-0.0022233 4.00454e-07 0)
(-0.00221787 3.9629e-07 0)
(-0.00221249 3.9231e-07 0)
(-0.00220716 3.88016e-07 0)
(-0.0022019 3.83906e-07 0)
(-0.00219669 3.80148e-07 0)
(-0.00219153 3.76239e-07 0)
(-0.00218643 3.72348e-07 0)
(-0.00218138 3.68474e-07 0)
(-0.00217639 3.64783e-07 0)
(-0.00217144 3.61106e-07 0)
(-0.00216655 3.57447e-07 0)
(-0.0021617 3.53969e-07 0)
(-0.00215691 3.5034e-07 0)
(-0.00215217 3.46724e-07 0)
(-0.00214747 3.43456e-07 0)
(-0.00214282 3.40034e-07 0)
(-0.00213822 3.3663e-07 0)
(-0.00213366 3.33402e-07 0)
(-0.00212916 3.3002e-07 0)
(-0.00212469 3.26814e-07 0)
(-0.00212028 3.2379e-07 0)
(-0.0021159 3.2061e-07 0)
(-0.00211157 3.1727e-07 0)
(-0.00210728 3.14276e-07 0)
(-0.00210304 3.11285e-07 0)
(-0.00209884 3.08309e-07 0)
(-0.00209467 3.05331e-07 0)
(-0.00209056 3.0221e-07 0)
(-0.00208648 2.99234e-07 0)
(-0.00208245 2.96474e-07 0)
(-0.00207845 2.93491e-07 0)
(-0.0020745 2.90604e-07 0)
(-0.00207059 2.87761e-07 0)
(-0.00206671 2.84929e-07 0)
(-0.00206288 2.81867e-07 0)
(-0.00205909 2.79414e-07 0)
(-0.00205533 2.76353e-07 0)
(-0.00205219 2.7334e-07 0)
(-0.00204963 2.72035e-07 0)
(-0.00204706 2.70453e-07 0)
(-0.00204449 2.68508e-07 0)
(-0.00204193 2.6662e-07 0)
(-0.00203936 2.64558e-07 0)
(-0.0020368 2.62511e-07 0)
(-0.00203424 2.60699e-07 0)
(-0.00203168 2.58667e-07 0)
(-0.00202913 2.56642e-07 0)
(-0.00202657 2.54857e-07 0)
(-0.00202402 2.5285e-07 0)
(-0.00202147 2.50859e-07 0)
(-0.00201892 2.48879e-07 0)
(-0.00201638 2.4691e-07 0)
(-0.00201384 2.44947e-07 0)
(-0.00201131 2.42993e-07 0)
(-0.00200877 2.41052e-07 0)
(-0.00200624 2.38908e-07 0)
(-0.00200372 2.36982e-07 0)
(-0.0020012 2.3507e-07 0)
(-0.00199868 2.32953e-07 0)
(-0.00199618 2.30848e-07 0)
(-0.00199367 2.28963e-07 0)
(-0.00199117 2.26882e-07 0)
(-0.00198868 2.24811e-07 0)
(-0.00198619 2.22753e-07 0)
(-0.00198371 2.20701e-07 0)
(-0.00198124 2.18664e-07 0)
(-0.00197877 2.16434e-07 0)
(-0.00197631 2.14413e-07 0)
(-0.00197386 2.12405e-07 0)
(-0.00197142 2.10402e-07 0)
(-0.00196898 2.08219e-07 0)
(-0.00196655 2.05858e-07 0)
(-0.00196414 2.03698e-07 0)
(-0.00196173 2.01737e-07 0)
(-0.00195933 1.99599e-07 0)
(-0.00195694 1.9747e-07 0)
(-0.00195456 1.95172e-07 0)
(-0.0019522 1.92884e-07 0)
(-0.00194984 1.9097e-07 0)
(-0.00194749 1.88707e-07 0)
(-0.00194516 1.86276e-07 0)
(-0.00194285 1.84037e-07 0)
(-0.00194054 1.81987e-07 0)
(-0.00193824 1.79775e-07 0)
(-0.00193596 1.77398e-07 0)
(-0.0019337 1.75209e-07 0)
(-0.00193144 1.72864e-07 0)
(-0.00192921 1.7053e-07 0)
(-0.00192699 1.68381e-07 0)
(-0.00192478 1.66076e-07 0)
(-0.00192259 1.63623e-07 0)
(-0.00192042 1.61347e-07 0)
(-0.00191826 1.59091e-07 0)
(-0.00191612 1.56844e-07 0)
(-0.001914 1.54455e-07 0)
(-0.0019119 1.52078e-07 0)
(-0.00190981 1.49879e-07 0)
(-0.00190774 1.47534e-07 0)
(-0.00190569 1.45209e-07 0)
(-0.00190366 1.42896e-07 0)
(-0.00190165 1.40455e-07 0)
(-0.00189966 1.38176e-07 0)
(-0.00189769 1.35916e-07 0)
(-0.00189574 1.33519e-07 0)
(-0.00189381 1.31147e-07 0)
(-0.00189191 1.28793e-07 0)
(-0.00189003 1.26605e-07 0)
(-0.00188816 1.24286e-07 0)
(-0.00188633 1.21993e-07 0)
(-0.00188451 1.1971e-07 0)
(-0.00188271 1.17471e-07 0)
(-0.00188094 1.15225e-07 0)
(-0.00187919 1.1289e-07 0)
(-0.00187746 1.10676e-07 0)
(-0.00187576 1.08694e-07 0)
(-0.00187407 1.06502e-07 0)
(-0.00187241 1.04349e-07 0)
(-0.00187078 1.02119e-07 0)
(-0.00186916 1.0032e-07 0)
(-0.00186757 9.80785e-08 0)
(-0.001866 9.66539e-08 0)
(-0.00186445 9.41142e-08 0)
(-0.00186291 9.32675e-08 0)
(-0.00186142 9.00587e-08 0)
(-0.00185989 9.08956e-08 0)
(-0.00185846 8.55842e-08 0)
(-0.00185693 8.98243e-08 0)
(-0.00185559 8.01808e-08 0)
(-0.00185399 9.13736e-08 0)
(-0.00185281 7.22759e-08 0)
(-0.00185104 9.80193e-08 0)
(-0.00185011 5.88965e-08 0)
(-0.00184804 1.13194e-07 0)
(-0.00184751 3.65356e-08 0)
(-0.00184497 1.4018e-07 0)
(-0.00184496 4.07579e-09 0)
(-0.00184176 1.48035e-07 0)
(-0.0353485 -0.00214403 0)
(-0.0160246 -0.000524923 0)
(-0.0106031 -0.000100827 0)
(-0.00844811 -3.53702e-05 0)
(-0.00747481 -1.99794e-05 0)
(-0.00683713 -1.62513e-05 0)
(-0.00632524 -1.34943e-05 0)
(-0.00590949 -1.10455e-05 0)
(-0.00556997 -9.23048e-06 0)
(-0.00528629 -7.91949e-06 0)
(-0.0050439 -6.92714e-06 0)
(-0.0048334 -6.14346e-06 0)
(-0.00464834 -5.50891e-06 0)
(-0.00448397 -4.98657e-06 0)
(-0.00433672 -4.55071e-06 0)
(-0.00420379 -4.18299e-06 0)
(-0.00408298 -3.86991e-06 0)
(-0.00397251 -3.60126e-06 0)
(-0.00387094 -3.36915e-06 0)
(-0.00377708 -3.16773e-06 0)
(-0.00368993 -2.99235e-06 0)
(-0.00360865 -2.83916e-06 0)
(-0.00353253 -2.70533e-06 0)
(-0.00346094 -2.58855e-06 0)
(-0.00339334 -2.48678e-06 0)
(-0.00332926 -2.39862e-06 0)
(-0.00326828 -2.32276e-06 0)
(-0.00321002 -2.25816e-06 0)
(-0.00315417 -2.2039e-06 0)
(-0.00310038 -2.15978e-06 0)
(-0.00304841 -2.1247e-06 0)
(-0.00299796 -2.09902e-06 0)
(-0.00294883 -2.08107e-06 0)
(-0.00290073 -2.07297e-06 0)
(-0.00285352 -2.07093e-06 0)
(-0.00280689 -2.08001e-06 0)
(-0.00276077 -2.09156e-06 0)
(-0.00271482 -2.11768e-06 0)
(-0.00266898 -2.13985e-06 0)
(-0.00262313 -2.17967e-06 0)
(-0.00257672 -2.20861e-06 0)
(-0.00253083 -2.24868e-06 0)
(-0.0024826 -2.28719e-06 0)
(-0.00243795 -2.27656e-06 0)
(-0.00238535 -2.35803e-06 0)
(-0.002347 -2.13079e-06 0)
(-0.00228389 -2.42383e-06 0)
(-0.00226519 -1.23214e-06 0)
(-0.00218699 -5.38379e-06 0)
(-0.00206274 0.000145832 0)
(1.83384e-06 -2.1215e-07 0)
(4.11406e-06 -5.01121e-06 0)
(6.95035e-06 -1.48959e-05 0)
(9.78075e-06 -2.98286e-05 0)
(1.21826e-05 -4.92671e-05 0)
(1.39518e-05 -7.18646e-05 0)
(1.50976e-05 -9.65011e-05 0)
(1.57194e-05 -0.000122179 0)
(1.59508e-05 -0.000148194 0)
(1.59057e-05 -0.000174065 0)
(1.56735e-05 -0.000199475 0)
(1.53179e-05 -0.000224217 0)
(1.48817e-05 -0.000248166 0)
(1.43923e-05 -0.00027125 0)
(1.38659e-05 -0.000293428 0)
(1.33124e-05 -0.000314677 0)
(1.27383e-05 -0.000334987 0)
(1.21475e-05 -0.000354352 0)
(1.15427e-05 -0.000372772 0)
(1.09267e-05 -0.00039025 0)
(1.03012e-05 -0.000406792 0)
(9.66761e-06 -0.000422404 0)
(9.02755e-06 -0.000437095 0)
(8.38243e-06 -0.000450876 0)
(7.73398e-06 -0.000463757 0)
(7.08303e-06 -0.000475753 0)
(6.43044e-06 -0.000486875 0)
(5.77792e-06 -0.00049714 0)
(5.12621e-06 -0.000506563 0)
(4.47592e-06 -0.000515158 0)
(3.82838e-06 -0.000522944 0)
(3.1843e-06 -0.000529937 0)
(2.54405e-06 -0.000536155 0)
(1.90851e-06 -0.000541615 0)
(1.2783e-06 -0.000546336 0)
(6.53787e-07 -0.000550335 0)
(3.56867e-08 -0.000553629 0)
(-5.75212e-07 -0.000556237 0)
(-1.1786e-06 -0.000558178 0)
(-1.77428e-06 -0.000559468 0)
(-2.36145e-06 -0.000560127 0)
(-2.94054e-06 -0.000560173 0)
(-3.51282e-06 -0.000559618 0)
(-4.07478e-06 -0.000558483 0)
(-4.62579e-06 -0.000556786 0)
(-5.16441e-06 -0.000554545 0)
(-5.68667e-06 -0.000551781 0)
(-6.19369e-06 -0.000548512 0)
(-6.68553e-06 -0.000544757 0)
(-7.1618e-06 -0.000540535 0)
(-7.6214e-06 -0.000535863 0)
(-8.06292e-06 -0.00053076 0)
(-8.48507e-06 -0.000525244 0)
(-8.88677e-06 -0.000519335 0)
(-9.26741e-06 -0.000513055 0)
(-9.62653e-06 -0.00050642 0)
(-9.96309e-06 -0.000499451 0)
(-1.02754e-05 -0.000492168 0)
(-1.05632e-05 -0.000484592 0)
(-1.08255e-05 -0.000476741 0)
(-1.1061e-05 -0.000468637 0)
(-1.12689e-05 -0.0004603 0)
(-1.14483e-05 -0.000451752 0)
(-1.15985e-05 -0.000443013 0)
(-1.17178e-05 -0.000434104 0)
(-1.18052e-05 -0.000425049 0)
(-1.18601e-05 -0.00041587 0)
(-1.18815e-05 -0.000406588 0)
(-1.18694e-05 -0.000397228 0)
(-1.18246e-05 -0.000387812 0)
(-1.17469e-05 -0.000378363 0)
(-1.16382e-05 -0.000368906 0)
(-1.15001e-05 -0.00035946 0)
(-1.13346e-05 -0.00035005 0)
(-1.11453e-05 -0.000340697 0)
(-1.09356e-05 -0.000331421 0)
(-1.07094e-05 -0.000322241 0)
(-1.04718e-05 -0.000313177 0)
(-1.02281e-05 -0.000304243 0)
(-9.98336e-06 -0.000295457 0)
(-9.74361e-06 -0.000286831 0)
(-9.51407e-06 -0.000278376 0)
(-9.29951e-06 -0.000270101 0)
(-9.10361e-06 -0.000262014 0)
(-8.92972e-06 -0.000254123 0)
(-8.77951e-06 -0.00024643 0)
(-8.65194e-06 -0.000238937 0)
(-8.54389e-06 -0.000231649 0)
(-8.44915e-06 -0.000224567 0)
(-8.35806e-06 -0.000217697 0)
(-8.25827e-06 -0.000211045 0)
(-8.13643e-06 -0.000204627 0)
(-7.98084e-06 -0.000198463 0)
(-7.78862e-06 -0.000192583 0)
(-7.57367e-06 -0.000187018 0)
(-7.37461e-06 -0.000181796 0)
(-7.26308e-06 -0.000176918 0)
(-7.3368e-06 -0.000172335 0)
(-7.70223e-06 -0.000167927 0)
(-8.44542e-06 -0.000163498 0)
(-9.6078e-06 -0.000158793 0)
(-1.11663e-05 -0.000153526 0)
(-1.30233e-05 -0.00014744 0)
(-1.50103e-05 -0.00014035 0)
(-1.68922e-05 -0.000132194 0)
(-1.83653e-05 -0.000123058 0)
(-1.90626e-05 -0.000113219 0)
(-1.85833e-05 -0.000103153 0)
(-1.65535e-05 -9.35484e-05 0)
(-1.27147e-05 -8.52643e-05 0)
(-7.01733e-06 -7.92542e-05 0)
(3.21458e-07 -7.64506e-05 0)
(8.77294e-06 -7.76499e-05 0)
(1.75531e-05 -8.3334e-05 0)
(2.57021e-05 -9.36044e-05 0)
(3.21656e-05 -0.0001081 0)
(3.59415e-05 -0.000125947 0)
(3.62753e-05 -0.000145794 0)
(3.28466e-05 -0.000165929 0)
(2.59021e-05 -0.00018451 0)
(1.627e-05 -0.000199853 0)
(5.23515e-06 -0.000210713 0)
(-5.72238e-06 -0.000216492 0)
(-1.52139e-05 -0.00021729 0)
(-2.22401e-05 -0.000213891 0)
(-2.64541e-05 -0.000207369 0)
(-2.79214e-05 -0.000198806 0)
(-2.70731e-05 -0.000189215 0)
(-2.45316e-05 -0.000179353 0)
(-2.09334e-05 -0.000169681 0)
(-1.68394e-05 -0.00016043 0)
(-1.27311e-05 -0.000151646 0)
(-9.0378e-06 -0.000143243 0)
(-6.17758e-06 -0.000135024 0)
(-4.56574e-06 -0.000126689 0)
(-4.59126e-06 -0.00011782 0)
(-6.48005e-06 -0.000107968 0)
(-1.02702e-05 -9.69728e-05 0)
(-1.57495e-05 -8.42536e-05 0)
(-2.25196e-05 -6.96023e-05 0)
(-3.00724e-05 -5.30058e-05 0)
(-3.78618e-05 -3.46254e-05 0)
(-4.53948e-05 -1.47716e-05 0)
(-5.22685e-05 6.17713e-06 0)
(-5.81496e-05 2.78034e-05 0)
(-6.2818e-05 4.96655e-05 0)
(-6.61691e-05 7.13596e-05 0)
(-6.81631e-05 9.2521e-05 0)
(-6.88173e-05 0.000112829 0)
(-6.81943e-05 0.000132011 0)
(-6.63924e-05 0.000149839 0)
(-6.353e-05 0.000166139 0)
(-5.97349e-05 0.000180776 0)
(-5.51403e-05 0.000193654 0)
(-4.98772e-05 0.000204715 0)
(-4.40697e-05 0.000213928 0)
(-3.78371e-05 0.000221287 0)
(-3.12916e-05 0.000226809 0)
(-2.45383e-05 0.000230526 0)
(-1.76574e-05 0.00023249 0)
(-1.07085e-05 0.000232749 0)
(-3.77925e-06 0.000231359 0)
(3.04591e-06 0.000228412 0)
(9.72147e-06 0.000224002 0)
(1.62128e-05 0.000218219 0)
(2.24878e-05 0.000211151 0)
(2.85177e-05 0.00020289 0)
(3.42773e-05 0.000193524 0)
(3.97385e-05 0.000183144 0)
(4.48816e-05 0.000171843 0)
(4.96871e-05 0.000159712 0)
(5.41389e-05 0.000146851 0)
(5.82389e-05 0.000133419 0)
(6.19494e-05 0.000119445 0)
(6.52637e-05 0.000105023 0)
(6.81702e-05 9.02397e-05 0)
(7.06631e-05 7.51848e-05 0)
(7.27354e-05 5.99534e-05 0)
(7.43852e-05 4.46469e-05 0)
(7.56166e-05 2.93731e-05 0)
(7.64424e-05 1.42462e-05 0)
(7.68861e-05 -6.17663e-07 0)
(7.69846e-05 -1.51033e-05 0)
(7.67889e-05 -2.9106e-05 0)
(7.63607e-05 -4.25394e-05 0)
(7.57664e-05 -5.53438e-05 0)
(7.50699e-05 -6.74948e-05 0)
(7.43096e-05 -7.90133e-05 0)
(7.35289e-05 -9.00442e-05 0)
(7.25989e-05 -0.000100764 0)
(7.12373e-05 -0.000111563 0)
(6.888e-05 -0.000123204 0)
(6.4437e-05 -0.000137051 0)
(5.59398e-05 -0.000155605 0)
(3.98777e-05 -0.000183273 0)
(1.00769e-05 -0.000227508 0)
(-4.46989e-05 -0.000301275 0)
(-0.000145441 -0.000423556 0)
(-0.000318656 -0.000614237 0)
(-0.000563313 -0.000876014 0)
(2.21616e-07 -1.50811e-06 0)
(3.03743e-06 -2.16928e-06 0)
(6.52797e-06 -2.58042e-06 0)
(1.0317e-05 -2.63349e-06 0)
(1.40754e-05 -2.55192e-06 0)
(1.77402e-05 -2.46247e-06 0)
(2.13501e-05 -2.41064e-06 0)
(2.49476e-05 -2.39736e-06 0)
(2.85689e-05 -2.41621e-06 0)
(3.22423e-05 -2.46165e-06 0)
(3.59944e-05 -2.53159e-06 0)
(3.98508e-05 -2.62589e-06 0)
(4.38391e-05 -2.74589e-06 0)
(4.7989e-05 -2.89353e-06 0)
(5.23327e-05 -3.07092e-06 0)
(5.69061e-05 -3.28061e-06 0)
(6.17478e-05 -3.52473e-06 0)
(6.68996e-05 -3.80475e-06 0)
(7.2406e-05 -4.12103e-06 0)
(7.83127e-05 -4.47212e-06 0)
(8.46642e-05 -4.85451e-06 0)
(9.15036e-05 -5.26304e-06 0)
(9.88705e-05 -5.69082e-06 0)
(0.000106799 -6.12922e-06 0)
(0.000115316 -6.56961e-06 0)
(0.000124442 -7.00435e-06 0)
(0.000134195 -7.42823e-06 0)
(0.000144589 -7.84071e-06 0)
(0.000155643 -8.24729e-06 0)
(0.000167387 -8.66035e-06 0)
(0.000179871 -9.09812e-06 0)
(0.000193171 -9.58263e-06 0)
(0.000207395 -1.01388e-05 0)
(0.000222685 -1.07927e-05 0)
(0.000239221 -1.15697e-05 0)
(0.000257215 -1.24972e-05 0)
(0.000276908 -1.36079e-05 0)
(0.000298565 -1.49436e-05 0)
(0.000322471 -1.65621e-05 0)
(0.000348929 -1.85434e-05 0)
(0.000378261 -2.09931e-05 0)
(0.000410805 -2.40416e-05 0)
(0.000446913 -2.78367e-05 0)
(0.000486943 -3.25197e-05 0)
(0.000531226 -3.81922e-05 0)
(0.000580017 -4.48799e-05 0)
(0.000633429 -5.24935e-05 0)
(0.000691333 -6.07842e-05 0)
(0.000753256 -6.93004e-05 0)
(0.00081827 -7.73459e-05 0)
(0.000884898 -8.39517e-05 0)
(0.000951005 -8.79837e-05 0)
(0.00101384 -8.84292e-05 0)
(0.00107016 -8.44153e-05 0)
(0.00111651 -7.53155e-05 0)
(0.00114952 -6.1046e-05 0)
(0.0011663 -4.20561e-05 0)
(0.00116447 -1.97685e-05 0)
(0.00114309 2.71222e-06 0)
(0.00110432 2.34984e-05 0)
(0.00105003 4.2721e-05 0)
(0.000981589 6.03733e-05 0)
(0.000900629 7.60945e-05 0)
(0.000808873 8.97836e-05 0)
(0.000707883 0.00010161 0)
(0.000598968 0.000111797 0)
(0.000483241 0.000120523 0)
(0.000361684 0.000127926 0)
(0.000235212 0.000134092 0)
(0.000104685 0.00013913 0)
(-2.91737e-05 0.000143188 0)
(-0.000165849 0.000145948 0)
(-0.000303187 0.000146422 0)
(-0.000440618 0.000145292 0)
(-0.000576343 0.000141883 0)
(-0.000708493 0.000135809 0)
(-0.000834893 0.000126836 0)
(-0.000953186 0.00011484 0)
(-0.00106092 9.99783e-05 0)
(-0.00115606 8.24438e-05 0)
(-0.00123661 6.23044e-05 0)
(-0.00130117 3.90334e-05 0)
(-0.00134742 1.11289e-05 0)
(-0.00137236 -2.40208e-05 0)
(-0.0013697 -6.9615e-05 0)
(-0.00133011 -0.000126856 0)
(-0.00124354 -0.000192786 0)
(-0.00110241 -0.000259046 0)
(-0.000906358 -0.000310366 0)
(-0.000667634 -0.000329971 0)
(-0.000407826 -0.000304201 0)
(-0.00016725 -0.000222858 0)
(8.91343e-06 -0.000109738 0)
(0.000112705 -1.84731e-05 0)
(0.000163296 3.26496e-05 0)
(0.000176242 6.03135e-05 0)
(0.000158616 7.69655e-05 0)
(0.00012125 8.69519e-05 0)
(7.00431e-05 9.05824e-05 0)
(-6.04587e-06 8.03403e-05 0)
(6.328e-05 4.9972e-05 0)
(9.63544e-07 0.000113324 0)
(-7.71713e-05 3.28147e-05 0)
(-0.00013174 -0.000147839 0)
(-0.000155766 -0.000376899 0)
(-0.000153314 -0.000614312 0)
(-0.000130735 -0.000835554 0)
(-9.25637e-05 -0.00101873 0)
(-4.3461e-05 -0.00114889 0)
(1.30584e-05 -0.00121699 0)
(7.26256e-05 -0.00121655 0)
(0.000128077 -0.00114649 0)
(0.000171888 -0.00101427 0)
(0.000197741 -0.000833612 0)
(0.0002026 -0.000624694 0)
(0.000188009 -0.000409537 0)
(0.000160732 -0.000206616 0)
(0.000129505 -2.69693e-05 0)
(0.000101751 0.000126128 0)
(7.96857e-05 0.000255953 0)
(6.3123e-05 0.000366168 0)
(5.02241e-05 0.000454802 0)
(3.92374e-05 0.000522444 0)
(2.9596e-05 0.000574942 0)
(2.01456e-05 0.00061645 0)
(9.70534e-06 0.00064778 0)
(-2.2417e-06 0.000668312 0)
(-1.62456e-05 0.00067685 0)
(-3.25416e-05 0.000671529 0)
(-5.10212e-05 0.000650035 0)
(-7.09994e-05 0.000612387 0)
(-9.15612e-05 0.000555131 0)
(-0.00011156 0.000476929 0)
(-0.000129896 0.000377473 0)
(-0.00014549 0.000257505 0)
(-0.000157276 0.00011905 0)
(-0.000163652 -3.43427e-05 0)
(-0.000163797 -0.000196751 0)
(-0.000153395 -0.000359122 0)
(-0.000129488 -0.000512071 0)
(-8.89213e-05 -0.000640375 0)
(-3.04803e-05 -0.000726099 0)
(4.46436e-05 -0.000751205 0)
(0.00013489 -0.000706149 0)
(0.00022717 -0.000590335 0)
(0.000318199 -0.000414476 0)
(0.000405699 -0.000181082 0)
(0.000466213 0.000100717 0)
(0.000455915 0.00038577 0)
(0.000340763 0.000626198 0)
(0.000106934 0.000764166 0)
(-0.000152514 0.000801028 0)
(-0.000330736 0.000740294 0)
(-0.000392449 0.000585074 0)
(-0.000453845 0.000301802 0)
(-0.000473276 -5.94797e-06 0)
(-0.000568748 -3.85555e-05 0)
(-0.000878484 0.000136237 0)
(-0.00107453 0.0001646 0)
(-0.000588138 0.000110314 0)
(0.000841753 0.000449563 0)
(0.00243147 0.00184507 0)
(0.00247494 0.00378038 0)
(0.00163423 0.0047993 0)
(0.00123975 0.00526404 0)
(0.000930189 0.00573179 0)
(0.00070418 0.00603494 0)
(0.000555695 0.00629044 0)
(0.000417686 0.00648017 0)
(0.000334296 0.00661601 0)
(0.000249819 0.0067256 0)
(0.000188124 0.00679043 0)
(0.000134103 0.00683524 0)
(8.3901e-05 0.00685111 0)
(4.28842e-05 0.00684451 0)
(3.32956e-06 0.00681948 0)
(-3.14452e-05 0.00677584 0)
(-6.51273e-05 0.00671666 0)
(-9.6615e-05 0.00664155 0)
(-0.00012582 0.00655277 0)
(-0.000153424 0.00645134 0)
(-0.000178792 0.00633828 0)
(-0.000202108 0.00621512 0)
(-0.000223139 0.00608305 0)
(-0.000242232 0.00594346 0)
(-0.000259459 0.00579723 0)
(-0.000274912 0.00564543 0)
(-0.000288872 0.00548886 0)
(-0.000301381 0.00532823 0)
(-0.00031255 0.00516426 0)
(-0.00032245 0.00499755 0)
(-0.00033113 0.00482868 0)
(-0.000338616 0.00465821 0)
(-0.000344898 0.00448667 0)
(-0.000349949 0.00431456 0)
(-0.00035374 0.00414247 0)
(-0.000356258 0.00397091 0)
(-0.000357476 0.00380042 0)
(-0.000357374 0.00363152 0)
(-0.000355954 0.00346476 0)
(-0.000353221 0.00330061 0)
(-0.000349193 0.00313959 0)
(-0.000343908 0.00298215 0)
(-0.000337415 0.00282875 0)
(-0.000329771 0.00267976 0)
(-0.000321057 0.00253559 0)
(-0.000311377 0.00239654 0)
(-0.00030083 0.00226291 0)
(-0.000289553 0.00213494 0)
(-0.000277707 0.00201284 0)
(-0.00026547 0.00189672 0)
(-0.00025302 0.00178665 0)
(-0.000240518 0.00168257 0)
(-0.000228067 0.00158439 0)
(-0.000215716 0.00149198 0)
(-0.000203567 0.00140525 0)
(-0.000191743 0.00132398 0)
(-0.00018031 0.0012479 0)
(-0.000169231 0.00117666 0)
(-0.000158395 0.00110995 0)
(-0.000147668 0.0010476 0)
(-0.000137071 0.000989663 0)
(-0.00012703 0.00093625 0)
(-0.000118233 0.000887011 0)
(-0.000111087 0.000841152 0)
(-0.000105594 0.000797914 0)
(-0.000101542 0.000756639 0)
(-9.85115e-05 0.00071687 0)
(-9.62102e-05 0.00067836 0)
(-9.44075e-05 0.000640953 0)
(-9.30186e-05 0.000604633 0)
(-9.21921e-05 0.000569326 0)
(-9.21281e-05 0.000534724 0)
(-9.28848e-05 0.00050049 0)
(-9.4457e-05 0.000466343 0)
(-9.68238e-05 0.000432066 0)
(-9.99603e-05 0.000397415 0)
(-0.00010373 0.000362244 0)
(-0.000108271 0.000326468 0)
(-0.000113542 0.000289789 0)
(-0.000119368 0.000252097 0)
(-0.000125763 0.000213384 0)
(-0.000132821 0.000173471 0)
(-0.000140438 0.000132247 0)
(-0.000148606 8.96442e-05 0)
(-0.00015732 4.55663e-05 0)
(-0.000167999 -5.36607e-08 0)
(-0.000181316 -4.86275e-05 0)
(-0.000193635 -9.9864e-05 0)
(-0.000205118 -0.000152722 0)
(-0.000216076 -0.000206621 0)
(-0.000226829 -0.000261367 0)
(-0.000237641 -0.000317007 0)
(-0.000248704 -0.000373697 0)
(-0.000260147 -0.000431617 0)
(-0.000272063 -0.00049093 0)
(-0.000285695 -0.00055406 0)
(-0.000300399 -0.000620188 0)
(-0.000315688 -0.000688433 0)
(-0.000331592 -0.000758832 0)
(-0.000348152 -0.000831427 0)
(-0.00036541 -0.000906265 0)
(-0.000383423 -0.000983389 0)
(-0.000402255 -0.00106286 0)
(-0.000421966 -0.00114474 0)
(-0.000442643 -0.00122908 0)
(-0.000464369 -0.00131597 0)
(-0.000487234 -0.00140546 0)
(-0.000511375 -0.00149765 0)
(-0.000536919 -0.00159262 0)
(-0.000563997 -0.00169049 0)
(-0.00059278 -0.00179136 0)
(-0.000623473 -0.00189533 0)
(-0.00065629 -0.00200257 0)
(-0.000691463 -0.0021132 0)
(-0.000729278 -0.00222738 0)
(-0.000770045 -0.00234529 0)
(-0.000814115 -0.00246712 0)
(-0.000861906 -0.00259308 0)
(-0.000913863 -0.0027234 0)
(-0.000970521 -0.00285833 0)
(-0.00103244 -0.00299815 0)
(-0.0011003 -0.00314317 0)
(-0.00117482 -0.00329374 0)
(-0.00125684 -0.00345028 0)
(-0.00134726 -0.00361309 0)
(-0.00144716 -0.00378298 0)
(-0.00155755 -0.00395985 0)
(-0.00167997 -0.00414553 0)
(-0.00181526 -0.00433833 0)
(-0.00196612 -0.0045436 0)
(-0.00213199 -0.00475343 0)
(-0.00231913 -0.00498533 0)
(-0.00252127 -0.00520929 0)
(-0.00275592 -0.00548428 0)
(-0.00299588 -0.0057046 0)
(-0.0032937 -0.00606658 0)
(-0.00354641 -0.0062146 0)
(-0.00390046 -0.00678222 0)
(-0.0039402 -0.00656224 0)
)
;
    }
    frontAndBack
    {
        type            empty;
    }
}


// ************************************************************************* //
