/*--------------------------------*- C++ -*----------------------------------*\
  =========                 |
  \\      /  F ield         | OpenFOAM: The Open Source CFD Toolbox
   \\    /   O peration     | Website:  https://openfoam.org
    \\  /    A nd           | Version:  7
     \\/     M anipulation  |
\*---------------------------------------------------------------------------*/
FoamFile
{
    version     2.0;
    format      ascii;
    class       volScalarField;
    location    "0.07";
    object      yPlus;
}
// * * * * * * * * * * * * * * * * * * * * * * * * * * * * * * * * * * * * * //

dimensions      [0 0 0 0 0 0 0];

internalField   uniform 0;

boundaryField
{
    velocityInlet
    {
        type            calculated;
        value           uniform 0;
    }
    pressureOutlet
    {
        type            calculated;
        value           uniform 0;
    }
    fixedWalls
    {
        type            calculated;
        value           nonuniform List<scalar> 
100
(
1.81904
1.85386
1.00321
0.882098
1.24382
1.06688
0.49776
1.62609
2.15339
2.19768
1.56126
1.84982
2.32946
1.83942
1.30683
1.20064
1.44565
1.74822
1.92092
1.91577
1.15128
1.43896
2.25999
2.64668
2.76787
2.68831
2.45002
2.08161
1.59944
0.989907
0.481225
1.01318
1.21126
1.28126
1.28551
1.2576
1.21748
1.17653
1.14
1.10772
1.07536
1.03749
0.991593
0.940423
0.891103
0.851665
0.827208
0.818309
0.822228
0.834661
0.850195
0.86197
0.862045
0.84243
0.796197
0.717933
0.603131
0.443986
0.19652
0.304128
0.421337
0.460973
0.448078
0.390966
0.286907
0.0524898
0.288372
0.402063
0.480243
0.535441
0.572149
0.59281
0.599898
0.597014
0.589083
0.581396
0.578033
0.580258
0.586052
0.590907
0.589381
0.576866
0.551833
0.517944
0.485206
0.467688
0.475558
0.50696
0.550148
0.594038
0.630723
0.659521
0.678584
0.69344
0.700303
0.706713
0.702974
0.692389
0.683594
0.608773
)
;
    }
    bottomWall
    {
        type            calculated;
        value           nonuniform List<scalar> 
800
(
2.9448
1.98396
1.6136
1.44064
1.35569
1.29727
1.24856
1.20771
1.17343
1.14413
1.11861
1.09605
1.07591
1.05778
1.04134
1.02635
1.01259
0.999905
0.988168
0.977263
0.9671
0.957598
0.948692
0.940322
0.93244
0.925001
0.91797
0.911309
0.90499
0.898988
0.893278
0.887839
0.882651
0.877698
0.872965
0.868435
0.864098
0.85994
0.855952
0.852122
0.848442
0.844904
0.841499
0.83822
0.835061
0.832016
0.829077
0.826242
0.823501
0.820856
0.818641
0.816808
0.814997
0.813211
0.811451
0.809714
0.808002
0.806311
0.804644
0.802998
0.801375
0.799773
0.79819
0.796628
0.795086
0.793564
0.79206
0.790576
0.789109
0.787661
0.78623
0.784816
0.78342
0.78204
0.780677
0.779329
0.777998
0.776681
0.77538
0.774093
0.772823
0.771565
0.770322
0.769092
0.767877
0.766675
0.765485
0.76431
0.763146
0.761995
0.760856
0.75973
0.758615
0.757512
0.75642
0.755341
0.754271
0.753213
0.752166
0.751129
0.750102
0.749087
0.74808
0.747085
0.746099
0.745122
0.744156
0.743198
0.742249
0.741311
0.74038
0.73946
0.738547
0.737644
0.736749
0.735862
0.734984
0.734114
0.733252
0.732398
0.731551
0.730714
0.729883
0.72906
0.728245
0.727436
0.726636
0.725844
0.725057
0.724278
0.723506
0.722741
0.721984
0.721233
0.720487
0.71975
0.719019
0.718295
0.717577
0.716865
0.71616
0.715462
0.71477
0.714084
0.713404
0.712731
0.712064
0.711404
0.710749
0.7101
0.709557
0.709115
0.70867
0.708226
0.707781
0.707336
0.706892
0.706448
0.706003
0.705559
0.705115
0.704671
0.704227
0.703783
0.70334
0.702897
0.702455
0.702012
0.70157
0.701129
0.700688
0.700247
0.699807
0.699369
0.698929
0.698492
0.698055
0.697619
0.697184
0.69675
0.696317
0.695885
0.695454
0.695024
0.694595
0.694169
0.693744
0.693319
0.692896
0.692475
0.692056
0.691638
0.691221
0.690808
0.690396
0.689987
0.689578
0.689172
0.688769
0.688367
0.687969
0.687573
0.687178
0.686787
0.6864
0.686014
0.685631
0.685251
0.684875
0.684501
0.68413
0.683762
0.683398
0.683037
0.68268
0.682326
0.681976
0.681629
0.681286
0.680947
0.680611
0.68028
0.679951
0.679628
0.679307
0.678991
0.67868
0.678372
0.678067
0.677766
0.677471
0.677178
0.67689
0.676604
0.676324
0.676044
0.675774
0.675496
0.675237
0.674957
0.674715
0.674423
0.674209
0.673887
0.673718
0.673341
0.673244
0.672781
0.672779
0.672195
2.94478
1.98379
1.6131
1.43968
1.35419
1.29514
1.24571
1.20408
1.16898
1.13882
1.1124
1.08894
1.06789
1.04884
1.03148
1.01555
1.00085
0.987215
0.974512
0.962625
0.951455
0.940918
0.930941
0.921459
0.912416
0.90376
0.895445
0.887428
0.879673
0.872141
0.8648
0.857614
0.850557
0.843593
0.8367
0.829835
0.822989
0.816112
0.809193
0.802211
0.795083
0.787972
0.780428
0.773378
0.76499
0.758813
0.748546
0.745469
0.732865
0.710985
0.101777
0.237424
0.394732
0.552305
0.70609
0.850487
0.984096
1.10641
1.21796
1.31965
1.41248
1.49739
1.57524
1.64682
1.71278
1.77369
1.83002
1.88216
1.93045
1.97518
2.0166
2.05493
2.09036
2.12305
2.15316
2.18083
2.20618
2.22932
2.25035
2.26936
2.28645
2.30169
2.31516
2.32692
2.33704
2.34558
2.3526
2.35814
2.36225
2.36498
2.36638
2.36648
2.36532
2.36292
2.35934
2.35459
2.34873
2.34177
2.33376
2.32471
2.31465
2.30362
2.29163
2.27872
2.26492
2.25025
2.23473
2.2184
2.20128
2.18341
2.1648
2.14548
2.1255
2.10487
2.08364
2.06183
2.03948
2.01664
1.99333
1.96961
1.94551
1.92108
1.89636
1.87142
1.84628
1.82099
1.79562
1.77019
1.74476
1.71938
1.69407
1.66888
1.64385
1.61901
1.59438
1.57
1.54589
1.52207
1.49859
1.47547
1.45276
1.43053
1.40887
1.38788
1.36767
1.34831
1.32978
1.31192
1.29433
1.27634
1.25705
1.23539
1.2103
1.18087
1.14663
1.10771
1.06505
1.02059
0.977385
0.939688
0.912733
0.90194
0.911537
0.942558
0.992438
1.05608
1.12741
1.20053
1.27028
1.33244
1.3838
1.42227
1.44682
1.45742
1.45505
1.4415
1.41905
1.39023
1.35754
1.323
1.28802
1.25306
1.21763
1.18036
1.13909
1.09129
1.03444
0.967342
0.886224
0.787658
0.666822
0.518272
0.384043
0.48466
0.647631
0.786124
0.903414
1.00433
1.09198
1.16834
1.23478
1.29231
1.34169
1.38351
1.41827
1.44641
1.46829
1.48423
1.49453
1.49949
1.49928
1.49402
1.48392
1.46914
1.44984
1.42612
1.39808
1.36578
1.32925
1.28851
1.24353
1.19434
1.14114
1.08355
1.02141
0.954656
0.883365
0.808178
0.73125
0.658662
0.604698
0.590463
0.622115
0.681315
0.74911
0.816257
0.879409
0.937619
0.991087
1.03962
1.08301
1.12088
1.15235
1.17587
1.18882
1.18877
1.18522
1.22795
1.43305
1.85983
0.0900783
0.228042
0.328175
0.410256
0.478736
0.537526
0.589832
0.637702
0.68249
0.725092
0.766161
0.806196
0.845613
0.884767
0.923978
0.963541
1.00373
1.04479
1.08695
1.13043
1.17537
1.22189
1.27008
1.31996
1.37151
1.42466
1.47934
1.53548
1.59303
1.65199
1.71247
1.77466
1.83886
1.90548
1.97502
2.04804
2.12511
2.20683
2.29374
2.38635
2.48513
2.59047
2.7027
2.82204
2.94849
3.0818
3.22129
3.36573
3.51318
3.66096
3.80559
3.9429
4.06814
4.17615
4.2618
4.32052
4.34864
4.3434
4.3032
4.23
4.1251
3.98899
3.82189
3.62318
3.39094
3.12125
2.80695
2.43513
1.9813
1.40141
1.07704
1.70774
2.24868
2.69235
3.07017
3.3985
3.68546
3.93519
4.14965
4.33013
4.47693
4.59024
4.66792
4.70624
4.6962
4.62356
4.47106
4.22061
3.85525
3.36274
2.72861
1.934
0.861804
1.21586
1.60529
1.70493
1.63562
1.46052
1.20807
0.715929
0.808906
1.0035
0.616469
1.28872
1.96305
2.48043
2.8824
3.1779
3.37255
3.4704
3.47117
3.37387
3.18083
2.89496
2.52205
2.06506
1.50986
0.819566
1.12611
1.59053
1.90654
2.12752
2.28142
2.39365
2.47818
2.53963
2.57863
2.594
2.58284
2.54071
2.46643
2.34985
2.18151
1.94802
1.62717
1.18272
0.914904
1.44283
1.89672
2.24689
2.50271
2.65752
2.69496
2.60886
2.39308
2.04682
1.63045
1.69511
2.13524
2.43003
2.55192
2.66572
2.72468
2.5071
1.89394
1.6614
2.20203
2.72095
3.08312
2.9489
3.55754
5.14842
6.22016
6.79114
7.17672
7.5022
7.7209
7.89293
8.0203
8.11131
8.1807
8.22461
8.25292
8.26435
8.2616
8.24718
8.2215
8.18576
8.1404
8.08622
8.02383
7.95375
7.87667
7.79314
7.70376
7.60897
7.50922
7.40487
7.29623
7.1836
7.06722
6.94735
6.82419
6.69798
6.56895
6.43735
6.30344
6.1675
6.02982
5.89073
5.75055
5.60962
5.46831
5.32698
5.18601
5.04579
4.9067
4.76911
4.63342
4.49998
4.36916
4.24126
4.11659
3.99533
3.87768
3.76378
3.65371
3.54753
3.44527
3.34692
3.25237
3.16156
3.07447
2.99098
2.9107
2.83303
2.75725
2.68285
2.60944
2.53639
2.46316
2.3894
2.31456
2.23799
2.15901
2.07686
1.99068
1.89958
1.8027
1.69829
1.58491
1.4614
1.3257
1.17707
1.02084
0.888513
0.873498
1.00831
1.19405
1.37985
1.55436
1.71716
1.87011
2.01523
2.15423
2.28846
2.42387
2.55842
2.69046
2.82041
2.94861
3.07538
3.20096
3.32561
3.44952
3.5729
3.69593
3.81877
3.94159
4.06456
4.18785
4.31162
4.43602
4.56124
4.68747
4.81488
4.94368
5.07408
5.2063
5.34058
5.47718
5.6164
5.75853
5.90389
6.05284
6.20574
6.36305
6.52512
6.6926
6.86566
7.04552
7.23153
7.42663
7.62723
7.84186
8.05686
8.29845
8.51957
8.79973
8.97985
)
;
    }
    frontAndBack
    {
        type            empty;
    }
}


// ************************************************************************* //
