/*--------------------------------*- C++ -*----------------------------------*\
  =========                 |
  \\      /  F ield         | OpenFOAM: The Open Source CFD Toolbox
   \\    /   O peration     | Website:  https://openfoam.org
    \\  /    A nd           | Version:  7
     \\/     M anipulation  |
\*---------------------------------------------------------------------------*/
FoamFile
{
    version     2.0;
    format      ascii;
    class       volScalarField;
    location    "0.08";
    object      k;
}
// * * * * * * * * * * * * * * * * * * * * * * * * * * * * * * * * * * * * * //

dimensions      [0 2 -2 0 0 0 0];

internalField   nonuniform List<scalar> 
70000
(
1.08549e-05
4.21877e-06
2.82436e-06
2.31692e-06
1.99764e-06
1.75749e-06
1.56551e-06
1.40887e-06
1.27804e-06
1.16762e-06
1.07262e-06
9.90902e-07
9.19245e-07
8.56834e-07
8.01299e-07
7.52438e-07
7.08421e-07
6.69308e-07
6.33751e-07
6.01849e-07
5.72709e-07
5.46284e-07
5.22117e-07
4.99929e-07
4.7967e-07
4.60823e-07
4.43666e-07
4.27506e-07
4.1281e-07
3.98879e-07
3.86121e-07
3.7411e-07
3.62843e-07
3.52549e-07
3.42393e-07
3.33671e-07
3.24323e-07
3.17048e-07
3.0828e-07
3.02371e-07
2.93925e-07
2.89429e-07
2.8126e-07
2.78246e-07
2.70464e-07
2.7049e-07
2.62973e-07
2.7711e-07
2.66137e-07
2.79566e-07
1.72794e-05
1.13673e-05
8.52052e-06
7.01071e-06
6.03753e-06
5.31181e-06
4.73232e-06
4.25927e-06
3.86412e-06
3.53062e-06
3.24372e-06
2.99691e-06
2.78051e-06
2.59197e-06
2.42425e-06
2.2766e-06
2.14366e-06
2.02541e-06
1.91801e-06
1.82153e-06
1.73351e-06
1.65355e-06
1.58055e-06
1.5134e-06
1.45218e-06
1.39514e-06
1.34327e-06
1.29438e-06
1.24991e-06
1.2078e-06
1.16915e-06
1.13287e-06
1.09871e-06
1.06765e-06
1.03683e-06
1.01052e-06
9.82163e-07
9.60203e-07
9.33632e-07
9.15764e-07
8.90228e-07
8.7653e-07
8.51842e-07
8.4231e-07
8.19012e-07
8.16268e-07
7.95599e-07
8.24037e-07
8.04496e-07
8.25616e-07
1.937e-05
1.61297e-05
1.3291e-05
1.12899e-05
9.82881e-06
8.69717e-06
7.77933e-06
7.02271e-06
6.38597e-06
5.84593e-06
5.37962e-06
4.97731e-06
4.62371e-06
4.3149e-06
4.03979e-06
3.79696e-06
3.57821e-06
3.38306e-06
3.20591e-06
3.04622e-06
2.90077e-06
2.76814e-06
2.64729e-06
2.53569e-06
2.43417e-06
2.33926e-06
2.25306e-06
2.17167e-06
2.0976e-06
2.02751e-06
1.96296e-06
1.90264e-06
1.84544e-06
1.79382e-06
1.74217e-06
1.6984e-06
1.65093e-06
1.61427e-06
1.56991e-06
1.53987e-06
1.49748e-06
1.47411e-06
1.43314e-06
1.4162e-06
1.37762e-06
1.36913e-06
1.33539e-06
1.36233e-06
1.34802e-06
1.36073e-06
1.9861e-05
1.82601e-05
1.60855e-05
1.42006e-05
1.26402e-05
1.13497e-05
1.02614e-05
9.34051e-06
8.54862e-06
7.86698e-06
7.27183e-06
6.75383e-06
6.29519e-06
5.89198e-06
5.53097e-06
5.21032e-06
4.92055e-06
4.66046e-06
4.42414e-06
4.2098e-06
4.01468e-06
3.83561e-06
3.67271e-06
3.52132e-06
3.38385e-06
3.25465e-06
3.13737e-06
3.02632e-06
2.92506e-06
2.8293e-06
2.74068e-06
2.6582e-06
2.5794e-06
2.5087e-06
2.43747e-06
2.37729e-06
2.31192e-06
2.26114e-06
2.2003e-06
2.15814e-06
2.10057e-06
2.06662e-06
2.01127e-06
1.98599e-06
1.93303e-06
1.91706e-06
1.86995e-06
1.88348e-06
1.8838e-06
1.88024e-06
1.99706e-05
1.78459e-05
1.60747e-05
1.47667e-05
1.36022e-05
1.2538e-05
1.1569e-05
1.07027e-05
9.92096e-06
9.227e-06
8.60621e-06
8.05519e-06
7.55898e-06
7.11646e-06
6.71542e-06
6.35468e-06
6.02602e-06
5.72775e-06
5.4556e-06
5.20625e-06
4.97886e-06
4.76808e-06
4.57626e-06
4.39635e-06
4.23296e-06
4.07826e-06
3.93763e-06
3.80387e-06
3.68149e-06
3.56566e-06
3.45784e-06
3.35766e-06
3.26135e-06
3.17501e-06
3.08779e-06
3.01369e-06
2.9338e-06
2.87049e-06
2.79656e-06
2.74293e-06
2.67366e-06
2.62918e-06
2.56287e-06
2.52859e-06
2.46383e-06
2.44013e-06
2.38205e-06
2.37665e-06
2.3758e-06
2.35902e-06
2.00095e-05
1.4704e-05
1.37477e-05
1.3211e-05
1.25907e-05
1.19269e-05
1.12767e-05
1.06574e-05
1.00789e-05
9.54613e-06
9.04456e-06
8.57957e-06
8.14543e-06
7.74658e-06
7.37526e-06
7.03292e-06
6.71567e-06
6.4222e-06
6.1519e-06
5.89994e-06
5.66874e-06
5.45101e-06
5.25204e-06
5.06283e-06
4.89049e-06
4.72539e-06
4.57473e-06
4.43036e-06
4.29763e-06
4.17144e-06
4.05332e-06
3.94316e-06
3.83691e-06
3.74094e-06
3.64443e-06
3.5609e-06
3.47262e-06
3.3999e-06
3.3187e-06
3.25551e-06
3.18016e-06
3.12596e-06
3.05472e-06
3.01012e-06
2.94069e-06
2.90864e-06
2.847e-06
2.81835e-06
2.80953e-06
2.77751e-06
2.01332e-05
1.54672e-05
9.6347e-06
9.39786e-06
9.492e-06
9.49108e-06
9.43192e-06
9.29335e-06
9.05156e-06
8.77871e-06
8.48266e-06
8.18611e-06
7.89363e-06
7.61081e-06
7.33416e-06
7.07283e-06
6.82657e-06
6.591e-06
6.36967e-06
6.15653e-06
5.95801e-06
5.76578e-06
5.5883e-06
5.41569e-06
5.2572e-06
5.10234e-06
4.96013e-06
4.82205e-06
4.69432e-06
4.57151e-06
4.45603e-06
4.34696e-06
4.24189e-06
4.14508e-06
4.04904e-06
3.96294e-06
3.87505e-06
3.79815e-06
3.71769e-06
3.64876e-06
3.57485e-06
3.51323e-06
3.4448e-06
3.39041e-06
3.32608e-06
3.27974e-06
3.22658e-06
3.17861e-06
3.16252e-06
3.1154e-06
2.01713e-05
1.86758e-05
8.69173e-06
5.54008e-06
5.63002e-06
5.93351e-06
6.29037e-06
6.57548e-06
6.75307e-06
6.86158e-06
6.87938e-06
6.85966e-06
6.80663e-06
6.71763e-06
6.60652e-06
6.48415e-06
6.34721e-06
6.20379e-06
6.06313e-06
5.91871e-06
5.78063e-06
5.64063e-06
5.50919e-06
5.3769e-06
5.2533e-06
5.13074e-06
5.01783e-06
4.90539e-06
4.80051e-06
4.69716e-06
4.59955e-06
4.50487e-06
4.41416e-06
4.32751e-06
4.24353e-06
4.16393e-06
4.08666e-06
4.01311e-06
3.94239e-06
3.87394e-06
3.80955e-06
3.74559e-06
3.68738e-06
3.62726e-06
3.57502e-06
3.51819e-06
3.47652e-06
3.41802e-06
3.39847e-06
3.3434e-06
2.01672e-05
1.97239e-05
1.61672e-05
4.86205e-06
3.04242e-06
3.10528e-06
3.37307e-06
3.80255e-06
4.16647e-06
4.48344e-06
4.72893e-06
4.91724e-06
5.05625e-06
5.15504e-06
5.21251e-06
5.24704e-06
5.2494e-06
5.24012e-06
5.21824e-06
5.17659e-06
5.13065e-06
5.07249e-06
5.01422e-06
4.94703e-06
4.88186e-06
4.80982e-06
4.74033e-06
4.6663e-06
4.5961e-06
4.52365e-06
4.45482e-06
4.3851e-06
4.31882e-06
4.25205e-06
4.18927e-06
4.12517e-06
4.06666e-06
4.00484e-06
3.95118e-06
3.89175e-06
3.84343e-06
3.78558e-06
3.74238e-06
3.68541e-06
3.64754e-06
3.5908e-06
3.56025e-06
3.5019e-06
3.48262e-06
3.43113e-06
2.01477e-05
1.99342e-05
1.90656e-05
1.44992e-05
5.2456e-06
2.15522e-06
1.91427e-06
1.99297e-06
2.20511e-06
2.50265e-06
2.77682e-06
3.02824e-06
3.25127e-06
3.44582e-06
3.60806e-06
3.74392e-06
3.85437e-06
3.94007e-06
4.01141e-06
4.06074e-06
4.09982e-06
4.12123e-06
4.137e-06
4.13791e-06
4.13481e-06
4.12542e-06
4.11202e-06
4.09053e-06
4.06874e-06
4.04084e-06
4.01324e-06
3.98101e-06
3.94997e-06
3.91447e-06
3.88217e-06
3.8441e-06
3.81203e-06
3.77204e-06
3.7408e-06
3.699e-06
3.66882e-06
3.62563e-06
3.59761e-06
3.55342e-06
3.52798e-06
3.48288e-06
3.46008e-06
3.41323e-06
3.39677e-06
3.35991e-06
2.01216e-05
1.99661e-05
1.96423e-05
1.85465e-05
1.52143e-05
8.3655e-06
3.11099e-06
1.634e-06
1.44235e-06
1.44871e-06
1.52453e-06
1.68358e-06
1.86429e-06
2.03898e-06
2.20766e-06
2.36386e-06
2.50999e-06
2.63769e-06
2.75538e-06
2.85561e-06
2.94684e-06
3.02214e-06
3.09006e-06
3.14451e-06
3.19247e-06
3.22984e-06
3.2632e-06
3.28705e-06
3.30783e-06
3.32118e-06
3.33191e-06
3.33727e-06
3.33969e-06
3.33854e-06
3.33578e-06
3.32891e-06
3.32301e-06
3.31053e-06
3.30243e-06
3.28592e-06
3.2762e-06
3.25659e-06
3.2455e-06
3.22336e-06
3.21113e-06
3.18673e-06
3.17374e-06
3.14695e-06
3.13394e-06
3.1154e-06
2.00982e-05
1.99327e-05
1.97572e-05
1.93526e-05
1.85069e-05
1.65395e-05
1.23369e-05
6.87495e-06
2.9994e-06
1.49658e-06
1.24375e-06
1.14726e-06
1.15057e-06
1.19159e-06
1.28228e-06
1.38643e-06
1.49817e-06
1.6047e-06
1.71391e-06
1.81555e-06
1.91476e-06
2.00456e-06
2.09051e-06
2.16692e-06
2.23949e-06
2.30288e-06
2.36286e-06
2.41463e-06
2.46329e-06
2.50466e-06
2.54351e-06
2.5758e-06
2.60637e-06
2.63042e-06
2.65432e-06
2.67128e-06
2.68965e-06
2.7006e-06
2.71397e-06
2.72017e-06
2.729e-06
2.73151e-06
2.73593e-06
2.73583e-06
2.73548e-06
2.73297e-06
2.73048e-06
2.72309e-06
2.72013e-06
2.71405e-06
2.00782e-05
1.98875e-05
1.97568e-05
1.94609e-05
1.91462e-05
1.86422e-05
1.75593e-05
1.54337e-05
1.17608e-05
7.47449e-06
4.0093e-06
1.93042e-06
1.21272e-06
1.05784e-06
9.83128e-07
9.40829e-07
9.50968e-07
9.82378e-07
1.04389e-06
1.10509e-06
1.17322e-06
1.24047e-06
1.30999e-06
1.37719e-06
1.44495e-06
1.50797e-06
1.57034e-06
1.62753e-06
1.68375e-06
1.7345e-06
1.78455e-06
1.82883e-06
1.87281e-06
1.91066e-06
1.94885e-06
1.98088e-06
2.0136e-06
2.04028e-06
2.0679e-06
2.08989e-06
2.1128e-06
2.13041e-06
2.14907e-06
2.16251e-06
2.17756e-06
2.1865e-06
2.19853e-06
2.20319e-06
2.21117e-06
2.21551e-06
2.00614e-05
1.98538e-05
1.97342e-05
1.94711e-05
1.92555e-05
1.90476e-05
1.87374e-05
1.8194e-05
1.71051e-05
1.52478e-05
1.25976e-05
9.28072e-06
6.02513e-06
3.52378e-06
1.91189e-06
1.17941e-06
9.67187e-07
8.91672e-07
8.37983e-07
7.94698e-07
7.95289e-07
8.0701e-07
8.34557e-07
8.71191e-07
9.10498e-07
9.50552e-07
9.9392e-07
1.03624e-06
1.08109e-06
1.1238e-06
1.16801e-06
1.20882e-06
1.25067e-06
1.28864e-06
1.32755e-06
1.3625e-06
1.39817e-06
1.4298e-06
1.4621e-06
1.49037e-06
1.51926e-06
1.54394e-06
1.56948e-06
1.59063e-06
1.61283e-06
1.6306e-06
1.64894e-06
1.66388e-06
1.67723e-06
1.69125e-06
2.00475e-05
1.98303e-05
1.97076e-05
1.94489e-05
1.92724e-05
1.91154e-05
1.89663e-05
1.87521e-05
1.84653e-05
1.79187e-05
1.70884e-05
1.57239e-05
1.39184e-05
1.15901e-05
8.9299e-06
6.33144e-06
4.15257e-06
2.56676e-06
1.54672e-06
1.04866e-06
8.68259e-07
8.01439e-07
7.53641e-07
7.12295e-07
6.81748e-07
6.74849e-07
6.79645e-07
6.91633e-07
7.12746e-07
7.34519e-07
7.59156e-07
7.83016e-07
8.09888e-07
8.36019e-07
8.64235e-07
8.91304e-07
9.19822e-07
9.46511e-07
9.74087e-07
9.99595e-07
1.02563e-06
1.04941e-06
1.0736e-06
1.09553e-06
1.11754e-06
1.13757e-06
1.15679e-06
1.1748e-06
1.19062e-06
1.20696e-06
2.00362e-05
1.98124e-05
1.96851e-05
1.94185e-05
1.92584e-05
1.9109e-05
1.90013e-05
1.88506e-05
1.87143e-05
1.85038e-05
1.82527e-05
1.78404e-05
1.72464e-05
1.6384e-05
1.52008e-05
1.36811e-05
1.18985e-05
9.83883e-06
7.71082e-06
5.71909e-06
4.02716e-06
2.73208e-06
1.79426e-06
1.20342e-06
9.02275e-07
7.73469e-07
7.15871e-07
6.78194e-07
6.43521e-07
6.12124e-07
5.90886e-07
5.79461e-07
5.8043e-07
5.84777e-07
5.94167e-07
6.05994e-07
6.1983e-07
6.3333e-07
6.48239e-07
6.62885e-07
6.78726e-07
6.94647e-07
7.10975e-07
7.2736e-07
7.43569e-07
7.59766e-07
7.7502e-07
7.90275e-07
8.03907e-07
8.18021e-07
2.00272e-05
1.97985e-05
1.96659e-05
1.93964e-05
1.92328e-05
1.90814e-05
1.89835e-05
1.88537e-05
1.87388e-05
1.85984e-05
1.84639e-05
1.82929e-05
1.80879e-05
1.78024e-05
1.74236e-05
1.6886e-05
1.61912e-05
1.52843e-05
1.4166e-05
1.28433e-05
1.1373e-05
9.73893e-06
8.05146e-06
6.42345e-06
4.94141e-06
3.68473e-06
2.68426e-06
1.91005e-06
1.35172e-06
9.95123e-07
7.97849e-07
6.98538e-07
6.47944e-07
6.15081e-07
5.88359e-07
5.61949e-07
5.38495e-07
5.19254e-07
5.07445e-07
5.00237e-07
5.0038e-07
5.02178e-07
5.06127e-07
5.12513e-07
5.18648e-07
5.26462e-07
5.32872e-07
5.4082e-07
5.47119e-07
5.5514e-07
2.002e-05
1.97898e-05
1.9646e-05
1.93798e-05
1.9209e-05
1.90521e-05
1.89457e-05
1.88273e-05
1.87174e-05
1.85918e-05
1.84755e-05
1.83486e-05
1.82259e-05
1.80826e-05
1.79283e-05
1.77308e-05
1.74911e-05
1.7177e-05
1.67808e-05
1.62702e-05
1.56478e-05
1.48902e-05
1.39956e-05
1.29704e-05
1.18412e-05
1.06258e-05
9.3256e-06
8.00332e-06
6.70977e-06
5.50062e-06
4.40606e-06
3.4655e-06
2.68803e-06
2.05379e-06
1.55194e-06
1.17765e-06
9.19843e-07
7.57893e-07
6.62488e-07
6.07462e-07
5.73617e-07
5.49477e-07
5.282e-07
5.09772e-07
4.90402e-07
4.74516e-07
4.58383e-07
4.48694e-07
4.38117e-07
4.35206e-07
2.00145e-05
1.97895e-05
1.96199e-05
1.93662e-05
1.91885e-05
1.90253e-05
1.89099e-05
1.87912e-05
1.86775e-05
1.85565e-05
1.84449e-05
1.83275e-05
1.82159e-05
1.80979e-05
1.79843e-05
1.78639e-05
1.77396e-05
1.75994e-05
1.74413e-05
1.72521e-05
1.70253e-05
1.67505e-05
1.64162e-05
1.60139e-05
1.55348e-05
1.49777e-05
1.4336e-05
1.36072e-05
1.28012e-05
1.19231e-05
1.09965e-05
1.00239e-05
9.00926e-06
7.98583e-06
6.97875e-06
6.01507e-06
5.1131e-06
4.29357e-06
3.55947e-06
2.93204e-06
2.39631e-06
1.94434e-06
1.56851e-06
1.26555e-06
1.03009e-06
8.56241e-07
7.31134e-07
6.48854e-07
5.87781e-07
5.57318e-07
2.00102e-05
1.97935e-05
1.95933e-05
1.93524e-05
1.91697e-05
1.89999e-05
1.88764e-05
1.87555e-05
1.86376e-05
1.85144e-05
1.8399e-05
1.82823e-05
1.8171e-05
1.80602e-05
1.79519e-05
1.78448e-05
1.77367e-05
1.76297e-05
1.75217e-05
1.74119e-05
1.72953e-05
1.71708e-05
1.70309e-05
1.68739e-05
1.66913e-05
1.64808e-05
1.62355e-05
1.59512e-05
1.5622e-05
1.52462e-05
1.48196e-05
1.43451e-05
1.38177e-05
1.32406e-05
1.26152e-05
1.19502e-05
1.12507e-05
1.05252e-05
9.78602e-06
9.02689e-06
8.25915e-06
7.50356e-06
6.7642e-06
6.06064e-06
5.39138e-06
4.7762e-06
4.20128e-06
3.69465e-06
3.21189e-06
2.80243e-06
2.0007e-05
1.98008e-05
1.95686e-05
1.9339e-05
1.9152e-05
1.89761e-05
1.88445e-05
1.87214e-05
1.85988e-05
1.84734e-05
1.83528e-05
1.82347e-05
1.8119e-05
1.80068e-05
1.78958e-05
1.77895e-05
1.76842e-05
1.75834e-05
1.74818e-05
1.73848e-05
1.72853e-05
1.71891e-05
1.70906e-05
1.69946e-05
1.68924e-05
1.67889e-05
1.66757e-05
1.65553e-05
1.64193e-05
1.62713e-05
1.61023e-05
1.59159e-05
1.57043e-05
1.54712e-05
1.52057e-05
1.4919e-05
1.45965e-05
1.42507e-05
1.38716e-05
1.34706e-05
1.30362e-05
1.25848e-05
1.21017e-05
1.16127e-05
1.10999e-05
1.0589e-05
1.00607e-05
9.55264e-06
9.02554e-06
8.51107e-06
2.00047e-05
1.98093e-05
1.95456e-05
1.93258e-05
1.91347e-05
1.8954e-05
1.88137e-05
1.86886e-05
1.85616e-05
1.84339e-05
1.83083e-05
1.81878e-05
1.80679e-05
1.79535e-05
1.78386e-05
1.77304e-05
1.76208e-05
1.7518e-05
1.7414e-05
1.73166e-05
1.72187e-05
1.71278e-05
1.70348e-05
1.69483e-05
1.68586e-05
1.67741e-05
1.66857e-05
1.66016e-05
1.65134e-05
1.64285e-05
1.63368e-05
1.62454e-05
1.6146e-05
1.6045e-05
1.59282e-05
1.58128e-05
1.56777e-05
1.55387e-05
1.53815e-05
1.52168e-05
1.50334e-05
1.48414e-05
1.46262e-05
1.44067e-05
1.41672e-05
1.39159e-05
1.36484e-05
1.33798e-05
1.30927e-05
1.27969e-05
2.0003e-05
1.98182e-05
1.95242e-05
1.93121e-05
1.91175e-05
1.89335e-05
1.87842e-05
1.86568e-05
1.85261e-05
1.83962e-05
1.82662e-05
1.8143e-05
1.80192e-05
1.7902e-05
1.77834e-05
1.76728e-05
1.75598e-05
1.74541e-05
1.73469e-05
1.7247e-05
1.71453e-05
1.70511e-05
1.69552e-05
1.68672e-05
1.6776e-05
1.66932e-05
1.66094e-05
1.65305e-05
1.64491e-05
1.63745e-05
1.62957e-05
1.62218e-05
1.61445e-05
1.60724e-05
1.59929e-05
1.59232e-05
1.58447e-05
1.57704e-05
1.56895e-05
1.56108e-05
1.55257e-05
1.54395e-05
1.53432e-05
1.525e-05
1.51486e-05
1.50389e-05
1.49232e-05
1.48094e-05
1.46827e-05
1.4552e-05
2.00018e-05
1.98268e-05
1.95046e-05
1.92975e-05
1.91e-05
1.89144e-05
1.87563e-05
1.86262e-05
1.84925e-05
1.83603e-05
1.82267e-05
1.81006e-05
1.79735e-05
1.78535e-05
1.77316e-05
1.76183e-05
1.75023e-05
1.73937e-05
1.72837e-05
1.7181e-05
1.70765e-05
1.69792e-05
1.68807e-05
1.67897e-05
1.66955e-05
1.66092e-05
1.6522e-05
1.64394e-05
1.63555e-05
1.62792e-05
1.61993e-05
1.61254e-05
1.60524e-05
1.59845e-05
1.59103e-05
1.58471e-05
1.57784e-05
1.57154e-05
1.56483e-05
1.55879e-05
1.55234e-05
1.54617e-05
1.53963e-05
1.53389e-05
1.52774e-05
1.52143e-05
1.51483e-05
1.50897e-05
1.50228e-05
1.4959e-05
2.00009e-05
1.98303e-05
1.94884e-05
1.92823e-05
1.90825e-05
1.8897e-05
1.87304e-05
1.85971e-05
1.84611e-05
1.83269e-05
1.81903e-05
1.80613e-05
1.79314e-05
1.78087e-05
1.7684e-05
1.75681e-05
1.74495e-05
1.73379e-05
1.72254e-05
1.71203e-05
1.70132e-05
1.69132e-05
1.68126e-05
1.67191e-05
1.66222e-05
1.65335e-05
1.64441e-05
1.63581e-05
1.62711e-05
1.61924e-05
1.61093e-05
1.60316e-05
1.59549e-05
1.58834e-05
1.58062e-05
1.57395e-05
1.567e-05
1.56049e-05
1.55368e-05
1.54785e-05
1.54167e-05
1.53586e-05
1.52977e-05
1.5246e-05
1.51896e-05
1.51359e-05
1.5078e-05
1.50295e-05
1.49756e-05
1.49274e-05
2.00003e-05
1.98287e-05
1.94753e-05
1.92664e-05
1.90651e-05
1.88814e-05
1.87071e-05
1.857e-05
1.84324e-05
1.82964e-05
1.81574e-05
1.80258e-05
1.78934e-05
1.77686e-05
1.76412e-05
1.7523e-05
1.74022e-05
1.72881e-05
1.71732e-05
1.70661e-05
1.69565e-05
1.68543e-05
1.67518e-05
1.66562e-05
1.65569e-05
1.64666e-05
1.63753e-05
1.6287e-05
1.61975e-05
1.61173e-05
1.60316e-05
1.59512e-05
1.5872e-05
1.57981e-05
1.57176e-05
1.56479e-05
1.55755e-05
1.55078e-05
1.54358e-05
1.53747e-05
1.53086e-05
1.52471e-05
1.51836e-05
1.51293e-05
1.50693e-05
1.50154e-05
1.49556e-05
1.49048e-05
1.48513e-05
1.48052e-05
2e-05
1.9827e-05
1.9464e-05
1.92489e-05
1.90471e-05
1.88671e-05
1.86863e-05
1.8545e-05
1.84063e-05
1.82691e-05
1.81283e-05
1.79946e-05
1.786e-05
1.77336e-05
1.7604e-05
1.7484e-05
1.73613e-05
1.72451e-05
1.71279e-05
1.70194e-05
1.69074e-05
1.68035e-05
1.66994e-05
1.66021e-05
1.6501e-05
1.64093e-05
1.63165e-05
1.62265e-05
1.61349e-05
1.60537e-05
1.59661e-05
1.58839e-05
1.58027e-05
1.57274e-05
1.56447e-05
1.5573e-05
1.54983e-05
1.54289e-05
1.53543e-05
1.52909e-05
1.5222e-05
1.51582e-05
1.50924e-05
1.50351e-05
1.4971e-05
1.49159e-05
1.48534e-05
1.47987e-05
1.47423e-05
1.46947e-05
1.99999e-05
1.98258e-05
1.94556e-05
1.92309e-05
1.90291e-05
1.88544e-05
1.86685e-05
1.85228e-05
1.83833e-05
1.82456e-05
1.81034e-05
1.79683e-05
1.78318e-05
1.77045e-05
1.75732e-05
1.74517e-05
1.73276e-05
1.72097e-05
1.70907e-05
1.69812e-05
1.68673e-05
1.6762e-05
1.66566e-05
1.65579e-05
1.64555e-05
1.63628e-05
1.62686e-05
1.61776e-05
1.60844e-05
1.60023e-05
1.59135e-05
1.583e-05
1.57471e-05
1.56707e-05
1.55868e-05
1.55137e-05
1.5437e-05
1.53668e-05
1.52907e-05
1.52254e-05
1.51547e-05
1.50898e-05
1.50225e-05
1.4963e-05
1.4896e-05
1.48403e-05
1.47763e-05
1.47184e-05
1.46593e-05
1.46111e-05
1.99999e-05
1.98251e-05
1.94502e-05
1.92136e-05
1.9012e-05
1.88437e-05
1.86544e-05
1.85043e-05
1.8364e-05
1.82265e-05
1.80834e-05
1.79477e-05
1.78097e-05
1.76818e-05
1.75495e-05
1.74269e-05
1.73018e-05
1.7183e-05
1.70626e-05
1.69522e-05
1.68372e-05
1.6731e-05
1.66246e-05
1.6525e-05
1.64219e-05
1.63285e-05
1.62332e-05
1.61417e-05
1.60475e-05
1.59644e-05
1.58748e-05
1.57908e-05
1.57064e-05
1.56292e-05
1.55448e-05
1.54705e-05
1.53922e-05
1.53216e-05
1.52447e-05
1.51778e-05
1.51057e-05
1.50404e-05
1.4972e-05
1.49111e-05
1.48422e-05
1.4786e-05
1.47213e-05
1.46612e-05
1.46e-05
1.45514e-05
1.99999e-05
1.98247e-05
1.94475e-05
1.91979e-05
1.89962e-05
1.88349e-05
1.86444e-05
1.849e-05
1.83489e-05
1.82123e-05
1.8069e-05
1.7933e-05
1.77943e-05
1.76663e-05
1.75336e-05
1.74105e-05
1.72849e-05
1.71656e-05
1.70445e-05
1.69336e-05
1.68181e-05
1.67115e-05
1.66044e-05
1.65045e-05
1.64013e-05
1.63075e-05
1.62114e-05
1.612e-05
1.60255e-05
1.59415e-05
1.58516e-05
1.57676e-05
1.56821e-05
1.56042e-05
1.55197e-05
1.54446e-05
1.53653e-05
1.52943e-05
1.52172e-05
1.5149e-05
1.5076e-05
1.50106e-05
1.49411e-05
1.48794e-05
1.48094e-05
1.47524e-05
1.46873e-05
1.46261e-05
1.45629e-05
1.45139e-05
1.99999e-05
1.98249e-05
1.94474e-05
1.91847e-05
1.89824e-05
1.88279e-05
1.86385e-05
1.84803e-05
1.83383e-05
1.82032e-05
1.80603e-05
1.79248e-05
1.7786e-05
1.76583e-05
1.7526e-05
1.7403e-05
1.72773e-05
1.71583e-05
1.70372e-05
1.6926e-05
1.68108e-05
1.67043e-05
1.65971e-05
1.64974e-05
1.63947e-05
1.6301e-05
1.62047e-05
1.61137e-05
1.60196e-05
1.59351e-05
1.58453e-05
1.57618e-05
1.56756e-05
1.55974e-05
1.55131e-05
1.54377e-05
1.53577e-05
1.52865e-05
1.52092e-05
1.51404e-05
1.50669e-05
1.50015e-05
1.49309e-05
1.4869e-05
1.47985e-05
1.47403e-05
1.46748e-05
1.46136e-05
1.45488e-05
1.44987e-05
1.99999e-05
1.98255e-05
1.94495e-05
1.91742e-05
1.89706e-05
1.88222e-05
1.86365e-05
1.84753e-05
1.83323e-05
1.81992e-05
1.80576e-05
1.79232e-05
1.77852e-05
1.76583e-05
1.7527e-05
1.74047e-05
1.72794e-05
1.71612e-05
1.70405e-05
1.69295e-05
1.68149e-05
1.6709e-05
1.66021e-05
1.6503e-05
1.6401e-05
1.63078e-05
1.62117e-05
1.61215e-05
1.6028e-05
1.59436e-05
1.58541e-05
1.57713e-05
1.56851e-05
1.5607e-05
1.55231e-05
1.54478e-05
1.53678e-05
1.52966e-05
1.52195e-05
1.51507e-05
1.5077e-05
1.50117e-05
1.49406e-05
1.48787e-05
1.48083e-05
1.47491e-05
1.46833e-05
1.46227e-05
1.45569e-05
1.45054e-05
1.99999e-05
1.98266e-05
1.94541e-05
1.91674e-05
1.89612e-05
1.88183e-05
1.86382e-05
1.84751e-05
1.83311e-05
1.82004e-05
1.80606e-05
1.79277e-05
1.77908e-05
1.76649e-05
1.7535e-05
1.74141e-05
1.72897e-05
1.71729e-05
1.70533e-05
1.69431e-05
1.68298e-05
1.67253e-05
1.66193e-05
1.65215e-05
1.64211e-05
1.63291e-05
1.62338e-05
1.61451e-05
1.6053e-05
1.59691e-05
1.58806e-05
1.5799e-05
1.57134e-05
1.56356e-05
1.55526e-05
1.54778e-05
1.53982e-05
1.53273e-05
1.52505e-05
1.5182e-05
1.51084e-05
1.50434e-05
1.4972e-05
1.49103e-05
1.48402e-05
1.47802e-05
1.47138e-05
1.46541e-05
1.45879e-05
1.45346e-05
1.99999e-05
1.98281e-05
1.94609e-05
1.9164e-05
1.89547e-05
1.88154e-05
1.86434e-05
1.84793e-05
1.83342e-05
1.82058e-05
1.80685e-05
1.7938e-05
1.78031e-05
1.76792e-05
1.75515e-05
1.74328e-05
1.731e-05
1.71952e-05
1.70773e-05
1.69686e-05
1.68571e-05
1.67545e-05
1.66502e-05
1.65542e-05
1.64558e-05
1.63655e-05
1.62719e-05
1.61851e-05
1.60947e-05
1.60121e-05
1.5925e-05
1.5845e-05
1.57606e-05
1.56838e-05
1.5602e-05
1.55281e-05
1.54493e-05
1.53791e-05
1.53031e-05
1.52355e-05
1.51623e-05
1.50977e-05
1.50267e-05
1.49651e-05
1.48956e-05
1.48355e-05
1.47686e-05
1.47095e-05
1.46437e-05
1.45889e-05
1.99999e-05
1.98302e-05
1.94694e-05
1.91645e-05
1.89509e-05
1.88142e-05
1.86512e-05
1.84881e-05
1.83421e-05
1.82161e-05
1.80819e-05
1.79543e-05
1.78217e-05
1.77002e-05
1.75751e-05
1.74589e-05
1.73385e-05
1.72261e-05
1.71104e-05
1.70038e-05
1.68946e-05
1.67944e-05
1.66923e-05
1.65988e-05
1.65028e-05
1.64148e-05
1.63234e-05
1.6239e-05
1.6151e-05
1.60702e-05
1.59851e-05
1.59069e-05
1.58243e-05
1.5749e-05
1.56687e-05
1.55963e-05
1.55188e-05
1.54497e-05
1.53748e-05
1.53083e-05
1.52359e-05
1.51721e-05
1.5102e-05
1.50407e-05
1.49719e-05
1.49121e-05
1.4845e-05
1.47864e-05
1.47211e-05
1.46657e-05
1.99999e-05
1.98328e-05
1.94796e-05
1.91684e-05
1.895e-05
1.88144e-05
1.8661e-05
1.85005e-05
1.83539e-05
1.82302e-05
1.80994e-05
1.79752e-05
1.78454e-05
1.77268e-05
1.76046e-05
1.74916e-05
1.7374e-05
1.72645e-05
1.71515e-05
1.70476e-05
1.69411e-05
1.68438e-05
1.67445e-05
1.6654e-05
1.65609e-05
1.64757e-05
1.63872e-05
1.63057e-05
1.62203e-05
1.61419e-05
1.60592e-05
1.59834e-05
1.5903e-05
1.58297e-05
1.57515e-05
1.56807e-05
1.5605e-05
1.55374e-05
1.5464e-05
1.53989e-05
1.53277e-05
1.5265e-05
1.5196e-05
1.51354e-05
1.50674e-05
1.50084e-05
1.49415e-05
1.48834e-05
1.48184e-05
1.47632e-05
1.99999e-05
1.98358e-05
1.94907e-05
1.91762e-05
1.89523e-05
1.88163e-05
1.86724e-05
1.85163e-05
1.83693e-05
1.82477e-05
1.81204e-05
1.80001e-05
1.78735e-05
1.77581e-05
1.76392e-05
1.75297e-05
1.74153e-05
1.73092e-05
1.71994e-05
1.70986e-05
1.69952e-05
1.69013e-05
1.68053e-05
1.67182e-05
1.66284e-05
1.65466e-05
1.64614e-05
1.63831e-05
1.6301e-05
1.62255e-05
1.61457e-05
1.60726e-05
1.59949e-05
1.5924e-05
1.58481e-05
1.57796e-05
1.57059e-05
1.56402e-05
1.55687e-05
1.55052e-05
1.54357e-05
1.53744e-05
1.53066e-05
1.52472e-05
1.51802e-05
1.51219e-05
1.50557e-05
1.49985e-05
1.49337e-05
1.48786e-05
1.99999e-05
1.98391e-05
1.95026e-05
1.9187e-05
1.89576e-05
1.88203e-05
1.8685e-05
1.85349e-05
1.83881e-05
1.82683e-05
1.81445e-05
1.80283e-05
1.79051e-05
1.77933e-05
1.7678e-05
1.75723e-05
1.74615e-05
1.7359e-05
1.72526e-05
1.71553e-05
1.70555e-05
1.69652e-05
1.68729e-05
1.67896e-05
1.67036e-05
1.66255e-05
1.65441e-05
1.64696e-05
1.6391e-05
1.63189e-05
1.62424e-05
1.61724e-05
1.60978e-05
1.60296e-05
1.59565e-05
1.58904e-05
1.58193e-05
1.57556e-05
1.56864e-05
1.56248e-05
1.55572e-05
1.54977e-05
1.54314e-05
1.53733e-05
1.53075e-05
1.52501e-05
1.51852e-05
1.51288e-05
1.50644e-05
1.50094e-05
1.99999e-05
1.98428e-05
1.95149e-05
1.92003e-05
1.89657e-05
1.88265e-05
1.86983e-05
1.85555e-05
1.84096e-05
1.82915e-05
1.81709e-05
1.8059e-05
1.79395e-05
1.78315e-05
1.77198e-05
1.76181e-05
1.75112e-05
1.74127e-05
1.731e-05
1.72164e-05
1.71203e-05
1.7034e-05
1.69456e-05
1.68664e-05
1.67846e-05
1.67107e-05
1.66334e-05
1.65628e-05
1.64881e-05
1.64198e-05
1.63471e-05
1.62805e-05
1.62092e-05
1.61441e-05
1.60742e-05
1.60108e-05
1.59425e-05
1.58812e-05
1.58145e-05
1.57552e-05
1.56898e-05
1.56322e-05
1.55676e-05
1.5511e-05
1.54467e-05
1.53905e-05
1.53269e-05
1.52715e-05
1.52078e-05
1.51529e-05
1.99999e-05
1.98466e-05
1.95275e-05
1.92158e-05
1.89767e-05
1.88349e-05
1.87121e-05
1.85774e-05
1.84333e-05
1.83169e-05
1.81991e-05
1.80914e-05
1.79759e-05
1.78718e-05
1.77637e-05
1.76662e-05
1.75635e-05
1.74691e-05
1.73701e-05
1.72805e-05
1.71884e-05
1.71062e-05
1.70219e-05
1.69471e-05
1.68697e-05
1.68003e-05
1.67272e-05
1.66609e-05
1.65905e-05
1.65263e-05
1.64576e-05
1.63946e-05
1.63269e-05
1.62652e-05
1.61988e-05
1.61384e-05
1.6073e-05
1.60144e-05
1.59504e-05
1.58936e-05
1.58307e-05
1.5775e-05
1.57125e-05
1.56574e-05
1.5595e-05
1.55403e-05
1.54779e-05
1.54235e-05
1.53607e-05
1.53062e-05
1.99999e-05
1.98505e-05
1.95402e-05
1.92328e-05
1.89903e-05
1.88455e-05
1.87263e-05
1.86e-05
1.84587e-05
1.83439e-05
1.82285e-05
1.8125e-05
1.80136e-05
1.79134e-05
1.7809e-05
1.77157e-05
1.76172e-05
1.7527e-05
1.74318e-05
1.73464e-05
1.72584e-05
1.71804e-05
1.71003e-05
1.703e-05
1.69574e-05
1.68926e-05
1.68239e-05
1.6762e-05
1.66962e-05
1.66364e-05
1.65718e-05
1.65125e-05
1.64488e-05
1.63908e-05
1.6328e-05
1.62707e-05
1.62085e-05
1.61527e-05
1.60918e-05
1.60375e-05
1.59772e-05
1.59235e-05
1.58632e-05
1.581e-05
1.57496e-05
1.56966e-05
1.56354e-05
1.5582e-05
1.55205e-05
1.54667e-05
1.99999e-05
1.98545e-05
1.95528e-05
1.92511e-05
1.90063e-05
1.88583e-05
1.87408e-05
1.86227e-05
1.84852e-05
1.83721e-05
1.82588e-05
1.81593e-05
1.80518e-05
1.79555e-05
1.78548e-05
1.77659e-05
1.76716e-05
1.75854e-05
1.74942e-05
1.74129e-05
1.7329e-05
1.72551e-05
1.71794e-05
1.71139e-05
1.7046e-05
1.69858e-05
1.69217e-05
1.68646e-05
1.68035e-05
1.67481e-05
1.66877e-05
1.66325e-05
1.6573e-05
1.65188e-05
1.64596e-05
1.64055e-05
1.63467e-05
1.62939e-05
1.62362e-05
1.61845e-05
1.61269e-05
1.60754e-05
1.60176e-05
1.59663e-05
1.59081e-05
1.58565e-05
1.57968e-05
1.57444e-05
1.56844e-05
1.56317e-05
1.99999e-05
1.98585e-05
1.95651e-05
1.92701e-05
1.90244e-05
1.88729e-05
1.87556e-05
1.86453e-05
1.85123e-05
1.8401e-05
1.82897e-05
1.81939e-05
1.80901e-05
1.79976e-05
1.79007e-05
1.7816e-05
1.77256e-05
1.76436e-05
1.75564e-05
1.74792e-05
1.7399e-05
1.73293e-05
1.72582e-05
1.71974e-05
1.7134e-05
1.70786e-05
1.70194e-05
1.69672e-05
1.69108e-05
1.68598e-05
1.68038e-05
1.6753e-05
1.66976e-05
1.66472e-05
1.65916e-05
1.65409e-05
1.64857e-05
1.64362e-05
1.63816e-05
1.63325e-05
1.62776e-05
1.62286e-05
1.61734e-05
1.61242e-05
1.6068e-05
1.60178e-05
1.59598e-05
1.59088e-05
1.58503e-05
1.57988e-05
1.99999e-05
1.98625e-05
1.95772e-05
1.92895e-05
1.9044e-05
1.88891e-05
1.87708e-05
1.86673e-05
1.85393e-05
1.84303e-05
1.83207e-05
1.82283e-05
1.81278e-05
1.80391e-05
1.79461e-05
1.78654e-05
1.77787e-05
1.77009e-05
1.76177e-05
1.75442e-05
1.74677e-05
1.74022e-05
1.73355e-05
1.72793e-05
1.72204e-05
1.71698e-05
1.71157e-05
1.70684e-05
1.70165e-05
1.69699e-05
1.69186e-05
1.68723e-05
1.68211e-05
1.67743e-05
1.67225e-05
1.66755e-05
1.6624e-05
1.65775e-05
1.65259e-05
1.64795e-05
1.64276e-05
1.63813e-05
1.63287e-05
1.62815e-05
1.62272e-05
1.61784e-05
1.61226e-05
1.60732e-05
1.60162e-05
1.59656e-05
1.99999e-05
1.98664e-05
1.95891e-05
1.9309e-05
1.90645e-05
1.89066e-05
1.87865e-05
1.86886e-05
1.85658e-05
1.84596e-05
1.83517e-05
1.82621e-05
1.81646e-05
1.80798e-05
1.79903e-05
1.79134e-05
1.78304e-05
1.77567e-05
1.76772e-05
1.76073e-05
1.75342e-05
1.7473e-05
1.74106e-05
1.73587e-05
1.73043e-05
1.72587e-05
1.72095e-05
1.71669e-05
1.71195e-05
1.70776e-05
1.7031e-05
1.69892e-05
1.69421e-05
1.68989e-05
1.6851e-05
1.68078e-05
1.67599e-05
1.67163e-05
1.66678e-05
1.66242e-05
1.65755e-05
1.65318e-05
1.64817e-05
1.64364e-05
1.63841e-05
1.63372e-05
1.62836e-05
1.62357e-05
1.618e-05
1.61304e-05
1.99999e-05
1.98702e-05
1.96007e-05
1.93282e-05
1.90855e-05
1.89252e-05
1.88028e-05
1.87091e-05
1.85916e-05
1.84887e-05
1.83823e-05
1.8295e-05
1.82003e-05
1.81192e-05
1.8033e-05
1.79597e-05
1.78804e-05
1.78107e-05
1.77345e-05
1.76679e-05
1.75983e-05
1.7541e-05
1.74825e-05
1.74348e-05
1.7385e-05
1.73443e-05
1.72999e-05
1.72619e-05
1.7219e-05
1.7182e-05
1.71401e-05
1.71025e-05
1.70593e-05
1.70201e-05
1.69762e-05
1.69367e-05
1.68922e-05
1.68514e-05
1.68061e-05
1.67655e-05
1.672e-05
1.66786e-05
1.66311e-05
1.65877e-05
1.65378e-05
1.64929e-05
1.64414e-05
1.63947e-05
1.63404e-05
1.62918e-05
1.99999e-05
1.98739e-05
1.96119e-05
1.93468e-05
1.91067e-05
1.89447e-05
1.88195e-05
1.87289e-05
1.86164e-05
1.85173e-05
1.84123e-05
1.83269e-05
1.82346e-05
1.81569e-05
1.80739e-05
1.80041e-05
1.79284e-05
1.78623e-05
1.77892e-05
1.77257e-05
1.76594e-05
1.76057e-05
1.75508e-05
1.75073e-05
1.74619e-05
1.7426e-05
1.73861e-05
1.73527e-05
1.73146e-05
1.72823e-05
1.72448e-05
1.72114e-05
1.71723e-05
1.71371e-05
1.70972e-05
1.7061e-05
1.70197e-05
1.69821e-05
1.69401e-05
1.69025e-05
1.68598e-05
1.68208e-05
1.67759e-05
1.67347e-05
1.66873e-05
1.66445e-05
1.65947e-05
1.6549e-05
1.64963e-05
1.64492e-05
1.99999e-05
1.98775e-05
1.96226e-05
1.93649e-05
1.91279e-05
1.89648e-05
1.88366e-05
1.8748e-05
1.864e-05
1.8545e-05
1.84415e-05
1.83578e-05
1.82673e-05
1.81928e-05
1.81129e-05
1.80465e-05
1.7974e-05
1.79114e-05
1.78411e-05
1.77805e-05
1.77172e-05
1.76667e-05
1.76152e-05
1.75757e-05
1.75346e-05
1.75031e-05
1.74676e-05
1.7439e-05
1.74055e-05
1.73778e-05
1.73445e-05
1.73153e-05
1.72804e-05
1.72493e-05
1.72131e-05
1.71801e-05
1.71421e-05
1.71077e-05
1.70691e-05
1.70342e-05
1.69943e-05
1.69578e-05
1.69155e-05
1.68768e-05
1.6832e-05
1.67908e-05
1.67425e-05
1.66982e-05
1.66475e-05
1.66019e-05
1.99999e-05
1.98809e-05
1.96329e-05
1.93823e-05
1.91489e-05
1.8985e-05
1.8854e-05
1.87665e-05
1.86622e-05
1.85715e-05
1.84698e-05
1.83874e-05
1.82984e-05
1.82269e-05
1.81498e-05
1.80866e-05
1.80173e-05
1.79578e-05
1.78899e-05
1.7832e-05
1.77713e-05
1.77237e-05
1.76752e-05
1.76395e-05
1.76024e-05
1.75754e-05
1.75442e-05
1.75202e-05
1.74912e-05
1.7468e-05
1.7439e-05
1.74139e-05
1.73831e-05
1.73559e-05
1.73233e-05
1.72936e-05
1.72589e-05
1.72278e-05
1.71923e-05
1.71601e-05
1.7123e-05
1.70891e-05
1.70497e-05
1.70134e-05
1.69708e-05
1.69309e-05
1.68845e-05
1.68421e-05
1.67935e-05
1.67491e-05
1.99999e-05
1.98842e-05
1.96427e-05
1.93991e-05
1.91692e-05
1.90051e-05
1.88715e-05
1.87843e-05
1.8683e-05
1.8597e-05
1.84969e-05
1.84157e-05
1.8328e-05
1.8259e-05
1.81843e-05
1.81242e-05
1.80581e-05
1.80013e-05
1.79354e-05