/*--------------------------------*- C++ -*----------------------------------*\
  =========                 |
  \\      /  F ield         | OpenFOAM: The Open Source CFD Toolbox
   \\    /   O peration     | Website:  https://openfoam.org
    \\  /    A nd           | Version:  7
     \\/     M anipulation  |
\*---------------------------------------------------------------------------*/
FoamFile
{
    version     2.0;
    format      ascii;
    class       volScalarField;
    location    "0.08";
    object      nut;
}
// * * * * * * * * * * * * * * * * * * * * * * * * * * * * * * * * * * * * * //

dimensions      [0 2 -1 0 0 0 0];

internalField   nonuniform List<scalar> 
70000
(
0
0
0
0
0
0
0
0
0
0
0
0
0
0
0
0
0
0
0
0
0
0
0
0
0
0
0
0
0
0
0
0
0
0
0
0
0
0
0
0
0
0
0
1.75721e-14
0
2.00515e-13
0
1.10122e-12
0
0
0
0
0
0
0
0
0
0
0
0
0
0
0
0
0
0
0
0
0
0
0
0
0
0
0
0
0
0
0
0
0
0
0
0
0
0
0
0
0
0
0
0
0
9.28252e-14
0
4.61888e-13
0
2.33593e-12
0
0
0
0
0
0
0
0
0
0
0
0
0
0
0
0
0
0
0
0
0
0
0
0
0
0
0
0
0
0
0
0
0
0
0
0
0
0
0
0
0
0
0
1.80724e-14
0
1.92155e-13
0
7.36632e-13
0
3.41367e-12
2.40269e-13
0
0
0
0
0
0
0
0
0
0
0
0
0
0
0
0
0
0
0
0
0
0
0
0
0
0
0
0
0
0
0
0
0
0
0
0
0
0
0
0
0
0
0
0
1.85709e-13
0
8.84033e-13
0
3.89653e-12
2.91783e-12
0
0
0
0
0
0
0
0
0
0
0
0
0
0
0
0
0
0
0
0
0
0
0
0
0
0
0
0
0
0
0
0
0
0
0
0
0
0
0
0
0
0
0
0
8.96694e-14
0
9.18009e-13
0
3.8967e-12
3.85109e-12
0
9.45195e-10
0
0
0
0
0
0
0
0
0
0
0
0
0
0
0
0
0
0
0
0
0
0
0
0
0
0
0
0
0
0
0
0
0
0
0
0
0
0
0
0
0
0
0
0
8.95538e-13
0
3.64032e-12
3.86625e-12
0
1.31943e-08
0
0
0
0
0
0
0
0
0
0
0
0
0
0
0
0
0
0
0
0
0
0
0
0
0
0
0
0
0
0
0
0
0
0
0
0
0
0
0
0
0
0
0
0
7.93801e-13
0
3.07755e-12
3.90212e-12
0
1.20881e-08
0
0
0
0
0
0
0
0
0
0
0
0
0
0
0
0
0
0
0
0
0
0
0
0
0
0
0
0
0
0
0
0
0
0
0
0
0
0
0
0
0
0
0
0
5.892e-13
0
2.19906e-12
4.08119e-12
0
1.10687e-08
0
0
0
0
0
0
0
0
0
0
0
0
0
0
0
0
0
0
0
0
0
0
0
0
0
0
0
0
0
0
0
0
0
0
0
0
0
0
0
0
0
0
0
0
2.86626e-13
0
1.1164e-12
4.2198e-12
0
1.02207e-08
0
0
0
0
0
0
0
0
0
0
0
0
0
0
0
0
0
0
0
0
0
0
0
0
0
0
0
0
0
0
0
0
0
0
0
0
0
0
0
0
0
0
0
0
0
0
0
4.19965e-12
0
9.51068e-09
0
0
0
0
0
0
0
0
0
0
0
0
0
0
0
0
0
0
0
0
0
0
0
0
0
0
0
0
0
0
0
0
0
0
0
0
0
0
0
0
0
0
0
0
0
0
0
3.98675e-12
0
8.86811e-09
0
0
0
0
0
0
0
0
0
0
0
0
0
0
0
0
0
0
0
0
0
0
0
0
0
0
0
0
0
0
0
0
0
0
0
0
0
0
0
0
0
0
0
0
0
0
0
3.60137e-12
0
8.22713e-09
0
0
0
0
0
0
0
0
0
0
0
0
0
0
0
0
0
0
0
0
0
0
0
0
0
0
0
0
0
0
0
0
0
0
0
0
0
0
0
0
0
0
0
0
0
0
0
3.08644e-12
0
7.56787e-09
0
0
0
0
0
0
0
0
0
0
0
0
0
0
0
0
0
0
0
0
0
0
0
0
0
0
0
0
0
0
0
0
0
0
0
0
0
0
0
0
0
0
0
0
0
0
0
2.47336e-12
0
6.8965e-09
0
0
0
0
0
0
0
0
0
0
0
0
0
0
0
1.7306e-11
2.13479e-11
5.52688e-12
0
0
0
0
0
0
0
0
0
0
0
0
0
0
0
0
0
0
0
0
0
0
0
0
0
0
0
0
0
1.77712e-12
0
6.22412e-09
0
0
0
0
0
0
0
0
0
0
0
0
0
0
0
0
0
0
3.45216e-12
2.09678e-11
2.5791e-11
1.50945e-11
2.57549e-12
0
0
0
0
0
0
0
0
0
0
0
0
0
0
0
0
0
0
0
0
0
0
0
0
9.86837e-13
0
5.55925e-09
0
0
0
6.34884e-11
0
0
0
0
0
0
0
0
0
0
0
0
0
0
0
0
0
0
0
0
2.03801e-12
1.94774e-12
0
0
0
0
0
0
0
0
0
0
0
0
0
0
0
0
0
0
0
0
0
2.72976e-14
0
4.9082e-09
0
0
0
1.44604e-10
0
0
0
0
0
0
0
0
0
0
0
0
0
0
0
0
0
0
0
0
0
0
0
0
0
0
0
0
0
0
0
0
0
0
0
0
0
0
0
0
0
0
0
0
0
4.27647e-09
0
0
0
1.97049e-10
0
0
0
0
0
0
0
0
0
0
0
0
0
0
0
0
0
0
0
0
0
0
0
0
0
0
0
0
0
0
0
0
0
0
0
0
0
0
0
0
0
0
0
0
0
3.66919e-09
0
0
0
2.05649e-10
0
0
0
0
0
0
0
0
0
0
0
0
0
0
0
0
0
0
0
0
0
0
0
0
0
0
0
0
0
0
0
0
0
0
0
0
0
0
0
0
0
0
0
0
0
3.09065e-09
0
0
0
1.52931e-10
0
0
0
0
0
0
0
0
0
0
0
0
0
0
0
0
0
0
0
0
0
0
0
0
0
0
0
0
0
0
0
0
0
0
0
0
0
0
0
0
0
0
0
0
0
2.5438e-09
0
0
0
1.96826e-11
0
0
0
0
0
0
0
0
0
0
0
0
0
0
0
0
0
0
0
0
0
0
0
0
0
0
0
0
0
0
0
0
0
0
0
0
0
0
0
0
0
0
0
0
0
2.02995e-09
0
0
0
0
0
0
0
0
0
0
0
0
0
0
0
0
0
0
0
0
0
0
0
0
0
0
0
0
0
0
0
0
0
0
0
0
0
0
0
0
0
0
0
0
0
0
0
0
0
1.54868e-09
0
0
0
0
0
0
0
0
0
0
0
0
0
0
0
0
0
0
0
0
0
0
0
0
0
0
0
0
0
0
0
0
0
0
0
0
0
0
0
0
0
0
0
0
0
0
0
0
0
1.098e-09
0
0
0
0
0
0
0
0
0
0
0
0
0
0
0
0
0
0
0
0
0
0
0
0
0
0
0
0
0
0
0
0
0
0
0
0
0
0
0
0
0
0
0
0
0
0
0
0
0
6.74701e-10
0
0
0
0
0
0
0
0
0
0
0
0
0
0
0
0
0
0
0
0
0
0
0
0
0
0
0
0
0
0
0
0
0
0
0
0
0
0
0
0
0
0
0
0
0
0
0
0
0
2.7499e-10
0
0
0
0
0
0
0
0
0
0
0
0
0
0
0
0
0
0
0
0
0
0
0
0
0
0
0
0
0
0
0
0
0
0
0
0
0
0
0
0
0
0
0
0
0
0
0
0
0
0
0
0
0
0
0
0
0
0
0
0
0
0
0
0
0
0
0
0
0
0
0
0
0
0
0
0
0
0
0
0
0
0
0
0
0
0
0
0
0
0
0
0
0
0
0
0
0
0
0
0
0
0
0
0
0
0
0
0
0
0
0
0
0
0
0
0
0
0
0
0
0
0
0
0
0
0
0
0
0
0
0
0
0
0
0
0
0
0
0
0
0
0
0
0
0
0
0
0
0
0
0
0
0
0
0
0
0
0
0
0
0
0
0
0
0
0
0
0
0
0
0
0
0
0
0
0
0
0
0
0
0
0
0
0
0
0
0
0
0
0
0
0
0
0
0
0
0
0
0
0
0
0
0
0
0
0
0
0
0
0
0
0
0
0
0
0
0
0
0
0
0
0
0
0
0
0
0
0
0
0
0
0
0
0
0
0
0
0
0
0
0
0
0
0
0
0
0
0
0
0
0
0
0
0
0
0
0
0
0
0
0
0
0
0
0
0
0
0
0
0
0
0
0
0
0
0
0
0
0
0
0
0
0
0
0
0
0
0
0
0
0
0
0
0
0
0
0
0
0
0
9.16663e-10
0
0
0
0
0
0
0
0
0
0
0
0
0
0
0
0
0
0
0
0
0
0
0
0
0
0
0
0
0
0
0
0
0
0
0
0
0
0
0
0
0
0
0
0
0
0
0
0
0
1.85002e-09
0
0
0
0
0
0
0
0
0
0
0
0
0
0
0
0
0
0
0
0
0
0
0
0
0
0
0
0
0
0
0
0
0
0
0
0
0
0
0
0
0
0
0
0
0
0
0
0
0
2.65807e-09
0
0
0
0
0
0
0
0
0
0
0
0
0
0
0
0
0
0
0
0
0
0
0
0
0
0
0
0
0
0
0
0
0
0
0
0
0
0
0
0
0
0
0
0
0
0
0
0
0
3.34287e-09
0
0
0
0
0
0
0
0
0
0
0
0
0
0
0
0
0
0
0
0
0
0
0
0
0
0
0
0
0
0
0
0
0
0
0
0
0
0
0
0
0
0
0
0
0
0
0
0
0
3.90962e-09
0
0
0
0
0
0
0
0
0
0
0
0
0
0
0
0
0
0
0
0
0
0
0
0
0
0
0
0
0
0
0
0
0
0
0
0
0
0
0
0
0
0
0
0
0
0
0
0
0
4.36587e-09
0
0
0
0
0
0
0
0
0
0
0
0
0
0
0
0
0
0
0
0
0
0
0
0
0
0
0
0
0
0
0
0
0
0
0
0
0
0
0
0
0
0
0
0
0
0
0
0
0
4.71989e-09
0
0
0
0
0
0
0
0
0
0
0
0
0
0
0
0
0
0
0
0
0
0
0
0
0
0
0
0
0
0
0
0
0
0
0
0
0
0
0
0
0
0
0
0
0
0
0
0
0
4.98055e-09
0
0
0
0
0
0
0
0
0
0
0
0
0
0
0
0
0
0
0
0
0
0
0
0
0
0
0
0
0
0
0
0
0
0
0
0
0
0
0
0
0
0
0
0
0
0
0
0
0
5.15792e-09
0
0
0
0
0
0
0
0
0
0
0
0
0
0
0
0
0
0
0
0
0
0
0
0
0
0
0
0
0
0
0
0
0
0
0
0
0
0
0
0
0
0
0
0
0
0
0
0
0
5.26313e-09
0
0
0
0
0
0
0
0
0
0
0
0
0
0
0
0
0
0
0
0
0
0
0
0
0
0
0
0
0
0
0
0
0
0
0
0
0
0
0
0
0
0
0
0
0
0
0
0
0
5.30733e-09
0
0
0
0
0
0
0
0
0
0
0
0
0
0
0
0
0
0
0
0
0
0
0
0
0
0
0
0
0
0
0
0
0
0
0
0
0
0
0
0
0
0
0
0
0
0
0
0
0
5.30078e-09
0
0
0
0
0
0
0
0
0
0
0
0
0
0
0
0
0
0
0
0
0
0
0
0
0
0
0
0
0
0
0
0
0
0
0
0
0
0
0
0
0
0
0
0
0
0
0
0
0
5.25247e-09
0
0
0
0
0
0
0
0
0
0
0
0
0
0
0
0
0
0
0
0
0
0
0
0
0
0
0
0
0
0
0
0
0
0
0
0
0
0
0
0
0
0
0
0
0
0
0
0
0
5.17008e-09
0
0
0
0
0
0
0
0
0
0
0
0
0
0
0
0
0
0
0
0
0
0
0
0
0
0
0
0
0
0
0
0
0
0
0
0
0
0
0
0
0
0
0
0
0
0
0
0
0
5.06002e-09
0
0
0
0
0
0
0
0
0
0
0
0
0
0
0
0
0
0
0
0
0
0
0
0
0
0
0
0
0
0
0
0
0
0
0
0
0
0
0
0
0
0
0
0
0
0
0
0
0
4.9276e-09
0
0
0
0
0
0
0
0
0
0
0
0
0
0
0
0
0
0
0
0
0
0
0
0
0
0
0
0
0
0
0
0
0
0
0
0
0
0
0
0
0
0
0
0
0
0
0
0
0
4.77728e-09
0
0
0
0
0
0
0
0
0
0
0
0
0
0
0
0
0
0
0
0
0
0
0
0
0
0
0
0
0
0
0
0
0
0
0
0
0
0
0
0
0
0
0
0
0
0
0
0
0
4.61285e-09
0
0
0
0
0
0
0
0
0
0
0
0
0
0
0
0
0
0
0
0
0
0
0
0
0
0
0
0
0
0
0
0
0
0
0
0
0
0
0
0
0
0
0
0
0
0
0
0
0
4.43764e-09
0
0
0
0
0
0
0
0
0
0
0
0
0
0
0
0
0
0
0
0
0
0
0
0
0
0
0
0
0
0
0
0
0
0
0
0
0
0
0
0
0
0
0
0
0
0
0
0
0
4.25456e-09
0
0
0
0
0
0
0
0
0
0
0
0
0
0
0
0
0
0
0
0
0
0
0
0
0
0
0
0
0
0
0
0
0
0
0
0
0
0
0
0
0
0
0
0
0
0
0
0
0
4.06616e-09
0
0
0
0
0
0
0
0
0
0
0
0
0
0
0
0
0
0
0
0
0
0
0
0
0
0
0
0
0
0
0
0
0
0
0
0
0
0
0
0
0
0
0
0
0
0
0
0
0
3.87469e-09
0
0
0
0
0
0
0
0
0
0
0
0
0
0
0
0
0
0
0
0
0
0
0
0
0
0
0
0
0
0
0
0
0
0
0
0
0
0
0
0
0
0
0
0
0
0
0
0
0
3.68228e-09
1.3453e-10
0
0
0
0
0
0
0
0
0
0
0
0
0
0
0
0
0
0
0
0
0
0
0
0
0
0
0
0
0
0
0
0
0
0
0
0
0
0
0
0
0
0
0
0
0
0
0
0
3.4909e-09
3.89177e-10
0
0
0
0
0
0
0
0
0
0
0
0
0
0
0
0
0
0
0
0
0
0
0
0
0
0
0
0
0
0
0
0
0
0
0
0
0
0
0
0
0
0
0
0
0
0
0
0
3.30237e-09
6.04178e-10
0
0
0
0
0
0
0
0
0
0
0
0
0
0
0
0
0
0
0
0
0
0
0
0
0
0
0
0
0
0
0
0
0
0
0
0
0
0
0
0
0
0
0
0
0
0
0
0
3.11819e-09
7.83962e-10
0
0
0
0
0
0
0
0
0
0
0
0
0
0
0
0
0
0
0
0
0
0
0
0
0
0
0
0
0
0
0
0
0
0
0
0
0
0
0
0
0
0
0
0
0
0
0
0
2.93958e-09
9.32661e-10
0
0
0
0
0
0
0
0
0
0
0
0
0
0
0
0
0
0
0
0
0
0
0
0
0
0
0
0
0
0
0
0
0
0
0
0
0
0
0
0
0
0
0
0
0
0
0
0
2.76749e-09
1.05409e-09
0
0
0
0
0
0
0
0
0
0
0
0
0
0
0
0
0
0
0
0
0
0
0
0
0
0
0
0
0
0
0
0
0
0
0
0
0
0
0
0
0
0
0
0
0
0
0
0
2.60262e-09
1.1518e-09
0
0
0
0
0
0
0
0
0
0
0
0
0
0
0
0
0
0
0
0
0
0
0
0
0
0
0
0
0
0
0
0
0
0
0
0
0
0
0
0
0
0
0
0
0
0
0
0
2.44548e-09
1.22898e-09
0
0
0
0
0
0
0
0
0
0
0
0
0
0
0
0
0
0
0
0
0
0
0
0
0
0
0
0
0
0
0
0
0
0
0
0
0
0
0
0
0
0
0
0
0
0
0
0
2.29641e-09
1.28858e-09
0
0
0
0
0
0
0
0
0
0
0
0
0
0
0
0
0
0
0
0
0
0
0
0
0
0
0
0
0
0
0
0
0
0
0
0
0
0
0
0
0
0
0
0
0
0
0
0
2.15561e-09
1.33334e-09
0
0
0
0
0
0
0
0
0
0
0
0
0
0
0
0
0
0
0
0
0
0
0
0
0
0
0
0
0
0
0
0
0
0
0
0
0
0
0
0
0
0
0
0
0
0
0
0
2.02317e-09
1.36574e-09
0
0
0
0
0
0
0
0
0
0
0
0
0
0
0
0
0
0
0
0
0
0
0
0
0
0
0
0
0
0
0
0
0
0
0
0
0
0
0
0
0
0
0
0
0
0
0
0
1.8991e-09
1.38801e-09
0
0
0
0
0
0
0
0
0
0
0
0
0
0
0
0
0
0
0
0
0
0
0
0
0
0
0
0
0
0
0
0
0
0
0
0
0
0
0
0
0
0
0
0
0
0
0
0
1.78333e-09
1.4021e-09
0
0
0
0
0
0
0
0
0
0
0
0
0
0
0
0
0
0
0
0
0
0
0
0
0
0
0
0
0
0
0
0
0
0
0
0
0
0
0
0
0
0
0
0
0
0
0
0
1.67572e-09
1.40975e-09
0
0
0
0
0
0
0
0
0
0
0
0
0
0
0
0
0
0
0
0
0
0
0
0
0
0
0
0
0
0
0
0
0
0
0
0
0
0
0
0
0
0
0
0
0
0
0
0
1.57607e-09
1.41248e-09
0
0
0
0
0
0
0
0
0
0
0
0
0
0
0
0
0
0
0
0
0
0
0
0
0
0
0
0
0
0
0
0
0
0
0
0
0
0
0
0
0
0
0
0
0
0
0
0
1.48414e-09
1.41165e-09
0
0
0
0
0
0
0
0
0
0
0
0
0
0
0
0
0
0
0
0
0
0
0
0
0
0
0
0
0
0
0
0
0
0
0
0
0
0
0
0
0
0
0
0
0
0
0
0
1.39969e-09
1.40847e-09
0
0
0
0
0
0
0
0
0
0
0
0
0
0
0
0
0
0
0
0
0
0
0
0
0
0
0
0
0
0
0
0
0
0
0
0
0
0
0
0
0
0
0
0
0
0
7.87392e-11
0
1.32246e-09
1.40407e-09
0
0
0
0
0
0
0
0
0
0
0
0
0
0
0
0
0
0
0
0
0
0
0
0
0
0
0
0
0
0
0
0
0
0
0
0
0
0
0
0
0
0
0
0
0
0
3.082e-10
0
1.25218e-09
1.39934e-09
0
0
0
0
0
0
0
0
0
0
0
0
0
0
0
0
0
0
0
0
0
0
0
0
0
0
0
0
0
0
0
0
0
0
0
0
0
0
0
0
0
0
0
0
0
0
5.26761e-10
0
1.1886e-09
1.39519e-09
0
0
0
0
0
0
0
0
0
0
0
0
0
0
0
0
0
0
0
0
0
0
0
0
0
0
0
0
0
0
0
0
0
0
0
0
0
0
0
0
0
0
0
0
0
2.16032e-10
7.31843e-10
0
1.13146e-09
1.39242e-09
0
0
0
0
0
0
0
0
0
0
0
0
0
0
0
0
0
0
0
0
0
0
0
0
0
0
0
0
0
0
0
0
0
0
0
0
0
0
0
0
0
0
0
1.4984e-10
2.76006e-10
4.64618e-10
9.20431e-10
0
1.08055e-09
1.39188e-09
0
0
0
0
0
0
0
0
0
0
0
0
0
0
0
0
0
0
0
0
0
0
0
0
0
0
0
0
0
0
0
0
0
0
0
0
0
0
0
0
2.51549e-11
2.04199e-10
3.49876e-10
4.67388e-10
5.55616e-10
6.99792e-10
1.08853e-09
0
1.03565e-09
1.39435e-09
0
0
0
0
0
0
0
0
0
0
0
0
0
0
0
0
0
0
0
0
0
0
0
0
0
0
0
0
0
0
0
0
0
0
0
0
0
0
6.43316e-11
2.73752e-10
4.50771e-10
5.96422e-10
7.04793e-10
7.81584e-10
8.25598e-10
9.18395e-10
1.23233e-09
0
9.96596e-10
1.40058e-09
0
0
0
0
0
0
0
0
0
0
0
0
0
0
0
0
0
0
0
0
0
0
0
0
0
0
0
0
0
0
0
0
0
0
0
0
1.14445e-10
3.55981e-10
5.66773e-10
7.45933e-10
8.8853e-10
9.95341e-10
1.06045e-09
1.09011e-09
1.08317e-09
1.1172e-09
1.34807e-09
0
9.63262e-10
1.41139e-09
0
0
0
0
0
0
0
0
0
0
0
0
0
0
0
0
0
0
0
0
0
0
0
0
0
0
0
0
0
0
0
0
0
0
1.72484e-10
4.4732e-10
6.94084e-10
9.10114e-10
1.09131e-09
1.23614e-09
1.33906e-09
1.40055e-09
1.41499e-09
1.38963e-09
1.32396e-09
1.29125e-09
1.43021e-09
0
9.35577e-10
1.42769e-09
0
0
0
0
0
0
0
0
0
0
0
0
0
0
0
0
0
0
0
0
0
0
0
0
0
0
0
0
0
0
0
0
2.34332e-10
5.39944e-10
8.22747e-10
1.07814e-09
1.30126e-09
1.48902e-09
1.63678e-09
1.74265e-09
1.80078e-09
1.81112e-09
1.76787e-09
1.67889e-09
1.54471e-09
1.43486e-09
1.47091e-09
0
9.13545e-10
1.45052e-09
0
0
0
0
0
0
0
0
0
0
0
0
0
0
0
0
0
0
0
0
0
0
0
0
0
0
0
0
0
0
2.9362e-10
6.22838e-10
9.3841e-10
1.2334e-09
1.50149e-09
1.73793e-09
1.93717e-09
2.09493e-09
2.20583e-09
2.26775e-09
2.27475e-09
2.22656e-09
2.11739e-09
1.95559e-09
1.74241e-09
1.54312e-09
1.4617e-09
0
8.97256e-10
1.48115e-09
0
0
0
0
0
0
0
0
0
0
0
0
0
0
0
0
0
0
0
0
0
0
0
0
0
0
0
6.06834e-12
3.41225e-10
6.80779e-10
1.01971e-09
1.35033e-09
1.66281e-09
1.94985e-09
2.20567e-09
2.42497e-09
2.60079e-09
2.72749e-09
2.79893e-09
2.81259e-09
2.76239e-09
2.64751e-09
2.462e-09
2.21494e-09
1.90905e-09
1.605e-09
1.38749e-09
0
8.8692e-10
1.52111e-09
0
0
0
0
0
0
0
0
0
0
0
0
0
0
0
0
0
0
0
0
0
0
0
0
0
6.08529e-11
3.69104e-10
6.87517e-10
1.03145e-09
1.38336e-09
1.73643e-09
2.07786e-09
2.39536e-09
2.68197e-09
2.93137e-09
3.13717e-09
3.29164e-09
3.38793e-09
3.4185e-09
3.37995e-09
3.26599e-09
3.07532e-09
2.80148e-09
2.45373e-09
2.03613e-09
1.60449e-09
1.22192e-09
0
8.82917e-10
1.57236e-09
6.16183e-11
0
0
0
0
0
0
0
0
0
0
0
0
0
0
0
0
0
0
0
0
0
0
1.35651e-10
4.33191e-10
7.21166e-10
1.00823e-09
1.31715e-09
1.68042e-09
2.05684e-09
2.43253e-09
2.79231e-09
3.12506e-09
3.42233e-09
3.67427e-09
3.87253e-09
4.00936e-09
4.07736e-09
4.067e-09
3.97288e-09
3.78827e-09
3.51166e-09
3.13545e-09
2.66785e-09
2.11381e-09
1.52359e-09
9.34165e-10
0
8.85825e-10
1.63747e-09
1.79378e-10
0
0
0
0
0
0
0
0
0
0
0
0
0
0
0
0
0
0
0
0
2.36649e-10
5.33876e-10
8.15585e-10
1.0843e-09
1.34699e-09
1.61555e-09
1.9142e-09
2.29141e-09
2.69426e-09
3.09354e-09
3.47808e-09
3.83736e-09
4.15776e-09
4.42482e-09
4.62651e-09
4.75303e-09
4.79704e-09
4.74817e-09
4.59731e-09
4.33468e-09
3.95842e-09
3.46086e-09
2.8479e-09
2.12255e-09
1.32626e-09
4.62759e-10
0
8.96464e-10
1.71983e-09
3.18177e-10
0
0
0
0
0
0
0
0
0
0
0
0
0
0
0
0
0
7.28521e-12
3.81852e-10
7.04946e-10
9.94394e-10
1.26334e-09
1.52923e-09
1.80382e-09
2.07141e-09
2.3344e-09
2.6053e-09
2.89822e-09
3.25532e-09
3.67094e-09
4.09292e-09
4.49799e-09
4.8609e-09
5.1615e-09
5.38509e-09
5.51747e-09
5.54686e-09
5.46235e-09
5.25457e-09
4.90896e-09
4.41805e-09
3.77305e-09
2.97862e-09
2.03203e-09
9.5698e-10
0
0
9.16055e-10
1.82392e-09
4.85907e-10
0
0
0
0
0
0
0
0
0
0
0
0
0
0
0
5.11841e-11
5.05139e-10
8.92859e-10
1.2292e-09
1.52361e-09
1.79038e-09
2.07308e-09
2.3735e-09
2.66181e-09
2.93992e-09
3.21014e-09
3.47643e-09
3.74038e-09
4.00345e-09
4.27342e-09
4.5857e-09
5.02634e-09
5.46997e-09
5.84315e-09
6.12064e-09
6.28458e-09
6.3207e-09
6.21406e-09
5.95111e-09
5.51558e-09
4.89539e-09
4.07233e-09
3.04384e-09
1.79887e-09
3.30456e-10
0
0
9.4641e-10
1.95573e-09
6.93196e-10
0
0
0
0
0
0
0
0
0
0
0
0
0
7.31629e-11
5.86918e-10
1.03276e-09
1.42963e-09
1.78464e-09
2.09225e-09
2.36962e-09
2.7021e-09
3.06661e-09
3.38006e-09
3.65957e-09
3.92408e-09
4.18807e-09
4.44282e-09
4.67587e-09
4.92111e-09
5.1684e-09
5.40338e-09
5.64161e-09
5.95895e-09
6.43634e-09
6.81358e-09
7.04629e-09
7.11485e-09
7.00371e-09
6.694e-09
6.16577e-09
5.39233e-09
4.35132e-09
3.01862e-09
1.36474e-09
0
0
0
9.90132e-10
2.12325e-09
9.54691e-10
0
0
0
0
0
0
0
0
0
0
0
1.66837e-10
7.12774e-10
1.1837e-09
1.59947e-09
1.98693e-09
2.3549e-09
2.68265e-09
2.96239e-09
3.29026e-09
3.79127e-09
4.21753e-09
4.55325e-09
4.83408e-09
5.09583e-09
5.361e-09
5.5778e-09
5.69906e-09
5.86252e-09
6.07082e-09
6.30038e-09
6.51878e-09
6.72564e-09
6.99587e-09
7.44786e-09
7.79151e-09
7.92437e-09
7.83534e-09
7.49013e-09
6.86513e-09
5.91506e-09
4.60047e-09
2.86705e-09
6.38816e-10
0
0
0
1.05095e-09
2.33784e-09
1.29165e-09
0
0
0
0
0
0
0
0
0
3.36486e-10
9.43226e-10
1.44187e-09
1.85494e-09
2.21859e-09
2.57254e-09
2.93444e-09
3.28328e-09
3.57943e-09
3.87404e-09
4.39282e-09
5.02409e-09
5.48646e-09
5.83087e-09
6.11327e-09
6.37581e-09
6.6424e-09
6.84785e-09
6.85997e-09
6.90153e-09
7.02453e-09
7.2119e-09
7.4293e-09
7.63212e-09
7.81373e-09
8.06186e-09
8.49683e-09
8.73856e-09
8.70572e-09
8.34675e-09
7.62813e-09
6.47475e-09
4.81869e-09
2.55043e-09
0
0
0
0
1.13433e-09
2.61747e-09
1.73355e-09
0
0
0
0
0
0
0
4.2549e-10
1.14708e-09
1.78206e-09
2.24682e-09
2.60363e-09
2.90616e-09
3.20958e-09
3.5457e-09
3.90289e-09
4.22848e-09
4.5219e-09
4.94597e-09
5.73718e-09
6.37747e-09
6.82647e-09
7.15511e-09
7.42397e-09
7.68081e-09
7.95743e-09
8.18948e-09
8.15835e-09
8.06142e-09
8.07207e-09
8.18417e-09
8.37018e-09
8.58436e-09
8.77111e-09
8.92808e-09
9.17453e-09
9.54665e-09
9.61565e-09
9.27566e-09
8.47108e-09
7.08637e-09
5.0046e-09
2.03517e-09
0
0
0
0
1.24826e-09
2.98684e-09
2.3178e-09
4.9121e-10
0
0
0
0
5.10531e-10
1.21523e-09
1.94164e-09
2.62071e-09
3.09262e-09
3.39877e-09
3.6461e-09
3.89969e-09
4.20287e-09
4.55393e-09
4.90345e-09
5.21942e-09
5.61292e-09
6.41326e-09
7.25455e-09
7.81476e-09
8.1947e-09
8.4726e-09
8.70718e-09
8.95232e-09
9.24636e-09
9.53014e-09
9.5551e-09
9.34034e-09
9.22981e-09
9.24533e-09
9.37419e-09
9.57728e-09
9.79641e-09
9.96569e-09
1.00937e-08
1.03298e-08
1.05519e-08
1.02774e-08
9.40805e-09
7.77345e-09
5.18386e-09
1.33543e-09
0
0
0
0
1.40522e-09
3.4821e-09
3.09141e-09
1.45685e-09
4.59343e-10
3.97195e-10
7.93492e-10
1.36662e-09
2.01792e-09
2.70648e-09
3.38517e-09
3.91561e-09
4.18878e-09
4.40173e-09
4.62795e-09
4.9135e-09
5.25997e-09
5.6244e-09
5.97276e-09
6.3927e-09
7.19875e-09
8.17967e-09
8.83791e-09
9.25128e-09
9.51999e-09
9.72525e-09
9.92387e-09
1.01631e-08
1.04771e-08
1.08205e-08
1.09867e-08
1.07225e-08
1.05047e-08
1.04166e-08
1.04695e-08
1.06396e-08
1.08748e-08
1.1102e-08
1.1244e-08
1.13198e-08
1.14892e-08
1.1353e-08
1.04638e-08
8.58042e-09
5.42443e-09
5.71733e-10
0
0
0
0
1.6252e-09
4.15789e-09
4.10371e-09
2.62263e-09
1.75422e-09
1.7804e-09
2.21458e-09
2.78644e-09
3.40418e-09
4.03087e-09
4.58929e-09
4.89287e-09
5.10852e-09
5.35333e-09
5.65777e-09
6.01658e-09
6.38975e-09
6.77612e-09
7.29154e-09
8.23604e-09
9.24135e-09
9.93768e-09
1.03699e-08
1.06137e-08
1.07601e-08
1.08869e-08
1.10481e-08
1.12812e-08
1.16143e-08
1.20189e-08
1.23431e-08
1.2191e-08
1.18829e-08
1.17013e-08
1.16729e-08
1.17955e-08
1.20305e-08
1.231e-08
1.25399e-08
1.26236e-08
1.25806e-08
1.24835e-08
1.16545e-08
9.57203e-09
5.87482e-09
7.51657e-11
0
0
0
0
1.94073e-09
5.09516e-09
5.39027e-09
3.93112e-09
3.06015e-09
3.07971e-09
3.48903e-09
4.01564e-09
4.55916e-09
5.06274e-09
5.39734e-09
5.67764e-09
6.01e-09
6.39248e-09
6.79093e-09
7.18337e-09
7.64873e-09
8.41578e-09
9.53128e-09
1.04783e-08
1.11814e-08
1.16164e-08
1.18236e-08
1.18872e-08
1.19007e-08
1.194e-08
1.20546e-08
1.22755e-08
1.26261e-08
1.30899e-08
1.35549e-08
1.3654e-08
1.33254e-08
1.30797e-08
1.29812e-08
1.30528e-08
1.32772e-08
1.35978e-08
1.39236e-08
1.41255e-08
1.40642e-08
1.3719e-08
1.29731e-08
1.0823e-08
6.76207e-09
3.90599e-10
0
0
0
0
2.40274e-09
6.39415e-09
6.93851e-09
5.26301e-09
4.27265e-09
4.23931e-09
4.58478e-09
5.00264e-09
5.39878e-09
5.7815e-09
6.18849e-09
6.63479e-09
7.09349e-09
7.53381e-09
8.00967e-09
8.72151e-09
9.88732e-09
1.09639e-08
1.18747e-08
1.25858e-08
1.30377e-08
1.32155e-08
1.31843e-08
1.30514e-08
1.29183e-08
1.28578e-08
1.29146e-08
1.31153e-08
1.34785e-08
1.39952e-08
1.45824e-08
1.49832e-08
1.47625e-08
1.45059e-08
1.43686e-08
1.44019e-08
1.46153e-08
1.49711e-08
1.53857e-08
1.57301e-08
1.5809e-08
1.53979e-08
1.43938e-08
1.2378e-08
8.3252e-09
2.06463e-09
0
0
0
0
3.10464e-09
8.15557e-09
8.63748e-09
6.47852e-09
5.40137e-09
5.33516e-09
5.61627e-09
6.01242e-09
6.45863e-09
6.92194e-09
7.39948e-09
7.89681e-09
8.42336e-09
9.05408e-09
1.01113e-08
1.14568e-08
1.25959e-08
1.35126e-08
1.42031e-08
1.46457e-08
1.48069e-08
1.47018e-08
1.4418e-08
1.40759e-08
1.37813e-08
1.36061e-08
1.35919e-08
1.37614e-08
1.41285e-08
1.46873e-08
1.53767e-08
1.60259e-08
1.61156e-08
1.58957e-08
1.57675e-08
1.5793e-08
1.60089e-08
1.64024e-08
1.69041e-08
1.7386e-08
1.76498e-08
1.73873e-08
1.62681e-08
1.41539e-08
1.06229e-08
5.20647e-09
0
0
0
0
4.21623e-09
1.05011e-08
1.03008e-08
7.62026e-09
6.65689e-09
6.7294e-09
7.19803e-09
7.73744e-09
8.28675e-09
8.83541e-09
9.39087e-09
9.97921e-09
1.06523e-08
1.16608e-08
1.30893e-08
1.43268e-08
1.53001e-08
1.60099e-08
1.64456e-08
1.65854e-08
1.64318e-08
1.60324e-08
1.54869e-08
1.49229e-08
1.4452e-08
1.41468e-08
1.40458e-08
1.41674e-08
1.45221e-08
1.51046e-08
1.587e-08
1.67038e-08
1.71922e-08
1.71163e-08
1.70617e-08
1.7127e-08
1.73725e-08
1.78138e-08
1.84021e-08
1.9018e-08
1.94614e-08
1.94217e-08
1.84669e-08
1.63549e-08
1.33044e-08
9.2381e-09
4.54245e-09
2.70668e-10
0
0
6.03527e-09
1.33775e-08
1.19482e-08
9.01196e-09
8.17265e-09
8.72561e-09
9.46053e-09
1.01617e-08
1.08368e-08
1.14876e-08
1.21243e-08
1.27846e-08
1.35496e-08
1.47142e-08
1.59989e-08
1.70341e-08
1.77802e-08
1.82396e-08
1.84056e-08
1.82586e-08
1.78089e-08
1.71184e-08
1.63048e-08
1.55099e-08
1.48509e-08
1.44005e-08
1.41943e-08
1.4247e-08
1.45659e-08
1.5145e-08
1.59514e-08
1.69093e-08
1.77601e-08
1.79602e-08
1.8052e-08
1.82195e-08
1.85375e-08
1.9045e-08
1.97183e-08
2.04552e-08
2.10634e-08
2.1241e-08
2.05693e-08
1.87312e-08
1.60272e-08
1.31663e-08
9.9867e-09
7.05254e-09
4.93323e-09
0
9.00142e-09
1.64907e-08
1.32573e-08
9.95962e-09
9.77109e-09
1.06569e-08
1.15089e-08
1.23198e-08
1.31048e-08
1.3859e-08
1.45794e-08
1.52881e-08
1.60537e-08
1.71078e-08
1.81606e-08
1.89708e-08
1.94989e-08
1.97345e-08
1.96662e-08
1.92758e-08
1.85716e-08
1.7625e-08
1.6571e-08
1.55631e-08
1.47234e-08
1.41247e-08
1.38001e-08
1.37617e-08
1.40139e-08
1.45489e-08
1.5344e-08
1.63531e-08
1.7426e-08
1.80327e-08
1.83225e-08
1.8656e-08
1.9097e-08
1.96947e-08
2.04469e-08
2.12753e-08
2.2011e-08
2.23764e-08
2.19925e-08
2.05425e-08
1.82778e-08
1.60442e-08
1.41492e-08
1.22865e-08
1.12245e-08
0
0
0
0
0
1.1962e-12
3.49188e-12
5.7203e-12
6.88798e-12
7.07869e-12
6.24127e-12
5.13641e-12
3.77904e-12
2.25066e-12
4.57096e-13
0
0
0
0
0
0
0
0
0
0
0
0
0
0
3.10193e-11
8.03853e-11
1.26685e-10
1.49456e-10
1.38236e-10
9.81038e-11
4.43039e-11
0
0
0
0
0
0
0
0
4.01481e-09
1.03239e-08
1.44974e-08
1.48093e-08
9.02842e-09
2.83957e-09
5.074e-10
8.23506e-10
1.40609e-09
1.72868e-09
2.06188e-09
1.78224e-09
8.54795e-10
1.35227e-09
3.55539e-09
4.7405e-09
3.11689e-09
0
0
0
0
8.9658e-09
5.1167e-08
1.24154e-07
2.03723e-07
0
0
0
4.16535e-09
8.61809e-09
7.724e-09
6.31226e-09
6.3334e-09
5.26541e-09
9.92587e-10
0
1.7757e-09
5.87565e-09
6.41185e-09
5.91875e-09
6.0098e-09
5.59987e-09
2.31801e-09
7.9787e-10
2.81309e-09
5.4998e-09
8.23595e-09
7.62203e-09
9.86516e-09
8.12664e-09
1.63864e-08
1.42935e-08
3.63953e-08
3.14462e-08
7.91511e-09
0
0
0
0
0
0
1.79167e-13
2.059e-12
4.00461e-12
5.29055e-12
5.96528e-12
5.75833e-12
4.94998e-12
3.71402e-12
2.18271e-12
4.25393e-13
0
0
0
0
9.83922e-13
2.28086e-12
1.77706e-12
0
0
0
0
0
0
0
3.28855e-11
7.97153e-11
1.21925e-10
1.40298e-10
1.26641e-10
8.62775e-11
3.63245e-11
0
0
0
0
0
0
0
0
3.707e-09
9.15816e-09
1.28591e-08
1.29924e-08
7.48422e-09
1.98771e-09
4.02392e-10
1.09962e-09
1.742e-09
1.96903e-09
2.24815e-09
2.03453e-09
8.82615e-10
9.05275e-10
2.98263e-09
4.7478e-09
3.67372e-09
0
0
0
0
7.84191e-09
4.95855e-08
1.28954e-07
2.53022e-07
0
0
0
4.9125e-09
9.34269e-09
8.47145e-09
6.80265e-09
6.55197e-09
5.89324e-09
1.64487e-09
0
8.74941e-10
5.25531e-09
6.29627e-09
5.82728e-09
5.8636e-09
5.7413e-09
2.67057e-09
6.18279e-10
2.24591e-09
4.76343e-09
7.8063e-09
7.19196e-09
9.6534e-09
7.58604e-09
1.69696e-08
1.50391e-08
3.96201e-08
3.35996e-08
3.32269e-08
0
0
0
0
0
0
0
2.15268e-13
1.93983e-12
3.25366e-12
4.23868e-12
4.57009e-12
4.14117e-12
3.21517e-12
1.88918e-12
3.25202e-13
0
0
0
2.05811e-12
5.52998e-12
8.61847e-12
1.02182e-11
8.5841e-12
3.26194e-12
0
0
0
0
1.67074e-12
3.60799e-11
8.13412e-11
1.20827e-10
1.36142e-10
1.20586e-10
7.94724e-11
3.1366e-11
0
0
0
0
0
0
0
3.68233e-11
3.36164e-09
8.0185e-09
1.13309e-08
1.13471e-08
6.11631e-09
1.21286e-09
4.08313e-10
1.46972e-09
2.13007e-09
2.27784e-09
2.48189e-09
2.31441e-09
1.01823e-09
4.92764e-10
2.32359e-09
4.70265e-09
4.13357e-09
0
0
0
0
6.51438e-09
4.71622e-08
1.33403e-07
3.28214e-07
0
0
0
5.83891e-09
1.01439e-08
9.26149e-09
7.3906e-09
6.79599e-09
6.47062e-09
2.45861e-09
0
9.21486e-11
4.56306e-09
6.17536e-09
5.7922e-09
5.75686e-09
5.85136e-09
3.15065e-09
4.92513e-10
1.72241e-09
4.00724e-09
7.36429e-09
6.77467e-09
9.5071e-09
7.09768e-09
1.78006e-08
1.60411e-08
4.34472e-08
3.44726e-08
5.247e-08
0
5.29692e-12
0
0
0
0
0
0
0
1.05951e-12
2.19406e-12
2.86604e-12
2.87679e-12
2.37042e-12
1.39598e-12
1.63859e-13
0
0
1.04291e-12
4.35885e-12
8.82562e-12
1.29349e-11
1.55942e-11
1.49603e-11
1.03279e-11
2.25911e-12
0
0
0
6.30207e-12
4.02457e-11
8.43665e-11
1.21734e-10
1.34606e-10
1.17065e-10
7.52863e-11
2.8127e-11
0
0
0
0
0
0
0
1.7774e-10
2.96836e-09
6.92292e-09
9.90454e-09
9.80141e-09
4.72239e-09
4.99892e-10
5.69763e-10
1.92249e-09
2.56227e-09
2.71178e-09
2.74557e-09
2.60036e-09
1.26424e-09
1.44339e-10
1.65201e-09
4.47083e-09
4.46974e-09
4.87802e-10
0
0
0
4.99821e-09
4.359e-08
1.35645e-07
4.03751e-07
0
0
0
6.87253e-09
1.09418e-08
1.00578e-08
8.02836e-09
7.04712e-09
6.95251e-09
3.40141e-09
0
0
3.71269e-09
5.99901e-09
5.77174e-09
5.65778e-09
5.88843e-09
3.72173e-09
4.34947e-10
1.24256e-09
3.22168e-09
6.86316e-09
6.34661e-09
9.38337e-09
6.67959e-09
1.87643e-08
1.71032e-08
4.7472e-08
3.39309e-08
6.71745e-08
1.76029e-08
1.52353e-11
0
0
0
0
0
0
0
0
1.87235e-13
9.76528e-13
1.36157e-12
1.28857e-12
7.8002e-13
5.66328e-14
0
4.64666e-13
2.77098e-12
6.64073e-12
1.14772e-11
1.62391e-11
1.92111e-11
1.88686e-11
1.45482e-11
6.76257e-12
0
0
0
1.11157e-11
4.46791e-11
8.76948e-11
1.23068e-10
1.33786e-10
1.14051e-10
7.19986e-11
2.55086e-11
0
0
0
0
0
0
0
2.71199e-10
2.5667e-09
5.94504e-09
8.6407e-09
8.35903e-09
3.29068e-09
0
9.3272e-10
2.42225e-09
3.0232e-09
3.25293e-09
3.04722e-09
2.87809e-09
1.60531e-09
0
9.17829e-10
4.00769e-09
4.65556e-09
1.31261e-09
0
0
0
3.36896e-09
3.8754e-08
1.33212e-07
3.84904e-07
0
0
0
7.9668e-09
1.16893e-08
1.08277e-08
8.68389e-09
7.29479e-09
7.30821e-09
4.3948e-09
0
0
2.67281e-09
5.72319e-09
5.7457e-09
5.56306e-09
5.84633e-09
4.32521e-09
4.63671e-10
8.1589e-10
2.41749e-09
6.29062e-09
5.8838e-09
9.26455e-09
6.29926e-09
1.97883e-08
1.77188e-08
5.14283e-08
3.37066e-08
7.71205e-08
9.69015e-08
1.99765e-11
4.86276e-12
0
0
0
0
0
0
0
0
0
0
1.41156e-13
1.25176e-13
3.90209e-14
4.50873e-13
1.95903e-12
4.95087e-12
9.31364e-12
1.42033e-11
1.91901e-11
2.18645e-11
2.11625e-11
1.66843e-11
9.08253e-12
5.44998e-13
0
0
1.55008e-11
4.86522e-11
9.04101e-11
1.23645e-10
1.32182e-10
1.10526e-10
6.83622e-11
2.24547e-11
0
0
0
0
0
0
0
3.35959e-10
2.24905e-09
5.17266e-09
7.61822e-09
6.99919e-09
1.75493e-09
0
1.49888e-09
2.93416e-09
3.56793e-09
3.88161e-09
3.40286e-09
3.14246e-09
2.02605e-09
0
9.23702e-11
3.29083e-09
4.67928e-09
2.02354e-09
0
0
0
1.74197e-09
3.28795e-08
1.23821e-07
2.59224e-07
0
0
0
9.0667e-09
1.23768e-08
1.15563e-08
9.34907e-09
7.55331e-09
7.54631e-09
5.36447e-09
4.03682e-10
0
1.49272e-09
5.30864e-09
5.70317e-09
5.47518e-09
5.74265e-09
4.88184e-09
6.1048e-10
4.49216e-10
1.60986e-09
5.64562e-09
5.37571e-09
9.1439e-09
5.92636e-09
2.07831e-08
1.75461e-08
5.51115e-08
3.58829e-08
8.39532e-08
1.48511e-07
2.03588e-11
1.01994e-11
0
0
0
0
0
0
0
0
0
0
0
0
9.66951e-14
1.35997e-12
3.74514e-12
7.43231e-12
1.25021e-11
1.75878e-11
2.22345e-11
2.40889e-11
2.24368e-11
1.72654e-11
9.53756e-12
1.52947e-12
0
1.39431e-12
1.88754e-11
5.15609e-11
9.18943e-11
1.22846e-10
1.2867e-10
1.05801e-10
6.35548e-11
1.83998e-11
0
0
0
0
0
0
0
4.05643e-10
2.0832e-09
4.64766e-09
6.86714e-09
5.63877e-09
1.00579e-10
0
2.20469e-09
3.43938e-09
4.2002e-09
4.59779e-09
3.84116e-09
3.39051e-09
2.48981e-09
0
0
2.31986e-09
4.49881e-09
2.528e-09
0
0
0
2.44798e-10
2.64391e-08
1.06503e-07
1.50004e-07
0
0
0
1.01348e-08
1.30326e-08
1.2221e-08
1.00066e-08
7.83523e-09
7.67937e-09
6.22632e-09
1.11315e-09
0
3.12254e-10
4.72405e-09
5.62085e-09
5.39617e-09
5.59869e-09
5.31174e-09
9.22938e-10
1.44339e-10
8.17686e-10
4.93395e-09
4.81793e-09
9.01378e-09
5.5293e-09
2.16301e-08
1.63838e-08
5.84131e-08
4.14889e-08
8.66118e-08
1.71661e-07
1.81558e-11
1.35152e-11
0
0
0
0
0
0
0
0
0
0
0
0
2.20136e-13
2.32448e-12
5.60138e-12
1.00316e-11
1.59917e-11
2.14356e-11
2.53359e-11
2.61898e-11
2.31909e-11
1.68254e-11
8.55603e-12
8.78405e-13
0
3.13303e-12
2.1242e-11
5.32885e-11
9.20524e-11
1.20858e-10
1.23292e-10
9.96186e-11
5.76194e-11
1.35065e-11
0
0
0
0
0
0
0
4.98164e-10
2.06258e-09
4.35559e-09
6.3565e-09
4.09311e-09
0
4.08361e-10
2.93892e-09
3.99941e-09
4.98717e-09
5.39528e-09
4.38161e-09
3.61324e-09
2.93051e-09
3.2735e-10
0
1.19412e-09
3.96786e-09
2.80939e-09
0
0
0
0
2.00541e-08
8.35579e-08
9.06201e-08
0
0
0
1.11094e-08
1.36597e-08
1.28094e-08
1.06378e-08
8.1472e-09
7.72417e-09
6.91159e-09
2.03965e-09
0
0
3.91676e-09
5.46481e-09
5.32476e-09
5.43144e-09
5.5653e-09
1.44485e-09
0
5.89291e-11
4.16419e-09
4.20274e-09
8.86768e-09
5.0631e-09
2.21631e-08
1.42306e-08
6.09071e-08
5.03135e-08
8.62259e-08
1.61463e-07
1.48514e-11
1.52937e-11
0
0
0
0
0
0
0
0
0
0
0
0
3.9407e-13
3.25137e-12
7.38247e-12
1.28676e-11
1.94626e-11
2.51116e-11
2.82762e-11
2.80104e-11
2.37003e-11
1.5889e-11
6.76124e-12
0
0
3.98838e-12
2.32292e-11
5.46823e-11
9.19647e-11
1.18483e-10
1.17235e-10
9.23402e-11
5.07112e-11
8.1162e-12
0
0
0
0
0
0
6.09689e-11
6.19257e-10
2.13934e-09
4.27446e-09
6.02858e-09
1.98681e-09
0
1.50499e-09
3.60476e-09
4.65512e-09
5.92915e-09
6.24345e-09
5.02614e-09
3.81727e-09
3.27442e-09
8.53989e-10
0
0
3.06671e-09
2.8394e-09
0
0
0
0
1.44327e-08
6.05386e-08
6.16397e-08
0
0
1.45306e-09
1.20054e-08
1.42452e-08
1.33131e-08
1.1224e-08
8.49172e-09
7.70603e-09
7.40162e-09
3.13149e-09
0
0
2.80498e-09
5.21783e-09
5.25541e-09
5.25452e-09
5.64213e-09
2.17154e-09
0
0
3.35109e-09
3.52829e-09
8.6782e-09
4.47525e-09
2.22401e-08
1.14173e-08
6.21982e-08
6.1123e-08
8.29929e-08
1.28658e-07
1.12654e-11
1.61622e-11
0
0
0
0
0
0
0
0
0
0
0
0
5.76632e-13
4.11986e-12
9.04979e-12
1.59549e-11
2.26667e-11
2.81527e-11
3.07602e-11
2.93846e-11
2.37708e-11
1.48026e-11
4.85848e-12
0
0
4.98865e-12
2.57745e-11
5.72003e-11
9.25335e-11
1.15446e-10
1.11038e-10
8.43458e-11
4.30933e-11
2.62048e-12
0
0
0
0
0
0
1.30725e-10
7.73523e-10
2.27684e-09
4.4272e-09
5.75819e-09
0
0
2.60302e-09
4.27971e-09
5.56666e-09
6.98153e-09
7.08789e-09
5.74596e-09
4.04528e-09
3.45204e-09
1.48409e-09
0
0
1.77138e-09
2.58057e-09
4.01069e-10
0
0
0
1.02821e-08
4.28468e-08
4.80339e-08
0
0
4.33397e-09
1.28554e-08
1.47432e-08
1.37269e-08
1.17496e-08
8.86996e-09
7.65668e-09
7.68844e-09
4.28796e-09
0
0
1.39688e-09
4.83853e-09
5.18016e-09
5.07593e-09
5.57527e-09
3.00977e-09
0
0
2.53119e-09
2.81743e-09
8.39327e-09
3.7171e-09
2.17869e-08
8.55582e-09
6.15835e-08
7.15325e-08
7.75617e-08
9.11703e-08
7.83095e-12
1.64434e-11
0
0
0
0
0
0
0
0
0
0
0
0
7.39391e-13
5.02596e-12
1.07979e-11
1.8873e-11
2.53654e-11
3.03493e-11
3.23187e-11
3.0027e-11
2.33404e-11
1.36146e-11
3.40665e-12
0
0
7.66526e-12
3.02605e-11
6.22273e-11
9.49596e-11
1.11786e-10
1.04537e-10
7.55779e-11
3.47169e-11
0
0
0
0
0
0
0
2.07793e-10
9.55693e-10
2.51677e-09
4.87065e-09
5.43597e-09
0
6.6698e-10
3.45326e-09
5.06021e-09
6.87084e-09
7.99592e-09
7.88022e-09
6.49069e-09
4.36249e-09
3.43304e-09
2.07107e-09
0
0
1.18498e-10
1.88748e-09
7.12228e-10
0
0
0
8.15279e-09
3.24159e-08
4.22754e-08
0
0
6.79893e-09
1.36725e-08
1.51532e-08
1.40531e-08
1.22006e-08
9.27509e-09
7.60724e-09
7.78532e-09
5.37053e-09
2.36828e-12
0
0
4.26611e-09
5.07742e-09
4.90076e-09
5.40348e-09
3.80182e-09
0
0
1.75101e-09
2.09367e-09
7.97321e-09
2.76671e-09
2.07445e-08
6.31627e-09
5.8471e-08
7.79607e-08
6.90095e-08
5.96289e-08
4.74383e-12
1.62804e-11
1.38783e-12
0
0
0
0
0
0
0
0
0
0
0
9.43572e-13
6.21153e-12
1.32521e-11