/*--------------------------------*- C++ -*----------------------------------*\
  =========                 |
  \\      /  F ield         | OpenFOAM: The Open Source CFD Toolbox
   \\    /   O peration     | Website:  https://openfoam.org
    \\  /    A nd           | Version:  7
     \\/     M anipulation  |
\*---------------------------------------------------------------------------*/
FoamFile
{
    version     2.0;
    format      ascii;
    class       volScalarField;
    location    "0.08";
    object      p;
}
// * * * * * * * * * * * * * * * * * * * * * * * * * * * * * * * * * * * * * //

dimensions      [0 2 -2 0 0 0 0];

internalField   nonuniform List<scalar> 
70000
(
0.129537
0.052653
0.0395186
0.0419876
0.0422706
0.041251
0.0403237
0.03963
0.0390613
0.0385678
0.0381357
0.0377572
0.0374249
0.037132
0.0368732
0.0366439
0.0364403
0.0362594
0.0360986
0.0359557
0.035829
0.0357169
0.0356182
0.035532
0.0354573
0.0353935
0.0353402
0.0352969
0.0352634
0.0352396
0.0352255
0.0352211
0.0352268
0.0352428
0.0352697
0.0353079
0.0353586
0.0354224
0.0355009
0.035596
0.0357082
0.0358444
0.0359988
0.0361941
0.0364009
0.0366927
0.0369571
0.037438
0.0377239
0.0386892
0.125237
0.053015
0.0397211
0.0420821
0.042325
0.0412868
0.0403515
0.039653
0.0390806
0.0385843
0.03815
0.0377699
0.0374361
0.0371422
0.0368824
0.0366523
0.036448
0.0362666
0.0361052
0.0359619
0.0358348
0.0357224
0.0356234
0.0355369
0.0354619
0.0353979
0.0353444
0.0353009
0.0352672
0.0352432
0.0352289
0.0352244
0.03523
0.0352458
0.0352726
0.0353106
0.0353612
0.0354249
0.0355031
0.0355981
0.0357102
0.0358462
0.0360004
0.0361956
0.0364021
0.0366937
0.0369579
0.0374377
0.0377287
0.03872
0.121631
0.0539374
0.0400657
0.0422107
0.0423996
0.0413317
0.0403838
0.0396792
0.0391024
0.0386027
0.0381659
0.0377838
0.0374485
0.0371533
0.0368925
0.0366615
0.0364565
0.0362743
0.0361124
0.0359686
0.0358411
0.0357283
0.035629
0.0355421
0.0354669
0.0354027
0.0353489
0.0353051
0.0352712
0.0352471
0.0352326
0.0352279
0.0352333
0.035249
0.0352756
0.0353135
0.0353638
0.0354274
0.0355055
0.0356003
0.0357122
0.035848
0.0360019
0.0361969
0.0364029
0.0366943
0.036958
0.0374357
0.0377456
0.0387377
0.118527
0.0550364
0.0405421
0.0423833
0.0425008
0.0413897
0.0404221
0.0397091
0.039127
0.0386232
0.0381833
0.0377988
0.0374618
0.0371651
0.0369031
0.0366711
0.0364653
0.0362825
0.03612
0.0359756
0.0358476
0.0357344
0.0356347
0.0355476
0.035472
0.0354075
0.0353535
0.0353095
0.0352754
0.035251
0.0352364
0.0352315
0.0352367
0.0352522
0.0352786
0.0353164
0.0353665
0.0354299
0.0355078
0.0356024
0.0357141
0.0358496
0.0360033
0.0361979
0.0364035
0.0366941
0.0369583
0.0374311
0.0377723
0.0387422
0.11557
0.0561301
0.0411155
0.0426016
0.0426354
0.0414681
0.0404711
0.0397461
0.039157
0.0386478
0.0382039
0.0378165
0.0374771
0.0371787
0.0369152
0.036682
0.0364752
0.0362915
0.0361283
0.0359833
0.0358548
0.0357411
0.035641
0.0355535
0.0354776
0.0354128
0.0353584
0.0353142
0.0352799
0.0352553
0.0352404
0.0352353
0.0352404
0.0352557
0.0352819
0.0353195
0.0353695
0.0354327
0.0355104
0.0356048
0.0357161
0.0358514
0.0360047
0.0361988
0.0364042
0.0366934
0.0369591
0.0374247
0.0378045
0.0387425
0.112663
0.0571621
0.0417394
0.042846
0.0427976
0.0415687
0.0405338
0.0397925
0.0391944
0.0386784
0.0382292
0.0378379
0.0374956
0.0371949
0.0369296
0.0366949
0.0364868
0.036302
0.0361379
0.0359922
0.035863
0.0357487
0.0356481
0.0355601
0.0354839
0.0354187
0.035364
0.0353195
0.0352849
0.0352601
0.035245
0.0352397
0.0352445
0.0352596
0.0352857
0.0353231
0.0353729
0.0354358
0.0355133
0.0356075
0.0357186
0.0358536
0.0360066
0.0362
0.0364052
0.0366924
0.0369611
0.0374176
0.0378386
0.0387408
0.109797
0.0581152
0.0423802
0.0430955
0.042974
0.0416867
0.0406089
0.0398482
0.0392396
0.0387156
0.0382601
0.037864
0.0375181
0.0372145
0.0369469
0.0367103
0.0365006
0.0363145
0.0361493
0.0360026
0.0358726
0.0357576
0.0356564
0.0355679
0.0354912
0.0354255
0.0353705
0.0353257
0.0352908
0.0352656
0.0352503
0.0352448
0.0352494
0.0352643
0.0352901
0.0353273
0.0353769
0.0354397
0.035517
0.0356109
0.0357218
0.0358564
0.0360091
0.0362018
0.0364071
0.0366916
0.0369647
0.0374109
0.0378718
0.0387372
0.106983
0.058983
0.0430219
0.0433383
0.0431538
0.0418155
0.040693
0.0399112
0.0392915
0.0387587
0.0382962
0.0378947
0.0375446
0.0372377
0.0369674
0.0367286
0.0365171
0.0363294
0.0361629
0.036015
0.035884
0.0357682
0.0356662
0.035577
0.0354997
0.0354336
0.0353781
0.0353329
0.0352977
0.0352722
0.0352566
0.0352508
0.0352552
0.0352699
0.0352955
0.0353326
0.0353819
0.0354446
0.0355216
0.0356154
0.0357259
0.0358602
0.0360127
0.0362045
0.0364101
0.0366916
0.0369701
0.0374056
0.0379016
0.038731
0.104226
0.0597629
0.0436589
0.0435705
0.0433307
0.0419501
0.0407829
0.0399788
0.0393478
0.0388063
0.0383366
0.0379294
0.0375748
0.0372643
0.0369911
0.0367498
0.0365361
0.0363467
0.0361786
0.0360295
0.0358973
0.0357805
0.0356777
0.0355877
0.0355098
0.0354431
0.0353871
0.0353414
0.0353058
0.03528
0.0352641
0.035258
0.0352621
0.0352766
0.0353021
0.0353389
0.0353881
0.0354506
0.0355274
0.035621
0.0357314
0.0358654
0.0360176
0.0362085
0.0364147
0.0366927
0.0369774
0.0374025
0.0379262
0.0387213
0.101529
0.0604541
0.0442899
0.0437921
0.0435018
0.0420878
0.0408764
0.040049
0.0394069
0.0388569
0.0383799
0.0379669
0.0376078
0.0372936
0.0370173
0.0367734
0.0365576
0.0363662
0.0361965
0.0360459
0.0359125
0.0357946
0.0356908
0.0356
0.0355213
0.035454
0.0353975
0.0353513
0.0353152
0.0352891
0.0352728
0.0352665
0.0352703
0.0352846
0.0353099
0.0353465
0.0353956
0.0354579
0.0355346
0.0356281
0.0357383
0.035872
0.0360241
0.0362141
0.0364211
0.0366954
0.0369865
0.0374021
0.0379445
0.038707
0.0988973
0.0610569
0.0449138
0.0440038
0.0436658
0.0422271
0.0409724
0.0401208
0.0394675
0.0389092
0.0384251
0.0380064
0.0376428
0.0373249
0.0370455
0.036799
0.0365809
0.0363876
0.0362161
0.0360641
0.0359293
0.0358103
0.0357055
0.0356138
0.0355343
0.0354663
0.0354092
0.0353625
0.035326
0.0352994
0.0352828
0.0352762
0.0352798
0.0352939
0.0353189
0.0353555
0.0354044
0.0354667
0.0355432
0.0356366
0.0357467
0.0358801
0.0360323
0.0362212
0.0364293
0.0367
0.0369972
0.0374043
0.037956
0.0386869
0.0963324
0.0615719
0.0455291
0.0442071
0.0438217
0.042367
0.0410707
0.0401936
0.0395289
0.0389627
0.0384715
0.0380471
0.037679
0.0373574
0.037075
0.0368258
0.0366055
0.0364103
0.0362371
0.0360835
0.0359475
0.0358273
0.0357214
0.0356289
0.0355486
0.0354799
0.0354221
0.0353749
0.0353379
0.0353109
0.035294
0.0352871
0.0352905
0.0353044
0.0353293
0.0353657
0.0354145
0.0354767
0.0355532
0.0356465
0.0357566
0.0358898
0.0360421
0.0362299
0.0364392
0.0367063
0.0370088
0.0374085
0.0379605
0.0386601
0.0938373
0.0619995
0.0461335
0.0444033
0.0439689
0.0425068
0.041171
0.0402674
0.0395909
0.0390169
0.0385187
0.0380886
0.037716
0.0373908
0.0371054
0.0368536
0.0366311
0.0364339
0.036259
0.036104
0.0359666
0.0358452
0.0357384
0.0356449
0.0355638
0.0354944
0.035436
0.0353882
0.0353508
0.0353234
0.0353062
0.035299
0.0353022
0.0353159
0.0353406
0.035377
0.0354257
0.0354879
0.0355644
0.0356577
0.0357677
0.0359007
0.0360533
0.0362399
0.0364505
0.0367143
0.0370207
0.0374139
0.0379585
0.0386264
0.0914146
0.0623408
0.0467243
0.0445937
0.0441068
0.0426455
0.0412732
0.040342
0.0396534
0.0390716
0.0385667
0.0381308
0.0377537
0.0374249
0.0371364
0.0368821
0.0366573
0.0364582
0.0362816
0.0361251
0.0359864
0.0358638
0.035756
0.0356616
0.0355797
0.0355096
0.0354506
0.0354023
0.0353644
0.0353367
0.0353191
0.0353117
0.0353146
0.0353282
0.0353528
0.0353891
0.0354378
0.0355
0.0355765
0.0356698
0.0357799
0.0359126
0.0360655
0.036251
0.0364626
0.0367235
0.0370323
0.0374193
0.0379505
0.0385857
0.0890668
0.0625971
0.0472983
0.04478
0.0442352
0.0427822
0.0413772
0.0404176
0.0397162
0.0391269
0.0386152
0.0381736
0.0377919
0.0374595
0.0371679
0.0369111
0.036684
0.036483
0.0363047
0.0361467
0.0360067
0.035883
0.0357741
0.0356788
0.0355962
0.0355254
0.0354658
0.035417
0.0353786
0.0353505
0.0353326
0.0353249
0.0353277
0.0353411
0.0353656
0.0354019
0.0354505
0.0355128
0.0355893
0.0356826
0.0357927
0.0359252
0.0360783
0.0362628
0.036475
0.0367332
0.0370428
0.0374237
0.037937
0.0385387
0.0867957
0.0627702
0.0478524
0.0449636
0.0443539
0.0429161
0.0414828
0.040494
0.0397793
0.0391826
0.0386643
0.038217
0.0378307
0.0374946
0.0372
0.0369405
0.0367112
0.0365082
0.0363282
0.0361687
0.0360274
0.0359025
0.0357926
0.0356964
0.035613
0.0355415
0.0354813
0.035432
0.0353932
0.0353647
0.0353465
0.0353386
0.0353411
0.0353544
0.0353789
0.0354151
0.0354637
0.0355259
0.0356024
0.0356957
0.035806
0.0359381
0.0360914
0.0362748
0.0364874
0.0367431
0.0370518
0.0374261
0.0379188
0.0384861
0.0846031
0.0628623
0.0483835
0.045146
0.0444629
0.0430459
0.0415895
0.0405715
0.0398426
0.0392387
0.038714
0.0382609
0.0378699
0.0375301
0.0372324
0.0369703
0.0367388
0.0365338
0.0363521
0.0361911
0.0360485
0.0359224
0.0358115
0.0357144
0.0356301
0.0355579
0.0354972
0.0354473
0.0354081
0.0353792
0.0353607
0.0353525
0.0353549
0.035368
0.0353923
0.0354285
0.0354771
0.0355393
0.0356158
0.035709
0.0358193
0.0359511
0.0361044
0.0362867
0.0364992
0.0367524
0.0370587
0.0374258
0.0378962
0.0384292
0.08249
0.062876
0.0488884
0.045328
0.0445625
0.0431707
0.0416971
0.0406498
0.0399061
0.039295
0.038764
0.0383052
0.0379097
0.0375661
0.0372653
0.0370006
0.0367667
0.0365598
0.0363764
0.0362138
0.0360698
0.0359426
0.0358306
0.0357326
0.0356475
0.0355746
0.0355132
0.0354629
0.0354231
0.0353939
0.0353751
0.0353666
0.0353688
0.0353817
0.035406
0.035442
0.0354906
0.0355527
0.0356292
0.0357223
0.0358326
0.0359639
0.0361171
0.0362982
0.0365101
0.0367608
0.0370633
0.0374224
0.03787
0.0383689
0.0804573
0.0628146
0.0493641
0.0455105
0.0446529
0.0432896
0.0418051
0.0407291
0.0399697
0.0393514
0.0388145
0.0383501
0.0379498
0.0376025
0.0372986
0.0370312
0.0367951
0.0365861
0.036401
0.0362369
0.0360915
0.0359631
0.03585
0.0357511
0.0356652
0.0355916
0.0355295
0.0354786
0.0354384
0.0354088
0.0353896
0.0353809
0.0353828
0.0353956
0.0354197
0.0354556
0.0355041
0.0355661
0.0356426
0.0357354
0.0358456
0.0359764
0.0361293
0.0363092
0.03652
0.0367679
0.0370655
0.0374157
0.0378404
0.0383062
0.0785052
0.0626817
0.0498076
0.0456939
0.0447347
0.0434016
0.0419129
0.0408094
0.0400334
0.0394078
0.0388653
0.0383953
0.0379904
0.0376393
0.0373323
0.0370622
0.0368238
0.0366128
0.0364259
0.0362602
0.0361135
0.0359839
0.0358697
0.0357698
0.0356831
0.0356087
0.035546
0.0354945
0.0354539
0.0354238
0.0354043
0.0353953
0.0353969
0.0354095
0.0354334
0.0354692
0.0355175
0.0355794
0.0356558
0.0357484
0.0358583
0.0359885
0.0361408
0.0363194
0.0365286
0.0367734
0.0370652
0.0374056
0.037808
0.038242
0.0766338
0.0624815
0.0502161
0.0458782
0.0448086
0.0435059
0.0420198
0.0408904
0.0400971
0.0394642
0.0389163
0.038441
0.0380313
0.0376764
0.0373663
0.0370936
0.0368528
0.0366398
0.0364511
0.0362839
0.0361358
0.0360049
0.0358897
0.0357888
0.0357012
0.0356261
0.0355627
0.0355107
0.0354695
0.035439
0.0354191
0.0354097
0.0354111
0.0354234
0.0354471
0.0354828
0.0355309
0.0355926
0.0356687
0.035761
0.0358706
0.0360001
0.0361516
0.0363287
0.0365358
0.0367772
0.0370624
0.0373922
0.037773
0.0381769
0.0748424
0.0622185
0.0505871
0.0460633
0.0448756
0.0436019
0.042125
0.0409722
0.0401608
0.0395204
0.0389675
0.0384869
0.0380726
0.0377139
0.0374007
0.0371253
0.0368822
0.0366672
0.0364767
0.0363078
0.0361583
0.0360262
0.0359099
0.035808
0.0357196
0.0356437
0.0355796
0.0355269
0.0354852
0.0354543
0.0354339
0.0354243
0.0354253
0.0354374
0.0354608
0.0354962
0.0355442
0.0356056
0.0356815
0.0357733
0.0358824
0.0360111
0.0361616
0.0363369
0.0365417
0.0367791
0.0370572
0.0373758
0.0377358
0.0381115
0.0731303
0.0618977
0.0509181
0.0462482
0.0449364
0.0436891
0.0422279
0.0410546
0.0402246
0.0395764
0.0390187
0.0385332
0.0381142
0.0377517
0.0374354
0.0371573
0.0369119
0.0366948
0.0365025
0.0363321
0.0361812
0.0360478
0.0359303
0.0358274
0.0357381
0.0356614
0.0355967
0.0355434
0.0355011
0.0354697
0.0354489
0.0354388
0.0354396
0.0354513
0.0354745
0.0355096
0.0355573
0.0356184
0.0356939
0.0357852
0.0358937
0.0360214
0.0361707
0.0363441
0.036546
0.0367791
0.0370495
0.0373564
0.0376966
0.0380461
0.0714961
0.0615242
0.0512072
0.046432
0.0449922
0.0437671
0.0423274
0.0411372
0.0402884
0.039632
0.0390698
0.0385796
0.0381561
0.0377898
0.0374704
0.0371897
0.0369419
0.0367228
0.0365286
0.0363566
0.0362042
0.0360696
0.035951
0.0358471
0.0357568
0.0356793
0.0356139
0.0355599
0.0355171
0.0354852
0.035464
0.0354535
0.0354538
0.0354653
0.0354881
0.0355229
0.0355702
0.0356309
0.0357059
0.0357966
0.0359044
0.036031
0.0361788
0.0363501
0.0365487
0.036777
0.0370394
0.0373343
0.0376556
0.037981
0.0699382
0.0611036
0.0514526
0.0466132
0.0450439
0.0438359
0.0424228
0.0412197
0.0403522
0.0396871
0.0391208
0.0386262
0.0381982
0.0378281
0.0375056
0.0372222
0.0369722
0.036751
0.036555
0.0363814
0.0362276
0.0360916
0.0359719
0.0358669
0.0357758
0.0356974
0.0356312
0.0355766
0.0355332
0.0355007
0.035479
0.0354681
0.0354681
0.0354791
0.0355016
0.035536
0.0355829
0.0356431
0.0357176
0.0358076
0.0359144
0.0360398
0.0361859
0.0363548
0.0365498
0.036773
0.037027
0.0373097
0.0376132
0.0379163
0.0684546
0.0606414
0.0516531
0.0467898
0.0450925
0.0438955
0.0425131
0.0413018
0.040416
0.0397417
0.0391713
0.0386727
0.0382404
0.0378666
0.037541
0.0372551
0.0370027
0.0367794
0.0365817
0.0364064
0.0362511
0.0361139
0.0359929
0.035887
0.0357949
0.0357157
0.0356487
0.0355934
0.0355494
0.0355164
0.0354942
0.0354828
0.0354823
0.0354929
0.0355149
0.0355489
0.0355953
0.035655
0.0357289
0.035818
0.0359238
0.0360478
0.036192
0.0363582
0.0365493
0.0367669
0.0370123
0.0372828
0.0375693
0.0378521
0.0670432
0.0601433
0.0518079
0.0469597
0.045139
0.0439462
0.0425976
0.0413829
0.0404797
0.0397957
0.0392214
0.0387192
0.0382828
0.0379053
0.0375766
0.0372881
0.0370334
0.0368081
0.0366085
0.0364316
0.0362749
0.0361363
0.0360142
0.0359072
0.0358141
0.0357341
0.0356663
0.0356103
0.0355657
0.035532
0.0355093
0.0354974
0.0354964
0.0355066
0.0355281
0.0355616
0.0356075
0.0356666
0.0357397
0.0358279
0.0359325
0.0360549
0.0361969
0.0363602
0.0365471
0.0367587
0.0369954
0.0372538
0.0375242
0.0377884
0.0657014
0.0596151
0.0519168
0.0471205
0.0451839
0.0439884
0.0426754
0.0414624
0.0405432
0.0398491
0.0392709
0.0387655
0.0383252
0.0379441
0.0376124
0.0373212
0.0370643
0.036837
0.0366356
0.036457
0.0362988
0.036159
0.0360357
0.0359276
0.0358335
0.0357526
0.0356841
0.0356273
0.035582
0.0355477
0.0355244
0.035512
0.0355105
0.0355201
0.0355412
0.0355741
0.0356193
0.0356777
0.0357499
0.0358371
0.0359403
0.0360609
0.0362006
0.0363608
0.0365432
0.0367485
0.0369764
0.0372228
0.037478
0.0377252
0.0644264
0.0590622
0.0519799
0.0472696
0.045228
0.0440228
0.0427459
0.0415396
0.0406064
0.0399018
0.0393197
0.0388114
0.0383675
0.0379829
0.0376482
0.0373545
0.0370954
0.036866
0.0366628
0.0364826
0.036323
0.0361817
0.0360572
0.0359481
0.035853
0.0357712
0.0357018
0.0356444
0.0355983
0.0355634
0.0355395
0.0355265
0.0355244
0.0355335
0.0355539
0.0355862
0.0356308
0.0356883
0.0357596
0.0358456
0.0359473
0.036066
0.0362031
0.0363598
0.0365374
0.0367363
0.0369553
0.03719
0.0374309
0.0376625
0.0632156
0.05849
0.0519982
0.0474043
0.0452713
0.0440502
0.0428086
0.041614
0.0406691
0.0399538
0.0393676
0.0388568
0.0384097
0.0380216
0.037684
0.0373879
0.0371265
0.0368952
0.0366902
0.0365083
0.0363472
0.0362047
0.036079
0.0359687
0.0358726
0.0357899
0.0357197
0.0356614
0.0356147
0.0355791
0.0355545
0.0355409
0.0355382
0.0355467
0.0355665
0.035598
0.0356418
0.0356985
0.0357687
0.0358533
0.0359534
0.0360699
0.0362042
0.0363573
0.0365299
0.0367221
0.0369321
0.0371554
0.0373827
0.0376002
0.0620658
0.0579035
0.0519729
0.0475223
0.0453138
0.0440711
0.0428632
0.0416847
0.0407309
0.0400051
0.0394145
0.0389016
0.0384517
0.0380603
0.0377198
0.0374212
0.0371577
0.0369244
0.0367176
0.0365342
0.0363716
0.0362277
0.0361008
0.0359894
0.0358923
0.0358086
0.0357376
0.0356785
0.035631
0.0355947
0.0355694
0.0355551
0.0355518
0.0355596
0.0355787
0.0356095
0.0356524
0.0357081
0.0357771
0.0358602
0.0359585
0.0360727
0.036204
0.0363531
0.0365206
0.0367059
0.036907
0.0371192
0.0373337
0.0375382
0.060974
0.0573074
0.0519058
0.0476214
0.0453549
0.0440865
0.0429095
0.0417509
0.0407915
0.0400555
0.0394605
0.0389456
0.0384932
0.0380988
0.0377554
0.0374545
0.0371889
0.0369537
0.0367451
0.0365601
0.036396
0.0362508
0.0361227
0.0360101
0.035912
0.0358274
0.0357554
0.0356955
0.0356472
0.0356102
0.0355843
0.0355692
0.0355652
0.0355722
0.0355906
0.0356205
0.0356625
0.035717
0.0357847
0.0358663
0.0359625
0.0360743
0.0362024
0.0363473
0.0365094
0.0366877
0.03688
0.0370815
0.0372839
0.0374763
0.0599372
0.0567057
0.0517992
0.0476998
0.0453938
0.0440971
0.0429476
0.0418121
0.0408505
0.0401051
0.0395052
0.0389887
0.0385342
0.0381371
0.037791
0.0374877
0.0372201
0.036983
0.0367727
0.0365861
0.0364205
0.036274
0.0361446
0.0360309
0.0359318
0.0358462
0.0357733
0.0357125
0.0356634
0.0356256
0.0355989
0.0355831
0.0355783
0.0355846
0.0356021
0.0356311
0.035672
0.0357253
0.0357916
0.0358714
0.0359655
0.0360746
0.0361992
0.0363399
0.0364963
0.0366676
0.0368511
0.0370422
0.0372332
0.0374144
0.0589523
0.0561023
0.0516559
0.0477558
0.0454294
0.0441034
0.0429775
0.0418676
0.0409074
0.0401536
0.0395488
0.0390307
0.0385746
0.0381749
0.0378262
0.0375207
0.0372511
0.0370122
0.0368002
0.036612
0.036445
0.0362971
0.0361665
0.0360517
0.0359515
0.0358649
0.0357911
0.0357295
0.0356795
0.0356409
0.0356134
0.0355968
0.0355912
0.0355966
0.0356132
0.0356412
0.0356809
0.0357329
0.0357976
0.0358755
0.0359673
0.0360735
0.0361946
0.0363307
0.0364814
0.0366456
0.0368204
0.0370014
0.0371816
0.0373525
0.0580162
0.0555003
0.051479
0.0477883
0.0454603
0.044106
0.0429997
0.0419167
0.0409616
0.0402009
0.0395911
0.0390715
0.0386141
0.0382123
0.0378612
0.0375535
0.037282
0.0370413
0.0368277
0.0366379
0.0364695
0.0363203
0.0361884
0.0360725
0.0359712
0.0358836
0.0358088
0.0357463
0.0356954
0.035656
0.0356276
0.0356102
0.0356037
0.0356082
0.0356237
0.0356506
0.0356892
0.0357397
0.0358027
0.0358786
0.0359679
0.0360711
0.0361883
0.0363197
0.0364646
0.0366216
0.0367879
0.0369592
0.0371291
0.0372903
0.057126
0.0549025
0.0512715
0.0477965
0.045485
0.0441051
0.0430145
0.0419591
0.0410125
0.0402467
0.039632
0.0391109
0.0386527
0.0382491
0.0378957
0.0375859
0.0373126
0.0370702
0.036855
0.0366637
0.0364939
0.0363433
0.0362103
0.0360931
0.0359908
0.0359021
0.0358264
0.0357629
0.0357112
0.0356708
0.0356416
0.0356232
0.0356158
0.0356193
0.0356338
0.0356595
0.0356967
0.0357457
0.0358068
0.0358806
0.0359672
0.0360672
0.0361805
0.036307
0.0364459
0.0365957
0.0367536
0.0369155
0.0370757
0.0372277
0.0562788
0.0543114
0.051037
0.0477801
0.0455019
0.044101
0.0430223
0.0419945
0.0410596
0.0402908
0.0396715
0.0391489
0.0386901
0.0382851
0.0379297
0.0376179
0.0373428
0.0370989
0.0368821
0.0366893
0.0365181
0.0363663
0.036232
0.0361137
0.0360102
0.0359205
0.0358438
0.0357794
0.0357267
0.0356854
0.0356552
0.0356359
0.0356275
0.0356299
0.0356433
0.0356677
0.0357034
0.0357507
0.0358099
0.0358813
0.0359652
0.0360618
0.0361709
0.0362924
0.0364253
0.036568
0.0367176
0.0368704
0.0370212
0.0371645
0.0554718
0.0537287
0.0507788
0.047739
0.0455095
0.0440933
0.0430238
0.0420227
0.0411023
0.0403327
0.0397094
0.0391853
0.0387262
0.0383202
0.0379631
0.0376494
0.0373727
0.0371272
0.0369089
0.0367147
0.0365422
0.036389
0.0362535
0.0361341
0.0360295
0.0359387
0.035861
0.0357956
0.0357419
0.0356996
0.0356685
0.0356482
0.0356387
0.03564
0.0356521
0.0356751
0.0357093
0.0357548
0.0358119
0.0358809
0.0359618
0.0360548
0.0361597
0.0362761
0.0364028
0.0365384
0.0366799
0.0368239
0.0369658
0.0371007
0.0547026
0.0531561
0.0505002
0.0476737
0.0455063
0.044082
0.0430194
0.0420437
0.0411401
0.0403722
0.0397456
0.03922
0.0387609
0.0383543
0.0379957
0.0376804
0.037402
0.0371551
0.0369354
0.0367398
0.0365659
0.0364115
0.0362748
0.0361542
0.0360485
0.0359567
0.0358779
0.0358115
0.0357568
0.0357135
0.0356813
0.03566
0.0356493
0.0356494
0.0356602
0.0356818
0.0357143
0.0357579
0.0358128
0.0358791
0.0359569
0.0360462
0.0361467
0.0362578
0.0363785
0.0365069
0.0366405
0.0367759
0.0369092
0.0370361
0.0539686
0.0525947
0.0502044
0.0475851
0.0454911
0.0440663
0.0430095
0.0420575
0.0411724
0.0404087
0.0397799
0.039253
0.0387939
0.0383871
0.0380275
0.0377106
0.0374308
0.0371825
0.0369615
0.0367646
0.0365894
0.0364338
0.0362958
0.0361741
0.0360673
0.0359744
0.0358945
0.035827
0.0357713
0.035727
0.0356937
0.0356712
0.0356594
0.0356582
0.0356676
0.0356876
0.0357183
0.0357599
0.0358124
0.0358759
0.0359505
0.0360359
0.0361319
0.0362377
0.0363521
0.0364735
0.0365993
0.0367265
0.0368514
0.0369706
0.0532675
0.0520453
0.0498944
0.0474742
0.0454627
0.0440457
0.0429943
0.0420643
0.041199
0.0404419
0.0398121
0.039284
0.0388252
0.0384186
0.0380582
0.03774
0.0374589
0.0372093
0.036987
0.0367889
0.0366125
0.0364556
0.0363165
0.0361936
0.0360857
0.0359917
0.0359107
0.0358422
0.0357854
0.03574
0.0357055
0.0356819
0.0356688
0.0356662
0.0356741
0.0356924
0.0357213
0.0357607
0.0358107
0.0358713
0.0359425
0.036024
0.0361153
0.0362157
0.0363239
0.0364383
0.0365564
0.0366755
0.0367924
0.0369039
0.0525972
0.0515085
0.049573
0.0473424
0.0454205
0.0440193
0.0429741
0.0420643
0.0412195
0.0404712
0.0398418
0.039313
0.0388546
0.0384485
0.0380877
0.0377685
0.0374862
0.0372354
0.037012
0.0368127
0.0366351
0.036477
0.0363368
0.0362127
0.0361037
0.0360086
0.0359265
0.0358569
0.035799
0.0357524
0.0357168
0.0356918
0.0356774
0.0356734
0.0356797
0.0356963
0.0357231
0.0357602
0.0358076
0.0358653
0.0359329
0.0360103
0.0360968
0.0361917
0.0362938
0.0364012
0.0365118
0.036623
0.036732
0.0368361
0.0519557
0.0509847
0.0492427
0.0471913
0.0453639
0.0439864
0.0429489
0.0420577
0.0412337
0.0404962
0.0398689
0.0393398
0.038882
0.0384766
0.0381159
0.037796
0.0375126
0.0372607
0.0370363
0.0368359
0.0366571
0.0364979
0.0363565
0.0362314
0.0361212
0.036025
0.0359418
0.035871
0.035812
0.0357642
0.0357273
0.0357011
0.0356853
0.0356797
0.0356843
0.035699
0.0357238
0.0357585
0.0358032
0.0358576
0.0359216
0.0359948
0.0360765
0.0361659
0.0362616
0.0363622
0.0364654
0.036569
0.0366703
0.0367671
0.0513412
0.0504741
0.0489057
0.0470226
0.0452928
0.0439461
0.0429186
0.0420449
0.0412414
0.0405166
0.0398929
0.0393643
0.0389073
0.0385029
0.0381425
0.0378222
0.0375379
0.0372852
0.0370597
0.0368584
0.0366785
0.0365182
0.0363757
0.0362495
0.0361382
0.0360408
0.0359565
0.0358846
0.0358243
0.0357753
0.0357372
0.0357096
0.0356923
0.0356851
0.035688
0.0357007
0.0357232
0.0357554
0.0357972
0.0358484
0.0359086
0.0359774
0.0360542
0.036138
0.0362276
0.0363213
0.0364173
0.0365133
0.0366071
0.0366967
0.0507518
0.0499767
0.0485641
0.046838
0.0452071
0.0438978
0.042883
0.0420259
0.0412428
0.0405319
0.0399136
0.0393862
0.0389302
0.0385271
0.0381674
0.037847
0.0375621
0.0373086
0.0370823
0.03688
0.0366992
0.0365379
0.0363943
0.0362669
0.0361545
0.0360561
0.0359706
0.0358975
0.035836
0.0357857
0.0357462
0.0357172
0.0356983
0.0356895
0.0356904
0.0357011
0.0357213
0.0357509
0.0357897
0.0358374
0.0358938
0.0359582
0.03603
0.0361082
0.0361916
0.0362786
0.0363674
0.036456
0.0365425
0.0366248
0.050186
0.0494924
0.0482194
0.0466393
0.0451071
0.0438407
0.0428419
0.0420011
0.0412378
0.0405419
0.0399305
0.0394054
0.0389507
0.0385491
0.0381905
0.0378703
0.037585
0.0373309
0.0371039
0.0369007
0.036719
0.0365567
0.0364121
0.0362836
0.0361702
0.0360706
0.035984
0.0359096
0.0358469
0.0357953
0.0357544
0.0357238
0.0357034
0.0356927
0.0356917
0.0357002
0.035718
0.0357448
0.0357805
0.0358248
0.0358771
0.0359371
0.0360038
0.0360764
0.0361536
0.036234
0.0363157
0.0363971
0.0364763
0.0365515
0.0496424
0.049021
0.0478733
0.0464282
0.0449934
0.0437743
0.0427949
0.0419705
0.0412264
0.0405464
0.0399433
0.0394215
0.0389687
0.0385688
0.0382116
0.0378919
0.0376065
0.0373519
0.0371243
0.0369205
0.0367379
0.0365747
0.036429
0.0362996
0.036185
0.0360843
0.0359965
0.0359209
0.0358569
0.0358039
0.0357616
0.0357294
0.0357073
0.0356948
0.0356918
0.035698
0.0357132
0.0357372
0.0357697
0.0358103
0.0358586
0.035914
0.0359756
0.0360426
0.0361136
0.0361874
0.0362623
0.0363366
0.0364086
0.0364768
0.0491196
0.0485623
0.047527
0.0462065
0.0448666
0.0436983
0.0427417
0.0419342
0.0412089
0.0405451
0.0399517
0.0394343
0.0389838
0.038586
0.0382304
0.0379116
0.0376264
0.0373715
0.0371434
0.036939
0.0367557
0.0365916
0.0364451
0.0363146
0.0361989
0.0360971
0.0360081
0.0359313
0.0358659
0.0358116
0.0357677
0.035734
0.03571
0.0356956
0.0356904
0.0356942
0.0357068
0.0357279
0.0357571
0.035794
0.0358381
0.0358889
0.0359454
0.0360067
0.0360717
0.036139
0.036207
0.0362743
0.0363393
0.0364005
0.0486162
0.048116
0.0471815
0.0459755
0.0447275
0.0436126
0.0426818
0.041892
0.0411852
0.040538
0.0399555
0.0394435
0.038996
0.0386005
0.0382469
0.0379293
0.0376446
0.0373896
0.0371612
0.0369563
0.0367724
0.0366075
0.03646
0.0363286
0.0362119
0.0361089
0.0360187
0.0359406
0.0358739
0.0358181
0.0357727
0.0357373
0.0357115
0.035695
0.0356876
0.035689
0.0356989
0.0357169
0.0357426
0.0357758
0.0358157
0.0358617
0.0359131
0.0359688
0.0360278
0.0360886
0.03615
0.0362104
0.0362684
0.0363227
0.0481312
0.0476817
0.0468378
0.045737
0.0445769
0.043517
0.042615
0.0418441
0.0411554
0.040525
0.0399543
0.0394489
0.039005
0.0386123
0.0382608
0.0379448
0.0376608
0.037406
0.0371775
0.0369722
0.0367877
0.0366222
0.0364739
0.0363415
0.0362237
0.0361196
0.0360283
0.0359489
0.0358808
0.0358235
0.0357764
0.0357393
0.0357116
0.035693
0.0356833
0.0356822
0.0356892
0.035704
0.0357263
0.0357556
0.0357912
0.0358326
0.0358788
0.0359289
0.0359818
0.0360363
0.0360911
0.0361447
0.0361959
0.0362434
0.0476634
0.0472592
0.0464966
0.0454921
0.0444159
0.0434117
0.042541
0.0417902
0.0411197
0.040506
0.039948
0.0394502
0.0390107
0.038621
0.038272
0.0379578
0.0376749
0.0374206
0.037192
0.0369865
0.0368016
0.0366355
0.0364864
0.0363531
0.0362344
0.0361292
0.0360366
0.0359559
0.0358864
0.0358276
0.0357789
0.0357399
0.0357102
0.0356895
0.0356774
0.0356736
0.0356777
0.0356894
0.0357081
0.0357334
0.0357647
0.0358013
0.0358423
0.0358869
0.0359339
0.0359822
0.0360304
0.0360774
0.0361219
0.0361626
0.0472118
0.046848
0.0461585
0.0452421
0.0442453
0.043297
0.0424596
0.0417302
0.041078
0.0404812
0.0399363
0.0394471
0.0390127
0.0386266
0.0382804
0.0379684
0.0376868
0.0374331
0.0372048
0.0369992
0.036814
0.0366473
0.0364975
0.0363634
0.0362437
0.0361374
0.0360436
0.0359616
0.0358907
0.0358303
0.0357799
0.035739
0.0357073
0.0356844
0.0356698
0.0356633
0.0356644
0.0356728
0.0356879
0.0357092
0.0357361
0.0357679
0.0358038
0.0358428
0.0358839
0.0359261
0.035968
0.0360085
0.0360463
0.0360805
0.0467755
0.0464478
0.0458239
0.0449881
0.0440662
0.0431732
0.0423707
0.041664
0.0410304
0.0404505
0.0399192
0.0394394
0.039011
0.0386288
0.0382858
0.0379761
0.0376962
0.0374435
0.0372156
0.03701
0.0368246
0.0366575
0.0365071
0.0363722
0.0362516
0.0361442
0.0360492
0.0359659
0.0358935
0.0358315
0.0357793
0.0357365
0.0357027
0.0356775
0.0356604
0.0356511
0.0356492
0.0356542
0.0356656
0.0356828
0.0357053
0.0357324
0.0357631
0.0357966
0.035832
0.0358681
0.0359037
0.0359379
0.0359693
0.035997
0.0463537
0.0460581
0.0454934
0.0447311
0.0438795
0.0430407
0.0422742
0.0415915
0.0409769
0.0404138
0.0398966
0.0394269
0.0390051
0.0386275
0.038288
0.037981
0.037703
0.0374515
0.0372242
0.0370189
0.0368334
0.036666
0.0365151
0.0363794
0.0362579
0.0361495
0.0360533
0.0359686
0.0358947
0.0358311
0.0357771
0.0357324
0.0356964
0.0356688
0.0356492
0.035637
0.0356319
0.0356335
0.0356411
0.0356543
0.0356724
0.0356946
0.0357203
0.0357484
0.035778
0.0358082
0.0358377
0.0358656
0.0358908
0.0359122
0.0459454
0.0456787
0.0451672
0.0444719
0.0436861
0.0429
0.0421702
0.0415126
0.0409174
0.0403713
0.0398684
0.0394094
0.038995
0.0386225
0.0382868
0.0379828
0.0377071
0.037457
0.0372305
0.0370256
0.0368402
0.0366726
0.0365212
0.0363849
0.0362625
0.036153
0.0360557
0.0359696
0.0358943
0.035829
0.0357732
0.0357265
0.0356883
0.0356582
0.0356359
0.0356209
0.0356126
0.0356107
0.0356145
0.0356236
0.0356372
0.0356547
0.0356753
0.0356981
0.0357221
0.0357464
0.03577
0.0357918
0.0358109
0.0358261
0.04555
0.0453091
0.0448456
0.0442114
0.0434869
0.0427518
0.042059
0.0414272
0.0408521
0.040323
0.0398346
0.0393868
0.0389805
0.0386136
0.0382821
0.0379814
0.0377081
0.0374598
0.0372344
0.03703
0.0368448
0.0366771
0.0365254
0.0363884
0.0362652
0.0361548
0.0360563
0.0359689
0.035892
0.035825
0.0357674
0.0357186
0.0356782
0.0356457
0.0356206
0.0356026
0.0355911
0.0355856
0.0355857
0.0355906
0.0355998
0.0356126
0.0356281
0.0356456
0.0356641
0.0356828
0.0357005
0.0357165
0.0357296
0.0357389
0.0451667
0.0449489
0.0445287
0.0439502
0.0432828
0.0425965
0.0419406
0.0413354
0.0407807
0.0402689
0.0397952
0.0393591
0.0389613
0.0386006
0.0382737
0.0379766
0.0377061
0.0374597
0.0372356
0.037032
0.0368472
0.0366794
0.0365274
0.03639
0.036266
0.0361546
0.0360549
0.0359662
0.0358878
0.0358191
0.0357596
0.0357087
0.035666
0.035631
0.0356032
0.0355821
0.0355674
0.0355583
0.0355545
0.0355554
0.0355602
0.0355682
0.0355788
0.0355911
0.0356042
0.0356173
0.0356294
0.0356396
0.035647
0.0356507
0.044795
0.0445979
0.0442166
0.0436889
0.0430744
0.0424349
0.0418154
0.0412372
0.0407034
0.040209
0.0397501
0.039326
0.0389373
0.0385834
0.0382615
0.0379682
0.0377007
0.0374566
0.037234
0.0370314
0.036847
0.0366794
0.0365273
0.0363893
0.0362647
0.0361524
0.0360515
0.0359615
0.0358816
0.0358112
0.0357497
0.0356967
0.0356517
0.0356141
0.0355835
0.0355594
0.0355413
0.0355287
0.0355211
0.0355178
0.0355182
0.0355216
0.0355273
0.0355344
0.0355423
0.03555
0.0355566
0.0355613
0.0355632
0.0355614
0.044434
0.0442556
0.0439095
0.043428
0.0428626
0.0422674
0.0416836
0.0411328
0.0406201
0.0401433
0.0396993
0.0392875
0.0389084
0.0385616
0.0382452
0.0379562
0.0376919
0.0374502
0.0372294
0.0370279
0.0368442
0.0366769
0.0365247
0.0363864
0.0362611
0.0361479
0.036046
0.0359546
0.0358732
0.035801
0.0357376
0.0356825
0.0356351
0.0355949
0.0355614
0.0355343
0.0355129
0.0354967
0.0354852
0.0354778
0.0354738
0.0354726
0.0354735
0.0354757
0.0354784
0.0354809
0.0354822
0.0354816
0.0354782
0.0354713
0.0440834
0.0439218
0.0436073
0.0431679
0.0426479
0.0420948
0.0415458
0.0410222
0.040531
0.0400719
0.039643
0.0392437
0.0388745
0.0385353
0.0382247
0.0379402