/*--------------------------------*- C++ -*----------------------------------*\
  =========                 |
  \\      /  F ield         | OpenFOAM: The Open Source CFD Toolbox
   \\    /   O peration     | Website:  https://openfoam.org
    \\  /    A nd           | Version:  7
     \\/     M anipulation  |
\*---------------------------------------------------------------------------*/
FoamFile
{
    version     2.0;
    format      ascii;
    class       surfaceScalarField;
    location    "0.08";
    object      phi;
}
// * * * * * * * * * * * * * * * * * * * * * * * * * * * * * * * * * * * * * //

dimensions      [0 3 -1 0 0 0 0];

internalField   nonuniform List<scalar> 
139350
(
6.45922e-08
9.20393e-08
3.19506e-08
3.26416e-08
2.30597e-08
8.89084e-09
1.95661e-08
3.49358e-09
1.76156e-08
1.95059e-09
1.61896e-08
1.42599e-09
1.50585e-08
1.13106e-09
1.41468e-08
9.1168e-10
1.33969e-08
7.49888e-10
1.27657e-08
6.31261e-10
1.22242e-08
5.4149e-10
1.17531e-08
4.71098e-10
1.13386e-08
4.14471e-10
1.09705e-08
3.68084e-10
1.0641e-08
3.29533e-10
1.03439e-08
2.97094e-10
1.00744e-08
2.69501e-10
9.8286e-09
2.45799e-10
9.60333e-09
2.25263e-10
9.39601e-09
2.07326e-10
9.20446e-09
1.91546e-10
9.02689e-09
1.77567e-10
8.86179e-09
1.65105e-10
8.70786e-09
1.53928e-10
8.56401e-09
1.43846e-10
8.42931e-09
1.34702e-10
8.30295e-09
1.26364e-10
8.18422e-09
1.18724e-10
8.07254e-09
1.11687e-10
7.96735e-09
1.05182e-10
7.86823e-09
9.91278e-11
7.77473e-09
9.34937e-11
7.68655e-09
8.8188e-11
7.60331e-09
8.32372e-11
7.52481e-09
7.84988e-11
7.45071e-09
7.41011e-11
7.38092e-09
6.97865e-11
7.31507e-09
6.58498e-11
7.25321e-09
6.1866e-11
7.19492e-09
5.8286e-11
7.14023e-09
5.46873e-11
7.08907e-09
5.11607e-11
7.04053e-09
4.85409e-11
6.99665e-09
4.388e-11
6.95186e-09
4.4791e-11
6.91768e-09
3.41782e-11
6.8673e-09
5.03791e-11
6.86696e-09
3.38328e-13
6.6483e-09
2.18662e-10
-2.97495e-09
9.62325e-09
1.26025e-07
1.27458e-07
9.12625e-08
6.74044e-08
7.19424e-08
2.8211e-08
6.12177e-08
1.42183e-08
5.47751e-08
8.39323e-09
5.0286e-08
5.91503e-09
4.68077e-08
4.60941e-09
4.39985e-08
3.72087e-09
4.16792e-08
3.06921e-09
3.9725e-08
2.58547e-09
3.80487e-08
2.21777e-09
3.65902e-08
1.92958e-09
3.53067e-08
1.69794e-09
3.41666e-08
1.50823e-09
3.31456e-08
1.35055e-09
3.22248e-08
1.21785e-09
3.13894e-08
1.10494e-09
3.06272e-08
1.00795e-09
2.99286e-08
9.23887e-10
2.92855e-08
8.50456e-10
2.86912e-08
7.85836e-10
2.81402e-08
7.28582e-10
2.76277e-08
6.77526e-10
2.715e-08
6.31719e-10
2.67034e-08
5.90385e-10
2.62852e-08
5.52877e-10
2.58929e-08
5.18661e-10
2.55244e-08
4.8729e-10
2.51777e-08
4.58378e-10
2.48512e-08
4.31621e-10
2.45437e-08
4.06714e-10
2.42537e-08
3.83476e-10
2.39803e-08
3.6161e-10
2.37224e-08
3.41099e-10
2.34794e-08
3.21518e-10
2.32503e-08
3.03168e-10
2.30349e-08
2.85232e-10
2.2832e-08
2.6867e-10
2.26421e-08
2.51782e-10
2.24636e-08
2.36809e-10
2.22979e-08
2.20414e-10
2.21422e-08
2.06871e-10
2.19999e-08
1.90795e-10
2.1866e-08
1.77769e-10
2.17466e-08
1.64184e-10
2.16358e-08
1.44998e-10
2.15311e-08
1.55045e-10
2.14865e-08
4.50078e-11
2.12621e-08
4.43036e-10
-3.52313e-09
2.18103e-08
1.58807e-07
1.35055e-07
1.36493e-07
8.97176e-08
1.17493e-07
4.72112e-08
1.03319e-07
2.83929e-08
9.33169e-08
1.83949e-08
8.60221e-08
1.32098e-08
8.03251e-08
1.03065e-08
7.56842e-08
8.36173e-09
7.18173e-08
6.93612e-09
6.85374e-08
5.8654e-09
6.57112e-08
5.04399e-09
6.32437e-08
4.39702e-09
6.10663e-08
3.87535e-09
5.91275e-08
3.447e-09
5.73879e-08
3.09016e-09
5.58165e-08
2.78925e-09
5.43887e-08
2.53282e-09
5.30844e-08
2.3122e-09
5.18875e-08
2.12077e-09
5.07846e-08
1.95338e-09
4.97645e-08
1.80594e-09
4.88179e-08
1.6752e-09
4.79369e-08
1.55854e-09
4.71148e-08
1.45381e-09
4.63459e-08
1.35926e-09
4.56254e-08
1.27342e-09
4.49489e-08
1.19508e-09
4.4313e-08
1.12322e-09
4.37144e-08
1.05697e-09
4.31504e-08
9.95629e-10
4.26186e-08
9.38525e-10
4.21169e-08
8.85194e-10
4.16434e-08
8.35033e-10
4.11967e-08
7.87883e-10
4.07752e-08
7.42941e-10
4.03778e-08
7.00647e-10
4.00036e-08
6.59424e-10
3.96511e-08
6.21127e-10
3.93208e-08
5.82086e-10
3.90101e-08
5.4751e-10
3.87218e-08
5.08724e-10
3.84503e-08
4.78412e-10
3.82038e-08
4.37257e-10
3.79691e-08
4.12462e-10
3.77664e-08
3.66869e-10
3.75681e-08
3.43353e-10
3.74068e-08
3.1633e-10
3.72834e-08
1.68384e-10
3.71478e-08
5.78667e-10
-3.13419e-09
3.67588e-08
1.75663e-07
1.30907e-07
1.65593e-07
9.97876e-08
1.52723e-07
6.0082e-08
1.40126e-07
4.09892e-08
1.29443e-07
2.90788e-08
1.20808e-07
2.18448e-08
1.13706e-07
1.74078e-08
1.07738e-07
1.43296e-08
1.02653e-07
1.20219e-08
9.82666e-08
1.02513e-08
9.44407e-08
8.86989e-09
9.1069e-08
7.76869e-09
8.80714e-08
6.87294e-09
8.53861e-08
6.13229e-09
8.29645e-08
5.51175e-09
8.07678e-08
4.98598e-09
7.87645e-08
4.53609e-09
7.6929e-08
4.14771e-09
7.524e-08
3.80974e-09
7.36799e-08
3.51347e-09
7.22339e-08
3.25196e-09
7.08895e-08
3.01965e-09
6.9636e-08
2.81203e-09
6.84644e-08
2.62539e-09
6.7367e-08
2.45669e-09
6.6337e-08
2.30337e-09
6.53688e-08
2.16333e-09
6.44572e-08
2.03477e-09
6.3598e-08
1.91619e-09
6.27873e-08
1.8063e-09
6.20219e-08
1.70398e-09
6.12987e-08
1.60835e-09
6.06153e-08
1.51841e-09
5.99695e-08
1.43377e-09
5.93592e-08
1.35318e-09
5.87827e-08
1.27715e-09
5.82389e-08
1.20322e-09
5.77258e-08
1.13424e-09
5.72437e-08
1.06417e-09
5.67894e-08
1.00179e-09
5.63663e-08
9.31811e-10
5.59673e-08
8.77409e-10
5.5603e-08
8.01617e-10
5.52563e-08
7.59118e-10
5.49533e-08
6.69933e-10
5.46587e-08
6.3796e-10
5.44177e-08
5.5729e-10
5.42053e-08
3.80826e-10
5.40726e-08
7.1134e-10
-2.52288e-09
5.34613e-08
1.8456e-07
1.23133e-07
1.82319e-07
1.02028e-07
1.76101e-07
6.63008e-08
1.67759e-07
4.93309e-08
1.5914e-07
3.76979e-08
1.51238e-07
2.97471e-08
1.44175e-07
2.44705e-08
1.37888e-07
2.06164e-08
1.32303e-07
1.76068e-08
1.27336e-07
1.52186e-08
1.229e-07
1.33054e-08
1.1892e-07
1.17491e-08
1.1533e-07
1.04632e-08
1.12076e-07
9.38649e-09
1.09112e-07
8.475e-09
1.06402e-07
7.69601e-09
1.03914e-07
7.02458e-09
1.0162e-07
6.44136e-09
9.94987e-08
5.93114e-09
9.75304e-08
5.48181e-09
9.56987e-08
5.08365e-09
9.39896e-08
4.72874e-09
9.2391e-08
4.41061e-09
9.08925e-08
4.1239e-09
8.9485e-08
3.86415e-09
8.81608e-08
3.62764e-09
8.69129e-08
3.41123e-09
8.57354e-08
3.21227e-09
8.4623e-08
3.02852e-09
8.35713e-08
2.85804e-09
8.25761e-08
2.69915e-09
8.1634e-08
2.5505e-09
8.07417e-08
2.41066e-09
7.98966e-08
2.27889e-09
7.90963e-08
2.15348e-09
7.83385e-08
2.03494e-09
7.76218e-08
1.9199e-09
7.69439e-08
1.81214e-09
7.63049e-08
1.70323e-09
7.57012e-08
1.60543e-09
7.51362e-08
1.49689e-09
7.46025e-08
1.41102e-09
7.41104e-08
1.29374e-09
7.36439e-08
1.22561e-09
7.32263e-08
1.08758e-09
7.28284e-08
1.03587e-09
7.24857e-08
9.00006e-10
7.2183e-08
6.83534e-10
7.19686e-08
9.25679e-10
-1.85687e-09
7.13026e-08
1.90388e-07
1.14961e-07
1.9185e-07
1.00565e-07
1.90241e-07
6.791e-08
1.8615e-07
5.34216e-08
1.80713e-07
4.31348e-08
1.74963e-07
3.54971e-08
1.69274e-07
3.01596e-08
1.63801e-07
2.60894e-08
1.5864e-07
2.27677e-08
1.53833e-07
2.00255e-08
1.49383e-07
1.77555e-08
1.45273e-07
1.58592e-08
1.41479e-07
1.42577e-08
1.37973e-07
1.28921e-08
1.3473e-07
1.17183e-08
1.31724e-07
1.07021e-08
1.28932e-07
9.81647e-09
1.26333e-07
9.03992e-09
1.23909e-07
8.355e-09
1.21644e-07
7.74752e-09
1.19522e-07
7.20588e-09
1.1753e-07
6.72045e-09
1.15657e-07
6.28325e-09
1.13893e-07
5.88758e-09
1.1223e-07
5.52781e-09
1.10658e-07
5.19915e-09
1.09172e-07
4.89757e-09
1.07765e-07
4.6196e-09
1.06431e-07
4.36229e-09
1.05166e-07
4.12309e-09
1.03965e-07
3.89978e-09
1.02825e-07
3.6905e-09
1.01742e-07
3.49339e-09
1.00714e-07
3.30738e-09
9.97372e-08
3.13027e-09
9.88096e-08
2.96253e-09
9.79295e-08
2.79997e-09
9.70946e-08
2.64705e-09
9.63045e-08
2.49333e-09
9.55561e-08
2.35387e-09
9.48515e-08
2.20143e-09
9.41851e-08
2.07744e-09
9.35642e-08
1.91469e-09
9.29775e-08
1.81232e-09
9.24398e-08
1.62526e-09
9.19365e-08
1.53914e-09
9.1481e-08
1.35551e-09
9.10837e-08
1.08087e-09
9.07608e-08
1.24854e-09
-1.12618e-09
9.00301e-08
1.9554e-07
1.07236e-07
1.98246e-07
9.78598e-08
1.98965e-07
6.71904e-08
1.97784e-07
5.46035e-08
1.95151e-07
4.57672e-08
1.91811e-07
3.88373e-08
1.88084e-07
3.38871e-08
1.84141e-07
3.00323e-08
1.80132e-07
2.67768e-08
1.76167e-07
2.39905e-08
1.72314e-07
2.16085e-08
1.68611e-07
1.95616e-08
1.65079e-07
1.77895e-08
1.61726e-07
1.62454e-08
1.58551e-07
1.48929e-08
1.55551e-07
1.37027e-08
1.52717e-07
1.26505e-08
1.50041e-07
1.17162e-08
1.47512e-07
1.08831e-08
1.45123e-07
1.0137e-08
1.42863e-07
9.46602e-09
1.40723e-07
8.86009e-09
1.38696e-07
8.31067e-09
1.36773e-07
7.81044e-09
1.34948e-07
7.35316e-09
1.33213e-07
6.93343e-09
1.31564e-07
6.54664e-09
1.29995e-07
6.18876e-09
1.28501e-07
5.85634e-09
1.27078e-07
5.54635e-09
1.25721e-07
5.25615e-09
1.24428e-07
4.9835e-09
1.23196e-07
4.72615e-09
1.2202e-07
4.48274e-09
1.209e-07
4.25068e-09
1.19832e-07
4.03034e-09
1.18815e-07
3.81689e-09
1.17847e-07
3.61522e-09
1.16927e-07
3.41342e-09
1.16052e-07
3.22838e-09
1.15224e-07
3.02925e-09
1.1444e-07
2.86232e-09
1.13701e-07
2.65288e-09
1.13005e-07
2.5089e-09
1.12354e-07
2.27562e-09
1.11751e-07
2.14213e-09
1.11188e-07
1.91915e-09
1.10692e-07
1.57648e-09
1.10265e-07
1.67612e-09
-3.2265e-10
1.09461e-07
2.00848e-07
9.99728e-08
2.03774e-07
9.49332e-08
2.05324e-07
6.56409e-08
2.05638e-07
5.42897e-08
2.0481e-07
4.65951e-08
2.03328e-07
4.03187e-08
2.01382e-07
3.58331e-08
1.99056e-07
3.23581e-08
1.96457e-07
2.93763e-08
1.93686e-07
2.6761e-08
1.90826e-07
2.44692e-08
1.87935e-07
2.24522e-08
1.85059e-07
2.06658e-08
1.82228e-07
1.90756e-08
1.79466e-07
1.76553e-08
1.76786e-07
1.63831e-08
1.74196e-07
1.52403e-08
1.71701e-07
1.42108e-08
1.69304e-07
1.32808e-08
1.67002e-07
1.24381e-08
1.64796e-07
1.16723e-08
1.62682e-07
1.09742e-08
1.60657e-07
1.03357e-08
1.58718e-07
9.74984e-09
1.5686e-07
9.21057e-09
1.55081e-07
8.71244e-09
1.53377e-07
8.25078e-09
1.51745e-07
7.8214e-09
1.5018e-07
7.42068e-09
1.48681e-07
7.0454e-09
1.47245e-07
6.6927e-09
1.45868e-07
6.36011e-09
1.44549e-07
6.04521e-09
1.43285e-07
5.7464e-09
1.42075e-07
5.46088e-09
1.40917e-07
5.18889e-09
1.39808e-07
4.92522e-09
1.38748e-07
4.67492e-09
1.37737e-07
4.42527e-09
1.36771e-07
4.19393e-09
1.35852e-07
3.94845e-09
1.34978e-07
3.73663e-09
1.34148e-07
3.48195e-09
1.33365e-07
3.29205e-09
1.32624e-07
3.01685e-09
1.31938e-07
2.82825e-09
1.31285e-07
2.57183e-09
1.30699e-07
2.16276e-09
1.30181e-07
2.19408e-09
5.37754e-10
1.29321e-07
2.06447e-07
9.30583e-08
2.09338e-07
9.20418e-08
2.11034e-07
6.39452e-08
2.11926e-07
5.33978e-08
2.11993e-07
4.65279e-08
2.11605e-07
4.07062e-08
2.10876e-07
3.65626e-08
2.09807e-07
3.34265e-08
2.08438e-07
3.07458e-08
2.06826e-07
2.8373e-08
2.05027e-07
2.62677e-08
2.03092e-07
2.4388e-08
2.01061e-07
2.26962e-08
1.98972e-07
2.1165e-08
1.96853e-07
1.97745e-08
1.94727e-07
1.85088e-08
1.92613e-07
1.73544e-08
1.90524e-07
1.62996e-08
1.88471e-07
1.5334e-08
1.86461e-07
1.44483e-08
1.84499e-07
1.36341e-08
1.82589e-07
1.2884e-08
1.80733e-07
1.21914e-08
1.78933e-07
1.15501e-08
1.77188e-07
1.0955e-08
1.755e-07
1.04012e-08
1.73866e-07
9.88428e-09
1.72287e-07
9.40047e-09
1.70761e-07
8.94632e-09
1.69288e-07
8.51868e-09
1.67866e-07
8.11478e-09
1.66494e-07
7.73213e-09
1.65171e-07
7.36829e-09
1.63896e-07
7.02164e-09
1.62667e-07
6.68928e-09
1.61485e-07
6.37141e-09
1.60347e-07
6.06266e-09
1.59254e-07
5.7681e-09
1.58205e-07
5.47473e-09
1.57198e-07
5.20019e-09
1.56235e-07
4.91206e-09
1.55314e-07
4.65702e-09
1.54435e-07
4.36126e-09
1.53602e-07
4.12513e-09
1.52805e-07
3.81349e-09
1.52065e-07
3.56824e-09
1.51355e-07
3.2824e-09
1.50701e-07
2.81705e-09
1.50115e-07
2.77946e-09
1.42613e-09
1.49227e-07
2.12288e-07
8.64323e-08
2.15151e-07
8.91795e-08
2.16788e-07
6.23081e-08
2.17838e-07
5.23477e-08
2.18251e-07
4.61146e-08
2.18366e-07
4.05916e-08
2.18289e-07
3.66393e-08
2.1799e-07
3.37254e-08
2.17462e-07
3.1274e-08
2.16723e-07
2.91118e-08
2.15798e-07
2.71925e-08
2.14713e-07
2.54736e-08
2.13492e-07
2.39167e-08
2.12162e-07
2.2495e-08
2.10747e-07
2.11902e-08
2.09266e-07
1.99891e-08
2.0774e-07
1.88808e-08
2.06183e-07
1.78563e-08
2.0461e-07
1.69077e-08
2.0303e-07
1.60278e-08
2.01454e-07
1.52103e-08
1.99889e-07
1.44494e-08
1.9834e-07
1.374e-08
1.96813e-07
1.30772e-08
1.95311e-07
1.24568e-08
1.93838e-07
1.18747e-08
1.92395e-07
1.13274e-08
1.90983e-07
1.08116e-08
1.89606e-07
1.03241e-08
1.88262e-07
9.86225e-09
1.86953e-07
9.42352e-09
1.8568e-07
9.00562e-09
1.84442e-07
8.60625e-09
1.8324e-07
8.22388e-09
1.82073e-07
7.85571e-09
1.80943e-07
7.50197e-09
1.79848e-07
7.15732e-09
1.78789e-07
6.82675e-09
1.77767e-07
6.49746e-09
1.7678e-07
6.18647e-09
1.7583e-07
5.86265e-09
1.74917e-07
5.56965e-09
1.74039e-07
5.2396e-09
1.73203e-07
4.96097e-09
1.72397e-07
4.61971e-09
1.71643e-07
4.3219e-09
1.70915e-07
4.01044e-09
1.70228e-07
3.50389e-09
1.69608e-07
3.3998e-09
2.30703e-09
1.68727e-07
2.18329e-07
8.00836e-08
2.21204e-07
8.63048e-08
2.2276e-07
6.07519e-08
2.23837e-07
5.1271e-08
2.2436e-07
4.55919e-08
2.24652e-07
4.02994e-08
2.24851e-07
3.64402e-08
2.2493e-07
3.36468e-08
2.24866e-07
3.13378e-08
2.2466e-07
2.93176e-08
2.24317e-07
2.75357e-08
2.23843e-07
2.59476e-08
2.23247e-07
2.45124e-08
2.22541e-07
2.32007e-08
2.21738e-07
2.19933e-08
2.20851e-07
2.08763e-08
2.19892e-07
1.98394e-08
2.18875e-07
1.88741e-08
2.17809e-07
1.79733e-08
2.16706e-07
1.71311e-08
2.15574e-07
1.63421e-08
2.14421e-07
1.56017e-08
2.13256e-07
1.49056e-08
2.12083e-07
1.425e-08
2.10908e-07
1.36315e-08
2.09736e-07
1.30469e-08
2.0857e-07
1.24931e-08
2.07415e-07
1.19675e-08
2.06271e-07
1.14675e-08
2.05143e-07
1.09908e-08
2.04031e-07
1.05353e-08
2.02938e-07
1.00988e-08
2.01864e-07
9.67945e-09
2.00812e-07
9.27584e-09
1.99783e-07
8.8853e-09
1.98777e-07
8.50821e-09
1.97795e-07
8.13936e-09
1.96838e-07
7.78365e-09
1.95906e-07
7.42876e-09
1.95002e-07
7.09074e-09
1.94124e-07
6.74059e-09
1.93276e-07
6.4177e-09
1.92454e-07
6.0622e-09
1.91666e-07
5.74813e-09
1.90901e-07
5.38526e-09
1.90179e-07
5.04339e-09
1.89479e-07
4.71088e-09
1.88802e-07
4.18037e-09
1.88186e-07
4.01613e-09
3.14171e-09
1.87351e-07
2.24558e-07
7.40186e-08
2.27468e-07
8.33946e-08
2.28957e-07
5.92633e-08
2.30039e-07
5.0189e-08
2.30603e-07
4.5028e-08
2.30944e-07
3.99586e-08
2.31232e-07
3.61518e-08
2.31458e-07
3.34205e-08
2.31603e-07
3.11935e-08
2.31663e-07
2.92572e-08
2.31639e-07
2.75595e-08
2.31529e-07
2.60573e-08
2.31334e-07
2.47082e-08
2.31054e-07
2.34805e-08
2.30694e-07
2.23533e-08
2.30259e-07
2.13114e-08
2.29755e-07
2.03435e-08
2.29188e-07
1.94407e-08
2.28566e-07
1.85956e-08
2.27895e-07
1.78024e-08
2.27181e-07
1.70558e-08
2.26431e-07
1.63516e-08
2.25651e-07
1.56858e-08
2.24846e-07
1.5055e-08
2.24021e-07
1.44563e-08
2.23181e-07
1.3887e-08
2.2233e-07
1.33445e-08
2.21471e-07
1.28264e-08
2.20607e-07
1.23308e-08
2.19742e-07
1.18556e-08
2.18879e-07
1.13989e-08
2.18019e-07
1.09589e-08
2.17164e-07
1.0534e-08
2.16317e-07
1.01229e-08
2.15479e-07
9.72315e-09
2.14652e-07
9.33526e-09
2.13837e-07
8.95423e-09
2.13036e-07
8.58481e-09
2.1225e-07
8.21537e-09
2.1148e-07
7.86068e-09
2.10726e-07
7.49452e-09
2.09992e-07
7.15117e-09
2.09275e-07
6.77997e-09
2.08583e-07
6.43951e-09
2.07905e-07
6.06354e-09
2.07259e-07
5.68884e-09
2.0663e-07
5.34073e-09
2.06007e-07
4.80337e-09
2.05434e-07
4.58878e-09
3.89307e-09
2.04683e-07
2.30979e-07
6.82456e-08
2.33933e-07
8.04407e-08
2.35362e-07
5.78341e-08
2.3645e-07
4.9101e-08
2.37048e-07
4.44305e-08
2.37404e-07
3.96025e-08
2.37714e-07
3.58419e-08
2.37986e-07
3.31484e-08
2.38205e-07
3.09738e-08
2.38374e-07
2.9088e-08
2.38495e-07
2.74385e-08
2.38567e-07
2.59863e-08
2.38585e-07
2.46894e-08
2.3855e-07
2.35156e-08
2.38461e-07
2.24427e-08
2.38318e-07
2.14546e-08
2.38122e-07
2.05391e-08
2.37876e-07
1.96867e-08
2.37582e-07
1.88894e-08
2.37244e-07
1.81408e-08
2.36864e-07
1.74355e-08
2.36447e-07
1.67689e-08
2.35996e-07
1.61371e-08
2.35514e-07
1.55367e-08
2.35005e-07
1.49649e-08
2.34473e-07
1.4419e-08
2.33921e-07
1.38967e-08
2.33352e-07
1.33959e-08
2.32768e-07
1.29147e-08
2.32172e-07
1.24512e-08
2.31567e-07
1.20038e-08
2.30955e-07
1.1571e-08
2.30338e-07
1.1151e-08
2.29718e-07
1.07429e-08
2.29097e-07
1.03444e-08
2.28476e-07
9.95593e-09
2.27858e-07
9.57282e-09
2.27243e-07
9.19955e-09
2.26633e-07
8.82536e-09
2.2603e-07
8.46345e-09
2.25434e-07
8.0908e-09
2.24849e-07
7.73611e-09
2.24271e-07
7.35833e-09
2.23709e-07
7.00095e-09
2.23153e-07
6.61978e-09
2.22618e-07
6.22432e-09
2.22092e-07
5.86637e-09
2.21558e-07
5.33724e-09
2.21063e-07
5.08422e-09
4.53147e-09
2.20424e-07
2.376e-07
6.27704e-08
2.406e-07
7.74405e-08
2.41972e-07
5.6462e-08
2.43065e-07
4.80082e-08
2.437e-07
4.37961e-08
2.44069e-07
3.9233e-08
2.44384e-07
3.55267e-08
2.44669e-07
3.28639e-08
2.44911e-07
3.07314e-08
2.45117e-07
2.88823e-08
2.45292e-07
2.72634e-08
2.45438e-07
2.58405e-08
2.45553e-07
2.45741e-08
2.45637e-07
2.34319e-08
2.45688e-07
2.23917e-08
2.45705e-07
2.14371e-08
2.45689e-07
2.05557e-08
2.45638e-07
1.97373e-08
2.45554e-07
1.89737e-08
2.45436e-07
1.82582e-08
2.45287e-07
1.75848e-08
2.45107e-07
1.69488e-08
2.44898e-07
1.6346e-08
2.44662e-07
1.57728e-08
2.44401e-07
1.52262e-08
2.44116e-07
1.47036e-08
2.4381e-07
1.42026e-08
2.43485e-07
1.37212e-08
2.43142e-07
1.32574e-08
2.42784e-07
1.28096e-08
2.42412e-07
1.23761e-08
2.42027e-07
1.19554e-08
2.41632e-07
1.15459e-08
2.41228e-07
1.11468e-08
2.40817e-07
1.07557e-08
2.404e-07
1.03732e-08
2.39978e-07
9.99472e-09
2.39553e-07
9.62443e-09
2.39126e-07
9.25254e-09
2.38699e-07
8.89048e-09
2.38271e-07
8.51863e-09
2.37847e-07
8.15998e-09
2.37422e-07
7.78286e-09
2.37007e-07
7.41689e-09
2.36589e-07
7.03684e-09
2.36182e-07
6.63168e-09
2.35779e-07
6.26923e-09
2.35357e-07
5.7599e-09
2.3496e-07
5.48075e-09
5.03968e-09
2.34452e-07
2.4443e-07
5.75966e-08
2.4747e-07
7.44006e-08
2.48793e-07
5.51389e-08
2.49886e-07
4.69151e-08
2.50559e-07
4.31229e-08
2.50946e-07
3.88465e-08
2.51265e-07
3.52071e-08
2.51555e-07
3.25741e-08
2.51805e-07
3.04814e-08
2.52022e-07
2.86658e-08
2.52214e-07
2.70713e-08
2.52385e-07
2.5669e-08
2.52537e-07
2.44223e-08
2.52669e-07
2.32996e-08
2.52782e-07
2.22789e-08
2.52875e-07
2.13442e-08
2.52948e-07
2.04831e-08
2.52999e-07
1.96854e-08
2.5303e-07
1.89429e-08
2.5304e-07
1.82485e-08
2.53028e-07
1.75964e-08
2.52996e-07
1.69813e-08
2.52943e-07
1.6399e-08
2.5287e-07
1.58458e-08
2.52777e-07
1.53184e-08
2.52667e-07
1.48142e-08
2.52539e-07
1.43307e-08
2.52394e-07
1.38658e-08
2.52234e-07
1.34176e-08
2.52059e-07
1.29844e-08
2.51871e-07
1.25644e-08
2.5167e-07
1.21564e-08
2.51457e-07
1.17585e-08
2.51234e-07
1.13699e-08
2.51001e-07
1.09884e-08
2.5076e-07
1.06144e-08
2.50511e-07
1.02436e-08
2.50256e-07
9.8797e-09
2.49995e-07
9.51393e-09
2.49729e-07
9.15581e-09
2.49459e-07
8.78914e-09
2.49187e-07
8.43143e-09
2.48911e-07
8.05956e-09
2.48636e-07
7.69129e-09
2.48357e-07
7.31642e-09
2.48078e-07
6.91037e-09
2.478e-07
6.54766e-09
2.47494e-07
6.06552e-09
2.47203e-07
5.77131e-09
5.41515e-09
2.46828e-07
2.51477e-07
5.27261e-08
2.54547e-07
7.13307e-08
2.55832e-07
5.38545e-08
2.56919e-07
4.58274e-08
2.5763e-07
4.24121e-08
2.58037e-07
3.844e-08
2.58362e-07
3.48817e-08
2.58657e-07
3.2279e-08
2.58912e-07
3.02263e-08
2.59133e-07
2.84448e-08
2.59331e-07
2.68739e-08
2.5951e-07
2.54897e-08
2.59674e-07
2.42586e-08
2.59823e-07
2.31503e-08
2.59959e-07
2.2143e-08
2.60082e-07
2.1221e-08
2.60193e-07
2.03724e-08
2.60291e-07
1.95872e-08
2.60377e-07
1.88573e-08
2.6045e-07
1.81756e-08
2.6051e-07
1.75362e-08
2.60557e-07
1.6934e-08
2.60592e-07
1.63645e-08
2.60613e-07
1.5824e-08
2.60623e-07
1.53092e-08
2.6062e-07
1.48172e-08
2.60604e-07
1.43458e-08
2.60578e-07
1.38926e-08
2.6054e-07
1.34558e-08
2.6049e-07
1.30335e-08
2.60431e-07
1.26241e-08
2.60361e-07
1.22262e-08
2.60281e-07
1.1838e-08
2.60193e-07
1.14588e-08
2.60095e-07
1.1086e-08
2.59989e-07
1.07202e-08
2.59875e-07
1.03573e-08
2.59755e-07
1.00003e-08
2.59627e-07
9.64163e-09
2.59494e-07
9.28888e-09
2.59354e-07
8.92908e-09
2.59211e-07
8.57473e-09
2.5906e-07
8.2101e-09
2.58908e-07
7.84349e-09
2.58749e-07
7.47565e-09
2.58585e-07
7.07474e-09
2.58418e-07
6.7146e-09
2.5822e-07
6.26292e-09
2.58029e-07
5.96251e-09
5.66882e-09
2.57775e-07
2.5875e-07
4.81588e-08
2.6184e-07
6.82405e-08
2.63097e-07
5.25982e-08
2.64174e-07
4.47501e-08
2.6492e-07
4.16663e-08
2.65348e-07
3.80114e-08
2.6568e-07
3.45496e-08
2.65981e-07
3.19784e-08
2.66242e-07
2.99656e-08
2.66467e-07
2.82199e-08
2.66667e-07
2.66735e-08
2.66849e-07
2.53072e-08
2.67017e-07
2.40911e-08
2.67172e-07
2.29956e-08
2.67315e-07
2.19994e-08
2.67449e-07
2.10874e-08
2.67574e-07
2.02477e-08
2.6769e-07
1.9471e-08
2.67798e-07
1.87491e-08
2.67899e-07
1.80752e-08
2.67991e-07
1.74435e-08
2.68076e-07
1.68489e-08
2.68154e-07
1.62869e-08
2.68224e-07
1.57538e-08
2.68287e-07
1.52463e-08
2.68343e-07
1.47616e-08
2.68391e-07
1.42973e-08
2.68432e-07
1.38513e-08
2.68467e-07
1.34215e-08
2.68494e-07
1.30062e-08
2.68514e-07
1.26038e-08
2.68528e-07
1.22127e-08
2.68535e-07
1.18313e-08
2.68535e-07
1.14587e-08
2.68528e-07
1.10924e-08
2.68515e-07
1.07329e-08
2.68496e-07
1.03764e-08
2.68471e-07
1.00252e-08
2.6844e-07
9.67286e-09
2.68404e-07
9.32508e-09
2.68361e-07
8.97192e-09
2.68314e-07
8.6215e-09
2.6826e-07
8.26417e-09
2.68203e-07
7.9012e-09
2.68138e-07
7.5405e-09
2.68064e-07
7.14814e-09
2.67987e-07
6.79215e-09
2.67879e-07
6.37084e-09
2.67771e-07
6.07053e-09
5.82091e-09
2.67619e-07
2.66258e-07
4.38932e-08
2.69358e-07
6.51408e-08
2.70596e-07
5.13595e-08
2.71659e-07
4.36876e-08
2.72436e-07
4.08888e-08
2.72889e-07
3.75591e-08
2.73228e-07
3.42099e-08
2.73535e-07
3.16722e-08
2.73801e-07
2.96991e-08
2.7403e-07
2.79906e-08
2.74234e-07
2.64701e-08
2.74418e-07
2.51225e-08
2.74588e-07
2.39214e-08
2.74745e-07
2.28386e-08
2.74891e-07
2.18532e-08
2.75028e-07
2.09502e-08
2.75158e-07
2.01184e-08
2.7528e-07
1.93485e-08
2.75397e-07
1.86328e-08
2.75507e-07
1.79645e-08
2.75613e-07
1.7338e-08
2.75714e-07
1.67482e-08
2.7581e-07
1.61907e-08
2.75902e-07
1.56619e-08
2.7599e-07
1.51585e-08
2.76073e-07
1.46777e-08
2.76153e-07
1.42173e-08
2.7623e-07
1.3775e-08
2.76302e-07
1.33491e-08
2.76371e-07
1.29376e-08
2.76435e-07
1.25391e-08
2.76496e-07
1.2152e-08
2.76553e-07
1.17745e-08
2.76606e-07
1.14059e-08
2.76654e-07
1.10439e-08
2.76699e-07
1.06884e-08
2.76739e-07
1.03363e-08
2.76775e-07
9.9891e-09
2.76806e-07
9.64153e-09
2.76834e-07
9.29753e-09
2.76856e-07
8.9498e-09
2.76874e-07
8.60291e-09
2.76887e-07
8.25183e-09
2.76895e-07
7.89315e-09
2.76897e-07
7.53875e-09
2.76888e-07
7.15636e-09
2.76875e-07
6.80525e-09
2.76834e-07
6.41192e-09
2.76789e-07
6.11564e-09
5.89546e-09
2.76715e-07
2.74009e-07
3.99257e-08
2.77107e-07
6.20425e-08
2.78338e-07
5.01282e-08
2.79382e-07
4.26435e-08
2.80188e-07
4.00837e-08
2.80665e-07
3.70815e-08
2.81013e-07
3.38615e-08
2.81325e-07
3.13605e-08
2.81598e-07
2.94265e-08
2.81832e-07
2.77566e-08
2.82038e-07
2.62636e-08
2.82226e-07
2.49353e-08
2.82397e-07
2.37498e-08
2.82556e-07
2.268e-08
2.82704e-07
2.17054e-08
2.82842e-07
2.08115e-08
2.82973e-07
1.99873e-08
2.83098e-07
1.92239e-08
2.83217e-07
1.85137e-08
2.83331e-07
1.78502e-08
2.83441e-07
1.72278e-08
2.83548e-07
1.66417e-08
2.83651e-07
1.60874e-08
2.83752e-07
1.55613e-08
2.8385e-07
1.50604e-08
2.83946e-07
1.45818e-08
2.8404e-07
1.41233e-08
2.84132e-07
1.36829e-08
2.84222e-07
1.32587e-08
2.84311e-07
1.28491e-08
2.84398e-07
1.24524e-08
2.84482e-07
1.20672e-08
2.84565e-07
1.16917e-08
2.84646e-07
1.13252e-08
2.84724e-07
1.09654e-08
2.848e-07
1.06123e-08
2.84874e-07
1.02628e-08
2.84945e-07
9.91802e-09
2.85013e-07
9.57367e-09
2.85078e-07
9.2322e-09
2.8514e-07
8.88849e-09
2.85198e-07
8.5444e-09
2.85252e-07
8.19822e-09
2.85301e-07
7.84381e-09
2.85345e-07
7.4946e-09
2.85379e-07
7.12235e-09
2.85408e-07
6.77639e-09
2.85412e-07
6.40749e-09
2.85411e-07
6.11735e-09
5.91536e-09
2.85391e-07
2.82012e-07
3.62511e-08
2.85098e-07
5.89571e-08
2.86331e-07
4.88947e-08
2.87354e-07
4.16204e-08
2.88182e-07
3.92556e-08
2.88686e-07
3.65773e-08
2.89044e-07
3.35034e-08
2.89362e-07
3.10433e-08
2.8964e-07
2.91476e-08
2.8988e-07
2.75174e-08
2.9009e-07
2.60535e-08
2.90279e-07
2.47456e-08
2.90453e-07
2.35761e-08
2.90613e-07
2.25197e-08
2.90763e-07
2.15563e-08
2.90903e-07
2.06716e-08
2.91035e-07
1.98551e-08
2.9116e-07
1.90981e-08
2.91281e-07
1.83934e-08
2.91396e-07
1.77345e-08
2.91508e-07
1.71161e-08
2.91617e-07
1.65331e-08
2.91723e-07
1.59815e-08
2.91826e-07
1.54576e-08
2.91928e-07
1.49583e-08
2.92029e-07
1.44811e-08
2.92129e-07
1.40237e-08
2.92227e-07
1.35842e-08
2.92325e-07
1.31608e-08
2.92423e-07
1.27519e-08
2.92519e-07
1.23558e-08
2.92615e-07
1.19713e-08
2.9271e-07
1.15967e-08
2.92804e-07
1.1231e-08
2.92897e-07
1.08723e-08
2.92989e-07
1.05202e-08
2.9308e-07
1.01722e-08
2.93169e-07
9.82876e-09
2.93256e-07
9.48647e-09
2.93342e-07
9.1466e-09
2.93425e-07
8.80575e-09
2.93505e-07
8.46386e-09
2.93582e-07
8.12138e-09
2.93655e-07
7.77104e-09
2.93723e-07
7.42605e-09
2.93782e-07
7.06348e-09
2.93836e-07
6.72284e-09
2.93869e-07
6.3745e-09
2.93895e-07
6.09134e-09
5.89926e-09
2.93911e-07
2.90278e-07
3.28623e-08
2.93338e-07
5.58963e-08
2.94583e-07
4.76502e-08
2.95583e-07
4.06203e-08
2.96429e-07
3.84099e-08
2.96961e-07
3.60456e-08
2.9733e-07
3.31341e-08
2.97653e-07
3.07207e-08
2.97938e-07
2.88626e-08
2.98182e-07
2.72729e-08
2.98396e-07
2.58396e-08
2.98589e-07
2.4553e-08
2.98765e-07
2.34e-08
2.98927e-07
2.23575e-08
2.99078e-07
2.14056e-08
2.99219e-07
2.05304e-08
2.99352e-07
1.97218e-08
2.99479e-07
1.89715e-08
2.996e-07
1.82723e-08
2.99716e-07
1.76181e-08
2.99829e-07
1.70034e-08
2.99939e-07
1.64236e-08
3.00046e-07
1.58745e-08
3.00151e-07
1.53525e-08
3.00254e-07
1.48547e-08
3.00357e-07
1.43786e-08
3.00459e-07
1.39219e-08
3.0056e-07
1.34829e-08
3.00661e-07
1.30597e-08
3.00762e-07
1.2651e-08
3.00863e-07
1.22551e-08
3.00963e-07
1.18707e-08
3.01064e-07
1.14963e-08
3.01164e-07
1.11308e-08
3.01264e-07
1.07725e-08
3.01363e-07
1.04209e-08
3.01462e-07
1.00736e-08
3.0156e-07
9.73083e-09
3.01656e-07
9.38987e-09
3.01752e-07
9.05105e-09
3.01845e-07
8.71226e-09
3.01937e-07
8.37221e-09
3.02026e-07
8.03258e-09
3.02111e-07
7.68611e-09
3.02192e-07
7.34476e-09
3.02264e-07
6.99116e-09
3.02331e-07
6.65603e-09
3.02381e-07
6.32463e-09
3.02424e-07
6.04846e-09
5.86048e-09
3.02463e-07
2.98815e-07
2.97503e-08
3.01839e-07
5.28723e-08
3.03102e-07
4.63866e-08
3.04079e-07
3.9644e-08
3.04936e-07
3.75519e-08
3.05496e-07
3.54859e-08
3.05878e-07
3.27521e-08
3.06206e-07
3.03925e-08
3.06498e-07
2.85713e-08
3.06748e-07
2.70225e-08
3.06966e-07
2.56216e-08
3.07162e-07
2.43573e-08
3.0734e-07
2.32214e-08
3.07505e-07
2.21932e-08
3.07657e-07
2.12531e-08
3.078e-07
2.03878e-08
3.07934e-07
1.95873e-08
3.08062e-07
1.88438e-08
3.08184e-07
1.81502e-08
3.08301e-07
1.75007e-08
3.08415e-07
1.689e-08
3.08525e-07
1.63134e-08
3.08632e-07
1.57667e-08
3.08738e-07
1.52467e-08
3.08843e-07
1.47503e-08
3.08946e-07
1.42751e-08
3.09049e-07
1.3819e-08
3.09152e-07
1.33803e-08
3.09254e-07
1.29572e-08
3.09357e-07
1.25484e-08
3.0946e-07
1.21524e-08
3.09562e-07
1.17679e-08
3.09665e-07
1.13934e-08
3.09768e-07
1.10279e-08
3.09871e-07
1.06697e-08
3.09974e-07
1.03181e-08
3.10076e-07
9.97128e-09
3.10178e-07
9.62888e-09
3.10279e-07
9.28885e-09
3.10379e-07
8.95085e-09
3.10478e-07
8.61366e-09
3.10575e-07
8.27531e-09
3.10669e-07
7.93804e-09
3.1076e-07
7.59533e-09
3.10847e-07
7.25734e-09
3.10927e-07
6.91198e-09
3.11e-07
6.58256e-09
3.1106e-07
6.26496e-09
3.11113e-07
5.99531e-09
5.80755e-09
3.11166e-07
3.07633e-07
2.69047e-08
3.10608e-07
4.9897e-08
3.11897e-07
4.50974e-08
3.1285e-07
3.86913e-08
3.13715e-07
3.66871e-08
3.14302e-07
3.48985e-08
3.14699e-07
3.23558e-08
3.15032e-07
3.00587e-08
3.1533e-07
2.82739e-08
3.15586e-07
2.67661e-08
3.15809e-07
2.5399e-08
3.16008e-07
2.41583e-08
3.16189e-07
2.30402e-08
3.16356e-07
2.20266e-08
3.1651e-07
2.10988e-08
3.16654e-07
2.02436e-08
3.1679e-07
1.94515e-08
3.16919e-07
1.87149e-08
3.17042e-07
1.80272e-08
3.1716e-07
1.73825e-08
3.17274e-07
1.67758e-08
3.17385e-07
1.62023e-08
3.17494e-07
1.56583e-08
3.17601e-07
1.51401e-08
3.17706e-07
1.46451e-08
3.1781e-07
1.41708e-08
3.17914e-07
1.37152e-08
3.18017e-07
1.32767e-08
3.18121e-07
1.28537e-08
3.18224e-07
1.24448e-08
3.18328e-07
1.20486e-08
3.18432e-07
1.16639e-08
3.18537e-07
1.12891e-08
3.18641e-07
1.09234e-08
3.18745e-07
1.05652e-08
3.1885e-07
1.02136e-08
3.18954e-07
9.86705e-09
3.19058e-07
9.52492e-09
3.19161e-07
9.18562e-09
3.19264e-07
8.84837e-09
3.19365e-07
8.51253e-09
3.19464e-07
8.17588e-09
3.19562e-07
7.84074e-09
3.19655e-07
7.50171e-09
3.19746e-07
7.16706e-09
3.19828e-07
6.82924e-09
3.19905e-07
6.50569e-09
3.19971e-07
6.19932e-09
3.20031e-07
5.93543e-09
5.74543e-09
3.20093e-07
3.16742e-07
2.43134e-08
3.19657e-07
4.69824e-08
3.20977e-07
4.37772e-08
3.21907e-07
3.77614e-08
3.22774e-07
3.58205e-08
3.23388e-07
3.42846e-08
3.238e-07
3.19436e-08
3.2414e-07
2.97186e-08
3.24443e-07
2.79705e-08
3.24706e-07
2.65034e-08
3.24934e-07
2.51715e-08
3.25136e-07
2.39557e-08
3.2532e-07
2.2856e-08
3.25489e-07
2.18575e-08
3.25646e-07
2.09423e-08
3.25792e-07
2.00976e-08
3.25929e-07
1.93141e-08
3.26059e-07
1.85847e-08
3.26184e-07
1.7903e-08
3.26303e-07
1.72633e-08
3.26418e-07
1.66606e-08
3.2653e-07
1.60904e-08
3.26639e-07
1.55489e-08
3.26747e-07
1.50327e-08
3.26853e-07
1.4539e-08
3.26958e-07
1.40656e-08
3.27063e-07
1.36106e-08
3.27167e-07
1.31723e-08
3.27271e-07
1.27493e-08
3.27376e-07
1.23403e-08
3.27481e-07
1.19438e-08
3.27586e-07
1.15588e-08
3.27691e-07
1.11838e-08
3.27797e-07
1.08179e-08
3.27902e-07
1.04595e-08
3.28008e-07
1.01079e-08
3.28114e-07
9.76153e-09
3.28219e-07
9.41965e-09
3.28324e-07
9.081e-09
3.28427e-07
8.74451e-09
3.2853e-07
8.40992e-09
3.28631e-07
8.07501e-09
3.2873e-07
7.74192e-09
3.28825e-07
7.40652e-09
3.28917e-07
7.07531e-09
3.29001e-07
6.74439e-09
3.2908e-07
6.42677e-09
3.2915e-07
6.12953e-09
3.29215e-07
5.87052e-09
5.67685e-09
3.29284e-07
3.26153e-07
2.19631e-08
3.28995e-07
4.41404e-08
3.3035e-07
4.24222e-08
3.31259e-07
3.68521e-08
3.32123e-07
3.4957e-08
3.32762e-07
3.36457e-08
3.33191e-07
3.15141e-08
3.33538e-07
2.93717e-08
3.33847e-07
2.76611e-08
3.34116e-07
2.62342e-08
3.34349e-07
2.49387e-08
3.34556e-07
2.37492e-08
3.34743e-07
2.26686e-08
3.34915e-07
2.16857e-08
3.35074e-07
2.07835e-08
3.35222e-07
1.99496e-08
3.35361e-07
1.91751e-08
3.35492e-07
1.8453e-08
3.35618e-07
1.77774e-08
3.35738e-07
1.71428e-08
3.35855e-07
1.65443e-08
3.35968e-07
1.59775e-08
3.36078e-07
1.54386e-08
3.36186e-07
1.49243e-08
3.36293e-07
1.4432e-08
3.36399e-07
1.39595e-08
3.36505e-07
1.3505e-08
3.3661e-07
1.30669e-08
3.36716e-07
1.26439e-08
3.36821e-07
1.22347e-08
3.36927e-07
1.1838e-08
3.37033e-07
1.14527e-08
3.3714e-07