/*--------------------------------*- C++ -*----------------------------------*\
  =========                 |
  \\      /  F ield         | OpenFOAM: The Open Source CFD Toolbox
   \\    /   O peration     | Website:  https://openfoam.org
    \\  /    A nd           | Version:  7
     \\/     M anipulation  |
\*---------------------------------------------------------------------------*/
FoamFile
{
    version     2.0;
    format      ascii;
    class       volVectorField;
    location    "0.08";
    object      U;
}
// * * * * * * * * * * * * * * * * * * * * * * * * * * * * * * * * * * * * * //

dimensions      [0 1 -1 0 0 0 0];

internalField   nonuniform List<vector> 
70000
(
(0.55339 0.0167231 0)
(0.251256 0.00340107 0)
(0.166194 0.000322046 0)
(0.132446 5.43145e-05 0)
(0.117257 4.57443e-05 0)
(0.107337 5.39102e-05 0)
(0.0993946 4.62705e-05 0)
(0.0929624 3.6926e-05 0)
(0.0877276 3.06072e-05 0)
(0.0833699 2.6276e-05 0)
(0.0796608 2.29735e-05 0)
(0.0764522 2.03269e-05 0)
(0.0736424 1.81671e-05 0)
(0.0711573 1.63812e-05 0)
(0.0689403 1.4886e-05 0)
(0.0669477 1.36196e-05 0)
(0.0651452 1.2536e-05 0)
(0.0635052 1.16003e-05 0)
(0.0620055 1.07859e-05 0)
(0.0606279 1.00715e-05 0)
(0.0593574 9.44075e-06 0)
(0.0581814 8.8802e-06 0)
(0.0570894 8.37914e-06 0)
(0.0560726 7.92874e-06 0)
(0.0551234 7.52172e-06 0)
(0.0542354 7.15209e-06 0)
(0.053403 6.81459e-06 0)
(0.0526214 6.5057e-06 0)
(0.0518866 6.22029e-06 0)
(0.0511949 5.95846e-06 0)
(0.0505433 5.71246e-06 0)
(0.0499288 5.48879e-06 0)
(0.0493493 5.27294e-06 0)
(0.0488023 5.08305e-06 0)
(0.0482864 4.89092e-06 0)
(0.0477994 4.73347e-06 0)
(0.0473401 4.5658e-06 0)
(0.0469079 4.43416e-06 0)
(0.0464988 4.31918e-06 0)
(0.0461186 4.16676e-06 0)
(0.0457511 4.23311e-06 0)
(0.0454264 3.85146e-06 0)
(0.0450832 4.57111e-06 0)
(0.0448335 3.1792e-06 0)
(0.0444687 6.15672e-06 0)
(0.0443599 1.01979e-06 0)
(0.0438436 1.17438e-05 0)
(0.0440595 -6.7134e-06 0)
(0.0431895 3.70887e-05 0)
(0.0409277 -0.00158251 0)
(0.884898 0.0431677 0)
(0.649708 0.0201944 0)
(0.494307 0.00659854 0)
(0.403653 0.00276758 0)
(0.354736 0.00155175 0)
(0.323448 0.00113113 0)
(0.29961 0.000909719 0)
(0.280439 0.000745621 0)
(0.264757 0.000622587 0)
(0.251672 0.000531666 0)
(0.240532 0.000462621 0)
(0.230895 0.000408279 0)
(0.222455 0.000364371 0)
(0.214988 0.000328239 0)
(0.208325 0.000298078 0)
(0.202334 0.000272588 0)
(0.196914 0.000250813 0)
(0.191981 0.000232029 0)
(0.187469 0.000215684 0)
(0.183323 0.000201347 0)
(0.179499 0.000188678 0)
(0.175959 0.000177403 0)
(0.172671 0.000167302 0)
(0.169609 0.000158196 0)
(0.166751 0.000149934 0)
(0.164076 0.000142394 0)
(0.161569 0.000135471 0)
(0.159215 0.000129079 0)
(0.157002 0.00012314 0)
(0.154919 0.000117598 0)
(0.152957 0.000112384 0)
(0.151108 0.000107474 0)
(0.149364 0.000102787 0)
(0.14772 9.83518e-05 0)
(0.146169 9.4033e-05 0)
(0.144708 8.99626e-05 0)
(0.143331 8.587e-05 0)
(0.142038 8.20951e-05 0)
(0.140818 7.81064e-05 0)
(0.139686 7.4574e-05 0)
(0.138601 7.06456e-05 0)
(0.137642 6.71935e-05 0)
(0.13665 6.36643e-05 0)
(0.13592 5.94724e-05 0)
(0.134909 5.83265e-05 0)
(0.134588 4.93137e-05 0)
(0.133254 6.19686e-05 0)
(0.1338 7.68318e-06 0)
(0.13171 0.000261106 0)
(0.130471 -0.00258869 0)
(0.991237 0.049902 0)
(0.890341 0.0307198 0)
(0.76267 0.0145983 0)
(0.656662 0.00797953 0)
(0.58535 0.00488399 0)
(0.535969 0.00346956 0)
(0.498135 0.00273342 0)
(0.467557 0.00224053 0)
(0.442291 0.00187683 0)
(0.421035 0.00160469 0)
(0.402845 0.00139676 0)
(0.38705 0.00123306 0)
(0.373175 0.00110088 0)
(0.360868 0.000992105 0)
(0.349863 0.000901276 0)
(0.339952 0.000824487 0)
(0.33097 0.000758863 0)
(0.322785 0.000702237 0)
(0.315289 0.000652948 0)
(0.308395 0.000609701 0)
(0.302029 0.000571474 0)
(0.296131 0.000537447 0)
(0.290649 0.000506956 0)
(0.285539 0.000479456 0)
(0.280766 0.0004545 0)
(0.276296 0.000431714 0)
(0.272103 0.000410784 0)
(0.268164 0.000391446 0)
(0.264459 0.000373471 0)
(0.260968 0.000356676 0)
(0.257678 0.000340875 0)
(0.254575 0.000325958 0)
(0.251647 0.00031173 0)
(0.248883 0.000298195 0)
(0.246276 0.000285047 0)
(0.243817 0.000272533 0)
(0.241498 0.000260001 0)
(0.239318 0.000248283 0)
(0.237261 0.000235854 0)
(0.235348 0.000224884 0)
(0.233521 0.000211905 0)
(0.231892 0.00020185 0)
(0.230234 0.000187565 0)
(0.22897 0.000178511 0)
(0.22733 0.000163158 0)
(0.226684 0.000151428 0)
(0.22466 0.000150494 0)
(0.225245 5.87695e-05 0)
(0.222198 0.000384893 0)
(0.223026 -0.00250702 0)
(1.0156 0.0489211 0)
(1.00595 0.0358766 0)
(0.935937 0.0207929 0)
(0.852106 0.0135043 0)
(0.782178 0.00920623 0)
(0.727005 0.00677812 0)
(0.681963 0.00537897 0)
(0.644257 0.00443855 0)
(0.6123 0.00374364 0)
(0.584903 0.0032167 0)
(0.561129 0.00280935 0)
(0.540269 0.00248648 0)
(0.521795 0.0022246 0)
(0.505301 0.00200835 0)
(0.490471 0.00182721 0)
(0.477053 0.00167367 0)
(0.464846 0.00154215 0)
(0.453686 0.00142846 0)
(0.443436 0.00132934 0)
(0.433985 0.00124225 0)
(0.425239 0.00116518 0)
(0.417119 0.00109652 0)
(0.409558 0.00103494 0)
(0.402499 0.000979371 0)
(0.395893 0.000928914 0)
(0.389699 0.000882821 0)
(0.383881 0.000840469 0)
(0.378406 0.000801325 0)
(0.373249 0.000764936 0)
(0.368385 0.000730922 0)
(0.363794 0.000698927 0)
(0.359457 0.000668697 0)
(0.35536 0.00063989 0)
(0.351486 0.000612433 0)
(0.347827 0.000585816 0)
(0.344369 0.000560381 0)
(0.341103 0.000535003 0)
(0.338026 0.000511117 0)
(0.335118 0.000485854 0)
(0.332405 0.000463487 0)
(0.329815 0.000436674 0)
(0.32748 0.000416603 0)
(0.325139 0.000385488 0)
(0.323272 0.000369636 0)
(0.321012 0.000330712 0)
(0.319887 0.000317716 0)
(0.317293 0.000285921 0)
(0.317544 0.000175338 0)
(0.313921 0.000458771 0)
(0.31536 -0.002063 0)
(1.01434 0.0460048 0)
(1.04753 0.0374907 0)
(1.02456 0.0241535 0)
(0.974736 0.0175593 0)
(0.923426 0.01312 0)
(0.876674 0.0102011 0)
(0.834548 0.00833497 0)
(0.796854 0.00701152 0)
(0.763359 0.00599947 0)
(0.733624 0.0052098 0)
(0.707137 0.00458571 0)
(0.683426 0.00408309 0)
(0.662089 0.00367062 0)
(0.642793 0.00332683 0)
(0.625261 0.00303668 0)
(0.609258 0.00278918 0)
(0.594592 0.00257607 0)
(0.581097 0.002391 0)
(0.568636 0.00222905 0)
(0.557091 0.0020863 0)
(0.546362 0.00195963 0)
(0.536363 0.0018465 0)
(0.527022 0.00174485 0)
(0.518274 0.00165297 0)
(0.510065 0.00156941 0)
(0.502348 0.001493 0)
(0.49508 0.00142272 0)
(0.488227 0.00135771 0)
(0.481756 0.00129724 0)
(0.47564 0.00124068 0)
(0.469856 0.00118746 0)
(0.46438 0.00113716 0)
(0.459195 0.00108923 0)
(0.454283 0.00104351 0)
(0.449632 0.000999247 0)
(0.445227 0.000956854 0)
(0.441058 0.00091469 0)
(0.437117 0.000874814 0)
(0.433387 0.000832877 0)
(0.429887 0.00079545 0)
(0.426551 0.000750867 0)
(0.423503 0.000717275 0)
(0.42049 0.000665016 0)
(0.417976 0.000638991 0)
(0.415129 0.000571711 0)
(0.413397 0.000553375 0)
(0.410352 0.000485327 0)
(0.409936 0.000355768 0)
(0.406158 0.000571936 0)
(0.406838 -0.00158776 0)
(1.00933 0.0429163 0)
(1.05527 0.0372664 0)
(1.05867 0.0252984 0)
(1.03635 0.0197594 0)
(1.00707 0.0158088 0)
(0.97603 0.0129296 0)
(0.944528 0.0109497 0)
(0.913703 0.00946416 0)
(0.884406 0.00827042 0)
(0.857022 0.00729934 0)
(0.831629 0.00650613 0)
(0.808164 0.00585079 0)
(0.786504 0.00530207 0)
(0.766504 0.00483728 0)
(0.748015 0.00443977 0)
(0.730896 0.00409692 0)
(0.715012 0.00379895 0)
(0.700244 0.00353814 0)
(0.686483 0.00330836 0)
(0.673633 0.00310465 0)
(0.661609 0.00292298 0)
(0.650334 0.00276003 0)
(0.639743 0.00261307 0)
(0.629776 0.00247979 0)
(0.620381 0.00235827 0)
(0.611512 0.00224686 0)
(0.603128 0.00214418 0)
(0.595194 0.00204903 0)
(0.587679 0.00196039 0)
(0.580552 0.00187737 0)
(0.573791 0.00179919 0)
(0.567372 0.0017252 0)
(0.561276 0.00165469 0)
(0.555485 0.00158734 0)
(0.549986 0.00152218 0)
(0.544761 0.00145965 0)
(0.539803 0.00139762 0)
(0.5351 0.00133868 0)
(0.530636 0.00127712 0)
(0.526427 0.00122156 0)
(0.522415 0.00115643 0)
(0.518703 0.00110598 0)
(0.515076 0.00103029 0)
(0.511927 0.000989588 0)
(0.508553 0.000893645 0)
(0.506166 0.000861417 0)
(0.502771 0.000761883 0)
(0.501519 0.000600682 0)
(0.497787 0.000762105 0)
(0.497283 -0.00108443 0)
(1.00625 0.040035 0)
(1.05206 0.0363393 0)
(1.06608 0.0252282 0)
(1.05958 0.0205597 0)
(1.04684 0.0172356 0)
(1.03076 0.0146487 0)
(1.01187 0.0128077 0)
(0.991215 0.0113779 0)
(0.969845 0.0101766 0)
(0.948498 0.00915618 0)
(0.927616 0.00829133 0)
(0.907463 0.00755431 0)
(0.888184 0.00692087 0)
(0.869846 0.00637236 0)
(0.852468 0.00589441 0)
(0.836033 0.00547559 0)
(0.820508 0.0051066 0)
(0.805848 0.00477984 0)
(0.792002 0.00448901 0)
(0.778921 0.00422889 0)
(0.766552 0.00399513 0)
(0.754848 0.00378404 0)
(0.743763 0.00359253 0)
(0.733255 0.00341795 0)
(0.723283 0.00325803 0)
(0.713813 0.00311084 0)
(0.704812 0.0029747 0)
(0.696249 0.00284814 0)
(0.688099 0.00272992 0)
(0.680337 0.00261893 0)
(0.672941 0.00251419 0)
(0.66589 0.00241486 0)
(0.659169 0.00232007 0)
(0.65276 0.00222937 0)
(0.646651 0.00214158 0)
(0.640827 0.00205713 0)
(0.635279 0.00197349 0)
(0.629996 0.00189364 0)
(0.624966 0.00181079 0)
(0.620197 0.00173504 0)
(0.615647 0.00164796 0)
(0.611391 0.001578 0)
(0.607265 0.00147844 0)
(0.603569 0.00141859 0)
(0.599767 0.00129645 0)
(0.596775 0.00124115 0)
(0.59311 0.0011179 0)
(0.591054 0.000915232 0)
(0.587364 0.00103024 0)
(0.58581 -0.000528598 0)
(1.00495 0.0373571 0)
(1.04727 0.0352576 0)
(1.06396 0.0246888 0)
(1.06423 0.0205867 0)
(1.06065 0.0177739 0)
(1.05471 0.0154914 0)
(1.04595 0.0138643 0)
(1.03477 0.0125983 0)
(1.02188 0.0115068 0)
(1.00789 0.0105483 0)
(0.993262 0.00970969 0)
(0.978341 0.00897387 0)
(0.963397 0.00832429 0)
(0.948623 0.00774802 0)
(0.934154 0.00723494 0)
(0.92008 0.00677669 0)
(0.906458 0.00636613 0)
(0.893321 0.00599711 0)
(0.880682 0.00566432 0)
(0.868546 0.00536319 0)
(0.856905 0.00508975 0)
(0.845748 0.00484055 0)
(0.83506 0.00461259 0)
(0.824824 0.00440325 0)
(0.81502 0.00421024 0)
(0.805631 0.00403154 0)
(0.796638 0.00386539 0)
(0.788022 0.00371021 0)
(0.779768 0.00356463 0)
(0.771858 0.00342742 0)
(0.764278 0.00329748 0)
(0.757014 0.00317388 0)
(0.750054 0.0030556 0)
(0.743384 0.0029421 0)
(0.736997 0.00283205 0)
(0.730879 0.00272586 0)
(0.725025 0.00262072 0)
(0.719426 0.0025198 0)
(0.714075 0.00241563 0)
(0.708972 0.00231915 0)
(0.704092 0.0022103 0)
(0.699484 0.0021195 0)
(0.695035 0.00199719 0)
(0.690957 0.00191506 0)
(0.686868 0.00177032 0)
(0.683417 0.00168558 0)
(0.679573 0.00154447 0)
(0.676883 0.00129938 0)
(0.673197 0.00136894 0)
(0.670866 7.62159e-05 0)
(1.0044 0.0348093 0)
(1.04323 0.0341848 0)
(1.05993 0.0240484 0)
(1.06227 0.0202935 0)
(1.06247 0.0178384 0)
(1.06176 0.0157729 0)
(1.05919 0.0143187 0)
(1.05464 0.0132173 0)
(1.04844 0.0122671 0)
(1.04089 0.0114197 0)
(1.03228 0.0106643 0)
(1.02287 0.0099881 0)
(1.01288 0.00937835 0)
(1.00252 0.00882588 0)
(0.991941 0.00832394 0)
(0.981279 0.00786707 0)
(0.970634 0.00745051 0)
(0.960087 0.00707004 0)
(0.949695 0.00672186 0)
(0.939504 0.00640255 0)
(0.929545 0.00610905 0)
(0.919838 0.00583858 0)
(0.910399 0.00558865 0)
(0.901236 0.00535702 0)
(0.892352 0.00514167 0)
(0.883748 0.00494075 0)
(0.875423 0.00475264 0)
(0.867373 0.00457583 0)
(0.859593 0.00440899 0)
(0.852079 0.0042509 0)
(0.844824 0.00410046 0)
(0.837823 0.00395668 0)
(0.83107 0.00381854 0)
(0.824559 0.00368543 0)
(0.818286 0.00355596 0)
(0.812244 0.00343052 0)
(0.806432 0.00330614 0)
(0.800841 0.00318606 0)
(0.795472 0.0030625 0)
(0.790322 0.00294661 0)
(0.785378 0.00281788 0)
(0.780672 0.00270677 0)
(0.77613 0.00256422 0)
(0.771894 0.00245888 0)
(0.76771 0.00229553 0)
(0.764012 0.00217905 0)
(0.760118 0.0020236 0)
(0.757029 0.00174209 0)
(0.753372 0.00176528 0)
(0.750547 0.000713964 0)
(1.00402 0.0323693 0)
(1.0399 0.0331351 0)
(1.05615 0.0234259 0)
(1.0589 0.0199061 0)
(1.06019 0.0177087 0)
(1.06153 0.0157777 0)
(1.0619 0.0144243 0)
(1.061 0.0134373 0)
(1.05895 0.0126025 0)
(1.05583 0.01186 0)
(1.05176 0.0111968 0)
(1.04685 0.0105994 0)
(1.04121 0.0100553 0)
(1.03498 0.00955594 0)
(1.02828 0.00909572 0)
(1.02122 0.00867059 0)
(1.01389 0.00827721 0)
(1.00637 0.00791273 0)
(0.998748 0.00757455 0)
(0.99107 0.00726032 0)
(0.983388 0.00696789 0)
(0.975742 0.00669524 0)
(0.968165 0.00644055 0)
(0.960682 0.00620207 0)
(0.953314 0.00597824 0)
(0.946077 0.00576757 0)
(0.938983 0.0055687 0)
(0.932041 0.00538033 0)
(0.925259 0.00520133 0)
(0.918642 0.00503057 0)
(0.912192 0.00486705 0)
(0.905913 0.00470985 0)
(0.899807 0.00455799 0)
(0.893873 0.00441088 0)
(0.888114 0.00426713 0)
(0.882528 0.00412711 0)
(0.877119 0.00398785 0)
(0.871882 0.00385255 0)
(0.866821 0.00371341 0)
(0.861937 0.00358136 0)
(0.857223 0.00343636 0)
(0.852702 0.00330738 0)
(0.848326 0.00314844 0)
(0.844193 0.00302137 0)
(0.840135 0.00284377 0)
(0.836439 0.00269709 0)
(0.832666 0.00252976 0)
(0.829437 0.00222179 0)
(0.825906 0.00219941 0)
(0.822861 0.00136007 0)
(1.00364 0.0300291 0)
(1.03692 0.0320879 0)
(1.05281 0.0228367 0)
(1.05567 0.0195015 0)
(1.0571 0.0175174 0)
(1.05899 0.0156782 0)
(1.06042 0.014372 0)
(1.06111 0.0134477 0)
(1.06112 0.012686 0)
(1.06047 0.0120173 0)
(1.05917 0.0114258 0)
(1.05724 0.0108966 0)
(1.0547 0.0104158 0)
(1.05162 0.00997377 0)
(1.04805 0.00956437 0)
(1.04405 0.00918348 0)
(1.03968 0.00882802 0)
(1.035 0.00849553 0)
(1.03008 0.00818392 0)
(1.02495 0.00789138 0)
(1.01967 0.00761629 0)
(1.01427 0.00735717 0)
(1.0088 0.00711266 0)
(1.00327 0.00688149 0)
(0.997731 0.00666246 0)
(0.99219 0.00645444 0)
(0.986672 0.00625638 0)
(0.981192 0.00606724 0)
(0.975766 0.00588608 0)
(0.970404 0.00571197 0)
(0.965117 0.00554405 0)
(0.959914 0.00538151 0)
(0.954802 0.00522346 0)
(0.949787 0.00506937 0)
(0.944877 0.00491792 0)
(0.940072 0.00476951 0)
(0.935382 0.00462118 0)
(0.930806 0.00447608 0)
(0.926352 0.00432662 0)
(0.922021 0.00418317 0)
(0.917813 0.00402682 0)
(0.913747 0.00388407 0)
(0.909792 0.00371367 0)
(0.906015 0.00356839 0)
(0.902311 0.00338132 0)
(0.89886 0.00320898 0)
(0.895397 0.00303224 0)
(0.892281 0.0027093 0)
(0.889012 0.00264588 0)
(0.886006 0.0019853 0)
(1.00327 0.0277895 0)
(1.03409 0.0310296 0)
(1.04969 0.022274 0)
(1.0527 0.0190949 0)
(1.0541 0.0173072 0)
(1.05604 0.0155496 0)
(1.05775 0.0142652 0)
(1.05896 0.013371 0)
(1.05977 0.0126496 0)
(1.06023 0.012024 0)
(1.06032 0.011477 0)
(1.06002 0.0109939 0)
(1.05932 0.0105595 0)
(1.05823 0.0101631 0)
(1.05676 0.00979741 0)
(1.05494 0.00945771 0)
(1.05278 0.00914046 0)
(1.05032 0.00884293 0)
(1.0476 0.00856296 0)
(1.04463 0.00829874 0)
(1.04145 0.00804875 0)
(1.0381 0.00781167 0)
(1.03459 0.00758631 0)
(1.03096 0.00737162 0)
(1.02722 0.00716662 0)
(1.02341 0.00697041 0)
(1.01953 0.00678214 0)
(1.01561 0.00660097 0)
(1.01167 0.00642613 0)
(1.00771 0.00625685 0)
(1.00375 0.00609239 0)
(0.999805 0.00593206 0)
(0.995879 0.00577507 0)
(0.991983 0.00562096 0)
(0.988126 0.00546848 0)
(0.984313 0.00531806 0)
(0.980554 0.00516683 0)
(0.976854 0.00501782 0)
(0.973219 0.0048638 0)
(0.969656 0.00471437 0)
(0.966165 0.00455221 0)
(0.962763 0.00440068 0)
(0.959433 0.00422426 0)
(0.956219 0.00406563 0)
(0.953059 0.00387403 0)
(0.95006 0.00368249 0)
(0.947074 0.00349921 0)
(0.944288 0.00317288 0)
(0.941422 0.00307518 0)
(0.938676 0.00256212 0)
(1.00292 0.0256539 0)
(1.03138 0.0299556 0)
(1.04669 0.0217334 0)
(1.04991 0.0186863 0)
(1.05128 0.017085 0)
(1.05319 0.0154138 0)
(1.05493 0.0141448 0)
(1.05626 0.013266 0)
(1.0573 0.0125675 0)
(1.05815 0.0119655 0)
(1.0588 0.0114429 0)
(1.05923 0.010986 0)
(1.05943 0.0105799 0)
(1.05939 0.010213 0)
(1.05912 0.00987749 0)
(1.0586 0.00956805 0)
(1.05785 0.0092806 0)
(1.05687 0.00901201 0)
(1.05566 0.00875979 0)
(1.05426 0.00852188 0)
(1.05266 0.00829659 0)
(1.05089 0.00808248 0)
(1.04896 0.00787833 0)
(1.04688 0.00768305 0)
(1.04468 0.00749573 0)
(1.04237 0.00731551 0)
(1.03995 0.00714161 0)
(1.03746 0.00697329 0)
(1.0349 0.00680986 0)
(1.03228 0.00665064 0)
(1.02961 0.00649496 0)
(1.0269 0.00634221 0)
(1.02417 0.00619164 0)
(1.02143 0.00604288 0)
(1.01867 0.00589468 0)
(1.01591 0.00574754 0)
(1.01315 0.00559864 0)
(1.01041 0.00545088 0)
(1.00769 0.00529747 0)
(1.005 0.00514708 0)
(1.00233 0.00498427 0)
(0.999713 0.00482888 0)
(0.997124 0.00465158 0)
(0.994598 0.00448484 0)
(0.992102 0.00429325 0)
(0.989693 0.00408975 0)
(0.987295 0.00390297 0)
(0.984993 0.0035836 0)
(0.982636 0.00345992 0)
(0.98031 0.00306598 0)
(1.0026 0.023625 0)
(1.02879 0.0288646 0)
(1.04377 0.0212138 0)
(1.04722 0.0182756 0)
(1.0486 0.0168493 0)
(1.05047 0.0152736 0)
(1.0522 0.0140218 0)
(1.05354 0.0131537 0)
(1.05462 0.0124714 0)
(1.05556 0.0118843 0)
(1.05638 0.0113752 0)
(1.05707 0.0109325 0)
(1.05764 0.0105418 0)
(1.05806 0.0101915 0)
(1.05836 0.00987386 0)
(1.0585 0.00958313 0)
(1.05851 0.00931503 0)
(1.05836 0.00906618 0)
(1.05807 0.00883379 0)
(1.05764 0.00861558 0)
(1.05706 0.00840964 0)
(1.05635 0.00821434 0)
(1.05551 0.00802831 0)
(1.05455 0.00785036 0)
(1.05348 0.00767949 0)
(1.0523 0.00751478 0)
(1.05103 0.00735545 0)
(1.04967 0.00720075 0)
(1.04822 0.00704999 0)
(1.04671 0.00690252 0)
(1.04514 0.00675766 0)
(1.04351 0.00661485 0)
(1.04183 0.00647333 0)
(1.0401 0.00633276 0)
(1.03835 0.0061919 0)
(1.03656 0.00605123 0)
(1.03475 0.00590805 0)
(1.03292 0.00576501 0)
(1.03109 0.00561587 0)
(1.02925 0.00546819 0)
(1.0274 0.00530864 0)
(1.02557 0.00515336 0)
(1.02374 0.00497919 0)
(1.02193 0.00480903 0)
(1.02013 0.00462097 0)
(1.01835 0.0044123 0)
(1.01658 0.00422487 0)
(1.01484 0.00392055 0)
(1.01304 0.00377945 0)
(1.01122 0.00347961 0)
(1.0023 0.0217046 0)
(1.02633 0.0277575 0)
(1.04094 0.0207135 0)
(1.04462 0.0178644 0)
(1.04601 0.0165988 0)
(1.04785 0.0151273 0)
(1.04958 0.0138974 0)
(1.05091 0.0130391 0)
(1.05198 0.0123713 0)
(1.05293 0.0117966 0)
(1.05378 0.0112968 0)
(1.05454 0.0108625 0)
(1.05521 0.0104805 0)
(1.05581 0.0101394 0)
(1.05632 0.00983154 0)
(1.05675 0.00955121 0)
(1.05709 0.00929416 0)
(1.05736 0.00905694 0)
(1.05753 0.00883668 0)
(1.05761 0.00863098 0)
(1.05761 0.00843779 0)
(1.05752 0.00825535 0)
(1.05734 0.00808216 0)
(1.05707 0.00791691 0)
(1.05673 0.00775851 0)
(1.0563 0.00760597 0)
(1.0558 0.00745846 0)
(1.05523 0.00731517 0)
(1.05459 0.00717539 0)
(1.05389 0.00703844 0)
(1.05313 0.00690363 0)
(1.05232 0.00677038 0)
(1.05145 0.00663789 0)
(1.05054 0.00650584 0)
(1.04959 0.00637297 0)
(1.0486 0.0062397 0)
(1.04757 0.00610346 0)
(1.04652 0.00596657 0)
(1.04544 0.00582343 0)
(1.04434 0.00568039 0)
(1.04321 0.00552626 0)
(1.04208 0.00537356 0)
(1.04093 0.00520491 0)
(1.03978 0.00503483 0)
(1.03862 0.0048524 0)
(1.03745 0.00464403 0)
(1.03628 0.00445817 0)
(1.03508 0.00417413 0)
(1.03382 0.00402333 0)
(1.03251 0.00379608 0)
(1.00203 0.0198934 0)
(1.02401 0.0266374 0)
(1.03821 0.0202295 0)
(1.04209 0.0174544 0)
(1.04351 0.0163336 0)
(1.04532 0.0149736 0)
(1.04705 0.013771 0)
(1.04838 0.0129226 0)
(1.04944 0.0122692 0)
(1.05037 0.0117067 0)
(1.05121 0.0112154 0)
(1.05198 0.0107876 0)
(1.05267 0.0104116 0)
(1.0533 0.0100763 0)
(1.05388 0.00977414 0)
(1.05441 0.00949962 0)
(1.05488 0.00924862 0)
(1.0553 0.00901775 0)
(1.05568 0.00880418 0)
(1.056 0.0086055 0)
(1.05627 0.00841963 0)
(1.05649 0.00824477 0)
(1.05665 0.00807935 0)
(1.05677 0.00792201 0)
(1.05683 0.00777159 0)
(1.05684 0.00762706 0)
(1.0568 0.00748753 0)
(1.05672 0.00735218 0)
(1.05659 0.00722025 0)
(1.05641 0.00709105 0)
(1.05619 0.00696385 0)
(1.05593 0.00683806 0)
(1.05562 0.00671283 0)
(1.05528 0.00658785 0)
(1.0549 0.00646181 0)
(1.05449 0.00633509 0)
(1.05404 0.00620522 0)
(1.05357 0.00607419 0)
(1.05307 0.00593703 0)
(1.05254 0.00579889 0)
(1.05198 0.00565066 0)
(1.05141 0.00550148 0)
(1.05081 0.0053391 0)
(1.05019 0.00517114 0)
(1.04956 0.00499499 0)
(1.0489 0.00479064 0)
(1.04822 0.00460773 0)
(1.0475 0.00434631 0)
(1.04671 0.00419198 0)
(1.04587 0.00401911 0)
(1.00179 0.0181917 0)
(1.02183 0.0255081 0)
(1.03557 0.0197579 0)
(1.03965 0.0170476 0)
(1.04111 0.0160544 0)
(1.04288 0.0148116 0)
(1.04461 0.0136421 0)
(1.04594 0.012804 0)
(1.047 0.0121649 0)
(1.04791 0.0116153 0)
(1.04874 0.0111326 0)
(1.04949 0.0107112 0)
(1.05018 0.0103404 0)
(1.05081 0.0100098 0)
(1.05139 0.00971174 0)
(1.05194 0.00944104 0)
(1.05244 0.00919369 0)
(1.05292 0.00896643 0)
(1.05336 0.00875652 0)
(1.05377 0.00856159 0)
(1.05415 0.0083796 0)
(1.0545 0.00820874 0)
(1.05482 0.00804746 0)
(1.05511 0.00789437 0)
(1.05537 0.0077483 0)
(1.0556 0.00760822 0)
(1.05581 0.00747322 0)
(1.05598 0.00734247 0)
(1.05613 0.00721522 0)
(1.05625 0.00709075 0)
(1.05635 0.00696833 0)
(1.05641 0.00684735 0)
(1.05645 0.00672696 0)
(1.05647 0.0066068 0)
(1.05646 0.00648559 0)
(1.05642 0.0063636 0)
(1.05635 0.00623854 0)
(1.05627 0.00611201 0)
(1.05616 0.00597972 0)
(1.05602 0.0058456 0)
(1.05587 0.00570255 0)
(1.05569 0.00555668 0)
(1.05549 0.00540004 0)
(1.05527 0.005235 0)
(1.05503 0.00506466 0)
(1.05476 0.00486634 0)
(1.05446 0.00468696 0)
(1.0541 0.00444809 0)
(1.05368 0.00429454 0)
(1.05321 0.00416085 0)
(1.00157 0.0165992 0)
(1.01978 0.0243736 0)
(1.03303 0.0192945 0)
(1.0373 0.0166456 0)
(1.0388 0.0157625 0)
(1.04053 0.0146406 0)
(1.04226 0.0135103 0)
(1.04359 0.0126831 0)
(1.04464 0.0120583 0)
(1.04554 0.0115223 0)
(1.04635 0.0110487 0)
(1.04709 0.0106337 0)
(1.04777 0.0102683 0)
(1.04839 0.00994205 0)
(1.04896 0.00964774 0)
(1.0495 0.00938022 0)
(1.05001 0.00913565 0)
(1.05049 0.00891088 0)
(1.05095 0.00870326 0)
(1.05138 0.0085105 0)
(1.05179 0.0083306 0)
(1.05218 0.0081618 0)
(1.05256 0.00800254 0)
(1.05292 0.00785147 0)
(1.05326 0.00770743 0)
(1.05359 0.0075694 0)
(1.0539 0.00743648 0)
(1.0542 0.00730789 0)
(1.05448 0.00718286 0)
(1.05475 0.0070607 0)
(1.05501 0.00694067 0)
(1.05525 0.00682218 0)
(1.05547 0.00670437 0)
(1.05568 0.00658688 0)
(1.05587 0.00646845 0)
(1.05605 0.00634926 0)
(1.05621 0.00622719 0)
(1.05636 0.00610348 0)
(1.05649 0.00597452 0)
(1.0566 0.00584311 0)
(1.05669 0.0057039 0)
(1.05677 0.00556054 0)
(1.05683 0.00540844 0)
(1.05687 0.00524631 0)
(1.05689 0.00508067 0)
(1.05687 0.00488908 0)
(1.05683 0.00471329 0)
(1.05674 0.00449518 0)
(1.05658 0.00434502 0)
(1.05638 0.0042382 0)
(1.00137 0.015115 0)
(1.01787 0.0232379 0)
(1.0306 0.0188357 0)
(1.03504 0.0162501 0)
(1.03658 0.0154593 0)
(1.03827 0.0144599 0)
(1.03999 0.0133753 0)
(1.04133 0.0125601 0)
(1.04237 0.0119493 0)
(1.04326 0.0114273 0)
(1.04406 0.0109635 0)
(1.04479 0.0105553 0)
(1.04545 0.0101953 0)
(1.04606 0.00987359 0)
(1.04663 0.00958302 0)
(1.04715 0.00931858 0)
(1.04765 0.00907656 0)
(1.04813 0.00885394 0)
(1.04858 0.00864813 0)
(1.04901 0.00845693 0)
(1.04942 0.00827839 0)
(1.04982 0.00811075 0)
(1.05021 0.00795251 0)
(1.05059 0.00780233 0)
(1.05096 0.00765908 0)
(1.05131 0.00752176 0)
(1.05167 0.00738952 0)
(1.05201 0.00726159 0)
(1.05235 0.00713722 0)
(1.05268 0.00701578 0)
(1.053 0.00689652 0)
(1.05332 0.00677889 0)
(1.05363 0.00666203 0)
(1.05393 0.00654556 0)
(1.05423 0.00642831 0)
(1.05452 0.00631032 0)
(1.05479 0.00618973 0)
(1.05506 0.00606737 0)
(1.05532 0.00594029 0)
(1.05556 0.00581033 0)
(1.0558 0.00567361 0)
(1.05602 0.00553186 0)
(1.05623 0.00538295 0)
(1.05642 0.00522335 0)
(1.05659 0.00506119 0)
(1.05674 0.00487622 0)
(1.05685 0.00470383 0)
(1.05692 0.00450382 0)
(1.05694 0.00435832 0)
(1.05692 0.00426871 0)
(1.00119 0.0137374 0)
(1.0161 0.022105 0)
(1.02828 0.0183776 0)
(1.03286 0.015862 0)
(1.03445 0.0151466 0)
(1.03611 0.0142691 0)
(1.03781 0.0132368 0)
(1.03915 0.0124348 0)
(1.04019 0.0118378 0)
(1.04107 0.0113303 0)
(1.04186 0.010877 0)
(1.04258 0.0104759 0)
(1.04323 0.0101214 0)
(1.04383 0.00980442 0)
(1.04438 0.00951771 0)
(1.0449 0.00925641 0)
(1.04539 0.00901696 0)
(1.04585 0.00879642 0)
(1.04629 0.00859233 0)
(1.04671 0.00840252 0)
(1.04712 0.00822507 0)
(1.04752 0.00805828 0)
(1.0479 0.00790066 0)
(1.04828 0.0077509 0)
(1.04865 0.00760788 0)
(1.04901 0.00747065 0)
(1.04937 0.00733838 0)
(1.04973 0.00721034 0)
(1.05008 0.00708583 0)
(1.05043 0.00696421 0)
(1.05078 0.0068448 0)
(1.05112 0.00672705 0)
(1.05147 0.00661014 0)
(1.05181 0.00649367 0)
(1.05214 0.00637655 0)
(1.05247 0.00625872 0)
(1.0528 0.00613854 0)
(1.05313 0.0060165 0)
(1.05344 0.00589024 0)
(1.05375 0.00576078 0)
(1.05406 0.00562546 0)
(1.05435 0.00548459 0)
(1.05463 0.00533774 0)
(1.0549 0.00518025 0)
(1.05515 0.00502056 0)
(1.05538 0.00484173 0)
(1.05559 0.00467258 0)
(1.05575 0.00448773 0)
(1.05587 0.00434729 0)
(1.05596 0.00426757 0)
(1.00104 0.0124642 0)
(1.01446 0.0209793 0)
(1.02607 0.0179167 0)
(1.03077 0.0154823 0)
(1.03242 0.0148263 0)
(1.03404 0.0140677 0)
(1.03572 0.013094 0)
(1.03707 0.0123075 0)
(1.0381 0.0117237 0)
(1.03898 0.0112311 0)
(1.03976 0.0107888 0)
(1.04046 0.0103953 0)
(1.0411 0.0100466 0)
(1.04169 0.00973446 0)
(1.04223 0.00945175 0)
(1.04274 0.0091937 0)
(1.04322 0.00895688 0)
(1.04367 0.00873849 0)
(1.0441 0.00853612 0)
(1.04451 0.00834768 0)
(1.04491 0.00817128 0)
(1.0453 0.00800526 0)
(1.04567 0.00784813 0)
(1.04604 0.00769861 0)
(1.04641 0.00755561 0)
(1.04677 0.00741822 0)
(1.04712 0.00728563 0)
(1.04748 0.00715714 0)
(1.04783 0.0070321 0)
(1.04818 0.0069099 0)
(1.04853 0.00678988 0)
(1.04888 0.00667152 0)
(1.04923 0.00655403 0)
(1.04958 0.00643701 0)
(1.04993 0.00631944 0)
(1.05028 0.00620116 0)
(1.05062 0.00608076 0)
(1.05097 0.00595843 0)
(1.0513 0.00583232 0)
(1.05164 0.00570281 0)
(1.05197 0.00556815 0)
(1.05229 0.00542772 0)
(1.05261 0.00528212 0)
(1.05291 0.00512644 0)
(1.0532 0.00496857 0)
(1.05347 0.00479526 0)
(1.05371 0.0046293 0)
(1.05392 0.00445685 0)
(1.05409 0.00432132 0)
(1.05425 0.00424626 0)
(1.0009 0.0112925 0)
(1.01295 0.0198651 0)
(1.02397 0.0174502 0)
(1.02877 0.0151114 0)
(1.03049 0.0145004 0)
(1.03206 0.0138554 0)
(1.03372 0.0129465 0)
(1.03507 0.012178 0)
(1.03611 0.0116072 0)
(1.03697 0.0111296 0)
(1.03774 0.010699 0)
(1.03844 0.0103134 0)
(1.03907 0.00997079 0)
(1.03965 0.00966364 0)
(1.04018 0.00938506 0)
(1.04068 0.00913039 0)
(1.04114 0.00889629 0)
(1.04158 0.00868011 0)
(1.04201 0.00847952 0)
(1.04241 0.00829248 0)
(1.0428 0.00811715 0)
(1.04318 0.00795187 0)
(1.04354 0.00779521 0)
(1.04391 0.00764589 0)
(1.04426 0.00750285 0)
(1.04461 0.0073652 0)
(1.04496 0.00723218 0)
(1.04531 0.00710311 0)
(1.04565 0.00697738 0)
(1.046 0.00685442 0)
(1.04635 0.00673359 0)
(1.0467 0.00661439 0)
(1.04704 0.00649608 0)
(1.04739 0.00637825 0)
(1.04774 0.00625995 0)
(1.04809 0.00614094 0)
(1.04843 0.00602 0)
(1.04878 0.00589708 0)
(1.04912 0.00577075 0)
(1.04946 0.0056409 0)
(1.0498 0.00550648 0)
(1.05013 0.00536628 0)
(1.05045 0.00522145 0)
(1.05077 0.00506739 0)
(1.05107 0.004911 0)
(1.05135 0.00474266 0)
(1.05161 0.00457993 0)
(1.05184 0.00441745 0)
(1.05204 0.00428638 0)
(1.05223 0.00421239 0)
(1.00078 0.0102189 0)
(1.01157 0.0187669 0)
(1.02199 0.0169751 0)
(1.02685 0.0147494 0)
(1.02864 0.014171 0)
(1.03018 0.0136323 0)
(1.03181 0.0127936 0)
(1.03316 0.0120463 0)
(1.0342 0.0114882 0)
(1.03505 0.0110257 0)
(1.03582 0.0106074 0)
(1.0365 0.0102303 0)
(1.03713 0.00989385 0)
(1.03769 0.00959187 0)
(1.03822 0.00931758 0)
(1.03871 0.0090664 0)
(1.03916 0.00883513 0)
(1.0396 0.00862123 0)
(1.04001 0.00842248 0)
(1.0404 0.00823688 0)
(1.04078 0.00806264 0)
(1.04115 0.00789814 0)
(1.04151 0.00774194 0)
(1.04187 0.00759282 0)
(1.04221 0.00744972 0)
(1.04256 0.00731178 0)
(1.0429 0.00717828 0)
(1.04324 0.00704858 0)
(1.04358 0.0069221 0)
(1.04392 0.0067983 0)
(1.04426 0.00667659 0)
(1.0446 0.00655646 0)
(1.04494 0.00643723 0)
(1.04528 0.00631846 0)
(1.04562 0.00619931 0)
(1.04597 0.00607944 0)
(1.04631 0.00595781 0)
(1.04665 0.00583418 0)
(1.04699 0.00570744 0)
(1.04733 0.00557716 0)
(1.04766 0.00544274 0)
(1.04799 0.00530271 0)
(1.04831 0.00515841 0)
(1.04863 0.00500589 0)
(1.04893 0.00485086 0)
(1.04921 0.00468698 0)
(1.04948 0.00452754 0)
(1.04972 0.00437305 0)
(1.04993 0.00424582 0)
(1.05014 0.00417055 0)
(1.00067 0.00923909 0)
(1.01031 0.0176891 0)
(1.02011 0.0164893 0)
(1.02501 0.014396 0)
(1.02688 0.0138402 0)
(1.02839 0.0133987 0)
(1.02998 0.0126346 0)
(1.03134 0.0119122 0)
(1.03238 0.0113668 0)
(1.03323 0.0109192 0)
(1.03398 0.0105139 0)
(1.03466 0.0101456 0)
(1.03528 0.00981571 0)
(1.03584 0.00951906 0)
(1.03635 0.00924922 0)
(1.03683 0.00900166 0)
(1.03728 0.00877331 0)
(1.0377 0.00856178 0)
(1.03811 0.00836492 0)
(1.03849 0.00818081 0)
(1.03887 0.0080077 0)
(1.03923 0.007844 0)
(1.03958 0.00768829 0)
(1.03992 0.00753935 0)
(1.04026 0.00739619 0)
(1.0406 0.00725795 0)
(1.04093 0.00712395 0)
(1.04126 0.0069936 0)
(1.0416 0.00686634 0)
(1.04193 0.00674167 0)
(1.04226 0.00661903 0)
(1.0426 0.00649793 0)
(1.04293 0.00637774 0)
(1.04327 0.00625799 0)
(1.0436 0.00613793 0)
(1.04394 0.00601715 0)
(1.04428 0.00589477 0)
(1.04461 0.00577039 0)
(1.04495 0.00564315 0)
(1.04528 0.00551243 0)
(1.04561 0.00537789 0)
(1.04593 0.00523804 0)
(1.04625 0.00509417 0)
(1.04656 0.00494313 0)
(1.04685 0.0047895 0)
(1.04714 0.00462961 0)
(1.0474 0.00447352 0)
(1.04764 0.00432539 0)
(1.04786 0.00420131 0)
(1.04808 0.00412329 0)
(1.00058 0.00834864 0)
(1.00916 0.0166361 0)
(1.01836 0.0159911 0)
(1.02326 0.0140506 0)
(1.02521 0.0135099 0)
(1.02669 0.0131551 0)
(1.02825 0.012469 0)
(1.0296 0.0117756 0)
(1.03064 0.011243 0)
(1.03149 0.0108101 0)
(1.03223 0.0104182 0)
(1.03291 0.0100594 0)
(1.03351 0.00973628 0)
(1.03407 0.00944513 0)
(1.03457 0.00917988 0)
(1.03504 0.00893608 0)
(1.03549 0.00871077 0)
(1.0359 0.00850168 0)
(1.0363 0.00830678 0)
(1.03668 0.00812422 0)
(1.03704 0.00795228 0)
(1.0374 0.00778939 0)
(1.03774 0.00763418 0)
(1.03808 0.00748545 0)
(1.03841 0.00734221 0)
(1.03874 0.00720367 0)
(1.03906 0.00706916 0)
(1.03939 0.00693814 0)
(1.03972 0.00681008 0)
(1.04004 0.00668452 0)
(1.04037 0.00656092 0)
(1.04069 0.00643883 0)
(1.04102 0.00631765 0)
(1.04135 0.00619691 0)
(1.04168 0.00607591 0)
(1.04201 0.00595421 0)
(1.04234 0.00583103 0)
(1.04267 0.0057059 0)
(1.043 0.00557812 0)
(1.04332 0.00544697 0)
(1.04365 0.00531227 0)
(1.04396 0.00517263 0)
(1.04428 0.00502916 0)
(1.04458 0.00487956 0)
(1.04487 0.00472739 0)
(1.04515 0.0045711 0)
(1.04541 0.00441832 0)
(1.04565 0.00427523 0)
(1.04588 0.0041536 0)
(1.0461 0.00407198 0)
(1.0005 0.00754245 0)
(1.00813 0.015612 0)
(1.01671 0.0154796 0)
(1.0216 0.0137123 0)
(1.02363 0.0131818 0)
(1.02508 0.0129024 0)
(1.0266 0.0122961 0)
(1.02795 0.011636 0)
(1.02899 0.0111168 0)
(1.02983 0.0106983 0)
(1.03057 0.0103202 0)
(1.03124 0.00997142 0)
(1.03184 0.00965544 0)
(1.03238 0.00936997 0)
(1.03288 0.00910948 0)
(1.03335 0.00886957 0)