/*--------------------------------*- C++ -*----------------------------------*\
  =========                 |
  \\      /  F ield         | OpenFOAM: The Open Source CFD Toolbox
   \\    /   O peration     | Website:  https://openfoam.org
    \\  /    A nd           | Version:  7
     \\/     M anipulation  |
\*---------------------------------------------------------------------------*/
FoamFile
{
    version     2.0;
    format      ascii;
    class       volVectorField;
    location    "0.08";
    object      wallShearStress;
}
// * * * * * * * * * * * * * * * * * * * * * * * * * * * * * * * * * * * * * //

dimensions      [0 2 -2 0 0 0 0];

internalField   uniform (0 0 0);

boundaryField
{
    velocityInlet
    {
        type            calculated;
        value           uniform (0 0 0);
    }
    pressureOutlet
    {
        type            calculated;
        value           uniform (0 0 0);
    }
    fixedWalls
    {
        type            calculated;
        value           nonuniform List<vector> 
100
(
(-0.0108427 -0.00729732 0)
(0.0116343 -0.000651267 0)
(-0.0030296 0.000824437 0)
(0.00203351 -0.000455042 0)
(0.00461248 -0.000766419 0)
(0.00974216 -0.000715875 0)
(0.0113123 -0.00023509 0)
(0.0103341 0.000283395 0)
(0.00710666 0.000518037 0)
(0.00387893 0.000508063 0)
(0.00169585 0.000265292 0)
(0.00220757 -0.000175212 0)
(0.0057405 -0.000634179 0)
(0.00973607 -0.00062802 0)
(0.0108969 -0.000146641 0)
(0.00886999 0.000321298 0)
(0.00536365 0.000465218 0)
(0.00190794 0.000387016 0)
(-0.000757897 0.000267435 0)
(-0.00246051 0.000149312 0)
(-0.00342561 7.52528e-05 0)
(-0.00389644 3.46744e-05 0)
(-0.00407237 1.39349e-05 0)
(-0.00407897 2.46676e-06 0)
(-0.0039899 -4.91215e-06 0)
(-0.00384821 -9.4345e-06 0)
(-0.00367816 -1.2357e-05 0)
(-0.00349425 -1.43451e-05 0)
(-0.00330599 -1.55132e-05 0)
(-0.00312184 -1.56283e-05 0)
(-0.00295084 -1.44166e-05 0)
(-0.00280153 -1.19077e-05 0)
(-0.00267841 -8.7838e-06 0)
(-0.00257742 -6.43793e-06 0)
(-0.00248479 -6.39845e-06 0)
(-0.00238364 -8.95852e-06 0)
(-0.00226831 -1.20671e-05 0)
(-0.00215803 -1.18542e-05 0)
(-0.00209658 -6.29545e-06 0)
(-0.00213507 7.27069e-06 0)
(-0.0023079 2.57946e-05 0)
(-0.00259398 4.1145e-05 0)
(-0.00288269 4.16256e-05 0)
(-0.00300078 2.20122e-05 0)
(-0.00279419 -2.17727e-05 0)
(-0.00221257 -7.09641e-05 0)
(-0.00136792 -0.000104422 0)
(-0.000526996 -0.000101704 0)
(-4.89689e-06 -5.91094e-05 0)
(-2.16494e-05 -1.44905e-06 0)
(-0.000556638 5.4147e-05 0)
(-0.00137782 8.35858e-05 0)
(-0.00224624 8.39906e-05 0)
(-0.00303447 7.31222e-05 0)
(-0.00374847 6.76379e-05 0)
(-0.00445847 7.19612e-05 0)
(-0.00519697 7.97236e-05 0)
(-0.0059372 8.61716e-05 0)
(-0.00662165 8.9399e-05 0)
(-0.00711738 8.28566e-05 0)
(-0.00712564 3.80378e-05 0)
(-0.00623141 -7.20257e-05 0)
(-0.00389974 -0.000272918 0)
(-3.99767e-05 -0.000436314 0)
(0.00410921 -0.000465015 0)
(0.00705798 -0.000317621 0)
(0.00789181 -7.39658e-05 0)
(0.00659764 0.000144216 0)
(0.00395759 0.000262834 0)
(0.000980757 0.000267366 0)
(-0.00159382 0.000216061 0)
(-0.00346349 0.000144787 0)
(-0.00468564 8.61919e-05 0)
(-0.0055219 5.50679e-05 0)
(-0.00617973 4.41936e-05 0)
(-0.0067004 3.51593e-05 0)
(-0.00706263 2.61383e-05 0)
(-0.0073165 2.69463e-05 0)
(-0.00758359 4.21659e-05 0)
(-0.00796114 6.65636e-05 0)
(-0.00838497 8.51132e-05 0)
(-0.0085186 6.59431e-05 0)
(-0.00783254 -2.43023e-05 0)
(-0.00559821 -0.000209281 0)
(-0.00120685 -0.000459468 0)
(0.00422754 -0.000528624 0)
(0.00862389 -0.000421255 0)
(0.0106633 -0.000174909 0)
(0.00996068 8.77185e-05 0)
(0.00724529 0.000257164 0)
(0.00381527 0.00028419 0)
(0.000717511 0.000238871 0)
(-0.00159795 0.000170312 0)
(-0.00308179 0.000103025 0)
(-0.00387705 5.28157e-05 0)
(-0.00419616 1.95921e-05 0)
(-0.00417602 -2.5188e-06 0)
(-0.00396341 -1.72367e-05 0)
(-0.00366112 -2.22515e-05 0)
(-0.00321094 -2.05202e-05 0)
)
;
    }
    bottomWall
    {
        type            calculated;
        value           nonuniform List<vector> 
800
(
(-0.0353488 0.00214397 0)
(-0.0160268 0.000524825 0)
(-0.0106082 0.000100708 0)
(-0.00845647 3.52512e-05 0)
(-0.007487 1.98517e-05 0)
(-0.00685347 1.61135e-05 0)
(-0.00634613 1.3348e-05 0)
(-0.00593508 1.08929e-05 0)
(-0.00560036 9.07245e-06 0)
(-0.00532153 7.75731e-06 0)
(-0.00508402 6.762e-06 0)
(-0.00487835 5.97595e-06 0)
(-0.00469809 5.33902e-06 0)
(-0.0045385 4.81403e-06 0)
(-0.004396 4.37499e-06 0)
(-0.00426784 4.0031e-06 0)
(-0.00415184 3.68466e-06 0)
(-0.00404627 3.40928e-06 0)
(-0.0039497 3.16899e-06 0)
(-0.003861 2.95769e-06 0)
(-0.00377921 2.77072e-06 0)
(-0.00370353 2.60432e-06 0)
(-0.00363326 2.4553e-06 0)
(-0.00356784 2.32121e-06 0)
(-0.00350678 2.20013e-06 0)
(-0.00344963 2.09023e-06 0)
(-0.00339603 1.99028e-06 0)
(-0.00334565 1.89898e-06 0)
(-0.0032982 1.81519e-06 0)
(-0.00325343 1.7383e-06 0)
(-0.00321112 1.6676e-06 0)
(-0.00317105 1.60221e-06 0)
(-0.00313306 1.54169e-06 0)
(-0.00309698 1.4856e-06 0)
(-0.00306268 1.4334e-06 0)
(-0.00303002 1.38493e-06 0)
(-0.00299887 1.33961e-06 0)
(-0.00296915 1.29719e-06 0)
(-0.00294076 1.25749e-06 0)
(-0.0029136 1.22024e-06 0)
(-0.00288759 1.18525e-06 0)
(-0.00286267 1.15221e-06 0)
(-0.00283878 1.12113e-06 0)
(-0.00281584 1.09184e-06 0)
(-0.00279379 1.06428e-06 0)
(-0.0027726 1.03775e-06 0)
(-0.00275221 1.01308e-06 0)
(-0.00273259 9.88977e-07 0)
(-0.00271367 9.67205e-07 0)
(-0.00269545 9.43952e-07 0)
(-0.00268023 9.24857e-07 0)
(-0.00266766 9.14145e-07 0)
(-0.00265524 9.00344e-07 0)
(-0.00264303 8.85489e-07 0)
(-0.00263101 8.71789e-07 0)
(-0.00261917 8.58507e-07 0)
(-0.00260751 8.45606e-07 0)
(-0.00259602 8.33106e-07 0)
(-0.0025847 8.20697e-07 0)
(-0.00257354 8.08708e-07 0)
(-0.00256255 7.97132e-07 0)
(-0.00255171 7.85631e-07 0)
(-0.00254103 7.74203e-07 0)
(-0.0025305 7.63178e-07 0)
(-0.00252012 7.52388e-07 0)
(-0.00250988 7.41998e-07 0)
(-0.00249978 7.31671e-07 0)
(-0.00248983 7.21405e-07 0)
(-0.00248001 7.11532e-07 0)
(-0.00247033 7.01884e-07 0)
(-0.00246077 6.92458e-07 0)
(-0.00245134 6.83087e-07 0)
(-0.00244204 6.73936e-07 0)
(-0.00243286 6.64837e-07 0)
(-0.0024238 6.55955e-07 0)
(-0.00241487 6.47457e-07 0)
(-0.00240604 6.39173e-07 0)
(-0.00239733 6.3077e-07 0)
(-0.00238873 6.22412e-07 0)
(-0.00238025 6.146e-07 0)
(-0.00237187 6.06832e-07 0)
(-0.00236359 5.9894e-07 0)
(-0.00235543 5.91423e-07 0)
(-0.00234736 5.84114e-07 0)
(-0.00233939 5.76679e-07 0)
(-0.00233152 5.69449e-07 0)
(-0.00232375 5.62591e-07 0)
(-0.00231607 5.55604e-07 0)
(-0.00230849 5.48819e-07 0)
(-0.002301 5.42237e-07 0)
(-0.0022936 5.35523e-07 0)
(-0.00228629 5.29175e-07 0)
(-0.00227906 5.22861e-07 0)
(-0.00227192 5.16579e-07 0)
(-0.00226487 5.10494e-07 0)
(-0.0022579 5.04439e-07 0)
(-0.00225101 4.98581e-07 0)
(-0.0022442 4.92752e-07 0)
(-0.00223747 4.86951e-07 0)
(-0.00223082 4.81344e-07 0)
(-0.00222424 4.75931e-07 0)
(-0.00221773 4.70378e-07 0)
(-0.00221131 4.65019e-07 0)
(-0.00220495 4.59851e-07 0)
(-0.00219867 4.54543e-07 0)
(-0.00219246 4.49426e-07 0)
(-0.00218632 4.44335e-07 0)
(-0.00218024 4.39434e-07 0)
(-0.00217424 4.34555e-07 0)
(-0.0021683 4.29702e-07 0)
(-0.00216243 4.25037e-07 0)
(-0.00215662 4.20395e-07 0)
(-0.00215087 4.15941e-07 0)
(-0.00214518 4.11343e-07 0)
(-0.00213956 4.0693e-07 0)
(-0.002134 4.02706e-07 0)
(-0.00212849 3.98168e-07 0)
(-0.00212305 3.93982e-07 0)
(-0.00211766 3.89815e-07 0)
(-0.00211234 3.85666e-07 0)
(-0.00210707 3.81702e-07 0)
(-0.00210185 3.77756e-07 0)
(-0.00209669 3.73826e-07 0)
(-0.00209158 3.69748e-07 0)
(-0.00208653 3.66019e-07 0)
(-0.00208152 3.62307e-07 0)
(-0.00207657 3.58612e-07 0)
(-0.00207167 3.54932e-07 0)
(-0.00206683 3.51268e-07 0)
(-0.00206202 3.47787e-07 0)
(-0.00205727 3.4432e-07 0)
(-0.00205257 3.40868e-07 0)
(-0.00204791 3.37264e-07 0)
(-0.00204331 3.34009e-07 0)
(-0.00203875 3.30768e-07 0)
(-0.00203423 3.27541e-07 0)
(-0.00202976 3.24329e-07 0)
(-0.00202533 3.20961e-07 0)
(-0.00202095 3.17946e-07 0)
(-0.00201661 3.14933e-07 0)
(-0.00201232 3.1195e-07 0)
(-0.00200806 3.08953e-07 0)
(-0.00200384 3.0584e-07 0)
(-0.00199967 3.02849e-07 0)
(-0.00199554 3.00117e-07 0)
(-0.00199145 2.97279e-07 0)
(-0.0019874 2.94447e-07 0)
(-0.00198339 2.91571e-07 0)
(-0.00197941 2.88964e-07 0)
(-0.00197548 2.86028e-07 0)
(-0.00197218 2.83319e-07 0)
(-0.00196949 2.81843e-07 0)
(-0.00196679 2.80447e-07 0)
(-0.00196409 2.78478e-07 0)
(-0.0019614 2.76312e-07 0)
(-0.00195871 2.74456e-07 0)
(-0.00195601 2.72823e-07 0)
(-0.00195331 2.70984e-07 0)
(-0.00195062 2.6892e-07 0)
(-0.00194792 2.67322e-07 0)
(-0.00194522 2.6551e-07 0)
(-0.00194253 2.63485e-07 0)
(-0.00193983 2.61903e-07 0)
(-0.00193713 2.60132e-07 0)
(-0.00193444 2.58131e-07 0)
(-0.00193174 2.56372e-07 0)
(-0.00192905 2.54617e-07 0)
(-0.00192636 2.52663e-07 0)
(-0.00192367 2.50928e-07 0)
(-0.00192097 2.49204e-07 0)
(-0.00191829 2.47278e-07 0)
(-0.0019156 2.45571e-07 0)
(-0.00191291 2.43661e-07 0)
(-0.00191023 2.41776e-07 0)
(-0.00190755 2.40091e-07 0)
(-0.00190487 2.38425e-07 0)
(-0.00190218 2.36568e-07 0)
(-0.00189951 2.34718e-07 0)
(-0.00189683 2.32882e-07 0)
(-0.00189417 2.31053e-07 0)
(-0.0018915 2.29427e-07 0)
(-0.00188883 2.27627e-07 0)
(-0.00188617 2.2583e-07 0)
(-0.0018835 2.24048e-07 0)
(-0.00188085 2.22087e-07 0)
(-0.0018782 2.2032e-07 0)
(-0.00187555 2.18574e-07 0)
(-0.00187291 2.16833e-07 0)
(-0.00187026 2.15096e-07 0)
(-0.00186763 2.13205e-07 0)
(-0.001865 2.11486e-07 0)
(-0.00186236 2.09795e-07 0)
(-0.00185974 2.0793e-07 0)
(-0.00185712 2.06075e-07 0)
(-0.00185451 2.04408e-07 0)
(-0.0018519 2.02749e-07 0)
(-0.0018493 2.00763e-07 0)
(-0.0018467 1.9895e-07 0)
(-0.00184411 1.97316e-07 0)
(-0.00184153 1.95541e-07 0)
(-0.00183895 1.93758e-07 0)
(-0.00183637 1.91997e-07 0)
(-0.00183381 1.90079e-07 0)
(-0.00183125 1.88327e-07 0)
(-0.0018287 1.86606e-07 0)
(-0.00182616 1.84879e-07 0)
(-0.00182362 1.8316e-07 0)
(-0.00182109 1.8115e-07 0)
(-0.00181857 1.79445e-07 0)
(-0.00181606 1.77776e-07 0)
(-0.00181356 1.75798e-07 0)
(-0.00181107 1.74132e-07 0)
(-0.00180858 1.72505e-07 0)
(-0.0018061 1.70546e-07 0)
(-0.00180363 1.68755e-07 0)
(-0.00180118 1.67013e-07 0)
(-0.00179873 1.65241e-07 0)
(-0.00179629 1.63514e-07 0)
(-0.00179387 1.61785e-07 0)
(-0.00179145 1.60076e-07 0)
(-0.00178904 1.58232e-07 0)
(-0.00178665 1.56539e-07 0)
(-0.00178426 1.54887e-07 0)
(-0.00178188 1.53077e-07 0)
(-0.00177952 1.51416e-07 0)
(-0.00177716 1.49836e-07 0)
(-0.00177482 1.48034e-07 0)
(-0.00177249 1.46512e-07 0)
(-0.00177017 1.44866e-07 0)
(-0.00176786 1.43296e-07 0)
(-0.00176556 1.41736e-07 0)
(-0.00176326 1.40402e-07 0)
(-0.00176099 1.38538e-07 0)
(-0.0017587 1.37774e-07 0)
(-0.00175645 1.35366e-07 0)
(-0.00175417 1.35486e-07 0)
(-0.00175197 1.32022e-07 0)
(-0.00174967 1.34431e-07 0)
(-0.00174751 1.28065e-07 0)
(-0.00174515 1.35009e-07 0)
(-0.0017431 1.21954e-07 0)
(-0.00174061 1.392e-07 0)
(-0.00173877 1.11847e-07 0)
(-0.00173599 1.5074e-07 0)
(-0.00173452 9.33417e-08 0)
(-0.00173122 1.74784e-07 0)
(-0.00173038 5.93983e-08 0)
(-0.00172629 2.17176e-07 0)
(-0.00172634 7.84863e-09 0)
(-0.00172113 2.34278e-07 0)
(-0.0353488 -0.00214398 0)
(-0.0160263 -0.000524841 0)
(-0.0106074 -0.000100718 0)
(-0.00845564 -3.52585e-05 0)
(-0.00748617 -1.98555e-05 0)
(-0.00685284 -1.61139e-05 0)
(-0.00634574 -1.33458e-05 0)
(-0.00593509 -1.08873e-05 0)
(-0.00560088 -9.06369e-06 0)
(-0.00532267 -7.7456e-06 0)
(-0.00508587 -6.74733e-06 0)
(-0.00488102 -5.95869e-06 0)
(-0.00470163 -5.31965e-06 0)
(-0.00454297 -4.79303e-06 0)
(-0.00440143 -4.35321e-06 0)
(-0.00427421 -3.98124e-06 0)
(-0.00415914 -3.66334e-06 0)
(-0.00405443 -3.38911e-06 0)
(-0.00395868 -3.15045e-06 0)
(-0.00387073 -2.94112e-06 0)
(-0.00378962 -2.75624e-06 0)
(-0.00371454 -2.59187e-06 0)
(-0.00364482 -2.44468e-06 0)
(-0.0035799 -2.3121e-06 0)
(-0.0035193 -2.19201e-06 0)
(-0.00346261 -2.0826e-06 0)
(-0.00340947 -1.98243e-06 0)
(-0.00335957 -1.89011e-06 0)
(-0.00331265 -1.80451e-06 0)
(-0.00326849 -1.72496e-06 0)
(-0.00322689 -1.65039e-06 0)
(-0.00318766 -1.5807e-06 0)
(-0.00315066 -1.51435e-06 0)
(-0.00311574 -1.45235e-06 0)
(-0.0030828 -1.39215e-06 0)
(-0.00305171 -1.33679e-06 0)
(-0.00302239 -1.28096e-06 0)
(-0.00299479 -1.23152e-06 0)
(-0.00296867 -1.18031e-06 0)
(-0.0029444 -1.13558e-06 0)
(-0.00292094 -1.09333e-06 0)
(-0.00290021 -1.04564e-06 0)
(-0.0028783 -1.03453e-06 0)
(-0.00286236 -9.50744e-07 0)
(-0.00283906 -1.053e-06 0)
(-0.00283213 -8.00844e-07 0)
(-0.00279914 -1.34015e-06 0)
(-0.00281299 -2.02575e-07 0)
(-0.00275457 -6.88419e-06 0)
(-0.00262327 0.000184075 0)
(4.18069e-06 -6.99432e-07 0)
(8.92157e-06 -1.27399e-05 0)
(1.38416e-05 -3.29168e-05 0)
(1.90918e-05 -6.05983e-05 0)
(2.44894e-05 -9.65335e-05 0)
(2.95523e-05 -0.000139947 0)
(3.39994e-05 -0.000189886 0)
(3.7656e-05 -0.000245075 0)
(4.04719e-05 -0.000304206 0)
(4.24633e-05 -0.000366026 0)
(4.36779e-05 -0.0004294 0)
(4.41807e-05 -0.000493329 0)
(4.40481e-05 -0.000556936 0)
(4.33601e-05 -0.000619463 0)
(4.21949e-05 -0.000680274 0)
(4.06242e-05 -0.000738852 0)
(3.87132e-05 -0.000794782 0)
(3.65208e-05 -0.000847736 0)
(3.4099e-05 -0.000897463 0)
(3.14947e-05 -0.000943779 0)
(2.87506e-05 -0.000986556 0)
(2.59029e-05 -0.00102572 0)
(2.29852e-05 -0.00106123 0)
(2.00282e-05 -0.00109309 0)
(1.70574e-05 -0.00112134 0)
(1.40964e-05 -0.00114603 0)
(1.11643e-05 -0.00116724 0)
(8.28402e-06 -0.00118507 0)
(5.46854e-06 -0.00119966 0)
(2.72799e-06 -0.0012111 0)
(8.00178e-08 -0.00121954 0)
(-2.46651e-06 -0.00122513 0)
(-4.92449e-06 -0.00122803 0)
(-7.32242e-06 -0.00122834 0)
(-9.63789e-06 -0.00122613 0)
(-1.1816e-05 -0.00122161 0)
(-1.38517e-05 -0.00121497 0)
(-1.5743e-05 -0.00120635 0)
(-1.7482e-05 -0.00119591 0)
(-1.90777e-05 -0.00118382 0)
(-2.05349e-05 -0.0011702 0)
(-2.18588e-05 -0.00115521 0)
(-2.30621e-05 -0.00113898 0)
(-2.41482e-05 -0.00112161 0)
(-2.51225e-05 -0.00110324 0)
(-2.5992e-05 -0.00108397 0)
(-2.67633e-05 -0.0010639 0)
(-2.74357e-05 -0.00104312 0)
(-2.80172e-05 -0.00102174 0)
(-2.85129e-05 -0.000999828 0)
(-2.89222e-05 -0.000977469 0)
(-2.92514e-05 -0.000954739 0)
(-2.95033e-05 -0.000931707 0)
(-2.96812e-05 -0.000908441 0)
(-2.97874e-05 -0.000885002 0)
(-2.98246e-05 -0.000861448 0)
(-2.97954e-05 -0.000837837 0)
(-2.97026e-05 -0.000814218 0)
(-2.95475e-05 -0.000790641 0)
(-2.93327e-05 -0.000767152 0)
(-2.90598e-05 -0.000743794 0)
(-2.87307e-05 -0.000720611 0)
(-2.83478e-05 -0.000697637 0)
(-2.79116e-05 -0.000674912 0)
(-2.7425e-05 -0.000652472 0)
(-2.68897e-05 -0.000630347 0)
(-2.63074e-05 -0.00060857 0)
(-2.56802e-05 -0.00058717 0)
(-2.50106e-05 -0.000566175 0)
(-2.43006e-05 -0.000545613 0)
(-2.35534e-05 -0.000525508 0)
(-2.27722e-05 -0.000505882 0)
(-2.19594e-05 -0.000486757 0)
(-2.11188e-05 -0.000468155 0)
(-2.02553e-05 -0.000450092 0)
(-1.93725e-05 -0.000432586 0)
(-1.84763e-05 -0.000415653 0)
(-1.75734e-05 -0.000399305 0)
(-1.66702e-05 -0.000383552 0)
(-1.5773e-05 -0.000368403 0)
(-1.48873e-05 -0.000353863 0)
(-1.40189e-05 -0.000339938 0)
(-1.31725e-05 -0.000326628 0)
(-1.23534e-05 -0.000313936 0)
(-1.1566e-05 -0.000301855 0)
(-1.08137e-05 -0.000290382 0)
(-1.01006e-05 -0.00027951 0)
(-9.42779e-06 -0.000269227 0)
(-8.79745e-06 -0.000259522 0)
(-8.20934e-06 -0.000250378 0)
(-7.66354e-06 -0.000241781 0)
(-7.15869e-06 -0.000233707 0)
(-6.69353e-06 -0.000226139 0)
(-6.26688e-06 -0.00021905 0)
(-5.87717e-06 -0.000212417 0)
(-5.52563e-06 -0.000206213 0)
(-5.21305e-06 -0.000200411 0)
(-4.94354e-06 -0.000194983 0)
(-4.72365e-06 -0.000189899 0)
(-4.56181e-06 -0.000185128 0)
(-4.47099e-06 -0.000180636 0)
(-4.47043e-06 -0.000176378 0)
(-4.58223e-06 -0.000172298 0)
(-4.83189e-06 -0.000168321 0)
(-5.24439e-06 -0.000164353 0)
(-5.83464e-06 -0.000160282 0)
(-6.60134e-06 -0.000155991 0)
(-7.51928e-06 -0.000151372 0)
(-8.53321e-06 -0.000146345 0)
(-9.55187e-06 -0.000140878 0)
(-1.04517e-05 -0.000135012 0)
(-1.10832e-05 -0.000128863 0)
(-1.12808e-05 -0.000122634 0)
(-1.08899e-05 -0.000116612 0)
(-9.79204e-06 -0.000111145 0)
(-7.92602e-06 -0.000106617 0)
(-5.30448e-06 -0.000103415 0)
(-2.046e-06 -0.000101891 0)
(1.63759e-06 -0.0001023 0)
(5.43315e-06 -0.000104794 0)
(8.96389e-06 -0.000109361 0)
(1.18187e-05 -0.000115809 0)
(1.36072e-05 -0.000123753 0)
(1.40354e-05 -0.000132614 0)
(1.29684e-05 -0.000141656 0)
(1.04856e-05 -0.000150068 0)
(6.90042e-06 -0.000157078 0)
(2.72305e-06 -0.000162065 0)
(-1.42746e-06 -0.000164671 0)
(-4.9276e-06 -0.000164848 0)
(-7.2765e-06 -0.000162866 0)
(-8.20199e-06 -0.00015922 0)
(-7.6655e-06 -0.000154517 0)
(-5.83353e-06 -0.000149393 0)
(-3.03124e-06 -0.000144389 0)
(3.14256e-07 -0.000139924 0)
(3.72651e-06 -0.000136249 0)
(6.73711e-06 -0.000133411 0)
(8.9403e-06 -0.00013127 0)
(1.00332e-05 -0.000129521 0)
(9.84667e-06 -0.000127761 0)
(8.35675e-06 -0.000125561 0)
(5.6621e-06 -0.00012254 0)
(1.94615e-06 -0.000118412 0)
(-2.55814e-06 -0.000113007 0)
(-7.59306e-06 -0.000106268 0)
(-1.28911e-05 -9.82341e-05 0)
(-1.81841e-05 -8.90286e-05 0)
(-2.32121e-05 -7.88315e-05 0)
(-2.77276e-05 -6.78792e-05 0)
(-3.15247e-05 -5.64498e-05 0)
(-3.44422e-05 -4.48393e-05 0)
(-3.63723e-05 -3.33492e-05 0)
(-3.72682e-05 -2.22674e-05 0)
(-3.71322e-05 -1.18493e-05 0)
(-3.60015e-05 -2.31467e-06 0)
(-3.39481e-05 6.15411e-06 0)
(-3.1068e-05 1.34172e-05 0)
(-2.74657e-05 1.93718e-05 0)
(-2.32528e-05 2.39468e-05 0)
(-1.85408e-05 2.70998e-05 0)
(-1.34301e-05 2.88142e-05 0)
(-7.99979e-06 2.90865e-05 0)
(-2.354e-06 2.79101e-05 0)
(3.38641e-06 2.53167e-05 0)
(9.12827e-06 2.13598e-05 0)
(1.47866e-05 1.61074e-05 0)
(2.02926e-05 9.6466e-06 0)
(2.55806e-05 2.06661e-06 0)
(3.05715e-05 -6.52747e-06 0)
(3.52108e-05 -1.60163e-05 0)
(3.94608e-05 -2.62889e-05 0)
(4.32787e-05 -3.72321e-05 0)
(4.66302e-05 -4.87349e-05 0)
(4.94853e-05 -6.06862e-05 0)
(5.18542e-05 -7.30232e-05 0)
(5.36947e-05 -8.55987e-05 0)
(5.49786e-05 -9.82458e-05 0)
(5.57108e-05 -0.000110828 0)
(5.59097e-05 -0.000123207 0)
(5.5606e-05 -0.000135252 0)
(5.48426e-05 -0.000146836 0)
(5.36809e-05 -0.000157836 0)
(5.2196e-05 -0.000168146 0)
(5.04678e-05 -0.000177673 0)
(4.85909e-05 -0.000186342 0)
(4.66587e-05 -0.000194113 0)
(4.47525e-05 -0.00020099 0)
(4.29212e-05 -0.000207045 0)
(4.1138e-05 -0.000212465 0)
(3.92289e-05 -0.00021764 0)
(3.67308e-05 -0.000223356 0)
(3.2667e-05 -0.000231213 0)
(2.50388e-05 -0.000243962 0)
(1.00775e-05 -0.000267198 0)
(-1.95534e-05 -0.000311562 0)
(-7.86694e-05 -0.000396155 0)
(-0.000195803 -0.000549427 0)
(-0.000406073 -0.000798832 0)
(-0.000715811 -0.00113882 0)
(1.75459e-07 -3.76646e-06 0)
(7.7515e-06 -6.03689e-06 0)
(1.63279e-05 -6.43611e-06 0)
(2.45717e-05 -6.13563e-06 0)
(3.2441e-05 -5.71711e-06 0)
(3.99334e-05 -5.2765e-06 0)
(4.70772e-05 -4.83112e-06 0)
(5.38834e-05 -4.36577e-06 0)
(6.03441e-05 -3.8628e-06 0)
(6.64372e-05 -3.30677e-06 0)
(7.21303e-05 -2.68321e-06 0)
(7.73797e-05 -1.97689e-06 0)
(8.21295e-05 -1.17114e-06 0)
(8.63088e-05 -2.48463e-07 0)
(8.9832e-05 8.07102e-07 0)
(9.25991e-05 2.00712e-06 0)
(9.44984e-05 3.351e-06 0)
(9.54247e-05 4.82121e-06 0)
(9.52848e-05 6.374e-06 0)
(9.40174e-05 7.94177e-06 0)
(9.16255e-05 9.4563e-06 0)
(8.82032e-05 1.08325e-05 0)
(8.3927e-05 1.19943e-05 0)
(7.90426e-05 1.28923e-05 0)
(7.38293e-05 1.35253e-05 0)
(6.85384e-05 1.39448e-05 0)
(6.33311e-05 1.42822e-05 0)
(5.82454e-05 1.47898e-05 0)
(5.31817e-05 1.594e-05 0)
(4.78862e-05 1.86058e-05 0)
(4.18358e-05 2.40116e-05 0)
(3.43644e-05 3.32404e-05 0)
(2.53699e-05 4.60766e-05 0)
(1.53805e-05 5.99482e-05 0)
(5.84904e-06 6.98821e-05 0)
(-1.04365e-06 7.06443e-05 0)
(-4.39778e-06 5.94731e-05 0)
(-3.14374e-06 3.717e-05 0)
(3.99579e-06 7.47423e-06 0)
(1.73636e-05 -2.3814e-05 0)
(3.59496e-05 -5.04021e-05 0)
(5.68703e-05 -6.69816e-05 0)
(7.47724e-05 -7.02013e-05 0)
(8.39522e-05 -6.06917e-05 0)
(8.08623e-05 -4.27938e-05 0)
(6.41827e-05 -2.2246e-05 0)
(3.62488e-05 -4.13125e-06 0)
(7.64574e-07 9.34426e-06 0)
(-3.92152e-05 1.87296e-05 0)
(-8.19947e-05 2.49086e-05 0)
(-0.000126659 2.88802e-05 0)
(-0.000172422 3.17353e-05 0)
(-0.00021923 3.42302e-05 0)
(-0.000267329 3.67609e-05 0)
(-0.000317106 3.98954e-05 0)
(-0.000369224 4.38342e-05 0)
(-0.000424492 4.87985e-05 0)
(-0.000483824 5.49093e-05 0)
(-0.000548208 6.21828e-05 0)
(-0.000618607 7.04449e-05 0)
(-0.000695795 7.93193e-05 0)
(-0.000780214 8.8282e-05 0)
(-0.000871855 9.66205e-05 0)
(-0.00097008 0.000103446 0)
(-0.00107349 0.000107759 0)
(-0.00117981 0.000108504 0)
(-0.00128591 0.000104704 0)
(-0.00138789 9.54911e-05 0)
(-0.0014811 8.0557e-05 0)
(-0.00156106 5.98559e-05 0)
(-0.00162271 3.42743e-05 0)
(-0.00166324 5.49964e-06 0)
(-0.00168031 -2.59509e-05 0)
(-0.00167051 -5.77883e-05 0)
(-0.00163589 -8.67132e-05 0)
(-0.00157936 -0.00011121 0)
(-0.00150434 -0.000130832 0)
(-0.0014144 -0.000145904 0)
(-0.00131266 -0.000157366 0)
(-0.00120139 -0.000166372 0)
(-0.00108212 -0.000173952 0)
(-0.000955693 -0.00018087 0)
(-0.00082266 -0.000187695 0)
(-0.000683198 -0.000194714 0)
(-0.000537276 -0.000202342 0)
(-0.000385167 -0.000211488 0)
(-0.000223674 -0.000222095 0)
(-4.37861e-05 -0.000225675 0)
(0.00016209 -0.000196325 0)
(0.000370616 -9.769e-05 0)
(0.000471182 4.03424e-05 0)
(0.000474996 9.21421e-05 0)
(0.000469511 3.33954e-05 0)
(0.000479283 -3.61184e-05 0)
(0.000496257 -4.08225e-05 0)
(0.000501947 1.4201e-06 0)
(0.000464514 6.64841e-05 0)
(0.000364389 0.000140035 0)
(0.000190301 0.000180427 0)
(-4.45492e-06 0.000126649 0)
(0.000120081 4.66763e-05 0)
(0.000173796 0.000295651 0)
(0.00016307 0.000553847 0)
(4.08701e-05 0.00066324 0)
(-9.36856e-05 0.000548525 0)
(-0.000159204 0.000319658 0)
(-0.000174561 5.42731e-05 0)
(-0.000157808 -0.000199692 0)
(-0.000121643 -0.00041493 0)
(-7.60589e-05 -0.000576838 0)
(-2.65544e-05 -0.00068084 0)
(2.5666e-05 -0.00072638 0)
(7.96883e-05 -0.000712206 0)
(0.00013296 -0.000638691 0)
(0.000187907 -0.000508598 0)
(0.000224817 -0.000305224 0)
(0.000168544 -5.85224e-05 0)
(3.26758e-05 0.000121261 0)
(-4.01735e-05 0.000209003 0)
(-3.59932e-05 0.000245891 0)
(-3.86834e-06 0.000270756 0)
(1.40984e-05 0.000293141 0)
(1.44589e-05 0.000305862 0)
(4.93014e-06 0.000307639 0)
(-7.86844e-06 0.000299081 0)
(-2.00966e-05 0.000277053 0)
(-2.93614e-05 0.000243436 0)
(-3.47849e-05 0.000203192 0)
(-3.74647e-05 0.000161236 0)
(-4.03741e-05 0.000120126 0)
(-4.66628e-05 7.84387e-05 0)
(-5.81115e-05 3.19997e-05 0)
(-7.66369e-05 -2.50137e-05 0)
(-0.000103145 -0.000100997 0)
(-0.000136947 -0.000202853 0)
(-0.00017653 -0.000336814 0)
(-0.000219966 -0.000508039 0)
(-0.000263858 -0.000717725 0)
(-0.000304489 -0.000965695 0)
(-0.000335199 -0.00124614 0)
(-0.000349678 -0.00154895 0)
(-0.000340123 -0.0018531 0)
(-0.000316591 -0.00214223 0)
(-0.000272786 -0.00241573 0)
(-0.0001819 -0.00264235 0)
(-5.86577e-05 -0.00276729 0)
(4.93547e-05 -0.00278484 0)
(0.000156996 -0.0027375 0)
(0.000292862 -0.00263084 0)
(0.000460933 -0.00242997 0)
(0.000636213 -0.00210735 0)
(0.000769398 -0.00167177 0)
(0.000830058 -0.0011938 0)
(0.000854867 -0.000728421 0)
(0.000852601 -0.00022053 0)
(0.000735864 0.000347481 0)
(0.000460278 0.000841263 0)
(0.000143706 0.00112741 0)
(-7.85569e-05 0.00118845 0)
(-0.000144593 0.00116013 0)
(-0.000128372 0.0011928 0)
(-0.000171158 0.00127248 0)
(-0.000297835 0.00128614 0)
(-0.000409174 0.00122829 0)
(-0.000500918 0.00129148 0)
(-0.000648359 0.0014892 0)
(-0.000537686 0.001626 0)
(0.000352403 0.00177687 0)
(0.00193998 0.00259113 0)
(0.00284657 0.00441882 0)
(0.00203885 0.00600053 0)
(0.00120513 0.00640937 0)
(0.00121644 0.00674852 0)
(0.000941647 0.00730783 0)
(0.000618992 0.00753988 0)
(0.00055848 0.007716 0)
(0.000384828 0.00791299 0)
(0.000260745 0.00797747 0)
(0.000203857 0.00803585 0)
(0.000110311 0.00806775 0)
(6.11672e-05 0.0080517 0)
(2.04761e-05 0.00803396 0)
(-2.25381e-05 0.00799477 0)
(-4.74262e-05 0.00794154 0)
(-7.49588e-05 0.00788243 0)
(-9.7644e-05 0.00781016 0)
(-0.000115856 0.00773208 0)
(-0.000135073 0.00764698 0)
(-0.000151108 0.00755473 0)
(-0.000166839 0.00745771 0)
(-0.00018219 0.00735478 0)
(-0.000196448 0.00724698 0)
(-0.000210797 0.00713458 0)
(-0.000224594 0.00701746 0)
(-0.000238036 0.00689622 0)
(-0.000251233 0.0067709 0)
(-0.000263914 0.00664178 0)
(-0.000276187 0.00650918 0)
(-0.000287905 0.00637333 0)
(-0.000298978 0.00623459 0)
(-0.000309365 0.00609329 0)
(-0.000318953 0.0059498 0)
(-0.000327685 0.00580452 0)
(-0.000335487 0.00565784 0)
(-0.000342311 0.0055102 0)
(-0.000348117 0.00536199 0)
(-0.000352883 0.00521367 0)
(-0.000356604 0.00506561 0)
(-0.000359272 0.00491823 0)
(-0.00036093 0.00477191 0)
(-0.000361612 0.004627 0)
(-0.000361364 0.00448381 0)
(-0.000360251 0.00434265 0)
(-0.00035835 0.00420377 0)
(-0.000355732 0.00406737 0)
(-0.000352476 0.00393366 0)
(-0.000348677 0.00380276 0)
(-0.000344432 0.00367481 0)
(-0.000339827 0.00354984 0)
(-0.000334948 0.00342792 0)
(-0.000329898 0.00330904 0)
(-0.00032475 0.00319317 0)
(-0.000319589 0.00308028 0)
(-0.00031449 0.00297027 0)
(-0.000309522 0.00286308 0)
(-0.000304757 0.00275857 0)
(-0.000300256 0.00265662 0)
(-0.000296064 0.00255708 0)
(-0.000292228 0.00245982 0)
(-0.000288806 0.00236468 0)
(-0.000285822 0.00227147 0)
(-0.000283313 0.00218005 0)
(-0.000281317 0.00209024 0)
(-0.000279845 0.00200186 0)
(-0.000278919 0.00191475 0)
(-0.000278562 0.00182873 0)
(-0.00027878 0.00174364 0)
(-0.00027958 0.00165932 0)
(-0.000280979 0.00157562 0)
(-0.000282975 0.00149235 0)
(-0.00028557 0.0014094 0)
(-0.000288757 0.0013266 0)
(-0.000292536 0.00124382 0)
(-0.000296908 0.00116094 0)
(-0.000301857 0.00107785 0)
(-0.000307402 0.000994485 0)
(-0.000313623 0.000910827 0)
(-0.000320647 0.000826668 0)
(-0.000328436 0.000741733 0)
(-0.000336905 0.00065592 0)
(-0.000345972 0.000569198 0)
(-0.000355651 0.000481604 0)
(-0.000366224 0.000392892 0)
(-0.000385761 0.000308978 0)
(-0.000410222 0.000221864 0)
(-0.000433048 0.000126951 0)
(-0.000452659 2.57769e-05 0)
(-0.000468174 -7.88302e-05 0)
(-0.000479801 -0.000183858 0)
(-0.000488823 -0.000287165 0)
(-0.000496867 -0.000388131 0)
(-0.000505057 -0.000487098 0)
(-0.00051413 -0.000584838 0)
(-0.000524482 -0.000682217 0)
(-0.00053637 -0.00078015 0)
(-0.000552374 -0.00088369 0)
(-0.000572521 -0.000994124 0)
(-0.000593762 -0.0011064 0)
(-0.000616252 -0.00122085 0)
(-0.000640076 -0.00133754 0)
(-0.0006654 -0.00145661 0)
(-0.000692385 -0.00157816 0)
(-0.000721228 -0.00170232 0)
(-0.00075217 -0.00182923 0)
(-0.00078546 -0.00195905 0)
(-0.000821382 -0.00209196 0)
(-0.000860265 -0.00222814 0)
(-0.000902468 -0.0023678 0)
(-0.000948429 -0.00251114 0)
(-0.000998623 -0.00265843 0)
(-0.00105359 -0.0028099 0)
(-0.00111396 -0.00296588 0)
(-0.00118039 -0.00312671 0)
(-0.00125368 -0.00329275 0)
(-0.00133466 -0.00346449 0)
(-0.00142427 -0.00364224 0)
(-0.00152361 -0.00382679 0)
(-0.00163374 -0.00401813 0)
(-0.00175624 -0.00421808 0)
(-0.00189203 -0.004425 0)
(-0.00204379 -0.00464433 0)
(-0.00221108 -0.00486787 0)
(-0.00240027 -0.00511411 0)
(-0.0026048 -0.00535089 0)
(-0.00284325 -0.00564177 0)
(-0.00308601 -0.00587219 0)
(-0.00339057 -0.0062549 0)
(-0.00364348 -0.00640504 0)
(-0.00400796 -0.00700669 0)
(-0.00402816 -0.00676415 0)
)
;
    }
    frontAndBack
    {
        type            empty;
    }
}


// ************************************************************************* //
