/*--------------------------------*- C++ -*----------------------------------*\
  =========                 |
  \\      /  F ield         | OpenFOAM: The Open Source CFD Toolbox
   \\    /   O peration     | Website:  https://openfoam.org
    \\  /    A nd           | Version:  7
     \\/     M anipulation  |
\*---------------------------------------------------------------------------*/
FoamFile
{
    version     2.0;
    format      ascii;
    class       volScalarField;
    location    "0.02";
    object      nut;
}
// * * * * * * * * * * * * * * * * * * * * * * * * * * * * * * * * * * * * * //

dimensions      [0 2 -1 0 0 0 0];

internalField   nonuniform List<scalar> 
70000
(
9.9641e-12
6.89141e-14
2.52901e-16
8.34013e-17
5.04316e-17
8.26746e-17
2.977e-17
1.43286e-17
9.95624e-18
7.45452e-18
5.62219e-18
4.32699e-18
3.41756e-18
2.76357e-18
2.28081e-18
1.91662e-18
1.63732e-18
1.4198e-18
1.24891e-18
1.11344e-18
1.00585e-18
9.20542e-19
8.53546e-19
8.0222e-19
7.64277e-19
7.39436e-19
7.2531e-19
7.25694e-19
7.34356e-19
7.65392e-19
7.98993e-19
8.76752e-19
9.39493e-19
1.10153e-18
1.19849e-18
1.52423e-18
1.66973e-18
2.28927e-18
2.60607e-18
3.49392e-18
4.99443e-18
4.37439e-18
1.48207e-17
1.78267e-18
9.38433e-17
3.0406e-18
1.32187e-15
1.21459e-15
1.97593e-14
3.06807e-11
1.04301e-10
5.98184e-12
6.42997e-14
2.14586e-14
2.87739e-16
1.68906e-17
2.53981e-17
2.14145e-17
1.25403e-17
7.55354e-18
5.0291e-18
3.57629e-18
2.64943e-18
2.02566e-18
1.59109e-18
1.27968e-18
1.05073e-18
8.79034e-19
7.47614e-19
6.45612e-19
5.6538e-19
5.01653e-19
4.5077e-19
4.09903e-19
3.77549e-19
3.51499e-19
3.32524e-19
3.16842e-19
3.10044e-19
3.02334e-19
3.10882e-19
3.09165e-19
3.42951e-19
3.44233e-19
4.25816e-19
4.26177e-19
5.95825e-19
6.09014e-19
8.91828e-19
1.10123e-18
1.22018e-18
3.1118e-18
1.24857e-18
2.015e-17
1.24434e-17
3.60247e-16
9.88835e-16
1.00947e-14
4.53482e-14
9.01472e-12
3.19417e-10
3.3876e-12
1.8941e-13
1.9732e-14
7.35734e-16
5.29849e-17
6.16852e-18
3.5488e-18
1.73409e-18
8.19979e-19
4.3749e-19
2.59423e-19
1.64038e-19
1.08523e-19
7.46447e-20
5.32542e-20
3.93216e-20
3.00566e-20
2.37492e-20
1.94364e-20
1.65029e-20
1.45917e-20
1.35106e-20
1.31674e-20
1.36414e-20
1.50104e-20
1.78193e-20
2.23072e-20
3.03391e-20
4.23211e-20
6.40009e-20
9.55752e-20
1.54221e-19
2.3798e-19
3.96162e-19
6.17844e-19
1.03749e-18
1.61873e-18
2.71457e-18
4.22304e-18
7.14743e-18
1.11735e-17
2.11148e-17
3.80594e-17
1.20554e-16
3.98243e-16
2.34605e-15
1.3039e-14
5.33224e-14
3.94701e-12
6.1564e-09
1.92099e-11
7.75851e-13
6.00424e-14
5.25027e-15
8.6207e-16
9.49467e-17
2.33588e-17
9.01824e-18
3.60884e-18
1.47838e-18
6.49666e-19
3.03516e-19
1.46115e-19
7.05581e-20
3.33679e-20
1.50048e-20
6.12332e-21
2.07546e-21
4.73218e-22
3.29179e-23
2.17045e-24
1.79756e-22
1.05167e-21
3.36681e-21
8.32034e-21
1.79124e-20
3.55563e-20
6.70411e-20
1.22144e-19
2.17526e-19
3.80095e-19
6.5764e-19
1.11887e-18
1.90291e-18
3.15994e-18
5.32333e-18
8.60027e-18
1.45237e-17
2.26408e-17
3.91946e-17
5.80904e-17
1.08989e-16
1.57095e-16
3.8793e-16
7.65456e-16
3.21863e-15
1.56633e-14
3.23011e-14
2.402e-12
2.33276e-09
2.22618e-10
4.39982e-12
3.15542e-13
2.19466e-14
4.08323e-15
6.29737e-16
1.65142e-16
6.29649e-17
2.5641e-17
1.07571e-17
4.80365e-18
2.2779e-18
1.12164e-18
5.61657e-19
2.81005e-19
1.37811e-19
6.45265e-20
2.76534e-20
1.00278e-20
2.57154e-21
2.54924e-22
1.90686e-24
5.54505e-22
3.93363e-21
1.37804e-20
3.60765e-20
8.11869e-20
1.6706e-19
3.24548e-19
6.07704e-19
1.10337e-18
1.9734e-18
3.43823e-18
5.99063e-18
1.00848e-17
1.73207e-17
2.81515e-17
4.83122e-17
7.53628e-17
1.31644e-16
1.94661e-16
3.57071e-16
5.03253e-16
1.05951e-15
1.7742e-15
4.88916e-15
2.05597e-14
1.65646e-14
1.83003e-12
3.03175e-09
5.29489e-09
4.29642e-11
1.90284e-12
1.02382e-13
1.65548e-14
2.82616e-15
7.7534e-16
2.96562e-16
1.22689e-16
5.25716e-17
2.38773e-17
1.14843e-17
5.74636e-18
2.94073e-18
1.51773e-18
7.78834e-19
3.90269e-19
1.85983e-19
8.06899e-20
2.93318e-20
7.34644e-21
6.28215e-22
1.14158e-23
2.35561e-21
1.57871e-20
5.4798e-20
1.44287e-19
3.28101e-19
6.82736e-19
1.34466e-18
2.53617e-18
4.67611e-18
8.34163e-18
1.4831e-17
2.53497e-17
4.41729e-17
7.24831e-17
1.25754e-16
1.9712e-16
3.46813e-16
5.12644e-16
9.36896e-16
1.3016e-15
2.58326e-15
3.93566e-15
8.39677e-15
2.89821e-14
1.10732e-14
1.58183e-12
1.07695e-09
4.75329e-09
3.68181e-09
1.80148e-11
6.31474e-13
8.35964e-14
1.31245e-14
3.37208e-15
1.22636e-15
4.97211e-16
2.12267e-16
9.6538e-17
4.66007e-17
2.34725e-17
1.21426e-17
6.37141e-18
3.35115e-18
1.74213e-18
8.78034e-19
4.16535e-19
1.76765e-19
6.05796e-20
1.29182e-20
5.25459e-22
4.24292e-22
1.3508e-20
7.11626e-20
2.27323e-19
5.76656e-19
1.28728e-18
2.65911e-18
5.19438e-18
9.82593e-18
1.78924e-17
3.23047e-17
5.59552e-17
9.84653e-17
1.63049e-16
2.84634e-16
4.48915e-16
7.91869e-16
1.17473e-15
2.13604e-15
2.96422e-15
5.66534e-15
8.3025e-15
1.50599e-14
4.42942e-14
1.33128e-14
1.44224e-12
2.42363e-09
3.85828e-09
8.11702e-10
2.3137e-09
7.99899e-12
6.43144e-13
7.73659e-14
1.66292e-14
5.37729e-15
2.0253e-15
8.24792e-16
3.63393e-16
1.71734e-16
8.53768e-17
4.38871e-17
2.30248e-17
1.21882e-17
6.42833e-18
3.32382e-18
1.64601e-18
7.51894e-19
2.956e-19
8.58947e-20
1.14919e-20
7.67064e-24
9.56004e-21
9.02151e-20
3.55988e-19
1.00335e-18
2.38299e-18
5.11762e-18
1.02692e-17
1.97792e-17
3.65249e-17
6.65499e-17
1.16247e-16
2.0547e-16
3.42266e-16
5.98103e-16
9.48147e-16
1.6673e-15
2.48851e-15
4.47309e-15
6.2661e-15
1.1529e-14
1.68452e-14
2.73078e-14
7.17522e-14
2.72141e-14
1.36127e-12
3.36434e-09
4.35855e-09
5.81886e-10
2.94233e-10
5.34139e-10
1.62645e-11
8.02803e-13
1.14724e-13
2.94891e-14
9.60129e-15
3.53017e-15
1.44234e-15
6.44284e-16
3.071e-16
1.53013e-16
7.84918e-17
4.09326e-17
2.14217e-17
1.10779e-17
5.54301e-18
2.59851e-18
1.07872e-18
3.5346e-19
6.69685e-20
1.42395e-21
7.05339e-21
1.30662e-19
6.17614e-19
1.88178e-18
4.65514e-18
1.02244e-17
2.07965e-17
4.03406e-17
7.48478e-17
1.36519e-16
2.38863e-16
4.2133e-16
7.02602e-16
1.22193e-15
1.94129e-15
3.38328e-15
5.07869e-15
8.96884e-15
1.27318e-14
2.25136e-14
3.32489e-14
5.00358e-14
1.20368e-13
6.61412e-14
1.34585e-12
3.40515e-09
4.59523e-09
6.61775e-10
1.88794e-10
4.43196e-11
6.2905e-11
2.13961e-10
2.11398e-12
2.79146e-13
6.53097e-14
1.95086e-14
6.88802e-15
2.762e-15
1.21232e-15
5.66272e-16
2.75924e-16
1.38072e-16
6.99087e-17
3.52263e-17
1.72925e-17
8.01537e-18
3.32696e-18
1.11371e-18
2.29396e-19
8.38281e-21
9.15883e-21
2.56344e-19
1.30775e-18
4.08089e-18
1.01652e-17
2.23062e-17
4.51861e-17
8.70674e-17
1.60483e-16
2.90246e-16
5.04564e-16
8.81688e-16
1.46292e-15
2.51652e-15
3.98871e-15
6.85078e-15
1.03124e-14
1.78034e-14
2.55669e-14
4.34647e-14
6.48808e-14
9.33625e-14
2.07471e-13
1.55824e-13
1.42232e-12
3.20545e-09
4.37789e-09
7.61023e-10
1.96701e-10
3.40641e-11
1.97595e-11
1.16695e-11
1.82978e-11
6.76567e-11
1.34602e-12
2.03518e-13
5.03807e-14
1.61092e-14
6.02556e-15
2.4944e-15
1.10476e-15
5.11246e-16
2.4232e-16
1.15288e-16
5.37396e-17
2.37204e-17
9.36807e-18
2.9599e-18
5.57043e-19
1.42504e-20
3.5893e-20
7.65404e-19
3.61414e-18
1.07745e-17
2.59394e-17
5.53307e-17
1.09394e-16
2.06154e-16
3.72716e-16
6.61419e-16
1.13203e-15
1.94424e-15
3.18713e-15
5.38801e-15
8.47152e-15
1.42609e-14
2.14227e-14
3.60031e-14
5.2046e-14
8.51364e-14
1.27736e-13
1.7899e-13
3.68406e-13
3.43669e-13
1.6431e-12
3.01068e-09
3.95818e-09
8.32061e-10
2.0675e-10
3.59879e-11
1.80394e-11
7.32264e-12
3.67554e-12
3.23865e-12
5.41436e-12
1.25219e-10
1.81324e-12
2.19332e-13
5.19591e-14
1.62578e-14
5.91778e-15
2.35752e-15
9.88986e-16
4.23376e-16
1.79018e-16
7.16436e-17
2.53078e-17
6.8438e-18
9.35973e-19
2.1956e-21
3.3449e-19
3.49175e-18
1.34012e-17
3.57922e-17
8.0036e-17
1.6145e-16
3.0513e-16
5.53311e-16
9.68037e-16
1.66681e-15
2.78086e-15
4.65451e-15
7.47868e-15
1.23401e-14
1.91178e-14
3.13636e-14
4.67304e-14
7.61339e-14
1.10044e-13
1.73239e-13
2.59206e-13
3.56586e-13
6.79815e-13
7.27029e-13
2.11772e-12
2.83898e-09
3.49685e-09
8.9223e-10
2.03484e-10
3.9076e-11
1.92445e-11
7.5958e-12
3.05577e-12
1.81357e-12
1.3352e-12
1.15683e-12
1.35543e-12
3.36948e-12
6.47951e-12
3.8142e-13
6.77965e-14
1.79963e-14
5.72931e-15
1.98039e-15
6.94879e-16
2.30929e-16
6.53593e-17
1.24567e-17
6.41895e-19
8.80236e-20
4.58377e-18
2.32714e-17
6.77103e-17
1.54364e-16
3.09625e-16
5.75288e-16
1.01765e-15
1.74551e-15
2.91222e-15
4.80545e-15
7.72874e-15
1.24862e-14
1.94873e-14
3.11387e-14
4.71642e-14
7.49176e-14
1.09901e-13
1.72757e-13
2.47632e-13
3.74828e-13
5.5401e-13
7.49342e-13
1.32154e-12
1.5279e-12
3.08985e-12
2.66866e-09
3.03995e-09
9.5968e-10
1.91718e-10
4.1844e-11
2.0345e-11
8.5718e-12
3.23917e-12
1.72585e-12
1.08231e-12
7.1299e-13
5.05279e-13
4.05301e-13
3.86604e-13
4.87248e-13
1.13915e-12
3.31882e-11
3.18906e-15
9.23358e-15
2.57902e-15
5.91685e-16
9.5688e-17
4.73474e-18
3.0378e-19
1.88492e-17
8.95509e-17
2.39305e-16
5.02862e-16
9.32473e-16
1.61251e-15
2.67249e-15
4.30925e-15
6.8391e-15
1.06777e-14
1.66138e-14
2.5391e-14
3.90982e-14
5.85878e-14
8.97367e-14
1.31569e-13
2.00661e-13
2.87137e-13
4.32773e-13
6.09076e-13
8.83961e-13
1.27651e-12
1.69189e-12
2.75482e-12
3.29891e-12
5.14259e-12
2.48988e-09
2.60365e-09
1.03786e-09
1.77005e-10
4.47474e-11
2.08932e-11
9.64548e-12
3.57781e-12
1.8378e-12
1.10736e-12
6.80397e-13
4.27186e-13
2.83477e-13
2.00875e-13
1.52677e-13
1.265e-13
1.18653e-13
1.36541e-13
2.33042e-13
1.01567e-12
7.25144e-11
1.39344e-12
2.83223e-14
6.92497e-15
4.7667e-15
4.91947e-15
5.93735e-15
7.66454e-15
1.02177e-14
1.38917e-14
1.91464e-14
2.66451e-14
3.74568e-14
5.28095e-14
7.52146e-14
1.06518e-13
1.52988e-13
2.1596e-13
3.11825e-13
4.35784e-13
6.29816e-13
8.67241e-13
1.24097e-12
1.6919e-12
2.3398e-12
3.25709e-12
4.197e-12
6.28875e-12
7.54814e-12
9.79736e-12
2.30324e-09
2.202e-09
1.12144e-09
1.6192e-10
4.82207e-11
2.10112e-11
1.0727e-11
3.95082e-12
1.98729e-12
1.18921e-12
7.21282e-13
4.37089e-13
2.73174e-13
1.7723e-13
1.18613e-13
8.16657e-14
5.80184e-14
4.28691e-14
3.34426e-14
2.83585e-14
2.77006e-14
3.49561e-14
7.10471e-14
3.44407e-13
7.764e-12
2.14258e-10
1.25264e-11
1.88228e-12
7.51288e-13
4.81774e-13
3.996e-13
3.86037e-13
4.11977e-13
4.68335e-13
5.60018e-13
6.86988e-13
8.71637e-13
1.1087e-12
1.45411e-12
1.87605e-12
2.5015e-12
3.23226e-12
4.30707e-12
5.56642e-12
7.23675e-12
9.52819e-12
1.17689e-11
1.61182e-11
1.88506e-11
2.14478e-11
2.11104e-09
1.84131e-09
1.20314e-09
1.47486e-10
5.22951e-11
2.08169e-11
1.18303e-11
4.35305e-12
2.14312e-12
1.28102e-12
7.79539e-13
4.68173e-13
2.86464e-13
1.79943e-13
1.14926e-13
7.40131e-14
4.78544e-14
3.09623e-14
1.99694e-14
1.27793e-14
8.07849e-15
5.03297e-15
3.1141e-15
1.98315e-15
1.45573e-15
1.5987e-15
3.83431e-15
2.3917e-14
3.32258e-13
8.68996e-12
1.90858e-10
2.19536e-10
6.66563e-11
2.8524e-11
1.74439e-11
1.33349e-11
1.18753e-11
1.15302e-11
1.21239e-11
1.3113e-11
1.49584e-11
1.70346e-11
2.01386e-11
2.35905e-11
2.7919e-11
3.36358e-11
3.87876e-11
4.78129e-11
5.29076e-11
5.43188e-11
1.91494e-09
1.52204e-09
1.27636e-09
1.34453e-10
5.67259e-11
2.03754e-11
1.29482e-11
4.79907e-12
2.30507e-12
1.37387e-12
8.41703e-13
5.04656e-13
3.05703e-13
1.89156e-13
1.18264e-13
7.38518e-14
4.56925e-14
2.77813e-14
1.64081e-14
9.24734e-15
4.83199e-15
2.22372e-15
8.12867e-16
1.8071e-16
7.23699e-18
6.87292e-18
2.05154e-16
1.01771e-15
2.91374e-15
6.03921e-15
9.26206e-15
8.48453e-15
1.41053e-15
8.97838e-15
1.36412e-12
3.68021e-11
2.80235e-10
4.70164e-10
3.77465e-10
2.69498e-10
2.08606e-10
1.74094e-10
1.58699e-10
1.50756e-10
1.49781e-10
1.54252e-10
1.57681e-10
1.69246e-10
1.70828e-10
1.59897e-10
1.71719e-09
1.24408e-09
1.33545e-09
1.23684e-10
6.1113e-11
1.9755e-11
1.40399e-11
5.2994e-12
2.47641e-12
1.46713e-12
9.05131e-13
5.42772e-13
3.2621e-13
1.99596e-13
1.23006e-13
7.52871e-14
4.52722e-14
2.64359e-14
1.47344e-14
7.62164e-15
3.48212e-15
1.27082e-15
2.86796e-16
1.27402e-17
8.70491e-18
3.00682e-16
1.61009e-15
5.14311e-15
1.29576e-14
2.8542e-14
5.80039e-14
1.10974e-13
2.04215e-13
3.58489e-13
6.06725e-13
9.52027e-13
1.36072e-12
1.5482e-12
1.0455e-12
6.58014e-14
1.76672e-12
6.74783e-11
3.65298e-10
6.74813e-10
7.79844e-10
7.59931e-10
7.03219e-10
6.57825e-10
5.98896e-10
5.21012e-10
1.52057e-09
1.00713e-09
1.3755e-09
1.16071e-10
6.49394e-11
1.90518e-11
1.50427e-11
5.8598e-12
2.65876e-12
1.56045e-12
9.6894e-13
5.8165e-13
3.46796e-13
2.09761e-13
1.27478e-13
7.65892e-14
4.48812e-14
2.52714e-14
1.33638e-14
6.38136e-15
2.55361e-15
7.21472e-16
8.14734e-17
4.47388e-20
1.40772e-16
1.10771e-15
4.03734e-15
1.07691e-14
2.44276e-14
5.02877e-14
9.76938e-14
1.82029e-13
3.31588e-13
5.90103e-13
1.04211e-12
1.80692e-12
3.12768e-12
5.3171e-12
8.99442e-12
1.49194e-11
2.39231e-11
3.70159e-11
4.9178e-11
5.41752e-11
2.74117e-11
5.45811e-13
2.74204e-11
3.33691e-10
7.64453e-10
1.01833e-09
1.32803e-09
8.10028e-10
1.39251e-09
1.12445e-10
6.76106e-11
1.83874e-11
1.58814e-11
6.48243e-12
2.85276e-12
1.65272e-12
1.03181e-12
6.2061e-13
3.66942e-13
2.19098e-13
1.31104e-13
7.71892e-14
4.39815e-14
2.37998e-14
1.18715e-14
5.17044e-15
1.75718e-15
3.4448e-16
8.0013e-18
2.94311e-17
5.8644e-16
2.73306e-15
8.07823e-15
1.91982e-14
4.04001e-14
7.87945e-14
1.46763e-13
2.64363e-13
4.67835e-13
8.13273e-13
1.40651e-12
2.40336e-12
4.1107e-12
6.97547e-12
1.18732e-11
2.02007e-11
3.43199e-11
5.90731e-11
1.00026e-10
1.74181e-10
2.91994e-10
4.92167e-10
7.88039e-10
1.03193e-09
1.14189e-09
4.64325e-10
1.14255e-09
6.50463e-10
1.38359e-09
1.13519e-10
6.85664e-11
1.78921e-11
1.64771e-11
7.16472e-12
3.05871e-12
1.74242e-12
1.09182e-12
6.58604e-13
3.8605e-13
2.27157e-13
1.33531e-13
7.68198e-14
4.2377e-14
2.18838e-14
1.01692e-14
3.93838e-15
1.06402e-15
1.09327e-16
2.42012e-19
2.29042e-16
1.66228e-15
5.77122e-15
1.4785e-14
3.2234e-14
6.39404e-14
1.1934e-13
2.14616e-13
3.75617e-13
6.48188e-13
1.10304e-12
1.86973e-12
3.14197e-12
5.28385e-12
8.84667e-12
1.48483e-11
2.4992e-11
4.20842e-11
7.1898e-11
1.22222e-10
2.13556e-10
3.71294e-10
6.61448e-10
1.19758e-09
2.07273e-09
3.60083e-09
5.06554e-09
9.67051e-10
5.2507e-10
1.34733e-09
1.19887e-10
6.7422e-11
1.76824e-11
1.67602e-11
7.89694e-12
3.2768e-12
1.82782e-12
1.14661e-12
6.94178e-13
4.03321e-13
2.33405e-13
1.34404e-13
7.52681e-14
3.99645e-14
1.94995e-14
8.28402e-15
2.73523e-15
5.15884e-16
1.06334e-17
4.73382e-17
8.72629e-16
3.91146e-15
1.11757e-14
2.57222e-14
5.23386e-14
9.88247e-14
1.77634e-13
3.09836e-13
5.28767e-13
8.92525e-13
1.49076e-12
2.48332e-12
4.11297e-12
6.81734e-12
1.12801e-11
1.87002e-11
3.11458e-11
5.19203e-11
8.77431e-11
1.48134e-10
2.55568e-10
4.42491e-10
7.78035e-10
1.39426e-09
2.40241e-09
4.07944e-09
5.8837e-09
8.04244e-10
4.29651e-10
1.28411e-09
1.3201e-10
6.40408e-11
1.78412e-11
1.66815e-11
8.65915e-12
3.50701e-12
1.90699e-12
1.19351e-12
7.25481e-13
4.17754e-13
2.37221e-13
1.33337e-13
7.23344e-14
3.66832e-14
1.66787e-14
6.2978e-15
1.6499e-15
1.61231e-16
5.28325e-19
3.5231e-16
2.44615e-15
8.21892e-15
2.04116e-14
4.31852e-14
8.29826e-14
1.50177e-13
2.61122e-13
4.4313e-13
7.39119e-13
1.22263e-12
2.00743e-12
3.29133e-12
5.37933e-12
8.80207e-12
1.44097e-11
2.36372e-11
3.90065e-11
6.44843e-11
1.07971e-10
1.81173e-10
3.09174e-10
5.31887e-10
9.21783e-10
1.6226e-09
2.73754e-09
4.46813e-09
6.3289e-09
6.56437e-10
3.59485e-10
1.19615e-09
1.50096e-10
5.85734e-11
1.84048e-11
1.62242e-11
9.41784e-12
3.74889e-12
1.97774e-12
1.22961e-12
7.5028e-13
4.28148e-13
2.3792e-13
1.29943e-13
6.78528e-14
3.25248e-14
1.35097e-14
4.33652e-15
7.8573e-16
1.41232e-17
7.8704e-17
1.3386e-15
5.77348e-15
1.59851e-14
3.56932e-14
7.05227e-14
1.29084e-13
2.25074e-13
3.79855e-13
6.28639e-13
1.02648e-12
1.6661e-12
2.69144e-12
4.34687e-12
7.01405e-12
1.13376e-11
1.83685e-11
2.98346e-11
4.87917e-11
8.00373e-11
1.32839e-10
2.21547e-10
3.7432e-10
6.39115e-10
1.09256e-09
1.88626e-09
3.11016e-09
4.88666e-09
6.755e-09
5.25349e-10
3.09682e-10
1.0875e-09
1.73885e-10
5.14876e-11
1.93426e-11
1.54129e-11
1.01238e-11
4.00101e-12
2.03759e-12
1.25201e-12
7.66027e-13
4.3313e-13
2.34786e-13
1.23877e-13
6.17289e-14
2.75615e-14
1.01509e-14
2.56544e-15
2.32914e-16
1.45892e-18
5.74775e-16
3.76863e-15
1.22061e-14
2.9385e-14
6.03295e-14
1.12589e-13
1.97589e-13
3.33286e-13
5.47415e-13
8.85097e-13
1.41656e-12
2.25816e-12
3.59085e-12
5.71531e-12
9.10527e-12
1.45417e-11
2.33097e-11
3.74854e-11
6.0723e-11
9.87922e-11
1.62426e-10
2.68878e-10
4.49415e-10
7.59432e-10
1.2785e-09
2.15777e-09
3.46623e-09
5.24565e-09
7.05534e-09
4.11976e-10
2.75432e-10
9.63785e-10
2.02373e-10
4.35441e-11
2.0531e-11
1.43163e-11
1.07131e-11
4.26006e-12
2.08369e-12
1.25794e-12
7.69991e-13
4.312e-13
2.27133e-13
1.14892e-13
5.39881e-14
2.19774e-14
6.83988e-15
1.17072e-15
1.5961e-17
1.46046e-16
2.18153e-15
8.95198e-15
2.39081e-14
5.17465e-14
9.92151e-14
1.76369e-13
2.98253e-13
4.88224e-13
7.82045e-13
1.23712e-12
1.94245e-12
3.043e-12
4.76446e-12
7.47441e-12
1.17544e-11
1.85443e-11
2.93926e-11
4.67724e-11
7.49749e-11
1.20828e-10
1.96502e-10
3.22083e-10
5.31387e-10
8.85066e-10
1.46196e-09
2.40115e-09
3.74201e-09
5.45469e-09
7.12912e-09
3.16515e-10
2.52201e-10
8.32402e-10
2.33458e-10
3.57144e-11
2.17419e-11
1.30392e-11
1.11124e-11
4.51954e-12
2.11288e-12
1.24495e-12
7.59497e-13
4.2084e-13
2.14386e-13
1.02918e-13
4.48326e-14
1.60967e-14
3.88688e-15
3.10667e-16
5.60485e-18
1.02443e-15
6.16577e-15
1.90643e-14
4.42788e-14
8.80967e-14
1.5952e-13
2.71831e-13
4.4467e-13
7.08156e-13
1.10802e-12
1.71671e-12
2.64597e-12
4.07498e-12
6.2821e-12
9.71259e-12
1.50702e-11
2.34738e-11
3.67546e-11
5.78122e-11
9.15668e-11
1.45887e-10
2.34161e-10
3.78747e-10
6.14661e-10
1.00393e-09
1.61882e-09
2.57459e-09
3.87646e-09
5.44522e-09
6.91814e-09
2.38279e-10
2.36061e-10
7.02158e-10
2.63795e-10
2.89808e-11
2.26756e-11
1.17055e-11
1.12481e-11
4.76814e-12
2.12189e-12
1.21117e-12
7.32268e-13
4.00687e-13
1.96197e-13
8.81476e-14
3.46983e-14
1.03969e-14
1.63399e-15
1.21146e-17
3.14445e-16
3.84896e-15
1.47327e-14
3.76308e-14
7.85757e-14
1.45945e-13
2.51655e-13
4.13082e-13
6.55626e-13
1.01774e-12
1.55732e-12
2.36485e-12
3.57912e-12
5.41912e-12
8.22345e-12
1.25245e-11
1.91585e-11
2.94349e-11
4.54674e-11
7.05733e-11
1.10216e-10
1.7312e-10
2.73378e-10
4.34429e-10
6.90202e-10
1.09875e-09
1.71893e-09
2.63371e-09
3.81697e-09
5.16868e-09
6.38523e-09
1.75847e-10
2.23817e-10
5.80456e-10
2.89388e-10
2.40322e-11
2.30081e-11
1.04364e-11
1.10588e-11
4.98747e-12
2.10746e-12
1.1554e-12
6.8684e-13
3.69787e-13
1.72599e-13
7.11378e-14
2.42967e-14
5.48177e-15
3.48991e-16
2.74778e-17
2.03869e-15
1.08641e-14
3.15903e-14
7.0251e-14
1.34824e-13
2.36399e-13
3.90608e-13
6.19939e-13
9.5687e-13
1.44991e-12
2.17149e-12
3.2332e-12
4.80499e-12
7.15062e-12
1.06747e-11
1.60022e-11
2.41034e-11
3.64738e-11
5.54755e-11
8.47695e-11
1.30158e-10
2.00802e-10
3.10612e-10
4.82232e-10
7.4539e-10
1.14828e-09
1.7303e-09
2.53945e-09
3.52685e-09
4.59505e-09
5.49936e-09
1.27366e-10
2.12735e-10
4.7118e-10
3.06694e-10
2.11377e-11
2.2448e-11
9.3263e-12
1.05131e-11
5.15065e-12
2.0665e-12
1.07727e-12
6.23022e-13
3.27943e-13
1.44182e-13
5.28931e-14
1.46099e-14
1.97527e-15
2.746e-18
7.94221e-16
7.45551e-15
2.60193e-14
6.28136e-14
1.2568e-13
2.25136e-13
3.75747e-13
5.97793e-13
9.20018e-13
1.38339e-12
2.04825e-12
3.00382e-12
4.38559e-12
6.39785e-12
9.35234e-12
1.37211e-11
2.022e-11
2.99396e-11
4.45289e-11
6.65137e-11
9.97312e-11
1.49964e-10
2.26116e-10
3.40655e-10
5.13058e-10
7.65493e-10
1.13135e-09
1.62759e-09
2.27043e-09
2.99807e-09
3.72653e-09
4.26083e-09
9.07138e-11
2.0067e-10
3.75937e-10
3.13419e-10
2.02903e-11
2.08459e-11
8.42265e-12
9.6232e-12
5.22337e-12
1.99624e-12
9.77417e-13
5.42343e-13
2.76125e-13
1.1229e-13
3.49032e-14
6.78649e-15
2.6681e-16
1.52109e-16
4.56579e-15
2.08086e-14
5.60204e-14
1.18157e-13
2.17428e-13
3.67627e-13
5.87692e-13
9.03595e-13
1.35153e-12
1.98233e-12
2.86974e-12
4.12156e-12
5.89898e-12
8.44187e-12
1.21093e-11
1.74353e-11
2.52117e-11
3.66127e-11
5.3368e-11
7.80153e-11
1.14287e-10
1.67427e-10
2.45151e-10
3.57037e-10
5.17056e-10
7.37305e-10
1.03422e-09
1.40393e-09
1.83876e-09
2.27346e-09
2.64084e-09
2.79458e-09
6.36728e-11
1.86403e-10
2.95346e-10
3.08749e-10
2.13702e-11
1.8286e-11
7.71971e-12
8.4488e-12
5.16759e-12
1.89435e-12
8.57816e-13
4.48373e-13
2.16882e-13
7.91716e-14
1.90659e-14
1.85025e-15
1.06745e-18
2.3315e-15
1.59241e-14
4.96123e-14
1.11957e-13
2.13033e-13
3.66121e-13
5.89171e-13
9.065e-13
1.35086e-12
1.96698e-12
2.81663e-12
3.98795e-12
5.60801e-12
7.86346e-12
1.10273e-11
1.54991e-11
2.1858e-11
3.09383e-11
4.39299e-11
6.25204e-11
8.90338e-11
1.26711e-10
1.79633e-10
2.53346e-10
3.53304e-10
4.86543e-10
6.54727e-10
8.59339e-10
1.08257e-09
1.30503e-09
1.47087e-09
1.53891e-09
1.43067e-09
4.4157e-11
1.69599e-10
2.29146e-10
2.93266e-10
2.41645e-11
1.50653e-11
7.16505e-12
7.08894e-12
4.94824e-12
1.75889e-12
7.22067e-13
3.4681e-13
1.54602e-13
4.79925e-14
7.38352e-15
8.20241e-17
8.74719e-16
1.15026e-14
4.34065e-14
1.06707e-13
2.11799e-13
3.71489e-13
6.02972e-13
9.2937e-13
1.38143e-12
1.99965e-12
2.83801e-12
3.96961e-12
5.49669e-12
7.56415e-12
1.03805e-11
1.42435e-11
1.95767e-11
2.69722e-11
3.72491e-11
5.1509e-11
7.12245e-11
9.82241e-11
1.34827e-10
1.83373e-10
2.4654e-10
3.25241e-10
4.19922e-10
5.2448e-10
6.31727e-10
7.21039e-10
7.76212e-10
7.65993e-10
6.8472e-10
5.21895e-10
3.03413e-11
1.50624e-10
1.76236e-10
2.68727e-10
2.82798e-11
1.16044e-11
6.67269e-12
5.66566e-12
4.54283e-12
1.58843e-12
5.75781e-13
2.45261e-13
9.54372e-14
2.25292e-14
1.24658e-15
1.47159e-16
7.73089e-15
3.75152e-14
1.02155e-13
2.13471e-13
3.84213e-13
6.30654e-13
9.74881e-13
1.44627e-12
2.08297e-12
2.93375e-12
4.0618e-12
5.55047e-12
7.51366e-12
1.01092e-11
1.35582e-11
1.81667e-11
2.43529e-11
3.26709e-11
4.38406e-11
5.87406e-11
7.84251e-11
1.03947e-10
1.36356e-10
1.75972e-10
2.22588e-10
2.73475e-10
3.24951e-10
3.68368e-10
3.96247e-10
3.9589e-10
3.64251e-10
2.97004e-10
2.10034e-10
1.17159e-10
2.07165e-11
1.30357e-10
1.34901e-10
2.37704e-10
3.30778e-11
8.33842e-12
6.14235e-12
4.30138e-12
3.95245e-12
1.38282e-12
4.26821e-13
1.52615e-13
4.65744e-14
6.25032e-15
6.0129e-20
4.4428e-15
3.20365e-14
9.85741e-14
2.18124e-13
4.04806e-13
6.74379e-13
1.04741e-12
1.55194e-12
2.22461e-12
3.11154e-12
4.26951e-12
5.76926e-12
7.70095e-12
1.01841e-11
1.33791e-11
1.75033e-11
2.28431e-11
2.97675e-11
3.87226e-11
5.02263e-11
6.47888e-11
8.28637e-11
1.0455e-10
1.29549e-10
1.56424e-10
1.83016e-10
2.05134e-10
2.18742e-10
2.18078e-10
2.01289e-10
1.66961e-10
1.22151e-10
7.38532e-11
3.44934e-11
9.50779e-12
1.40887e-11
1.09997e-10
1.03128e-10
2.03115e-10
3.77067e-11
5.61208e-12
5.48962e-12
3.09621e-12
3.21036e-12
1.14493e-12
2.85278e-13
7.78687e-14
1.44452e-14
2.9292e-16
1.71452e-15
2.59184e-14
9.58859e-14
2.2682e-13
4.34719e-13
7.36863e-13
1.15284e-12
1.70839e-12
2.43846e-12
3.38767e-12
4.60983e-12
6.16778e-12
8.13558e-12
1.06028e-11
1.36831e-11
1.75222e-11
2.2307e-11
2.82647e-11
3.56575e-11
4.47431e-11
5.57343e-11
6.86619e-11
8.32982e-11
9.88415e-11
1.13979e-10
1.26426e-10
1.33745e-10
1.32897e-10
1.22582e-10
1.02314e-10
7.56553e-11
4.69215e-11
2.28856e-11
7.12668e-12
7.85534e-13
5.54955e-15
9.5592e-12
9.06391e-11
7.89171e-11
1.67855e-10
4.12425e-11
3.59989e-12
4.67846e-12
2.11292e-12
2.38365e-12
8.83307e-13
1.62824e-13
2.81346e-14
1.32704e-15
4.32001e-16
1.86603e-14
9.10958e-14
2.39359e-13
4.77231e-13
8.23226e-13
1.29902e-12
1.92902e-12
2.74495e-12
3.78928e-12
5.11443e-12
6.78e-12
8.85011e-12
1.13936e-11
1.44863e-11
1.82169e-11
2.26898e-11
2.80248e-11
3.43403e-11
4.17285e-11
5.01863e-11
5.95572e-11
6.93778e-11
7.88497e-11
8.66389e-11
9.11823e-11
9.06276e-11
8.39245e-11
7.07598e-11
5.30568e-11
3.36964e-11
1.69649e-11
5.64495e-12
7.43634e-13
9.72954e-17
1.06059e-12
8.35781e-12
6.48234e-12
7.29547e-11
6.04752e-11
1.34401e-10
4.29262e-11
2.28586e-12
3.73576e-12
1.37267e-12
1.56581e-12
6.14935e-13
7.09634e-14
5.27701e-15
5.51367e-16
1.41829e-14
8.30815e-14
2.49651e-13
5.32371e-13
9.41758e-13
1.49921e-12
2.23244e-12
3.17193e-12
4.35583e-12
5.83384e-12
7.66438e-12
9.90786e-12
1.26202e-11
1.585e-11
1.96377e-11
2.4019e-11
2.90199e-11
3.46489e-11
4.0864e-11
4.75369e-11
5.43726e-11
6.08704e-11
6.62189e-11
6.93984e-11
6.91877e-11
6.47019e-11
5.55659e-11
4.27678e-11
2.8255e-11
1.50464e-11
5.5522e-12
9.46186e-13
1.60489e-15
4.75938e-13
4.94797e-12
1.77795e-11
4.34003e-11
4.39914e-12
5.73547e-11
4.63174e-11
1.04371e-10
4.2363e-11
1.52733e-12
2.74575e-12
8.61872e-13
8.59144e-13
3.66504e-13
1.76249e-14
1.90221e-15
1.81546e-14
8.42007e-14
2.58313e-13
5.90408e-13
1.09374e-12
1.77179e-12
2.64834e-12
3.75906e-12
5.14194e-12
6.84131e-12
8.91201e-12
1.14133e-11
1.43966e-11
1.78925e-11
2.19048e-11
2.64066e-11
3.13411e-11
3.66128e-11
4.20743e-11
4.74879e-11
5.24974e-11
5.65696e-11
5.90221e-11
5.90271e-11
5.58737e-11
4.91408e-11
3.92398e-11
2.74138e-11
1.58659e-11
6.77967e-12
1.62162e-12
5.31312e-14
1.03987e-13
2.44104e-12
1.0902e-11
2.92024e-11
5.93889e-11
1.03996e-10
2.98777e-12
4.41057e-11
3.53099e-11
7.85551e-11
3.95818e-11
1.14842e-12
1.82528e-12
5.47525e-13
3.49179e-13
1.70787e-13
7.71216e-16
2.03653e-14
1.13091e-13
2.98216e-13
6.61412e-13
1.26754e-12
2.12187e-12
3.21394e-12
4.56711e-12
6.2268e-12
8.23989e-12
1.06552e-11
1.35272e-11
1.69053e-11
2.08132e-11
2.52288e-11
3.0073e-11
3.52067e-11
4.0434e-11
4.5495e-11
5.00611e-11
5.37093e-11
5.59306e-11
5.61316e-11
5.37611e-11
4.84286e-11
4.02403e-11
2.99336e-11
1.9079e-11
9.59986e-12
3.2115e-12
3.99039e-13
2.89474e-16
7.45652e-13
5.43708e-12
1.77021e-11
4.01107e-11
7.46815e-11
1.21226e-10
1.81108e-10
2.02971e-12
3.32562e-11
2.66481e-11
5.71954e-11
3.49881e-11
9.99576e-13
1.08327e-12
3.94225e-13
7.54672e-14
5.46487e-14
3.74264e-15
1.21368e-13
4.053e-13
8.2014e-13
1.50048e-12
2.54348e-12
3.94443e-12
5.66729e-12
7.72761e-12
1.01808e-11
1.30834e-11
1.64841e-11
2.04256e-11
2.4927e-11
2.9953e-11
3.53841e-11
4.10055e-11
4.65097e-11
5.15144e-11
5.5574e-11
5.82024e-11
5.8887e-11
5.71613e-11
5.26819e-11
4.54314e-11
3.58546e-11
2.50657e-11
1.46811e-11
6.49918e-12
1.67506e-12
8.14663e-14
5.32569e-14
1.77928e-12
8.67136e-12
2.38472e-11
4.96528e-11
8.6793e-11
1.35879e-10
1.95319e-10
2.66019e-10
1.37803e-12
2.46515e-11
1.97897e-11
4.01607e-11
2.9234e-11
9.73581e-13
5.83587e-13
3.84359e-13
1.43506e-15
1.91833e-14
6.33332e-14
4.39833e-13
1.11183e-12
1.94123e-12
3.13598e-12
4.85945e-12
7.09924e-12
9.77571e-12
1.28809e-11
1.64759e-11
2.06253e-11
2.53683e-11
3.07135e-11
3.66142e-11
4.29243e-11
4.93621e-11
5.55063e-11
6.08218e-11
6.47146e-11
6.65854e-11
6.59076e-11
6.23001e-11
5.5664e-11
4.6292e-11
3.50335e-11
2.32635e-11
1.27459e-11
5.07466e-12
1.04544e-12
1.42816e-14
1.89289e-13
2.8174e-12
1.13388e-11
2.86999e-11
5.65845e-11
9.58537e-11
1.45764e-10
2.0614e-10
2.74755e-10
3.52458e-10
9.3397e-13
1.80114e-11
1.43753e-11
2.70615e-11
2.30497e-11
9.99806e-13
3.29199e-13
5.5006e-13
1.70276e-14
6.54486e-14
3.28182e-13
1.22561e-12
2.60974e-12
4.16278e-12
6.18125e-12
8.95157e-12
1.24666e-11
1.65775e-11
2.12229e-11
2.64554e-11
3.23396e-11
3.88862e-11
4.60311e-11
5.36012e-11
6.12602e-11
6.84737e-11
7.45336e-11
7.86366e-11
8.00104e-11
7.80403e-11
7.2418e-11
6.32575e-11
5.12312e-11
3.75844e-11
2.40737e-11
1.26e-11
4.69848e-12
8.39268e-13
3.54929e-15
3.10846e-13
3.50938e-12
1.3063e-11
3.16504e-11
6.09068e-11
1.0103e-10
1.51782e-10
2.11597e-10
2.80016e-10
3.54675e-10
4.36519e-10
6.31109e-13
1.30043e-11
1.01582e-11
1.73634e-11
1.71008e-11
1.04124e-12
2.89553e-13
1.01461e-12
2.68153e-13
3.66556e-13
1.0976e-12
2.92288e-12
5.53919e-12
8.33042e-12
1.16678e-11
1.60428e-11
2.14872e-11
2.77496e-11
3.4662e-11
4.22347e-11
5.05101e-11
5.94341e-11
6.88043e-11
7.82249e-11
8.70535e-11
9.4391e-11
9.91733e-11
1.00351e-10
9.71314e-11
8.91913e-11
7.68724e-11
6.12506e-11
4.41143e-11
2.76889e-11
1.41976e-11
5.18124e-12
9.05857e-13
3.52393e-15
3.33894e-13
3.7057e-12
1.36038e-11
3.27003e-11
6.23429e-11
1.02863e-10
1.53374e-10
2.13036e-10
2.79969e-10
3.53724e-10
4.32059e-10
5.16032e-10
4.24637e-13
9.30053e-12
6.94954e-12
1.048e-11
1.18969e-11
1.09784e-12
4.92521e-13
2.03267e-12
1.23546e-12
1.39009e-12
2.93174e-12
6.30261e-12
1.0973e-11
1.58535e-11
2.13168e-11
2.8161e-11
3.6522e-11
4.60063e-11
5.62505e-11
6.71503e-11
7.86759e-11
9.0642e-11
1.02601e-10
1.13789e-10
1.23105e-10
1.2917e-10
1.30558e-10
1.26138e-10
1.15463e-10
9.90355e-11
7.8431e-11
5.61223e-11
3.50722e-11
1.80175e-11
6.71307e-12
1.27716e-12
1.3635e-14
2.51025e-13
3.38048e-12
1.30249e-11
3.18449e-11
6.12554e-11
1.01314e-10
1.51403e-10
2.10032e-10
2.76147e-10
3.47876e-10
4.24901e-10
5.05222e-10
5.8996e-10
2.8414e-13
6.60449e-12
4.58521e-12
5.83735e-12
7.74347e-12
1.20926e-12
1.11429e-12
4.03399e-12
3.67368e-12
4.00319e-12
6.8325e-12
1.26811e-11
2.0696e-11
2.90641e-11
3.79858e-11
4.86635e-11
6.14444e-11
7.57476e-11
9.08713e-11
1.06459e-10
1.22303e-10
1.37971e-10
1.52606e-10
1.64877e-10
1.73048e-10
1.75202e-10
1.69705e-10
1.55769e-10
1.33962e-10
1.06384e-10
7.64534e-11
4.81989e-11
2.52763e-11
9.90286e-12
2.19118e-12
7.00138e-14
1.17192e-13
2.65463e-12
1.14626e-11
2.93855e-11
5.78266e-11
9.69789e-11
1.4595e-10
2.03586e-10
2.68174e-10
3.38688e-10
4.13421e-10
4.9222e-10
5.73356e-10
6.57958e-10
1.88866e-13
4.66717e-12
2.91206e-12
2.90891e-12
4.73462e-12
1.45754e-12
2.48216e-12
7.67999e-12
8.72112e-12
9.67056e-12
1.45289e-11
2.42768e-11
3.7661e-11
5.18026e-11
6.63974e-11
8.30952e-11
1.02601e-10
1.24093e-10
1.46307e-10
1.68386e-10
1.89744e-10
2.0951e-10
2.26186e-10
2.3764e-10
2.41368e-10
2.35028e-10
2.17244e-10
1.88405e-10
1.51127e-10
1.10014e-10
7.06984e-11
3.83221e-11
1.60622e-11
4.21891e-12
3.10598e-13
1.92754e-14
1.71898e-12
9.20394e-12
2.5603e-11
5.25264e-11
9.01403e-11
1.37717e-10
1.93811e-10
2.57065e-10
3.2579e-10
3.99098e-10
4.75516e-10
5.55034e-10
6.36191e-10
7.20069e-10
1.24594e-13
3.28843e-12
1.78456e-12
1.22902e-12
2.79005e-12
1.97778e-12
5.06074e-12
1.39337e-11
1.8055e-11
2.07416e-11
2.8914e-11
4.47805e-11
6.67231e-11
9.03541e-11
1.14298e-10
1.40547e-10
1.7031e-10
2.02451e-10
2.34794e-10
2.65563e-10
2.93456e-10
3.16869e-10
3.33393e-10
3.399e-10
3.33171e-10
3.10921e-10
2.73019e-10
2.22395e-10
1.65066e-10
1.08906e-10
6.14855e-11
2.77336e-11
8.5898e-12
1.13343e-12
6.91477e-17
8.24575e-13
6.57355e-12
2.0915e-11
4.5722e-11
8.13544e-11
1.27019e-10
1.81431e-10
2.4292e-10
3.10141e-10
3.81557e-10
4.5646e-10
5.33615e-10
6.13123e-10
6.93769e-10
7.76547e-10
8.15254e-14
2.31417e-12
1.06593e-12
3.97179e-13
1.71979e-12
2.97978e-12
9.46581e-12
2.4134e-11
3.40859e-11
4.08386e-11
5.46854e-11
8.02337e-11
1.15776e-10
1.54882e-10
1.94206e-10
2.35664e-10