/*--------------------------------*- C++ -*----------------------------------*\
  =========                 |
  \\      /  F ield         | OpenFOAM: The Open Source CFD Toolbox
   \\    /   O peration     | Website:  https://openfoam.org
    \\  /    A nd           | Version:  7
     \\/     M anipulation  |
\*---------------------------------------------------------------------------*/
FoamFile
{
    version     2.0;
    format      ascii;
    class       volScalarField;
    location    "0.02";
    object      p;
}
// * * * * * * * * * * * * * * * * * * * * * * * * * * * * * * * * * * * * * //

dimensions      [0 2 -2 0 0 0 0];

internalField   nonuniform List<scalar> 
70000
(
0.137972
0.0605491
0.0480916
0.0506244
0.0509069
0.0499886
0.0492134
0.0486923
0.0483147
0.048033
0.047834
0.0477101
0.047654
0.0476598
0.0477228
0.0478395
0.0480074
0.0482248
0.0484907
0.0488047
0.0491669
0.0495778
0.0500387
0.0505507
0.0511159
0.0517363
0.0524144
0.0531531
0.0539556
0.0548251
0.0557654
0.0567801
0.0578736
0.0590492
0.0603119
0.0616645
0.0631125
0.0646574
0.0663048
0.0680546
0.0699096
0.0718715
0.0739288
0.0761032
0.0783297
0.0807177
0.0830181
0.0856741
0.0877631
0.0909752
0.133604
0.0609158
0.0482947
0.0507203
0.0509618
0.050025
0.049242
0.048716
0.0483347
0.0480502
0.0478491
0.0477235
0.0476661
0.0476708
0.0477329
0.0478488
0.048016
0.0482329
0.0484983
0.0488119
0.0491737
0.0495843
0.0500449
0.0505567
0.0511216
0.0517419
0.0524199
0.0531585
0.0539609
0.0548303
0.0557706
0.0567853
0.0578788
0.0590545
0.0603174
0.0616702
0.0631184
0.0646636
0.0663114
0.0680616
0.0699171
0.0718797
0.0739375
0.0761128
0.07834
0.0807292
0.0830304
0.0856873
0.0877797
0.0909925
0.130023
0.0618551
0.0486346
0.0508491
0.051036
0.0500698
0.0492744
0.0487424
0.0483567
0.0480688
0.0478652
0.0477377
0.0476788
0.0476823
0.0477434
0.0478585
0.048025
0.0482412
0.048506
0.0488191
0.0491805
0.0495908
0.0500511
0.0505626
0.0511273
0.0517473
0.0524251
0.0531635
0.0539657
0.054835
0.0557752
0.0567899
0.0578833
0.059059
0.0603219
0.0616748
0.0631232
0.0646685
0.0663165
0.0680671
0.0699229
0.0718861
0.0739445
0.0761207
0.0783484
0.0807392
0.0830407
0.0856993
0.0877995
0.090989
0.126928
0.0629557
0.049103
0.0510223
0.0511362
0.0501268
0.0493122
0.048772
0.048381
0.0480891
0.0478825
0.0477527
0.0476921
0.0476942
0.0477541
0.0478682
0.0480339
0.0482494
0.0485137
0.0488262
0.0491871
0.049597
0.0500568
0.050568
0.0511323
0.051752
0.0524295
0.0531677
0.0539697
0.0548387
0.0557787
0.0567931
0.0578864
0.0590619
0.0603246
0.0616774
0.0631257
0.064671
0.066319
0.0680696
0.0699256
0.071889
0.0739477
0.0761245
0.0783527
0.0807445
0.083047
0.0857047
0.0878218
0.0909517
0.123967
0.0640508
0.0496673
0.0512414
0.0512694
0.0502035
0.0493601
0.048808
0.0484101
0.0481129
0.0479023
0.0477696
0.0477067
0.047707
0.0477655
0.0478785
0.0480432
0.0482578
0.0485214
0.0488333
0.0491936
0.0496029
0.0500623
0.050573
0.0511369
0.0517561
0.0524332
0.053171
0.0539725
0.0548412
0.0557807
0.0567948
0.0578876
0.0590627
0.060325
0.0616773
0.0631251
0.06467
0.0663176
0.0680679
0.0699234
0.0718866
0.0739451
0.0761217
0.0783503
0.0807418
0.0830464
0.0856986
0.0878424
0.0908763
0.121057
0.065088
0.0502806
0.0514865
0.0514297
0.0503013
0.0494206
0.0488526
0.0484457
0.0481417
0.0479259
0.0477894
0.0477236
0.0477217
0.0477784
0.0478898
0.0480532
0.0482668
0.0485294
0.0488405
0.0492001
0.0496087
0.0500674
0.0505775
0.0511408
0.0517595
0.052436
0.0531732
0.0539741
0.0548421
0.055781
0.0567943
0.0578864
0.0590607
0.0603221
0.0616736
0.0631204
0.0646643
0.0663108
0.06806
0.0699144
0.0718764
0.0739338
0.0761093
0.0783372
0.0807269
0.0830339
0.0856749
0.0878525
0.0907599
0.118191
0.0660487
0.0509091
0.0517361
0.051604
0.0504158
0.0494928
0.0489056
0.0484882
0.0481761
0.047954
0.0478127
0.0477434
0.0477386
0.047793
0.0479026
0.0480644
0.0482767
0.0485381
0.0488481
0.0492068
0.0496146
0.0500724
0.0505817
0.0511442
0.0517621
0.0524378
0.0531742
0.0539742
0.0548413
0.0557792
0.0567914
0.0578823
0.0590553
0.0603153
0.0616652
0.0631104
0.0646525
0.0662969
0.068044
0.0698961
0.0718558
0.0739107
0.0760833
0.0783092
0.0806945
0.0830037
0.0856267
0.0878409
0.090601
0.115374
0.0669248
0.0515372
0.0519785
0.0517817
0.0505406
0.0495733
0.0489652
0.0485365
0.0482156
0.0479864
0.0478397
0.0477661
0.0477581
0.0478097
0.047917
0.048077
0.0482876
0.0485475
0.0488563
0.0492138
0.0496205
0.0500773
0.0505856
0.0511471
0.0517639
0.0524386
0.0531738
0.0539726
0.0548384
0.0557749
0.0567855
0.0578747
0.0590458
0.0603037
0.0616512
0.0630938
0.064633
0.0662742
0.068018
0.0698661
0.0718218
0.0738722
0.07604
0.0782616
0.0806393
0.0829496
0.0855467
0.0877961
0.0903996
0.112614
0.0677134
0.0521595
0.0522097
0.0519566
0.050671
0.0496591
0.0490289
0.0485888
0.0482589
0.0480222
0.0478697
0.0477916
0.0477798
0.0478285
0.0479332
0.0480909
0.0482996
0.0485579
0.0488651
0.0492212
0.0496265
0.0500821
0.0505891
0.0511494
0.0517649
0.0524382
0.053172
0.0539692
0.0548333
0.0557679
0.0567764
0.0578632
0.0590317
0.0602866
0.0616309
0.0630697
0.0646048
0.0662413
0.06798
0.0698224
0.0717719
0.0738154
0.0759756
0.0781902
0.0805561
0.0828655
0.0854284
0.0877067
0.0901567
0.109915
0.0684144
0.0527748
0.0524294
0.0521259
0.0508043
0.0497482
0.0490949
0.0486433
0.0483046
0.0480604
0.0479019
0.047819
0.0478034
0.0478488
0.0479507
0.0481061
0.0483126
0.048569
0.0488745
0.0492289
0.0496327
0.0500868
0.0505923
0.0511511
0.0517651
0.0524367
0.0531686
0.0539639
0.0548259
0.055758
0.0567638
0.0578475
0.0590126
0.0602636
0.0616035
0.0630373
0.064567
0.0661971
0.0679289
0.0697632
0.0717042
0.073738
0.0758872
0.0780916
0.0804408
0.082746
0.0852668
0.0875634
0.089873
0.107279
0.069028
0.0533825
0.0526384
0.052288
0.0509391
0.0498394
0.049162
0.048699
0.0483516
0.0481
0.0479354
0.0478478
0.0478282
0.0478702
0.0479693
0.0481221
0.0483264
0.0485807
0.0488842
0.0492369
0.049639
0.0500913
0.0505952
0.0511522
0.0517643
0.0524339
0.0531637
0.0539567
0.054816
0.0557451
0.0567477
0.0578276
0.0589883
0.0602344
0.0615688
0.0629963
0.0645189
0.0661408
0.0678637
0.0696876
0.0716173
0.0736383
0.0757729
0.0779635
0.0802904
0.0825871
0.085059
0.0873603
0.0895491
0.10471
0.0695548
0.053981
0.0528378
0.0524422
0.0510744
0.0499325
0.0492299
0.0487553
0.0483994
0.0481403
0.0479697
0.0478772
0.0478537
0.0478923
0.0479884
0.0481386
0.0483405
0.0485926
0.0488942
0.0492449
0.0496451
0.0500956
0.0505975
0.0511525
0.0517626
0.05243
0.0531573
0.0539475
0.0548037
0.0557294
0.0567279
0.0578033
0.058959
0.0601992
0.0615269
0.0629466
0.0644607
0.0660726
0.0677844
0.0695954
0.071511
0.0735161
0.0756321
0.077805
0.0801042
0.0823867
0.0848044
0.0870954
0.0891852
0.10221
0.069995
0.0545684
0.0530286
0.0525877
0.0512094
0.0500273
0.0492984
0.0488118
0.0484476
0.0481812
0.0480044
0.0479071
0.0478795
0.0479147
0.0480078
0.0481553
0.0483548
0.0486047
0.0489041
0.0492528
0.049651
0.0500994
0.0505993
0.0511521
0.0517599
0.0524247
0.0531492
0.0539363
0.054789
0.0557107
0.0567048
0.057775
0.0589247
0.060158
0.0614781
0.0628888
0.0643927
0.0659928
0.0676915
0.0694873
0.0713859
0.0733721
0.0754655
0.0776167
0.0798831
0.0821451
0.084505
0.0867708
0.0887825
0.0997821
0.0703496
0.0551421
0.0532122
0.0527239
0.0513434
0.0501237
0.0493673
0.0488684
0.048496
0.0482223
0.0480394
0.0479371
0.0479055
0.0479373
0.0480273
0.048172
0.048369
0.0486166
0.0489138
0.0492603
0.0496564
0.0501027
0.0506003
0.0511508
0.051756
0.0524181
0.0531396
0.0539233
0.0547721
0.0556893
0.0566783
0.0577427
0.0588858
0.0601114
0.0614227
0.0628232
0.0643157
0.0659024
0.0675861
0.0693645
0.0712434
0.0732078
0.075275
0.0774008
0.0796297
0.0818647
0.0841646
0.0863923
0.088343
0.0974282
0.0706198
0.0556993
0.0533902
0.0528504
0.0514753
0.0502214
0.0494368
0.048925
0.0485446
0.0482636
0.0480746
0.0479673
0.0479316
0.0479598
0.0480467
0.0481886
0.048383
0.0486282
0.0489231
0.0492674
0.0496613
0.0501053
0.0506006
0.0511485
0.051751
0.0524102
0.0531283
0.0539083
0.0547529
0.0556653
0.0566488
0.0577068
0.0588426
0.0600598
0.0613614
0.0627507
0.0642304
0.0658023
0.0674693
0.0692285
0.0710854
0.0730255
0.0750634
0.0771601
0.0793479
0.0815495
0.0837885
0.085968
0.0878701
0.0951504
0.0708073
0.0562368
0.0535641
0.0529671
0.0516042
0.0503203
0.0495068
0.0489815
0.0485932
0.0483051
0.0481098
0.0479975
0.0479576
0.0479822
0.0480659
0.048205
0.0483968
0.0486395
0.048932
0.049274
0.0496655
0.0501071
0.0505999
0.0511452
0.0517448
0.0524008
0.0531154
0.0538914
0.0547314
0.0556387
0.0566162
0.0576674
0.0587953
0.0600034
0.0612946
0.0626718
0.0641377
0.0656937
0.0673425
0.0690809
0.0709137
0.0728275
0.0748333
0.0768979
0.0790417
0.0812043
0.0833827
0.085507
0.0873685
0.0929503
0.0709141
0.0567514
0.0537351
0.0530737
0.0517291
0.0504201
0.0495773
0.0490378
0.0486417
0.0483467
0.0481451
0.0480276
0.0479835
0.0480045
0.048085
0.0482211
0.0484102
0.0486503
0.0489404
0.0492799
0.049669
0.0501081
0.0505983
0.0511408
0.0517373
0.0523899
0.0531008
0.0538725
0.0547078
0.0556095
0.0565807
0.0576246
0.0587442
0.0599426
0.0612227
0.0625871
0.0640383
0.0655773
0.0672066
0.0689229
0.0707301
0.0726157
0.0745875
0.0766172
0.0787152
0.0808342
0.0829526
0.0850178
0.0868429
0.0908292
0.0709425
0.0572402
0.0539045
0.0531704
0.0518489
0.0505203
0.0496482
0.0490938
0.0486901
0.0483882
0.0481804
0.0480577
0.0480093
0.0480265
0.0481038
0.0482369
0.0484232
0.0486607
0.0489482
0.0492852
0.0496717
0.0501082
0.0505956
0.0511352
0.0517285
0.0523775
0.0530844
0.0538516
0.0546818
0.0555777
0.0565423
0.0575785
0.0586893
0.0598775
0.0611459
0.0624967
0.0639325
0.0654536
0.0670625
0.0687556
0.0705359
0.0723918
0.0743281
0.0763206
0.0783716
0.0804434
0.0825031
0.0845074
0.086298
0.0887879
0.0708957
0.0577003
0.0540732
0.0532574
0.0519626
0.0506205
0.0497195
0.0491494
0.0487381
0.0484296
0.0482156
0.0480877
0.0480349
0.0480484
0.0481222
0.0482523
0.0484357
0.0486705
0.0489553
0.0492897
0.0496736
0.0501073
0.0505918
0.0511282
0.0517182
0.0523634
0.0530661
0.0538287
0.0546535
0.0555433
0.0565008
0.057529
0.0586305
0.059808
0.0610642
0.0624009
0.0638205
0.0653231
0.0669106
0.0685796
0.0703318
0.0721568
0.0740563
0.07601
0.0780133
0.0800354
0.0820374
0.0839812
0.0857371
0.0868268
0.0707769
0.0581288
0.0542415
0.0533352
0.0520693
0.0507202
0.0497913
0.0492046
0.0487856
0.0484709
0.0482507
0.0481174
0.0480602
0.0480699
0.0481403
0.0482673
0.0484477
0.0486797
0.0489618
0.0492934
0.0496745
0.0501054
0.0505868
0.0511199
0.0517063
0.0523476
0.0530459
0.0538034
0.0546226
0.055506
0.0564562
0.0574759
0.0585677
0.0597341
0.0609775
0.0622995
0.0637022
0.0651856
0.066751
0.068395
0.0701182
0.0719113
0.0737732
0.0756864
0.0776416
0.0796125
0.0815579
0.0834424
0.0851628
0.0849457
0.0705901
0.058523
0.0544098
0.0534043
0.0521682
0.0508186
0.0498633
0.0492594
0.0488325
0.0485117
0.0482855
0.0481469
0.0480852
0.048091
0.048158
0.0482817
0.0484591
0.0486882
0.0489674
0.0492962
0.0496744
0.0501022
0.0505805
0.0511102
0.0516928
0.0523299
0.0530236
0.0537759
0.0545891
0.0554658
0.0564083
0.0574191
0.0585008
0.0596556
0.0608857
0.0621925
0.0635777
0.0650411
0.0665836
0.0682018
0.0698953
0.0716555
0.073479
0.0753506
0.0772574
0.079176
0.0810658
0.0828927
0.0845763
0.0831442
0.0703397
0.0588805
0.0545779
0.0534653
0.0522584
0.0509151
0.0499355
0.0493135
0.0488787
0.0485522
0.04832
0.048176
0.0481098
0.0481117
0.0481751
0.0482956
0.0484699
0.0486959
0.0489722
0.0492981
0.0496732
0.0500979
0.0505727
0.0510988
0.0516774
0.0523102
0.052999
0.0537458
0.0545528
0.0554224
0.0563568
0.0573584
0.0584296
0.0595723
0.0607885
0.0620795
0.0634466
0.0648894
0.0664083
0.0679999
0.0696629
0.0713892
0.0731738
0.0750027
0.076861
0.0787268
0.0805617
0.0823328
0.0839781
0.0814214
0.0700302
0.0591988
0.0547451
0.0535192
0.0523395
0.0510087
0.0500076
0.049367
0.048924
0.048592
0.0483541
0.0482047
0.0481339
0.0481319
0.0481917
0.0483088
0.0484799
0.0487028
0.0489761
0.0492988
0.0496708
0.0500921
0.0505635
0.0510857
0.0516602
0.0522884
0.052972
0.053713
0.0545135
0.0553757
0.0563017
0.0572937
0.0583538
0.0594839
0.0606857
0.0619603
0.0633086
0.0647302
0.0662248
0.0677891
0.0694208
0.0711124
0.0728574
0.0746427
0.0764523
0.0782651
0.0800457
0.0817624
0.083368
0.0797761
0.0696668
0.0594761
0.0549106
0.0535667
0.052411
0.0510988
0.0500794
0.0494199
0.0489683
0.0486311
0.0483877
0.048233
0.0481575
0.0481515
0.0482076
0.0483212
0.0484891
0.0487088
0.0489789
0.0492984
0.049667
0.0500849
0.0505525
0.0510708
0.0516409
0.0522642
0.0529425
0.0536774
0.0544711
0.0553255
0.0562426
0.0572245
0.0582732
0.0593902
0.0605771
0.0618346
0.0631636
0.0645632
0.0660327
0.0675689
0.0691686
0.0708247
0.0725294
0.0742705
0.0760311
0.0777908
0.0795175
0.0811811
0.0827454
0.0782067
0.0692547
0.0597107
0.055073
0.0536088
0.0524727
0.0511843
0.0501504
0.049472
0.0490114
0.0486692
0.0484206
0.0482605
0.0481804
0.0481703
0.0482228
0.0483329
0.0484973
0.0487137
0.0489805
0.0492967
0.0496619
0.0500761
0.0505399
0.0510539
0.0516194
0.0522377
0.0529102
0.0536388
0.0544253
0.0552715
0.0561794
0.0571508
0.0581875
0.0592909
0.0604622
0.0617022
0.0630111
0.064388
0.0658318
0.0673391
0.0689061
0.0705258
0.0721897
0.0738858
0.0755971
0.0773039
0.0789768
0.080588
0.0821094
0.0767111
0.0687993
0.0599012
0.0552306
0.0536464
0.0525246
0.0512644
0.0502204
0.0495234
0.0490532
0.0487062
0.0484527
0.0482874
0.0482026
0.0481884
0.0482371
0.0483436
0.0485046
0.0487176
0.048981
0.0492937
0.0496552
0.0500657
0.0505253
0.051035
0.0515956
0.0522085
0.0528751
0.053597
0.0543759
0.0552136
0.0561119
0.0570723
0.0580965
0.0591857
0.060341
0.0615626
0.0628508
0.0642044
0.0656217
0.0670993
0.0686329
0.0702154
0.0718379
0.0734884
0.0751502
0.0768039
0.0784231
0.0799823
0.0814594
0.0752873
0.0683061
0.0600467
0.0553814
0.0536804
0.0525668
0.0513381
0.0502887
0.0495739
0.0490937
0.0487419
0.0484838
0.0483135
0.0482239
0.0482055
0.0482504
0.0483533
0.0485107
0.0487202
0.0489801
0.0492891
0.0496469
0.0500534
0.0505087
0.0510137
0.0515693
0.0521766
0.0528369
0.0535518
0.0543228
0.0551516
0.0560397
0.0569887
0.0579999
0.0590744
0.0602129
0.0614157
0.0626825
0.0640119
0.065402
0.0668491
0.0683485
0.0698931
0.0714735
0.0730779
0.0746898
0.0762905
0.0778561
0.0793634
0.0807945
0.0739327
0.0677808
0.0601469
0.0555231
0.0537114
0.0525996
0.0514047
0.0503547
0.0496233
0.0491326
0.0487762
0.0485138
0.0483386
0.0482443
0.0482217
0.0482627
0.0483619
0.0485157
0.0487215
0.0489777
0.049283
0.0496368
0.0500391
0.05049
0.0509901
0.0515403
0.0521417
0.0527954
0.0535029
0.0542657
0.0550851
0.0559627
0.0568997
0.0578974
0.0589566
0.0600778
0.061261
0.0625057
0.0638102
0.0651724
0.0665883
0.0680528
0.0695586
0.0710964
0.072654
0.0742158
0.0757634
0.0772753
0.0787304
0.0801139
0.0726445
0.0672289
0.0602017
0.0556532
0.0537402
0.0526236
0.0514635
0.0504179
0.0496715
0.0491699
0.0488088
0.0485425
0.0483625
0.0482636
0.0482367
0.0482738
0.0483692
0.0485193
0.0487214
0.0489737
0.0492751
0.0496248
0.0500227
0.0504689
0.0509639
0.0515085
0.0521037
0.0527505
0.0534503
0.0542044
0.055014
0.0558806
0.0568052
0.0577888
0.058832
0.0599353
0.0610983
0.0623201
0.0635991
0.0649325
0.0663164
0.0677452
0.0692116
0.070706
0.0722165
0.0737277
0.0752222
0.0766801
0.0780826
0.0794169
0.07142
0.0666556
0.0602118
0.0557691
0.0537668
0.0526393
0.0515138
0.0504774
0.0497182
0.0492056
0.0488395
0.0485696
0.0483853
0.0482816
0.0482505
0.0482836
0.0483752
0.0485214
0.0487196
0.048968
0.0492653
0.0496108
0.0500041
0.0504453
0.050935
0.0514737
0.0520623
0.0527019
0.0533936
0.0541386
0.054938
0.0557931
0.0567047
0.0576736
0.0587004
0.059785
0.0609271
0.0621254
0.063378
0.064682
0.066033
0.0674254
0.0688517
0.0703022
0.0717649
0.0732253
0.0746664
0.0760702
0.0774194
0.0787028
0.070256
0.0660661
0.0601783
0.0558683
0.0537915
0.0526473
0.0515552
0.0505324
0.0497631
0.0492394
0.0488683
0.048595
0.0484065
0.0482983
0.0482628
0.0482919
0.0483796
0.0485219
0.0487162
0.0489605
0.0492535
0.0495945
0.049983
0.0504191
0.0509031
0.0514356
0.0520174
0.0526494
0.0533326
0.0540681
0.0548569
0.0556999
0.056598
0.0575517
0.0585614
0.0596267
0.0607471
0.0619212
0.0631467
0.0644204
0.0657379
0.0670931
0.0684786
0.0698845
0.0712991
0.0727082
0.0740958
0.075445
0.0767402
0.0779712
0.0691496
0.0654649
0.0601027
0.0559486
0.0538136
0.0526485
0.0515875
0.0505823
0.0498059
0.0492713
0.0488948
0.0486185
0.0484261
0.0483135
0.0482736
0.0482987
0.0483824
0.0485207
0.0487108
0.0489509
0.0492395
0.0495758
0.0499593
0.05039
0.0508681
0.0513942
0.0519688
0.0525928
0.0532671
0.0539927
0.0547703
0.0556008
0.0564848
0.0574227
0.0584146
0.05946
0.060558
0.0617071
0.0629047
0.0641474
0.0654305
0.0667479
0.0680919
0.0694526
0.0708186
0.0721761
0.0735098
0.0748041
0.0760446
0.0772216
0.0680976
0.0648562
0.0599871
0.0560082
0.0538326
0.0526434
0.0516105
0.0506263
0.0498459
0.0493011
0.048919
0.0486397
0.0484439
0.0483269
0.0482828
0.0483037
0.0483833
0.0485175
0.0487035
0.0489392
0.0492232
0.0495546
0.0499329
0.0503579
0.0508298
0.0513491
0.0519162
0.0525319
0.0531969
0.053912
0.054678
0.0554954
0.0563648
0.0572863
0.0582597
0.0592845
0.0603595
0.0614828
0.0626518
0.0638627
0.0651107
0.0663895
0.0676913
0.0690063
0.0703232
0.0716287
0.0729082
0.0741472
0.0753321
0.0764536
0.0670969
0.0642439
0.0598339
0.0560454
0.0538473
0.0526326
0.0516242
0.0506635
0.0498828
0.0493286
0.0489407
0.0486586
0.0484596
0.0483385
0.04829
0.0483067
0.0483823
0.0485123
0.0486939
0.0489251
0.0492043
0.0495306
0.0499034
0.0503225
0.050788
0.0513001
0.0518593
0.0524663
0.0531216
0.0538258
0.0545797
0.0553835
0.0562376
0.057142
0.0580964
0.0590998
0.060151
0.0612479
0.0623875
0.0635659
0.064778
0.0660175
0.0672764
0.0685452
0.0698125
0.0710656
0.0722907
0.0734739
0.0746024
0.075667
0.0661444
0.0636311
0.059646
0.0560589
0.0538565
0.0526165
0.051629
0.0506935
0.0499158
0.0493536
0.0489597
0.0486748
0.048473
0.048348
0.0482952
0.0483077
0.0483791
0.0485049
0.048682
0.0489085
0.0491828
0.0495037
0.0498708
0.0502837
0.0507424
0.051247
0.051798
0.0523958
0.0530409
0.0537339
0.054475
0.0552647
0.056103
0.0569897
0.0579243
0.0589057
0.0599324
0.061002
0.0621114
0.0632566
0.0644321
0.0656316
0.0668471
0.068069
0.0692863
0.0704867
0.0716569
0.0727838
0.0738551
0.0748617
0.0652369
0.0630208
0.0594264
0.0560477
0.0538587
0.0525955
0.051625
0.0507156
0.0499444
0.0493757
0.0489759
0.0486882
0.0484838
0.0483552
0.0482982
0.0483065
0.0483736
0.048495
0.0486675
0.0488892
0.0491583
0.0494737
0.0498348
0.0502412
0.0506928
0.0511896
0.051732
0.0523202
0.0529547
0.0536358
0.0543638
0.0551387
0.0559606
0.0568289
0.0577431
0.0587018
0.0597032
0.0607448
0.0618233
0.0629344
0.0640727
0.0652315
0.0664029
0.0675774
0.0687443
0.0698916
0.0710066
0.0720766
0.0730901
0.0740375
0.0643717
0.0624153
0.0591782
0.0560115
0.0538524
0.0525696
0.0516126
0.0507295
0.0499679
0.0493947
0.0489891
0.0486985
0.0484917
0.0483598
0.0482987
0.0483027
0.0483655
0.0484825
0.0486503
0.0488669
0.0491307
0.0494404
0.0497952
0.0501948
0.050639
0.0511277
0.051661
0.0522392
0.0528626
0.0535314
0.0542456
0.0550052
0.05581
0.0566594
0.0575524
0.0584876
0.059463
0.0604759
0.0615228
0.0625991
0.0636994
0.0648169
0.0659436
0.0670703
0.0681863
0.0692801
0.0703395
0.0713523
0.0723071
0.0731944
0.0635458
0.0618166
0.0589048
0.05595
0.0538359
0.0525387
0.0515922
0.0507349
0.0499856
0.04941
0.0489991
0.0487055
0.0484966
0.0483616
0.0482966
0.0482963
0.0483547
0.0484671
0.0486301
0.0488415
0.0490997
0.0494034
0.0497518
0.0501443
0.0505807
0.0510608
0.0515847
0.0521525
0.0527643
0.0534202
0.0541201
0.0548638
0.0556509
0.0564806
0.0573518
0.0582629
0.0592116
0.060195
0.0612094
0.0622503
0.0633119
0.0643874
0.0654689
0.0665473
0.067612
0.0686521
0.0696555
0.0706106
0.0715063
0.0723326
0.0627565
0.0612262
0.0586093
0.0558635
0.0538078
0.0525026
0.0515642
0.0507315
0.049997
0.0494213
0.0490056
0.048709
0.0484981
0.0483604
0.0482915
0.0482869
0.0483409
0.0484487
0.0486067
0.0488128
0.0490652
0.0493627
0.0497043
0.0500894
0.0505176
0.0509888
0.0515029
0.0520598
0.0526595
0.053302
0.053987
0.0547142
0.055483
0.0562924
0.0571411
0.0580272
0.0589485
0.0599017
0.060883
0.0618877
0.0629099
0.0639429
0.0649787
0.0660082
0.0670214
0.0680073
0.0689544
0.0698515
0.0706874
0.0714523
0.0620013
0.0606452
0.0582949
0.0557527
0.0537666
0.0524606
0.051529
0.0507194
0.0500014
0.049428
0.0490085
0.0487088
0.0484961
0.0483558
0.0482833
0.0482745
0.048324
0.0484269
0.0485799
0.0487804
0.0490269
0.0493178
0.0496524
0.0500298
0.0504496
0.0509115
0.0514153
0.0519608
0.0525479
0.0531765
0.053846
0.0545561
0.0553059
0.0560943
0.0569198
0.0577803
0.0586734
0.0595957
0.0605431
0.0615109
0.0624932
0.0634831
0.0644726
0.065453
0.0664142
0.0673456
0.0682362
0.0690749
0.0698508
0.0705537
0.0612778
0.0600745
0.0579645
0.0556185
0.0537113
0.0524122
0.0514867
0.0506985
0.0499985
0.0494295
0.0490072
0.0487047
0.0484901
0.0483475
0.0482716
0.0482586
0.0483035
0.0484017
0.0485494
0.0487442
0.0489845
0.0492687
0.0495959
0.0499653
0.0503762
0.0508284
0.0513215
0.0518552
0.0524292
0.0530432
0.0536968
0.0543891
0.0551193
0.055886
0.0566875
0.0575218
0.0583859
0.0592766
0.0601895
0.0611198
0.0620615
0.0630077
0.0639506
0.0648813
0.0657903
0.066667
0.0675009
0.068281
0.0689965
0.0696372
0.0605836
0.0595148
0.0576207
0.0554619
0.053641
0.0523565
0.0514375
0.050669
0.0499877
0.0494254
0.0490016
0.0486964
0.04848
0.0483354
0.0482562
0.0482391
0.0482794
0.0483726
0.0485149
0.0487039
0.0489378
0.049215
0.0495345
0.0498955
0.0502973
0.0507393
0.0512212
0.0517426
0.052303
0.052902
0.0535389
0.0542128
0.0549227
0.0556671
0.0564441
0.0572513
0.0580858
0.0589442
0.0598219
0.0607141
0.0616146
0.0625167
0.0634124
0.0642933
0.0651496
0.0659716
0.0667485
0.0674698
0.0681248
0.0687032
0.0599168
0.0589662
0.0572661
0.0552846
0.053555
0.0522926
0.0513813
0.050631
0.0499687
0.049415
0.0489911
0.0486836
0.0484655
0.0483189
0.0482368
0.0482157
0.0482514
0.0483395
0.0484763
0.0486593
0.0488864
0.0491564
0.049468
0.0498202
0.0502124
0.0506439
0.0511142
0.0516227
0.052169
0.0527524
0.053372
0.054027
0.054716
0.0554373
0.056189
0.0569685
0.0577728
0.0585981
0.0594401
0.0602935
0.0611523
0.0620098
0.062858
0.0636886
0.0644923
0.0652592
0.0659791
0.0666416
0.0672361
0.0677523
0.0592753
0.058429
0.0569027
0.0550878
0.053453
0.0522198
0.0513181
0.0505846
0.0499412
0.0493978
0.0489754
0.0486661
0.0484463
0.048298
0.0482131
0.048188
0.048219
0.048302
0.0484332
0.0486099
0.0488302
0.0490927
0.049396
0.0497392
0.0501213
0.0505418
0.051
0.0514953
0.0520269
0.052594
0.0531959
0.0538312
0.0544986
0.0551963
0.055922
0.0566731
0.0574465
0.0582381
0.0590437
0.0598578
0.0606745
0.0614869
0.0622873
0.0630675
0.0638183
0.0645301
0.0651929
0.0657967
0.0663308
0.066785
0.0586572
0.057903
0.0565326
0.0548734
0.0533349
0.0521371
0.0512475
0.05053
0.0499052
0.0493735
0.048954
0.0486435
0.0484222
0.0482722
0.0481847
0.0481558
0.0481822
0.0482599
0.0483853
0.0485556
0.0487689
0.0490235
0.0493182
0.0496519
0.0500238
0.0504328
0.0508785
0.0513599
0.0518762
0.0524267
0.0530101
0.0536252
0.0542703
0.0549436
0.0556427
0.0563648
0.0571066
0.057864
0.0586326
0.0594069
0.0601809
0.0609479
0.0617003
0.0624299
0.0631277
0.0637844
0.0643903
0.0649354
0.0654094
0.0658021
0.0580609
0.0573882
0.0561573
0.0546429
0.0532007
0.0520438
0.0511692
0.0504671
0.0498605
0.0493415
0.0489263
0.0486155
0.0483928
0.0482412
0.0481513
0.0481187
0.0481405
0.0482129
0.0483323
0.048496
0.048702
0.0489485
0.0492343
0.0495583
0.0499193
0.0503165
0.0507491
0.0512162
0.0517168
0.0522499
0.0528143
0.0534085
0.0540308
0.0546791
0.055351
0.0560434
0.0567529
0.0574755
0.0582065
0.0589406
0.0596716
0.0603929
0.061097
0.0617758
0.0624206
0.0630224
0.0635715
0.0640583
0.0644726
0.0648044
0.0574847
0.0568842
0.0557784
0.0543978
0.0530508
0.0519392
0.0510827
0.050396
0.049807
0.0493014
0.048892
0.0485817
0.0483579
0.0482048
0.0481125
0.0480765
0.0480936
0.0481606
0.0482739
0.0484309
0.0486293
0.0488675
0.0491441
0.0494578
0.0498077
0.0501926
0.0506117
0.0510639
0.0515482
0.0520634
0.0526081
0.0531809
0.0537797
0.0544024
0.0550463
0.0557085
0.0563852
0.0570725
0.0577655
0.0584588
0.0591465
0.0598218
0.0604775
0.0611055
0.0616974
0.0622444
0.062737
0.0631659
0.0635211
0.0637926
0.0569271
0.0563906
0.0553969
0.0541398
0.0528858
0.051823
0.0509877
0.0503167
0.0497447
0.049253
0.0488505
0.0485417
0.0483171
0.0481626
0.0480681
0.0480286
0.0480412
0.0481027
0.0482099
0.0483598
0.0485504
0.04878
0.049047
0.0493502
0.0496885
0.0500607
0.0504658
0.0509026
0.05137
0.0518668
0.0523913
0.052942
0.0535167
0.0541132
0.0547286
0.0553599
0.0560033
0.0566547
0.0573092
0.0579615
0.0586056
0.0592348
0.0598419
0.0604192
0.0609584
0.0614508
0.0618873
0.0622589
0.0625555
0.0627678
0.0563868
0.0559071
0.0550138
0.0538703
0.0527061
0.0516946
0.0508837
0.0502289
0.0496735
0.0491959
0.0488014
0.048495
0.0482701
0.0481143
0.0480177
0.0479749
0.047983
0.0480389
0.0481397
0.0482825
0.0484651
0.0486857
0.0489429
0.0492352
0.0495615
0.0499205
0.050311
0.050732
0.0511821
0.0516598
0.0521635
0.0526915
0.0532416
0.0538112
0.0543976
0.0549975
0.0556071
0.0562221
0.0568378
0.0574487
0.0580489
0.0586318
0.0591904
0.0597171
0.0602038
0.060642
0.061023
0.0613378
0.0615769
0.061731
0.0558623
0.0554333
0.05463
0.0535905
0.0525127
0.0515541
0.0507701
0.0501325
0.0495934
0.04913
0.0487443
0.0484412
0.0482165
0.0480596
0.0479609
0.0479149
0.0479185
0.0479689
0.0480632
0.0481986
0.048373
0.0485844
0.0488313
0.0491123
0.0494262
0.0497716
0.0501472
0.0505518
0.0509839
0.051442
0.0519244
0.0524292
0.052954
0.0534962
0.054053
0.054621
0.0551962
0.0557745
0.056351
0.0569203
0.0574765
0.0580132
0.0585234
0.0589996
0.0594341
0.0598187
0.0601447
0.0604036
0.0605861
0.0606832
0.0553526
0.0549685
0.054246
0.0533018
0.0523061
0.0514013
0.0506466
0.0500273
0.0495042
0.0490551
0.0486788
0.04838
0.0481559
0.047998
0.0478974
0.0478483
0.0478474
0.0478922
0.0479799
0.0481078
0.0482736
0.0484755
0.0487119
0.0489813
0.0492823
0.0496136
0.0499738
0.0503615
0.0507752
0.0512132
0.0516737
0.0521547
0.0526537
0.053168
0.0536947
0.0542303
0.0547708
0.055312
0.0558491
0.0563766
0.0568887
0.0573791
0.057841
0.0582671
0.0586499
0.0589814
0.0592532
0.0594571
0.0595841
0.0596257
0.0548565
0.0545124
0.0538624
0.0530053
0.0520873
0.0512362
0.0505128
0.0499129
0.049406
0.0489709
0.0486047
0.0483107
0.048088
0.0479294
0.0478268
0.0477747
0.0477694
0.0478085
0.0478894
0.0480096
0.0481667
0.0483588
0.0485844
0.0488418
0.0491296
0.0494463
0.0497906
0.050161
0.0505557
0.0509731
0.0514112
0.0518678
0.0523404
0.0528264
0.0533225
0.0538252
0.0543307
0.0548346
0.0553319
0.0558175
0.0562856
0.0567299
0.0571437
0.0575202
0.0578517
0.0581308
0.0583494
0.0584993
0.0585722
0.0585596
0.0543728
0.0540644
0.0534795
0.0527017
0.051857
0.0510592
0.0503685
0.0497892
0.0492985
0.0488774
0.0485215
0.0482332
0.0480122
0.0478532
0.0477489
0.0476937
0.047684
0.0477175
0.0477915
0.0479037
0.0480519
0.048234
0.0484483
0.0486933
0.0489675
0.0492693
0.0495973
0.0499498
0.050325
0.0507213
0.0511364
0.0515682
0.052014
0.0524711
0.0529362
0.0534058
0.0538759
0.0543422
0.0547997
0.0552434
0.0556675
0.0560658
0.0564321
0.0567593
0.0570403
0.0572678
0.057434
0.0575313
0.0575513
0.0574863
0.0539005
0.053624
0.0530975
0.0523921
0.051616
0.0508704
0.0502135
0.0496558
0.0491815
0.0487743
0.048429
0.0481469
0.0479283
0.0477691
0.0476631
0.0476049
0.0475909
0.0476186
0.0476857
0.0477898
0.0479288
0.0481005
0.0483034
0.0485357
0.0487958
0.0490823
0.0493934
0.0497276
0.0500829
0.0504576
0.0508493
0.0512558
0.0516744
0.0521022
0.0525359
0.052972
0.0534065
0.053835
0.0542527
0.0546545
0.0550347
0.0553875
0.0557065
0.0559851
0.0562164
0.0563933
0.0565083
0.0565541
0.0565229
0.0564072
0.0534387
0.0531906
0.0527166
0.0520771
0.0513651
0.0506701
0.0500476
0.0495125
0.049055
0.0486616
0.0483269
0.0480515
0.0478358
0.0476768
0.0475692
0.047508
0.0474897
0.0475116
0.0475716
0.0476675
0.047797
0.0479582
0.0481492
0.0483684
0.0486142
0.0488849
0.0491788
0.0494942
0.0498291
0.0501817
0.0505495
0.0509303
0.0513212
0.0517194
0.0521215
0.0525238
0.0529225
0.0533132
0.053691
0.054051
0.0543877
0.0546953
0.0549676
0.0551983
0.0553807
0.055508
0.0555731
0.055569
0.0554881
0.0553237
0.0529864
0.0527638
0.0523369
0.0517573
0.051105
0.0504588
0.0498708
0.0493591
0.0489186
0.0485391
0.0482151
0.0479467
0.0477343
0.0475758
0.0474668
0.0474027
0.0473799
0.0473961
0.0474489
0.0475364
0.0476562
0.0478065
0.0479854
0.0481912
0.0484222
0.0486767
0.048953
0.0492492
0.0495634
0.0498934
0.050237
0.0505916
0.0509545
0.0513227
0.0516929
0.0520613
0.0524241
0.0527769
0.053115
0.0534335
0.053727
0.0539899
0.0542162
0.0543998
0.0545343
0.0546132
0.0546297
0.0545772
0.0544485
0.0542372
0.0525428
0.0523429
0.0519584
0.0514333
0.0508363
0.0502369
0.0496833
0.0491953
0.0487723
0.0484066
0.0480934
0.0478322
0.0476235
0.0474658
0.0473554
0.0472884
0.0472613
0.0472716
0.0473172
0.047396
0.047506
0.0476452
0.0478116
0.0480037
0.0482196
0.0484576
0.0487158
0.0489924
0.0492854
0.0495925
0.0499114
0.0502396
0.0505742
0.0509122
0.0512502
0.0515846
0.0519115
0.0522265
0.052525
0.0528023
0.053053
0.0532718
0.0534529
0.0535904
0.0536781
0.0537099
0.0536793
0.05358
0.0534054
0.0531495
0.0521071
0.0519275
0.0515811
0.0511054
0.0505596
0.0500047
0.049485
0.0490212
0.0486158
0.0482639
0.0479614
0.0477076
0.0475029
0.0473463
0.0472348
0.0471649
0.0471334
0.0471378
0.047176
0.0472461
0.047346
0.0474738
0.0476276
0.0478056
0.048006
0.0482271
0.048467
0.0487236
0.048995
0.0492789
0.0495728
0.0498742
0.0501803
0.0504878
0.0507936
0.0510939
0.0513848
0.0516622
0.0519215
0.052158
0.0523665
0.0525419
0.0526786
0.052771
0.0528131
0.0527992
0.0527231
0.0525789
0.0523604
0.0520619
0.0516783
0.0515169
0.0512048
0.050774
0.0502755
0.0497627
0.049276
0.0488365
0.048449
0.0481108
0.047819
0.0475728
0.0473723
0.047217
0.0471045
0.0470318
0.0469959
0.0469943
0.0470251
0.0470863
0.0471759
0.0472921
0.0474329
0.0475966
0.0477812
0.0479851
0.0482062
0.0484425
0.048692
0.0489523
0.049221
0.0494954
0.0497727
0.0500497
0.0503231
0.0505894
0.0508446
0.0510845
0.0513049
0.0515011
0.0516681
0.0518009
0.0518942
0.0519426
0.0519406
0.0518825
0.0517626
0.0515753
0.051315
0.0509763
0.0512559
0.0511108
0.0508295
0.0504394
0.0499844
0.0495113
0.0490567
0.0486412
0.0482717
0.0479473
0.0476661
0.0474274
0.0472314
0.0470776
0.0469642
0.0468887