/*--------------------------------*- C++ -*----------------------------------*\
  =========                 |
  \\      /  F ield         | OpenFOAM: The Open Source CFD Toolbox
   \\    /   O peration     | Website:  https://openfoam.org
    \\  /    A nd           | Version:  7
     \\/     M anipulation  |
\*---------------------------------------------------------------------------*/
FoamFile
{
    version     2.0;
    format      ascii;
    class       surfaceScalarField;
    location    "0.02";
    object      phi_0;
}
// * * * * * * * * * * * * * * * * * * * * * * * * * * * * * * * * * * * * * //

dimensions      [0 3 -1 0 0 0 0];

internalField   nonuniform List<scalar> 
139350
(
6.45068e-08
9.21247e-08
3.19496e-08
3.25572e-08
2.30316e-08
8.91801e-09
1.95321e-08
3.49942e-09
1.75639e-08
1.96828e-09
1.61156e-08
1.44829e-09
1.4963e-08
1.15256e-09
1.40296e-08
9.33402e-10
1.32567e-08
7.72877e-10
1.26011e-08
6.55643e-10
1.20339e-08
5.67161e-10
1.1536e-08
4.97976e-10
1.10935e-08
4.42499e-10
1.06962e-08
3.97214e-10
1.03365e-08
3.59725e-10
1.00082e-08
3.28324e-10
9.70643e-09
3.01762e-10
9.42732e-09
2.79107e-10
9.16766e-09
2.59659e-10
8.92478e-09
2.42882e-10
8.69642e-09
2.28366e-10
8.48063e-09
2.1579e-10
8.27572e-09
2.04906e-10
8.0802e-09
1.95523e-10
7.8927e-09
1.87494e-10
7.712e-09
1.80706e-10
7.53692e-09
1.75078e-10
7.36636e-09
1.70557e-10
7.19927e-09
1.67096e-10
7.03456e-09
1.64703e-10
6.87123e-09
1.63329e-10
6.70817e-09
1.63069e-10
6.54436e-09
1.63805e-10
6.37856e-09
1.65804e-10
6.20983e-09
1.68728e-10
6.03662e-09
1.73204e-10
5.85825e-09
1.7837e-10
5.67269e-09
1.85567e-10
5.47975e-09
1.92937e-10
5.27676e-09
2.0299e-10
5.06423e-09
2.12531e-10
4.83917e-09
2.25061e-10
4.60184e-09
2.37328e-10
4.35174e-09
2.50098e-10
4.08379e-09
2.67953e-10
3.80998e-09
2.73816e-10
3.50406e-09
3.0592e-10
3.22317e-09
2.80891e-10
2.76404e-09
4.59122e-10
-1.77658e-09
4.54062e-09
1.25935e-07
1.27633e-07
9.12618e-08
6.72308e-08
7.18788e-08
2.8301e-08
6.1127e-08
1.42512e-08
5.46492e-08
8.44604e-09
5.01077e-08
5.98983e-09
4.65718e-08
4.68847e-09
4.37028e-08
3.8024e-09
4.13202e-08
3.15543e-09
3.92988e-08
2.67704e-09
3.75516e-08
2.31442e-09
3.60186e-08
2.03095e-09
3.46574e-08
1.80371e-09
3.34365e-08
1.61812e-09
3.23319e-08
1.46433e-09
3.13249e-08
1.33532e-09
3.04006e-08
1.226e-09
2.95472e-08
1.13255e-09
2.87548e-08
1.05211e-09
2.80152e-08
9.82484e-10
2.73215e-08
9.21979e-10
2.6668e-08
8.69281e-10
2.60496e-08
8.23369e-10
2.54617e-08
7.83445e-10
2.49003e-08
7.48903e-10
2.43617e-08
7.19273e-10
2.38425e-08
6.94219e-10
2.33396e-08
6.73502e-10
2.28497e-08
6.56968e-10
2.23699e-08
6.44568e-10
2.1897e-08
6.3624e-10
2.14279e-08
6.3216e-10
2.09595e-08
6.32198e-10
2.04883e-08
6.3694e-10
2.00113e-08
6.45801e-10
1.95242e-08
6.60272e-10
1.90241e-08
6.78422e-10
1.85059e-08
7.03822e-10
1.79674e-08
7.31388e-10
1.74013e-08
7.69142e-10
1.68082e-08
8.05646e-10
1.61761e-08
8.57116e-10
1.5512e-08
9.01422e-10
1.47956e-08
9.66514e-10
1.40463e-08
1.01729e-09
1.32286e-08
1.09152e-09
1.2384e-08
1.15051e-09
1.14728e-08
1.19209e-09
1.03634e-08
1.56845e-09
-1.61911e-09
1.0206e-08
1.58746e-07
1.3529e-07
1.365e-07
8.94777e-08
1.17429e-07
4.73719e-08
1.03202e-07
2.84776e-08
9.31504e-08
1.84979e-08
8.57843e-08
1.33559e-08
8.00035e-08
1.04693e-08
7.52722e-08
8.53367e-09
7.13086e-08
7.11901e-09
6.79254e-08
6.06022e-09
6.49896e-08
5.25027e-09
6.24066e-08
4.61392e-09
6.01083e-08
4.10207e-09
5.80436e-08
3.68278e-09
5.61736e-08
3.33434e-09
5.44676e-08
3.04126e-09
5.29014e-08
2.79224e-09
5.14552e-08
2.5788e-09
5.01127e-08
2.39454e-09
4.88607e-08
2.23455e-09
4.76876e-08
2.09501e-09
4.6584e-08
1.97295e-09
4.55413e-08
1.86608e-09
4.45521e-08
1.77256e-09
4.361e-08
1.69102e-09
4.27089e-08
1.62037e-09
4.18433e-08
1.55986e-09
4.10079e-08
1.50891e-09
4.01977e-08
1.46718e-09
3.94077e-08
1.43451e-09
3.86331e-08
1.41086e-09
3.78688e-08
1.39644e-09
3.71097e-08
1.39128e-09
3.63505e-08
1.39622e-09
3.55855e-08
1.41074e-09
3.48087e-08
1.43714e-09
3.40144e-08
1.47272e-09
3.31946e-08
1.52358e-09
3.2345e-08
1.58101e-09
3.14536e-08
1.66053e-09
3.05204e-08
1.73885e-09
2.95244e-08
1.85307e-09
2.84786e-08
1.94731e-09
2.73405e-08
2.10461e-09
2.61563e-08
2.20141e-09
2.48343e-08
2.41357e-09
2.34931e-08
2.49166e-09
2.19705e-08
2.71473e-09
2.03354e-08
3.20352e-09
1.31752e-10
1.85846e-08
1.75608e-07
1.31198e-07
1.65603e-07
9.94827e-08
1.52679e-07
6.02954e-08
1.40018e-07
4.11388e-08
1.29272e-07
2.92438e-08
1.20555e-07
2.20725e-08
1.13355e-07
1.767e-08
1.07276e-07
1.46126e-08
1.02069e-07
1.23257e-08
9.75524e-08
1.05768e-08
9.35867e-08
9.21601e-09
9.00667e-08
8.13396e-09
8.69129e-08
7.25581e-09
8.40644e-08
6.5313e-09
8.14732e-08
5.92553e-09
7.91011e-08
5.41333e-09
7.69173e-08
4.97606e-09
7.48965e-08
4.59964e-09
7.30177e-08
4.27334e-09
7.12634e-08
3.98884e-09
6.96188e-08
3.73966e-09
6.8071e-08
3.52073e-09
6.6609e-08
3.32805e-09
6.52231e-08
3.1585e-09
6.39044e-08
3.00965e-09
6.26452e-08
2.87962e-09
6.1438e-08
2.76706e-09
6.02759e-08
2.67095e-09
5.91524e-08
2.59074e-09
5.80609e-08
2.52604e-09
5.69948e-08
2.47689e-09
5.59478e-08
2.44352e-09
5.49128e-08
2.42623e-09
5.38829e-08
2.42613e-09
5.28507e-08
2.44296e-09
5.18079e-08
2.4799e-09
5.07469e-08
2.53373e-09
4.96571e-08
2.61333e-09
4.85318e-08
2.70632e-09
4.73554e-08
2.83696e-09
4.6126e-08
2.96829e-09
4.4816e-08
3.16307e-09
4.34396e-08
3.32368e-09
4.19404e-08
3.60384e-09
4.03758e-08
3.76592e-09
3.8623e-08
4.16638e-09
3.68321e-08
4.28265e-09
3.47804e-08
4.76642e-09
3.26571e-08
5.3268e-09
2.9194e-09
2.98694e-08
1.84507e-07
1.23476e-07
1.82326e-07
1.01664e-07
1.76078e-07
6.65427e-08
1.67675e-07
4.95419e-08
1.58993e-07
3.79262e-08
1.51008e-07
3.0057e-08
1.43842e-07
2.48361e-08
1.37436e-07
2.10193e-08
1.31717e-07
1.80447e-08
1.26602e-07
1.56914e-08
1.22007e-07
1.38112e-08
1.17855e-07
1.22856e-08
1.14083e-07
1.10278e-08
1.10638e-07
9.97684e-09
1.07474e-07
9.08876e-09
1.04557e-07
8.3311e-09
1.01853e-07
7.67923e-09
9.93389e-08
7.11423e-09
9.69908e-08
6.62141e-09
9.47904e-08
6.18924e-09
9.27214e-08
5.80865e-09
9.07697e-08
5.47241e-09
8.89229e-08
5.17485e-09
8.717e-08
4.91143e-09
8.5501e-08
4.67866e-09
8.39068e-08
4.47376e-09
8.23791e-08
4.29478e-09
8.09098e-08
4.14021e-09
7.94913e-08
4.00925e-09
7.81161e-08
3.9013e-09
7.67764e-08
3.81653e-09
7.54648e-08
3.75515e-09
7.41732e-08
3.71788e-09
7.28932e-08
3.70611e-09
7.16161e-08
3.72004e-09
7.03323e-08
3.76375e-09
6.90322e-08
3.83379e-09
6.77036e-08
3.94194e-09
6.63374e-08
4.07247e-09
6.49157e-08
4.25868e-09
6.34339e-08
4.45012e-09
6.18608e-08
4.73612e-09
6.02077e-08
4.97678e-09
5.84131e-08
5.39852e-09
5.65301e-08
5.64887e-09
5.44322e-08
6.26426e-09
5.22543e-08
6.46055e-09
4.9786e-08
7.2347e-09
4.71931e-08
7.9197e-09
6.27344e-09
4.38391e-08
1.9034e-07
1.15353e-07
1.91847e-07
1.00157e-07
1.90231e-07
6.81594e-08
1.8609e-07
5.36826e-08
1.80599e-07
4.34179e-08
1.74776e-07
3.58793e-08
1.68991e-07
3.06208e-08
1.63402e-07
2.66083e-08
1.58107e-07
2.33398e-08
1.53149e-07
2.06493e-08
1.48532e-07
1.84284e-08
1.4424e-07
1.65777e-08
1.4025e-07
1.5018e-08
1.36536e-07
1.36907e-08
1.33073e-07
1.25517e-08
1.29837e-07
1.15672e-08
1.26806e-07
1.07104e-08
1.23959e-07
9.96047e-09
1.2128e-07
9.30052e-09
1.18752e-07
8.71717e-09
1.16361e-07
8.19964e-09
1.14095e-07
7.73928e-09
1.1194e-07
7.32913e-09
1.09888e-07
6.9636e-09
1.07928e-07
6.63836e-09
1.06052e-07
6.34995e-09
1.04251e-07
6.09592e-09
1.02517e-07
5.87436e-09
1.00842e-07
5.68435e-09
9.9218e-08
5.52515e-09
9.76374e-08
5.3971e-09
9.60921e-08
5.30052e-09
9.45733e-08
5.23662e-09
9.30723e-08
5.20713e-09
9.15795e-08
5.21288e-09
9.00843e-08
5.25887e-09
8.85764e-08
5.34179e-09
8.70422e-08
5.47612e-09
8.5471e-08
5.64363e-09
8.38438e-08
5.88586e-09
8.21529e-08
6.141e-09
8.0367e-08
6.52207e-09
7.84906e-08
6.8532e-09
7.64658e-08
7.42324e-09
7.4329e-08
7.78576e-09
7.19736e-08
8.61964e-09
6.94821e-08
8.95207e-09
6.6717e-08
9.99974e-09
6.37134e-08
1.09233e-08
9.94671e-09
6.00402e-08
1.95501e-07
1.07666e-07
1.98236e-07
9.74219e-08
1.98959e-07
6.74362e-08
1.97738e-07
5.49034e-08
1.95063e-07
4.60931e-08
1.91666e-07
3.92764e-08
1.87859e-07
3.4428e-08
1.83814e-07
3.06528e-08
1.79683e-07
2.74708e-08
1.75577e-07
2.47562e-08
1.71563e-07
2.24423e-08
1.67681e-07
2.04591e-08
1.63953e-07
1.87459e-08
1.60388e-07
1.7256e-08
1.56987e-07
1.5953e-08
1.53746e-07
1.48078e-08
1.5066e-07
1.37967e-08
1.4772e-07
1.29002e-08
1.44918e-07
1.21022e-08
1.42246e-07
1.13895e-08
1.39695e-07
1.07513e-08
1.37255e-07
1.01787e-08
1.3492e-07
9.66436e-09
1.32681e-07
9.20247e-09
1.30531e-07
8.78836e-09
1.28463e-07
8.41833e-09
1.26469e-07
8.0898e-09
1.24542e-07
7.80074e-09
1.22676e-07
7.55031e-09
1.20864e-07
7.33784e-09
1.19097e-07
7.16399e-09
1.17368e-07
7.02933e-09
1.15669e-07
6.93568e-09
1.13991e-07
6.88522e-09
1.12324e-07
6.87959e-09
1.10658e-07
6.92472e-09
1.08982e-07
7.01777e-09
1.07283e-07
7.17566e-09
1.05548e-07
7.37869e-09
1.03758e-07
7.67512e-09
1.01904e-07
7.99527e-09
9.99561e-08
8.47018e-09
9.79102e-08
8.89911e-09
9.57189e-08
9.61451e-09
9.33936e-08
1.0111e-08
9.08635e-08
1.11497e-08
8.81402e-08
1.16754e-08
8.51829e-08
1.2957e-08
8.18856e-08
1.42206e-08
1.38325e-08
7.79999e-08
2.00816e-07
1.00435e-07
2.0376e-07
9.44777e-08
2.0532e-07
6.58763e-08
2.056e-07
5.46236e-08
2.04738e-07
4.69554e-08
2.03213e-07
4.08007e-08
2.01205e-07
3.6436e-08
1.98797e-07
3.3061e-08
1.96095e-07
3.01728e-08
1.93202e-07
2.76495e-08
1.90198e-07
2.54463e-08
1.87144e-07
2.35132e-08
1.84085e-07
2.18052e-08
1.81053e-07
2.02879e-08
1.78071e-07
1.89348e-08
1.75155e-07
1.77242e-08
1.72313e-07
1.66379e-08
1.69553e-07
1.56605e-08
1.66876e-07
1.47789e-08
1.64284e-07
1.3982e-08
1.61775e-07
1.32605e-08
1.59347e-07
1.26066e-08
1.56997e-07
1.20137e-08
1.54723e-07
1.14767e-08
1.5252e-07
1.09911e-08
1.50385e-07
1.05538e-08
1.48312e-07
1.01625e-08
1.46298e-07
9.81544e-09
1.44336e-07
9.51217e-09
1.42421e-07
9.25239e-09
1.40548e-07
9.03731e-09
1.38709e-07
8.86796e-09
1.36898e-07
8.7469e-09
1.35106e-07
8.67695e-09
1.33325e-07
8.66067e-09
1.31545e-07
8.70498e-09
1.29755e-07
8.80787e-09
1.27942e-07
8.98827e-09
1.26095e-07
9.22624e-09
1.24195e-07
9.57479e-09
1.2223e-07
9.96044e-09
1.20175e-07
1.05253e-08
1.18017e-07
1.10568e-08
1.15723e-07
1.19088e-08
1.13277e-07
1.25564e-08
1.10649e-07
1.37781e-08
1.07783e-07
1.45413e-08
1.0472e-07
1.60203e-08
1.01271e-07
1.76696e-08
1.78401e-08
9.7263e-08
2.06419e-07
9.35477e-08
2.0932e-07
9.15775e-08
2.11031e-07
6.41648e-08
2.11892e-07
5.37625e-08
2.11928e-07
4.69192e-08
2.11507e-07
4.12221e-08
2.10729e-07
3.72137e-08
2.09596e-07
3.41941e-08
2.08145e-07
3.16242e-08
2.06432e-07
2.93618e-08
2.04514e-07
2.73646e-08
2.02439e-07
2.55888e-08
2.00248e-07
2.39957e-08
1.97979e-07
2.25574e-08
1.9566e-07
2.12536e-08
1.93316e-07
2.00684e-08
1.90965e-07
1.89888e-08
1.88622e-07
1.80034e-08
1.86298e-07
1.71026e-08
1.84002e-07
1.62782e-08
1.81739e-07
1.55231e-08
1.79515e-07
1.48313e-08
1.7733e-07
1.41979e-08
1.75188e-07
1.36188e-08
1.73089e-07
1.30908e-08
1.71031e-07
1.26114e-08
1.69014e-07
1.21792e-08
1.67037e-07
1.17931e-08
1.65096e-07
1.14534e-08
1.63188e-07
1.11604e-08
1.61309e-07
1.09162e-08
1.59454e-07
1.07223e-08
1.57619e-07
1.05824e-08
1.55796e-07
1.05e-08
1.53978e-07
1.04788e-08
1.52156e-07
1.05266e-08
1.50321e-07
1.06426e-08
1.48462e-07
1.08474e-08
1.46566e-07
1.11219e-08
1.44619e-07
1.15218e-08
1.42606e-07
1.19738e-08
1.40507e-07
1.26244e-08
1.38302e-07
1.32613e-08
1.35972e-07
1.42392e-08
1.3348e-07
1.50485e-08
1.30827e-07
1.6431e-08
1.27912e-07
1.7456e-08
1.24822e-07
1.91103e-08
1.21354e-07
2.11375e-08
2.18553e-08
1.17339e-07
2.12266e-07
8.69445e-08
2.15128e-07
8.87152e-08
2.16785e-07
6.25077e-08
2.17806e-07
5.27416e-08
2.18189e-07
4.65362e-08
2.18274e-07
4.11374e-08
2.18157e-07
3.73305e-08
2.17805e-07
3.45458e-08
2.17211e-07
3.22184e-08
2.16392e-07
3.01813e-08
2.15369e-07
2.83867e-08
2.14169e-07
2.67894e-08
2.12815e-07
2.53498e-08
2.11332e-07
2.40401e-08
2.09744e-07
2.28417e-08
2.08072e-07
2.17408e-08
2.06334e-07
2.07267e-08
2.04546e-07
1.97907e-08
2.02723e-07
1.89255e-08
2.00877e-07
1.8125e-08
1.99015e-07
1.73842e-08
1.97148e-07
1.66988e-08
1.9528e-07
1.60654e-08
1.93418e-07
1.54813e-08
1.91564e-07
1.49444e-08
1.89722e-07
1.44534e-08
1.87894e-07
1.40079e-08
1.86079e-07
1.36076e-08
1.84279e-07
1.32538e-08
1.82491e-07
1.29477e-08
1.80716e-07
1.2692e-08
1.78948e-07
1.24895e-08
1.77186e-07
1.23445e-08
1.75425e-07
1.22616e-08
1.73658e-07
1.22455e-08
1.71879e-07
1.23052e-08
1.70081e-07
1.24413e-08
1.68253e-07
1.26755e-08
1.66384e-07
1.29904e-08
1.64463e-07
1.34432e-08
1.62473e-07
1.39634e-08
1.60401e-07
1.46964e-08
1.58223e-07
1.54399e-08
1.55928e-07
1.65336e-08
1.53468e-07
1.75088e-08
1.50866e-07
1.90333e-08
1.47996e-07
2.03253e-08
1.44962e-07
2.21446e-08
1.4159e-07
2.45094e-08
2.57556e-08
1.3769e-07
2.18311e-07
8.06138e-08
2.21177e-07
8.58497e-08
2.22757e-07
6.09278e-08
2.23805e-07
5.16929e-08
2.24297e-07
4.60447e-08
2.2456e-07
4.0874e-08
2.24723e-07
3.71681e-08
2.24755e-07
3.45138e-08
2.24634e-07
3.23386e-08
2.24361e-07
3.04547e-08
2.23938e-07
2.881e-08
2.23369e-07
2.73579e-08
2.22663e-07
2.60555e-08
2.21831e-07
2.48727e-08
2.20883e-07
2.37893e-08
2.19833e-07
2.2791e-08
2.18692e-07
2.18672e-08
2.17474e-07
2.10095e-08
2.16187e-07
2.02115e-08
2.14844e-07
1.9468e-08
2.13454e-07
1.8775e-08
2.12023e-07
1.81292e-08
2.1056e-07
1.75282e-08
2.09071e-07
1.69703e-08
2.07561e-07
1.64546e-08
2.06034e-07
1.59804e-08
2.04494e-07
1.55482e-08
2.02943e-07
1.51587e-08
2.01383e-07
1.48141e-08
1.99814e-07
1.45162e-08
1.98237e-07
1.42689e-08
1.96651e-07
1.40756e-08
1.95054e-07
1.39417e-08
1.93443e-07
1.38727e-08
1.91814e-07
1.38745e-08
1.90162e-07
1.39572e-08
1.88481e-07
1.41224e-08
1.86763e-07
1.43933e-08
1.84999e-07
1.47543e-08
1.83179e-07
1.5263e-08
1.81289e-07
1.58537e-08
1.79318e-07
1.6667e-08
1.77241e-07
1.75172e-08
1.75057e-07
1.87177e-08
1.72709e-07
1.98572e-08
1.70233e-07
2.15086e-08
1.67501e-07
2.30579e-08
1.64607e-07
2.50381e-08
1.61431e-07
2.76852e-08
2.94255e-08
1.57761e-07
2.24545e-07
7.45621e-08
2.27436e-07
8.29582e-08
2.28952e-07
5.94123e-08
2.30007e-07
5.06378e-08
2.30538e-07
4.55136e-08
2.30849e-07
4.05627e-08
2.31102e-07
3.69158e-08
2.31283e-07
3.43321e-08
2.31375e-07
3.22466e-08
2.31375e-07
3.04549e-08
2.31281e-07
2.89042e-08
2.3109e-07
2.75488e-08
2.30801e-07
2.63448e-08
2.30414e-07
2.52595e-08
2.29932e-07
2.4271e-08
2.2936e-07
2.33636e-08
2.28701e-07
2.25257e-08
2.27963e-07
2.17481e-08
2.2715e-07
2.10241e-08
2.2627e-07
2.03484e-08
2.25328e-07
1.97171e-08
2.2433e-07
1.91271e-08
2.23281e-07
1.85765e-08
2.22188e-07
1.80639e-08
2.21054e-07
1.75887e-08
2.19883e-07
1.71511e-08
2.18679e-07
1.67521e-08
2.17445e-07
1.63929e-08
2.16183e-07
1.60762e-08
2.14894e-07
1.58048e-08
2.1358e-07
1.5583e-08
2.12241e-07
1.54151e-08
2.10875e-07
1.53073e-08
2.09482e-07
1.5266e-08
2.08058e-07
1.5298e-08
2.06601e-07
1.54144e-08
2.05105e-07
1.5618e-08
2.03566e-07
1.59331e-08
2.01974e-07
1.6346e-08
2.00323e-07
1.69139e-08
1.98599e-07
1.75772e-08
1.96798e-07
1.84689e-08
1.94891e-07
1.9424e-08
1.92886e-07
2.07229e-08
1.90723e-07
2.20201e-08
1.88445e-07
2.37861e-08
1.85931e-07
2.55719e-08
1.83259e-07
2.77099e-08
1.80364e-07
3.05803e-08
3.27654e-08
1.77024e-07
2.30971e-07
6.87972e-08
2.33897e-07
8.0032e-08
2.35355e-07
5.79542e-08
2.36418e-07
4.95751e-08
2.36981e-07
4.49505e-08
2.37306e-07
4.02375e-08
2.37579e-07
3.66426e-08
2.37807e-07
3.41048e-08
2.37975e-07
3.20786e-08
2.38085e-07
3.03442e-08
2.3814e-07
2.88493e-08
2.38137e-07
2.75524e-08
2.38071e-07
2.64102e-08
2.37941e-07
2.53894e-08
2.37745e-07
2.4467e-08
2.37483e-07
2.36263e-08
2.37153e-07
2.28549e-08
2.36759e-07
2.21429e-08
2.363e-07
2.14827e-08
2.3578e-07
2.08688e-08
2.352e-07
2.02966e-08
2.34564e-07
1.97631e-08
2.33875e-07
1.9266e-08
2.33135e-07
1.8804e-08
2.32347e-07
1.83768e-08
2.31513e-07
1.79845e-08
2.30637e-07
1.76284e-08
2.2972e-07
1.73101e-08
2.28763e-07
1.70325e-08
2.27769e-07
1.67988e-08
2.26738e-07
1.66139e-08
2.25671e-07
1.64826e-08
2.24567e-07
1.64116e-08
2.23424e-07
1.64082e-08
2.22243e-07
1.64794e-08
2.21019e-07
1.66379e-08
2.1975e-07
1.6887e-08
2.18432e-07
1.72517e-08
2.17057e-07
1.77206e-08
2.15622e-07
1.83496e-08
2.14113e-07
1.90859e-08
2.12529e-07
2.00529e-08
2.10844e-07
2.11088e-08
2.0907e-07
2.24975e-08
2.07148e-07
2.39413e-08
2.05124e-07
2.58102e-08
2.02892e-07
2.7804e-08
2.00508e-07
3.00938e-08
1.97958e-07
3.3131e-08
3.56993e-08
1.95024e-07
2.37597e-07
6.3325e-08
2.40562e-07
7.70669e-08
2.41963e-07
5.65537e-08
2.43032e-07
4.85059e-08
2.43631e-07
4.43517e-08
2.43968e-07
3.99004e-08
2.44245e-07
3.63651e-08
2.44484e-07
3.38662e-08
2.44674e-07
3.18889e-08
2.4482e-07
3.01974e-08
2.4493e-07
2.87398e-08
2.45003e-07
2.74796e-08
2.45037e-07
2.63756e-08
2.45032e-07
2.5395e-08
2.44984e-07
2.45149e-08
2.44892e-07
2.37183e-08
2.44754e-07
2.29924e-08
2.4457e-07
2.23271e-08
2.44338e-07
2.17145e-08
2.44059e-07
2.11483e-08
2.43732e-07
2.0624e-08
2.43357e-07
2.01379e-08
2.42935e-07
1.96878e-08
2.42467e-07
1.9272e-08
2.41954e-07
1.88902e-08
2.41396e-07
1.85424e-08
2.40794e-07
1.82299e-08
2.4015e-07
1.79543e-08
2.39464e-07
1.77189e-08
2.38736e-07
1.75268e-08
2.37967e-07
1.73832e-08
2.37156e-07
1.72933e-08
2.36304e-07
1.7264e-08
2.35408e-07
1.73032e-08
2.34469e-07
1.74184e-08
2.33484e-07
1.7623e-08
2.32451e-07
1.79207e-08
2.31365e-07
1.83374e-08
2.30222e-07
1.88632e-08
2.29019e-07
1.95525e-08
2.27746e-07
2.03596e-08
2.26402e-07
2.13969e-08
2.24964e-07
2.25467e-08
2.23446e-07
2.40154e-08
2.21797e-07
2.55903e-08
2.20057e-07
2.75503e-08
2.18142e-07
2.97187e-08
2.16087e-07
3.2149e-08
2.13915e-07
3.53026e-08
3.81839e-08
2.1143e-07
2.44432e-07
5.8149e-08
2.47435e-07
7.40636e-08
2.4878e-07
5.5209e-08
2.49852e-07
4.74345e-08
2.50488e-07
4.37153e-08
2.5084e-07
3.95479e-08
2.51121e-07
3.60845e-08
2.51364e-07
3.36236e-08
2.51559e-07
3.16931e-08
2.51715e-07
3.00414e-08
2.51841e-07
2.86146e-08
2.51938e-07
2.73818e-08
2.52009e-07
2.63046e-08
2.52053e-07
2.53511e-08
2.5207e-07
2.44987e-08
2.52057e-07
2.37309e-08
2.52014e-07
2.30352e-08
2.5194e-07
2.24013e-08
2.51833e-07
2.18215e-08
2.51692e-07
2.12893e-08
2.51516e-07
2.07999e-08
2.51304e-07
2.03497e-08
2.51056e-07
1.99362e-08
2.5077e-07
1.95578e-08
2.50446e-07
1.92137e-08
2.50085e-07
1.8904e-08
2.49685e-07
1.863e-08
2.49246e-07
1.83934e-08
2.48767e-07
1.81971e-08
2.48249e-07
1.80446e-08
2.47692e-07
1.7941e-08
2.47093e-07
1.78919e-08
2.46453e-07
1.7904e-08
2.4577e-07
1.79859e-08
2.45044e-07
1.8145e-08
2.44271e-07
1.83954e-08
2.43451e-07
1.87411e-08
2.4258e-07
1.92083e-08
2.41654e-07
1.97889e-08
2.40672e-07
2.05348e-08
2.39624e-07
2.14077e-08
2.38513e-07
2.25082e-08
2.37317e-07
2.37422e-08
2.36053e-07
2.52798e-08
2.34676e-07
2.69674e-08
2.3322e-07
2.90059e-08
2.31626e-07
3.13132e-08
2.29907e-07
3.38672e-08
2.28116e-07
3.70939e-08
4.02154e-08
2.26085e-07
2.51484e-07
5.32714e-08
2.54516e-07
7.10323e-08
2.55815e-07
5.39092e-08
2.56884e-07
4.63664e-08
2.57557e-07
4.30423e-08
2.57927e-07
3.91773e-08
2.58212e-07
3.57994e-08
2.58459e-07
3.33771e-08
2.58658e-07
3.14939e-08
2.58817e-07
2.98828e-08
2.58945e-07
2.84861e-08
2.59049e-07
2.72781e-08
2.5913e-07
2.62236e-08
2.59189e-07
2.52917e-08
2.59228e-07
2.44603e-08
2.59245e-07
2.37135e-08
2.59241e-07
2.30392e-08
2.59215e-07
2.24274e-08
2.59166e-07
2.18706e-08
2.59093e-07
2.13624e-08
2.58995e-07
2.08981e-08
2.5887e-07
2.04741e-08
2.58719e-07
2.00878e-08
2.58539e-07
1.97377e-08
2.58329e-07
1.94231e-08
2.58089e-07
1.91439e-08
2.57818e-07
1.89015e-08
2.57514e-07
1.86974e-08
2.57176e-07
1.85346e-08
2.56804e-07
1.84168e-08
2.56397e-07
1.83488e-08
2.55952e-07
1.83364e-08
2.5547e-07
1.83863e-08
2.54948e-07
1.85075e-08
2.54386e-07
1.87073e-08
2.53781e-07
1.90001e-08
2.53132e-07
1.93904e-08
2.52436e-07
1.99039e-08
2.5169e-07
2.05346e-08
2.50894e-07
2.13312e-08
2.50039e-07
2.2263e-08
2.49129e-07
2.34181e-08
2.48146e-07
2.47248e-08
2.47106e-07
2.632e-08
2.45973e-07
2.81001e-08
2.44776e-07
3.02037e-08
2.43474e-07
3.26153e-08
2.42069e-07
3.52719e-08
2.40627e-07
3.8536e-08
4.18275e-08
2.39015e-07
2.58762e-07
4.86923e-08
2.61811e-07
6.79835e-08
2.63077e-07
5.26433e-08
2.64136e-07
4.53067e-08
2.64844e-07
4.23348e-08
2.65235e-07
3.87866e-08
2.65525e-07
3.55089e-08
2.65776e-07
3.31266e-08
2.65979e-07
3.1291e-08
2.66139e-07
2.97224e-08
2.66268e-07
2.83569e-08
2.66373e-07
2.71737e-08
2.66455e-07
2.61412e-08
2.66517e-07
2.52294e-08
2.66561e-07
2.44168e-08
2.66586e-07
2.3688e-08
2.66594e-07
2.30312e-08
2.66585e-07
2.2437e-08
2.66557e-07
2.1898e-08
2.66511e-07
2.14082e-08
2.66446e-07
2.0963e-08
2.66361e-07
2.0559e-08
2.66256e-07
2.01936e-08
2.66128e-07
1.98654e-08
2.65977e-07
1.95738e-08
2.65802e-07
1.93188e-08
2.65602e-07
1.91018e-08
2.65375e-07
1.89243e-08
2.6512e-07
1.87894e-08
2.64836e-07
1.87008e-08
2.64522e-07
1.86632e-08
2.64175e-07
1.86827e-08
2.63796e-07
1.87657e-08
2.63382e-07
1.89216e-08
2.62932e-07
1.91575e-08
2.62444e-07
1.9488e-08
2.61916e-07
1.9918e-08
2.61348e-07
2.04725e-08
2.60735e-07
2.11476e-08
2.60078e-07
2.19881e-08
2.5937e-07
2.2971e-08
2.58616e-07
2.41719e-08
2.57801e-07
2.55396e-08
2.5694e-07
2.71814e-08
2.56005e-07
2.90346e-08
2.55019e-07
3.11902e-08
2.53959e-07
3.36749e-08
2.5282e-07
3.64107e-08
2.51671e-07
3.96849e-08
4.3084e-08
2.50415e-07
2.66274e-07
4.44106e-08
2.6933e-07
6.49278e-08
2.70572e-07
5.14007e-08
2.71619e-07
4.42597e-08
2.72358e-07
4.1596e-08
2.7277e-07
3.83741e-08
2.73067e-07
3.52123e-08
2.73322e-07
3.28719e-08
2.73529e-07
3.10841e-08
2.73691e-07
2.95597e-08
2.73821e-07
2.82272e-08
2.73925e-07
2.70697e-08
2.74007e-07
2.60595e-08
2.74068e-07
2.51679e-08
2.74111e-07
2.43738e-08
2.74137e-07
2.36622e-08
2.74146e-07
2.30218e-08
2.7414e-07
2.24437e-08
2.74117e-07
2.19206e-08
2.74079e-07
2.14467e-08
2.74024e-07
2.10178e-08
2.73952e-07
2.06305e-08
2.73864e-07
2.02825e-08
2.73756e-07
1.99725e-08
2.7363e-07
1.97e-08
2.73484e-07
1.94652e-08
2.73316e-07
1.92694e-08
2.73126e-07
1.91143e-08
2.72913e-07
1.90031e-08
2.72674e-07
1.89394e-08
2.72409e-07
1.89281e-08
2.72117e-07
1.89752e-08
2.71795e-07
1.90872e-08
2.71443e-07
1.92734e-08
2.7106e-07
1.95411e-08
2.70643e-07
1.99048e-08
2.70191e-07
2.03698e-08
2.69703e-07
2.09602e-08
2.69177e-07
2.16741e-08
2.68613e-07
2.25524e-08
2.68005e-07
2.3579e-08
2.67358e-07
2.4818e-08
2.66662e-07
2.62358e-08
2.65929e-07
2.79149e-08
2.6514e-07
2.98237e-08
2.6431e-07
3.20197e-08
2.63433e-07
3.45517e-08
2.625e-07
3.73444e-08
2.61576e-07
4.0609e-08
4.40643e-08
2.60595e-07
2.74029e-07
4.04232e-08
2.7708e-07
6.18763e-08
2.7831e-07
5.01711e-08
2.7934e-07
4.3229e-08
2.80107e-07
4.08297e-08
2.80542e-07
3.79385e-08
2.80846e-07
3.49087e-08
2.81105e-07
3.26132e-08
2.81316e-07
3.0873e-08
2.81481e-07
2.93946e-08
2.81611e-07
2.80966e-08
2.81715e-07
2.69659e-08
2.81796e-07
2.59788e-08
2.81856e-07
2.5108e-08
2.81897e-07
2.43327e-08
2.81921e-07
2.36385e-08
2.81928e-07
2.30146e-08
2.81919e-07
2.24522e-08
2.81895e-07
2.19445e-08
2.81856e-07
2.14859e-08
2.81802e-07
2.10723e-08
2.81732e-07
2.07005e-08
2.81646e-07
2.03685e-08
2.81543e-07
2.00751e-08
2.81423e-07
1.98198e-08
2.81285e-07
1.96031e-08
2.81128e-07
1.94263e-08
2.80952e-07
1.92913e-08
2.80753e-07
1.92012e-08
2.80533e-07
1.91599e-08
2.80289e-07
1.9172e-08
2.8002e-07
1.92439e-08
2.79726e-07
1.93819e-08
2.79404e-07
1.95955e-08
2.79053e-07
1.98917e-08
2.78673e-07
2.02852e-08
2.78261e-07
2.07815e-08
2.77817e-07
2.14037e-08
2.77339e-07
2.21521e-08
2.76829e-07
2.30631e-08
2.7628e-07
2.41276e-08
2.75699e-07
2.53987e-08
2.75078e-07
2.68576e-08
2.74426e-07
2.8567e-08
2.73732e-07
3.05174e-08
2.73007e-07
3.27442e-08
2.72255e-07
3.5304e-08
2.71466e-07
3.81337e-08
2.70698e-07
4.13763e-08
4.48494e-08
2.69913e-07
2.82035e-07
3.67253e-08
2.85072e-07
5.88399e-08
2.86298e-07
4.89451e-08
2.87309e-07
4.22175e-08
2.88099e-07
4.00403e-08
2.88559e-07
3.74785e-08
2.8887e-07
3.45971e-08
2.89133e-07
3.23505e-08
2.89348e-07
3.06576e-08
2.89516e-07
2.92266e-08
2.89648e-07
2.79651e-08
2.89752e-07
2.68623e-08
2.89831e-07
2.5899e-08
2.8989e-07
2.50496e-08
2.89929e-07
2.42938e-08
2.8995e-07
2.36175e-08
2.89954e-07
2.30104e-08
2.89942e-07
2.24641e-08
2.89915e-07
2.19719e-08
2.89872e-07
2.15286e-08
2.89814e-07
2.11302e-08
2.89741e-07
2.07738e-08
2.89652e-07
2.04575e-08
2.89547e-07
2.01801e-08
2.89425e-07
1.99414e-08
2.89286e-07
1.97421e-08
2.89129e-07
1.95834e-08
2.88953e-07
1.94675e-08
2.88757e-07
1.93974e-08
2.88539e-07
1.93771e-08
2.883e-07
1.94114e-08
2.88038e-07
1.95065e-08
2.87751e-07
1.96688e-08
2.87438e-07
1.99079e-08
2.87099e-07
2.02307e-08
2.86733e-07
2.06518e-08
2.86337e-07
2.11771e-08
2.85912e-07
2.18284e-08
2.85456e-07
2.26081e-08
2.84971e-07
2.35487e-08
2.84452e-07
2.46465e-08
2.83905e-07
2.59459e-08
2.83323e-07
2.74392e-08
2.82716e-07
2.91739e-08
2.82078e-07
3.11555e-08
2.81416e-07
3.34061e-08
2.8074e-07
3.59802e-08
2.80042e-07
3.88312e-08
2.79374e-07
4.20451e-08
4.55101e-08
2.78713e-07
2.90304e-07
3.33105e-08
2.93314e-07
5.58297e-08
2.94545e-07
4.77137e-08
2.95535e-07
4.12274e-08
2.96343e-07
3.92328e-08
2.96828e-07
3.6993e-08
2.97149e-07
3.42762e-08
2.97416e-07
3.20841e-08
2.97635e-07
3.0438e-08
2.97806e-07
2.90555e-08
2.97939e-07
2.78323e-08
2.98043e-07
2.67587e-08
2.98122e-07
2.58201e-08
2.98179e-07
2.49928e-08
2.98215e-07
2.4257e-08
2.98234e-07
2.35992e-08
2.98235e-07
2.30094e-08
2.98219e-07
2.24795e-08
2.98188e-07
2.20033e-08
2.98141e-07
2.15756e-08
2.98078e-07
2.11927e-08
2.98e-07
2.08519e-08
2.97906e-07
2.05514e-08
2.97796e-07
2.02901e-08
2.97669e-07
2.00682e-08
2.97525e-07
1.98861e-08
2.97363e-07
1.97454e-08
2.97183e-07
1.96483e-08
2.96982e-07
1.9598e-08
2.96761e-07
1.95984e-08
2.96518e-07
1.96542e-08
2.96252e-07
1.9772e-08
2.95963e-07
1.9958e-08
2.9565e-07
2.02216e-08
2.9531e-07
2.05702e-08
2.94944e-07
2.10176e-08
2.94551e-07
2.15707e-08
2.94129e-07
2.22495e-08
2.93679e-07
2.30588e-08
2.932e-07
2.40269e-08
2.92692e-07
2.51553e-08
2.92157e-07
2.64804e-08
2.91593e-07
2.80034e-08
2.91006e-07
2.97607e-08
2.90395e-07
3.17663e-08
2.89766e-07
3.40355e-08
2.89131e-07
3.66155e-08
2.88486e-07
3.94761e-08
2.87872e-07
4.26593e-08
4.61007e-08
2.87281e-07
2.98842e-07
3.01707e-08
3.01815e-07
5.28569e-08
3.0306e-07
4.64692e-08
3.04027e-07
4.02598e-08
3.04848e-07
3.84125e-08
3.05359e-07
3.64815e-08
3.05691e-07
3.39446e-08
3.05961e-07
3.18139e-08
3.06185e-07
3.02141e-08
3.06359e-07
2.8881e-08
3.06493e-07
2.76981e-08
3.06597e-07
2.66549e-08
3.06675e-07
2.57418e-08
3.06731e-07
2.49373e-08
3.06766e-07
2.42223e-08
3.06781e-07
2.35836e-08
3.06779e-07
2.30116e-08
3.0676e-07
2.24987e-08
3.06725e-07
2.20388e-08
3.06673e-07
2.16272e-08
3.06605e-07
2.12602e-08
3.06522e-07
2.09353e-08
3.06423e-07
2.06509e-08
3.06306e-07
2.04062e-08
3.06174e-07
2.02011e-08
3.06023e-07
2.00366e-08
3.05854e-07
1.99141e-08
3.05667e-07
1.9836e-08
3.05459e-07
1.98055e-08
3.05231e-07
1.98266e-08
3.04981e-07
1.99041e-08
3.04709e-07
2.00445e-08
3.04413e-07
2.02539e-08
3.04092e-07
2.0542e-08
3.03746e-07
2.0916e-08
3.03375e-07
2.13894e-08
3.02976e-07
2.19696e-08
3.0255e-07
2.26753e-08
3.02096e-07
2.35129e-08
3.01615e-07
2.45077e-08
3.01106e-07
2.56647e-08
3.00572e-07
2.70145e-08
3.00011e-07
2.85641e-08
2.99429e-07
3.03422e-08
2.98829e-07
3.23671e-08
2.98213e-07
3.46514e-08
2.97595e-07
3.72326e-08
2.96977e-07
4.00947e-08
2.96388e-07
4.32479e-08
4.66583e-08
2.95831e-07
3.07662e-07
2.7296e-08
3.10586e-07
4.99329e-08
3.1185e-07
4.52047e-08
3.12795e-07
3.93153e-08
3.13623e-07
3.75847e-08
3.1416e-07
3.59442e-08
3.14504e-07
3.36009e-08
3.14778e-07
3.15397e-08
3.15006e-07
2.99862e-08
3.15184e-07
2.87029e-08
3.1532e-07
2.7562e-08
3.15424e-07
2.65508e-08
3.15502e-07
2.56641e-08
3.15556e-07
2.48831e-08
3.15589e-07
2.41896e-08
3.15602e-07
2.35705e-08
3.15597e-07
2.30169e-08
3.15574e-07
2.25214e-08
3.15534e-07
2.20784e-08
3.15478e-07
2.16833e-08
3.15405e-07
2.13327e-08
3.15317e-07
2.10242e-08
3.15211e-07
2.07563e-08
3.15089e-07
2.05284e-08
3.1495e-07
2.03406e-08
3.14792e-07
2.0194e-08
3.14616e-07
2.00901e-08
3.14421e-07
2.00313e-08
3.14205e-07
2.00209e-08
3.13969e-07
2.0063e-08
3.13711e-07
2.01624e-08
3.1343e-07
2.03255e-08
3.13125e-07
2.05587e-08
3.12796e-07
2.08712e-08
3.12441e-07
2.12706e-08
3.12061e-07
2.17698e-08
3.11653e-07
2.2377e-08
3.11219e-07
2.31093e-08
3.10757e-07
2.39748e-08
3.10269e-07
2.49958e-08
3.09754e-07
2.61803e-08
3.09214e-07
2.75541e-08
3.0865e-07
2.91283e-08
3.08066e-07
3.09263e-08
3.07465e-07
3.29676e-08
3.06852e-07
3.52645e-08
3.06241e-07
3.78443e-08
3.05633e-07
4.07026e-08
3.05053e-07
4.38278e-08
4.7205e-08
3.04506e-07
3.16772e-07
2.46752e-08
3.19636e-07
4.70687e-08
3.20926e-07
4.39147e-08
3.21848e-07
3.83936e-08
3.22678e-07
3.67544e-08
3.23241e-07
3.53818e-08
3.23598e-07
3.32435e-08
3.23876e-07
3.12612e-08
3.24108e-07
2.97543e-08
3.2429e-07
2.85211e-08
3.24428e-07
2.74239e-08
3.24533e-07
2.64462e-08
3.2461e-07
2.55868e-08
3.24663e-07
2.48301e-08
3.24694e-07
2.41587e-08
3.24705e-07
2.356e-08
3.24696e-07
2.30253e-08
3.2467e-07
2.25479e-08
3.24626e-07
2.21222e-08
3.24565e-07
2.17441e-08
3.24488e-07
2.14102e-08
3.24393e-07
2.11185e-08
3.24282e-07
2.08675e-08
3.24154e-07
2.06569e-08
3.24007e-07
2.04869e-08
3.23843e-07
2.03585e-08
3.2366e-07
2.02735e-08
3.23456e-07
2.02345e-08
3.23233e-07
2.02446e-08
3.22988e-07
2.0308e-08
3.22721e-07
2.04296e-08
3.2243e-07
2.06157e-08
3.22116e-07
2.08728e-08
3.21778e-07
2.12099e-08
3.21413e-07
2.16349e-08
3.21023e-07
2.21601e-08
3.20606e-07
2.27942e-08
3.20162e-07
2.35531e-08
3.19691e-07
2.44462e-08
3.19193e-07
2.54932e-08
3.18669e-07
2.67043e-08
3.18121e-07
2.81019e-08
3.17551e-07
2.96991e-08
3.16961e-07
3.15163e-08
3.16356e-07
3.35721e-08
3.15741e-07
3.58796e-08
3.15128e-07
3.84571e-08
3.14523e-07
4.13081e-08
3.13943e-07
4.44078e-08
4.77525e-08
3.13395e-07
3.26182e-07
2.22957e-08
3.28976e-07
4.42752e-08
3.30295e-07
4.2595e-08
3.31196e-07
3.74934e-08
3.32023e-07
3.59264e-08
3.32609e-07
3.47959e-08
3.32982e-07
3.28711e-08
3.33265e-07
3.0978e-08
3.33501e-07
2.95186e-08
3.33687e-07
2.83353e-08
3.33827e-07
2.72835e-08
3.33932e-07
2.63409e-08
3.34009e-07
2.55098e-08
3.34061e-07
2.47782e-08
3.3409e-07
2.41296e-08
3.34098e-07
2.35519e-08
3.34087e-07
2.30367e-08
3.34057e-07
2.25778e-08
3.34009e-07
2.217e-08
3.33944e-07
2.18093e-08
3.33861e-07
2.14927e-08
3.33762e-07
2.12182e-08
3.33645e-07
2.09847e-08
3.3351e-07
2.07917e-08
3.33357e-07
2.06398e-08
3.33185e-07
2.05302e-08
3.32994e-07
2.04645e-08
3.32783e-07
2.04456e-08
3.32551e-07
2.04765e-08
3.32297e-07
2.05616e-08
3.32021e-07
2.07057e-08
3.31722e-07
2.09152e-08