/*--------------------------------*- C++ -*----------------------------------*\
  =========                 |
  \\      /  F ield         | OpenFOAM: The Open Source CFD Toolbox
   \\    /   O peration     | Website:  https://openfoam.org
    \\  /    A nd           | Version:  7
     \\/     M anipulation  |
\*---------------------------------------------------------------------------*/
FoamFile
{
    version     2.0;
    format      ascii;
    class       volVectorField;
    location    "0.02";
    object      vorticity;
}
// * * * * * * * * * * * * * * * * * * * * * * * * * * * * * * * * * * * * * //

dimensions      [0 0 -1 0 0 0 0];

internalField   nonuniform List<vector> 
70000
(
(0 -0 -45715.6)
(0 -0 -28612.6)
(0 -0 -20900.4)
(0 -0 -16957.2)
(0 -0 -14924.9)
(0 -0 -13605.6)
(0 -0 -12582.7)
(0 -0 -11755.7)
(0 -0 -11076.5)
(0 -0 -10506.3)
(0 -0 -10017.2)
(0 -0 -9590.67)
(0 -0 -9213.75)
(0 -0 -8877.09)
(0 -0 -8573.6)
(0 -0 -8297.79)
(0 -0 -8045.34)
(0 -0 -7812.78)
(0 -0 -7597.29)
(0 -0 -7396.55)
(0 -0 -7208.59)
(0 -0 -7031.77)
(0 -0 -6864.65)
(0 -0 -6705.98)
(0 -0 -6554.64)
(0 -0 -6409.62)
(0 -0 -6269.99)
(0 -0 -6134.86)
(0 -0 -6003.42)
(0 -0 -5874.8)
(0 -0 -5748.27)
(0 -0 -5622.9)
(0 -0 -5498.04)
(0 -0 -5372.56)
(0 -0 -5245.94)
(0 -0 -5116.76)
(0 -0 -4984.69)
(0 -0 -4848.01)
(0 -0 -4706.29)
(0 -0 -4558.37)
(0 -0 -4401.91)
(0 -0 -4240.08)
(0 -0 -4061.38)
(0 -0 -3887.09)
(0 -0 -3671.81)
(0 -0 -3499.66)
(0 -0 -3212.43)
(0 -0 -3096)
(0 -0 -2657)
(0 -0 -2513.51)
(0 -0 -13550)
(0 -0 -19946.9)
(0 -0 -18532.1)
(0 -0 -16239.5)
(0 -0 -14486.2)
(0 -0 -13253.6)
(0 -0 -12315.7)
(0 -0 -11555)
(0 -0 -10921)
(0 -0 -10383.4)
(0 -0 -9919.77)
(0 -0 -9513.99)
(0 -0 -9154.53)
(0 -0 -8832.89)
(0 -0 -8542.61)
(0 -0 -8278.68)
(0 -0 -8037.11)
(0 -0 -7814.71)
(0 -0 -7608.87)
(0 -0 -7417.45)
(0 -0 -7238.63)
(0 -0 -7070.89)
(0 -0 -6912.92)
(0 -0 -6763.58)
(0 -0 -6621.85)
(0 -0 -6486.82)
(0 -0 -6357.66)
(0 -0 -6233.59)
(0 -0 -6113.9)
(0 -0 -5997.82)
(0 -0 -5884.72)
(0 -0 -5773.78)
(0 -0 -5664.42)
(0 -0 -5555.68)
(0 -0 -5447.05)
(0 -0 -5337.31)
(0 -0 -5226.05)
(0 -0 -5111.79)
(0 -0 -4993.98)
(0 -0 -4871.43)
(0 -0 -4742.08)
(0 -0 -4607.87)
(0 -0 -4459.7)
(0 -0 -4312.91)
(0 -0 -4133.01)
(0 -0 -3981.44)
(0 -0 -3742.01)
(0 -0 -3616.84)
(0 -0 -3266.72)
(0 -0 -3171.67)
(0 -0 -3818.99)
(0 -0 -10830.2)
(0 -0 -13365.1)
(0 -0 -13519.5)
(0 -0 -12862.5)
(0 -0 -12131.5)
(0 -0 -11483.9)
(0 -0 -10916.5)
(0 -0 -10416.8)
(0 -0 -9975.64)
(0 -0 -9584.26)
(0 -0 -9234.65)
(0 -0 -8920.11)
(0 -0 -8635.21)
(0 -0 -8375.6)
(0 -0 -8137.73)
(0 -0 -7918.68)
(0 -0 -7716.06)
(0 -0 -7527.84)
(0 -0 -7352.33)
(0 -0 -7188.1)
(0 -0 -7033.93)
(0 -0 -6888.73)
(0 -0 -6751.6)
(0 -0 -6621.69)
(0 -0 -6498.27)
(0 -0 -6380.67)
(0 -0 -6268.26)
(0 -0 -6160.45)
(0 -0 -6056.65)
(0 -0 -5956.33)
(0 -0 -5858.86)
(0 -0 -5763.75)
(0 -0 -5670.25)
(0 -0 -5577.91)
(0 -0 -5485.79)
(0 -0 -5393.46)
(0 -0 -5299.76)
(0 -0 -5204.12)
(0 -0 -5105.46)
(0 -0 -5002.2)
(0 -0 -4895.02)
(0 -0 -4777.95)
(0 -0 -4659.61)
(0 -0 -4518.61)
(0 -0 -4390.55)
(0 -0 -4207.08)
(0 -0 -4079.61)
(0 -0 -3828.16)
(0 -0 -3718.33)
(0 -0 -532.997)
(0 -0 -4663.91)
(0 -0 -7722.03)
(0 -0 -9333.87)
(0 -0 -9897.97)
(0 -0 -9962.28)
(0 -0 -9828.38)
(0 -0 -9613.18)
(0 -0 -9365.6)
(0 -0 -9110.44)
(0 -0 -8860.21)
(0 -0 -8620.55)
(0 -0 -8393.63)
(0 -0 -8179.93)
(0 -0 -7979.15)
(0 -0 -7790.62)
(0 -0 -7613.52)
(0 -0 -7446.98)
(0 -0 -7290.16)
(0 -0 -7142.26)
(0 -0 -7002.56)
(0 -0 -6870.37)
(0 -0 -6745.11)
(0 -0 -6626.2)
(0 -0 -6513.14)
(0 -0 -6405.46)
(0 -0 -6302.74)
(0 -0 -6204.56)
(0 -0 -6110.54)
(0 -0 -6020.27)
(0 -0 -5933.4)
(0 -0 -5849.51)
(0 -0 -5768.24)
(0 -0 -5689.11)
(0 -0 -5611.74)
(0 -0 -5535.52)
(0 -0 -5460.09)
(0 -0 -5384.6)
(0 -0 -5308.64)
(0 -0 -5231.21)
(0 -0 -5151.5)
(0 -0 -5068.92)
(0 -0 -4981)
(0 -0 -4889.63)
(0 -0 -4787.05)
(0 -0 -4683.19)
(0 -0 -4557.26)
(0 -0 -4433.89)
(0 -0 -4283.79)
(0 -0 -4118.36)
(0 -0 322.633)
(0 -0 -1445.07)
(0 -0 -3535.45)
(0 -0 -5265.28)
(0 -0 -6408.34)
(0 -0 -7085.34)
(0 -0 -7464.11)
(0 -0 -7655.06)
(0 -0 -7726.46)
(0 -0 -7722.64)
(0 -0 -7672.25)
(0 -0 -7593.43)
(0 -0 -7497.68)
(0 -0 -7392.33)
(0 -0 -7282.11)
(0 -0 -7170.12)
(0 -0 -7058.34)
(0 -0 -6948.07)
(0 -0 -6840.13)
(0 -0 -6735.04)
(0 -0 -6633.1)
(0 -0 -6534.45)
(0 -0 -6439.16)
(0 -0 -6347.24)
(0 -0 -6258.62)
(0 -0 -6173.24)
(0 -0 -6091)
(0 -0 -6011.79)
(0 -0 -5935.47)
(0 -0 -5861.9)
(0 -0 -5790.94)
(0 -0 -5722.4)
(0 -0 -5656.1)
(0 -0 -5591.82)
(0 -0 -5529.34)
(0 -0 -5468.35)
(0 -0 -5408.6)
(0 -0 -5349.61)
(0 -0 -5291.16)
(0 -0 -5232.4)
(0 -0 -5173.34)
(0 -0 -5112.29)
(0 -0 -5050.14)
(0 -0 -4983)
(0 -0 -4915.07)
(0 -0 -4834.83)
(0 -0 -4761.34)
(0 -0 -4648.6)
(0 -0 -4591.08)
(0 -0 -4378.71)
(0 -0 364.867)
(0 -0 -158.549)
(0 -0 -1182.93)
(0 -0 -2366.3)
(0 -0 -3425.51)
(0 -0 -4268.07)
(0 -0 -4906.91)
(0 -0 -5375.67)
(0 -0 -5709.26)
(0 -0 -5939.65)
(0 -0 -6093.13)
(0 -0 -6189.85)
(0 -0 -6244.76)
(0 -0 -6268.89)
(0 -0 -6270.32)
(0 -0 -6255.03)
(0 -0 -6227.44)
(0 -0 -6190.84)
(0 -0 -6147.72)
(0 -0 -6099.93)
(0 -0 -6048.88)
(0 -0 -5995.67)
(0 -0 -5941.11)
(0 -0 -5885.84)
(0 -0 -5830.36)
(0 -0 -5775.07)
(0 -0 -5720.24)
(0 -0 -5666.13)
(0 -0 -5612.92)
(0 -0 -5560.73)
(0 -0 -5509.66)
(0 -0 -5459.8)
(0 -0 -5411.17)
(0 -0 -5363.79)
(0 -0 -5317.64)
(0 -0 -5272.67)
(0 -0 -5228.83)
(0 -0 -5185.92)
(0 -0 -5143.98)
(0 -0 -5102.33)
(0 -0 -5061.68)
(0 -0 -5019.73)
(0 -0 -4979.76)
(0 -0 -4934.18)
(0 -0 -4895.45)
(0 -0 -4838)
(0 -0 -4807.24)
(0 -0 -4712.63)
(0 -0 -4723.93)
(0 -0 -4512.65)
(0 -0 254.124)
(0 -0 185.48)
(0 -0 -173.634)
(0 -0 -766.75)
(0 -0 -1452.7)
(0 -0 -2124.32)
(0 -0 -2733.93)
(0 -0 -3261.71)
(0 -0 -3703.22)
(0 -0 -4064.01)
(0 -0 -4354.22)
(0 -0 -4584.89)
(0 -0 -4766.31)
(0 -0 -4907.42)
(0 -0 -5015.74)
(0 -0 -5097.47)
(0 -0 -5157.62)
(0 -0 -5200.29)
(0 -0 -5228.77)
(0 -0 -5245.71)
(0 -0 -5253.28)
(0 -0 -5253.22)
(0 -0 -5246.96)
(0 -0 -5235.67)
(0 -0 -5220.32)
(0 -0 -5201.71)
(0 -0 -5180.5)
(0 -0 -5157.27)
(0 -0 -5132.48)
(0 -0 -5106.55)
(0 -0 -5079.81)
(0 -0 -5052.58)
(0 -0 -5025.09)
(0 -0 -4997.61)
(0 -0 -4970.28)
(0 -0 -4943.32)
(0 -0 -4916.83)
(0 -0 -4890.9)
(0 -0 -4865.78)
(0 -0 -4841.04)
(0 -0 -4817.78)
(0 -0 -4793.69)
(0 -0 -4773.19)
(0 -0 -4747.42)
(0 -0 -4732.47)
(0 -0 -4697.43)
(0 -0 -4698.08)
(0 -0 -4629.54)
(0 -0 -4679.63)
(0 -0 -4516.27)
(0 -0 178.821)
(0 -0 204.666)
(0 -0 130.762)
(0 -0 -85.8185)
(0 -0 -420.172)
(0 -0 -819.902)
(0 -0 -1245.07)
(0 -0 -1666.6)
(0 -0 -2064.37)
(0 -0 -2427.14)
(0 -0 -2750.45)
(0 -0 -3034.02)
(0 -0 -3279.91)
(0 -0 -3491.34)
(0 -0 -3671.96)
(0 -0 -3825.46)
(0 -0 -3955.3)
(0 -0 -4064.64)
(0 -0 -4156.27)
(0 -0 -4232.64)
(0 -0 -4295.88)
(0 -0 -4347.8)
(0 -0 -4390)
(0 -0 -4423.82)
(0 -0 -4450.44)
(0 -0 -4470.86)
(0 -0 -4485.97)
(0 -0 -4496.52)
(0 -0 -4503.18)
(0 -0 -4506.56)
(0 -0 -4507.17)
(0 -0 -4505.5)
(0 -0 -4501.96)
(0 -0 -4496.97)
(0 -0 -4490.85)
(0 -0 -4484)
(0 -0 -4476.67)
(0 -0 -4469.18)
(0 -0 -4461.88)
(0 -0 -4454.73)
(0 -0 -4448.79)
(0 -0 -4442.4)
(0 -0 -4439.76)
(0 -0 -4433.05)
(0 -0 -4437.66)
(0 -0 -4425)
(0 -0 -4447.4)
(0 -0 -4410.17)
(0 -0 -4476.76)
(0 -0 -4379.49)
(0 -0 148.098)
(0 -0 164.726)
(0 -0 170.163)
(0 -0 121.001)
(0 -0 0.374643)
(0 -0 -182.836)
(0 -0 -413.392)
(0 -0 -674.96)
(0 -0 -951.627)
(0 -0 -1230.33)
(0 -0 -1501.67)
(0 -0 -1759.46)
(0 -0 -2000.03)
(0 -0 -2221.56)
(0 -0 -2423.52)
(0 -0 -2606.25)
(0 -0 -2770.62)
(0 -0 -2917.82)
(0 -0 -3049.17)
(0 -0 -3166.02)
(0 -0 -3269.71)
(0 -0 -3361.5)
(0 -0 -3442.59)
(0 -0 -3514.06)
(0 -0 -3576.92)
(0 -0 -3632.06)
(0 -0 -3680.33)
(0 -0 -3722.47)
(0 -0 -3759.16)
(0 -0 -3791.06)
(0 -0 -3818.71)
(0 -0 -3842.69)
(0 -0 -3863.46)
(0 -0 -3881.57)
(0 -0 -3897.37)
(0 -0 -3911.42)
(0 -0 -3924.01)
(0 -0 -3935.71)
(0 -0 -3946.79)
(0 -0 -3957.67)
(0 -0 -3969.11)
(0 -0 -3980.39)
(0 -0 -3994.66)
(0 -0 -4006.49)
(0 -0 -4027.93)
(0 -0 -4037.04)
(0 -0 -4075.14)
(0 -0 -4069.48)
(0 -0 -4142.93)
(0 -0 -4106.17)
(0 -0 136.92)
(0 -0 137.174)
(0 -0 148.884)
(0 -0 149.851)
(0 -0 122.196)
(0 -0 59.56)
(0 -0 -38.065)
(0 -0 -167.161)
(0 -0 -321.451)
(0 -0 -493.62)
(0 -0 -676.702)
(0 -0 -864.695)
(0 -0 -1052.75)
(0 -0 -1237.15)
(0 -0 -1415.22)
(0 -0 -1585.13)
(0 -0 -1745.76)
(0 -0 -1896.48)
(0 -0 -2037.1)
(0 -0 -2167.66)
(0 -0 -2288.42)
(0 -0 -2399.78)
(0 -0 -2502.21)
(0 -0 -2596.22)
(0 -0 -2682.35)
(0 -0 -2761.14)
(0 -0 -2833.14)
(0 -0 -2898.87)
(0 -0 -2958.85)
(0 -0 -3013.58)
(0 -0 -3063.54)
(0 -0 -3109.22)
(0 -0 -3151.06)
(0 -0 -3189.56)
(0 -0 -3225.09)
(0 -0 -3258.24)
(0 -0 -3289.26)
(0 -0 -3318.88)
(0 -0 -3347.24)
(0 -0 -3375.15)
(0 -0 -3402.93)
(0 -0 -3430.85)
(0 -0 -3460.72)
(0 -0 -3489.73)
(0 -0 -3525.96)
(0 -0 -3554.83)
(0 -0 -3605.56)
(0 -0 -3627.64)
(0 -0 -3705.99)
(0 -0 -3716.42)
(0 -0 130.053)
(0 -0 124.107)
(0 -0 129.308)
(0 -0 136.55)
(0 -0 136.647)
(0 -0 123.248)
(0 -0 92.5732)
(0 -0 42.6182)
(0 -0 -26.5772)
(0 -0 -113.27)
(0 -0 -214.736)
(0 -0 -327.851)
(0 -0 -449.445)
(0 -0 -576.56)
(0 -0 -706.589)
(0 -0 -837.332)
(0 -0 -966.998)
(0 -0 -1094.18)
(0 -0 -1217.81)
(0 -0 -1337.1)
(0 -0 -1451.51)
(0 -0 -1560.69)
(0 -0 -1664.44)
(0 -0 -1762.7)
(0 -0 -1855.49)
(0 -0 -1942.9)
(0 -0 -2025.09)
(0 -0 -2102.25)
(0 -0 -2174.62)
(0 -0 -2242.46)
(0 -0 -2306.05)
(0 -0 -2365.71)
(0 -0 -2421.74)
(0 -0 -2474.55)
(0 -0 -2524.38)
(0 -0 -2571.79)
(0 -0 -2616.94)
(0 -0 -2660.59)
(0 -0 -2702.75)
(0 -0 -2744.43)
(0 -0 -2785.61)
(0 -0 -2827.23)
(0 -0 -2870.04)
(0 -0 -2913.21)
(0 -0 -2961.66)
(0 -0 -3006.59)
(0 -0 -3067.53)
(0 -0 -3111.46)
(0 -0 -3194.28)
(0 -0 -3238.95)
(0 -0 123.073)
(0 -0 116.766)
(0 -0 118.141)
(0 -0 122.639)
(0 -0 126.616)
(0 -0 127.092)
(0 -0 121.53)
(0 -0 107.537)
(0 -0 83.366)
(0 -0 48.2035)
(0 -0 2.0573)
(0 -0 -54.4301)
(0 -0 -120.175)
(0 -0 -193.829)
(0 -0 -273.932)
(0 -0 -359.025)
(0 -0 -447.725)
(0 -0 -538.768)
(0 -0 -631.04)
(0 -0 -723.58)
(0 -0 -815.576)
(0 -0 -906.36)
(0 -0 -995.392)
(0 -0 -1082.25)
(0 -0 -1166.6)
(0 -0 -1248.22)
(0 -0 -1326.95)
(0 -0 -1402.68)
(0 -0 -1475.39)
(0 -0 -1545.1)
(0 -0 -1611.86)
(0 -0 -1675.81)
(0 -0 -1737.05)
(0 -0 -1795.85)
(0 -0 -1852.32)
(0 -0 -1906.88)
(0 -0 -1959.6)
(0 -0 -2011.16)
(0 -0 -2061.46)
(0 -0 -2111.54)
(0 -0 -2161.17)
(0 -0 -2211.57)
(0 -0 -2262.92)
(0 -0 -2315.43)
(0 -0 -2372.07)
(0 -0 -2427.83)
(0 -0 -2495.46)
(0 -0 -2554.32)
(0 -0 -2639.79)
(0 -0 -2707.03)
(0 -0 115.761)
(0 -0 110.545)
(0 -0 110.869)
(0 -0 113.319)
(0 -0 116.154)
(0 -0 118.442)
(0 -0 119.33)
(0 -0 117.578)
(0 -0 111.844)
(0 -0 101.005)
(0 -0 84.2608)
(0 -0 61.1676)
(0 -0 31.6035)
(0 -0 -4.26573)
(0 -0 -46.0516)
(0 -0 -93.2083)
(0 -0 -145.09)
(0 -0 -201.004)
(0 -0 -260.245)
(0 -0 -322.125)
(0 -0 -385.996)
(0 -0 -451.258)
(0 -0 -517.37)
(0 -0 -583.854)
(0 -0 -650.291)
(0 -0 -716.323)
(0 -0 -781.649)
(0 -0 -846.028)
(0 -0 -909.263)
(0 -0 -971.224)
(0 -0 -1031.8)
(0 -0 -1090.99)
(0 -0 -1148.73)
(0 -0 -1205.16)
(0 -0 -1260.26)
(0 -0 -1314.32)
(0 -0 -1367.31)
(0 -0 -1419.78)
(0 -0 -1471.57)
(0 -0 -1523.59)
(0 -0 -1575.56)
(0 -0 -1628.64)
(0 -0 -1682.83)
(0 -0 -1738.72)
(0 -0 -1798.2)
(0 -0 -1858.51)
(0 -0 -1927.94)
(0 -0 -1994.2)
(0 -0 -2078.69)
(0 -0 -2157.55)
(0 -0 108.526)
(0 -0 104.338)
(0 -0 104.555)
(0 -0 106.272)
(0 -0 108.155)
(0 -0 109.887)
(0 -0 111.449)
(0 -0 112.484)
(0 -0 112.387)
(0 -0 110.494)
(0 -0 106.172)
(0 -0 98.8686)
(0 -0 88.1532)
(0 -0 73.7356)
(0 -0 55.4683)
(0 -0 33.3353)
(0 -0 7.43336)
(0 -0 -22.0496)
(0 -0 -54.857)
(0 -0 -90.6854)
(0 -0 -129.2)
(0 -0 -170.055)
(0 -0 -212.902)
(0 -0 -257.4)
(0 -0 -303.224)
(0 -0 -350.074)
(0 -0 -397.667)
(0 -0 -445.76)
(0 -0 -494.128)
(0 -0 -542.596)
(0 -0 -591.001)
(0 -0 -639.253)
(0 -0 -687.241)
(0 -0 -734.989)
(0 -0 -782.418)
(0 -0 -829.702)
(0 -0 -876.758)
(0 -0 -923.975)
(0 -0 -971.214)
(0 -0 -1019.15)
(0 -0 -1067.58)
(0 -0 -1117.42)
(0 -0 -1168.68)
(0 -0 -1221.98)
(0 -0 -1278.62)
(0 -0 -1337.17)
(0 -0 -1402.9)
(0 -0 -1469.11)
(0 -0 -1547.98)
(0 -0 -1628.45)
(0 -0 101.557)
(0 -0 98.1569)
(0 -0 98.3893)
(0 -0 99.8724)
(0 -0 101.397)
(0 -0 102.686)
(0 -0 103.931)
(0 -0 105.143)
(0 -0 106.143)
(0 -0 106.671)
(0 -0 106.429)
(0 -0 105.092)
(0 -0 102.338)
(0 -0 97.8728)
(0 -0 91.4493)
(0 -0 82.8769)
(0 -0 72.0254)
(0 -0 58.8266)
(0 -0 43.2674)
(0 -0 25.3844)
(0 -0 5.25641)
(0 -0 -17.0041)
(0 -0 -41.2593)
(0 -0 -67.3529)
(0 -0 -95.1184)
(0 -0 -124.381)
(0 -0 -154.97)
(0 -0 -186.72)
(0 -0 -219.467)
(0 -0 -253.072)
(0 -0 -287.397)
(0 -0 -322.351)
(0 -0 -357.823)
(0 -0 -393.798)
(0 -0 -430.188)
(0 -0 -467.089)
(0 -0 -504.417)
(0 -0 -542.426)
(0 -0 -581.018)
(0 -0 -620.649)
(0 -0 -661.226)
(0 -0 -703.376)
(0 -0 -747.203)
(0 -0 -793.18)
(0 -0 -842.275)
(0 -0 -893.842)
(0 -0 -951.132)
(0 -0 -1010.95)
(0 -0 -1079.79)
(0 -0 -1153.68)
(0 -0 94.8912)
(0 -0 92.1175)
(0 -0 92.3387)
(0 -0 93.6735)
(0 -0 95.0667)
(0 -0 96.18)
(0 -0 97.1974)
(0 -0 98.2179)
(0 -0 99.2134)
(0 -0 100.114)
(0 -0 100.824)
(0 -0 101.217)
(0 -0 101.141)
(0 -0 100.429)
(0 -0 98.9139)
(0 -0 96.4344)
(0 -0 92.8468)
(0 -0 88.0284)
(0 -0 81.8818)
(0 -0 74.3373)
(0 -0 65.3499)
(0 -0 54.9027)
(0 -0 43)
(0 -0 29.6666)
(0 -0 14.9447)
(0 -0 -1.11039)
(0 -0 -18.4315)
(0 -0 -36.9481)
(0 -0 -56.5799)
(0 -0 -77.2568)
(0 -0 -98.8967)
(0 -0 -121.448)
(0 -0 -144.838)
(0 -0 -169.055)
(0 -0 -194.036)
(0 -0 -219.838)
(0 -0 -246.406)
(0 -0 -273.9)
(0 -0 -302.27)
(0 -0 -331.807)
(0 -0 -362.498)
(0 -0 -394.747)
(0 -0 -428.711)
(0 -0 -464.734)
(0 -0 -503.516)
(0 -0 -544.888)
(0 -0 -590.756)
(0 -0 -639.98)
(0 -0 -695.748)
(0 -0 -757.568)
(0 -0 88.5254)
(0 -0 86.2722)
(0 -0 86.4753)
(0 -0 87.6608)
(0 -0 88.9558)
(0 -0 89.9898)
(0 -0 90.8996)
(0 -0 91.7898)
(0 -0 92.6647)
(0 -0 93.5097)
(0 -0 94.308)
(0 -0 95.028)
(0 -0 95.62)
(0 -0 96.0184)
(0 -0 96.1457)
(0 -0 95.917)
(0 -0 95.2443)
(0 -0 94.0397)
(0 -0 92.2204)
(0 -0 89.7104)
(0 -0 86.4441)
(0 -0 82.3655)
(0 -0 77.432)
(0 -0 71.6112)
(0 -0 64.8848)
(0 -0 57.2395)
(0 -0 48.6803)
(0 -0 39.2123)
(0 -0 28.8524)
(0 -0 17.6159)
(0 -0 5.52922)
(0 -0 -7.39434)
(0 -0 -21.1256)
(0 -0 -35.6701)
(0 -0 -51.0005)
(0 -0 -67.1585)
(0 -0 -84.1233)
(0 -0 -101.994)
(0 -0 -120.768)
(0 -0 -140.62)
(0 -0 -161.589)
(0 -0 -183.924)
(0 -0 -207.786)
(0 -0 -233.432)
(0 -0 -261.334)
(0 -0 -291.586)
(0 -0 -325.241)
(0 -0 -362.202)
(0 -0 -403.924)
(0 -0 -451.248)
(0 -0 82.4589)
(0 -0 80.639)
(0 -0 80.8326)
(0 -0 81.8734)
(0 -0 83.065)
(0 -0 84.0334)
(0 -0 84.8749)
(0 -0 85.6867)
(0 -0 86.4773)
(0 -0 87.2401)
(0 -0 87.9767)
(0 -0 88.6864)
(0 -0 89.3598)
(0 -0 89.9792)
(0 -0 90.5192)
(0 -0 90.9472)
(0 -0 91.2248)
(0 -0 91.3089)
(0 -0 91.1538)
(0 -0 90.7122)
(0 -0 89.9377)
(0 -0 88.7852)
(0 -0 87.2132)
(0 -0 85.1835)
(0 -0 82.6628)
(0 -0 79.6229)
(0 -0 76.0394)
(0 -0 71.8933)
(0 -0 67.1717)
(0 -0 61.8617)
(0 -0 55.9578)
(0 -0 49.449)
(0 -0 42.3369)
(0 -0 34.6033)
(0 -0 26.2481)
(0 -0 17.237)
(0 -0 7.56445)
(0 -0 -2.83294)
(0 -0 -13.975)
(0 -0 -25.9691)
(0 -0 -38.8695)
(0 -0 -52.8317)
(0 -0 -67.9894)
(0 -0 -84.532)
(0 -0 -102.76)
(0 -0 -122.872)
(0 -0 -145.417)
(0 -0 -170.712)
(0 -0 -199.383)
(0 -0 -232.529)
(0 -0 76.692)
(0 -0 75.2293)
(0 -0 75.4224)
(0 -0 76.3314)
(0 -0 77.417)
(0 -0 78.3186)
(0 -0 79.0981)
(0 -0 79.8468)
(0 -0 80.5747)
(0 -0 81.2745)
(0 -0 81.9486)
(0 -0 82.6021)
(0 -0 83.2367)
(0 -0 83.8505)
(0 -0 84.4383)
(0 -0 84.9914)
(0 -0 85.4977)
(0 -0 85.9414)
(0 -0 86.304)
(0 -0 86.564)
(0 -0 86.6982)
(0 -0 86.682)
(0 -0 86.4902)
(0 -0 86.0974)
(0 -0 85.4786)
(0 -0 84.61)
(0 -0 83.469)
(0 -0 82.0339)
(0 -0 80.2862)
(0 -0 78.2067)
(0 -0 75.7813)
(0 -0 72.9918)
(0 -0 69.8258)
(0 -0 66.2643)
(0 -0 62.2952)
(0 -0 57.8917)
(0 -0 53.0367)
(0 -0 47.6885)
(0 -0 41.8211)
(0 -0 35.3703)
(0 -0 28.2855)
(0 -0 20.47)
(0 -0 11.8282)
(0 -0 2.22168)
(0 -0 -8.52225)
(0 -0 -20.612)
(0 -0 -34.3153)
(0 -0 -50.0227)
(0 -0 -67.9984)
(0 -0 -89.1619)
(0 -0 71.2247)
(0 -0 70.0535)
(0 -0 70.2519)
(0 -0 71.0434)
(0 -0 72.0248)
(0 -0 72.8593)
(0 -0 73.5784)
(0 -0 74.2671)
(0 -0 74.9384)
(0 -0 75.5841)
(0 -0 76.2052)
(0 -0 76.8065)
(0 -0 77.3914)
(0 -0 77.9614)
(0 -0 78.5168)
(0 -0 79.057)
(0 -0 79.5795)
(0 -0 80.0805)
(0 -0 80.5543)
(0 -0 80.9938)
(0 -0 81.3903)
(0 -0 81.7336)
(0 -0 82.0123)
(0 -0 82.2139)
(0 -0 82.3255)
(0 -0 82.3332)
(0 -0 82.2231)
(0 -0 81.9807)
(0 -0 81.5925)
(0 -0 81.044)
(0 -0 80.3223)
(0 -0 79.4133)
(0 -0 78.3046)
(0 -0 76.9812)
(0 -0 75.4302)
(0 -0 73.6331)
(0 -0 71.574)
(0 -0 69.2272)
(0 -0 66.5684)
(0 -0 63.5603)
(0 -0 60.1666)
(0 -0 56.3285)
(0 -0 51.9873)
(0 -0 47.0459)
(0 -0 41.4159)
(0 -0 34.929)
(0 -0 27.4645)
(0 -0 18.7024)
(0 -0 8.52914)
(0 -0 -3.69249)
(0 -0 66.0554)
(0 -0 65.1201)
(0 -0 65.3267)
(0 -0 66.0143)
(0 -0 66.8953)
(0 -0 67.6639)
(0 -0 68.3249)
(0 -0 68.9556)
(0 -0 69.5721)
(0 -0 70.1668)
(0 -0 70.7391)
(0 -0 71.2929)
(0 -0 71.8315)
(0 -0 72.3567)
(0 -0 72.8698)
(0 -0 73.3718)
(0 -0 73.863)
(0 -0 74.3432)
(0 -0 74.8116)
(0 -0 75.2666)
(0 -0 75.7059)
(0 -0 76.1265)
(0 -0 76.5245)
(0 -0 76.8953)
(0 -0 77.2337)
(0 -0 77.5336)
(0 -0 77.7886)
(0 -0 77.9915)
(0 -0 78.1348)
(0 -0 78.2108)
(0 -0 78.2115)
(0 -0 78.1288)
(0 -0 77.9547)
(0 -0 77.6808)
(0 -0 77.2978)
(0 -0 76.7956)
(0 -0 76.1626)
(0 -0 75.3852)
(0 -0 74.4474)
(0 -0 73.329)
(0 -0 72.0085)
(0 -0 70.452)
(0 -0 68.63)
(0 -0 66.4802)
(0 -0 63.9628)
(0 -0 60.9618)
(0 -0 57.4292)
(0 -0 53.15)
(0 -0 48.0752)
(0 -0 41.8139)
(0 -0 61.1814)
(0 -0 60.4355)
(0 -0 60.6509)
(0 -0 61.2474)
(0 -0 62.0327)
(0 -0 62.7371)
(0 -0 63.3428)
(0 -0 63.918)
(0 -0 64.4817)
(0 -0 65.0273)
(0 -0 65.5528)
(0 -0 66.0616)
(0 -0 66.5566)
(0 -0 67.0396)
(0 -0 67.5117)
(0 -0 67.974)
(0 -0 68.4274)
(0 -0 68.8724)
(0 -0 69.3096)
(0 -0 69.7389)
(0 -0 70.1604)
(0 -0 70.5735)
(0 -0 70.9775)
(0 -0 71.3713)
(0 -0 71.7534)
(0 -0 72.1218)
(0 -0 72.4742)
(0 -0 72.8079)
(0 -0 73.1198)
(0 -0 73.4064)
(0 -0 73.6643)
(0 -0 73.8899)
(0 -0 74.0796)
(0 -0 74.2299)
(0 -0 74.3362)
(0 -0 74.3942)
(0 -0 74.3976)
(0 -0 74.3404)
(0 -0 74.2144)
(0 -0 74.01)
(0 -0 73.7176)
(0 -0 73.3194)
(0 -0 72.8043)
(0 -0 72.136)
(0 -0 71.3024)
(0 -0 70.2324)
(0 -0 68.9131)
(0 -0 67.2168)
(0 -0 65.1278)
(0 -0 62.4234)
(0 -0 56.5988)
(0 -0 56.0038)
(0 -0 56.2272)
(0 -0 56.7439)
(0 -0 57.4392)
(0 -0 58.0815)
(0 -0 58.6348)
(0 -0 59.1574)
(0 -0 59.6706)
(0 -0 60.169)
(0 -0 60.6497)
(0 -0 61.1154)
(0 -0 61.5688)
(0 -0 62.0115)
(0 -0 62.4445)
(0 -0 62.8688)
(0 -0 63.2852)
(0 -0 63.6944)
(0 -0 64.097)
(0 -0 64.4935)
(0 -0 64.8843)
(0 -0 65.2697)
(0 -0 65.65)
(0 -0 66.0252)
(0 -0 66.3952)
(0 -0 66.7597)
(0 -0 67.1182)
(0 -0 67.4699)
(0 -0 67.8138)
(0 -0 68.1489)
(0 -0 68.474)
(0 -0 68.7885)
(0 -0 69.0911)
(0 -0 69.3816)
(0 -0 69.6584)
(0 -0 69.9206)
(0 -0 70.1659)
(0 -0 70.3924)
(0 -0 70.5972)
(0 -0 70.7771)
(0 -0 70.9297)
(0 -0 71.047)
(0 -0 71.1285)
(0 -0 71.1545)
(0 -0 71.1269)
(0 -0 71.0055)
(0 -0 70.7951)
(0 -0 70.4229)
(0 -0 69.8959)
(0 -0 69.0856)
(0 -0 52.3023)
(0 -0 51.827)
(0 -0 52.0561)
(0 -0 52.5034)
(0 -0 53.1151)
(0 -0 53.6976)
(0 -0 54.2013)
(0 -0 54.6745)
(0 -0 55.1398)
(0 -0 55.5931)
(0 -0 56.0312)
(0 -0 56.4557)
(0 -0 56.8694)
(0 -0 57.2737)
(0 -0 57.6694)
(0 -0 58.0574)
(0 -0 58.4384)
(0 -0 58.8131)
(0 -0 59.1821)
(0 -0 59.5458)
(0 -0 59.9048)
(0 -0 60.2595)
(0 -0 60.6104)
(0 -0 60.9579)
(0 -0 61.3022)
(0 -0 61.6436)
(0 -0 61.9821)
(0 -0 62.3176)
(0 -0 62.65)
(0 -0 62.9792)
(0 -0 63.3051)
(0 -0 63.6282)
(0 -0 63.9486)
(0 -0 64.2675)
(0 -0 64.5848)
(0 -0 64.9013)
(0 -0 65.2168)
(0 -0 65.5315)
(0 -0 65.8454)
(0 -0 66.1582)
(0 -0 66.4718)
(0 -0 66.7831)
(0 -0 67.0967)
(0 -0 67.4023)
(0 -0 67.7084)
(0 -0 67.992)
(0 -0 68.2674)
(0 -0 68.4924)
(0 -0 68.6896)
(0 -0 68.7804)
(0 -0 48.2857)
(0 -0 47.9048)
(0 -0 48.1367)
(0 -0 48.5238)
(0 -0 49.0586)
(0 -0 49.5837)
(0 -0 50.0409)
(0 -0 50.4679)
(0 -0 50.888)
(0 -0 51.2987)
(0 -0 51.6963)
(0 -0 52.0819)
(0 -0 52.4579)
(0 -0 52.8255)
(0 -0 53.1857)
(0 -0 53.5392)
(0 -0 53.8865)
(0 -0 54.2283)
(0 -0 54.5651)
(0 -0 54.8974)
(0 -0 55.2256)
(0 -0 55.5503)
(0 -0 55.8719)
(0 -0 56.1909)
(0 -0 56.5075)
(0 -0 56.8222)
(0 -0 57.135)
(0 -0 57.4462)
(0 -0 57.7558)
(0 -0 58.0639)
(0 -0 58.3709)
(0 -0 58.6776)
(0 -0 58.9849)
(0 -0 59.2941)
(0 -0 59.6061)
(0 -0 59.9221)
(0 -0 60.2427)
(0 -0 60.5691)
(0 -0 60.9027)
(0 -0 61.2443)
(0 -0 61.5975)
(0 -0 61.9617)
(0 -0 62.3432)
(0 -0 62.7365)
(0 -0 63.1522)
(0 -0 63.5764)
(0 -0 64.0271)
(0 -0 64.4769)
(0 -0 64.9581)
(0 -0 65.414)
(0 -0 44.5413)
(0 -0 44.2349)
(0 -0 44.4661)
(0 -0 44.8012)
(0 -0 45.2661)
(0 -0 45.7367)
(0 -0 46.1502)
(0 -0 46.5342)
(0 -0 46.912)
(0 -0 47.2826)
(0 -0 47.6421)
(0 -0 47.991)
(0 -0 48.3314)
(0 -0 48.6644)
(0 -0 48.991)
(0 -0 49.3117)
(0 -0 49.6271)
(0 -0 49.9376)
(0 -0 50.2439)
(0 -0 50.5462)
(0 -0 50.8452)
(0 -0 51.1411)
(0 -0 51.4346)
(0 -0 51.7259)
(0 -0 52.0156)
(0 -0 52.3038)
(0 -0 52.5908)
(0 -0 52.8766)
(0 -0 53.1614)
(0 -0 53.4453)
(0 -0 53.7289)
(0 -0 54.0132)
(0 -0 54.299)
(0 -0 54.5878)
(0 -0 54.8807)
(0 -0 55.179)
(0 -0 55.4836)
(0 -0 55.7959)
(0 -0 56.1177)
(0 -0 56.4503)
(0 -0 56.7979)
(0 -0 57.1605)
(0 -0 57.545)
(0 -0 57.9475)
(0 -0 58.3795)
(0 -0 58.8304)
(0 -0 59.3203)
(0 -0 59.8269)
(0 -0 60.3889)
(0 -0 60.9557)
(0 -0 41.0606)
(0 -0 40.8129)
(0 -0 41.0396)
(0 -0 41.33)
(0 -0 41.7321)
(0 -0 42.1513)
(0 -0 42.5239)
(0 -0 42.8683)
(0 -0 43.2066)
(0 -0 43.5397)
(0 -0 43.8636)
(0 -0 44.1781)
(0 -0 44.485)
(0 -0 44.7856)
(0 -0 45.0806)
(0 -0 45.3704)
(0 -0 45.6556)
(0 -0 45.9367)
(0 -0 46.214)
(0 -0 46.4881)
(0 -0 46.7592)
(0 -0 47.0279)
(0 -0 47.2946)
(0 -0 47.5598)
(0 -0 47.8236)
(0 -0 48.0865)
(0 -0 48.3485)
(0 -0 48.6097)
(0 -0 48.8702)
(0 -0 49.1301)
(0 -0 49.3901)
(0 -0 49.651)
(0 -0 49.914)
(0 -0 50.1802)
(0 -0 50.4509)
(0 -0 50.7271)
(0 -0 51.0101)
(0 -0 51.3009)
(0 -0 51.6016)
(0 -0 51.9136)
(0 -0 52.241)
(0 -0 52.5838)
(0 -0 52.9488)
(0 -0 53.3327)
(0 -0 53.7468)
(0 -0 54.1814)
(0 -0 54.6581)
(0 -0 55.1548)
(0 -0 55.7148)
(0 -0 56.2866)
(0 -0 37.8337)
(0 -0 37.6328)
(0 -0 37.8514)
(0 -0 38.1032)
(0 -0 38.4493)
(0 -0 38.8204)
(0 -0 39.155)
(0 -0 39.463)
(0 -0 39.765)
(0 -0 40.0632)
(0 -0 40.3538)
(0 -0 40.6363)
(0 -0 40.9121)
(0 -0 41.1823)
(0 -0 41.4477)
(0 -0 41.7086)
(0 -0 41.9656)
(0 -0 42.219)
(0 -0 42.4692)
(0 -0 42.7166)
(0 -0 42.9616)
(0 -0 43.2046)
(0 -0 43.446)
(0 -0 43.6863)
(0 -0 43.9258)
(0 -0 44.1646)
(0 -0 44.4029)
(0 -0 44.6406)
(0 -0 44.8777)
(0 -0 45.1147)
(0 -0 45.3518)
(0 -0 45.5901)
(0 -0 45.8306)
(0 -0 46.0745)
(0 -0 46.3228)
(0 -0 46.5766)
(0 -0 46.837)
(0 -0 47.1049)
(0 -0 47.3827)
(0 -0 47.6712)
(0 -0 47.9746)
(0 -0 48.2927)
(0 -0 48.6318)
(0 -0 48.9886)
(0 -0 49.3742)
(0 -0 49.7787)
(0 -0 50.2246)
(0 -0 50.6888)
(0 -0 51.2177)
(0 -0 51.7562)
(0 -0 34.8501)
(0 -0 34.687)
(0 -0 34.8936)
(0 -0 35.1123)
(0 -0 35.4091)
(0 -0 35.7357)
(0 -0 36.035)
(0 -0 36.3098)
(0 -0 36.5784)
(0 -0 36.8443)
(0 -0 37.1043)
(0 -0 37.3571)
(0 -0 37.6041)
(0 -0 37.8461)
(0 -0 38.084)
(0 -0 38.3181)
(0 -0 38.5487)
(0 -0 38.7763)
(0 -0 39.0011)
(0 -0 39.2236)
(0 -0 39.444)
(0 -0 39.6629)
(0 -0 39.8807)
(0 -0 40.0977)
(0 -0 40.3142)
(0 -0 40.5303)
(0 -0 40.7462)
(0 -0 40.9616)
(0 -0 41.1767)
(0 -0 41.3917)
(0 -0 41.6071)
(0 -0 41.8238)
(0 -0 42.0428)
(0 -0 42.2651)
(0 -0 42.4918)
(0 -0 42.7237)
(0 -0 42.962)
(0 -0 43.2075)
(0 -0 43.4624)
(0 -0 43.7275)
(0 -0 44.0065)
(0 -0 44.2991)
(0 -0 44.6112)
(0 -0 44.9391)
(0 -0 45.2938)
(0 -0 45.665)
(0 -0 46.0757)
(0 -0 46.5015)
(0 -0 46.9907)
(0 -0 47.4849)
(0 -0 32.0983)
(0 -0 31.9661)
(0 -0 32.1576)
(0 -0 32.3481)
(0 -0 32.6019)
(0 -0 32.8878)
(0 -0 33.1544)
(0 -0 33.399)
(0 -0 33.6372)
(0 -0 33.8735)
(0 -0 34.1051)
(0 -0 34.3307)
(0 -0 34.551)
(0 -0 34.7671)
(0 -0 34.9796)
(0 -0 35.1887)
(0 -0 35.395)
(0 -0 35.5986)
(0 -0 35.7999)
(0 -0 35.9992)
(0 -0 36.1968)
(0 -0 36.3933)
(0 -0 36.589)
(0 -0 36.7842)
(0 -0 36.9792)
(0 -0 37.1741)
(0 -0 37.3688)
(0 -0 37.5634)
(0 -0 37.7577)
(0 -0 37.952)
(0 -0 38.1468)
(0 -0 38.343)
(0 -0 38.5415)
(0 -0 38.7433)
(0 -0 38.9493)
(0 -0 39.1603)
(0 -0 39.3774)
(0 -0 39.6013)
(0 -0 39.8341)
(0 -0 40.0765)
(0 -0 40.3318)
(0 -0 40.5994)
(0 -0 40.885)
(0 -0 41.1843)
(0 -0 41.5084)
(0 -0 41.8464)
(0 -0 42.2218)
(0 -0 42.6089)
(0 -0 43.0575)
(0 -0 43.5056)
(0 -0 29.5663)
(0 -0 29.4595)
(0 -0 29.6341)
(0 -0 29.8008)
(0 -0 30.0174)
(0 -0 30.2661)
(0 -0 30.5026)
(0 -0 30.7198)
(0 -0 30.9304)
(0 -0 31.1397)
(0 -0 31.3454)
(0 -0 31.546)
(0 -0 31.7419)
(0 -0 31.9342)
(0 -0 32.1232)
(0 -0 32.3095)
(0 -0 32.4933)
(0 -0 32.6748)
(0 -0 32.8543)
(0 -0 33.0322)
(0 -0 33.2088)
(0 -0 33.3844)
(0 -0 33.5596)
(0 -0 33.7345)
(0 -0 33.9096)
(0 -0 34.0847)
(0 -0 34.2598)
(0 -0 34.4348)
(0 -0 34.6096)
(0 -0 34.7845)
(0 -0 34.96)
(0 -0 35.1368)
(0 -0 35.316)
(0 -0 35.4983)
(0 -0 35.6847)
(0 -0 35.8758)
(0 -0 36.0728)
(0 -0 36.2762)
(0 -0 36.4879)
(0 -0 36.7085)
(0 -0 36.9411)
(0 -0 37.1847)
(0 -0 37.4446)
(0 -0 37.7164)
(0 -0 38.011)
(0 -0 38.3171)
(0 -0 38.6585)
(0 -0 39.0083)
(0 -0 39.4173)
(0 -0 39.8209)
(0 -0 27.2416)
(0 -0 27.1554)
(0 -0 27.3124)
(0 -0 27.4591)
(0 -0 27.6437)
(0 -0 27.859)
(0 -0 28.068)
(0 -0 28.2605)
(0 -0 28.4463)
(0 -0 28.6309)
(0 -0 28.8131)
(0 -0 28.9909)
(0 -0 29.1646)
(0 -0 29.3351)
(0 -0 29.5028)
(0 -0 29.6681)
(0 -0 29.8313)
(0 -0 29.9925)
(0 -0 30.1521)
(0 -0 30.3102)
(0 -0 30.4674)
(0 -0 30.6238)
(0 -0 30.7801)
(0 -0 30.9364)
(0 -0 31.0929)
(0 -0 31.2497)
(0 -0 31.4066)
(0 -0 31.5634)
(0 -0 31.7201)
(0 -0 31.8769)
(0 -0 32.0343)
(0 -0 32.193)
(0 -0 32.3541)
(0 -0 32.5181)
(0 -0 32.686)
(0 -0 32.8584)
(0 -0 33.0363)
(0 -0 33.2202)
(0 -0 33.4121)
(0 -0 33.612)
(0 -0 33.8229)
(0 -0 34.0436)
(0 -0 34.2791)
(0 -0 34.5247)
(0 -0 34.7912)
(0 -0 35.067)
(0 -0 35.3759)
(0 -0 35.6904)
(0 -0 36.0617)
(0 -0 36.423)
(0 -0 25.1115)
(0 -0 25.0421)
(0 -0 25.1814)
(0 -0 25.3109)
(0 -0 25.4683)
(0 -0 25.6539)
(0 -0 25.8379)
(0 -0 26.0081)
(0 -0 26.1718)
(0 -0 26.3344)
(0 -0 26.4951)
(0 -0 26.6524)
(0 -0 26.8059)
(0 -0 26.9566)
(0 -0 27.1049)
(0 -0 27.2512)
(0 -0 27.3956)
(0 -0 27.5384)
(0 -0 27.6797)
(0 -0 27.8198)
(0 -0 27.9591)
(0 -0 28.0981)
(0 -0 28.237)
(0 -0 28.3761)
(0 -0 28.5157)
(0 -0 28.6556)
(0 -0 28.7957)
(0 -0 28.9357)
(0 -0 29.0756)
(0 -0 29.2156)
(0 -0 29.3562)
(0 -0 29.4981)
(0 -0 29.6422)
(0 -0 29.7891)
(0 -0 29.9398)
(0 -0 30.0946)
(0 -0 30.2546)
(0 -0 30.4203)
(0 -0 30.5934)
(0 -0 30.7738)
(0 -0 30.9643)
(0 -0 31.1633)
(0 -0 31.3757)
(0 -0 31.5965)
(0 -0 31.8364)
(0 -0 32.0836)
(0 -0 32.362)
(0 -0 32.6433)
(0 -0 32.979)
(0 -0 33.3006)
(0 -0 23.1629)
(0 -0 23.1072)
(0 -0 23.2295)
(0 -0 23.3442)
(0 -0 23.4785)
(0 -0 23.638)
(0 -0 23.7993)
(0 -0 23.9496)
(0 -0 24.0935)
(0 -0 24.2364)
(0 -0 24.378)
(0 -0 24.5166)
(0 -0 24.6521)
(0 -0 24.7849)
(0 -0 24.9157)
(0 -0 25.0448)
(0 -0 25.1722)
(0 -0 25.2982)
(0 -0 25.4229)
(0 -0 25.5467)
(0 -0 25.6699)
(0 -0 25.7928)
(0 -0 25.9159)
(0 -0 26.0394)
(0 -0 26.1635)
(0 -0 26.288)
(0 -0 26.4126)
(0 -0 26.5372)
(0 -0 26.6616)
(0 -0 26.7862)
(0 -0 26.9113)
(0 -0 27.0376)
(0 -0 27.166)
(0 -0 27.2971)
(0 -0 27.4316)
(0 -0 27.5701)
(0 -0 27.7135)
(0 -0 27.8622)
(0 -0 28.0177)
(0 -0 28.1799)
(0 -0 28.3512)
(0 -0 28.5299)
(0 -0 28.7205)
(0 -0 28.918)
(0 -0 29.1329)
(0 -0 29.3534)
(0 -0 29.6032)
(0 -0 29.8535)
(0 -0 30.1559)
(0 -0 30.4406)
(0 -0 21.3828)
(0 -0 21.3382)
(0 -0 21.4447)
(0 -0 21.5465)
(0 -0 21.6613)
(0 -0 21.7979)
(0 -0 21.9389)
(0 -0 22.0715)
(0 -0 22.198)
(0 -0 22.3233)
(0 -0 22.4477)
(0 -0 22.5697)
(0 -0 22.689)
(0 -0 22.8058)
(0 -0 22.9209)
(0 -0 23.0344)
(0 -0 23.1466)
(0 -0 23.2574)
(0 -0 23.3672)
(0 -0 23.4762)
(0 -0 23.5848)
(0 -0 23.6932)
(0 -0 23.802)
(0 -0 23.9114)
(0 -0 24.0213)
(0 -0 24.1317)
(0 -0 24.2423)
(0 -0 24.3528)
(0 -0 24.4632)
(0 -0 24.5736)
(0 -0 24.6844)
(0 -0 24.7964)
(0 -0 24.9103)
(0 -0 25.0268)
(0 -0 25.1465)
(0 -0 25.2698)
(0 -0 25.3978)
(0 -0 25.5307)
(0 -0 25.67)
(0 -0 25.8152)
(0 -0 25.9687)
(0 -0 26.1284)
(0 -0 26.2986)
(0 -0 26.4744)
(0 -0 26.6661)
(0 -0 26.8617)
(0 -0 27.0848)
(0 -0 27.3066)
(0 -0 27.5779)
(0 -0 27.8288)
(0 -0 19.7585)
(0 -0 19.7228)
(0 -0 19.815)
(0 -0 19.9053)
(0 -0 20.0037)
(0 -0 20.1207)
(0 -0 20.2435)
(0 -0 20.3602)
(0 -0 20.4714)
(0 -0 20.5812)
(0 -0 20.6904)
(0 -0 20.7976)
(0 -0 20.9024)
(0 -0 21.005)
(0 -0 21.106)
(0 -0 21.2057)
(0 -0 21.3041)
(0 -0 21.4014)
(0 -0 21.4978)
(0 -0 21.5935)
(0 -0 21.6889)
(0 -0 21.7843)
(0 -0 21.8802)
(0 -0 21.9768)
(0 -0 22.074)
(0 -0 22.1717)
(0 -0 22.2696)
(0 -0 22.3673)
(0 -0 22.4648)
(0 -0 22.5623)
(0 -0 22.6602)
(0 -0 22.7591)
(0 -0 22.8597)
(0 -0 22.9627)
(0 -0 23.0687)
(0 -0 23.1782)
(0 -0 23.2921)
(0 -0 23.4105)
(0 -0 23.5347)
(0 -0 23.6643)
(0 -0 23.8012)
(0 -0 23.9433)
(0 -0 24.0947)
(0 -0 24.2503)
(0 -0 24.4204)
(0 -0 24.5931)
(0 -0 24.7916)
(0 -0 24.9871)
(0 -0 25.2297)
(0 -0 25.4498)
(0 -0 18.2773)
(0 -0 18.2489)
(0 -0 18.3283)
(0 -0 18.4084)
(0 -0 18.4932)
(0 -0 18.5933)
(0 -0 18.7)
(0 -0 18.8027)
(0 -0 18.9004)
(0 -0 18.9966)
(0 -0 19.0923)
(0 -0 19.1864)
(0 -0 19.2784)
(0 -0 19.3683)
(0 -0 19.4568)
(0 -0 19.5441)
(0 -0 19.6304)
(0 -0 19.7156)
(0 -0 19.8)
(0 -0 19.8838)
(0 -0 19.9674)
(0 -0 20.0512)
(0 -0 20.1355)
(0 -0 20.2205)
(0 -0 20.3063)
(0 -0 20.3926)
(0 -0 20.479)
(0 -0 20.5652)
(0 -0 20.6511)
(0 -0 20.7369)
(0 -0 20.823)
(0 -0 20.9099)
(0 -0 20.9985)
(0 -0 21.0892)
(0 -0 21.1828)
(0 -0 21.2796)
(0 -0 21.3805)
(0 -0 21.4856)
(0 -0 21.5961)
(0 -0 21.7113)
(0 -0 21.833)
(0 -0 21.9588)
(0 -0 22.0928)
(0 -0 22.2299)
(0 -0 22.3801)
(0 -0 22.5319)
(0 -0 22.7078)
(0 -0 22.8793)
(0 -0 23.0957)
(0 -0 23.2877)
(0 -0 16.9272)
(0 -0 16.9046)
(0 -0 16.973)
(0 -0 17.044)
(0 -0 17.1173)
(0 -0 17.203)
(0 -0 17.2956)
(0 -0 17.3859)
(0 -0 17.4719)
(0 -0 17.5562)
(0 -0 17.64)
(0 -0 17.7226)
(0 -0 17.8032)
(0 -0 17.882)
(0 -0 17.9594)
(0 -0 18.0358)
(0 -0 18.1112)
(0 -0 18.1856)
(0 -0 18.2594)
(0 -0 18.3326)
(0 -0 18.4057)
(0 -0 18.479)
(0 -0 18.553)
(0 -0 18.6279)
(0 -0 18.7034)
(0 -0 18.7795)
(0 -0 18.8556)
(0 -0 18.9314)
(0 -0 19.0069)
(0 -0 19.0821)
(0 -0 19.1575)
(0 -0 19.2337)
(0 -0 19.3113)
(0 -0 19.3909)
(0 -0 19.4731)
(0 -0 19.5584)
(0 -0 19.6476)
(0 -0 19.7406)
(0 -0 19.8386)
(0 -0 19.9406)
(0 -0 20.0483)
(0 -0 20.1593)
(0 -0 20.2773)
(0 -0 20.3975)
(0 -0 20.5295)
(0 -0 20.6621)
(0 -0 20.8174)
(0 -0 20.9673)
(0 -0 21.1597)
(0 -0 21.3263)
(0 -0 15.6966)
(0 -0 15.6787)
(0 -0 15.7376)
(0 -0 15.8005)
(0 -0 15.8643)
(0 -0 15.9378)
(0 -0 16.0182)
(0 -0 16.0975)
(0 -0 16.1733)
(0 -0 16.2473)
(0 -0 16.3207)
(0 -0 16.3931)
(0 -0 16.4637)
(0 -0 16.5327)
(0 -0 16.6004)
(0 -0 16.6671)
(0 -0 16.7329)
(0 -0 16.7978)
(0 -0 16.8621)
(0 -0 16.9259)
(0 -0 16.9897)