/*--------------------------------*- C++ -*----------------------------------*\
  =========                 |
  \\      /  F ield         | OpenFOAM: The Open Source CFD Toolbox
   \\    /   O peration     | Website:  https://openfoam.org
    \\  /    A nd           | Version:  7
     \\/     M anipulation  |
\*---------------------------------------------------------------------------*/
FoamFile
{
    version     2.0;
    format      ascii;
    class       volVectorField;
    location    "0.02";
    object      wallShearStress;
}
// * * * * * * * * * * * * * * * * * * * * * * * * * * * * * * * * * * * * * //

dimensions      [0 2 -2 0 0 0 0];

internalField   uniform (0 0 0);

boundaryField
{
    velocityInlet
    {
        type            calculated;
        value           uniform (0 0 0);
    }
    pressureOutlet
    {
        type            calculated;
        value           uniform (0 0 0);
    }
    fixedWalls
    {
        type            calculated;
        value           nonuniform List<vector> 
100
(
(-0.0118815 -0.0069987 0)
(0.0105445 -0.000601203 0)
(-0.00213153 0.000632082 0)
(0.00135079 -5.49718e-05 0)
(-0.00103428 0.000115672 0)
(-0.000312385 6.43057e-05 0)
(-0.000744488 -0.000103316 0)
(0.0014241 -0.000333863 0)
(0.00393054 -0.000503938 0)
(0.00612956 -0.000182133 0)
(0.00360173 0.000749442 0)
(-0.00594991 0.00121372 0)
(-0.0143522 0.000203082 0)
(-0.0133706 -0.000658934 0)
(-0.00840652 -0.000550114 0)
(-0.00529902 -0.000190287 0)
(-0.00532221 0.000141692 0)
(-0.00728772 0.000321583 0)
(-0.00945332 0.000306753 0)
(-0.0105563 0.000254371 0)
(-0.00928633 -2.73383e-05 0)
(-0.00483876 -0.000577374 0)
(0.00251941 -0.000976695 0)
(0.010392 -0.00121327 0)
(0.0171927 -0.00111224 0)
(0.022199 -0.000866497 0)
(0.025134 -0.00056666 0)
(0.0257195 -0.000206771 0)
(0.0237069 0.000203581 0)
(0.0192315 0.000577488 0)
(0.0130936 0.000792193 0)
(0.00656155 0.00076165 0)
(0.00110059 0.000558517 0)
(-0.00283423 0.000354957 0)
(-0.00596086 0.000236816 0)
(-0.00894597 0.000202712 0)
(-0.0110498 0.000151761 0)
(-0.0112762 8.70035e-06 0)
(-0.00977654 -0.000166609 0)
(-0.0072374 -0.000299112 0)
(-0.00483713 -0.000257262 0)
(-0.00446449 2.17496e-05 0)
(-0.0063694 0.000258066 0)
(-0.00880604 0.00026045 0)
(-0.0107865 0.000238935 0)
(-0.0121663 0.000228335 0)
(-0.0123489 9.95817e-05 0)
(-0.0105177 -0.000153358 0)
(-0.00669243 -0.000411631 0)
(-0.00181873 -0.000555048 0)
(0.00305588 -0.000583438 0)
(0.00713229 -0.000505394 0)
(0.00993455 -0.000354794 0)
(0.0112729 -0.000178445 0)
(0.01122 -1.31291e-05 0)
(0.0100674 0.000112273 0)
(0.00822029 0.00018668 0)
(0.00608726 0.000212733 0)
(0.0039941 0.000198691 0)
(0.00215578 0.000162161 0)
(0.000646742 0.000121493 0)
(-0.000576197 9.1959e-05 0)
(-0.00163898 6.45243e-05 0)
(-0.00266989 6.3588e-05 0)
(-0.00371107 8.6818e-05 0)
(-0.00468648 0.000106214 0)
(-0.00536678 8.56688e-05 0)
(-0.00549417 2.30366e-05 0)
(-0.00489382 -6.77319e-05 0)
(-0.00369154 -0.00012686 0)
(-0.00285571 -6.8839e-05 0)
(-0.00370135 0.000121322 0)
(-0.0060285 0.000235703 0)
(-0.00851346 0.000207834 0)
(-0.0105145 0.000162616 0)
(-0.012066 0.000142648 0)
(-0.0130677 0.000124576 0)
(-0.0128139 2.82064e-05 0)
(-0.0104903 -0.000162625 0)
(-0.00628725 -0.00035935 0)
(-0.00158363 -0.000422649 0)
(0.00236673 -0.000384696 0)
(0.00500943 -0.000274797 0)
(0.00620192 -0.000142018 0)
(0.00610418 -2.54991e-05 0)
(0.00512046 5.36276e-05 0)
(0.00367001 9.55379e-05 0)
(0.00212149 0.000104506 0)
(0.000731299 9.72118e-05 0)
(-0.000431797 8.39137e-05 0)
(-0.00135214 6.92495e-05 0)
(-0.00207553 5.66689e-05 0)
(-0.00263385 4.54977e-05 0)
(-0.00308588 3.75362e-05 0)
(-0.00343393 2.939e-05 0)
(-0.00373243 2.52298e-05 0)
(-0.00395323 1.80395e-05 0)
(-0.00414708 1.69178e-05 0)
(-0.00428307 9.07507e-06 0)
(-0.00439486 6.89833e-06 0)
)
;
    }
    bottomWall
    {
        type            calculated;
        value           nonuniform List<vector> 
800
(
(-0.0353514 0.00216559 0)
(-0.0160378 0.000524906 0)
(-0.0105935 0.000100485 0)
(-0.00846068 3.45201e-05 0)
(-0.00749884 1.96086e-05 0)
(-0.00686565 1.59304e-05 0)
(-0.0063596 1.31235e-05 0)
(-0.00595135 1.06667e-05 0)
(-0.00561995 8.85828e-06 0)
(-0.00534466 7.5506e-06 0)
(-0.00511091 6.55758e-06 0)
(-0.00490928 5.7709e-06 0)
(-0.00473331 5.13152e-06 0)
(-0.00457826 4.60251e-06 0)
(-0.00444058 4.15823e-06 0)
(-0.00431749 3.78005e-06 0)
(-0.00420682 3.45422e-06 0)
(-0.00410685 3.17039e-06 0)
(-0.00401618 2.92065e-06 0)
(-0.00393368 2.69888e-06 0)
(-0.00385839 2.50026e-06 0)
(-0.00378955 2.32096e-06 0)
(-0.00372649 2.1579e-06 0)
(-0.00366865 2.00858e-06 0)
(-0.00361557 1.87096e-06 0)
(-0.00356683 1.7434e-06 0)
(-0.00352208 1.62451e-06 0)
(-0.00348101 1.51315e-06 0)
(-0.00344334 1.40841e-06 0)
(-0.00340883 1.30954e-06 0)
(-0.00337727 1.21587e-06 0)
(-0.00334846 1.12692e-06 0)
(-0.00332221 1.04227e-06 0)
(-0.00329835 9.61634e-07 0)
(-0.00327673 8.84813e-07 0)
(-0.0032572 8.11633e-07 0)
(-0.00323962 7.4194e-07 0)
(-0.00322384 6.75599e-07 0)
(-0.00320975 6.12471e-07 0)
(-0.0031972 5.52401e-07 0)
(-0.00318609 4.95395e-07 0)
(-0.00317628 4.41602e-07 0)
(-0.00316766 3.91572e-07 0)
(-0.00316009 3.45662e-07 0)
(-0.00315344 3.04943e-07 0)
(-0.00314759 2.69418e-07 0)
(-0.00314238 2.40373e-07 0)
(-0.00313771 2.16398e-07 0)
(-0.00313346 1.98985e-07 0)
(-0.00312955 1.84352e-07 0)
(-0.0031264 1.74726e-07 0)
(-0.00312384 1.72632e-07 0)
(-0.00312133 1.69072e-07 0)
(-0.00311888 1.6457e-07 0)
(-0.0031165 1.60701e-07 0)
(-0.00311419 1.57313e-07 0)
(-0.00311194 1.53864e-07 0)
(-0.00310976 1.50112e-07 0)
(-0.00310764 1.46016e-07 0)
(-0.00310559 1.4159e-07 0)
(-0.00310361 1.36886e-07 0)
(-0.0031017 1.31987e-07 0)
(-0.00309987 1.27001e-07 0)
(-0.0030981 1.22042e-07 0)
(-0.0030964 1.1722e-07 0)
(-0.00309477 1.12625e-07 0)
(-0.00309319 1.08329e-07 0)
(-0.00309168 1.04377e-07 0)
(-0.00309021 1.00788e-07 0)
(-0.00308879 9.7565e-08 0)
(-0.00308741 9.46908e-08 0)
(-0.00308607 9.21354e-08 0)
(-0.00308476 8.98615e-08 0)
(-0.00308349 8.78268e-08 0)
(-0.00308224 8.59866e-08 0)
(-0.00308103 8.42974e-08 0)
(-0.00307983 8.27241e-08 0)
(-0.00307866 8.12398e-08 0)
(-0.00307752 7.98268e-08 0)
(-0.00307639 7.84762e-08 0)
(-0.00307529 7.71891e-08 0)
(-0.0030742 7.59727e-08 0)
(-0.00307313 7.48376e-08 0)
(-0.00307208 7.37954e-08 0)
(-0.00307104 7.28589e-08 0)
(-0.00307002 7.20372e-08 0)
(-0.00306901 7.13315e-08 0)
(-0.00306801 7.07313e-08 0)
(-0.00306702 7.02151e-08 0)
(-0.00306604 6.97492e-08 0)
(-0.00306507 6.92896e-08 0)
(-0.00306411 6.87874e-08 0)
(-0.00306317 6.82001e-08 0)
(-0.00306223 6.74991e-08 0)
(-0.0030613 6.66748e-08 0)
(-0.00306039 6.57422e-08 0)
(-0.00305949 6.47415e-08 0)
(-0.0030586 6.37327e-08 0)
(-0.00305773 6.27854e-08 0)
(-0.00305686 6.19673e-08 0)
(-0.00305601 6.13314e-08 0)
(-0.00305516 6.09041e-08 0)
(-0.00305432 6.06763e-08 0)
(-0.00305349 6.06003e-08 0)
(-0.00305266 6.05931e-08 0)
(-0.00305184 6.05464e-08 0)
(-0.00305103 6.03397e-08 0)
(-0.00305023 5.98589e-08 0)
(-0.00304944 5.90147e-08 0)
(-0.00304867 5.77591e-08 0)
(-0.00304791 5.60947e-08 0)
(-0.00304719 5.40803e-08 0)
(-0.00304648 5.18283e-08 0)
(-0.00304581 4.94963e-08 0)
(-0.00304515 4.72689e-08 0)
(-0.00304452 4.53371e-08 0)
(-0.00304391 4.38723e-08 0)
(-0.00304331 4.29998e-08 0)
(-0.00304271 4.27714e-08 0)
(-0.00304213 4.31483e-08 0)
(-0.00304154 4.39963e-08 0)
(-0.00304095 4.5095e-08 0)
(-0.00304037 4.61635e-08 0)
(-0.00303979 4.69e-08 0)
(-0.00303922 4.70277e-08 0)
(-0.00303866 4.63359e-08 0)
(-0.00303813 4.47108e-08 0)
(-0.00303762 4.21504e-08 0)
(-0.00303715 3.87655e-08 0)
(-0.00303672 3.47702e-08 0)
(-0.00303633 3.0467e-08 0)
(-0.00303597 2.6221e-08 0)
(-0.00303565 2.24453e-08 0)
(-0.00303534 1.95686e-08 0)
(-0.00303504 1.8027e-08 0)
(-0.00303474 1.81864e-08 0)
(-0.00303441 2.03379e-08 0)
(-0.00303404 2.45567e-08 0)
(-0.00303362 3.07635e-08 0)
(-0.00303313 3.85296e-08 0)
(-0.00303257 4.73302e-08 0)
(-0.00303194 5.62724e-08 0)
(-0.00303124 6.46463e-08 0)
(-0.00303049 7.14616e-08 0)
(-0.0030297 7.63301e-08 0)
(-0.0030289 7.86291e-08 0)
(-0.00302811 7.86599e-08 0)
(-0.00302734 7.62998e-08 0)
(-0.00302661 7.24369e-08 0)
(-0.00302592 6.71903e-08 0)
(-0.00302538 6.19586e-08 0)
(-0.00302497 5.80564e-08 0)
(-0.00302458 5.4446e-08 0)
(-0.0030242 5.08749e-08 0)
(-0.00302384 4.75874e-08 0)
(-0.00302349 4.4963e-08 0)
(-0.00302316 4.29254e-08 0)
(-0.00302282 4.14101e-08 0)
(-0.0030225 4.02968e-08 0)
(-0.00302217 3.95134e-08 0)
(-0.00302184 3.8995e-08 0)
(-0.00302151 3.87065e-08 0)
(-0.00302118 3.85614e-08 0)
(-0.00302084 3.85961e-08 0)
(-0.0030205 3.87285e-08 0)
(-0.00302015 3.89878e-08 0)
(-0.00301979 3.93467e-08 0)
(-0.00301942 3.98082e-08 0)
(-0.00301905 4.03621e-08 0)
(-0.00301866 4.10086e-08 0)
(-0.00301826 4.17282e-08 0)
(-0.00301785 4.25318e-08 0)
(-0.00301743 4.33961e-08 0)
(-0.003017 4.43243e-08 0)
(-0.00301655 4.5282e-08 0)
(-0.00301609 4.6274e-08 0)
(-0.00301562 4.72835e-08 0)
(-0.00301513 4.83041e-08 0)
(-0.00301463 4.93077e-08 0)
(-0.00301412 5.03046e-08 0)
(-0.00301359 5.12827e-08 0)
(-0.00301305 5.22358e-08 0)
(-0.00301249 5.31704e-08 0)
(-0.00301192 5.40674e-08 0)
(-0.00301133 5.49245e-08 0)
(-0.00301074 5.57517e-08 0)
(-0.00301012 5.65485e-08 0)
(-0.0030095 5.73208e-08 0)
(-0.00300886 5.80447e-08 0)
(-0.00300821 5.87434e-08 0)
(-0.00300755 5.93869e-08 0)
(-0.00300688 6.00035e-08 0)
(-0.00300619 6.05872e-08 0)
(-0.00300549 6.11367e-08 0)
(-0.00300478 6.16483e-08 0)
(-0.00300406 6.21198e-08 0)
(-0.00300333 6.25593e-08 0)
(-0.00300259 6.29705e-08 0)
(-0.00300184 6.33305e-08 0)
(-0.00300107 6.36661e-08 0)
(-0.0030003 6.39463e-08 0)
(-0.00299952 6.42062e-08 0)
(-0.00299873 6.44304e-08 0)
(-0.00299793 6.46147e-08 0)
(-0.00299712 6.47802e-08 0)
(-0.0029963 6.49063e-08 0)
(-0.00299548 6.49774e-08 0)
(-0.00299465 6.5016e-08 0)
(-0.00299381 6.49862e-08 0)
(-0.00299297 6.49175e-08 0)
(-0.00299212 6.48134e-08 0)
(-0.00299127 6.46461e-08 0)
(-0.00299041 6.44521e-08 0)
(-0.00298955 6.42052e-08 0)
(-0.00298869 6.38899e-08 0)
(-0.00298782 6.35298e-08 0)
(-0.00298695 6.30743e-08 0)
(-0.00298609 6.2618e-08 0)
(-0.00298522 6.21277e-08 0)
(-0.00298435 6.15587e-08 0)
(-0.00298349 6.09467e-08 0)
(-0.00298262 6.02681e-08 0)
(-0.00298177 5.95639e-08 0)
(-0.00298091 5.87838e-08 0)
(-0.00298006 5.79189e-08 0)
(-0.00297922 5.70195e-08 0)
(-0.00297839 5.60094e-08 0)
(-0.00297756 5.49826e-08 0)
(-0.00297674 5.39222e-08 0)
(-0.00297594 5.27776e-08 0)
(-0.00297514 5.16004e-08 0)
(-0.00297436 5.03823e-08 0)
(-0.0029736 4.90587e-08 0)
(-0.00297284 4.77495e-08 0)
(-0.00297211 4.62562e-08 0)
(-0.00297139 4.49108e-08 0)
(-0.00297069 4.3318e-08 0)
(-0.00297001 4.20302e-08 0)
(-0.00296935 4.01852e-08 0)
(-0.0029687 3.91916e-08 0)
(-0.00296809 3.6767e-08 0)
(-0.00296748 3.65395e-08 0)
(-0.00296693 3.29275e-08 0)
(-0.00296633 3.45405e-08 0)
(-0.00296586 2.8329e-08 0)
(-0.00296526 3.4129e-08 0)
(-0.00296491 2.2309e-08 0)
(-0.00296424 3.66939e-08 0)
(-0.00296407 1.41119e-08 0)
(-0.0029632 3.74481e-08 0)
(-0.0353506 -0.00216573 0)
(-0.0160323 -0.00052514 0)
(-0.0105814 -0.000100762 0)
(-0.00844078 -3.47955e-05 0)
(-0.00747039 -1.99038e-05 0)
(-0.00682768 -1.62513e-05 0)
(-0.00631124 -1.34691e-05 0)
(-0.00589186 -1.10382e-05 0)
(-0.00554859 -9.25681e-06 0)
(-0.00526073 -7.97636e-06 0)
(-0.00501372 -7.01095e-06 0)
(-0.00479815 -6.25272e-06 0)
(-0.00460757 -5.64277e-06 0)
(-0.00443725 -5.14434e-06 0)
(-0.00428361 -4.732e-06 0)
(-0.00414387 -4.38741e-06 0)
(-0.00401584 -4.09712e-06 0)
(-0.00389777 -3.85111e-06 0)
(-0.00378822 -3.64191e-06 0)
(-0.00368601 -3.46377e-06 0)
(-0.00359015 -3.31243e-06 0)
(-0.00349978 -3.18455e-06 0)
(-0.00341416 -3.07769e-06 0)
(-0.00333267 -2.99002e-06 0)
(-0.00325471 -2.92026e-06 0)
(-0.00317976 -2.86757e-06 0)
(-0.00310733 -2.83145e-06 0)
(-0.00303697 -2.8119e-06 0)
(-0.00296824 -2.80881e-06 0)
(-0.00290069 -2.82318e-06 0)
(-0.00283393 -2.8546e-06 0)
(-0.00276747 -2.90584e-06 0)
(-0.00270098 -2.97473e-06 0)
(-0.00263386 -3.06793e-06 0)
(-0.00256585 -3.17804e-06 0)
(-0.0024962 -3.32004e-06 0)
(-0.00242477 -3.47436e-06 0)
(-0.00235066 -3.67204e-06 0)
(-0.0022737 -3.87109e-06 0)
(-0.00219332 -4.12696e-06 0)
(-0.00210831 -4.37178e-06 0)
(-0.00202057 -4.67172e-06 0)
(-0.00192383 -4.98259e-06 0)
(-0.00183012 -5.25636e-06 0)
(-0.00171429 -5.72661e-06 0)
(-0.00162366 -5.76232e-06 0)
(-0.0014694 -6.63795e-06 0)
(-0.00141422 -5.84297e-06 0)
(-0.00117207 -1.09549e-05 0)
(-0.00115247 0.000110574 0)
(5.15394e-06 -1.56572e-06 0)
(8.68524e-06 -1.67491e-05 0)
(9.53358e-06 -3.50194e-05 0)
(9.54208e-06 -5.24491e-05 0)
(9.5561e-06 -6.96646e-05 0)
(9.58069e-06 -8.67035e-05 0)
(9.61683e-06 -0.000103608 0)
(9.6603e-06 -0.0001204 0)
(9.71027e-06 -0.000137093 0)
(9.76638e-06 -0.000153698 0)
(9.82824e-06 -0.000170228 0)
(9.8952e-06 -0.000186691 0)
(9.96653e-06 -0.000203096 0)
(1.00416e-05 -0.000219451 0)
(1.01197e-05 -0.000235762 0)
(1.02001e-05 -0.000252033 0)
(1.02821e-05 -0.000268268 0)
(1.03649e-05 -0.000284471 0)
(1.04478e-05 -0.000300643 0)
(1.053e-05 -0.000316784 0)
(1.06107e-05 -0.000332894 0)
(1.0689e-05 -0.000348973 0)
(1.07642e-05 -0.000365017 0)
(1.08352e-05 -0.000381024 0)
(1.0901e-05 -0.000396989 0)
(1.09608e-05 -0.000412907 0)
(1.10136e-05 -0.000428772 0)
(1.10585e-05 -0.000444578 0)
(1.10943e-05 -0.000460316 0)
(1.11201e-05 -0.000475979 0)
(1.11346e-05 -0.000491557 0)
(1.11368e-05 -0.00050704 0)
(1.11255e-05 -0.000522416 0)
(1.10995e-05 -0.000537676 0)
(1.10575e-05 -0.000552805 0)
(1.09985e-05 -0.000567791 0)
(1.09211e-05 -0.000582621 0)
(1.08242e-05 -0.00059728 0)
(1.07063e-05 -0.000611753 0)
(1.05662e-05 -0.000626025 0)
(1.04026e-05 -0.000640079 0)
(1.02141e-05 -0.0006539 0)
(9.99949e-06 -0.00066747 0)
(9.75734e-06 -0.000680771 0)
(9.48629e-06 -0.000693786 0)
(9.185e-06 -0.000706496 0)
(8.85212e-06 -0.000718882 0)
(8.48633e-06 -0.000730927 0)
(8.08628e-06 -0.00074261 0)
(7.65063e-06 -0.000753911 0)
(7.17803e-06 -0.000764812 0)
(6.66717e-06 -0.000775293 0)
(6.11674e-06 -0.000785333 0)
(5.52544e-06 -0.000794912 0)
(4.89198e-06 -0.000804011 0)
(4.21507e-06 -0.000812608 0)
(3.49344e-06 -0.000820684 0)
(2.72585e-06 -0.00082822 0)
(1.91101e-06 -0.000835193 0)
(1.0477e-06 -0.000841585 0)
(1.34642e-07 -0.000847376 0)
(-8.29411e-07 -0.000852546 0)
(-1.84575e-06 -0.000857074 0)
(-2.91571e-06 -0.000860942 0)
(-4.0407e-06 -0.00086413 0)
(-5.22225e-06 -0.000866618 0)
(-6.46218e-06 -0.000868388 0)
(-7.76203e-06 -0.000869419 0)
(-9.12582e-06 -0.000869694 0)
(-1.05549e-05 -0.000869189 0)
(-1.20486e-05 -0.000867882 0)
(-1.36063e-05 -0.000865756 0)
(-1.52278e-05 -0.000862794 0)
(-1.69139e-05 -0.00085898 0)
(-1.86704e-05 -0.000854298 0)
(-2.0506e-05 -0.000848724 0)
(-2.24159e-05 -0.000842236 0)
(-2.43997e-05 -0.000834817 0)
(-2.64588e-05 -0.000826453 0)
(-2.8596e-05 -0.000817125 0)
(-3.08139e-05 -0.000806818 0)
(-3.31151e-05 -0.000795512 0)
(-3.55018e-05 -0.00078319 0)
(-3.7976e-05 -0.000769833 0)
(-4.054e-05 -0.000755424 0)
(-4.3196e-05 -0.000739943 0)
(-4.59461e-05 -0.000723373 0)
(-4.87922e-05 -0.000705693 0)
(-5.1736e-05 -0.000686886 0)
(-5.47791e-05 -0.000666931 0)
(-5.79226e-05 -0.000645809 0)
(-6.11675e-05 -0.0006235 0)
(-6.45136e-05 -0.000599986 0)
(-6.79604e-05 -0.000575246 0)
(-7.15062e-05 -0.000549263 0)
(-7.51483e-05 -0.000522017 0)
(-7.88825e-05 -0.000493491 0)
(-8.27028e-05 -0.000463668 0)
(-8.66011e-05 -0.000432534 0)
(-9.05669e-05 -0.000400076 0)
(-9.45867e-05 -0.000366284 0)
(-9.86439e-05 -0.000331149 0)
(-0.000102718 -0.00029467 0)
(-0.000106784 -0.000256847 0)
(-0.000110811 -0.000217686 0)
(-0.000114766 -0.000177201 0)
(-0.000118605 -0.000135411 0)
(-0.000122283 -9.23449e-05 0)
(-0.000125757 -4.80392e-05 0)
(-0.000128943 -2.51757e-06 0)
(-0.000131762 4.41228e-05 0)
(-0.00013415 9.17987e-05 0)
(-0.000136029 0.000140453 0)
(-0.00013729 0.000189991 0)
(-0.000137828 0.000240337 0)
(-0.00013751 0.000291396 0)
(-0.000136192 0.000343064 0)
(-0.000133691 0.000395199 0)
(-0.00012976 0.000447542 0)
(-0.000124076 0.000499675 0)
(-0.000116235 0.000551113 0)
(-0.000105702 0.000601573 0)
(-9.16468e-05 0.000651188 0)
(-7.26892e-05 0.000700361 0)
(-4.67616e-05 0.000749151 0)
(-1.14814e-05 0.00079637 0)
(3.47227e-05 0.000838861 0)
(9.09889e-05 0.000871698 0)
(0.000152879 0.000889812 0)
(0.000213351 0.000890324 0)
(0.000265003 0.000873994 0)
(0.000301895 0.00084568 0)
(0.000322571 0.000811889 0)
(0.000329125 0.000776016 0)
(0.000325157 0.000739331 0)
(0.000314001 0.000701239 0)
(0.000296099 0.000659758 0)
(0.00026806 0.000614908 0)
(0.000225443 0.000572597 0)
(0.00016694 0.000543555 0)
(9.46467e-05 0.000532862 0)
(1.48759e-05 0.00053853 0)
(-6.62729e-05 0.000560045 0)
(-0.000148563 0.000597817 0)
(-0.000231584 0.000653602 0)
(-0.000311537 0.000729297 0)
(-0.000383135 0.000822902 0)
(-0.000442396 0.000928914 0)
(-0.000487573 0.00104193 0)
(-0.000518433 0.00115809 0)
(-0.000535557 0.00127421 0)
(-0.000540062 0.00138763 0)
(-0.000533281 0.00149635 0)
(-0.00051656 0.00159877 0)
(-0.000491195 0.00169359 0)
(-0.000458448 0.00177966 0)
(-0.000419629 0.001856 0)
(-0.000376097 0.00192197 0)
(-0.000329091 0.00197729 0)
(-0.00027962 0.00202195 0)
(-0.000228456 0.00205599 0)
(-0.000176248 0.00207943 0)
(-0.000123756 0.00209241 0)
(-7.18355e-05 0.00209539 0)
(-2.15125e-05 0.00208898 0)
(2.75172e-05 0.00207453 0)
(7.58142e-05 0.00205206 0)
(0.000122859 0.00202203 0)
(0.000168699 0.00198481 0)
(0.000213231 0.00194077 0)
(0.000256425 0.00189026 0)
(0.000298219 0.00183362 0)
(0.00033854 0.00177121 0)
(0.000377314 0.00170342 0)
(0.000414483 0.00163062 0)
(0.00045 0.0015532 0)
(0.000483823 0.00147149 0)
(0.000515892 0.00138577 0)
(0.000546116 0.00129628 0)
(0.000574342 0.00120319 0)
(0.000600339 0.00110664 0)
(0.000623763 0.00100671 0)
(0.000644127 0.000903452 0)
(0.000660767 0.00079693 0)
(0.000672815 0.00068723 0)
(0.000679175 0.000574533 0)
(0.00067852 0.000459179 0)
(0.000669326 0.000341766 0)
(0.000649955 0.000223254 0)
(0.00061878 0.000105037 0)
(0.000574198 -1.10038e-05 0)
(0.0005146 -0.000122407 0)
(0.000439269 -0.000226049 0)
(0.000348691 -0.000318589 0)
(0.000243786 -0.000396763 0)
(0.000126183 -0.00045787 0)
(-2.51586e-06 -0.000500973 0)
(-0.000143508 -0.000529122 0)
(-0.000293501 -0.000551088 0)
(-0.000441366 -0.000597604 0)
(-2.67799e-07 -5.27573e-06 0)
(9.96332e-06 -9.05371e-06 0)
(2.16528e-05 -9.98986e-06 0)
(3.28186e-05 -1.01153e-05 0)
(4.39791e-05 -1.02117e-05 0)
(5.51534e-05 -1.02792e-05 0)
(6.63433e-05 -1.0336e-05 0)
(7.75422e-05 -1.03877e-05 0)
(8.87454e-05 -1.04386e-05 0)
(9.99497e-05 -1.04903e-05 0)
(0.000111152 -1.0543e-05 0)
(0.000122348 -1.05965e-05 0)
(0.000133536 -1.06506e-05 0)
(0.00014471 -1.07045e-05 0)
(0.000155867 -1.07576e-05 0)
(0.000167001 -1.08084e-05 0)
(0.000178107 -1.0856e-05 0)
(0.000189177 -1.08992e-05 0)
(0.000200205 -1.09367e-05 0)
(0.000211182 -1.09678e-05 0)
(0.0002221 -1.09917e-05 0)
(0.000232949 -1.10068e-05 0)
(0.00024372 -1.10118e-05 0)
(0.000254402 -1.10057e-05 0)
(0.000264983 -1.09878e-05 0)
(0.000275451 -1.09563e-05 0)
(0.000285792 -1.091e-05 0)
(0.000295995 -1.08486e-05 0)
(0.000306044 -1.07708e-05 0)
(0.000315925 -1.06761e-05 0)
(0.000325624 -1.05637e-05 0)
(0.000335124 -1.04314e-05 0)
(0.000344411 -1.02794e-05 0)
(0.000353467 -1.01074e-05 0)
(0.000362278 -9.91358e-06 0)
(0.000370824 -9.69754e-06 0)
(0.00037909 -9.46011e-06 0)
(0.000387059 -9.19979e-06 0)
(0.000394714 -8.91523e-06 0)
(0.000402037 -8.60655e-06 0)
(0.00040901 -8.27428e-06 0)
(0.000415618 -7.91836e-06 0)
(0.000421843 -7.53905e-06 0)
(0.00042767 -7.1374e-06 0)
(0.000433084 -6.71402e-06 0)
(0.000438069 -6.26963e-06 0)
(0.000442611 -5.80582e-06 0)
(0.000446695 -5.32462e-06 0)
(0.000450308 -4.82642e-06 0)
(0.000453437 -4.31065e-06 0)
(0.00045607 -3.77811e-06 0)
(0.000458194 -3.23061e-06 0)
(0.000459801 -2.66908e-06 0)
(0.00046088 -2.09347e-06 0)
(0.00046142 -1.5055e-06 0)
(0.000461416 -9.11533e-07 0)
(0.000460875 -3.14676e-07 0)
(0.000459794 2.88125e-07 0)
(0.000458168 8.97144e-07 0)
(0.000455993 1.51107e-06 0)
(0.00045327 2.12803e-06 0)
(0.000449998 2.74709e-06 0)
(0.000446177 3.3678e-06 0)
(0.000441809 3.98902e-06 0)
(0.000436895 4.60918e-06 0)
(0.00043144 5.22655e-06 0)
(0.000425448 5.84012e-06 0)
(0.000418925 6.44905e-06 0)
(0.000411876 7.05209e-06 0)
(0.000404308 7.64801e-06 0)
(0.000396231 8.23516e-06 0)
(0.000387653 8.81279e-06 0)
(0.000378583 9.38001e-06 0)
(0.000369034 9.93524e-06 0)
(0.000359015 1.0478e-05 0)
(0.00034854 1.10074e-05 0)
(0.00033762 1.15221e-05 0)
(0.00032627 1.20211e-05 0)
(0.000314504 1.25035e-05 0)
(0.000302336 1.29691e-05 0)
(0.000289783 1.34175e-05 0)
(0.000276859 1.38473e-05 0)
(0.000263581 1.42574e-05 0)
(0.000249967 1.4647e-05 0)
(0.000236034 1.50168e-05 0)
(0.000221798 1.53661e-05 0)
(0.000207278 1.56938e-05 0)
(0.000192493 1.59998e-05 0)
(0.000177461 1.62835e-05 0)
(0.000162201 1.65445e-05 0)
(0.000146732 1.67825e-05 0)
(0.000131074 1.69973e-05 0)
(0.000115246 1.71884e-05 0)
(9.92687e-05 1.73567e-05 0)
(8.31605e-05 1.75083e-05 0)
(6.69275e-05 1.76607e-05 0)
(5.0529e-05 1.78346e-05 0)
(3.3802e-05 1.8004e-05 0)
(1.58841e-05 1.67642e-05 0)
(-9.59781e-07 1.08849e-05 0)
(9.42145e-06 4.72395e-06 0)
(1.11612e-05 2.55533e-05 0)
(1.16275e-05 4.60794e-05 0)
(1.18108e-05 6.63854e-05 0)
(1.19625e-05 8.66407e-05 0)
(1.20975e-05 0.000106865 0)
(1.22387e-05 0.000127058 0)
(1.23952e-05 0.000147246 0)
(1.25701e-05 0.000167454 0)
(1.27641e-05 0.000187707 0)
(1.29786e-05 0.000208028 0)
(1.3213e-05 0.000228443 0)
(1.34677e-05 0.000248974 0)
(1.37422e-05 0.000269642 0)
(1.40375e-05 0.000290466 0)
(1.43539e-05 0.000311468 0)
(1.4691e-05 0.000332665 0)
(1.50484e-05 0.000354074 0)
(1.54273e-05 0.000375713 0)
(1.58283e-05 0.000397597 0)
(1.62501e-05 0.000419741 0)
(1.66941e-05 0.000442158 0)
(1.71615e-05 0.000464863 0)
(1.7652e-05 0.000487868 0)
(1.81658e-05 0.000511185 0)
(1.87036e-05 0.000534824 0)
(1.92662e-05 0.000558798 0)
(1.98541e-05 0.000583115 0)
(2.04677e-05 0.000607786 0)
(2.11072e-05 0.000632817 0)
(2.17734e-05 0.000658218 0)
(2.2467e-05 0.000683995 0)
(2.31883e-05 0.000710156 0)
(2.3938e-05 0.000736705 0)
(2.47163e-05 0.000763648 0)
(2.55233e-05 0.000790989 0)
(2.63593e-05 0.000818731 0)
(2.72245e-05 0.000846877 0)
(2.81188e-05 0.000875427 0)
(2.90422e-05 0.000904383 0)
(2.99941e-05 0.000933743 0)
(3.09744e-05 0.000963506 0)
(3.19822e-05 0.00099367 0)
(3.30165e-05 0.00102423 0)
(3.40762e-05 0.00105518 0)
(3.51604e-05 0.00108651 0)
(3.62674e-05 0.00111822 0)
(3.73954e-05 0.00115029 0)
(3.8542e-05 0.00118271 0)
(3.97051e-05 0.00121548 0)
(4.0882e-05 0.00124857 0)
(4.20698e-05 0.00128197 0)
(4.3265e-05 0.00131566 0)
(4.44646e-05 0.00134962 0)
(4.56649e-05 0.00138383 0)
(4.6862e-05 0.00141827 0)
(4.80519e-05 0.0014529 0)
(4.92301e-05 0.00148771 0)
(5.0392e-05 0.00152267 0)
(5.15327e-05 0.00155774 0)
(5.26476e-05 0.00159289 0)
(5.37318e-05 0.00162809 0)
(5.47803e-05 0.0016633 0)
(5.57876e-05 0.00169849 0)
(5.67484e-05 0.00173361 0)
(5.76572e-05 0.00176864 0)
(5.85085e-05 0.00180352 0)
(5.9297e-05 0.00183822 0)
(6.00175e-05 0.00187269 0)
(6.06648e-05 0.0019069 0)
(6.12343e-05 0.00194078 0)
(6.1721e-05 0.0019743 0)
(6.21204e-05 0.00200742 0)
(6.24281e-05 0.00204008 0)
(6.26402e-05 0.00207224 0)
(6.27527e-05 0.00210385 0)
(6.27614e-05 0.00213487 0)
(6.26617e-05 0.00216524 0)
(6.24492e-05 0.00219491 0)
(6.21196e-05 0.00222385 0)
(6.1669e-05 0.002252 0)
(6.10939e-05 0.00227931 0)
(6.03908e-05 0.00230574 0)
(5.95567e-05 0.00233125 0)
(5.85885e-05 0.00235579 0)
(5.74838e-05 0.00237932 0)
(5.62407e-05 0.00240179 0)
(5.48572e-05 0.00242317 0)
(5.33315e-05 0.00244341 0)
(5.16626e-05 0.00246248 0)
(4.98501e-05 0.00248035 0)
(4.78938e-05 0.00249697 0)
(4.57937e-05 0.00251232 0)
(4.3551e-05 0.00252636 0)
(4.11667e-05 0.00253906 0)
(3.86416e-05 0.0025504 0)
(3.59773e-05 0.00256035 0)
(3.31767e-05 0.00256888 0)
(3.02424e-05 0.00257598 0)
(2.71799e-05 0.00258162 0)
(2.40048e-05 0.00258578 0)
(2.07126e-05 0.00258845 0)
(1.73211e-05 0.00258962 0)
(1.38563e-05 0.00258927 0)
(1.03153e-05 0.00258747 0)
(6.6693e-06 0.00258418 0)
(2.92472e-06 0.0025794 0)
(-9.23607e-07 0.00257314 0)
(-4.87763e-06 0.00256539 0)
(-8.938e-06 0.00255615 0)
(-1.31045e-05 0.00254541 0)
(-1.73763e-05 0.00253319 0)
(-2.17528e-05 0.00251947 0)
(-2.62333e-05 0.00250426 0)
(-3.08173e-05 0.00248757 0)
(-3.55042e-05 0.0024694 0)
(-4.02933e-05 0.00244975 0)
(-4.51842e-05 0.00242863 0)
(-5.01764e-05 0.00240605 0)
(-5.52698e-05 0.002382 0)
(-6.04644e-05 0.0023565 0)
(-6.57603e-05 0.00232955 0)
(-7.11581e-05 0.00230117 0)
(-7.66584e-05 0.00227135 0)
(-8.2262e-05 0.00224011 0)
(-8.797e-05 0.00220745 0)
(-9.37837e-05 0.00217338 0)
(-9.9705e-05 0.00213791 0)
(-0.000105736 0.00210105 0)
(-0.000111879 0.0020628 0)
(-0.000118136 0.00202318 0)
(-0.000124511 0.00198218 0)
(-0.000131006 0.00193982 0)
(-0.000137626 0.0018961 0)
(-0.000144374 0.00185102 0)
(-0.000151256 0.0018046 0)
(-0.000158277 0.00175683 0)
(-0.000165443 0.00170772 0)
(-0.00017276 0.00165728 0)
(-0.000180233 0.00160549 0)
(-0.000187872 0.00155238 0)
(-0.000195684 0.00149793 0)
(-0.000203678 0.00144214 0)
(-0.000211864 0.00138503 0)
(-0.000220254 0.00132657 0)
(-0.000228861 0.00126678 0)
(-0.0002377 0.00120565 0)
(-0.000246784 0.00114318 0)
(-0.00025613 0.00107936 0)
(-0.000265766 0.00101421 0)
(-0.00027572 0.000947699 0)
(-0.000286021 0.000879838 0)
(-0.000296703 0.000810613 0)
(-0.000307814 0.000740011 0)
(-0.00031941 0.000667999 0)
(-0.000331546 0.000594509 0)
(-0.000344265 0.000519429 0)
(-0.0003576 0.000442628 0)
(-0.000371554 0.00036395 0)
(-0.000386078 0.000283253 0)
(-0.000401104 0.00020046 0)
(-0.00041672 0.000115631 0)
(-0.000432913 2.8669e-05 0)
(-0.00044942 -6.02701e-05 0)
(-0.000466461 -0.000150904 0)
(-0.000484313 -0.000243288 0)
(-0.000503064 -0.000337459 0)
(-0.000522872 -0.000433507 0)
(-0.000543905 -0.000531558 0)
(-0.000566329 -0.000631762 0)
(-0.000590313 -0.000734276 0)
(-0.000616035 -0.000839257 0)
(-0.000643687 -0.000946865 0)
(-0.000673484 -0.00105726 0)
(-0.000705666 -0.00117061 0)
(-0.000740504 -0.0012871 0)
(-0.000778308 -0.00140689 0)
(-0.000819423 -0.00153021 0)
(-0.000864246 -0.00165726 0)
(-0.000913218 -0.00178829 0)
(-0.000966841 -0.00192355 0)
(-0.00102567 -0.00206334 0)
(-0.00109035 -0.00220798 0)
(-0.00116157 -0.0023578 0)
(-0.00124013 -0.00251324 0)
(-0.00132688 -0.00267466 0)
(-0.00142284 -0.00284269 0)
(-0.00152902 -0.00301754 0)
(-0.00164679 -0.00320054 0)
(-0.00177713 -0.0033908 0)
(-0.00192227 -0.00359228 0)
(-0.00208228 -0.00379928 0)
(-0.00226222 -0.00402587 0)
(-0.00245743 -0.00424693 0)
(-0.0026831 -0.00451479 0)
(-0.00291491 -0.00473147 0)
(-0.0032028 -0.00508654 0)
(-0.00344525 -0.00522388 0)
(-0.00379685 -0.00580136 0)
(-0.00384058 -0.00555056 0)
)
;
    }
    frontAndBack
    {
        type            empty;
    }
}


// ************************************************************************* //
