/*--------------------------------*- C++ -*----------------------------------*\
  =========                 |
  \\      /  F ield         | OpenFOAM: The Open Source CFD Toolbox
   \\    /   O peration     | Website:  https://openfoam.org
    \\  /    A nd           | Version:  7
     \\/     M anipulation  |
\*---------------------------------------------------------------------------*/
FoamFile
{
    version     2.0;
    format      ascii;
    class       volScalarField;
    location    "0.11";
    object      k;
}
// * * * * * * * * * * * * * * * * * * * * * * * * * * * * * * * * * * * * * //

dimensions      [0 2 -2 0 0 0 0];

internalField   nonuniform List<scalar> 
70000
(
1.08549e-05
4.21863e-06
2.82411e-06
2.31644e-06
1.99708e-06
1.75665e-06
1.56462e-06
1.40764e-06
1.2768e-06
1.16601e-06
1.07102e-06
9.88955e-07
9.17367e-07
8.54668e-07
7.99224e-07
7.5017e-07
7.06209e-07
6.67013e-07
6.3143e-07
5.99578e-07
5.7028e-07
5.44047e-07
5.19556e-07
4.97697e-07
4.76933e-07
4.58536e-07
4.40695e-07
4.25078e-07
4.09547e-07
3.96204e-07
3.82517e-07
3.71066e-07
3.58863e-07
3.48999e-07
3.38004e-07
3.29472e-07
3.19482e-07
3.1206e-07
3.02917e-07
2.96431e-07
2.87981e-07
2.82347e-07
2.74352e-07
2.697e-07
2.61644e-07
2.58681e-07
2.50221e-07
2.58365e-07
2.47633e-07
2.58273e-07
1.72794e-05
1.1367e-05
8.51992e-06
7.0094e-06
6.03601e-06
5.30944e-06
4.72983e-06
4.25577e-06
3.86055e-06
3.52595e-06
3.23909e-06
2.99123e-06
2.77499e-06
2.5856e-06
2.41809e-06
2.26989e-06
2.13702e-06
2.01859e-06
1.91101e-06
1.81475e-06
1.72614e-06
1.64685e-06
1.57276e-06
1.50669e-06
1.44386e-06
1.38825e-06
1.33425e-06
1.28704e-06
1.24002e-06
1.19969e-06
1.15824e-06
1.12364e-06
1.08667e-06
1.05686e-06
1.02357e-06
9.97756e-07
9.67531e-07
9.45049e-07
9.17418e-07
8.97746e-07
8.72221e-07
8.55142e-07
8.30952e-07
8.16922e-07
7.92479e-07
7.83191e-07
7.57847e-07
7.73843e-07
7.50076e-07
7.65542e-07
1.937e-05
1.61295e-05
1.32904e-05
1.12883e-05
9.82694e-06
8.69397e-06
7.77599e-06
7.01776e-06
6.38096e-06
5.83914e-06
5.37288e-06
4.96887e-06
4.61543e-06
4.30528e-06
4.03031e-06
3.78669e-06
3.56779e-06
3.37251e-06
3.19472e-06
3.03564e-06
2.88885e-06
2.75758e-06
2.63459e-06
2.52503e-06
2.42053e-06
2.32821e-06
2.23824e-06
2.1598e-06
2.08134e-06
2.01428e-06
1.94503e-06
1.88745e-06
1.82565e-06
1.77598e-06
1.72033e-06
1.67722e-06
1.62677e-06
1.5891e-06
1.54305e-06
1.50999e-06
1.46748e-06
1.43876e-06
1.3984e-06
1.3749e-06
1.33408e-06
1.31789e-06
1.27575e-06
1.28908e-06
1.26184e-06
1.2665e-06
1.9861e-05
1.826e-05
1.60855e-05
1.41995e-05
1.26391e-05
1.1347e-05
1.02588e-05
9.3359e-06
8.54405e-06
7.86017e-06
7.26509e-06
6.74498e-06
6.28638e-06
5.88154e-06
5.52035e-06
5.19888e-06
4.90838e-06
4.64847e-06
4.41064e-06
4.19755e-06
3.99993e-06
3.82317e-06
3.6567e-06
3.50851e-06
3.36642e-06
3.24109e-06
3.11823e-06
3.01145e-06
2.9039e-06
2.81242e-06
2.71721e-06
2.63848e-06
2.55337e-06
2.48522e-06
2.40859e-06
2.34916e-06
2.27976e-06
2.22754e-06
2.16432e-06
2.11823e-06
2.05994e-06
2.01976e-06
1.96434e-06
1.93142e-06
1.87548e-06
1.85175e-06
1.7942e-06
1.79641e-06
1.77705e-06
1.75616e-06
1.99706e-05
1.78459e-05
1.60752e-05
1.47668e-05
1.36029e-05
1.25375e-05
1.1569e-05
1.07007e-05
9.91934e-06
9.22312e-06
8.60258e-06
8.04942e-06
7.55313e-06
7.10906e-06
6.70737e-06
6.34607e-06
6.01579e-06
5.71831e-06
5.44345e-06
5.19622e-06
4.96485e-06
4.75746e-06
4.56038e-06
4.38489e-06
4.21506e-06
4.0655e-06
3.91741e-06
3.78919e-06
3.65863e-06
3.54825e-06
3.43206e-06
3.33654e-06
3.23237e-06
3.1491e-06
3.05523e-06
2.98202e-06
2.89708e-06
2.83215e-06
2.75493e-06
2.69708e-06
2.62601e-06
2.57517e-06
2.50764e-06
2.46553e-06
2.39754e-06
2.36655e-06
2.29857e-06
2.28532e-06
2.26552e-06
2.22223e-06
2.00096e-05
1.47037e-05
1.37491e-05
1.32127e-05
1.25936e-05
1.19292e-05
1.12799e-05
1.06591e-05
1.00822e-05
9.54786e-06
9.04701e-06
8.58051e-06
8.14633e-06
7.74657e-06
7.37417e-06
7.03185e-06
6.71214e-06
6.42037e-06
6.14608e-06
5.89726e-06
5.66059e-06
5.4473e-06
5.24143e-06
5.05776e-06
4.87718e-06
4.71834e-06
4.55845e-06
4.42071e-06
4.27809e-06
4.15835e-06
4.0303e-06
3.92558e-06
3.81016e-06
3.71776e-06
3.61351e-06
3.53116e-06
3.43684e-06
3.36276e-06
3.27717e-06
3.21018e-06
3.13163e-06
3.07186e-06
2.99755e-06
2.9468e-06
2.87256e-06
2.83407e-06
2.76273e-06
2.73026e-06
2.70683e-06
2.64825e-06
2.01332e-05
1.54647e-05
9.63475e-06
9.40115e-06
9.49693e-06
9.49684e-06
9.43907e-06
9.3018e-06
9.06127e-06
8.78736e-06
8.4926e-06
8.1954e-06
7.90313e-06
7.62029e-06
7.34233e-06
7.08275e-06
6.83398e-06
6.60118e-06
6.37505e-06
6.16608e-06
5.96115e-06
5.77421e-06
5.58875e-06
5.42247e-06
5.25437e-06
5.10661e-06
4.95385e-06
4.8232e-06
4.68434e-06
4.56868e-06
4.44219e-06
4.3391e-06
4.22397e-06
4.13115e-06
4.02664e-06
3.94215e-06
3.84745e-06
3.76981e-06
3.68393e-06
3.61222e-06
3.53367e-06
3.4682e-06
3.39453e-06
3.33675e-06
3.26479e-06
3.2164e-06
3.15163e-06
3.10302e-06
3.07643e-06
3.00758e-06
2.01714e-05
1.86743e-05
8.68357e-06
5.54108e-06
5.63289e-06
5.93919e-06
6.29916e-06
6.58551e-06
6.76693e-06
6.8764e-06
6.89729e-06
6.87835e-06
6.82679e-06
6.73923e-06
6.62856e-06
6.50704e-06
6.36804e-06
6.22736e-06
6.08215e-06
5.94253e-06
5.79814e-06
5.6636e-06
5.52435e-06
5.3982e-06
5.26551e-06
5.15086e-06
5.02707e-06
4.92245e-06
4.80609e-06
4.71008e-06
4.60129e-06
4.51269e-06
4.41191e-06
4.32939e-06
4.23691e-06
4.15928e-06
4.07506e-06
4.00139e-06
3.92476e-06
3.85488e-06
3.7849e-06
3.71929e-06
3.65427e-06
3.59381e-06
3.53195e-06
3.47702e-06
3.42386e-06
3.3665e-06
3.33991e-06
3.26867e-06
2.01673e-05
1.97235e-05
1.61619e-05
4.85335e-06
3.04265e-06
3.10759e-06
3.37935e-06
3.81079e-06
4.17864e-06
4.49823e-06
4.74717e-06
4.93853e-06
5.08009e-06
5.18216e-06
5.24122e-06
5.2789e-06
5.28318e-06
5.27506e-06
5.25249e-06
5.21614e-06
5.16558e-06
5.11279e-06
5.04877e-06
4.98713e-06
4.91437e-06
4.84815e-06
4.76835e-06
4.70168e-06
4.62091e-06
4.55519e-06
4.47632e-06
4.41197e-06
4.33677e-06
4.27363e-06
4.20328e-06
4.14106e-06
4.07618e-06
4.01508e-06
3.9567e-06
3.89717e-06
3.84362e-06
3.78581e-06
3.73617e-06
3.68057e-06
3.63426e-06
3.58064e-06
3.54185e-06
3.4853e-06
3.46203e-06
3.39822e-06
2.01478e-05
1.99341e-05
1.90638e-05
1.4489e-05
5.22689e-06
2.15244e-06
1.91507e-06
1.99593e-06
2.2121e-06
2.51283e-06
2.79031e-06
3.04604e-06
3.27233e-06
3.4716e-06
3.63637e-06
3.77711e-06
3.8894e-06
3.98036e-06
4.05116e-06
4.10649e-06
4.14406e-06
4.17034e-06
4.18447e-06
4.18821e-06
4.18468e-06
4.17709e-06
4.15911e-06
4.14423e-06
4.11489e-06
4.09259e-06
4.05826e-06
4.03004e-06
3.99347e-06
3.96055e-06
3.92371e-06
3.8871e-06
3.85158e-06
3.81189e-06
3.77654e-06
3.73471e-06
3.70087e-06
3.65824e-06
3.62616e-06
3.58336e-06
3.55336e-06
3.51009e-06
3.4851e-06
3.43844e-06
3.421e-06
3.37497e-06
2.01217e-05
1.9966e-05
1.96415e-05
1.85426e-05
1.51989e-05
8.32888e-06
3.08599e-06
1.63054e-06
1.44241e-06
1.45094e-06
1.53013e-06
1.69448e-06
1.87812e-06
2.05757e-06
2.22912e-06
2.39138e-06
2.5396e-06
2.67391e-06
2.79266e-06
2.89941e-06
2.99111e-06
3.07238e-06
3.14003e-06
3.19995e-06
3.24636e-06
3.28972e-06
3.31949e-06
3.3492e-06
3.3666e-06
3.38411e-06
3.3925e-06
3.40003e-06
3.40172e-06
3.40087e-06
3.39817e-06
3.39168e-06
3.38583e-06
3.37385e-06
3.36606e-06
3.35036e-06
3.34101e-06
3.32241e-06
3.31191e-06
3.29125e-06
3.27995e-06
3.25807e-06
3.24654e-06
3.22163e-06
3.21335e-06
3.19032e-06
2.00983e-05
1.99327e-05
1.97567e-05
1.93504e-05
1.8501e-05
1.65236e-05
1.22958e-05
6.81811e-06
2.95833e-06
1.48672e-06
1.24199e-06
1.14839e-06
1.15418e-06
1.19909e-06
1.29437e-06
1.40403e-06
1.51783e-06
1.6308e-06
1.74188e-06
1.85013e-06
1.9508e-06
2.04737e-06
2.13399e-06
2.21725e-06
2.28969e-06
2.35948e-06
2.41909e-06
2.47602e-06
2.52474e-06
2.56994e-06
2.60944e-06
2.64434e-06
2.67614e-06
2.70215e-06
2.72755e-06
2.74617e-06
2.76654e-06
2.77919e-06
2.79481e-06
2.80311e-06
2.8147e-06
2.81949e-06
2.82758e-06
2.82997e-06
2.83484e-06
2.83558e-06
2.83742e-06
2.83598e-06
2.83815e-06
2.83498e-06
2.00783e-05
1.98876e-05
1.97563e-05
1.94588e-05
1.91426e-05
1.86355e-05
1.75432e-05
1.5405e-05
1.16965e-05
7.3883e-06
3.9329e-06
1.8864e-06
1.20246e-06
1.05631e-06
9.80668e-07
9.45631e-07
9.58406e-07
9.95822e-07
1.05904e-06
1.12609e-06
1.19643e-06
1.26963e-06
1.34112e-06
1.41486e-06
1.48416e-06
1.55298e-06
1.61725e-06
1.6793e-06
1.73772e-06
1.79259e-06
1.84507e-06
1.89283e-06
1.93944e-06
1.98054e-06
2.02167e-06
2.05662e-06
2.09284e-06
2.12267e-06
2.15396e-06
2.17987e-06
2.20665e-06
2.22892e-06
2.25213e-06
2.27117e-06
2.29143e-06
2.30719e-06
2.32563e-06
2.33782e-06
2.35411e-06
2.36739e-06
2.00615e-05
1.98539e-05
1.97337e-05
1.94692e-05
1.92519e-05
1.90431e-05
1.873e-05
1.81817e-05
1.70795e-05
1.52047e-05
1.25137e-05
9.15991e-06
5.88978e-06
3.40942e-06
1.83667e-06
1.15221e-06
9.61901e-07
8.9006e-07
8.3483e-07
7.99602e-07
8.03138e-07
8.19166e-07
8.51994e-07
8.93208e-07
9.34347e-07
9.79528e-07
1.02569e-06
1.07266e-06
1.12064e-06
1.16751e-06
1.21488e-06
1.25954e-06
1.30479e-06
1.34674e-06
1.38939e-06
1.42817e-06
1.46819e-06
1.50398e-06
1.54066e-06
1.57426e-06
1.60748e-06
1.63853e-06
1.66912e-06
1.69767e-06
1.72584e-06
1.75172e-06
1.7781e-06
1.80207e-06
1.82432e-06
1.85025e-06
2.00476e-05
1.98303e-05
1.97071e-05
1.94469e-05
1.92688e-05
1.9111e-05
1.89605e-05
1.87448e-05
1.84549e-05
1.79007e-05
1.70596e-05
1.56642e-05
1.3831e-05
1.14489e-05
8.74501e-06
6.12405e-06
3.96707e-06
2.41598e-06
1.45152e-06
1.00931e-06
8.57171e-07
7.9678e-07
7.48598e-07
7.10093e-07
6.8457e-07
6.85576e-07
6.93359e-07
7.10785e-07
7.34387e-07
7.59919e-07
7.87067e-07
8.15222e-07
8.45769e-07
8.76025e-07
9.08211e-07
9.39335e-07
9.72326e-07
1.0033e-06
1.03528e-06
1.06648e-06
1.09688e-06
1.12745e-06
1.15693e-06
1.18649e-06
1.21505e-06
1.24293e-06
1.27093e-06
1.29818e-06
1.32276e-06
1.35147e-06
2.00363e-05
1.98124e-05
1.96845e-05
1.94164e-05
1.92546e-05
1.91044e-05
1.89955e-05
1.8844e-05
1.87066e-05
1.8494e-05
1.82396e-05
1.78202e-05
1.72103e-05
1.63295e-05
1.51041e-05
1.35482e-05
1.17021e-05
9.58235e-06
7.41673e-06
5.40953e-06
3.75094e-06
2.49838e-06
1.6182e-06
1.0997e-06
8.55184e-07
7.56018e-07
7.0787e-07
6.70891e-07
6.35345e-07
6.09357e-07
5.91912e-07
5.91182e-07
5.94822e-07
6.03336e-07
6.17297e-07
6.32281e-07
6.49585e-07
6.66775e-07
6.85655e-07
7.05985e-07
7.26102e-07
7.48341e-07
7.69835e-07
7.92857e-07
8.15578e-07
8.38075e-07
8.61761e-07
8.85143e-07
9.06566e-07
9.31788e-07
2.00273e-05
1.97985e-05
1.96652e-05
1.93942e-05
1.92284e-05
1.90768e-05
1.89768e-05
1.88477e-05
1.87302e-05
1.85912e-05
1.84527e-05
1.82834e-05
1.80701e-05
1.77828e-05
1.73867e-05
1.68348e-05
1.61077e-05
1.51651e-05
1.39889e-05
1.26193e-05
1.10724e-05
9.37077e-06
7.63028e-06
5.98205e-06
4.4993e-06
3.29215e-06
2.34474e-06
1.63549e-06
1.15564e-06
8.78618e-07
7.37855e-07
6.70634e-07
6.31825e-07
6.02731e-07
5.74883e-07
5.49378e-07
5.30612e-07
5.18305e-07
5.1452e-07
5.15972e-07
5.19826e-07
5.27628e-07
5.36108e-07
5.47102e-07
5.5833e-07
5.70192e-07
5.8363e-07
5.97976e-07
6.11206e-07
6.28537e-07
2.00201e-05
1.97898e-05
1.96453e-05
1.93777e-05
1.92037e-05
1.90474e-05
1.89378e-05
1.8821e-05
1.8708e-05
1.85844e-05
1.84646e-05
1.83395e-05
1.8213e-05
1.80698e-05
1.79103e-05
1.77085e-05
1.74588e-05
1.71314e-05
1.67143e-05
1.61735e-05
1.55172e-05
1.47036e-05
1.37568e-05
1.2655e-05
1.14706e-05
1.01659e-05
8.7896e-06
7.40775e-06
6.07949e-06
4.86446e-06
3.78996e-06
2.90822e-06
2.19167e-06
1.62588e-06
1.20653e-06
9.24123e-07
7.53491e-07
6.58055e-07
6.05209e-07
5.72826e-07
5.47227e-07
5.26225e-07
5.04676e-07
4.86668e-07
4.71171e-07
4.61943e-07
4.556e-07
4.55715e-07
4.57082e-07
4.61641e-07
2.00145e-05
1.97898e-05
1.9619e-05
1.93642e-05
1.91827e-05
1.90201e-05
1.89013e-05
1.87839e-05
1.86674e-05
1.85477e-05
1.8434e-05
1.8317e-05
1.82041e-05
1.80843e-05
1.79705e-05
1.78463e-05
1.77216e-05
1.75744e-05
1.74138e-05
1.7211e-05
1.6976e-05
1.66769e-05
1.63226e-05
1.58815e-05
1.53654e-05
1.47553e-05
1.40541e-05
1.32524e-05
1.23727e-05
1.14109e-05
1.04077e-05
9.33411e-06
8.22998e-06
7.13206e-06
6.06882e-06
5.07459e-06
4.16502e-06
3.36688e-06
2.69261e-06
2.12746e-06
1.66054e-06
1.28893e-06
1.00913e-06
8.14581e-07
6.87455e-07
6.10587e-07
5.61923e-07
5.34243e-07
5.09608e-07
4.97561e-07
2.00103e-05
1.97939e-05
1.95922e-05
1.93501e-05
1.91636e-05
1.89938e-05
1.88672e-05
1.87467e-05
1.8627e-05
1.85037e-05
1.83877e-05
1.82696e-05
1.81588e-05
1.80452e-05
1.79379e-05
1.78271e-05
1.77198e-05
1.76082e-05
1.75008e-05
1.73855e-05
1.72675e-05
1.71347e-05
1.6989e-05
1.68191e-05
1.66232e-05
1.63921e-05
1.61233e-05
1.58059e-05
1.54392e-05
1.50152e-05
1.45342e-05
1.39949e-05
1.33906e-05
1.27284e-05
1.20095e-05
1.12439e-05
1.04405e-05
9.60677e-06
8.73242e-06
7.84559e-06
6.95976e-06
6.0987e-06
5.27143e-06
4.50294e-06
3.79106e-06
3.1644e-06
2.61936e-06
2.16031e-06
1.75414e-06
1.43058e-06
2.00071e-05
1.98014e-05
1.95676e-05
1.93364e-05
1.91456e-05
1.89691e-05
1.88345e-05
1.87112e-05
1.85873e-05
1.8461e-05
1.83401e-05
1.82203e-05
1.8105e-05
1.79898e-05
1.78796e-05
1.777e-05
1.76652e-05
1.75614e-05
1.74597e-05
1.73602e-05
1.72588e-05
1.71597e-05
1.70582e-05
1.69587e-05
1.68521e-05
1.6743e-05
1.66217e-05
1.64921e-05
1.63425e-05
1.61796e-05
1.59877e-05
1.57772e-05
1.55315e-05
1.52595e-05
1.49468e-05
1.46026e-05
1.42139e-05
1.37926e-05
1.33248e-05
1.28211e-05
1.22714e-05
1.16908e-05
1.107e-05
1.04274e-05
9.75614e-06
9.07421e-06
8.35156e-06
7.63829e-06
6.90101e-06
6.19401e-06
2.00047e-05
1.981e-05
1.95447e-05
1.93228e-05
1.91281e-05
1.8946e-05
1.88029e-05
1.8677e-05
1.85488e-05
1.84201e-05
1.82939e-05
1.81719e-05
1.80517e-05
1.79346e-05
1.78196e-05
1.77089e-05
1.75981e-05
1.74935e-05
1.73878e-05
1.72895e-05
1.71891e-05
1.70969e-05
1.70008e-05
1.69134e-05
1.68206e-05
1.6734e-05
1.6641e-05
1.65561e-05
1.64622e-05
1.63756e-05
1.6275e-05
1.61792e-05
1.60675e-05
1.59547e-05
1.58233e-05
1.56859e-05
1.55266e-05
1.53573e-05
1.51631e-05
1.49548e-05
1.47171e-05
1.44629e-05
1.41744e-05
1.38687e-05
1.35262e-05
1.31671e-05
1.2769e-05
1.2352e-05
1.18968e-05
1.14204e-05
2.0003e-05
1.98191e-05
1.95234e-05
1.93088e-05
1.91104e-05
1.89245e-05
1.87723e-05
1.86438e-05
1.85118e-05
1.83808e-05
1.82496e-05
1.81253e-05
1.80003e-05
1.78809e-05
1.77613e-05
1.76486e-05
1.75333e-05
1.74261e-05
1.73165e-05
1.72156e-05
1.71104e-05
1.7015e-05
1.69153e-05
1.68266e-05
1.67323e-05
1.66494e-05
1.65612e-05
1.64837e-05
1.63981e-05
1.63249e-05
1.62405e-05
1.61667e-05
1.6083e-05
1.6008e-05
1.59258e-05
1.58481e-05
1.57622e-05
1.56799e-05
1.55871e-05
1.54956e-05
1.53919e-05
1.52852e-05
1.5165e-05
1.5038e-05
1.48971e-05
1.4747e-05
1.45788e-05
1.43991e-05
1.42004e-05
1.39842e-05
2.00018e-05
1.98277e-05
1.95039e-05
1.92939e-05
1.90925e-05
1.89044e-05
1.87431e-05
1.86117e-05
1.84764e-05
1.83432e-05
1.82077e-05
1.80808e-05
1.79518e-05
1.78296e-05
1.77063e-05
1.75907e-05
1.74717e-05
1.73615e-05
1.72485e-05
1.71444e-05
1.7036e-05
1.69369e-05
1.6834e-05
1.67415e-05
1.66442e-05
1.65564e-05
1.64643e-05
1.63831e-05
1.62953e-05
1.62198e-05
1.61354e-05
1.60642e-05
1.59866e-05
1.59173e-05
1.58438e-05
1.57757e-05
1.57033e-05
1.5638e-05
1.55653e-05
1.54991e-05
1.5427e-05
1.53597e-05
1.52886e-05
1.52181e-05
1.51446e-05
1.50724e-05
1.49913e-05
1.491e-05
1.48222e-05
1.47303e-05
2.0001e-05
1.98304e-05
1.94877e-05
1.92785e-05
1.90748e-05
1.88862e-05
1.87162e-05
1.85812e-05
1.84432e-05
1.83079e-05
1.81687e-05
1.80391e-05
1.79066e-05
1.77817e-05
1.76551e-05
1.75365e-05
1.74142e-05
1.73008e-05
1.7185e-05
1.70774e-05
1.69664e-05
1.68636e-05
1.67582e-05
1.66622e-05
1.65622e-05
1.64709e-05
1.63754e-05
1.62908e-05
1.61996e-05
1.61204e-05
1.60324e-05
1.59563e-05
1.58741e-05
1.58008e-05
1.57238e-05
1.56536e-05
1.55781e-05
1.55142e-05
1.5442e-05
1.53826e-05
1.53156e-05
1.52563e-05
1.51925e-05
1.51341e-05
1.50717e-05
1.50171e-05
1.49532e-05
1.48933e-05
1.48306e-05
1.4773e-05
2.00004e-05
1.98288e-05
1.94745e-05
1.92623e-05
1.9057e-05
1.88697e-05
1.86916e-05
1.85525e-05
1.84124e-05
1.82753e-05
1.81331e-05
1.80008e-05
1.78653e-05
1.77379e-05
1.76084e-05
1.7487e-05
1.73616e-05
1.72454e-05
1.71267e-05
1.70161e-05
1.69024e-05
1.67965e-05
1.66885e-05
1.65895e-05
1.64869e-05
1.63929e-05
1.62945e-05
1.62073e-05
1.61133e-05
1.6031e-05
1.59401e-05
1.58607e-05
1.57748e-05
1.56981e-05
1.5617e-05
1.55432e-05
1.54633e-05
1.53956e-05
1.5318e-05
1.5254e-05
1.51811e-05
1.51191e-05
1.50498e-05
1.49912e-05
1.49238e-05
1.48706e-05
1.48074e-05
1.47508e-05
1.46947e-05
1.46449e-05
2e-05
1.98271e-05
1.94634e-05
1.92446e-05
1.90384e-05
1.88545e-05
1.86693e-05
1.85258e-05
1.83841e-05
1.82456e-05
1.8101e-05
1.79665e-05
1.78284e-05
1.76989e-05
1.75667e-05
1.7443e-05
1.73148e-05
1.71962e-05
1.70746e-05
1.69615e-05
1.6845e-05
1.67365e-05
1.66259e-05
1.65245e-05
1.64192e-05
1.6323e-05
1.62219e-05
1.61324e-05
1.60361e-05
1.59514e-05
1.5858e-05
1.57761e-05
1.56872e-05
1.56083e-05
1.55238e-05
1.54473e-05
1.5364e-05
1.52928e-05
1.52119e-05
1.51441e-05
1.5067e-05
1.50012e-05
1.4927e-05
1.48649e-05
1.47923e-05
1.47351e-05
1.46659e-05
1.46047e-05
1.45424e-05
1.44856e-05
1.99999e-05
1.9826e-05
1.94553e-05
1.92266e-05
1.90199e-05
1.88408e-05
1.865e-05
1.85018e-05
1.83586e-05
1.82195e-05
1.80731e-05
1.79366e-05
1.77965e-05
1.76655e-05
1.75308e-05
1.74053e-05
1.72745e-05
1.71541e-05
1.70297e-05
1.69147e-05
1.67955e-05
1.66849e-05
1.65716e-05
1.64682e-05
1.63603e-05
1.62623e-05
1.61587e-05
1.60672e-05
1.59689e-05
1.58822e-05
1.57864e-05
1.57026e-05
1.5611e-05
1.55302e-05
1.54429e-05
1.53644e-05
1.52783e-05
1.52043e-05
1.51211e-05
1.50502e-05
1.49702e-05
1.49012e-05
1.48238e-05
1.47584e-05
1.46822e-05
1.46214e-05
1.45471e-05
1.44839e-05
1.44166e-05
1.43525e-05
1.99999e-05
1.98254e-05
1.94503e-05
1.92094e-05
1.90023e-05
1.88292e-05
1.86344e-05
1.84813e-05
1.83368e-05
1.81976e-05
1.805e-05
1.79121e-05
1.77703e-05
1.76382e-05
1.75015e-05
1.73747e-05
1.72418e-05
1.71199e-05
1.69931e-05
1.68764e-05
1.67548e-05
1.66425e-05
1.65268e-05
1.64217e-05
1.63114e-05
1.6212e-05
1.61062e-05
1.60129e-05
1.59129e-05
1.58243e-05
1.57263e-05
1.56411e-05
1.55469e-05
1.54646e-05
1.53748e-05
1.52945e-05
1.5206e-05
1.51297e-05
1.50442e-05
1.49709e-05
1.48884e-05
1.48168e-05
1.47369e-05
1.46687e-05
1.45903e-05
1.45258e-05
1.44478e-05
1.43837e-05
1.43113e-05
1.42434e-05
1.99999e-05
1.98253e-05
1.94481e-05
1.91939e-05
1.89862e-05
1.88196e-05
1.8623e-05
1.84649e-05
1.83192e-05
1.81804e-05
1.80322e-05
1.78935e-05
1.77505e-05
1.76178e-05
1.74796e-05
1.73518e-05
1.72173e-05
1.70943e-05
1.69655e-05
1.68476e-05
1.6724e-05
1.66103e-05
1.64925e-05
1.6386e-05
1.62737e-05
1.61732e-05
1.60655e-05
1.59707e-05
1.58691e-05
1.5779e-05
1.56792e-05
1.55926e-05
1.54962e-05
1.54124e-05
1.53205e-05
1.52386e-05
1.51477e-05
1.50696e-05
1.49819e-05
1.49065e-05
1.48217e-05
1.4748e-05
1.46656e-05
1.45949e-05
1.4515e-05
1.44465e-05
1.43662e-05
1.4301e-05
1.42235e-05
1.41543e-05
1.99999e-05
1.98256e-05
1.94487e-05
1.91809e-05
1.89721e-05
1.88117e-05
1.86157e-05
1.8453e-05
1.8306e-05
1.8168e-05
1.80202e-05
1.78812e-05
1.77374e-05
1.76046e-05
1.74655e-05
1.73372e-05
1.72016e-05
1.70778e-05
1.69477e-05
1.68288e-05
1.67037e-05
1.65889e-05
1.64695e-05
1.63619e-05
1.62479e-05
1.61466e-05
1.60373e-05
1.59414e-05
1.58386e-05
1.57473e-05
1.56458e-05
1.55582e-05
1.546e-05
1.53748e-05
1.52811e-05
1.51979e-05
1.51046e-05
1.5025e-05
1.49352e-05
1.48579e-05
1.47708e-05
1.46955e-05
1.46106e-05
1.45378e-05
1.44562e-05
1.43837e-05
1.43023e-05
1.42349e-05
1.41527e-05
1.40838e-05
1.99999e-05
1.98264e-05
1.94517e-05
1.91709e-05
1.89603e-05
1.88053e-05
1.86127e-05
1.84458e-05
1.82975e-05
1.81608e-05
1.80139e-05
1.78753e-05
1.77315e-05
1.75989e-05
1.74594e-05
1.73312e-05
1.71952e-05
1.70711e-05
1.694e-05
1.68207e-05
1.66944e-05
1.6579e-05
1.64582e-05
1.635e-05
1.62348e-05
1.61329e-05
1.60225e-05
1.59259e-05
1.58219e-05
1.573e-05
1.56272e-05
1.55387e-05
1.54391e-05
1.53527e-05
1.52573e-05
1.51731e-05
1.50777e-05
1.49968e-05
1.49052e-05
1.48261e-05
1.47367e-05
1.46601e-05
1.45725e-05
1.44984e-05
1.44141e-05
1.43389e-05
1.42567e-05
1.41855e-05
1.41e-05
1.40317e-05
1.99999e-05
1.98277e-05
1.94574e-05
1.91646e-05
1.89512e-05
1.88007e-05
1.86136e-05
1.84437e-05
1.82939e-05
1.81586e-05
1.80135e-05
1.7876e-05
1.77326e-05
1.76006e-05
1.74615e-05
1.73337e-05
1.71978e-05
1.70737e-05
1.69424e-05
1.68229e-05
1.66961e-05
1.65805e-05
1.64589e-05
1.63505e-05
1.62345e-05
1.61325e-05
1.60213e-05
1.59245e-05
1.58197e-05
1.57275e-05
1.56237e-05
1.55345e-05
1.5434e-05
1.53467e-05
1.52497e-05
1.51649e-05
1.50675e-05
1.49854e-05
1.48922e-05
1.48115e-05
1.472e-05
1.46422e-05
1.45521e-05
1.44771e-05
1.43892e-05
1.43129e-05
1.42289e-05
1.41535e-05
1.40662e-05
1.3998e-05
1.99999e-05
1.98296e-05
1.94652e-05
1.91621e-05
1.89451e-05
1.87975e-05
1.8618e-05
1.8446e-05
1.82948e-05
1.81611e-05
1.8018e-05
1.7882e-05
1.77395e-05
1.76085e-05
1.74702e-05
1.73433e-05
1.72079e-05
1.70844e-05
1.69531e-05
1.68338e-05
1.67067e-05
1.65912e-05
1.64689e-05
1.63607e-05
1.62443e-05
1.61422e-05
1.60308e-05
1.59339e-05
1.58287e-05
1.57365e-05
1.56321e-05
1.55426e-05
1.54416e-05
1.53538e-05
1.52556e-05
1.51704e-05
1.50718e-05
1.49888e-05
1.48943e-05
1.48127e-05
1.47196e-05
1.46404e-05
1.45492e-05
1.44726e-05
1.43816e-05
1.43054e-05
1.42181e-05
1.41394e-05
1.40516e-05
1.39818e-05
1.99999e-05
1.9832e-05
1.94751e-05
1.91636e-05
1.89421e-05
1.87958e-05
1.86255e-05
1.84532e-05
1.83003e-05
1.8168e-05
1.80277e-05
1.78941e-05
1.77531e-05
1.76236e-05
1.74866e-05
1.73612e-05
1.7227e-05
1.71044e-05
1.69736e-05
1.68553e-05
1.67283e-05
1.66136e-05
1.6491e-05
1.63833e-05
1.62671e-05
1.61652e-05
1.60541e-05
1.59575e-05
1.58522e-05
1.57603e-05
1.56557e-05
1.5566e-05
1.54646e-05
1.53767e-05
1.5277e-05
1.51915e-05
1.50916e-05
1.50075e-05
1.49115e-05
1.48289e-05
1.47338e-05
1.46532e-05
1.45609e-05
1.44822e-05
1.43895e-05
1.43126e-05
1.42218e-05
1.41417e-05
1.40535e-05
1.39808e-05
1.99999e-05
1.98349e-05
1.94867e-05
1.9169e-05
1.89424e-05
1.8796e-05
1.86353e-05
1.84645e-05
1.83103e-05
1.81794e-05
1.8042e-05
1.79111e-05
1.77721e-05
1.76444e-05
1.7509e-05
1.73855e-05
1.72529e-05
1.71318e-05
1.70018e-05
1.68848e-05
1.67584e-05
1.66446e-05
1.65224e-05
1.64155e-05
1.63e-05
1.61987e-05
1.60883e-05
1.59926e-05
1.58875e-05
1.57965e-05
1.56921e-05
1.56027e-05
1.55014e-05
1.54139e-05
1.53131e-05
1.52278e-05
1.51273e-05
1.50427e-05
1.49454e-05
1.48627e-05
1.47656e-05
1.46844e-05
1.45909e-05
1.45099e-05
1.44161e-05
1.43373e-05
1.42425e-05
1.41619e-05
1.40717e-05
1.39945e-05
1.99999e-05
1.98383e-05
1.94993e-05
1.91786e-05
1.89461e-05
1.87982e-05
1.86469e-05
1.84794e-05
1.83242e-05
1.81945e-05
1.80601e-05
1.79323e-05
1.77958e-05
1.76702e-05
1.75367e-05
1.74154e-05
1.72847e-05
1.71654e-05
1.70366e-05
1.69211e-05
1.67958e-05
1.66832e-05
1.65617e-05
1.64558e-05
1.63413e-05
1.6241e-05
1.61314e-05
1.6037e-05
1.59326e-05
1.58424e-05
1.57387e-05
1.565e-05
1.55489e-05
1.54621e-05
1.53607e-05
1.52754e-05
1.51748e-05
1.509e-05
1.49917e-05
1.49087e-05
1.48102e-05
1.47291e-05
1.46335e-05
1.45522e-05
1.44576e-05
1.43759e-05
1.42793e-05
1.41992e-05
1.41062e-05
1.40241e-05
1.99999e-05
1.98421e-05
1.9513e-05
1.91915e-05
1.89534e-05
1.8803e-05
1.86602e-05
1.84975e-05
1.83419e-05
1.82131e-05
1.80815e-05
1.79571e-05
1.78234e-05
1.77001e-05
1.75688e-05
1.74499e-05
1.73214e-05
1.72041e-05
1.70769e-05
1.69632e-05
1.68392e-05
1.67278e-05
1.66075e-05
1.65029e-05
1.63895e-05
1.62905e-05
1.6182e-05
1.60892e-05
1.59857e-05
1.58966e-05
1.57938e-05
1.57062e-05
1.56054e-05
1.55197e-05
1.5418e-05
1.53328e-05
1.52321e-05
1.51477e-05
1.50484e-05
1.4965e-05
1.48661e-05
1.47842e-05
1.4687e-05
1.46062e-05
1.45094e-05
1.44257e-05
1.43282e-05
1.42477e-05
1.41509e-05
1.40647e-05
1.99999e-05
1.98462e-05
1.95271e-05
1.92074e-05
1.89641e-05
1.88103e-05
1.86745e-05
1.85181e-05
1.83628e-05
1.82347e-05
1.81057e-05
1.79847e-05
1.78543e-05
1.77335e-05
1.76043e-05
1.74881e-05
1.7362e-05
1.72469e-05
1.71214e-05
1.70096e-05
1.68873e-05
1.67774e-05
1.66583e-05
1.65552e-05
1.64431e-05
1.63456e-05
1.62383e-05
1.61474e-05
1.60452e-05
1.59573e-05
1.58556e-05
1.57695e-05
1.56692e-05
1.55845e-05
1.54829e-05
1.5398e-05
1.52973e-05
1.52137e-05
1.51133e-05
1.50299e-05
1.49304e-05
1.48478e-05
1.47502e-05
1.46688e-05
1.45698e-05
1.44856e-05
1.43869e-05
1.43045e-05
1.42042e-05
1.41161e-05
1.99999e-05
1.98505e-05
1.95416e-05
1.92257e-05
1.89781e-05
1.88204e-05
1.86897e-05
1.85405e-05
1.83864e-05
1.82588e-05
1.81323e-05
1.80146e-05
1.78876e-05
1.77694e-05
1.76427e-05
1.7529e-05
1.74055e-05
1.72927e-05
1.71692e-05
1.70594e-05
1.69387e-05
1.68304e-05
1.67127e-05
1.66112e-05
1.65005e-05
1.64046e-05
1.62988e-05
1.62098e-05
1.61091e-05
1.60226e-05
1.59222e-05
1.58376e-05
1.57382e-05
1.56546e-05
1.55532e-05
1.54689e-05
1.53684e-05
1.52853e-05
1.51845e-05
1.51012e-05
1.50005e-05
1.49185e-05
1.48198e-05
1.47374e-05
1.46373e-05
1.45528e-05
1.44519e-05
1.43675e-05
1.42648e-05
1.41757e-05
1.99999e-05
1.9855e-05
1.95563e-05
1.9246e-05
1.89953e-05
1.88334e-05
1.87059e-05
1.85642e-05
1.84123e-05
1.82852e-05
1.81608e-05
1.80463e-05
1.79228e-05
1.78074e-05
1.76831e-05
1.75719e-05
1.7451e-05
1.73407e-05
1.72192e-05
1.71115e-05
1.69925e-05
1.68858e-05
1.67695e-05
1.66696e-05
1.65604e-05
1.64661e-05
1.6362e-05
1.62748e-05
1.61757e-05
1.6091e-05
1.59918e-05
1.59088e-05
1.58106e-05
1.5728e-05
1.5627e-05
1.55436e-05
1.5443e-05
1.53606e-05
1.52597e-05
1.51762e-05
1.50749e-05
1.49933e-05
1.48929e-05
1.48106e-05
1.47094e-05
1.46239e-05
1.45209e-05
1.44352e-05
1.433e-05
1.42413e-05
1.99999e-05
1.98596e-05
1.95709e-05
1.92678e-05
1.90155e-05
1.8849e-05
1.8723e-05
1.85886e-05
1.844e-05
1.83134e-05
1.81909e-05
1.80793e-05
1.79593e-05
1.78467e-05
1.7725e-05
1.76161e-05
1.74978e-05
1.73899e-05
1.72705e-05
1.71649e-05
1.70476e-05
1.69425e-05
1.68276e-05
1.67292e-05
1.66215e-05
1.65288e-05
1.64264e-05
1.6341e-05
1.62436e-05
1.61608e-05
1.60629e-05
1.59815e-05
1.58844e-05
1.58029e-05
1.57025e-05
1.56199e-05
1.55193e-05
1.54377e-05
1.53365e-05
1.52532e-05
1.51518e-05
1.50691e-05
1.49683e-05
1.48861e-05
1.47828e-05
1.46966e-05
1.45924e-05
1.45044e-05
1.43981e-05
1.43077e-05
1.99999e-05
1.98643e-05
1.95854e-05
1.92907e-05
1.90383e-05
1.88672e-05
1.8741e-05
1.86135e-05
1.84689e-05
1.83431e-05
1.82223e-05
1.81133e-05
1.79967e-05
1.78869e-05
1.77677e-05
1.7661e-05
1.75453e-05
1.74399e-05
1.73226e-05
1.72188e-05
1.71032e-05
1.69996e-05
1.6886e-05
1.67891e-05
1.66828e-05
1.65916e-05
1.64908e-05
1.64071e-05
1.63115e-05
1.62306e-05
1.6134e-05
1.60543e-05
1.59582e-05
1.58779e-05
1.57781e-05
1.56965e-05
1.55956e-05
1.55148e-05
1.54132e-05
1.53309e-05
1.52278e-05
1.51452e-05
1.50443e-05
1.49605e-05
1.48558e-05
1.47702e-05
1.46633e-05
1.45731e-05
1.44666e-05
1.43713e-05
1.99999e-05
1.98689e-05
1.95999e-05
1.93142e-05
1.90633e-05
1.88878e-05
1.87602e-05
1.86385e-05
1.84986e-05
1.83738e-05
1.82547e-05
1.8148e-05
1.80345e-05
1.79276e-05
1.7811e-05
1.77063e-05
1.7593e-05
1.749e-05
1.73748e-05
1.72726e-05
1.71586e-05
1.70565e-05
1.69441e-05
1.68482e-05
1.67433e-05
1.66536e-05
1.65544e-05
1.6472e-05
1.63782e-05
1.62992e-05
1.6204e-05
1.61259e-05
1.60306e-05
1.59514e-05
1.58528e-05
1.57715e-05
1.56703e-05
1.55905e-05
1.54885e-05
1.54062e-05
1.53023e-05
1.52207e-05
1.51172e-05
1.50326e-05
1.49279e-05
1.48419e-05
1.47303e-05
1.46413e-05
1.45312e-05
1.44322e-05
1.99999e-05
1.98735e-05
1.96141e-05
1.93379e-05
1.90899e-05
1.89106e-05
1.87806e-05
1.86636e-05
1.85287e-05
1.84055e-05
1.82879e-05
1.81831e-05
1.80726e-05
1.79684e-05
1.78545e-05
1.77516e-05
1.76405e-05
1.75398e-05
1.74267e-05
1.7326e-05
1.72133e-05
1.71127e-05
1.70012e-05
1.69062e-05
1.68024e-05
1.67141e-05
1.66163e-05
1.6535e-05
1.64431e-05
1.63655e-05
1.62721e-05
1.61955e-05
1.61002e-05
1.60228e-05
1.59252e-05
1.58432e-05
1.57436e-05
1.56631e-05
1.55604e-05
1.54787e-05
1.53749e-05
1.5292e-05
1.51861e-05
1.51025e-05
1.4997e-05
1.49076e-05
1.47944e-05
1.47065e-05
1.45903e-05
1.449e-05
1.99999e-05
1.98781e-05
1.96283e-05
1.93616e-05
1.91176e-05
1.89354e-05
1.88023e-05
1.86885e-05
1.85589e-05
1.84377e-05
1.83217e-05
1.82188e-05
1.81108e-05
1.80092e-05
1.78979e-05
1.77968e-05
1.76876e-05
1.75892e-05
1.74781e-05
1.73786e-05
1.7267e-05
1.71677e-05
1.7057e-05
1.69626e-05
1.68593e-05
1.67727e-05
1.66758e-05
1.65958e-05
1.65052e-05
1.64287e-05
1.63381e-05
1.62616e-05
1.61669e-05
1.6092e-05
1.59923e-05
1.5913e-05
1.58132e-05
1.57309e-05
1.56289e-05
1.5548e-05
1.54425e-05
1.53581e-05
1.52521e-05
1.51684e-05
1.50595e-05
1.49679e-05
1.48561e-05
1.47649e-05
1.46434e-05
1.45432e-05
1.99999e-05
1.98826e-05
1.96423e-05
1.93852e-05
1.91459e-05
1.89618e-05
1.88254e-05
1.87134e-05
1.85891e-05
1.84704e-05
1.83559e-05
1.82548e-05
1.81491e-05
1.80498e-05
1.79412e-05
1.78418e-05
1.77344e-05
1.76379e-05
1.75289e-05
1.74305e-05
1.73197e-05
1.72214e-05
1.71113e-05
1.70173e-05
1.69141e-05
1.68289e-05
1.67326e-05
1.66543e-05
1.65638e-05
1.64892e-05
1.64007e-05
1.63232e-05
1.62321e-05
1.61553e-05
1.60562e-05
1.59801e-05
1.58765e-05
1.57951e-05
1.56939e-05
1.56115e-05
1.55041e-05
1.54204e-05
1.53136e-05
1.52269e-05
1.51154e-05
1.50246e-05
1.49121e-05
1.48141e-05
1.46908e-05
1.45915e-05
1.99999e-05
1.9887e-05
1.96561e-05
1.94085e-05
1.91745e-05
1.89897e-05
1.88498e-05
1.87385e-05
1.86192e-05
1.85033e-05
1.83906e-05
1.82912e-05
1.81877e-05
1.80903e-05
1.79843e-05
1.78867e-05
1.77808e-05
1.76859e-05
1.7579e-05
1.74817e-05
1.73714e-05
1.72735e-05
1.71643e-05
1.70698e-05
1.69672e-05
1.68819e-05
1.6787e-05
1.67095e-05
1.66189e-05
1.65476e-05
1.64575e-05
1.63835e-05
1.62925e-05
1.62133e-05
1.61189e-05
1.60399e-05
1.59352e-05
1.58568e-05
1.57524e-05
1.56685e-05
1.55618e-05
1.5478e-05
1.53672e-05
1.52785e-05
1.5167e-05
1.50759e-05
1.49581e-05
1.48558e-05
1.47345e-05
1.46332e-05
1.99999e-05
1.98913e-05
1.96695e-05
1.94315e-05
1.92032e-05
1.90186e-05
1.88755e-05
1.87638e-05
1.86488e-05
1.85364e-05
1.84256e-05
1.83278e-05
1.82265e-05
1.81309e-05
1.80272e-05
1.79313e-05
1.78272e-05
1.77336e-05
1.76285e-05
1.75322e-05
1.74223e-05
1.73246e-05
1.72154e-05
1.71208e-05
1.7018e-05
1.69321e-05
1.68393e-05
1.67604e-05
1.6673e-05
1.66002e-05
1.65119e-05
1.64405e-05
1.6346e-05
1.62706e-05
1.61755e-05
1.60931e-05
1.59927e-05
1.59118e-05
1.58037e-05
1.57219e-05
1.56146e-05
1.55274e-05
1.54138e-05
1.5326e-05
1.52125e-05
1.51178e-05
1.49954e-05
1.48941e-05
1.47724e-05
1.46637e-05
1.99999e-05
1.98955e-05
1.96826e-05
1.94541e-05
1.9232e-05
1.90483e-05
1.89024e-05
1.87897e-05
1.86782e-05
1.85694e-05
1.8461e-05
1.83647e-05
1.82655e-05
1.81717e-05
1.807e-05