/*--------------------------------*- C++ -*----------------------------------*\
  =========                 |
  \\      /  F ield         | OpenFOAM: The Open Source CFD Toolbox
   \\    /   O peration     | Website:  https://openfoam.org
    \\  /    A nd           | Version:  7
     \\/     M anipulation  |
\*---------------------------------------------------------------------------*/
FoamFile
{
    version     2.0;
    format      ascii;
    class       volScalarField;
    location    "0.11";
    object      k_0;
}
// * * * * * * * * * * * * * * * * * * * * * * * * * * * * * * * * * * * * * //

dimensions      [0 2 -2 0 0 0 0];

internalField   nonuniform List<scalar> 
70000
(
1.08549e-05
4.21863e-06
2.82411e-06
2.31644e-06
1.99708e-06
1.75665e-06
1.56462e-06
1.40764e-06
1.2768e-06
1.16601e-06
1.07102e-06
9.88955e-07
9.17368e-07
8.54669e-07
7.99226e-07
7.5017e-07
7.0621e-07
6.67014e-07
6.31431e-07
5.99579e-07
5.70282e-07
5.44048e-07
5.19558e-07
4.97699e-07
4.76936e-07
4.58538e-07
4.40697e-07
4.2508e-07
4.0955e-07
3.96206e-07
3.82521e-07
3.71068e-07
3.58866e-07
3.49002e-07
3.38007e-07
3.29476e-07
3.19485e-07
3.12064e-07
3.0292e-07
2.96435e-07
2.87984e-07
2.82352e-07
2.74355e-07
2.69703e-07
2.61648e-07
2.58685e-07
2.50222e-07
2.58365e-07
2.47633e-07
2.58275e-07
1.72794e-05
1.1367e-05
8.51992e-06
7.0094e-06
6.03601e-06
5.30944e-06
4.72983e-06
4.25577e-06
3.86055e-06
3.52595e-06
3.23909e-06
2.99123e-06
2.77499e-06
2.58561e-06
2.41809e-06
2.26989e-06
2.13703e-06
2.01859e-06
1.91101e-06
1.81475e-06
1.72614e-06
1.64686e-06
1.57277e-06
1.5067e-06
1.44387e-06
1.38826e-06
1.33426e-06
1.28705e-06
1.24003e-06
1.1997e-06
1.15825e-06
1.12364e-06
1.08668e-06
1.05687e-06
1.02357e-06
9.97767e-07
9.67539e-07
9.45062e-07
9.17425e-07
8.97759e-07
8.72229e-07
8.55154e-07
8.30962e-07
8.1693e-07
7.9249e-07
7.83203e-07
7.57853e-07
7.73844e-07
7.50075e-07
7.65548e-07
1.937e-05
1.61295e-05
1.32904e-05
1.12884e-05
9.82695e-06
8.69397e-06
7.776e-06
7.01776e-06
6.38096e-06
5.83914e-06
5.37288e-06
4.96887e-06
4.61543e-06
4.30528e-06
4.03031e-06
3.7867e-06
3.56779e-06
3.37251e-06
3.19472e-06
3.03564e-06
2.88886e-06
2.75759e-06
2.6346e-06
2.52503e-06
2.42055e-06
2.32821e-06
2.23825e-06
2.15981e-06
2.08135e-06
2.01429e-06
1.94504e-06
1.88746e-06
1.82566e-06
1.77599e-06
1.72034e-06
1.67724e-06
1.62678e-06
1.58912e-06
1.54306e-06
1.51001e-06
1.46749e-06
1.43878e-06
1.39841e-06
1.37491e-06
1.3341e-06
1.3179e-06
1.27576e-06
1.28908e-06
1.26184e-06
1.26651e-06
1.9861e-05
1.826e-05
1.60855e-05
1.41995e-05
1.26391e-05
1.1347e-05
1.02588e-05
9.3359e-06
8.54405e-06
7.86017e-06
7.26509e-06
6.74498e-06
6.28638e-06
5.88154e-06
5.52036e-06
5.19889e-06
4.90838e-06
4.64847e-06
4.41065e-06
4.19755e-06
3.99994e-06
3.82318e-06
3.65671e-06
3.50852e-06
3.36643e-06
3.2411e-06
3.11825e-06
3.01146e-06
2.90391e-06
2.81243e-06
2.71722e-06
2.63849e-06
2.55339e-06
2.48524e-06
2.4086e-06
2.34918e-06
2.27977e-06
2.22756e-06
2.16433e-06
2.11825e-06
2.05995e-06
2.01979e-06
1.96436e-06
1.93143e-06
1.8755e-06
1.85177e-06
1.79422e-06
1.7964e-06
1.77704e-06
1.75619e-06
1.99706e-05
1.78459e-05
1.60752e-05
1.47668e-05
1.36029e-05
1.25375e-05
1.1569e-05
1.07007e-05
9.91934e-06
9.22312e-06
8.60258e-06
8.04943e-06
7.55313e-06
7.10906e-06
6.70738e-06
6.34608e-06
6.0158e-06
5.71831e-06
5.44346e-06
5.19622e-06
4.96486e-06
4.75747e-06
4.56038e-06
4.3849e-06
4.21507e-06
4.06551e-06
3.91742e-06
3.78919e-06
3.65865e-06
3.54826e-06
3.43207e-06
3.33655e-06
3.23237e-06
3.14912e-06
3.05524e-06
2.98204e-06
2.89709e-06
2.83218e-06
2.75493e-06
2.69711e-06
2.62602e-06
2.57519e-06
2.50767e-06
2.46554e-06
2.39757e-06
2.36657e-06
2.29861e-06
2.2853e-06
2.26551e-06
2.22225e-06
2.00096e-05
1.47037e-05
1.37491e-05
1.32127e-05
1.25936e-05
1.19292e-05
1.12799e-05
1.06591e-05
1.00822e-05
9.54786e-06
9.04702e-06
8.58051e-06
8.14634e-06
7.74657e-06
7.37417e-06
7.03186e-06
6.71215e-06
6.42037e-06
6.14609e-06
5.89726e-06
5.6606e-06
5.4473e-06
5.24143e-06
5.05776e-06
4.87719e-06
4.71834e-06
4.55845e-06
4.42071e-06
4.2781e-06
4.15835e-06
4.03031e-06
3.9256e-06
3.81016e-06
3.71778e-06
3.6135e-06
3.53119e-06
3.43683e-06
3.36279e-06
3.27717e-06
3.21021e-06
3.13164e-06
3.07187e-06
2.99757e-06
2.94679e-06
2.87259e-06
2.83406e-06
2.76278e-06
2.73025e-06
2.70681e-06
2.64826e-06
2.01332e-05
1.54647e-05
9.63475e-06
9.40114e-06
9.49692e-06
9.49683e-06
9.43906e-06
9.30179e-06
9.06126e-06
8.78736e-06
8.4926e-06
8.1954e-06
7.90313e-06
7.62029e-06
7.34233e-06
7.08275e-06
6.83399e-06
6.60118e-06
6.37505e-06
6.16608e-06
5.96115e-06
5.7742e-06
5.58874e-06
5.42246e-06
5.25437e-06
5.1066e-06
4.95384e-06
4.82319e-06
4.68433e-06
4.56868e-06
4.44217e-06
4.33911e-06
4.22396e-06
4.13117e-06
4.02662e-06
3.94217e-06
3.84742e-06
3.76983e-06
3.68392e-06
3.61223e-06
3.53367e-06
3.4682e-06
3.39455e-06
3.33673e-06
3.26483e-06
3.21637e-06
3.15166e-06
3.103e-06
3.07641e-06
3.00758e-06
2.01714e-05
1.86743e-05
8.68357e-06
5.54108e-06
5.63289e-06
5.93918e-06
6.29916e-06
6.5855e-06
6.76693e-06
6.8764e-06
6.89729e-06
6.87835e-06
6.82679e-06
6.73923e-06
6.62856e-06
6.50704e-06
6.36804e-06
6.22735e-06
6.08215e-06
5.94252e-06
5.79813e-06
5.66359e-06
5.52433e-06
5.39818e-06
5.26549e-06
5.15084e-06
5.02705e-06
4.92243e-06
4.80606e-06
4.71007e-06
4.60126e-06
4.51269e-06
4.41187e-06
4.32939e-06
4.23687e-06
4.15929e-06
4.07503e-06
4.0014e-06
3.92473e-06
3.85487e-06
3.78488e-06
3.71927e-06
3.65428e-06
3.59378e-06
3.53197e-06
3.47698e-06
3.42387e-06
3.36647e-06
3.33988e-06
3.26865e-06
2.01673e-05
1.97235e-05
1.61619e-05
4.85335e-06
3.04265e-06
3.10759e-06
3.37935e-06
3.81078e-06
4.17863e-06
4.49822e-06
4.74717e-06
4.93852e-06
5.08009e-06
5.18216e-06
5.24122e-06
5.2789e-06
5.28318e-06
5.27506e-06
5.25249e-06
5.21613e-06
5.16557e-06
5.11277e-06
5.04875e-06
4.9871e-06
4.91435e-06
4.84812e-06
4.76831e-06
4.70164e-06
4.62087e-06
4.55517e-06
4.47627e-06
4.41195e-06
4.33671e-06
4.27362e-06
4.20322e-06
4.14105e-06
4.07613e-06
4.01506e-06
3.95666e-06
3.89714e-06
3.84359e-06
3.78577e-06
3.73616e-06
3.68052e-06
3.63425e-06
3.5806e-06
3.54184e-06
3.48526e-06
3.46199e-06
3.39819e-06
2.01478e-05
1.99341e-05
1.90638e-05
1.4489e-05
5.2269e-06
2.15244e-06
1.91507e-06
1.99593e-06
2.21209e-06
2.51283e-06
2.79031e-06
3.04604e-06
3.27233e-06
3.4716e-06
3.63637e-06
3.77711e-06
3.8894e-06
3.98035e-06
4.05116e-06
4.10648e-06
4.14405e-06
4.17032e-06
4.18445e-06
4.18817e-06
4.18465e-06
4.17705e-06
4.15907e-06
4.14418e-06
4.11483e-06
4.09255e-06
4.05819e-06
4.03001e-06
3.9934e-06
3.96051e-06
3.92364e-06
3.88707e-06
3.85152e-06
3.81184e-06
3.77648e-06
3.73466e-06
3.70082e-06
3.65818e-06
3.62612e-06
3.5833e-06
3.55332e-06
3.51004e-06
3.48506e-06
3.43838e-06
3.42095e-06
3.37491e-06
2.01217e-05
1.9966e-05
1.96415e-05
1.85426e-05
1.51989e-05
8.32891e-06
3.08601e-06
1.63054e-06
1.44241e-06
1.45094e-06
1.53013e-06
1.69448e-06
1.87812e-06
2.05757e-06
2.22912e-06
2.39138e-06
2.5396e-06
2.6739e-06
2.79266e-06
2.8994e-06
2.9911e-06
3.07236e-06
3.14e-06
3.19991e-06
3.24632e-06
3.28968e-06
3.31944e-06
3.34915e-06
3.36654e-06
3.38406e-06
3.39244e-06
3.39997e-06
3.40166e-06
3.4008e-06
3.3981e-06
3.39162e-06
3.38576e-06
3.37378e-06
3.36598e-06
3.35028e-06
3.34094e-06
3.32234e-06
3.31184e-06
3.29118e-06
3.27988e-06
3.258e-06
3.24647e-06
3.22156e-06
3.21328e-06
3.19025e-06
2.00983e-05
1.99327e-05
1.97567e-05
1.93504e-05
1.8501e-05
1.65237e-05
1.22959e-05
6.81816e-06
2.95836e-06
1.48673e-06
1.24199e-06
1.14839e-06
1.15418e-06
1.19909e-06
1.29437e-06
1.40403e-06
1.51783e-06
1.63079e-06
1.74188e-06
1.85013e-06
1.9508e-06
2.04735e-06
2.13397e-06
2.21722e-06
2.28965e-06
2.35945e-06
2.41904e-06
2.47598e-06
2.52468e-06
2.56988e-06
2.60937e-06
2.64428e-06
2.67607e-06
2.70209e-06
2.72747e-06
2.7461e-06
2.76647e-06
2.77911e-06
2.79474e-06
2.80303e-06
2.81462e-06
2.81941e-06
2.8275e-06
2.82989e-06
2.83476e-06
2.8355e-06
2.83734e-06
2.8359e-06
2.83807e-06
2.8349e-06
2.00783e-05
1.98876e-05
1.97563e-05
1.94588e-05
1.91426e-05
1.86355e-05
1.75432e-05
1.5405e-05
1.16966e-05
7.38835e-06
3.93294e-06
1.88642e-06
1.20246e-06
1.05631e-06
9.80669e-07
9.45631e-07
9.58407e-07
9.9582e-07
1.05904e-06
1.12609e-06
1.19643e-06
1.26962e-06
1.3411e-06
1.41484e-06
1.48414e-06
1.55295e-06
1.61721e-06
1.67927e-06
1.73767e-06
1.79255e-06
1.84501e-06
1.89278e-06
1.93937e-06
1.98048e-06
2.0216e-06
2.05656e-06
2.09277e-06
2.12259e-06
2.15389e-06
2.17979e-06
2.20657e-06
2.22884e-06
2.25204e-06
2.27109e-06
2.29134e-06
2.30712e-06
2.32555e-06
2.33773e-06
2.35402e-06
2.3673e-06
2.00615e-05
1.98539e-05
1.97337e-05
1.94692e-05
1.92519e-05
1.90431e-05
1.873e-05
1.81818e-05
1.70795e-05
1.52047e-05
1.25138e-05
9.15996e-06
5.88981e-06
3.40944e-06
1.83668e-06
1.15221e-06
9.61903e-07
8.9006e-07
8.34832e-07
7.99601e-07
8.03136e-07
8.19162e-07
8.51987e-07
8.932e-07
9.34331e-07
9.79514e-07
1.02566e-06
1.07264e-06
1.12061e-06
1.16748e-06
1.21484e-06
1.25949e-06
1.30474e-06
1.3467e-06
1.38933e-06
1.42812e-06
1.46814e-06
1.50391e-06
1.5406e-06
1.57419e-06
1.60741e-06
1.63846e-06
1.66904e-06
1.6976e-06
1.72575e-06
1.75165e-06
1.77803e-06
1.80197e-06
1.82425e-06
1.85017e-06
2.00476e-05
1.98303e-05
1.97071e-05
1.94469e-05
1.92688e-05
1.9111e-05
1.89605e-05
1.87448e-05
1.84549e-05
1.79008e-05
1.70596e-05
1.56642e-05
1.3831e-05
1.14489e-05
8.74504e-06
6.12407e-06
3.96709e-06
2.416e-06
1.45154e-06
1.00931e-06
8.57173e-07
7.96782e-07
7.48599e-07
7.10094e-07
6.84565e-07
6.8557e-07
6.9335e-07
7.10772e-07
7.34369e-07
7.59898e-07
7.87045e-07
8.15193e-07
8.45739e-07
8.75995e-07
9.08168e-07
9.39301e-07
9.72287e-07
1.00324e-06
1.03525e-06
1.06642e-06
1.09683e-06
1.1274e-06
1.15687e-06
1.18644e-06
1.21497e-06
1.24287e-06
1.27088e-06
1.29808e-06
1.3227e-06
1.35142e-06
2.00363e-05
1.98124e-05
1.96845e-05
1.94164e-05
1.92546e-05
1.91044e-05
1.89955e-05
1.88441e-05
1.87066e-05
1.8494e-05
1.82396e-05
1.78202e-05
1.72103e-05
1.63295e-05
1.51041e-05
1.35482e-05
1.17021e-05
9.58237e-06
7.41677e-06
5.40958e-06
3.751e-06
2.49844e-06
1.61826e-06
1.09973e-06
8.55202e-07
7.56025e-07
7.07873e-07
6.70894e-07
6.35347e-07
6.09355e-07
5.91907e-07
5.91169e-07
5.94808e-07
6.03321e-07
6.1727e-07
6.32263e-07
6.49564e-07
6.66737e-07
6.85638e-07
7.05947e-07
7.26065e-07
7.48309e-07
7.69789e-07
7.92827e-07
8.15513e-07
8.38031e-07
8.61742e-07
8.85049e-07
9.06523e-07
9.31768e-07
2.00273e-05
1.97985e-05
1.96652e-05
1.93942e-05
1.92284e-05
1.90768e-05
1.89768e-05
1.88477e-05
1.87302e-05
1.85912e-05
1.84527e-05
1.82834e-05
1.80701e-05
1.77828e-05
1.73867e-05
1.68348e-05
1.61077e-05
1.51651e-05
1.39889e-05
1.26193e-05
1.10724e-05
9.37085e-06
7.6304e-06
5.9822e-06
4.49947e-06
3.29232e-06
2.3449e-06
1.63563e-06
1.15574e-06
8.78675e-07
7.37882e-07
6.70645e-07
6.3183e-07
6.02737e-07
5.74885e-07
5.49383e-07
5.30611e-07
5.18298e-07
5.14509e-07
5.15959e-07
5.1981e-07
5.27611e-07
5.36077e-07
5.47091e-07
5.58288e-07
5.70162e-07
5.8363e-07
5.97908e-07
6.11176e-07
6.28538e-07
2.00201e-05
1.97898e-05
1.96453e-05
1.93777e-05
1.92037e-05
1.90474e-05
1.89379e-05
1.8821e-05
1.8708e-05
1.85844e-05
1.84646e-05
1.83395e-05
1.8213e-05
1.80698e-05
1.79103e-05
1.77085e-05
1.74588e-05
1.71313e-05
1.67143e-05
1.61735e-05
1.55172e-05
1.47036e-05
1.37569e-05
1.26551e-05
1.14708e-05
1.01661e-05
8.78986e-06
7.40807e-06
6.07984e-06
4.86483e-06
3.79031e-06
2.90854e-06
2.19195e-06
1.62612e-06
1.20671e-06
9.2424e-07
7.53559e-07
6.5809e-07
6.05227e-07
5.72836e-07
5.47234e-07
5.26234e-07
5.04679e-07
4.86676e-07
4.71164e-07
4.61937e-07
4.55592e-07
4.55701e-07
4.57061e-07
4.61628e-07
2.00145e-05
1.97898e-05
1.9619e-05
1.93642e-05
1.91827e-05
1.90201e-05
1.89013e-05
1.87839e-05
1.86674e-05
1.85477e-05
1.84341e-05
1.8317e-05
1.82041e-05
1.80842e-05
1.79705e-05
1.78463e-05
1.77216e-05
1.75744e-05
1.74138e-05
1.7211e-05
1.69759e-05
1.66769e-05
1.63226e-05
1.58815e-05
1.53655e-05
1.47554e-05
1.40542e-05
1.32526e-05
1.23729e-05
1.14112e-05
1.04081e-05
9.33454e-06
8.23046e-06
7.13257e-06
6.06935e-06
5.07511e-06
4.16553e-06
3.36734e-06
2.69302e-06
2.12783e-06
1.66085e-06
1.28919e-06
1.00932e-06
8.14715e-07
6.87538e-07
6.10635e-07
5.61951e-07
5.34252e-07
5.09616e-07
4.97568e-07
2.00103e-05
1.97939e-05
1.95922e-05
1.93501e-05
1.91636e-05
1.89938e-05
1.88672e-05
1.87468e-05
1.8627e-05
1.85037e-05
1.83877e-05
1.82696e-05
1.81588e-05
1.80452e-05
1.79379e-05
1.7827e-05
1.77198e-05
1.76082e-05
1.75008e-05
1.73855e-05
1.72675e-05
1.71346e-05
1.6989e-05
1.68191e-05
1.66233e-05
1.63921e-05
1.61234e-05
1.5806e-05
1.54393e-05
1.50153e-05
1.45344e-05
1.39951e-05
1.33909e-05
1.27287e-05
1.20099e-05
1.12443e-05
1.0441e-05
9.60729e-06
8.73299e-06
7.84619e-06
6.96039e-06
6.09935e-06
5.27207e-06
4.50357e-06
3.79168e-06
3.16497e-06
2.61989e-06
2.1608e-06
1.75461e-06
1.43103e-06
2.00071e-05
1.98014e-05
1.95676e-05
1.93364e-05
1.91456e-05
1.89691e-05
1.88345e-05
1.87112e-05
1.85873e-05
1.8461e-05
1.83401e-05
1.82203e-05
1.8105e-05
1.79898e-05
1.78796e-05
1.777e-05
1.76652e-05
1.75614e-05
1.74597e-05
1.73602e-05
1.72588e-05
1.71596e-05
1.70582e-05
1.69587e-05
1.68521e-05
1.6743e-05
1.66217e-05
1.64922e-05
1.63425e-05
1.61796e-05
1.59878e-05
1.57773e-05
1.55316e-05
1.52597e-05
1.4947e-05
1.46027e-05
1.42141e-05
1.37928e-05
1.3325e-05
1.28214e-05
1.22718e-05
1.16912e-05
1.10705e-05
1.04279e-05
9.75672e-06
9.07486e-06
8.35227e-06
7.63906e-06
6.90187e-06
6.19499e-06
2.00047e-05
1.981e-05
1.95447e-05
1.93228e-05
1.91281e-05
1.89461e-05
1.88029e-05
1.8677e-05
1.85489e-05
1.84201e-05
1.82939e-05
1.81719e-05
1.80517e-05
1.79345e-05
1.78196e-05
1.77089e-05
1.75981e-05
1.74934e-05
1.73878e-05
1.72894e-05
1.71891e-05
1.70969e-05
1.70008e-05
1.69134e-05
1.68206e-05
1.6734e-05
1.6641e-05
1.65561e-05
1.64622e-05
1.63756e-05
1.6275e-05
1.61792e-05
1.60675e-05
1.59548e-05
1.58234e-05
1.56859e-05
1.55266e-05
1.53574e-05
1.51631e-05
1.49549e-05
1.47172e-05
1.4463e-05
1.41746e-05
1.38689e-05
1.35265e-05
1.31674e-05
1.27694e-05
1.23524e-05
1.18973e-05
1.1421e-05
2.0003e-05
1.98191e-05
1.95234e-05
1.93088e-05
1.91104e-05
1.89245e-05
1.87723e-05
1.86439e-05
1.85118e-05
1.83808e-05
1.82496e-05
1.81253e-05
1.80003e-05
1.78809e-05
1.77613e-05
1.76486e-05
1.75332e-05
1.74261e-05
1.73164e-05
1.72155e-05
1.71103e-05
1.7015e-05
1.69153e-05
1.68266e-05
1.67323e-05
1.66494e-05
1.65613e-05
1.64838e-05
1.63982e-05
1.63249e-05
1.62405e-05
1.61667e-05
1.6083e-05
1.60081e-05
1.59258e-05
1.58481e-05
1.57622e-05
1.568e-05
1.55872e-05
1.54956e-05
1.53919e-05
1.52852e-05
1.5165e-05
1.50381e-05
1.48973e-05
1.47471e-05
1.45789e-05
1.43992e-05
1.42006e-05
1.39845e-05
2.00018e-05
1.98277e-05
1.95039e-05
1.92939e-05
1.90925e-05
1.89044e-05
1.87432e-05
1.86118e-05
1.84764e-05
1.83432e-05
1.82077e-05
1.80808e-05
1.79517e-05
1.78296e-05
1.77063e-05
1.75907e-05
1.74716e-05
1.73614e-05
1.72485e-05
1.71443e-05
1.70359e-05
1.69369e-05
1.6834e-05
1.67416e-05
1.66442e-05
1.65564e-05
1.64643e-05
1.63831e-05
1.62954e-05
1.62198e-05
1.61354e-05
1.60643e-05
1.59866e-05
1.59173e-05
1.58438e-05
1.57756e-05
1.57034e-05
1.5638e-05
1.55653e-05
1.54991e-05
1.54269e-05
1.53597e-05
1.52885e-05
1.52181e-05
1.51447e-05
1.50724e-05
1.49913e-05
1.49101e-05
1.48222e-05
1.47303e-05
2.0001e-05
1.98304e-05
1.94877e-05
1.92785e-05
1.90748e-05
1.88862e-05
1.87162e-05
1.85812e-05
1.84432e-05
1.83079e-05
1.81687e-05
1.80391e-05
1.79066e-05
1.77816e-05
1.76551e-05
1.75365e-05
1.74141e-05
1.73008e-05
1.71849e-05
1.70774e-05
1.69663e-05
1.68636e-05
1.67582e-05
1.66622e-05
1.65623e-05
1.64709e-05
1.63755e-05
1.62909e-05
1.61997e-05
1.61205e-05
1.60324e-05
1.59564e-05
1.58741e-05
1.58008e-05
1.57238e-05
1.56535e-05
1.55782e-05
1.55142e-05
1.5442e-05
1.53827e-05
1.53156e-05
1.52563e-05
1.51925e-05
1.51341e-05
1.50717e-05
1.50171e-05
1.49531e-05
1.48933e-05
1.48307e-05
1.47729e-05
2.00004e-05
1.98288e-05
1.94745e-05
1.92623e-05
1.9057e-05
1.88697e-05
1.86916e-05
1.85526e-05
1.84125e-05
1.82753e-05
1.81331e-05
1.80008e-05
1.78653e-05
1.77379e-05
1.76083e-05
1.7487e-05
1.73616e-05
1.72454e-05
1.71266e-05
1.7016e-05
1.69023e-05
1.67964e-05
1.66885e-05
1.65895e-05
1.64869e-05
1.63929e-05
1.62946e-05
1.62073e-05
1.61134e-05
1.60311e-05
1.59401e-05
1.58607e-05
1.57748e-05
1.56982e-05
1.5617e-05
1.55432e-05
1.54633e-05
1.53956e-05
1.5318e-05
1.5254e-05
1.51811e-05
1.51191e-05
1.50498e-05
1.49911e-05
1.49238e-05
1.48707e-05
1.48073e-05
1.47508e-05
1.46948e-05
1.46447e-05
2e-05
1.98271e-05
1.94634e-05
1.92446e-05
1.90384e-05
1.88545e-05
1.86694e-05
1.85259e-05
1.83841e-05
1.82457e-05
1.81011e-05
1.79665e-05
1.78284e-05
1.76989e-05
1.75667e-05
1.7443e-05
1.73147e-05
1.71962e-05
1.70746e-05
1.69615e-05
1.6845e-05
1.67365e-05
1.66259e-05
1.65245e-05
1.64192e-05
1.6323e-05
1.62219e-05
1.61325e-05
1.60362e-05
1.59515e-05
1.5858e-05
1.57762e-05
1.56872e-05
1.56083e-05
1.55238e-05
1.54473e-05
1.5364e-05
1.52928e-05
1.52119e-05
1.51442e-05
1.5067e-05
1.50012e-05
1.4927e-05
1.48649e-05
1.47923e-05
1.47352e-05
1.46657e-05
1.46047e-05
1.45424e-05
1.44853e-05
1.99999e-05
1.9826e-05
1.94553e-05
1.92266e-05
1.90199e-05
1.88409e-05
1.86501e-05
1.85018e-05
1.83587e-05
1.82195e-05
1.80731e-05
1.79366e-05
1.77965e-05
1.76655e-05
1.75308e-05
1.74053e-05
1.72745e-05
1.7154e-05
1.70297e-05
1.69146e-05
1.67954e-05
1.66848e-05
1.65716e-05
1.64682e-05
1.63603e-05
1.62623e-05
1.61588e-05
1.60673e-05
1.5969e-05
1.58822e-05
1.57864e-05
1.57027e-05
1.5611e-05
1.55303e-05
1.54429e-05
1.53643e-05
1.52783e-05
1.52043e-05
1.5121e-05
1.50502e-05
1.49702e-05
1.49011e-05
1.48238e-05
1.47584e-05
1.46822e-05
1.46215e-05
1.4547e-05
1.44839e-05
1.44165e-05
1.43523e-05
1.99999e-05
1.98254e-05
1.94503e-05
1.92094e-05
1.90023e-05
1.88292e-05
1.86345e-05
1.84813e-05
1.83369e-05
1.81976e-05
1.805e-05
1.79121e-05
1.77703e-05
1.76382e-05
1.75015e-05
1.73746e-05
1.72417e-05
1.71198e-05
1.6993e-05
1.68763e-05
1.67547e-05
1.66425e-05
1.65268e-05
1.64217e-05
1.63114e-05
1.6212e-05
1.61063e-05
1.6013e-05
1.5913e-05
1.58244e-05
1.57264e-05
1.56412e-05
1.55469e-05
1.54647e-05
1.53748e-05
1.52944e-05
1.5206e-05
1.51297e-05
1.50442e-05
1.49709e-05
1.48884e-05
1.48168e-05
1.47369e-05
1.46687e-05
1.45903e-05
1.45258e-05
1.44477e-05
1.43838e-05
1.43111e-05
1.42433e-05
1.99999e-05
1.98253e-05
1.94481e-05
1.91939e-05
1.89862e-05
1.88196e-05
1.8623e-05
1.84649e-05
1.83192e-05
1.81804e-05
1.80323e-05
1.78935e-05
1.77504e-05
1.76178e-05
1.74796e-05
1.73517e-05
1.72172e-05
1.70942e-05
1.69654e-05
1.68475e-05
1.67239e-05
1.66102e-05
1.64925e-05
1.6386e-05
1.62737e-05
1.61732e-05
1.60655e-05
1.59708e-05
1.58692e-05
1.57791e-05
1.56792e-05
1.55927e-05
1.54962e-05
1.54125e-05
1.53206e-05
1.52386e-05
1.51477e-05
1.50696e-05
1.49819e-05
1.49065e-05
1.48217e-05
1.47479e-05
1.46656e-05
1.4595e-05
1.4515e-05
1.44464e-05
1.43662e-05
1.43011e-05
1.42232e-05
1.41543e-05
1.99999e-05
1.98256e-05
1.94487e-05
1.91809e-05
1.89721e-05
1.88117e-05
1.86158e-05
1.8453e-05
1.83061e-05
1.81681e-05
1.80202e-05
1.78812e-05
1.77374e-05
1.76046e-05
1.74654e-05
1.73371e-05
1.72015e-05
1.70778e-05
1.69476e-05
1.68287e-05
1.67036e-05
1.65888e-05
1.64694e-05
1.63619e-05
1.6248e-05
1.61466e-05
1.60374e-05
1.59416e-05
1.58387e-05
1.57474e-05
1.56459e-05
1.55583e-05
1.546e-05
1.53749e-05
1.52811e-05
1.51978e-05
1.51046e-05
1.5025e-05
1.49352e-05
1.48579e-05
1.47708e-05
1.46955e-05
1.46106e-05
1.45379e-05
1.44562e-05
1.43837e-05
1.43024e-05
1.42349e-05
1.41525e-05
1.40839e-05
1.99999e-05
1.98264e-05
1.94517e-05
1.91709e-05
1.89603e-05
1.88054e-05
1.86127e-05
1.84459e-05
1.82976e-05
1.81608e-05
1.80139e-05
1.78753e-05
1.77314e-05
1.75988e-05
1.74594e-05
1.73311e-05
1.71951e-05
1.7071e-05
1.69399e-05
1.68205e-05
1.66943e-05
1.65789e-05
1.64582e-05
1.635e-05
1.62348e-05
1.61329e-05
1.60225e-05
1.59261e-05
1.58221e-05
1.57301e-05
1.56273e-05
1.55388e-05
1.54391e-05
1.53528e-05
1.52574e-05
1.51731e-05
1.50777e-05
1.49968e-05
1.49052e-05
1.48261e-05
1.47367e-05
1.46601e-05
1.45725e-05
1.44985e-05
1.44141e-05
1.43389e-05
1.42567e-05
1.41854e-05
1.40999e-05
1.40319e-05
1.99999e-05
1.98277e-05
1.94574e-05
1.91646e-05
1.89513e-05
1.88007e-05
1.86137e-05
1.84437e-05
1.8294e-05
1.81587e-05
1.80135e-05
1.7876e-05
1.77326e-05
1.76006e-05
1.74614e-05
1.73336e-05
1.71977e-05
1.70736e-05
1.69422e-05
1.68227e-05
1.66959e-05
1.65803e-05
1.64588e-05
1.63505e-05
1.62346e-05
1.61325e-05
1.60214e-05
1.59247e-05
1.58199e-05
1.57276e-05
1.56238e-05
1.55346e-05
1.54341e-05
1.53468e-05
1.52498e-05
1.51649e-05
1.50675e-05
1.49855e-05
1.48922e-05
1.48115e-05
1.472e-05
1.46422e-05
1.45521e-05
1.44772e-05
1.43891e-05
1.43129e-05
1.42289e-05
1.41534e-05
1.40662e-05
1.39981e-05
1.99999e-05
1.98296e-05
1.94652e-05
1.91621e-05
1.89451e-05
1.87975e-05
1.86181e-05
1.84461e-05
1.82949e-05
1.81612e-05
1.80181e-05
1.7882e-05
1.77395e-05
1.76084e-05
1.74701e-05
1.73432e-05
1.72078e-05
1.70842e-05
1.69529e-05
1.68337e-05
1.67066e-05
1.65911e-05
1.64689e-05
1.63607e-05
1.62444e-05
1.61422e-05
1.60309e-05
1.59341e-05
1.58289e-05
1.57366e-05
1.56322e-05
1.55427e-05
1.54416e-05
1.53539e-05
1.52557e-05
1.51704e-05
1.50717e-05
1.49888e-05
1.48943e-05
1.48127e-05
1.47196e-05
1.46404e-05
1.45492e-05
1.44726e-05
1.43816e-05
1.43054e-05
1.42181e-05
1.41393e-05
1.40517e-05
1.39818e-05
1.99999e-05
1.9832e-05
1.94751e-05
1.91636e-05
1.89421e-05
1.87958e-05
1.86255e-05
1.84533e-05
1.83004e-05
1.81681e-05
1.80278e-05
1.78941e-05
1.77531e-05
1.76236e-05
1.74865e-05
1.73611e-05
1.72269e-05
1.71043e-05
1.69735e-05
1.68551e-05
1.67282e-05
1.66134e-05
1.64909e-05
1.63833e-05
1.62671e-05
1.61652e-05
1.60542e-05
1.59577e-05
1.58524e-05
1.57605e-05
1.56558e-05
1.55661e-05
1.54647e-05
1.53768e-05
1.52771e-05
1.51915e-05
1.50915e-05
1.50075e-05
1.49115e-05
1.48289e-05
1.47337e-05
1.46532e-05
1.4561e-05
1.44822e-05
1.43895e-05
1.43126e-05
1.42217e-05
1.41417e-05
1.40536e-05
1.39806e-05
1.99999e-05
1.98349e-05
1.94867e-05
1.9169e-05
1.89424e-05
1.8796e-05
1.86354e-05
1.84646e-05
1.83104e-05
1.81795e-05
1.80421e-05
1.79111e-05
1.77721e-05
1.76444e-05
1.7509e-05
1.73854e-05
1.72528e-05
1.71316e-05
1.70017e-05
1.68846e-05
1.67582e-05
1.66444e-05
1.65223e-05
1.64155e-05
1.63e-05
1.61987e-05
1.60884e-05
1.59928e-05
1.58878e-05
1.57966e-05
1.56922e-05
1.56028e-05
1.55015e-05
1.5414e-05
1.53132e-05
1.52278e-05
1.51273e-05
1.50427e-05
1.49455e-05
1.48627e-05
1.47656e-05
1.46845e-05
1.4591e-05
1.45099e-05
1.44162e-05
1.43373e-05
1.42424e-05
1.41619e-05
1.40718e-05
1.39941e-05
1.99999e-05
1.98383e-05
1.94993e-05
1.91786e-05
1.89461e-05
1.87982e-05
1.8647e-05
1.84795e-05
1.83243e-05
1.81946e-05
1.80601e-05
1.79323e-05
1.77958e-05
1.76701e-05
1.75366e-05
1.74153e-05
1.72846e-05
1.71652e-05
1.70364e-05
1.69209e-05
1.67956e-05
1.6683e-05
1.65616e-05
1.64558e-05
1.63414e-05
1.6241e-05
1.61316e-05
1.60372e-05
1.59328e-05
1.58426e-05
1.57388e-05
1.56501e-05
1.5549e-05
1.54622e-05
1.53608e-05
1.52754e-05
1.51748e-05
1.509e-05
1.49917e-05
1.49087e-05
1.48102e-05
1.47291e-05
1.46335e-05
1.45522e-05
1.44576e-05
1.43758e-05
1.42792e-05
1.41993e-05
1.41062e-05
1.40236e-05
1.99999e-05
1.98421e-05
1.9513e-05
1.91915e-05
1.89534e-05
1.8803e-05
1.86602e-05
1.84976e-05
1.8342e-05
1.82132e-05
1.80816e-05
1.79571e-05
1.78234e-05
1.77e-05
1.75687e-05
1.74498e-05
1.73213e-05
1.72039e-05
1.70767e-05
1.6963e-05
1.6839e-05
1.67276e-05
1.66073e-05
1.65028e-05
1.63896e-05
1.62906e-05
1.61821e-05
1.60894e-05
1.5986e-05
1.58968e-05
1.5794e-05
1.57064e-05
1.56056e-05
1.55198e-05
1.54181e-05
1.53329e-05
1.52322e-05
1.51478e-05
1.50484e-05
1.4965e-05
1.48661e-05
1.47842e-05
1.46871e-05
1.46063e-05
1.45093e-05
1.44256e-05
1.43282e-05
1.42477e-05
1.41506e-05
1.40642e-05
1.99999e-05
1.98462e-05
1.95271e-05
1.92074e-05
1.8964e-05
1.88104e-05
1.86745e-05
1.85182e-05
1.83629e-05
1.82348e-05
1.81058e-05
1.79847e-05
1.78543e-05
1.77334e-05
1.76042e-05
1.74879e-05
1.73619e-05
1.72467e-05
1.71212e-05
1.70094e-05
1.6887e-05
1.67771e-05
1.66581e-05
1.65551e-05
1.64431e-05
1.63457e-05
1.62385e-05
1.61476e-05
1.60454e-05
1.59575e-05
1.58558e-05
1.57697e-05
1.56694e-05
1.55846e-05
1.5483e-05
1.5398e-05
1.52974e-05
1.52138e-05
1.51133e-05
1.50299e-05
1.49304e-05
1.48479e-05
1.47503e-05
1.46688e-05
1.45697e-05
1.44855e-05
1.43869e-05
1.43045e-05
1.42039e-05
1.41157e-05
1.99999e-05
1.98505e-05
1.95416e-05
1.92256e-05
1.8978e-05
1.88205e-05
1.86898e-05
1.85406e-05
1.83866e-05
1.8259e-05
1.81324e-05
1.80146e-05
1.78876e-05
1.77693e-05
1.76426e-05
1.75288e-05
1.74054e-05
1.72925e-05
1.71689e-05
1.70592e-05
1.69384e-05
1.68301e-05
1.67125e-05
1.66111e-05
1.65005e-05
1.64047e-05
1.6299e-05
1.621e-05
1.61093e-05
1.60229e-05
1.59224e-05
1.58378e-05
1.57384e-05
1.56547e-05
1.55533e-05
1.54689e-05
1.53684e-05
1.52853e-05
1.51844e-05
1.51012e-05
1.50005e-05
1.49186e-05
1.48199e-05
1.47374e-05
1.46372e-05
1.45527e-05
1.44519e-05
1.43674e-05
1.42646e-05
1.41754e-05
1.99999e-05
1.9855e-05
1.95562e-05
1.92459e-05
1.89953e-05
1.88334e-05
1.87059e-05
1.85643e-05
1.84125e-05
1.82854e-05
1.81609e-05
1.80463e-05
1.79228e-05
1.78073e-05
1.7683e-05
1.75717e-05
1.74509e-05
1.73404e-05
1.72189e-05
1.71112e-05
1.69922e-05
1.68855e-05
1.67693e-05
1.66695e-05
1.65604e-05
1.64661e-05
1.63622e-05
1.62751e-05
1.6176e-05
1.60912e-05
1.59921e-05
1.5909e-05
1.58108e-05
1.57281e-05
1.5627e-05
1.55436e-05
1.5443e-05
1.53606e-05
1.52597e-05
1.51762e-05
1.5075e-05
1.49934e-05
1.48929e-05
1.48106e-05
1.47093e-05
1.46238e-05
1.45208e-05
1.4435e-05
1.43298e-05
1.4241e-05
1.99999e-05
1.98596e-05
1.95709e-05
1.92678e-05
1.90154e-05
1.8849e-05
1.8723e-05
1.85887e-05
1.84402e-05
1.83136e-05
1.8191e-05
1.80794e-05
1.79594e-05
1.78466e-05
1.77248e-05
1.7616e-05
1.74977e-05
1.73897e-05
1.72703e-05
1.71646e-05
1.70472e-05
1.69421e-05
1.68274e-05
1.67291e-05
1.66215e-05
1.65288e-05
1.64266e-05
1.63413e-05
1.62439e-05
1.6161e-05
1.60631e-05
1.59818e-05
1.58847e-05
1.58031e-05
1.57026e-05
1.56199e-05
1.55194e-05
1.54377e-05
1.53365e-05
1.52532e-05
1.51518e-05
1.50691e-05
1.49684e-05
1.48861e-05
1.47827e-05
1.46965e-05
1.45923e-05
1.45042e-05
1.43979e-05
1.43073e-05
1.99999e-05
1.98642e-05
1.95854e-05
1.92907e-05
1.90382e-05
1.88672e-05
1.87411e-05
1.86136e-05
1.84691e-05
1.83433e-05
1.82224e-05
1.81134e-05
1.79967e-05
1.78868e-05
1.77676e-05
1.76609e-05
1.75451e-05
1.74396e-05
1.73223e-05
1.72185e-05
1.71028e-05
1.69992e-05
1.68858e-05
1.67889e-05
1.66828e-05
1.65916e-05
1.6491e-05
1.64074e-05
1.63118e-05
1.62308e-05
1.61343e-05
1.60545e-05
1.59584e-05
1.58781e-05
1.57782e-05
1.56965e-05
1.55956e-05
1.55149e-05
1.54132e-05
1.53309e-05
1.52277e-05
1.51453e-05
1.50443e-05
1.49605e-05
1.48557e-05
1.47702e-05
1.46631e-05
1.45729e-05
1.44663e-05
1.43706e-05
1.99999e-05
1.98689e-05
1.95998e-05
1.93141e-05
1.90632e-05
1.88878e-05
1.87603e-05
1.86386e-05
1.84988e-05
1.83741e-05
1.82548e-05
1.81481e-05
1.80345e-05
1.79275e-05
1.78109e-05
1.77062e-05
1.75928e-05
1.74897e-05
1.73745e-05
1.72723e-05
1.71582e-05
1.70561e-05
1.69438e-05
1.6848e-05
1.67433e-05
1.66537e-05
1.65546e-05
1.64723e-05
1.63786e-05
1.62995e-05
1.62043e-05
1.61262e-05
1.60308e-05
1.59515e-05
1.58529e-05
1.57716e-05
1.56704e-05
1.55906e-05
1.54884e-05
1.54062e-05
1.53023e-05
1.52207e-05
1.51172e-05
1.50326e-05
1.49279e-05
1.48417e-05
1.47301e-05
1.46412e-05
1.45308e-05
1.44316e-05
1.99999e-05
1.98735e-05
1.96141e-05
1.93379e-05
1.90898e-05
1.89105e-05
1.87806e-05
1.86637e-05
1.85289e-05
1.84057e-05
1.82881e-05
1.81833e-05
1.80726e-05
1.79683e-05
1.78543e-05
1.77514e-05
1.76403e-05
1.75395e-05
1.74264e-05
1.73256e-05
1.72129e-05
1.71122e-05
1.70009e-05
1.6906e-05
1.68023e-05
1.67141e-05
1.66165e-05
1.65353e-05
1.64434e-05
1.63658e-05
1.62725e-05
1.61958e-05
1.61004e-05
1.6023e-05
1.59252e-05
1.58432e-05
1.57437e-05
1.56631e-05
1.55603e-05
1.54787e-05
1.53749e-05
1.5292e-05
1.51861e-05
1.51026e-05
1.49969e-05
1.49074e-05
1.47942e-05
1.47064e-05
1.45898e-05
1.44894e-05
1.99999e-05
1.98781e-05
1.96283e-05
1.93616e-05
1.91175e-05
1.89353e-05
1.88023e-05
1.86886e-05
1.85591e-05
1.8438e-05
1.83219e-05
1.82189e-05
1.81108e-05
1.80091e-05
1.78978e-05
1.77966e-05
1.76875e-05
1.75889e-05
1.74778e-05
1.73782e-05
1.72666e-05
1.71672e-05
1.70566e-05
1.69624e-05
1.68592e-05
1.67727e-05
1.6676e-05
1.65961e-05
1.65056e-05
1.64291e-05
1.63385e-05
1.62618e-05
1.61672e-05
1.60922e-05
1.59924e-05
1.59131e-05
1.58132e-05
1.57308e-05
1.56289e-05
1.5548e-05
1.54424e-05
1.5358e-05
1.52522e-05
1.51684e-05
1.50593e-05
1.49677e-05
1.4856e-05
1.47645e-05
1.46428e-05
1.45426e-05
1.99999e-05
1.98826e-05
1.96423e-05
1.93851e-05
1.91458e-05
1.89617e-05
1.88254e-05
1.87135e-05
1.85894e-05
1.84707e-05
1.83562e-05
1.82549e-05
1.81492e-05
1.80498e-05
1.79411e-05
1.78416e-05
1.77342e-05
1.76376e-05
1.75286e-05
1.74301e-05
1.73192e-05
1.72208e-05
1.71109e-05
1.7017e-05
1.6914e-05
1.68288e-05
1.67327e-05
1.66545e-05
1.65642e-05
1.64896e-05
1.64011e-05
1.63235e-05
1.62324e-05
1.61554e-05
1.60563e-05
1.59801e-05
1.58764e-05
1.57952e-05
1.5694e-05
1.56114e-05
1.5504e-05
1.54204e-05
1.53136e-05
1.52268e-05
1.51152e-05
1.50245e-05
1.49118e-05
1.48136e-05
1.46903e-05
1.45909e-05
1.99999e-05
1.9887e-05
1.9656e-05
1.94084e-05
1.91744e-05
1.89896e-05
1.88497e-05
1.87386e-05
1.86194e-05
1.85037e-05
1.83909e-05
1.82914e-05
1.81878e-05
1.80903e-05
1.79842e-05
1.78865e-05
1.77807e-05
1.76857e-05
1.75787e-05
1.74812e-05
1.73709e-05
1.7273e-05
1.71638e-05
1.70694e-05
1.6967e-05
1.68818e-05
1.67872e-05
1.67098e-05
1.66193e-05
1.6548e-05
1.64579e-05
1.63839e-05
1.62927e-05
1.62135e-05
1.61191e-05
1.60398e-05
1.59352e-05
1.58568e-05
1.57523e-05
1.56684e-05
1.55618e-05
1.54779e-05
1.5367e-05
1.52785e-05
1.51669e-05
1.50758e-05
1.49577e-05
1.48553e-05
1.47341e-05
1.46324e-05
1.99999e-05
1.98913e-05
1.96695e-05
1.94314e-05
1.92031e-05
1.90185e-05
1.88754e-05
1.87639e-05
1.86491e-05
1.85367e-05
1.8426e-05
1.83281e-05
1.82266e-05
1.81309e-05
1.80271e-05
1.79312e-05
1.7827e-05
1.77333e-05
1.76281e-05
1.75317e-05
1.74217e-05
1.73239e-05
1.72148e-05
1.71204e-05
1.70177e-05
1.69321e-05
1.68395e-05
1.67606e-05
1.66734e-05
1.66005e-05
1.65124e-05
1.64409e-05
1.63463e-05
1.62708e-05
1.61756e-05
1.60931e-05
1.59927e-05
1.59117e-05
1.58036e-05
1.57219e-05
1.56146e-05
1.55273e-05
1.54137e-05
1.5326e-05
1.52124e-05
1.51174e-05
1.49949e-05
1.48938e-05
1.47719e-05
1.46626e-05
1.99999e-05
1.98955e-05
1.96826e-05
1.9454e-05
1.92318e-05
1.90481e-05
1.89023e-05
1.87898e-05
1.86784e-05
1.85698e-05
1.84614e-05
1.8365e-05
1.82657e-05
1.81717e-05
1.807e-05