/*--------------------------------*- C++ -*----------------------------------*\
  =========                 |
  \\      /  F ield         | OpenFOAM: The Open Source CFD Toolbox
   \\    /   O peration     | Website:  https://openfoam.org
    \\  /    A nd           | Version:  7
     \\/     M anipulation  |
\*---------------------------------------------------------------------------*/
FoamFile
{
    version     2.0;
    format      ascii;
    class       volScalarField;
    location    "0.11";
    object      nut;
}
// * * * * * * * * * * * * * * * * * * * * * * * * * * * * * * * * * * * * * //

dimensions      [0 2 -1 0 0 0 0];

internalField   nonuniform List<scalar> 
70000
(
0
0
0
0
0
0
0
0
0
0
0
0
0
0
0
0
0
0
0
0
0
0
0
0
0
0
0
0
0
0
0
0
0
0
0
0
0
0
0
0
0
0
0
0
0
3.96652e-14
0
8.79645e-13
0
0
0
0
0
0
0
0
0
0
0
0
0
0
0
0
0
0
0
0
0
0
0
0
0
0
0
0
0
0
0
0
0
0
0
0
0
0
0
0
0
0
0
0
0
0
0
1.40123e-13
0
1.89404e-12
0
0
0
0
0
0
0
0
0
0
0
0
0
0
0
0
0
0
0
0
0
0
0
0
0
0
0
0
0
0
0
0
0
0
0
0
0
0
0
0
0
0
0
0
0
0
0
2.96525e-13
0
2.78448e-12
0
0
0
0
0
0
0
0
0
0
0
0
0
0
0
0
0
0
0
0
0
0
0
0
0
0
0
0
0
0
0
0
0
0
0
0
0
0
0
0
0
0
0
0
0
0
0
3.72321e-13
0
3.15544e-12
1.49456e-12
0
0
0
0
0
0
0
0
0
0
0
0
0
0
0
0
0
0
0
0
0
0
0
0
0
0
0
0
0
0
0
0
0
0
0
0
0
0
0
0
0
0
0
0
0
0
4.40851e-13
0
3.20669e-12
2.27181e-12
0
9.4463e-10
0
0
0
0
0
0
0
0
0
0
0
0
0
0
0
0
0
0
0
0
0
0
0
0
0
0
0
0
0
0
0
0
0
0
0
0
0
0
0
0
0
0
0
0
5.54912e-13
0
3.16809e-12
2.36949e-12
0
1.32023e-08
0
0
0
0
0
0
0
0
0
0
0
0
0
0
0
0
0
0
0
0
0
0
0
0
0
0
0
0
0
0
0
0
0
0
0
0
0
0
0
0
0
0
0
0
6.52606e-13
0
2.95053e-12
2.55804e-12
0
1.20961e-08
0
0
0
0
0
0
0
0
0
0
0
0
0
0
0
0
0
0
0
0
0
0
0
0
0
0
0
0
0
0
0
0
0
0
0
0
0
0
0
0
0
0
0
0
6.81463e-13
0
2.47256e-12
2.97096e-12
0
1.10758e-08
0
0
0
0
0
0
0
0
0
0
0
0
0
0
0
0
0
0
0
0
0
0
0
0
0
0
0
0
0
0
0
0
0
0
0
0
0
0
0
0
0
0
0
0
6.19822e-13
0
1.77807e-12
3.41685e-12
0
1.02272e-08
0
0
0
0
0
0
0
0
0
0
0
0
0
0
0
0
0
0
0
0
0
0
0
0
0
0
0
0
0
0
0
0
0
0
0
0
0
0
0
0
0
0
0
0
4.77151e-13
0
9.66152e-13
3.74292e-12
0
9.51733e-09
0
0
0
0
0
0
0
0
0
0
0
0
0
0
0
0
0
0
0
0
0
0
0
0
0
0
0
0
0
0
0
0
0
0
0
0
0
0
0
0
0
0
0
0
2.82575e-13
0
1.22806e-13
3.90731e-12
0
8.87521e-09
0
0
0
0
0
0
0
0
0
0
0
0
0
0
0
0
0
0
0
0
0
0
0
0
0
0
0
0
0
0
0
0
0
0
0
0
0
0
0
0
0
0
0
0
7.49699e-14
0
0
3.91344e-12
0
8.2348e-09
0
0
0
0
0
0
0
0
0
0
0
0
0
0
0
0
0
0
0
0
0
0
0
0
0
0
0
0
0
0
0
0
0
0
0
0
0
0
0
0
0
0
0
0
0
0
0
3.80999e-12
0
7.57618e-09
0
0
0
0
0
0
0
0
0
0
0
2.48521e-11
5.59125e-11
2.02214e-11
0
0
0
0
0
0
0
0
0
0
0
0
0
0
0
0
0
0
0
0
0
0
0
0
0
0
0
0
0
0
0
0
0
3.65656e-12
0
6.90555e-09
0
0
0
0
0
0
0
0
0
0
0
0
0
5.49543e-12
6.60367e-11
1.08038e-10
8.95585e-11
3.82428e-11
1.0694e-11
4.22665e-13
0
0
0
0
0
0
0
0
0
0
0
0
0
0
0
0
0
0
0
0
0
0
0
0
0
0
0
3.5535e-12
0
6.234e-09
0
0
0
1.65863e-11
0
0
0
0
0
0
0
0
0
0
0
0
2.29824e-11
6.63016e-11
1.14242e-10
1.5219e-10
1.50724e-10
9.80773e-11
4.69406e-11
2.02789e-11
8.19758e-12
2.7653e-12
2.67351e-13
0
0
0
0
0
0
0
0
0
0
0
0
0
0
0
0
0
9.46162e-14
7.17869e-13
0
3.70878e-12
0
5.57012e-09
0
0
0
1.19342e-10
0
0
0
0
0
0
0
0
0
0
0
0
0
0
5.76161e-12
2.5654e-11
5.10584e-11
8.43457e-11
1.24612e-10
1.67272e-10
2.03284e-10
2.11209e-10
1.68706e-10
1.04629e-10
5.81529e-11
3.22343e-11
1.85621e-11
1.12726e-11
7.21684e-12
4.74607e-12
3.20927e-12
2.09803e-12
1.54322e-12
9.11524e-13
1.00881e-12
4.13067e-13
1.09407e-12
1.96037e-13
1.38502e-12
4.6297e-13
1.20769e-12
2.45848e-12
0
4.80028e-12
0
4.9202e-09
0
0
0
2.07215e-10
0
0
0
0
0
0
0
0
0
0
0
0
0
0
0
0
2.78811e-12
1.49028e-11
2.74558e-11
4.11949e-11
5.75677e-11
7.90851e-11
1.07266e-10
1.41891e-10
1.81613e-10
2.2341e-10
2.62521e-10
2.82814e-10
2.59296e-10
1.96349e-10
1.31265e-10
8.45052e-11
5.59181e-11
3.81591e-11
2.82714e-11
2.07447e-11
1.74231e-11
1.28809e-11
1.20332e-11
9.28329e-12
8.29944e-12
9.66026e-12
2.57857e-12
1.06771e-11
0
4.28979e-09
0
0
0
2.67734e-10
0
0
0
0
0
0
0
0
0
0
0
0
0
0
0
0
0
0
2.42256e-12
1.0691e-11
1.89727e-11
2.74277e-11
3.6137e-11
4.53479e-11
5.53181e-11
6.68786e-11
8.12762e-11
1.00314e-10
1.25377e-10
1.56305e-10
1.93909e-10
2.36453e-10
2.85542e-10
3.36482e-10
3.81896e-10
3.92134e-10
3.55162e-10
2.8042e-10
2.09393e-10
1.52017e-10
1.12894e-10
9.29833e-11
6.55896e-11
6.92069e-11
3.87267e-11
3.68402e-09
0
0
0
2.86e-10
0
0
0
0
0
0
0
0
0
0
0
0
0
0
0
0
0
0
0
0
2.91304e-12
8.44559e-12
1.38205e-11
1.91583e-11
2.44763e-11
2.98507e-11
3.53423e-11
4.08721e-11
4.68166e-11
5.26401e-11
5.97243e-11
6.65073e-11
7.68765e-11
8.74768e-11
1.06279e-10
1.26725e-10
1.58854e-10
1.95441e-10
2.43192e-10
3.06547e-10
3.74926e-10
4.81614e-10
5.79051e-10
7.0548e-10
7.30892e-10
3.1072e-09
0
0
0
2.44859e-10
0
0
0
0
0
0
0
0
0
0
0
0
0
0
0
0
0
0
0
0
0
0
3.50446e-12
6.94138e-12
1.01148e-11
1.30543e-11
1.58428e-11
1.83076e-11
2.0844e-11
2.26949e-11
2.51708e-11
2.6119e-11
2.88779e-11
2.86419e-11
3.2105e-11
3.1124e-11
3.53277e-11
3.67815e-11
4.02876e-11
5.25928e-11
4.95014e-11
7.65911e-11
4.94181e-11
5.57617e-11
4.52007e-11
2.56228e-09
0
0
0
1.25499e-10
0
0
0
0
0
0
0
0
0
0
0
0
0
0
0
0
0
0
0
0
0
0
0
1.48959e-12
3.52461e-12
5.13031e-12
6.41979e-12
7.1658e-12
7.80237e-12
7.51345e-12
7.59907e-12
5.95162e-12
5.65054e-12
2.33798e-12
1.73997e-12
0
0
0
0
0
0
0
0
0
0
2.05056e-09
0
0
0
0
0
0
0
0
0
0
0
0
0
0
0
0
0
0
0
0
0
0
0
0
0
0
0
0
7.6032e-13
1.59403e-12
1.97887e-12
1.64897e-12
1.06012e-12
0
0
0
0
0
0
0
0
0
0
0
0
0
0
0
0
1.57161e-09
0
0
0
0
0
0
0
0
0
0
0
0
0
0
0
0
0
0
0
0
0
0
0
0
0
0
0
0
0
1.27166e-13
0
0
0
0
0
0
0
0
0
0
0
0
0
0
0
0
0
0
0
1.12342e-09
0
0
0
0
0
0
0
0
0
0
0
0
0
0
0
0
0
0
0
0
0
0
0
0
0
0
0
0
0
0
0
0
0
0
0
0
0
0
0
0
0
0
0
0
0
0
0
0
0
7.02759e-10
0
0
0
0
0
0
0
0
0
0
0
0
0
0
0
0
0
0
0
0
0
0
0
0
0
0
0
0
0
0
0
0
0
0
0
0
0
0
0
0
0
0
0
0
0
0
0
0
0
3.05823e-10
0
0
0
0
0
0
0
0
0
0
0
0
0
0
0
0
0
0
0
0
0
0
0
0
0
0
0
0
0
0
0
0
0
0
0
0
0
0
0
0
0
0
0
0
0
0
0
0
0
0
0
0
0
0
0
0
0
0
0
0
0
0
0
0
0
0
0
0
0
0
0
0
0
0
0
0
0
0
0
0
0
0
0
0
0
0
0
0
0
0
0
0
0
0
0
0
0
0
0
0
0
0
0
0
0
0
0
0
0
0
0
0
0
0
0
0
0
0
0
0
0
0
0
0
0
0
0
0
0
0
0
0
0
0
0
0
0
0
0
0
0
0
0
0
0
0
0
0
0
0
0
0
0
0
0
0
0
0
0
0
0
0
0
0
0
0
0
0
0
0
0
0
0
0
0
0
0
0
0
0
0
0
0
0
0
0
0
0
0
0
0
0
0
0
0
0
0
0
0
0
0
0
0
0
0
0
0
0
0
0
0
0
0
0
0
0
0
0
0
0
0
0
0
0
0
0
0
0
0
0
0
0
0
0
0
0
0
0
0
0
0
0
0
0
0
0
0
0
0
0
1.04993e-10
0
0
0
0
0
0
0
0
0
0
0
0
0
0
0
0
0
0
0
0
0
0
0
0
0
0
0
0
0
0
0
0
0
0
0
0
0
0
0
0
0
0
0
0
0
0
0
0
0
1.18425e-09
0
0
0
0
0
0
0
0
0
0
0
0
0
0
0
0
0
0
0
0
0
0
0
0
0
0
0
0
0
0
0
0
0
0
0
0
0
0
0
0
0
0
0
0
0
0
0
0
0
2.13973e-09
0
0
0
0
0
0
0
0
0
0
0
0
0
0
0
0
0
0
0
0
0
0
0
0
0
0
0
0
0
0
0
0
0
0
0
0
0
0
0
0
0
0
0
0
0
0
0
0
0
2.96971e-09
0
0
0
0
0
0
0
0
0
0
0
0
0
0
0
0
0
0
0
0
0
0
0
0
0
0
0
0
0
0
0
0
0
0
0
0
0
0
0
0
0
0
0
0
0
0
0
0
0
3.67553e-09
0
0
0
0
0
0
0
0
0
0
0
0
0
0
0
0
0
0
0
0
0
0
0
0
0
0
0
0
0
0
0
0
0
0
0
0
0
0
0
0
0
0
0
0
0
0
0
0
0
4.26184e-09
0
0
0
0
0
0
0
0
0
0
0
0
0
0
0
0
0
0
0
0
0
0
0
0
0
0
0
0
0
0
0
0
0
0
0
0
0
0
0
0
0
0
0
0
0
0
0
0
0
4.73581e-09
0
0
0
0
0
0
0
0
0
0
0
0
0
0
0
0
0
0
0
0
0
0
0
0
0
0
0
0
0
0
0
0
0
0
0
0
0
0
0
0
0
0
0
0
0
0
0
0
0
5.10539e-09
0
0
0
0
0
0
0
0
0
0
0
0
0
0
0
0
0
0
0
0
0
0
0
0
0
0
0
0
0
0
0
0
0
0
0
0
0
0
0
0
0
0
0
0
0
0
0
0
0
5.37911e-09
0
0
0
0
0
0
0
0
0
0
0
0
0
0
0
0
0
0
0
0
0
0
0
0
0
0
0
0
0
0
0
0
0
0
0
0
0
0
0
0
0
0
0
0
0
0
0
0
0
5.56673e-09
0
0
0
0
0
0
0
0
0
0
0
0
0
0
0
0
0
0
0
0
0
0
0
0
0
0
0
0
0
0
0
0
0
0
0
0
0
0
0
0
0
0
0
0
0
0
0
0
0
5.67915e-09
0
0
0
0
0
0
0
0
0
0
0
0
0
0
0
0
0
0
0
0
0
0
2.13933e-12
1.3589e-12
0
0
0
0
0
0
0
0
0
0
0
0
0
0
0
0
0
0
0
0
0
0
0
0
0
5.72735e-09
0
0
0
0
0
0
0
0
0
0
0
0
0
0
0
0
0
0
0
0
0
2.99198e-12
1.05237e-11
5.82672e-12
0
0
0
0
0
0
0
0
0
0
0
0
0
0
0
0
0
0
0
0
0
0
0
0
0
5.72149e-09
0
0
0
0
0
0
0
0
0
0
0
0
0
0
0
0
0
0
0
0
0
1.84838e-11
2.22814e-11
1.25272e-11
0
0
0
0
0
0
0
0
0
0
0
0
0
0
0
0
0
0
0
0
0
0
0
0
0
5.67054e-09
0
0
0
0
0
0
0
0
0
0
0
0
0
0
0
0
0
0
0
0
2.15324e-11
3.97319e-11
3.85465e-11
2.23838e-11
0
0
0
0
0
0
0
0
0
0
0
0
0
0
0
0
0
0
0
0
0
0
0
0
0
5.58218e-09
0
0
0
0
0
0
0
0
0
0
0
0
0
0
0
0
0
0
0
1.39843e-11
5.4553e-11
6.84252e-11
6.07731e-11
3.66167e-11
0
0
0
0
0
0
0
0
0
0
0
0
0
0
0
0
0
0
0
0
0
0
0
0
0
5.46289e-09
0
0
0
0
0
0
0
0
0
0
0
0
0
0
0
0
0
0
0
6.13024e-11
9.8723e-11
1.0668e-10
9.0815e-11
5.68204e-11
8.47797e-12
0
0
0
0
0
0
0
0
0
0
0
0
0
0
0
0
0
0
0
0
0
0
0
0
5.31811e-09
0
0
0
0
0
0
0
0
0
0
0
0
0
0
0
0
0
0
5.37156e-11
1.24262e-10
1.56952e-10
1.5713e-10
1.31023e-10
8.50591e-11
2.358e-11
0
0
0
0
0
0
0
0
0
0
0
0
0
0
0
0
0
0
0
0
0
0
0
0
5.15241e-09
0
0
0
0
0
0
0
0
0
0
0
0
0
0
0
0
0
1.91602e-11
1.37964e-10
2.06581e-10
2.32779e-10
2.23044e-10
1.84356e-10
1.23989e-10
4.69154e-11
0
0
0
0
0
0
0
0
0
0
0
0
0
0
0
0
0
0
0
0
0
0
0
0
4.96969e-09
0
0
0
0
0
0
0
0
0
0
0
0
0
0
0
0
0
1.23975e-10
2.46973e-10
3.12665e-10
3.30488e-10
3.08452e-10
2.54529e-10
1.77012e-10
8.15707e-11
0
0
0
0
0
0
0
0
0
0
0
0
0
0
0
0
0
0
0
0
0
0
0
0
4.77348e-09
2.17065e-10
0
0
0
0
0
0
0
0
0
0
0
0
0
0
0
5.38817e-11
2.58569e-10
3.8582e-10
4.47703e-10
4.5524e-10
4.18297e-10
3.46198e-10
2.48445e-10
1.31556e-10
0
0
0
0
0
0
0
0
0
0
0
0
0
0
0
0
0
0
0
0
0
0
0
0
4.56702e-09
6.94444e-10
0
0
0
0
0
0
0
0
0
0
0
0
0
0
0
2.12331e-10
4.28706e-10
5.60415e-10
6.17812e-10
6.13217e-10
5.58631e-10
4.65152e-10
3.43763e-10
2.02045e-10
4.31576e-11
0
0
0
0
0
0
0
0
0
0
0
0
0
0
0
0
0
0
0
0
0
0
0
4.35316e-09
1.10153e-09
0
0
0
0
0
0
0
0
0
0
0
0
0
0
1.02558e-10
4.12802e-10
6.40985e-10
7.77592e-10
8.30145e-10
8.11797e-10
7.36818e-10
6.18548e-10
4.69881e-10
2.99665e-10
1.11773e-10
0
0
0
0
0
0
0
0
0
0
0
0
0
0
0
0
0
0
0
0
0
0
0
4.1344e-09
1.44307e-09
0
0
0
0
0
0
0
0
0
0
0
0
0
0
3.38607e-10
6.62306e-10
9.02831e-10
1.0452e-09
1.09302e-09
1.05973e-09
9.61734e-10
8.15215e-10
6.35443e-10
4.32875e-10
2.12385e-10
0
0
0
0
0
0
0
0
0
0
0
0
0
0
0
0
0
0
0
0
0
0
0
3.91309e-09
1.724e-09
0
0
0
0
0
0
0
0
0
0
0
0
0
2.31209e-10
6.29064e-10
9.68203e-10
1.22249e-09
1.3721e-09
1.41609e-09
1.36728e-09
1.24404e-09
1.06599e-09
8.51205e-10
6.1244e-10
3.55756e-10
7.81868e-11
0
0
0
0
0
0
0
0
0
0
0
0
0
0
0
0
0
0
0
0
0
0
3.69143e-09
1.94944e-09
0
0
0
0
0
0
0
0
0
0
0
0
5.44807e-11
5.56743e-10
9.79656e-10
1.33799e-09
1.60876e-09
1.76821e-09
1.81035e-09
1.74637e-09
1.59647e-09
1.38399e-09
1.13054e-09
8.51923e-10
5.55699e-10
2.39196e-10
0
0
0
0
0
0
0
0
0
0
0
0
0
0
0
0
0
0
0
0
0
0
3.47146e-09
2.12451e-09
0
0
0
0
0
0
0
0
0
0
0
0
3.89408e-10
9.39438e-10
1.39551e-09
1.77897e-09
2.0708e-09
2.2443e-09
2.28807e-09
2.21076e-09
2.03398e-09
1.78502e-09
1.48992e-09
1.1683e-09
8.29908e-10
4.72794e-10
8.48894e-11
0
0
0
0
0
0
0
0
0
0
0
0
0
0
0
0
0
0
0
0
0
3.25489e-09
2.25423e-09
0
0
0
0
0
0
0
0
0
0
0
1.29432e-11
7.75739e-10
1.38171e-09
1.88074e-09
2.29777e-09
2.61773e-09
2.81166e-09
2.86267e-09
2.77595e-09
2.57386e-09
2.2879e-09
1.94935e-09
1.58269e-09
1.20079e-09
8.03068e-10
3.76811e-10
0
0
0
0
0
0
0
0
0
0
0
0
0
0
0
0
0
0
0
0
0
3.04317e-09
2.34345e-09
0
0
0
0
0
0
0
0
0
0
0
3.90707e-10
1.21419e-09
1.88444e-09
2.43789e-09
2.89972e-09
3.25788e-09
3.48157e-09
3.54828e-09
3.45886e-09
3.23569e-09
2.9145e-09
2.53272e-09
2.12092e-09
1.69635e-09
1.26084e-09
8.01837e-10
2.9399e-10
0
0
0
0
0
0
0
0
0
0
0
0
0
0
0
0
0
0
3.1022e-10
0
2.83748e-09
2.39682e-09
0
0
0
0
0
0
0
0
0
0
0
8.1632e-10
1.70333e-09
2.44646e-09
3.06725e-09
3.58792e-09
3.99782e-09
4.26422e-09
4.3588e-09
4.27717e-09
4.04079e-09
3.68951e-09
3.26779e-09
2.81385e-09
2.3509e-09
1.88492e-09
1.4046e-09
8.8416e-10
2.85196e-10
0
0
0
0
0
0
0
0
0
0
0
0
0
0
0
0
1.17932e-09
1.63404e-09
0
2.63874e-09
2.41878e-09
0
0
0
0
0
0
0
0
0
0
2.61108e-10
1.28457e-09
2.23882e-09
3.06367e-09
3.76587e-09
4.36195e-09
4.84072e-09
5.167e-09
5.30624e-09
5.24775e-09
5.01095e-09
4.63947e-09
4.18568e-09
3.69708e-09
3.20544e-09
2.72264e-09
2.24166e-09
1.73818e-09
1.17419e-09
4.97251e-10
0
0
0
0
0
0
0
0
0
0
0
0
0
1.71185e-09
2.6311e-09
2.50871e-09
1.98035e-09
0
2.44763e-09
2.41349e-09
1.33104e-10
0
0
0
0
0
0
0
0
0
7.1884e-10
1.78646e-09
2.81245e-09
3.72789e-09
4.52616e-09
5.21628e-09
5.78453e-09
6.19236e-09
6.39826e-09
6.3842e-09
6.166e-09
5.79062e-09
5.31872e-09
4.80971e-09
4.30598e-09
3.82986e-09
3.38125e-09
2.94302e-09
2.48331e-09
1.95711e-09
1.30456e-09
4.41703e-10
0
0
0
0
0
0
0
0
9.72316e-10
4.98144e-09
5.17439e-09
4.47625e-09
3.617e-09
2.69473e-09
1.82457e-09
0
2.26466e-09
2.38492e-09
4.16243e-10
0
0
0
0
0
0
0
0
1.76433e-10
1.19042e-09
2.30872e-09
3.41129e-09
4.42578e-09
5.33467e-09
6.13859e-09
6.8196e-09
7.33464e-09
7.6346e-09
7.69262e-09
7.51959e-09
7.16405e-09
6.69654e-09
6.18909e-09
5.7004e-09
5.26599e-09
4.90034e-09
4.60083e-09
4.35329e-09
4.14041e-09
3.94458e-09
3.75655e-09
3.58977e-09
3.51887e-09
3.81751e-09
5.58884e-09
1.47211e-08
6.38483e-08
5.57389e-08
2.43376e-08
1.40702e-08
9.41914e-09
6.73223e-09
4.85741e-09
3.46627e-09
2.32463e-09
1.44488e-09
0
2.09021e-09
2.33686e-09
6.44538e-10
0
0
0
0
0
0
0
0
5.98127e-10
1.65871e-09
2.83383e-09
4.01741e-09
5.13812e-09
6.17059e-09
7.10743e-09
7.92538e-09
8.57601e-09
9.00172e-09
9.16575e-09
9.07155e-09
8.76876e-09
8.33628e-09
7.86344e-09
7.42708e-09
7.08437e-09
6.87206e-09
6.81382e-09
6.93502e-09
7.27852e-09
7.93323e-09
9.09701e-09
1.12181e-08
1.54183e-08
2.49285e-08
5.03623e-08
1.10908e-07
1.00687e-07
4.57952e-08
2.33861e-08
1.397e-08
9.12664e-09
6.23326e-09
4.24894e-09
2.82247e-09
1.7224e-09
1.00379e-09
0
1.92452e-09
2.27276e-09
8.23062e-10
0
0
0
0
0
0
0
7.36777e-11
9.90841e-10
2.10408e-09
3.34038e-09
4.60758e-09
5.83881e-09
7.00433e-09
8.09006e-09
9.06726e-09
9.88156e-09
1.04666e-08
1.07739e-08
1.07985e-08
1.05876e-08
1.02306e-08
9.83329e-09
9.49759e-09
9.30873e-09
9.33538e-09
9.64629e-09
1.0331e-08
1.15395e-08
1.35589e-08
1.69709e-08
2.30239e-08
3.45447e-08
5.72127e-08
9.07952e-08
9.04647e-08
5.44682e-08
3.01516e-08
1.78957e-08
1.13884e-08
7.53631e-09
5.05103e-09
3.28713e-09
2.01229e-09
1.06813e-09
5.97533e-10
0
1.76772e-09
2.19577e-09
9.56917e-10
0
0
0
0
0
0
0
3.6582e-10
1.33755e-09
2.5052e-09
3.80364e-09
5.15351e-09
6.49485e-09
7.79702e-09
9.04121e-09
1.0194e-08
1.1195e-08
1.19691e-08
1.24556e-08
1.26387e-08
1.2563e-08
1.23241e-08
1.2048e-08
1.18642e-08
1.18909e-08
1.22413e-08
1.30406e-08
1.44627e-08
1.67975e-08
2.05577e-08
2.66698e-08
3.66974e-08
5.22334e-08
6.93768e-08
7.06278e-08
5.18534e-08
3.26948e-08
2.03965e-08
1.30993e-08
8.63672e-09
5.72462e-09
3.72931e-09
2.26777e-09
1.20669e-09
4.64196e-10
2.8256e-10
0
1.61986e-09
2.10879e-09
1.05122e-09
0
0
0
0
0
0
0
6.01461e-10
1.6215e-09
2.84016e-09
4.19676e-09
5.62313e-09
7.06761e-09
8.50133e-09
9.90354e-09
1.12368e-08
1.2436e-08
1.34171e-08
1.41078e-08
1.44809e-08
1.45744e-08
1.4491e-08
1.43729e-08
1.43757e-08
1.46553e-08
1.53675e-08
1.66901e-08
1.88664e-08
2.22573e-08
2.73824e-08
3.48312e-08
4.45172e-08
5.33866e-08
5.42657e-08
4.45706e-08
3.15548e-08
2.10998e-08
1.40054e-08
9.33813e-09
6.21777e-09
4.04327e-09
2.49273e-09
1.33325e-09
4.96751e-10
0
9.11938e-11
0
1.4809e-09
2.01442e-09
1.11104e-09
1.02316e-10
0
0
0
0
0
0
7.69857e-10
1.82734e-09
3.08795e-09
4.49286e-09
5.98297e-09
7.51508e-09
9.06447e-09
1.061e-08
1.21123e-08
1.35013e-08
1.46862e-08
1.55834e-08
1.61543e-08
1.64307e-08
1.65145e-08
1.65598e-08
1.6744e-08
1.72463e-08
1.82478e-08
1.99438e-08
2.25545e-08
2.63061e-08
3.12915e-08
3.70228e-08
4.16335e-08
4.19793e-08
3.66536e-08
2.82571e-08
2.02286e-08
1.40062e-08
9.56014e-09
6.43213e-09
4.21777e-09
2.60861e-09
1.43662e-09
5.52811e-10
0
0
4.12754e-11
0
1.35073e-09
1.915e-09
1.14131e-09
2.66584e-10
0
0
0
0
0
4.04479e-11
8.62426e-10
1.94242e-09
3.23045e-09
4.66745e-09
6.20111e-09
7.79614e-09
9.43268e-09
1.10908e-08
1.27293e-08
1.42747e-08
1.56295e-08
1.67018e-08
1.7443e-08
1.78754e-08
1.80963e-08
1.82604e-08
1.85498e-08
1.91471e-08
2.02206e-08
2.19119e-08
2.43008e-08
2.73077e-08
3.04841e-08
3.27737e-08
3.27067e-08
2.95194e-08
2.41239e-08
1.82868e-08
1.32217e-08
9.27808e-09
6.35068e-09
4.19991e-09
2.62487e-09
1.45457e-09
5.99518e-10
0
0
0
1.41375e-10
0
1.22916e-09
1.81258e-09
1.14678e-09
3.85046e-10
0
0
0
0
0
5.99146e-11
8.73738e-10
1.95808e-09
3.25422e-09
4.70126e-09
6.25132e-09
7.87559e-09
9.55885e-09
1.12824e-08
1.30032e-08
1.46439e-08
1.6102e-08
1.72799e-08
1.81211e-08
1.86378e-08
1.89157e-08
1.90978e-08
1.93522e-08
1.9838e-08
2.0674e-08
2.19031e-08
2.3436e-08
2.49677e-08
2.59178e-08
2.55601e-08
2.34644e-08
1.99243e-08
1.57899e-08
1.18658e-08
8.56908e-09
5.97373e-09
3.99889e-09
2.5118e-09
1.40744e-09
5.83918e-10
0
0
0
0
3.93908e-10
0
1.11599e-09
1.70901e-09
1.13191e-09
4.6372e-10
0
0
0
0
0
1.32187e-11
8.02267e-10
1.87084e-09
3.15237e-09
4.58295e-09
6.11693e-09
7.7301e-09
9.41067e-09
1.114e-08
1.28721e-08
1.45255e-08
1.59947e-08
1.71795e-08
1.80187e-08
1.85147e-08
1.87381e-08
1.88111e-08
1.88753e-08
1.90526e-08
1.94053e-08
1.98989e-08
2.03679e-08
2.05074e-08
1.99457e-08
1.84305e-08
1.60277e-08
1.31195e-08
1.01791e-08
7.54312e-09
5.35672e-09
3.62292e-09
2.28918e-09
1.27775e-09
5.31921e-10
0
0
0
0
0
7.96993e-10
0
1.01094e-09
1.60585e-09
1.10086e-09
5.086e-10
6.12935e-11
0
0
0
0
0
6.50894e-10
1.68307e-09
2.92578e-09
4.31129e-09
5.79432e-09
7.35342e-09
8.97808e-09
1.06481e-08
1.23139e-08
1.38899e-08
1.527e-08
1.63557e-08
1.70856e-08
1.74556e-08
1.75221e-08
1.73862e-08
1.71629e-08
1.69429e-08
1.67568e-08
1.65515e-08
1.61886e-08
1.54822e-08
1.42836e-08
1.25786e-08
1.05219e-08
8.36284e-09
6.33135e-09
4.56545e-09
3.11502e-09
1.96692e-09
1.08865e-09
4.32295e-10
0
0
0
0
0
0
1.34549e-09
0
9.13748e-10
1.50446e-09
1.0574e-09
5.25515e-10
1.12061e-10
0
0
0
0
0
4.26984e-10
1.40324e-09
2.58345e-09
3.89643e-09
5.29538e-09
6.75967e-09
8.27742e-09
9.82552e-09
1.13527e-08
1.27745e-08
1.39817e-08
1.48822e-08
1.54207e-08
1.55935e-08
1.545e-08
1.50755e-08
1.45654e-08
1.39946e-08
1.33912e-08
1.27245e-08
1.19192e-08
1.08951e-08
9.61926e-09
8.13934e-09
6.5715e-09
5.04992e-09
3.68058e-09
2.51865e-09
1.5798e-09
8.49636e-10
3.08521e-10
0
0
0
0
0
0
2.71794e-10
2.03181e-09
0
8.24091e-10
1.40597e-09
1.00495e-09
5.19998e-10
1.29883e-10
0
0
0
0
0
1.4203e-10
1.04569e-09
2.1428e-09
3.35886e-09
4.64578e-09
5.98105e-09
7.3515e-09
8.73081e-09
1.00659e-08
1.12753e-08
1.22588e-08
1.29279e-08
1.32423e-08
1.32026e-08
1.28558e-08
1.22815e-08
1.1565e-08
1.07752e-08
9.94858e-09
9.08482e-09
8.15825e-09
7.14459e-09
6.04804e-09
4.91025e-09
3.79745e-09
2.77448e-09
1.88801e-09
1.1585e-09
5.89457e-10
1.68862e-10
0
0
0
0
0
0
2.21265e-10
8.75977e-10
2.84667e-09
0
7.41644e-10
1.31133e-09
9.46493e-10
4.97195e-10
1.21425e-10
0
0
0
0
0
0
6.29437e-10
1.62784e-09
2.72855e-09
3.88272e-09
5.06581e-09
6.26294e-09
7.44582e-09
8.56169e-09
9.53464e-09
1.02785e-08
1.07153e-08
1.08183e-08
1.05984e-08
1.01038e-08
9.40795e-09
8.59277e-09
7.72644e-09
6.85222e-09
5.98777e-09
5.13292e-09
4.28397e-09
3.44811e-09
2.64731e-09
1.91238e-09
1.27088e-09
7.41627e-10
3.30527e-10
3.71977e-11
0
0
0
0
1.49291e-11
2.35506e-10
4.97922e-10
8.55049e-10
1.6187e-09
3.77963e-09
0
6.66065e-10
1.22126e-09
8.84641e-10
4.6179e-10
9.3031e-11
0
0
0
0
0
0
1.76569e-10
1.06673e-09
2.04149e-09
3.0515e-09
4.07166e-09
5.08556e-09
6.06505e-09
6.9603e-09
7.70387e-09
8.22486e-09
8.46224e-09
8.39883e-09
8.05664e-09
7.4851e-09
6.75397e-09
5.93882e-09
5.10609e-09
4.30242e-09
3.5516e-09
2.85993e-09
2.22697e-09
1.6537e-09
1.14561e-09
7.12247e-10
3.62161e-10
1.01413e-10
0
0
0
0
6.67078e-11
2.76353e-10
5.36394e-10
8.5107e-10
1.19695e-09
1.62976e-09
2.48871e-09
4.81966e-09
0
5.97002e-10
1.13635e-09
8.21628e-10
4.1793e-10
5.05602e-11
0
0
0
0
0
0
0
4.89449e-10
1.33564e-09
2.20001e-09
3.05837e-09
3.89418e-09
4.68122e-09
5.37499e-09
5.91828e-09
6.2552e-09
6.34261e-09
6.17047e-09
5.76888e-09
5.18719e-09
4.49026e-09
3.74721e-09
3.01947e-09
2.3511e-09
1.76513e-09
1.267e-09
8.5217e-10
5.14e-10
2.47656e-10
5.16317e-11
0
0
0
0
1.06505e-10
3.11161e-10
5.6853e-10
8.78354e-10
1.2275e-09
1.62067e-09
2.03645e-09
2.53289e-09
3.47437e-09
5.95558e-09
0
5.34096e-10
1.05705e-09
7.59318e-10
3.69215e-10
0
0
0
0
0
0
0
0
0
6.47649e-10
1.37374e-09
2.08127e-09
2.75569e-09
3.3739e-09
3.89815e-09
4.28182e-09
4.48251e-09
4.47221e-09
4.24699e-09
3.84065e-09
3.30084e-09
2.68656e-09
2.05966e-09
1.47466e-09
9.69959e-10
5.63927e-10
2.57704e-10
4.19311e-11
0
0
0
0
0
1.30835e-10
3.40318e-10
5.99242e-10
9.06994e-10
1.25669e-09
1.64864e-09
2.07124e-09
2.52915e-09
3.00265e-09
3.5517e-09
4.56366e-09
7.17602e-09
0
4.76989e-10
9.83658e-10
6.99225e-10
3.18707e-10
0
0
0
0
0
0
0
0
0
1.01046e-11
6.12026e-10
1.18702e-09
1.72364e-09
2.20342e-09
2.5955e-09
2.86292e-09
2.9743e-09
2.91284e-09
2.68075e-09
2.31107e-09
1.84885e-09
1.34679e-09
8.59106e-10
4.32503e-10
9.81923e-11
0
0
0
0
0
0
1.35785e-10
3.62043e-10
6.30933e-10
9.43186e-10
1.29533e-09
1.68601e-09
2.11048e-09
2.56914e-09
3.05148e-09
3.56188e-09
4.08208e-09
4.67367e-09
5.74483e-09
8.47002e-09
0
4.25329e-10
9.16398e-10
6.42561e-10
2.68958e-10
0
0
0
0
0
0
0
0
0
0
0
4.10888e-10
8.36974e-10
1.2103e-09
1.50672e-09
1.69758e-09
1.7602e-09
1.6856e-09
1.48101e-09
1.17673e-09
8.14348e-10
4.4042e-10
1.01559e-10
0
0
0
0
0
0
1.21745e-10
3.75893e-10
6.64901e-10
9.88498e-10
1.34693e-09
1.74171e-09
2.16985e-09
2.62721e-09
3.11137e-09
3.62322e-09
4.15309e-09
4.7049e-09
5.26176e-09
5.88664e-09
7.00647e-09
9.82712e-09
0
3.78769e-10
8.55387e-10
5.90298e-10
2.22052e-10
0
0
0
0
0
0
0
0
0
0
0
0
1.19146e-10
4.16591e-10
6.50178e-10
7.98073e-10
8.4425e-10
7.85171e-10
6.31723e-10
4.11447e-10
1.61694e-10
0
0
0
0
0
0
1.00579e-10
3.82325e-10
6.99784e-10
1.04613e-09
1.41898e-09
1.81956e-09
2.24944e-09
2.71082e-09
3.20096e-09
3.71257e-09
4.24309e-09
4.79606e-09
5.36235e-09
5.94541e-09
6.52962e-09
7.17916e-09
8.33769e-09
1.12372e-08
0
3.3698e-10
8.00692e-10
5.43196e-10
1.79696e-10
0
0
0
0
0
0
0
0
0
0
0
0
0
0
2.82398e-11
1.59995e-10
2.14279e-10
1.9148e-10
1.04859e-10
0
0
0
0
0
0
1.02984e-10
3.91694e-10
7.31837e-10
1.10726e-09
1.50707e-09
1.92668e-09
2.36583e-09
2.82746e-09
3.31444e-09
3.82954e-09
4.37011e-09
4.92602e-09
5.49126e-09
6.07433e-09
6.66679e-09
7.27158e-09
7.8743e-09
8.54026e-09
9.72802e-09
1.26907e-08
0
2.99654e-10
7.52344e-10
5.01857e-10
1.43291e-10
0
0
0
0
0
0
0
0
0
0
0
0
0
0
0
0
0
0
0
0
0
0
0
1.59585e-10
4.27183e-10
7.66627e-10
1.16057e-09
1.59121e-09
2.04385e-09
2.51007e-09
2.98787e-09
3.47935e-09
3.98928e-09
4.5218e-09
5.08013e-09
5.66158e-09
6.25372e-09
6.84349e-09
7.44636e-09
8.05517e-09
8.6725e-09
9.28525e-09
9.95981e-09
1.11677e-08
1.41786e-08
0
2.66512e-10
7.10368e-10
4.6679e-10
1.14041e-10
0
0
0
0
0
0
0
0
0
0
0
0
0
0
0
0
0
0
0
0
8.69027e-11
2.5585e-10
4.96821e-10
8.15523e-10
1.20594e-09
1.65305e-09
2.13847e-09
2.64583e-09
3.16216e-09
3.68187e-09
4.20574e-09
4.7383e-09
5.28616e-09
5.8547e-09
6.44753e-09
7.06179e-09
7.68361e-09
8.28904e-09
8.90192e-09
9.51752e-09
1.01384e-08
1.07527e-08
1.1428e-08
1.2647e-08
1.56913e-08
0
2.3731e-10
6.74818e-10
4.38465e-10
9.30551e-11
0
0
0
0
0
0
0
0
0
0
0
0
0
0
0
0
0
0
1.47708e-10
3.35225e-10
5.6989e-10
8.69242e-10
1.24207e-09
1.68608e-09
2.1889e-09
2.73201e-09
3.29687e-09
3.86925e-09
4.43803e-09
5.00062e-09
5.56068e-09
6.12515e-09
6.70243e-09
7.29909e-09
7.91905e-09
8.55923e-09
9.20481e-09
9.81956e-09
1.04322e-08
1.10449e-08
1.16601e-08
1.22672e-08
1.2935e-08
1.41559e-08
1.72192e-08
0
2.11851e-10
6.45804e-10
4.17397e-10
8.14822e-11
0
0
0
0
0
0
0
0
0
0
0
0
0
0
0
0
1.30555e-10
3.59464e-10
6.12237e-10
9.06013e-10
1.26001e-09
1.68578e-09
2.18426e-09
2.74534e-09
3.35076e-09
3.97923e-09
4.61286e-09
5.24016e-09
5.85189e-09
6.44853e-09
7.03656e-09
7.62531e-09
8.22488e-09
8.84295e-09
9.4837e-09
1.01438e-08
1.08078e-08
1.14282e-08
1.20301e-08
1.26297e-08
1.32292e-08
1.38198e-08
1.44713e-08
1.56842e-08
1.87515e-08
0
1.89997e-10
6.23523e-10
4.04219e-10
8.0658e-11
0
0
0
0
0
0
0
0
0
0
0
0
0
0
6.98161e-11
3.37833e-10
6.17559e-10
9.21974e-10
1.26714e-09
1.66641e-09
2.13706e-09
2.68466e-09
3.30227e-09
3.9722e-09
4.67088e-09
5.37488e-09
6.06769e-09
6.7411e-09
7.38767e-09
8.01088e-09
8.62e-09
9.22657e-09
9.8423e-09
1.04759e-08
1.11319e-08
1.18067e-08
1.24841e-08
1.31083e-08
1.36895e-08
1.42649e-08
1.4838e-08
1.54013e-08
1.60266e-08
1.72206e-08
2.0276e-08
0
1.71691e-10
6.08313e-10
3.99786e-10
9.22885e-11
0
0
0
0
0
0
0
0
0
0
0
0
3.3468e-11
3.21557e-10
6.21179e-10
9.36674e-10
1.27777e-09
1.65973e-09
2.09817e-09
2.60151e-09
3.18534e-09
3.84956e-09
4.57932e-09
5.34974e-09
6.13252e-09
6.90276e-09
7.64594e-09
8.35757e-09
9.03188e-09
9.67522e-09
1.02995e-08
1.09183e-08
1.1545e-08
1.21891e-08
1.28553e-08
1.354e-08
1.42263e-08
1.48536e-08
1.54047e-08
1.5944e-08
1.64781e-08
1.70019e-08
1.75891e-08
1.87514e-08
2.1777e-08
0
1.56977e-10
6.00732e-10
4.05311e-10
1.18679e-10
0
0
0
0
0
0
0
0
0
0
5.64719e-11
3.62091e-10
6.71702e-10
9.93483e-10
1.33311e-09
1.69836e-09
2.10254e-09
2.56315e-09
3.0949e-09
3.69997e-09
4.39257e-09
5.1674e-09
6.00183e-09
6.86417e-09
7.72202e-09
8.54963e-09
9.33489e-09
1.00775e-08
1.07731e-08
1.14309e-08
1.20652e-08
1.26914e-08
1.33243e-08
1.39743e-08
1.46463e-08
1.53365e-08
1.60273e-08
1.6658e-08
1.71707e-08
1.76603e-08
1.81409e-08
1.86102e-08
1.91448e-08
2.02596e-08
2.32339e-08
0
1.46035e-10
6.0165e-10
4.22538e-10
1.63045e-10
0
0
0
0
0
0
0
0
7.96422e-11
4.41151e-10
7.84375e-10
1.12097e-09
1.46346e-09
1.82127e-09
2.20256e-09
2.61871e-09
3.08672e-09
3.62618e-09
4.25038e-09
4.95386e-09
5.74955e-09
6.62784e-09
7.55852e-09
8.50366e-09
9.4274e-09
1.03037e-08
1.11231e-08
1.18898e-08
1.26011e-08
1.32683e-08
1.39079e-08
1.45373e-08
1.51722e-08
1.5824e-08
1.64977e-08
1.71892e-08
1.78806e-08
1.85137e-08
1.89845e-08
1.9407e-08
1.9816e-08
2.02117e-08
2.06747e-08
2.17216e-08
2.46179e-08
0
1.39237e-10
6.1236e-10
4.53986e-10
2.29922e-10
2.499e-11
0
0
0
0
0
4.96337e-11
4.74134e-10
8.93666e-10
1.28891e-09
1.66462e-09
2.03433e-09
2.41126e-09
2.80604e-09
3.22943e-09
3.69649e-09
4.22805e-09
4.84566e-09
5.56073e-09
6.35846e-09
7.24988e-09
8.2228e-09
9.23984e-09
1.02575e-08
1.12373e-08
1.21534e-08
1.29987e-08
1.37826e-08
1.45048e-08
1.51773e-08
1.58186e-08
1.64475e-08
1.70808e-08
1.77308e-08
1.84025e-08
1.90916e-08
1.97797e-08
2.04105e-08
2.08429e-08
2.11749e-08
2.14888e-08
2.17865e-08
2.2153e-08
2.31052e-08
2.58883e-08
0
1.37227e-10
6.34785e-10
5.03306e-10
3.25761e-10
1.95674e-10
7.79662e-11
0
0
1.29039e-10
4.73323e-10
9.2613e-10
1.40602e-09
1.86641e-09
2.29631e-09
2.70531e-09
3.1087e-09
3.52024e-09
3.95168e-09
4.41635e-09
4.93317e-09
5.52687e-09
6.22082e-09
7.02401e-09
7.91049e-09
8.88828e-09
9.94511e-09
1.10371e-08
1.2116e-08
1.31415e-08
1.40884e-08
1.49515e-08
1.57453e-08
1.64739e-08
1.71478e-08
1.77874e-08
1.84125e-08
1.90409e-08
1.96856e-08
2.03518e-08
2.1035e-08
2.17162e-08
2.23401e-08
2.27401e-08
2.29546e-08
2.31415e-08
2.33073e-08
2.35424e-08
2.43621e-08
2.69835e-08
0
1.41049e-10
6.71776e-10
5.7583e-10
4.59786e-10
4.27467e-10
4.43703e-10
5.01796e-10
6.59841e-10
9.77459e-10
1.44146e-09
1.97716e-09
2.51188e-09
3.01205e-09
3.47552e-09
3.91679e-09
4.35279e-09
4.79765e-09
5.26413e-09
5.76816e-09
6.33249e-09
6.98577e-09
7.753e-09
8.64009e-09
9.60822e-09
1.06605e-08
1.17881e-08
1.29414e-08
1.40686e-08
1.51284e-08
1.60968e-08
1.69698e-08
1.77656e-08
1.84957e-08
1.91674e-08
1.9802e-08
2.04203e-08
2.10407e-08
2.16769e-08
2.23343e-08
2.3008e-08
2.36784e-08
2.42901e-08
2.4664e-08
2.47309e-08
2.47482e-08
2.47356e-08
2.47913e-08
2.54262e-08
2.78195e-08
0
1.52379e-10
7.27588e-10
6.7941e-10
6.45318e-10
7.40485e-10
9.26065e-10
1.1792e-09
1.53225e-09
2.01797e-09
2.60664e-09
3.22395e-09
3.80983e-09
4.34623e-09
4.84031e-09
5.31117e-09
5.77717e-09
6.25261e-09
6.75118e-09
7.29133e-09
7.89961e-09
8.60857e-09
9.44459e-09
1.04099e-08
1.14511e-08
1.25629e-08
1.37448e-08
1.4943e-08
1.61031e-08
1.71841e-08
1.81636e-08
1.90386e-08
1.98271e-08
2.05525e-08
2.12183e-08
2.18449e-08
2.24536e-08
2.30632e-08
2.36879e-08
2.43332e-08
2.49938e-08
2.56486e-08
2.62391e-08
2.658e-08
2.6464e-08
2.62602e-08
2.60135e-08
2.58321e-08
2.62194e-08
2.83045e-08
0
1.73911e-10
8.08664e-10
8.25719e-10
9.01659e-10
1.1628e-09
1.56023e-09
2.04556e-09
2.61809e-09
3.28227e-09
3.99538e-09
4.6885e-09
5.31836e-09
5.88502e-09
6.40479e-09
6.9009e-09
7.39297e-09
7.89516e-09
8.42177e-09
8.99361e-09
9.64089e-09
1.03999e-08
1.12985e-08
1.23346e-08
1.34397e-08
1.45924e-08
1.58075e-08
1.7029e-08
1.82023e-08
1.92878e-08
2.02658e-08
2.11347e-08
2.19085e-08
2.26179e-08
2.32761e-08
2.38931e-08
2.44901e-08
2.50863e-08
2.56965e-08
2.63263e-08
2.69691e-08
2.76005e-08
2.81523e-08
2.84098e-08
2.80628e-08
2.7586e-08
2.70554e-08
2.65875e-08
2.66732e-08
2.8378e-08
0
2.09955e-10
9.24983e-10
1.03251e-09
1.25708e-09
1.73338e-09
2.3918e-09
3.14631e-09
3.9572e-09
4.8026e-09
5.63296e-09
6.39076e-09
7.05388e-09
7.64288e-09
8.18187e-09
8.69757e-09
9.21052e-09
9.73447e-09
1.02841e-08
1.08821e-08
1.15623e-08
1.23643e-08
1.33173e-08
1.44151e-08
1.55742e-08
1.67439e-08
1.79644e-08
1.91816e-08
2.03431e-08
2.14124e-08
2.23732e-08
2.32258e-08
2.39818e-08
2.46658e-08
2.53091e-08
2.5914e-08
2.64969e-08
2.70769e-08
2.76695e-08
2.82796e-08
2.88975e-08
2.94898e-08
2.99611e-08
2.99912e-08
2.93333e-08
2.85645e-08
2.77446e-08
2.69934e-08
2.67821e-08
2.81043e-08
0
2.67077e-10
1.09193e-09
1.32701e-09
1.75327e-09
2.50601e-09
3.47824e-09
4.5328e-09
5.5893e-09
6.60693e-09
7.53821e-09
8.34366e-09
9.02617e-09
9.62886e-09
1.01802e-08
1.07095e-08
1.12377e-08
1.17779e-08
1.23445e-08
1.29621e-08
1.36675e-08
1.45033e-08
1.55006e-08
1.66485e-08
1.78518e-08
1.90087e-08
2.01985e-08
2.13754e-08
2.24925e-08
2.35186e-08
2.44415e-08
2.52634e-08
2.5995e-08
2.66533e-08
2.72688e-08
2.78561e-08
2.84201e-08
2.89799e-08
2.95509e-08
3.01348e-08
3.0714e-08
3.12311e-08
3.15128e-08
3.1031e-08
3.00528e-08
2.90336e-08
2.8002e-08
2.70731e-08
2.6691e-08
2.77806e-08
0
3.54633e-10
1.33224e-09
1.74965e-09
2.44962e-09
3.55076e-09
4.88471e-09
6.25252e-09
7.54096e-09
8.70477e-09
9.70947e-09
1.05395e-08
1.12261e-08
1.18356e-08
1.23941e-08
1.29319e-08
1.34704e-08
1.40216e-08
1.45996e-08
1.52299e-08
1.59517e-08
1.68105e-08
1.78389e-08
1.90224e-08
2.02582e-08
2.13688e-08
2.24772e-08
2.35645e-08
2.45928e-08
2.55391e-08
2.63961e-08
2.71669e-08
2.78609e-08
2.84899e-08
2.90715e-08
2.96285e-08
3.01657e-08
3.07005e-08
3.12437e-08
3.17878e-08
3.22929e-08
3.2632e-08
3.23499e-08
3.12469e-08
3.00835e-08
2.89624e-08
2.79272e-08
2.70772e-08
2.68209e-08
2.80357e-08
0
4.8454e-10
1.67343e-09
2.34542e-09
3.40222e-09
4.91323e-09
6.6207e-09
8.26768e-09
9.73399e-09
1.0992e-08
1.20293e-08
1.28568e-08
1.35348e-08
1.41516e-08
1.47174e-08
1.52637e-08
1.58113e-08
1.6371e-08
1.69562e-08
1.7593e-08
1.83224e-08
1.91918e-08
2.02358e-08
2.14364e-08
2.26841e-08
2.37228e-08
2.46725e-08
2.55991e-08
2.64761e-08
2.72918e-08
2.80439e-08
2.87352e-08
2.93701e-08
2.99553e-08