/*--------------------------------*- C++ -*----------------------------------*\
  =========                 |
  \\      /  F ield         | OpenFOAM: The Open Source CFD Toolbox
   \\    /   O peration     | Website:  https://openfoam.org
    \\  /    A nd           | Version:  7
     \\/     M anipulation  |
\*---------------------------------------------------------------------------*/
FoamFile
{
    version     2.0;
    format      ascii;
    class       volScalarField;
    location    "0.11";
    object      p;
}
// * * * * * * * * * * * * * * * * * * * * * * * * * * * * * * * * * * * * * //

dimensions      [0 2 -2 0 0 0 0];

internalField   nonuniform List<scalar> 
70000
(
0.126948
0.0500705
0.0369487
0.0394342
0.0397378
0.0387433
0.0378451
0.0371843
0.0366518
0.0361977
0.0358082
0.0354754
0.035192
0.0349515
0.0347487
0.0345795
0.0344405
0.034329
0.0342426
0.0341797
0.0341388
0.0341186
0.0341182
0.0341368
0.0341737
0.0342284
0.0343005
0.0343897
0.0344958
0.0346187
0.0347582
0.0349144
0.0350872
0.0352766
0.0354829
0.0357059
0.035946
0.0362031
0.0364774
0.0367694
0.0370779
0.0374065
0.0377476
0.038117
0.0384841
0.0389072
0.0392755
0.039796
0.0400744
0.040825
0.122648
0.0504324
0.0371512
0.0395289
0.0397923
0.0387791
0.0378731
0.0372074
0.0366713
0.0362144
0.0358228
0.0354883
0.0352035
0.0349619
0.0347582
0.0345882
0.0344486
0.0343364
0.0342496
0.0341863
0.034145
0.0341244
0.0341237
0.034142
0.0341787
0.0342332
0.0343051
0.0343942
0.0345001
0.0346229
0.0347623
0.0349183
0.035091
0.0352804
0.0354866
0.0357095
0.0359496
0.0362067
0.036481
0.036773
0.0370814
0.03741
0.0377511
0.0381206
0.0384876
0.0389108
0.0392791
0.0397989
0.0400817
0.0408617
0.119042
0.0513546
0.0374957
0.0396574
0.0398669
0.0388241
0.0379054
0.0372337
0.0366932
0.0362329
0.0358388
0.0355024
0.035216
0.0349732
0.0347685
0.0345976
0.0344572
0.0343444
0.034257
0.0341932
0.0341515
0.0341306
0.0341296
0.0341475
0.0341839
0.0342382
0.0343099
0.0343988
0.0345046
0.0346272
0.0347665
0.0349223
0.035095
0.0352842
0.0354903
0.0357132
0.0359532
0.0362102
0.0364845
0.0367765
0.0370849
0.0374135
0.0377545
0.0381241
0.038491
0.0389143
0.0392826
0.0398015
0.0400997
0.0408925
0.115937
0.0524534
0.0379717
0.0398298
0.0399679
0.0388819
0.0379435
0.0372635
0.0367177
0.0362534
0.0358562
0.0355175
0.0352294
0.0349851
0.0347792
0.0346074
0.0344661
0.0343527
0.0342647
0.0342004
0.0341581
0.0341368
0.0341354
0.0341531
0.0341892
0.0342432
0.0343147
0.0344033
0.034509
0.0346313
0.0347705
0.0349262
0.0350987
0.0352878
0.0354939
0.0357166
0.0359566
0.0362135
0.0364877
0.0367796
0.037088
0.0374165
0.0377575
0.038127
0.038494
0.0389172
0.0392864
0.0398028
0.0401277
0.0409169
0.11298
0.0535467
0.0385447
0.0400476
0.0401022
0.03896
0.0379923
0.0373002
0.0367475
0.0362778
0.0358766
0.0355349
0.0352445
0.0349985
0.0347912
0.0346182
0.034476
0.0343616
0.0342729
0.034208
0.0341652
0.0341434
0.0341416
0.0341589
0.0341947
0.0342483
0.0343195
0.0344079
0.0345133
0.0346355
0.0347744
0.03493
0.0351023
0.0352912
0.0354971
0.0357197
0.0359595
0.0362163
0.0364904
0.0367822
0.0370905
0.037419
0.03776
0.0381293
0.0384965
0.0389192
0.0392905
0.0398029
0.0401628
0.0409419
0.110073
0.0545782
0.039168
0.0402914
0.0402637
0.03906
0.0380543
0.0373461
0.0367843
0.0363079
0.0359014
0.0355559
0.0352626
0.0350143
0.0348052
0.0346307
0.0344872
0.0343718
0.0342822
0.0342165
0.0341731
0.0341507
0.0341483
0.0341652
0.0342005
0.0342538
0.0343246
0.0344127
0.0345178
0.0346396
0.0347783
0.0349336
0.0351057
0.0352944
0.0355001
0.0357225
0.0359621
0.0362187
0.0364926
0.0367842
0.0370924
0.0374207
0.0377616
0.0381307
0.0384982
0.0389201
0.039295
0.0398021
0.0402019
0.040969
0.107207
0.0555309
0.0398082
0.0405403
0.0404395
0.0391772
0.0381286
0.037401
0.0368287
0.0363442
0.0359314
0.0355812
0.0352843
0.0350332
0.0348218
0.0346454
0.0345004
0.0343837
0.034293
0.0342263
0.034182
0.0341589
0.0341559
0.0341721
0.0342069
0.0342597
0.0343301
0.0344177
0.0345224
0.0346439
0.0347822
0.0349372
0.0351089
0.0352973
0.0355027
0.0357248
0.0359641
0.0362204
0.036494
0.0367854
0.0370933
0.0374214
0.0377621
0.038131
0.038499
0.0389196
0.0392994
0.0398009
0.0402421
0.040997
0.104392
0.0563981
0.0404493
0.0407823
0.0406184
0.039305
0.0382118
0.0374629
0.0368795
0.0363863
0.0359664
0.0356108
0.0353098
0.0350553
0.0348413
0.0346627
0.0345158
0.0343976
0.0343055
0.0342376
0.0341923
0.0341683
0.0341645
0.0341799
0.034214
0.0342662
0.034336
0.0344231
0.0345273
0.0346483
0.0347861
0.0349407
0.035112
0.0352999
0.0355049
0.0357266
0.0359655
0.0362214
0.0364946
0.0367856
0.0370931
0.0374208
0.0377614
0.0381297
0.0384984
0.0389174
0.0393035
0.0397992
0.0402803
0.0410241
0.101634
0.0571774
0.0410856
0.0410138
0.0407944
0.0394387
0.0383006
0.0375293
0.0369346
0.0364326
0.0360055
0.0356441
0.0353386
0.0350806
0.0348636
0.0346825
0.0345336
0.0344135
0.0343199
0.0342507
0.0342042
0.034179
0.0341742
0.0341888
0.0342221
0.0342735
0.0343426
0.0344291
0.0345326
0.034653
0.0347902
0.0349442
0.0351149
0.0353023
0.0355066
0.0357278
0.0359661
0.0362215
0.0364942
0.0367847
0.0370916
0.0374188
0.037759
0.0381267
0.0384962
0.0389133
0.0393067
0.0397973
0.040314
0.0410485
0.0989376
0.0578681
0.0417158
0.0412345
0.0409647
0.0395753
0.0383929
0.0375982
0.0369922
0.0364817
0.0360472
0.03568
0.03537
0.0351083
0.0348882
0.0347045
0.0345533
0.0344313
0.034336
0.0342653
0.0342174
0.0341911
0.0341852
0.0341988
0.0342311
0.0342817
0.0343499
0.0344355
0.0345383
0.034658
0.0347945
0.0349477
0.0351177
0.0353044
0.035508
0.0357285
0.035966
0.0362208
0.0364926
0.0367824
0.0370887
0.0374152
0.037755
0.0381217
0.0384921
0.0389071
0.0393084
0.0397949
0.040341
0.0410679
0.096305
0.0584703
0.042339
0.0414454
0.0411277
0.0397135
0.0384877
0.0376687
0.0370514
0.0365324
0.0360908
0.0357178
0.0354031
0.0351377
0.0349145
0.0347282
0.0345747
0.0344507
0.0343536
0.0342813
0.034232
0.0342044
0.0341973
0.0342097
0.034241
0.0342906
0.0343579
0.0344426
0.0345445
0.0346632
0.0347989
0.0349512
0.0351204
0.0353062
0.035509
0.0357286
0.0359652
0.036219
0.03649
0.0367789
0.0370842
0.0374098
0.0377491
0.0381146
0.0384861
0.0388988
0.0393081
0.0397917
0.0403599
0.0410801
0.0937394
0.0589845
0.0429534
0.0416478
0.0412825
0.0398523
0.0385847
0.0377401
0.0371113
0.0365842
0.0361354
0.0357566
0.0354374
0.0351683
0.034942
0.034753
0.0345972
0.0344712
0.0343723
0.0342983
0.0342476
0.0342186
0.0342102
0.0342215
0.0342516
0.0343001
0.0343664
0.0344501
0.034551
0.0346688
0.0348034
0.0349548
0.035123
0.0353078
0.0355095
0.0357281
0.0359637
0.0362164
0.0364862
0.036774
0.0370783
0.0374028
0.0377413
0.0381054
0.0384779
0.0388884
0.0393051
0.0397871
0.04037
0.0410834
0.0912437
0.0594114
0.0435569
0.0418429
0.0414286
0.0399908
0.0386836
0.0378124
0.0371717
0.0366367
0.0361809
0.0357962
0.0354725
0.0351996
0.0349702
0.0347786
0.0346204
0.0344924
0.0343917
0.0343161
0.0342638
0.0342334
0.0342237
0.0342338
0.0342628
0.0343102
0.0343753
0.034458
0.0345578
0.0346745
0.0348081
0.0349584
0.0351254
0.0353092
0.0355097
0.0357271
0.0359614
0.0362129
0.0364814
0.036768
0.037071
0.037394
0.0377317
0.0380942
0.0384676
0.0388759
0.0392992
0.0397806
0.0403711
0.0410766
0.0888204
0.0597519
0.0441468
0.0420324
0.0415655
0.0401283
0.0387845
0.0378855
0.0372325
0.0366897
0.0362269
0.0358364
0.035508
0.0352315
0.034999
0.0348047
0.0346442
0.0345141
0.0344116
0.0343343
0.0342805
0.0342487
0.0342377
0.0342465
0.0342743
0.0343205
0.0343845
0.034466
0.0345647
0.0346803
0.0348127
0.0349619
0.0351277
0.0353102
0.0355094
0.0357255
0.0359584
0.0362086
0.0364756
0.0367607
0.0370623
0.0373837
0.0377204
0.0380811
0.0384551
0.0388615
0.0392901
0.0397716
0.0403638
0.0410595
0.0864719
0.0600074
0.0447198
0.0422176
0.0416927
0.0402637
0.038887
0.0379594
0.0372936
0.0367431
0.0362734
0.0358771
0.0355441
0.0352638
0.0350281
0.0348312
0.0346684
0.0345362
0.0344318
0.0343529
0.0342975
0.0342643
0.034252
0.0342595
0.0342861
0.034331
0.0343939
0.0344742
0.0345717
0.0346861
0.0348173
0.0349652
0.0351297
0.0353109
0.0355087
0.0357234
0.0359548
0.0362034
0.0364689
0.0367523
0.0370523
0.037372
0.0377076
0.0380663
0.0384406
0.0388452
0.0392777
0.0397594
0.0403486
0.0410324
0.0842
0.0601797
0.0452729
0.0424001
0.0418102
0.0403962
0.038991
0.0380342
0.0373549
0.0367968
0.0363205
0.0359183
0.0355806
0.0352965
0.0350577
0.034858
0.0346928
0.0345586
0.0344523
0.0343717
0.0343148
0.0342801
0.0342664
0.0342726
0.0342979
0.0343416
0.0344032
0.0344824
0.0345786
0.0346918
0.0348217
0.0349683
0.0351315
0.0353112
0.0355076
0.0357207
0.0359506
0.0361975
0.0364613
0.0367429
0.0370413
0.037359
0.0376932
0.0380499
0.0384242
0.0388271
0.0392621
0.0397438
0.0403266
0.0409963
0.0820065
0.0602708
0.0458029
0.0425812
0.0419179
0.0405245
0.0390961
0.0381099
0.0374163
0.0368508
0.0363679
0.0359599
0.0356174
0.0353295
0.0350875
0.0348851
0.0347176
0.0345812
0.034473
0.0343907
0.0343322
0.034296
0.0342809
0.0342857
0.0343098
0.0343522
0.0344126
0.0344904
0.0345854
0.0346973
0.0348259
0.0349711
0.0351329
0.0353112
0.035506
0.0357175
0.0359457
0.0361909
0.0364528
0.0367326
0.0370291
0.0373448
0.0376775
0.038032
0.0384058
0.0388072
0.0392433
0.0397245
0.0402984
0.0409522
0.0798925
0.0602835
0.0463066
0.0427619
0.042016
0.0406478
0.0392021
0.0381864
0.0374778
0.036905
0.0364157
0.0360019
0.0356546
0.0353629
0.0351177
0.0349125
0.0347425
0.034604
0.0344939
0.0344098
0.0343497
0.034312
0.0342955
0.0342989
0.0343216
0.0343628
0.0344219
0.0344984
0.0345921
0.0347026
0.0348299
0.0349736
0.0351339
0.0353107
0.0355039
0.0357137
0.0359401
0.0361835
0.0364436
0.0367213
0.0370159
0.0373294
0.0376604
0.0380127
0.0383857
0.0387855
0.0392214
0.0397013
0.0402649
0.0409016
0.0778588
0.060221
0.046781
0.042943
0.0421049
0.0407651
0.0393083
0.0382638
0.0375393
0.0369592
0.0364639
0.0360442
0.0356922
0.0353966
0.0351481
0.0349402
0.0347677
0.034627
0.034515
0.0344291
0.0343673
0.0343281
0.0343101
0.0343122
0.0343335
0.0343733
0.034431
0.0345062
0.0345986
0.0347077
0.0348335
0.0349758
0.0351346
0.0353097
0.0355013
0.0357094
0.0359339
0.0361754
0.0364335
0.0367091
0.0370016
0.0373129
0.037642
0.0379921
0.0383638
0.0387619
0.0391966
0.0396742
0.0402267
0.0408453
0.0759056
0.0600869
0.0472232
0.043125
0.0421852
0.0408754
0.0394141
0.038342
0.0376008
0.0370134
0.0365122
0.0360869
0.03573
0.0354305
0.0351788
0.034968
0.0347932
0.0346503
0.0345362
0.0344485
0.0343851
0.0343443
0.0343247
0.0343254
0.0343453
0.0343837
0.03444
0.0345139
0.0346048
0.0347125
0.0348368
0.0349776
0.0351348
0.0353083
0.0354981
0.0357044
0.035927
0.0361664
0.0364225
0.0366959
0.0369863
0.0372952
0.0376223
0.03797
0.03834
0.0387363
0.0391688
0.0396432
0.0401841
0.0407845
0.074033
0.0598855
0.0476304
0.0433078
0.0422576
0.040978
0.0395191
0.0384209
0.0376622
0.0370673
0.0365607
0.0361298
0.0357681
0.0354647
0.0352097
0.0349961
0.0348188
0.0346736
0.0345576
0.034468
0.0344029
0.0343604
0.0343394
0.0343385
0.034357
0.034394
0.0344489
0.0345213
0.0346108
0.034717
0.0348398
0.034979
0.0351345
0.0353063
0.0354943
0.0356987
0.0359193
0.0361567
0.0364105
0.0366816
0.0369698
0.0372762
0.0376011
0.0379464
0.0383144
0.0387085
0.039138
0.0396083
0.0401374
0.0407196
0.0722404
0.0596212
0.0479998
0.0434912
0.0423228
0.0410721
0.0396223
0.0385005
0.0377236
0.037121
0.0366092
0.036173
0.0358064
0.035499
0.0352408
0.0350244
0.0348445
0.0346971
0.034579
0.0344876
0.0344207
0.0343766
0.034354
0.0343516
0.0343686
0.0344041
0.0344576
0.0345285
0.0346165
0.0347212
0.0348424
0.03498
0.0351338
0.0353037
0.0354899
0.0356923
0.0359109
0.036146
0.0363976
0.0366663
0.0369521
0.037256
0.0375784
0.0379212
0.0382868
0.0386784
0.0391043
0.0395695
0.0400869
0.0406513
0.0705269
0.0592989
0.0483293
0.0436745
0.0423818
0.0411573
0.039723
0.0385805
0.0377849
0.0371743
0.0366576
0.0362162
0.0358449
0.0355336
0.0352721
0.0350528
0.0348704
0.0347208
0.0346006
0.0345072
0.0344386
0.0343928
0.0343685
0.0343646
0.0343801
0.0344141
0.0344661
0.0345355
0.0346219
0.034725
0.0348446
0.0349804
0.0351324
0.0353006
0.0354847
0.0356851
0.0359015
0.0361344
0.0363837
0.0366499
0.0369332
0.0372344
0.0375542
0.0378942
0.0382571
0.0386458
0.0390676
0.0395269
0.0400326
0.0405798
0.0688913
0.058924
0.0486167
0.0438565
0.0424357
0.0412333
0.0398203
0.0386607
0.0378461
0.0372271
0.0367057
0.0362596
0.0358835
0.0355682
0.0353035
0.0350814
0.0348964
0.0347445
0.0346222
0.0345269
0.0344564
0.0344089
0.034383
0.0343775
0.0343914
0.0344239
0.0344743
0.0345421
0.0346269
0.0347284
0.0348463
0.0349804
0.0351305
0.0352967
0.0354789
0.0356771
0.0358913
0.0361218
0.0363686
0.0366322
0.0369129
0.0372113
0.0375283
0.0378654
0.0382253
0.0386106
0.0390277
0.0394804
0.0399746
0.0405052
0.0673318
0.0585017
0.0488603
0.0440357
0.0424854
0.0412999
0.0399133
0.0387407
0.0379072
0.0372793
0.0367536
0.0363029
0.0359222
0.0356029
0.0353349
0.03511
0.0349225
0.0347682
0.0346438
0.0345466
0.0344742
0.034425
0.0343974
0.0343903
0.0344026
0.0344334
0.0344822
0.0345484
0.0346316
0.0347314
0.0348475
0.0349797
0.035128
0.0352921
0.0354722
0.0356682
0.0358801
0.0361081
0.0363524
0.0366133
0.0368911
0.0371866
0.0375007
0.0378347
0.0381911
0.0385727
0.0389846
0.0394302
0.039913
0.0404277
0.0658466
0.0580378
0.049059
0.0442103
0.0425319
0.0413572
0.0400012
0.03882
0.0379681
0.0373309
0.0368009
0.036346
0.0359608
0.0356377
0.0353664
0.0351386
0.0349486
0.034792
0.0346654
0.0345662
0.034492
0.034441
0.0344117
0.0344029
0.0344135
0.0344427
0.0344899
0.0345544
0.0346358
0.0347338
0.0348481
0.0349784
0.0351247
0.0352868
0.0354646
0.0356583
0.0358678
0.0360933
0.0363349
0.0365929
0.0368679
0.0371603
0.0374711
0.0378018
0.0381546
0.0385319
0.0389382
0.0393763
0.0398477
0.0403473
0.0644333
0.0575379
0.0492118
0.0443781
0.042576
0.0414055
0.040083
0.0388983
0.0380288
0.0373817
0.0368476
0.0363889
0.0359994
0.0356724
0.0353978
0.0351672
0.0349746
0.0348157
0.034687
0.0345858
0.0345097
0.0344569
0.0344258
0.0344153
0.0344242
0.0344517
0.0344972
0.0345599
0.0346396
0.0347358
0.0348481
0.0349765
0.0351207
0.0352806
0.0354562
0.0356474
0.0358544
0.0360772
0.036316
0.0365711
0.036843
0.0371321
0.0374396
0.0377666
0.0381154
0.0384882
0.0388885
0.0393185
0.0397787
0.0402638
0.0630895
0.0570076
0.0493186
0.0445366
0.0426186
0.0414452
0.0401581
0.0389748
0.0380891
0.0374318
0.0368936
0.0364314
0.0360379
0.035707
0.0354291
0.0351958
0.0350006
0.0348394
0.0347085
0.0346052
0.0345272
0.0344726
0.0344397
0.0344274
0.0344346
0.0344604
0.034504
0.034565
0.0346429
0.0347371
0.0348475
0.0349738
0.0351159
0.0352735
0.0354467
0.0356355
0.0358398
0.0360598
0.0362957
0.0365478
0.0368164
0.0371021
0.037406
0.0377291
0.0380736
0.0384414
0.0388352
0.0392569
0.039706
0.0401773
0.0618125
0.0564526
0.0493795
0.0446832
0.0426601
0.041477
0.0402257
0.039049
0.038149
0.037481
0.0369386
0.0364734
0.0360761
0.0357414
0.0354603
0.0352242
0.0350265
0.0348629
0.0347299
0.0346246
0.0345446
0.034488
0.0344534
0.0344392
0.0344446
0.0344686
0.0345105
0.0345696
0.0346455
0.0347378
0.0348462
0.0349704
0.0351102
0.0352655
0.0354362
0.0356224
0.035824
0.0360411
0.0362739
0.0365227
0.0367879
0.0370701
0.0373701
0.0376891
0.0380289
0.0383913
0.0387784
0.0391915
0.0396295
0.0400875
0.0605995
0.0558782
0.0493954
0.0448154
0.0427007
0.0415014
0.0402854
0.0391201
0.0382082
0.0375293
0.0369826
0.0365147
0.0361139
0.0357756
0.0354913
0.0352524
0.0350523
0.0348863
0.0347511
0.0346437
0.0345617
0.0345033
0.0344667
0.0344508
0.0344543
0.0344765
0.0345164
0.0345737
0.0346476
0.0347379
0.0348441
0.0349661
0.0351036
0.0352564
0.0354246
0.035608
0.0358068
0.0360209
0.0362505
0.0364959
0.0367575
0.0370359
0.0373319
0.0376465
0.0379813
0.0383379
0.0387179
0.0391221
0.0395491
0.0399944
0.0594473
0.0552894
0.0493675
0.0449307
0.0427403
0.0415194
0.0403368
0.0391873
0.0382663
0.0375767
0.0370255
0.0365552
0.0361513
0.0358094
0.035522
0.0352804
0.0350778
0.0349095
0.0347721
0.0346626
0.0345786
0.0345182
0.0344798
0.0344619
0.0344636
0.0344838
0.0345219
0.0345771
0.034649
0.0347372
0.0348412
0.0349609
0.035096
0.0352463
0.0354118
0.0355924
0.0357881
0.0359991
0.0362254
0.0364672
0.0367251
0.0369995
0.0372911
0.037601
0.0379305
0.038281
0.0386536
0.0390487
0.0394649
0.0398976
0.058353
0.0546907
0.0492978
0.045027
0.0427784
0.0415316
0.0403798
0.03925
0.0383231
0.0376231
0.0370671
0.0365946
0.036188
0.0358429
0.0355523
0.035308
0.035103
0.0349324
0.0347928
0.0346812
0.0345952
0.0345328
0.0344924
0.0344726
0.0344723
0.0344906
0.0345267
0.0345799
0.0346497
0.0347357
0.0348374
0.0349547
0.0350873
0.035235
0.0353977
0.0355753
0.035768
0.0359756
0.0361984
0.0364366
0.0366905
0.0369607
0.0372478
0.0375527
0.0378765
0.0382205
0.0385854
0.0389713
0.0393765
0.0397971
0.0573135
0.0540862
0.0491884
0.0451023
0.0428141
0.0415388
0.0404142
0.0393074
0.0383781
0.0376683
0.0371073
0.0366329
0.036224
0.0358758
0.0355822
0.0353352
0.0351278
0.034955
0.0348131
0.0346994
0.0346114
0.034547
0.0345046
0.0344829
0.0344806
0.0344969
0.0345309
0.034582
0.0346496
0.0347333
0.0348327
0.0349475
0.0350774
0.0352224
0.0353822
0.0355568
0.0357462
0.0359504
0.0361695
0.0364038
0.0366536
0.0369193
0.0372016
0.0375013
0.0378192
0.0381563
0.0385132
0.0388897
0.039284
0.0396927
0.0563257
0.0534799
0.0490421
0.0451551
0.0428463
0.0415416
0.0404404
0.0393588
0.0384307
0.0377123
0.0371462
0.0366699
0.036259
0.035908
0.0356116
0.0353619
0.0351521
0.0349771
0.0348331
0.0347172
0.0346271
0.0345607
0.0345163
0.0344925
0.0344882
0.0345024
0.0345343
0.0345833
0.0346486
0.03473
0.0348269
0.0349391
0.0350664
0.0352085
0.0353652
0.0355367
0.0357227
0.0359233
0.0361386
0.0363689
0.0366143
0.0368753
0.0371526
0.0374466
0.0377583
0.0380883
0.0384369
0.0388038
0.0391872
0.0395841
0.0553865
0.0528748
0.0488619
0.0451843
0.0428736
0.0415404
0.0404587
0.0394038
0.0384804
0.0377548
0.0371834
0.0367054
0.036293
0.0359395
0.0356403
0.0353881
0.035176
0.0349987
0.0348525
0.0347346
0.0346424
0.0345739
0.0345275
0.0345016
0.0344952
0.0345073
0.034537
0.0345837
0.0346467
0.0347256
0.03482
0.0349296
0.035054
0.0351931
0.0353468
0.0355148
0.0356973
0.0358942
0.0361055
0.0363315
0.0365724
0.0368286
0.0371004
0.0373886
0.0376937
0.0380163
0.0383564
0.0387135
0.0390859
0.039471
0.054493
0.0522737
0.048651
0.0451889
0.0428945
0.0415356
0.0404693
0.0394418
0.0385266
0.0377957
0.0372191
0.0367393
0.0363257
0.0359701
0.0356682
0.0354136
0.0351992
0.0350197
0.0348714
0.0347513
0.0346571
0.0345865
0.034538
0.03451
0.0345015
0.0345114
0.0345389
0.0345832
0.0346438
0.0347202
0.0348119
0.0349187
0.0350402
0.0351763
0.0353266
0.0354913
0.03567
0.035863
0.0360702
0.0362917
0.0365279
0.0367789
0.0370451
0.0373272
0.0376254
0.0379402
0.0382714
0.0386186
0.03898
0.0393533
0.0536423
0.051679
0.0484129
0.0451686
0.0429074
0.0415272
0.0404728
0.0394725
0.0385688
0.0378345
0.0372531
0.0367714
0.0363569
0.0359996
0.0356953
0.0354383
0.0352217
0.0350401
0.0348897
0.0347675
0.0346711
0.0345984
0.0345478
0.0345177
0.034507
0.0345146
0.0345398
0.0345817
0.0346398
0.0347136
0.0348026
0.0349065
0.035025
0.0351578
0.0353048
0.0354658
0.0356407
0.0358296
0.0360325
0.0362493
0.0364805
0.0367261
0.0369865
0.037262
0.0375531
0.0378598
0.038182
0.038519
0.0388693
0.0392308
0.0528317
0.0510926
0.0481508
0.0451235
0.0429108
0.0415152
0.0404696
0.0394958
0.0386062
0.0378709
0.0372851
0.0368017
0.0363865
0.0360278
0.0357215
0.0354621
0.0352433
0.0350597
0.0349072
0.0347829
0.0346844
0.0346096
0.0345568
0.0345245
0.0345116
0.0345169
0.0345397
0.0345791
0.0346347
0.0347057
0.0347919
0.0348928
0.0350081
0.0351376
0.035281
0.0354383
0.0356092
0.0357939
0.0359922
0.0362042
0.0364301
0.0366701
0.0369243
0.0371931
0.0374767
0.037775
0.0380879
0.0384145
0.0387536
0.0391032
0.0520585
0.050516
0.0478681
0.0450539
0.0429031
0.0414991
0.0404603
0.0395116
0.0386385
0.0379046
0.0373152
0.03683
0.0364144
0.0360546
0.0357464
0.0354849
0.035264
0.0350783
0.0349238
0.0347974
0.0346968
0.0346199
0.0345649
0.0345304
0.0345152
0.0345181
0.0345385
0.0345754
0.0346282
0.0346965
0.0347797
0.0348775
0.0349896
0.0351156
0.0352553
0.0354087
0.0355755
0.0357557
0.0359493
0.0361562
0.0363766
0.0366107
0.0368585
0.0371203
0.037396
0.0376857
0.037989
0.0383051
0.0386327
0.0389702
0.0513202
0.0499503
0.0475679
0.0449608
0.0428831
0.0414785
0.0404451
0.0395199
0.0386651
0.037935
0.037343
0.0368561
0.0364402
0.0360799
0.0357701
0.0355066
0.0352837
0.035096
0.0349395
0.0348111
0.0347084
0.0346293
0.0345721
0.0345353
0.0345177
0.0345183
0.0345361
0.0345703
0.0346204
0.0346858
0.034766
0.0348606
0.0349692
0.0350916
0.0352275
0.0353768
0.0355393
0.0357149
0.0359035
0.0361052
0.0363199
0.0365478
0.0367889
0.0370433
0.037311
0.0375918
0.0378852
0.0381905
0.0385065
0.0388317
0.0506146
0.0493963
0.0472533
0.0448451
0.0428497
0.0414526
0.0404244
0.0395209
0.0386855
0.0379617
0.0373684
0.0368799
0.0364639
0.0361033
0.0357923
0.035527
0.0353022
0.0351126
0.0349542
0.0348237
0.0347189
0.0346376
0.0345782
0.0345391
0.0345192
0.0345172
0.0345324
0.034564
0.0346112
0.0346736
0.0347506
0.0348419
0.034947
0.0350656
0.0351976
0.0353426
0.0355006
0.0356714
0.0358549
0.036051
0.0362598
0.0364812
0.0367154
0.0369621
0.0372214
0.037493
0.0377763
0.0380706
0.0383747
0.0386874
0.0499396
0.0488547
0.046927
0.0447082
0.0428022
0.0414206
0.0403984
0.0395148
0.0386996
0.0379842
0.0373909
0.0369014
0.0364853
0.0361247
0.0358129
0.035546
0.0353194
0.035128
0.0349676
0.0348352
0.0347283
0.0346448
0.0345832
0.0345417
0.0345193
0.0345148
0.0345274
0.0345561
0.0346004
0.0346597
0.0347335
0.0348212
0.0349227
0.0350374
0.0351653
0.0353059
0.0354592
0.035625
0.0358031
0.0359935
0.0361961
0.0364109
0.0366377
0.0368765
0.0371272
0.0373893
0.0376622
0.0379452
0.0382373
0.0385372
0.049293
0.0483258
0.0465915
0.0445518
0.04274
0.0413819
0.0403671
0.0395018
0.038707
0.0380021
0.0374105
0.0369202
0.0365043
0.036144
0.0358316
0.0355634
0.0353351
0.035142
0.0349798
0.0348454
0.0347364
0.0346508
0.0345868
0.034543
0.0345181
0.034511
0.0345208
0.0345467
0.034588
0.0346441
0.0347144
0.0347986
0.0348963
0.035007
0.0351305
0.0352666
0.035415
0.0355756
0.0357482
0.0359326
0.0361287
0.0363365
0.0365558
0.0367864
0.0370281
0.0372804
0.0375427
0.0378143
0.038094
0.0383808
0.048673
0.0478097
0.0462489
0.0443773
0.0426629
0.0413354
0.0403303
0.0394822
0.0387077
0.0380149
0.0374265
0.0369363
0.0365207
0.0361609
0.0358483
0.0355791
0.0353493
0.0351545
0.0349905
0.0348542
0.0347432
0.0346554
0.0345891
0.0345429
0.0345155
0.0345057
0.0345127
0.0345356
0.0345737
0.0346265
0.0346934
0.0347739
0.0348676
0.0349741
0.0350932
0.0352245
0.0353679
0.0355231
0.0356898
0.035868
0.0360575
0.0362581
0.0364695
0.0366917
0.0369241
0.0371663
0.0374178
0.0376775
0.0379447
0.0382181
0.0480779
0.0473065
0.0459014
0.0441867
0.0425709
0.0412804
0.0402879
0.0394561
0.0387015
0.0380223
0.0374388
0.0369494
0.0365343
0.0361753
0.0358628
0.0355928
0.0353617
0.0351654
0.0349997
0.0348616
0.0347485
0.0346585
0.0345899
0.0345413
0.0345112
0.0344987
0.0345028
0.0345227
0.0345576
0.034607
0.0346702
0.0347469
0.0348365
0.0349387
0.0350532
0.0351796
0.0353177
0.0354672
0.035628
0.0357997
0.0359823
0.0361754
0.0363787
0.0365921
0.036815
0.0370469
0.0372872
0.0375349
0.0377892
0.038049
0.047506
0.046816
0.0455505
0.0439815
0.0424643
0.0412164
0.0402395
0.0394237
0.0386885
0.0380239
0.0374469
0.0369592
0.036545
0.0361869
0.0358749
0.0356044
0.0353722
0.0351744
0.0350071
0.0348672
0.0347521
0.03466
0.0345891
0.034538
0.0345053
0.03449
0.0344911
0.0345079
0.0345395
0.0345853
0.0346448
0.0347175
0.0348029
0.0349006
0.0350103
0.0351316
0.0352643
0.035408
0.0355625
0.0357276
0.0359029
0.0360882
0.0362832
0.0364875
0.0367006
0.036922
0.0371508
0.0373862
0.0376274
0.0378732
0.0469559
0.0463381
0.0451977
0.0437636
0.0423435
0.0411427
0.0401849
0.0393851
0.0386688
0.0380196
0.0374504
0.0369655
0.0365526
0.0361957
0.0358843
0.0356137
0.0353807
0.0351815
0.0350127
0.034871
0.034754
0.0346597
0.0345865
0.0345328
0.0344975
0.0344794
0.0344775
0.034491
0.0345191
0.0345613
0.034617
0.0346855
0.0347666
0.0348596
0.0349644
0.0350804
0.0352074
0.0353451
0.0354932
0.0356513
0.0358192
0.0359966
0.0361829
0.0363779
0.0365809
0.0367914
0.0370085
0.0372315
0.0374593
0.0376908
0.0464261
0.0458725
0.0448443
0.0435346
0.0422093
0.041059
0.0401236
0.0393403
0.0386424
0.038009
0.0374491
0.036968
0.0365569
0.0362013
0.035891
0.0356205
0.0353868
0.0351865
0.0350163
0.0348729
0.034754
0.0346576
0.034582
0.0345258
0.0344877
0.0344667
0.0344617
0.0344719
0.0344965
0.034535
0.0345866
0.034651
0.0347275
0.0348157
0.0349153
0.0350259
0.0351471
0.0352786
0.03542
0.0355709
0.0357312
0.0359002
0.0360777
0.0362631
0.0364558
0.0366551
0.0368603
0.0370705
0.0372846
0.0375017
0.0459155
0.0454188
0.0444914
0.0432961
0.0420622
0.040965
0.0400552
0.0392893
0.0386094
0.0379921
0.0374425
0.0369664
0.0365576
0.0362037
0.0358946
0.0356246
0.0353905
0.0351892
0.0350176
0.0348727
0.0347519
0.0346533
0.0345754
0.0345167
0.0344759
0.0344519
0.0344437
0.0344505
0.0344715
0.0345061
0.0345536
0.0346136
0.0346854
0.0347687
0.034863
0.034968
0.0350831
0.0352081
0.0353426
0.0354862
0.0356385
0.035799
0.0359674
0.0361429
0.036325
0.036513
0.0367061
0.0369032
0.0371035
0.0373057
0.0454227
0.0449767
0.0441398
0.0430494
0.0419033
0.0408608
0.0399794
0.0392319
0.0385698
0.0379688
0.0374304
0.0369603
0.0365545
0.0362027
0.035895
0.0356257
0.0353915
0.0351894
0.0350166
0.0348701
0.0347475
0.0346469
0.0345667
0.0345053
0.0344617
0.0344347
0.0344233
0.0344266
0.0344439
0.0344745
0.0345178
0.0345733
0.0346403
0.0347185
0.0348073
0.0349064
0.0350153
0.0351337
0.0352611
0.035397
0.0355411
0.0356929
0.0358519
0.0360173
0.0361886
0.0363651
0.0365457
0.0367296
0.0369158
0.037103
0.0449467
0.0445459
0.0437901
0.0427959
0.0417335
0.0407464
0.0398958
0.0391681
0.0385237
0.037939
0.0374127
0.0369495
0.0365475
0.036198
0.0358921
0.0356238
0.0353896
0.035187
0.035013
0.0348651
0.0347408
0.0346381
0.0345555
0.0344916
0.0344452
0.034415
0.0344003
0.0344001
0.0344136
0.0344401
0.0344791
0.0345298
0.0345919
0.0346648
0.034748
0.0348411
0.0349436
0.0350551
0.0351751
0.0353032
0.035439
0.0355818
0.0357311
0.0358862
0.0360465
0.0362111
0.0363792
0.0365496
0.0367215
0.0368936
0.0444864
0.0441259
0.0434431
0.0425369
0.0415536
0.040622
0.0398044
0.0390976
0.038471
0.0379027
0.037389
0.0369337
0.0365361
0.0361895
0.0358855
0.0356184
0.0353847
0.0351816
0.0350067
0.0348574
0.0347314
0.0346267
0.0345418
0.0344753
0.034426
0.0343928
0.0343747
0.0343708
0.0343804
0.0344027
0.0344372
0.0344832
0.0345401
0.0346076
0.034685
0.0347718
0.0348677
0.0349721
0.0350846
0.0352047
0.0353318
0.0354654
0.0356049
0.0357495
0.0358985
0.0360512
0.0362064
0.0363633
0.0365207
0.0366774
0.0440409
0.0437164
0.0430992
0.0422733
0.0413646
0.0404879
0.0397048
0.0390204
0.0384119
0.0378598
0.0373592
0.0369127
0.0365203
0.0361768
0.0358752
0.0356096
0.0353764
0.0351732
0.0349975
0.034847
0.0347193
0.0346126
0.0345254
0.0344563
0.0344041
0.0343677
0.0343461
0.0343385
0.0343441
0.0343622
0.034392
0.0344331
0.0344848
0.0345466
0.034618
0.0346985
0.0347876
0.0348848
0.0349896
0.0351014
0.0352197
0.0353438
0.0354732
0.0356071
0.0357447
0.0358852
0.0360275
0.0361706
0.0363134
0.0364546
0.0436092
0.0433169
0.0427587
0.0420061
0.0411674
0.0403446
0.0395972
0.0389363
0.0383463
0.0378105
0.0373233
0.0368861
0.0364996
0.0361599
0.0358608
0.0355969
0.0353647
0.0351615
0.0349852
0.0348334
0.0347042
0.0345956
0.0345062
0.0344344
0.0343793
0.0343397
0.0343146
0.0343032
0.0343047
0.0343183
0.0343435
0.0343795
0.0344258
0.0344818
0.0345471
0.0346211
0.0347032
0.0347929
0.0348897
0.0349931
0.0351023
0.0352169
0.035336
0.035459
0.035585
0.0357131
0.0358423
0.0359716
0.0360997
0.0362254
0.0431906
0.042927
0.042422
0.0417362
0.040963
0.0401926
0.0394814
0.0388451
0.038274
0.0377546
0.037281
0.0368539
0.036474
0.0361385
0.0358423
0.0355804
0.0353492
0.0351463
0.0349695
0.0348167
0.034686
0.0345756
0.0344838
0.0344095
0.0343514
0.0343085
0.0342799
0.0342646
0.0342619
0.034271
0.0342913
0.0343221
0.0343629
0.0344131
0.034472
0.0345392
0.0346142
0.0346963
0.034785
0.0348797
0.0349797
0.0350845
0.0351932
0.0353052
0.0354194
0.0355351
0.0356511
0.0357664
0.0358797
0.0359899
0.0427842
0.0425464
0.0420891
0.0414643
0.0407522
0.0400324
0.0393577
0.0387468
0.0381951
0.0376922
0.0372324
0.0368158
0.0364431
0.0361123
0.0358194
0.0355597
0.0353298
0.0351273
0.0349502
0.0347966
0.0346645
0.0345522
0.0344582
0.0343813
0.0343202
0.0342741
0.0342418
0.0342225
0.0342156
0.0342201
0.0342354
0.0342609
0.034296
0.0343401
0.0343926
0.034453
0.0345206
0.0345949
0.0346753
0.0347612
0.0348519
0.0349467
0.0350448
0.0351455
0.0352479
0.035351
0.0354537
0.035555
0.0356537
0.0357484
0.0423894
0.0421746
0.0417604
0.041191
0.0405357
0.0398644
0.0392261
0.0386413
0.0381096
0.0376232
0.0371774
0.0367717
0.0364067
0.0360812
0.0357918
0.0355346
0.0353063
0.0351045
0.0349273
0.0347728
0.0346394
0.0345253
0.0344292
0.0343496
0.0342856
0.0342361
0.0342002
0.0341769
0.0341655
0.0341653
0.0341756
0.0341957
0.034225
0.0342629
0.0343088
0.0343621
0.0344222
0.0344886
0.0345605
0.0346374
0.0347186
0.0348033
0.0348907
0.0349801
0.0350705
0.035161
0.0352504
0.0353377
0.0354217
0.035501
0.0420054
0.0418113
0.0414359
0.040917
0.0403144
0.0396894
0.0390871
0.0385288
0.0380173
0.0375477
0.0371159
0.0367214
0.0363646
0.0360449
0.0357594
0.035505
0.0352784
0.0350775
0.0349003
0.0347452
0.0346106
0.0344948
0.0343965
0.0343144
0.0342474
0.0341945
0.0341548
0.0341275
0.0341117
0.0341067
0.0341118
0.0341263
0.0341497
0.0341812
0.0342204
0.0342665
0.034319
0.0343773
0.0344406
0.0345084
0.0345799
0.0346543
0.034731
0.034809
0.0348873
0.0349651
0.0350413
0.0351146
0.035184
0.035248
0.0416315
0.041456
0.0411156
0.0406427
0.0400888
0.0395078
0.0389408
0.0384092
0.0379183
0.0374655
0.037048
0.0366649
0.0363168
0.0360031
0.035722
0.0354706
0.035246
0.0350461
0.0348692
0.0347136
0.0345778
0.0344604
0.0343599
0.0342753
0.0342053
0.034149
0.0341056
0.0340741
0.0340537
0.0340438
0.0340437
0.0340526
0.0340699
0.034095
0.0341273
0.0341661
0.0342108
0.0342608
0.0343154
0.034374
0.0344357
0.0344998
0.0345656
0.0346321
0.0346984
0.0347635
0.0348264
0.0348859
0.0349408
0.0349897
0.0412672
0.0411084
0.0407995
0.0403685
0.0398597
0.0393203
0.0387876
0.0382826
0.0378126
0.0373768
0.0369735
0.0366021
0.0362629
0.0359559
0.0356794
0.0354312