/*--------------------------------*- C++ -*----------------------------------*\
  =========                 |
  \\      /  F ield         | OpenFOAM: The Open Source CFD Toolbox
   \\    /   O peration     | Website:  https://openfoam.org
    \\  /    A nd           | Version:  7
     \\/     M anipulation  |
\*---------------------------------------------------------------------------*/
FoamFile
{
    version     2.0;
    format      ascii;
    class       surfaceScalarField;
    location    "0.11";
    object      phi;
}
// * * * * * * * * * * * * * * * * * * * * * * * * * * * * * * * * * * * * * //

dimensions      [0 3 -1 0 0 0 0];

internalField   nonuniform List<scalar> 
139350
(
6.45908e-08
9.20407e-08
3.19465e-08
3.26443e-08
2.30519e-08
8.89455e-09
1.9554e-08
3.49795e-09
1.75984e-08
1.95553e-09
1.61669e-08
1.43153e-09
1.50297e-08
1.13717e-09
1.41114e-08
9.18349e-10
1.33543e-08
7.57109e-10
1.27153e-08
6.3901e-10
1.21655e-08
5.49725e-10
1.16858e-08
4.79769e-10
1.12623e-08
4.23525e-10
1.08848e-08
3.77469e-10
1.05456e-08
3.39204e-10
1.02386e-08
3.07019e-10
9.9589e-09
2.79659e-10
9.70272e-09
2.56186e-10
9.46683e-09
2.35887e-10
9.24862e-09
2.18212e-10
9.04589e-09
2.0273e-10
8.85679e-09
1.891e-10
8.67974e-09
1.77048e-10
8.51339e-09
1.66354e-10
8.35655e-09
1.56835e-10
8.20821e-09
1.48344e-10
8.06745e-09
1.40755e-10
7.93349e-09
1.33967e-10
7.8056e-09
1.27889e-10
7.68314e-09
1.22455e-10
7.56555e-09
1.17588e-10
7.45229e-09
1.13259e-10
7.34292e-09
1.09379e-10
7.23694e-09
1.05975e-10
7.13403e-09
1.02908e-10
7.03373e-09
1.00298e-10
6.93584e-09
9.78948e-11
6.83987e-09
9.59737e-11
6.74575e-09
9.41149e-11
6.65301e-09
9.27457e-11
6.5616e-09
9.14092e-11
6.47136e-09
9.02356e-11
6.38156e-09
8.98024e-11
6.294e-09
8.75615e-11
6.20401e-09
8.99919e-11
6.12217e-09
8.18353e-11
6.02574e-09
9.64271e-11
5.97356e-09
5.2181e-11
5.74735e-09
2.26212e-10
-2.61832e-09
8.36567e-09
1.26023e-07
1.27461e-07
9.12547e-08
6.74129e-08
7.19253e-08
2.8224e-08
6.11891e-08
1.42341e-08
5.47332e-08
8.41141e-09
5.02291e-08
5.93564e-09
4.67339e-08
4.63243e-09
4.3906e-08
3.74622e-09
4.15663e-08
3.09683e-09
3.959e-08
2.61527e-09
3.78902e-08
2.24955e-09
3.64068e-08
1.96311e-09
3.50974e-08
1.73298e-09
3.39303e-08
1.54454e-09
3.28816e-08
1.38792e-09
3.19325e-08
1.25613e-09
3.10681e-08
1.14403e-09
3.02765e-08
1.04781e-09
2.95478e-08
9.64536e-10
2.88741e-08
8.91977e-10
2.82484e-08
8.28372e-10
2.76652e-08
7.72327e-10
2.71195e-08
7.22726e-10
2.66072e-08
6.78662e-10
2.61247e-08
6.39398e-10
2.56687e-08
6.04324e-10
2.52365e-08
5.72931e-10
2.48257e-08
5.448e-10
2.4434e-08
5.19569e-10
2.40595e-08
4.96948e-10
2.37004e-08
4.76657e-10
2.33552e-08
4.58523e-10
2.30223e-08
4.42273e-10
2.27004e-08
4.27884e-10
2.23883e-08
4.14971e-10
2.20848e-08
4.03797e-10
2.17891e-08
3.93612e-10
2.14998e-08
3.85277e-10
2.12167e-08
3.77213e-10
2.0938e-08
3.7145e-10
2.06645e-08
3.64861e-10
2.03934e-08
3.61318e-10
2.01275e-08
3.55718e-10
1.9862e-08
3.53079e-10
1.96025e-08
3.49536e-10
1.93434e-08
3.40852e-10
1.90857e-08
3.5422e-10
1.88723e-08
2.65536e-10
1.85079e-08
5.90586e-10
-3.02245e-09
1.89121e-08
1.58805e-07
1.35059e-07
1.36486e-07
8.97323e-08
1.17474e-07
4.72359e-08
1.03283e-07
2.84248e-08
9.32624e-08
1.84323e-08
8.59453e-08
1.32527e-08
8.02228e-08
1.03549e-08
7.55535e-08
8.41554e-09
7.16552e-08
6.99517e-09
6.8341e-08
5.92943e-09
6.54779e-08
5.1126e-09
6.29714e-08
4.46968e-09
6.07529e-08
3.95147e-09
5.87714e-08
3.52601e-09
5.69878e-08
3.17155e-09
5.53713e-08
2.87263e-09
5.38974e-08
2.61789e-09
5.25464e-08
2.39883e-09
5.1302e-08
2.20896e-09
5.01507e-08
2.04326e-09
4.90813e-08
1.89781e-09
4.80841e-08
1.76946e-09
4.71512e-08
1.6557e-09
4.62753e-08
1.55451e-09
4.54505e-08
1.46421e-09
4.46714e-08
1.38342e-09
4.39333e-08
1.311e-09
4.32321e-08
1.24599e-09
4.25641e-08
1.18758e-09
4.1926e-08
1.13508e-09
4.13147e-08
1.08791e-09
4.07276e-08
1.04562e-09
4.01623e-08
1.00766e-09
3.96163e-08
9.73868e-10
3.90877e-08
9.43547e-10
3.85744e-08
9.17053e-10
3.80751e-08
8.92994e-10
3.75873e-08
8.73e-10
3.71108e-08
8.53747e-10
3.66424e-08
8.39902e-10
3.61837e-08
8.23538e-10
3.5729e-08
8.16026e-10
3.5285e-08
7.99698e-10
3.48391e-08
7.98938e-10
3.44096e-08
7.7911e-10
3.39698e-08
7.8059e-10
3.35544e-08
7.69597e-10
3.3155e-08
6.65023e-10
3.27414e-08
1.00411e-09
-2.4295e-09
3.21485e-08
1.75663e-07
1.30912e-07
1.65588e-07
9.98071e-08
1.52706e-07
6.01175e-08
1.40093e-07
4.1038e-08
1.29387e-07
2.91381e-08
1.20726e-07
2.19142e-08
1.13594e-07
1.74871e-08
1.07591e-07
1.44186e-08
1.02466e-07
1.21202e-08
9.80363e-08
1.03587e-08
9.41633e-08
8.9856e-09
9.07412e-08
7.89183e-09
8.76902e-08
7.00248e-09
8.4949e-08
6.26719e-09
8.24695e-08
5.65105e-09
8.02132e-08
5.12888e-09
7.81491e-08
4.682e-09
7.62517e-08
4.2963e-09
7.44997e-08
3.9609e-09
7.28757e-08
3.66734e-09
7.13645e-08
3.40894e-09
6.99536e-08
3.18037e-09
6.8632e-08
2.97734e-09
6.73902e-08
2.79632e-09
6.62199e-08
2.63444e-09
6.5114e-08
2.48931e-09
6.40661e-08
2.35894e-09
6.30705e-08
2.24165e-09
6.2122e-08
2.13604e-09
6.12162e-08
2.0409e-09
6.03489e-08
1.95521e-09
5.95164e-08
1.87813e-09
5.87152e-08
1.80882e-09
5.79422e-08
1.74684e-09
5.71947e-08
1.69114e-09
5.64696e-08
1.64212e-09
5.57649e-08
1.59765e-09
5.50777e-08
1.56021e-09
5.44071e-08
1.5244e-09
5.37489e-08
1.49808e-09
5.31051e-08
1.46736e-09
5.2468e-08
1.45307e-09
5.18463e-08
1.42144e-09
5.12232e-08
1.42204e-09
5.06225e-08
1.37984e-09
5.00086e-08
1.39441e-09
4.94301e-08
1.34811e-09
4.88514e-08
1.24377e-09
4.83386e-08
1.51692e-09
-1.4938e-09
4.74029e-08
1.84559e-07
1.23139e-07
1.82316e-07
1.0205e-07
1.76089e-07
6.63446e-08
1.67733e-07
4.93942e-08
1.59093e-07
3.77781e-08
1.51164e-07
2.98432e-08
1.44068e-07
2.45822e-08
1.37744e-07
2.07433e-08
1.32115e-07
1.77485e-08
1.271e-07
1.53746e-08
1.22611e-07
1.34746e-08
1.18572e-07
1.19303e-08
1.1492e-07
1.06549e-08
1.116e-07
9.58704e-09
1.08568e-07
8.6829e-09
1.05787e-07
7.90995e-09
1.03225e-07
7.24352e-09
1.00857e-07
6.66461e-09
9.86595e-08
6.15838e-09
9.66138e-08
5.7131e-09
9.47033e-08
5.31942e-09
9.29139e-08
4.96979e-09
9.12331e-08
4.65808e-09
8.96502e-08
4.37923e-09
8.81556e-08
4.12907e-09
8.67408e-08
3.90412e-09
8.53983e-08
3.70146e-09
8.41213e-08
3.51862e-09
8.29038e-08
3.35353e-09
8.17403e-08
3.20438e-09
8.06259e-08
3.06967e-09
7.95559e-08
2.94811e-09
7.85262e-08
2.83848e-09
7.7533e-08
2.74006e-09
7.65727e-08
2.6514e-09
7.5642e-08
2.57289e-09
7.4738e-08
2.50164e-09
7.38572e-08
2.44095e-09
7.29983e-08
2.38331e-09
7.21566e-08
2.33976e-09
7.13336e-08
2.2904e-09
7.05212e-08
2.26552e-09
6.97273e-08
2.21529e-09
6.89354e-08
2.21395e-09
6.81675e-08
2.1477e-09
6.73914e-08
2.17049e-09
6.66485e-08
2.09102e-09
6.59111e-08
1.9812e-09
6.52423e-08
2.18576e-09
-4.1454e-10
6.4163e-08
1.90387e-07
1.14968e-07
1.91848e-07
1.0059e-07
1.90233e-07
6.79594e-08
1.86131e-07
5.34959e-08
1.80677e-07
4.32322e-08
1.74903e-07
3.5617e-08
1.69184e-07
3.03015e-08
1.63674e-07
2.62529e-08
1.5847e-07
2.29524e-08
1.53614e-07
2.02307e-08
1.49109e-07
1.798e-08
1.44938e-07
1.61015e-08
1.41077e-07
1.45157e-08
1.375e-07
1.31637e-08
1.34182e-07
1.20014e-08
1.31097e-07
1.09948e-08
1.28223e-07
1.01171e-08
1.2554e-07
9.34741e-09
1.2303e-07
8.66863e-09
1.20676e-07
8.06713e-09
1.18464e-07
7.5318e-09
1.1638e-07
7.05355e-09
1.14413e-07
6.62486e-09
1.12553e-07
6.23949e-09
1.1079e-07
5.89221e-09
1.09115e-07
5.57862e-09
1.07522e-07
5.295e-09
1.06002e-07
5.03816e-09
1.0455e-07
4.80541e-09
1.0316e-07
4.5944e-09
1.01827e-07
4.40318e-09
1.00545e-07
4.23e-09
9.931e-08
4.0733e-09
9.8118e-08
3.93203e-09
9.6965e-08
3.8044e-09
9.58472e-08
3.69074e-09
9.47613e-08
3.58747e-09
9.37037e-08
3.49856e-09
9.26724e-08
3.41467e-09
9.16626e-08
3.34949e-09
9.0675e-08
3.27804e-09
8.97021e-08
3.23837e-09
8.87497e-08
3.16769e-09
8.78045e-08
3.15921e-09
8.68813e-08
3.07084e-09
8.59602e-08
3.09161e-09
8.50615e-08
2.98976e-09
8.41851e-08
2.85763e-09
8.33542e-08
3.0166e-09
7.89472e-10
8.21502e-08
1.9554e-07
1.07243e-07
1.98243e-07
9.78864e-08
1.98959e-07
6.72437e-08
1.97769e-07
5.46857e-08
1.95124e-07
4.58775e-08
1.91765e-07
3.89759e-08
1.88012e-07
3.40542e-08
1.84038e-07
3.02277e-08
1.7999e-07
2.70002e-08
1.75979e-07
2.42413e-08
1.72074e-07
2.18855e-08
1.68312e-07
1.9863e-08
1.64715e-07
1.81131e-08
1.6129e-07
1.65886e-08
1.58039e-07
1.5253e-08
1.54956e-07
1.40771e-08
1.52036e-07
1.30371e-08
1.4927e-07
1.21134e-08
1.46649e-07
1.12896e-08
1.44164e-07
1.05524e-08
1.41805e-07
9.89037e-09
1.39565e-07
9.29419e-09
1.37434e-07
8.75592e-09
1.35404e-07
8.26884e-09
1.33469e-07
7.82726e-09
1.31622e-07
7.42629e-09
1.29855e-07
7.06179e-09
1.28163e-07
6.7301e-09
1.2654e-07
6.42819e-09
1.24981e-07
6.15329e-09
1.23481e-07
5.90313e-09
1.22036e-07
5.67565e-09
1.2064e-07
5.46902e-09
1.1929e-07
5.28194e-09
1.17982e-07
5.11233e-09
1.16712e-07
4.96046e-09
1.15478e-07
4.82223e-09
1.14274e-07
4.70208e-09
1.13099e-07
4.58929e-09
1.11949e-07
4.49941e-09
1.10824e-07
4.40394e-09
1.09716e-07
4.34593e-09
1.08629e-07
4.25455e-09
1.07555e-07
4.23339e-09
1.06499e-07
4.12698e-09
1.05456e-07
4.13452e-09
1.04423e-07
4.02222e-09
1.03425e-07
3.8556e-09
1.02458e-07
3.98379e-09
2.10813e-09
1.0114e-07
2.00847e-07
9.99806e-08
2.03772e-07
9.49615e-08
2.05318e-07
6.56976e-08
2.05626e-07
5.43778e-08
2.04788e-07
4.67151e-08
2.03293e-07
4.04716e-08
2.01327e-07
3.60199e-08
1.98975e-07
3.25792e-08
1.96344e-07
2.96318e-08
1.93534e-07
2.70506e-08
1.90628e-07
2.4792e-08
1.87684e-07
2.28066e-08
1.84748e-07
2.10493e-08
1.81851e-07
1.94856e-08
1.79015e-07
1.80887e-08
1.76256e-07
1.68369e-08
1.73581e-07
1.57119e-08
1.70996e-07
1.46979e-08
1.68504e-07
1.37819e-08
1.66104e-07
1.29522e-08
1.63795e-07
1.21992e-08
1.61575e-07
1.15144e-08
1.59441e-07
1.08906e-08
1.57388e-07
1.03215e-08
1.55413e-07
9.80172e-09
1.53513e-07
9.32648e-09
1.51683e-07
8.8917e-09
1.4992e-07
8.49375e-09
1.48218e-07
8.12953e-09
1.46575e-07
7.79619e-09
1.44987e-07
7.49137e-09
1.4345e-07
7.2129e-09
1.4196e-07
6.95883e-09
1.40514e-07
6.72775e-09
1.39109e-07
6.51744e-09
1.37742e-07
6.32814e-09
1.36408e-07
6.15544e-09
1.35106e-07
6.00405e-09
1.33833e-07
5.86246e-09
1.32585e-07
5.74718e-09
1.31361e-07
5.62793e-09
1.30158e-07
5.54984e-09
1.28973e-07
5.43924e-09
1.27805e-07
5.4014e-09
1.2665e-07
5.28173e-09
1.25517e-07
5.26793e-09
1.24385e-07
5.15369e-09
1.2329e-07
4.95098e-09
1.22221e-07
5.0525e-09
3.50776e-09
1.20821e-07
2.06446e-07
9.30668e-08
2.09335e-07
9.20721e-08
2.11028e-07
6.40052e-08
2.11914e-07
5.34911e-08
2.11974e-07
4.66557e-08
2.11575e-07
4.08702e-08
2.1083e-07
3.67646e-08
2.09742e-07
3.36675e-08
2.08347e-07
3.10264e-08
2.06704e-07
2.86936e-08
2.04869e-07
2.66278e-08
2.02889e-07
2.47864e-08
2.00807e-07
2.31309e-08
1.9866e-07
2.16332e-08
1.96475e-07
2.02732e-08
1.94277e-07
1.90348e-08
1.92084e-07
1.79048e-08
1.89911e-07
1.68718e-08
1.87766e-07
1.5926e-08
1.8566e-07
1.50588e-08
1.83596e-07
1.42625e-08
1.8158e-07
1.35307e-08
1.79613e-07
1.28574e-08
1.77697e-07
1.22376e-08
1.75832e-07
1.16666e-08
1.74018e-07
1.11405e-08
1.72254e-07
1.06556e-08
1.70539e-07
1.02089e-08
1.68872e-07
9.79739e-09
1.67249e-07
9.41861e-09
1.6567e-07
9.07035e-09
1.64132e-07
8.75055e-09
1.62634e-07
8.45736e-09
1.61172e-07
8.18945e-09
1.59745e-07
7.94459e-09
1.5835e-07
7.72309e-09
1.56985e-07
7.52048e-09
1.55648e-07
7.34156e-09
1.54335e-07
7.17462e-09
1.53046e-07
7.03634e-09
1.51778e-07
6.89627e-09
1.50529e-07
6.79902e-09
1.49295e-07
6.67258e-09
1.4808e-07
6.61686e-09
1.46873e-07
6.48903e-09
1.4569e-07
6.45065e-09
1.44504e-07
6.33946e-09
1.43348e-07
6.1076e-09
1.42217e-07
6.18276e-09
4.94199e-09
1.40783e-07
2.12288e-07
8.64415e-08
2.15148e-07
8.92119e-08
2.16782e-07
6.23715e-08
2.17826e-07
5.24462e-08
2.18233e-07
4.62496e-08
2.18337e-07
4.07653e-08
2.18248e-07
3.68539e-08
2.17933e-07
3.39823e-08
2.17385e-07
3.15745e-08
2.16622e-07
2.94567e-08
2.15668e-07
2.75821e-08
2.14547e-07
2.59071e-08
2.13285e-07
2.43926e-08
2.11908e-07
2.3011e-08
2.10437e-07
2.17436e-08
2.08895e-07
2.05769e-08
2.073e-07
1.95001e-08
2.05667e-07
1.85044e-08
2.04011e-07
1.75822e-08
2.02342e-07
1.67273e-08
2.00671e-07
1.59341e-08
1.99004e-07
1.51976e-08
1.97348e-07
1.45134e-08
1.95708e-07
1.38778e-08
1.94087e-07
1.32873e-08
1.92489e-07
1.27388e-08
1.90915e-07
1.22294e-08
1.89367e-07
1.17568e-08
1.87846e-07
1.13186e-08
1.86352e-07
1.09127e-08
1.84885e-07
1.05374e-08
1.83444e-07
1.0191e-08
1.8203e-07
9.87178e-09
1.80641e-07
9.57872e-09
1.79275e-07
9.30976e-09
1.77933e-07
9.06536e-09
1.76612e-07
8.84115e-09
1.75312e-07
8.64201e-09
1.7403e-07
8.45643e-09
1.72766e-07
8.30071e-09
1.71517e-07
8.14545e-09
1.70283e-07
8.0329e-09
1.69059e-07
7.89595e-09
1.67852e-07
7.82435e-09
1.66647e-07
7.69387e-09
1.65465e-07
7.63245e-09
1.64277e-07
7.52753e-09
1.63106e-07
7.27853e-09
1.61961e-07
7.32833e-09
6.35928e-09
1.60543e-07
2.18329e-07
8.00934e-08
2.21201e-07
8.63392e-08
2.22754e-07
6.08189e-08
2.23825e-07
5.13748e-08
2.24341e-07
4.57342e-08
2.24624e-07
4.04824e-08
2.24811e-07
3.66663e-08
2.24876e-07
3.39177e-08
2.24796e-07
3.1655e-08
2.2457e-07
2.96825e-08
2.24203e-07
2.79488e-08
2.23701e-07
2.6409e-08
2.23073e-07
2.5021e-08
2.22329e-07
2.37551e-08
2.21481e-07
2.25911e-08
2.20543e-07
2.1515e-08
2.19527e-07
2.05163e-08
2.18445e-07
1.95866e-08
2.17308e-07
1.87194e-08
2.16126e-07
1.79092e-08
2.14908e-07
1.71515e-08
2.13664e-07
1.64423e-08
2.12399e-07
1.57784e-08
2.1112e-07
1.51567e-08
2.09832e-07
1.45747e-08
2.08541e-07
1.40302e-08
2.07249e-07
1.35211e-08
2.0596e-07
1.30456e-08
2.04677e-07
1.2602e-08
2.03401e-07
1.21887e-08
2.02134e-07
1.18045e-08
2.00877e-07
1.14481e-08
1.9963e-07
1.11182e-08
1.98395e-07
1.0814e-08
1.97171e-07
1.05338e-08
1.95958e-07
1.02782e-08
1.94756e-07
1.00431e-08
1.93565e-07
9.83349e-09
1.92383e-07
9.63825e-09
1.91211e-07
9.473e-09
1.90046e-07
9.31024e-09
1.8889e-07
9.18857e-09
1.87738e-07
9.04796e-09
1.86597e-07
8.96518e-09
1.85453e-07
8.83802e-09
1.84327e-07
8.75892e-09
1.83191e-07
8.663e-09
1.82059e-07
8.41108e-09
1.80948e-07
8.43886e-09
7.70686e-09
1.79601e-07
2.24557e-07
7.40292e-08
2.27465e-07
8.34312e-08
2.2895e-07
5.9334e-08
2.30027e-07
5.02984e-08
2.30583e-07
4.51777e-08
2.30915e-07
4.01509e-08
2.31192e-07
3.63892e-08
2.31405e-07
3.37046e-08
2.31534e-07
3.1526e-08
2.31577e-07
2.96396e-08
2.31533e-07
2.79928e-08
2.314e-07
2.65419e-08
2.31177e-07
2.52437e-08
2.30866e-07
2.4066e-08
2.3047e-07
2.29871e-08
2.29994e-07
2.19915e-08
2.29442e-07
2.10677e-08
2.28822e-07
2.02068e-08
2.2814e-07
1.94019e-08
2.27401e-07
1.86476e-08
2.26614e-07
1.79393e-08
2.25782e-07
1.72734e-08
2.24914e-07
1.66469e-08
2.24013e-07
1.60573e-08
2.23086e-07
1.55024e-08
2.22135e-07
1.49805e-08
2.21166e-07
1.44899e-08
2.20183e-07
1.40293e-08
2.19187e-07
1.35976e-08
2.18182e-07
1.31935e-08
2.17171e-07
1.28162e-08
2.16154e-07
1.24648e-08
2.15134e-07
1.21384e-08
2.14111e-07
1.18364e-08
2.13088e-07
1.15574e-08
2.12063e-07
1.13024e-08
2.11039e-07
1.10674e-08
2.10015e-07
1.08575e-08
2.08991e-07
1.06622e-08
2.07968e-07
1.0496e-08
2.06944e-07
1.03342e-08
2.05922e-07
1.02106e-08
2.04896e-07
1.00738e-08
2.03875e-07
9.98608e-09
2.02845e-07
9.86821e-09
2.01825e-07
9.77909e-09
2.00793e-07
9.69483e-09
1.9975e-07
9.45422e-09
1.98723e-07
9.46569e-09
8.93591e-09
1.97494e-07
2.30978e-07
6.82569e-08
2.3393e-07
8.04795e-08
2.35355e-07
5.79085e-08
2.36438e-07
4.9216e-08
2.37027e-07
4.4588e-08
2.37374e-07
3.98045e-08
2.37672e-07
3.60908e-08
2.37931e-07
3.34459e-08
2.38136e-07
3.13214e-08
2.38288e-07
2.94872e-08
2.3839e-07
2.78905e-08
2.3844e-07
2.64918e-08
2.38436e-07
2.52485e-08
2.38374e-07
2.41278e-08
2.38254e-07
2.31069e-08
2.38076e-07
2.21694e-08
2.37841e-07
2.13029e-08
2.3755e-07
2.04978e-08
2.37205e-07
1.97464e-08
2.3681e-07
1.90429e-08
2.36367e-07
1.83823e-08
2.35879e-07
1.77609e-08
2.35351e-07
1.71755e-08
2.34784e-07
1.66235e-08
2.34184e-07
1.61028e-08
2.33553e-07
1.56117e-08
2.32894e-07
1.51489e-08
2.3221e-07
1.4713e-08
2.31504e-07
1.43033e-08
2.30779e-07
1.39188e-08
2.30036e-07
1.35589e-08
2.29278e-07
1.32229e-08
2.28507e-07
1.29101e-08
2.27723e-07
1.26204e-08
2.26928e-07
1.23524e-08
2.26123e-07
1.21073e-08
2.25309e-07
1.18814e-08
2.24487e-07
1.16797e-08
2.23656e-07
1.14925e-08
2.22819e-07
1.13332e-08
2.21974e-07
1.11796e-08
2.21123e-07
1.1061e-08
2.20263e-07
1.09345e-08
2.194e-07
1.08483e-08
2.18524e-07
1.07448e-08
2.17649e-07
1.0654e-08
2.1676e-07
1.05837e-08
2.15848e-07
1.03667e-08
2.14944e-07
1.03691e-08
1.00082e-08
2.13872e-07
2.37599e-07
6.27824e-08
2.40597e-07
7.74815e-08
2.41966e-07
5.65402e-08
2.43053e-07
4.8129e-08
2.43679e-07
4.39615e-08
2.44039e-07
3.9445e-08
2.44342e-07
3.57875e-08
2.44613e-07
3.31752e-08
2.4484e-07
3.10944e-08
2.45028e-07
2.92985e-08
2.45185e-07
2.77339e-08
2.4531e-07
2.63663e-08
2.45404e-07
2.51555e-08
2.45462e-07
2.40688e-08
2.45486e-07
2.30836e-08
2.45472e-07
2.2183e-08
2.45421e-07
2.13545e-08
2.45331e-07
2.05878e-08
2.45202e-07
1.98751e-08
2.45035e-07
1.92099e-08
2.4483e-07
1.85871e-08
2.44589e-07
1.80023e-08
2.44312e-07
1.74523e-08
2.44001e-07
1.69342e-08
2.43658e-07
1.64458e-08
2.43285e-07
1.59851e-08
2.42883e-07
1.55508e-08
2.42454e-07
1.51418e-08
2.42001e-07
1.4757e-08
2.41524e-07
1.43957e-08
2.41025e-07
1.40574e-08
2.40507e-07
1.37415e-08
2.39969e-07
1.34474e-08
2.39415e-07
1.31752e-08
2.38843e-07
1.29236e-08
2.38257e-07
1.26939e-08
2.37655e-07
1.24827e-08
2.3704e-07
1.22947e-08
2.36412e-07
1.21211e-08
2.35771e-07
1.19738e-08
2.35117e-07
1.18338e-08
2.34453e-07
1.17251e-08
2.33774e-07
1.16136e-08
2.33088e-07
1.15342e-08
2.32384e-07
1.14483e-08
2.31675e-07
1.13631e-08
2.3095e-07
1.13085e-08
2.30193e-07
1.1124e-08
2.29437e-07
1.11248e-08
1.09018e-08
2.28544e-07
2.44429e-07
5.76093e-08
2.47467e-07
7.4444e-08
2.48786e-07
5.52212e-08
2.49873e-07
4.7042e-08
2.50538e-07
4.32965e-08
2.50914e-07
3.90688e-08
2.51221e-07
3.54802e-08
2.51497e-07
3.28994e-08
2.51731e-07
3.08602e-08
2.5193e-07
2.90993e-08
2.52104e-07
2.75607e-08
2.52255e-07
2.62153e-08
2.52384e-07
2.50259e-08
2.52492e-07
2.39608e-08
2.52578e-07
2.29975e-08
2.52642e-07
2.21197e-08
2.52681e-07
2.13147e-08
2.52697e-07
2.05725e-08
2.52687e-07
1.9885e-08
2.52651e-07
1.92456e-08
2.52589e-07
1.86489e-08
2.52501e-07
1.80906e-08
2.52386e-07
1.75669e-08
2.52246e-07
1.70748e-08
2.5208e-07
1.6612e-08
2.51888e-07
1.61763e-08
2.51673e-07
1.57663e-08
2.51434e-07
1.53807e-08
2.51172e-07
1.50185e-08
2.50889e-07
1.46789e-08
2.50585e-07
1.43613e-08
2.50261e-07
1.40654e-08
2.49918e-07
1.37905e-08
2.49557e-07
1.35367e-08
2.49178e-07
1.33027e-08
2.48782e-07
1.309e-08
2.48369e-07
1.28954e-08
2.47941e-07
1.2723e-08
2.47496e-07
1.25653e-08
2.47038e-07
1.24323e-08
2.46563e-07
1.23083e-08
2.46077e-07
1.2212e-08
2.45572e-07
1.21176e-08
2.45058e-07
1.20483e-08
2.44525e-07
1.19812e-08
2.43982e-07
1.19071e-08
2.43422e-07
1.18685e-08
2.42824e-07
1.17215e-08
2.42222e-07
1.17272e-08
1.16142e-08
2.41509e-07
2.51477e-07
5.27394e-08
2.54544e-07
7.13764e-08
2.55824e-07
5.39409e-08
2.56906e-07
4.59605e-08
2.57608e-07
4.25943e-08
2.58004e-07
3.86729e-08
2.58317e-07
3.51675e-08
2.58597e-07
3.2619e-08
2.58836e-07
3.06214e-08
2.59039e-07
2.88962e-08
2.59217e-07
2.73827e-08
2.59376e-07
2.60569e-08
2.59516e-07
2.4885e-08
2.59641e-07
2.38362e-08
2.5975e-07
2.28885e-08
2.59844e-07
2.2026e-08
2.59922e-07
2.12365e-08
2.59984e-07
2.05101e-08
2.60031e-07
1.98389e-08
2.6006e-07
1.92162e-08
2.60072e-07
1.86367e-08
2.60067e-07
1.8096e-08
2.60043e-07
1.75903e-08
2.60002e-07
1.71165e-08
2.59941e-07
1.6672e-08
2.59863e-07
1.62547e-08
2.59766e-07
1.5863e-08
2.59652e-07
1.54954e-08
2.59519e-07
1.5151e-08
2.59369e-07
1.48289e-08
2.59202e-07
1.45285e-08
2.59018e-07
1.42495e-08
2.58817e-07
1.39911e-08
2.586e-07
1.37536e-08
2.58368e-07
1.35356e-08
2.58119e-07
1.33386e-08
2.57855e-07
1.31594e-08
2.57576e-07
1.3002e-08
2.57282e-07
1.28597e-08
2.56973e-07
1.27408e-08
2.56649e-07
1.26325e-08
2.56312e-07
1.25489e-08
2.55958e-07
1.24715e-08
2.55593e-07
1.24135e-08
2.5521e-07
1.23643e-08
2.54813e-07
1.23042e-08
2.544e-07
1.22809e-08
2.53949e-07
1.21725e-08
2.53489e-07
1.21879e-08
1.21604e-08
2.52942e-07
2.5875e-07
4.81728e-08
2.61837e-07
6.82887e-08
2.63089e-07
5.26888e-08
2.6416e-07
4.48896e-08
2.64897e-07
4.18572e-08
2.65315e-07
3.82554e-08
2.65634e-07
3.48485e-08
2.65919e-07
3.23334e-08
2.66163e-07
3.03776e-08
2.6637e-07
2.86898e-08
2.6655e-07
2.72024e-08
2.66711e-07
2.58962e-08
2.66855e-07
2.47409e-08
2.66984e-07
2.37069e-08
2.671e-07
2.27725e-08
2.67204e-07
2.19225e-08
2.67295e-07
2.11448e-08
2.67375e-07
2.043e-08
2.67444e-07
1.97703e-08
2.67501e-07
1.91593e-08
2.67546e-07
1.85916e-08
2.67579e-07
1.8063e-08
2.676e-07
1.75696e-08
2.67608e-07
1.71083e-08
2.67604e-07
1.66765e-08
2.67586e-07
1.6272e-08
2.67556e-07
1.58932e-08
2.67513e-07
1.55386e-08
2.67457e-07
1.52072e-08
2.67387e-07
1.48981e-08
2.67305e-07
1.46107e-08
2.6721e-07
1.43446e-08
2.67102e-07
1.40992e-08
2.66981e-07
1.38746e-08
2.66847e-07
1.36695e-08
2.667e-07
1.34853e-08
2.66541e-07
1.33192e-08
2.66368e-07
1.31745e-08
2.66182e-07
1.30454e-08
2.65985e-07
1.29387e-08
2.65773e-07
1.28444e-08
2.65549e-07
1.27723e-08
2.65311e-07
1.27099e-08
2.65061e-07
1.2663e-08
2.64796e-07
1.26293e-08
2.64516e-07
1.25842e-08
2.64222e-07
1.25747e-08
2.63892e-07
1.25033e-08
2.63548e-07
1.25313e-08
1.25685e-08
2.6314e-07
2.66257e-07
4.3908e-08
2.69354e-07
6.51915e-08
2.70589e-07
5.14544e-08
2.71645e-07
4.38337e-08
2.72413e-07
4.10887e-08
2.72854e-07
3.78144e-08
2.7318e-07
3.45222e-08
2.73471e-07
3.20427e-08
2.7372e-07
3.01285e-08
2.7393e-07
2.84796e-08
2.74113e-07
2.70198e-08
2.74275e-07
2.57339e-08
2.74421e-07
2.45955e-08
2.74551e-07
2.35762e-08
2.74669e-07
2.26548e-08
2.74775e-07
2.18164e-08
2.7487e-07
2.10495e-08
2.74956e-07
2.03447e-08
2.75031e-07
1.96946e-08
2.75098e-07
1.90929e-08
2.75155e-07
1.85344e-08
2.75203e-07
1.80149e-08
2.75242e-07
1.75306e-08
2.75272e-07
1.70785e-08
2.75292e-07
1.6656e-08
2.75304e-07
1.62608e-08
2.75306e-07
1.58913e-08
2.75298e-07
1.5546e-08
2.75281e-07
1.5224e-08
2.75255e-07
1.49243e-08
2.75219e-07
1.46464e-08
2.75174e-07
1.43899e-08
2.75119e-07
1.41541e-08
2.75054e-07
1.39392e-08
2.7498e-07
1.37441e-08
2.74895e-07
1.35698e-08
2.74801e-07
1.34139e-08
2.74696e-07
1.32792e-08
2.7458e-07
1.31609e-08
2.74455e-07
1.30641e-08
2.74318e-07
1.29813e-08
2.74172e-07
1.29188e-08
2.74013e-07
1.28688e-08
2.73844e-07
1.28318e-08
2.73662e-07
1.28111e-08
2.73466e-07
1.27806e-08
2.73257e-07
1.27831e-08
2.73016e-07
1.27449e-08
2.7276e-07
1.27871e-08
1.28718e-08
2.72457e-07
2.74008e-07
3.99412e-08
2.77104e-07
6.20957e-08
2.78331e-07
5.02275e-08
2.79368e-07
4.27963e-08
2.80164e-07
4.02928e-08
2.8063e-07
3.73484e-08
2.80964e-07
3.41878e-08
2.8126e-07
3.1747e-08
2.81515e-07
2.98738e-08
2.81729e-07
2.82653e-08
2.81914e-07
2.68348e-08
2.82078e-07
2.557e-08
2.82224e-07
2.4449e-08
2.82356e-07
2.34448e-08
2.82474e-07
2.25366e-08
2.8258e-07
2.17099e-08
2.82676e-07
2.09535e-08
2.82763e-07
2.02584e-08
2.8284e-07
1.96173e-08
2.82909e-07
1.90242e-08
2.82969e-07
1.8474e-08
2.83022e-07
1.79624e-08
2.83066e-07
1.74859e-08
2.83103e-07
1.70414e-08
2.83133e-07
1.66264e-08
2.83155e-07
1.62386e-08
2.8317e-07
1.58764e-08
2.83178e-07
1.55384e-08
2.83178e-07
1.52235e-08
2.83172e-07
1.49311e-08
2.83158e-07
1.46603e-08
2.83137e-07
1.4411e-08
2.83108e-07
1.41826e-08
2.83072e-07
1.39751e-08
2.83029e-07
1.37876e-08
2.82978e-07
1.36209e-08
2.82919e-07
1.3473e-08
2.82852e-07
1.3346e-08
2.82777e-07
1.32362e-08
2.82693e-07
1.31473e-08
2.82601e-07
1.30737e-08
2.82501e-07
1.3019e-08
2.82391e-07
1.2979e-08
2.82272e-07
1.29508e-08
2.82142e-07
1.29403e-08
2.81999e-07
1.29235e-08
2.81846e-07
1.29365e-08
2.81664e-07
1.29271e-08
2.81467e-07
1.29839e-08
1.31029e-08
2.81236e-07
2.82011e-07
3.62674e-08
2.85094e-07
5.90129e-08
2.86323e-07
4.89986e-08
2.87339e-07
4.17802e-08
2.88158e-07
3.94743e-08
2.8865e-07
3.68563e-08
2.88994e-07
3.3844e-08
2.89294e-07
3.14464e-08
2.89555e-07
2.96135e-08
2.89773e-07
2.80466e-08
2.89961e-07
2.66469e-08
2.90127e-07
2.54042e-08
2.90275e-07
2.43012e-08
2.90407e-07
2.33126e-08
2.90526e-07
2.24181e-08
2.90632e-07
2.16033e-08
2.90728e-07
2.08577e-08
2.90814e-07
2.01724e-08
2.90891e-07
1.95403e-08
2.90959e-07
1.89556e-08
2.9102e-07
1.84134e-08
2.91073e-07
1.79095e-08
2.91118e-07
1.74404e-08
2.91157e-07
1.70029e-08
2.91189e-07
1.65947e-08
2.91214e-07
1.62135e-08
2.91232e-07
1.58577e-08
2.91245e-07
1.5526e-08
2.91251e-07
1.52172e-08
2.91251e-07
1.49308e-08
2.91246e-07
1.4666e-08
2.91234e-07
1.44226e-08
2.91217e-07
1.42001e-08
2.91193e-07
1.39986e-08
2.91163e-07
1.38173e-08
2.91127e-07
1.36567e-08
2.91085e-07
1.35153e-08
2.91037e-07
1.33946e-08
2.90981e-07
1.32918e-08
2.90919e-07
1.32091e-08
2.9085e-07
1.31431e-08
2.90774e-07
1.30951e-08
2.9069e-07
1.30632e-08
2.90598e-07
1.30427e-08
2.90497e-07
1.30407e-08
2.90385e-07
1.30363e-08
2.90262e-07
1.30589e-08
2.90115e-07
1.30742e-08
2.89954e-07
1.31453e-08
1.32886e-08
2.89768e-07
2.90277e-07
3.28792e-08
2.93335e-07
5.59548e-08
2.94575e-07
4.77588e-08
2.95568e-07
4.07872e-08
2.96404e-07
3.86385e-08
2.96923e-07
3.6337e-08
2.97278e-07
3.34895e-08
2.97583e-07
3.11408e-08
2.97849e-07
2.93475e-08
2.98073e-07
2.78231e-08
2.98264e-07
2.64559e-08
2.98431e-07
2.52364e-08
2.98581e-07
2.4152e-08
2.98714e-07
2.31795e-08
2.98833e-07
2.2299e-08
2.98939e-07
2.14967e-08
2.99035e-07
2.0762e-08
2.99121e-07
2.00868e-08
2.99197e-07
1.9464e-08
2.99265e-07
1.88879e-08
2.99324e-07
1.83538e-08
2.99376e-07
1.78575e-08
2.99421e-07
1.73957e-08
2.99459e-07
1.69652e-08
2.9949e-07
1.65636e-08
2.99515e-07
1.61889e-08
2.99533e-07
1.58392e-08
2.99546e-07
1.55133e-08
2.99553e-07
1.52102e-08
2.99554e-07
1.49293e-08
2.9955e-07
1.46699e-08
2.99541e-07
1.44319e-08
2.99527e-07
1.42147e-08
2.99507e-07
1.40185e-08
2.99481e-07
1.38426e-08
2.99451e-07
1.36874e-08
2.99414e-07
1.35516e-08
2.99373e-07
1.34364e-08
2.99325e-07
1.33395e-08
2.99272e-07
1.32625e-08
2.99212e-07
1.32029e-08
2.99146e-07
1.31608e-08
2.99073e-07
1.31358e-08
2.98994e-07
1.31225e-08
2.98907e-07
1.31277e-08
2.98808e-07
1.3135e-08
2.987e-07
1.31666e-08
2.98572e-07
1.32029e-08
2.98429e-07
1.3288e-08
1.34487e-08
2.98269e-07
2.98814e-07
2.9768e-08
3.01835e-07
5.29335e-08
3.03094e-07
4.65002e-08
3.04063e-07
3.98182e-08
3.04911e-07
3.77906e-08
3.05458e-07
3.579e-08
3.05824e-07
3.31227e-08
3.06135e-07
3.08302e-08
3.06406e-07
2.9076e-08
3.06635e-07
2.75944e-08
3.06829e-07
2.62615e-08
3.06999e-07
2.50664e-08
3.0715e-07
2.40012e-08
3.07284e-07
2.30453e-08
3.07404e-07
2.21794e-08
3.07511e-07
2.13898e-08
3.07606e-07
2.06665e-08
3.07692e-07
2.00015e-08
3.07767e-07
1.93882e-08
3.07834e-07
1.8821e-08
3.07893e-07
1.82951e-08
3.07944e-07
1.78067e-08
3.07987e-07
1.73523e-08
3.08024e-07
1.69289e-08
3.08053e-07
1.6534e-08
3.08076e-07
1.61656e-08
3.08094e-07
1.5822e-08
3.08105e-07
1.5502e-08
3.08111e-07
1.52045e-08
3.08111e-07
1.4929e-08
3.08106e-07
1.46748e-08
3.08096e-07
1.4442e-08
3.08081e-07
1.42299e-08
3.08061e-07
1.40387e-08
3.08035e-07
1.38679e-08
3.08005e-07
1.37177e-08
3.07969e-07
1.35872e-08
3.07929e-07
1.34771e-08
3.07882e-07
1.33858e-08
3.07831e-07
1.3314e-08
3.07773e-07
1.32603e-08
3.0771e-07
1.32238e-08
3.07641e-07
1.3205e-08
3.07565e-07
1.31987e-08
3.07482e-07
1.32107e-08
3.07388e-07
1.32288e-08
3.07285e-07
1.32695e-08
3.07164e-07
1.3324e-08
3.07029e-07
1.34225e-08
1.35958e-08
3.06882e-07
3.07632e-07
2.69232e-08
3.10605e-07
4.99609e-08
3.11889e-07
4.5216e-08
3.12834e-07
3.88731e-08
3.13688e-07
3.69362e-08
3.14262e-07
3.52159e-08
3.14643e-07
3.27422e-08
3.14959e-07
3.05144e-08
3.15236e-07
2.8799e-08
3.1547e-07
2.73604e-08
3.15668e-07
2.60633e-08
3.1584e-07
2.48939e-08
3.15993e-07
2.38487e-08
3.16128e-07
2.29099e-08
3.16249e-07
2.20589e-08
3.16356e-07
2.12825e-08
3.16452e-07
2.0571e-08
3.16537e-07
1.99166e-08
3.16612e-07
1.93131e-08
3.16678e-07
1.87549e-08
3.16735e-07
1.82375e-08
3.16785e-07
1.77571e-08
3.16827e-07
1.73102e-08
3.16862e-07
1.6894e-08
3.1689e-07
1.6506e-08
3.16911e-07
1.61442e-08
3.16927e-07
1.58067e-08
3.16936e-07
1.54926e-08
3.1694e-07
1.52007e-08
3.16938e-07
1.49306e-08
3.16931e-07
1.46817e-08
3.16919e-07
1.4454e-08
3.16902e-07
1.42469e-08
3.1688e-07
1.40608e-08
3.16853e-07
1.3895e-08
3.16821e-07
1.37498e-08
3.16784e-07
1.36245e-08
3.16742e-07
1.35194e-08
3.16694e-07
1.34335e-08
3.16641e-07
1.33669e-08
3.16582e-07
1.33188e-08
3.16518e-07
1.32879e-08
3.16448e-07
1.32751e-08
3.16371e-07
1.32757e-08
3.16288e-07
1.32944e-08
3.16194e-07
1.33229e-08
3.1609e-07
1.33729e-08
3.15971e-07
1.34432e-08
3.15839e-07
1.35544e-08
1.37374e-08
3.15697e-07
3.16742e-07
2.43327e-08
3.19653e-07
4.70493e-08
3.20968e-07
4.39009e-08
3.21891e-07
3.79509e-08
3.22746e-07
3.60803e-08
3.23347e-07
3.46156e-08
3.23743e-07
3.23462e-08
3.24064e-07
3.0193e-08
3.24347e-07
2.85165e-08
3.24586e-07
2.71209e-08
3.24788e-07
2.58611e-08
3.24964e-07
2.47187e-08
3.25118e-07
2.36942e-08
3.25255e-07
2.2773e-08
3.25376e-07
2.19376e-08
3.25484e-07
2.11747e-08
3.2558e-07
2.04753e-08
3.25664e-07
1.98319e-08
3.25739e-07
1.92383e-08
3.25805e-07
1.86895e-08
3.25861e-07
1.81808e-08
3.2591e-07
1.77086e-08
3.25951e-07
1.72695e-08
3.25984e-07
1.68607e-08
3.2601e-07
1.64797e-08
3.2603e-07
1.61244e-08
3.26043e-07
1.57933e-08
3.26051e-07
1.54851e-08
3.26052e-07
1.5199e-08
3.26049e-07
1.49344e-08
3.2604e-07
1.46908e-08
3.26025e-07
1.44683e-08
3.26006e-07
1.42664e-08
3.25981e-07
1.40853e-08
3.25952e-07
1.39245e-08
3.25917e-07
1.37844e-08
3.25877e-07
1.36642e-08
3.25833e-07
1.35643e-08
3.25782e-07
1.34837e-08
3.25727e-07
1.34224e-08
3.25666e-07
1.33799e-08
3.25599e-07
1.33547e-08
3.25526e-07
1.33478e-08
3.25447e-07
1.33554e-08
3.2536e-07
1.3381e-08
3.25263e-07
1.34195e-08
3.25157e-07
1.34791e-08
3.25037e-07
1.35634e-08
3.24905e-07
1.36867e-08
1.38775e-08
3.24765e-07
3.26152e-07
2.19832e-08
3.28991e-07
4.42102e-08
3.30341e-07
4.25513e-08
3.31242e-07
3.70496e-08
3.32095e-07
3.52278e-08
3.32719e-07
3.39907e-08
3.33132e-07
3.19334e-08
3.3346e-07
2.98654e-08
3.33748e-07
2.82288e-08
3.33993e-07
2.68756e-08
3.342e-07
2.56544e-08
3.34378e-07
2.45405e-08
3.34534e-07
2.35375e-08
3.34673e-07
2.26346e-08
3.34795e-07
2.18151e-08
3.34904e-07
2.10663e-08
3.35e-07
2.03793e-08
3.35085e-07
1.97472e-08
3.35159e-07
1.9164e-08
3.35224e-07
1.86246e-08
3.3528e-07
1.81249e-08
3.35327e-07
1.76612e-08
3.35366e-07
1.723e-08
3.35398e-07
1.68288e-08
3.35423e-07
1.64549e-08
3.35441e-07
1.61064e-08
3.35453e-07
1.57818e-08
3.35458e-07
1.54797e-08
3.35458e-07
1.51994e-08
3.35452e-07
1.49403e-08
3.3544e-07
1.47022e-08
3.35424e-07
1.44849e-08
3.35402e-07
1.42882e-08
3.35375e-07
1.41123e-08