/*--------------------------------*- C++ -*----------------------------------*\
  =========                 |
  \\      /  F ield         | OpenFOAM: The Open Source CFD Toolbox
   \\    /   O peration     | Website:  https://openfoam.org
    \\  /    A nd           | Version:  7
     \\/     M anipulation  |
\*---------------------------------------------------------------------------*/
FoamFile
{
    version     2.0;
    format      ascii;
    class       surfaceScalarField;
    location    "0.11";
    object      phi_0;
}
// * * * * * * * * * * * * * * * * * * * * * * * * * * * * * * * * * * * * * //

dimensions      [0 3 -1 0 0 0 0];

internalField   nonuniform List<scalar> 
139350
(
6.45908e-08
9.20407e-08
3.19465e-08
3.26443e-08
2.30519e-08
8.89455e-09
1.9554e-08
3.49795e-09
1.75984e-08
1.95553e-09
1.61669e-08
1.43153e-09
1.50297e-08
1.13717e-09
1.41114e-08
9.18349e-10
1.33543e-08
7.5711e-10
1.27153e-08
6.3901e-10
1.21655e-08
5.49725e-10
1.16858e-08
4.79768e-10
1.12623e-08
4.23523e-10
1.08848e-08
3.77466e-10
1.05456e-08
3.39201e-10
1.02386e-08
3.07016e-10
9.95892e-09
2.79655e-10
9.70273e-09
2.56182e-10
9.46685e-09
2.35883e-10
9.24864e-09
2.18208e-10
9.04592e-09
2.02726e-10
8.85682e-09
1.89096e-10
8.67978e-09
1.77044e-10
8.51343e-09
1.6635e-10
8.3566e-09
1.56831e-10
8.20826e-09
1.4834e-10
8.0675e-09
1.40752e-10
7.93354e-09
1.33964e-10
7.80565e-09
1.27887e-10
7.6832e-09
1.22453e-10
7.56561e-09
1.17587e-10
7.45235e-09
1.13258e-10
7.34298e-09
1.09379e-10
7.237e-09
1.05976e-10
7.13409e-09
1.02909e-10
7.03379e-09
1.003e-10
6.93589e-09
9.78978e-11
6.83991e-09
9.59773e-11
6.7458e-09
9.4119e-11
6.65305e-09
9.27502e-11
6.56163e-09
9.14141e-11
6.47139e-09
9.02398e-11
6.38158e-09
8.98078e-11
6.29402e-09
8.75646e-11
6.20402e-09
8.99984e-11
6.12218e-09
8.18385e-11
6.02574e-09
9.64454e-11
5.97354e-09
5.21941e-11
5.74721e-09
2.26337e-10
-2.61826e-09
8.36547e-09
1.26023e-07
1.27461e-07
9.12547e-08
6.74129e-08
7.19253e-08
2.8224e-08
6.11891e-08
1.42341e-08
5.47332e-08
8.4114e-09
5.02291e-08
5.93564e-09
4.67339e-08
4.63243e-09
4.3906e-08
3.74622e-09
4.15663e-08
3.09683e-09
3.959e-08
2.61527e-09
3.78902e-08
2.24954e-09
3.64069e-08
1.96311e-09
3.50974e-08
1.73297e-09
3.39304e-08
1.54453e-09
3.28817e-08
1.38791e-09
3.19326e-08
1.25611e-09
3.10682e-08
1.14402e-09
3.02766e-08
1.04779e-09
2.9548e-08
9.64516e-10
2.88742e-08
8.91956e-10
2.82486e-08
8.28351e-10
2.76654e-08
7.72306e-10
2.71197e-08
7.22705e-10
2.66074e-08
6.78642e-10
2.61249e-08
6.39378e-10
2.56689e-08
6.04304e-10
2.52368e-08
5.72913e-10
2.48259e-08
5.44783e-10
2.44343e-08
5.19554e-10
2.40598e-08
4.96934e-10
2.37007e-08
4.76645e-10
2.33555e-08
4.58513e-10
2.30226e-08
4.42265e-10
2.27007e-08
4.27879e-10
2.23886e-08
4.14969e-10
2.20851e-08
4.03797e-10
2.17894e-08
3.93615e-10
2.15001e-08
3.85283e-10
2.1217e-08
3.77222e-10
2.09383e-08
3.7146e-10
2.06648e-08
3.64873e-10
2.03937e-08
3.61329e-10
2.01278e-08
3.5573e-10
1.98623e-08
3.53083e-10
1.96028e-08
3.49547e-10
1.93438e-08
3.40842e-10
1.90859e-08
3.54254e-10
1.88726e-08
2.65517e-10
1.85081e-08
5.90844e-10
-3.02211e-09
1.8912e-08
1.58805e-07
1.35059e-07
1.36486e-07
8.97323e-08
1.17474e-07
4.72359e-08
1.03283e-07
2.84247e-08
9.32624e-08
1.84323e-08
8.59453e-08
1.32527e-08
8.02228e-08
1.03549e-08
7.55535e-08
8.41553e-09
7.16552e-08
6.99516e-09
6.8341e-08
5.92943e-09
6.5478e-08
5.11259e-09
6.29714e-08
4.46966e-09
6.0753e-08
3.95145e-09
5.87715e-08
3.52598e-09
5.69879e-08
3.17152e-09
5.53714e-08
2.87259e-09
5.38976e-08
2.61785e-09
5.25466e-08
2.39878e-09
5.13022e-08
2.20891e-09
5.01509e-08
2.04321e-09
4.90815e-08
1.89775e-09
4.80844e-08
1.7694e-09
4.71515e-08
1.65565e-09
4.62757e-08
1.55446e-09
4.54509e-08
1.46416e-09
4.46718e-08
1.38337e-09
4.39338e-08
1.31096e-09
4.32326e-08
1.24594e-09
4.25646e-08
1.18753e-09
4.19265e-08
1.13504e-09
4.13153e-08
1.08788e-09
4.07282e-08
1.04559e-09
4.01629e-08
1.00763e-09
3.96169e-08
9.73847e-10
3.90883e-08
9.43533e-10
3.85751e-08
9.17045e-10
3.80757e-08
8.92992e-10
3.7588e-08
8.73005e-10
3.71114e-08
8.53758e-10
3.6643e-08
8.39918e-10
3.61843e-08
8.23558e-10
3.57296e-08
8.16046e-10
3.52856e-08
7.99722e-10
3.48397e-08
7.98948e-10
3.44101e-08
7.79133e-10
3.39704e-08
7.80562e-10
3.3555e-08
7.69652e-10
3.31556e-08
6.64956e-10
3.2742e-08
1.00444e-09
-2.42876e-09
3.21486e-08
1.75663e-07
1.30912e-07
1.65588e-07
9.98071e-08
1.52706e-07
6.01175e-08
1.40093e-07
4.1038e-08
1.29387e-07
2.91381e-08
1.20726e-07
2.19141e-08
1.13594e-07
1.74871e-08
1.07591e-07
1.44185e-08
1.02466e-07
1.21202e-08
9.80364e-08
1.03587e-08
9.41634e-08
8.98558e-09
9.07413e-08
7.89181e-09
8.76903e-08
7.00244e-09
8.49491e-08
6.26714e-09
8.24696e-08
5.65099e-09
8.02134e-08
5.12881e-09
7.81493e-08
4.68193e-09
7.62519e-08
4.29621e-09
7.45e-08
3.96081e-09
7.2876e-08
3.66724e-09
7.13649e-08
3.40885e-09
6.9954e-08
3.18028e-09
6.86324e-08
2.97724e-09
6.73907e-08
2.79622e-09
6.62205e-08
2.63435e-09
6.51146e-08
2.48922e-09
6.40667e-08
2.35885e-09
6.30711e-08
2.24156e-09
6.21227e-08
2.13595e-09
6.12169e-08
2.04082e-09
6.03497e-08
1.95514e-09
5.95172e-08
1.87807e-09
5.87161e-08
1.80876e-09
5.79431e-08
1.74679e-09
5.71955e-08
1.6911e-09
5.64705e-08
1.64209e-09
5.57659e-08
1.59763e-09
5.50787e-08
1.56021e-09
5.4408e-08
1.52441e-09
5.37498e-08
1.4981e-09
5.3106e-08
1.46738e-09
5.24689e-08
1.4531e-09
5.18472e-08
1.42148e-09
5.12241e-08
1.42206e-09
5.06233e-08
1.37988e-09
5.00095e-08
1.39437e-09
4.9431e-08
1.34819e-09
4.88522e-08
1.24368e-09
4.83394e-08
1.51727e-09
-1.49269e-09
4.74033e-08
1.84559e-07
1.23139e-07
1.82316e-07
1.0205e-07
1.76089e-07
6.63445e-08
1.67733e-07
4.93942e-08
1.59093e-07
3.7778e-08
1.51164e-07
2.98432e-08
1.44068e-07
2.45822e-08
1.37744e-07
2.07433e-08
1.32115e-07
1.77485e-08
1.271e-07
1.53745e-08
1.22611e-07
1.34745e-08
1.18572e-07
1.19303e-08
1.1492e-07
1.06548e-08
1.116e-07
9.58698e-09
1.08568e-07
8.68282e-09
1.05787e-07
7.90985e-09
1.03226e-07
7.24341e-09
1.00857e-07
6.66449e-09
9.86598e-08
6.15825e-09
9.66141e-08
5.71296e-09
9.47037e-08
5.31928e-09
9.29143e-08
4.96964e-09
9.12336e-08
4.65793e-09
8.96508e-08
4.37907e-09
8.81562e-08
4.12892e-09
8.67415e-08
3.90397e-09
8.5399e-08
3.70132e-09
8.41221e-08
3.51848e-09
8.29046e-08
3.35339e-09
8.17412e-08
3.20425e-09
8.06268e-08
3.06955e-09
7.95569e-08
2.948e-09
7.85273e-08
2.83838e-09
7.75341e-08
2.73997e-09
7.65738e-08
2.65132e-09
7.56431e-08
2.57283e-09
7.47391e-08
2.5016e-09
7.38584e-08
2.44093e-09
7.29995e-08
2.38331e-09
7.21578e-08
2.33978e-09
7.13348e-08
2.29043e-09
7.05223e-08
2.26556e-09
6.97285e-08
2.21534e-09
6.89365e-08
2.21399e-09
6.81687e-08
2.14777e-09
6.73926e-08
2.17046e-09
6.66496e-08
2.09113e-09
6.59122e-08
1.98113e-09
6.52433e-08
2.18611e-09
-4.13183e-10
6.41638e-08
1.90387e-07
1.14968e-07
1.91848e-07
1.0059e-07
1.90233e-07
6.79594e-08
1.86131e-07
5.34959e-08
1.80677e-07
4.32322e-08
1.74903e-07
3.56169e-08
1.69184e-07
3.03015e-08
1.63674e-07
2.62529e-08
1.5847e-07
2.29524e-08
1.53614e-07
2.02306e-08
1.49109e-07
1.798e-08
1.44938e-07
1.61015e-08
1.41077e-07
1.45157e-08
1.375e-07
1.31637e-08
1.34182e-07
1.20013e-08
1.31097e-07
1.09946e-08
1.28223e-07
1.0117e-08
1.25541e-07
9.34725e-09
1.2303e-07
8.66845e-09
1.20676e-07
8.06694e-09
1.18464e-07
7.5316e-09
1.1638e-07
7.05334e-09
1.14414e-07
6.62464e-09
1.12553e-07
6.23927e-09
1.1079e-07
5.892e-09
1.09116e-07
5.5784e-09
1.07522e-07
5.29479e-09
1.06003e-07
5.03795e-09
1.04551e-07
4.80521e-09
1.03161e-07
4.59421e-09
1.01828e-07
4.40299e-09
1.00546e-07
4.22983e-09
9.93112e-08
4.07314e-09
9.81192e-08
3.93189e-09
9.69663e-08
3.80428e-09
9.58485e-08
3.69064e-09
9.47627e-08
3.58739e-09
9.37051e-08
3.49851e-09
9.26738e-08
3.41464e-09
9.16641e-08
3.34949e-09
9.06764e-08
3.27806e-09
8.97036e-08
3.23841e-09
8.87512e-08
3.16776e-09
8.78059e-08
3.15925e-09
8.68827e-08
3.07093e-09
8.59616e-08
3.09159e-09
8.50629e-08
2.98988e-09
8.41864e-08
2.85759e-09
8.33556e-08
3.01695e-09
7.90941e-10
8.21514e-08
1.9554e-07
1.07243e-07
1.98243e-07
9.78864e-08
1.98959e-07
6.72437e-08
1.97769e-07
5.46857e-08
1.95124e-07
4.58775e-08
1.91765e-07
3.89758e-08
1.88012e-07
3.40541e-08
1.84038e-07
3.02277e-08
1.7999e-07
2.70001e-08
1.75979e-07
2.42412e-08
1.72074e-07
2.18854e-08
1.68312e-07
1.9863e-08
1.64715e-07
1.8113e-08
1.6129e-07
1.65885e-08
1.58039e-07
1.52529e-08
1.54956e-07
1.4077e-08
1.52036e-07
1.3037e-08
1.4927e-07
1.21132e-08
1.46649e-07
1.12894e-08
1.44164e-07
1.05521e-08
1.41806e-07
9.89011e-09
1.39565e-07
9.29392e-09
1.37434e-07
8.75564e-09
1.35405e-07
8.26855e-09
1.3347e-07
7.82697e-09
1.31622e-07
7.426e-09
1.29856e-07
7.0615e-09
1.28164e-07
6.72982e-09
1.26541e-07
6.42791e-09
1.24982e-07
6.15302e-09
1.23482e-07
5.90287e-09
1.22037e-07
5.67541e-09
1.20641e-07
5.46879e-09
1.19291e-07
5.28174e-09
1.17983e-07
5.11215e-09
1.16714e-07
4.96031e-09
1.15479e-07
4.82211e-09
1.14276e-07
4.70199e-09
1.13101e-07
4.58923e-09
1.11951e-07
4.49938e-09
1.10825e-07
4.40394e-09
1.09718e-07
4.34596e-09
1.08631e-07
4.25461e-09
1.07557e-07
4.23344e-09
1.065e-07
4.12707e-09
1.05458e-07
4.1345e-09
1.04425e-07
4.02233e-09
1.03427e-07
3.85559e-09
1.0246e-07
3.98412e-09
2.10959e-09
1.01141e-07
2.00847e-07
9.99806e-08
2.03772e-07
9.49616e-08
2.05318e-07
6.56976e-08
2.05626e-07
5.43778e-08
2.04788e-07
4.67151e-08
2.03293e-07
4.04715e-08
2.01327e-07
3.60198e-08
1.98975e-07
3.25791e-08
1.96344e-07
2.96317e-08
1.93535e-07
2.70505e-08
1.90628e-07
2.47919e-08
1.87685e-07
2.28065e-08
1.84748e-07
2.10492e-08
1.81851e-07
1.94855e-08
1.79016e-07
1.80886e-08
1.76256e-07
1.68368e-08
1.73581e-07
1.57117e-08
1.70997e-07
1.46977e-08
1.68504e-07
1.37816e-08
1.66105e-07
1.29519e-08
1.63796e-07
1.21989e-08
1.61576e-07
1.15141e-08
1.59441e-07
1.08903e-08
1.57388e-07
1.03212e-08
1.55414e-07
9.80135e-09
1.53514e-07
9.32611e-09
1.51684e-07
8.89134e-09
1.49921e-07
8.49339e-09
1.48219e-07
8.12917e-09
1.46576e-07
7.79584e-09
1.44988e-07
7.49104e-09
1.43451e-07
7.21258e-09
1.41961e-07
6.95853e-09
1.40516e-07
6.72748e-09
1.39111e-07
6.51719e-09
1.37743e-07
6.32792e-09
1.3641e-07
6.15526e-09
1.35108e-07
6.0039e-09
1.33835e-07
5.86235e-09
1.32587e-07
5.7471e-09
1.31363e-07
5.6279e-09
1.30159e-07
5.54984e-09
1.28975e-07
5.43928e-09
1.27807e-07
5.40143e-09
1.26652e-07
5.28181e-09
1.25518e-07
5.26791e-09
1.24387e-07
5.15378e-09
1.23292e-07
4.95097e-09
1.22223e-07
5.0528e-09
3.50912e-09
1.20823e-07
2.06446e-07
9.30668e-08
2.09335e-07
9.20721e-08
2.11028e-07
6.40052e-08
2.11914e-07
5.34911e-08
2.11974e-07
4.66557e-08
2.11575e-07
4.08702e-08
2.1083e-07
3.67645e-08
2.09742e-07
3.36674e-08
2.08347e-07
3.10263e-08
2.06704e-07
2.86935e-08
2.04869e-07
2.66277e-08
2.02889e-07
2.47863e-08
2.00807e-07
2.31308e-08
1.9866e-07
2.16331e-08
1.96475e-07
2.0273e-08
1.94277e-07
1.90346e-08
1.92085e-07
1.79046e-08
1.89911e-07
1.68716e-08
1.87767e-07
1.59257e-08
1.8566e-07
1.50585e-08
1.83597e-07
1.42622e-08
1.8158e-07
1.35303e-08
1.79614e-07
1.2857e-08
1.77698e-07
1.22371e-08
1.75833e-07
1.16662e-08
1.74019e-07
1.114e-08
1.72255e-07
1.06552e-08
1.7054e-07
1.02084e-08
1.68872e-07
9.79695e-09
1.6725e-07
9.41818e-09
1.65671e-07
9.06993e-09
1.64134e-07
8.75015e-09
1.62635e-07
8.45698e-09
1.61173e-07
8.18909e-09
1.59746e-07
7.94426e-09
1.58351e-07
7.7228e-09
1.56987e-07
7.52022e-09
1.55649e-07
7.34135e-09
1.54337e-07
7.17445e-09
1.53048e-07
7.03621e-09
1.5178e-07
6.89619e-09
1.5053e-07
6.79897e-09
1.49297e-07
6.67258e-09
1.48082e-07
6.61686e-09
1.46874e-07
6.48908e-09
1.45692e-07
6.4506e-09
1.44506e-07
6.3395e-09
1.43349e-07
6.10758e-09
1.42219e-07
6.18301e-09
4.94317e-09
1.40785e-07
2.12288e-07
8.64415e-08
2.15148e-07
8.92119e-08
2.16782e-07
6.23715e-08
2.17826e-07
5.24462e-08
2.18233e-07
4.62495e-08
2.18337e-07
4.07652e-08
2.18248e-07
3.68538e-08
2.17933e-07
3.39822e-08
2.17385e-07
3.15744e-08
2.16622e-07
2.94566e-08
2.15668e-07
2.7582e-08
2.14547e-07
2.5907e-08
2.13286e-07
2.43925e-08
2.11908e-07
2.30109e-08
2.10437e-07
2.17435e-08
2.08895e-07
2.05767e-08
2.073e-07
1.94999e-08
2.05667e-07
1.85041e-08
2.04011e-07
1.75819e-08
2.02343e-07
1.6727e-08
2.00671e-07
1.59337e-08
1.99004e-07
1.51972e-08
1.97348e-07
1.4513e-08
1.95708e-07
1.38774e-08
1.94087e-07
1.32868e-08
1.92489e-07
1.27382e-08
1.90915e-07
1.22289e-08
1.89368e-07
1.17562e-08
1.87847e-07
1.1318e-08
1.86353e-07
1.09122e-08
1.84885e-07
1.05369e-08
1.83445e-07
1.01905e-08
1.82031e-07
9.87132e-09
1.80642e-07
9.57829e-09
1.79277e-07
9.30936e-09
1.77934e-07
9.065e-09
1.76614e-07
8.84082e-09
1.75313e-07
8.64173e-09
1.74032e-07
8.4562e-09
1.72767e-07
8.30053e-09
1.71518e-07
8.14532e-09
1.70284e-07
8.0328e-09
1.69061e-07
7.89591e-09
1.67854e-07
7.8243e-09
1.66649e-07
7.69387e-09
1.65467e-07
7.63237e-09
1.64279e-07
7.52752e-09
1.63108e-07
7.27846e-09
1.61963e-07
7.32849e-09
6.36022e-09
1.60546e-07
2.18329e-07
8.00934e-08
2.21201e-07
8.63393e-08
2.22754e-07
6.08189e-08
2.23825e-07
5.13747e-08
2.24341e-07
4.57341e-08
2.24624e-07
4.04823e-08
2.24811e-07
3.66661e-08
2.24876e-07
3.39175e-08
2.24796e-07
3.16549e-08
2.2457e-07
2.96824e-08
2.24203e-07
2.79487e-08
2.23701e-07
2.64089e-08
2.23073e-07
2.50209e-08
2.22329e-07
2.37549e-08
2.21481e-07
2.25909e-08
2.20543e-07
2.15148e-08
2.19527e-07
2.05161e-08
2.18445e-07
1.95864e-08
2.17308e-07
1.87191e-08
2.16126e-07
1.79089e-08
2.14908e-07
1.71511e-08
2.13664e-07
1.64419e-08
2.12399e-07
1.57779e-08
2.1112e-07
1.51562e-08
2.09833e-07
1.45742e-08
2.08541e-07
1.40297e-08
2.0725e-07
1.35205e-08
2.05961e-07
1.3045e-08
2.04678e-07
1.26014e-08
2.03402e-07
1.21881e-08
2.02135e-07
1.1804e-08
2.00878e-07
1.14476e-08
1.99631e-07
1.11177e-08
1.98396e-07
1.08135e-08
1.97172e-07
1.05333e-08
1.95959e-07
1.02778e-08
1.94757e-07
1.00427e-08
1.93566e-07
9.83315e-09
1.92384e-07
9.63796e-09
1.91212e-07
9.47276e-09
1.90047e-07
9.31005e-09
1.88892e-07
9.18842e-09
1.8774e-07
9.04786e-09
1.86599e-07
8.96508e-09
1.85455e-07
8.83798e-09
1.84328e-07
8.7588e-09
1.83193e-07
8.66292e-09
1.8206e-07
8.41097e-09
1.8095e-07
8.43892e-09
7.70752e-09
1.79603e-07
2.24557e-07
7.40292e-08
2.27465e-07
8.34313e-08
2.2895e-07
5.9334e-08
2.30027e-07
5.02983e-08
2.30583e-07
4.51776e-08
2.30915e-07
4.01508e-08
2.31192e-07
3.6389e-08
2.31405e-07
3.37045e-08
2.31534e-07
3.15259e-08
2.31577e-07
2.96395e-08
2.31533e-07
2.79927e-08
2.314e-07
2.65418e-08
2.31177e-07
2.52435e-08
2.30866e-07
2.40658e-08
2.3047e-07
2.29869e-08
2.29994e-07
2.19913e-08
2.29442e-07
2.10674e-08
2.28822e-07
2.02066e-08
2.2814e-07
1.94017e-08
2.27401e-07
1.86473e-08
2.26614e-07
1.79389e-08
2.25783e-07
1.7273e-08
2.24914e-07
1.66464e-08
2.24013e-07
1.60568e-08
2.23086e-07
1.55019e-08
2.22135e-07
1.49799e-08
2.21167e-07
1.44893e-08
2.20183e-07
1.40287e-08
2.19187e-07
1.35969e-08
2.18183e-07
1.31929e-08
2.17171e-07
1.28156e-08
2.16154e-07
1.24642e-08
2.15134e-07
1.21378e-08
2.14112e-07
1.18359e-08
2.13088e-07
1.15569e-08
2.12064e-07
1.13019e-08
2.1104e-07
1.1067e-08
2.10016e-07
1.08571e-08
2.08992e-07
1.06618e-08
2.07969e-07
1.04958e-08
2.06945e-07
1.03339e-08
2.05923e-07
1.02104e-08
2.04897e-07
1.00736e-08
2.03877e-07
9.98594e-09
2.02846e-07
9.86811e-09
2.01826e-07
9.77892e-09
2.00795e-07
9.69468e-09
1.99752e-07
9.45403e-09
1.98725e-07
9.46562e-09
8.93628e-09
1.97496e-07
2.30978e-07
6.82569e-08
2.3393e-07
8.04795e-08
2.35355e-07
5.79085e-08
2.36438e-07
4.9216e-08
2.37027e-07
4.45879e-08
2.37374e-07
3.98044e-08
2.37672e-07
3.60907e-08
2.37931e-07
3.34458e-08
2.38136e-07
3.13213e-08
2.38288e-07
2.9487e-08
2.3839e-07
2.78904e-08
2.3844e-07
2.64916e-08
2.38436e-07
2.52483e-08
2.38374e-07
2.41276e-08
2.38254e-07
2.31067e-08
2.38076e-07
2.21692e-08
2.37841e-07
2.13027e-08
2.3755e-07
2.04976e-08
2.37205e-07
1.97462e-08
2.3681e-07
1.90426e-08
2.36367e-07
1.8382e-08
2.35879e-07
1.77605e-08
2.35351e-07
1.7175e-08
2.34785e-07
1.6623e-08
2.34184e-07
1.61023e-08
2.33553e-07
1.56111e-08
2.32894e-07
1.51483e-08
2.3221e-07
1.47124e-08
2.31505e-07
1.43027e-08
2.30779e-07
1.39181e-08
2.30037e-07
1.35582e-08
2.29279e-07
1.32222e-08
2.28507e-07
1.29095e-08
2.27723e-07
1.26198e-08
2.26928e-07
1.23518e-08
2.26123e-07
1.21067e-08
2.25309e-07
1.18809e-08
2.24487e-07
1.16792e-08
2.23657e-07
1.14921e-08
2.2282e-07
1.13328e-08
2.21975e-07
1.11793e-08
2.21124e-07
1.10608e-08
2.20263e-07
1.09343e-08
2.19401e-07
1.08481e-08
2.18525e-07
1.07447e-08
2.1765e-07
1.06537e-08
2.16761e-07
1.05835e-08
2.15849e-07
1.03665e-08
2.14945e-07
1.03689e-08
1.00083e-08
2.13873e-07
2.37599e-07
6.27824e-08
2.40597e-07
7.74816e-08
2.41966e-07
5.65403e-08
2.43052e-07
4.8129e-08
2.43679e-07
4.39614e-08
2.44039e-07
3.94449e-08
2.44342e-07
3.57873e-08
2.44613e-07
3.3175e-08
2.4484e-07
3.10942e-08
2.45028e-07
2.92983e-08
2.45185e-07
2.77337e-08
2.45311e-07
2.63661e-08
2.45404e-07
2.51553e-08
2.45463e-07
2.40687e-08
2.45486e-07
2.30834e-08
2.45472e-07
2.21828e-08
2.45421e-07
2.13543e-08
2.45331e-07
2.05876e-08
2.45202e-07
1.98748e-08
2.45035e-07
1.92096e-08
2.4483e-07
1.85867e-08
2.44589e-07
1.80019e-08
2.44312e-07
1.74519e-08
2.44001e-07
1.69337e-08
2.43658e-07
1.64452e-08
2.43285e-07
1.59845e-08
2.42883e-07
1.55502e-08
2.42454e-07
1.51411e-08
2.42001e-07
1.47563e-08
2.41524e-07
1.4395e-08
2.41025e-07
1.40566e-08
2.40507e-07
1.37408e-08
2.3997e-07
1.34467e-08
2.39415e-07
1.31746e-08
2.38844e-07
1.2923e-08
2.38257e-07
1.26933e-08
2.37656e-07
1.24822e-08
2.37041e-07
1.22942e-08
2.36412e-07
1.21206e-08
2.35772e-07
1.19734e-08
2.35118e-07
1.18335e-08
2.34453e-07
1.17248e-08
2.33774e-07
1.16134e-08
2.33089e-07
1.1534e-08
2.32385e-07
1.14481e-08
2.31676e-07
1.13629e-08
2.30951e-07
1.13083e-08
2.30194e-07
1.11237e-08
2.29438e-07
1.11245e-08
1.09016e-08
2.28545e-07
2.44429e-07
5.76093e-08
2.47467e-07
7.44441e-08
2.48786e-07
5.52212e-08
2.49873e-07
4.7042e-08
2.50538e-07
4.32965e-08
2.50914e-07
3.90687e-08
2.51221e-07
3.548e-08
2.51497e-07
3.28992e-08
2.51731e-07
3.086e-08
2.5193e-07
2.90991e-08
2.52104e-07
2.75605e-08
2.52255e-07
2.62151e-08
2.52384e-07
2.50257e-08
2.52492e-07
2.39606e-08
2.52578e-07
2.29973e-08
2.52642e-07
2.21195e-08
2.52682e-07
2.13145e-08
2.52697e-07
2.05723e-08
2.52687e-07
1.98848e-08
2.52651e-07
1.92453e-08
2.52589e-07
1.86486e-08
2.52501e-07
1.80902e-08
2.52386e-07
1.75664e-08
2.52246e-07
1.70743e-08
2.5208e-07
1.66115e-08
2.51888e-07
1.61758e-08
2.51673e-07
1.57657e-08
2.51434e-07
1.538e-08
2.51172e-07
1.50178e-08
2.50889e-07
1.46782e-08
2.50585e-07
1.43606e-08
2.50261e-07
1.40647e-08
2.49918e-07
1.37898e-08
2.49557e-07
1.3536e-08
2.49178e-07
1.33021e-08
2.48782e-07
1.30894e-08
2.48369e-07
1.28948e-08
2.47941e-07
1.27225e-08
2.47497e-07
1.25648e-08
2.47038e-07
1.24319e-08
2.46564e-07
1.23079e-08
2.46077e-07
1.22117e-08
2.45573e-07
1.21174e-08
2.45059e-07
1.20481e-08
2.44526e-07
1.1981e-08
2.43982e-07
1.19068e-08
2.43422e-07
1.18681e-08
2.42825e-07
1.17211e-08
2.42223e-07
1.17267e-08
1.16137e-08
2.4151e-07
2.51477e-07
5.27394e-08
2.54544e-07
7.13765e-08
2.55824e-07
5.39409e-08
2.56906e-07
4.59605e-08
2.57608e-07
4.25942e-08
2.58004e-07
3.86728e-08
2.58317e-07
3.51673e-08
2.58597e-07
3.26188e-08
2.58836e-07
3.06212e-08
2.59039e-07
2.8896e-08
2.59217e-07
2.73825e-08
2.59376e-07
2.60567e-08
2.59517e-07
2.48848e-08
2.59641e-07
2.3836e-08
2.5975e-07
2.28883e-08
2.59844e-07
2.20258e-08
2.59922e-07
2.12363e-08
2.59985e-07
2.05099e-08
2.60031e-07
1.98386e-08
2.6006e-07
1.92159e-08
2.60072e-07
1.86365e-08
2.60067e-07
1.80957e-08
2.60043e-07
1.75899e-08
2.60001e-07
1.71161e-08
2.59941e-07
1.66715e-08
2.59863e-07
1.62542e-08
2.59766e-07
1.58624e-08
2.59652e-07
1.54947e-08
2.59519e-07
1.51503e-08
2.59369e-07
1.48282e-08
2.59202e-07
1.45278e-08
2.59018e-07
1.42488e-08
2.58817e-07
1.39904e-08
2.586e-07
1.37529e-08
2.58368e-07
1.35349e-08
2.58119e-07
1.33379e-08
2.57855e-07
1.31588e-08
2.57576e-07
1.30015e-08
2.57282e-07
1.28592e-08
2.56973e-07
1.27403e-08
2.56649e-07
1.26321e-08
2.56312e-07
1.25486e-08
2.55958e-07
1.24712e-08
2.55593e-07
1.24132e-08
2.5521e-07
1.2364e-08
2.54813e-07
1.23038e-08
2.54401e-07
1.22805e-08
2.5395e-07
1.21721e-08
2.53489e-07
1.21874e-08
1.21597e-08
2.52943e-07
2.5875e-07
4.81729e-08
2.61837e-07
6.82888e-08
2.63089e-07
5.26888e-08
2.6416e-07
4.48896e-08
2.64897e-07
4.18571e-08
2.65315e-07
3.82553e-08
2.65634e-07
3.48483e-08
2.65919e-07
3.23332e-08
2.66163e-07
3.03774e-08
2.6637e-07
2.86895e-08
2.6655e-07
2.72021e-08
2.66711e-07
2.58959e-08
2.66855e-07
2.47407e-08
2.66984e-07
2.37067e-08
2.671e-07
2.27724e-08
2.67204e-07
2.19223e-08
2.67295e-07
2.11447e-08
2.67376e-07
2.04299e-08
2.67444e-07
1.97701e-08
2.67501e-07
1.9159e-08
2.67546e-07
1.85914e-08
2.67579e-07
1.80627e-08
2.676e-07
1.75692e-08
2.67608e-07
1.71079e-08
2.67604e-07
1.6676e-08
2.67586e-07
1.62715e-08
2.67556e-07
1.58926e-08
2.67513e-07
1.5538e-08
2.67456e-07
1.52065e-08
2.67387e-07
1.48974e-08
2.67305e-07
1.461e-08
2.6721e-07
1.43439e-08
2.67102e-07
1.40984e-08
2.66981e-07
1.38738e-08
2.66847e-07
1.36688e-08
2.667e-07
1.34847e-08
2.66541e-07
1.33186e-08
2.66368e-07
1.31739e-08
2.66182e-07
1.30449e-08
2.65984e-07
1.29383e-08
2.65773e-07
1.2844e-08
2.65549e-07
1.2772e-08
2.65311e-07
1.27096e-08
2.65061e-07
1.26627e-08
2.64796e-07
1.2629e-08
2.64516e-07
1.25839e-08
2.64222e-07
1.25743e-08
2.63892e-07
1.25027e-08
2.63548e-07
1.25307e-08
1.25675e-08
2.63141e-07
2.66257e-07
4.3908e-08
2.69354e-07
6.51915e-08
2.70589e-07
5.14544e-08
2.71645e-07
4.38337e-08
2.72413e-07
4.10886e-08
2.72854e-07
3.78143e-08
2.7318e-07
3.4522e-08
2.73471e-07
3.20425e-08
2.7372e-07
3.01282e-08
2.7393e-07
2.84793e-08
2.74113e-07
2.70196e-08
2.74275e-07
2.57336e-08
2.74421e-07
2.45953e-08
2.74551e-07
2.3576e-08
2.74669e-07
2.26547e-08
2.74775e-07
2.18163e-08
2.74871e-07
2.10493e-08
2.74956e-07
2.03445e-08
2.75032e-07
1.96944e-08
2.75098e-07
1.90927e-08
2.75155e-07
1.85342e-08
2.75203e-07
1.80146e-08
2.75242e-07
1.75303e-08
2.75272e-07
1.70782e-08
2.75292e-07
1.66555e-08
2.75304e-07
1.62603e-08
2.75305e-07
1.58907e-08
2.75298e-07
1.55454e-08
2.75281e-07
1.52233e-08
2.75255e-07
1.49236e-08
2.75219e-07
1.46457e-08
2.75174e-07
1.43892e-08
2.75119e-07
1.41534e-08
2.75054e-07
1.39385e-08
2.7498e-07
1.37434e-08
2.74895e-07
1.35692e-08
2.748e-07
1.34133e-08
2.74696e-07
1.32787e-08
2.7458e-07
1.31604e-08
2.74455e-07
1.30637e-08
2.74318e-07
1.29809e-08
2.74171e-07
1.29185e-08
2.74013e-07
1.28685e-08
2.73844e-07
1.28315e-08
2.73662e-07
1.28108e-08
2.73466e-07
1.27803e-08
2.73257e-07
1.27827e-08
2.73016e-07
1.27443e-08
2.7276e-07
1.27863e-08
1.28706e-08
2.72457e-07
2.74008e-07
3.99413e-08
2.77104e-07
6.20958e-08
2.78331e-07
5.02276e-08
2.79368e-07
4.27963e-08
2.80164e-07
4.02928e-08
2.8063e-07
3.73483e-08
2.80964e-07
3.41876e-08
2.8126e-07
3.17468e-08
2.81515e-07
2.98735e-08
2.81729e-07
2.8265e-08
2.81914e-07
2.68345e-08
2.82078e-07
2.55697e-08
2.82224e-07
2.44487e-08
2.82356e-07
2.34446e-08
2.82474e-07
2.25365e-08
2.82581e-07
2.17097e-08
2.82677e-07
2.09533e-08
2.82763e-07
2.02582e-08
2.8284e-07
1.96172e-08
2.82909e-07
1.9024e-08
2.82969e-07
1.84737e-08
2.83022e-07
1.79621e-08
2.83066e-07
1.74856e-08
2.83103e-07
1.70411e-08
2.83133e-07
1.6626e-08
2.83155e-07
1.62381e-08
2.8317e-07
1.58758e-08
2.83178e-07
1.55378e-08
2.83178e-07
1.52228e-08
2.83171e-07
1.49303e-08
2.83158e-07
1.46596e-08
2.83136e-07
1.44103e-08
2.83108e-07
1.41818e-08
2.83072e-07
1.39744e-08
2.83029e-07
1.37869e-08
2.82978e-07
1.36202e-08
2.82919e-07
1.34724e-08
2.82852e-07
1.33455e-08
2.82776e-07
1.32358e-08
2.82693e-07
1.31468e-08
2.82601e-07
1.30733e-08
2.82501e-07
1.30187e-08
2.8239e-07
1.29787e-08
2.82271e-07
1.29505e-08
2.82142e-07
1.294e-08
2.81999e-07
1.29231e-08
2.81846e-07
1.2936e-08
2.81664e-07
1.29265e-08
2.81467e-07
1.29831e-08
1.31015e-08
2.81236e-07
2.82011e-07
3.62674e-08
2.85094e-07
5.9013e-08
2.86323e-07
4.89987e-08
2.87339e-07
4.17802e-08
2.88158e-07
3.94743e-08
2.8865e-07
3.68562e-08
2.88994e-07
3.38438e-08
2.89294e-07
3.14461e-08
2.89555e-07
2.96132e-08
2.89773e-07
2.80463e-08
2.89961e-07
2.66466e-08
2.90127e-07
2.54039e-08
2.90275e-07
2.43009e-08
2.90407e-07
2.33124e-08
2.90526e-07
2.24179e-08
2.90632e-07
2.16032e-08
2.90728e-07
2.08575e-08
2.90814e-07
2.01722e-08
2.90891e-07
1.95402e-08
2.9096e-07
1.89555e-08
2.9102e-07
1.84132e-08
2.91073e-07
1.79093e-08
2.91118e-07
1.74401e-08
2.91157e-07
1.70026e-08
2.91189e-07
1.65943e-08
2.91214e-07
1.62131e-08
2.91232e-07
1.58572e-08
2.91245e-07
1.55254e-08
2.91251e-07
1.52165e-08
2.91251e-07
1.493e-08
2.91246e-07
1.46652e-08
2.91234e-07
1.44219e-08
2.91216e-07
1.41994e-08
2.91193e-07
1.39979e-08
2.91163e-07
1.38166e-08
2.91127e-07
1.36561e-08
2.91085e-07
1.35147e-08
2.91036e-07
1.33941e-08
2.90981e-07
1.32913e-08
2.90919e-07
1.32087e-08
2.9085e-07
1.31427e-08
2.90774e-07
1.30947e-08
2.90689e-07
1.30629e-08
2.90597e-07
1.30424e-08
2.90497e-07
1.30404e-08
2.90384e-07
1.3036e-08
2.90262e-07
1.30584e-08
2.90115e-07
1.30735e-08
2.89954e-07
1.31444e-08
1.32872e-08
2.89768e-07
2.90277e-07
3.28793e-08
2.93335e-07
5.59549e-08
2.94575e-07
4.77589e-08
2.95568e-07
4.07872e-08
2.96404e-07
3.86384e-08
2.96923e-07
3.63368e-08
2.97278e-07
3.34892e-08
2.97583e-07
3.11405e-08
2.97849e-07
2.93472e-08
2.98073e-07
2.78227e-08
2.98264e-07
2.64555e-08
2.98432e-07
2.52361e-08
2.98581e-07
2.41517e-08
2.98714e-07
2.31793e-08
2.98833e-07
2.22989e-08
2.9894e-07
2.14965e-08
2.99035e-07
2.07619e-08
2.99121e-07
2.00866e-08
2.99197e-07
1.94638e-08
2.99265e-07
1.88878e-08
2.99324e-07
1.83536e-08
2.99376e-07
1.78573e-08
2.99421e-07
1.73954e-08
2.99459e-07
1.69649e-08
2.9949e-07
1.65633e-08
2.99515e-07
1.61884e-08
2.99533e-07
1.58387e-08
2.99546e-07
1.55127e-08
2.99553e-07
1.52095e-08
2.99554e-07
1.49286e-08
2.9955e-07
1.46692e-08
2.99541e-07
1.44311e-08
2.99526e-07
1.4214e-08
2.99507e-07
1.40178e-08
2.99481e-07
1.38419e-08
2.99451e-07
1.36867e-08
2.99414e-07
1.3551e-08
2.99372e-07
1.34358e-08
2.99325e-07
1.3339e-08
2.99271e-07
1.32621e-08
2.99212e-07
1.32025e-08
2.99146e-07
1.31604e-08
2.99073e-07
1.31355e-08
2.98994e-07
1.31222e-08
2.98906e-07
1.31274e-08
2.98808e-07
1.31346e-08
2.987e-07
1.31661e-08
2.98571e-07
1.32022e-08
2.98429e-07
1.3287e-08
1.34472e-08
2.98269e-07
2.98814e-07
2.97681e-08
3.01835e-07
5.29335e-08
3.03094e-07
4.65002e-08
3.04063e-07
3.98182e-08
3.04911e-07
3.77906e-08
3.05458e-07
3.57899e-08
3.05824e-07
3.31225e-08
3.06135e-07
3.08299e-08
3.06406e-07
2.90756e-08
3.06635e-07
2.75941e-08
3.0683e-07
2.62611e-08
3.07e-07
2.50661e-08
3.0715e-07
2.4001e-08
3.07285e-07
2.30451e-08
3.07404e-07
2.21792e-08
3.07511e-07
2.13896e-08
3.07607e-07
2.06664e-08
3.07692e-07
2.00014e-08
3.07768e-07
1.93881e-08
3.07834e-07
1.88209e-08
3.07893e-07
1.8295e-08
3.07944e-07
1.78065e-08
3.07987e-07
1.73521e-08
3.08023e-07
1.69286e-08
3.08053e-07
1.65337e-08
3.08076e-07
1.61652e-08
3.08093e-07
1.58215e-08
3.08105e-07
1.55014e-08
3.0811e-07
1.52038e-08
3.08111e-07
1.49282e-08
3.08106e-07
1.46741e-08
3.08096e-07
1.44412e-08
3.08081e-07
1.42291e-08
3.0806e-07
1.4038e-08
3.08035e-07
1.38672e-08
3.08005e-07
1.37171e-08
3.07969e-07
1.35866e-08
3.07928e-07
1.34766e-08
3.07882e-07
1.33853e-08
3.07831e-07
1.33136e-08
3.07773e-07
1.32599e-08
3.0771e-07
1.32235e-08
3.07641e-07
1.32048e-08
3.07565e-07
1.31984e-08
3.07482e-07
1.32104e-08
3.07388e-07
1.32285e-08
3.07285e-07
1.32691e-08
3.07164e-07
1.33233e-08
3.07029e-07
1.34214e-08
1.35942e-08
3.06882e-07
3.07632e-07
2.69233e-08
3.10605e-07
4.9961e-08
3.11889e-07
4.52161e-08
3.12834e-07
3.88731e-08
3.13688e-07
3.69361e-08
3.14262e-07
3.52157e-08
3.14643e-07
3.27419e-08
3.14959e-07
3.05141e-08
3.15236e-07
2.87986e-08
3.1547e-07
2.736e-08
3.15668e-07
2.60629e-08
3.15841e-07
2.48936e-08
3.15993e-07
2.38484e-08
3.16129e-07
2.29097e-08
3.16249e-07
2.20588e-08
3.16356e-07
2.12824e-08
3.16452e-07
2.05708e-08
3.16537e-07
1.99165e-08
3.16612e-07
1.9313e-08
3.16678e-07
1.87548e-08
3.16736e-07
1.82374e-08
3.16785e-07
1.7757e-08
3.16827e-07
1.73101e-08
3.16862e-07
1.68938e-08
3.1689e-07
1.65057e-08
3.16911e-07
1.61438e-08
3.16927e-07
1.58063e-08
3.16936e-07
1.5492e-08
3.1694e-07
1.52001e-08
3.16938e-07
1.49299e-08
3.16931e-07
1.4681e-08
3.16919e-07
1.44532e-08
3.16902e-07
1.42462e-08
3.1688e-07
1.406e-08
3.16853e-07
1.38943e-08
3.16821e-07
1.37492e-08
3.16784e-07
1.36239e-08
3.16741e-07
1.35189e-08
3.16694e-07
1.3433e-08
3.16641e-07
1.33665e-08
3.16582e-07
1.33185e-08
3.16518e-07
1.32876e-08
3.16448e-07
1.32749e-08
3.16371e-07
1.32754e-08
3.16287e-07
1.32941e-08
3.16193e-07
1.33225e-08
3.1609e-07
1.33725e-08
3.15971e-07
1.34425e-08
3.15839e-07
1.35534e-08
1.37358e-08
3.15697e-07
3.16742e-07
2.43328e-08
3.19653e-07
4.70494e-08
3.20968e-07
4.3901e-08
3.21891e-07
3.79509e-08
3.22746e-07
3.60802e-08
3.23347e-07
3.46154e-08
3.23743e-07
3.2346e-08
3.24064e-07
3.01927e-08
3.24347e-07
2.85161e-08
3.24586e-07
2.71205e-08
3.24788e-07
2.58607e-08
3.24964e-07
2.47183e-08
3.25118e-07
2.36939e-08
3.25255e-07
2.27728e-08
3.25376e-07
2.19374e-08
3.25484e-07
2.11746e-08
3.2558e-07
2.04752e-08
3.25665e-07
1.98318e-08
3.25739e-07
1.92383e-08
3.25805e-07
1.86894e-08
3.25861e-07
1.81807e-08
3.2591e-07
1.77085e-08
3.2595e-07
1.72694e-08
3.25984e-07
1.68605e-08
3.2601e-07
1.64794e-08
3.2603e-07
1.61241e-08
3.26043e-07
1.57929e-08
3.26051e-07
1.54846e-08
3.26052e-07
1.51984e-08
3.26049e-07
1.49337e-08
3.26039e-07
1.46901e-08
3.26025e-07
1.44675e-08
3.26006e-07
1.42656e-08
3.25981e-07
1.40845e-08
3.25952e-07
1.39238e-08
3.25917e-07
1.37838e-08
3.25877e-07
1.36637e-08
3.25832e-07
1.35637e-08
3.25782e-07
1.34833e-08
3.25727e-07
1.3422e-08
3.25666e-07
1.33795e-08
3.25599e-07
1.33544e-08
3.25526e-07
1.33476e-08
3.25446e-07
1.33552e-08
3.2536e-07
1.33807e-08
3.25263e-07
1.34191e-08
3.25157e-07
1.34786e-08
3.25037e-07
1.35627e-08
3.24905e-07
1.36857e-08
1.38758e-08
3.24765e-07
3.26152e-07
2.19833e-08
3.28991e-07
4.42103e-08
3.30341e-07
4.25514e-08
3.31242e-07
3.70497e-08
3.32095e-07
3.52278e-08
3.32719e-07
3.39906e-08
3.33132e-07
3.19332e-08
3.3346e-07
2.9865e-08
3.33748e-07
2.82283e-08
3.33993e-07
2.68751e-08
3.342e-07
2.5654e-08
3.34378e-07
2.45401e-08
3.34535e-07
2.35372e-08
3.34673e-07
2.26343e-08
3.34796e-07
2.18149e-08
3.34904e-07
2.10662e-08
3.35e-07
2.03792e-08
3.35085e-07
1.97471e-08
3.35159e-07
1.91639e-08
3.35224e-07
1.86246e-08
3.3528e-07
1.81249e-08
3.35327e-07
1.76611e-08
3.35366e-07
1.723e-08
3.35398e-07
1.68286e-08
3.35423e-07
1.64547e-08
3.35441e-07
1.61061e-08
3.35453e-07
1.57813e-08
3.35458e-07
1.54791e-08
3.35458e-07
1.51987e-08
3.35452e-07
1.49396e-08
3.3544e-07
1.47015e-08
3.35424e-07
1.44841e-08
3.35402e-07