/*--------------------------------*- C++ -*----------------------------------*\
  =========                 |
  \\      /  F ield         | OpenFOAM: The Open Source CFD Toolbox
   \\    /   O peration     | Website:  https://openfoam.org
    \\  /    A nd           | Version:  7
     \\/     M anipulation  |
\*---------------------------------------------------------------------------*/
FoamFile
{
    version     2.0;
    format      ascii;
    class       volScalarField;
    location    "0.39";
    object      p;
}
// * * * * * * * * * * * * * * * * * * * * * * * * * * * * * * * * * * * * * //

dimensions      [0 2 -2 0 0 0 0];

internalField   nonuniform List<scalar> 
70000
(
0.0927677
0.0158773
0.00272933
0.00517805
0.00543365
0.00437926
0.00340965
0.0026663
0.0020405
0.00148254
0.000978772
0.00052148
0.000103348
-0.000282053
-0.000640008
-0.000974822
-0.00129003
-0.00158856
-0.00187289
-0.00214511
-0.002407
-0.00266013
-0.00290582
-0.00314524
-0.00337942
-0.00360926
-0.00383555
-0.00405901
-0.00428025
-0.00449984
-0.00471822
-0.00493582
-0.0051528
-0.00536943
-0.00558545
-0.00580087
-0.00601461
-0.00622642
-0.00643363
-0.00663573
-0.00682767
-0.00700676
-0.00717002
-0.007298
-0.00741965
-0.0074446
-0.00752524
-0.00739153
-0.00747249
-0.00741407
0.0884675
0.0162393
0.0029319
0.00527265
0.00548805
0.00441501
0.00343755
0.00268936
0.00205986
0.00149909
0.000993184
0.00053421
0.000114719
-0.0002718
-0.00063069
-0.000966298
-0.00128218
-0.0015813
-0.00186614
-0.00213881
-0.00240111
-0.0026546
-0.00290061
-0.00314032
-0.00337476
-0.00360485
-0.00383136
-0.00405503
-0.00427646
-0.00449623
-0.00471478
-0.00493254
-0.00514969
-0.00536648
-0.00558265
-0.00579822
-0.00601213
-0.0062241
-0.00643148
-0.00663375
-0.00682589
-0.00700513
-0.00716866
-0.00729669
-0.00741867
-0.00744338
-0.00752413
-0.00739056
-0.00746537
-0.00733254
0.0848622
0.0171617
0.00327648
0.00540128
0.00556274
0.00446003
0.00346993
0.0027156
0.00208174
0.00151761
0.00100916
0.000548236
0.000127196
-0.000260586
-0.000620525
-0.000957015
-0.00127365
-0.00157342
-0.00185882
-0.00213199
-0.00239472
-0.0026486
-0.00289496
-0.00313498
-0.00336971
-0.00360005
-0.0038268
-0.00405069
-0.00427232
-0.00449229
-0.00471102
-0.00492895
-0.00514627
-0.00536322
-0.00557956
-0.0057953
-0.00600937
-0.00622153
-0.00642911
-0.00663159
-0.00682398
-0.00700345
-0.00716734
-0.00729552
-0.00741808
-0.00744252
-0.00752357
-0.00738977
-0.00744023
-0.00722132
0.0817576
0.0182609
0.00375296
0.0055739
0.00566396
0.00451803
0.00350819
0.00274557
0.0021064
0.00153819
0.00102668
0.000563449
0.000140621
-0.000248593
-0.000609706
-0.000947175
-0.00126464
-0.00156511
-0.00185113
-0.00212482
-0.00238802
-0.00264231
-0.00288904
-0.00312939
-0.00336441
-0.00359502
-0.00382201
-0.00404613
-0.00426797
-0.00448813
-0.00470704
-0.00492514
-0.00514262
-0.00535974
-0.00557623
-0.00579214
-0.00600639
-0.00621874
-0.00642652
-0.00662925
-0.00682192
-0.00700172
-0.00716605
-0.0072946
-0.0074178
-0.00744254
-0.00752292
-0.00739038
-0.00739869
-0.00708302
0.0788014
0.0193548
0.00432653
0.00579217
0.00579857
0.00459648
0.00355726
0.00278261
0.00213645
0.0015629
0.00104737
0.000581169
0.000156085
-0.000234905
-0.000597453
-0.000936102
-0.00125455
-0.00155586
-0.00184259
-0.0021169
-0.00238063
-0.00263539
-0.00288253
-0.00312325
-0.0033586
-0.0035895
-0.00381676
-0.00404111
-0.00426317
-0.00448352
-0.00470262
-0.00492089
-0.00513853
-0.0053558
-0.00557245
-0.00578851
-0.00600293
-0.00621546
-0.00642346
-0.00662645
-0.00681945
-0.00699964
-0.00716452
-0.00729364
-0.00741759
-0.00744342
-0.00752173
-0.00739222
-0.00734425
-0.00692185
0.0758942
0.020387
0.0049505
0.00603668
0.00596073
0.00469701
0.00361983
0.00282897
0.00217385
0.00159348
0.00107274
0.000602687
0.000174701
-0.000218554
-0.000582918
-0.00092305
-0.00124273
-0.00154507
-0.00183267
-0.00210773
-0.00237211
-0.00262743
-0.00287506
-0.00311621
-0.00335194
-0.00358318
-0.00381074
-0.00403535
-0.00425765
-0.00447822
-0.0046975
-0.00491595
-0.00513374
-0.00535115
-0.00556794
-0.00578414
-0.0059987
-0.0062114
-0.00641961
-0.00662283
-0.00681621
-0.0069968
-0.00716239
-0.00729224
-0.00741709
-0.00744494
-0.0075196
-0.00739478
-0.00728167
-0.00675091
0.073029
0.0213403
0.0055915
0.00628624
0.00613715
0.0048149
0.00369484
0.00288458
0.00221898
0.00163057
0.00110353
0.000628765
0.000197207
-0.000198842
-0.00056545
-0.000907416
-0.00122861
-0.00153223
-0.0018209
-0.00209688
-0.00236205
-0.00261805
-0.00286627
-0.00310794
-0.00334412
-0.00357576
-0.00380366
-0.00402858
-0.00425114
-0.00447194
-0.00469142
-0.00491004
-0.00512798
-0.00534552
-0.00556243
-0.00577872
-0.00599341
-0.00620621
-0.00641461
-0.00661803
-0.0068118
-0.00699278
-0.00715921
-0.00728998
-0.00741582
-0.00744685
-0.00751623
-0.00739756
-0.00721682
-0.00658605
0.0702147
0.0222084
0.00623339
0.00652914
0.00631692
0.00494359
0.00377888
0.00294738
0.00227064
0.00167358
0.00113955
0.000659435
0.000223776
-0.00017551
-0.000544739
-0.000888862
-0.00121186
-0.00151698
-0.00180694
-0.00208401
-0.00235012
-0.00260693
-0.00285586
-0.00309814
-0.00333485
-0.00356695
-0.00379526
-0.00402053
-0.00424338
-0.00446443
-0.00468412
-0.00490291
-0.00512099
-0.00533863
-0.00555562
-0.00577197
-0.00598673
-0.00619958
-0.00640812
-0.00661166
-0.00680582
-0.00698714
-0.00715454
-0.00728643
-0.0074133
-0.00744878
-0.00751154
-0.00740018
-0.00715621
-0.00644241
0.0674579
0.0229886
0.00687067
0.00676151
0.00649388
0.00507819
0.00386864
0.00301482
0.00232684
0.00172107
0.0011798
0.000694024
0.000253975
-0.000148816
-0.000520913
-0.00086742
-0.00119242
-0.00149924
-0.00179064
-0.00206896
-0.00233615
-0.00259389
-0.00284363
-0.00308661
-0.00332393
-0.00355656
-0.00378532
-0.00401097
-0.00423415
-0.00445547
-0.00467538
-0.00489433
-0.00511253
-0.00533024
-0.00554728
-0.00576363
-0.00597838
-0.00619121
-0.00639981
-0.00660337
-0.00679791
-0.00697952
-0.00714795
-0.00728123
-0.00740905
-0.00745031
-0.00750575
-0.00740256
-0.00710619
-0.00633442
0.064762
0.0236801
0.00750191
0.0069832
0.00666512
0.00521589
0.00396204
0.00308494
0.00238577
0.0017715
0.00122301
0.000731513
0.000286988
-0.000119401
-0.000494469
-0.000843469
-0.00117058
-0.00147921
-0.00177216
-0.00205182
-0.00232018
-0.00257893
-0.00282955
-0.0030733
-0.00331129
-0.00354449
-0.00377374
-0.00399981
-0.00422334
-0.00444494
-0.00466506
-0.00488416
-0.00510246
-0.0053202
-0.00553722
-0.0057535
-0.00596819
-0.00618088
-0.00638946
-0.00659293
-0.00678779
-0.00696963
-0.00713909
-0.00727409
-0.00740277
-0.00745102
-0.00749934
-0.00740509
-0.0070721
-0.0062727
0.0621303
0.0242834
0.00812617
0.00719523
0.00682922
0.00535524
0.00405808
0.00315665
0.00244625
0.00182374
0.00126814
0.000770948
0.000321963
-8.80165e-05
-0.000466062
-0.000817573
-0.00114682
-0.00145729
-0.00175184
-0.00203288
-0.00230244
-0.00256225
-0.00281378
-0.00305834
-0.00329702
-0.00353082
-0.00376058
-0.00398708
-0.00421096
-0.00443283
-0.00465315
-0.00487238
-0.00509073
-0.00530845
-0.0055254
-0.00574153
-0.00595605
-0.00616851
-0.00637697
-0.00658024
-0.00677534
-0.00695736
-0.0071278
-0.00726487
-0.00739435
-0.00745059
-0.00749302
-0.00740868
-0.00705798
-0.00626481
0.0595658
0.0247988
0.00874186
0.00739882
0.00698531
0.0054953
0.00415639
0.00322949
0.00250767
0.00187713
0.00131453
0.000811672
0.000358256
-5.52814e-05
-0.000436275
-0.000790275
-0.00112165
-0.00143395
-0.00173008
-0.0020125
-0.00228327
-0.00254414
-0.0027966
-0.00304196
-0.00328134
-0.00351574
-0.00374601
-0.00397293
-0.00419715
-0.00441927
-0.00463976
-0.00485907
-0.00507744
-0.00529508
-0.00551189
-0.00572777
-0.00594205
-0.00615415
-0.0063624
-0.00656534
-0.00676059
-0.00694278
-0.00711411
-0.00725361
-0.00738394
-0.00744888
-0.00748763
-0.00741458
-0.00706624
-0.00631359
0.0570712
0.0252269
0.00934671
0.00759531
0.00713274
0.00563524
0.00425682
0.00330331
0.00256973
0.00193135
0.00136184
0.000853317
0.000395476
-2.15988e-05
-0.000405517
-0.000761983
-0.00109546
-0.00140957
-0.00170727
-0.00199106
-0.00226302
-0.00252493
-0.0027783
-0.00302445
-0.00326452
-0.0034995
-0.00373026
-0.00395758
-0.00418211
-0.00440445
-0.00462508
-0.00484443
-0.00506275
-0.00528025
-0.00549685
-0.00571242
-0.00592634
-0.00613801
-0.00634592
-0.00654845
-0.00674373
-0.00692611
-0.00709824
-0.00724049
-0.00737187
-0.00744594
-0.007484
-0.00742423
-0.00709743
-0.00641702
0.0546492
0.0255688
0.00993801
0.00778616
0.00727103
0.00577423
0.00435924
0.00337809
0.00263231
0.00198625
0.00140991
0.000895712
0.000433428
1.28147e-05
-0.00037402
-0.000732943
-0.00106851
-0.00138441
-0.00168367
-0.00196881
-0.00224194
-0.00250488
-0.00275914
-0.00300607
-0.0032468
-0.00348235
-0.00371357
-0.00394126
-0.00416607
-0.0043886
-0.00460932
-0.00482867
-0.0050469
-0.0052642
-0.00548051
-0.00569569
-0.00590919
-0.00612032
-0.00632782
-0.00652986
-0.00672509
-0.0069077
-0.00708055
-0.00722581
-0.00735861
-0.00744202
-0.00748284
-0.00743894
-0.00715044
-0.00656901
0.052302
0.0258257
0.0105126
0.00797295
0.00739984
0.00591132
0.00446351
0.00345386
0.00269533
0.00204172
0.00145867
0.000938786
0.000472027
4.78593e-05
-0.000341898
-0.00070328
-0.00104094
-0.00135864
-0.00165944
-0.00194592
-0.00222022
-0.00248417
-0.00273932
-0.002987
-0.00322838
-0.00346447
-0.00369614
-0.00392417
-0.00414923
-0.00437191
-0.0045927
-0.00481201
-0.0050301
-0.00524714
-0.00546312
-0.00567785
-0.00589085
-0.00610139
-0.00630839
-0.00650991
-0.006705
-0.00688791
-0.00706146
-0.00720993
-0.00734469
-0.00743751
-0.00748467
-0.00745966
-0.00722293
-0.0067606
0.0500317
0.0259996
0.0110674
0.00815716
0.00751903
0.00604554
0.0045694
0.00353063
0.00275871
0.00209772
0.00150809
0.000982509
0.000511236
8.34939e-05
-0.000309199
-0.000673051
-0.00101281
-0.00133231
-0.00163466
-0.00192248
-0.00219795
-0.00246291
-0.00271892
-0.00296736
-0.00320937
-0.00344599
-0.00367809
-0.00390645
-0.00413174
-0.00435455
-0.00457537
-0.0047946
-0.00501252
-0.00522927
-0.00544487
-0.0056591
-0.00587155
-0.00608146
-0.00628791
-0.00648891
-0.00668381
-0.0068671
-0.00704138
-0.00719322
-0.00733057
-0.00743286
-0.00748975
-0.00748686
-0.00731176
-0.00698148
0.0478398
0.0260924
0.0115992
0.00834012
0.0076286
0.00617586
0.0046766
0.00360844
0.0028224
0.00215414
0.00155813
0.00102686
0.00055104
0.0001197
-0.000275941
-0.000642274
-0.000984149
-0.00130545
-0.00160937
-0.00189853
-0.00217517
-0.00244113
-0.00269802
-0.0029472
-0.00318985
-0.00342698
-0.0036595
-0.00388818
-0.00411368
-0.00433661
-0.00455744
-0.00477657
-0.00499428
-0.00521072
-0.0054259
-0.00563961
-0.00585147
-0.00606073
-0.0062666
-0.00646709
-0.00666178
-0.00684556
-0.00702064
-0.00717596
-0.00731662
-0.00742846
-0.00749811
-0.00752051
-0.00741341
-0.0072213
0.0457276
0.026107
0.012105
0.00852288
0.00772877
0.00630128
0.00478474
0.00368729
0.00288636
0.00221091
0.00160874
0.00107182
0.000591424
0.000156468
-0.000242133
-0.000610958
-0.000954956
-0.00127808
-0.00158356
-0.00187408
-0.00215189
-0.00241887
-0.00267663
-0.00292656
-0.00316983
-0.00340748
-0.00364041
-0.00386939
-0.0040951
-0.00431812
-0.00453895
-0.00475797
-0.00497545
-0.00519156
-0.00540629
-0.00561946
-0.00583073
-0.00603933
-0.0062446
-0.00644463
-0.00663912
-0.00682347
-0.0069995
-0.00715838
-0.00730306
-0.00742461
-0.00750954
-0.00756009
-0.00752431
-0.00747045
0.0436959
0.0260465
0.0125816
0.00870621
0.00781991
0.00642084
0.00489334
0.0037672
0.00295054
0.00226794
0.00165986
0.00111737
0.000632375
0.000193786
-0.000207782
-0.000579105
-0.000925236
-0.00125019
-0.00155725
-0.00184913
-0.00212811
-0.00239611
-0.00265475
-0.00290542
-0.00314932
-0.00338749
-0.00362082
-0.0038501
-0.00407601
-0.00429912
-0.00451993
-0.00473882
-0.00495607
-0.00517182
-0.00538611
-0.00559873
-0.00580938
-0.00601733
-0.00622201
-0.0064216
-0.00661593
-0.00680095
-0.0069781
-0.0071406
-0.00728999
-0.00742149
-0.0075237
-0.00760473
-0.00764098
-0.00772059
0.0417449
0.0259147
0.0130261
0.00889054
0.00790259
0.00653363
0.00500184
0.00384815
0.00301491
0.00232513
0.00171143
0.00116347
0.000673877
0.000231642
-0.000172894
-0.00054672
-0.00089499
-0.00122178
-0.00153042
-0.00182367
-0.00210384
-0.00237286
-0.00263238
-0.0028838
-0.00312832
-0.003367
-0.00360074
-0.00383031
-0.00405641
-0.0042796
-0.00450038
-0.00471913
-0.00493614
-0.00515153
-0.00536535
-0.00557741
-0.00578745
-0.00599476
-0.00619886
-0.00639808
-0.00659229
-0.00677805
-0.0069565
-0.00712269
-0.00727742
-0.00741914
-0.00754008
-0.00765327
-0.00776017
-0.00796483
0.0398746
0.0257156
0.0134357
0.00907595
0.00797752
0.00663887
0.0051096
0.00393006
0.00307946
0.00238238
0.00176338
0.00121011
0.000715912
0.000270021
-0.000137481
-0.000513806
-0.000864217
-0.00119285
-0.00150308
-0.0017977
-0.00207906
-0.00234911
-0.0026095
-0.00286167
-0.00310682
-0.00334601
-0.00358015
-0.00381001
-0.00403629
-0.00425955
-0.0044803
-0.0046989
-0.00491564
-0.00513067
-0.00534402
-0.00555552
-0.00576495
-0.00597163
-0.00617517
-0.00637405
-0.0065682
-0.00675479
-0.00693472
-0.00710467
-0.00726525
-0.0074175
-0.00755809
-0.00770439
-0.00787888
-0.00819747
0.0380845
0.0254539
0.0138079
0.00926214
0.00804556
0.0067359
0.00521587
0.00401282
0.00314418
0.0024396
0.00181562
0.00125722
0.000758458
0.000308908
-0.000101553
-0.000480371
-0.000832921
-0.0011634
-0.00147521
-0.00177122
-0.00205376
-0.00232484
-0.00258612
-0.00283903
-0.00308481
-0.0033245
-0.00355903
-0.00378918
-0.00401563
-0.00423896
-0.00445966
-0.00467811
-0.00489458
-0.00510923
-0.0053221
-0.00553305
-0.00574186
-0.00594793
-0.00615093
-0.00634951
-0.00654366
-0.00673114
-0.00691273
-0.0070865
-0.00725334
-0.00741639
-0.00757706
-0.00775661
-0.00799431
-0.00841394
0.0363738
0.0251344
0.0141403
0.0094484
0.00810764
0.00682424
0.00531985
0.00409627
0.00320908
0.0024967
0.00186804
0.00130477
0.000801489
0.000348284
-6.51251e-05
-0.000446423
-0.000801106
-0.00113342
-0.00144683
-0.00174421
-0.00202795
-0.00230005
-0.00256221
-0.00281587
-0.00306227
-0.00330247
-0.00353738
-0.00376781
-0.00399443
-0.00421782
-0.00443846
-0.00465674
-0.00487293
-0.00508719
-0.00529959
-0.00550997
-0.00571817
-0.00592365
-0.00612611
-0.00632445
-0.00651866
-0.00670708
-0.00689048
-0.00706811
-0.00724152
-0.00741555
-0.00759625
-0.00780841
-0.00810388
-0.00861054
0.0347412
0.0247625
0.0144308
0.00963364
0.00816478
0.00690359
0.0054207
0.00418015
0.00327416
0.0025536
0.00192056
0.0013527
0.000844978
0.000388126
-2.82143e-05
-0.000411972
-0.000768776
-0.00110293
-0.00141792
-0.00171668
-0.0020016
-0.00227473
-0.00253777
-0.00279217
-0.00303919
-0.00327989
-0.00351519
-0.00374589
-0.00397266
-0.0041961
-0.00441668
-0.00463478
-0.00485068
-0.00506455
-0.00527645
-0.00548627
-0.00569386
-0.00589875
-0.00610072
-0.00629883
-0.00649315
-0.00668256
-0.00686789
-0.00704943
-0.00722957
-0.00741462
-0.00761491
-0.00785826
-0.00820529
-0.00878435
0.0331849
0.0243435
0.0146779
0.00981636
0.008218
0.00697385
0.00551753
0.00426413
0.00333942
0.00261022
0.00197304
0.00140092
0.000888889
0.000428412
9.1601e-06
-0.000377033
-0.000735939
-0.00107192
-0.00138849
-0.00168862
-0.00197473
-0.00224888
-0.00251279
-0.00276793
-0.00301556
-0.00325675
-0.00349243
-0.00372339
-0.00395032
-0.00417379
-0.00439429
-0.0046122
-0.00482781
-0.00504127
-0.00525267
-0.00546192
-0.00566891
-0.00587323
-0.0060747
-0.00627262
-0.00646711
-0.00665752
-0.00684488
-0.00703032
-0.00721723
-0.0074132
-0.00763222
-0.00790464
-0.00829642
-0.00893314
0.0317032
0.0238831
0.0148802
0.00999473
0.0082683
0.00703509
0.00560948
0.00434782
0.00340484
0.00266652
0.00202539
0.00144938
0.000933181
0.000469115
4.6976e-05
-0.000341622
-0.000702606
-0.00104039
-0.00135854
-0.00166003
-0.00194731
-0.00222248
-0.00248726
-0.00274314
-0.00299137
-0.00323305
-0.00346909
-0.0037003
-0.00392737
-0.00415087
-0.00437128
-0.00458899
-0.00480429
-0.00501734
-0.00522823
-0.00543691
-0.00564329
-0.00584704
-0.00604805
-0.00624579
-0.00644048
-0.00663191
-0.00682135
-0.00701066
-0.00720425
-0.00741083
-0.00764736
-0.00794611
-0.00837541
-0.00905536
0.0302938
0.023387
0.015037
0.0101666
0.00831658
0.0070876
0.00569573
0.00443071
0.00347038
0.00272243
0.00207747
0.00149795
0.000977805
0.000510203
8.52087e-05
-0.000305757
-0.000668788
-0.00100836
-0.00132807
-0.0016309
-0.00191936
-0.00219553
-0.00246117
-0.00271778
-0.00296661
-0.00320876
-0.00344516
-0.00367662
-0.00390381
-0.00412732
-0.00434764
-0.00456513
-0.0047801
-0.00499273
-0.00520311
-0.00541122
-0.00561699
-0.00582018
-0.00602072
-0.00621829
-0.00641321
-0.00660566
-0.00679718
-0.00699029
-0.00719032
-0.00740699
-0.00765951
-0.00798132
-0.00844073
-0.00914999
0.0289541
0.0228609
0.015148
0.0103295
0.0083636
0.00713187
0.00577554
0.00451223
0.00353596
0.00277794
0.00212918
0.00154656
0.00102271
0.000551644
0.00012383
-0.00026946
-0.0006345
-0.000975838
-0.00129708
-0.00160125
-0.00189087
-0.00216804
-0.00243453
-0.00269184
-0.00294126
-0.00318388
-0.00342063
-0.00365232
-0.00387962
-0.00410314
-0.00432333
-0.00454061
-0.00475524
-0.00496743
-0.00517729
-0.00538481
-0.00558997
-0.0057926
-0.00599269
-0.00619009
-0.00638525
-0.00657869
-0.00677225
-0.00696901
-0.00717514
-0.00740119
-0.00766785
-0.00800907
-0.00849111
-0.00921663
0.0276815
0.0223103
0.0152135
0.0104808
0.00840989
0.00716851
0.00584828
0.00459174
0.00360144
0.00283302
0.0021804
0.00159507
0.00106781
0.000593399
0.000162811
-0.000232757
-0.00059976
-0.000942826
-0.00126559
-0.00157108
-0.00186183
-0.00213998
-0.00240731
-0.00266533
-0.00291532
-0.00315839
-0.00339548
-0.00362738
-0.00385479
-0.00407829
-0.00429836
-0.00451539
-0.00472967
-0.00494141
-0.00515074
-0.00535767
-0.00556221
-0.00576427
-0.00596391
-0.00616115
-0.00635653
-0.00655092
-0.00674642
-0.00694662
-0.00715837
-0.00739288
-0.00767163
-0.00802829
-0.00852553
-0.00925535
0.0264732
0.0217407
0.0152342
0.0106181
0.00845569
0.00719826
0.00591346
0.00466856
0.00366661
0.00288764
0.00223103
0.00164337
0.00111305
0.000635423
0.000202117
-0.000195675
-0.000564589
-0.000909343
-0.00123359
-0.00154037
-0.00183225
-0.00211136
-0.00237952
-0.00263822
-0.00288878
-0.00313229
-0.00336969
-0.0036018
-0.00382929
-0.00405276
-0.00427269
-0.00448946
-0.00470338
-0.00491466
-0.00512344
-0.00532977
-0.00553369
-0.00573517
-0.00593435
-0.0061314
-0.00632698
-0.00652224
-0.00671956
-0.00692291
-0.00713969
-0.00738154
-0.00767012
-0.00803811
-0.00854339
-0.00926658
0.0253262
0.021157
0.0152116
0.0107388
0.00850086
0.00722191
0.00597075
0.00474197
0.00373122
0.00294178
0.00228099
0.00169132
0.00115833
0.000677666
0.000241711
-0.000158246
-0.000529012
-0.000875405
-0.0012011
-0.00150915
-0.00180213
-0.00208219
-0.00235114
-0.00261052
-0.00286162
-0.00310556
-0.00334326
-0.00357555
-0.00380312
-0.00402654
-0.00424631
-0.00446281
-0.00467635
-0.00488715
-0.00509536
-0.00530108
-0.00550437
-0.00570527
-0.00590397
-0.0061008
-0.00629654
-0.00649256
-0.0066915
-0.00689765
-0.00711875
-0.00736667
-0.00766268
-0.00803782
-0.00854439
-0.00925124
0.0242374
0.0205638
0.0151475
0.0108409
0.00854492
0.00724023
0.00602002
0.00481126
0.00379492
0.00299539
0.0023302
0.00173881
0.00120354
0.000720068
0.000281553
-0.000120504
-0.000493054
-0.000841031
-0.00116814
-0.00147742
-0.00177147
-0.00205245
-0.00232219
-0.00258222
-0.00283384
-0.00307818
-0.00331617
-0.00354863
-0.00377625
-0.00399961
-0.00421919
-0.0044354
-0.00464855
-0.00485885
-0.00506649
-0.00527158
-0.00547422
-0.00567451
-0.00587272
-0.00606929
-0.00626512
-0.00646178
-0.0066621
-0.00687061
-0.00709523
-0.00734781
-0.00764874
-0.00802693
-0.00852848
-0.00921075
0.0232039
0.0199654
0.0150442
0.0109225
0.00858705
0.00725399
0.00606129
0.00487573
0.00385728
0.0030484
0.0023786
0.00178569
0.00124858
0.000762561
0.000321599
-8.24864e-05
-0.000456749
-0.000806243
-0.00113471
-0.00144519
-0.00174028
-0.00202215
-0.00229264
-0.0025533
-0.00280544
-0.00305016
-0.00328841
-0.00352102
-0.00374867
-0.00397195
-0.00419133
-0.00440723
-0.00461996
-0.00482975
-0.0050368
-0.00524124
-0.00544321
-0.00564288
-0.00584056
-0.00603681
-0.00623263
-0.00642977
-0.00663118
-0.00684156
-0.00706881
-0.00732454
-0.00762788
-0.0080051
-0.00849594
-0.00914669
0.0222225
0.0193654
0.0149044
0.010982
0.00862612
0.00726381
0.00609477
0.00493477
0.00391784
0.00310071
0.00242614
0.00183185
0.00129331
0.000805067
0.000361799
-4.42333e-05
-0.000420129
-0.000771068
-0.00110083
-0.00141247
-0.00170856
-0.00199129
-0.00226252
-0.00252378
-0.00277639
-0.00302147
-0.00325998
-0.00349271
-0.00372037
-0.00394354
-0.00416271
-0.00437828
-0.00459056
-0.00479983
-0.00500626
-0.00521003
-0.00541131
-0.00561032
-0.00580744
-0.0060033
-0.006199
-0.00639642
-0.00659859
-0.00681028
-0.00703919
-0.0072965
-0.00759975
-0.00797224
-0.00844735
-0.00906092
0.0212902
0.0187672
0.0147312
0.0110183
0.00866082
0.00727021
0.00612079
0.00498786
0.00397607
0.00315214
0.00247276
0.00187717
0.00133762
0.000847496
0.000402096
-5.78844e-06
-0.000383231
-0.000735536
-0.00106654
-0.00137927
-0.00167632
-0.00195988
-0.0022318
-0.00249364
-0.00274671
-0.00299212
-0.00323084
-0.00346368
-0.00369133
-0.00391437
-0.00413329
-0.00434851
-0.00456034
-0.00476905
-0.00497485
-0.00517793
-0.00537849
-0.00557681
-0.0057733
-0.00596869
-0.00616414
-0.00636161
-0.00656417
-0.00677654
-0.00700612
-0.00726341
-0.00756413
-0.00792847
-0.00838346
-0.0089555
0.0204041
0.0181736
0.0145279
0.0110306
0.00868964
0.00727351
0.00613977
0.00503457
0.0040314
0.0032025
0.00251841
0.00192155
0.00138137
0.000889748
0.000442428
3.28009e-05
-0.000346098
-0.00069968
-0.00103184
-0.00134562
-0.00164358
-0.00192793
-0.00220051
-0.00246289
-0.00271637
-0.0029621
-0.00320101
-0.00343393
-0.00366153
-0.00388442
-0.00410308
-0.00431792
-0.00452927
-0.0047374
-0.00494254
-0.0051449
-0.00534471
-0.00554229
-0.0057381
-0.00593292
-0.00612797
-0.00632523
-0.00652776
-0.00674017
-0.00696938
-0.00722506
-0.00752096
-0.00787403
-0.00830532
-0.00883273
0.0195613
0.0175868
0.0142978
0.0110186
0.00871105
0.00727385
0.00615223
0.00507464
0.00408329
0.00325151
0.00256302
0.0019649
0.00142442
0.000931712
0.000482722
7.14833e-05
-0.000308773
-0.000663535
-0.000996772
-0.00131153
-0.00161035
-0.00189544
-0.00216864
-0.00243151
-0.00268539
-0.00293139
-0.00317047
-0.00340343
-0.00363097
-0.00385368
-0.00407205
-0.00428648
-0.00449733
-0.00470485
-0.00490931
-0.00511092
-0.00530995
-0.00550673
-0.00570178
-0.00589592
-0.00609038
-0.00628717
-0.00648924
-0.00670098
-0.00692878
-0.00718131
-0.00747027
-0.00780938
-0.00821413
-0.00869504
0.0187592
0.017009
0.0140444
0.0109824
0.00872351
0.00727113
0.00615869
0.0051079
0.00413119
0.00329885
0.00260651
0.00200713
0.00146665
0.000973269
0.000522899
0.000110203
-0.000271301
-0.000627143
-0.000961365
-0.00127702
-0.00157665
-0.00186242
-0.00213619
-0.00239953
-0.00265376
-0.0029
-0.00313921
-0.00337219
-0.00359963
-0.00382213
-0.00404018
-0.00425419
-0.00446449
-0.00467139
-0.00487513
-0.00507596
-0.00527415
-0.00547009
-0.0056643
-0.00585762
-0.00605131
-0.00624732
-0.00644846
-0.00665885
-0.00688421
-0.00713213
-0.00741224
-0.00773513
-0.00811125
-0.00854483
0.0179951
0.0164415
0.0137709
0.0109223
0.00872557
0.00726504
0.00615964
0.00513436
0.00417459
0.00334415
0.00264875
0.00204817
0.00150793
0.00101429
0.000562868
0.000148897
-0.000233735
-0.000590547
-0.000925653
-0.00124213
-0.00154248
-0.00182888
-0.00210318
-0.00236694
-0.00262148
-0.00286793
-0.00310722
-0.00334019
-0.00356751
-0.00378977
-0.00400746
-0.00422101
-0.00443075
-0.00463699
-0.00483998
-0.00503998
-0.0052373
-0.00543232
-0.00562559
-0.00581797
-0.00601068
-0.00620559
-0.00640533
-0.00661367
-0.0068356
-0.00707757
-0.00734717
-0.00765204
-0.00799817
-0.00838449
0.0172667
0.0158857
0.0134807
0.0108393
0.00871599
0.00725511
0.00615551
0.0051541
0.00421306
0.00338701
0.0026896
0.00208795
0.00154814
0.00105465
0.000602529
0.000187497
-0.000196127
-0.000553792
-0.000889675
-0.00120687
-0.00150789
-0.00179485
-0.00206962
-0.00233374
-0.00258855
-0.00283516
-0.00307451
-0.00330742
-0.00353458
-0.00375657
-0.00397388
-0.00418694
-0.00439608
-0.00460162
-0.00480383
-0.00500297
-0.00519935
-0.00539339
-0.00558563
-0.00577691
-0.00596841
-0.0061619
-0.00635977
-0.00656537
-0.00678295
-0.00701776
-0.00727546
-0.00756097
-0.00787642
-0.00821647
0.0165716
0.0153423
0.0131768
0.0107345
0.00869376
0.00724068
0.00614664
0.00516733
0.00424625
0.003427
0.00272885
0.00212637
0.00158717
0.00109421
0.000641773
0.000225929
-0.000158536
-0.000516929
-0.000853473
-0.0011713
-0.00147288
-0.00176034
-0.00203551
-0.00229995
-0.00255498
-0.0028017
-0.00304106
-0.00327388
-0.00350084
-0.00372252
-0.00393942
-0.00415195
-0.00436047
-0.00456528
-0.00476666
-0.00496489
-0.00516028
-0.00535326
-0.00554435
-0.00573438
-0.00592445
-0.00611618
-0.00631171
-0.00651393
-0.00672632
-0.00695294
-0.00719763
-0.00746291
-0.00774761
-0.00804313
0.0159078
0.014812
0.0128619
0.0106092
0.00865814
0.00722101
0.00613323
0.00517428
0.00427388
0.00346371
0.00276627
0.00216336
0.00162493
0.00113285
0.000680486
0.000264107
-0.000121023
-0.000480011
-0.000817092
-0.00113543
-0.00143749
-0.00172537
-0.00200088
-0.00226558
-0.00252076
-0.00276755
-0.00300688
-0.00323957
-0.00346629
-0.00368763
-0.00390407
-0.00411604
-0.00432389
-0.00452793
-0.00472845
-0.00492572
-0.00512006
-0.00531189
-0.00550172
-0.00569033
-0.00587874
-0.0060684
-0.00626114
-0.00645938
-0.00666583
-0.00688342
-0.0071143
-0.00735889
-0.00761339
-0.00786678
0.0152733
0.0142951
0.0125385
0.0104652
0.00860868
0.00719532
0.00611536
0.00517526
0.00429581
0.00349673
0.00280161
0.0021988
0.00166132
0.00117044
0.000718545
0.000301941
-8.36559e-05
-0.000443093
-0.00078058
-0.00109931
-0.00140175
-0.00168997
-0.00196575
-0.00223062
-0.00248591
-0.00273272
-0.00297197
-0.00320448
-0.00343091
-0.00365186
-0.00386782
-0.00407919
-0.00428634
-0.00448957
-0.00468917
-0.00488543
-0.00507866
-0.00526925
-0.00545771
-0.00564474
-0.00583125
-0.00601852
-0.00620805
-0.00640179
-0.00660167
-0.00680956
-0.00702614
-0.00725003
-0.00747537
-0.00768953
0.0146662
0.013792
0.0122091
0.010304
0.00854518
0.00716284
0.006093
0.00517053
0.00431195
0.00352569
0.00283456
0.00223255
0.00169625
0.00120686
0.000755826
0.000339332
-4.65083e-05
-0.000406235
-0.00074399
-0.00106299
-0.0013657
-0.00165416
-0.00193012
-0.00219512
-0.00245044
-0.0026972
-0.00293632
-0.0031686
-0.00339471
-0.00361523
-0.00383065
-0.00404139
-0.00424779
-0.00445017
-0.00464881
-0.004844
-0.00503604
-0.00522532
-0.00541227
-0.00559756
-0.00578196
-0.00596654
-0.00615249
-0.00634127
-0.00653407
-0.00673182
-0.00693389
-0.00713746
-0.00733513
-0.00751335
0.0140849
0.0133027
0.0118755
0.0101276
0.00846774
0.00712286
0.00606599
0.00516035
0.00432231
0.0035503
0.00286481
0.00226446
0.00172963
0.001242
0.000792205
0.000376173
-9.65934e-06
-0.000369499
-0.000707375
-0.00102651
-0.00132937
-0.00161796
-0.00189403
-0.00215906
-0.00241436
-0.00266102
-0.00289995
-0.00313194
-0.00335768
-0.00357772
-0.00379257
-0.00400262
-0.00420823
-0.00440972
-0.00460735
-0.00480142
-0.00499221
-0.00518006
-0.0053654
-0.00554879
-0.00573087
-0.00591249
-0.00609453
-0.00627797
-0.00646335
-0.0066507
-0.00683834
-0.00702232
-0.00719418
-0.00734004
0.0135278
0.012827
0.0115395
0.00993765
0.00837668
0.00707477
0.00603408
0.00514494
0.00432696
0.00357029
0.00289207
0.00229434
0.00176135
0.00127574
0.000827558
0.000412354
2.68054e-05
-0.000332953
-0.000670792
-0.000989917
-0.0012928
-0.00158143
-0.0018575
-0.00212249
-0.00237769
-0.00262417
-0.00286285
-0.00309451
-0.00331982
-0.00353934
-0.00375356
-0.00396288
-0.00416766
-0.0043682
-0.00456478
-0.00475766
-0.00494712
-0.00513348
-0.00531709
-0.00549842
-0.00567798
-0.00585642
-0.00603428
-0.0062121
-0.00638982
-0.00656674
-0.0067403
-0.00690571
-0.00705393
-0.0071712
0.0129934
0.0123649
0.0112028
0.00973599
0.00827251
0.00701811
0.00599698
0.00512446
0.00432602
0.00358548
0.00291603
0.002322
0.00179131
0.001308
0.000861767
0.000447761
6.27943e-05
-0.000296668
-0.000634301
-0.000953268
-0.00125604
-0.00154458
-0.00182055
-0.00208542
-0.00234043
-0.00258667
-0.00282503
-0.0030563
-0.00328112
-0.00350007
-0.00371361
-0.00392217
-0.00412607
-0.00432562
-0.00452109
-0.00471272
-0.00490078
-0.00508555
-0.00526732
-0.00544646
-0.00562334
-0.00579839
-0.00597187
-0.00614389
-0.00631388
-0.00648051
-0.00664056
-0.0067887
-0.00691566
-0.00700818
0.0124805
0.0119162
0.0108665
0.00952433
0.00815595
0.00695257
0.00595437
0.00509898
0.00431963
0.00359575
0.00293641
0.00234721
0.00181938
0.00133867
0.000894716
0.000482278
9.82103e-05
-0.00026072
-0.000597967
-0.000916618
-0.00121913
-0.00150746
-0.00178323
-0.00204787
-0.00230262
-0.00254853
-0.00278651
-0.00301731
-0.0032416
-0.00345992
-0.00367274
-0.00388047
-0.00408344
-0.00428195
-0.00447626
-0.00466659
-0.00485318
-0.00503627
-0.0052161
-0.00539293
-0.005567
-0.00573852
-0.00590747
-0.00607361
-0.00623593
-0.00639259
-0.00653993
-0.00667231
-0.00678053
-0.00685215
0.0119878
0.0114806
0.0105317
0.00930427
0.00802783
0.00687801
0.00590593
0.00506854
0.00430794
0.00360103
0.00295298
0.00236976
0.00184543
0.00136766
0.000926297
0.000515789
0.000132952
-0.000225191
-0.000561855
-0.000880023
-0.00118213
-0.00147011
-0.00174556
-0.00200987
-0.00226426
-0.00250977
-0.00274729
-0.00297757
-0.00320125
-0.00341889
-0.00363093
-0.00383779
-0.00403978
-0.0042372
-0.00443029
-0.00461926
-0.00480432
-0.00498567
-0.00516346
-0.00533788
-0.00550902
-0.00567691
-0.00584127
-0.00600155
-0.00615639
-0.00630358
-0.00643917
-0.00655744
-0.00664953
-0.00670401
0.0115142
0.0110578
0.0101996
0.00907735
0.00788908
0.00679444
0.00585139
0.00503312
0.00429108
0.00360133
0.00296555
0.00238941
0.0018693
0.00139485
0.000956407
0.000548182
0.000166917
-0.000190166
-0.000526036
-0.000843544
-0.00114509
-0.00143257
-0.00170758
-0.00197146
-0.0022254
-0.00247042
-0.0027074
-0.00293708
-0.00316009
-0.00337698
-0.00358819
-0.00379412
-0.00399509
-0.00419137
-0.00438319
-0.00457074
-0.00475421
-0.00493374
-0.00510943
-0.00528136
-0.0054495
-0.0056137
-0.00577348
-0.00592802
-0.0060757
-0.00621404
-0.00633899
-0.00644491
-0.00652351
-0.00656446
0.0110587
0.0106475
0.00987071
0.00884494
0.00774069
0.00670204
0.00579052
0.00499266
0.00426917
0.00359666
0.00297396
0.00240597
0.00189084
0.00142015
0.000984945
0.000579349
0.000199998