/*--------------------------------*- C++ -*----------------------------------*\
  =========                 |
  \\      /  F ield         | OpenFOAM: The Open Source CFD Toolbox
   \\    /   O peration     | Website:  https://openfoam.org
    \\  /    A nd           | Version:  7
     \\/     M anipulation  |
\*---------------------------------------------------------------------------*/
FoamFile
{
    version     2.0;
    format      ascii;
    class       volVectorField;
    location    "0.39";
    object      U;
}
// * * * * * * * * * * * * * * * * * * * * * * * * * * * * * * * * * * * * * //

dimensions      [0 1 -1 0 0 0 0];

internalField   nonuniform List<vector> 
70000
(
(0.553391 0.016723 0)
(0.251265 0.00340094 0)
(0.16621 0.000321931 0)
(0.132466 5.42161e-05 0)
(0.117278 4.56577e-05 0)
(0.107357 5.38359e-05 0)
(0.0994097 4.62059e-05 0)
(0.0929704 3.68705e-05 0)
(0.0877264 3.05603e-05 0)
(0.0833579 2.62357e-05 0)
(0.0796369 2.29374e-05 0)
(0.0764158 2.02927e-05 0)
(0.0735934 1.81323e-05 0)
(0.0710959 1.63433e-05 0)
(0.0688673 1.48419e-05 0)
(0.0668643 1.35663e-05 0)
(0.0650528 1.24709e-05 0)
(0.0634054 1.15202e-05 0)
(0.0619002 1.06887e-05 0)
(0.0605191 9.95477e-06 0)
(0.0592471 9.30287e-06 0)
(0.0580716 8.71953e-06 0)
(0.0569822 8.19397e-06 0)
(0.0559699 7.71737e-06 0)
(0.0550272 7.28269e-06 0)
(0.0541476 6.88324e-06 0)
(0.0533254 6.51409e-06 0)
(0.0525559 6.17102e-06 0)
(0.051835 5.84881e-06 0)
(0.051159 5.54727e-06 0)
(0.0505251 5.25862e-06 0)
(0.0499303 4.98912e-06 0)
(0.0493727 4.72475e-06 0)
(0.0488501 4.48307e-06 0)
(0.0483612 4.23668e-06 0)
(0.0479043 4.03069e-06 0)
(0.0474783 3.79723e-06 0)
(0.0470826 3.65931e-06 0)
(0.0467142 3.43372e-06 0)
(0.0463767 3.42526e-06 0)
(0.046058 3.27186e-06 0)
(0.0457791 3.31367e-06 0)
(0.0454869 3.8421e-06 0)
(0.0452856 2.82857e-06 0)
(0.0449373 6.63214e-06 0)
(0.0449112 5.37934e-07 0)
(0.0442631 1.33219e-05 0)
(0.0446742 -5.44771e-06 0)
(0.0435752 2.1937e-05 0)
(0.0411883 -0.00161395 0)
(0.884899 0.0431672 0)
(0.649722 0.0201937 0)
(0.494335 0.00659797 0)
(0.403687 0.00276738 0)
(0.354767 0.00155193 0)
(0.323466 0.00113168 0)
(0.299605 0.000910625 0)
(0.280405 0.000746833 0)
(0.264686 0.000624052 0)
(0.251559 0.000533327 0)
(0.240373 0.000464417 0)
(0.230688 0.000410146 0)
(0.222199 0.000366246 0)
(0.214683 0.000330062 0)
(0.207973 0.000299789 0)
(0.20194 0.000274135 0)
(0.19648 0.000252151 0)
(0.191513 0.000233122 0)
(0.186972 0.000216505 0)
(0.182803 0.000201876 0)
(0.178961 0.000188902 0)
(0.175409 0.000177317 0)
(0.172115 0.000166904 0)
(0.169052 0.000157484 0)
(0.166197 0.000148911 0)
(0.163532 0.000141059 0)
(0.161038 0.000133823 0)
(0.158702 0.000127111 0)
(0.156511 0.000120842 0)
(0.154455 0.00011495 0)
(0.152523 0.000109363 0)
(0.150709 0.000104041 0)
(0.149005 9.89005e-05 0)
(0.147406 9.39498e-05 0)
(0.145907 8.90464e-05 0)
(0.144504 8.43365e-05 0)
(0.143194 7.94657e-05 0)
(0.141976 7.50006e-05 0)
(0.140843 6.99456e-05 0)
(0.139806 6.6013e-05 0)
(0.138835 6.06443e-05 0)
(0.137987 5.78793e-05 0)
(0.13713 5.28236e-05 0)
(0.136536 5.17376e-05 0)
(0.135595 4.99836e-05 0)
(0.135535 4.99979e-05 0)
(0.133884 5.99379e-05 0)
(0.13504 2.86286e-05 0)
(0.132121 0.000238294 0)
(0.13076 -0.00278657 0)
(0.991237 0.0499011 0)
(0.890354 0.0307181 0)
(0.7627 0.0145971 0)
(0.656701 0.00797932 0)
(0.585383 0.00488499 0)
(0.535981 0.00347175 0)
(0.498111 0.00273675 0)
(0.467483 0.00224486 0)
(0.442153 0.00188201 0)
(0.420825 0.00161055 0)
(0.402555 0.00140309 0)
(0.386675 0.00123968 0)
(0.372712 0.00110759 0)
(0.360318 0.000998711 0)
(0.349228 0.000907596 0)
(0.339235 0.000830358 0)
(0.330178 0.000764151 0)
(0.321925 0.000706832 0)
(0.314371 0.000656771 0)
(0.307426 0.000612697 0)
(0.301019 0.000573613 0)
(0.295089 0.000538716 0)
(0.289584 0.000507356 0)
(0.28446 0.000479001 0)
(0.279679 0.000453209 0)
(0.275211 0.000429603 0)
(0.271027 0.000407871 0)
(0.267102 0.000387736 0)
(0.263418 0.000368959 0)
(0.259954 0.000351332 0)
(0.256697 0.000334655 0)
(0.253632 0.000318774 0)
(0.25075 0.000303477 0)
(0.248038 0.000288713 0)
(0.245491 0.00027414 0)
(0.2431 0.000260013 0)
(0.240862 0.000245496 0)
(0.238774 0.000231793 0)
(0.236826 0.000216586 0)
(0.235035 0.000203732 0)
(0.233358 0.00018699 0)
(0.231879 0.000176813 0)
(0.230413 0.000157685 0)
(0.22935 0.000155199 0)
(0.227829 0.000132601 0)
(0.227597 0.000148267 0)
(0.225197 0.000131268 0)
(0.226657 9.89884e-05 0)
(0.222668 0.000375988 0)
(0.222979 -0.00286477 0)
(1.0156 0.0489198 0)
(1.00596 0.035874 0)
(0.935965 0.0207907 0)
(0.852147 0.0135038 0)
(0.782216 0.00920807 0)
(0.727023 0.00678236 0)
(0.68194 0.00538558 0)
(0.644173 0.00444732 0)
(0.612138 0.00375428 0)
(0.584646 0.00322887 0)
(0.560766 0.00282268 0)
(0.539791 0.00250056 0)
(0.521197 0.00223904 0)
(0.504579 0.00202273 0)
(0.489628 0.00184116 0)
(0.476093 0.00168684 0)
(0.463775 0.00155426 0)
(0.452513 0.00143927 0)
(0.442172 0.00133867 0)
(0.43264 0.00125 0)
(0.423826 0.00117127 0)
(0.415649 0.00110091 0)
(0.408043 0.00103765 0)
(0.400951 0.000980417 0)
(0.394324 0.000928348 0)
(0.388118 0.000880696 0)
(0.382298 0.000836839 0)
(0.37683 0.000796227 0)
(0.371688 0.000758391 0)
(0.366847 0.000722908 0)
(0.362287 0.000689395 0)
(0.357988 0.000657522 0)
(0.353935 0.000626898 0)
(0.350115 0.000597365 0)
(0.346518 0.000568313 0)
(0.343132 0.000540095 0)
(0.339951 0.000511262 0)
(0.336973 0.000483733 0)
(0.334184 0.000453584 0)
(0.331601 0.000427149 0)
(0.329181 0.000393621 0)
(0.327012 0.000371633 0)
(0.324895 0.000330745 0)
(0.323264 0.000325071 0)
(0.321161 0.000267655 0)
(0.320523 0.000303164 0)
(0.317619 0.000240601 0)
(0.318736 0.000213298 0)
(0.314478 0.00048955 0)
(0.314933 -0.00256615 0)
(1.01434 0.0460032 0)
(1.04753 0.0374873 0)
(1.02459 0.0241503 0)
(0.974775 0.0175583 0)
(0.923472 0.0131223 0)
(0.876707 0.0102072 0)
(0.834547 0.00834499 0)
(0.796795 0.00702526 0)
(0.76322 0.00601654 0)
(0.733385 0.00522969 0)
(0.706779 0.00460782 0)
(0.682935 0.00410679 0)
(0.661457 0.00369522 0)
(0.642013 0.00335165 0)
(0.624331 0.00306108 0)
(0.608182 0.00281255 0)
(0.593373 0.0025979 0)
(0.579745 0.00241089 0)
(0.567161 0.00224665 0)
(0.555505 0.0021014 0)
(0.544678 0.00197207 0)
(0.534596 0.00185621 0)
(0.525185 0.00175182 0)
(0.516381 0.00165722 0)
(0.508131 0.00157103 0)
(0.500384 0.00149206 0)
(0.493101 0.00141933 0)
(0.486242 0.00135196 0)
(0.479777 0.00128919 0)
(0.473677 0.00123034 0)
(0.467917 0.0011748 0)
(0.462474 0.00112202 0)
(0.457332 0.0010714 0)
(0.452473 0.00102264 0)
(0.447884 0.000974807 0)
(0.443552 0.000928334 0)
(0.43947 0.000881114 0)
(0.43563 0.000835717 0)
(0.432023 0.000786626 0)
(0.428658 0.000742522 0)
(0.425501 0.000687976 0)
(0.422625 0.000650104 0)
(0.419852 0.000582263 0)
(0.417585 0.000569417 0)
(0.414929 0.000471851 0)
(0.413672 0.00051782 0)
(0.41047 0.000414765 0)
(0.410726 0.000370514 0)
(0.406676 0.000640969 0)
(0.406203 -0.00212353 0)
(1.00933 0.0429145 0)
(1.05528 0.0372623 0)
(1.05869 0.0252941 0)
(1.03638 0.0197575 0)
(1.00712 0.015811 0)
(0.97608 0.0129368 0)
(0.944558 0.0109625 0)
(0.91369 0.00948244 0)
(0.884326 0.00829382 0)
(0.85685 0.00732724 0)
(0.831344 0.00653775 0)
(0.807746 0.00588524 0)
(0.785938 0.00533837 0)
(0.76578 0.00487444 0)
(0.747127 0.00447681 0)
(0.729841 0.00413294 0)
(0.713793 0.00383314 0)
(0.698866 0.00356983 0)
(0.684956 0.00333701 0)
(0.671967 0.00312985 0)
(0.659817 0.00294446 0)
(0.648431 0.00277763 0)
(0.637742 0.0026267 0)
(0.627694 0.00248946 0)
(0.618232 0.00236405 0)
(0.609312 0.00224886 0)
(0.600892 0.00214254 0)
(0.592935 0.00204388 0)
(0.585409 0.00195184 0)
(0.578285 0.00186548 0)
(0.571537 0.00178394 0)
(0.565143 0.00170645 0)
(0.559084 0.00163217 0)
(0.55334 0.00156064 0)
(0.547899 0.00149063 0)
(0.542747 0.00142256 0)
(0.537875 0.00135376 0)
(0.533273 0.00128723 0)
(0.528935 0.00121618 0)
(0.524861 0.00115106 0)
(0.521033 0.0010726 0)
(0.517493 0.00101515 0)
(0.514116 0.000918037 0)
(0.511209 0.000891853 0)
(0.508067 0.000756904 0)
(0.506091 0.000795786 0)
(0.502705 0.000669087 0)
(0.501919 0.000584388 0)
(0.498124 0.000853914 0)
(0.496507 -0.00154764 0)
(1.00625 0.040033 0)
(1.05206 0.0363346 0)
(1.0661 0.0252229 0)
(1.05961 0.0205567 0)
(1.04689 0.0172371 0)
(1.03082 0.0146562 0)
(1.01193 0.0128221 0)
(0.99125 0.0113995 0)
(0.969835 0.0102052 0)
(0.948417 0.00919123 0)
(0.927442 0.00833194 0)
(0.907172 0.00759939 0)
(0.887757 0.0069692 0)
(0.869268 0.00642263 0)
(0.851726 0.0059453 0)
(0.83512 0.00552583 0)
(0.819422 0.00515507 0)
(0.804589 0.00482554 0)
(0.790576 0.00453114 0)
(0.777334 0.00426682 0)
(0.764816 0.00402837 0)
(0.752975 0.00381229 0)
(0.741766 0.00361558 0)
(0.731148 0.00343572 0)
(0.721082 0.00327056 0)
(0.711534 0.0031182 0)
(0.70247 0.00297704 0)
(0.693859 0.00284561 0)
(0.685676 0.00272266 0)
(0.677895 0.00260701 0)
(0.670494 0.00249762 0)
(0.663453 0.00239352 0)
(0.656754 0.00229364 0)
(0.65038 0.00219738 0)
(0.64432 0.00210323 0)
(0.638559 0.00201157 0)
(0.633091 0.00191927 0)
(0.627904 0.00182954 0)
(0.622997 0.00173474 0)
(0.618359 0.00164633 0)
(0.613992 0.00154251 0)
(0.609903 0.00146241 0)
(0.606031 0.00133614 0)
(0.602563 0.00128995 0)
(0.599024 0.00112402 0)
(0.596379 0.00113934 0)
(0.59284 0.00100316 0)
(0.591115 0.00086854 0)
(0.587445 0.00113744 0)
(0.584846 -0.000856336 0)
(1.00495 0.0373549 0)
(1.04727 0.0352523 0)
(1.06398 0.0246826 0)
(1.06427 0.0205824 0)
(1.0607 0.0177742 0)
(1.05477 0.0154982 0)
(1.04603 0.0138791 0)
(1.03484 0.0126217 0)
(1.02193 0.0115389 0)
(1.0079 0.0105887 0)
(0.993203 0.00975765 0)
(0.978194 0.00902821 0)
(0.963139 0.00838362 0)
(0.948235 0.0078108 0)
(0.933619 0.00729955 0)
(0.919386 0.00684153 0)
(0.905597 0.00642972 0)
(0.892287 0.00605812 0)
(0.879476 0.00572164 0)
(0.867169 0.0054159 0)
(0.855364 0.00513713 0)
(0.844051 0.00488206 0)
(0.833217 0.00464788 0)
(0.822846 0.00443209 0)
(0.812921 0.00423253 0)
(0.803425 0.00404729 0)
(0.794339 0.00387468 0)
(0.785646 0.00371315 0)
(0.777329 0.00356135 0)
(0.769372 0.00341798 0)
(0.76176 0.00328189 0)
(0.754479 0.00315199 0)
(0.747517 0.00302705 0)
(0.740861 0.00290636 0)
(0.734503 0.0027882 0)
(0.72843 0.00267285 0)
(0.722641 0.00255697 0)
(0.717123 0.00244361 0)
(0.711881 0.00232491 0)
(0.706896 0.00221243 0)
(0.702189 0.00208336 0)
(0.697737 0.00197889 0)
(0.693532 0.00182517 0)
(0.689664 0.001754 0)
(0.685847 0.00156349 0)
(0.682696 0.00154459 0)
(0.679037 0.00140685 0)
(0.676596 0.00122495 0)
(0.672951 0.00148966 0)
(0.669671 -6.60517e-05 0)
(1.0044 0.0348069 0)
(1.04324 0.0341789 0)
(1.05994 0.0240411 0)
(1.0623 0.020288 0)
(1.06252 0.0178373 0)
(1.06183 0.0157786 0)
(1.05927 0.0143328 0)
(1.05474 0.013241 0)
(1.04853 0.0123009 0)
(1.04096 0.0114634 0)
(1.03232 0.0107174 0)
(1.02285 0.0100494 0)
(1.01278 0.00944656 0)
(1.00232 0.00889933 0)
(0.991625 0.00840081 0)
(0.980828 0.0079455 0)
(0.970036 0.00752872 0)
(0.959331 0.00714639 0)
(0.948776 0.00679492 0)
(0.938418 0.0064711 0)
(0.928292 0.0061721 0)
(0.918421 0.00589535 0)
(0.908823 0.00563856 0)
(0.899507 0.00539964 0)
(0.89048 0.00517674 0)
(0.881744 0.00496812 0)
(0.873297 0.00477227 0)
(0.865139 0.00458772 0)
(0.857265 0.00441319 0)
(0.849671 0.0042474 0)
(0.842351 0.0040892 0)
(0.835301 0.00393746 0)
(0.828514 0.00379092 0)
(0.821985 0.00364879 0)
(0.815712 0.00350926 0)
(0.809687 0.00337248 0)
(0.803911 0.0032351 0)
(0.798375 0.0030998 0)
(0.79309 0.00295895 0)
(0.788034 0.00282354 0)
(0.783237 0.002671 0)
(0.778665 0.00254242 0)
(0.77434 0.00236413 0)
(0.770293 0.00226583 0)
(0.76636 0.0020564 0)
(0.762923 0.00199846 0)
(0.759231 0.00186276 0)
(0.756336 0.00164443 0)
(0.752706 0.00189818 0)
(0.749063 0.00078917 0)
(1.00402 0.0323667 0)
(1.03991 0.0331285 0)
(1.05617 0.0234176 0)
(1.05894 0.0198993 0)
(1.06024 0.0177062 0)
(1.0616 0.0157819 0)
(1.06199 0.0144371 0)
(1.06111 0.0134603 0)
(1.05906 0.0126364 0)
(1.05595 0.0119051 0)
(1.05186 0.0112527 0)
(1.04692 0.0106652 0)
(1.04123 0.0101298 0)
(1.03494 0.00963746 0)
(1.02815 0.00918242 0)
(1.02099 0.00876047 0)
(1.01354 0.00836831 0)
(1.00589 0.00800315 0)
(0.998125 0.00766259 0)
(0.990296 0.0073445 0)
(0.982457 0.00704695 0)
(0.974652 0.00676817 0)
(0.966914 0.00650651 0)
(0.959272 0.00626044 0)
(0.951749 0.00602853 0)
(0.944362 0.00580943 0)
(0.937126 0.00560191 0)
(0.930051 0.00540473 0)
(0.923146 0.0052168 0)
(0.916416 0.00503697 0)
(0.909869 0.00486419 0)
(0.903505 0.00469741 0)
(0.897328 0.00453539 0)
(0.89134 0.00437737 0)
(0.885544 0.00422153 0)
(0.879938 0.0040679 0)
(0.874529 0.00391326 0)
(0.86931 0.00375986 0)
(0.864297 0.00360054 0)
(0.85947 0.00344547 0)
(0.854864 0.00327291 0)
(0.850444 0.00312264 0)
(0.846241 0.00292384 0)
(0.842264 0.00279907 0)
(0.838418 0.00257616 0)
(0.834936 0.00247925 0)
(0.831354 0.00234658 0)
(0.828273 0.00210757 0)
(0.824733 0.00234624 0)
(0.821008 0.00165989 0)
(1.00364 0.0300262 0)
(1.03692 0.0320807 0)
(1.05282 0.0228274 0)
(1.0557 0.0194934 0)
(1.05715 0.0175134 0)
(1.05906 0.0156808 0)
(1.06051 0.0143833 0)
(1.06122 0.0134694 0)
(1.06124 0.0127191 0)
(1.0606 0.0120623 0)
(1.05931 0.0114826 0)
(1.05736 0.0109647 0)
(1.05481 0.0104941 0)
(1.05168 0.0100607 0)
(1.04806 0.00965815 0)
(1.04398 0.00928213 0)
(1.03953 0.00892949 0)
(1.03475 0.00859779 0)
(1.02971 0.0082851 0)
(1.02446 0.0079898 0)
(1.01904 0.00771048 0)
(1.0135 0.00744591 0)
(1.00787 0.00719491 0)
(1.0022 0.0069564 0)
(0.996498 0.00672936 0)
(0.990802 0.00651276 0)
(0.98513 0.00630568 0)
(0.979501 0.00610714 0)
(0.97393 0.00591626 0)
(0.968432 0.00573209 0)
(0.963018 0.00555371 0)
(0.957698 0.00538022 0)
(0.952482 0.00521046 0)
(0.947377 0.00504372 0)
(0.94239 0.00487827 0)
(0.937526 0.00471402 0)
(0.932796 0.004548 0)
(0.928196 0.004382 0)
(0.923745 0.00420945 0)
(0.919429 0.00403965 0)
(0.915279 0.00385197 0)
(0.911271 0.00368423 0)
(0.907433 0.00347019 0)
(0.903768 0.00332188 0)
(0.900222 0.00309106 0)
(0.896931 0.00295916 0)
(0.893624 0.00282925 0)
(0.890615 0.00258685 0)
(0.887298 0.0028105 0)
(0.88373 0.00250155 0)
(1.00327 0.0277863 0)
(1.03409 0.0310217 0)
(1.04971 0.0222637 0)
(1.05274 0.0190855 0)
(1.05415 0.0173016 0)
(1.05611 0.0155505 0)
(1.05784 0.0142748 0)
(1.05907 0.0133911 0)
(1.0599 0.0126814 0)
(1.06038 0.0120681 0)
(1.06047 0.0115337 0)
(1.06017 0.0110627 0)
(1.05947 0.0106397 0)
(1.05835 0.0102532 0)
(1.05685 0.00989581 0)
(1.05498 0.00956253 0)
(1.05277 0.00924967 0)
(1.05024 0.00895449 0)
(1.04742 0.0086749 0)
(1.04435 0.00840928 0)
(1.04106 0.0081563 0)
(1.03759 0.00791484 0)
(1.03395 0.00768394 0)
(1.03017 0.0074627 0)
(1.02629 0.00725031 0)
(1.02233 0.00704595 0)
(1.0183 0.00684888 0)
(1.01423 0.00665832 0)
(1.01013 0.00647353 0)
(1.00602 0.00629373 0)
(1.00192 0.00611811 0)
(0.997828 0.0059459 0)
(0.99377 0.00577603 0)
(0.989753 0.00560785 0)
(0.985786 0.00543976 0)
(0.981877 0.00527157 0)
(0.978039 0.00510054 0)
(0.974273 0.00492815 0)
(0.970596 0.00474827 0)
(0.967003 0.00456954 0)
(0.963517 0.00437247 0)
(0.960128 0.00419249 0)
(0.956853 0.0039692 0)
(0.953699 0.00380186 0)
(0.950636 0.00356857 0)
(0.947738 0.00340849 0)
(0.944858 0.00328078 0)
(0.94214 0.0030507 0)
(0.939194 0.00326385 0)
(0.935986 0.00327211 0)
(1.00292 0.0256505 0)
(1.03138 0.0299469 0)
(1.04671 0.021722 0)
(1.04995 0.0186755 0)
(1.05133 0.0170778 0)
(1.05326 0.0154131 0)
(1.05502 0.0141527 0)
(1.05637 0.0132844 0)
(1.05743 0.0125977 0)
(1.0583 0.0120084 0)
(1.05895 0.0114988 0)
(1.05939 0.0110547 0)
(1.05959 0.0106607 0)
(1.05955 0.0103048 0)
(1.05926 0.00997875 0)
(1.05871 0.00967701 0)
(1.05792 0.00939535 0)
(1.05688 0.00913055 0)
(1.05562 0.00888017 0)
(1.05413 0.00864228 0)
(1.05244 0.00841537 0)
(1.05057 0.0081982 0)
(1.04853 0.00798974 0)
(1.04633 0.00778907 0)
(1.044 0.0075954 0)
(1.04155 0.00740794 0)
(1.03899 0.007226 0)
(1.03635 0.00704885 0)
(1.03363 0.00687581 0)
(1.03085 0.00670618 0)
(1.02803 0.00653919 0)
(1.02517 0.00637416 0)
(1.02229 0.00621006 0)
(1.0194 0.00604628 0)
(1.01651 0.00588132 0)
(1.01362 0.00571491 0)
(1.01076 0.0055445 0)
(1.00792 0.00537135 0)
(1.00512 0.00518966 0)
(1.00235 0.00500753 0)
(0.999642 0.00480664 0)
(0.996986 0.0046197 0)
(0.994395 0.00439302 0)
(0.991876 0.00421187 0)
(0.989417 0.00398087 0)
(0.98705 0.0038009 0)
(0.984702 0.00367499 0)
(0.982432 0.00346918 0)
(0.97998 0.00367841 0)
(0.97729 0.00393888 0)
(1.0026 0.0236213 0)
(1.0288 0.0288552 0)
(1.04379 0.0212013 0)
(1.04726 0.0182633 0)
(1.04865 0.0168405 0)
(1.05054 0.0152711 0)
(1.05229 0.0140279 0)
(1.05365 0.0131704 0)
(1.05475 0.0125 0)
(1.05571 0.0119259 0)
(1.05654 0.0114301 0)
(1.05724 0.0110006 0)
(1.05781 0.0106226 0)
(1.05823 0.0102842 0)
(1.05851 0.00997689 0)
(1.05864 0.00969494 0)
(1.05862 0.00943381 0)
(1.05843 0.00919 0)
(1.05809 0.00896077 0)
(1.0576 0.00874393 0)
(1.05695 0.00853773 0)
(1.05615 0.00834074 0)
(1.05522 0.00815175 0)
(1.05416 0.00796974 0)
(1.05297 0.0077938 0)
(1.05167 0.0076231 0)
(1.05026 0.00745686 0)
(1.04876 0.00729432 0)
(1.04717 0.00713477 0)
(1.04551 0.00697749 0)
(1.04378 0.00682171 0)
(1.04199 0.00666673 0)
(1.04015 0.00651154 0)
(1.03828 0.00635555 0)
(1.03637 0.00619725 0)
(1.03444 0.00603637 0)
(1.0325 0.00587043 0)
(1.03054 0.00570055 0)
(1.02859 0.00552118 0)
(1.02665 0.00533993 0)
(1.02472 0.00513974 0)
(1.02281 0.00495022 0)
(1.02093 0.00472501 0)
(1.01908 0.00453504 0)
(1.01726 0.00430974 0)
(1.01548 0.00411823 0)
(1.01371 0.0039941 0)
(1.01196 0.0038195 0)
(1.01007 0.00403052 0)
(1.008 0.00448064 0)
(1.0023 0.0217005 0)
(1.02634 0.0277473 0)
(1.04096 0.0206998 0)
(1.04465 0.0178506 0)
(1.04606 0.0165883 0)
(1.04792 0.015123 0)
(1.04967 0.0139017 0)
(1.05102 0.013054 0)
(1.05212 0.0123983 0)
(1.05307 0.0118368 0)
(1.05394 0.0113506 0)
(1.05471 0.01093 0)
(1.05538 0.0105612 0)
(1.05598 0.0102326 0)
(1.05648 0.00993584 0)
(1.0569 0.00966518 0)
(1.05722 0.00941611 0)
(1.05745 0.00918504 0)
(1.05758 0.00896911 0)
(1.05761 0.00876599 0)
(1.05755 0.0085738 0)
(1.05739 0.00839096 0)
(1.05713 0.00821615 0)
(1.05677 0.0080482 0)
(1.05633 0.00788613 0)
(1.05579 0.00772898 0)
(1.05517 0.00757589 0)
(1.05447 0.00742603 0)
(1.0537 0.0072786 0)
(1.05285 0.00713282 0)
(1.05194 0.00698786 0)
(1.05097 0.00684299 0)
(1.04995 0.00669716 0)
(1.04888 0.00654974 0)
(1.04777 0.00639924 0)
(1.04663 0.00624531 0)
(1.04545 0.00608555 0)
(1.04426 0.00592095 0)
(1.04304 0.00574617 0)
(1.04182 0.00556827 0)
(1.04058 0.00537163 0)
(1.03935 0.00518247 0)
(1.03811 0.00496192 0)
(1.03688 0.00476718 0)
(1.03566 0.00454934 0)
(1.03445 0.00435323 0)
(1.03322 0.00423114 0)
(1.032 0.00409001 0)
(1.03067 0.00430499 0)
(1.02923 0.00488774 0)
(1.00203 0.0198891 0)
(1.02402 0.0266264 0)
(1.03823 0.0202145 0)
(1.04213 0.017439 0)
(1.04357 0.0163213 0)
(1.0454 0.0149674 0)
(1.04715 0.0137733 0)
(1.04849 0.0129357 0)
(1.04957 0.0122945 0)
(1.05052 0.0117455 0)
(1.05137 0.0112681 0)
(1.05215 0.0108545 0)
(1.05284 0.0104922 0)
(1.05348 0.0101699 0)
(1.05405 0.00987955 0)
(1.05456 0.00961551 0)
(1.05501 0.00937338 0)
(1.0554 0.00914965 0)
(1.05574 0.00894145 0)
(1.05602 0.00874646 0)
(1.05623 0.00856275 0)
(1.05639 0.0083887 0)
(1.05648 0.00822293 0)
(1.05651 0.00806422 0)
(1.05648 0.0079115 0)
(1.0564 0.00776376 0)
(1.05625 0.00762008 0)
(1.05604 0.00747954 0)
(1.05578 0.00734127 0)
(1.05547 0.00720444 0)
(1.0551 0.00706812 0)
(1.05469 0.00693155 0)
(1.05424 0.00679363 0)
(1.05374 0.00665369 0)
(1.0532 0.00651021 0)
(1.05264 0.0063628 0)
(1.05204 0.00620908 0)
(1.05141 0.00604993 0)
(1.05076 0.00588022 0)
(1.0501 0.00570644 0)
(1.04941 0.0055145 0)
(1.04871 0.00532703 0)
(1.048 0.00511255 0)
(1.04729 0.0049158 0)
(1.04656 0.00470559 0)
(1.04583 0.00450967 0)
(1.04508 0.00438959 0)
(1.04432 0.00428054 0)
(1.04349 0.00449744 0)
(1.04265 0.00516116 0)
(1.00179 0.0181871 0)
(1.02184 0.0254962 0)
(1.03559 0.0197416 0)
(1.03969 0.0170306 0)
(1.04116 0.0160403 0)
(1.04296 0.0148034 0)
(1.0447 0.0136424 0)
(1.04606 0.0128151 0)
(1.04713 0.0121885 0)
(1.04806 0.0116526 0)
(1.0489 0.0111842 0)
(1.04966 0.0107773 0)
(1.05035 0.0104208 0)
(1.05098 0.0101037 0)
(1.05156 0.00981825 0)
(1.05209 0.00955882 0)
(1.05257 0.00932121 0)
(1.05302 0.00910202 0)
(1.05342 0.00889846 0)
(1.05379 0.00870826 0)
(1.05412 0.0085295 0)
(1.05441 0.00836059 0)
(1.05466 0.00820015 0)
(1.05487 0.00804696 0)
(1.05505 0.00789993 0)
(1.05519 0.00775803 0)
(1.05529 0.0076203 0)
(1.05535 0.00748579 0)
(1.05538 0.00735357 0)
(1.05537 0.00722276 0)
(1.05533 0.00709238 0)
(1.05525 0.00696165 0)
(1.05514 0.00682939 0)
(1.055 0.00669492 0)
(1.05483 0.00655671 0)
(1.05464 0.0064143 0)
(1.05442 0.00626537 0)
(1.05419 0.00611066 0)
(1.05393 0.00594531 0)
(1.05365 0.00577513 0)
(1.05335 0.0055877 0)
(1.05304 0.00540207 0)
(1.05272 0.00519354 0)
(1.05238 0.00499626 0)
(1.05203 0.00479269 0)
(1.05167 0.00459956 0)
(1.05128 0.00448072 0)
(1.0509 0.00439965 0)
(1.05047 0.00461329 0)
(1.05013 0.0053114 0)
(1.00157 0.0165942 0)
(1.01979 0.0243609 0)
(1.03305 0.019277 0)
(1.03734 0.016627 0)
(1.03885 0.0157465 0)
(1.04061 0.0146304 0)
(1.04235 0.0135087 0)
(1.0437 0.0126923 0)
(1.04477 0.0120802 0)
(1.04569 0.0115581 0)
(1.04651 0.0110992 0)
(1.04726 0.0106992 0)
(1.04794 0.0103485 0)
(1.04856 0.0100365 0)
(1.04913 0.00975543 0)
(1.04965 0.00949997 0)
(1.05014 0.009266 0)
(1.05059 0.00905022 0)
(1.05101 0.00884993 0)
(1.0514 0.0086629 0)
(1.05176 0.00848729 0)
(1.0521 0.00832153 0)
(1.0524 0.00816427 0)
(1.05269 0.00801433 0)
(1.05295 0.00787063 0)
(1.05318 0.00773214 0)
(1.0534 0.0075979 0)
(1.05358 0.00746696 0)
(1.05375 0.00733834 0)
(1.05389 0.00721115 0)
(1.05401 0.0070844 0)
(1.05411 0.00695724 0)
(1.05419 0.00682851 0)
(1.05425 0.00669748 0)
(1.0543 0.00656263 0)
(1.05432 0.00642346 0)
(1.05433 0.0062777 0)
(1.05432 0.00612597 0)
(1.0543 0.00596374 0)
(1.05427 0.00579604 0)
(1.05422 0.00561219 0)
(1.05415 0.00542784 0)
(1.05408 0.00522424 0)
(1.05399 0.00502692 0)
(1.05389 0.00482838 0)
(1.05379 0.00463886 0)
(1.05367 0.00451978 0)
(1.05355 0.00446048 0)
(1.05343 0.00466417 0)
(1.05349 0.00535569 0)
(1.00137 0.0151096 0)
(1.01788 0.0232242 0)
(1.03062 0.0188167 0)
(1.03507 0.0162297 0)
(1.03663 0.0154414 0)
(1.03835 0.0144477 0)
(1.04008 0.0133716 0)
(1.04144 0.0125673 0)
(1.0425 0.0119694 0)
(1.04341 0.0114616 0)
(1.04422 0.0110129 0)
(1.04496 0.0106201 0)
(1.04562 0.0102754 0)
(1.04623 0.00996856 0)
(1.04679 0.00969199 0)
(1.0473 0.00944042 0)
(1.04778 0.00920988 0)
(1.04822 0.00899718 0)
(1.04864 0.00879969 0)
(1.04902 0.00861524 0)
(1.04939 0.00844202 0)
(1.04973 0.00827852 0)
(1.05005 0.00812344 0)
(1.05035 0.00797561 0)
(1.05064 0.00783398 0)
(1.05091 0.00769757 0)
(1.05116 0.00756539 0)
(1.0514 0.00743651 0)
(1.05162 0.00730995 0)
(1.05182 0.00718481 0)
(1.05202 0.00706007 0)
(1.0522 0.00693488 0)
(1.05237 0.00680808 0)
(1.05252 0.00667891 0)
(1.05267 0.00654589 0)
(1.0528 0.00640847 0)
(1.05293 0.00626447 0)
(1.05305 0.00611437 0)
(1.05315 0.00595399 0)
(1.05325 0.00578761 0)
(1.05334 0.00560622 0)
(1.05342 0.00542237 0)
(1.05349 0.00522238 0)
(1.05356 0.00502493 0)
(1.05361 0.00482958 0)
(1.05367 0.00464338 0)
(1.05371 0.00452209 0)
(1.05378 0.00447697 0)
(1.05387 0.00466351 0)
(1.05422 0.00531318 0)
(1.0012 0.0137317 0)
(1.01611 0.0220904 0)
(1.0283 0.0183572 0)
(1.0329 0.0158398 0)
(1.03451 0.0151266 0)
(1.03618 0.0142547 0)
(1.0379 0.0132309 0)
(1.03927 0.0124401 0)
(1.04032 0.011856 0)
(1.04122 0.0113631 0)
(1.04202 0.0109252 0)
(1.04275 0.0105401 0)
(1.0434 0.0102015 0)
(1.04399 0.00990001 0)
(1.04454 0.00962805 0)
(1.04504 0.00938046 0)
(1.04551 0.0091534 0)
(1.04594 0.00894376 0)
(1.04635 0.00874898 0)
(1.04672 0.00856695 0)
(1.04708 0.00839591 0)
(1.04742 0.00823437 0)
(1.04774 0.00808107 0)
(1.04804 0.00793489 0)
(1.04832 0.0077948 0)
(1.0486 0.00765983 0)
(1.04886 0.00752904 0)
(1.04911 0.00740147 0)
(1.04934 0.00727615 0)
(1.04957 0.00715218 0)
(1.04979 0.00702854 0)
(1.05 0.00690437 0)
(1.0502 0.00677852 0)
(1.0504 0.0066502 0)
(1.05058 0.006518 0)
(1.05077 0.00638131 0)
(1.05094 0.00623807 0)
(1.05112 0.00608861 0)
(1.05128 0.00592914 0)
(1.05145 0.00576315 0)
(1.0516 0.00558326 0)
(1.05176 0.00539923 0)
(1.0519 0.00520157 0)
(1.05205 0.00500372 0)
(1.05218 0.00480978 0)
(1.05233 0.00462603 0)
(1.05246 0.00450038 0)
(1.05266 0.00446124 0)
(1.0529 0.00462315 0)
(1.05344 0.00520347 0)
(1.00104 0.0124582 0)
(1.01447 0.0209637 0)
(1.02609 0.0178949 0)
(1.03081 0.0154583 0)
(1.03248 0.0148042 0)
(1.03411 0.0140511 0)
(1.03581 0.013086 0)
(1.03718 0.0123106 0)
(1.03823 0.0117401 0)
(1.03912 0.0112624 0)
(1.03991 0.010836 0)
(1.04063 0.0104589 0)
(1.04127 0.0101267 0)
(1.04186 0.00983075 0)
(1.04239 0.00956358 0)
(1.04288 0.00932011 0)
(1.04333 0.00909662 0)
(1.04376 0.00889012 0)
(1.04415 0.0086981 0)
(1.04452 0.0085185 0)
(1.04487 0.0083496 0)
(1.04519 0.00818997 0)
(1.0455 0.00803836 0)
(1.0458 0.00789369 0)
(1.04608 0.00775496 0)
(1.04635 0.00762122 0)
(1.0466 0.00749153 0)
(1.04685 0.00736496 0)
(1.04709 0.00724053 0)
(1.04731 0.00711733 0)
(1.04754 0.00699435 0)
(1.04775 0.00687072 0)
(1.04796 0.00674531 0)
(1.04817 0.00661731 0)
(1.04837 0.00648537 0)
(1.04856 0.00634884 0)
(1.04876 0.00620578 0)
(1.04895 0.00605635 0)
(1.04914 0.00589718 0)
(1.04933 0.00573101 0)
(1.04951 0.0055519 0)
(1.0497 0.00536725 0)
(1.04987 0.00517088 0)
(1.05005 0.00497234 0)
(1.05023 0.00477835 0)
(1.05042 0.00459565 0)
(1.05061 0.00446384 0)
(1.05087 0.00442217 0)
(1.05122 0.00455226 0)
(1.0519 0.00504322 0)
(1.0009 0.0112861 0)
(1.01296 0.0198485 0)
(1.02399 0.0174267 0)
(1.0288 0.0150855 0)
(1.03054 0.0144761 0)
(1.03214 0.0138366 0)
(1.03381 0.0129362 0)
(1.03518 0.012179 0)
(1.03624 0.0116217 0)
(1.03712 0.0111593 0)
(1.0379 0.0107451 0)
(1.0386 0.0103764 0)
(1.03924 0.0100509 0)
(1.03981 0.0097607 0)
(1.04033 0.0094985 0)
(1.04081 0.0092593 0)
(1.04126 0.00903952 0)
(1.04167 0.00883624 0)
(1.04205 0.00864706 0)
(1.04241 0.00846996 0)
(1.04275 0.00830326 0)
(1.04307 0.00814555 0)
(1.04337 0.00799564 0)
(1.04365 0.00785247 0)
(1.04392 0.00771507 0)
(1.04418 0.00758251 0)
(1.04443 0.00745385 0)
(1.04467 0.00732818 0)
(1.0449 0.00720451 0)
(1.04513 0.00708194 0)
(1.04534 0.00695944 0)
(1.04555 0.00683615 0)
(1.04576 0.00671097 0)
(1.04596 0.00658306 0)
(1.04616 0.00645112 0)
(1.04636 0.00631447 0)
(1.04656 0.0061713 0)
(1.04675 0.00602159 0)
(1.04695 0.00586239 0)
(1.04714 0.00569573 0)
(1.04733 0.00551694 0)
(1.04752 0.00533145 0)
(1.04771 0.00513559 0)
(1.0479 0.00493612 0)
(1.04809 0.0047409 0)
(1.04831 0.00455766 0)
(1.04853 0.00441797 0)
(1.04883 0.00436604 0)
(1.04925 0.00445732 0)
(1.05003 0.00484435 0)
(1.00078 0.0102121 0)
(1.01157 0.0187492 0)
(1.02201 0.0169501 0)
(1.02688 0.0147214 0)
(1.0287 0.0141445 0)
(1.03025 0.0136111 0)
(1.0319 0.0127809 0)
(1.03327 0.0120451 0)
(1.03433 0.0115008 0)
(1.0352 0.0110538 0)
(1.03597 0.0106524 0)
(1.03667 0.0102927 0)
(1.03729 0.00997409 0)
(1.03786 0.0096898 0)
(1.03837 0.00943274 0)
(1.03884 0.00919797 0)
(1.03928 0.00898201 0)
(1.03968 0.00878208 0)
(1.04005 0.00859584 0)
(1.0404 0.00842131 0)
(1.04073 0.00825687 0)
(1.04104 0.00810114 0)
(1.04133 0.00795298 0)
(1.04161 0.00781134 0)
(1.04187 0.00767529 0)
(1.04212 0.00754391 0)
(1.04236 0.00741629 0)
(1.04259 0.0072915 0)
(1.04281 0.00716858 0)
(1.04303 0.00704659 0)
(1.04324 0.00692454 0)
(1.04344 0.00680153 0)
(1.04364 0.00667649 0)
(1.04384 0.00654858 0)
(1.04404 0.00641655 0)
(1.04423 0.00627967 0)
(1.04442 0.00613628 0)
(1.04461 0.00598617 0)
(1.0448 0.00582677 0)
(1.04499 0.00565951 0)
(1.04518 0.00548076 0)
(1.04537 0.00529433 0)
(1.04556 0.00509841 0)
(1.04575 0.00489776 0)
(1.04595 0.00470045 0)
(1.04617 0.00451491 0)
(1.04641 0.00436571 0)
(1.04674 0.0042968 0)
(1.04721 0.00434263 0)
(1.04805 0.00461702 0)
(1.00067 0.0092319 0)
(1.01031 0.0176703 0)
(1.02013 0.0164626 0)
(1.02505 0.014366 0)
(1.02694 0.0138114 0)
(1.02846 0.0133751 0)
(1.03008 0.0126196 0)
(1.03145 0.0119088 0)
(1.03251 0.0113774 0)
(1.03337 0.0109457 0)
(1.03414 0.0105577 0)
(1.03482 0.0102075 0)
(1.03544 0.00989612 0)
(1.036 0.00961795 0)
(1.0365 0.00936622 0)
(1.03696 0.00913604 0)
(1.03739 0.00892405 0)
(1.03778 0.00872758 0)
(1.03815 0.00854436 0)
(1.03849 0.00837249 0)
(1.03881 0.00821038 0)
(1.03911 0.0080567 0)
(1.03939 0.00791033 0)
(1.03966 0.00777027 0)
(1.03991 0.00763561 0)
(1.04015 0.00750546 0)
(1.04039 0.0073789 0)
(1.04061 0.00725502 0)
(1.04083 0.00713285 0)
(1.04103 0.00701146 0)
(1.04123 0.00688985 0)
(1.04143 0.00676711 0)
(1.04162 0.00664221 0)
(1.04181 0.00651428 0)
(1.042 0.00638214 0)
(1.04219 0.00624501 0)
(1.04237 0.00610135 0)
(1.04256 0.00595081 0)
(1.04274 0.00579116 0)
(1.04292 0.00562326 0)
(1.04311 0.00544437 0)
(1.04329 0.00525698 0)
(1.04347 0.00506058 0)
(1.04366 0.0048585 0)
(1.04386 0.00465836 0)
(1.04408 0.00446884 0)
(1.04433 0.00430843 0)
(1.04469 0.00421695 0)
(1.04518 0.0042116 0)
(1.04606 0.00436921 0)
(1.00058 0.00834103 0)
(1.00917 0.0166161 0)
(1.01838 0.0159627 0)
(1.0233 0.0140185 0)
(1.02527 0.0134787 0)
(1.02676 0.013129 0)
(1.02834 0.0124515 0)
(1.02971 0.0117698 0)
(1.03077 0.0112515 0)
(1.03164 0.010835 0)
(1.03239 0.0104609 0)
(1.03307 0.0101208 0)
(1.03368 0.00981692 0)
(1.03422 0.00954507 0)
(1.03472 0.00929885 0)
(1.03517 0.00907344 0)
(1.03559 0.00886556 0)
(1.03598 0.00867266 0)
(1.03633 0.00849257 0)
(1.03667 0.00832344 0)
(1.03698 0.00816374 0)
(1.03727 0.00801217 0)
(1.03754 0.00786766 0)
(1.0378 0.00772923 0)
(1.03805 0.00759601 0)
(1.03829 0.00746712 0)
(1.03851 0.00734166 0)
(1.03873 0.00721872 0)
(1.03893 0.00709734 0)
(1.03913 0.00697656 0)
(1.03933 0.00685541 0)
(1.03952 0.00673296 0)
(1.0397 0.0066082 0)
(1.03989 0.00648027 0)
(1.04007 0.00634802 0)
(1.04025 0.00621066 0)
(1.04042 0.00606674 0)
(1.0406 0.00591578 0)
(1.04078 0.00575585 0)
(1.04095 0.00558732 0)
(1.04113 0.00540816 0)
(1.04131 0.00521982 0)
(1.04148 0.00502262 0)
(1.04167 0.00481882 0)
(1.04186 0.00461522 0)
(1.04209 0.00442012 0)
(1.04234 0.00424677 0)
(1.04271 0.00412822 0)
(1.04323 0.00406777 0)
(1.04412 0.00410614 0)
(1.0005 0.00753442 0)
(1.00814 0.0155908 0)
(1.01673 0.0154494 0)
(1.02163 0.0136779 0)
(1.02368 0.0131481 0)
(1.02515 0.0128737 0)
(1.0267 0.0122761 0)
(1.02806 0.0116279 0)
(1.02912 0.0111233 0)
(1.02998 0.0107216 0)
(1.03073 0.0103618 0)
(1.0314 0.0100324 0)
(1.032 0.00973638 0)
(1.03254 0.00947106 0)
(1.03303 0.00923055 0)
(1.03348 0.00901008 0)
(1.03389 0.00880646 0)