/*--------------------------------*- C++ -*----------------------------------*\
  =========                 |
  \\      /  F ield         | OpenFOAM: The Open Source CFD Toolbox
   \\    /   O peration     | Website:  https://openfoam.org
    \\  /    A nd           | Version:  7
     \\/     M anipulation  |
\*---------------------------------------------------------------------------*/
FoamFile
{
    version     2.0;
    format      ascii;
    class       volVectorField;
    location    "0.39";
    object      U_0;
}
// * * * * * * * * * * * * * * * * * * * * * * * * * * * * * * * * * * * * * //

dimensions      [0 1 -1 0 0 0 0];

internalField   nonuniform List<vector> 
70000
(
(0.553391 0.016723 0)
(0.251265 0.00340094 0)
(0.16621 0.000321931 0)
(0.132466 5.42161e-05 0)
(0.117278 4.56577e-05 0)
(0.107356 5.3836e-05 0)
(0.0994095 4.62059e-05 0)
(0.0929702 3.68706e-05 0)
(0.0877261 3.05603e-05 0)
(0.0833576 2.62356e-05 0)
(0.0796366 2.29373e-05 0)
(0.0764155 2.02926e-05 0)
(0.0735931 1.81321e-05 0)
(0.0710956 1.6343e-05 0)
(0.068867 1.48416e-05 0)
(0.066864 1.3566e-05 0)
(0.0650524 1.24705e-05 0)
(0.0634051 1.15197e-05 0)
(0.0618999 1.06882e-05 0)
(0.0605188 9.95418e-06 0)
(0.0592468 9.30221e-06 0)
(0.0580713 8.71879e-06 0)
(0.0569819 8.19314e-06 0)
(0.0559697 7.71642e-06 0)
(0.055027 7.2816e-06 0)
(0.0541474 6.88198e-06 0)
(0.0533252 6.51262e-06 0)
(0.0525558 6.1693e-06 0)
(0.0518349 5.84679e-06 0)
(0.051159 5.54489e-06 0)
(0.0505251 5.25581e-06 0)
(0.0499304 4.98579e-06 0)
(0.0493731 4.72082e-06 0)
(0.0488506 4.47835e-06 0)
(0.0483619 4.23122e-06 0)
(0.0479052 4.024e-06 0)
(0.0474795 3.78982e-06 0)
(0.0470842 3.65005e-06 0)
(0.0467163 3.424e-06 0)
(0.0463794 3.41372e-06 0)
(0.0460614 3.25948e-06 0)
(0.0457833 3.30365e-06 0)
(0.045492 3.82891e-06 0)
(0.0452916 2.82921e-06 0)
(0.0449444 6.64077e-06 0)
(0.0449193 5.58911e-07 0)
(0.0442705 1.34472e-05 0)
(0.0446835 -5.35244e-06 0)
(0.0435705 2.23991e-05 0)
(0.041198 -0.00161334 0)
(0.884899 0.0431672 0)
(0.649722 0.0201937 0)
(0.494335 0.00659798 0)
(0.403687 0.00276738 0)
(0.354766 0.00155193 0)
(0.323465 0.00113169 0)
(0.299605 0.000910631 0)
(0.280404 0.000746838 0)
(0.264685 0.000624057 0)
(0.251558 0.000533331 0)
(0.240372 0.00046442 0)
(0.230687 0.000410148 0)
(0.222197 0.000366247 0)
(0.214682 0.000330063 0)
(0.207972 0.000299789 0)
(0.201938 0.000274135 0)
(0.196479 0.000252151 0)
(0.191511 0.000233122 0)
(0.18697 0.000216504 0)
(0.182801 0.000201875 0)
(0.17896 0.000188901 0)
(0.175407 0.000177316 0)
(0.172113 0.000166902 0)
(0.16905 0.000157482 0)
(0.166196 0.000148908 0)
(0.16353 0.000141055 0)
(0.161037 0.000133817 0)
(0.158701 0.000127104 0)
(0.15651 0.000120833 0)
(0.154454 0.000114938 0)
(0.152522 0.000109348 0)
(0.150708 0.000104022 0)
(0.149005 9.88762e-05 0)
(0.147406 9.39186e-05 0)
(0.145907 8.90071e-05 0)
(0.144505 8.42858e-05 0)
(0.143195 7.94026e-05 0)
(0.141978 7.49195e-05 0)
(0.140846 6.98461e-05 0)
(0.13981 6.58875e-05 0)
(0.13884 6.04911e-05 0)
(0.137995 5.76985e-05 0)
(0.137139 5.26029e-05 0)
(0.136548 5.1509e-05 0)
(0.135611 4.97387e-05 0)
(0.135555 4.98227e-05 0)
(0.133905 5.99094e-05 0)
(0.13507 2.92003e-05 0)
(0.132126 0.000239394 0)
(0.130802 -0.00277925 0)
(0.991237 0.0499011 0)
(0.890354 0.0307181 0)
(0.7627 0.0145971 0)
(0.656701 0.00797934 0)
(0.585383 0.00488501 0)
(0.53598 0.00347177 0)
(0.49811 0.00273677 0)
(0.467481 0.00224488 0)
(0.442152 0.00188202 0)
(0.420824 0.00161056 0)
(0.402553 0.0014031 0)
(0.386673 0.00123969 0)
(0.37271 0.00110759 0)
(0.360316 0.000998715 0)
(0.349225 0.000907599 0)
(0.339233 0.00083036 0)
(0.330176 0.000764152 0)
(0.321923 0.000706833 0)
(0.314368 0.000656771 0)
(0.307424 0.000612698 0)
(0.301017 0.000573613 0)
(0.295087 0.000538716 0)
(0.289581 0.000507356 0)
(0.284457 0.000478999 0)
(0.279677 0.000453206 0)
(0.275209 0.000429599 0)
(0.271024 0.000407865 0)
(0.2671 0.000387727 0)
(0.263415 0.000368946 0)
(0.259952 0.000351313 0)
(0.256695 0.00033463 0)
(0.25363 0.00031874 0)
(0.250748 0.000303431 0)
(0.248036 0.000288653 0)
(0.245489 0.000274061 0)
(0.243099 0.000259909 0)
(0.240862 0.000245361 0)
(0.238775 0.000231617 0)
(0.236828 0.000216361 0)
(0.235038 0.000203443 0)
(0.233363 0.000186626 0)
(0.231887 0.000176361 0)
(0.230423 0.000157127 0)
(0.229364 0.000154557 0)
(0.227848 0.000131852 0)
(0.227621 0.000147633 0)
(0.225223 0.00013057 0)
(0.226698 9.98304e-05 0)
(0.222682 0.000377439 0)
(0.223038 -0.00285094 0)
(1.0156 0.0489198 0)
(1.00596 0.035874 0)
(0.935965 0.0207907 0)
(0.852146 0.0135038 0)
(0.782216 0.00920811 0)
(0.727022 0.0067824 0)
(0.681939 0.00538562 0)
(0.644172 0.00444736 0)
(0.612136 0.00375432 0)
(0.584645 0.0032289 0)
(0.560764 0.0028227 0)
(0.539789 0.00250058 0)
(0.521194 0.00223905 0)
(0.504577 0.00202274 0)
(0.489625 0.00184117 0)
(0.47609 0.00168684 0)
(0.463773 0.00155427 0)
(0.45251 0.00143927 0)
(0.442169 0.00133868 0)
(0.432638 0.00125 0)
(0.423823 0.00117127 0)
(0.415646 0.00110092 0)
(0.40804 0.00103765 0)
(0.400948 0.000980418 0)
(0.394321 0.000928348 0)
(0.388115 0.000880694 0)
(0.382295 0.000836834 0)
(0.376827 0.000796217 0)
(0.371686 0.000758376 0)
(0.366845 0.000722885 0)
(0.362284 0.000689362 0)
(0.357985 0.000657475 0)
(0.353933 0.000626834 0)
(0.350113 0.000597278 0)
(0.346516 0.000568196 0)
(0.343131 0.000539938 0)
(0.33995 0.000511055 0)
(0.336973 0.000483458 0)
(0.334184 0.000453227 0)
(0.331604 0.000426683 0)
(0.329185 0.000393026 0)
(0.327019 0.000370873 0)
(0.324905 0.000329802 0)
(0.323277 0.00032394 0)
(0.32118 0.000266273 0)
(0.320548 0.000301971 0)
(0.317646 0.000238926 0)
(0.31878 0.000214198 0)
(0.314498 0.000491375 0)
(0.314991 -0.00254748 0)
(1.01434 0.0460032 0)
(1.04753 0.0374873 0)
(1.02459 0.0241503 0)
(0.974775 0.0175584 0)
(0.923471 0.0131224 0)
(0.876706 0.0102073 0)
(0.834546 0.00834506 0)
(0.796794 0.00702533 0)
(0.763218 0.00601659 0)
(0.733383 0.00522974 0)
(0.706777 0.00460786 0)
(0.682933 0.00410682 0)
(0.661454 0.00369524 0)
(0.64201 0.00335167 0)
(0.624328 0.00306109 0)
(0.608178 0.00281256 0)
(0.59337 0.00259791 0)
(0.579742 0.00241089 0)
(0.567157 0.00224666 0)
(0.555501 0.0021014 0)
(0.544675 0.00197207 0)
(0.534593 0.00185622 0)
(0.525181 0.00175182 0)
(0.516378 0.00165722 0)
(0.508128 0.00157103 0)
(0.500381 0.00149206 0)
(0.493097 0.00141933 0)
(0.486239 0.00135195 0)
(0.479774 0.00128917 0)
(0.473674 0.00123031 0)
(0.467914 0.00117476 0)
(0.462471 0.00112196 0)
(0.45733 0.00107132 0)
(0.45247 0.00102253 0)
(0.447881 0.000974655 0)
(0.44355 0.000928126 0)
(0.439468 0.000880836 0)
(0.43563 0.000835346 0)
(0.432023 0.000786137 0)
(0.42866 0.000741877 0)
(0.425505 0.000687147 0)
(0.422631 0.000649027 0)
(0.419861 0.000580921 0)
(0.417598 0.000567779 0)
(0.414948 0.000469785 0)
(0.413696 0.000516022 0)
(0.410498 0.000412076 0)
(0.410769 0.000371114 0)
(0.406703 0.000643515 0)
(0.406257 -0.00210118 0)
(1.00933 0.0429145 0)
(1.05528 0.0372623 0)
(1.05869 0.0252941 0)
(1.03638 0.0197576 0)
(1.00712 0.015811 0)
(0.97608 0.0129369 0)
(0.944558 0.0109626 0)
(0.913689 0.00948253 0)
(0.884324 0.0082939 0)
(0.856848 0.00732731 0)
(0.831342 0.00653781 0)
(0.807744 0.00588529 0)
(0.785936 0.00533841 0)
(0.765777 0.00487447 0)
(0.747124 0.00447684 0)
(0.729838 0.00413295 0)
(0.71379 0.00383315 0)
(0.698863 0.00356983 0)
(0.684952 0.00333701 0)
(0.671964 0.00312986 0)
(0.659813 0.00294446 0)
(0.648427 0.00277763 0)
(0.637739 0.0026267 0)
(0.62769 0.00248946 0)
(0.618229 0.00236404 0)
(0.609309 0.00224885 0)
(0.600889 0.00214253 0)
(0.592932 0.00204386 0)
(0.585406 0.00195182 0)
(0.578282 0.00186544 0)
(0.571535 0.00178389 0)
(0.56514 0.00170638 0)
(0.559081 0.00163207 0)
(0.553338 0.00156051 0)
(0.547897 0.00149044 0)
(0.542745 0.0014223 0)
(0.537873 0.00135341 0)
(0.533273 0.00128676 0)
(0.528936 0.00121555 0)
(0.524863 0.00115024 0)
(0.521037 0.00107154 0)
(0.5175 0.00101375 0)
(0.514126 0.000916292 0)
(0.511222 0.000889709 0)
(0.508085 0.000754144 0)
(0.506115 0.000793332 0)
(0.502732 0.000665469 0)
(0.501961 0.000584423 0)
(0.498155 0.000857202 0)
(0.496559 -0.0015222 0)
(1.00625 0.040033 0)
(1.05206 0.0363346 0)
(1.0661 0.0252229 0)
(1.05961 0.0205567 0)
(1.04689 0.0172372 0)
(1.03082 0.0146563 0)
(1.01193 0.0128222 0)
(0.991249 0.0113996 0)
(0.969834 0.0102053 0)
(0.948416 0.00919134 0)
(0.92744 0.00833203 0)
(0.90717 0.00759947 0)
(0.887755 0.00696926 0)
(0.869265 0.00642268 0)
(0.851723 0.00594534 0)
(0.835117 0.00552586 0)
(0.819418 0.00515509 0)
(0.804585 0.00482556 0)
(0.790572 0.00453115 0)
(0.777331 0.00426683 0)
(0.764813 0.00402838 0)
(0.752971 0.00381229 0)
(0.741762 0.00361558 0)
(0.731144 0.00343572 0)
(0.721079 0.00327056 0)
(0.711531 0.00311819 0)
(0.702466 0.00297703 0)
(0.693856 0.00284559 0)
(0.685673 0.00272263 0)
(0.677892 0.00260697 0)
(0.670491 0.00249756 0)
(0.66345 0.00239343 0)
(0.656751 0.00229351 0)
(0.650378 0.00219721 0)
(0.644318 0.002103 0)
(0.638558 0.00201125 0)
(0.63309 0.00191885 0)
(0.627904 0.00182897 0)
(0.622998 0.00173398 0)
(0.618361 0.00164533 0)
(0.613996 0.00154121 0)
(0.60991 0.00146069 0)
(0.606041 0.00133399 0)
(0.602576 0.0012873 0)
(0.599042 0.00112057 0)
(0.596403 0.00113618 0)
(0.592868 0.000998689 0)
(0.591155 0.000867886 0)
(0.587479 0.00114128 0)
(0.584897 -0.000828769 0)
(1.00495 0.0373549 0)
(1.04727 0.0352523 0)
(1.06398 0.0246826 0)
(1.06427 0.0205825 0)
(1.0607 0.0177743 0)
(1.05477 0.0154983 0)
(1.04603 0.0138792 0)
(1.03484 0.0126219 0)
(1.02193 0.011539 0)
(1.0079 0.0105888 0)
(0.993202 0.00975777 0)
(0.978192 0.00902832 0)
(0.963137 0.00838371 0)
(0.948233 0.00781087 0)
(0.933617 0.00729961 0)
(0.919383 0.00684158 0)
(0.905594 0.00642975 0)
(0.892284 0.00605814 0)
(0.879473 0.00572166 0)
(0.867166 0.00541591 0)
(0.85536 0.00513713 0)
(0.844047 0.00488207 0)
(0.833213 0.00464787 0)
(0.822842 0.00443208 0)
(0.812917 0.00423252 0)
(0.803421 0.00404728 0)
(0.794335 0.00387466 0)
(0.785642 0.00371312 0)
(0.777326 0.0035613 0)
(0.769369 0.00341792 0)
(0.761757 0.00328181 0)
(0.754477 0.00315187 0)
(0.747515 0.00302689 0)
(0.740859 0.00290615 0)
(0.734501 0.00278792 0)
(0.728429 0.00267247 0)
(0.722641 0.00255646 0)
(0.717123 0.00244294 0)
(0.711882 0.00232401 0)
(0.706899 0.00221123 0)
(0.702193 0.00208182 0)
(0.697743 0.00197685 0)
(0.693542 0.00182261 0)
(0.689677 0.00175084 0)
(0.685864 0.00155937 0)
(0.682719 0.00154071 0)
(0.679064 0.00140158 0)
(0.676634 0.0012235 0)
(0.672989 0.00149388 0)
(0.669722 -3.77152e-05 0)
(1.0044 0.0348069 0)
(1.04324 0.0341789 0)
(1.05994 0.0240411 0)
(1.0623 0.0202881 0)
(1.06252 0.0178374 0)
(1.06183 0.0157787 0)
(1.05927 0.0143329 0)
(1.05474 0.0132412 0)
(1.04853 0.012301 0)
(1.04096 0.0114635 0)
(1.03232 0.0107175 0)
(1.02285 0.0100496 0)
(1.01278 0.00944668 0)
(1.00232 0.00889943 0)
(0.991623 0.00840089 0)
(0.980825 0.00794556 0)
(0.970033 0.00752877 0)
(0.959328 0.00714643 0)
(0.948773 0.00679494 0)
(0.938415 0.00647112 0)
(0.928288 0.00617211 0)
(0.918417 0.00589536 0)
(0.908819 0.00563856 0)
(0.899503 0.00539963 0)
(0.890476 0.00517672 0)
(0.88174 0.0049681 0)
(0.873294 0.00477223 0)
(0.865136 0.00458767 0)
(0.857262 0.00441313 0)
(0.849668 0.00424733 0)
(0.842348 0.00408909 0)
(0.835298 0.00393732 0)
(0.828511 0.00379073 0)
(0.821983 0.00364854 0)
(0.81571 0.00350893 0)
(0.809685 0.00337204 0)
(0.80391 0.0032345 0)
(0.798375 0.00309901 0)
(0.793091 0.0029579 0)
(0.788036 0.00282216 0)
(0.783241 0.00266922 0)
(0.778671 0.00254007 0)
(0.774349 0.00236116 0)
(0.770305 0.00226218 0)
(0.766377 0.00205162 0)
(0.762944 0.00199384 0)
(0.759258 0.00185675 0)
(0.756372 0.00164205 0)
(0.752745 0.00190255 0)
(0.749114 0.00081714 0)
(1.00402 0.0323667 0)
(1.03991 0.0331285 0)
(1.05617 0.0234176 0)
(1.05894 0.0198993 0)
(1.06024 0.0177063 0)
(1.0616 0.015782 0)
(1.06199 0.0144373 0)
(1.06111 0.0134605 0)
(1.05906 0.0126365 0)
(1.05595 0.0119052 0)
(1.05186 0.0112528 0)
(1.04692 0.0106654 0)
(1.04123 0.0101299 0)
(1.03494 0.0096376 0)
(1.02815 0.00918253 0)
(1.02098 0.00876056 0)
(1.01353 0.00836838 0)
(1.00589 0.0080032 0)
(0.998121 0.00766263 0)
(0.990292 0.00734453 0)
(0.982453 0.00704697 0)
(0.974648 0.00676818 0)
(0.96691 0.00650651 0)
(0.959268 0.00626043 0)
(0.951745 0.00602852 0)
(0.944358 0.00580941 0)
(0.937122 0.00560187 0)
(0.930047 0.00540468 0)
(0.923142 0.00521672 0)
(0.916413 0.00503688 0)
(0.909865 0.00486406 0)
(0.903501 0.00469724 0)
(0.897325 0.00453517 0)
(0.891337 0.00437708 0)
(0.885542 0.00422115 0)
(0.879936 0.00406739 0)
(0.874528 0.00391258 0)
(0.869309 0.00375896 0)
(0.864297 0.00359936 0)
(0.859472 0.00344389 0)
(0.854867 0.00327089 0)
(0.850449 0.00311997 0)
(0.846249 0.00292047 0)
(0.842274 0.00279493 0)
(0.838433 0.00257076 0)
(0.834956 0.00247389 0)
(0.831378 0.0023399 0)
(0.828306 0.00210418 0)
(0.824772 0.00235036 0)
(0.821061 0.00168669 0)
(1.00364 0.0300262 0)
(1.03692 0.0320807 0)
(1.05283 0.0228275 0)
(1.0557 0.0194934 0)
(1.05715 0.0175134 0)
(1.05906 0.0156809 0)
(1.06051 0.0143835 0)
(1.06122 0.0134696 0)
(1.06124 0.0127193 0)
(1.0606 0.0120625 0)
(1.05931 0.0114828 0)
(1.05736 0.0109649 0)
(1.0548 0.0104942 0)
(1.05168 0.0100608 0)
(1.04805 0.00965829 0)
(1.04398 0.00928226 0)
(1.03953 0.0089296 0)
(1.03475 0.00859788 0)
(1.02971 0.00828517 0)
(1.02445 0.00798985 0)
(1.01903 0.00771052 0)
(1.01349 0.00744593 0)
(1.00787 0.00719493 0)
(1.00219 0.0069564 0)
(0.996494 0.00672935 0)
(0.990797 0.00651274 0)
(0.985126 0.00630564 0)
(0.979496 0.00610708 0)
(0.973926 0.00591617 0)
(0.968428 0.00573198 0)
(0.963014 0.00555357 0)
(0.957694 0.00538003 0)
(0.952479 0.00521021 0)
(0.947373 0.00504339 0)
(0.942387 0.00487783 0)
(0.937524 0.00471345 0)
(0.932794 0.00454723 0)
(0.928194 0.004381 0)
(0.923744 0.00420812 0)
(0.91943 0.00403789 0)
(0.915281 0.00384973 0)
(0.911276 0.00368127 0)
(0.90744 0.00346644 0)
(0.903777 0.00331729 0)
(0.900235 0.00308508 0)
(0.896948 0.00295307 0)
(0.893646 0.00282198 0)
(0.890643 0.00258245 0)
(0.887335 0.00281385 0)
(0.883784 0.00252628 0)
(1.00327 0.0277863 0)
(1.03409 0.0310217 0)
(1.04971 0.0222637 0)
(1.05274 0.0190855 0)
(1.05415 0.0173017 0)
(1.05611 0.0155506 0)
(1.05784 0.014275 0)
(1.05907 0.0133913 0)
(1.0599 0.0126816 0)
(1.06038 0.0120684 0)
(1.06047 0.0115339 0)
(1.06017 0.011063 0)
(1.05946 0.0106399 0)
(1.05835 0.0102534 0)
(1.05685 0.00989599 0)
(1.05498 0.00956269 0)
(1.05277 0.00924981 0)
(1.05023 0.00895461 0)
(1.04742 0.008675 0)
(1.04435 0.00840936 0)
(1.04106 0.00815636 0)
(1.03758 0.00791489 0)
(1.03394 0.00768397 0)
(1.03017 0.00746272 0)
(1.02629 0.00725031 0)
(1.02232 0.00704593 0)
(1.0183 0.00684885 0)
(1.01422 0.00665826 0)
(1.01012 0.00647344 0)
(1.00601 0.0062936 0)
(1.00191 0.00611794 0)
(0.997823 0.00594568 0)
(0.993766 0.00577574 0)
(0.989749 0.00560748 0)
(0.985782 0.00543927 0)
(0.981874 0.00527093 0)
(0.978036 0.00509969 0)
(0.974271 0.00492704 0)
(0.970595 0.00474682 0)
(0.967003 0.00456762 0)
(0.963519 0.00437001 0)
(0.960131 0.00418926 0)
(0.956858 0.00396509 0)
(0.953706 0.00379686 0)
(0.950647 0.00356208 0)
(0.947752 0.0034017 0)
(0.944876 0.00327296 0)
(0.942165 0.00304534 0)
(0.939228 0.00326589 0)
(0.93604 0.00329371 0)
(1.00292 0.0256504 0)
(1.03138 0.0299469 0)
(1.04671 0.021722 0)
(1.04995 0.0186755 0)
(1.05133 0.0170779 0)
(1.05326 0.0154132 0)
(1.05502 0.0141529 0)
(1.05637 0.0132846 0)
(1.05743 0.012598 0)
(1.05829 0.0120087 0)
(1.05895 0.011499 0)
(1.05939 0.011055 0)
(1.05959 0.010661 0)
(1.05955 0.010305 0)
(1.05926 0.00997896 0)
(1.05871 0.00967721 0)
(1.05792 0.00939552 0)
(1.05688 0.0091307 0)
(1.05561 0.0088803 0)
(1.05413 0.00864239 0)
(1.05244 0.00841546 0)
(1.05057 0.00819827 0)
(1.04852 0.00798979 0)
(1.04633 0.00778911 0)
(1.04399 0.00759541 0)
(1.04154 0.00740794 0)
(1.03899 0.00722597 0)
(1.03634 0.0070488 0)
(1.03362 0.00687573 0)
(1.03085 0.00670605 0)
(1.02802 0.00653902 0)
(1.02517 0.00637392 0)
(1.02229 0.00620975 0)
(1.0194 0.00604588 0)
(1.0165 0.00588078 0)
(1.01362 0.00571421 0)
(1.01076 0.00554358 0)
(1.00792 0.00537014 0)
(1.00511 0.00518808 0)
(1.00235 0.00500544 0)
(0.999642 0.00480398 0)
(0.996988 0.00461623 0)
(0.994398 0.00438859 0)
(0.991882 0.00420648 0)
(0.989425 0.00397393 0)
(0.987061 0.00379346 0)
(0.984718 0.00366663 0)
(0.982453 0.00346291 0)
(0.980011 0.00367876 0)
(0.977342 0.00395629 0)
(1.0026 0.0236213 0)
(1.0288 0.0288552 0)
(1.04379 0.0212013 0)
(1.04726 0.0182634 0)
(1.04865 0.0168405 0)
(1.05054 0.0152712 0)
(1.05229 0.0140281 0)
(1.05365 0.0131706 0)
(1.05475 0.0125003 0)
(1.05571 0.0119262 0)
(1.05654 0.0114304 0)
(1.05724 0.0110009 0)
(1.05781 0.0106229 0)
(1.05823 0.0102844 0)
(1.05851 0.00997714 0)
(1.05864 0.00969517 0)
(1.05861 0.00943402 0)
(1.05843 0.00919019 0)
(1.05809 0.00896094 0)
(1.05759 0.00874407 0)
(1.05694 0.00853785 0)
(1.05615 0.00834083 0)
(1.05522 0.00815183 0)
(1.05415 0.0079698 0)
(1.05297 0.00779384 0)
(1.05166 0.00762311 0)
(1.05026 0.00745685 0)
(1.04876 0.00729428 0)
(1.04717 0.00713469 0)
(1.0455 0.00697737 0)
(1.04377 0.00682153 0)
(1.04198 0.00666649 0)
(1.04015 0.00651121 0)
(1.03827 0.00635511 0)
(1.03636 0.00619668 0)
(1.03443 0.00603561 0)
(1.03249 0.00586944 0)
(1.03054 0.00569925 0)
(1.02859 0.0055195 0)
(1.02665 0.0053377 0)
(1.02472 0.00513689 0)
(1.02281 0.00494653 0)
(1.02093 0.00472029 0)
(1.01909 0.0045293 0)
(1.01727 0.00430242 0)
(1.01549 0.00411019 0)
(1.01372 0.00398518 0)
(1.01198 0.00381235 0)
(1.0101 0.00402895 0)
(1.00805 0.00449302 0)
(1.0023 0.0217005 0)
(1.02634 0.0277473 0)
(1.04096 0.0206998 0)
(1.04465 0.0178506 0)
(1.04606 0.0165883 0)
(1.04792 0.0151231 0)
(1.04967 0.0139018 0)
(1.05102 0.0130542 0)
(1.05212 0.0123986 0)
(1.05307 0.011837 0)
(1.05394 0.0113509 0)
(1.0547 0.0109303 0)
(1.05538 0.0105616 0)
(1.05598 0.0102329 0)
(1.05648 0.00993613 0)
(1.0569 0.00966545 0)
(1.05722 0.00941635 0)
(1.05745 0.00918526 0)
(1.05758 0.0089693 0)
(1.05761 0.00876617 0)
(1.05755 0.00857395 0)
(1.05738 0.00839109 0)
(1.05712 0.00821625 0)
(1.05677 0.00804829 0)
(1.05632 0.0078862 0)
(1.05579 0.00772902 0)
(1.05517 0.0075759 0)
(1.05447 0.00742601 0)
(1.05369 0.00727853 0)
(1.05284 0.00713271 0)
(1.05193 0.00698768 0)
(1.05096 0.00684274 0)
(1.04994 0.00669681 0)
(1.04888 0.00654928 0)
(1.04777 0.00639863 0)
(1.04662 0.00624451 0)
(1.04545 0.0060845 0)
(1.04425 0.00591957 0)
(1.04304 0.00574438 0)
(1.04181 0.00556592 0)
(1.04058 0.00536863 0)
(1.03935 0.00517859 0)
(1.03811 0.00495695 0)
(1.03688 0.00476113 0)
(1.03566 0.00454168 0)
(1.03445 0.00434468 0)
(1.03323 0.00422166 0)
(1.03202 0.0040819 0)
(1.0307 0.00430133 0)
(1.02928 0.00489462 0)
(1.00203 0.019889 0)
(1.02402 0.0266264 0)
(1.03823 0.0202145 0)
(1.04213 0.017439 0)
(1.04357 0.0163214 0)
(1.0454 0.0149675 0)
(1.04715 0.0137735 0)
(1.04849 0.0129359 0)
(1.04957 0.0122948 0)
(1.05052 0.0117458 0)
(1.05137 0.0112684 0)
(1.05214 0.0108548 0)
(1.05284 0.0104925 0)
(1.05347 0.0101702 0)
(1.05404 0.00987987 0)
(1.05455 0.00961582 0)
(1.05501 0.00937367 0)
(1.0554 0.00914991 0)
(1.05574 0.00894168 0)
(1.05601 0.00874667 0)
(1.05623 0.00856293 0)
(1.05638 0.00838886 0)
(1.05648 0.00822306 0)
(1.05651 0.00806433 0)
(1.05648 0.00791159 0)
(1.05639 0.00776383 0)
(1.05624 0.00762011 0)
(1.05604 0.00747954 0)
(1.05578 0.00734122 0)
(1.05546 0.00720433 0)
(1.0551 0.00706794 0)
(1.05469 0.0069313 0)
(1.05423 0.00679327 0)
(1.05373 0.00665321 0)
(1.0532 0.00650957 0)
(1.05263 0.00636195 0)
(1.05203 0.00620797 0)
(1.05141 0.00604847 0)
(1.05076 0.00587834 0)
(1.05009 0.00570397 0)
(1.04941 0.00551134 0)
(1.04871 0.00532298 0)
(1.048 0.00510735 0)
(1.04729 0.00490946 0)
(1.04656 0.00469763 0)
(1.04584 0.00450065 0)
(1.04509 0.00437953 0)
(1.04434 0.00427138 0)
(1.04351 0.00449153 0)
(1.04269 0.00516238 0)
(1.00179 0.018187 0)
(1.02184 0.0254962 0)
(1.03559 0.0197416 0)
(1.03969 0.0170306 0)
(1.04116 0.0160404 0)
(1.04296 0.0148036 0)
(1.0447 0.0136426 0)
(1.04606 0.0128154 0)
(1.04713 0.0121888 0)
(1.04806 0.0116529 0)
(1.0489 0.0111846 0)
(1.04966 0.0107777 0)
(1.05035 0.0104212 0)
(1.05098 0.0101041 0)
(1.05155 0.00981861 0)
(1.05208 0.00955916 0)
(1.05257 0.00932153 0)
(1.05302 0.00910231 0)
(1.05342 0.00889873 0)
(1.05379 0.0087085 0)
(1.05412 0.00852972 0)
(1.0544 0.00836079 0)
(1.05466 0.00820032 0)
(1.05487 0.00804711 0)
(1.05505 0.00790005 0)
(1.05518 0.00775813 0)
(1.05528 0.00762036 0)
(1.05535 0.00748581 0)
(1.05537 0.00735354 0)
(1.05536 0.00722267 0)
(1.05532 0.00709222 0)
(1.05524 0.00696139 0)
(1.05513 0.00682903 0)
(1.055 0.00669443 0)
(1.05483 0.00655604 0)
(1.05464 0.00641342 0)
(1.05442 0.00626421 0)
(1.05418 0.00610913 0)
(1.05392 0.00594335 0)
(1.05364 0.00577256 0)
(1.05335 0.0055844 0)
(1.05304 0.00539786 0)
(1.05271 0.00518815 0)
(1.05238 0.00498966 0)
(1.05203 0.00478446 0)
(1.05167 0.00459012 0)
(1.05129 0.00447009 0)
(1.05091 0.00438935 0)
(1.05049 0.00460496 0)
(1.05018 0.005307 0)
(1.00157 0.0165942 0)
(1.01979 0.0243608 0)
(1.03305 0.019277 0)
(1.03734 0.016627 0)
(1.03885 0.0157466 0)
(1.04061 0.0146305 0)
(1.04235 0.0135089 0)
(1.0437 0.0126926 0)
(1.04477 0.0120805 0)
(1.04569 0.0115584 0)
(1.04651 0.0110996 0)
(1.04726 0.0106996 0)
(1.04794 0.0103489 0)
(1.04856 0.0100369 0)
(1.04912 0.00975583 0)
(1.04965 0.00950035 0)
(1.05014 0.00926636 0)
(1.05059 0.00905055 0)
(1.05101 0.00885024 0)
(1.0514 0.00866318 0)
(1.05176 0.00848754 0)
(1.05209 0.00832176 0)
(1.0524 0.00816447 0)
(1.05268 0.00801451 0)
(1.05294 0.00787078 0)
(1.05318 0.00773227 0)
(1.05339 0.00759799 0)
(1.05358 0.007467 0)
(1.05374 0.00733833 0)
(1.05389 0.00721108 0)
(1.05401 0.00708424 0)
(1.05411 0.00695699 0)
(1.05419 0.00682815 0)
(1.05425 0.00669697 0)
(1.05429 0.00656194 0)
(1.05432 0.00642254 0)
(1.05432 0.00627649 0)
(1.05432 0.00612439 0)
(1.0543 0.00596169 0)
(1.05426 0.00579337 0)
(1.05421 0.00560877 0)
(1.05415 0.00542348 0)
(1.05408 0.00521868 0)
(1.05399 0.00502008 0)
(1.0539 0.00481989 0)
(1.05379 0.00462901 0)
(1.05367 0.00450859 0)
(1.05356 0.00444896 0)
(1.05345 0.00465328 0)
(1.05353 0.00534574 0)
(1.00137 0.0151096 0)
(1.01788 0.0232242 0)
(1.03062 0.0188167 0)
(1.03507 0.0162297 0)
(1.03663 0.0154415 0)
(1.03835 0.0144478 0)
(1.04008 0.0133718 0)
(1.04144 0.0125676 0)
(1.0425 0.0119697 0)
(1.04341 0.011462 0)
(1.04422 0.0110133 0)
(1.04496 0.0106206 0)
(1.04562 0.0102758 0)
(1.04623 0.009969 0)
(1.04678 0.00969242 0)
(1.0473 0.00944084 0)
(1.04777 0.00921028 0)
(1.04822 0.00899756 0)
(1.04863 0.00880004 0)
(1.04902 0.00861556 0)
(1.04938 0.00844231 0)
(1.04973 0.00827879 0)
(1.05005 0.00812368 0)
(1.05035 0.00797582 0)
(1.05064 0.00783417 0)
(1.0509 0.00769772 0)
(1.05115 0.00756551 0)
(1.05139 0.00743658 0)
(1.05161 0.00730996 0)
(1.05182 0.00718476 0)
(1.05201 0.00705993 0)
(1.05219 0.00693464 0)
(1.05236 0.00680772 0)
(1.05252 0.00667839 0)
(1.05266 0.00654518 0)
(1.0528 0.00640752 0)
(1.05292 0.00626321 0)
(1.05304 0.00611272 0)
(1.05315 0.00595187 0)
(1.05325 0.00578485 0)
(1.05334 0.00560269 0)
(1.05342 0.00541787 0)
(1.05349 0.00521665 0)
(1.05356 0.00501787 0)
(1.05361 0.00482083 0)
(1.05367 0.00463312 0)
(1.05371 0.0045103 0)
(1.05379 0.00446421 0)
(1.05389 0.00464995 0)
(1.05426 0.00529783 0)
(1.0012 0.0137317 0)
(1.01611 0.0220903 0)
(1.0283 0.0183572 0)
(1.0329 0.0158399 0)
(1.03451 0.0151267 0)
(1.03618 0.0142549 0)
(1.0379 0.0132311 0)
(1.03927 0.0124403 0)
(1.04032 0.0118564 0)
(1.04122 0.0113635 0)
(1.04202 0.0109256 0)
(1.04275 0.0105405 0)
(1.0434 0.010202 0)
(1.04399 0.00990048 0)
(1.04454 0.00962853 0)
(1.04504 0.00938092 0)
(1.04551 0.00915384 0)
(1.04594 0.00894418 0)
(1.04634 0.00874937 0)
(1.04672 0.00856731 0)
(1.04708 0.00839624 0)
(1.04741 0.00823467 0)
(1.04773 0.00808134 0)
(1.04803 0.00793513 0)
(1.04832 0.00779502 0)
(1.04859 0.00766002 0)
(1.04885 0.00752918 0)
(1.0491 0.00740156 0)
(1.04934 0.00727619 0)
(1.04957 0.00715215 0)
(1.04978 0.00702841 0)
(1.04999 0.00690413 0)
(1.05019 0.00677815 0)
(1.05039 0.00664967 0)
(1.05058 0.00651727 0)
(1.05076 0.00638033 0)
(1.05094 0.00623678 0)
(1.05111 0.00608691 0)
(1.05128 0.00592694 0)
(1.05144 0.00576031 0)
(1.0516 0.00557961 0)
(1.05175 0.0053946 0)
(1.0519 0.00519568 0)
(1.05205 0.00499645 0)
(1.05218 0.00480079 0)
(1.05233 0.00461536 0)
(1.05247 0.00448795 0)
(1.05267 0.00444719 0)
(1.05292 0.0046069 0)
(1.05348 0.00518288 0)
(1.00104 0.0124582 0)
(1.01447 0.0209636 0)
(1.02609 0.0178949 0)
(1.03081 0.0154583 0)
(1.03248 0.0148043 0)
(1.03411 0.0140513 0)
(1.03581 0.0130862 0)
(1.03718 0.0123109 0)
(1.03823 0.0117405 0)
(1.03912 0.0112628 0)
(1.03991 0.0108364 0)
(1.04063 0.0104593 0)
(1.04127 0.0101272 0)
(1.04185 0.00983126 0)
(1.04239 0.00956409 0)
(1.04288 0.00932061 0)
(1.04333 0.00909711 0)
(1.04375 0.00889058 0)
(1.04415 0.00869853 0)
(1.04452 0.0085189 0)
(1.04486 0.00834997 0)
(1.04519 0.00819031 0)
(1.0455 0.00803867 0)
(1.04579 0.00789397 0)
(1.04607 0.00775521 0)
(1.04634 0.00762144 0)
(1.0466 0.0074917 0)
(1.04684 0.00736508 0)
(1.04708 0.00724059 0)
(1.04731 0.00711732 0)
(1.04753 0.00699424 0)
(1.04774 0.00687049 0)
(1.04795 0.00674494 0)
(1.04816 0.00661677 0)
(1.04836 0.00648463 0)
(1.04856 0.00634783 0)
(1.04875 0.00620445 0)
(1.04895 0.0060546 0)
(1.04914 0.00589491 0)
(1.04932 0.00572808 0)
(1.04951 0.00554815 0)
(1.04969 0.0053625 0)
(1.04987 0.00516485 0)
(1.05005 0.00496487 0)
(1.05023 0.00476911 0)
(1.05042 0.00458455 0)
(1.05062 0.00445073 0)
(1.05088 0.00440681 0)
(1.05124 0.0045334 0)
(1.05194 0.00501767 0)
(1.0009 0.0112861 0)
(1.01296 0.0198484 0)
(1.02399 0.0174267 0)
(1.0288 0.0150855 0)
(1.03054 0.0144762 0)
(1.03214 0.0138367 0)
(1.03381 0.0129364 0)
(1.03518 0.0121793 0)
(1.03624 0.0116221 0)
(1.03712 0.0111597 0)
(1.0379 0.0107455 0)
(1.0386 0.0103769 0)
(1.03923 0.0100515 0)
(1.03981 0.00976126 0)
(1.04033 0.00949905 0)
(1.04081 0.00925985 0)
(1.04126 0.00904004 0)
(1.04167 0.00883675 0)
(1.04205 0.00864754 0)
(1.04241 0.0084704 0)
(1.04275 0.00830367 0)
(1.04306 0.00814593 0)
(1.04336 0.00799599 0)
(1.04365 0.00785279 0)
(1.04392 0.00771535 0)
(1.04418 0.00758276 0)
(1.04443 0.00745406 0)
(1.04467 0.00732833 0)
(1.0449 0.0072046 0)
(1.04512 0.00708194 0)
(1.04534 0.00695935 0)
(1.04555 0.00683593 0)
(1.04575 0.0067106 0)
(1.04596 0.00658251 0)
(1.04616 0.00645035 0)
(1.04636 0.00631343 0)
(1.04655 0.00616993 0)
(1.04675 0.00601979 0)
(1.04694 0.00586006 0)
(1.04714 0.00569273 0)
(1.04733 0.00551309 0)
(1.04752 0.00532657 0)
(1.04771 0.00512941 0)
(1.0479 0.00492845 0)
(1.04809 0.00473141 0)
(1.04831 0.00454615 0)
(1.04853 0.00440415 0)
(1.04884 0.00434935 0)
(1.04927 0.00443597 0)
(1.05006 0.00481422 0)
(1.00078 0.010212 0)
(1.01157 0.0187492 0)
(1.02201 0.01695 0)
(1.02688 0.0147215 0)
(1.0287 0.0141446 0)
(1.03025 0.0136113 0)
(1.0319 0.0127812 0)
(1.03327 0.0120454 0)
(1.03433 0.0115012 0)
(1.0352 0.0110542 0)
(1.03597 0.0106529 0)
(1.03667 0.0102932 0)
(1.03729 0.00997467 0)
(1.03786 0.00969039 0)
(1.03837 0.00943333 0)
(1.03884 0.00919856 0)
(1.03927 0.00898259 0)
(1.03968 0.00878263 0)
(1.04005 0.00859635 0)
(1.0404 0.00842179 0)
(1.04073 0.00825731 0)
(1.04103 0.00810156 0)
(1.04133 0.00795336 0)
(1.0416 0.00781169 0)
(1.04186 0.00767561 0)
(1.04212 0.00754419 0)
(1.04236 0.00741653 0)
(1.04259 0.00729169 0)
(1.04281 0.00716869 0)
(1.04302 0.00704662 0)
(1.04323 0.00692446 0)
(1.04344 0.00680132 0)
(1.04364 0.00667612 0)
(1.04384 0.00654802 0)
(1.04403 0.00641577 0)
(1.04422 0.00627861 0)
(1.04442 0.00613487 0)
(1.04461 0.00598432 0)
(1.0448 0.00582438 0)
(1.04499 0.00565643 0)
(1.04517 0.00547681 0)
(1.04536 0.00528933 0)
(1.04555 0.00509209 0)
(1.04575 0.00488989 0)
(1.04594 0.00469071 0)
(1.04617 0.00450298 0)
(1.04641 0.00435118 0)
(1.04675 0.00427881 0)
(1.04722 0.00431892 0)
(1.04807 0.0045828 0)
(1.00067 0.00923188 0)
(1.01031 0.0176703 0)
(1.02013 0.0164626 0)
(1.02505 0.014366 0)
(1.02694 0.0138114 0)
(1.02846 0.0133753 0)
(1.03008 0.0126198 0)
(1.03145 0.0119091 0)
(1.03251 0.0113778 0)
(1.03337 0.0109462 0)
(1.03414 0.0105582 0)
(1.03482 0.0102081 0)
(1.03544 0.00989674 0)
(1.03599 0.00961859 0)
(1.0365 0.00936686 0)
(1.03696 0.00913668 0)
(1.03739 0.00892467 0)
(1.03778 0.00872817 0)
(1.03814 0.00854492 0)
(1.03848 0.00837301 0)
(1.0388 0.00821087 0)
(1.0391 0.00805715 0)
(1.03938 0.00791075 0)
(1.03965 0.00777066 0)
(1.03991 0.00763597 0)
(1.04015 0.00750577 0)
(1.04038 0.00737917 0)
(1.0406 0.00725523 0)
(1.04082 0.00713299 0)
(1.04103 0.00701151 0)
(1.04123 0.00688978 0)
(1.04143 0.00676691 0)
(1.04162 0.00664184 0)
(1.04181 0.00651371 0)
(1.042 0.00638134 0)
(1.04218 0.00624392 0)
(1.04237 0.00609991 0)
(1.04255 0.00594892 0)
(1.04274 0.00578871 0)
(1.04292 0.0056201 0)
(1.0431 0.00544033 0)
(1.04329 0.00525187 0)
(1.04347 0.00505413 0)
(1.04366 0.00485045 0)
(1.04386 0.00464837 0)
(1.04408 0.0044565 0)
(1.04434 0.00429319 0)
(1.04469 0.00419768 0)
(1.0452 0.00418575 0)
(1.04609 0.00433146 0)
(1.00058 0.00834101 0)
(1.00917 0.0166161 0)
(1.01838 0.0159627 0)
(1.0233 0.0140185 0)
(1.02527 0.0134787 0)
(1.02676 0.0131292 0)
(1.02834 0.0124517 0)
(1.02971 0.0117702 0)
(1.03077 0.011252 0)
(1.03163 0.0108355 0)
(1.03239 0.0104615 0)
(1.03307 0.0101214 0)
(1.03368 0.00981758 0)
(1.03422 0.00954575 0)
(1.03472 0.00929954 0)
(1.03517 0.00907412 0)
(1.03559 0.00886623 0)
(1.03597 0.0086733 0)
(1.03633 0.00849318 0)
(1.03666 0.00832402 0)
(1.03697 0.00816427 0)
(1.03726 0.00801267 0)
(1.03754 0.00786812 0)
(1.0378 0.00772966 0)
(1.03805 0.0075964 0)
(1.03828 0.00746747 0)
(1.03851 0.00734197 0)
(1.03872 0.00721897 0)
(1.03893 0.0070975 0)
(1.03913 0.00697663 0)
(1.03932 0.00685536 0)
(1.03951 0.00673276 0)
(1.0397 0.00660784 0)
(1.03988 0.0064797 0)
(1.04006 0.00634721 0)
(1.04024 0.00620955 0)
(1.04042 0.00606527 0)
(1.0406 0.00591385 0)
(1.04077 0.00575335 0)
(1.04095 0.0055841 0)
(1.04112 0.00540405 0)
(1.0413 0.00521461 0)
(1.04148 0.00501604 0)
(1.04167 0.00481059 0)
(1.04186 0.00460498 0)
(1.04208 0.00440737 0)
(1.04234 0.00423084 0)
(1.04271 0.00410775 0)
(1.04324 0.00403997 0)
(1.04414 0.00406543 0)
(1.0005 0.0075344 0)
(1.00814 0.0155908 0)
(1.01673 0.0154494 0)
(1.02163 0.0136779 0)
(1.02368 0.0131482 0)
(1.02515 0.0128739 0)
(1.0267 0.0122764 0)
(1.02806 0.0116283 0)
(1.02912 0.0111238 0)
(1.02998 0.0107221 0)
(1.03073 0.0103624 0)
(1.0314 0.010033 0)
(1.032 0.00973708 0)
(1.03254 0.00947179 0)
(1.03303 0.00923129 0)