/*--------------------------------*- C++ -*----------------------------------*\
  =========                 |
  \\      /  F ield         | OpenFOAM: The Open Source CFD Toolbox
   \\    /   O peration     | Website:  https://openfoam.org
    \\  /    A nd           | Version:  7
     \\/     M anipulation  |
\*---------------------------------------------------------------------------*/
FoamFile
{
    version     2.0;
    format      ascii;
    class       volVectorField;
    location    "0.39";
    object      wallShearStress;
}
// * * * * * * * * * * * * * * * * * * * * * * * * * * * * * * * * * * * * * //

dimensions      [0 2 -2 0 0 0 0];

internalField   uniform (0 0 0);

boundaryField
{
    velocityInlet
    {
        type            calculated;
        value           uniform (0 0 0);
    }
    pressureOutlet
    {
        type            calculated;
        value           uniform (0 0 0);
    }
    fixedWalls
    {
        type            calculated;
        value           nonuniform List<vector> 
100
(
(0.0182352 -0.000436175 0)
(-0.00498481 0.00141997 0)
(-0.0022572 0.000108364 0)
(-0.00612895 0.000212034 0)
(-0.00645593 -1.18651e-05 0)
(-0.00640164 -2.09111e-05 0)
(-0.00617151 -2.33856e-05 0)
(-0.00584083 -2.77877e-05 0)
(-0.00551777 -2.52816e-05 0)
(-0.00526746 -1.81178e-05 0)
(-0.00510878 -9.66969e-06 0)
(-0.00503275 -2.46359e-06 0)
(-0.00502138 3.45993e-06 0)
(-0.00505591 8.11236e-06 0)
(-0.00512173 1.16042e-05 0)
(-0.00521327 1.44938e-05 0)
(-0.00533069 1.72394e-05 0)
(-0.00548856 2.22542e-05 0)
(-0.00571657 3.36466e-05 0)
(-0.0061501 7.38838e-05 0)
(-0.00713201 0.000150485 0)
(-0.00869148 0.000175315 0)
(-0.00995205 7.45837e-05 0)
(-0.0100578 -5.87934e-05 0)
(-0.00952179 -4.34689e-05 0)
(-0.00975628 0.000144522 0)
(-0.0110362 0.000283558 0)
(-0.0117401 0.000194657 0)
(-0.009876 -0.000244573 0)
(-0.00428259 -0.000843257 0)
(0.00348511 -0.00109146 0)
(0.010477 -0.00104109 0)
(0.0150003 -0.000675535 0)
(0.0166121 -0.000252635 0)
(0.015596 0.000118896 0)
(0.0126259 0.000378119 0)
(0.0085911 0.000495289 0)
(0.00442521 0.000475301 0)
(0.000856128 0.00037841 0)
(-0.00179222 0.000269915 0)
(-0.00357639 0.000173046 0)
(-0.00469935 0.000108386 0)
(-0.00538018 6.99763e-05 0)
(-0.00577892 4.7844e-05 0)
(-0.00597978 3.41363e-05 0)
(-0.00600352 2.05733e-05 0)
(-0.00582633 7.38386e-07 0)
(-0.00539417 -2.78578e-05 0)
(-0.00463966 -6.73209e-05 0)
(-0.0035212 -0.000115419 0)
(-0.00203334 -0.000171936 0)
(-0.000246092 -0.000209954 0)
(0.00161293 -0.000223895 0)
(0.00325365 -0.000203181 0)
(0.0044133 -0.000146006 0)
(0.00486303 -6.28612e-05 0)
(0.00449126 3.78618e-05 0)
(0.00341007 0.000115684 0)
(0.00191316 0.000155353 0)
(0.000336285 0.000156415 0)
(-0.00105304 0.000131776 0)
(-0.00211432 9.61899e-05 0)
(-0.00283096 6.25103e-05 0)
(-0.0032633 3.67113e-05 0)
(-0.00349538 1.96696e-05 0)
(-0.00360336 1.00869e-05 0)
(-0.00364114 5.5598e-06 0)
(-0.00363733 3.07739e-06 0)
(-0.00359917 6.81625e-07 0)
(-0.00351909 -2.9444e-06 0)
(-0.00338446 -8.10282e-06 0)
(-0.00318783 -1.4047e-05 0)
(-0.00293274 -1.95892e-05 0)
(-0.00263325 -2.37128e-05 0)
(-0.00230943 -2.586e-05 0)
(-0.00198055 -2.62359e-05 0)
(-0.00165815 -2.58854e-05 0)
(-0.0013445 -2.57999e-05 0)
(-0.00104038 -2.59119e-05 0)
(-0.000752679 -2.55155e-05 0)
(-0.000496649 -2.39125e-05 0)
(-0.000296873 -1.98963e-05 0)
(-0.000195541 -1.17615e-05 0)
(-0.000244401 2.19004e-06 0)
(-0.000471987 1.80279e-05 0)
(-0.000842604 3.05518e-05 0)
(-0.00127163 3.50236e-05 0)
(-0.00166276 3.10153e-05 0)
(-0.00195447 2.2089e-05 0)
(-0.00212568 1.23466e-05 0)
(-0.00219266 4.40452e-06 0)
(-0.00219751 -4.82944e-07 0)
(-0.00216879 -2.03433e-06 0)
(-0.0021663 -1.69896e-06 0)
(-0.00219115 2.63247e-06 0)
(-0.00226261 3.69321e-06 0)
(-0.00250745 1.42608e-05 0)
(-0.00258798 1.5388e-05 0)
(-0.00344424 5.67477e-05 0)
(-0.00414903 3.07119e-05 0)
)
;
    }
    bottomWall
    {
        type            calculated;
        value           nonuniform List<vector> 
800
(
(-0.0353488 0.00214398 0)
(-0.0160263 0.000524841 0)
(-0.0106074 0.000100721 0)
(-0.00845545 3.52623e-05 0)
(-0.00748572 1.98608e-05 0)
(-0.00685213 1.61202e-05 0)
(-0.00634472 1.33532e-05 0)
(-0.00593372 1.08958e-05 0)
(-0.00559912 9.07354e-06 0)
(-0.00532046 7.75705e-06 0)
(-0.00508315 6.76046e-06 0)
(-0.00487774 5.97346e-06 0)
(-0.00469774 5.33613e-06 0)
(-0.00453841 4.81103e-06 0)
(-0.00439618 4.37236e-06 0)
(-0.00426824 4.00129e-06 0)
(-0.00415244 3.68399e-06 0)
(-0.00404701 3.40996e-06 0)
(-0.00395054 3.17127e-06 0)
(-0.00386189 2.96192e-06 0)
(-0.00378008 2.77688e-06 0)
(-0.00370432 2.61241e-06 0)
(-0.00363393 2.46544e-06 0)
(-0.00356833 2.33338e-06 0)
(-0.00350703 2.21411e-06 0)
(-0.00344961 2.10604e-06 0)
(-0.00339568 2.00787e-06 0)
(-0.00334494 1.91811e-06 0)
(-0.0032971 1.83585e-06 0)
(-0.00325191 1.76039e-06 0)
(-0.00320915 1.69075e-06 0)
(-0.00316863 1.6263e-06 0)
(-0.00313017 1.5667e-06 0)
(-0.00309361 1.51139e-06 0)
(-0.00305882 1.45974e-06 0)
(-0.00302567 1.41158e-06 0)
(-0.00299404 1.36665e-06 0)
(-0.00296384 1.32449e-06 0)
(-0.00293496 1.2849e-06 0)
(-0.00290733 1.24773e-06 0)
(-0.00288086 1.21281e-06 0)
(-0.00285548 1.17981e-06 0)
(-0.00283113 1.14874e-06 0)
(-0.00280774 1.11925e-06 0)
(-0.00278527 1.09146e-06 0)
(-0.00276366 1.06493e-06 0)
(-0.00274285 1.04023e-06 0)
(-0.00272282 1.01586e-06 0)
(-0.00270351 9.93925e-07 0)
(-0.00268491 9.70739e-07 0)
(-0.00266935 9.51701e-07 0)
(-0.0026565 9.40688e-07 0)
(-0.00264382 9.26669e-07 0)
(-0.00263133 9.11814e-07 0)
(-0.00261904 8.97954e-07 0)
(-0.00260693 8.84833e-07 0)
(-0.002595 8.71761e-07 0)
(-0.00258324 8.59091e-07 0)
(-0.00257165 8.47015e-07 0)
(-0.00256023 8.3486e-07 0)
(-0.00254897 8.22955e-07 0)
(-0.00253787 8.11627e-07 0)
(-0.00252692 8.00373e-07 0)
(-0.00251612 7.8936e-07 0)
(-0.00250547 7.78584e-07 0)
(-0.00249497 7.68043e-07 0)
(-0.00248461 7.57902e-07 0)
(-0.00247438 7.47825e-07 0)
(-0.00246429 7.37977e-07 0)
(-0.00245433 7.28357e-07 0)
(-0.00244451 7.18797e-07 0)
(-0.00243481 7.09627e-07 0)
(-0.00242523 7.00682e-07 0)
(-0.00241578 6.91789e-07 0)
(-0.00240644 6.83117e-07 0)
(-0.00239723 6.74661e-07 0)
(-0.00238812 6.66423e-07 0)
(-0.00237913 6.58232e-07 0)
(-0.00237024 6.50089e-07 0)
(-0.00236147 6.42323e-07 0)
(-0.0023528 6.34601e-07 0)
(-0.00234424 6.27088e-07 0)
(-0.00233578 6.19784e-07 0)
(-0.00232741 6.12519e-07 0)
(-0.00231914 6.0546e-07 0)
(-0.00231097 5.98438e-07 0)
(-0.0023029 5.91455e-07 0)
(-0.00229492 5.84839e-07 0)
(-0.00228702 5.78259e-07 0)
(-0.00227922 5.71713e-07 0)
(-0.0022715 5.65367e-07 0)
(-0.00226387 5.59053e-07 0)
(-0.00225632 5.52937e-07 0)
(-0.00224886 5.46852e-07 0)
(-0.00224148 5.40964e-07 0)
(-0.00223417 5.35271e-07 0)
(-0.00222695 5.29442e-07 0)
(-0.0022198 5.23806e-07 0)
(-0.00221273 5.18366e-07 0)
(-0.00220573 5.12951e-07 0)
(-0.0021988 5.07563e-07 0)
(-0.00219195 5.02201e-07 0)
(-0.00218517 4.97197e-07 0)
(-0.00217846 4.92051e-07 0)
(-0.00217182 4.86931e-07 0)
(-0.00216524 4.82167e-07 0)
(-0.00215873 4.77428e-07 0)
(-0.00215228 4.7271e-07 0)
(-0.0021459 4.68016e-07 0)
(-0.00213958 4.63343e-07 0)
(-0.00213332 4.58861e-07 0)
(-0.00212712 4.54398e-07 0)
(-0.00212098 4.49959e-07 0)
(-0.00211491 4.45872e-07 0)
(-0.00210888 4.41639e-07 0)
(-0.00210292 4.37426e-07 0)
(-0.002097 4.334e-07 0)
(-0.00209115 4.29225e-07 0)
(-0.00208535 4.25404e-07 0)
(-0.0020796 4.216e-07 0)
(-0.00207391 4.17648e-07 0)
(-0.00206826 4.1388e-07 0)
(-0.00206267 4.10129e-07 0)
(-0.00205713 4.06562e-07 0)
(-0.00205163 4.03011e-07 0)
(-0.00204618 3.9931e-07 0)
(-0.00204079 3.95792e-07 0)
(-0.00203544 3.92455e-07 0)
(-0.00203013 3.89136e-07 0)
(-0.00202487 3.85831e-07 0)
(-0.00201966 3.82542e-07 0)
(-0.00201449 3.79432e-07 0)
(-0.00200935 3.76173e-07 0)
(-0.00200427 3.72925e-07 0)
(-0.00199923 3.70025e-07 0)
(-0.00199422 3.66969e-07 0)
(-0.00198926 3.63928e-07 0)
(-0.00198434 3.60896e-07 0)
(-0.00197946 3.58049e-07 0)
(-0.00197462 3.55205e-07 0)
(-0.00196981 3.52387e-07 0)
(-0.00196505 3.49559e-07 0)
(-0.00196032 3.46774e-07 0)
(-0.00195563 3.44287e-07 0)
(-0.00195097 3.41546e-07 0)
(-0.00194635 3.38716e-07 0)
(-0.00194177 3.36366e-07 0)
(-0.00193722 3.33671e-07 0)
(-0.0019327 3.31215e-07 0)
(-0.00192822 3.28478e-07 0)
(-0.00192446 3.25813e-07 0)
(-0.00192139 3.24597e-07 0)
(-0.00191831 3.23241e-07 0)
(-0.00191521 3.21547e-07 0)
(-0.00191212 3.19681e-07 0)
(-0.00190902 3.17831e-07 0)
(-0.00190592 3.16245e-07 0)
(-0.00190281 3.14651e-07 0)
(-0.00189969 3.13064e-07 0)
(-0.00189657 3.11484e-07 0)
(-0.00189344 3.09687e-07 0)
(-0.00189032 3.07893e-07 0)
(-0.00188718 3.06563e-07 0)
(-0.00188403 3.04784e-07 0)
(-0.00188089 3.03021e-07 0)
(-0.00187774 3.01697e-07 0)
(-0.00187458 2.99951e-07 0)
(-0.00187142 2.98209e-07 0)
(-0.00186825 2.96689e-07 0)
(-0.00186508 2.95174e-07 0)
(-0.0018619 2.93459e-07 0)
(-0.00185872 2.91955e-07 0)
(-0.00185553 2.90466e-07 0)
(-0.00185233 2.88768e-07 0)
(-0.00184914 2.87088e-07 0)
(-0.00184594 2.85612e-07 0)
(-0.00184273 2.84147e-07 0)
(-0.00183952 2.82483e-07 0)
(-0.0018363 2.80834e-07 0)
(-0.00183308 2.79381e-07 0)
(-0.00182985 2.77943e-07 0)
(-0.00182662 2.7631e-07 0)
(-0.00182338 2.7469e-07 0)
(-0.00182014 2.73077e-07 0)
(-0.0018169 2.71665e-07 0)
(-0.00181365 2.70256e-07 0)
(-0.0018104 2.68857e-07 0)
(-0.00180713 2.67273e-07 0)
(-0.00180387 2.65705e-07 0)
(-0.0018006 2.64138e-07 0)
(-0.00179733 2.62767e-07 0)
(-0.00179405 2.61399e-07 0)
(-0.00179077 2.59681e-07 0)
(-0.00178749 2.58325e-07 0)
(-0.00178419 2.56981e-07 0)
(-0.0017809 2.55287e-07 0)
(-0.00177761 2.53957e-07 0)
(-0.0017743 2.5263e-07 0)
(-0.00177099 2.51145e-07 0)
(-0.00176768 2.49662e-07 0)
(-0.00176436 2.48191e-07 0)
(-0.00176104 2.46896e-07 0)
(-0.00175772 2.45444e-07 0)
(-0.00175439 2.44159e-07 0)
(-0.00175105 2.42726e-07 0)
(-0.00174772 2.41289e-07 0)
(-0.00174437 2.40036e-07 0)
(-0.00174103 2.38455e-07 0)
(-0.00173768 2.37214e-07 0)
(-0.00173433 2.35973e-07 0)
(-0.00173097 2.34426e-07 0)
(-0.00172761 2.33195e-07 0)
(-0.00172424 2.31977e-07 0)
(-0.00172087 2.30449e-07 0)
(-0.0017175 2.29098e-07 0)
(-0.00171412 2.27897e-07 0)
(-0.00171074 2.26708e-07 0)
(-0.00170734 2.25371e-07 0)
(-0.00170395 2.24053e-07 0)
(-0.00170056 2.22732e-07 0)
(-0.00169716 2.21422e-07 0)
(-0.00169376 2.20268e-07 0)
(-0.00169035 2.19119e-07 0)
(-0.00168693 2.17843e-07 0)
(-0.00168352 2.16566e-07 0)
(-0.0016801 2.15474e-07 0)
(-0.00167667 2.14189e-07 0)
(-0.00167324 2.13157e-07 0)
(-0.0016698 2.11963e-07 0)
(-0.00166636 2.10927e-07 0)
(-0.00166291 2.09704e-07 0)
(-0.00165945 2.08835e-07 0)
(-0.001656 2.07207e-07 0)
(-0.00165252 2.07198e-07 0)
(-0.00164907 2.04913e-07 0)
(-0.00164555 2.05913e-07 0)
(-0.00164212 2.0167e-07 0)
(-0.00163854 2.06002e-07 0)
(-0.00163516 1.97345e-07 0)
(-0.00163145 2.0852e-07 0)
(-0.00162822 1.89718e-07 0)
(-0.00162425 2.16354e-07 0)
(-0.00162132 1.75014e-07 0)
(-0.00161687 2.34674e-07 0)
(-0.00161455 1.4642e-07 0)
(-0.00160922 2.72634e-07 0)
(-0.00160796 9.24098e-08 0)
(-0.00160126 3.4e-07 0)
(-0.00160155 6.62592e-09 0)
(-0.00159306 3.74381e-07 0)
(-0.0353488 -0.00214397 0)
(-0.0160268 -0.00052482 0)
(-0.0106084 -0.000100702 0)
(-0.00845692 -3.5247e-05 0)
(-0.00748751 -1.98481e-05 0)
(-0.00685411 -1.61114e-05 0)
(-0.00634671 -1.33481e-05 0)
(-0.0059356 -1.08934e-05 0)
(-0.0056008 -9.07318e-06 0)
(-0.0053219 -7.75769e-06 0)
(-0.00508434 -6.76117e-06 0)
(-0.00487869 -5.97342e-06 0)
(-0.0046985 -5.33451e-06 0)
(-0.00453905 -4.80716e-06 0)
(-0.00439677 -4.36559e-06 0)
(-0.00426889 -3.99113e-06 0)
(-0.00415324 -3.67016e-06 0)
(-0.00404806 -3.39215e-06 0)
(-0.00395196 -3.14915e-06 0)
(-0.00386379 -2.93511e-06 0)
(-0.00378258 -2.74529e-06 0)
(-0.00370753 -2.57567e-06 0)
(-0.00363798 -2.42307e-06 0)
(-0.00357335 -2.28494e-06 0)
(-0.00351316 -2.15906e-06 0)
(-0.003457 -2.04377e-06 0)
(-0.00340451 -1.93746e-06 0)
(-0.00335538 -1.83869e-06 0)
(-0.00330936 -1.74641e-06 0)
(-0.0032662 -1.65966e-06 0)
(-0.00322573 -1.57735e-06 0)
(-0.00318776 -1.49935e-06 0)
(-0.00315216 -1.42387e-06 0)
(-0.00311879 -1.35194e-06 0)
(-0.00308758 -1.28086e-06 0)
(-0.00305841 -1.21436e-06 0)
(-0.00303121 -1.14564e-06 0)
(-0.00300595 -1.08715e-06 0)
(-0.00298243 -1.01903e-06 0)
(-0.00296088 -9.76842e-07 0)
(-0.00294053 -9.11309e-07 0)
(-0.00292273 -8.95813e-07 0)
(-0.00290407 -8.64169e-07 0)
(-0.00289122 -8.49412e-07 0)
(-0.00286898 -9.81733e-07 0)
(-0.00286733 -8.17379e-07 0)
(-0.00282593 -1.39871e-06 0)
(-0.00285221 -3.53361e-07 0)
(-0.00277914 -6.0136e-06 0)
(-0.00262137 0.000188023 0)
(-9.23428e-06 1.28372e-05 0)
(-8.24575e-06 5.43005e-05 0)
(-8.9304e-06 9.88681e-05 0)
(-1.64146e-05 0.000154567 0)
(-3.74862e-05 0.000230711 0)
(-8.28795e-05 0.000348581 0)
(-0.000162643 0.00053963 0)
(-0.000261252 0.000830236 0)
(-0.000324853 0.00120061 0)
(-0.000306063 0.00156277 0)
(-0.000207262 0.00181101 0)
(-7.57713e-05 0.00189579 0)
(4.46015e-05 0.00182944 0)
(0.000132855 0.00165922 0)
(0.000190306 0.00141782 0)
(0.000221831 0.00113734 0)
(0.000235002 0.00084125 0)
(0.000236583 0.000544573 0)
(0.000231291 0.000254796 0)
(0.000221731 -2.35917e-05 0)
(0.000209026 -0.000286146 0)
(0.000193938 -0.000531122 0)
(0.000177383 -0.000757152 0)
(0.000160326 -0.000963479 0)
(0.000143783 -0.00115037 0)
(0.00012864 -0.00131902 0)
(0.000115608 -0.00147138 0)
(0.000105134 -0.00161002 0)
(9.73399e-05 -0.0017378 0)
(9.2021e-05 -0.00185754 0)
(8.86885e-05 -0.00197173 0)
(8.6649e-05 -0.00208232 0)
(8.51065e-05 -0.00219051 0)
(8.32135e-05 -0.00229675 0)
(8.01675e-05 -0.0024007 0)
(7.53809e-05 -0.00250135 0)
(6.8438e-05 -0.00259728 0)
(5.89876e-05 -0.0026867 0)
(4.70325e-05 -0.00276763 0)
(3.28595e-05 -0.00283837 0)
(1.63124e-05 -0.00289733 0)
(-2.38879e-06 -0.00294267 0)
(-2.24624e-05 -0.00297369 0)
(-4.49273e-05 -0.00298976 0)
(-7.05242e-05 -0.00298806 0)
(-9.81096e-05 -0.00296812 0)
(-0.000127259 -0.00292947 0)
(-0.000157759 -0.00287128 0)
(-0.000189256 -0.00279325 0)
(-0.000221628 -0.00269522 0)
(-0.000254641 -0.00257678 0)
(-0.000287697 -0.00243758 0)
(-0.000319618 -0.00227763 0)
(-0.000349047 -0.0020976 0)
(-0.000374664 -0.001898 0)
(-0.000392752 -0.00167941 0)
(-0.000395482 -0.00144489 0)
(-0.000375042 -0.00120241 0)
(-0.000328665 -0.000963236 0)
(-0.000258316 -0.000739479 0)
(-0.000170834 -0.000542756 0)
(-7.77365e-05 -0.000381755 0)
(9.42193e-06 -0.000258006 0)
(8.22445e-05 -0.000169166 0)
(0.000136199 -0.000111769 0)
(0.000170484 -8.00345e-05 0)
(0.000184023 -6.76336e-05 0)
(0.000179056 -6.68625e-05 0)
(0.000159723 -7.23642e-05 0)
(0.000131899 -7.99406e-05 0)
(0.000100778 -8.78504e-05 0)
(7.04498e-05 -9.47109e-05 0)
(4.50786e-05 -0.000100886 0)
(2.79698e-05 -0.00010933 0)
(1.97086e-05 -0.000123922 0)
(1.94438e-05 -0.000146351 0)
(2.56568e-05 -0.000174303 0)
(3.80721e-05 -0.000204533 0)
(5.6107e-05 -0.000235952 0)
(7.63868e-05 -0.000269273 0)
(9.39461e-05 -0.000304842 0)
(0.000104476 -0.00034148 0)
(0.000106048 -0.000376401 0)
(9.856e-05 -0.000406899 0)
(8.29298e-05 -0.000430547 0)
(6.06096e-05 -0.000444955 0)
(3.33997e-05 -0.00044768 0)
(3.58015e-06 -0.000437851 0)
(-2.66616e-05 -0.000415465 0)
(-5.53084e-05 -0.000381365 0)
(-8.07224e-05 -0.000337196 0)
(-0.000101798 -0.00028508 0)
(-0.000117865 -0.00022743 0)
(-0.000128669 -0.000166782 0)
(-0.000134424 -0.000105595 0)
(-0.000135994 -4.5906e-05 0)
(-0.000134217 1.14018e-05 0)
(-0.000129497 6.54608e-05 0)
(-0.000122349 0.000115134 0)
(-0.000113231 0.000159536 0)
(-0.000102666 0.000197824 0)
(-9.13992e-05 0.000229864 0)
(-8.0059e-05 0.000256048 0)
(-6.90561e-05 0.000276961 0)
(-5.86256e-05 0.000293181 0)
(-4.88936e-05 0.00030523 0)
(-3.99143e-05 0.000313564 0)
(-3.17863e-05 0.000319073 0)
(-2.44542e-05 0.000321931 0)
(-1.78607e-05 0.000322146 0)
(-1.19918e-05 0.000320095 0)
(-6.7531e-06 0.00031611 0)
(-2.0426e-06 0.000310414 0)
(2.21147e-06 0.000303198 0)
(6.09142e-06 0.000294621 0)
(9.67286e-06 0.000284799 0)
(1.30179e-05 0.000273818 0)
(1.61733e-05 0.000261735 0)
(1.91681e-05 0.000248591 0)
(2.20054e-05 0.000234416 0)
(2.46632e-05 0.000219257 0)
(2.71143e-05 0.000203182 0)
(2.93242e-05 0.000186274 0)
(3.12497e-05 0.000168644 0)
(3.28465e-05 0.000150439 0)
(3.40755e-05 0.000131833 0)
(3.48897e-05 0.000113069 0)
(3.53062e-05 9.44755e-05 0)
(3.54165e-05 7.63874e-05 0)
(3.53577e-05 5.91723e-05 0)
(3.53941e-05 4.31645e-05 0)
(3.58357e-05 2.85586e-05 0)
(3.69996e-05 1.53927e-05 0)
(3.91241e-05 3.5272e-06 0)
(4.23548e-05 -7.30653e-06 0)
(4.67324e-05 -1.75026e-05 0)
(5.21296e-05 -2.75226e-05 0)
(5.82584e-05 -3.77661e-05 0)
(6.47486e-05 -4.85139e-05 0)
(7.11609e-05 -5.98877e-05 0)
(7.69921e-05 -7.16733e-05 0)
(8.27743e-05 -8.41682e-05 0)
(8.79225e-05 -9.6397e-05 0)
(9.11179e-05 -0.000106913 0)
(9.04173e-05 -0.000113804 0)
(8.53307e-05 -0.000116779 0)
(7.53048e-05 -0.000116074 0)
(5.88988e-05 -0.00011368 0)
(3.16067e-05 -0.000110877 0)
(-1.24031e-05 -0.000106812 0)
(-7.71055e-05 -9.4595e-05 0)
(-0.000159892 -6.19399e-05 0)
(-0.000249445 6.35992e-07 0)
(-0.000330647 9.18581e-05 0)
(-0.000392357 0.000200748 0)
(-0.000431002 0.000314451 0)
(-0.00044859 0.000424245 0)
(-0.000449159 0.000526059 0)
(-0.000436674 0.000618452 0)
(-0.000414447 0.000700987 0)
(-0.000385154 0.000773626 0)
(-0.000350848 0.000836571 0)
(-0.000313055 0.000890119 0)
(-0.000272898 0.00093459 0)
(-0.000231189 0.000970276 0)
(-0.000188543 0.000997445 0)
(-0.000145418 0.00101635 0)
(-0.00010214 0.0010272 0)
(-5.91869e-05 0.00103025 0)
(-1.70101e-05 0.00102587 0)
(2.43778e-05 0.00101455 0)
(6.50458e-05 0.000996478 0)
(0.000104716 0.000971879 0)
(0.000143214 0.000940991 0)
(0.000180347 0.000904061 0)
(0.0002159 0.000861342 0)
(0.000249611 0.000813086 0)
(0.000281163 0.000759526 0)
(0.000310186 0.000700951 0)
(0.000336172 0.000637556 0)
(0.000359945 0.000572327 0)
(0.000381985 0.000506262 0)
(0.00039984 0.000436098 0)
(0.000412342 0.000361838 0)
(0.000418123 0.000283945 0)
(0.000415787 0.000203445 0)
(0.000404059 0.000121958 0)
(0.000381948 4.16691e-05 0)
(0.000348959 -3.47356e-05 0)
(0.000305404 -0.000104233 0)
(0.000252467 -0.000163695 0)
(0.000192284 -0.000210305 0)
(0.000127743 -0.000242095 0)
(6.27139e-05 -0.000261829 0)
(-2.42923e-06 -0.000272909 0)
(-6.85726e-05 -0.000286232 0)
(-0.000144322 -0.000328723 0)
(-0.000256122 -0.000444406 0)
(-0.000455533 -0.000680058 0)
(-0.000746627 -0.00102647 0)
(1.18131e-05 2.21535e-05 0)
(-3.40687e-05 6.28388e-05 0)
(-0.000114762 8.17685e-05 0)
(-0.000198033 8.3689e-05 0)
(-0.000277704 7.61723e-05 0)
(-0.000347319 6.22888e-05 0)
(-0.000402909 4.45679e-05 0)
(-0.000442394 2.52087e-05 0)
(-0.000465115 6.64263e-06 0)
(-0.000472418 -8.5922e-06 0)
(-0.000467392 -1.84553e-05 0)
(-0.000454791 -2.21077e-05 0)
(-0.000439923 -2.0274e-05 0)
(-0.000426821 -1.44616e-05 0)
(-0.000418187 -6.21388e-06 0)
(-0.000415161 3.25397e-06 0)
(-0.000419729 1.35581e-05 0)
(-0.000431761 2.27048e-05 0)
(-0.000450257 3.28756e-05 0)
(-0.000481131 4.33983e-05 0)
(-0.000516703 4.32949e-05 0)
(-0.000546042 4.40769e-05 0)
(-0.000582749 4.52075e-05 0)
(-0.000624903 1.72552e-05 0)
(-0.000638813 -4.33586e-05 0)
(-0.000608326 -0.000102666 0)
(-0.000555171 -0.000143612 0)
(-0.000489033 -0.000184098 0)
(-0.000385601 -0.000200051 0)
(-0.000272734 -0.000124402 0)
(-0.000210374 2.98971e-05 0)
(-0.000218313 0.00014298 0)
(-0.000255221 0.000135881 0)
(-0.000245862 2.27071e-05 0)
(-0.000135974 -8.57174e-05 0)
(-1.86368e-05 -9.05986e-05 0)
(5.57598e-05 -8.46443e-05 0)
(0.000131504 -9.64229e-05 0)
(0.000217554 -0.000110324 0)
(0.000316639 -0.00012471 0)
(0.000428665 -0.00013725 0)
(0.000552293 -0.0001481 0)
(0.000686712 -0.000157099 0)
(0.000830808 -0.000164106 0)
(0.000983485 -0.0001691 0)
(0.00114395 -0.000172138 0)
(0.00131225 -0.000173299 0)
(0.00149051 -0.00017408 0)
(0.00168578 -0.000182209 0)
(0.00191444 -0.000221896 0)
(0.00220939 -0.000345249 0)
(0.00263402 -0.000614888 0)
(0.00328594 -0.000987494 0)
(0.00415165 -0.00116107 0)
(0.0048709 -0.000809469 0)
(0.00501193 -0.000124789 0)
(0.00461758 0.000373692 0)
(0.00409602 0.000516969 0)
(0.00363622 0.000514418 0)
(0.00321245 0.000503954 0)
(0.00279735 0.000496457 0)
(0.00239155 0.000485548 0)
(0.00199738 0.000473955 0)
(0.00161221 0.000465964 0)
(0.00123079 0.000464031 0)
(0.000847348 0.000468444 0)
(0.00045658 0.00047799 0)
(5.60011e-05 0.000490978 0)
(-0.000358907 0.000505195 0)
(-0.00078807 0.000515517 0)
(-0.00122401 0.000518625 0)
(-0.0016617 0.000514717 0)
(-0.00209452 0.000501462 0)
(-0.00251428 0.000477438 0)
(-0.00291228 0.000442978 0)
(-0.00327999 0.000399404 0)
(-0.00361117 0.000349029 0)
(-0.0039006 0.000291174 0)
(-0.00414186 0.000228194 0)
(-0.00433288 0.000158815 0)
(-0.00446374 8.32133e-05 0)
(-0.0045322 1.57227e-06 0)
(-0.00453216 -7.92826e-05 0)
(-0.00447774 -0.00015735 0)
(-0.00437671 -0.000254442 0)
(-0.00421304 -0.00039175 0)
(-0.00395881 -0.000555208 0)
(-0.00364258 -0.00090754 0)
(-0.00282669 -0.00145459 0)
(-0.00155637 -0.00144448 0)
(-0.000422568 -0.00106022 0)
(0.000447586 -0.000308844 0)
(0.000570175 0.00044022 0)
(0.000492939 0.000391789 0)
(0.000397355 0.00023741 0)
(0.000285693 0.000144791 0)
(0.000195841 0.000124131 0)
(8.68089e-05 0.000119942 0)
(-9.32703e-06 6.73786e-05 0)
(-2.41402e-05 -2.82465e-06 0)
(-2.47546e-05 4.61902e-06 0)
(-1.88277e-05 -5.35706e-06 0)
(-2.42189e-05 1.59057e-05 0)
(-8.00391e-05 -4.71628e-05 0)
(-0.000130235 -0.000221395 0)
(-0.000137274 -0.000423696 0)
(-0.000107679 -0.000604342 0)
(-5.33642e-05 -0.000721871 0)
(4.74424e-06 -0.000755594 0)
(4.98381e-05 -0.000715281 0)
(8.39903e-05 -0.000619354 0)
(0.000121972 -0.000478356 0)
(0.000175432 -0.000277775 0)
(0.000232503 -8.21829e-06 0)
(0.000273264 0.000304456 0)
(0.000281361 0.000633932 0)
(0.000255111 0.000937815 0)
(0.00020761 0.00118149 0)
(0.000155323 0.00135469 0)
(0.000110155 0.00146379 0)
(7.55752e-05 0.00152388 0)
(4.95452e-05 0.00155176 0)
(2.83904e-05 0.00155948 0)
(7.05653e-06 0.00155545 0)
(-1.95504e-05 0.00154144 0)
(-4.99095e-05 0.00151619 0)
(-7.30513e-05 0.00148073 0)
(-7.7543e-05 0.0014405 0)
(-6.58227e-05 0.00140092 0)
(-5.99375e-05 0.00135587 0)
(-8.37911e-05 0.00128383 0)
(-0.000137213 0.00116015 0)
(-0.000201661 0.000972926 0)
(-0.000251465 0.000728664 0)
(-0.000264227 0.000459063 0)
(-0.000238099 0.000203977 0)
(-0.000178593 1.97061e-06 0)
(-9.68039e-05 -0.000117998 0)
(6.06924e-06 -0.000171219 0)
(0.000125691 -0.000182713 0)
(0.000214219 -0.000171631 0)
(0.000239801 -0.000176947 0)
(0.000249426 -0.000154237 0)
(0.000127675 -4.38149e-05 0)
(-0.000219196 3.65158e-05 0)
(-0.000588471 -5.89927e-05 0)
(-0.000755451 -0.000252315 0)
(-0.000701958 -0.000417117 0)
(-0.000466236 -0.000484371 0)
(-0.000119258 -0.000423358 0)
(0.000272911 -0.00019948 0)
(0.000547532 0.000220054 0)
(0.000508038 0.000616974 0)
(0.00042281 0.000903026 0)
(0.000331314 0.00116305 0)
(0.000226201 0.00138157 0)
(0.000161545 0.00154233 0)
(0.000147256 0.00168479 0)
(0.000181523 0.00182563 0)
(0.000252614 0.00198099 0)
(0.000354111 0.00215349 0)
(0.000476337 0.00235583 0)
(0.000582388 0.0026014 0)
(0.000601349 0.00288113 0)
(0.000478646 0.00313282 0)
(0.000259566 0.00327447 0)
(7.65638e-05 0.00328999 0)
(1.89569e-05 0.00325174 0)
(5.43228e-05 0.00324088 0)
(8.93788e-05 0.00327478 0)
(7.19639e-05 0.00331478 0)
(2.33599e-05 0.00332267 0)
(-9.63492e-06 0.00329841 0)
(-1.24827e-05 0.00326912 0)
(-5.3609e-06 0.0032507 0)
(-7.78583e-06 0.00323719 0)
(-2.03295e-05 0.00321728 0)
(-3.29149e-05 0.00318779 0)
(-3.91873e-05 0.00315368 0)
(-4.10063e-05 0.00312005 0)
(-4.29743e-05 0.00308752 0)
(-4.68709e-05 0.00305401 0)
(-5.13403e-05 0.0030182 0)
(-5.4687e-05 0.00298073 0)
(-5.66564e-05 0.00294284 0)
(-5.80181e-05 0.00290514 0)
(-5.93994e-05 0.00286753 0)
(-6.082e-05 0.00282973 0)
(-6.20113e-05 0.00279179 0)
(-6.28379e-05 0.00275394 0)
(-6.33818e-05 0.00271638 0)
(-6.37795e-05 0.00267918 0)
(-6.40986e-05 0.00264233 0)
(-6.43445e-05 0.00260583 0)
(-6.44977e-05 0.00256969 0)
(-6.45745e-05 0.00253399 0)
(-6.46058e-05 0.00249872 0)
(-6.46021e-05 0.00246388 0)
(-6.45746e-05 0.00242948 0)
(-6.4526e-05 0.00239552 0)
(-6.44591e-05 0.002362 0)
(-6.43751e-05 0.00232893 0)
(-6.42729e-05 0.00229631 0)
(-6.41404e-05 0.00226414 0)
(-6.39758e-05 0.00223245 0)
(-6.37627e-05 0.00220123 0)
(-6.34931e-05 0.00217053 0)
(-6.31541e-05 0.00214033 0)
(-6.27355e-05 0.0021107 0)
(-6.2244e-05 0.00208165 0)
(-6.16682e-05 0.00205322 0)
(-6.10202e-05 0.00202545 0)
(-6.03095e-05 0.00199835 0)
(-5.95351e-05 0.00197198 0)
(-5.87061e-05 0.00194634 0)
(-5.77984e-05 0.00192145 0)
(-5.67698e-05 0.00189736 0)
(-5.55995e-05 0.00187412 0)
(-5.42418e-05 0.00185178 0)
(-5.26834e-05 0.00183044 0)
(-5.09236e-05 0.00181014 0)
(-4.89399e-05 0.00179095 0)
(-4.67164e-05 0.00177295 0)
(-4.42366e-05 0.00175621 0)
(-4.14797e-05 0.00174081 0)
(-3.84365e-05 0.00172684 0)
(-3.50857e-05 0.00171437 0)
(-3.13887e-05 0.00170352 0)
(-2.73232e-05 0.00169438 0)
(-2.28578e-05 0.00168707 0)
(-1.79498e-05 0.0016817 0)
(-1.25467e-05 0.00167869 0)
(-6.6461e-06 0.00167824 0)
(-2.80899e-07 0.00168015 0)
(6.60871e-06 0.00168454 0)
(1.40565e-05 0.00169161 0)
(2.2057e-05 0.00170154 0)
(3.0643e-05 0.00171451 0)
(3.9859e-05 0.00173074 0)
(4.977e-05 0.00175043 0)
(6.04719e-05 0.00177384 0)
(7.20773e-05 0.00180122 0)
(8.47435e-05 0.00183284 0)
(9.8685e-05 0.00186898 0)
(0.000114157 0.00190994 0)
(0.000131515 0.00195596 0)
(0.000151195 0.00200727 0)
(0.000173757 0.00206391 0)
(0.000199939 0.00212578 0)
(0.000230646 0.00219243 0)
(0.000266943 0.00226312 0)
(0.000310018 0.00233686 0)
(0.000360989 0.00241304 0)
(0.000420488 0.00249245 0)
(0.000488115 0.00257849 0)
(0.000561949 0.00267734 0)
(0.000638531 0.00279557 0)
(0.000714059 0.00293516 0)
(0.00078714 0.00308928 0)
(0.000862509 0.00324381 0)
(0.00095142 0.00338708 0)
(0.00106505 0.00353104 0)
(0.00119964 0.00370677 0)
(0.0013325 0.00392853 0)
(0.00144451 0.00416882 0)
(0.00154448 0.00438386 0)
(0.00165765 0.00457457 0)
(0.00178344 0.00480433 0)
(0.00187638 0.0051332 0)
(0.00187998 0.00552927 0)
(0.00178712 0.00588755 0)
(0.0016523 0.00612613 0)
(0.00154339 0.00625985 0)
(0.001484 0.00637111 0)
(0.00144607 0.0065215 0)
(0.00139078 0.00670382 0)
(0.00130584 0.00687225 0)
(0.00120879 0.00701597 0)
(0.00111328 0.00711896 0)
(0.00102609 0.00720169 0)
(0.000944963 0.00727523 0)
(0.000866293 0.00733898 0)
(0.000788894 0.00738933 0)
(0.000712929 0.00742578 0)
(0.000637792 0.00744991 0)
(0.000561944 0.00746135 0)
(0.000486634 0.00745727 0)
(0.00041345 0.00743704 0)
(0.000342761 0.00740041 0)
(0.000276922 0.00734805 0)
(0.000216476 0.00728208 0)
(0.000158832 0.00720395 0)
(0.000100423 0.00711408 0)
(4.32504e-05 0.00701108 0)
(4.0057e-06 0.00689527 0)
(8.5752e-06 0.00677397 0)
(5.47906e-05 0.00666216 0)
(5.16408e-05 0.00656738 0)
(-0.000185589 0.00646326 0)
(-0.00069976 0.0063805 0)
)
;
    }
    frontAndBack
    {
        type            empty;
    }
}


// ************************************************************************* //
