/*--------------------------------*- C++ -*----------------------------------*\
  =========                 |
  \\      /  F ield         | OpenFOAM: The Open Source CFD Toolbox
   \\    /   O peration     | Website:  https://openfoam.org
    \\  /    A nd           | Version:  7
     \\/     M anipulation  |
\*---------------------------------------------------------------------------*/
FoamFile
{
    version     2.0;
    format      ascii;
    class       volScalarField;
    location    "0.32";
    object      k;
}
// * * * * * * * * * * * * * * * * * * * * * * * * * * * * * * * * * * * * * //

dimensions      [0 2 -2 0 0 0 0];

internalField   nonuniform List<scalar> 
70000
(
1.08549e-05
4.21865e-06
2.82415e-06
2.31655e-06
1.99721e-06
1.75691e-06
1.56491e-06
1.40813e-06
1.27731e-06
1.16674e-06
1.07175e-06
9.89861e-07
9.18249e-07
8.55682e-07
8.00228e-07
7.5125e-07
7.07314e-07
6.68147e-07
6.32619e-07
6.00762e-07
5.7154e-07
5.45294e-07
5.20889e-07
4.99037e-07
4.78357e-07
4.6e-07
4.4225e-07
4.26692e-07
4.11299e-07
3.97977e-07
3.84553e-07
3.73002e-07
3.61284e-07
3.51117e-07
3.40909e-07
3.3185e-07
3.22902e-07
3.14926e-07
3.06733e-07
3.00156e-07
2.92119e-07
2.87404e-07
2.79362e-07
2.75707e-07
2.68248e-07
2.65741e-07
2.60058e-07
2.63252e-07
2.68619e-07
4.30775e-07
1.72794e-05
1.1367e-05
8.52e-06
7.00969e-06
6.03632e-06
5.31015e-06
4.7306e-06
4.25713e-06
3.86198e-06
3.52802e-06
3.24116e-06
2.99383e-06
2.77755e-06
2.58854e-06
2.42103e-06
2.27304e-06
2.14028e-06
2.02192e-06
1.91453e-06
1.81826e-06
1.72988e-06
1.65058e-06
1.57674e-06
1.51072e-06
1.44812e-06
1.39265e-06
1.33893e-06
1.29187e-06
1.24533e-06
1.20497e-06
1.16445e-06
1.12938e-06
1.09407e-06
1.06314e-06
1.03241e-06
1.00486e-06
9.77819e-07
9.53746e-07
9.28712e-07
9.09106e-07
8.84324e-07
8.7016e-07
8.45668e-07
8.34391e-07
8.11752e-07
8.03521e-07
7.85609e-07
7.91211e-07
8.14018e-07
9.48148e-07
1.937e-05
1.61295e-05
1.32905e-05
1.12887e-05
9.82728e-06
8.6949e-06
7.77694e-06
7.01961e-06
6.38288e-06
5.84205e-06
5.37583e-06
4.97263e-06
4.61921e-06
4.3096e-06
4.03474e-06
3.7914e-06
3.57276e-06
3.37759e-06
3.20016e-06
3.04111e-06
2.89471e-06
2.7635e-06
2.64086e-06
2.53148e-06
2.42735e-06
2.33527e-06
2.24585e-06
2.16752e-06
2.09013e-06
2.02267e-06
1.95544e-06
1.89654e-06
1.83812e-06
1.78597e-06
1.73513e-06
1.68879e-06
1.64361e-06
1.60371e-06
1.56109e-06
1.52921e-06
1.4867e-06
1.46313e-06
1.42185e-06
1.40262e-06
1.36443e-06
1.34981e-06
1.31767e-06
1.3209e-06
1.36981e-06
1.41691e-06
1.9861e-05
1.826e-05
1.60854e-05
1.41998e-05
1.26392e-05
1.13478e-05
1.02594e-05
9.33759e-06
8.54572e-06
7.863e-06
7.26798e-06
6.74878e-06
6.29032e-06
5.88603e-06
5.52514e-06
5.20394e-06
4.91391e-06
4.65414e-06
4.41685e-06
4.2039e-06
4.00679e-06
3.83029e-06
3.66425e-06
3.51645e-06
3.37488e-06
3.24984e-06
3.12802e-06
3.02097e-06
2.91555e-06
2.82272e-06
2.73131e-06
2.64966e-06
2.57038e-06
2.49776e-06
2.42852e-06
2.36436e-06
2.30176e-06
2.24766e-06
2.18728e-06
2.14477e-06
2.08467e-06
2.05201e-06
1.9945e-06
1.96769e-06
1.91413e-06
1.89411e-06
1.84593e-06
1.84397e-06
1.9162e-06
1.90395e-06
1.99706e-05
1.7846e-05
1.6075e-05
1.47669e-05
1.36026e-05
1.25378e-05
1.15688e-05
1.07016e-05
9.91989e-06
9.22469e-06
8.60412e-06
8.05168e-06
7.55561e-06
7.11192e-06
6.71066e-06
6.34955e-06
6.0199e-06
5.72261e-06
5.44837e-06
5.20151e-06
4.97066e-06
4.76387e-06
4.56726e-06
4.39238e-06
4.22341e-06
4.0739e-06
3.9278e-06
3.79837e-06
3.6717e-06
3.5582e-06
3.44837e-06
3.34757e-06
3.25217e-06
3.16219e-06
3.07797e-06
2.9993e-06
2.92122e-06
2.85637e-06
2.77966e-06
2.72884e-06
2.6535e-06
2.6127e-06
2.54103e-06
2.50781e-06
2.44042e-06
2.41505e-06
2.35357e-06
2.33997e-06
2.41554e-06
2.37675e-06
2.00096e-05
1.47038e-05
1.37488e-05
1.32125e-05
1.25928e-05
1.19288e-05
1.12789e-05
1.06588e-05
1.00811e-05
9.54726e-06
9.04606e-06
8.57975e-06
8.14568e-06
7.74588e-06
7.37385e-06
7.03159e-06
6.71239e-06
6.42085e-06
6.14704e-06
5.89887e-06
5.66261e-06
5.45026e-06
5.24497e-06
5.06189e-06
4.88293e-06
4.72336e-06
4.56707e-06
4.42643e-06
4.29013e-06
4.1648e-06
4.04612e-06
3.93343e-06
3.82954e-06
3.72869e-06
3.63504e-06
3.5481e-06
3.45863e-06
3.38814e-06
3.29947e-06
3.24319e-06
3.15757e-06
3.11084e-06
3.02899e-06
2.99086e-06
2.9135e-06
2.88347e-06
2.81557e-06
2.78409e-06
2.84975e-06
2.80791e-06
2.01332e-05
1.5465e-05
9.63475e-06
9.40054e-06
9.49585e-06
9.49552e-06
9.43721e-06
9.29947e-06
9.05799e-06
8.78426e-06
8.48864e-06
8.19113e-06
7.89863e-06
7.61528e-06
7.33742e-06
7.07721e-06
6.82837e-06
6.59571e-06
6.36963e-06
6.16146e-06
5.95669e-06
5.77079e-06
5.58612e-06
5.42e-06
5.25472e-06
5.10479e-06
4.95772e-06
4.82196e-06
4.69207e-06
4.5682e-06
4.45371e-06
4.34049e-06
4.23839e-06
4.13688e-06
4.04178e-06
3.95535e-06
3.86174e-06
3.79172e-06
3.69909e-06
3.64108e-06
3.55234e-06
3.5036e-06
3.41761e-06
3.37722e-06
3.29581e-06
3.26301e-06
3.1965e-06
3.14742e-06
3.19723e-06
3.16819e-06
2.01714e-05
1.86745e-05
8.68483e-06
5.54088e-06
5.63228e-06
5.93799e-06
6.29681e-06
6.58286e-06
6.76238e-06
6.87131e-06
6.89008e-06
6.87046e-06
6.81765e-06
6.72891e-06
6.61704e-06
6.49537e-06
6.35581e-06
6.21517e-06
6.06954e-06
5.93058e-06
5.78608e-06
5.6523e-06
5.51404e-06
5.38748e-06
5.25812e-06
5.13952e-06
5.0233e-06
4.91149e-06
4.80596e-06
4.69997e-06
4.6043e-06
4.50494e-06
4.4165e-06
4.32689e-06
4.24065e-06
4.16459e-06
4.07737e-06
4.01427e-06
3.92832e-06
3.8737e-06
3.79048e-06
3.74496e-06
3.66283e-06
3.62391e-06
3.54637e-06
3.51217e-06
3.45585e-06
3.39582e-06
3.43039e-06
3.40395e-06
2.01673e-05
1.97235e-05
1.61627e-05
4.855e-06
3.04265e-06
3.10711e-06
3.37777e-06
3.80866e-06
4.17483e-06
4.49321e-06
4.74023e-06
4.92975e-06
5.06949e-06
5.16971e-06
5.22681e-06
5.26307e-06
5.2651e-06
5.25643e-06
5.2326e-06
5.19603e-06
5.14486e-06
5.09184e-06
5.02876e-06
4.96561e-06
4.89675e-06
4.82662e-06
4.75499e-06
4.68029e-06
4.61033e-06
4.5347e-06
4.46772e-06
4.39406e-06
4.32848e-06
4.2609e-06
4.19322e-06
4.13511e-06
4.06486e-06
4.01405e-06
3.94539e-06
3.90054e-06
3.83193e-06
3.79513e-06
3.72597e-06
3.69266e-06
3.62879e-06
3.59271e-06
3.5561e-06
3.49582e-06
3.51878e-06
3.49547e-06
2.01478e-05
1.99341e-05
1.90641e-05
1.44909e-05
5.23078e-06
2.15315e-06
1.91489e-06
1.99513e-06
2.21003e-06
2.50942e-06
2.78532e-06
3.03898e-06
3.26305e-06
3.46021e-06
3.62233e-06
3.76122e-06
3.87075e-06
3.96005e-06
4.02881e-06
4.08271e-06
4.11923e-06
4.14406e-06
4.1583e-06
4.16078e-06
4.15754e-06
4.14874e-06
4.13514e-06
4.11276e-06
4.09186e-06
4.06159e-06
4.03513e-06
4.0008e-06
3.96906e-06
3.93445e-06
3.89672e-06
3.86505e-06
3.82254e-06
3.79204e-06
3.74799e-06
3.71851e-06
3.67066e-06
3.6459e-06
3.5966e-06
3.57183e-06
3.5283e-06
3.49551e-06
3.47572e-06
3.43083e-06
3.44706e-06
3.42895e-06
2.01217e-05
1.9966e-05
1.96416e-05
1.85433e-05
1.52021e-05
8.33704e-06
3.09211e-06
1.63148e-06
1.44236e-06
1.45014e-06
1.52805e-06
1.69032e-06
1.87202e-06
2.04964e-06
2.21846e-06
2.37863e-06
2.52397e-06
2.65594e-06
2.77242e-06
2.87645e-06
2.96704e-06
3.04516e-06
3.11311e-06
3.16935e-06
3.21767e-06
3.25612e-06
3.29028e-06
3.31393e-06
3.33558e-06
3.34827e-06
3.35922e-06
3.36436e-06
3.36592e-06
3.36477e-06
3.36075e-06
3.35594e-06
3.34516e-06
3.33715e-06
3.32235e-06
3.31325e-06
3.29384e-06
3.28402e-06
3.2633e-06
3.25168e-06
3.23288e-06
3.21425e-06
3.20761e-06
3.19048e-06
3.207e-06
3.19734e-06
2.00983e-05
1.99327e-05
1.97568e-05
1.93507e-05
1.85022e-05
1.65271e-05
1.23055e-05
6.8331e-06
2.97023e-06
1.48976e-06
1.24251e-06
1.14779e-06
1.15251e-06
1.1957e-06
1.28843e-06
1.39607e-06
1.50757e-06
1.61793e-06
1.72708e-06
1.8319e-06
1.93167e-06
2.02395e-06
2.11098e-06
2.18924e-06
2.2632e-06
2.32772e-06
2.38932e-06
2.44173e-06
2.49146e-06
2.53361e-06
2.57253e-06
2.60601e-06
2.63558e-06
2.66152e-06
2.68315e-06
2.70329e-06
2.71821e-06
2.73252e-06
2.74239e-06
2.7529e-06
2.75746e-06
2.76506e-06
2.76698e-06
2.77077e-06
2.77209e-06
2.77324e-06
2.77824e-06
2.78159e-06
2.80518e-06
2.80578e-06
2.00783e-05
1.98876e-05
1.97564e-05
1.94592e-05
1.91432e-05
1.86369e-05
1.7547e-05
1.54119e-05
1.17144e-05
7.41494e-06
3.95848e-06
1.90219e-06
1.2062e-06
1.05671e-06
9.81502e-07
9.43171e-07
9.54581e-07
9.89097e-07
1.05111e-06
1.11487e-06
1.18431e-06
1.25346e-06
1.32491e-06
1.3937e-06
1.46355e-06
1.52768e-06
1.59219e-06
1.6505e-06
1.70809e-06
1.76053e-06
1.81087e-06
1.85737e-06
1.90047e-06
1.94119e-06
1.97792e-06
2.01274e-06
2.04397e-06
2.0733e-06
2.09975e-06
2.12454e-06
2.14607e-06
2.1677e-06
2.18564e-06
2.20287e-06
2.22166e-06
2.23282e-06
2.25562e-06
2.26823e-06
2.29905e-06
2.31795e-06
2.00615e-05
1.98538e-05
1.97338e-05
1.94694e-05
1.92526e-05
1.90439e-05
1.87315e-05
1.81846e-05
1.70862e-05
1.5217e-05
1.25407e-05
9.20263e-06
5.94125e-06
3.45545e-06
1.86835e-06
1.16388e-06
9.64011e-07
8.90612e-07
8.36194e-07
7.9673e-07
7.98765e-07
8.12492e-07
8.42887e-07
8.80708e-07
9.21704e-07
9.63109e-07
1.00862e-06
1.05232e-06
1.09868e-06
1.14342e-06
1.1881e-06
1.23157e-06
1.27292e-06
1.31396e-06
1.3525e-06
1.38981e-06
1.42538e-06
1.45931e-06
1.49189e-06
1.52244e-06
1.55128e-06
1.57987e-06
1.60582e-06
1.63038e-06
1.65815e-06
1.67622e-06
1.70903e-06
1.72686e-06
1.76001e-06
1.79427e-06
2.00476e-05
1.98303e-05
1.97071e-05
1.94472e-05
1.92694e-05
1.91119e-05
1.89615e-05
1.87464e-05
1.84571e-05
1.79057e-05
1.70678e-05
1.56845e-05
1.3863e-05
1.1505e-05
8.82285e-06
6.21564e-06
4.05169e-06
2.48672e-06
1.4967e-06
1.02785e-06
8.62238e-07
7.98903e-07
7.51045e-07
7.11008e-07
6.82193e-07
6.79725e-07
6.85688e-07
6.99804e-07
7.22131e-07
7.45746e-07
7.70814e-07
7.97286e-07
8.24389e-07
8.53162e-07
8.81929e-07
9.1096e-07
9.40205e-07
9.68841e-07
9.97472e-07
1.025e-06
1.05161e-06
1.07906e-06
1.10435e-06
1.12947e-06
1.15689e-06
1.17749e-06
1.21049e-06
1.23052e-06
1.26025e-06
1.29954e-06
2.00363e-05
1.98124e-05
1.96845e-05
1.94167e-05
1.92552e-05
1.91052e-05
1.89966e-05
1.88453e-05
1.87081e-05
1.84962e-05
1.82432e-05
1.7826e-05
1.72233e-05
1.635e-05
1.51445e-05
1.36064e-05
1.17922e-05
9.70419e-06
7.5598e-06
5.56292e-06
3.88922e-06
2.61628e-06
1.70677e-06
1.15093e-06
8.77783e-07
7.6418e-07
7.11667e-07
6.74344e-07
6.39205e-07
6.1002e-07
5.90356e-07
5.83744e-07
5.85844e-07
5.91919e-07
6.03156e-07
6.16379e-07
6.30945e-07
6.46091e-07
6.62135e-07
6.78891e-07
6.95766e-07
7.1488e-07
7.32611e-07
7.51892e-07
7.72445e-07
7.8989e-07
8.15546e-07
8.34087e-07
8.56224e-07
8.90091e-07
2.00272e-05
1.97985e-05
1.96653e-05
1.93944e-05
1.92294e-05
1.90774e-05
1.89783e-05
1.88485e-05
1.87321e-05
1.85922e-05
1.8456e-05
1.82852e-05
1.80765e-05
1.77896e-05
1.74021e-05
1.68572e-05
1.61465e-05
1.52221e-05
1.40766e-05
1.27323e-05
1.12264e-05
9.56158e-06
7.84974e-06
6.21247e-06
4.72998e-06
3.49629e-06
2.52055e-06
1.77618e-06
1.25377e-06
9.35125e-07
7.65844e-07
6.83196e-07
6.39243e-07
6.08574e-07
5.81324e-07
5.55242e-07
5.33e-07
5.17336e-07
5.0775e-07
5.05621e-07
5.07057e-07
5.11296e-07
5.16893e-07
5.25462e-07
5.34687e-07
5.43679e-07
5.57166e-07
5.69266e-07
5.82057e-07
6.05394e-07
2.00201e-05
1.97897e-05
1.96456e-05
1.93775e-05
1.92051e-05
1.90477e-05
1.89397e-05
1.88217e-05
1.87101e-05
1.85854e-05
1.84676e-05
1.83412e-05
1.82174e-05
1.80742e-05
1.79178e-05
1.77187e-05
1.74743e-05
1.71541e-05
1.67483e-05
1.62242e-05
1.55854e-05
1.48031e-05
1.38839e-05
1.28241e-05
1.16693e-05
1.04127e-05
9.07693e-06
7.72694e-06
6.41508e-06
5.20414e-06
4.11362e-06
3.20082e-06
2.45207e-06
1.84836e-06
1.38301e-06
1.04925e-06
8.32627e-07
7.03679e-07
6.31159e-07
5.89156e-07
5.61287e-07
5.38726e-07
5.1814e-07
4.99504e-07
4.81699e-07
4.69714e-07
4.61498e-07
4.62483e-07
4.67928e-07
4.81709e-07
2.00145e-05
1.97895e-05
1.96196e-05
1.93638e-05
1.91844e-05
1.90203e-05
1.89032e-05
1.87848e-05
1.86693e-05
1.85492e-05
1.84368e-05
1.8319e-05
1.82081e-05
1.80892e-05
1.7976e-05
1.78549e-05
1.77307e-05
1.75878e-05
1.74291e-05
1.72346e-05
1.70026e-05
1.67189e-05
1.63736e-05
1.59546e-05
1.54584e-05
1.48761e-05
1.42086e-05
1.3445e-05
1.26072e-05
1.16881e-05
1.07335e-05
9.71362e-06
8.66068e-06
7.60231e-06
6.57233e-06
5.59052e-06
4.68731e-06
3.86428e-06
3.15338e-06
2.54635e-06
2.03294e-06
1.60383e-06
1.26043e-06
9.99461e-07
8.19421e-07
7.06212e-07
6.42211e-07
6.19587e-07
6.26704e-07
6.53193e-07
2.00103e-05
1.97935e-05
1.9593e-05
1.93496e-05
1.91654e-05
1.89941e-05
1.88691e-05
1.87482e-05
1.86285e-05
1.85059e-05
1.83903e-05
1.8272e-05
1.81629e-05
1.80507e-05
1.79433e-05
1.7836e-05
1.77285e-05
1.76202e-05
1.75132e-05
1.74026e-05
1.72824e-05
1.71588e-05
1.70119e-05
1.68517e-05
1.66618e-05
1.64404e-05
1.61858e-05
1.58855e-05
1.55384e-05
1.51409e-05
1.46925e-05
1.41864e-05
1.363e-05
1.30143e-05
1.23528e-05
1.16469e-05
1.0902e-05
1.01389e-05
9.34298e-06
8.52262e-06
7.69669e-06
6.87214e-06
6.06945e-06
5.28277e-06
4.54527e-06
3.83259e-06
3.19724e-06
2.65809e-06
2.23976e-06
2.06302e-06
2.00071e-05
1.98011e-05
1.95686e-05
1.93358e-05
1.91475e-05
1.89695e-05
1.88362e-05
1.87131e-05
1.85883e-05
1.84639e-05
1.8343e-05
1.82228e-05
1.811e-05
1.79959e-05
1.78858e-05
1.77801e-05
1.76749e-05
1.75738e-05
1.74729e-05
1.73775e-05
1.72719e-05
1.71826e-05
1.70747e-05
1.69823e-05
1.68757e-05
1.67674e-05
1.66523e-05
1.6527e-05
1.63815e-05
1.62281e-05
1.60516e-05
1.5848e-05
1.56292e-05
1.53725e-05
1.5096e-05
1.47809e-05
1.44354e-05
1.40579e-05
1.36472e-05
1.3205e-05
1.27227e-05
1.2216e-05
1.16684e-05
1.1094e-05
1.04873e-05
9.84641e-06
9.15179e-06
8.44647e-06
7.59317e-06
6.77013e-06
2.00047e-05
1.98098e-05
1.95457e-05
1.93223e-05
1.913e-05
1.89466e-05
1.88043e-05
1.86794e-05
1.85494e-05
1.84236e-05
1.82971e-05
1.81744e-05
1.80577e-05
1.79412e-05
1.78268e-05
1.77201e-05
1.76094e-05
1.75075e-05
1.74031e-05
1.73092e-05
1.72029e-05
1.71227e-05
1.70171e-05
1.69375e-05
1.68432e-05
1.67546e-05
1.6667e-05
1.65814e-05
1.64855e-05
1.64024e-05
1.63085e-05
1.62084e-05
1.61106e-05
1.59972e-05
1.58832e-05
1.57542e-05
1.56107e-05
1.54591e-05
1.52903e-05
1.51073e-05
1.49024e-05
1.46884e-05
1.44376e-05
1.41878e-05
1.38829e-05
1.35796e-05
1.32179e-05
1.28136e-05
1.23206e-05
1.16352e-05
2.0003e-05
1.98192e-05
1.95243e-05
1.93083e-05
1.91123e-05
1.89252e-05
1.87735e-05
1.86466e-05
1.8512e-05
1.83849e-05
1.82532e-05
1.81277e-05
1.80074e-05
1.78882e-05
1.77697e-05
1.76613e-05
1.75461e-05
1.74425e-05
1.7334e-05
1.72386e-05
1.71263e-05
1.70456e-05
1.69339e-05
1.68548e-05
1.67585e-05
1.66714e-05
1.65893e-05
1.65098e-05
1.64201e-05
1.63501e-05
1.62684e-05
1.61908e-05
1.61132e-05
1.6036e-05
1.59607e-05
1.58875e-05
1.58017e-05
1.57267e-05
1.56427e-05
1.5556e-05
1.5465e-05
1.53697e-05
1.52613e-05
1.51594e-05
1.50218e-05
1.48996e-05
1.47486e-05
1.45458e-05
1.43101e-05
1.39347e-05
2.00018e-05
1.98282e-05
1.95046e-05
1.92935e-05
1.90941e-05
1.89054e-05
1.87443e-05
1.8615e-05
1.84765e-05
1.8348e-05
1.82117e-05
1.80835e-05
1.79598e-05
1.78379e-05
1.77159e-05
1.7605e-05
1.74862e-05
1.73807e-05
1.72685e-05
1.71708e-05
1.7055e-05
1.69721e-05
1.68561e-05
1.67746e-05
1.66749e-05
1.65832e-05
1.64975e-05
1.64144e-05
1.63214e-05
1.62503e-05
1.6166e-05
1.60924e-05
1.60162e-05
1.5947e-05
1.58761e-05
1.58134e-05
1.57358e-05
1.56756e-05
1.56079e-05
1.55413e-05
1.54737e-05
1.5409e-05
1.53363e-05
1.52769e-05
1.51922e-05
1.51249e-05
1.50451e-05
1.49248e-05
1.47767e-05
1.45523e-05
2.00009e-05
1.98304e-05
1.94876e-05
1.92782e-05
1.9076e-05
1.88878e-05
1.87175e-05
1.85851e-05
1.84435e-05
1.83135e-05
1.81732e-05
1.80423e-05
1.79153e-05
1.77911e-05
1.76662e-05
1.75525e-05
1.74309e-05
1.73234e-05
1.72079e-05
1.71077e-05
1.69895e-05
1.69036e-05
1.67846e-05
1.67008e-05
1.65977e-05
1.65036e-05
1.64142e-05
1.63283e-05
1.62314e-05
1.61572e-05
1.60684e-05
1.59929e-05
1.59094e-05
1.58384e-05
1.57633e-05
1.56991e-05
1.56181e-05
1.55571e-05
1.54898e-05
1.54264e-05
1.53614e-05
1.53046e-05
1.52355e-05
1.51825e-05
1.51093e-05
1.50489e-05
1.49824e-05
1.4881e-05
1.47507e-05
1.4575e-05
2.00003e-05
1.98287e-05
1.94736e-05
1.92621e-05
1.90576e-05
1.88717e-05
1.86931e-05
1.85569e-05
1.84131e-05
1.82815e-05
1.8138e-05
1.80048e-05
1.78745e-05
1.77488e-05
1.76211e-05
1.75046e-05
1.73811e-05
1.72715e-05
1.7153e-05
1.70506e-05
1.69302e-05
1.68416e-05
1.67202e-05
1.66344e-05
1.65275e-05
1.64328e-05
1.63391e-05
1.62518e-05
1.61515e-05
1.60748e-05
1.59826e-05
1.59058e-05
1.58173e-05
1.57441e-05
1.56656e-05
1.55984e-05
1.55129e-05
1.54494e-05
1.53774e-05
1.53108e-05
1.52395e-05
1.51811e-05
1.51067e-05
1.50494e-05
1.49768e-05
1.4911e-05
1.48426e-05
1.47465e-05
1.46155e-05
1.44688e-05
2e-05
1.9827e-05
1.94617e-05
1.92447e-05
1.90385e-05
1.88567e-05
1.8671e-05
1.85305e-05
1.83851e-05
1.82523e-05
1.81064e-05
1.79713e-05
1.78379e-05
1.77114e-05
1.75814e-05
1.74624e-05
1.73376e-05
1.7226e-05
1.71048e-05
1.70009e-05
1.68782e-05
1.67874e-05
1.66637e-05
1.65763e-05
1.64656e-05
1.63714e-05
1.62729e-05
1.61849e-05
1.60817e-05
1.60028e-05
1.59081e-05
1.58303e-05
1.5738e-05
1.56632e-05
1.55827e-05
1.55129e-05
1.54242e-05
1.53589e-05
1.5284e-05
1.52135e-05
1.51403e-05
1.50783e-05
1.50008e-05
1.49378e-05
1.4866e-05
1.47933e-05
1.47196e-05
1.463e-05
1.44885e-05
1.43521e-05
1.99999e-05
1.98259e-05
1.94529e-05
1.92272e-05
1.90198e-05
1.88432e-05
1.8652e-05
1.85066e-05
1.83598e-05
1.82265e-05
1.80788e-05
1.79424e-05
1.78064e-05
1.76796e-05
1.75476e-05
1.74266e-05
1.7301e-05
1.71878e-05
1.70642e-05
1.69595e-05
1.68344e-05
1.67421e-05
1.66165e-05
1.65277e-05
1.64132e-05
1.63204e-05
1.62169e-05
1.61287e-05
1.6023e-05
1.59421e-05
1.58455e-05
1.57668e-05
1.56712e-05
1.55955e-05
1.55135e-05
1.5441e-05
1.53509e-05
1.5284e-05
1.52066e-05
1.51339e-05
1.50597e-05
1.49943e-05
1.49158e-05
1.48482e-05
1.47779e-05
1.47011e-05
1.46216e-05
1.45416e-05
1.43949e-05
1.4266e-05
1.99999e-05
1.98253e-05
1.94471e-05
1.92104e-05
1.90021e-05
1.88316e-05
1.86368e-05
1.84862e-05
1.83381e-05
1.82048e-05
1.8056e-05
1.79187e-05
1.77808e-05
1.7654e-05
1.75206e-05
1.73985e-05
1.72718e-05
1.7158e-05
1.70322e-05
1.69272e-05
1.68e-05
1.67067e-05
1.65797e-05
1.64897e-05
1.63717e-05
1.62811e-05
1.61723e-05
1.60844e-05
1.59766e-05
1.58939e-05
1.5796e-05
1.57162e-05
1.56177e-05
1.55421e-05
1.54583e-05
1.53832e-05
1.5293e-05
1.52245e-05
1.5144e-05
1.5072e-05
1.49949e-05
1.4928e-05
1.48483e-05
1.478e-05
1.47067e-05
1.46338e-05
1.45451e-05
1.4475e-05
1.43306e-05
1.42076e-05
1.99999e-05
1.98251e-05
1.94441e-05
1.91954e-05
1.89861e-05
1.88218e-05
1.86259e-05
1.84699e-05
1.83205e-05
1.81877e-05
1.80385e-05
1.79008e-05
1.77616e-05
1.76351e-05
1.75008e-05
1.73787e-05
1.72508e-05
1.71372e-05
1.70098e-05
1.69048e-05
1.67762e-05
1.66821e-05
1.65543e-05
1.64634e-05
1.63422e-05
1.62544e-05
1.61403e-05
1.60534e-05
1.59436e-05
1.58595e-05
1.57609e-05
1.56794e-05
1.55793e-05
1.55042e-05
1.54175e-05
1.53411e-05
1.52514e-05
1.51809e-05
1.50978e-05
1.50278e-05
1.4947e-05
1.48791e-05
1.47986e-05
1.47325e-05
1.46532e-05
1.45865e-05
1.44941e-05
1.44263e-05
1.42908e-05
1.41738e-05
1.99999e-05
1.98254e-05
1.94438e-05
1.91829e-05
1.89721e-05
1.88137e-05
1.86193e-05
1.84581e-05
1.83074e-05
1.81756e-05
1.80265e-05
1.78893e-05
1.77494e-05
1.76234e-05
1.74888e-05
1.73677e-05
1.72387e-05
1.7126e-05
1.69979e-05
1.68928e-05
1.67638e-05
1.66691e-05
1.65411e-05
1.64497e-05
1.63259e-05
1.6241e-05
1.61222e-05
1.60367e-05
1.59251e-05
1.58405e-05
1.57409e-05
1.56578e-05
1.55575e-05
1.54825e-05
1.53927e-05
1.53163e-05
1.5227e-05
1.51544e-05
1.507e-05
1.50015e-05
1.49172e-05
1.48488e-05
1.47691e-05
1.47038e-05
1.46219e-05
1.45569e-05
1.44676e-05
1.44018e-05
1.42768e-05
1.41582e-05
1.99999e-05
1.98262e-05
1.94459e-05
1.91735e-05
1.89601e-05
1.88072e-05
1.86167e-05
1.84508e-05
1.8299e-05
1.81684e-05
1.802e-05
1.78842e-05
1.77442e-05
1.7619e-05
1.7485e-05
1.73658e-05
1.72362e-05
1.71248e-05
1.69971e-05
1.68919e-05
1.67635e-05
1.66686e-05
1.65406e-05
1.64496e-05
1.63238e-05
1.62414e-05
1.61192e-05
1.60352e-05
1.59219e-05
1.5838e-05
1.57368e-05
1.56526e-05
1.55535e-05
1.54777e-05
1.53854e-05
1.53099e-05
1.52205e-05
1.51466e-05
1.5062e-05
1.49937e-05
1.49068e-05
1.48392e-05
1.47604e-05
1.46954e-05
1.46127e-05
1.45497e-05
1.44653e-05
1.44011e-05
1.42852e-05
1.41658e-05
1.99999e-05
1.98275e-05
1.94508e-05
1.91678e-05
1.89506e-05
1.88025e-05
1.86179e-05
1.84483e-05
1.82958e-05
1.81664e-05
1.80193e-05
1.78856e-05
1.7746e-05
1.76219e-05
1.74889e-05
1.73715e-05
1.7242e-05
1.71319e-05
1.70052e-05
1.68998e-05
1.67727e-05
1.6678e-05
1.65503e-05
1.64601e-05
1.63334e-05
1.62525e-05
1.61286e-05
1.60459e-05
1.59313e-05
1.58487e-05
1.57457e-05
1.56617e-05
1.55636e-05
1.54868e-05
1.53935e-05
1.5319e-05
1.52291e-05
1.51552e-05
1.50707e-05
1.50016e-05
1.49139e-05
1.4848e-05
1.47694e-05
1.47047e-05
1.46226e-05
1.45629e-05
1.44824e-05
1.44203e-05
1.43076e-05
1.4196e-05
1.99999e-05
1.98293e-05
1.94579e-05
1.91662e-05
1.89438e-05
1.87993e-05
1.86225e-05
1.84502e-05
1.82971e-05
1.81688e-05
1.80231e-05
1.78925e-05
1.77537e-05
1.76309e-05
1.74999e-05
1.73855e-05
1.72568e-05
1.71488e-05
1.70241e-05
1.69192e-05
1.67941e-05
1.67004e-05
1.65733e-05
1.6485e-05
1.63576e-05
1.62785e-05
1.61534e-05
1.60729e-05
1.59568e-05
1.58765e-05
1.57709e-05
1.56884e-05
1.55917e-05
1.55136e-05
1.54198e-05
1.53467e-05
1.52564e-05
1.51834e-05
1.50991e-05
1.50285e-05
1.49412e-05
1.48783e-05
1.47992e-05
1.47349e-05
1.46551e-05
1.45998e-05
1.45237e-05
1.44639e-05
1.43517e-05
1.42473e-05
1.99999e-05
1.98317e-05
1.94672e-05
1.91686e-05
1.89395e-05
1.8798e-05
1.86299e-05
1.84566e-05
1.83031e-05
1.81755e-05
1.80321e-05
1.79053e-05
1.77678e-05
1.76467e-05
1.75186e-05
1.7407e-05
1.72803e-05
1.71744e-05
1.7052e-05
1.69485e-05
1.68257e-05
1.67334e-05
1.66079e-05
1.65213e-05
1.63946e-05
1.6317e-05
1.61918e-05
1.61139e-05
1.59968e-05
1.59189e-05
1.58115e-05
1.57317e-05
1.56356e-05
1.55569e-05
1.54642e-05
1.53921e-05
1.53017e-05
1.52309e-05
1.51462e-05
1.50749e-05
1.499e-05
1.49295e-05
1.48494e-05
1.4787e-05
1.4711e-05
1.46598e-05
1.45873e-05
1.45277e-05
1.4417e-05
1.43131e-05
1.99999e-05
1.98346e-05
1.94785e-05
1.91748e-05
1.89385e-05
1.87986e-05
1.86392e-05
1.8467e-05
1.83135e-05
1.81864e-05
1.80457e-05
1.79229e-05
1.77871e-05
1.76682e-05
1.75433e-05
1.74347e-05
1.73106e-05
1.72073e-05
1.70876e-05
1.69861e-05
1.68662e-05
1.67754e-05
1.66525e-05
1.65676e-05
1.64424e-05
1.63663e-05
1.62417e-05
1.61667e-05
1.6049e-05
1.59736e-05
1.58651e-05
1.57888e-05
1.56927e-05
1.56144e-05
1.55236e-05
1.54522e-05
1.53624e-05
1.5294e-05
1.52087e-05
1.51383e-05
1.50565e-05
1.49974e-05
1.4917e-05
1.48582e-05
1.47865e-05
1.47392e-05
1.46691e-05
1.46095e-05
1.4499e-05
1.43926e-05
1.99999e-05
1.98379e-05
1.9491e-05
1.91847e-05
1.89409e-05
1.88014e-05
1.865e-05
1.84813e-05
1.83276e-05
1.82007e-05
1.80632e-05
1.79443e-05
1.78104e-05
1.76944e-05
1.7573e-05
1.74676e-05
1.73466e-05
1.72464e-05
1.71296e-05
1.70308e-05
1.69143e-05
1.68253e-05
1.67055e-05
1.66225e-05
1.64994e-05
1.64252e-05
1.63018e-05
1.62298e-05
1.6112e-05
1.60393e-05
1.59303e-05
1.5858e-05
1.57612e-05
1.56849e-05
1.55961e-05
1.55253e-05
1.54369e-05
1.53709e-05
1.52853e-05
1.52174e-05
1.51386e-05
1.50803e-05
1.50007e-05
1.49468e-05
1.48792e-05
1.48354e-05
1.47664e-05
1.47067e-05
1.45938e-05
1.44823e-05
1.99999e-05
1.98417e-05
1.95045e-05
1.91975e-05
1.89469e-05
1.88068e-05
1.86622e-05
1.8499e-05
1.83452e-05
1.82184e-05
1.80842e-05
1.79689e-05
1.78371e-05
1.77248e-05
1.7607e-05
1.75046e-05
1.73871e-05
1.72906e-05
1.7177e-05
1.70812e-05
1.69686e-05
1.68816e-05
1.67654e-05
1.66844e-05
1.65641e-05
1.6492e-05
1.63701e-05
1.63011e-05
1.6184e-05
1.6114e-05
1.60054e-05
1.59371e-05
1.58395e-05
1.57666e-05
1.56794e-05
1.56093e-05
1.55232e-05
1.54594e-05
1.53744e-05
1.531e-05
1.52335e-05
1.5176e-05
1.50988e-05
1.50504e-05
1.49862e-05
1.49453e-05
1.48764e-05
1.48156e-05
1.46979e-05
1.45786e-05
1.99999e-05
1.98457e-05
1.95187e-05
1.92129e-05
1.89567e-05
1.88147e-05
1.86751e-05
1.85194e-05
1.83657e-05
1.82388e-05
1.81079e-05
1.7996e-05
1.78665e-05
1.77585e-05
1.7644e-05
1.75447e-05
1.74312e-05
1.73385e-05
1.72282e-05
1.7136e-05
1.70278e-05
1.69429e-05
1.68304e-05
1.67516e-05
1.66349e-05
1.65649e-05
1.64452e-05
1.63787e-05
1.62633e-05
1.61959e-05
1.60883e-05
1.60239e-05
1.59258e-05
1.58572e-05
1.57709e-05
1.57023e-05
1.5619e-05
1.55573e-05
1.54737e-05
1.54134e-05
1.53386e-05
1.52824e-05
1.5209e-05
1.51658e-05
1.51042e-05
1.50654e-05
1.49959e-05
1.49326e-05
1.48077e-05
1.46791e-05
1.99999e-05
1.985e-05
1.9533e-05
1.92304e-05
1.897e-05
1.8825e-05
1.86889e-05
1.85418e-05
1.83887e-05
1.82618e-05
1.81337e-05
1.80246e-05
1.78981e-05
1.77947e-05
1.76831e-05
1.75869e-05
1.74778e-05
1.7389e-05
1.72821e-05
1.7194e-05
1.70903e-05
1.70077e-05
1.68989e-05
1.68228e-05
1.67102e-05
1.6642e-05
1.65253e-05
1.64608e-05
1.6348e-05
1.62829e-05
1.6177e-05
1.61163e-05
1.60182e-05
1.59543e-05
1.58682e-05
1.58024e-05
1.57222e-05
1.56622e-05
1.55808e-05
1.5525e-05
1.54514e-05
1.53972e-05
1.53288e-05
1.529e-05
1.52299e-05
1.51922e-05
1.51217e-05
1.50541e-05
1.49192e-05
1.47819e-05
1.99999e-05
1.98544e-05
1.95475e-05
1.92499e-05
1.89866e-05
1.8838e-05
1.87035e-05
1.85656e-05
1.84137e-05
1.8287e-05
1.8161e-05
1.80545e-05
1.79314e-05
1.78325e-05
1.77233e-05
1.76304e-05
1.7526e-05
1.74409e-05
1.73378e-05
1.72541e-05
1.7155e-05
1.70746e-05
1.69697e-05
1.68966e-05
1.67884e-05
1.67218e-05
1.66086e-05
1.6546e-05
1.64362e-05
1.63735e-05
1.62698e-05
1.62124e-05
1.61151e-05
1.60555e-05
1.59694e-05
1.59078e-05
1.58305e-05
1.57719e-05
1.56936e-05
1.56421e-05
1.55693e-05
1.55184e-05
1.54556e-05
1.54193e-05
1.53608e-05
1.53228e-05
1.52501e-05
1.51758e-05
1.50305e-05
1.48855e-05
1.99999e-05
1.98589e-05
1.95618e-05
1.9271e-05
1.90061e-05
1.88534e-05
1.87191e-05
1.859e-05
1.84402e-05
1.8314e-05
1.81894e-05
1.80853e-05
1.79659e-05
1.7871e-05
1.77639e-05
1.76746e-05
1.75748e-05
1.74934e-05
1.73943e-05
1.73154e-05
1.72203e-05
1.71423e-05
1.70417e-05
1.6972e-05
1.6868e-05
1.68029e-05
1.66936e-05
1.66329e-05
1.65265e-05
1.64657e-05
1.63652e-05
1.63101e-05
1.62144e-05
1.61591e-05
1.60728e-05
1.60165e-05
1.59412e-05
1.58846e-05
1.58104e-05
1.5762e-05
1.56901e-05
1.56446e-05
1.5586e-05
1.55508e-05
1.54933e-05
1.54543e-05
1.53783e-05
1.52951e-05
1.51396e-05
1.49877e-05
1.99999e-05
1.98635e-05
1.95762e-05
1.92932e-05
1.9028e-05
1.88714e-05
1.87357e-05
1.86145e-05
1.84678e-05
1.83424e-05
1.82184e-05
1.81167e-05
1.80008e-05
1.79094e-05
1.78043e-05
1.77188e-05
1.76232e-05
1.75457e-05
1.7451e-05
1.73767e-05
1.72853e-05
1.72098e-05
1.71141e-05
1.70477e-05
1.69476e-05
1.68842e-05
1.67791e-05
1.67203e-05
1.66173e-05
1.65584e-05
1.64613e-05
1.64081e-05
1.63146e-05
1.6263e-05
1.61773e-05
1.61268e-05
1.60524e-05
1.59989e-05
1.59289e-05
1.58826e-05
1.58121e-05
1.57733e-05
1.57173e-05
1.5682e-05
1.56252e-05
1.55843e-05
1.55036e-05
1.54095e-05
1.52449e-05
1.50864e-05
1.99999e-05
1.98681e-05
1.95905e-05
1.93162e-05
1.90517e-05
1.88917e-05
1.87533e-05
1.86388e-05
1.84962e-05
1.83718e-05
1.82478e-05
1.81486e-05
1.80355e-05
1.79471e-05
1.78442e-05
1.77624e-05
1.76708e-05
1.75976e-05
1.75073e-05
1.74369e-05
1.7349e-05
1.72767e-05
1.71861e-05
1.71224e-05
1.70261e-05
1.69647e-05
1.68641e-05
1.6807e-05
1.67074e-05
1.66504e-05
1.65568e-05
1.65052e-05
1.64144e-05
1.63658e-05
1.62819e-05
1.62365e-05
1.61626e-05
1.61134e-05
1.6047e-05
1.60021e-05
1.59342e-05
1.5902e-05
1.58467e-05
1.58108e-05
1.57544e-05
1.57109e-05
1.5623e-05
1.55174e-05
1.53448e-05
1.51799e-05
1.99999e-05
1.98727e-05
1.96049e-05
1.93395e-05
1.9077e-05
1.8914e-05
1.8772e-05
1.8663e-05
1.85249e-05
1.84016e-05
1.82776e-05
1.81806e-05
1.80696e-05
1.79837e-05
1.78831e-05
1.78049e-05
1.77172e-05
1.76484e-05
1.75625e-05
1.74953e-05
1.74111e-05
1.73424e-05
1.72568e-05
1.71953e-05
1.71028e-05
1.7044e-05
1.69478e-05
1.68921e-05
1.67958e-05
1.67408e-05
1.66505e-05
1.66003e-05
1.65127e-05
1.64663e-05
1.63857e-05
1.6344e-05
1.62712e-05
1.62266e-05
1.61628e-05
1.61191e-05
1.60563e-05
1.60274e-05
1.59726e-05
1.59361e-05
1.58788e-05
1.58317e-05
1.5734e-05
1.56185e-05
1.54384e-05
1.52657e-05
1.99999e-05
1.98772e-05
1.96192e-05
1.93626e-05
1.91035e-05
1.89379e-05
1.87919e-05
1.86873e-05
1.85535e-05
1.84317e-05
1.83077e-05
1.82126e-05
1.81028e-05
1.80189e-05
1.79207e-05
1.78461e-05
1.77621e-05
1.76976e-05
1.76156e-05
1.75515e-05
1.74713e-05
1.74065e-05
1.73252e-05
1.72658e-05
1.71776e-05
1.71213e-05
1.70292e-05
1.69747e-05
1.68819e-05
1.6829e-05
1.67418e-05
1.66927e-05
1.66082e-05
1.65641e-05
1.64871e-05
1.64484e-05
1.63773e-05
1.63373e-05
1.62747e-05
1.62335e-05
1.61759e-05
1.61483e-05
1.60932e-05
1.60565e-05
1.59974e-05
1.59454e-05
1.58351e-05
1.57118e-05
1.55248e-05
1.53427e-05
1.99999e-05
1.98816e-05
1.96332e-05
1.93854e-05
1.9131e-05
1.89631e-05
1.8813e-05
1.8712e-05
1.85815e-05
1.84618e-05
1.83381e-05
1.82443e-05
1.81349e-05
1.80527e-05
1.79568e-05
1.78859e-05
1.78054e-05
1.77446e-05
1.76663e-05
1.76056e-05
1.75296e-05
1.74684e-05
1.73908e-05
1.73338e-05
1.72503e-05
1.71963e-05
1.71078e-05
1.70546e-05
1.69653e-05
1.69144e-05
1.68299e-05
1.67817e-05
1.67004e-05
1.66587e-05
1.65854e-05
1.65491e-05
1.64803e-05
1.6444e-05
1.63823e-05
1.63449e-05
1.6291e-05
1.62639e-05
1.62078e-05
1.61709e-05
1.61085e-05
1.60503e-05
1.59265e-05
1.57969e-05
1.56024e-05
1.54105e-05
1.99999e-05
1.98859e-05
1.96467e-05
1.9408e-05
1.91592e-05
1.89892e-05
1.88357e-05
1.8737e-05
1.86086e-05
1.84919e-05
1.83689e-05
1.82753e-05
1.81658e-05
1.80851e-05
1.79913e-05
1.79242e-05
1.78467e-05
1.77891e-05
1.77143e-05
1.7658e-05
1.75856e-05
1.75274e-05
1.74534e-05
1.73994e-05
1.73205e-05
1.72683e-05
1.71831e-05
1.71315e-05
1.70458e-05
1.69965e-05
1.69141e-05
1.68669e-05
1.67891e-05
1.67497e-05
1.66799e-05
1.66456e-05
1.65793e-05
1.65458e-05
1.64856e-05
1.64522e-05
1.64006e-05
1.63734e-05
1.63158e-05
1.62783e-05
1.6211e-05
1.61448e-05
1.60091e-05
1.5874e-05
1.56701e-05
1.54666e-05
1.99999e-05
1.98902e-05
1.96597e-05
1.94304e-05
1.91875e-05
1.9016e-05
1.88599e-05
1.87625e-05
1.86349e-05
1.85224e-05
1.83997e-05
1.83055e-05
1.81955e-05
1.8116e-05
1.8024e-05
1.79607e-05
1.78856e-05
1.78312e-05
1.77602e-05
1.77082e-05
1.76388e-05
1.75833e-05
1.75132e-05
1.74624e-05
1.73877e-05
1.73367e-05
1.7255e-05
1.72058e-05
1.71231e-05
1.70746e-05
1.6994e-05
1.69484e-05
1.6874e-05
1.68369e-05
1.67701e-05
1.67372e-05
1.66737e-05
1.66426e-05
1.65844e-05
1.65546e-05
1.6504e-05
1.64761e-05
1.64166e-05
1.63776e-05
1.63044e-05
1.62286e-05
1.60835e-05
1.59424e-05
1.57273e-05
1.55104e-05
1.99999e-05
1.98943e-05
1.96721e-05
1.94526e-05
1.92155e-05
1.90435e-05
1.88856e-05
1.87881e-05
1.86605e-05
1.85531e-05
1.843e-05
1.83348e-05
1.82241e-05
1.81455e-05
1.8055e-05
1.79952e-05
1.7922e-05