/*--------------------------------*- C++ -*----------------------------------*\
  =========                 |
  \\      /  F ield         | OpenFOAM: The Open Source CFD Toolbox
   \\    /   O peration     | Website:  https://openfoam.org
    \\  /    A nd           | Version:  7
     \\/     M anipulation  |
\*---------------------------------------------------------------------------*/
FoamFile
{
    version     2.0;
    format      ascii;
    class       volScalarField;
    location    "0.32";
    object      nut;
}
// * * * * * * * * * * * * * * * * * * * * * * * * * * * * * * * * * * * * * //

dimensions      [0 2 -1 0 0 0 0];

internalField   nonuniform List<scalar> 
70000
(
0
0
0
0
0
0
0
0
0
0
0
0
0
0
0
0
0
0
0
0
0
0
0
0
0
0
0
0
0
0
0
0
0
0
0
0
0
0
0
0
0
0
0
0
0
0
0
0
8.21399e-13
9.73494e-12
0
0
0
0
0
0
0
0
0
0
0
0
0
0
0
0
0
0
0
0
0
0
0
0
0
0
0
0
0
0
0
0
0
0
0
0
0
0
0
0
0
0
0
0
0
0
0
0
3.37261e-12
4.24816e-12
0
0
0
0
0
0
0
0
0
0
0
0
0
0
0
0
0
0
0
0
0
0
0
0
0
0
0
0
0
0
0
0
0
0
0
0
0
0
0
0
0
0
0
0
0
0
0
1.21355e-13
7.72324e-12
0
0
0
0
0
0
0
0
0
0
0
0
0
0
0
0
0
0
0
0
0
0
0
0
0
0
0
0
0
0
0
0
0
0
0
0
0
0
0
0
0
0
0
0
0
0
3.21853e-13
0
9.36647e-13
1.23149e-11
0
0
0
0
0
0
0
0
0
0
0
0
0
0
0
0
0
0
0
0
0
0
0
0
0
0
0
0
0
0
0
0
0
0
0
0
0
0
0
0
0
0
0
0
1.39041e-13
0
7.74091e-13
0
1.78469e-12
1.60153e-11
0
9.44772e-10
0
0
0
0
0
0
0
0
0
0
0
0
0
0
0
0
0
0
0
0
0
0
0
0
0
0
0
0
0
0
0
0
0
0
0
0
0
0
0
0
0
0
2.34956e-13
0
1.14941e-12
0
2.53747e-12
1.87255e-11
0
1.32015e-08
0
0
0
0
0
0
0
0
0
0
0
0
0
0
0
0
0
0
0
0
0
0
0
0
0
0
0
0
0
0
0
0
0
0
0
0
0
0
0
0
0
0
2.67565e-13
0
1.40496e-12
0
3.11014e-12
2.08074e-11
0
1.20953e-08
0
0
0
0
0
0
0
0
0
0
0
0
0
0
0
0
0
0
0
0
0
0
0
0
0
0
0
0
0
0
0
0
0
0
0
0
0
0
0
0
0
0
2.55576e-13
0
1.55037e-12
0
3.49337e-12
2.26908e-11
0
1.10752e-08
0
0
0
0
0
0
0
0
0
0
0
0
0
0
0
0
0
0
0
0
0
0
0
0
0
0
0
0
0
0
0
0
0
0
0
0
0
0
0
0
0
0
2.17311e-13
0
1.6051e-12
6.84223e-13
3.77173e-12
2.44404e-11
0
1.02267e-08
0
0
0
0
0
0
0
0
0
0
0
0
0
0
0
0
0
0
0
0
0
0
0
0
0
0
0
0
0
0
0
0
0
0
0
0
0
0
0
0
0
0
1.68191e-13
0
1.60862e-12
1.85402e-12
4.15461e-12
2.57323e-11
0
9.51685e-09
0
0
0
0
0
0
0
0
0
0
0
0
0
0
0
0
0
0
0
0
0
0
0
0
0
0
0
0
0
0
0
0
0
0
0
0
0
0
0
0
0
0
1.30981e-13
0
1.62763e-12
3.16921e-12
4.82935e-12
2.63393e-11
0
8.87472e-09
0
0
0
0
0
0
0
0
0
0
0
0
0
0
0
0
0
0
0
0
0
0
0
0
0
0
0
0
0
0
0
0
0
0
0
0
0
0
0
0
0
0
1.42668e-13
0
1.74526e-12
4.57167e-12
5.82592e-12
2.64566e-11
0
8.23429e-09
0
0
0
0
0
0
0
0
0
0
0
0
0
0
0
0
0
0
0
0
0
0
0
0
0
0
0
0
0
0
0
0
0
0
0
0
0
0
0
0
0
0
2.52328e-13
0
2.04564e-12
6.1309e-12
7.11742e-12
2.6698e-11
0
7.57565e-09
0
0
0
0
0
0
0
0
0
0
0
1.46308e-11
4.76269e-11
1.65713e-11
0
0
0
0
0
0
0
0
0
0
0
0
0
0
0
0
0
0
0
0
0
0
0
0
0
0
0
0
5.26362e-13
1.42959e-13
2.64133e-12
8.0333e-12
8.83125e-12
2.78454e-11
4.52085e-12
6.90499e-09
0
0
0
0
0
0
0
0
0
0
0
0
0
0
4.77837e-11
8.60839e-11
7.30166e-11
3.00579e-11
6.55712e-12
0
0
0
0
0
0
0
0
0
0
0
0
0
0
0
0
0
0
0
0
0
0
0
1.09219e-12
1.266e-12
3.7696e-12
1.06759e-11
1.15367e-11
3.12294e-11
1.37258e-11
6.23341e-09
0
0
0
8.48711e-12
0
0
0
0
0
0
0
0
0
0
0
0
3.44511e-12
3.90956e-11
7.68764e-11
1.06158e-10
1.07598e-10
7.1283e-11
3.28776e-11
1.24824e-11
3.43498e-12
0
0
0
0
0
0
0
0
0
0
0
0
0
0
0
2.61255e-13
0
2.32896e-12
3.32123e-12
6.10332e-12
1.51232e-11
1.68806e-11
4.01195e-11
3.28271e-11
5.56949e-09
0
0
0
1.10315e-10
0
0
0
0
0
0
0
0
0
0
0
0
0
0
0
1.34018e-12
2.03939e-11
4.41415e-11
7.17001e-11
1.0023e-10
1.24524e-10
1.33872e-10
1.13264e-10
7.3191e-11
4.05037e-11
2.15083e-11
1.13985e-11
6.11819e-12
3.29212e-12
1.78676e-12
9.30317e-13
4.37272e-13
4.10658e-13
1.7764e-13
1.03893e-12
7.47315e-13
2.85041e-12
2.72064e-12
6.00275e-12
8.43193e-12
1.22543e-11
2.52386e-11
3.04133e-11
6.47236e-11
7.59694e-11
4.91953e-09
0
0
0
1.97096e-10
0
0
0
0
0
0
0
0
0
0
0
0
0
0
0
0
0
0
7.17818e-13
1.09767e-11
2.26222e-11
3.71442e-11
5.56076e-11
7.80236e-11
1.03813e-10
1.3158e-10
1.59406e-10
1.81377e-10
1.83284e-10
1.56018e-10
1.14566e-10
7.84559e-11
5.46179e-11
3.91037e-11
3.17539e-11
2.57442e-11
2.61233e-11
2.43022e-11
2.83241e-11
3.2907e-11
3.94116e-11
6.25648e-11
8.04585e-11
1.5093e-10
1.96416e-10
4.28906e-09
0
0
0
2.56321e-10
0
0
0
0
0
0
0
0
0
0
0
0
0
0
0
0
0
0
0
0
0
1.71029e-12
8.91019e-12
1.65352e-11
2.47548e-11
3.41236e-11
4.51992e-11
5.93716e-11
7.75959e-11
1.00531e-10
1.29144e-10
1.62601e-10
2.04474e-10
2.50996e-10
3.09933e-10
3.62963e-10
4.00785e-10
3.91312e-10
3.55442e-10
3.19664e-10
2.99393e-10
3.42177e-10
4.12551e-10
6.1778e-10
6.72521e-10
3.68323e-09
0
0
0
2.73053e-10
0
0
0
0
0
0
0
0
0
0
0
0
0
0
0
0
0
0
0
0
0
0
0
0
3.97974e-12
9.73974e-12
1.57341e-11
2.22104e-11
2.91644e-11
3.63841e-11
4.48346e-11
5.19421e-11
6.26412e-11
6.78778e-11
8.08024e-11
8.30548e-11
9.31713e-11
9.22476e-11
8.36333e-11
8.30946e-11
4.83563e-11
1.07467e-10
4.27489e-10
1.84961e-09
2.03206e-09
3.10633e-09
0
0
0
2.30092e-10
0
0
0
0
0
0
0
0
0
0
0
0
0
0
0
0
0
0
0
0
0
0
0
0
0
0
2.91419e-12
7.38336e-12
1.20518e-11
1.63195e-11
2.14347e-11
2.38387e-11
2.88727e-11
2.52179e-11
2.58778e-11
8.09315e-12
0
0
0
0
0
0
0
0
0
2.56131e-09
0
0
0
1.08575e-10
0
0
0
0
0
0
0
0
0
0
0
0
0
0
0
0
0
0
0
0
0
0
0
0
0
0
0
3.30819e-13
3.90341e-12
6.62528e-12
1.00547e-11
1.01025e-11
1.24073e-11
5.42177e-12
1.50776e-12
0
0
0
0
0
0
0
0
0
0
2.0495e-09
0
0
0
0
0
0
0
0
0
0
0
0
0
0
0
0
0
0
0
0
0
0
0
0
0
0
0
0
0
0
0
0
1.92008e-13
2.07361e-12
4.5435e-12
3.16479e-12
3.56904e-12
0
0
0
0
0
0
0
0
0
0
0
0
1.57045e-09
0
0
0
0
0
0
0
0
0
0
0
0
0
0
0
0
0
0
0
0
0
0
0
0
0
0
0
0
0
0
0
0
0
7.41915e-14
1.92881e-12
0
0
0
0
0
0
0
0
0
0
0
0
0
0
1.12216e-09
0
0
0
0
0
0
0
0
0
0
0
0
0
0
0
0
0
0
0
0
0
0
0
0
0
0
0
0
0
0
0
0
0
0
6.4203e-13
0
0
0
0
0
0
0
0
0
0
0
0
0
5.7506e-09
7.01398e-10
0
0
0
0
0
0
0
0
0
0
0
0
0
0
0
0
0
0
0
0
0
0
0
0
0
0
0
0
0
0
0
0
0
0
0
0
0
0
0
0
0
0
0
0
0
0
0
0
2.59388e-08
3.04366e-10
0
0
0
0
0
0
0
0
0
0
0
0
0
0
0
0
0
0
0
0
0
0
0
0
0
0
0
0
0
0
0
0
0
0
0
0
0
0
0
0
0
0
0
0
0
0
0
4.15539e-09
3.50751e-08
0
0
0
0
0
0
0
0
0
0
0
0
0
0
0
0
0
0
0
0
0
0
0
0
0
0
0
0
0
0
0
0
0
0
0
0
0
0
0
0
0
0
0
0
0
0
0
5.09958e-10
1.00094e-08
3.34553e-08
0
0
0
0
0
0
0
0
0
0
0
0
0
0
0
0
0
0
0
0
0
0
0
0
0
0
0
0
0
0
0
0
0
0
0
0
0
0
0
0
0
0
0
0
0
0
0
2.62567e-09
1.5301e-08
2.75182e-08
0
0
0
0
0
0
0
0
0
0
0
0
0
0
0
0
0
0
0
0
0
0
0
0
0
0
0
0
0
0
0
0
0
0
0
0
0
0
0
0
0
0
0
0
0
0
7.40124e-10
5.11896e-09
1.85453e-08
2.10779e-08
0
0
0
0
0
0
0
0
0
0
0
0
0
0
0
0
0
0
0
0
0
0
0
0
0
0
0
0
0
0
0
0
0
0
0
0
0
0
0
0
0
0
0
0
0
1.40023e-10
1.86332e-09
7.665e-09
1.91724e-08
1.53728e-08
0
8.58648e-11
0
0
0
0
0
0
0
0
0
0
0
0
0
0
0
0
0
0
0
0
0
0
0
0
0
0
0
0
0
0
0
0
0
0
0
0
0
0
0
0
0
0
0
6.87948e-10
3.17643e-09
9.81956e-09
1.76594e-08
1.06264e-08
0
1.16401e-09
0
0
0
0
0
0
0
0
0
0
0
0
0
0
0
0
0
0
0
0
0
0
0
0
0
0
0
0
0
0
0
0
0
0
0
0
0
0
0
0
0
0
2.18362e-10
1.36883e-09
4.55936e-09
1.11758e-08
1.49066e-08
6.76004e-09
0
2.11847e-09
0
0
0
0
0
0
0
0
0
0
0
0
0
0
0
0
0
0
0
0
0
0
0
0
0
0
0
0
0
0
0
0
0
0
0
0
0
0
0
0
0
3.41555e-11
5.90999e-10
2.15335e-09
5.84043e-09
1.15328e-08
1.17006e-08
3.64014e-09
0
2.94758e-09
0
0
0
0
0
0
0
0
0
0
0
0
0
0
0
0
0
0
0
0
0
0
0
0
0
0
0
0
0
0
0
0
0
0
0
0
0
0
0
0
0
2.48069e-10
1.04127e-09
2.98399e-09
6.83243e-09
1.0945e-08
8.52996e-09
1.14185e-09
0
3.65271e-09
0
0
0
0
0
0
0
0
0
0
0
0
0
0
0
0
0
0
0
0
0
0
0
0
0
0
0
0
0
0
0
0
0
0
0
0
0
0
0
0
8.22047e-11
5.15137e-10
1.54993e-09
3.77829e-09
7.38636e-09
9.64968e-09
5.64357e-09
0
0
4.23857e-09
0
0
0
0
0
0
0
0
0
0
0
0
0
0
0
0
0
0
0
0
0
0
0
0
0
0
0
0
0
0
0
0
0
0
0
0
0
0
0
1.80768e-11
2.48014e-10
8.29318e-10
2.08343e-09
4.44253e-09
7.43731e-09
7.94106e-09
3.14391e-09
0
0
4.71233e-09
0
0
0
0
0
0
0
0
0
0
0
0
0
0
0
0
0
0
0
0
0
0
0
0
0
0
0
0
0
0
0
2.32245e-13
1.53228e-13
0
0
0
0
0
0
1.24621e-10
4.48533e-10
1.17702e-09
2.59604e-09
4.89249e-09
7.01588e-09
6.07919e-09
1.05467e-09
0
0
5.08196e-09
0
0
0
0
0
0
0
0
0
0
0
0
0
0
0
0
0
0
0
0
0
0
0
0
0
0
0
0
0
0
0
2.6253e-12
3.46184e-12
0
0
0
0
0
6.70804e-11
2.56426e-10
6.78141e-10
1.53682e-09
3.03658e-09
5.07441e-09
6.22413e-09
4.25344e-09
0
0
0
5.35598e-09
0
0
0
0
0
0
0
0
0
0
0
0
0
0
0
0
0
0
0
0
0
0
0
0
0
0
0
0
0
0
0
6.23194e-12
8.50205e-12
6.25974e-12
2.00362e-12
0
8.0896e-12
4.80785e-11
1.58199e-10
4.11326e-10
9.26704e-10
1.88125e-09
3.35809e-09
4.97686e-09
5.19664e-09
2.58273e-09
0
0
0
5.54419e-09
0
0
0
0
0
0
0
0
0
0
0
0
0
0
0
0
0
0
0
0
0
0
0
0
0
0
0
0
0
0
3.02434e-12
1.14219e-11
1.57646e-11
1.64673e-11
1.72393e-11
2.2959e-11
4.74719e-11
1.1361e-10
2.67142e-10
5.84456e-10
1.17991e-09
2.18054e-09
3.5276e-09
4.62982e-09
4.06491e-09
1.13219e-09
0
0
0
5.65746e-09
0
0
0
0
0
0
0
0
0
0
0
0
0
0
0
0
0
0
0
0
0
0
0
0
0
0
0
0
0
0
7.92154e-12
1.86207e-11
2.5793e-11
3.05554e-11
3.79552e-11
5.4572e-11
9.75196e-11
1.92999e-10
3.91602e-10
7.68237e-10
1.4206e-09
2.40764e-09
3.53252e-09
4.09277e-09
2.93661e-09
0
0
0
0
5.70676e-09
0
0
0
0
0
0
0
0
0
0
0
0
0
0
0
0
0
0
0
0
0
0
0
0
0
0
0
0
0
0
1.46573e-11
2.83017e-11
3.91644e-11
4.92148e-11
6.49048e-11
9.46148e-11
1.58474e-10
2.85198e-10
5.27545e-10
9.52873e-10
1.63101e-09
2.54315e-09
3.38211e-09
3.43795e-09
1.88945e-09
0
0
0
0
5.70225e-09
0
0
0
0
0
0
0
0
0
0
0
0
0
0
0
0
0
0
0
0
0
0
0
0
0
0
0
0
0
1.70588e-12
2.3665e-11
4.09743e-11
5.64713e-11
7.30958e-11
9.87004e-11
1.4346e-10
2.29917e-10
3.88077e-10
6.69327e-10
1.1274e-09
1.79535e-09
2.5787e-09
3.10372e-09
2.73573e-09
9.72955e-10
0
0
0
0
5.65287e-09
0
0
0
0
0
0
0
0
0
0
0
0
0
0
0
0
0
0
0
0
0
0
0
0
0
0
0
0
0
9.47282e-12
3.54148e-11
5.7168e-11
7.82889e-11
1.02756e-10
1.3975e-10
2.01046e-10
3.1073e-10
4.98397e-10
8.10259e-10
1.2809e-09
1.90251e-09
2.51794e-09
2.73557e-09
2.04549e-09
2.13088e-10
0
0
0
0
5.56629e-09
0
0
0
0
0
0
0
0
0
0
0
0
0
0
0
0
0
0
0
0
0
0
0
0
0
0
0
0
0
1.98045e-11
5.04017e-11
7.74134e-11
1.05139e-10
1.38617e-10
1.88182e-10
2.66828e-10
3.99062e-10
6.12032e-10
9.43252e-10
1.40408e-09
1.94776e-09
2.37479e-09
2.31909e-09
1.41189e-09
0
0
0
0
0
5.44895e-09
0
0
0
0
0
0
0
0
0
0
0
0
0
0
0
0
0
0
0
0
0
0
0
0
0
0
0
0
0
3.31778e-11
6.91305e-11
1.02211e-10
1.37453e-10
1.80916e-10
2.43795e-10
3.39758e-10
4.92399e-10
7.24397e-10
1.06157e-09
1.49069e-09
1.93316e-09
2.17029e-09
1.89281e-09
8.64083e-10
0
0
0
0
0
5.30628e-09
0
0
0
0
0
0
0
0
0
0
0
0
0
0
0
0
0
0
0
0
0
0
0
0
0
0
0
0
2.19392e-12
5.00835e-11
9.20955e-11
1.32005e-10
1.75538e-10
2.29656e-10
3.06035e-10
4.18311e-10
5.87784e-10
8.30861e-10
1.15974e-09
1.53836e-09
1.86662e-09
1.92877e-09
1.48837e-09
4.1791e-10
0
0
0
0
0
5.14282e-09
0
0
0
0
0
0
0
0
0
0
0
0
0
0
0
0
0
0
0
0
0
0
0
0
0
0
0
0
1.63868e-11
7.10086e-11
1.19752e-10
1.67149e-10
2.19536e-10
2.84586e-10
3.73998e-10
5.00586e-10
6.82078e-10
9.27259e-10
1.23434e-09
1.54864e-09
1.76041e-09
1.67421e-09
1.12875e-09
7.86246e-11
0
0
0
0
0
4.96248e-09
0
0
0
0
0
0
0
0
0
0
0
0
0
0
0
0
0
0
0
0
0
0
0
0
0
0
0
0
3.43817e-11
9.64139e-11
1.52489e-10
2.07877e-10
2.69398e-10
3.45198e-10
4.4648e-10
5.84465e-10
7.7227e-10
1.01043e-09
1.28433e-09
1.52658e-09
1.62912e-09
1.42735e-09
8.28647e-10
0
0
0
0
0
0
4.7687e-09
9.70929e-11
0
0
0
0
0
0
0
0
0
0
0
0
0
0
0
0
0
0
0
0
0
0
0
0
0
0
0
5.66254e-11
1.26704e-10
1.90602e-10
2.54272e-10
3.24872e-10
4.1074e-10
5.22064e-10
6.67804e-10
8.55811e-10
1.07856e-09
1.31109e-09
1.47989e-09
1.48749e-09
1.20448e-09
5.95193e-10
0
0
0
0
0
0
4.56465e-09
5.76167e-10
0
0
0
0
0
0
0
0
0
0
0
0
0
0
0
0
0
0
0
0
0
0
0
0
0
0
0
8.35094e-11
1.62196e-10
2.34252e-10
3.06248e-10
3.85504e-10
4.80261e-10
5.99231e-10
7.48641e-10
9.309e-10
1.13141e-09
1.31816e-09
1.41769e-09
1.34889e-09
1.01692e-09
4.29295e-10
0
0
0
0
0
0
4.35323e-09
9.85772e-10
0
0
0
0
0
0
0
0
0
0
0
0
0
0
0
0
0
0
0
0
0
0
0
0
0
0
1.46201e-11
1.15332e-10
2.03083e-10
2.83449e-10
3.63536e-10
4.50652e-10
5.52674e-10
6.76495e-10
8.25412e-10
9.96687e-10
1.17031e-09
1.31065e-09
1.3494e-09
1.22431e-09
8.71111e-10
3.27318e-10
0
0
0
0
0
0
4.13693e-09
1.33068e-09
0
0
0
0
0
0
0
0
0
0
0
0
0
0
0
0
0
0
0
0
0
0
0
0
0
0
4.06787e-11
1.52251e-10
2.49391e-10
3.38019e-10
4.25681e-10
5.19515e-10
6.26839e-10
7.5255e-10
8.97113e-10
1.05337e-09
1.19789e-09
1.29464e-09
1.28383e-09
1.12186e-09
7.69444e-10
2.82572e-10
0
0
0
0
0
0
3.91804e-09
1.61578e-09
0
0
0
0
0
0
0
0
0
0
0
0
0
0
0
0
0
0
0
0
0
0
0
0
0
0
7.12396e-11
1.94243e-10
3.00958e-10
3.97582e-10
4.92029e-10
5.91156e-10
7.01637e-10
8.26385e-10
9.63408e-10
1.10215e-09
1.21782e-09
1.27646e-09
1.22852e-09
1.04687e-09
7.11193e-10
2.86608e-10
0
0
0
0
0
0
3.69875e-09
1.84608e-09
0
0
0
0
0
0
0
0
0
0
0
0
0
0
0
0
0
0
0
0
0
0
0
0
0
0
1.06134e-10
2.41054e-10
3.57378e-10
4.61524e-10
5.61728e-10
6.64552e-10
7.76047e-10
8.97364e-10
1.02463e-09
1.14508e-09
1.23432e-09
1.26214e-09
1.18945e-09
1.00228e-09
6.93569e-10
3.30404e-10
0
0
0
0
9.84973e-12
0
3.48106e-09
2.02662e-09
0
0
0
0
0
0
0
0
0
0
0
0
0
0
0
0
0
0
0
0
0
0
0
0
0
0
1.4491e-10
2.92139e-10
4.17951e-10
5.28963e-10
6.3374e-10
7.38626e-10
8.49197e-10
9.6523e-10
1.08168e-09
1.18474e-09
1.25179e-09
1.25706e-09
1.1711e-09
9.89247e-10
7.12764e-10
4.05385e-10
1.05444e-10
0
0
1.07801e-10
1.86191e-10
0
3.26671e-09
2.16234e-09
0
0
0
0
0
0
0
0
0
0
0
0
0
0
0
0
0
0
0
0
0
0
0
0
0
0
1.86754e-10
3.46577e-10
4.81621e-10
5.98715e-10
7.06828e-10
8.12246e-10
9.2035e-10
1.03004e-09
1.13588e-09
1.224e-09
1.27446e-09
1.26581e-09
1.17666e-09
1.00786e-09
7.64904e-10
5.04381e-10
2.55571e-10
1.25408e-10
1.04221e-10
2.70554e-10
2.65435e-10
0
3.05711e-09
2.25799e-09
0
0
0
0
0
0
0
0
0
0
0
0
0
0
0
0
0
0
0
0
0
0
0
0
0
2.33763e-11
2.3041e-10
4.03013e-10
5.46931e-10
6.69258e-10
7.79519e-10
8.84194e-10
9.88846e-10
1.09208e-09
1.18878e-09
1.26576e-09
1.30611e-09
1.29209e-09
1.20835e-09
1.05782e-09
8.47028e-10
6.22643e-10
4.05136e-10
2.81655e-10
2.35684e-10
3.36961e-10
2.4235e-10
0
2.85342e-09
2.31812e-09
0
0
0
0
0
0
0
0
0
0
0
0
0
0
0
0
0
0
0
0
0
0
0
0
0
4.97011e-11
2.74101e-10
4.59574e-10
6.11939e-10
7.38674e-10
8.50055e-10
9.53097e-10
1.05399e-09
1.15163e-09
1.24183e-09
1.31254e-09
1.34986e-09
1.3387e-09
1.26777e-09
1.13915e-09
9.57962e-10
7.58795e-10
5.53358e-10
4.08492e-10
3.03383e-10
3.04431e-10
1.1551e-10
0
2.65655e-09
2.34705e-09
0
0
0
0
0
0
0
0
0
0
0
0
0
0
0
0
0
0
0
0
0
0
0
0
0
7.32231e-11
3.15442e-10
5.13786e-10
6.74149e-10
8.04553e-10
9.16289e-10
1.0173e-09
1.11487e-09
1.20871e-09
1.29605e-09
1.3662e-09
1.40788e-09
1.40758e-09
1.35624e-09
1.25277e-09
1.09893e-09
9.15616e-10
7.05438e-10
5.13365e-10
3.14838e-10
1.77501e-10
0
0
2.46719e-09
2.34884e-09
0
0
0
0
0
0
0
0
0
0
0
0
0
0
0
0
0
0
0
0
0
0
0
0
0
9.1041e-11
3.51367e-10
5.62497e-10
7.30423e-10
8.63907e-10
9.75564e-10
1.07468e-09
1.17008e-09
1.26277e-09
1.35167e-09
1.42752e-09
1.48121e-09
1.49976e-09
1.47485e-09
1.40058e-09
1.27407e-09
1.10118e-09
8.7444e-10
6.14021e-10
2.89351e-10
0
0
0
2.28584e-09
2.32735e-09
1.41155e-10
0
0
0
0
0
0
0
0
0
0
0
0
0
0
0
0
0
0
0
0
0
0
0
0
9.95706e-11
3.7808e-10
6.01802e-10
7.76887e-10
9.13057e-10
1.02456e-09
1.12244e-09
1.21746e-09
1.31227e-09
1.40771e-09
1.49584e-09
1.56931e-09
1.61493e-09
1.62417e-09
1.58546e-09
1.49062e-09
1.32955e-09
1.08331e-09
7.42773e-10
2.64995e-10
0
0
0
2.11284e-09
2.2862e-09
3.83096e-10
0
0
0
0
0
0
0
0
0
0
0
0
0
0
0
0
0
0
0
0
0
0
0
0
9.45631e-11
3.91048e-10
6.27035e-10
8.08893e-10
9.47543e-10
1.05915e-09
1.15689e-09
1.25374e-09
1.35433e-09
1.46145e-09
1.56845e-09
1.66947e-09
1.75077e-09
1.80336e-09
1.81011e-09
1.75761e-09
1.61998e-09
1.36607e-09
9.5165e-10
3.09757e-10
0
0
0
1.94842e-09
2.2288e-09
5.75982e-10
0
0
0
0
0
0
0
0
0
0
0
0
0
0
0
0
0
0
0
0
0
0
0
0
7.11911e-11
3.85076e-10
6.328e-10
8.21011e-10
9.62085e-10
1.07429e-09
1.17322e-09
1.27432e-09
1.3843e-09
1.50796e-09
1.63998e-09
1.77591e-09
1.90161e-09
2.00818e-09
2.0742e-09
2.08258e-09
1.99435e-09
1.76699e-09
1.31742e-09
5.38503e-10
0
0
0
1.79272e-09
2.15824e-09
7.24681e-10
0
0
0
0
0
0
0
0
0
0
0
0
0
0
0
0
0
0
0
0
0
0
0
0
2.42565e-11
3.545e-10
6.13135e-10
8.07152e-10
9.50665e-10
1.06405e-09
1.16552e-09
1.27304e-09
1.39554e-09
1.53975e-09
1.70179e-09
1.87876e-09
2.0567e-09
2.22819e-09
2.36967e-09
2.46535e-09
2.46834e-09
2.33133e-09
1.93908e-09
1.13387e-09
0
0
0
1.64576e-09
2.07733e-09
8.34005e-10
0
0
0
0
0
0
0
0
0
0
0
0
0
0
0
0
0
0
0
0
0
0
0
0
0
2.9356e-10
5.61881e-10
7.61001e-10
9.0677e-10
1.02172e-09
1.12676e-09
1.24224e-09
1.37925e-09
1.54637e-09
1.74125e-09
1.96281e-09
2.19837e-09
2.44346e-09
2.67576e-09
2.88685e-09
3.0326e-09
3.07816e-09
2.90621e-09
2.34218e-09
9.82622e-10
0
0
1.50748e-09
1.9886e-09
9.08676e-10
0
0
0
0
0
0
0
0
0
0
0
0
0
0
0
0
0
0
0
0
0
0
0
0
0
1.96962e-10
4.73253e-10
6.76419e-10
8.23968e-10
9.40509e-10
1.0495e-09
1.17335e-09
1.32511e-09
1.51495e-09
1.74209e-09
2.00738e-09
2.30035e-09
2.62041e-09
2.95026e-09
3.29444e-09
3.62478e-09
3.94309e-09
4.19212e-09
4.3071e-09
3.77455e-09
1.22915e-09
0
1.37777e-09
1.89431e-09
9.5334e-10
0
0
0
0
0
0
0
0
0
0
0
0
0
0
0
0
0
0
0
0
0
0
0
0
0
6.06489e-11
3.42684e-10
5.48392e-10
6.96854e-10
8.14446e-10
9.26882e-10
1.05809e-09
1.22261e-09
1.43171e-09
1.68592e-09
1.98753e-09
2.32845e-09
2.71123e-09
3.12683e-09
3.59144e-09
4.09993e-09
4.70223e-09
5.44221e-09
6.46865e-09
7.37305e-09
3.66752e-09
0
1.25642e-09
1.79646e-09
9.72482e-10
8.54559e-12
0
0
0
0
0
0
0
0
0
0
0
0
0
0
0
0
0
0
0
0
0
0
0
0
0
1.67952e-10
3.74289e-10
5.22403e-10
6.3998e-10
7.54415e-10
8.90347e-10
1.06326e-09
1.28471e-09
1.55574e-09
1.87868e-09
2.24671e-09
2.66314e-09
3.12488e-09
3.64897e-09
4.24455e-09
4.97653e-09
5.9149e-09
7.16906e-09
7.71966e-09
1.05853e-09
0
1.14322e-09
1.69684e-09
9.70353e-10
1.13954e-10
0
0
0
0
0
0
0
0
0
0
0
0
0
0
0
0
0
0
0
0
0
0
0
0
0
0
1.55396e-10
3.01677e-10
4.1783e-10
5.3209e-10
6.69031e-10
8.44268e-10
1.06827e-09
1.34144e-09
1.66443e-09
2.02926e-09
2.43637e-09
2.87907e-09
3.36347e-09
3.88975e-09
4.47621e-09
5.10609e-09
5.62529e-09
4.70118e-09
0
0
1.03788e-09
1.59701e-09
9.50901e-10
1.84364e-10
0
0
0
0
0
0
0
0
0
0
0
0
0
0
0
0
0
0
0
0
0
0
0
0
0
0
0
4.16361e-11
1.551e-10
2.67027e-10
4.01079e-10
5.71926e-10
7.87778e-10
1.0471e-09
1.347e-09
1.67607e-09
2.02716e-09
2.38422e-09
2.73622e-09
3.05955e-09
3.3173e-09
3.43974e-09
3.23553e-09
1.86354e-09
0
0
9.40127e-10
1.49824e-09
9.17823e-10
2.25135e-10
0
0
0
0
0
0
0
0
0
0
0
0
0
0
0
0
0
0
0
0
0
0
0
0
0
0
0
0
0
0
1.03859e-10
2.65027e-10
4.64023e-10
6.96471e-10
9.54862e-10
1.22332e-09
1.48647e-09
1.72002e-09
1.90053e-09
1.99336e-09
1.95461e-09
1.75035e-09
1.29998e-09
1.76799e-10
0
0
8.49627e-10
1.40175e-09
8.74263e-10
2.41474e-10
0
0
0
0
0
0
0
0
0
0
0
0
0
0
0
0
0
0
0
0
0
0
0
0
0
0
0
0
0
0
0
0
1.34119e-10
3.33905e-10
5.43205e-10
7.42997e-10
9.13226e-10
1.0283e-09
1.06423e-09
9.97743e-10
8.1275e-10
5.24995e-10
1.30129e-10
0
0
0
7.66045e-10
1.30834e-09
8.23211e-10
2.38269e-10
0
0
0
0
0
0
0
0
0
0
0
0
0
0
0
0
0
0
0
0
0
0
0
0
0
0
0
0
0
0
0
0
0
1.85254e-11
1.84564e-10
3.26414e-10
4.24819e-10
4.5922e-10
4.16159e-10
2.90849e-10
9.46012e-11
0
0
0
0
0
6.89031e-10
1.21866e-09
7.67304e-10
2.20013e-10
0
0
0
0
0
0
0
0
0
0
0
0
0
0
0
0
0
0
0
0
0
0
0
0
0
0
0
0
0
0
0
0
0
0
0
6.07103e-11
1.2226e-10
1.25242e-10
6.87509e-11
0
0
0
0
0
0
0
6.18227e-10
1.13341e-09
7.08777e-10
1.90747e-10
0
0
0
0
0
0
0
0
0
0
0
0
0
0
0
0
0
0
0
0
0
0
0
0
0
0
0
0
0
0
0
0
0
0
0
1.02451e-11
6.98174e-11
8.30144e-11
5.76772e-11
8.16987e-12
0
0
0
1.16001e-10
4.72662e-10
0
5.53271e-10
1.05304e-09
6.49425e-10
1.54051e-10
0
0
0
0
0
0
0
0
0
0
0
0
0
0
0
0
0
0
0
0
0
0
0
0
0
0
0
0
0
0
0
0
0
0
9.10409e-11
2.09046e-10
2.92506e-10
3.41765e-10
3.68956e-10
3.89097e-10
4.27094e-10
5.02358e-10
6.42833e-10
9.38864e-10
1.70268e-09
0
4.93804e-10
9.77914e-10
5.90806e-10
1.13032e-10
0
0
0
0
0
0
0
0
0
0
0
0
0
0
0
0
0
0
0
0
0
0
0
0
0
0
0
0
0
0
0
0
1.36812e-10
3.34921e-10
5.13243e-10
6.63721e-10
7.85469e-10
8.81655e-10
9.65825e-10
1.05149e-09
1.16038e-09
1.30524e-09
1.51789e-09
1.94253e-09
3.03381e-09
0
4.39473e-10
9.08221e-10
5.3414e-10
7.03439e-11
0
0
0
0
0
0
0
0
0
0
0
0
0
0
0
0
0
0
0
0
0
0
0
0
0
0
0
0
0
0
2.16674e-10
4.69247e-10
7.18461e-10
9.54837e-10
1.17143e-09
1.36161e-09
1.52622e-09
1.66978e-09
1.80579e-09
1.94594e-09
2.1092e-09
2.30408e-09
2.56674e-09
3.08976e-09
4.44637e-09
0
3.89936e-10
8.44077e-10
4.80493e-10
2.821e-11
0
0
0
0
0
0
0
0
0
0
0
0
0
0
0
0
0
0
0
0
0
0
0
0
0
0
0
4.14655e-11
3.28639e-10
6.21212e-10
9.19827e-10
1.21968e-09
1.51303e-09
1.79121e-09
2.04887e-09
2.27942e-09
2.48486e-09
2.67035e-09
2.84883e-09
3.03058e-09
3.2326e-09
3.46095e-09
3.7563e-09
4.35407e-09
5.92715e-09
0
3.44867e-10
7.85542e-10
4.30703e-10
0
0
0
0
0
0
0
0
0
0
0
0
0
0
0
0
0
0
0
0
0
0
0
0
0
0
1.15734e-10
4.53987e-10
7.87932e-10
1.12588e-09
1.47078e-09
1.82049e-09
2.16831e-09
2.50578e-09
2.82534e-09
3.12246e-09
3.38991e-09
3.63057e-09
3.84998e-09
4.06058e-09
4.27179e-09
4.49928e-09
4.74792e-09
5.06261e-09
5.71672e-09
7.46744e-09
0
3.03969e-10
7.32696e-10
3.85424e-10
0
0
0
0
0
0
0
0
0
0
0
0
0
0
0
0
0
0
0
0
0
0
0
0
1.73273e-10
5.77015e-10
9.62237e-10
1.33973e-09
1.72031e-09
2.10911e-09
2.5057e-09
2.90502e-09
3.29848e-09
3.67718e-09
4.03491e-09
4.36718e-09
4.66602e-09
4.93492e-09
5.17988e-09
5.413e-09
5.64334e-09
5.88568e-09
6.14443e-09
6.46833e-09
7.16445e-09
9.0619e-09
0
2.66967e-10
6.85575e-10
3.45227e-10
0
0
0
0
0
0
0
0
0
0
0
0
0
0
0
0
0
0
0
0
0
0
2.22499e-10
6.97415e-10
1.14333e-09
1.56944e-09
1.9861e-09
2.40224e-09
2.82803e-09
3.2655e-09
3.71078e-09
4.15597e-09
4.59069e-09
5.00585e-09
5.39691e-09
5.75896e-09
6.08306e-09
6.37331e-09
6.63621e-09
6.88377e-09
7.12498e-09
7.37404e-09
7.6353e-09
7.96092e-09
8.68803e-09
1.07077e-08
0
2.33628e-10
6.44246e-10
3.10624e-10
0
0
0
0
0
0
0
0
0
0
0
0
0
0
0
0
0
0
0
0
2.81954e-10
8.26105e-10
1.33933e-09
1.82221e-09
2.28163e-09
2.7293e-09
3.17646e-09
3.62937e-09
4.09708e-09
4.57922e-09
5.06854e-09
5.55438e-09
6.0248e-09
6.47073e-09
6.88946e-09
7.27585e-09
7.61953e-09
7.92511e-09
8.19969e-09
8.4553e-09
8.70112e-09
8.95095e-09
9.20927e-09
9.53132e-09
1.02812e-08
1.24038e-08
0
2.03761e-10
6.08823e-10
2.82153e-10
0
0
0
0
0
0
0
0
0
0
0
0
0
0
0
0
0
0
3.57193e-10
9.61868e-10
1.54336e-09
2.09513e-09
2.61462e-09
3.10531e-09
3.57715e-09
4.04429e-09
4.51938e-09
5.00643e-09
5.51143e-09
6.03301e-09
6.56069e-09
7.08124e-09
7.58139e-09
8.05214e-09
8.49269e-09
8.89851e-09
9.25703e-09
9.5732e-09
9.85471e-09
1.01137e-08
1.03597e-08
1.06062e-08
1.0858e-08
1.1173e-08
1.19396e-08
1.41502e-08
0
1.77244e-10
5.79531e-10
2.60488e-10
0
0
0
0
0
0
0
0
0
0
0
0
0
0
0
0
4.3964e-10
1.08774e-09
1.72914e-09
2.35177e-09
2.9468e-09
3.50821e-09
4.03502e-09
4.53335e-09
5.01614e-09
5.49989e-09
5.99904e-09
6.51693e-09
7.05414e-09
7.60932e-09
8.16923e-09
8.71835e-09
9.24225e-09
9.73208e-09
1.01887e-08
1.06097e-08
1.09795e-08
1.1303e-08
1.15884e-08
1.18479e-08
1.20912e-08
1.23319e-08
1.2575e-08
1.2881e-08
1.36605e-08
1.59478e-08
0
1.54009e-10
5.56692e-10
2.46476e-10
0
0
0
0
0
0
0
0
0
0
0
0
0
0
5.71614e-10
1.20769e-09
1.87022e-09
2.54717e-09
3.2147e-09
3.85971e-09
4.47266e-09
5.04731e-09
5.58366e-09
6.09017e-09
6.58275e-09
7.08029e-09
7.59896e-09
8.14354e-09
8.70805e-09
9.29083e-09
9.87676e-09
1.04485e-08
1.09905e-08
1.14941e-08
1.1961e-08
1.23938e-08
1.27724e-08
1.31014e-08
1.33891e-08
1.36477e-08
1.38874e-08
1.41214e-08
1.43552e-08
1.46516e-08
1.54417e-08
1.77973e-08
0
1.34117e-10
5.40838e-10
2.41171e-10
0
0
0
0
0
0
0
0
0
0
8.25651e-11
4.29435e-10
8.71713e-10
1.415e-09
2.0346e-09
2.69481e-09
3.37363e-09
4.07834e-09
4.78022e-09
5.45575e-09
6.09433e-09
6.68867e-09
7.23916e-09
7.75624e-09
8.2587e-09
8.76807e-09
9.30194e-09
9.8677e-09
1.04561e-08
1.10603e-08
1.16662e-08
1.22548e-08
1.28099e-08
1.33225e-08
1.37942e-08
1.42351e-08
1.46216e-08
1.49558e-08
1.52459e-08
1.5504e-08
1.57403e-08
1.59681e-08
1.61933e-08
1.6481e-08
1.72812e-08
1.96994e-08
0
1.17771e-10
5.32884e-10
2.46307e-10
0
0
0
0
0
0
0
6.41193e-11
4.37229e-10
8.51541e-10
1.29213e-09
1.76824e-09
2.30117e-09
2.89962e-09
3.54732e-09
4.21766e-09
4.90106e-09
5.62728e-09
6.37791e-09
7.09841e-09
7.77593e-09
8.40134e-09
8.97466e-09
9.5079e-09
1.00227e-08
1.05436e-08
1.109e-08
1.16708e-08
1.22792e-08
1.28998e-08
1.35201e-08
1.41203e-08
1.46837e-08
1.52012e-08
1.56732e-08
1.61161e-08
1.65116e-08
1.68523e-08
1.71468e-08
1.74065e-08
1.76418e-08
1.78655e-08
1.80841e-08
1.8365e-08
1.91758e-08
2.1653e-08
0
1.05358e-10
5.34114e-10
2.64455e-10
0
0
0
0
0
7.63016e-11
4.17922e-10
8.92306e-10
1.46142e-09
2.04187e-09
2.61352e-09
3.17927e-09
3.76427e-09
4.38714e-09
5.04167e-09
5.70661e-09
6.38148e-09
7.11701e-09
7.9392e-09
8.73033e-09
9.46974e-09
1.01455e-08
1.07566e-08
1.13163e-08
1.18493e-08
1.23838e-08
1.29418e-08
1.35335e-08
1.41551e-08
1.4789e-08
1.54184e-08
1.60253e-08
1.6593e-08
1.71119e-08
1.75811e-08
1.80177e-08
1.84234e-08
1.87741e-08
1.90769e-08
1.93426e-08
1.95811e-08
1.98048e-08
2.00208e-08
2.02984e-08
2.11221e-08
2.36563e-08
0
9.75722e-11
5.46429e-10
2.98974e-10
5.33517e-11
0
0
1.16354e-10
3.30252e-10
6.82223e-10
1.19894e-09
1.87551e-09
2.64739e-09
3.36872e-09
4.02245e-09
4.61707e-09
5.19617e-09
5.79782e-09
6.42827e-09
7.06816e-09
7.71862e-09
8.44432e-09
9.36085e-09
1.02689e-08
1.11088e-08
1.18667e-08
1.25404e-08
1.31443e-08
1.37066e-08
1.42602e-08
1.48312e-08
1.54323e-08
1.60609e-08
1.67027e-08
1.73371e-08
1.79462e-08
1.85143e-08
1.90318e-08
1.94965e-08
1.99196e-08
2.03307e-08
2.06984e-08
2.10165e-08
2.12951e-08
2.15437e-08
2.17738e-08
2.19931e-08
2.2273e-08
2.31133e-08
2.57041e-08
0
9.54907e-11
5.72727e-10
3.55098e-10
1.64518e-10
1.59073e-10
3.01346e-10
5.47482e-10
9.0964e-10
1.43078e-09
2.13961e-09
3.0279e-09
3.99155e-09
4.8047e-09
5.46714e-09
6.00783e-09
6.5064e-09
7.0308e-09
7.60072e-09
8.1952e-09
8.80385e-09
9.5038e-09
1.0505e-08
1.16029e-08
1.26015e-08
1.34889e-08
1.42623e-08
1.49381e-08
1.55485e-08
1.61321e-08
1.67209e-08
1.73319e-08
1.79654e-08
1.86089e-08
1.92434e-08
1.98505e-08
2.04157e-08
2.09297e-08
2.1389e-08
2.18009e-08
2.21977e-08
2.25919e-08
2.2937e-08
2.32397e-08
2.35089e-08
2.37552e-08
2.39864e-08
2.42765e-08
2.51392e-08
2.77878e-08
0
1.0088e-10
6.17177e-10
4.40213e-10
3.21767e-10
4.22455e-10
6.97027e-10
1.09698e-09
1.63376e-09
2.34955e-09
3.27061e-09
4.37642e-09
5.49745e-09
6.32492e-09
6.89963e-09
7.28699e-09
7.61933e-09
8.00401e-09
8.47461e-09
9.00468e-09
9.55947e-09
1.02122e-08
1.12357e-08
1.25998e-08
1.38354e-08
1.49173e-08
1.58426e-08
1.66296e-08
1.73157e-08
1.79466e-08
1.85618e-08
1.91852e-08
1.98221e-08
2.04634e-08
2.10925e-08
2.16928e-08
2.22511e-08
2.27591e-08
2.32127e-08
2.36167e-08
2.3994e-08
2.44052e-08
2.47967e-08
2.51407e-08
2.54462e-08
2.5723e-08
2.5979e-08
2.62904e-08
2.71837e-08
2.98928e-08
0
1.16685e-10
6.86382e-10
5.65345e-10
5.41686e-10
7.76913e-10
1.21419e-09
1.797e-09
2.53343e-09
3.46335e-09
4.6083e-09
5.9234e-09
7.12673e-09
7.87321e-09
8.27601e-09
8.44655e-09
8.5692e-09
8.78324e-09
9.13116e-09
9.58164e-09
1.00762e-08
1.06539e-08
1.15463e-08
1.31279e-08
1.46888e-08
1.6039e-08
1.71785e-08
1.81264e-08
1.89249e-08
1.96274e-08
2.02828e-08
2.09237e-08
2.15634e-08
2.21985e-08
2.28169e-08
2.34048e-08
2.39514e-08
2.44497e-08
2.48959e-08
2.52939e-08
2.5664e-08
2.60781e-08
2.65386e-08
2.69485e-08
2.73129e-08
2.76401e-08
2.79387e-08
2.82869e-08
2.92227e-08
3.1997e-08
0
1.47441e-10
7.90364e-10
7.47761e-10
8.49939e-10
1.25455e-09
1.88854e-09
2.68554e-09
3.64746e-09
4.80739e-09
6.17505e-09
7.65666e-09
8.79032e-09
9.35193e-09
9.54454e-09
9.53384e-09
9.52705e-09
9.65087e-09
9.92908e-09
1.03246e-08
1.07772e-08
1.12773e-08
1.1948e-08
1.31956e-08
1.50715e-08
1.67391e-08
1.81474e-08
1.93063e-08
2.02572e-08
2.10595e-08
2.1772e-08
2.24382e-08
2.30809e-08
2.37059e-08
2.43078e-08
2.48774e-08
2.5407e-08
2.58913e-08
2.63278e-08
2.6721e-08
2.70939e-08
2.75291e-08
2.8086e-08
2.85946e-08
2.90482e-08
2.94535e-08
2.9819e-08
3.02253e-08
3.12197e-08
3.40664e-08
0
1.99997e-10
9.4489e-10
1.01367e-09
1.28329e-09
1.90076e-09
2.77091e-09
3.81374e-09
5.02141e-09
6.41642e-09
7.98397e-09
9.52042e-09
1.03686e-08
1.07088e-08
1.07719e-08
1.07663e-08
1.08486e-08
1.10691e-08
1.14096e-08
1.18303e-08
1.22916e-08
1.27827e-08
1.33215e-08
1.397e-08
1.49559e-08
1.67219e-08
1.84654e-08
1.99224e-08
2.10991e-08
2.20525e-08
2.28528e-08
2.35587e-08
2.42088e-08
2.48214e-08
2.54008e-08
2.5945e-08
2.64507e-08
2.69161e-08
2.73403e-08
2.77307e-08
2.81187e-08
2.86173e-08
2.93228e-08
2.99773e-08
3.05632e-08
3.1085e-08
3.15515e-08
3.20454e-08
3.31209e-08
3.60506e-08
0
2.84158e-10
1.17277e-09
1.40216e-09
1.89598e-09
2.77827e-09
3.92462e-09
5.23837e-09
6.70038e-09
8.31828e-09
1.00276e-08
1.13785e-08
1.18525e-08
1.20205e-08
1.21469e-08
1.23805e-08
1.27252e-08
1.31245e-08
1.36041e-08
1.41037e-08
1.45901e-08
1.50239e-08
1.54316e-08
1.58945e-08
1.63649e-08
1.69478e-08
1.80681e-08
1.98301e-08
2.12718e-08
2.24019e-08
2.33038e-08
2.40556e-08
2.47135e-08
2.531e-08
2.58604e-08
2.63707e-08
2.68442e-08
2.72839e-08
2.76928e-08
2.80841e-08
2.85072e-08
2.91405e-08
3.00742e-08
3.09425e-08
3.17215e-08
3.2414e-08
3.30298e-08
3.3653e-08
3.48418e-08
3.78705e-08
0
4.14287e-10
1.50305e-09
1.95512e-09
2.73559e-09
3.93063e-09
5.38062e-09
6.96838e-09
8.66087e-09
1.0444e-08
1.21558e-08
1.30305e-08
1.32023e-08
1.33529e-08
1.37074e-08
1.42133e-08
1.47201e-08
1.55926e-08
1.65049e-08
1.71338e-08
1.76665e-08
1.80016e-08
1.78037e-08
1.7772e-08
1.80135e-08
1.84038e-08
1.88391e-08
1.95374e-08
2.08496e-08
2.20174e-08
2.29406e-08
2.36922e-08
2.43301e-08
2.48918e-08
2.53992e-08
2.58647e-08
2.62971e-08
2.67041e-08
2.70937e-08
2.74878e-08
2.79618e-08
2.87855e-08
3.00445e-08
3.12191e-08
3.22757e-08
3.32146e-08
3.4047e-08
3.48579e-08
3.62044e-08
3.93551e-08
0
5.95886e-10
1.93464e-09
2.64431e-09
3.72355e-09
5.21035e-09
6.91391e-09
8.70338e-09
1.05341e-08
1.2349e-08
1.37704e-08
1.40461e-08
1.40976e-08
1.43764e-08
1.4943e-08
1.55249e-08
1.63837e-08
1.8086e-08
1.93054e-08
2.0086e-08
2.07037e-08
2.11284e-08
2.06635e-08
1.98653e-08
1.94702e-08
1.94345e-08
1.965e-08
1.99866e-08
2.03721e-08
2.09739e-08
2.17041e-08
2.23241e-08
2.28623e-08
2.33425e-08
2.37801e-08
2.41854e-08
2.4567e-08
2.49326e-08
2.52915e-08
2.56706e-08
2.61598e-08
2.70639e-08
2.86924e-08
3.02617e-08
3.16834e-08
3.29518e-08
3.4078e-08
3.51455e-08
3.67044e-08
4.00057e-08
0
0
0
0
0
0
0
0
4.35619e-09
2.21898e-08
3.27617e-08
3.68512e-08
4.26644e-08
4.78721e-08
3.19142e-08
1.04275e-08
1.90879e-09
1.82953e-09
2.55483e-09
3.13449e-09
1.71505e-09
3.10334e-10
3.09929e-09
9.17549e-09
7.35533e-09
0
0
0
0
0
0
1.34945e-10
3.12215e-09
6.30713e-09
1.01722e-08
1.15372e-08
0
0
0
0
0
0
6.23053e-07
3.62002e-07
1.36869e-07
2.76986e-08
0
0
0
0
0
0
0
0
0
0
0
0
0
3.20575e-10
1.19776e-09
1.66284e-09
1.3333e-09
7.8613e-10
8.16975e-10
1.29617e-09
3.92908e-10
0
0
0
0
0
0
0
0
1.59134e-08
2.53426e-08
0
0
0
0
0
0
0
0
4.02837e-09
1.99278e-08
1.92808e-08
1.80734e-08