/*--------------------------------*- C++ -*----------------------------------*\
  =========                 |
  \\      /  F ield         | OpenFOAM: The Open Source CFD Toolbox
   \\    /   O peration     | Website:  https://openfoam.org
    \\  /    A nd           | Version:  7
     \\/     M anipulation  |
\*---------------------------------------------------------------------------*/
FoamFile
{
    version     2.0;
    format      ascii;
    class       surfaceScalarField;
    location    "0.32";
    object      phi;
}
// * * * * * * * * * * * * * * * * * * * * * * * * * * * * * * * * * * * * * //

dimensions      [0 3 -1 0 0 0 0];

internalField   nonuniform List<scalar> 
139350
(
6.4591e-08
9.20405e-08
3.19471e-08
3.26439e-08
2.30532e-08
8.8939e-09
1.95561e-08
3.49706e-09
1.76017e-08
1.95438e-09
1.61717e-08
1.43006e-09
1.50363e-08
1.13536e-09
1.41201e-08
9.1617e-10
1.33656e-08
7.54577e-10
1.27294e-08
6.36157e-10
1.21828e-08
5.46604e-10
1.17064e-08
4.76434e-10
1.12863e-08
4.20028e-10
1.09125e-08
3.7385e-10
1.0577e-08
3.35497e-10
1.02737e-08
3.03245e-10
9.99792e-09
2.75826e-10
9.74562e-09
2.523e-10
9.51368e-09
2.31945e-10
9.29947e-09
2.14206e-10
9.10082e-09
1.98646e-10
8.9159e-09
1.84922e-10
8.74315e-09
1.72755e-10
8.58122e-09
1.61924e-10
8.42898e-09
1.52246e-10
8.2854e-09
1.43579e-10
8.1496e-09
1.35799e-10
8.02078e-09
1.28818e-10
7.89823e-09
1.22552e-10
7.78128e-09
1.16953e-10
7.66931e-09
1.11962e-10
7.56172e-09
1.07591e-10
7.45796e-09
1.03763e-10
7.35735e-09
1.00611e-10
7.2594e-09
9.79534e-11
7.1632e-09
9.61944e-11
7.06835e-09
9.48495e-11
6.97346e-09
9.48908e-11
6.87825e-09
9.52089e-11
6.78058e-09
9.76737e-11
6.68019e-09
1.00383e-10
6.5743e-09
1.05897e-10
6.46206e-09
1.12232e-10
6.34149e-09
1.20577e-10
6.20974e-09
1.31747e-10
6.07183e-09
1.37913e-10
5.91914e-09
1.52684e-10
5.80388e-09
1.15261e-10
5.58263e-09
2.21254e-10
-2.84169e-09
8.42432e-09
1.26024e-07
1.27461e-07
9.12559e-08
6.74116e-08
7.19281e-08
2.82216e-08
6.11943e-08
1.42308e-08
5.47417e-08
8.40707e-09
5.02417e-08
5.92999e-09
4.67518e-08
4.62528e-09
4.39305e-08
3.73752e-09
4.15984e-08
3.08662e-09
3.96309e-08
2.60369e-09
3.79406e-08
2.23683e-09
3.64676e-08
1.94949e-09
3.5169e-08
1.71866e-09
3.40131e-08
1.5297e-09
3.29759e-08
1.37269e-09
3.20386e-08
1.2406e-09
3.11861e-08
1.12825e-09
3.04067e-08
1.03178e-09
2.96904e-08
9.48238e-10
2.90292e-08
8.75366e-10
2.84165e-08
8.11374e-10
2.78466e-08
7.54845e-10
2.73147e-08
7.04648e-10
2.68167e-08
6.59862e-10
2.63492e-08
6.19739e-10
2.59091e-08
5.83681e-10
2.54938e-08
5.51181e-10
2.51007e-08
5.21843e-10
2.4728e-08
4.95329e-10
2.43735e-08
4.71391e-10
2.40357e-08
4.49797e-10
2.37128e-08
4.30479e-10
2.34033e-08
4.13219e-10
2.31057e-08
3.9826e-10
2.28184e-08
3.85198e-10
2.25397e-08
3.7495e-10
2.22681e-08
3.66464e-10
2.20008e-08
3.62157e-10
2.17368e-08
3.59258e-10
2.1471e-08
3.63386e-10
2.12036e-08
3.67871e-10
2.09248e-08
3.84701e-10
2.06381e-08
3.98933e-10
2.03248e-08
4.3379e-10
1.99968e-08
4.5982e-10
1.9627e-08
5.07634e-10
1.92283e-08
5.51396e-10
1.88683e-08
4.75288e-10
1.83474e-08
7.42187e-10
-3.88919e-09
1.93949e-08
1.58805e-07
1.35059e-07
1.36487e-07
8.97301e-08
1.17477e-07
4.72315e-08
1.0329e-07
2.84182e-08
9.32734e-08
1.84234e-08
8.59624e-08
1.32409e-08
8.0248e-08
1.03397e-08
7.55888e-08
8.39677e-09
7.17025e-08
6.97287e-09
6.84023e-08
5.90392e-09
6.55548e-08
5.08434e-09
6.30651e-08
4.4392e-09
6.08645e-08
3.91929e-09
5.89016e-08
3.49253e-09
5.71372e-08
3.13711e-09
5.55404e-08
2.83744e-09
5.40866e-08
2.58206e-09
5.27559e-08
2.36242e-09
5.15322e-08
2.17192e-09
5.04021e-08
2.00549e-09
4.93544e-08
1.85913e-09
4.83796e-08
1.72963e-09
4.74698e-08
1.61446e-09
4.66181e-08
1.51153e-09
4.58187e-08
1.41914e-09
4.50665e-08
1.33591e-09
4.43569e-08
1.26071e-09
4.36862e-08
1.19259e-09
4.30507e-08
1.13078e-09
4.24475e-08
1.07467e-09
4.18735e-08
1.02371e-09
4.13264e-08
9.77649e-10
4.08036e-08
9.36042e-10
4.03027e-08
8.99124e-10
3.98216e-08
8.66295e-10
3.93577e-08
8.38832e-10
3.89089e-08
8.15267e-10
3.84717e-08
7.99371e-10
3.80443e-08
7.86685e-10
3.76202e-08
7.87497e-10
3.71998e-08
7.88225e-10
3.67684e-08
8.16118e-10
3.63346e-08
8.32762e-10
3.58647e-08
9.03616e-10
3.53857e-08
9.38894e-10
3.48412e-08
1.05211e-09
3.42624e-08
1.13016e-09
3.37044e-08
1.03334e-09
3.30412e-08
1.40539e-09
-3.95548e-09
3.31074e-08
1.75663e-07
1.30912e-07
1.65589e-07
9.98042e-08
1.52709e-07
6.01113e-08
1.40099e-07
4.10281e-08
1.29398e-07
2.91242e-08
1.20744e-07
2.18953e-08
1.13621e-07
1.74624e-08
1.0763e-07
1.43876e-08
1.0252e-07
1.2083e-08
9.81085e-08
1.03155e-08
9.42556e-08
8.93728e-09
9.08555e-08
7.83925e-09
8.78283e-08
6.94652e-09
8.51122e-08
6.20863e-09
8.26588e-08
5.5905e-09
8.04294e-08
5.0668e-09
7.83928e-08
4.61867e-09
7.65234e-08
4.23183e-09
7.48e-08
3.89528e-09
7.32051e-08
3.60042e-09
7.17238e-08
3.34044e-09
7.03436e-08
3.10988e-09
6.90537e-08
2.90436e-09
6.78449e-08
2.72028e-09
6.67094e-08
2.55469e-09
6.56401e-08
2.40519e-09
6.4631e-08
2.26976e-09
6.36769e-08
2.14676e-09
6.27728e-08
2.0348e-09
6.19147e-08
1.93277e-09
6.10987e-08
1.8397e-09
6.03214e-08
1.75499e-09
5.95795e-08
1.67793e-09
5.887e-08
1.60861e-09
5.81901e-08
1.54624e-09
5.75366e-08
1.49228e-09
5.69069e-08
1.44496e-09
5.62971e-08
1.40924e-09
5.57048e-08
1.37894e-09
5.51228e-08
1.36952e-09
5.45518e-08
1.35917e-09
5.39745e-08
1.39349e-09
5.34015e-08
1.4057e-09
5.27939e-08
1.51122e-09
5.21806e-08
1.5522e-09
5.15017e-08
1.73104e-09
5.07789e-08
1.85296e-09
5.00698e-08
1.74244e-09
4.93261e-08
2.14908e-09
-3.43551e-09
4.88061e-08
1.84559e-07
1.23138e-07
1.82316e-07
1.02047e-07
1.76091e-07
6.6337e-08
1.67737e-07
4.93816e-08
1.59102e-07
3.77597e-08
1.51179e-07
2.98177e-08
1.44093e-07
2.45482e-08
1.37781e-07
2.06999e-08
1.32169e-07
1.76954e-08
1.27172e-07
1.53122e-08
1.22705e-07
1.34038e-08
1.18692e-07
1.18525e-08
1.15068e-07
1.05712e-08
1.11778e-07
9.49868e-09
1.08777e-07
8.59092e-09
1.06029e-07
7.81512e-09
1.03501e-07
7.14638e-09
1.01167e-07
6.56547e-09
9.90054e-08
6.05731e-09
9.69959e-08
5.60997e-09
9.51225e-08
5.21387e-09
9.33711e-08
4.86127e-09
9.17296e-08
4.54585e-09
9.01874e-08
4.26243e-09
8.87354e-08
4.00673e-09
8.73654e-08
3.77519e-09
8.60703e-08
3.56487e-09
8.48438e-08
3.37328e-09
8.36802e-08
3.19836e-09
8.25746e-08
3.0384e-09
8.15223e-08
2.89195e-09
8.05193e-08
2.75799e-09
7.95617e-08
2.63552e-09
7.8646e-08
2.52432e-09
7.77687e-08
2.42351e-09
7.69265e-08
2.33448e-09
7.61162e-08
2.25535e-09
7.53334e-08
2.19197e-09
7.45757e-08
2.13664e-09
7.38354e-08
2.10988e-09
7.31129e-08
2.08165e-09
7.23908e-08
2.1156e-09
7.1678e-08
2.11844e-09
7.09392e-08
2.2501e-09
7.01931e-08
2.2983e-09
6.93962e-08
2.52792e-09
6.85432e-08
2.70596e-09
6.7706e-08
2.57965e-09
6.68735e-08
2.98152e-09
-2.50416e-09
6.59422e-08
1.90387e-07
1.14967e-07
1.91848e-07
1.00587e-07
1.90234e-07
6.79511e-08
1.86134e-07
5.34815e-08
1.80683e-07
4.32104e-08
1.74915e-07
3.5586e-08
1.69204e-07
3.02595e-08
1.63705e-07
2.61984e-08
1.58516e-07
2.28847e-08
1.53678e-07
2.01499e-08
1.49195e-07
1.78871e-08
1.4505e-07
1.59978e-08
1.41218e-07
1.44029e-08
1.37673e-07
1.30434e-08
1.34389e-07
1.18749e-08
1.31341e-07
1.08634e-08
1.28506e-07
9.98175e-09
1.25862e-07
9.2086e-09
1.23393e-07
8.52668e-09
1.21081e-07
7.92201e-09
1.18912e-07
7.38318e-09
1.16872e-07
6.90077e-09
1.14951e-07
6.46704e-09
1.13138e-07
6.07549e-09
1.11424e-07
5.72072e-09
1.09801e-07
5.39821e-09
1.08262e-07
5.10416e-09
1.068e-07
4.83534e-09
1.05409e-07
4.58905e-09
1.04084e-07
4.36301e-09
1.02821e-07
4.15532e-09
1.01614e-07
3.96451e-09
1.00461e-07
3.7893e-09
9.93559e-08
3.62916e-09
9.82962e-08
3.48315e-09
9.72782e-08
3.35245e-09
9.62984e-08
3.23523e-09
9.53523e-08
3.138e-09
9.44371e-08
3.05184e-09
9.35454e-08
3.00165e-09
9.26764e-08
2.95067e-09
9.18149e-08
2.97709e-09
9.09647e-08
2.96864e-09
9.00997e-08
3.11505e-09
8.92221e-08
3.17587e-09
8.83133e-08
3.43679e-09
8.73371e-08
3.6821e-09
8.63779e-08
3.53889e-09
8.54317e-08
3.92768e-09
-1.23367e-09
8.41612e-08
1.9554e-07
1.07242e-07
1.98244e-07
9.78827e-08
1.9896e-07
6.72349e-08
1.97771e-07
5.467e-08
1.95128e-07
4.58534e-08
1.91773e-07
3.8941e-08
1.88027e-07
3.40062e-08
1.8406e-07
3.01645e-08
1.80025e-07
2.69205e-08
1.7603e-07
2.41449e-08
1.72144e-07
2.17729e-08
1.68406e-07
1.97357e-08
1.64836e-07
1.79726e-08
1.61443e-07
1.64369e-08
1.58226e-07
1.50919e-08
1.55181e-07
1.39082e-08
1.52301e-07
1.28616e-08
1.49577e-07
1.19323e-08
1.47001e-07
1.11035e-08
1.44561e-07
1.03614e-08
1.4225e-07
9.69434e-09
1.40058e-07
9.0925e-09
1.37978e-07
8.54759e-09
1.36001e-07
8.05256e-09
1.3412e-07
7.60145e-09
1.32329e-07
7.18918e-09
1.30622e-07
6.81145e-09
1.28993e-07
6.46453e-09
1.27436e-07
6.14532e-09
1.25948e-07
5.8511e-09
1.24524e-07
5.57968e-09
1.23159e-07
5.32922e-09
1.2185e-07
5.0983e-09
1.20593e-07
4.88603e-09
1.19385e-07
4.69156e-09
1.18221e-07
4.51582e-09
1.171e-07
4.35716e-09
1.16015e-07
4.22257e-09
1.14964e-07
4.10234e-09
1.13941e-07
4.02474e-09
1.12943e-07
3.94869e-09
1.11959e-07
3.96175e-09
1.10985e-07
3.94266e-09
1.10007e-07
4.09325e-09
1.09009e-07
4.17325e-09
1.07997e-07
4.44897e-09
1.06912e-07
4.76734e-09
1.05832e-07
4.61824e-09
1.04767e-07
4.99339e-09
3.64148e-10
1.03169e-07
2.00847e-07
9.99796e-08
2.03772e-07
9.49576e-08
2.05319e-07
6.56884e-08
2.05627e-07
5.43614e-08
2.04791e-07
4.66894e-08
2.03298e-07
4.04341e-08
2.01336e-07
3.59678e-08
1.98991e-07
3.25099e-08
1.96368e-07
2.95435e-08
1.9357e-07
2.69424e-08
1.90679e-07
2.4664e-08
1.87755e-07
2.26598e-08
1.84843e-07
2.08853e-08
1.81973e-07
1.93062e-08
1.79169e-07
1.78959e-08
1.76445e-07
1.66324e-08
1.73809e-07
1.54974e-08
1.71267e-07
1.44748e-08
1.68819e-07
1.35509e-08
1.66467e-07
1.2714e-08
1.64207e-07
1.19538e-08
1.62038e-07
1.12613e-08
1.59957e-07
1.06288e-08
1.5796e-07
1.00497e-08
1.56043e-07
9.51813e-09
1.54203e-07
9.02911e-09
1.52437e-07
8.57829e-09
1.50739e-07
8.16189e-09
1.49108e-07
7.77669e-09
1.47539e-07
7.41985e-09
1.4603e-07
7.0891e-09
1.44577e-07
6.78241e-09
1.43176e-07
6.49841e-09
1.41826e-07
6.23595e-09
1.40524e-07
5.99444e-09
1.39265e-07
5.77457e-09
1.38047e-07
5.57503e-09
1.36866e-07
5.40318e-09
1.3572e-07
5.24902e-09
1.34601e-07
5.14304e-09
1.33508e-07
5.04247e-09
1.3243e-07
5.03897e-09
1.31361e-07
5.01185e-09
1.30295e-07
5.15934e-09
1.29204e-07
5.26406e-09
1.28108e-07
5.54553e-09
1.26942e-07
5.9336e-09
1.25751e-07
5.80894e-09
1.24583e-07
6.16155e-09
2.26119e-09
1.22686e-07
2.06446e-07
9.30658e-08
2.09336e-07
9.2068e-08
2.11028e-07
6.39956e-08
2.11916e-07
5.3474e-08
2.11976e-07
4.6629e-08
2.11579e-07
4.08311e-08
2.10837e-07
3.671e-08
2.09753e-07
3.35944e-08
2.08364e-07
3.09326e-08
2.06728e-07
2.85776e-08
2.04903e-07
2.6489e-08
2.02938e-07
2.46254e-08
2.00874e-07
2.29488e-08
1.98749e-07
2.14316e-08
1.96591e-07
2.00538e-08
1.94424e-07
1.87995e-08
1.92266e-07
1.76554e-08
1.90131e-07
1.66099e-08
1.88029e-07
1.56528e-08
1.85968e-07
1.47751e-08
1.83953e-07
1.39686e-08
1.81988e-07
1.32263e-08
1.80075e-07
1.25418e-08
1.78215e-07
1.19093e-08
1.76409e-07
1.1324e-08
1.74657e-07
1.07814e-08
1.72958e-07
1.02776e-08
1.7131e-07
9.80919e-09
1.69714e-07
9.37315e-09
1.68167e-07
8.96686e-09
1.66668e-07
8.58822e-09
1.65215e-07
8.23524e-09
1.63807e-07
7.9068e-09
1.62441e-07
7.60168e-09
1.61116e-07
7.31966e-09
1.59829e-07
7.06136e-09
1.58578e-07
6.82589e-09
1.5736e-07
6.621e-09
1.56172e-07
6.43677e-09
1.5501e-07
6.30504e-09
1.53869e-07
6.18354e-09
1.52745e-07
6.16371e-09
1.51624e-07
6.13279e-09
1.50509e-07
6.27436e-09
1.49365e-07
6.4073e-09
1.48217e-07
6.69425e-09
1.4701e-07
7.14079e-09
1.45737e-07
7.08154e-09
1.44482e-07
7.41643e-09
4.36003e-09
1.42383e-07
2.12288e-07
8.64404e-08
2.15148e-07
8.92075e-08
2.16782e-07
6.23615e-08
2.17828e-07
5.24285e-08
2.18235e-07
4.62219e-08
2.18341e-07
4.07249e-08
2.18254e-07
3.67975e-08
2.17941e-07
3.39068e-08
2.17396e-07
3.14773e-08
2.16638e-07
2.93359e-08
2.15691e-07
2.74366e-08
2.14579e-07
2.57368e-08
2.1333e-07
2.4198e-08
2.11968e-07
2.27932e-08
2.10518e-07
2.15041e-08
2.09e-07
2.03172e-08
2.07434e-07
1.9222e-08
2.05834e-07
1.82094e-08
2.04215e-07
1.72719e-08
2.02588e-07
1.64025e-08
2.00961e-07
1.55954e-08
1.99342e-07
1.48449e-08
1.97738e-07
1.41463e-08
1.96152e-07
1.34951e-08
1.94589e-07
1.28872e-08
1.93051e-07
1.23192e-08
1.91541e-07
1.17878e-08
1.9006e-07
1.12902e-08
1.88609e-07
1.08239e-08
1.87189e-07
1.03867e-08
1.85801e-07
9.97683e-09
1.84443e-07
9.59259e-09
1.83117e-07
9.23323e-09
1.81821e-07
8.89767e-09
1.80555e-07
8.5861e-09
1.79317e-07
8.29935e-09
1.78106e-07
8.03687e-09
1.7692e-07
7.807e-09
1.75756e-07
7.6001e-09
1.74613e-07
7.44871e-09
1.73483e-07
7.31274e-09
1.72367e-07
7.28024e-09
1.71248e-07
7.2512e-09
1.70134e-07
7.38842e-09
1.6899e-07
7.55157e-09
1.67834e-07
7.84995e-09
1.66632e-07
8.34346e-09
1.6533e-07
8.38365e-09
1.64007e-07
8.7393e-09
6.54261e-09
1.61824e-07
2.18329e-07
8.00923e-08
2.21202e-07
8.63347e-08
2.22755e-07
6.08086e-08
2.23827e-07
5.13564e-08
2.24343e-07
4.57056e-08
2.24627e-07
4.04408e-08
2.24816e-07
3.66084e-08
2.24883e-07
3.38404e-08
2.24804e-07
3.15557e-08
2.24581e-07
2.95588e-08
2.24219e-07
2.77993e-08
2.23722e-07
2.6233e-08
2.23102e-07
2.48186e-08
2.22368e-07
2.35265e-08
2.21535e-07
2.23374e-08
2.20615e-07
2.12374e-08
2.19621e-07
2.02162e-08
2.18565e-07
1.92654e-08
2.17458e-07
1.83785e-08
2.16311e-07
1.75496e-08
2.15133e-07
1.67739e-08
2.13931e-07
1.60469e-08
2.12712e-07
1.53647e-08
2.11484e-07
1.47238e-08
2.1025e-07
1.41211e-08
2.09015e-07
1.35538e-08
2.07784e-07
1.30193e-08
2.06558e-07
1.25155e-08
2.05342e-07
1.20403e-08
2.04136e-07
1.1592e-08
2.02944e-07
1.11694e-08
2.01766e-07
1.0771e-08
2.00602e-07
1.03965e-08
1.99455e-07
1.00451e-08
1.98324e-07
9.71745e-09
1.97208e-07
9.41477e-09
1.96108e-07
9.13677e-09
1.95023e-07
8.89253e-09
1.9395e-07
8.67284e-09
1.92888e-07
8.51039e-09
1.91833e-07
8.36846e-09
1.90783e-07
8.32968e-09
1.89725e-07
8.30923e-09
1.88667e-07
8.44694e-09
1.87576e-07
8.64202e-09
1.86466e-07
8.95991e-09
1.85315e-07
9.49459e-09
1.84044e-07
9.6544e-09
1.82694e-07
1.00898e-08
8.71936e-09
1.80517e-07
2.24558e-07
7.4028e-08
2.27466e-07
8.34264e-08
2.28951e-07
5.93232e-08
2.30028e-07
5.02793e-08
2.30586e-07
4.51482e-08
2.30918e-07
4.01082e-08
2.31197e-07
3.633e-08
2.31411e-07
3.3626e-08
2.31542e-07
3.14251e-08
2.31586e-07
2.95141e-08
2.31545e-07
2.7841e-08
2.31415e-07
2.63627e-08
2.31197e-07
2.50364e-08
2.30893e-07
2.38307e-08
2.30506e-07
2.2724e-08
2.30042e-07
2.17014e-08
2.29507e-07
2.07515e-08
2.28907e-07
1.98658e-08
2.28248e-07
1.90371e-08
2.27538e-07
1.82599e-08
2.26782e-07
1.75295e-08
2.25987e-07
1.68417e-08
2.25159e-07
1.6193e-08
2.24302e-07
1.55804e-08
2.23422e-07
1.50011e-08
2.22523e-07
1.44529e-08
2.21609e-07
1.39336e-08
2.20683e-07
1.34413e-08
2.19749e-07
1.29746e-08
2.18809e-07
1.2532e-08
2.17866e-07
1.21127e-08
2.16921e-07
1.17155e-08
2.15977e-07
1.13406e-08
2.15035e-07
1.09875e-08
2.14095e-07
1.0657e-08
2.13159e-07
1.0351e-08
2.12226e-07
1.00693e-08
2.11297e-07
9.8219e-09
2.1037e-07
9.59995e-09
2.09444e-07
9.43595e-09
2.08515e-07
9.29727e-09
2.07585e-07
9.25986e-09
2.06639e-07
9.255e-09
2.05687e-07
9.39964e-09
2.047e-07
9.62859e-09
2.03686e-07
9.97371e-09
2.02632e-07
1.05492e-08
2.01446e-07
1.08397e-08
2.00127e-07
1.14094e-08
1.08219e-08
1.98024e-07
2.30978e-07
6.82556e-08
2.3393e-07
8.04745e-08
2.35356e-07
5.78973e-08
2.36439e-07
4.91964e-08
2.3703e-07
4.45576e-08
2.37377e-07
3.97606e-08
2.37677e-07
3.60303e-08
2.37937e-07
3.33659e-08
2.38143e-07
3.12191e-08
2.38297e-07
2.93603e-08
2.38401e-07
2.77371e-08
2.38453e-07
2.63104e-08
2.38451e-07
2.50382e-08
2.38394e-07
2.38881e-08
2.3828e-07
2.28376e-08
2.38111e-07
2.18706e-08
2.37887e-07
2.09752e-08
2.37611e-07
2.01419e-08
2.37285e-07
1.93633e-08
2.36912e-07
1.86331e-08
2.36495e-07
1.79466e-08
2.36037e-07
1.72993e-08
2.35542e-07
1.66878e-08
2.35014e-07
1.61091e-08
2.34454e-07
1.55604e-08
2.33868e-07
1.50395e-08
2.33257e-07
1.45445e-08
2.32624e-07
1.40738e-08
2.31973e-07
1.36259e-08
2.31305e-07
1.31998e-08
2.30623e-07
1.27946e-08
2.29929e-07
1.24096e-08
2.29225e-07
1.20451e-08
2.28511e-07
1.17009e-08
2.2779e-07
1.13781e-08
2.27062e-07
1.10792e-08
2.26328e-07
1.08038e-08
2.25587e-07
1.05627e-08
2.24839e-07
1.03478e-08
2.24084e-07
1.01908e-08
2.23318e-07
1.00636e-08
2.22543e-07
1.00349e-08
2.21746e-07
1.00517e-08
2.20936e-07
1.02097e-08
2.2009e-07
1.04742e-08
2.19211e-07
1.08531e-08
2.18289e-07
1.14714e-08
2.17229e-07
1.18992e-08
2.15997e-07
1.26415e-08
1.27877e-08
2.14031e-07
2.37599e-07
6.2781e-08
2.40598e-07
7.74763e-08
2.41966e-07
5.65287e-08
2.43054e-07
4.81087e-08
2.43681e-07
4.39301e-08
2.44042e-07
3.93999e-08
2.44347e-07
3.57256e-08
2.44619e-07
3.30937e-08
2.44847e-07
3.09907e-08
2.45037e-07
2.91702e-08
2.45195e-07
2.75791e-08
2.45322e-07
2.61833e-08
2.45418e-07
2.4943e-08
2.4548e-07
2.38259e-08
2.45508e-07
2.28096e-08
2.45501e-07
2.18778e-08
2.45458e-07
2.1018e-08
2.45379e-07
2.02205e-08
2.45265e-07
1.94774e-08
2.45116e-07
1.87824e-08
2.44933e-07
1.81301e-08
2.44716e-07
1.7516e-08
2.44467e-07
1.69364e-08
2.44188e-07
1.6388e-08
2.43881e-07
1.58681e-08
2.43546e-07
1.53744e-08
2.43185e-07
1.49049e-08
2.42801e-07
1.44579e-08
2.42395e-07
1.40322e-08
2.41968e-07
1.36264e-08
2.41523e-07
1.32402e-08
2.4106e-07
1.28727e-08
2.4058e-07
1.25243e-08
2.40086e-07
1.21952e-08
2.39578e-07
1.18864e-08
2.39056e-07
1.16009e-08
2.38522e-07
1.13384e-08
2.37974e-07
1.11102e-08
2.37413e-07
1.09089e-08
2.36839e-07
1.0765e-08
2.36247e-07
1.06555e-08
2.35641e-07
1.06409e-08
2.35009e-07
1.06837e-08
2.34358e-07
1.08602e-08
2.33672e-07
1.11607e-08
2.32947e-07
1.15781e-08
2.32177e-07
1.22413e-08
2.31266e-07
1.28099e-08
2.30161e-07
1.37464e-08
1.45646e-08
2.28385e-07
2.44429e-07
5.76079e-08
2.47467e-07
7.44385e-08
2.48787e-07
5.52092e-08
2.49874e-07
4.7021e-08
2.5054e-07
4.32642e-08
2.50918e-07
3.90224e-08
2.51226e-07
3.54169e-08
2.51503e-07
3.28166e-08
2.51739e-07
3.07552e-08
2.5194e-07
2.89697e-08
2.52114e-07
2.74045e-08
2.52267e-07
2.60307e-08
2.52398e-07
2.48114e-08
2.52509e-07
2.37151e-08
2.52599e-07
2.27196e-08
2.52668e-07
2.18089e-08
2.52715e-07
2.09708e-08
2.5274e-07
2.01954e-08
2.52743e-07
1.9475e-08
2.52722e-07
1.8803e-08
2.52678e-07
1.81738e-08
2.52611e-07
1.7583e-08
2.52521e-07
1.70265e-08
2.52408e-07
1.65011e-08
2.52272e-07
1.60038e-08
2.52115e-07
1.55321e-08
2.51936e-07
1.50841e-08
2.51736e-07
1.46579e-08
2.51515e-07
1.42523e-08
2.51276e-07
1.3866e-08
2.51018e-07
1.34983e-08
2.50742e-07
1.31488e-08
2.50448e-07
1.28176e-08
2.50138e-07
1.25052e-08
2.49812e-07
1.22126e-08
2.4947e-07
1.19431e-08
2.49112e-07
1.16964e-08
2.48738e-07
1.14841e-08
2.48347e-07
1.12998e-08
2.4794e-07
1.11722e-08
2.47512e-07
1.10834e-08
2.47067e-07
1.10862e-08
2.46594e-07
1.11567e-08
2.46099e-07
1.1355e-08
2.45569e-07
1.16905e-08
2.44998e-07
1.21493e-08
2.44381e-07
1.28582e-08
2.43624e-07
1.35669e-08
2.42665e-07
1.47059e-08
1.61217e-08
2.41107e-07
2.51477e-07
5.27379e-08
2.54544e-07
7.13707e-08
2.55825e-07
5.39285e-08
2.56907e-07
4.59388e-08
2.57611e-07
4.25609e-08
2.58008e-07
3.86253e-08
2.58322e-07
3.51029e-08
2.58604e-07
3.25346e-08
2.58844e-07
3.05149e-08
2.59049e-07
2.87652e-08
2.59228e-07
2.7225e-08
2.59388e-07
2.58707e-08
2.59531e-07
2.46685e-08
2.59658e-07
2.35878e-08
2.59771e-07
2.26068e-08
2.5987e-07
2.171e-08
2.59955e-07
2.08856e-08
2.60027e-07
2.0124e-08
2.60084e-07
1.94175e-08
2.60127e-07
1.87596e-08
2.60156e-07
1.81451e-08
2.6017e-07
1.75691e-08
2.60169e-07
1.70279e-08
2.60152e-07
1.65178e-08
2.6012e-07
1.60361e-08
2.60071e-07
1.55802e-08
2.60008e-07
1.5148e-08
2.59928e-07
1.47377e-08
2.59832e-07
1.43479e-08
2.59721e-07
1.39772e-08
2.59594e-07
1.36252e-08
2.59452e-07
1.32911e-08
2.59294e-07
1.29752e-08
2.59121e-07
1.26782e-08
2.58933e-07
1.24008e-08
2.58729e-07
1.21468e-08
2.5851e-07
1.19158e-08
2.58275e-07
1.17195e-08
2.58022e-07
1.15528e-08
2.57752e-07
1.14421e-08
2.5746e-07
1.13747e-08
2.57151e-07
1.13958e-08
2.56814e-07
1.14933e-08
2.56455e-07
1.17146e-08
2.56062e-07
1.20826e-08
2.55628e-07
1.25836e-08
2.55148e-07
1.33382e-08
2.54533e-07
1.41822e-08
2.53718e-07
1.55207e-08
1.74527e-08
2.52387e-07
2.5875e-07
4.81713e-08
2.61838e-07
6.82828e-08
2.6309e-07
5.2676e-08
2.64162e-07
4.48672e-08
2.649e-07
4.18228e-08
2.65319e-07
3.82065e-08
2.65639e-07
3.47824e-08
2.65926e-07
3.22476e-08
2.66171e-07
3.02696e-08
2.66379e-07
2.85573e-08
2.66561e-07
2.70432e-08
2.66723e-07
2.57083e-08
2.6687e-07
2.45223e-08
2.67002e-07
2.34556e-08
2.67122e-07
2.24869e-08
2.6723e-07
2.16012e-08
2.67329e-07
2.07869e-08
2.67418e-07
2.00349e-08
2.67498e-07
1.93377e-08
2.67568e-07
1.86892e-08
2.6763e-07
1.80839e-08
2.67681e-07
1.75174e-08
2.67723e-07
1.69859e-08
2.67755e-07
1.64858e-08
2.67777e-07
1.60143e-08
2.67788e-07
1.5569e-08
2.67789e-07
1.51476e-08
2.67778e-07
1.47483e-08
2.67756e-07
1.43698e-08
2.67723e-07
1.40107e-08
2.67677e-07
1.36704e-08
2.6762e-07
1.33484e-08
2.67551e-07
1.30448e-08
2.67468e-07
1.27604e-08
2.67373e-07
1.24958e-08
2.67265e-07
1.22553e-08
2.67142e-07
1.20384e-08
2.67005e-07
1.18566e-08
2.66852e-07
1.17061e-08
2.66683e-07
1.16112e-08
2.66493e-07
1.15638e-08
2.66287e-07
1.16027e-08
2.66055e-07
1.17251e-08
2.658e-07
1.19691e-08
2.65517e-07
1.23662e-08
2.65192e-07
1.29085e-08
2.64823e-07
1.37076e-08
2.64326e-07
1.46787e-08
2.63642e-07
1.62048e-08
1.85694e-08
2.62525e-07
2.66257e-07
4.39064e-08
2.69355e-07
6.51853e-08
2.70589e-07
5.14412e-08
2.71646e-07
4.38106e-08
2.72416e-07
4.10533e-08
2.72858e-07
3.77642e-08
2.73186e-07
3.44547e-08
2.73478e-07
3.19554e-08
2.73728e-07
3.00189e-08
2.7394e-07
2.83456e-08
2.74124e-07
2.68591e-08
2.74288e-07
2.55442e-08
2.74436e-07
2.43746e-08
2.7457e-07
2.33219e-08
2.74691e-07
2.23652e-08
2.74803e-07
2.14896e-08
2.74906e-07
2.06843e-08
2.75e-07
1.99404e-08
2.75087e-07
1.92506e-08
2.75167e-07
1.8609e-08
2.75241e-07
1.80105e-08
2.75308e-07
1.74506e-08
2.75368e-07
1.69257e-08
2.75421e-07
1.64325e-08
2.75467e-07
1.59679e-08
2.75507e-07
1.55297e-08
2.75539e-07
1.51157e-08
2.75563e-07
1.47241e-08
2.75579e-07
1.43536e-08
2.75587e-07
1.40028e-08
2.75586e-07
1.36711e-08
2.75577e-07
1.33581e-08
2.75558e-07
1.30638e-08
2.75529e-07
1.27893e-08
2.75489e-07
1.25351e-08
2.75439e-07
1.23056e-08
2.75377e-07
1.21005e-08
2.75302e-07
1.19312e-08
2.75213e-07
1.1795e-08
2.7511e-07
1.17141e-08
2.7499e-07
1.16847e-08
2.74853e-07
1.17398e-08
2.74694e-07
1.18841e-08
2.74513e-07
1.21496e-08
2.74307e-07
1.25722e-08
2.74062e-07
1.31537e-08
2.73773e-07
1.39959e-08
2.73369e-07
1.50831e-08
2.72795e-07
1.67784e-08
1.94935e-08
2.71871e-07
2.74008e-07
3.99396e-08
2.77104e-07
6.20893e-08
2.78331e-07
5.0214e-08
2.79369e-07
4.27725e-08
2.80166e-07
4.02564e-08
2.80633e-07
3.7297e-08
2.80969e-07
3.41188e-08
2.81267e-07
3.16581e-08
2.81523e-07
2.97626e-08
2.81739e-07
2.81298e-08
2.81925e-07
2.66724e-08
2.82091e-07
2.53784e-08
2.8224e-07
2.42258e-08
2.82375e-07
2.31874e-08
2.82497e-07
2.22427e-08
2.82609e-07
2.13774e-08
2.82713e-07
2.05808e-08
2.82809e-07
1.98445e-08
2.82898e-07
1.91615e-08
2.82981e-07
1.85261e-08
2.83058e-07
1.79334e-08
2.83129e-07
1.7379e-08
2.83196e-07
1.68594e-08
2.83257e-07
1.63714e-08
2.83313e-07
1.59121e-08
2.83363e-07
1.54792e-08
2.83408e-07
1.50707e-08
2.83447e-07
1.46848e-08
2.83481e-07
1.43202e-08
2.83508e-07
1.39756e-08
2.83529e-07
1.36505e-08
2.83542e-07
1.33444e-08
2.83549e-07
1.30574e-08
2.83547e-07
1.27907e-08
2.83538e-07
1.25449e-08
2.83519e-07
1.23244e-08
2.8349e-07
1.21294e-08
2.83451e-07
1.19705e-08
2.83399e-07
1.18467e-08
2.83335e-07
1.17781e-08
2.83255e-07
1.17644e-08
2.83161e-07
1.18343e-08
2.83047e-07
1.19977e-08
2.82914e-07
1.2283e-08
2.82758e-07
1.27278e-08
2.82566e-07
1.33459e-08
2.82333e-07
1.42289e-08
2.81996e-07
1.542e-08
2.81513e-07
1.72615e-08
2.02484e-08
2.80758e-07
2.82011e-07
3.62657e-08
2.85094e-07
5.90063e-08
2.86324e-07
4.89846e-08
2.87341e-07
4.17557e-08
2.8816e-07
3.94369e-08
2.88654e-07
3.68035e-08
2.88999e-07
3.37735e-08
2.89301e-07
3.13558e-08
2.89563e-07
2.95007e-08
2.89784e-07
2.79094e-08
2.89973e-07
2.64828e-08
2.90141e-07
2.52107e-08
2.90291e-07
2.40755e-08
2.90427e-07
2.30519e-08
2.9055e-07
2.21196e-08
2.90662e-07
2.12648e-08
2.90766e-07
2.04771e-08
2.90862e-07
1.97485e-08
2.90951e-07
1.90723e-08
2.91035e-07
1.84429e-08
2.91112e-07
1.78556e-08
2.91185e-07
1.73064e-08
2.91253e-07
1.67916e-08
2.91316e-07
1.63082e-08
2.91374e-07
1.58536e-08
2.91428e-07
1.54253e-08
2.91478e-07
1.50214e-08
2.91522e-07
1.46402e-08
2.91562e-07
1.42805e-08
2.91597e-07
1.39411e-08
2.91626e-07
1.36213e-08
2.91649e-07
1.33209e-08
2.91667e-07
1.304e-08
2.91678e-07
1.27799e-08
2.91681e-07
1.25412e-08
2.91677e-07
1.23284e-08
2.91665e-07
1.2142e-08
2.91643e-07
1.19923e-08
2.9161e-07
1.18795e-08
2.91566e-07
1.18218e-08
2.91509e-07
1.1822e-08
2.91438e-07
1.19053e-08
2.9135e-07
1.20853e-08
2.91244e-07
1.23889e-08
2.91119e-07
1.28532e-08
2.9096e-07
1.35047e-08
2.90763e-07
1.44262e-08
2.90475e-07
1.57076e-08
2.90067e-07
1.76692e-08
2.08539e-08
2.89462e-07
2.90277e-07
3.28775e-08
2.93335e-07
5.5948e-08
2.94576e-07
4.77444e-08
2.95569e-07
4.0762e-08
2.96406e-07
3.85999e-08
2.96927e-07
3.62828e-08
2.97283e-07
3.34174e-08
2.9759e-07
3.10486e-08
2.97858e-07
2.92331e-08
2.98083e-07
2.76841e-08
2.98276e-07
2.629e-08
2.98446e-07
2.50409e-08
2.98597e-07
2.39237e-08
2.98734e-07
2.29153e-08
2.98858e-07
2.19958e-08
2.98971e-07
2.11517e-08
2.99075e-07
2.03732e-08
2.99171e-07
1.96525e-08
2.9926e-07
1.89831e-08
2.99343e-07
1.83598e-08
2.9942e-07
1.77781e-08
2.99493e-07
1.72339e-08
2.99561e-07
1.67239e-08
2.99624e-07
1.6245e-08
2.99683e-07
1.57948e-08
2.99737e-07
1.53708e-08
2.99787e-07
1.49712e-08
2.99833e-07
1.45945e-08
2.99874e-07
1.42392e-08
2.99911e-07
1.39045e-08
2.99942e-07
1.35896e-08
2.99969e-07
1.32944e-08
2.9999e-07
1.3019e-08
3.00005e-07
1.27648e-08
3.00014e-07
1.25325e-08
3.00016e-07
1.23267e-08
3.00009e-07
1.21482e-08
2.99995e-07
1.20067e-08
2.9997e-07
1.1904e-08
2.99936e-07
1.18562e-08
2.99889e-07
1.18689e-08
2.9983e-07
1.19646e-08
2.99756e-07
1.21592e-08
2.99665e-07
1.24797e-08
2.99557e-07
1.29614e-08
2.99419e-07
1.36427e-08
2.99245e-07
1.45996e-08
2.98996e-07
1.5957e-08
2.98654e-07
1.80112e-08
2.13241e-08
2.98184e-07
2.98814e-07
2.97663e-08
3.01835e-07
5.29264e-08
3.03094e-07
4.64853e-08
3.04064e-07
3.97923e-08
3.04913e-07
3.7751e-08
3.05461e-07
3.57345e-08
3.0583e-07
3.30491e-08
3.06142e-07
3.07363e-08
3.06415e-07
2.89598e-08
3.06646e-07
2.74538e-08
3.06842e-07
2.60938e-08
3.07014e-07
2.48687e-08
3.07168e-07
2.37702e-08
3.07305e-07
2.27774e-08
3.0743e-07
2.18712e-08
3.07544e-07
2.10382e-08
3.07648e-07
2.02691e-08
3.07744e-07
1.95564e-08
3.07833e-07
1.88941e-08
3.07916e-07
1.8277e-08
3.07993e-07
1.77009e-08
3.08065e-07
1.71619e-08
3.08132e-07
1.66567e-08
3.08195e-07
1.61824e-08
3.08253e-07
1.57365e-08
3.08307e-07
1.53168e-08
3.08357e-07
1.49216e-08
3.08402e-07
1.45491e-08
3.08443e-07
1.41983e-08
3.08479e-07
1.38681e-08
3.08511e-07
1.35579e-08
3.08538e-07
1.32676e-08
3.08559e-07
1.29975e-08
3.08575e-07
1.27489e-08
3.08585e-07
1.25228e-08
3.08588e-07
1.23235e-08
3.08584e-07
1.21525e-08
3.08572e-07
1.20189e-08
3.0855e-07
1.19255e-08
3.0852e-07
1.18871e-08
3.08477e-07
1.19112e-08
3.08423e-07
1.20185e-08
3.08356e-07
1.22262e-08
3.08274e-07
1.25621e-08
3.08176e-07
1.30593e-08
3.08052e-07
1.37667e-08
3.07897e-07
1.47549e-08
3.0768e-07
1.61733e-08
3.074e-07
1.8292e-08
2.16683e-08
3.07055e-07
3.07632e-07
2.69214e-08
3.10605e-07
4.99537e-08
3.1189e-07
4.52007e-08
3.12835e-07
3.88465e-08
3.13691e-07
3.68955e-08
3.14266e-07
3.5159e-08
3.14649e-07
3.26669e-08
3.14966e-07
3.04188e-08
3.15245e-07
2.8681e-08
3.15481e-07
2.7218e-08
3.15681e-07
2.58936e-08
3.15856e-07
2.46939e-08
3.16011e-07
2.36147e-08
3.1615e-07
2.26381e-08
3.16276e-07
2.17455e-08
3.1639e-07
2.0924e-08
3.16495e-07
2.01645e-08
3.16591e-07
1.94602e-08
3.1668e-07
1.88051e-08
3.16763e-07
1.81944e-08
3.16839e-07
1.7624e-08
3.16911e-07
1.70903e-08
3.16978e-07
1.659e-08
3.1704e-07
1.61203e-08
3.17097e-07
1.56789e-08
3.17151e-07
1.52636e-08
3.17199e-07
1.48727e-08
3.17244e-07
1.45046e-08
3.17284e-07
1.41581e-08
3.1732e-07
1.38324e-08
3.17351e-07
1.35269e-08
3.17377e-07
1.32416e-08
3.17397e-07
1.29767e-08
3.17413e-07
1.27337e-08
3.17422e-07
1.25135e-08
3.17425e-07
1.23206e-08
3.17421e-07
1.21569e-08
3.17409e-07
1.20308e-08
3.17388e-07
1.19463e-08
3.17358e-07
1.19169e-08
3.17318e-07
1.19515e-08
3.17266e-07
1.20697e-08
3.17203e-07
1.22892e-08
3.17127e-07
1.2639e-08
3.17036e-07
1.31502e-08
3.16923e-07
1.38795e-08
3.16784e-07
1.48937e-08
3.166e-07
1.63575e-08
3.16379e-07
1.85126e-08
2.18924e-08
3.16155e-07
3.16742e-07
2.43309e-08
3.19654e-07
4.70418e-08
3.20969e-07
4.38852e-08
3.21892e-07
3.79236e-08
3.22749e-07
3.60385e-08
3.23351e-07
3.45572e-08
3.23748e-07
3.22693e-08
3.24071e-07
3.00957e-08
3.24356e-07
2.83968e-08
3.24597e-07
2.69765e-08
3.24801e-07
2.56894e-08
3.24979e-07
2.45163e-08
3.25137e-07
2.34572e-08
3.25277e-07
2.24972e-08
3.25404e-07
2.16186e-08
3.25519e-07
2.0809e-08
3.25624e-07
2.00595e-08
3.25721e-07
1.93636e-08
3.2581e-07
1.8716e-08
3.25893e-07
1.81119e-08
3.25969e-07
1.75474e-08
3.26041e-07
1.7019e-08
3.26107e-07
1.65237e-08
3.26168e-07
1.60588e-08
3.26225e-07
1.5622e-08
3.26278e-07
1.52111e-08
3.26326e-07
1.48246e-08
3.26369e-07
1.44609e-08
3.26409e-07
1.41189e-08
3.26443e-07
1.37978e-08
3.26473e-07
1.3497e-08
3.26498e-07
1.32167e-08
3.26518e-07
1.29569e-08
3.26532e-07
1.27194e-08
3.2654e-07
1.25052e-08
3.26542e-07
1.23186e-08
3.26537e-07
1.2162e-08
3.26525e-07
1.20432e-08
3.26504e-07
1.19672e-08
3.26475e-07
1.19464e-08
3.26435e-07
1.19909e-08
3.26386e-07
1.21192e-08
3.26326e-07
1.23493e-08
3.26253e-07
1.27112e-08
3.26169e-07
1.32345e-08
3.26067e-07
1.39813e-08
3.25945e-07
1.50153e-08
3.25795e-07
1.65082e-08
3.25635e-07
1.86723e-08
2.20017e-08
3.25526e-07
3.26152e-07
2.19813e-08
3.28991e-07
4.42025e-08
3.30342e-07
4.25351e-08
3.31244e-07
3.70216e-08
3.32097e-07
3.5185e-08
3.32723e-07
3.3931e-08
3.33138e-07
3.18549e-08
3.33467e-07
2.97663e-08
3.33757e-07
2.81072e-08
3.34004e-07
2.67293e-08
3.34213e-07
2.54806e-08
3.34394e-07
2.43356e-08
3.34553e-07
2.32973e-08
3.34696e-07
2.23544e-08
3.34824e-07
2.14904e-08
3.3494e-07
2.06929e-08
3.35046e-07
1.99537e-08
3.35143e-07
1.92666e-08
3.35233e-07
1.86266e-08
3.35315e-07
1.80293e-08
3.35392e-07
1.74708e-08
3.35463e-07
1.6948e-08
3.35529e-07
1.64579e-08
3.3559e-07
1.59978e-08
3.35646e-07
1.55656e-08
3.35698e-07
1.51593e-08
3.35745e-07
1.47772e-08
3.35788e-07
1.44181e-08
3.35826e-07
1.40806e-08
3.3586e-07
1.37642e-08
3.35889e-07
1.34682e-08
3.35913e-07