/*--------------------------------*- C++ -*----------------------------------*\
  =========                 |
  \\      /  F ield         | OpenFOAM: The Open Source CFD Toolbox
   \\    /   O peration     | Website:  https://openfoam.org
    \\  /    A nd           | Version:  7
     \\/     M anipulation  |
\*---------------------------------------------------------------------------*/
FoamFile
{
    version     2.0;
    format      ascii;
    class       volVectorField;
    location    "0.32";
    object      U;
}
// * * * * * * * * * * * * * * * * * * * * * * * * * * * * * * * * * * * * * //

dimensions      [0 1 -1 0 0 0 0];

internalField   nonuniform List<vector> 
70000
(
(0.553388 0.0167232 0)
(0.251243 0.00340131 0)
(0.166163 0.000322318 0)
(0.132394 5.45372e-05 0)
(0.117181 4.59665e-05 0)
(0.107236 5.41406e-05 0)
(0.099267 4.65093e-05 0)
(0.0928068 3.7177e-05 0)
(0.0875427 3.08717e-05 0)
(0.0831544 2.65544e-05 0)
(0.0794134 2.3268e-05 0)
(0.0761714 2.0639e-05 0)
(0.0733269 1.84988e-05 0)
(0.0708055 1.6734e-05 0)
(0.068551 1.52616e-05 0)
(0.0665198 1.40192e-05 0)
(0.0646774 1.29604e-05 0)
(0.0629965 1.20522e-05 0)
(0.0614547 1.12663e-05 0)
(0.0600339 1.05846e-05 0)
(0.0587187 9.98934e-06 0)
(0.0574966 9.4691e-06 0)
(0.0563568 9.01355e-06 0)
(0.0552901 8.6153e-06 0)
(0.0542886 8.26717e-06 0)
(0.0533455 7.96701e-06 0)
(0.0524548 7.70824e-06 0)
(0.051611 7.49289e-06 0)
(0.0508095 7.31566e-06 0)
(0.0500457 7.18205e-06 0)
(0.0493157 7.08684e-06 0)
(0.0486154 7.04494e-06 0)
(0.0479415 7.03959e-06 0)
(0.0472896 7.11659e-06 0)
(0.0466567 7.21686e-06 0)
(0.0460373 7.46237e-06 0)
(0.0454289 7.69278e-06 0)
(0.0448236 8.17732e-06 0)
(0.0442185 8.59821e-06 0)
(0.0436051 9.34399e-06 0)
(0.0429708 1.01585e-05 0)
(0.0423271 1.08975e-05 0)
(0.0416056 1.2655e-05 0)
(0.0409259 1.22907e-05 0)
(0.0400132 1.59232e-05 0)
(0.0393507 1.15224e-05 0)
(0.0381269 1.641e-05 0)
(0.0376019 4.2384e-06 0)
(0.0368327 -9.52215e-06 0)
(0.032627 -0.0013444 0)
(0.884897 0.0431684 0)
(0.649688 0.0201961 0)
(0.494246 0.0066009 0)
(0.403538 0.00277031 0)
(0.354562 0.00155475 0)
(0.323209 0.00113438 0)
(0.299301 0.000913191 0)
(0.280056 0.000749294 0)
(0.264298 0.000626471 0)
(0.251131 0.000535775 0)
(0.239907 0.000466968 0)
(0.230182 0.000412873 0)
(0.22165 0.000369214 0)
(0.214087 0.000333328 0)
(0.207325 0.000303406 0)
(0.201233 0.00027815 0)
(0.195708 0.000256603 0)
(0.190669 0.000238052 0)
(0.186049 0.00022195 0)
(0.181793 0.000207875 0)
(0.177856 0.000195497 0)
(0.1742 0.000184552 0)
(0.170793 0.00017483 0)
(0.167609 0.00016616 0)
(0.164623 0.000158405 0)
(0.161816 0.000151457 0)
(0.15917 0.000145225 0)
(0.156669 0.000139643 0)
(0.1543 0.000134654 0)
(0.15205 0.000130229 0)
(0.149908 0.000126331 0)
(0.147863 0.000122984 0)
(0.145907 0.000120147 0)
(0.144028 0.000117957 0)
(0.142219 0.000116286 0)
(0.140467 0.000115546 0)
(0.138766 0.000115331 0)
(0.137098 0.000116657 0)
(0.135457 0.000118462 0)
(0.133822 0.000122895 0)
(0.132164 0.000127725 0)
(0.130513 0.000136743 0)
(0.12869 0.000146094 0)
(0.127009 0.000160981 0)
(0.124726 0.000176111 0)
(0.12311 0.000193027 0)
(0.119941 0.000213 0)
(0.118498 0.00017268 0)
(0.115592 0.000311519 0)
(0.10876 -0.00264695 0)
(0.991238 0.0499033 0)
(0.890325 0.0307234 0)
(0.762608 0.014604 0)
(0.65653 0.00798651 0)
(0.585135 0.00489187 0)
(0.535661 0.00347822 0)
(0.497726 0.00274276 0)
(0.467041 0.00225047 0)
(0.441661 0.00188738 0)
(0.420287 0.00161588 0)
(0.401971 0.00140862 0)
(0.386046 0.00124562 0)
(0.372034 0.00111412 0)
(0.359585 0.001006 0)
(0.348433 0.0009158 0)
(0.33837 0.000839602 0)
(0.329234 0.000774536 0)
(0.320891 0.000718461 0)
(0.313236 0.000669733 0)
(0.306179 0.000627084 0)
(0.299649 0.000589511 0)
(0.293583 0.000556223 0)
(0.28793 0.000526581 0)
(0.282645 0.000500068 0)
(0.277691 0.000476263 0)
(0.273035 0.000454833 0)
(0.268648 0.000435492 0)
(0.264505 0.000418024 0)
(0.260584 0.000402246 0)
(0.256866 0.000388032 0)
(0.253332 0.000375264 0)
(0.249966 0.000363937 0)
(0.246754 0.000353952 0)
(0.24368 0.000345528 0)
(0.240733 0.000338452 0)
(0.237895 0.000333458 0)
(0.235158 0.000329887 0)
(0.232496 0.000329688 0)
(0.229904 0.000330834 0)
(0.227354 0.000338212 0)
(0.224806 0.000346032 0)
(0.222306 0.000366161 0)
(0.219599 0.000383043 0)
(0.21714 0.000423685 0)
(0.213866 0.000451787 0)
(0.211552 0.000512822 0)
(0.207112 0.000560315 0)
(0.204919 0.000505743 0)
(0.200435 0.000751881 0)
(0.193374 -0.00295279 0)
(1.0156 0.0489228 0)
(1.00594 0.035882 0)
(0.935891 0.0208022 0)
(0.851992 0.0135163 0)
(0.781973 0.00922027 0)
(0.726694 0.00679378 0)
(0.681532 0.00539605 0)
(0.643696 0.00445686 0)
(0.611602 0.00376315 0)
(0.584059 0.00323746 0)
(0.560131 0.00283142 0)
(0.53911 0.00250989 0)
(0.520466 0.00224934 0)
(0.503796 0.00203435 0)
(0.488783 0.00185439 0)
(0.475177 0.00170194 0)
(0.462778 0.00157144 0)
(0.451421 0.00145872 0)
(0.440972 0.00136056 0)
(0.43132 0.00127447 0)
(0.422369 0.00119848 0)
(0.414042 0.00113102 0)
(0.40627 0.00107083 0)
(0.398997 0.00101686 0)
(0.392172 0.00096829 0)
(0.385752 0.000924427 0)
(0.379701 0.000884703 0)
(0.373983 0.000848662 0)
(0.368572 0.000815925 0)
(0.36344 0.000786205 0)
(0.358564 0.000759254 0)
(0.353922 0.000734981 0)
(0.349498 0.000713206 0)
(0.345269 0.000694162 0)
(0.341223 0.000677581 0)
(0.337337 0.000664416 0)
(0.333603 0.000653852 0)
(0.329989 0.000648688 0)
(0.326492 0.000645924 0)
(0.323077 0.000653653 0)
(0.319704 0.000661321 0)
(0.316424 0.000692049 0)
(0.312949 0.000712909 0)
(0.309793 0.000783206 0)
(0.305776 0.000821027 0)
(0.302812 0.000935574 0)
(0.297645 0.00101645 0)
(0.294684 0.000957743 0)
(0.289324 0.0012643 0)
(0.282337 -0.00270786 0)
(1.01434 0.0460066 0)
(1.04752 0.0374973 0)
(1.02453 0.0241658 0)
(0.974652 0.0175764 0)
(0.923262 0.0131406 0)
(0.876405 0.0102246 0)
(0.834156 0.00836093 0)
(0.796324 0.00703963 0)
(0.762679 0.00602959 0)
(0.732783 0.00524198 0)
(0.706125 0.00462 0)
(0.682233 0.00411955 0)
(0.660706 0.00370921 0)
(0.641212 0.00336746 0)
(0.623472 0.00307921 0)
(0.607257 0.00283347 0)
(0.592371 0.00262196 0)
(0.578652 0.0024384 0)
(0.565962 0.00227791 0)
(0.554186 0.00213663 0)
(0.543222 0.00201152 0)
(0.532986 0.00190012 0)
(0.523403 0.00180042 0)
(0.514411 0.00171078 0)
(0.505953 0.00162988 0)
(0.49798 0.00155661 0)
(0.49045 0.00149004 0)
(0.483325 0.00142943 0)
(0.476572 0.00137415 0)
(0.470159 0.00132371 0)
(0.464061 0.00127769 0)
(0.458252 0.00123586 0)
(0.452712 0.00119796 0)
(0.447416 0.00116415 0)
(0.44235 0.00113415 0)
(0.437487 0.00110902 0)
(0.432822 0.00108787 0)
(0.428314 0.00107421 0)
(0.423967 0.00106412 0)
(0.419736 0.00106904 0)
(0.415589 0.00107313 0)
(0.411567 0.00111185 0)
(0.407397 0.00113359 0)
(0.403554 0.00123095 0)
(0.398947 0.00127852 0)
(0.395284 0.00144094 0)
(0.389718 0.00156421 0)
(0.385889 0.00150353 0)
(0.38012 0.00182985 0)
(0.372836 -0.00215163 0)
(1.00933 0.0429183 0)
(1.05527 0.0372739 0)
(1.05865 0.0253129 0)
(1.03629 0.0197805 0)
(1.00695 0.0158352 0)
(0.975822 0.0129606 0)
(0.944208 0.0109848 0)
(0.913251 0.00950261 0)
(0.883806 0.008312 0)
(0.856259 0.007344 0)
(0.830691 0.00655391 0)
(0.807038 0.00590173 0)
(0.785178 0.00535612 0)
(0.764969 0.00489432 0)
(0.746261 0.0044996 0)
(0.728913 0.00415933 0)
(0.712794 0.00386372 0)
(0.697784 0.00360512 0)
(0.683776 0.00337743 0)
(0.670674 0.0031758 0)
(0.658393 0.00299628 0)
(0.646858 0.00283565 0)
(0.636003 0.00269127 0)
(0.625767 0.00256094 0)
(0.616099 0.00244286 0)
(0.60695 0.00233552 0)
(0.598281 0.00223767 0)
(0.590052 0.00214823 0)
(0.58223 0.00206636 0)
(0.574785 0.00199132 0)
(0.567688 0.00192254 0)
(0.560915 0.00185962 0)
(0.554443 0.00180222 0)
(0.548248 0.00175039 0)
(0.542315 0.00170386 0)
(0.536613 0.0016637 0)
(0.531141 0.00162906 0)
(0.525853 0.00160401 0)
(0.520757 0.00158382 0)
(0.515802 0.00158308 0)
(0.510967 0.00158112 0)
(0.506269 0.00162442 0)
(0.501487 0.00164606 0)
(0.496987 0.00176439 0)
(0.491902 0.00182568 0)
(0.487522 0.00202361 0)
(0.481717 0.00219923 0)
(0.476999 0.00213599 0)
(0.471006 0.00246748 0)
(0.463136 -0.00136871 0)
(1.00625 0.0400371 0)
(1.05205 0.0363474 0)
(1.06606 0.0252442 0)
(1.05953 0.0205837 0)
(1.04675 0.0172668 0)
(1.0306 0.0146863 0)
(1.01163 0.012851 0)
(0.990855 0.0114262 0)
(0.969352 0.0102295 0)
(0.947853 0.0092135 0)
(0.926804 0.00835302 0)
(0.906469 0.00762034 0)
(0.886993 0.00699118 0)
(0.868448 0.00644677 0)
(0.850849 0.00597268 0)
(0.834184 0.00555744 0)
(0.818419 0.00519176 0)
(0.803511 0.00486809 0)
(0.78941 0.00458019 0)
(0.776065 0.00432295 0)
(0.763428 0.00409209 0)
(0.751449 0.00388407 0)
(0.740084 0.00369591 0)
(0.72929 0.00352509 0)
(0.719027 0.0033695 0)
(0.709259 0.00322738 0)
(0.699952 0.00309721 0)
(0.691075 0.00297773 0)
(0.6826 0.00286786 0)
(0.674499 0.00276673 0)
(0.66675 0.00267361 0)
(0.659329 0.00258797 0)
(0.652215 0.00250941 0)
(0.645386 0.00243786 0)
(0.638829 0.00237315 0)
(0.632514 0.00231625 0)
(0.62644 0.00226646 0)
(0.620561 0.00222828 0)
(0.61489 0.00219642 0)
(0.609369 0.00218803 0)
(0.603992 0.00217894 0)
(0.598747 0.00222365 0)
(0.593482 0.00224613 0)
(0.588426 0.00237875 0)
(0.582974 0.00245944 0)
(0.577962 0.00268057 0)
(0.571998 0.00291636 0)
(0.566519 0.00285361 0)
(0.560285 0.00318938 0)
(0.551955 -0.000337289 0)
(1.00495 0.0373595 0)
(1.04726 0.0352663 0)
(1.06395 0.024706 0)
(1.06419 0.0206128 0)
(1.06058 0.0178085 0)
(1.05459 0.0155341 0)
(1.04576 0.0139145 0)
(1.03449 0.0126553 0)
(1.02149 0.0115699 0)
(1.00737 0.0106174 0)
(0.992589 0.0097847 0)
(0.977504 0.00905464 0)
(0.962379 0.00841068 0)
(0.94741 0.00783982 0)
(0.932732 0.00733186 0)
(0.918438 0.00687839 0)
(0.904583 0.00647228 0)
(0.891203 0.00610744 0)
(0.878312 0.00577864 0)
(0.865914 0.0054814 0)
(0.854002 0.00521187 0)
(0.842567 0.00496671 0)
(0.831592 0.00474309 0)
(0.821062 0.00453853 0)
(0.810956 0.00435092 0)
(0.801257 0.00417844 0)
(0.791944 0.00401953 0)
(0.783 0.00387285 0)
(0.774405 0.00373727 0)
(0.766143 0.00361183 0)
(0.758195 0.00349577 0)
(0.750546 0.00338846 0)
(0.74318 0.00328955 0)
(0.736077 0.00319884 0)
(0.729231 0.00311633 0)
(0.722613 0.00304289 0)
(0.716225 0.00297806 0)
(0.710026 0.00292665 0)
(0.704028 0.00288311 0)
(0.698174 0.00286645 0)
(0.69247 0.00285068 0)
(0.68688 0.00289472 0)
(0.681315 0.00292022 0)
(0.675884 0.00306184 0)
(0.670212 0.0031673 0)
(0.664757 0.00340324 0)
(0.658704 0.00370139 0)
(0.652737 0.00365403 0)
(0.646169 0.00398742 0)
(0.637776 0.000958699 0)
(1.0044 0.0348119 0)
(1.04323 0.0341941 0)
(1.05991 0.0240666 0)
(1.06223 0.0203214 0)
(1.0624 0.0178758 0)
(1.06166 0.0158196 0)
(1.05903 0.0143743 0)
(1.05441 0.0132813 0)
(1.04812 0.012339 0)
(1.04046 0.0114992 0)
(1.03173 0.0107513 0)
(1.02218 0.0100823 0)
(1.01203 0.00947972 0)
(1.0015 0.00893411 0)
(0.990731 0.0084387 0)
(0.979867 0.00798798 0)
(0.969009 0.00757721 0)
(0.958235 0.00720222 0)
(0.947606 0.00685931 0)
(0.937165 0.00654517 0)
(0.926945 0.00625683 0)
(0.916968 0.00599167 0)
(0.907247 0.00574735 0)
(0.897791 0.00552179 0)
(0.888605 0.00531316 0)
(0.879688 0.00511985 0)
(0.871039 0.00494047 0)
(0.862653 0.00477377 0)
(0.854525 0.00461873 0)
(0.846648 0.00447442 0)
(0.839016 0.00434017 0)
(0.83162 0.00421535 0)
(0.824452 0.00409972 0)
(0.8175 0.00399304 0)
(0.810761 0.00389554 0)
(0.804213 0.00380805 0)
(0.797862 0.00373037 0)
(0.791671 0.00366761 0)
(0.785655 0.00361422 0)
(0.779761 0.00359039 0)
(0.774002 0.00356991 0)
(0.768331 0.00361288 0)
(0.762702 0.00364437 0)
(0.757144 0.00379215 0)
(0.751443 0.00392614 0)
(0.745808 0.00417458 0)
(0.739773 0.00452917 0)
(0.733654 0.004526 0)
(0.726788 0.00485037 0)
(0.718545 0.0024279 0)
(1.00402 0.0323722 0)
(1.0399 0.033145 0)
(1.05613 0.0234452 0)
(1.05887 0.0199356 0)
(1.06013 0.0177485 0)
(1.06143 0.0158278 0)
(1.06175 0.0144844 0)
(1.0608 0.0135071 0)
(1.05867 0.0126816 0)
(1.05547 0.0119482 0)
(1.0513 0.011294 0)
(1.04626 0.0107054 0)
(1.04049 0.0101699 0)
(1.03412 0.00967893 0)
(1.02726 0.00922672 0)
(1.02002 0.00880921 0)
(1.0125 0.00842308 0)
(1.00478 0.00806553 0)
(0.996944 0.00773408 0)
(0.989039 0.00742648 0)
(0.981117 0.00714072 0)
(0.973219 0.00687491 0)
(0.965376 0.00662739 0)
(0.957614 0.00639659 0)
(0.949954 0.00618114 0)
(0.942412 0.00597977 0)
(0.934999 0.0057914 0)
(0.927725 0.00561504 0)
(0.920596 0.00544985 0)
(0.913615 0.00529507 0)
(0.906787 0.00515021 0)
(0.90011 0.00501473 0)
(0.893586 0.00488859 0)
(0.887209 0.0047716 0)
(0.880981 0.00466421 0)
(0.87489 0.00456734 0)
(0.868942 0.00448106 0)
(0.863109 0.0044108 0)
(0.857407 0.00435119 0)
(0.851793 0.00432309 0)
(0.84628 0.00430132 0)
(0.840821 0.00434469 0)
(0.835395 0.00438567 0)
(0.82999 0.00453953 0)
(0.824487 0.00470383 0)
(0.818962 0.00496798 0)
(0.813119 0.00536902 0)
(0.807141 0.00543947 0)
(0.800242 0.00576613 0)
(0.79213 0.00397652 0)
(1.00364 0.0300321 0)
(1.03691 0.0320985 0)
(1.05279 0.0228571 0)
(1.05563 0.0195328 0)
(1.05704 0.0175596 0)
(1.05889 0.0157315 0)
(1.06029 0.0144362 0)
(1.06092 0.0135226 0)
(1.06086 0.0127713 0)
(1.06014 0.0121129 0)
(1.05876 0.0115316 0)
(1.05672 0.0110126 0)
(1.05408 0.0105419 0)
(1.05087 0.0101096 0)
(1.04716 0.00970961 0)
(1.04301 0.0093378 0)
(1.03848 0.00899105 0)
(1.03363 0.00866699 0)
(1.02852 0.00836364 0)
(1.02319 0.00807932 0)
(1.0177 0.00781255 0)
(1.01208 0.007562 0)
(1.00636 0.00732647 0)
(1.00058 0.00710484 0)
(0.994768 0.00689614 0)
(0.98894 0.00669945 0)
(0.983119 0.00651399 0)
(0.977321 0.00633904 0)
(0.971558 0.00617401 0)
(0.965843 0.00601835 0)
(0.960185 0.00587178 0)
(0.954591 0.00573391 0)
(0.949067 0.00560492 0)
(0.943614 0.00548473 0)
(0.93824 0.00537406 0)
(0.932938 0.00527398 0)
(0.927716 0.00518479 0)
(0.922557 0.00511235 0)
(0.917473 0.00505151 0)
(0.912434 0.00502346 0)
(0.90745 0.00500491 0)
(0.902483 0.00505172 0)
(0.897523 0.005106 0)
(0.892542 0.0052681 0)
(0.887471 0.00546339 0)
(0.882328 0.00574871 0)
(0.876896 0.00618899 0)
(0.871286 0.00635068 0)
(0.864713 0.00671793 0)
(0.856786 0.00553652 0)
(1.00327 0.0277928 0)
(1.03408 0.0310409 0)
(1.04968 0.0222956 0)
(1.05267 0.019128 0)
(1.05403 0.0173519 0)
(1.05595 0.0156059 0)
(1.05761 0.0143333 0)
(1.05878 0.0134506 0)
(1.05953 0.0127405 0)
(1.05992 0.0121262 0)
(1.05993 0.0115905 0)
(1.05954 0.0111187 0)
(1.05875 0.0106955 0)
(1.05755 0.01031 0)
(1.05597 0.00995505 0)
(1.05401 0.00962573 0)
(1.05172 0.00931854 0)
(1.04911 0.00903086 0)
(1.04623 0.00876064 0)
(1.04309 0.00850621 0)
(1.03973 0.00826623 0)
(1.03617 0.0080395 0)
(1.03245 0.00782504 0)
(1.02859 0.00762194 0)
(1.02461 0.00742942 0)
(1.02054 0.00724681 0)
(1.01638 0.00707352 0)
(1.01217 0.00690901 0)
(1.00791 0.00675291 0)
(1.00362 0.00660482 0)
(0.999303 0.00646466 0)
(0.99498 0.00633217 0)
(0.990656 0.00620774 0)
(0.986336 0.00609146 0)
(0.98203 0.00598422 0)
(0.977734 0.00588739 0)
(0.973459 0.00580135 0)
(0.969195 0.00573246 0)
(0.964951 0.00567589 0)
(0.960708 0.00565278 0)
(0.956472 0.00564237 0)
(0.952217 0.00569651 0)
(0.947934 0.00576789 0)
(0.943596 0.00594157 0)
(0.939159 0.00616828 0)
(0.934614 0.00647984 0)
(0.9298 0.00695687 0)
(0.924743 0.00721756 0)
(0.918781 0.00766919 0)
(0.911275 0.00706478 0)
(1.00292 0.0256574 0)
(1.03137 0.0299676 0)
(1.04667 0.0217563 0)
(1.04988 0.0187213 0)
(1.05122 0.0171322 0)
(1.05309 0.0154734 0)
(1.05479 0.0142169 0)
(1.05607 0.0133503 0)
(1.05706 0.0126639 0)
(1.05784 0.012074 0)
(1.05842 0.0115635 0)
(1.05877 0.0111189 0)
(1.05888 0.0107249 0)
(1.05875 0.0103699 0)
(1.05837 0.0100462 0)
(1.05774 0.0097482 0)
(1.05687 0.00947199 0)
(1.05576 0.00921449 0)
(1.05442 0.00897335 0)
(1.05286 0.00874669 0)
(1.05111 0.00853298 0)
(1.04916 0.00833097 0)
(1.04704 0.00813961 0)
(1.04477 0.00795799 0)
(1.04235 0.00778539 0)
(1.0398 0.00762115 0)
(1.03714 0.00746476 0)
(1.03438 0.00731578 0)
(1.03152 0.00717391 0)
(1.02859 0.00703886 0)
(1.02559 0.00691063 0)
(1.02254 0.0067891 0)
(1.01943 0.00667479 0)
(1.01628 0.00656793 0)
(1.01309 0.00646951 0)
(1.00987 0.00638124 0)
(1.00663 0.00630352 0)
(1.00335 0.00624317 0)
(1.00005 0.00619574 0)
(0.996708 0.00618204 0)
(0.993336 0.00618419 0)
(0.989913 0.00624941 0)
(0.986431 0.00634113 0)
(0.982867 0.00652977 0)
(0.979193 0.00678808 0)
(0.975384 0.00712974 0)
(0.971326 0.00764364 0)
(0.96696 0.00800699 0)
(0.961774 0.0085769 0)
(0.954965 0.00852247 0)
(1.0026 0.0236287 0)
(1.02878 0.0288774 0)
(1.04376 0.021238 0)
(1.04719 0.0183125 0)
(1.04854 0.0168991 0)
(1.05037 0.0153365 0)
(1.05206 0.0140979 0)
(1.05335 0.0132428 0)
(1.05438 0.0125734 0)
(1.05525 0.0119992 0)
(1.056 0.0115029 0)
(1.05662 0.0110731 0)
(1.0571 0.0106953 0)
(1.05744 0.0103579 0)
(1.05763 0.0100528 0)
(1.05768 0.00977445 0)
(1.05757 0.00951856 0)
(1.05731 0.00928184 0)
(1.0569 0.00906168 0)
(1.05633 0.00885598 0)
(1.05561 0.00866304 0)
(1.05475 0.00848143 0)
(1.05374 0.00830996 0)
(1.05261 0.00814765 0)
(1.05134 0.00799367 0)
(1.04996 0.00784733 0)
(1.04846 0.00770808 0)
(1.04685 0.00757546 0)
(1.04515 0.00744918 0)
(1.04335 0.00732897 0)
(1.04147 0.00721486 0)
(1.03951 0.0071068 0)
(1.03748 0.00700532 0)
(1.03538 0.00691084 0)
(1.03322 0.00682435 0)
(1.031 0.00674786 0)
(1.02873 0.00668174 0)
(1.0264 0.00663322 0)
(1.02401 0.00659828 0)
(1.02156 0.0065971 0)
(1.01905 0.00661493 0)
(1.01647 0.00669402 0)
(1.01381 0.00680808 0)
(1.01105 0.00701433 0)
(1.00817 0.00730367 0)
(1.00514 0.00767797 0)
(1.00189 0.00822919 0)
(0.998277 0.00869714 0)
(0.993926 0.00940648 0)
(0.987994 0.00986691 0)
(1.0023 0.0217085 0)
(1.02633 0.027771 0)
(1.04093 0.020739 0)
(1.04458 0.0179032 0)
(1.04595 0.0166514 0)
(1.04775 0.0151937 0)
(1.04944 0.0139777 0)
(1.05072 0.0131332 0)
(1.05174 0.012479 0)
(1.05262 0.0119179 0)
(1.0534 0.0114317 0)
(1.05408 0.0110111 0)
(1.05468 0.0106427 0)
(1.05518 0.0103151 0)
(1.0556 0.0100205 0)
(1.05593 0.0097533 0)
(1.05618 0.00950926 0)
(1.05633 0.00928506 0)
(1.05639 0.009078 0)
(1.05635 0.00888589 0)
(1.05622 0.00870693 0)
(1.05598 0.00853957 0)
(1.05566 0.00838255 0)
(1.05523 0.00823477 0)
(1.05471 0.00809531 0)
(1.0541 0.00796342 0)
(1.05339 0.00783848 0)
(1.0526 0.00771997 0)
(1.05172 0.00760758 0)
(1.05076 0.00750101 0)
(1.04972 0.00740027 0)
(1.0486 0.00730534 0)
(1.04741 0.00721673 0)
(1.04615 0.007135 0)
(1.04482 0.00706106 0)
(1.04342 0.00699725 0)
(1.04196 0.00694386 0)
(1.04043 0.00690837 0)
(1.03883 0.00688735 0)
(1.03716 0.00690001 0)
(1.03542 0.00693489 0)
(1.0336 0.00702918 0)
(1.03168 0.007166 0)
(1.02966 0.00739125 0)
(1.02752 0.00771004 0)
(1.02522 0.00811805 0)
(1.02272 0.0087065 0)
(1.01985 0.0092787 0)
(1.01631 0.0101378 0)
(1.01131 0.0110664 0)
(1.00203 0.0198976 0)
(1.02401 0.0266517 0)
(1.03819 0.0202563 0)
(1.04206 0.0174953 0)
(1.04345 0.016389 0)
(1.04523 0.0150436 0)
(1.04692 0.0138557 0)
(1.04819 0.0130219 0)
(1.0492 0.0123828 0)
(1.05007 0.0118347 0)
(1.05084 0.0113576 0)
(1.05152 0.0109443 0)
(1.05214 0.0105825 0)
(1.05268 0.0102614 0)
(1.05317 0.00997316 0)
(1.0536 0.00971246 0)
(1.05397 0.00947519 0)
(1.05429 0.0092581 0)
(1.05455 0.00905856 0)
(1.05475 0.00887443 0)
(1.0549 0.00870388 0)
(1.05499 0.00854536 0)
(1.05501 0.00839757 0)
(1.05498 0.00825936 0)
(1.05488 0.00812978 0)
(1.05471 0.00800803 0)
(1.05449 0.00789345 0)
(1.0542 0.00778548 0)
(1.05384 0.00768377 0)
(1.05342 0.00758799 0)
(1.05294 0.00749814 0)
(1.05239 0.0074142 0)
(1.05178 0.00733666 0)
(1.05111 0.00726618 0)
(1.05038 0.0072036 0)
(1.04959 0.0071515 0)
(1.04873 0.00711014 0)
(1.04781 0.00708713 0)
(1.04682 0.00707971 0)
(1.04576 0.00710589 0)
(1.04462 0.00715752 0)
(1.0434 0.00726691 0)
(1.0421 0.00742538 0)
(1.04069 0.00766972 0)
(1.03916 0.0080154 0)
(1.03749 0.00845682 0)
(1.03562 0.00908165 0)
(1.0334 0.00975506 0)
(1.03058 0.0107653 0)
(1.02647 0.0121071 0)
(1.00179 0.0181961 0)
(1.02182 0.0255232 0)
(1.03555 0.019786 0)
(1.03962 0.0170906 0)
(1.04105 0.0161127 0)
(1.04279 0.0148853 0)
(1.04447 0.0137312 0)
(1.04576 0.0129086 0)
(1.04675 0.0122847 0)
(1.0476 0.0117502 0)
(1.04836 0.0112825 0)
(1.04904 0.0108761 0)
(1.04964 0.0105203 0)
(1.05018 0.0102045 0)
(1.05068 0.00992104 0)
(1.05113 0.00966482 0)
(1.05153 0.00943188 0)
(1.0519 0.00921912 0)
(1.05223 0.00902403 0)
(1.05253 0.00884452 0)
(1.05279 0.00867884 0)
(1.05301 0.00852549 0)
(1.0532 0.00838317 0)
(1.05334 0.00825077 0)
(1.05345 0.00812734 0)
(1.05351 0.00801205 0)
(1.05354 0.00790426 0)
(1.05352 0.00780339 0)
(1.05345 0.00770907 0)
(1.05334 0.00762099 0)
(1.05319 0.0075391 0)
(1.05299 0.00746345 0)
(1.05274 0.00739445 0)
(1.05244 0.00733291 0)
(1.05209 0.00727958 0)
(1.05169 0.00723725 0)
(1.05124 0.00720622 0)
(1.05073 0.00719405 0)
(1.05016 0.00719879 0)
(1.04952 0.00723712 0)
(1.04882 0.00730402 0)
(1.04804 0.00742741 0)
(1.04718 0.00760536 0)
(1.04623 0.00786784 0)
(1.04517 0.00823722 0)
(1.04397 0.00871067 0)
(1.0426 0.00937042 0)
(1.0409 0.0101395 0)
(1.03867 0.011295 0)
(1.03535 0.0129908 0)
(1.00157 0.0166039 0)
(1.01978 0.0243895 0)
(1.03302 0.0193242 0)
(1.03727 0.0166908 0)
(1.03873 0.0158238 0)
(1.04044 0.0147181 0)
(1.04212 0.0136041 0)
(1.0434 0.0127932 0)
(1.04439 0.0121844 0)
(1.04523 0.0116642 0)
(1.04598 0.0112065 0)
(1.04664 0.0108073 0)
(1.04723 0.0104574 0)
(1.04776 0.0101467 0)
(1.04825 0.00986764 0)
(1.04869 0.00961526 0)
(1.0491 0.00938576 0)
(1.04948 0.0091762 0)
(1.04982 0.00898416 0)
(1.05014 0.00880767 0)
(1.05043 0.00864504 0)
(1.0507 0.00849486 0)
(1.05094 0.00835586 0)
(1.05116 0.00822698 0)
(1.05135 0.0081073 0)
(1.05151 0.00799602 0)
(1.05165 0.00789249 0)
(1.05176 0.00779619 0)
(1.05184 0.00770674 0)
(1.05188 0.00762384 0)
(1.0519 0.00754746 0)
(1.05188 0.00747769 0)
(1.05182 0.00741492 0)
(1.05173 0.00736006 0)
(1.0516 0.00731385 0)
(1.05143 0.0072792 0)
(1.05122 0.00725654 0)
(1.05096 0.00725328 0)
(1.05064 0.00726837 0)
(1.05028 0.00731707 0)
(1.04985 0.00739727 0)
(1.04936 0.00753308 0)
(1.0488 0.00772792 0)
(1.04815 0.00800703 0)
(1.04741 0.00839683 0)
(1.04655 0.00890024 0)
(1.04553 0.00959316 0)
(1.04422 0.0104506 0)
(1.04246 0.0117395 0)
(1.0398 0.0137293 0)
(1.00137 0.0151199 0)
(1.01787 0.0232546 0)
(1.03059 0.0188668 0)
(1.035 0.0162975 0)
(1.03652 0.0155238 0)
(1.03818 0.0145414 0)
(1.03985 0.013474 0)
(1.04114 0.0126758 0)
(1.04212 0.0120819 0)
(1.04295 0.0115766 0)
(1.04368 0.0111294 0)
(1.04433 0.0107377 0)
(1.04491 0.010394 0)
(1.04544 0.0100885 0)
(1.04591 0.00981387 0)
(1.04634 0.00956523 0)
(1.04674 0.00933898 0)
(1.04711 0.00913227 0)
(1.04745 0.00894282 0)
(1.04777 0.00876873 0)
(1.04806 0.00860841 0)
(1.04834 0.0084605 0)
(1.04859 0.00832381 0)
(1.04883 0.00819731 0)
(1.04905 0.00808012 0)
(1.04924 0.00797149 0)
(1.04942 0.00787079 0)
(1.04958 0.00777754 0)
(1.04971 0.00769137 0)
(1.04982 0.00761203 0)
(1.04991 0.00753949 0)
(1.04998 0.00747391 0)
(1.05001 0.00741567 0)
(1.05002 0.0073658 0)
(1.05 0.00732501 0)
(1.04995 0.00729635 0)
(1.04986 0.00728041 0)
(1.04974 0.00728439 0)
(1.04957 0.00730814 0)
(1.04936 0.00736559 0)
(1.04909 0.00745714 0)
(1.04877 0.00760383 0)
(1.04838 0.00781308 0)
(1.04793 0.00810722 0)
(1.04739 0.00851446 0)
(1.04675 0.00904546 0)
(1.04597 0.00976965 0)
(1.04493 0.0107068 0)
(1.04351 0.0121136 0)
(1.04141 0.0143384 0)
(1.00119 0.0137425 0)
(1.01609 0.0221226 0)
(1.02827 0.0184102 0)
(1.03283 0.0159118 0)
(1.03439 0.0152142 0)
(1.03601 0.0143547 0)
(1.03767 0.0133404 0)
(1.03896 0.0125564 0)
(1.03995 0.0119771 0)
(1.04076 0.0114871 0)
(1.04148 0.0110512 0)
(1.04212 0.0106674 0)
(1.04269 0.01033 0)
(1.0432 0.0100299 0)
(1.04366 0.00975985 0)
(1.04409 0.00951505 0)
(1.04447 0.00929206 0)
(1.04483 0.00908818 0)
(1.04516 0.00890122 0)
(1.04547 0.00872938 0)
(1.04576 0.00857115 0)
(1.04603 0.00842522 0)
(1.04628 0.00829045 0)
(1.04652 0.00816587 0)
(1.04674 0.00805064 0)
(1.04694 0.00794404 0)
(1.04712 0.00784549 0)
(1.04729 0.00775453 0)
(1.04744 0.00767082 0)
(1.04758 0.00759416 0)
(1.04769 0.00752453 0)
(1.04779 0.00746216 0)
(1.04786 0.00740743 0)
(1.04791 0.00736148 0)
(1.04794 0.00732505 0)
(1.04794 0.00730124 0)
(1.04791 0.00729088 0)
(1.04785 0.00730088 0)
(1.04775 0.00733203 0)
(1.04761 0.007397 0)
(1.04743 0.00749833 0)
(1.0472 0.00765466 0)
(1.04692 0.00787621 0)
(1.04657 0.00818397 0)
(1.04615 0.00860625 0)
(1.04565 0.00916233 0)
(1.04501 0.00991587 0)
(1.04417 0.0109233 0)
(1.04301 0.0124297 0)
(1.04136 0.014833 0)
(1.00104 0.0124696 0)
(1.01445 0.0209978 0)
(1.02605 0.0179509 0)
(1.03073 0.0155345 0)
(1.03236 0.0148972 0)
(1.03394 0.0141574 0)
(1.03558 0.0132027 0)
(1.03688 0.0124351 0)
(1.03786 0.01187 0)
(1.03867 0.0113957 0)
(1.03938 0.0109717 0)
(1.04001 0.0105963 0)
(1.04056 0.0102654 0)
(1.04106 0.0099709 0)
(1.04151 0.00970555 0)
(1.04193 0.00946471 0)
(1.0423 0.00924508 0)
(1.04265 0.00904409 0)
(1.04297 0.00885967 0)
(1.04327 0.0086901 0)
(1.04355 0.00853392 0)
(1.04381 0.00838991 0)
(1.04405 0.00825698 0)
(1.04428 0.00813419 0)
(1.0445 0.00802074 0)
(1.04469 0.00791596 0)
(1.04487 0.0078193 0)
(1.04504 0.00773032 0)
(1.04519 0.00764873 0)
(1.04533 0.00757436 0)
(1.04545 0.00750722 0)
(1.04555 0.00744758 0)
(1.04563 0.00739586 0)
(1.0457 0.00735326 0)
(1.04574 0.0073206 0)
(1.04576 0.00730098 0)
(1.04575 0.00729553 0)
(1.04571 0.00731083 0)
(1.04565 0.00734854 0)
(1.04554 0.00742022 0)
(1.0454 0.00753019 0)
(1.04522 0.00769526 0)
(1.04499 0.00792751 0)
(1.0447 0.00824767 0)
(1.04435 0.00868318 0)
(1.04393 0.0092618 0)
(1.0434 0.0100426 0)
(1.04269 0.0111103 0)
(1.04174 0.0126965 0)
(1.04047 0.015225 0)
(1.0009 0.0112982 0)
(1.01294 0.0198845 0)
(1.02396 0.017486 0)
(1.02873 0.0151661 0)
(1.03043 0.0145747 0)
(1.03196 0.0139495 0)
(1.03358 0.0130605 0)
(1.03488 0.0123119 0)
(1.03586 0.0117606 0)
(1.03666 0.0113023 0)
(1.03736 0.0108909 0)
(1.03798 0.0105242 0)
(1.03853 0.0102001 0)
(1.03902 0.00991137 0)
(1.03946 0.00965091 0)
(1.03986 0.00941417 0)
(1.04023 0.00919801 0)
(1.04056 0.00900001 0)
(1.04088 0.0088182 0)
(1.04117 0.00865094 0)
(1.04144 0.00849687 0)
(1.04169 0.00835481 0)
(1.04192 0.00822372 0)
(1.04214 0.00810272 0)
(1.04235 0.00799104 0)
(1.04254 0.00788804 0)
(1.04271 0.0077932 0)
(1.04287 0.00770614 0)
(1.04302 0.00762656 0)
(1.04315 0.00755435 0)
(1.04326 0.00748953 0)
(1.04336 0.00743245 0)
(1.04345 0.00738352 0)
(1.04351 0.00734403 0)
(1.04355 0.00731487 0)
(1.04357 0.00729913 0)
(1.04357 0.00729824 0)
(1.04355 0.00731843 0)
(1.04349 0.00736218 0)
(1.0434 0.00744009 0)
(1.04328 0.00755788 0)
(1.04312 0.00773105 0)
(1.04291 0.0079728 0)
(1.04267 0.00830428 0)
(1.04236 0.00875165 0)
(1.04199 0.00935019 0)
(1.04152 0.0101555 0)
(1.04094 0.0112733 0)
(1.04016 0.0129188 0)
(1.03923 0.0155224 0)
(1.00078 0.0102247 0)
(1.01156 0.0187872 0)
(1.02197 0.0170126 0)
(1.02681 0.0148066 0)
(1.02858 0.0142488 0)
(1.03008 0.0137309 0)
(1.03167 0.012913 0)
(1.03297 0.0121866 0)
(1.03395 0.011649 0)
(1.03474 0.0112067 0)
(1.03543 0.0108085 0)
(1.03605 0.010451 0)
(1.03659 0.0101341 0)
(1.03707 0.00985125 0)
(1.0375 0.00959585 0)
(1.03789 0.00936337 0)
(1.03825 0.0091508 0)
(1.03858 0.00895588 0)
(1.03888 0.00877676 0)
(1.03916 0.00861189 0)
(1.03942 0.00845999 0)
(1.03966 0.00831993 0)
(1.03989 0.00819074 0)
(1.0401 0.00807156 0)
(1.0403 0.00796168 0)
(1.04048 0.00786048 0)
(1.04065 0.00776749 0)
(1.0408 0.00768234 0)
(1.04094 0.00760478 0)
(1.04106 0.00753471 0)
(1.04117 0.0074722 0)
(1.04126 0.00741762 0)
(1.04134 0.00737143 0)
(1.0414 0.00733496 0)
(1.04144 0.0073092 0)
(1.04146 0.0072972 0)
(1.04146 0.00730068 0)
(1.04143 0.00732555 0)
(1.04138 0.00737501 0)
(1.0413 0.00745886 0)
(1.04118 0.00758386 0)
(1.04104 0.00776464 0)
(1.04085 0.00801494 0)
(1.04062 0.0083567 0)
(1.04034 0.00881477 0)
(1.04002 0.00943047 0)
(1.03962 0.010257 0)
(1.03913 0.011414 0)
(1.03852 0.0130983 0)
(1.03789 0.0157306 0)
(1.00067 0.00924525 0)
(1.0103 0.0177104 0)
(1.0201 0.0165285 0)
(1.02498 0.0144558 0)
(1.02682 0.0139216 0)
(1.02829 0.013502 0)
(1.02984 0.0127597 0)
(1.03115 0.0120591 0)
(1.03213 0.0115352 0)
(1.03292 0.0111088 0)
(1.0336 0.0107244 0)
(1.0342 0.0103767 0)
(1.03473 0.0100672 0)
(1.03521 0.00979048 0)
(1.03563 0.00954031 0)
(1.03601 0.00931223 0)
(1.03636 0.00910338 0)
(1.03668 0.00891165 0)
(1.03698 0.0087353 0)
(1.03725 0.00857291 0)
(1.0375 0.00842324 0)
(1.03774 0.00828525 0)
(1.03795 0.008158 0)
(1.03816 0.0080407 0)
(1.03835 0.00793266 0)
(1.03852 0.00783332 0)
(1.03868 0.00774222 0)
(1.03883 0.00765902 0)
(1.03896 0.0075835 0)
(1.03907 0.00751561 0)
(1.03918 0.00745541 0)
(1.03926 0.00740335 0)
(1.03934 0.00735991 0)
(1.03939 0.00732644 0)
(1.03943 0.00730404 0)
(1.03944 0.00729571 0)
(1.03944 0.00730346 0)
(1.03941 0.0073329 0)
(1.03936 0.00738782 0)
(1.03928 0.00747737 0)
(1.03917 0.00760909 0)
(1.03903 0.00779702 0)
(1.03885 0.00805507 0)
(1.03865 0.00840599 0)
(1.0384 0.00887355 0)
(1.03812 0.00950349 0)
(1.03777 0.0103471 0)
(1.03738 0.011532 0)
(1.03692 0.013235 0)
(1.03658 0.0158534 0)
(1.00058 0.00835507 0)
(1.00916 0.0166583 0)
(1.01834 0.0160322 0)
(1.02323 0.0141131 0)
(1.02515 0.0135951 0)
(1.02659 0.0132632 0)
(1.02811 0.0125999 0)
(1.02941 0.0119293 0)
(1.03039 0.0114193 0)
(1.03118 0.0110086 0)
(1.03185 0.0106385 0)
(1.03245 0.0103012 0)
(1.03297 0.0099993 0)
(1.03344 0.00972896 0)
(1.03385 0.0094842 0)
(1.03423 0.00926068 0)
(1.03457 0.00905568 0)
(1.03488 0.00886724 0)
(1.03517 0.00869377 0)
(1.03543 0.00853392 0)
(1.03568 0.00838656 0)
(1.0359 0.0082507 0)
(1.03611 0.00812547 0)
(1.03631 0.0080101 0)
(1.03649 0.00790396 0)
(1.03666 0.00780652 0)
(1.03681 0.00771735 0)
(1.03695 0.00763615 0)
(1.03708 0.00756272 0)
(1.03719 0.00749704 0)
(1.03728 0.00743921 0)
(1.03737 0.00738968 0)
(1.03743 0.007349 0)
(1.03748 0.00731853 0)
(1.03751 0.00729949 0)
(1.03753 0.0072948 0)
(1.03752 0.00730674 0)
(1.03749 0.00734065 0)
(1.03744 0.0074008 0)
(1.03736 0.00749584 0)
(1.03725 0.00763382 0)
(1.03712 0.00782838 0)
(1.03696 0.00809342 0)
(1.03677 0.00845228 0)
(1.03655 0.00892798 0)
(1.0363 0.00956894 0)
(1.03601 0.0104249 0)
(1.03572 0.0116259 0)
(1.03542 0.0133279 0)
(1.03533 0.0158949 0)
(1.0005 0.00754916 0)
(1.00812 0.0156353 0)
(1.0167 0.0155224 0)
(1.02156 0.0137776 0)
(1.02357 0.0132709 0)
(1.02498 0.0130154 0)
(1.02646 0.0124331 0)
(1.02776 0.0117969 0)
(1.02874 0.0113013 0)
(1.02952 0.0109059 0)
(1.03019 0.0105507 0)
(1.03078 0.0102243 0)
(1.0313 0.00993041 0)
(1.03175 0.00966661 0)
(1.03216 0.00942743 0)
(1.03253 0.00920864 0)
(1.03286 0.00900763 0)
(1.03317 0.0088226 0)
(1.03345 0.00865209 0)
(1.03371 0.00849488 0)