/*--------------------------------*- C++ -*----------------------------------*\
  =========                 |
  \\      /  F ield         | OpenFOAM: The Open Source CFD Toolbox
   \\    /   O peration     | Website:  https://openfoam.org
    \\  /    A nd           | Version:  7
     \\/     M anipulation  |
\*---------------------------------------------------------------------------*/
FoamFile
{
    version     2.0;
    format      ascii;
    class       volScalarField;
    location    "0.32";
    object      yPlus;
}
// * * * * * * * * * * * * * * * * * * * * * * * * * * * * * * * * * * * * * //

dimensions      [0 0 0 0 0 0 0];

internalField   uniform 0;

boundaryField
{
    velocityInlet
    {
        type            calculated;
        value           uniform 0;
    }
    pressureOutlet
    {
        type            calculated;
        value           uniform 0;
    }
    fixedWalls
    {
        type            calculated;
        value           nonuniform List<scalar> 
100
(
1.96054
1.54249
0.677586
0.536924
0.41879
0.288667
0.631996
0.720659
0.859557
0.872251
0.771746
0.284666
0.835098
1.22186
1.42294
1.47962
1.44452
1.33015
1.07213
0.625095
0.514649
0.848547
1.00214
1.06348
1.05944
0.992695
0.857718
0.619471
0.218874
0.70518
0.966378
1.14439
1.25874
1.31547
1.31801
1.26994
1.17482
1.03841
0.8661
0.655812
0.378539
0.312209
0.5343
0.653225
0.72609
0.770985
0.797163
0.810447
0.815109
0.814948
0.813587
0.81359
0.814861
0.815753
0.819117
0.836601
0.881275
0.952376
1.03275
1.0992
1.12719
1.0886
0.950678
0.653302
0.40422
0.829846
1.00721
1.02995
0.911759
0.64901
0.208604
0.674985
0.881842
1.00788
1.09802
1.17504
1.24807
1.31216
1.34872
1.33448
1.25142
1.0878
0.822074
0.335289
0.647815
0.907236
1.02146
1.0286
0.94514
0.78422
0.544536
0.114532
0.452136
0.548399
0.539776
0.477989
0.457707
0.571478
0.698113
0.933269
)
;
    }
    bottomWall
    {
        type            calculated;
        value           nonuniform List<scalar> 
800
(
2.94479
1.98393
1.61352
1.44048
1.35543
1.29688
1.24803
1.20701
1.17256
1.14309
1.11737
1.09463
1.0743
1.05599
1.03938
1.02421
1.0103
0.997462
0.98558
0.974539
0.964245
0.954621
0.945597
0.937116
0.929126
0.921585
0.914452
0.907696
0.901283
0.895189
0.889388
0.88386
0.878585
0.873545
0.868725
0.86411
0.859687
0.855445
0.851371
0.847456
0.843691
0.840068
0.836579
0.833215
0.829971
0.82684
0.823816
0.820896
0.81807
0.81534
0.81305
0.811154
0.809279
0.807429
0.805603
0.803801
0.802022
0.800264
0.798528
0.796814
0.795119
0.793446
0.791792
0.790157
0.788542
0.786947
0.785368
0.783807
0.782264
0.780739
0.77923
0.777738
0.776262
0.774802
0.773357
0.771928
0.770515
0.769115
0.76773
0.766359
0.765002
0.763659
0.762329
0.761012
0.759708
0.758417
0.757138
0.755871
0.754617
0.753373
0.752142
0.750922
0.749713
0.748515
0.747327
0.74615
0.744984
0.743828
0.742683
0.741546
0.74042
0.739303
0.738195
0.737096
0.736007
0.734927
0.733855
0.732792
0.731738
0.730691
0.729654
0.728624
0.727602
0.726588
0.725581
0.724583
0.723591
0.722607
0.721631
0.720661
0.719699
0.718743
0.717793
0.716851
0.715915
0.714986
0.714063
0.713145
0.712234
0.71133
0.710431
0.709539
0.708652
0.70777
0.706895
0.706024
0.705159
0.7043
0.703445
0.702596
0.701753
0.700914
0.70008
0.699252
0.698428
0.697609
0.696795
0.695985
0.69518
0.69438
0.693707
0.693156
0.692604
0.692048
0.691492
0.690934
0.690375
0.689813
0.68925
0.688685
0.688118
0.68755
0.68698
0.686408
0.685835
0.68526
0.684683
0.684105
0.683524
0.682942
0.682359
0.681773
0.681186
0.680597
0.680007
0.679416
0.678822
0.678226
0.677629
0.67703
0.67643
0.675828
0.675225
0.67462
0.674013
0.673404
0.672795
0.672183
0.67157
0.670956
0.67034
0.669723
0.669104
0.668483
0.667861
0.667238
0.666613
0.665987
0.665358
0.664729
0.664099
0.663466
0.662833
0.662199
0.661563
0.660926
0.660287
0.659648
0.659006
0.658364
0.657721
0.657077
0.656431
0.655784
0.655136
0.654487
0.653837
0.653186
0.652533
0.65188
0.651226
0.650572
0.649915
0.649258
0.648599
0.647941
0.64728
0.64662
0.645958
0.645294
0.64463
0.643964
0.6433
0.64263
0.641966
0.641289
0.640629
0.639941
0.639292
0.63858
0.637956
0.637197
0.636633
0.635782
0.635332
0.634315
0.634068
0.632792
0.632838
0.631215
2.94478
1.98384
1.61327
1.44004
1.35478
1.29601
1.24693
1.20567
1.17098
1.14125
1.11529
1.09228
1.0717
1.05311
1.03621
1.02074
1.0065
0.99334
0.981109
0.969701
0.95902
0.948988
0.939534
0.9306
0.922134
0.914089
0.906426
0.899106
0.892097
0.885366
0.878885
0.872623
0.866553
0.860642
0.854863
0.84917
0.84354
0.837901
0.832227
0.826434
0.820401
0.814233
0.807264
0.800643
0.791665
0.785083
0.772779
0.76744
0.759551
0.715182
0.450929
1.13463
1.57901
1.76421
1.76682
1.6769
1.59874
1.56999
1.58955
1.65245
1.75293
1.8864
2.04675
2.22846
2.42677
2.63726
2.85575
3.07815
3.30055
3.51937
3.73145
3.93408
4.12503
4.30257
4.46555
4.61327
4.74545
4.86213
4.96366
5.05061
5.12374
5.18393
5.23212
5.26931
5.29643
5.31437
5.32389
5.32566
5.32002
5.30747
5.28827
5.26245
5.22996
5.19061
5.14406
5.0899
5.02771
4.95692
4.87689
4.78695
4.68642
4.57469
4.45116
4.31548
4.16765
4.00821
3.83825
3.65959
3.47457
3.28589
3.09627
2.90822
2.7238
2.54452
2.37128
2.20425
2.04298
1.88617
1.73175
1.57563
1.40578
1.21185
0.977625
0.732989
0.806251
1.03485
1.18938
1.25062
1.22668
1.124
0.945524
0.739997
0.736069
0.845362
0.879661
0.849718
0.801627
0.736981
0.622534
0.448816
0.159255
0.395542
0.588416
0.755634
0.917642
1.08062
1.24827
1.42318
1.60608
1.79535
1.98717
2.17663
2.35884
2.52947
2.68492
2.82221
2.93903
3.03378
3.1056
3.15426
3.17986
3.18259
3.16295
3.12193
3.06059
2.98013
2.88191
2.76738
2.6382
2.49631
2.34405
2.18421
2.02012
1.85364
1.68651
1.52127
1.3614
1.213
1.09089
1.0132
0.989221
1.01105
1.05382
1.08678
1.09848
1.14336
1.30899
1.55496
1.7987
2.01842
2.21778
2.40273
2.57582
2.73796
2.8897
3.0324
3.16724
3.29295
3.40972
3.51784
3.61753
3.709
3.79244
3.8681
3.93618
3.99686
4.05027
4.09658
4.13591
4.16835
4.194
4.21511
4.2314
4.24152
4.24552
4.24347
4.23594
4.22268
4.20364
4.17874
4.14788
4.11094
4.06782
4.01838
3.96246
3.89996
3.83073
3.75465
3.67163
3.58161
3.48457
3.38056
3.26972
3.15228
3.02854
2.89897
2.76673
2.63578
2.50006
2.36053
2.21872
2.07643
1.9351
1.7944
1.64829
1.48265
1.28151
1.01844
1.20649
1.86699
0.399099
1.09435
1.44967
1.59617
1.63322
1.63974
1.6275
1.66855
1.8464
2.07736
2.1589
1.97186
1.51642
1.03944
1.34595
1.57291
1.75506
2.02567
2.39529
2.79894
3.1582
3.44619
3.66941
3.84761
4.03858
4.14655
4.17242
4.13467
4.03585
3.89195
3.67045
3.48064
3.4242
3.5357
3.78772
4.1085
4.45306
4.79261
5.10283
5.35962
5.53964
5.62144
5.63437
5.55936
5.30777
4.81377
3.96366
2.76629
2.70474
3.77596
4.6493
5.11895
5.24252
5.17328
5.01756
4.77345
4.50125
4.20928
3.87154
3.45502
2.9148
2.20274
1.83292
2.70229
3.5935
4.35894
5.02218
5.595
6.07923
6.46802
6.75886
6.93759
7.01008
6.94802
6.74912
6.3781
5.80309
5.00861
3.98592
2.73762
1.8995
2.88363
3.68225
3.87391
3.51443
3.08383
2.88205
3.10301
3.60885
4.18499
4.65243
4.92621
4.96628
4.81512
4.53106
4.08619
3.47277
2.68184
1.56333
0.992017
1.12085
0.659588
2.24129
2.90128
3.0713
3.14381
3.1032
3.00789
2.84589
2.63967
2.4178
2.23636
2.13658
2.10138
2.00396
1.61226
1.24911
2.43134
3.23247
3.83302
4.29468
4.64672
4.89888
5.03956
5.05623
4.91962
4.61092
4.09129
3.33484
2.33119
1.21148
1.74132
2.29417
2.43128
2.23744
2.06148
1.77429
1.33919
1.16372
1.41234
1.59564
1.73877
1.83109
2.0253
2.12525
2.03244
1.83943
1.68153
1.82153
2.17193
2.26809
2.17424
2.43872
3.02555
3.46816
3.76645
4.41737
5.34265
5.92577
6.13688
6.22019
6.35278
6.44611
6.47126
6.49718
6.5207
6.5208
6.51694
6.5138
6.50172
6.48701
6.47187
6.45346
6.43315
6.41252
6.39093
6.36868
6.34662
6.32494
6.30376
6.28353
6.26457
6.24703
6.23114
6.21709
6.20498
6.19485
6.18667
6.18036
6.17575
6.1726
6.1706
6.1694
6.16858
6.1677
6.1663
6.16394
6.1602
6.15469
6.14708
6.13712
6.12463
6.10953
6.09178
6.07145
6.04866
6.02359
5.99643
5.96742
5.93682
5.90488
5.87184
5.83794
5.8034
5.76842
5.73316
5.69777
5.66237
5.62703
5.59184
5.5568
5.52196
5.4873
5.45279
5.41841
5.38409
5.34976
5.31538
5.28083
5.24605
5.21094
5.17543
5.1394
5.10276
5.06542
5.02727
4.98823
4.94817
4.907
4.86461
4.82088
4.7757
4.72893
4.68047
4.63018
4.57792
4.52354
4.46691
4.40787
4.34624
4.28187
4.21455
4.14409
4.07027
3.99283
3.91151
3.82604
3.73604
3.64116
3.54099
3.43503
3.32277
3.2036
3.07688
2.94187
2.79784
2.64419
2.49796
2.34336
2.18202
2.02347
1.89404
1.8401
1.89769
2.04988
2.25147
2.47037
2.69204
2.9115
3.12761
3.35702
3.58412
3.80962
4.0343
4.25895
4.48441
4.71152
4.94102
5.17384
5.41057
5.65249
5.8995
6.15444
6.41422
6.68774
6.96014
7.26241
7.53608
7.88581
8.09683
)
;
    }
    frontAndBack
    {
        type            empty;
    }
}


// ************************************************************************* //
