/*--------------------------------*- C++ -*----------------------------------*\
  =========                 |
  \\      /  F ield         | OpenFOAM: The Open Source CFD Toolbox
   \\    /   O peration     | Website:  https://openfoam.org
    \\  /    A nd           | Version:  7
     \\/     M anipulation  |
\*---------------------------------------------------------------------------*/
FoamFile
{
    version     2.0;
    format      ascii;
    class       volVectorField;
    location    "0.49";
    object      ddt0(U);
}
// * * * * * * * * * * * * * * * * * * * * * * * * * * * * * * * * * * * * * //

dimensions      [0 1 -2 0 0 0 0];

internalField   nonuniform List<vector> 
70000
(
(0.000742539 -4.56867e-05 0)
(0.00366878 -5.20944e-05 0)
(0.00608222 -4.70673e-05 0)
(0.00706862 -4.47773e-05 0)
(0.00688749 -4.19115e-05 0)
(0.00584269 -3.82569e-05 0)
(0.00430514 -3.55603e-05 0)
(0.00272106 -3.39621e-05 0)
(0.00143352 -3.45493e-05 0)
(0.000618237 -3.72119e-05 0)
(0.00030786 -4.10312e-05 0)
(0.00042983 -4.51427e-05 0)
(0.000851747 -4.87742e-05 0)
(0.00143427 -5.1872e-05 0)
(0.00204994 -5.43674e-05 0)
(0.00261688 -5.6846e-05 0)
(0.00306187 -5.91245e-05 0)
(0.00334248 -6.16014e-05 0)
(0.00341206 -6.40888e-05 0)
(0.0032289 -6.66352e-05 0)
(0.00275772 -6.97391e-05 0)
(0.00193811 -7.30354e-05 0)
(0.000717531 -7.69018e-05 0)
(-0.000954576 -8.1862e-05 0)
(-0.0031464 -8.77648e-05 0)
(-0.00588494 -9.55621e-05 0)
(-0.00920792 -0.000105838 0)
(-0.013135 -0.000118959 0)
(-0.0176435 -0.000137557 0)
(-0.0227228 -0.000161913 0)
(-0.0282838 -0.000195198 0)
(-0.0342036 -0.000240424 0)
(-0.0402437 -0.000301109 0)
(-0.0460097 -0.00038496 0)
(-0.0510178 -0.00049295 0)
(-0.0542201 -0.000649532 0)
(-0.0549378 -0.000837809 0)
(-0.0504718 -0.00112715 0)
(-0.0401646 -0.00145881 0)
(-0.0182381 -0.00196703 0)
(0.0171099 -0.00258308 0)
(0.073614 -0.00338063 0)
(0.162688 -0.00462096 0)
(0.283019 -0.00569425 0)
(0.476985 -0.00798806 0)
(0.720383 -0.00981933 0)
(1.06819 -0.012352 0)
(1.63491 -0.0182608 0)
(1.86214 -0.00021909 0)
(3.57778 -0.159101 0)
(0.000692019 -0.00020635 0)
(0.00552657 -0.000273907 0)
(0.00968486 -0.000156037 0)
(0.00969404 2.76025e-06 0)
(0.00574369 0.000131399 0)
(-0.00111027 0.000215174 0)
(-0.00962493 0.000246595 0)
(-0.0183487 0.000228438 0)
(-0.0261476 0.00017693 0)
(-0.0324548 0.000111954 0)
(-0.0371951 5.06519e-05 0)
(-0.0406235 3.32581e-06 0)
(-0.0431532 -2.53459e-05 0)
(-0.0452222 -3.64743e-05 0)
(-0.0472077 -3.30594e-05 0)
(-0.0493825 -1.94923e-05 0)
(-0.0519707 3.3225e-06 0)
(-0.055146 3.44505e-05 0)
(-0.0590738 7.36238e-05 0)
(-0.063913 0.000122282 0)
(-0.0698247 0.000179445 0)
(-0.0770093 0.000247811 0)
(-0.0856652 0.000327334 0)
(-0.096002 0.000418195 0)
(-0.108265 0.000521885 0)
(-0.122667 0.000637126 0)
(-0.139444 0.000762698 0)
(-0.158837 0.000898952 0)
(-0.181044 0.00103877 0)
(-0.206325 0.00118125 0)
(-0.234825 0.00131662 0)
(-0.266736 0.00143181 0)
(-0.302006 0.00150982 0)
(-0.340488 0.00151802 0)
(-0.381882 0.00142806 0)
(-0.424785 0.00115384 0)
(-0.469115 0.000669295 0)
(-0.509765 -0.00025033 0)
(-0.547894 -0.00158587 0)
(-0.571298 -0.00386242 0)
(-0.579915 -0.0069684 0)
(-0.557595 -0.0118445 0)
(-0.481909 -0.0187186 0)
(-0.36162 -0.0280574 0)
(-0.0932476 -0.0423312 0)
(0.246834 -0.0590507 0)
(0.817433 -0.0860553 0)
(1.86458 -0.105306 0)
(2.13634 -0.143206 0)
(5.92076 -0.235331 0)
(0.000323736 -0.000398399 0)
(0.00528662 -0.000579422 0)
(0.0105943 -0.000294732 0)
(0.0107967 0.000194644 0)
(0.00452737 0.000635013 0)
(-0.00714641 0.000935521 0)
(-0.0223285 0.00106547 0)
(-0.0386481 0.00102956 0)
(-0.0540415 0.000880305 0)
(-0.0672911 0.000684576 0)
(-0.0780211 0.000497706 0)
(-0.0864634 0.000352645 0)
(-0.0931744 0.000263609 0)
(-0.0988168 0.000228764 0)
(-0.104 0.00023907 0)
(-0.109203 0.000283697 0)
(-0.11483 0.000358522 0)
(-0.121204 0.00046127 0)
(-0.128623 0.000590989 0)
(-0.137372 0.000751011 0)
(-0.14773 0.00094143 0)
(-0.160028 0.00116833 0)
(-0.17459 0.00143333 0)
(-0.191759 0.00173955 0)
(-0.211925 0.00209151 0)
(-0.235458 0.0024904 0)
(-0.262767 0.00293722 0)
(-0.294294 0.00343644 0)
(-0.330459 0.00398138 0)
(-0.371806 0.00457471 0)
(-0.418756 0.00520585 0)
(-0.471897 0.005857 0)
(-0.531534 0.0064999 0)
(-0.597961 0.00708742 0)
(-0.671484 0.00755115 0)
(-0.750827 0.00776475 0)
(-0.837256 0.00761171 0)
(-0.924597 0.00673539 0)
(-1.01673 0.00504502 0)
(-1.09848 0.00152856 0)
(-1.17263 -0.00358075 0)
(-1.22074 -0.0127427 0)
(-1.21474 -0.0254627 0)
(-1.17342 -0.0451789 0)
(-0.958445 -0.074446 0)
(-0.677057 -0.110421 0)
(-0.134441 -0.177769 0)
(1.04569 -0.212984 0)
(1.19024 -0.352706 0)
(5.63253 -0.321293 0)
(8.25715e-05 -0.000558566 0)
(0.00434403 -0.00091333 0)
(0.010364 -0.000519123 0)
(0.0124592 0.000346725 0)
(0.00730068 0.00124432 0)
(-0.00535549 0.00193532 0)
(-0.0238878 0.00230732 0)
(-0.0455338 0.00233723 0)
(-0.0674494 0.00210754 0)
(-0.0875782 0.00174742 0)
(-0.104878 0.00137382 0)
(-0.119164 0.00106215 0)
(-0.130805 0.000849884 0)
(-0.140459 0.000741866 0)
(-0.148848 0.000725382 0)
(-0.156623 0.000782984 0)
(-0.16438 0.000905474 0)
(-0.17262 0.00108824 0)
(-0.181806 0.00132789 0)
(-0.192362 0.00162964 0)
(-0.204695 0.00199427 0)
(-0.219249 0.00243173 0)
(-0.236453 0.0029454 0)
(-0.256748 0.00354239 0)
(-0.280616 0.00423071 0)
(-0.308524 0.00501656 0)
(-0.340983 0.00590424 0)
(-0.378557 0.00690587 0)
(-0.421796 0.00801878 0)
(-0.471425 0.00925317 0)
(-0.52805 0.0106032 0)
(-0.592508 0.0120534 0)
(-0.665417 0.0135664 0)
(-0.747329 0.0150981 0)
(-0.839174 0.0165276 0)
(-0.939715 0.0177281 0)
(-1.05151 0.0184516 0)
(-1.16788 0.018267 0)
(-1.29479 0.0169289 0)
(-1.41631 0.0129161 0)
(-1.53695 0.00668728 0)
(-1.63899 -0.00612836 0)
(-1.69265 -0.0237772 0)
(-1.72135 -0.0536822 0)
(-1.58047 -0.0985674 0)
(-1.37135 -0.152668 0)
(-0.932966 -0.272244 0)
(0.227724 -0.305038 0)
(0.339326 -0.54455 0)
(4.48588 -0.438714 0)
(6.16479e-05 -0.000681848 0)
(0.00345369 -0.00124032 0)
(0.00950744 -0.0008345 0)
(0.0138911 0.000341329 0)
(0.0123629 0.00173662 0)
(0.00291083 0.0029502 0)
(-0.0142278 0.00373497 0)
(-0.0369338 0.00398962 0)
(-0.0622539 0.00378951 0)
(-0.0875212 0.00331281 0)
(-0.110889 0.00274469 0)
(-0.131404 0.00221893 0)
(-0.148822 0.00181388 0)
(-0.1634 0.00155687 0)
(-0.175683 0.00144298 0)
(-0.186323 0.00145516 0)
(-0.196039 0.00158154 0)
(-0.205508 0.00181552 0)
(-0.215378 0.00215003 0)
(-0.226252 0.00259082 0)
(-0.238686 0.00313802 0)
(-0.253255 0.00380443 0)
(-0.270495 0.00459428 0)
(-0.29093 0.0055181 0)
(-0.315115 0.00658689 0)
(-0.343573 0.00781234 0)
(-0.376863 0.00920252 0)
(-0.415602 0.0107786 0)
(-0.46039 0.0125441 0)
(-0.512017 0.0145193 0)
(-0.571175 0.0167061 0)
(-0.638777 0.0190983 0)
(-0.715654 0.0216484 0)
(-0.802376 0.0243323 0)
(-0.900351 0.0269662 0)
(-1.00823 0.0294528 0)
(-1.12938 0.0313972 0)
(-1.25705 0.0323162 0)
(-1.39805 0.0318244 0)
(-1.53689 0.0278579 0)
(-1.6788 0.0211659 0)
(-1.80643 0.00540749 0)
(-1.89302 -0.0165032 0)
(-1.9565 -0.0555289 0)
(-1.86967 -0.116131 0)
(-1.69883 -0.186598 0)
(-1.34267 -0.357937 0)
(-0.267223 -0.395012 0)
(-0.0166478 -0.737998 0)
(3.48884 -0.597102 0)
(0.000156377 -0.00078937 0)
(0.00295389 -0.00153957 0)
(0.00852691 -0.00121258 0)
(0.0144269 0.000133178 0)
(0.0169012 0.00194458 0)
(0.0129136 0.00370653 0)
(0.00105382 0.00502849 0)
(-0.0180683 0.00569033 0)
(-0.0423583 0.00570794 0)
(-0.0692685 0.00526629 0)
(-0.0965165 0.00459622 0)
(-0.122401 0.00388526 0)
(-0.14583 0.00326083 0)
(-0.166283 0.002789 0)
(-0.183724 0.00249147 0)
(-0.198473 0.00236826 0)
(-0.211146 0.00241616 0)
(-0.222475 0.0026327 0)
(-0.233256 0.00300913 0)
(-0.244278 0.0035513 0)
(-0.256274 0.00425708 0)
(-0.269975 0.00514029 0)
(-0.286052 0.0062042 0)
(-0.305136 0.00746101 0)
(-0.327858 0.008923 0)
(-0.3548 0.0106062 0)
(-0.386558 0.0125218 0)
(-0.423765 0.0146991 0)
(-0.467034 0.0171486 0)
(-0.517143 0.0199018 0)
(-0.574812 0.0229672 0)
(-0.640895 0.026355 0)
(-0.716349 0.0300034 0)
(-0.801623 0.0339196 0)
(-0.898381 0.0378532 0)
(-1.00517 0.0417438 0)
(-1.1256 0.0450628 0)
(-1.25317 0.0472585 0)
(-1.39466 0.0478403 0)
(-1.53525 0.0442024 0)
(-1.68085 0.037309 0)
(-1.81265 0.0191369 0)
(-1.91079 -0.00690002 0)
(-1.98072 -0.0539695 0)
(-1.92273 -0.130561 0)
(-1.76237 -0.216464 0)
(-1.44281 -0.434654 0)
(-0.484159 -0.504677 0)
(0.0177981 -0.906561 0)
(2.87875 -0.788016 0)
(0.000254919 -0.000893995 0)
(0.00282221 -0.00181223 0)
(0.00785522 -0.00161214 0)
(0.0142493 -0.000236717 0)
(0.0195436 0.00183219 0)
(0.0207926 0.00404926 0)
(0.0156038 0.00592481 0)
(0.00303754 0.00711574 0)
(-0.0162553 0.00754244 0)
(-0.0406399 0.00734809 0)
(-0.0681287 0.00676588 0)
(-0.096782 0.00600663 0)
(-0.124879 0.00523172 0)
(-0.151057 0.00454672 0)
(-0.17443 0.00401342 0)
(-0.194625 0.0036691 0)
(-0.211809 0.0035391 0)
(-0.22651 0.00364037 0)
(-0.239507 0.00397181 0)
(-0.25169 0.0045435 0)
(-0.263946 0.00535161 0)
(-0.277169 0.00640995 0)
(-0.292182 0.00771919 0)
(-0.309749 0.00929093 0)
(-0.330612 0.0111366 0)
(-0.355435 0.0132745 0)
(-0.38487 0.0157165 0)
(-0.419575 0.0184987 0)
(-0.460176 0.0216358 0)
(-0.507406 0.0251713 0)
(-0.561987 0.0291172 0)
(-0.624657 0.0335039 0)
(-0.696412 0.0382522 0)
(-0.777554 0.043404 0)
(-0.869775 0.0486463 0)
(-0.971618 0.053947 0)
(-1.08653 0.0586659 0)
(-1.20842 0.0621644 0)
(-1.34365 0.0638508 0)
(-1.47793 0.0606499 0)
(-1.61798 0.053537 0)
(-1.74287 0.0332665 0)
(-1.83995 0.00294408 0)
(-1.90249 -0.0514585 0)
(-1.85591 -0.144125 0)
(-1.69495 -0.245985 0)
(-1.37779 -0.50451 0)
(-0.54922 -0.61804 0)
(0.242093 -1.03291 0)
(2.52823 -1.02159 0)
(0.00030338 -0.00100286 0)
(0.00288858 -0.00207406 0)
(0.00756959 -0.00201145 0)
(0.0138821 -0.000694247 0)
(0.0205079 0.00147771 0)
(0.0252961 0.00399269 0)
(0.0257853 0.00632975 0)
(0.0201387 0.00805985 0)
(0.00770468 0.00900733 0)
(-0.0111124 0.00924553 0)
(-0.0352119 0.00897031 0)
(-0.063089 0.008375 0)
(-0.0929782 0.00761928 0)
(-0.123039 0.00682511 0)
(-0.15163 0.0060883 0)
(-0.177548 0.00549285 0)
(-0.200238 0.00511153 0)
(-0.219718 0.00500152 0)
(-0.236492 0.00518663 0)
(-0.251363 0.00569242 0)
(-0.265255 0.00651943 0)
(-0.279161 0.00768343 0)
(-0.294034 0.00918296 0)
(-0.310773 0.0110279 0)
(-0.330242 0.0132271 0)
(-0.353215 0.0157989 0)
(-0.380434 0.0187534 0)
(-0.412606 0.0221307 0)
(-0.450396 0.0259463 0)
(-0.494501 0.030254 0)
(-0.54564 0.0350651 0)
(-0.604435 0.0404305 0)
(-0.671838 0.0462529 0)
(-0.748048 0.052604 0)
(-0.834601 0.059119 0)
(-0.930128 0.0657773 0)
(-1.03766 0.0718486 0)
(-1.15161 0.0765994 0)
(-1.27772 0.0793161 0)
(-1.40235 0.076554 0)
(-1.53246 0.0690951 0)
(-1.64627 0.046875 0)
(-1.73595 0.0120541 0)
(-1.7865 -0.049225 0)
(-1.74267 -0.157719 0)
(-1.58247 -0.277079 0)
(-1.24454 -0.567222 0)
(-0.568818 -0.740198 0)
(0.503403 -1.16729 0)
(2.37126 -1.29244 0)
(0.00031078 -0.00112018 0)
(0.0029863 -0.00234113 0)
(0.00757045 -0.00240762 0)
(0.0136581 -0.00118495 0)
(0.0206243 0.000988838 0)
(0.0271413 0.00365644 0)
(0.0312231 0.00631611 0)
(0.0308995 0.00850332 0)
(0.0248191 0.00997474 0)
(0.0124123 0.0107371 0)
(-0.00621921 0.0109333 0)
(-0.0304074 0.0107102 0)
(-0.0589059 0.0101885 0)
(-0.089962 0.00946894 0)
(-0.121601 0.00865432 0)
(-0.15199 0.00786454 0)
(-0.179831 0.00722525 0)
(-0.204472 0.00684989 0)
(-0.225915 0.00680629 0)
(-0.244655 0.00715207 0)
(-0.261479 0.00790378 0)
(-0.277347 0.00908605 0)
(-0.293254 0.0106992 0)
(-0.310181 0.0127528 0)
(-0.329089 0.0152537 0)
(-0.350857 0.0182194 0)
(-0.376329 0.021656 0)
(-0.406284 0.0256056 0)
(-0.441457 0.0300802 0)
(-0.48254 0.0351404 0)
(-0.530249 0.0407935 0)
(-0.585132 0.0471054 0)
(-0.64804 0.0539629 0)
(-0.719109 0.0614578 0)
(-0.799627 0.0691832 0)
(-0.888326 0.0771167 0)
(-0.987739 0.0844508 0)
(-1.09282 0.0903556 0)
(-1.20839 0.093983 0)
(-1.32208 0.0915878 0)
(-1.43995 0.0836287 0)
(-1.54116 0.0595372 0)
(-1.62061 0.020009 0)
(-1.6584 -0.0478004 0)
(-1.61195 -0.171181 0)
(-1.46327 -0.31095 0)
(-1.08903 -0.621855 0)
(-0.564538 -0.868224 0)
(0.658168 -1.30749 0)
(2.45911 -1.57848 0)
(0.00030331 -0.00124429 0)
(0.0030507 -0.00262031 0)
(0.00767111 -0.00280985 0)
(0.0136396 -0.00168704 0)
(0.020556 0.000443986 0)
(0.0276168 0.00317151 0)
(0.0333931 0.00603367 0)
(0.0361887 0.0085651 0)
(0.0345591 0.010489 0)
(0.0274877 0.0117691 0)
(0.0143755 0.0125048 0)
(-0.00492016 0.0127913 0)
(-0.0299104 0.0126886 0)
(-0.0593551 0.0122429 0)
(-0.0914233 0.0115283 0)
(-0.124054 0.0106734 0)
(-0.15545 0.00984487 0)
(-0.184356 0.00921512 0)
(-0.21021 0.00890851 0)
(-0.233069 0.00902996 0)
(-0.253423 0.00962612 0)
(-0.272059 0.0107405 0)
(-0.289894 0.0123825 0)
(-0.307892 0.014566 0)
(-0.327044 0.0172983 0)
(-0.348281 0.0205982 0)
(-0.372531 0.0244678 0)
(-0.400639 0.0289494 0)
(-0.433413 0.0340494 0)
(-0.471576 0.0398307 0)
(-0.515843 0.0462929 0)
(-0.566736 0.0535102 0)
(-0.624988 0.0613533 0)
(-0.690695 0.0699238 0)
(-0.764871 0.0787806 0)
(-0.84635 0.0878836 0)
(-0.937074 0.0963676 0)
(-1.03268 0.103289 0)
(-1.13673 0.107682 0)
(-1.23865 0.105539 0)
(-1.34291 0.0968988 0)
(-1.43054 0.0709995 0)
(-1.49809 0.0266677 0)
(-1.52454 -0.0476784 0)
(-1.46984 -0.183782 0)
(-1.34232 -0.347582 0)
(-0.943384 -0.671297 0)
(-0.502377 -0.98897 0)
(0.645252 -1.47362 0)
(2.67326 -1.85932 0)
(0.000296584 -0.00137336 0)
(0.00308412 -0.00291293 0)
(0.00776936 -0.00322544 0)
(0.0137268 -0.00219899 0)
(0.0205545 -0.000121632 0)
(0.027661 0.00262584 0)
(0.0339593 0.00561835 0)
(0.0381144 0.00840302 0)
(0.0388964 0.0106913 0)
(0.0352538 0.0124274 0)
(0.0263195 0.0136896 0)
(0.0114425 0.0145348 0)
(-0.00953643 0.0149616 0)
(-0.036002 0.0149441 0)
(-0.0665538 0.0144988 0)
(-0.0992666 0.0137328 0)
(-0.132179 0.0128306 0)
(-0.163671 0.0120134 0)
(-0.192732 0.0114635 0)
(-0.21899 0.0113415 0)
(-0.242586 0.0117351 0)
(-0.264045 0.0127165 0)
(-0.284108 0.0143125 0)
(-0.303626 0.0165472 0)
(-0.323531 0.0194333 0)
(-0.344736 0.0229942 0)
(-0.368185 0.0272305 0)
(-0.394759 0.0321858 0)
(-0.425316 0.0378599 0)
(-0.460614 0.0443145 0)
(-0.501371 0.0515391 0)
(-0.54811 0.0596083 0)
(-0.601462 0.068376 0)
(-0.661495 0.0779421 0)
(-0.728952 0.0878378 0)
(-0.802796 0.0979858 0)
(-0.884291 0.107488 0)
(-0.969893 0.115263 0)
(-1.0617 0.120247 0)
(-1.1511 0.118224 0)
(-1.24094 0.108702 0)
(-1.31434 0.0810017 0)
(-1.36842 0.032032 0)
(-1.38568 -0.0492489 0)
(-1.32042 -0.195475 0)
(-1.21008 -0.38474 0)
(-0.82729 -0.71993 0)
(-0.382779 -1.09486 0)
(0.553947 -1.67359 0)
(2.74132 -2.12138 0)
(0.000293911 -0.00150687 0)
(0.00310528 -0.0032183 0)
(0.00784281 -0.00365722 0)
(0.0138353 -0.00272546 0)
(0.0206283 -0.000700033 0)
(0.0276679 0.0020585 0)
(0.0340064 0.00515353 0)
(0.0385356 0.00814195 0)
(0.0402626 0.0107286 0)
(0.0383221 0.0128536 0)
(0.0318563 0.0145925 0)
(0.0200399 0.015984 0)
(0.00233774 0.0169771 0)
(-0.0211171 0.0174732 0)
(-0.0493846 0.0174167 0)
(-0.0808503 0.0168703 0)
(-0.113646 0.0160134 0)
(-0.146044 0.0150996 0)
(-0.176786 0.0143617 0)
(-0.205196 0.0140162 0)
(-0.231119 0.0141971 0)
(-0.254817 0.0150114 0)
(-0.276817 0.0165096 0)
(-0.297804 0.0187315 0)
(-0.318585 0.0216996 0)
(-0.339984 0.0254465 0)
(-0.362897 0.0299752 0)
(-0.388183 0.0353323 0)
(-0.416702 0.0415135 0)
(-0.449231 0.0485768 0)
(-0.486478 0.0565006 0)
(-0.528972 0.0653537 0)
(-0.57726 0.0749717 0)
(-0.631401 0.0854399 0)
(-0.691873 0.0962708 0)
(-0.757813 0.107325 0)
(-0.82977 0.1177 0)
(-0.905056 0.12615 0)
(-0.984343 0.131527 0)
(-1.06084 0.129476 0)
(-1.13596 0.118887 0)
(-1.19518 0.0893041 0)
(-1.23492 0.0360438 0)
(-1.2438 -0.0524094 0)
(-1.17158 -0.20728 0)
(-1.06504 -0.419254 0)
(-0.735161 -0.770399 0)
(-0.260196 -1.18983 0)
(0.505015 -1.84043 0)
(2.5633 -2.37977 0)
(0.000293469 -0.00164498 0)
(0.00312516 -0.00353587 0)
(0.00790146 -0.00410563 0)
(0.0139344 -0.0032695 0)
(0.0207293 -0.00129306 0)
(0.0277157 0.00147955 0)
(0.0339733 0.00467382 0)
(0.0384871 0.0078501 0)
(0.0404207 0.0107037 0)
(0.0390782 0.0131731 0)
(0.0337324 0.015342 0)
(0.0235733 0.0172454 0)
(0.00794674 0.018798 0)
(-0.0132751 0.0198356 0)
(-0.0394709 0.0202293 0)
(-0.0693293 0.0199862 0)
(-0.101179 0.0192648 0)
(-0.133351 0.0183358 0)
(-0.16452 0.0174727 0)
(-0.193863 0.016943 0)
(-0.221035 0.0169264 0)
(-0.246102 0.0175666 0)
(-0.269408 0.0189407 0)
(-0.291468 0.0211073 0)
(-0.312941 0.024102 0)
(-0.334525 0.0279694 0)
(-0.357019 0.0327189 0)
(-0.381213 0.0384029 0)
(-0.407918 0.0450157 0)
(-0.437894 0.0526117 0)
(-0.471818 0.0611587 0)
(-0.510214 0.0707142 0)
(-0.553549 0.0810963 0)
(-0.601894 0.0923628 0)
(-0.655471 0.104016 0)
(-0.713619 0.11583 0)
(-0.776225 0.12692 0)
(-0.841375 0.135865 0)
(-0.908516 0.141428 0)
(-0.97246 0.139189 0)
(-1.03332 0.127378 0)
(-1.07913 0.0957889 0)
(-1.10522 0.0386058 0)
(-1.10534 -0.0568638 0)
(-1.03182 -0.219825 0)
(-0.921418 -0.449975 0)
(-0.651637 -0.822103 0)
(-0.170367 -1.27491 0)
(0.510529 -2.00426 0)
(2.22767 -2.78647 0)
(0.000293482 -0.00178795 0)
(0.003146 -0.00386576 0)
(0.00795568 -0.00457068 0)
(0.0140243 -0.00383223 0)
(0.0208304 -0.00190306 0)
(0.0277844 0.000888742 0)
(0.0339602 0.00418789 0)
(0.0383665 0.00755385 0)
(0.0402375 0.0106676 0)
(0.0389798 0.0134636 0)
(0.0339742 0.0160366 0)
(0.024492 0.0184251 0)
(0.00988934 0.0205186 0)
(-0.0100358 0.0220965 0)
(-0.0348235 0.0229603 0)
(-0.063355 0.0230595 0)
(-0.0941364 0.0225249 0)
(-0.125612 0.0216351 0)
(-0.156497 0.020696 0)
(-0.185934 0.0200197 0)
(-0.213496 0.0198293 0)
(-0.239142 0.0203034 0)
(-0.263085 0.021546 0)
(-0.285715 0.0236349 0)
(-0.30756 0.0266195 0)
(-0.329195 0.0305578 0)
(-0.3513 0.0354686 0)
(-0.374576 0.0414112 0)
(-0.39975 0.0483823 0)
(-0.427531 0.0564332 0)
(-0.458542 0.0655225 0)
(-0.493286 0.0756929 0)
(-0.53214 0.0867472 0)
(-0.575206 0.0987033 0)
(-0.622469 0.111061 0)
(-0.673463 0.123492 0)
(-0.727528 0.13514 0)
(-0.783384 0.144406 0)
(-0.839527 0.149959 0)
(-0.892131 0.147369 0)
(-0.940091 0.134213 0)
(-0.974104 0.100534 0)
(-0.988703 0.0396715 0)
(-0.980193 -0.0622727 0)
(-0.909389 -0.232946 0)
(-0.796886 -0.478105 0)
(-0.574575 -0.86962 0)
(-0.130735 -1.35666 0)
(0.497558 -2.18147 0)
(1.89134 -3.2214 0)
(0.00029339 -0.00193596 0)
(0.00316696 -0.00420852 0)
(0.00800891 -0.00505261 0)
(0.0141106 -0.00441406 0)
(0.0209268 -0.00253111 0)
(0.0278542 0.000284598 0)
(0.0339606 0.00369582 0)
(0.0382598 0.00725926 0)
(0.0400124 0.0106382 0)
(0.0386705 0.013761 0)
(0.033672 0.0167321 0)
(0.024351 0.0195954 0)
(0.0101131 0.0222188 0)
(-0.00923288 0.02433 0)
(-0.0332665 0.025665 0)
(-0.0609567 0.0261181 0)
(-0.0909168 0.0257908 0)
(-0.121692 0.0249666 0)
(-0.152063 0.0239791 0)
(-0.181193 0.0231813 0)
(-0.208652 0.0228361 0)
(-0.234342 0.0231555 0)
(-0.25843 0.0242681 0)
(-0.281216 0.0262699 0)
(-0.30314 0.0292237 0)
(-0.324675 0.0332002 0)
(-0.346406 0.0382281 0)
(-0.368933 0.0443752 0)
(-0.392896 0.0516423 0)
(-0.418938 0.060078 0)
(-0.447608 0.0696343 0)
(-0.479381 0.0803358 0)
(-0.514538 0.0919731 0)
(-0.55321 0.104516 0)
(-0.595178 0.117467 0)
(-0.640147 0.130382 0)
(-0.687051 0.142441 0)
(-0.735068 0.151874 0)
(-0.782059 0.157247 0)
(-0.825319 0.154154 0)
(-0.862584 0.139566 0)
(-0.887233 0.103782 0)
(-0.893345 0.039412 0)
(-0.877912 -0.0683603 0)
(-0.811926 -0.246193 0)
(-0.703436 -0.503709 0)
(-0.515612 -0.912748 0)
(-0.128107 -1.43701 0)
(0.440213 -2.30937 0)
(1.56683 -3.53281 0)
(0.000293224 -0.00208912 0)
(0.00318739 -0.0045648 0)
(0.00806109 -0.00555193 0)
(0.0141954 -0.00501537 0)
(0.0210201 -0.00317767 0)
(0.0279197 -0.00033352 0)
(0.0339609 0.00319675 0)
(0.0381631 0.00696628 0)
(0.0398014 0.0106195 0)
(0.0383456 0.014077 0)
(0.0332536 0.0174525 0)
(0.02389 0.020794 0)
(0.00970035 0.0239479 0)
(-0.00947139 0.0265909 0)
(-0.0331914 0.0283955 0)
(-0.0604482 0.0292027 0)
(-0.0899018 0.0290868 0)
(-0.120158 0.0283354 0)
(-0.150053 0.0273097 0)
(-0.17879 0.026401 0)
(-0.205951 0.0259111 0)
(-0.231447 0.0260827 0)
(-0.255404 0.0270683 0)
(-0.278098 0.0289798 0)
(-0.299905 0.0318923 0)
(-0.321249 0.0358875 0)
(-0.342621 0.0410045 0)
(-0.364566 0.047318 0)
(-0.387638 0.0548346 0)
(-0.412417 0.0636 0)
(-0.439376 0.0735619 0)
(-0.468957 0.0847236 0)
(-0.501346 0.0968677 0)
(-0.536705 0.109909 0)
(-0.574646 0.123355 0)
(-0.615012 0.136647 0)
(-0.656473 0.14899 0)
(-0.698494 0.158466 0)
(-0.738607 0.163532 0)
(-0.774989 0.159807 0)
(-0.804338 0.143745 0)
(-0.822623 0.105911 0)
(-0.823537 0.0381977 0)
(-0.804355 -0.0747983 0)
(-0.744825 -0.25884 0)
(-0.645959 -0.527151 0)
(-0.485578 -0.951151 0)
(-0.160886 -1.50966 0)
(0.33274 -2.42805 0)
(1.24028 -3.80308 0)
(0.00029308 -0.00224755 0)
(0.00320718 -0.00493509 0)
(0.00811163 -0.00606926 0)
(0.0142783 -0.00563673 0)
(0.0211114 -0.0038432 0)
(0.0279817 -0.00096582 0)
(0.0339572 0.00269035 0)
(0.0380665 0.00667438 0)
(0.0395989 0.0106113 0)
(0.0380338 0.0144143 0)
(0.0328325 0.0182055 0)
(0.0233687 0.0220365 0)
(0.00911144 0.0257299 0)
(-0.0100636 0.0289102 0)
(-0.0336953 0.0311862 0)
(-0.0607626 0.0323467 0)
(-0.0899384 0.03244 0)
(-0.119859 0.0317599 0)
(-0.149396 0.0306954 0)
(-0.177787 0.0296768 0)
(-0.204635 0.029044 0)
(-0.229859 0.0290697 0)
(-0.253589 0.029929 0)
(-0.276081 0.0317486 0)
(-0.297692 0.0346146 0)
(-0.318804 0.0386184 0)
(-0.339878 0.043808 0)
(-0.361391 0.0502649 0)
(-0.383852 0.0580012 0)
(-0.407783 0.0670591 0)
(-0.433603 0.0773833 0)
(-0.461714 0.0889537 0)
(-0.492238 0.101547 0)
(-0.525345 0.11502 0)
(-0.560533 0.128886 0)
(-0.597747 0.142478 0)
(-0.635514 0.155006 0)
(-0.67347 0.16444 0)
(-0.709035 0.16912 0)
(-0.741068 0.164677 0)
(-0.765497 0.147153 0)
(-0.780515 0.107372 0)
(-0.779451 0.0365288 0)
(-0.760466 -0.0810831 0)
(-0.709193 -0.270356 0)
(-0.623943 -0.5482 0)
(-0.489518 -0.984125 0)
(-0.229174 -1.57441 0)
(0.181069 -2.5331 0)
(0.886728 -4.03294 0)
(0.00029298 -0.00241143 0)
(0.00322642 -0.00531975 0)
(0.00816029 -0.00660524 0)
(0.0143587 -0.00627875 0)
(0.0212002 -0.00452825 0)
(0.0280408 -0.0016125 0)
(0.0339501 0.00217666 0)
(0.0379675 0.00638353 0)
(0.0393978 0.0106138 0)
(0.0377288 0.0147733 0)
(0.0324209 0.0189934 0)
(0.0228479 0.0233282 0)
(0.0084918 0.0275746 0)
(-0.0107469 0.0313025 0)
(-0.0343801 0.0340553 0)
(-0.0613706 0.0355697 0)
(-0.0903902 0.0358699 0)
(-0.12009 0.0352565 0)
(-0.149367 0.0341488 0)
(-0.17748 0.0330161 0)
(-0.204054 0.0322374 0)
(-0.229017 0.0321151 0)
(-0.252507 0.0328464 0)
(-0.274774 0.0345723 0)
(-0.296168 0.0373891 0)
(-0.317056 0.0413966 0)
(-0.337873 0.0466514 0)
(-0.359076 0.0532403 0)
(-0.381133 0.0611811 0)
(-0.404536 0.0705108 0)
(-0.42966 0.0811722 0)
(-0.456883 0.0931199 0)
(-0.486277 0.106127 0)
(-0.518019 0.11999 0)
(-0.55154 0.134228 0)
(-0.586867 0.148071 0)
(-0.622451 0.160725 0)
(-0.658095 0.170071 0)
(-0.691158 0.174334 0)
(-0.721089 0.169142 0)
(-0.743421 0.150231 0)
(-0.757966 0.108637 0)
(-0.757829 0.0349709 0)
(-0.742891 -0.0866583 0)
(-0.701798 -0.280256 0)
(-0.633466 -0.566242 0)
(-0.526341 -1.01146 0)
(-0.33035 -1.63003 0)
(-0.00774346 -2.62179 0)
(0.500934 -4.21653 0)
(0.000292918 -0.00258089 0)
(0.00324517 -0.00571916 0)
(0.00820704 -0.00716049 0)
(0.014436 -0.006942 0)
(0.021286 -0.00523343 0)
(0.028097 -0.00227384 0)
(0.0339404 0.00165572 0)
(0.0378668 0.00609394 0)
(0.0391964 0.0106273 0)
(0.0374262 0.0151548 0)
(0.0320144 0.0198175 0)
(0.0223327 0.0246717 0)
(0.00787229 0.0294864 0)
(-0.0114455 0.0337741 0)
(-0.0351085 0.0370113 0)
(-0.0620625 0.038882 0)
(-0.0909758 0.0393871 0)
(-0.12051 0.0388358 0)
(-0.149578 0.0376791 0)
(-0.17746 0.0364266 0)
(-0.203795 0.0354968 0)
(-0.228522 0.0352225 0)
(-0.251784 0.0358228 0)
(-0.273834 0.0374527 0)
(-0.295016 0.0402185 0)
(-0.315696 0.044228 0)
(-0.336299 0.0495459 0)
(-0.357269 0.0562635 0)
(-0.379059 0.0644038 0)
(-0.402138 0.0739981 0)
(-0.426864 0.0849869 0)
(-0.453593 0.0972991 0)
(-0.482379 0.110704 0)
(-0.513394 0.124938 0)
(-0.546062 0.139523 0)
(-0.58043 0.153603 0)
(-0.615019 0.166356 0)
(-0.649675 0.175607 0)
(-0.681868 0.179466 0)
(-0.711488 0.173558 0)
(-0.733974 0.153382 0)
(-0.750294 0.110151 0)
(-0.753598 0.034067 0)
(-0.745937 -0.0909549 0)
(-0.717052 -0.288005 0)
(-0.668684 -0.580692 0)
(-0.590865 -1.03258 0)
(-0.458779 -1.67503 0)
(-0.229819 -2.69133 0)
(0.0894781 -4.35011 0)
(0.000292884 -0.00275611 0)
(0.00326337 -0.00613369 0)
(0.00825185 -0.00773569 0)
(0.0145102 -0.00762707 0)
(0.0213683 -0.00595935 0)
(0.0281498 -0.0029502 0)
(0.0339283 0.00112752 0)
(0.0377653 0.00580582 0)
(0.0389958 0.0106522 0)
(0.0371257 0.0155595 0)
(0.0316112 0.0206792 0)
(0.0218215 0.0260688 0)
(0.00725649 0.0314679 0)
(-0.0121432 0.0363286 0)
(-0.0358425 0.0400586 0)
(-0.0627713 0.0422887 0)
(-0.0915936 0.0429972 0)
(-0.12098 0.0425036 0)
(-0.149861 0.0412918 0)
(-0.177531 0.0399132 0)
(-0.203645 0.0388269 0)
(-0.228152 0.0383957 0)
(-0.251197 0.0388613 0)
(-0.273038 0.0403926 0)
(-0.294017 0.0431063 0)
(-0.314502 0.0471174 0)
(-0.334914 0.0524995 0)
(-0.355693 0.0593474 0)
(-0.377291 0.0676892 0)
(-0.400163 0.0775499 0)
(-0.424663 0.0888674 0)
(-0.451134 0.101545 0)
(-0.47963 0.115346 0)
(-0.51032 0.129953 0)
(-0.542656 0.144882 0)
(-0.576695 0.159207 0)
(-0.611059 0.172067 0)
(-0.645674 0.181248 0)
(-0.678127 0.184754 0)
(-0.708685 0.178218 0)
(-0.732972 0.156944 0)
(-0.75277 0.112299 0)
(-0.761414 0.0342762 0)
(-0.763226 -0.0934405 0)
(-0.748457 -0.293061 0)
(-0.722735 -0.590892 0)
(-0.676474 -1.04682 0)
(-0.608301 -1.70785 0)
(-0.478034 -2.73964 0)
(-0.345554 -4.42638 0)
(0.000292883 -0.00293724 0)
(0.003281 -0.00656374 0)
(0.00829463 -0.00833149 0)
(0.0145808 -0.00833452 0)
(0.0214468 -0.00670664 0)
(0.0281991 -0.00364199 0)
(0.0339139 0.000591987 0)
(0.0376634 0.00551937 0)
(0.0387969 0.010689 0)
(0.0368284 0.0159884 0)
(0.0312122 0.0215797 0)
(0.0213153 0.0275217 0)
(0.00664597 0.0335216 0)
(-0.0128358 0.038969 0)
(-0.036572 0.0432004 0)
(-0.0634773 0.0457931 0)
(-0.0922115 0.0467036 0)
(-0.121455 0.0462628 0)
(-0.150152 0.04499 0)
(-0.177615 0.0434789 0)
(-0.203514 0.04223 0)
(-0.227804 0.041637 0)
(-0.250636 0.041964 0)
(-0.27227 0.0433942 0)
(-0.293049 0.0460546 0)
(-0.313341 0.0500682 0)
(-0.33357 0.055517 0)
(-0.354178 0.0624995 0)
(-0.375616 0.0710488 0)
(-0.398336 0.0811834 0)
(-0.422694 0.092838 0)
(-0.449028 0.105891 0)
(-0.477406 0.120097 0)
(-0.507992 0.135093 0)
(-0.540295 0.150379 0)
(-0.574376 0.164975 0)
(-0.608983 0.177971 0)
(-0.644128 0.187137 0)
(-0.677573 0.190373 0)
(-0.709872 0.183335 0)
(-0.737012 0.161185 0)
(-0.76145 0.115408 0)
(-0.776842 0.0359563 0)
(-0.789529 -0.0936904 0)
(-0.790456 -0.294885 0)
(-0.789598 -0.596188 0)
(-0.777091 -1.05347 0)
(-0.773163 -1.72679 0)
(-0.745775 -2.7635 0)
(-0.796302 -4.45183 0)
(0.000292912 -0.00312447 0)
(0.00329797 -0.00700969 0)
(0.00833531 -0.00894856 0)
(0.0146478 -0.00906493 0)
(0.0215213 -0.00747589 0)
(0.0282447 -0.00434966 0)
(0.0338969 4.90095e-05 0)
(0.0375616 0.00523472 0)
(0.0386007 0.0107382 0)
(0.0365357 0.0164425 0)
(0.0308193 0.0225208 0)
(0.0208164 0.0290322 0)
(0.00604375 0.0356501 0)
(-0.013519 0.0416981 0)
(-0.0372912 0.0464396 0)
(-0.0641719 0.0493978 0)
(-0.0928171 0.0505086 0)
(-0.121916 0.0501158 0)
(-0.150428 0.0487755 0)
(-0.177684 0.0471252 0)
(-0.203365 0.0457075 0)
(-0.227436 0.0449476 0)
(-0.250053 0.0451319 0)
(-0.271477 0.0464583 0)
(-0.292052 0.0490646 0)
(-0.312149 0.0530817 0)
(-0.332195 0.0586005 0)
(-0.352633 0.0657236 0)
(-0.37392 0.0744887 0)
(-0.396507 0.0849079 0)
(-0.42076 0.096912 0)
(-0.447008 0.110355 0)
(-0.475349 0.124984 0)
(-0.50594 0.14039 0)
(-0.538362 0.156058 0)
(-0.572679 0.170965 0)
(-0.60779 0.184147 0)
(-0.643779 0.193372 0)
(-0.67865 0.196443 0)
(-0.713175 0.189066 0)
(-0.743795 0.166299 0)
(-0.773587 0.119727 0)
(-0.796704 0.0393928 0)
(-0.821164 -0.0913398 0)
(-0.8389 -0.292998 0)
(-0.864552 -0.595886 0)
(-0.887954 -1.05174 0)
(-0.948327 -1.73021 0)
(-1.02583 -2.76091 0)
(-1.25461 -4.42462 0)
(0.000292977 -0.00331796 0)
(0.00331425 -0.00747192 0)
(0.00837379 -0.00958757 0)
(0.014711 -0.00981893 0)
(0.0215916 -0.00826762 0)
(0.0282864 -0.00507375 0)
(0.0338776 -0.000501583 0)
(0.0374602 0.00495198 0)
(0.0384078 0.0108002 0)
(0.0362488 0.0169225 0)
(0.0304343 0.0235036 0)
(0.0203274 0.0306025 0)
(0.00545365 0.0378557 0)
(-0.0141879 0.0445185 0)
(-0.0379939 0.049779 0)
(-0.0648481 0.0531056 0)
(-0.0934023 0.0544146 0)
(-0.122354 0.0540644 0)
(-0.15068 0.0526499 0)
(-0.177725 0.0508533 0)
(-0.203184 0.0492604 0)
(-0.227032 0.048328 0)
(-0.249428 0.0483654 0)
(-0.270636 0.0495852 0)
(-0.291001 0.0521364 0)
(-0.310896 0.0561583 0)
(-0.330753 0.0617511 0)
(-0.351017 0.0690212 0)
(-0.372152 0.0780115 0)
(-0.394609 0.0887278 0)
(-0.418764 0.101096 0)
(-0.444945 0.114949 0)
(-0.473279 0.130021 0)
(-0.503922 0.145867 0)
(-0.536535 0.161948 0)
(-0.571184 0.177213 0)
(-0.606936 0.190642 0)
(-0.643933 0.200018 0)
(-0.680469 0.203053 0)
(-0.717504 0.195521 0)
(-0.751978 0.172427 0)
(-0.787522 0.125457 0)
(-0.819014 0.0448209 0)
(-0.855822 -0.0860729 0)
(-0.891117 -0.286956 0)
(-0.944237 -0.589345 0)
(-1.00559 -1.04071 0)
(-1.12991 -1.71666 0)
(-1.31161 -2.73012 0)
(-1.7119 -4.34473 0)
(0.000293069 -0.0035179 0)
(0.00332975 -0.0079508 0)
(0.00840998 -0.0102492 0)
(0.0147702 -0.0105972 0)
(0.0216574 -0.00908233 0)
(0.0283242 -0.00581483 0)
(0.0338559 -0.00106001 0)
(0.0373595 0.00467121 0)
(0.038219 0.0108753 0)
(0.035969 0.0174293 0)
(0.0300591 0.0245297 0)
(0.0198512 0.0322343 0)
(0.00487967 0.0401409 0)
(-0.0148372 0.047433 0)
(-0.0386738 0.0532214 0)
(-0.0654984 0.0569191 0)
(-0.093959 0.0584239 0)
(-0.122762 0.0581105 0)
(-0.150898 0.0566144 0)
(-0.177728 0.0546641 0)
(-0.202963 0.0528892 0)
(-0.226582 0.0517786 0)
(-0.248752 0.0516646 0)
(-0.269737 0.0527749 0)
(-0.289884 0.0552701 0)
(-0.30957 0.0592979 0)
(-0.32923 0.0649686 0)
(-0.349312 0.072393 0)
(-0.370288 0.0816186 0)
(-0.392609 0.0926456 0)
(-0.416664 0.105394 0)
(-0.44278 0.119678 0)
(-0.471117 0.135216 0)
(-0.501828 0.151534 0)
(-0.534661 0.168066 0)
(-0.569688 0.183744 0)
(-0.606152 0.19749 0)
(-0.644246 0.20712 0)
(-0.682581 0.210268 0)
(-0.722289 0.202788 0)
(-0.760848 0.179675 0)
(-0.80236 0.132763 0)
(-0.842631 0.0524471 0)
(-0.892158 -0.0776252 0)
(-0.945534 -0.276362 0)
(-1.02647 -0.575913 0)
(-1.12732 -1.01951 0)
(-1.31486 -1.68505 0)
(-1.59747 -2.66963 0)
(-2.16017 -4.21275 0)
(0.000293188 -0.00372448 0)
(0.00334442 -0.00844671 0)
(0.0084438 -0.010934 0)
(0.0148251 -0.0114003 0)
(0.0217186 -0.00992058 0)