/*--------------------------------*- C++ -*----------------------------------*\
  =========                 |
  \\      /  F ield         | OpenFOAM: The Open Source CFD Toolbox
   \\    /   O peration     | Website:  https://openfoam.org
    \\  /    A nd           | Version:  7
     \\/     M anipulation  |
\*---------------------------------------------------------------------------*/
FoamFile
{
    version     2.0;
    format      ascii;
    class       surfaceScalarField;
    location    "0.49";
    object      ddtCorrDdt0(phi);
}
// * * * * * * * * * * * * * * * * * * * * * * * * * * * * * * * * * * * * * //

dimensions      [0 3 -2 0 0 0 0];

internalField   nonuniform List<scalar> 
139350
(
3.46397e-10
-3.51532e-10
7.59981e-10
-4.26993e-10
1.02338e-09
-2.7623e-10
1.09027e-09
-7.84035e-11
9.9714e-10
8.21677e-11
7.96911e-10
1.90542e-10
5.53696e-10
2.33483e-10
3.27164e-10
2.15483e-10
1.60967e-10
1.5551e-10
7.00511e-11
7.79254e-11
5.46356e-11
4.06943e-12
9.64323e-11
-5.33595e-11
1.75033e-10
-8.86762e-11
2.69548e-10
-1.03696e-10
3.60878e-10
-1.02136e-10
4.41541e-10
-9.01749e-11
4.95064e-10
-6.87268e-11
5.24577e-10
-3.99329e-11
5.11798e-10
-3.91943e-12
4.61527e-10
4.02194e-11
3.57852e-10
9.06102e-11
1.97968e-10
1.49962e-10
-3.20316e-11
2.17479e-10
-3.34346e-10
2.92066e-10
-7.27614e-10
3.75454e-10
-1.20168e-09
4.64348e-10
-1.7792e-09
5.57623e-10
-2.44245e-09
6.54371e-10
-3.20406e-09
7.46204e-10
-4.04462e-09
8.31892e-10
-4.96009e-09
9.00995e-10
-5.9072e-09
9.39918e-10
-6.86293e-09
9.34381e-10
-7.71802e-09
8.5108e-10
-8.41684e-09
6.73302e-10
-8.73562e-09
3.14185e-10
-8.53679e-09
-2.20652e-10
-7.39477e-09
-1.15321e-09
-5.01211e-09
-2.40143e-09
-5.85568e-10
-4.44517e-09
6.50546e-09
-7.11397e-09
1.75825e-08
-1.11012e-08
3.42746e-08
-1.67238e-08
5.79866e-08
-2.37409e-08
9.28472e-08
-3.48973e-08
1.3973e-07
-4.69167e-08
2.06276e-07
-6.65789e-08
2.88174e-07
-8.19324e-08
3.89428e-07
-1.01282e-07
-2.69143e-07
6.58539e-07
5.02108e-10
-8.59873e-10
1.22555e-09
-1.16495e-09
1.55561e-09
-6.20136e-10
1.24116e-09
2.23695e-10
3.72347e-10
9.39191e-10
-8.6601e-10
1.41837e-09
-2.25613e-09
1.61302e-09
-3.59206e-09
1.53925e-09
-4.73294e-09
1.2847e-09
-5.62787e-09
9.58763e-10
-6.28785e-09
6.51788e-10
-6.76937e-09
4.15784e-10
-7.14035e-09
2.71438e-10
-7.46672e-09
2.12733e-10
-7.80391e-09
2.23119e-10
-8.187e-09
2.82514e-10
-8.65589e-09
3.8346e-10
-9.22745e-09
5.20338e-10
-9.93963e-09
6.90334e-10
-1.08071e-08
8.96806e-10
-1.18676e-08
1.13712e-09
-1.31471e-08
1.41875e-09
-1.46849e-08
1.7414e-09
-1.65101e-08
2.10617e-09
-1.86715e-08
2.51733e-09
-2.11897e-08
2.97208e-09
-2.41219e-08
3.46854e-09
-2.7486e-08
4.00884e-09
-3.13344e-08
4.57819e-09
-3.56886e-08
5.17673e-09
-4.05884e-08
5.78482e-09
-4.60306e-08
6.37457e-09
-5.20276e-08
6.90794e-09
-5.84983e-08
7.31757e-09
-6.53836e-08
7.5312e-09
-7.24489e-08
7.37416e-09
-7.94528e-08
6.76003e-09
-8.58371e-08
5.2186e-09
-9.10294e-08
2.77057e-09
-9.36991e-08
-1.79585e-09
-9.27836e-08
-8.05466e-09
-8.53379e-08
-1.85731e-08
-6.91535e-08
-3.29428e-08
-3.91563e-08
-5.37694e-08
1.09057e-08
-8.49989e-08
8.49714e-08
-1.21019e-07
2.07949e-07
-1.89592e-07
3.45022e-07
-2.19041e-07
5.90211e-07
-3.46501e-07
-3.94021e-07
7.15056e-07
4.66273e-10
-1.33325e-09
1.32012e-09
-2.03422e-09
1.77075e-09
-1.08544e-09
1.2682e-09
7.13209e-10
-2.22433e-10
2.41735e-09
-2.45569e-09
3.6404e-09
-5.07575e-09
4.2218e-09
-7.71659e-09
4.16704e-09
-1.01017e-08
3.65728e-09
-1.20995e-08
2.94165e-09
-1.36948e-08
2.23402e-09
-1.49557e-08
1.66364e-09
-1.59829e-08
1.28715e-09
-1.68824e-08
1.10169e-09
-1.77478e-08
1.07574e-09
-1.86475e-08
1.17105e-09
-1.96498e-08
1.36787e-09
-2.07958e-08
1.65434e-09
-2.21458e-08
2.02151e-09
-2.37355e-08
2.47495e-09
-2.56244e-08
3.01132e-09
-2.78605e-08
3.64345e-09
-3.05059e-08
4.37196e-09
-3.36139e-08
5.20236e-09
-3.72597e-08
6.14224e-09
-4.14921e-08
7.19341e-09
-4.64012e-08
8.35529e-09
-5.20407e-08
9.63816e-09
-5.85066e-08
1.1027e-08
-6.5868e-08
1.25282e-08
-7.42216e-08
1.41214e-08
-8.36269e-08
1.5772e-08
-9.41634e-08
1.74194e-08
-1.05834e-07
1.89837e-08
-1.1864e-07
2.03083e-08
-1.3246e-07
2.11885e-08
-1.47072e-07
2.13481e-08
-1.62035e-07
2.01675e-08
-1.76742e-07
1.74561e-08
-1.89808e-07
1.1249e-08
-2.0018e-07
2.29046e-09
-2.04185e-07
-1.45963e-08
-1.99857e-07
-3.73075e-08
-1.80004e-07
-7.36552e-08
-1.37725e-07
-1.27319e-07
-6.85495e-08
-1.90233e-07
6.63839e-08
-3.24563e-07
2.08105e-07
-3.60801e-07
4.97418e-07
-6.35846e-07
-5.12358e-07
6.15722e-07
3.78572e-10
-1.71959e-09
1.26081e-09
-2.93264e-09
1.94932e-09
-1.78932e-09
1.68785e-09
9.61077e-10
1.61223e-10
3.93097e-09
-2.5134e-09
6.30326e-09
-5.95911e-09
7.65568e-09
-9.69787e-09
7.89207e-09
-1.33057e-08
7.25203e-09
-1.65182e-08
6.13838e-09
-1.92265e-08
4.92876e-09
-2.14495e-08
3.87312e-09
-2.32747e-08
3.10026e-09
-2.48203e-08
2.63628e-09
-2.62074e-08
2.44929e-09
-2.75376e-08
2.48961e-09
-2.89132e-08
2.72473e-09
-3.04059e-08
3.13449e-09
-3.21039e-08
3.69989e-09
-3.40669e-08
4.42585e-09
-3.63767e-08
5.30593e-09
-3.91019e-08
6.35665e-09
-4.23235e-08
7.57795e-09
-4.61128e-08
8.9794e-09
-5.05638e-08
1.05712e-08
-5.57436e-08
1.23617e-08
-6.17643e-08
1.43529e-08
-6.87031e-08
1.65662e-08
-7.66853e-08
1.89916e-08
-8.58137e-08
2.16462e-08
-9.62253e-08
2.4515e-08
-1.0803e-07
2.75682e-08
-1.21358e-07
3.07213e-08
-1.36288e-07
3.39093e-08
-1.52879e-07
3.68699e-08
-1.71119e-07
3.94224e-08
-1.9085e-07
4.10538e-08
-2.11748e-07
4.10509e-08
-2.33305e-07
3.89908e-08
-2.54177e-07
3.20989e-08
-2.73482e-07
2.15673e-08
-2.87378e-07
-7.29824e-10
-2.94015e-07
-3.07081e-08
-2.85986e-07
-8.17187e-08
-2.54908e-07
-1.5844e-07
-1.9881e-07
-2.46371e-07
-7.08856e-08
-4.52526e-07
6.81762e-08
-4.99901e-07
3.35987e-07
-9.0369e-07
-6.82154e-07
5.05748e-07
3.09392e-10
-2.03726e-09
1.14538e-09
-3.78544e-09
2.06189e-09
-2.72175e-09
2.31569e-09
6.93219e-10
1.34586e-09
4.88733e-09
-1.00539e-09
8.6423e-09
-4.52883e-09
1.11669e-08
-8.77845e-09
1.21274e-08
-1.32534e-08
1.17133e-08
-1.75557e-08
1.04245e-08
-2.14345e-08
8.79341e-09
-2.47867e-08
7.21138e-09
-2.76132e-08
5.91431e-09
-2.99851e-08
4.99675e-09
-3.20116e-08
4.46172e-09
-3.38086e-08
4.27456e-09
-3.55078e-08
4.40447e-09
-3.72151e-08
4.8288e-09
-3.90536e-08
5.51814e-09
-4.11138e-08
6.47358e-09
-4.35048e-08
7.68132e-09
-4.63182e-08
9.1576e-09
-4.96544e-08
1.0898e-08
-5.36007e-08
1.29131e-08
-5.8265e-08
1.52129e-08
-6.37263e-08
1.78111e-08
-7.01087e-08
2.07115e-08
-7.75007e-08
2.39472e-08
-8.6042e-08
2.75147e-08
-9.58519e-08
3.14454e-08
-1.07086e-07
3.57304e-08
-1.19882e-07
4.03561e-08
-1.34396e-07
4.52087e-08
-1.50753e-07
5.02613e-08
-1.69046e-07
5.51325e-08
-1.89324e-07
5.96936e-08
-2.11488e-07
6.3193e-08
-2.35274e-07
6.48221e-08
-2.60272e-07
6.3966e-08
-2.85204e-07
5.70074e-08
-3.09239e-07
4.55728e-08
-3.28763e-07
1.87648e-08
-3.4156e-07
-1.79502e-08
-3.41208e-07
-8.21059e-08
-3.17305e-07
-1.82387e-07
-2.70336e-07
-2.93381e-07
-1.53541e-07
-5.6936e-07
-1.00869e-08
-6.43395e-07
2.21088e-07
-1.1349e-06
-9.1376e-07
4.52659e-07
2.81621e-10
-2.32754e-09
1.04527e-09
-4.56642e-09
2.08577e-09
-3.77866e-09
2.8516e-09
-8.70776e-11
2.71511e-09
5.00998e-09
1.27049e-09
1.00743e-08
-1.55465e-09
1.39794e-08
-5.51598e-09
1.6074e-08
-1.01859e-08
1.63692e-08
-1.5125e-08
1.53469e-08
-1.99666e-08
1.36205e-08
-2.44591e-08
1.16896e-08
-2.84553e-08
9.89771e-09
-3.19048e-08
8.43454e-09
-3.48373e-08
7.37967e-09
-3.73325e-08
6.75737e-09
-3.9522e-08
6.57392e-09
-4.15337e-08
6.82716e-09
-4.35246e-08
7.48839e-09
-4.56213e-08
8.55739e-09
-4.79665e-08
1.00106e-08
-5.06811e-08
1.18595e-08
-5.38906e-08
1.40909e-08
-5.77017e-08
1.67112e-08
-6.22379e-08
1.9726e-08
-6.75893e-08
2.31502e-08
-7.38885e-08
2.69865e-08
-8.12298e-08
3.12772e-08
-8.97567e-08
3.60233e-08
-9.95941e-08
4.12718e-08
-1.10899e-07
4.70163e-08
-1.2382e-07
5.32689e-08
-1.38519e-07
5.988e-08
-1.55135e-07
6.68728e-08
-1.7378e-07
7.37466e-08
-1.94516e-07
8.04226e-08
-2.17287e-07
8.59383e-08
-2.41842e-07
8.93611e-08
-2.67809e-07
8.99101e-08
-2.94011e-07
8.31857e-08
-3.19486e-07
7.10184e-08
-3.41072e-07
4.03201e-08
-3.55869e-07
-3.1926e-09
-3.58768e-07
-7.92428e-08
-3.37753e-07
-2.03447e-07
-2.93744e-07
-3.37432e-07
-1.87581e-07
-6.75563e-07
-3.41908e-08
-7.96826e-07
1.72815e-07
-1.34194e-06
-1.20439e-06
4.63407e-07
2.86305e-10
-2.62284e-09
1.00149e-09
-5.29942e-09
2.07003e-09
-4.86403e-09
3.17266e-09
-1.20453e-09
3.7898e-09
4.37865e-09
3.41999e-09
1.04312e-08
1.75019e-09
1.56362e-08
-1.24886e-09
1.90579e-08
-5.35741e-09
2.04633e-08
-1.02355e-08
2.0208e-08
-1.55101e-08
1.88803e-08
-2.08404e-08
1.70052e-08
-2.5936e-08
1.49803e-08
-3.05864e-08
1.30728e-08
-3.4677e-08
1.14555e-08
-3.81834e-08
1.0251e-08
-4.11796e-08
9.54962e-09
-4.37771e-08
9.41095e-09
-4.61455e-08
9.83581e-09
-4.84396e-08
1.08383e-08
-5.08358e-08
1.23905e-08
-5.34885e-08
1.44992e-08
-5.6554e-08
1.71394e-08
-6.0165e-08
2.0309e-08
-6.44667e-08
2.40041e-08
-6.95653e-08
2.82363e-08
-7.56047e-08
3.30015e-08
-8.26861e-08
3.83468e-08
-9.09538e-08
4.42725e-08
-1.00533e-07
5.08398e-08
-1.11574e-07
5.80386e-08
-1.24224e-07
6.59104e-08
-1.38639e-07
7.42669e-08
-1.54951e-07
8.31801e-08
-1.73278e-07
9.20427e-08
-1.93668e-07
1.00805e-07
-2.16084e-07
1.08328e-07
-2.40275e-07
1.13536e-07
-2.65851e-07
1.15463e-07
-2.91756e-07
1.09067e-07
-3.16823e-07
9.6055e-08
-3.38348e-07
6.18152e-08
-3.52786e-07
1.1205e-08
-3.56144e-07
-7.59219e-08
-3.35651e-07
-2.23985e-07
-2.90492e-07
-3.82633e-07
-1.94065e-07
-7.72031e-07
-2.73919e-08
-9.6354e-07
1.64906e-07
-1.53427e-06
-1.56232e-06
5.22801e-07
3.05501e-10
-2.93763e-09
1.01126e-09
-6.02344e-09
2.07036e-09
-5.94036e-09
3.32901e-09
-2.47834e-09
4.43787e-09
3.25529e-09
4.95024e-09
9.90561e-09
4.44936e-09
1.61238e-08
2.69187e-09
2.08e-08
-3.40956e-10
2.34814e-08
-4.50343e-09
2.4353e-08
-9.53872e-09
2.39004e-08
-1.51328e-08
2.25843e-08
-2.09358e-08
2.07699e-08
-2.66108e-08
1.87356e-08
-3.18865e-08
1.6716e-08
-3.65874e-08
1.49388e-08
-4.06706e-08
1.3612e-08
-4.41755e-08
1.29018e-08
-4.72415e-08
1.28806e-08
-5.00238e-08
1.36071e-08
-5.27174e-08
1.50677e-08
-5.55038e-08
1.72723e-08
-5.85692e-08
2.01876e-08
-6.20757e-08
2.3802e-08
-6.61953e-08
2.80997e-08
-7.10568e-08
3.30851e-08
-7.68216e-08
3.87417e-08
-8.36031e-08
4.51163e-08
-9.155e-08
5.22007e-08
-1.00788e-07
6.0066e-08
-1.1146e-07
6.86914e-08
-1.23702e-07
7.81435e-08
-1.3766e-07
8.81972e-08
-1.53447e-07
9.89615e-08
-1.71175e-07
1.0974e-07
-1.90867e-07
1.20489e-07
-2.12484e-07
1.2992e-07
-2.3577e-07
1.36806e-07
-2.60302e-07
1.39971e-07
-2.85121e-07
1.33862e-07
-3.08896e-07
1.198e-07
-3.29309e-07
8.21977e-08
-3.42317e-07
2.41716e-08
-3.44807e-07
-7.34689e-08
-3.24311e-07
-2.44527e-07
-2.75764e-07
-4.31223e-07
-1.89829e-07
-8.58007e-07
-1.16486e-08
-1.14176e-06
1.81142e-07
-1.7271e-06
-1.96467e-06
5.83454e-07
3.25018e-10
-3.2722e-09
1.05255e-09
-6.76964e-09
2.11209e-09
-7.01753e-09
3.42105e-09
-3.80278e-09
4.77126e-09
1.89027e-09
5.8314e-09
8.83193e-09
6.2058e-09
1.57359e-08
5.56005e-09
2.14299e-08
3.70755e-09
2.53188e-08
6.01631e-10
2.74412e-08
-3.67609e-09
2.81626e-08
-8.9369e-09
2.78299e-08
-1.48805e-08
2.66998e-08
-2.11347e-08
2.49772e-08
-2.73235e-08
2.28894e-08
-3.31294e-08
2.07312e-08
-3.83667e-08
1.88282e-08
-4.29596e-08
1.74804e-08
-4.6971e-08
1.68705e-08
-5.05169e-08
1.7139e-08
-5.37807e-08
1.83148e-08
-5.69509e-08
2.04289e-08
-6.02318e-08
2.3451e-08
-6.38082e-08
2.73648e-08
-6.78776e-08
3.21448e-08
-7.25937e-08
3.77881e-08
-7.81398e-08
4.4263e-08
-8.46472e-08
5.16115e-08
-9.22753e-08
5.98099e-08
-1.01153e-07
6.89317e-08
-1.1142e-07
7.89389e-08
-1.23198e-07
8.99131e-08
-1.36623e-07
1.01594e-07
-1.51779e-07
1.14112e-07
-1.68767e-07
1.26697e-07
-1.87572e-07
1.39286e-07
-2.08151e-07
1.50473e-07
-2.30223e-07
1.58861e-07
-2.53347e-07
1.63071e-07
-2.7663e-07
1.5712e-07
-2.9863e-07
1.41769e-07
-3.17393e-07
1.0093e-07
-3.2854e-07
3.52776e-08
-3.29418e-07
-7.2629e-08
-3.096e-07
-2.6439e-07
-2.56952e-07
-4.83915e-07
-1.80462e-07
-9.34539e-07
-2.01602e-09
-1.32025e-06
2.14818e-07
-1.94397e-06
-2.37414e-06
6.24254e-07
3.40525e-10
-3.62254e-09
1.10212e-09
-7.55031e-09
2.18564e-09
-8.11903e-09
3.51746e-09
-5.1504e-09
4.96032e-09
4.32288e-10
6.28383e-09
7.49459e-09
7.16569e-09
1.48401e-08
7.27959e-09
2.12999e-08
6.37718e-09
2.62058e-08
4.29222e-09
2.9508e-08
9.53256e-10
3.14858e-08
-3.60633e-09
3.23739e-08
-9.20745e-09
3.2287e-08
-1.55338e-08
3.12908e-08
-2.21888e-08
2.95286e-08
-2.877e-08
2.72988e-08
-3.49727e-08
2.50094e-08
-4.05991e-08
2.30921e-08
-4.56106e-08
2.18602e-08
-5.00515e-08
2.15657e-08
-5.40627e-08
2.23091e-08
-5.78126e-08
2.4165e-08
-6.1502e-08
2.71225e-08
-6.5323e-08
3.11718e-08
-6.94873e-08
3.62847e-08
-7.41677e-08
4.24552e-08
-7.95678e-08
4.96382e-08
-8.58383e-08
5.78694e-08
-9.31532e-08
6.71058e-08
-1.01648e-07
7.74152e-08
-1.11466e-07
8.8737e-08
-1.22717e-07
1.01154e-07
-1.35523e-07
1.14373e-07
-1.4994e-07
1.28523e-07
-1.66052e-07
1.42778e-07
-1.83801e-07
1.57026e-07
-2.03134e-07
1.6978e-07
-2.23733e-07
1.79443e-07
-2.4515e-07
1.84463e-07
-2.66552e-07
1.78498e-07
-2.86405e-07
1.61591e-07
-3.03107e-07
1.176e-07
-3.12277e-07
4.44071e-08
-3.1094e-07
-7.40049e-08
-2.92351e-07
-2.83025e-07
-2.37581e-07
-5.3873e-07
-1.65117e-07
-1.00704e-06
-1.50042e-09
-1.48391e-06
2.48914e-07
-2.19442e-06
-2.79193e-06
6.66661e-07
3.53403e-10
-3.98602e-09
1.15028e-09
-8.36666e-09
2.27248e-09
-9.2596e-09
3.63477e-09
-6.52881e-09
5.11753e-09
-1.06589e-09
6.54197e-09
6.05602e-09
7.65091e-09
1.3717e-08
8.16889e-09
2.07654e-08
7.85859e-09
2.65003e-08
6.51641e-09
3.08318e-08
3.98616e-09
3.39999e-08
1.7966e-10
3.61646e-08
-4.85344e-09
3.73058e-08
-1.08989e-08
3.7323e-08
-1.76073e-08
3.6221e-08
-2.45612e-08
3.42387e-08
-3.139e-08
3.18165e-08
-3.78038e-08
2.94908e-08
-4.36694e-08
2.77038e-08
-4.89506e-08
2.68324e-08
-5.37276e-08
2.7069e-08
-5.81277e-08
2.8551e-08
-6.2327e-08
3.13038e-08
-6.65059e-08
3.53365e-08
-7.08737e-08
4.06279e-08
-7.56093e-08
4.7177e-08
-8.09272e-08
5.49312e-08
-8.69922e-08
6.39215e-08
-9.39925e-08
7.40871e-08
-1.02073e-07
8.54834e-08
-1.11379e-07
9.80238e-08
-1.22015e-07
1.11781e-07
-1.34093e-07
1.26422e-07
-1.47638e-07
1.42063e-07
-1.6272e-07
1.57829e-07
-1.79228e-07
1.73524e-07
-1.97106e-07
1.87632e-07
-2.15987e-07
1.98307e-07
-2.35412e-07
2.03864e-07
-2.54628e-07
1.97689e-07
-2.72033e-07
1.78964e-07
-2.86273e-07
1.31808e-07
-2.93425e-07
5.15175e-08
-2.89676e-07
-7.77931e-08
-2.7173e-07
-3.01017e-07
-2.18772e-07
-5.91733e-07
-1.45248e-07
-1.08061e-06
-1.35479e-09
-1.62785e-06
2.63569e-07
-2.45938e-06
-3.24738e-06
7.18984e-07
3.65781e-10
-4.36212e-09
1.19635e-09
-9.21708e-09
2.3623e-09
-1.04443e-08
3.76652e-09
-7.94947e-09
5.28381e-09
-2.5989e-09
6.74887e-09
4.57652e-09
7.93733e-09
1.25141e-08
8.61588e-09
2.00701e-08
8.5859e-09
2.65142e-08
7.65875e-09
3.17402e-08
5.6552e-09
3.59869e-08
2.42423e-09
3.93795e-08
-2.07687e-09
4.17924e-08
-7.73017e-09
4.29629e-08
-1.42596e-08
4.27341e-08
-2.12792e-08
4.1244e-08
-2.84046e-08
3.89199e-08
-3.52988e-08
3.63694e-08
-4.17636e-08
3.41465e-08
-4.76965e-08
3.27503e-08
-5.31188e-08
3.24739e-08
-5.81101e-08
3.35279e-08
-6.28102e-08
3.59856e-08
-6.73734e-08
3.98852e-08
-7.19917e-08
4.52213e-08
-7.68349e-08
5.20062e-08
-8.21161e-08
6.01874e-08
-8.80036e-08
6.97959e-08
-9.46931e-08
8.07574e-08
-1.02335e-07
9.31129e-08
-1.11079e-07
1.06749e-07
-1.21024e-07
1.21716e-07
-1.32274e-07
1.37645e-07
-1.44829e-07
1.54611e-07
-1.58742e-07
1.71712e-07
-1.73854e-07
1.88626e-07
-1.90099e-07
2.03852e-07
-2.07074e-07
2.15264e-07
-2.24292e-07
2.21057e-07
-2.4109e-07
2.14462e-07
-2.55854e-07
1.93696e-07
-2.67355e-07
1.43277e-07
-2.72369e-07
5.64897e-08
-2.66537e-07
-8.36638e-08
-2.48129e-07
-3.19471e-07
-1.99862e-07
-6.40045e-07
-1.2561e-07
-1.15491e-06
4.56696e-09
-1.75807e-06
2.60188e-07
-2.71504e-06
-3.73878e-06
7.51546e-07
3.78634e-10
-4.75133e-09
1.24236e-09
-1.01011e-08
2.45285e-09
-1.16739e-08
3.90493e-09
-9.41831e-09
5.46319e-09
-4.17316e-09
6.95779e-09
3.06716e-09
8.17185e-09
1.12853e-08
8.89314e-09
1.93317e-08
8.95321e-09
2.64377e-08
8.19149e-09
3.24829e-08
6.43951e-09
3.77221e-08
3.52992e-09
4.22727e-08
-6.24258e-10
4.59318e-08
-5.96671e-09
4.82916e-08
-1.22828e-08
4.90335e-08
-1.9231e-08
4.81775e-08
-2.64437e-08
4.61104e-08
-3.35731e-08
4.34828e-08
-4.03899e-08
4.0941e-08
-4.67511e-08
3.90962e-08
-5.26349e-08
3.83401e-08
-5.80808e-08
3.89592e-08
-6.31928e-08
4.1079e-08
-6.80945e-08
4.47722e-08
-7.29529e-08
5.00548e-08
-7.79184e-08
5.69572e-08
-8.31908e-08
6.54349e-08
-8.89317e-08
7.55232e-08
-9.53342e-08
8.71408e-08
-1.02548e-07
1.00315e-07
-1.10725e-07
1.14906e-07
-1.19955e-07
1.30936e-07
-1.30339e-07
1.48001e-07
-1.4185e-07
1.66115e-07
-1.54531e-07
1.84364e-07
-1.6818e-07
2.02265e-07
-1.82715e-07
2.18361e-07
-1.9771e-07
2.30241e-07
-2.1265e-07
2.35972e-07
-2.26946e-07
2.28733e-07
-2.39035e-07
2.05752e-07
-2.47766e-07
1.51976e-07
-2.5054e-07
5.92212e-08
-2.43118e-07
-9.11252e-08
-2.23889e-07
-3.38747e-07
-1.80628e-07
-6.83352e-07
-1.08635e-07
-1.22694e-06
1.39643e-08
-1.88071e-06
2.47325e-07
-2.94844e-06
-4.23117e-06
7.39673e-07
3.9205e-10
-5.1542e-09
1.28966e-09
-1.10193e-08
2.54526e-09
-1.2949e-08
4.04722e-09
-1.09374e-08
5.65109e-09
-5.79335e-09
7.17793e-09
1.52526e-09
8.40713e-09
1.00411e-08
9.13107e-09
1.85903e-08
9.1958e-09
2.63562e-08
8.46027e-09
3.3199e-08
6.77272e-09
3.93925e-08
3.9714e-09
4.50573e-08
-4.09039e-11
4.99289e-08
-5.23357e-09
5.34702e-08
-1.14262e-08
5.52093e-08
-1.83102e-08
5.50464e-08
-2.55398e-08
5.33176e-08
-3.27748e-08
5.07015e-08
-3.97791e-08
4.79229e-08
-4.63922e-08
4.56936e-08
-5.25692e-08
4.44993e-08
-5.83237e-08
4.46987e-08
-6.37328e-08
4.64694e-08
-6.88945e-08
4.99188e-08
-7.39507e-08
5.5086e-08
-7.90293e-08
6.20211e-08
-8.43115e-08
7.06921e-08
-8.9944e-08
8.11418e-08
-9.61101e-08
9.32878e-08
-1.02952e-07
1.07144e-07
-1.10617e-07
1.22551e-07
-1.19186e-07
1.39494e-07
-1.28754e-07
1.57542e-07
-1.39273e-07
1.76627e-07
-1.50775e-07
1.95836e-07
-1.63023e-07
2.14503e-07
-1.7592e-07
2.31232e-07
-1.89027e-07
2.4333e-07
-2.01807e-07
2.48726e-07
-2.13727e-07
2.40627e-07
-2.23312e-07
2.15304e-07
-2.29521e-07
1.58152e-07
-2.30161e-07
5.98185e-08
-2.21574e-07
-9.97517e-08
-2.02021e-07
-3.58348e-07
-1.62808e-07
-7.22611e-07
-9.69213e-08
-1.29288e-06
1.94632e-08
-1.99714e-06
2.27684e-07
-3.1567e-06
-4.69648e-06
6.92954e-07
4.05892e-10
-5.57117e-09
1.33938e-09
-1.19738e-08
2.64059e-09
-1.42701e-08
4.19349e-09
-1.25077e-08
5.84497e-09
-7.46146e-09
7.4068e-09
-5.19644e-11
8.65241e-09
8.78008e-09
9.37183e-09
1.78531e-08
9.41448e-09
2.62964e-08
8.64727e-09
3.39465e-08
6.92807e-09
4.10941e-08
4.10375e-09
4.78646e-08
8.12119e-11
5.3936e-08
-5.11142e-09
5.86484e-08
-1.13033e-08
6.13839e-08
-1.82e-08
6.19275e-08
-2.54695e-08
6.05645e-08
-3.27816e-08
5.79968e-08
-3.9903e-08
5.50215e-08
-4.66705e-08
5.24452e-08
-5.30303e-08
5.08411e-08
-5.89842e-08
5.06375e-08
-6.45954e-08
5.20615e-08
-6.99438e-08
5.5252e-08
-7.51525e-08
6.02697e-08
-8.03305e-08
6.71839e-08
-8.56399e-08
7.59765e-08
-9.12107e-08
8.66985e-08
-9.72127e-08
9.92706e-08
-1.03776e-07
1.13695e-07
-1.11041e-07
1.29795e-07
-1.19074e-07
1.47517e-07
-1.27965e-07
1.66406e-07
-1.37649e-07
1.86302e-07
-1.48143e-07
2.06301e-07
-1.59193e-07
2.25542e-07
-1.70676e-07
2.42689e-07
-1.82158e-07
2.54794e-07
-1.93093e-07
2.59636e-07
-2.02972e-07
2.5048e-07
-2.10445e-07
2.22745e-07
-2.14617e-07
1.62292e-07
-2.13526e-07
5.8685e-08
-2.04209e-07
-1.09109e-07
-1.85162e-07
-3.77441e-07
-1.4942e-07
-7.58401e-07
-9.07992e-08
-1.35154e-06
1.80525e-08
-2.10604e-06
2.01477e-07
-3.34017e-06
-5.1117e-06
6.16649e-07
4.20101e-10
-6.0026e-09
1.39084e-09
-1.29659e-08
2.73918e-09
-1.56386e-08
4.34431e-09
-1.41305e-08
6.04457e-09
-9.17864e-09
7.64245e-09
-1.66557e-09
8.90601e-09
7.50083e-09
9.62173e-09
1.71193e-08
9.63772e-09
2.62628e-08
8.82145e-09
3.47428e-08
7.03261e-09
4.2865e-08
4.12229e-09
5.07576e-08
3.65262e-12
5.80389e-08
-5.28833e-09
6.39256e-08
-1.15781e-08
6.76562e-08
-1.85707e-08
6.89043e-08
-2.5937e-08
6.79079e-08
-3.33512e-08
6.53937e-08
-4.0584e-08
6.22315e-08
-4.74744e-08
5.93192e-08
-5.39688e-08
5.73173e-08
-6.00658e-08
5.67189e-08
-6.58217e-08
5.77983e-08
-7.13087e-08
6.07234e-08
-7.66391e-08
6.5575e-08
-8.19085e-08
7.24379e-08
-8.72645e-08
8.13077e-08
-9.28247e-08
9.22443e-08
-9.87449e-08
1.05172e-07
-1.05143e-07
1.2008e-07
-1.12148e-07
1.36781e-07
-1.19816e-07
1.55175e-07
-1.28228e-07
1.74791e-07
-1.37304e-07
1.9537e-07
-1.47049e-07
2.16018e-07
-1.57203e-07
2.35684e-07
-1.67612e-07
2.53073e-07
-1.77862e-07
2.65025e-07
-1.87413e-07
2.69161e-07
-1.95755e-07
2.58795e-07
-2.01689e-07
2.28646e-07
-2.0447e-07
1.6504e-07
-2.02305e-07
5.64772e-08
-1.92851e-07
-1.18603e-07
-1.75121e-07
-3.95218e-07
-1.42844e-07
-7.90725e-07
-9.17087e-08
-1.40272e-06
6.7701e-09
-2.20457e-06
1.67294e-07
-3.50074e-06
-5.46496e-06
5.20511e-07
4.34686e-10
-6.44888e-09
1.44378e-09
-1.39967e-08
2.84104e-09
-1.70565e-08
4.4999e-09
-1.58074e-08
6.25023e-09
-1.09462e-08
7.88467e-09
-3.31606e-09
9.1665e-09
6.20297e-09
9.87922e-09
1.63881e-08
9.86857e-09
2.62556e-08
8.99951e-09
3.55916e-08
7.12901e-09
4.47172e-08
4.10796e-09
5.3761e-08
-1.46233e-10
6.22769e-08
-5.58999e-09
6.93543e-08
-1.20375e-08
7.4086e-08
-1.91855e-08
7.6036e-08
-2.66998e-08
7.5399e-08
-3.42537e-08
7.293e-08
-4.1619e-08
6.95737e-08
-4.86374e-08
6.63208e-08
-5.5257e-08
6.39184e-08
-6.1478e-08
6.29241e-08
-6.73562e-08
6.3657e-08
-7.29613e-08
6.63127e-08
-7.84008e-08
7.09894e-08
-8.37646e-08
7.7786e-08
-8.9192e-08
8.67104e-08
-9.47903e-08
9.78279e-08
-1.00706e-07
1.11068e-07
-1.07048e-07
1.26408e-07
-1.13936e-07
1.43649e-07
-1.21415e-07
1.62644e-07
-1.29559e-07
1.82909e-07
-1.38278e-07
2.04081e-07
-1.47564e-07
2.25276e-07
-1.57161e-07
2.45269e-07
-1.66889e-07
2.62775e-07
-1.76358e-07
2.74475e-07
-1.8505e-07
2.77827e-07
-1.92448e-07
2.66168e-07
-1.97514e-07
2.33678e-07
-1.99621e-07
1.67114e-07
-1.97189e-07
5.4003e-08
-1.88363e-07
-1.2747e-07
-1.7266e-07
-4.10968e-07
-1.44311e-07
-8.19122e-07
-1.01031e-07
-1.44605e-06
-1.50952e-08
-2.29055e-06
1.21886e-07
-3.63776e-06
-5.74906e-06
4.05942e-07
4.49679e-10
-6.9104e-09
1.49818e-09
-1.50672e-08
2.94613e-09
-1.85255e-08
4.66026e-09
-1.754e-08
6.46217e-09
-1.27657e-08
8.1338e-09
-5.00408e-09
9.4338e-09
4.88661e-09
1.01433e-08
1.56599e-08
1.01056e-08
2.6275e-08
9.18236e-09
3.64942e-08
7.22601e-09
4.66549e-08
4.08487e-09
5.68842e-08
-3.21316e-10
6.66667e-08
-5.94089e-09
7.49583e-08
-1.25764e-08
8.07034e-08
-1.99135e-08
8.33563e-08
-2.7609e-08
8.30713e-08
-3.53321e-08
8.06349e-08
-4.28529e-08
7.70714e-08
-5.00147e-08
7.34654e-08
-5.67674e-08
7.06525e-08
-6.31139e-08
6.92545e-08
-6.91115e-08
6.96351e-08
-7.48311e-08
7.20162e-08
-8.03795e-08
7.65128e-08
-8.58455e-08
8.32358e-08
-9.13648e-08
9.22051e-08
-9.70415e-08
1.0349e-07
-1.03017e-07
1.17025e-07
-1.09392e-07
1.32771e-07
-1.16283e-07
1.50521e-07
-1.23727e-07
1.70077e-07
-1.31791e-07
1.90948e-07
-1.40382e-07
2.12662e-07
-1.49479e-07
2.34346e-07
-1.58839e-07
2.54617e-07
-1.68261e-07
2.72172e-07
-1.77387e-07
2.83583e-07
-1.85722e-07
2.86135e-07
-1.9277e-07
2.73191e-07
-1.97639e-07
2.38514e-07
-1.9978e-07
1.69223e-07
-1.97913e-07
5.20939e-08
-1.90543e-07
-1.34881e-07
-1.77582e-07
-4.23977e-07
-1.53943e-07
-8.42808e-07
-1.19156e-07
-1.48089e-06
-4.74615e-08
-2.36229e-06
6.29546e-08
-3.74822e-06
-5.96262e-06
2.76468e-07
4.65101e-10
-7.3876e-09
1.55407e-09
-1.61786e-08
3.05447e-09
-2.00473e-08
4.8254e-09
-1.93296e-08
6.68047e-09
-1.46386e-08
8.39012e-09
-6.73045e-09
9.70825e-09
3.55177e-09
1.0414e-08
1.49351e-08
1.03482e-08
2.63221e-08
9.36899e-09
3.74524e-08
7.3237e-09
4.86812e-08
4.05726e-09
6.01324e-08
-5.09067e-10
7.12162e-08
-6.31602e-09
8.07494e-08
-1.31543e-08
8.75234e-08
-2.06976e-08
9.08823e-08
-2.85924e-08
9.09426e-08
-3.65023e-08
8.85262e-08
-4.41944e-08
8.47402e-08
-5.15128e-08
8.07663e-08
-5.84087e-08
7.75296e-08
-6.48875e-08
7.5717e-08
-7.10092e-08
7.5737e-08
-7.68466e-08
7.78373e-08
-8.25087e-08
8.21498e-08
-8.80857e-08
8.87965e-08
-9.37137e-08
9.78087e-08
-9.94971e-08
1.09258e-07
-1.05576e-07
1.23084e-07
-1.12049e-07
1.39231e-07
-1.1903e-07
1.57482e-07
-1.26553e-07
1.7759e-07
-1.34681e-07
1.9905e-07
-1.43322e-07
2.21293e-07
-1.52447e-07
2.43444e-07
-1.61829e-07
2.63987e-07
-1.71258e-07
2.81576e-07
-1.80407e-07
2.92712e-07
-1.88816e-07
2.94518e-07
-1.96029e-07
2.80378e-07
-2.01285e-07
2.43737e-07
-2.04111e-07
1.72016e-07
-2.03584e-07
5.15247e-08
-1.98493e-07
-1.40012e-07
-1.89053e-07
-4.33464e-07
-1.71032e-07
-8.60876e-07
-1.45533e-07
-1.50643e-06
-9.01815e-08
-2.41769e-06
-8.84958e-09
-3.82959e-06
-6.10243e-06
1.30917e-07
4.80969e-10
-7.88092e-09
1.61148e-09
-1.73319e-08
3.16609e-09
-2.16236e-08
4.99534e-09
-2.11779e-08
6.90519e-09
-1.65666e-08
8.6538e-09
-8.49612e-09
9.9902e-09
2.19832e-09
1.06916e-08
1.42142e-08
1.05966e-08
2.63981e-08
9.55921e-09
3.84685e-08
7.42162e-09
5.07993e-08
4.02521e-09
6.35101e-08
-7.07399e-10
7.59316e-08
-6.70925e-09
8.67349e-08
-1.3759e-08
9.45544e-08
-2.15178e-08
9.86233e-08
-2.96216e-08
9.90229e-08
-3.77279e-08
9.66134e-08
-4.56005e-08
9.25893e-08
-5.30836e-08
8.82314e-08
-6.01298e-08
8.45568e-08
-6.67469e-08
8.23175e-08
-7.29973e-08
8.19674e-08
-7.89568e-08
8.37802e-08
-8.47369e-08
8.79051e-08
-9.04316e-08
9.44746e-08
-9.61789e-08
1.03532e-07
-1.02087e-07
1.15151e-07
-1.08296e-07
1.29274e-07
-1.14907e-07
1.4583e-07
-1.22034e-07
1.6459e-07
-1.29711e-07
1.85257e-07
-1.38e-07
2.07314e-07
-1.46814e-07
2.30098e-07
-1.56118e-07
2.52722e-07
-1.6571e-07
2.73566e-07
-1.75377e-07
2.91218e-07
-1.84826e-07
3.02143e-07
-1.9364e-07
3.03304e-07
-2.01421e-07
2.88134e-07
-2.07542e-07
2.49824e-07
-2.116e-07
1.76041e-07
-2.13032e-07
5.29152e-08
-2.10947e-07
-1.42138e-07
-2.05831e-07
-4.38628e-07
-1.94414e-07
-8.7234e-07
-1.79221e-07
-1.52167e-06
-1.4248e-07
-2.45448e-06
-9.32639e-08
-3.87885e-06
-6.17057e-06
-2.51676e-08
4.97299e-10
-8.39083e-09
1.67041e-09
-1.85281e-08
3.28103e-09
-2.32563e-08
5.17017e-09
-2.30864e-08
7.13642e-09
-1.85513e-08
8.925e-09
-1.03021e-08
1.02799e-08
8.25996e-10
1.09767e-08
1.34978e-08
1.08511e-08
2.65041e-08
9.75339e-09
3.95447e-08
7.51999e-09
5.30129e-08
3.98883e-09
6.70223e-08
-9.15912e-10
8.08188e-08
-7.11926e-09
9.29215e-08
-1.43873e-08
1.01804e-07
-2.23684e-08
1.06586e-07
-3.06877e-08
1.07318e-07
-3.89962e-08
1.04902e-07
-4.70543e-08
1.00624e-07
-5.47069e-08
9.58656e-08
-6.19073e-08
9.1738e-08
-6.86661e-08
8.90595e-08
-7.50481e-08
8.83292e-08
-8.11323e-08
8.98477e-08
-8.70332e-08
9.37813e-08
-9.28492e-08
1.00274e-07
-9.87217e-08
1.0938e-07
-1.04763e-07
1.21177e-07
-1.11118e-07
1.3561e-07
-1.17889e-07
1.52588e-07
-1.25194e-07
1.71875e-07
-1.33069e-07
1.93122e-07
-1.41576e-07
2.15797e-07
-1.50641e-07
2.39153e-07
-1.60224e-07
2.62279e-07
-1.70147e-07
2.83476e-07
-1.80208e-07
3.01254e-07
-1.90152e-07
3.12068e-07
-1.99605e-07
3.1273e-07
-2.08247e-07
2.96752e-07
-2.15592e-07
2.57136e-07
-2.21328e-07
1.81744e-07
-2.25215e-07
5.67605e-08
-2.26752e-07
-1.40642e-07
-2.26742e-07
-4.38684e-07
-2.22943e-07
-8.76185e-07
-2.19246e-07
-1.52542e-06
-2.03475e-07
-2.47029e-06
-1.89594e-07
-3.89278e-06
-6.16637e-06
-1.93845e-07
5.14104e-10
-8.91781e-09
1.73087e-09
-1.97682e-08
3.3993e-09
-2.49472e-08
5.34992e-09
-2.50567e-08
7.37408e-09
-2.05942e-08
9.20389e-09
-1.21497e-08
1.05777e-08
-5.65556e-10
1.12694e-08
1.27859e-08
1.11124e-08
2.66413e-08
9.95208e-09
4.06832e-08
7.61937e-09
5.53254e-08
3.94871e-09
7.06737e-08
-1.13394e-09
8.58836e-08
-7.54518e-09
9.93156e-08
-1.5038e-08
1.09277e-07
-2.32475e-08
1.14777e-07
-3.17875e-08
1.15834e-07
-4.03027e-08
1.13397e-07
-4.855e-08
1.08848e-07
-5.63748e-08
1.03672e-07
-6.37318e-08
9.90755e-08
-7.0634e-08
9.59446e-08
-7.71489e-08
9.48239e-08
-8.33588e-08
9.60406e-08
-8.93816e-08
9.97794e-08
-9.53204e-08
1.06196e-07
-1.01321e-07
1.15357e-07
-1.075e-07
1.27341e-07
-1.14007e-07
1.42098e-07
-1.20951e-07
1.59519e-07
-1.28449e-07
1.79354e-07
-1.36548e-07
2.01211e-07
-1.45307e-07
2.24532e-07
-1.54666e-07
2.48502e-07
-1.64588e-07
2.72175e-07
-1.7492e-07
2.93795e-07
-1.85474e-07
3.11784e-07
-1.96043e-07
3.22618e-07
-2.06303e-07
3.22963e-07
-2.16014e-07
3.06439e-07
-2.24843e-07
2.65932e-07
-2.32611e-07
1.8948e-07
-2.39357e-07
6.34651e-08
-2.45033e-07
-1.35006e-07
-2.50845e-07
-4.32918e-07
-2.55689e-07
-8.71387e-07
-2.64767e-07
-1.51639e-06
-2.7215e-07
-2.46296e-06
-2.96578e-07
-3.8684e-06
-6.08951e-06
-3.73482e-07
5.31404e-10
-9.46233e-09
1.79286e-09
-2.10534e-08
3.5209e-09
-2.66981e-08
5.53468e-09
-2.70905e-08
7.61794e-09
-2.26965e-08
9.49062e-09
-1.40404e-08
1.08838e-08
-1.9768e-09
1.15703e-08
1.2079e-08
1.13809e-08
2.68105e-08
1.01559e-08
4.1886e-08
7.72054e-09
5.77402e-08
3.90575e-09
7.44688e-08
-1.36046e-09
9.11315e-08
-7.98584e-09
1.05923e-07
-1.57098e-08
1.16981e-07
-2.41536e-08
1.23202e-07
-3.29193e-08
1.24576e-07
-4.16453e-08
1.22103e-07
-5.00851e-08
1.17264e-07
-5.80844e-08
1.11652e-07
-6.55995e-08
1.06571e-07
-7.2646e-08
1.02974e-07
-7.92943e-08
1.01452e-07
-8.56301e-08
1.02359e-07
-9.17747e-08
1.059e-07
-9.78364e-08
1.1224e-07
-1.03965e-07
1.21462e-07
-1.10284e-07
1.33645e-07
-1.16947e-07
1.48742e-07
-1.24068e-07
1.66628e-07
-1.3177e-07
1.87038e-07
-1.40105e-07
2.09535e-07
-1.49136e-07
2.3354e-07
-1.58816e-07
2.58173e-07
-1.69114e-07
2.82449e-07
-1.79904e-07
3.04572e-07
-1.9102e-07
3.22875e-07
-2.02301e-07
3.33881e-07
-2.13487e-07
3.34123e-07
-2.24424e-07
3.17352e-07
-2.34933e-07
2.76408e-07
-2.45014e-07
1.99529e-07
-2.54962e-07
7.33731e-08
-2.65224e-07
-1.24783e-07
-2.77495e-07
-4.20694e-07
-2.91983e-07
-8.56945e-07
-3.15165e-07
-1.49326e-06
-3.47537e-07
-2.43063e-06
-4.12669e-07
-3.80331e-06
-5.94022e-06
-5.61999e-07
5.49214e-10
-1.00249e-08
1.8564e-09
-2.23845e-08
3.64583e-09
-2.85106e-08
5.72449e-09
-2.91894e-08
7.86838e-09
-2.48597e-08
9.78539e-09
-1.59759e-08
1.11985e-08
-3.40837e-09
1.18798e-08
1.1377e-08
1.1657e-08
2.70127e-08
1.03656e-08
4.3155e-08
7.82432e-09
6.02604e-08
3.86097e-09
7.84121e-08
-1.59421e-09
9.6568e-08
-8.43976e-09
1.12751e-07
-1.64009e-08
1.24923e-07
-2.50848e-08
1.31866e-07
-3.40814e-08
1.33548e-07
-4.30223e-08
1.31023e-07
-5.16576e-08
1.25875e-07
-5.98336e-08
1.19809e-07
-6.75082e-08
1.14226e-07
-7.46996e-08
1.10148e-07
-8.14814e-08
1.08213e-07
-8.79426e-08
1.08803e-07
-9.42084e-08
1.12141e-07
-1.00393e-07
1.18407e-07
-1.06649e-07
1.27695e-07
-1.13109e-07
1.40089e-07
-1.19929e-07
1.55543e-07
-1.27231e-07
1.73918e-07
-1.35141e-07
1.94929e-07
-1.43721e-07
2.18105e-07