/*--------------------------------*- C++ -*----------------------------------*\
  =========                 |
  \\      /  F ield         | OpenFOAM: The Open Source CFD Toolbox
   \\    /   O peration     | Website:  https://openfoam.org
    \\  /    A nd           | Version:  7
     \\/     M anipulation  |
\*---------------------------------------------------------------------------*/
FoamFile
{
    version     2.0;
    format      ascii;
    class       volScalarField;
    location    "0.49";
    object      p;
}
// * * * * * * * * * * * * * * * * * * * * * * * * * * * * * * * * * * * * * //

dimensions      [0 2 -2 0 0 0 0];

internalField   nonuniform List<scalar> 
70000
(
0.108069
0.0306152
0.0180965
0.0205438
0.0207171
0.0196654
0.0187335
0.0180338
0.0174557
0.0169516
0.016508
0.0161169
0.0157708
0.0154628
0.0151876
0.0149409
0.0147192
0.0145194
0.0143394
0.014177
0.0140308
0.0138993
0.0137816
0.0136767
0.013584
0.0135027
0.0134327
0.0133734
0.0133248
0.0132867
0.0132591
0.0132419
0.0132354
0.0132395
0.0132546
0.0132804
0.0133173
0.0133645
0.0134214
0.0134874
0.0135577
0.0136339
0.0136987
0.013763
0.0137758
0.0137798
0.0136247
0.0134888
0.0128379
0.0125957
0.103701
0.030982
0.0182995
0.0206395
0.0207718
0.0197015
0.0187617
0.018057
0.0174752
0.0169683
0.0165226
0.0161298
0.0157822
0.0154732
0.0151971
0.0149496
0.0147271
0.0145268
0.0143462
0.0141834
0.0140368
0.013905
0.013787
0.0136818
0.0135888
0.0135073
0.013437
0.0133776
0.0133288
0.0132905
0.0132627
0.0132454
0.0132388
0.0132427
0.0132577
0.0132834
0.0133201
0.0133672
0.0134241
0.01349
0.0135601
0.0136363
0.013701
0.0137654
0.013778
0.013782
0.0136269
0.0134896
0.0128426
0.0126189
0.10012
0.0319219
0.0186398
0.0207686
0.020846
0.0197462
0.0187941
0.0180832
0.017497
0.0169867
0.0165385
0.0161438
0.0157947
0.0154843
0.0152072
0.0149588
0.0147356
0.0145347
0.0143535
0.0141903
0.0140432
0.013911
0.0137927
0.0136872
0.0135939
0.0135121
0.0134416
0.013382
0.013333
0.0132945
0.0132665
0.013249
0.0132423
0.0132461
0.0132609
0.0132865
0.0133231
0.0133701
0.0134268
0.0134927
0.0135628
0.013639
0.0137037
0.0137683
0.0137812
0.0137858
0.0136314
0.013494
0.0128682
0.0126335
0.0970262
0.0330237
0.0191092
0.0209425
0.0209469
0.0198037
0.0188322
0.0181132
0.0175216
0.0170072
0.0165559
0.0161589
0.015808
0.0154962
0.0152179
0.0149686
0.0147446
0.0145429
0.0143612
0.0141973
0.0140498
0.0139173
0.0137985
0.0136927
0.0135991
0.0135171
0.0134463
0.0133864
0.0133372
0.0132985
0.0132704
0.0132527
0.0132458
0.0132495
0.0132642
0.0132896
0.0133261
0.013373
0.0134296
0.0134955
0.0135656
0.0136419
0.0137069
0.013772
0.0137858
0.0137915
0.0136404
0.0135026
0.0129147
0.0126463
0.0940667
0.03412
0.019675
0.021163
0.0210814
0.0198816
0.0188812
0.0181502
0.0175516
0.0170318
0.0165765
0.0161765
0.0158233
0.0155098
0.01523
0.0149795
0.0147545
0.014552
0.0143695
0.0142051
0.0140571
0.013924
0.0138048
0.0136986
0.0136047
0.0135224
0.0134514
0.0133912
0.0133418
0.0133029
0.0132745
0.0132567
0.0132496
0.0132531
0.0132676
0.0132929
0.0133293
0.0133761
0.0134327
0.0134985
0.0135688
0.0136454
0.013711
0.0137768
0.0137924
0.0137998
0.0136553
0.0135176
0.0129814
0.0126801
0.0911576
0.0351589
0.0202901
0.0214099
0.0212436
0.0199813
0.0189436
0.0181966
0.0175889
0.0170622
0.0166017
0.0161978
0.0158417
0.0155259
0.0152443
0.0149923
0.014766
0.0145625
0.0143792
0.014214
0.0140653
0.0139316
0.013812
0.0137053
0.013611
0.0135283
0.013457
0.0133965
0.0133468
0.0133077
0.0132791
0.013261
0.0132537
0.0132571
0.0132715
0.0132966
0.0133329
0.0133796
0.0134362
0.0135022
0.0135727
0.0136497
0.0137162
0.0137832
0.0138016
0.0138116
0.0136775
0.0135426
0.0130689
0.0127499
0.0882928
0.0361213
0.0209207
0.0216617
0.0214202
0.0200983
0.0190183
0.0182522
0.017634
0.0170992
0.0166323
0.0162236
0.015864
0.0155453
0.0152614
0.0150076
0.0147798
0.0145749
0.0143905
0.0142244
0.0140748
0.0139405
0.0138202
0.013713
0.0136182
0.0135351
0.0134634
0.0134026
0.0133526
0.0133132
0.0132843
0.013266
0.0132585
0.0132617
0.0132759
0.0133009
0.0133371
0.0133838
0.0134405
0.0135066
0.0135775
0.0136552
0.0137229
0.0137917
0.0138142
0.013828
0.0137085
0.0135808
0.0131786
0.0128665
0.0854783
0.0369993
0.021551
0.0219066
0.0216005
0.020226
0.019102
0.018315
0.0176856
0.017142
0.016668
0.016254
0.0158902
0.0155682
0.0152817
0.0150256
0.014796
0.0145896
0.0144038
0.0142366
0.0140861
0.0139509
0.0138299
0.013722
0.0136266
0.0135431
0.0134709
0.0134097
0.0133593
0.0133195
0.0132904
0.0132719
0.0132642
0.0132671
0.0132812
0.0133061
0.0133422
0.013389
0.0134457
0.0135121
0.0135835
0.0136621
0.0137317
0.0138028
0.0138309
0.01385
0.0137495
0.0136349
0.0133118
0.0130382
0.0827199
0.03779
0.0221757
0.0221404
0.0217783
0.0203596
0.0191912
0.0183823
0.0177417
0.0171893
0.016708
0.0162882
0.0159199
0.0155944
0.015305
0.0150464
0.0148147
0.0146066
0.0144193
0.0142508
0.0140992
0.013963
0.0138411
0.0137325
0.0136365
0.0135523
0.0134796
0.0134179
0.0133671
0.013327
0.0132976
0.0132788
0.0132708
0.0132736
0.0132875
0.0133123
0.0133483
0.0133952
0.0134521
0.013519
0.0135911
0.013671
0.0137429
0.013817
0.0138522
0.0138785
0.0138015
0.0137072
0.0134699
0.0132697
0.0800223
0.0384932
0.0227938
0.022363
0.0219507
0.0204964
0.019284
0.0184523
0.0178005
0.0172394
0.0167508
0.0163253
0.0159524
0.0156232
0.0153307
0.0150696
0.0148357
0.0146257
0.0144368
0.0142669
0.014114
0.0139768
0.013854
0.0137445
0.0136477
0.0135629
0.0134896
0.0134274
0.0133762
0.0133357
0.0133059
0.0132868
0.0132785
0.0132811
0.0132949
0.0133196
0.0133556
0.0134027
0.0134598
0.0135273
0.0136005
0.0136818
0.0137568
0.0138345
0.0138785
0.0139143
0.0138651
0.0137994
0.0136538
0.0135607
0.0773887
0.0391094
0.0234043
0.0225751
0.0221162
0.0206349
0.0193793
0.0185238
0.0178607
0.0172914
0.0167955
0.0163642
0.0159868
0.015654
0.0153584
0.0150947
0.0148586
0.0146466
0.0144561
0.0142846
0.0141305
0.0139921
0.0138682
0.0137579
0.0136603
0.0135748
0.0135009
0.0134381
0.0133864
0.0133455
0.0133153
0.0132959
0.0132874
0.0132898
0.0133034
0.0133282
0.0133642
0.0134115
0.013469
0.0135372
0.0136116
0.0136948
0.0137734
0.0138557
0.01391
0.0139577
0.0139401
0.0139115
0.0138631
0.013906
0.074822
0.0396388
0.0240059
0.0227777
0.022274
0.0207741
0.0194767
0.0185963
0.0179219
0.0173444
0.0168414
0.0164044
0.0160225
0.0156859
0.0153873
0.015121
0.0148827
0.0146688
0.0144765
0.0143036
0.0141482
0.0140086
0.0138837
0.0137725
0.0136741
0.0135878
0.0135132
0.0134499
0.0133977
0.0133563
0.0133258
0.0133061
0.0132973
0.0132995
0.013313
0.0133378
0.0133739
0.0134215
0.0134795
0.0135486
0.0136246
0.0137099
0.0137928
0.0138804
0.0139466
0.0140087
0.014026
0.0140427
0.0140962
0.0142958
0.0723248
0.040082
0.0245966
0.0229721
0.0224233
0.0209134
0.0195761
0.0186696
0.0179836
0.0173981
0.0168882
0.0164454
0.016059
0.0157188
0.0154171
0.0151483
0.0149077
0.0146919
0.0144979
0.0143235
0.0141668
0.0140261
0.0139001
0.013788
0.0136887
0.0136017
0.0135265
0.0134626
0.0134099
0.0133681
0.0133372
0.0133171
0.0133081
0.0133102
0.0133236
0.0133484
0.0133847
0.0134326
0.0134913
0.0135614
0.0136392
0.013727
0.0138146
0.0139084
0.0139878
0.0140667
0.0141216
0.0141907
0.0143492
0.0147188
0.0698997
0.0404398
0.025174
0.0231596
0.0225637
0.0210519
0.0196774
0.0187438
0.0180458
0.0174525
0.0169356
0.0164871
0.0160961
0.0157523
0.0154476
0.0151761
0.0149334
0.0147156
0.01452
0.0143441
0.014186
0.0140442
0.0139172
0.0138041
0.013704
0.0136163
0.0135404
0.013476
0.0134227
0.0133805
0.0133492
0.0133289
0.0133197
0.0133216
0.0133349
0.0133598
0.0133963
0.0134446
0.013504
0.0135753
0.013655
0.0137456
0.0138386
0.0139393
0.0140329
0.0141308
0.0142251
0.0143524
0.0146161
0.0151625
0.067549
0.0407135
0.025735
0.0233417
0.0226947
0.0211886
0.0197803
0.0188189
0.0181084
0.0175074
0.0169837
0.0165293
0.0161338
0.0157863
0.0154786
0.0152045
0.0149595
0.0147399
0.0145426
0.0143652
0.0142058
0.0140628
0.0139347
0.0138207
0.0137198
0.0136314
0.0135548
0.0134898
0.013436
0.0133934
0.0133617
0.0133411
0.0133317
0.0133335
0.0133468
0.0133717
0.0134084
0.0134573
0.0135175
0.01359
0.013672
0.0137655
0.0138643
0.0139726
0.0140812
0.0142001
0.0143349
0.014524
0.0148915
0.0156133
0.0652747
0.0409048
0.0262767
0.02352
0.022816
0.0213227
0.0198848
0.0188948
0.0181712
0.0175627
0.0170323
0.0165721
0.016172
0.0158208
0.01551
0.0152334
0.0149862
0.0147645
0.0145655
0.0143867
0.014226
0.0140817
0.0139527
0.0138377
0.013736
0.0136468
0.0135696
0.013504
0.0134497
0.0134066
0.0133746
0.0133537
0.013344
0.0133457
0.0133589
0.013384
0.013421
0.0134704
0.0135315
0.0136053
0.0136896
0.0137864
0.0138912
0.0140077
0.0141319
0.0142734
0.014449
0.0147017
0.0151703
0.0160575
0.0630785
0.0410156
0.0267959
0.0236958
0.0229277
0.0214531
0.0199905
0.0189716
0.0182342
0.0176184
0.0170814
0.0166155
0.0162107
0.0158558
0.0155419
0.0152627
0.0150132
0.0147896
0.0145889
0.0144085
0.0142464
0.014101
0.0139709
0.013855
0.0137524
0.0136624
0.0135846
0.0135184
0.0134636
0.01342
0.0133877
0.0133665
0.0133566
0.0133581
0.0133713
0.0133965
0.0134338
0.0134837
0.0135457
0.0136209
0.0137077
0.013808
0.013919
0.0140443
0.0141843
0.0143494
0.0145657
0.0148821
0.0154473
0.0164853
0.0609616
0.0410485
0.0272896
0.0238704
0.0230299
0.0215788
0.0200971
0.0190493
0.0182974
0.0176744
0.017131
0.0166593
0.0162498
0.0158912
0.0155742
0.0152923
0.0150406
0.014815
0.0146126
0.0144307
0.0142672
0.0141206
0.0139894
0.0138726
0.0137691
0.0136784
0.0135998
0.013533
0.0134777
0.0134337
0.0134009
0.0133794
0.0133692
0.0133707
0.0133838
0.0134091
0.0134467
0.0134971
0.0135601
0.0136368
0.0137261
0.01383
0.0139473
0.0140819
0.0142378
0.0144271
0.0146833
0.0150619
0.0157177
0.0168889
0.0589248
0.0410064
0.0277549
0.0240446
0.0231228
0.0216988
0.0202041
0.0191279
0.0183607
0.0177304
0.017181
0.0167036
0.0162894
0.015927
0.015607
0.0153224
0.0150684
0.0148408
0.0146366
0.0144531
0.0142884
0.0141405
0.0140082
0.0138904
0.013786
0.0136945
0.0136152
0.0135478
0.0134919
0.0134474
0.0134143
0.0133924
0.013382
0.0133833
0.0133964
0.0134218
0.0134596
0.0135106
0.0135746
0.0136527
0.0137446
0.0138522
0.013976
0.01412
0.0142918
0.0145055
0.0148003
0.0152384
0.0159773
0.0172624
0.0569686
0.0408928
0.028189
0.0242189
0.0232068
0.0218122
0.0203109
0.0192073
0.018424
0.0177866
0.0172314
0.0167484
0.0163295
0.0159633
0.0156401
0.0153529
0.0150965
0.0148669
0.014661
0.0144759
0.0143097
0.0141607
0.0140273
0.0139084
0.0138032
0.0137108
0.0136309
0.0135628
0.0135063
0.0134613
0.0134277
0.0134055
0.0133949
0.0133959
0.013409
0.0134344
0.0134725
0.013524
0.013589
0.0136686
0.0137631
0.0138746
0.0140048
0.0141585
0.0143459
0.0145837
0.0149156
0.0154092
0.0162226
0.0176013
0.0550929
0.0407116
0.0285893
0.0243937
0.0232825
0.0219182
0.0204171
0.0192875
0.0184874
0.0178427
0.017282
0.0167935
0.0163699
0.0159999
0.0156736
0.0153837
0.015125
0.0148934
0.0146856
0.014499
0.0143314
0.0141811
0.0140465
0.0139267
0.0138205
0.0137274
0.0136466
0.0135779
0.0135209
0.0134753
0.0134413
0.0134187
0.0134077
0.0134086
0.0134215
0.013447
0.0134854
0.0135373
0.0136033
0.0136844
0.0137816
0.0138969
0.0140335
0.0141969
0.0143997
0.0146609
0.0150277
0.0155723
0.0164505
0.0179024
0.0532973
0.0404672
0.0289532
0.0245686
0.0233508
0.0220161
0.0205217
0.0193684
0.0185507
0.0178986
0.0173328
0.016839
0.0164106
0.0160369
0.0157074
0.0154149
0.0151538
0.0149202
0.0147106
0.0145224
0.0143534
0.0142018
0.0140661
0.0139452
0.0138381
0.0137441
0.0136626
0.0135931
0.0135355
0.0134894
0.0134549
0.0134319
0.0134206
0.0134212
0.013434
0.0134595
0.0134981
0.0135505
0.0136174
0.0137001
0.0137998
0.013919
0.0140619
0.0142349
0.0144525
0.0147363
0.0151356
0.0157256
0.0166584
0.0181635
0.0515809
0.0401642
0.0292785
0.0247432
0.0234123
0.0221053
0.0206241
0.0194497
0.0186141
0.0179543
0.0173836
0.0168847
0.0164517
0.0160741
0.0157416
0.0154464
0.015183
0.0149473
0.0147359
0.0145461
0.0143756
0.0142227
0.0140858
0.0139639
0.0138558
0.0137609
0.0136787
0.0136085
0.0135502
0.0135036
0.0134685
0.0134451
0.0134334
0.0134338
0.0134464
0.0134719
0.0135107
0.0135636
0.0136314
0.0137155
0.0138177
0.0139408
0.0140898
0.0142722
0.0145041
0.014809
0.0152379
0.0158675
0.0168441
0.0183829
0.0499425
0.0398078
0.0295633
0.0249166
0.0234681
0.0221855
0.0207235
0.0195314
0.0186774
0.0180096
0.0174343
0.0169307
0.0164931
0.0161117
0.015776
0.0154782
0.0152125
0.0149747
0.0147615
0.01457
0.0143981
0.0142439
0.0141058
0.0139828
0.0138737
0.013778
0.0136949
0.013624
0.013565
0.0135178
0.0134822
0.0134583
0.0134462
0.0134463
0.0134587
0.0134841
0.013523
0.0135763
0.013645
0.0137306
0.0138352
0.0139621
0.0141171
0.0143085
0.0145537
0.0148783
0.0153335
0.0159964
0.0170057
0.0185595
0.0483804
0.0394032
0.0298058
0.0250875
0.023519
0.0222565
0.0208189
0.019613
0.0187406
0.0180644
0.0174849
0.0169768
0.0165347
0.0161495
0.0158108
0.0155102
0.0152422
0.0150024
0.0147873
0.0145942
0.0144208
0.0142653
0.014126
0.0140019
0.0138918
0.0137952
0.0137112
0.0136396
0.0135799
0.013532
0.0134959
0.0134715
0.013459
0.0134587
0.0134709
0.0134962
0.0135352
0.0135888
0.0136583
0.0137452
0.0138522
0.0139827
0.0141433
0.0143433
0.014601
0.0149432
0.0154212
0.0161107
0.0171416
0.018693
0.0468929
0.038956
0.0300049
0.0252542
0.0235661
0.0223184
0.0209095
0.0196942
0.0188038
0.0181188
0.0175352
0.0170229
0.0165765
0.0161875
0.0158457
0.0155425
0.0152722
0.0150303
0.0148134
0.0146187
0.0144438
0.0142869
0.0141464
0.0140211
0.0139101
0.0138125
0.0137277
0.0136553
0.0135949
0.0135463
0.0135096
0.0134846
0.0134716
0.0134709
0.0134829
0.013508
0.0135471
0.013601
0.0136712
0.0137594
0.0138685
0.0140025
0.0141684
0.0143764
0.0146453
0.0150031
0.0154999
0.0162092
0.0172507
0.0187833
0.0454778
0.0384716
0.0301597
0.0254147
0.0236102
0.0223711
0.0209945
0.0197744
0.0188669
0.0181725
0.017585
0.017069
0.0166184
0.0162257
0.0158808
0.015575
0.0153024
0.0150585
0.0148397
0.0146433
0.014467
0.0143087
0.014167
0.0140406
0.0139285
0.0138299
0.0137442
0.013671
0.0136098
0.0135606
0.0135232
0.0134977
0.0134842
0.013483
0.0134946
0.0135195
0.0135586
0.0136128
0.0136835
0.0137729
0.0138841
0.0140213
0.014192
0.0144072
0.0146861
0.0150569
0.0155686
0.0162906
0.0173322
0.0188311
0.0441325
0.0379558
0.0302697
0.0255669
0.0236521
0.0224153
0.0210731
0.0198532
0.0189298
0.0182256
0.0176342
0.0171149
0.0166604
0.016264
0.0159161
0.0156077
0.0153328
0.0150868
0.0148663
0.0146682
0.0144903
0.0143307
0.0141877
0.0140601
0.013947
0.0138474
0.0137609
0.0136868
0.0136248
0.0135749
0.0135368
0.0135106
0.0134966
0.0134949
0.0135061
0.0135308
0.0135697
0.013624
0.0136953
0.0137858
0.0138987
0.0140388
0.0142139
0.0144354
0.0147227
0.0151041
0.0156262
0.0163541
0.0173855
0.0188376
0.0428544
0.037414
0.0303352
0.0257081
0.0236924
0.0224513
0.0211447
0.0199299
0.0189923
0.0182781
0.0176828
0.0171605
0.0167023
0.0163024
0.0159514
0.0156406
0.0153634
0.0151154
0.014893
0.0146932
0.0145138
0.0143528
0.0142086
0.0140798
0.0139656
0.0138651
0.0137775
0.0137026
0.0136398
0.0135891
0.0135503
0.0135235
0.0135088
0.0135066
0.0135173
0.0135416
0.0135804
0.0136347
0.0137064
0.0137977
0.0139122
0.0140548
0.0142336
0.0144605
0.0147546
0.0151437
0.015672
0.016399
0.0174107
0.0188042
0.0416407
0.0368517
0.0303566
0.0258359
0.0237315
0.0224799
0.0212086
0.0200038
0.0190542
0.0183298
0.0177305
0.0172056
0.0167441
0.0163407
0.0159868
0.0156735
0.0153941
0.015144
0.0149198
0.0147184
0.0145375
0.0143751
0.0142296
0.0140996
0.0139843
0.0138827
0.0137942
0.0137184
0.0136547
0.0136032
0.0135636
0.0135361
0.0135208
0.013518
0.0135282
0.013552
0.0135905
0.0136448
0.0137167
0.0138086
0.0139243
0.0140691
0.014251
0.0144821
0.0147812
0.0151752
0.0157051
0.0164247
0.017408
0.018733
0.0404884
0.0362739
0.0303353
0.0259478
0.0237694
0.0225018
0.0212645
0.0200742
0.0191154
0.0183807
0.0177773
0.0172502
0.0167857
0.016379
0.0160222
0.0157064
0.0154248
0.0151728
0.0149468
0.0147437
0.0145613
0.0143975
0.0142506
0.0141195
0.0140031
0.0139004
0.0138109
0.0137341
0.0136696
0.0136172
0.0135769
0.0135486
0.0135325
0.0135291
0.0135386
0.013562
0.0136
0.0136541
0.013726
0.0138184
0.0139351
0.0140814
0.0142656
0.0144997
0.0148019
0.0151979
0.015725
0.016431
0.017378
0.0186264
0.0393945
0.0356853
0.0302727
0.0260418
0.0238058
0.0225177
0.0213122
0.0201405
0.0191754
0.0184308
0.017823
0.017294
0.0168269
0.0164172
0.0160575
0.0157393
0.0154556
0.0152017
0.0149738
0.0147691
0.0145852
0.0144199
0.0142718
0.0141395
0.0140219
0.0139181
0.0138276
0.0137498
0.0136844
0.0136311
0.0135899
0.0135608
0.013544
0.0135397
0.0135486
0.0135713
0.0136089
0.0136626
0.0137344
0.0138269
0.0139441
0.0140915
0.0142771
0.0145129
0.0148163
0.0152112
0.0157312
0.0164179
0.0173217
0.0184869
0.038356
0.0350903
0.030171
0.026116
0.0238399
0.0225283
0.0213517
0.0202018
0.0192338
0.0184799
0.0178677
0.0173369
0.0168677
0.0164551
0.0160927
0.0157721
0.0154864
0.0152305
0.0150009
0.0147946
0.0146091
0.0144424
0.014293
0.0141594
0.0140407
0.0139358
0.0138443
0.0137655
0.0136991
0.0136449
0.0136027
0.0135727
0.013555
0.01355
0.0135581
0.0135801
0.013617
0.0136702
0.0137416
0.013834
0.0139513
0.014099
0.0142853
0.0145214
0.0148239
0.0152147
0.0157236
0.0163856
0.0172404
0.0183177
0.0373697
0.0344925
0.0300328
0.0261687
0.0238708
0.0225343
0.021383
0.0202576
0.0192902
0.0185281
0.0179111
0.0173787
0.0169078
0.0164927
0.0161276
0.0158048
0.015517
0.0152593
0.015028
0.01482
0.014633
0.014465
0.0143142
0.0141794
0.0140594
0.0139535
0.0138608
0.013781
0.0137136
0.0136584
0.0136153
0.0135843
0.0135657
0.0135597
0.013567
0.0135881
0.0136242
0.0136767
0.0137475
0.0138394
0.0139564
0.0141039
0.0142897
0.0145248
0.0148242
0.015208
0.0157019
0.0163345
0.0171355
0.0181217
0.0364326
0.0338953
0.0298608
0.0261988
0.0238973
0.0225362
0.0214065
0.0203073
0.019344
0.018575
0.0179533
0.0174195
0.0169471
0.0165298
0.0161623
0.0158372
0.0155475
0.015288
0.015055
0.0148454
0.0146569
0.0144875
0.0143354
0.0141993
0.0140781
0.013971
0.0138773
0.0137963
0.0137279
0.0136716
0.0136275
0.0135956
0.0135759
0.013569
0.0135752
0.0135953
0.0136305
0.013682
0.013752
0.0138431
0.0139592
0.0141057
0.0142901
0.0145226
0.014817
0.015191
0.0156663
0.0162654
0.0170089
0.0179024
0.0355418
0.0333018
0.0296583
0.0262054
0.023918
0.0225344
0.0214224
0.0203504
0.0193947
0.0186205
0.0179941
0.0174589
0.0169856
0.0165664
0.0161966
0.0158694
0.0155778
0.0153166
0.0150819
0.0148708
0.0146808
0.0145099
0.0143565
0.0142191
0.0140967
0.0139884
0.0138935
0.0138115
0.0137419
0.0136846
0.0136394
0.0136064
0.0135856
0.0135776
0.0135827
0.0136017
0.0136357
0.0136861
0.0137549
0.0138448
0.0139595
0.0141043
0.0142862
0.0145146
0.014802
0.0151635
0.0156169
0.0161791
0.0168624
0.0176631
0.0346944
0.0327142
0.0294284
0.0261881
0.0239314
0.0225289
0.0214313
0.0203866
0.0194418
0.0186642
0.0180335
0.0174968
0.0170229
0.0166022
0.0162304
0.0159012
0.0156078
0.0153449
0.0151086
0.0148959
0.0147045
0.0145322
0.0143775
0.0142388
0.0141152
0.0140057
0.0139096
0.0138264
0.0137557
0.0136972
0.0136509
0.0136167
0.0135948
0.0135855
0.0135894
0.0136071
0.0136398
0.0136888
0.0137561
0.0138444
0.0139571
0.0140994
0.0142777
0.0145006
0.0147789
0.0151256
0.0155543
0.0160768
0.0166982
0.0174072
0.0338875
0.0321347
0.0291746
0.0261468
0.0239359
0.0225199
0.0214337
0.0204157
0.0194846
0.018706
0.0180713
0.0175333
0.017059
0.0166373
0.0162636
0.0159325
0.0156375
0.015373
0.0151351
0.0149209
0.0147281
0.0145544
0.0143983
0.0142584
0.0141335
0.0140227
0.0139254
0.013841
0.0137691
0.0137095
0.0136619
0.0136264
0.0136033
0.0135927
0.0135952
0.0136115
0.0136426
0.01369
0.0137555
0.0138416
0.0139519
0.0140908
0.0142644
0.0144804
0.0147478
0.0150773
0.0154789
0.0159597
0.0165185
0.017138
0.0331186
0.0315648
0.0289
0.0260819
0.0239302
0.022507
0.0214299
0.0204376
0.0195226
0.0187453
0.0181075
0.0175681
0.0170938
0.0166713
0.0162962
0.0159633
0.0156666
0.0154006
0.0151613
0.0149457
0.0147514
0.0145763
0.0144189
0.0142777
0.0141515
0.0140395
0.013941
0.0138553
0.0137822
0.0137212
0.0136724
0.0136356
0.013611
0.013599
0.0136
0.0136147
0.0136441
0.0136895
0.0137528
0.0138364
0.0139435
0.0140783
0.0142462
0.0144538
0.0147086
0.015019
0.0153916
0.0158292
0.0163256
0.0168588
0.0323853
0.0310058
0.028608
0.0259941
0.0239129
0.0224898
0.0214204
0.0204524
0.0195553
0.0187818
0.0181418
0.0176012
0.0171269
0.0167042
0.0163279
0.0159935
0.0156953
0.0154279
0.0151871
0.0149701
0.0147744
0.014598
0.0144392
0.0142967
0.0141693
0.014056
0.0139562
0.0138692
0.0137948
0.0137325
0.0136823
0.0136441
0.0136181
0.0136045
0.0136038
0.0136167
0.0136441
0.0136873
0.0137481
0.0138286
0.0139319
0.0140618
0.0142228
0.0144207
0.0146614
0.014951
0.015293
0.0156867
0.0161217
0.0165729
0.0316851
0.0304587
0.0283014
0.0258844
0.023883
0.0224678
0.0214055
0.0204602
0.0195825
0.0188151
0.018174
0.0176324
0.0171584
0.0167357
0.0163586
0.0160229
0.0157233
0.0154545
0.0152125
0.0149941
0.0147971
0.0146193
0.0144593
0.0143154
0.0141867
0.0140721
0.013971
0.0138827
0.0138069
0.0137432
0.0136915
0.0136518
0.0136242
0.0136089
0.0136064
0.0136173
0.0136425
0.0136832
0.013741
0.0138181
0.0139169
0.014041
0.0141942
0.0143812
0.0146064
0.0148738
0.0151842
0.0155339
0.0159092
0.0162831
0.031016
0.0299241
0.0279832
0.025754
0.0238398
0.0224402
0.0213855
0.0204612
0.0196036
0.0188446
0.0182039
0.0176616
0.0171881
0.0167658
0.0163882
0.0160514
0.0157506
0.0154806
0.0152373
0.0150177
0.0148193
0.0146403
0.0144789
0.0143337
0.0142036
0.0140877
0.0139853
0.0138956
0.0138184
0.0137533
0.0137001
0.0136588
0.0136294
0.0136123
0.0136078
0.0136165
0.0136392
0.0136771
0.0137316
0.0138046
0.0138984
0.0140159
0.0141604
0.0143354
0.0145439
0.0147879
0.0150662
0.0153723
0.0156903
0.0159922
0.0303758
0.0294024
0.0276558
0.0256046
0.0237827
0.0224063
0.0213605
0.0204557
0.0196186
0.0188701
0.0182312
0.0176888
0.0172158
0.0167942
0.0164165
0.0160789
0.015777
0.0155059
0.0152615
0.0150406
0.014841
0.0146607
0.014498
0.0143516
0.0142202
0.0141029
0.0139991
0.013908
0.0138293
0.0137627
0.0137078
0.0136648
0.0136336
0.0136145
0.0136078
0.0136141
0.0136341
0.0136688
0.0137196
0.0137881
0.0138762
0.0139865
0.0141213
0.0142833
0.0144741
0.0146942
0.0149401
0.0152035
0.0154671
0.0157027
0.0297627
0.0288938
0.0273215
0.0254376
0.0237114
0.0223653
0.0213303
0.0204438
0.0196274
0.018891
0.0182556
0.0177136
0.0172415
0.0168209
0.0164435
0.0161053
0.0158025
0.0155304
0.0152849
0.0150629
0.0148622
0.0146806
0.0145166
0.0143689
0.0142361
0.0141175
0.0140123
0.0139197
0.0138395
0.0137712
0.0137147
0.0136699
0.0136368
0.0136155
0.0136065
0.0136101
0.0136271
0.0136584
0.013705
0.0137684
0.0138504
0.0139526
0.014077
0.0142252
0.0143976
0.0145932
0.014807
0.0150293
0.0152418
0.0154169
0.029175
0.0283984
0.0269824
0.0252549
0.023626
0.0223165
0.0212949
0.0204258
0.0196298
0.018907
0.0182767
0.017736
0.0172649
0.0168455
0.0164688
0.0161305
0.0158269
0.0155539
0.0153075
0.0150845
0.0148826
0.0146999
0.0145346
0.0143856
0.0142515
0.0141315
0.0140248
0.0139308
0.0138489
0.013779
0.0137207
0.0136739
0.0136387
0.0136152
0.0136036
0.0136044
0.0136181
0.0136455
0.0136876
0.0137456
0.0138207
0.0139143
0.0140276
0.0141613
0.0143149
0.0144859
0.0146682
0.0148511
0.015016
0.0151368
0.0286111
0.0279162
0.0266403
0.0250582
0.0235266
0.0222593
0.0212541
0.020402
0.0196259
0.0189178
0.0182942
0.0177557
0.017286
0.0168681
0.0164923
0.0161541
0.0158501
0.0155764
0.0153292
0.0151053
0.0149023
0.0147184
0.0145519
0.0144016
0.0142662
0.0141448
0.0140366
0.013941
0.0138575
0.0137858
0.0137256
0.0136768
0.0136394
0.0136134
0.0135991
0.0135968
0.0136069
0.0136303
0.0136675
0.0137195
0.0137873
0.0138717
0.0139733
0.014092
0.0142264
0.014373
0.0145247
0.0146704
0.0147917
0.014864
0.0280695
0.027447
0.0262966
0.0248492
0.0234139
0.0221931
0.0212075
0.0203723
0.0196157
0.0189232
0.0183078
0.0177725
0.0173046
0.0168885
0.0165139
0.0161762
0.015872
0.0155977
0.0153498
0.015125
0.0149211
0.0147361
0.0145685
0.0144168
0.0142801
0.0141572
0.0140475
0.0139503
0.0138652
0.0137916
0.0137295
0.0136785
0.0136387
0.0136101
0.0135929
0.0135872
0.0135936
0.0136125
0.0136444
0.0136901
0.0137501
0.0138248
0.0139142
0.0140177
0.0141328
0.0142554
0.0143778
0.0144886
0.0145702
0.0145999
0.0275487
0.0269905
0.0259527
0.0246295
0.0232882
0.0221176
0.0211548
0.020337
0.0195994
0.0189231
0.0183171
0.0177861
0.0173206
0.0169064
0.0165335
0.0161966
0.0158924
0.0156178
0.0153692
0.0151437
0.0149389
0.0147529
0.0145841
0.0144312
0.0142931
0.0141688
0.0140576
0.0139587
0.0138718
0.0137963
0.0137321
0.0136789
0.0136366
0.0136052
0.0135849
0.0135757
0.013578
0.0135921
0.0136185
0.0136574
0.0137092
0.0137738
0.0138507
0.0139387
0.0140347
0.0141339
0.0142285
0.0143071
0.014353
0.0143457
0.0270476
0.0265465
0.0256096
0.0244008
0.0231506
0.0220327
0.0210957
0.020296
0.0195771
0.0189173
0.0183219
0.0177963
0.0173337
0.0169219
0.0165508
0.016215
0.0159112
0.0156364
0.0153874
0.0151613
0.0149556
0.0147686
0.0145987
0.0144446
0.0143052
0.0141794
0.0140666
0.0139661
0.0138773
0.0137999
0.0137335
0.0136779
0.0136329
0.0135986
0.013575
0.0135621
0.0135601
0.0135691
0.0135895
0.0136214
0.0136646
0.0137188
0.0137831
0.0138555
0.0139327
0.0140095
0.0140779
0.0141269
0.0141411
0.0141021
0.026565
0.0261147
0.0252684
0.0241646
0.0230017
0.0219382
0.0210299
0.0202493
0.0195488
0.0189057
0.018322
0.0178028
0.0173438
0.0169346
0.0165657
0.0162313
0.0159282
0.0156534
0.0154042
0.0151775
0.0149712
0.0147833
0.0146123
0.014457
0.0143162
0.014189
0.0140746
0.0139723
0.0138817
0.0138022
0.0137335
0.0136754
0.0136277
0.0135903
0.0135631
0.0135463
0.0135397
0.0135435
0.0135577
0.0135821
0.0136165
0.0136601
0.0137115
0.0137686
0.0138275
0.013883
0.013927
0.0139491
0.0139354
0.0138696
0.0260998
0.0256947
0.0249297
0.0239221
0.0228425
0.0218343
0.0209571
0.0201968
0.0195147
0.0188884
0.0183171
0.0178053
0.0173507
0.0169445
0.0165781
0.0162454
0.0159432
0.0156688
0.0154194
0.0151923
0.0149854
0.0147967
0.0146247
0.0144682
0.0143261
0.0141974
0.0140814
0.0139773
0.0138847
0.0138031
0.013732
0.0136713
0.0136207
0.0135801
0.0135493
0.0135282
0.0135169
0.0135151
0.0135228
0.0135396
0.013565
0.0135978
0.0136365
0.0136785
0.0137198
0.0137551
0.0137765
0.0137746
0.0137367
0.0136487
0.025651
0.0252862
0.0245943
0.0236746
0.0226741
0.0217212
0.0208771
0.0201384
0.0194747
0.0188653
0.0183071
0.0178037
0.0173541
0.0169515
0.0165877
0.0162571
0.0159561
0.0156822
0.0154329
0.0152056
0.0149981
0.0148087
0.0146358
0.0144781
0.0143347
0.0142046
0.0140869
0.013981
0.0138864
0.0138025
0.0137291
0.0136656
0.013612
0.013568
0.0135333
0.0135079
0.0134916
0.0134841
0.0134851
0.0134941
0.0135102
0.0135323
0.0135584
0.0135857
0.0136102
0.0136265
0.0136274
0.0136041
0.0135454
0.0134394
0.0252176
0.0248888
0.0242626
0.0234233
0.0224973
0.0215992
0.0207899
0.0200739
0.019429
0.0188365
0.0182918
0.0177977
0.0173539
0.0169552
0.0165945
0.0162662
0.0159668
0.0156937
0.0154446
0.0152172
0.0150093
0.0148192
0.0146454
0.0144867
0.014342
0.0142104
0.014091
0.0139833
0.0138866
0.0138005
0.0137245
0.0136582
0.0136014
0.0135539
0.0135152
0.0134853
0.0134638
0.0134503
0.0134445
0.0134455
0.0134524
0.0134638
0.0134775
0.0134906
0.0134992
0.013498
0.0134803
0.0134382
0.0133619
0.0132415
0.0247988
0.0245022
0.0239351
0.0231691
0.0223131
0.0214689
0.0206954
0.0200034
0.0193776
0.018802
0.0182712
0.0177871
0.0173499
0.0169557
0.0165984
0.0162726
0.015975
0.0157029
0.0154543
0.015227
0.0150189
0.0148282
0.0146536
0.0144938
0.0143478
0.0142147
0.0140937
0.0139841
0.0138853
0.0137968
0.0137181
0.013649
0.0135889
0.0135377
0.0134949
0.0134603
0.0134335
0.013414
0.0134011
0.0133941
0.0133918
0.0133926
0.0133942
0.0133938
0.0133874
0.0133701
0.0133358
0.0132773
0.0131864
0.0130548
0.0243937
0.024126
0.023612
0.022913
0.0221225
0.0213307
0.0205937
0.0199267
0.0193205
0.0187618
0.0182453
0.0177717
0.0173418
0.0169526
0.016599
0.0162762
0.0159806
0.0157099
0.015462
0.0152348
0.0150265
0.0148354
0.01466
0.0144992
0.014352
0.0142175
0.0140948
0.0139832
0.0138823
0.0137914
0.01371
0.0136379
0.0135744
0.0135194
0.0134724
0.013433
0.0134007
0.013375
0.0133551
0.01334
0.0133285
0.013319
0.013309
0.0132957
0.0132753
0.0132434
0.0131942
0.0131217
0.0130188
0.0128789
0.0240018
0.0237598
0.0232937
0.0226557
0.0219263
0.0211852
0.0204849
0.0198439
0.0192576
0.018716
0.0182139
0.0177515
0.0173295
0.0169458
0.0165964
0.0162767
0.0159835
0.0157144
0.0154673
0.0152406
0.0150322
0.0148407
0.0146647
0.014503
0.0143546
0.0142185
0.0140941
0.0139807
0.0138775
0.0137841
0.0137001
0.0136248
0.0135579
0.013499
0.0134476
0.0134033
0.0133654
0.0133334
0.0133064
0.0132834
0.0132629
0.0132432
0.0132221
0.0131967
0.0131635
0.0131182
0.013056
0.0129716
0.012859
0.0127131
0.0236222
0.0234033
0.0229803
0.0223979
0.0217254
0.021033
0.0203694
0.0197548
0.019189
0.0186647
0.0181772
0.0177264
0.0173128
0.0169353
0.0165903
0.0162741
0.0159835
0.0157162
0.0154703
0.0152441
0.0150359
0.0148441
0.0146675
0.0145049
0.0143553
0.0142178
0.0140917
0.0139763
0.0138709
0.013775
0.0136881
0.0136097
0.0135392
0.0134763
0.0134205
0.0133712
0.0133277
0.0132894
0.0132553
0.0132244
0.0131951
0.0131657
0.013134
0.0130972
0.0130522
0.012995
0.0129215
0.012827
0.0127068
0.0125568
0.0232543
0.0230561
0.0226721
0.0221403
0.0215206
0.0208747
0.0202473
0.0196597
0.0191148
0.0186078
0.0181351
0.0176962
0.0172916
0.0169207
0.0165806
0.0162682
0.0159805
0.0157152
0.0154707
0.0152452
0.0150372
0.0148453
0.0146682
0.0145048
0.0143541
0.0142152
0.0140874
0.01397
0.0138624
0.0137639
0.0136741
0.0135925
0.0135184
0.0134515
0.0133911
0.0133367
0.0132876
0.013243
0.0132019
0.0131632
0.0131254
0.0130867
0.013045
0.0129977
0.0129418
0.0128741
0.0127907
0.0126878
0.0125618
0.0124094
0.0228976
0.0227179
0.022369
0.0218833
0.0213126
0.0207109
0.0201191
0.0195586
0.0190348
0.0185454
0.0180876
0.0176609
0.0172658
0.0169019
0.0165672
0.0162589
0.0159743
0.0157113
0.0154683
0.0152438
0.0150362
0.0148443
0.0146668
0.0145026
0.0143508
0.0142106
0.0140811
0.0139617
0.0138518
0.0137508
0.0136581
0.0135731
0.0134954
0.0134244
0.0133594
0.0132999
0.0132452
0.0131943
0.0131463
0.0131
0.0130539
0.0130064
0.0129553
0.0128983
0.0128327
0.0127555
0.0126637
0.012554
0.0124235
0.01227
0.0225514
0.0223885
0.0220712
0.0216275
0.0211021
0.0205422
0.019985
0.0194517
0.0189494
0.0184777
0.0180349
0.0176206
0.0172353
0.0168789
0.0165499
0.016246