/*--------------------------------*- C++ -*----------------------------------*\
  =========                 |
  \\      /  F ield         | OpenFOAM: The Open Source CFD Toolbox
   \\    /   O peration     | Website:  https://openfoam.org
    \\  /    A nd           | Version:  7
     \\/     M anipulation  |
\*---------------------------------------------------------------------------*/
FoamFile
{
    version     2.0;
    format      ascii;
    class       surfaceScalarField;
    location    "0.49";
    object      phi;
}
// * * * * * * * * * * * * * * * * * * * * * * * * * * * * * * * * * * * * * //

dimensions      [0 3 -1 0 0 0 0];

internalField   nonuniform List<scalar> 
139350
(
6.45118e-08
9.21197e-08
3.19635e-08
3.25483e-08
2.30569e-08
8.90658e-09
1.95706e-08
3.48635e-09
1.76169e-08
1.95365e-09
1.61849e-08
1.43205e-09
1.505e-08
1.13486e-09
1.41357e-08
9.14358e-10
1.33831e-08
7.52585e-10
1.27489e-08
6.34193e-10
1.22043e-08
5.44642e-10
1.17298e-08
4.74453e-10
1.13118e-08
4.18013e-10
1.094e-08
3.71787e-10
1.06066e-08
3.33362e-10
1.03056e-08
3.01013e-10
1.00322e-08
2.73473e-10
9.78235e-09
2.49799e-10
9.55309e-09
2.29268e-10
9.34176e-09
2.11325e-10
9.14623e-09
1.95533e-10
8.96468e-09
1.81545e-10
8.7956e-09
1.69081e-10
8.63769e-09
1.57915e-10
8.48983e-09
1.47858e-10
8.35107e-09
1.38759e-10
8.22059e-09
1.30486e-10
8.09765e-09
1.22935e-10
7.98164e-09
1.16009e-10
7.872e-09
1.09643e-10
7.76825e-09
1.03749e-10
7.66994e-09
9.83052e-11
7.57674e-09
9.32038e-11
7.48825e-09
8.8494e-11
7.40426e-09
8.39904e-11
7.32439e-09
7.98658e-11
7.24861e-09
7.57793e-11
7.17653e-09
7.20769e-11
7.10832e-09
6.82115e-11
7.04372e-09
6.46001e-11
6.983e-09
6.07244e-11
6.92672e-09
5.62816e-11
6.87462e-09
5.20939e-11
6.83048e-09
4.41442e-11
6.79108e-09
3.94028e-11
6.77183e-09
1.92501e-11
6.75415e-09
1.76792e-11
6.81409e-09
-5.99423e-11
6.70763e-09
1.06458e-10
-3.18647e-09
9.89411e-09
1.25943e-07
1.27621e-07
9.12875e-08
6.72033e-08
7.19319e-08
2.82622e-08
6.12129e-08
1.42054e-08
5.47726e-08
8.39387e-09
5.02737e-08
5.93104e-09
4.6785e-08
4.62354e-09
4.39673e-08
3.73198e-09
4.16399e-08
3.08001e-09
3.96771e-08
2.59705e-09
3.79914e-08
2.23026e-09
3.6523e-08
1.94294e-09
3.52289e-08
1.71208e-09
3.40777e-08
1.52301e-09
3.30452e-08
1.36582e-09
3.21128e-08
1.23345e-09
3.12655e-08
1.12073e-09
3.04915e-08
1.02379e-09
2.97811e-08
9.39692e-10
2.91263e-08
8.66165e-10
2.85204e-08
8.01423e-10
2.79579e-08
7.44047e-10
2.7434e-08
6.92894e-10
2.69449e-08
6.47035e-10
2.64871e-08
6.05704e-10
2.60576e-08
5.68274e-10
2.56538e-08
5.34213e-10
2.52737e-08
5.03084e-10
2.49152e-08
4.74502e-10
2.45767e-08
4.48166e-10
2.42567e-08
4.23768e-10
2.39538e-08
4.01133e-10
2.36671e-08
3.79946e-10
2.33954e-08
3.60216e-10
2.31379e-08
3.41461e-10
2.28937e-08
3.24049e-10
2.26625e-08
3.07007e-10
2.24431e-08
2.91442e-10
2.22361e-08
2.75263e-10
2.20397e-08
2.60932e-10
2.18561e-08
2.44327e-10
2.16828e-08
2.2964e-10
2.15246e-08
2.10251e-10
2.13787e-08
1.90067e-10
2.12548e-08
1.63321e-10
2.1155e-08
1.19052e-10
2.10891e-08
8.35041e-11
2.11283e-08
-9.91225e-11
2.10998e-08
1.34965e-10
-4.03491e-09
2.19483e-08
1.58752e-07
1.35272e-07
1.36525e-07
8.94304e-08
1.17488e-07
4.72989e-08
1.03307e-07
2.83867e-08
9.33088e-08
1.8392e-08
8.60047e-08
1.32351e-08
8.0294e-08
1.03343e-08
7.564e-08
8.3859e-09
7.17603e-08
6.95973e-09
6.84669e-08
5.89051e-09
6.5626e-08
5.07111e-09
6.31428e-08
4.42613e-09
6.09486e-08
3.90627e-09
5.89922e-08
3.47944e-09
5.72343e-08
3.12376e-09
5.56441e-08
2.82363e-09
5.41972e-08
2.56761e-09
5.28739e-08
2.3471e-09
5.1658e-08
2.15555e-09
5.05363e-08
1.98788e-09
4.94977e-08
1.84008e-09
4.85328e-08
1.70896e-09
4.76337e-08
1.59195e-09
4.67938e-08
1.48695e-09
4.60072e-08
1.39224e-09
4.52691e-08
1.30639e-09
4.45751e-08
1.22821e-09
4.39215e-08
1.15668e-09
4.33051e-08
1.09094e-09
4.2723e-08
1.03029e-09
4.21727e-08
9.74061e-10
4.1652e-08
9.21771e-10
4.11592e-08
8.72822e-10
4.06923e-08
8.2704e-10
4.02502e-08
7.83599e-10
3.98313e-08
7.42977e-10
3.94349e-08
7.03411e-10
3.90593e-08
6.67013e-10
3.87052e-08
6.29353e-10
3.83697e-08
5.96409e-10
3.80565e-08
5.57526e-10
3.77598e-08
5.26393e-10
3.74897e-08
4.80294e-10
3.7235e-08
4.44776e-10
3.70193e-08
3.79053e-10
3.68251e-08
3.13233e-10
3.66971e-08
2.11567e-10
3.66549e-08
-5.70018e-11
3.67355e-08
5.44408e-11
-3.99637e-09
3.66969e-08
1.75611e-07
1.31177e-07
1.65622e-07
9.94193e-08
1.52731e-07
6.01901e-08
1.40118e-07
4.10002e-08
1.29432e-07
2.90771e-08
1.20789e-07
2.18786e-08
1.13673e-07
1.74504e-08
1.07689e-07
1.43696e-08
1.02587e-07
1.20616e-08
9.81842e-08
1.02936e-08
9.43398e-08
8.91558e-09
9.0948e-08
7.81791e-09
8.79288e-08
6.92543e-09
8.52207e-08
6.18759e-09
8.27752e-08
5.56925e-09
8.05538e-08
5.045e-09
7.85254e-08
4.59598e-09
7.66646e-08
4.20792e-09
7.49504e-08
3.86982e-09
7.33652e-08
3.57308e-09
7.18943e-08
3.3109e-09
7.05255e-08
3.07784e-09
6.9248e-08
2.86947e-09
6.80527e-08
2.68218e-09
6.6932e-08
2.51299e-09
6.5879e-08
2.35941e-09
6.48878e-08
2.21935e-09
6.39534e-08
2.09106e-09
6.30713e-08
1.97304e-09
6.22376e-08
1.864e-09
6.14489e-08
1.76282e-09
6.07021e-08
1.66856e-09
5.99946e-08
1.58028e-09
5.93242e-08
1.4975e-09
5.86888e-08
1.41898e-09
5.80865e-08
1.34523e-09
5.75164e-08
1.27357e-09
5.69761e-08
1.20725e-09
5.64665e-08
1.13902e-09
5.59838e-08
1.07911e-09
5.55324e-08
1.0089e-09
5.5105e-08
9.53823e-10
5.47138e-08
8.71414e-10
5.43444e-08
8.14198e-10
5.40251e-08
6.98377e-10
5.3732e-08
6.06332e-10
5.35222e-08
4.21324e-10
5.33884e-08
7.68718e-11
5.34709e-08
-2.81223e-11
-3.78625e-09
5.32608e-08
1.8451e-07
1.23452e-07
1.8234e-07
1.01589e-07
1.76118e-07
6.64121e-08
1.67757e-07
4.93614e-08
1.59132e-07
3.77013e-08
1.51222e-07
2.97892e-08
1.44145e-07
2.45274e-08
1.37841e-07
2.06731e-08
1.32239e-07
1.76644e-08
1.27252e-07
1.52801e-08
1.22796e-07
1.3372e-08
1.18792e-07
1.18211e-08
1.15178e-07
1.05403e-08
1.11897e-07
9.46813e-09
1.08906e-07
8.56029e-09
1.06167e-07
7.78398e-09
1.03649e-07
7.11426e-09
1.01325e-07
6.53186e-09
9.91728e-08
6.02173e-09
9.7174e-08
5.57192e-09
9.5312e-08
5.17289e-09
9.35729e-08
4.81688e-09
9.19448e-08
4.49757e-09
9.04173e-08
4.20975e-09
8.89812e-08
3.94906e-09
8.76287e-08
3.71188e-09
8.63529e-08
3.49514e-09
8.51478e-08
3.29622e-09
8.40079e-08
3.11291e-09
8.29287e-08
2.94326e-09
8.19059e-08
2.78562e-09
8.09359e-08
2.63853e-09
8.00155e-08
2.50063e-09
7.9142e-08
2.37104e-09
7.83129e-08
2.2481e-09
7.75258e-08
2.13228e-09
7.67795e-08
2.01991e-09
7.60714e-08
1.91533e-09
7.5402e-08
1.80844e-09
7.47675e-08
1.71362e-09
7.41719e-08
1.60446e-09
7.36083e-08
1.51747e-09
7.30879e-08
1.39178e-09
7.2598e-08
1.30414e-09
7.21636e-08
1.13278e-09
7.17666e-08
1.00326e-09
7.14558e-08
7.32134e-10
7.12334e-08
2.99253e-10
7.1227e-08
-2.1687e-11
-3.56441e-09
7.10052e-08
1.90342e-07
1.15327e-07
1.91859e-07
1.00073e-07
1.90261e-07
6.801e-08
1.86153e-07
5.34694e-08
1.80709e-07
4.31444e-08
1.74953e-07
3.5546e-08
1.69251e-07
3.02292e-08
1.63762e-07
2.61621e-08
1.58583e-07
2.28432e-08
1.53756e-07
2.01067e-08
1.49285e-07
1.78438e-08
1.45151e-07
1.5955e-08
1.4133e-07
1.43607e-08
1.37797e-07
1.30016e-08
1.34524e-07
1.18333e-08
1.31486e-07
1.08214e-08
1.28662e-07
9.93881e-09
1.2603e-07
9.16407e-09
1.23571e-07
8.47989e-09
1.21271e-07
7.8723e-09
1.19114e-07
7.32989e-09
1.17088e-07
6.84327e-09
1.15181e-07
6.40465e-09
1.13383e-07
6.00751e-09
1.11686e-07
5.64638e-09
1.10081e-07
5.31662e-09
1.08562e-07
5.01432e-09
1.07122e-07
4.73605e-09
1.05756e-07
4.47894e-09
1.04459e-07
4.2404e-09
1.03226e-07
4.01827e-09
1.02054e-07
3.81058e-09
1.00939e-07
3.61553e-09
9.98782e-08
3.43186e-09
9.88688e-08
3.25745e-09
9.79084e-08
3.09268e-09
9.69953e-08
2.93299e-09
9.61271e-08
2.78357e-09
9.53037e-08
2.63186e-09
9.45218e-08
2.49553e-09
9.37843e-08
2.34192e-09
9.30859e-08
2.21583e-09
9.2435e-08
2.04276e-09
9.18235e-08
1.91556e-09
9.12684e-08
1.68788e-09
9.07649e-08
1.50683e-09
9.03408e-08
1.15622e-09
9.00262e-08
6.13851e-10
8.99019e-08
1.02635e-10
-3.29718e-09
8.96346e-08
1.95504e-07
1.07637e-07
1.98246e-07
9.73308e-08
1.98984e-07
6.72725e-08
1.97788e-07
5.46658e-08
1.9515e-07
4.57822e-08
1.91805e-07
3.88904e-08
1.88068e-07
3.39668e-08
1.84111e-07
3.01191e-08
1.80085e-07
2.68687e-08
1.76102e-07
2.40904e-08
1.72228e-07
2.17177e-08
1.68502e-07
1.96806e-08
1.64945e-07
1.79179e-08
1.61564e-07
1.63825e-08
1.5836e-07
1.50377e-08
1.55327e-07
1.38537e-08
1.5246e-07
1.28063e-08
1.49749e-07
1.18754e-08
1.47184e-07
1.10442e-08
1.44758e-07
1.02989e-08
1.4246e-07
9.62779e-09
1.40282e-07
9.02106e-09
1.38216e-07
8.47039e-09
1.36255e-07
7.96868e-09
1.34391e-07
7.5099e-09
1.32619e-07
7.08884e-09
1.30933e-07
6.70104e-09
1.29326e-07
6.34256e-09
1.27795e-07
6.01008e-09
1.26335e-07
5.70053e-09
1.24942e-07
5.41137e-09
1.23612e-07
5.14019e-09
1.22343e-07
4.88489e-09
1.21131e-07
4.64385e-09
1.19974e-07
4.41456e-09
1.18869e-07
4.19731e-09
1.17815e-07
3.98679e-09
1.1681e-07
3.78875e-09
1.15853e-07
3.58886e-09
1.14942e-07
3.40681e-09
1.14078e-07
3.20597e-09
1.13258e-07
3.03558e-09
1.12487e-07
2.81385e-09
1.11763e-07
2.63964e-09
1.11093e-07
2.35788e-09
1.10486e-07
2.11342e-09
1.0995e-07
1.69195e-09
1.09537e-07
1.02757e-09
1.09295e-07
3.43996e-10
-2.95227e-09
1.0895e-07
2.00819e-07
1.00403e-07
2.03771e-07
9.43789e-08
2.05344e-07
6.56999e-08
2.05643e-07
5.43664e-08
2.0481e-07
4.66157e-08
2.03326e-07
4.03742e-08
2.01373e-07
3.59201e-08
1.99035e-07
3.24565e-08
1.96421e-07
2.94825e-08
1.93634e-07
2.68774e-08
1.90755e-07
2.45973e-08
1.87843e-07
2.25923e-08
1.84943e-07
2.08175e-08
1.82088e-07
1.92384e-08
1.79297e-07
1.7828e-08
1.76587e-07
1.65642e-08
1.73965e-07
1.54282e-08
1.71436e-07
1.4404e-08
1.69003e-07
1.34777e-08
1.66664e-07
1.26374e-08
1.64419e-07
1.18728e-08
1.62265e-07
1.11749e-08
1.602e-07
1.0536e-08
1.58219e-07
9.94927e-09
1.5632e-07
9.40888e-09
1.54499e-07
8.90963e-09
1.52753e-07
8.44703e-09
1.51079e-07
8.01703e-09
1.49473e-07
7.61618e-09
1.47932e-07
7.24121e-09
1.46454e-07
6.88945e-09
1.45036e-07
6.55824e-09
1.43676e-07
6.24533e-09
1.42371e-07
5.94885e-09
1.41119e-07
5.66609e-09
1.39919e-07
5.39721e-09
1.3877e-07
5.13645e-09
1.37668e-07
4.8898e-09
1.36615e-07
4.64191e-09
1.35609e-07
4.4133e-09
1.34649e-07
4.16556e-09
1.33736e-07
3.94881e-09
1.3287e-07
3.67986e-09
1.32055e-07
3.45464e-09
1.3129e-07
3.12273e-09
1.30595e-07
2.80854e-09
1.29963e-07
2.32369e-09
1.29454e-07
1.53669e-09
1.29103e-07
6.95179e-10
-2.52387e-09
1.28675e-07
2.06422e-07
9.35124e-08
2.09331e-07
9.14707e-08
2.11055e-07
6.39758e-08
2.11934e-07
5.34874e-08
2.11994e-07
4.65552e-08
2.11605e-07
4.07631e-08
2.1087e-07
3.66549e-08
2.09793e-07
3.35341e-08
2.08412e-07
3.08637e-08
2.06786e-07
2.85034e-08
2.04971e-07
2.64119e-08
2.03017e-07
2.45464e-08
2.00966e-07
2.28684e-08
1.98854e-07
2.13503e-08
1.9671e-07
1.99717e-08
1.94558e-07
1.87166e-08
1.92415e-07
1.75714e-08
1.90295e-07
1.65241e-08
1.88208e-07
1.55644e-08
1.86162e-07
1.46831e-08
1.84163e-07
1.3872e-08
1.82214e-07
1.3124e-08
1.80318e-07
1.24324e-08
1.78475e-07
1.17916e-08
1.76688e-07
1.11965e-08
1.74955e-07
1.06424e-08
1.73277e-07
1.01253e-08
1.71652e-07
9.64134e-09
1.70081e-07
9.18741e-09
1.68562e-07
8.76032e-09
1.67094e-07
8.35751e-09
1.65676e-07
7.97633e-09
1.64307e-07
7.61454e-09
1.62985e-07
7.27026e-09
1.61711e-07
6.94068e-09
1.60482e-07
6.62596e-09
1.59298e-07
6.32012e-09
1.58159e-07
6.02919e-09
1.57063e-07
5.73748e-09
1.56011e-07
5.46536e-09
1.55002e-07
5.17451e-09
1.54038e-07
4.91311e-09
1.53117e-07
4.60117e-09
1.52246e-07
4.32519e-09
1.5142e-07
3.94864e-09
1.50664e-07
3.56448e-09
1.49964e-07
3.02388e-09
1.49378e-07
2.12248e-09
1.48934e-07
1.13975e-09
-2.01223e-09
1.48422e-07
2.12269e-07
8.6906e-08
2.15139e-07
8.85999e-08
2.1681e-07
6.23057e-08
2.17848e-07
5.24488e-08
2.18254e-07
4.61494e-08
2.18367e-07
4.06498e-08
2.18286e-07
3.67359e-08
2.1798e-07
3.38407e-08
2.17442e-07
3.14019e-08
2.16691e-07
2.92539e-08
2.15753e-07
2.73504e-08
2.14652e-07
2.56474e-08
2.13414e-07
2.41061e-08
2.12065e-07
2.26991e-08
2.10629e-07
2.14082e-08
2.09126e-07
2.02197e-08
2.07574e-07
1.91226e-08
2.05991e-07
1.81078e-08
2.04388e-07
1.71674e-08
2.02776e-07
1.62943e-08
2.01166e-07
1.54823e-08
1.99564e-07
1.47257e-08
1.97977e-07
1.40196e-08
1.9641e-07
1.33594e-08
1.94865e-07
1.27408e-08
1.93347e-07
1.21602e-08
1.91859e-07
1.16141e-08
1.90401e-07
1.10993e-08
1.88975e-07
1.06131e-08
1.87583e-07
1.01526e-08
1.86225e-07
9.71557e-09
1.84901e-07
9.29964e-09
1.83613e-07
8.90271e-09
1.8236e-07
8.52304e-09
1.81143e-07
8.15789e-09
1.79962e-07
7.80752e-09
1.78816e-07
7.4659e-09
1.77706e-07
7.13908e-09
1.76632e-07
6.81148e-09
1.75595e-07
6.50268e-09
1.74593e-07
6.17587e-09
1.73631e-07
5.87526e-09
1.72705e-07
5.52729e-09
1.71825e-07
5.20499e-09
1.70983e-07
4.79127e-09
1.70205e-07
4.34216e-09
1.69474e-07
3.75472e-09
1.68841e-07
2.75556e-09
1.68333e-07
1.64783e-09
-1.42264e-09
1.67743e-07
2.18315e-07
8.05722e-08
2.21189e-07
8.57257e-08
2.22782e-07
6.07122e-08
2.23849e-07
5.13819e-08
2.24363e-07
4.56351e-08
2.24654e-07
4.03589e-08
2.2485e-07
3.65405e-08
2.24921e-07
3.37692e-08
2.24849e-07
3.14745e-08
2.24633e-07
2.947e-08
2.24278e-07
2.77053e-08
2.23791e-07
2.61346e-08
2.2318e-07
2.47162e-08
2.22459e-07
2.34206e-08
2.21639e-07
2.22284e-08
2.20733e-07
2.11256e-08
2.19754e-07
2.01016e-08
2.18714e-07
1.9148e-08
2.17623e-07
1.82576e-08
2.16493e-07
1.74245e-08
2.15332e-07
1.66435e-08
2.14147e-07
1.591e-08
2.12947e-07
1.52199e-08
2.11737e-07
1.45695e-08
2.10522e-07
1.39554e-08
2.09308e-07
1.33745e-08
2.08098e-07
1.28241e-08
2.06896e-07
1.23016e-08
2.05704e-07
1.18046e-08
2.04526e-07
1.13308e-08
2.03363e-07
1.08783e-08
2.02218e-07
1.04449e-08
2.01092e-07
1.00289e-08
1.99986e-07
9.62876e-09
1.98902e-07
9.24188e-09
1.97841e-07
8.86874e-09
1.96803e-07
8.50338e-09
1.95791e-07
8.1518e-09
1.94803e-07
7.79893e-09
1.93843e-07
7.46311e-09
1.92909e-07
7.11e-09
1.92005e-07
6.7786e-09
1.91129e-07
6.40381e-09
1.90291e-07
6.04297e-09
1.89481e-07
5.60135e-09
1.88726e-07
5.09687e-09
1.88009e-07
4.47196e-09
1.87364e-07
3.40028e-09
1.86828e-07
2.18361e-09
-7.7676e-10
1.86182e-07
2.24548e-07
7.45172e-08
2.27449e-07
8.28252e-08
2.28978e-07
5.91828e-08
2.30052e-07
5.03079e-08
2.30607e-07
4.50804e-08
2.30946e-07
4.00196e-08
2.31231e-07
3.62555e-08
2.31451e-07
3.35495e-08
2.31587e-07
3.13385e-08
2.31638e-07
2.94191e-08
2.31603e-07
2.77397e-08
2.31482e-07
2.62559e-08
2.31273e-07
2.49245e-08
2.3098e-07
2.37139e-08
2.30606e-07
2.26028e-08
2.30155e-07
2.15761e-08
2.29635e-07
2.06224e-08
2.2905e-07
1.97327e-08
2.28408e-07
1.88999e-08
2.27714e-07
1.81179e-08
2.26976e-07
1.73817e-08
2.26199e-07
1.6687e-08
2.25389e-07
1.60299e-08
2.24552e-07
1.54072e-08
2.23691e-07
1.48158e-08
2.22812e-07
1.42532e-08
2.2192e-07
1.37168e-08
2.21017e-07
1.32045e-08
2.20107e-07
1.27143e-08
2.19194e-07
1.22442e-08
2.18279e-07
1.17925e-08
2.17367e-07
1.13574e-08
2.16458e-07
1.09374e-08
2.15556e-07
1.05311e-08
2.14662e-07
1.01362e-08
2.13777e-07
9.75339e-09
2.12904e-07
9.37679e-09
2.12043e-07
9.0123e-09
2.11196e-07
8.64567e-09
2.10366e-07
8.29357e-09
2.09551e-07
7.92493e-09
2.08757e-07
7.57266e-09
2.07979e-07
7.18136e-09
2.07231e-07
6.79184e-09
2.06499e-07
6.3324e-09
2.05811e-07
5.7857e-09
2.0515e-07
5.1325e-09
2.04532e-07
4.01821e-09
2.04001e-07
2.71491e-09
-1.09724e-10
2.03334e-07
2.30974e-07
6.8749e-08
2.33909e-07
7.98898e-08
2.35382e-07
5.77105e-08
2.36464e-07
4.92257e-08
2.37051e-07
4.4493e-08
2.37406e-07
3.96655e-08
2.37712e-07
3.59489e-08
2.37978e-07
3.3284e-08
2.38189e-07
3.11271e-08
2.38349e-07
2.9259e-08
2.3846e-07
2.76288e-08
2.3852e-07
2.61957e-08
2.38527e-07
2.49172e-08
2.3848e-07
2.3761e-08
2.38378e-07
2.27047e-08
2.38222e-07
2.17324e-08
2.38013e-07
2.08319e-08
2.37752e-07
1.99937e-08
2.37442e-07
1.921e-08
2.37085e-07
1.84743e-08
2.36685e-07
1.77814e-08
2.36246e-07
1.71267e-08
2.35769e-07
1.65063e-08
2.3526e-07
1.59168e-08
2.3472e-07
1.53553e-08
2.34154e-07
1.48193e-08
2.33565e-07
1.43063e-08
2.32955e-07
1.38143e-08
2.32328e-07
1.33415e-08
2.31686e-07
1.28859e-08
2.31032e-07
1.24461e-08
2.30369e-07
1.20205e-08
2.29699e-07
1.16076e-08
2.29024e-07
1.12064e-08
2.28346e-07
1.08145e-08
2.27666e-07
1.04327e-08
2.26988e-07
1.00555e-08
2.26311e-07
9.68847e-09
2.25639e-07
9.3184e-09
2.24972e-07
8.95998e-09
2.24311e-07
8.58586e-09
2.23662e-07
8.22247e-09
2.23018e-07
7.82451e-09
2.22394e-07
7.41672e-09
2.21777e-07
6.94901e-09
2.21188e-07
6.37487e-09
2.20617e-07
5.7028e-09
2.20061e-07
4.57466e-09
2.1956e-07
3.21635e-09
5.44426e-10
2.18905e-07
2.376e-07
6.32734e-08
2.40575e-07
7.69152e-08
2.4199e-07
5.62953e-08
2.4308e-07
4.81363e-08
2.43704e-07
4.3869e-08
2.4407e-07
3.92986e-08
2.44382e-07
3.5637e-08
2.4466e-07
3.30062e-08
2.44894e-07
3.0893e-08
2.45091e-07
2.90626e-08
2.45256e-07
2.74637e-08
2.45391e-07
2.60607e-08
2.45495e-07
2.4813e-08
2.45567e-07
2.36887e-08
2.45607e-07
2.26653e-08
2.45612e-07
2.17268e-08
2.45583e-07
2.08608e-08
2.4552e-07
2.00573e-08
2.45421e-07
1.93083e-08
2.45289e-07
1.86069e-08
2.45123e-07
1.79476e-08
2.44924e-07
1.73254e-08
2.44694e-07
1.67363e-08
2.44434e-07
1.61767e-08
2.44146e-07
1.56434e-08
2.43831e-07
1.51337e-08
2.43492e-07
1.46453e-08
2.43131e-07
1.4176e-08
2.42748e-07
1.37238e-08
2.42347e-07
1.32871e-08
2.41929e-07
1.28641e-08
2.41496e-07
1.24536e-08
2.4105e-07
1.20538e-08
2.40592e-07
1.1664e-08
2.40125e-07
1.12818e-08
2.39649e-07
1.09081e-08
2.39167e-07
1.05376e-08
2.3868e-07
1.01754e-08
2.38189e-07
9.80951e-09
2.37697e-07
9.45238e-09
2.37202e-07
9.08066e-09
2.3671e-07
8.71418e-09
2.36217e-07
8.31757e-09
2.35733e-07
7.901e-09
2.35249e-07
7.4329e-09
2.34778e-07
6.84548e-09
2.34317e-07
6.16424e-09
2.33845e-07
5.0465e-09
2.33393e-07
3.66845e-09
1.16724e-09
2.3277e-07
2.44436e-07
5.8094e-08
2.47449e-07
7.39022e-08
2.48808e-07
5.49355e-08
2.499e-07
4.70443e-08
2.50563e-07
4.32067e-08
2.50946e-07
3.89154e-08
2.51262e-07
3.53207e-08
2.51545e-07
3.2723e-08
2.51787e-07
3.06516e-08
2.51994e-07
2.88556e-08
2.52176e-07
2.72818e-08
2.52336e-07
2.59e-08
2.52477e-07
2.46723e-08
2.52598e-07
2.35676e-08
2.527e-07
2.25639e-08
2.52781e-07
2.16453e-08
2.52842e-07
2.07998e-08
2.52882e-07
2.00174e-08
2.529e-07
1.92901e-08
2.52896e-07
1.86109e-08
2.5287e-07
1.79741e-08
2.52821e-07
1.73745e-08
2.52749e-07
1.6808e-08
2.52655e-07
1.62707e-08
2.52539e-07
1.57593e-08
2.52402e-07
1.5271e-08
2.52244e-07
1.48032e-08
2.52066e-07
1.43537e-08
2.5187e-07
1.39204e-08
2.51656e-07
1.35014e-08
2.51424e-07
1.30953e-08
2.51178e-07
1.27004e-08
2.50916e-07
1.23151e-08
2.50642e-07
1.19388e-08
2.50355e-07
1.15688e-08
2.50056e-07
1.12062e-08
2.49748e-07
1.08459e-08
2.49431e-07
1.04923e-08
2.49106e-07
1.01349e-08
2.48775e-07
9.78359e-09
2.48436e-07
9.4192e-09
2.48095e-07
9.0552e-09
2.47748e-07
8.66529e-09
2.47401e-07
8.24738e-09
2.47049e-07
7.78459e-09
2.46699e-07
7.1958e-09
2.46349e-07
6.51455e-09
2.45969e-07
5.4265e-09
2.45574e-07
4.06287e-09
1.75029e-09
2.44991e-07
2.51488e-07
5.32129e-08
2.54529e-07
7.08609e-08
2.55845e-07
5.36202e-08
2.56934e-07
4.5955e-08
2.57634e-07
4.2507e-08
2.58036e-07
3.85131e-08
2.58358e-07
3.49989e-08
2.58646e-07
3.24347e-08
2.58892e-07
3.04052e-08
2.59104e-07
2.86443e-08
2.59291e-07
2.70949e-08
2.59459e-07
2.57316e-08
2.59611e-07
2.45201e-08
2.59749e-07
2.34298e-08
2.59874e-07
2.24393e-08
2.59986e-07
2.15335e-08
2.60085e-07
2.07005e-08
2.60171e-07
1.99309e-08
2.60245e-07
1.92166e-08
2.60305e-07
1.85508e-08
2.60351e-07
1.79278e-08
2.60383e-07
1.73426e-08
2.604e-07
1.67907e-08
2.60403e-07
1.62682e-08
2.6039e-07
1.57718e-08
2.60363e-07
1.52986e-08
2.6032e-07
1.48458e-08
2.60263e-07
1.44111e-08
2.60191e-07
1.39924e-08
2.60104e-07
1.35877e-08
2.60004e-07
1.31953e-08
2.59891e-07
1.28138e-08
2.59765e-07
1.24413e-08
2.59626e-07
1.20772e-08
2.59476e-07
1.17189e-08
2.59315e-07
1.13673e-08
2.59143e-07
1.10176e-08
2.58962e-07
1.06735e-08
2.58771e-07
1.03259e-08
2.58572e-07
9.98237e-09
2.58364e-07
9.62744e-09
2.5815e-07
9.26894e-09
2.57927e-07
8.8884e-09
2.577e-07
8.47426e-09
2.57465e-07
8.02018e-09
2.57221e-07
7.43905e-09
2.5697e-07
6.7658e-09
2.56675e-07
5.72202e-09
2.56335e-07
4.40258e-09
2.29505e-09
2.5579e-07
2.58766e-07
4.86303e-08
2.61825e-07
6.78018e-08
2.63107e-07
5.23383e-08
2.64188e-07
4.48735e-08
2.64923e-07
4.1772e-08
2.65347e-07
3.80896e-08
2.65675e-07
3.46705e-08
2.65969e-07
3.21409e-08
2.6622e-07
3.01536e-08
2.66435e-07
2.84295e-08
2.66625e-07
2.69052e-08
2.66796e-07
2.55605e-08
2.66952e-07
2.43642e-08
2.67095e-07
2.32868e-08
2.67227e-07
2.23074e-08
2.67349e-07
2.14114e-08
2.67462e-07
2.05875e-08
2.67566e-07
1.98264e-08
2.67662e-07
1.91205e-08
2.6775e-07
1.84633e-08
2.67829e-07
1.78489e-08
2.67899e-07
1.72725e-08
2.6796e-07
1.67297e-08
2.68011e-07
1.62167e-08
2.68053e-07
1.57299e-08
2.68085e-07
1.52665e-08
2.68107e-07
1.48237e-08
2.68119e-07
1.43992e-08
2.68121e-07
1.39906e-08
2.68113e-07
1.35961e-08
2.68094e-07
1.32139e-08
2.68065e-07
1.28424e-08
2.68027e-07
1.24798e-08
2.67979e-07
1.21254e-08
2.67921e-07
1.17767e-08
2.67854e-07
1.14343e-08
2.67778e-07
1.10938e-08
2.67693e-07
1.07583e-08
2.67599e-07
1.04199e-08
2.67498e-07
1.0084e-08
2.67386e-07
9.7386e-09
2.67269e-07
9.38669e-09
2.67141e-07
9.01616e-09
2.67006e-07
8.60881e-09
2.66861e-07
8.16509e-09
2.66703e-07
7.59793e-09
2.66529e-07
6.93928e-09
2.66301e-07
5.95037e-09
2.66004e-07
4.69955e-09
2.80968e-09
2.65489e-07
2.66278e-07
4.43449e-08
2.69344e-07
6.47356e-08
2.70603e-07
5.10792e-08
2.71672e-07
4.3804e-08
2.72439e-07
4.10048e-08
2.72886e-07
3.76434e-08
2.73221e-07
3.43348e-08
2.73521e-07
3.18416e-08
2.73778e-07
2.98963e-08
2.73997e-07
2.82106e-08
2.74189e-07
2.67131e-08
2.74362e-07
2.53874e-08
2.7452e-07
2.42065e-08
2.74665e-07
2.31419e-08
2.74799e-07
2.21732e-08
2.74924e-07
2.12862e-08
2.75041e-07
2.04701e-08
2.75152e-07
1.9716e-08
2.75256e-07
1.90166e-08
2.75353e-07
1.83656e-08
2.75445e-07
1.77573e-08
2.7553e-07
1.7187e-08
2.7561e-07
1.66503e-08
2.75683e-07
1.61434e-08
2.7575e-07
1.5663e-08
2.7581e-07
1.52061e-08
2.75864e-07
1.47699e-08
2.75911e-07
1.43521e-08
2.75952e-07
1.39504e-08
2.75985e-07
1.35628e-08
2.76011e-07
1.31876e-08
2.7603e-07
1.28232e-08
2.76043e-07
1.24677e-08
2.76048e-07
1.21204e-08
2.76045e-07
1.17788e-08
2.76036e-07
1.14435e-08
2.7602e-07
1.11104e-08
2.75996e-07
1.07818e-08
2.75965e-07
1.04512e-08
2.75927e-07
1.01219e-08
2.75881e-07
9.78504e-09
2.75828e-07
9.43973e-09
2.75765e-07
9.07868e-09
2.75694e-07
8.67971e-09
2.75612e-07
8.24697e-09
2.75512e-07
7.69803e-09
2.75392e-07
7.0595e-09
2.75209e-07
6.1329e-09
2.74939e-07
4.97e-09
3.30616e-09
2.74442e-07
2.74032e-07
4.03538e-08
2.77095e-07
6.16732e-08
2.78341e-07
4.98327e-08
2.79395e-07
4.27503e-08
2.80191e-07
4.02093e-08
2.80661e-07
3.7173e-08
2.81005e-07
3.39909e-08
2.8131e-07
3.15368e-08
2.81573e-07
2.96332e-08
2.81796e-07
2.79873e-08
2.81991e-07
2.6518e-08
2.82166e-07
2.52124e-08
2.82325e-07
2.40473e-08
2.82472e-07
2.29958e-08
2.82607e-07
2.20379e-08
2.82733e-07
2.11599e-08
2.82852e-07
2.03513e-08
2.82964e-07
1.96039e-08
2.8307e-07
1.89104e-08
2.83171e-07
1.82647e-08
2.83267e-07
1.76616e-08
2.83358e-07
1.70961e-08
2.83444e-07
1.65642e-08
2.83525e-07
1.6062e-08
2.83602e-07
1.55863e-08
2.83674e-07
1.5134e-08
2.83742e-07
1.47025e-08
2.83804e-07
1.42894e-08
2.83862e-07
1.38925e-08
2.83915e-07
1.35099e-08
2.83963e-07
1.31396e-08
2.84006e-07
1.27802e-08
2.84044e-07
1.24298e-08
2.84077e-07
1.20876e-08
2.84104e-07
1.17513e-08
2.84127e-07
1.14212e-08
2.84143e-07
1.10939e-08
2.84154e-07
1.07706e-08
2.84159e-07
1.04464e-08
2.84158e-07
1.01226e-08
2.8415e-07
9.79303e-09
2.84136e-07
9.45396e-09
2.84113e-07
9.10148e-09
2.84081e-07
8.71177e-09
2.84038e-07
8.2903e-09
2.83974e-07
7.7625e-09
2.83884e-07
7.14889e-09
2.83727e-07
6.28995e-09
2.83468e-07
5.22949e-09
3.79605e-09
2.82978e-07
2.82039e-07
3.66521e-08
2.85087e-07
5.86257e-08
2.8633e-07
4.85892e-08
2.87366e-07
4.1715e-08
2.88185e-07
3.93898e-08
2.88681e-07
3.6677e-08
2.89034e-07
3.36377e-08
2.89344e-07
3.12266e-08
2.89613e-07
2.93642e-08
2.89841e-07
2.77593e-08
2.9004e-07
2.63198e-08
2.90217e-07
2.5035e-08
2.90378e-07
2.38863e-08
2.90525e-07
2.28484e-08
2.90662e-07
2.19016e-08
2.90789e-07
2.10327e-08
2.90908e-07
2.02319e-08
2.91021e-07
1.94911e-08
2.91128e-07
1.88034e-08
2.9123e-07
1.8163e-08
2.91327e-07
1.75647e-08
2.91419e-07
1.70037e-08
2.91507e-07
1.6476e-08
2.91591e-07
1.5978e-08
2.91671e-07
1.55062e-08
2.91747e-07
1.50578e-08
2.9182e-07
1.46302e-08
2.91888e-07
1.4221e-08
2.91953e-07
1.38279e-08
2.92014e-07
1.3449e-08
2.92071e-07
1.30825e-08
2.92124e-07
1.2727e-08
2.92173e-07
1.23804e-08
2.92219e-07
1.20422e-08
2.9226e-07
1.171e-08
2.92297e-07
1.1384e-08
2.9233e-07
1.10611e-08
2.92358e-07
1.07422e-08
2.92381e-07
1.04232e-08
2.924e-07
1.01041e-08
2.92412e-07
9.78087e-09
2.92418e-07
9.44778e-09
2.92417e-07
9.10313e-09
2.92405e-07
8.7233e-09
2.92382e-07
8.31354e-09
2.92335e-07
7.80907e-09
2.92259e-07
7.22485e-09
2.92112e-07
6.43755e-09
2.91851e-07
5.48998e-09
4.28783e-09
2.91359e-07
2.90307e-07
3.32334e-08
2.93329e-07
5.5604e-08
2.94578e-07
4.73399e-08
2.95593e-07
4.07004e-08
2.96431e-07
3.85514e-08
2.96954e-07
3.61545e-08
2.97318e-07
3.32739e-08
2.97633e-07
3.09111e-08
2.97908e-07
2.90891e-08
2.98141e-07
2.75262e-08
2.98343e-07
2.61181e-08
2.98523e-07
2.48552e-08
2.98686e-07
2.37234e-08
2.98835e-07
2.26994e-08
2.98972e-07
2.17642e-08
2.991e-07
2.09047e-08
2.9922e-07
2.01118e-08
2.99333e-07
1.93778e-08
2.99441e-07
1.86961e-08
2.99543e-07
1.8061e-08
2.9964e-07
1.74674e-08
2.99733e-07
1.6911e-08
2.99821e-07
1.63875e-08
2.99906e-07
1.58933e-08
2.99987e-07
1.54254e-08
3.00064e-07
1.49807e-08
3.00138e-07
1.45566e-08
3.00208e-07
1.41508e-08
3.00275e-07
1.37611e-08
3.00338e-07
1.33856e-08
3.00398e-07
1.30224e-08
3.00455e-07
1.26701e-08
3.00508e-07
1.23269e-08
3.00559e-07
1.1992e-08
3.00605e-07
1.16633e-08
3.00649e-07
1.13407e-08
3.00688e-07
1.10217e-08
3.00724e-07
1.07065e-08
3.00755e-07
1.0392e-08
3.00782e-07
1.00774e-08
3.00803e-07
9.75972e-09
3.00818e-07
9.43259e-09
3.00826e-07
9.09539e-09
3.00823e-07
8.7261e-09
3.00808e-07
8.32885e-09
3.00767e-07
7.84958e-09
3.00693e-07
7.29894e-09
3.00544e-07
6.58642e-09
3.00275e-07
5.75876e-09
4.78561e-09
2.99778e-07
2.98846e-07
3.00896e-08
3.01831e-07
5.26196e-08
3.03094e-07
4.60768e-08
3.04087e-07
3.97077e-08
3.04939e-07
3.76993e-08
3.05488e-07
3.56049e-08
3.05864e-07
3.2898e-08
3.06185e-07
3.05903e-08
3.06466e-07
2.88081e-08
3.06705e-07
2.72877e-08
3.0691e-07
2.59127e-08
3.07092e-07
2.46728e-08
3.07257e-07
2.35585e-08
3.07408e-07
2.25488e-08
3.07547e-07
2.16254e-08
3.07676e-07
2.07758e-08
3.07797e-07
1.9991e-08
3.0791e-07
1.92639e-08
3.08018e-07
1.85883e-08
3.0812e-07
1.79586e-08
3.08218e-07
1.737e-08
3.08311e-07
1.68181e-08
3.08399e-07
1.62988e-08
3.08484e-07
1.58087e-08
3.08565e-07
1.53445e-08
3.08642e-07
1.49034e-08
3.08716e-07
1.44829e-08
3.08786e-07
1.40804e-08
3.08853e-07
1.3694e-08
3.08917e-07
1.33217e-08
3.08978e-07
1.29617e-08
3.09036e-07
1.26125e-08
3.0909e-07
1.22724e-08
3.09141e-07
1.19406e-08
3.0919e-07
1.16151e-08
3.09235e-07
1.12957e-08
3.09276e-07
1.09803e-08
3.09314e-07
1.06686e-08
3.09348e-07
1.03583e-08
3.09377e-07
1.00479e-08
3.09402e-07
9.73557e-09
3.0942e-07
9.41459e-09
3.0943e-07
9.08484e-09
3.09429e-07
8.72682e-09
3.09415e-07
8.34322e-09
3.09374e-07
7.89086e-09
3.09295e-07
7.37772e-09
3.09139e-07
6.74239e-09
3.08859e-07
6.03867e-09
5.28911e-09
3.08356e-07
3.07666e-07
2.72108e-08
3.10602e-07
4.96836e-08
3.11886e-07
4.47933e-08
3.12856e-07
3.87373e-08
3.13717e-07
3.68387e-08
3.14293e-07
3.50282e-08
3.14683e-07
3.25086e-08
3.15009e-07
3.02639e-08
3.15296e-07
2.85211e-08
3.1554e-07
2.70436e-08
3.1575e-07
2.57032e-08
3.15935e-07
2.44874e-08
3.16102e-07
2.33912e-08
3.16255e-07
2.23964e-08
3.16395e-07
2.14852e-08
3.16525e-07
2.06456e-08
3.16647e-07
1.98693e-08
3.16761e-07
1.91494e-08
3.1687e-07
1.848e-08
3.16972e-07
1.78559e-08
3.1707e-07
1.72724e-08
3.17163e-07
1.67251e-08
3.17252e-07
1.62102e-08
3.17336e-07
1.57241e-08
3.17417e-07
1.52638e-08
3.17494e-07
1.48264e-08
3.17567e-07
1.44093e-08
3.17638e-07
1.40103e-08
3.17704e-07
1.36272e-08
3.17768e-07
1.32581e-08
3.17829e-07
1.29012e-08
3.17886e-07
1.25551e-08
3.1794e-07
1.22181e-08
3.17992e-07
1.18892e-08
3.1804e-07
1.15669e-08
3.18085e-07
1.12506e-08
3.18126e-07
1.09387e-08
3.18165e-07
1.06305e-08
3.18199e-07
1.03243e-08
3.18228e-07
1.00183e-08
3.18252e-07
9.71125e-09
3.1827e-07
9.39674e-09
3.1828e-07
9.07473e-09
3.18278e-07
8.72875e-09
3.18262e-07
8.36017e-09
3.18216e-07
7.93628e-09
3.1813e-07
7.46408e-09
3.17964e-07
6.90768e-09
3.17674e-07
6.32923e-09
5.79483e-09
3.17168e-07
3.16776e-07
2.45859e-08
3.19653e-07
4.6807e-08
3.20962e-07
4.34836e-08
3.21911e-07
3.7789e-08
3.22775e-07
3.59748e-08
3.23378e-07
3.44252e-08
3.23782e-07
3.21042e-08
3.24114e-07
2.99317e-08
3.24407e-07
2.82283e-08
3.24657e-07
2.67935e-08
3.24871e-07
2.54893e-08
3.2506e-07
2.42989e-08
3.25229e-07
2.32215e-08
3.25384e-07
2.22419e-08
3.25526e-07
2.13434e-08
3.25657e-07
2.05142e-08
3.2578e-07
1.97465e-08
3.25895e-07
1.9034e-08
3.26004e-07
1.83711e-08
3.26107e-07
1.77527e-08
3.26205e-07
1.71744e-08
3.26299e-07
1.66319e-08
3.26387e-07
1.61214e-08
3.26472e-07
1.56395e-08
3.26553e-07
1.51831e-08
3.2663e-07
1.47495e-08
3.26703e-07
1.4336e-08
3.26773e-07
1.39405e-08
3.26839e-07
1.35607e-08
3.26902e-07
1.31949e-08
3.26962e-07
1.28412e-08
3.27019e-07
1.24981e-08
3.27073e-07
1.21642e-08
3.27124e-07
1.18384e-08
3.27172e-07
1.15193e-08
3.27216e-07
1.12062e-08
3.27257e-07
1.08977e-08
3.27294e-07
1.05931e-08
3.27328e-07
1.02911e-08
3.27356e-07
9.98963e-09
3.2738e-07
9.68793e-09
3.27396e-07
9.38028e-09
3.27404e-07
9.06646e-09
3.274e-07
8.73328e-09
3.27379e-07
8.38117e-09
3.27328e-07
7.98715e-09
3.27233e-07
7.55874e-09
3.27059e-07
7.08212e-09
3.2676e-07
6.62785e-09
6.29721e-09
3.26258e-07
3.26186e-07
2.22021e-08
3.28993e-07
4.40009e-08
3.30332e-07
4.21436e-08
3.3126e-07
3.68615e-08
3.32123e-07
3.51121e-08
3.3275e-07
3.37976e-08
3.33171e-07
3.16832e-08
3.3351e-07
2.95929e-08
3.33808e-07
2.79298e-08
3.34065e-07
2.65373e-08
3.34283e-07
2.52705e-08
3.34475e-07
2.4107e-08
3.34648e-07
2.30491e-08
3.34805e-07
2.20852e-08
3.34948e-07
2.11997e-08
3.35081e-07
2.03813e-08
3.35205e-07
1.96225e-08
3.35322e-07
1.89176e-08
3.35431e-07
1.82614e-08
3.35535e-07
1.76489e-08
3.35634e-07
1.70759e-08
3.35727e-07
1.65383e-08
3.35816e-07
1.60324e-08
3.35901e-07
1.55548e-08
3.35981e-07
1.51024e-08
3.36058e-07
1.46727e-08
3.36131e-07
1.42629e-08
3.36201e-07
1.38709e-08
3.36267e-07
1.34946e-08
3.3633e-07
1.31321e-08
3.36389e-07
1.27816e-08
3.36446e-07
1.24417e-08