/*--------------------------------*- C++ -*----------------------------------*\
  =========                 |
  \\      /  F ield         | OpenFOAM: The Open Source CFD Toolbox
   \\    /   O peration     | Website:  https://openfoam.org
    \\  /    A nd           | Version:  7
     \\/     M anipulation  |
\*---------------------------------------------------------------------------*/
FoamFile
{
    version     2.0;
    format      ascii;
    class       volVectorField;
    location    "0.49";
    object      U;
}
// * * * * * * * * * * * * * * * * * * * * * * * * * * * * * * * * * * * * * //

dimensions      [0 1 -1 0 0 0 0];

internalField   nonuniform List<vector> 
70000
(
(0.553412 0.0169782 0)
(0.25141 0.00340058 0)
(0.165909 0.000319145 0)
(0.132415 4.91685e-05 0)
(0.117299 4.42123e-05 0)
(0.107331 5.23729e-05 0)
(0.0993505 4.45677e-05 0)
(0.0928991 3.54865e-05 0)
(0.0876481 2.94446e-05 0)
(0.0832726 2.53037e-05 0)
(0.0795441 2.2141e-05 0)
(0.0763146 1.96078e-05 0)
(0.0734828 1.75444e-05 0)
(0.0709745 1.58416e-05 0)
(0.0687334 1.44179e-05 0)
(0.0667161 1.32135e-05 0)
(0.0648883 1.21836e-05 0)
(0.0632228 1.12951e-05 0)
(0.0616976 1.05219e-05 0)
(0.0602944 9.84475e-06 0)
(0.0589983 9.24748e-06 0)
(0.0577969 8.71805e-06 0)
(0.0566796 8.24602e-06 0)
(0.0556374 7.82363e-06 0)
(0.0546627 7.44346e-06 0)
(0.0537489 7.10102e-06 0)
(0.0528904 6.7901e-06 0)
(0.0520823 6.50905e-06 0)
(0.0513203 6.25155e-06 0)
(0.0506006 6.01973e-06 0)
(0.0499201 5.80362e-06 0)
(0.0492755 5.61379e-06 0)
(0.0486647 5.42768e-06 0)
(0.0480848 5.27509e-06 0)
(0.0475348 5.10745e-06 0)
(0.0470118 4.98314e-06 0)
(0.0465153 4.82395e-06 0)
(0.0460438 4.69305e-06 0)
(0.0455948 4.54856e-06 0)
(0.0451744 4.28659e-06 0)
(0.0447665 4.23041e-06 0)
(0.0444083 3.45443e-06 0)
(0.0440328 3.75499e-06 0)
(0.0437759 1.39376e-06 0)
(0.0434182 2.92807e-06 0)
(0.043376 -4.32087e-06 0)
(0.0429999 2.09279e-06 0)
(0.0435076 -2.27322e-05 0)
(0.0430724 2.07431e-05 0)
(0.0421965 -0.00165846 0)
(0.884862 0.0434937 0)
(0.650138 0.0201499 0)
(0.493946 0.00660606 0)
(0.403497 0.00275629 0)
(0.35476 0.00154947 0)
(0.32342 0.00113312 0)
(0.299498 0.000910609 0)
(0.28027 0.000745944 0)
(0.26454 0.000623217 0)
(0.251403 0.000532746 0)
(0.240207 0.000464103 0)
(0.230511 0.00041012 0)
(0.222007 0.000366532 0)
(0.214472 0.000330681 0)
(0.207739 0.000300756 0)
(0.201677 0.00027546 0)
(0.196183 0.000253839 0)
(0.191177 0.000235177 0)
(0.186592 0.000218929 0)
(0.182373 0.000204673 0)
(0.178477 0.000192076 0)
(0.174865 0.000180873 0)
(0.171507 0.000170849 0)
(0.168375 0.00016183 0)
(0.165446 0.000153671 0)
(0.162701 0.000146254 0)
(0.160124 0.000139476 0)
(0.157699 0.000133256 0)
(0.155413 0.000127517 0)
(0.153257 0.000122206 0)
(0.151219 0.000117255 0)
(0.149291 0.000112645 0)
(0.147467 0.000108288 0)
(0.145738 0.000104227 0)
(0.1441 0.000100299 0)
(0.142547 9.66686e-05 0)
(0.141075 9.29965e-05 0)
(0.139681 8.967e-05 0)
(0.138357 8.60195e-05 0)
(0.137118 8.27163e-05 0)
(0.13592 7.8696e-05 0)
(0.134857 7.45424e-05 0)
(0.133749 6.93853e-05 0)
(0.132947 6.16024e-05 0)
(0.131863 5.3824e-05 0)
(0.131568 3.28108e-05 0)
(0.130368 2.34432e-05 0)
(0.131283 -6.67897e-05 0)
(0.129811 0.000114678 0)
(0.130967 -0.00285428 0)
(0.991209 0.0499563 0)
(0.890917 0.0305649 0)
(0.762462 0.0146139 0)
(0.65647 0.0079746 0)
(0.585327 0.00488346 0)
(0.535919 0.00347823 0)
(0.497991 0.00274178 0)
(0.467329 0.00224726 0)
(0.441987 0.00188341 0)
(0.420654 0.00161183 0)
(0.402379 0.00140457 0)
(0.386493 0.00124155 0)
(0.37252 0.00110999 0)
(0.36011 0.00100178 0)
(0.348996 0.000911409 0)
(0.338973 0.000834981 0)
(0.329877 0.000769619 0)
(0.321577 0.000713174 0)
(0.313967 0.000664001 0)
(0.306959 0.00062083 0)
(0.300481 0.000582658 0)
(0.294472 0.000548686 0)
(0.288881 0.000518265 0)
(0.283664 0.00049087 0)
(0.278784 0.000466062 0)
(0.274208 0.000443481 0)
(0.26991 0.00042282 0)
(0.265865 0.000403825 0)
(0.262053 0.00038627 0)
(0.258455 0.000369976 0)
(0.255055 0.000354759 0)
(0.251839 0.000340513 0)
(0.248797 0.000327041 0)
(0.245914 0.000314357 0)
(0.243185 0.000302134 0)
(0.240598 0.000290654 0)
(0.23815 0.00027917 0)
(0.235832 0.000268626 0)
(0.233635 0.000257168 0)
(0.231578 0.000247223 0)
(0.229597 0.000234496 0)
(0.227827 0.000224117 0)
(0.226006 0.000207389 0)
(0.224631 0.000192648 0)
(0.222865 0.000165948 0)
(0.222197 0.000131017 0)
(0.220268 8.82957e-05 0)
(0.221184 -7.22285e-05 0)
(0.218732 8.23219e-05 0)
(0.222167 -0.00301606 0)
(1.01554 0.0489546 0)
(1.00649 0.0357273 0)
(0.935865 0.0208246 0)
(0.851958 0.013505 0)
(0.782141 0.00920486 0)
(0.726949 0.00679004 0)
(0.681816 0.00539336 0)
(0.644016 0.00445158 0)
(0.611968 0.00375654 0)
(0.584475 0.00323054 0)
(0.560597 0.00282448 0)
(0.539625 0.00250293 0)
(0.521029 0.00224231 0)
(0.504405 0.00202718 0)
(0.489438 0.00184699 0)
(0.475879 0.00169418 0)
(0.463527 0.0015632 0)
(0.452219 0.00144985 0)
(0.441821 0.00135094 0)
(0.432223 0.00126397 0)
(0.423332 0.00118695 0)
(0.415068 0.00111832 0)
(0.407365 0.00105679 0)
(0.400167 0.00100131 0)
(0.393425 0.000951021 0)
(0.387096 0.000905192 0)
(0.381143 0.000863217 0)
(0.375536 0.000824577 0)
(0.370245 0.000788831 0)
(0.365248 0.000755595 0)
(0.360522 0.000724527 0)
(0.356048 0.00069536 0)
(0.351812 0.000667766 0)
(0.347796 0.000641656 0)
(0.343993 0.000616524 0)
(0.340385 0.000592726 0)
(0.33697 0.000569025 0)
(0.333735 0.000547052 0)
(0.330669 0.000523349 0)
(0.327793 0.000502863 0)
(0.325034 0.000476561 0)
(0.322543 0.000456663 0)
(0.320025 0.000422322 0)
(0.318033 0.000398651 0)
(0.315636 0.000344207 0)
(0.314468 0.000296212 0)
(0.311958 0.000201881 0)
(0.312517 -1.03362e-05 0)
(0.309456 -1.24423e-06 0)
(0.3134 -0.00284312 0)
(1.01435 0.0460991 0)
(1.04798 0.037345 0)
(1.02455 0.0241938 0)
(0.974641 0.0175668 0)
(0.923407 0.0131191 0)
(0.876633 0.0102155 0)
(0.834425 0.00835466 0)
(0.796637 0.0070309 0)
(0.763046 0.00601917 0)
(0.733207 0.00523107 0)
(0.706607 0.00460906 0)
(0.682772 0.00410864 0)
(0.661301 0.0036983 0)
(0.641861 0.00335646 0)
(0.624174 0.00306797 0)
(0.608011 0.0028218 0)
(0.593178 0.00260968 0)
(0.579513 0.0024253 0)
(0.56688 0.00226378 0)
(0.555162 0.00212126 0)
(0.54426 0.00199468 0)
(0.534091 0.00188158 0)
(0.524582 0.00177995 0)
(0.515668 0.00168812 0)
(0.507296 0.00160471 0)
(0.499418 0.00152857 0)
(0.491992 0.00145872 0)
(0.484982 0.00139432 0)
(0.478355 0.00133467 0)
(0.472084 0.00127912 0)
(0.466143 0.00122713 0)
(0.46051 0.00117824 0)
(0.455168 0.00113195 0)
(0.450096 0.00108802 0)
(0.445284 0.00104575 0)
(0.440713 0.00100553 0)
(0.436379 0.000965571 0)
(0.432268 0.000928242 0)
(0.428366 0.000888298 0)
(0.424695 0.000853438 0)
(0.421181 0.000809442 0)
(0.417971 0.000776222 0)
(0.414779 0.000719876 0)
(0.412134 0.000683374 0)
(0.409155 0.000596506 0)
(0.407375 0.000531097 0)
(0.404414 0.000379525 0)
(0.404303 0.000113984 0)
(0.401088 -3.89621e-05 0)
(0.404021 -0.00267493 0)
(1.00941 0.0430488 0)
(1.05563 0.0371009 0)
(1.05866 0.0253365 0)
(1.03628 0.0197739 0)
(1.00707 0.0158102 0)
(0.976015 0.0129467 0)
(0.944444 0.0109746 0)
(0.913533 0.00949002 0)
(0.884143 0.00829734 0)
(0.856657 0.0073286 0)
(0.83115 0.00653837 0)
(0.80756 0.00588621 0)
(0.785764 0.00534064 0)
(0.765616 0.00487878 0)
(0.746969 0.00448386 0)
(0.729681 0.00414316 0)
(0.713622 0.00384687 0)
(0.698671 0.00358729 0)
(0.684723 0.00335835 0)
(0.671684 0.00315515 0)
(0.659469 0.00297375 0)
(0.648003 0.00281092 0)
(0.637222 0.002664 0)
(0.627067 0.00253077 0)
(0.617486 0.00240938 0)
(0.608433 0.00229823 0)
(0.599869 0.002196 0)
(0.591755 0.00210153 0)
(0.584062 0.00201382 0)
(0.576759 0.00193199 0)
(0.569822 0.00185528 0)
(0.563227 0.00178299 0)
(0.556956 0.00171446 0)
(0.550987 0.00164929 0)
(0.545311 0.00158655 0)
(0.539906 0.00152665 0)
(0.534768 0.00146726 0)
(0.529882 0.00141139 0)
(0.525236 0.00135213 0)
(0.520845 0.00129961 0)
(0.516647 0.00123503 0)
(0.512764 0.00118474 0)
(0.508956 0.00110405 0)
(0.505668 0.00104971 0)
(0.502165 0.000929783 0)
(0.499724 0.000838702 0)
(0.496403 0.00063382 0)
(0.495448 0.000300747 0)
(0.492287 9.15605e-06 0)
(0.493737 -0.00249823 0)
(1.00635 0.040181 0)
(1.05241 0.0361546 0)
(1.06605 0.0252609 0)
(1.05951 0.0205807 0)
(1.04685 0.0172399 0)
(1.03077 0.0146682 0)
(1.01182 0.0128371 0)
(0.991096 0.0114098 0)
(0.969645 0.0102105 0)
(0.948204 0.00919339 0)
(0.927217 0.00833252 0)
(0.906947 0.00759972 0)
(0.887539 0.00697051 0)
(0.86906 0.00642603 0)
(0.851529 0.00595174 0)
(0.83493 0.00553607 0)
(0.819231 0.00516968 0)
(0.804389 0.00484495 0)
(0.790353 0.00455562 0)
(0.777076 0.00429655 0)
(0.764508 0.00406347 0)
(0.752602 0.00385281 0)
(0.741313 0.00366155 0)
(0.7306 0.00348715 0)
(0.720425 0.00332745 0)
(0.710752 0.00318057 0)
(0.701549 0.00304494 0)
(0.692787 0.00291913 0)
(0.684439 0.00280195 0)
(0.676479 0.00269229 0)
(0.668888 0.00258921 0)
(0.661642 0.00249181 0)
(0.654726 0.00239931 0)
(0.648122 0.00231111 0)
(0.641819 0.0022261 0)
(0.635797 0.00214467 0)
(0.630054 0.00206404 0)
(0.624573 0.00198767 0)
(0.619348 0.00190737 0)
(0.614384 0.00183496 0)
(0.609636 0.00174839 0)
(0.605196 0.0016781 0)
(0.600881 0.00157259 0)
(0.597033 0.00149576 0)
(0.593094 0.00134483 0)
(0.590037 0.00121956 0)
(0.586421 0.000969076 0)
(0.584636 0.000557082 0)
(0.581501 0.000141745 0)
(0.581588 -0.00226772 0)
(1.00506 0.0375039 0)
(1.04762 0.0350568 0)
(1.06395 0.0247144 0)
(1.06416 0.0206134 0)
(1.06065 0.0177806 0)
(1.05472 0.0155123 0)
(1.04593 0.0138972 0)
(1.0347 0.0126354 0)
(1.02174 0.011547 0)
(1.00767 0.0105928 0)
(0.992949 0.00975922 0)
(0.977925 0.0090287 0)
(0.962866 0.00838444 0)
(0.947965 0.00781334 0)
(0.933358 0.00730507 0)
(0.919135 0.00685111 0)
(0.905352 0.00644424 0)
(0.892043 0.00607828 0)
(0.879224 0.00574793 0)
(0.866898 0.00544869 0)
(0.85506 0.00517666 0)
(0.8437 0.00492848 0)
(0.832804 0.00470128 0)
(0.822356 0.00449253 0)
(0.812339 0.00430005 0)
(0.802734 0.00412192 0)
(0.793525 0.00395649 0)
(0.784693 0.00380223 0)
(0.776222 0.00365786 0)
(0.768097 0.00352216 0)
(0.760303 0.0033941 0)
(0.752824 0.00327266 0)
(0.74565 0.00315693 0)
(0.738766 0.00304622 0)
(0.732166 0.00293928 0)
(0.725834 0.00283647 0)
(0.719768 0.00273466 0)
(0.713954 0.00263759 0)
(0.70839 0.00253624 0)
(0.703076 0.0024433 0)
(0.697984 0.00233494 0)
(0.693175 0.00224323 0)
(0.688524 0.00211402 0)
(0.684274 0.00201172 0)
(0.680031 0.00183309 0)
(0.676497 0.00166823 0)
(0.672663 0.00137861 0)
(0.670196 0.00088602 0)
(0.667024 0.000356092 0)
(0.665985 -0.001977 0)
(1.00451 0.0349682 0)
(1.04359 0.0339774 0)
(1.05992 0.0240645 0)
(1.06221 0.0203255 0)
(1.06248 0.0178476 0)
(1.06179 0.0157946 0)
(1.05918 0.014354 0)
(1.05459 0.0132585 0)
(1.04834 0.0123126 0)
(1.04073 0.0114704 0)
(1.03204 0.0107212 0)
(1.02254 0.0100513 0)
(1.01246 0.00944792 0)
(1.00199 0.00890169 0)
(0.991293 0.00840569 0)
(0.980502 0.00795428 0)
(0.969718 0.0075426 0)
(0.959019 0.00716637 0)
(0.948466 0.00682179 0)
(0.938102 0.00650549 0)
(0.927959 0.00621444 0)
(0.918061 0.00594596 0)
(0.908421 0.00569765 0)
(0.89905 0.00546737 0)
(0.889952 0.00525321 0)
(0.88113 0.00505343 0)
(0.872582 0.00486653 0)
(0.864306 0.00469106 0)
(0.856299 0.00452581 0)
(0.848555 0.00436956 0)
(0.84107 0.00422132 0)
(0.833838 0.00408001 0)
(0.826854 0.00394475 0)
(0.820111 0.00381476 0)
(0.813608 0.00368875 0)
(0.807333 0.00356704 0)
(0.80129 0.00344633 0)
(0.795467 0.00333047 0)
(0.789867 0.00321001 0)
(0.784488 0.00309784 0)
(0.779314 0.00296967 0)
(0.774388 0.00285706 0)
(0.769624 0.00270673 0)
(0.765196 0.0025784 0)
(0.760832 0.00237595 0)
(0.757025 0.00217036 0)
(0.753097 0.00184687 0)
(0.750155 0.00127849 0)
(0.74696 0.00064612 0)
(0.745048 -0.00163079 0)
(1.00412 0.0325378 0)
(1.04026 0.0329246 0)
(1.05616 0.0234309 0)
(1.05885 0.0199425 0)
(1.06021 0.0177207 0)
(1.06156 0.0157999 0)
(1.0619 0.0144614 0)
(1.06097 0.0134819 0)
(1.05887 0.0126523 0)
(1.05571 0.0119161 0)
(1.05158 0.0112598 0)
(1.04659 0.0106697 0)
(1.04087 0.0101329 0)
(1.03456 0.00964075 0)
(1.02776 0.00918747 0)
(1.02059 0.00876888 0)
(1.01314 0.00838155 0)
(1.0055 0.00802253 0)
(0.997743 0.00768921 0)
(0.989917 0.00737927 0)
(0.982075 0.00709058 0)
(0.974258 0.00682119 0)
(0.966498 0.00656932 0)
(0.958822 0.00633335 0)
(0.951252 0.00611178 0)
(0.943803 0.00590322 0)
(0.93649 0.00570642 0)
(0.929324 0.00552018 0)
(0.922311 0.00534346 0)
(0.915458 0.00517516 0)
(0.908771 0.0050144 0)
(0.90225 0.00486019 0)
(0.895901 0.00471169 0)
(0.889722 0.00456816 0)
(0.883717 0.00442831 0)
(0.877883 0.00429249 0)
(0.872226 0.00415733 0)
(0.866739 0.00402666 0)
(0.86143 0.00389101 0)
(0.856297 0.00376291 0)
(0.851335 0.00361866 0)
(0.846572 0.00348773 0)
(0.841955 0.00332024 0)
(0.837605 0.00316785 0)
(0.833341 0.00294618 0)
(0.829499 0.00270219 0)
(0.82565 0.00235088 0)
(0.82247 0.00171544 0)
(0.819314 0.000994483 0)
(0.816846 -0.00122864 0)
(1.00374 0.0302037 0)
(1.03727 0.031876 0)
(1.05282 0.0228284 0)
(1.05561 0.0195419 0)
(1.05712 0.0175324 0)
(1.05902 0.0157009 0)
(1.06043 0.0144107 0)
(1.06109 0.0134952 0)
(1.06106 0.0127396 0)
(1.06037 0.0120778 0)
(1.05902 0.011494 0)
(1.05702 0.0109729 0)
(1.05442 0.0105001 0)
(1.05127 0.0100661 0)
(1.04762 0.00966441 0)
(1.04353 0.00929098 0)
(1.03907 0.00894257 0)
(1.0343 0.00861666 0)
(1.02926 0.00831114 0)
(1.02401 0.00802421 0)
(1.0186 0.00775426 0)
(1.01306 0.00749985 0)
(1.00743 0.00725964 0)
(1.00173 0.00703243 0)
(0.996008 0.00681709 0)
(0.990274 0.00661255 0)
(0.984551 0.00641785 0)
(0.978857 0.00623202 0)
(0.973207 0.00605424 0)
(0.967614 0.00588358 0)
(0.96209 0.00571933 0)
(0.956644 0.00556061 0)
(0.951284 0.00540667 0)
(0.946017 0.0052569 0)
(0.940852 0.00511 0)
(0.935789 0.00496642 0)
(0.930839 0.0048228 0)
(0.926 0.00468292 0)
(0.921282 0.00453749 0)
(0.916686 0.00439837 0)
(0.912213 0.00424316 0)
(0.907886 0.00409824 0)
(0.903669 0.00391873 0)
(0.89965 0.00374635 0)
(0.895713 0.00351096 0)
(0.892075 0.00323369 0)
(0.888492 0.00286096 0)
(0.885326 0.00217285 0)
(0.882289 0.00137622 0)
(0.87959 -0.000779721 0)
(1.00337 0.0279684 0)
(1.03443 0.0308194 0)
(1.04972 0.022251 0)
(1.05265 0.0191385 0)
(1.05411 0.0173256 0)
(1.05608 0.0155728 0)
(1.05776 0.0143053 0)
(1.05894 0.0134211 0)
(1.05972 0.0127066 0)
(1.06014 0.0120885 0)
(1.06018 0.0115498 0)
(1.05983 0.0110753 0)
(1.05907 0.0106496 0)
(1.05792 0.0102616 0)
(1.05639 0.00990429 0)
(1.0545 0.00957271 0)
(1.05227 0.0092633 0)
(1.04973 0.00897328 0)
(1.04692 0.00870048 0)
(1.04386 0.00844309 0)
(1.04057 0.00819959 0)
(1.0371 0.00796868 0)
(1.03346 0.0077492 0)
(1.02969 0.00754011 0)
(1.0258 0.00734048 0)
(1.02181 0.00714941 0)
(1.01775 0.00696614 0)
(1.01364 0.00678985 0)
(1.00949 0.00661988 0)
(1.00531 0.00645544 0)
(1.00113 0.00629595 0)
(0.996944 0.00614065 0)
(0.992775 0.00598888 0)
(0.988628 0.00584015 0)
(0.984515 0.00569318 0)
(0.980441 0.00554855 0)
(0.976416 0.0054029 0)
(0.972446 0.00525994 0)
(0.968538 0.00511079 0)
(0.964698 0.00496631 0)
(0.960929 0.00480595 0)
(0.957251 0.00465234 0)
(0.953642 0.0044666 0)
(0.950163 0.00427963 0)
(0.946746 0.00403654 0)
(0.943519 0.00373348 0)
(0.940364 0.00334492 0)
(0.937442 0.0026244 0)
(0.934625 0.00176374 0)
(0.931926 -0.000314274 0)
(1.00301 0.0258353 0)
(1.03171 0.0297507 0)
(1.04672 0.0216947 0)
(1.04985 0.0187324 0)
(1.0513 0.0171071 0)
(1.05322 0.0154378 0)
(1.05494 0.0141862 0)
(1.05624 0.0133187 0)
(1.05725 0.0126278 0)
(1.05806 0.0120338 0)
(1.05866 0.0115199 0)
(1.05905 0.0110721 0)
(1.0592 0.010675 0)
(1.05911 0.0103169 0)
(1.05878 0.00999019 0)
(1.05821 0.0096893 0)
(1.05739 0.00941023 0)
(1.05635 0.00914985 0)
(1.05508 0.00890564 0)
(1.0536 0.00867558 0)
(1.05191 0.00845797 0)
(1.05005 0.00825141 0)
(1.04801 0.00805465 0)
(1.04582 0.00786664 0)
(1.04348 0.00768644 0)
(1.04103 0.00751319 0)
(1.03846 0.00734615 0)
(1.03579 0.00718455 0)
(1.03304 0.00702779 0)
(1.03022 0.00687515 0)
(1.02734 0.0067261 0)
(1.02442 0.00657996 0)
(1.02146 0.00643609 0)
(1.01847 0.00629411 0)
(1.01546 0.00615276 0)
(1.01244 0.00601268 0)
(1.00943 0.00587059 0)
(1.00642 0.00573003 0)
(1.00342 0.00558266 0)
(1.00045 0.00543815 0)
(0.997496 0.00527816 0)
(0.994587 0.0051212 0)
(0.991709 0.00493485 0)
(0.988899 0.00473914 0)
(0.986126 0.00449405 0)
(0.983453 0.00417404 0)
(0.980837 0.00377514 0)
(0.97832 0.00304254 0)
(0.975827 0.00213403 0)
(0.973271 0.000169748 0)
(1.00268 0.023807 0)
(1.02911 0.0286682 0)
(1.04381 0.0211593 0)
(1.04716 0.0183232 0)
(1.04861 0.0168754 0)
(1.0505 0.0152984 0)
(1.05221 0.0140645 0)
(1.05351 0.0132091 0)
(1.05456 0.012535 0)
(1.05547 0.0119564 0)
(1.05624 0.0114564 0)
(1.05689 0.0110231 0)
(1.05741 0.0106416 0)
(1.05779 0.0103005 0)
(1.05803 0.00999178 0)
(1.05813 0.00970987 0)
(1.05808 0.0094505 0)
(1.05788 0.0092103 0)
(1.05753 0.00898655 0)
(1.05704 0.00877698 0)
(1.05639 0.00857972 0)
(1.0556 0.00839315 0)
(1.05468 0.00821589 0)
(1.05362 0.00804676 0)
(1.05244 0.00788472 0)
(1.05114 0.00772883 0)
(1.04973 0.00757827 0)
(1.04822 0.00743227 0)
(1.04662 0.00729016 0)
(1.04493 0.00715123 0)
(1.04316 0.00701491 0)
(1.04133 0.00688057 0)
(1.03943 0.00674754 0)
(1.03748 0.00661549 0)
(1.03549 0.00648313 0)
(1.03345 0.00635115 0)
(1.03139 0.00621634 0)
(1.0293 0.00608198 0)
(1.02719 0.00594041 0)
(1.02507 0.00579991 0)
(1.02295 0.0056446 0)
(1.02082 0.00548869 0)
(1.0187 0.00530629 0)
(1.01659 0.00510727 0)
(1.0145 0.00486481 0)
(1.01243 0.00453674 0)
(1.0104 0.00413311 0)
(1.00836 0.00340483 0)
(1.00627 0.0024746 0)
(1.00393 0.000647285 0)
(1.00238 0.0218853 0)
(1.02664 0.0275711 0)
(1.04099 0.0206443 0)
(1.04455 0.0179125 0)
(1.04601 0.016629 0)
(1.04788 0.0151533 0)
(1.04959 0.0139413 0)
(1.05089 0.0130972 0)
(1.05193 0.0124384 0)
(1.05283 0.0118725 0)
(1.05364 0.0113822 0)
(1.05436 0.0109577 0)
(1.05499 0.0105851 0)
(1.05553 0.0102533 0)
(1.056 0.00995446 0)
(1.05638 0.00968308 0)
(1.05668 0.00943496 0)
(1.05689 0.0092067 0)
(1.05701 0.00899552 0)
(1.05704 0.00879906 0)
(1.05698 0.00861533 0)
(1.05682 0.0084426 0)
(1.05657 0.00827938 0)
(1.05622 0.00812435 0)
(1.05578 0.00797637 0)
(1.05526 0.0078344 0)
(1.05464 0.00769754 0)
(1.05394 0.00756492 0)
(1.05315 0.00743582 0)
(1.05229 0.00730948 0)
(1.05136 0.00718526 0)
(1.05036 0.00706251 0)
(1.0493 0.00694051 0)
(1.04818 0.00681895 0)
(1.047 0.00669648 0)
(1.04578 0.00657378 0)
(1.04451 0.00644776 0)
(1.0432 0.00632134 0)
(1.04186 0.00618763 0)
(1.04049 0.0060534 0)
(1.03909 0.00590531 0)
(1.03766 0.00575338 0)
(1.03622 0.00557784 0)
(1.03477 0.00537981 0)
(1.03331 0.00514319 0)
(1.03183 0.00481472 0)
(1.03035 0.00441164 0)
(1.02879 0.00370179 0)
(1.0271 0.00277496 0)
(1.02502 0.00107944 0)
(1.0021 0.0200711 0)
(1.0243 0.0264613 0)
(1.03826 0.0201475 0)
(1.04203 0.0175023 0)
(1.04351 0.016368 0)
(1.04535 0.0150011 0)
(1.04706 0.0138162 0)
(1.04835 0.0129833 0)
(1.04938 0.0123397 0)
(1.05027 0.0117865 0)
(1.05107 0.0113051 0)
(1.05179 0.0108874 0)
(1.05244 0.010521 0)
(1.05303 0.0101951 0)
(1.05356 0.00990204 0)
(1.05404 0.00963655 0)
(1.05446 0.00939459 0)
(1.05484 0.00917288 0)
(1.05517 0.0089687 0)
(1.05544 0.00877974 0)
(1.05565 0.00860398 0)
(1.05581 0.00843967 0)
(1.05591 0.00828526 0)
(1.05595 0.00813938 0)
(1.05593 0.00800082 0)
(1.05585 0.00786848 0)
(1.05571 0.00774138 0)
(1.05551 0.00761861 0)
(1.05525 0.00749936 0)
(1.05492 0.00738283 0)
(1.05455 0.00726829 0)
(1.05411 0.00715511 0)
(1.05363 0.00704246 0)
(1.05309 0.00693005 0)
(1.0525 0.00681649 0)
(1.05187 0.00670238 0)
(1.0512 0.00658481 0)
(1.05048 0.00646624 0)
(1.04972 0.00634063 0)
(1.04893 0.00621322 0)
(1.04811 0.00607314 0)
(1.04725 0.00592656 0)
(1.04637 0.00575912 0)
(1.04545 0.00556492 0)
(1.04451 0.00533589 0)
(1.04353 0.00501281 0)
(1.04251 0.00461524 0)
(1.04137 0.00393432 0)
(1.04004 0.00303194 0)
(1.0382 0.00147874 0)
(1.00185 0.0183647 0)
(1.0221 0.0253429 0)
(1.03562 0.0196653 0)
(1.03959 0.0170944 0)
(1.0411 0.0160931 0)
(1.0429 0.0148409 0)
(1.04461 0.0136887 0)
(1.04591 0.0128674 0)
(1.04693 0.0122391 0)
(1.04781 0.0116992 0)
(1.04859 0.0112267 0)
(1.0493 0.0108156 0)
(1.04994 0.0104547 0)
(1.05053 0.0101336 0)
(1.05107 0.00984471 0)
(1.05156 0.00958308 0)
(1.05203 0.00934486 0)
(1.05245 0.00912692 0)
(1.05285 0.00892666 0)
(1.05321 0.00874185 0)
(1.05354 0.00857052 0)
(1.05383 0.00841095 0)
(1.05409 0.00826161 0)
(1.05431 0.00812112 0)
(1.05449 0.00798825 0)
(1.05464 0.00786188 0)
(1.05475 0.00774099 0)
(1.05481 0.00762465 0)
(1.05484 0.00751199 0)
(1.05483 0.00740221 0)
(1.05477 0.00729451 0)
(1.05468 0.00718824 0)
(1.05455 0.00708253 0)
(1.05438 0.00697708 0)
(1.05417 0.00687048 0)
(1.05393 0.00676325 0)
(1.05364 0.00665267 0)
(1.05333 0.00654074 0)
(1.05298 0.00642227 0)
(1.05259 0.00630102 0)
(1.05217 0.00616846 0)
(1.05172 0.00602739 0)
(1.05124 0.00586793 0)
(1.05072 0.00567911 0)
(1.05017 0.00545825 0)
(1.04956 0.00514462 0)
(1.0489 0.00475673 0)
(1.04807 0.00411227 0)
(1.04702 0.00325282 0)
(1.04538 0.00185232 0)
(1.00162 0.0167658 0)
(1.02004 0.0242202 0)
(1.03309 0.0191935 0)
(1.03724 0.0166904 0)
(1.03878 0.0158053 0)
(1.04055 0.0146721 0)
(1.04225 0.0135585 0)
(1.04355 0.0127492 0)
(1.04457 0.0121362 0)
(1.04543 0.0116103 0)
(1.04621 0.0111474 0)
(1.0469 0.010743 0)
(1.04753 0.0103876 0)
(1.0481 0.010071 0)
(1.04863 0.00978593 0)
(1.04913 0.00952752 0)
(1.04959 0.00929214 0)
(1.05002 0.00907683 0)
(1.05043 0.00887911 0)
(1.05082 0.00869684 0)
(1.05118 0.00852814 0)
(1.05152 0.00837132 0)
(1.05183 0.00822489 0)
(1.05212 0.0080875 0)
(1.05239 0.00795793 0)
(1.05263 0.00783506 0)
(1.05285 0.00771788 0)
(1.05304 0.00760544 0)
(1.05321 0.00749688 0)
(1.05335 0.00739135 0)
(1.05346 0.00728806 0)
(1.05355 0.00718636 0)
(1.05361 0.00708533 0)
(1.05364 0.00698467 0)
(1.05365 0.00688301 0)
(1.05363 0.00678073 0)
(1.05358 0.0066754 0)
(1.0535 0.0065685 0)
(1.0534 0.00645573 0)
(1.05327 0.00633948 0)
(1.05311 0.00621327 0)
(1.05291 0.0060772 0)
(1.0527 0.00592489 0)
(1.05244 0.00574208 0)
(1.05215 0.00552932 0)
(1.05179 0.00522783 0)
(1.05136 0.00485309 0)
(1.05075 0.00425066 0)
(1.04988 0.00344899 0)
(1.04838 0.00220982 0)
(1.00142 0.0152736 0)
(1.01811 0.0230972 0)
(1.03067 0.0187281 0)
(1.03498 0.0162916 0)
(1.03656 0.0155059 0)
(1.03828 0.0144941 0)
(1.03998 0.0134252 0)
(1.04129 0.0126289 0)
(1.04229 0.012031 0)
(1.04315 0.0115197 0)
(1.04391 0.0110669 0)
(1.04459 0.0106696 0)
(1.04521 0.0103199 0)
(1.04577 0.0100079 0)
(1.04629 0.0097266 0)
(1.04677 0.00947131 0)
(1.04723 0.00923855 0)
(1.04765 0.00902553 0)
(1.04806 0.00882987 0)
(1.04844 0.00864953 0)
(1.0488 0.00848269 0)
(1.04915 0.00832774 0)
(1.04948 0.00818321 0)
(1.04979 0.00804777 0)
(1.05008 0.00792025 0)
(1.05036 0.00779953 0)
(1.05061 0.00768462 0)
(1.05085 0.00757457 0)
(1.05108 0.00746851 0)
(1.05128 0.00736564 0)
(1.05147 0.00726511 0)
(1.05164 0.00716631 0)
(1.05179 0.00706831 0)
(1.05192 0.00697079 0)
(1.05203 0.00687246 0)
(1.05212 0.00677358 0)
(1.05219 0.00667198 0)
(1.05225 0.00656869 0)
(1.05228 0.00646023 0)
(1.05228 0.00634782 0)
(1.05227 0.00622673 0)
(1.05223 0.006095 0)
(1.05216 0.00594881 0)
(1.05205 0.00577225 0)
(1.05191 0.00556734 0)
(1.0517 0.00527982 0)
(1.05141 0.00492135 0)
(1.05093 0.00436498 0)
(1.05016 0.00363278 0)
(1.04875 0.00256029 0)
(1.00124 0.0138868 0)
(1.01632 0.0219779 0)
(1.02835 0.0182654 0)
(1.0328 0.0158994 0)
(1.03443 0.0151967 0)
(1.03611 0.0143063 0)
(1.0378 0.0132884 0)
(1.03911 0.0125065 0)
(1.04011 0.0119233 0)
(1.04096 0.0114272 0)
(1.04171 0.0109852 0)
(1.04238 0.0105953 0)
(1.04298 0.0102514 0)
(1.04354 0.00994421 0)
(1.04404 0.00966684 0)
(1.04451 0.00941474 0)
(1.04496 0.00918462 0)
(1.04537 0.00897384 0)
(1.04577 0.00878015 0)
(1.04614 0.00860158 0)
(1.0465 0.00843638 0)
(1.04684 0.00828298 0)
(1.04716 0.00813996 0)
(1.04747 0.00800603 0)
(1.04776 0.00788001 0)
(1.04804 0.00776083 0)
(1.04831 0.0076475 0)
(1.04856 0.00753908 0)
(1.0488 0.00743472 0)
(1.04903 0.0073336 0)
(1.04924 0.00723492 0)
(1.04944 0.00713805 0)
(1.04962 0.00704208 0)
(1.04979 0.00694668 0)
(1.04995 0.00685064 0)
(1.05009 0.0067541 0)
(1.05022 0.0066552 0)
(1.05032 0.00655453 0)
(1.05042 0.00644935 0)
(1.05049 0.00633994 0)
(1.05055 0.00622297 0)
(1.05058 0.00609509 0)
(1.05059 0.00595418 0)
(1.05056 0.00578405 0)
(1.0505 0.00558695 0)
(1.05036 0.00531479 0)
(1.05014 0.00497553 0)
(1.04971 0.00446834 0)
(1.049 0.00381442 0)
(1.04763 0.00291124 0)
(1.00107 0.0126032 0)
(1.01466 0.0208663 0)
(1.02614 0.017802 0)
(1.03072 0.0155146 0)
(1.03239 0.0148793 0)
(1.03403 0.0141083 0)
(1.0357 0.0131477 0)
(1.03702 0.0123819 0)
(1.03802 0.0118133 0)
(1.03885 0.0113326 0)
(1.03959 0.0109021 0)
(1.04026 0.0105201 0)
(1.04085 0.0101821 0)
(1.04139 0.00987994 0)
(1.04189 0.00960663 0)
(1.04235 0.00935782 0)
(1.04278 0.00913042 0)
(1.04319 0.00892194 0)
(1.04357 0.00873024 0)
(1.04393 0.00855344 0)
(1.04428 0.00838985 0)
(1.04461 0.00823794 0)
(1.04493 0.00809634 0)
(1.04523 0.00796377 0)
(1.04552 0.00783908 0)
(1.04579 0.00772122 0)
(1.04605 0.0076092 0)
(1.04631 0.00750211 0)
(1.04654 0.00739909 0)
(1.04677 0.00729936 0)
(1.04699 0.00720209 0)
(1.04719 0.00710667 0)
(1.04738 0.00701223 0)
(1.04756 0.00691841 0)
(1.04773 0.00682412 0)
(1.04789 0.00672935 0)
(1.04803 0.00663254 0)
(1.04816 0.00653392 0)
(1.04828 0.00643139 0)
(1.04838 0.00632452 0)
(1.04847 0.00621104 0)
(1.04853 0.00608679 0)
(1.04857 0.00595068 0)
(1.04857 0.00578723 0)
(1.04854 0.00559825 0)
(1.04843 0.00534268 0)
(1.04823 0.00502555 0)
(1.04782 0.00457006 0)
(1.04712 0.00400065 0)
(1.04578 0.00326655 0)
(1.00093 0.0114203 0)
(1.01314 0.0197665 0)
(1.02404 0.0173348 0)
(1.02872 0.0151379 0)
(1.03045 0.0145559 0)
(1.03205 0.0138998 0)
(1.0337 0.0130025 0)
(1.03502 0.0122553 0)
(1.03602 0.0117009 0)
(1.03684 0.0112359 0)
(1.03757 0.0108175 0)
(1.03823 0.0104437 0)
(1.03881 0.010112 0)
(1.03934 0.00981497 0)
(1.03983 0.00954588 0)
(1.04028 0.00930049 0)
(1.0407 0.00907592 0)
(1.0411 0.00886982 0)
(1.04147 0.00868017 0)
(1.04183 0.00850518 0)
(1.04216 0.00834323 0)
(1.04248 0.00819285 0)
(1.04279 0.00805266 0)
(1.04308 0.00792145 0)
(1.04336 0.00779807 0)
(1.04363 0.00768148 0)
(1.04389 0.00757071 0)
(1.04413 0.00746486 0)
(1.04436 0.00736307 0)
(1.04458 0.00726458 0)
(1.04479 0.00716856 0)
(1.04499 0.00707442 0)
(1.04518 0.00698131 0)
(1.04536 0.00688885 0)
(1.04553 0.00679606 0)
(1.04569 0.00670281 0)
(1.04583 0.0066078 0)
(1.04597 0.006511 0)
(1.04609 0.0064108 0)
(1.0462 0.00630631 0)
(1.04629 0.00619598 0)
(1.04636 0.0060754 0)
(1.04641 0.00594394 0)
(1.04642 0.00578758 0)
(1.0464 0.00560734 0)
(1.04629 0.00536954 0)
(1.04609 0.00507735 0)
(1.04567 0.00467567 0)
(1.04496 0.00419473 0)
(1.04365 0.0036272 0)
(1.0008 0.0103348 0)
(1.01173 0.0186828 0)
(1.02206 0.016861 0)
(1.0268 0.0147694 0)
(1.0286 0.0142284 0)
(1.03016 0.0136807 0)
(1.03178 0.0128522 0)
(1.0331 0.0121265 0)
(1.0341 0.011586 0)
(1.03492 0.0111369 0)
(1.03564 0.0107312 0)
(1.03629 0.0103662 0)
(1.03687 0.010041 0)
(1.03739 0.00974925 0)
(1.03786 0.00948452 0)
(1.03831 0.00924269 0)
(1.03872 0.00902104 0)
(1.0391 0.0088174 0)
(1.03947 0.00862988 0)
(1.03981 0.00845678 0)
(1.04014 0.00829653 0)
(1.04045 0.00814771 0)
(1.04075 0.00800899 0)
(1.04104 0.00787916 0)
(1.04131 0.00775711 0)
(1.04157 0.00764181 0)
(1.04181 0.0075323 0)
(1.04205 0.0074277 0)
(1.04227 0.00732714 0)
(1.04249 0.00722986 0)
(1.04269 0.00713507 0)
(1.04288 0.00704216 0)
(1.04307 0.00695032 0)
(1.04324 0.00685916 0)
(1.0434 0.00676779 0)
(1.04356 0.00667598 0)
(1.0437 0.00658269 0)
(1.04383 0.00648764 0)
(1.04395 0.00638967 0)
(1.04405 0.00628756 0)
(1.04414 0.0061803 0)
(1.04421 0.00606354 0)
(1.04426 0.00593685 0)
(1.04427 0.00578807 0)
(1.04423 0.00561745 0)
(1.04412 0.00539856 0)
(1.04391 0.00513389 0)
(1.04348 0.00478765 0)
(1.04277 0.00439718 0)
(1.04147 0.00399148 0)
(1.00069 0.00934283 0)
(1.01046 0.0176191 0)
(1.02019 0.0163785 0)
(1.02497 0.0144092 0)
(1.02684 0.0138988 0)
(1.02837 0.0134514 0)
(1.02995 0.0126961 0)
(1.03128 0.0119955 0)
(1.03228 0.0114689 0)
(1.03309 0.0110356 0)
(1.0338 0.0106432 0)
(1.03444 0.0102874 0)
(1.03501 0.00996897 0)
(1.03552 0.00968269 0)
(1.03599 0.00942248 0)
(1.03642 0.00918434 0)
(1.03683 0.00896573 0)
(1.03721 0.00876464 0)
(1.03756 0.00857933 0)
(1.0379 0.00840818 0)
(1.03822 0.00824969 0)
(1.03852 0.00810249 0)
(1.03881 0.00796528 0)
(1.03909 0.00783689 0)
(1.03935 0.00771622 0)
(1.0396 0.00760225 0)
(1.03984 0.00749403 0)
(1.04007 0.0073907 0)
(1.04028 0.00729139 0)
(1.04049 0.00719536 0)
(1.04069 0.00710181 0)
(1.04087 0.00701014 0)
(1.04105 0.00691959 0)
(1.04121 0.00682974 0)
(1.04137 0.00673978 0)
(1.04152 0.00664944 0)
(1.04165 0.00655785 0)
(1.04178 0.0064646 0)
(1.04189 0.00636882 0)
(1.04199 0.00626921 0)
(1.04207 0.00616505 0)
(1.04214 0.00605237 0)
(1.04217 0.00593071 0)
(1.04218 0.00579005 0)
(1.04214 0.00563002 0)
(1.04202 0.00543111 0)
(1.04179 0.0051962 0)
(1.04135 0.00490647 0)
(1.04063 0.00460667 0)
(1.03937 0.0043558 0)
(1.0006 0.00844017 0)
(1.0093 0.0165795 0)
(1.01843 0.0158853 0)
(1.02323 0.0140569 0)
(1.02516 0.013569 0)
(1.02666 0.0132121 0)
(1.02822 0.0125337 0)
(1.02953 0.011862 0)
(1.03054 0.0113494 0)
(1.03135 0.0109317 0)
(1.03205 0.0105532 0)
(1.03268 0.0102072 0)
(1.03324 0.00989581 0)
(1.03375 0.00961519 0)
(1.03421 0.00935967 0)
(1.03463 0.00912537 0)
(1.03503 0.0089099 0)
(1.0354 0.00871146 0)
(1.03575 0.00852844 0)
(1.03608 0.00835931 0)
(1.03639 0.00820265 0)
(1.03668 0.00805713 0)
(1.03697 0.00792149 0)
(1.03723 0.00779459 0)
(1.03749 0.00767534 0)
(1.03773 0.00756275 0)
(1.03796 0.00745587 0)
(1.03818 0.00735385 0)
(1.03839 0.00725584 0)
(1.03859 0.00716109 0)
(1.03878 0.00706882 0)
(1.03896 0.00697843 0)
(1.03913 0.0068892 0)
(1.03929 0.00680069 0)
(1.03944 0.00671218 0)
(1.03958 0.00662335 0)
(1.03971 0.00653349 0)
(1.03983 0.0064421 0)
(1.03993 0.00634857 0)
(1.04002 0.00625159 0)
(1.0401 0.00615065 0)
(1.04016 0.0060423 0)
(1.04019 0.00592602 0)
(1.04018 0.005794 0)
(1.04013 0.00564556 0)
(1.04 0.00546757 0)
(1.03976 0.0052642 0)
(1.03931 0.00503139 0)
(1.0386 0.00482082 0)
(1.03739 0.00471565 0)
(1.00051 0.00762201 0)
(1.00825 0.0155679 0)
(1.01678 0.0153803 0)
(1.02156 0.013712 0)
(1.02357 0.0132408 0)
(1.02504 0.0129637 0)
(1.02656 0.0123645 0)
(1.02788 0.0117258 0)
(1.02888 0.0112277 0)
(1.02969 0.0108253 0)
(1.03039 0.0104612 0)
(1.03101 0.0101255 0)
(1.03156 0.00982145 0)
(1.03206 0.00954668 0)