/*--------------------------------*- C++ -*----------------------------------*\
  =========                 |
  \\      /  F ield         | OpenFOAM: The Open Source CFD Toolbox
   \\    /   O peration     | Website:  https://openfoam.org
    \\  /    A nd           | Version:  7
     \\/     M anipulation  |
\*---------------------------------------------------------------------------*/
FoamFile
{
    version     2.0;
    format      ascii;
    class       volVectorField;
    location    "0.49";
    object      U_0;
}
// * * * * * * * * * * * * * * * * * * * * * * * * * * * * * * * * * * * * * //

dimensions      [0 1 -1 0 0 0 0];

internalField   nonuniform List<vector> 
70000
(
(0.553412 0.0169782 0)
(0.25141 0.00340058 0)
(0.165909 0.000319145 0)
(0.132414 4.91689e-05 0)
(0.117299 4.42127e-05 0)
(0.107331 5.23733e-05 0)
(0.0993505 4.4568e-05 0)
(0.0928991 3.54868e-05 0)
(0.0876481 2.94449e-05 0)
(0.0832726 2.5304e-05 0)
(0.0795441 2.21413e-05 0)
(0.0763146 1.96082e-05 0)
(0.0734828 1.75449e-05 0)
(0.0709745 1.5842e-05 0)
(0.0687334 1.44184e-05 0)
(0.066716 1.3214e-05 0)
(0.0648883 1.21841e-05 0)
(0.0632228 1.12957e-05 0)
(0.0616975 1.05225e-05 0)
(0.0602944 9.84538e-06 0)
(0.0589983 9.24814e-06 0)
(0.0577969 8.71874e-06 0)
(0.0566796 8.24675e-06 0)
(0.0556374 7.82441e-06 0)
(0.0546627 7.4443e-06 0)
(0.0537489 7.10193e-06 0)
(0.0528905 6.79111e-06 0)
(0.0520824 6.5102e-06 0)
(0.0513205 6.25289e-06 0)
(0.0506008 6.02131e-06 0)
(0.0499204 5.80554e-06 0)
(0.0492758 5.61616e-06 0)
(0.0486651 5.43065e-06 0)
(0.0480853 5.27891e-06 0)
(0.0475353 5.11235e-06 0)
(0.0470123 4.98963e-06 0)
(0.0465159 4.83231e-06 0)
(0.0460442 4.70432e-06 0)
(0.0455952 4.56316e-06 0)
(0.0451745 4.30628e-06 0)
(0.0447663 4.25627e-06 0)
(0.0444075 3.48826e-06 0)
(0.0440311 3.80125e-06 0)
(0.043773 1.45077e-06 0)
(0.0434133 3.00801e-06 0)
(0.0433687 -4.22257e-06 0)
(0.0429891 2.21641e-06 0)
(0.0434912 -2.25496e-05 0)
(0.0430536 2.0747e-05 0)
(0.0421605 -0.00165686 0)
(0.884862 0.0434937 0)
(0.650137 0.02015 0)
(0.493946 0.00660607 0)
(0.403497 0.00275629 0)
(0.35476 0.00154947 0)
(0.32342 0.00113312 0)
(0.299498 0.000910607 0)
(0.28027 0.000745942 0)
(0.26454 0.000623215 0)
(0.251404 0.000532745 0)
(0.240208 0.000464103 0)
(0.230511 0.00041012 0)
(0.222007 0.000366532 0)
(0.214473 0.000330681 0)
(0.207739 0.000300756 0)
(0.201677 0.00027546 0)
(0.196184 0.000253839 0)
(0.191178 0.000235177 0)
(0.186592 0.000218929 0)
(0.182374 0.000204672 0)
(0.178478 0.000192074 0)
(0.174866 0.00018087 0)
(0.171508 0.000170845 0)
(0.168376 0.000161826 0)
(0.165447 0.000153666 0)
(0.162703 0.000146247 0)
(0.160125 0.000139468 0)
(0.1577 0.000133247 0)
(0.155415 0.000127507 0)
(0.153259 0.000122194 0)
(0.151221 0.000117242 0)
(0.149294 0.000112631 0)
(0.14747 0.000108273 0)
(0.145741 0.000104212 0)
(0.144104 0.000100285 0)
(0.142551 9.66575e-05 0)
(0.14108 9.29903e-05 0)
(0.139686 8.96732e-05 0)
(0.138363 8.60362e-05 0)
(0.137124 8.2756e-05 0)
(0.135925 7.87671e-05 0)
(0.134863 7.46625e-05 0)
(0.133753 6.95745e-05 0)
(0.132951 6.18852e-05 0)
(0.131864 5.425e-05 0)
(0.131565 3.34041e-05 0)
(0.130359 2.43067e-05 0)
(0.131264 -6.5734e-05 0)
(0.129789 0.000116117 0)
(0.130907 -0.0028519 0)
(0.991209 0.0499563 0)
(0.890917 0.0305649 0)
(0.762461 0.0146139 0)
(0.65647 0.0079746 0)
(0.585327 0.00488345 0)
(0.535919 0.00347822 0)
(0.497991 0.00274177 0)
(0.46733 0.00224725 0)
(0.441988 0.0018834 0)
(0.420655 0.00161182 0)
(0.40238 0.00140456 0)
(0.386494 0.00124154 0)
(0.372521 0.00110999 0)
(0.360111 0.00100177 0)
(0.348997 0.000911407 0)
(0.338974 0.000834978 0)
(0.329878 0.000769616 0)
(0.321578 0.000713169 0)
(0.313968 0.000663995 0)
(0.306961 0.000620823 0)
(0.300483 0.000582649 0)
(0.294474 0.000548674 0)
(0.288883 0.000518251 0)
(0.283666 0.000490852 0)
(0.278786 0.000466041 0)
(0.274211 0.000443456 0)
(0.269913 0.000422791 0)
(0.265868 0.00040379 0)
(0.262056 0.000386231 0)
(0.258458 0.00036993 0)
(0.255059 0.000354708 0)
(0.251844 0.000340455 0)
(0.248802 0.000326977 0)
(0.24592 0.000314287 0)
(0.243192 0.000302059 0)
(0.240605 0.000290577 0)
(0.238158 0.000279095 0)
(0.235841 0.00026856 0)
(0.233645 0.00025712 0)
(0.231589 0.000247211 0)
(0.229608 0.000234536 0)
(0.227839 0.000224249 0)
(0.226018 0.000207649 0)
(0.224643 0.000193106 0)
(0.222874 0.0001667 0)
(0.222203 0.000132128 0)
(0.220269 9.00822e-05 0)
(0.221173 -7.00927e-05 0)
(0.218719 8.58647e-05 0)
(0.222111 -0.00301281 0)
(1.01554 0.0489546 0)
(1.00649 0.0357273 0)
(0.935865 0.0208246 0)
(0.851958 0.013505 0)
(0.782141 0.00920484 0)
(0.726949 0.00679002 0)
(0.681816 0.00539334 0)
(0.644017 0.00445156 0)
(0.611969 0.00375652 0)
(0.584476 0.00323053 0)
(0.560598 0.00282446 0)
(0.539626 0.00250292 0)
(0.521031 0.0022423 0)
(0.504407 0.00202718 0)
(0.48944 0.00184698 0)
(0.47588 0.00169417 0)
(0.463528 0.00156319 0)
(0.45222 0.00144984 0)
(0.441823 0.00135093 0)
(0.432225 0.00126395 0)
(0.423334 0.00118693 0)
(0.41507 0.0011183 0)
(0.407368 0.00105676 0)
(0.40017 0.00100128 0)
(0.393428 0.000950978 0)
(0.387099 0.000905142 0)
(0.381147 0.000863158 0)
(0.375539 0.000824508 0)
(0.37025 0.000788751 0)
(0.365252 0.000755503 0)
(0.360527 0.000724421 0)
(0.356054 0.00069524 0)
(0.351819 0.000667631 0)
(0.347804 0.000641506 0)
(0.344001 0.00061636 0)
(0.340395 0.000592551 0)
(0.33698 0.000568843 0)
(0.333747 0.000546873 0)
(0.330682 0.000523184 0)
(0.327808 0.000502738 0)
(0.325049 0.0004765 0)
(0.32256 0.000456731 0)
(0.320041 0.000422569 0)
(0.31805 0.000399198 0)
(0.315652 0.000345205 0)
(0.314481 0.000297752 0)
(0.311967 0.00020462 0)
(0.312514 -7.27534e-06 0)
(0.309452 4.22553e-06 0)
(0.313354 -0.00283869 0)
(1.01435 0.0460991 0)
(1.04798 0.0373451 0)
(1.02455 0.0241938 0)
(0.974641 0.0175668 0)
(0.923407 0.0131191 0)
(0.876633 0.0102154 0)
(0.834426 0.00835463 0)
(0.796638 0.00703086 0)
(0.763046 0.00601913 0)
(0.733208 0.00523104 0)
(0.706608 0.00460903 0)
(0.682773 0.00410862 0)
(0.661302 0.00369828 0)
(0.641862 0.00335644 0)
(0.624176 0.00306795 0)
(0.608013 0.00282179 0)
(0.59318 0.00260966 0)
(0.579515 0.00242528 0)
(0.566882 0.00226375 0)
(0.555164 0.00212123 0)
(0.544263 0.00199465 0)
(0.534094 0.00188155 0)
(0.524584 0.0017799 0)
(0.515671 0.00168806 0)
(0.507299 0.00160464 0)
(0.499421 0.00152849 0)
(0.491996 0.00145863 0)
(0.484986 0.00139421 0)
(0.47836 0.00133454 0)
(0.472089 0.00127897 0)
(0.466149 0.00122697 0)
(0.460516 0.00117805 0)
(0.455175 0.00113173 0)
(0.450103 0.00108778 0)
(0.445293 0.00104548 0)
(0.440723 0.00100523 0)
(0.43639 0.000965261 0)
(0.43228 0.000927923 0)
(0.42838 0.000887985 0)
(0.424711 0.000853166 0)
(0.421198 0.000809239 0)
(0.417989 0.000776178 0)
(0.414798 0.000720054 0)
(0.412154 0.000683945 0)
(0.409174 0.000597686 0)
(0.407392 0.000532983 0)
(0.404427 0.00038313 0)
(0.404305 0.000117953 0)
(0.401087 -3.16499e-05 0)
(0.403986 -0.0026689 0)
(1.00941 0.0430488 0)
(1.05563 0.0371009 0)
(1.05866 0.0253365 0)
(1.03628 0.0197739 0)
(1.00707 0.0158102 0)
(0.976015 0.0129466 0)
(0.944444 0.0109746 0)
(0.913533 0.00948996 0)
(0.884144 0.00829728 0)
(0.856657 0.00732854 0)
(0.831151 0.00653833 0)
(0.807562 0.00588617 0)
(0.785765 0.0053406 0)
(0.765618 0.00487875 0)
(0.746971 0.00448383 0)
(0.729683 0.00414313 0)
(0.713624 0.00384684 0)
(0.698673 0.00358727 0)
(0.684726 0.00335831 0)
(0.671686 0.00315511 0)
(0.659471 0.00297371 0)
(0.648006 0.00281087 0)
(0.637225 0.00266394 0)
(0.62707 0.0025307 0)
(0.617489 0.00240929 0)
(0.608437 0.00229812 0)
(0.599872 0.00219588 0)
(0.59176 0.00210138 0)
(0.584067 0.00201365 0)
(0.576764 0.00193179 0)
(0.569828 0.00185505 0)
(0.563233 0.00178273 0)
(0.556963 0.00171417 0)
(0.550995 0.00164895 0)
(0.54532 0.00158618 0)
(0.539916 0.00152623 0)
(0.534779 0.00146681 0)
(0.529894 0.00141092 0)
(0.52525 0.00135166 0)
(0.52086 0.00129917 0)
(0.516664 0.00123467 0)
(0.512782 0.00118456 0)
(0.508975 0.00110413 0)
(0.505688 0.00105026 0)
(0.502184 0.000931114 0)
(0.499741 0.000840894 0)
(0.496417 0.0006382 0)
(0.495453 0.000305825 0)
(0.492287 1.81614e-05 0)
(0.493707 -0.00249028 0)
(1.00635 0.040181 0)
(1.05241 0.0361547 0)
(1.06605 0.0252609 0)
(1.05951 0.0205807 0)
(1.04685 0.0172399 0)
(1.03076 0.0146682 0)
(1.01182 0.012837 0)
(0.991096 0.0114098 0)
(0.969645 0.0102104 0)
(0.948205 0.00919332 0)
(0.927218 0.00833245 0)
(0.906948 0.00759966 0)
(0.88754 0.00697045 0)
(0.869061 0.00642598 0)
(0.85153 0.0059517 0)
(0.834932 0.00553604 0)
(0.819233 0.00516964 0)
(0.804391 0.00484491 0)
(0.790356 0.00455558 0)
(0.777079 0.00429651 0)
(0.764511 0.00406342 0)
(0.752604 0.00385274 0)
(0.741316 0.00366147 0)
(0.730603 0.00348706 0)
(0.720428 0.00332733 0)
(0.710755 0.00318044 0)
(0.701553 0.00304478 0)
(0.692791 0.00291895 0)
(0.684443 0.00280174 0)
(0.676484 0.00269203 0)
(0.668893 0.00258892 0)
(0.661648 0.00249148 0)
(0.654733 0.00239893 0)
(0.64813 0.00231067 0)
(0.641827 0.00222561 0)
(0.635807 0.00214413 0)
(0.630065 0.00206345 0)
(0.624585 0.00198706 0)
(0.619361 0.00190674 0)
(0.614398 0.00183437 0)
(0.609653 0.00174786 0)
(0.605213 0.00167779 0)
(0.6009 0.00157258 0)
(0.597052 0.0014963 0)
(0.593112 0.00134631 0)
(0.590053 0.00122206 0)
(0.586434 0.000974163 0)
(0.584641 0.000563306 0)
(0.581498 0.000152118 0)
(0.581563 -0.00225743 0)
(1.00506 0.0375039 0)
(1.04762 0.0350568 0)
(1.06395 0.0247144 0)
(1.06416 0.0206134 0)
(1.06065 0.0177806 0)
(1.05472 0.0155122 0)
(1.04593 0.0138971 0)
(1.0347 0.0126353 0)
(1.02174 0.0115469 0)
(1.00767 0.0105927 0)
(0.992949 0.00975913 0)
(0.977925 0.00902862 0)
(0.962867 0.00838437 0)
(0.947967 0.00781327 0)
(0.93336 0.00730501 0)
(0.919137 0.00685106 0)
(0.905354 0.00644419 0)
(0.892045 0.00607823 0)
(0.879226 0.00574788 0)
(0.8669 0.00544863 0)
(0.855062 0.00517659 0)
(0.843703 0.00492841 0)
(0.832807 0.00470119 0)
(0.822359 0.00449242 0)
(0.812342 0.00429992 0)
(0.802738 0.00412177 0)
(0.793528 0.0039563 0)
(0.784697 0.00380201 0)
(0.776227 0.00365761 0)
(0.768102 0.00352186 0)
(0.760308 0.00339375 0)
(0.75283 0.00327225 0)
(0.745657 0.00315647 0)
(0.738774 0.0030457 0)
(0.732174 0.0029387 0)
(0.725843 0.00283581 0)
(0.719778 0.00273395 0)
(0.713966 0.00263684 0)
(0.708403 0.00253546 0)
(0.70309 0.00244254 0)
(0.697999 0.00233426 0)
(0.693192 0.00224278 0)
(0.688541 0.00211393 0)
(0.684292 0.00201224 0)
(0.680049 0.00183471 0)
(0.676512 0.00167104 0)
(0.672675 0.00138433 0)
(0.670201 0.000893476 0)
(0.667019 0.000367815 0)
(0.665961 -0.001964 0)
(1.00451 0.0349682 0)
(1.04359 0.0339774 0)
(1.05992 0.0240645 0)
(1.06221 0.0203255 0)
(1.06248 0.0178476 0)
(1.06179 0.0157946 0)
(1.05918 0.0143539 0)
(1.05459 0.0132584 0)
(1.04834 0.0123125 0)
(1.04073 0.0114703 0)
(1.03204 0.0107211 0)
(1.02254 0.0100512 0)
(1.01246 0.00944781 0)
(1.00199 0.0089016 0)
(0.991294 0.0084056 0)
(0.980503 0.0079542 0)
(0.969719 0.00754252 0)
(0.959021 0.0071663 0)
(0.948468 0.00682173 0)
(0.938104 0.00650542 0)
(0.927962 0.00621436 0)
(0.918063 0.00594587 0)
(0.908424 0.00569754 0)
(0.899053 0.00546724 0)
(0.889955 0.00525305 0)
(0.881133 0.00505325 0)
(0.872586 0.00486631 0)
(0.86431 0.0046908 0)
(0.856303 0.00452551 0)
(0.84856 0.00436921 0)
(0.841075 0.00422091 0)
(0.833844 0.00407955 0)
(0.826861 0.00394421 0)
(0.820118 0.00381415 0)
(0.813616 0.00368806 0)
(0.807342 0.00356627 0)
(0.8013 0.0034455 0)
(0.795478 0.00332957 0)
(0.789879 0.00320908 0)
(0.784501 0.00309694 0)
(0.779328 0.00296886 0)
(0.774403 0.00285649 0)
(0.76964 0.00270656 0)
(0.765212 0.00257891 0)
(0.760848 0.00237771 0)
(0.757039 0.00217352 0)
(0.753108 0.00185314 0)
(0.75016 0.00128724 0)
(0.746953 0.000659256 0)
(0.745022 -0.00161494 0)
(1.00412 0.0325378 0)
(1.04026 0.0329246 0)
(1.05616 0.0234309 0)
(1.05885 0.0199425 0)
(1.06021 0.0177207 0)
(1.06156 0.0157999 0)
(1.0619 0.0144614 0)
(1.06097 0.0134818 0)
(1.05887 0.0126522 0)
(1.05571 0.0119159 0)
(1.05158 0.0112597 0)
(1.04659 0.0106696 0)
(1.04087 0.0101328 0)
(1.03456 0.00964063 0)
(1.02776 0.00918736 0)
(1.02059 0.00876877 0)
(1.01315 0.00838145 0)
(1.00551 0.00802243 0)
(0.997745 0.00768912 0)
(0.989919 0.00737918 0)
(0.982077 0.00709048 0)
(0.97426 0.00682108 0)
(0.966501 0.0065692 0)
(0.958825 0.0063332 0)
(0.951255 0.00611161 0)
(0.943807 0.00590301 0)
(0.936494 0.00570618 0)
(0.929328 0.00551989 0)
(0.922315 0.00534312 0)
(0.915463 0.00517476 0)
(0.908776 0.00501394 0)
(0.902256 0.00485966 0)
(0.895907 0.00471108 0)
(0.889728 0.00456747 0)
(0.883725 0.00442752 0)
(0.877891 0.00429162 0)
(0.872235 0.00415637 0)
(0.86675 0.00402564 0)
(0.861441 0.00388994 0)
(0.85631 0.00376187 0)
(0.851348 0.00361771 0)
(0.846587 0.00348704 0)
(0.84197 0.00332001 0)
(0.83762 0.00316837 0)
(0.833355 0.00294806 0)
(0.829512 0.00270572 0)
(0.825659 0.00235766 0)
(0.822475 0.0017254 0)
(0.819307 0.00100929 0)
(0.816819 -0.00120998 0)
(1.00374 0.0302037 0)
(1.03727 0.031876 0)
(1.05282 0.0228285 0)
(1.05561 0.0195419 0)
(1.05712 0.0175324 0)
(1.05902 0.0157009 0)
(1.06043 0.0144107 0)
(1.06109 0.0134951 0)
(1.06106 0.0127395 0)
(1.06037 0.0120777 0)
(1.05902 0.0114939 0)
(1.05702 0.0109727 0)
(1.05442 0.0105 0)
(1.05127 0.0100659 0)
(1.04762 0.00966427 0)
(1.04353 0.00929084 0)
(1.03907 0.00894244 0)
(1.0343 0.00861654 0)
(1.02926 0.00831103 0)
(1.02402 0.0080241 0)
(1.0186 0.00775415 0)
(1.01306 0.00749972 0)
(1.00743 0.0072595 0)
(1.00174 0.00703227 0)
(0.996011 0.00681689 0)
(0.990277 0.00661232 0)
(0.984555 0.00641758 0)
(0.978861 0.0062317 0)
(0.973211 0.00605386 0)
(0.967619 0.00588314 0)
(0.962095 0.00571882 0)
(0.956649 0.00556002 0)
(0.95129 0.00540599 0)
(0.946024 0.00525612 0)
(0.940859 0.00510912 0)
(0.935797 0.00496545 0)
(0.930847 0.00482173 0)
(0.92601 0.00468178 0)
(0.921292 0.00453631 0)
(0.916698 0.00439721 0)
(0.912225 0.0042421 0)
(0.907899 0.00409746 0)
(0.903682 0.00391844 0)
(0.899664 0.00374689 0)
(0.895726 0.00351297 0)
(0.892087 0.0032376 0)
(0.8885 0.00286823 0)
(0.88533 0.00218387 0)
(0.882283 0.00139304 0)
(0.879562 -0.000758423 0)
(1.00337 0.0279684 0)
(1.03443 0.0308194 0)
(1.04972 0.022251 0)
(1.05265 0.0191386 0)
(1.05411 0.0173256 0)
(1.05608 0.0155728 0)
(1.05776 0.0143052 0)
(1.05894 0.013421 0)
(1.05972 0.0127065 0)
(1.06014 0.0120883 0)
(1.06018 0.0115497 0)
(1.05983 0.0110752 0)
(1.05907 0.0106494 0)
(1.05792 0.0102614 0)
(1.05639 0.00990411 0)
(1.0545 0.00957254 0)
(1.05227 0.00926314 0)
(1.04974 0.00897313 0)
(1.04692 0.00870034 0)
(1.04386 0.00844295 0)
(1.04058 0.00819945 0)
(1.0371 0.00796853 0)
(1.03347 0.00774904 0)
(1.02969 0.00753992 0)
(1.0258 0.00734026 0)
(1.02182 0.00714916 0)
(1.01776 0.00696584 0)
(1.01364 0.0067895 0)
(1.00949 0.00661946 0)
(1.00532 0.00645496 0)
(1.00113 0.00629539 0)
(0.99695 0.00614 0)
(0.992781 0.00598814 0)
(0.988634 0.0058393 0)
(0.984522 0.00569223 0)
(0.980448 0.00554748 0)
(0.976425 0.00540173 0)
(0.972455 0.00525869 0)
(0.968548 0.00510949 0)
(0.964709 0.00496503 0)
(0.96094 0.00480478 0)
(0.957263 0.00465148 0)
(0.953654 0.00446628 0)
(0.950175 0.0042802 0)
(0.946757 0.00403867 0)
(0.94353 0.00373774 0)
(0.940371 0.00335271 0)
(0.937444 0.00263638 0)
(0.934619 0.00178224 0)
(0.9319 -0.000290429 0)
(1.00301 0.0258353 0)
(1.03171 0.0297507 0)
(1.04672 0.0216948 0)
(1.04985 0.0187324 0)
(1.0513 0.0171072 0)
(1.05322 0.0154378 0)
(1.05494 0.0141861 0)
(1.05624 0.0133187 0)
(1.05725 0.0126277 0)
(1.05806 0.0120336 0)
(1.05866 0.0115198 0)
(1.05905 0.011072 0)
(1.0592 0.0106748 0)
(1.05911 0.0103167 0)
(1.05878 0.00998998 0)
(1.05821 0.0096891 0)
(1.0574 0.00941004 0)
(1.05635 0.00914966 0)
(1.05508 0.00890546 0)
(1.0536 0.00867541 0)
(1.05192 0.00845781 0)
(1.05005 0.00825123 0)
(1.04801 0.00805446 0)
(1.04582 0.00786643 0)
(1.04349 0.0076862 0)
(1.04103 0.00751291 0)
(1.03846 0.00734582 0)
(1.0358 0.00718417 0)
(1.03305 0.00702734 0)
(1.03023 0.00687463 0)
(1.02735 0.00672549 0)
(1.02442 0.00657925 0)
(1.02146 0.00643528 0)
(1.01847 0.00629319 0)
(1.01547 0.00615173 0)
(1.01245 0.00601153 0)
(1.00943 0.00586933 0)
(1.00642 0.00572869 0)
(1.00343 0.00558126 0)
(1.00046 0.00543678 0)
(0.997506 0.00527692 0)
(0.994597 0.00512027 0)
(0.99172 0.00493451 0)
(0.98891 0.00473976 0)
(0.986136 0.00449631 0)
(0.983462 0.00417861 0)
(0.980844 0.00378345 0)
(0.978321 0.00305538 0)
(0.975822 0.00215416 0)
(0.973248 0.000197664 0)
(1.00268 0.023807 0)
(1.02911 0.0286682 0)
(1.04381 0.0211593 0)
(1.04716 0.0183232 0)
(1.04861 0.0168754 0)
(1.0505 0.0152984 0)
(1.05221 0.0140644 0)
(1.05351 0.013209 0)
(1.05456 0.0125349 0)
(1.05547 0.0119562 0)
(1.05624 0.0114563 0)
(1.05689 0.0110229 0)
(1.05741 0.0106414 0)
(1.05779 0.0103003 0)
(1.05803 0.00999155 0)
(1.05813 0.00970964 0)
(1.05808 0.00945027 0)
(1.05788 0.00921009 0)
(1.05753 0.00898634 0)
(1.05704 0.00877678 0)
(1.05639 0.00857952 0)
(1.05561 0.00839294 0)
(1.05468 0.00821568 0)
(1.05363 0.00804653 0)
(1.05244 0.00788446 0)
(1.05114 0.00772852 0)
(1.04974 0.00757792 0)
(1.04822 0.00743185 0)
(1.04662 0.00728968 0)
(1.04493 0.00715067 0)
(1.04317 0.00701426 0)
(1.04133 0.00687982 0)
(1.03944 0.00674668 0)
(1.03749 0.00661451 0)
(1.03549 0.00648203 0)
(1.03346 0.00634992 0)
(1.0314 0.006215 0)
(1.02931 0.00608055 0)
(1.0272 0.00593893 0)
(1.02508 0.00579846 0)
(1.02295 0.00564329 0)
(1.02083 0.00548772 0)
(1.0187 0.00530594 0)
(1.0166 0.00510795 0)
(1.01451 0.00486721 0)
(1.01244 0.0045416 0)
(1.01041 0.0041419 0)
(1.00837 0.00341849 0)
(1.00626 0.0024965 0)
(1.00391 0.000679619 0)
(1.00238 0.0218853 0)
(1.02664 0.0275711 0)
(1.04099 0.0206443 0)
(1.04455 0.0179125 0)
(1.04601 0.016629 0)
(1.04788 0.0151533 0)
(1.04959 0.0139413 0)
(1.05089 0.0130971 0)
(1.05193 0.0124383 0)
(1.05283 0.0118723 0)
(1.05364 0.0113821 0)
(1.05436 0.0109575 0)
(1.05499 0.0105849 0)
(1.05553 0.0102531 0)
(1.056 0.0099542 0)
(1.05638 0.00968282 0)
(1.05668 0.0094347 0)
(1.05689 0.00920645 0)
(1.05701 0.00899528 0)
(1.05704 0.00879883 0)
(1.05698 0.0086151 0)
(1.05682 0.00844237 0)
(1.05657 0.00827914 0)
(1.05623 0.00812409 0)
(1.05579 0.00797608 0)
(1.05526 0.00783407 0)
(1.05464 0.00769715 0)
(1.05394 0.00756448 0)
(1.05316 0.00743531 0)
(1.0523 0.00730888 0)
(1.05137 0.00718456 0)
(1.05037 0.00706172 0)
(1.0493 0.0069396 0)
(1.04818 0.00681791 0)
(1.04701 0.00669531 0)
(1.04579 0.00657248 0)
(1.04452 0.00644635 0)
(1.04321 0.00631984 0)
(1.04187 0.00618607 0)
(1.0405 0.00605188 0)
(1.0391 0.00590394 0)
(1.03767 0.00575238 0)
(1.03623 0.0055775 0)
(1.03478 0.00538056 0)
(1.03332 0.00514572 0)
(1.03184 0.00481985 0)
(1.03035 0.00442087 0)
(1.02879 0.00371627 0)
(1.0271 0.00279816 0)
(1.025 0.00111489 0)
(1.0021 0.0200712 0)
(1.0243 0.0264614 0)
(1.03825 0.0201476 0)
(1.04203 0.0175024 0)
(1.04351 0.0163681 0)
(1.04535 0.0150011 0)
(1.04706 0.0138162 0)
(1.04835 0.0129833 0)
(1.04938 0.0123396 0)
(1.05027 0.0117864 0)
(1.05107 0.0113049 0)
(1.05179 0.0108872 0)
(1.05244 0.0105208 0)
(1.05303 0.0101948 0)
(1.05356 0.00990176 0)
(1.05404 0.00963626 0)
(1.05447 0.00939429 0)
(1.05484 0.0091726 0)
(1.05517 0.00896843 0)
(1.05544 0.00877947 0)
(1.05566 0.00860372 0)
(1.05582 0.0084394 0)
(1.05592 0.00828498 0)
(1.05596 0.00813909 0)
(1.05594 0.0080005 0)
(1.05586 0.00786812 0)
(1.05571 0.00774097 0)
(1.05551 0.00761814 0)
(1.05525 0.00749881 0)
(1.05493 0.00738219 0)
(1.05455 0.00726756 0)
(1.05412 0.00715427 0)
(1.05363 0.0070415 0)
(1.05309 0.00692896 0)
(1.05251 0.00681526 0)
(1.05188 0.00670102 0)
(1.0512 0.00658333 0)
(1.05049 0.00646467 0)
(1.04973 0.00633902 0)
(1.04894 0.00621165 0)
(1.04812 0.00607173 0)
(1.04726 0.00592555 0)
(1.04637 0.00575879 0)
(1.04546 0.00556573 0)
(1.04452 0.00533855 0)
(1.04353 0.00501817 0)
(1.04252 0.00462485 0)
(1.04137 0.00394953 0)
(1.04004 0.00305633 0)
(1.03819 0.0015169 0)
(1.00185 0.0183647 0)
(1.0221 0.025343 0)
(1.03562 0.0196654 0)
(1.03959 0.0170945 0)
(1.0411 0.0160931 0)
(1.0429 0.0148409 0)
(1.04461 0.0136887 0)
(1.04591 0.0128673 0)
(1.04693 0.012239 0)
(1.04781 0.0116991 0)
(1.04859 0.0112266 0)
(1.0493 0.0108154 0)
(1.04994 0.0104545 0)
(1.05053 0.0101333 0)
(1.05107 0.0098444 0)
(1.05157 0.00958276 0)
(1.05203 0.00934453 0)
(1.05246 0.0091266 0)
(1.05285 0.00892636 0)
(1.05321 0.00874155 0)
(1.05354 0.00857023 0)
(1.05383 0.00841066 0)
(1.05409 0.00826131 0)
(1.05431 0.00812081 0)
(1.0545 0.00798791 0)
(1.05464 0.00786149 0)
(1.05475 0.00774056 0)
(1.05482 0.00762415 0)
(1.05484 0.00751142 0)
(1.05483 0.00740154 0)
(1.05478 0.00729374 0)
(1.05469 0.00718736 0)
(1.05455 0.00708153 0)
(1.05438 0.00697593 0)
(1.05418 0.0068692 0)
(1.05393 0.00676183 0)
(1.05365 0.00665114 0)
(1.05333 0.00653911 0)
(1.05298 0.00642061 0)
(1.0526 0.0062994 0)
(1.05218 0.00616702 0)
(1.05173 0.00602636 0)
(1.05125 0.00586762 0)
(1.05072 0.00567998 0)
(1.05018 0.00546103 0)
(1.04956 0.00515019 0)
(1.0489 0.00476668 0)
(1.04807 0.00412814 0)
(1.04701 0.00327827 0)
(1.04537 0.00189278 0)
(1.00162 0.0167658 0)
(1.02004 0.0242203 0)
(1.03309 0.0191935 0)
(1.03724 0.0166904 0)
(1.03878 0.0158053 0)
(1.04055 0.0146721 0)
(1.04225 0.0135585 0)
(1.04355 0.0127492 0)
(1.04457 0.0121361 0)
(1.04543 0.0116102 0)
(1.04621 0.0111472 0)
(1.0469 0.0107428 0)
(1.04753 0.0103874 0)
(1.0481 0.0100707 0)
(1.04863 0.00978559 0)
(1.04913 0.00952717 0)
(1.04959 0.00929178 0)
(1.05002 0.00907648 0)
(1.05043 0.00887877 0)
(1.05082 0.00869651 0)
(1.05118 0.00852781 0)
(1.05152 0.008371 0)
(1.05183 0.00822456 0)
(1.05212 0.00808715 0)
(1.05239 0.00795755 0)
(1.05264 0.00783464 0)
(1.05285 0.00771742 0)
(1.05305 0.00760491 0)
(1.05321 0.00749627 0)
(1.05335 0.00739065 0)
(1.05347 0.00728726 0)
(1.05356 0.00718543 0)
(1.05362 0.00708428 0)
(1.05365 0.00698348 0)
(1.05366 0.00688167 0)
(1.05363 0.00677927 0)
(1.05359 0.00667381 0)
(1.05351 0.00656682 0)
(1.05341 0.00645402 0)
(1.05327 0.00633781 0)
(1.05311 0.00621181 0)
(1.05292 0.00607616 0)
(1.0527 0.0059246 0)
(1.05244 0.00574302 0)
(1.05215 0.0055322 0)
(1.05179 0.00523359 0)
(1.05136 0.00486333 0)
(1.05075 0.00426709 0)
(1.04988 0.00347534 0)
(1.04838 0.00225212 0)
(1.00142 0.0152737 0)
(1.01811 0.0230972 0)
(1.03067 0.0187282 0)
(1.03498 0.0162917 0)
(1.03656 0.015506 0)
(1.03828 0.0144941 0)
(1.03998 0.0134252 0)
(1.04129 0.0126288 0)
(1.04229 0.0120308 0)
(1.04315 0.0115195 0)
(1.04391 0.0110667 0)
(1.04459 0.0106694 0)
(1.04521 0.0103196 0)
(1.04577 0.0100075 0)
(1.04629 0.00972623 0)
(1.04677 0.00947092 0)
(1.04723 0.00923816 0)
(1.04765 0.00902514 0)
(1.04806 0.00882949 0)
(1.04844 0.00864916 0)
(1.04881 0.00848234 0)
(1.04915 0.00832739 0)
(1.04948 0.00818285 0)
(1.04979 0.0080474 0)
(1.05008 0.00791985 0)
(1.05036 0.00779909 0)
(1.05062 0.00768413 0)
(1.05086 0.00757401 0)
(1.05108 0.00746787 0)
(1.05129 0.0073649 0)
(1.05147 0.00726427 0)
(1.05164 0.00716534 0)
(1.05179 0.00706721 0)
(1.05192 0.00696955 0)
(1.05204 0.00687108 0)
(1.05213 0.00677205 0)
(1.0522 0.00667033 0)
(1.05225 0.00656696 0)
(1.05228 0.00645846 0)
(1.05229 0.00634611 0)
(1.05228 0.00622523 0)
(1.05223 0.00609394 0)
(1.05217 0.00594852 0)
(1.05206 0.00577323 0)
(1.05192 0.00557031 0)
(1.05171 0.00528573 0)
(1.05142 0.0049318 0)
(1.05093 0.00438187 0)
(1.05016 0.00365984 0)
(1.04875 0.00260395 0)
(1.00124 0.0138868 0)
(1.01632 0.0219779 0)
(1.02835 0.0182655 0)
(1.0328 0.0158995 0)
(1.03443 0.0151967 0)
(1.03611 0.0143063 0)
(1.03779 0.0132884 0)
(1.03911 0.0125064 0)
(1.04011 0.0119232 0)
(1.04096 0.011427 0)
(1.04171 0.010985 0)
(1.04238 0.0105951 0)
(1.04298 0.0102511 0)
(1.04354 0.00994385 0)
(1.04404 0.00966644 0)
(1.04451 0.00941432 0)
(1.04496 0.00918419 0)
(1.04537 0.00897342 0)
(1.04577 0.00877974 0)
(1.04614 0.00860118 0)
(1.0465 0.00843599 0)
(1.04684 0.0082826 0)
(1.04716 0.00813957 0)
(1.04747 0.00800562 0)
(1.04777 0.00787958 0)
(1.04805 0.00776036 0)
(1.04831 0.00764697 0)
(1.04857 0.00753849 0)
(1.04881 0.00743404 0)
(1.04903 0.00733283 0)
(1.04924 0.00723404 0)
(1.04944 0.00713704 0)
(1.04963 0.00704093 0)
(1.0498 0.00694539 0)
(1.04995 0.00684921 0)
(1.05009 0.00675252 0)
(1.05022 0.00665349 0)
(1.05033 0.00655274 0)
(1.05042 0.00644753 0)
(1.0505 0.00633819 0)
(1.05056 0.00622144 0)
(1.05059 0.00609402 0)
(1.0506 0.0059539 0)
(1.05057 0.00578505 0)
(1.05051 0.00558997 0)
(1.05037 0.0053208 0)
(1.05015 0.00498613 0)
(1.04972 0.00448556 0)
(1.049 0.00384198 0)
(1.04763 0.00295567 0)
(1.00107 0.0126032 0)
(1.01466 0.0208663 0)
(1.02614 0.0178021 0)
(1.03072 0.0155147 0)
(1.03239 0.0148794 0)
(1.03403 0.0141083 0)
(1.0357 0.0131477 0)
(1.03702 0.0123819 0)
(1.03802 0.0118132 0)
(1.03885 0.0113325 0)
(1.03959 0.0109019 0)
(1.04026 0.0105198 0)
(1.04085 0.0101818 0)
(1.04139 0.00987955 0)
(1.04189 0.00960619 0)
(1.04235 0.00935736 0)
(1.04278 0.00912996 0)
(1.04319 0.00892148 0)
(1.04357 0.00872979 0)
(1.04394 0.008553 0)
(1.04428 0.00838942 0)
(1.04461 0.00823753 0)
(1.04493 0.00809592 0)
(1.04523 0.00796333 0)
(1.04552 0.00783862 0)
(1.0458 0.00772072 0)
(1.04606 0.00760865 0)
(1.04631 0.00750149 0)
(1.04655 0.00739839 0)
(1.04677 0.00729855 0)
(1.04699 0.00720116 0)
(1.04719 0.00710561 0)
(1.04739 0.00701103 0)
(1.04757 0.00691707 0)
(1.04774 0.00682263 0)
(1.04789 0.00672771 0)
(1.04804 0.00663077 0)
(1.04817 0.00653207 0)
(1.04829 0.00642952 0)
(1.04839 0.00632272 0)
(1.04847 0.00620947 0)
(1.04853 0.00608569 0)
(1.04858 0.00595039 0)
(1.04858 0.00578825 0)
(1.04855 0.00560129 0)
(1.04844 0.00534875 0)
(1.04824 0.00503621 0)
(1.04783 0.00458748 0)
(1.04712 0.00402846 0)
(1.04578 0.00331126 0)
(1.00093 0.0114203 0)
(1.01314 0.0197666 0)
(1.02404 0.0173349 0)
(1.02872 0.015138 0)
(1.03045 0.0145559 0)
(1.03205 0.0138998 0)
(1.0337 0.0130025 0)
(1.03502 0.0122553 0)
(1.03602 0.0117008 0)
(1.03684 0.0112358 0)
(1.03757 0.0108173 0)
(1.03823 0.0104434 0)
(1.03881 0.0101117 0)
(1.03934 0.00981456 0)
(1.03983 0.00954541 0)
(1.04028 0.0093 0)
(1.0407 0.00907541 0)
(1.0411 0.00886931 0)
(1.04147 0.00867968 0)
(1.04183 0.00850471 0)
(1.04216 0.00834278 0)
(1.04249 0.0081924 0)
(1.04279 0.00805221 0)
(1.04309 0.00792098 0)
(1.04337 0.00779758 0)
(1.04363 0.00768095 0)
(1.04389 0.00757012 0)
(1.04413 0.00746421 0)
(1.04436 0.00736233 0)
(1.04459 0.00726373 0)
(1.0448 0.0071676 0)
(1.045 0.00707332 0)
(1.04519 0.00698007 0)
(1.04537 0.00688746 0)
(1.04554 0.00679451 0)
(1.04569 0.00670111 0)
(1.04584 0.00660598 0)
(1.04597 0.00650909 0)
(1.0461 0.00640887 0)
(1.0462 0.00630445 0)
(1.0463 0.00619437 0)
(1.04637 0.00607425 0)
(1.04642 0.00594361 0)
(1.04643 0.00578857 0)
(1.0464 0.00561037 0)
(1.0463 0.00537561 0)
(1.0461 0.005088 0)
(1.04568 0.00469314 0)
(1.04497 0.00422252 0)
(1.04366 0.00367166 0)
(1.0008 0.0103348 0)
(1.01173 0.0186829 0)
(1.02206 0.0168611 0)
(1.0268 0.0147695 0)
(1.0286 0.0142284 0)
(1.03016 0.0136808 0)
(1.03178 0.0128522 0)
(1.0331 0.0121265 0)
(1.0341 0.0115859 0)
(1.03492 0.0111368 0)
(1.03564 0.010731 0)
(1.03629 0.0103659 0)
(1.03687 0.0100406 0)
(1.03739 0.00974881 0)
(1.03786 0.00948402 0)
(1.03831 0.00924216 0)
(1.03872 0.0090205 0)
(1.0391 0.00881686 0)
(1.03947 0.00862936 0)
(1.03982 0.00845627 0)
(1.04014 0.00829604 0)
(1.04046 0.00814722 0)
(1.04075 0.0080085 0)
(1.04104 0.00787867 0)
(1.04131 0.00775659 0)
(1.04157 0.00764125 0)
(1.04182 0.00753169 0)
(1.04205 0.00742701 0)
(1.04228 0.00732636 0)
(1.04249 0.00722898 0)
(1.04269 0.00713406 0)
(1.04289 0.00704101 0)
(1.04307 0.00694903 0)
(1.04325 0.00685772 0)
(1.04341 0.00676618 0)
(1.04356 0.00667423 0)
(1.0437 0.00658081 0)
(1.04384 0.00648567 0)
(1.04395 0.00638767 0)
(1.04406 0.00628564 0)
(1.04415 0.00617862 0)
(1.04422 0.00606234 0)
(1.04426 0.00593647 0)
(1.04427 0.00578902 0)
(1.04424 0.00562042 0)
(1.04413 0.00540457 0)
(1.04392 0.00514444 0)
(1.04349 0.00480499 0)
(1.04278 0.00442468 0)
(1.04149 0.00403516 0)
(1.00069 0.00934286 0)
(1.01046 0.0176192 0)
(1.02019 0.0163786 0)
(1.02497 0.0144093 0)
(1.02684 0.0138989 0)
(1.02836 0.0134514 0)
(1.02995 0.0126961 0)
(1.03127 0.0119955 0)
(1.03228 0.0114688 0)
(1.03309 0.0110354 0)
(1.0338 0.010643 0)
(1.03444 0.0102871 0)
(1.03501 0.00996857 0)
(1.03552 0.00968221 0)
(1.03599 0.00942195 0)
(1.03642 0.00918378 0)
(1.03683 0.00896514 0)
(1.03721 0.00876406 0)
(1.03756 0.00857876 0)
(1.0379 0.00840763 0)
(1.03822 0.00824916 0)
(1.03852 0.00810197 0)
(1.03881 0.00796476 0)
(1.03909 0.00783636 0)
(1.03935 0.00771566 0)
(1.0396 0.00760165 0)
(1.03984 0.00749339 0)
(1.04007 0.00738998 0)
(1.04029 0.00729058 0)
(1.04049 0.00719444 0)
(1.04069 0.00710076 0)
(1.04088 0.00700895 0)
(1.04105 0.00691825 0)
(1.04122 0.00682824 0)
(1.04138 0.00673812 0)
(1.04152 0.00664762 0)
(1.04166 0.0065559 0)
(1.04178 0.00646255 0)
(1.0419 0.00636675 0)
(1.042 0.00626722 0)
(1.04208 0.00616331 0)
(1.04214 0.0060511 0)
(1.04218 0.00593025 0)
(1.04219 0.00579091 0)
(1.04215 0.00563289 0)
(1.04203 0.00543699 0)
(1.0418 0.00520655 0)
(1.04136 0.0049235 0)
(1.04065 0.00463358 0)
(1.03939 0.00439818 0)
(1.0006 0.00844021 0)
(1.0093 0.0165796 0)
(1.01843 0.0158854 0)
(1.02323 0.0140571 0)
(1.02516 0.0135691 0)
(1.02666 0.0132122 0)
(1.02821 0.0125337 0)
(1.02953 0.011862 0)
(1.03054 0.0113493 0)
(1.03135 0.0109315 0)
(1.03205 0.010553 0)
(1.03268 0.0102068 0)
(1.03324 0.00989539 0)
(1.03375 0.00961469 0)
(1.03421 0.00935911 0)
(1.03463 0.00912476 0)
(1.03503 0.00890927 0)
(1.0354 0.00871084 0)
(1.03575 0.00852783 0)
(1.03608 0.00835872 0)
(1.03639 0.00820208 0)
(1.03669 0.00805657 0)
(1.03697 0.00792094 0)
(1.03724 0.00779403 0)
(1.03749 0.00767475 0)
(1.03774 0.00756212 0)
(1.03797 0.00745519 0)
(1.03819 0.0073531 0)
(1.0384 0.00725499 0)
(1.0386 0.00716013 0)
(1.03879 0.00706773 0)
(1.03896 0.0069772 0)
(1.03913 0.00688781 0)
(1.03929 0.00679913 0)
(1.03944 0.00671046 0)
(1.03958 0.00662146 0)
(1.03971 0.00653146 0)
(1.03983 0.00643998 0)
(1.03994 0.00634642 0)
(1.04003 0.00624952 0)
(1.04011 0.00614882 0)
(1.04017 0.00604094 0)
(1.0402 0.00592547 0)
(1.04019 0.00579474 0)
(1.04014 0.00564828 0)
(1.04001 0.00547324 0)
(1.03977 0.00527423 0)
(1.03933 0.00504792 0)
(1.03862 0.00484683 0)
(1.03742 0.00475623 0)
(1.00051 0.00762205 0)
(1.00825 0.015568 0)
(1.01678 0.0153804 0)
(1.02156 0.0137121 0)
(1.02357 0.0132409 0)
(1.02504 0.0129638 0)
(1.02656 0.0123645 0)
(1.02788 0.0117258 0)
(1.02888 0.0112276 0)
(1.02969 0.0108251 0)
(1.03039 0.0104609 0)
(1.03101 0.0101251 0)
(1.03156 0.009821 0)
(1.03206 0.00954615 0)
(1.03252 0.0092954 0)
(1.03293 0.00906503 0)
(1.03332 0.00885282 0)