/*--------------------------------*- C++ -*----------------------------------*\
  =========                 |
  \\      /  F ield         | OpenFOAM: The Open Source CFD Toolbox
   \\    /   O peration     | Website:  https://openfoam.org
    \\  /    A nd           | Version:  7
     \\/     M anipulation  |
\*---------------------------------------------------------------------------*/
FoamFile
{
    version     2.0;
    format      ascii;
    class       volVectorField;
    location    "0.49";
    object      wallShearStress;
}
// * * * * * * * * * * * * * * * * * * * * * * * * * * * * * * * * * * * * * //

dimensions      [0 2 -2 0 0 0 0];

internalField   uniform (0 0 0);

boundaryField
{
    velocityInlet
    {
        type            calculated;
        value           uniform (0 0 0);
    }
    pressureOutlet
    {
        type            calculated;
        value           uniform (0 0 0);
    }
    fixedWalls
    {
        type            calculated;
        value           nonuniform List<vector> 
100
(
(-0.0167457 -0.00670434 0)
(0.00684635 -0.00104355 0)
(-0.00175944 0.000527366 0)
(0.000132392 8.6416e-05 0)
(-0.00234762 0.000213803 0)
(-0.00256871 0.000143817 0)
(-0.00291677 -1.23493e-05 0)
(-0.00161308 -0.000224306 0)
(0.000363848 -0.000382955 0)
(0.00285248 -0.000413777 0)
(0.00441238 -0.000262615 0)
(0.00467841 -1.91587e-05 0)
(0.00359324 0.000182374 0)
(0.00178465 0.000279248 0)
(-0.00015498 0.000278978 0)
(-0.00182154 0.000234157 0)
(-0.00306326 0.000175081 0)
(-0.00384627 0.000116841 0)
(-0.00418012 6.40575e-05 0)
(-0.00407645 8.29765e-06 0)
(-0.00350618 -5.58468e-05 0)
(-0.00244105 -0.000130691 0)
(-0.000993595 -0.000187164 0)
(0.00064539 -0.000214887 0)
(0.00229225 -0.000234131 0)
(0.00381804 -0.000229305 0)
(0.00512068 -0.000203344 0)
(0.00608774 -0.000157815 0)
(0.00662526 -9.80566e-05 0)
(0.00668674 -3.11652e-05 0)
(0.00628534 3.33403e-05 0)
(0.00548244 8.78048e-05 0)
(0.00437777 0.000125729 0)
(0.00309732 0.000146419 0)
(0.00176228 0.000150564 0)
(0.000478672 0.000142447 0)
(-0.000673986 0.00012533 0)
(-0.00164124 0.000103008 0)
(-0.00240037 7.95858e-05 0)
(-0.00295532 5.78177e-05 0)
(-0.0033297 3.93736e-05 0)
(-0.00355775 2.49842e-05 0)
(-0.00367651 1.48603e-05 0)
(-0.00371991 8.68385e-06 0)
(-0.00371321 4.19961e-06 0)
(-0.00366888 7.0735e-07 0)
(-0.00358641 -3.39188e-06 0)
(-0.00345572 -9.25693e-06 0)
(-0.00326644 -1.67514e-05 0)
(-0.00301918 -2.43369e-05 0)
(-0.00273288 -2.96902e-05 0)
(-0.00244367 -3.07367e-05 0)
(-0.00219521 -2.65717e-05 0)
(-0.00202594 -1.80905e-05 0)
(-0.00195768 -8.68122e-06 0)
(-0.00199049 1.44351e-06 0)
(-0.00210656 8.84934e-06 0)
(-0.00228799 1.48525e-05 0)
(-0.00253736 2.30615e-05 0)
(-0.00285782 3.22991e-05 0)
(-0.00319044 3.14393e-05 0)
(-0.00339599 1.07933e-05 0)
(-0.0033801 -1.74372e-05 0)
(-0.00327933 -2.5216e-05 0)
(-0.00342312 1.21801e-05 0)
(-0.00399902 6.08952e-05 0)
(-0.00485076 8.36851e-05 0)
(-0.00572114 8.30574e-05 0)
(-0.00650826 8.13148e-05 0)
(-0.00718894 7.88136e-05 0)
(-0.00767123 6.70973e-05 0)
(-0.00779108 4.14476e-05 0)
(-0.00737243 -7.58424e-06 0)
(-0.00628627 -7.69519e-05 0)
(-0.00447059 -0.00015673 0)
(-0.00198917 -0.000245309 0)
(0.00074624 -0.000260324 0)
(0.00315282 -0.000237501 0)
(0.00481055 -0.000160847 0)
(0.00548285 -6.32672e-05 0)
(0.0052229 2.68929e-05 0)
(0.00431335 8.56482e-05 0)
(0.00310944 0.000110152 0)
(0.00192605 0.000106084 0)
(0.000982141 8.30101e-05 0)
(0.000405519 4.96155e-05 0)
(0.000231515 1.56713e-05 0)
(0.000401673 -1.51369e-05 0)
(0.000805752 -3.74861e-05 0)
(0.00127145 -4.58111e-05 0)
(0.00164335 -4.00006e-05 0)
(0.00171071 -1.49007e-05 0)
(0.0013774 2.18056e-05 0)
(0.000572573 6.07112e-05 0)
(-0.000522916 7.86502e-05 0)
(-0.00174852 8.57171e-05 0)
(-0.00289187 8.15893e-05 0)
(-0.00372311 6.2988e-05 0)
(-0.00467672 6.24751e-05 0)
(-0.0050266 1.85963e-05 0)
)
;
    }
    bottomWall
    {
        type            calculated;
        value           nonuniform List<vector> 
800
(
(-0.0353512 0.00216562 0)
(-0.0160365 0.00052496 0)
(-0.0105907 0.000100549 0)
(-0.00845614 3.45839e-05 0)
(-0.00749231 1.9678e-05 0)
(-0.00685684 1.60073e-05 0)
(-0.00634823 1.3208e-05 0)
(-0.00593717 1.07594e-05 0)
(-0.0056027 8.95957e-06 0)
(-0.00532409 7.6605e-06 0)
(-0.00508678 6.67611e-06 0)
(-0.00488135 5.8982e-06 0)
(-0.00470135 5.26791e-06 0)
(-0.00454204 4.7484e-06 0)
(-0.00439984 4.31412e-06 0)
(-0.00427197 3.94658e-06 0)
(-0.00415626 3.6321e-06 0)
(-0.00405095 3.36044e-06 0)
(-0.00395464 3.12375e-06 0)
(-0.00386616 2.91597e-06 0)
(-0.00378455 2.73232e-06 0)
(-0.00370901 2.56903e-06 0)
(-0.00363886 2.42303e-06 0)
(-0.00357352 2.29184e-06 0)
(-0.0035125 2.17343e-06 0)
(-0.00345536 2.06611e-06 0)
(-0.00340174 1.96847e-06 0)
(-0.00335131 1.87931e-06 0)
(-0.00330379 1.79766e-06 0)
(-0.00325893 1.72267e-06 0)
(-0.0032165 1.65358e-06 0)
(-0.0031763 1.58977e-06 0)
(-0.00313817 1.53069e-06 0)
(-0.00310194 1.47586e-06 0)
(-0.00306748 1.42488e-06 0)
(-0.00303465 1.37736e-06 0)
(-0.00300334 1.33298e-06 0)
(-0.00297344 1.29147e-06 0)
(-0.00294487 1.25257e-06 0)
(-0.00291752 1.21606e-06 0)
(-0.00289134 1.18173e-06 0)
(-0.00286624 1.14941e-06 0)
(-0.00284215 1.11898e-06 0)
(-0.00281903 1.09018e-06 0)
(-0.0027968 1.0631e-06 0)
(-0.00277542 1.03721e-06 0)
(-0.00275484 1.01316e-06 0)
(-0.00273503 9.89533e-07 0)
(-0.00271592 9.68321e-07 0)
(-0.00269751 9.45683e-07 0)
(-0.00268211 9.2714e-07 0)
(-0.0026694 9.16684e-07 0)
(-0.00265684 9.03259e-07 0)
(-0.00264448 8.88907e-07 0)
(-0.00263231 8.75477e-07 0)
(-0.00262031 8.62714e-07 0)
(-0.00260849 8.50266e-07 0)
(-0.00259684 8.38091e-07 0)
(-0.00258536 8.26216e-07 0)
(-0.00257404 8.14634e-07 0)
(-0.00256287 8.0333e-07 0)
(-0.00255186 7.92291e-07 0)
(-0.002541 7.81509e-07 0)
(-0.00253029 7.70976e-07 0)
(-0.00251972 7.60683e-07 0)
(-0.00250929 7.50622e-07 0)
(-0.002499 7.40786e-07 0)
(-0.00248884 7.31167e-07 0)
(-0.00247882 7.2176e-07 0)
(-0.00246892 7.12558e-07 0)
(-0.00245915 7.03556e-07 0)
(-0.0024495 6.94746e-07 0)
(-0.00243998 6.86123e-07 0)
(-0.00243057 6.77683e-07 0)
(-0.00242127 6.6942e-07 0)
(-0.00241209 6.61326e-07 0)
(-0.00240302 6.53399e-07 0)
(-0.00239406 6.45635e-07 0)
(-0.00238521 6.38028e-07 0)
(-0.00237646 6.30575e-07 0)
(-0.00236781 6.23271e-07 0)
(-0.00235926 6.16114e-07 0)
(-0.00235081 6.09101e-07 0)
(-0.00234245 6.02226e-07 0)
(-0.00233419 5.95487e-07 0)
(-0.00232602 5.88884e-07 0)
(-0.00231795 5.82409e-07 0)
(-0.00230996 5.76061e-07 0)
(-0.00230206 5.69836e-07 0)
(-0.00229424 5.63732e-07 0)
(-0.00228651 5.57746e-07 0)
(-0.00227886 5.51872e-07 0)
(-0.00227129 5.46109e-07 0)
(-0.0022638 5.40455e-07 0)
(-0.00225638 5.34907e-07 0)
(-0.00224905 5.29458e-07 0)
(-0.00224179 5.24109e-07 0)
(-0.0022346 5.18858e-07 0)
(-0.00222748 5.13699e-07 0)
(-0.00222044 5.08632e-07 0)
(-0.00221346 5.03654e-07 0)
(-0.00220656 4.98763e-07 0)
(-0.00219972 4.93956e-07 0)
(-0.00219294 4.89231e-07 0)
(-0.00218624 4.84586e-07 0)
(-0.00217959 4.80021e-07 0)
(-0.00217301 4.75532e-07 0)
(-0.00216649 4.71118e-07 0)
(-0.00216003 4.66776e-07 0)
(-0.00215363 4.62508e-07 0)
(-0.00214729 4.5831e-07 0)
(-0.00214101 4.54182e-07 0)
(-0.00213478 4.50122e-07 0)
(-0.00212861 4.46129e-07 0)
(-0.0021225 4.42202e-07 0)
(-0.00211644 4.38341e-07 0)
(-0.00211043 4.34542e-07 0)
(-0.00210448 4.30807e-07 0)
(-0.00209857 4.27133e-07 0)
(-0.00209272 4.2352e-07 0)
(-0.00208691 4.19965e-07 0)
(-0.00208116 4.1647e-07 0)
(-0.00207545 4.13032e-07 0)
(-0.00206979 4.0965e-07 0)
(-0.00206418 4.06322e-07 0)
(-0.00205861 4.0305e-07 0)
(-0.00205309 3.99829e-07 0)
(-0.00204761 3.96661e-07 0)
(-0.00204218 3.93542e-07 0)
(-0.00203679 3.9047e-07 0)
(-0.00203144 3.87446e-07 0)
(-0.00202614 3.8447e-07 0)
(-0.00202087 3.81538e-07 0)
(-0.00201564 3.7865e-07 0)
(-0.00201046 3.75806e-07 0)
(-0.00200531 3.73006e-07 0)
(-0.00200021 3.70249e-07 0)
(-0.00199514 3.67532e-07 0)
(-0.00199011 3.64858e-07 0)
(-0.00198511 3.62217e-07 0)
(-0.00198015 3.59625e-07 0)
(-0.00197523 3.57054e-07 0)
(-0.00197035 3.54543e-07 0)
(-0.0019655 3.52031e-07 0)
(-0.00196068 3.49607e-07 0)
(-0.0019559 3.47136e-07 0)
(-0.00195115 3.44811e-07 0)
(-0.00194643 3.42348e-07 0)
(-0.00194175 3.4011e-07 0)
(-0.0019371 3.37566e-07 0)
(-0.00193319 3.35306e-07 0)
(-0.00193 3.34156e-07 0)
(-0.00192679 3.32726e-07 0)
(-0.00192358 3.31076e-07 0)
(-0.00192036 3.29441e-07 0)
(-0.00191714 3.27856e-07 0)
(-0.00191391 3.2629e-07 0)
(-0.00191067 3.24728e-07 0)
(-0.00190742 3.23168e-07 0)
(-0.00190417 3.21613e-07 0)
(-0.00190091 3.20057e-07 0)
(-0.00189764 3.18514e-07 0)
(-0.00189437 3.16963e-07 0)
(-0.00189109 3.15418e-07 0)
(-0.00188781 3.13873e-07 0)
(-0.00188451 3.12335e-07 0)
(-0.00188122 3.10797e-07 0)
(-0.00187791 3.0926e-07 0)
(-0.0018746 3.07727e-07 0)
(-0.00187128 3.06199e-07 0)
(-0.00186796 3.04666e-07 0)
(-0.00186462 3.03148e-07 0)
(-0.00186129 3.01623e-07 0)
(-0.00185794 3.00107e-07 0)
(-0.00185459 2.98591e-07 0)
(-0.00185124 2.97075e-07 0)
(-0.00184787 2.95563e-07 0)
(-0.00184451 2.94056e-07 0)
(-0.00184113 2.92543e-07 0)
(-0.00183775 2.91047e-07 0)
(-0.00183436 2.89541e-07 0)
(-0.00183097 2.88045e-07 0)
(-0.00182757 2.86549e-07 0)
(-0.00182417 2.85053e-07 0)
(-0.00182076 2.83559e-07 0)
(-0.00181734 2.82069e-07 0)
(-0.00181392 2.80574e-07 0)
(-0.00181049 2.79093e-07 0)
(-0.00180706 2.77604e-07 0)
(-0.00180362 2.76125e-07 0)
(-0.00180018 2.74647e-07 0)
(-0.00179673 2.7317e-07 0)
(-0.00179328 2.71696e-07 0)
(-0.00178982 2.70226e-07 0)
(-0.00178635 2.68762e-07 0)
(-0.00178289 2.67299e-07 0)
(-0.00177941 2.65831e-07 0)
(-0.00177593 2.64381e-07 0)
(-0.00177245 2.62922e-07 0)
(-0.00176896 2.61472e-07 0)
(-0.00176546 2.60022e-07 0)
(-0.00176196 2.58573e-07 0)
(-0.00175846 2.57126e-07 0)
(-0.00175495 2.55679e-07 0)
(-0.00175144 2.54226e-07 0)
(-0.00174792 2.52785e-07 0)
(-0.0017444 2.51333e-07 0)
(-0.00174088 2.49889e-07 0)
(-0.00173735 2.48444e-07 0)
(-0.00173382 2.46993e-07 0)
(-0.00173028 2.45543e-07 0)
(-0.00172674 2.44091e-07 0)
(-0.0017232 2.4263e-07 0)
(-0.00171965 2.4118e-07 0)
(-0.0017161 2.39718e-07 0)
(-0.00171255 2.38259e-07 0)
(-0.00170899 2.368e-07 0)
(-0.00170543 2.35343e-07 0)
(-0.00170187 2.33884e-07 0)
(-0.00169831 2.32423e-07 0)
(-0.00169474 2.30969e-07 0)
(-0.00169117 2.29519e-07 0)
(-0.0016876 2.2806e-07 0)
(-0.00168403 2.2663e-07 0)
(-0.00168045 2.25175e-07 0)
(-0.00167687 2.23765e-07 0)
(-0.00167329 2.22318e-07 0)
(-0.00166971 2.20958e-07 0)
(-0.00166613 2.19484e-07 0)
(-0.00166254 2.18235e-07 0)
(-0.00165895 2.16651e-07 0)
(-0.00165535 2.15658e-07 0)
(-0.00165177 2.13782e-07 0)
(-0.00164816 2.13345e-07 0)
(-0.00164458 2.10718e-07 0)
(-0.00164094 2.11607e-07 0)
(-0.00163738 2.07102e-07 0)
(-0.00163368 2.11045e-07 0)
(-0.0016302 2.0208e-07 0)
(-0.00162638 2.12985e-07 0)
(-0.00162304 1.93859e-07 0)
(-0.00161897 2.20172e-07 0)
(-0.00161594 1.78751e-07 0)
(-0.0016114 2.37916e-07 0)
(-0.00160899 1.49844e-07 0)
(-0.00160357 2.75058e-07 0)
(-0.00160224 9.59982e-08 0)
(-0.00159544 3.41541e-07 0)
(-0.00159568 1.14622e-08 0)
(-0.00158704 3.7436e-07 0)
(-0.0353511 -0.00216564 0)
(-0.0160359 -0.000524989 0)
(-0.0105892 -0.000100583 0)
(-0.00845363 -3.46159e-05 0)
(-0.00748884 -1.97097e-05 0)
(-0.00685243 -1.60384e-05 0)
(-0.00634293 -1.3238e-05 0)
(-0.00593105 -1.07882e-05 0)
(-0.00559581 -8.9876e-06 0)
(-0.00531646 -7.6883e-06 0)
(-0.00507842 -6.70438e-06 0)
(-0.00487224 -5.92758e-06 0)
(-0.00469144 -5.29891e-06 0)
(-0.0045313 -4.78134e-06 0)
(-0.00438822 -4.34919e-06 0)
(-0.00425943 -3.98386e-06 0)
(-0.00414273 -3.67161e-06 0)
(-0.0040364 -3.40218e-06 0)
(-0.00393902 -3.16767e-06 0)
(-0.00384944 -2.96205e-06 0)
(-0.0037667 -2.78048e-06 0)
(-0.00368999 -2.61918e-06 0)
(-0.00361866 -2.47503e-06 0)
(-0.00355212 -2.34557e-06 0)
(-0.00348989 -2.22865e-06 0)
(-0.00343155 -2.12266e-06 0)
(-0.00337674 -2.02604e-06 0)
(-0.00332515 -1.93773e-06 0)
(-0.0032765 -1.85652e-06 0)
(-0.00323055 -1.78184e-06 0)
(-0.0031871 -1.71248e-06 0)
(-0.00314595 -1.64859e-06 0)
(-0.00310696 -1.58819e-06 0)
(-0.00306993 -1.53296e-06 0)
(-0.00303482 -1.4789e-06 0)
(-0.00300142 -1.43031e-06 0)
(-0.00296973 -1.37952e-06 0)
(-0.00293962 -1.33401e-06 0)
(-0.00291096 -1.28229e-06 0)
(-0.00288412 -1.22994e-06 0)
(-0.00285808 -1.17131e-06 0)
(-0.00283521 -1.08258e-06 0)
(-0.00281123 -1.00788e-06 0)
(-0.00279484 -7.98785e-07 0)
(-0.00277198 -6.95158e-07 0)
(-0.0027693 -1.10437e-07 0)
(-0.00274526 -1.9087e-08 0)
(-0.00277774 2.01205e-06 0)
(-0.00274699 -3.32496e-06 0)
(-0.00270881 0.000193515 0)
(-4.65765e-06 6.11567e-06 0)
(-3.94566e-06 2.60773e-05 0)
(-9.22189e-07 4.25202e-05 0)
(2.52154e-06 6.00974e-05 0)
(4.91946e-06 7.72341e-05 0)
(-9.37512e-07 0.000100891 0)
(-2.94804e-05 0.000157532 0)
(-0.000101984 0.000285726 0)
(-0.000206461 0.000519638 0)
(-0.000263592 0.000826775 0)
(-0.000233838 0.00109828 0)
(-0.000167685 0.00127814 0)
(-0.000105161 0.0013801 0)
(-4.52093e-05 0.00141625 0)
(1.25476e-05 0.00138931 0)
(6.57319e-05 0.00130561 0)
(0.00011519 0.00116743 0)
(0.000159003 0.000980421 0)
(0.000194971 0.000754216 0)
(0.000223652 0.000501176 0)
(0.000247288 0.000225605 0)
(0.000252779 -7.32058e-05 0)
(0.000244875 -0.000360686 0)
(0.000233294 -0.000634487 0)
(0.000218435 -0.000894415 0)
(0.000200961 -0.00113665 0)
(0.000181987 -0.00135888 0)
(0.000162489 -0.00156025 0)
(0.00014318 -0.00174093 0)
(0.000124524 -0.00190165 0)
(0.000106779 -0.00204351 0)
(9.00594e-05 -0.00216773 0)
(7.43719e-05 -0.00227558 0)
(5.96656e-05 -0.00236826 0)
(4.58412e-05 -0.0024469 0)
(3.2792e-05 -0.00251249 0)
(2.03874e-05 -0.00256594 0)
(8.51182e-06 -0.00260797 0)
(-2.96829e-06 -0.00263929 0)
(-1.41883e-05 -0.00266033 0)
(-2.52898e-05 -0.00267167 0)
(-3.65876e-05 -0.00267358 0)
(-4.82081e-05 -0.0026658 0)
(-5.98255e-05 -0.00264875 0)
(-7.1399e-05 -0.00262275 0)
(-8.2905e-05 -0.00258801 0)
(-9.43055e-05 -0.00254477 0)
(-0.000105615 -0.00249328 0)
(-0.000116871 -0.00243376 0)
(-0.000128102 -0.00236639 0)
(-0.000139334 -0.00229133 0)
(-0.000150574 -0.00220872 0)
(-0.000161819 -0.00211873 0)
(-0.000173006 -0.00202151 0)
(-0.00018397 -0.0019172 0)
(-0.000194474 -0.00180601 0)
(-0.000204221 -0.00168821 0)
(-0.000212827 -0.00156419 0)
(-0.000219805 -0.00143446 0)
(-0.000224559 -0.00129974 0)
(-0.000226392 -0.00116097 0)
(-0.000224508 -0.00101933 0)
(-0.000218026 -0.000876338 0)
(-0.000205999 -0.000733843 0)
(-0.000187465 -0.000594112 0)
(-0.000161618 -0.000459882 0)
(-0.000128147 -0.000334377 0)
(-8.80114e-05 -0.000221542 0)
(-4.51442e-05 -0.000125365 0)
(-6.19694e-06 -4.57262e-05 0)
(2.73415e-05 2.26872e-05 0)
(6.36715e-05 8.04319e-05 0)
(0.000105925 0.000121268 0)
(0.00014708 0.000140707 0)
(0.000177589 0.000139999 0)
(0.000188932 0.000122867 0)
(0.000176982 9.69481e-05 0)
(0.000144116 7.00172e-05 0)
(9.44964e-05 4.65447e-05 0)
(3.55769e-05 3.20298e-05 0)
(-1.9753e-05 3.26063e-05 0)
(-5.63842e-05 4.41971e-05 0)
(-6.03201e-05 5.20861e-05 0)
(-4.43512e-05 4.69401e-05 0)
(-2.45885e-05 2.85674e-05 0)
(-8.61751e-06 7.97433e-06 0)
(4.46932e-06 -8.13567e-06 0)
(1.57641e-05 -1.92693e-05 0)
(2.48604e-05 -2.66137e-05 0)
(3.02354e-05 -3.14809e-05 0)
(3.05184e-05 -3.46864e-05 0)
(2.48488e-05 -3.56669e-05 0)
(1.40546e-05 -3.31666e-05 0)
(9.62427e-08 -2.6405e-05 0)
(-1.50191e-05 -1.53547e-05 0)
(-2.97583e-05 -2.34871e-07 0)
(-4.29923e-05 1.84924e-05 0)
(-5.40466e-05 4.02328e-05 0)
(-6.25929e-05 6.43849e-05 0)
(-6.83723e-05 9.03083e-05 0)
(-7.11014e-05 0.000117129 0)
(-7.05289e-05 0.000143706 0)
(-6.65303e-05 0.000168671 0)
(-5.92715e-05 0.000190531 0)
(-4.93614e-05 0.000207915 0)
(-3.77971e-05 0.000219873 0)
(-2.57761e-05 0.000226024 0)
(-1.44491e-05 0.000226534 0)
(-4.91736e-06 0.000222057 0)
(2.03741e-06 0.000213724 0)
(5.96502e-06 0.000202982 0)
(6.8637e-06 0.000191404 0)
(5.16677e-06 0.000180512 0)
(1.73462e-06 0.00017155 0)
(-2.27122e-06 0.000165274 0)
(-5.59639e-06 0.000161845 0)
(-7.10312e-06 0.000160853 0)
(-5.92408e-06 0.000161418 0)
(-1.54715e-06 0.000162349 0)
(6.16785e-06 0.000162311 0)
(1.70224e-05 0.000159991 0)
(3.05226e-05 0.000154255 0)
(4.59009e-05 0.000144277 0)
(6.20979e-05 0.000129701 0)
(7.77772e-05 0.000110816 0)
(9.14069e-05 8.86971e-05 0)
(0.000101387 6.54028e-05 0)
(0.000106099 4.43133e-05 0)
(0.000105195 3.03475e-05 0)
(0.000100557 2.73012e-05 0)
(9.4291e-05 3.4838e-05 0)
(8.50581e-05 4.82996e-05 0)
(6.59868e-05 6.17614e-05 0)
(2.57404e-05 7.24612e-05 0)
(-4.71379e-05 8.64781e-05 0)
(-0.000155711 0.000121969 0)
(-0.000282281 0.000200197 0)
(-0.000395963 0.000328116 0)
(-0.000471196 0.000485983 0)
(-0.00050313 0.000642538 0)
(-0.000504484 0.000780128 0)
(-0.000489564 0.000898021 0)
(-0.000467028 0.00100155 0)
(-0.000440897 0.00109446 0)
(-0.000412995 0.00117858 0)
(-0.000384171 0.00125478 0)
(-0.000354818 0.00132352 0)
(-0.00032514 0.00138507 0)
(-0.000295266 0.0014396 0)
(-0.000265273 0.00148725 0)
(-0.000235269 0.0015281 0)
(-0.000205419 0.00156234 0)
(-0.000175829 0.00159015 0)
(-0.00014661 0.00161173 0)
(-0.000117884 0.00162726 0)
(-8.97816e-05 0.00163697 0)
(-6.2406e-05 0.00164113 0)
(-3.60566e-05 0.00163997 0)
(-1.09498e-05 0.00163408 0)
(1.32434e-05 0.00162396 0)
(3.6655e-05 0.00160972 0)
(5.92363e-05 0.00159166 0)
(8.10644e-05 0.00156997 0)
(0.000102198 0.00154492 0)
(0.000122737 0.00151671 0)
(0.000142789 0.00148553 0)
(0.000162472 0.00145154 0)
(0.000181908 0.00141485 0)
(0.000201217 0.00137557 0)
(0.000220509 0.00133374 0)
(0.00023988 0.0012894 0)
(0.000259401 0.00124254 0)
(0.000279111 0.00119314 0)
(0.000299013 0.00114114 0)
(0.000319061 0.00108649 0)
(0.000339158 0.00102912 0)
(0.000359149 0.000968959 0)
(0.000378813 0.000905948 0)
(0.000397858 0.000840045 0)
(0.000415911 0.000771236 0)
(0.000432519 0.000699557 0)
(0.000447148 0.000625113 0)
(0.000459189 0.000548098 0)
(0.000467972 0.00046882 0)
(0.000472777 0.000387724 0)
(0.000472872 0.000305416 0)
(0.000467542 0.000222672 0)
(0.00045615 0.000140449 0)
(0.000438206 5.98543e-05 0)
(0.000413143 -1.79281e-05 0)
(0.000380563 -9.16055e-05 0)
(0.000340494 -0.000160164 0)
(0.000292646 -0.000223295 0)
(0.000236096 -0.000281883 0)
(0.000169011 -0.000339277 0)
(8.71306e-05 -0.000403716 0)
(-2.10425e-05 -0.000491939 0)
(-0.000179759 -0.000631954 0)
(-0.000419933 -0.000858731 0)
(-0.000745813 -0.00118821 0)
(5.15875e-06 1.0594e-05 0)
(-1.72702e-05 2.62402e-05 0)
(-4.72881e-05 2.59074e-05 0)
(-6.76464e-05 1.6927e-05 0)
(-7.8426e-05 4.22807e-06 0)
(-7.72539e-05 -1.15295e-05 0)
(-6.31681e-05 -2.79398e-05 0)
(-3.72793e-05 -4.19436e-05 0)
(-2.3356e-06 -5.14602e-05 0)
(3.82099e-05 -5.61691e-05 0)
(8.11272e-05 -5.69362e-05 0)
(0.000123745 -5.48129e-05 0)
(0.000164535 -5.05886e-05 0)
(0.000202376 -4.50041e-05 0)
(0.000236203 -3.82546e-05 0)
(0.000265155 -3.04124e-05 0)
(0.000288736 -2.14749e-05 0)
(0.000306486 -1.10274e-05 0)
(0.00031719 1.76209e-06 0)
(0.000318661 1.66985e-05 0)
(0.000308417 3.09846e-05 0)
(0.000285893 4.17766e-05 0)
(0.000253194 4.88214e-05 0)
(0.000213174 5.37599e-05 0)
(0.000166991 5.67197e-05 0)
(0.000117619 5.41801e-05 0)
(7.03265e-05 4.14411e-05 0)
(3.00098e-05 1.47642e-05 0)
(1.3077e-06 -7.13557e-06 0)
(-2.38494e-05 7.84977e-06 0)
(-4.55239e-05 5.9136e-05 0)
(-5.80544e-05 0.000139913 0)
(-7.13726e-05 0.000203207 0)
(-8.96918e-05 0.000191327 0)
(-8.06163e-05 7.7077e-05 0)
(2.09338e-05 -0.000125273 0)
(0.000216977 -0.000289478 0)
(0.000453241 -0.00031004 0)
(0.000609703 -0.000220904 0)
(0.000682541 -0.000145581 0)
(0.000730912 -0.000104354 0)
(0.000765884 -7.50826e-05 0)
(0.000789484 -5.60738e-05 0)
(0.000806794 -4.36153e-05 0)
(0.000819015 -3.39872e-05 0)
(0.000826661 -2.59308e-05 0)
(0.000829433 -1.84324e-05 0)
(0.000827013 -1.02781e-05 0)
(0.000818113 -3.99388e-07 0)
(0.000801276 1.12843e-05 0)
(0.000775173 2.50696e-05 0)
(0.000738169 4.1106e-05 0)
(0.000688518 5.93972e-05 0)
(0.000624394 7.98827e-05 0)
(0.000543945 0.00010244 0)
(0.000445395 0.000126883 0)
(0.000327198 0.000152997 0)
(0.000188013 0.000180721 0)
(2.5296e-05 0.000211325 0)
(-0.000168833 0.000243436 0)
(-0.000386041 0.000268615 0)
(-0.00060849 0.000283873 0)
(-0.000841686 0.000294362 0)
(-0.00108636 0.000299045 0)
(-0.0013355 0.000295587 0)
(-0.00158062 0.000282945 0)
(-0.00181315 0.000261191 0)
(-0.00202526 0.000231411 0)
(-0.00221053 0.000195243 0)
(-0.00236528 0.000155133 0)
(-0.0024879 0.000113879 0)
(-0.00257957 7.38315e-05 0)
(-0.00264233 3.64704e-05 0)
(-0.00268017 2.19555e-06 0)
(-0.00269578 -3.13647e-05 0)
(-0.00269055 -6.71442e-05 0)
(-0.00266259 -0.000113611 0)
(-0.00260248 -0.000180434 0)
(-0.00249881 -0.000274074 0)
(-0.00232987 -0.000418675 0)
(-0.00205581 -0.000596134 0)
(-0.0016591 -0.000857418 0)
(-0.000868052 -0.00101743 0)
(-1.27073e-05 -0.000604637 0)
(0.000367466 -3.73683e-05 0)
(0.000478211 0.000192428 0)
(0.000505001 0.000242086 0)
(0.000465774 4.03306e-05 0)
(0.000425437 -9.91699e-05 0)
(0.000529999 -0.000117435 0)
(0.000640114 -0.000103787 0)
(0.000715283 -6.47913e-05 0)
(0.000728053 6.57327e-06 0)
(0.000673347 7.34933e-05 0)
(0.00056544 0.000124707 0)
(0.000424738 0.000144911 0)
(0.00028896 0.000133462 0)
(0.000179141 0.00011386 0)
(8.87796e-05 9.72874e-05 0)
(-2.67183e-06 7.24093e-05 0)
(6.50464e-05 3.31171e-05 0)
(6.93522e-05 0.000141491 0)
(7.63556e-05 0.000246981 0)
(6.73552e-05 0.00035382 0)
(3.44883e-05 0.000417511 0)
(-6.32368e-06 0.000416389 0)
(-3.74569e-05 0.000363199 0)
(-5.59957e-05 0.000282545 0)
(-6.34692e-05 0.000193269 0)
(-6.11544e-05 0.000111317 0)
(-5.27978e-05 5.06862e-05 0)
(-4.27787e-05 2.20097e-05 0)
(-2.04519e-05 2.54513e-05 0)
(2.60856e-05 7.24555e-05 0)
(7.83817e-05 0.000173584 0)
(9.73682e-05 0.000301805 0)
(5.69329e-05 0.000388487 0)
(-1.85521e-05 0.000381067 0)
(-8.41394e-05 0.000284734 0)
(-0.000114439 0.000139681 0)
(-0.000106964 -6.73019e-06 0)
(-7.78752e-05 -0.000108966 0)
(-5.835e-05 -0.000170708 0)
(-5.42213e-05 -0.000226847 0)
(-5.8838e-05 -0.000290322 0)
(-6.7468e-05 -0.000366422 0)
(-7.33846e-05 -0.000455692 0)
(-6.94596e-05 -0.000551434 0)
(-4.89045e-05 -0.000638224 0)
(-1.14025e-05 -0.000695436 0)
(3.63499e-05 -0.000708899 0)
(8.64169e-05 -0.000674215 0)
(0.000127318 -0.000598543 0)
(0.000151998 -0.000496191 0)
(0.000155865 -0.000384671 0)
(0.000143773 -0.000275691 0)
(0.000117949 -0.000170272 0)
(7.75256e-05 -6.89221e-05 0)
(4.15058e-05 1.90191e-05 0)
(4.32188e-05 8.50807e-05 0)
(9.05771e-05 0.000151229 0)
(0.000147159 0.00021884 0)
(0.000177049 0.000238891 0)
(0.000202813 0.000239473 0)
(0.00017353 0.000324243 0)
(-2.80583e-05 0.000421029 0)
(-0.000286047 0.000394368 0)
(-0.000425107 0.000276018 0)
(-0.000425627 0.000155414 0)
(-0.000317595 8.35525e-05 0)
(-0.000127436 9.53645e-05 0)
(9.18988e-05 0.000190453 0)
(0.000255117 0.000360566 0)
(0.000278357 0.000525624 0)
(0.000173948 0.000599688 0)
(1.0588e-05 0.000651862 0)
(-0.00021056 0.000803464 0)
(-0.00046359 0.000971155 0)
(-0.000524113 0.0010334 0)
(-0.000173829 0.0012282 0)
(0.000996132 0.00166398 0)
(0.00166179 0.00210885 0)
(0.0015751 0.00344362 0)
(0.000530873 0.00390417 0)
(0.000169716 0.00355837 0)
(0.000402774 0.00364551 0)
(0.000290206 0.00393274 0)
(7.81734e-05 0.00395664 0)
(0.000125262 0.00394263 0)
(0.000135252 0.00404 0)
(5.11684e-05 0.00407879 0)
(4.6227e-05 0.00406755 0)
(5.74955e-05 0.00409329 0)
(2.58628e-05 0.00411003 0)
(1.34511e-05 0.00409899 0)
(1.61712e-05 0.00409663 0)
(3.24237e-06 0.00409453 0)
(-6.93441e-06 0.00407949 0)
(-8.88975e-06 0.00406445 0)
(-1.50923e-05 0.00404997 0)
(-2.18971e-05 0.00403016 0)
(-2.49693e-05 0.00400842 0)
(-2.82538e-05 0.00398691 0)
(-3.20704e-05 0.00396354 0)
(-3.42169e-05 0.00393889 0)
(-3.54923e-05 0.00391445 0)
(-3.66456e-05 0.00388991 0)
(-3.69497e-05 0.00386522 0)
(-3.63751e-05 0.00384109 0)
(-3.54083e-05 0.00381769 0)
(-3.40328e-05 0.0037949 0)
(-3.22342e-05 0.00377286 0)
(-3.03085e-05 0.00375164 0)
(-2.84701e-05 0.00373101 0)
(-2.6832e-05 0.00371081 0)
(-2.55886e-05 0.00369084 0)
(-2.49298e-05 0.00367082 0)
(-2.49538e-05 0.00365043 0)
(-2.57199e-05 0.0036294 0)
(-2.72521e-05 0.00360747 0)
(-2.94979e-05 0.00358442 0)
(-3.23394e-05 0.00356009 0)
(-3.56186e-05 0.00353442 0)
(-3.91417e-05 0.00350744 0)
(-4.26929e-05 0.00347923 0)
(-4.60593e-05 0.00345 0)
(-4.90483e-05 0.00342 0)
(-5.14986e-05 0.00338951 0)
(-5.32906e-05 0.00335887 0)
(-5.43519e-05 0.00332842 0)
(-5.46561e-05 0.00329845 0)
(-5.42186e-05 0.00326928 0)
(-5.30902e-05 0.00324113 0)
(-5.13485e-05 0.00321423 0)
(-4.90889e-05 0.00318871 0)
(-4.64167e-05 0.00316468 0)
(-4.34397e-05 0.0031422 0)
(-4.02625e-05 0.00312128 0)
(-3.69823e-05 0.0031019 0)
(-3.3686e-05 0.00308402 0)
(-3.04488e-05 0.00306757 0)
(-2.7333e-05 0.00305245 0)
(-2.43881e-05 0.00303858 0)
(-2.16511e-05 0.00302584 0)
(-1.91467e-05 0.00301414 0)
(-1.68882e-05 0.00300336 0)
(-1.48788e-05 0.00299341 0)
(-1.31127e-05 0.00298418 0)
(-1.15766e-05 0.00297557 0)
(-1.02519e-05 0.00296751 0)
(-9.11669e-06 0.00295992 0)
(-8.14792e-06 0.00295272 0)
(-7.32402e-06 0.00294585 0)
(-6.62713e-06 0.00293924 0)
(-6.04535e-06 0.00293285 0)
(-5.57479e-06 0.00292661 0)
(-5.22205e-06 0.00292046 0)
(-5.00672e-06 0.00291434 0)
(-4.96413e-06 0.00290818 0)
(-5.14804e-06 0.0029019 0)
(-5.63325e-06 0.00289542 0)
(-6.51748e-06 0.00288862 0)
(-7.92236e-06 0.00288139 0)
(-9.99249e-06 0.00287359 0)
(-1.28923e-05 0.00286506 0)
(-1.67999e-05 0.00285561 0)
(-2.18987e-05 0.00284503 0)
(-2.83649e-05 0.00283307 0)
(-3.63544e-05 0.00281949 0)
(-4.59884e-05 0.002804 0)
(-5.73403e-05 0.00278631 0)
(-7.04269e-05 0.00276613 0)
(-8.52043e-05 0.00274321 0)
(-0.000101572 0.00271731 0)
(-0.000119383 0.00268823 0)
(-0.000138458 0.00265582 0)
(-0.000158604 0.00262001 0)
(-0.000179632 0.00258075 0)
(-0.000201376 0.00253803 0)
(-0.000223706 0.00249191 0)
(-0.000246536 0.00244242 0)
(-0.000269827 0.00238963 0)
(-0.000293586 0.00233358 0)
(-0.000317868 0.00227432 0)
(-0.000342767 0.00221188 0)
(-0.000368416 0.00214625 0)
(-0.000394978 0.00207743 0)
(-0.000422645 0.00200536 0)
(-0.000451634 0.00193 0)
(-0.000482194 0.00185128 0)
(-0.000514601 0.00176912 0)
(-0.000549163 0.0016834 0)
(-0.00058623 0.00159402 0)
(-0.000626205 0.00150082 0)
(-0.000669516 0.00140357 0)
(-0.000716626 0.00130198 0)
(-0.000768093 0.00119563 0)
(-0.000824478 0.00108399 0)
(-0.000886225 0.000966452 0)
(-0.000953738 0.000842351 0)
(-0.0010273 0.000711075 0)
(-0.00110687 0.000572194 0)
(-0.00119543 0.000425701 0)
(-0.00129368 0.000269734 0)
(-0.00139797 0.00010423 0)
(-0.00151042 -6.94169e-05 0)
(-0.00163486 -0.00025209 0)
(-0.00177161 -0.000444315 0)
(-0.00192209 -0.000646704 0)
(-0.00208812 -0.000859616 0)
(-0.00227216 -0.00108497 0)
(-0.00247589 -0.00132089 0)
(-0.0027044 -0.00157614 0)
(-0.00295533 -0.00183354 0)
(-0.00324566 -0.0021385 0)
(-0.0035476 -0.00239244 0)
(-0.00393125 -0.00281527 0)
(-0.00424013 -0.00293987 0)
(-0.00475475 -0.00372028 0)
(-0.00467537 -0.00315365 0)
)
;
    }
    frontAndBack
    {
        type            empty;
    }
}


// ************************************************************************* //
