/*--------------------------------*- C++ -*----------------------------------*\
  =========                 |
  \\      /  F ield         | OpenFOAM: The Open Source CFD Toolbox
   \\    /   O peration     | Website:  https://openfoam.org
    \\  /    A nd           | Version:  7
     \\/     M anipulation  |
\*---------------------------------------------------------------------------*/
FoamFile
{
    version     2.0;
    format      ascii;
    class       volScalarField;
    location    "0.04";
    object      k;
}
// * * * * * * * * * * * * * * * * * * * * * * * * * * * * * * * * * * * * * //

dimensions      [0 2 -2 0 0 0 0];

internalField   nonuniform List<scalar> 
70000
(
1.08549e-05
4.21875e-06
2.82429e-06
2.31681e-06
1.99746e-06
1.75725e-06
1.5652e-06
1.40848e-06
1.2776e-06
1.16707e-06
1.07203e-06
9.90182e-07
9.18524e-07
8.55999e-07
8.00497e-07
7.51554e-07
7.07577e-07
6.68415e-07
6.32875e-07
6.00959e-07
5.7178e-07
5.45374e-07
5.2109e-07
4.98955e-07
4.78491e-07
4.59724e-07
4.42277e-07
4.26208e-07
4.1116e-07
3.97301e-07
3.84174e-07
3.72167e-07
3.60577e-07
3.50162e-07
3.39788e-07
3.30782e-07
3.21346e-07
3.13626e-07
3.0488e-07
2.98379e-07
2.90094e-07
2.84801e-07
2.76713e-07
2.72743e-07
2.64566e-07
2.63402e-07
2.55449e-07
2.67024e-07
2.55905e-07
2.76622e-07
1.72794e-05
1.13672e-05
8.52035e-06
7.01041e-06
6.03705e-06
5.31115e-06
4.73148e-06
4.25817e-06
3.86287e-06
3.52903e-06
3.24203e-06
2.99483e-06
2.77842e-06
2.58953e-06
2.42189e-06
2.27399e-06
2.14114e-06
2.02276e-06
1.91538e-06
1.81889e-06
1.73072e-06
1.65086e-06
1.57747e-06
1.51053e-06
1.44867e-06
1.3919e-06
1.33915e-06
1.29055e-06
1.24504e-06
1.20313e-06
1.16341e-06
1.12711e-06
1.09203e-06
1.06055e-06
1.02914e-06
1.00193e-06
9.73342e-07
9.50034e-07
9.23531e-07
9.039e-07
8.78802e-07
8.62809e-07
8.38315e-07
8.26309e-07
8.01586e-07
7.96245e-07
7.73473e-07
7.96703e-07
7.7434e-07
8.00028e-07
1.937e-05
1.61297e-05
1.32908e-05
1.12896e-05
9.82822e-06
8.69629e-06
7.77822e-06
7.02118e-06
6.38425e-06
5.84364e-06
5.37722e-06
4.97425e-06
4.62063e-06
4.31124e-06
4.0362e-06
3.79299e-06
3.57429e-06
3.37898e-06
3.20175e-06
3.04214e-06
2.89632e-06
2.76398e-06
2.64239e-06
2.53124e-06
2.42859e-06
2.33422e-06
2.24654e-06
2.16567e-06
2.0899e-06
2.02011e-06
1.95391e-06
1.89344e-06
1.83489e-06
1.78245e-06
1.72995e-06
1.68462e-06
1.6368e-06
1.59793e-06
1.55362e-06
1.52081e-06
1.4789e-06
1.45206e-06
1.41123e-06
1.3911e-06
1.34998e-06
1.33828e-06
1.30073e-06
1.3221e-06
1.29991e-06
1.31255e-06
1.9861e-05
1.82601e-05
1.60854e-05
1.42004e-05
1.26398e-05
1.1349e-05
1.02605e-05
9.33911e-06
8.54709e-06
7.86472e-06
7.2695e-06
6.75066e-06
6.292e-06
5.88804e-06
5.52702e-06
5.2059e-06
4.91603e-06
4.65585e-06
4.41919e-06
4.20513e-06
4.00928e-06
3.83083e-06
3.66671e-06
3.51615e-06
3.37699e-06
3.24867e-06
3.12933e-06
3.01901e-06
2.91554e-06
2.82011e-06
2.72943e-06
2.64658e-06
2.56618e-06
2.49421e-06
2.42197e-06
2.35962e-06
2.29376e-06
2.24012e-06
2.17914e-06
2.13358e-06
2.07608e-06
2.03841e-06
1.98271e-06
1.95369e-06
1.89788e-06
1.87845e-06
1.82656e-06
1.83534e-06
1.82555e-06
1.81565e-06
1.99706e-05
1.7846e-05
1.60747e-05
1.47668e-05
1.36023e-05
1.25379e-05
1.1569e-05
1.07022e-05
9.92046e-06
9.22575e-06
8.60504e-06
8.05315e-06
7.55696e-06
7.11369e-06
6.71253e-06
6.35136e-06
6.02232e-06
5.72414e-06
5.45128e-06
5.20252e-06
4.97393e-06
4.76417e-06
4.5706e-06
4.39191e-06
4.22633e-06
4.0728e-06
3.92967e-06
3.79678e-06
3.67188e-06
3.5563e-06
3.44624e-06
3.34543e-06
3.24741e-06
3.15943e-06
3.07108e-06
2.99445e-06
2.91382e-06
2.84739e-06
2.77286e-06
2.71575e-06
2.64583e-06
2.59769e-06
2.5306e-06
2.49199e-06
2.42545e-06
2.39789e-06
2.33543e-06
2.32515e-06
2.31552e-06
2.28836e-06
2.00095e-05
1.47039e-05
1.37479e-05
1.32115e-05
1.25914e-05
1.19276e-05
1.12776e-05
1.06579e-05
1.00801e-05
9.54675e-06
9.04555e-06
8.57992e-06
8.14594e-06
7.74656e-06
7.37505e-06
7.03249e-06
6.7146e-06
6.42155e-06
6.15011e-06
5.89914e-06
5.66627e-06
5.44994e-06
5.24879e-06
5.06113e-06
4.88622e-06
4.72249e-06
4.5691e-06
4.42563e-06
4.29029e-06
4.16422e-06
4.04388e-06
3.93289e-06
3.82492e-06
3.72716e-06
3.62935e-06
3.54332e-06
3.45391e-06
3.3783e-06
3.29586e-06
3.22961e-06
3.15283e-06
3.09538e-06
3.02272e-06
2.97437e-06
2.90344e-06
2.86654e-06
2.80201e-06
2.76928e-06
2.75402e-06
2.71142e-06
2.01332e-05
1.54667e-05
9.63463e-06
9.39865e-06
9.49326e-06
9.49264e-06
9.43398e-06
9.29594e-06
9.05477e-06
8.78159e-06
8.48621e-06
8.18939e-06
7.89725e-06
7.61426e-06
7.33742e-06
7.07655e-06
6.82969e-06
6.59497e-06
6.37225e-06
6.16051e-06
5.96005e-06
5.76955e-06
5.58969e-06
5.41885e-06
5.25768e-06
5.10423e-06
4.95937e-06
4.82213e-06
4.69195e-06
4.56917e-06
4.45159e-06
4.34169e-06
4.23489e-06
4.13649e-06
4.03895e-06
3.95079e-06
3.86133e-06
3.78221e-06
3.69991e-06
3.62866e-06
3.55273e-06
3.48862e-06
3.41819e-06
3.36092e-06
3.29471e-06
3.24488e-06
3.18859e-06
3.13791e-06
3.1173e-06
3.06167e-06
2.01713e-05
1.86755e-05
8.68988e-06
5.54031e-06
5.63074e-06
5.93501e-06
6.29292e-06
6.57847e-06
6.75758e-06
6.86644e-06
6.88561e-06
6.86622e-06
6.81398e-06
6.72543e-06
6.61487e-06
6.49271e-06
6.35537e-06
6.21289e-06
6.07094e-06
5.92819e-06
5.78828e-06
5.6501e-06
5.5165e-06
5.38594e-06
5.26003e-06
5.13915e-06
5.02404e-06
4.91241e-06
4.80543e-06
4.70213e-06
4.60268e-06
4.50739e-06
4.41504e-06
4.32727e-06
4.24168e-06
4.16075e-06
4.08168e-06
4.00676e-06
3.93389e-06
3.86404e-06
3.79744e-06
3.73197e-06
3.67157e-06
3.60972e-06
3.55525e-06
3.4967e-06
3.45212e-06
3.39211e-06
3.36963e-06
3.30849e-06
2.01672e-05
1.97238e-05
1.6166e-05
4.85994e-06
3.04245e-06
3.10588e-06
3.37486e-06
3.80496e-06
4.17037e-06
4.48823e-06
4.73519e-06
4.92457e-06
5.06483e-06
5.16477e-06
5.2232e-06
5.25887e-06
5.26232e-06
5.25355e-06
5.23174e-06
5.19202e-06
5.14494e-06
5.08866e-06
5.0291e-06
4.96352e-06
4.89697e-06
4.82592e-06
4.75457e-06
4.68125e-06
4.60946e-06
4.53717e-06
4.46691e-06
4.39688e-06
4.32922e-06
4.26188e-06
4.19758e-06
4.13287e-06
4.07262e-06
4.01023e-06
3.95511e-06
3.89529e-06
3.84523e-06
3.78678e-06
3.7419e-06
3.68417e-06
3.64466e-06
3.58736e-06
3.55509e-06
3.49613e-06
3.47537e-06
3.41906e-06
2.01477e-05
1.99342e-05
1.90652e-05
1.44968e-05
5.24098e-06
2.15447e-06
1.91452e-06
1.99387e-06
2.20732e-06
2.50591e-06
2.7814e-06
3.03429e-06
3.25875e-06
3.45499e-06
3.61846e-06
3.75613e-06
3.86761e-06
3.9553e-06
4.02687e-06
4.07843e-06
4.11748e-06
4.14076e-06
4.15647e-06
4.1588e-06
4.15587e-06
4.14754e-06
4.13364e-06
4.1132e-06
4.09085e-06
4.06348e-06
4.03536e-06
4.00333e-06
3.97176e-06
3.93641e-06
3.90333e-06
3.86553e-06
3.83255e-06
3.793e-06
3.76031e-06
3.71849e-06
3.68731e-06
3.64421e-06
3.61548e-06
3.57136e-06
3.54543e-06
3.50053e-06
3.47761e-06
3.43062e-06
3.41434e-06
3.37426e-06
2.01217e-05
1.9966e-05
1.96422e-05
1.85456e-05
1.52105e-05
8.35612e-06
3.10417e-06
1.63303e-06
1.44241e-06
1.44945e-06
1.5264e-06
1.68723e-06
1.86913e-06
2.04552e-06
2.21546e-06
2.37388e-06
2.52108e-06
2.65121e-06
2.76972e-06
2.87231e-06
2.96432e-06
3.04174e-06
3.11038e-06
3.16673e-06
3.21529e-06
3.25439e-06
3.28821e-06
3.31336e-06
3.33463e-06
3.34887e-06
3.36013e-06
3.36601e-06
3.3692e-06
3.36836e-06
3.36601e-06
3.3599e-06
3.35436e-06
3.34267e-06
3.33516e-06
3.31978e-06
3.31067e-06
3.29224e-06
3.28193e-06
3.26118e-06
3.24997e-06
3.22745e-06
3.21555e-06
3.18978e-06
3.18083e-06
3.16018e-06
2.00982e-05
1.99327e-05
1.97571e-05
1.93521e-05
1.85055e-05
1.65354e-05
1.23259e-05
6.85866e-06
2.98689e-06
1.4934e-06
1.24317e-06
1.14761e-06
1.15179e-06
1.1942e-06
1.2866e-06
1.39275e-06
1.50546e-06
1.6143e-06
1.72459e-06
1.82853e-06
1.9289e-06
2.02094e-06
2.10808e-06
2.18667e-06
2.26044e-06
2.32579e-06
2.38705e-06
2.44047e-06
2.49041e-06
2.53324e-06
2.5733e-06
2.60691e-06
2.63867e-06
2.66412e-06
2.68915e-06
2.7075e-06
2.72719e-06
2.73965e-06
2.75461e-06
2.7624e-06
2.77327e-06
2.77743e-06
2.78446e-06
2.78603e-06
2.78921e-06
2.78885e-06
2.78845e-06
2.78488e-06
2.78469e-06
2.78127e-06
2.00782e-05
1.98875e-05
1.97567e-05
1.94605e-05
1.91454e-05
1.86406e-05
1.7555e-05
1.54259e-05
1.17416e-05
7.44732e-06
3.98426e-06
1.91538e-06
1.20903e-06
1.05727e-06
9.82184e-07
9.42475e-07
9.53611e-07
9.87235e-07
1.04962e-06
1.11284e-06
1.18222e-06
1.25143e-06
1.32238e-06
1.39177e-06
1.46096e-06
1.526e-06
1.59e-06
1.6491e-06
1.70695e-06
1.75966e-06
1.81126e-06
1.85748e-06
1.90301e-06
1.9429e-06
1.98277e-06
2.01683e-06
2.0514e-06
2.0804e-06
2.11011e-06
2.13461e-06
2.15992e-06
2.18048e-06
2.20182e-06
2.21874e-06
2.23668e-06
2.25008e-06
2.26502e-06
2.27474e-06
2.28654e-06
2.29617e-06
2.00614e-05
1.98538e-05
1.97341e-05
1.94707e-05
1.92547e-05
1.90465e-05
1.87355e-05
1.81906e-05
1.70976e-05
1.52345e-05
1.25705e-05
9.24041e-06
5.97867e-06
3.48359e-06
1.88459e-06
1.16907e-06
9.65039e-07
8.90976e-07
8.36659e-07
7.96299e-07
7.98053e-07
8.1147e-07
8.41217e-07
8.79613e-07
9.19843e-07
9.61943e-07
1.00684e-06
1.05118e-06
1.09758e-06
1.14243e-06
1.18813e-06
1.23112e-06
1.27457e-06
1.31493e-06
1.35562e-06
1.39306e-06
1.43067e-06
1.46517e-06
1.49963e-06
1.53104e-06
1.56234e-06
1.59073e-06
1.619e-06
1.64436e-06
1.66969e-06
1.69238e-06
1.71427e-06
1.73491e-06
1.7522e-06
1.77286e-06
2.00476e-05
1.98303e-05
1.97075e-05
1.94485e-05
1.92716e-05
1.91144e-05
1.89648e-05
1.87501e-05
1.84623e-05
1.7913e-05
1.70792e-05
1.57041e-05
1.38889e-05
1.15414e-05
8.8648e-06
6.2568e-06
4.08456e-06
2.51022e-06
1.50972e-06
1.03258e-06
8.63384e-07
7.99381e-07
7.51247e-07
7.11178e-07
6.81717e-07
6.78961e-07
6.84824e-07
6.99044e-07
7.21197e-07
7.44915e-07
7.70483e-07
7.96618e-07
8.25025e-07
8.53495e-07
8.83383e-07
9.13054e-07
9.43274e-07
9.72827e-07
1.00238e-06
1.03095e-06
1.05934e-06
1.08673e-06
1.11373e-06
1.13962e-06
1.16498e-06
1.18955e-06
1.2126e-06
1.23596e-06
1.25583e-06
1.27836e-06
2.00363e-05
1.98124e-05
1.9685e-05
1.94181e-05
1.92575e-05
1.9108e-05
1.89998e-05
1.88488e-05
1.8712e-05
1.85007e-05
1.82484e-05
1.78338e-05
1.72342e-05
1.63654e-05
1.51671e-05
1.36341e-05
1.1828e-05
9.74536e-06
7.6019e-06
5.60235e-06
3.92101e-06
2.64032e-06
1.7227e-06
1.15909e-06
8.80719e-07
7.64881e-07
7.11619e-07
6.74371e-07
6.389e-07
6.09621e-07
5.89637e-07
5.83129e-07
5.85373e-07
5.91649e-07
6.03229e-07
6.17201e-07
6.31916e-07
6.47885e-07
6.64231e-07
6.81725e-07
6.99903e-07
7.18832e-07
7.37936e-07
7.57542e-07
7.76964e-07
7.96773e-07
8.15574e-07
8.35127e-07
8.52558e-07
8.71589e-07
2.00272e-05
1.97985e-05
1.96658e-05
1.9396e-05
1.92318e-05
1.90804e-05
1.89818e-05
1.88522e-05
1.87361e-05
1.85962e-05
1.84602e-05
1.82898e-05
1.80819e-05
1.77958e-05
1.74109e-05
1.68681e-05
1.61616e-05
1.52415e-05
1.41017e-05
1.2761e-05
1.1261e-05
9.59976e-06
7.88921e-06
6.24982e-06
4.76323e-06
3.52248e-06
2.53991e-06
1.78913e-06
1.26071e-06
9.37623e-07
7.65843e-07
6.82326e-07
6.38086e-07
6.07435e-07
5.79795e-07
5.53876e-07
5.31121e-07
5.16097e-07
5.06235e-07
5.05147e-07
5.06856e-07
5.11288e-07
5.17874e-07
5.26382e-07
5.34978e-07
5.44851e-07
5.54113e-07
5.64908e-07
5.74661e-07
5.86351e-07
2.002e-05
1.97898e-05
1.96458e-05
1.93794e-05
1.92078e-05
1.90512e-05
1.89437e-05
1.88257e-05
1.87146e-05
1.85894e-05
1.8472e-05
1.83454e-05
1.82217e-05
1.80781e-05
1.79224e-05
1.77229e-05
1.748e-05
1.71606e-05
1.67573e-05
1.62351e-05
1.56004e-05
1.4821e-05
1.39063e-05
1.28498e-05
1.1697e-05
1.04435e-05
9.10821e-06
7.75696e-06
6.44139e-06
5.22524e-06
4.12832e-06
3.20922e-06
2.45464e-06
1.84649e-06
1.37782e-06
1.04252e-06
8.25593e-07
6.97287e-07
6.25227e-07
5.83882e-07
5.56123e-07
5.3354e-07
5.12894e-07
4.93372e-07
4.74824e-07
4.60691e-07
4.4909e-07
4.43037e-07
4.39129e-07
4.39857e-07
2.00145e-05
1.97897e-05
1.96196e-05
1.93659e-05
1.91873e-05
1.90242e-05
1.89078e-05
1.87892e-05
1.86747e-05
1.85535e-05
1.84416e-05
1.83235e-05
1.82124e-05
1.80928e-05
1.79801e-05
1.78573e-05
1.77338e-05
1.75903e-05
1.7432e-05
1.72372e-05
1.70081e-05
1.67235e-05
1.63823e-05
1.59638e-05
1.54704e-05
1.48907e-05
1.42247e-05
1.34626e-05
1.26258e-05
1.17057e-05
1.07476e-05
9.72578e-06
8.66624e-06
7.60208e-06
6.56385e-06
5.57496e-06
4.66592e-06
3.83934e-06
3.12811e-06
2.52477e-06
2.01585e-06
1.59509e-06
1.25753e-06
1.00093e-06
8.16211e-07
6.93045e-07
6.11834e-07
5.6409e-07
5.28476e-07
5.12554e-07
2.00102e-05
1.97936e-05
1.9593e-05
1.93518e-05
1.91686e-05
1.89985e-05
1.88744e-05
1.8753e-05
1.86348e-05
1.85105e-05
1.83958e-05
1.82772e-05
1.81676e-05
1.80545e-05
1.79478e-05
1.7838e-05
1.77314e-05
1.76219e-05
1.75147e-05
1.74026e-05
1.72857e-05
1.71578e-05
1.7016e-05
1.68533e-05
1.66651e-05
1.64464e-05
1.61904e-05
1.58924e-05
1.55461e-05
1.51503e-05
1.46976e-05
1.41967e-05
1.36317e-05
1.30181e-05
1.23455e-05
1.16375e-05
1.08807e-05
1.01125e-05
9.30599e-06
8.48223e-06
7.65361e-06
6.84057e-06
6.05122e-06
5.30515e-06
4.60358e-06
3.96753e-06
3.38188e-06
2.88169e-06
2.42128e-06
2.03729e-06
2.00071e-05
1.9801e-05
1.95684e-05
1.93383e-05
1.9151e-05
1.89744e-05
1.88425e-05
1.87184e-05
1.8596e-05
1.84689e-05
1.83493e-05
1.82289e-05
1.81151e-05
1.80004e-05
1.78911e-05
1.7782e-05
1.76781e-05
1.75755e-05
1.74742e-05
1.73764e-05
1.72758e-05
1.71789e-05
1.7079e-05
1.69812e-05
1.68758e-05
1.67715e-05
1.66519e-05
1.65292e-05
1.63848e-05
1.62325e-05
1.60508e-05
1.58562e-05
1.56279e-05
1.53784e-05
1.50917e-05
1.47801e-05
1.44264e-05
1.40482e-05
1.36285e-05
1.31812e-05
1.26948e-05
1.21827e-05
1.16371e-05
1.10771e-05
1.04883e-05
9.89784e-06
9.28929e-06
8.6855e-06
8.05217e-06
7.43912e-06
2.00047e-05
1.98096e-05
1.95453e-05
1.9325e-05
1.91337e-05
1.8952e-05
1.88116e-05
1.86852e-05
1.85585e-05
1.8429e-05
1.83044e-05
1.81816e-05
1.80632e-05
1.79466e-05
1.78329e-05
1.77223e-05
1.76133e-05
1.75095e-05
1.74047e-05
1.73077e-05
1.72078e-05
1.71172e-05
1.70226e-05
1.69351e-05
1.68425e-05
1.67589e-05
1.6665e-05
1.65816e-05
1.64889e-05
1.64041e-05
1.63066e-05
1.62143e-05
1.61097e-05
1.60016e-05
1.58815e-05
1.57552e-05
1.56093e-05
1.54596e-05
1.5285e-05
1.51019e-05
1.48964e-05
1.46749e-05
1.44304e-05
1.41743e-05
1.38877e-05
1.35904e-05
1.32707e-05
1.29361e-05
1.25777e-05
1.22076e-05
2.0003e-05
1.98187e-05
1.95238e-05
1.93113e-05
1.91165e-05
1.89312e-05
1.87819e-05
1.86531e-05
1.85225e-05
1.83909e-05
1.82614e-05
1.81362e-05
1.80134e-05
1.78946e-05
1.77766e-05
1.76637e-05
1.75508e-05
1.74446e-05
1.73359e-05
1.72368e-05
1.71323e-05
1.70387e-05
1.69412e-05
1.68514e-05
1.67578e-05
1.66763e-05
1.6587e-05
1.65091e-05
1.64245e-05
1.63502e-05
1.62676e-05
1.61942e-05
1.61151e-05
1.60381e-05
1.59619e-05
1.5887e-05
1.58047e-05
1.57301e-05
1.56432e-05
1.55592e-05
1.54686e-05
1.53708e-05
1.52676e-05
1.51626e-05
1.504e-05
1.49158e-05
1.4784e-05
1.46382e-05
1.44828e-05
1.43229e-05
2.00018e-05
1.98273e-05
1.95042e-05
1.92966e-05
1.90989e-05
1.89119e-05
1.87537e-05
1.86222e-05
1.84884e-05
1.83547e-05
1.8221e-05
1.80933e-05
1.79666e-05
1.78454e-05
1.77237e-05
1.76079e-05
1.74919e-05
1.7383e-05
1.72709e-05
1.71691e-05
1.70615e-05
1.69646e-05
1.68645e-05
1.67705e-05
1.66747e-05
1.65884e-05
1.64955e-05
1.64132e-05
1.63271e-05
1.62496e-05
1.61669e-05
1.60941e-05
1.60202e-05
1.59478e-05
1.58786e-05
1.58117e-05
1.57404e-05
1.56796e-05
1.56104e-05
1.55469e-05
1.54816e-05
1.54147e-05
1.53504e-05
1.52901e-05
1.52184e-05
1.51541e-05
1.50881e-05
1.5015e-05
1.49399e-05
1.48696e-05
2.00009e-05
1.98304e-05
1.9488e-05
1.92816e-05
1.90815e-05
1.88944e-05
1.87276e-05
1.85928e-05
1.84564e-05
1.83209e-05
1.81836e-05
1.80533e-05
1.79233e-05
1.77999e-05
1.76749e-05
1.75562e-05
1.74374e-05
1.73258e-05
1.72109e-05
1.71062e-05
1.69961e-05
1.68962e-05
1.67937e-05
1.66963e-05
1.65983e-05
1.65085e-05
1.64128e-05
1.63268e-05
1.62379e-05
1.61566e-05
1.60705e-05
1.59938e-05
1.59152e-05
1.58393e-05
1.57664e-05
1.56973e-05
1.56238e-05
1.55616e-05
1.54936e-05
1.5433e-05
1.53712e-05
1.53105e-05
1.52524e-05
1.51993e-05
1.51364e-05
1.50841e-05
1.503e-05
1.49726e-05
1.49156e-05
1.48653e-05
2.00003e-05
1.98288e-05
1.94747e-05
1.92657e-05
1.9064e-05
1.88787e-05
1.8704e-05
1.85654e-05
1.84269e-05
1.82899e-05
1.81496e-05
1.8017e-05
1.78842e-05
1.77586e-05
1.76308e-05
1.75096e-05
1.73883e-05
1.72743e-05
1.71568e-05
1.70494e-05
1.69369e-05
1.68346e-05
1.67296e-05
1.66295e-05
1.65295e-05
1.64367e-05
1.63388e-05
1.625e-05
1.61587e-05
1.60747e-05
1.59856e-05
1.59064e-05
1.58242e-05
1.5746e-05
1.56688e-05
1.5597e-05
1.55198e-05
1.54539e-05
1.53827e-05
1.53184e-05
1.52502e-05
1.5188e-05
1.5126e-05
1.50698e-05
1.50051e-05
1.49517e-05
1.48947e-05
1.48395e-05
1.47842e-05
1.47374e-05
2e-05
1.9827e-05
1.94635e-05
1.92481e-05
1.90459e-05
1.88644e-05
1.86829e-05
1.85402e-05
1.84001e-05
1.8262e-05
1.81194e-05
1.79848e-05
1.78497e-05
1.77224e-05
1.75922e-05
1.74688e-05
1.73453e-05
1.72294e-05
1.71096e-05
1.69997e-05
1.68853e-05
1.67808e-05
1.66733e-05
1.65713e-05
1.64692e-05
1.63739e-05
1.62741e-05
1.61831e-05
1.60896e-05
1.60036e-05
1.5912e-05
1.5831e-05
1.57459e-05
1.56664e-05
1.55857e-05
1.55123e-05
1.54323e-05
1.53637e-05
1.52902e-05
1.52232e-05
1.51505e-05
1.50869e-05
1.5021e-05
1.49613e-05
1.48938e-05
1.48368e-05
1.47752e-05
1.47182e-05
1.46586e-05
1.46078e-05
1.99999e-05
1.98258e-05
1.94553e-05
1.92301e-05
1.90279e-05
1.88517e-05
1.86647e-05
1.85176e-05
1.83764e-05
1.82378e-05
1.80935e-05
1.79574e-05
1.78205e-05
1.76918e-05
1.75596e-05
1.74347e-05
1.73093e-05
1.71919e-05
1.70701e-05
1.69582e-05
1.68422e-05
1.67359e-05
1.66262e-05
1.65229e-05
1.64187e-05
1.63212e-05
1.62198e-05
1.6127e-05
1.60315e-05
1.59439e-05
1.58503e-05
1.57676e-05
1.56805e-05
1.55998e-05
1.55166e-05
1.54417e-05
1.53598e-05
1.52894e-05
1.52141e-05
1.51453e-05
1.50697e-05
1.50051e-05
1.49365e-05
1.48746e-05
1.48049e-05
1.47452e-05
1.46802e-05
1.46223e-05
1.45595e-05
1.45059e-05
1.99999e-05
1.98251e-05
1.94501e-05
1.92127e-05
1.90108e-05
1.88411e-05
1.86501e-05
1.84987e-05
1.83563e-05
1.82179e-05
1.80726e-05
1.79355e-05
1.77973e-05
1.76676e-05
1.75339e-05
1.7408e-05
1.72812e-05
1.71626e-05
1.70394e-05
1.69258e-05
1.68087e-05
1.6701e-05
1.65894e-05
1.64852e-05
1.63792e-05
1.62799e-05
1.61772e-05
1.6083e-05
1.59857e-05
1.58969e-05
1.58016e-05
1.57175e-05
1.56288e-05
1.55471e-05
1.54619e-05
1.53858e-05
1.53026e-05
1.52307e-05
1.51538e-05
1.50837e-05
1.50064e-05
1.49407e-05
1.48702e-05
1.48071e-05
1.47356e-05
1.46741e-05
1.46069e-05
1.45483e-05
1.44835e-05
1.44279e-05
1.99999e-05
1.98249e-05
1.94476e-05
1.91969e-05
1.89951e-05
1.88324e-05
1.86397e-05
1.84838e-05
1.83405e-05
1.82028e-05
1.80572e-05
1.79198e-05
1.77808e-05
1.76505e-05
1.75158e-05
1.73895e-05
1.72617e-05
1.71424e-05
1.70183e-05
1.69036e-05
1.67857e-05
1.66769e-05
1.65642e-05
1.64594e-05
1.63518e-05
1.62513e-05
1.61475e-05
1.60523e-05
1.59536e-05
1.58637e-05
1.57672e-05
1.5682e-05
1.55921e-05
1.55095e-05
1.54228e-05
1.53456e-05
1.52616e-05
1.51886e-05
1.51102e-05
1.50393e-05
1.49609e-05
1.48941e-05
1.48222e-05
1.47582e-05
1.46853e-05
1.46224e-05
1.45538e-05
1.44947e-05
1.44285e-05
1.43713e-05
1.99999e-05
1.98251e-05
1.94477e-05
1.91836e-05
1.89814e-05
1.88254e-05
1.86335e-05
1.84735e-05
1.83293e-05
1.81928e-05
1.80477e-05
1.79105e-05
1.77713e-05
1.76408e-05
1.75059e-05
1.73798e-05
1.72515e-05
1.71319e-05
1.70073e-05
1.68923e-05
1.6774e-05
1.66646e-05
1.65513e-05
1.64462e-05
1.63375e-05
1.62363e-05
1.61317e-05
1.60361e-05
1.59362e-05
1.58456e-05
1.57483e-05
1.56624e-05
1.55715e-05
1.54882e-05
1.54005e-05
1.53227e-05
1.52381e-05
1.51643e-05
1.50846e-05
1.50132e-05
1.49341e-05
1.48665e-05
1.47935e-05
1.47287e-05
1.46546e-05
1.4591e-05
1.45214e-05
1.44618e-05
1.43945e-05
1.43358e-05
1.99999e-05
1.98257e-05
1.94501e-05
1.91731e-05
1.89697e-05
1.88198e-05
1.86314e-05
1.84679e-05
1.83227e-05
1.81878e-05
1.8044e-05
1.79078e-05
1.7769e-05
1.7639e-05
1.75046e-05
1.73793e-05
1.72512e-05
1.71317e-05
1.70074e-05
1.68925e-05
1.67743e-05
1.66649e-05
1.65515e-05
1.64464e-05
1.63372e-05
1.62359e-05
1.61309e-05
1.60352e-05
1.59344e-05
1.58437e-05
1.5746e-05
1.56597e-05
1.55681e-05
1.54846e-05
1.53964e-05
1.53182e-05
1.52333e-05
1.51589e-05
1.50783e-05
1.50067e-05
1.49273e-05
1.48591e-05
1.47853e-05
1.47199e-05
1.46449e-05
1.45808e-05
1.45107e-05
1.44506e-05
1.43822e-05
1.43223e-05
1.99999e-05
1.98268e-05
1.94551e-05
1.91664e-05
1.89605e-05
1.88158e-05
1.86332e-05
1.84673e-05
1.83211e-05
1.81881e-05
1.80462e-05
1.79114e-05
1.77732e-05
1.76441e-05
1.75106e-05
1.73864e-05
1.72589e-05
1.71399e-05
1.70161e-05
1.69019e-05
1.67841e-05
1.66752e-05
1.65621e-05
1.64574e-05
1.63481e-05
1.62471e-05
1.61419e-05
1.60466e-05
1.59455e-05
1.5855e-05
1.57572e-05
1.56709e-05
1.55791e-05
1.54955e-05
1.54074e-05
1.53292e-05
1.52442e-05
1.51696e-05
1.50887e-05
1.50172e-05
1.49378e-05
1.48693e-05
1.47951e-05
1.47294e-05
1.46539e-05
1.45898e-05
1.45194e-05
1.44591e-05
1.43899e-05
1.43292e-05
1.99999e-05
1.98284e-05
1.94622e-05
1.91632e-05
1.89541e-05
1.88129e-05
1.86386e-05
1.84712e-05
1.83238e-05
1.81927e-05
1.80532e-05
1.79206e-05
1.77838e-05
1.76564e-05
1.75247e-05
1.74025e-05
1.72761e-05
1.71583e-05
1.70358e-05
1.69229e-05
1.68062e-05
1.66985e-05
1.65863e-05
1.64826e-05
1.63737e-05
1.62736e-05
1.61688e-05
1.60742e-05
1.59731e-05
1.58833e-05
1.57858e-05
1.56998e-05
1.56082e-05
1.5525e-05
1.54372e-05
1.53594e-05
1.52745e-05
1.52002e-05
1.51192e-05
1.50481e-05
1.4969e-05
1.49006e-05
1.4826e-05
1.47601e-05
1.46844e-05
1.46204e-05
1.455e-05
1.44895e-05
1.44196e-05
1.4358e-05
1.99999e-05
1.98306e-05
1.94711e-05
1.9164e-05
1.89505e-05
1.88116e-05
1.86466e-05
1.84799e-05
1.83313e-05
1.82022e-05
1.80658e-05
1.79357e-05
1.78008e-05
1.76757e-05
1.75462e-05
1.74263e-05
1.73017e-05
1.71856e-05
1.70648e-05
1.69537e-05
1.68387e-05
1.67327e-05
1.66218e-05
1.65195e-05
1.64117e-05
1.63131e-05
1.62092e-05
1.61157e-05
1.60154e-05
1.59265e-05
1.58302e-05
1.57447e-05
1.5654e-05
1.55715e-05
1.54846e-05
1.54077e-05
1.53234e-05
1.52497e-05
1.51694e-05
1.50989e-05
1.50204e-05
1.49525e-05
1.48781e-05
1.48124e-05
1.4737e-05
1.46734e-05
1.46033e-05
1.45431e-05
1.44729e-05
1.4411e-05
1.99999e-05
1.98332e-05
1.94816e-05
1.91683e-05
1.895e-05
1.88118e-05
1.86569e-05
1.84924e-05
1.83429e-05
1.82156e-05
1.80825e-05
1.79556e-05
1.7823e-05
1.77006e-05
1.75739e-05
1.74566e-05
1.73342e-05
1.72203e-05
1.71018e-05
1.6993e-05
1.688e-05
1.67762e-05
1.66671e-05
1.65667e-05
1.64606e-05
1.63637e-05
1.62613e-05
1.61692e-05
1.60703e-05
1.59824e-05
1.5888e-05
1.58031e-05
1.57141e-05
1.56326e-05
1.55469e-05
1.54714e-05
1.53879e-05
1.53154e-05
1.52361e-05
1.51665e-05
1.50891e-05
1.50219e-05
1.4948e-05
1.48831e-05
1.48083e-05
1.47453e-05
1.46758e-05
1.46162e-05
1.45462e-05
1.44844e-05
1.99999e-05
1.98363e-05
1.9493e-05
1.91765e-05
1.89526e-05
1.88138e-05
1.86687e-05
1.85084e-05
1.83583e-05
1.82327e-05
1.81028e-05
1.79794e-05
1.78497e-05
1.77303e-05
1.76067e-05
1.74925e-05
1.73726e-05
1.72614e-05
1.71455e-05
1.70394e-05
1.6929e-05
1.68277e-05
1.67209e-05
1.66228e-05
1.65188e-05
1.64241e-05
1.63236e-05
1.62331e-05
1.61363e-05
1.60496e-05
1.59576e-05
1.58737e-05
1.57867e-05
1.57067e-05
1.56225e-05
1.55487e-05
1.54664e-05
1.53956e-05
1.53176e-05
1.52493e-05
1.51733e-05
1.51071e-05
1.50341e-05
1.49704e-05
1.48966e-05
1.48343e-05
1.47658e-05
1.47073e-05
1.46378e-05
1.45763e-05
1.99999e-05
1.98398e-05
1.95053e-05
1.91877e-05
1.89585e-05
1.88181e-05
1.86819e-05
1.85274e-05
1.83772e-05
1.8253e-05
1.81263e-05
1.80067e-05
1.78802e-05
1.77641e-05
1.76439e-05
1.75328e-05
1.74159e-05
1.73077e-05
1.71948e-05
1.70916e-05
1.69841e-05
1.68857e-05
1.67816e-05
1.66861e-05
1.65847e-05
1.64924e-05
1.63943e-05
1.63057e-05
1.62115e-05
1.61263e-05
1.60369e-05
1.59546e-05
1.58697e-05
1.57918e-05
1.57093e-05
1.56376e-05
1.55571e-05
1.54882e-05
1.54119e-05
1.53452e-05
1.52709e-05
1.5206e-05
1.51342e-05
1.50721e-05
1.49997e-05
1.49384e-05
1.4871e-05
1.4814e-05
1.47455e-05
1.46845e-05
1.99999e-05
1.98435e-05
1.9518e-05
1.92015e-05
1.89674e-05
1.88247e-05
1.86958e-05
1.85485e-05
1.8399e-05
1.8276e-05
1.81523e-05
1.80367e-05
1.79136e-05
1.78011e-05
1.76842e-05
1.75766e-05
1.74629e-05
1.7358e-05
1.72484e-05
1.71484e-05
1.70441e-05
1.69487e-05
1.68477e-05
1.67551e-05
1.66566e-05
1.6567e-05
1.64717e-05
1.63853e-05
1.62939e-05
1.62108e-05
1.61239e-05
1.60439e-05
1.59611e-05
1.5886e-05
1.58052e-05
1.57359e-05
1.56576e-05
1.55908e-05
1.55166e-05
1.54517e-05
1.53796e-05
1.53161e-05
1.52461e-05
1.51858e-05
1.51149e-05
1.5055e-05
1.49892e-05
1.49338e-05
1.48666e-05
1.48066e-05
1.99999e-05
1.98474e-05
1.9531e-05
1.92175e-05
1.89793e-05
1.88337e-05
1.87103e-05
1.85711e-05
1.84233e-05
1.83013e-05
1.81803e-05
1.80686e-05
1.79492e-05
1.78404e-05
1.7727e-05
1.76229e-05
1.75126e-05
1.74112e-05
1.73049e-05
1.72084e-05
1.71074e-05
1.70154e-05
1.69177e-05
1.68282e-05
1.67329e-05
1.66462e-05
1.65538e-05
1.64701e-05
1.63815e-05
1.63011e-05
1.62164e-05
1.61398e-05
1.60586e-05
1.59871e-05
1.59079e-05
1.58414e-05
1.57657e-05
1.57011e-05
1.56295e-05
1.55666e-05
1.54968e-05
1.54352e-05
1.5367e-05
1.53089e-05
1.52399e-05
1.51815e-05
1.51177e-05
1.50641e-05
1.49985e-05
1.49398e-05
1.99999e-05
1.98514e-05
1.95441e-05
1.92351e-05
1.8994e-05
1.88452e-05
1.87254e-05
1.85945e-05
1.84495e-05
1.83285e-05
1.82098e-05
1.81019e-05
1.79864e-05
1.78813e-05
1.77713e-05
1.76708e-05
1.75641e-05
1.74662e-05
1.73634e-05
1.72705e-05
1.7173e-05
1.70844e-05
1.69901e-05
1.69041e-05
1.68121e-05
1.67285e-05
1.66392e-05
1.65585e-05
1.64726e-05
1.63954e-05
1.6313e-05
1.624e-05
1.61606e-05
1.60927e-05
1.60156e-05
1.5952e-05
1.58792e-05
1.5817e-05
1.57482e-05
1.56875e-05
1.56203e-05
1.5561e-05
1.54946e-05
1.54388e-05
1.53723e-05
1.53154e-05
1.52537e-05
1.52025e-05
1.51388e-05
1.50814e-05
1.99999e-05
1.98555e-05
1.9557e-05
1.92541e-05
1.9011e-05
1.88588e-05
1.87412e-05
1.86184e-05
1.8477e-05
1.83572e-05
1.82404e-05
1.81361e-05
1.80245e-05
1.79231e-05
1.78165e-05
1.77196e-05
1.76164e-05
1.75221e-05
1.74229e-05
1.73335e-05
1.72396e-05
1.71546e-05
1.70639e-05
1.69814e-05
1.68929e-05
1.68125e-05
1.67264e-05
1.66488e-05
1.65658e-05
1.64918e-05
1.64121e-05
1.63425e-05
1.62656e-05
1.62007e-05
1.61268e-05
1.60655e-05
1.59963e-05
1.59364e-05
1.58705e-05
1.58124e-05
1.57479e-05
1.56911e-05
1.56268e-05
1.55734e-05
1.55097e-05
1.54546e-05
1.53949e-05
1.53464e-05
1.5285e-05
1.5229e-05
1.99999e-05
1.98597e-05
1.95699e-05
1.92739e-05
1.90301e-05
1.88746e-05
1.87575e-05
1.86422e-05
1.85053e-05
1.8387e-05
1.82717e-05
1.81707e-05
1.80629e-05
1.79652e-05
1.78621e-05
1.77687e-05
1.76689e-05
1.75781e-05
1.74825e-05
1.73967e-05
1.73063e-05
1.72249e-05
1.7138e-05
1.7059e-05
1.69739e-05
1.68969e-05
1.68141e-05
1.67396e-05
1.66597e-05
1.65889e-05
1.65125e-05
1.64456e-05
1.63721e-05
1.63094e-05
1.62398e-05
1.61802e-05
1.61151e-05
1.60574e-05
1.59948e-05
1.59394e-05
1.58776e-05
1.58236e-05
1.57615e-05
1.57105e-05
1.56501e-05
1.5597e-05
1.5539e-05
1.54934e-05
1.5435e-05
1.53806e-05
1.99999e-05
1.98638e-05
1.95825e-05
1.92941e-05
1.90508e-05
1.88921e-05
1.87746e-05
1.86657e-05
1.8534e-05
1.84174e-05
1.83035e-05
1.82054e-05
1.81011e-05
1.80072e-05
1.79074e-05
1.78174e-05
1.77209e-05
1.76337e-05
1.75416e-05
1.74592e-05
1.73724e-05
1.72947e-05
1.72114e-05
1.71359e-05
1.70544e-05
1.69808e-05
1.69013e-05
1.68299e-05
1.67533e-05
1.66856e-05
1.66125e-05
1.65483e-05
1.64785e-05
1.64178e-05
1.63527e-05
1.6295e-05
1.62338e-05
1.61787e-05
1.61193e-05
1.60669e-05
1.60077e-05
1.59568e-05
1.58971e-05
1.58484e-05
1.57914e-05
1.57407e-05
1.56843e-05
1.56414e-05
1.55869e-05
1.55344e-05
1.99999e-05
1.98678e-05
1.95949e-05
1.93143e-05
1.90726e-05
1.89112e-05
1.87923e-05
1.86887e-05
1.85626e-05
1.84481e-05
1.83355e-05
1.82399e-05
1.81389e-05
1.80486e-05
1.79521e-05
1.78654e-05
1.77721e-05
1.76883e-05
1.75995e-05
1.75204e-05
1.74371e-05
1.73631e-05
1.72835e-05
1.72115e-05
1.71335e-05
1.70633e-05
1.69871e-05
1.69187e-05
1.68455e-05
1.67809e-05
1.67111e-05
1.66495e-05
1.65832e-05
1.65254e-05
1.64636e-05
1.64091e-05
1.63506e-05
1.62994e-05
1.62425e-05
1.61936e-05
1.61368e-05
1.6089e-05
1.60323e-05
1.59857e-05
1.59322e-05
1.58841e-05
1.58295e-05
1.57889e-05
1.57387e-05
1.56889e-05
1.99999e-05
1.98718e-05
1.9607e-05
1.93344e-05
1.90951e-05
1.89316e-05
1.88107e-05
1.87113e-05
1.85907e-05
1.84789e-05
1.83675e-05
1.8274e-05
1.81759e-05
1.80892e-05
1.79959e-05
1.79122e-05
1.7822e-05
1.77415e-05
1.76559e-05
1.758e-05
1.75001e-05
1.74297e-05
1.73536e-05
1.72851e-05
1.72107e-05
1.71437e-05
1.70707e-05
1.70055e-05
1.69356e-05
1.68741e-05
1.68074e-05
1.67488e-05
1.66855e-05
1.66312e-05
1.65719e-05
1.65213e-05
1.64649e-05
1.64182e-05
1.63635e-05
1.63182e-05
1.6264e-05
1.62191e-05
1.61661e-05
1.6121e-05
1.60708e-05
1.60259e-05
1.59732e-05
1.59348e-05
1.58889e-05
1.58427e-05
1.99999e-05
1.98756e-05
1.96187e-05
1.93542e-05
1.9118e-05
1.8953e-05
1.88299e-05
1.87335e-05
1.86181e-05
1.85094e-05
1.83994e-05
1.83075e-05
1.8212e-05
1.81288e-05
1.80386e-05
1.79578e-05
1.78705e-05
1.77931e-05
1.77103e-05
1.76376e-05
1.75611e-05
1.7494e-05
1.74214e-05
1.73565e-05
1.72856e-05
1.72217e-05
1.71518e-05
1.70897e-05
1.70232e-05
1.69645e-05
1.69008e-05
1.68451e-05
1.67851e-05
1.67338e-05
1.66775e-05
1.663e-05
1.65772e-05
1.65332e-05
1.64824e-05
1.64391e-05
1.6389e-05
1.6346e-05
1.62972e-05
1.62541e-05
1.62061e-05
1.61653e-05
1.61149e-05
1.60779e-05
1.60361e-05
1.59943e-05
1.99999e-05
1.98794e-05
1.963e-05
1.93734e-05
1.91409e-05
1.89751e-05
1.88497e-05
1.87553e-05
1.86447e-05
1.85394e-05
1.84309e-05
1.83404e-05
1.82473e-05
1.81673e-05
1.80799e-05
1.8002e-05
1.79175e-05
1.78429e-05
1.77628e-05
1.76931e-05
1.76198e-05
1.7556e-05
1.74867e-05
1.74253e-05
1.73578e-05
1.72968e-05
1.723e-05
1.71711e-05
1.71077e-05
1.70519e-05
1.6991e-05
1.69383e-05
1.68814e-05
1.68329e-05
1.67797e-05
1.6735e-05
1.66862e-05
1.66446e-05
1.65978e-05
1.65564e-05
1.65105e-05
1.64698e-05
1.64243e-05
1.63843e-05
1.63374e-05
1.6301e-05
1.62541e-05
1.62175e-05
1.61794e-05
1.61427e-05
1.99999e-05
1.9883e-05
1.96409e-05
1.9392e-05
1.91636e-05
1.89977e-05
1.88702e-05
1.87768e-05
1.86703e-05
1.85688e-05
1.84618e-05
1.83727e-05
1.82815e-05
1.82045e-05
1.81199e-05
1.80447e-05
1.79629e-05
1.78908e-05
1.78131e-05
1.77463e-05
1.7676e-05
1.76153e-05
1.75494e-05
1.74914e-05
1.74271e-05
1.7369e-05
1.73052e-05
1.72493e-05
1.7189e-05
1.71357e-05
1.70777e-05
1.70279e-05
1.6974e-05
1.69281e-05
1.6878e-05
1.68364e-05
1.67908e-05
1.67525e-05
1.67084e-05
1.66708e-05
1.66269e-05
1.65909e-05
1.65463e-05
1.65108e-05
1.64656e-05
1.64315e-05
1.63902e-05
1.63537e-05
1.63174e-05
1.62869e-05
1.99999e-05
1.98865e-05
1.96513e-05
1.941e-05
1.91858e-05
1.90205e-05
1.8891e-05
1.87981e-05
1.86951e-05
1.85973e-05
1.84922e-05
1.84042e-05
1.83148e-05