/*--------------------------------*- C++ -*----------------------------------*\
  =========                 |
  \\      /  F ield         | OpenFOAM: The Open Source CFD Toolbox
   \\    /   O peration     | Website:  https://openfoam.org
    \\  /    A nd           | Version:  7
     \\/     M anipulation  |
\*---------------------------------------------------------------------------*/
FoamFile
{
    version     2.0;
    format      ascii;
    class       volScalarField;
    location    "0.04";
    object      k_0;
}
// * * * * * * * * * * * * * * * * * * * * * * * * * * * * * * * * * * * * * //

dimensions      [0 2 -2 0 0 0 0];

internalField   nonuniform List<scalar> 
70000
(
1.08549e-05
4.21875e-06
2.82429e-06
2.31681e-06
1.99746e-06
1.75725e-06
1.5652e-06
1.40848e-06
1.2776e-06
1.16707e-06
1.07203e-06
9.90183e-07
9.18524e-07
8.56e-07
8.00497e-07
7.51555e-07
7.07577e-07
6.68415e-07
6.32874e-07
6.00959e-07
5.71779e-07
5.45374e-07
5.21089e-07
4.98954e-07
4.7849e-07
4.59723e-07
4.42275e-07
4.26207e-07
4.11159e-07
3.97299e-07
3.84172e-07
3.72164e-07
3.60575e-07
3.50159e-07
3.39786e-07
3.30778e-07
3.21343e-07
3.13623e-07
3.04877e-07
2.98376e-07
2.90091e-07
2.84797e-07
2.7671e-07
2.72741e-07
2.64563e-07
2.63404e-07
2.55447e-07
2.67027e-07
2.55915e-07
2.76643e-07
1.72794e-05
1.13672e-05
8.52035e-06
7.01041e-06
6.03705e-06
5.31115e-06
4.73148e-06
4.25817e-06
3.86287e-06
3.52903e-06
3.24203e-06
2.99483e-06
2.77842e-06
2.58954e-06
2.42189e-06
2.274e-06
2.14114e-06
2.02277e-06
1.91538e-06
1.81889e-06
1.73071e-06
1.65086e-06
1.57747e-06
1.51052e-06
1.44867e-06
1.3919e-06
1.33915e-06
1.29055e-06
1.24503e-06
1.20312e-06
1.16341e-06
1.1271e-06
1.09202e-06
1.06055e-06
1.02913e-06
1.00192e-06
9.73334e-07
9.50024e-07
9.23522e-07
9.0389e-07
8.78792e-07
8.62799e-07
8.38304e-07
8.26301e-07
8.01577e-07
7.96244e-07
7.73468e-07
7.96701e-07
7.74379e-07
8.00082e-07
1.937e-05
1.61297e-05
1.32908e-05
1.12896e-05
9.82822e-06
8.6963e-06
7.77823e-06
7.02118e-06
6.38425e-06
5.84364e-06
5.37722e-06
4.97425e-06
4.62063e-06
4.31124e-06
4.0362e-06
3.79299e-06
3.57429e-06
3.37898e-06
3.20175e-06
3.04214e-06
2.89632e-06
2.76398e-06
2.64238e-06
2.53124e-06
2.42858e-06
2.33422e-06
2.24653e-06
2.16566e-06
2.0899e-06
2.02011e-06
1.9539e-06
1.89343e-06
1.83488e-06
1.78244e-06
1.72994e-06
1.6846e-06
1.63679e-06
1.59792e-06
1.55361e-06
1.52079e-06
1.47888e-06
1.45204e-06
1.41122e-06
1.39109e-06
1.34996e-06
1.33827e-06
1.30073e-06
1.32209e-06
1.29999e-06
1.31265e-06
1.9861e-05
1.82601e-05
1.60854e-05
1.42004e-05
1.26398e-05
1.1349e-05
1.02605e-05
9.33912e-06
8.5471e-06
7.86472e-06
7.2695e-06
6.75067e-06
6.292e-06
5.88805e-06
5.52702e-06
5.20591e-06
4.91603e-06
4.65585e-06
4.41919e-06
4.20513e-06
4.00928e-06
3.83083e-06
3.66671e-06
3.51614e-06
3.37698e-06
3.24866e-06
3.12932e-06
3.019e-06
2.91553e-06
2.8201e-06
2.72942e-06
2.64657e-06
2.56617e-06
2.49419e-06
2.42196e-06
2.3596e-06
2.29375e-06
2.24011e-06
2.17913e-06
2.13357e-06
2.07606e-06
2.03839e-06
1.98269e-06
1.95368e-06
1.89787e-06
1.87844e-06
1.82656e-06
1.83531e-06
1.82568e-06
1.81579e-06
1.99706e-05
1.7846e-05
1.60747e-05
1.47668e-05
1.36023e-05
1.25379e-05
1.1569e-05
1.07022e-05
9.92046e-06
9.22575e-06
8.60504e-06
8.05316e-06
7.55697e-06
7.11369e-06
6.71253e-06
6.35137e-06
6.02232e-06
5.72414e-06
5.45128e-06
5.20253e-06
4.97393e-06
4.76417e-06
4.5706e-06
4.39191e-06
4.22632e-06
4.0728e-06
3.92966e-06
3.79677e-06
3.67187e-06
3.55629e-06
3.44624e-06
3.34542e-06
3.2474e-06
3.15941e-06
3.07107e-06
2.99444e-06
2.91381e-06
2.84738e-06
2.77284e-06
2.71574e-06
2.64581e-06
2.59768e-06
2.53059e-06
2.49197e-06
2.42544e-06
2.39787e-06
2.33544e-06
2.32508e-06
2.3156e-06
2.28855e-06
2.00095e-05
1.47039e-05
1.37479e-05
1.32115e-05
1.25914e-05
1.19276e-05
1.12776e-05
1.06579e-05
1.00801e-05
9.54675e-06
9.04555e-06
8.57992e-06
8.14594e-06
7.74657e-06
7.37505e-06
7.03249e-06
6.7146e-06
6.42155e-06
6.15011e-06
5.89914e-06
5.66627e-06
5.44994e-06
5.24879e-06
5.06113e-06
4.88622e-06
4.72249e-06
4.5691e-06
4.42562e-06
4.29029e-06
4.16421e-06
4.04388e-06
3.93288e-06
3.82491e-06
3.72715e-06
3.62935e-06
3.54332e-06
3.4539e-06
3.3783e-06
3.29586e-06
3.22961e-06
3.15283e-06
3.09538e-06
3.02272e-06
2.97436e-06
2.90344e-06
2.86652e-06
2.80205e-06
2.76922e-06
2.75408e-06
2.7116e-06
2.01332e-05
1.54667e-05
9.63463e-06
9.39864e-06
9.49326e-06
9.49263e-06
9.43397e-06
9.29593e-06
9.05476e-06
8.78159e-06
8.48621e-06
8.18939e-06
7.89724e-06
7.61426e-06
7.33742e-06
7.07656e-06
6.82969e-06
6.59498e-06
6.37224e-06
6.16051e-06
5.96005e-06
5.76955e-06
5.58969e-06
5.41885e-06
5.25768e-06
5.10423e-06
4.95937e-06
4.82212e-06
4.69195e-06
4.56916e-06
4.4516e-06
4.34169e-06
4.23489e-06
4.13649e-06
4.03895e-06
3.95079e-06
3.86134e-06
3.78221e-06
3.69991e-06
3.62867e-06
3.55273e-06
3.48863e-06
3.4182e-06
3.36093e-06
3.29473e-06
3.24486e-06
3.18864e-06
3.13787e-06
3.11735e-06
3.06183e-06
2.01713e-05
1.86755e-05
8.68992e-06
5.54031e-06
5.63074e-06
5.935e-06
6.29291e-06
6.57846e-06
6.75757e-06
6.86644e-06
6.88561e-06
6.86622e-06
6.81397e-06
6.72543e-06
6.61486e-06
6.49271e-06
6.35536e-06
6.21288e-06
6.07094e-06
5.92818e-06
5.78828e-06
5.6501e-06
5.51651e-06
5.38594e-06
5.26003e-06
5.13915e-06
5.02405e-06
4.91241e-06
4.80544e-06
4.70213e-06
4.60269e-06
4.50739e-06
4.41506e-06
4.32728e-06
4.24169e-06
4.16077e-06
4.0817e-06
4.00678e-06
3.9339e-06
3.86406e-06
3.79746e-06
3.73199e-06
3.67159e-06
3.60973e-06
3.55529e-06
3.4967e-06
3.45218e-06
3.39209e-06
3.36968e-06
3.30864e-06
2.01672e-05
1.97238e-05
1.6166e-05
4.85997e-06
3.04246e-06
3.10588e-06
3.37485e-06
3.80496e-06
4.17036e-06
4.48822e-06
4.73518e-06
4.92456e-06
5.06482e-06
5.16476e-06
5.22319e-06
5.25886e-06
5.26232e-06
5.25355e-06
5.23173e-06
5.19202e-06
5.14494e-06
5.08866e-06
5.0291e-06
4.96352e-06
4.89698e-06
4.82592e-06
4.75458e-06
4.68125e-06
4.60948e-06
4.53717e-06
4.46693e-06
4.39689e-06
4.32924e-06
4.26189e-06
4.1976e-06
4.1329e-06
4.07264e-06
4.01026e-06
3.95514e-06
3.89532e-06
3.84526e-06
3.78682e-06
3.74194e-06
3.6842e-06
3.64471e-06
3.58738e-06
3.55515e-06
3.49614e-06
3.47543e-06
3.41922e-06
2.01477e-05
1.99342e-05
1.90652e-05
1.44969e-05
5.24103e-06
2.15448e-06
1.91452e-06
1.99387e-06
2.20731e-06
2.5059e-06
2.78139e-06
3.03428e-06
3.25874e-06
3.45498e-06
3.61846e-06
3.75612e-06
3.8676e-06
3.95529e-06
4.02686e-06
4.07842e-06
4.11747e-06
4.14075e-06
4.15647e-06
4.1588e-06
4.15587e-06
4.14755e-06
4.13365e-06
4.1132e-06
4.09087e-06
4.06349e-06
4.03538e-06
4.00335e-06
3.97179e-06
3.93644e-06
3.90335e-06
3.86556e-06
3.83258e-06
3.79304e-06
3.76035e-06
3.71854e-06
3.68736e-06
3.64426e-06
3.61553e-06
3.57141e-06
3.54549e-06
3.50058e-06
3.47766e-06
3.43066e-06
3.4144e-06
3.37447e-06
2.01217e-05
1.9966e-05
1.96422e-05
1.85456e-05
1.52106e-05
8.35621e-06
3.10422e-06
1.63304e-06
1.44241e-06
1.44945e-06
1.5264e-06
1.68723e-06
1.86913e-06
2.04552e-06
2.21545e-06
2.37387e-06
2.52108e-06
2.6512e-06
2.76971e-06
2.8723e-06
2.96431e-06
3.04174e-06
3.11038e-06
3.16673e-06
3.21529e-06
3.25439e-06
3.28821e-06
3.31337e-06
3.33464e-06
3.34888e-06
3.36015e-06
3.36603e-06
3.36923e-06
3.36838e-06
3.36604e-06
3.35994e-06
3.3544e-06
3.34272e-06
3.33521e-06
3.31983e-06
3.31073e-06
3.2923e-06
3.28199e-06
3.26124e-06
3.25003e-06
3.22751e-06
3.21561e-06
3.18984e-06
3.18089e-06
3.16031e-06
2.00982e-05
1.99327e-05
1.97571e-05
1.93521e-05
1.85055e-05
1.65355e-05
1.2326e-05
6.85873e-06
2.98694e-06
1.49341e-06
1.24317e-06
1.14761e-06
1.15179e-06
1.1942e-06
1.2866e-06
1.39274e-06
1.50545e-06
1.61429e-06
1.72458e-06
1.82853e-06
1.9289e-06
2.02094e-06
2.10807e-06
2.18666e-06
2.26044e-06
2.32579e-06
2.38706e-06
2.44048e-06
2.49042e-06
2.53326e-06
2.57332e-06
2.60693e-06
2.6387e-06
2.66415e-06
2.68918e-06
2.70754e-06
2.72723e-06
2.73969e-06
2.75466e-06
2.76246e-06
2.77333e-06
2.77749e-06
2.78452e-06
2.78609e-06
2.78928e-06
2.78891e-06
2.78851e-06
2.78493e-06
2.78474e-06
2.78135e-06
2.00782e-05
1.98875e-05
1.97567e-05
1.94605e-05
1.91454e-05
1.86406e-05
1.7555e-05
1.54259e-05
1.17417e-05
7.4474e-06
3.98432e-06
1.9154e-06
1.20903e-06
1.05727e-06
9.82184e-07
9.42474e-07
9.53609e-07
9.87232e-07
1.04961e-06
1.11283e-06
1.18221e-06
1.25142e-06
1.32238e-06
1.39176e-06
1.46096e-06
1.526e-06
1.59e-06
1.64911e-06
1.70696e-06
1.75967e-06
1.81127e-06
1.85749e-06
1.90302e-06
1.94292e-06
1.98279e-06
2.01686e-06
2.05143e-06
2.08043e-06
2.11015e-06
2.13466e-06
2.15997e-06
2.18053e-06
2.20188e-06
2.2188e-06
2.23674e-06
2.25013e-06
2.26508e-06
2.27478e-06
2.28657e-06
2.29619e-06
2.00614e-05
1.98538e-05
1.97341e-05
1.94707e-05
1.92547e-05
1.90465e-05
1.87355e-05
1.81906e-05
1.70976e-05
1.52345e-05
1.25706e-05
9.24048e-06
5.97874e-06
3.48365e-06
1.88462e-06
1.16908e-06
9.6504e-07
8.90976e-07
8.36659e-07
7.96297e-07
7.98051e-07
8.11468e-07
8.41215e-07
8.7961e-07
9.19841e-07
9.61943e-07
1.00684e-06
1.05118e-06
1.09759e-06
1.14244e-06
1.18814e-06
1.23113e-06
1.27458e-06
1.31494e-06
1.35564e-06
1.39308e-06
1.43069e-06
1.4652e-06
1.49966e-06
1.53107e-06
1.56238e-06
1.59077e-06
1.61905e-06
1.6444e-06
1.66974e-06
1.69241e-06
1.71432e-06
1.73493e-06
1.75222e-06
1.77288e-06
2.00476e-05
1.98303e-05
1.97075e-05
1.94485e-05
1.92716e-05
1.91144e-05
1.89649e-05
1.87501e-05
1.84623e-05
1.7913e-05
1.70792e-05
1.57041e-05
1.38889e-05
1.15414e-05
8.86488e-06
6.25688e-06
4.08462e-06
2.51027e-06
1.50975e-06
1.03259e-06
8.63385e-07
7.99381e-07
7.51247e-07
7.11177e-07
6.81716e-07
6.7896e-07
6.84824e-07
6.99045e-07
7.21199e-07
7.44918e-07
7.70487e-07
7.96625e-07
8.25032e-07
8.53506e-07
8.83395e-07
9.13067e-07
9.4329e-07
9.72848e-07
1.00241e-06
1.03098e-06
1.05937e-06
1.08676e-06
1.11376e-06
1.13965e-06
1.16502e-06
1.18958e-06
1.21264e-06
1.23596e-06
1.25584e-06
1.27837e-06
2.00363e-05
1.98124e-05
1.9685e-05
1.94181e-05
1.92576e-05
1.9108e-05
1.89998e-05
1.88488e-05
1.8712e-05
1.85007e-05
1.82484e-05
1.78338e-05
1.72342e-05
1.63655e-05
1.51672e-05
1.36342e-05
1.18281e-05
9.74544e-06
7.60198e-06
5.60243e-06
3.92107e-06
2.64037e-06
1.72273e-06
1.1591e-06
8.80722e-07
7.64881e-07
7.11619e-07
6.74371e-07
6.38899e-07
6.09621e-07
5.89636e-07
5.83131e-07
5.85375e-07
5.91653e-07
6.03234e-07
6.17208e-07
6.31924e-07
6.47896e-07
6.64242e-07
6.81739e-07
6.99919e-07
7.18851e-07
7.37954e-07
7.57561e-07
7.76989e-07
7.96789e-07
8.15596e-07
8.35129e-07
8.52556e-07
8.71587e-07
2.00272e-05
1.97985e-05
1.96658e-05
1.93961e-05
1.92318e-05
1.90804e-05
1.89818e-05
1.88522e-05
1.87361e-05
1.85962e-05
1.84602e-05
1.82898e-05
1.80819e-05
1.77958e-05
1.74109e-05
1.68681e-05
1.61616e-05
1.52416e-05
1.41018e-05
1.27611e-05
1.12611e-05
9.59984e-06
7.88928e-06
6.24988e-06
4.76328e-06
3.52251e-06
2.53993e-06
1.78913e-06
1.26071e-06
9.37618e-07
7.65838e-07
6.82323e-07
6.38084e-07
6.07434e-07
5.79794e-07
5.53875e-07
5.31119e-07
5.16099e-07
5.06237e-07
5.05151e-07
5.06862e-07
5.11296e-07
5.17882e-07
5.26391e-07
5.34992e-07
5.4486e-07
5.54123e-07
5.64907e-07
5.74654e-07
5.86341e-07
2.002e-05
1.97898e-05
1.96458e-05
1.93795e-05
1.92078e-05
1.90512e-05
1.89437e-05
1.88257e-05
1.87146e-05
1.85894e-05
1.8472e-05
1.83454e-05
1.82217e-05
1.80781e-05
1.79224e-05
1.77229e-05
1.748e-05
1.71607e-05
1.67573e-05
1.62352e-05
1.56004e-05
1.48211e-05
1.39063e-05
1.28499e-05
1.16971e-05
1.04435e-05
9.10824e-06
7.75698e-06
6.44139e-06
5.22524e-06
4.12831e-06
3.2092e-06
2.45462e-06
1.84647e-06
1.37779e-06
1.0425e-06
8.25579e-07
6.97279e-07
6.25222e-07
5.83881e-07
5.56124e-07
5.33541e-07
5.12896e-07
4.93375e-07
4.7483e-07
4.60695e-07
4.49091e-07
4.43035e-07
4.39118e-07
4.39843e-07
2.00145e-05
1.97897e-05
1.96196e-05
1.93659e-05
1.91873e-05
1.90242e-05
1.89078e-05
1.87892e-05
1.86747e-05
1.85535e-05
1.84416e-05
1.83235e-05
1.82124e-05
1.80928e-05
1.79801e-05
1.78573e-05
1.77338e-05
1.75903e-05
1.7432e-05
1.72372e-05
1.70081e-05
1.67235e-05
1.63823e-05
1.59639e-05
1.54704e-05
1.48907e-05
1.42247e-05
1.34626e-05
1.26258e-05
1.17057e-05
1.07476e-05
9.72575e-06
8.66621e-06
7.60203e-06
6.5638e-06
5.5749e-06
4.66587e-06
3.83929e-06
3.12808e-06
2.52475e-06
2.01585e-06
1.59512e-06
1.25758e-06
1.001e-06
8.163e-07
6.93131e-07
6.11908e-07
5.64148e-07
5.28517e-07
5.12594e-07
2.00102e-05
1.97936e-05
1.9593e-05
1.93519e-05
1.91686e-05
1.89985e-05
1.88744e-05
1.8753e-05
1.86348e-05
1.85105e-05
1.83958e-05
1.82772e-05
1.81676e-05
1.80545e-05
1.79479e-05
1.7838e-05
1.77314e-05
1.76219e-05
1.75147e-05
1.74026e-05
1.72857e-05
1.71578e-05
1.70161e-05
1.68533e-05
1.66651e-05
1.64465e-05
1.61904e-05
1.58925e-05
1.55461e-05
1.51503e-05
1.46976e-05
1.41967e-05
1.36317e-05
1.30181e-05
1.23454e-05
1.16375e-05
1.08806e-05
1.01124e-05
9.30592e-06
8.48218e-06
7.65357e-06
6.84057e-06
6.0513e-06
5.30531e-06
4.60386e-06
3.96799e-06
3.38256e-06
2.88261e-06
2.4225e-06
2.0388e-06
2.00071e-05
1.9801e-05
1.95684e-05
1.93383e-05
1.9151e-05
1.89744e-05
1.88425e-05
1.87184e-05
1.8596e-05
1.84689e-05
1.83493e-05
1.82289e-05
1.81151e-05
1.80004e-05
1.78911e-05
1.7782e-05
1.76781e-05
1.75755e-05
1.74742e-05
1.73764e-05
1.72758e-05
1.7179e-05
1.7079e-05
1.69812e-05
1.68759e-05
1.67715e-05
1.66519e-05
1.65292e-05
1.63849e-05
1.62325e-05
1.60508e-05
1.58563e-05
1.56279e-05
1.53784e-05
1.50918e-05
1.47801e-05
1.44264e-05
1.40482e-05
1.36284e-05
1.31812e-05
1.26947e-05
1.21827e-05
1.16371e-05
1.10771e-05
1.04883e-05
9.89807e-06
9.2897e-06
8.68616e-06
8.0533e-06
7.44089e-06
2.00047e-05
1.98096e-05
1.95453e-05
1.9325e-05
1.91338e-05
1.8952e-05
1.88116e-05
1.86852e-05
1.85585e-05
1.8429e-05
1.83044e-05
1.81816e-05
1.80633e-05
1.79466e-05
1.78329e-05
1.77222e-05
1.76133e-05
1.75095e-05
1.74047e-05
1.73077e-05
1.72078e-05
1.71172e-05
1.70226e-05
1.69351e-05
1.68426e-05
1.67589e-05
1.6665e-05
1.65817e-05
1.64889e-05
1.64041e-05
1.63066e-05
1.62143e-05
1.61097e-05
1.60016e-05
1.58816e-05
1.57552e-05
1.56094e-05
1.54596e-05
1.52849e-05
1.5102e-05
1.48964e-05
1.46749e-05
1.44305e-05
1.41743e-05
1.38876e-05
1.35905e-05
1.32709e-05
1.29363e-05
1.25781e-05
1.22084e-05
2.0003e-05
1.98187e-05
1.95239e-05
1.93113e-05
1.91165e-05
1.89313e-05
1.87819e-05
1.86531e-05
1.85225e-05
1.83909e-05
1.82614e-05
1.81362e-05
1.80134e-05
1.78946e-05
1.77766e-05
1.76637e-05
1.75508e-05
1.74446e-05
1.73359e-05
1.72368e-05
1.71323e-05
1.70387e-05
1.69412e-05
1.68514e-05
1.67579e-05
1.66763e-05
1.65869e-05
1.65091e-05
1.64245e-05
1.63502e-05
1.62676e-05
1.61943e-05
1.61151e-05
1.60382e-05
1.5962e-05
1.5887e-05
1.58048e-05
1.57302e-05
1.56432e-05
1.55594e-05
1.54686e-05
1.53708e-05
1.52678e-05
1.51627e-05
1.504e-05
1.4916e-05
1.47841e-05
1.46382e-05
1.4483e-05
1.43233e-05
2.00018e-05
1.98273e-05
1.95042e-05
1.92967e-05
1.90989e-05
1.8912e-05
1.87537e-05
1.86222e-05
1.84884e-05
1.83547e-05
1.8221e-05
1.80933e-05
1.79666e-05
1.78454e-05
1.77237e-05
1.76079e-05
1.74919e-05
1.7383e-05
1.7271e-05
1.71691e-05
1.70615e-05
1.69647e-05
1.68645e-05
1.67705e-05
1.66747e-05
1.65884e-05
1.64955e-05
1.64132e-05
1.63271e-05
1.62496e-05
1.61669e-05
1.60942e-05
1.60202e-05
1.59478e-05
1.58787e-05
1.58117e-05
1.57405e-05
1.56797e-05
1.56103e-05
1.55471e-05
1.54816e-05
1.54147e-05
1.53507e-05
1.52901e-05
1.52183e-05
1.51544e-05
1.50882e-05
1.50149e-05
1.49401e-05
1.48699e-05
2.00009e-05
1.98304e-05
1.9488e-05
1.92816e-05
1.90815e-05
1.88944e-05
1.87277e-05
1.85928e-05
1.84564e-05
1.83209e-05
1.81836e-05
1.80533e-05
1.79233e-05
1.77999e-05
1.76749e-05
1.75562e-05
1.74375e-05
1.73258e-05
1.7211e-05
1.71062e-05
1.69961e-05
1.68963e-05
1.67937e-05
1.66963e-05
1.65984e-05
1.65085e-05
1.64128e-05
1.63268e-05
1.62379e-05
1.61566e-05
1.60705e-05
1.59939e-05
1.59152e-05
1.58393e-05
1.57666e-05
1.56973e-05
1.56239e-05
1.55617e-05
1.54936e-05
1.54331e-05
1.53712e-05
1.53106e-05
1.52526e-05
1.51993e-05
1.51364e-05
1.50844e-05
1.503e-05
1.49725e-05
1.49158e-05
1.48656e-05
2.00003e-05
1.98288e-05
1.94747e-05
1.92657e-05
1.90641e-05
1.88788e-05
1.87041e-05
1.85655e-05
1.84269e-05
1.82899e-05
1.81496e-05
1.8017e-05
1.78842e-05
1.77586e-05
1.76308e-05
1.75096e-05
1.73884e-05
1.72743e-05
1.71569e-05
1.70494e-05
1.69369e-05
1.68347e-05
1.67296e-05
1.66295e-05
1.65296e-05
1.64367e-05
1.63388e-05
1.625e-05
1.61588e-05
1.60747e-05
1.59856e-05
1.59065e-05
1.58242e-05
1.5746e-05
1.56689e-05
1.5597e-05
1.55199e-05
1.54541e-05
1.53828e-05
1.53184e-05
1.52503e-05
1.51881e-05
1.51262e-05
1.50698e-05
1.50052e-05
1.49519e-05
1.48948e-05
1.48396e-05
1.47844e-05
1.47375e-05
2e-05
1.9827e-05
1.94635e-05
1.92481e-05
1.9046e-05
1.88644e-05
1.86829e-05
1.85402e-05
1.84001e-05
1.8262e-05
1.81194e-05
1.79848e-05
1.78497e-05
1.77224e-05
1.75921e-05
1.74688e-05
1.73454e-05
1.72294e-05
1.71096e-05
1.69997e-05
1.68853e-05
1.67809e-05
1.66733e-05
1.65714e-05
1.64693e-05
1.63739e-05
1.62741e-05
1.61831e-05
1.60896e-05
1.60036e-05
1.59121e-05
1.5831e-05
1.5746e-05
1.56664e-05
1.55858e-05
1.55123e-05
1.54323e-05
1.53638e-05
1.52903e-05
1.52232e-05
1.51505e-05
1.50871e-05
1.50212e-05
1.49614e-05
1.48939e-05
1.4837e-05
1.47753e-05
1.47184e-05
1.46588e-05
1.46079e-05
1.99999e-05
1.98258e-05
1.94553e-05
1.92301e-05
1.9028e-05
1.88518e-05
1.86647e-05
1.85177e-05
1.83764e-05
1.82378e-05
1.80935e-05
1.79574e-05
1.78205e-05
1.76918e-05
1.75595e-05
1.74347e-05
1.73093e-05
1.71919e-05
1.70702e-05
1.69582e-05
1.68422e-05
1.6736e-05
1.66262e-05
1.65229e-05
1.64188e-05
1.63212e-05
1.62198e-05
1.6127e-05
1.60315e-05
1.59439e-05
1.58503e-05
1.57677e-05
1.56806e-05
1.55999e-05
1.55167e-05
1.54418e-05
1.53599e-05
1.52896e-05
1.52142e-05
1.51453e-05
1.50698e-05
1.50053e-05
1.49366e-05
1.48747e-05
1.4805e-05
1.47454e-05
1.46804e-05
1.46224e-05
1.45597e-05
1.4506e-05
1.99999e-05
1.98251e-05
1.94501e-05
1.92127e-05
1.90108e-05
1.88411e-05
1.86501e-05
1.84987e-05
1.83563e-05
1.82179e-05
1.80726e-05
1.79355e-05
1.77974e-05
1.76676e-05
1.75339e-05
1.7408e-05
1.72812e-05
1.71627e-05
1.70394e-05
1.69259e-05
1.68088e-05
1.6701e-05
1.65895e-05
1.64853e-05
1.63792e-05
1.62799e-05
1.61772e-05
1.60831e-05
1.59858e-05
1.58969e-05
1.58016e-05
1.57176e-05
1.56289e-05
1.55472e-05
1.5462e-05
1.53858e-05
1.53027e-05
1.52309e-05
1.5154e-05
1.50837e-05
1.50065e-05
1.49409e-05
1.48704e-05
1.48072e-05
1.47357e-05
1.46742e-05
1.46071e-05
1.45485e-05
1.44837e-05
1.4428e-05
1.99999e-05
1.98249e-05
1.94476e-05
1.9197e-05
1.89952e-05
1.88324e-05
1.86397e-05
1.84839e-05
1.83405e-05
1.82029e-05
1.80572e-05
1.79198e-05
1.77809e-05
1.76505e-05
1.75158e-05
1.73896e-05
1.72618e-05
1.71425e-05
1.70183e-05
1.69037e-05
1.67858e-05
1.6677e-05
1.65642e-05
1.64594e-05
1.63518e-05
1.62513e-05
1.61475e-05
1.60524e-05
1.59537e-05
1.58637e-05
1.57673e-05
1.56821e-05
1.55922e-05
1.55095e-05
1.54229e-05
1.53457e-05
1.52617e-05
1.51888e-05
1.51104e-05
1.50393e-05
1.4961e-05
1.48943e-05
1.48225e-05
1.47583e-05
1.46853e-05
1.46226e-05
1.4554e-05
1.44949e-05
1.44287e-05
1.43713e-05
1.99999e-05
1.9825e-05
1.94477e-05
1.91837e-05
1.89814e-05
1.88255e-05
1.86335e-05
1.84736e-05
1.83293e-05
1.81928e-05
1.80477e-05
1.79105e-05
1.77713e-05
1.76408e-05
1.75059e-05
1.73798e-05
1.72516e-05
1.71319e-05
1.70074e-05
1.68923e-05
1.67741e-05
1.66647e-05
1.65513e-05
1.64462e-05
1.63375e-05
1.62363e-05
1.61318e-05
1.60361e-05
1.59363e-05
1.58456e-05
1.57484e-05
1.56625e-05
1.55716e-05
1.54883e-05
1.54007e-05
1.53228e-05
1.52383e-05
1.51645e-05
1.50848e-05
1.50133e-05
1.49343e-05
1.48667e-05
1.47938e-05
1.47289e-05
1.46547e-05
1.45911e-05
1.45217e-05
1.44621e-05
1.43946e-05
1.43357e-05
1.99999e-05
1.98257e-05
1.94501e-05
1.91732e-05
1.89698e-05
1.88199e-05
1.86315e-05
1.8468e-05
1.83228e-05
1.81879e-05
1.8044e-05
1.79079e-05
1.7769e-05
1.7639e-05
1.75046e-05
1.73793e-05
1.72512e-05
1.71317e-05
1.70074e-05
1.68925e-05
1.67743e-05
1.6665e-05
1.65515e-05
1.64465e-05
1.63372e-05
1.62359e-05
1.61309e-05
1.60353e-05
1.59345e-05
1.58438e-05
1.57461e-05
1.56599e-05
1.55682e-05
1.54847e-05
1.53965e-05
1.53183e-05
1.52334e-05
1.5159e-05
1.50785e-05
1.50069e-05
1.49275e-05
1.48593e-05
1.47856e-05
1.47201e-05
1.4645e-05
1.4581e-05
1.4511e-05
1.44509e-05
1.43823e-05
1.43222e-05
1.99999e-05
1.98268e-05
1.94551e-05
1.91665e-05
1.89606e-05
1.88159e-05
1.86332e-05
1.84674e-05
1.83211e-05
1.81882e-05
1.80462e-05
1.79114e-05
1.77732e-05
1.76441e-05
1.75106e-05
1.73865e-05
1.72589e-05
1.71399e-05
1.70161e-05
1.69019e-05
1.67841e-05
1.66753e-05
1.65622e-05
1.64575e-05
1.63481e-05
1.62471e-05
1.6142e-05
1.60467e-05
1.59456e-05
1.58551e-05
1.57573e-05
1.56711e-05
1.55792e-05
1.54956e-05
1.54075e-05
1.53293e-05
1.52443e-05
1.51698e-05
1.50889e-05
1.50174e-05
1.4938e-05
1.48696e-05
1.47954e-05
1.47296e-05
1.46541e-05
1.459e-05
1.45197e-05
1.44594e-05
1.43901e-05
1.43292e-05
1.99999e-05
1.98284e-05
1.94622e-05
1.91633e-05
1.89542e-05
1.8813e-05
1.86386e-05
1.84712e-05
1.83239e-05
1.81927e-05
1.80533e-05
1.79206e-05
1.77838e-05
1.76564e-05
1.75247e-05
1.74025e-05
1.72762e-05
1.71584e-05
1.70358e-05
1.6923e-05
1.68063e-05
1.66986e-05
1.65864e-05
1.64826e-05
1.63737e-05
1.62737e-05
1.61689e-05
1.60743e-05
1.59732e-05
1.58834e-05
1.57859e-05
1.57e-05
1.56084e-05
1.55251e-05
1.54374e-05
1.53596e-05
1.52748e-05
1.52004e-05
1.51195e-05
1.50483e-05
1.49692e-05
1.49008e-05
1.48263e-05
1.47603e-05
1.46845e-05
1.46207e-05
1.45503e-05
1.44898e-05
1.44197e-05
1.4358e-05
1.99999e-05
1.98306e-05
1.9471e-05
1.9164e-05
1.89506e-05
1.88117e-05
1.86467e-05
1.84799e-05
1.83313e-05
1.82022e-05
1.80658e-05
1.79357e-05
1.78008e-05
1.76757e-05
1.75463e-05
1.74263e-05
1.73017e-05
1.71856e-05
1.70648e-05
1.69538e-05
1.68388e-05
1.67328e-05
1.66219e-05
1.65196e-05
1.64118e-05
1.63132e-05
1.62092e-05
1.61158e-05
1.60155e-05
1.59266e-05
1.58303e-05
1.57448e-05
1.56542e-05
1.55716e-05
1.54848e-05
1.54079e-05
1.53236e-05
1.525e-05
1.51696e-05
1.50991e-05
1.50207e-05
1.49528e-05
1.48784e-05
1.48126e-05
1.47372e-05
1.46737e-05
1.46037e-05
1.45433e-05
1.4473e-05
1.4411e-05
1.99999e-05
1.98332e-05
1.94816e-05
1.91683e-05
1.895e-05
1.88119e-05
1.86569e-05
1.84925e-05
1.83429e-05
1.82157e-05
1.80825e-05
1.79556e-05
1.7823e-05
1.77006e-05
1.75739e-05
1.74567e-05
1.73342e-05
1.72204e-05
1.71018e-05
1.69931e-05
1.68802e-05
1.67763e-05
1.66672e-05
1.65668e-05
1.64607e-05
1.63638e-05
1.62614e-05
1.61693e-05
1.60704e-05
1.59825e-05
1.58881e-05
1.58033e-05
1.57143e-05
1.56328e-05
1.55472e-05
1.54716e-05
1.53881e-05
1.53157e-05
1.52364e-05
1.51668e-05
1.50894e-05
1.50222e-05
1.49483e-05
1.48833e-05
1.48085e-05
1.47456e-05
1.46762e-05
1.46165e-05
1.45463e-05
1.44844e-05
1.99999e-05
1.98363e-05
1.9493e-05
1.91766e-05
1.89527e-05
1.88138e-05
1.86688e-05
1.85085e-05
1.83583e-05
1.82327e-05
1.81029e-05
1.79794e-05
1.78497e-05
1.77304e-05
1.76068e-05
1.74925e-05
1.73727e-05
1.72615e-05
1.71456e-05
1.70395e-05
1.69291e-05
1.68278e-05
1.6721e-05
1.66229e-05
1.65189e-05
1.64241e-05
1.63237e-05
1.62332e-05
1.61365e-05
1.60498e-05
1.59577e-05
1.58739e-05
1.57869e-05
1.57069e-05
1.56228e-05
1.5549e-05
1.54667e-05
1.5396e-05
1.5318e-05
1.52496e-05
1.51736e-05
1.51075e-05
1.50344e-05
1.49706e-05
1.48969e-05
1.48347e-05
1.47662e-05
1.47076e-05
1.46379e-05
1.45763e-05
1.99999e-05
1.98398e-05
1.95053e-05
1.91877e-05
1.89585e-05
1.88182e-05
1.8682e-05
1.85274e-05
1.83772e-05
1.8253e-05
1.81263e-05
1.80067e-05
1.78802e-05
1.77642e-05
1.76439e-05
1.75328e-05
1.7416e-05
1.73078e-05
1.71949e-05
1.70918e-05
1.69843e-05
1.68858e-05
1.67818e-05
1.66862e-05
1.65848e-05
1.64925e-05
1.63944e-05
1.63059e-05
1.62116e-05
1.61265e-05
1.60371e-05
1.59548e-05
1.587e-05
1.57921e-05
1.57096e-05
1.56379e-05
1.55574e-05
1.54886e-05
1.54123e-05
1.53455e-05
1.52713e-05
1.52063e-05
1.51346e-05
1.50724e-05
1.49999e-05
1.49388e-05
1.48715e-05
1.48143e-05
1.47455e-05
1.46847e-05
1.99999e-05
1.98435e-05
1.9518e-05
1.92016e-05
1.89675e-05
1.88248e-05
1.86959e-05
1.85485e-05
1.83991e-05
1.8276e-05
1.81523e-05
1.80367e-05
1.79136e-05
1.78012e-05
1.76843e-05
1.75766e-05
1.7463e-05
1.73581e-05
1.72484e-05
1.71485e-05
1.70442e-05
1.69489e-05
1.68478e-05
1.67552e-05
1.66567e-05
1.65671e-05
1.64718e-05
1.63855e-05
1.6294e-05
1.6211e-05
1.6124e-05
1.60442e-05
1.59613e-05
1.58863e-05
1.58055e-05
1.57362e-05
1.56579e-05
1.55912e-05
1.5517e-05
1.54521e-05
1.53799e-05
1.53165e-05
1.52465e-05
1.51861e-05
1.51152e-05
1.50554e-05
1.49897e-05
1.49341e-05
1.48666e-05
1.48068e-05
1.99999e-05
1.98474e-05
1.9531e-05
1.92175e-05
1.89794e-05
1.88339e-05
1.87104e-05
1.85711e-05
1.84234e-05
1.83013e-05
1.81803e-05
1.80686e-05
1.79493e-05
1.78405e-05
1.7727e-05
1.76229e-05
1.75126e-05
1.74112e-05
1.7305e-05
1.72085e-05
1.71076e-05
1.70156e-05
1.69178e-05
1.68283e-05
1.67331e-05
1.66463e-05
1.65539e-05
1.64703e-05
1.63816e-05
1.63013e-05
1.62167e-05
1.614e-05
1.60589e-05
1.59874e-05
1.59083e-05
1.58418e-05
1.57661e-05
1.57016e-05
1.56299e-05
1.55671e-05
1.54972e-05
1.54356e-05
1.53675e-05
1.53093e-05
1.52402e-05
1.51819e-05
1.51182e-05
1.50644e-05
1.49986e-05
1.494e-05
1.99999e-05
1.98514e-05
1.9544e-05
1.92351e-05
1.89941e-05
1.88453e-05
1.87255e-05
1.85946e-05
1.84495e-05
1.83285e-05
1.82098e-05
1.81019e-05
1.79864e-05
1.78814e-05
1.77714e-05
1.76709e-05
1.75641e-05
1.74662e-05
1.73635e-05
1.72706e-05
1.71732e-05
1.70846e-05
1.69903e-05
1.69042e-05
1.68123e-05
1.67286e-05
1.66393e-05
1.65586e-05
1.64728e-05
1.63956e-05
1.63133e-05
1.62402e-05
1.61609e-05
1.6093e-05
1.6016e-05
1.59524e-05
1.58796e-05
1.58175e-05
1.57486e-05
1.5688e-05
1.56207e-05
1.55614e-05
1.54951e-05
1.54393e-05
1.53726e-05
1.53159e-05
1.52543e-05
1.52028e-05
1.51388e-05
1.50815e-05
1.99999e-05
1.98555e-05
1.9557e-05
1.92541e-05
1.90111e-05
1.8859e-05
1.87413e-05
1.86185e-05
1.8477e-05
1.83572e-05
1.82404e-05
1.81361e-05
1.80245e-05
1.79232e-05
1.78166e-05
1.77197e-05
1.76164e-05
1.75221e-05
1.7423e-05
1.73337e-05
1.72398e-05
1.71548e-05
1.70641e-05
1.69816e-05
1.6893e-05
1.68126e-05
1.67265e-05
1.66489e-05
1.6566e-05
1.6492e-05
1.64124e-05
1.63428e-05
1.6266e-05
1.62011e-05
1.61272e-05
1.6066e-05
1.59967e-05
1.59369e-05
1.5871e-05
1.58129e-05
1.57484e-05
1.56916e-05
1.56273e-05
1.55739e-05
1.55101e-05
1.5455e-05
1.53955e-05
1.53468e-05
1.5285e-05
1.52291e-05
1.99999e-05
1.98596e-05
1.95698e-05
1.92739e-05
1.90302e-05
1.88747e-05
1.87577e-05
1.86423e-05
1.85054e-05
1.8387e-05
1.82717e-05
1.81707e-05
1.80629e-05
1.79653e-05
1.78621e-05
1.77687e-05
1.76689e-05
1.75782e-05
1.74826e-05
1.73969e-05
1.73065e-05
1.72252e-05
1.71382e-05
1.70592e-05
1.69741e-05
1.68971e-05
1.68143e-05
1.67398e-05
1.666e-05
1.65891e-05
1.65128e-05
1.6446e-05
1.63725e-05
1.63098e-05
1.62403e-05
1.61808e-05
1.61156e-05
1.6058e-05
1.59953e-05
1.594e-05
1.58782e-05
1.58241e-05
1.57621e-05
1.5711e-05
1.56505e-05
1.55974e-05
1.55396e-05
1.54939e-05
1.5435e-05
1.53807e-05
1.99999e-05
1.98637e-05
1.95824e-05
1.92941e-05
1.90509e-05
1.88923e-05
1.87747e-05
1.86658e-05
1.85341e-05
1.84174e-05
1.83035e-05
1.82054e-05
1.81012e-05
1.80073e-05
1.79075e-05
1.78175e-05
1.77209e-05
1.76338e-05
1.75417e-05
1.74594e-05
1.73726e-05
1.72949e-05
1.72116e-05
1.71361e-05
1.70546e-05
1.69809e-05
1.69015e-05
1.68301e-05
1.67535e-05
1.66858e-05
1.66129e-05
1.65486e-05
1.64789e-05
1.64183e-05
1.63532e-05
1.62955e-05
1.62344e-05
1.61793e-05
1.61199e-05
1.60675e-05
1.60083e-05
1.59573e-05
1.58977e-05
1.5849e-05
1.57919e-05
1.57411e-05
1.56849e-05
1.5642e-05
1.5587e-05
1.55345e-05
1.99999e-05
1.98678e-05
1.95948e-05
1.93143e-05
1.90727e-05
1.89114e-05
1.87924e-05
1.86889e-05
1.85627e-05
1.84482e-05
1.83355e-05
1.82399e-05
1.81389e-05
1.80487e-05
1.79522e-05
1.78654e-05
1.77721e-05
1.76883e-05
1.75996e-05
1.75206e-05
1.74373e-05
1.73633e-05
1.72837e-05
1.72117e-05
1.71337e-05
1.70635e-05
1.69872e-05
1.69189e-05
1.68458e-05
1.67812e-05
1.67115e-05
1.66499e-05
1.65836e-05
1.65259e-05
1.64641e-05
1.64097e-05
1.63512e-05
1.63001e-05
1.62432e-05
1.61942e-05
1.61374e-05
1.60896e-05
1.60329e-05
1.59863e-05
1.59326e-05
1.58844e-05
1.58301e-05
1.57896e-05
1.57389e-05
1.5689e-05
1.99999e-05
1.98717e-05
1.96068e-05
1.93344e-05
1.90952e-05
1.89318e-05
1.88108e-05
1.87115e-05
1.85908e-05
1.84789e-05
1.83675e-05
1.8274e-05
1.81759e-05
1.80893e-05
1.7996e-05
1.79123e-05
1.7822e-05
1.77416e-05
1.7656e-05
1.75802e-05
1.75004e-05
1.74299e-05
1.73538e-05
1.72853e-05
1.72109e-05
1.71439e-05
1.70709e-05
1.70057e-05
1.69359e-05
1.68744e-05
1.68077e-05
1.67491e-05
1.6686e-05
1.66317e-05
1.65725e-05
1.6522e-05
1.64656e-05
1.64189e-05
1.63641e-05
1.63189e-05
1.62646e-05
1.62197e-05
1.61667e-05
1.61216e-05
1.60714e-05
1.60263e-05
1.59738e-05
1.59355e-05
1.58892e-05
1.58427e-05
1.99999e-05
1.98756e-05
1.96185e-05
1.93541e-05
1.91181e-05
1.89532e-05
1.883e-05
1.87337e-05
1.86182e-05
1.85095e-05
1.83994e-05
1.83076e-05
1.82121e-05
1.81289e-05
1.80387e-05
1.79578e-05
1.78706e-05
1.77932e-05
1.77104e-05
1.76378e-05
1.75614e-05
1.74943e-05
1.74217e-05
1.73567e-05
1.72858e-05
1.72219e-05
1.7152e-05
1.70899e-05
1.70235e-05
1.69649e-05
1.69011e-05
1.68455e-05
1.67855e-05
1.67344e-05
1.66781e-05
1.66307e-05
1.65779e-05
1.6534e-05
1.64831e-05
1.64398e-05
1.63896e-05
1.63467e-05
1.62979e-05
1.62546e-05
1.62067e-05
1.61658e-05
1.61154e-05
1.60786e-05
1.60365e-05
1.59943e-05
1.99999e-05
1.98793e-05
1.96298e-05
1.93734e-05
1.9141e-05
1.89753e-05
1.88499e-05
1.87555e-05
1.86448e-05
1.85395e-05
1.84309e-05
1.83405e-05
1.82474e-05
1.81674e-05
1.808e-05
1.8002e-05
1.79175e-05
1.78429e-05
1.77629e-05
1.76932e-05
1.76201e-05
1.75563e-05
1.7487e-05
1.74256e-05
1.7358e-05
1.72971e-05
1.72302e-05
1.71713e-05
1.7108e-05
1.70522e-05
1.69913e-05
1.69387e-05
1.68819e-05
1.68334e-05
1.67803e-05
1.67357e-05
1.66869e-05
1.66453e-05
1.65986e-05
1.65571e-05
1.65112e-05
1.64705e-05
1.6425e-05
1.63849e-05
1.6338e-05
1.63016e-05
1.62545e-05
1.62181e-05
1.618e-05
1.61427e-05
1.99999e-05
1.98829e-05
1.96407e-05
1.9392e-05
1.91636e-05
1.89979e-05
1.88704e-05
1.8777e-05
1.86704e-05
1.85689e-05
1.84619e-05
1.83727e-05
1.82816e-05
1.82046e-05
1.812e-05
1.80447e-05
1.79629e-05
1.78908e-05
1.78132e-05
1.77464e-05
1.76763e-05
1.76156e-05
1.75497e-05
1.74918e-05
1.74274e-05
1.73693e-05
1.73054e-05
1.72496e-05
1.71893e-05
1.71361e-05
1.70781e-05
1.70283e-05
1.69745e-05
1.69287e-05
1.68786e-05
1.68371e-05
1.67916e-05
1.67533e-05
1.67092e-05
1.66716e-05
1.66276e-05
1.65916e-05
1.6547e-05
1.65114e-05
1.64662e-05
1.64322e-05
1.63907e-05
1.63543e-05
1.63181e-05
1.62871e-05
1.99999e-05
1.98864e-05
1.96512e-05
1.94099e-05
1.91858e-05
1.90207e-05
1.88912e-05
1.87983e-05
1.86952e-05
1.85974e-05
1.84922e-05
1.84042e-05
1.83149e-05
1.82406e-05
1.81585e-05