/*--------------------------------*- C++ -*----------------------------------*\
  =========                 |
  \\      /  F ield         | OpenFOAM: The Open Source CFD Toolbox
   \\    /   O peration     | Website:  https://openfoam.org
    \\  /    A nd           | Version:  7
     \\/     M anipulation  |
\*---------------------------------------------------------------------------*/
FoamFile
{
    version     2.0;
    format      ascii;
    class       surfaceScalarField;
    location    "0.04";
    object      phi;
}
// * * * * * * * * * * * * * * * * * * * * * * * * * * * * * * * * * * * * * //

dimensions      [0 3 -1 0 0 0 0];

internalField   nonuniform List<scalar> 
139350
(
6.45919e-08
9.20396e-08
3.19497e-08
3.26422e-08
2.30579e-08
8.89173e-09
1.95632e-08
3.4947e-09
1.76113e-08
1.95193e-09
1.61837e-08
1.42758e-09
1.50508e-08
1.13289e-09
1.41371e-08
9.13738e-10
1.33849e-08
7.52176e-10
1.27511e-08
6.33773e-10
1.22069e-08
5.44213e-10
1.17329e-08
4.74015e-10
1.13154e-08
4.1756e-10
1.0944e-08
3.7132e-10
1.06111e-08
3.32893e-10
1.03106e-08
3.00559e-10
1.00375e-08
2.73057e-10
9.78808e-09
2.49442e-10
9.55908e-09
2.28998e-10
9.34792e-09
2.11167e-10
9.1524e-09
1.95514e-10
8.97071e-09
1.81692e-10
8.80129e-09
1.69421e-10
8.64282e-09
1.58474e-10
8.49415e-09
1.48665e-10
8.35432e-09
1.39837e-10
8.22245e-09
1.31861e-10
8.09782e-09
1.24631e-10
7.97978e-09
1.18048e-10
7.86773e-09
1.12044e-10
7.7612e-09
1.06536e-10
7.6597e-09
1.01492e-10
7.56288e-09
9.68206e-11
7.47034e-09
9.25459e-11
7.38181e-09
8.85248e-11
7.29693e-09
8.48848e-11
7.21556e-09
8.13664e-11
7.13729e-09
7.82662e-11
7.06214e-09
7.51527e-11
6.98965e-09
7.2488e-11
6.91983e-09
6.98263e-11
6.85253e-09
6.72955e-11
6.78688e-09
6.56553e-11
6.7248e-09
6.2079e-11
6.66089e-09
6.39087e-11
6.60633e-09
5.45589e-11
6.53533e-09
7.09961e-11
6.51151e-09
2.38215e-11
6.28158e-09
2.29926e-10
-2.8477e-09
9.12929e-09
1.26025e-07
1.27458e-07
9.12608e-08
6.74063e-08
7.19384e-08
2.82141e-08
6.12108e-08
1.42224e-08
5.47645e-08
8.39825e-09
5.0271e-08
5.92104e-09
4.67875e-08
4.61641e-09
4.39724e-08
3.72885e-09
4.16464e-08
3.07814e-09
3.96848e-08
2.59534e-09
3.80005e-08
2.22851e-09
3.65334e-08
1.94112e-09
3.52408e-08
1.71017e-09
3.40911e-08
1.52103e-09
3.30602e-08
1.36382e-09
3.21292e-08
1.2315e-09
3.12834e-08
1.11892e-09
3.05106e-08
1.02223e-09
2.98011e-08
9.38488e-10
2.91468e-08
8.65432e-10
2.85411e-08
8.0128e-10
2.79781e-08
7.44612e-10
2.74533e-08
6.94288e-10
2.69624e-08
6.49375e-10
2.65019e-08
6.09111e-10
2.60689e-08
5.7286e-10
2.56607e-08
5.40091e-10
2.5275e-08
5.10361e-10
2.49097e-08
4.83285e-10
2.45632e-08
4.58555e-10
2.42339e-08
4.35866e-10
2.39203e-08
4.15031e-10
2.36214e-08
3.95749e-10
2.3336e-08
3.77996e-10
2.30631e-08
3.61351e-10
2.28019e-08
3.461e-10
2.25518e-08
3.3144e-10
2.23118e-08
3.1831e-10
2.20819e-08
3.05041e-10
2.18606e-08
2.93834e-10
2.1649e-08
2.81421e-10
2.14443e-08
2.71975e-10
2.12497e-08
2.60267e-10
2.10601e-08
2.51658e-10
2.08813e-08
2.42741e-10
2.07074e-08
2.28406e-10
2.05362e-08
2.42197e-10
2.04187e-08
1.41368e-10
2.01235e-08
5.25102e-10
-3.32166e-09
2.05975e-08
1.58806e-07
1.35056e-07
1.36492e-07
8.97209e-08
1.17489e-07
4.72171e-08
1.0331e-07
2.84011e-08
9.33031e-08
1.84052e-08
8.60017e-08
1.32224e-08
8.02968e-08
1.03213e-08
7.56469e-08
8.37881e-09
7.17696e-08
6.95541e-09
6.84781e-08
5.88684e-09
6.56392e-08
5.06746e-09
6.31579e-08
4.42233e-09
6.09658e-08
3.90227e-09
5.90116e-08
3.47525e-09
5.7256e-08
3.11948e-09
5.5668e-08
2.81943e-09
5.42233e-08
2.56369e-09
5.29018e-08
2.34371e-09
5.16873e-08
2.15294e-09
5.05665e-08
1.98632e-09
4.95279e-08
1.83984e-09
4.85622e-08
1.71034e-09
4.76612e-08
1.59523e-09
4.68182e-08
1.49241e-09
4.60271e-08
1.40017e-09
4.52829e-08
1.31706e-09
4.45811e-08
1.2419e-09
4.39178e-08
1.17365e-09
4.32897e-08
1.11147e-09
4.26936e-08
1.05463e-09
4.2127e-08
1.00247e-09
4.15875e-08
9.54503e-10
4.10731e-08
9.10131e-10
4.0582e-08
8.69167e-10
4.01125e-08
8.30821e-10
3.96631e-08
7.95497e-10
3.92329e-08
7.61661e-10
3.88201e-08
7.31101e-10
3.84249e-08
7.0026e-10
3.80445e-08
6.74187e-10
3.76814e-08
6.44499e-10
3.73299e-08
6.23451e-10
3.69978e-08
5.92425e-10
3.66718e-08
5.77627e-10
3.63713e-08
5.43232e-10
3.60691e-08
5.30609e-10
3.57971e-08
5.14243e-10
3.55547e-08
3.83771e-10
3.529e-08
7.89789e-10
-2.81872e-09
3.47871e-08
1.75663e-07
1.30908e-07
1.65592e-07
9.97919e-08
1.52719e-07
6.00903e-08
1.40119e-07
4.10016e-08
1.29429e-07
2.9095e-08
1.20786e-07
2.1865e-08
1.13675e-07
1.74321e-08
1.07696e-07
1.43579e-08
1.02597e-07
1.20541e-08
9.81968e-08
1.02875e-08
9.43546e-08
8.90971e-09
9.0965e-08
7.81189e-09
8.79482e-08
6.9191e-09
8.52425e-08
6.18094e-09
8.27996e-08
5.5624e-09
8.05808e-08
5.03821e-09
7.85549e-08
4.58961e-09
7.66962e-08
4.20237e-09
7.49836e-08
3.86553e-09
7.33994e-08
3.57055e-09
7.19286e-08
3.31064e-09
7.05586e-08
3.08036e-09
6.92785e-08
2.8753e-09
6.80791e-08
2.69184e-09
6.69522e-08
2.52701e-09
6.5891e-08
2.3783e-09
6.48892e-08
2.24364e-09
6.39416e-08
2.12125e-09
6.30435e-08
2.00963e-09
6.21906e-08
1.9075e-09
6.13793e-08
1.81372e-09
6.06065e-08
1.72738e-09
5.98691e-08
1.64751e-09
5.91646e-08
1.57364e-09
5.84909e-08
1.50455e-09
5.78457e-08
1.4407e-09
5.72276e-08
1.37971e-09
5.66345e-08
1.32428e-09
5.60661e-08
1.26861e-09
5.55191e-08
1.22117e-09
5.49964e-08
1.16721e-09
5.44907e-08
1.12913e-09
5.40119e-08
1.07123e-09
5.35431e-08
1.04647e-09
5.31091e-08
9.77174e-10
5.2675e-08
9.64746e-10
5.22853e-08
9.03985e-10
5.19131e-08
7.55904e-10
5.16083e-08
1.0946e-09
-2.04071e-09
5.08303e-08
1.8456e-07
1.23134e-07
1.82319e-07
1.02033e-07
1.76098e-07
6.6311e-08
1.67753e-07
4.93468e-08
1.59128e-07
3.77196e-08
1.51219e-07
2.97748e-08
1.44146e-07
2.45045e-08
1.37847e-07
2.06566e-08
1.32248e-07
1.76532e-08
1.27265e-07
1.52711e-08
1.22811e-07
1.33637e-08
1.1881e-07
1.18128e-08
1.15197e-07
1.05317e-08
1.11919e-07
9.4591e-09
1.08931e-07
8.55096e-09
1.06194e-07
7.77467e-09
1.03678e-07
7.10543e-09
1.01357e-07
6.5241e-09
9.92064e-08
6.0157e-09
9.72086e-08
5.56837e-09
9.53466e-08
5.17259e-09
9.36063e-08
4.82065e-09
9.19754e-08
4.50625e-09
9.0443e-08
4.22416e-09
8.9e-08
3.97005e-09
8.7638e-08
3.74027e-09
8.63499e-08
3.53177e-09
8.51293e-08
3.3419e-09
8.39704e-08
3.16846e-09
8.28684e-08
3.00952e-09
8.18188e-08
2.86338e-09
8.08175e-08
2.72867e-09
7.9861e-08
2.60394e-09
7.89463e-08
2.48841e-09
7.80704e-08
2.38038e-09
7.72309e-08
2.28028e-09
7.64257e-08
2.18485e-09
7.56523e-08
2.09768e-09
7.49103e-08
2.01066e-09
7.41958e-08
1.93562e-09
7.35116e-08
1.85146e-09
7.28501e-08
1.79057e-09
7.22209e-08
1.70048e-09
7.16076e-08
1.65973e-09
7.1033e-08
1.55176e-09
7.04671e-08
1.5307e-09
6.99458e-08
1.42523e-09
6.94507e-08
1.25106e-09
6.9032e-08
1.51326e-09
-1.17254e-09
6.81638e-08
1.90388e-07
1.14963e-07
1.9185e-07
1.00571e-07
1.90239e-07
6.79214e-08
1.86146e-07
5.34401e-08
1.80705e-07
4.31608e-08
1.74948e-07
3.55313e-08
1.6925e-07
3.02023e-08
1.63766e-07
2.61407e-08
1.58592e-07
2.28278e-08
1.53769e-07
2.00942e-08
1.493e-07
1.78326e-08
1.45168e-07
1.59442e-08
1.4135e-07
1.43498e-08
1.37819e-07
1.29904e-08
1.34548e-07
1.18218e-08
1.31513e-07
1.08099e-08
1.2869e-07
9.92783e-09
1.2606e-07
9.15432e-09
1.23604e-07
8.47225e-09
1.21304e-07
7.86776e-09
1.19147e-07
7.32953e-09
1.1712e-07
6.84822e-09
1.1521e-07
6.41609e-09
1.13407e-07
6.02664e-09
1.11703e-07
5.67442e-09
1.10089e-07
5.35477e-09
1.08557e-07
5.06377e-09
1.071e-07
4.79801e-09
1.05714e-07
4.55461e-09
1.04393e-07
4.331e-09
1.03131e-07
4.12499e-09
1.01925e-07
3.9347e-09
1.00771e-07
3.75824e-09
9.96649e-08
3.59447e-09
9.8604e-08
3.44124e-09
9.75854e-08
3.2989e-09
9.66069e-08
3.16338e-09
9.56656e-08
3.03894e-09
9.47608e-08
2.9155e-09
9.38888e-08
2.80763e-09
9.30513e-08
2.68893e-09
9.22421e-08
2.59978e-09
9.1468e-08
2.47458e-09
9.0717e-08
2.41069e-09
9.00039e-08
2.26484e-09
8.93123e-08
2.22234e-09
8.86571e-08
2.08048e-09
8.80446e-08
1.86352e-09
8.74935e-08
2.06435e-09
-2.16961e-10
8.65379e-08
1.9554e-07
1.07237e-07
1.98245e-07
9.78656e-08
1.98964e-07
6.72026e-08
1.9778e-07
5.46237e-08
1.95145e-07
4.57962e-08
1.918e-07
3.88761e-08
1.88066e-07
3.39366e-08
1.84114e-07
3.00929e-08
1.80093e-07
2.68487e-08
1.76113e-07
2.40739e-08
1.72243e-07
2.1703e-08
1.6852e-07
1.96668e-08
1.64965e-07
1.79045e-08
1.61587e-07
1.63692e-08
1.58384e-07
1.50242e-08
1.55354e-07
1.38404e-08
1.52488e-07
1.27936e-08
1.49778e-07
1.1864e-08
1.47215e-07
1.10353e-08
1.44789e-07
1.02936e-08
1.42492e-07
9.62738e-09
1.40313e-07
9.02704e-09
1.38244e-07
8.48429e-09
1.36279e-07
7.9921e-09
1.34409e-07
7.54445e-09
1.32628e-07
7.13613e-09
1.30929e-07
6.7627e-09
1.29307e-07
6.42023e-09
1.27756e-07
6.10537e-09
1.26272e-07
5.81512e-09
1.2485e-07
5.54689e-09
1.23486e-07
5.29838e-09
1.22177e-07
5.06738e-09
1.20919e-07
4.85244e-09
1.19709e-07
4.65102e-09
1.18545e-07
4.46336e-09
1.17423e-07
4.28477e-09
1.16342e-07
4.11991e-09
1.15301e-07
3.95726e-09
1.14295e-07
3.8132e-09
1.13326e-07
3.65776e-09
1.1239e-07
3.53625e-09
1.11489e-07
3.37531e-09
1.10618e-07
3.28183e-09
1.09781e-07
3.10153e-09
1.08978e-07
3.02558e-09
1.08202e-07
2.85672e-09
1.07478e-07
2.58689e-09
1.06808e-07
2.73457e-09
8.26092e-10
1.05765e-07
2.00847e-07
9.99744e-08
2.03774e-07
9.49393e-08
2.05323e-07
6.56538e-08
2.05635e-07
5.43111e-08
2.04805e-07
4.66262e-08
2.0332e-07
4.03609e-08
2.01369e-07
3.58877e-08
1.99036e-07
3.24258e-08
1.96428e-07
2.94577e-08
1.93645e-07
2.68564e-08
1.9077e-07
2.45784e-08
1.87861e-07
2.25749e-08
1.84965e-07
2.08012e-08
1.82111e-07
1.92226e-08
1.79323e-07
1.78126e-08
1.76614e-07
1.65493e-08
1.73994e-07
1.54142e-08
1.71466e-07
1.43916e-08
1.69033e-07
1.3468e-08
1.66695e-07
1.26316e-08
1.6445e-07
1.18725e-08
1.62295e-07
1.11818e-08
1.60228e-07
1.0552e-08
1.58243e-07
9.97631e-09
1.56339e-07
9.44899e-09
1.5451e-07
8.96486e-09
1.52753e-07
8.51944e-09
1.51065e-07
8.10873e-09
1.49441e-07
7.72924e-09
1.47878e-07
7.3778e-09
1.46374e-07
7.05165e-09
1.44924e-07
6.74831e-09
1.43526e-07
6.46537e-09
1.42177e-07
6.2012e-09
1.40875e-07
5.95302e-09
1.39617e-07
5.72096e-09
1.38402e-07
5.49997e-09
1.37227e-07
5.29487e-09
1.36091e-07
5.0933e-09
1.34992e-07
4.9125e-09
1.33929e-07
4.72077e-09
1.329e-07
4.56519e-09
1.31905e-07
4.37015e-09
1.30944e-07
4.24305e-09
1.30012e-07
4.03288e-09
1.29122e-07
3.91587e-09
1.28252e-07
3.72667e-09
1.27434e-07
3.40464e-09
1.26669e-07
3.4999e-09
1.9323e-09
1.25563e-07
2.06446e-07
9.30602e-08
2.09337e-07
9.20484e-08
2.11032e-07
6.39588e-08
2.11923e-07
5.34202e-08
2.11989e-07
4.65606e-08
2.11599e-07
4.07508e-08
2.10866e-07
3.66207e-08
2.09793e-07
3.34992e-08
2.08416e-07
3.08341e-08
2.06795e-07
2.84774e-08
2.04985e-07
2.63883e-08
2.03035e-07
2.45247e-08
2.00988e-07
2.28484e-08
1.98879e-07
2.13316e-08
1.96738e-07
1.99541e-08
1.94587e-07
1.87001e-08
1.92445e-07
1.75563e-08
1.90325e-07
1.6511e-08
1.88239e-07
1.55542e-08
1.86194e-07
1.46772e-08
1.84194e-07
1.3872e-08
1.82244e-07
1.31318e-08
1.80346e-07
1.24502e-08
1.78501e-07
1.18216e-08
1.76708e-07
1.12411e-08
1.74969e-07
1.07041e-08
1.73282e-07
1.02065e-08
1.71646e-07
9.74472e-09
1.7006e-07
9.31547e-09
1.68522e-07
8.91572e-09
1.67031e-07
8.54281e-09
1.65585e-07
8.1943e-09
1.64182e-07
7.86782e-09
1.62822e-07
7.56168e-09
1.61502e-07
7.27307e-09
1.60221e-07
7.00209e-09
1.58977e-07
6.74354e-09
1.5777e-07
6.50225e-09
1.56598e-07
6.26562e-09
1.55459e-07
6.05091e-09
1.54354e-07
5.82632e-09
1.53281e-07
5.6381e-09
1.52238e-07
5.41289e-09
1.51229e-07
5.25158e-09
1.50245e-07
5.01693e-09
1.49304e-07
4.85679e-09
1.4838e-07
4.65154e-09
1.47498e-07
4.28611e-09
1.4667e-07
4.32827e-09
3.06459e-09
1.45537e-07
2.12288e-07
8.64343e-08
2.1515e-07
8.91865e-08
2.16786e-07
6.23223e-08
2.17835e-07
5.23712e-08
2.18247e-07
4.61487e-08
2.1836e-07
4.06382e-08
2.18281e-07
3.67001e-08
2.17978e-07
3.38018e-08
2.17445e-07
3.13673e-08
2.16699e-07
2.92227e-08
2.15766e-07
2.73217e-08
2.1467e-07
2.5621e-08
2.13437e-07
2.40818e-08
2.12091e-07
2.26769e-08
2.10657e-07
2.13879e-08
2.09156e-07
2.02013e-08
2.07606e-07
1.91063e-08
2.06023e-07
1.8094e-08
2.0442e-07
1.7157e-08
2.02809e-07
1.62885e-08
2.01198e-07
1.54827e-08
1.99596e-07
1.47345e-08
1.98007e-07
1.40389e-08
1.96437e-07
1.33916e-08
1.94889e-07
1.27888e-08
1.93367e-07
1.22267e-08
1.91871e-07
1.1702e-08
1.90404e-07
1.12117e-08
1.88967e-07
1.07528e-08
1.8756e-07
1.03229e-08
1.86183e-07
9.91944e-09
1.84837e-07
9.54034e-09
1.83521e-07
9.18339e-09
1.82236e-07
8.84705e-09
1.80981e-07
8.5286e-09
1.79754e-07
8.22822e-09
1.78557e-07
7.94074e-09
1.77388e-07
7.67097e-09
1.76248e-07
7.40648e-09
1.75135e-07
7.16401e-09
1.74048e-07
6.9129e-09
1.72989e-07
6.69667e-09
1.71955e-07
6.44746e-09
1.70951e-07
6.25497e-09
1.69966e-07
6.0021e-09
1.69021e-07
5.80191e-09
1.68089e-07
5.5841e-09
1.67186e-07
5.18885e-09
1.66335e-07
5.17939e-09
4.17954e-09
1.6522e-07
2.18329e-07
8.00857e-08
2.21204e-07
8.63122e-08
2.22759e-07
6.07669e-08
2.23835e-07
5.12955e-08
2.24356e-07
4.56274e-08
2.24646e-07
4.03478e-08
2.24843e-07
3.65033e-08
2.24919e-07
3.37262e-08
2.24851e-07
3.1435e-08
2.2464e-07
2.94336e-08
2.24291e-07
2.76711e-08
2.23809e-07
2.61028e-08
2.23203e-07
2.46871e-08
2.22486e-07
2.33943e-08
2.21669e-07
2.22049e-08
2.20765e-07
2.11049e-08
2.19788e-07
2.00838e-08
2.18749e-07
1.91334e-08
2.17659e-07
1.8247e-08
2.16528e-07
1.7419e-08
2.15366e-07
1.66446e-08
2.14181e-07
1.59197e-08
2.12979e-07
1.52405e-08
2.11767e-07
1.46035e-08
2.1055e-07
1.40058e-08
2.09333e-07
1.34444e-08
2.08118e-07
1.29168e-08
2.06909e-07
1.24202e-08
2.0571e-07
1.19527e-08
2.04521e-07
1.15118e-08
2.03344e-07
1.10958e-08
2.02182e-07
1.07026e-08
2.01035e-07
1.03303e-08
1.99904e-07
9.97783e-09
1.9879e-07
9.64247e-09
1.97694e-07
9.32459e-09
1.96616e-07
9.01922e-09
1.95555e-07
8.73111e-09
1.94514e-07
8.4483e-09
1.93491e-07
8.18663e-09
1.92486e-07
7.91749e-09
1.91503e-07
7.68037e-09
1.90535e-07
7.41504e-09
1.89593e-07
7.19735e-09
1.88662e-07
6.93335e-09
1.87763e-07
6.70023e-09
1.86874e-07
6.47355e-09
1.85998e-07
6.06416e-09
1.8517e-07
6.00786e-09
5.23147e-09
1.84118e-07
2.24558e-07
7.40209e-08
2.27468e-07
8.34025e-08
2.28956e-07
5.92791e-08
2.30036e-07
5.02146e-08
2.30599e-07
4.5065e-08
2.30938e-07
4.00088e-08
2.31224e-07
3.62172e-08
2.31448e-07
3.35027e-08
2.31588e-07
3.12941e-08
2.31645e-07
2.93774e-08
2.31616e-07
2.77001e-08
2.315e-07
2.62187e-08
2.31297e-07
2.48902e-08
2.31008e-07
2.3683e-08
2.30637e-07
2.25755e-08
2.3019e-07
2.15525e-08
2.29671e-07
2.06026e-08
2.29087e-07
1.97171e-08
2.28445e-07
1.88889e-08
2.27752e-07
1.81125e-08
2.27013e-07
1.73833e-08
2.26235e-07
1.66974e-08
2.25424e-07
1.60514e-08
2.24585e-07
1.54425e-08
2.23723e-07
1.48679e-08
2.22843e-07
1.43252e-08
2.21947e-07
1.38123e-08
2.2104e-07
1.3327e-08
2.20126e-07
1.28675e-08
2.19205e-07
1.2432e-08
2.18282e-07
1.20188e-08
2.17359e-07
1.16263e-08
2.16436e-07
1.12529e-08
2.15516e-07
1.08975e-08
2.14601e-07
1.05578e-08
2.13691e-07
1.02344e-08
2.12788e-07
9.92237e-09
2.11893e-07
9.62652e-09
2.11006e-07
9.3355e-09
2.10128e-07
9.06402e-09
2.0926e-07
8.78609e-09
2.08404e-07
8.53637e-09
2.07555e-07
8.26349e-09
2.06724e-07
8.02829e-09
2.05897e-07
7.76044e-09
2.05093e-07
7.50399e-09
2.04294e-07
7.27252e-09
2.03494e-07
6.86452e-09
2.02733e-07
6.76927e-09
6.17781e-09
2.01786e-07
2.30979e-07
6.8248e-08
2.33932e-07
8.0449e-08
2.35361e-07
5.78505e-08
2.36448e-07
4.91277e-08
2.37044e-07
4.4469e-08
2.37398e-07
3.96546e-08
2.37705e-07
3.59096e-08
2.37975e-07
3.32334e-08
2.38191e-07
3.10777e-08
2.38356e-07
2.9212e-08
2.38473e-07
2.75836e-08
2.38539e-07
2.61529e-08
2.38551e-07
2.48776e-08
2.38509e-07
2.37253e-08
2.38411e-07
2.26734e-08
2.38258e-07
2.17057e-08
2.38051e-07
2.081e-08
2.37791e-07
1.99767e-08
2.37482e-07
1.91984e-08
2.37125e-07
1.84689e-08
2.36725e-07
1.77834e-08
2.36285e-07
1.71377e-08
2.35808e-07
1.65286e-08
2.35297e-07
1.59529e-08
2.34757e-07
1.54083e-08
2.3419e-07
1.48923e-08
2.33599e-07
1.4403e-08
2.32987e-07
1.39385e-08
2.32358e-07
1.3497e-08
2.31713e-07
1.3077e-08
2.31055e-07
1.26769e-08
2.30386e-07
1.22953e-08
2.29708e-07
1.19309e-08
2.29023e-07
1.15827e-08
2.28332e-07
1.12485e-08
2.27637e-07
1.0929e-08
2.2694e-07
1.06197e-08
2.26241e-07
1.03251e-08
2.25542e-07
1.00347e-08
2.24844e-07
9.76181e-09
2.24147e-07
9.48345e-09
2.23454e-07
9.22898e-09
2.22761e-07
8.95638e-09
2.22078e-07
8.71161e-09
2.21392e-07
8.44642e-09
2.20719e-07
8.17693e-09
2.20047e-07
7.94478e-09
2.1936e-07
7.55164e-09
2.18702e-07
7.42722e-09
6.98542e-09
2.17894e-07
2.376e-07
6.2773e-08
2.406e-07
7.74492e-08
2.41971e-07
5.64792e-08
2.43063e-07
4.8036e-08
2.43696e-07
4.38361e-08
2.44063e-07
3.92871e-08
2.44376e-07
3.55967e-08
2.44658e-07
3.29518e-08
2.44897e-07
3.08387e-08
2.45098e-07
2.90102e-08
2.45269e-07
2.74128e-08
2.4541e-07
2.60121e-08
2.4552e-07
2.47679e-08
2.45597e-07
2.3648e-08
2.45641e-07
2.26298e-08
2.4565e-07
2.16967e-08
2.45623e-07
2.08364e-08
2.45561e-07
2.00388e-08
2.45464e-07
1.92959e-08
2.45331e-07
1.86014e-08
2.45165e-07
1.79498e-08
2.44966e-07
1.7337e-08
2.44735e-07
1.67591e-08
2.44475e-07
1.62133e-08
2.44186e-07
1.56967e-08
2.43872e-07
1.5207e-08
2.43532e-07
1.47421e-08
2.43171e-07
1.43002e-08
2.42788e-07
1.38796e-08
2.42387e-07
1.34786e-08
2.41968e-07
1.30958e-08
2.41533e-07
1.273e-08
2.41084e-07
1.23796e-08
2.40623e-07
1.20439e-08
2.40151e-07
1.17209e-08
2.39668e-07
1.14112e-08
2.39178e-07
1.11106e-08
2.3868e-07
1.08232e-08
2.38175e-07
1.05395e-08
2.37666e-07
1.02711e-08
2.37151e-07
9.99843e-09
2.36634e-07
9.74528e-09
2.36112e-07
9.47885e-09
2.35592e-07
9.2313e-09
2.35065e-07
8.97355e-09
2.34542e-07
8.70032e-09
2.34015e-07
8.471e-09
2.33464e-07
8.10276e-09
2.32932e-07
7.95935e-09
7.63587e-09
2.32282e-07
2.4443e-07
5.75993e-08
2.47469e-07
7.44099e-08
2.48791e-07
5.5157e-08
2.49883e-07
4.69441e-08
2.50555e-07
4.31645e-08
2.50939e-07
3.89026e-08
2.51257e-07
3.52796e-08
2.51544e-07
3.26649e-08
2.5179e-07
3.05921e-08
2.52003e-07
2.87976e-08
2.5219e-07
2.72252e-08
2.52357e-07
2.58456e-08
2.52503e-07
2.46217e-08
2.52629e-07
2.35219e-08
2.52735e-07
2.25239e-08
2.5282e-07
2.16117e-08
2.52884e-07
2.07727e-08
2.52925e-07
1.99971e-08
2.52945e-07
1.92767e-08
2.52941e-07
1.86049e-08
2.52915e-07
1.79763e-08
2.52865e-07
1.73863e-08
2.52793e-07
1.68311e-08
2.52699e-07
1.63074e-08
2.52583e-07
1.58125e-08
2.52446e-07
1.53438e-08
2.52289e-07
1.48992e-08
2.52113e-07
1.44768e-08
2.51918e-07
1.40747e-08
2.51705e-07
1.36913e-08
2.51476e-07
1.33252e-08
2.51231e-07
1.2975e-08
2.50971e-07
1.26393e-08
2.50697e-07
1.23173e-08
2.50411e-07
1.2007e-08
2.50114e-07
1.1709e-08
2.49805e-07
1.14193e-08
2.49486e-07
1.11417e-08
2.49158e-07
1.08675e-08
2.48823e-07
1.06068e-08
2.48478e-07
1.03431e-08
2.48128e-07
1.00949e-08
2.47769e-07
9.83792e-09
2.47408e-07
9.5924e-09
2.47037e-07
9.34466e-09
2.46663e-07
9.07485e-09
2.46283e-07
8.85074e-09
2.45872e-07
8.51337e-09
2.45471e-07
8.36013e-09
8.12774e-09
2.4498e-07
2.51477e-07
5.27289e-08
2.54547e-07
7.13404e-08
2.5583e-07
5.38734e-08
2.56917e-07
4.58576e-08
2.57626e-07
4.24554e-08
2.5803e-07
3.84981e-08
2.58353e-07
3.49568e-08
2.58645e-07
3.23729e-08
2.58897e-07
3.03405e-08
2.59114e-07
2.85807e-08
2.59307e-07
2.70324e-08
2.59481e-07
2.56713e-08
2.59639e-07
2.44637e-08
2.59782e-07
2.33788e-08
2.59911e-07
2.23949e-08
2.60026e-07
2.14962e-08
2.60128e-07
2.06708e-08
2.60217e-07
1.99087e-08
2.60291e-07
1.92021e-08
2.60352e-07
1.85444e-08
2.60398e-07
1.793e-08
2.6043e-07
1.73545e-08
2.60447e-07
1.68139e-08
2.6045e-07
1.63049e-08
2.60438e-07
1.58246e-08
2.60411e-07
1.53705e-08
2.6037e-07
1.49404e-08
2.60314e-07
1.45323e-08
2.60245e-07
1.41442e-08
2.60161e-07
1.37745e-08
2.60065e-07
1.34216e-08
2.59956e-07
1.30843e-08
2.59834e-07
1.27609e-08
2.59701e-07
1.24508e-08
2.59556e-07
1.21518e-08
2.594e-07
1.18646e-08
2.59234e-07
1.15853e-08
2.59059e-07
1.13172e-08
2.58873e-07
1.10528e-08
2.5868e-07
1.08002e-08
2.58477e-07
1.05461e-08
2.58268e-07
1.03042e-08
2.58048e-07
1.00575e-08
2.57824e-07
9.81667e-09
2.57589e-07
9.5794e-09
2.57346e-07
9.31757e-09
2.57097e-07
9.09981e-09
2.56815e-07
8.79533e-09
2.56536e-07
8.63948e-09
8.47505e-09
2.56189e-07
2.5875e-07
4.81618e-08
2.6184e-07
6.82507e-08
2.63095e-07
5.26179e-08
2.64171e-07
4.47816e-08
2.64915e-07
4.17113e-08
2.65342e-07
3.80717e-08
2.65671e-07
3.46273e-08
2.65969e-07
3.20754e-08
2.66226e-07
3.00835e-08
2.66447e-07
2.836e-08
2.66642e-07
2.68367e-08
2.66819e-07
2.54942e-08
2.66981e-07
2.4302e-08
2.67129e-07
2.32305e-08
2.67266e-07
2.22584e-08
2.67392e-07
2.13704e-08
2.67507e-07
2.05549e-08
2.67614e-07
1.98023e-08
2.67711e-07
1.91049e-08
2.67799e-07
1.84563e-08
2.67878e-07
1.7851e-08
2.67948e-07
1.72845e-08
2.68009e-07
1.67529e-08
2.68061e-07
1.62531e-08
2.68104e-07
1.57821e-08
2.68137e-07
1.53374e-08
2.68161e-07
1.49166e-08
2.68175e-07
1.45179e-08
2.6818e-07
1.41392e-08
2.68176e-07
1.37789e-08
2.68162e-07
1.34353e-08
2.68139e-07
1.31071e-08
2.68107e-07
1.27927e-08
2.68066e-07
1.24915e-08
2.68017e-07
1.22012e-08
2.67959e-07
1.19224e-08
2.67893e-07
1.16514e-08
2.67819e-07
1.13911e-08
2.67737e-07
1.11349e-08
2.67648e-07
1.08892e-08
2.67551e-07
1.06438e-08
2.67447e-07
1.04077e-08
2.67334e-07
1.01704e-08
2.67216e-07
9.93505e-09
2.67088e-07
9.70719e-09
2.6695e-07
9.45554e-09
2.66806e-07
9.24427e-09
2.6663e-07
8.97153e-09
2.66451e-07
8.81809e-09
8.70251e-09
2.66223e-07
2.66258e-07
4.38963e-08
2.69357e-07
6.51515e-08
2.70595e-07
5.138e-08
2.71656e-07
4.37203e-08
2.72432e-07
4.09355e-08
2.72882e-07
3.76216e-08
2.73219e-07
3.42902e-08
2.73522e-07
3.17724e-08
2.73785e-07
2.98208e-08
2.7401e-07
2.81351e-08
2.74208e-07
2.66383e-08
2.74387e-07
2.53149e-08
2.74551e-07
2.41383e-08
2.74701e-07
2.30802e-08
2.7484e-07
2.21195e-08
2.74969e-07
2.12414e-08
2.75089e-07
2.04346e-08
2.75202e-07
1.96899e-08
2.75307e-07
1.89998e-08
2.75405e-07
1.8358e-08
2.75497e-07
1.77591e-08
2.75583e-07
1.71989e-08
2.75662e-07
1.66734e-08
2.75736e-07
1.61795e-08
2.75803e-07
1.57144e-08
2.75865e-07
1.52756e-08
2.75921e-07
1.48608e-08
2.75971e-07
1.44679e-08
2.76015e-07
1.40952e-08
2.76053e-07
1.37409e-08
2.76085e-07
1.34033e-08
2.76111e-07
1.30811e-08
2.76131e-07
1.27727e-08
2.76145e-07
1.24774e-08
2.76153e-07
1.2193e-08
2.76156e-07
1.19199e-08
2.76152e-07
1.16549e-08
2.76143e-07
1.14001e-08
2.76128e-07
1.11501e-08
2.76108e-07
1.09095e-08
2.7608e-07
1.06708e-08
2.76049e-07
1.04395e-08
2.76009e-07
1.02097e-08
2.75965e-07
9.97972e-09
2.75912e-07
9.75947e-09
2.75849e-07
9.51852e-09
2.7578e-07
9.3133e-09
2.75683e-07
9.06914e-09
2.7558e-07
8.92113e-09
8.83909e-09
2.75443e-07
2.74009e-07
3.9929e-08
2.77106e-07
6.20537e-08
2.78337e-07
5.01496e-08
2.7938e-07
4.26775e-08
2.80183e-07
4.01321e-08
2.80658e-07
3.71463e-08
2.81004e-07
3.39446e-08
2.81312e-07
3.1464e-08
2.81581e-07
2.9552e-08
2.81811e-07
2.79055e-08
2.82012e-07
2.64369e-08
2.82193e-07
2.51334e-08
2.82359e-07
2.3973e-08
2.82511e-07
2.29285e-08
2.82651e-07
2.19794e-08
2.82781e-07
2.11112e-08
2.82903e-07
2.03129e-08
2.83017e-07
1.95757e-08
2.83124e-07
1.88923e-08
2.83226e-07
1.82565e-08
2.83322e-07
1.76631e-08
2.83413e-07
1.71079e-08
2.83499e-07
1.65871e-08
2.83581e-07
1.60976e-08
2.83659e-07
1.56367e-08
2.83732e-07
1.52019e-08
2.83802e-07
1.47911e-08
2.83868e-07
1.44022e-08
2.8393e-07
1.40333e-08
2.83988e-07
1.36828e-08
2.84042e-07
1.3349e-08
2.84092e-07
1.30307e-08
2.84139e-07
1.27261e-08
2.84182e-07
1.24345e-08
2.84221e-07
1.21539e-08
2.84256e-07
1.18845e-08
2.84288e-07
1.16235e-08
2.84316e-07
1.13722e-08
2.84339e-07
1.11265e-08
2.8436e-07
1.08894e-08
2.84375e-07
1.06555e-08
2.84387e-07
1.04277e-08
2.84393e-07
1.02036e-08
2.84394e-07
9.97825e-09
2.8439e-07
9.76379e-09
2.84375e-07
9.53306e-09
2.84355e-07
9.33336e-09
2.84311e-07
9.1137e-09
2.84259e-07
8.97265e-09
8.91238e-09
2.84186e-07
2.82012e-07
3.62545e-08
2.85097e-07
5.89687e-08
2.8633e-07
4.89169e-08
2.87351e-07
4.16558e-08
2.88177e-07
3.93059e-08
2.88679e-07
3.66444e-08
2.89035e-07
3.35894e-08
2.89348e-07
3.11502e-08
2.89623e-07
2.92772e-08
2.89858e-07
2.76711e-08
2.90062e-07
2.62321e-08
2.90246e-07
2.49495e-08
2.90414e-07
2.38058e-08
2.90567e-07
2.27754e-08
2.90708e-07
2.18382e-08
2.90839e-07
2.098e-08
2.90962e-07
2.01905e-08
2.91076e-07
1.94608e-08
2.91185e-07
1.8784e-08
2.91287e-07
1.81541e-08
2.91384e-07
1.75659e-08
2.91477e-07
1.70153e-08
2.91565e-07
1.64987e-08
2.9165e-07
1.6013e-08
2.91731e-07
1.55556e-08
2.91809e-07
1.51241e-08
2.91884e-07
1.47164e-08
2.91955e-07
1.43304e-08
2.92024e-07
1.39643e-08
2.92091e-07
1.36165e-08
2.92154e-07
1.32854e-08
2.92216e-07
1.29695e-08
2.92274e-07
1.26674e-08
2.9233e-07
1.23782e-08
2.92384e-07
1.21001e-08
2.92436e-07
1.18331e-08
2.92485e-07
1.15746e-08
2.92531e-07
1.13256e-08
2.92575e-07
1.10828e-08
2.92616e-07
1.08479e-08
2.92654e-07
1.06175e-08
2.9269e-07
1.03922e-08
2.92721e-07
1.01721e-08
2.92749e-07
9.9509e-09
2.92772e-07
9.74078e-09
2.92785e-07
9.51942e-09
2.92794e-07
9.32486e-09
2.92782e-07
9.12554e-09
2.92763e-07
8.99195e-09
8.94481e-09
2.9273e-07
2.90278e-07
3.28658e-08
2.93338e-07
5.59085e-08
2.94581e-07
4.76733e-08
2.9558e-07
4.0657e-08
2.96424e-07
3.8462e-08
2.96953e-07
3.61151e-08
2.9732e-07
3.3223e-08
2.97639e-07
3.08311e-08
2.9792e-07
2.89963e-08
2.9816e-07
2.74313e-08
2.98368e-07
2.60236e-08
2.98555e-07
2.4763e-08
2.98724e-07
2.36364e-08
2.98879e-07
2.26206e-08
2.99021e-07
2.16957e-08
2.99153e-07
2.0848e-08
2.99276e-07
2.00673e-08
2.99392e-07
1.93454e-08
2.99501e-07
1.86753e-08
2.99603e-07
1.80513e-08
2.99701e-07
1.74683e-08
2.99794e-07
1.69223e-08
2.99883e-07
1.64098e-08
2.99968e-07
1.59278e-08
3.0005e-07
1.54736e-08
3.00129e-07
1.50451e-08
3.00205e-07
1.46401e-08
3.00279e-07
1.42566e-08
3.00351e-07
1.38929e-08
3.0042e-07
1.35474e-08
3.00487e-07
1.32182e-08
3.00552e-07
1.29044e-08
3.00615e-07
1.26041e-08
3.00677e-07
1.23166e-08
3.00737e-07
1.20403e-08
3.00795e-07
1.17748e-08
3.00851e-07
1.15181e-08
3.00906e-07
1.12706e-08
3.00959e-07
1.10298e-08
3.01011e-07
1.07965e-08
3.0106e-07
1.05685e-08
3.01107e-07
1.03453e-08
3.01151e-07
1.01282e-08
3.01191e-07
9.91063e-09
3.01228e-07
9.70396e-09
3.01256e-07
9.49105e-09
3.01279e-07
9.3015e-09
3.01286e-07
9.11874e-09
3.01286e-07
8.99253e-09
8.95245e-09
3.01278e-07
2.98814e-07
2.9754e-08
3.01838e-07
5.28849e-08
3.03101e-07
4.64107e-08
3.04076e-07
3.9682e-08
3.04932e-07
3.7606e-08
3.05489e-07
3.55578e-08
3.05868e-07
3.2844e-08
3.06192e-07
3.05067e-08
3.06479e-07
2.87094e-08
3.06725e-07
2.71859e-08
3.06937e-07
2.58112e-08
3.07126e-07
2.45737e-08
3.07298e-07
2.34648e-08
3.07455e-07
2.24639e-08
3.07599e-07
2.15517e-08
3.07732e-07
2.07148e-08
3.07856e-07
1.99433e-08
3.07972e-07
1.92293e-08
3.08081e-07
1.85661e-08
3.08184e-07
1.79481e-08
3.08282e-07
1.73704e-08
3.08375e-07
1.68291e-08
3.08464e-07
1.63207e-08
3.0855e-07
1.58423e-08
3.08632e-07
1.53915e-08
3.08711e-07
1.49659e-08
3.08788e-07
1.45635e-08
3.08862e-07
1.41825e-08
3.08934e-07
1.3821e-08
3.09004e-07
1.34774e-08
3.09072e-07
1.31502e-08
3.09138e-07
1.2838e-08
3.09203e-07
1.25393e-08
3.09266e-07
1.22533e-08
3.09328e-07
1.19784e-08
3.09389e-07
1.17141e-08
3.09448e-07
1.14588e-08
3.09506e-07
1.12125e-08
3.09563e-07
1.09732e-08
3.09618e-07
1.07411e-08
3.09672e-07
1.0515e-08
3.09723e-07
1.02936e-08
3.09773e-07
1.00788e-08
3.09819e-07
9.86473e-09
3.09862e-07
9.66108e-09
3.09897e-07
9.45578e-09
3.09927e-07
9.27128e-09
3.09944e-07
9.10193e-09
3.09954e-07
8.98259e-09
8.9455e-09
3.09961e-07
3.07633e-07
2.69085e-08
3.10608e-07
4.99102e-08
3.11896e-07
4.51224e-08
3.12847e-07
3.87308e-08
3.1371e-07
3.67431e-08
3.14295e-07
3.4973e-08
3.14688e-07
3.24508e-08
3.15018e-07
3.01765e-08
3.15311e-07
2.84164e-08
3.15562e-07
2.69346e-08
3.15779e-07
2.55944e-08
3.15972e-07
2.43812e-08
3.16146e-07
2.32908e-08
3.16304e-07
2.23053e-08
3.1645e-07
2.14062e-08
3.16584e-07
2.05803e-08
3.16709e-07
1.98183e-08
3.16826e-07
1.91125e-08
3.16936e-07
1.84564e-08
3.17039e-07
1.78445e-08
3.17137e-07
1.72723e-08
3.17231e-07
1.67357e-08
3.1732e-07
1.62315e-08
3.17406e-07
1.57569e-08
3.17488e-07
1.53093e-08
3.17567e-07
1.48867e-08
3.17643e-07
1.4487e-08
3.17718e-07
1.41083e-08
3.1779e-07
1.3749e-08
3.1786e-07
1.34074e-08
3.17928e-07
1.3082e-08
3.17994e-07
1.27714e-08
3.18059e-07
1.24742e-08
3.18123e-07
1.21895e-08
3.18186e-07
1.19159e-08
3.18247e-07
1.16528e-08
3.18307e-07
1.13987e-08
3.18366e-07
1.11534e-08
3.18424e-07
1.09154e-08
3.18481e-07
1.06845e-08
3.18536e-07
1.046e-08
3.18589e-07
1.02403e-08
3.1864e-07
1.00275e-08
3.18688e-07
9.81679e-09
3.18733e-07
9.61602e-09
3.18771e-07
9.41759e-09
3.18804e-07
9.23826e-09
3.18827e-07
9.07975e-09
3.18843e-07
8.96656e-09
8.92982e-09
3.18858e-07
3.16742e-07
2.43174e-08
3.19656e-07
4.69962e-08
3.20976e-07
4.38031e-08
3.21904e-07
3.78022e-08
3.22769e-07
3.58785e-08
3.2338e-07
3.43616e-08
3.23789e-07
3.20419e-08
3.24125e-07
2.98403e-08
3.24424e-07
2.81176e-08
3.24681e-07
2.66772e-08
3.24903e-07
2.53729e-08
3.25099e-07
2.41853e-08
3.25275e-07
2.31141e-08
3.25436e-07
2.21445e-08
3.25584e-07
2.12589e-08
3.25719e-07
2.04445e-08
3.25846e-07
1.96922e-08
3.25963e-07
1.89947e-08
3.26074e-07
1.83459e-08
3.26178e-07
1.77404e-08
3.26276e-07
1.71737e-08
3.2637e-07
1.6642e-08
3.2646e-07
1.61421e-08
3.26545e-07
1.56712e-08
3.26627e-07
1.5227e-08
3.26707e-07
1.48074e-08
3.26783e-07
1.44104e-08
3.26857e-07
1.40342e-08
3.26929e-07
1.36771e-08
3.26999e-07
1.33375e-08
3.27067e-07
1.30139e-08
3.27134e-07
1.27049e-08
3.27199e-07
1.24092e-08
3.27263e-07
1.21258e-08
3.27325e-07
1.18534e-08
3.27386e-07
1.15914e-08
3.27447e-07
1.13385e-08
3.27506e-07
1.10942e-08
3.27564e-07
1.08574e-08
3.27621e-07
1.06277e-08
3.27676e-07
1.04046e-08
3.2773e-07
1.01867e-08
3.27781e-07
9.97581e-09
3.2783e-07
9.76831e-09
3.27875e-07
9.57047e-09
3.27915e-07
9.37827e-09
3.27949e-07
9.20416e-09
3.27974e-07
9.05444e-09
3.27994e-07
8.94653e-09
8.90848e-09
3.28016e-07
3.26153e-07
2.19672e-08
3.28994e-07
4.41547e-08
3.30348e-07
4.24491e-08
3.31256e-07
3.68944e-08
3.32117e-07
3.50171e-08
3.32754e-07
3.37255e-08
3.3318e-07
3.16157e-08
3.33523e-07
2.94974e-08
3.33827e-07
2.78129e-08
3.34091e-07
2.64135e-08
3.34318e-07
2.51464e-08
3.34517e-07
2.39858e-08
3.34697e-07
2.29345e-08
3.3486e-07
2.19812e-08
3.35009e-07
2.11096e-08
3.35147e-07
2.0307e-08
3.35274e-07
1.95647e-08
3.35393e-07
1.88759e-08
3.35504e-07
1.82346e-08
3.35609e-07
1.76356e-08
3.35708e-07
1.70746e-08
3.35802e-07
1.65479e-08
3.35892e-07
1.60524e-08
3.35978e-07
1.55854e-08
3.3606e-07
1.51446e-08
3.3614e-07
1.4728e-08
3.36216e-07
1.43338e-08
3.36291e-07
1.39601e-08
3.36363e-07
1.36052e-08
3.36432e-07
1.32676e-08
3.365e-07
1.29458e-08
3.36567e-07
1.26385e-08
3.36632e-07