/*--------------------------------*- C++ -*----------------------------------*\
  =========                 |
  \\      /  F ield         | OpenFOAM: The Open Source CFD Toolbox
   \\    /   O peration     | Website:  https://openfoam.org
    \\  /    A nd           | Version:  7
     \\/     M anipulation  |
\*---------------------------------------------------------------------------*/
FoamFile
{
    version     2.0;
    format      ascii;
    class       surfaceScalarField;
    location    "0.04";
    object      phi_0;
}
// * * * * * * * * * * * * * * * * * * * * * * * * * * * * * * * * * * * * * //

dimensions      [0 3 -1 0 0 0 0];

internalField   nonuniform List<scalar> 
139350
(
6.45919e-08
9.20396e-08
3.19497e-08
3.26422e-08
2.3058e-08
8.89171e-09
1.95633e-08
3.49468e-09
1.76113e-08
1.95192e-09
1.61838e-08
1.42757e-09
1.50509e-08
1.13288e-09
1.41372e-08
9.13727e-10
1.3385e-08
7.52165e-10
1.27512e-08
6.33762e-10
1.2207e-08
5.44202e-10
1.1733e-08
4.74003e-10
1.13155e-08
4.17548e-10
1.09442e-08
3.71308e-10
1.06113e-08
3.32881e-10
1.03108e-08
3.00546e-10
1.00377e-08
2.73044e-10
9.78829e-09
2.49429e-10
9.5593e-09
2.28984e-10
9.34815e-09
2.11153e-10
9.15265e-09
1.955e-10
8.97097e-09
1.81677e-10
8.80157e-09
1.69406e-10
8.64311e-09
1.58459e-10
8.49446e-09
1.48649e-10
8.35464e-09
1.3982e-10
8.2228e-09
1.31843e-10
8.09819e-09
1.24611e-10
7.98016e-09
1.18026e-10
7.86814e-09
1.1202e-10
7.76163e-09
1.0651e-10
7.66017e-09
1.01463e-10
7.56338e-09
9.67884e-11
7.47087e-09
9.25098e-11
7.38238e-09
8.84841e-11
7.29754e-09
8.48388e-11
7.21623e-09
8.13139e-11
7.13803e-09
7.8206e-11
7.06294e-09
7.5083e-11
6.99053e-09
7.2407e-11
6.9208e-09
6.9731e-11
6.85362e-09
6.71829e-11
6.7881e-09
6.55204e-11
6.72618e-09
6.19155e-11
6.66248e-09
6.37086e-11
6.60817e-09
5.43084e-11
6.53749e-09
7.06811e-11
6.51409e-09
2.33937e-11
6.2846e-09
2.29493e-10
-2.84993e-09
9.13453e-09
1.26025e-07
1.27458e-07
9.12608e-08
6.74063e-08
7.19385e-08
2.8214e-08
6.12109e-08
1.42223e-08
5.47646e-08
8.39822e-09
5.02711e-08
5.92101e-09
4.67876e-08
4.61638e-09
4.39726e-08
3.72881e-09
4.16466e-08
3.07811e-09
3.96851e-08
2.5953e-09
3.80008e-08
2.22848e-09
3.65337e-08
1.94108e-09
3.52411e-08
1.71013e-09
3.40914e-08
1.521e-09
3.30605e-08
1.36378e-09
3.21296e-08
1.23146e-09
3.12838e-08
1.11888e-09
3.0511e-08
1.02219e-09
2.98016e-08
9.38449e-10
2.91473e-08
8.65393e-10
2.85416e-08
8.0124e-10
2.79787e-08
7.44572e-10
2.74538e-08
6.94246e-10
2.6963e-08
6.49332e-10
2.65026e-08
6.09066e-10
2.60696e-08
5.72812e-10
2.56614e-08
5.4004e-10
2.52757e-08
5.10306e-10
2.49105e-08
4.83225e-10
2.4564e-08
4.58489e-10
2.42347e-08
4.35794e-10
2.39212e-08
4.1495e-10
2.36224e-08
3.95658e-10
2.3337e-08
3.77894e-10
2.30642e-08
3.61235e-10
2.28031e-08
3.45968e-10
2.25531e-08
3.31288e-10
2.23132e-08
3.18135e-10
2.20834e-08
3.04838e-10
2.18622e-08
2.93596e-10
2.16508e-08
2.81139e-10
2.14464e-08
2.7164e-10
2.1252e-08
2.59864e-10
2.10628e-08
2.51167e-10
2.08844e-08
2.42137e-10
2.0711e-08
2.27641e-10
2.05405e-08
2.41245e-10
2.04238e-08
1.40009e-10
2.01297e-08
5.23638e-10
-3.32608e-09
2.06058e-08
1.58806e-07
1.35056e-07
1.36492e-07
8.97208e-08
1.17489e-07
4.7217e-08
1.0331e-07
2.8401e-08
9.33032e-08
1.84051e-08
8.60019e-08
1.32223e-08
8.0297e-08
1.03212e-08
7.56471e-08
8.37874e-09
7.17699e-08
6.95534e-09
6.84784e-08
5.88677e-09
6.56395e-08
5.06739e-09
6.31583e-08
4.42226e-09
6.09662e-08
3.9022e-09
5.90121e-08
3.47518e-09
5.72564e-08
3.11941e-09
5.56685e-08
2.81936e-09
5.42238e-08
2.56362e-09
5.29024e-08
2.34364e-09
5.16879e-08
2.15287e-09
5.05671e-08
1.98625e-09
4.95285e-08
1.83978e-09
4.85628e-08
1.71027e-09
4.76619e-08
1.59516e-09
4.68189e-08
1.49234e-09
4.60279e-08
1.4001e-09
4.52837e-08
1.31699e-09
4.45819e-08
1.24181e-09
4.39187e-08
1.17356e-09
4.32905e-08
1.11137e-09
4.26945e-08
1.05452e-09
4.2128e-08
1.00235e-09
4.15885e-08
9.54369e-10
4.10742e-08
9.0998e-10
4.05831e-08
8.68995e-10
4.01137e-08
8.30625e-10
3.96644e-08
7.95271e-10
3.92343e-08
7.61399e-10
3.88217e-08
7.30797e-10
3.84266e-08
6.99904e-10
3.80464e-08
6.73767e-10
3.76836e-08
6.43999e-10
3.73323e-08
6.22853e-10
3.70005e-08
5.917e-10
3.66749e-08
5.76741e-10
3.63749e-08
5.42138e-10
3.60734e-08
5.29213e-10
3.58021e-08
5.12519e-10
3.55609e-08
3.81246e-10
3.52975e-08
7.86957e-10
-2.82559e-09
3.4797e-08
1.75663e-07
1.30908e-07
1.65592e-07
9.97918e-08
1.52719e-07
6.00902e-08
1.40119e-07
4.10015e-08
1.29429e-07
2.90949e-08
1.20786e-07
2.18649e-08
1.13675e-07
1.7432e-08
1.07696e-07
1.43578e-08
1.02598e-07
1.2054e-08
9.81971e-08
1.02874e-08
9.43549e-08
8.90961e-09
9.09654e-08
7.81179e-09
8.79486e-08
6.91899e-09
8.5243e-08
6.18083e-09
8.28001e-08
5.56229e-09
8.05813e-08
5.03811e-09
7.85554e-08
4.58951e-09
7.66968e-08
4.20226e-09
7.49843e-08
3.86543e-09
7.34e-08
3.57045e-09
7.19293e-08
3.31054e-09
7.05593e-08
3.08026e-09
6.92793e-08
2.8752e-09
6.80798e-08
2.69175e-09
6.6953e-08
2.52691e-09
6.58918e-08
2.3782e-09
6.48901e-08
2.24353e-09
6.39425e-08
2.12113e-09
6.30444e-08
2.0095e-09
6.21916e-08
1.90736e-09
6.13803e-08
1.81356e-09
6.06075e-08
1.7272e-09
5.98702e-08
1.6473e-09
5.91658e-08
1.57341e-09
5.84921e-08
1.50428e-09
5.7847e-08
1.44039e-09
5.72291e-08
1.37934e-09
5.6636e-08
1.32385e-09
5.60678e-08
1.26811e-09
5.5521e-08
1.22056e-09
5.49985e-08
1.16649e-09
5.44931e-08
1.12826e-09
5.40146e-08
1.07018e-09
5.35462e-08
1.04518e-09
5.31128e-08
9.75566e-10
5.26793e-08
9.62676e-10
5.22904e-08
9.0144e-10
5.19195e-08
7.5214e-10
5.16162e-08
1.0902e-09
-2.05003e-09
5.08407e-08
1.8456e-07
1.23134e-07
1.82319e-07
1.02033e-07
1.76098e-07
6.63109e-08
1.67753e-07
4.93466e-08
1.59129e-07
3.77194e-08
1.51219e-07
2.97747e-08
1.44146e-07
2.45043e-08
1.37848e-07
2.06565e-08
1.32249e-07
1.7653e-08
1.27265e-07
1.5271e-08
1.22811e-07
1.33635e-08
1.1881e-07
1.18127e-08
1.15198e-07
1.05316e-08
1.1192e-07
9.45895e-09
1.08931e-07
8.55082e-09
1.06195e-07
7.77453e-09
1.03679e-07
7.10529e-09
1.01357e-07
6.52396e-09
9.92071e-08
6.01557e-09
9.72093e-08
5.56824e-09
9.53473e-08
5.17247e-09
9.36071e-08
4.82053e-09
9.19761e-08
4.50613e-09
9.04438e-08
4.22404e-09
8.90008e-08
3.96993e-09
8.76389e-08
3.74015e-09
8.63508e-08
3.53163e-09
8.51302e-08
3.34176e-09
8.39713e-08
3.16831e-09
8.28694e-08
3.00935e-09
8.18197e-08
2.86319e-09
8.08185e-08
2.72846e-09
7.98621e-08
2.60369e-09
7.89474e-08
2.48813e-09
7.80716e-08
2.38005e-09
7.72321e-08
2.27989e-09
7.6427e-08
2.18439e-09
7.56538e-08
2.09714e-09
7.49118e-08
2.01001e-09
7.41976e-08
1.93485e-09
7.35135e-08
1.85053e-09
7.28523e-08
1.78944e-09
7.22234e-08
1.6991e-09
7.16106e-08
1.65803e-09
7.10365e-08
1.54964e-09
7.04712e-08
1.52796e-09
6.99508e-08
1.42185e-09
6.94569e-08
1.24607e-09
6.90399e-08
1.50718e-09
-1.18415e-09
6.8174e-08
1.90388e-07
1.14963e-07
1.9185e-07
1.00571e-07
1.90239e-07
6.79213e-08
1.86146e-07
5.34399e-08
1.80705e-07
4.31606e-08
1.74948e-07
3.55311e-08
1.69251e-07
3.02021e-08
1.63767e-07
2.61405e-08
1.58592e-07
2.28276e-08
1.53769e-07
2.0094e-08
1.493e-07
1.78324e-08
1.45169e-07
1.5944e-08
1.41351e-07
1.43496e-08
1.37819e-07
1.29902e-08
1.34549e-07
1.18216e-08
1.31513e-07
1.08097e-08
1.28691e-07
9.92765e-09
1.26061e-07
9.15414e-09
1.23604e-07
8.47208e-09
1.21305e-07
7.8676e-09
1.19148e-07
7.32937e-09
1.17121e-07
6.84808e-09
1.15211e-07
6.41595e-09
1.13408e-07
6.0265e-09
1.11704e-07
5.67428e-09
1.10089e-07
5.35463e-09
1.08558e-07
5.06362e-09
1.07101e-07
4.79786e-09
1.05715e-07
4.55444e-09
1.04394e-07
4.33081e-09
1.03132e-07
4.12478e-09
1.01926e-07
3.93445e-09
1.00772e-07
3.75796e-09
9.9666e-08
3.59415e-09
9.86051e-08
3.44086e-09
9.75866e-08
3.29844e-09
9.66081e-08
3.16284e-09
9.5667e-08
3.0383e-09
9.47623e-08
2.91473e-09
9.38904e-08
2.8067e-09
9.30531e-08
2.6878e-09
9.22442e-08
2.59841e-09
9.14704e-08
2.47288e-09
9.07198e-08
2.40859e-09
9.00073e-08
2.26222e-09
8.93163e-08
2.21892e-09
8.86619e-08
2.07625e-09
8.80506e-08
1.85734e-09
8.75013e-08
2.05654e-09
-2.30708e-10
8.65478e-08
1.9554e-07
1.07237e-07
1.98245e-07
9.78655e-08
1.98964e-07
6.72024e-08
1.97781e-07
5.46235e-08
1.95145e-07
4.57959e-08
1.918e-07
3.88759e-08
1.88066e-07
3.39364e-08
1.84114e-07
3.00927e-08
1.80093e-07
2.68485e-08
1.76113e-07
2.40736e-08
1.72243e-07
2.17028e-08
1.68521e-07
1.96666e-08
1.64966e-07
1.79043e-08
1.61587e-07
1.63689e-08
1.58385e-07
1.5024e-08
1.55354e-07
1.38402e-08
1.52489e-07
1.27934e-08
1.49779e-07
1.18638e-08
1.47216e-07
1.10351e-08
1.4479e-07
1.02934e-08
1.42492e-07
9.62719e-09
1.40314e-07
9.02686e-09
1.38245e-07
8.48412e-09
1.3628e-07
7.99193e-09
1.3441e-07
7.54428e-09
1.32629e-07
7.13597e-09
1.3093e-07
6.76253e-09
1.29307e-07
6.42005e-09
1.27757e-07
6.10518e-09
1.26273e-07
5.81491e-09
1.24851e-07
5.54665e-09
1.23487e-07
5.29811e-09
1.22178e-07
5.06707e-09
1.2092e-07
4.85208e-09
1.1971e-07
4.65059e-09
1.18546e-07
4.46284e-09
1.17425e-07
4.28415e-09
1.16344e-07
4.11917e-09
1.15302e-07
3.95637e-09
1.14297e-07
3.81212e-09
1.13328e-07
3.65644e-09
1.12392e-07
3.53463e-09
1.11491e-07
3.37331e-09
1.10621e-07
3.27933e-09
1.09784e-07
3.09841e-09
1.08982e-07
3.0215e-09
1.08206e-07
2.85164e-09
1.07484e-07
2.57957e-09
1.06816e-07
2.72504e-09
8.10334e-10
1.05775e-07
2.00847e-07
9.99744e-08
2.03774e-07
9.49392e-08
2.05323e-07
6.56536e-08
2.05635e-07
5.43108e-08
2.04805e-07
4.66259e-08
2.03321e-07
4.03606e-08
2.0137e-07
3.58874e-08
1.99037e-07
3.24255e-08
1.96428e-07
2.94574e-08
1.93645e-07
2.68561e-08
1.9077e-07
2.45781e-08
1.87862e-07
2.25747e-08
1.84965e-07
2.08009e-08
1.82112e-07
1.92223e-08
1.79324e-07
1.78123e-08
1.76615e-07
1.6549e-08
1.73994e-07
1.54139e-08
1.71467e-07
1.43913e-08
1.69034e-07
1.34677e-08
1.66696e-07
1.26314e-08
1.64451e-07
1.18723e-08
1.62296e-07
1.11816e-08
1.60228e-07
1.05518e-08
1.58244e-07
9.97612e-09
1.5634e-07
9.4488e-09
1.54511e-07
8.96467e-09
1.52754e-07
8.51925e-09
1.51066e-07
8.10853e-09
1.49442e-07
7.72903e-09
1.47879e-07
7.37757e-09
1.46375e-07
7.05139e-09
1.44925e-07
6.74801e-09
1.43527e-07
6.46503e-09
1.42178e-07
6.2008e-09
1.40876e-07
5.95254e-09
1.39619e-07
5.72039e-09
1.38403e-07
5.49928e-09
1.37229e-07
5.29404e-09
1.36093e-07
5.0923e-09
1.34993e-07
4.91127e-09
1.33931e-07
4.71927e-09
1.32902e-07
4.56334e-09
1.31907e-07
4.36786e-09
1.30947e-07
4.24017e-09
1.30016e-07
4.02928e-09
1.29126e-07
3.91116e-09
1.28257e-07
3.72074e-09
1.2744e-07
3.39621e-09
1.26677e-07
3.48871e-09
1.91467e-09
1.25572e-07
2.06446e-07
9.30601e-08
2.09337e-07
9.20482e-08
2.11032e-07
6.39586e-08
2.11923e-07
5.34199e-08
2.11989e-07
4.65603e-08
2.11599e-07
4.07505e-08
2.10866e-07
3.66204e-08
2.09793e-07
3.34989e-08
2.08416e-07
3.08337e-08
2.06795e-07
2.84771e-08
2.04986e-07
2.6388e-08
2.03036e-07
2.45244e-08
2.00989e-07
2.28481e-08
1.9888e-07
2.13313e-08
1.96738e-07
1.99538e-08
1.94587e-07
1.86998e-08
1.92445e-07
1.75559e-08
1.90326e-07
1.65106e-08
1.8824e-07
1.55539e-08
1.86194e-07
1.46769e-08
1.84195e-07
1.38718e-08
1.82245e-07
1.31315e-08
1.80347e-07
1.24499e-08
1.78502e-07
1.18214e-08
1.76709e-07
1.12409e-08
1.7497e-07
1.07038e-08
1.73283e-07
1.02063e-08
1.71647e-07
9.74449e-09
1.70061e-07
9.31522e-09
1.68523e-07
8.91545e-09
1.67032e-07
8.54251e-09
1.65586e-07
8.19397e-09
1.64184e-07
7.86743e-09
1.62823e-07
7.56123e-09
1.61503e-07
7.27254e-09
1.60222e-07
7.00146e-09
1.58979e-07
6.74277e-09
1.57772e-07
6.50132e-09
1.56599e-07
6.26449e-09
1.55461e-07
6.04953e-09
1.54356e-07
5.82463e-09
1.53283e-07
5.63602e-09
1.52241e-07
5.4103e-09
1.51232e-07
5.24833e-09
1.50249e-07
5.01285e-09
1.49309e-07
4.85146e-09
1.48385e-07
4.64479e-09
1.47504e-07
4.27664e-09
1.46677e-07
4.31553e-09
3.04524e-09
1.45547e-07
2.12288e-07
8.64342e-08
2.1515e-07
8.91864e-08
2.16787e-07
6.23221e-08
2.17836e-07
5.23708e-08
2.18247e-07
4.61483e-08
2.1836e-07
4.06378e-08
2.18281e-07
3.66997e-08
2.17978e-07
3.38014e-08
2.17445e-07
3.13669e-08
2.167e-07
2.92224e-08
2.15767e-07
2.73213e-08
2.1467e-07
2.56206e-08
2.13437e-07
2.40814e-08
2.12092e-07
2.26765e-08
2.10658e-07
2.13875e-08
2.09157e-07
2.02009e-08
2.07607e-07
1.91059e-08
2.06024e-07
1.80937e-08
2.04421e-07
1.71566e-08
2.0281e-07
1.62882e-08
2.01199e-07
1.54824e-08
1.99597e-07
1.47341e-08
1.98008e-07
1.40386e-08
1.96438e-07
1.33914e-08
1.9489e-07
1.27885e-08
1.93368e-07
1.22264e-08
1.91872e-07
1.17018e-08
1.90405e-07
1.12114e-08
1.88968e-07
1.07525e-08
1.87561e-07
1.03225e-08
1.86184e-07
9.91909e-09
1.84838e-07
9.53996e-09
1.83523e-07
9.18295e-09
1.82238e-07
8.84653e-09
1.80982e-07
8.528e-09
1.79756e-07
8.2275e-09
1.78559e-07
7.93988e-09
1.7739e-07
7.66994e-09
1.7625e-07
7.40523e-09
1.75137e-07
7.16247e-09
1.7405e-07
6.91102e-09
1.72992e-07
6.69435e-09
1.71958e-07
6.44457e-09
1.70955e-07
6.25134e-09
1.6997e-07
5.99755e-09
1.69025e-07
5.79599e-09
1.68094e-07
5.57655e-09
1.67192e-07
5.1784e-09
1.66342e-07
5.16524e-09
4.15869e-09
1.65229e-07
2.18329e-07
8.00856e-08
2.21204e-07
8.63121e-08
2.22759e-07
6.07667e-08
2.23835e-07
5.12951e-08
2.24356e-07
4.5627e-08
2.24647e-07
4.03474e-08
2.24843e-07
3.65029e-08
2.24919e-07
3.37258e-08
2.24851e-07
3.14346e-08
2.2464e-07
2.94332e-08
2.24291e-07
2.76707e-08
2.23809e-07
2.61024e-08
2.23204e-07
2.46867e-08
2.22487e-07
2.33939e-08
2.2167e-07
2.22045e-08
2.20766e-07
2.11045e-08
2.19789e-07
2.00834e-08
2.18749e-07
1.9133e-08
2.17659e-07
1.82466e-08
2.16529e-07
1.74186e-08
2.15367e-07
1.66442e-08
2.14182e-07
1.59193e-08
2.1298e-07
1.52401e-08
2.11768e-07
1.46032e-08
2.10552e-07
1.40055e-08
2.09334e-07
1.34441e-08
2.08119e-07
1.29164e-08
2.06911e-07
1.24199e-08
2.05711e-07
1.19523e-08
2.04522e-07
1.15114e-08
2.03346e-07
1.10953e-08
2.02184e-07
1.07021e-08
2.01037e-07
1.03298e-08
1.99906e-07
9.97723e-09
1.98792e-07
9.64177e-09
1.97696e-07
9.32377e-09
1.96618e-07
9.01825e-09
1.95558e-07
8.72995e-09
1.94516e-07
8.44689e-09
1.93494e-07
8.18492e-09
1.92489e-07
7.9154e-09
1.91506e-07
7.6778e-09
1.90538e-07
7.41186e-09
1.89596e-07
7.19335e-09
1.88666e-07
6.92833e-09
1.87768e-07
6.69373e-09
1.86879e-07
6.46523e-09
1.86005e-07
6.05278e-09
1.85178e-07
5.99247e-09
5.20933e-09
1.84127e-07
2.24558e-07
7.40208e-08
2.27468e-07
8.34023e-08
2.28956e-07
5.92788e-08
2.30036e-07
5.02142e-08
2.30599e-07
4.50645e-08
2.30938e-07
4.00083e-08
2.31224e-07
3.62167e-08
2.31448e-07
3.35023e-08
2.31589e-07
3.12936e-08
2.31645e-07
2.93769e-08
2.31616e-07
2.76996e-08
2.315e-07
2.62182e-08
2.31297e-07
2.48898e-08
2.31009e-07
2.36826e-08
2.30638e-07
2.25751e-08
2.3019e-07
2.1552e-08
2.29672e-07
2.06022e-08
2.29088e-07
1.97166e-08
2.28446e-07
1.88885e-08
2.27753e-07
1.81121e-08
2.27014e-07
1.73829e-08
2.26236e-07
1.6697e-08
2.25425e-07
1.6051e-08
2.24587e-07
1.5442e-08
2.23725e-07
1.48674e-08
2.22844e-07
1.43248e-08
2.21948e-07
1.38119e-08
2.21042e-07
1.33266e-08
2.20127e-07
1.28671e-08
2.19207e-07
1.24315e-08
2.18284e-07
1.20183e-08
2.1736e-07
1.16257e-08
2.16438e-07
1.12522e-08
2.15518e-07
1.08968e-08
2.14603e-07
1.0557e-08
2.13693e-07
1.02334e-08
2.1279e-07
9.92127e-09
2.11895e-07
9.6252e-09
2.11008e-07
9.33393e-09
2.10131e-07
9.06212e-09
2.09263e-07
8.78377e-09
2.08407e-07
8.53353e-09
2.07559e-07
8.25999e-09
2.06728e-07
8.02391e-09
2.05902e-07
7.75496e-09
2.05098e-07
7.49693e-09
2.043e-07
7.26348e-09
2.03501e-07
6.85228e-09
2.0274e-07
6.75279e-09
6.15461e-09
2.01795e-07
2.30979e-07
6.8248e-08
2.33932e-07
8.04488e-08
2.35361e-07
5.78502e-08
2.36448e-07
4.91273e-08
2.37044e-07
4.44686e-08
2.37398e-07
3.96541e-08
2.37706e-07
3.59091e-08
2.37975e-07
3.32329e-08
2.38191e-07
3.10772e-08
2.38357e-07
2.92115e-08
2.38473e-07
2.75831e-08
2.38539e-07
2.61524e-08
2.38552e-07
2.48771e-08
2.3851e-07
2.37248e-08
2.38412e-07
2.26729e-08
2.38259e-07
2.17052e-08
2.38051e-07
2.08095e-08
2.37792e-07
1.99762e-08
2.37482e-07
1.91979e-08
2.37126e-07
1.84684e-08
2.36726e-07
1.77829e-08
2.36286e-07
1.71372e-08
2.35809e-07
1.65281e-08
2.35298e-07
1.59524e-08
2.34758e-07
1.54078e-08
2.34191e-07
1.48918e-08
2.336e-07
1.44025e-08
2.32989e-07
1.3938e-08
2.32359e-07
1.34965e-08
2.31715e-07
1.30764e-08
2.31057e-07
1.26763e-08
2.30388e-07
1.22947e-08
2.2971e-07
1.19301e-08
2.29025e-07
1.15819e-08
2.28334e-07
1.12476e-08
2.2764e-07
1.0928e-08
2.26942e-07
1.06185e-08
2.26244e-07
1.03236e-08
2.25545e-07
1.0033e-08
2.24847e-07
9.7597e-09
2.2415e-07
9.4809e-09
2.23458e-07
9.22586e-09
2.22765e-07
8.95256e-09
2.22082e-07
8.70685e-09
2.21397e-07
8.44048e-09
2.20724e-07
8.16932e-09
2.20053e-07
7.93506e-09
2.19366e-07
7.53862e-09
2.18709e-07
7.40981e-09
6.96139e-09
2.17903e-07
2.376e-07
6.27729e-08
2.406e-07
7.7449e-08
2.41971e-07
5.64789e-08
2.43063e-07
4.80355e-08
2.43696e-07
4.38356e-08
2.44063e-07
3.92865e-08
2.44376e-07
3.55962e-08
2.44658e-07
3.29513e-08
2.44897e-07
3.08381e-08
2.45099e-07
2.90097e-08
2.4527e-07
2.74123e-08
2.4541e-07
2.60115e-08
2.4552e-07
2.47674e-08
2.45597e-07
2.36475e-08
2.45641e-07
2.26292e-08
2.4565e-07
2.16961e-08
2.45624e-07
2.08358e-08
2.45562e-07
2.00382e-08
2.45464e-07
1.92953e-08
2.45332e-07
1.86008e-08
2.45166e-07
1.79492e-08
2.44967e-07
1.73364e-08
2.44736e-07
1.67586e-08
2.44476e-07
1.62127e-08
2.44187e-07
1.56961e-08
2.43873e-07
1.52064e-08
2.43534e-07
1.47416e-08
2.43172e-07
1.42996e-08
2.4279e-07
1.3879e-08
2.42388e-07
1.34779e-08
2.41969e-07
1.30951e-08
2.41535e-07
1.27292e-08
2.41086e-07
1.23787e-08
2.40625e-07
1.2043e-08
2.40153e-07
1.17198e-08
2.39671e-07
1.141e-08
2.3918e-07
1.11092e-08
2.38682e-07
1.08215e-08
2.38178e-07
1.05375e-08
2.37669e-07
1.02688e-08
2.37154e-07
9.99561e-09
2.36638e-07
9.74187e-09
2.36116e-07
9.47468e-09
2.35597e-07
9.22616e-09
2.3507e-07
8.96716e-09
2.34547e-07
8.69219e-09
2.34022e-07
8.46064e-09
2.33471e-07
8.08905e-09
2.3294e-07
7.94118e-09
7.61122e-09
2.3229e-07
2.4443e-07
5.75992e-08
2.47469e-07
7.44096e-08
2.48792e-07
5.51566e-08
2.49883e-07
4.69436e-08
2.50555e-07
4.3164e-08
2.5094e-07
3.8902e-08
2.51257e-07
3.5279e-08
2.51544e-07
3.26643e-08
2.5179e-07
3.05915e-08
2.52003e-07
2.87971e-08
2.52191e-07
2.72246e-08
2.52357e-07
2.5845e-08
2.52504e-07
2.46211e-08
2.5263e-07
2.35213e-08
2.52736e-07
2.25233e-08
2.52821e-07
2.1611e-08
2.52884e-07
2.07721e-08
2.52926e-07
1.99965e-08
2.52945e-07
1.92761e-08
2.52942e-07
1.86043e-08
2.52915e-07
1.79757e-08
2.52866e-07
1.73857e-08
2.52794e-07
1.68304e-08
2.527e-07
1.63068e-08
2.52585e-07
1.58118e-08
2.52448e-07
1.53431e-08
2.52291e-07
1.48986e-08
2.52114e-07
1.44761e-08
2.51919e-07
1.4074e-08
2.51707e-07
1.36906e-08
2.51477e-07
1.33243e-08
2.51233e-07
1.29741e-08
2.50973e-07
1.26383e-08
2.507e-07
1.23162e-08
2.50414e-07
1.20058e-08
2.50116e-07
1.17076e-08
2.49808e-07
1.14177e-08
2.49489e-07
1.11398e-08
2.49162e-07
1.08653e-08
2.48826e-07
1.06042e-08
2.48482e-07
1.034e-08
2.48132e-07
1.00912e-08
2.47774e-07
9.83341e-09
2.47413e-07
9.58687e-09
2.47042e-07
9.33782e-09
2.46668e-07
9.0662e-09
2.46289e-07
8.83978e-09
2.45879e-07
8.49902e-09
2.45479e-07
8.34131e-09
8.10266e-09
2.44988e-07
2.51477e-07
5.27288e-08
2.54547e-07
7.13401e-08
2.5583e-07
5.3873e-08
2.56917e-07
4.58571e-08
2.57626e-07
4.24548e-08
2.5803e-07
3.84975e-08
2.58353e-07
3.49561e-08
2.58645e-07
3.23722e-08
2.58897e-07
3.03399e-08
2.59114e-07
2.85801e-08
2.59307e-07
2.70317e-08
2.59481e-07
2.56707e-08
2.59639e-07
2.4463e-08
2.59782e-07
2.33782e-08
2.59911e-07
2.23942e-08
2.60027e-07
2.14956e-08
2.60129e-07
2.06701e-08
2.60217e-07
1.9908e-08
2.60292e-07
1.92014e-08
2.60353e-07
1.85437e-08
2.60399e-07
1.79293e-08
2.60431e-07
1.73538e-08
2.60448e-07
1.68131e-08
2.60451e-07
1.63041e-08
2.60439e-07
1.58239e-08
2.60412e-07
1.53698e-08
2.60371e-07
1.49397e-08
2.60316e-07
1.45315e-08
2.60246e-07
1.41433e-08
2.60163e-07
1.37736e-08
2.60067e-07
1.34206e-08
2.59958e-07
1.30832e-08
2.59836e-07
1.27597e-08
2.59703e-07
1.24495e-08
2.59558e-07
1.21504e-08
2.59403e-07
1.1863e-08
2.59237e-07
1.15835e-08
2.59062e-07
1.13151e-08
2.58877e-07
1.10504e-08
2.58684e-07
1.07973e-08
2.58481e-07
1.05428e-08
2.58272e-07
1.03002e-08
2.58053e-07
1.00527e-08
2.57829e-07
9.81074e-09
2.57594e-07
9.57211e-09
2.57352e-07
9.30843e-09
2.57104e-07
9.08829e-09
2.56822e-07
8.78041e-09
2.56544e-07
8.62014e-09
8.4497e-09
2.56196e-07
2.5875e-07
4.81617e-08
2.6184e-07
6.82505e-08
2.63095e-07
5.26175e-08
2.64171e-07
4.4781e-08
2.64916e-07
4.17106e-08
2.65342e-07
3.80711e-08
2.65672e-07
3.46266e-08
2.65969e-07
3.20747e-08
2.66226e-07
3.00828e-08
2.66447e-07
2.83593e-08
2.66643e-07
2.6836e-08
2.6682e-07
2.54935e-08
2.66982e-07
2.43013e-08
2.6713e-07
2.32298e-08
2.67266e-07
2.22577e-08
2.67392e-07
2.13697e-08
2.67508e-07
2.05541e-08
2.67615e-07
1.98016e-08
2.67712e-07
1.91042e-08
2.678e-07
1.84555e-08
2.67879e-07
1.78502e-08
2.67949e-07
1.72836e-08
2.6801e-07
1.67521e-08
2.68062e-07
1.62523e-08
2.68105e-07
1.57812e-08
2.68138e-07
1.53365e-08
2.68162e-07
1.49158e-08
2.68177e-07
1.4517e-08
2.68182e-07
1.41382e-08
2.68177e-07
1.37778e-08
2.68164e-07
1.34342e-08
2.68141e-07
1.31059e-08
2.68109e-07
1.27914e-08
2.68069e-07
1.249e-08
2.6802e-07
1.21996e-08
2.67962e-07
1.19206e-08
2.67896e-07
1.16494e-08
2.67823e-07
1.13887e-08
2.67741e-07
1.11323e-08
2.67652e-07
1.08861e-08
2.67555e-07
1.06401e-08
2.67452e-07
1.04034e-08
2.67339e-07
1.01652e-08
2.67221e-07
9.92872e-09
2.67094e-07
9.69946e-09
2.66956e-07
9.44592e-09
2.66812e-07
9.23223e-09
2.66637e-07
8.95611e-09
2.66459e-07
8.79832e-09
8.67699e-09
2.66231e-07
2.66258e-07
4.38962e-08
2.69357e-07
6.51512e-08
2.70595e-07
5.13796e-08
2.71656e-07
4.37197e-08
2.72432e-07
4.09348e-08
2.72882e-07
3.76209e-08
2.73219e-07
3.42895e-08
2.73522e-07
3.17717e-08
2.73785e-07
2.982e-08
2.7401e-07
2.81343e-08
2.74208e-07
2.66376e-08
2.74388e-07
2.53142e-08
2.74551e-07
2.41376e-08
2.74702e-07
2.30795e-08
2.74841e-07
2.21188e-08
2.7497e-07
2.12406e-08
2.7509e-07
2.04338e-08
2.75203e-07
1.96891e-08
2.75308e-07
1.8999e-08
2.75406e-07
1.83571e-08
2.75498e-07
1.77583e-08
2.75584e-07
1.7198e-08
2.75663e-07
1.66725e-08
2.75737e-07
1.61786e-08
2.75805e-07
1.57135e-08
2.75867e-07
1.52746e-08
2.75923e-07
1.48598e-08
2.75973e-07
1.44669e-08
2.76017e-07
1.40941e-08
2.76055e-07
1.37397e-08
2.76087e-07
1.34021e-08
2.76113e-07
1.30798e-08
2.76133e-07
1.27713e-08
2.76148e-07
1.24758e-08
2.76156e-07
1.21912e-08
2.76159e-07
1.19179e-08
2.76155e-07
1.16527e-08
2.76146e-07
1.13975e-08
2.76132e-07
1.11472e-08
2.76111e-07
1.09061e-08
2.76085e-07
1.06668e-08
2.76053e-07
1.04348e-08
2.76014e-07
1.02042e-08
2.7597e-07
9.97299e-09
2.75918e-07
9.7513e-09
2.75856e-07
9.50842e-09
2.75787e-07
9.30076e-09
2.7569e-07
9.05326e-09
2.75587e-07
8.90101e-09
8.81351e-09
2.75451e-07
2.74009e-07
3.99289e-08
2.77106e-07
6.20534e-08
2.78337e-07
5.01491e-08
2.7938e-07
4.26769e-08
2.80183e-07
4.01314e-08
2.80659e-07
3.71455e-08
2.81004e-07
3.39439e-08
2.81313e-07
3.14632e-08
2.81581e-07
2.95513e-08
2.81811e-07
2.79048e-08
2.82012e-07
2.64361e-08
2.82194e-07
2.51327e-08
2.82359e-07
2.39722e-08
2.82511e-07
2.29277e-08
2.82651e-07
2.19786e-08
2.82782e-07
2.11103e-08
2.82903e-07
2.03121e-08
2.83018e-07
1.95749e-08
2.83125e-07
1.88914e-08
2.83227e-07
1.82556e-08
2.83323e-07
1.76622e-08
2.83414e-07
1.71069e-08
2.835e-07
1.65861e-08
2.83582e-07
1.60966e-08
2.8366e-07
1.56357e-08
2.83734e-07
1.52009e-08
2.83804e-07
1.479e-08
2.8387e-07
1.44011e-08
2.83932e-07
1.40321e-08
2.8399e-07
1.36816e-08
2.84044e-07
1.33477e-08
2.84095e-07
1.30292e-08
2.84141e-07
1.27244e-08
2.84185e-07
1.24327e-08
2.84224e-07
1.21519e-08
2.84259e-07
1.18823e-08
2.84291e-07
1.1621e-08
2.84319e-07
1.13694e-08
2.84343e-07
1.11233e-08
2.84364e-07
1.08857e-08
2.84379e-07
1.06512e-08
2.84391e-07
1.04227e-08
2.84398e-07
1.01976e-08
2.844e-07
9.97112e-09
2.84396e-07
9.75518e-09
2.84382e-07
9.52251e-09
2.84362e-07
9.32035e-09
2.84318e-07
9.0974e-09
2.84267e-07
8.95223e-09
8.88679e-09
2.84194e-07
2.82012e-07
3.62544e-08
2.85097e-07
5.89684e-08
2.8633e-07
4.89164e-08
2.87351e-07
4.16551e-08
2.88178e-07
3.93051e-08
2.8868e-07
3.66436e-08
2.89035e-07
3.35885e-08
2.89349e-07
3.11494e-08
2.89624e-07
2.92764e-08
2.89858e-07
2.76702e-08
2.90063e-07
2.62313e-08
2.90247e-07
2.49487e-08
2.90414e-07
2.38049e-08
2.90567e-07
2.27745e-08
2.90709e-07
2.18373e-08
2.9084e-07
2.09791e-08
2.90962e-07
2.01895e-08
2.91077e-07
1.94599e-08
2.91186e-07
1.87831e-08
2.91288e-07
1.81531e-08
2.91386e-07
1.75649e-08
2.91478e-07
1.70142e-08
2.91567e-07
1.64976e-08
2.91651e-07
1.60119e-08
2.91733e-07
1.55545e-08
2.9181e-07
1.5123e-08
2.91885e-07
1.47152e-08
2.91957e-07
1.43291e-08
2.92026e-07
1.3963e-08
2.92093e-07
1.36151e-08
2.92157e-07
1.32839e-08
2.92218e-07
1.29679e-08
2.92277e-07
1.26656e-08
2.92333e-07
1.23763e-08
2.92387e-07
1.2098e-08
2.92439e-07
1.18307e-08
2.92488e-07
1.15719e-08
2.92535e-07
1.13225e-08
2.92579e-07
1.10793e-08
2.92621e-07
1.08439e-08
2.92659e-07
1.06128e-08
2.92695e-07
1.03868e-08
2.92727e-07
1.01658e-08
2.92754e-07
9.94336e-09
2.92778e-07
9.73175e-09
2.92792e-07
9.50843e-09
2.92801e-07
9.31141e-09
2.92789e-07
9.10885e-09
2.9277e-07
8.97129e-09
8.91927e-09
2.92738e-07
2.90278e-07
3.28657e-08
2.93338e-07
5.59082e-08
2.94581e-07
4.76727e-08
2.9558e-07
4.06562e-08
2.96424e-07
3.84612e-08
2.96954e-07
3.61142e-08
2.9732e-07
3.32221e-08
2.97639e-07
3.08303e-08
2.9792e-07
2.89955e-08
2.9816e-07
2.74304e-08
2.98368e-07
2.60227e-08
2.98555e-07
2.47621e-08
2.98724e-07
2.36355e-08
2.98879e-07
2.26197e-08
2.99022e-07
2.16947e-08
2.99154e-07
2.0847e-08
2.99277e-07
2.00663e-08
2.99393e-07
1.93444e-08
2.99502e-07
1.86743e-08
2.99604e-07
1.80502e-08
2.99702e-07
1.74672e-08
2.99795e-07
1.69212e-08
2.99884e-07
1.64086e-08
2.9997e-07
1.59265e-08
3.00052e-07
1.54724e-08
3.00131e-07
1.50438e-08
3.00207e-07
1.46388e-08
3.00281e-07
1.42553e-08
3.00353e-07
1.38915e-08
3.00422e-07
1.35458e-08
3.00489e-07
1.32166e-08
3.00554e-07
1.29026e-08
3.00618e-07
1.26021e-08
3.0068e-07
1.23145e-08
3.0074e-07
1.20379e-08
3.00798e-07
1.17722e-08
3.00855e-07
1.15152e-08
3.0091e-07
1.12673e-08
3.00963e-07
1.1026e-08
3.01015e-07
1.07922e-08
3.01064e-07
1.05636e-08
3.01112e-07
1.03396e-08
3.01156e-07
1.01214e-08
3.01197e-07
9.90269e-09
3.01234e-07
9.6945e-09
3.01263e-07
9.47963e-09
3.01286e-07
9.28763e-09
3.01294e-07
9.10171e-09
3.01293e-07
8.97166e-09
8.92698e-09
3.01285e-07
2.98814e-07
2.97538e-08
3.01838e-07
5.28846e-08
3.03101e-07
4.64101e-08
3.04076e-07
3.96812e-08
3.04932e-07
3.76051e-08
3.05489e-07
3.55568e-08
3.05868e-07
3.2843e-08
3.06193e-07
3.05057e-08
3.0648e-07
2.87084e-08
3.06725e-07
2.7185e-08
3.06938e-07
2.58103e-08
3.07127e-07
2.45727e-08
3.07299e-07
2.34639e-08
3.07455e-07
2.2463e-08
3.07599e-07
2.15507e-08
3.07733e-07
2.07138e-08
3.07857e-07
1.99422e-08
3.07973e-07
1.92282e-08
3.08082e-07
1.8565e-08
3.08185e-07
1.7947e-08
3.08283e-07
1.73693e-08
3.08376e-07
1.68279e-08
3.08466e-07
1.63194e-08
3.08551e-07
1.5841e-08
3.08633e-07
1.53901e-08
3.08713e-07
1.49645e-08
3.08789e-07
1.45621e-08
3.08864e-07
1.4181e-08
3.08936e-07
1.38194e-08
3.09006e-07
1.34757e-08
3.09074e-07
1.31484e-08
3.09141e-07
1.2836e-08
3.09206e-07
1.25372e-08
3.09269e-07
1.2251e-08
3.09331e-07
1.19758e-08
3.09392e-07
1.17113e-08
3.09452e-07
1.14556e-08
3.0951e-07
1.12089e-08
3.09567e-07
1.09692e-08
3.09623e-07
1.07365e-08
3.09676e-07
1.05098e-08
3.09729e-07
1.02875e-08
3.09778e-07
1.00717e-08
3.09825e-07
9.8564e-09
3.09868e-07
9.6512e-09
3.09904e-07
9.44394e-09
3.09934e-07
9.25701e-09
3.09951e-07
9.08458e-09
3.09961e-07
8.96155e-09
8.92013e-09
3.09968e-07
3.07633e-07
2.69084e-08
3.10608e-07
4.99098e-08
3.11896e-07
4.51218e-08
3.12847e-07
3.873e-08
3.1371e-07
3.67422e-08
3.14295e-07
3.4972e-08
3.14688e-07
3.24498e-08
3.15018e-07
3.01755e-08
3.15311e-07
2.84154e-08
3.15563e-07
2.69336e-08
3.1578e-07
2.55934e-08
3.15972e-07
2.43802e-08
3.16146e-07
2.32898e-08
3.16305e-07
2.23043e-08
3.1645e-07
2.14052e-08
3.16585e-07
2.05793e-08
3.1671e-07
1.98172e-08
3.16827e-07
1.91113e-08
3.16937e-07
1.84552e-08
3.1704e-07
1.78433e-08
3.17139e-07
1.7271e-08
3.17232e-07
1.67344e-08
3.17321e-07
1.62301e-08
3.17407e-07
1.57554e-08
3.17489e-07
1.53078e-08
3.17569e-07
1.48852e-08
3.17645e-07
1.44854e-08
3.1772e-07
1.41067e-08
3.17792e-07
1.37473e-08
3.17862e-07
1.34056e-08
3.1793e-07
1.308e-08
3.17997e-07
1.27693e-08
3.18062e-07
1.24719e-08
3.18126e-07
1.2187e-08
3.18189e-07
1.19131e-08
3.1825e-07
1.16497e-08
3.18311e-07
1.13953e-08
3.1837e-07
1.11495e-08
3.18428e-07
1.09111e-08
3.18485e-07
1.06796e-08
3.1854e-07
1.04544e-08
3.18594e-07
1.02339e-08
3.18646e-07
1.00201e-08
3.18694e-07
9.80806e-09
3.1874e-07
9.60573e-09
3.18778e-07
9.40535e-09
3.18812e-07
9.22361e-09
3.18834e-07
9.06211e-09
3.1885e-07
8.94538e-09
8.90457e-09
3.18866e-07
3.16742e-07
2.43173e-08
3.19656e-07
4.69958e-08
3.20976e-07
4.38025e-08
3.21904e-07
3.78014e-08
3.22769e-07
3.58775e-08
3.2338e-07
3.43606e-08
3.23789e-07
3.20408e-08
3.24126e-07
2.98392e-08
3.24424e-07
2.81165e-08
3.24682e-07
2.66762e-08
3.24903e-07
2.53719e-08
3.25099e-07
2.41843e-08
3.25276e-07
2.3113e-08
3.25437e-07
2.21434e-08
3.25584e-07
2.12578e-08
3.2572e-07
2.04433e-08
3.25846e-07
1.9691e-08
3.25964e-07
1.89935e-08
3.26075e-07
1.83447e-08
3.26179e-07
1.77391e-08
3.26278e-07
1.71724e-08
3.26371e-07
1.66406e-08
3.26461e-07
1.61406e-08
3.26547e-07
1.56697e-08
3.26629e-07
1.52255e-08
3.26708e-07
1.48058e-08
3.26785e-07
1.44087e-08
3.26859e-07
1.40324e-08
3.26931e-07
1.36752e-08
3.27002e-07
1.33355e-08
3.2707e-07
1.30117e-08
3.27137e-07
1.27026e-08
3.27202e-07
1.24067e-08
3.27266e-07
1.21231e-08
3.27328e-07
1.18504e-08
3.2739e-07
1.15881e-08
3.2745e-07
1.13348e-08
3.2751e-07
1.10901e-08
3.27568e-07
1.08528e-08
3.27625e-07
1.06225e-08
3.27681e-07
1.03987e-08
3.27735e-07
1.01799e-08
3.27787e-07
9.96798e-09
3.27836e-07
9.7592e-09
3.27882e-07
9.55978e-09
3.27922e-07
9.36563e-09
3.27956e-07
9.18915e-09
3.27982e-07
9.03653e-09
3.28002e-07
8.92524e-09
8.88337e-09
3.28023e-07
3.26153e-07
2.19671e-08
3.28994e-07
4.41543e-08
3.30348e-07
4.24485e-08
3.31256e-07
3.68935e-08
3.32118e-07
3.5016e-08
3.32754e-07
3.37244e-08
3.3318e-07
3.16145e-08
3.33523e-07
2.94963e-08
3.33828e-07
2.78118e-08
3.34092e-07
2.64124e-08
3.34318e-07
2.51453e-08
3.34518e-07
2.39847e-08
3.34697e-07
2.29333e-08
3.34861e-07
2.19801e-08
3.3501e-07
2.11084e-08
3.35148e-07
2.03058e-08
3.35275e-07
1.95635e-08
3.35394e-07
1.88746e-08
3.35505e-07
1.82333e-08
3.3561e-07
1.76342e-08
3.3571e-07
1.70732e-08
3.35804e-07
1.65464e-08
3.35894e-07
1.60508e-08
3.3598e-07
1.55837e-08
3.36062e-07
1.51429e-08
3.36142e-07
1.47263e-08
3.36218e-07
1.43319e-08
3.36293e-07
1.39582e-08
3.36365e-07
1.36032e-08
3.36435e-07
1.32655e-08
3.36503e-07
1.29435e-08
3.3657e-07
1.2636e-08
3.36635e-07
1.23416e-08