/*--------------------------------*- C++ -*----------------------------------*\
  =========                 |
  \\      /  F ield         | OpenFOAM: The Open Source CFD Toolbox
   \\    /   O peration     | Website:  https://openfoam.org
    \\  /    A nd           | Version:  7
     \\/     M anipulation  |
\*---------------------------------------------------------------------------*/
FoamFile
{
    version     2.0;
    format      ascii;
    class       volVectorField;
    location    "0.04";
    object      U;
}
// * * * * * * * * * * * * * * * * * * * * * * * * * * * * * * * * * * * * * //

dimensions      [0 1 -1 0 0 0 0];

internalField   nonuniform List<vector> 
70000
(
(0.553389 0.0167231 0)
(0.251253 0.00340113 0)
(0.166186 0.000322124 0)
(0.132432 5.438e-05 0)
(0.117234 4.58128e-05 0)
(0.107305 5.39855e-05 0)
(0.0993519 4.63525e-05 0)
(0.0929073 3.70164e-05 0)
(0.0876586 3.07071e-05 0)
(0.0832856 2.63858e-05 0)
(0.0795597 2.30937e-05 0)
(0.0763331 2.0458e-05 0)
(0.0735041 1.83094e-05 0)
(0.0709987 1.65349e-05 0)
(0.0687606 1.50509e-05 0)
(0.0667463 1.37953e-05 0)
(0.0649213 1.27223e-05 0)
(0.0632584 1.17968e-05 0)
(0.0617352 1.09926e-05 0)
(0.0603334 1.0289e-05 0)
(0.059038 9.66976e-06 0)
(0.0578362 9.12198e-06 0)
(0.0567174 8.63521e-06 0)
(0.0556723 8.20093e-06 0)
(0.0546933 7.81208e-06 0)
(0.0537736 7.46295e-06 0)
(0.0529074 7.14829e-06 0)
(0.0520895 6.86489e-06 0)
(0.0513156 6.6076e-06 0)
(0.0505818 6.37678e-06 0)
(0.0498847 6.16469e-06 0)
(0.0492211 5.97814e-06 0)
(0.0485886 5.8022e-06 0)
(0.0479844 5.65578e-06 0)
(0.0474069 5.50947e-06 0)
(0.0468536 5.40194e-06 0)
(0.046323 5.28504e-06 0)
(0.0458141 5.20981e-06 0)
(0.0453232 5.14766e-06 0)
(0.0448551 5.05939e-06 0)
(0.0443946 5.17283e-06 0)
(0.0439694 4.86764e-06 0)
(0.0435215 5.60933e-06 0)
(0.043157 4.31996e-06 0)
(0.0426767 7.24714e-06 0)
(0.0424363 2.28893e-06 0)
(0.0417982 1.27313e-05 0)
(0.0418611 -5.39528e-06 0)
(0.040873 3.53614e-05 0)
(0.0386184 -0.00151657 0)
(0.884898 0.0431678 0)
(0.649703 0.0201949 0)
(0.494291 0.00659924 0)
(0.40362 0.00276847 0)
(0.354683 0.00155283 0)
(0.32337 0.00113242 0)
(0.299502 0.000911226 0)
(0.280297 0.000747341 0)
(0.264576 0.000624523 0)
(0.251447 0.000533818 0)
(0.24026 0.000464983 0)
(0.230571 0.000410838 0)
(0.222076 0.000367113 0)
(0.214551 0.000331147 0)
(0.207827 0.000301133 0)
(0.201774 0.000275777 0)
(0.19629 0.000254127 0)
(0.191292 0.000235468 0)
(0.186713 0.000219256 0)
(0.1825 0.00020507 0)
(0.178606 0.000192577 0)
(0.174993 0.000181514 0)
(0.17163 0.000171666 0)
(0.16849 0.00016286 0)
(0.165548 0.000154952 0)
(0.162784 0.000147822 0)
(0.160182 0.000141369 0)
(0.157726 0.000135511 0)
(0.155402 0.000130171 0)
(0.1532 0.000125296 0)
(0.151109 0.000120819 0)
(0.149119 0.000116716 0)
(0.147224 0.000112911 0)
(0.145415 0.00010943 0)
(0.143688 0.000106141 0)
(0.142035 0.000103177 0)
(0.140452 0.00010027 0)
(0.138936 9.77619e-05 0)
(0.137477 9.51239e-05 0)
(0.136088 9.30281e-05 0)
(0.13473 9.06262e-05 0)
(0.133476 8.87892e-05 0)
(0.132174 8.69659e-05 0)
(0.131104 8.45674e-05 0)
(0.129747 8.52178e-05 0)
(0.129032 7.82449e-05 0)
(0.12732 9.20656e-05 0)
(0.127404 4.24556e-05 0)
(0.124914 0.00028226 0)
(0.123255 -0.00247231 0)
(0.991237 0.0499023 0)
(0.890337 0.0307207 0)
(0.762654 0.0146 0)
(0.656625 0.00798181 0)
(0.585285 0.00488688 0)
(0.535868 0.00347308 0)
(0.497991 0.00273761 0)
(0.467362 0.00224537 0)
(0.442037 0.00188233 0)
(0.420716 0.00161086 0)
(0.402452 0.00140356 0)
(0.386578 0.00124047 0)
(0.372617 0.00110883 0)
(0.36022 0.00100054 0)
(0.34912 0.000910133 0)
(0.33911 0.000833717 0)
(0.330028 0.000768434 0)
(0.32174 0.000712143 0)
(0.31414 0.000663211 0)
(0.307139 0.000620372 0)
(0.300664 0.000582629 0)
(0.294653 0.000549187 0)
(0.289054 0.000519405 0)
(0.283822 0.000492757 0)
(0.278919 0.000468813 0)
(0.274312 0.00044721 0)
(0.269973 0.000427647 0)
(0.265876 0.000409868 0)
(0.261999 0.000393654 0)
(0.258324 0.000378825 0)
(0.254834 0.000365203 0)
(0.251513 0.000352678 0)
(0.248349 0.000341067 0)
(0.245329 0.000330367 0)
(0.242445 0.000320289 0)
(0.239685 0.000311072 0)
(0.237043 0.00030209 0)
(0.234513 0.000294157 0)
(0.23208 0.000285799 0)
(0.229763 0.000279136 0)
(0.227504 0.000270816 0)
(0.225408 0.00026562 0)
(0.223258 0.00025667 0)
(0.221455 0.000253038 0)
(0.21926 0.000243662 0)
(0.217989 0.000238078 0)
(0.215351 0.000242497 0)
(0.215206 0.00016174 0)
(0.211495 0.000480818 0)
(0.211499 -0.00232849 0)
(1.0156 0.0489215 0)
(1.00595 0.035878 0)
(0.935925 0.0207956 0)
(0.852075 0.0135081 0)
(0.782117 0.00921131 0)
(0.726905 0.00678445 0)
(0.681813 0.00538662 0)
(0.644047 0.00444753 0)
(0.61202 0.00375397 0)
(0.584542 0.00322837 0)
(0.560677 0.00282234 0)
(0.539718 0.00250071 0)
(0.521135 0.00223996 0)
(0.504525 0.00202471 0)
(0.489573 0.00184444 0)
(0.476028 0.00169164 0)
(0.463691 0.0015608 0)
(0.452397 0.00144776 0)
(0.442011 0.00134931 0)
(0.432421 0.00126298 0)
(0.423533 0.00118682 0)
(0.415266 0.00111925 0)
(0.407553 0.001059 0)
(0.400336 0.00100503 0)
(0.393564 0.000956497 0)
(0.387193 0.000912665 0)
(0.381186 0.00087294 0)
(0.37551 0.000836809 0)
(0.370135 0.000803837 0)
(0.365035 0.000773652 0)
(0.360188 0.000745915 0)
(0.355573 0.000720375 0)
(0.351174 0.000696704 0)
(0.346973 0.000674829 0)
(0.342958 0.000654263 0)
(0.339115 0.000635338 0)
(0.335434 0.000616978 0)
(0.331907 0.000600583 0)
(0.328515 0.000583399 0)
(0.325279 0.000569573 0)
(0.322132 0.000552047 0)
(0.319193 0.000541639 0)
(0.316213 0.000521232 0)
(0.313649 0.000516225 0)
(0.310665 0.000489574 0)
(0.308734 0.000488854 0)
(0.305327 0.000469727 0)
(0.304648 0.000376728 0)
(0.30012 0.000665607 0)
(0.300521 -0.00178188 0)
(1.01434 0.0460052 0)
(1.04753 0.0374924 0)
(1.02456 0.024157 0)
(0.974714 0.0175647 0)
(0.923379 0.0131273 0)
(0.87659 0.0102104 0)
(0.834416 0.00834644 0)
(0.796661 0.00702518 0)
(0.763092 0.00601536 0)
(0.733272 0.00522795 0)
(0.706686 0.00460607 0)
(0.682864 0.00410557 0)
(0.661406 0.00369503 0)
(0.641979 0.00335298 0)
(0.624307 0.00306433 0)
(0.608158 0.00281814 0)
(0.593339 0.00260618 0)
(0.579687 0.00242221 0)
(0.567065 0.00226136 0)
(0.555356 0.00211982 0)
(0.544458 0.00199457 0)
(0.534286 0.00188315 0)
(0.524765 0.00178357 0)
(0.51583 0.00169418 0)
(0.507426 0.00161363 0)
(0.499502 0.00154076 0)
(0.492014 0.00147462 0)
(0.484926 0.00141438 0)
(0.478202 0.00135934 0)
(0.471813 0.0013089 0)
(0.465733 0.00126251 0)
(0.459936 0.00121974 0)
(0.454404 0.00118009 0)
(0.449114 0.00114338 0)
(0.444053 0.00110891 0)
(0.439204 0.00107707 0)
(0.434554 0.00104631 0)
(0.430093 0.00101861 0)
(0.425803 0.000989827 0)
(0.421698 0.000966322 0)
(0.417714 0.000936892 0)
(0.413965 0.000919108 0)
(0.410209 0.000884334 0)
(0.406886 0.00087618 0)
(0.40319 0.000828961 0)
(0.400529 0.000831097 0)
(0.39652 0.000784302 0)
(0.395044 0.000682894 0)
(0.390165 0.000914584 0)
(0.389696 -0.00117064 0)
(1.00933 0.0429168 0)
(1.05527 0.0372683 0)
(1.05867 0.0253025 0)
(1.03633 0.019766 0)
(1.00704 0.015818 0)
(0.975969 0.0129416 0)
(0.944426 0.0109649 0)
(0.913547 0.00948249 0)
(0.884181 0.00829202 0)
(0.856715 0.00732427 0)
(0.831226 0.00653436 0)
(0.807651 0.00588221 0)
(0.785867 0.00533647 0)
(0.765731 0.00487437 0)
(0.747096 0.00447923 0)
(0.729821 0.00413846 0)
(0.713773 0.00384233 0)
(0.698834 0.00358323 0)
(0.684897 0.00335514 0)
(0.671865 0.00315323 0)
(0.659653 0.00297361 0)
(0.648185 0.00281309 0)
(0.637393 0.00266904 0)
(0.627218 0.00253927 0)
(0.617605 0.00242194 0)
(0.608507 0.00231549 0)
(0.599881 0.00221862 0)
(0.591689 0.00213018 0)
(0.583896 0.00204921 0)
(0.576472 0.00197486 0)
(0.569389 0.00190637 0)
(0.562622 0.00184313 0)
(0.55615 0.00178446 0)
(0.549951 0.00173004 0)
(0.544008 0.00167895 0)
(0.538304 0.00163162 0)
(0.532827 0.00158603 0)
(0.527562 0.0015447 0)
(0.522494 0.00150215 0)
(0.517631 0.00146678 0)
(0.512917 0.00142358 0)
(0.508447 0.00139614 0)
(0.504012 0.00134571 0)
(0.49999 0.00133123 0)
(0.49569 0.00126409 0)
(0.492301 0.00126234 0)
(0.487846 0.00119334 0)
(0.485461 0.00107316 0)
(0.48051 0.00126041 0)
(0.478777 -0.000511816 0)
(1.00625 0.0400355 0)
(1.05206 0.0363414 0)
(1.06607 0.0252326 0)
(1.05957 0.020567 0)
(1.04682 0.0172462 0)
(1.03072 0.014663 0)
(1.0118 0.0128259 0)
(0.991099 0.0114004 0)
(0.969674 0.0102034 0)
(0.948256 0.00918754 0)
(0.927289 0.00832721 0)
(0.907036 0.00759461 0)
(0.887641 0.00696536 0)
(0.869175 0.00642071 0)
(0.851655 0.00594623 0)
(0.835066 0.00553049 0)
(0.819377 0.00516426 0)
(0.804543 0.00484005 0)
(0.790515 0.00455171 0)
(0.777244 0.00429418 0)
(0.764678 0.00406328 0)
(0.75277 0.00385549 0)
(0.741472 0.00366786 0)
(0.730742 0.00349789 0)
(0.720539 0.00334346 0)
(0.710825 0.00320274 0)
(0.701566 0.00307416 0)
(0.69273 0.00295635 0)
(0.684289 0.00284814 0)
(0.676214 0.00274848 0)
(0.668482 0.00265646 0)
(0.66107 0.00257127 0)
(0.653958 0.0024921 0)
(0.647127 0.00241849 0)
(0.640561 0.00234935 0)
(0.634242 0.0022851 0)
(0.628159 0.00222334 0)
(0.622298 0.00216697 0)
(0.616646 0.00210949 0)
(0.611205 0.00206077 0)
(0.605932 0.00200297 0)
(0.600896 0.00196394 0)
(0.595937 0.00189805 0)
(0.591343 0.00187369 0)
(0.586583 0.00178972 0)
(0.582563 0.00177601 0)
(0.577799 0.0016934 0)
(0.574582 0.00154483 0)
(0.56963 0.0016982 0)
(0.566803 0.00021335 0)
(1.00495 0.0373577 0)
(1.04727 0.0352598 0)
(1.06396 0.0246935 0)
(1.06422 0.0205945 0)
(1.06063 0.0177854 0)
(1.05468 0.0155072 0)
(1.0459 0.0138849 0)
(1.03469 0.0126241 0)
(1.02176 0.0115379 0)
(1.00772 0.0105851 0)
(0.993015 0.00975233 0)
(0.978011 0.00902223 0)
(0.962969 0.00837816 0)
(0.948082 0.00780707 0)
(0.933486 0.00729875 0)
(0.919272 0.00684481 0)
(0.905496 0.00643816 0)
(0.892194 0.00607277 0)
(0.879379 0.00574351 0)
(0.867057 0.00544599 0)
(0.85522 0.00517643 0)
(0.843858 0.00493159 0)
(0.832955 0.00470867 0)
(0.822493 0.00450521 0)
(0.812452 0.0043191 0)
(0.802813 0.00414847 0)
(0.793556 0.0039917 0)
(0.784661 0.00384734 0)
(0.776109 0.00371414 0)
(0.767882 0.00359095 0)
(0.759962 0.00347678 0)
(0.752333 0.00337072 0)
(0.744981 0.00327187 0)
(0.737888 0.00317969 0)
(0.731045 0.00309295 0)
(0.724434 0.00301206 0)
(0.71805 0.00293437 0)
(0.711878 0.00286298 0)
(0.705909 0.00279074 0)
(0.700141 0.00272838 0)
(0.694546 0.00265641 0)
(0.689167 0.00260483 0)
(0.683893 0.00252488 0)
(0.678926 0.00248794 0)
(0.673889 0.00239111 0)
(0.669422 0.00235944 0)
(0.664487 0.00226983 0)
(0.660649 0.00209136 0)
(0.655717 0.00221256 0)
(0.652117 0.000996624 0)
(1.0044 0.0348099 0)
(1.04323 0.0341871 0)
(1.05992 0.0240533 0)
(1.06226 0.0203018 0)
(1.06245 0.0178506 0)
(1.06174 0.0157898 0)
(1.05915 0.0143409 0)
(1.05458 0.0132454 0)
(1.04835 0.0123016 0)
(1.04076 0.0114608 0)
(1.0321 0.0107124 0)
(1.02263 0.0100431 0)
(1.01256 0.00944022 0)
(1.00211 0.0088943 0)
(0.991425 0.00839849 0)
(0.980643 0.0079473 0)
(0.969865 0.00753599 0)
(0.959171 0.00716047 0)
(0.948621 0.00681709 0)
(0.938259 0.00650265 0)
(0.928116 0.00621429 0)
(0.918214 0.00594948 0)
(0.908569 0.00570594 0)
(0.899186 0.00548164 0)
(0.89007 0.00527475 0)
(0.881221 0.00508362 0)
(0.872636 0.0049068 0)
(0.864309 0.00474294 0)
(0.856235 0.00459086 0)
(0.848408 0.00444946 0)
(0.840819 0.00431776 0)
(0.833459 0.00419487 0)
(0.826323 0.00407987 0)
(0.8194 0.00397219 0)
(0.812685 0.00387059 0)
(0.806167 0.00377544 0)
(0.799843 0.00368397 0)
(0.793701 0.00359939 0)
(0.787738 0.00351423 0)
(0.781951 0.00343949 0)
(0.776321 0.0033552 0)
(0.770878 0.00329155 0)
(0.765545 0.00320003 0)
(0.760461 0.00314957 0)
(0.755368 0.00304393 0)
(0.750701 0.00299183 0)
(0.745765 0.00289911 0)
(0.741578 0.00269597 0)
(0.736735 0.00278424 0)
(0.73269 0.00181305 0)
(1.00402 0.03237 0)
(1.0399 0.0331376 0)
(1.05615 0.023431 0)
(1.0589 0.0199147 0)
(1.06018 0.0177215 0)
(1.06151 0.0157954 0)
(1.06186 0.0144477 0)
(1.06095 0.0134671 0)
(1.05888 0.0126393 0)
(1.05574 0.0119044 0)
(1.05163 0.011249 0)
(1.04667 0.0106596 0)
(1.04097 0.0101235 0)
(1.03468 0.00963195 0)
(1.02789 0.00917921 0)
(1.02074 0.00876114 0)
(1.0133 0.00837444 0)
(1.00566 0.00801633 0)
(0.997903 0.00768439 0)
(0.990077 0.00737646 0)
(0.982233 0.00709064 0)
(0.974413 0.00682515 0)
(0.966647 0.0065784 0)
(0.958963 0.0063489 0)
(0.951379 0.00613528 0)
(0.943911 0.00593626 0)
(0.93657 0.0057507 0)
(0.929366 0.00557748 0)
(0.922304 0.00541562 0)
(0.915387 0.00526418 0)
(0.908619 0.00512231 0)
(0.901999 0.00498921 0)
(0.895528 0.00486402 0)
(0.889204 0.00474625 0)
(0.883027 0.00463466 0)
(0.876993 0.00452968 0)
(0.871102 0.00442851 0)
(0.865349 0.00433437 0)
(0.859735 0.0042398 0)
(0.854256 0.00415561 0)
(0.848904 0.00406226 0)
(0.843698 0.00398866 0)
(0.838589 0.00388909 0)
(0.83367 0.00382618 0)
(0.828771 0.00371582 0)
(0.824176 0.00364418 0)
(0.81944 0.00355079 0)
(0.815194 0.0033317 0)
(0.810572 0.003388 0)
(0.806394 0.00263204 0)
(1.00364 0.0300298 0)
(1.03691 0.0320906 0)
(1.0528 0.0228421 0)
(1.05566 0.0195105 0)
(1.05708 0.0175307 0)
(1.05897 0.0156966 0)
(1.06039 0.0143964 0)
(1.06107 0.0134788 0)
(1.06106 0.0127246 0)
(1.06039 0.012064 0)
(1.05906 0.011481 0)
(1.0571 0.0109606 0)
(1.05452 0.0104888 0)
(1.05139 0.0100556 0)
(1.04776 0.00965483 0)
(1.04368 0.00928229 0)
(1.03923 0.00893487 0)
(1.03446 0.00861016 0)
(1.02943 0.00830625 0)
(1.02418 0.00802152 0)
(1.01876 0.0077546 0)
(1.01322 0.00750427 0)
(1.00758 0.0072694 0)
(1.00188 0.00704898 0)
(0.996147 0.00684205 0)
(0.9904 0.00664768 0)
(0.984658 0.00646504 0)
(0.978939 0.00629329 0)
(0.973255 0.00613171 0)
(0.967618 0.00597952 0)
(0.962037 0.00583606 0)
(0.956519 0.00570067 0)
(0.951071 0.00557262 0)
(0.945697 0.00545153 0)
(0.940402 0.00533623 0)
(0.935187 0.00522721 0)
(0.930057 0.00512175 0)
(0.925011 0.00502303 0)
(0.920053 0.00492379 0)
(0.915183 0.0048344 0)
(0.910399 0.00473636 0)
(0.905714 0.00465632 0)
(0.901099 0.00455302 0)
(0.896615 0.00448046 0)
(0.892154 0.00436957 0)
(0.887897 0.00428198 0)
(0.883572 0.00418984 0)
(0.879544 0.00396514 0)
(0.875302 0.00399263 0)
(0.871279 0.00342066 0)
(1.00327 0.0277903 0)
(1.03409 0.0310324 0)
(1.04969 0.0222797 0)
(1.0527 0.0191044 0)
(1.05408 0.017321 0)
(1.05602 0.0155687 0)
(1.05772 0.0142905 0)
(1.05892 0.0134032 0)
(1.05972 0.0126896 0)
(1.06016 0.0120724 0)
(1.06023 0.0115345 0)
(1.0599 0.0110608 0)
(1.05917 0.010636 0)
(1.05804 0.0102492 0)
(1.05653 0.00989315 0)
(1.05465 0.00956286 0)
(1.05243 0.00925483 0)
(1.0499 0.00896638 0)
(1.04709 0.00869548 0)
(1.04403 0.00844052 0)
(1.04074 0.00820023 0)
(1.03727 0.00797354 0)
(1.03363 0.00775954 0)
(1.02985 0.00755742 0)
(1.02595 0.00736645 0)
(1.02196 0.00718593 0)
(1.01789 0.00701524 0)
(1.01376 0.00685374 0)
(1.00959 0.00670088 0)
(1.00538 0.00655607 0)
(1.00116 0.00641878 0)
(0.996936 0.0062885 0)
(0.992709 0.00616463 0)
(0.988491 0.00604687 0)
(0.984291 0.00593417 0)
(0.980112 0.00582709 0)
(0.975962 0.00572301 0)
(0.971845 0.00562505 0)
(0.967765 0.00552632 0)
(0.963726 0.00543649 0)
(0.959728 0.00533857 0)
(0.955783 0.00525628 0)
(0.951875 0.00515387 0)
(0.948043 0.00507559 0)
(0.944224 0.00496822 0)
(0.940524 0.00486998 0)
(0.936789 0.00478095 0)
(0.933212 0.00456101 0)
(0.929505 0.00456483 0)
(0.925875 0.00414653 0)
(1.00292 0.0256547 0)
(1.03137 0.0299586 0)
(1.04669 0.0217394 0)
(1.0499 0.0186962 0)
(1.05127 0.0170994 0)
(1.05317 0.0154337 0)
(1.0549 0.014171 0)
(1.05622 0.0132993 0)
(1.05725 0.0126088 0)
(1.05808 0.0120156 0)
(1.05871 0.0115023 0)
(1.05912 0.0110552 0)
(1.05929 0.0106592 0)
(1.05923 0.0103025 0)
(1.05892 0.00997732 0)
(1.05836 0.00967811 0)
(1.05756 0.00940083 0)
(1.05652 0.00914239 0)
(1.05525 0.00890042 0)
(1.05377 0.00867306 0)
(1.05209 0.00845885 0)
(1.05022 0.00825663 0)
(1.04818 0.00806545 0)
(1.04599 0.00788448 0)
(1.04365 0.00771305 0)
(1.04119 0.00755051 0)
(1.03861 0.0073963 0)
(1.03594 0.00724987 0)
(1.03318 0.00711075 0)
(1.03035 0.00697844 0)
(1.02746 0.0068525 0)
(1.02451 0.00673251 0)
(1.02151 0.00661792 0)
(1.01849 0.00650855 0)
(1.01543 0.00640339 0)
(1.01235 0.00630307 0)
(1.00926 0.00620509 0)
(1.00616 0.00611245 0)
(1.00305 0.00601872 0)
(0.999952 0.00593271 0)
(0.996853 0.00583926 0)
(0.993767 0.00575873 0)
(0.990686 0.00566141 0)
(0.987636 0.00558152 0)
(0.984582 0.00548117 0)
(0.981581 0.00537815 0)
(0.978553 0.00529399 0)
(0.975586 0.00508785 0)
(0.972525 0.00507452 0)
(0.969457 0.00478181 0)
(1.0026 0.0236259 0)
(1.02879 0.0288678 0)
(1.04377 0.0212201 0)
(1.04721 0.0182859 0)
(1.04858 0.0168643 0)
(1.05045 0.0152942 0)
(1.05217 0.0140489 0)
(1.0535 0.0131882 0)
(1.05456 0.0125141 0)
(1.05549 0.011936 0)
(1.05629 0.0114364 0)
(1.05696 0.0110038 0)
(1.0575 0.0106235 0)
(1.05791 0.010284 0)
(1.05817 0.00997707 0)
(1.05828 0.0096972 0)
(1.05825 0.00944002 0)
(1.05806 0.00920217 0)
(1.05771 0.008981 0)
(1.05722 0.00877441 0)
(1.05657 0.00858074 0)
(1.05579 0.00839864 0)
(1.05486 0.00822701 0)
(1.0538 0.00806493 0)
(1.05262 0.00791164 0)
(1.05132 0.00776645 0)
(1.04991 0.00762877 0)
(1.04839 0.00749804 0)
(1.04679 0.00737376 0)
(1.0451 0.00725548 0)
(1.04333 0.00714273 0)
(1.04149 0.00703514 0)
(1.03959 0.00693217 0)
(1.03762 0.0068337 0)
(1.03561 0.00673873 0)
(1.03355 0.00664792 0)
(1.03146 0.00655887 0)
(1.02933 0.0064744 0)
(1.02716 0.00638862 0)
(1.02498 0.00630934 0)
(1.02277 0.00622341 0)
(1.02055 0.00614765 0)
(1.01831 0.0060584 0)
(1.01607 0.00598044 0)
(1.0138 0.00588945 0)
(1.01155 0.00578706 0)
(1.00926 0.00570917 0)
(1.00697 0.00552353 0)
(1.0046 0.00549987 0)
(1.00218 0.00530759 0)
(1.0023 0.0217055 0)
(1.02633 0.0277608 0)
(1.04094 0.0207201 0)
(1.04461 0.0178751 0)
(1.046 0.0166144 0)
(1.04783 0.0151487 0)
(1.04955 0.0139254 0)
(1.05087 0.0130747 0)
(1.05193 0.0124154 0)
(1.05286 0.0118498 0)
(1.05369 0.0113599 0)
(1.05443 0.0109359 0)
(1.05508 0.0105646 0)
(1.05565 0.0102346 0)
(1.05614 0.00993784 0)
(1.05654 0.00966886 0)
(1.05685 0.00942331 0)
(1.05707 0.00919779 0)
(1.0572 0.00898954 0)
(1.05723 0.00879635 0)
(1.05717 0.00861642 0)
(1.05701 0.00844827 0)
(1.05675 0.0082907 0)
(1.05641 0.00814268 0)
(1.05597 0.00800335 0)
(1.05544 0.00787196 0)
(1.05482 0.00774785 0)
(1.05413 0.00763039 0)
(1.05335 0.00751907 0)
(1.0525 0.00741335 0)
(1.05157 0.00731277 0)
(1.05058 0.00721693 0)
(1.04952 0.00712527 0)
(1.04841 0.00703767 0)
(1.04724 0.00695312 0)
(1.04602 0.00687228 0)
(1.04475 0.00679284 0)
(1.04344 0.00671739 0)
(1.04209 0.0066406 0)
(1.0407 0.0065692 0)
(1.03928 0.00649212 0)
(1.03782 0.00642265 0)
(1.03634 0.00634287 0)
(1.03484 0.00626915 0)
(1.0333 0.00618842 0)
(1.03175 0.00609077 0)
(1.03016 0.00601987 0)
(1.02853 0.00585868 0)
(1.02681 0.00583078 0)
(1.02503 0.00571688 0)
(1.00203 0.0198944 0)
(1.02401 0.0266409 0)
(1.0382 0.0202364 0)
(1.04208 0.0174655 0)
(1.0435 0.0163498 0)
(1.0453 0.0149957 0)
(1.04702 0.0138 0)
(1.04834 0.0129594 0)
(1.04939 0.0123146 0)
(1.0503 0.0117616 0)
(1.05113 0.0112803 0)
(1.05187 0.0108632 0)
(1.05254 0.0104981 0)
(1.05315 0.0101741 0)
(1.0537 0.00988347 0)
(1.0542 0.00962072 0)
(1.05464 0.00938172 0)
(1.05502 0.00916313 0)
(1.05535 0.00896224 0)
(1.05563 0.00877682 0)
(1.05585 0.00860506 0)
(1.056 0.00844543 0)
(1.0561 0.00829667 0)
(1.05614 0.00815773 0)
(1.05612 0.00802768 0)
(1.05605 0.00790571 0)
(1.05591 0.00779113 0)
(1.05571 0.00768326 0)
(1.05546 0.00758152 0)
(1.05515 0.00748537 0)
(1.05478 0.00739426 0)
(1.05437 0.00730779 0)
(1.0539 0.00722535 0)
(1.05338 0.00714681 0)
(1.05282 0.00707116 0)
(1.05221 0.00699897 0)
(1.05155 0.0069281 0)
(1.05086 0.00686079 0)
(1.05013 0.00679238 0)
(1.04936 0.0067284 0)
(1.04856 0.00665987 0)
(1.04772 0.00659674 0)
(1.04685 0.00652624 0)
(1.04595 0.00645775 0)
(1.04502 0.00638681 0)
(1.04405 0.00629637 0)
(1.04304 0.00623242 0)
(1.04198 0.00609686 0)
(1.04084 0.00606941 0)
(1.03962 0.00601496 0)
(1.00179 0.0181927 0)
(1.02183 0.0255118 0)
(1.03557 0.019765 0)
(1.03965 0.0170592 0)
(1.0411 0.0160713 0)
(1.04286 0.0148346 0)
(1.04458 0.0136721 0)
(1.0459 0.012842 0)
(1.04694 0.0122118 0)
(1.04784 0.0116719 0)
(1.04865 0.0111995 0)
(1.04938 0.0107889 0)
(1.05005 0.0104294 0)
(1.05065 0.0101103 0)
(1.05121 0.00982414 0)
(1.05173 0.00956561 0)
(1.0522 0.00933074 0)
(1.05264 0.0091163 0)
(1.05304 0.00891967 0)
(1.0534 0.00873868 0)
(1.05373 0.00857154 0)
(1.05403 0.00841675 0)
(1.05428 0.00827306 0)
(1.05451 0.0081394 0)
(1.05469 0.00801485 0)
(1.05484 0.0078986 0)
(1.05495 0.00778992 0)
(1.05503 0.00768812 0)
(1.05507 0.0075926 0)
(1.05507 0.00750278 0)
(1.05503 0.00741808 0)
(1.05496 0.0073381 0)
(1.05485 0.00726216 0)
(1.05471 0.00719015 0)
(1.05453 0.00712103 0)
(1.05432 0.00705532 0)
(1.05408 0.006991 0)
(1.0538 0.00693 0)
(1.05349 0.0068683 0)
(1.05316 0.00681027 0)
(1.05279 0.00674889 0)
(1.05239 0.00669115 0)
(1.05197 0.00662859 0)
(1.05151 0.0065652 0)
(1.05103 0.00650257 0)
(1.0505 0.00642031 0)
(1.04994 0.00636264 0)
(1.04933 0.00625165 0)
(1.04863 0.00622774 0)
(1.04787 0.00621685 0)
(1.00157 0.0166003 0)
(1.01978 0.0243774 0)
(1.03303 0.019302 0)
(1.0373 0.0166577 0)
(1.03878 0.01578 0)
(1.04051 0.0146644 0)
(1.04223 0.0135413 0)
(1.04355 0.0127224 0)
(1.04458 0.0121067 0)
(1.04547 0.0115806 0)
(1.04627 0.0111176 0)
(1.04699 0.0107137 0)
(1.04764 0.0103597 0)
(1.04823 0.0100454 0)
(1.04878 0.00976332 0)
(1.04929 0.00950837 0)
(1.04977 0.00927673 0)
(1.05021 0.00906531 0)
(1.05063 0.00887157 0)
(1.05101 0.0086934 0)
(1.05138 0.00852906 0)
(1.05171 0.0083771 0)
(1.05203 0.00823631 0)
(1.05232 0.00810563 0)
(1.05259 0.00798417 0)
(1.05284 0.00787114 0)
(1.05306 0.00776581 0)
(1.05327 0.0076675 0)
(1.05344 0.0075756 0)
(1.0536 0.00748953 0)
(1.05373 0.00740869 0)
(1.05385 0.00733267 0)
(1.05393 0.0072608 0)
(1.054 0.00719291 0)
(1.05404 0.00712801 0)
(1.05406 0.00706652 0)
(1.05406 0.00700663 0)
(1.05403 0.00694987 0)
(1.05399 0.0068929 0)
(1.05392 0.00683903 0)
(1.05383 0.00678295 0)
(1.05372 0.00672918 0)
(1.05358 0.00667272 0)
(1.05342 0.00661367 0)
(1.05324 0.00655744 0)
(1.05301 0.00648324 0)
(1.05276 0.00643088 0)
(1.05245 0.00634191 0)
(1.05208 0.00632325 0)
(1.05164 0.00634294 0)
(1.00137 0.0151161 0)
(1.01787 0.0232419 0)
(1.0306 0.0188434 0)
(1.03503 0.0162626 0)
(1.03657 0.0154775 0)
(1.03825 0.0144846 0)
(1.03996 0.0134075 0)
(1.04129 0.0126006 0)
(1.04231 0.0119992 0)
(1.04319 0.0114874 0)
(1.04398 0.0110345 0)
(1.04468 0.0106377 0)
(1.04532 0.0102894 0)
(1.04591 0.0099799 0)
(1.04644 0.0097019 0)
(1.04694 0.00945044 0)
(1.04741 0.00922182 0)
(1.04784 0.00901308 0)
(1.04825 0.00882175 0)
(1.04864 0.00864579 0)
(1.04901 0.0084835 0)
(1.04935 0.00833348 0)
(1.04968 0.00819455 0)
(1.04999 0.0080657 0)
(1.05029 0.00794607 0)
(1.05057 0.00783487 0)
(1.05083 0.00773142 0)
(1.05108 0.00763505 0)
(1.05132 0.00754514 0)
(1.05154 0.00746114 0)
(1.05175 0.00738244 0)
(1.05194 0.00730863 0)
(1.05212 0.00723902 0)
(1.05229 0.00717346 0)
(1.05244 0.007111 0)
(1.05258 0.00705195 0)
(1.0527 0.0069947 0)
(1.05281 0.00694046 0)
(1.05291 0.00688649 0)
(1.05299 0.00683515 0)
(1.05305 0.00678264 0)
(1.0531 0.0067315 0)
(1.05314 0.0066793 0)
(1.05315 0.00662369 0)
(1.05315 0.00657202 0)
(1.05311 0.00650517 0)
(1.05305 0.0064572 0)
(1.05293 0.00638703 0)
(1.05277 0.00637427 0)
(1.05255 0.00641435 0)
(1.00119 0.0137386 0)
(1.0161 0.0221092 0)
(1.02828 0.0183856 0)
(1.03285 0.0158751 0)
(1.03444 0.0151655 0)
(1.03609 0.0142946 0)
(1.03778 0.01327 0)
(1.03911 0.0124768 0)
(1.04014 0.0118893 0)
(1.041 0.0113923 0)
(1.04178 0.0109501 0)
(1.04247 0.0105607 0)
(1.0431 0.0102183 0)
(1.04367 0.00991378 0)
(1.0442 0.00964 0)
(1.04469 0.00939211 0)
(1.04514 0.00916655 0)
(1.04557 0.00896045 0)
(1.04597 0.00877143 0)
(1.04635 0.00859751 0)
(1.0467 0.00843704 0)
(1.04704 0.00828865 0)
(1.04737 0.0081512 0)
(1.04768 0.0080237 0)
(1.04798 0.00790534 0)
(1.04826 0.00779535 0)
(1.04854 0.00769307 0)
(1.0488 0.00759785 0)
(1.04905 0.00750909 0)
(1.04929 0.00742623 0)
(1.04953 0.00734869 0)
(1.04975 0.00727605 0)
(1.04997 0.00720765 0)
(1.05017 0.0071433 0)
(1.05037 0.00708212 0)
(1.05056 0.00702432 0)
(1.05074 0.00696852 0)
(1.05091 0.00691558 0)
(1.05107 0.00686336 0)
(1.05123 0.00681339 0)
(1.05137 0.00676312 0)
(1.0515 0.00671358 0)
(1.05162 0.00666419 0)
(1.05173 0.00661125 0)
(1.05182 0.0065627 0)
(1.05188 0.00650233 0)
(1.05192 0.00645806 0)
(1.05193 0.00640342 0)
(1.05188 0.00639659 0)
(1.0518 0.00644944 0)
(1.00104 0.0124654 0)
(1.01446 0.0209837 0)
(1.02607 0.0179252 0)
(1.03076 0.0154959 0)
(1.03241 0.0148458 0)
(1.03402 0.0140941 0)
(1.03569 0.0131284 0)
(1.03703 0.0123508 0)
(1.03805 0.011777 0)
(1.03891 0.0112951 0)
(1.03967 0.0108642 0)
(1.04036 0.0104826 0)
(1.04097 0.0101463 0)
(1.04154 0.00984699 0)
(1.04205 0.00957759 0)
(1.04253 0.00933338 0)
(1.04297 0.00911096 0)
(1.04339 0.00890757 0)
(1.04378 0.0087209 0)
(1.04414 0.00854903 0)
(1.04449 0.00839035 0)
(1.04482 0.00824352 0)
(1.04514 0.00810743 0)
(1.04544 0.00798114 0)
(1.04574 0.00786385 0)
(1.04602 0.00775484 0)
(1.04629 0.00765344 0)
(1.04655 0.00755905 0)
(1.0468 0.00747106 0)
(1.04704 0.00738894 0)
(1.04728 0.00731209 0)
(1.04751 0.00724011 0)
(1.04774 0.00717236 0)
(1.04795 0.00710863 0)
(1.04817 0.0070481 0)
(1.04837 0.0069909 0)
(1.04857 0.00693585 0)
(1.04877 0.00688351 0)
(1.04895 0.00683226 0)
(1.04914 0.00678297 0)
(1.04931 0.00673404 0)
(1.04948 0.00668551 0)
(1.04964 0.00663791 0)
(1.04978 0.00658713 0)
(1.04992 0.00654077 0)
(1.05003 0.00648606 0)
(1.05012 0.00644515 0)
(1.05018 0.00640308 0)
(1.0502 0.00640187 0)
(1.05019 0.00646201 0)
(1.0009 0.0112938 0)
(1.01295 0.0198697 0)
(1.02397 0.0174589 0)
(1.02876 0.0151255 0)
(1.03047 0.0145207 0)
(1.03204 0.0138828 0)
(1.03369 0.012982 0)
(1.03503 0.0122228 0)
(1.03605 0.0116621 0)
(1.0369 0.0111956 0)
(1.03765 0.0107767 0)
(1.03833 0.0104034 0)
(1.03894 0.0100734 0)
(1.03949 0.00977945 0)
(1.04 0.00951459 0)
(1.04046 0.00927421 0)
(1.0409 0.00905504 0)
(1.0413 0.00885444 0)
(1.04168 0.00867018 0)
(1.04204 0.00850041 0)
(1.04238 0.00834354 0)
(1.0427 0.00819829 0)
(1.04301 0.00806356 0)
(1.0433 0.00793847 0)
(1.04359 0.00782222 0)
(1.04386 0.00771412 0)
(1.04412 0.00761353 0)
(1.04438 0.00751985 0)
(1.04462 0.0074325 0)
(1.04486 0.00735095 0)
(1.0451 0.00727461 0)
(1.04532 0.00720308 0)
(1.04555 0.00713574 0)
(1.04576 0.00707236 0)
(1.04597 0.0070122 0)
(1.04618 0.00695528 0)
(1.04638 0.00690063 0)
(1.04658 0.00684855 0)
(1.04678 0.00679784 0)
(1.04697 0.0067489 0)
(1.04715 0.0067008 0)
(1.04733 0.00665297 0)
(1.0475 0.00660658 0)
(1.04766 0.00655768 0)
(1.04781 0.00651302 0)
(1.04794 0.0064633 0)
(1.04805 0.00642561 0)
(1.04814 0.00639365 0)
(1.04819 0.00639756 0)
(1.04823 0.00646126 0)
(1.00078 0.0102202 0)
(1.01157 0.0187717 0)
(1.02198 0.0169842 0)
(1.02684 0.014764 0)
(1.02863 0.014192 0)
(1.03016 0.0136607 0)
(1.03178 0.0128303 0)
(1.03312 0.0120925 0)
(1.03414 0.0115449 0)
(1.03499 0.0110937 0)
(1.03573 0.0106875 0)
(1.0364 0.0103229 0)
(1.037 0.00999951 0)
(1.03754 0.00971108 0)
(1.03804 0.00945092 0)
(1.03849 0.00921451 0)
(1.03892 0.0089987 0)
(1.03931 0.00880099 0)
(1.03968 0.00861923 0)
(1.04003 0.00845161 0)
(1.04036 0.00829661 0)
(1.04068 0.00815298 0)
(1.04098 0.00801965 0)
(1.04126 0.00789577 0)
(1.04154 0.00778057 0)
(1.0418 0.00767338 0)
(1.04206 0.00757359 0)
(1.0423 0.00748061 0)
(1.04254 0.00739387 0)
(1.04278 0.00731284 0)
(1.043 0.00723696 0)
(1.04322 0.00716581 0)
(1.04344 0.0070988 0)
(1.04365 0.00703567 0)
(1.04386 0.00697576 0)
(1.04406 0.006919 0)
(1.04426 0.00686459 0)
(1.04445 0.00681264 0)
(1.04465 0.00676228 0)
(1.04483 0.00671355 0)
(1.04502 0.00666603 0)
(1.04519 0.00661881 0)
(1.04537 0.00657332 0)
(1.04553 0.00652616 0)
(1.04568 0.00648301 0)
(1.04582 0.00643772 0)
(1.04594 0.00640329 0)
(1.04603 0.00637944 0)
(1.0461 0.00638788 0)
(1.04616 0.00645266 0)
(1.00067 0.00924049 0)
(1.01031 0.0176941 0)
(1.02011 0.0164987 0)
(1.02501 0.0144112 0)
(1.02687 0.013862 0)
(1.02837 0.0134281 0)
(1.02995 0.0126726 0)
(1.0313 0.01196 0)
(1.03232 0.0114253 0)
(1.03316 0.0109894 0)
(1.03389 0.0105964 0)
(1.03455 0.010241 0)
(1.03515 0.00992451 0)
(1.03568 0.00964179 0)
(1.03617 0.00938651 0)
(1.03662 0.00915421 0)
(1.03703 0.00894188 0)
(1.03742 0.00874715 0)
(1.03778 0.00856797 0)
(1.03812 0.00840258 0)
(1.03844 0.00824952 0)
(1.03875 0.00810755 0)
(1.03904 0.00797566 0)
(1.03932 0.00785302 0)
(1.03959 0.0077389 0)
(1.03984 0.00763265 0)
(1.04009 0.00753367 0)
(1.04033 0.00744141 0)
(1.04056 0.00735528 0)
(1.04079 0.00727478 0)
(1.04101 0.00719935 0)
(1.04122 0.00712856 0)
(1.04143 0.00706186 0)
(1.04163 0.00699895 0)
(1.04184 0.00693926 0)
(1.04203 0.00688263 0)
(1.04223 0.0068284 0)
(1.04242 0.00677655 0)
(1.0426 0.00672645 0)
(1.04278 0.00667791 0)
(1.04296 0.00663083 0)
(1.04314 0.00658422 0)
(1.0433 0.00653951 0)
(1.04346 0.00649402 0)
(1.04361 0.00645237 0)
(1.04375 0.00641106 0)
(1.04387 0.00637991 0)
(1.04397 0.00636258 0)
(1.04404 0.00637488 0)
(1.04411 0.00643917 0)
(1.00058 0.00835009 0)
(1.00916 0.0166412 0)
(1.01835 0.016001 0)
(1.02326 0.0140663 0)
(1.0252 0.0135325 0)
(1.02667 0.0131855 0)
(1.02822 0.0125082 0)
(1.02956 0.0118249 0)
(1.03059 0.0113034 0)
(1.03142 0.0108825 0)
(1.03215 0.0105032 0)
(1.0328 0.0101577 0)
(1.03338 0.00984833 0)
(1.03391 0.0095715 0)
(1.03439 0.00932126 0)
(1.03483 0.00909323 0)
(1.03524 0.00888452 0)
(1.03562 0.00869287 0)
(1.03597 0.00851635 0)
(1.0363 0.00835326 0)
(1.03662 0.00820219 0)
(1.03692 0.00806194 0)
(1.0372 0.00793154 0)
(1.03747 0.00781018 0)
(1.03773 0.00769717 0)
(1.03798 0.00759188 0)
(1.03822 0.00749375 0)
(1.03845 0.00740222 0)
(1.03868 0.00731672 0)
(1.0389 0.00723676 0)
(1.03911 0.00716179 0)
(1.03932 0.00709137 0)
(1.03952 0.00702498 0)
(1.03972 0.00696231 0)
(1.03991 0.00690281 0)
(1.0401 0.00684631 0)
(1.04029 0.00679225 0)
(1.04048 0.0067405 0)
(1.04066 0.00669062 0)
(1.04083 0.00664231 0)
(1.04101 0.00659562 0)
(1.04117 0.00654964 0)
(1.04134 0.00650567 0)
(1.04149 0.00646181 0)
(1.04164 0.00642171 0)
(1.04177 0.00638398 0)
(1.04189 0.00635609 0)
(1.04198 0.00634402 0)
(1.04207 0.00635949 0)
(1.04215 0.00642226 0)
(1.0005 0.00754396 0)
(1.00813 0.0156173 0)
(1.01671 0.0154898 0)
(1.02159 0.0137286 0)
(1.02361 0.0132052 0)
(1.02506 0.0129338 0)
(1.02657 0.0123367 0)
(1.02791 0.0116869 0)
(1.02894 0.0111792 0)
(1.02977 0.010773 0)
(1.03049 0.0104079 0)
(1.03113 0.0100727 0)
(1.03171 0.00977085 0)
(1.03223 0.00950012 0)
(1.0327 0.0092551 0)
(1.03313 0.00903149 0)
(1.03353 0.00882651 0)
(1.03391 0.00863806 0)