/*--------------------------------*- C++ -*----------------------------------*\
  =========                 |
  \\      /  F ield         | OpenFOAM: The Open Source CFD Toolbox
   \\    /   O peration     | Website:  https://openfoam.org
    \\  /    A nd           | Version:  7
     \\/     M anipulation  |
\*---------------------------------------------------------------------------*/
FoamFile
{
    version     2.0;
    format      ascii;
    class       volVectorField;
    location    "0.04";
    object      U_0;
}
// * * * * * * * * * * * * * * * * * * * * * * * * * * * * * * * * * * * * * //

dimensions      [0 1 -1 0 0 0 0];

internalField   nonuniform List<vector> 
70000
(
(0.553389 0.0167231 0)
(0.251253 0.00340113 0)
(0.166186 0.000322122 0)
(0.132432 5.4379e-05 0)
(0.117235 4.58118e-05 0)
(0.107305 5.39845e-05 0)
(0.0993523 4.63516e-05 0)
(0.0929079 3.70155e-05 0)
(0.0876592 3.07062e-05 0)
(0.0832862 2.63847e-05 0)
(0.0795605 2.30927e-05 0)
(0.0763339 2.04569e-05 0)
(0.073505 1.83082e-05 0)
(0.0709997 1.65337e-05 0)
(0.0687617 1.50496e-05 0)
(0.0667474 1.3794e-05 0)
(0.0649225 1.27209e-05 0)
(0.0632597 1.17954e-05 0)
(0.0617365 1.09911e-05 0)
(0.0603349 1.02873e-05 0)
(0.0590395 9.66802e-06 0)
(0.0578378 9.12012e-06 0)
(0.0567191 8.63322e-06 0)
(0.0556741 8.19879e-06 0)
(0.0546952 7.80978e-06 0)
(0.0537756 7.46045e-06 0)
(0.0529095 7.14557e-06 0)
(0.0520917 6.86192e-06 0)
(0.051318 6.60433e-06 0)
(0.0505843 6.37318e-06 0)
(0.0498874 6.16069e-06 0)
(0.049224 5.97368e-06 0)
(0.0485917 5.7972e-06 0)
(0.0479877 5.65016e-06 0)
(0.0474104 5.50311e-06 0)
(0.0468573 5.39471e-06 0)
(0.0463271 5.27676e-06 0)
(0.0458186 5.20027e-06 0)
(0.0453281 5.13657e-06 0)
(0.0448605 5.04645e-06 0)
(0.0444005 5.15753e-06 0)
(0.043976 4.84948e-06 0)
(0.0435288 5.58749e-06 0)
(0.0431653 4.29337e-06 0)
(0.0426861 7.2145e-06 0)
(0.0424471 2.24857e-06 0)
(0.0418109 1.26768e-05 0)
(0.0418758 -5.45417e-06 0)
(0.0408918 3.52761e-05 0)
(0.0386356 -0.00151744 0)
(0.884898 0.0431678 0)
(0.649704 0.0201949 0)
(0.494291 0.00659923 0)
(0.403621 0.00276846 0)
(0.354684 0.00155282 0)
(0.323371 0.00113241 0)
(0.299503 0.000911218 0)
(0.280298 0.000747333 0)
(0.264577 0.000624515 0)
(0.251449 0.000533809 0)
(0.240261 0.000464973 0)
(0.230573 0.000410828 0)
(0.222078 0.000367103 0)
(0.214553 0.000331136 0)
(0.207829 0.000301122 0)
(0.201777 0.000275766 0)
(0.196292 0.000254116 0)
(0.191294 0.000235457 0)
(0.186716 0.000219245 0)
(0.182503 0.000205058 0)
(0.178609 0.000192565 0)
(0.174997 0.000181501 0)
(0.171634 0.000171653 0)
(0.168493 0.000162846 0)
(0.165551 0.000154937 0)
(0.162788 0.000147805 0)
(0.160186 0.000141351 0)
(0.15773 0.000135491 0)
(0.155407 0.000130149 0)
(0.153205 0.000125272 0)
(0.151114 0.000120792 0)
(0.149125 0.000116686 0)
(0.14723 0.000112877 0)
(0.145421 0.00010939 0)
(0.143694 0.000106096 0)
(0.142042 0.000103125 0)
(0.140459 0.00010021 0)
(0.138944 9.76922e-05 0)
(0.137486 9.50421e-05 0)
(0.136098 9.29314e-05 0)
(0.134741 9.05108e-05 0)
(0.133488 8.86504e-05 0)
(0.132187 8.6797e-05 0)
(0.131119 8.43596e-05 0)
(0.129764 8.49589e-05 0)
(0.129052 7.79154e-05 0)
(0.127344 9.16479e-05 0)
(0.127433 4.18619e-05 0)
(0.124951 0.000281659 0)
(0.123291 -0.00247469 0)
(0.991237 0.0499023 0)
(0.890337 0.0307207 0)
(0.762655 0.0146 0)
(0.656625 0.00798179 0)
(0.585285 0.00488686 0)
(0.535869 0.00347307 0)
(0.497992 0.00273759 0)
(0.467364 0.00224535 0)
(0.442039 0.00188231 0)
(0.420718 0.00161084 0)
(0.402454 0.00140354 0)
(0.38658 0.00124044 0)
(0.372619 0.0011088 0)
(0.360222 0.00100052 0)
(0.349122 0.000910109 0)
(0.339113 0.000833693 0)
(0.330031 0.00076841 0)
(0.321743 0.000712119 0)
(0.314143 0.000663186 0)
(0.307143 0.000620347 0)
(0.300668 0.000582603 0)
(0.294657 0.000549161 0)
(0.289058 0.000519378 0)
(0.283826 0.000492729 0)
(0.278924 0.000468782 0)
(0.274317 0.000447177 0)
(0.269978 0.000427611 0)
(0.265881 0.000409829 0)
(0.262004 0.000393611 0)
(0.258329 0.000378777 0)
(0.254839 0.000365149 0)
(0.251519 0.000352617 0)
(0.248355 0.000340997 0)
(0.245336 0.000330287 0)
(0.242452 0.000320196 0)
(0.239693 0.000310965 0)
(0.237051 0.000301964 0)
(0.234522 0.00029401 0)
(0.23209 0.000285625 0)
(0.229774 0.000278929 0)
(0.227516 0.000270567 0)
(0.225422 0.000265319 0)
(0.223273 0.000256301 0)
(0.221473 0.000252581 0)
(0.21928 0.000243091 0)
(0.218012 0.000237343 0)
(0.215378 0.000241574 0)
(0.215238 0.000160383 0)
(0.211537 0.000479304 0)
(0.211543 -0.00233258 0)
(1.0156 0.0489215 0)
(1.00595 0.0358779 0)
(0.935926 0.0207955 0)
(0.852075 0.0135081 0)
(0.782118 0.00921127 0)
(0.726906 0.00678442 0)
(0.681814 0.00538659 0)
(0.644048 0.0044475 0)
(0.612021 0.00375393 0)
(0.584544 0.00322834 0)
(0.560679 0.0028223 0)
(0.53972 0.00250067 0)
(0.521137 0.00223993 0)
(0.504528 0.00202467 0)
(0.489575 0.0018444 0)
(0.476031 0.0016916 0)
(0.463694 0.00156077 0)
(0.4524 0.00144772 0)
(0.442015 0.00134927 0)
(0.432425 0.00126294 0)
(0.423537 0.00118678 0)
(0.41527 0.00111921 0)
(0.407558 0.00105896 0)
(0.400341 0.00100499 0)
(0.393569 0.000956452 0)
(0.387198 0.000912617 0)
(0.381191 0.000872889 0)
(0.375515 0.000836753 0)
(0.37014 0.000803775 0)
(0.36504 0.000773583 0)
(0.360193 0.000745836 0)
(0.355579 0.000720286 0)
(0.35118 0.000696601 0)
(0.346979 0.00067471 0)
(0.342965 0.000654124 0)
(0.339122 0.000635175 0)
(0.335442 0.000616787 0)
(0.331915 0.000600357 0)
(0.328525 0.000583129 0)
(0.32529 0.000569249 0)
(0.322143 0.000551656 0)
(0.319206 0.000541162 0)
(0.316228 0.000520645 0)
(0.313666 0.000515495 0)
(0.310684 0.000488658 0)
(0.308757 0.000487664 0)
(0.305355 0.00046824 0)
(0.30468 0.000374508 0)
(0.300162 0.000663026 0)
(0.300567 -0.00178775 0)
(1.01434 0.0460052 0)
(1.04753 0.0374924 0)
(1.02456 0.024157 0)
(0.974714 0.0175647 0)
(0.92338 0.0131273 0)
(0.876591 0.0102104 0)
(0.834417 0.00834639 0)
(0.796662 0.00702514 0)
(0.763094 0.00601532 0)
(0.733273 0.0052279 0)
(0.706688 0.00460602 0)
(0.682866 0.00410552 0)
(0.661408 0.00369498 0)
(0.641982 0.00335292 0)
(0.62431 0.00306428 0)
(0.608161 0.00281808 0)
(0.593342 0.00260613 0)
(0.579691 0.00242215 0)
(0.567069 0.0022613 0)
(0.55536 0.00211977 0)
(0.544462 0.00199452 0)
(0.53429 0.0018831 0)
(0.524769 0.00178351 0)
(0.515835 0.00169413 0)
(0.50743 0.00161357 0)
(0.499506 0.0015407 0)
(0.492019 0.00147456 0)
(0.484931 0.00141431 0)
(0.478208 0.00135927 0)
(0.471819 0.00130881 0)
(0.465738 0.00126241 0)
(0.459942 0.00121962 0)
(0.454409 0.00117996 0)
(0.44912 0.00114323 0)
(0.44406 0.00110873 0)
(0.43921 0.00107686 0)
(0.434561 0.00104606 0)
(0.430101 0.00101831 0)
(0.425811 0.000989468 0)
(0.421708 0.000965887 0)
(0.417725 0.000936362 0)
(0.413977 0.000918459 0)
(0.410222 0.000883532 0)
(0.406902 0.000875176 0)
(0.403208 0.000827698 0)
(0.40055 0.000829442 0)
(0.396545 0.000782237 0)
(0.395074 0.000679796 0)
(0.390206 0.000910843 0)
(0.389741 -0.00117821 0)
(1.00933 0.0429168 0)
(1.05527 0.0372683 0)
(1.05867 0.0253024 0)
(1.03633 0.0197659 0)
(1.00704 0.0158179 0)
(0.97597 0.0129416 0)
(0.944427 0.0109648 0)
(0.913548 0.00948242 0)
(0.884183 0.00829195 0)
(0.856717 0.0073242 0)
(0.831228 0.00653429 0)
(0.807653 0.00588214 0)
(0.78587 0.00533639 0)
(0.765734 0.00487429 0)
(0.747099 0.00447916 0)
(0.729824 0.00413838 0)
(0.713777 0.00384225 0)
(0.698838 0.00358316 0)
(0.6849 0.00335507 0)
(0.671869 0.00315316 0)
(0.659657 0.00297355 0)
(0.648189 0.00281303 0)
(0.637398 0.00266898 0)
(0.627223 0.0025392 0)
(0.61761 0.00242187 0)
(0.608512 0.00231542 0)
(0.599886 0.00221855 0)
(0.591694 0.0021301 0)
(0.583901 0.00204913 0)
(0.576477 0.00197476 0)
(0.569395 0.00190626 0)
(0.562628 0.001843 0)
(0.556156 0.00178431 0)
(0.549956 0.00172986 0)
(0.544014 0.00167874 0)
(0.538311 0.00163137 0)
(0.532834 0.00158573 0)
(0.527569 0.00154433 0)
(0.522502 0.00150171 0)
(0.517639 0.00146624 0)
(0.512926 0.00142292 0)
(0.508458 0.00139532 0)
(0.504024 0.0013447 0)
(0.500004 0.00132996 0)
(0.495706 0.00126248 0)
(0.492321 0.00126022 0)
(0.48787 0.00119069 0)
(0.48549 0.00106921 0)
(0.480548 0.00125544 0)
(0.478821 -0.000520965 0)
(1.00625 0.0400355 0)
(1.05206 0.0363414 0)
(1.06607 0.0252325 0)
(1.05957 0.0205669 0)
(1.04682 0.0172461 0)
(1.03072 0.0146629 0)
(1.0118 0.0128258 0)
(0.9911 0.0114003 0)
(0.969675 0.0102033 0)
(0.948257 0.00918746 0)
(0.927291 0.00832713 0)
(0.907038 0.00759452 0)
(0.887644 0.00696527 0)
(0.869178 0.00642062 0)
(0.851657 0.00594614 0)
(0.835069 0.0055304 0)
(0.81938 0.00516417 0)
(0.804546 0.00483996 0)
(0.790519 0.00455162 0)
(0.777248 0.0042941 0)
(0.764682 0.0040632 0)
(0.752774 0.00385541 0)
(0.741477 0.00366778 0)
(0.730746 0.00349782 0)
(0.720543 0.00334339 0)
(0.71083 0.00320266 0)
(0.701571 0.00307408 0)
(0.692735 0.00295626 0)
(0.684294 0.00284805 0)
(0.676219 0.00274838 0)
(0.668487 0.00265634 0)
(0.661075 0.00257113 0)
(0.653964 0.00249193 0)
(0.647133 0.00241829 0)
(0.640567 0.00234912 0)
(0.634248 0.00228482 0)
(0.628166 0.00222299 0)
(0.622306 0.00216655 0)
(0.616654 0.00210898 0)
(0.611213 0.00206014 0)
(0.605941 0.00200219 0)
(0.600907 0.00196297 0)
(0.595949 0.00189684 0)
(0.591357 0.00187215 0)
(0.586599 0.00178778 0)
(0.582582 0.00177344 0)
(0.577822 0.00169017 0)
(0.57461 0.00154006 0)
(0.569665 0.001692 0)
(0.566845 0.000202689 0)
(1.00495 0.0373577 0)
(1.04727 0.0352598 0)
(1.06396 0.0246934 0)
(1.06422 0.0205944 0)
(1.06063 0.0177853 0)
(1.05468 0.0155071 0)
(1.0459 0.0138848 0)
(1.03469 0.012624 0)
(1.02176 0.0115378 0)
(1.00772 0.010585 0)
(0.993016 0.00975222 0)
(0.978013 0.00902212 0)
(0.962971 0.00837805 0)
(0.948085 0.00780696 0)
(0.933489 0.00729864 0)
(0.919275 0.00684469 0)
(0.9055 0.00643804 0)
(0.892197 0.00607266 0)
(0.879383 0.00574341 0)
(0.867061 0.00544589 0)
(0.855224 0.00517634 0)
(0.843863 0.0049315 0)
(0.83296 0.00470858 0)
(0.822498 0.00450512 0)
(0.812457 0.00431901 0)
(0.802818 0.00414838 0)
(0.793561 0.0039916 0)
(0.784666 0.00384724 0)
(0.776115 0.00371403 0)
(0.767887 0.00359083 0)
(0.759968 0.00347664 0)
(0.752339 0.00337057 0)
(0.744987 0.00327169 0)
(0.737894 0.00317947 0)
(0.731051 0.00309269 0)
(0.724441 0.00301174 0)
(0.718057 0.00293398 0)
(0.711885 0.0028625 0)
(0.705917 0.00279016 0)
(0.70015 0.00272765 0)
(0.694555 0.00265551 0)
(0.689178 0.00260371 0)
(0.683905 0.00252347 0)
(0.67894 0.00248615 0)
(0.673905 0.00238884 0)
(0.66944 0.00235644 0)
(0.66451 0.00226602 0)
(0.660676 0.00208582 0)
(0.655751 0.00220517 0)
(0.652158 0.000984554 0)
(1.0044 0.0348099 0)
(1.04323 0.0341871 0)
(1.05992 0.0240532 0)
(1.06226 0.0203017 0)
(1.06245 0.0178505 0)
(1.06174 0.0157896 0)
(1.05915 0.0143408 0)
(1.05458 0.0132453 0)
(1.04835 0.0123015 0)
(1.04076 0.0114607 0)
(1.0321 0.0107123 0)
(1.02263 0.010043 0)
(1.01257 0.0094401 0)
(1.00211 0.00889416 0)
(0.991428 0.00839836 0)
(0.980646 0.00794716 0)
(0.969869 0.00753586 0)
(0.959175 0.00716034 0)
(0.948625 0.00681696 0)
(0.938262 0.00650252 0)
(0.92812 0.00621417 0)
(0.918219 0.00594937 0)
(0.908573 0.00570583 0)
(0.899191 0.00548153 0)
(0.890075 0.00527464 0)
(0.881226 0.00508352 0)
(0.872641 0.00490669 0)
(0.864314 0.00474283 0)
(0.856241 0.00459074 0)
(0.848414 0.00444933 0)
(0.840825 0.00431761 0)
(0.833466 0.0041947 0)
(0.82633 0.00407966 0)
(0.819407 0.00397195 0)
(0.812692 0.00387029 0)
(0.806174 0.00377508 0)
(0.79985 0.00368354 0)
(0.793709 0.00359885 0)
(0.787747 0.00351357 0)
(0.78196 0.00343867 0)
(0.776331 0.00335418 0)
(0.770889 0.00329028 0)
(0.765558 0.00319844 0)
(0.760475 0.00314754 0)
(0.755385 0.00304135 0)
(0.750719 0.0029884 0)
(0.745787 0.00289472 0)
(0.741604 0.00268969 0)
(0.736768 0.00277572 0)
(0.73273 0.00179971 0)
(1.00402 0.03237 0)
(1.0399 0.0331375 0)
(1.05615 0.0234309 0)
(1.0589 0.0199146 0)
(1.06018 0.0177213 0)
(1.06151 0.0157953 0)
(1.06187 0.0144475 0)
(1.06096 0.013467 0)
(1.05888 0.0126391 0)
(1.05574 0.0119042 0)
(1.05163 0.0112489 0)
(1.04667 0.0106595 0)
(1.04098 0.0101234 0)
(1.03468 0.0096318 0)
(1.0279 0.00917905 0)
(1.02074 0.00876098 0)
(1.0133 0.00837429 0)
(1.00567 0.00801618 0)
(0.997906 0.00768423 0)
(0.990081 0.00737631 0)
(0.982237 0.00709049 0)
(0.974417 0.00682501 0)
(0.966652 0.00657827 0)
(0.958967 0.00634877 0)
(0.951384 0.00613515 0)
(0.943916 0.00593614 0)
(0.936576 0.00575057 0)
(0.929372 0.00557734 0)
(0.92231 0.00541548 0)
(0.915393 0.00526403 0)
(0.908625 0.00512214 0)
(0.902005 0.004989 0)
(0.895535 0.00486378 0)
(0.889211 0.00474597 0)
(0.883035 0.00463433 0)
(0.877001 0.00452928 0)
(0.871111 0.00442802 0)
(0.865358 0.00433377 0)
(0.859744 0.00423906 0)
(0.854266 0.0041547 0)
(0.848915 0.00406112 0)
(0.84371 0.00398724 0)
(0.838602 0.0038873 0)
(0.833685 0.0038239 0)
(0.828788 0.00371292 0)
(0.824195 0.00364034 0)
(0.819463 0.00354585 0)
(0.815221 0.00332471 0)
(0.810604 0.00337844 0)
(0.806432 0.00261754 0)
(1.00364 0.0300298 0)
(1.03691 0.0320905 0)
(1.0528 0.022842 0)
(1.05566 0.0195104 0)
(1.05708 0.0175305 0)
(1.05897 0.0156965 0)
(1.06039 0.0143962 0)
(1.06107 0.0134787 0)
(1.06106 0.0127244 0)
(1.06039 0.0120638 0)
(1.05907 0.0114808 0)
(1.0571 0.0109605 0)
(1.05452 0.0104886 0)
(1.05139 0.0100554 0)
(1.04776 0.00965465 0)
(1.04369 0.00928211 0)
(1.03924 0.00893469 0)
(1.03447 0.00860998 0)
(1.02943 0.00830607 0)
(1.02418 0.00802135 0)
(1.01877 0.00775443 0)
(1.01322 0.0075041 0)
(1.00759 0.00726924 0)
(1.00189 0.00704882 0)
(0.996152 0.00684189 0)
(0.990405 0.00664753 0)
(0.984664 0.00646488 0)
(0.978945 0.00629313 0)
(0.973261 0.00613153 0)
(0.967624 0.00597933 0)
(0.962044 0.00583585 0)
(0.956526 0.00570043 0)
(0.951079 0.00557235 0)
(0.945705 0.00545121 0)
(0.94041 0.00533585 0)
(0.935196 0.00522676 0)
(0.930066 0.0051212 0)
(0.925021 0.00502236 0)
(0.920064 0.00492297 0)
(0.915194 0.00483339 0)
(0.910411 0.0047351 0)
(0.905727 0.00465474 0)
(0.901113 0.00455103 0)
(0.896631 0.00447794 0)
(0.892172 0.00436635 0)
(0.887918 0.00427775 0)
(0.883595 0.00418436 0)
(0.879571 0.00395749 0)
(0.875335 0.00398213 0)
(0.871316 0.00340515 0)
(1.00327 0.0277903 0)
(1.03409 0.0310324 0)
(1.04969 0.0222796 0)
(1.0527 0.0191042 0)
(1.05408 0.0173209 0)
(1.05602 0.0155685 0)
(1.05772 0.0142903 0)
(1.05892 0.013403 0)
(1.05972 0.0126895 0)
(1.06016 0.0120723 0)
(1.06023 0.0115343 0)
(1.0599 0.0110606 0)
(1.05917 0.0106358 0)
(1.05804 0.010249 0)
(1.05653 0.00989295 0)
(1.05465 0.00956266 0)
(1.05244 0.00925463 0)
(1.04991 0.00896618 0)
(1.04709 0.00869527 0)
(1.04403 0.00844032 0)
(1.04075 0.00820003 0)
(1.03727 0.00797334 0)
(1.03363 0.00775935 0)
(1.02985 0.00755723 0)
(1.02595 0.00736626 0)
(1.02196 0.00718575 0)
(1.01789 0.00701505 0)
(1.01376 0.00685355 0)
(1.00959 0.00670067 0)
(1.00539 0.00655584 0)
(1.00117 0.00641853 0)
(0.996943 0.00628822 0)
(0.992717 0.00616431 0)
(0.988499 0.0060465 0)
(0.984299 0.00593374 0)
(0.980121 0.00582657 0)
(0.975972 0.00572239 0)
(0.971855 0.0056243 0)
(0.967776 0.0055254 0)
(0.963738 0.00543536 0)
(0.959741 0.00533718 0)
(0.955798 0.00525454 0)
(0.95189 0.00515169 0)
(0.94806 0.00507281 0)
(0.944243 0.0049647 0)
(0.940546 0.00486536 0)
(0.936813 0.00477495 0)
(0.933239 0.00455274 0)
(0.929537 0.00455351 0)
(0.925912 0.00413017 0)
(1.00292 0.0256547 0)
(1.03138 0.0299585 0)
(1.04669 0.0217393 0)
(1.0499 0.018696 0)
(1.05127 0.0170992 0)
(1.05317 0.0154335 0)
(1.0549 0.0141708 0)
(1.05622 0.0132991 0)
(1.05725 0.0126086 0)
(1.05808 0.0120154 0)
(1.05871 0.0115021 0)
(1.05912 0.011055 0)
(1.0593 0.010659 0)
(1.05923 0.0103023 0)
(1.05892 0.0099771 0)
(1.05836 0.00967788 0)
(1.05756 0.0094006 0)
(1.05652 0.00914217 0)
(1.05526 0.00890019 0)
(1.05378 0.00867283 0)
(1.05209 0.00845862 0)
(1.05023 0.0082564 0)
(1.04819 0.00806522 0)
(1.04599 0.00788426 0)
(1.04365 0.00771283 0)
(1.04119 0.00755028 0)
(1.03862 0.00739607 0)
(1.03595 0.00724963 0)
(1.03319 0.0071105 0)
(1.03036 0.00697817 0)
(1.02746 0.0068522 0)
(1.02452 0.00673217 0)
(1.02152 0.00661754 0)
(1.01849 0.00650811 0)
(1.01544 0.00640289 0)
(1.01236 0.00630248 0)
(1.00927 0.00620439 0)
(1.00617 0.00611161 0)
(1.00307 0.00601769 0)
(0.999965 0.00593145 0)
(0.996867 0.00583772 0)
(0.993782 0.00575682 0)
(0.990703 0.00565902 0)
(0.987654 0.0055785 0)
(0.984602 0.00547734 0)
(0.981603 0.00537315 0)
(0.978578 0.00528751 0)
(0.975614 0.005079 0)
(0.972556 0.00506248 0)
(0.969492 0.00476477 0)
(1.0026 0.0236259 0)
(1.02879 0.0288677 0)
(1.04377 0.02122 0)
(1.04721 0.0182857 0)
(1.04859 0.0168641 0)
(1.05045 0.015294 0)
(1.05217 0.0140487 0)
(1.0535 0.013188 0)
(1.05457 0.0125139 0)
(1.05549 0.0119358 0)
(1.05629 0.0114362 0)
(1.05697 0.0110036 0)
(1.05751 0.0106233 0)
(1.05791 0.0102837 0)
(1.05817 0.00997684 0)
(1.05829 0.00969696 0)
(1.05825 0.00943977 0)
(1.05806 0.00920192 0)
(1.05772 0.00898074 0)
(1.05722 0.00877416 0)
(1.05658 0.00858048 0)
(1.05579 0.00839838 0)
(1.05486 0.00822674 0)
(1.0538 0.00806467 0)
(1.05262 0.00791137 0)
(1.05132 0.00776618 0)
(1.04991 0.00762849 0)
(1.0484 0.00749775 0)
(1.0468 0.00737346 0)
(1.04511 0.00725515 0)
(1.04334 0.00714237 0)
(1.0415 0.00703474 0)
(1.03959 0.00693172 0)
(1.03763 0.00683319 0)
(1.03562 0.00673814 0)
(1.03356 0.00664723 0)
(1.03147 0.00655806 0)
(1.02934 0.00647345 0)
(1.02718 0.00638747 0)
(1.02499 0.00630794 0)
(1.02279 0.00622171 0)
(1.02057 0.00614555 0)
(1.01833 0.0060558 0)
(1.01608 0.00597717 0)
(1.01382 0.00588531 0)
(1.01157 0.00578169 0)
(1.00929 0.00570223 0)
(1.007 0.00551416 0)
(1.00463 0.00548723 0)
(1.00221 0.00529002 0)
(1.0023 0.0217055 0)
(1.02633 0.0277608 0)
(1.04094 0.02072 0)
(1.04461 0.0178749 0)
(1.046 0.0166142 0)
(1.04783 0.0151484 0)
(1.04955 0.0139252 0)
(1.05087 0.0130745 0)
(1.05193 0.0124151 0)
(1.05286 0.0118496 0)
(1.05369 0.0113597 0)
(1.05443 0.0109357 0)
(1.05508 0.0105644 0)
(1.05565 0.0102343 0)
(1.05614 0.00993758 0)
(1.05654 0.00966859 0)
(1.05685 0.00942304 0)
(1.05707 0.00919751 0)
(1.0572 0.00898926 0)
(1.05723 0.00879606 0)
(1.05717 0.00861612 0)
(1.05701 0.00844797 0)
(1.05676 0.00829039 0)
(1.05641 0.00814237 0)
(1.05597 0.00800304 0)
(1.05545 0.00787164 0)
(1.05483 0.00774752 0)
(1.05413 0.00763005 0)
(1.05336 0.00751871 0)
(1.0525 0.00741297 0)
(1.05158 0.00731235 0)
(1.05059 0.00721647 0)
(1.04953 0.00712475 0)
(1.04842 0.00703708 0)
(1.04725 0.00695245 0)
(1.04603 0.0068715 0)
(1.04476 0.00679193 0)
(1.04345 0.00671631 0)
(1.0421 0.00663932 0)
(1.04071 0.00656766 0)
(1.03929 0.00649025 0)
(1.03784 0.00642035 0)
(1.03636 0.00634004 0)
(1.03486 0.00626562 0)
(1.03332 0.00618398 0)
(1.03177 0.00608505 0)
(1.03018 0.0060125 0)
(1.02855 0.00584884 0)
(1.02684 0.00581763 0)
(1.02506 0.00569893 0)
(1.00203 0.0198944 0)
(1.02401 0.0266408 0)
(1.0382 0.0202362 0)
(1.04208 0.0174653 0)
(1.0435 0.0163496 0)
(1.0453 0.0149955 0)
(1.04702 0.0137997 0)
(1.04834 0.0129592 0)
(1.04939 0.0123144 0)
(1.0503 0.0117614 0)
(1.05113 0.0112801 0)
(1.05187 0.0108629 0)
(1.05254 0.0104979 0)
(1.05315 0.0101739 0)
(1.0537 0.00988319 0)
(1.0542 0.00962043 0)
(1.05464 0.00938143 0)
(1.05503 0.00916283 0)
(1.05536 0.00896193 0)
(1.05563 0.0087765 0)
(1.05585 0.00860473 0)
(1.05601 0.00844509 0)
(1.05611 0.00829633 0)
(1.05615 0.00815738 0)
(1.05613 0.00802732 0)
(1.05605 0.00790535 0)
(1.05591 0.00779075 0)
(1.05572 0.00768286 0)
(1.05546 0.0075811 0)
(1.05516 0.00748492 0)
(1.05479 0.00739377 0)
(1.05438 0.00730725 0)
(1.05391 0.00722475 0)
(1.05339 0.00714614 0)
(1.05283 0.00707039 0)
(1.05222 0.00699809 0)
(1.05157 0.00692706 0)
(1.05087 0.00685958 0)
(1.05014 0.00679095 0)
(1.04937 0.00672669 0)
(1.04857 0.00665782 0)
(1.04774 0.00659425 0)
(1.04687 0.00652318 0)
(1.04597 0.00645395 0)
(1.04504 0.00638206 0)
(1.04407 0.00629031 0)
(1.04307 0.00622465 0)
(1.04201 0.0060866 0)
(1.04087 0.00605583 0)
(1.03965 0.00599675 0)
(1.00179 0.0181927 0)
(1.02183 0.0255117 0)
(1.03557 0.0197648 0)
(1.03965 0.017059 0)
(1.0411 0.016071 0)
(1.04286 0.0148343 0)
(1.04458 0.0136718 0)
(1.0459 0.0128417 0)
(1.04694 0.0122116 0)
(1.04784 0.0116717 0)
(1.04865 0.0111992 0)
(1.04938 0.0107886 0)
(1.05005 0.0104291 0)
(1.05066 0.01011 0)
(1.05121 0.00982384 0)
(1.05173 0.0095653 0)
(1.0522 0.00933042 0)
(1.05264 0.00911597 0)
(1.05304 0.00891933 0)
(1.05341 0.00873833 0)
(1.05374 0.00857118 0)
(1.05403 0.00841638 0)
(1.05429 0.00827268 0)
(1.05451 0.008139 0)
(1.0547 0.00801445 0)
(1.05485 0.00789818 0)
(1.05496 0.00778948 0)
(1.05503 0.00768767 0)
(1.05507 0.00759212 0)
(1.05507 0.00750226 0)
(1.05504 0.00741752 0)
(1.05497 0.00733748 0)
(1.05486 0.00726148 0)
(1.05472 0.00718938 0)
(1.05454 0.00712016 0)
(1.05433 0.00705432 0)
(1.05409 0.00698985 0)
(1.05381 0.00692866 0)
(1.05351 0.00686671 0)
(1.05317 0.0068084 0)
(1.05281 0.00674665 0)
(1.05241 0.00668844 0)
(1.05199 0.0066253 0)
(1.05153 0.00656113 0)
(1.05105 0.00649752 0)
(1.05053 0.00641391 0)
(1.04997 0.00635449 0)
(1.04935 0.00624101 0)
(1.04866 0.00621382 0)
(1.0479 0.00619847 0)
(1.00157 0.0166003 0)
(1.01978 0.0243773 0)
(1.03303 0.0193018 0)
(1.0373 0.0166575 0)
(1.03878 0.0157798 0)
(1.04051 0.0146641 0)
(1.04223 0.0135411 0)
(1.04355 0.0127221 0)
(1.04458 0.0121064 0)
(1.04547 0.0115803 0)
(1.04627 0.0111173 0)
(1.04699 0.0107134 0)
(1.04764 0.0103594 0)
(1.04824 0.0100451 0)
(1.04879 0.00976299 0)
(1.0493 0.00950803 0)
(1.04977 0.00927639 0)
(1.05021 0.00906496 0)
(1.05063 0.0088712 0)
(1.05102 0.00869302 0)
(1.05138 0.00852867 0)
(1.05172 0.00837669 0)
(1.05203 0.00823588 0)
(1.05233 0.00810519 0)
(1.0526 0.00798372 0)
(1.05284 0.00787067 0)
(1.05307 0.00776532 0)
(1.05327 0.00766699 0)
(1.05345 0.00757506 0)
(1.05361 0.00748894 0)
(1.05374 0.00740806 0)
(1.05385 0.00733198 0)
(1.05394 0.00726002 0)
(1.05401 0.00719204 0)
(1.05405 0.00712703 0)
(1.05407 0.0070654 0)
(1.05407 0.00700534 0)
(1.05405 0.00694838 0)
(1.054 0.00689116 0)
(1.05393 0.00683698 0)
(1.05385 0.00678052 0)
(1.05373 0.00672626 0)
(1.0536 0.00666919 0)
(1.05344 0.00660934 0)
(1.05326 0.00655209 0)
(1.05304 0.00647652 0)
(1.05278 0.00642238 0)
(1.05248 0.00633093 0)
(1.05211 0.00630905 0)
(1.05167 0.00632447 0)
(1.00137 0.0151161 0)
(1.01787 0.0232418 0)
(1.0306 0.0188433 0)
(1.03503 0.0162624 0)
(1.03657 0.0154773 0)
(1.03825 0.0144843 0)
(1.03996 0.0134072 0)
(1.04129 0.0126003 0)
(1.04232 0.0119989 0)
(1.04319 0.0114871 0)
(1.04398 0.0110342 0)
(1.04468 0.0106374 0)
(1.04532 0.0102891 0)
(1.04591 0.00997956 0)
(1.04645 0.00970155 0)
(1.04695 0.00945007 0)
(1.04741 0.00922145 0)
(1.04785 0.0090127 0)
(1.04826 0.00882135 0)
(1.04864 0.00864537 0)
(1.04901 0.00848307 0)
(1.04936 0.00833303 0)
(1.04968 0.00819409 0)
(1.05 0.00806522 0)
(1.05029 0.00794557 0)
(1.05057 0.00783435 0)
(1.05084 0.00773088 0)
(1.05109 0.00763448 0)
(1.05133 0.00754453 0)
(1.05155 0.00746049 0)
(1.05176 0.00738173 0)
(1.05195 0.00730784 0)
(1.05213 0.00723815 0)
(1.0523 0.00717249 0)
(1.05245 0.00710991 0)
(1.05259 0.00705071 0)
(1.05271 0.00699328 0)
(1.05282 0.00693882 0)
(1.05292 0.00688459 0)
(1.053 0.00683292 0)
(1.05307 0.00678001 0)
(1.05312 0.00672836 0)
(1.05316 0.00667552 0)
(1.05317 0.00661909 0)
(1.05317 0.00656637 0)
(1.05313 0.00649813 0)
(1.05307 0.00644836 0)
(1.05296 0.00637573 0)
(1.05279 0.00635984 0)
(1.05258 0.00639586 0)
(1.00119 0.0137385 0)
(1.0161 0.0221091 0)
(1.02828 0.0183855 0)
(1.03285 0.0158748 0)
(1.03444 0.0151652 0)
(1.03609 0.0142943 0)
(1.03778 0.0132697 0)
(1.03911 0.0124764 0)
(1.04014 0.011889 0)
(1.041 0.011392 0)
(1.04178 0.0109498 0)
(1.04247 0.0105603 0)
(1.0431 0.0102179 0)
(1.04368 0.00991342 0)
(1.0442 0.00963963 0)
(1.04469 0.00939172 0)
(1.04514 0.00916615 0)
(1.04557 0.00896004 0)
(1.04597 0.008771 0)
(1.04635 0.00859706 0)
(1.04671 0.00843657 0)
(1.04705 0.00828816 0)
(1.04737 0.00815069 0)
(1.04768 0.00802317 0)
(1.04798 0.00790478 0)
(1.04827 0.00779478 0)
(1.04854 0.00769246 0)
(1.0488 0.00759721 0)
(1.04906 0.00750841 0)
(1.0493 0.00742551 0)
(1.04954 0.0073479 0)
(1.04976 0.00727518 0)
(1.04998 0.00720669 0)
(1.05018 0.00714223 0)
(1.05038 0.00708091 0)
(1.05057 0.00702296 0)
(1.05075 0.00696697 0)
(1.05092 0.0069138 0)
(1.05109 0.0068613 0)
(1.05124 0.00681098 0)
(1.05139 0.00676028 0)
(1.05152 0.00671022 0)
(1.05164 0.00666017 0)
(1.05175 0.00660638 0)
(1.05184 0.00655676 0)
(1.05191 0.00649498 0)
(1.05195 0.00644891 0)
(1.05195 0.00639184 0)
(1.05191 0.00638197 0)
(1.05182 0.00643096 0)
(1.00104 0.0124654 0)
(1.01446 0.0209835 0)
(1.02607 0.017925 0)
(1.03076 0.0154956 0)
(1.03241 0.0148455 0)
(1.03402 0.0140938 0)
(1.03569 0.013128 0)
(1.03703 0.0123505 0)
(1.03805 0.0117766 0)
(1.03891 0.0112947 0)
(1.03967 0.0108638 0)
(1.04036 0.0104822 0)
(1.04098 0.0101459 0)
(1.04154 0.0098466 0)
(1.04205 0.00957719 0)
(1.04253 0.00933297 0)
(1.04297 0.00911054 0)
(1.04339 0.00890713 0)
(1.04378 0.00872044 0)
(1.04415 0.00854855 0)
(1.0445 0.00838984 0)
(1.04483 0.00824298 0)
(1.04515 0.00810687 0)
(1.04545 0.00798056 0)
(1.04574 0.00786325 0)
(1.04602 0.00775421 0)
(1.04629 0.00765278 0)
(1.04655 0.00755835 0)
(1.04681 0.00747032 0)
(1.04705 0.00738813 0)
(1.04729 0.00731122 0)
(1.04752 0.00723915 0)
(1.04775 0.0071713 0)
(1.04796 0.00710745 0)
(1.04818 0.00704678 0)
(1.04838 0.00698941 0)
(1.04858 0.00693415 0)
(1.04878 0.00688157 0)
(1.04897 0.00683002 0)
(1.04915 0.00678037 0)
(1.04933 0.006731 0)
(1.04949 0.00668192 0)
(1.04965 0.00663364 0)
(1.0498 0.006582 0)
(1.04994 0.00653455 0)
(1.05005 0.00647842 0)
(1.05014 0.00643569 0)
(1.0502 0.00639125 0)
(1.05023 0.00638708 0)
(1.05022 0.00644358 0)
(1.0009 0.0112938 0)
(1.01295 0.0198696 0)
(1.02397 0.0174587 0)
(1.02876 0.0151252 0)
(1.03047 0.0145203 0)
(1.03204 0.0138824 0)
(1.03369 0.0129817 0)
(1.03503 0.0122224 0)
(1.03605 0.0116618 0)
(1.0369 0.0111952 0)
(1.03765 0.0107763 0)
(1.03833 0.010403 0)
(1.03894 0.010073 0)
(1.03949 0.00977904 0)
(1.04 0.00951416 0)
(1.04047 0.00927376 0)
(1.0409 0.00905458 0)
(1.0413 0.00885396 0)
(1.04168 0.00866969 0)
(1.04204 0.00849989 0)
(1.04238 0.00834299 0)
(1.04271 0.00819771 0)
(1.04301 0.00806296 0)
(1.04331 0.00793784 0)
(1.04359 0.00782156 0)
(1.04386 0.00771343 0)
(1.04413 0.0076128 0)
(1.04438 0.00751909 0)
(1.04463 0.00743168 0)
(1.04487 0.00735007 0)
(1.0451 0.00727365 0)
(1.04533 0.00720203 0)
(1.04555 0.00713458 0)
(1.04577 0.00707107 0)
(1.04598 0.00701076 0)
(1.04619 0.00695366 0)
(1.0464 0.00689879 0)
(1.0466 0.00684645 0)
(1.04679 0.00679544 0)
(1.04698 0.00674611 0)
(1.04717 0.00669756 0)
(1.04734 0.00664916 0)
(1.04752 0.00660207 0)
(1.04768 0.00655229 0)
(1.04783 0.00650652 0)
(1.04796 0.00645536 0)
(1.04808 0.00641587 0)
(1.04816 0.00638158 0)
(1.04822 0.00638264 0)
(1.04825 0.0064429 0)
(1.00078 0.0102202 0)
(1.01157 0.0187715 0)
(1.02198 0.016984 0)
(1.02684 0.0147637 0)
(1.02863 0.0141917 0)
(1.03016 0.0136603 0)
(1.03178 0.0128299 0)
(1.03312 0.0120921 0)
(1.03414 0.0115445 0)
(1.03499 0.0110933 0)
(1.03573 0.0106871 0)
(1.0364 0.0103225 0)
(1.037 0.00999909 0)
(1.03754 0.00971064 0)
(1.03804 0.00945047 0)
(1.0385 0.00921404 0)
(1.03892 0.00899821 0)
(1.03932 0.00880048 0)
(1.03969 0.0086187 0)
(1.04004 0.00845105 0)
(1.04037 0.00829603 0)
(1.04068 0.00815236 0)
(1.04098 0.008019 0)
(1.04127 0.00789509 0)
(1.04154 0.00777985 0)
(1.04181 0.00767263 0)
(1.04206 0.0075728 0)
(1.04231 0.00747978 0)
(1.04255 0.00739298 0)
(1.04278 0.00731188 0)
(1.04301 0.00723592 0)
(1.04323 0.00716467 0)
(1.04345 0.00709754 0)
(1.04366 0.00703427 0)
(1.04387 0.0069742 0)
(1.04407 0.00691724 0)
(1.04427 0.0068626 0)
(1.04447 0.00681038 0)
(1.04466 0.0067597 0)
(1.04485 0.00671058 0)
(1.04503 0.00666258 0)
(1.04521 0.00661477 0)
(1.04538 0.00656856 0)
(1.04555 0.0065205 0)
(1.0457 0.00647623 0)
(1.04584 0.00642951 0)
(1.04596 0.00639328 0)
(1.04606 0.00636715 0)
(1.04613 0.00637284 0)
(1.04618 0.00643438 0)
(1.00067 0.00924045 0)
(1.01031 0.0176939 0)
(1.02011 0.0164985 0)
(1.02501 0.0144108 0)
(1.02687 0.0138616 0)
(1.02837 0.0134277 0)
(1.02996 0.0126721 0)
(1.0313 0.0119596 0)
(1.03232 0.0114249 0)
(1.03316 0.010989 0)
(1.0339 0.010596 0)
(1.03455 0.0102406 0)
(1.03515 0.00992407 0)
(1.03568 0.00964133 0)
(1.03617 0.00938603 0)
(1.03662 0.00915371 0)
(1.03703 0.00894137 0)
(1.03742 0.00874661 0)
(1.03778 0.00856741 0)
(1.03813 0.00840199 0)
(1.03845 0.00824889 0)
(1.03875 0.00810688 0)
(1.03904 0.00797496 0)
(1.03932 0.00785229 0)
(1.03959 0.00773813 0)
(1.03985 0.00763184 0)
(1.0401 0.00753282 0)
(1.04034 0.0074405 0)
(1.04057 0.00735432 0)
(1.04079 0.00727374 0)
(1.04101 0.00719822 0)
(1.04123 0.00712732 0)
(1.04144 0.00706049 0)
(1.04164 0.00699744 0)
(1.04185 0.00693757 0)
(1.04204 0.00688073 0)
(1.04224 0.00682627 0)
(1.04243 0.00677413 0)
(1.04262 0.00672369 0)
(1.0428 0.00667474 0)
(1.04298 0.00662717 0)
(1.04315 0.00657996 0)
(1.04332 0.00653451 0)
(1.04348 0.00648811 0)
(1.04363 0.00644532 0)
(1.04377 0.00640257 0)
(1.04389 0.00636964 0)
(1.04399 0.0063501 0)
(1.04407 0.00635976 0)
(1.04414 0.00642097 0)
(1.00058 0.00835005 0)
(1.00916 0.0166411 0)
(1.01835 0.0160007 0)
(1.02326 0.014066 0)
(1.0252 0.0135321 0)
(1.02667 0.0131851 0)
(1.02822 0.0125078 0)
(1.02956 0.0118244 0)
(1.03059 0.011303 0)
(1.03142 0.010882 0)
(1.03215 0.0105028 0)
(1.0328 0.0101572 0)
(1.03339 0.00984786 0)
(1.03391 0.00957102 0)
(1.03439 0.00932076 0)
(1.03483 0.0090927 0)
(1.03524 0.00888397 0)
(1.03562 0.0086923 0)
(1.03597 0.00851575 0)
(1.03631 0.00835263 0)
(1.03662 0.00820152 0)
(1.03692 0.00806123 0)
(1.0372 0.00793079 0)
(1.03748 0.00780939 0)
(1.03774 0.00769634 0)
(1.03799 0.00759101 0)
(1.03823 0.00749283 0)
(1.03846 0.00740124 0)
(1.03869 0.00731568 0)
(1.0389 0.00723564 0)
(1.03912 0.00716057 0)
(1.03933 0.00709003 0)
(1.03953 0.00702351 0)
(1.03973 0.00696068 0)
(1.03992 0.006901 0)
(1.04011 0.00684428 0)
(1.0403 0.00678997 0)
(1.04049 0.00673791 0)
(1.04067 0.00668768 0)
(1.04085 0.00663894 0)
(1.04102 0.00659175 0)
(1.04119 0.00654515 0)
(1.04135 0.00650042 0)
(1.04151 0.00645564 0)
(1.04166 0.00641439 0)
(1.04179 0.00637523 0)
(1.04191 0.00634559 0)
(1.04201 0.00633136 0)
(1.04209 0.0063443 0)
(1.04217 0.00640417 0)
(1.0005 0.00754392 0)
(1.00813 0.0156172 0)
(1.01671 0.0154895 0)
(1.02159 0.0137282 0)
(1.02361 0.0132048 0)
(1.02506 0.0129334 0)
(1.02657 0.0123362 0)
(1.02791 0.0116865 0)
(1.02894 0.0111787 0)
(1.02977 0.0107725 0)
(1.03049 0.0104074 0)
(1.03113 0.0100722 0)
(1.03171 0.00977036 0)
(1.03223 0.00949961 0)
(1.0327 0.00925456 0)
(1.03314 0.00903093 0)
(1.03354 0.00882593 0)