/*--------------------------------*- C++ -*----------------------------------*\
  =========                 |
  \\      /  F ield         | OpenFOAM: The Open Source CFD Toolbox
   \\    /   O peration     | Website:  https://openfoam.org
    \\  /    A nd           | Version:  7
     \\/     M anipulation  |
\*---------------------------------------------------------------------------*/
FoamFile
{
    version     2.0;
    format      ascii;
    class       volVectorField;
    location    "0.04";
    object      wallShearStress;
}
// * * * * * * * * * * * * * * * * * * * * * * * * * * * * * * * * * * * * * //

dimensions      [0 2 -2 0 0 0 0];

internalField   uniform (0 0 0);

boundaryField
{
    velocityInlet
    {
        type            calculated;
        value           uniform (0 0 0);
    }
    pressureOutlet
    {
        type            calculated;
        value           uniform (0 0 0);
    }
    fixedWalls
    {
        type            calculated;
        value           nonuniform List<vector> 
100
(
(-0.0102429 -0.00610546 0)
(0.00982747 -0.000819165 0)
(-0.000607869 0.000437227 0)
(0.00339065 -0.000224023 0)
(0.00343501 -0.000218949 0)
(0.00496602 -0.000110714 0)
(0.00468599 2.57778e-05 0)
(0.00419764 0.000122654 0)
(0.00326593 0.000129349 0)
(0.00262543 7.87639e-05 0)
(0.00240806 -1.43736e-05 0)
(0.00276201 -9.44097e-05 0)
(0.00302188 -2.2319e-05 0)
(0.0016534 0.000257094 0)
(-0.00153826 0.000390191 0)
(-0.00442976 0.000294329 0)
(-0.00653949 0.000283143 0)
(-0.00711126 0.000107132 0)
(-0.00286176 -0.000778832 0)
(0.00571402 -0.00133564 0)
(0.0133334 -0.00120875 0)
(0.0167499 -0.000525379 0)
(0.0156355 0.000182448 0)
(0.0112397 0.000621907 0)
(0.00553027 0.000708013 0)
(0.000327613 0.000554804 0)
(-0.00335152 0.000338788 0)
(-0.00541339 0.00015278 0)
(-0.00625188 4.25661e-05 0)
(-0.00635401 -1.12797e-05 0)
(-0.00608698 -3.5337e-05 0)
(-0.00567115 -4.22415e-05 0)
(-0.0052243 -4.09533e-05 0)
(-0.00480751 -3.57219e-05 0)
(-0.00444665 -2.91615e-05 0)
(-0.00414212 -2.35748e-05 0)
(-0.0038758 -2.0893e-05 0)
(-0.00362165 -2.17074e-05 0)
(-0.00336005 -2.47144e-05 0)
(-0.0030887 -2.74181e-05 0)
(-0.00282343 -2.75252e-05 0)
(-0.00258906 -2.41615e-05 0)
(-0.00240705 -1.81525e-05 0)
(-0.00228709 -1.11562e-05 0)
(-0.00222659 -4.69331e-06 0)
(-0.0022161 7.14873e-07 0)
(-0.00224541 5.61806e-06 0)
(-0.0023053 9.91536e-06 0)
(-0.00238399 1.29842e-05 0)
(-0.00246174 1.34615e-05 0)
(-0.00251021 1.05587e-05 0)
(-0.00250004 3.17089e-06 0)
(-0.00241307 -6.34486e-06 0)
(-0.0022502 -1.54461e-05 0)
(-0.00202968 -2.22253e-05 0)
(-0.00177815 -2.59461e-05 0)
(-0.00152158 -2.68674e-05 0)
(-0.00128054 -2.56e-05 0)
(-0.00107005 -2.26821e-05 0)
(-0.000901018 -1.84916e-05 0)
(-0.00078112 -1.33886e-05 0)
(-0.00071448 -7.98408e-06 0)
(-0.000701117 -2.57442e-06 0)
(-0.000736911 2.51224e-06 0)
(-0.000814219 6.66351e-06 0)
(-0.000923293 9.7251e-06 0)
(-0.0010538 1.16895e-05 0)
(-0.0011961 1.26822e-05 0)
(-0.0013422 1.29105e-05 0)
(-0.00148631 1.26288e-05 0)
(-0.00162473 1.20505e-05 0)
(-0.00175512 1.12824e-05 0)
(-0.00187697 1.05542e-05 0)
(-0.00199143 1.00431e-05 0)
(-0.00209643 9.14116e-06 0)
(-0.00218584 7.40741e-06 0)
(-0.002263 6.37089e-06 0)
(-0.00234326 7.30546e-06 0)
(-0.00242698 7.59789e-06 0)
(-0.00247884 3.02891e-06 0)
(-0.00245889 -5.852e-06 0)
(-0.00240237 -1.16942e-05 0)
(-0.00245859 -9.22728e-07 0)
(-0.00275944 2.20353e-05 0)
(-0.00323657 3.61649e-05 0)
(-0.00374243 3.97302e-05 0)
(-0.00430465 5.34328e-05 0)
(-0.0049541 6.73838e-05 0)
(-0.0054373 5.44053e-05 0)
(-0.0053402 5.18571e-06 0)
(-0.00444297 -6.13874e-05 0)
(-0.00277125 -0.000128888 0)
(-0.000546326 -0.000183731 0)
(0.00190257 -0.000206496 0)
(0.00409275 -0.000188086 0)
(0.00537104 -0.000114154 0)
(0.00552732 4.64229e-06 0)
(0.00364171 0.000149759 0)
(0.00167121 0.000209732 0)
(-0.00274622 0.000169214 0)
)
;
    }
    bottomWall
    {
        type            calculated;
        value           nonuniform List<vector> 
800
(
(-0.0353488 0.00214397 0)
(-0.0160268 0.000524822 0)
(-0.0106083 0.000100703 0)
(-0.00845679 3.52462e-05 0)
(-0.00748745 1.98459e-05 0)
(-0.00685418 1.61058e-05 0)
(-0.00634711 1.33395e-05 0)
(-0.00593637 1.08834e-05 0)
(-0.005602 9.06176e-06 0)
(-0.00532355 7.7454e-06 0)
(-0.00508645 6.74883e-06 0)
(-0.00488125 5.96169e-06 0)
(-0.00470146 5.32379e-06 0)
(-0.00454238 4.7979e-06 0)
(-0.0044004 4.35813e-06 0)
(-0.00427277 3.98587e-06 0)
(-0.00415729 3.66723e-06 0)
(-0.00405223 3.39165e-06 0)
(-0.00395618 3.15134e-06 0)
(-0.00386798 2.94023e-06 0)
(-0.00378666 2.75338e-06 0)
(-0.00371145 2.58696e-06 0)
(-0.00364165 2.43789e-06 0)
(-0.00357669 2.30357e-06 0)
(-0.00351609 2.18214e-06 0)
(-0.00345941 2.07185e-06 0)
(-0.00340629 1.97121e-06 0)
(-0.00335639 1.87899e-06 0)
(-0.00330945 1.79421e-06 0)
(-0.00326522 1.71609e-06 0)
(-0.00322346 1.64391e-06 0)
(-0.00318399 1.57697e-06 0)
(-0.00314663 1.51472e-06 0)
(-0.00311121 1.45662e-06 0)
(-0.00307762 1.40233e-06 0)
(-0.0030457 1.35168e-06 0)
(-0.00301535 1.304e-06 0)
(-0.00298647 1.25903e-06 0)
(-0.00295896 1.21682e-06 0)
(-0.00293272 1.17697e-06 0)
(-0.0029077 1.13922e-06 0)
(-0.0028838 1.10344e-06 0)
(-0.00286097 1.06959e-06 0)
(-0.00283914 1.03742e-06 0)
(-0.00281825 1.00688e-06 0)
(-0.00279827 9.77428e-07 0)
(-0.00277911 9.50034e-07 0)
(-0.00276078 9.22732e-07 0)
(-0.00274318 8.98046e-07 0)
(-0.00272634 8.71593e-07 0)
(-0.00271233 8.49709e-07 0)
(-0.00270081 8.37397e-07 0)
(-0.00268948 8.21457e-07 0)
(-0.00267838 8.04032e-07 0)
(-0.0026675 7.87842e-07 0)
(-0.00265684 7.72431e-07 0)
(-0.00264639 7.57056e-07 0)
(-0.00263615 7.42069e-07 0)
(-0.00262611 7.27334e-07 0)
(-0.00261627 7.12848e-07 0)
(-0.00260662 6.98601e-07 0)
(-0.00259717 6.84589e-07 0)
(-0.00258791 6.7081e-07 0)
(-0.00257884 6.57261e-07 0)
(-0.00256994 6.43941e-07 0)
(-0.00256123 6.3068e-07 0)
(-0.0025527 6.17643e-07 0)
(-0.00254435 6.04828e-07 0)
(-0.00253618 5.92234e-07 0)
(-0.00252817 5.79692e-07 0)
(-0.00252034 5.67534e-07 0)
(-0.00251266 5.55426e-07 0)
(-0.00250516 5.43366e-07 0)
(-0.00249782 5.31686e-07 0)
(-0.00249064 5.20051e-07 0)
(-0.00248361 5.0846e-07 0)
(-0.00247675 4.9708e-07 0)
(-0.00247004 4.85907e-07 0)
(-0.00246348 4.74775e-07 0)
(-0.00245708 4.63682e-07 0)
(-0.00245083 4.52793e-07 0)
(-0.00244473 4.42275e-07 0)
(-0.00243876 4.31625e-07 0)
(-0.00243295 4.21175e-07 0)
(-0.00242728 4.10927e-07 0)
(-0.00242175 4.00543e-07 0)
(-0.00241636 3.90357e-07 0)
(-0.00241111 3.80201e-07 0)
(-0.002406 3.70409e-07 0)
(-0.00240102 3.60644e-07 0)
(-0.00239618 3.50909e-07 0)
(-0.00239147 3.41369e-07 0)
(-0.0023869 3.31856e-07 0)
(-0.00238245 3.2237e-07 0)
(-0.00237813 3.13078e-07 0)
(-0.00237393 3.0398e-07 0)
(-0.00236987 2.94908e-07 0)
(-0.00236592 2.8603e-07 0)
(-0.0023621 2.77179e-07 0)
(-0.0023584 2.68355e-07 0)
(-0.00235481 2.59723e-07 0)
(-0.00235135 2.51285e-07 0)
(-0.00234799 2.43041e-07 0)
(-0.00234475 2.34657e-07 0)
(-0.00234163 2.26468e-07 0)
(-0.00233861 2.18474e-07 0)
(-0.00233571 2.10508e-07 0)
(-0.0023329 2.02907e-07 0)
(-0.0023302 1.95336e-07 0)
(-0.0023276 1.87798e-07 0)
(-0.00232511 1.80293e-07 0)
(-0.00232271 1.73156e-07 0)
(-0.00232041 1.66224e-07 0)
(-0.0023182 1.59329e-07 0)
(-0.00231608 1.52642e-07 0)
(-0.00231405 1.45996e-07 0)
(-0.00231211 1.39561e-07 0)
(-0.00231025 1.33503e-07 0)
(-0.00230847 1.27492e-07 0)
(-0.00230677 1.21528e-07 0)
(-0.00230515 1.1578e-07 0)
(-0.0023036 1.10246e-07 0)
(-0.00230213 1.04929e-07 0)
(-0.00230072 9.98287e-08 0)
(-0.00229938 9.47793e-08 0)
(-0.00229811 8.99468e-08 0)
(-0.0022969 8.54997e-08 0)
(-0.00229575 8.11045e-08 0)
(-0.00229465 7.67648e-08 0)
(-0.00229361 7.26492e-08 0)
(-0.00229262 6.87595e-08 0)
(-0.00229168 6.50979e-08 0)
(-0.00229078 6.15033e-08 0)
(-0.00228994 5.83128e-08 0)
(-0.00228913 5.51973e-08 0)
(-0.00228837 5.21551e-08 0)
(-0.00228764 4.96945e-08 0)
(-0.00228695 4.71386e-08 0)
(-0.00228629 4.46685e-08 0)
(-0.00228566 4.25902e-08 0)
(-0.00228506 4.04321e-08 0)
(-0.0022845 3.84678e-08 0)
(-0.00228396 3.6761e-08 0)
(-0.00228345 3.48592e-08 0)
(-0.00228296 3.30675e-08 0)
(-0.00228251 3.13252e-08 0)
(-0.00228208 2.97406e-08 0)
(-0.00228167 2.75836e-08 0)
(-0.0022813 2.58031e-08 0)
(-0.00228096 2.36016e-08 0)
(-0.0022807 2.14338e-08 0)
(-0.0022805 2.05549e-08 0)
(-0.00228031 1.94276e-08 0)
(-0.00228013 1.79106e-08 0)
(-0.00227996 1.6176e-08 0)
(-0.00227982 1.44694e-08 0)
(-0.00227968 1.27744e-08 0)
(-0.00227957 1.10742e-08 0)
(-0.00227946 9.36331e-09 0)
(-0.00227938 7.65884e-09 0)
(-0.00227931 5.94682e-09 0)
(-0.00227926 3.99936e-09 0)
(-0.00227923 2.31404e-09 0)
(-0.00227921 9.90416e-10 0)
(-0.0022792 -5.76003e-10 0)
(-0.00227922 -2.05402e-09 0)
(-0.00227924 -3.57784e-09 0)
(-0.00227929 -5.06359e-09 0)
(-0.00227934 -6.3058e-09 0)
(-0.00227941 -7.71707e-09 0)
(-0.0022795 -9.12822e-09 0)
(-0.00227961 -1.02401e-08 0)
(-0.00227972 -1.13463e-08 0)
(-0.00227985 -1.24436e-08 0)
(-0.00227999 -1.36604e-08 0)
(-0.00228015 -1.46803e-08 0)
(-0.00228031 -1.56962e-08 0)
(-0.0022805 -1.66457e-08 0)
(-0.00228069 -1.76044e-08 0)
(-0.0022809 -1.87612e-08 0)
(-0.00228112 -1.96763e-08 0)
(-0.00228136 -2.06001e-08 0)
(-0.00228161 -2.17042e-08 0)
(-0.00228188 -2.26156e-08 0)
(-0.00228215 -2.35051e-08 0)
(-0.00228245 -2.45823e-08 0)
(-0.00228275 -2.54765e-08 0)
(-0.00228307 -2.65419e-08 0)
(-0.00228341 -2.75944e-08 0)
(-0.00228376 -2.84634e-08 0)
(-0.00228413 -2.93096e-08 0)
(-0.0022845 -3.03313e-08 0)
(-0.0022849 -3.13469e-08 0)
(-0.00228531 -3.21652e-08 0)
(-0.00228573 -3.31535e-08 0)
(-0.00228617 -3.41166e-08 0)
(-0.00228662 -3.48997e-08 0)
(-0.00228709 -3.56693e-08 0)
(-0.00228757 -3.659e-08 0)
(-0.00228806 -3.7499e-08 0)
(-0.00228858 -3.82137e-08 0)
(-0.0022891 -3.89175e-08 0)
(-0.00228964 -3.96159e-08 0)
(-0.00229018 -4.02898e-08 0)
(-0.00229075 -4.11332e-08 0)
(-0.00229133 -4.1957e-08 0)
(-0.00229192 -4.24352e-08 0)
(-0.00229252 -4.30677e-08 0)
(-0.00229314 -4.36829e-08 0)
(-0.00229377 -4.42806e-08 0)
(-0.00229441 -4.50404e-08 0)
(-0.00229507 -4.54533e-08 0)
(-0.00229573 -4.6037e-08 0)
(-0.00229642 -4.66042e-08 0)
(-0.0022971 -4.7005e-08 0)
(-0.00229781 -4.75445e-08 0)
(-0.00229852 -4.79071e-08 0)
(-0.00229924 -4.82806e-08 0)
(-0.00229998 -4.88001e-08 0)
(-0.00230072 -4.92882e-08 0)
(-0.00230148 -4.96278e-08 0)
(-0.00230225 -4.98039e-08 0)
(-0.00230302 -5.0132e-08 0)
(-0.00230381 -5.04521e-08 0)
(-0.0023046 -5.07447e-08 0)
(-0.0023054 -5.10561e-08 0)
(-0.00230622 -5.11577e-08 0)
(-0.00230703 -5.13217e-08 0)
(-0.00230786 -5.14053e-08 0)
(-0.00230869 -5.15811e-08 0)
(-0.00230952 -5.15894e-08 0)
(-0.00231037 -5.18626e-08 0)
(-0.00231121 -5.17273e-08 0)
(-0.00231207 -5.18919e-08 0)
(-0.00231292 -5.14369e-08 0)
(-0.00231379 -5.1988e-08 0)
(-0.00231464 -5.11163e-08 0)
(-0.00231552 -5.23205e-08 0)
(-0.00231637 -5.02816e-08 0)
(-0.00231727 -5.27812e-08 0)
(-0.00231809 -4.86991e-08 0)
(-0.00231904 -5.42243e-08 0)
(-0.00231981 -4.60776e-08 0)
(-0.00232083 -5.69561e-08 0)
(-0.00232149 -4.07795e-08 0)
(-0.00232266 -6.31857e-08 0)
(-0.00232312 -3.15772e-08 0)
(-0.00232455 -7.4717e-08 0)
(-0.00232469 -1.64184e-08 0)
(-0.00232657 -8.1109e-08 0)
(-0.0353487 -0.00214399 0)
(-0.0160261 -0.00052485 0)
(-0.0106069 -0.000100732 0)
(-0.00845475 -3.52735e-05 0)
(-0.0074847 -1.98728e-05 0)
(-0.00685079 -1.6133e-05 0)
(-0.00634302 -1.33679e-05 0)
(-0.00593157 -1.09125e-05 0)
(-0.00559648 -9.09187e-06 0)
(-0.00531729 -7.77689e-06 0)
(-0.00507941 -6.78168e-06 0)
(-0.00487341 -5.996e-06 0)
(-0.0046928 -5.35993e-06 0)
(-0.00453285 -4.83606e-06 0)
(-0.00438996 -4.39864e-06 0)
(-0.00426136 -4.02908e-06 0)
(-0.00414484 -3.71345e-06 0)
(-0.00403867 -3.44134e-06 0)
(-0.00394143 -3.20507e-06 0)
(-0.00385193 -2.99829e-06 0)
(-0.00376923 -2.81621e-06 0)
(-0.0036925 -2.65504e-06 0)
(-0.00362107 -2.51174e-06 0)
(-0.00355435 -2.38368e-06 0)
(-0.00349184 -2.26869e-06 0)
(-0.00343313 -2.1652e-06 0)
(-0.00337783 -2.07177e-06 0)
(-0.00332561 -1.98717e-06 0)
(-0.0032762 -1.91009e-06 0)
(-0.00322935 -1.84002e-06 0)
(-0.00318484 -1.77591e-06 0)
(-0.00314248 -1.71762e-06 0)
(-0.0031021 -1.66368e-06 0)
(-0.00306352 -1.61512e-06 0)
(-0.00302665 -1.5693e-06 0)
(-0.00299133 -1.52954e-06 0)
(-0.00295745 -1.49039e-06 0)
(-0.00292496 -1.45852e-06 0)
(-0.00289362 -1.42564e-06 0)
(-0.00286373 -1.40055e-06 0)
(-0.00283433 -1.37837e-06 0)
(-0.00280719 -1.35266e-06 0)
(-0.00277859 -1.3622e-06 0)
(-0.00275532 -1.30241e-06 0)
(-0.00272465 -1.42296e-06 0)
(-0.00270932 -1.19692e-06 0)
(-0.00266856 -1.74138e-06 0)
(-0.00267263 -6.31586e-07 0)
(-0.00260679 -6.86766e-06 0)
(-0.00247599 0.000176337 0)
(3.00859e-06 -4.14691e-07 0)
(6.11273e-06 -8.7127e-06 0)
(8.33699e-06 -2.25383e-05 0)
(9.3389e-06 -3.84482e-05 0)
(9.65498e-06 -5.51306e-05 0)
(9.68024e-06 -7.17083e-05 0)
(9.62802e-06 -8.8013e-05 0)
(9.56028e-06 -0.000104017 0)
(9.48978e-06 -0.000119725 0)
(9.41524e-06 -0.000135144 0)
(9.33279e-06 -0.000150271 0)
(9.24006e-06 -0.000165098 0)
(9.13524e-06 -0.000179618 0)
(9.01702e-06 -0.000193817 0)
(8.88441e-06 -0.000207685 0)
(8.73674e-06 -0.000221205 0)
(8.57337e-06 -0.000234368 0)
(8.39324e-06 -0.000247158 0)
(8.19612e-06 -0.000259561 0)
(7.98153e-06 -0.000271565 0)
(7.74869e-06 -0.000283155 0)
(7.49757e-06 -0.000294315 0)
(7.22784e-06 -0.000305035 0)
(6.93943e-06 -0.000315299 0)
(6.63252e-06 -0.000325096 0)
(6.3068e-06 -0.000334413 0)
(5.96276e-06 -0.000343239 0)
(5.60062e-06 -0.000351562 0)
(5.22064e-06 -0.000359372 0)
(4.82351e-06 -0.00036666 0)
(4.40963e-06 -0.000373418 0)
(3.97944e-06 -0.000379638 0)
(3.53394e-06 -0.000385313 0)
(3.07365e-06 -0.000390439 0)
(2.59905e-06 -0.00039501 0)
(2.11115e-06 -0.000399023 0)
(1.61055e-06 -0.000402475 0)
(1.09793e-06 -0.000405367 0)
(5.76855e-07 -0.000407697 0)
(4.98901e-08 -0.000409466 0)
(-4.8416e-07 -0.000410672 0)
(-1.029e-06 -0.000411317 0)
(-1.58311e-06 -0.000411397 0)
(-2.13968e-06 -0.000410922 0)
(-2.69394e-06 -0.000409902 0)
(-3.24818e-06 -0.000408346 0)
(-3.80412e-06 -0.000406258 0)
(-4.3616e-06 -0.000403645 0)
(-4.9202e-06 -0.000400513 0)
(-5.47707e-06 -0.000396869 0)
(-6.03063e-06 -0.000392722 0)
(-6.58063e-06 -0.000388081 0)
(-7.12627e-06 -0.000382955 0)
(-7.66605e-06 -0.000377352 0)
(-8.19949e-06 -0.000371284 0)
(-8.72557e-06 -0.000364759 0)
(-9.24218e-06 -0.000357788 0)
(-9.74886e-06 -0.000350383 0)
(-1.02437e-05 -0.000342551 0)
(-1.07248e-05 -0.000334306 0)
(-1.11902e-05 -0.000325658 0)
(-1.16374e-05 -0.000316621 0)
(-1.2064e-05 -0.000307206 0)
(-1.24669e-05 -0.000297428 0)
(-1.28425e-05 -0.000287299 0)
(-1.31865e-05 -0.000276835 0)
(-1.34945e-05 -0.000266054 0)
(-1.37611e-05 -0.000254972 0)
(-1.39799e-05 -0.000243609 0)
(-1.41435e-05 -0.000231987 0)
(-1.42439e-05 -0.000220131 0)
(-1.4272e-05 -0.000208067 0)
(-1.42173e-05 -0.000195825 0)
(-1.40679e-05 -0.000183439 0)
(-1.381e-05 -0.000170945 0)
(-1.343e-05 -0.000158389 0)
(-1.29131e-05 -0.000145815 0)
(-1.22443e-05 -0.000133281 0)
(-1.14117e-05 -0.000120844 0)
(-1.04063e-05 -0.000108571 0)
(-9.22386e-06 -9.65324e-05 0)
(-7.86924e-06 -8.4804e-05 0)
(-6.35011e-06 -7.34588e-05 0)
(-4.68879e-06 -6.25741e-05 0)
(-2.90798e-06 -5.22183e-05 0)
(-1.04296e-06 -4.24532e-05 0)
(8.71803e-07 -3.33393e-05 0)
(2.78789e-06 -2.49252e-05 0)
(4.65924e-06 -1.72566e-05 0)
(6.41665e-06 -1.03858e-05 0)
(7.99472e-06 -4.35525e-06 0)
(9.2781e-06 8.54951e-07 0)
(1.00855e-05 5.30387e-06 0)
(1.01628e-05 9.15876e-06 0)
(9.10828e-06 1.2702e-05 0)
(6.35502e-06 1.63777e-05 0)
(1.35589e-06 2.07539e-05 0)
(-6.09881e-06 2.64862e-05 0)
(-1.57469e-05 3.42621e-05 0)
(-2.68214e-05 4.4647e-05 0)
(-3.78379e-05 5.7859e-05 0)
(-4.64393e-05 7.34932e-05 0)
(-4.95254e-05 9.00935e-05 0)
(-4.40988e-05 0.000104874 0)
(-2.83784e-05 0.000113817 0)
(-2.74627e-06 0.000112091 0)
(2.92218e-05 9.54991e-05 0)
(6.20011e-05 6.28775e-05 0)
(9.01689e-05 1.65502e-05 0)
(0.000109611 -3.90255e-05 0)
(0.000120155 -0.000100274 0)
(0.000119569 -0.000162498 0)
(0.000108426 -0.000220079 0)
(8.92854e-05 -0.00026868 0)
(6.56648e-05 -0.000305983 0)
(4.0592e-05 -0.000331716 0)
(1.49208e-05 -0.00034559 0)
(-9.94637e-06 -0.000365539 0)
(-2.87412e-05 -0.000372589 0)
(-3.58817e-05 -0.00034657 0)
(-3.35501e-05 -0.000298298 0)
(-2.61336e-05 -0.000244428 0)
(-2.00289e-05 -0.000197051 0)
(-2.76593e-05 -0.000163486 0)
(-6.64883e-05 -0.000140474 0)
(-0.000147022 -0.000105584 0)
(-0.000252477 -2.71772e-05 0)
(-0.000342012 0.000100687 0)
(-0.000388069 0.000247243 0)
(-0.000395939 0.000380664 0)
(-0.000382611 0.000492693 0)
(-0.000359013 0.000588339 0)
(-0.000329659 0.000671212 0)
(-0.000296901 0.000742424 0)
(-0.000262355 0.000802508 0)
(-0.000227191 0.000851974 0)
(-0.000192284 0.000891373 0)
(-0.000158312 0.000921308 0)
(-0.00012581 0.000942447 0)
(-9.5175e-05 0.000955543 0)
(-6.66284e-05 0.000961388 0)
(-4.03272e-05 0.00096068 0)
(-1.65704e-05 0.000954168 0)
(4.76613e-06 0.000942872 0)
(2.39304e-05 0.000927311 0)
(4.09191e-05 0.000908108 0)
(5.58651e-05 0.000885802 0)
(6.88841e-05 0.000860912 0)
(8.01107e-05 0.000833906 0)
(8.96782e-05 0.00080521 0)
(9.77262e-05 0.000775211 0)
(0.000104392 0.000744249 0)
(0.000109809 0.000712628 0)
(0.000114113 0.00068061 0)
(0.000117431 0.000648424 0)
(0.000119885 0.000616263 0)
(0.000121592 0.000584289 0)
(0.000122663 0.000552635 0)
(0.0001232 0.000521409 0)
(0.000123298 0.000490695 0)
(0.00012305 0.000460556 0)
(0.000122536 0.000431036 0)
(0.000121831 0.000402156 0)
(0.000120998 0.000373922 0)
(0.000120093 0.000346336 0)
(0.000119164 0.000319389 0)
(0.000118257 0.000293061 0)
(0.000117408 0.000267322 0)
(0.000116643 0.00024214 0)
(0.000115983 0.000217477 0)
(0.000115449 0.000193291 0)
(0.000115047 0.000169502 0)
(0.00011497 0.000146356 0)
(0.000114994 0.000123512 0)
(0.000115101 0.00010093 0)
(0.000115256 7.8551e-05 0)
(0.0001154 5.63277e-05 0)
(0.000115456 3.42416e-05 0)
(0.000115338 1.23103e-05 0)
(0.000114957 -9.41506e-06 0)
(0.000114234 -3.08628e-05 0)
(0.000113089 -5.19569e-05 0)
(0.000111446 -7.26251e-05 0)
(0.000109217 -9.27971e-05 0)
(0.000106318 -0.000112397 0)
(0.000102634 -0.000131303 0)
(9.82962e-05 -0.000149658 0)
(9.30033e-05 -0.000166974 0)
(8.66946e-05 -0.000183077 0)
(7.9298e-05 -0.000197859 0)
(7.06911e-05 -0.000211371 0)
(6.05727e-05 -0.000224007 0)
(4.82358e-05 -0.000236846 0)
(3.21411e-05 -0.000252307 0)
(9.20874e-06 -0.000275818 0)
(-2.67845e-05 -0.000316241 0)
(-8.90032e-05 -0.000392007 0)
(-0.000203703 -0.000529873 0)
(-0.000402763 -0.000756093 0)
(-0.000691551 -0.00106892 0)
(3.05839e-07 -2.52382e-06 0)
(5.14142e-06 -3.76964e-06 0)
(1.10236e-05 -4.41592e-06 0)
(1.73243e-05 -4.58336e-06 0)
(2.36728e-05 -4.59027e-06 0)
(3.00105e-05 -4.58149e-06 0)
(3.63622e-05 -4.58925e-06 0)
(4.2747e-05 -4.61217e-06 0)
(4.91766e-05 -4.64625e-06 0)
(5.56597e-05 -4.68886e-06 0)
(6.22041e-05 -4.73847e-06 0)
(6.88166e-05 -4.79406e-06 0)
(7.55035e-05 -4.85494e-06 0)
(8.22706e-05 -4.92048e-06 0)
(8.91231e-05 -4.99024e-06 0)
(9.60657e-05 -5.06352e-06 0)
(0.000103102 -5.14003e-06 0)
(0.000110236 -5.21935e-06 0)
(0.00011747 -5.3005e-06 0)
(0.000124807 -5.38284e-06 0)
(0.000132246 -5.46587e-06 0)
(0.000139789 -5.54885e-06 0)
(0.000147434 -5.63053e-06 0)
(0.00015518 -5.70973e-06 0)
(0.000163021 -5.78577e-06 0)
(0.000170954 -5.85735e-06 0)
(0.000178972 -5.92263e-06 0)
(0.000187066 -5.98016e-06 0)
(0.000195225 -6.02841e-06 0)
(0.000203437 -6.06507e-06 0)
(0.000211686 -6.08789e-06 0)
(0.000219953 -6.09483e-06 0)
(0.000228219 -6.08323e-06 0)
(0.000236459 -6.04979e-06 0)
(0.000244644 -5.99188e-06 0)
(0.000252745 -5.90576e-06 0)
(0.000260725 -5.78737e-06 0)
(0.000268547 -5.63292e-06 0)
(0.000276167 -5.43753e-06 0)
(0.000283535 -5.19642e-06 0)
(0.000290599 -4.90476e-06 0)
(0.000297303 -4.55724e-06 0)
(0.000303582 -4.14834e-06 0)
(0.000309369 -3.67277e-06 0)
(0.000314592 -3.12473e-06 0)
(0.000319174 -2.49836e-06 0)
(0.000323034 -1.78796e-06 0)
(0.000326086 -9.87384e-07 0)
(0.000328244 -9.1074e-08 0)
(0.000329419 9.0548e-07 0)
(0.000329514 2.0026e-06 0)
(0.000328437 3.15836e-06 0)
(0.000326105 4.39519e-06 0)
(0.00032243 5.71842e-06 0)
(0.000317333 7.12644e-06 0)
(0.000310744 8.61177e-06 0)
(0.000302601 1.01648e-05 0)
(0.000292857 1.17707e-05 0)
(0.00028148 1.34116e-05 0)
(0.000268456 1.50664e-05 0)
(0.000253794 1.67115e-05 0)
(0.000237521 1.83226e-05 0)
(0.000219692 1.98732e-05 0)
(0.000200386 2.13327e-05 0)
(0.00017971 2.26623e-05 0)
(0.000157806 2.38168e-05 0)
(0.000134845 2.47537e-05 0)
(0.00011103 2.54442e-05 0)
(8.65854e-05 2.58705e-05 0)
(6.17421e-05 2.60127e-05 0)
(3.67511e-05 2.58537e-05 0)
(1.18645e-05 2.53843e-05 0)
(-1.2664e-05 2.45949e-05 0)
(-3.65149e-05 2.35018e-05 0)
(-5.94251e-05 2.20919e-05 0)
(-8.11472e-05 2.03964e-05 0)
(-0.000101403 1.84392e-05 0)
(-0.000120081 1.62166e-05 0)
(-0.0001369 1.38269e-05 0)
(-0.000151708 1.12166e-05 0)
(-0.000164347 8.39482e-06 0)
(-0.000174679 5.52558e-06 0)
(-0.000182696 2.63744e-06 0)
(-0.000188326 -2.60871e-07 0)
(-0.000191653 -3.13391e-06 0)
(-0.000192635 -5.91764e-06 0)
(-0.000191375 -8.62566e-06 0)
(-0.000187964 -1.12184e-05 0)
(-0.000182466 -1.36373e-05 0)
(-0.000175103 -1.58296e-05 0)
(-0.000166054 -1.78167e-05 0)
(-0.000155488 -1.95592e-05 0)
(-0.000143596 -2.10717e-05 0)
(-0.000130577 -2.23646e-05 0)
(-0.000116639 -2.35662e-05 0)
(-0.000101758 -2.49397e-05 0)
(-8.56894e-05 -2.6958e-05 0)
(-6.7147e-05 -3.03196e-05 0)
(-4.3768e-05 -3.50091e-05 0)
(-2.83385e-06 -3.66399e-05 0)
(-3.67068e-05 -1.61122e-05 0)
(-3.68607e-05 -6.93686e-05 0)
(-3.68618e-05 -0.000114059 0)
(-3.74894e-05 -0.00015878 0)
(-3.83409e-05 -0.000204148 0)
(-3.93118e-05 -0.000250387 0)
(-4.04265e-05 -0.000297672 0)
(-4.16103e-05 -0.000346173 0)
(-4.28386e-05 -0.000395988 0)
(-4.40535e-05 -0.000447151 0)
(-4.5193e-05 -0.000499649 0)
(-4.61911e-05 -0.000553376 0)
(-4.69691e-05 -0.000608141 0)
(-4.74408e-05 -0.000663681 0)
(-4.74578e-05 -0.000719602 0)
(-4.69112e-05 -0.000775397 0)
(-4.56638e-05 -0.000830434 0)
(-4.35631e-05 -0.000883948 0)
(-4.04618e-05 -0.000935033 0)
(-3.61933e-05 -0.000982643 0)
(-3.05808e-05 -0.0010256 0)
(-2.34555e-05 -0.00106259 0)
(-1.46974e-05 -0.00109219 0)
(-4.14799e-06 -0.00111292 0)
(8.29636e-06 -0.00112319 0)
(2.27293e-05 -0.00112143 0)
(3.89517e-05 -0.00110588 0)
(5.67831e-05 -0.00107511 0)
(7.5962e-05 -0.00102811 0)
(9.62022e-05 -0.000964029 0)
(0.000116984 -0.000882456 0)
(0.000137739 -0.000783515 0)
(0.000157962 -0.000667806 0)
(0.000177171 -0.00053622 0)
(0.000194928 -0.000389989 0)
(0.000211262 -0.000230686 0)
(0.000225892 -5.85628e-05 0)
(0.000239948 0.000125201 0)
(0.000250474 0.000318892 0)
(0.000254982 0.000522124 0)
(0.000249716 0.000730903 0)
(0.000230678 0.000941693 0)
(0.000192296 0.00114673 0)
(0.000133623 0.00132594 0)
(6.4425e-05 0.00144523 0)
(-1.40465e-06 0.00145949 0)
(-6.24178e-05 0.00139021 0)
(-0.000132811 0.00133438 0)
(-0.000201376 0.00121053 0)
(-0.000242607 0.00103502 0)
(-0.000239668 0.000826633 0)
(-0.000133833 0.000545004 0)
(0.000173978 0.000397946 0)
(7.76637e-05 0.000335238 0)
(-0.000210023 0.00014215 0)
(-0.000579687 0.000113917 0)
(-0.00123825 0.00019298 0)
(-0.00157054 -6.24077e-05 0)
(-0.00111685 -0.000365563 0)
(0.000116931 -0.000269571 0)
(0.00179467 0.000723362 0)
(0.00205417 0.00243256 0)
(0.00130925 0.00327342 0)
(0.00124917 0.00368259 0)
(0.00111452 0.00435112 0)
(0.00094087 0.00480591 0)
(0.000863772 0.00522519 0)
(0.000732279 0.00559861 0)
(0.000652664 0.0058907 0)
(0.000561193 0.00616038 0)
(0.000486953 0.00636934 0)
(0.000418559 0.00655229 0)
(0.000355499 0.00669581 0)
(0.000300708 0.00681262 0)
(0.000248862 0.00690245 0)
(0.000203444 0.0069685 0)
(0.000161297 0.00701411 0)
(0.000124061 0.00704058 0)
(8.98621e-05 0.00705106 0)
(5.95849e-05 0.00704597 0)
(3.2902e-05 0.00702889 0)
(8.24327e-06 0.00700125 0)
(-1.45949e-05 0.00696314 0)
(-3.58401e-05 0.00691602 0)
(-5.60306e-05 0.00686036 0)
(-7.52084e-05 0.00679671 0)
(-9.36141e-05 0.00672573 0)
(-0.000111388 0.00664779 0)
(-0.000128573 0.00656332 0)
(-0.000145272 0.00647269 0)
(-0.000161483 0.00637623 0)
(-0.000177227 0.00627429 0)
(-0.000192486 0.00616717 0)
(-0.000207228 0.00605522 0)
(-0.000221409 0.00593873 0)
(-0.000234967 0.0058181 0)
(-0.000247851 0.00569366 0)
(-0.000259987 0.0055658 0)
(-0.000271305 0.00543492 0)
(-0.000281745 0.00530144 0)
(-0.00029125 0.00516579 0)
(-0.000299767 0.00502842 0)
(-0.000307262 0.00488976 0)
(-0.000313713 0.00475027 0)
(-0.000319103 0.00461037 0)
(-0.000323431 0.00447049 0)
(-0.000326712 0.00433106 0)
(-0.000328993 0.00419245 0)
(-0.000330308 0.00405502 0)
(-0.00033071 0.00391909 0)
(-0.000330266 0.00378497 0)
(-0.000329048 0.00365291 0)
(-0.000327139 0.00352313 0)
(-0.000324617 0.00339582 0)
(-0.000321576 0.00327112 0)
(-0.000318096 0.00314914 0)
(-0.000314264 0.00302997 0)
(-0.000310168 0.00291362 0)
(-0.000305882 0.00280014 0)
(-0.000301481 0.00268949 0)
(-0.000297028 0.00258165 0)
(-0.000292602 0.00247655 0)
(-0.000288243 0.00237412 0)
(-0.000284009 0.00227428 0)
(-0.000279954 0.00217692 0)
(-0.000276108 0.00208193 0)
(-0.000272507 0.00198918 0)
(-0.000269188 0.00189857 0)
(-0.000266171 0.00180994 0)
(-0.00026348 0.00172319 0)
(-0.000261132 0.00163816 0)
(-0.000259143 0.00155474 0)
(-0.000257533 0.00147277 0)
(-0.000256295 0.00139215 0)
(-0.000255444 0.00131273 0)
(-0.000254999 0.00123441 0)
(-0.000254959 0.00115706 0)
(-0.000255348 0.00108058 0)
(-0.000256202 0.00100484 0)
(-0.000257518 0.000929679 0)
(-0.000259271 0.000854999 0)
(-0.000261469 0.000780704 0)
(-0.000264106 0.000706693 0)
(-0.000267175 0.000632894 0)
(-0.000270737 0.000559271 0)
(-0.000274894 0.000485557 0)
(-0.000281159 0.000413964 0)
(-0.000288965 0.000342788 0)
(-0.000297532 0.000270297 0)
(-0.000306524 0.000195789 0)
(-0.000315192 0.000118903 0)
(-0.000322859 4.00753e-05 0)
(-0.000329078 -3.96103e-05 0)
(-0.000333838 -0.000118819 0)
(-0.000337781 -0.000196625 0)
(-0.000341823 -0.000273031 0)
(-0.000346506 -0.000348673 0)
(-0.000353318 -0.000425853 0)
(-0.00036295 -0.000506379 0)
(-0.000373128 -0.000587697 0)
(-0.0003839 -0.000670046 0)
(-0.000395242 -0.000753477 0)
(-0.000407205 -0.000838046 0)
(-0.000419849 -0.000923817 0)
(-0.000433229 -0.00101086 0)
(-0.000447401 -0.00109925 0)
(-0.000462451 -0.00118905 0)
(-0.000478466 -0.00128036 0)
(-0.000495535 -0.00137324 0)
(-0.000513773 -0.00146779 0)
(-0.000533327 -0.00156409 0)
(-0.000554349 -0.00166224 0)
(-0.000577022 -0.00176234 0)
(-0.000601589 -0.0018645 0)
(-0.000628283 -0.00196889 0)
(-0.000657371 -0.00207566 0)
(-0.000689179 -0.00218496 0)
(-0.000724052 -0.002297 0)
(-0.00076238 -0.00241198 0)
(-0.000804595 -0.00253014 0)
(-0.000851179 -0.00265172 0)
(-0.0009027 -0.002777 0)
(-0.000959787 -0.0029063 0)
(-0.00102309 -0.00303997 0)
(-0.00109337 -0.00317839 0)
(-0.0011715 -0.00332192 0)
(-0.00125845 -0.0034712 0)
(-0.0013552 -0.00362641 0)
(-0.00146305 -0.00378888 0)
(-0.001583 -0.00395769 0)
(-0.00171719 -0.00413681 0)
(-0.00186567 -0.0043205 0)
(-0.00203338 -0.00452283 0)
(-0.00221574 -0.00471875 0)
(-0.00242754 -0.00496016 0)
(-0.00264503 -0.00515038 0)
(-0.00291673 -0.00547567 0)
(-0.00314388 -0.00558813 0)
(-0.00347327 -0.0061256 0)
(-0.0034813 -0.0058437 0)
)
;
    }
    frontAndBack
    {
        type            empty;
    }
}


// ************************************************************************* //
