/*--------------------------------*- C++ -*----------------------------------*\
  =========                 |
  \\      /  F ield         | OpenFOAM: The Open Source CFD Toolbox
   \\    /   O peration     | Website:  https://openfoam.org
    \\  /    A nd           | Version:  7
     \\/     M anipulation  |
\*---------------------------------------------------------------------------*/
FoamFile
{
    version     2.0;
    format      ascii;
    class       volScalarField;
    location    "0.04";
    object      yPlus;
}
// * * * * * * * * * * * * * * * * * * * * * * * * * * * * * * * * * * * * * //

dimensions      [0 0 0 0 0 0 0];

internalField   uniform 0;

boundaryField
{
    velocityInlet
    {
        type            calculated;
        value           uniform 0;
    }
    pressureOutlet
    {
        type            calculated;
        value           uniform 0;
    }
    fixedWalls
    {
        type            calculated;
        value           nonuniform List<scalar> 
100
(
1.78813
1.53401
0.396271
0.914198
0.918239
1.10308
1.07157
1.01448
0.895315
0.803107
0.769391
0.823558
0.860114
0.635409
0.615724
1.04268
1.26719
1.31911
0.833852
1.18923
1.80878
2.02546
1.95684
1.65978
1.16559
0.310445
0.906048
1.15191
1.23823
1.24845
1.22199
1.17955
1.13214
1.08605
1.04449
1.00808
0.975124
0.942595
0.907907
0.870481
0.832277
0.797005
0.768494
0.749104
0.739126
0.737381
0.742241
0.752072
0.764791
0.777147
0.784736
0.783121
0.769368
0.742953
0.705621
0.660468
0.610979
0.560515
0.512397
0.470203
0.437811
0.418722
0.414787
0.425235
0.446972
0.475959
0.508475
0.541712
0.573839
0.603857
0.631348
0.656193
0.678589
0.698974
0.717159
0.732292
0.745111
0.758216
0.77163
0.779803
0.776638
0.7677
0.776711
0.822877
0.891132
0.95824
1.02774
1.10252
1.15494
1.14448
1.04384
0.82432
0.36704
0.683675
1.00209
1.14774
1.16413
0.944947
0.640531
0.820921
)
;
    }
    bottomWall
    {
        type            calculated;
        value           nonuniform List<scalar> 
800
(
2.94479
1.98393
1.61349
1.44042
1.35533
1.29675
1.24787
1.20681
1.17233
1.14283
1.11709
1.09432
1.07398
1.05565
1.03902
1.02384
1.00991
0.997071
0.985183
0.974139
0.963846
0.954225
0.94521
0.936742
0.928772
0.921256
0.914155
0.907435
0.901068
0.895025
0.889284
0.883822
0.878621
0.873663
0.868933
0.864416
0.860098
0.855969
0.852017
0.848232
0.844605
0.841127
0.837791
0.834589
0.831513
0.82856
0.825719
0.822991
0.820364
0.817841
0.815737
0.814003
0.812294
0.810615
0.808968
0.80735
0.805761
0.8042
0.802667
0.801162
0.799683
0.798233
0.796808
0.79541
0.794037
0.792691
0.79137
0.790074
0.788803
0.787557
0.786336
0.785138
0.783965
0.782816
0.781689
0.780587
0.779507
0.778451
0.777417
0.776406
0.775418
0.774451
0.773506
0.772584
0.771683
0.770803
0.769945
0.769109
0.768294
0.767498
0.766724
0.76597
0.765237
0.764523
0.76383
0.763156
0.762502
0.761867
0.761251
0.760654
0.760077
0.759517
0.758975
0.758451
0.757946
0.757457
0.756986
0.756532
0.756094
0.755672
0.755267
0.754878
0.754504
0.754144
0.753799
0.753469
0.753153
0.75285
0.75256
0.752283
0.752019
0.751767
0.751526
0.751297
0.751078
0.75087
0.750672
0.750483
0.750304
0.750133
0.749972
0.749818
0.749672
0.749534
0.749401
0.749277
0.749158
0.749044
0.748936
0.748834
0.748735
0.748643
0.748554
0.748471
0.748391
0.748317
0.748246
0.74818
0.748119
0.748062
0.748019
0.747987
0.747956
0.747926
0.747899
0.747875
0.747853
0.747834
0.747817
0.747804
0.747792
0.747784
0.747779
0.747775
0.747774
0.747777
0.747781
0.747788
0.747797
0.747809
0.747824
0.74784
0.747859
0.74788
0.747903
0.747929
0.747957
0.747987
0.748018
0.748053
0.74809
0.748128
0.748169
0.748213
0.748258
0.748306
0.748357
0.748409
0.748464
0.748522
0.748581
0.748643
0.748708
0.748775
0.748844
0.748916
0.74899
0.749067
0.749145
0.749227
0.74931
0.749396
0.749484
0.749574
0.749666
0.749761
0.749858
0.749956
0.750057
0.75016
0.750265
0.750373
0.750481
0.750593
0.750705
0.75082
0.750937
0.751055
0.751175
0.751297
0.751421
0.751546
0.751672
0.7518
0.751929
0.75206
0.752193
0.752326
0.75246
0.752595
0.752732
0.752869
0.753007
0.753147
0.753285
0.753426
0.753565
0.753709
0.753846
0.753994
0.754127
0.75428
0.754406
0.754572
0.754679
0.754869
0.754945
0.755177
0.755199
0.755505
2.94479
1.98388
1.61338
1.44024
1.35508
1.29643
1.24746
1.20633
1.17176
1.14215
1.11631
1.09344
1.07299
1.05454
1.03779
1.02248
1.0084
0.995402
0.983345
0.972117
0.961624
0.951786
0.942535
0.933811
0.925564
0.917749
0.910328
0.903264
0.896529
0.890096
0.883941
0.878042
0.872382
0.866941
0.861708
0.856665
0.851801
0.847109
0.842558
0.838196
0.833882
0.829879
0.825641
0.822177
0.817589
0.815283
0.80913
0.809739
0.800125
0.778044
0.129933
0.307229
0.479934
0.622388
0.743577
0.847405
0.938542
1.02017
1.0944
1.16267
1.22597
1.28499
1.34027
1.39221
1.44113
1.48728
1.53087
1.57207
1.61101
1.64783
1.68261
1.71543
1.74638
1.77551
1.80287
1.82851
1.85246
1.87478
1.89548
1.91459
1.93214
1.94816
1.96265
1.97565
1.98718
1.99723
2.00585
2.01303
2.01881
2.02318
2.02615
2.02773
2.02792
2.02675
2.02423
2.02039
2.01521
2.00872
2.00091
1.99179
1.98136
1.96962
1.95657
1.94221
1.92654
1.90954
1.89122
1.87156
1.85054
1.82816
1.80438
1.7792
1.75258
1.7245
1.69493
1.66384
1.63119
1.59695
1.56106
1.5235
1.48421
1.44315
1.40027
1.35552
1.30886
1.26026
1.20966
1.15704
1.10239
1.04568
0.986896
0.92607
0.863179
0.798251
0.731276
0.662229
0.591194
0.518444
0.445202
0.37606
0.325215
0.314317
0.338796
0.374761
0.412626
0.454223
0.505354
0.571027
0.6517
0.742523
0.835362
0.920452
0.986964
1.02422
1.02219
0.970874
0.858376
0.681382
0.599957
0.829245
1.08124
1.29407
1.46698
1.60278
1.70445
1.77455
1.81625
1.88455
1.92997
1.88974
1.77868
1.62755
1.44898
1.2299
0.910198
0.650303
1.17341
1.57439
1.8657
2.09423
2.28468
2.44708
2.5854
2.702
2.7989
2.87787
2.94053
2.98838
3.0228
3.04507
3.05637
3.05767
3.05007
3.03489
3.01268
2.98424
2.95024
2.91133
2.86806
2.82097
2.77053
2.71715
2.66124
2.60311
2.54307
2.48136
2.41821
2.35379
2.28824
2.22168
2.15416
2.08574
2.0164
1.94612
1.87483
1.80241
1.72872
1.65357
1.57674
1.49796
1.41694
1.3333
1.24804
1.15967
1.06807
0.973974
0.880379
0.795849
0.739216
0.733584
0.779502
0.853504
0.935447
1.01587
1.09128
1.16058
1.22492
1.28279
1.33408
1.37869
1.41643
1.44697
1.46975
1.4839
1.4891
1.48187
1.47121
1.49253
1.65262
2.06511
0.114999
0.297705
0.426856
0.532396
0.621596
0.699685
0.770104
0.834933
0.895486
0.952655
1.00708
1.05923
1.10948
1.15812
1.20537
1.25143
1.29644
1.34053
1.3838
1.42635
1.46823
1.50951
1.55023
1.59042
1.63009
1.66927
1.70796
1.74613
1.78379
1.82091
1.85744
1.89334
1.92856
1.96305
1.9967
2.02947
2.06122
2.09188
2.12131
2.14937
2.17594
2.20084
2.2239
2.24493
2.26374
2.28009
2.29375
2.30448
2.31199
2.31603
2.3163
2.31247
2.30416
2.29106
2.27279
2.24899
2.21925
2.18318
2.14032
2.09022
2.03238
1.96623
1.89115
1.8064
1.71109
1.60406
1.48374
1.34786
1.19277
1.01208
0.793346
0.518066
0.5166
0.78194
0.986224
1.1491
1.28309
1.39568
1.48996
1.56818
1.63217
1.68288
1.72123
1.7477
1.76334
1.76812
1.76258
1.74717
1.72189
1.6873
1.64373
1.59129
1.53005
1.45995
1.38072
1.29051
1.18515
1.05255
0.872088
0.482806
0.545507
0.84784
1.07537
1.26509
1.43258
1.58542
1.72791
1.86283
1.99192
2.11633
2.23679
2.35366
2.46707
2.57694
2.68295
2.78465
2.88137
2.97232
3.05652
3.13284
3.20001
3.2566
3.30099
3.33146
3.34606
3.34275
3.3189
3.27191
3.19926
3.09795
2.96454
2.79488
2.58342
2.32169
1.9961
1.58664
1.136
1.33552
1.85769
2.31628
2.71243
3.05978
3.36291
3.6106
3.77246
3.7956
3.70352
3.62526
3.45847
3.22262
2.94501
2.56825
2.25323
1.67221
1.0252
2.19185
3.1043
3.47358
3.05735
2.15544
3.95843
5.10123
5.64983
6.09468
6.57383
6.91416
7.211
7.46009
7.6572
7.82921
7.9638
8.07793
8.16749
8.23951
8.29469
8.33539
8.36358
8.38036
8.38746
8.38536
8.37588
8.35992
8.33757
8.30961
8.27633
8.23803
8.19502
8.1475
8.09565
8.03963
7.97958
7.91561
7.84785
7.77641
7.70139
7.62296
7.54122
7.45633
7.36845
7.27776
7.18445
7.08872
6.9908
6.89089
6.78922
6.68603
6.58154
6.476
6.3696
6.26258
6.15511
6.04741
5.93962
5.83191
5.72439
5.61718
5.51037
5.40402
5.29817
5.19284
5.08804
4.98375
4.87991
4.77649
4.6734
4.57055
4.46782
4.36509
4.26221
4.15902
4.05534
3.95097
3.84568
3.73924
3.63139
3.52183
3.4102
3.29617
3.17931
3.05913
2.93509
2.80656
2.67279
2.53295
2.38608
2.23097
2.07268
1.90727
1.73031
1.54358
1.36324
1.24557
1.27245
1.42405
1.61598
1.80763
1.98925
2.16481
2.33825
2.50331
2.66131
2.81324
2.95998
3.10227
3.24075
3.37598
3.50843
3.63852
3.76665
3.89315
4.01833
4.14253
4.26599
4.38903
4.51191
4.63492
4.75832
4.88241
5.00747
5.13382
5.26176
5.39162
5.52377
5.65857
5.7964
5.93768
6.08288
6.23244
6.38697
6.54679
6.71292
6.88517
7.06583
7.25238
7.45186
7.65283
7.87868
8.08588
8.35084
8.51527
)
;
    }
    frontAndBack
    {
        type            empty;
    }
}


// ************************************************************************* //
