/*--------------------------------*- C++ -*----------------------------------*\
  =========                 |
  \\      /  F ield         | OpenFOAM: The Open Source CFD Toolbox
   \\    /   O peration     | Website:  https://openfoam.org
    \\  /    A nd           | Version:  7
     \\/     M anipulation  |
\*---------------------------------------------------------------------------*/
FoamFile
{
    version     2.0;
    format      ascii;
    class       surfaceScalarField;
    location    "0.08";
    object      ddtCorrDdt0(phi);
}
// * * * * * * * * * * * * * * * * * * * * * * * * * * * * * * * * * * * * * //

dimensions      [0 3 -2 0 0 0 0];

internalField   nonuniform List<scalar> 
139350
(
-9.33726e-10
9.36757e-10
-2.49763e-09
1.56777e-09
-4.23295e-09
1.74216e-09
-5.91758e-09
1.68882e-09
-7.56266e-09
1.64987e-09
-9.2197e-09
1.66125e-09
-1.09126e-08
1.69722e-09
-1.26619e-08
1.75205e-09
-1.44723e-08
1.81475e-09
-1.63456e-08
1.87423e-09
-1.82636e-08
1.92221e-09
-2.02163e-08
1.95391e-09
-2.21831e-08
1.9701e-09
-2.41521e-08
1.97172e-09
-2.61161e-08
1.96516e-09
-2.80654e-08
1.95443e-09
-3.00156e-08
1.9486e-09
-3.19596e-08
1.95278e-09
-3.39352e-08
1.97384e-09
-3.5943e-08
2.01778e-09
-3.80273e-08
2.08532e-09
-4.02024e-08
2.18221e-09
-4.25092e-08
2.30798e-09
-4.49662e-08
2.46368e-09
-4.76214e-08
2.6526e-09
-5.04838e-08
2.87333e-09
-5.36162e-08
3.12877e-09
-5.70259e-08
3.42243e-09
-6.07791e-08
3.75344e-09
-6.48998e-08
4.12987e-09
-6.9453e-08
4.55469e-09
-7.44784e-08
5.0342e-09
-8.00611e-08
5.58029e-09
-8.62479e-08
6.20102e-09
-9.31655e-08
6.9139e-09
-1.00888e-07
7.73829e-09
-1.09587e-07
8.69963e-09
-1.19405e-07
9.82995e-09
-1.30583e-07
1.11823e-08
-1.43376e-07
1.28021e-08
-1.58168e-07
1.4795e-08
-1.75408e-07
1.7253e-08
-1.95743e-07
2.03345e-08
-2.20071e-07
2.43527e-08
-2.4946e-07
2.93894e-08
-2.86013e-07
3.65823e-08
-3.31358e-07
4.53513e-08
-3.93327e-07
6.19922e-08
-4.54453e-07
6.11204e-08
3.18951e-07
-7.734e-07
-1.38396e-09
2.32439e-09
-4.64524e-09
4.83326e-09
-8.67894e-09
5.78315e-09
-1.25841e-08
5.59856e-09
-1.6307e-08
5.37793e-09
-2.00459e-08
5.40467e-09
-2.38973e-08
5.55329e-09
-2.79081e-08
5.76575e-09
-3.20921e-08
6.00345e-09
-3.6438e-08
6.2211e-09
-4.0893e-08
6.3818e-09
-4.54012e-08
6.46342e-09
-4.98933e-08
6.4658e-09
-5.43159e-08
6.39732e-09
-5.86323e-08
6.28273e-09
-6.28191e-08
6.14693e-09
-6.68946e-08
6.02225e-09
-7.08679e-08
5.93572e-09
-7.48057e-08
5.90985e-09
-7.87444e-08
5.96719e-09
-8.27713e-08
6.11344e-09
-8.69461e-08
6.36452e-09
-9.13581e-08
6.72113e-09
-9.60746e-08
7.18753e-09
-1.01193e-07
7.76845e-09
-1.06772e-07
8.46425e-09
-1.12925e-07
9.27732e-09
-1.19706e-07
1.02178e-08
-1.27236e-07
1.12836e-08
-1.3559e-07
1.24933e-08
-1.44891e-07
1.38571e-08
-1.55239e-07
1.53927e-08
-1.66794e-07
1.71319e-08
-1.7968e-07
1.91025e-08
-1.94124e-07
2.13543e-08
-2.10315e-07
2.39466e-08
-2.28573e-07
2.69581e-08
-2.49218e-07
3.04879e-08
-2.72723e-07
3.46918e-08
-2.99635e-07
3.97227e-08
-3.30729e-07
4.58926e-08
-3.66945e-07
5.34842e-08
-4.09662e-07
6.30497e-08
-4.60689e-07
7.54073e-08
-5.22388e-07
9.10889e-08
-5.99482e-07
1.13708e-07
-6.93703e-07
1.39579e-07
-8.2912e-07
1.97433e-07
-9.80704e-07
2.12697e-07
6.28207e-07
-1.28996e-06
-1.10371e-09
3.4323e-09
-4.71046e-09
8.44452e-09
-9.8938e-09
1.09741e-08
-1.53014e-08
1.10111e-08
-2.04641e-08
1.05461e-08
-2.55505e-08
1.04958e-08
-3.07541e-08
1.07619e-08
-3.61829e-08
1.11975e-08
-4.18765e-08
1.17021e-08
-4.78244e-08
1.217e-08
-5.39497e-08
1.25119e-08
-6.01535e-08
1.26687e-08
-6.6314e-08
1.263e-08
-7.2326e-08
1.24126e-08
-7.81107e-08
1.20686e-08
-8.3617e-08
1.16594e-08
-8.88524e-08
1.12556e-08
-9.38293e-08
1.0923e-08
-9.86311e-08
1.07098e-08
-1.03318e-07
1.06656e-08
-1.0801e-07
1.08067e-08
-1.12802e-07
1.11642e-08
-1.17822e-07
1.17426e-08
-1.23179e-07
1.25521e-08
-1.29012e-07
1.3598e-08
-1.35419e-07
1.48842e-08
-1.42554e-07
1.64092e-08
-1.50513e-07
1.819e-08
-1.5945e-07
2.02214e-08
-1.69477e-07
2.2531e-08
-1.80756e-07
2.5137e-08
-1.93422e-07
2.80692e-08
-2.07674e-07
3.13811e-08
-2.23681e-07
3.51259e-08
-2.41721e-07
3.93909e-08
-2.62043e-07
4.42858e-08
-2.85037e-07
4.99539e-08
-3.11117e-07
5.6581e-08
-3.40864e-07
6.44435e-08
-3.74971e-07
7.38397e-08
-4.14399e-07
8.53238e-08
-4.6033e-07
9.94311e-08
-5.14474e-07
1.17192e-07
-5.7913e-07
1.40092e-07
-6.57084e-07
1.69044e-07
-7.54946e-07
2.11602e-07
-8.7283e-07
2.57472e-07
-1.04425e-06
3.6888e-07
-1.24935e-06
4.17783e-07
9.74741e-07
-1.59588e-06
-7.00756e-10
4.13763e-09
-3.79163e-09
1.15401e-08
-9.0089e-09
1.61994e-08
-1.51269e-08
1.71342e-08
-2.12823e-08
1.67072e-08
-2.73489e-08
1.65673e-08
-3.34763e-08
1.68945e-08
-3.98211e-08
1.75454e-08
-4.64724e-08
1.83585e-08
-5.34492e-08
1.91479e-08
-6.06797e-08
1.97475e-08
-6.80474e-08
2.0038e-08
-7.53938e-08
1.99802e-08
-8.25664e-08
1.95887e-08
-8.94379e-08
1.89411e-08
-9.59153e-08
1.81433e-08
-1.01977e-07
1.73154e-08
-1.0762e-07
1.65768e-08
-1.12925e-07
1.60127e-08
-1.17959e-07
1.57109e-08
-1.22856e-07
1.57057e-08
-1.27733e-07
1.60496e-08
-1.32746e-07
1.6756e-08
-1.3803e-07
1.78451e-08
-1.4376e-07
1.93246e-08
-1.50067e-07
2.12047e-08
-1.57141e-07
2.34791e-08
-1.65108e-07
2.61714e-08
-1.74157e-07
2.92716e-08
-1.8443e-07
3.28144e-08
-1.96116e-07
3.68244e-08
-2.09378e-07
4.13425e-08
-2.24444e-07
4.64433e-08
-2.41507e-07
5.22065e-08
-2.60878e-07
5.87579e-08
-2.82837e-07
6.62634e-08
-3.07814e-07
7.49325e-08
-3.3627e-07
8.50498e-08
-3.68838e-07
9.70164e-08
-4.06284e-07
1.11296e-07
-4.49652e-07
1.28695e-07
-5.00246e-07
1.50041e-07
-5.5989e-07
1.76835e-07
-6.31187e-07
2.11419e-07
-7.16868e-07
2.54727e-07
-8.24787e-07
3.19555e-07
-9.54202e-07
3.86896e-07
-1.13947e-06
5.54175e-07
-1.37478e-06
6.53082e-07
1.32548e-06
-1.72552e-06
-4.69933e-10
4.61244e-09
-2.81942e-09
1.38945e-08
-7.35582e-09
2.0744e-08
-1.3359e-08
2.31427e-08
-1.99089e-08
2.3263e-08
-2.65826e-08
2.32463e-08
-3.33425e-08
2.36597e-08
-4.02959e-08
2.45021e-08
-4.75519e-08
2.56199e-08
-5.51679e-08
2.67649e-08
-6.31046e-08
2.76895e-08
-7.12628e-08
2.81978e-08
-7.94809e-08
2.82022e-08
-8.7584e-08
2.76953e-08
-9.54063e-08
2.67645e-08
-1.02809e-07
2.5553e-08
-1.09728e-07
2.42321e-08
-1.16123e-07
2.29832e-08
-1.22052e-07
2.19394e-08
-1.27565e-07
2.12366e-08
-1.32794e-07
2.09356e-08
-1.37853e-07
2.11174e-08
-1.42907e-07
2.18103e-08
-1.48103e-07
2.30505e-08
-1.53635e-07
2.48529e-08
-1.59656e-07
2.72393e-08
-1.66382e-07
3.02012e-08
-1.73967e-07
3.37713e-08
-1.8263e-07
3.79355e-08
-1.92539e-07
4.27348e-08
-2.03913e-07
4.81993e-08
-2.16939e-07
5.43802e-08
-2.3187e-07
6.13702e-08
-2.48923e-07
6.92776e-08
-2.68432e-07
7.82629e-08
-2.90702e-07
8.8552e-08
-3.16187e-07
1.00419e-07
-3.45379e-07
1.14255e-07
-3.7894e-07
1.30583e-07
-4.17681e-07
1.50047e-07
-4.62677e-07
1.73694e-07
-5.15316e-07
2.02698e-07
-5.77423e-07
2.38941e-07
-6.5184e-07
2.85866e-07
-7.41085e-07
3.43973e-07
-8.53604e-07
4.32107e-07
-9.89317e-07
5.22617e-07
-1.17744e-06
7.42326e-07
-1.43093e-06
9.06557e-07
1.65891e-06
-1.76437e-06
-4.23037e-10
5.04058e-09
-2.23253e-09
1.57091e-08
-5.93216e-09
2.4452e-08
-1.13045e-08
2.85206e-08
-1.76464e-08
2.9611e-08
-2.44283e-08
3.00335e-08
-3.14401e-08
3.06769e-08
-3.86808e-08
3.1746e-08
-4.62249e-08
3.31696e-08
-5.41437e-08
3.46848e-08
-6.24323e-08
3.59834e-08
-7.10307e-08
3.67979e-08
-7.98088e-08
3.69844e-08
-8.86059e-08
3.64961e-08
-9.72472e-08
3.54069e-08
-1.05563e-07
3.38759e-08
-1.13445e-07
3.21119e-08
-1.20806e-07
3.03557e-08
-1.27661e-07
2.87926e-08
-1.34028e-07
2.76149e-08
-1.40008e-07
2.69178e-08
-1.45698e-07
2.68158e-08
-1.51245e-07
2.73579e-08
-1.56787e-07
2.86018e-08
-1.62514e-07
3.05757e-08
-1.6858e-07
3.33198e-08
-1.75213e-07
3.68309e-08
-1.82583e-07
4.11564e-08
-1.9093e-07
4.6283e-08
-2.00446e-07
5.22614e-08
-2.11373e-07
5.91279e-08
-2.23927e-07
6.69454e-08
-2.38383e-07
7.58228e-08
-2.54985e-07
8.58978e-08
-2.74088e-07
9.73627e-08
-2.96023e-07
1.10505e-07
-3.21262e-07
1.25661e-07
-3.50324e-07
1.4333e-07
-3.83889e-07
1.64154e-07
-4.22801e-07
1.8897e-07
-4.68145e-07
2.1904e-07
-5.21373e-07
2.55944e-07
-5.84269e-07
3.01836e-07
-6.59828e-07
3.61456e-07
-7.50484e-07
4.34631e-07
-8.64409e-07
5.46066e-07
-1.00392e-06
6.62132e-07
-1.18968e-06
9.28116e-07
-1.4513e-06
1.16815e-06
1.97434e-06
-1.76673e-06
-4.62295e-10
5.50815e-09
-2.03844e-09
1.72905e-08
-5.13433e-09
2.75565e-08
-9.80201e-09
3.3194e-08
-1.56084e-08
3.54236e-08
-2.20809e-08
3.65115e-08
-2.89401e-08
3.75418e-08
-3.61004e-08
3.89096e-08
-4.35857e-08
4.06606e-08
-5.14582e-08
4.25585e-08
-5.9734e-08
4.42647e-08
-6.8394e-08
4.54596e-08
-7.73583e-08
4.59527e-08
-8.65131e-08
4.56547e-08
-9.5713e-08
4.46078e-08
-1.04789e-07
4.29592e-08
-1.13608e-07
4.09285e-08
-1.22039e-07
3.87983e-08
-1.30049e-07
3.68009e-08
-1.37609e-07
3.51871e-08
-1.44781e-07
3.4092e-08
-1.51625e-07
3.36676e-08
-1.58252e-07
3.39858e-08
-1.64768e-07
3.51273e-08
-1.71334e-07
3.71379e-08
-1.78082e-07
4.00821e-08
-1.85225e-07
4.39704e-08
-1.92928e-07
4.88738e-08
-2.01433e-07
5.47896e-08
-2.10946e-07
6.17851e-08
-2.21725e-07
6.99084e-08
-2.34007e-07
7.92391e-08
-2.4809e-07
8.99026e-08
-2.64243e-07
1.02069e-07
-2.82843e-07
1.15959e-07
-3.04244e-07
1.31924e-07
-3.28939e-07
1.50358e-07
-3.57467e-07
1.7187e-07
-3.90523e-07
1.97216e-07
-4.28976e-07
2.27433e-07
-4.7391e-07
2.63977e-07
-5.26815e-07
3.08867e-07
-5.89443e-07
3.64463e-07
-6.64792e-07
4.36836e-07
-7.55466e-07
5.25306e-07
-8.68605e-07
6.59238e-07
-1.00968e-06
8.03212e-07
-1.19086e-06
1.10932e-06
-1.45041e-06
1.42769e-06
2.27328e-06
-1.74935e-06
-5.12214e-10
6.02581e-09
-2.06822e-09
1.88519e-08
-4.88788e-09
3.0385e-08
-9.07149e-09
3.73834e-08
-1.43555e-08
4.07139e-08
-2.03651e-08
4.25267e-08
-2.68308e-08
4.40133e-08
-3.36352e-08
4.57173e-08
-4.07713e-08
4.78025e-08
-4.82909e-08
5.00793e-08
-5.62227e-08
5.22019e-08
-6.45804e-08
5.38191e-08
-7.33367e-08
5.4713e-08
-8.24422e-08
5.47641e-08
-9.18128e-08
5.39793e-08
-1.01319e-07
5.24729e-08
-1.10836e-07
5.04433e-08
-1.20212e-07
4.81856e-08
-1.29374e-07
4.59617e-08
-1.3825e-07
4.40747e-08
-1.46857e-07
4.27018e-08
-1.55215e-07
4.20334e-08
-1.63392e-07
4.21644e-08
-1.71451e-07
4.31955e-08
-1.79505e-07
4.51876e-08
-1.87638e-07
4.82302e-08
-1.96025e-07
5.23532e-08
-2.04795e-07
5.76592e-08
-2.14171e-07
6.41671e-08
-2.24348e-07
7.19724e-08
-2.35583e-07
8.11446e-08
-2.4812e-07
9.17885e-08
-2.62272e-07
1.04051e-07
-2.78325e-07
1.1814e-07
-2.96675e-07
1.34306e-07
-3.17695e-07
1.52963e-07
-3.41895e-07
1.74561e-07
-3.69833e-07
1.99821e-07
-4.02213e-07
2.29601e-07
-4.39916e-07
2.65147e-07
-4.84023e-07
3.08087e-07
-5.36019e-07
3.6088e-07
-5.97657e-07
4.261e-07
-6.71778e-07
5.10987e-07
-7.6131e-07
6.14841e-07
-8.72056e-07
7.70016e-07
-1.01209e-06
9.43256e-07
-1.18727e-06
1.28452e-06
-1.43657e-06
1.67697e-06
2.55197e-06
-1.71527e-06
-5.45792e-10
6.57719e-09
-2.1672e-09
2.04788e-08
-4.95223e-09
3.3179e-08
-8.94209e-09
4.13792e-08
-1.39098e-08
4.56882e-08
-1.95468e-08
4.81693e-08
-2.5612e-08
5.00843e-08
-3.19859e-08
5.20947e-08
-3.86524e-08
5.44748e-08
-4.5661e-08
5.70892e-08
-5.30501e-08
5.95966e-08
-6.08579e-08
6.16288e-08
-6.91002e-08
6.29593e-08
-7.77922e-08
6.34601e-08
-8.69268e-08
6.31149e-08
-9.64449e-08
6.19983e-08
-1.06266e-07
6.02626e-08
-1.16251e-07
5.81818e-08
-1.26311e-07
5.60207e-08
-1.36344e-07
5.41195e-08
-1.46334e-07
5.26941e-08
-1.56266e-07
5.19736e-08
-1.66175e-07
5.20742e-08
-1.7608e-07
5.31104e-08
-1.86047e-07
5.51502e-08
-1.96102e-07
5.83001e-08
-2.0636e-07
6.26074e-08
-2.16895e-07
6.82087e-08
-2.27879e-07
7.51532e-08
-2.39471e-07
8.35749e-08
-2.51902e-07
9.3577e-08
-2.65403e-07
1.05301e-07
-2.80281e-07
1.18926e-07
-2.96826e-07
1.34703e-07
-3.15439e-07
1.52916e-07
-3.36507e-07
1.74048e-07
-3.60546e-07
1.98603e-07
-3.88124e-07
2.2741e-07
-4.19948e-07
2.61431e-07
-4.56892e-07
3.02102e-07
-5.00035e-07
3.51232e-07
-5.5081e-07
4.11674e-07
-6.10976e-07
4.86265e-07
-6.83131e-07
5.83172e-07
-7.70473e-07
7.02186e-07
-8.77572e-07
8.77146e-07
-1.01397e-06
1.07966e-06
-1.18123e-06
1.4518e-06
-1.41403e-06
1.90975e-06
2.80618e-06
-1.66824e-06
-5.65e-10
7.14792e-09
-2.26594e-09
2.21854e-08
-5.12665e-09
3.60488e-08
-9.12674e-09
4.53853e-08
-1.40096e-08
5.05776e-08
-1.94721e-08
5.36377e-08
-2.52863e-08
5.59044e-08
-3.13357e-08
5.81476e-08
-3.75991e-08
6.07441e-08
-4.41267e-08
6.36181e-08
-5.0964e-08
6.64393e-08
-5.8163e-08
6.88297e-08
-6.57675e-08
7.05679e-08
-7.3843e-08
7.15395e-08
-8.24549e-08
7.17279e-08
-9.16268e-08
7.11774e-08
-1.01349e-07
6.99828e-08
-1.11525e-07
6.83697e-08
-1.22082e-07
6.65758e-08
-1.32907e-07
6.49568e-08
-1.4397e-07
6.37592e-08
-1.55237e-07
6.32493e-08
-1.66726e-07
6.35646e-08
-1.78433e-07
6.48269e-08
-1.90387e-07
6.71005e-08
-2.02567e-07
7.04946e-08
-2.15026e-07
7.50627e-08
-2.27771e-07
8.09681e-08
-2.40907e-07
8.82919e-08
-2.54534e-07
9.7212e-08
-2.68831e-07
1.07875e-07
-2.8399e-07
1.20472e-07
-3.0029e-07
1.35223e-07
-3.18003e-07
1.52433e-07
-3.3752e-07
1.72431e-07
-3.59219e-07
1.95764e-07
-3.83615e-07
2.23002e-07
-4.11264e-07
2.55072e-07
-4.4287e-07
2.93043e-07
-4.79281e-07
3.38523e-07
-5.21553e-07
3.93507e-07
-5.71045e-07
4.61183e-07
-6.29483e-07
5.44702e-07
-6.99199e-07
6.52917e-07
-7.8349e-07
7.8648e-07
-8.85904e-07
9.7959e-07
-1.01632e-06
1.21008e-06
-1.17352e-06
1.60901e-06
-1.38524e-06
2.12145e-06
3.03108e-06
-1.61017e-06
-5.78758e-10
7.73253e-09
-2.35153e-09
2.3964e-08
-5.31903e-09
3.90256e-08
-9.42595e-09
4.94985e-08
-1.43764e-08
5.55347e-08
-1.98449e-08
5.9112e-08
-2.55935e-08
6.16592e-08
-3.14966e-08
6.40542e-08
-3.75283e-08
6.67818e-08
-4.3737e-08
6.98281e-08
-5.0167e-08
7.28749e-08
-5.68736e-08
7.55382e-08
-6.39106e-08
7.7609e-08
-7.1372e-08
7.90048e-08
-7.93768e-08
7.97338e-08
-8.80219e-08
7.98296e-08
-9.73749e-08
7.93336e-08
-1.07401e-07
7.84072e-08
-1.18063e-07
7.72366e-08
-1.29263e-07
7.61694e-08
-1.40973e-07
7.54718e-08
-1.5316e-07
7.54447e-08
-1.65843e-07
7.62486e-08
-1.79017e-07
7.80102e-08
-1.92701e-07
8.07804e-08
-2.06847e-07
8.46546e-08
-2.21463e-07
8.96758e-08
-2.36498e-07
9.60182e-08
-2.51991e-07
1.03786e-07
-2.67968e-07
1.132e-07
-2.84543e-07
1.24452e-07
-3.01851e-07
1.37792e-07
-3.20119e-07
1.53488e-07
-3.3958e-07
1.71911e-07
-3.60591e-07
1.9344e-07
-3.83505e-07
2.18696e-07
-4.08814e-07
2.48313e-07
-4.37047e-07
2.83318e-07
-4.68885e-07
3.24887e-07
-5.05129e-07
3.74778e-07
-5.46793e-07
4.35174e-07
-5.95137e-07
5.09544e-07
-6.51803e-07
6.01368e-07
-7.1886e-07
7.20004e-07
-7.995e-07
8.67123e-07
-8.96442e-07
1.07656e-06
-1.01903e-06
1.33268e-06
-1.16413e-06
1.75412e-06
-1.35169e-06
2.30898e-06
3.22315e-06
-1.54377e-06
-5.92199e-10
8.3307e-09
-2.43106e-09
2.58088e-08
-5.50564e-09
4.21096e-08
-9.74932e-09
5.37485e-08
-1.48385e-08
6.06306e-08
-2.04198e-08
6.46994e-08
-2.62389e-08
6.74844e-08
-3.21579e-08
6.99769e-08
-3.81394e-08
7.27692e-08
-4.42239e-08
7.59141e-08
-5.04519e-08
7.91085e-08
-5.68725e-08
8.19608e-08
-6.35362e-08
8.42768e-08
-7.05442e-08
8.60168e-08
-7.80442e-08
8.72349e-08
-8.61838e-08
8.79765e-08
-9.50954e-08
8.82432e-08
-1.04805e-07
8.81287e-08
-1.15323e-07
8.7753e-08
-1.26578e-07
8.74365e-08
-1.38557e-07
8.74534e-08
-1.5124e-07
8.81365e-08
-1.64663e-07
8.96727e-08
-1.78839e-07
9.21955e-08
-1.938e-07
9.5738e-08
-2.095e-07
1.00368e-07
-2.25929e-07
1.06102e-07
-2.42998e-07
1.13102e-07
-2.60694e-07
1.21484e-07
-2.78979e-07
1.31495e-07
-2.97902e-07
1.43376e-07
-3.17527e-07
1.57429e-07
-3.38024e-07
1.73982e-07
-3.59566e-07
1.93471e-07
-3.82464e-07
2.16335e-07
-4.07023e-07
2.43272e-07
-4.33695e-07
2.74988e-07
-4.62966e-07
3.12601e-07
-4.95471e-07
3.57397e-07
-5.31949e-07
4.11267e-07
-5.73344e-07
4.76571e-07
-6.20802e-07
5.57019e-07
-6.75829e-07
6.56394e-07
-7.40231e-07
7.84434e-07
-8.16937e-07
9.43832e-07
-9.0795e-07
1.1676e-06
-1.02146e-06
1.44619e-06
-1.15299e-06
1.88566e-06
-1.31488e-06
2.47085e-06
3.38059e-06
-1.47234e-06
-6.06607e-10
8.94341e-09
-2.51141e-09
2.77196e-08
-5.69007e-09
4.52978e-08
-1.00748e-08
5.81397e-08
-1.53256e-08
6.58883e-08
-2.10668e-08
7.04467e-08
-2.70294e-08
7.34533e-08
-3.30645e-08
7.60157e-08
-3.91247e-08
7.88354e-08
-4.52427e-08
8.20335e-08
-5.14517e-08
8.5323e-08
-5.77916e-08
8.83029e-08
-6.43027e-08
9.07919e-08
-7.10801e-08
9.27982e-08
-7.82791e-08
9.4435e-08
-8.60746e-08
9.57791e-08
-9.46411e-08
9.68078e-08
-1.04052e-07
9.75514e-08
-1.14358e-07
9.8058e-08
-1.25518e-07
9.86084e-08
-1.37539e-07
9.94766e-08
-1.50419e-07
1.01025e-07
-1.64215e-07
1.0347e-07
-1.7897e-07
1.06959e-07
-1.94743e-07
1.11508e-07
-2.1151e-07
1.1715e-07
-2.29269e-07
1.23858e-07
-2.47921e-07
1.31769e-07
-2.67421e-07
1.40986e-07
-2.87691e-07
1.51775e-07
-3.08721e-07
1.64407e-07
-3.30519e-07
1.79238e-07
-3.5319e-07
1.9665e-07
-3.76851e-07
2.17148e-07
-4.01752e-07
2.41235e-07
-4.28144e-07
2.6968e-07
-4.56425e-07
3.03272e-07
-4.87022e-07
3.4321e-07
-5.20511e-07
3.9089e-07
-5.57556e-07
4.48323e-07
-5.99006e-07
5.18023e-07
-6.45885e-07
6.03916e-07
-6.99523e-07
7.10033e-07
-7.61459e-07
8.46397e-07
-8.34262e-07
1.01664e-06
-9.19261e-07
1.25262e-06
-1.02317e-06
1.5501e-06
-1.14048e-06
2.00298e-06
-1.27678e-06
2.60713e-06
3.50376e-06
-1.39998e-06
-6.21827e-10
9.57145e-09
-2.59528e-09
2.96993e-08
-5.87834e-09
4.85906e-08
-1.04047e-08
6.26727e-08
-1.58226e-08
7.13132e-08
-2.17391e-08
7.63695e-08
-2.7875e-08
7.95955e-08
-3.40747e-08
8.22191e-08
-4.02843e-08
8.50511e-08
-4.65315e-08
8.82822e-08
-5.28435e-08
9.16405e-08
-5.92522e-08
9.47136e-08
-6.57867e-08
9.73304e-08
-7.25328e-08
9.95482e-08
-7.9643e-08
1.01546e-07
-8.73009e-08
1.03444e-07
-9.57018e-08
1.05207e-07
-1.04948e-07
1.06809e-07
-1.15118e-07
1.08227e-07
-1.26192e-07
1.09695e-07
-1.38197e-07
1.11484e-07
-1.51145e-07
1.13981e-07
-1.65112e-07
1.17439e-07
-1.8017e-07
1.22027e-07
-1.96411e-07
1.27746e-07
-2.13843e-07
1.34595e-07
-2.32485e-07
1.42498e-07
-2.52248e-07
1.51546e-07
-2.7308e-07
1.6182e-07
-2.94881e-07
1.73586e-07
-3.17607e-07
1.87135e-07
-3.41222e-07
2.02865e-07
-3.65783e-07
2.21209e-07
-3.91351e-07
2.42733e-07
-4.18124e-07
2.68006e-07
-4.46295e-07
2.97867e-07
-4.76203e-07
3.33184e-07
-5.08215e-07
3.75233e-07
-5.42836e-07
4.25516e-07
-5.80651e-07
4.86148e-07
-6.22404e-07
5.59778e-07
-6.68988e-07
6.50517e-07
-7.21544e-07
7.62588e-07
-7.81333e-07
9.06213e-07
-8.5052e-07
1.08583e-06
-9.298e-07
1.33193e-06
-1.02427e-06
1.64457e-06
-1.12762e-06
2.10633e-06
-1.23988e-06
2.71936e-06
3.59519e-06
-1.33134e-06
-6.37628e-10
1.02154e-08
-2.68036e-09
3.17484e-08
-6.07315e-09
5.19932e-08
-1.07434e-08
6.73497e-08
-1.63313e-08
7.69082e-08
-2.24287e-08
8.24731e-08
-2.87481e-08
8.59213e-08
-3.51313e-08
8.86061e-08
-4.1522e-08
9.14479e-08
-4.79452e-08
9.4707e-08
-5.44251e-08
9.81258e-08
-6.09883e-08
1.01279e-07
-6.76568e-08
1.04003e-07
-7.45087e-08
1.06404e-07
-8.16914e-08
1.0873e-07
-8.93892e-08
1.11149e-07
-9.78047e-08
1.1362e-07
-1.07053e-07
1.16069e-07
-1.17225e-07
1.18398e-07
-1.28318e-07
1.20799e-07
-1.40362e-07
1.2353e-07
-1.53383e-07
1.27011e-07
-1.67481e-07
1.31538e-07
-1.82741e-07
1.37296e-07
-1.99278e-07
1.4428e-07
-2.1714e-07
1.5247e-07
-2.36364e-07
1.6172e-07
-2.56873e-07
1.72068e-07
-2.78632e-07
1.83581e-07
-3.01538e-07
1.96502e-07
-3.25532e-07
2.1113e-07
-3.5055e-07
2.27895e-07
-3.76617e-07
2.47272e-07
-4.03754e-07
2.69886e-07
-4.32115e-07
2.96365e-07
-4.61844e-07
3.27612e-07
-4.9323e-07
3.64572e-07
-5.26579e-07
4.08593e-07
-5.62329e-07
4.61271e-07
-6.00986e-07
5.24815e-07
-6.4319e-07
6.01984e-07
-6.89703e-07
6.97046e-07
-7.41483e-07
8.14368e-07
-7.99515e-07
9.64271e-07
-8.65553e-07
1.15187e-06
-9.39704e-07
1.4061e-06
-1.02548e-06
1.73034e-06
-1.1159e-06
2.19676e-06
-1.20687e-06
2.81031e-06
3.659e-06
-1.27072e-06
-6.53976e-10
1.08758e-08
-2.76753e-09
3.38685e-08
-6.27515e-09
5.55108e-08
-1.10933e-08
7.21746e-08
-1.68552e-08
8.26773e-08
-2.31376e-08
8.87619e-08
-2.96454e-08
9.24357e-08
-3.62199e-08
9.51845e-08
-4.28046e-08
9.80387e-08
-4.9424e-08
1.01328e-07
-5.6101e-08
1.04808e-07
-6.28595e-08
1.08039e-07
-6.97184e-08
1.10866e-07
-7.67522e-08
1.13442e-07
-8.41059e-08
1.16085e-07
-9.19631e-08
1.19013e-07
-1.00527e-07
1.22183e-07
-1.09917e-07
1.25469e-07
-1.20229e-07
1.2871e-07
-1.31463e-07
1.32044e-07
-1.43658e-07
1.35728e-07
-1.56846e-07
1.40207e-07
-1.71126e-07
1.45819e-07
-1.86601e-07
1.52779e-07
-2.03414e-07
1.6109e-07
-2.21601e-07
1.7067e-07
-2.4124e-07
1.81358e-07
-2.6231e-07
1.9315e-07
-2.84753e-07
2.06027e-07
-3.0847e-07
2.20228e-07
-3.33399e-07
2.36061e-07
-3.59469e-07
2.53976e-07
-3.86687e-07
2.74488e-07
-4.15051e-07
2.98266e-07
-4.44684e-07
3.25996e-07
-4.75696e-07
3.58638e-07
-5.08331e-07
3.9721e-07
-5.42849e-07
4.43122e-07
-5.79629e-07
4.98055e-07
-6.19106e-07
5.64303e-07
-6.61827e-07
6.44707e-07
-7.0843e-07
7.43666e-07
-7.59707e-07
8.65645e-07
-8.16384e-07
1.02097e-06
-8.79821e-07
1.21531e-06
-9.49597e-07
1.47589e-06
-1.02777e-06
1.80851e-06
-1.10686e-06
2.27585e-06
-1.17993e-06
2.88335e-06
3.70016e-06
-1.22113e-06
-6.70923e-10
1.15533e-08
-2.85735e-09
3.60616e-08
-6.48439e-09
5.9148e-08
-1.14548e-08
7.7152e-08
-1.73955e-08
8.86252e-08
-2.3868e-08
9.52409e-08
-3.0569e-08
9.91433e-08
-3.73399e-08
1.01959e-07
-4.41255e-08
1.0483e-07
-5.09506e-08
1.08155e-07
-5.78376e-08
1.117e-07
-6.48091e-08
1.15013e-07
-7.18834e-08
1.17944e-07
-7.91352e-08
1.20697e-07
-8.67104e-08
1.23661e-07
-9.47936e-08
1.27103e-07
-1.03588e-07
1.30976e-07
-1.13213e-07
1.35105e-07
-1.23763e-07
1.39259e-07
-1.35241e-07
1.43533e-07
-1.47685e-07
1.48176e-07
-1.61133e-07
1.53662e-07
-1.75687e-07
1.60375e-07
-1.91459e-07
1.6856e-07
-2.0859e-07
1.78218e-07
-2.27159e-07
1.89252e-07
-2.47237e-07
2.01434e-07
-2.6878e-07
2.14705e-07
-2.91775e-07
2.29024e-07
-3.16133e-07
2.44596e-07
-3.41794e-07
2.61723e-07
-3.68684e-07
2.80877e-07
-3.96799e-07
3.02601e-07
-4.26127e-07
3.27608e-07
-4.56772e-07
3.56639e-07
-4.88821e-07
3.90701e-07
-5.22488e-07
4.3088e-07
-5.57997e-07
4.78642e-07
-5.9568e-07
5.35741e-07
-6.35913e-07
6.04546e-07
-6.79167e-07
6.87962e-07
-7.25969e-07
7.90483e-07
-7.76966e-07
9.16643e-07
-8.3265e-07
1.07668e-06
-8.94021e-07
1.27668e-06
-9.60203e-07
1.54209e-06
-1.03198e-06
1.88028e-06
-1.10155e-06
2.34541e-06
-1.1602e-06
2.94196e-06
3.72373e-06
-1.1838e-06
-6.88534e-10
1.22485e-08
-2.94984e-09
3.83297e-08
-6.70092e-09
6.29092e-08
-1.18281e-08
8.22863e-08
-1.79525e-08
9.47569e-08
-2.46211e-08
1.01916e-07
-3.15206e-08
1.06049e-07
-3.8493e-08
1.08936e-07
-4.54853e-08
1.11829e-07
-5.25225e-08
1.15194e-07
-5.96271e-08
1.1881e-07
-6.68205e-08
1.22209e-07
-7.41217e-08
1.25249e-07
-8.16077e-08
1.28187e-07
-8.94281e-08
1.31483e-07
-9.77705e-08
1.35452e-07
-1.06839e-07
1.40043e-07
-1.16751e-07
1.45027e-07
-1.276e-07
1.50108e-07
-1.39388e-07
1.55331e-07
-1.52154e-07
1.60945e-07
-1.65939e-07
1.67454e-07
-1.80848e-07
1.75286e-07
-1.96996e-07
1.84717e-07
-2.1453e-07
1.9575e-07
-2.33526e-07
2.08259e-07
-2.54065e-07
2.21972e-07
-2.76117e-07
2.36769e-07
-2.99665e-07
2.52574e-07
-3.24624e-07
2.69564e-07
-3.5094e-07
2.8804e-07
-3.78537e-07
3.08485e-07
-4.07413e-07
3.31474e-07
-4.37548e-07
3.57758e-07
-4.69036e-07
3.88125e-07
-5.01953e-07
4.23631e-07
-5.36492e-07
4.65421e-07
-5.72853e-07
5.15012e-07
-6.1133e-07
5.74222e-07
-6.52256e-07
6.45482e-07
-6.96035e-07
7.31742e-07
-7.43102e-07
8.37564e-07
-7.93989e-07
9.6753e-07
-8.48973e-07
1.13168e-06
-9.08732e-07
1.33644e-06
-9.72004e-07
1.60538e-06
-1.03852e-06
1.94679e-06
-1.10027e-06
2.40715e-06
-1.14763e-06
2.98928e-06
3.7342e-06
-1.15815e-06
-7.06868e-10
1.29621e-08
-3.04505e-09
4.06748e-08
-6.92481e-09
6.67993e-08
-1.22135e-08
8.75822e-08
-1.85265e-08
1.01077e-07
-2.53971e-08
1.08793e-07
-3.25008e-08
1.1316e-07
-3.96802e-08
1.16119e-07
-4.6885e-08
1.19039e-07
-5.41407e-08
1.22451e-07
-6.14692e-08
1.26144e-07
-6.88911e-08
1.29633e-07
-7.64263e-08
1.32787e-07
-8.41555e-08
1.3592e-07
-9.22333e-08
1.39562e-07
-1.00852e-07
1.44076e-07
-1.10216e-07
1.49405e-07
-1.20443e-07
1.55264e-07
-1.31623e-07
1.61288e-07
-1.4376e-07
1.67478e-07
-1.56892e-07
1.74081e-07
-1.71064e-07
1.81634e-07
-1.86386e-07
1.90609e-07
-2.02974e-07
2.01313e-07
-2.20977e-07
2.1375e-07
-2.40469e-07
2.27764e-07
-2.61533e-07
2.43035e-07
-2.84141e-07
2.59389e-07
-3.08274e-07
2.76709e-07
-3.33848e-07
2.95148e-07
-3.6081e-07
3.15002e-07
-3.89086e-07
3.36771e-07
-4.1867e-07
3.61056e-07
-4.49544e-07
3.88644e-07
-4.81793e-07
4.20373e-07
-5.15488e-07
4.57338e-07
-5.50807e-07
5.00742e-07
-5.87933e-07
5.52148e-07
-6.27135e-07
6.13427e-07
-6.68708e-07
6.87065e-07
-7.1301e-07
7.76044e-07
-7.60389e-07
8.84957e-07
-8.11273e-07
1.01841e-06
-8.65758e-07
1.18619e-06
-9.24232e-07
1.39491e-06
-9.85114e-07
1.66627e-06
-1.04727e-06
2.00894e-06
-1.10263e-06
2.4625e-06
-1.14118e-06
3.02779e-06
3.73533e-06
-1.14235e-06
-7.25988e-10
1.36949e-08
-3.143e-09
4.30989e-08
-7.15616e-09
7.08228e-08
-1.26111e-08
9.30445e-08
-1.91175e-08
1.07591e-07
-2.61962e-08
1.15878e-07
-3.35103e-08
1.20481e-07
-4.09025e-08
1.23515e-07
-4.83257e-08
1.26468e-07
-5.5806e-08
1.29933e-07
-6.33649e-08
1.33707e-07
-7.10215e-08
1.37291e-07
-7.87972e-08
1.40567e-07
-8.67767e-08
1.43903e-07
-9.51205e-08
1.47907e-07
-1.04026e-07
1.52988e-07
-1.13698e-07
1.59077e-07
-1.24256e-07
1.65831e-07
-1.35787e-07
1.72819e-07
-1.48294e-07
1.79994e-07
-1.61818e-07
1.87609e-07
-1.76408e-07
1.96231e-07
-1.92178e-07
2.0638e-07
-2.09247e-07
2.1839e-07
-2.27765e-07
2.32266e-07
-2.47807e-07
2.47817e-07
-2.69448e-07
2.64675e-07
-2.92661e-07
2.82612e-07
-3.17421e-07
3.01472e-07
-3.43646e-07
3.21381e-07
-3.71278e-07
3.42635e-07
-4.00243e-07
3.65745e-07
-4.30534e-07
3.91344e-07
-4.6213e-07
4.20253e-07
-4.95114e-07
4.53355e-07
-5.2955e-07
4.91786e-07
-5.65608e-07
5.36801e-07
-6.03457e-07
5.90006e-07
-6.43346e-07
6.53318e-07
-6.85539e-07
7.29266e-07
-7.3035e-07
8.20856e-07
-7.78057e-07
9.32676e-07
-8.28994e-07
1.06935e-06
-8.83096e-07
1.24031e-06
-9.40484e-07
1.4523e-06
-9.99308e-07
1.72511e-06
-1.05775e-06
2.06737e-06
-1.10778e-06
2.51251e-06
-1.1394e-06
3.05937e-06
3.72965e-06
-1.13377e-06
-7.45955e-10
1.44478e-08
-3.24375e-09
4.56039e-08
-7.39503e-09
7.49846e-08
-1.30211e-08
9.86779e-08
-1.97258e-08
1.14303e-07
-2.70186e-08
1.23178e-07
-3.45494e-08
1.28018e-07
-4.21603e-08
1.3113e-07
-4.9808e-08
1.34122e-07
-5.75194e-08
1.37646e-07
-6.5315e-08
1.41507e-07
-7.32128e-08
1.45191e-07
-8.12356e-08
1.48593e-07
-8.94724e-08
1.52143e-07
-9.80898e-08
1.56525e-07
-1.07291e-07
1.62194e-07
-1.17283e-07
1.69068e-07
-1.28183e-07
1.7674e-07
-1.40077e-07
1.84713e-07
-1.52968e-07
1.92895e-07
-1.66901e-07
2.01544e-07
-1.81927e-07
2.11264e-07
-1.98168e-07
2.22621e-07
-2.15746e-07
2.35976e-07
-2.3481e-07
2.51328e-07
-2.55434e-07
2.68452e-07
-2.77691e-07
2.8693e-07
-3.01546e-07
3.06478e-07
-3.26971e-07
3.26899e-07
-3.5388e-07
3.48297e-07
-3.8221e-07
3.70966e-07
-4.11887e-07
3.95431e-07
-4.429e-07
4.22355e-07
-4.75228e-07
4.52592e-07
-5.08946e-07
4.87072e-07
-5.44116e-07
5.26968e-07
-5.80899e-07
5.73585e-07
-6.19453e-07
6.28568e-07
-6.60009e-07
6.93876e-07
-7.02801e-07
7.72066e-07
-7.48107e-07
8.66161e-07
-7.96134e-07
9.80715e-07
-8.4713e-07
1.12034e-06
-9.00884e-07
1.29408e-06
-9.57265e-07
1.50868e-06
-1.0142e-06
1.78205e-06
-1.06934e-06
2.12249e-06
-1.11475e-06
2.5579e-06
-1.14069e-06
3.08528e-06
3.71903e-06
-1.13012e-06
-7.66831e-10
1.52216e-08
-3.34732e-09
4.81918e-08
-7.64145e-09
7.92892e-08
-1.34437e-08
1.04488e-07
-2.03515e-08
1.21219e-07
-2.78646e-08
1.30698e-07
-3.56184e-08
1.35779e-07
-4.34542e-08
1.3897e-07
-5.13325e-08
1.42006e-07
-5.92814e-08
1.45597e-07
-6.73203e-08
1.4955e-07
-7.54658e-08
1.53338e-07
-8.37422e-08
1.56872e-07
-9.22434e-08
1.60647e-07
-1.01142e-07
1.65425e-07
-1.10647e-07
1.71704e-07
-1.20968e-07
1.79387e-07
-1.32221e-07
1.88002e-07
-1.44488e-07
1.9698e-07
-1.57776e-07
2.06192e-07
-1.7213e-07
2.159e-07
-1.87608e-07
2.26749e-07
-2.04335e-07
2.3935e-07
-2.2244e-07
2.54088e-07
-2.42073e-07
2.70958e-07
-2.63304e-07
2.89693e-07
-2.86201e-07
3.09825e-07
-3.10726e-07
3.31012e-07
-3.36843e-07
3.53019e-07
-3.64461e-07
3.75923e-07
-3.93515e-07
4.0002e-07
-4.23925e-07
4.2585e-07
-4.55678e-07
4.54104e-07
-4.88748e-07
4.85673e-07
-5.23207e-07
5.21529e-07
-5.59113e-07
5.62884e-07
-5.96616e-07
6.11089e-07
-6.35864e-07
6.67824e-07
-6.7707e-07
7.35082e-07
-7.20439e-07
8.15443e-07
-7.66213e-07
9.11934e-07
-8.14531e-07
1.02904e-06
-8.65553e-07
1.17136e-06
-9.18932e-07
1.34747e-06
-9.74301e-07
1.56404e-06
-1.0294e-06
1.83716e-06
-1.08144e-06
2.17451e-06
-1.1227e-06
2.59913e-06
-1.14381e-06
3.10635e-06
3.7046e-06
-1.12943e-06
-7.88679e-10
1.60173e-08
-3.45373e-09
5.08643e-08
-7.8954e-09
8.37414e-08
-1.3879e-08
1.10479e-07
-2.09951e-08
1.28342e-07
-2.87341e-08
1.38443e-07
-3.67176e-08
1.43769e-07
-4.47845e-08
1.47041e-07
-5.28997e-08
1.50126e-07
-6.10926e-08
1.53792e-07
-6.93814e-08
1.57843e-07
-7.77812e-08
1.6174e-07
-8.63182e-08
1.65412e-07
-9.50909e-08
1.69422e-07
-1.04279e-07
1.74614e-07
-1.14097e-07
1.81527e-07
-1.24755e-07
1.90044e-07
-1.36371e-07
1.99625e-07
-1.49023e-07
2.09632e-07
-1.62717e-07
2.19895e-07
-1.77504e-07
2.30689e-07
-1.93446e-07
2.42698e-07
-2.10675e-07
2.5658e-07
-2.29323e-07
2.72744e-07
-2.4954e-07
2.91172e-07
-2.71397e-07
3.1156e-07
-2.94954e-07
3.33381e-07
-3.20168e-07
3.56235e-07
-3.46998e-07
3.79849e-07
-3.75345e-07
4.04278e-07
-4.0514e-07
4.29814e-07
-4.36299e-07
4.57016e-07
-4.68804e-07
4.86606e-07
-5.02626e-07
5.19506e-07
-5.37832e-07
5.56732e-07
-5.74474e-07
5.99535e-07
-6.12692e-07
6.49306e-07
-6.52622e-07
7.07761e-07
-6.94458e-07
7.76918e-07
-7.38376e-07
8.59368e-07
-7.84577e-07
9.58133e-07
-8.33138e-07
1.07761e-06
-8.84124e-07
1.22235e-06
-9.37061e-07
1.40042e-06
-9.91357e-07
1.61833e-06
-1.04459e-06
1.8904e-06
-1.09366e-06
2.22356e-06
-1.13104e-06
2.63649e-06
-1.14787e-06
3.12314e-06
3.68707e-06
-1.13039e-06
-8.11559e-10
1.6836e-08
-3.56303e-09
5.36234e-08
-8.15683e-09
8.83457e-08
-1.4327e-08
1.16657e-07
-2.16566e-08
1.35679e-07
-2.96274e-08
1.46421e-07
-3.78473e-08
1.51995e-07
-4.61517e-08
1.55349e-07
-5.45101e-08
1.5849e-07
-6.29535e-08
1.62237e-07
-7.14989e-08
1.66392e-07
-8.01598e-08
1.70403e-07
-8.89641e-08
1.74219e-07
-9.80157e-08
1.78476e-07
-1.07501e-07
1.841e-07
-1.1764e-07
1.9167e-07
-1.28646e-07
2.01048e-07
-1.40633e-07
2.11619e-07
-1.53679e-07
2.22679e-07
-1.67792e-07
2.34015e-07
-1.83022e-07
2.45922e-07
-1.99441e-07
2.59122e-07
-2.17185e-07
2.74324e-07
-2.3639e-07
2.91956e-07
-2.57208e-07
3.11988e-07
-2.79706e-07
3.34067e-07
-3.0394e-07
3.57613e-07
-3.2986e-07
3.82164e-07
-3.57417e-07
4.07408e-07
-3.86508e-07
4.33376e-07
-4.17058e-07
4.60363e-07
-4.48977e-07
4.88943e-07
-4.82243e-07