/*--------------------------------*- C++ -*----------------------------------*\
  =========                 |
  \\      /  F ield         | OpenFOAM: The Open Source CFD Toolbox
   \\    /   O peration     | Website:  https://openfoam.org
    \\  /    A nd           | Version:  7
     \\/     M anipulation  |
\*---------------------------------------------------------------------------*/
FoamFile
{
    version     2.0;
    format      ascii;
    class       volVectorField;
    location    "0.08";
    object      ddtCorrDdt0(U);
}
// * * * * * * * * * * * * * * * * * * * * * * * * * * * * * * * * * * * * * //

dimensions      [0 1 -2 0 0 0 0];

internalField   nonuniform List<vector> 
70000
(
(-0.00152308 0.000113399 0)
(-0.0102959 0.000164183 0)
(-0.0216374 0.00016859 0)
(-0.0325667 0.000142171 0)
(-0.0429892 0.000135899 0)
(-0.0534793 0.000133792 0)
(-0.0641594 0.000134394 0)
(-0.0751353 0.000138155 0)
(-0.0865036 0.000143299 0)
(-0.0982867 0.000149317 0)
(-0.110423 0.000156157 0)
(-0.122817 0.000163427 0)
(-0.135362 0.000171357 0)
(-0.147951 0.000179313 0)
(-0.16052 0.000187628 0)
(-0.173013 0.000195856 0)
(-0.18545 0.00020469 0)
(-0.19786 0.000214098 0)
(-0.210345 0.000224617 0)
(-0.223027 0.000237071 0)
(-0.236053 0.00025105 0)
(-0.24961 0.000267801 0)
(-0.263877 0.00028705 0)
(-0.279042 0.000309134 0)
(-0.29532 0.000334837 0)
(-0.31289 0.000364081 0)
(-0.331982 0.000397363 0)
(-0.352821 0.000435975 0)
(-0.375637 0.000479221 0)
(-0.400723 0.000529411 0)
(-0.428351 0.000586695 0)
(-0.45887 0.000652558 0)
(-0.492651 0.000728975 0)
(-0.530148 0.000817789 0)
(-0.571859 0.000921211 0)
(-0.618487 0.00104361 0)
(-0.670728 0.00118819 0)
(-0.729663 0.00136057 0)
(-0.796426 0.00157066 0)
(-0.872627 0.00182358 0)
(-0.96027 0.00213999 0)
(-1.06195 0.00253374 0)
(-1.18108 0.00302928 0)
(-1.32264 0.00368414 0)
(-1.4925 0.00451937 0)
(-1.69918 0.00560872 0)
(-1.96472 0.00755702 0)
(-2.25936 0.00863381 0)
(-2.83594 0.01002 0)
(-2.65529 0.124954 0)
(-0.000822213 0.000558117 0)
(-0.0161896 0.00110751 0)
(-0.0412158 0.00128121 0)
(-0.0663586 0.00125351 0)
(-0.0894754 0.00123758 0)
(-0.112354 0.00126465 0)
(-0.135802 0.00131211 0)
(-0.160115 0.00137425 0)
(-0.185504 0.00144356 0)
(-0.211989 0.00151074 0)
(-0.239351 0.0015685 0)
(-0.267229 0.00161233 0)
(-0.295214 0.00164232 0)
(-0.322908 0.00165976 0)
(-0.350024 0.00166968 0)
(-0.37637 0.00167648 0)
(-0.401936 0.00168757 0)
(-0.42681 0.00170892 0)
(-0.451237 0.00174647 0)
(-0.47554 0.00180676 0)
(-0.50011 0.00189158 0)
(-0.525402 0.00200678 0)
(-0.551884 0.00215341 0)
(-0.580041 0.00233395 0)
(-0.610386 0.00255181 0)
(-0.643402 0.00280836 0)
(-0.679617 0.00310664 0)
(-0.719557 0.00345221 0)
(-0.763756 0.00384623 0)
(-0.812824 0.00429807 0)
(-0.867352 0.00481351 0)
(-0.928068 0.00540189 0)
(-0.995703 0.00607778 0)
(-1.07122 0.00685488 0)
(-1.15557 0.00775544 0)
(-1.25021 0.00880697 0)
(-1.35647 0.0100447 0)
(-1.47655 0.0115142 0)
(-1.61267 0.0132863 0)
(-1.76806 0.0154313 0)
(-1.94674 0.0180915 0)
(-2.15389 0.0213997 0)
(-2.39643 0.0255895 0)
(-2.68447 0.0310886 0)
(-3.03 0.0380472 0)
(-3.45044 0.0481384 0)
(-3.9944 0.0600204 0)
(-4.58923 0.0868448 0)
(-5.7912 0.0850885 0)
(-5.89874 0.339414 0)
(0.000475905 0.00105558 0)
(-0.01363 0.00243898 0)
(-0.042751 0.00304528 0)
(-0.0761337 0.00302799 0)
(-0.10766 0.00295083 0)
(-0.138063 0.00300841 0)
(-0.168799 0.00314374 0)
(-0.200653 0.00331712 0)
(-0.23406 0.00350678 0)
(-0.269122 0.00368633 0)
(-0.305554 0.00383193 0)
(-0.34279 0.00392758 0)
(-0.380132 0.00397102 0)
(-0.416865 0.00396707 0)
(-0.452417 0.00393049 0)
(-0.486387 0.00387803 0)
(-0.518649 0.00383065 0)
(-0.54927 0.0038081 0)
(-0.578552 0.00382636 0)
(-0.606936 0.00390298 0)
(-0.634971 0.00404469 0)
(-0.663306 0.00426491 0)
(-0.692622 0.00456762 0)
(-0.723628 0.0049594 0)
(-0.757076 0.00544616 0)
(-0.793678 0.00603284 0)
(-0.834195 0.00672369 0)
(-0.879375 0.00753037 0)
(-0.92996 0.00845565 0)
(-0.986769 0.00951718 0)
(-1.05058 0.0107283 0)
(-1.12234 0.0121087 0)
(-1.20295 0.0136889 0)
(-1.29364 0.0155005 0)
(-1.39556 0.0175923 0)
(-1.5105 0.0200253 0)
(-1.6401 0.0228794 0)
(-1.78701 0.0262574 0)
(-1.95397 0.030314 0)
(-2.14484 0.0352158 0)
(-2.36457 0.0412726 0)
(-2.61932 0.0487905 0)
(-2.9176 0.0583249 0)
(-3.27149 0.0707755 0)
(-3.69604 0.0865867 0)
(-4.21018 0.109901 0)
(-4.88154 0.135592 0)
(-5.59727 0.197387 0)
(-7.06057 0.221794 0)
(-7.46642 0.579346 0)
(0.000905592 0.00139059 0)
(-0.00899355 0.00370166 0)
(-0.034995 0.00505926 0)
(-0.0700166 0.00525962 0)
(-0.106232 0.00513423 0)
(-0.141666 0.00517272 0)
(-0.176982 0.00538007 0)
(-0.213166 0.00568557 0)
(-0.250978 0.00603666 0)
(-0.29076 0.00637672 0)
(-0.332336 0.00665426 0)
(-0.37512 0.00683171 0)
(-0.418263 0.00689732 0)
(-0.460816 0.00685602 0)
(-0.50193 0.00673362 0)
(-0.540942 0.00656456 0)
(-0.577519 0.00638951 0)
(-0.611594 0.00624948 0)
(-0.643411 0.0061757 0)
(-0.673411 0.00620219 0)
(-0.702197 0.00634425 0)
(-0.730504 0.0066262 0)
(-0.759133 0.00705753 0)
(-0.788938 0.00765133 0)
(-0.820832 0.00841684 0)
(-0.855702 0.00936433 0)
(-0.894491 0.0104987 0)
(-0.938121 0.0118383 0)
(-0.987504 0.0133871 0)
(-1.04362 0.0151705 0)
(-1.10739 0.01721 0)
(-1.1799 0.0195356 0)
(-1.26217 0.0221952 0)
(-1.35557 0.0252404 0)
(-1.46136 0.0287491 0)
(-1.58148 0.0328208 0)
(-1.71771 0.0375847 0)
(-1.87286 0.0432108 0)
(-2.04994 0.0499446 0)
(-2.25292 0.0580681 0)
(-2.48724 0.068073 0)
(-2.75921 0.0804705 0)
(-3.07816 0.0962022 0)
(-3.45615 0.116639 0)
(-3.91081 0.142687 0)
(-4.45712 0.181343 0)
(-5.17859 0.223296 0)
(-5.93396 0.323284 0)
(-7.4487 0.382071 0)
(-8.09826 0.833071 0)
(0.000568165 0.00158401 0)
(-0.00581745 0.00469767 0)
(-0.0258981 0.00692335 0)
(-0.0573183 0.007618 0)
(-0.0936752 0.00762051 0)
(-0.131271 0.00766984 0)
(-0.169184 0.00792277 0)
(-0.207798 0.0083427 0)
(-0.247862 0.00886181 0)
(-0.289921 0.00938983 0)
(-0.334025 0.0098389 0)
(-0.379754 0.0101392 0)
(-0.42633 0.0102592 0)
(-0.472757 0.0101958 0)
(-0.518029 0.0099808 0)
(-0.561251 0.00966621 0)
(-0.601838 0.00931521 0)
(-0.639494 0.00899545 0)
(-0.674284 0.00875851 0)
(-0.706529 0.00865987 0)
(-0.736757 0.00872737 0)
(-0.765669 0.00899974 0)
(-0.794066 0.00949524 0)
(-0.82283 0.0102365 0)
(-0.852938 0.0112385 0)
(-0.885367 0.0125194 0)
(-0.921169 0.0140856 0)
(-0.961397 0.0159632 0)
(-1.0071 0.0181574 0)
(-1.05938 0.0207014 0)
(-1.1193 0.023624 0)
(-1.18806 0.026966 0)
(-1.2668 0.0307918 0)
(-1.35697 0.0351744 0)
(-1.45995 0.0402202 0)
(-1.5777 0.0460711 0)
(-1.71218 0.0529055 0)
(-1.86616 0.0609677 0)
(-2.04284 0.0705947 0)
(-2.24613 0.0821955 0)
(-2.48176 0.096445 0)
(-2.75578 0.114088 0)
(-3.07821 0.136401 0)
(-3.4599 0.165436 0)
(-3.92128 0.20209 0)
(-4.47148 0.257319 0)
(-5.20322 0.315779 0)
(-5.97261 0.456561 0)
(-7.42514 0.55755 0)
(-8.30345 1.07815 0)
(9.56818e-05 0.00173881 0)
(-0.00468882 0.00544666 0)
(-0.0196669 0.00845896 0)
(-0.0454957 0.0097959 0)
(-0.0784744 0.0101375 0)
(-0.114933 0.0103268 0)
(-0.152911 0.0106626 0)
(-0.191945 0.0111917 0)
(-0.232398 0.0118697 0)
(-0.274784 0.0125909 0)
(-0.319315 0.0132364 0)
(-0.365801 0.0137017 0)
(-0.413698 0.013928 0)
(-0.462175 0.0138942 0)
(-0.510276 0.0136277 0)
(-0.557016 0.0131898 0)
(-0.601607 0.0126629 0)
(-0.643497 0.0121423 0)
(-0.682497 0.0117033 0)
(-0.718707 0.0114267 0)
(-0.752471 0.0113566 0)
(-0.784343 0.0115489 0)
(-0.814999 0.0120338 0)
(-0.845222 0.0128464 0)
(-0.875919 0.0140109 0)
(-0.908035 0.0155565 0)
(-0.942627 0.0174949 0)
(-0.98079 0.0198619 0)
(-1.02364 0.0226662 0)
(-1.07239 0.0259494 0)
(-1.12819 0.0297484 0)
(-1.19234 0.0341148 0)
(-1.26611 0.0391285 0)
(-1.35101 0.0448853 0)
(-1.44855 0.0515182 0)
(-1.56072 0.0592137 0)
(-1.68959 0.0681983 0)
(-1.83789 0.078794 0)
(-2.00897 0.0914279 0)
(-2.20659 0.106645 0)
(-2.4367 0.12529 0)
(-2.70489 0.148382 0)
(-3.02182 0.17745 0)
(-3.39676 0.215422 0)
(-3.85222 0.262823 0)
(-4.39364 0.335004 0)
(-5.11111 0.411286 0)
(-5.88863 0.588797 0)
(-7.22414 0.741678 0)
(-8.28046 1.31064 0)
(-0.000180066 0.00190126 0)
(-0.00472586 0.00605302 0)
(-0.0168388 0.00969869 0)
(-0.0379221 0.0116824 0)
(-0.0663918 0.0124782 0)
(-0.0995626 0.0129308 0)
(-0.135308 0.0134269 0)
(-0.172655 0.014095 0)
(-0.211568 0.0149364 0)
(-0.252399 0.0158525 0)
(-0.295401 0.0167079 0)
(-0.340567 0.0173717 0)
(-0.387624 0.0177601 0)
(-0.436046 0.0178298 0)
(-0.485127 0.0175928 0)
(-0.533999 0.0171076 0)
(-0.581826 0.016465 0)
(-0.627872 0.0157823 0)
(-0.671696 0.0151577 0)
(-0.713136 0.0146993 0)
(-0.752297 0.0144698 0)
(-0.789511 0.0145439 0)
(-0.825245 0.0149648 0)
(-0.860081 0.0157822 0)
(-0.894729 0.0170316 0)
(-0.929967 0.0187574 0)
(-0.966717 0.0209803 0)
(-1.00599 0.0237506 0)
(-1.04887 0.0270844 0)
(-1.09655 0.031035 0)
(-1.15027 0.0356491 0)
(-1.21136 0.0409916 0)
(-1.2812 0.0471573 0)
(-1.36134 0.0542665 0)
(-1.45343 0.0624772 0)
(-1.55945 0.0720218 0)
(-1.68161 0.0831728 0)
(-1.82256 0.0963323 0)
(-1.9858 0.112014 0)
(-2.17487 0.130905 0)
(-2.3959 0.154006 0)
(-2.65398 0.182642 0)
(-2.96011 0.218529 0)
(-3.32244 0.265559 0)
(-3.76348 0.323849 0)
(-4.2895 0.412629 0)
(-4.97607 0.508425 0)
(-5.75354 0.717507 0)
(-6.95884 0.927997 0)
(-8.10276 1.53151 0)
(-0.000250144 0.00207915 0)
(-0.00505133 0.00661731 0)
(-0.0161646 0.0107737 0)
(-0.0344373 0.0133273 0)
(-0.0592554 0.0145892 0)
(-0.0888279 0.0153582 0)
(-0.121329 0.016066 0)
(-0.15568 0.0169029 0)
(-0.191641 0.0179186 0)
(-0.229439 0.0190329 0)
(-0.26933 0.0201053 0)
(-0.311425 0.0209896 0)
(-0.35568 0.0215863 0)
(-0.401904 0.0218337 0)
(-0.449762 0.0217255 0)
(-0.498693 0.0213055 0)
(-0.548014 0.0206586 0)
(-0.59697 0.0199121 0)
(-0.644957 0.0191809 0)
(-0.691591 0.0185987 0)
(-0.736741 0.0182478 0)
(-0.780516 0.0182218 0)
(-0.823157 0.0185764 0)
(-0.865004 0.0193743 0)
(-0.906509 0.0206624 0)
(-0.948178 0.0225013 0)
(-0.990675 0.0249247 0)
(-1.03478 0.0280013 0)
(-1.08142 0.031761 0)
(-1.13166 0.0362736 0)
(-1.18667 0.0416001 0)
(-1.24776 0.0478225 0)
(-1.31635 0.0550525 0)
(-1.39399 0.0634372 0)
(-1.48242 0.0731594 0)
(-1.58362 0.0844981 0)
(-1.69988 0.0977705 0)
(-1.83379 0.113459 0)
(-1.98891 0.132159 0)
(-2.16863 0.154708 0)
(-2.37904 0.182243 0)
(-2.62495 0.21641 0)
(-2.91703 0.259091 0)
(-3.26323 0.315088 0)
(-3.68377 0.384372 0)
(-4.1891 0.488901 0)
(-4.83488 0.605655 0)
(-5.59616 0.841813 0)
(-6.67842 1.10782 0)
(-7.82047 1.74634 0)
(-0.000228091 0.00227381 0)
(-0.00526716 0.00719759 0)
(-0.0162879 0.0118052 0)
(-0.0334713 0.0148462 0)
(-0.0561602 0.0165291 0)
(-0.083057 0.0176046 0)
(-0.112648 0.0185279 0)
(-0.143907 0.019535 0)
(-0.176552 0.0207196 0)
(-0.210763 0.022023 0)
(-0.246806 0.0233066 0)
(-0.284868 0.0244159 0)
(-0.325071 0.0252456 0)
(-0.367498 0.0257257 0)
(-0.412199 0.0258356 0)
(-0.459028 0.0255999 0)
(-0.50763 0.0250846 0)
(-0.557416 0.0244123 0)
(-0.607778 0.0237029 0)
(-0.65821 0.0231102 0)
(-0.708418 0.0227349 0)
(-0.758335 0.0226891 0)
(-0.808032 0.0230394 0)
(-0.857653 0.0238578 0)
(-0.90741 0.0251984 0)
(-0.957521 0.0271354 0)
(-1.00833 0.0297149 0)
(-1.06031 0.033027 0)
(-1.11406 0.0371195 0)
(-1.17043 0.042085 0)
(-1.23037 0.0480046 0)
(-1.29507 0.0549834 0)
(-1.36586 0.063154 0)
(-1.44423 0.0726938 0)
(-1.53192 0.0838122 0)
(-1.63086 0.0968358 0)
(-1.74338 0.112126 0)
(-1.87198 0.130245 0)
(-2.0202 0.151868 0)
(-2.19129 0.177976 0)
(-2.3911 0.209841 0)
(-2.62434 0.249413 0)
(-2.90082 0.298763 0)
(-3.22877 0.363445 0)
(-3.62504 0.44367 0)
(-4.1043 0.562921 0)
(-4.70439 0.701014 0)
(-5.43082 0.961345 0)
(-6.39684 1.2774 0)
(-7.47624 1.94103 0)
(-0.000195538 0.00247753 0)
(-0.00533885 0.00780832 0)
(-0.0165071 0.0128518 0)
(-0.0334766 0.0163428 0)
(-0.055302 0.0183969 0)
(-0.0807434 0.0197405 0)
(-0.108408 0.0208509 0)
(-0.137348 0.0220021 0)
(-0.167258 0.0233282 0)
(-0.198295 0.0247933 0)
(-0.230742 0.0262632 0)
(-0.264828 0.0275798 0)
(-0.300757 0.0286388 0)
(-0.338793 0.0293733 0)
(-0.379291 0.0297582 0)
(-0.422509 0.0298018 0)
(-0.468503 0.0295447 0)
(-0.516991 0.0290909 0)
(-0.567519 0.0285523 0)
(-0.619594 0.028093 0)
(-0.672856 0.0278291 0)
(-0.727157 0.0278904 0)
(-0.782481 0.0283535 0)
(-0.838876 0.0292953 0)
(-0.896411 0.0307711 0)
(-0.955092 0.032861 0)
(-1.01498 0.035619 0)
(-1.07622 0.0391538 0)
(-1.13906 0.0435327 0)
(-1.20399 0.0488745 0)
(-1.27169 0.0552862 0)
(-1.34307 0.062902 0)
(-1.41928 0.0718808 0)
(-1.50163 0.0824355 0)
(-1.59177 0.0948054 0)
(-1.6915 0.109366 0)
(-1.80308 0.126526 0)
(-1.92891 0.146922 0)
(-2.07236 0.17131 0)
(-2.23659 0.200804 0)
(-2.42702 0.236816 0)
(-2.64828 0.28156 0)
(-2.90906 0.337336 0)
(-3.21775 0.410274 0)
(-3.58803 0.501128 0)
(-4.03655 0.634028 0)
(-4.58854 0.792847 0)
(-5.26396 1.07453 0)
(-6.11877 1.43519 0)
(-7.09204 2.10878 0)
(-0.000176253 0.0026863 0)
(-0.00534148 0.00844723 0)
(-0.0166294 0.0139369 0)
(-0.033678 0.0178674 0)
(-0.0552977 0.0202691 0)
(-0.0801569 0.0218484 0)
(-0.106872 0.0231112 0)
(-0.134465 0.0243709 0)
(-0.162594 0.0258012 0)
(-0.191413 0.0273898 0)
(-0.221181 0.0290086 0)
(-0.252126 0.0304974 0)
(-0.284466 0.0317574 0)
(-0.318535 0.0327338 0)
(-0.354867 0.0334093 0)
(-0.394027 0.0337847 0)
(-0.436446 0.0338759 0)
(-0.482201 0.0337595 0)
(-0.531085 0.0335276 0)
(-0.582733 0.0333437 0)
(-0.636817 0.0333349 0)
(-0.693191 0.0336469 0)
(-0.751844 0.0343671 0)
(-0.812834 0.0355748 0)
(-0.876209 0.0373205 0)
(-0.941896 0.0396812 0)
(-1.00979 0.04271 0)
(-1.07976 0.0465259 0)
(-1.15177 0.0512127 0)
(-1.22596 0.0569146 0)
(-1.30264 0.0637669 0)
(-1.3824 0.0719373 0)
(-1.4661 0.0816163 0)
(-1.55481 0.0930567 0)
(-1.64995 0.106533 0)
(-1.75313 0.122471 0)
(-1.86644 0.141328 0)
(-1.9921 0.163814 0)
(-2.13322 0.190766 0)
(-2.2928 0.223416 0)
(-2.47574 0.26332 0)
(-2.68647 0.312917 0)
(-2.93258 0.374755 0)
(-3.22206 0.455395 0)
(-3.56626 0.556324 0)
(-3.98097 0.701612 0)
(-4.48398 0.880015 0)
(-5.09743 1.1799 0)
(-5.8433 1.57619 0)
(-6.68525 2.2582 0)
(-0.000166914 0.00289971 0)
(-0.00532997 0.0091109 0)
(-0.0166781 0.0150626 0)
(-0.0338328 0.0194416 0)
(-0.0554714 0.0221862 0)
(-0.0801778 0.0239852 0)
(-0.106535 0.0253781 0)
(-0.13352 0.0267176 0)
(-0.160749 0.0282182 0)
(-0.188313 0.0298947 0)
(-0.216456 0.0316247 0)
(-0.245371 0.0332461 0)
(-0.275242 0.0346672 0)
(-0.306387 0.0358517 0)
(-0.339398 0.0368005 0)
(-0.375008 0.0375181 0)
(-0.413919 0.0380016 0)
(-0.456511 0.0382984 0)
(-0.502841 0.0384722 0)
(-0.552719 0.0386769 0)
(-0.605914 0.0390447 0)
(-0.66234 0.039737 0)
(-0.722049 0.0408527 0)
(-0.785184 0.0424744 0)
(-0.851872 0.0446442 0)
(-0.922085 0.0474279 0)
(-0.995687 0.0508677 0)
(-1.07243 0.0550825 0)
(-1.15206 0.0601641 0)
(-1.23443 0.0662767 0)
(-1.31956 0.0735824 0)
(-1.40769 0.082283 0)
(-1.49937 0.0926036 0)
(-1.59536 0.104839 0)
(-1.6968 0.119304 0)
(-1.80505 0.136476 0)
(-1.92192 0.156863 0)
(-2.04939 0.181245 0)
(-2.19024 0.21054 0)
(-2.34725 0.246088 0)
(-2.5247 0.28958 0)
(-2.72669 0.343649 0)
(-2.95982 0.411091 0)
(-3.23108 0.498786 0)
(-3.55029 0.608992 0)
(-3.93033 0.765411 0)
(-4.38483 0.961261 0)
(-4.93079 1.27651 0)
(-5.57095 1.70023 0)
(-6.27127 2.38374 0)
(-0.000160993 0.00311823 0)
(-0.00532228 0.00979844 0)
(-0.0167021 0.0162273 0)
(-0.0339325 0.0210692 0)
(-0.0556224 0.0241633 0)
(-0.0803131 0.0261791 0)
(-0.106573 0.0276916 0)
(-0.133348 0.0290953 0)
(-0.160208 0.0306462 0)
(-0.187209 0.0323859 0)
(-0.214554 0.034199 0)
(-0.2424 0.0359207 0)
(-0.270875 0.0374664 0)
(-0.300245 0.0388205 0)
(-0.331074 0.0400102 0)
(-0.364151 0.0410534 0)
(-0.400318 0.0419366 0)
(-0.440161 0.0426796 0)
(-0.483935 0.0433149 0)
(-0.53162 0.0439802 0)
(-0.583089 0.0448086 0)
(-0.638339 0.0459759 0)
(-0.697503 0.0475954 0)
(-0.760833 0.0497549 0)
(-0.828587 0.0524888 0)
(-0.900859 0.0558468 0)
(-0.977589 0.0598519 0)
(-1.05853 0.0646115 0)
(-1.14335 0.0702162 0)
(-1.23173 0.0768412 0)
(-1.32347 0.0846696 0)
(-1.41855 0.0939346 0)
(-1.51721 0.104895 0)
(-1.61995 0.117889 0)
(-1.72758 0.133272 0)
(-1.84119 0.151572 0)
(-1.96227 0.173353 0)
(-2.09254 0.199457 0)
(-2.23438 0.230886 0)
(-2.39026 0.269071 0)
(-2.56389 0.315832 0)
(-2.75885 0.373972 0)
(-2.9809 0.446499 0)
(-3.23562 0.540548 0)
(-3.53177 0.659102 0)
(-3.87837 0.825221 0)
(-4.28642 1.03618 0)
(-4.76464 1.36367 0)
(-5.30515 1.80603 0)
(-5.86571 2.48498 0)
(-0.000155568 0.00334216 0)
(-0.0053192 0.0105106 0)
(-0.0167239 0.0174305 0)
(-0.0340107 0.0227499 0)
(-0.0557392 0.0262039 0)
(-0.0804323 0.0284395 0)
(-0.106669 0.0300701 0)
(-0.133386 0.0315327 0)
(-0.160129 0.0331248 0)
(-0.186931 0.0349156 0)
(-0.213969 0.0367966 0)
(-0.241366 0.0385994 0)
(-0.269206 0.0402445 0)
(-0.297693 0.0417385 0)
(-0.327343 0.0431386 0)
(-0.35893 0.0444828 0)
(-0.39334 0.0457538 0)
(-0.431249 0.0469481 0)
(-0.473043 0.0480667 0)
(-0.518809 0.0492272 0)
(-0.568502 0.0505621 0)
(-0.622206 0.0522599 0)
(-0.680091 0.0544518 0)
(-0.74252 0.057235 0)
(-0.809883 0.0606379 0)
(-0.882403 0.0646933 0)
(-0.960164 0.0694004 0)
(-1.04298 0.0748455 0)
(-1.13054 0.0811099 0)
(-1.22249 0.0883704 0)
(-1.31849 0.0968234 0)
(-1.41835 0.106728 0)
(-1.52212 0.118373 0)
(-1.63003 0.132137 0)
(-1.74265 0.148416 0)
(-1.86081 0.167787 0)
(-1.98567 0.190869 0)
(-2.11869 0.218562 0)
(-2.26186 0.251945 0)
(-2.4173 0.292536 0)
(-2.58818 0.342263 0)
(-2.77747 0.404082 0)
(-2.99019 0.481174 0)
(-3.23041 0.580865 0)
(-3.50597 0.706772 0)
(-3.82195 0.881161 0)
(-4.18723 1.10469 0)
(-4.60181 1.44105 0)
(-5.0519 1.89454 0)
(-5.48457 2.5632 0)
(-0.000150133 0.00357171 0)
(-0.00531873 0.0112483 0)
(-0.0167482 0.0186735 0)
(-0.0340855 0.0244842 0)
(-0.0558435 0.0283088 0)
(-0.080531 0.0307693 0)
(-0.10675 0.0325196 0)
(-0.133445 0.0340411 0)
(-0.160158 0.0356727 0)
(-0.18691 0.0375113 0)
(-0.213865 0.039455 0)
(-0.241127 0.0413305 0)
(-0.26875 0.0430627 0)
(-0.296897 0.0446801 0)
(-0.32604 0.0462708 0)
(-0.356917 0.0478968 0)
(-0.390404 0.0495416 0)
(-0.427203 0.0511809 0)
(-0.46775 0.0527858 0)
(-0.512175 0.0544535 0)
(-0.56052 0.0563125 0)
(-0.612817 0.0585675 0)
(-0.669398 0.0613673 0)
(-0.730633 0.0648235 0)
(-0.797006 0.0689598 0)
(-0.868823 0.0737984 0)
(-0.946396 0.0793077 0)
(-1.02949 0.0855503 0)
(-1.11793 0.0925919 0)
(-1.21139 0.100604 0)
(-1.30951 0.109788 0)
(-1.41201 0.120422 0)
(-1.5188 0.132821 0)
(-1.62996 0.147399 0)
(-1.74588 0.164591 0)
(-1.86714 0.185017 0)
(-1.99468 0.209349 0)
(-2.12969 0.238542 0)
(-2.27381 0.273746 0)
(-2.42883 0.316553 0)
(-2.59743 0.368988 0)
(-2.78197 0.434134 0)
(-2.98681 0.515307 0)
(-3.21463 0.619962 0)
(-3.47228 0.752256 0)
(-3.76142 0.933521 0)
(-4.08884 1.16706 0)
(-4.4468 1.50919 0)
(-4.81834 1.96731 0)
(-5.1416 2.61992 0)
(-0.000144827 0.00380714 0)
(-0.00532003 0.0120116 0)
(-0.0167742 0.0199582 0)
(-0.0341608 0.0262734 0)
(-0.0559468 0.0304795 0)
(-0.0806232 0.03317 0)
(-0.106818 0.0350424 0)
(-0.133493 0.0366247 0)
(-0.160193 0.0382974 0)
(-0.186939 0.0401849 0)
(-0.21389 0.0421915 0)
(-0.24114 0.0441387 0)
(-0.268725 0.0459546 0)
(-0.296792 0.0476893 0)
(-0.325784 0.0494629 0)
(-0.356411 0.0513622 0)
(-0.389522 0.053373 0)
(-0.425811 0.0554524 0)
(-0.465712 0.057542 0)
(-0.509384 0.0597186 0)
(-0.556856 0.0621081 0)
(-0.608263 0.0649278 0)
(-0.663839 0.0683517 0)
(-0.72405 0.0725039 0)
(-0.789381 0.0774126 0)
(-0.86036 0.0830795 0)
(-0.936957 0.0894586 0)
(-1.0196 0.0965783 0)
(-1.10792 0.104484 0)
(-1.20162 0.113337 0)
(-1.30036 0.12334 0)
(-1.40385 0.134786 0)
(-1.51195 0.148011 0)
(-1.62465 0.163457 0)
(-1.74221 0.181597 0)
(-1.86507 0.20309 0)
(-1.99399 0.228656 0)
(-2.12994 0.259298 0)
(-2.27428 0.296231 0)
(-2.4285 0.341115 0)
(-2.59488 0.396048 0)
(-2.77523 0.464225 0)
(-2.97331 0.549064 0)
(-3.19063 0.658076 0)
(-3.43299 0.79587 0)
(-3.69933 0.982711 0)
(-3.99432 1.22391 0)
(-4.3042 1.56896 0)
(-4.61027 2.02623 0)
(-4.84529 2.65826 0)
(-0.000139787 0.00404866 0)
(-0.00532295 0.0128011 0)
(-0.0168011 0.0212865 0)
(-0.0342355 0.0281191 0)
(-0.0560507 0.0327175 0)
(-0.0807149 0.0356433 0)
(-0.106881 0.0376402 0)
(-0.133531 0.0392857 0)
(-0.160218 0.0410022 0)
(-0.186966 0.0429414 0)
(-0.213933 0.0450135 0)
(-0.241205 0.0470344 0)
(-0.268812 0.0489354 0)
(-0.296894 0.0507882 0)
(-0.325885 0.0527453 0)
(-0.35648 0.0549182 0)
(-0.389502 0.0572956 0)
(-0.425625 0.0598155 0)
(-0.465267 0.0623913 0)
(-0.508586 0.0650787 0)
(-0.555615 0.0680021 0)
(-0.606479 0.0713933 0)
(-0.661451 0.0754486 0)
(-0.720975 0.0803091 0)
(-0.785593 0.0860088 0)
(-0.855722 0.0925343 0)
(-0.931775 0.099812 0)
(-1.01367 0.107859 0)
(-1.10136 0.116687 0)
(-1.19462 0.126443 0)
(-1.29312 0.13733 0)
(-1.39658 0.149651 0)
(-1.50484 0.16376 0)
(-1.61786 0.180126 0)
(-1.73582 0.199253 0)
(-1.85908 0.221834 0)
(-1.98826 0.248637 0)
(-2.12417 0.280704 0)
(-2.26797 0.319309 0)
(-2.42091 0.366171 0)
(-2.58493 0.423445 0)
(-2.76141 0.494419 0)
(-2.95355 0.582578 0)
(-3.16194 0.695431 0)
(-3.39135 0.837939 0)
(-3.63866 1.02922 0)
(-3.90647 1.27597 0)
(-4.17683 1.62144 0)
(-4.43013 2.07362 0)
(-4.59743 2.68189 0)
(-0.000135066 0.00429648 0)
(-0.00532753 0.0136177 0)
(-0.0168286 0.0226601 0)
(-0.0343084 0.0300231 0)
(-0.0561541 0.0350248 0)
(-0.0808065 0.0381915 0)
(-0.106941 0.0403148 0)
(-0.133565 0.0420259 0)
(-0.160237 0.0437893 0)
(-0.186986 0.0457837 0)
(-0.213971 0.0479246 0)
(-0.241269 0.0500222 0)
(-0.268909 0.0520113 0)
(-0.297031 0.0539864 0)
(-0.32607 0.0561322 0)
(-0.356713 0.058585 0)
(-0.389768 0.0613355 0)
(-0.425887 0.064302 0)
(-0.465468 0.0673696 0)
(-0.508657 0.0705733 0)
(-0.555491 0.0740366 0)
(-0.606094 0.0780066 0)
(-0.660745 0.0827022 0)
(-0.719888 0.0882836 0)
(-0.784061 0.0947869 0)
(-0.853698 0.10219 0)
(-0.929139 0.110399 0)
(-1.01046 0.119395 0)
(-1.09756 0.129175 0)
(-1.19024 0.139871 0)
(-1.28819 0.151685 0)
(-1.39117 0.164923 0)
(-1.49901 0.179958 0)
(-1.61166 0.197282 0)
(-1.72926 0.217429 0)
(-1.85213 0.241121 0)
(-1.9808 0.269169 0)
(-2.11597 0.302653 0)
(-2.25866 0.342894 0)
(-2.40991 0.391665 0)
(-2.57141 0.451167 0)
(-2.74418 0.52475 0)
(-2.93095 0.615957 0)
(-3.13165 0.732218 0)
(-3.34995 0.878768 0)
(-3.58137 1.07352 0)
(-3.82655 1.32399 0)
(-4.06492 1.66781 0)
(-4.27653 2.11174 0)
(-4.39374 2.69429 0)
(-0.000130688 0.00455083 0)
(-0.00533371 0.014462 0)
(-0.0168563 0.0240807 0)
(-0.0343786 0.0319871 0)
(-0.0562553 0.0374031 0)
(-0.0808966 0.0408169 0)
(-0.106999 0.0430686 0)
(-0.133593 0.0448475 0)
(-0.160249 0.0466611 0)
(-0.186999 0.0487144 0)
(-0.213999 0.0509275 0)
(-0.241322 0.0531051 0)
(-0.268993 0.055186 0)
(-0.297157 0.0572884 0)
(-0.326252 0.0596303 0)
(-0.356966 0.0623722 0)
(-0.390095 0.0655058 0)
(-0.42627 0.0689284 0)
(-0.46587 0.0724968 0)
(-0.509031 0.0762258 0)
(-0.555791 0.0802387 0)
(-0.606278 0.0847984 0)
(-0.660778 0.0901476 0)
(-0.719735 0.096464 0)
(-0.783673 0.103788 0)
(-0.85303 0.112086 0)
(-0.928111 0.121241 0)
(-1.00901 0.131208 0)
(-1.09563 0.141963 0)
(-1.18776 0.153624 0)
(-1.28513 0.166388 0)
(-1.3875 0.180571 0)
(-1.49469 0.19656 0)
(-1.60667 0.214867 0)
(-1.72355 0.236056 0)
(-1.84561 0.260877 0)
(-1.97333 0.290178 0)
(-2.10735 0.325075 0)
(-2.24856 0.36693 0)
(-2.39787 0.417561 0)
(-2.55674 0.479203 0)
(-2.72595 0.555248 0)
(-2.90774 0.64928 0)
(-3.10157 0.768589 0)
(-3.31014 0.918605 0)
(-3.52801 1.11598 0)
(-3.75408 1.36866 0)
(-3.96642 1.70915 0)
(-4.14518 2.14254 0)
(-4.22576 2.69847 0)
(-0.000126676 0.00481202 0)
(-0.00534141 0.0153349 0)
(-0.0168842 0.02555 0)
(-0.0344455 0.0340127 0)
(-0.056353 0.0398545 0)
(-0.0809837 0.0435218 0)
(-0.107053 0.0459039 0)
(-0.133616 0.0477528 0)
(-0.160254 0.0496199 0)
(-0.187003 0.0517358 0)
(-0.214016 0.0540247 0)
(-0.241361 0.0562856 0)
(-0.26906 0.0584622 0)
(-0.297261 0.0606975 0)
(-0.326411 0.0632436 0)
(-0.357199 0.0662851 0)
(-0.390411 0.0698134 0)
(-0.426658 0.0737036 0)
(-0.466303 0.0777839 0)
(-0.509472 0.082049 0)
(-0.556204 0.0866238 0)
(-0.606636 0.0917873 0)
(-0.661063 0.0978067 0)
(-0.719932 0.104876 0)
(-0.783755 0.11304 0)
(-0.852959 0.122251 0)
(-0.927828 0.132371 0)
(-1.00844 0.143327 0)
(-1.0947 0.155075 0)
(-1.18638 0.167718 0)
(-1.28323 0.181451 0)
(-1.38498 0.196596 0)
(-1.49149 0.213556 0)
(-1.6027 0.232862 0)
(-1.71871 0.255108 0)
(-1.8398 0.281069 0)
(-1.96638 0.311629 0)
(-2.09903 0.347935 0)
(-2.23858 0.391386 0)
(-2.38579 0.443836 0)
(-2.54196 0.50755 0)
(-2.70766 0.585935 0)
(-2.8847 0.682602 0)
(-3.07221 0.804648 0)
(-3.27194 0.957621 0)
(-3.47785 1.1569 0)
(-3.68734 1.41049 0)
(-3.87802 1.74628 0)
(-4.03039 2.16762 0)
(-4.08436 2.69675 0)
(-0.000123049 0.00508033 0)
(-0.00535048 0.016237 0)
(-0.016912 0.0270698 0)
(-0.0345085 0.0361019 0)
(-0.0564461 0.0423806 0)
(-0.0810663 0.0463085 0)
(-0.107101 0.0488231 0)
(-0.133632 0.0507441 0)
(-0.160251 0.0526683 0)
(-0.186997 0.0548507 0)
(-0.214021 0.0572189 0)
(-0.241385 0.0595664 0)
(-0.269107 0.0618426 0)
(-0.297341 0.0642167 0)
(-0.326542 0.0669757 0)
(-0.357402 0.0703279 0)
(-0.390695 0.0742634 0)
(-0.427017 0.0786334 0)
(-0.466711 0.0832374 0)
(-0.509895 0.0880508 0)
(-0.556613 0.093201 0)
(-0.60701 0.0989846 0)
(-0.661393 0.105693 0)
(-0.720211 0.113537 0)
(-0.783971 0.122563 0)
(-0.853084 0.132709 0)
(-0.927813 0.143814 0)
(-1.00822 0.155777 0)
(-1.09419 0.168534 0)
(-1.1855 0.182174 0)
(-1.28186 0.19689 0)
(-1.38305 0.21301 0)
(-1.48888 0.230954 0)
(-1.59931 0.251272 0)
(-1.71442 0.274585 0)
(-1.83446 0.301692 0)
(-1.95981 0.333513 0)
(-2.09101 0.371222 0)
(-2.22879 0.41625 0)
(-2.37383 0.470483 0)
(-2.52725 0.536204 0)
(-2.68944 0.616818 0)
(-2.86184 0.715946 0)
(-3.0433 0.840448 0)
(-3.23473 0.995916 0)
(-3.42965 1.19645 0)
(-3.62425 1.44985 0)
(-3.79625 1.77985 0)
(-3.92679 2.18813 0)
(-3.96052 2.69075 0)
(-0.000119822 0.00535608 0)
(-0.00536075 0.017169 0)
(-0.0169394 0.0286418 0)
(-0.0345669 0.0382565 0)
(-0.0565332 0.0449834 0)
(-0.0811432 0.0491794 0)
(-0.107141 0.0518287 0)
(-0.133639 0.0538237 0)
(-0.160238 0.0558085 0)
(-0.186979 0.0580617 0)
(-0.214011 0.0605129 0)
(-0.24139 0.0629503 0)
(-0.269132 0.0653299 0)
(-0.297396 0.0678489 0)
(-0.326644 0.07083 0)
(-0.357571 0.0745044 0)
(-0.390941 0.07886 0)
(-0.427334 0.0837227 0)
(-0.467075 0.0888627 0)
(-0.510274 0.0942369 0)
(-0.556977 0.0999768 0)
(-0.607342 0.106398 0)
(-0.661686 0.113816 0)
(-0.720465 0.122457 0)
(-0.784177 0.132368 0)
(-0.85322 0.143473 0)
(-0.927836 0.155585 0)
(-1.00807 0.168575 0)
(-1.09378 0.182358 0)
(-1.18474 0.19701 0)
(-1.28066 0.212722 0)
(-1.3813 0.229829 0)
(-1.48647 0.248766 0)
(-1.59611 0.270104 0)
(-1.71031 0.29449 0)
(-1.82926 0.322747 0)
(-1.95335 0.355826 0)
(-2.08303 0.39493 0)
(-2.21897 0.441516 0)
(-2.36177 0.497493 0)
(-2.51237 0.565157 0)
(-2.67103 0.64789 0)
(-2.8388 0.749309 0)
(-3.0143 0.875998 0)
(-3.19768 1.03352 0)
(-3.38218 1.23471 0)
(-3.563 1.48698 0)
(-3.71833 1.8103 0)
(-3.83017 2.20484 0)
(-3.84801 2.68158 0)
(-0.000116998 0.00563962 0)
(-0.00537202 0.0181317 0)
(-0.0169661 0.0302676 0)
(-0.0346201 0.0404785 0)
(-0.0566133 0.0476647 0)
(-0.0812129 0.0521367 0)
(-0.107174 0.0549233 0)
(-0.133635 0.0569942 0)
(-0.160213 0.0590432 0)
(-0.186947 0.0613713 0)
(-0.213984 0.0639093 0)
(-0.241375 0.06644 0)
(-0.269132 0.0689272 0)
(-0.297422 0.0715972 0)
(-0.326712 0.0748097 0)
(-0.357702 0.0788185 0)
(-0.391145 0.0836074 0)
(-0.427604 0.0889758 0)
(-0.467387 0.0946645 0)
(-0.510595 0.100612 0)
(-0.55728 0.106957 0)
(-0.60761 0.114033 0)
(-0.661914 0.122182 0)
(-0.720652 0.131645 0)
(-0.784316 0.142467 0)
(-0.85329 0.154554 0)
(-0.927797 0.167695 0)
(-1.00786 0.181732 0)
(-1.09332 0.196559 0)
(-1.18394 0.212238 0)
(-1.27942 0.228958 0)
(-1.3795 0.247062 0)
(-1.484 0.267002 0)
(-1.59285 0.289366 0)
(-1.7061 0.314829 0)
(-1.82394 0.344237 0)
(-1.94671 0.37857 0)
(-2.07481 0.419055 0)
(-2.20886 0.467175 0)
(-2.34934 0.524853 0)
(-2.49705 0.594391 0)
(-2.65208 0.679131 0)
(-2.81517 0.782665 0)
(-2.98469 0.911272 0)
(-3.16013 1.07042 0)
(-3.33453 1.2717 0)
(-3.50232 1.52199 0)
(-3.6424 1.83791 0)
(-3.73777 2.21829 0)
(-3.74258 2.66992 0)
(-0.00011457 0.00593132 0)
(-0.00538405 0.0191257 0)
(-0.016992 0.031949 0)
(-0.0346676 0.0427699 0)
(-0.056685 0.0504265 0)
(-0.081274 0.0551827 0)
(-0.107196 0.0581095 0)
(-0.13362 0.060258 0)
(-0.160173 0.0623748 0)
(-0.186898 0.0647823 0)
(-0.213938 0.0674109 0)
(-0.241336 0.0700384 0)
(-0.269105 0.0726372 0)
(-0.297415 0.0754648 0)
(-0.326744 0.0789185 0)
(-0.357791 0.0832739 0)
(-0.391301 0.0885098 0)
(-0.42782 0.0943973 0)
(-0.467639 0.100648 0)
(-0.510851 0.107183 0)
(-0.557513 0.114147 0)
(-0.607802 0.121897 0)
(-0.662061 0.130799 0)
(-0.720752 0.141108 0)
(-0.784362 0.152866 0)
(-0.85326 0.16596 0)
(-0.927649 0.180154 0)
(-1.00753 0.195259 0)
(-1.09273 0.211147 0)
(-1.18299 0.227866 0)
(-1.27802 0.245607 0)
(-1.37753 0.264718 0)
(-1.48134 0.285667 0)
(-1.58937 0.309063 0)
(-1.70164 0.335604 0)
(-1.81833 0.36616 0)
(-1.93972 0.401739 0)
(-2.06619 0.44359 0)
(-2.19826 0.493214 0)
(-2.33633 0.552544 0)
(-2.48104 0.623881 0)
(-2.63235 0.710506 0)
(-2.79066 0.81597 0)
(-2.95413 0.94622 0)
(-3.12168 1.10656 0)
(-3.28617 1.3074 0)
(-3.4415 1.55494 0)
(-3.56743 1.86285 0)
(-3.64802 2.22881 0)
(-3.64186 2.6562 0)
(-0.000112524 0.00623155 0)
(-0.00539658 0.0201517 0)
(-0.0170166 0.0336877 0)
(-0.0347089 0.0451326 0)
(-0.0567473 0.0532709 0)
(-0.0813251 0.0583196 0)
(-0.107208 0.0613899 0)
(-0.133591 0.0636178 0)
(-0.160118 0.0658059 0)
(-0.186832 0.0682973 0)
(-0.213869 0.0710205 0)
(-0.241271 0.0737481 0)
(-0.269047 0.0764629 0)
(-0.297374 0.0794549 0)
(-0.326736 0.0831596 0)
(-0.357836 0.0878745 0)
(-0.391406 0.0935713 0)
(-0.427977 0.0999915 0)
(-0.467825 0.106817 0)
(-0.511034 0.113953 0)
(-0.557665 0.121553 0)
(-0.607908 0.129995 0)
(-0.662114 0.139673 0)
(-0.72075 0.150852 0)
(-0.784296 0.163573 0)
(-0.853107 0.1777 0)
(-0.927364 0.19297 0)
(-1.00705 0.209162 0)
(-1.09197 0.226128 0)
(-1.18187 0.243903 0)
(-1.27641 0.262675 0)
(-1.37533 0.282802 0)
(-1.47842 0.304766 0)
(-1.58558 0.329196 0)
(-1.69684 0.356815 0)
(-1.81232 0.388515 0)
(-1.93228 0.425327 0)
(-2.05704 0.468522 0)
(-2.18704 0.519616 0)
(-2.32261 0.580543 0)
(-2.46422 0.653593 0)
(-2.61169 0.741973 0)
(-2.76511 0.849168 0)
(-2.92245 0.980778 0)
(-3.08211 1.14189 0)
(-3.23687 1.34175 0)
(-3.38024 1.58586 0)
(-3.49293 1.88526 0)
(-3.56017 2.23666 0)
(-3.54462 2.6407 0)
(-0.000110834 0.0065407 0)
(-0.00540931 0.0212104 0)
(-0.0170397 0.0354853 0)
(-0.0347435 0.0475688 0)
(-0.056799 0.0561997 0)
(-0.0813647 0.0615495 0)
(-0.107206 0.0647671 0)
(-0.133546 0.0670762 0)