/*--------------------------------*- C++ -*----------------------------------*\
  =========                 |
  \\      /  F ield         | OpenFOAM: The Open Source CFD Toolbox
   \\    /   O peration     | Website:  https://openfoam.org
    \\  /    A nd           | Version:  7
     \\/     M anipulation  |
\*---------------------------------------------------------------------------*/
FoamFile
{
    version     2.0;
    format      ascii;
    class       volScalarField;
    location    "0.08";
    object      nut;
}
// * * * * * * * * * * * * * * * * * * * * * * * * * * * * * * * * * * * * * //

dimensions      [0 2 -1 0 0 0 0];

internalField   nonuniform List<scalar> 
70000
(
9.96294e-12
6.88096e-14
2.56354e-16
8.62272e-17
4.78618e-17
7.86693e-17
2.76235e-17
1.29037e-17
8.73928e-18
6.37113e-18
4.66234e-18
3.47132e-18
2.64492e-18
2.05763e-18
1.6293e-18
1.30997e-18
1.06752e-18
8.80343e-19
7.33794e-19
6.17455e-19
5.23997e-19
4.48046e-19
3.85656e-19
3.33921e-19
2.90564e-19
2.54024e-19
2.22748e-19
1.96188e-19
1.72762e-19
1.53098e-19
1.34795e-19
1.20192e-19
1.05153e-19
9.4532e-20
8.15813e-20
7.38117e-20
6.32699e-20
5.52448e-20
5.18621e-20
3.40506e-20
5.67189e-20
7.57436e-21
1.46298e-19
5.60285e-21
1.39283e-18
2.64775e-18
3.44118e-17
1.70571e-16
4.59582e-15
4.9611e-13
1.04279e-10
5.98718e-12
6.44439e-14
2.14346e-14
2.8937e-16
1.70277e-17
2.52962e-17
2.12443e-17
1.23487e-17
7.35077e-18
4.81752e-18
3.35703e-18
2.42807e-18
1.80632e-18
1.37603e-18
1.07e-18
8.47012e-19
6.81146e-19
5.55386e-19
4.58497e-19
3.82725e-19
3.22668e-19
2.74504e-19
2.35394e-19
2.03378e-19
1.76759e-19
1.54699e-19
1.35772e-19
1.20201e-19
1.0607e-19
9.5045e-20
8.3838e-20
7.62964e-20
6.67389e-20
6.19375e-20
5.37504e-20
4.98106e-20
4.58294e-20
3.58732e-20
4.99739e-20
1.41145e-20
1.13462e-19
2.37062e-22
8.7082e-19
8.6831e-19
1.79387e-17
6.52463e-17
6.89464e-16
1.96611e-14
4.48906e-14
3.192e-10
3.39745e-12
1.90897e-13
1.99117e-14
7.69655e-16
5.90346e-17
7.48674e-18
4.30915e-18
2.2137e-18
1.11217e-18
6.2367e-19
3.85818e-19
2.5337e-19
1.73008e-19
1.21778e-19
8.79825e-20
6.50448e-20
4.91039e-20
3.77771e-20
2.95872e-20
2.3567e-20
1.90788e-20
1.56946e-20
1.31084e-20
1.11244e-20
9.56998e-21
8.38185e-21
7.40719e-21
6.7134e-21
6.06659e-21
5.72727e-21
5.2562e-21
5.22575e-21
4.83183e-21
5.09281e-21
4.82299e-21
5.12273e-21
5.68542e-21
4.60121e-21
1.01348e-20
2.80518e-21
4.73244e-20
2.72877e-20
7.57176e-19
2.14426e-18
2.27128e-17
1.02694e-16
9.32147e-16
2.05509e-14
5.62575e-14
6.15373e-09
1.92739e-11
7.8413e-13
6.11225e-14
5.50682e-15
9.36079e-16
1.1271e-16
3.04972e-17
1.29316e-17
5.84099e-18
2.79051e-18
1.46748e-18
8.40801e-19
5.11786e-19
3.25398e-19
2.1417e-19
1.45168e-19
1.01001e-19
7.19857e-20
5.25054e-20
3.91874e-20
2.99437e-20
2.34498e-20
1.88429e-20
1.55575e-20
1.32125e-20
1.15515e-20
1.0404e-20
9.6474e-21
9.21826e-21
9.04609e-21
9.15759e-21
9.44605e-21
1.0121e-20
1.08374e-20
1.23617e-20
1.34079e-20
1.66863e-20
1.74379e-20
2.6045e-20
2.58008e-20
6.78647e-20
1.13342e-19
7.17553e-19
2.96248e-18
2.06494e-17
1.01448e-16
6.9599e-16
1.50226e-14
8.51839e-14
2.32289e-09
2.23334e-10
4.4557e-12
3.21966e-13
2.3117e-14
4.44086e-15
7.34708e-16
2.08991e-16
8.65811e-17
3.90936e-17
1.86692e-17
9.70317e-18
5.46474e-18
3.27047e-18
2.04863e-18
1.33114e-18
8.92257e-19
6.147e-19
4.34218e-19
3.14077e-19
2.32509e-19
1.762e-19
1.36795e-19
1.08905e-19
8.90177e-20
7.47889e-20
6.4632e-20
5.75116e-20
5.26503e-20
4.96762e-20
4.81023e-20
4.81067e-20
4.89801e-20
5.19399e-20
5.49685e-20
6.22107e-20
6.69768e-20
8.25984e-20
8.68602e-20
1.2373e-19
1.22116e-19
2.42768e-19
2.95104e-19
1.18921e-18
3.74236e-18
2.06556e-17
9.35793e-17
4.52352e-16
1.10272e-14
7.42499e-14
3.01264e-09
5.28688e-09
4.36041e-11
1.94689e-12
1.08404e-13
1.815e-14
3.29931e-15
9.72788e-16
4.01099e-16
1.81926e-16
8.73853e-17
4.53591e-17
2.53715e-17
1.50478e-17
9.33758e-18
6.0118e-18
3.99455e-18
2.72913e-18
1.91249e-18
1.37256e-18
1.00814e-18
7.57807e-19
5.83272e-19
4.60042e-19
3.72238e-19
3.09303e-19
2.64156e-19
2.32086e-19
2.09715e-19
1.95149e-19
1.8646e-19
1.83819e-19
1.84851e-19
1.93235e-19
2.02463e-19
2.25945e-19
2.41801e-19
2.93982e-19
3.09246e-19
4.30382e-19
4.23232e-19
7.61295e-19
7.91647e-19
2.34211e-18
5.36598e-18
2.15625e-17
8.97356e-17
2.49954e-16
8.29441e-15
6.06099e-14
1.07682e-09
4.76511e-09
3.72207e-09
1.85246e-11
6.73507e-13
9.24508e-14
1.54309e-14
4.24785e-15
1.65914e-15
7.32524e-16
3.47098e-16
1.78202e-16
9.86037e-17
5.78732e-17
3.55598e-17
2.26837e-17
1.49415e-17
1.01242e-17
7.03847e-18
5.01217e-18
3.65274e-18
2.72364e-18
2.07851e-18
1.62434e-18
1.30116e-18
1.06933e-18
9.0241e-19
7.82696e-19
6.9772e-19
6.40027e-19
6.02771e-19
5.85317e-19
5.80351e-19
5.97393e-19
6.18298e-19
6.79047e-19
7.20999e-19
8.60294e-19
9.06363e-19
1.22354e-18
1.22305e-18
2.02361e-18
2.05396e-18
4.69189e-18
8.75108e-18
2.32597e-17
9.44214e-17
1.1427e-16
6.27666e-15
4.80888e-14
2.42793e-09
3.86945e-09
8.22516e-10
2.42525e-09
8.64535e-12
7.19139e-13
9.20004e-14
2.12015e-14
7.36026e-15
3.0116e-15
1.35503e-15
6.69558e-16
3.59677e-16
2.0621e-16
1.24315e-16
7.80558e-17
5.07259e-17
3.39696e-17
2.33696e-17
1.64825e-17
1.19035e-17
8.79762e-18
6.65408e-18
5.15195e-18
4.08615e-18
3.32221e-18
2.77114e-18
2.37333e-18
2.08745e-18
1.8876e-18
1.75191e-18
1.67499e-18
1.63646e-18
1.65725e-18
1.69259e-18
1.82652e-18
1.92165e-18
2.24468e-18
2.36568e-18
3.08971e-18
3.147e-18
4.83783e-18
5.00297e-18
9.33441e-18
1.55399e-17
2.72359e-17
1.123e-16
4.74916e-17
4.78101e-15
3.68435e-14
3.3695e-09
4.37003e-09
5.90965e-10
2.99955e-10
5.48943e-10
1.87234e-11
9.74027e-13
1.49411e-13
4.12665e-14
1.45947e-14
5.92331e-15
2.70924e-15
1.37147e-15
7.50619e-16
4.36096e-16
2.65746e-16
1.685e-16
1.10541e-16
7.47276e-17
5.19113e-17
3.69896e-17
2.70065e-17
2.01944e-17
1.54634e-17
1.21293e-17
9.74946e-18
8.03538e-18
6.79469e-18
5.89654e-18
5.25629e-18
4.80747e-18
4.52505e-18
4.3549e-18
4.33705e-18
4.36788e-18
4.62798e-18
4.81819e-18
5.50464e-18
5.79012e-18
7.31649e-18
7.56775e-18
1.09079e-17
1.15863e-17
1.85647e-17
2.90646e-17
3.6801e-17
1.52192e-16
3.0011e-17
3.70152e-15
2.71708e-14
3.41104e-09
4.60713e-09
6.72427e-10
1.9348e-10
4.71805e-11
6.74296e-11
3.18239e-10
2.90591e-12
4.07599e-13
1.0328e-13
3.40427e-14
1.34639e-14
6.12201e-15
3.08629e-15
1.68075e-15
9.72309e-16
5.90872e-16
3.74232e-16
2.45628e-16
1.66401e-16
1.16032e-16
8.31266e-17
6.11175e-17
4.60833e-17
3.56275e-17
2.8239e-17
2.29533e-17
1.91372e-17
1.63698e-17
1.43751e-17
1.29487e-17
1.19939e-17
1.13638e-17
1.11253e-17
1.10387e-17
1.14797e-17
1.18089e-17
1.31935e-17
1.38125e-17
1.69062e-17
1.76665e-17
2.40686e-17
2.61631e-17
3.74468e-17
5.65533e-17
5.89074e-17
2.30938e-16
4.96514e-17
2.91904e-15
1.91625e-14
3.21189e-09
4.39071e-09
7.735e-10
2.02035e-10
3.66032e-11
2.18944e-11
1.3582e-11
2.13434e-11
1.67187e-10
2.40523e-12
3.86824e-13
1.06277e-13
3.84677e-14
1.65474e-14
8.01093e-15
4.23096e-15
2.39131e-15
1.42778e-15
8.92463e-16
5.80308e-16
3.9078e-16
2.71684e-16
1.94597e-16
1.43376e-16
1.08563e-16
8.4415e-17
6.73859e-17
5.52111e-17
4.64262e-17
4.00774e-17
3.5491e-17
3.23058e-17
3.00925e-17
2.89338e-17
2.82448e-17
2.8812e-17
2.9231e-17
3.19327e-17
3.3176e-17
3.93786e-17
4.13534e-17
5.35883e-17
5.9229e-17
7.78773e-17
1.1478e-16
1.0937e-16
3.8283e-16
1.23891e-16
2.37763e-15
1.32549e-14
3.0175e-09
3.97219e-09
8.46071e-10
2.12897e-10
3.88785e-11
2.02072e-11
8.71956e-12
4.70635e-12
4.34162e-12
7.12912e-12
8.16524e-11
5.67889e-12
6.4687e-13
1.6877e-13
6.0965e-14
2.64501e-14
1.29588e-14
6.93672e-15
3.97669e-15
2.41025e-15
1.53119e-15
1.01356e-15
6.96205e-16
4.94721e-16
3.62897e-16
2.74312e-16
2.13428e-16
1.70762e-16
1.40413e-16
1.18635e-16
1.02898e-16
9.17626e-17
8.37973e-17
7.89557e-17
7.56484e-17
7.55762e-17
7.54353e-17
8.0506e-17
8.27398e-17
9.52704e-17
1.00043e-16
1.2383e-16
1.3823e-16
1.70102e-16
2.45477e-16
2.27445e-16
6.82351e-16
3.07256e-16
2.05738e-15
9.37245e-15
2.84613e-09
3.51205e-09
9.07653e-10
2.10308e-10
4.24013e-11
2.17541e-11
9.14571e-12
4.01064e-12
2.5594e-12
2.01584e-12
1.85841e-12
2.22248e-12
4.57933e-12
8.65354e-11
3.45684e-12
4.98898e-13
1.47648e-13
5.84572e-14
2.73103e-14
1.42516e-14
8.06993e-15
4.87445e-15
3.10699e-15
2.07446e-15
1.44339e-15
1.04246e-15
7.79311e-16
6.01672e-16
4.78964e-16
3.92752e-16
3.31248e-16
2.87648e-16
2.56134e-16
2.35436e-16
2.20448e-16
2.14974e-16
2.10311e-16
2.18744e-16
2.21532e-16
2.47171e-16
2.58215e-16
3.0593e-16
3.42509e-16
3.99251e-16
5.62661e-16
5.20453e-16
1.31162e-15
7.2714e-16
1.93559e-15
6.96649e-15
2.67614e-09
3.05636e-09
9.76572e-10
1.99139e-10
4.55848e-11
2.32354e-11
1.04172e-11
4.32732e-12
2.50479e-12
1.70531e-12
1.23229e-12
9.62856e-13
8.43759e-13
8.52848e-13
1.04768e-12
1.80576e-12
7.80792e-12
1.87069e-11
9.76616e-13
2.4142e-13
9.09084e-14
4.21794e-14
2.2299e-14
1.29353e-14
8.061e-15
5.32552e-15
3.69727e-15
2.68072e-15
2.02089e-15
1.57937e-15
1.27575e-15
1.06509e-15
9.14692e-16
8.12631e-16
7.37496e-16
6.97121e-16
6.64062e-16
6.69622e-16
6.64367e-16
7.15776e-16
7.39179e-16
8.38124e-16
9.33491e-16
1.03806e-15
1.41881e-15
1.31879e-15
2.77046e-15
1.72495e-15
2.0585e-15
5.61474e-15
2.4977e-09
2.62131e-09
1.05633e-09
1.8504e-10
4.89133e-11
2.41566e-11
1.18362e-11
4.86169e-12
2.73357e-12
1.80076e-12
1.22666e-12
8.65688e-13
6.4952e-13
5.20777e-13
4.46044e-13
4.10379e-13
4.1119e-13
4.60256e-13
6.05025e-13
1.05034e-12
3.58178e-12
7.63885e-11
1.36514e-12
3.10743e-13
1.18858e-13
5.76249e-14
3.22028e-14
1.98511e-14
1.31787e-14
9.29073e-15
6.88583e-15
5.34121e-15
4.30264e-15
3.61086e-15
3.11559e-15
2.80876e-15
2.56869e-15
2.48168e-15
2.38543e-15
2.46114e-15
2.48687e-15
2.68781e-15
2.94498e-15
3.1309e-15
4.10471e-15
3.81737e-15
6.67478e-15
4.38043e-15
2.62167e-15
5.15663e-15
2.31138e-09
2.22091e-09
1.14159e-09
1.70635e-10
5.28553e-11
2.46513e-11
1.33047e-11
5.46542e-12
3.03209e-12
1.99436e-12
1.34938e-12
9.28728e-13
6.6666e-13
5.0093e-13
3.91825e-13
3.18232e-13
2.68617e-13
2.36251e-13
2.17356e-13
2.10461e-13
2.16536e-13
2.40366e-13
2.95243e-13
4.20431e-13
7.69287e-13
2.48584e-12
7.42202e-11
2.09477e-12
4.58198e-13
1.83814e-13
9.54588e-14
5.76813e-14
3.8527e-14
2.7897e-14
2.13606e-14
1.74024e-14
1.46326e-14
1.30799e-14
1.18244e-14
1.1413e-14
1.10303e-14
1.12008e-14
1.18335e-14
1.19455e-14
1.47577e-14
1.35478e-14
1.9702e-14
1.29824e-14
4.37904e-15
5.80056e-15
2.11948e-09
1.86139e-09
1.22505e-09
1.56964e-10
5.74546e-11
2.48482e-11
1.4849e-11
6.13756e-12
3.36115e-12
2.22049e-12
1.51498e-12
1.04169e-12
7.40343e-13
5.46608e-13
4.1634e-13
3.2561e-13
2.61153e-13
2.14803e-13
1.8126e-13
1.57071e-13
1.40021e-13
1.2874e-13
1.22491e-13
1.21069e-13
1.24887e-13
1.35222e-13
1.5494e-13
1.90203e-13
2.55204e-13
3.88378e-13
7.22584e-13
2.01658e-12
2.13094e-11
8.82454e-12
1.34368e-12
5.28796e-13
2.86272e-13
1.88138e-13
1.36138e-13
1.09407e-13
9.22893e-14
8.23611e-14
7.89941e-14
7.27006e-14
8.11173e-14
7.0861e-14
8.44993e-14
5.30007e-14
1.13649e-14
9.11424e-15
1.92365e-09
1.54319e-09
1.30011e-09
1.44797e-10
6.24653e-11
2.48155e-11
1.64718e-11
6.90413e-12
3.72509e-12
2.46929e-12
1.70462e-12
1.17903e-12
8.38301e-13
6.17515e-13
4.67896e-13
3.62511e-13
2.86556e-13
2.30918e-13
1.89604e-13
1.58618e-13
1.35286e-13
1.17783e-13
1.04844e-13
9.5565e-14
8.9312e-14
8.56626e-14
8.43841e-14
8.54563e-14
8.9051e-14
9.5703e-14
1.0624e-13
1.22446e-13
1.46777e-13
1.85009e-13
2.45608e-13
3.51677e-13
5.46311e-13
9.73901e-13
2.09748e-12
6.77202e-12
3.13733e-11
3.47396e-11
7.04857e-12
3.05067e-12
2.08563e-12
1.32472e-12
1.09229e-12
5.46538e-13
7.58786e-14
2.99418e-14
1.72611e-09
1.26616e-09
1.3611e-09
1.35025e-10
6.74833e-11
2.46221e-11
1.81375e-11
7.78761e-12
4.1343e-12
2.74407e-12
1.91767e-12
1.33697e-12
9.53506e-13
7.03712e-13
5.33953e-13
4.13743e-13
3.26486e-13
2.62045e-13
2.13727e-13
1.77048e-13
1.4899e-13
1.27477e-13
1.11034e-13
9.85652e-14
8.9241e-14
8.24355e-14
7.76805e-14
7.46647e-14
7.31729e-14
7.31618e-14
7.45923e-14
7.77227e-14
8.2621e-14
9.00589e-14
1.00151e-13
1.14744e-13
1.34007e-13
1.62012e-13
1.99746e-13
2.54891e-13
3.34977e-13
4.47851e-13
6.38588e-13
8.80544e-13
1.38101e-12
1.90217e-12
2.89474e-12
3.27055e-12
1.30627e-12
9.6439e-13
1.52964e-09
1.02999e-09
1.40312e-09
1.28594e-10
7.19864e-11
2.43676e-11
1.97849e-11
8.80591e-12
4.59817e-12
3.04931e-12
2.15721e-12
1.51779e-12
1.08663e-12
8.04195e-13
6.12087e-13
4.75675e-13
3.76237e-13
3.0246e-13
2.46855e-13
2.04387e-13
1.71666e-13
1.46366e-13
1.26821e-13
1.11781e-13
1.00279e-13
9.15658e-14
8.5061e-14
8.03539e-14
7.71296e-14
7.52436e-14
7.45408e-14
7.51163e-14
7.68616e-14
8.01765e-14
8.48859e-14
9.18762e-14
1.00823e-13
1.13295e-13
1.291e-13
1.49979e-13
1.78016e-13
2.11126e-13
2.62046e-13
3.10083e-13
3.95979e-13
4.41503e-13
4.79466e-13
3.63014e-13
7.64134e-14
8.62428e-15
1.33717e-09
8.33494e-10
1.42217e-09
1.26398e-10
7.53758e-11
2.41817e-11
2.13372e-11
9.97417e-12
5.12609e-12
3.38918e-12
2.42629e-12
1.7249e-12
1.24043e-12
9.20771e-13
7.03261e-13
5.4855e-13
4.3541e-13
3.51185e-13
2.87493e-13
2.38667e-13
2.00897e-13
1.71572e-13
1.48821e-13
1.31228e-13
1.17684e-13
1.07318e-13
9.9441e-14
9.35607e-14
8.92897e-14
8.64321e-14
8.47833e-14
8.4393e-14
8.51111e-14
8.72472e-14
9.06007e-14
9.58184e-14
1.02617e-13
1.11964e-13
1.23831e-13
1.38774e-13
1.587e-13
1.8058e-13
2.13171e-13
2.41109e-13
2.85286e-13
3.00845e-13
2.90348e-13
2.00623e-13
4.21104e-14
1.36235e-15
1.15167e-09
6.7437e-10
1.41535e-09
1.29231e-10
7.70904e-11
2.42079e-11
2.27106e-11
1.13035e-11
5.7287e-12
3.76807e-12
2.72764e-12
1.96177e-12
1.41823e-12
1.05608e-12
8.0954e-13
6.33979e-13
5.05207e-13
4.09047e-13
3.36119e-13
2.80056e-13
2.36568e-13
2.02726e-13
1.76426e-13
1.5607e-13
1.40386e-13
1.28364e-13
1.19197e-13
1.12299e-13
1.0721e-13
1.03688e-13
1.01492e-13
1.00649e-13
1.00997e-13
1.02812e-13
1.05914e-13
1.10839e-13
1.17404e-13
1.26275e-13
1.37663e-13
1.51532e-13
1.69963e-13
1.89485e-13
2.17306e-13
2.40328e-13
2.71033e-13
2.76947e-13
2.49008e-13
1.64011e-13
3.75698e-14
4.20347e-16
9.7604e-10
5.49287e-10
1.38126e-09
1.37767e-10
7.67479e-11
2.45792e-11
2.38267e-11
1.27976e-11
6.41842e-12
4.19112e-12
3.06393e-12
2.23192e-12
1.62365e-12
1.21314e-12
9.33431e-13
7.34108e-13
5.87478e-13
4.77619e-13
3.94061e-13
3.29654e-13
2.79576e-13
2.40541e-13
2.10191e-13
1.86717e-13
1.68663e-13
1.54859e-13
1.44356e-13
1.36462e-13
1.30632e-13
1.26573e-13
1.24009e-13
1.22953e-13
1.23242e-13
1.25135e-13
1.28494e-13
1.3378e-13
1.40933e-13
1.50402e-13
1.6264e-13
1.772e-13
1.96321e-13
2.16256e-13
2.43032e-13
2.649e-13
2.88485e-13
2.87924e-13
2.47343e-13
1.58799e-13
4.12439e-14
6.69086e-16
8.12989e-10
4.54095e-10
1.32028e-09
1.52523e-10
7.42158e-11
2.53953e-11
2.46246e-11
1.44489e-11
7.20957e-12
4.66439e-12
3.43791e-12
2.53885e-12
1.86062e-12
1.39536e-12
1.07778e-12
8.51427e-13
6.84444e-13
5.58889e-13
4.63091e-13
3.89045e-13
3.31341e-13
2.863e-13
2.51279e-13
2.24235e-13
2.03501e-13
1.87717e-13
1.7577e-13
1.66837e-13
1.60275e-13
1.55731e-13
1.52894e-13
1.51757e-13
1.52172e-13
1.5438e-13
1.58305e-13
1.64343e-13
1.72569e-13
1.83253e-13
1.9706e-13
2.13235e-13
2.3406e-13
2.5565e-13
2.82743e-13
3.04619e-13
3.22871e-13
3.1595e-13
2.63729e-13
1.67899e-13
5.03535e-14
2.39052e-15
6.6482e-10
3.84138e-10
1.23464e-09
1.73729e-10
6.96468e-11
2.67058e-11
2.50732e-11
1.62332e-11
8.11811e-12
5.19497e-12
3.85248e-12
2.88595e-12
2.13337e-12
1.60653e-12
1.24581e-12
9.88771e-13
7.98674e-13
6.55191e-13
5.45335e-13
4.60177e-13
3.9366e-13
3.41675e-13
3.01266e-13
2.7013e-13
2.46356e-13
2.28362e-13
2.14837e-13
2.04803e-13
1.975e-13
1.92499e-13
1.89451e-13
1.88329e-13
1.89005e-13
1.91706e-13
1.96427e-13
2.03508e-13
2.13157e-13
2.25495e-13
2.41348e-13
2.59739e-13
2.82824e-13
3.06698e-13
3.34592e-13
3.5662e-13
3.69837e-13
3.55764e-13
2.92038e-13
1.8704e-13
6.52035e-14
7.40147e-15
5.33254e-10
3.34581e-10
1.12834e-09
2.01105e-10
6.35084e-11
2.84866e-11
2.51824e-11
1.81054e-11
9.16085e-12
5.791e-12
4.3109e-12
3.27643e-12
2.44634e-12
1.85088e-12
1.44112e-12
1.14934e-12
9.33104e-13
7.69234e-13
6.43293e-13
5.45363e-13
4.68694e-13
4.08707e-13
3.62106e-13
3.26299e-13
2.99097e-13
2.78653e-13
2.63423e-13
2.52239e-13
2.44198e-13
2.3878e-13
2.35591e-13
2.34582e-13
2.35649e-13
2.3901e-13
2.44738e-13
2.53124e-13
2.64502e-13
2.7887e-13
2.97147e-13
3.18205e-13
3.43896e-13
3.70363e-13
3.9913e-13
4.20922e-13
4.28778e-13
4.0645e-13
3.31052e-13
2.15855e-13
8.73372e-14
1.85506e-14
4.19302e-10
3.00645e-10
1.00697e-09
2.33573e-10
5.65627e-11
3.0609e-11
2.50081e-11
1.99984e-11
1.03538e-11
6.46171e-12
4.81688e-12
3.71313e-12
2.80404e-12
2.13302e-12
1.66774e-12
1.33673e-12
1.09106e-12
9.04132e-13
7.59869e-13
6.47324e-13
5.59007e-13
4.89841e-13
4.36164e-13
3.95064e-13
3.64032e-13
3.40913e-13
3.23882e-13
3.11537e-13
3.02804e-13
2.97048e-13
2.93824e-13
2.93055e-13
2.94669e-13
2.98876e-13
3.05835e-13
3.158e-13
3.29209e-13
3.4597e-13
3.67016e-13
3.9112e-13
4.1966e-13
4.48826e-13
4.78305e-13
4.99156e-13
5.01e-13
4.69222e-13
3.81808e-13
2.55789e-13
1.19231e-13
3.96668e-14
3.23182e-10
2.77792e-10
8.77851e-10
2.68917e-10
4.98031e-11
3.28303e-11
2.4648e-11
2.18271e-11
1.17096e-11
7.21739e-12
5.37479e-12
4.19852e-12
3.21085e-12
2.45787e-12
1.93011e-12
1.55492e-12
1.2763e-12
1.06343e-12
8.9842e-13
7.69234e-13
6.67624e-13
5.8799e-13
5.26282e-13
4.79237e-13
4.43985e-13
4.18006e-13
3.99135e-13
3.85687e-13
3.76377e-13
3.70429e-13
3.67335e-13
3.66984e-13
3.69343e-13
3.74623e-13
3.8307e-13
3.94914e-13
4.10676e-13
4.30203e-13
4.54354e-13
4.81833e-13
5.13395e-13
5.45211e-13
5.75072e-13
5.94058e-13
5.89025e-13
5.46599e-13
4.46702e-13
3.09484e-13
1.64296e-13
7.55712e-14
2.44233e-10
2.62058e-10
7.4971e-10
3.03659e-10
4.42826e-11
3.48325e-11
2.42276e-11
2.34955e-11
1.32338e-11
8.06952e-12
5.98981e-12
4.73472e-12
3.67084e-12
2.83062e-12
2.23304e-12
1.80829e-12
1.49295e-12
1.25114e-12
1.06279e-12
9.14769e-13
7.98081e-13
7.0659e-13
6.35845e-13
5.82202e-13
5.42379e-13
5.13428e-13
4.92777e-13
4.78389e-13
4.68722e-13
4.62823e-13
4.60109e-13
4.60429e-13
4.63793e-13
4.70424e-13
4.80655e-13
4.94715e-13
5.13177e-13
5.35848e-13
5.63433e-13
5.94568e-13
6.29252e-13
6.63515e-13
6.93256e-13
7.09281e-13
6.96332e-13
6.42092e-13
5.29188e-13
3.8061e-13
2.26947e-13
1.32081e-13
1.81064e-10
2.50194e-10
6.29825e-10
3.33677e-10
4.08228e-11
3.62722e-11
2.38801e-11
2.49094e-11
1.49195e-11
9.03039e-12
6.66793e-12
5.32357e-12
4.18745e-12
3.25648e-12
2.58171e-12
2.10159e-12
1.74558e-12
1.47172e-12
1.25732e-12
1.08815e-12
9.54479e-13
8.49671e-13
7.68862e-13
7.08001e-13
6.63341e-13
6.31429e-13
6.092e-13
5.94191e-13
5.84537e-13
5.79065e-13
5.77097e-13
5.78438e-13
5.83146e-13
5.91469e-13
6.03829e-13
6.20473e-13
6.41998e-13
6.68187e-13
6.99513e-13
7.34506e-13
7.7231e-13
8.08646e-13
8.37579e-13
8.49384e-13
8.2733e-13
7.60151e-13
6.3373e-13
4.7389e-13
3.12689e-13
2.15971e-13
1.31857e-10
2.39394e-10
5.21964e-10
3.55333e-10
3.98714e-11
3.68368e-11
2.37189e-11
2.59948e-11
1.67417e-11
1.01123e-11
7.41583e-12
5.96673e-12
4.76324e-12
3.74045e-12
2.98151e-12
2.43989e-12
2.03909e-12
1.73006e-12
1.48687e-12
1.29415e-12
1.14153e-12
1.02191e-12
9.30036e-13
8.61423e-13
8.11803e-13
7.77126e-13
7.53737e-13
7.38641e-13
7.29575e-13
7.25096e-13
7.24398e-13
7.2724e-13
7.33729e-13
7.44158e-13
7.5904e-13
7.78662e-13
8.03617e-13
8.33669e-13
8.68985e-13
9.0793e-13
9.48705e-13
9.86537e-13
1.01375e-12
1.01992e-12
9.87429e-13
9.06242e-13
7.65877e-13
5.95179e-13
4.28165e-13
3.34883e-13
9.45152e-11
2.27435e-10
4.27651e-10
3.6626e-10
4.16017e-11
3.63575e-11
2.381e-11
2.67156e-11
1.86551e-11
1.13264e-11
8.24076e-12
6.66605e-12
5.39981e-12
4.28708e-12
3.43796e-12
2.82854e-12
2.37874e-12
2.03148e-12
1.75683e-12
1.53814e-12
1.36459e-12
1.22869e-12
1.12484e-12
1.0481e-12
9.93613e-13
9.5664e-13
9.32801e-13
9.18454e-13
9.10835e-13
9.08161e-13
9.09465e-13
9.1445e-13
9.23279e-13
9.36311e-13
9.54154e-13
9.77159e-13
1.00589e-12
1.04009e-12
1.07954e-12
1.12237e-12
1.16577e-12
1.20428e-12
1.22861e-12
1.22755e-12
1.18318e-12
1.08697e-12
9.32375e-13
7.51557e-13
5.81165e-13
4.97148e-13
6.68424e-11
2.13033e-10
3.47456e-10
3.6558e-10
4.60183e-11
3.49056e-11
2.41555e-11
2.70825e-11
2.05941e-11
1.26809e-11
9.15048e-12
7.42387e-12
6.0978e-12
4.9002e-12
3.95658e-12
3.27314e-12
2.77005e-12
2.38168e-12
2.07306e-12
1.82611e-12
1.6297e-12
1.47615e-12
1.35958e-12
1.27458e-12
1.21566e-12
1.17723e-12
1.15406e-12
1.14169e-12
1.13675e-12
1.13702e-12
1.14133e-12
1.1493e-12
1.16118e-12
1.1774e-12
1.19868e-12
1.22546e-12
1.25826e-12
1.29677e-12
1.34036e-12
1.3868e-12
1.4322e-12
1.47029e-12
1.49027e-12
1.48022e-12
1.42242e-12
1.31024e-12
1.14129e-12
9.514e-13
7.80574e-13
7.11573e-13
4.67658e-11
1.95811e-10
2.81112e-10
3.53795e-10
5.29175e-11
3.27711e-11
2.4693e-11
2.71501e-11
2.24783e-11
1.4178e-11
1.01529e-11
8.24324e-12
6.85705e-12
5.58263e-12
4.54263e-12
3.77942e-12
3.21883e-12
2.78671e-12
2.44193e-12
2.16463e-12
1.94361e-12
1.77125e-12
1.64148e-12
1.54847e-12
1.48596e-12
1.44743e-12
1.42657e-12
1.41796e-12
1.41741e-12
1.42218e-12
1.43082e-12
1.4429e-12
1.45869e-12
1.47878e-12
1.50401e-12
1.53491e-12
1.57196e-12
1.61479e-12
1.66228e-12
1.71174e-12
1.75821e-12
1.79443e-12
1.80829e-12
1.7873e-12
1.71443e-12
1.58536e-12
1.40209e-12
1.2044e-12
1.03625e-12
9.87172e-13
3.24659e-11
1.76104e-10
2.27554e-10
3.32568e-10
6.17799e-11
3.03737e-11
2.53065e-11
2.70065e-11
2.42209e-11
1.58102e-11
1.12558e-11
9.12798e-12
7.67691e-12
6.33598e-12
5.20093e-12
4.35321e-12
3.73108e-12
3.2529e-12
2.87024e-12
2.56089e-12
2.31382e-12
2.12179e-12
1.97875e-12
1.87845e-12
1.81383e-12
1.77721e-12
1.76101e-12
1.75857e-12
1.76474e-12
1.77609e-12
1.79083e-12
1.80842e-12
1.8292e-12
1.85394e-12
1.88361e-12
1.91889e-12
1.96022e-12
2.00711e-12
2.05796e-12
2.10951e-12
2.15569e-12
2.1882e-12
2.19382e-12
2.15973e-12
2.07005e-12
1.9232e-12
1.72573e-12
1.52153e-12
1.35885e-12
1.33292e-12
2.24328e-11
1.5479e-10
1.85132e-10
3.04356e-10
7.17371e-11
2.81693e-11
2.58493e-11
2.6755e-11
2.5743e-11
1.75565e-11
1.24656e-11
1.00826e-11
8.55669e-12
7.16052e-12
5.93556e-12
5.00025e-12
4.31298e-12
3.78687e-12
3.36518e-12
3.02265e-12
2.74854e-12
2.53645e-12
2.38061e-12
2.27444e-12
2.20994e-12
2.1781e-12
2.16977e-12
2.17679e-12
2.19277e-12
2.21344e-12
2.23654e-12
2.26141e-12
2.28849e-12
2.31873e-12
2.35329e-12
2.39307e-12
2.43844e-12
2.48881e-12
2.54207e-12
2.59431e-12
2.63835e-12
2.66487e-12
2.65974e-12
2.61016e-12
2.50181e-12
2.33625e-12
2.12463e-12
1.91495e-12
1.75964e-12
1.75756e-12
1.54668e-11
1.33098e-10
1.5191e-10
2.71951e-10
8.16542e-11
2.65686e-11
2.61863e-11
2.64923e-11
2.69877e-11
1.93808e-11
1.37869e-11
1.11122e-11
9.49612e-12
8.05537e-12
6.74962e-12
5.72607e-12
4.9708e-12
4.39543e-12
3.93433e-12
3.55821e-12
3.25672e-12
3.02481e-12
2.85739e-12
2.7476e-12
2.68645e-12
2.66331e-12
2.66716e-12
2.68797e-12
2.71779e-12
2.75129e-12
2.78564e-12
2.81999e-12
2.85488e-12
2.89155e-12
2.93139e-12
2.97553e-12
3.02438e-12
3.07721e-12
3.1314e-12
3.18236e-12
3.22185e-12
3.23959e-12
3.22081e-12
3.15307e-12
3.024e-12
2.83864e-12
2.61265e-12
2.39789e-12
2.2503e-12
2.2695e-12
1.06606e-11
1.12174e-10
1.25957e-10
2.38124e-10
9.03171e-11
2.58689e-11
2.62414e-11
2.62913e-11
2.79305e-11
2.12326e-11
1.5221e-11
1.2222e-11
1.04959e-11
9.01882e-12
7.64511e-12
6.5359e-12
5.71097e-12
5.08566e-12
4.5856e-12
4.17644e-12
3.8481e-12
3.59745e-12
3.42055e-12
3.31049e-12
3.25713e-12
3.24793e-12
3.26959e-12
3.30976e-12
3.3586e-12
3.40938e-12
3.45856e-12
3.50505e-12
3.54956e-12
3.5936e-12
3.63894e-12
3.68701e-12
3.7383e-12
3.792e-12
3.84502e-12
3.89207e-12
3.92393e-12
3.92953e-12
3.8937e-12
3.80481e-12
3.65273e-12
3.44617e-12
3.20504e-12
2.98451e-12
2.8428e-12
2.87691e-12
7.35984e-12
9.2732e-11
1.05528e-10
2.05247e-10
9.67048e-11
2.62001e-11
2.60173e-11
2.61876e-11
2.85829e-11
2.30515e-11
1.67632e-11
1.34174e-11
1.1558e-11
1.00488e-11
8.62287e-12
7.43439e-12
6.53994e-12
5.86486e-12
5.32726e-12
4.88672e-12
4.53313e-12
4.26586e-12
4.08276e-12
3.97708e-12
3.93741e-12
3.94899e-12
3.99567e-12
4.06231e-12
4.13664e-12
4.21025e-12
4.27865e-12
4.3405e-12
4.39663e-12
4.44899e-12
4.49982e-12
4.55094e-12
4.60305e-12
4.65535e-12
4.7043e-12
4.74403e-12
4.76445e-12
4.75391e-12
4.69713e-12
4.5837e-12
4.4059e-12
4.17619e-12
3.91828e-12
3.68974e-12
3.54933e-12
3.58793e-12
5.09698e-12
7.52306e-11
8.91529e-11
1.74868e-10
1.00203e-10
2.75234e-11
2.55921e-11
2.61765e-11
2.89869e-11
2.47747e-11
1.84012e-11
1.47024e-11
1.26852e-11
1.11435e-11
9.68254e-12
8.4255e-12
7.46411e-12
6.74057e-12
6.1679e-12
5.69892e-12
5.32303e-12
5.04257e-12
4.85792e-12
4.76284e-12
4.74455e-12
4.78558e-12
4.86639e-12
4.96834e-12
5.07619e-12
5.17943e-12
5.27237e-12
5.35332e-12
5.42333e-12
5.48488e-12
5.54082e-12
5.59357e-12
5.64417e-12
5.69192e-12
5.73302e-12
5.76113e-12
5.76547e-12
5.73406e-12
5.65184e-12
5.50993e-12
5.30314e-12
5.04759e-12
4.76997e-12
4.52922e-12
4.3824e-12
4.41104e-12
3.54184e-12
6.00073e-11
7.5696e-11
1.4775e-10
1.00658e-10
2.96641e-11
2.51007e-11
2.62259e-11
2.92045e-11
2.63467e-11
2.01135e-11
1.60797e-11
1.38815e-11
1.23019e-11
1.08229e-11
9.51228e-12
8.48972e-12
7.72053e-12
7.11645e-12
6.62342e-12
6.2297e-12
5.94106e-12
5.76118e-12
5.68478e-12
5.69761e-12
5.77897e-12
5.90516e-12
6.0533e-12
6.20446e-12
6.3455e-12
6.4693e-12
6.57371e-12
6.66004e-12
6.73148e-12
6.79171e-12
6.84394e-12
6.88979e-12
6.92888e-12
6.95732e-12
6.96849e-12
6.95116e-12
6.89336e-12
6.78049e-12
6.60553e-12
6.36572e-12
6.08057e-12
5.77874e-12
5.51924e-12
5.35503e-12
5.35565e-12
2.46888e-12
4.71861e-11
6.43515e-11
1.24167e-10
9.83284e-11
3.23422e-11
2.46958e-11
2.62966e-11
2.9304e-11
2.77278e-11
2.18695e-11
1.75487e-11
1.51511e-11
1.35239e-11
1.20421e-11
1.06968e-11
9.62265e-12
8.81266e-12
8.18217e-12
7.67101e-12
7.26576e-12
6.97579e-12
6.80894e-12
6.76145e-12
6.8175e-12
6.95255e-12
7.13788e-12
7.34535e-12
7.55157e-12
7.74016e-12
7.90218e-12
8.03498e-12
8.14023e-12
8.222e-12
8.28509e-12
8.3338e-12
8.37063e-12
8.39577e-12
8.40555e-12
8.39334e-12
8.34775e-12
8.25712e-12
8.10759e-12
7.89418e-12
7.61634e-12
7.29651e-12
6.96407e-12
6.67677e-12
6.48102e-12
6.43266e-12
1.72545e-12
3.66788e-11
5.45897e-11
1.04063e-10
9.37536e-11
3.5212e-11
2.45089e-11
2.6359e-11
2.93472e-11
2.88997e-11
2.36314e-11
1.91053e-11
1.64981e-11
1.4811e-11
1.33385e-11
1.19801e-11
1.08683e-11
1.0025e-11
9.37466e-12
8.85296e-12
8.44441e-12
8.16211e-12
8.01884e-12
8.01295e-12
8.12701e-12
8.33194e-12
8.5929e-12
8.87541e-12
9.15058e-12
9.39809e-12
9.60684e-12
9.77353e-12
9.90033e-12
9.99248e-12
1.00562e-11
1.00974e-11
1.01197e-11
1.01243e-11
1.01081e-11
1.00648e-11
9.98326e-12
9.85238e-12
9.65922e-12
9.40097e-12
9.07888e-12
8.71774e-12
8.34623e-12
8.01955e-12
7.77533e-12
7.6551e-12
1.20816e-12
2.82573e-11
4.60856e-11
8.7162e-11
8.75977e-11
3.79206e-11
2.46238e-11
2.64041e-11
2.93806e-11
2.98662e-11
2.53587e-11
2.07402e-11
1.79259e-11
1.61661e-11
1.47108e-11
1.33625e-11
1.22315e-11
1.13655e-11
1.07039e-11
1.0181e-11
9.77952e-12
9.51627e-12
9.40966e-12
9.46084e-12
9.6507e-12
9.94481e-12
1.0301e-11
1.0677e-11
1.10373e-11
1.13568e-11
1.16219e-11
1.18285e-11
1.19794e-11
1.20815e-11
1.21428e-11
1.21711e-11
1.21721e-11
1.21481e-11
1.20972e-11
1.20138e-11
1.18873e-11
1.17075e-11
1.14627e-11
1.11521e-11
1.07781e-11
1.03673e-11
9.9461e-12
9.56616e-12
9.25444e-12
9.03866e-12
8.4689e-13
2.16249e-11
3.86508e-11
7.30672e-11
8.05146e-11
4.01667e-11
2.50652e-11
2.64463e-11
2.94336e-11
3.06504e-11
2.70131e-11
2.24388e-11
1.94363e-11
1.75928e-11
1.61587e-11
1.48439e-11
1.37162e-11
1.28421e-11
1.21801e-11
1.16672e-11
1.12855e-11
1.10553e-11
1.10013e-11
1.11281e-11
1.14148e-11
1.18208e-11
1.2295e-11
1.27859e-11
1.325e-11
1.36565e-11
1.39886e-11
1.42415e-11
1.4419e-11
1.45297e-11
1.45844e-11
1.45932e-11
1.45643e-11
1.45021e-11
1.44062e-11
1.42722e-11
1.40904e-11
1.3852e-11
1.35463e-11
1.31743e-11
1.27393e-11
1.22687e-11
1.17852e-11
1.13362e-11
1.09367e-11
1.06022e-11
5.93901e-13
1.64719e-11
3.21725e-11
6.13478e-11
7.30661e-11
4.17433e-11
2.58008e-11
2.65186e-11
2.95208e-11
3.12877e-11
2.85642e-11
2.41813e-11
2.10287e-11
1.90953e-11
1.76835e-11
1.64239e-11
1.53257e-11
1.44624e-11
1.38136e-11
1.33242e-11
1.29771e-11
1.27968e-11
1.28146e-11
1.30389e-11
1.34472e-11
1.39913e-11
1.46098e-11
1.52401e-11
1.58291e-11
1.63391e-11
1.675e-11
1.70559e-11
1.72619e-11
1.73793e-11
1.74217e-11
1.7403e-11
1.73341e-11
1.72223e-11
1.70694e-11
1.68726e-11
1.66238e-11
1.63156e-11
1.59383e-11
1.54947e-11
1.49879e-11
1.44454e-11
1.38852e-11
1.33501e-11
1.28423e-11
1.23677e-11
4.16435e-13
1.25087e-11
2.65726e-11
5.15957e-11
6.56775e-11
4.2555e-11
2.67519e-11
2.66599e-11
2.96481e-11
3.18186e-11
2.99931e-11
2.59443e-11
2.26995e-11
2.06776e-11
1.92873e-11
1.81025e-11
1.70626e-11
1.62333e-11
1.5615e-11
1.51647e-11
1.48697e-11
1.47591e-11
1.48711e-11
1.52185e-11
1.57766e-11
1.64891e-11
1.72818e-11
1.80791e-11
1.88164e-11
1.94483e-11
1.99504e-11
2.03161e-11
2.05522e-11
2.0673e-11
2.06963e-11
2.064e-11
2.05192e-11
2.03446e-11
2.01208e-11
1.98477e-11
1.95186e-11
1.91278e-11
1.86668e-11
1.81396e-11
1.75486e-11
1.69207e-11
1.62682e-11
1.56292e-11
1.49935e-11
1.43603e-11
2.91868e-13
9.4823e-12
2.17857e-11
4.34555e-11
5.86297e-11
4.26095e-11
2.78094e-11
2.69e-11
2.98178e-11
3.22818e-11
3.1294e-11
2.77026e-11
2.44415e-11
2.23426e-11
2.09735e-11
1.98804e-11
1.89287e-11
1.81613e-11
1.75943e-11
1.72017e-11
1.69786e-11
1.69605e-11
1.71927e-11
1.76925e-11
1.8433e-11
1.93477e-11
2.03482e-11
2.1343e-11
2.22545e-11
2.30281e-11
2.36346e-11
2.40668e-11
2.43337e-11
2.44534e-11
2.4449e-11
2.43434e-11
2.41566e-11
2.3904e-11
2.35939e-11
2.32289e-11
2.28046e-11
2.23171e-11
2.17587e-11
2.11344e-11
2.04452e-11
1.97169e-11
1.89556e-11
1.81953e-11
1.7414e-11
1.66079e-11
2.0448e-13
7.18052e-12
1.77482e-11
3.66349e-11
5.20851e-11
4.19885e-11
2.88561e-11
2.72516e-11
3.00328e-11
3.27107e-11
3.24731e-11
2.94329e-11
2.62441e-11
2.40915e-11
2.2746e-11
2.17588e-11
2.09259e-11
2.02516e-11
1.97613e-11
1.9448e-11
1.93193e-11
1.94195e-11
1.98015e-11
2.04872e-11
2.14463e-11
2.26012e-11
2.38464e-11
2.50723e-11
2.61859e-11
2.7122e-11
2.78465e-11
2.83516e-11
2.86488e-11
2.87617e-11
2.87191e-11
2.85504e-11
2.82818e-11
2.79341e-11
2.752e-11
2.70459e-11
2.65098e-11
2.59097e-11
2.52386e-11
2.45022e-11
2.36995e-11
2.28549e-11
2.1968e-11
2.107e-11
2.01281e-11
1.91397e-11
1.43256e-13
5.43303e-12
1.43854e-11
3.09008e-11
4.61215e-11
4.08156e-11
2.97873e-11
2.77092e-11
3.02987e-11
3.31318e-11
3.3546e-11
3.11162e-11
2.80939e-11
2.59235e-11
2.46087e-11
2.37402e-11
2.30555e-11