/*--------------------------------*- C++ -*----------------------------------*\
  =========                 |
  \\      /  F ield         | OpenFOAM: The Open Source CFD Toolbox
   \\    /   O peration     | Website:  https://openfoam.org
    \\  /    A nd           | Version:  7
     \\/     M anipulation  |
\*---------------------------------------------------------------------------*/
FoamFile
{
    version     2.0;
    format      ascii;
    class       volScalarField;
    location    "0.08";
    object      p;
}
// * * * * * * * * * * * * * * * * * * * * * * * * * * * * * * * * * * * * * //

dimensions      [0 2 -2 0 0 0 0];

internalField   nonuniform List<scalar> 
70000
(
0.129856
0.0524032
0.0398875
0.0423403
0.0425214
0.0414791
0.0405582
0.0398707
0.0393063
0.0388174
0.0383907
0.0380185
0.0376931
0.037408
0.0371577
0.0369376
0.0367443
0.0365744
0.0364256
0.0362956
0.0361827
0.0360854
0.0360024
0.0359328
0.0358757
0.0358306
0.0357968
0.0357741
0.0357623
0.0357613
0.0357711
0.0357919
0.0358239
0.0358675
0.0359234
0.0359921
0.0360747
0.0361723
0.0362861
0.0364187
0.0365705
0.0367487
0.0369478
0.0371912
0.0374496
0.0377981
0.0381244
0.0386763
0.0390396
0.040098
0.125488
0.0527701
0.0400904
0.0424359
0.0425759
0.0415151
0.0405863
0.0398939
0.0393258
0.038834
0.0384052
0.0380312
0.0377045
0.0374182
0.037167
0.0369462
0.0367521
0.0365817
0.0364324
0.0363019
0.0361886
0.0360909
0.0360077
0.0359378
0.0358804
0.035835
0.035801
0.0357782
0.0357662
0.035765
0.0357746
0.0357952
0.0358271
0.0358706
0.0359263
0.0359949
0.0360774
0.0361747
0.0362885
0.0364209
0.0365725
0.0367506
0.0369495
0.0371927
0.0374509
0.0377992
0.0381253
0.0386757
0.0390443
0.0401286
0.121907
0.05371
0.0404308
0.042565
0.0426502
0.0415598
0.0406186
0.03992
0.0393475
0.0388524
0.038421
0.0380451
0.0377168
0.0374293
0.037177
0.0369553
0.0367605
0.0365894
0.0364395
0.0363086
0.0361949
0.0360968
0.0360132
0.035943
0.0358854
0.0358397
0.0358055
0.0357824
0.0357702
0.0357688
0.0357783
0.0357987
0.0358305
0.0358737
0.0359293
0.0359977
0.0360801
0.0361773
0.0362908
0.0364231
0.0365745
0.0367524
0.036951
0.0371941
0.0374517
0.0377998
0.0381254
0.0386735
0.0390608
0.0401447
0.118813
0.0548118
0.0409003
0.042739
0.0427511
0.0416174
0.0406568
0.03995
0.0393721
0.0388728
0.0384384
0.0380602
0.0377301
0.0374411
0.0371876
0.036965
0.0367693
0.0365976
0.0364471
0.0363156
0.0362014
0.0361029
0.0360189
0.0359484
0.0358905
0.0358445
0.0358101
0.0357868
0.0357744
0.0357728
0.0357821
0.0358023
0.0358338
0.0358769
0.0359324
0.0360006
0.0360827
0.0361798
0.0362931
0.0364252
0.0365764
0.036754
0.0369523
0.037195
0.0374522
0.0377995
0.0381254
0.0386685
0.0390866
0.0401468
0.115854
0.0559083
0.0414662
0.0429596
0.0428856
0.0416953
0.0407058
0.0399871
0.0394021
0.0388975
0.038459
0.0380778
0.0377454
0.0374547
0.0371997
0.0369759
0.0367792
0.0366066
0.0364554
0.0363233
0.0362085
0.0361096
0.0360252
0.0359543
0.035896
0.0358498
0.035815
0.0357914
0.0357788
0.035777
0.0357861
0.0358061
0.0358374
0.0358804
0.0359356
0.0360036
0.0360856
0.0361824
0.0362956
0.0364274
0.0365783
0.0367556
0.0369536
0.0371957
0.0374526
0.0377984
0.0381258
0.0386613
0.0391175
0.0401437
0.112945
0.0569472
0.0420814
0.0432067
0.0430479
0.0417951
0.0407683
0.0400335
0.0394395
0.038928
0.0384843
0.0380992
0.0377639
0.0374709
0.0372141
0.0369887
0.0367908
0.0366171
0.036465
0.0363321
0.0362167
0.0361172
0.0360322
0.0359609
0.0359022
0.0358556
0.0358206
0.0357967
0.0357838
0.0357817
0.0357906
0.0358104
0.0358415
0.0358842
0.0359393
0.0360071
0.0360889
0.0361855
0.0362984
0.0364299
0.0365806
0.0367575
0.0369552
0.0371966
0.0374533
0.0377969
0.038127
0.038653
0.0391497
0.0401378
0.11008
0.0579097
0.0427122
0.0434586
0.0432248
0.0419123
0.0408432
0.0400893
0.0394848
0.0389651
0.0385151
0.0381252
0.0377863
0.0374904
0.0372313
0.0370041
0.0368046
0.0366296
0.0364763
0.0363425
0.0362263
0.036126
0.0360405
0.0359686
0.0359094
0.0358624
0.035827
0.0358027
0.0357895
0.0357872
0.0357957
0.0358153
0.0358462
0.0358887
0.0359436
0.0360112
0.0360927
0.0361891
0.0363018
0.0364331
0.0365834
0.03676
0.0369572
0.0371978
0.0374544
0.0377952
0.0381294
0.0386445
0.0391803
0.0401288
0.107265
0.0587877
0.0433426
0.0437036
0.0434052
0.0420401
0.040927
0.0401523
0.0395366
0.0390082
0.0385511
0.0381559
0.0378128
0.0375136
0.0372518
0.0370223
0.036821
0.0366444
0.0364898
0.0363549
0.0362376
0.0361365
0.0360502
0.0359776
0.0359179
0.0358704
0.0358345
0.0358098
0.0357963
0.0357936
0.0358019
0.0358212
0.0358518
0.0358941
0.0359487
0.0360161
0.0360974
0.0361936
0.036306
0.0364371
0.0365871
0.0367633
0.0369602
0.0371998
0.0374565
0.037794
0.0381332
0.0386368
0.0392068
0.0401163
0.104507
0.0595785
0.0439675
0.0439376
0.0435832
0.0421739
0.0410164
0.0402198
0.0395929
0.0390558
0.0385914
0.0381905
0.0378429
0.0375402
0.0372754
0.0370435
0.03684
0.0366617
0.0365055
0.0363693
0.0362509
0.0361488
0.0360616
0.0359882
0.0359278
0.0358797
0.0358433
0.0358182
0.0358042
0.0358011
0.0358091
0.0358281
0.0358585
0.0359005
0.0359549
0.0360221
0.0361032
0.0361992
0.0363113
0.0364422
0.0365918
0.0367676
0.0369642
0.0372027
0.0374599
0.0377935
0.0381385
0.0386307
0.0392272
0.0400993
0.101809
0.0602818
0.0445856
0.0441603
0.0437558
0.0423109
0.0411094
0.04029
0.039652
0.0391063
0.0386346
0.0382279
0.0378759
0.0375694
0.0373016
0.0370671
0.0368614
0.0366811
0.0365234
0.0363856
0.036266
0.0361628
0.0360746
0.0360004
0.0359393
0.0358904
0.0358534
0.0358278
0.0358134
0.0358099
0.0358175
0.0358362
0.0358663
0.0359081
0.0359622
0.0360292
0.0361101
0.0362059
0.0363178
0.0364485
0.0365979
0.0367732
0.0369696
0.0372069
0.0374646
0.0377941
0.038145
0.0386266
0.0392403
0.0400768
0.0991758
0.060898
0.0451963
0.0443725
0.0439214
0.0424495
0.0412049
0.0403617
0.0397125
0.0391585
0.0386797
0.0382673
0.0379107
0.0376006
0.0373297
0.0370925
0.0368846
0.0367024
0.0365429
0.0364037
0.0362827
0.0361783
0.0360891
0.036014
0.0359521
0.0359026
0.0358649
0.0358388
0.0358238
0.03582
0.0358272
0.0358455
0.0358753
0.0359169
0.0359708
0.0360376
0.0361182
0.0362139
0.0363256
0.036456
0.0366052
0.0367802
0.0369764
0.0372124
0.0374709
0.0377962
0.0381525
0.0386243
0.0392457
0.0400476
0.0966091
0.0614275
0.045798
0.0445753
0.0440793
0.0425889
0.0413025
0.0404344
0.0397739
0.0392118
0.038726
0.0383079
0.0379468
0.037633
0.0373591
0.0371193
0.0369092
0.036725
0.0365638
0.0364231
0.0363007
0.0361952
0.0361049
0.0360289
0.0359661
0.0359159
0.0358776
0.0358509
0.0358354
0.0358311
0.0358379
0.035856
0.0358855
0.0359268
0.0359804
0.0360471
0.0361275
0.0362231
0.0363346
0.0364648
0.0366138
0.0367883
0.0369845
0.037219
0.0374784
0.0377995
0.0381604
0.0386234
0.0392432
0.040011
0.0941119
0.0618707
0.0463888
0.0447698
0.0442288
0.0427284
0.041402
0.040508
0.0398359
0.0392659
0.0387731
0.0383493
0.0379837
0.0376663
0.0373894
0.037147
0.0369347
0.0367485
0.0365856
0.0364434
0.0363197
0.036213
0.0361217
0.0360447
0.0359811
0.0359301
0.0358912
0.0358639
0.0358479
0.0358432
0.0358496
0.0358673
0.0358966
0.0359376
0.0359911
0.0360575
0.0361378
0.0362332
0.0363446
0.0364747
0.0366235
0.0367976
0.0369937
0.0372268
0.0374869
0.0378041
0.038168
0.0386229
0.0392334
0.0399665
0.0916868
0.0622285
0.0469662
0.0449574
0.0443692
0.042867
0.0415035
0.0405824
0.0398984
0.0393206
0.0388209
0.0383913
0.0380213
0.0377003
0.0374203
0.0371754
0.0369608
0.0367727
0.0366081
0.0364643
0.0363394
0.0362314
0.0361391
0.0360612
0.0359968
0.035945
0.0359055
0.0358776
0.0358612
0.035856
0.035862
0.0358794
0.0359084
0.0359492
0.0360024
0.0360688
0.0361489
0.0362442
0.0363554
0.0364853
0.036634
0.0368076
0.0370037
0.0372353
0.0374959
0.0378094
0.0381748
0.038622
0.0392168
0.0399145
0.089336
0.0625021
0.0475273
0.0451396
0.0445003
0.0430038
0.0416066
0.0406577
0.0399611
0.0393757
0.0388693
0.038434
0.0380594
0.0377348
0.0374518
0.0372042
0.0369874
0.0367974
0.036631
0.0364858
0.0363595
0.0362504
0.036157
0.0360782
0.0360129
0.0359605
0.0359202
0.0358918
0.0358749
0.0358693
0.035875
0.035892
0.0359207
0.0359613
0.0360144
0.0360805
0.0361605
0.0362557
0.0363668
0.0364965
0.0366451
0.0368181
0.0370141
0.0372442
0.037505
0.037815
0.03818
0.0386195
0.0391942
0.0398555
0.0870616
0.0626934
0.048069
0.0453179
0.0446217
0.043138
0.0417112
0.0407337
0.0400242
0.0394313
0.0389182
0.0384772
0.038098
0.0377697
0.0374836
0.0372335
0.0370144
0.0368224
0.0366544
0.0365076
0.03638
0.0362697
0.0361753
0.0360955
0.0360294
0.0359762
0.0359354
0.0359064
0.035889
0.0358829
0.0358882
0.035905
0.0359334
0.0359738
0.0360266
0.0360926
0.0361725
0.0362675
0.0363784
0.0365079
0.0366563
0.0368287
0.0370245
0.0372531
0.0375136
0.0378203
0.0381832
0.0386145
0.0391662
0.0397905
0.0848653
0.0628042
0.0485881
0.0454938
0.0447335
0.0432684
0.041817
0.0408107
0.0400874
0.0394873
0.0389676
0.0385208
0.0381371
0.0378051
0.037516
0.0372632
0.0370418
0.0368479
0.0366781
0.0365298
0.0364008
0.0362893
0.0361938
0.0361131
0.0360462
0.0359923
0.0359508
0.0359212
0.0359033
0.0358968
0.0359017
0.0359181
0.0359463
0.0359864
0.036039
0.0361049
0.0361845
0.0362794
0.0363902
0.0365194
0.0366675
0.0368393
0.0370347
0.0372617
0.0375215
0.0378247
0.0381841
0.0386065
0.0391336
0.0397208
0.0827483
0.062837
0.0490818
0.0456684
0.0448357
0.0433942
0.0419237
0.0408885
0.0401507
0.0395434
0.0390175
0.038565
0.0381766
0.0378409
0.0375487
0.0372933
0.0370696
0.0368737
0.0367022
0.0365523
0.036422
0.0363093
0.0362127
0.036131
0.0360632
0.0360086
0.0359664
0.0359362
0.0359178
0.0359108
0.0359154
0.0359315
0.0359593
0.0359991
0.0360515
0.0361172
0.0361966
0.0362913
0.0364018
0.0365307
0.0366785
0.0368495
0.0370444
0.0372697
0.0375282
0.037828
0.0381823
0.038595
0.0390969
0.0396475
0.0807114
0.0627948
0.0495471
0.0458426
0.0449286
0.0435142
0.0420307
0.0409672
0.0402142
0.0395997
0.0390678
0.0386096
0.0382165
0.0378771
0.0375818
0.0373237
0.0370978
0.0368998
0.0367265
0.0365751
0.0364434
0.0363295
0.0362318
0.0361491
0.0360805
0.036025
0.0359822
0.0359514
0.0359324
0.035925
0.0359291
0.0359448
0.0359723
0.0360119
0.0360641
0.0361294
0.0362087
0.036303
0.0364133
0.0365417
0.0366892
0.0368593
0.0370534
0.0372769
0.0375336
0.0378297
0.0381778
0.0385799
0.0390567
0.0395716
0.078755
0.062681
0.0499811
0.0460169
0.0450126
0.0436277
0.0421376
0.0410467
0.0402776
0.0396561
0.0391184
0.0386547
0.0382569
0.0379137
0.0376152
0.0373545
0.0371263
0.0369263
0.0367512
0.0365982
0.0364651
0.0363499
0.0362511
0.0361675
0.0360979
0.0360417
0.0359981
0.0359667
0.0359472
0.0359393
0.035943
0.0359583
0.0359854
0.0360247
0.0360765
0.0361416
0.0362205
0.0363146
0.0364245
0.0365524
0.0366993
0.0368684
0.0370616
0.0372831
0.0375375
0.0378295
0.0381705
0.0385611
0.0390134
0.039494
0.0768792
0.0624997
0.0503813
0.0461915
0.0450883
0.0437336
0.0422438
0.0411269
0.0403411
0.0397123
0.0391692
0.0387001
0.0382976
0.0379506
0.0376491
0.0373857
0.0371551
0.0369531
0.0367762
0.0366216
0.0364871
0.0363706
0.0362707
0.036186
0.0361156
0.0360585
0.0360142
0.0359822
0.0359621
0.0359537
0.0359569
0.0359718
0.0359985
0.0360374
0.0360889
0.0361537
0.0362323
0.0363259
0.0364354
0.0365626
0.0367089
0.0368769
0.0370688
0.0372882
0.0375398
0.0378274
0.0381605
0.0385388
0.0389673
0.0394154
0.0750833
0.0622551
0.0507451
0.0463664
0.0451564
0.0438315
0.0423484
0.0412078
0.0404045
0.0397684
0.0392202
0.0387458
0.0383386
0.0379878
0.0376832
0.0374171
0.0371842
0.0369801
0.0368015
0.0366453
0.0365093
0.0363915
0.0362905
0.0362048
0.0361334
0.0360755
0.0360305
0.0359978
0.0359771
0.0359681
0.0359708
0.0359853
0.0360116
0.0360501
0.0361012
0.0361655
0.0362437
0.0363369
0.0364459
0.0365724
0.0367179
0.0368846
0.037075
0.0372922
0.0375404
0.0378231
0.0381477
0.0385132
0.0389188
0.0393363
0.0733667
0.061952
0.0510703
0.0465409
0.0452179
0.0439206
0.0424508
0.0412892
0.0404679
0.0398241
0.0392711
0.0387917
0.0383799
0.0380254
0.0377176
0.0374489
0.0372136
0.0370075
0.036827
0.0366692
0.0365317
0.0364127
0.0363104
0.0362237
0.0361514
0.0360927
0.0360469
0.0360135
0.0359921
0.0359826
0.0359848
0.0359987
0.0360246
0.0360627
0.0361134
0.0361772
0.036255
0.0363475
0.0364559
0.0365817
0.0367262
0.0368915
0.0370802
0.0372948
0.0375394
0.0378167
0.0381323
0.0384844
0.0388682
0.0392572
0.071728
0.0615953
0.0513549
0.0467141
0.0452735
0.0440007
0.0425501
0.0413709
0.0405312
0.0398795
0.039322
0.0388378
0.0384215
0.0380632
0.0377523
0.0374809
0.0372433
0.0370351
0.0368528
0.0366933
0.0365544
0.036434
0.0363306
0.0362428
0.0361695
0.0361099
0.0360633
0.0360292
0.0360072
0.0359971
0.0359987
0.0360122
0.0360375
0.0360751
0.0361253
0.0361887
0.0362659
0.0363578
0.0364655
0.0365903
0.0367337
0.0368975
0.0370842
0.0372959
0.0375365
0.037808
0.0381142
0.0384527
0.0388157
0.0391784
0.0701657
0.0611905
0.0515972
0.0468848
0.0453243
0.0440716
0.0426454
0.0414524
0.0405945
0.0399344
0.0393727
0.0388841
0.0384633
0.0381012
0.0377872
0.0375132
0.0372733
0.037063
0.0368788
0.0367177
0.0365773
0.0364556
0.036351
0.0362621
0.0361878
0.0361273
0.0360799
0.0360451
0.0360224
0.0360116
0.0360127
0.0360255
0.0360504
0.0360874
0.0361371
0.0361999
0.0362765
0.0363677
0.0364746
0.0365983
0.0367404
0.0369026
0.037087
0.0372956
0.0375317
0.037797
0.0380936
0.0384183
0.0387615
0.0390999
0.0686779
0.0607429
0.051796
0.0470513
0.0453711
0.0441332
0.0427358
0.0415335
0.0406576
0.0399887
0.039423
0.0389303
0.0385052
0.0381393
0.0378223
0.0375457
0.0373034
0.0370911
0.036905
0.0367423
0.0366004
0.0364773
0.0363715
0.0362815
0.0362062
0.0361448
0.0360966
0.0360609
0.0360375
0.0360261
0.0360265
0.0360388
0.0360631
0.0360996
0.0361486
0.0362108
0.0362867
0.0363771
0.036483
0.0366056
0.0367463
0.0369066
0.0370884
0.0372938
0.0375251
0.0377837
0.0380704
0.0383814
0.0387058
0.0390219
0.0672623
0.0602581
0.0519504
0.0472116
0.045415
0.0441857
0.0428206
0.0416136
0.0407206
0.0400424
0.0394728
0.0389764
0.0385472
0.0381776
0.0378576
0.0375783
0.0373337
0.0371193
0.0369314
0.036767
0.0366236
0.0364992
0.0363921
0.036301
0.0362247
0.0361624
0.0361133
0.0360769
0.0360527
0.0360406
0.0360404
0.036052
0.0360756
0.0361115
0.0361599
0.0362214
0.0362965
0.036386
0.0364909
0.0366122
0.0367512
0.0369094
0.0370886
0.0372903
0.0375165
0.0377682
0.0380448
0.0383421
0.0386488
0.0389446
0.0659166
0.0597419
0.0520601
0.0473634
0.0454566
0.0442296
0.042899
0.0416921
0.0407833
0.0400954
0.039522
0.0390223
0.0385892
0.038216
0.0378929
0.0376111
0.0373642
0.0371478
0.036958
0.0367919
0.036647
0.0365212
0.0364129
0.0363206
0.0362433
0.03618
0.03613
0.0360928
0.0360679
0.036055
0.0360541
0.0360651
0.036088
0.0361232
0.0361709
0.0362316
0.0363058
0.0363944
0.036498
0.0366179
0.0367552
0.0369111
0.0370873
0.0372851
0.037506
0.0377503
0.0380169
0.0383008
0.0385907
0.0388678
0.064638
0.0591997
0.0521251
0.0475042
0.0454965
0.0442653
0.0429702
0.0417686
0.0408456
0.0401477
0.0395704
0.0390678
0.0386311
0.0382543
0.0379282
0.0376439
0.0373948
0.0371763
0.0369847
0.0368169
0.0366705
0.0365434
0.0364338
0.0363404
0.036262
0.0361977
0.0361468
0.0361087
0.036083
0.0360693
0.0360677
0.0360779
0.0361002
0.0361346
0.0361815
0.0362413
0.0363146
0.0364021
0.0365045
0.0366228
0.0367581
0.0369115
0.0370845
0.0372781
0.0374934
0.0377302
0.0379866
0.0382574
0.0385314
0.0387915
0.0634238
0.0586369
0.0521461
0.0476316
0.0455352
0.0442935
0.0430338
0.0418422
0.0409073
0.0401992
0.039618
0.0391128
0.0386728
0.0382926
0.0379636
0.0376768
0.0374255
0.0372049
0.0370115
0.0368421
0.0366941
0.0365656
0.0364547
0.0363601
0.0362807
0.0362154
0.0361635
0.0361245
0.036098
0.0360836
0.0360811
0.0360906
0.036112
0.0361456
0.0361917
0.0362506
0.0363229
0.0364091
0.0365101
0.0366267
0.0367598
0.0369106
0.0370802
0.0372694
0.0374788
0.0377078
0.0379542
0.0382122
0.0384712
0.0387157
0.0622709
0.0580585
0.0521242
0.047743
0.0455726
0.0443149
0.0430893
0.0419123
0.0409681
0.0402499
0.0396645
0.0391572
0.0387142
0.0383308
0.0379989
0.0377096
0.0374561
0.0372336
0.0370383
0.0368673
0.0367178
0.0365879
0.0364757
0.0363799
0.0362994
0.036233
0.0361802
0.0361403
0.0361129
0.0360976
0.0360944
0.036103
0.0361236
0.0361564
0.0362015
0.0362594
0.0363305
0.0364154
0.0365148
0.0366295
0.0367604
0.0369084
0.0370743
0.0372588
0.0374621
0.0376833
0.0379195
0.0381652
0.0384101
0.0386403
0.0611764
0.0574693
0.052061
0.0478364
0.0456085
0.0443303
0.0431365
0.0419781
0.0410278
0.0402996
0.03971
0.0392008
0.0387553
0.0383688
0.038034
0.0377423
0.0374867
0.0372623
0.0370652
0.0368925
0.0367415
0.0366102
0.0364967
0.0363997
0.036318
0.0362507
0.0361968
0.036156
0.0361277
0.0361115
0.0361074
0.0361151
0.0361349
0.0361667
0.0362108
0.0362675
0.0363374
0.0364209
0.0365186
0.0366313
0.0367597
0.0369046
0.0370667
0.0372463
0.0374433
0.0376565
0.0378828
0.0381165
0.0383482
0.0385652
0.0601372
0.0568735
0.0519587
0.04791
0.045642
0.0443404
0.0431754
0.0420389
0.0410857
0.0403484
0.0397543
0.0392434
0.0387957
0.0384064
0.0380689
0.0377749
0.0375173
0.0372909
0.0370921
0.0369177
0.0367652
0.0366324
0.0365177
0.0364195
0.0363366
0.0362682
0.0362134
0.0361715
0.0361423
0.0361252
0.0361201
0.036127
0.0361457
0.0361765
0.0362195
0.0362751
0.0363436
0.0364255
0.0365215
0.036632
0.0367577
0.0368993
0.0370573
0.0372318
0.0374224
0.0376276
0.037844
0.0380662
0.0382853
0.0384903
0.0591502
0.056275
0.0518197
0.047962
0.0456723
0.0443457
0.0432061
0.0420941
0.0411416
0.040396
0.0397973
0.0392849
0.0388355
0.0384437
0.0381036
0.0378073
0.0375476
0.0373194
0.0371188
0.0369428
0.0367888
0.0366547
0.0365386
0.0364392
0.0363552
0.0362856
0.0362297
0.0361869
0.0361566
0.0361386
0.0361325
0.0361384
0.0361561
0.0361858
0.0362277
0.036282
0.036349
0.0364293
0.0365232
0.0366314
0.0367543
0.0368925
0.0370462
0.0372154
0.0373994
0.0375965
0.0378033
0.0380143
0.0382216
0.0384154
0.0582122
0.055677
0.0516469
0.0479913
0.045698
0.0443468
0.0432289
0.0421431
0.0411948
0.0404424
0.0398389
0.0393251
0.0388744
0.0384804
0.0381378
0.0378393
0.0375777
0.0373477
0.0371454
0.0369678
0.0368123
0.0366768
0.0365594
0.0364587
0.0363735
0.0363029
0.0362459
0.036202
0.0361707
0.0361517
0.0361446
0.0361494
0.0361661
0.0361946
0.0362352
0.0362881
0.0363536
0.036432
0.0365238
0.0366295
0.0367494
0.036884
0.0370332
0.037197
0.0373743
0.0375633
0.0377605
0.0379609
0.0381571
0.0383405
0.0573205
0.0550825
0.0514434
0.047997
0.0457178
0.0443441
0.043244
0.0421855
0.0412449
0.0404872
0.0398792
0.0393639
0.0389123
0.0385164
0.0381716
0.037871
0.0376075
0.0373758
0.0371719
0.0369927
0.0368357
0.0366987
0.03658
0.0364781
0.0363917
0.0363199
0.0362619
0.0362169
0.0361845
0.0361644
0.0361563
0.03616
0.0361755
0.0362028
0.036242
0.0362934
0.0363572
0.0364337
0.0365233
0.0366263
0.036743
0.0368737
0.0370184
0.0371765
0.037347
0.0375279
0.0377159
0.037906
0.0380916
0.0382653
0.056472
0.054494
0.0512126
0.0479787
0.0457303
0.0443378
0.043252
0.0422208
0.0412911
0.0405302
0.0399179
0.0394012
0.038949
0.0385517
0.0382049
0.0379022
0.037637
0.0374036
0.037198
0.0370173
0.0368588
0.0367205
0.0366005
0.0364973
0.0364097
0.0363367
0.0362775
0.0362315
0.036198
0.0361768
0.0361675
0.03617
0.0361843
0.0362102
0.036248
0.0362978
0.0363598
0.0364343
0.0365214
0.0366216
0.036735
0.0368617
0.0370016
0.0371539
0.0373176
0.0374905
0.0376693
0.0378495
0.0380251
0.0381897
0.0556641
0.0539133
0.0509576
0.0479364
0.0457337
0.0443277
0.0432534
0.042249
0.041333
0.0405712
0.0399549
0.0394369
0.0389844
0.038586
0.0382374
0.0379329
0.0376659
0.0374309
0.0372238
0.0370416
0.0368817
0.036742
0.0366207
0.0365162
0.0364274
0.0363532
0.0362929
0.0362456
0.036211
0.0361887
0.0361782
0.0361795
0.0361924
0.036217
0.0362532
0.0363013
0.0363614
0.0364336
0.0365182
0.0366155
0.0367254
0.0368479
0.0369828
0.0371293
0.037286
0.037451
0.0376209
0.0377915
0.0379576
0.0381135
0.054894
0.0533422
0.0506819
0.0478703
0.0457269
0.0443137
0.0432485
0.0422699
0.04137
0.0406095
0.0399901
0.0394709
0.0390183
0.0386192
0.0382691
0.0379629
0.0376943
0.0374578
0.0372492
0.0370656
0.0369043
0.0367632
0.0366405
0.0365348
0.0364448
0.0363694
0.0363078
0.0362594
0.0362236
0.0362
0.0361883
0.0361883
0.0361998
0.0362229
0.0362575
0.0363038
0.0363618
0.0364317
0.0365136
0.0366077
0.0367139
0.0368322
0.0369619
0.0371025
0.0372523
0.0374094
0.0375706
0.037732
0.037889
0.0380367
0.0541593
0.0527819
0.0503886
0.0477812
0.0457083
0.0442953
0.0432378
0.0422835
0.0414016
0.040645
0.0400234
0.0395029
0.0390505
0.0386512
0.0382999
0.0379921
0.037722
0.0374841
0.0372742
0.0370891
0.0369264
0.036784
0.03666
0.036553
0.0364617
0.0363851
0.0363223
0.0362727
0.0362357
0.0362108
0.0361978
0.0361964
0.0362065
0.0362279
0.0362608
0.0363052
0.036361
0.0364284
0.0365075
0.0365983
0.0367007
0.0368145
0.036939
0.0370735
0.0372164
0.0373657
0.0375183
0.0376709
0.0378191
0.037959
0.0534577
0.0522334
0.0500806
0.0476701
0.0456771
0.044272
0.0432216
0.04229
0.0414275
0.040677
0.0400544
0.039533
0.0390809
0.0386817
0.0383296
0.0380205
0.037749
0.0375097
0.0372985
0.0371121
0.0369481
0.0368043
0.0366791
0.0365708
0.0364782
0.0364004
0.0363363
0.0362855
0.0362471
0.0362209
0.0362066
0.0362037
0.0362122
0.036232
0.0362631
0.0363054
0.0363589
0.0364237
0.0364999
0.0365872
0.0366857
0.0367948
0.036914
0.0370424
0.0371783
0.0373199
0.0374642
0.0376082
0.037748
0.0378803
0.0527869
0.0516972
0.0497608
0.0475382
0.0456324
0.0442429
0.0432001
0.0422895
0.0414473
0.0407052
0.0400831
0.039561
0.0391093
0.0387105
0.038358
0.0380478
0.0377751
0.0375346
0.0373221
0.0371344
0.0369691
0.0368241
0.0366976
0.036588
0.0364942
0.0364151
0.0363498
0.0362976
0.0362579
0.0362304
0.0362145
0.0362102
0.0362171
0.0362351
0.0362642
0.0363043
0.0363555
0.0364176
0.0364906
0.0365743
0.0366687
0.0367731
0.0368869
0.037009
0.0371381
0.037272
0.0374082
0.0375438
0.0376755
0.0378003
0.0521451
0.0511738
0.0494317
0.047387
0.0455736
0.0442074
0.0431735
0.0422824
0.0414608
0.0407292
0.0401089
0.0395867
0.0391357
0.0387376
0.038385
0.038074
0.0378002
0.0375586
0.0373449
0.0371561
0.0369896
0.0368433
0.0367155
0.0366047
0.0365096
0.0364292
0.0363625
0.036309
0.036268
0.036239
0.0362217
0.0362157
0.0362209
0.0362371
0.0362641
0.036302
0.0363506
0.0364098
0.0364795
0.0365596
0.0366497
0.0367492
0.0368575
0.0369735
0.0370956
0.037222
0.0373502
0.0374777
0.0376015
0.0377191
0.0515301
0.0506633
0.0490956
0.0472183
0.0455005
0.0441646
0.0431416
0.0422688
0.0414678
0.0407484
0.0401317
0.03961
0.0391598
0.0387627
0.0384104
0.0380989
0.0378242
0.0375816
0.0373669
0.0371769
0.0370092
0.0368617
0.0367327
0.0366206
0.0365242
0.0364425
0.0363746
0.0363197
0.0362773
0.0362468
0.0362279
0.0362203
0.0362236
0.0362379
0.0362628
0.0362982
0.0363441
0.0364003
0.0364667
0.0365429
0.0366286
0.0367232
0.0368259
0.0369356
0.0370509
0.0371698
0.0372902
0.0374098
0.0375259
0.0376364
0.0509404
0.050166
0.0487545
0.0470336
0.0454131
0.0441138
0.0431043
0.0422489
0.0414683
0.0407626
0.040151
0.0396306
0.0391815
0.0387857
0.038434
0.0381224
0.0378469
0.0376035
0.0373879
0.0371969
0.0370281
0.0368794
0.0367491
0.0366358
0.0365382
0.0364551
0.0363858
0.0363295
0.0362856
0.0362536
0.0362331
0.0362237
0.0362252
0.0362374
0.03626
0.036293
0.0363361
0.0363892
0.036452
0.0365242
0.0366054
0.036695
0.0367921
0.0368955
0.0370039
0.0371155
0.0372283
0.03734
0.0374486
0.0375521
0.0503743
0.0496816
0.0484101
0.0468347
0.0453116
0.0440545
0.0430613
0.042223
0.0414624
0.0407715
0.0401665
0.0396484
0.0392007
0.0388064
0.0384557
0.0381442
0.0378683
0.0376241
0.0374077
0.0372158
0.0370459
0.0368961
0.0367647
0.0366501
0.0365512
0.0364668
0.0363962
0.0363384
0.036293
0.0362594
0.0362372
0.036226
0.0362255
0.0362355
0.0362558
0.0362861
0.0363263
0.0363762
0.0364354
0.0365035
0.0365801
0.0366645
0.0367559
0.036853
0.0369546
0.037059
0.0371642
0.0372684
0.0373696
0.0374661
0.0498303
0.04921
0.0480641
0.0466233
0.0451965
0.043986
0.0430125
0.0421911
0.04145
0.0407747
0.040178
0.039663
0.0392172
0.0388246
0.0384753
0.0381642
0.0378881
0.0376434
0.0374262
0.0372335
0.0370627
0.0369118
0.0367793
0.0366635
0.0365633
0.0364776
0.0364055
0.0363463
0.0362993
0.0362641
0.0362401
0.036227
0.0362244
0.0362322
0.03625
0.0362776
0.0363148
0.0363613
0.0364167
0.0364806
0.0365526
0.0366318
0.0367174
0.0368082
0.036903
0.0370002
0.0370981
0.0371948
0.0372887
0.0373782
0.0493071
0.048751
0.0477176
0.0464011
0.0450683
0.043908
0.0429573
0.0421533
0.0414313
0.0407722
0.0401849
0.0396743
0.0392308
0.0388403
0.0384925
0.0381822
0.0379063
0.0376612
0.0374434
0.03725
0.0370783
0.0369264
0.0367927
0.0366758
0.0365743
0.0364873
0.0364138
0.036353
0.0363045
0.0362675
0.0362417
0.0362266
0.0362219
0.0362273
0.0362426
0.0362674
0.0363014
0.0363444
0.0363959
0.0364556
0.0365227
0.0365966
0.0366764
0.036761
0.0368491
0.0369393
0.0370298
0.0371192
0.0372059
0.0372885
0.0488032
0.0483042
0.0473718
0.0461696
0.0449279
0.0438203
0.0428955
0.0421096
0.0414063
0.0407637
0.0401872
0.0396819
0.0392414
0.0388532
0.0385073
0.0381982
0.0379225
0.0376773
0.0374591
0.037265
0.0370926
0.0369398
0.036805
0.0366869
0.0365841
0.0364958
0.0364208
0.0363586
0.0363084
0.0362696
0.0362419
0.0362248
0.0362179
0.0362208
0.0362334
0.0362553
0.0362861
0.0363254
0.036373
0.0364282
0.0364905
0.0365591
0.0366331
0.0367114
0.0367929
0.036876
0.0369594
0.0370416
0.0371211
0.0371968
0.0483176
0.0478694
0.0470276
0.0459304
0.0447761
0.0437229
0.0428267
0.04206
0.0413751
0.0407493
0.0401844
0.0396856
0.0392487
0.0388632
0.0385194
0.0382117
0.0379367
0.0376915
0.0374731
0.0372785
0.0371054
0.0369517
0.036816
0.0366967
0.0365927
0.036503
0.0364266
0.0363628
0.0363109
0.0362703
0.0362406
0.0362214
0.0362122
0.0362126
0.0362224
0.0362412
0.0362687
0.0363044
0.0363478
0.0363986
0.0364559
0.0365191
0.0365873
0.0366594
0.0367342
0.0368105
0.0368868
0.0369618
0.0370343
0.0371031
0.0478492
0.0474462
0.0466857
0.0456847
0.0446137
0.0436158
0.0427507
0.0420043
0.0413378
0.0407288
0.0401764
0.0396851
0.0392525
0.03887
0.0385287
0.0382228
0.0379487
0.0377039
0.0374853
0.0372904
0.0371166
0.0369622
0.0368255
0.0367051
0.0365999
0.0365088
0.0364309
0.0363655
0.0363119
0.0362695
0.0362378
0.0362163
0.0362047
0.0362025
0.0362095
0.0362251
0.0362491
0.036281
0.0363203
0.0363665
0.0364189
0.0364767
0.036539
0.0366049
0.0366732
0.0367426
0.0368119
0.0368799
0.0369454
0.0370074
0.0473968
0.0470342
0.0463468
0.0454338
0.0444418
0.0434992
0.0426673
0.0419425
0.0412945
0.0407023
0.040163
0.0396801
0.0392526
0.0388736
0.0385351
0.0382312
0.0379583
0.037714
0.0374955
0.0373004
0.0371261
0.036971
0.0368334
0.0367119
0.0366055
0.0365131
0.0364337
0.0363667
0.0363113
0.036267
0.0362332
0.0362095
0.0361954
0.0361905
0.0361945
0.0362069
0.0362274
0.0362554
0.0362905
0.036332
0.0363793
0.0364317
0.0364882
0.0365479
0.0366096
0.0366723
0.0367348
0.0367958
0.0368544
0.0369095
0.0469597
0.0466331
0.0460114
0.0451787
0.0442613
0.0433736
0.0425764
0.0418744
0.0412451
0.0406698
0.0401441
0.0396705
0.0392488
0.0388738
0.0385383
0.0382367
0.0379654
0.0377218
0.0375036
0.0373084
0.0371338
0.036978
0.0368396
0.0367171
0.0366095
0.0365157
0.0364349
0.0363662
0.036309
0.0362627
0.0362268
0.0362007
0.0361841
0.0361765
0.0361774
0.0361865
0.0362033
0.0362274
0.0362581
0.036295
0.0363372
0.0363841
0.0364348
0.0364883
0.0365437
0.0365997
0.0366554
0.0367095
0.0367612
0.0368096
0.0465369
0.0462425
0.0456798
0.0449205
0.0440731
0.0432392
0.0424779
0.0417998
0.0411897
0.0406313
0.0401195
0.0396559
0.0392408
0.0388702
0.0385381
0.0382391
0.0379696
0.0377272
0.0375094
0.0373142
0.0371394
0.0369831
0.0368439
0.0367205
0.0366117
0.0365166
0.0364342
0.0363639
0.0363049
0.0362566
0.0362185
0.03619
0.0361708
0.0361603
0.0361581
0.0361638
0.0361769
0.0361969
0.0362233
0.0362554
0.0362925
0.036334
0.0363788
0.0364262
0.0364752
0.0365247
0.0365736
0.036621
0.0366659
0.0367075
0.0461276
0.0458619
0.0453524
0.04466
0.0438781
0.0430967
0.0423718
0.0417188
0.0411282
0.0405869
0.0400893
0.0396362
0.0392284
0.0388629
0.0385345
0.0382384
0.037971
0.0377298
0.0375128
0.0373178
0.0371428
0.0369861
0.0368462
0.0367219
0.036612
0.0365155
0.0364317
0.0363597
0.0362988
0.0362484
0.0362081
0.0361772
0.0361552
0.0361418
0.0361364
0.0361387
0.036148
0.0361639
0.0361858
0.0362131
0.0362451
0.0362811
0.0363202
0.0363616
0.0364042
0.0364472
0.0364895
0.0365303
0.0365685
0.0366034
0.0457309
0.0454911
0.0450294
0.044398
0.0436772
0.0429465
0.0422584
0.0416313
0.0410607
0.0405364
0.0400533
0.0396114
0.0392114
0.0388515
0.0385272
0.0382342
0.0379692
0.0377296
0.0375134
0.0373188
0.0371438
0.0369868
0.0368463
0.0367211
0.0366101
0.0365124
0.0364271
0.0363534
0.0362906
0.0362382
0.0361955
0.0361621
0.0361374
0.036121
0.0361123
0.036111
0.0361165
0.0361282
0.0361457
0.0361682
0.0361951
0.0362256
0.0362589
0.0362943
0.0363307
0.0363673
0.0364031
0.0364373
0.0364689
0.0364973
0.0453463
0.0451295
0.0447111
0.0441352
0.0434713
0.0427893
0.0421378
0.0415372
0.040987
0.04048
0.0400115
0.0395812
0.0391897
0.0388358
0.038516
0.0382265
0.0379641
0.0377263
0.0375113
0.0373172
0.0371424
0.0369851
0.0368441
0.0367181
0.0366061
0.0365071
0.0364202
0.0363448
0.0362802
0.0362256
0.0361806
0.0361446
0.0361171
0.0360976
0.0360857
0.0360808
0.0360824
0.0360899
0.0361028
0.0361205
0.0361422
0.0361673
0.036195
0.0362244
0.0362546
0.0362849
0.0363144
0.0363421
0.0363673
0.0363892
0.0449731
0.044777
0.0443974
0.0438722
0.0432611
0.0426255
0.0420103
0.0414366
0.0409073
0.0404177
0.0399639
0.0395455
0.039163
0.0388157
0.0385009
0.0382151
0.0379555
0.0377198
0.0375061
0.0373128
0.0371382
0.0369809
0.0368394
0.0367127
0.0365997
0.0364994
0.0364111
0.036334
0.0362674
0.0362107
0.0361633
0.0361247
0.0360943
0.0360717
0.0360564
0.0360478
0.0360455
0.0360488
0.0360572
0.03607
0.0360866
0.0361063
0.0361283
0.0361518
0.036176
0.0362001
0.0362233
0.0362447
0.0362635
0.0362791
0.0446105
0.044433
0.0440885
0.0436094
0.0430472
0.0424558
0.0418762
0.0413297
0.0408216
0.0403494
0.0399106
0.0395043
0.0391313
0.038791
0.0384815
0.0381998
0.0379433
0.0377099
0.0374977
0.0373054
0.0371312
0.0369739
0.0368321
0.0367047
0.0365907
0.0364892
0.0363994
0.0363206
0.0362521
0.0361932
0.0361434
0.0361021
0.0360689
0.0360431
0.0360244
0.0360121
0.0360058
0.0360048
0.0360086
0.0360166
0.0360281
0.0360424
0.0360588
0.0360766
0.0360948
0.0361129
0.0361299
0.0361451
0.0361578
0.0361672
0.0442581
0.0440974
0.0437845
0.0433474
0.0428304
0.0422809
0.0417359
0.0412165
0.0407298
0.0402753
0.0398514
0.0394576
0.0390944