/*--------------------------------*- C++ -*----------------------------------*\
  =========                 |
  \\      /  F ield         | OpenFOAM: The Open Source CFD Toolbox
   \\    /   O peration     | Website:  https://openfoam.org
    \\  /    A nd           | Version:  7
     \\/     M anipulation  |
\*---------------------------------------------------------------------------*/
FoamFile
{
    version     2.0;
    format      ascii;
    class       surfaceScalarField;
    location    "0.08";
    object      phi_0;
}
// * * * * * * * * * * * * * * * * * * * * * * * * * * * * * * * * * * * * * //

dimensions      [0 3 -1 0 0 0 0];

internalField   nonuniform List<scalar> 
139350
(
6.4512e-08
9.21195e-08
3.19644e-08
3.25476e-08
2.3059e-08
8.90539e-09
1.95741e-08
3.48487e-09
1.76221e-08
1.95202e-09
1.61918e-08
1.4303e-09
1.50588e-08
1.13303e-09
1.41464e-08
9.12431e-10
1.33958e-08
7.50516e-10
1.27639e-08
6.3194e-10
1.22217e-08
5.42173e-10
1.175e-08
4.71757e-10
1.13349e-08
4.15096e-10
1.09662e-08
3.68672e-10
1.06361e-08
3.30082e-10
1.03385e-08
2.97606e-10
1.00685e-08
2.69977e-10
9.8223e-09
2.46246e-10
9.59661e-09
2.25688e-10
9.38888e-09
2.07737e-10
9.19692e-09
1.91952e-10
9.01895e-09
1.77977e-10
8.85342e-09
1.65528e-10
8.69905e-09
1.54373e-10
8.55472e-09
1.44321e-10
8.41951e-09
1.35214e-10
8.29259e-09
1.2692e-10
8.17326e-09
1.19332e-10
8.06091e-09
1.12353e-10
7.95499e-09
1.05913e-10
7.85506e-09
9.99298e-11
7.76069e-09
9.43729e-11
7.67154e-09
8.91503e-11
7.58725e-09
8.42894e-11
7.5076e-09
7.96471e-11
7.43225e-09
7.53532e-11
7.3611e-09
7.115e-11
7.29377e-09
6.73335e-11
7.23028e-09
6.34821e-11
7.17024e-09
6.00417e-11
7.11363e-09
5.6611e-11
7.06039e-09
5.32453e-11
7.00952e-09
5.08641e-11
6.96313e-09
4.63924e-11
6.91545e-09
4.76768e-11
6.87808e-09
3.73686e-11
6.824e-09
5.40849e-11
6.819e-09
4.9944e-12
6.59224e-09
2.26767e-10
-2.95499e-09
9.54723e-09
1.25943e-07
1.2762e-07
9.12895e-08
6.72009e-08
7.19373e-08
2.82577e-08
6.12227e-08
1.41995e-08
5.47873e-08
8.38736e-09
5.02935e-08
5.92412e-09
4.68103e-08
4.61628e-09
4.39984e-08
3.72432e-09
4.16771e-08
3.07178e-09
3.9721e-08
2.58805e-09
3.80428e-08
2.22036e-09
3.65825e-08
1.93208e-09
3.52973e-08
1.70031e-09
3.41555e-08
1.51044e-09
3.3133e-08
1.35259e-09
3.22109e-08
1.21972e-09
3.13742e-08
1.10666e-09
3.06109e-08
1.00954e-09
2.99112e-08
9.25371e-10
2.92671e-08
8.51869e-10
2.86718e-08
7.87214e-10
2.81199e-08
7.2996e-10
2.76064e-08
6.78941e-10
2.71276e-08
6.33205e-10
2.668e-08
5.91974e-10
2.62606e-08
5.54601e-10
2.58669e-08
5.20549e-10
2.54969e-08
4.8937e-10
2.51486e-08
4.60675e-10
2.48203e-08
4.3416e-10
2.45107e-08
4.09519e-10
2.42185e-08
3.86571e-10
2.39427e-08
3.65016e-10
2.36821e-08
3.44841e-10
2.34361e-08
3.25621e-10
2.32038e-08
3.07659e-10
2.29849e-08
2.90139e-10
2.27782e-08
2.74027e-10
2.2584e-08
2.57625e-10
2.24009e-08
2.43177e-10
2.22301e-08
2.27374e-10
2.20689e-08
2.14441e-10
2.19206e-08
1.99153e-10
2.17802e-08
1.8684e-10
2.16534e-08
1.74438e-10
2.15346e-08
1.56174e-10
2.14205e-08
1.68216e-10
2.13656e-08
5.99185e-11
2.11236e-08
4.68742e-10
-3.49351e-09
2.16621e-08
1.58752e-07
1.35272e-07
1.36527e-07
8.94262e-08
1.17494e-07
4.729e-08
1.03319e-07
2.83745e-08
9.33287e-08
1.83781e-08
8.60328e-08
1.32201e-08
8.03305e-08
1.03186e-08
7.56856e-08
8.36927e-09
7.18155e-08
6.94185e-09
6.85326e-08
5.87096e-09
6.57034e-08
5.04955e-09
6.3233e-08
4.40242e-09
6.10529e-08
3.88048e-09
5.91115e-08
3.45178e-09
5.73695e-08
3.09456e-09
5.5796e-08
2.79328e-09
5.43662e-08
2.53648e-09
5.30602e-08
2.31554e-09
5.18617e-08
2.12386e-09
5.07573e-08
1.95627e-09
4.97358e-08
1.80872e-09
4.87878e-08
1.67795e-09
4.79054e-08
1.56134e-09
4.70819e-08
1.45674e-09
4.63114e-08
1.36238e-09
4.55892e-08
1.27681e-09
4.4911e-08
1.19881e-09
4.4273e-08
1.12734e-09
4.36721e-08
1.06155e-09
4.31056e-08
1.00072e-09
4.25709e-08
9.4418e-10
4.2066e-08
8.91462e-10
4.15891e-08
8.41966e-10
4.11384e-08
7.95533e-10
4.07126e-08
7.51362e-10
4.03104e-08
7.09899e-10
3.9931e-08
6.69566e-10
3.95728e-08
6.32236e-10
3.92361e-08
5.94231e-10
3.89185e-08
5.60786e-10
3.86227e-08
5.23242e-10
3.83429e-08
4.94258e-10
3.80873e-08
4.54696e-10
3.78427e-08
4.31457e-10
3.76289e-08
3.88189e-10
3.74186e-08
3.66485e-10
3.72432e-08
3.43689e-10
3.71051e-08
1.98011e-10
3.69476e-08
6.26156e-10
-3.08754e-09
3.65417e-08
1.75611e-07
1.31176e-07
1.65623e-07
9.9414e-08
1.52736e-07
6.01774e-08
1.40129e-07
4.09813e-08
1.29453e-07
2.90544e-08
1.20819e-07
2.18537e-08
1.13714e-07
1.74238e-08
1.07742e-07
1.43415e-08
1.02652e-07
1.20315e-08
9.82624e-08
1.02606e-08
9.44327e-08
8.87924e-09
9.10572e-08
7.77786e-09
8.8056e-08
6.88171e-09
8.53673e-08
6.14051e-09
8.29425e-08
5.51933e-09
8.07429e-08
4.9929e-09
7.8737e-08
4.54237e-09
7.68991e-08
4.15341e-09
7.5208e-08
3.81495e-09
7.3646e-08
3.5183e-09
7.21982e-08
3.25654e-09
7.0852e-08
3.02411e-09
6.95969e-08
2.81651e-09
6.84236e-08
2.63002e-09
6.73243e-08
2.4616e-09
6.62925e-08
2.3087e-09
6.53221e-08
2.16918e-09
6.44082e-08
2.04126e-09
6.35463e-08
1.92342e-09
6.27327e-08
1.81437e-09
6.19639e-08
1.71297e-09
6.1237e-08
1.61836e-09
6.05494e-08
1.52953e-09
5.98988e-08
1.44609e-09
5.92834e-08
1.36679e-09
5.87011e-08
1.29216e-09
5.8151e-08
1.21973e-09
5.76308e-08
1.15239e-09
5.7141e-08
1.08406e-09
5.66782e-08
1.0236e-09
5.62457e-08
9.55701e-10
5.58364e-08
9.03572e-10
5.54607e-08
8.30387e-10
5.51016e-08
7.90574e-10
5.47847e-08
7.05091e-10
5.4475e-08
6.76181e-10
5.42165e-08
6.02201e-10
5.39853e-08
4.29214e-10
5.38288e-08
7.82688e-10
-2.45215e-09
5.31934e-08
1.8451e-07
1.23452e-07
1.8234e-07
1.01584e-07
1.76121e-07
6.63967e-08
1.67765e-07
4.93369e-08
1.59149e-07
3.76703e-08
1.51249e-07
2.97538e-08
1.44184e-07
2.4489e-08
1.37893e-07
2.06321e-08
1.32305e-07
1.76202e-08
1.27333e-07
1.52319e-08
1.22894e-07
1.33189e-08
1.18909e-07
1.17626e-08
1.15314e-07
1.04762e-08
1.12056e-07
9.39882e-09
1.09089e-07
8.48647e-09
1.06375e-07
7.70653e-09
1.03884e-07
7.03414e-09
1.01587e-07
6.45003e-09
9.94629e-08
5.93903e-09
9.74921e-08
5.48908e-09
9.56582e-08
5.09046e-09
9.3947e-08
4.73529e-09
9.23465e-08
4.41709e-09
9.0846e-08
4.1305e-09
8.94365e-08
3.87108e-09
8.81101e-08
3.63507e-09
8.686e-08
3.41937e-09
8.56799e-08
3.22127e-09
8.45648e-08
3.03855e-09
8.35099e-08
2.86925e-09
8.25112e-08
2.71169e-09
8.15651e-08
2.5645e-09
8.06684e-08
2.42626e-09
7.98182e-08
2.29623e-09
7.90123e-08
2.1727e-09
7.82483e-08
2.05621e-09
7.75246e-08
1.94337e-09
7.6839e-08
1.83801e-09
7.61914e-08
1.73167e-09
7.55783e-08
1.63671e-09
7.50028e-08
1.53122e-09
7.44576e-08
1.44874e-09
7.39528e-08
1.33523e-09
7.34722e-08
1.27114e-09
7.30389e-08
1.13832e-09
7.26238e-08
1.09131e-09
7.22615e-08
9.64509e-10
7.19371e-08
7.5362e-10
7.16976e-08
1.02217e-09
-1.75827e-09
7.10038e-08
1.90342e-07
1.15326e-07
1.91858e-07
1.00067e-07
1.90262e-07
6.79933e-08
1.86158e-07
5.3441e-08
1.80721e-07
4.31066e-08
1.74974e-07
3.55012e-08
1.69284e-07
3.01793e-08
1.63808e-07
2.61079e-08
1.58644e-07
2.27844e-08
1.53833e-07
2.00425e-08
1.49379e-07
1.77731e-08
1.45264e-07
1.58771e-08
1.41465e-07
1.42752e-08
1.37955e-07
1.29089e-08
1.34708e-07
1.17341e-08
1.31697e-07
1.07167e-08
1.28902e-07
9.82993e-09
1.263e-07
9.05219e-09
1.23872e-07
8.36618e-09
1.21604e-07
7.7578e-09
1.19479e-07
7.21546e-09
1.17484e-07
6.72957e-09
1.15609e-07
6.29215e-09
1.13843e-07
5.89652e-09
1.12177e-07
5.53704e-09
1.10603e-07
5.20894e-09
1.09115e-07
4.90817e-09
1.07705e-07
4.63124e-09
1.06368e-07
4.37521e-09
1.051e-07
4.13751e-09
1.03896e-07
3.91589e-09
1.02752e-07
3.70852e-09
1.01664e-07
3.51351e-09
1.00631e-07
3.3298e-09
9.96482e-08
3.15518e-09
9.87143e-08
2.99017e-09
9.78271e-08
2.83055e-09
9.69842e-08
2.68085e-09
9.61853e-08
2.53059e-09
9.54271e-08
2.39496e-09
9.47117e-08
2.24661e-09
9.40332e-08
2.12723e-09
9.33989e-08
1.9695e-09
9.27974e-08
1.87268e-09
9.22433e-08
1.6924e-09
9.17217e-08
1.61289e-09
9.12457e-08
1.44056e-09
9.08252e-08
1.17413e-09
9.04764e-08
1.37092e-09
-9.97984e-10
8.97161e-08
1.95504e-07
1.07637e-07
1.98246e-07
9.73251e-08
1.98984e-07
6.72551e-08
1.9779e-07
5.4635e-08
1.95157e-07
4.57395e-08
1.91821e-07
3.88381e-08
1.88093e-07
3.39068e-08
1.84148e-07
3.00527e-08
1.80137e-07
2.6796e-08
1.76169e-07
2.40105e-08
1.72312e-07
2.16297e-08
1.68606e-07
1.95835e-08
1.65069e-07
1.78114e-08
1.61712e-07
1.62668e-08
1.58532e-07
1.49134e-08
1.55527e-07
1.37219e-08
1.52689e-07
1.26683e-08
1.50008e-07
1.17327e-08
1.47476e-07
1.08982e-08
1.45083e-07
1.01509e-08
1.4282e-07
9.479e-09
1.40677e-07
8.87239e-09
1.38646e-07
8.32257e-09
1.36721e-07
7.82225e-09
1.34893e-07
7.36518e-09
1.33156e-07
6.94598e-09
1.31504e-07
6.56003e-09
1.29932e-07
6.2033e-09
1.28434e-07
5.87233e-09
1.27008e-07
5.56408e-09
1.25648e-07
5.27591e-09
1.24351e-07
5.00554e-09
1.23114e-07
4.75074e-09
1.21933e-07
4.51015e-09
1.20807e-07
4.28119e-09
1.19733e-07
4.06424e-09
1.18709e-07
3.85446e-09
1.17733e-07
3.65684e-09
1.16805e-07
3.45939e-09
1.1592e-07
3.27918e-09
1.15082e-07
3.08523e-09
1.14285e-07
2.92414e-09
1.13533e-07
2.721e-09
1.12822e-07
2.58414e-09
1.12155e-07
2.35924e-09
1.11533e-07
2.23438e-09
1.10949e-07
2.02489e-09
1.1043e-07
1.69315e-09
1.09977e-07
1.8243e-09
-1.64224e-10
1.09143e-07
2.00819e-07
1.00403e-07
2.03771e-07
9.43733e-08
2.05344e-07
6.56822e-08
2.05645e-07
5.43341e-08
2.04815e-07
4.65696e-08
2.03337e-07
4.03161e-08
2.01391e-07
3.5852e-08
1.99064e-07
3.23796e-08
1.96463e-07
2.93973e-08
1.9369e-07
2.67833e-08
1.90827e-07
2.44933e-08
1.87933e-07
2.24776e-08
1.85052e-07
2.06916e-08
1.82218e-07
1.91013e-08
1.79451e-07
1.76803e-08
1.76766e-07
1.64069e-08
1.74172e-07
1.52627e-08
1.71673e-07
1.42317e-08
1.69271e-07
1.33002e-08
1.66965e-07
1.24562e-08
1.64755e-07
1.16893e-08
1.62637e-07
1.09903e-08
1.60608e-07
1.03513e-08
1.58665e-07
9.76522e-09
1.56804e-07
9.22604e-09
1.55022e-07
8.72836e-09
1.53315e-07
8.26751e-09
1.51679e-07
7.8393e-09
1.50111e-07
7.44013e-09
1.48608e-07
7.06673e-09
1.47168e-07
6.71628e-09
1.45787e-07
6.38629e-09
1.44463e-07
6.07431e-09
1.43195e-07
5.77878e-09
1.41979e-07
5.49687e-09
1.40814e-07
5.22888e-09
1.39699e-07
4.96957e-09
1.38632e-07
4.7241e-09
1.37612e-07
4.47965e-09
1.36637e-07
4.25412e-09
1.35707e-07
4.01485e-09
1.34821e-07
3.81009e-09
1.33979e-07
3.563e-09
1.33182e-07
3.38174e-09
1.32424e-07
3.11651e-09
1.3172e-07
2.93852e-09
1.31047e-07
2.69774e-09
1.30438e-07
2.30227e-09
1.29896e-07
2.36718e-09
7.26042e-10
1.29005e-07
2.06422e-07
9.35124e-08
2.09331e-07
9.1465e-08
2.11055e-07
6.39578e-08
2.11935e-07
5.3454e-08
2.11998e-07
4.65066e-08
2.11614e-07
4.07007e-08
2.10885e-07
3.65804e-08
2.09816e-07
3.34488e-08
2.08445e-07
3.07681e-08
2.06832e-07
2.8397e-08
2.05031e-07
2.6294e-08
2.03092e-07
2.44161e-08
2.01059e-07
2.27254e-08
1.98965e-07
2.11945e-08
1.96842e-07
1.98036e-08
1.94712e-07
1.8537e-08
1.92593e-07
1.73814e-08
1.905e-07
1.63252e-08
1.88442e-07
1.53581e-08
1.86427e-07
1.4471e-08
1.84461e-07
1.36557e-08
1.82547e-07
1.29047e-08
1.80687e-07
1.22114e-08
1.78882e-07
1.15698e-08
1.77133e-07
1.09747e-08
1.7544e-07
1.04212e-08
1.73803e-07
9.9051e-09
1.7222e-07
9.42244e-09
1.7069e-07
8.96984e-09
1.69213e-07
8.54415e-09
1.67786e-07
8.14262e-09
1.6641e-07
7.76276e-09
1.65082e-07
7.40213e-09
1.63802e-07
7.0591e-09
1.62568e-07
6.73078e-09
1.61379e-07
6.41743e-09
1.60235e-07
6.11364e-09
1.59135e-07
5.82459e-09
1.58077e-07
5.5372e-09
1.57062e-07
5.26936e-09
1.56088e-07
4.98842e-09
1.55157e-07
4.74157e-09
1.54265e-07
4.45462e-09
1.53418e-07
4.22854e-09
1.52606e-07
3.92844e-09
1.51849e-07
3.69563e-09
1.51119e-07
3.42749e-09
1.50443e-07
2.97828e-09
1.49835e-07
2.97598e-09
1.64298e-09
1.48918e-07
2.12269e-07
8.69061e-08
2.15139e-07
8.85942e-08
2.1681e-07
6.22873e-08
2.1785e-07
5.24143e-08
2.18258e-07
4.60986e-08
2.18374e-07
4.05838e-08
2.18299e-07
3.6656e-08
2.17999e-07
3.37482e-08
2.1747e-07
3.12973e-08
2.1673e-07
2.9137e-08
2.15804e-07
2.72206e-08
2.14716e-07
2.55039e-08
2.13493e-07
2.39485e-08
2.1216e-07
2.25275e-08
2.1074e-07
2.12228e-08
2.09256e-07
2.00212e-08
2.07725e-07
1.89121e-08
2.06164e-07
1.78864e-08
2.04586e-07
1.69364e-08
2.03002e-07
1.60553e-08
2.01421e-07
1.52366e-08
1.9985e-07
1.44749e-08
1.98297e-07
1.37649e-08
1.96765e-07
1.31018e-08
1.95258e-07
1.24815e-08
1.9378e-07
1.18998e-08
1.92332e-07
1.13532e-08
1.90916e-07
1.08384e-08
1.89533e-07
1.03525e-08
1.88185e-07
9.89258e-09
1.86871e-07
9.45627e-09
1.85592e-07
9.04125e-09
1.84349e-07
8.64525e-09
1.83142e-07
8.26676e-09
1.81969e-07
7.90295e-09
1.80833e-07
7.55412e-09
1.79731e-07
7.21492e-09
1.78666e-07
6.89044e-09
1.77635e-07
6.56779e-09
1.7664e-07
6.26428e-09
1.7568e-07
5.94852e-09
1.74757e-07
5.6647e-09
1.73867e-07
5.34458e-09
1.73018e-07
5.07727e-09
1.72198e-07
4.74901e-09
1.71428e-07
4.46529e-09
1.70682e-07
4.17343e-09
1.69975e-07
3.68538e-09
1.69333e-07
3.61785e-09
2.55041e-09
1.68426e-07
2.18314e-07
8.05725e-08
2.21189e-07
8.572e-08
2.22782e-07
6.06935e-08
2.2385e-07
5.13463e-08
2.24367e-07
4.55821e-08
2.24661e-07
4.02894e-08
2.24862e-07
3.64556e-08
2.2494e-07
3.36703e-08
2.24875e-07
3.13621e-08
2.24668e-07
2.9344e-08
2.24323e-07
2.75651e-08
2.23848e-07
2.59797e-08
2.2325e-07
2.45463e-08
2.22541e-07
2.32358e-08
2.21735e-07
2.2029e-08
2.20845e-07
2.0912e-08
2.19882e-07
1.98746e-08
2.1886e-07
1.89084e-08
2.1779e-07
1.80066e-08
2.16682e-07
1.71633e-08
2.15545e-07
1.63734e-08
2.14388e-07
1.56323e-08
2.13217e-07
1.49358e-08
2.12038e-07
1.42801e-08
2.10858e-07
1.36618e-08
2.0968e-07
1.30775e-08
2.08509e-07
1.25245e-08
2.07347e-07
1.2e-08
2.06198e-07
1.15016e-08
2.05064e-07
1.10268e-08
2.03947e-07
1.05737e-08
2.02848e-07
1.01402e-08
2.01769e-07
9.72425e-09
2.00711e-07
9.32465e-09
1.99675e-07
8.93868e-09
1.98662e-07
8.56679e-09
1.97674e-07
8.20375e-09
1.9671e-07
7.85458e-09
1.9577e-07
7.50688e-09
1.94858e-07
7.17697e-09
1.93971e-07
6.83561e-09
1.93113e-07
6.52274e-09
1.92279e-07
6.17816e-09
1.9148e-07
5.87649e-09
1.90701e-07
5.52794e-09
1.89965e-07
5.20159e-09
1.89248e-07
4.89031e-09
1.88553e-07
4.38044e-09
1.87917e-07
4.2536e-09
3.40909e-09
1.87058e-07
2.24548e-07
7.45176e-08
2.27448e-07
8.28196e-08
2.28978e-07
5.91637e-08
2.30053e-07
5.02711e-08
2.3061e-07
4.50252e-08
2.30953e-07
3.99466e-08
2.31243e-07
3.61658e-08
2.31469e-07
3.34444e-08
2.31612e-07
3.12187e-08
2.31672e-07
2.92846e-08
2.31647e-07
2.75902e-08
2.31535e-07
2.60909e-08
2.31338e-07
2.47439e-08
2.31056e-07
2.35179e-08
2.30693e-07
2.23916e-08
2.30255e-07
2.13501e-08
2.29747e-07
2.03822e-08
2.29177e-07
1.94788e-08
2.2855e-07
1.86331e-08
2.27875e-07
1.78391e-08
2.27156e-07
1.7092e-08
2.26401e-07
1.63873e-08
2.25615e-07
1.57214e-08
2.24805e-07
1.50907e-08
2.23974e-07
1.44925e-08
2.23128e-07
1.39237e-08
2.2227e-07
1.33821e-08
2.21405e-07
1.28653e-08
2.20535e-07
1.23713e-08
2.19664e-07
1.1898e-08
2.18794e-07
1.14437e-08
2.17927e-07
1.10067e-08
2.17066e-07
1.05852e-08
2.16213e-07
1.01782e-08
2.15368e-07
9.7832e-09
2.14534e-07
9.4007e-09
2.13712e-07
9.02573e-09
2.12904e-07
8.66317e-09
2.12109e-07
8.30133e-09
2.11331e-07
7.95524e-09
2.10568e-07
7.59848e-09
2.09825e-07
7.26581e-09
2.09097e-07
6.90635e-09
2.08394e-07
6.57918e-09
2.07704e-07
6.21863e-09
2.07045e-07
5.86066e-09
2.064e-07
5.5351e-09
2.0576e-07
5.02028e-09
2.0517e-07
4.84353e-09
4.18161e-09
2.04397e-07
2.30974e-07
6.87496e-08
2.33909e-07
7.98842e-08
2.35382e-07
5.7691e-08
2.36465e-07
4.91877e-08
2.37055e-07
4.44354e-08
2.37413e-07
3.95888e-08
2.37725e-07
3.58542e-08
2.37996e-07
3.31727e-08
2.38215e-07
3.1e-08
2.38383e-07
2.91164e-08
2.38503e-07
2.74703e-08
2.38573e-07
2.60212e-08
2.3859e-07
2.47268e-08
2.38553e-07
2.35549e-08
2.38461e-07
2.24833e-08
2.38315e-07
2.14961e-08
2.38116e-07
2.0581e-08
2.37867e-07
1.97284e-08
2.37569e-07
1.89308e-08
2.37226e-07
1.81818e-08
2.36842e-07
1.74762e-08
2.3642e-07
1.68095e-08
2.35963e-07
1.6178e-08
2.35476e-07
1.55781e-08
2.34961e-07
1.50071e-08
2.34423e-07
1.44621e-08
2.33864e-07
1.3941e-08
2.33288e-07
1.34416e-08
2.32697e-07
1.29621e-08
2.32094e-07
1.25007e-08
2.31482e-07
1.20557e-08
2.30863e-07
1.16259e-08
2.30239e-07
1.12094e-08
2.29612e-07
1.08054e-08
2.28983e-07
1.04117e-08
2.28355e-07
1.00287e-08
2.27729e-07
9.65182e-09
2.27107e-07
9.28563e-09
2.26489e-07
8.91933e-09
2.25878e-07
8.56638e-09
2.25273e-07
8.20358e-09
2.24678e-07
7.86008e-09
2.2409e-07
7.49471e-09
2.23518e-07
7.15128e-09
2.2295e-07
6.78644e-09
2.22402e-07
6.40868e-09
2.21863e-07
6.07428e-09
2.21314e-07
5.56928e-09
2.20803e-07
5.35419e-09
4.83829e-09
2.20147e-07
2.376e-07
6.32741e-08
2.40575e-07
7.69096e-08
2.4199e-07
5.62754e-08
2.43081e-07
4.8097e-08
2.43708e-07
4.38089e-08
2.44078e-07
3.92181e-08
2.44395e-07
3.55372e-08
2.44679e-07
3.28885e-08
2.44921e-07
3.07585e-08
2.45126e-07
2.89117e-08
2.453e-07
2.72963e-08
2.45444e-07
2.58768e-08
2.45558e-07
2.46131e-08
2.4564e-07
2.34731e-08
2.45688e-07
2.24346e-08
2.45703e-07
2.14812e-08
2.45684e-07
2.06005e-08
2.4563e-07
1.97825e-08
2.45542e-07
1.90189e-08
2.4542e-07
1.83033e-08
2.45266e-07
1.763e-08
2.45082e-07
1.69943e-08
2.44867e-07
1.63921e-08
2.44626e-07
1.58198e-08
2.44358e-07
1.52744e-08
2.44067e-07
1.47531e-08
2.43755e-07
1.42537e-08
2.43422e-07
1.3774e-08
2.43072e-07
1.33121e-08
2.42707e-07
1.28665e-08
2.42327e-07
1.24356e-08
2.41935e-07
1.20179e-08
2.41532e-07
1.1612e-08
2.4112e-07
1.1217e-08
2.40701e-07
1.08307e-08
2.40276e-07
1.04537e-08
2.39847e-07
1.00816e-08
2.39414e-07
9.71854e-09
2.38978e-07
9.35474e-09
2.38543e-07
9.00188e-09
2.38106e-07
8.64022e-09
2.37673e-07
8.29312e-09
2.37239e-07
7.92891e-09
2.36813e-07
7.57741e-09
2.36385e-07
7.21435e-09
2.35966e-07
6.82766e-09
2.35551e-07
6.48942e-09
2.35115e-07
6.00551e-09
2.34705e-07
5.76406e-09
5.36207e-09
2.34181e-07
2.44435e-07
5.80949e-08
2.47448e-07
7.38966e-08
2.48809e-07
5.49151e-08
2.49902e-07
4.70037e-08
2.50567e-07
4.31441e-08
2.50954e-07
3.8831e-08
2.51276e-07
3.52157e-08
2.51565e-07
3.25988e-08
2.51814e-07
3.05094e-08
2.5203e-07
2.86961e-08
2.52221e-07
2.71053e-08
2.52391e-07
2.57067e-08
2.52541e-07
2.44628e-08
2.52672e-07
2.33426e-08
2.52782e-07
2.23239e-08
2.52873e-07
2.13908e-08
2.52943e-07
2.05308e-08
2.52991e-07
1.97339e-08
2.53018e-07
1.89918e-08
2.53024e-07
1.82977e-08
2.53008e-07
1.76459e-08
2.52971e-07
1.70315e-08
2.52913e-07
1.64502e-08
2.52834e-07
1.58983e-08
2.52736e-07
1.53726e-08
2.52619e-07
1.48702e-08
2.52484e-07
1.43887e-08
2.52332e-07
1.39258e-08
2.52164e-07
1.34799e-08
2.51982e-07
1.3049e-08
2.51785e-07
1.26318e-08
2.51577e-07
1.22268e-08
2.51356e-07
1.18325e-08
2.51125e-07
1.14482e-08
2.50884e-07
1.10715e-08
2.50635e-07
1.07031e-08
2.50378e-07
1.03387e-08
2.50114e-07
9.9821e-09
2.49844e-07
9.62457e-09
2.4957e-07
9.27581e-09
2.49291e-07
8.91958e-09
2.4901e-07
8.57366e-09
2.48724e-07
8.21506e-09
2.4844e-07
7.86162e-09
2.4815e-07
7.50421e-09
2.47861e-07
7.11722e-09
2.47571e-07
6.7791e-09
2.47253e-07
6.32335e-09
2.46951e-07
6.06639e-09
5.75073e-09
2.46562e-07
2.51488e-07
5.32139e-08
2.54529e-07
7.08553e-08
2.55845e-07
5.35994e-08
2.56935e-07
4.5913e-08
2.57638e-07
4.24417e-08
2.58044e-07
3.84246e-08
2.58372e-07
3.48884e-08
2.58667e-07
3.23037e-08
2.58921e-07
3.02552e-08
2.59141e-07
2.84761e-08
2.59337e-07
2.6909e-08
2.59515e-07
2.55286e-08
2.59677e-07
2.43008e-08
2.59825e-07
2.31951e-08
2.59959e-07
2.21901e-08
2.60079e-07
2.12702e-08
2.60187e-07
2.04231e-08
2.60282e-07
1.9639e-08
2.60364e-07
1.89097e-08
2.60433e-07
1.82287e-08
2.60489e-07
1.759e-08
2.60532e-07
1.69888e-08
2.60561e-07
1.64208e-08
2.60577e-07
1.58821e-08
2.60581e-07
1.53693e-08
2.60571e-07
1.48797e-08
2.60549e-07
1.44106e-08
2.60515e-07
1.39599e-08
2.60469e-07
1.35256e-08
2.60412e-07
1.3106e-08
2.60345e-07
1.26996e-08
2.60266e-07
1.23049e-08
2.60179e-07
1.19204e-08
2.60081e-07
1.15453e-08
2.59975e-07
1.11774e-08
2.59861e-07
1.08173e-08
2.59739e-07
1.04608e-08
2.5961e-07
1.01112e-08
2.59474e-07
9.7609e-09
2.59332e-07
9.41761e-09
2.59183e-07
9.06842e-09
2.59031e-07
8.72602e-09
2.58871e-07
8.37492e-09
2.58709e-07
8.02339e-09
2.5854e-07
7.67331e-09
2.58365e-07
7.29188e-09
2.58188e-07
6.95647e-09
2.57979e-07
6.53187e-09
2.57778e-07
6.26809e-09
6.01561e-09
2.57513e-07
2.58765e-07
4.86315e-08
2.61824e-07
6.77963e-08
2.63107e-07
5.23171e-08
2.6419e-07
4.483e-08
2.64928e-07
4.17039e-08
2.65355e-07
3.7997e-08
2.65689e-07
3.45543e-08
2.6599e-07
3.20029e-08
2.6625e-07
2.99954e-08
2.66474e-07
2.82522e-08
2.66673e-07
2.67097e-08
2.66854e-07
2.53475e-08
2.6702e-07
2.41348e-08
2.67173e-07
2.30423e-08
2.67314e-07
2.20487e-08
2.67445e-07
2.1139e-08
2.67567e-07
2.03013e-08
2.6768e-07
1.9526e-08
2.67784e-07
1.88052e-08
2.67881e-07
1.81323e-08
2.67969e-07
1.75016e-08
2.6805e-07
1.69084e-08
2.68122e-07
1.63482e-08
2.68187e-07
1.58174e-08
2.68244e-07
1.53125e-08
2.68293e-07
1.48306e-08
2.68334e-07
1.43691e-08
2.68368e-07
1.3926e-08
2.68395e-07
1.34991e-08
2.68414e-07
1.30868e-08
2.68426e-07
1.26874e-08
2.68431e-07
1.22998e-08
2.6843e-07
1.19221e-08
2.68421e-07
1.15538e-08
2.68406e-07
1.11925e-08
2.68385e-07
1.08387e-08
2.68357e-07
1.04886e-08
2.68323e-07
1.01448e-08
2.68283e-07
9.80091e-09
2.68238e-07
9.46266e-09
2.68186e-07
9.12022e-09
2.6813e-07
8.78188e-09
2.68067e-07
8.43825e-09
2.68e-07
8.09052e-09
2.67926e-07
7.74776e-09
2.67842e-07
7.37518e-09
2.67755e-07
7.0439e-09
2.67637e-07
6.65008e-09
2.67519e-07
6.38565e-09
6.17738e-09
2.67357e-07
2.66277e-07
4.43463e-08
2.69343e-07
6.47302e-08
2.70603e-07
5.10575e-08
2.71674e-07
4.37591e-08
2.72444e-07
4.09339e-08
2.72895e-07
3.75464e-08
2.73236e-07
3.42128e-08
2.73543e-07
3.16964e-08
2.73808e-07
2.97298e-08
2.74036e-07
2.80241e-08
2.74238e-07
2.65076e-08
2.74422e-07
2.51642e-08
2.7459e-07
2.39668e-08
2.74745e-07
2.28873e-08
2.74889e-07
2.19047e-08
2.75023e-07
2.10045e-08
2.7515e-07
2.0175e-08
2.75269e-07
1.94069e-08
2.75381e-07
1.86926e-08
2.75488e-07
1.80256e-08
2.75589e-07
1.74005e-08
2.75685e-07
1.68124e-08
2.75776e-07
1.62572e-08
2.75862e-07
1.57311e-08
2.75944e-07
1.52308e-08
2.76021e-07
1.47533e-08
2.76094e-07
1.42962e-08
2.76163e-07
1.38572e-08
2.76228e-07
1.34345e-08
2.76288e-07
1.30263e-08
2.76344e-07
1.26311e-08
2.76397e-07
1.22475e-08
2.76445e-07
1.1874e-08
2.76489e-07
1.15098e-08
2.76529e-07
1.11527e-08
2.76564e-07
1.0803e-08
2.76596e-07
1.04574e-08
2.76623e-07
1.01176e-08
2.76645e-07
9.77852e-09
2.76664e-07
9.44411e-09
2.76677e-07
9.10718e-09
2.76686e-07
8.77243e-09
2.76689e-07
8.43516e-09
2.76688e-07
8.09184e-09
2.7668e-07
7.75546e-09
2.76662e-07
7.39305e-09
2.7664e-07
7.06648e-09
2.76589e-07
6.70085e-09
2.76535e-07
6.43965e-09
6.26046e-09
2.76452e-07
2.74032e-07
4.03554e-08
2.77094e-07
6.16679e-08
2.78341e-07
4.98105e-08
2.79397e-07
4.27038e-08
2.80195e-07
4.01354e-08
2.8067e-07
3.70715e-08
2.8102e-07
3.38629e-08
2.81332e-07
3.13842e-08
2.81604e-07
2.94581e-08
2.81837e-07
2.77913e-08
2.82042e-07
2.63023e-08
2.82228e-07
2.49785e-08
2.82398e-07
2.37969e-08
2.82554e-07
2.27307e-08
2.827e-07
2.17593e-08
2.82836e-07
2.08685e-08
2.82964e-07
2.0047e-08
2.83085e-07
1.92858e-08
2.832e-07
1.85774e-08
2.8331e-07
1.79155e-08
2.83416e-07
1.72949e-08
2.83517e-07
1.67108e-08
2.83615e-07
1.61591e-08
2.8371e-07
1.56363e-08
2.83802e-07
1.51389e-08
2.83891e-07
1.46641e-08
2.83978e-07
1.42095e-08
2.84063e-07
1.37728e-08
2.84145e-07
1.33522e-08
2.84225e-07
1.29461e-08
2.84303e-07
1.25529e-08
2.84379e-07
1.21715e-08
2.84453e-07
1.18e-08
2.84525e-07
1.1438e-08
2.84595e-07
1.10832e-08
2.84662e-07
1.07358e-08
2.84726e-07
1.03929e-08
2.84788e-07
1.00556e-08
2.84847e-07
9.71975e-09
2.84903e-07
9.38791e-09
2.84955e-07
9.05506e-09
2.85005e-07
8.72317e-09
2.85049e-07
8.39086e-09
2.85089e-07
8.05191e-09
2.85124e-07
7.72071e-09
2.85148e-07
7.36855e-09
2.85168e-07
7.04691e-09
2.85163e-07
6.70571e-09
2.85153e-07
6.4498e-09
6.28811e-09
2.85125e-07
2.82039e-07
3.6654e-08
2.85086e-07
5.86204e-08
2.8633e-07
4.85665e-08
2.87367e-07
4.16669e-08
2.8819e-07
3.93129e-08
2.8869e-07
3.65709e-08
2.8905e-07
3.35034e-08
2.89368e-07
3.10663e-08
2.89646e-07
2.91801e-08
2.89884e-07
2.75534e-08
2.90092e-07
2.60936e-08
2.90281e-07
2.47902e-08
2.90453e-07
2.36249e-08
2.90611e-07
2.25724e-08
2.90758e-07
2.16126e-08
2.90895e-07
2.07314e-08
2.91024e-07
1.99181e-08
2.91146e-07
1.91637e-08
2.91262e-07
1.84611e-08
2.91373e-07
1.78042e-08
2.9148e-07
1.71877e-08
2.91584e-07
1.66072e-08
2.91684e-07
1.60587e-08
2.91782e-07
1.55384e-08
2.91878e-07
1.50433e-08
2.91972e-07
1.45704e-08
2.92064e-07
1.41173e-08
2.92155e-07
1.36819e-08
2.92244e-07
1.32625e-08
2.92333e-07
1.28574e-08
2.92421e-07
1.24651e-08
2.92508e-07
1.20845e-08
2.92594e-07
1.1714e-08
2.92679e-07
1.13529e-08
2.92763e-07
1.09993e-08
2.92846e-07
1.0653e-08
2.92927e-07
1.03115e-08
2.93007e-07
9.9756e-09
2.93085e-07
9.64182e-09
2.93161e-07
9.3116e-09
2.93235e-07
8.98166e-09
2.93306e-07
8.65201e-09
2.93373e-07
8.32343e-09
2.93437e-07
7.9886e-09
2.93496e-07
7.66159e-09
2.93545e-07
7.31915e-09
2.9359e-07
7.00255e-09
2.93614e-07
6.68175e-09
2.93631e-07
6.43194e-09
6.27919e-09
2.9364e-07
2.90307e-07
3.32355e-08
2.93329e-07
5.55989e-08
2.94579e-07
4.73166e-08
2.95595e-07
4.06506e-08
2.96436e-07
3.84713e-08
2.96964e-07
3.60436e-08
2.97334e-07
3.31332e-08
2.97657e-07
3.0743e-08
2.97942e-07
2.88959e-08
2.98185e-07
2.73101e-08
2.98397e-07
2.5881e-08
2.98588e-07
2.45992e-08
2.98763e-07
2.34507e-08
2.98923e-07
2.24123e-08
2.99071e-07
2.14644e-08
2.99209e-07
2.05932e-08
2.99339e-07
1.97881e-08
2.99462e-07
1.90408e-08
2.99579e-07
1.83441e-08
2.99691e-07
1.76921e-08
2.99799e-07
1.70799e-08
2.99903e-07
1.65029e-08
3.00005e-07
1.59573e-08
3.00104e-07
1.54395e-08
3.00201e-07
1.49463e-08
3.00296e-07
1.44749e-08
3.0039e-07
1.40231e-08
3.00484e-07
1.35886e-08
3.00576e-07
1.31698e-08
3.00668e-07
1.27652e-08
3.0076e-07
1.23733e-08
3.00852e-07
1.1993e-08
3.00943e-07
1.16228e-08
3.01034e-07
1.1262e-08
3.01124e-07
1.09088e-08
3.01214e-07
1.0563e-08
3.01303e-07
1.02223e-08
3.01392e-07
9.88709e-09
3.01479e-07
9.55468e-09
3.01565e-07
9.22553e-09
3.01649e-07
8.89769e-09
3.01731e-07
8.5699e-09
3.0181e-07
8.2442e-09
3.01886e-07
7.91326e-09
3.01958e-07
7.58981e-09
3.0202e-07
7.25634e-09
3.02078e-07
6.94492e-09
3.02119e-07
6.64078e-09
3.02154e-07
6.39703e-09
6.24721e-09
3.02186e-07
2.98846e-07
3.00919e-08
3.01831e-07
5.26146e-08
3.03094e-07
4.6053e-08
3.04088e-07
3.96562e-08
3.04944e-07
3.76159e-08
3.05499e-07
3.54889e-08
3.05881e-07
3.27507e-08
3.0621e-07
3.0414e-08
3.06501e-07
2.86054e-08
3.06749e-07
2.70612e-08
3.06966e-07
2.56644e-08
3.0716e-07
2.44051e-08
3.07337e-07
2.32741e-08
3.07499e-07
2.22503e-08
3.07649e-07
2.13146e-08
3.07788e-07
2.04536e-08
3.07919e-07
1.96571e-08
3.08043e-07
1.89169e-08
3.08161e-07
1.82263e-08
3.08274e-07
1.75794e-08
3.08382e-07
1.69714e-08
3.08487e-07
1.6398e-08
3.08589e-07
1.58554e-08
3.08688e-07
1.53399e-08
3.08786e-07
1.48486e-08
3.08882e-07
1.43788e-08
3.08977e-07
1.3928e-08
3.09072e-07
1.34943e-08
3.09166e-07
1.3076e-08
3.09259e-07
1.26716e-08
3.09353e-07
1.22799e-08
3.09446e-07
1.18996e-08
3.09539e-07
1.15294e-08
3.09633e-07
1.11686e-08
3.09726e-07
1.08156e-08
3.09819e-07
1.04699e-08
3.09912e-07
1.01296e-08
3.10004e-07
9.79479e-09
3.10096e-07
9.46333e-09
3.10186e-07
9.13501e-09
3.10275e-07
8.80878e-09
3.10362e-07
8.48272e-09
3.10447e-07
8.15938e-09
3.10528e-07
7.83221e-09
3.10606e-07
7.51203e-09
3.10675e-07
7.18672e-09
3.1074e-07
6.88066e-09
3.10791e-07
6.58993e-09
3.10836e-07
6.35174e-09
6.2008e-09
3.10882e-07
3.07666e-07
2.72134e-08
3.10602e-07
4.96787e-08
3.11886e-07
4.47689e-08
3.12858e-07
3.86841e-08
3.13722e-07
3.6752e-08
3.14304e-07
3.4907e-08
3.147e-07
3.23544e-08
3.15035e-07
3.00792e-08
3.15331e-07
2.83087e-08
3.15586e-07
2.68062e-08
3.15807e-07
2.54434e-08
3.16005e-07
2.42078e-08
3.16184e-07
2.30948e-08
3.16348e-07
2.2086e-08
3.165e-07
2.1163e-08
3.16641e-07
2.03125e-08
3.16773e-07
1.95248e-08
3.16898e-07
1.87921e-08
3.17017e-07
1.81076e-08
3.1713e-07
1.74659e-08
3.17239e-07
1.68623e-08
3.17345e-07
1.62925e-08
3.17447e-07
1.57528e-08
3.17548e-07
1.52398e-08
3.17646e-07
1.47505e-08
3.17742e-07
1.4282e-08
3.17838e-07
1.38323e-08
3.17933e-07
1.33993e-08
3.18028e-07
1.29814e-08
3.18122e-07
1.25772e-08
3.18217e-07
1.21855e-08
3.18311e-07
1.18051e-08
3.18406e-07
1.14349e-08
3.185e-07
1.10739e-08
3.18595e-07
1.07209e-08
3.18689e-07
1.03752e-08
3.18784e-07
1.00353e-08
3.18878e-07
9.70069e-09
3.18971e-07
9.36998e-09
3.19064e-07
9.04242e-09
3.19155e-07
8.71756e-09
3.19245e-07
8.39321e-09
3.19332e-07
8.07198e-09
3.19416e-07
7.74848e-09
3.19496e-07
7.43153e-09
3.19569e-07
7.11364e-09
3.19637e-07
6.81307e-09
3.19694e-07
6.53306e-09
3.19746e-07
6.29964e-09
6.145e-09
3.19802e-07
3.16776e-07
2.45888e-08
3.19652e-07
4.68023e-08
3.20963e-07
4.34586e-08
3.21913e-07
3.7734e-08
3.2278e-07
3.58845e-08
3.23388e-07
3.42988e-08
3.238e-07
3.19429e-08
3.24141e-07
2.97382e-08
3.24444e-07
2.80059e-08
3.24705e-07
2.6545e-08
3.24931e-07
2.52176e-08
3.25132e-07
2.4007e-08
3.25314e-07
2.29127e-08
3.2548e-07
2.19193e-08
3.25634e-07
2.10094e-08
3.25777e-07
2.01698e-08
3.2591e-07
1.93912e-08
3.26036e-07
1.8666e-08
3.26156e-07
1.79879e-08
3.26271e-07
1.73515e-08
3.2638e-07
1.67524e-08
3.26487e-07
1.61863e-08
3.2659e-07
1.56497e-08
3.26691e-07
1.51391e-08
3.26789e-07
1.46517e-08
3.26887e-07
1.41847e-08
3.26983e-07
1.3736e-08
3.27079e-07
1.33037e-08
3.27174e-07
1.28861e-08
3.27269e-07
1.24821e-08
3.27364e-07
1.20904e-08
3.27459e-07
1.17099e-08
3.27555e-07
1.13395e-08
3.2765e-07
1.09784e-08
3.27746e-07
1.06253e-08
3.27842e-07
1.02796e-08
3.27937e-07
9.93984e-09
3.28032e-07
9.60552e-09
3.28127e-07
9.27545e-09
3.2822e-07
8.94868e-09
3.28313e-07
8.62507e-09
3.28404e-07
8.30247e-09
3.28492e-07
7.98326e-09
3.28577e-07
7.66335e-09
3.28659e-07
7.3497e-09
3.28734e-07
7.03854e-09
3.28804e-07
6.74349e-09
3.28865e-07
6.47204e-09
3.28922e-07
6.24246e-09
6.08256e-09
3.28985e-07
3.26186e-07
2.22053e-08
3.28992e-07
4.39963e-08
3.30333e-07
4.21181e-08
3.31262e-07
3.68045e-08
3.32128e-07
3.50182e-08
3.32761e-07
3.36656e-08
3.3319e-07
3.15146e-08
3.33537e-07
2.93906e-08
3.33846e-07
2.7697e-08
3.34114e-07
2.62773e-08
3.34345e-07
2.49866e-08
3.3455e-07
2.38024e-08
3.34735e-07
2.27275e-08
3.34904e-07
2.175e-08
3.3506e-07
2.08535e-08
3.35204e-07
2.00252e-08
3.3534e-07
1.9256e-08
3.35467e-07
1.85386e-08
3.35588e-07
1.7867e-08
3.35703e-07
1.72361e-08
3.35814e-07
1.66415e-08
3.35921e-07
1.60792e-08
3.36025e-07
1.55457e-08
3.36127e-07
1.50377e-08
3.36226e-07
1.45522e-08
3.36324e-07
1.40867e-08
3.36421e-07
1.3639e-08
3.36518e-07
1.32073e-08
3.36614e-07
1.27901e-08
3.36709e-07
1.23863e-08
3.36805e-07
1.19945e-08
3.36901e-07
1.16139e-08
3.36998e-07
1.12433e-08