/*--------------------------------*- C++ -*----------------------------------*\
  =========                 |
  \\      /  F ield         | OpenFOAM: The Open Source CFD Toolbox
   \\    /   O peration     | Website:  https://openfoam.org
    \\  /    A nd           | Version:  7
     \\/     M anipulation  |
\*---------------------------------------------------------------------------*/
FoamFile
{
    version     2.0;
    format      ascii;
    class       volVectorField;
    location    "0.08";
    object      U_0;
}
// * * * * * * * * * * * * * * * * * * * * * * * * * * * * * * * * * * * * * //

dimensions      [0 1 -1 0 0 0 0];

internalField   nonuniform List<vector> 
70000
(
(0.553412 0.0169782 0)
(0.251412 0.00340052 0)
(0.165918 0.000319072 0)
(0.132432 4.9116e-05 0)
(0.117327 4.41573e-05 0)
(0.107369 5.23134e-05 0)
(0.0994005 4.45054e-05 0)
(0.0929609 3.54209e-05 0)
(0.0877227 2.93751e-05 0)
(0.0833609 2.52295e-05 0)
(0.0796474 2.20602e-05 0)
(0.0764344 1.95187e-05 0)
(0.0736206 1.74452e-05 0)
(0.0711316 1.57315e-05 0)
(0.0689109 1.4297e-05 0)
(0.066915 1.30822e-05 0)
(0.0651093 1.20429e-05 0)
(0.0634664 1.11458e-05 0)
(0.061964 1.03652e-05 0)
(0.0605837 9.68098e-06 0)
(0.0593106 9.07753e-06 0)
(0.058132 8.54196e-06 0)
(0.0570373 8.064e-06 0)
(0.0560178 7.63517e-06 0)
(0.0550657 7.24849e-06 0)
(0.0541745 6.89828e-06 0)
(0.0533387 6.57941e-06 0)
(0.0525534 6.28869e-06 0)
(0.0518146 6.02105e-06 0)
(0.0511184 5.77688e-06 0)
(0.0504619 5.54845e-06 0)
(0.0498421 5.34253e-06 0)
(0.0492567 5.14455e-06 0)
(0.0487033 4.97306e-06 0)
(0.0481803 4.79967e-06 0)
(0.0476858 4.66172e-06 0)
(0.0472181 4.51468e-06 0)
(0.0467768 4.404e-06 0)
(0.0463578 4.31356e-06 0)
(0.0459669 4.18367e-06 0)
(0.0455877 4.28311e-06 0)
(0.0452503 3.92468e-06 0)
(0.0448928 4.69567e-06 0)
(0.044628 3.32914e-06 0)
(0.0442456 6.38738e-06 0)
(0.0441181 1.3203e-06 0)
(0.0435794 1.20965e-05 0)
(0.0437685 -5.85143e-06 0)
(0.0428774 3.89852e-05 0)
(0.0405438 -0.00157502 0)
(0.884862 0.0434935 0)
(0.650142 0.0201494 0)
(0.493967 0.0066051 0)
(0.403544 0.00275508 0)
(0.354835 0.00154813 0)
(0.323527 0.00113169 0)
(0.299638 0.000909095 0)
(0.280444 0.000744326 0)
(0.26475 0.000621454 0)
(0.251653 0.000530798 0)
(0.240501 0.00046194 0)
(0.230853 0.000407727 0)
(0.222402 0.000363913 0)
(0.214924 0.000327852 0)
(0.208251 0.000297743 0)
(0.202252 0.000272293 0)
(0.196823 0.00025055 0)
(0.191883 0.000231795 0)
(0.187364 0.000215479 0)
(0.183213 0.000201173 0)
(0.179382 0.000188538 0)
(0.175836 0.000177303 0)
(0.172542 0.000167249 0)
(0.169474 0.000158195 0)
(0.166609 0.000149993 0)
(0.163927 0.000142519 0)
(0.161412 0.00013567 0)
(0.15905 0.000129359 0)
(0.156827 0.000123509 0)
(0.154734 0.000118064 0)
(0.15276 0.000112955 0)
(0.150897 0.000108158 0)
(0.14914 0.000103595 0)
(0.147479 9.92919e-05 0)
(0.145911 9.51159e-05 0)
(0.144431 9.12001e-05 0)
(0.143033 8.7275e-05 0)
(0.141717 8.3682e-05 0)
(0.140471 7.98938e-05 0)
(0.139313 7.65771e-05 0)
(0.138197 7.29008e-05 0)
(0.137206 6.97056e-05 0)
(0.136178 6.65249e-05 0)
(0.13541 6.26442e-05 0)
(0.134355 6.20333e-05 0)
(0.133988 5.34715e-05 0)
(0.1326 6.69761e-05 0)
(0.133082 1.38724e-05 0)
(0.130943 0.00027247 0)
(0.129552 -0.00257625 0)
(0.991208 0.0499561 0)
(0.890919 0.0305636 0)
(0.762482 0.0146114 0)
(0.656524 0.00797128 0)
(0.585423 0.00487968 0)
(0.536062 0.00347415 0)
(0.498184 0.00273744 0)
(0.467575 0.00224261 0)
(0.442288 0.00187834 0)
(0.421016 0.0016062 0)
(0.402807 0.00139828 0)
(0.386995 0.00123456 0)
(0.373102 0.00110232 0)
(0.36078 0.000993467 0)
(0.34976 0.000902549 0)
(0.339835 0.000825668 0)
(0.33084 0.000759958 0)
(0.322644 0.000703257 0)
(0.315138 0.000653911 0)
(0.308235 0.000610629 0)
(0.301861 0.00057239 0)
(0.295954 0.000538377 0)
(0.290464 0.000507927 0)
(0.285346 0.000480495 0)
(0.280563 0.000455634 0)
(0.276084 0.000432969 0)
(0.271881 0.000412186 0)
(0.26793 0.000393021 0)
(0.264212 0.000375245 0)
(0.260707 0.000358673 0)
(0.257401 0.000343122 0)
(0.254279 0.000328479 0)
(0.251331 0.000314554 0)
(0.248545 0.000301349 0)
(0.245914 0.000288562 0)
(0.243427 0.000276443 0)
(0.241078 0.000264341 0)
(0.238865 0.000253096 0)
(0.236772 0.000241184 0)
(0.23482 0.000230784 0)
(0.232948 0.000218445 0)
(0.231273 0.000209078 0)
(0.229562 0.000195645 0)
(0.228243 0.000187419 0)
(0.226538 0.000173343 0)
(0.225824 0.000162639 0)
(0.223722 0.000163994 0)
(0.224216 7.38512e-05 0)
(0.221092 0.000409854 0)
(0.221743 -0.00247946 0)
(1.01554 0.0489544 0)
(1.00649 0.0357255 0)
(0.935878 0.0208205 0)
(0.852002 0.0134991 0)
(0.782232 0.0091979 0)
(0.727094 0.0067824 0)
(0.682023 0.00538518 0)
(0.644287 0.00444281 0)
(0.612308 0.00374697 0)
(0.584889 0.00321992 0)
(0.561093 0.00281258 0)
(0.540212 0.00248964 0)
(0.521716 0.00222764 0)
(0.505201 0.00201121 0)
(0.490351 0.00182987 0)
(0.476916 0.00167612 0)
(0.464693 0.00154441 0)
(0.453518 0.00143054 0)
(0.443256 0.00133127 0)
(0.433793 0.00124408 0)
(0.425036 0.00116696 0)
(0.416906 0.00109829 0)
(0.409335 0.00103676 0)
(0.402266 0.000981284 0)
(0.39565 0.000930979 0)
(0.389445 0.000885092 0)
(0.383615 0.000842997 0)
(0.378127 0.000804162 0)
(0.372956 0.000768132 0)
(0.368075 0.000734526 0)
(0.363466 0.000702988 0)
(0.359109 0.000673267 0)
(0.354988 0.00064502 0)
(0.351089 0.000618179 0)
(0.347401 0.000592236 0)
(0.343911 0.000567542 0)
(0.34061 0.00054297 0)
(0.337494 0.000519976 0)
(0.334543 0.000495683 0)
(0.331782 0.000474395 0)
(0.32914 0.000448773 0)
(0.326748 0.000430013 0)
(0.324343 0.00040044 0)
(0.322409 0.000386178 0)
(0.32007 0.000349496 0)
(0.318864 0.000338386 0)
(0.316173 0.000310675 0)
(0.316318 0.000202271 0)
(0.312586 0.000500514 0)
(0.313859 -0.00202035 0)
(1.01435 0.0460989 0)
(1.04798 0.037343 0)
(1.02456 0.0241885 0)
(0.974669 0.0175585 0)
(0.923475 0.0131088 0)
(0.876755 0.0102038 0)
(0.834611 0.00834195 0)
(0.796894 0.0070172 0)
(0.763378 0.00600424 0)
(0.733622 0.00521452 0)
(0.707112 0.00459053 0)
(0.683376 0.00408791 0)
(0.662015 0.0036753 0)
(0.642695 0.00333129 0)
(0.62514 0.00304086 0)
(0.609116 0.00279305 0)
(0.59443 0.00257962 0)
(0.580918 0.00239426 0)
(0.568441 0.00223206 0)
(0.556881 0.00208912 0)
(0.546139 0.00196233 0)
(0.536129 0.00184915 0)
(0.526776 0.00174754 0)
(0.518017 0.00165576 0)
(0.509797 0.00157242 0)
(0.502068 0.00149629 0)
(0.494788 0.00142638 0)
(0.487921 0.00136183 0)
(0.481435 0.00130189 0)
(0.475303 0.00124595 0)
(0.469499 0.00119344 0)
(0.464002 0.00114391 0)
(0.458793 0.00109685 0)
(0.453855 0.00105209 0)
(0.449174 0.00100887 0)
(0.444735 0.000967633 0)
(0.440529 0.000926729 0)
(0.436547 0.00088825 0)
(0.43277 0.000847832 0)
(0.42922 0.000812103 0)
(0.425827 0.000769381 0)
(0.422718 0.000737867 0)
(0.419635 0.000687979 0)
(0.417048 0.000664497 0)
(0.414113 0.000600577 0)
(0.412294 0.000585266 0)
(0.40914 0.000523151 0)
(0.408614 0.000397208 0)
(0.404701 0.000631474 0)
(0.405232 -0.00152683 0)
(1.00941 0.0430487 0)
(1.05563 0.0370988 0)
(1.05866 0.0253305 0)
(1.03629 0.0197638 0)
(1.00711 0.0157969 0)
(0.976103 0.012931 0)
(0.94459 0.0109572 0)
(0.913748 0.00947102 0)
(0.884434 0.00827655 0)
(0.857032 0.00730558 0)
(0.831617 0.00651264 0)
(0.808129 0.00585742 0)
(0.786444 0.00530862 0)
(0.766419 0.0048436 0)
(0.747906 0.00444575 0)
(0.730763 0.0041025 0)
(0.714857 0.00380411 0)
(0.700068 0.00354289 0)
(0.686288 0.00331274 0)
(0.673421 0.00310873 0)
(0.661381 0.00292684 0)
(0.650092 0.00276378 0)
(0.639487 0.0026168 0)
(0.629507 0.00248363 0)
(0.620099 0.00236233 0)
(0.611217 0.00225126 0)
(0.602821 0.00214905 0)
(0.594873 0.00205448 0)
(0.587342 0.00196655 0)
(0.580199 0.00188436 0)
(0.573419 0.00180712 0)
(0.566979 0.00173419 0)
(0.56086 0.00166487 0)
(0.555043 0.00159884 0)
(0.549514 0.00153513 0)
(0.544257 0.0014742 0)
(0.539261 0.00141392 0)
(0.534517 0.00135694 0)
(0.530008 0.0012975 0)
(0.525748 0.00124433 0)
(0.521678 0.0011818 0)
(0.517905 0.00113428 0)
(0.514207 0.00106188 0)
(0.510983 0.0010248 0)
(0.50752 0.000933406 0)
(0.505044 0.000905595 0)
(0.501535 0.000813753 0)
(0.500174 0.000658124 0)
(0.496296 0.000840027 0)
(0.495652 -0.00100276 0)
(1.00635 0.0401809 0)
(1.05241 0.0361525 0)
(1.06604 0.0252546 0)
(1.05951 0.0205694 0)
(1.04687 0.0172244 0)
(1.03082 0.0146492 0)
(1.01193 0.0128153 0)
(0.99126 0.0113857 0)
(0.96988 0.0101838 0)
(0.948518 0.0091638 0)
(0.927619 0.00829946 0)
(0.907445 0.00756274 0)
(0.888143 0.00692935 0)
(0.869781 0.00638068 0)
(0.852378 0.00590241 0)
(0.835919 0.00548314 0)
(0.82037 0.00511365 0)
(0.805687 0.00478638 0)
(0.79182 0.00449507 0)
(0.778719 0.00423455 0)
(0.766331 0.00400046 0)
(0.75461 0.00378917 0)
(0.743509 0.00359758 0)
(0.732984 0.00342306 0)
(0.722998 0.00326335 0)
(0.713513 0.00311652 0)
(0.704497 0.0029809 0)
(0.69592 0.00285503 0)
(0.687754 0.00273766 0)
(0.679974 0.00262767 0)
(0.67256 0.00252409 0)
(0.665489 0.00242609 0)
(0.658746 0.0023328 0)
(0.652312 0.00224377 0)
(0.646175 0.00215782 0)
(0.640318 0.00207543 0)
(0.634735 0.00199405 0)
(0.629413 0.00191672 0)
(0.62434 0.00183661 0)
(0.619522 0.00176396 0)
(0.614917 0.00168025 0)
(0.610601 0.00161412 0)
(0.606406 0.0015188 0)
(0.602638 0.00146373 0)
(0.598749 0.00134735 0)
(0.595669 0.00129799 0)
(0.591893 0.00118414 0)
(0.589731 0.000989157 0)
(0.585898 0.0011268 0)
(0.584209 -0.000425323 0)
(1.00506 0.0375039 0)
(1.04762 0.0350547 0)
(1.06395 0.0247079 0)
(1.06417 0.0206015 0)
(1.06067 0.0177635 0)
(1.05476 0.0154908 0)
(1.046 0.0138718 0)
(1.03482 0.0126067 0)
(1.02192 0.0115149 0)
(1.00792 0.010557 0)
(0.993276 0.00971917 0)
(0.978339 0.00898391 0)
(0.963376 0.00833457 0)
(0.948581 0.00775828 0)
(0.934089 0.00724497 0)
(0.919991 0.00678632 0)
(0.906345 0.00637524 0)
(0.893184 0.00600566 0)
(0.880523 0.00567233 0)
(0.868364 0.00537071 0)
(0.856702 0.00509687 0)
(0.845525 0.00484739 0)
(0.834817 0.00461929 0)
(0.824562 0.00440996 0)
(0.814741 0.00421712 0)
(0.805334 0.00403878 0)
(0.796323 0.00387316 0)
(0.78769 0.00371872 0)
(0.779418 0.00357407 0)
(0.77149 0.003438 0)
(0.763892 0.00330941 0)
(0.756607 0.00318735 0)
(0.749625 0.00307084 0)
(0.74293 0.00295933 0)
(0.736516 0.0028515 0)
(0.730368 0.0027478 0)
(0.724482 0.00264539 0)
(0.718846 0.00254755 0)
(0.713453 0.00244674 0)
(0.708305 0.00235406 0)
(0.703373 0.00224933 0)
(0.69871 0.00216328 0)
(0.694196 0.00204615 0)
(0.690049 0.00196996 0)
(0.685879 0.00183219 0)
(0.682345 0.00175492 0)
(0.678396 0.00162491 0)
(0.675604 0.00138955 0)
(0.671784 0.00148373 0)
(0.669325 0.000201569 0)
(1.00451 0.0349682 0)
(1.04359 0.0339753 0)
(1.05992 0.0240579 0)
(1.06221 0.0203131 0)
(1.06249 0.0178295 0)
(1.06182 0.0157712 0)
(1.05924 0.0143259 0)
(1.05469 0.0132261 0)
(1.04848 0.0122759 0)
(1.04092 0.0114292 0)
(1.03231 0.0106749 0)
(1.02288 0.00999944 0)
(1.01288 0.00939017 0)
(1.0025 0.00883789 0)
(0.9919 0.00833588 0)
(0.981216 0.00787872 0)
(0.970549 0.00746172 0)
(0.959978 0.00708072 0)
(0.949564 0.00673199 0)
(0.939349 0.00641218 0)
(0.929367 0.00611825 0)
(0.919638 0.00584747 0)
(0.910176 0.00559736 0)
(0.900991 0.0053657 0)
(0.892086 0.00515049 0)
(0.883461 0.00494991 0)
(0.875115 0.00476233 0)
(0.867045 0.00458627 0)
(0.859245 0.00442042 0)
(0.85171 0.00426355 0)
(0.844434 0.00411458 0)
(0.837411 0.00397252 0)
(0.830636 0.00383636 0)
(0.8241 0.00370551 0)
(0.817801 0.00357859 0)
(0.81173 0.003456 0)
(0.805886 0.0033348 0)
(0.800261 0.0032183 0)
(0.794853 0.00309867 0)
(0.789661 0.00298724 0)
(0.784669 0.00286337 0)
(0.779911 0.00275784 0)
(0.775309 0.0026214 0)
(0.77101 0.00252311 0)
(0.76675 0.00236793 0)
(0.762976 0.00226037 0)
(0.758986 0.00211766 0)
(0.755802 0.0018479 0)
(0.752023 0.00189726 0)
(0.749078 0.000860714 0)
(1.00412 0.0325379 0)
(1.04026 0.0329225 0)
(1.05616 0.0234241 0)
(1.05885 0.0199297 0)
(1.06022 0.0177017 0)
(1.06159 0.015775 0)
(1.06195 0.014431 0)
(1.06105 0.0134463 0)
(1.05899 0.0126117 0)
(1.05587 0.0118701 0)
(1.05179 0.0112082 0)
(1.04687 0.0106118 0)
(1.04122 0.0100684 0)
(1.03498 0.00956944 0)
(1.02826 0.00910936 0)
(1.02118 0.00868412 0)
(1.01383 0.00829044 0)
(1.00629 0.00792553 0)
(0.998644 0.00758687 0)
(0.990943 0.00727219 0)
(0.983238 0.00697936 0)
(0.975568 0.00670644 0)
(0.967967 0.00645158 0)
(0.96046 0.00621309 0)
(0.953068 0.00598941 0)
(0.945806 0.00577907 0)
(0.938689 0.00558074 0)
(0.931723 0.00539313 0)
(0.924918 0.00521513 0)
(0.918276 0.00504564 0)
(0.911803 0.00488367 0)
(0.9055 0.00472831 0)
(0.899369 0.00457858 0)
(0.89341 0.00443393 0)
(0.887624 0.00429299 0)
(0.882009 0.00415615 0)
(0.876569 0.00402045 0)
(0.871299 0.00388916 0)
(0.866201 0.00375447 0)
(0.861277 0.00362747 0)
(0.856519 0.00348799 0)
(0.85195 0.00336538 0)
(0.84752 0.00321341 0)
(0.843329 0.00309439 0)
(0.839203 0.00292611 0)
(0.835435 0.00278967 0)
(0.831577 0.00263661 0)
(0.82826 0.00234233 0)
(0.824621 0.00234729 0)
(0.821467 0.00152665 0)
(1.00374 0.0302038 0)
(1.03727 0.0318739 0)
(1.05282 0.0228216 0)
(1.05561 0.0195287 0)
(1.05713 0.0175125 0)
(1.05905 0.0156747 0)
(1.06048 0.0143783 0)
(1.06116 0.013457 0)
(1.06116 0.0126957 0)
(1.06051 0.0120279 0)
(1.05921 0.0114377 0)
(1.05726 0.0109098 0)
(1.05472 0.0104299 0)
(1.05163 0.0099885 0)
(1.04804 0.00957946 0)
(1.04402 0.00919868 0)
(1.03964 0.00884311 0)
(1.03494 0.00851035 0)
(1.03 0.00819839 0)
(1.02485 0.0079055 0)
(1.01954 0.00763013 0)
(1.01412 0.00737082 0)
(1.00862 0.00712625 0)
(1.00308 0.00689514 0)
(0.997508 0.00667633 0)
(0.991941 0.00646869 0)
(0.986395 0.0062712 0)
(0.980889 0.00608284 0)
(0.975436 0.00590272 0)
(0.970047 0.0057299 0)
(0.964734 0.00556358 0)
(0.959504 0.00540295 0)
(0.954365 0.00524714 0)
(0.949323 0.00509567 0)
(0.944383 0.00494722 0)
(0.93955 0.00480223 0)
(0.934828 0.00465776 0)
(0.930219 0.00451705 0)
(0.925729 0.00437247 0)
(0.921361 0.00423457 0)
(0.917112 0.00408434 0)
(0.913 0.00394862 0)
(0.908996 0.00378598 0)
(0.905166 0.00364963 0)
(0.9014 0.00347293 0)
(0.897885 0.00331202 0)
(0.894346 0.00315092 0)
(0.891151 0.0028434 0)
(0.887789 0.00280827 0)
(0.884685 0.00217015 0)
(1.00337 0.0279685 0)
(1.03443 0.0308173 0)
(1.04972 0.0222439 0)
(1.05265 0.0191249 0)
(1.05412 0.0173049 0)
(1.0561 0.0155452 0)
(1.05781 0.014271 0)
(1.05901 0.0133805 0)
(1.05982 0.0126597 0)
(1.06027 0.012035 0)
(1.06036 0.0114895 0)
(1.06005 0.0110078 0)
(1.05934 0.0105745 0)
(1.05824 0.0101788 0)
(1.05676 0.00981373 0)
(1.05492 0.00947436 0)
(1.05275 0.00915721 0)
(1.05028 0.00885962 0)
(1.04753 0.00857947 0)
(1.04455 0.00831506 0)
(1.04135 0.00806493 0)
(1.03797 0.00782781 0)
(1.03444 0.00760254 0)
(1.03078 0.00738806 0)
(1.02702 0.00718342 0)
(1.02318 0.00698771 0)
(1.01927 0.0068001 0)
(1.01533 0.00661979 0)
(1.01135 0.00644603 0)
(1.00737 0.00627809 0)
(1.00338 0.00611526 0)
(0.999402 0.0059569 0)
(0.995447 0.00580223 0)
(0.991521 0.00565085 0)
(0.987633 0.0055015 0)
(0.98379 0.0053547 0)
(0.979999 0.00520756 0)
(0.976265 0.00506324 0)
(0.972596 0.00491444 0)
(0.968995 0.00477099 0)
(0.965465 0.00461544 0)
(0.962021 0.00447151 0)
(0.958645 0.00430353 0)
(0.955382 0.00415456 0)
(0.952167 0.00397427 0)
(0.94911 0.00379518 0)
(0.946057 0.00362869 0)
(0.943201 0.00331936 0)
(0.940254 0.00325057 0)
(0.937423 0.00276316 0)
(1.00301 0.0258354 0)
(1.03171 0.0297486 0)
(1.04672 0.0216876 0)
(1.04986 0.0187183 0)
(1.05131 0.0170856 0)
(1.05325 0.0154088 0)
(1.05498 0.01415 0)
(1.0563 0.0132756 0)
(1.05735 0.0125779 0)
(1.05819 0.0119769 0)
(1.05883 0.0114559 0)
(1.05926 0.0110005 0)
(1.05945 0.0105956 0)
(1.05941 0.0102296 0)
(1.05913 0.00989489 0)
(1.0586 0.00958598 0)
(1.05783 0.00929885 0)
(1.05683 0.00903041 0)
(1.05562 0.0087782 0)
(1.05419 0.00854028 0)
(1.05257 0.00831503 0)
(1.05078 0.00810107 0)
(1.04882 0.0078972 0)
(1.04673 0.00770235 0)
(1.0445 0.00751558 0)
(1.04216 0.00733604 0)
(1.03972 0.00716296 0)
(1.03719 0.00699562 0)
(1.0346 0.00683338 0)
(1.03195 0.00667557 0)
(1.02925 0.00652159 0)
(1.02651 0.00637086 0)
(1.02375 0.00622268 0)
(1.02097 0.00607672 0)
(1.01818 0.00593177 0)
(1.01539 0.00578838 0)
(1.0126 0.00564376 0)
(1.00983 0.00550091 0)
(1.00707 0.005353 0)
(1.00434 0.00520892 0)
(1.00164 0.00505312 0)
(0.998976 0.00490579 0)
(0.996345 0.0047375 0)
(0.993773 0.00458102 0)
(0.991228 0.00440151 0)
(0.988766 0.00421132 0)
(0.98631 0.00404226 0)
(0.983945 0.00374126 0)
(0.981519 0.0036468 0)
(0.979121 0.00328116 0)
(1.00268 0.0238072 0)
(1.02911 0.0286661 0)
(1.04381 0.021152 0)
(1.04716 0.0183086 0)
(1.04862 0.0168529 0)
(1.05052 0.015268 0)
(1.05225 0.0140263 0)
(1.05358 0.0131635 0)
(1.05466 0.0124822 0)
(1.0556 0.0118961 0)
(1.05641 0.0113887 0)
(1.0571 0.0109475 0)
(1.05766 0.0105581 0)
(1.05808 0.010209 0)
(1.05836 0.00989224 0)
(1.0585 0.00960224 0)
(1.05849 0.00933468 0)
(1.05833 0.00908616 0)
(1.05803 0.00885399 0)
(1.05758 0.00863596 0)
(1.05698 0.00843025 0)
(1.05625 0.0082353 0)
(1.05539 0.00804978 0)
(1.05441 0.00787249 0)
(1.05331 0.00770241 0)
(1.05211 0.00753862 0)
(1.0508 0.00738033 0)
(1.04941 0.00722679 0)
(1.04794 0.00707737 0)
(1.0464 0.00693142 0)
(1.04479 0.00678836 0)
(1.04312 0.00664765 0)
(1.04141 0.00650858 0)
(1.03965 0.00637089 0)
(1.03786 0.00623337 0)
(1.03604 0.00609656 0)
(1.0342 0.0059578 0)
(1.03234 0.00581983 0)
(1.03047 0.00567642 0)
(1.02859 0.00553531 0)
(1.02671 0.0053831 0)
(1.02484 0.00523622 0)
(1.02297 0.00507152 0)
(1.02112 0.00491211 0)
(1.01927 0.00473675 0)
(1.01745 0.00454209 0)
(1.01563 0.00437306 0)
(1.01383 0.00408826 0)
(1.01197 0.00397645 0)
(1.01009 0.00370694 0)
(1.00238 0.0218856 0)
(1.02664 0.027569 0)
(1.04099 0.0206368 0)
(1.04456 0.0178974 0)
(1.04603 0.0166056 0)
(1.0479 0.0151214 0)
(1.04963 0.0139011 0)
(1.05095 0.013049 0)
(1.05202 0.0123825 0)
(1.05297 0.0118088 0)
(1.05381 0.0113107 0)
(1.05456 0.0108781 0)
(1.05523 0.0104975 0)
(1.05582 0.0101577 0)
(1.05632 0.00985087 0)
(1.05674 0.00957145 0)
(1.05708 0.00931513 0)
(1.05733 0.00907845 0)
(1.05749 0.00885859 0)
(1.05756 0.00865326 0)
(1.05753 0.00846049 0)
(1.05742 0.00827861 0)
(1.05722 0.00810615 0)
(1.05694 0.00794182 0)
(1.05657 0.00778448 0)
(1.05612 0.00763314 0)
(1.05559 0.00748691 0)
(1.05499 0.00734501 0)
(1.05432 0.00720676 0)
(1.05359 0.0070715 0)
(1.05279 0.00693861 0)
(1.05195 0.00680756 0)
(1.05105 0.00667762 0)
(1.0501 0.00654853 0)
(1.04912 0.00641908 0)
(1.04809 0.00628978 0)
(1.04703 0.00615806 0)
(1.04594 0.00602639 0)
(1.04483 0.00588914 0)
(1.04369 0.00575286 0)
(1.04253 0.00560633 0)
(1.04136 0.0054623 0)
(1.04018 0.00530349 0)
(1.03898 0.00514453 0)
(1.03778 0.00497527 0)
(1.03657 0.00478147 0)
(1.03534 0.00461447 0)
(1.0341 0.00435088 0)
(1.03279 0.00422924 0)
(1.03143 0.00403373 0)
(1.0021 0.0200715 0)
(1.0243 0.0264593 0)
(1.03825 0.0201399 0)
(1.04203 0.0174868 0)
(1.04352 0.0163436 0)
(1.04537 0.0149676 0)
(1.0471 0.0137739 0)
(1.04842 0.0129325 0)
(1.04948 0.0122807 0)
(1.05041 0.0117194 0)
(1.05124 0.0112297 0)
(1.052 0.0108038 0)
(1.05269 0.0104293 0)
(1.05332 0.0100954 0)
(1.05388 0.00979441 0)
(1.0544 0.00952098 0)
(1.05486 0.00927089 0)
(1.05527 0.00904075 0)
(1.05563 0.00882777 0)
(1.05594 0.00862964 0)
(1.05619 0.00844438 0)
(1.05639 0.00827029 0)
(1.05654 0.00810584 0)
(1.05663 0.00794967 0)
(1.05667 0.00780059 0)
(1.05666 0.00765753 0)
(1.05659 0.00751957 0)
(1.05648 0.00738587 0)
(1.05632 0.00725569 0)
(1.05611 0.00712837 0)
(1.05586 0.00700324 0)
(1.05556 0.00687978 0)
(1.05522 0.00675721 0)
(1.05485 0.00663528 0)
(1.05444 0.00651276 0)
(1.05399 0.00639009 0)
(1.05351 0.00626485 0)
(1.053 0.00613915 0)
(1.05246 0.00600804 0)
(1.0519 0.00587681 0)
(1.05131 0.00573639 0)
(1.05069 0.00559609 0)
(1.05006 0.00544382 0)
(1.04941 0.00528727 0)
(1.04873 0.00512464 0)
(1.04804 0.0049353 0)
(1.04731 0.00477152 0)
(1.04655 0.00453124 0)
(1.04572 0.00440579 0)
(1.04483 0.00426551 0)
(1.00185 0.0183651 0)
(1.0221 0.0253409 0)
(1.03562 0.0196575 0)
(1.0396 0.0170783 0)
(1.04111 0.0160676 0)
(1.04293 0.0148058 0)
(1.04465 0.0136442 0)
(1.04598 0.0128138 0)
(1.04703 0.0121768 0)
(1.04794 0.0116284 0)
(1.04876 0.0111474 0)
(1.04951 0.0107279 0)
(1.05019 0.0103588 0)
(1.05082 0.0100296 0)
(1.05139 0.00973295 0)
(1.05193 0.00946352 0)
(1.05242 0.00921729 0)
(1.05288 0.00899095 0)
(1.05331 0.00878181 0)
(1.05371 0.0085876 0)
(1.05407 0.0084064 0)
(1.0544 0.00823651 0)
(1.0547 0.00807643 0)
(1.05497 0.00792477 0)
(1.05521 0.00778033 0)
(1.05542 0.00764202 0)
(1.0556 0.00750887 0)
(1.05575 0.00738005 0)
(1.05587 0.00725478 0)
(1.05596 0.00713241 0)
(1.05602 0.00701223 0)
(1.05605 0.00689373 0)
(1.05606 0.00677611 0)
(1.05604 0.00665911 0)
(1.05599 0.00654151 0)
(1.05592 0.00642367 0)
(1.05582 0.00630334 0)
(1.0557 0.00618225 0)
(1.05556 0.00605612 0)
(1.05539 0.00592905 0)
(1.0552 0.00579396 0)
(1.05499 0.00565715 0)
(1.05475 0.00551085 0)
(1.05449 0.00535745 0)
(1.05421 0.00520086 0)
(1.0539 0.00501788 0)
(1.05356 0.00485777 0)
(1.05317 0.00464052 0)
(1.05271 0.00451547 0)
(1.0522 0.00441477 0)
(1.00162 0.0167663 0)
(1.02004 0.0242182 0)
(1.03309 0.0191855 0)
(1.03725 0.0166737 0)
(1.03879 0.0157787 0)
(1.04057 0.0146353 0)
(1.04229 0.0135117 0)
(1.04362 0.0126928 0)
(1.04466 0.0120706 0)
(1.04557 0.0115358 0)
(1.04638 0.011064 0)
(1.04711 0.010651 0)
(1.04778 0.0102873 0)
(1.04839 0.00996272 0)
(1.04896 0.00966994 0)
(1.04949 0.00940386 0)
(1.04999 0.00916059 0)
(1.05045 0.00893693 0)
(1.0509 0.00873027 0)
(1.05131 0.00853841 0)
(1.05171 0.00835949 0)
(1.05209 0.00819186 0)
(1.05244 0.00803403 0)
(1.05278 0.00788465 0)
(1.0531 0.00774253 0)
(1.0534 0.00760656 0)
(1.05369 0.00747579 0)
(1.05396 0.00734939 0)
(1.05422 0.0072266 0)
(1.05445 0.00710675 0)
(1.05468 0.00698915 0)
(1.05488 0.0068733 0)
(1.05508 0.0067584 0)
(1.05525 0.00664418 0)
(1.05541 0.00652946 0)
(1.05556 0.0064145 0)
(1.05568 0.00629727 0)
(1.05579 0.00617909 0)
(1.05589 0.0060564 0)
(1.05597 0.00593215 0)
(1.05603 0.00580106 0)
(1.05607 0.00566689 0)
(1.05609 0.00552531 0)
(1.0561 0.00537499 0)
(1.05608 0.00522328 0)
(1.05603 0.00504729 0)
(1.05595 0.00489079 0)
(1.05582 0.00469461 0)
(1.05563 0.00457251 0)
(1.0554 0.00449867 0)
(1.00142 0.0152742 0)
(1.01811 0.0230952 0)
(1.03067 0.0187199 0)
(1.03498 0.0162744 0)
(1.03657 0.0154783 0)
(1.03831 0.0144556 0)
(1.04002 0.0133761 0)
(1.04135 0.0125696 0)
(1.04239 0.0119619 0)
(1.04328 0.0114413 0)
(1.04408 0.0109794 0)
(1.0448 0.0105732 0)
(1.04546 0.010215 0)
(1.04606 0.00989511 0)
(1.04662 0.00960623 0)
(1.04714 0.00934342 0)
(1.04762 0.0091029 0)
(1.04808 0.00888158 0)
(1.04852 0.00867692 0)
(1.04894 0.0084868 0)
(1.04934 0.00830941 0)
(1.04972 0.00814315 0)
(1.05009 0.00798657 0)
(1.05044 0.00783835 0)
(1.05079 0.0076973 0)
(1.05113 0.00756235 0)
(1.05145 0.00743255 0)
(1.05177 0.00730709 0)
(1.05208 0.00718522 0)
(1.05238 0.0070663 0)
(1.05267 0.00694967 0)
(1.05296 0.00683483 0)
(1.05323 0.00672101 0)
(1.0535 0.00660794 0)
(1.05377 0.0064945 0)
(1.05402 0.00638085 0)
(1.05426 0.00626518 0)
(1.0545 0.00614845 0)
(1.05472 0.00602776 0)
(1.05493 0.00590506 0)
(1.05513 0.00577658 0)
(1.05532 0.00564414 0)
(1.0555 0.00550589 0)
(1.05565 0.00535825 0)
(1.05579 0.00521014 0)
(1.0559 0.00504096 0)
(1.05598 0.00488782 0)
(1.05602 0.00470989 0)
(1.056 0.00459198 0)
(1.05595 0.00453503 0)
(1.00124 0.0138874 0)
(1.01632 0.0219759 0)
(1.02835 0.0182571 0)
(1.03281 0.0158816 0)
(1.03444 0.0151679 0)
(1.03614 0.014266 0)
(1.03784 0.0132369 0)
(1.03918 0.0124441 0)
(1.04021 0.0118507 0)
(1.04109 0.0113448 0)
(1.04188 0.0108933 0)
(1.04259 0.0104944 0)
(1.04323 0.0101419 0)
(1.04382 0.00982683 0)
(1.04437 0.00954197 0)
(1.04488 0.00928249 0)
(1.04535 0.00904472 0)
(1.0458 0.0088257 0)
(1.04623 0.00862294 0)
(1.04664 0.00843438 0)
(1.04703 0.00825828 0)
(1.04741 0.00809308 0)
(1.04777 0.00793736 0)
(1.04813 0.00778983 0)
(1.04848 0.00764931 0)
(1.04882 0.00751474 0)
(1.04915 0.00738522 0)
(1.04948 0.00725994 0)
(1.0498 0.00713817 0)
(1.05012 0.00701931 0)
(1.05044 0.00690272 0)
(1.05075 0.00678792 0)
(1.05106 0.00667419 0)
(1.05137 0.00656123 0)
(1.05168 0.00644803 0)
(1.05198 0.00633463 0)
(1.05227 0.00621947 0)
(1.05256 0.00610315 0)
(1.05284 0.00598338 0)
(1.05312 0.00586128 0)
(1.05339 0.00573432 0)
(1.05365 0.00560288 0)
(1.0539 0.0054668 0)
(1.05413 0.00532141 0)
(1.05435 0.00517584 0)
(1.05455 0.00501294 0)
(1.05472 0.00486296 0)
(1.05485 0.00470022 0)
(1.05493 0.00458685 0)
(1.055 0.00453928 0)
(1.00107 0.0126039 0)
(1.01466 0.0208644 0)
(1.02614 0.0177934 0)
(1.03072 0.0154962 0)
(1.0324 0.0148493 0)
(1.03406 0.0140662 0)
(1.03575 0.0130937 0)
(1.03709 0.0123165 0)
(1.03812 0.011737 0)
(1.03899 0.0112461 0)
(1.03976 0.0108058 0)
(1.04047 0.0104144 0)
(1.0411 0.0100679 0)
(1.04168 0.00975779 0)
(1.04221 0.00947709 0)
(1.04271 0.00922106 0)
(1.04318 0.00898614 0)
(1.04362 0.00876945 0)
(1.04403 0.00856861 0)
(1.04443 0.00838161 0)
(1.04482 0.00820676 0)
(1.04518 0.00804253 0)
(1.04554 0.00788755 0)
(1.04589 0.00774054 0)
(1.04623 0.00760034 0)
(1.04657 0.00746593 0)
(1.0469 0.00733638 0)
(1.04722 0.00721094 0)
(1.04755 0.0070889 0)
(1.04787 0.00696968 0)
(1.04819 0.00685267 0)
(1.04851 0.00673743 0)
(1.04883 0.00662326 0)
(1.04915 0.00650986 0)
(1.04946 0.00639632 0)
(1.04978 0.00628257 0)
(1.05009 0.00616728 0)
(1.0504 0.00605077 0)
(1.0507 0.00593125 0)
(1.05101 0.0058092 0)
(1.0513 0.005683 0)
(1.05159 0.00555211 0)
(1.05187 0.00541738 0)
(1.05214 0.00527392 0)
(1.0524 0.00513022 0)
(1.05263 0.00497295 0)
(1.05284 0.00482603 0)
(1.05302 0.00467562 0)
(1.05317 0.00456661 0)
(1.05329 0.00452301 0)
(1.00093 0.0114211 0)
(1.01313 0.0197647 0)
(1.02404 0.017326 0)
(1.02872 0.0151188 0)
(1.03046 0.0145246 0)
(1.03208 0.0138558 0)
(1.03374 0.0129459 0)
(1.03508 0.0121867 0)
(1.03612 0.0116208 0)
(1.03698 0.0111452 0)
(1.03774 0.0107166 0)
(1.03844 0.0103333 0)
(1.03906 0.00999289 0)
(1.03963 0.00968792 0)
(1.04016 0.00941155 0)
(1.04064 0.00915907 0)
(1.0411 0.00892709 0)
(1.04153 0.00871282 0)
(1.04194 0.00851395 0)
(1.04233 0.00832854 0)
(1.0427 0.00815495 0)
(1.04306 0.0079917 0)
(1.04341 0.00783744 0)
(1.04375 0.00769092 0)
(1.04408 0.00755099 0)
(1.04441 0.00741663 0)
(1.04473 0.00728696 0)
(1.04505 0.00716123 0)
(1.04537 0.00703876 0)
(1.04569 0.00691901 0)
(1.046 0.00680139 0)
(1.04632 0.00668547 0)
(1.04663 0.00657062 0)
(1.04695 0.00645653 0)
(1.04727 0.00634236 0)
(1.04758 0.00622797 0)
(1.04789 0.00611224 0)
(1.04821 0.00599523 0)
(1.04852 0.00587558 0)
(1.04883 0.00575329 0)
(1.04913 0.00562743 0)
(1.04943 0.00549688 0)
(1.04972 0.00536301 0)
(1.05 0.00522128 0)
(1.05027 0.00507909 0)
(1.05052 0.00492685 0)
(1.05074 0.00478302 0)
(1.05095 0.00464244 0)
(1.05112 0.00453731 0)
(1.05128 0.00449395 0)
(1.0008 0.0103357 0)
(1.01173 0.018681 0)
(1.02206 0.0168521 0)
(1.0268 0.0147497 0)
(1.02861 0.0141959 0)
(1.03019 0.0136348 0)
(1.03183 0.0127929 0)
(1.03317 0.0120546 0)
(1.0342 0.0115021 0)
(1.03506 0.0110418 0)
(1.03581 0.0106256 0)
(1.0365 0.0102508 0)
(1.03711 0.00991678 0)
(1.03767 0.00961714 0)
(1.03819 0.00934524 0)
(1.03867 0.00909647 0)
(1.03912 0.00886752 0)
(1.03954 0.00865574 0)
(1.03993 0.0084589 0)
(1.04031 0.00827514 0)
(1.04068 0.00810285 0)
(1.04103 0.0079406 0)
(1.04137 0.00778708 0)
(1.0417 0.00764104 0)
(1.04203 0.00750136 0)
(1.04235 0.00736704 0)
(1.04266 0.00723721 0)
(1.04297 0.00711115 0)
(1.04329 0.00698819 0)
(1.0436 0.00686784 0)
(1.0439 0.00674952 0)
(1.04421 0.00663284 0)
(1.04452 0.00651721 0)
(1.04483 0.0064023 0)
(1.04515 0.00628738 0)
(1.04546 0.00617223 0)
(1.04577 0.00605591 0)
(1.04608 0.00593827 0)
(1.04638 0.00581831 0)
(1.04669 0.00569569 0)
(1.04699 0.00556992 0)
(1.04729 0.00543964 0)
(1.04758 0.00530638 0)
(1.04786 0.00516628 0)
(1.04813 0.00502548 0)
(1.04838 0.00487772 0)
(1.04861 0.00473704 0)
(1.04882 0.00460421 0)
(1.04901 0.00450232 0)
(1.04919 0.00445676 0)
(1.00069 0.00934382 0)
(1.01046 0.0176173 0)
(1.02019 0.0163693 0)
(1.02497 0.0143888 0)
(1.02685 0.013865 0)
(1.02839 0.0134034 0)
(1.03 0.0126341 0)
(1.03134 0.0119201 0)
(1.03238 0.011381 0)
(1.03323 0.010936 0)
(1.03397 0.0105327 0)
(1.03465 0.0101669 0)
(1.03526 0.00983951 0)
(1.03581 0.00954537 0)
(1.03632 0.0092781 0)
(1.03679 0.00903316 0)
(1.03723 0.00880735 0)
(1.03764 0.00859815 0)
(1.03803 0.00840342 0)
(1.0384 0.00822135 0)
(1.03876 0.0080504 0)
(1.0391 0.00788919 0)
(1.03943 0.00773641 0)
(1.03976 0.00759087 0)
(1.04007 0.00745145 0)
(1.04038 0.00731717 0)
(1.04069 0.00718716 0)
(1.041 0.00706074 0)
(1.0413 0.00693728 0)
(1.0416 0.00681628 0)
(1.04191 0.00669723 0)
(1.04221 0.00657975 0)
(1.04251 0.00646329 0)
(1.04282 0.00634753 0)
(1.04312 0.0062318 0)
(1.04343 0.00611584 0)
(1.04373 0.00599885 0)
(1.04403 0.00588056 0)
(1.04433 0.0057602 0)
(1.04463 0.00563722 0)
(1.04493 0.00551144 0)
(1.04522 0.00538143 0)
(1.04551 0.00524868 0)
(1.04578 0.00511014 0)
(1.04605 0.00497074 0)
(1.0463 0.00482698 0)
(1.04653 0.00468946 0)
(1.04675 0.0045627 0)
(1.04694 0.00446333 0)
(1.04714 0.00441401 0)
(1.0006 0.00844127 0)
(1.00929 0.0165778 0)
(1.01843 0.0158759 0)
(1.02323 0.0140359 0)
(1.02517 0.0135338 0)
(1.02668 0.013162 0)
(1.02826 0.0124689 0)
(1.0296 0.0117831 0)
(1.03064 0.0112574 0)
(1.03148 0.0108275 0)
(1.03222 0.0104377 0)
(1.03289 0.0100814 0)
(1.03349 0.00976097 0)
(1.03404 0.00947251 0)
(1.03454 0.00921003 0)
(1.035 0.00896906 0)
(1.03543 0.00874652 0)
(1.03583 0.00853998 0)
(1.03621 0.00834741 0)
(1.03658 0.00816709 0)
(1.03693 0.00799753 0)
(1.03726 0.00783739 0)
(1.03759 0.0076854 0)
(1.0379 0.00754037 0)
(1.03821 0.00740121 0)
(1.03852 0.00726696 0)
(1.03882 0.00713678 0)
(1.03912 0.00700999 0)
(1.03942 0.006886 0)
(1.03971 0.00676434 0)
(1.04001 0.00664454 0)
(1.0403 0.00652623 0)
(1.0406 0.00640892 0)
(1.0409 0.00629228 0)
(1.0412 0.00617572 0)
(1.04149 0.00605893 0)
(1.04179 0.00594125 0)
(1.04209 0.00582229 0)
(1.04238 0.00570148 0)
(1.04268 0.00557818 0)
(1.04297 0.00545232 0)
(1.04325 0.00532261 0)
(1.04353 0.00519034 0)
(1.04381 0.0050533 0)
(1.04407 0.00491536 0)
(1.04431 0.00477516 0)
(1.04454 0.00464075 0)
(1.04476 0.0045187 0)
(1.04496 0.00442109 0)
(1.04516 0.00436709 0)
(1.00051 0.00762322 0)
(1.00825 0.0155663 0)
(1.01678 0.0153706 0)
(1.02157 0.0136901 0)
(1.02358 0.0132042 0)
(1.02507 0.0129115 0)
(1.02661 0.0122967 0)
(1.02795 0.0116433 0)
(1.02898 0.0111314 0)
(1.02982 0.0107163 0)
(1.03056 0.0103405 0)
(1.03122 0.00999425 0)
(1.03181 0.00968107 0)
(1.03235 0.00939847 0)
(1.03284 0.00914095 0)
(1.0333 0.0089041 0)
(1.03372 0.00868492 0)