/*--------------------------------*- C++ -*----------------------------------*\
  =========                 |
  \\      /  F ield         | OpenFOAM: The Open Source CFD Toolbox
   \\    /   O peration     | Website:  https://openfoam.org
    \\  /    A nd           | Version:  7
     \\/     M anipulation  |
\*---------------------------------------------------------------------------*/
FoamFile
{
    version     2.0;
    format      ascii;
    class       volVectorField;
    location    "0.08";
    object      vorticity;
}
// * * * * * * * * * * * * * * * * * * * * * * * * * * * * * * * * * * * * * //

dimensions      [0 0 -1 0 0 0 0];

internalField   nonuniform List<vector> 
70000
(
(0 -0 -45716)
(0 -0 -28617.2)
(0 -0 -20912.6)
(0 -0 -16979)
(0 -0 -14957.6)
(0 -0 -13650.6)
(0 -0 -12641.4)
(0 -0 -11829.3)
(0 -0 -11166.1)
(0 -0 -10613)
(0 -0 -10142)
(0 -0 -9734.55)
(0 -0 -9377.66)
(0 -0 -9061.9)
(0 -0 -8780.13)
(0 -0 -8526.83)
(0 -0 -8297.64)
(0 -0 -8089.07)
(0 -0 -7898.31)
(0 -0 -7723.04)
(0 -0 -7561.35)
(0 -0 -7411.66)
(0 -0 -7272.62)
(0 -0 -7143.11)
(0 -0 -7022.16)
(0 -0 -6908.95)
(0 -0 -6802.78)
(0 -0 -6703.04)
(0 -0 -6609.2)
(0 -0 -6520.8)
(0 -0 -6437.45)
(0 -0 -6358.77)
(0 -0 -6284.51)
(0 -0 -6214.33)
(0 -0 -6148.06)
(0 -0 -6085.44)
(0 -0 -6026.29)
(0 -0 -5970.55)
(0 -0 -5917.75)
(0 -0 -5868.58)
(0 -0 -5821.14)
(0 -0 -5778.96)
(0 -0 -5734.92)
(0 -0 -5702.06)
(0 -0 -5656.36)
(0 -0 -5640.45)
(0 -0 -5579.15)
(0 -0 -5600.02)
(0 -0 -5509.05)
(0 -0 -5363.33)
(0 -0 -13549.7)
(0 -0 -19947.3)
(0 -0 -18536)
(0 -0 -16249.4)
(0 -0 -14503.5)
(0 -0 -13279.8)
(0 -0 -12352.1)
(0 -0 -11602.7)
(0 -0 -10981.2)
(0 -0 -10457.1)
(0 -0 -10008)
(0 -0 -9617.56)
(0 -0 -9274.31)
(0 -0 -8969.66)
(0 -0 -8697.06)
(0 -0 -8451.44)
(0 -0 -8228.75)
(0 -0 -8025.75)
(0 -0 -7839.8)
(0 -0 -7668.73)
(0 -0 -7510.72)
(0 -0 -7364.28)
(0 -0 -7228.13)
(0 -0 -7101.2)
(0 -0 -6982.56)
(0 -0 -6871.43)
(0 -0 -6767.14)
(0 -0 -6669.1)
(0 -0 -6576.8)
(0 -0 -6489.81)
(0 -0 -6407.75)
(0 -0 -6330.26)
(0 -0 -6257.09)
(0 -0 -6187.93)
(0 -0 -6122.62)
(0 -0 -6060.9)
(0 -0 -6002.64)
(0 -0 -5947.74)
(0 -0 -5895.86)
(0 -0 -5847.5)
(0 -0 -5801.25)
(0 -0 -5759.78)
(0 -0 -5717.8)
(0 -0 -5685.1)
(0 -0 -5644.06)
(0 -0 -5625.82)
(0 -0 -5577.36)
(0 -0 -5585.92)
(0 -0 -5526.38)
(0 -0 -5600.43)
(0 -0 -3818.79)
(0 -0 -10828.9)
(0 -0 -13363.4)
(0 -0 -13519.5)
(0 -0 -12866.1)
(0 -0 -12140.1)
(0 -0 -11498.8)
(0 -0 -10939)
(0 -0 -10447.9)
(0 -0 -10016.3)
(0 -0 -9635.54)
(0 -0 -9297.36)
(0 -0 -8995.05)
(0 -0 -8723.12)
(0 -0 -8477.12)
(0 -0 -8253.44)
(0 -0 -8049.09)
(0 -0 -7861.59)
(0 -0 -7688.87)
(0 -0 -7529.18)
(0 -0 -7381.05)
(0 -0 -7243.23)
(0 -0 -7114.65)
(0 -0 -6994.38)
(0 -0 -6881.64)
(0 -0 -6775.73)
(0 -0 -6676.08)
(0 -0 -6582.15)
(0 -0 -6493.51)
(0 -0 -6409.75)
(0 -0 -6330.54)
(0 -0 -6255.56)
(0 -0 -6184.56)
(0 -0 -6117.28)
(0 -0 -6053.55)
(0 -0 -5993.16)
(0 -0 -5935.97)
(0 -0 -5881.87)
(0 -0 -5830.62)
(0 -0 -5782.48)
(0 -0 -5736.59)
(0 -0 -5694.5)
(0 -0 -5653.12)
(0 -0 -5618.06)
(0 -0 -5579.47)
(0 -0 -5554.22)
(0 -0 -5515.24)
(0 -0 -5504.06)
(0 -0 -5465.95)
(0 -0 -5533.81)
(0 -0 -533.085)
(0 -0 -4662.72)
(0 -0 -7718.51)
(0 -0 -9328.47)
(0 -0 -9892.13)
(0 -0 -9957.45)
(0 -0 -9825.84)
(0 -0 -9614.14)
(0 -0 -9371.17)
(0 -0 -9121.63)
(0 -0 -8877.95)
(0 -0 -8645.7)
(0 -0 -8427)
(0 -0 -8222.25)
(0 -0 -8031.11)
(0 -0 -7852.81)
(0 -0 -7686.48)
(0 -0 -7531.15)
(0 -0 -7385.93)
(0 -0 -7249.94)
(0 -0 -7122.39)
(0 -0 -7002.57)
(0 -0 -6889.81)
(0 -0 -6783.53)
(0 -0 -6683.2)
(0 -0 -6588.35)
(0 -0 -6498.57)
(0 -0 -6413.48)
(0 -0 -6332.75)
(0 -0 -6256.08)
(0 -0 -6183.21)
(0 -0 -6113.91)
(0 -0 -6047.96)
(0 -0 -5985.18)
(0 -0 -5925.41)
(0 -0 -5868.48)
(0 -0 -5814.29)
(0 -0 -5762.71)
(0 -0 -5713.62)
(0 -0 -5667.02)
(0 -0 -5622.66)
(0 -0 -5580.86)
(0 -0 -5540.86)
(0 -0 -5503.91)
(0 -0 -5468.04)
(0 -0 -5435.82)
(0 -0 -5405.42)
(0 -0 -5374.67)
(0 -0 -5360.14)
(0 -0 -5347.01)
(0 -0 322.432)
(0 -0 -1444.61)
(0 -0 -3532.67)
(0 -0 -5259.14)
(0 -0 -6398.96)
(0 -0 -7073.45)
(0 -0 -7450.66)
(0 -0 -7641.08)
(0 -0 -7713)
(0 -0 -7710.7)
(0 -0 -7662.76)
(0 -0 -7587.27)
(0 -0 -7495.68)
(0 -0 -7395.27)
(0 -0 -7290.72)
(0 -0 -7185.06)
(0 -0 -7080.23)
(0 -0 -6977.46)
(0 -0 -6877.51)
(0 -0 -6780.8)
(0 -0 -6687.58)
(0 -0 -6597.93)
(0 -0 -6511.85)
(0 -0 -6429.27)
(0 -0 -6350.09)
(0 -0 -6274.2)
(0 -0 -6201.46)
(0 -0 -6131.72)
(0 -0 -6064.87)
(0 -0 -6000.75)
(0 -0 -5939.26)
(0 -0 -5880.26)
(0 -0 -5823.66)
(0 -0 -5769.33)
(0 -0 -5717.2)
(0 -0 -5667.17)
(0 -0 -5619.18)
(0 -0 -5573.1)
(0 -0 -5528.98)
(0 -0 -5486.56)
(0 -0 -5446.15)
(0 -0 -5407.06)
(0 -0 -5370.45)
(0 -0 -5334.05)
(0 -0 -5302.18)
(0 -0 -5266.28)
(0 -0 -5243.47)
(0 -0 -5199.91)
(0 -0 -5203.04)
(0 -0 -5140.27)
(0 -0 364.706)
(0 -0 -158.591)
(0 -0 -1181.6)
(0 -0 -2362.02)
(0 -0 -3417.27)
(0 -0 -4255.49)
(0 -0 -4890.1)
(0 -0 -5355.07)
(0 -0 -5685.55)
(0 -0 -5913.59)
(0 -0 -6065.54)
(0 -0 -6161.54)
(0 -0 -6216.54)
(0 -0 -6241.55)
(0 -0 -6244.63)
(0 -0 -6231.72)
(0 -0 -6207.22)
(0 -0 -6174.39)
(0 -0 -6135.63)
(0 -0 -6092.77)
(0 -0 -6047.14)
(0 -0 -5999.77)
(0 -0 -5951.41)
(0 -0 -5902.64)
(0 -0 -5853.87)
(0 -0 -5805.42)
(0 -0 -5757.54)
(0 -0 -5710.38)
(0 -0 -5664.07)
(0 -0 -5618.71)
(0 -0 -5574.35)
(0 -0 -5531.03)
(0 -0 -5488.79)
(0 -0 -5447.63)
(0 -0 -5407.57)
(0 -0 -5368.58)
(0 -0 -5330.72)
(0 -0 -5293.87)
(0 -0 -5258.22)
(0 -0 -5223.39)
(0 -0 -5190.05)
(0 -0 -5156.93)
(0 -0 -5126.34)
(0 -0 -5093.98)
(0 -0 -5067.71)
(0 -0 -5033.13)
(0 -0 -5016.47)
(0 -0 -4970.61)
(0 -0 -4978.9)
(0 -0 -4910.61)
(0 -0 254.024)
(0 -0 185.287)
(0 -0 -173.335)
(0 -0 -764.694)
(0 -0 -1447.54)
(0 -0 -2114.95)
(0 -0 -2719.6)
(0 -0 -3242.03)
(0 -0 -3678.15)
(0 -0 -4033.78)
(0 -0 -4319.24)
(0 -0 -4545.69)
(0 -0 -4723.49)
(0 -0 -4861.65)
(0 -0 -4967.72)
(0 -0 -5047.91)
(0 -0 -5107.27)
(0 -0 -5149.87)
(0 -0 -5178.98)
(0 -0 -5197.25)
(0 -0 -5206.78)
(0 -0 -5209.28)
(0 -0 -5206.11)
(0 -0 -5198.39)
(0 -0 -5187.02)
(0 -0 -5172.71)
(0 -0 -5156.06)
(0 -0 -5137.55)
(0 -0 -5117.58)
(0 -0 -5096.46)
(0 -0 -5074.45)
(0 -0 -5051.78)
(0 -0 -5028.61)
(0 -0 -5005.11)
(0 -0 -4981.4)
(0 -0 -4957.56)
(0 -0 -4933.73)
(0 -0 -4909.88)
(0 -0 -4886.26)
(0 -0 -4862.54)
(0 -0 -4839.5)
(0 -0 -4815.78)
(0 -0 -4793.97)
(0 -0 -4769.39)
(0 -0 -4750.51)
(0 -0 -4722.31)
(0 -0 -4711.08)
(0 -0 -4672.04)
(0 -0 -4678.51)
(0 -0 -4624.13)
(0 -0 178.746)
(0 -0 204.501)
(0 -0 130.639)
(0 -0 -85.2335)
(0 -0 -417.829)
(0 -0 -814.617)
(0 -0 -1235.7)
(0 -0 -1652.17)
(0 -0 -2044.17)
(0 -0 -2400.73)
(0 -0 -2717.62)
(0 -0 -2994.78)
(0 -0 -3234.45)
(0 -0 -3439.97)
(0 -0 -3615.13)
(0 -0 -3763.68)
(0 -0 -3889.18)
(0 -0 -3994.82)
(0 -0 -4083.44)
(0 -0 -4157.5)
(0 -0 -4219.13)
(0 -0 -4270.15)
(0 -0 -4312.09)
(0 -0 -4346.29)
(0 -0 -4373.85)
(0 -0 -4395.73)
(0 -0 -4412.73)
(0 -0 -4425.53)
(0 -0 -4434.72)
(0 -0 -4440.79)
(0 -0 -4444.15)
(0 -0 -4445.16)
(0 -0 -4444.13)
(0 -0 -4441.33)
(0 -0 -4436.98)
(0 -0 -4431.28)
(0 -0 -4424.41)
(0 -0 -4416.46)
(0 -0 -4407.7)
(0 -0 -4397.94)
(0 -0 -4387.85)
(0 -0 -4376.39)
(0 -0 -4365.76)
(0 -0 -4352.06)
(0 -0 -4342.43)
(0 -0 -4324.39)
(0 -0 -4319.4)
(0 -0 -4292.13)
(0 -0 -4297.35)
(0 -0 -4260.1)
(0 -0 148.017)
(0 -0 164.606)
(0 -0 169.977)
(0 -0 120.956)
(0 -0 1.04063)
(0 -0 -180.624)
(0 -0 -408.612)
(0 -0 -666.537)
(0 -0 -938.539)
(0 -0 -1211.68)
(0 -0 -1476.75)
(0 -0 -1727.74)
(0 -0 -1961.16)
(0 -0 -2175.38)
(0 -0 -2370.02)
(0 -0 -2545.59)
(0 -0 -2703.07)
(0 -0 -2843.78)
(0 -0 -2969.1)
(0 -0 -3080.49)
(0 -0 -3179.31)
(0 -0 -3266.89)
(0 -0 -3344.41)
(0 -0 -3412.97)
(0 -0 -3473.55)
(0 -0 -3527.03)
(0 -0 -3574.19)
(0 -0 -3615.72)
(0 -0 -3652.22)
(0 -0 -3684.24)
(0 -0 -3712.24)
(0 -0 -3736.63)
(0 -0 -3757.78)
(0 -0 -3776.02)
(0 -0 -3791.6)
(0 -0 -3804.81)
(0 -0 -3815.84)
(0 -0 -3824.89)
(0 -0 -3832.16)
(0 -0 -3837.68)
(0 -0 -3841.91)
(0 -0 -3844.23)
(0 -0 -3846.22)
(0 -0 -3845.1)
(0 -0 -3846.17)
(0 -0 -3840.21)
(0 -0 -3843.02)
(0 -0 -3829.12)
(0 -0 -3836.44)
(0 -0 -3815.27)
(0 -0 136.825)
(0 -0 137.069)
(0 -0 148.73)
(0 -0 149.665)
(0 -0 122.176)
(0 -0 60.1306)
(0 -0 -36.2564)
(0 -0 -163.293)
(0 -0 -314.591)
(0 -0 -482.813)
(0 -0 -661.025)
(0 -0 -843.309)
(0 -0 -1024.93)
(0 -0 -1202.31)
(0 -0 -1372.93)
(0 -0 -1535.1)
(0 -0 -1687.84)
(0 -0 -1830.68)
(0 -0 -1963.54)
(0 -0 -2086.59)
(0 -0 -2200.19)
(0 -0 -2304.81)
(0 -0 -2400.97)
(0 -0 -2489.24)
(0 -0 -2570.17)
(0 -0 -2644.34)
(0 -0 -2712.25)
(0 -0 -2774.41)
(0 -0 -2831.29)
(0 -0 -2883.3)
(0 -0 -2930.85)
(0 -0 -2974.29)
(0 -0 -3013.94)
(0 -0 -3050.1)
(0 -0 -3083.02)
(0 -0 -3112.98)
(0 -0 -3140.14)
(0 -0 -3164.76)
(0 -0 -3186.96)
(0 -0 -3206.9)
(0 -0 -3224.85)
(0 -0 -3240.53)
(0 -0 -3254.97)
(0 -0 -3266.35)
(0 -0 -3278.37)
(0 -0 -3284.56)
(0 -0 -3296.03)
(0 -0 -3295.14)
(0 -0 -3307.18)
(0 -0 -3300.41)
(0 -0 129.945)
(0 -0 123.997)
(0 -0 129.177)
(0 -0 136.373)
(0 -0 136.456)
(0 -0 123.192)
(0 -0 92.9495)
(0 -0 43.8991)
(0 -0 -23.7682)
(0 -0 -108.194)
(0 -0 -206.581)
(0 -0 -315.776)
(0 -0 -432.625)
(0 -0 -554.219)
(0 -0 -678.027)
(0 -0 -801.948)
(0 -0 -924.305)
(0 -0 -1043.81)
(0 -0 -1159.52)
(0 -0 -1270.78)
(0 -0 -1377.15)
(0 -0 -1478.38)
(0 -0 -1574.37)
(0 -0 -1665.13)
(0 -0 -1750.73)
(0 -0 -1831.32)
(0 -0 -1907.08)
(0 -0 -1978.21)
(0 -0 -2044.92)
(0 -0 -2107.44)
(0 -0 -2165.99)
(0 -0 -2220.77)
(0 -0 -2272)
(0 -0 -2319.88)
(0 -0 -2364.57)
(0 -0 -2406.28)
(0 -0 -2445.11)
(0 -0 -2481.3)
(0 -0 -2514.89)
(0 -0 -2546.07)
(0 -0 -2574.97)
(0 -0 -2601.49)
(0 -0 -2626.3)
(0 -0 -2648.18)
(0 -0 -2669.71)
(0 -0 -2686.38)
(0 -0 -2705.85)
(0 -0 -2716.22)
(0 -0 -2733.75)
(0 -0 -2739.09)
(0 -0 122.957)
(0 -0 116.645)
(0 -0 118.01)
(0 -0 122.482)
(0 -0 126.419)
(0 -0 126.883)
(0 -0 121.407)
(0 -0 107.698)
(0 -0 84.1282)
(0 -0 50.008)
(0 -0 5.44986)
(0 -0 -48.8176)
(0 -0 -111.653)
(0 -0 -181.678)
(0 -0 -257.434)
(0 -0 -337.487)
(0 -0 -420.5)
(0 -0 -505.281)
(0 -0 -590.794)
(0 -0 -676.17)
(0 -0 -760.692)
(0 -0 -843.784)
(0 -0 -924.996)
(0 -0 -1003.98)
(0 -0 -1080.5)
(0 -0 -1154.36)
(0 -0 -1225.47)
(0 -0 -1293.76)
(0 -0 -1359.21)
(0 -0 -1421.83)
(0 -0 -1481.64)
(0 -0 -1538.71)
(0 -0 -1593.07)
(0 -0 -1644.82)
(0 -0 -1693.99)
(0 -0 -1740.7)
(0 -0 -1784.98)
(0 -0 -1826.95)
(0 -0 -1866.61)
(0 -0 -1904.1)
(0 -0 -1939.47)
(0 -0 -1972.64)
(0 -0 -2004.06)
(0 -0 -2032.88)
(0 -0 -2060.87)
(0 -0 -2084.91)
(0 -0 -2110.14)
(0 -0 -2128.8)
(0 -0 -2150.87)
(0 -0 -2165.19)
(0 -0 115.638)
(0 -0 110.414)
(0 -0 110.728)
(0 -0 113.163)
(0 -0 115.971)
(0 -0 118.225)
(0 -0 119.095)
(0 -0 117.382)
(0 -0 111.809)
(0 -0 101.332)
(0 -0 85.239)
(0 -0 63.1696)
(0 -0 35.0814)
(0 -0 1.20506)
(0 -0 -38.0227)
(0 -0 -82.0266)
(0 -0 -130.152)
(0 -0 -181.715)
(0 -0 -236.036)
(0 -0 -292.472)
(0 -0 -350.424)
(0 -0 -409.352)
(0 -0 -468.78)
(0 -0 -528.29)
(0 -0 -587.527)
(0 -0 -646.19)
(0 -0 -704.032)
(0 -0 -760.848)
(0 -0 -816.474)
(0 -0 -870.782)
(0 -0 -923.667)
(0 -0 -975.057)
(0 -0 -1024.88)
(0 -0 -1073.12)
(0 -0 -1119.71)
(0 -0 -1164.67)
(0 -0 -1207.95)
(0 -0 -1249.59)
(0 -0 -1289.54)
(0 -0 -1327.83)
(0 -0 -1364.49)
(0 -0 -1399.4)
(0 -0 -1432.86)
(0 -0 -1464.23)
(0 -0 -1494.71)
(0 -0 -1522.18)
(0 -0 -1549.93)
(0 -0 -1573.12)
(0 -0 -1597.52)
(0 -0 -1617.11)
(0 -0 108.394)
(0 -0 104.197)
(0 -0 104.404)
(0 -0 106.107)
(0 -0 107.971)
(0 -0 109.676)
(0 -0 111.206)
(0 -0 112.215)
(0 -0 112.123)
(0 -0 110.303)
(0 -0 106.171)
(0 -0 99.2322)
(0 -0 89.1192)
(0 -0 75.6009)
(0 -0 58.5898)
(0 -0 38.1188)
(0 -0 14.3242)
(0 -0 -12.5785)
(0 -0 -42.3189)
(0 -0 -74.591)
(0 -0 -109.072)
(0 -0 -145.432)
(0 -0 -183.352)
(0 -0 -222.522)
(0 -0 -262.654)
(0 -0 -303.482)
(0 -0 -344.763)
(0 -0 -386.282)
(0 -0 -427.843)
(0 -0 -469.28)
(0 -0 -510.437)
(0 -0 -551.191)
(0 -0 -591.417)
(0 -0 -631.029)
(0 -0 -669.923)
(0 -0 -708.045)
(0 -0 -745.301)
(0 -0 -781.665)
(0 -0 -817.054)
(0 -0 -851.442)
(0 -0 -884.8)
(0 -0 -917.003)
(0 -0 -948.233)
(0 -0 -977.997)
(0 -0 -1007.07)
(0 -0 -1034.06)
(0 -0 -1060.93)
(0 -0 -1084.84)
(0 -0 -1108.87)
(0 -0 -1130.04)
(0 -0 101.417)
(0 -0 98.0069)
(0 -0 98.2272)
(0 -0 99.6965)
(0 -0 101.204)
(0 -0 102.471)
(0 -0 103.689)
(0 -0 104.868)
(0 -0 105.836)
(0 -0 106.346)
(0 -0 106.119)
(0 -0 104.86)
(0 -0 102.281)
(0 -0 98.1307)
(0 -0 92.2028)
(0 -0 84.3512)
(0 -0 74.4882)
(0 -0 62.5822)
(0 -0 48.6523)
(0 -0 32.7596)
(0 -0 14.9994)
(0 -0 -4.50639)
(0 -0 -25.6171)
(0 -0 -48.1806)
(0 -0 -72.0363)
(0 -0 -97.0254)
(0 -0 -122.986)
(0 -0 -149.768)
(0 -0 -177.222)
(0 -0 -205.213)
(0 -0 -233.606)
(0 -0 -262.286)
(0 -0 -291.134)
(0 -0 -320.054)
(0 -0 -348.939)
(0 -0 -377.713)
(0 -0 -406.278)
(0 -0 -434.573)
(0 -0 -462.516)
(0 -0 -490.039)
(0 -0 -517.104)
(0 -0 -543.576)
(0 -0 -569.558)
(0 -0 -594.688)
(0 -0 -619.421)
(0 -0 -642.889)
(0 -0 -666.163)
(0 -0 -687.697)
(0 -0 -708.965)
(0 -0 -728.646)
(0 -0 94.742)
(0 -0 91.9582)
(0 -0 92.1663)
(0 -0 93.4864)
(0 -0 94.8621)
(0 -0 95.9553)
(0 -0 96.9488)
(0 -0 97.9402)
(0 -0 98.9012)
(0 -0 99.7647)
(0 -0 100.442)
(0 -0 100.816)
(0 -0 100.751)
(0 -0 100.1)
(0 -0 98.7186)
(0 -0 96.4748)
(0 -0 93.2539)
(0 -0 88.9636)
(0 -0 83.5367)
(0 -0 76.93)
(0 -0 69.1254)
(0 -0 60.1239)
(0 -0 49.9496)
(0 -0 38.6401)
(0 -0 26.2477)
(0 -0 12.8343)
(0 -0 -1.52912)
(0 -0 -16.7678)
(0 -0 -32.8024)
(0 -0 -49.5539)
(0 -0 -66.9405)
(0 -0 -84.8847)
(0 -0 -103.305)
(0 -0 -122.13)
(0 -0 -141.279)
(0 -0 -160.687)
(0 -0 -180.278)
(0 -0 -199.99)
(0 -0 -219.757)
(0 -0 -239.508)
(0 -0 -259.206)
(0 -0 -278.736)
(0 -0 -298.146)
(0 -0 -317.19)
(0 -0 -336.103)
(0 -0 -354.387)
(0 -0 -372.556)
(0 -0 -389.84)
(0 -0 -406.839)
(0 -0 -423.06)
(0 -0 88.3673)
(0 -0 86.1032)
(0 -0 86.2925)
(0 -0 87.4626)
(0 -0 88.7397)
(0 -0 89.7535)
(0 -0 90.6405)
(0 -0 91.5037)
(0 -0 92.3468)
(0 -0 93.155)
(0 -0 93.9124)
(0 -0 94.5906)
(0 -0 95.1448)
(0 -0 95.5169)
(0 -0 95.64)
(0 -0 95.4422)
(0 -0 94.8514)
(0 -0 93.7983)
(0 -0 92.2197)
(0 -0 90.0605)
(0 -0 87.2749)
(0 -0 83.8281)
(0 -0 79.6947)
(0 -0 74.8614)
(0 -0 69.3235)
(0 -0 63.0876)
(0 -0 56.1646)
(0 -0 48.5765)
(0 -0 40.3491)
(0 -0 31.5122)
(0 -0 22.1007)
(0 -0 12.1509)
(0 -0 1.70342)
(0 -0 -9.2017)
(0 -0 -20.5203)
(0 -0 -32.2104)
(0 -0 -44.2266)
(0 -0 -56.5236)
(0 -0 -69.0601)
(0 -0 -81.781)
(0 -0 -94.6608)
(0 -0 -107.616)
(0 -0 -120.664)
(0 -0 -133.657)
(0 -0 -146.693)
(0 -0 -159.518)
(0 -0 -172.331)
(0 -0 -184.796)
(0 -0 -197.09)
(0 -0 -209.085)
(0 -0 82.2916)
(0 -0 80.4602)
(0 -0 80.6391)
(0 -0 81.664)
(0 -0 82.8374)
(0 -0 83.7856)
(0 -0 84.6044)
(0 -0 85.3901)
(0 -0 86.1504)
(0 -0 86.8782)
(0 -0 87.5751)
(0 -0 88.2408)
(0 -0 88.8672)
(0 -0 89.4386)
(0 -0 89.9329)
(0 -0 90.3224)
(0 -0 90.5754)
(0 -0 90.6576)
(0 -0 90.5334)
(0 -0 90.1677)
(0 -0 89.5263)
(0 -0 88.5779)
(0 -0 87.2941)
(0 -0 85.651)
(0 -0 83.6292)
(0 -0 81.2139)
(0 -0 78.396)
(0 -0 75.1694)
(0 -0 71.5333)
(0 -0 67.4906)
(0 -0 63.0476)
(0 -0 58.2138)
(0 -0 53.0015)
(0 -0 47.4254)
(0 -0 41.5028)
(0 -0 35.2531)
(0 -0 28.6964)
(0 -0 21.8574)
(0 -0 14.7564)
(0 -0 7.42606)
(0 -0 -0.118934)
(0 -0 -7.83043)
(0 -0 -15.7095)
(0 -0 -23.6806)
(0 -0 -31.7719)
(0 -0 -39.8714)
(0 -0 -48.0283)
(0 -0 -56.1231)
(0 -0 -64.1613)
(0 -0 -72.1538)
(0 -0 76.5154)
(0 -0 75.0404)
(0 -0 75.2181)
(0 -0 76.1106)
(0 -0 77.1778)
(0 -0 78.0591)
(0 -0 78.8162)
(0 -0 79.5393)
(0 -0 80.2377)
(0 -0 80.9037)
(0 -0 81.5397)
(0 -0 82.1507)
(0 -0 82.7387)
(0 -0 83.3019)
(0 -0 83.8358)
(0 -0 84.333)
(0 -0 84.7834)
(0 -0 85.1748)
(0 -0 85.4929)
(0 -0 85.7218)
(0 -0 85.8445)
(0 -0 85.8433)
(0 -0 85.7006)
(0 -0 85.3992)
(0 -0 84.9234)
(0 -0 84.2587)
(0 -0 83.393)
(0 -0 82.3155)
(0 -0 81.0177)
(0 -0 79.4932)
(0 -0 77.7374)
(0 -0 75.7476)
(0 -0 73.5231)
(0 -0 71.065)
(0 -0 68.3759)
(0 -0 65.461)
(0 -0 62.3253)
(0 -0 58.9784)
(0 -0 55.4269)
(0 -0 51.6856)
(0 -0 47.7608)
(0 -0 43.6742)
(0 -0 39.4302)
(0 -0 35.0591)
(0 -0 30.5625)
(0 -0 25.9771)
(0 -0 21.3118)
(0 -0 16.5898)
(0 -0 11.8575)
(0 -0 7.06342)
(0 -0 71.0385)
(0 -0 69.8543)
(0 -0 70.0364)
(0 -0 70.811)
(0 -0 71.7738)
(0 -0 72.5881)
(0 -0 73.2851)
(0 -0 73.9488)
(0 -0 74.5913)
(0 -0 75.2042)
(0 -0 75.7884)
(0 -0 76.3487)
(0 -0 76.8886)
(0 -0 77.4095)
(0 -0 77.9115)
(0 -0 78.3938)
(0 -0 78.8546)
(0 -0 79.291)
(0 -0 79.6993)
(0 -0 80.0744)
(0 -0 80.4099)
(0 -0 80.6986)
(0 -0 80.9325)
(0 -0 81.103)
(0 -0 81.2015)
(0 -0 81.2196)
(0 -0 81.1493)
(0 -0 80.9831)
(0 -0 80.7138)
(0 -0 80.3353)
(0 -0 79.8416)
(0 -0 79.228)
(0 -0 78.4901)
(0 -0 77.6249)
(0 -0 76.6296)
(0 -0 75.5034)
(0 -0 74.245)
(0 -0 72.8559)
(0 -0 71.3366)
(0 -0 69.6909)
(0 -0 67.921)
(0 -0 66.033)
(0 -0 64.0316)
(0 -0 61.9234)
(0 -0 59.7188)
(0 -0 57.4206)
(0 -0 55.0521)
(0 -0 52.601)
(0 -0 50.1172)
(0 -0 47.5461)
(0 -0 65.8594)
(0 -0 64.9103)
(0 -0 65.0999)
(0 -0 65.7701)
(0 -0 66.6324)
(0 -0 67.3809)
(0 -0 68.0202)
(0 -0 68.6264)
(0 -0 69.215)
(0 -0 69.7779)
(0 -0 70.3144)
(0 -0 70.8287)
(0 -0 71.324)
(0 -0 71.802)
(0 -0 72.2635)
(0 -0 72.7092)
(0 -0 73.1394)
(0 -0 73.5544)
(0 -0 73.954)
(0 -0 74.3374)
(0 -0 74.7031)
(0 -0 75.049)
(0 -0 75.3723)
(0 -0 75.6697)
(0 -0 75.9377)
(0 -0 76.1728)
(0 -0 76.3713)
(0 -0 76.5297)
(0 -0 76.6441)
(0 -0 76.7111)
(0 -0 76.727)
(0 -0 76.6884)
(0 -0 76.5917)
(0 -0 76.4341)
(0 -0 76.2124)
(0 -0 75.9245)
(0 -0 75.568)
(0 -0 75.1414)
(0 -0 74.6437)
(0 -0 74.0738)
(0 -0 73.4326)
(0 -0 72.7188)
(0 -0 71.9367)
(0 -0 71.0829)
(0 -0 70.1681)
(0 -0 69.183)
(0 -0 68.1493)
(0 -0 67.0461)
(0 -0 65.9132)
(0 -0 64.7036)
(0 -0 60.9754)
(0 -0 60.2148)
(0 -0 60.4125)
(0 -0 60.991)
(0 -0 61.7576)
(0 -0 62.4422)
(0 -0 63.0265)
(0 -0 63.578)
(0 -0 64.1147)
(0 -0 64.6294)
(0 -0 65.1204)
(0 -0 65.5912)
(0 -0 66.0447)
(0 -0 66.4823)
(0 -0 66.9049)
(0 -0 67.313)
(0 -0 67.7075)
(0 -0 68.0893)
(0 -0 68.459)
(0 -0 68.8173)
(0 -0 69.1643)
(0 -0 69.4995)
(0 -0 69.8223)
(0 -0 70.1319)
(0 -0 70.427)
(0 -0 70.7068)
(0 -0 70.9702)
(0 -0 71.216)
(0 -0 71.4431)
(0 -0 71.6501)
(0 -0 71.8354)
(0 -0 71.9974)
(0 -0 72.1342)
(0 -0 72.2443)
(0 -0 72.3255)
(0 -0 72.3763)
(0 -0 72.395)
(0 -0 72.3798)
(0 -0 72.3297)
(0 -0 72.2428)
(0 -0 72.1195)
(0 -0 71.9565)
(0 -0 71.7574)
(0 -0 71.5162)
(0 -0 71.2413)
(0 -0 70.9218)
(0 -0 70.5738)
(0 -0 70.1781)
(0 -0 69.7633)
(0 -0 69.2923)
(0 -0 56.3824)
(0 -0 55.772)
(0 -0 55.977)
(0 -0 56.4752)
(0 -0 57.1517)
(0 -0 57.7744)
(0 -0 58.3068)
(0 -0 58.8064)
(0 -0 59.2936)
(0 -0 59.7623)
(0 -0 60.2098)
(0 -0 60.6391)
(0 -0 61.0527)
(0 -0 61.452)
(0 -0 61.8376)
(0 -0 62.21)
(0 -0 62.5699)
(0 -0 62.9182)
(0 -0 63.2559)
(0 -0 63.5837)
(0 -0 63.9021)
(0 -0 64.2113)
(0 -0 64.5111)
(0 -0 64.8015)
(0 -0 65.0822)
(0 -0 65.3532)
(0 -0 65.6148)
(0 -0 65.8668)
(0 -0 66.1092)
(0 -0 66.3421)
(0 -0 66.5649)
(0 -0 66.7772)
(0 -0 66.9784)
(0 -0 67.1677)
(0 -0 67.3442)
(0 -0 67.5069)
(0 -0 67.6552)
(0 -0 67.7876)
(0 -0 67.9039)
(0 -0 68.0021)
(0 -0 68.0829)
(0 -0 68.1432)
(0 -0 68.1858)
(0 -0 68.2051)
(0 -0 68.2075)
(0 -0 68.1835)
(0 -0 68.1447)
(0 -0 68.0758)
(0 -0 67.9972)
(0 -0 67.8803)
(0 -0 52.0755)
(0 -0 51.5838)
(0 -0 51.7938)
(0 -0 52.2221)
(0 -0 52.8149)
(0 -0 53.3779)
(0 -0 53.8614)
(0 -0 54.3124)
(0 -0 54.7526)
(0 -0 55.1775)
(0 -0 55.5838)
(0 -0 55.9736)
(0 -0 56.3494)
(0 -0 56.7123)
(0 -0 57.0627)
(0 -0 57.4011)
(0 -0 57.7281)
(0 -0 58.0445)
(0 -0 58.3513)
(0 -0 58.6492)
(0 -0 58.9387)
(0 -0 59.2199)
(0 -0 59.493)
(0 -0 59.758)
(0 -0 60.0148)
(0 -0 60.2639)
(0 -0 60.5058)
(0 -0 60.7408)
(0 -0 60.9695)
(0 -0 61.1922)
(0 -0 61.4091)
(0 -0 61.6202)
(0 -0 61.8254)
(0 -0 62.0246)
(0 -0 62.2173)
(0 -0 62.4032)
(0 -0 62.5819)
(0 -0 62.7527)
(0 -0 62.9155)
(0 -0 63.069)
(0 -0 63.2139)
(0 -0 63.3477)
(0 -0 63.4728)
(0 -0 63.5846)
(0 -0 63.688)
(0 -0 63.7759)
(0 -0 63.8561)
(0 -0 63.9174)
(0 -0 63.9748)
(0 -0 64.0062)
(0 -0 48.0481)
(0 -0 47.6499)
(0 -0 47.862)
(0 -0 48.2296)
(0 -0 48.7454)
(0 -0 49.2514)
(0 -0 49.6888)
(0 -0 50.0945)
(0 -0 50.4905)
(0 -0 50.8741)
(0 -0 51.2414)
(0 -0 51.594)
(0 -0 51.9339)
(0 -0 52.2624)
(0 -0 52.5796)
(0 -0 52.8858)
(0 -0 53.1816)
(0 -0 53.4678)
(0 -0 53.7452)
(0 -0 54.0147)
(0 -0 54.2765)
(0 -0 54.5309)
(0 -0 54.7778)
(0 -0 55.0173)
(0 -0 55.2495)
(0 -0 55.4748)
(0 -0 55.6937)
(0 -0 55.907)
(0 -0 56.1152)
(0 -0 56.3187)
(0 -0 56.518)
(0 -0 56.7134)
(0 -0 56.9048)
(0 -0 57.0922)
(0 -0 57.2757)
(0 -0 57.4549)
(0 -0 57.6298)
(0 -0 57.7999)
(0 -0 57.9653)
(0 -0 58.125)
(0 -0 58.2797)
(0 -0 58.4277)
(0 -0 58.5705)
(0 -0 58.7052)
(0 -0 58.8349)
(0 -0 58.9547)
(0 -0 59.0703)
(0 -0 59.1732)
(0 -0 59.2747)
(0 -0 59.3579)
(0 -0 44.2927)
(0 -0 43.968)
(0 -0 44.1786)
(0 -0 44.4937)
(0 -0 44.9395)
(0 -0 45.3913)
(0 -0 45.7857)
(0 -0 46.1492)
(0 -0 46.504)
(0 -0 46.8488)
(0 -0 47.1795)
(0 -0 47.4971)
(0 -0 47.8034)
(0 -0 48.0995)
(0 -0 48.3854)
(0 -0 48.6613)
(0 -0 48.9277)
(0 -0 49.1854)
(0 -0 49.4352)
(0 -0 49.6778)
(0 -0 49.9136)
(0 -0 50.1426)
(0 -0 50.3647)
(0 -0 50.5799)
(0 -0 50.7885)
(0 -0 50.9908)
(0 -0 51.1873)
(0 -0 51.3789)
(0 -0 51.566)
(0 -0 51.7494)
(0 -0 51.9293)
(0 -0 52.106)
(0 -0 52.2797)
(0 -0 52.4503)
(0 -0 52.618)
(0 -0 52.7825)
(0 -0 52.9439)
(0 -0 53.1017)
(0 -0 53.2561)
(0 -0 53.4064)
(0 -0 53.5531)
(0 -0 53.6949)
(0 -0 53.8331)
(0 -0 53.9654)
(0 -0 54.0942)
(0 -0 54.2159)
(0 -0 54.3346)
(0 -0 54.4442)
(0 -0 54.5531)
(0 -0 54.6484)
(0 -0 40.8006)
(0 -0 40.5338)
(0 -0 40.7392)
(0 -0 41.009)
(0 -0 41.3918)
(0 -0 41.7925)
(0 -0 42.1466)
(0 -0 42.4714)
(0 -0 42.7879)
(0 -0 43.0964)
(0 -0 43.393)
(0 -0 43.6779)
(0 -0 43.9528)
(0 -0 44.2186)
(0 -0 44.4752)
(0 -0 44.7228)
(0 -0 44.9617)
(0 -0 45.1927)
(0 -0 45.4166)
(0 -0 45.634)
(0 -0 45.8453)
(0 -0 46.0504)
(0 -0 46.2493)
(0 -0 46.4418)
(0 -0 46.6281)
(0 -0 46.8087)
(0 -0 46.9841)
(0 -0 47.1551)
(0 -0 47.3224)
(0 -0 47.4863)
(0 -0 47.6474)
(0 -0 47.8059)
(0 -0 47.962)
(0 -0 48.1157)
(0 -0 48.2669)
(0 -0 48.4155)
(0 -0 48.5616)
(0 -0 48.7048)
(0 -0 48.8452)
(0 -0 48.9823)
(0 -0 49.1164)
(0 -0 49.2465)
(0 -0 49.3736)
(0 -0 49.4961)
(0 -0 49.6157)
(0 -0 49.7297)
(0 -0 49.8412)
(0 -0 49.9456)
(0 -0 50.0493)
(0 -0 50.1428)
(0 -0 37.5622)
(0 -0 37.3412)
(0 -0 37.5376)
(0 -0 37.7683)
(0 -0 38.095)
(0 -0 38.4479)
(0 -0 38.7646)
(0 -0 39.0538)
(0 -0 39.335)
(0 -0 39.6099)
(0 -0 39.8748)
(0 -0 40.1295)
(0 -0 40.3753)
(0 -0 40.6129)
(0 -0 40.8423)
(0 -0 41.0635)
(0 -0 41.2767)
(0 -0 41.4828)
(0 -0 41.6826)
(0 -0 41.8766)
(0 -0 42.0651)
(0 -0 42.248)
(0 -0 42.4251)
(0 -0 42.5964)
(0 -0 42.762)
(0 -0 42.9223)
(0 -0 43.078)
(0 -0 43.2299)
(0 -0 43.3784)
(0 -0 43.5243)
(0 -0 43.6679)
(0 -0 43.8094)
(0 -0 43.9489)
(0 -0 44.0865)
(0 -0 44.2221)
(0 -0 44.3556)
(0 -0 44.4869)
(0 -0 44.6158)
(0 -0 44.7424)
(0 -0 44.866)
(0 -0 44.9872)
(0 -0 45.1049)
(0 -0 45.22)
(0 -0 45.3313)
(0 -0 45.4399)
(0 -0 45.544)
(0 -0 45.6458)
(0 -0 45.7419)
(0 -0 45.8371)
(0 -0 45.9244)
(0 -0 34.5667)
(0 -0 34.3826)
(0 -0 34.5661)
(0 -0 34.7631)
(0 -0 35.0404)
(0 -0 35.3491)
(0 -0 35.631)
(0 -0 35.8879)
(0 -0 36.1367)
(0 -0 36.3806)
(0 -0 36.6164)
(0 -0 36.8432)
(0 -0 37.0621)
(0 -0 37.2737)
(0 -0 37.478)
(0 -0 37.6747)
(0 -0 37.8643)
(0 -0 38.0473)
(0 -0 38.2247)
(0 -0 38.397)
(0 -0 38.5643)
(0 -0 38.7266)
(0 -0 38.8836)
(0 -0 39.0352)
(0 -0 39.1816)
(0 -0 39.3231)
(0 -0 39.4606)
(0 -0 39.5947)
(0 -0 39.726)
(0 -0 39.8552)
(0 -0 39.9825)
(0 -0 40.1083)
(0 -0 40.2325)
(0 -0 40.3552)
(0 -0 40.4764)
(0 -0 40.5959)
(0 -0 40.7136)
(0 -0 40.8292)
(0 -0 40.9428)
(0 -0 41.054)
(0 -0 41.1629)
(0 -0 41.2689)
(0 -0 41.3725)
(0 -0 41.4729)
(0 -0 41.5709)
(0 -0 41.6652)
(0 -0 41.7573)
(0 -0 41.8448)
(0 -0 41.9312)
(0 -0 42.0115)
(0 -0 31.8028)
(0 -0 31.6485)
(0 -0 31.8162)
(0 -0 31.9843)
(0 -0 32.2184)
(0 -0 32.4865)
(0 -0 32.7363)
(0 -0 32.9638)
(0 -0 33.1833)
(0 -0 33.3988)
(0 -0 33.6078)
(0 -0 33.809)
(0 -0 34.0033)
(0 -0 34.1911)
(0 -0 34.3722)
(0 -0 34.5465)
(0 -0 34.7142)
(0 -0 34.8761)
(0 -0 35.0329)
(0 -0 35.1851)
(0 -0 35.333)
(0 -0 35.4763)
(0 -0 35.6147)
(0 -0 35.7481)
(0 -0 35.8768)
(0 -0 36.001)
(0 -0 36.1217)
(0 -0 36.2394)
(0 -0 36.3549)
(0 -0 36.4687)
(0 -0 36.5811)
(0 -0 36.6925)
(0 -0 36.8027)
(0 -0 36.9119)
(0 -0 37.0199)
(0 -0 37.1265)
(0 -0 37.2317)
(0 -0 37.3352)
(0 -0 37.437)
(0 -0 37.5367)
(0 -0 37.6344)
(0 -0 37.7296)
(0 -0 37.8227)
(0 -0 37.9131)
(0 -0 38.0013)
(0 -0 38.0864)
(0 -0 38.1695)
(0 -0 38.249)
(0 -0 38.3271)
(0 -0 38.4006)
(0 -0 29.2584)
(0 -0 29.1283)
(0 -0 29.2782)
(0 -0 29.4219)
(0 -0 29.6185)
(0 -0 29.8497)
(0 -0 30.07)
(0 -0 30.2709)
(0 -0 30.4638)
(0 -0 30.6535)
(0 -0 30.838)
(0 -0 31.0159)
(0 -0 31.1877)
(0 -0 31.3537)
(0 -0 31.5137)
(0 -0 31.6674)
(0 -0 31.8152)
(0 -0 31.9576)
(0 -0 32.0955)
(0 -0 32.2295)
(0 -0 32.3595)
(0 -0 32.4854)
(0 -0 32.6068)
(0 -0 32.7236)
(0 -0 32.8359)
(0 -0 32.9443)
(0 -0 33.0495)
(0 -0 33.1523)
(0 -0 33.2533)
(0 -0 33.3531)
(0 -0 33.452)
(0 -0 33.5502)
(0 -0 33.6477)
(0 -0 33.7445)
(0 -0 33.8406)
(0 -0 33.9356)
(0 -0 34.0295)
(0 -0 34.122)
(0 -0 34.213)
(0 -0 34.3023)
(0 -0 34.3899)
(0 -0 34.4753)
(0 -0 34.5589)
(0 -0 34.6402)
(0 -0 34.7196)
(0 -0 34.7963)
(0 -0 34.8713)
(0 -0 34.9434)
(0 -0 35.014)
(0 -0 35.0812)
(0 -0 26.921)
(0 -0 26.8105)
(0 -0 26.9418)
(0 -0 27.0647)
(0 -0 27.2291)
(0 -0 27.4271)
(0 -0 27.6204)
(0 -0 27.7972)
(0 -0 27.9663)
(0 -0 28.1326)
(0 -0 28.2948)
(0 -0 28.4516)
(0 -0 28.603)
(0 -0 28.7493)
(0 -0 28.89)
(0 -0 29.0251)
(0 -0 29.1546)
(0 -0 29.2794)
(0 -0 29.4001)
(0 -0 29.5174)
(0 -0 29.6312)
(0 -0 29.7412)
(0 -0 29.847)
(0 -0 29.9486)
(0 -0 30.0461)
(0 -0 30.14)
(0 -0 30.2312)
(0 -0 30.3203)
(0 -0 30.4082)
(0 -0 30.4952)
(0 -0 30.5818)
(0 -0 30.6682)
(0 -0 30.7542)
(0 -0 30.8399)
(0 -0 30.9252)
(0 -0 31.0097)
(0 -0 31.0934)
(0 -0 31.1761)
(0 -0 31.2575)
(0 -0 31.3374)
(0 -0 31.4159)
(0 -0 31.4926)
(0 -0 31.5676)
(0 -0 31.6407)
(0 -0 31.7122)
(0 -0 31.7814)
(0 -0 31.8492)
(0 -0 31.9145)
(0 -0 31.9785)
(0 -0 32.0399)
(0 -0 24.7779)
(0 -0 24.683)
(0 -0 24.7957)
(0 -0 24.9008)
(0 -0 25.0376)
(0 -0 25.206)
(0 -0 25.3747)
(0 -0 25.53)
(0 -0 25.6778)
(0 -0 25.8231)
(0 -0 25.9653)
(0 -0 26.103)
(0 -0 26.236)
(0 -0 26.3645)
(0 -0 26.4879)
(0 -0 26.606)
(0 -0 26.7191)
(0 -0 26.8278)
(0 -0 26.933)
(0 -0 27.0352)
(0 -0 27.1342)
(0 -0 27.2298)
(0 -0 27.3216)
(0 -0 27.4094)
(0 -0 27.4934)
(0 -0 27.5742)
(0 -0 27.6526)
(0 -0 27.7294)
(0 -0 27.8054)
(0 -0 27.8809)
(0 -0 27.9565)
(0 -0 28.0322)
(0 -0 28.1079)
(0 -0 28.1837)
(0 -0 28.2592)
(0 -0 28.3345)
(0 -0 28.4091)
(0 -0 28.4829)
(0 -0 28.5558)
(0 -0 28.6274)
(0 -0 28.6977)
(0 -0 28.7666)
(0 -0 28.834)
(0 -0 28.8998)
(0 -0 28.9642)
(0 -0 29.0268)
(0 -0 29.0881)
(0 -0 29.1475)
(0 -0 29.2055)
(0 -0 29.2618)
(0 -0 22.8159)
(0 -0 22.7336)
(0 -0 22.8282)
(0 -0 22.9178)
(0 -0 23.0311)
(0 -0 23.1734)
(0 -0 23.3199)
(0 -0 23.456)
(0 -0 23.5849)
(0 -0 23.7115)
(0 -0 23.8357)
(0 -0 23.9563)
(0 -0 24.0729)
(0 -0 24.1853)
(0 -0 24.2931)
(0 -0 24.3961)
(0 -0 24.4943)
(0 -0 24.5887)
(0 -0 24.6799)
(0 -0 24.7684)
(0 -0 24.8541)
(0 -0 24.9368)
(0 -0 25.0159)
(0 -0 25.0912)
(0 -0 25.1631)
(0 -0 25.2321)
(0 -0 25.299)
(0 -0 25.3647)
(0 -0 25.4299)
(0 -0 25.4952)
(0 -0 25.5609)
(0 -0 25.627)
(0 -0 25.6936)
(0 -0 25.7605)
(0 -0 25.8275)
(0 -0 25.8944)
(0 -0 25.961)
(0 -0 26.027)
(0 -0 26.0923)
(0 -0 26.1565)
(0 -0 26.2197)
(0 -0 26.2816)
(0 -0 26.3424)
(0 -0 26.4018)
(0 -0 26.46)
(0 -0 26.5167)
(0 -0 26.5723)
(0 -0 26.6264)
(0 -0 26.6792)
(0 -0 26.7308)
(0 -0 21.0222)
(0 -0 20.9497)
(0 -0 21.0275)
(0 -0 21.1033)
(0 -0 21.1967)
(0 -0 21.3163)
(0 -0 21.4428)
(0 -0 21.5616)
(0 -0 21.6739)
(0 -0 21.7839)
(0 -0 21.8921)
(0 -0 21.9975)
(0 -0 22.0994)
(0 -0 22.1976)
(0 -0 22.2915)
(0 -0 22.3808)
(0 -0 22.4658)
(0 -0 22.5472)
(0 -0 22.6259)
(0 -0 22.7022)
(0 -0 22.7761)
(0 -0 22.8471)
(0 -0 22.9148)
(0 -0 22.979)
(0 -0 23.0399)
(0 -0 23.0982)
(0 -0 23.1549)
(0 -0 23.2106)
(0 -0 23.2663)
(0 -0 23.3224)
(0 -0 23.3793)
(0 -0 23.437)
(0 -0 23.4954)
(0 -0 23.5545)
(0 -0 23.614)
(0 -0 23.6736)
(0 -0 23.7331)
(0 -0 23.7923)
(0 -0 23.8509)
(0 -0 23.9087)
(0 -0 23.9656)
(0 -0 24.0215)
(0 -0 24.0764)
(0 -0 24.1301)
(0 -0 24.1829)
(0 -0 24.2345)
(0 -0 24.2851)
(0 -0 24.3346)
(0 -0 24.3829)
(0 -0 24.4305)
(0 -0 19.3839)
(0 -0 19.3191)
(0 -0 19.3814)
(0 -0 19.4449)
(0 -0 19.5215)
(0 -0 19.6213)
(0 -0 19.73)
(0 -0 19.8336)
(0 -0 19.9312)
(0 -0 20.0265)
(0 -0 20.1206)
(0 -0 20.2124)
(0 -0 20.3013)
(0 -0 20.3869)
(0 -0 20.4684)
(0 -0 20.5456)
(0 -0 20.6188)
(0 -0 20.6888)
(0 -0 20.7562)
(0 -0 20.8216)
(0 -0 20.8849)
(0 -0 20.9456)
(0 -0 21.0031)
(0 -0 21.0573)
(0 -0 21.1084)
(0 -0 21.1573)
(0 -0 21.2047)
(0 -0 21.2516)
(0 -0 21.2988)
(0 -0 21.3468)
(0 -0 21.3959)
(0 -0 21.4461)
(0 -0 21.4975)
(0 -0 21.5497)
(0 -0 21.6026)
(0 -0 21.6558)
(0 -0 21.7092)
(0 -0 21.7624)
(0 -0 21.8152)
(0 -0 21.8674)
(0 -0 21.9189)
(0 -0 21.9695)
(0 -0 22.0194)
(0 -0 22.0682)
(0 -0 22.1163)
(0 -0 22.1634)
(0 -0 22.2098)
(0 -0 22.2553)
(0 -0 22.2997)
(0 -0 22.3437)
(0 -0 17.8884)
(0 -0 17.8295)
(0 -0 17.878)
(0 -0 17.9304)
(0 -0 17.9928)
(0 -0 18.0756)
(0 -0 18.1684)
(0 -0 18.2585)
(0 -0 18.3433)
(0 -0 18.4258)
(0 -0 18.5073)
(0 -0 18.5872)
(0 -0 18.6647)
(0 -0 18.739)
(0 -0 18.8096)
(0 -0 18.8762)
(0 -0 18.9389)
(0 -0 18.9986)
(0 -0 19.0561)
(0 -0 19.1119)
(0 -0 19.1658)
(0 -0 19.2172)
(0 -0 19.2656)
(0 -0 19.3109)
(0 -0 19.3534)
(0 -0 19.3938)
(0 -0 19.4331)
(0 -0 19.4721)
(0 -0 19.5118)
(0 -0 19.5526)
(0 -0 19.5949)
(0 -0 19.6386)
(0 -0 19.6837)
(0 -0 19.73)
(0 -0 19.7771)
(0 -0 19.8249)
(0 -0 19.8729)
(0 -0 19.921)
(0 -0 19.9688)
(0 -0 20.0162)
(0 -0 20.0631)
(0 -0 20.1091)
(0 -0 20.1546)
(0 -0 20.1993)
(0 -0 20.2434)
(0 -0 20.2867)
(0 -0 20.3295)
(0 -0 20.3715)
(0 -0 20.4126)
(0 -0 20.4536)
(0 -0 16.5236)
(0 -0 16.4693)
(0 -0 16.5054)
(0 -0 16.5479)
(0 -0 16.5983)
(0 -0 16.6665)
(0 -0 16.7454)
(0 -0 16.8234)
(0 -0 16.8971)
(0 -0 16.9684)
(0 -0 17.039)
(0 -0 17.1083)
(0 -0 17.1757)
(0 -0 17.2403)
(0 -0 17.3012)
(0 -0 17.3583)
(0 -0 17.4118)
(0 -0 17.4624)
(0 -0 17.5112)
(0 -0 17.5584)
(0 -0 17.604)
(0 -0 17.6472)
(0 -0 17.6876)
(0 -0 17.7251)
(0 -0 17.7598)
(0 -0 17.7927)
(0 -0 17.8247)
(0 -0 17.8568)
(0 -0 17.8899)
(0 -0 17.9244)
(0 -0 17.9607)
(0 -0 17.9988)
(0 -0 18.0385)
(0 -0 18.0796)
(0 -0 18.1218)
(0 -0 18.1649)
(0 -0 18.2084)
(0 -0 18.252)
(0 -0 18.2956)
(0 -0 18.3389)
(0 -0 18.3818)
(0 -0 18.424)
(0 -0 18.4658)
(0 -0 18.507)
(0 -0 18.5477)
(0 -0 18.5878)
(0 -0 18.6275)
(0 -0 18.6666)
(0 -0 18.705)
(0 -0 18.7434)
(0 -0 15.278)
(0 -0 15.227)
(0 -0 15.2524)
(0 -0 15.2858)
(0 -0 15.326)
(0 -0 15.3819)
(0 -0 15.4486)
(0 -0 15.5161)
(0 -0 15.58)
(0 -0 15.6416)
(0 -0 15.7026)
(0 -0 15.7628)
(0 -0 15.8213)
(0 -0 15.8773)
(0 -0 15.9298)
(0 -0 15.9785)
(0 -0 16.0238)
(0 -0 16.0666)
(0 -0 16.1076)
(0 -0 16.1473)