/*--------------------------------*- C++ -*----------------------------------*\
  =========                 |
  \\      /  F ield         | OpenFOAM: The Open Source CFD Toolbox
   \\    /   O peration     | Website:  https://openfoam.org
    \\  /    A nd           | Version:  7
     \\/     M anipulation  |
\*---------------------------------------------------------------------------*/
FoamFile
{
    version     2.0;
    format      ascii;
    class       volVectorField;
    location    "0.27";
    object      ddt0(U);
}
// * * * * * * * * * * * * * * * * * * * * * * * * * * * * * * * * * * * * * //

dimensions      [0 1 -2 0 0 0 0];

internalField   nonuniform List<vector> 
70000
(
(-0.000355471 1.2338e-05 0)
(-0.000675083 2.12335e-06 0)
(0.000776436 -2.39856e-06 0)
(0.00320976 5.32381e-06 0)
(0.00570905 5.76224e-06 0)
(0.00803135 7.09606e-06 0)
(0.00996739 8.91891e-06 0)
(0.0113598 1.03206e-05 0)
(0.0121626 1.21296e-05 0)
(0.0123958 1.46488e-05 0)
(0.0121335 1.73702e-05 0)
(0.0114946 1.95016e-05 0)
(0.0106137 2.07626e-05 0)
(0.00960674 2.10333e-05 0)
(0.00856649 2.04899e-05 0)
(0.00756051 1.90669e-05 0)
(0.00664236 1.69638e-05 0)
(0.00585294 1.44454e-05 0)
(0.00523574 1.08715e-05 0)
(0.00484512 6.55778e-06 0)
(0.00474299 9.24791e-07 0)
(0.00500874 -6.07388e-06 0)
(0.00573558 -1.47909e-05 0)
(0.00703567 -2.55639e-05 0)
(0.00903834 -3.88742e-05 0)
(0.0118954 -5.47824e-05 0)
(0.0157822 -7.43715e-05 0)
(0.0209063 -9.74732e-05 0)
(0.027504 -0.000125334 0)
(0.035872 -0.000158491 0)
(0.0463345 -0.000197818 0)
(0.059317 -0.000244699 0)
(0.0752801 -0.000300337 0)
(0.0948277 -0.000366233 0)
(0.118593 -0.000443642 0)
(0.147399 -0.000534277 0)
(0.182135 -0.000639714 0)
(0.223875 -0.000761406 0)
(0.273853 -0.000898849 0)
(0.333429 -0.00105602 0)
(0.404107 -0.00121902 0)
(0.487797 -0.00140861 0)
(0.585435 -0.00155782 0)
(0.700596 -0.00176381 0)
(0.830638 -0.00175294 0)
(0.983499 -0.00193907 0)
(1.14466 -0.00118713 0)
(1.33011 -0.00146196 0)
(1.49715 0.00321618 0)
(1.42082 -0.0896967 0)
(-0.000625913 4.15846e-05 0)
(-0.000803194 -9.5086e-05 0)
(0.00425197 -0.000272387 0)
(0.0129118 -0.000338934 0)
(0.0220127 -0.000332097 0)
(0.0305173 -0.000292689 0)
(0.0378562 -0.000231984 0)
(0.0435033 -0.000159209 0)
(0.047227 -8.36714e-05 0)
(0.0490722 -1.28697e-05 0)
(0.0492874 4.60488e-05 0)
(0.0482448 8.86158e-05 0)
(0.0463417 0.000114988 0)
(0.0439136 0.000127748 0)
(0.041217 0.000130078 0)
(0.0384343 0.000124015 0)
(0.0356996 0.00011135 0)
(0.0331172 9.26064e-05 0)
(0.0307863 6.60805e-05 0)
(0.0288274 3.04025e-05 0)
(0.0273758 -1.66433e-05 0)
(0.0266045 -7.79843e-05 0)
(0.0267173 -0.000156494 0)
(0.0279621 -0.000255788 0)
(0.030621 -0.000379856 0)
(0.0350341 -0.000533256 0)
(0.0415906 -0.000722027 0)
(0.0507626 -0.000952377 0)
(0.0630912 -0.00123343 0)
(0.0792658 -0.00157524 0)
(0.100043 -0.00199055 0)
(0.126437 -0.00249551 0)
(0.159539 -0.00310881 0)
(0.200819 -0.00385218 0)
(0.251822 -0.00474988 0)
(0.314607 -0.00583403 0)
(0.391435 -0.00713725 0)
(0.485077 -0.00870336 0)
(0.598852 -0.0105698 0)
(0.73646 -0.0127973 0)
(0.902294 -0.0154133 0)
(1.10204 -0.0185019 0)
(1.33941 -0.0220218 0)
(1.62564 -0.0261409 0)
(1.95727 -0.030396 0)
(2.35888 -0.035538 0)
(2.80432 -0.0385846 0)
(3.33704 -0.0458519 0)
(3.90588 -0.0191202 0)
(4.25126 -0.164535 0)
(-0.00068189 9.53224e-05 0)
(-0.00167329 -0.00025291 0)
(0.00387609 -0.000783181 0)
(0.0160555 -0.00106067 0)
(0.0304998 -0.00108088 0)
(0.0446147 -0.000979287 0)
(0.0571298 -0.000804178 0)
(0.067076 -0.000578858 0)
(0.0738951 -0.00033626 0)
(0.0775014 -0.000106361 0)
(0.0781969 8.73937e-05 0)
(0.0765192 0.000232789 0)
(0.0730775 0.000330801 0)
(0.0684119 0.000389539 0)
(0.0629479 0.000418717 0)
(0.0569985 0.000425154 0)
(0.0507928 0.000414312 0)
(0.0445097 0.000388009 0)
(0.0383009 0.000343407 0)
(0.0323338 0.000277412 0)
(0.0267864 0.000184803 0)
(0.0218793 5.88003e-05 0)
(0.0178687 -0.000107701 0)
(0.0150683 -0.000323332 0)
(0.0138326 -0.000597714 0)
(0.0145942 -0.000942251 0)
(0.0178463 -0.00137177 0)
(0.0241991 -0.00190234 0)
(0.0343515 -0.00255742 0)
(0.0492092 -0.00336213 0)
(0.0697707 -0.00435024 0)
(0.0973868 -0.00556244 0)
(0.133514 -0.00704813 0)
(0.180134 -0.0088642 0)
(0.239354 -0.0110773 0)
(0.313981 -0.0137747 0)
(0.407176 -0.0170472 0)
(0.522777 -0.0210209 0)
(0.665526 -0.0258129 0)
(0.840761 -0.031595 0)
(1.05485 -0.0385183 0)
(1.31649 -0.0467752 0)
(1.63136 -0.0565288 0)
(2.01701 -0.0680129 0)
(2.47039 -0.0808842 0)
(3.0289 -0.0962542 0)
(3.66341 -0.10923 0)
(4.4379 -0.132228 0)
(5.29443 -0.0985505 0)
(6.15102 -0.23291 0)
(-0.000490043 0.00017824 0)
(-0.00250593 -0.000345734 0)
(0.000797423 -0.00132195 0)
(0.0122415 -0.00197193 0)
(0.0286743 -0.00213304 0)
(0.046491 -0.00200241 0)
(0.0632763 -0.00169586 0)
(0.0773399 -0.00126621 0)
(0.0876278 -0.000777534 0)
(0.0937119 -0.000295205 0)
(0.0957101 0.000128102 0)
(0.0941139 0.000463766 0)
(0.0895949 0.000708753 0)
(0.0828203 0.000876047 0)
(0.0743645 0.000983322 0)
(0.0646879 0.0010444 0)
(0.0541487 0.00107039 0)
(0.0430414 0.00106621 0)
(0.0316047 0.0010296 0)
(0.020072 0.000956267 0)
(0.00866911 0.000838666 0)
(-0.00234971 0.000665885 0)
(-0.0127038 0.000426179 0)
(-0.0220556 0.000105135 0)
(-0.0300299 -0.00031341 0)
(-0.0361643 -0.000849206 0)
(-0.0399345 -0.00152735 0)
(-0.0406809 -0.00237653 0)
(-0.0376448 -0.00343739 0)
(-0.0298332 -0.00475448 0)
(-0.0161393 -0.00638768 0)
(0.00493576 -0.00840824 0)
(0.035027 -0.0109043 0)
(0.0763499 -0.0139781 0)
(0.131319 -0.0177498 0)
(0.203092 -0.0223795 0)
(0.295343 -0.0280331 0)
(0.412469 -0.0349455 0)
(0.559997 -0.0433472 0)
(0.744293 -0.0535498 0)
(0.97274 -0.0659054 0)
(1.25612 -0.0807284 0)
(1.6012 -0.0985454 0)
(2.02954 -0.119658 0)
(2.53944 -0.144063 0)
(3.17492 -0.173387 0)
(3.90987 -0.200772 0)
(4.81922 -0.244474 0)
(5.8374 -0.221912 0)
(7.03158 -0.327761 0)
(-0.00024208 0.000272994 0)
(-0.00270374 -0.000322843 0)
(-0.00228813 -0.00170373 0)
(0.00551041 -0.00283582 0)
(0.0201165 -0.00330417 0)
(0.0385225 -0.00326381 0)
(0.0576788 -0.00287917 0)
(0.0751125 -0.00224939 0)
(0.0891254 -0.00148022 0)
(0.0987619 -0.00068036 0)
(0.103703 5.84084e-05 0)
(0.10411 0.000680173 0)
(0.100458 0.00116862 0)
(0.0933498 0.00153508 0)
(0.0833958 0.00180182 0)
(0.071157 0.00198855 0)
(0.0571221 0.00211215 0)
(0.0417349 0.00218174 0)
(0.0253724 0.0021975 0)
(0.00838538 0.00215594 0)
(-0.00890899 0.00204891 0)
(-0.0261963 0.00186296 0)
(-0.0431629 0.00158254 0)
(-0.0594557 0.00118797 0)
(-0.0746993 0.000656536 0)
(-0.0884353 -4.01005e-05 0)
(-0.100147 -0.000938109 0)
(-0.109179 -0.00207979 0)
(-0.114768 -0.00352468 0)
(-0.115916 -0.00533897 0)
(-0.111487 -0.00761144 0)
(-0.0999553 -0.0104474 0)
(-0.079618 -0.0139775 0)
(-0.0482096 -0.0183562 0)
(-0.00317287 -0.0237628 0)
(0.0587469 -0.0304403 0)
(0.141457 -0.038642 0)
(0.249593 -0.048724 0)
(0.388984 -0.0610584 0)
(0.566591 -0.0761072 0)
(0.790141 -0.0944812 0)
(1.0716 -0.116632 0)
(1.41845 -0.143533 0)
(1.85378 -0.175624 0)
(2.37844 -0.213314 0)
(3.03716 -0.258936 0)
(3.81122 -0.30404 0)
(4.7764 -0.370928 0)
(5.87082 -0.369794 0)
(7.23163 -0.458536 0)
(-0.000111853 0.000360283 0)
(-0.00242114 -0.000213957 0)
(-0.00398094 -0.00186462 0)
(-0.00031073 -0.00346454 0)
(0.0102246 -0.00436019 0)
(0.0262492 -0.0045692 0)
(0.0451206 -0.0042371 0)
(0.0641241 -0.00349371 0)
(0.0811171 -0.00248795 0)
(0.0946455 -0.00137353 0)
(0.103854 -0.000283632 0)
(0.108366 0.000692208 0)
(0.108189 0.00151425 0)
(0.103593 0.00218112 0)
(0.0949981 0.0027103 0)
(0.0829059 0.00312076 0)
(0.0678415 0.00343068 0)
(0.0503592 0.00365104 0)
(0.030987 0.0037844 0)
(0.0102357 0.00382942 0)
(-0.0114274 0.00377971 0)
(-0.0335704 0.00362218 0)
(-0.0558012 0.00333999 0)
(-0.0777245 0.00291021 0)
(-0.0989528 0.00230484 0)
(-0.119037 0.00148763 0)
(-0.137482 0.000411512 0)
(-0.153662 -0.000979854 0)
(-0.166842 -0.00276529 0)
(-0.17606 -0.00503401 0)
(-0.180197 -0.00790453 0)
(-0.177771 -0.0115186 0)
(-0.167077 -0.0160505 0)
(-0.145905 -0.021711 0)
(-0.111663 -0.0287418 0)
(-0.0611381 -0.0374731 0)
(0.00961334 -0.0482548 0)
(0.105281 -0.0615675 0)
(0.231679 -0.0779455 0)
(0.396037 -0.0980066 0)
(0.606084 -0.122648 0)
(0.874153 -0.152496 0)
(1.20841 -0.188963 0)
(1.63151 -0.232786 0)
(2.14763 -0.284671 0)
(2.79836 -0.347986 0)
(3.5739 -0.412901 0)
(4.54601 -0.504261 0)
(5.65993 -0.531229 0)
(7.09327 -0.614933 0)
(-0.000114384 0.000434494 0)
(-0.00206909 -6.82345e-05 0)
(-0.00441698 -0.00185289 0)
(-0.0036797 -0.00382147 0)
(0.00270502 -0.00516131 0)
(0.0149292 -0.0057284 0)
(0.0313684 -0.00559121 0)
(0.0497349 -0.00487189 0)
(0.0679447 -0.00374602 0)
(0.084382 -0.00240231 0)
(0.0978459 -0.00100664 0)
(0.107464 0.000322238 0)
(0.112677 0.00151836 0)
(0.113222 0.00255895 0)
(0.10909 0.00344554 0)
(0.100487 0.00418542 0)
(0.0877774 0.00478839 0)
(0.0714758 0.0052596 0)
(0.052175 0.00559893 0)
(0.0305182 0.00580493 0)
(0.00714248 0.00587339 0)
(-0.0173524 0.00579411 0)
(-0.042435 0.00555243 0)
(-0.0676137 0.00512572 0)
(-0.0924473 0.00448368 0)
(-0.116474 0.00358413 0)
(-0.139209 0.00237052 0)
(-0.160064 0.000772841 0)
(-0.178341 -0.00130653 0)
(-0.193141 -0.00398044 0)
(-0.203387 -0.00739705 0)
(-0.207681 -0.0117357 0)
(-0.20436 -0.0172145 0)
(-0.191321 -0.0241023 0)
(-0.16602 -0.0327046 0)
(-0.125354 -0.0434396 0)
(-0.0654844 -0.05676 0)
(0.0182165 -0.0732691 0)
(0.131362 -0.0936757 0)
(0.281171 -0.11876 0)
(0.475225 -0.149703 0)
(0.725576 -0.187366 0)
(1.04105 -0.233529 0)
(1.44271 -0.289417 0)
(1.93785 -0.355853 0)
(2.56391 -0.437508 0)
(3.31751 -0.523507 0)
(4.2688 -0.639678 0)
(5.36454 -0.699074 0)
(6.80896 -0.790269 0)
(-0.00017159 0.00050227 0)
(-0.00187991 8.21909e-05 0)
(-0.00424776 -0.00175174 0)
(-0.0049621 -0.00397757 0)
(-0.00146704 -0.0057061 0)
(0.00725496 -0.00665679 0)
(0.0205199 -0.00680288 0)
(0.0367537 -0.0062313 0)
(0.0543376 -0.0051237 0)
(0.0719102 -0.00368684 0)
(0.0883027 -0.00210224 0)
(0.10244 -0.000502521 0)
(0.113363 0.00102935 0)
(0.120295 0.00245027 0)
(0.122706 0.00374048 0)
(0.120331 0.0048865 0)
(0.113166 0.0058789 0)
(0.101475 0.00670563 0)
(0.0857311 0.00735361 0)
(0.0665793 0.00781331 0)
(0.0447567 0.008078 0)
(0.0210188 0.0081395 0)
(-0.00393305 0.00798737 0)
(-0.0294604 0.007603 0)
(-0.0550135 0.00695801 0)
(-0.0800742 0.00600804 0)
(-0.104138 0.00468988 0)
(-0.126639 0.00292166 0)
(-0.146916 0.000588386 0)
(-0.164141 -0.00244617 0)
(-0.177299 -0.00635893 0)
(-0.185096 -0.0113671 0)
(-0.185948 -0.017732 0)
(-0.177887 -0.0257802 0)
(-0.158482 -0.0358827 0)
(-0.124781 -0.0485419 0)
(-0.0731453 -0.0643179 0)
(0.000895619 -0.0839325 0)
(0.10264 -0.108271 0)
(0.239072 -0.138285 0)
(0.417502 -0.175419 0)
(0.649309 -0.220828 0)
(0.943684 -0.276576 0)
(1.3198 -0.344516 0)
(1.7868 -0.425503 0)
(2.37905 -0.52548 0)
(3.09525 -0.633284 0)
(4.00714 -0.773956 0)
(5.06199 -0.868165 0)
(6.46939 -0.979073 0)
(-0.000221604 0.000571396 0)
(-0.0018448 0.000226937 0)
(-0.004037 -0.00162624 0)
(-0.00513864 -0.00403049 0)
(-0.00309367 -0.00607476 0)
(0.00331778 -0.00737882 0)
(0.0139224 -0.00783005 0)
(0.0277163 -0.00747476 0)
(0.0436287 -0.00649187 0)
(0.0607709 -0.00509483 0)
(0.0783182 -0.00346486 0)
(0.0953438 -0.00172942 0)
(0.110809 2.9129e-05 0)
(0.123663 0.00175919 0)
(0.132971 0.00342457 0)
(0.13801 0.00499005 0)
(0.138318 0.00642128 0)
(0.133755 0.00767986 0)
(0.124485 0.00872817 0)
(0.110968 0.00953663 0)
(0.0938859 0.0100857 0)
(0.0740514 0.0103627 0)
(0.0522941 0.0103589 0)
(0.0294043 0.0100609 0)
(0.00607415 0.00944598 0)
(-0.0170788 0.00847199 0)
(-0.039492 0.0070735 0)
(-0.0605929 0.00516002 0)
(-0.0797448 0.00260213 0)
(-0.0961876 -0.000758304 0)
(-0.108978 -0.00512537 0)
(-0.116942 -0.0107531 0)
(-0.118604 -0.0179452 0)
(-0.112155 -0.0270841 0)
(-0.0953276 -0.0386064 0)
(-0.0653554 -0.0530946 0)
(-0.0188697 -0.0712158 0)
(0.0483601 -0.0938061 0)
(0.141235 -0.121921 0)
(0.266333 -0.156691 0)
(0.430545 -0.199796 0)
(0.644372 -0.25272 0)
(0.91689 -0.317758 0)
(1.26553 -0.397432 0)
(1.69969 -0.492683 0)
(2.25189 -0.610437 0)
(2.92024 -0.740099 0)
(3.7766 -0.904783 0)
(4.77539 -1.03438 0)
(6.11035 -1.17412 0)
(-0.000247437 0.00064522 0)
(-0.00187957 0.000368677 0)
(-0.00394236 -0.00149954 0)
(-0.00501434 -0.0040514 0)
(-0.00343288 -0.00636027 0)
(0.00187428 -0.00797373 0)
(0.0108465 -0.0087113 0)
(0.0227683 -0.00858708 0)
(0.0369358 -0.00778151 0)
(0.0528924 -0.00651486 0)
(0.0702513 -0.00496152 0)
(0.0884428 -0.00323024 0)
(0.106632 -0.00138552 0)
(0.123786 0.000529115 0)
(0.138821 0.0024738 0)
(0.150734 0.0043995 0)
(0.158695 0.00625017 0)
(0.162153 0.00795908 0)
(0.160878 0.00945724 0)
(0.155001 0.0106842 0)
(0.144988 0.0115952 0)
(0.13156 0.0121616 0)
(0.115568 0.0123688 0)
(0.0978927 0.0122053 0)
(0.0793546 0.0116543 0)
(0.0606839 0.0106793 0)
(0.0425281 0.00921715 0)
(0.0254944 0.00717323 0)
(0.0102147 0.00440788 0)
(-0.00260563 0.000744203 0)
(-0.0121023 -0.00404633 0)
(-0.0172232 -0.0102523 0)
(-0.0166343 -0.0182181 0)
(-0.00869836 -0.028379 0)
(0.00863962 -0.0412365 0)
(0.037925 -0.0574473 0)
(0.0822037 -0.0777833 0)
(0.145392 -0.103188 0)
(0.231927 -0.134878 0)
(0.34785 -0.17416 0)
(0.499481 -0.222922 0)
(0.696325 -0.282993 0)
(0.946851 -0.356863 0)
(1.26692 -0.447688 0)
(1.66502 -0.556614 0)
(2.17187 -0.691236 0)
(2.78512 -0.842049 0)
(3.57192 -1.03003 0)
(4.50048 -1.19443 0)
(5.73846 -1.36893 0)
(-0.000256824 0.000723949 0)
(-0.0019245 0.000512685 0)
(-0.00393984 -0.00137632 0)
(-0.00490396 -0.00407072 0)
(-0.00335101 -0.00662444 0)
(0.00161052 -0.00851835 0)
(0.00986283 -0.00951541 0)
(0.020726 -0.00960882 0)
(0.0336469 -0.00899031 0)
(0.0484335 -0.00789517 0)
(0.065033 -0.0064944 0)
(0.0832424 -0.00487409 0)
(0.102547 -0.00307084 0)
(0.122131 -0.00110669 0)
(0.140999 0.0009887 0)
(0.158099 0.003165 0)
(0.172431 0.00535431 0)
(0.183167 0.00746778 0)
(0.189739 0.00940586 0)
(0.191925 0.0110724 0)
(0.18989 0.012388 0)
(0.184143 0.0132962 0)
(0.175435 0.0137657 0)
(0.164644 0.0137791 0)
(0.152654 0.0133221 0)
(0.140284 0.0123642 0)
(0.128262 0.0108473 0)
(0.117246 0.00867727 0)
(0.107876 0.00570895 0)
(0.10082 0.00175102 0)
(0.096864 -0.00344563 0)
(0.0969399 -0.0102001 0)
(0.102224 -0.018895 0)
(0.114164 -0.030014 0)
(0.13457 -0.0441211 0)
(0.165728 -0.0619414 0)
(0.210324 -0.0843453 0)
(0.271889 -0.112378 0)
(0.354351 -0.147399 0)
(0.463108 -0.190892 0)
(0.603789 -0.244919 0)
(0.784814 -0.311644 0)
(1.01369 -0.39374 0)
(1.30462 -0.494911 0)
(1.66482 -0.616612 0)
(2.12212 -0.766894 0)
(2.67513 -0.937526 0)
(3.38208 -1.1476 0)
(4.22655 -1.34546 0)
(5.34976 -1.55797 0)
(-0.000260121 0.000807023 0)
(-0.00196072 0.000661775 0)
(-0.00397226 -0.0012539 0)
(-0.00485848 -0.00409722 0)
(-0.00321941 -0.00689552 0)
(0.0017256 -0.00906017 0)
(0.00977737 -0.0103009 0)
(0.0202114 -0.0105949 0)
(0.0324871 -0.0101537 0)
(0.0464942 -0.00923785 0)
(0.0623651 -0.00802232 0)
(0.080141 -0.00657477 0)
(0.099591 -0.00490187 0)
(0.120163 -0.00299811 0)
(0.141069 -0.000873407 0)
(0.16138 0.00143138 0)
(0.180115 0.00384797 0)
(0.196353 0.00627581 0)
(0.209333 0.00859205 0)
(0.218572 0.0106671 0)
(0.223952 0.0123831 0)
(0.225737 0.0136481 0)
(0.224506 0.0144038 0)
(0.221049 0.0146176 0)
(0.216241 0.0142714 0)
(0.210938 0.0133376 0)
(0.205924 0.0117644 0)
(0.201898 0.00946039 0)
(0.199515 0.00627959 0)
(0.199414 0.00202113 0)
(0.202315 -0.00358014 0)
(0.209036 -0.0108688 0)
(0.220591 -0.0202616 0)
(0.238233 -0.0322848 0)
(0.26351 -0.0475613 0)
(0.298419 -0.0668774 0)
(0.345265 -0.0911942 0)
(0.407138 -0.121651 0)
(0.48743 -0.159731 0)
(0.590822 -0.207084 0)
(0.722174 -0.265922 0)
(0.888744 -0.338708 0)
(1.0969 -0.428289 0)
(1.35896 -0.538834 0)
(1.68096 -0.672129 0)
(2.0866 -0.836578 0)
(2.57634 -1.02525 0)
(3.19792 -1.25566 0)
(3.94757 -1.48503 0)
(4.94361 -1.73642 0)
(-0.000262399 0.000894109 0)
(-0.00198944 0.000816616 0)
(-0.0040089 -0.00112985 0)
(-0.00484703 -0.00413067 0)
(-0.00312124 -0.00718174 0)
(0.00189524 -0.00961976 0)
(0.00995559 -0.0111001 0)
(0.0202925 -0.0115859 0)
(0.0323317 -0.0113122 0)
(0.0459663 -0.0105705 0)
(0.0613782 -0.00954775 0)
(0.0787332 -0.00829889 0)
(0.0979648 -0.00680437 0)
(0.118729 -0.00503078 0)
(0.140439 -0.00296585 0)
(0.162346 -0.000634786 0)
(0.183599 0.00190201 0)
(0.203327 0.00454229 0)
(0.220727 0.00714919 0)
(0.235188 0.00956627 0)
(0.246407 0.0116395 0)
(0.254449 0.0132382 0)
(0.259718 0.0142709 0)
(0.262884 0.014682 0)
(0.264763 0.0144424 0)
(0.2662 0.0135234 0)
(0.267998 0.0118774 0)
(0.270882 0.00941765 0)
(0.275514 0.00600005 0)
(0.282516 0.00141856 0)
(0.292546 -0.00460331 0)
(0.306326 -0.0124298 0)
(0.324721 -0.0225071 0)
(0.348794 -0.0353976 0)
(0.379837 -0.0517766 0)
(0.419546 -0.0724849 0)
(0.469851 -0.0985631 0)
(0.533365 -0.131236 0)
(0.612948 -0.172092 0)
(0.712525 -0.222931 0)
(0.836168 -0.286084 0)
(0.989917 -0.364281 0)
(1.17902 -0.460514 0)
(1.41359 -0.579344 0)
(1.69877 -0.722854 0)
(2.05343 -0.899748 0)
(2.47984 -1.10434 0)
(3.01561 -1.35292 0)
(3.66544 -1.61115 0)
(4.52844 -1.90049 0)
(-0.00026477 0.000985213 0)
(-0.00201473 0.000977242 0)
(-0.0040422 -0.0010033 0)
(-0.00484362 -0.0041698 0)
(-0.00304533 -0.00748386 0)
(0.00204735 -0.0102028 0)
(0.0101669 -0.0119263 0)
(0.0205269 -0.0126031 0)
(0.0325279 -0.0124926 0)
(0.0460435 -0.0119206 0)
(0.0612549 -0.0110899 0)
(0.0783565 -0.0100472 0)
(0.0973567 -0.00875075 0)
(0.118016 -0.00714266 0)
(0.139893 -0.00518943 0)
(0.162389 -0.00289987 0)
(0.1848 -0.000322835 0)
(0.206362 0.00244385 0)
(0.226328 0.005257 0)
(0.244072 0.00794057 0)
(0.259217 0.010309 0)
(0.271712 0.0121944 0)
(0.281838 0.0134695 0)
(0.290158 0.0140509 0)
(0.29742 0.0138933 0)
(0.304432 0.0129625 0)
(0.311994 0.011213 0)
(0.320834 0.0085622 0)
(0.331616 0.00486989 0)
(0.344947 -7.16756e-05 0)
(0.361437 -0.00654632 0)
(0.381731 -0.0149327 0)
(0.406568 -0.0257005 0)
(0.436842 -0.0394419 0)
(0.473622 -0.0568771 0)
(0.518309 -0.0788937 0)
(0.572491 -0.1066 0)
(0.638309 -0.141295 0)
(0.718122 -0.184654 0)
(0.815105 -0.238609 0)
(0.932584 -0.30558 0)
(1.07537 -0.388526 0)
(1.2477 -0.490541 0)
(1.45738 -0.616523 0)
(1.7088 -0.768788 0)
(2.01603 -0.956278 0)
(2.38246 -1.1745 0)
(2.83697 -1.43882 0)
(3.38879 -1.72266 0)
(4.12068 -2.04758 0)
(-0.000267125 0.00108042 0)
(-0.00203842 0.00114378 0)
(-0.0040725 -0.000874246 0)
(-0.00483927 -0.00421424 0)
(-0.00297447 -0.00780161 0)
(0.00218718 -0.0108103 0)
(0.0103669 -0.0127828 0)
(0.0207748 -0.0136543 0)
(0.0328027 -0.0137084 0)
(0.0463108 -0.0133058 0)
(0.0614688 -0.0126669 0)
(0.0784665 -0.0118321 0)
(0.0973273 -0.0107402 0)
(0.117853 -0.00931155 0)
(0.139669 -0.00749411 0)
(0.162271 -0.00528203 0)
(0.185061 -0.00271257 0)
(0.20738 0.000123128 0)
(0.228564 0.00307969 0)
(0.248033 0.00596648 0)
(0.265413 0.0085712 0)
(0.280616 0.0106911 0)
(0.293862 0.0121637 0)
(0.305651 0.0128759 0)
(0.316675 0.0127633 0)
(0.327711 0.011783 0)
(0.339539 0.00988948 0)
(0.352886 0.00700381 0)
(0.36841 0.00299041 0)
(0.386706 -0.00235782 0)
(0.408351 -0.00932883 0)
(0.433931 -0.0183109 0)
(0.46409 -0.0297924 0)
(0.499586 -0.0443887 0)
(0.541306 -0.0628569 0)
(0.590395 -0.0861241 0)
(0.648152 -0.115352 0)
(0.716283 -0.151907 0)
(0.796711 -0.197528 0)
(0.891913 -0.25426 0)
(1.00456 -0.324585 0)
(1.1383 -0.411652 0)
(1.2965 -0.518617 0)
(1.48479 -0.650647 0)
(1.70684 -0.810239 0)
(1.97248 -1.00648 0)
(2.28543 -1.23605 0)
(2.66745 -1.51357 0)
(3.12937 -1.81952 0)
(3.73971 -2.17645 0)
(-0.000269329 0.00117982 0)
(-0.00206082 0.00131659 0)
(-0.00410064 -0.000742891 0)
(-0.00483292 -0.00426421 0)
(-0.00290219 -0.00813526 0)
(0.00232555 -0.0114426 0)
(0.0105606 -0.0136708 0)
(0.021015 -0.0147418 0)
(0.033081 -0.0149643 0)
(0.0466149 -0.0147342 0)
(0.0617787 -0.0142895 0)
(0.0787522 -0.013665 0)
(0.0975527 -0.0127804 0)
(0.117989 -0.0115359 0)
(0.139708 -0.00986305 0)
(0.162249 -0.0077433 0)
(0.185069 -0.00520379 0)
(0.207581 -0.00232921 0)
(0.229187 0.000733915 0)
(0.249369 0.00378263 0)
(0.267785 0.00658053 0)
(0.28436 0.00889246 0)
(0.299304 0.0105217 0)
(0.31309 0.0113256 0)
(0.326385 0.0112191 0)
(0.339941 0.0101495 0)
(0.354526 0.00806974 0)
(0.370858 0.0049041 0)
(0.38959 0.000521838 0)
(0.411306 -0.00528177 0)
(0.436562 -0.0127967 0)
(0.465907 -0.0224174 0)
(0.499916 -0.0346463 0)
(0.539247 -0.0501168 0)
(0.584657 -0.0696148 0)
(0.63708 -0.0941002 0)
(0.697591 -0.124776 0)
(0.767532 -0.163066 0)
(0.848471 -0.210752 0)
(0.94228 -0.269976 0)
(1.0511 -0.343255 0)
(1.17754 -0.433892 0)
(1.32428 -0.545064 0)
(1.49502 -0.682145 0)
(1.6928 -0.847764 0)
(1.92395 -1.05107 0)
(2.19199 -1.28983 0)
(2.51303 -1.57815 0)
(2.8977 -1.90271 0)
(3.40193 -2.2874 0)
(-0.000271355 0.00128348 0)
(-0.00208186 0.00149596 0)
(-0.00412678 -0.000609347 0)
(-0.00482496 -0.00432003 0)
(-0.00282782 -0.00848537 0)
(0.00246609 -0.0121006 0)
(0.0107544 -0.0145909 0)
(0.0212524 -0.0158667 0)
(0.033355 -0.0162622 0)
(0.0469196 -0.0162091 0)
(0.062105 -0.0159629 0)
(0.0790835 -0.0155524 0)
(0.0978635 -0.0148781 0)
(0.118249 -0.0138202 0)
(0.13989 -0.0122948 0)
(0.162336 -0.0102717 0)
(0.18507 -0.00776937 0)
(0.207537 -0.00486719 0)
(0.229182 -0.0017134 0)
(0.249529 0.00147679 0)
(0.26828 0.00444358 0)
(0.285384 0.00692041 0)
(0.301066 0.00867717 0)
(0.315802 0.00954201 0)
(0.330249 0.00940946 0)
(0.34515 0.00821612 0)
(0.361262 0.00591324 0)
(0.379298 0.00242785 0)
(0.399905 -0.00236553 0)
(0.423658 -0.00866868 0)
(0.451104 -0.0167716 0)
(0.482755 -0.027073 0)
(0.519161 -0.0400853 0)
(0.560896 -0.0564564 0)
(0.608632 -0.0769944 0)
(0.663148 -0.102686 0)
(0.725359 -0.134765 0)
(0.796321 -0.174701 0)
(0.877331 -0.224307 0)
(0.969775 -0.285804 0)
(1.07539 -0.361716 0)
(1.19593 -0.45547 0)
(1.33355 -0.570233 0)
(1.4904 -0.71152 0)
(1.66894 -0.882066 0)
(1.87285 -1.09098 0)
(2.10515 -1.33709 0)
(2.3776 -1.63407 0)
(2.6997 -1.97397 0)
(3.11625 -2.38205 0)
(-0.000273219 0.00139152 0)
(-0.00210145 0.00168208 0)
(-0.00415078 -0.000473717 0)
(-0.00481557 -0.004382 0)
(-0.00275189 -0.00885254 0)
(0.00260872 -0.0127853 0)
(0.0109498 -0.0155443 0)
(0.0214901 -0.0170299 0)
(0.0336278 -0.0176034 0)
(0.0472223 -0.0177322 0)
(0.0624311 -0.0176897 0)
(0.0794216 -0.0174979 0)
(0.0981948 -0.0170378 0)
(0.118548 -0.016169 0)
(0.140128 -0.0147922 0)
(0.162486 -0.0128661 0)
(0.185109 -0.0104013 0)
(0.207453 -0.00747257 0)
(0.228984 -0.00423112 0)
(0.249253 -0.000905344 0)
(0.267991 0.00222095 0)
(0.285176 0.00484963 0)
(0.301054 0.0067173 0)
(0.316109 0.00762337 0)
(0.331003 0.00744204 0)
(0.346475 0.00609959 0)
(0.363276 0.00354541 0)
(0.382112 -0.000290504 0)
(0.403622 -0.00552829 0)
(0.428376 -0.012366 0)
(0.456907 -0.0210931 0)
(0.489715 -0.0321104 0)
(0.527316 -0.0459385 0)
(0.570241 -0.0632369 0)
(0.619106 -0.0848302 0)
(0.674575 -0.111728 0)
(0.737457 -0.145184 0)
(0.808593 -0.186711 0)
(0.889103 -0.238134 0)
(0.979996 -0.301738 0)
(1.0827 -0.380044 0)
(1.19834 -0.476566 0)
(1.32864 -0.594443 0)
(1.47464 -0.739268 0)
(1.63829 -0.913865 0)
(1.82136 -1.12724 0)
(2.02633 -1.37918 0)
(2.26167 -1.68308 0)
(2.53541 -2.03545 0)
(2.88264 -2.46283 0)
(-0.000274926 0.00150403 0)
(-0.00211957 0.0018751 0)
(-0.00417257 -0.000336064 0)
(-0.00480479 -0.00445043 0)
(-0.00267487 -0.00923735 0)
(0.00275262 -0.0134978 0)
(0.0111462 -0.016532 0)
(0.0217281 -0.0182328 0)
(0.0339004 -0.0189891 0)
(0.047524 -0.019305 0)
(0.062756 -0.0194716 0)
(0.0797592 -0.0195037 0)
(0.0985283 -0.019262 0)
(0.118855 -0.0185852 0)
(0.140383 -0.0173582 0)
(0.16266 -0.0155286 0)
(0.185171 -0.0130989 0)
(0.207373 -0.0101403 0)
(0.228742 -0.00680775 0)
(0.248842 -0.00334417 0)
(0.267423 -5.8576e-05 0)
(0.284486 0.00271846 0)
(0.300295 0.00468989 0)
(0.315348 0.00562642 0)
(0.330309 0.00538228 0)
(0.345917 0.00387378 0)
(0.362916 0.00104881 0)
(0.382004 -0.00315938 0)
(0.40381 -0.0088654 0)
(0.428896 -0.0162632 0)
(0.457784 -0.0256407 0)
(0.490957 -0.0374007 0)
(0.528915 -0.0520698 0)
(0.572152 -0.0703169 0)
(0.621245 -0.0929798 0)
(0.676781 -0.121088 0)
(0.739493 -0.155909 0)
(0.810078 -0.198991 0)
(0.88951 -0.25216 0)
(0.978539 -0.317758 0)
(1.07839 -0.398286 0)
(1.18972 -0.497316 0)
(1.31394 -0.617954 0)
(1.4513 -0.765814 0)
(1.60336 -0.943802 0)
(1.77061 -1.16077 0)
(1.95507 -1.41737 0)
(2.16268 -1.72683 0)
(2.40002 -2.08926 0)
(2.69381 -2.53227 0)
(-0.000276485 0.0016211 0)
(-0.00213617 0.00207521 0)
(-0.00419205 -0.000196464 0)
(-0.00479264 -0.0045256 0)
(-0.00259716 -0.00964031 0)
(0.00289708 -0.0142391 0)
(0.0113423 -0.0175555 0)
(0.0219653 -0.0194765 0)
(0.0341718 -0.0204208 0)
(0.0478244 -0.0209291 0)
(0.0630792 -0.0213102 0)
(0.0800949 -0.0215717 0)
(0.09886 -0.0215528 0)
(0.119162 -0.0210711 0)
(0.14064 -0.0199953 0)
(0.162838 -0.0182613 0)
(0.185238 -0.0158636 0)
(0.207297 -0.0128701 0)
(0.228489 -0.00944022 0)
(0.24839 -0.00583283 0)
(0.266763 -0.00238349 0)
(0.283624 0.000543644 0)
(0.299254 0.00261721 0)
(0.314161 0.00357917 0)
(0.329013 0.00326403 0)
(0.344545 0.00157862 0)
(0.361492 -0.0015302 0)
(0.380542 -0.00612548 0)
(0.402313 -0.012316 0)
(0.427355 -0.0202912 0)
(0.456177 -0.0303373 0)
(0.489245 -0.0428582 0)
(0.527042 -0.0583852 0)
(0.570033 -0.0775962 0)
(0.618765 -0.101339 0)
(0.673766 -0.130661 0)
(0.735716 -0.166839 0)
(0.805202 -0.211448 0)
(0.883106 -0.26632 0)
(0.969985 -0.333829 0)
(1.06691 -0.416455 0)
(1.1742 -0.517804 0)
(1.29306 -0.640947 0)
(1.42321 -0.791473 0)
(1.56589 -0.972367 0)
(1.72074 -1.19229 0)
(1.88942 -1.45269 0)
(2.07596 -1.76669 0)
(2.28564 -2.13721 0)
(2.538 -2.59266 0)
(-0.000277896 0.00174278 0)
(-0.00215123 0.00228259 0)
(-0.00420919 -5.49732e-05 0)
(-0.00477919 -0.00460786 0)
(-0.00251914 -0.0100619 0)
(0.00304139 -0.0150103 0)
(0.0115374 -0.0186159 0)
(0.0222003 -0.0207623 0)
(0.0344406 -0.0218999 0)
(0.0481219 -0.0226061 0)
(0.0633993 -0.0232075 0)
(0.0804271 -0.0237037 0)
(0.099188 -0.0239122 0)
(0.119464 -0.0236288 0)
(0.140892 -0.0227055 0)
(0.163012 -0.0210661 0)
(0.185302 -0.018697 0)
(0.207215 -0.0156627 0)
(0.228227 -0.0121282 0)
(0.247919 -0.00836937 0)
(0.266065 -0.00474978 0)
(0.282696 -0.00166837 0)
(0.298106 0.000508444 0)
(0.31281 0.00149371 0)
(0.327478 0.00110256 0)
(0.34284 -0.000767134 0)
(0.359623 -0.00416897 0)
(0.378499 -0.00916178 0)
(0.400075 -0.0158482 0)
(0.424884 -0.0244127 0)
(0.45342 -0.0351394 0)
(0.486131 -0.048433 0)
(0.523483 -0.0648287 0)
(0.56591 -0.0850124 0)
(0.613934 -0.10984 0)
(0.668033 -0.140375 0)
(0.728843 -0.177901 0)
(0.796866 -0.224018 0)
(0.872909 -0.280552 0)
(0.957389 -0.349906 0)
(1.05126 -0.434539 0)
(1.1546 -0.538062 0)
(1.26844 -0.663518 0)
(1.39214 -0.816434 0)
(1.52674 -0.999875 0)
(1.67127 -1.22231 0)
(1.82712 -1.48586 0)
(1.99678 -1.80362 0)
(2.1844 -2.18059 0)
(2.40337 -2.6457 0)
(-0.000279175 0.00186918 0)
(-0.00216473 0.0024974 0)
(-0.00422392 8.83299e-05 0)
(-0.00476447 -0.00469753 0)
(-0.00244125 -0.0105027 0)
(0.00318485 -0.0158124 0)
(0.0117305 -0.0197146 0)
(0.0224321 -0.0220917 0)
(0.0347053 -0.0234279 0)
(0.0484149 -0.0243378 0)
(0.0637143 -0.0251653 0)
(0.0807537 -0.0259017 0)
(0.0995097 -0.0263423 0)
(0.11976 -0.0262603 0)
(0.141137 -0.0254906 0)
(0.163177 -0.0239447 0)
(0.185356 -0.0216005 0)
(0.207122 -0.0185192 0)
(0.22795 -0.014872 0)
(0.247427 -0.0109533 0)
(0.265339 -0.00715602 0)
(0.281729 -0.00391511 0)
(0.296901 -0.0016328 0)
(0.311379 -0.000625038 0)
(0.325834 -0.00109574 0)
(0.340988 -0.00315538 0)
(0.357557 -0.0068574 0)
(0.3762 -0.0122558 0)
(0.397506 -0.0194466 0)
(0.421993 -0.028609 0)
(0.450136 -0.0400246 0)
(0.482365 -0.0540983 0)
(0.519123 -0.0713687 0)
(0.560817 -0.0925291 0)
(0.607941 -0.118442 0)
(0.660927 -0.150185 0)
(0.720369 -0.189047 0)
(0.786698 -0.236648 0)
(0.860653 -0.294811 0)
(0.942539 -0.365952 0)
(1.0332 -0.452511 0)
(1.13256 -0.558088 0)
(1.24148 -0.6857 0)
(1.35908 -0.840788 0)
(1.48619 -1.02649 0)
(1.62145 -1.25108 0)
(1.76602 -1.51726 0)
(1.92102 -1.83814 0)
(2.08963 -2.22016 0)
(2.27994 -2.69246 0)
(-0.000280323 0.00200035 0)
(-0.00217668 0.00271982 0)
(-0.00423624 0.00023338 0)
(-0.00474853 -0.00479494 0)
(-0.0023639 -0.0109632 0)
(0.00332671 -0.0166463 0)
(0.0119207 -0.0208528 0)
(0.0226594 -0.023466 0)
(0.0349646 -0.0250061 0)
(0.0487016 -0.0261257 0)
(0.0640221 -0.0271853 0)
(0.0810721 -0.0281676 0)
(0.0998225 -0.0288451 0)
(0.120046 -0.0289676 0)
(0.14137 -0.0283527 0)
(0.16333 -0.0268989 0)
(0.185396 -0.0245754 0)
(0.207012 -0.0214404 0)
(0.227654 -0.0176721 0)
(0.246913 -0.0135845 0)
(0.264585 -0.00960149 0)
(0.280726 -0.00619533 0)
(0.295653 -0.00380471 0)
(0.309894 -0.00277474 0)
(0.324119 -0.00332792 0)
(0.339046 -0.00558244 0)
(0.355378 -0.00959082 0)
(0.373758 -0.0154016 0)
(0.394758 -0.0231037 0)
(0.418878 -0.0328707 0)
(0.446574 -0.044981 0)
(0.478254 -0.0598396 0)
(0.514339 -0.0779874 0)
(0.555208 -0.100124 0)
(0.601321 -0.127119 0)
(0.65307 -0.160061 0)
(0.711002 -0.200244 0)
(0.775486 -0.249302 0)
(0.847193 -0.309055 0)
(0.926332 -0.381925 0)
(1.01365 -0.470335 0)
(1.10892 -0.577854 0)
(1.21287 -0.707477 0)
(1.32442 -0.864542 0)
(1.44424 -1.05226 0)
(1.57061 -1.2787 0)
(1.7045 -1.54706 0)
(1.84575 -1.87043 0)
(1.99665 -2.25624 0)
(2.16071 -2.73344 0)
(-0.000281356 0.00213637 0)
(-0.00218708 0.00295 0)
(-0.00424612 0.000380105 0)
(-0.00473143 -0.00490038 0)
(-0.00228755 -0.011444 0)
(0.00346623 -0.0175127 0)
(0.012107 -0.0220319 0)
(0.022881 -0.0248866 0)
(0.035217 -0.0266362 0)
(0.0489803 -0.0279715 0)
(0.0643207 -0.0292695 0)
(0.0813799 -0.0305035 0)
(0.100123 -0.0314225 0)
(0.120318 -0.0317527 0)
(0.14159 -0.0312936 0)
(0.163467 -0.0299304 0)
(0.185417 -0.027623 0)
(0.20688 -0.0244272 0)
(0.227333 -0.0205288 0)
(0.24637 -0.0162628 0)
(0.263798 -0.0120856 0)
(0.279687 -0.00850802 0)
(0.294361 -0.00600599 0)
(0.308356 -0.00495379 0)
(0.322343 -0.00559206 0)
(0.33703 -0.00804596 0)
(0.353109 -0.0123664 0)
(0.371206 -0.0185956 0)
(0.391877 -0.026815 0)
(0.415601 -0.037192 0)
(0.442815 -0.0500011 0)
(0.473905 -0.0656471 0)
(0.509266 -0.0846726 0)
(0.549248 -0.107783 0)
(0.594279 -0.135852 0)
(0.644706 -0.169979 0)
(0.70103 -0.211462 0)
(0.763559 -0.261946 0)
(0.832893 -0.323248 0)
(0.909155 -0.397784 0)
(0.992991 -0.487962 0)
(1.08404 -0.597309 0)
(1.18291 -0.728799 0)
(1.28833 -0.887651 0)
(1.40081 -1.07713 0)
(1.51831 -1.30513 0)
(1.64157 -1.57522 0)
(1.76923 -1.90047 0)
(1.9027 -2.28882 0)
(2.04149 -2.76876 0)
(-0.000282275 0.00227729 0)
(-0.00219597 0.00318811 0)
(-0.0042536 0.000528467 0)