/*--------------------------------*- C++ -*----------------------------------*\
  =========                 |
  \\      /  F ield         | OpenFOAM: The Open Source CFD Toolbox
   \\    /   O peration     | Website:  https://openfoam.org
    \\  /    A nd           | Version:  7
     \\/     M anipulation  |
\*---------------------------------------------------------------------------*/
FoamFile
{
    version     2.0;
    format      ascii;
    class       surfaceScalarField;
    location    "0.27";
    object      ddtCorrDdt0(phi);
}
// * * * * * * * * * * * * * * * * * * * * * * * * * * * * * * * * * * * * * //

dimensions      [0 3 -2 0 0 0 0];

internalField   nonuniform List<scalar> 
139350
(
-7.4978e-11
7.56909e-11
9.73928e-12
-8.31387e-11
3.09698e-10
-2.98257e-10
6.94934e-10
-3.83767e-10
1.0758e-09
-3.79494e-10
1.40922e-09
-3.32081e-10
1.6683e-09
-2.5779e-10
1.84031e-09
-1.70495e-10
1.92232e-09
-8.06968e-11
1.92104e-09
3.02867e-12
1.85028e-09
7.20895e-11
1.73095e-09
1.20971e-10
1.58232e-09
1.49908e-10
1.42136e-09
1.62282e-10
1.26043e-09
1.6227e-10
1.1091e-09
1.52497e-10
9.75225e-10
1.35389e-10
8.64173e-10
1.12162e-10
7.84885e-10
8.08395e-11
7.45322e-10
4.05814e-11
7.57419e-10
-1.07297e-11
8.33966e-10
-7.55878e-11
9.91704e-10
-1.56382e-10
1.2487e-09
-2.56049e-10
1.62826e-09
-3.77902e-10
2.15423e-09
-5.25069e-10
2.85872e-09
-7.02686e-10
3.77439e-09
-9.14771e-10
4.94455e-09
-1.16853e-09
6.41677e-09
-1.47124e-09
8.25042e-09
-1.83203e-09
1.05142e-08
-2.2627e-09
1.32926e-08
-2.77639e-09
1.66815e-08
-3.38787e-09
2.07966e-08
-4.11291e-09
2.57703e-08
-4.97257e-09
3.17593e-08
-5.98713e-09
3.89438e-08
-7.18355e-09
4.75261e-08
-8.58093e-09
5.77443e-08
-1.02178e-08
6.98367e-08
-1.20913e-08
8.41033e-08
-1.42674e-08
1.00753e-07
-1.66484e-08
1.20172e-07
-1.94216e-08
1.42202e-07
-2.2028e-08
1.67529e-07
-2.53299e-08
1.9388e-07
-2.63494e-08
2.24999e-07
-3.11206e-08
2.314e-07
-6.39788e-09
-1.77288e-07
4.08688e-07
-1.06792e-10
1.83348e-10
2.83003e-10
-4.71221e-10
1.38415e-09
-1.39758e-09
2.81653e-09
-1.81456e-09
4.24236e-09
-1.80384e-09
5.52066e-09
-1.60892e-09
6.56614e-09
-1.30188e-09
7.3223e-09
-9.24999e-10
7.77272e-09
-5.29687e-10
7.93974e-09
-1.62085e-10
7.87221e-09
1.41057e-10
7.63345e-09
3.61494e-10
7.28237e-09
5.02367e-10
6.8675e-09
5.78577e-10
6.42402e-09
6.07212e-10
5.97767e-09
6.00105e-10
5.54787e-09
5.66841e-10
5.14998e-09
5.11252e-10
4.80289e-09
4.29601e-10
4.52615e-09
3.18422e-10
4.34546e-09
1.71431e-10
4.29056e-09
-1.96478e-11
4.39847e-09
-2.6281e-10
4.71125e-09
-5.67809e-10
5.28025e-09
-9.45098e-10
6.1628e-09
-1.40664e-09
7.43036e-09
-1.96831e-09
9.16271e-09
-2.64615e-09
1.14607e-08
-3.46473e-09
1.444e-08
-4.44951e-09
1.8244e-08
-5.6343e-09
2.30425e-08
-7.05998e-09
2.90427e-08
-8.77448e-09
3.64878e-08
-1.08318e-08
4.567e-08
-1.32928e-08
5.69365e-08
-1.62379e-08
7.06974e-08
-1.97461e-08
8.74431e-08
-2.39282e-08
1.0774e-07
-2.88763e-08
1.3226e-07
-3.47379e-08
1.61776e-07
-4.16058e-08
1.9716e-07
-4.96518e-08
2.39405e-07
-5.8892e-08
2.89595e-07
-6.96144e-08
3.48621e-07
-8.10524e-08
4.18041e-07
-9.47529e-08
4.96043e-07
-1.04349e-07
5.89517e-07
-1.24596e-07
6.63933e-07
-8.08108e-08
-2.71622e-07
7.58268e-07
-1.86871e-10
3.71205e-10
1.89249e-10
-8.45517e-10
1.65921e-09
-2.86561e-09
3.87381e-09
-4.02749e-09
6.25483e-09
-4.18329e-09
8.46979e-09
-3.82233e-09
1.03352e-08
-3.16584e-09
1.17292e-08
-2.31715e-09
1.25967e-08
-1.39572e-09
1.29546e-08
-5.17958e-10
1.28715e-08
2.25726e-10
1.2444e-08
7.90844e-10
1.17675e-08
1.1803e-09
1.09231e-08
1.42446e-09
9.97203e-09
1.55988e-09
8.9595e-09
1.61398e-09
7.91964e-09
1.60846e-09
6.87884e-09
1.55332e-09
5.86483e-09
1.44537e-09
4.90524e-09
1.27918e-09
4.03404e-09
1.04418e-09
3.29023e-09
7.25268e-10
2.7218e-09
3.07196e-10
2.38359e-09
-2.28524e-10
2.34228e-09
-9.01867e-10
2.67332e-09
-1.73665e-09
3.47049e-09
-2.76343e-09
4.8407e-09
-4.01533e-09
6.91897e-09
-5.54116e-09
9.8628e-09
-7.3922e-09
1.38681e-08
-9.63769e-09
1.91681e-08
-1.23588e-08
2.60498e-08
-1.56539e-08
3.48531e-08
-1.96338e-08
4.59882e-08
-2.44254e-08
5.995e-08
-3.01984e-08
7.73254e-08
-3.71194e-08
9.88269e-08
-4.54286e-08
1.25293e-07
-5.5341e-08
1.57718e-07
-6.71628e-08
1.97312e-07
-8.11981e-08
2.45391e-07
-9.77316e-08
3.03663e-07
-1.17163e-07
3.73817e-07
-1.39771e-07
4.57852e-07
-1.65086e-07
5.58215e-07
-1.95119e-07
6.74584e-07
-2.20716e-07
8.14574e-07
-2.64587e-07
9.56804e-07
-2.23037e-07
-3.79965e-07
1.06515e-06
-2.4797e-10
6.20252e-10
-1.41858e-10
-9.49714e-10
1.11826e-09
-4.12372e-09
3.51053e-09
-6.41801e-09
6.45364e-09
-7.12476e-09
9.4206e-09
-6.78766e-09
1.20625e-08
-5.80621e-09
1.41494e-08
-4.40221e-09
1.5553e-08
-2.79771e-09
1.62454e-08
-1.20825e-09
1.62777e-08
1.95048e-10
1.5751e-08
1.31951e-09
1.47798e-08
2.15297e-09
1.34715e-08
2.73433e-09
1.19145e-08
3.1185e-09
1.01792e-08
3.35068e-09
8.32178e-09
3.46776e-09
6.38669e-09
3.48973e-09
4.41566e-09
3.41824e-09
2.44693e-09
3.24912e-09
5.2249e-10
2.97023e-09
-1.3125e-09
2.5614e-09
-3.00441e-09
2.00075e-09
-4.49289e-09
1.26108e-09
-5.70491e-09
3.12159e-10
-6.55746e-09
-8.83023e-10
-6.94697e-09
-2.37179e-09
-6.75386e-09
-4.20736e-09
-5.82636e-09
-6.46675e-09
-3.98532e-09
-9.23205e-09
-1.00688e-09
-1.26142e-08
3.37755e-09
-1.6742e-08
9.49901e-09
-2.1773e-08
1.77543e-08
-2.78878e-08
2.86227e-08
-3.52914e-08
4.26886e-08
-4.4263e-08
6.06488e-08
-5.50775e-08
8.3353e-08
-6.81318e-08
1.11821e-07
-8.38077e-08
1.47254e-07
-1.02595e-07
1.91163e-07
-1.25105e-07
2.4518e-07
-1.5175e-07
3.11497e-07
-1.83477e-07
3.92327e-07
-2.20605e-07
4.90395e-07
-2.63152e-07
6.09061e-07
-3.13789e-07
7.49333e-07
-3.60987e-07
9.18234e-07
-4.3349e-07
1.10693e-06
-4.11729e-07
-5.35649e-07
1.26262e-06
-2.51577e-10
8.72973e-10
-4.38773e-10
-7.6053e-10
2.81916e-10
-4.84233e-09
2.26602e-09
-8.4003e-09
5.19169e-09
-1.00487e-08
8.51243e-09
-1.01067e-08
1.17435e-08
-9.0357e-09
1.45219e-08
-7.17865e-09
1.66118e-08
-4.88594e-09
1.78992e-08
-2.4935e-09
1.83691e-08
-2.73184e-10
1.80792e-08
1.61142e-09
1.71246e-08
3.10913e-09
1.56135e-08
4.24708e-09
1.36491e-08
5.08459e-09
1.13244e-08
5.67683e-09
8.72202e-09
6.072e-09
5.91334e-09
6.29977e-09
2.96387e-09
6.3696e-09
-6.85266e-11
6.28275e-09
-3.12721e-09
6.03058e-09
-6.15742e-09
5.59279e-09
-9.09957e-09
4.9446e-09
-1.18901e-08
4.0528e-09
-1.44541e-08
2.87823e-09
-1.6707e-08
1.37098e-09
-1.85431e-08
-5.33532e-10
-1.98392e-08
-2.9102e-09
-2.04379e-08
-5.86605e-09
-2.01515e-08
-9.51724e-09
-1.87443e-08
-1.40194e-08
-1.59312e-08
-1.95538e-08
-1.13604e-08
-2.63412e-08
-4.60612e-09
-3.46408e-08
4.84726e-09
-4.47421e-08
1.76309e-08
-5.70453e-08
3.4505e-08
-7.19494e-08
5.6393e-08
-9.00187e-08
8.44258e-08
-1.11839e-07
1.19924e-07
-1.38093e-07
1.6458e-07
-1.69759e-07
2.20246e-07
-2.07418e-07
2.89373e-07
-2.52603e-07
3.74617e-07
-3.05853e-07
4.79058e-07
-3.67591e-07
6.06851e-07
-4.41585e-07
7.59995e-07
-5.14128e-07
9.44723e-07
-6.18219e-07
1.16049e-06
-6.27496e-07
-7.33621e-07
1.35847e-06
-2.22011e-10
1.09618e-09
-5.81989e-10
-3.98502e-10
-3.97045e-10
-5.02514e-09
9.01463e-10
-9.69695e-09
3.33046e-09
-1.2476e-08
6.51148e-09
-1.3286e-08
9.95998e-09
-1.24825e-08
1.32391e-08
-1.04558e-08
1.60199e-08
-7.66501e-09
1.80905e-08
-4.56186e-09
1.93375e-08
-1.51849e-09
1.97289e-08
1.22204e-09
1.92899e-08
3.54978e-09
1.80843e-08
5.45436e-09
1.61959e-08
6.97466e-09
1.37186e-08
8.15564e-09
1.07509e-08
9.04162e-09
7.39025e-09
9.66184e-09
3.73249e-09
1.00293e-08
-1.34448e-10
1.0151e-08
-4.12787e-09
1.00257e-08
-8.17347e-09
9.63959e-09
-1.21989e-08
8.97173e-09
-1.61337e-08
7.98877e-09
-1.99004e-08
6.64704e-09
-2.34146e-08
4.88635e-09
-2.65721e-08
2.62623e-09
-2.92511e-08
-2.30093e-10
-3.12954e-08
-3.8198e-09
-3.25162e-08
-8.29517e-09
-3.26763e-08
-1.38573e-08
-3.14854e-08
-2.07433e-08
-2.85859e-08
-2.92383e-08
-2.35407e-08
-3.96846e-08
-1.5819e-08
-5.24612e-08
-4.77093e-09
-6.80921e-08
1.03955e-08
-8.71137e-08
3.06358e-08
-1.10258e-07
5.71383e-08
-1.3834e-07
9.12898e-08
-1.72244e-07
1.34865e-07
-2.13333e-07
1.89876e-07
-2.6243e-07
2.58862e-07
-3.21587e-07
3.44831e-07
-3.91825e-07
4.50982e-07
-4.7374e-07
5.82035e-07
-5.72641e-07
7.4083e-07
-6.72921e-07
9.3253e-07
-8.0992e-07
1.16313e-06
-8.58094e-07
-9.63462e-07
1.39297e-06
-1.96271e-10
1.29369e-09
-6.07972e-10
1.5303e-11
-7.68106e-10
-4.86282e-09
-9.6246e-11
-1.03669e-08
1.66128e-09
-1.42317e-08
4.35554e-09
-1.59785e-08
7.62283e-09
-1.57482e-08
1.10583e-08
-1.38892e-08
1.4313e-08
-1.0918e-08
1.7121e-08
-7.36751e-09
1.9286e-08
-3.6818e-09
2.06754e-08
-1.6521e-10
2.12116e-08
3.01517e-09
2.08703e-08
5.79732e-09
1.96701e-08
8.17666e-09
1.76647e-08
1.01626e-08
1.4937e-08
1.17713e-08
1.15899e-08
1.30103e-08
7.74081e-09
1.38804e-08
3.50866e-09
1.43844e-08
-9.89569e-10
1.45256e-08
-5.64848e-09
1.42997e-08
-1.03713e-08
1.36963e-08
-1.50715e-08
1.26902e-08
-1.9663e-08
1.12406e-08
-2.40586e-08
9.28306e-09
-2.81553e-08
6.72519e-09
-3.18345e-08
3.45026e-09
-3.49448e-08
-7.07529e-10
-3.73014e-08
-5.9373e-09
-3.86715e-08
-1.24851e-08
-3.8768e-08
-2.06455e-08
-3.7236e-08
-3.07677e-08
-3.36398e-08
-4.32794e-08
-2.7447e-08
-5.86514e-08
-1.80079e-08
-7.75297e-08
-4.52192e-09
-1.00597e-07
1.39711e-08
-1.2875e-07
3.86756e-08
-1.63043e-07
7.10076e-08
-2.04576e-07
1.12754e-07
-2.55078e-07
1.66025e-07
-3.15703e-07
2.33351e-07
-3.8891e-07
3.17966e-07
-4.76444e-07
4.23108e-07
-5.78881e-07
5.53696e-07
-7.03232e-07
7.1353e-07
-8.32753e-07
9.06385e-07
-1.00278e-06
1.14321e-06
-1.09492e-06
-1.21621e-06
1.39596e-06
-1.89694e-10
1.48466e-09
-5.92262e-10
4.20024e-10
-9.00368e-10
-4.55249e-09
-6.29375e-10
-1.0636e-08
5.63377e-10
-1.54226e-08
2.69441e-09
-1.81077e-08
5.549e-09
-1.8601e-08
8.82398e-09
-1.71621e-08
1.22292e-08
-1.43214e-08
1.5518e-08
-1.06539e-08
1.84716e-08
-6.63366e-09
2.08945e-08
-2.58602e-09
2.26186e-08
1.29276e-09
2.35185e-08
4.89919e-09
2.35172e-08
8.17966e-09
2.25893e-08
1.10921e-08
2.07601e-08
1.36025e-08
1.81e-08
1.56719e-08
1.47186e-08
1.72637e-08
1.07486e-08
1.83557e-08
6.33518e-09
1.89408e-08
1.6186e-09
1.90175e-08
-3.27078e-09
1.85875e-08
-8.21905e-09
1.76397e-08
-1.31215e-08
1.61453e-08
-1.7881e-08
1.40437e-08
-2.23918e-08
1.12382e-08
-2.65371e-08
7.59682e-09
-3.01716e-08
2.92897e-09
-3.31176e-08
-2.99007e-09
-3.51511e-08
-1.04496e-08
-3.5994e-08
-1.98012e-08
-3.53012e-08
-3.1458e-08
-3.26477e-08
-4.59315e-08
-2.751e-08
-6.37864e-08
-1.92529e-08
-8.57855e-08
-7.08561e-09
-1.12763e-07
9.93619e-09
-1.4577e-07
3.29995e-08
-1.86104e-07
6.35168e-08
-2.35093e-07
1.03235e-07
-2.94795e-07
1.54303e-07
-3.66772e-07
2.19181e-07
-4.53787e-07
3.01179e-07
-5.58445e-07
4.03584e-07
-6.81284e-07
5.31139e-07
-8.30791e-07
6.88603e-07
-9.90215e-07
8.78664e-07
-1.19284e-06
1.11509e-06
-1.33134e-06
-1.48324e-06
1.38212e-06
-1.97244e-10
1.68322e-09
-5.86082e-10
8.11061e-10
-9.25765e-10
-4.21054e-09
-8.30061e-10
-1.07297e-08
2.39465e-11
-1.62748e-08
1.72439e-09
-1.98063e-08
4.15788e-09
-2.10328e-08
7.12375e-09
-2.01259e-08
1.04247e-08
-1.76206e-08
1.38879e-08
-1.41148e-08
1.73368e-08
-1.00808e-08
2.05767e-08
-5.82373e-09
2.33987e-08
-1.52756e-09
2.56058e-08
2.69381e-09
2.70327e-08
6.75459e-09
2.75614e-08
1.05649e-08
2.71325e-08
1.40334e-08
2.57472e-08
1.70586e-08
2.34693e-08
1.95436e-08
2.04118e-08
2.14146e-08
1.67246e-08
2.26297e-08
1.25707e-08
2.31727e-08
8.11259e-09
2.30474e-08
3.4969e-09
2.22566e-08
-1.14431e-09
2.07886e-08
-5.69516e-09
1.85957e-08
-1.00404e-08
1.55857e-08
-1.40614e-08
1.1619e-08
-1.76174e-08
6.48702e-09
-2.05395e-08
-6.67341e-11
-2.26157e-08
-8.37124e-09
-2.35825e-08
-1.88331e-08
-2.31104e-08
-3.19275e-08
-2.0794e-08
-4.82465e-08
-1.61283e-08
-6.84495e-08
-8.50412e-09
-9.34083e-08
2.84246e-09
-1.24107e-07
1.8822e-08
-1.61749e-07
4.05759e-08
-2.07857e-07
6.94802e-08
-2.63997e-07
1.07204e-07
-3.32517e-07
1.5586e-07
-4.1543e-07
2.17812e-07
-5.15738e-07
2.96279e-07
-6.36916e-07
3.94596e-07
-7.79599e-07
5.17125e-07
-9.53324e-07
6.69229e-07
-1.14232e-06
8.53231e-07
-1.37684e-06
1.084e-06
-1.5621e-06
-1.75558e-06
1.35635e-06
-2.09929e-10
1.89449e-09
-5.97774e-10
1.20115e-09
-9.3216e-10
-3.87384e-09
-8.78582e-10
-1.07812e-08
-1.5955e-10
-1.69919e-08
1.31152e-09
-2.12755e-08
3.45911e-09
-2.31786e-08
6.14414e-09
-2.28087e-08
9.24553e-09
-2.07201e-08
1.26745e-08
-1.75414e-08
1.63309e-08
-1.37353e-08
2.00714e-08
-9.56202e-09
2.37035e-08
-5.15795e-09
2.70107e-08
-6.11573e-10
2.97781e-08
3.98903e-09
3.18174e-08
8.52717e-09
3.29872e-08
1.28657e-08
3.32062e-08
1.68411e-08
3.24659e-08
2.02859e-08
3.08265e-08
2.30553e-08
2.84113e-08
2.50467e-08
2.53809e-08
2.62043e-08
2.19145e-08
2.65157e-08
1.81857e-08
2.59866e-08
1.43553e-08
2.46212e-08
1.05632e-08
2.2389e-08
6.94039e-09
1.92108e-08
3.61212e-09
1.49485e-08
7.17366e-10
9.38379e-09
-1.58348e-09
2.2354e-09
-3.09273e-09
-6.85989e-09
-3.5657e-09
-1.83588e-08
-2.69515e-09
-3.27955e-08
-1.02749e-10
-5.08375e-08
4.6875e-09
-7.32371e-08
1.22476e-08
-1.00967e-07
2.3299e-08
-1.35156e-07
3.87011e-08
-1.7715e-07
5.95255e-08
-2.2868e-07
8.70788e-08
-2.9155e-07
1.22919e-07
-3.68356e-07
1.69053e-07
-4.61566e-07
2.27713e-07
-5.74397e-07
3.01903e-07
-7.11109e-07
3.94913e-07
-8.72607e-07
5.10693e-07
-1.06911e-06
6.54718e-07
-1.28634e-06
8.29448e-07
-1.55157e-06
1.05007e-06
-1.78272e-06
-2.02465e-06
1.31914e-06
-2.22578e-10
2.11844e-09
-6.20468e-10
1.60132e-09
-9.48591e-10
-3.54337e-09
-8.8584e-10
-1.0842e-08
-1.84184e-10
-1.76917e-08
1.21915e-09
-2.26769e-08
3.24382e-09
-2.52014e-08
5.76674e-09
-2.53295e-08
8.7073e-09
-2.36589e-08
1.20375e-08
-2.08691e-08
1.57282e-08
-1.74242e-08
1.97045e-08
-1.35361e-08
2.3825e-08
-9.27669e-09
2.78986e-08
-4.68334e-09
3.1708e-08
1.81467e-10
3.50358e-08
5.2009e-09
3.7689e-08
1.02146e-08
3.95183e-08
1.50133e-08
4.04415e-08
1.93647e-08
4.04519e-08
2.30462e-08
3.96219e-08
2.58785e-08
3.80842e-08
2.77432e-08
3.60127e-08
2.8589e-08
3.35929e-08
2.84077e-08
3.10065e-08
2.72098e-08
2.84157e-08
2.4981e-08
2.59694e-08
2.16594e-08
2.3803e-08
1.71161e-08
2.20565e-08
1.11323e-08
2.0883e-08
3.41019e-09
2.04654e-08
-6.44014e-09
2.1026e-08
-1.8918e-08
2.2845e-08
-3.4612e-08
2.62661e-08
-5.42571e-08
3.17265e-08
-7.86949e-08
3.97504e-08
-1.08989e-07
5.10015e-08
-1.46405e-07
6.62723e-08
-1.92419e-07
8.6543e-08
-2.48949e-07
1.1302e-07
-3.18027e-07
1.47122e-07
-4.02457e-07
1.90691e-07
-5.05136e-07
2.45778e-07
-6.29482e-07
3.15096e-07
-7.8043e-07
4.01736e-07
-9.59246e-07
5.09255e-07
-1.17663e-06
6.42872e-07
-1.41995e-06
8.05264e-07
-1.71396e-06
1.01158e-06
-1.98903e-06
-2.28267e-06
1.26961e-06
-2.34182e-10
2.35402e-09
-6.46817e-10
2.01628e-09
-9.76018e-10
-3.21178e-09
-8.94315e-10
-1.09216e-08
-1.63193e-10
-1.84208e-08
1.25981e-09
-2.4098e-08
3.27756e-09
-2.72174e-08
5.76028e-09
-2.781e-08
8.63539e-09
-2.65321e-08
1.19031e-08
-2.41343e-08
1.55805e-08
-2.10997e-08
1.9648e-08
-1.76014e-08
2.40196e-08
-1.36465e-08
2.85497e-08
-9.2116e-09
3.30504e-08
-4.31744e-09
3.73131e-08
9.39803e-10
4.11307e-08
6.3991e-09
4.43181e-08
1.18275e-08
4.67407e-08
1.6944e-08
4.83322e-08
2.14561e-08
4.91096e-08
2.51029e-08
4.91643e-08
2.76898e-08
4.8647e-08
2.91082e-08
4.77385e-08
2.93174e-08
4.66293e-08
2.83212e-08
4.54965e-08
2.61149e-08
4.45042e-08
2.2654e-08
4.37981e-08
1.78233e-08
4.35212e-08
1.14112e-08
4.38205e-08
3.11212e-09
4.4865e-08
-7.48248e-09
4.68537e-08
-2.09053e-08
5.00364e-08
-3.77923e-08
5.47173e-08
-5.89365e-08
6.12868e-08
-8.52617e-08
7.02123e-08
-1.17914e-07
8.20871e-08
-1.58278e-07
9.76229e-08
-2.07954e-07
1.17691e-07
-2.69016e-07
1.43374e-07
-3.4371e-07
1.75925e-07
-4.35006e-07
2.16977e-07
-5.46189e-07
2.68348e-07
-6.80853e-07
3.32417e-07
-8.44503e-07
4.11937e-07
-1.03876e-06
5.10039e-07
-1.27474e-06
6.315e-07
-1.54141e-06
7.79059e-07
-1.86152e-06
9.67519e-07
-2.17749e-06
-2.52299e-06
1.20784e-06
-2.45312e-10
2.60075e-09
-6.73727e-10
2.44705e-09
-1.00851e-09
-2.87458e-09
-9.10097e-10
-1.10179e-08
-1.38383e-10
-1.91906e-08
1.33784e-09
-2.55723e-08
3.4074e-09
-2.92851e-08
5.92848e-09
-3.03288e-08
8.82318e-09
-2.94249e-08
1.20976e-08
-2.74063e-08
1.57889e-08
-2.47891e-08
1.99096e-08
-2.17198e-08
2.44129e-08
-1.8148e-08
2.91948e-08
-1.39916e-08
3.41046e-08
-9.22534e-09
3.89622e-08
-3.91621e-09
4.35743e-08
1.78909e-09
4.77509e-08
7.65238e-09
5.13343e-08
1.33627e-08
5.42207e-08
1.8571e-08
5.63843e-08
2.2941e-08
5.78773e-08
2.61981e-08
5.88219e-08
2.81654e-08
5.93841e-08
2.87564e-08
5.97526e-08
2.79549e-08
6.01112e-08
2.57576e-08
6.06337e-08
2.21339e-08
6.14741e-08
1.69841e-08
6.27784e-08
1.01088e-08
6.46895e-08
1.20232e-09
6.73638e-08
-1.01547e-08
7.09786e-08
-2.45187e-08
7.57533e-08
-4.25645e-08
8.19512e-08
-6.5133e-08
8.99119e-08
-9.32198e-08
1.00041e-07
-1.28041e-07
1.12854e-07
-1.71088e-07
1.28971e-07
-2.2407e-07
1.49145e-07
-2.89188e-07
1.74316e-07
-3.68881e-07
2.05556e-07
-4.66244e-07
2.44265e-07
-5.849e-07
2.91985e-07
-7.28572e-07
3.50732e-07
-9.03254e-07
4.22836e-07
-1.11087e-06
5.10936e-07
-1.36284e-06
6.19283e-07
-1.64976e-06
7.50495e-07
-1.99273e-06
9.1865e-07
-2.34564e-06
-2.74057e-06
1.13624e-06
-2.56505e-10
2.85871e-09
-7.00729e-10
2.89366e-09
-1.04255e-09
-2.53031e-09
-9.29528e-10
-1.11288e-08
-1.16622e-10
-2.00015e-08
1.42134e-09
-2.71083e-08
3.56391e-09
-3.14257e-08
6.16034e-09
-3.2923e-08
9.12557e-09
-3.23882e-08
1.24634e-08
-3.07416e-08
1.62155e-08
-2.85392e-08
2.04065e-08
-2.59085e-08
2.50092e-08
-2.27489e-08
2.99454e-08
-1.89259e-08
3.50942e-08
-1.43723e-08
4.03043e-08
-9.12465e-09
4.54057e-08
-3.31026e-09
5.02218e-08
2.83782e-09
5.45946e-08
8.992e-09
5.84069e-08
1.47601e-08
6.16098e-08
1.97398e-08
6.42295e-08
2.35797e-08
6.63653e-08
2.60314e-08
6.81679e-08
2.6955e-08
6.98197e-08
2.63054e-08
7.15055e-08
2.4073e-08
7.34042e-08
2.02374e-08
7.56757e-08
1.47138e-08
7.84686e-08
7.31788e-09
8.19229e-08
-2.25064e-09
8.61853e-08
-1.44151e-08
9.14149e-08
-2.97469e-08
9.78038e-08
-4.89509e-08
1.05578e-07
-7.29054e-08
1.15026e-07
-1.02666e-07
1.26495e-07
-1.39508e-07
1.40417e-07
-1.85009e-07
1.57324e-07
-2.40976e-07
1.77842e-07
-3.09705e-07
2.02767e-07
-3.93805e-07
2.3298e-07
-4.96457e-07
2.69645e-07
-6.21567e-07
3.14006e-07
-7.72931e-07
3.67705e-07
-9.56957e-07
4.32619e-07
-1.17578e-06
5.10844e-07
-1.44107e-06
6.06061e-07
-1.74497e-06
7.20642e-07
-2.10731e-06
8.67554e-07
-2.49254e-06
-2.93258e-06
1.05957e-06
-2.67952e-10
3.12814e-09
-7.2895e-10
3.35709e-09
-1.0772e-09
-2.17958e-09
-9.49752e-10
-1.12541e-08
-9.56095e-11
-2.08536e-08
1.50588e-09
-2.87077e-08
3.72713e-09
-3.36451e-08
6.41191e-09
-3.56055e-08
9.47043e-09
-3.54447e-08
1.29036e-08
-3.41722e-08
1.6752e-08
-3.23857e-08
2.10426e-08
-3.01968e-08
2.57541e-08
-2.74585e-08
3.08186e-08
-2.39886e-08
3.61312e-08
-1.96829e-08
4.15595e-08
-1.45513e-08
4.69539e-08
-8.70251e-09
5.21545e-08
-2.36131e-09
5.7014e-08
4.13452e-09
6.14175e-08
1.0358e-08
6.53104e-08
1.58486e-08
6.8708e-08
2.01833e-08
7.16979e-08
2.30434e-08
7.44212e-08
2.42329e-08
7.70553e-08
2.36734e-08
7.97848e-08
2.13447e-08
8.27916e-08
1.72327e-08
8.62396e-08
1.12672e-08
9.02797e-08
3.27964e-09
9.50509e-08
-7.0205e-09
1.00693e-07
-2.00556e-08
1.07353e-07
-3.6405e-08
1.152e-07
-5.67952e-08
1.24428e-07
-8.21326e-08
1.35285e-07
-1.1352e-07
1.4806e-07
-1.52282e-07
1.63115e-07
-2.00062e-07
1.8089e-07
-2.58751e-07
2.019e-07
-3.30713e-07
2.26796e-07
-4.18701e-07
2.5628e-07
-5.2594e-07
2.91286e-07
-6.56574e-07
3.32771e-07
-8.14416e-07
3.82006e-07
-1.0062e-06
4.40438e-07
-1.23421e-06
5.09603e-07
-1.51023e-06
5.9261e-07
-1.82798e-06
6.91513e-07
-2.20622e-06
8.17878e-07
-2.6189e-06
-3.09856e-06
9.83864e-07
-2.79672e-10
3.4093e-09
-7.58181e-10
3.83805e-09
-1.11238e-09
-1.82287e-09
-9.69839e-10
-1.13944e-08
-7.33687e-11
-2.17481e-08
1.59329e-09
-3.03724e-08
3.89539e-09
-3.59453e-08
6.67266e-09
-3.83804e-08
9.83286e-09
-3.86029e-08
1.33753e-08
-3.77122e-08
1.73398e-08
-3.63481e-08
2.17517e-08
-3.46065e-08
2.65894e-08
-3.22944e-08
3.17866e-08
-2.9184e-08
3.72428e-08
-2.51372e-08
4.28342e-08
-2.0141e-08
4.84218e-08
-1.42881e-08
5.38582e-08
-7.79622e-09
5.90071e-08
-1.01233e-09
6.37616e-08
5.60485e-09
6.80714e-08
1.15406e-08
7.19522e-08
1.63038e-08
7.54897e-08
1.95077e-08
7.88232e-08
2.09006e-08
8.21292e-08
2.03696e-08
8.55934e-08
1.78816e-08
8.94007e-08
1.34276e-08
9.37183e-08
6.95082e-09
9.87001e-08
-1.70024e-09
1.04485e-07
-1.28043e-08
1.11211e-07
-2.67794e-08
1.19014e-07
-4.4207e-08
1.2805e-07
-6.58284e-08
1.3849e-07
-9.25715e-08
1.50546e-07
-1.25573e-07
1.64465e-07
-1.662e-07
1.80546e-07
-2.1614e-07
1.99154e-07
-2.77358e-07
2.20701e-07
-3.52258e-07
2.45715e-07
-4.43715e-07
2.74738e-07
-5.54962e-07
3.08493e-07
-6.90332e-07
3.47686e-07
-8.53608e-07
3.93244e-07
-1.05176e-06
4.46229e-07
-1.2872e-06
5.07669e-07
-1.57168e-06
5.80116e-07
-1.90042e-06
6.65293e-07
-2.29139e-06
7.73205e-07
-2.72681e-06
-3.24017e-06
9.14817e-07
-2.9165e-10
3.70247e-09
-7.88214e-10
4.3371e-09
-1.14816e-09
-1.4604e-09
-9.89668e-10
-1.15507e-08
-4.93171e-11
-2.26864e-08
1.6849e-09
-3.21045e-08
4.07019e-09
-3.83286e-08
6.94247e-09
-4.12504e-08
1.02081e-08
-4.18666e-08
1.38661e-08
-4.13676e-08
1.79557e-08
-4.04358e-08
2.25012e-08
-3.91497e-08
2.74785e-08
-3.72698e-08
3.28189e-08
-3.45225e-08
3.84208e-08
-3.07372e-08
4.41609e-08
-2.58795e-08
4.99035e-08
-2.00285e-08
5.55061e-08
-1.33973e-08
6.08391e-08
-6.34339e-09
6.58033e-08
6.41959e-10
7.03553e-08
6.99037e-09
7.45166e-08
1.21438e-08
7.83774e-08
1.56485e-08
8.20806e-08
1.71987e-08
8.58055e-08
1.66467e-08
8.97415e-08
1.39469e-08
9.40766e-08
9.09462e-09
9.89818e-08
2.04677e-09
1.04614e-07
-7.33062e-09
1.11114e-07
-1.93032e-08
1.18618e-07
-3.42814e-08
1.27259e-07
-5.28468e-08
1.37183e-07
-7.57499e-08
1.48546e-07
-1.03933e-07
1.61535e-07
-1.38559e-07
1.76364e-07
-1.81028e-07
1.93285e-07
-2.33059e-07
2.12604e-07
-2.96676e-07
2.3465e-07
-3.74304e-07
2.5985e-07
-4.68915e-07
2.88613e-07
-5.83724e-07
3.21487e-07
-7.23208e-07
3.58969e-07
-8.9109e-07
4.01689e-07
-1.09448e-06
4.50395e-07
-1.3359e-06
5.05682e-07
-1.62697e-06
5.69601e-07
-1.96434e-06
6.43577e-07
-2.36537e-06
7.36011e-07
-2.81924e-06
-3.36052e-06
8.56363e-07
-3.03875e-10
4.00788e-09
-8.19017e-10
4.85474e-09
-1.18452e-09
-1.09235e-09
-1.00924e-09
-1.17238e-08
-2.34493e-11
-2.36701e-08
1.78102e-09
-3.3907e-08
4.25238e-09
-4.0798e-08
7.22248e-09
-4.42181e-08
1.05967e-08
-4.52388e-08
1.43741e-08
-4.51424e-08
1.85941e-08
-4.46537e-08
2.32798e-08
-4.38332e-08
2.84049e-08
-4.2393e-08
3.38972e-08
-4.00129e-08
3.96516e-08
-3.64897e-08
4.55418e-08
-3.1768e-08
5.143e-08
-2.59147e-08
5.71737e-08
-1.91395e-08
6.26454e-08
-1.18131e-08
6.77502e-08
-4.4616e-09
7.2451e-08
2.29125e-09
7.67763e-08
7.81975e-09
8.08233e-08
1.16033e-08
8.47408e-08
1.32824e-08
8.87137e-08
1.26759e-08
9.29357e-08
9.72605e-09
9.75991e-08
4.43335e-09
1.02878e-07
-3.23122e-09
1.08933e-07
-1.33837e-08
1.15907e-07
-2.62753e-08
1.23935e-07
-4.23081e-08
1.3315e-07
-6.20605e-08
1.43692e-07
-8.62892e-08
1.55708e-07
-1.15948e-07
1.69369e-07
-1.52218e-07
1.84868e-07
-1.96525e-07
2.0242e-07
-2.5061e-07
2.22291e-07
-3.16546e-07
2.44749e-07
-3.9676e-07
2.70138e-07
-4.94304e-07
2.98767e-07
-6.12353e-07
3.31042e-07
-7.55485e-07
3.67305e-07
-9.27353e-07
4.07945e-07
-1.13512e-06
4.53463e-07
-1.38142e-06
5.04127e-07
-1.67763e-06
5.61556e-07
-2.02176e-06
6.26926e-07
-2.43074e-06
7.07102e-07
-2.89941e-06
-3.46334e-06
8.09928e-07
-3.16338e-10
4.32578e-09
-8.50564e-10
5.39149e-09
-1.22142e-09
-7.18922e-10
-1.02853e-09
-1.19144e-08
4.15536e-12
-2.47007e-08
1.88162e-09
-3.57824e-08
4.44217e-09
-4.33566e-08
7.5132e-09
-4.72868e-08
1.09994e-08
-4.87229e-08
1.48999e-08
-4.90403e-08
1.92544e-08
-4.90062e-08
2.40853e-08
-4.86618e-08
2.93637e-08
-4.76695e-08
3.50141e-08
-4.56614e-08
4.09271e-08
-4.24009e-08
4.69721e-08
-3.78113e-08
5.3007e-08
-3.19475e-08
5.8886e-08
-2.5017e-08
6.44808e-08
-1.7406e-08
6.96984e-08
-9.67788e-09
7.4506e-08
-2.51467e-09
7.89385e-08
3.38847e-09
8.31002e-08
7.44326e-09
8.71469e-08
9.23689e-09
9.12694e-08
8.55548e-09
9.56663e-08
5.33031e-09
1.00534e-07
-4.32015e-10
1.06049e-07
-8.74554e-09
1.12375e-07
-1.97079e-08
1.19656e-07
-3.35549e-08
1.28029e-07
-5.06793e-08
1.37625e-07
-7.16554e-08
1.48581e-07
-9.72431e-08
1.61041e-07
-1.28406e-07
1.75162e-07
-1.66337e-07
1.91124e-07
-2.12486e-07
2.0912e-07
-2.68604e-07
2.29382e-07
-3.36807e-07
2.52136e-07
-4.19514e-07
2.77667e-07
-5.19835e-07
3.06215e-07
-6.409e-07
3.38074e-07
-7.87345e-07
3.73473e-07
-9.62752e-07
4.12617e-07
-1.17427e-06
4.55831e-07
-1.42463e-06
5.03151e-07
-1.72496e-06
5.55838e-07
-2.07445e-06
6.1487e-07
-2.48977e-06
6.85702e-07
-2.97024e-06
-3.55222e-06
7.74584e-07
-3.29029e-10
4.65637e-09
-8.82826e-10
5.94783e-09
-1.25885e-09
-3.40325e-10
-1.04751e-09
-1.21235e-08
3.34288e-11
-2.57796e-08
1.98662e-09
-3.77335e-08
4.63954e-09
-4.60076e-08
7.81475e-09
-5.04597e-08
1.14164e-08
-5.23225e-08
1.54439e-08
-5.30653e-08
1.99373e-08
-5.34975e-08
2.49177e-08
-5.364e-08
3.03542e-08
-5.31041e-08
3.61676e-08
-5.1473e-08
4.22445e-08
-4.84758e-08
4.84489e-08
-4.40141e-08
5.46336e-08
-3.81302e-08
6.06486e-08
-3.10306e-08
6.63629e-08
-2.31184e-08
7.16839e-08
-1.49976e-08
7.65821e-08
-7.41119e-09
8.10978e-08
-1.12611e-09
8.53423e-08
3.20046e-09
8.94779e-08
5.10248e-09
9.37011e-08
4.33422e-09
9.82153e-08
8.17216e-10
1.0322e-07
-5.43466e-09
1.08895e-07
-1.44195e-08
1.15404e-07
-2.62156e-08
1.22894e-07
-4.10431e-08
1.315e-07
-5.92841e-08
1.41355e-07
-8.15086e-08
1.52592e-07
-1.08478e-07
1.6535e-07
-1.41163e-07
1.79781e-07
-1.80766e-07
1.96055e-07
-2.28758e-07
2.14347e-07
-2.86894e-07
2.34867e-07
-3.57326e-07
2.57812e-07
-4.42459e-07
2.8342e-07
-5.45443e-07
3.11884e-07
-6.69363e-07
3.43411e-07
-8.18874e-07
3.78155e-07
-9.97496e-07
4.16185e-07
-1.2123e-06
4.57696e-07
-1.46615e-06
5.02569e-07
-1.76983e-06
5.51779e-07
-2.12366e-06
6.06137e-07
-2.54412e-06
6.69845e-07
-3.03394e-06
-3.63001e-06
7.4764e-07
-3.41935e-10
4.99989e-09
-9.15781e-10
6.52422e-09
-1.29676e-09
4.32401e-11
-1.06616e-09
-1.23519e-08
6.43045e-11
-2.6908e-08
2.0959e-09
-3.9763e-08
4.84444e-09
-4.87542e-08
8.12716e-09
-5.37401e-08
1.18479e-08
-5.60411e-08
1.60065e-08
-5.72215e-08
2.0643e-08
-5.8132e-08
2.57776e-08
-5.87723e-08
3.13768e-08
-5.87015e-08
3.7358e-08
-5.74523e-08
4.3603e-08
-5.4719e-08
4.99709e-08
-5.03804e-08
5.63088e-08
-4.44661e-08
6.24618e-08
-3.71821e-08
6.82957e-08
-2.89504e-08
7.37176e-08
-2.04183e-08
7.87006e-08
-1.23927e-08
8.32904e-08
-5.71481e-09
8.76045e-08
-1.11204e-09
9.18118e-08
8.96344e-10
9.61141e-08
3.37263e-11
1.00719e-07
-3.7868e-09
1.05829e-07
-1.05428e-08
1.11626e-07
-2.0215e-08
1.18274e-07
-3.2862e-08
1.25919e-07
-4.86872e-08
1.34699e-07
-6.80617e-08
1.44741e-07
-9.15501e-08
1.56179e-07
-1.19913e-07
1.69148e-07
-1.5413e-07
1.83793e-07
-1.95409e-07
2.00275e-07
-2.45238e-07
2.18758e-07
-3.05376e-07
2.39433e-07
-3.78e-07
2.62477e-07
-4.65502e-07
2.88089e-07
-5.71056e-07
3.16429e-07
-6.97703e-07
3.47638e-07
-8.50085e-07
3.81813e-07
-1.03167e-06
4.18925e-07
-1.24942e-06
4.59071e-07
-1.50629e-06
5.02034e-07
-1.8128e-06
5.48548e-07
-2.17017e-06
5.9926e-07
-2.59483e-06
6.57273e-07
-3.09195e-06
-3.69863e-06
7.25901e-07
-3.55044e-10
5.35652e-09
-9.49403e-10
7.12114e-09
-1.33515e-09
4.31573e-10
-1.08447e-09
-1.26003e-08
9.68686e-11
-2.80872e-08
2.20935e-09
-4.18734e-08
5.0568e-09
-5.15997e-08
8.45042e-09
-5.71314e-08
1.22938e-08
-5.98824e-08
1.65876e-08
-6.15127e-08
2.13717e-08
-6.2914e-08
2.6665e-08
-6.40634e-08
3.24317e-08
-6.44663e-08
3.85851e-08
-6.3604e-08
4.50027e-08
-6.11348e-08
5.1538e-08
-5.69141e-08
5.80322e-08
-5.09584e-08
6.43252e-08
-4.34737e-08
7.02794e-08
-3.49028e-08
7.58014e-08
-2.59391e-08
8.08671e-08
-1.74568e-08
8.55272e-08
-1.03738e-08
8.99054e-08
-5.4887e-09
9.4177e-08
-3.37418e-09
9.85492e-08
-4.33668e-09
1.03234e-07
-8.47011e-09
1.08435e-07
-1.57419e-08
1.14335e-07
-2.61145e-08
1.211e-07
-3.96255e-08
1.28875e-07
-5.6461e-08
1.37795e-07
-7.698e-08
1.47988e-07
-1.01742e-07
1.59582e-07
-1.31505e-07
1.72709e-07
-1.67256e-07
1.87507e-07
-2.10206e-07
2.0413e-07
-2.61859e-07
2.22731e-07
-3.23975e-07
2.43483e-07
-3.98752e-07
2.66548e-07
-4.88566e-07
2.92092e-07
-5.966e-07
3.20246e-07
-7.25857e-07
3.51098e-07
-8.80939e-07
3.84699e-07
-1.06527e-06
4.20945e-07
-1.28567e-06
4.59853e-07
-1.5452e-06
5.01136e-07
-1.85408e-06
5.45312e-07
-2.21434e-06
5.92847e-07
-2.64237e-06
6.45874e-07
-3.14497e-06
-3.75912e-06
7.06366e-07
-3.68344e-10
5.72647e-09
-9.83674e-10
7.73902e-09
-1.374e-09
8.24475e-10
-1.10244e-09
-1.28697e-08
1.31384e-10
-2.9319e-08
2.32682e-09
-4.40668e-08
5.27653e-09
-5.45474e-08
8.78449e-09
-6.0637e-08
1.27542e-08
-6.38501e-08
1.71872e-08
-6.59433e-08
2.21233e-08
-6.7848e-08
2.758e-08
-6.9518e-08
3.35188e-08
-7.04032e-08
3.98493e-08
-6.99327e-08
4.64438e-08
-6.77276e-08
5.31502e-08
-6.36189e-08
5.98037e-08
-5.761e-08
6.62386e-08
-4.99072e-08
7.23139e-08
-4.09764e-08
7.79359e-08
-3.15599e-08
8.30828e-08
-2.26023e-08
8.78107e-08
-1.51006e-08
9.22499e-08
-9.92636e-09
9.65818e-08
-7.70511e-09
1.01019e-07
-8.77215e-09
1.05777e-07
-1.32268e-08
1.11061e-07
-2.10249e-08
1.17057e-07
-3.21088e-08
1.23927e-07
-4.64946e-08
1.31817e-07
-6.435e-08
1.4086e-07
-8.60213e-08
1.51181e-07
-1.12061e-07
1.62903e-07
-1.43226e-07
1.76155e-07
-1.80506e-07
1.91067e-07
-2.25116e-07
2.07784e-07
-2.78575e-07
2.26448e-07
-3.42638e-07
2.47216e-07
-4.19519e-07
2.70233e-07
-5.11583e-07
2.95635e-07
-6.22003e-07
3.23528e-07
-7.53749e-07
3.53951e-07
-9.11363e-07
3.86913e-07
-1.09824e-06
4.22245e-07
-1.321e-06
4.59893e-07
-1.58285e-06
4.99506e-07
-1.8937e-06
5.41396e-07
-2.25623e-06
5.85812e-07
-2.68678e-06
6.34018e-07
-3.19317e-06
-3.81182e-06
6.86727e-07
-3.81826e-10
6.10989e-09
-1.01857e-09
8.37831e-09
-1.41331e-09
1.22178e-09
-1.12007e-09
-1.31607e-08
1.67527e-10
-3.06046e-08
2.44815e-09
-4.63454e-08
5.50342e-09
-5.76008e-08
9.12928e-09
-6.42606e-08
1.3229e-08
-6.79478e-08
1.78053e-08
-7.05171e-08
2.28978e-08
-7.29385e-08
2.85225e-08
-7.51406e-08
3.46382e-08
-7.65171e-08
4.11503e-08
-7.64431e-08
4.79261e-08
-7.45016e-08
5.48074e-08
-7.04987e-08
6.16231e-08
-6.44238e-08
6.82019e-08
-5.64847e-08
7.43991e-08
-4.7172e-08
8.01206e-08
-3.72803e-08
8.53476e-08
-2.78279e-08
9.01413e-08
-1.98934e-08
9.46388e-08
-1.44224e-08
9.90279e-08
-1.20933e-08
1.03526e-07
-1.3269e-08
1.08353e-07
-1.80524e-08
1.13716e-07
-2.63863e-08
1.198e-07
-3.81916e-08
1.26768e-07
-5.34613e-08
1.34763e-07
-7.23441e-08
1.43916e-07
-9.51726e-08
1.54348e-07
-1.22492e-07
1.66179e-07
-1.55055e-07
1.79529e-07
-1.93856e-07
1.94524e-07
-2.40109e-07
2.11295e-07
-2.95345e-07
2.29977e-07
-3.61318e-07
2.50706e-07
-4.40248e-07