/*--------------------------------*- C++ -*----------------------------------*\
  =========                 |
  \\      /  F ield         | OpenFOAM: The Open Source CFD Toolbox
   \\    /   O peration     | Website:  https://openfoam.org
    \\  /    A nd           | Version:  7
     \\/     M anipulation  |
\*---------------------------------------------------------------------------*/
FoamFile
{
    version     2.0;
    format      ascii;
    class       volScalarField;
    location    "0.27";
    object      nut;
}
// * * * * * * * * * * * * * * * * * * * * * * * * * * * * * * * * * * * * * //

dimensions      [0 2 -1 0 0 0 0];

internalField   nonuniform List<scalar> 
70000
(
9.96326e-12
6.88466e-14
2.55068e-16
8.51101e-17
4.88793e-17
8.02876e-17
2.84996e-17
1.34885e-17
9.24079e-18
6.81865e-18
5.05963e-18
3.82566e-18
2.96478e-18
2.34991e-18
1.89919e-18
1.5616e-18
1.30424e-18
1.10497e-18
9.48817e-19
8.25098e-19
7.26283e-19
6.46892e-19
5.82857e-19
5.31263e-19
4.89757e-19
4.5688e-19
4.31004e-19
4.11913e-19
3.97767e-19
3.90086e-19
3.85607e-19
3.88874e-19
3.93179e-19
4.08578e-19
4.2209e-19
4.51215e-19
4.78317e-19
5.16257e-19
5.80193e-19
5.82256e-19
7.96632e-19
5.48203e-19
1.46134e-18
2.10739e-19
4.96004e-18
3.98358e-20
3.91941e-17
3.14821e-17
4.0589e-15
1.51431e-13
1.04286e-10
5.98531e-12
6.43865e-14
2.14407e-14
2.8848e-16
1.6931e-17
2.52876e-17
2.12729e-17
1.24018e-17
7.41843e-18
4.89272e-18
3.4381e-18
2.51222e-18
1.89097e-18
1.4597e-18
1.15183e-18
9.26568e-19
7.58282e-19
6.30131e-19
5.30994e-19
4.53248e-19
3.91533e-19
3.42117e-19
3.0217e-19
2.69813e-19
2.43318e-19
2.21951e-19
2.042e-19
1.90498e-19
1.78709e-19
1.71059e-19
1.63612e-19
1.61454e-19
1.57246e-19
1.60394e-19
1.59609e-19
1.66074e-19
1.74322e-19
1.70694e-19
2.18881e-19
1.45212e-19
3.86352e-19
4.64631e-20
1.44595e-18
9.27702e-20
1.50441e-17
2.04127e-17
2.88957e-16
2.01174e-14
8.10793e-15
3.19268e-10
3.39401e-12
1.90325e-13
1.98366e-14
7.54878e-16
5.63278e-17
6.87144e-18
3.94496e-18
1.97961e-18
9.66217e-19
5.28185e-19
3.19036e-19
2.04488e-19
1.36229e-19
9.35405e-20
6.59042e-20
4.74791e-20
3.48891e-20
2.6085e-20
1.98219e-20
1.5307e-20
1.20255e-20
9.64692e-21
7.93883e-21
6.76825e-21
6.02191e-21
5.68978e-21
5.70436e-21
6.20978e-21
7.1432e-21
8.93936e-21
1.14563e-20
1.57024e-20
2.12582e-20
3.02246e-20
4.15708e-20
5.88792e-20
8.05904e-20
1.09917e-19
1.48466e-19
1.90037e-19
2.60773e-19
3.57055e-19
6.97511e-19
2.18889e-18
9.92918e-18
5.3102e-17
3.35206e-16
2.21606e-14
3.30917e-14
6.15471e-09
1.92518e-11
7.80935e-13
6.06746e-14
5.39393e-15
9.02543e-16
1.04439e-16
2.70942e-17
1.10283e-17
4.72943e-18
2.11739e-18
1.03309e-18
5.43996e-19
3.00755e-19
1.71032e-19
9.86558e-20
5.70158e-20
3.25568e-20
1.80403e-20
9.45681e-21
4.50463e-21
1.81289e-21
5.25442e-22
6.64688e-23
1.81246e-26
6.49303e-23
5.47987e-22
1.96913e-21
5.02449e-21
1.06871e-20
2.03361e-20
3.589e-20
6.01828e-20
9.66149e-20
1.51173e-19
2.27982e-19
3.41239e-19
4.86335e-19
7.05298e-19
9.34217e-19
1.33276e-18
1.56765e-18
2.35911e-18
2.48236e-18
5.767e-18
1.16577e-17
5.16562e-17
2.73927e-16
1.60923e-14
5.16692e-14
2.3257e-09
2.23091e-10
4.43422e-12
3.19303e-13
2.26021e-14
4.27828e-15
6.85708e-16
1.88063e-16
7.5094e-17
3.24102e-17
1.46347e-17
7.12631e-18
3.72834e-18
2.05232e-18
1.16774e-18
6.78081e-19
3.97415e-19
2.32322e-19
1.33537e-19
7.40568e-20
3.85506e-20
1.80135e-20
6.95013e-21
1.8251e-21
1.65803e-22
3.42508e-24
5.5972e-22
3.62045e-21
1.18883e-20
2.90272e-20
6.02963e-20
1.12768e-19
1.97521e-19
3.26877e-19
5.25201e-19
8.06771e-19
1.23036e-18
1.77848e-18
2.61415e-18
3.52598e-18
5.03109e-18
6.14e-18
8.59201e-18
9.36715e-18
1.39105e-17
2.23556e-17
3.86419e-17
2.07292e-16
1.1197e-14
4.3574e-14
3.01785e-09
5.28959e-09
4.33598e-11
1.92874e-12
1.05766e-13
1.74259e-14
3.0784e-15
8.78514e-16
3.50242e-16
1.52524e-16
6.96845e-17
3.41218e-17
1.78665e-17
9.83363e-18
5.60245e-18
3.26663e-18
1.93026e-18
1.14408e-18
6.72049e-19
3.85341e-19
2.11195e-19
1.0718e-19
4.77164e-20
1.6731e-20
3.50253e-21
1.1934e-22
1.75688e-22
4.26699e-21
2.03635e-20
5.91605e-20
1.35821e-19
2.70529e-19
4.95124e-19
8.44993e-19
1.39065e-18
2.17455e-18
3.36756e-18
4.92784e-18
7.32559e-18
9.99589e-18
1.43711e-17
1.78342e-17
2.46517e-17
2.72874e-17
3.447e-17
4.67098e-17
3.11427e-17
1.57869e-16
7.75772e-15
3.40971e-14
1.07683e-09
4.76116e-09
3.70363e-09
1.83175e-11
6.55234e-13
8.84462e-14
1.43552e-14
3.82966e-15
1.44846e-15
6.15678e-16
2.78582e-16
1.35573e-16
7.06154e-17
3.87127e-17
2.20094e-17
1.28367e-17
7.61037e-18
4.54381e-18
2.70335e-18
1.58214e-18
8.95452e-19
4.78199e-19
2.31709e-19
9.48746e-20
2.81033e-20
3.71768e-21
5.45422e-25
3.08984e-21
2.74915e-20
1.00432e-19
2.59154e-19
5.53363e-19
1.05945e-18
1.86544e-18
3.1392e-18
4.99234e-18
7.83034e-18
1.15819e-17
1.73624e-17
2.39029e-17
3.45652e-17
4.33859e-17
5.98091e-17
6.70976e-17
7.93638e-17
9.72568e-17
3.34397e-17
1.29105e-16
5.27129e-15
2.60902e-14
2.42686e-09
3.86599e-09
8.18635e-10
2.38068e-09
8.36803e-12
6.84978e-13
8.51919e-14
1.9019e-14
6.39409e-15
2.5211e-15
1.08517e-15
5.09589e-16
2.58544e-16
1.39027e-16
7.79476e-17
4.50331e-17
2.65547e-17
1.58352e-17
9.45449e-18
5.58609e-18
3.21807e-18
1.77099e-18
9.02673e-19
4.04256e-19
1.43341e-19
3.08469e-20
1.19913e-21
1.0786e-21
3.15408e-20
1.54899e-19
4.55728e-19
1.04604e-18
2.09291e-18
3.79458e-18
6.51196e-18
1.05078e-17
1.6642e-17
2.48275e-17
3.74e-17
5.18602e-17
7.50877e-17
9.52524e-17
1.30449e-16
1.48942e-16
1.69219e-16
1.97592e-16
5.24274e-17
1.23662e-16
3.47334e-15
1.92479e-14
3.36814e-09
4.3666e-09
5.87776e-10
2.97623e-10
5.43192e-10
1.76294e-11
8.94656e-13
1.32866e-13
3.55219e-14
1.21057e-14
4.70165e-15
2.04512e-15
9.7899e-16
5.03469e-16
2.72725e-16
1.5344e-16
8.86856e-17
5.21324e-17
3.08493e-17
1.81679e-17
1.05022e-17
5.8512e-18
3.05992e-18
1.43896e-18
5.62081e-19
1.521e-19
1.53918e-20
5.1406e-23
3.38042e-20
2.36881e-19
7.96267e-19
1.95444e-18
4.06227e-18
7.54274e-18
1.31347e-17
2.14136e-17
3.41015e-17
5.11444e-17
7.71037e-17
1.07418e-16
1.55014e-16
1.98387e-16
2.68759e-16
3.12093e-16
3.44529e-16
3.91693e-16
1.08705e-16
1.51459e-16
2.20343e-15
1.34191e-14
3.40942e-09
4.60359e-09
6.68753e-10
1.91631e-10
4.59421e-11
6.53312e-11
2.69081e-10
2.52799e-12
3.44814e-13
8.42872e-14
2.65887e-14
9.99799e-15
4.29804e-15
2.0361e-15
1.03426e-15
5.5289e-16
3.06749e-16
1.74531e-16
1.00676e-16
5.81714e-17
3.32057e-17
1.84009e-17
9.66122e-18
4.62726e-18
1.89054e-18
5.70579e-19
8.30644e-20
1.34786e-22
3.88959e-20
3.93665e-19
1.48214e-18
3.82827e-18
8.16602e-18
1.53819e-17
2.69717e-17
4.41473e-17
7.02979e-17
1.05498e-16
1.58423e-16
2.20935e-16
3.16386e-16
4.07129e-16
5.43831e-16
6.39411e-16
6.91247e-16
7.69709e-16
2.52894e-16
2.38502e-16
1.33989e-15
8.78067e-15
3.21011e-09
4.38689e-09
7.69246e-10
1.99966e-10
3.55213e-11
2.09371e-11
1.26891e-11
1.9823e-11
1.13693e-10
1.86844e-12
2.91918e-13
7.6543e-14
2.62156e-14
1.05946e-14
4.78086e-15
2.33135e-15
1.20207e-15
6.44483e-16
3.54118e-16
1.96626e-16
1.08678e-16
5.87246e-17
3.0287e-17
1.43796e-17
5.90702e-18
1.84655e-18
3.07347e-19
2.74903e-21
5.91981e-20
7.81315e-19
3.13725e-18
8.29131e-18
1.78179e-17
3.3594e-17
5.87052e-17
9.56677e-17
1.51251e-16
2.25773e-16
3.35872e-16
4.66644e-16
6.60119e-16
8.5022e-16
1.11654e-15
1.32135e-15
1.40532e-15
1.53419e-15
6.05539e-16
4.52724e-16
7.94636e-16
5.35791e-15
3.01563e-09
3.96802e-09
8.41328e-10
2.10539e-10
3.76587e-11
1.92421e-11
8.07249e-12
4.21169e-12
3.7958e-12
6.23582e-12
9.40468e-11
3.49558e-12
4.06253e-13
1.01361e-13
3.43328e-14
1.37747e-14
6.15342e-15
2.95298e-15
1.48489e-15
7.66679e-16
3.98784e-16
2.04677e-16
1.01018e-16
4.61887e-17
1.8383e-17
5.60852e-18
9.25369e-19
9.48826e-21
1.48101e-19
2.00745e-18
7.99106e-18
2.08211e-17
4.40388e-17
8.17446e-17
1.40581e-16
2.25792e-16
3.51466e-16
5.18053e-16
7.58658e-16
1.04402e-15
1.45158e-15
1.8612e-15
2.3952e-15
2.83505e-15
2.97172e-15
3.17925e-15
1.47279e-15
9.77575e-16
5.20881e-16
3.01846e-15
2.84418e-09
3.50756e-09
9.02461e-10
2.07711e-10
4.10088e-11
2.06419e-11
8.43001e-12
3.55336e-12
2.19184e-12
1.67153e-12
1.49297e-12
1.75242e-12
3.79679e-12
4.59095e-11
1.40674e-12
2.18323e-13
6.13245e-14
2.2091e-14
9.09682e-15
4.04287e-15
1.8674e-15
8.68683e-16
3.93771e-16
1.66598e-16
6.1403e-17
1.7143e-17
2.44008e-18
8.80535e-21
6.6633e-19
7.06309e-18
2.57235e-17
6.34188e-17
1.28615e-16
2.30653e-16
3.84754e-16
6.01897e-16
9.13368e-16
1.31804e-15
1.88592e-15
2.55297e-15
3.46849e-15
4.39941e-15
5.52679e-15
6.49847e-15
6.71261e-15
7.02755e-15
3.71063e-15
2.34622e-15
5.64395e-16
1.61402e-15
2.67412e-09
3.05156e-09
9.70917e-10
1.96334e-10
4.40285e-11
2.19588e-11
9.56677e-12
3.80639e-12
2.12055e-12
1.3897e-12
9.61645e-13
7.16883e-13
6.00113e-13
5.83909e-13
7.0655e-13
1.29931e-12
9.94675e-12
1.47541e-12
1.92995e-13
4.82744e-14
1.57222e-14
5.7281e-15
2.14848e-15
7.7284e-16
2.43094e-16
5.5912e-17
5.42205e-18
4.1171e-22
5.28038e-18
3.61376e-17
1.11438e-16
2.48639e-16
4.6906e-16
7.94525e-16
1.26271e-15
1.89577e-15
2.76961e-15
3.87057e-15
5.36e-15
7.07575e-15
9.32483e-15
1.16098e-14
1.41671e-14
1.64201e-14
1.66854e-14
1.70514e-14
9.99743e-15
6.2817e-15
1.411e-15
1.14234e-15
2.4956e-09
2.61618e-09
1.05018e-09
1.82021e-10
4.71901e-11
2.27193e-11
1.08282e-11
4.24695e-12
2.29089e-12
1.44846e-12
9.40839e-13
6.28798e-13
4.45033e-13
3.3575e-13
2.70068e-13
2.333e-13
2.20457e-13
2.36475e-13
3.12653e-13
6.42403e-13
6.03435e-12
1.16009e-16
2.13453e-14
5.49777e-15
1.16806e-15
1.59102e-16
3.33619e-18
4.93306e-18
8.72535e-17
3.24513e-16
7.60285e-16
1.43108e-15
2.38929e-15
3.68162e-15
5.41144e-15
7.61124e-15
1.04915e-14
1.39573e-14
1.84324e-14
2.3417e-14
2.96067e-14
3.57834e-14
4.20954e-14
4.76148e-14
4.74059e-14
4.70943e-14
2.9985e-14
1.91887e-14
5.85304e-15
2.59362e-15
2.3092e-09
2.21545e-09
1.13492e-09
1.67379e-10
5.09483e-11
2.30517e-11
1.21201e-11
4.73988e-12
2.51463e-12
1.58388e-12
1.01927e-12
6.61604e-13
4.45294e-13
3.12181e-13
2.26486e-13
1.69403e-13
1.30619e-13
1.03991e-13
8.57392e-14
7.3624e-14
6.66161e-14
6.51347e-14
7.29898e-14
1.09214e-13
3.5019e-13
1.59161e-11
1.88385e-12
4.43714e-14
1.67105e-14
1.45558e-14
1.63282e-14
1.97729e-14
2.45527e-14
3.05473e-14
3.80866e-14
4.702e-14
5.81203e-14
7.06659e-14
8.60972e-14
1.02355e-13
1.21365e-13
1.39442e-13
1.55743e-13
1.6912e-13
1.63416e-13
1.56548e-13
1.05964e-13
6.99422e-14
2.95667e-14
1.5546e-14
2.11724e-09
1.85564e-09
1.21784e-09
1.53441e-10
5.53413e-11
2.30799e-11
1.34632e-11
5.28218e-12
2.75635e-12
1.7397e-12
1.12657e-12
7.28178e-13
4.83112e-13
3.30967e-13
2.32164e-13
1.65626e-13
1.19766e-13
8.75522e-14
6.44845e-14
4.76298e-14
3.50617e-14
2.55095e-14
1.81409e-14
1.24195e-14
8.01522e-15
4.73685e-15
2.47788e-15
1.15679e-15
6.95467e-16
2.81573e-15
2.62542e-13
1.0858e-10
1.75411e-11
3.2701e-12
1.53219e-12
1.05182e-12
8.76176e-13
8.03319e-13
7.87809e-13
7.91709e-13
8.1568e-13
8.37615e-13
8.48456e-13
8.49653e-13
7.74997e-13
7.00765e-13
4.90356e-13
3.34019e-13
1.81627e-13
1.24664e-13
1.92135e-09
1.53717e-09
1.29234e-09
1.4097e-10
6.01236e-11
2.28703e-11
1.48554e-11
5.89428e-12
3.01797e-12
1.9063e-12
1.24647e-12
8.07986e-13
5.34101e-13
3.63324e-13
2.52102e-13
1.76921e-13
1.24968e-13
8.84892e-14
6.24893e-14
4.36974e-14
2.99604e-14
1.98598e-14
1.24651e-14
7.16649e-15
3.55929e-15
1.35176e-15
2.80058e-16
4.16611e-18
5.87805e-17
1.03475e-15
5.17314e-15
1.68872e-14
4.47536e-14
1.03042e-13
2.07636e-13
3.05939e-13
6.95686e-14
1.11633e-11
1.82998e-10
7.15013e-11
3.21091e-11
1.90254e-11
1.32178e-11
1.00426e-11
7.59072e-12
5.90731e-12
3.97612e-12
2.70583e-12
1.72274e-12
1.41802e-12
1.72377e-09
1.25992e-09
1.35275e-09
1.30847e-10
6.48922e-11
2.24913e-11
1.62586e-11
6.5928e-12
3.30608e-12
2.08468e-12
1.37697e-12
8.9695e-13
5.92242e-13
4.01711e-13
2.77616e-13
1.93598e-13
1.3545e-13
9.46277e-14
6.5613e-14
4.4776e-14
2.97218e-14
1.8867e-14
1.1162e-14
5.89827e-15
2.57096e-15
7.70079e-16
8.45863e-17
3.59352e-19
2.42143e-16
1.85116e-15
6.84646e-15
1.86013e-14
4.29455e-14
8.94887e-14
1.75401e-13
3.28141e-13
5.98646e-13
1.06589e-12
1.8733e-12
3.23395e-12
5.37162e-12
8.28855e-12
8.92679e-12
1.54185e-12
2.58202e-11
2.53192e-10
2.00029e-10
1.12993e-10
6.54746e-11
4.93786e-11
1.52727e-09
1.02357e-09
1.39418e-09
1.23998e-10
6.91264e-11
2.20405e-11
1.76106e-11
7.38961e-12
3.62588e-12
2.27645e-12
1.51866e-12
9.95239e-13
6.56771e-13
4.44461e-13
3.06373e-13
2.12876e-13
1.48131e-13
1.02702e-13
7.04824e-14
4.74367e-14
3.0899e-14
1.91059e-14
1.08839e-14
5.42896e-15
2.14625e-15
5.2429e-16
2.70389e-17
1.30213e-17
5.26519e-16
2.88773e-15
9.197e-15
2.26541e-14
4.83014e-14
9.36468e-14
1.7082e-13
2.97e-13
5.00583e-13
8.19652e-13
1.31514e-12
2.069e-12
3.1787e-12
4.81036e-12
6.93578e-12
9.77141e-12
1.22596e-11
1.38508e-11
1.15971e-11
4.87587e-12
1.84483e-13
5.1029e-12
1.3348e-09
8.26949e-10
1.41262e-09
1.21296e-10
7.22287e-11
2.16435e-11
1.88347e-11
8.29334e-12
3.98194e-12
2.48256e-12
1.67175e-12
1.10351e-12
7.281e-13
4.91519e-13
3.37945e-13
2.3405e-13
1.62111e-13
1.11689e-13
7.60181e-14
5.06037e-14
3.24711e-14
1.96542e-14
1.0844e-14
5.13671e-15
1.84682e-15
3.59557e-16
5.05486e-18
6.27999e-17
1.00918e-15
4.50452e-15
1.30064e-14
3.01005e-14
6.11813e-14
1.13904e-13
1.99964e-13
3.35072e-13
5.43313e-13
8.55108e-13
1.31371e-12
1.97364e-12
2.88358e-12
4.12754e-12
5.63523e-12
7.46952e-12
9.04826e-12
1.01821e-11
9.84189e-12
7.84192e-12
5.33187e-12
2.65157e-12
1.14931e-09
6.67742e-10
1.40517e-09
1.23507e-10
7.36376e-11
2.1438e-11
1.98486e-11
9.30813e-12
4.37919e-12
2.70369e-12
1.8358e-12
1.22209e-12
8.06673e-13
5.4308e-13
3.72324e-13
2.56978e-13
1.77144e-13
1.21268e-13
8.18548e-14
5.3898e-14
3.40742e-14
2.01885e-14
1.07798e-14
4.83284e-15
1.5598e-15
2.26064e-16
3.49203e-20
1.90894e-16
1.82798e-15
7.01493e-15
1.87973e-14
4.15331e-14
8.16212e-14
1.47959e-13
2.53679e-13
4.16135e-13
6.60541e-13
1.01846e-12
1.53087e-12
2.24923e-12
3.2105e-12
4.4797e-12
5.9761e-12
7.70964e-12
9.2141e-12
1.02805e-11
1.02866e-11
9.11887e-12
7.71683e-12
6.4167e-12
9.7373e-10
5.42611e-10
1.37045e-09
1.31277e-10
7.29692e-11
2.15492e-11
2.05766e-11
1.04307e-11
4.8232e-12
2.94058e-12
2.00992e-12
1.35088e-12
8.92746e-13
5.9926e-13
4.09494e-13
2.81579e-13
1.93111e-13
1.31291e-13
8.78288e-14
5.7154e-14
3.55538e-14
2.05772e-14
1.0592e-14
4.45578e-15
1.25899e-15
1.18838e-16
1.98059e-18
4.70538e-16
3.18815e-15
1.08495e-14
2.73284e-14
5.81201e-14
1.11184e-13
1.97509e-13
3.32955e-13
5.38483e-13
8.43413e-13
1.28483e-12
1.90807e-12
2.77063e-12
3.91019e-12
5.38904e-12
7.12436e-12
9.09031e-12
1.08645e-11
1.2174e-11
1.25628e-11
1.1897e-11
1.11446e-11
1.09199e-11
8.10754e-10
4.47391e-10
1.30881e-09
1.45107e-10
7.00891e-11
2.2069e-11
2.09619e-11
1.16467e-11
5.32016e-12
3.19405e-12
2.19278e-12
1.48928e-12
9.86337e-13
6.60027e-13
4.4932e-13
3.0769e-13
2.09851e-13
1.41603e-13
9.37981e-14
6.02476e-14
3.68086e-14
2.07456e-14
1.02355e-14
3.98893e-15
9.48824e-16
4.42424e-17
2.91913e-17
1.02503e-15
5.39989e-15
1.66358e-14
3.97191e-14
8.1695e-14
1.52677e-13
2.66614e-13
4.43326e-13
7.09167e-13
1.10008e-12
1.66218e-12
2.45004e-12
3.53316e-12
4.95831e-12
6.79251e-12
8.95837e-12
1.13971e-11
1.37098e-11
1.55426e-11
1.65364e-11
1.65332e-11
1.66174e-11
1.78122e-11
6.6269e-10
3.7741e-10
1.22251e-09
1.6522e-10
6.5148e-11
2.304e-11
2.09777e-11
1.29262e-11
5.87661e-12
3.46496e-12
2.38271e-12
1.63611e-12
1.08715e-12
7.25167e-13
4.91521e-13
3.35031e-13
2.27117e-13
1.51994e-13
9.95879e-14
6.3041e-14
3.77385e-14
2.06314e-14
9.68335e-15
3.4347e-15
6.46889e-16
7.02875e-18
1.39332e-16
2.05556e-15
8.93223e-15
2.52935e-14
5.75995e-14
1.14957e-13
2.10356e-13
3.61721e-13
5.94252e-13
9.41684e-13
1.44932e-12
2.17589e-12
3.19032e-12
4.57969e-12
6.40827e-12
8.75403e-12
1.15548e-11
1.47215e-11
1.78769e-11
2.0584e-11
2.2562e-11
2.36566e-11
2.51539e-11
2.86626e-11
5.31256e-10
3.27815e-10
1.11553e-09
1.91343e-10
5.86124e-11
2.44337e-11
2.06381e-11
1.42203e-11
6.49868e-12
3.75411e-12
2.57773e-12
1.78948e-12
1.19447e-12
7.94236e-13
5.35639e-13
3.63179e-13
2.44556e-13
1.6218e-13
1.04976e-13
6.53692e-14
3.82333e-14
2.01745e-14
8.9193e-15
2.80868e-15
3.77897e-16
4.64303e-23
4.41136e-16
3.88397e-15
1.4491e-14
3.81659e-14
8.33165e-14
1.61778e-13
2.90342e-13
4.9221e-13
7.99749e-13
1.25654e-12
1.92062e-12
2.86771e-12
4.18721e-12
5.9905e-12
8.36949e-12
1.14209e-11
1.51112e-11
1.93278e-11
2.37253e-11
2.77949e-11
3.13467e-11
3.42855e-11
3.82321e-11
4.56284e-11
4.1746e-10
2.93822e-10
9.93495e-10
2.22428e-10
5.12412e-11
2.6121e-11
2.00021e-11
1.54612e-11
7.19068e-12
4.06213e-12
2.77567e-12
1.94672e-12
1.30704e-12
8.66497e-13
5.81008e-13
3.91547e-13
2.61696e-13
1.71795e-13
1.09687e-13
6.70402e-14
3.8174e-14
1.93202e-14
7.94051e-15
2.14034e-15
1.69275e-16
1.07578e-17
1.1278e-15
7.0173e-15
2.31324e-14
5.7206e-14
1.20226e-13
2.27639e-13
4.01267e-13
6.71303e-13
1.07964e-12
1.68294e-12
2.55644e-12
3.79857e-12
5.52732e-12
7.88732e-12
1.10116e-11
1.50275e-11
1.99488e-11
2.56543e-11
3.18525e-11
3.79905e-11
4.40166e-11
4.99841e-11
5.80734e-11
7.1909e-11
3.21514e-10
2.70892e-10
8.63748e-10
2.56297e-10
4.40155e-11
2.7862e-11
1.91672e-11
1.65658e-11
7.95316e-12
4.38938e-12
2.97421e-12
2.10442e-12
1.42293e-12
9.40846e-13
6.2672e-13
4.1936e-13
2.77928e-13
1.80385e-13
1.13399e-13
6.78399e-14
3.74405e-14
1.80266e-14
6.76362e-15
1.47448e-15
4.33004e-17
1.10351e-16
2.52913e-15
1.2244e-14
3.64265e-14
8.52426e-14
1.73105e-13
3.20258e-13
5.55205e-13
9.1742e-13
1.46153e-12
2.26159e-12
3.41613e-12
5.05411e-12
7.33318e-12
1.04441e-11
1.45796e-11
1.99163e-11
2.6543e-11
3.43566e-11
4.31603e-11
5.2407e-11
6.2279e-11
7.31159e-11
8.80243e-11
1.12298e-10
2.42751e-10
2.55072e-10
7.35026e-10
2.89518e-10
3.7956e-11
2.93426e-11
1.8255e-11
1.74443e-11
8.77997e-12
4.73598e-12
3.17098e-12
2.25845e-12
1.53941e-12
1.01574e-12
6.716e-13
4.45652e-13
2.92508e-13
1.87415e-13
1.15746e-13
6.75432e-14
3.59236e-14
1.6276e-14
5.43193e-15
8.70267e-16
1.40965e-18
4.75456e-16
5.19172e-15
2.07765e-14
5.66949e-14
1.26358e-13
2.48743e-13
4.50485e-13
7.68997e-13
1.25614e-12
1.98361e-12
3.04881e-12
4.58192e-12
6.75328e-12
9.77575e-12
1.39047e-11
1.94195e-11
2.65751e-11
3.55777e-11
4.6387e-11
5.89715e-11
7.2872e-11
8.86764e-11
1.07216e-10
1.33092e-10
1.73905e-10
1.79772e-10
2.43125e-10
6.14644e-10
3.18012e-10
3.38291e-11
3.0224e-11
1.739e-11
1.80124e-11
9.6542e-12
5.10156e-12
3.36347e-12
2.40417e-12
1.65293e-12
1.08913e-12
7.14183e-13
4.69256e-13
3.04559e-13
1.92273e-13
1.16336e-13
6.59324e-14
3.35424e-14
1.40882e-14
4.02171e-15
3.94282e-16
4.88193e-18
1.43934e-15
1.00006e-14
3.44596e-14
8.73516e-14
1.86428e-13
3.56766e-13
6.33548e-13
1.06613e-12
1.72298e-12
2.69881e-12
4.12255e-12
6.16761e-12
9.0611e-12
1.30929e-11
1.86105e-11
2.60183e-11
3.56951e-11
4.80292e-11
6.31168e-11
8.12084e-11
1.02065e-10
1.26962e-10
1.57523e-10
2.00664e-10
2.67018e-10
1.30749e-10
2.32265e-10
5.06403e-10
3.38173e-10
3.20133e-11
3.01989e-11
1.66736e-11
1.8209e-11
1.05445e-11
5.48482e-12
3.54892e-12
2.53664e-12
1.75906e-12
1.15839e-12
7.52704e-13
4.88833e-13
3.13099e-13
1.94304e-13
1.14779e-13
6.28229e-14
3.02669e-14
1.15364e-14
2.64468e-15
1.02584e-16
1.24744e-16
3.59435e-15
1.83621e-14
5.60763e-14
1.33392e-13
2.7388e-13
5.10805e-13
8.90822e-13
1.47935e-12
2.36725e-12
3.68047e-12
5.5908e-12
8.33108e-12
1.2207e-11
1.76166e-11
2.50393e-11
3.50618e-11
4.82558e-11
6.5292e-11
8.65186e-11
1.12657e-10
1.43892e-10
1.82625e-10
2.31682e-10
3.01363e-10
4.05835e-10
9.35814e-11
2.20289e-10
4.11844e-10
3.47656e-10
3.2617e-11
2.91031e-11
1.61601e-11
1.80123e-11
1.14039e-11
5.88291e-12
3.72423e-12
2.65094e-12
1.85267e-12
1.22033e-12
7.85126e-13
5.02912e-13
3.17087e-13
1.92849e-13
1.10726e-13
5.80992e-14
2.61445e-14
8.75972e-15
1.44171e-15
3.58474e-18
6.92844e-16
7.95041e-15
3.24748e-14
8.97896e-14
2.02091e-13
4.0078e-13
7.30138e-13
1.25229e-12
2.05437e-12
3.25759e-12
5.0305e-12
7.60358e-12
1.12919e-11
1.65108e-11
2.38112e-11
3.38632e-11
4.75197e-11
6.56502e-11
8.93608e-11
1.1943e-10
1.57342e-10
2.04008e-10
2.63582e-10
3.40556e-10
4.49755e-10
6.08304e-10
6.60667e-11
2.0593e-10
3.31548e-10
3.456e-10
3.56039e-11
2.7009e-11
1.58432e-11
1.74463e-11
1.21716e-11
6.29048e-12
3.88595e-12
2.74247e-12
1.92821e-12
1.27121e-12
8.09185e-13
5.09968e-13
3.15504e-13
1.87317e-13
1.03929e-13
5.17585e-14
2.13286e-14
5.97129e-15
5.5935e-16
1.05723e-17
2.36644e-15
1.61766e-14
5.57303e-14
1.41782e-13
3.04003e-13
5.84354e-13
1.04201e-12
1.76001e-12
2.85503e-12
4.48964e-12
6.89079e-12
1.037e-11
1.53568e-11
2.24206e-11
3.23298e-11
4.60312e-11
6.47678e-11
8.98637e-11
1.23091e-10
1.65921e-10
2.21033e-10
2.90469e-10
3.80926e-10
4.98847e-10
6.64114e-10
8.93389e-10
4.61294e-11
1.8882e-10
2.65242e-10
3.32532e-10
4.0771e-11
2.42029e-11
1.56585e-11
1.65763e-11
1.27784e-11
6.69802e-12
4.03024e-12
2.80718e-12
1.98009e-12
1.30696e-12
8.22484e-13
5.08523e-13
3.07454e-13
1.77267e-13
9.43019e-14
4.39583e-14
1.61018e-14
3.44861e-15
9.62651e-17
2.82648e-16
6.34145e-15
3.09644e-14
9.3299e-14
2.21177e-13
4.5438e-13
8.49164e-13
1.48489e-12
2.47308e-12
3.97068e-12
6.197e-12
9.45957e-12
1.41824e-11
2.09554e-11
3.05663e-11
4.40938e-11
6.28879e-11
8.8763e-11
1.23728e-10
1.70556e-10
2.31786e-10
3.11869e-10
4.14415e-10
5.49404e-10
7.24653e-10
9.63511e-10
1.27331e-09
3.1949e-11
1.69303e-10
2.11849e-10
3.10138e-10
4.76458e-11
2.10945e-11
1.54943e-11
1.54961e-11
1.3156e-11
7.08996e-12
4.15282e-12
2.84165e-12
2.0032e-12
1.32332e-12
8.22619e-13
4.97278e-13
2.92285e-13
1.6252e-13
8.20049e-14
3.5061e-14
1.08834e-14
1.49489e-15
1.96276e-20
1.58619e-15
1.46859e-14
5.65687e-14
1.52984e-13
3.41365e-13
6.75206e-13
1.23019e-12
2.11317e-12
3.47457e-12
5.52663e-12
8.56689e-12
1.30148e-11
1.94516e-11
2.8693e-11
4.18378e-11
6.04096e-11
8.63445e-11
1.22291e-10
1.71273e-10
2.37526e-10
3.25131e-10
4.40961e-10
5.90396e-10
7.86709e-10
1.03626e-09
1.3598e-09
1.73977e-09
2.2016e-11
1.48255e-10
1.69696e-10
2.80908e-10
5.54415e-11
1.81162e-11
1.52146e-11
1.43088e-11
1.32492e-11
7.44316e-12
4.24896e-12
2.84316e-12
1.9934e-12
1.3163e-12
8.07369e-13
4.75267e-13
2.69744e-13
1.43265e-13
6.75131e-14
2.56627e-14
6.20563e-15
3.48136e-16
1.14898e-16
5.43848e-15
3.08474e-14
9.96066e-14
2.4646e-13
5.21903e-13
9.98099e-13
1.77722e-12
3.00376e-12
4.88154e-12
7.69913e-12
1.18627e-11
1.79477e-11
2.67571e-11
3.94259e-11
5.74975e-11
8.31342e-11
1.19121e-10
1.69311e-10
2.38183e-10
3.32023e-10
4.56914e-10
6.22583e-10
8.35421e-10
1.10989e-09
1.44387e-09
1.84367e-09
2.25007e-09
1.51325e-11
1.26899e-10
1.36824e-10
2.47665e-10
6.31206e-11
1.56344e-11
1.46967e-11
1.3106e-11
1.30284e-11
7.72697e-12
4.31334e-12
2.8096e-12
1.94804e-12
1.28261e-12
7.74958e-13
4.42041e-13
2.40115e-13
1.20178e-13
5.16749e-14
1.65863e-14
2.63252e-15
6.04368e-18
1.2704e-15
1.45882e-14
6.04137e-14
1.70231e-13
3.91072e-13
7.9126e-13
1.46847e-12
2.56118e-12
4.26562e-12
6.85941e-12
1.07371e-11
1.64563e-11
2.48122e-11
3.69206e-11
5.4371e-11
7.93429e-11
1.14913e-10
1.65082e-10
2.354e-10
3.3234e-10
4.64821e-10
6.41043e-10
8.73022e-10
1.16509e-09
1.52677e-09
1.93589e-09
2.37125e-09
2.72816e-09
1.03935e-11
1.06367e-10
1.11285e-10
2.13211e-10
6.95668e-11
1.38827e-11
1.38731e-11
1.19519e-11
1.24971e-11
7.90541e-12
4.33999e-12
2.73966e-12
1.86626e-12
1.22023e-12
7.24382e-13
3.97864e-13
2.04369e-13
9.44999e-14
3.5724e-14
8.80717e-15
5.83625e-16
8.10268e-17
5.61163e-15
3.37623e-14
1.12247e-13
2.8385e-13
6.12441e-13
1.19077e-12
2.15154e-12
3.6832e-12
6.05356e-12
9.64277e-12
1.49934e-11
2.28761e-11
3.43959e-11
5.11136e-11
7.52658e-11
1.0994e-10
1.5951e-10
2.29676e-10
3.28284e-10
4.64298e-10
6.49481e-10
8.93103e-10
1.20649e-09
1.58497e-09
2.02273e-09
2.46684e-09
2.86653e-09
3.08994e-09
7.14687e-12
8.7364e-11
9.13205e-11
1.79939e-10
7.38442e-11
1.29286e-11
1.27498e-11
1.08749e-11
1.16918e-11
7.94158e-12
4.32177e-12
2.63274e-12
1.74918e-12
1.12896e-12
6.55765e-13
3.4391e-13
1.64254e-13
6.80596e-14
2.12049e-14
3.26643e-15
7.10641e-18
1.51856e-15
1.71677e-14
7.07932e-14
2.00161e-13
4.63635e-13
9.48246e-13
1.78036e-12
3.14099e-12
5.28783e-12
8.58826e-12
1.35659e-11
2.09712e-11
3.18762e-11
4.78256e-11
7.10134e-11
1.04597e-10
1.52949e-10
2.22245e-10
3.20464e-10
4.5831e-10
6.47295e-10
9.01018e-10
1.2262e-09
1.62656e-09
2.07804e-09
2.55036e-09
2.96189e-09
3.24846e-09
3.27597e-09
4.92729e-12
7.03379e-11
7.54607e-11
1.49411e-10
7.5407e-11
1.27005e-11
1.14024e-11
9.86839e-12
1.06755e-11
7.80459e-12
4.25009e-12
2.48905e-12
1.59979e-12
1.01086e-12
5.70747e-13
2.82433e-13
1.22332e-13
4.31837e-14
9.75816e-15
5.02043e-16
1.79303e-16
7.77948e-15
4.30183e-14
1.38307e-13
3.45392e-13
7.44191e-13
1.45373e-12
2.64687e-12
4.57167e-12
7.58231e-12
1.21857e-11
1.91073e-11
2.9392e-11
4.45396e-11
6.67208e-11
9.90306e-11
1.45927e-10
2.13563e-10
3.10526e-10
4.476e-10
6.38467e-10
8.95938e-10
1.23176e-09
1.64259e-09
2.11435e-09
2.59619e-09
3.03648e-09
3.34494e-09
3.46401e-09
3.26239e-09
3.4067e-12
5.56088e-11
6.25746e-11
1.22393e-10
7.41566e-11
1.30372e-11
9.95415e-12
8.90457e-12
9.52428e-12
7.47681e-12
4.11548e-12
2.30988e-12
1.42295e-12
8.70486e-13
4.72808e-13
2.1688e-13
8.18866e-14
2.24358e-14
2.67935e-15
2.55622e-20
2.99927e-15
2.54674e-14
9.50588e-14
2.56232e-13
5.80235e-13
1.17692e-12
2.20974e-12
3.91622e-12
6.63805e-12
1.08648e-11
1.73002e-11
2.6956e-11
4.12958e-11
6.24294e-11
9.34184e-11
1.38631e-10
2.04329e-10
2.99045e-10
4.34342e-10
6.23885e-10
8.83119e-10
1.22215e-09
1.64317e-09
2.12251e-09
2.62148e-09
3.0688e-09
3.41065e-09
3.57027e-09
3.49766e-09
3.04633e-09
2.3613e-12
4.32829e-11
5.1861e-11
9.91472e-11
7.03932e-11
1.3718e-11
8.53755e-12
7.95222e-12
8.314e-12
6.95929e-12
3.90883e-12
2.09778e-12
1.22512e-12
7.1488e-13
3.67444e-13
1.51865e-13
4.66454e-14
8.0859e-15
1.34511e-16
8.80092e-16
1.48558e-14
6.62493e-14
1.92647e-13
4.55511e-13
9.53386e-13
1.8379e-12
3.33449e-12
5.77125e-12
9.62156e-12
1.55665e-11
2.45892e-11
3.81098e-11
5.81903e-11
8.78108e-11
1.31295e-10
1.94781e-10
2.86942e-10
4.19253e-10
6.06381e-10
8.63589e-10
1.20406e-09
1.62716e-09
2.11514e-09
2.61817e-09
3.07998e-09
3.43091e-09
3.63448e-09
3.63004e-09
3.35416e-09
2.63012e-09
1.63987e-12
3.32558e-11
4.27922e-11
7.95968e-11
6.46896e-11
1.44896e-11
7.25898e-12
6.99068e-12
7.10868e-12
6.2739e-12
3.62375e-12
1.85671e-12
1.01429e-12
5.53219e-13
2.62055e-13
9.2897e-14
2.01908e-14
1.17842e-15
1.37853e-16
8.61372e-15
4.77521e-14
1.49776e-13
3.66543e-13
7.83587e-13
1.5378e-12
2.8394e-12
5.0009e-12
8.47811e-12
1.3931e-11
2.23134e-11
3.50083e-11
5.4021e-11
8.22702e-11
1.23973e-10
1.85211e-10
2.74503e-10
4.0352e-10
5.86813e-10
8.40934e-10
1.17863e-09
1.60268e-09
2.09117e-09
2.60065e-09
3.06411e-09
3.42963e-09
3.64996e-09
3.70671e-09
3.53641e-09
3.03612e-09
2.03234e-09
1.14014e-12
2.52871e-11
3.50398e-11
6.34399e-11
5.77309e-11
1.51052e-11
6.17898e-12
6.01787e-12
5.9547e-12
5.46114e-12
3.25958e-12
1.59242e-12
7.99792e-13
3.96174e-13
1.65389e-13
4.56975e-14
4.89686e-15
9.22926e-19
4.8816e-15
3.61573e-14
1.22668e-13
3.08062e-13
6.64762e-13
1.3125e-12
2.44229e-12
4.34696e-12
7.46224e-12
1.24254e-11
2.01629e-11
3.20199e-11
4.99545e-11
7.6813e-11
1.16737e-10
1.75675e-10
2.62089e-10
3.87468e-10
5.6667e-10
8.16124e-10
1.1502e-09
1.57085e-09
2.05969e-09
2.5681e-09
3.03622e-09
3.40365e-09
3.64248e-09
3.72908e-09
3.64524e-09
3.29804e-09
2.53877e-09
1.33443e-09
7.92899e-13
1.90719e-11
2.84061e-11
5.0253e-11
5.01812e-11
1.53665e-11
5.31012e-12
5.05104e-12
4.88075e-12
4.57429e-12
2.82432e-12
1.31275e-12
5.9206e-13
2.54934e-13
8.63889e-14
1.48631e-14
1.32169e-16
2.34783e-15
2.84871e-14
1.06968e-13
2.74636e-13
5.92007e-13
1.16124e-12
2.15083e-12
3.8286e-12
6.60463e-12
1.10902e-11
1.81825e-11
2.91916e-11
4.60274e-11
7.14781e-11
1.09597e-10
1.66247e-10
2.49736e-10
3.71525e-10
5.46293e-10
7.90959e-10
1.11979e-09
1.53664e-09
2.02173e-09
2.52984e-09
2.99589e-09
3.36763e-09
3.6118e-09
3.72473e-09
3.6898e-09
3.465e-09
2.90725e-09
1.88015e-09
7.01612e-10
5.51113e-13
1.42955e-11
2.27644e-11
3.95787e-11
4.2601e-11
1.51555e-11
4.62756e-12
4.12091e-12
3.90219e-12
3.6712e-12
2.3363e-12
1.02809e-12
4.02228e-13
1.39881e-13
3.22516e-14
1.57622e-15
6.37622e-16
2.16849e-14
9.77752e-14
2.61024e-13
5.60309e-13
1.08108e-12
1.96864e-12
3.46139e-12
5.93673e-12
9.97239e-12
1.64317e-11
2.6587e-11
4.2304e-11
6.63116e-11
1.02594e-10
1.56918e-10
2.37507e-10
3.55675e-10
5.26147e-10
7.65733e-10
1.08943e-09
1.50095e-09
1.98245e-09
2.48666e-09
2.95184e-09
3.32167e-09
3.57183e-09
3.69651e-09
3.70018e-09
3.55177e-09
3.16355e-09
2.34961e-09
1.16191e-09
2.80092e-10
3.82588e-13
1.06666e-11
1.80195e-11
3.0984e-11
3.54044e-11
1.44465e-11
4.08429e-12
3.2613e-12
3.02682e-12
2.80648e-12
1.82379e-12
7.51664e-13
2.41326e-13
5.88008e-14
5.53041e-15
3.61699e-17
1.43659e-14
8.84407e-14
2.59141e-13
5.63766e-13
1.06916e-12
1.8976e-12
3.25725e-12
5.48726e-12
9.12243e-12
1.49819e-11
2.42936e-11
3.8875e-11
6.14006e-11
9.57861e-11
1.47726e-10
2.25352e-10
3.39935e-10
5.06113e-10
7.40899e-10
1.05929e-09
1.46592e-09
1.94251e-09
2.44342e-09
2.90459e-09
3.2734e-09
3.52333e-09
3.65787e-09
3.68279e-09
3.59164e-09
3.3194e-09
2.719e-09
1.65267e-09
5.64951e-10
7.87212e-11
2.65146e-13
7.93285e-12
1.40871e-11
2.40901e-11
2.8852e-11
1.32961e-11
3.62621e-12
2.49886e-12
2.25952e-12
2.02545e-12
1.32216e-12
4.99188e-13
1.18904e-13
1.43861e-14
2.14997e-17
8.38839e-15
7.52706e-14
2.56153e-13
5.89126e-13
1.11925e-12
1.93995e-12
3.22785e-12
5.28292e-12
8.5904e-12
1.39128e-11
2.24192e-11
3.58688e-11
5.68748e-11
8.92897e-11
1.38736e-10
2.13293e-10
3.24182e-10
4.86108e-10
7.16137e-10
1.02969e-09
1.43143e-09
1.9039e-09
2.40042e-09
2.85827e-09
3.22314e-09
3.47282e-09
3.61049e-09
3.65154e-09
3.59548e-09
3.40924e-09
2.97564e-09
2.11313e-09
9.48791e-10
2.05827e-10
1.22439e-11
1.8342e-13
5.88459e-12
1.0884e-11
1.85814e-11
2.3078e-11
1.18164e-11
3.20564e-12
1.84875e-12
1.605e-12
1.3609e-12
8.6884e-13
2.87494e-13
4.08137e-14
7.09737e-16
4.95373e-15
6.23838e-14
2.4495e-13
6.14015e-13
1.20991e-12
2.08936e-12
3.38483e-12
5.35288e-12
8.42799e-12
1.33084e-11
2.10883e-11
3.34475e-11
5.29225e-11
8.32898e-11
1.30106e-10
2.01394e-10
3.08387e-10
4.65864e-10
6.91174e-10
1e-09
1.39756e-09
1.8661e-09
2.35923e-09
2.81281e-09
3.17414e-09
3.42067e-09
3.56022e-09
3.60947e-09
3.57895e-09
3.44891e-09
3.14401e-09
2.48723e-09
1.39714e-09
4.21396e-10
5.13579e-11
2.73952e-13
1.26683e-13
4.35499e-12
8.31895e-12
1.4201e-11
1.81259e-11
1.0144e-11
2.7901e-12
1.31488e-12
1.06776e-12
8.32121e-13
4.97089e-13
1.31439e-13
5.7268e-15
1.97637e-15
5.22409e-14
2.32586e-13
6.26977e-13
1.30511e-12