/*--------------------------------*- C++ -*----------------------------------*\
  =========                 |
  \\      /  F ield         | OpenFOAM: The Open Source CFD Toolbox
   \\    /   O peration     | Website:  https://openfoam.org
    \\  /    A nd           | Version:  7
     \\/     M anipulation  |
\*---------------------------------------------------------------------------*/
FoamFile
{
    version     2.0;
    format      ascii;
    class       volScalarField;
    location    "0.27";
    object      p;
}
// * * * * * * * * * * * * * * * * * * * * * * * * * * * * * * * * * * * * * //

dimensions      [0 2 -2 0 0 0 0];

internalField   nonuniform List<scalar> 
70000
(
0.116091
0.0386457
0.0261449
0.0286173
0.0288222
0.0278084
0.0269206
0.0262705
0.0257478
0.025305
0.0249291
0.0246124
0.0243475
0.0241282
0.0239493
0.0238068
0.0236976
0.0236191
0.0235692
0.0235465
0.0235498
0.0235782
0.023631
0.0237078
0.0238083
0.0239324
0.0240801
0.0242515
0.0244468
0.0246662
0.02491
0.0251783
0.0254715
0.0257896
0.0261327
0.0265003
0.0268922
0.0273073
0.0277442
0.0282013
0.0286743
0.0291625
0.0296539
0.0301552
0.0306313
0.0311197
0.031516
0.0319656
0.0321563
0.0325217
0.111722
0.0390125
0.0263479
0.028713
0.0288769
0.0278446
0.026949
0.026294
0.0257675
0.0253219
0.0249439
0.0246254
0.0243592
0.0241388
0.023959
0.0238157
0.0237058
0.0236267
0.0235764
0.0235533
0.0235562
0.0235843
0.0236368
0.0237133
0.0238136
0.0239375
0.0240851
0.0242564
0.0244515
0.0246708
0.0249145
0.0251829
0.025476
0.0257941
0.0261372
0.0265049
0.0268969
0.027312
0.027749
0.0282062
0.0286794
0.0291678
0.0296593
0.0301609
0.0306371
0.0311257
0.0315221
0.031971
0.0321646
0.0325631
0.108142
0.0399522
0.0266881
0.028842
0.0289511
0.0278894
0.0269813
0.0263202
0.0257894
0.0253405
0.0249599
0.0246395
0.0243718
0.0241501
0.0239693
0.0238252
0.0237145
0.0236348
0.0235839
0.0235604
0.0235629
0.0235906
0.0236428
0.023719
0.0238191
0.0239428
0.0240901
0.0242613
0.0244563
0.0246755
0.0249191
0.0251873
0.0254805
0.0257985
0.0261416
0.0265093
0.0269013
0.0273166
0.0277537
0.028211
0.0286843
0.0291729
0.0296647
0.0301666
0.0306431
0.0311323
0.0315291
0.0319777
0.0321831
0.0326048
0.105047
0.0410537
0.0271573
0.0290157
0.0290518
0.0279468
0.0270194
0.0263501
0.0258139
0.0253609
0.0249773
0.0246546
0.0243851
0.024162
0.02398
0.0238349
0.0237235
0.023643
0.0235916
0.0235675
0.0235695
0.0235968
0.0236487
0.0237246
0.0238244
0.0239478
0.024095
0.0242659
0.0244608
0.0246798
0.0249233
0.0251914
0.0254844
0.0258024
0.0261454
0.0265131
0.0269051
0.0273204
0.0277576
0.028215
0.0286885
0.0291774
0.0296695
0.0301718
0.0306488
0.0311386
0.0315369
0.0319849
0.0322118
0.0326478
0.102088
0.0421497
0.0277226
0.0292357
0.0291858
0.0280242
0.027068
0.0263868
0.0258436
0.0253852
0.0249976
0.024672
0.0244002
0.0241753
0.0239919
0.0238456
0.0237332
0.0236519
0.0235997
0.023575
0.0235765
0.0236033
0.0236547
0.0237302
0.0238297
0.0239528
0.0240996
0.0242703
0.0244649
0.0246837
0.0249269
0.0251949
0.0254877
0.0258055
0.0261484
0.026516
0.0269079
0.0273231
0.0277603
0.0282178
0.0286914
0.0291805
0.029673
0.0301758
0.0306537
0.0311443
0.0315455
0.0319926
0.0322497
0.0326989
0.0991781
0.043188
0.0283372
0.0294821
0.0293473
0.0281232
0.0271297
0.0264325
0.0258803
0.0254151
0.0250222
0.0246927
0.024418
0.0241909
0.0240056
0.0238579
0.0237442
0.0236618
0.0236087
0.0235832
0.023584
0.0236102
0.023661
0.023736
0.023835
0.0239577
0.0241041
0.0242744
0.0244686
0.0246871
0.02493
0.0251976
0.0254902
0.0258077
0.0261503
0.0265176
0.0269093
0.0273243
0.0277614
0.0282188
0.0286924
0.0291817
0.0296746
0.0301779
0.0306571
0.0311484
0.0315544
0.0320008
0.0322949
0.0327602
0.0963129
0.04415
0.0289672
0.0297332
0.0295232
0.0282393
0.0272035
0.0264872
0.0259245
0.0254511
0.0250519
0.0247177
0.0244394
0.0242094
0.0240218
0.0238722
0.0237569
0.0236732
0.0236189
0.0235924
0.0235923
0.0236176
0.0236678
0.0237421
0.0238405
0.0239626
0.0241085
0.0242782
0.0244719
0.0246899
0.0249323
0.0251994
0.0254915
0.0258085
0.0261507
0.0265175
0.0269088
0.0273234
0.0277601
0.0282172
0.0286907
0.0291799
0.0296731
0.0301769
0.0306577
0.0311498
0.0315627
0.0320094
0.0323452
0.032831
0.0934979
0.0450274
0.0295968
0.0299772
0.0297026
0.028366
0.027286
0.0265488
0.0259749
0.0254927
0.0250865
0.0247468
0.0244643
0.024231
0.0240407
0.0238888
0.0237716
0.0236863
0.0236306
0.0236028
0.0236016
0.023626
0.0236752
0.0237487
0.0238462
0.0239676
0.0241127
0.0242817
0.0244747
0.024692
0.0249337
0.0252001
0.0254915
0.0258078
0.0261492
0.0265153
0.0269058
0.0273198
0.0277557
0.0282123
0.0286853
0.0291743
0.0296676
0.0301717
0.0306544
0.0311476
0.0315693
0.0320181
0.032398
0.0329094
0.0907391
0.0458175
0.0302208
0.0302103
0.0298794
0.0284985
0.027374
0.0266148
0.0260296
0.0255386
0.0251249
0.0247795
0.0244925
0.0242555
0.0240622
0.0239078
0.0237884
0.0237012
0.0236438
0.0236146
0.0236121
0.0236352
0.0236833
0.0237557
0.0238523
0.0239727
0.0241169
0.0242849
0.024477
0.0246934
0.0249341
0.0251996
0.0254899
0.0258052
0.0261456
0.0265106
0.0269
0.0273129
0.0277478
0.0282034
0.0286756
0.029164
0.0296572
0.0301614
0.0306463
0.0311405
0.0315729
0.0320263
0.0324507
0.032993
0.0880409
0.0465201
0.030838
0.0304319
0.0300508
0.0286341
0.0274654
0.0266833
0.0260868
0.0255871
0.0251661
0.0248148
0.0245232
0.0242824
0.0240859
0.0239288
0.023807
0.0237178
0.0236586
0.0236277
0.0236236
0.0236454
0.0236922
0.0237634
0.0238587
0.0239779
0.024121
0.0242879
0.0244789
0.024694
0.0249335
0.0251977
0.0254868
0.0258007
0.0261397
0.0265033
0.0268912
0.0273025
0.0277359
0.0281901
0.028661
0.0291483
0.0296411
0.030145
0.0306323
0.0311279
0.0315725
0.0320332
0.0325008
0.0330786
0.0854067
0.0471356
0.0314477
0.030643
0.0302152
0.0287712
0.0275593
0.0267532
0.0261454
0.0256373
0.025209
0.0248518
0.0245555
0.0243109
0.0241112
0.0239513
0.0238271
0.0237357
0.0236746
0.0236419
0.0236362
0.0236564
0.0237017
0.0237716
0.0238655
0.0239834
0.0241251
0.0242906
0.0244802
0.0246939
0.024932
0.0251946
0.025482
0.0257943
0.0261314
0.0264931
0.0268791
0.0272885
0.0277199
0.0281721
0.0286412
0.0291269
0.0296189
0.0301223
0.030612
0.0311091
0.0315669
0.032038
0.0325461
0.0331626
0.0828393
0.0476642
0.0320484
0.0308446
0.0303718
0.0289092
0.0276552
0.0268241
0.0262049
0.0256884
0.0252529
0.0248899
0.0245889
0.0243405
0.0241376
0.0239748
0.0238482
0.0237545
0.0236914
0.0236569
0.0236495
0.0236681
0.0237118
0.0237801
0.0238726
0.0239889
0.0241291
0.0242931
0.0244811
0.0246931
0.0249294
0.0251902
0.0254757
0.0257859
0.0261209
0.0264804
0.0268639
0.0272709
0.0276997
0.0281495
0.0286163
0.0290999
0.0295906
0.0300929
0.0305851
0.031084
0.0315556
0.0320398
0.0325849
0.0332416
0.0803414
0.0481066
0.0326381
0.0310379
0.0305198
0.029047
0.027753
0.0268958
0.0262648
0.0257402
0.0252976
0.0249286
0.024623
0.0243708
0.0241646
0.023999
0.0238699
0.023774
0.0237089
0.0236725
0.0236633
0.0236802
0.0237223
0.0237889
0.0238798
0.0239945
0.024133
0.0242953
0.0244815
0.0246916
0.024926
0.0251847
0.025468
0.0257758
0.0261083
0.0264651
0.0268459
0.0272499
0.0276758
0.0281226
0.0285865
0.0290674
0.0295565
0.0300574
0.0305518
0.0310529
0.0315384
0.0320379
0.0326163
0.0333127
0.0779155
0.0484634
0.0332144
0.0312242
0.0306588
0.029184
0.0278526
0.0269682
0.026325
0.0257926
0.0253428
0.0249679
0.0246576
0.0244015
0.0241921
0.0240237
0.0238921
0.0237939
0.0237267
0.0236884
0.0236773
0.0236925
0.0237329
0.0237978
0.023887
0.024
0.0241367
0.0242972
0.0244814
0.0246895
0.0249217
0.0251782
0.025459
0.0257642
0.0260939
0.0264477
0.0268253
0.027226
0.0276484
0.0280918
0.0285524
0.0290302
0.0295172
0.0300163
0.0305127
0.0310163
0.0315152
0.0320317
0.0326397
0.0333737
0.0755638
0.0487361
0.0337743
0.031405
0.0307884
0.0293191
0.0279538
0.0270413
0.0263855
0.0258453
0.0253885
0.0250077
0.0246926
0.0244327
0.02422
0.0240487
0.0239145
0.0238141
0.0237447
0.0237044
0.0236916
0.0237049
0.0237435
0.0238067
0.0238941
0.0240053
0.0241402
0.0242987
0.0244809
0.0246868
0.0249167
0.0251707
0.0254488
0.0257512
0.0260778
0.0264284
0.0268024
0.0271995
0.0276182
0.0280576
0.0285146
0.0289888
0.0294734
0.0299704
0.0304686
0.0309751
0.0314865
0.0320208
0.0326549
0.0334233
0.0732885
0.0489263
0.0343147
0.031582
0.0309083
0.0294515
0.0280565
0.0271152
0.0264462
0.0258983
0.0254346
0.0250479
0.0247279
0.0244641
0.0242481
0.0240739
0.0239372
0.0238344
0.0237629
0.0237206
0.0237059
0.0237174
0.0237542
0.0238156
0.0239011
0.0240104
0.0241433
0.0242998
0.0244798
0.0246835
0.024911
0.0251623
0.0254376
0.025737
0.0260603
0.0264073
0.0267777
0.0271708
0.0275854
0.0280207
0.0284737
0.028944
0.0294258
0.0299206
0.0304202
0.0309298
0.031453
0.0320051
0.0326621
0.0334609
0.0710912
0.049036
0.0348326
0.0317563
0.0310184
0.0295801
0.0281602
0.0271899
0.0265069
0.0259515
0.0254812
0.0250884
0.0247636
0.0244959
0.0242765
0.0240994
0.02396
0.0238549
0.0237812
0.0237369
0.0237202
0.0237298
0.0237647
0.0238242
0.0239079
0.0240153
0.0241462
0.0243005
0.0244783
0.0246796
0.0249045
0.025153
0.0254254
0.0257215
0.0260414
0.0263848
0.0267512
0.0271402
0.0275505
0.0279813
0.0284301
0.0288962
0.0293751
0.0298675
0.0303682
0.0308812
0.031415
0.0319845
0.0326615
0.0334865
0.0689731
0.0490676
0.0353248
0.0319294
0.0311188
0.0297039
0.0282647
0.0272653
0.0265677
0.0260049
0.025528
0.0251293
0.0247996
0.0245279
0.0243051
0.024125
0.023983
0.0238755
0.0237996
0.0237532
0.0237344
0.0237421
0.0237751
0.0238328
0.0239144
0.0240198
0.0241486
0.0243007
0.0244762
0.024675
0.0248972
0.0251429
0.0254122
0.025705
0.0260213
0.0263608
0.0267232
0.0271078
0.0275136
0.0279398
0.0283841
0.028846
0.0293217
0.0298116
0.0303131
0.0308295
0.031373
0.0319588
0.0326534
0.0335002
0.0669351
0.0490241
0.0357886
0.0321019
0.0312098
0.0298219
0.0283694
0.0273415
0.0266284
0.0260582
0.0255751
0.0251705
0.0248359
0.0245601
0.0243339
0.0241508
0.0240062
0.0238962
0.023818
0.0237695
0.0237487
0.0237544
0.0237854
0.023841
0.0239207
0.024024
0.0241506
0.0243005
0.0244735
0.0246698
0.0248892
0.025132
0.025398
0.0256874
0.0259999
0.0263355
0.0266936
0.0270737
0.0274749
0.0278963
0.0283361
0.0287935
0.0292659
0.0297533
0.0302553
0.030775
0.0313271
0.0319278
0.0326379
0.0335025
0.0649774
0.048909
0.0362211
0.0322744
0.0312919
0.0299331
0.028474
0.0274184
0.0266891
0.0261115
0.0256224
0.025212
0.0248724
0.0245925
0.0243629
0.0241768
0.0240294
0.0239169
0.0238365
0.0237857
0.0237628
0.0237665
0.0237955
0.0238491
0.0239267
0.0240278
0.0241522
0.0242997
0.0244703
0.0246638
0.0248804
0.0251201
0.0253828
0.0256686
0.0259773
0.0263088
0.0266624
0.027038
0.0274343
0.0278509
0.0282859
0.0287389
0.0292077
0.0296927
0.0301948
0.0307178
0.0312774
0.0318915
0.0326148
0.0334936
0.0631002
0.0487262
0.0366196
0.0324472
0.0313656
0.0300369
0.0285776
0.0274959
0.0267496
0.0261646
0.0256698
0.0252536
0.024909
0.0246251
0.024392
0.0242029
0.0240527
0.0239377
0.0238549
0.0238019
0.0237769
0.0237784
0.0238054
0.0238568
0.0239323
0.0240312
0.0241533
0.0242983
0.0244663
0.0246571
0.0248707
0.0251072
0.0253665
0.0256486
0.0259534
0.0262806
0.0266297
0.0270005
0.027392
0.0278035
0.0282337
0.028682
0.0291472
0.0296297
0.0301316
0.0306574
0.0312237
0.0318493
0.0325839
0.0334734
0.0613029
0.0484801
0.0369816
0.03262
0.0314316
0.0301324
0.0286796
0.027574
0.0268099
0.0262173
0.0257171
0.0252954
0.0249459
0.0246578
0.0244212
0.024229
0.0240761
0.0239585
0.0238733
0.023818
0.0237908
0.0237902
0.023815
0.0238643
0.0239375
0.0240341
0.0241538
0.0242964
0.0244616
0.0246496
0.0248601
0.0250933
0.0253491
0.0256274
0.025928
0.0262508
0.0265954
0.0269613
0.0273477
0.027754
0.0281793
0.0286229
0.0290843
0.0295641
0.0300655
0.0305938
0.0311657
0.0318011
0.0325448
0.0334419
0.0595847
0.0481753
0.0373049
0.0327924
0.0314908
0.0302191
0.0287793
0.0276524
0.0268701
0.0262696
0.0257643
0.0253373
0.0249828
0.0246906
0.0244505
0.0242552
0.0240994
0.0239793
0.0238916
0.023834
0.0238046
0.0238017
0.0238243
0.0238714
0.0239423
0.0240366
0.0241538
0.0242937
0.0244562
0.0246412
0.0248486
0.0250784
0.0253305
0.0256048
0.0259012
0.0262195
0.0265593
0.0269201
0.0273014
0.0277025
0.0281226
0.0285614
0.0290188
0.0294958
0.0299964
0.0305266
0.0311031
0.0317463
0.0324971
0.0333987
0.0579443
0.0478168
0.0375875
0.0329635
0.0315441
0.0302966
0.0288757
0.0277309
0.02693
0.0263213
0.0258112
0.0253791
0.0250197
0.0247234
0.0244798
0.0242814
0.0241228
0.024
0.0239098
0.0238499
0.0238181
0.023813
0.0238333
0.0238781
0.0239467
0.0240385
0.0241531
0.0242903
0.02445
0.0246319
0.024836
0.0250622
0.0253106
0.0255808
0.0258729
0.0261865
0.0265214
0.026877
0.027253
0.0276486
0.0280635
0.0284973
0.0289506
0.0294246
0.0299239
0.0304554
0.0310353
0.0316845
0.0324403
0.0333435
0.0563802
0.0474101
0.0378277
0.0331318
0.0315923
0.0303647
0.028968
0.0278091
0.0269897
0.0263724
0.0258577
0.0254209
0.0250567
0.0247561
0.0245091
0.0243075
0.024146
0.0240206
0.0239279
0.0238656
0.0238314
0.023824
0.023842
0.0238844
0.0239505
0.0240398
0.0241518
0.0242862
0.0244428
0.0246216
0.0248223
0.0250449
0.0252893
0.0255554
0.0258429
0.0261518
0.0264815
0.0268319
0.0272023
0.0275924
0.0280019
0.0284306
0.0288794
0.0293501
0.0298478
0.0303797
0.030962
0.0316153
0.0323738
0.0332757
0.0548904
0.0469605
0.0380243
0.0332959
0.0316365
0.0304235
0.0290553
0.0278868
0.0270491
0.0264227
0.0259037
0.0254624
0.0250935
0.0247888
0.0245382
0.0243336
0.0241692
0.024041
0.0239458
0.023881
0.0238445
0.0238346
0.0238502
0.0238902
0.0239538
0.0240404
0.0241497
0.0242812
0.0244348
0.0246102
0.0248074
0.0250262
0.0252666
0.0255283
0.0258112
0.0261151
0.0264397
0.0267845
0.0271493
0.0275337
0.0279375
0.0283609
0.0288051
0.0292722
0.0297676
0.0302993
0.0308826
0.0315381
0.032297
0.0331949
0.0534727
0.0464736
0.0381764
0.0334535
0.0316776
0.030473
0.0291369
0.0279633
0.0271082
0.0264722
0.025949
0.0255036
0.0251302
0.0248214
0.0245672
0.0243595
0.0241922
0.0240613
0.0239635
0.0238962
0.0238572
0.0238449
0.023858
0.0238955
0.0239565
0.0240404
0.0241468
0.0242753
0.0244257
0.0245978
0.0247913
0.0250062
0.0252424
0.0254996
0.0257777
0.0260765
0.0263956
0.0267348
0.0270938
0.0274723
0.0278703
0.0282882
0.0287274
0.0291906
0.0296832
0.0302136
0.0307967
0.0314524
0.0322095
0.0331006
0.0521248
0.0459551
0.0382836
0.0336026
0.0317162
0.0305137
0.0292118
0.0280381
0.0271668
0.0265208
0.0259934
0.0255444
0.0251666
0.0248537
0.0245961
0.0243851
0.024215
0.0240813
0.0239809
0.023911
0.0238695
0.0238547
0.0238653
0.0239001
0.0239585
0.0240396
0.0241431
0.0242685
0.0244156
0.0245841
0.0247739
0.0249847
0.0252165
0.0254691
0.0257423
0.0260358
0.0263494
0.0266827
0.0270357
0.027408
0.0278
0.0282121
0.0286461
0.0291048
0.029594
0.0301222
0.0307038
0.0313577
0.0321106
0.032992
0.0508438
0.0454104
0.0383459
0.0337406
0.0317531
0.0305461
0.0292794
0.0281106
0.0272249
0.0265684
0.0260369
0.0255845
0.0252027
0.0248858
0.0246246
0.0244106
0.0242375
0.0241011
0.023998
0.0239255
0.0238814
0.023864
0.023872
0.0239042
0.0239597
0.024038
0.0241384
0.0242606
0.0244043
0.0245691
0.024755
0.0249617
0.025189
0.0254368
0.0257048
0.0259929
0.0263007
0.0266281
0.0269748
0.0273408
0.0277265
0.0281326
0.0285609
0.0290147
0.0294998
0.0300247
0.0306033
0.0312535
0.0319997
0.0328689
0.049627
0.044845
0.0383641
0.0338649
0.0317885
0.0305708
0.0293391
0.02818
0.0272821
0.0266151
0.0260792
0.0256239
0.0252383
0.0249174
0.0246528
0.0244356
0.0242597
0.0241205
0.0240147
0.0239395
0.0238928
0.0238728
0.0238781
0.0239075
0.0239602
0.0240355
0.0241328
0.0242517
0.0243918
0.0245528
0.0247347
0.024937
0.0251597
0.0254025
0.0256652
0.0259476
0.0262495
0.0265707
0.026911
0.0272705
0.0276496
0.0280493
0.0284716
0.0289199
0.0294001
0.0299207
0.0304948
0.0311393
0.0318765
0.0327306
0.0484715
0.0442638
0.0383393
0.0339731
0.0318225
0.0305885
0.0293907
0.0282457
0.0273382
0.0266607
0.0261203
0.0256623
0.0252733
0.0249487
0.0246805
0.0244603
0.0242814
0.0241394
0.0240309
0.0239531
0.0239037
0.023881
0.0238835
0.0239101
0.0239599
0.0240321
0.0241261
0.0242415
0.024378
0.0245351
0.0247127
0.0249106
0.0251284
0.0253661
0.0256234
0.0259
0.0261957
0.0265104
0.0268441
0.0271967
0.027569
0.027962
0.0283779
0.0288201
0.0292945
0.0298096
0.0303778
0.0310146
0.0317404
0.0325767
0.047374
0.0436716
0.0382729
0.0340631
0.0318547
0.0306
0.0294337
0.028307
0.0273929
0.0267051
0.02616
0.0256997
0.0253076
0.0249793
0.0247077
0.0244844
0.0243027
0.0241579
0.0240466
0.023966
0.0239139
0.0238885
0.0238882
0.0239119
0.0239586
0.0240276
0.0241182
0.0242301
0.0243627
0.0245158
0.0246891
0.0248823
0.0250952
0.0253276
0.0255791
0.0258497
0.0261391
0.0264472
0.0267739
0.0271195
0.0274846
0.0278705
0.0282794
0.0287149
0.0291828
0.0296912
0.0302517
0.0308789
0.031591
0.0324068
0.0463317
0.0430727
0.0381673
0.0341331
0.0318843
0.030606
0.0294682
0.028363
0.0274456
0.0267482
0.0261983
0.0257357
0.025341
0.0250093
0.0247344
0.024508
0.0243234
0.0241758
0.0240617
0.0239784
0.0239235
0.0238952
0.023892
0.0239127
0.0239563
0.024022
0.0241092
0.0242174
0.0243461
0.024495
0.0246637
0.0248521
0.0250599
0.0252867
0.0255324
0.0257968
0.0260796
0.0263807
0.0267003
0.0270386
0.0273962
0.0277745
0.0281759
0.028604
0.0290644
0.0295648
0.0301163
0.0307318
0.0314278
0.0322205
0.0453413
0.0424707
0.0380247
0.0341813
0.0319105
0.030607
0.0294943
0.0284132
0.0274961
0.02679
0.0262349
0.0257704
0.0253734
0.0250385
0.0247603
0.0245309
0.0243435
0.0241931
0.0240762
0.02399
0.0239323
0.0239012
0.023895
0.0239126
0.0239529
0.0240152
0.0240988
0.0242032
0.0243278
0.0244724
0.0246365
0.0248199
0.0250223
0.0252434
0.0254831
0.025741
0.026017
0.026311
0.0266231
0.0269537
0.0273034
0.0276738
0.0280671
0.028487
0.028939
0.0294302
0.0299709
0.0305728
0.0312504
0.0320177
0.0443999
0.0418692
0.0378482
0.0342066
0.031932
0.0306036
0.0295121
0.028457
0.0275436
0.0268302
0.0262699
0.0258034
0.0254045
0.0250668
0.0247854
0.024553
0.0243628
0.0242096
0.0240899
0.0240009
0.0239403
0.0239062
0.0238969
0.0239114
0.0239484
0.0240072
0.0240871
0.0241875
0.0243079
0.0244479
0.0246072
0.0247855
0.0249824
0.0251976
0.0254309
0.0256822
0.0259511
0.0262377
0.0265421
0.0268647
0.0272062
0.0275681
0.0279527
0.0283637
0.0288061
0.0292869
0.0298152
0.0304016
0.0310586
0.031798
0.0435044
0.0412709
0.0376408
0.0342081
0.0319473
0.030596
0.0295222
0.0284938
0.0275876
0.0268685
0.0263032
0.0258347
0.0254342
0.025094
0.0248096
0.0245743
0.0243812
0.0242252
0.0241027
0.0240109
0.0239474
0.0239102
0.0238979
0.023909
0.0239426
0.0239978
0.0240738
0.0241701
0.0242862
0.0244216
0.0245759
0.0247488
0.0249399
0.0251491
0.0253759
0.0256203
0.0258819
0.0261608
0.0264572
0.0267713
0.0271041
0.027457
0.0278324
0.0282336
0.0286655
0.0291345
0.0296487
0.0302177
0.0308521
0.0315614
0.0426519
0.0406782
0.0374057
0.0341853
0.0319549
0.0305846
0.0295247
0.0285233
0.0276275
0.0269048
0.0263345
0.0258641
0.0254624
0.02512
0.0248327
0.0245945
0.0243987
0.02424
0.0241147
0.0240199
0.0239534
0.0239132
0.0238976
0.0239054
0.0239355
0.0239869
0.024059
0.024151
0.0242626
0.0243932
0.0245423
0.0247097
0.0248949
0.0250978
0.0253179
0.025555
0.0258091
0.0260801
0.026368
0.0266734
0.0269971
0.0273405
0.0277058
0.0280964
0.0285167
0.0289725
0.0294712
0.0300209
0.0306305
0.0313078
0.0418397
0.0400933
0.0371463
0.0341382
0.0319534
0.0305692
0.0295204
0.0285454
0.0276628
0.0269385
0.0263638
0.0258915
0.0254888
0.0251445
0.0248547
0.0246136
0.0244151
0.0242536
0.0241255
0.0240279
0.0239583
0.0239149
0.0238961
0.0239004
0.0239269
0.0239745
0.0240424
0.0241301
0.024237
0.0243626
0.0245064
0.024668
0.0248472
0.0250435
0.0252566
0.0254864
0.0257326
0.0259952
0.0262745
0.0265707
0.0268847
0.0272181
0.0275727
0.0279518
0.0283594
0.0288008
0.0292823
0.0298109
0.0303939
0.0310371
0.0410651
0.0395176
0.0368658
0.0340672
0.0319412
0.0305495
0.0295095
0.0285598
0.0276928
0.0269694
0.026391
0.0259167
0.0255132
0.0251675
0.0248753
0.0246315
0.0244303
0.0242662
0.0241352
0.0240346
0.023962
0.0239154
0.0238932
0.023894
0.0239167
0.0239603
0.0240241
0.0241073
0.0242094
0.0243298
0.024468
0.0246238
0.0247966
0.0249861
0.025192
0.0254141
0.0256522
0.0259062
0.0261763
0.026463
0.0267669
0.0270895
0.0274328
0.0277995
0.0281933
0.0286189
0.0290818
0.0295876
0.0301422
0.0307495
0.0403256
0.0389524
0.0365674
0.0339728
0.031917
0.0305252
0.0294924
0.0285666
0.0277172
0.0269969
0.0264157
0.0259396
0.0255354
0.0251887
0.0248943
0.0246481
0.0244442
0.0242774
0.0241437
0.0240401
0.0239644
0.0239146
0.0238889
0.0238861
0.0239049
0.0239445
0.0240038
0.0240824
0.0241794
0.0242945
0.0244271
0.0245767
0.0247429
0.0249255
0.0251239
0.0253381
0.0255677
0.0258128
0.0260734
0.02635
0.0266434
0.0269547
0.0272857
0.0276391
0.0280181
0.0284266
0.0288693
0.0293508
0.0298752
0.0304453
0.0396188
0.0383987
0.0362541
0.0338561
0.0318799
0.0304955
0.0294696
0.028566
0.0277354
0.0270207
0.0264378
0.02596
0.0255554
0.0252078
0.0249118
0.0246631
0.0244566
0.0242872
0.0241507
0.0240442
0.0239653
0.0239122
0.023883
0.0238765
0.0238914
0.0239267
0.0239816
0.0240553
0.0241472
0.0242567
0.0243834
0.0245267
0.0246862
0.0248614
0.0250522
0.0252581
0.025479
0.0257147
0.0259655
0.0262316
0.0265138
0.0268132
0.0271313
0.0274705
0.0278335
0.0282237
0.0286448
0.0291003
0.0295932
0.0301245
0.0389427
0.037857
0.0359287
0.0337183
0.0318289
0.0304598
0.0294411
0.028558
0.0277471
0.0270402
0.026457
0.0259778
0.0255729
0.0252248
0.0249273
0.0246764
0.0244675
0.0242954
0.0241562
0.0240467
0.0239647
0.0239082
0.0238754
0.0238651
0.0238759
0.0239069
0.0239571
0.0240259
0.0241125
0.0242163
0.0243369
0.0244736
0.0246261
0.0247939
0.0249766
0.025174
0.0253858
0.0256119
0.0258524
0.0261076
0.0263781
0.0266648
0.0269692
0.0272933
0.0276393
0.02801
0.0284082
0.0288364
0.0292963
0.0297878
0.038295
0.0373277
0.0355936
0.0335609
0.0317635
0.0304173
0.029407
0.028543
0.0277521
0.027055
0.026473
0.0259929
0.0255877
0.0252394
0.0249408
0.0246879
0.0244766
0.024302
0.02416
0.0240476
0.0239624
0.0239024
0.023866
0.0238518
0.0238584
0.0238849
0.0239304
0.023994
0.0240751
0.0241731
0.0242873
0.0244173
0.0245625
0.0247226
0.0248971
0.0250856
0.025288
0.0255041
0.0257339
0.0259776
0.0262359
0.0265094
0.0267993
0.0271073
0.0274353
0.0277852
0.0281593
0.0285589
0.0289847
0.0294354
0.037674
0.0368111
0.0352512
0.0333856
0.0316835
0.0303671
0.0293673
0.0285211
0.0277502
0.0270646
0.0264854
0.026005
0.0255997
0.0252515
0.024952
0.0246974
0.0244838
0.0243067
0.024162
0.0240466
0.0239582
0.0238948
0.0238547
0.0238364
0.0238388
0.0238607
0.0239012
0.0239596
0.024035
0.0241269
0.0242347
0.0243577
0.0244954
0.0246475
0.0248134
0.0249928
0.0251855
0.0253911
0.0256098
0.0258416
0.026087
0.0263466
0.0266213
0.0269124
0.0272213
0.0275495
0.0278982
0.0282682
0.0286589
0.029068
0.0370779
0.0363072
0.0349034
0.0331939
0.0315888
0.0303086
0.0293217
0.0284924
0.0277413
0.0270687
0.0264939
0.0260139
0.0256088
0.0252607
0.0249607
0.0247047
0.024489
0.0243094
0.0241621
0.0240437
0.0239521
0.0238851
0.0238412
0.0238189
0.0238169
0.0238341
0.0238695
0.0239225
0.0239921
0.0240777
0.0241787
0.0242945
0.0244245
0.0245683
0.0247254
0.0248954
0.025078
0.0252728
0.02548
0.0256994
0.0259314
0.0261764
0.0264351
0.0267084
0.0269973
0.0273027
0.0276251
0.0279643
0.0283191
0.0286862
0.0365049
0.0358159
0.0345519
0.0329877
0.0314795
0.0302411
0.0292701
0.0284573
0.0277255
0.0270669
0.026498
0.0260193
0.0256147
0.025267
0.0249668
0.0247095
0.0244919
0.02431
0.02416
0.0240387
0.0239438
0.0238733
0.0238256
0.0237991
0.0237925
0.0238049
0.0238352
0.0238825
0.0239461
0.0240253
0.0241193
0.0242277
0.0243498
0.024485
0.024633
0.0247932
0.0249653
0.025149
0.0253442
0.0255507
0.0257687
0.0259985
0.0262405
0.0264952
0.0267633
0.0270449
0.02734
0.0276478
0.0279659
0.0282907
0.0359537
0.035337
0.0341984
0.0327685
0.0313563
0.030164
0.0292121
0.0284157
0.0277028
0.0270591
0.0264974
0.026021
0.0256172
0.0252702
0.02497
0.0247118
0.0244924
0.0243082
0.0241556
0.0240315
0.0239333
0.0238592
0.0238075
0.0237768
0.0237656
0.023773
0.0237979
0.0238395
0.0238969
0.0239694
0.0240564
0.0241571
0.024271
0.0243974
0.024536
0.0246861
0.0248474
0.0250196
0.0252023
0.0253954
0.0255989
0.0258128
0.0260374
0.0262728
0.0265191
0.0267762
0.0270433
0.0273188
0.0276
0.0278824
0.0354227
0.0348702
0.033844
0.0325381
0.0312195
0.030077
0.0291474
0.0283677
0.0276732
0.0270448
0.0264918
0.0260187
0.0256162
0.02527
0.02497
0.0247112
0.0244903
0.024304
0.0241488
0.0240218
0.0239203
0.0238426
0.023787
0.0237518
0.023736
0.0237383
0.0237578
0.0237934
0.0238444
0.0239101
0.0239897
0.0240825
0.024188
0.0243054
0.0244342
0.024574
0.0247241
0.0248843
0.0250541
0.0252333
0.0254218
0.0256193
0.0258258
0.0260412
0.026265
0.0264968
0.0267352
0.026978
0.027222
0.0274621
0.0349108
0.0344153
0.0334898
0.032298
0.0310701
0.0299798
0.0290754
0.0283133
0.0276367
0.0270241
0.0264808
0.0260121
0.0256114
0.0252663
0.0249668
0.0247076
0.0244853
0.024297
0.0241394
0.0240095
0.0239048
0.0238234
0.0237637
0.0237242
0.0237035
0.0237006
0.0237144
0.023744
0.0237885
0.0238471
0.0239192
0.0240039
0.0241006
0.0242087
0.0243275
0.0244566
0.0245952
0.0247431
0.0248996
0.0250645
0.0252373
0.0254179
0.0256057
0.0258003
0.0260011
0.026207
0.0264161
0.026626
0.0268326
0.0270308
0.0344166
0.0339718
0.0331367
0.0320496
0.0309087
0.0298723
0.0289961
0.0282524
0.0275935
0.0269968
0.0264642
0.0260009
0.0256026
0.0252589
0.0249601
0.0247007
0.0244774
0.0242872
0.0241271
0.0239944
0.0238865
0.0238014
0.0237376
0.0236936
0.023668
0.0236598
0.0236678
0.0236912
0.023729
0.0237804
0.0238446
0.023921
0.0240088
0.0241073
0.0242158
0.0243338
0.0244607
0.0245958
0.0247386
0.0248887
0.0250455
0.0252085
0.025377
0.0255504
0.0257276
0.025907
0.0260866
0.0262632
0.0264327
0.0265895
0.0339391
0.0335394
0.0327855
0.0317942
0.0307363
0.0297546
0.0289089
0.0281848
0.0275436
0.0269628
0.0264417
0.0259847
0.0255895
0.0252475
0.0249497
0.0246904
0.0244661
0.0242743
0.0241119
0.0239764
0.0238652
0.0237765
0.0237085
0.0236599
0.0236294
0.0236157
0.0236178
0.0236348
0.0236657
0.0237097
0.0237659
0.0238337
0.0239123
0.024001
0.024099
0.0242056
0.0243203
0.0244424
0.0245711
0.0247059
0.0248462
0.0249912
0.02514
0.0252916
0.0254447
0.0255974
0.0257471
0.0258906
0.0260233
0.0261394
0.0334772
0.0331178
0.0324367
0.0315331
0.0305538
0.0296269
0.0288137
0.0281105
0.027487
0.0269221
0.0264131
0.0259634
0.025572
0.025232
0.0249354
0.0246764
0.0244515
0.0242581
0.0240935
0.0239552
0.0238408
0.0237483
0.0236762
0.023623
0.0235874
0.0235681
0.0235642
0.0235746
0.0235985
0.0236349
0.023683
0.023742
0.0238112
0.0238897
0.0239768
0.0240719
0.0241741
0.0242827
0.024397
0.0245162
0.0246395
0.024766
0.0248947
0.0250242
0.0251528
0.0252785
0.0253984
0.0255089
0.0256052
0.0256816
0.03303
0.0327065
0.0320909
0.0312673
0.0303621
0.0294896
0.0287104
0.0280293
0.0274237
0.0268748
0.0263782
0.0259365
0.0255496
0.0252122
0.024917
0.0246585
0.0244332
0.0242384
0.0240717
0.0239307
0.0238131
0.0237169
0.0236406
0.0235827
0.0235418
0.0235169
0.0235069
0.0235106
0.0235272
0.0235558
0.0235956
0.0236456
0.0237051
0.0237733
0.0238493
0.0239325
0.0240219
0.0241168
0.0242163
0.0243195
0.0244255
0.0245332
0.0246413
0.0247483
0.0248523
0.0249509
0.025041
0.0251189
0.0251796
0.0252174
0.0325965
0.0323051
0.0317484
0.0309978
0.0301621
0.0293429
0.028599
0.027941
0.0273536
0.0268207
0.0263369
0.025904
0.0255223
0.0251878
0.0248943
0.0246366
0.024411
0.024215
0.0240463
0.0239027
0.0237819
0.023682
0.0236014
0.0235388
0.0234927
0.023462
0.0234456
0.0234426
0.0234518
0.0234725
0.0235036
0.0235445
0.0235941
0.0236517
0.0237164
0.0237874
0.0238637
0.0239445
0.0240289
0.0241159
0.0242042
0.0242928
0.0243802
0.0244645
0.0245437
0.0246153
0.0246759
0.0247216
0.0247475
0.0247479
0.032176
0.0319132
0.0314094
0.0307255
0.0299548
0.0291875
0.0284793
0.0278456
0.0272768
0.0267598
0.0262891
0.0258655
0.0254896
0.0251586
0.0248671
0.0246103
0.0243847
0.0241877
0.0240172
0.023871
0.023747
0.0236434
0.0235586
0.0234911
0.0234397
0.0234031
0.0233804
0.0233703
0.0233721
0.0233846
0.023407
0.0234385
0.023478
0.0235248
0.0235779
0.0236365
0.0236995
0.0237661
0.0238351
0.0239054
0.0239759
0.0240452
0.0241115
0.0241731
0.0242276
0.0242723
0.0243037
0.024318
0.0243101
0.0242746
0.0317675
0.0315304
0.0310743
0.030451
0.029741
0.0290237
0.0283516
0.0277429
0.0271932
0.0266922
0.0262348
0.025821
0.0254515
0.0251243
0.0248352
0.0245796
0.0243541
0.0241563
0.023984
0.0238354
0.0237083
0.023601
0.0235118
0.0234395
0.0233827
0.0233402
0.0233109
0.0232938
0.0232879
0.0232921
0.0233057
0.0233275
0.0233568
0.0233926
0.0234339
0.0234798
0.0235293
0.0235813
0.0236347
0.0236883
0.0237408
0.0237905
0.0238358
0.0238746
0.0239045
0.0239226
0.0239255
0.0239091
0.0238686
0.0237987
0.0313705
0.0311563
0.0307431
0.030175
0.0295214
0.0288522
0.028216
0.027633
0.0271028
0.0266179
0.0261738
0.0257702
0.0254077
0.0250849
0.0247983
0.0245441
0.024319
0.0241205
0.0239467
0.0237957
0.0236655
0.0235545
0.0234611
0.0233838
0.0233216
0.023273
0.0232371
0.0232128
0.0231991
0.023195
0.0231994
0.0232116
0.0232304
0.023255
0.0232844
0.0233174
0.0233532
0.0233905
0.0234281
0.0234648
0.023499
0.0235292
0.0235535
0.0235696
0.0235752
0.0235672
0.0235421
0.023496
0.0234242
0.0233215
0.0309842
0.0307906
0.030416
0.0298982
0.0292969
0.0286735
0.0280728
0.0275159
0.0270055
0.0265368
0.0261062
0.0257131
0.025358
0.0250399
0.0247564
0.0245038
0.0242792
0.0240802
0.023905
0.0237517
0.0236185
0.0235038
0.0234061
0.0233239
0.0232561
0.0232015
0.0231589
0.0231273
0.0231057
0.023093
0.0230883
0.0230905
0.0230988
0.023112
0.0231292
0.0231493
0.0231712
0.0231936
0.0232153
0.023235
0.023251
0.0232616
0.0232649
0.0232587
0.0232403
0.0232067
0.0231546
0.0230799
0.0229782
0.0228445
0.0306079
0.0304328
0.030093
0.0296209
0.029068
0.0284882
0.0279222
0.0273915
0.0269013
0.026449
0.026032
0.0256495
0.0253022
0.0249894
0.0247091
0.0244584
0.0242345
0.0240352
0.0238587
0.0237032
0.023567
0.0234487
0.0233467
0.0232596
0.0231863
0.0231255
0.0230761
0.0230371
0.0230075
0.0229861
0.0229721
0.0229643
0.0229619
0.0229636
0.0229685
0.0229755
0.0229834
0.0229909
0.0229966
0.0229992
0.022997
0.0229883
0.0229709
0.0229425
0.0229007
0.0228423
0.022764
0.0226619
0.0225318
0.0223691
0.0302411
0.0300825
0.0297741
0.0293436
0.0288354
0.0282968
0.0277647
0.0272602
0.0267902
0.0263544
0.025951
0.0255794
0.0252402
0.024933
0.0246563
0.0244078
0.0241848
0.0239853