/*--------------------------------*- C++ -*----------------------------------*\
  =========                 |
  \\      /  F ield         | OpenFOAM: The Open Source CFD Toolbox
   \\    /   O peration     | Website:  https://openfoam.org
    \\  /    A nd           | Version:  7
     \\/     M anipulation  |
\*---------------------------------------------------------------------------*/
FoamFile
{
    version     2.0;
    format      ascii;
    class       surfaceScalarField;
    location    "0.27";
    object      phi;
}
// * * * * * * * * * * * * * * * * * * * * * * * * * * * * * * * * * * * * * //

dimensions      [0 3 -1 0 0 0 0];

internalField   nonuniform List<scalar> 
139350
(
6.45104e-08
9.21211e-08
3.19598e-08
3.25506e-08
2.305e-08
8.90978e-09
1.95598e-08
3.49026e-09
1.76014e-08
1.95831e-09
1.6164e-08
1.43747e-09
1.5023e-08
1.14098e-09
1.41019e-08
9.21107e-10
1.3342e-08
7.59883e-10
1.27e-08
6.4197e-10
1.21472e-08
5.52839e-10
1.16642e-08
4.8304e-10
1.12372e-08
4.26987e-10
1.0856e-08
3.81167e-10
1.05128e-08
3.43183e-10
1.02015e-08
3.11324e-10
9.91716e-09
2.84334e-10
9.65589e-09
2.61272e-10
9.41446e-09
2.41426e-10
9.19021e-09
2.24249e-10
8.9809e-09
2.09314e-10
8.78462e-09
1.96281e-10
8.59974e-09
1.84884e-10
8.42483e-09
1.74905e-10
8.25866e-09
1.66171e-10
8.10012e-09
1.58539e-10
7.94823e-09
1.51892e-10
7.80209e-09
1.46137e-10
7.6609e-09
1.41189e-10
7.52391e-09
1.3699e-10
7.39044e-09
1.33472e-10
7.25983e-09
1.30609e-10
7.13151e-09
1.28326e-10
7.00487e-09
1.26639e-10
6.87944e-09
1.25431e-10
6.75465e-09
1.24783e-10
6.63017e-09
1.24486e-10
6.50545e-09
1.24712e-10
6.38033e-09
1.25124e-10
6.25441e-09
1.2592e-10
6.12761e-09
1.26797e-10
6.00017e-09
1.27444e-10
5.87151e-09
1.28656e-10
5.7443e-09
1.27213e-10
5.6148e-09
1.29503e-10
5.49463e-09
1.20173e-10
5.3652e-09
1.29421e-10
5.28252e-09
8.26827e-11
5.05827e-09
2.2425e-10
-2.36064e-09
7.41892e-09
1.25941e-07
1.27624e-07
9.12807e-08
6.72106e-08
7.19175e-08
2.82731e-08
6.11885e-08
1.42192e-08
5.47361e-08
8.41073e-09
5.02225e-08
5.95108e-09
4.6717e-08
4.64653e-09
4.38805e-08
3.75754e-09
4.15326e-08
3.10779e-09
3.95479e-08
2.6267e-09
3.78392e-08
2.26153e-09
3.63465e-08
1.97569e-09
3.50273e-08
1.74627e-09
3.38497e-08
1.5587e-09
3.27898e-08
1.40314e-09
3.18285e-08
1.27257e-09
3.0951e-08
1.16187e-09
3.01451e-08
1.06718e-09
2.94009e-08
9.85623e-10
2.87102e-08
9.14941e-10
2.80661e-08
8.53391e-10
2.74628e-08
7.99596e-10
2.68952e-08
7.52456e-10
2.6359e-08
7.11088e-10
2.58504e-08
6.74779e-10
2.5366e-08
6.42947e-10
2.49028e-08
6.15115e-10
2.4458e-08
5.90895e-10
2.40293e-08
5.69959e-10
2.36142e-08
5.52055e-10
2.32107e-08
5.36938e-10
2.28169e-08
5.2447e-10
2.24308e-08
5.1442e-10
2.20506e-08
5.06781e-10
2.16749e-08
5.01222e-10
2.13017e-08
4.97951e-10
2.09298e-08
4.96334e-10
2.05576e-08
4.96975e-10
2.01841e-08
4.9859e-10
1.98076e-08
5.02448e-10
1.94282e-08
5.06203e-10
1.90438e-08
5.11792e-10
1.86564e-08
5.1604e-10
1.82641e-08
5.19522e-10
1.7871e-08
5.22678e-10
1.74793e-08
5.11866e-10
1.70863e-08
5.22403e-10
1.67531e-08
4.15911e-10
1.6281e-08
6.9635e-10
-2.72066e-09
1.6641e-08
1.58751e-07
1.35277e-07
1.36518e-07
8.94428e-08
1.17472e-07
4.73192e-08
1.03277e-07
2.8414e-08
9.32618e-08
1.84263e-08
8.59364e-08
1.32765e-08
8.02003e-08
1.03826e-08
7.55176e-08
8.44023e-09
7.16062e-08
7.01921e-09
6.82786e-08
5.95434e-09
6.54015e-08
5.13864e-09
6.28802e-08
4.49696e-09
6.06462e-08
3.98026e-09
5.86482e-08
3.55665e-09
5.6847e-08
3.20441e-09
5.52115e-08
2.90807e-09
5.37171e-08
2.65628e-09
5.23437e-08
2.4405e-09
5.10751e-08
2.25427e-09
4.98975e-08
2.09258e-09
4.87994e-08
1.9515e-09
4.7771e-08
1.82795e-09
4.6804e-08
1.71945e-09
4.58911e-08
1.624e-09
4.50259e-08
1.54e-09
4.42027e-08
1.46613e-09
4.34165e-08
1.40131e-09
4.26627e-08
1.34465e-09
4.19373e-08
1.29544e-09
4.12363e-08
1.25306e-09
4.05562e-08
1.21702e-09
3.98937e-08
1.18695e-09
3.92457e-08
1.16243e-09
3.86091e-08
1.14334e-09
3.79812e-08
1.12911e-09
3.73591e-08
1.12006e-09
3.67404e-08
1.11504e-09
3.61221e-08
1.11526e-09
3.55027e-08
1.11803e-09
3.48786e-08
1.12655e-09
3.42501e-08
1.13474e-09
3.36121e-08
1.14973e-09
3.29692e-08
1.15893e-09
3.23129e-08
1.17584e-09
3.16567e-08
1.17893e-09
3.09871e-08
1.1814e-09
3.03263e-08
1.18327e-09
2.97027e-08
1.0395e-09
2.90506e-08
1.34839e-09
-2.04077e-09
2.83708e-08
1.7561e-07
1.31183e-07
1.65617e-07
9.94358e-08
1.52717e-07
6.02191e-08
1.4009e-07
4.10414e-08
1.29385e-07
2.91307e-08
1.20717e-07
2.19449e-08
1.13571e-07
1.7529e-08
1.07552e-07
1.44593e-08
1.0241e-07
1.2161e-08
9.79631e-08
1.04011e-08
9.40718e-08
9.02996e-09
9.06304e-08
7.93835e-09
8.75591e-08
7.05153e-09
8.47965e-08
6.3193e-09
8.2294e-08
5.70683e-09
8.00132e-08
5.18895e-09
7.79225e-08
4.74696e-09
7.59962e-08
4.36673e-09
7.42131e-08
4.03741e-09
7.25551e-08
3.75056e-09
7.10071e-08
3.49952e-09
6.9556e-08
3.27901e-09
6.81907e-08
3.0848e-09
6.69012e-08
2.91344e-09
6.56791e-08
2.76215e-09
6.45166e-08
2.62864e-09
6.34069e-08
2.51104e-09
6.23437e-08
2.40781e-09
6.13215e-08
2.31767e-09
6.0335e-08
2.23958e-09
5.93793e-08
2.17267e-09
5.845e-08
2.11628e-09
5.75427e-08
2.06972e-09
5.66533e-08
2.03276e-09
5.57779e-08
2.00451e-09
5.49125e-08
1.98544e-09
5.40538e-08
1.97377e-09
5.31975e-08
1.97148e-09
5.23414e-08
1.97421e-09
5.14803e-08
1.98759e-09
5.06142e-08
2.00088e-09
4.97358e-08
2.02815e-09
4.88504e-08
2.04431e-09
4.79453e-08
2.08091e-09
4.70382e-08
2.08603e-09
4.61073e-08
2.1123e-09
4.51866e-08
2.10396e-09
4.42784e-08
1.94768e-09
4.3424e-08
2.2028e-09
-8.79013e-10
4.22623e-08
1.84509e-07
1.23459e-07
1.82336e-07
1.01609e-07
1.76108e-07
6.64476e-08
1.67735e-07
4.94144e-08
1.59093e-07
3.77727e-08
1.51158e-07
2.98799e-08
1.44049e-07
2.46372e-08
1.37708e-07
2.08006e-08
1.32061e-07
1.78076e-08
1.27026e-07
1.54368e-08
1.22516e-07
1.35402e-08
1.18454e-07
1.19994e-08
1.14778e-07
1.07278e-08
1.11433e-07
9.66448e-09
1.08374e-07
8.76568e-09
1.05564e-07
7.99893e-09
1.02972e-07
7.33958e-09
1.0057e-07
6.76865e-09
9.83358e-08
6.27129e-09
9.62505e-08
5.83583e-09
9.42971e-08
5.45294e-09
9.2461e-08
5.11516e-09
9.07293e-08
4.81643e-09
8.9091e-08
4.55179e-09
8.75359e-08
4.31723e-09
8.60552e-08
4.10939e-09
8.46407e-08
3.92554e-09
8.32851e-08
3.76339e-09
8.19817e-08
3.62108e-09
8.07242e-08
3.49706e-09
7.95068e-08
3.39004e-09
7.83241e-08
3.29905e-09
7.71707e-08
3.22308e-09
7.60417e-08
3.16174e-09
7.49324e-08
3.11386e-09
7.38378e-08
3.08002e-09
7.27537e-08
3.05782e-09
7.16752e-08
3.05004e-09
7.05988e-08
3.05062e-09
6.95186e-08
3.06775e-09
6.84336e-08
3.08586e-09
6.73355e-08
3.12631e-09
6.62287e-08
3.15109e-09
6.50992e-08
3.2104e-09
6.39637e-08
3.22154e-09
6.28e-08
3.27599e-09
6.16406e-08
3.26331e-09
6.04817e-08
3.10658e-09
5.93945e-08
3.29003e-09
5.46232e-10
5.79693e-08
1.90342e-07
1.15334e-07
1.91856e-07
1.00095e-07
1.90253e-07
6.80503e-08
1.86136e-07
5.35311e-08
1.80679e-07
4.32298e-08
1.74902e-07
3.56573e-08
1.69172e-07
3.03671e-08
1.63647e-07
2.63252e-08
1.58425e-07
2.30293e-08
1.53549e-07
2.03132e-08
1.49021e-07
1.80681e-08
1.44826e-07
1.61949e-08
1.40939e-07
1.46147e-08
1.37334e-07
1.3269e-08
1.33986e-07
1.21139e-08
1.30869e-07
1.11156e-08
1.27962e-07
1.02474e-08
1.25242e-07
9.4883e-09
1.22692e-07
8.82138e-09
1.20295e-07
8.23303e-09
1.18035e-07
7.71222e-09
1.15901e-07
7.24993e-09
1.13878e-07
6.83878e-09
1.11957e-07
6.47263e-09
1.10128e-07
6.14645e-09
1.08381e-07
5.85602e-09
1.06709e-07
5.59785e-09
1.05104e-07
5.369e-09
1.03558e-07
5.16709e-09
1.02064e-07
4.9901e-09
1.00618e-07
4.83636e-09
9.92126e-08
4.7046e-09
9.78422e-08
4.59354e-09
9.65013e-08
4.50265e-09
9.51846e-08
4.4305e-09
9.38869e-08
4.37774e-09
9.26032e-08
4.34151e-09
9.1328e-08
4.32523e-09
9.00572e-08
4.32141e-09
8.87845e-08
4.34049e-09
8.75076e-08
4.36269e-09
8.62182e-08
4.41573e-09
8.49188e-08
4.45051e-09
8.35966e-08
4.53256e-09
8.22633e-08
4.55488e-09
8.09032e-08
4.63607e-09
7.95364e-08
4.63014e-09
7.81703e-08
4.47271e-09
7.68602e-08
4.60008e-09
2.17771e-09
7.52287e-08
1.95503e-07
1.07645e-07
1.98244e-07
9.73545e-08
1.98978e-07
6.73163e-08
1.97775e-07
5.47337e-08
1.95127e-07
4.58778e-08
1.91767e-07
3.90173e-08
1.88007e-07
3.41268e-08
1.84021e-07
3.0312e-08
1.79957e-07
2.70925e-08
1.75928e-07
2.43424e-08
1.72001e-07
2.1995e-08
1.68215e-07
1.99805e-08
1.64592e-07
1.82385e-08
1.61138e-07
1.67225e-08
1.57856e-07
1.53964e-08
1.5474e-07
1.42312e-08
1.51784e-07
1.32032e-08
1.4898e-07
1.22928e-08
1.46317e-07
1.1484e-08
1.43787e-07
1.07633e-08
1.41379e-07
1.01197e-08
1.39086e-07
9.54371e-09
1.36897e-07
9.02772e-09
1.34804e-07
8.56512e-09
1.328e-07
8.15044e-09
1.30877e-07
7.77902e-09
1.29028e-07
7.44699e-09
1.27246e-07
7.15105e-09
1.25525e-07
6.88848e-09
1.23858e-07
6.65698e-09
1.2224e-07
6.45466e-09
1.20664e-07
6.28005e-09
1.19126e-07
6.13171e-09
1.17619e-07
6.00903e-09
1.1614e-07
5.91042e-09
1.14681e-07
5.83663e-09
1.13238e-07
5.78445e-09
1.11805e-07
5.75786e-09
1.10378e-07
5.74828e-09
1.08951e-07
5.7679e-09
1.0752e-07
5.79383e-09
1.06077e-07
5.85829e-09
1.04623e-07
5.90462e-09
1.03148e-07
6.00766e-09
1.01656e-07
6.04673e-09
1.00142e-07
6.15011e-09
9.86094e-08
6.16277e-09
9.70797e-08
6.00239e-09
9.55886e-08
6.09125e-09
3.9804e-09
9.37859e-08
2.00818e-07
1.00412e-07
2.03768e-07
9.44046e-08
2.05338e-07
6.57468e-08
2.05632e-07
5.4439e-08
2.04792e-07
4.67186e-08
2.03297e-07
4.05122e-08
2.01327e-07
3.60964e-08
1.98967e-07
3.2672e-08
1.96324e-07
2.97362e-08
1.93499e-07
2.71672e-08
1.90573e-07
2.49204e-08
1.87608e-07
2.29461e-08
1.84647e-07
2.11997e-08
1.81722e-07
1.96473e-08
1.78856e-07
1.82625e-08
1.76063e-07
1.7024e-08
1.73352e-07
1.59136e-08
1.70729e-07
1.49159e-08
1.68195e-07
1.40179e-08
1.65751e-07
1.32082e-08
1.63393e-07
1.24774e-08
1.61119e-07
1.18171e-08
1.58927e-07
1.12203e-08
1.56811e-07
1.0681e-08
1.54767e-07
1.0194e-08
1.52792e-07
9.75485e-09
1.50879e-07
9.35975e-09
1.49024e-07
9.00546e-09
1.47224e-07
8.68931e-09
1.45472e-07
8.40899e-09
1.43764e-07
8.16263e-09
1.42095e-07
7.94874e-09
1.40461e-07
7.76591e-09
1.38856e-07
7.61356e-09
1.37276e-07
7.4901e-09
1.35717e-07
7.39645e-09
1.34172e-07
7.32922e-09
1.32637e-07
7.29284e-09
1.31107e-07
7.27812e-09
1.29577e-07
7.29834e-09
1.28042e-07
7.32887e-09
1.26496e-07
7.40423e-09
1.24936e-07
7.46426e-09
1.23357e-07
7.5864e-09
1.21756e-07
7.64757e-09
1.20138e-07
7.76884e-09
1.18491e-07
7.80906e-09
1.16845e-07
7.64841e-09
1.15227e-07
7.70999e-09
5.90231e-09
1.13305e-07
2.06422e-07
9.3522e-08
2.09328e-07
9.14985e-08
2.11049e-07
6.40258e-08
2.11923e-07
5.35643e-08
2.11978e-07
4.66639e-08
2.11581e-07
4.09093e-08
2.10835e-07
3.68429e-08
2.09741e-07
3.3766e-08
2.08337e-07
3.11398e-08
2.06682e-07
2.88223e-08
2.04831e-07
2.67717e-08
2.02832e-07
2.49448e-08
2.00728e-07
2.33033e-08
1.98556e-07
2.182e-08
1.96343e-07
2.0475e-08
1.94114e-07
1.92528e-08
1.91887e-07
1.81404e-08
1.89677e-07
1.71267e-08
1.87492e-07
1.6202e-08
1.85342e-07
1.53582e-08
1.83232e-07
1.45878e-08
1.81165e-07
1.38846e-08
1.79142e-07
1.3243e-08
1.77165e-07
1.26581e-08
1.75233e-07
1.21257e-08
1.73346e-07
1.1642e-08
1.71502e-07
1.1204e-08
1.69698e-07
1.08088e-08
1.67934e-07
1.04541e-08
1.66205e-07
1.01379e-08
1.64509e-07
9.85867e-09
1.62842e-07
9.61512e-09
1.61202e-07
9.40606e-09
1.59585e-07
9.23112e-09
1.57986e-07
9.08887e-09
1.56402e-07
8.98046e-09
1.54829e-07
8.9026e-09
1.53261e-07
8.86003e-09
1.51696e-07
8.84344e-09
1.50128e-07
8.86659e-09
1.48552e-07
8.90444e-09
1.46965e-07
8.99175e-09
1.4536e-07
9.0686e-09
1.43738e-07
9.20923e-09
1.42088e-07
9.29734e-09
1.40422e-07
9.43459e-09
1.38723e-07
9.50791e-09
1.37017e-07
9.35501e-09
1.35329e-07
9.39759e-09
7.87939e-09
1.33352e-07
2.12268e-07
8.69165e-08
2.15136e-07
8.86299e-08
2.16803e-07
6.23589e-08
2.17838e-07
5.25298e-08
2.18238e-07
4.62634e-08
2.18345e-07
4.08027e-08
2.18255e-07
3.69329e-08
2.17936e-07
3.40849e-08
2.17381e-07
3.16944e-08
2.16609e-07
2.95945e-08
2.15643e-07
2.77382e-08
2.14507e-07
2.60809e-08
2.13226e-07
2.45837e-08
2.11827e-07
2.32195e-08
2.10331e-07
2.19703e-08
2.08762e-07
2.08228e-08
2.07135e-07
1.97665e-08
2.05469e-07
1.8793e-08
2.03776e-07
1.78952e-08
2.02067e-07
1.70669e-08
2.00352e-07
1.6303e-08
1.98638e-07
1.5599e-08
1.9693e-07
1.49508e-08
1.95233e-07
1.4355e-08
1.9355e-07
1.38085e-08
1.91883e-07
1.33086e-08
1.90234e-07
1.28529e-08
1.88604e-07
1.24393e-08
1.86992e-07
1.20663e-08
1.85397e-07
1.17324e-08
1.8382e-07
1.14364e-08
1.82257e-07
1.11775e-08
1.80708e-07
1.09549e-08
1.79171e-07
1.07686e-08
1.77642e-07
1.06174e-08
1.7612e-07
1.0503e-08
1.746e-07
1.04221e-08
1.7308e-07
1.038e-08
1.71556e-07
1.03674e-08
1.70025e-07
1.03982e-08
1.68481e-07
1.0448e-08
1.66923e-07
1.05502e-08
1.65343e-07
1.06481e-08
1.63744e-07
1.08084e-08
1.62114e-07
1.09279e-08
1.60466e-07
1.10821e-08
1.58782e-07
1.11918e-08
1.57079e-07
1.1058e-08
1.55387e-07
1.10901e-08
9.8427e-09
1.53424e-07
2.18314e-07
8.05836e-08
2.21186e-07
8.5758e-08
2.22776e-07
6.07688e-08
2.23838e-07
5.14672e-08
2.24347e-07
4.57543e-08
2.24632e-07
4.05182e-08
2.24819e-07
3.67454e-08
2.24881e-07
3.40234e-08
2.24795e-07
3.178e-08
2.24562e-07
2.98275e-08
2.24186e-07
2.81146e-08
2.23671e-07
2.65952e-08
2.23028e-07
2.52275e-08
2.22265e-07
2.39819e-08
2.21397e-07
2.2839e-08
2.20434e-07
2.1785e-08
2.19391e-07
2.08097e-08
2.18279e-07
1.99053e-08
2.17109e-07
1.90653e-08
2.15891e-07
1.82848e-08
2.14634e-07
1.75596e-08
2.13347e-07
1.68864e-08
2.12035e-07
1.62623e-08
2.10706e-07
1.56848e-08
2.09362e-07
1.51518e-08
2.08009e-07
1.46615e-08
2.0665e-07
1.42123e-08
2.05286e-07
1.38029e-08
2.0392e-07
1.34323e-08
2.02553e-07
1.30997e-08
2.01185e-07
1.28044e-08
1.99816e-07
1.25462e-08
1.98446e-07
1.23246e-08
1.97075e-07
1.21401e-08
1.957e-07
1.1992e-08
1.94321e-07
1.18822e-08
1.92935e-07
1.18079e-08
1.91541e-07
1.17746e-08
1.90135e-07
1.17735e-08
1.88714e-07
1.18183e-08
1.87276e-07
1.1886e-08
1.85819e-07
1.20075e-08
1.84336e-07
1.21312e-08
1.8283e-07
1.23139e-08
1.81289e-07
1.24688e-08
1.79728e-07
1.26432e-08
1.78129e-07
1.27914e-08
1.76497e-07
1.26892e-08
1.74867e-07
1.27208e-08
1.17227e-08
1.72987e-07
2.24547e-07
7.45295e-08
2.27445e-07
8.28598e-08
2.28971e-07
5.92428e-08
2.30041e-07
5.03976e-08
2.3059e-07
4.52051e-08
2.30923e-07
4.01854e-08
2.312e-07
3.64681e-08
2.31411e-07
3.38131e-08
2.31535e-07
3.16555e-08
2.31572e-07
2.97909e-08
2.31519e-07
2.81669e-08
2.31376e-07
2.67388e-08
2.3114e-07
2.54632e-08
2.30814e-07
2.43085e-08
2.30399e-07
2.32532e-08
2.29902e-07
2.22823e-08
2.29327e-07
2.13847e-08
2.28681e-07
2.05516e-08
2.27969e-07
1.97767e-08
2.27199e-07
1.90547e-08
2.26377e-07
1.83819e-08
2.25509e-07
1.7755e-08
2.24599e-07
1.71718e-08
2.23654e-07
1.66301e-08
2.22677e-07
1.61284e-08
2.21673e-07
1.56656e-08
2.20645e-07
1.52404e-08
2.19596e-07
1.48523e-08
2.18528e-07
1.45006e-08
2.17442e-07
1.4185e-08
2.16341e-07
1.39053e-08
2.15226e-07
1.36617e-08
2.14096e-07
1.34543e-08
2.12953e-07
1.32838e-08
2.11795e-07
1.315e-08
2.10622e-07
1.3055e-08
2.09433e-07
1.29967e-08
2.08227e-07
1.29805e-08
2.07002e-07
1.29986e-08
2.05756e-07
1.30638e-08
2.04487e-07
1.31554e-08
2.03194e-07
1.33008e-08
2.0187e-07
1.3455e-08
2.00521e-07
1.36633e-08
1.99133e-07
1.38567e-08
1.9772e-07
1.40556e-08
1.96268e-07
1.42434e-08
1.94773e-07
1.41847e-08
1.93267e-07
1.42266e-08
1.3455e-08
1.91535e-07
2.30973e-07
6.87623e-08
2.33906e-07
7.99268e-08
2.35375e-07
5.77739e-08
2.36453e-07
4.932e-08
2.37035e-07
4.46232e-08
2.37382e-07
3.9838e-08
2.37681e-07
3.61694e-08
2.37937e-07
3.3557e-08
2.38137e-07
3.14553e-08
2.38284e-07
2.96442e-08
2.38378e-07
2.80722e-08
2.38419e-07
2.66983e-08
2.38402e-07
2.54798e-08
2.38327e-07
2.43842e-08
2.3819e-07
2.33893e-08
2.37994e-07
2.24788e-08
2.37738e-07
2.16407e-08
2.37424e-07
2.08657e-08
2.37054e-07
2.01466e-08
2.36631e-07
1.94778e-08
2.36157e-07
1.88552e-08
2.35637e-07
1.82754e-08
2.35073e-07
1.77359e-08
2.34468e-07
1.72349e-08
2.33826e-07
1.6771e-08
2.33148e-07
1.6343e-08
2.32438e-07
1.59503e-08
2.31698e-07
1.55923e-08
2.3093e-07
1.52686e-08
2.30136e-07
1.49794e-08
2.29316e-07
1.47247e-08
2.28473e-07
1.4505e-08
2.27607e-07
1.43206e-08
2.26718e-07
1.41727e-08
2.25807e-07
1.40612e-08
2.24873e-07
1.39888e-08
2.23916e-07
1.39535e-08
2.22936e-07
1.39608e-08
2.21931e-07
1.40038e-08
2.209e-07
1.40944e-08
2.19841e-07
1.42144e-08
2.18755e-07
1.43871e-08
2.17635e-07
1.4575e-08
2.16487e-07
1.48114e-08
2.15298e-07
1.50448e-08
2.14082e-07
1.52722e-08
2.12825e-07
1.54998e-08
2.11516e-07
1.54938e-08
2.10186e-07
1.55565e-08
1.49883e-08
2.08653e-07
2.37599e-07
6.32876e-08
2.40572e-07
7.69547e-08
2.41983e-07
5.63623e-08
2.43068e-07
4.82353e-08
2.43686e-07
4.4005e-08
2.44046e-07
3.94779e-08
2.4435e-07
3.58656e-08
2.44618e-07
3.32888e-08
2.44841e-07
3.12326e-08
2.45024e-07
2.94613e-08
2.45173e-07
2.7923e-08
2.45289e-07
2.65821e-08
2.45371e-07
2.5398e-08
2.45417e-07
2.43385e-08
2.45425e-07
2.33811e-08
2.45394e-07
2.25095e-08
2.45324e-07
2.17114e-08
2.45212e-07
2.09769e-08
2.45061e-07
2.02984e-08
2.44869e-07
1.96699e-08
2.44637e-07
1.90869e-08
2.44366e-07
1.85459e-08
2.44058e-07
1.8044e-08
2.43714e-07
1.75794e-08
2.43334e-07
1.71505e-08
2.42921e-07
1.67563e-08
2.42475e-07
1.63959e-08
2.41999e-07
1.6069e-08
2.41492e-07
1.57753e-08
2.40956e-07
1.5515e-08
2.40393e-07
1.52883e-08
2.39802e-07
1.50958e-08
2.39184e-07
1.49381e-08
2.38541e-07
1.48165e-08
2.37871e-07
1.47312e-08
2.37175e-07
1.46848e-08
2.36452e-07
1.46758e-08
2.35703e-07
1.47098e-08
2.34927e-07
1.47805e-08
2.34122e-07
1.48988e-08
2.33288e-07
1.5049e-08
2.32424e-07
1.52505e-08
2.31527e-07
1.54727e-08
2.306e-07
1.57382e-08
2.29634e-07
1.60108e-08
2.28637e-07
1.62692e-08
2.27602e-07
1.65349e-08
2.26508e-07
1.65874e-08
2.25385e-07
1.668e-08
1.62922e-08
2.24081e-07
2.44435e-07
5.81092e-08
2.47445e-07
7.39441e-08
2.48801e-07
5.50061e-08
2.49889e-07
4.71481e-08
2.50545e-07
4.33487e-08
2.50921e-07
3.91018e-08
2.51229e-07
3.55578e-08
2.51502e-07
3.30155e-08
2.51732e-07
3.10029e-08
2.51925e-07
2.9268e-08
2.52091e-07
2.77573e-08
2.52232e-07
2.64404e-08
2.52351e-07
2.52796e-08
2.52446e-07
2.42434e-08
2.52517e-07
2.33098e-08
2.52564e-07
2.24628e-08
2.52585e-07
2.169e-08
2.52581e-07
2.09817e-08
2.52549e-07
2.03301e-08
2.5249e-07
1.97291e-08
2.52403e-07
1.91739e-08
2.52288e-07
1.86608e-08
2.52145e-07
1.81871e-08
2.51974e-07
1.77504e-08
2.51775e-07
1.73493e-08
2.51549e-07
1.69826e-08
2.51295e-07
1.66495e-08
2.51014e-07
1.63495e-08
2.50707e-07
1.60825e-08
2.50374e-07
1.58485e-08
2.50014e-07
1.56479e-08
2.49629e-07
1.54813e-08
2.49218e-07
1.53492e-08
2.48781e-07
1.52532e-08
2.48318e-07
1.51935e-08
2.4783e-07
1.51729e-08
2.47316e-07
1.519e-08
2.46776e-07
1.52502e-08
2.46208e-07
1.53481e-08
2.45613e-07
1.54934e-08
2.4499e-07
1.5673e-08
2.44338e-07
1.59019e-08
2.43654e-07
1.61568e-08
2.42942e-07
1.64501e-08
2.42194e-07
1.67587e-08
2.41415e-07
1.70483e-08
2.40601e-07
1.7349e-08
2.39727e-07
1.74618e-08
2.38816e-07
1.75908e-08
1.73609e-08
2.37747e-07
2.51487e-07
5.3229e-08
2.54526e-07
7.09053e-08
2.55837e-07
5.36945e-08
2.56922e-07
4.60637e-08
2.57615e-07
4.2655e-08
2.5801e-07
3.87068e-08
2.58324e-07
3.52447e-08
2.58602e-07
3.27375e-08
2.58836e-07
3.07686e-08
2.59033e-07
2.9071e-08
2.59203e-07
2.75871e-08
2.59352e-07
2.62916e-08
2.59481e-07
2.515e-08
2.59593e-07
2.41319e-08
2.59687e-07
2.32157e-08
2.59764e-07
2.23857e-08
2.59824e-07
2.163e-08
2.59867e-07
2.09391e-08
2.59891e-07
2.03052e-08
2.59898e-07
1.97224e-08
2.59886e-07
1.91859e-08
2.59855e-07
1.86918e-08
2.59805e-07
1.82375e-08
2.59734e-07
1.78206e-08
2.59644e-07
1.74396e-08
2.59534e-07
1.70932e-08
2.59402e-07
1.67807e-08
2.5925e-07
1.65016e-08
2.59077e-07
1.62556e-08
2.58883e-07
1.60429e-08
2.58667e-07
1.58637e-08
2.5843e-07
1.57188e-08
2.5817e-07
1.56087e-08
2.57889e-07
1.55348e-08
2.57585e-07
1.54975e-08
2.57258e-07
1.54996e-08
2.56908e-07
1.55399e-08
2.56535e-07
1.56234e-08
2.56137e-07
1.57456e-08
2.55716e-07
1.59148e-08
2.55268e-07
1.61205e-08
2.54797e-07
1.63737e-08
2.54296e-07
1.66572e-08
2.53771e-07
1.69753e-08
2.53215e-07
1.73149e-08
2.52629e-07
1.7634e-08
2.52013e-07
1.79654e-08
2.51338e-07
1.81364e-08
2.50623e-07
1.83058e-08
1.82124e-08
2.49772e-07
2.58765e-07
4.86473e-08
2.61821e-07
6.78489e-08
2.63099e-07
5.24165e-08
2.64176e-07
4.49872e-08
2.64904e-07
4.19263e-08
2.6532e-07
3.82909e-08
2.6564e-07
3.49253e-08
2.65923e-07
3.24544e-08
2.66162e-07
3.05296e-08
2.66362e-07
2.88709e-08
2.66534e-07
2.74147e-08
2.66685e-07
2.61406e-08
2.66818e-07
2.50176e-08
2.66933e-07
2.40161e-08
2.67034e-07
2.3115e-08
2.67121e-07
2.22991e-08
2.67194e-07
2.15569e-08
2.67254e-07
2.0879e-08
2.67301e-07
2.02581e-08
2.67335e-07
1.96883e-08
2.67356e-07
1.91648e-08
2.67364e-07
1.8684e-08
2.67358e-07
1.82431e-08
2.67339e-07
1.784e-08
2.67306e-07
1.74731e-08
2.67258e-07
1.71412e-08
2.67195e-07
1.68436e-08
2.67116e-07
1.65797e-08
2.67023e-07
1.63495e-08
2.66913e-07
1.61529e-08
2.66786e-07
1.59902e-08
2.66643e-07
1.58622e-08
2.66482e-07
1.57694e-08
2.66304e-07
1.57133e-08
2.66107e-07
1.56942e-08
2.65892e-07
1.57147e-08
2.65657e-07
1.57741e-08
2.65404e-07
1.58768e-08
2.6513e-07
1.60193e-08
2.64837e-07
1.62083e-08
2.64522e-07
1.64356e-08
2.64187e-07
1.6709e-08
2.63828e-07
1.7016e-08
2.63448e-07
1.7355e-08
2.63043e-07
1.77197e-08
2.62612e-07
1.80652e-08
2.62155e-07
1.84226e-08
2.61644e-07
1.86475e-08
2.61091e-07
1.88589e-08
1.88825e-08
2.60421e-07
2.66277e-07
4.4363e-08
2.6934e-07
6.47854e-08
2.70595e-07
5.11613e-08
2.7166e-07
4.39228e-08
2.7242e-07
4.11655e-08
2.72859e-07
3.78524e-08
2.73185e-07
3.45988e-08
2.73474e-07
3.21661e-08
2.73718e-07
3.02854e-08
2.73921e-07
2.86673e-08
2.74096e-07
2.72405e-08
2.74248e-07
2.59885e-08
2.74381e-07
2.48843e-08
2.74498e-07
2.38994e-08
2.746e-07
2.3013e-08
2.74689e-07
2.22104e-08
2.74765e-07
2.14805e-08
2.7483e-07
2.08142e-08
2.74884e-07
2.02043e-08
2.74927e-07
1.9645e-08
2.7496e-07
1.91319e-08
2.74982e-07
1.86614e-08
2.74995e-07
1.82307e-08
2.74997e-07
1.78379e-08
2.74989e-07
1.74815e-08
2.74969e-07
1.71603e-08
2.74939e-07
1.68737e-08
2.74898e-07
1.66212e-08
2.74845e-07
1.64026e-08
2.74779e-07
1.62182e-08
2.74702e-07
1.6068e-08
2.74611e-07
1.5953e-08
2.74507e-07
1.58736e-08
2.74389e-07
1.58313e-08
2.74256e-07
1.58265e-08
2.74109e-07
1.58616e-08
2.73947e-07
1.59362e-08
2.7377e-07
1.60541e-08
2.73577e-07
1.62127e-08
2.73368e-07
1.64173e-08
2.73141e-07
1.6662e-08
2.72899e-07
1.69513e-08
2.72638e-07
1.7277e-08
2.7236e-07
1.76328e-08
2.72063e-07
1.80171e-08
2.71742e-07
1.83856e-08
2.714e-07
1.87648e-08
2.7101e-07
1.90381e-08
2.70577e-07
1.92916e-08
1.94156e-08
2.70044e-07
2.74031e-07
4.03729e-08
2.77091e-07
6.17257e-08
2.78333e-07
4.99188e-08
2.79382e-07
4.28743e-08
2.80171e-07
4.03766e-08
2.80633e-07
3.739e-08
2.80968e-07
3.42644e-08
2.81261e-07
3.18727e-08
2.81511e-07
3.00357e-08
2.81718e-07
2.84599e-08
2.81895e-07
2.70639e-08
2.82048e-07
2.58351e-08
2.82182e-07
2.47502e-08
2.82299e-07
2.37823e-08
2.82401e-07
2.29109e-08
2.8249e-07
2.21218e-08
2.82566e-07
2.1404e-08
2.82632e-07
2.07489e-08
2.82686e-07
2.01495e-08
2.82731e-07
1.96001e-08
2.82767e-07
1.90963e-08
2.82794e-07
1.86348e-08
2.82811e-07
1.8213e-08
2.8282e-07
1.78289e-08
2.82821e-07
1.74811e-08
2.82812e-07
1.71686e-08
2.82795e-07
1.68909e-08
2.82769e-07
1.66475e-08
2.82733e-07
1.64383e-08
2.82688e-07
1.62635e-08
2.82633e-07
1.61234e-08
2.82567e-07
1.60187e-08
2.82491e-07
1.59499e-08
2.82403e-07
1.59186e-08
2.82304e-07
1.59252e-08
2.82194e-07
1.5972e-08
2.82072e-07
1.60587e-08
2.81937e-07
1.61887e-08
2.81789e-07
1.63602e-08
2.81629e-07
1.65773e-08
2.81456e-07
1.68356e-08
2.8127e-07
1.71375e-08
2.81069e-07
1.74777e-08
2.80854e-07
1.78472e-08
2.80625e-07
1.82467e-08
2.80375e-07
1.86351e-08
2.80107e-07
1.9033e-08
2.79796e-07
1.93496e-08
2.79442e-07
1.9645e-08
1.98559e-08
2.79002e-07
2.82038e-07
3.66723e-08
2.85083e-07
5.86809e-08
2.86322e-07
4.86793e-08
2.87352e-07
4.18444e-08
2.88165e-07
3.95639e-08
2.88653e-07
3.69023e-08
2.88996e-07
3.39211e-08
2.89294e-07
3.15742e-08
2.8955e-07
2.97806e-08
2.89761e-07
2.82483e-08
2.8994e-07
2.68849e-08
2.90095e-07
2.56801e-08
2.9023e-07
2.46153e-08
2.90347e-07
2.36649e-08
2.90449e-07
2.2809e-08
2.90537e-07
2.20337e-08
2.90613e-07
2.13283e-08
2.90678e-07
2.06845e-08
2.90732e-07
2.00956e-08
2.90776e-07
1.95559e-08
2.90811e-07
1.90613e-08
2.90837e-07
1.86085e-08
2.90855e-07
1.8195e-08
2.90865e-07
1.7819e-08
2.90867e-07
1.74792e-08
2.90861e-07
1.71747e-08
2.90847e-07
1.69049e-08
2.90824e-07
1.66696e-08
2.90794e-07
1.64686e-08
2.90756e-07
1.63022e-08
2.90708e-07
1.61707e-08
2.90652e-07
1.60748e-08
2.90587e-07
1.60152e-08
2.90512e-07
1.59933e-08
2.90428e-07
1.60095e-08
2.90334e-07
1.60661e-08
2.90229e-07
1.6163e-08
2.90115e-07
1.63032e-08
2.8999e-07
1.64854e-08
2.89854e-07
1.67127e-08
2.89708e-07
1.69822e-08
2.89551e-07
1.72945e-08
2.89382e-07
1.76463e-08
2.89202e-07
1.80273e-08
2.8901e-07
1.84391e-08
2.888e-07
1.88452e-08
2.88572e-07
1.92603e-08
2.88306e-07
1.96158e-08
2.87998e-07
1.99529e-08
2.02407e-08
2.87614e-07
2.90306e-07
3.32546e-08
2.93325e-07
5.56621e-08
2.9457e-07
4.74342e-08
2.95579e-07
4.08353e-08
2.96411e-07
3.87325e-08
2.96925e-07
3.63883e-08
2.97279e-07
3.35674e-08
2.97582e-07
3.12709e-08
2.97843e-07
2.95199e-08
2.98059e-07
2.80321e-08
2.98241e-07
2.67031e-08
2.98397e-07
2.55235e-08
2.98533e-07
2.44793e-08
2.98651e-07
2.35471e-08
2.98753e-07
2.27072e-08
2.9884e-07
2.1946e-08
2.98915e-07
2.12533e-08
2.98979e-07
2.06212e-08
2.99031e-07
2.00429e-08
2.99074e-07
1.95132e-08
2.99108e-07
1.90279e-08
2.99132e-07
1.85838e-08
2.99149e-07
1.81787e-08
2.99157e-07
1.78107e-08
2.99158e-07
1.74787e-08
2.9915e-07
1.71819e-08
2.99136e-07
1.69198e-08
2.99113e-07
1.66921e-08
2.99083e-07
1.64989e-08
2.99044e-07
1.63404e-08
2.98998e-07
1.62169e-08
2.98944e-07
1.61293e-08
2.98881e-07
1.60781e-08
2.98809e-07
1.60648e-08
2.98729e-07
1.60898e-08
2.9864e-07
1.61552e-08
2.98542e-07
1.62613e-08
2.98434e-07
1.64105e-08
2.98318e-07
1.66022e-08
2.98192e-07
1.68385e-08
2.98056e-07
1.71178e-08
2.97912e-07
1.74391e-08
2.97757e-07
1.78008e-08
2.97592e-07
1.81924e-08
2.97416e-07
1.86149e-08
2.97224e-07
1.90375e-08
2.97015e-07
1.94694e-08
2.96769e-07
1.9861e-08
2.96483e-07
2.02398e-08
2.05975e-08
2.96126e-07
2.98845e-07
3.01119e-08
3.01827e-07
5.26806e-08
3.03086e-07
4.61755e-08
3.04073e-07
3.98483e-08
3.04918e-07
3.78875e-08
3.05459e-07
3.58473e-08
3.05824e-07
3.32021e-08
3.06132e-07
3.09626e-08
3.06398e-07
2.92537e-08
3.06619e-07
2.78111e-08
3.06804e-07
2.65183e-08
3.06963e-07
2.53651e-08
3.071e-07
2.43422e-08
3.07218e-07
2.34286e-08
3.0732e-07
2.26052e-08
3.07408e-07
2.18586e-08
3.07482e-07
2.11791e-08
3.07544e-07
2.05589e-08
3.07595e-07
1.99916e-08
3.07637e-07
1.9472e-08
3.07668e-07
1.89962e-08
3.07691e-07
1.8561e-08
3.07705e-07
1.81643e-08
3.07712e-07
1.78045e-08
3.0771e-07
1.74804e-08
3.07701e-07
1.71913e-08
3.07683e-07
1.69368e-08
3.07659e-07
1.67168e-08
3.07626e-07
1.65313e-08
3.07586e-07
1.63806e-08
3.07538e-07
1.62651e-08
3.07482e-07
1.61855e-08
3.07417e-07
1.61425e-08
3.07345e-07
1.61374e-08
3.07264e-07
1.61709e-08
3.07174e-07
1.62448e-08
3.07076e-07
1.63596e-08
3.06969e-07
1.65174e-08
3.06853e-07
1.67179e-08
3.06729e-07
1.69628e-08
3.06595e-07
1.7251e-08
3.06453e-07
1.75811e-08
3.06302e-07
1.79519e-08
3.06141e-07
1.83536e-08
3.0597e-07
1.87863e-08
3.05782e-07
1.92252e-08
3.05577e-07
1.96746e-08
3.05338e-07
2.01004e-08
3.05056e-07
2.05213e-08
2.0944e-08
3.0471e-07
3.07665e-07
2.72342e-08
3.10598e-07
4.97475e-08
3.11877e-07
4.48964e-08
3.12842e-07
3.88837e-08
3.13695e-07
3.70342e-08
3.14263e-07
3.52796e-08
3.14641e-07
3.28235e-08
3.14955e-07
3.06491e-08
3.15226e-07
2.89821e-08
3.15452e-07
2.75851e-08
3.15641e-07
2.633e-08
3.15801e-07
2.52045e-08
3.1594e-07
2.42038e-08
3.16059e-07
2.33094e-08
3.16161e-07
2.2503e-08
3.16248e-07
2.17715e-08
3.16322e-07
2.11055e-08
3.16383e-07
2.04976e-08
3.16433e-07
1.99415e-08
3.16473e-07
1.94324e-08
3.16503e-07
1.89662e-08
3.16524e-07
1.85402e-08
3.16536e-07
1.81521e-08
3.1654e-07
1.78006e-08
3.16536e-07
1.74845e-08
3.16524e-07
1.72033e-08
3.16504e-07
1.69566e-08
3.16476e-07
1.67443e-08
3.16441e-07
1.65666e-08
3.16398e-07
1.64238e-08
3.16347e-07
1.63162e-08
3.16288e-07
1.62446e-08
3.1622e-07
1.62098e-08
3.16145e-07
1.6213e-08
3.16061e-07
1.62549e-08
3.15969e-07
1.63372e-08
3.15868e-07
1.64606e-08
3.15758e-07
1.66268e-08
3.1564e-07
1.68361e-08
3.15513e-07
1.70894e-08
3.15378e-07
1.73864e-08
3.15234e-07
1.77251e-08
3.15081e-07
1.81048e-08
3.14918e-07
1.85167e-08
3.14744e-07
1.896e-08
3.14555e-07
1.94151e-08
3.14346e-07
1.98832e-08
3.14104e-07
2.03422e-08
3.1382e-07
2.08057e-08
2.12904e-08
3.13473e-07
3.16775e-07
2.46104e-08
3.19649e-07
4.6874e-08
3.20954e-07
4.35913e-08
3.21896e-07
3.79413e-08
3.22753e-07
3.61778e-08
3.23346e-07
3.46859e-08
3.2374e-07
3.24302e-08
3.24058e-07
3.03302e-08
3.24335e-07
2.87052e-08
3.24567e-07
2.73537e-08
3.24759e-07
2.6138e-08
3.24922e-07
2.50416e-08
3.25062e-07
2.40638e-08
3.25182e-07
2.31893e-08
3.25284e-07
2.24004e-08
3.25371e-07
2.16845e-08
3.25444e-07
2.10324e-08
3.25505e-07
2.04371e-08
3.25554e-07
1.98926e-08
3.25592e-07
1.93941e-08
3.2562e-07
1.89379e-08
3.25639e-07
1.85212e-08
3.25649e-07
1.8142e-08
3.25651e-07
1.77989e-08
3.25645e-07
1.7491e-08
3.2563e-07
1.72178e-08
3.25608e-07
1.69791e-08
3.25577e-07
1.67747e-08
3.25539e-07
1.66049e-08
3.25493e-07
1.647e-08
3.25438e-07
1.63705e-08
3.25376e-07
1.63071e-08
3.25305e-07
1.62805e-08
3.25226e-07
1.6292e-08
3.25139e-07
1.63424e-08
3.25043e-07
1.64332e-08
3.24938e-07
1.65652e-08
3.24825e-07
1.674e-08
3.24703e-07
1.69579e-08
3.24573e-07
1.72198e-08
3.24433e-07
1.75255e-08
3.24285e-07
1.78731e-08
3.24128e-07
1.82619e-08
3.23961e-07
1.86843e-08
3.23782e-07
1.91388e-08
3.23586e-07
1.96106e-08
3.23371e-07
2.00986e-08
3.23123e-07
2.05906e-08
3.22831e-07
2.10969e-08
2.16414e-08
3.2248e-07
3.26185e-07
2.22279e-08
3.28988e-07
4.4071e-08
3.30324e-07
4.22559e-08
3.31245e-07
3.70199e-08
3.321e-07
3.53228e-08
3.32718e-07
3.40678e-08
3.33128e-07
3.20207e-08
3.33453e-07
3.00052e-08
3.33735e-07
2.84231e-08
3.33972e-07
2.71168e-08
3.34168e-07
2.59419e-08
3.34333e-07
2.48761e-08
3.34475e-07
2.39222e-08
3.34596e-07
2.3068e-08
3.34699e-07
2.22973e-08
3.34786e-07
2.15974e-08
3.34859e-07
2.09597e-08
3.34919e-07
2.03774e-08
3.34967e-07
1.98447e-08
3.35004e-07
1.93572e-08
3.3503e-07
1.89112e-08
3.35047e-07
1.8504e-08
3.35056e-07
1.81339e-08
3.35055e-07
1.77994e-08
3.35046e-07
1.74999e-08
3.35029e-07
1.72349e-08
3.35004e-07
1.70042e-08
3.34971e-07
1.68079e-08
3.34929e-07
1.66462e-08
3.3488e-07
1.65194e-08
3.34822e-07
1.64281e-08
3.34757e-07
1.6373e-08
3.34682e-07
1.63548e-08