/*--------------------------------*- C++ -*----------------------------------*\
  =========                 |
  \\      /  F ield         | OpenFOAM: The Open Source CFD Toolbox
   \\    /   O peration     | Website:  https://openfoam.org
    \\  /    A nd           | Version:  7
     \\/     M anipulation  |
\*---------------------------------------------------------------------------*/
FoamFile
{
    version     2.0;
    format      ascii;
    class       surfaceScalarField;
    location    "0.27";
    object      phi_0;
}
// * * * * * * * * * * * * * * * * * * * * * * * * * * * * * * * * * * * * * //

dimensions      [0 3 -1 0 0 0 0];

internalField   nonuniform List<scalar> 
139350
(
6.45105e-08
9.2121e-08
3.19598e-08
3.25506e-08
2.305e-08
8.90979e-09
1.95597e-08
3.49027e-09
1.76014e-08
1.95831e-09
1.6164e-08
1.43747e-09
1.5023e-08
1.14098e-09
1.41019e-08
9.21109e-10
1.3342e-08
7.59884e-10
1.27e-08
6.4197e-10
1.21472e-08
5.52839e-10
1.16641e-08
4.83039e-10
1.12372e-08
4.26986e-10
1.0856e-08
3.81165e-10
1.05128e-08
3.43182e-10
1.02015e-08
3.11323e-10
9.91715e-09
2.84332e-10
9.65588e-09
2.6127e-10
9.41446e-09
2.41425e-10
9.19021e-09
2.24249e-10
8.98089e-09
2.09314e-10
8.78461e-09
1.96282e-10
8.59973e-09
1.84885e-10
8.42482e-09
1.74908e-10
8.25865e-09
1.66175e-10
8.1001e-09
1.58544e-10
7.9482e-09
1.51899e-10
7.80206e-09
1.46146e-10
7.66086e-09
1.412e-10
7.52385e-09
1.37004e-10
7.39036e-09
1.3349e-10
7.25973e-09
1.30632e-10
7.13138e-09
1.28354e-10
7.0047e-09
1.26673e-10
6.87923e-09
1.25472e-10
6.7544e-09
1.24833e-10
6.62985e-09
1.24546e-10
6.50507e-09
1.24784e-10
6.37986e-09
1.25209e-10
6.25384e-09
1.26022e-10
6.12692e-09
1.26918e-10
5.99933e-09
1.27586e-10
5.87051e-09
1.28822e-10
5.74311e-09
1.27406e-10
5.61338e-09
1.29722e-10
5.49296e-09
1.20425e-10
5.36328e-09
1.29683e-10
5.28028e-09
8.29911e-11
5.05598e-09
2.2431e-10
-2.35889e-09
7.41486e-09
1.25941e-07
1.27624e-07
9.12807e-08
6.72106e-08
7.19175e-08
2.82731e-08
6.11885e-08
1.42192e-08
5.47361e-08
8.41075e-09
5.02225e-08
5.95109e-09
4.67169e-08
4.64654e-09
4.38805e-08
3.75755e-09
4.15325e-08
3.10779e-09
3.95478e-08
2.62671e-09
3.78391e-08
2.26153e-09
3.63465e-08
1.97568e-09
3.50272e-08
1.74626e-09
3.38497e-08
1.5587e-09
3.27897e-08
1.40314e-09
3.18285e-08
1.27257e-09
3.09509e-08
1.16186e-09
3.0145e-08
1.06718e-09
2.94008e-08
9.85619e-10
2.87101e-08
9.14938e-10
2.80661e-08
8.5339e-10
2.74628e-08
7.99596e-10
2.68952e-08
7.52458e-10
2.6359e-08
7.11094e-10
2.58504e-08
6.74789e-10
2.5366e-08
6.42961e-10
2.49027e-08
6.15135e-10
2.4458e-08
5.90922e-10
2.40292e-08
5.69994e-10
2.36141e-08
5.52099e-10
2.32106e-08
5.36995e-10
2.28167e-08
5.2454e-10
2.24305e-08
5.14508e-10
2.20503e-08
5.06889e-10
2.16744e-08
5.01355e-10
2.13011e-08
4.98113e-10
2.09291e-08
4.96531e-10
2.05567e-08
4.97214e-10
2.0183e-08
4.98878e-10
1.98063e-08
5.02795e-10
1.94266e-08
5.06618e-10
1.90419e-08
5.12287e-10
1.86541e-08
5.16627e-10
1.82612e-08
5.20217e-10
1.78675e-08
5.23486e-10
1.74751e-08
5.1281e-10
1.70813e-08
5.23441e-10
1.67472e-08
4.17149e-10
1.62743e-08
6.97145e-10
-2.71798e-09
1.66334e-08
1.58751e-07
1.35277e-07
1.36518e-07
8.94428e-08
1.17472e-07
4.73192e-08
1.03277e-07
2.84141e-08
9.32618e-08
1.84263e-08
8.59363e-08
1.32765e-08
8.02002e-08
1.03826e-08
7.55175e-08
8.44026e-09
7.16061e-08
7.01922e-09
6.82784e-08
5.95434e-09
6.54013e-08
5.13864e-09
6.28801e-08
4.49696e-09
6.06461e-08
3.98025e-09
5.86481e-08
3.55663e-09
5.68469e-08
3.2044e-09
5.52114e-08
2.90806e-09
5.3717e-08
2.65626e-09
5.23437e-08
2.44049e-09
5.1075e-08
2.25426e-09
4.98974e-08
2.09256e-09
4.87993e-08
1.95149e-09
4.7771e-08
1.82794e-09
4.6804e-08
1.71944e-09
4.58911e-08
1.624e-09
4.50259e-08
1.54001e-09
4.42027e-08
1.46615e-09
4.34165e-08
1.40134e-09
4.26627e-08
1.34469e-09
4.19372e-08
1.29549e-09
4.12362e-08
1.25314e-09
4.0556e-08
1.21712e-09
3.98935e-08
1.18708e-09
3.92454e-08
1.16258e-09
3.86088e-08
1.14353e-09
3.79808e-08
1.12935e-09
3.73585e-08
1.12037e-09
3.67397e-08
1.11541e-09
3.61212e-08
1.11571e-09
3.55015e-08
1.11858e-09
3.4877e-08
1.12722e-09
3.42481e-08
1.13555e-09
3.36097e-08
1.15071e-09
3.29662e-08
1.1601e-09
3.23092e-08
1.17723e-09
3.16521e-08
1.18058e-09
3.09816e-08
1.18334e-09
3.03195e-08
1.18546e-09
2.96946e-08
1.04213e-09
2.90411e-08
1.3506e-09
-2.03702e-09
2.83601e-08
1.7561e-07
1.31183e-07
1.65617e-07
9.94359e-08
1.52717e-07
6.02191e-08
1.4009e-07
4.10415e-08
1.29385e-07
2.91308e-08
1.20717e-07
2.1945e-08
1.13571e-07
1.75291e-08
1.07551e-07
1.44594e-08
1.0241e-07
1.2161e-08
9.79629e-08
1.04011e-08
9.40716e-08
9.02996e-09
9.06302e-08
7.93834e-09
8.7559e-08
7.0515e-09
8.47963e-08
6.31928e-09
8.22939e-08
5.7068e-09
8.00131e-08
5.18891e-09
7.79224e-08
4.74692e-09
7.59962e-08
4.3667e-09
7.42131e-08
4.03738e-09
7.25551e-08
3.75053e-09
7.10071e-08
3.49949e-09
6.95561e-08
3.27899e-09
6.81907e-08
3.08478e-09
6.69013e-08
2.91343e-09
6.56792e-08
2.76215e-09
6.45167e-08
2.62865e-09
6.34069e-08
2.51107e-09
6.23438e-08
2.40785e-09
6.13215e-08
2.31773e-09
6.0335e-08
2.23967e-09
5.93793e-08
2.17279e-09
5.845e-08
2.11645e-09
5.75426e-08
2.06994e-09
5.66531e-08
2.03304e-09
5.57776e-08
2.00486e-09
5.49121e-08
1.98588e-09
5.40532e-08
1.97432e-09
5.31967e-08
1.97216e-09
5.23402e-08
1.97504e-09
5.14788e-08
1.98862e-09
5.06123e-08
2.00213e-09
4.97333e-08
2.02966e-09
4.88473e-08
2.04614e-09
4.79414e-08
2.08311e-09
4.70333e-08
2.08865e-09
4.61012e-08
2.11543e-09
4.51791e-08
2.10756e-09
4.42693e-08
1.95199e-09
4.3413e-08
2.20689e-09
-8.73724e-10
4.22497e-08
1.84509e-07
1.23459e-07
1.82336e-07
1.01609e-07
1.76108e-07
6.64477e-08
1.67735e-07
4.94145e-08
1.59093e-07
3.77728e-08
1.51158e-07
2.988e-08
1.44049e-07
2.46373e-08
1.37708e-07
2.08007e-08
1.32061e-07
1.78076e-08
1.27026e-07
1.54368e-08
1.22515e-07
1.35402e-08
1.18454e-07
1.19994e-08
1.14778e-07
1.07278e-08
1.11433e-07
9.66443e-09
1.08374e-07
8.76563e-09
1.05564e-07
7.99887e-09
1.02972e-07
7.33952e-09
1.0057e-07
6.76858e-09
9.83358e-08
6.27123e-09
9.62505e-08
5.83576e-09
9.42971e-08
5.45288e-09
9.2461e-08
5.11511e-09
9.07294e-08
4.81638e-09
8.90911e-08
4.55175e-09
8.75361e-08
4.3172e-09
8.60553e-08
4.10937e-09
8.46409e-08
3.92554e-09
8.32853e-08
3.76342e-09
8.19819e-08
3.62114e-09
8.07244e-08
3.49716e-09
7.9507e-08
3.39018e-09
7.83242e-08
3.29924e-09
7.71708e-08
3.22334e-09
7.60418e-08
3.16209e-09
7.49323e-08
3.11431e-09
7.38376e-08
3.08059e-09
7.27534e-08
3.05854e-09
7.16746e-08
3.05094e-09
7.05979e-08
3.05174e-09
6.95174e-08
3.06913e-09
6.8432e-08
3.08756e-09
6.73333e-08
3.12839e-09
6.62258e-08
3.15361e-09
6.50954e-08
3.21345e-09
6.39589e-08
3.22521e-09
6.27939e-08
3.2804e-09
6.1633e-08
3.26843e-09
6.04723e-08
3.11274e-09
5.93829e-08
3.29627e-09
5.53483e-10
5.79557e-08
1.90342e-07
1.15334e-07
1.91856e-07
1.00095e-07
1.90253e-07
6.80504e-08
1.86136e-07
5.35312e-08
1.80679e-07
4.323e-08
1.74901e-07
3.56575e-08
1.69172e-07
3.03672e-08
1.63647e-07
2.63253e-08
1.58425e-07
2.30294e-08
1.53549e-07
2.03132e-08
1.49021e-07
1.80681e-08
1.44825e-07
1.61949e-08
1.40939e-07
1.46147e-08
1.37334e-07
1.32689e-08
1.33986e-07
1.21138e-08
1.30869e-07
1.11155e-08
1.27961e-07
1.02473e-08
1.25242e-07
9.4882e-09
1.22692e-07
8.82128e-09
1.20295e-07
8.23293e-09
1.18035e-07
7.71212e-09
1.15901e-07
7.24984e-09
1.13878e-07
6.83869e-09
1.11957e-07
6.47255e-09
1.10128e-07
6.14639e-09
1.08382e-07
5.85597e-09
1.06709e-07
5.59782e-09
1.05104e-07
5.36901e-09
1.03558e-07
5.16713e-09
1.02065e-07
4.99018e-09
1.00619e-07
4.8365e-09
9.92129e-08
4.7048e-09
9.78425e-08
4.59383e-09
9.65015e-08
4.50305e-09
9.51848e-08
4.43102e-09
9.38869e-08
4.37843e-09
9.26031e-08
4.34238e-09
9.13277e-08
4.32634e-09
9.00567e-08
4.32279e-09
8.87836e-08
4.34222e-09
8.75063e-08
4.36483e-09
8.62163e-08
4.41835e-09
8.49162e-08
4.45372e-09
8.35932e-08
4.53648e-09
8.22588e-08
4.55961e-09
8.08974e-08
4.64178e-09
7.9529e-08
4.63685e-09
7.8161e-08
4.48078e-09
7.68486e-08
4.60861e-09
2.18725e-09
7.52148e-08
1.95503e-07
1.07645e-07
1.98244e-07
9.73545e-08
1.98978e-07
6.73164e-08
1.97775e-07
5.47338e-08
1.95127e-07
4.5878e-08
1.91767e-07
3.90175e-08
1.88007e-07
3.4127e-08
1.8402e-07
3.03122e-08
1.79957e-07
2.70926e-08
1.75928e-07
2.43425e-08
1.72001e-07
2.19951e-08
1.68215e-07
1.99805e-08
1.64591e-07
1.82385e-08
1.61138e-07
1.67224e-08
1.57855e-07
1.53963e-08
1.5474e-07
1.42311e-08
1.51784e-07
1.3203e-08
1.4898e-07
1.22927e-08
1.46317e-07
1.14839e-08
1.43787e-07
1.07632e-08
1.41379e-07
1.01195e-08
1.39086e-07
9.54357e-09
1.36897e-07
9.02758e-09
1.34804e-07
8.565e-09
1.328e-07
8.15033e-09
1.30877e-07
7.77893e-09
1.29028e-07
7.44692e-09
1.27246e-07
7.15101e-09
1.25525e-07
6.88848e-09
1.23858e-07
6.65704e-09
1.2224e-07
6.45479e-09
1.20664e-07
6.28025e-09
1.19126e-07
6.13202e-09
1.1762e-07
6.00947e-09
1.1614e-07
5.911e-09
1.14681e-07
5.83741e-09
1.13238e-07
5.78545e-09
1.11805e-07
5.75915e-09
1.10378e-07
5.74991e-09
1.0895e-07
5.76995e-09
1.07519e-07
5.79638e-09
1.06075e-07
5.86145e-09
1.04621e-07
5.90851e-09
1.03145e-07
6.01242e-09
1.01652e-07
6.05251e-09
1.00137e-07
6.15713e-09
9.86023e-08
6.17108e-09
9.70707e-08
6.01239e-09
9.55771e-08
6.10214e-09
3.99245e-09
9.37719e-08
2.00818e-07
1.00412e-07
2.03768e-07
9.44046e-08
2.05338e-07
6.57468e-08
2.05632e-07
5.44391e-08
2.04792e-07
4.67187e-08
2.03297e-07
4.05123e-08
2.01327e-07
3.60966e-08
1.98967e-07
3.26721e-08
1.96323e-07
2.97364e-08
1.93499e-07
2.71673e-08
1.90573e-07
2.49205e-08
1.87608e-07
2.29461e-08
1.84646e-07
2.11997e-08
1.81722e-07
1.96472e-08
1.78855e-07
1.82624e-08
1.76063e-07
1.70238e-08
1.73352e-07
1.59134e-08
1.70729e-07
1.49158e-08
1.68195e-07
1.40177e-08
1.6575e-07
1.3208e-08
1.63393e-07
1.24772e-08
1.61119e-07
1.18169e-08
1.58927e-07
1.12201e-08
1.56811e-07
1.06808e-08
1.54768e-07
1.01939e-08
1.52792e-07
9.75471e-09
1.50879e-07
9.35963e-09
1.49025e-07
9.00539e-09
1.47224e-07
8.68928e-09
1.45472e-07
8.40902e-09
1.43764e-07
8.16274e-09
1.42095e-07
7.94894e-09
1.40461e-07
7.76623e-09
1.38856e-07
7.61402e-09
1.37277e-07
7.49074e-09
1.35717e-07
7.39731e-09
1.34172e-07
7.33035e-09
1.32637e-07
7.2943e-09
1.31107e-07
7.27998e-09
1.29576e-07
7.30069e-09
1.28041e-07
7.33181e-09
1.26494e-07
7.40789e-09
1.24934e-07
7.46879e-09
1.23354e-07
7.59198e-09
1.21752e-07
7.65438e-09
1.20132e-07
7.77713e-09
1.18484e-07
7.81894e-09
1.16837e-07
7.66029e-09
1.15215e-07
7.72323e-09
5.91702e-09
1.13291e-07
2.06422e-07
9.3522e-08
2.09328e-07
9.14985e-08
2.11049e-07
6.40259e-08
2.11924e-07
5.35644e-08
2.11978e-07
4.66641e-08
2.11581e-07
4.09094e-08
2.10835e-07
3.68431e-08
2.0974e-07
3.37662e-08
2.08337e-07
3.11399e-08
2.06682e-07
2.88224e-08
2.0483e-07
2.67718e-08
2.02832e-07
2.49448e-08
2.00728e-07
2.33034e-08
1.98555e-07
2.182e-08
1.96343e-07
2.0475e-08
1.94114e-07
1.92527e-08
1.91887e-07
1.81403e-08
1.89676e-07
1.71265e-08
1.87492e-07
1.62018e-08
1.85342e-07
1.5358e-08
1.83232e-07
1.45876e-08
1.81164e-07
1.38844e-08
1.79142e-07
1.32427e-08
1.77165e-07
1.26578e-08
1.75233e-07
1.21254e-08
1.73346e-07
1.16418e-08
1.71502e-07
1.12038e-08
1.69699e-07
1.08087e-08
1.67934e-07
1.0454e-08
1.66205e-07
1.01379e-08
1.64509e-07
9.85876e-09
1.62843e-07
9.61531e-09
1.61202e-07
9.40638e-09
1.59585e-07
9.2316e-09
1.57986e-07
9.08956e-09
1.56402e-07
8.9814e-09
1.54829e-07
8.90384e-09
1.53261e-07
8.86165e-09
1.51696e-07
8.84552e-09
1.50127e-07
8.86924e-09
1.48551e-07
8.90777e-09
1.46963e-07
8.9959e-09
1.45358e-07
9.07376e-09
1.43735e-07
9.21559e-09
1.42084e-07
9.30512e-09
1.40417e-07
9.4441e-09
1.38716e-07
9.5193e-09
1.37008e-07
9.36874e-09
1.35318e-07
9.41313e-09
7.89681e-09
1.33338e-07
2.12268e-07
8.69165e-08
2.15136e-07
8.86299e-08
2.16803e-07
6.2359e-08
2.17838e-07
5.25299e-08
2.18238e-07
4.62635e-08
2.18345e-07
4.08029e-08
2.18255e-07
3.69331e-08
2.17936e-07
3.40851e-08
2.17381e-07
3.16946e-08
2.16609e-07
2.95947e-08
2.15642e-07
2.77383e-08
2.14506e-07
2.6081e-08
2.13226e-07
2.45837e-08
2.11826e-07
2.32195e-08
2.10331e-07
2.19703e-08
2.08761e-07
2.08227e-08
2.07135e-07
1.97664e-08
2.05469e-07
1.87928e-08
2.03776e-07
1.7895e-08
2.02067e-07
1.70667e-08
2.00352e-07
1.63028e-08
1.98637e-07
1.55987e-08
1.9693e-07
1.49506e-08
1.95233e-07
1.43548e-08
1.9355e-07
1.38083e-08
1.91883e-07
1.33083e-08
1.90234e-07
1.28527e-08
1.88604e-07
1.24392e-08
1.86992e-07
1.20662e-08
1.85397e-07
1.17324e-08
1.8382e-07
1.14364e-08
1.82257e-07
1.11776e-08
1.80708e-07
1.09552e-08
1.79171e-07
1.07691e-08
1.77642e-07
1.06182e-08
1.7612e-07
1.0504e-08
1.746e-07
1.04235e-08
1.7308e-07
1.03817e-08
1.71556e-07
1.03697e-08
1.70024e-07
1.04011e-08
1.6848e-07
1.04517e-08
1.66921e-07
1.05548e-08
1.65341e-07
1.06538e-08
1.63741e-07
1.08155e-08
1.6211e-07
1.09366e-08
1.60461e-07
1.10927e-08
1.58776e-07
1.12046e-08
1.57071e-07
1.10734e-08
1.55376e-07
1.11079e-08
9.86281e-09
1.5341e-07
2.18314e-07
8.05836e-08
2.21186e-07
8.57579e-08
2.22776e-07
6.07688e-08
2.23838e-07
5.14673e-08
2.24347e-07
4.57545e-08
2.24632e-07
4.05185e-08
2.24819e-07
3.67457e-08
2.24881e-07
3.40237e-08
2.24795e-07
3.17802e-08
2.24562e-07
2.98277e-08
2.24186e-07
2.81148e-08
2.23671e-07
2.65954e-08
2.23027e-07
2.52276e-08
2.22265e-07
2.39819e-08
2.21396e-07
2.2839e-08
2.20434e-07
2.1785e-08
2.19391e-07
2.08096e-08
2.18278e-07
1.99051e-08
2.17108e-07
1.90651e-08
2.1589e-07
1.82845e-08
2.14634e-07
1.75594e-08
2.13346e-07
1.68862e-08
2.12035e-07
1.6262e-08
2.10705e-07
1.56845e-08
2.09362e-07
1.51515e-08
2.08009e-07
1.46612e-08
2.0665e-07
1.42121e-08
2.05286e-07
1.38028e-08
2.0392e-07
1.34322e-08
2.02553e-07
1.30997e-08
2.01185e-07
1.28045e-08
1.99816e-07
1.25463e-08
1.98446e-07
1.23249e-08
1.97075e-07
1.21407e-08
1.957e-07
1.19928e-08
1.94321e-07
1.18833e-08
1.92935e-07
1.18094e-08
1.9154e-07
1.17765e-08
1.90134e-07
1.1776e-08
1.88713e-07
1.18215e-08
1.87275e-07
1.18901e-08
1.85817e-07
1.20125e-08
1.84333e-07
1.21375e-08
1.82827e-07
1.23217e-08
1.81285e-07
1.24784e-08
1.79723e-07
1.26549e-08
1.78122e-07
1.28055e-08
1.76489e-07
1.27063e-08
1.74857e-07
1.27406e-08
1.17454e-08
1.72974e-07
2.24547e-07
7.45295e-08
2.27445e-07
8.28598e-08
2.28971e-07
5.92428e-08
2.30041e-07
5.03977e-08
2.3059e-07
4.52053e-08
2.30923e-07
4.01856e-08
2.312e-07
3.64684e-08
2.31411e-07
3.38134e-08
2.31535e-07
3.16558e-08
2.31572e-07
2.97911e-08
2.31519e-07
2.81671e-08
2.31376e-07
2.6739e-08
2.3114e-07
2.54633e-08
2.30813e-07
2.43085e-08
2.30399e-07
2.32532e-08
2.29902e-07
2.22823e-08
2.29327e-07
2.13846e-08
2.2868e-07
2.05515e-08
2.27969e-07
1.97765e-08
2.27199e-07
1.90545e-08
2.26377e-07
1.83816e-08
2.25508e-07
1.77548e-08
2.24599e-07
1.71715e-08
2.23653e-07
1.66298e-08
2.22677e-07
1.61282e-08
2.21673e-07
1.56653e-08
2.20645e-07
1.52402e-08
2.19595e-07
1.48521e-08
2.18527e-07
1.45005e-08
2.17442e-07
1.41849e-08
2.16341e-07
1.39054e-08
2.15225e-07
1.36619e-08
2.14096e-07
1.34546e-08
2.12952e-07
1.32844e-08
2.11794e-07
1.31508e-08
2.10621e-07
1.30562e-08
2.09432e-07
1.29983e-08
2.08226e-07
1.29826e-08
2.07001e-07
1.30013e-08
2.05755e-07
1.30673e-08
2.04485e-07
1.31598e-08
2.03192e-07
1.33062e-08
2.01867e-07
1.34618e-08
2.00517e-07
1.36717e-08
1.99129e-07
1.38671e-08
1.97715e-07
1.40683e-08
1.96262e-07
1.42588e-08
1.94765e-07
1.42033e-08
1.93257e-07
1.42483e-08
1.348e-08
1.91523e-07
2.30973e-07
6.87622e-08
2.33906e-07
7.99268e-08
2.35375e-07
5.7774e-08
2.36453e-07
4.93201e-08
2.37035e-07
4.46234e-08
2.37382e-07
3.98382e-08
2.37681e-07
3.61697e-08
2.37937e-07
3.35573e-08
2.38137e-07
3.14555e-08
2.38284e-07
2.96445e-08
2.38378e-07
2.80725e-08
2.38419e-07
2.66985e-08
2.38402e-07
2.548e-08
2.38326e-07
2.43844e-08
2.3819e-07
2.33893e-08
2.37994e-07
2.24788e-08
2.37738e-07
2.16407e-08
2.37423e-07
2.08656e-08
2.37053e-07
2.01465e-08
2.3663e-07
1.94777e-08
2.36157e-07
1.88549e-08
2.35637e-07
1.82751e-08
2.35072e-07
1.77356e-08
2.34468e-07
1.72346e-08
2.33825e-07
1.67707e-08
2.33148e-07
1.63428e-08
2.32438e-07
1.59501e-08
2.31698e-07
1.55921e-08
2.3093e-07
1.52685e-08
2.30135e-07
1.49794e-08
2.29316e-07
1.47248e-08
2.28472e-07
1.45052e-08
2.27606e-07
1.4321e-08
2.26717e-07
1.41733e-08
2.25806e-07
1.40622e-08
2.24872e-07
1.39901e-08
2.23915e-07
1.39552e-08
2.22935e-07
1.3963e-08
2.21929e-07
1.40067e-08
2.20898e-07
1.40981e-08
2.19839e-07
1.42191e-08
2.18752e-07
1.4393e-08
2.17632e-07
1.45822e-08
2.16483e-07
1.48204e-08
2.15294e-07
1.50559e-08
2.14077e-07
1.52858e-08
2.12819e-07
1.55162e-08
2.11509e-07
1.55137e-08
2.10177e-07
1.55799e-08
1.50156e-08
2.08642e-07
2.37599e-07
6.32876e-08
2.40572e-07
7.69546e-08
2.41983e-07
5.63623e-08
2.43068e-07
4.82354e-08
2.43686e-07
4.40052e-08
2.44046e-07
3.94782e-08
2.4435e-07
3.5866e-08
2.44618e-07
3.32891e-08
2.44841e-07
3.12329e-08
2.45024e-07
2.94616e-08
2.45173e-07
2.79233e-08
2.45289e-07
2.65823e-08
2.45371e-07
2.53982e-08
2.45417e-07
2.43386e-08
2.45425e-07
2.33812e-08
2.45394e-07
2.25096e-08
2.45323e-07
2.17114e-08
2.45212e-07
2.09768e-08
2.4506e-07
2.02983e-08
2.44868e-07
1.96698e-08
2.44636e-07
1.90867e-08
2.44366e-07
1.85456e-08
2.44058e-07
1.80438e-08
2.43713e-07
1.75792e-08
2.43334e-07
1.71503e-08
2.4292e-07
1.6756e-08
2.42475e-07
1.63957e-08
2.41998e-07
1.60688e-08
2.41491e-07
1.57752e-08
2.40956e-07
1.5515e-08
2.40392e-07
1.52884e-08
2.39801e-07
1.50961e-08
2.39183e-07
1.49386e-08
2.38539e-07
1.48172e-08
2.37869e-07
1.47322e-08
2.37173e-07
1.46862e-08
2.36451e-07
1.46777e-08
2.35702e-07
1.47122e-08
2.34925e-07
1.47836e-08
2.3412e-07
1.49027e-08
2.33285e-07
1.5054e-08
2.32422e-07
1.52567e-08
2.31523e-07
1.54804e-08
2.30596e-07
1.57478e-08
2.29629e-07
1.60226e-08
2.28632e-07
1.62835e-08
2.27596e-07
1.65523e-08
2.26501e-07
1.66085e-08
2.25376e-07
1.67048e-08
1.63214e-08
2.2407e-07
2.44435e-07
5.81091e-08
2.47445e-07
7.39441e-08
2.48801e-07
5.50061e-08
2.49889e-07
4.71482e-08
2.50545e-07
4.33489e-08
2.50921e-07
3.91021e-08
2.51229e-07
3.55582e-08
2.51502e-07
3.30159e-08
2.51732e-07
3.10032e-08
2.51925e-07
2.92683e-08
2.52091e-07
2.77576e-08
2.52232e-07
2.64407e-08
2.52351e-07
2.52798e-08
2.52446e-07
2.42436e-08
2.52517e-07
2.331e-08
2.52564e-07
2.24629e-08
2.52585e-07
2.16901e-08
2.5258e-07
2.09817e-08
2.52548e-07
2.033e-08
2.52489e-07
1.9729e-08
2.52402e-07
1.91737e-08
2.52287e-07
1.86606e-08
2.52144e-07
1.81868e-08
2.51973e-07
1.77502e-08
2.51774e-07
1.73491e-08
2.51548e-07
1.69824e-08
2.51294e-07
1.66494e-08
2.51013e-07
1.63494e-08
2.50706e-07
1.60825e-08
2.50373e-07
1.58486e-08
2.50013e-07
1.56481e-08
2.49628e-07
1.54816e-08
2.49216e-07
1.53498e-08
2.4878e-07
1.5254e-08
2.48317e-07
1.51947e-08
2.47829e-07
1.51744e-08
2.47315e-07
1.5192e-08
2.46774e-07
1.52528e-08
2.46206e-07
1.53514e-08
2.45611e-07
1.54976e-08
2.44987e-07
1.56782e-08
2.44335e-07
1.59085e-08
2.43651e-07
1.61649e-08
2.42938e-07
1.64601e-08
2.4219e-07
1.6771e-08
2.4141e-07
1.70633e-08
2.40595e-07
1.73673e-08
2.3972e-07
1.74838e-08
2.38808e-07
1.76169e-08
1.73918e-08
2.37737e-07
2.51487e-07
5.32289e-08
2.54526e-07
7.09053e-08
2.55837e-07
5.36945e-08
2.56922e-07
4.60638e-08
2.57615e-07
4.26552e-08
2.5801e-07
3.87071e-08
2.58323e-07
3.5245e-08
2.58601e-07
3.27379e-08
2.58836e-07
3.0769e-08
2.59033e-07
2.90714e-08
2.59203e-07
2.75874e-08
2.59352e-07
2.62919e-08
2.59481e-07
2.51503e-08
2.59593e-07
2.41322e-08
2.59687e-07
2.32159e-08
2.59764e-07
2.23859e-08
2.59823e-07
2.16302e-08
2.59866e-07
2.09392e-08
2.59891e-07
2.03052e-08
2.59897e-07
1.97224e-08
2.59885e-07
1.91858e-08
2.59854e-07
1.86917e-08
2.59804e-07
1.82373e-08
2.59734e-07
1.78204e-08
2.59643e-07
1.74394e-08
2.59533e-07
1.7093e-08
2.59402e-07
1.67806e-08
2.5925e-07
1.65015e-08
2.59076e-07
1.62556e-08
2.58882e-07
1.6043e-08
2.58666e-07
1.5864e-08
2.58428e-07
1.57192e-08
2.58169e-07
1.56093e-08
2.57887e-07
1.55357e-08
2.57583e-07
1.54988e-08
2.57256e-07
1.55012e-08
2.56906e-07
1.55421e-08
2.56533e-07
1.56261e-08
2.56135e-07
1.57491e-08
2.55714e-07
1.59193e-08
2.55266e-07
1.6126e-08
2.54794e-07
1.63806e-08
2.54293e-07
1.66657e-08
2.53767e-07
1.69858e-08
2.5321e-07
1.73278e-08
2.52624e-07
1.76497e-08
2.52007e-07
1.79844e-08
2.51331e-07
1.81593e-08
2.50615e-07
1.8333e-08
1.82447e-08
2.49762e-07
2.58765e-07
4.86473e-08
2.61821e-07
6.78488e-08
2.63099e-07
5.24165e-08
2.64176e-07
4.49873e-08
2.64904e-07
4.19265e-08
2.6532e-07
3.82912e-08
2.6564e-07
3.49256e-08
2.65923e-07
3.24548e-08
2.66162e-07
3.053e-08
2.66362e-07
2.88713e-08
2.66534e-07
2.74151e-08
2.66685e-07
2.6141e-08
2.66817e-07
2.5018e-08
2.66933e-07
2.40165e-08
2.67034e-07
2.31153e-08
2.6712e-07
2.22994e-08
2.67193e-07
2.15571e-08
2.67253e-07
2.08792e-08
2.673e-07
2.02582e-08
2.67335e-07
1.96883e-08
2.67356e-07
1.91647e-08
2.67363e-07
1.86839e-08
2.67358e-07
1.8243e-08
2.67338e-07
1.78398e-08
2.67305e-07
1.74729e-08
2.67257e-07
1.71411e-08
2.67194e-07
1.68435e-08
2.67115e-07
1.65797e-08
2.67022e-07
1.63495e-08
2.66912e-07
1.61531e-08
2.66785e-07
1.59905e-08
2.66641e-07
1.58627e-08
2.66481e-07
1.57702e-08
2.66302e-07
1.57143e-08
2.66105e-07
1.56956e-08
2.6589e-07
1.57165e-08
2.65656e-07
1.57765e-08
2.65402e-07
1.58798e-08
2.65128e-07
1.6023e-08
2.64834e-07
1.6213e-08
2.64519e-07
1.64415e-08
2.64183e-07
1.67162e-08
2.63824e-07
1.70249e-08
2.63444e-07
1.73659e-08
2.63039e-07
1.7733e-08
2.62607e-07
1.80814e-08
2.62149e-07
1.84422e-08
2.61637e-07
1.86711e-08
2.61083e-07
1.88869e-08
1.8916e-08
2.60412e-07
2.66277e-07
4.4363e-08
2.6934e-07
6.47853e-08
2.70595e-07
5.11613e-08
2.7166e-07
4.39229e-08
2.7242e-07
4.11658e-08
2.72859e-07
3.78528e-08
2.73185e-07
3.45992e-08
2.73473e-07
3.21665e-08
2.73718e-07
3.02858e-08
2.73921e-07
2.86678e-08
2.74095e-07
2.72409e-08
2.74247e-07
2.59889e-08
2.74381e-07
2.48847e-08
2.74497e-07
2.38998e-08
2.74599e-07
2.30133e-08
2.74688e-07
2.22107e-08
2.74764e-07
2.14807e-08
2.74829e-07
2.08144e-08
2.74883e-07
2.02044e-08
2.74926e-07
1.96451e-08
2.74959e-07
1.91319e-08
2.74982e-07
1.86613e-08
2.74994e-07
1.82306e-08
2.74996e-07
1.78378e-08
2.74988e-07
1.74813e-08
2.74969e-07
1.71602e-08
2.74938e-07
1.68736e-08
2.74897e-07
1.66212e-08
2.74844e-07
1.64028e-08
2.74778e-07
1.62184e-08
2.747e-07
1.60685e-08
2.74609e-07
1.59536e-08
2.74505e-07
1.58745e-08
2.74387e-07
1.58325e-08
2.74255e-07
1.5828e-08
2.74108e-07
1.58636e-08
2.73945e-07
1.59387e-08
2.73768e-07
1.60573e-08
2.73574e-07
1.62167e-08
2.73365e-07
1.64223e-08
2.73138e-07
1.66681e-08
2.72896e-07
1.69588e-08
2.72634e-07
1.72862e-08
2.72356e-07
1.76441e-08
2.72058e-07
1.80309e-08
2.71737e-07
1.84023e-08
2.71395e-07
1.8785e-08
2.71003e-07
1.90623e-08
2.7057e-07
1.93205e-08
1.94501e-08
2.70036e-07
2.74031e-07
4.03728e-08
2.77091e-07
6.17256e-08
2.78333e-07
4.99188e-08
2.79382e-07
4.28744e-08
2.80171e-07
4.03769e-08
2.80633e-07
3.73903e-08
2.80968e-07
3.42649e-08
2.81261e-07
3.18731e-08
2.81511e-07
3.00362e-08
2.81718e-07
2.84604e-08
2.81895e-07
2.70644e-08
2.82048e-07
2.58355e-08
2.82182e-07
2.47507e-08
2.82299e-07
2.37828e-08
2.82401e-07
2.29114e-08
2.8249e-07
2.21222e-08
2.82566e-07
2.14043e-08
2.82631e-07
2.07492e-08
2.82686e-07
2.01497e-08
2.82731e-07
1.96002e-08
2.82766e-07
1.90964e-08
2.82793e-07
1.86348e-08
2.8281e-07
1.82129e-08
2.8282e-07
1.78288e-08
2.8282e-07
1.7481e-08
2.82811e-07
1.71686e-08
2.82794e-07
1.68909e-08
2.82768e-07
1.66476e-08
2.82732e-07
1.64385e-08
2.82687e-07
1.62638e-08
2.82631e-07
1.61239e-08
2.82565e-07
1.60194e-08
2.82489e-07
1.59509e-08
2.82402e-07
1.59199e-08
2.82303e-07
1.59269e-08
2.82192e-07
1.59741e-08
2.82069e-07
1.60614e-08
2.81935e-07
1.61921e-08
2.81787e-07
1.63644e-08
2.81627e-07
1.65825e-08
2.81453e-07
1.68421e-08
2.81266e-07
1.71454e-08
2.81065e-07
1.74873e-08
2.8085e-07
1.7859e-08
2.8062e-07
1.8261e-08
2.8037e-07
1.86523e-08
2.80101e-07
1.90537e-08
2.79789e-07
1.93744e-08
2.79435e-07
1.96746e-08
1.98913e-08
2.78994e-07
2.82038e-07
3.66722e-08
2.85083e-07
5.86809e-08
2.86322e-07
4.86793e-08
2.87352e-07
4.18446e-08
2.88165e-07
3.95642e-08
2.88653e-07
3.69026e-08
2.88996e-07
3.39215e-08
2.89294e-07
3.15747e-08
2.89549e-07
2.97811e-08
2.89761e-07
2.82488e-08
2.8994e-07
2.68855e-08
2.90095e-07
2.56807e-08
2.9023e-07
2.46158e-08
2.90347e-07
2.36654e-08
2.90449e-07
2.28095e-08
2.90537e-07
2.20341e-08
2.90613e-07
2.13287e-08
2.90677e-07
2.06848e-08
2.90731e-07
2.00958e-08
2.90775e-07
1.95561e-08
2.9081e-07
1.90614e-08
2.90836e-07
1.86085e-08
2.90854e-07
1.8195e-08
2.90864e-07
1.7819e-08
2.90866e-07
1.74792e-08
2.9086e-07
1.71747e-08
2.90846e-07
1.6905e-08
2.90823e-07
1.66697e-08
2.90793e-07
1.64688e-08
2.90754e-07
1.63026e-08
2.90707e-07
1.61713e-08
2.90651e-07
1.60757e-08
2.90585e-07
1.60163e-08
2.9051e-07
1.59947e-08
2.90426e-07
1.60113e-08
2.90332e-07
1.60684e-08
2.90227e-07
1.61659e-08
2.90113e-07
1.63068e-08
2.89987e-07
1.64898e-08
2.89852e-07
1.67181e-08
2.89705e-07
1.69889e-08
2.89547e-07
1.73026e-08
2.89379e-07
1.76562e-08
2.89198e-07
1.80394e-08
2.89005e-07
1.84537e-08
2.88795e-07
1.88629e-08
2.88567e-07
1.92815e-08
2.883e-07
1.96412e-08
2.87992e-07
1.99831e-08
2.02769e-08
2.87606e-07
2.90306e-07
3.32546e-08
2.93325e-07
5.56621e-08
2.9457e-07
4.74342e-08
2.95579e-07
4.08354e-08
2.96411e-07
3.87327e-08
2.96925e-07
3.63886e-08
2.97279e-07
3.35679e-08
2.97582e-07
3.12714e-08
2.97842e-07
2.95205e-08
2.98059e-07
2.80327e-08
2.9824e-07
2.67037e-08
2.98397e-07
2.55241e-08
2.98533e-07
2.44799e-08
2.98651e-07
2.35476e-08
2.98752e-07
2.27077e-08
2.9884e-07
2.19465e-08
2.98915e-07
2.12538e-08
2.98978e-07
2.06216e-08
2.99031e-07
2.00432e-08
2.99073e-07
1.95134e-08
2.99107e-07
1.9028e-08
2.99131e-07
1.85839e-08
2.99148e-07
1.81787e-08
2.99156e-07
1.78107e-08
2.99157e-07
1.74787e-08
2.99149e-07
1.71819e-08
2.99134e-07
1.69199e-08
2.99112e-07
1.66923e-08
2.99082e-07
1.64992e-08
2.99043e-07
1.63409e-08
2.98997e-07
1.62176e-08
2.98942e-07
1.61302e-08
2.98879e-07
1.60793e-08
2.98808e-07
1.60663e-08
2.98727e-07
1.60917e-08
2.98638e-07
1.61577e-08
2.9854e-07
1.62644e-08
2.98432e-07
1.64143e-08
2.98315e-07
1.66068e-08
2.98189e-07
1.68442e-08
2.98053e-07
1.71247e-08
2.97908e-07
1.74476e-08
2.97753e-07
1.78112e-08
2.97588e-07
1.82049e-08
2.97412e-07
1.86299e-08
2.97219e-07
1.90556e-08
2.97009e-07
1.94911e-08
2.96763e-07
1.98869e-08
2.96476e-07
2.02707e-08
2.06343e-08
2.96119e-07
2.98845e-07
3.01118e-08
3.01827e-07
5.26805e-08
3.03086e-07
4.61755e-08
3.04073e-07
3.98484e-08
3.04918e-07
3.78878e-08
3.05459e-07
3.58477e-08
3.05824e-07
3.32026e-08
3.06132e-07
3.09631e-08
3.06398e-07
2.92543e-08
3.06619e-07
2.78118e-08
3.06804e-07
2.65189e-08
3.06962e-07
2.53657e-08
3.071e-07
2.43429e-08
3.07218e-07
2.34293e-08
3.0732e-07
2.26058e-08
3.07407e-07
2.18592e-08
3.07481e-07
2.11796e-08
3.07543e-07
2.05594e-08
3.07595e-07
1.99919e-08
3.07636e-07
1.94723e-08
3.07667e-07
1.89964e-08
3.0769e-07
1.85611e-08
3.07705e-07
1.81644e-08
3.07711e-07
1.78045e-08
3.07709e-07
1.74804e-08
3.07699e-07
1.71914e-08
3.07682e-07
1.6937e-08
3.07658e-07
1.67171e-08
3.07625e-07
1.65317e-08
3.07585e-07
1.63812e-08
3.07536e-07
1.62659e-08
3.0748e-07
1.61865e-08
3.07416e-07
1.61438e-08
3.07343e-07
1.61391e-08
3.07262e-07
1.6173e-08
3.07172e-07
1.62474e-08
3.07073e-07
1.63628e-08
3.06966e-07
1.65214e-08
3.0685e-07
1.67228e-08
3.06726e-07
1.69688e-08
3.06592e-07
1.72583e-08
3.0645e-07
1.75899e-08
3.06298e-07
1.79626e-08
3.06137e-07
1.83664e-08
3.05965e-07
1.88018e-08
3.05777e-07
1.92437e-08
3.05571e-07
1.96967e-08
3.05332e-07
2.01267e-08
3.0505e-07
2.05526e-08
2.09815e-08
3.04702e-07
3.07665e-07
2.72342e-08
3.10598e-07
4.97475e-08
3.11877e-07
4.48964e-08
3.12842e-07
3.88839e-08
3.13695e-07
3.70345e-08
3.14263e-07
3.528e-08
3.14641e-07
3.2824e-08
3.14955e-07
3.06497e-08
3.15226e-07
2.89828e-08
3.15452e-07
2.75857e-08
3.1564e-07
2.63307e-08
3.15801e-07
2.52052e-08
3.15939e-07
2.42045e-08
3.16058e-07
2.33101e-08
3.16161e-07
2.25037e-08
3.16248e-07
2.17721e-08
3.16321e-07
2.11061e-08
3.16382e-07
2.04981e-08
3.16432e-07
1.99419e-08
3.16472e-07
1.94327e-08
3.16502e-07
1.89664e-08
3.16523e-07
1.85403e-08
3.16535e-07
1.81522e-08
3.16539e-07
1.78006e-08
3.16535e-07
1.74846e-08
3.16523e-07
1.72034e-08
3.16503e-07
1.69568e-08
3.16475e-07
1.67447e-08
3.1644e-07
1.65671e-08
3.16397e-07
1.64244e-08
3.16346e-07
1.6317e-08
3.16286e-07
1.62458e-08
3.16219e-07
1.62112e-08
3.16143e-07
1.62148e-08
3.16059e-07
1.62571e-08
3.15966e-07
1.634e-08
3.15865e-07
1.6464e-08
3.15756e-07
1.6631e-08
3.15637e-07
1.68412e-08
3.1551e-07
1.70956e-08
3.15375e-07
1.73939e-08
3.15231e-07
1.77342e-08
3.15077e-07
1.81158e-08
3.14914e-07
1.85299e-08
3.1474e-07
1.89758e-08
3.1455e-07
1.9434e-08
3.14341e-07
1.99057e-08
3.14098e-07
2.0369e-08
3.13813e-07
2.08375e-08
2.13284e-08
3.13466e-07
3.16775e-07
2.46104e-08
3.19649e-07
4.68739e-08
3.20954e-07
4.35913e-08
3.21896e-07
3.79415e-08
3.22753e-07
3.61781e-08
3.23346e-07
3.46864e-08
3.23739e-07
3.24307e-08
3.24058e-07
3.03308e-08
3.24335e-07
2.87059e-08
3.24567e-07
2.73544e-08
3.24759e-07
2.61387e-08
3.24921e-07
2.50424e-08
3.25061e-07
2.40646e-08
3.25181e-07
2.319e-08
3.25284e-07
2.24012e-08
3.25371e-07
2.16852e-08
3.25444e-07
2.10331e-08
3.25504e-07
2.04377e-08
3.25553e-07
1.98931e-08
3.25591e-07
1.93945e-08
3.2562e-07
1.89382e-08
3.25638e-07
1.85214e-08
3.25649e-07
1.81421e-08
3.2565e-07
1.7799e-08
3.25644e-07
1.74911e-08
3.25629e-07
1.7218e-08
3.25606e-07
1.69793e-08
3.25576e-07
1.67751e-08
3.25538e-07
1.66055e-08
3.25491e-07
1.64708e-08
3.25437e-07
1.63714e-08
3.25374e-07
1.63083e-08
3.25303e-07
1.62821e-08
3.25224e-07
1.6294e-08
3.25137e-07
1.63448e-08
3.2504e-07
1.64362e-08
3.24936e-07
1.65688e-08
3.24822e-07
1.67444e-08
3.247e-07
1.69632e-08
3.2457e-07
1.72262e-08
3.2443e-07
1.75333e-08
3.24282e-07
1.78825e-08
3.24125e-07
1.82732e-08
3.23957e-07
1.86979e-08
3.23777e-07
1.9155e-08
3.23582e-07
1.96299e-08
3.23366e-07
2.01215e-08
3.23117e-07
2.06178e-08
3.22825e-07
2.11291e-08
2.16799e-08
3.22474e-07
3.26185e-07
2.22278e-08
3.28988e-07
4.40709e-08
3.30324e-07
4.22559e-08
3.31245e-07
3.702e-08
3.321e-07
3.53231e-08
3.32718e-07
3.40683e-08
3.33128e-07
3.20213e-08
3.33452e-07
3.00059e-08
3.33735e-07
2.84238e-08
3.33971e-07
2.71176e-08
3.34167e-07
2.59427e-08
3.34333e-07
2.48769e-08
3.34474e-07
2.3923e-08
3.34596e-07
2.30689e-08
3.34699e-07
2.22981e-08
3.34786e-07
2.15982e-08
3.34858e-07
2.09604e-08
3.34918e-07
2.0378e-08
3.34966e-07
1.98453e-08
3.35003e-07
1.93576e-08
3.35029e-07
1.89115e-08
3.35047e-07
1.85043e-08
3.35055e-07
1.81341e-08
3.35054e-07
1.77996e-08
3.35045e-07
1.75001e-08
3.35028e-07
1.72351e-08
3.35003e-07
1.70046e-08
3.34969e-07
1.68084e-08
3.34928e-07
1.66468e-08
3.34879e-07
1.65202e-08
3.34821e-07
1.64291e-08
3.34755e-07