/*--------------------------------*- C++ -*----------------------------------*\
  =========                 |
  \\      /  F ield         | OpenFOAM: The Open Source CFD Toolbox
   \\    /   O peration     | Website:  https://openfoam.org
    \\  /    A nd           | Version:  7
     \\/     M anipulation  |
\*---------------------------------------------------------------------------*/
FoamFile
{
    version     2.0;
    format      ascii;
    class       volVectorField;
    location    "0.27";
    object      U;
}
// * * * * * * * * * * * * * * * * * * * * * * * * * * * * * * * * * * * * * //

dimensions      [0 1 -1 0 0 0 0];

internalField   nonuniform List<vector> 
70000
(
(0.55341 0.0169784 0)
(0.251395 0.00340084 0)
(0.165876 0.000319436 0)
(0.132359 4.94212e-05 0)
(0.117216 4.44723e-05 0)
(0.107216 5.26529e-05 0)
(0.0991986 4.48696e-05 0)
(0.092706 3.58172e-05 0)
(0.08741 2.98073e-05 0)
(0.0829863 2.56979e-05 0)
(0.0792067 2.25652e-05 0)
(0.0759237 2.00628e-05 0)
(0.0730358 1.8031e-05 0)
(0.0704689 1.63612e-05 0)
(0.0681666 1.49733e-05 0)
(0.0660851 1.38081e-05 0)
(0.0641898 1.28219e-05 0)
(0.0624532 1.19815e-05 0)
(0.0608526 1.1262e-05 0)
(0.0593695 1.06439e-05 0)
(0.0579884 1.01123e-05 0)
(0.0566961 9.65525e-06 0)
(0.0554815 9.2635e-06 0)
(0.0543348 8.92962e-06 0)
(0.0532477 8.6476e-06 0)
(0.0522126 8.41283e-06 0)
(0.0512229 8.22112e-06 0)
(0.0502727 8.07012e-06 0)
(0.0493567 7.95565e-06 0)
(0.0484697 7.87825e-06 0)
(0.0476073 7.83136e-06 0)
(0.0467652 7.82005e-06 0)
(0.0459396 7.8317e-06 0)
(0.0451264 7.87929e-06 0)
(0.0443227 7.93864e-06 0)
(0.0435247 8.03347e-06 0)
(0.0427297 8.12642e-06 0)
(0.0419354 8.24033e-06 0)
(0.0411374 8.35651e-06 0)
(0.040339 8.40882e-06 0)
(0.039528 8.58168e-06 0)
(0.0387259 8.32679e-06 0)
(0.0378913 8.78871e-06 0)
(0.0371052 7.47218e-06 0)
(0.0362292 9.17657e-06 0)
(0.035527 4.48384e-06 0)
(0.0345636 1.0808e-05 0)
(0.0341126 -4.47658e-06 0)
(0.0331283 1.95527e-05 0)
(0.0307373 -0.00123157 0)
(0.884861 0.0434945 0)
(0.650116 0.0201516 0)
(0.493884 0.0066085 0)
(0.403381 0.00275933 0)
(0.354575 0.00155315 0)
(0.323153 0.00113747 0)
(0.299133 0.000915582 0)
(0.279794 0.000751489 0)
(0.263941 0.000629281 0)
(0.250673 0.000539283 0)
(0.239338 0.000471079 0)
(0.229495 0.000417517 0)
(0.220838 0.000374361 0)
(0.213144 0.000338971 0)
(0.206244 0.000309552 0)
(0.200008 0.00028482 0)
(0.194332 0.00026383 0)
(0.189133 0.000245877 0)
(0.184345 0.000230426 0)
(0.179911 0.000217065 0)
(0.175786 0.000205475 0)
(0.17193 0.000195404 0)
(0.16831 0.000186654 0)
(0.164897 0.000179068 0)
(0.161667 0.00017252 0)
(0.158595 0.000166911 0)
(0.155665 0.000162158 0)
(0.152856 0.000158202 0)
(0.150154 0.00015499 0)
(0.147544 0.000152488 0)
(0.145012 0.000150658 0)
(0.142545 0.000149496 0)
(0.140132 0.000148954 0)
(0.137761 0.000149067 0)
(0.135423 0.000149745 0)
(0.133106 0.000151091 0)
(0.1308 0.000152903 0)
(0.128499 0.000155403 0)
(0.126189 0.000158188 0)
(0.123875 0.000161614 0)
(0.121522 0.00016508 0)
(0.119184 0.000168758 0)
(0.116747 0.000172503 0)
(0.114418 0.000174458 0)
(0.11183 0.000178494 0)
(0.109662 0.0001725 0)
(0.10678 0.000181623 0)
(0.105153 0.00013054 0)
(0.102054 0.00030005 0)
(0.0985384 -0.00207407 0)
(0.991209 0.0499578 0)
(0.890899 0.0305685 0)
(0.7624 0.0146196 0)
(0.656339 0.00798224 0)
(0.585103 0.00489306 0)
(0.535579 0.00348989 0)
(0.49751 0.00275541 0)
(0.466685 0.00226266 0)
(0.441161 0.00190037 0)
(0.419629 0.00163018 0)
(0.401142 0.00142418 0)
(0.385033 0.00126236 0)
(0.370825 0.00113201 0)
(0.358171 0.00102506 0)
(0.346803 0.000936084 0)
(0.336513 0.000861195 0)
(0.327139 0.000797556 0)
(0.318546 0.000743045 0)
(0.310628 0.000696052 0)
(0.303294 0.000655335 0)
(0.29647 0.000619933 0)
(0.290093 0.000589086 0)
(0.284108 0.000562196 0)
(0.278468 0.000538785 0)
(0.273133 0.000518473 0)
(0.268067 0.000500955 0)
(0.263237 0.000485992 0)
(0.258616 0.000473391 0)
(0.254177 0.000463001 0)
(0.249895 0.000454717 0)
(0.24575 0.000448437 0)
(0.24172 0.000444128 0)
(0.237787 0.0004417 0)
(0.233931 0.000441214 0)
(0.230137 0.000442495 0)
(0.226385 0.000445777 0)
(0.22266 0.00045062 0)
(0.218949 0.000457622 0)
(0.215229 0.000465696 0)
(0.211506 0.000476178 0)
(0.207725 0.000486678 0)
(0.203961 0.000499769 0)
(0.200044 0.000510991 0)
(0.196268 0.000523927 0)
(0.192098 0.000533136 0)
(0.188498 0.000535977 0)
(0.18385 0.000547223 0)
(0.180915 0.000462866 0)
(0.175742 0.000703134 0)
(0.172265 -0.00185566 0)
(1.01554 0.0489565 0)
(1.00648 0.0357327 0)
(0.935818 0.0208338 0)
(0.851845 0.013518 0)
(0.781932 0.00922163 0)
(0.726611 0.00681087 0)
(0.681317 0.0054182 0)
(0.643325 0.00448009 0)
(0.611056 0.00378831 0)
(0.583319 0.00326519 0)
(0.559176 0.00286171 0)
(0.537923 0.00254256 0)
(0.51903 0.0022843 0)
(0.502095 0.00207162 0)
(0.486803 0.00189405 0)
(0.472905 0.00174413 0)
(0.460198 0.00161637 0)
(0.448518 0.00150663 0)
(0.43773 0.00141177 0)
(0.42772 0.00132936 0)
(0.418392 0.00125751 0)
(0.409664 0.00119472 0)
(0.401468 0.00113979 0)
(0.39374 0.00109179 0)
(0.386429 0.00104995 0)
(0.379486 0.00101366 0)
(0.372871 0.000982445 0)
(0.366544 0.000955918 0)
(0.360472 0.00093378 0)
(0.354622 0.000915807 0)
(0.348967 0.000901816 0)
(0.343477 0.000891722 0)
(0.338129 0.000885383 0)
(0.332897 0.000882882 0)
(0.327758 0.000883966 0)
(0.322688 0.000889028 0)
(0.317667 0.000897359 0)
(0.312675 0.000910064 0)
(0.307683 0.000925171 0)
(0.302693 0.000945481 0)
(0.29764 0.000965963 0)
(0.292603 0.000993247 0)
(0.287383 0.0010156 0)
(0.282314 0.00104721 0)
(0.276771 0.00106443 0)
(0.271855 0.00108819 0)
(0.265715 0.00110038 0)
(0.261464 0.00100557 0)
(0.25454 0.00123521 0)
(0.250659 -0.00111121 0)
(1.01435 0.0461013 0)
(1.04797 0.0373517 0)
(1.02452 0.0242059 0)
(0.974557 0.0175847 0)
(0.923241 0.0131432 0)
(0.876349 0.010246 0)
(0.833984 0.00839182 0)
(0.796 0.00707428 0)
(0.762177 0.00606818 0)
(0.732074 0.0052851 0)
(0.705182 0.00466757 0)
(0.68103 0.00417128 0)
(0.659221 0.0037649 0)
(0.639425 0.00342706 0)
(0.621364 0.0031428 0)
(0.604809 0.0029012 0)
(0.589565 0.00269411 0)
(0.575469 0.00251534 0)
(0.562384 0.0023601 0)
(0.550191 0.00222465 0)
(0.538787 0.00210608 0)
(0.528086 0.00200203 0)
(0.51801 0.00191065 0)
(0.508492 0.00183044 0)
(0.499472 0.0017602 0)
(0.490896 0.00169895 0)
(0.482717 0.00164593 0)
(0.474891 0.0016005 0)
(0.467379 0.00156221 0)
(0.460143 0.00153067 0)
(0.453151 0.00150561 0)
(0.446369 0.00148688 0)
(0.439769 0.00147428 0)
(0.43332 0.00146792 0)
(0.426996 0.00146748 0)
(0.420769 0.00147351 0)
(0.414613 0.00148506 0)
(0.408505 0.0015038 0)
(0.402411 0.00152682 0)
(0.396329 0.00155861 0)
(0.390189 0.00159116 0)
(0.384064 0.00163592 0)
(0.377751 0.00167266 0)
(0.371578 0.00172834 0)
(0.364915 0.00175782 0)
(0.358849 0.00181034 0)
(0.351553 0.00182707 0)
(0.346048 0.00174037 0)
(0.337916 0.00192677 0)
(0.332901 -0.000149565 0)
(1.0094 0.0430512 0)
(1.05563 0.0371085 0)
(1.05864 0.0253507 0)
(1.03622 0.0197957 0)
(1.00695 0.0158404 0)
(0.975802 0.0129861 0)
(0.944097 0.0110236 0)
(0.913012 0.00954828 0)
(0.883407 0.0083642 0)
(0.855665 0.00740327 0)
(0.829867 0.0066201 0)
(0.805954 0.0059744 0)
(0.783805 0.00543496 0)
(0.763279 0.00497917 0)
(0.744231 0.00459048 0)
(0.726519 0.00425639 0)
(0.710014 0.00396727 0)
(0.694595 0.0037156 0)
(0.680156 0.00349545 0)
(0.666599 0.00330213 0)
(0.653839 0.00313187 0)
(0.641796 0.00298165 0)
(0.630403 0.00284902 0)
(0.619595 0.00273199 0)
(0.609316 0.00262896 0)
(0.599514 0.00253862 0)
(0.590142 0.00245993 0)
(0.581156 0.00239204 0)
(0.572516 0.00233431 0)
(0.564185 0.00228623 0)
(0.556127 0.00224744 0)
(0.548308 0.00221771 0)
(0.540698 0.00219683 0)
(0.533264 0.00218491 0)
(0.52598 0.00218159 0)
(0.518812 0.00218763 0)
(0.511736 0.00220182 0)
(0.504722 0.00222643 0)
(0.497739 0.00225766 0)
(0.490776 0.00230169 0)
(0.483767 0.00234769 0)
(0.476771 0.00241175 0)
(0.4696 0.00246568 0)
(0.462544 0.00254823 0)
(0.455031 0.00259509 0)
(0.448023 0.00267915 0)
(0.439917 0.00270899 0)
(0.433294 0.00263596 0)
(0.424474 0.00278764 0)
(0.418082 0.000964532 0)
(1.00635 0.0401837 0)
(1.0524 0.0361629 0)
(1.06602 0.0252766 0)
(1.05946 0.0206052 0)
(1.04676 0.0172747 0)
(1.03061 0.0147147 0)
(1.01157 0.0128961 0)
(0.990705 0.0114813 0)
(0.969076 0.0102939 0)
(0.947413 0.00928794 0)
(0.926163 0.00843731 0)
(0.905591 0.00771399 0)
(0.885844 0.00709374 0)
(0.866995 0.00655799 0)
(0.849062 0.0060925 0)
(0.832033 0.00568595 0)
(0.815878 0.00532926 0)
(0.800552 0.00501505 0)
(0.786007 0.00473733 0)
(0.772193 0.00449118 0)
(0.759058 0.00427262 0)
(0.746552 0.00407833 0)
(0.734627 0.00390562 0)
(0.723238 0.00375226 0)
(0.712341 0.00361641 0)
(0.701895 0.00349659 0)
(0.691861 0.00339157 0)
(0.682201 0.00330038 0)
(0.672882 0.00322228 0)
(0.663868 0.00315667 0)
(0.655129 0.00310315 0)
(0.646633 0.00306147 0)
(0.638351 0.00303141 0)
(0.630252 0.00301315 0)
(0.622309 0.00300631 0)
(0.614492 0.00301183 0)
(0.606774 0.00302839 0)
(0.599126 0.00305874 0)
(0.591518 0.00309844 0)
(0.583934 0.00315507 0)
(0.576315 0.00321555 0)
(0.568703 0.00329973 0)
(0.56094 0.00337328 0)
(0.553253 0.00348346 0)
(0.545177 0.0035531 0)
(0.537474 0.0036677 0)
(0.528882 0.00372126 0)
(0.521377 0.00366121 0)
(0.512234 0.00379484 0)
(0.504697 0.00221532 0)
(1.00506 0.037507 0)
(1.04761 0.0350659 0)
(1.06392 0.0247313 0)
(1.06412 0.0206399 0)
(1.06058 0.0178187 0)
(1.05461 0.0155639 0)
(1.04574 0.0139637 0)
(1.03441 0.0127173 0)
(1.02132 0.0116442 0)
(1.00708 0.0107046 0)
(0.99214 0.00988486 0)
(0.976859 0.00916736 0)
(0.961502 0.00853551 0)
(0.946264 0.00797644 0)
(0.931282 0.00748015 0)
(0.91665 0.0070384 0)
(0.902426 0.00664426 0)
(0.888644 0.00629187 0)
(0.875322 0.00597628 0)
(0.862462 0.00569329 0)
(0.850059 0.00543937 0)
(0.8381 0.00521154 0)
(0.826569 0.00500731 0)
(0.815445 0.00482457 0)
(0.804706 0.00466158 0)
(0.794329 0.00451687 0)
(0.78429 0.00438928 0)
(0.774565 0.00427784 0)
(0.765129 0.00418183 0)
(0.755958 0.0041007 0)
(0.747027 0.00403407 0)
(0.738311 0.00398177 0)
(0.729786 0.00394362 0)
(0.721426 0.00391991 0)
(0.713208 0.00391033 0)
(0.705105 0.003916 0)
(0.697093 0.00393558 0)
(0.689145 0.00397225 0)
(0.681234 0.00402116 0)
(0.673342 0.00409094 0)
(0.66542 0.00416709 0)
(0.657492 0.00427179 0)
(0.649434 0.00436728 0)
(0.641412 0.00450478 0)
(0.633072 0.00460221 0)
(0.624972 0.00474504 0)
(0.616194 0.00483118 0)
(0.608133 0.00478537 0)
(0.598923 0.00491152 0)
(0.590656 0.00357308 0)
(1.00451 0.0349715 0)
(1.04358 0.0339872 0)
(1.0599 0.0240825 0)
(1.06217 0.0203537 0)
(1.06242 0.0178881 0)
(1.06169 0.0158498 0)
(1.05904 0.0144259 0)
(1.05438 0.0133481 0)
(1.04803 0.0124203 0)
(1.04029 0.011596 0)
(1.03144 0.0108641 0)
(1.02174 0.0102109 0)
(1.01141 0.00962368 0)
(1.00066 0.00909328 0)
(0.989635 0.00861297 0)
(0.97848 0.00817741 0)
(0.967294 0.00778203 0)
(0.956158 0.00742292 0)
(0.945134 0.00709665 0)
(0.934264 0.00680026 0)
(0.923582 0.00653119 0)
(0.913109 0.00628722 0)
(0.902857 0.00606645 0)
(0.892833 0.00586724 0)
(0.883038 0.00568823 0)
(0.87347 0.00552826 0)
(0.864121 0.00538641 0)
(0.854983 0.00526192 0)
(0.846044 0.00515425 0)
(0.837292 0.00506301 0)
(0.828713 0.00498798 0)
(0.820291 0.00492913 0)
(0.812009 0.00488645 0)
(0.80385 0.00486038 0)
(0.795795 0.00485076 0)
(0.787824 0.00485892 0)
(0.779918 0.00488361 0)
(0.772053 0.00492836 0)
(0.764209 0.00498822 0)
(0.756366 0.00507241 0)
(0.748487 0.00516593 0)
(0.740583 0.00529185 0)
(0.732561 0.00541161 0)
(0.724533 0.00557608 0)
(0.716247 0.00570543 0)
(0.708084 0.00587493 0)
(0.699418 0.00599911 0)
(0.691171 0.00597272 0)
(0.682132 0.00609774 0)
(0.673566 0.00499362 0)
(1.00412 0.0325415 0)
(1.04025 0.0329352 0)
(1.05614 0.0234501 0)
(1.05881 0.0199722 0)
(1.06015 0.0177632 0)
(1.06147 0.0158579 0)
(1.06178 0.0145372 0)
(1.06079 0.013577 0)
(1.05863 0.0127676 0)
(1.05537 0.0120518 0)
(1.05112 0.011416 0)
(1.04598 0.010846 0)
(1.04007 0.0103291 0)
(1.03353 0.00985662 0)
(1.02647 0.009423 0)
(1.01899 0.00902424 0)
(1.0112 0.00865718 0)
(1.00318 0.00831921 0)
(0.994999 0.00800815 0)
(0.986716 0.00772213 0)
(0.978382 0.00745954 0)
(0.970036 0.00721902 0)
(0.96171 0.00699937 0)
(0.953427 0.00679959 0)
(0.945207 0.00661882 0)
(0.937061 0.00645637 0)
(0.928999 0.0063117 0)
(0.921026 0.0061844 0)
(0.913142 0.00607422 0)
(0.905346 0.00598105 0)
(0.897636 0.00590493 0)
(0.890003 0.00584605 0)
(0.882442 0.00580464 0)
(0.874941 0.00578136 0)
(0.867491 0.00577627 0)
(0.860076 0.00579096 0)
(0.852685 0.00582436 0)
(0.845299 0.00588027 0)
(0.837904 0.00595391 0)
(0.830482 0.00605475 0)
(0.823007 0.00616802 0)
(0.815481 0.00631646 0)
(0.807839 0.00646296 0)
(0.800151 0.00665463 0)
(0.792244 0.00681906 0)
(0.784369 0.00701517 0)
(0.776114 0.00718005 0)
(0.76806 0.0071806 0)
(0.759448 0.00731017 0)
(0.750986 0.00642761 0)
(1.00374 0.0302077 0)
(1.03726 0.0318874 0)
(1.0528 0.0228488 0)
(1.05557 0.0195732 0)
(1.05705 0.0175769 0)
(1.05893 0.0157614 0)
(1.06031 0.0144897 0)
(1.06093 0.0135946 0)
(1.06084 0.0128607 0)
(1.06008 0.0122213 0)
(1.05864 0.0116602 0)
(1.05653 0.0111621 0)
(1.05379 0.0107125 0)
(1.05046 0.0103016 0)
(1.0466 0.00992346 0)
(1.04227 0.00957383 0)
(1.03752 0.00924975 0)
(1.03243 0.008949 0)
(1.02703 0.00866987 0)
(1.02139 0.00841105 0)
(1.01554 0.0081715 0)
(1.00953 0.00795042 0)
(1.0034 0.00774716 0)
(0.997161 0.00756122 0)
(0.990851 0.00739224 0)
(0.984488 0.00723994 0)
(0.978087 0.00710418 0)
(0.971662 0.00698491 0)
(0.965222 0.00688222 0)
(0.958774 0.0067963 0)
(0.952321 0.00672748 0)
(0.945866 0.00667625 0)
(0.939408 0.00664308 0)
(0.932943 0.00662892 0)
(0.926468 0.00663408 0)
(0.919974 0.0066604 0)
(0.913456 0.00670709 0)
(0.9069 0.00677816 0)
(0.900298 0.00686918 0)
(0.893636 0.0069896 0)
(0.886897 0.00712549 0)
(0.880078 0.00729831 0)
(0.873136 0.007474 0)
(0.866111 0.00769369 0)
(0.858893 0.00789546 0)
(0.851634 0.00811933 0)
(0.844078 0.00832583 0)
(0.836565 0.00836142 0)
(0.828639 0.0085019 0)
(0.820649 0.00782428 0)
(1.00337 0.0279726 0)
(1.03442 0.0308317 0)
(1.04969 0.0222726 0)
(1.05261 0.0191715 0)
(1.05405 0.0173722 0)
(1.05599 0.0156358 0)
(1.05764 0.0143873 0)
(1.05878 0.0135244 0)
(1.05951 0.0128325 0)
(1.05987 0.0122381 0)
(1.05984 0.011724 0)
(1.0594 0.0112747 0)
(1.05853 0.0108747 0)
(1.05724 0.010513 0)
(1.05555 0.0101825 0)
(1.05346 0.00987838 0)
(1.051 0.00959712 0)
(1.04819 0.00933622 0)
(1.04508 0.00909385 0)
(1.04168 0.00886871 0)
(1.03803 0.00865986 0)
(1.03416 0.00846669 0)
(1.03009 0.00828877 0)
(1.02584 0.00812588 0)
(1.02143 0.00797792 0)
(1.0169 0.00784491 0)
(1.01224 0.00772698 0)
(1.00749 0.00762437 0)
(1.00264 0.00753744 0)
(0.997709 0.00746663 0)
(0.992705 0.00741255 0)
(0.987633 0.00737592 0)
(0.982495 0.0073575 0)
(0.977292 0.00735845 0)
(0.972027 0.00737937 0)
(0.966694 0.00742233 0)
(0.961292 0.00748682 0)
(0.955813 0.00757705 0)
(0.950253 0.00768903 0)
(0.944603 0.00783197 0)
(0.938849 0.00799319 0)
(0.932992 0.00819225 0)
(0.927 0.00839917 0)
(0.920899 0.00864785 0)
(0.914616 0.00888822 0)
(0.908241 0.00914151 0)
(0.901623 0.00938942 0)
(0.894939 0.00946737 0)
(0.887927 0.00962567 0)
(0.880711 0.00913454 0)
(1.00301 0.0258399 0)
(1.0317 0.0297638 0)
(1.0467 0.0217176 0)
(1.04981 0.018767 0)
(1.05123 0.0171558 0)
(1.05313 0.0155033 0)
(1.05482 0.0142713 0)
(1.05608 0.0134257 0)
(1.05705 0.0127582 0)
(1.0578 0.012189 0)
(1.05834 0.0117011 0)
(1.05864 0.0112801 0)
(1.0587 0.0109108 0)
(1.0585 0.0105815 0)
(1.05803 0.0102844 0)
(1.05729 0.0100141 0)
(1.05629 0.00976656 0)
(1.05502 0.00953886 0)
(1.0535 0.00932881 0)
(1.05173 0.00913484 0)
(1.04974 0.00895586 0)
(1.04753 0.00879114 0)
(1.04512 0.00864027 0)
(1.04252 0.00850304 0)
(1.03975 0.00837943 0)
(1.03682 0.00826957 0)
(1.03374 0.00817373 0)
(1.03051 0.00809228 0)
(1.02717 0.00802574 0)
(1.02369 0.00797474 0)
(1.02011 0.00794004 0)
(1.01642 0.00792258 0)
(1.01262 0.00792326 0)
(1.00873 0.00794351 0)
(1.00473 0.00798408 0)
(1.00063 0.00804728 0)
(0.996438 0.00813286 0)
(0.992138 0.00824512 0)
(0.987732 0.00838061 0)
(0.983215 0.00854811 0)
(0.978578 0.00873643 0)
(0.973819 0.00896284 0)
(0.96892 0.00920196 0)
(0.963893 0.00948006 0)
(0.958698 0.00975894 0)
(0.953375 0.010043 0)
(0.947847 0.010331 0)
(0.942183 0.0104568 0)
(0.936239 0.0106397 0)
(0.930011 0.010316 0)
(1.00268 0.0238119 0)
(1.0291 0.0286822 0)
(1.04379 0.0211835 0)
(1.04712 0.0183596 0)
(1.04855 0.0169262 0)
(1.05041 0.0153666 0)
(1.05209 0.0141527 0)
(1.05336 0.0133198 0)
(1.05436 0.01267 0)
(1.05521 0.012117 0)
(1.05593 0.0116442 0)
(1.0565 0.0112391 0)
(1.05693 0.0108872 0)
(1.0572 0.0105768 0)
(1.05732 0.0103001 0)
(1.05728 0.0100514 0)
(1.05706 0.00982651 0)
(1.05667 0.00962211 0)
(1.0561 0.00943579 0)
(1.05536 0.00926573 0)
(1.05445 0.00911063 0)
(1.05336 0.00896961 0)
(1.05212 0.00884211 0)
(1.05071 0.00872785 0)
(1.04915 0.00862679 0)
(1.04744 0.00853902 0)
(1.04559 0.00846485 0)
(1.0436 0.00840468 0)
(1.04148 0.00835909 0)
(1.03924 0.00832879 0)
(1.03687 0.00831463 0)
(1.03438 0.00831765 0)
(1.03178 0.00833887 0)
(1.02906 0.00837986 0)
(1.02623 0.00844151 0)
(1.02329 0.00852627 0)
(1.02024 0.00863411 0)
(1.01707 0.00876936 0)
(1.01378 0.0089291 0)
(1.01038 0.00912152 0)
(1.00685 0.00933711 0)
(1.0032 0.00959054 0)
(0.999406 0.00986127 0)
(0.99548 0.010168 0)
(0.9914 0.0104837 0)
(0.987178 0.0107988 0)
(0.982779 0.0111243 0)
(0.97821 0.011301 0)
(0.973387 0.011514 0)
(0.968244 0.011339 0)
(1.00238 0.0218906 0)
(1.02663 0.027586 0)
(1.04097 0.0206698 0)
(1.04452 0.0179507 0)
(1.04595 0.0166821 0)
(1.04779 0.0152242 0)
(1.04947 0.0140329 0)
(1.05073 0.0132118 0)
(1.05172 0.012578 0)
(1.05258 0.0120387 0)
(1.05332 0.0115766 0)
(1.05397 0.0111816 0)
(1.05451 0.0108401 0)
(1.05495 0.0105409 0)
(1.0553 0.0102762 0)
(1.05555 0.0100403 0)
(1.05569 0.00982917 0)
(1.05573 0.00963943 0)
(1.05565 0.00946854 0)
(1.05546 0.00931458 0)
(1.05516 0.00917612 0)
(1.05474 0.00905217 0)
(1.0542 0.00894208 0)
(1.05354 0.0088455 0)
(1.05277 0.00876229 0)
(1.05188 0.00869255 0)
(1.05088 0.00863652 0)
(1.04976 0.00859463 0)
(1.04853 0.00856743 0)
(1.0472 0.00855567 0)
(1.04575 0.00856022 0)
(1.04419 0.00858217 0)
(1.04253 0.0086226 0)
(1.04075 0.00868314 0)
(1.03888 0.00876478 0)
(1.03689 0.00887005 0)
(1.0348 0.00899909 0)
(1.03259 0.00915614 0)
(1.03028 0.00933886 0)
(1.02785 0.0095547 0)
(1.02531 0.00979586 0)
(1.02264 0.0100744 0)
(1.01985 0.0103743 0)
(1.01694 0.0107076 0)
(1.01389 0.0110565 0)
(1.0107 0.0114014 0)
(1.00736 0.0117607 0)
(1.00383 0.0119884 0)
(1.00008 0.0122352 0)
(0.996001 0.0121906 0)
(1.0021 0.0200768 0)
(1.0243 0.0264771 0)
(1.03823 0.0201744 0)
(1.04199 0.0175423 0)
(1.04345 0.0164234 0)
(1.04526 0.0150747 0)
(1.04694 0.0139111 0)
(1.0482 0.013102 0)
(1.04918 0.0124842 0)
(1.05002 0.0119585 0)
(1.05076 0.0115063 0)
(1.0514 0.0111194 0)
(1.05196 0.0107856 0)
(1.05245 0.010494 0)
(1.05287 0.010237 0)
(1.05321 0.0100092 0)
(1.05349 0.00980652 0)
(1.0537 0.00962579 0)
(1.05384 0.00946449 0)
(1.0539 0.00932068 0)
(1.05389 0.00919294 0)
(1.05381 0.00908025 0)
(1.05364 0.00898193 0)
(1.0534 0.00889759 0)
(1.05307 0.0088271 0)
(1.05267 0.0087705 0)
(1.05218 0.00872805 0)
(1.0516 0.00870014 0)
(1.05094 0.00868734 0)
(1.0502 0.00869039 0)
(1.04937 0.00871016 0)
(1.04845 0.00874778 0)
(1.04744 0.00880433 0)
(1.04635 0.00888149 0)
(1.04516 0.0089803 0)
(1.04388 0.00910328 0)
(1.04251 0.00925077 0)
(1.04104 0.00942683 0)
(1.03948 0.00962966 0)
(1.03782 0.00986589 0)
(1.03606 0.0101294 0)
(1.0342 0.0104297 0)
(1.03223 0.010755 0)
(1.03015 0.0111114 0)
(1.02796 0.0114887 0)
(1.02564 0.0118609 0)
(1.0232 0.0122493 0)
(1.02058 0.0125256 0)
(1.01776 0.012808 0)
(1.01462 0.0128762 0)
(1.00185 0.0183707 0)
(1.0221 0.0253597 0)
(1.0356 0.0196936 0)
(1.03955 0.0171363 0)
(1.04104 0.0161508 0)
(1.04281 0.0149174 0)
(1.04449 0.0137871 0)
(1.04575 0.0129902 0)
(1.04673 0.0123885 0)
(1.04755 0.0118772 0)
(1.04828 0.011435 0)
(1.04891 0.011056 0)
(1.04946 0.0107292 0)
(1.04995 0.0104441 0)
(1.05037 0.0101932 0)
(1.05074 0.00997134 0)
(1.05106 0.00977465 0)
(1.05132 0.00960003 0)
(1.05153 0.00944506 0)
(1.05169 0.00930789 0)
(1.0518 0.00918711 0)
(1.05185 0.00908175 0)
(1.05186 0.00899116 0)
(1.05181 0.00891498 0)
(1.05171 0.00885307 0)
(1.05155 0.00880551 0)
(1.05133 0.00877257 0)
(1.05105 0.00875465 0)
(1.05071 0.00875234 0)
(1.05031 0.00876637 0)
(1.04985 0.00879763 0)
(1.04932 0.00884726 0)
(1.04872 0.00891636 0)
(1.04805 0.00900661 0)
(1.04732 0.0091191 0)
(1.04651 0.00925633 0)
(1.04563 0.00941878 0)
(1.04467 0.00961028 0)
(1.04363 0.00982961 0)
(1.04252 0.0100825 0)
(1.04132 0.0103644 0)
(1.04004 0.0106825 0)
(1.03868 0.0110285 0)
(1.03722 0.0114042 0)
(1.03568 0.0118045 0)
(1.03403 0.0122004 0)
(1.03228 0.0126131 0)
(1.03038 0.0129336 0)
(1.02829 0.0132518 0)
(1.02591 0.0134167 0)
(1.00162 0.0167722 0)
(1.02003 0.0242379 0)
(1.03307 0.0192232 0)
(1.0372 0.0167341 0)
(1.03872 0.0158655 0)
(1.04046 0.0147516 0)
(1.04213 0.0136604 0)
(1.0434 0.0128764 0)
(1.04436 0.0122908 0)
(1.04518 0.0117944 0)
(1.04589 0.011363 0)
(1.04651 0.0109921 0)
(1.04705 0.0106723 0)
(1.04753 0.0103935 0)
(1.04794 0.0101483 0)
(1.0483 0.00993182 0)
(1.04862 0.00974021 0)
(1.04889 0.00957055 0)
(1.04911 0.0094205 0)
(1.0493 0.00928828 0)
(1.04944 0.00917256 0)
(1.04955 0.0090724 0)
(1.04962 0.00898723 0)
(1.04964 0.0089167 0)
(1.04963 0.00886076 0)
(1.04958 0.00881951 0)
(1.04949 0.00879325 0)
(1.04935 0.00878241 0)
(1.04917 0.00878761 0)
(1.04894 0.00880961 0)
(1.04867 0.00884931 0)
(1.04835 0.00890787 0)
(1.04798 0.0089864 0)
(1.04756 0.0090866 0)
(1.04708 0.00920959 0)
(1.04655 0.0093578 0)
(1.04596 0.00953191 0)
(1.04531 0.00973545 0)
(1.0446 0.00996774 0)
(1.04384 0.0102336 0)
(1.04301 0.0105301 0)
(1.04211 0.0108621 0)
(1.04115 0.0112244 0)
(1.04012 0.0116154 0)
(1.03903 0.0120336 0)
(1.03784 0.0124496 0)
(1.03658 0.0128821 0)
(1.03518 0.013242 0)
(1.03362 0.013595 0)
(1.03179 0.0138424 0)
(1.00142 0.0152803 0)
(1.01811 0.0231159 0)
(1.03065 0.0187593 0)
(1.03494 0.0163374 0)
(1.0365 0.0155686 0)
(1.0382 0.0145766 0)
(1.03986 0.0135308 0)
(1.04113 0.0127605 0)
(1.04209 0.0121909 0)
(1.04289 0.0117102 0)
(1.04359 0.0112901 0)
(1.0442 0.0109277 0)
(1.04473 0.0106151 0)
(1.04519 0.0103428 0)
(1.0456 0.0101034 0)
(1.04595 0.00989217 0)
(1.04625 0.00970547 0)
(1.04651 0.00954045 0)
(1.04673 0.00939486 0)
(1.04692 0.00926698 0)
(1.04707 0.00915555 0)
(1.04718 0.00905968 0)
(1.04726 0.00897884 0)
(1.04731 0.00891277 0)
(1.04733 0.00886143 0)
(1.04732 0.00882499 0)
(1.04727 0.00880379 0)
(1.04719 0.00879831 0)
(1.04707 0.00880919 0)
(1.04693 0.00883723 0)
(1.04674 0.00888334 0)
(1.04652 0.00894872 0)
(1.04625 0.00903448 0)
(1.04595 0.00914234 0)
(1.04561 0.00927344 0)
(1.04522 0.00943018 0)
(1.04479 0.00961336 0)
(1.04431 0.00982625 0)
(1.04379 0.0100687 0)
(1.04322 0.0103447 0)
(1.04261 0.0106524 0)
(1.04194 0.0109952 0)
(1.04122 0.0113701 0)
(1.04045 0.0117732 0)
(1.03963 0.0122051 0)
(1.03874 0.012638 0)
(1.03778 0.013087 0)
(1.03671 0.0134815 0)
(1.03549 0.0138682 0)
(1.03403 0.0141866 0)
(1.00124 0.0138939 0)
(1.01631 0.0219976 0)
(1.02833 0.0182981 0)
(1.03277 0.0159472 0)
(1.03437 0.0152619 0)
(1.03603 0.0143919 0)
(1.03768 0.0133979 0)
(1.03895 0.0126427 0)
(1.03991 0.0120888 0)
(1.0407 0.0116243 0)
(1.04139 0.0112162 0)
(1.04198 0.0108627 0)
(1.0425 0.0105576 0)
(1.04295 0.0102919 0)
(1.04335 0.0100585 0)
(1.04368 0.00985273 0)
(1.04398 0.00967101 0)
(1.04423 0.00951064 0)
(1.04444 0.00936946 0)
(1.04462 0.00924581 0)
(1.04476 0.00913846 0)
(1.04487 0.00904659 0)
(1.04495 0.00896972 0)
(1.045 0.00890762 0)
(1.04502 0.00886032 0)
(1.04501 0.00882805 0)
(1.04497 0.00881116 0)
(1.04491 0.0088102 0)
(1.04482 0.00882582 0)
(1.04469 0.00885888 0)
(1.04454 0.0089103 0)
(1.04435 0.00898129 0)
(1.04413 0.009073 0)
(1.04388 0.00918712 0)
(1.0436 0.00932487 0)
(1.04328 0.00948854 0)
(1.04292 0.00967911 0)
(1.04253 0.00989957 0)
(1.0421 0.0101502 0)
(1.04163 0.0104343 0)
(1.04113 0.0107511 0)
(1.04058 0.0111025 0)
(1.04 0.0114873 0)
(1.03937 0.0119003 0)
(1.0387 0.012343 0)
(1.03797 0.0127905 0)
(1.03719 0.0132539 0)
(1.0363 0.0136791 0)
(1.03528 0.0140986 0)
(1.03404 0.014479 0)
(1.00107 0.0126107 0)
(1.01466 0.020887 0)
(1.02612 0.0178362 0)
(1.03068 0.0155644 0)
(1.03233 0.0149472 0)
(1.03395 0.0141972 0)
(1.03558 0.0132611 0)
(1.03686 0.0125229 0)
(1.03782 0.0119845 0)
(1.0386 0.0115366 0)
(1.03927 0.0111412 0)
(1.03986 0.010797 0)
(1.04037 0.0104997 0)
(1.04081 0.0102409 0)
(1.04119 0.0100137 0)
(1.04152 0.0098135 0)
(1.0418 0.00963691 0)
(1.04204 0.00948133 0)
(1.04224 0.00934465 0)
(1.04241 0.00922527 0)
(1.04254 0.00912203 0)
(1.04264 0.00903414 0)
(1.04271 0.00896117 0)
(1.04275 0.00890295 0)
(1.04277 0.00885955 0)
(1.04276 0.00883123 0)
(1.04272 0.0088184 0)
(1.04266 0.00882165 0)
(1.04256 0.00884165 0)
(1.04244 0.0088793 0)
(1.0423 0.00893553 0)
(1.04212 0.00901157 0)
(1.04192 0.00910861 0)
(1.04168 0.0092283 0)
(1.04142 0.00937193 0)
(1.04112 0.0095417 0)
(1.0408 0.00973874 0)
(1.04044 0.00996576 0)
(1.04005 0.0102234 0)
(1.03963 0.0105145 0)
(1.03917 0.0108389 0)
(1.03868 0.0111978 0)
(1.03816 0.0115908 0)
(1.0376 0.0120124 0)
(1.03701 0.0124643 0)
(1.03637 0.012925 0)
(1.03567 0.013402 0)
(1.03487 0.0138553 0)
(1.03396 0.014307 0)
(1.03284 0.0147433 0)
(1.00093 0.0114281 0)
(1.01313 0.0197883 0)
(1.02402 0.0173706 0)
(1.02868 0.0151898 0)
(1.03039 0.0146264 0)
(1.03197 0.013992 0)
(1.03358 0.0131199 0)
(1.03486 0.0124012 0)
(1.03581 0.011878 0)
(1.03659 0.0114469 0)
(1.03725 0.011065 0)
(1.03783 0.0107306 0)
(1.03833 0.0104413 0)
(1.03876 0.0101897 0)
(1.03913 0.0099689 0)
(1.03945 0.00977446 0)
(1.03972 0.00960317 0)
(1.03995 0.00945251 0)
(1.04014 0.00932045 0)
(1.0403 0.00920547 0)
(1.04042 0.00910643 0)
(1.04051 0.0090226 0)
(1.04057 0.00895359 0)
(1.04061 0.00889929 0)
(1.04062 0.0088598 0)
(1.0406 0.00883543 0)
(1.04055 0.00882664 0)
(1.04048 0.00883404 0)
(1.04038 0.00885835 0)
(1.04026 0.00890047 0)
(1.04011 0.00896137 0)
(1.03994 0.00904229 0)
(1.03973 0.00914442 0)
(1.0395 0.00926943 0)
(1.03924 0.00941863 0)
(1.03895 0.00959414 0)
(1.03864 0.00979723 0)
(1.03829 0.0100304 0)
(1.03791 0.0102946 0)
(1.03751 0.0105921 0)
(1.03707 0.0109235 0)
(1.03661 0.0112892 0)
(1.03611 0.0116897 0)
(1.03558 0.0121194 0)
(1.03502 0.0125797 0)
(1.03441 0.0130531 0)
(1.03374 0.0135437 0)
(1.03299 0.0140234 0)
(1.03212 0.0145074 0)
(1.03107 0.0149952 0)
(1.0008 0.010343 0)
(1.01173 0.0187057 0)
(1.02204 0.0168985 0)
(1.02676 0.0148235 0)
(1.02854 0.0143017 0)
(1.03008 0.0137764 0)
(1.03166 0.0129738 0)
(1.03295 0.0122775 0)
(1.0339 0.0117693 0)
(1.03467 0.0113552 0)
(1.03532 0.0109874 0)
(1.03589 0.0106634 0)
(1.03638 0.0103824 0)
(1.0368 0.0101381 0)
(1.03716 0.00992399 0)
(1.03747 0.00973555 0)
(1.03773 0.00956973 0)
(1.03795 0.00942415 0)
(1.03814 0.00929686 0)
(1.03828 0.00918639 0)
(1.0384 0.00909167 0)
(1.03848 0.00901201 0)
(1.03853 0.00894706 0)
(1.03856 0.00889676 0)
(1.03856 0.00886127 0)
(1.03853 0.00884092 0)
(1.03848 0.00883623 0)
(1.0384 0.00884784 0)
(1.0383 0.00887649 0)
(1.03817 0.00892311 0)
(1.03802 0.00898869 0)
(1.03784 0.00907448 0)
(1.03763 0.0091817 0)
(1.0374 0.00931197 0)
(1.03713 0.00946669 0)
(1.03684 0.00964786 0)
(1.03653 0.00985688 0)
(1.03618 0.010096 0)
(1.03581 0.0103665 0)
(1.03541 0.0106704 0)
(1.03498 0.0110085 0)
(1.03452 0.011381 0)
(1.03403 0.0117886 0)
(1.03351 0.0122264 0)
(1.03296 0.0126952 0)
(1.03236 0.0131811 0)
(1.03171 0.013686 0)
(1.03097 0.0141913 0)
(1.03012 0.0147079 0)
(1.02909 0.0152444 0)
(1.00069 0.00935149 0)
(1.01045 0.0176431 0)
(1.02017 0.0164176 0)
(1.02494 0.0144655 0)
(1.02678 0.0139749 0)
(1.02828 0.0135506 0)
(1.02984 0.012822 0)
(1.03112 0.0121517 0)
(1.03208 0.0116584 0)
(1.03284 0.0112614 0)
(1.03348 0.0109084 0)
(1.03405 0.0105952 0)
(1.03453 0.0103229 0)
(1.03494 0.0100862 0)
(1.03529 0.00987896 0)
(1.03559 0.00969671 0)
(1.03584 0.00953655 0)
(1.03605 0.0093962 0)
(1.03623 0.00927383 0)
(1.03637 0.00916801 0)
(1.03647 0.00907773 0)
(1.03655 0.00900235 0)
(1.03659 0.00894157 0)
(1.03661 0.00889538 0)
(1.0366 0.00886398 0)
(1.03657 0.00884775 0)
(1.03651 0.00884725 0)
(1.03643 0.00886315 0)
(1.03632 0.00889623 0)
(1.03618 0.00894743 0)
(1.03602 0.00901777 0)
(1.03584 0.0091085 0)
(1.03562 0.00922086 0)
(1.03539 0.00935646 0)
(1.03512 0.00951673 0)
(1.03483 0.0097036 0)
(1.03451 0.00991857 0)
(1.03416 0.0101638 0)
(1.03379 0.0104406 0)
(1.03339 0.0107508 0)
(1.03296 0.0110956 0)
(1.0325 0.011475 0)
(1.03202 0.0118897 0)
(1.0315 0.0123358 0)
(1.03095 0.0128135 0)
(1.03035 0.0133122 0)
(1.0297 0.0138324 0)
(1.02896 0.0143629 0)
(1.02811 0.0149124 0)
(1.02709 0.0154958 0)
(1.0006 0.00844924 0)
(1.00929 0.0166046 0)
(1.01841 0.0159261 0)
(1.02319 0.0141155 0)
(1.0251 0.013648 0)
(1.02658 0.0133149 0)
(1.0281 0.0126641 0)
(1.02938 0.0120236 0)
(1.03034 0.0115455 0)
(1.03109 0.0111654 0)
(1.03173 0.0108277 0)
(1.03229 0.010526 0)
(1.03276 0.0102627 0)
(1.03316 0.0100339 0)
(1.03351 0.00983371 0)
(1.0338 0.00965787 0)
(1.03404 0.00950356 0)
(1.03425 0.00936862 0)
(1.03441 0.00925132 0)
(1.03454 0.00915029 0)
(1.03464 0.00906457 0)
(1.03471 0.00899359 0)
(1.03475 0.00893709 0)
(1.03476 0.00889511 0)
(1.03474 0.0088679 0)
(1.0347 0.00885591 0)
(1.03464 0.0088597 0)
(1.03455 0.00887999 0)
(1.03443 0.00891759 0)
(1.03429 0.00897347 0)
(1.03413 0.00904866 0)
(1.03394 0.00914442 0)
(1.03372 0.00926202 0)
(1.03348 0.00940304 0)
(1.03321 0.00956894 0)
(1.03292 0.0097616 0)
(1.03259 0.00998259 0)
(1.03225 0.0102339 0)
(1.03187 0.0105171 0)
(1.03147 0.0108339 0)
(1.03104 0.0111854 0)
(1.03058 0.0115718 0)
(1.03009 0.011994 0)
(1.02958 0.0124488 0)
(1.02902 0.0129358 0)
(1.02842 0.0134478 0)
(1.02777 0.0139842 0)
(1.02702 0.0145398 0)
(1.02618 0.0151224 0)
(1.02517 0.0157515 0)
(1.00051 0.00763151 0)
(1.00824 0.0155942 0)
(1.01677 0.0154229 0)
(1.02153 0.0137728 0)
(1.02352 0.0133228 0)
(1.02496 0.0130703 0)
(1.02645 0.0124994 0)
(1.02772 0.0118929 0)
(1.02868 0.0114304 0)
(1.02943 0.011067 0)
(1.03007 0.0107452 0)
(1.03061 0.0104556 0)
(1.03108 0.0102017 0)
(1.03148 0.00998102 0)
(1.03181 0.00978817 0)
(1.0321 0.00961897 0)
(1.03234 0.0094707 0)
(1.03253 0.00934134 0)
(1.03269 0.00922926 0)
(1.03281 0.00913316 0)
(1.0329 0.00905214 0)
(1.03296 0.00898568 0)
(1.033 0.00893358 0)
(1.033 0.00889592 0)
(1.03298 0.00887302 0)