/*--------------------------------*- C++ -*----------------------------------*\
  =========                 |
  \\      /  F ield         | OpenFOAM: The Open Source CFD Toolbox
   \\    /   O peration     | Website:  https://openfoam.org
    \\  /    A nd           | Version:  7
     \\/     M anipulation  |
\*---------------------------------------------------------------------------*/
FoamFile
{
    version     2.0;
    format      ascii;
    class       volVectorField;
    location    "0.27";
    object      U_0;
}
// * * * * * * * * * * * * * * * * * * * * * * * * * * * * * * * * * * * * * //

dimensions      [0 1 -1 0 0 0 0];

internalField   nonuniform List<vector> 
70000
(
(0.55341 0.0169784 0)
(0.251395 0.00340084 0)
(0.165876 0.000319436 0)
(0.132359 4.94212e-05 0)
(0.117216 4.44722e-05 0)
(0.107216 5.26528e-05 0)
(0.0991985 4.48695e-05 0)
(0.0927058 3.58171e-05 0)
(0.0874099 2.98072e-05 0)
(0.0829862 2.56977e-05 0)
(0.0792066 2.2565e-05 0)
(0.0759235 2.00626e-05 0)
(0.0730357 1.80308e-05 0)
(0.0704688 1.6361e-05 0)
(0.0681665 1.49731e-05 0)
(0.066085 1.3808e-05 0)
(0.0641898 1.28218e-05 0)
(0.0624531 1.19814e-05 0)
(0.0608526 1.12619e-05 0)
(0.0593695 1.06438e-05 0)
(0.0579884 1.01122e-05 0)
(0.0566961 9.65531e-06 0)
(0.0554814 9.26364e-06 0)
(0.0543347 8.92987e-06 0)
(0.0532476 8.64798e-06 0)
(0.0522125 8.41337e-06 0)
(0.0512228 8.22185e-06 0)
(0.0502725 8.07109e-06 0)
(0.0493564 7.9569e-06 0)
(0.0484693 7.87982e-06 0)
(0.0476069 7.83333e-06 0)
(0.0467646 7.82248e-06 0)
(0.0459388 7.83469e-06 0)
(0.0451255 7.88293e-06 0)
(0.0443215 7.94305e-06 0)
(0.0435233 8.03878e-06 0)
(0.0427279 8.13278e-06 0)
(0.0419331 8.24789e-06 0)
(0.0411347 8.36544e-06 0)
(0.0403357 8.4193e-06 0)
(0.039524 8.59378e-06 0)
(0.038721 8.34076e-06 0)
(0.0378855 8.80414e-06 0)
(0.0370982 7.48963e-06 0)
(0.0362209 9.19385e-06 0)
(0.0355172 4.50293e-06 0)
(0.0345522 1.08194e-05 0)
(0.0340994 -4.46248e-06 0)
(0.0331135 1.95193e-05 0)
(0.0307232 -0.00123068 0)
(0.884861 0.0434945 0)
(0.650116 0.0201516 0)
(0.493884 0.0066085 0)
(0.403381 0.00275934 0)
(0.354575 0.00155316 0)
(0.323152 0.00113747 0)
(0.299133 0.000915585 0)
(0.279793 0.00075149 0)
(0.263941 0.000629281 0)
(0.250673 0.000539284 0)
(0.239337 0.000471078 0)
(0.229494 0.000417516 0)
(0.220837 0.00037436 0)
(0.213144 0.00033897 0)
(0.206244 0.000309551 0)
(0.200008 0.000284819 0)
(0.194331 0.000263829 0)
(0.189133 0.000245876 0)
(0.184345 0.000230425 0)
(0.179911 0.000217065 0)
(0.175786 0.000205475 0)
(0.17193 0.000195405 0)
(0.16831 0.000186656 0)
(0.164897 0.000179071 0)
(0.161666 0.000172524 0)
(0.158595 0.000166916 0)
(0.155664 0.000162166 0)
(0.152855 0.000158212 0)
(0.150153 0.000155002 0)
(0.147543 0.000152504 0)
(0.145011 0.000150678 0)
(0.142543 0.000149521 0)
(0.14013 0.000148985 0)
(0.137759 0.000149106 0)
(0.13542 0.000149793 0)
(0.133103 0.000151149 0)
(0.130796 0.000152974 0)
(0.128495 0.00015549 0)
(0.126183 0.000158294 0)
(0.123867 0.000161742 0)
(0.121513 0.000165234 0)
(0.119173 0.000168942 0)
(0.116733 0.000172722 0)
(0.114402 0.000174718 0)
(0.111811 0.000178797 0)
(0.109638 0.000172854 0)
(0.106752 0.000182006 0)
(0.10512 0.000130995 0)
(0.102015 0.000300235 0)
(0.098496 -0.00207244 0)
(0.991209 0.0499578 0)
(0.890899 0.0305685 0)
(0.7624 0.0146196 0)
(0.656338 0.00798226 0)
(0.585103 0.00489307 0)
(0.535579 0.0034899 0)
(0.497509 0.00275542 0)
(0.466685 0.00226266 0)
(0.44116 0.00190038 0)
(0.419629 0.00163018 0)
(0.401142 0.00142418 0)
(0.385032 0.00126236 0)
(0.370825 0.001132 0)
(0.35817 0.00102506 0)
(0.346802 0.00093608 0)
(0.336513 0.00086119 0)
(0.327138 0.000797552 0)
(0.318546 0.000743042 0)
(0.310628 0.000696048 0)
(0.303294 0.000655333 0)
(0.29647 0.000619931 0)
(0.290092 0.000589085 0)
(0.284107 0.000562197 0)
(0.278468 0.000538788 0)
(0.273133 0.000518479 0)
(0.268067 0.000500965 0)
(0.263237 0.000486005 0)
(0.258616 0.00047341 0)
(0.254176 0.000463027 0)
(0.249895 0.00045475 0)
(0.24575 0.00044848 0)
(0.24172 0.000444184 0)
(0.237786 0.000441771 0)
(0.23393 0.000441302 0)
(0.230134 0.000442605 0)
(0.226381 0.000445915 0)
(0.222656 0.000450791 0)
(0.218943 0.000457832 0)
(0.215222 0.000465954 0)
(0.211497 0.000476493 0)
(0.207715 0.000487062 0)
(0.203947 0.000500236 0)
(0.200028 0.000511555 0)
(0.196248 0.000524605 0)
(0.192073 0.000533942 0)
(0.188467 0.000536936 0)
(0.183813 0.00054831 0)
(0.180871 0.00046418 0)
(0.175689 0.000704108 0)
(0.172203 -0.00185336 0)
(1.01554 0.0489565 0)
(1.00648 0.0357327 0)
(0.935818 0.0208338 0)
(0.851845 0.013518 0)
(0.781932 0.00922165 0)
(0.72661 0.00681089 0)
(0.681316 0.00541821 0)
(0.643324 0.0044801 0)
(0.611055 0.00378832 0)
(0.583318 0.0032652 0)
(0.559175 0.0028617 0)
(0.537922 0.00254255 0)
(0.519029 0.0022843 0)
(0.502094 0.00207161 0)
(0.486803 0.00189404 0)
(0.472904 0.00174412 0)
(0.460197 0.00161636 0)
(0.448518 0.00150662 0)
(0.43773 0.00141176 0)
(0.42772 0.00132936 0)
(0.418392 0.0012575 0)
(0.409665 0.00119471 0)
(0.401468 0.00113979 0)
(0.39374 0.00109179 0)
(0.386429 0.00104995 0)
(0.379487 0.00101367 0)
(0.372871 0.00098246 0)
(0.366544 0.000955942 0)
(0.360472 0.000933815 0)
(0.354622 0.000915855 0)
(0.348967 0.00090188 0)
(0.343477 0.000891806 0)
(0.338129 0.000885492 0)
(0.332896 0.000883022 0)
(0.327756 0.000884144 0)
(0.322686 0.000889252 0)
(0.317664 0.000897639 0)
(0.312671 0.000910413 0)
(0.307677 0.000925604 0)
(0.302686 0.000946016 0)
(0.29763 0.000966621 0)
(0.29259 0.000994054 0)
(0.287367 0.00101658 0)
(0.282293 0.00104841 0)
(0.276746 0.00106587 0)
(0.271823 0.00108992 0)
(0.265676 0.00110238 0)
(0.261416 0.001008 0)
(0.254482 0.00123741 0)
(0.250589 -0.00110798 0)
(1.01435 0.0461013 0)
(1.04797 0.0373517 0)
(1.02452 0.0242059 0)
(0.974557 0.0175847 0)
(0.923241 0.0131432 0)
(0.876349 0.010246 0)
(0.833983 0.00839185 0)
(0.795999 0.0070743 0)
(0.762176 0.0060682 0)
(0.732073 0.00528511 0)
(0.705181 0.00466757 0)
(0.681029 0.00417127 0)
(0.65922 0.00376489 0)
(0.639424 0.00342705 0)
(0.621363 0.00314278 0)
(0.604808 0.00290118 0)
(0.589564 0.00269409 0)
(0.575469 0.00251532 0)
(0.562384 0.00236007 0)
(0.550191 0.00222463 0)
(0.538787 0.00210606 0)
(0.528086 0.00200201 0)
(0.518011 0.00191064 0)
(0.508493 0.00183043 0)
(0.499472 0.00176019 0)
(0.490897 0.00169895 0)
(0.482718 0.00164594 0)
(0.474892 0.00160052 0)
(0.46738 0.00156224 0)
(0.460144 0.00153072 0)
(0.453152 0.00150569 0)
(0.44637 0.00148699 0)
(0.43977 0.00147442 0)
(0.43332 0.00146811 0)
(0.426996 0.00146771 0)
(0.420768 0.00147382 0)
(0.414611 0.00148545 0)
(0.408502 0.00150429 0)
(0.402407 0.00152743 0)
(0.396323 0.00155937 0)
(0.390181 0.0015921 0)
(0.384053 0.00163709 0)
(0.377737 0.00167409 0)
(0.371559 0.00173009 0)
(0.364891 0.00175995 0)
(0.358819 0.00181292 0)
(0.351515 0.0018301 0)
(0.346001 0.00174406 0)
(0.337858 0.00193044 0)
(0.332829 -0.000145036 0)
(1.0094 0.0430512 0)
(1.05563 0.0371085 0)
(1.05864 0.0253507 0)
(1.03622 0.0197957 0)
(1.00695 0.0158405 0)
(0.975801 0.0129861 0)
(0.944097 0.0110236 0)
(0.913012 0.00954831 0)
(0.883406 0.00836423 0)
(0.855664 0.00740329 0)
(0.829866 0.0066201 0)
(0.805953 0.0059744 0)
(0.783804 0.00543495 0)
(0.763278 0.00497915 0)
(0.74423 0.00459045 0)
(0.726519 0.00425636 0)
(0.710013 0.00396724 0)
(0.694595 0.00371556 0)
(0.680156 0.00349541 0)
(0.666599 0.00330209 0)
(0.653839 0.00313183 0)
(0.641797 0.00298161 0)
(0.630403 0.00284898 0)
(0.619596 0.00273196 0)
(0.609317 0.00262893 0)
(0.599515 0.0025386 0)
(0.590143 0.00245993 0)
(0.581157 0.00239205 0)
(0.572518 0.00233434 0)
(0.564186 0.00228629 0)
(0.556128 0.00224752 0)
(0.54831 0.00221783 0)
(0.5407 0.00219699 0)
(0.533266 0.00218513 0)
(0.525981 0.00218188 0)
(0.518813 0.002188 0)
(0.511736 0.0022023 0)
(0.504721 0.00222704 0)
(0.497737 0.00225844 0)
(0.490772 0.00230267 0)
(0.483761 0.00234891 0)
(0.476763 0.00241328 0)
(0.469588 0.00246756 0)
(0.462527 0.00255056 0)
(0.45501 0.00259794 0)
(0.447995 0.00268262 0)
(0.439881 0.0027131 0)
(0.433249 0.00264098 0)
(0.424418 0.00279292 0)
(0.418011 0.000970615 0)
(1.00635 0.0401837 0)
(1.0524 0.0361629 0)
(1.06602 0.0252766 0)
(1.05946 0.0206052 0)
(1.04676 0.0172748 0)
(1.03061 0.0147148 0)
(1.01157 0.0128961 0)
(0.990705 0.0114813 0)
(0.969075 0.010294 0)
(0.947412 0.00928797 0)
(0.926163 0.00843732 0)
(0.90559 0.00771399 0)
(0.885843 0.00709372 0)
(0.866994 0.00655797 0)
(0.849061 0.00609246 0)
(0.832032 0.00568591 0)
(0.815877 0.00532921 0)
(0.800551 0.005015 0)
(0.786007 0.00473727 0)
(0.772193 0.00449113 0)
(0.759058 0.00427256 0)
(0.746552 0.00407827 0)
(0.734628 0.00390557 0)
(0.723239 0.00375221 0)
(0.712342 0.00361637 0)
(0.701896 0.00349655 0)
(0.691862 0.00339155 0)
(0.682203 0.00330038 0)
(0.672883 0.00322229 0)
(0.66387 0.00315671 0)
(0.655131 0.00310322 0)
(0.646635 0.00306159 0)
(0.638353 0.00303159 0)
(0.630254 0.00301339 0)
(0.622311 0.00300664 0)
(0.614493 0.00301227 0)
(0.606774 0.00302896 0)
(0.599126 0.00305947 0)
(0.591517 0.00309937 0)
(0.583931 0.00315626 0)
(0.57631 0.00321705 0)
(0.568696 0.0033016 0)
(0.560929 0.00337561 0)
(0.553239 0.00348635 0)
(0.545157 0.00355666 0)
(0.537449 0.00367206 0)
(0.528848 0.00372648 0)
(0.521334 0.00366758 0)
(0.512181 0.00380179 0)
(0.504629 0.00222315 0)
(1.00506 0.0375069 0)
(1.04761 0.0350659 0)
(1.06392 0.0247313 0)
(1.06412 0.02064 0)
(1.06058 0.0178187 0)
(1.05461 0.0155639 0)
(1.04574 0.0139637 0)
(1.03441 0.0127174 0)
(1.02132 0.0116442 0)
(1.00708 0.0107046 0)
(0.992139 0.00988488 0)
(0.976858 0.00916737 0)
(0.9615 0.0085355 0)
(0.946262 0.00797642 0)
(0.931281 0.00748011 0)
(0.916649 0.00703835 0)
(0.902424 0.0066442 0)
(0.888643 0.00629181 0)
(0.875321 0.0059762 0)
(0.862462 0.00569321 0)
(0.850059 0.00543929 0)
(0.8381 0.00521146 0)
(0.826569 0.00500723 0)
(0.815445 0.0048245 0)
(0.804706 0.00466151 0)
(0.79433 0.00451681 0)
(0.784291 0.00438923 0)
(0.774566 0.00427781 0)
(0.765131 0.00418182 0)
(0.75596 0.00410072 0)
(0.747029 0.00403413 0)
(0.738313 0.00398188 0)
(0.729788 0.0039438 0)
(0.721428 0.00392017 0)
(0.71321 0.00391069 0)
(0.705106 0.00391649 0)
(0.697094 0.00393622 0)
(0.689145 0.00397309 0)
(0.681233 0.00402225 0)
(0.673339 0.00409232 0)
(0.665416 0.00416885 0)
(0.657485 0.004274 0)
(0.649425 0.00437004 0)
(0.641399 0.00450822 0)
(0.633054 0.00460646 0)
(0.624948 0.00475028 0)
(0.616163 0.0048375 0)
(0.608093 0.00479308 0)
(0.598872 0.00492016 0)
(0.590592 0.00358278 0)
(1.00451 0.0349715 0)
(1.04358 0.0339872 0)
(1.0599 0.0240825 0)
(1.06217 0.0203537 0)
(1.06242 0.0178881 0)
(1.06169 0.0158499 0)
(1.05904 0.0144259 0)
(1.05438 0.0133482 0)
(1.04803 0.0124203 0)
(1.04029 0.011596 0)
(1.03144 0.0108641 0)
(1.02174 0.0102109 0)
(1.01141 0.00962368 0)
(1.00066 0.00909326 0)
(0.989634 0.00861294 0)
(0.978478 0.00817736 0)
(0.967293 0.00778197 0)
(0.956157 0.00742284 0)
(0.945132 0.00709656 0)
(0.934263 0.00680017 0)
(0.923581 0.00653109 0)
(0.913108 0.00628712 0)
(0.902856 0.00606635 0)
(0.892833 0.00586714 0)
(0.883038 0.00568814 0)
(0.87347 0.00552818 0)
(0.864121 0.00538634 0)
(0.854983 0.00526187 0)
(0.846045 0.00515423 0)
(0.837293 0.00506302 0)
(0.828714 0.00498803 0)
(0.820292 0.00492924 0)
(0.812011 0.00488663 0)
(0.803851 0.00486065 0)
(0.795796 0.00485114 0)
(0.787825 0.00485945 0)
(0.779918 0.00488432 0)
(0.772053 0.0049293 0)
(0.764208 0.00498944 0)
(0.756363 0.00507398 0)
(0.748483 0.00516793 0)
(0.740576 0.00529437 0)
(0.732552 0.00541478 0)
(0.72452 0.00558005 0)
(0.71623 0.00571035 0)
(0.708062 0.00588103 0)
(0.699389 0.0060065 0)
(0.691134 0.00598174 0)
(0.682085 0.00610804 0)
(0.673505 0.00500527 0)
(1.00412 0.0325414 0)
(1.04025 0.0329352 0)
(1.05614 0.0234501 0)
(1.05881 0.0199723 0)
(1.06015 0.0177633 0)
(1.06147 0.015858 0)
(1.06178 0.0145373 0)
(1.06079 0.0135771 0)
(1.05862 0.0127677 0)
(1.05537 0.0120519 0)
(1.05112 0.0114161 0)
(1.04598 0.0108461 0)
(1.04007 0.0103291 0)
(1.03353 0.00985661 0)
(1.02647 0.00942298 0)
(1.01899 0.0090242 0)
(1.0112 0.00865711 0)
(1.00318 0.00831913 0)
(0.994997 0.00800805 0)
(0.986715 0.00772202 0)
(0.978381 0.00745943 0)
(0.970035 0.0072189 0)
(0.961708 0.00699925 0)
(0.953426 0.00679946 0)
(0.945206 0.0066187 0)
(0.937061 0.00645626 0)
(0.928999 0.00631161 0)
(0.921025 0.00618433 0)
(0.913142 0.00607418 0)
(0.905346 0.00598105 0)
(0.897636 0.00590497 0)
(0.890003 0.00584615 0)
(0.882442 0.00580482 0)
(0.874941 0.00578164 0)
(0.867491 0.00577669 0)
(0.860075 0.00579154 0)
(0.852684 0.00582514 0)
(0.845298 0.00588131 0)
(0.837902 0.00595526 0)
(0.830479 0.00605649 0)
(0.823002 0.00617025 0)
(0.815474 0.00631929 0)
(0.80783 0.00646653 0)
(0.800138 0.0066591 0)
(0.792228 0.00682462 0)
(0.784347 0.00702207 0)
(0.776086 0.00718845 0)
(0.768024 0.00719087 0)
(0.759403 0.00732206 0)
(0.750929 0.0064412 0)
(1.00374 0.0302077 0)
(1.03726 0.0318874 0)
(1.0528 0.0228488 0)
(1.05557 0.0195732 0)
(1.05705 0.017577 0)
(1.05893 0.0157615 0)
(1.06031 0.0144898 0)
(1.06093 0.0135947 0)
(1.06084 0.0128608 0)
(1.06008 0.0122214 0)
(1.05864 0.0116603 0)
(1.05653 0.0111621 0)
(1.05379 0.0107125 0)
(1.05046 0.0103016 0)
(1.0466 0.00992345 0)
(1.04227 0.0095738 0)
(1.03752 0.00924969 0)
(1.03243 0.00894892 0)
(1.02703 0.00866978 0)
(1.02139 0.00841094 0)
(1.01554 0.00817138 0)
(1.00953 0.00795029 0)
(1.0034 0.00774702 0)
(0.99716 0.00756109 0)
(0.99085 0.00739211 0)
(0.984486 0.00723982 0)
(0.978086 0.00710407 0)
(0.971661 0.00698482 0)
(0.965221 0.00688216 0)
(0.958773 0.00679628 0)
(0.95232 0.00672752 0)
(0.945865 0.00667635 0)
(0.939407 0.00664327 0)
(0.932942 0.00662922 0)
(0.926467 0.00663452 0)
(0.919973 0.00666102 0)
(0.913454 0.00670793 0)
(0.906898 0.00677929 0)
(0.900295 0.00687066 0)
(0.893632 0.00699151 0)
(0.886891 0.00712794 0)
(0.88007 0.00730143 0)
(0.873125 0.00747794 0)
(0.866098 0.00769864 0)
(0.858876 0.00790162 0)
(0.851612 0.00812699 0)
(0.844051 0.00833519 0)
(0.836531 0.00837286 0)
(0.828597 0.0085153 0)
(0.820595 0.00783976 0)
(1.00337 0.0279726 0)
(1.03442 0.0308317 0)
(1.04969 0.0222726 0)
(1.05261 0.0191716 0)
(1.05405 0.0173723 0)
(1.05599 0.0156359 0)
(1.05764 0.0143874 0)
(1.05878 0.0135245 0)
(1.05951 0.0128326 0)
(1.05987 0.0122382 0)
(1.05984 0.0117241 0)
(1.0594 0.0112747 0)
(1.05853 0.0108747 0)
(1.05724 0.010513 0)
(1.05554 0.0101825 0)
(1.05345 0.00987836 0)
(1.05099 0.00959708 0)
(1.04819 0.00933616 0)
(1.04508 0.00909377 0)
(1.04168 0.0088686 0)
(1.03803 0.00865974 0)
(1.03416 0.00846655 0)
(1.03008 0.00828863 0)
(1.02583 0.00812573 0)
(1.02143 0.00797778 0)
(1.0169 0.00784477 0)
(1.01224 0.00772686 0)
(1.00748 0.00762427 0)
(1.00264 0.00753737 0)
(0.997707 0.00746661 0)
(0.992703 0.00741259 0)
(0.98763 0.00737603 0)
(0.982492 0.0073577 0)
(0.97729 0.00735878 0)
(0.972024 0.00737984 0)
(0.966691 0.007423 0)
(0.961288 0.00748773 0)
(0.955809 0.00757827 0)
(0.950248 0.00769063 0)
(0.944597 0.00783404 0)
(0.938842 0.00799585 0)
(0.932983 0.00819564 0)
(0.926989 0.00840345 0)
(0.920885 0.00865323 0)
(0.9146 0.00889493 0)
(0.90822 0.00914986 0)
(0.901598 0.00939965 0)
(0.894907 0.00947989 0)
(0.887887 0.00964046 0)
(0.880662 0.0091518 0)
(1.00301 0.0258399 0)
(1.0317 0.0297638 0)
(1.0467 0.0217177 0)
(1.04981 0.0187671 0)
(1.05123 0.0171559 0)
(1.05313 0.0155034 0)
(1.05482 0.0142714 0)
(1.05608 0.0134258 0)
(1.05705 0.0127583 0)
(1.0578 0.0121891 0)
(1.05834 0.0117012 0)
(1.05864 0.0112802 0)
(1.0587 0.0109109 0)
(1.0585 0.0105816 0)
(1.05803 0.0102844 0)
(1.05729 0.0100141 0)
(1.05628 0.00976654 0)
(1.05502 0.00953881 0)
(1.0535 0.00932874 0)
(1.05173 0.00913474 0)
(1.04974 0.00895574 0)
(1.04753 0.00879101 0)
(1.04512 0.00864013 0)
(1.04252 0.00850289 0)
(1.03975 0.00837929 0)
(1.03682 0.00826944 0)
(1.03373 0.00817361 0)
(1.03051 0.00809219 0)
(1.02716 0.00802568 0)
(1.02369 0.00797473 0)
(1.02011 0.00794009 0)
(1.01642 0.0079227 0)
(1.01262 0.00792349 0)
(1.00872 0.00794386 0)
(1.00473 0.0079846 0)
(1.00063 0.00804801 0)
(0.996433 0.00813385 0)
(0.992133 0.00824644 0)
(0.987726 0.00838233 0)
(0.983208 0.00855034 0)
(0.978569 0.00873929 0)
(0.973809 0.00896648 0)
(0.968909 0.00920657 0)
(0.963879 0.00948585 0)
(0.958681 0.00976616 0)
(0.953354 0.010052 0)
(0.947822 0.010342 0)
(0.942153 0.0104703 0)
(0.936202 0.0106557 0)
(0.929966 0.0103349 0)
(1.00268 0.0238119 0)
(1.0291 0.0286822 0)
(1.04379 0.0211835 0)
(1.04712 0.0183596 0)
(1.04855 0.0169263 0)
(1.05041 0.0153667 0)
(1.05209 0.0141528 0)
(1.05336 0.0133199 0)
(1.05436 0.0126701 0)
(1.05521 0.0121172 0)
(1.05593 0.0116443 0)
(1.0565 0.0112392 0)
(1.05693 0.0108873 0)
(1.0572 0.0105769 0)
(1.05732 0.0103002 0)
(1.05727 0.0100515 0)
(1.05706 0.00982651 0)
(1.05667 0.00962209 0)
(1.0561 0.00943574 0)
(1.05536 0.00926565 0)
(1.05444 0.00911053 0)
(1.05336 0.00896949 0)
(1.05211 0.00884198 0)
(1.05071 0.00872771 0)
(1.04915 0.00862665 0)
(1.04744 0.00853889 0)
(1.04559 0.00846474 0)
(1.0436 0.00840459 0)
(1.04148 0.00835904 0)
(1.03924 0.0083288 0)
(1.03687 0.0083147 0)
(1.03438 0.0083178 0)
(1.03178 0.00833913 0)
(1.02906 0.00838025 0)
(1.02623 0.00844208 0)
(1.02329 0.00852706 0)
(1.02023 0.00863518 0)
(1.01706 0.00877077 0)
(1.01378 0.00893095 0)
(1.01037 0.00912391 0)
(1.00684 0.00934017 0)
(1.00319 0.00959443 0)
(0.999393 0.00986617 0)
(0.995465 0.0101742 0)
(0.991383 0.0104913 0)
(0.987158 0.0108083 0)
(0.982756 0.011136 0)
(0.978181 0.0113154 0)
(0.973354 0.0115311 0)
(0.968203 0.0113593 0)
(1.00238 0.0218906 0)
(1.02663 0.027586 0)
(1.04097 0.0206699 0)
(1.04452 0.0179507 0)
(1.04595 0.0166822 0)
(1.04779 0.0152243 0)
(1.04947 0.014033 0)
(1.05073 0.0132119 0)
(1.05172 0.0125781 0)
(1.05258 0.0120388 0)
(1.05332 0.0115767 0)
(1.05396 0.0111817 0)
(1.05451 0.0108402 0)
(1.05495 0.010541 0)
(1.0553 0.0102762 0)
(1.05555 0.0100404 0)
(1.05569 0.0098292 0)
(1.05573 0.00963943 0)
(1.05565 0.00946851 0)
(1.05546 0.00931452 0)
(1.05516 0.00917603 0)
(1.05474 0.00905206 0)
(1.0542 0.00894196 0)
(1.05354 0.00884537 0)
(1.05277 0.00876217 0)
(1.05188 0.00869243 0)
(1.05088 0.00863643 0)
(1.04976 0.00859456 0)
(1.04853 0.0085674 0)
(1.04719 0.0085557 0)
(1.04574 0.00856031 0)
(1.04419 0.00858235 0)
(1.04252 0.0086229 0)
(1.04075 0.00868359 0)
(1.03887 0.00876541 0)
(1.03688 0.00887091 0)
(1.03479 0.00900024 0)
(1.03259 0.00915766 0)
(1.03027 0.00934084 0)
(1.02784 0.00955724 0)
(1.0253 0.00979911 0)
(1.02263 0.0100785 0)
(1.01984 0.0103795 0)
(1.01692 0.0107141 0)
(1.01387 0.0110646 0)
(1.01068 0.0114114 0)
(1.00733 0.011773 0)
(1.00381 0.0120035 0)
(1.00005 0.0122534 0)
(0.995963 0.0122122 0)
(1.0021 0.0200768 0)
(1.0243 0.0264771 0)
(1.03823 0.0201744 0)
(1.04199 0.0175424 0)
(1.04345 0.0164235 0)
(1.04526 0.0150748 0)
(1.04694 0.0139113 0)
(1.04819 0.0131021 0)
(1.04918 0.0124843 0)
(1.05002 0.0119587 0)
(1.05076 0.0115064 0)
(1.0514 0.0111195 0)
(1.05196 0.0107858 0)
(1.05245 0.0104941 0)
(1.05287 0.0102371 0)
(1.05321 0.0100093 0)
(1.05349 0.00980658 0)
(1.0537 0.00962581 0)
(1.05384 0.00946448 0)
(1.0539 0.00932064 0)
(1.05389 0.00919288 0)
(1.0538 0.00908016 0)
(1.05364 0.00898182 0)
(1.05339 0.00889748 0)
(1.05307 0.00882699 0)
(1.05266 0.0087704 0)
(1.05217 0.00872797 0)
(1.0516 0.00870009 0)
(1.05094 0.00868733 0)
(1.05019 0.00869044 0)
(1.04936 0.00871029 0)
(1.04844 0.008748 0)
(1.04744 0.00880468 0)
(1.04634 0.008882 0)
(1.04515 0.008981 0)
(1.04387 0.00910423 0)
(1.0425 0.00925202 0)
(1.04104 0.00942846 0)
(1.03948 0.00963177 0)
(1.03781 0.00986859 0)
(1.03605 0.0101329 0)
(1.03419 0.010434 0)
(1.03222 0.0107604 0)
(1.03014 0.0111183 0)
(1.02794 0.0114972 0)
(1.02562 0.0118714 0)
(1.02318 0.0122622 0)
(1.02056 0.0125413 0)
(1.01773 0.012827 0)
(1.01459 0.012899 0)
(1.00185 0.0183707 0)
(1.0221 0.0253597 0)
(1.0356 0.0196936 0)
(1.03955 0.0171363 0)
(1.04104 0.0161509 0)
(1.04281 0.0149175 0)
(1.04449 0.0137872 0)
(1.04575 0.0129904 0)
(1.04673 0.0123887 0)
(1.04755 0.0118773 0)
(1.04827 0.0114352 0)
(1.04891 0.0110562 0)
(1.04946 0.0107294 0)
(1.04995 0.0104442 0)
(1.05037 0.0101933 0)
(1.05074 0.00997144 0)
(1.05105 0.00977473 0)
(1.05132 0.00960008 0)
(1.05153 0.00944508 0)
(1.05169 0.00930787 0)
(1.05179 0.00918707 0)
(1.05185 0.00908169 0)
(1.05186 0.00899108 0)
(1.05181 0.00891488 0)
(1.0517 0.00885297 0)
(1.05154 0.00880543 0)
(1.05133 0.00877251 0)
(1.05105 0.00875463 0)
(1.05071 0.00875236 0)
(1.05031 0.00876646 0)
(1.04984 0.0087978 0)
(1.04931 0.00884753 0)
(1.04872 0.00891676 0)
(1.04805 0.00900718 0)
(1.04731 0.00911987 0)
(1.0465 0.00925735 0)
(1.04562 0.00942013 0)
(1.04466 0.00961203 0)
(1.04362 0.00983185 0)
(1.04251 0.0100854 0)
(1.04131 0.010368 0)
(1.04003 0.010687 0)
(1.03866 0.0110342 0)
(1.03721 0.0114113 0)
(1.03567 0.0118133 0)
(1.03402 0.0122113 0)
(1.03226 0.0126264 0)
(1.03036 0.0129499 0)
(1.02826 0.0132715 0)
(1.02588 0.0134404 0)
(1.00162 0.0167721 0)
(1.02003 0.0242379 0)
(1.03307 0.0192232 0)
(1.0372 0.0167342 0)
(1.03872 0.0158655 0)
(1.04046 0.0147517 0)
(1.04213 0.0136606 0)
(1.0434 0.0128765 0)
(1.04436 0.012291 0)
(1.04518 0.0117946 0)
(1.04589 0.0113631 0)
(1.04651 0.0109923 0)
(1.04705 0.0106725 0)
(1.04752 0.0103937 0)
(1.04794 0.0101485 0)
(1.0483 0.00993195 0)
(1.04862 0.00974032 0)
(1.04888 0.00957062 0)
(1.04911 0.00942054 0)
(1.0493 0.00928829 0)
(1.04944 0.00917254 0)
(1.04955 0.00907236 0)
(1.04961 0.00898716 0)
(1.04964 0.00891663 0)
(1.04963 0.00886069 0)
(1.04958 0.00881945 0)
(1.04948 0.00879321 0)
(1.04935 0.00878241 0)
(1.04917 0.00878766 0)
(1.04894 0.00880974 0)
(1.04867 0.00884952 0)
(1.04835 0.00890819 0)
(1.04797 0.00898686 0)
(1.04755 0.00908723 0)
(1.04707 0.00921044 0)
(1.04654 0.00935892 0)
(1.04595 0.00953336 0)
(1.0453 0.00973732 0)
(1.0446 0.00997012 0)
(1.04383 0.0102367 0)
(1.043 0.0105339 0)
(1.0421 0.0108668 0)
(1.04114 0.0112304 0)
(1.04011 0.0116228 0)
(1.03901 0.0120427 0)
(1.03783 0.0124608 0)
(1.03656 0.0128959 0)
(1.03516 0.0132587 0)
(1.03359 0.0136153 0)
(1.03176 0.013867 0)
(1.00142 0.0152803 0)
(1.01811 0.0231159 0)
(1.03065 0.0187593 0)
(1.03494 0.0163374 0)
(1.0365 0.0155687 0)
(1.0382 0.0145767 0)
(1.03986 0.013531 0)
(1.04113 0.0127607 0)
(1.04209 0.0121911 0)
(1.04289 0.0117104 0)
(1.04359 0.0112903 0)
(1.0442 0.0109279 0)
(1.04473 0.0106153 0)
(1.04519 0.010343 0)
(1.04559 0.0101036 0)
(1.04595 0.00989233 0)
(1.04625 0.0097056 0)
(1.04651 0.00954055 0)
(1.04673 0.00939493 0)
(1.04692 0.00926702 0)
(1.04706 0.00915555 0)
(1.04718 0.00905966 0)
(1.04726 0.0089788 0)
(1.04731 0.00891271 0)
(1.04733 0.00886137 0)
(1.04731 0.00882495 0)
(1.04727 0.00880378 0)
(1.04719 0.00879834 0)
(1.04707 0.00880927 0)
(1.04692 0.00883739 0)
(1.04673 0.0088836 0)
(1.04651 0.00894909 0)
(1.04625 0.00903501 0)
(1.04595 0.00914304 0)
(1.0456 0.00927437 0)
(1.04521 0.00943139 0)
(1.04478 0.00961492 0)
(1.04431 0.00982824 0)
(1.04378 0.0100712 0)
(1.04321 0.0103478 0)
(1.0426 0.0106564 0)
(1.04193 0.0110002 0)
(1.04121 0.0113763 0)
(1.04044 0.0117808 0)
(1.03962 0.0122145 0)
(1.03872 0.0126496 0)
(1.03776 0.0131012 0)
(1.03669 0.0134987 0)
(1.03546 0.013889 0)
(1.034 0.0142118 0)
(1.00124 0.0138938 0)
(1.01631 0.0219976 0)
(1.02833 0.0182981 0)
(1.03277 0.0159472 0)
(1.03437 0.015262 0)
(1.03603 0.0143921 0)
(1.03768 0.013398 0)
(1.03895 0.0126429 0)
(1.03991 0.012089 0)
(1.0407 0.0116245 0)
(1.04139 0.0112164 0)
(1.04198 0.0108629 0)
(1.0425 0.0105578 0)
(1.04295 0.0102921 0)
(1.04334 0.0100587 0)
(1.04368 0.00985291 0)
(1.04398 0.00967117 0)
(1.04423 0.00951077 0)
(1.04444 0.00936956 0)
(1.04461 0.00924587 0)
(1.04476 0.00913848 0)
(1.04486 0.00904659 0)
(1.04494 0.00896969 0)
(1.04499 0.00890758 0)
(1.04501 0.00886029 0)
(1.04501 0.00882803 0)
(1.04497 0.00881117 0)
(1.04491 0.00881026 0)
(1.04481 0.00882595 0)
(1.04469 0.00885909 0)
(1.04453 0.0089106 0)
(1.04435 0.00898172 0)
(1.04413 0.00907358 0)
(1.04388 0.00918789 0)
(1.04359 0.00932588 0)
(1.04327 0.00948985 0)
(1.04291 0.00968078 0)
(1.04252 0.00990168 0)
(1.04209 0.0101528 0)
(1.04162 0.0104376 0)
(1.04112 0.0107552 0)
(1.04057 0.0111077 0)
(1.03998 0.0114937 0)
(1.03935 0.0119082 0)
(1.03868 0.0123527 0)
(1.03796 0.0128024 0)
(1.03717 0.0132684 0)
(1.03628 0.0136967 0)
(1.03526 0.0141199 0)
(1.03402 0.0145049 0)
(1.00107 0.0126107 0)
(1.01466 0.020887 0)
(1.02612 0.0178362 0)
(1.03068 0.0155645 0)
(1.03233 0.0149473 0)
(1.03395 0.0141973 0)
(1.03558 0.0132613 0)
(1.03686 0.0125231 0)
(1.03782 0.0119847 0)
(1.0386 0.0115368 0)
(1.03927 0.0111414 0)
(1.03986 0.0107972 0)
(1.04037 0.0104999 0)
(1.04081 0.0102412 0)
(1.04119 0.010014 0)
(1.04152 0.00981371 0)
(1.0418 0.0096371 0)
(1.04204 0.00948148 0)
(1.04224 0.00934477 0)
(1.04241 0.00922535 0)
(1.04254 0.00912207 0)
(1.04264 0.00903416 0)
(1.04271 0.00896117 0)
(1.04275 0.00890293 0)
(1.04277 0.00885954 0)
(1.04276 0.00883123 0)
(1.04272 0.00881844 0)
(1.04265 0.00882174 0)
(1.04256 0.00884181 0)
(1.04244 0.00887954 0)
(1.04229 0.00893588 0)
(1.04212 0.00901206 0)
(1.04191 0.00910926 0)
(1.04168 0.00922915 0)
(1.04141 0.00937303 0)
(1.04112 0.0095431 0)
(1.04079 0.00974052 0)
(1.04043 0.009968 0)
(1.04004 0.0102262 0)
(1.03962 0.010518 0)
(1.03916 0.0108433 0)
(1.03867 0.0112032 0)
(1.03815 0.0115975 0)
(1.03759 0.0120206 0)
(1.03699 0.0124743 0)
(1.03635 0.0129372 0)
(1.03565 0.0134168 0)
(1.03485 0.0138732 0)
(1.03394 0.0143288 0)
(1.03282 0.0147696 0)
(1.00093 0.0114281 0)
(1.01313 0.0197883 0)
(1.02402 0.0173706 0)
(1.02868 0.0151898 0)
(1.03039 0.0146265 0)
(1.03197 0.0139922 0)
(1.03358 0.0131201 0)
(1.03486 0.0124014 0)
(1.03581 0.0118782 0)
(1.03659 0.0114472 0)
(1.03725 0.0110652 0)
(1.03783 0.0107309 0)
(1.03833 0.0104416 0)
(1.03876 0.0101899 0)
(1.03913 0.00996915 0)
(1.03945 0.0097747 0)
(1.03972 0.00960338 0)
(1.03995 0.00945269 0)
(1.04014 0.0093206 0)
(1.04029 0.00920558 0)
(1.04042 0.0091065 0)
(1.04051 0.00902264 0)
(1.04057 0.00895361 0)
(1.0406 0.00889929 0)
(1.04061 0.00885981 0)
(1.04059 0.00883546 0)
(1.04055 0.00882671 0)
(1.04048 0.00883416 0)
(1.04038 0.00885854 0)
(1.04026 0.00890075 0)
(1.04011 0.00896177 0)
(1.03993 0.00904283 0)
(1.03973 0.00914514 0)
(1.0395 0.00927035 0)
(1.03924 0.00941982 0)
(1.03895 0.00959564 0)
(1.03863 0.00979912 0)
(1.03828 0.0100327 0)
(1.0379 0.0102975 0)
(1.0375 0.0105958 0)
(1.03706 0.010928 0)
(1.03659 0.0112948 0)
(1.0361 0.0116965 0)
(1.03557 0.0121278 0)
(1.035 0.01259 0)
(1.03439 0.0130656 0)
(1.03373 0.0135588 0)
(1.03297 0.0140417 0)
(1.0321 0.0145296 0)
(1.03104 0.015022 0)
(1.0008 0.010343 0)
(1.01173 0.0187056 0)
(1.02204 0.0168985 0)
(1.02676 0.0148235 0)
(1.02854 0.0143018 0)
(1.03008 0.0137766 0)
(1.03166 0.012974 0)
(1.03295 0.0122777 0)
(1.0339 0.0117695 0)
(1.03467 0.0113555 0)
(1.03532 0.0109877 0)
(1.03589 0.0106636 0)
(1.03638 0.0103827 0)
(1.0368 0.0101384 0)
(1.03716 0.00992428 0)
(1.03747 0.00973581 0)
(1.03773 0.00956998 0)
(1.03795 0.00942436 0)
(1.03813 0.00929704 0)
(1.03828 0.00918653 0)
(1.03839 0.00909177 0)
(1.03848 0.00901207 0)
(1.03853 0.0089471 0)
(1.03856 0.00889679 0)
(1.03856 0.0088613 0)
(1.03853 0.00884098 0)
(1.03848 0.00883633 0)
(1.0384 0.00884799 0)
(1.0383 0.00887672 0)
(1.03817 0.00892344 0)
(1.03801 0.00898914 0)
(1.03783 0.00907508 0)
(1.03762 0.00918248 0)
(1.03739 0.00931297 0)
(1.03713 0.00946796 0)
(1.03684 0.00964946 0)
(1.03652 0.00985888 0)
(1.03617 0.0100985 0)
(1.0358 0.0103696 0)
(1.0354 0.0106742 0)
(1.03497 0.0110132 0)
(1.03451 0.0113868 0)
(1.03402 0.0117956 0)
(1.0335 0.012235 0)
(1.03295 0.0127057 0)
(1.03235 0.0131939 0)
(1.03169 0.0137014 0)
(1.03095 0.0142099 0)
(1.0301 0.0147304 0)
(1.02907 0.0152717 0)
(1.00069 0.00935147 0)
(1.01045 0.017643 0)
(1.02017 0.0164176 0)
(1.02494 0.0144655 0)
(1.02678 0.013975 0)
(1.02828 0.0135507 0)
(1.02984 0.0128222 0)
(1.03112 0.0121519 0)
(1.03208 0.0116587 0)
(1.03284 0.0112617 0)
(1.03348 0.0109087 0)
(1.03404 0.0105955 0)
(1.03453 0.0103232 0)
(1.03494 0.0100865 0)
(1.03529 0.00987927 0)
(1.03559 0.009697 0)
(1.03584 0.00953682 0)
(1.03605 0.00939645 0)
(1.03623 0.00927404 0)
(1.03636 0.00916818 0)
(1.03647 0.00907785 0)
(1.03654 0.00900244 0)
(1.03659 0.00894164 0)
(1.03661 0.00889543 0)
(1.0366 0.00886403 0)
(1.03657 0.00884783 0)
(1.03651 0.00884738 0)
(1.03642 0.00886334 0)
(1.03631 0.0088965 0)
(1.03618 0.0089478 0)
(1.03602 0.00901827 0)
(1.03583 0.00910915 0)
(1.03562 0.00922171 0)
(1.03538 0.00935754 0)
(1.03512 0.00951808 0)
(1.03482 0.0097053 0)
(1.0345 0.00992068 0)
(1.03416 0.0101664 0)
(1.03378 0.0104438 0)
(1.03338 0.0107548 0)
(1.03295 0.0111004 0)
(1.03249 0.0114809 0)
(1.03201 0.011897 0)
(1.03149 0.0123447 0)
(1.03093 0.0128242 0)
(1.03033 0.0133253 0)
(1.02968 0.0138481 0)
(1.02894 0.0143818 0)
(1.02809 0.0149352 0)
(1.02707 0.0155234 0)
(1.0006 0.00844922 0)
(1.00929 0.0166046 0)
(1.01841 0.0159261 0)
(1.02319 0.0141155 0)
(1.0251 0.0136481 0)
(1.02658 0.0133151 0)
(1.0281 0.0126643 0)
(1.02938 0.0120238 0)
(1.03034 0.0115457 0)
(1.03109 0.0111656 0)
(1.03173 0.010828 0)
(1.03229 0.0105263 0)
(1.03276 0.010263 0)
(1.03316 0.0100342 0)
(1.03351 0.00983405 0)
(1.0338 0.0096582 0)
(1.03404 0.00950387 0)
(1.03425 0.0093689 0)
(1.03441 0.00925155 0)
(1.03454 0.00915048 0)
(1.03464 0.00906472 0)
(1.03471 0.0089937 0)
(1.03474 0.00893718 0)
(1.03475 0.00889519 0)
(1.03474 0.00886798 0)
(1.0347 0.00885601 0)
(1.03463 0.00885985 0)
(1.03454 0.0088802 0)
(1.03443 0.00891789 0)
(1.03429 0.00897388 0)
(1.03412 0.00904921 0)
(1.03393 0.00914513 0)
(1.03372 0.00926293 0)
(1.03347 0.00940419 0)
(1.0332 0.00957038 0)
(1.03291 0.0097634 0)
(1.03259 0.00998482 0)
(1.03224 0.0102367 0)
(1.03186 0.0105205 0)
(1.03146 0.010838 0)
(1.03103 0.0111904 0)
(1.03057 0.011578 0)
(1.03008 0.0120015 0)
(1.02956 0.0124578 0)
(1.02901 0.0129468 0)
(1.02841 0.0134611 0)
(1.02775 0.0140002 0)
(1.02701 0.0145591 0)
(1.02616 0.0151455 0)
(1.02515 0.0157794 0)
(1.00051 0.00763148 0)
(1.00824 0.0155941 0)
(1.01677 0.0154228 0)
(1.02153 0.0137728 0)
(1.02352 0.0133229 0)
(1.02496 0.0130705 0)
(1.02645 0.0124996 0)
(1.02772 0.0118932 0)
(1.02868 0.0114307 0)
(1.02943 0.0110673 0)
(1.03007 0.0107456 0)
(1.03061 0.010456 0)
(1.03108 0.0102021 0)
(1.03148 0.00998139 0)
(1.03181 0.00978855 0)
(1.0321 0.00961933 0)
(1.03233 0.00947104 0)
(1.03253 0.00934165 0)
(1.03269 0.00922952 0)
(1.03281 0.00913338 0)
(1.0329 0.00905231 0)
(1.03296 0.00898581 0)
(1.03299 0.00893369 0)
(1.033 0.00889602 0)
(1.03298 0.00887312 0)