/*--------------------------------*- C++ -*----------------------------------*\
  =========                 |
  \\      /  F ield         | OpenFOAM: The Open Source CFD Toolbox
   \\    /   O peration     | Website:  https://openfoam.org
    \\  /    A nd           | Version:  7
     \\/     M anipulation  |
\*---------------------------------------------------------------------------*/
FoamFile
{
    version     2.0;
    format      ascii;
    class       volVectorField;
    location    "0.27";
    object      vorticity;
}
// * * * * * * * * * * * * * * * * * * * * * * * * * * * * * * * * * * * * * //

dimensions      [0 0 -1 0 0 0 0];

internalField   nonuniform List<vector> 
70000
(
(0 -0 -45715.9)
(0 -0 -28615.9)
(0 -0 -20908.7)
(0 -0 -16971.5)
(0 -0 -14945.9)
(0 -0 -13634)
(0 -0 -12619)
(0 -0 -11800.6)
(0 -0 -11130.6)
(0 -0 -10570.1)
(0 -0 -10091.3)
(0 -0 -9675.43)
(0 -0 -9309.68)
(0 -0 -8984.61)
(0 -0 -8693.08)
(0 -0 -8429.57)
(0 -0 -8189.7)
(0 -0 -7969.98)
(0 -0 -7767.57)
(0 -0 -7580.12)
(0 -0 -7405.68)
(0 -0 -7242.57)
(0 -0 -7089.41)
(0 -0 -6944.95)
(0 -0 -6808.15)
(0 -0 -6678.05)
(0 -0 -6553.84)
(0 -0 -6434.75)
(0 -0 -6320.11)
(0 -0 -6209.3)
(0 -0 -6101.75)
(0 -0 -5996.91)
(0 -0 -5894.3)
(0 -0 -5793.42)
(0 -0 -5693.85)
(0 -0 -5595.14)
(0 -0 -5496.9)
(0 -0 -5398.82)
(0 -0 -5300.33)
(0 -0 -5201.7)
(0 -0 -5101.46)
(0 -0 -5001.94)
(0 -0 -4898.29)
(0 -0 -4799.6)
(0 -0 -4689.86)
(0 -0 -4598.91)
(0 -0 -4477.14)
(0 -0 -4411.3)
(0 -0 -4286.4)
(0 -0 -4085.14)
(0 -0 -13549.8)
(0 -0 -19947.2)
(0 -0 -18534.7)
(0 -0 -16245.9)
(0 -0 -14497)
(0 -0 -13269.5)
(0 -0 -12337.4)
(0 -0 -11583)
(0 -0 -10956)
(0 -0 -10425.8)
(0 -0 -9970)
(0 -0 -9572.56)
(0 -0 -9221.86)
(0 -0 -8909.33)
(0 -0 -8628.47)
(0 -0 -8374.21)
(0 -0 -8142.52)
(0 -0 -7930.14)
(0 -0 -7734.44)
(0 -0 -7553.21)
(0 -0 -7384.61)
(0 -0 -7227.1)
(0 -0 -7079.33)
(0 -0 -6940.15)
(0 -0 -6808.58)
(0 -0 -6683.71)
(0 -0 -6564.76)
(0 -0 -6451.04)
(0 -0 -6341.9)
(0 -0 -6236.74)
(0 -0 -6135.05)
(0 -0 -6036.29)
(0 -0 -5940.01)
(0 -0 -5845.74)
(0 -0 -5753.06)
(0 -0 -5661.53)
(0 -0 -5570.75)
(0 -0 -5480.36)
(0 -0 -5389.82)
(0 -0 -5299.19)
(0 -0 -5207.18)
(0 -0 -5115.37)
(0 -0 -5019.86)
(0 -0 -4927.22)
(0 -0 -4825.17)
(0 -0 -4735.37)
(0 -0 -4621.35)
(0 -0 -4543.92)
(0 -0 -4422.5)
(0 -0 -4379.87)
(0 -0 -3818.84)
(0 -0 -10829.3)
(0 -0 -13364)
(0 -0 -13519.6)
(0 -0 -12864.8)
(0 -0 -12136.7)
(0 -0 -11492.7)
(0 -0 -10929.5)
(0 -0 -10434.5)
(0 -0 -9998.52)
(0 -0 -9612.8)
(0 -0 -9269.28)
(0 -0 -8961.22)
(0 -0 -8683.16)
(0 -0 -8430.69)
(0 -0 -8200.21)
(0 -0 -7988.75)
(0 -0 -7793.84)
(0 -0 -7613.41)
(0 -0 -7445.72)
(0 -0 -7289.28)
(0 -0 -7142.8)
(0 -0 -7005.19)
(0 -0 -6875.47)
(0 -0 -6752.79)
(0 -0 -6636.4)
(0 -0 -6525.62)
(0 -0 -6419.84)
(0 -0 -6318.52)
(0 -0 -6221.14)
(0 -0 -6127.23)
(0 -0 -6036.35)
(0 -0 -5948.09)
(0 -0 -5862.04)
(0 -0 -5777.83)
(0 -0 -5695.07)
(0 -0 -5613.39)
(0 -0 -5532.46)
(0 -0 -5451.82)
(0 -0 -5371.35)
(0 -0 -5290.13)
(0 -0 -5208.97)
(0 -0 -5125.27)
(0 -0 -5042.85)
(0 -0 -4954.01)
(0 -0 -4871.38)
(0 -0 -4773.66)
(0 -0 -4694.01)
(0 -0 -4587.82)
(0 -0 -4572.5)
(0 -0 -533.046)
(0 -0 -4663.09)
(0 -0 -7719.77)
(0 -0 -9330.59)
(0 -0 -9894.6)
(0 -0 -9959.63)
(0 -0 -9827.13)
(0 -0 -9613.94)
(0 -0 -9368.92)
(0 -0 -9116.82)
(0 -0 -8870.11)
(0 -0 -8634.39)
(0 -0 -8411.81)
(0 -0 -8202.82)
(0 -0 -8007.09)
(0 -0 -7823.89)
(0 -0 -7652.36)
(0 -0 -7491.58)
(0 -0 -7340.64)
(0 -0 -7198.71)
(0 -0 -7064.98)
(0 -0 -6938.74)
(0 -0 -6819.3)
(0 -0 -6706.07)
(0 -0 -6598.49)
(0 -0 -6496.05)
(0 -0 -6398.28)
(0 -0 -6304.75)
(0 -0 -6215.06)
(0 -0 -6128.84)
(0 -0 -6045.74)
(0 -0 -5965.43)
(0 -0 -5887.58)
(0 -0 -5811.9)
(0 -0 -5738.08)
(0 -0 -5665.83)
(0 -0 -5594.87)
(0 -0 -5524.89)
(0 -0 -5455.59)
(0 -0 -5386.73)
(0 -0 -5317.82)
(0 -0 -5248.94)
(0 -0 -5178.96)
(0 -0 -5109.02)
(0 -0 -5036.25)
(0 -0 -4964.33)
(0 -0 -4887.4)
(0 -0 -4811.67)
(0 -0 -4733.26)
(0 -0 -4686.16)
(0 -0 322.499)
(0 -0 -1444.72)
(0 -0 -3533.62)
(0 -0 -5261.49)
(0 -0 -6402.79)
(0 -0 -7078.54)
(0 -0 -7456.62)
(0 -0 -7647.44)
(0 -0 -7719.27)
(0 -0 -7716.37)
(0 -0 -7667.37)
(0 -0 -7590.38)
(0 -0 -7496.87)
(0 -0 -7394.16)
(0 -0 -7286.96)
(0 -0 -7178.32)
(0 -0 -7070.21)
(0 -0 -6963.89)
(0 -0 -6860.13)
(0 -0 -6759.39)
(0 -0 -6661.94)
(0 -0 -6567.85)
(0 -0 -6477.15)
(0 -0 -6389.77)
(0 -0 -6305.6)
(0 -0 -6224.51)
(0 -0 -6146.35)
(0 -0 -6070.96)
(0 -0 -5998.18)
(0 -0 -5927.82)
(0 -0 -5859.72)
(0 -0 -5793.7)
(0 -0 -5729.59)
(0 -0 -5667.21)
(0 -0 -5606.39)
(0 -0 -5546.92)
(0 -0 -5488.66)
(0 -0 -5431.37)
(0 -0 -5374.92)
(0 -0 -5318.99)
(0 -0 -5263.52)
(0 -0 -5208.02)
(0 -0 -5152.7)
(0 -0 -5096.42)
(0 -0 -5040.6)
(0 -0 -4981.38)
(0 -0 -4926.09)
(0 -0 -4858.36)
(0 -0 -4811.66)
(0 -0 -4739)
(0 -0 364.753)
(0 -0 -158.551)
(0 -0 -1182.02)
(0 -0 -2363.62)
(0 -0 -3420.58)
(0 -0 -4260.79)
(0 -0 -4897.44)
(0 -0 -5364.3)
(0 -0 -5696.38)
(0 -0 -5925.67)
(0 -0 -6078.47)
(0 -0 -6174.93)
(0 -0 -6230)
(0 -0 -6254.68)
(0 -0 -6257.07)
(0 -0 -6243.13)
(0 -0 -6217.28)
(0 -0 -6182.79)
(0 -0 -6142.1)
(0 -0 -6097.06)
(0 -0 -6049.04)
(0 -0 -5999.08)
(0 -0 -5947.96)
(0 -0 -5896.26)
(0 -0 -5844.44)
(0 -0 -5792.82)
(0 -0 -5741.63)
(0 -0 -5691.07)
(0 -0 -5641.24)
(0 -0 -5592.24)
(0 -0 -5544.11)
(0 -0 -5496.87)
(0 -0 -5450.53)
(0 -0 -5405.08)
(0 -0 -5360.47)
(0 -0 -5316.66)
(0 -0 -5273.62)
(0 -0 -5231.22)
(0 -0 -5189.48)
(0 -0 -5148.1)
(0 -0 -5107.37)
(0 -0 -5066.42)
(0 -0 -5026.44)
(0 -0 -4984.82)
(0 -0 -4945.91)
(0 -0 -4900.95)
(0 -0 -4865.76)
(0 -0 -4810.37)
(0 -0 -4788.77)
(0 -0 -4718.38)
(0 -0 254.049)
(0 -0 185.361)
(0 -0 -173.404)
(0 -0 -765.428)
(0 -0 -1449.57)
(0 -0 -2118.85)
(0 -0 -2725.8)
(0 -0 -3250.77)
(0 -0 -3689.51)
(0 -0 -4047.68)
(0 -0 -4335.51)
(0 -0 -4564.09)
(0 -0 -4743.73)
(0 -0 -4883.42)
(0 -0 -4990.7)
(0 -0 -5071.77)
(0 -0 -5131.68)
(0 -0 -5174.52)
(0 -0 -5203.59)
(0 -0 -5221.53)
(0 -0 -5230.5)
(0 -0 -5232.21)
(0 -0 -5228.08)
(0 -0 -5219.24)
(0 -0 -5206.61)
(0 -0 -5190.95)
(0 -0 -5172.87)
(0 -0 -5152.89)
(0 -0 -5131.41)
(0 -0 -5108.78)
(0 -0 -5085.27)
(0 -0 -5061.13)
(0 -0 -5036.54)
(0 -0 -5011.65)
(0 -0 -4986.59)
(0 -0 -4961.45)
(0 -0 -4936.34)
(0 -0 -4911.25)
(0 -0 -4886.34)
(0 -0 -4861.4)
(0 -0 -4836.89)
(0 -0 -4811.9)
(0 -0 -4788.09)
(0 -0 -4762.26)
(0 -0 -4740.07)
(0 -0 -4710.95)
(0 -0 -4693.55)
(0 -0 -4654.83)
(0 -0 -4649.79)
(0 -0 -4599.25)
(0 -0 178.765)
(0 -0 204.554)
(0 -0 130.701)
(0 -0 -85.4203)
(0 -0 -418.727)
(0 -0 -816.788)
(0 -0 -1239.71)
(0 -0 -1658.53)
(0 -0 -2053.26)
(0 -0 -2412.8)
(0 -0 -2732.8)
(0 -0 -3013.1)
(0 -0 -3255.84)
(0 -0 -3464.29)
(0 -0 -3642.19)
(0 -0 -3793.26)
(0 -0 -3921.02)
(0 -0 -4028.65)
(0 -0 -4119)
(0 -0 -4194.54)
(0 -0 -4257.4)
(0 -0 -4309.42)
(0 -0 -4352.18)
(0 -0 -4387.03)
(0 -0 -4415.11)
(0 -0 -4437.41)
(0 -0 -4454.76)
(0 -0 -4467.9)
(0 -0 -4477.43)
(0 -0 -4483.88)
(0 -0 -4487.72)
(0 -0 -4489.35)
(0 -0 -4489.1)
(0 -0 -4487.28)
(0 -0 -4484.14)
(0 -0 -4479.91)
(0 -0 -4474.81)
(0 -0 -4468.97)
(0 -0 -4462.62)
(0 -0 -4455.7)
(0 -0 -4448.73)
(0 -0 -4440.96)
(0 -0 -4434.07)
(0 -0 -4425.09)
(0 -0 -4419.52)
(0 -0 -4407.53)
(0 -0 -4406.16)
(0 -0 -4386.7)
(0 -0 -4393.92)
(0 -0 -4367.27)
(0 -0 148.039)
(0 -0 164.642)
(0 -0 170.047)
(0 -0 120.991)
(0 -0 0.80242)
(0 -0 -181.512)
(0 -0 -410.634)
(0 -0 -670.216)
(0 -0 -944.386)
(0 -0 -1220.15)
(0 -0 -1488.21)
(0 -0 -1742.48)
(0 -0 -1979.37)
(0 -0 -2197.15)
(0 -0 -2395.39)
(0 -0 -2574.51)
(0 -0 -2735.45)
(0 -0 -2879.47)
(0 -0 -3007.95)
(0 -0 -3122.3)
(0 -0 -3223.92)
(0 -0 -3314.11)
(0 -0 -3394.09)
(0 -0 -3464.96)
(0 -0 -3527.74)
(0 -0 -3583.34)
(0 -0 -3632.57)
(0 -0 -3676.16)
(0 -0 -3714.76)
(0 -0 -3748.95)
(0 -0 -3779.25)
(0 -0 -3806.14)
(0 -0 -3830.02)
(0 -0 -3851.27)
(0 -0 -3870.24)
(0 -0 -3887.23)
(0 -0 -3902.52)
(0 -0 -3916.35)
(0 -0 -3929)
(0 -0 -3940.54)
(0 -0 -3951.46)
(0 -0 -3961.29)
(0 -0 -3971.44)
(0 -0 -3979.64)
(0 -0 -3990.36)
(0 -0 -3995.86)
(0 -0 -4009.52)
(0 -0 -4009.53)
(0 -0 -4028.28)
(0 -0 -4023.8)
(0 -0 136.852)
(0 -0 137.1)
(0 -0 148.784)
(0 -0 149.741)
(0 -0 122.198)
(0 -0 59.9142)
(0 -0 -37.0065)
(0 -0 -164.963)
(0 -0 -317.63)
(0 -0 -487.689)
(0 -0 -668.196)
(0 -0 -853.196)
(0 -0 -1037.9)
(0 -0 -1218.67)
(0 -0 -1392.9)
(0 -0 -1558.86)
(0 -0 -1715.49)
(0 -0 -1862.26)
(0 -0 -1999.05)
(0 -0 -2126)
(0 -0 -2243.43)
(0 -0 -2351.8)
(0 -0 -2451.65)
(0 -0 -2543.55)
(0 -0 -2628.06)
(0 -0 -2705.77)
(0 -0 -2777.23)
(0 -0 -2842.96)
(0 -0 -2903.48)
(0 -0 -2959.26)
(0 -0 -3010.73)
(0 -0 -3058.32)
(0 -0 -3102.41)
(0 -0 -3143.37)
(0 -0 -3181.52)
(0 -0 -3217.2)
(0 -0 -3250.67)
(0 -0 -3282.24)
(0 -0 -3312.17)
(0 -0 -3340.64)
(0 -0 -3368.05)
(0 -0 -3394.21)
(0 -0 -3420.16)
(0 -0 -3444.38)
(0 -0 -3470.2)
(0 -0 -3492.01)
(0 -0 -3519.57)
(0 -0 -3537.39)
(0 -0 -3567.52)
(0 -0 -3582.25)
(0 -0 129.976)
(0 -0 124.031)
(0 -0 129.222)
(0 -0 136.441)
(0 -0 136.537)
(0 -0 123.226)
(0 -0 92.8037)
(0 -0 43.3576)
(0 -0 -24.9979)
(0 -0 -110.465)
(0 -0 -210.286)
(0 -0 -321.327)
(0 -0 -440.428)
(0 -0 -564.661)
(0 -0 -691.461)
(0 -0 -818.684)
(0 -0 -944.604)
(0 -0 -1067.89)
(0 -0 -1187.54)
(0 -0 -1302.85)
(0 -0 -1413.37)
(0 -0 -1518.82)
(0 -0 -1619.09)
(0 -0 -1714.18)
(0 -0 -1804.16)
(0 -0 -1889.2)
(0 -0 -1969.48)
(0 -0 -2045.24)
(0 -0 -2116.71)
(0 -0 -2184.16)
(0 -0 -2247.85)
(0 -0 -2308.06)
(0 -0 -2365.04)
(0 -0 -2419.07)
(0 -0 -2470.39)
(0 -0 -2519.29)
(0 -0 -2565.97)
(0 -0 -2610.73)
(0 -0 -2653.77)
(0 -0 -2695.31)
(0 -0 -2735.65)
(0 -0 -2774.79)
(0 -0 -2813.45)
(0 -0 -2850.69)
(0 -0 -2888.87)
(0 -0 -2924.11)
(0 -0 -2963.28)
(0 -0 -2995.71)
(0 -0 -3035.91)
(0 -0 -3066.23)
(0 -0 122.99)
(0 -0 116.683)
(0 -0 118.055)
(0 -0 122.541)
(0 -0 126.5)
(0 -0 126.975)
(0 -0 121.468)
(0 -0 107.639)
(0 -0 83.804)
(0 -0 49.2121)
(0 -0 3.92298)
(0 -0 -51.3789)
(0 -0 -115.583)
(0 -0 -187.327)
(0 -0 -265.158)
(0 -0 -347.63)
(0 -0 -433.391)
(0 -0 -521.219)
(0 -0 -610.053)
(0 -0 -698.989)
(0 -0 -787.285)
(0 -0 -874.343)
(0 -0 -959.698)
(0 -0 -1043)
(0 -0 -1123.99)
(0 -0 -1202.5)
(0 -0 -1278.43)
(0 -0 -1351.73)
(0 -0 -1422.4)
(0 -0 -1490.48)
(0 -0 -1556.03)
(0 -0 -1619.17)
(0 -0 -1679.98)
(0 -0 -1738.61)
(0 -0 -1795.2)
(0 -0 -1849.91)
(0 -0 -1902.88)
(0 -0 -1954.33)
(0 -0 -2004.37)
(0 -0 -2053.24)
(0 -0 -2101.11)
(0 -0 -2148.05)
(0 -0 -2194.58)
(0 -0 -2240.1)
(0 -0 -2286.3)
(0 -0 -2330.51)
(0 -0 -2377.44)
(0 -0 -2420)
(0 -0 -2467.31)
(0 -0 -2508.65)
(0 -0 115.673)
(0 -0 110.455)
(0 -0 110.777)
(0 -0 113.222)
(0 -0 116.046)
(0 -0 118.318)
(0 -0 119.2)
(0 -0 117.474)
(0 -0 111.833)
(0 -0 101.196)
(0 -0 84.808)
(0 -0 62.2673)
(0 -0 33.4917)
(0 -0 -1.32086)
(0 -0 -41.7594)
(0 -0 -87.2651)
(0 -0 -137.192)
(0 -0 -190.854)
(0 -0 -247.567)
(0 -0 -306.675)
(0 -0 -367.568)
(0 -0 -429.696)
(0 -0 -492.571)
(0 -0 -555.774)
(0 -0 -618.947)
(0 -0 -681.793)
(0 -0 -744.068)
(0 -0 -805.582)
(0 -0 -866.185)
(0 -0 -925.772)
(0 -0 -984.267)
(0 -0 -1041.64)
(0 -0 -1097.86)
(0 -0 -1152.96)
(0 -0 -1206.96)
(0 -0 -1259.94)
(0 -0 -1311.94)
(0 -0 -1363.08)
(0 -0 -1413.43)
(0 -0 -1463.14)
(0 -0 -1512.33)
(0 -0 -1561.05)
(0 -0 -1609.69)
(0 -0 -1657.83)
(0 -0 -1706.67)
(0 -0 -1754.4)
(0 -0 -1804.18)
(0 -0 -1851.45)
(0 -0 -1901.66)
(0 -0 -1948.65)
(0 -0 108.431)
(0 -0 104.241)
(0 -0 104.456)
(0 -0 106.17)
(0 -0 108.046)
(0 -0 109.766)
(0 -0 111.314)
(0 -0 112.337)
(0 -0 112.246)
(0 -0 110.396)
(0 -0 106.18)
(0 -0 99.0772)
(0 -0 88.6876)
(0 -0 74.7514)
(0 -0 57.1512)
(0 -0 35.8948)
(0 -0 11.0978)
(0 -0 -17.0403)
(0 -0 -48.2589)
(0 -0 -82.2586)
(0 -0 -118.719)
(0 -0 -157.314)
(0 -0 -197.723)
(0 -0 -239.644)
(0 -0 -282.791)
(0 -0 -326.906)
(0 -0 -371.755)
(0 -0 -417.136)
(0 -0 -462.867)
(0 -0 -508.802)
(0 -0 -554.812)
(0 -0 -600.803)
(0 -0 -646.692)
(0 -0 -692.437)
(0 -0 -737.993)
(0 -0 -783.369)
(0 -0 -828.548)
(0 -0 -873.587)
(0 -0 -918.5)
(0 -0 -963.368)
(0 -0 -1008.27)
(0 -0 -1053.22)
(0 -0 -1098.51)
(0 -0 -1143.83)
(0 -0 -1190.02)
(0 -0 -1235.9)
(0 -0 -1283.47)
(0 -0 -1329.98)
(0 -0 -1378.47)
(0 -0 -1425.65)
(0 -0 101.456)
(0 -0 98.0531)
(0 -0 98.283)
(0 -0 99.7632)
(0 -0 101.283)
(0 -0 102.563)
(0 -0 103.796)
(0 -0 104.993)
(0 -0 105.977)
(0 -0 106.498)
(0 -0 106.267)
(0 -0 104.975)
(0 -0 102.318)
(0 -0 98.0241)
(0 -0 91.8669)
(0 -0 83.6783)
(0 -0 73.3493)
(0 -0 60.8296)
(0 -0 46.1209)
(0 -0 29.2703)
(0 -0 10.3611)
(0 -0 -10.4957)
(0 -0 -33.1696)
(0 -0 -57.5182)
(0 -0 -83.3933)
(0 -0 -110.646)
(0 -0 -139.13)
(0 -0 -168.708)
(0 -0 -199.249)
(0 -0 -230.634)
(0 -0 -262.755)
(0 -0 -295.521)
(0 -0 -328.85)
(0 -0 -362.682)
(0 -0 -396.959)
(0 -0 -431.659)
(0 -0 -466.749)
(0 -0 -502.24)
(0 -0 -538.129)
(0 -0 -574.448)
(0 -0 -611.251)
(0 -0 -648.533)
(0 -0 -686.492)
(0 -0 -724.927)
(0 -0 -764.39)
(0 -0 -804.166)
(0 -0 -845.44)
(0 -0 -886.684)
(0 -0 -929.444)
(0 -0 -972.142)
(0 -0 94.7833)
(0 -0 92.007)
(0 -0 92.2254)
(0 -0 93.5572)
(0 -0 94.9456)
(0 -0 96.052)
(0 -0 97.0593)
(0 -0 98.066)
(0 -0 99.0443)
(0 -0 99.9264)
(0 -0 100.621)
(0 -0 101.007)
(0 -0 100.939)
(0 -0 100.263)
(0 -0 98.822)
(0 -0 96.4704)
(0 -0 93.079)
(0 -0 88.5407)
(0 -0 82.7731)
(0 -0 75.7193)
(0 -0 67.3467)
(0 -0 57.6452)
(0 -0 46.6244)
(0 -0 34.3097)
(0 -0 20.7399)
(0 -0 5.96336)
(0 -0 -9.9643)
(0 -0 -26.9839)
(0 -0 -45.0332)
(0 -0 -64.0519)
(0 -0 -83.9798)
(0 -0 -104.762)
(0 -0 -126.348)
(0 -0 -148.697)
(0 -0 -171.767)
(0 -0 -195.537)
(0 -0 -219.983)
(0 -0 -245.102)
(0 -0 -270.894)
(0 -0 -297.369)
(0 -0 -324.568)
(0 -0 -352.482)
(0 -0 -381.247)
(0 -0 -410.747)
(0 -0 -441.321)
(0 -0 -472.584)
(0 -0 -505.186)
(0 -0 -538.373)
(0 -0 -572.847)
(0 -0 -607.965)
(0 -0 88.4108)
(0 -0 86.1548)
(0 -0 86.355)
(0 -0 87.5375)
(0 -0 88.8278)
(0 -0 89.8552)
(0 -0 90.7558)
(0 -0 91.6334)
(0 -0 92.4927)
(0 -0 93.3194)
(0 -0 94.0975)
(0 -0 94.7973)
(0 -0 95.3716)
(0 -0 95.7585)
(0 -0 95.8862)
(0 -0 95.6766)
(0 -0 95.0497)
(0 -0 93.9273)
(0 -0 92.2366)
(0 -0 89.9121)
(0 -0 86.8981)
(0 -0 83.149)
(0 -0 78.6295)
(0 -0 73.3146)
(0 -0 67.1886)
(0 -0 60.2436)
(0 -0 52.48)
(0 -0 43.9031)
(0 -0 34.5238)
(0 -0 24.3553)
(0 -0 13.4148)
(0 -0 1.71813)
(0 -0 -10.7163)
(0 -0 -23.8751)
(0 -0 -37.7428)
(0 -0 -52.313)
(0 -0 -67.5778)
(0 -0 -83.5404)
(0 -0 -100.207)
(0 -0 -117.587)
(0 -0 -135.716)
(0 -0 -154.593)
(0 -0 -174.31)
(0 -0 -194.815)
(0 -0 -216.304)
(0 -0 -238.61)
(0 -0 -262.053)
(0 -0 -286.332)
(0 -0 -311.717)
(0 -0 -338.035)
(0 -0 82.3374)
(0 -0 80.5144)
(0 -0 80.705)
(0 -0 81.7429)
(0 -0 82.9301)
(0 -0 83.8922)
(0 -0 84.7248)
(0 -0 85.5247)
(0 -0 86.3005)
(0 -0 87.046)
(0 -0 87.7632)
(0 -0 88.4514)
(0 -0 89.102)
(0 -0 89.6982)
(0 -0 90.2161)
(0 -0 90.626)
(0 -0 90.8927)
(0 -0 90.9778)
(0 -0 90.8406)
(0 -0 90.4403)
(0 -0 89.7368)
(0 -0 88.6924)
(0 -0 87.2721)
(0 -0 85.4446)
(0 -0 83.1824)
(0 -0 80.4617)
(0 -0 77.2628)
(0 -0 73.5693)
(0 -0 69.3688)
(0 -0 64.6508)
(0 -0 59.4087)
(0 -0 53.6351)
(0 -0 47.3273)
(0 -0 40.48)
(0 -0 33.0895)
(0 -0 25.1495)
(0 -0 16.6534)
(0 -0 7.59128)
(0 -0 -2.05122)
(0 -0 -12.287)
(0 -0 -23.1468)
(0 -0 -34.6409)
(0 -0 -46.8288)
(0 -0 -59.704)
(0 -0 -73.3712)
(0 -0 -87.7863)
(0 -0 -103.093)
(0 -0 -119.221)
(0 -0 -136.248)
(0 -0 -154.203)
(0 -0 76.5634)
(0 -0 75.0974)
(0 -0 75.2874)
(0 -0 76.1936)
(0 -0 77.2752)
(0 -0 78.1708)
(0 -0 78.9418)
(0 -0 79.679)
(0 -0 80.3926)
(0 -0 81.0758)
(0 -0 81.7313)
(0 -0 82.3643)
(0 -0 82.9763)
(0 -0 83.5654)
(0 -0 84.1267)
(0 -0 84.6522)
(0 -0 85.1308)
(0 -0 85.5485)
(0 -0 85.8888)
(0 -0 86.1333)
(0 -0 86.2623)
(0 -0 86.255)
(0 -0 86.0906)
(0 -0 85.7482)
(0 -0 85.2075)
(0 -0 84.4488)
(0 -0 83.4537)
(0 -0 82.2045)
(0 -0 80.6852)
(0 -0 78.8807)
(0 -0 76.7771)
(0 -0 74.362)
(0 -0 71.6229)
(0 -0 68.5485)
(0 -0 65.1273)
(0 -0 61.348)
(0 -0 57.1975)
(0 -0 52.6636)
(0 -0 47.7283)
(0 -0 42.3779)
(0 -0 36.5882)
(0 -0 30.3415)
(0 -0 23.602)
(0 -0 16.352)
(0 -0 8.54089)
(0 -0 0.152294)
(0 -0 -8.86758)
(0 -0 -18.5466)
(0 -0 -28.8916)
(0 -0 -39.9968)
(0 -0 71.0889)
(0 -0 69.9141)
(0 -0 70.1093)
(0 -0 70.8982)
(0 -0 71.876)
(0 -0 72.7049)
(0 -0 73.4159)
(0 -0 74.0935)
(0 -0 74.7509)
(0 -0 75.3807)
(0 -0 75.9839)
(0 -0 76.5655)
(0 -0 77.1288)
(0 -0 77.6749)
(0 -0 78.204)
(0 -0 78.7155)
(0 -0 79.207)
(0 -0 79.6753)
(0 -0 80.1154)
(0 -0 80.5214)
(0 -0 80.886)
(0 -0 81.201)
(0 -0 81.4574)
(0 -0 81.6453)
(0 -0 81.7542)
(0 -0 81.7733)
(0 -0 81.6913)
(0 -0 81.4969)
(0 -0 81.1788)
(0 -0 80.7256)
(0 -0 80.1265)
(0 -0 79.3705)
(0 -0 78.4469)
(0 -0 77.3451)
(0 -0 76.0543)
(0 -0 74.5637)
(0 -0 72.8618)
(0 -0 70.9366)
(0 -0 68.7755)
(0 -0 66.3634)
(0 -0 63.6847)
(0 -0 60.7211)
(0 -0 57.4535)
(0 -0 53.8568)
(0 -0 49.9105)
(0 -0 45.5778)
(0 -0 40.8457)
(0 -0 35.659)
(0 -0 30.0316)
(0 -0 23.8663)
(0 -0 65.9121)
(0 -0 64.973)
(0 -0 65.1763)
(0 -0 65.8616)
(0 -0 66.7394)
(0 -0 67.5028)
(0 -0 68.1562)
(0 -0 68.7762)
(0 -0 69.3794)
(0 -0 69.9587)
(0 -0 70.5138)
(0 -0 71.0488)
(0 -0 71.5667)
(0 -0 72.0691)
(0 -0 72.5569)
(0 -0 73.0309)
(0 -0 73.4915)
(0 -0 73.9384)
(0 -0 74.3711)
(0 -0 74.7884)
(0 -0 75.1887)
(0 -0 75.5699)
(0 -0 75.9292)
(0 -0 76.2635)
(0 -0 76.5689)
(0 -0 76.8408)
(0 -0 77.0743)
(0 -0 77.264)
(0 -0 77.4041)
(0 -0 77.4886)
(0 -0 77.5111)
(0 -0 77.4652)
(0 -0 77.3443)
(0 -0 77.1416)
(0 -0 76.8502)
(0 -0 76.4627)
(0 -0 75.9716)
(0 -0 75.3684)
(0 -0 74.6453)
(0 -0 73.7913)
(0 -0 72.798)
(0 -0 71.6503)
(0 -0 70.3402)
(0 -0 68.845)
(0 -0 67.1595)
(0 -0 65.2492)
(0 -0 63.1163)
(0 -0 60.7084)
(0 -0 58.0435)
(0 -0 55.0436)
(0 -0 61.0304)
(0 -0 60.2805)
(0 -0 60.4926)
(0 -0 61.0869)
(0 -0 61.8695)
(0 -0 62.5694)
(0 -0 63.1678)
(0 -0 63.7329)
(0 -0 64.2839)
(0 -0 64.8146)
(0 -0 65.3237)
(0 -0 65.8146)
(0 -0 66.2899)
(0 -0 66.7511)
(0 -0 67.199)
(0 -0 67.6344)
(0 -0 68.0582)
(0 -0 68.4708)
(0 -0 68.8727)
(0 -0 69.2643)
(0 -0 69.6457)
(0 -0 70.0173)
(0 -0 70.3787)
(0 -0 70.7297)
(0 -0 71.0695)
(0 -0 71.3969)
(0 -0 71.7104)
(0 -0 72.008)
(0 -0 72.2876)
(0 -0 72.5467)
(0 -0 72.7826)
(0 -0 72.9925)
(0 -0 73.1733)
(0 -0 73.3216)
(0 -0 73.4341)
(0 -0 73.5069)
(0 -0 73.5365)
(0 -0 73.5179)
(0 -0 73.4477)
(0 -0 73.3189)
(0 -0 73.1286)
(0 -0 72.8662)
(0 -0 72.5307)
(0 -0 72.1048)
(0 -0 71.5914)
(0 -0 70.9631)
(0 -0 70.2297)
(0 -0 69.3498)
(0 -0 68.3427)
(0 -0 67.1501)
(0 -0 56.4399)
(0 -0 55.8407)
(0 -0 56.0608)
(0 -0 56.5755)
(0 -0 57.2687)
(0 -0 57.9069)
(0 -0 58.4535)
(0 -0 58.9665)
(0 -0 59.4676)
(0 -0 59.9518)
(0 -0 60.4169)
(0 -0 60.8656)
(0 -0 61.3003)
(0 -0 61.7223)
(0 -0 62.1322)
(0 -0 62.5308)
(0 -0 62.9187)
(0 -0 63.2966)
(0 -0 63.665)
(0 -0 64.0246)
(0 -0 64.3762)
(0 -0 64.7204)
(0 -0 65.058)
(0 -0 65.3896)
(0 -0 65.7155)
(0 -0 66.0359)
(0 -0 66.3506)
(0 -0 66.6593)
(0 -0 66.9615)
(0 -0 67.2566)
(0 -0 67.5438)
(0 -0 67.8221)
(0 -0 68.0907)
(0 -0 68.3483)
(0 -0 68.5939)
(0 -0 68.826)
(0 -0 69.0434)
(0 -0 69.244)
(0 -0 69.427)
(0 -0 69.5885)
(0 -0 69.7291)
(0 -0 69.8419)
(0 -0 69.9296)
(0 -0 69.9801)
(0 -0 70.0002)
(0 -0 69.9698)
(0 -0 69.9018)
(0 -0 69.7651)
(0 -0 69.5806)
(0 -0 69.3037)
(0 -0 52.1354)
(0 -0 51.6555)
(0 -0 51.8814)
(0 -0 52.327)
(0 -0 52.937)
(0 -0 53.5159)
(0 -0 54.0136)
(0 -0 54.4777)
(0 -0 54.9315)
(0 -0 55.3715)
(0 -0 55.7948)
(0 -0 56.2033)
(0 -0 56.5993)
(0 -0 56.9839)
(0 -0 57.3577)
(0 -0 57.7212)
(0 -0 58.0749)
(0 -0 58.4195)
(0 -0 58.7554)
(0 -0 59.0834)
(0 -0 59.4042)
(0 -0 59.7188)
(0 -0 60.028)
(0 -0 60.3326)
(0 -0 60.6333)
(0 -0 60.9307)
(0 -0 61.225)
(0 -0 61.5164)
(0 -0 61.8051)
(0 -0 62.0911)
(0 -0 62.3744)
(0 -0 62.655)
(0 -0 62.9328)
(0 -0 63.2078)
(0 -0 63.4799)
(0 -0 63.7488)
(0 -0 64.0148)
(0 -0 64.2769)
(0 -0 64.5361)
(0 -0 64.7904)
(0 -0 65.0417)
(0 -0 65.2857)
(0 -0 65.5268)
(0 -0 65.7566)
(0 -0 65.9833)
(0 -0 66.192)
(0 -0 66.397)
(0 -0 66.5737)
(0 -0 66.7455)
(0 -0 66.8743)
(0 -0 48.1105)
(0 -0 47.7248)
(0 -0 47.9535)
(0 -0 48.3392)
(0 -0 48.8728)
(0 -0 49.395)
(0 -0 49.8466)
(0 -0 50.2652)
(0 -0 50.6744)
(0 -0 51.0725)
(0 -0 51.4562)
(0 -0 51.8268)
(0 -0 52.1862)
(0 -0 52.5354)
(0 -0 52.8748)
(0 -0 53.205)
(0 -0 53.5263)
(0 -0 53.8391)
(0 -0 54.1441)
(0 -0 54.4419)
(0 -0 54.7332)
(0 -0 55.0189)
(0 -0 55.3)
(0 -0 55.5773)
(0 -0 55.8515)
(0 -0 56.1232)
(0 -0 56.3928)
(0 -0 56.6606)
(0 -0 56.9269)
(0 -0 57.1919)
(0 -0 57.4558)
(0 -0 57.7189)
(0 -0 57.9816)
(0 -0 58.244)
(0 -0 58.5066)
(0 -0 58.7696)
(0 -0 59.0336)
(0 -0 59.2986)
(0 -0 59.566)
(0 -0 59.8345)
(0 -0 60.1069)
(0 -0 60.3803)
(0 -0 60.6595)
(0 -0 60.938)
(0 -0 61.2248)
(0 -0 61.5075)
(0 -0 61.8014)
(0 -0 62.0848)
(0 -0 62.3838)
(0 -0 62.6621)
(0 -0 44.3576)
(0 -0 44.0461)
(0 -0 44.274)
(0 -0 44.6081)
(0 -0 45.0723)
(0 -0 45.5407)
(0 -0 45.9492)
(0 -0 46.3255)
(0 -0 46.693)
(0 -0 47.0518)
(0 -0 47.3983)
(0 -0 47.7332)
(0 -0 48.0581)
(0 -0 48.3739)
(0 -0 48.6809)
(0 -0 48.9796)
(0 -0 49.2701)
(0 -0 49.553)
(0 -0 49.8287)
(0 -0 50.0978)
(0 -0 50.361)
(0 -0 50.6193)
(0 -0 50.8736)
(0 -0 51.1247)
(0 -0 51.3733)
(0 -0 51.62)
(0 -0 51.865)
(0 -0 52.1088)
(0 -0 52.3517)
(0 -0 52.5937)
(0 -0 52.8352)
(0 -0 53.0766)
(0 -0 53.3181)
(0 -0 53.5602)
(0 -0 53.8033)
(0 -0 54.0478)
(0 -0 54.2946)
(0 -0 54.5437)
(0 -0 54.7967)
(0 -0 55.0529)
(0 -0 55.315)
(0 -0 55.5807)
(0 -0 55.8549)
(0 -0 56.1323)
(0 -0 56.4216)
(0 -0 56.7118)
(0 -0 57.0188)
(0 -0 57.3217)
(0 -0 57.6489)
(0 -0 57.9631)
(0 -0 40.8681)
(0 -0 40.6151)
(0 -0 40.8387)
(0 -0 41.1282)
(0 -0 41.5302)
(0 -0 41.9477)
(0 -0 42.316)
(0 -0 42.6533)
(0 -0 42.9821)
(0 -0 43.3041)
(0 -0 43.6159)
(0 -0 43.9174)
(0 -0 44.21)
(0 -0 44.4946)
(0 -0 44.7712)
(0 -0 45.0403)
(0 -0 45.302)
(0 -0 45.5566)
(0 -0 45.8046)
(0 -0 46.0467)
(0 -0 46.2834)
(0 -0 46.5159)
(0 -0 46.7448)
(0 -0 46.9712)
(0 -0 47.1955)
(0 -0 47.4184)
(0 -0 47.6401)
(0 -0 47.8609)
(0 -0 48.0811)
(0 -0 48.3008)
(0 -0 48.5203)
(0 -0 48.7397)
(0 -0 48.9597)
(0 -0 49.1803)
(0 -0 49.4022)
(0 -0 49.6258)
(0 -0 49.8518)
(0 -0 50.0805)
(0 -0 50.3133)
(0 -0 50.5496)
(0 -0 50.7923)
(0 -0 51.0391)
(0 -0 51.295)
(0 -0 51.5548)
(0 -0 51.8273)
(0 -0 52.102)
(0 -0 52.3949)
(0 -0 52.6851)
(0 -0 53.0031)
(0 -0 53.3094)
(0 -0 37.6323)
(0 -0 37.4257)
(0 -0 37.6412)
(0 -0 37.8925)
(0 -0 38.239)
(0 -0 38.6092)
(0 -0 38.9401)
(0 -0 39.2416)
(0 -0 39.5347)
(0 -0 39.8226)
(0 -0 40.1021)
(0 -0 40.3726)
(0 -0 40.6352)
(0 -0 40.8906)
(0 -0 41.139)
(0 -0 41.3804)
(0 -0 41.6151)
(0 -0 41.8433)
(0 -0 42.0654)
(0 -0 42.2821)
(0 -0 42.494)
(0 -0 42.7022)
(0 -0 42.9074)
(0 -0 43.1104)
(0 -0 43.312)
(0 -0 43.5125)
(0 -0 43.7122)
(0 -0 43.9114)
(0 -0 44.1102)
(0 -0 44.3087)
(0 -0 44.5072)
(0 -0 44.7059)
(0 -0 44.905)
(0 -0 45.105)
(0 -0 45.3063)
(0 -0 45.5092)
(0 -0 45.7145)
(0 -0 45.9224)
(0 -0 46.1344)
(0 -0 46.3498)
(0 -0 46.5714)
(0 -0 46.797)
(0 -0 47.0314)
(0 -0 47.2695)
(0 -0 47.5202)
(0 -0 47.7727)
(0 -0 48.0437)
(0 -0 48.3115)
(0 -0 48.6083)
(0 -0 48.892)
(0 -0 34.6394)
(0 -0 34.4704)
(0 -0 34.6739)
(0 -0 34.8924)
(0 -0 35.1902)
(0 -0 35.5165)
(0 -0 35.8128)
(0 -0 36.0816)
(0 -0 36.3421)
(0 -0 36.5985)
(0 -0 36.8483)
(0 -0 37.0902)
(0 -0 37.3251)
(0 -0 37.5535)
(0 -0 37.7756)
(0 -0 37.9914)
(0 -0 38.2009)
(0 -0 38.4046)
(0 -0 38.6026)
(0 -0 38.7957)
(0 -0 38.9845)
(0 -0 39.1699)
(0 -0 39.3529)
(0 -0 39.5342)
(0 -0 39.7145)
(0 -0 39.8941)
(0 -0 40.0733)
(0 -0 40.2523)
(0 -0 40.431)
(0 -0 40.6097)
(0 -0 40.7885)
(0 -0 40.9676)
(0 -0 41.1472)
(0 -0 41.3277)
(0 -0 41.5094)
(0 -0 41.6927)
(0 -0 41.8784)
(0 -0 42.0665)
(0 -0 42.2584)
(0 -0 42.4536)
(0 -0 42.6545)
(0 -0 42.8593)
(0 -0 43.0723)
(0 -0 43.2887)
(0 -0 43.517)
(0 -0 43.7466)
(0 -0 43.9942)
(0 -0 44.2376)
(0 -0 44.5105)
(0 -0 44.768)
(0 -0 31.8782)
(0 -0 31.7398)
(0 -0 31.9283)
(0 -0 32.1189)
(0 -0 32.3742)
(0 -0 32.6604)
(0 -0 32.9246)
(0 -0 33.1639)
(0 -0 33.3945)
(0 -0 33.6222)
(0 -0 33.8445)
(0 -0 34.0602)
(0 -0 34.2696)
(0 -0 34.4732)
(0 -0 34.6711)
(0 -0 34.8632)
(0 -0 35.0496)
(0 -0 35.2305)
(0 -0 35.4063)
(0 -0 35.5774)
(0 -0 35.7447)
(0 -0 35.9091)
(0 -0 36.0715)
(0 -0 36.2327)
(0 -0 36.3932)
(0 -0 36.5534)
(0 -0 36.7135)
(0 -0 36.8736)
(0 -0 37.0338)
(0 -0 37.194)
(0 -0 37.3545)
(0 -0 37.5153)
(0 -0 37.6767)
(0 -0 37.8389)
(0 -0 38.0024)
(0 -0 38.1673)
(0 -0 38.3345)
(0 -0 38.5039)
(0 -0 38.677)
(0 -0 38.853)
(0 -0 39.0345)
(0 -0 39.2194)
(0 -0 39.4121)
(0 -0 39.6077)
(0 -0 39.8146)
(0 -0 40.022)
(0 -0 40.247)
(0 -0 40.4666)
(0 -0 40.7157)
(0 -0 40.9472)
(0 -0 29.3366)
(0 -0 29.2231)
(0 -0 29.3947)
(0 -0 29.5619)
(0 -0 29.7805)
(0 -0 30.0302)
(0 -0 30.265)
(0 -0 30.4775)
(0 -0 30.6812)
(0 -0 30.8826)
(0 -0 31.0799)
(0 -0 31.2716)
(0 -0 31.4577)
(0 -0 31.6386)
(0 -0 31.8143)
(0 -0 31.9847)
(0 -0 32.1499)
(0 -0 32.3098)
(0 -0 32.465)
(0 -0 32.6159)
(0 -0 32.7634)
(0 -0 32.9084)
(0 -0 33.0518)
(0 -0 33.1943)
(0 -0 33.3366)
(0 -0 33.4789)
(0 -0 33.6214)
(0 -0 33.7641)
(0 -0 33.907)
(0 -0 34.0502)
(0 -0 34.1937)
(0 -0 34.3376)
(0 -0 34.4821)
(0 -0 34.6274)
(0 -0 34.7739)
(0 -0 34.9217)
(0 -0 35.0716)
(0 -0 35.2237)
(0 -0 35.3791)
(0 -0 35.5373)
(0 -0 35.7006)
(0 -0 35.867)
(0 -0 36.0406)
(0 -0 36.2167)
(0 -0 36.4034)
(0 -0 36.59)
(0 -0 36.7935)
(0 -0 36.9905)
(0 -0 37.2169)
(0 -0 37.4234)
(0 -0 27.002)
(0 -0 26.9088)
(0 -0 27.0628)
(0 -0 27.2102)
(0 -0 27.3974)
(0 -0 27.6144)
(0 -0 27.8222)
(0 -0 28.0106)
(0 -0 28.1902)
(0 -0 28.3677)
(0 -0 28.5423)
(0 -0 28.7122)
(0 -0 28.8771)
(0 -0 29.0374)
(0 -0 29.1929)
(0 -0 29.3435)
(0 -0 29.4892)
(0 -0 29.63)
(0 -0 29.7663)
(0 -0 29.8987)
(0 -0 30.028)
(0 -0 30.1552)
(0 -0 30.2811)
(0 -0 30.4066)
(0 -0 30.5321)
(0 -0 30.6579)
(0 -0 30.7842)
(0 -0 30.911)
(0 -0 31.0381)
(0 -0 31.1655)
(0 -0 31.2934)
(0 -0 31.4217)
(0 -0 31.5506)
(0 -0 31.6803)
(0 -0 31.8111)
(0 -0 31.9431)
(0 -0 32.0771)
(0 -0 32.2131)
(0 -0 32.3522)
(0 -0 32.4939)
(0 -0 32.6402)
(0 -0 32.7894)
(0 -0 32.9453)
(0 -0 33.1031)
(0 -0 33.2711)
(0 -0 33.4382)
(0 -0 33.6217)
(0 -0 33.7975)
(0 -0 34.0025)
(0 -0 34.1856)
(0 -0 24.8616)
(0 -0 24.7849)
(0 -0 24.9213)
(0 -0 25.0519)
(0 -0 25.2124)
(0 -0 25.4003)
(0 -0 25.5837)
(0 -0 25.7504)
(0 -0 25.9084)
(0 -0 26.0646)
(0 -0 26.2186)
(0 -0 26.3689)
(0 -0 26.5147)
(0 -0 26.6563)
(0 -0 26.7935)
(0 -0 26.9261)
(0 -0 27.0541)
(0 -0 27.1775)
(0 -0 27.2967)
(0 -0 27.4122)
(0 -0 27.5249)
(0 -0 27.6357)
(0 -0 27.7457)
(0 -0 27.8556)
(0 -0 27.9658)
(0 -0 28.0767)
(0 -0 28.1882)
(0 -0 28.3003)
(0 -0 28.413)
(0 -0 28.5261)
(0 -0 28.6397)
(0 -0 28.7537)
(0 -0 28.8683)
(0 -0 28.9836)
(0 -0 29.1)
(0 -0 29.2176)
(0 -0 29.3369)
(0 -0 29.4581)
(0 -0 29.5821)
(0 -0 29.7086)
(0 -0 29.8393)
(0 -0 29.9726)
(0 -0 30.1122)
(0 -0 30.2532)
(0 -0 30.4038)
(0 -0 30.5528)
(0 -0 30.7177)
(0 -0 30.8738)
(0 -0 31.0588)
(0 -0 31.2201)
(0 -0 22.9025)
(0 -0 22.8391)
(0 -0 22.9585)
(0 -0 23.0746)
(0 -0 23.2126)
(0 -0 23.375)
(0 -0 23.5363)
(0 -0 23.6837)
(0 -0 23.8226)
(0 -0 23.9596)
(0 -0 24.0953)
(0 -0 24.2279)
(0 -0 24.3567)
(0 -0 24.4814)
(0 -0 24.6021)
(0 -0 24.7185)
(0 -0 24.8306)
(0 -0 24.9382)
(0 -0 25.0418)
(0 -0 25.142)
(0 -0 25.2396)
(0 -0 25.3357)
(0 -0 25.4312)
(0 -0 25.5269)
(0 -0 25.6232)
(0 -0 25.7205)
(0 -0 25.8186)
(0 -0 25.9175)
(0 -0 26.017)
(0 -0 26.1171)
(0 -0 26.2177)
(0 -0 26.3187)
(0 -0 26.4203)
(0 -0 26.5226)
(0 -0 26.6258)
(0 -0 26.7301)
(0 -0 26.8361)
(0 -0 26.9437)
(0 -0 27.054)
(0 -0 27.1665)
(0 -0 27.283)
(0 -0 27.4017)
(0 -0 27.5262)
(0 -0 27.6518)
(0 -0 27.7864)
(0 -0 27.9188)
(0 -0 28.0664)
(0 -0 28.2045)
(0 -0 28.3709)
(0 -0 28.512)
(0 -0 21.1117)
(0 -0 21.059)
(0 -0 21.1626)
(0 -0 21.2661)
(0 -0 21.3851)
(0 -0 21.5252)
(0 -0 21.6669)
(0 -0 21.7969)
(0 -0 21.919)
(0 -0 22.0391)
(0 -0 22.1584)
(0 -0 22.2753)
(0 -0 22.3887)
(0 -0 22.4985)
(0 -0 22.6044)
(0 -0 22.7063)
(0 -0 22.804)
(0 -0 22.8974)
(0 -0 22.987)
(0 -0 23.0733)
(0 -0 23.1573)
(0 -0 23.2401)
(0 -0 23.3225)
(0 -0 23.4054)
(0 -0 23.4893)
(0 -0 23.5742)
(0 -0 23.6602)
(0 -0 23.7472)
(0 -0 23.8349)
(0 -0 23.9232)
(0 -0 24.012)
(0 -0 24.1013)
(0 -0 24.1912)
(0 -0 24.2816)
(0 -0 24.3729)
(0 -0 24.4652)
(0 -0 24.559)
(0 -0 24.6543)
(0 -0 24.7521)
(0 -0 24.8519)
(0 -0 24.9554)
(0 -0 25.0608)
(0 -0 25.1716)
(0 -0 25.2832)
(0 -0 25.4031)
(0 -0 25.5204)
(0 -0 25.6521)
(0 -0 25.7737)
(0 -0 25.9227)
(0 -0 26.0452)
(0 -0 19.4764)
(0 -0 19.4322)
(0 -0 19.5215)
(0 -0 19.6138)
(0 -0 19.7169)
(0 -0 19.838)
(0 -0 19.962)
(0 -0 20.0768)
(0 -0 20.184)
(0 -0 20.2893)
(0 -0 20.394)
(0 -0 20.4969)
(0 -0 20.5968)
(0 -0 20.6932)
(0 -0 20.786)
(0 -0 20.8749)
(0 -0 20.9598)
(0 -0 21.0405)
(0 -0 21.1175)
(0 -0 21.1914)
(0 -0 21.2631)
(0 -0 21.3339)
(0 -0 21.4046)
(0 -0 21.476)
(0 -0 21.5486)
(0 -0 21.6225)
(0 -0 21.6977)
(0 -0 21.7739)
(0 -0 21.851)
(0 -0 21.9287)
(0 -0 22.007)
(0 -0 22.0857)
(0 -0 22.165)
(0 -0 22.2448)
(0 -0 22.3253)
(0 -0 22.4068)
(0 -0 22.4896)
(0 -0 22.5738)
(0 -0 22.6603)
(0 -0 22.7486)
(0 -0 22.8403)
(0 -0 22.9337)
(0 -0 23.0321)
(0 -0 23.1309)
(0 -0 23.2375)
(0 -0 23.3411)
(0 -0 23.4583)
(0 -0 23.5647)
(0 -0 23.6979)
(0 -0 23.8035)
(0 -0 17.9839)
(0 -0 17.9466)
(0 -0 18.0231)
(0 -0 18.1055)
(0 -0 18.1955)
(0 -0 18.3002)
(0 -0 18.4087)
(0 -0 18.5099)
(0 -0 18.6042)
(0 -0 18.6964)
(0 -0 18.7883)
(0 -0 18.8789)
(0 -0 18.9668)
(0 -0 19.0514)
(0 -0 19.1326)
(0 -0 19.21)
(0 -0 19.2834)
(0 -0 19.3528)
(0 -0 19.4185)
(0 -0 19.4812)
(0 -0 19.542)
(0 -0 19.602)
(0 -0 19.6622)
(0 -0 19.7233)
(0 -0 19.7859)
(0 -0 19.8499)
(0 -0 19.9154)
(0 -0 19.9821)
(0 -0 20.0497)
(0 -0 20.118)
(0 -0 20.1869)
(0 -0 20.2562)
(0 -0 20.3259)
(0 -0 20.3962)
(0 -0 20.4671)
(0 -0 20.5388)
(0 -0 20.6118)
(0 -0 20.686)
(0 -0 20.7624)
(0 -0 20.8403)
(0 -0 20.9215)
(0 -0 21.0041)
(0 -0 21.0913)
(0 -0 21.1786)
(0 -0 21.2731)
(0 -0 21.3642)
(0 -0 21.4683)
(0 -0 21.5611)
(0 -0 21.6797)
(0 -0 21.7701)
(0 -0 16.6222)
(0 -0 16.5903)
(0 -0 16.6557)
(0 -0 16.7294)
(0 -0 16.8083)
(0 -0 16.8993)
(0 -0 16.9941)
(0 -0 17.0834)
(0 -0 17.1664)
(0 -0 17.2473)
(0 -0 17.328)
(0 -0 17.4077)
(0 -0 17.485)
(0 -0 17.5593)
(0 -0 17.6302)
(0 -0 17.6974)
(0 -0 17.7606)
(0 -0 17.8199)
(0 -0 17.8756)
(0 -0 17.9285)
(0 -0 17.9795)
(0 -0 18.0299)
(0 -0 18.0806)
(0 -0 18.1326)
(0 -0 18.1862)
(0 -0 18.2415)
(0 -0 18.2984)
(0 -0 18.3566)
(0 -0 18.4158)
(0 -0 18.4757)
(0 -0 18.5362)
(0 -0 18.5971)
(0 -0 18.6584)
(0 -0 18.7201)
(0 -0 18.7825)
(0 -0 18.8455)
(0 -0 18.9097)
(0 -0 18.975)
(0 -0 19.0423)
(0 -0 19.111)
(0 -0 19.1827)
(0 -0 19.2556)
(0 -0 19.3328)
(0 -0 19.4098)
(0 -0 19.4934)
(0 -0 19.5734)
(0 -0 19.6655)
(0 -0 19.7461)
(0 -0 19.8515)
(0 -0 19.9284)
(0 -0 15.3797)
(0 -0 15.352)
(0 -0 15.408)
(0 -0 15.4738)
(0 -0 15.5437)
(0 -0 15.6231)
(0 -0 15.7061)
(0 -0 15.7849)
(0 -0 15.8581)
(0 -0 15.9292)
(0 -0 16.0001)
(0 -0 16.0703)
(0 -0 16.1384)
(0 -0 16.2036)
(0 -0 16.2655)
(0 -0 16.3237)
(0 -0 16.3779)
(0 -0 16.4283)
(0 -0 16.4751)
(0 -0 16.5191)
(0 -0 16.5614)
(0 -0 16.6032)