/*--------------------------------*- C++ -*----------------------------------*\
  =========                 |
  \\      /  F ield         | OpenFOAM: The Open Source CFD Toolbox
   \\    /   O peration     | Website:  https://openfoam.org
    \\  /    A nd           | Version:  7
     \\/     M anipulation  |
\*---------------------------------------------------------------------------*/
FoamFile
{
    version     2.0;
    format      ascii;
    class       volVectorField;
    location    "0.27";
    object      wallShearStress;
}
// * * * * * * * * * * * * * * * * * * * * * * * * * * * * * * * * * * * * * //

dimensions      [0 2 -2 0 0 0 0];

internalField   uniform (0 0 0);

boundaryField
{
    velocityInlet
    {
        type            calculated;
        value           uniform (0 0 0);
    }
    pressureOutlet
    {
        type            calculated;
        value           uniform (0 0 0);
    }
    fixedWalls
    {
        type            calculated;
        value           nonuniform List<vector> 
100
(
(-0.013865 -0.00589073 0)
(0.00663788 -0.00106945 0)
(0.00130351 0.00044365 0)
(0.00200976 8.62181e-05 0)
(0.000891957 0.000164689 0)
(0.000224572 0.000133405 0)
(-0.000551436 0.000125221 0)
(-0.00119741 0.000107132 0)
(-0.00172807 7.93772e-05 0)
(-0.00200982 3.73174e-05 0)
(-0.00207877 4.90563e-06 0)
(-0.00225129 4.31716e-05 0)
(-0.00315219 0.000173245 0)
(-0.00495082 0.000297997 0)
(-0.00668635 0.00027201 0)
(-0.00654603 -3.09362e-05 0)
(-0.00292453 -0.000689925 0)
(0.00367647 -0.00105153 0)
(0.00993282 -0.00102773 0)
(0.0134891 -0.000564223 0)
(0.0132354 8.09361e-05 0)
(0.00959866 0.000566172 0)
(0.00445536 0.000684161 0)
(-0.000222154 0.000545551 0)
(-0.00340741 0.000328272 0)
(-0.00507834 0.000151063 0)
(-0.00571143 4.87297e-05 0)
(-0.00577984 8.50291e-08 0)
(-0.0055885 -2.30944e-05 0)
(-0.00532342 -2.59645e-05 0)
(-0.00511091 -1.27414e-05 0)
(-0.00495449 -2.1369e-06 0)
(-0.00469105 -2.04252e-05 0)
(-0.00414096 -6.28129e-05 0)
(-0.00334884 -9.29481e-05 0)
(-0.00257061 -8.72942e-05 0)
(-0.00200481 -6.10965e-05 0)
(-0.0016473 -4.22987e-05 0)
(-0.00138394 -4.01882e-05 0)
(-0.00114975 -4.35252e-05 0)
(-0.00100398 -3.83187e-05 0)
(-0.00111075 -3.65001e-06 0)
(-0.00164542 5.2134e-05 0)
(-0.00262366 0.000106717 0)
(-0.00383789 0.000131972 0)
(-0.00508717 0.000138439 0)
(-0.00638868 0.000162292 0)
(-0.00775075 0.000188219 0)
(-0.00872832 0.000167621 0)
(-0.0084919 1.48535e-05 0)
(-0.00615086 -0.000267529 0)
(-0.00158432 -0.000581209 0)
(0.0037684 -0.000649679 0)
(0.00785124 -0.000494993 0)
(0.00954488 -0.000191987 0)
(0.00869647 0.000112256 0)
(0.00613167 0.000283227 0)
(0.00302852 0.000310211 0)
(0.000264081 0.000259432 0)
(-0.00178584 0.000182108 0)
(-0.00309547 0.000110671 0)
(-0.00383173 6.00493e-05 0)
(-0.00419441 2.94337e-05 0)
(-0.00434641 1.39128e-05 0)
(-0.00439242 7.33411e-06 0)
(-0.00438288 3.4932e-06 0)
(-0.00433139 -4.78664e-07 0)
(-0.00424024 -4.69424e-06 0)
(-0.00412688 -6.16074e-06 0)
(-0.00402948 -2.16219e-06 0)
(-0.00397836 5.57097e-06 0)
(-0.00395541 1.11462e-05 0)
(-0.00388228 7.40757e-06 0)
(-0.00364209 -1.04436e-05 0)
(-0.00311985 -4.18314e-05 0)
(-0.00226618 -7.86955e-05 0)
(-0.00116176 -0.000106575 0)
(-3.89625e-06 -0.000112241 0)
(0.000961908 -9.27928e-05 0)
(0.00153389 -5.32802e-05 0)
(0.00162418 -6.02186e-06 0)
(0.00129874 3.27104e-05 0)
(0.000737766 5.3347e-05 0)
(0.000149473 5.25317e-05 0)
(-0.000293149 3.68872e-05 0)
(-0.000510747 1.51531e-05 0)
(-0.000545967 -9.08838e-07 0)
(-0.000543261 -4.44059e-06 0)
(-0.000651905 6.28224e-06 0)
(-0.000933198 2.05318e-05 0)
(-0.00132645 2.92667e-05 0)
(-0.00173174 2.92591e-05 0)
(-0.00205621 2.31469e-05 0)
(-0.00228658 1.53793e-05 0)
(-0.00241947 9.71816e-06 0)
(-0.0024885 4.75921e-06 0)
(-0.00261343 8.28374e-06 0)
(-0.00259728 7.73645e-06 0)
(-0.00306907 3.06054e-05 0)
(-0.00319247 7.512e-06 0)
)
;
    }
    bottomWall
    {
        type            calculated;
        value           nonuniform List<vector> 
800
(
(-0.0353512 0.00216562 0)
(-0.0160366 0.000524955 0)
(-0.010591 0.000100543 0)
(-0.00845651 3.45775e-05 0)
(-0.0074929 1.96701e-05 0)
(-0.00685772 1.59975e-05 0)
(-0.00634948 1.31964e-05 0)
(-0.00593884 1.07462e-05 0)
(-0.00560485 8.94492e-06 0)
(-0.00532675 7.64485e-06 0)
(-0.00508996 6.65992e-06 0)
(-0.00488505 5.88184e-06 0)
(-0.00470556 5.25164e-06 0)
(-0.00454675 4.73241e-06 0)
(-0.00440503 4.29851e-06 0)
(-0.00427763 3.9314e-06 0)
(-0.00416236 3.61741e-06 0)
(-0.00405747 3.34627e-06 0)
(-0.00396155 3.11015e-06 0)
(-0.00387344 2.903e-06 0)
(-0.00379218 2.72004e-06 0)
(-0.00371697 2.55749e-06 0)
(-0.00364711 2.41228e-06 0)
(-0.00358204 2.28191e-06 0)
(-0.00352126 2.16434e-06 0)
(-0.00346435 2.05786e-06 0)
(-0.00341092 1.96104e-06 0)
(-0.00336066 1.8727e-06 0)
(-0.00331329 1.79182e-06 0)
(-0.00326856 1.71756e-06 0)
(-0.00322623 1.64917e-06 0)
(-0.00318613 1.58603e-06 0)
(-0.00314808 1.52758e-06 0)
(-0.00311191 1.47335e-06 0)
(-0.00307749 1.42294e-06 0)
(-0.00304469 1.37595e-06 0)
(-0.0030134 1.33208e-06 0)
(-0.00298352 1.29105e-06 0)
(-0.00295494 1.2526e-06 0)
(-0.00292759 1.21651e-06 0)
(-0.00290139 1.18258e-06 0)
(-0.00287626 1.15062e-06 0)
(-0.00285215 1.12052e-06 0)
(-0.00282898 1.09204e-06 0)
(-0.00280671 1.06525e-06 0)
(-0.00278529 1.03964e-06 0)
(-0.00276466 1.01585e-06 0)
(-0.00274479 9.92473e-07 0)
(-0.00272562 9.71485e-07 0)
(-0.00270715 9.49089e-07 0)
(-0.0026917 9.30751e-07 0)
(-0.00267894 9.204e-07 0)
(-0.00266633 9.07098e-07 0)
(-0.00265392 8.92905e-07 0)
(-0.00264169 8.79624e-07 0)
(-0.00262964 8.66997e-07 0)
(-0.00261777 8.54675e-07 0)
(-0.00260606 8.42618e-07 0)
(-0.00259452 8.30852e-07 0)
(-0.00258313 8.19372e-07 0)
(-0.00257191 8.08161e-07 0)
(-0.00256084 7.97204e-07 0)
(-0.00254991 7.86494e-07 0)
(-0.00253914 7.76022e-07 0)
(-0.00252851 7.6578e-07 0)
(-0.00251801 7.55761e-07 0)
(-0.00250766 7.45958e-07 0)
(-0.00249744 7.36363e-07 0)
(-0.00248735 7.26971e-07 0)
(-0.00247739 7.17776e-07 0)
(-0.00246755 7.08773e-07 0)
(-0.00245784 6.99955e-07 0)
(-0.00244825 6.91317e-07 0)
(-0.00243877 6.82854e-07 0)
(-0.00242942 6.74562e-07 0)
(-0.00242017 6.66435e-07 0)
(-0.00241104 6.58469e-07 0)
(-0.00240202 6.5066e-07 0)
(-0.0023931 6.43002e-07 0)
(-0.00238429 6.35493e-07 0)
(-0.00237558 6.28128e-07 0)
(-0.00236697 6.20902e-07 0)
(-0.00235847 6.13814e-07 0)
(-0.00235006 6.06857e-07 0)
(-0.00234174 6.0003e-07 0)
(-0.00233352 5.93328e-07 0)
(-0.00232539 5.86749e-07 0)
(-0.00231735 5.80289e-07 0)
(-0.00230939 5.73944e-07 0)
(-0.00230153 5.67713e-07 0)
(-0.00229375 5.61592e-07 0)
(-0.00228606 5.55577e-07 0)
(-0.00227844 5.49667e-07 0)
(-0.00227091 5.43858e-07 0)
(-0.00226346 5.38148e-07 0)
(-0.00225609 5.32534e-07 0)
(-0.00224879 5.27014e-07 0)
(-0.00224157 5.21585e-07 0)
(-0.00223443 5.16244e-07 0)
(-0.00222735 5.10989e-07 0)
(-0.00222035 5.05819e-07 0)
(-0.00221343 5.00729e-07 0)
(-0.00220657 4.9572e-07 0)
(-0.00219978 4.90787e-07 0)
(-0.00219305 4.8593e-07 0)
(-0.0021864 4.81146e-07 0)
(-0.00217981 4.76434e-07 0)
(-0.00217328 4.71792e-07 0)
(-0.00216682 4.67217e-07 0)
(-0.00216042 4.62709e-07 0)
(-0.00215409 4.58267e-07 0)
(-0.00214781 4.53888e-07 0)
(-0.00214159 4.49572e-07 0)
(-0.00213544 4.45317e-07 0)
(-0.00212934 4.41122e-07 0)
(-0.0021233 4.36986e-07 0)
(-0.00211731 4.32908e-07 0)
(-0.00211139 4.28887e-07 0)
(-0.00210551 4.24922e-07 0)
(-0.00209969 4.21012e-07 0)
(-0.00209393 4.17157e-07 0)
(-0.00208822 4.13354e-07 0)
(-0.00208256 4.09604e-07 0)
(-0.00207695 4.05906e-07 0)
(-0.00207139 4.02258e-07 0)
(-0.00206588 3.98659e-07 0)
(-0.00206042 3.9511e-07 0)
(-0.00205501 3.91609e-07 0)
(-0.00204965 3.88155e-07 0)
(-0.00204433 3.84746e-07 0)
(-0.00203907 3.81384e-07 0)
(-0.00203384 3.78066e-07 0)
(-0.00202867 3.74794e-07 0)
(-0.00202353 3.71564e-07 0)
(-0.00201845 3.68378e-07 0)
(-0.0020134 3.65233e-07 0)
(-0.0020084 3.62132e-07 0)
(-0.00200344 3.59069e-07 0)
(-0.00199852 3.56052e-07 0)
(-0.00199365 3.53067e-07 0)
(-0.00198881 3.50133e-07 0)
(-0.00198402 3.4722e-07 0)
(-0.00197926 3.44373e-07 0)
(-0.00197455 3.41522e-07 0)
(-0.00196987 3.38768e-07 0)
(-0.00196523 3.35961e-07 0)
(-0.00196063 3.33317e-07 0)
(-0.00195607 3.30517e-07 0)
(-0.00195154 3.27974e-07 0)
(-0.00194705 3.25096e-07 0)
(-0.00194328 3.22537e-07 0)
(-0.0019402 3.21206e-07 0)
(-0.00193712 3.19597e-07 0)
(-0.00193403 3.17742e-07 0)
(-0.00193093 3.15903e-07 0)
(-0.00192783 3.14117e-07 0)
(-0.00192473 3.12355e-07 0)
(-0.00192162 3.10595e-07 0)
(-0.00191851 3.08838e-07 0)
(-0.0019154 3.07085e-07 0)
(-0.00191228 3.05337e-07 0)
(-0.00190915 3.03593e-07 0)
(-0.00190603 3.01851e-07 0)
(-0.0019029 3.00115e-07 0)
(-0.00189976 2.98381e-07 0)
(-0.00189663 2.96652e-07 0)
(-0.00189348 2.94927e-07 0)
(-0.00189034 2.93205e-07 0)
(-0.00188719 2.91486e-07 0)
(-0.00188404 2.89772e-07 0)
(-0.00188088 2.88062e-07 0)
(-0.00187772 2.86356e-07 0)
(-0.00187456 2.84654e-07 0)
(-0.0018714 2.82957e-07 0)
(-0.00186823 2.81265e-07 0)
(-0.00186506 2.79577e-07 0)
(-0.00186189 2.77894e-07 0)
(-0.00185871 2.76215e-07 0)
(-0.00185553 2.74541e-07 0)
(-0.00185235 2.72871e-07 0)
(-0.00184916 2.71206e-07 0)
(-0.00184597 2.69547e-07 0)
(-0.00184278 2.67893e-07 0)
(-0.00183959 2.66245e-07 0)
(-0.00183639 2.64603e-07 0)
(-0.00183319 2.62965e-07 0)
(-0.00182999 2.61333e-07 0)
(-0.00182679 2.59706e-07 0)
(-0.00182358 2.58085e-07 0)
(-0.00182037 2.56472e-07 0)
(-0.00181716 2.54864e-07 0)
(-0.00181395 2.53264e-07 0)
(-0.00181074 2.51671e-07 0)
(-0.00180752 2.50085e-07 0)
(-0.0018043 2.48505e-07 0)
(-0.00180108 2.46935e-07 0)
(-0.00179786 2.45373e-07 0)
(-0.00179463 2.43818e-07 0)
(-0.0017914 2.4227e-07 0)
(-0.00178817 2.40734e-07 0)
(-0.00178494 2.39207e-07 0)
(-0.00178171 2.37691e-07 0)
(-0.00177847 2.36185e-07 0)
(-0.00177523 2.34688e-07 0)
(-0.001772 2.33202e-07 0)
(-0.00176875 2.31725e-07 0)
(-0.00176551 2.3026e-07 0)
(-0.00176226 2.28806e-07 0)
(-0.00175902 2.27365e-07 0)
(-0.00175577 2.25938e-07 0)
(-0.00175251 2.24523e-07 0)
(-0.00174926 2.2312e-07 0)
(-0.001746 2.21731e-07 0)
(-0.00174274 2.20351e-07 0)
(-0.00173948 2.18983e-07 0)
(-0.00173622 2.17636e-07 0)
(-0.00173295 2.163e-07 0)
(-0.00172968 2.14981e-07 0)
(-0.00172641 2.13673e-07 0)
(-0.00172313 2.12384e-07 0)
(-0.00171986 2.11107e-07 0)
(-0.00171658 2.09849e-07 0)
(-0.00171329 2.08603e-07 0)
(-0.00171001 2.07378e-07 0)
(-0.00170672 2.06153e-07 0)
(-0.00170342 2.04978e-07 0)
(-0.00170012 2.03773e-07 0)
(-0.00169682 2.02667e-07 0)
(-0.00169352 2.01453e-07 0)
(-0.00169021 2.00464e-07 0)
(-0.0016869 1.9917e-07 0)
(-0.00168357 1.98421e-07 0)
(-0.00168026 1.96853e-07 0)
(-0.00167692 1.96659e-07 0)
(-0.0016736 1.94384e-07 0)
(-0.00167023 1.95457e-07 0)
(-0.00166694 1.91403e-07 0)
(-0.0016635 1.9539e-07 0)
(-0.00166026 1.87101e-07 0)
(-0.0016567 1.97715e-07 0)
(-0.0016536 1.79743e-07 0)
(-0.0016498 2.05048e-07 0)
(-0.00164699 1.65815e-07 0)
(-0.00164273 2.22439e-07 0)
(-0.0016405 1.38736e-07 0)
(-0.00163539 2.58313e-07 0)
(-0.00163418 8.78641e-08 0)
(-0.00162776 3.22048e-07 0)
(-0.00162803 7.73049e-09 0)
(-0.00161988 3.53698e-07 0)
(-0.035351 -0.00216566 0)
(-0.0160349 -0.00052503 0)
(-0.0105871 -0.000100633 0)
(-0.00845009 -3.46687e-05 0)
(-0.00748356 -1.97696e-05 0)
(-0.0068451 -1.6107e-05 0)
(-0.00633323 -1.3315e-05 0)
(-0.00591872 -1.08737e-05 0)
(-0.00558061 -9.08129e-06 0)
(-0.00529818 -7.78971e-06 0)
(-0.00505688 -6.81304e-06 0)
(-0.00484727 -6.0434e-06 0)
(-0.0046629 -5.42202e-06 0)
(-0.00449902 -4.91218e-06 0)
(-0.00435203 -4.48845e-06 0)
(-0.00421914 -4.13244e-06 0)
(-0.00409814 -3.83058e-06 0)
(-0.00398727 -3.57272e-06 0)
(-0.00388508 -3.35117e-06 0)
(-0.00379039 -3.15999e-06 0)
(-0.00370222 -2.99458e-06 0)
(-0.00361971 -2.85133e-06 0)
(-0.00354217 -2.72737e-06 0)
(-0.00346896 -2.62043e-06 0)
(-0.00339955 -2.52871e-06 0)
(-0.00333347 -2.45075e-06 0)
(-0.00327028 -2.38539e-06 0)
(-0.00320962 -2.33174e-06 0)
(-0.00315113 -2.28898e-06 0)
(-0.0030945 -2.25667e-06 0)
(-0.00303945 -2.23404e-06 0)
(-0.00298568 -2.22115e-06 0)
(-0.00293297 -2.21689e-06 0)
(-0.00288106 -2.22207e-06 0)
(-0.00282974 -2.23449e-06 0)
(-0.0027788 -2.2562e-06 0)
(-0.00272804 -2.2829e-06 0)
(-0.00267733 -2.3182e-06 0)
(-0.00262638 -2.35533e-06 0)
(-0.00257541 -2.39694e-06 0)
(-0.00252363 -2.43939e-06 0)
(-0.00247242 -2.46767e-06 0)
(-0.00241914 -2.51395e-06 0)
(-0.00236895 -2.47396e-06 0)
(-0.00231302 -2.54909e-06 0)
(-0.00226819 -2.27764e-06 0)
(-0.00220666 -2.54693e-06 0)
(-0.00217791 -1.30207e-06 0)
(-0.00211285 -5.68039e-06 0)
(-0.00196683 0.000143651 0)
(0.000148441 -8.40918e-05 0)
(0.000102047 -0.000319506 0)
(3.17962e-05 -0.00042713 0)
(5.00959e-05 -0.000457438 0)
(9.15824e-05 -0.000518074 0)
(7.53811e-05 -0.000592592 0)
(4.59381e-05 -0.000652221 0)
(4.6655e-05 -0.000713456 0)
(6.93179e-05 -0.000792505 0)
(9.91973e-05 -0.000898143 0)
(0.000126203 -0.00103392 0)
(0.000140341 -0.00119338 0)
(0.000130604 -0.00135931 0)
(9.00347e-05 -0.00149848 0)
(2.98689e-05 -0.00157392 0)
(8.32728e-07 -0.00156064 0)
(2.40067e-05 -0.00147777 0)
(-1.53883e-05 -0.00135469 0)
(-0.000265239 -0.00110546 0)
(-0.000599202 -0.000433873 0)
(-0.000801792 0.000403003 0)
(-0.000845922 0.0012453 0)
(-0.000797135 0.00200541 0)
(-0.000704895 0.00265905 0)
(-0.000593676 0.00319793 0)
(-0.000476032 0.00362157 0)
(-0.000358421 0.00393316 0)
(-0.000245643 0.00413894 0)
(-0.000141196 0.00424738 0)
(-4.59576e-05 0.00426746 0)
(3.92405e-05 0.00420956 0)
(0.000112865 0.0040862 0)
(0.00017708 0.0039057 0)
(0.000230945 0.00367673 0)
(0.000274125 0.00340979 0)
(0.000307078 0.00311441 0)
(0.000330084 0.00279998 0)
(0.000344205 0.00247487 0)
(0.000350799 0.00214618 0)
(0.000351569 0.00181958 0)
(0.000348409 0.00149907 0)
(0.000343162 0.00118731 0)
(0.000337775 0.000886232 0)
(0.000334851 0.000596113 0)
(0.00033554 0.000309814 0)
(0.00033318 1.88422e-05 0)
(0.000323569 -0.000262666 0)
(0.000314143 -0.000529603 0)
(0.000306256 -0.000788732 0)
(0.000298132 -0.00104179 0)
(0.000288413 -0.0012876 0)
(0.000276319 -0.00152436 0)
(0.000261436 -0.00175022 0)
(0.000243558 -0.00196336 0)
(0.000222539 -0.00216207 0)
(0.00019825 -0.00234463 0)
(0.000170762 -0.00250941 0)
(0.000140271 -0.00265513 0)
(0.000106206 -0.00278075 0)
(6.75332e-05 -0.00288431 0)
(2.50797e-05 -0.00296355 0)
(-2.11406e-05 -0.00301858 0)
(-7.56753e-05 -0.00304746 0)
(-0.00013872 -0.0030433 0)
(-0.000206019 -0.00300406 0)
(-0.000274044 -0.00292788 0)
(-0.000337912 -0.00281433 0)
(-0.000392414 -0.0026655 0)
(-0.000432728 -0.00248588 0)
(-0.00045565 -0.00228195 0)
(-0.000460238 -0.00206244 0)
(-0.000449583 -0.00183597 0)
(-0.000427968 -0.00160937 0)
(-0.000400996 -0.00139008 0)
(-0.000376455 -0.00117691 0)
(-0.000348487 -0.000973784 0)
(-0.00033052 -0.000798391 0)
(-0.000359152 -0.000619086 0)
(-0.000382043 -0.000383966 0)
(-0.000301854 -0.00012861 0)
(-0.000128593 6.93723e-05 0)
(6.84529e-05 0.000188056 0)
(0.000235057 0.000236804 0)
(0.000340608 0.000234571 0)
(0.000391901 0.000209179 0)
(0.000390721 0.000172102 0)
(0.000344606 0.000136144 0)
(0.000262375 0.000108316 0)
(0.000154321 9.69323e-05 0)
(3.87718e-05 0.000111498 0)
(-5.9102e-05 0.000154485 0)
(-0.000120667 0.000208698 0)
(-0.000151587 0.000248569 0)
(-0.000164388 0.000257383 0)
(-0.00017781 0.000269082 0)
(-0.000181193 0.000290933 0)
(-0.000168986 0.000318861 0)
(-0.000142986 0.000346754 0)
(-0.00010561 0.000370631 0)
(-5.71892e-05 0.000384702 0)
(-2.76309e-06 0.000379657 0)
(4.33879e-05 0.000352393 0)
(6.97561e-05 0.000315177 0)
(8.11881e-05 0.000282249 0)
(8.74538e-05 0.000255457 0)
(9.41366e-05 0.000229674 0)
(0.000101267 0.000199473 0)
(0.000105493 0.000163211 0)
(0.000104194 0.000124063 0)
(9.83205e-05 8.61256e-05 0)
(8.98827e-05 5.09158e-05 0)
(7.93972e-05 1.86278e-05 0)
(6.64183e-05 -1.01042e-05 0)
(5.05074e-05 -3.40396e-05 0)
(3.17178e-05 -5.17318e-05 0)
(1.05324e-05 -6.19363e-05 0)
(-1.23e-05 -6.37827e-05 0)
(-3.58965e-05 -5.66793e-05 0)
(-5.91599e-05 -4.03322e-05 0)
(-8.06691e-05 -1.48436e-05 0)
(-9.88432e-05 1.89089e-05 0)
(-0.000112425 5.91837e-05 0)
(-0.000120884 0.000103798 0)
(-0.000124391 0.000150339 0)
(-0.000123969 0.000196701 0)
(-0.000120952 0.000241523 0)
(-0.000116616 0.000284121 0)
(-0.000111936 0.000324337 0)
(-0.00010754 0.000362317 0)
(-0.000103763 0.000398395 0)
(-0.000100701 0.000433033 0)
(-9.82333e-05 0.000466709 0)
(-9.60921e-05 0.000499762 0)
(-9.39925e-05 0.00053228 0)
(-9.17682e-05 0.000564124 0)
(-8.94264e-05 0.000595054 0)
(-8.70973e-05 0.000624863 0)
(-8.49322e-05 0.000653442 0)
(-8.30149e-05 0.00068077 0)
(-8.13228e-05 0.000706872 0)
(-7.97314e-05 0.000731774 0)
(-7.80476e-05 0.000755465 0)
(-7.60511e-05 0.000777877 0)
(-7.35305e-05 0.000798894 0)
(-7.02966e-05 0.000818361 0)
(-6.61942e-05 0.0008361 0)
(-6.1123e-05 0.000851913 0)
(-5.50467e-05 0.000865601 0)
(-4.79832e-05 0.000876975 0)
(-4.00077e-05 0.000885867 0)
(-3.12422e-05 0.000892156 0)
(-2.18082e-05 0.000895793 0)
(-1.18715e-05 0.000896739 0)
(-1.63915e-06 0.000895066 0)
(8.86694e-06 0.000890911 0)
(1.96343e-05 0.000884277 0)
(3.05674e-05 0.000875215 0)
(4.16104e-05 0.000863773 0)
(5.27043e-05 0.000850009 0)
(6.37941e-05 0.000833986 0)
(7.48238e-05 0.00081577 0)
(8.5735e-05 0.000795433 0)
(9.64646e-05 0.00077305 0)
(0.000106944 0.000748705 0)
(0.000117098 0.000722491 0)
(0.000126845 0.000694509 0)
(0.0001361 0.000664878 0)
(0.000144775 0.000633725 0)
(0.000152776 0.000601196 0)
(0.000160013 0.000567451 0)
(0.000166396 0.000532665 0)
(0.000171838 0.000497033 0)
(0.000176264 0.000460765 0)
(0.000179609 0.000424089 0)
(0.000181829 0.000387249 0)
(0.000182902 0.000350502 0)
(0.000182835 0.000314109 0)
(0.000181666 0.000278338 0)
(0.000179468 0.000243452 0)
(0.000176352 0.000209703 0)
(0.000172467 0.000177326 0)
(0.000167994 0.000146527 0)
(0.00016315 0.000117474 0)
(0.000158173 9.02868e-05 0)
(0.000153315 6.50214e-05 0)
(0.000148821 4.16588e-05 0)
(0.000144907 2.0085e-05 0)
(0.000141727 7.02561e-08 0)
(0.000139324 -1.87659e-05 0)
(0.000137556 -3.70045e-05 0)
(0.000135986 -5.54947e-05 0)
(0.000133717 -7.54738e-05 0)
(0.000129145 -9.87783e-05 0)
(0.000119578 -0.000128212 0)
(0.000100651 -0.000168181 0)
(6.53261e-05 -0.000225666 0)
(1.88277e-06 -0.000311609 0)
(-0.000109421 -0.000441419 0)
(-0.000293942 -0.000629937 0)
(-0.000545909 -0.000873205 0)
(3.78013e-06 -0.000167792 0)
(0.000232848 -0.000147459 0)
(0.000295956 -1.35918e-05 0)
(0.00020336 7.78089e-05 0)
(0.000106715 6.61941e-05 0)
(4.48387e-05 3.294e-05 0)
(1.71647e-05 -7.00523e-06 0)
(2.02031e-05 -4.42486e-05 0)
(4.98413e-05 -7.91842e-05 0)
(0.000106581 -0.000112826 0)
(0.000192028 -0.000143697 0)
(0.000308894 -0.000164149 0)
(0.000453336 -0.000157893 0)
(0.00060252 -0.000107003 0)
(0.000712583 -1.56689e-05 0)
(0.000747121 7.70877e-05 0)
(0.000712822 0.000119351 0)
(0.000668822 7.1089e-05 0)
(0.000694968 -6.85005e-05 0)
(0.000815021 -0.000198956 0)
(0.000964377 -0.000151739 0)
(0.000942814 0.000104866 0)
(0.000660555 0.000354115 0)
(0.000283324 0.000436785 0)
(-6.41749e-05 0.000420862 0)
(-0.000365555 0.000376471 0)
(-0.00061502 0.000320449 0)
(-0.000825156 0.000259465 0)
(-0.00100017 0.000189222 0)
(-0.00112806 0.000105529 0)
(-0.00119429 6.99788e-06 0)
(-0.00118507 -0.000102914 0)
(-0.00109039 -0.000214648 0)
(-0.000912209 -0.00031098 0)
(-0.000664504 -0.000372607 0)
(-0.000379349 -0.000386602 0)
(-9.02721e-05 -0.000355433 0)
(0.000165025 -0.000305091 0)
(0.000372535 -0.000218666 0)
(0.000503298 9.8929e-07 0)
(0.000491537 0.000319799 0)
(0.000402216 0.000443625 0)
(0.000562577 0.000145311 0)
(0.000787344 -0.000663411 0)
(0.00149099 -0.000881539 0)
(0.00201638 -0.000420253 0)
(0.00200566 -0.000208669 0)
(0.00215836 -0.000324671 0)
(0.00239125 -0.000246368 0)
(0.00248261 -0.000170314 0)
(0.00257872 -0.00017715 0)
(0.00266987 -0.000120157 0)
(0.00270347 -8.61933e-05 0)
(0.00273797 -8.25663e-05 0)
(0.00275927 -4.23225e-05 0)
(0.00274108 -8.79264e-06 0)
(0.00271222 5.25466e-06 0)
(0.00267079 3.21522e-05 0)
(0.00260205 6.4194e-05 0)
(0.00251095 9.24781e-05 0)
(0.00239848 0.000122607 0)
(0.00226178 0.000154619 0)
(0.00210059 0.000186579 0)
(0.00191542 0.000217972 0)
(0.00170691 0.000247761 0)
(0.00147707 0.000274337 0)
(0.00122949 0.000296096 0)
(0.000969379 0.000311845 0)
(0.000703062 0.000321565 0)
(0.000435508 0.000327235 0)
(0.000163877 0.000330711 0)
(-0.000114482 0.000325958 0)
(-0.000376718 0.000311104 0)
(-0.00062081 0.000301212 0)
(-0.000864586 0.000300521 0)
(-0.00111465 0.000306343 0)
(-0.00137344 0.000316203 0)
(-0.00164264 0.000326688 0)
(-0.00192112 0.000333594 0)
(-0.00220538 0.00033236 0)
(-0.00248746 0.000318694 0)
(-0.00275639 0.000287971 0)
(-0.00299563 0.000238791 0)
(-0.00319222 0.00016932 0)
(-0.0033281 8.10231e-05 0)
(-0.00339794 -2.76635e-05 0)
(-0.00338112 -0.000157654 0)
(-0.00326636 -0.000305455 0)
(-0.00304166 -0.000467472 0)
(-0.00270292 -0.0006411 0)
(-0.00223901 -0.000813225 0)
(-0.00164756 -0.000976016 0)
(-0.000810747 -0.00101168 0)
(4.03435e-05 -0.000572982 0)
(0.000365406 1.84973e-05 0)
(0.00046083 7.94135e-05 0)
(0.000541365 1.27379e-05 0)
(0.000592932 8.9825e-05 0)
(0.00045425 0.00028459 0)
(4.21101e-05 0.000331336 0)
(0.000360079 0.000137329 0)
(0.000303063 0.000757722 0)
(-4.08366e-05 0.00091527 0)
(-0.000425206 0.000499334 0)
(-0.000500484 -0.000221838 0)
(-0.000462044 -0.000901162 0)
(-0.000346382 -0.00146846 0)
(-0.000193834 -0.00186799 0)
(-2.49988e-05 -0.00207997 0)
(0.000150815 -0.00209922 0)
(0.000330719 -0.00191871 0)
(0.000477533 -0.00154852 0)
(0.000574334 -0.00100493 0)
(0.000404554 -0.000315178 0)
(-9.86564e-05 6.41577e-05 0)
(-0.000283763 4.88772e-05 0)
(-0.000217252 -8.07983e-05 0)
(-9.859e-05 -0.000249837 0)
(0.000176535 -0.000138826 0)
(0.000363467 0.000219428 0)
(0.000314316 0.000602974 0)
(0.000159742 0.000780993 0)
(7.68411e-06 0.000813303 0)
(-0.000185885 0.000691181 0)
(-0.000358146 0.000344204 0)
(-0.000364115 -0.000119657 0)
(-0.000257414 -0.000489446 0)
(-9.69522e-05 -0.000699012 0)
(5.40352e-05 -0.000731131 0)
(0.000150388 -0.000625466 0)
(0.000179961 -0.000453224 0)
(0.000163938 -0.000279943 0)
(0.000131382 -0.000138451 0)
(9.72681e-05 -2.74017e-05 0)
(6.57652e-05 6.10097e-05 0)
(3.08092e-05 0.000115791 0)
(-1.1005e-05 0.000122151 0)
(-6.33067e-05 9.0152e-05 0)
(-0.00012432 4.48843e-05 0)
(-0.000187361 -1.8632e-05 0)
(-0.00020511 -0.000127629 0)
(-0.000124641 -0.000257911 0)
(3.85833e-05 -0.000380278 0)
(0.000246489 -0.000497891 0)
(0.000480787 -0.000511542 0)
(0.000573049 -0.000455664 0)
(0.000304872 -0.000360244 0)
(-0.000414983 -0.000286631 0)
(-0.000700738 -0.000347827 0)
(-0.000879576 -0.000547203 0)
(-0.000878412 -0.000766707 0)
(-0.000777456 -0.00105403 0)
(-0.000274284 -0.000944469 0)
(0.000269674 -0.000553519 0)
(0.000652191 -7.30677e-05 0)
(0.000704723 0.000463246 0)
(0.000500969 0.000849521 0)
(0.000304209 0.0010591 0)
(0.000256494 0.00121817 0)
(0.000278595 0.00141674 0)
(0.000310757 0.0016301 0)
(0.000377358 0.00184962 0)
(0.000441789 0.00209745 0)
(0.000469429 0.00235437 0)
(0.000456639 0.00259767 0)
(0.000407769 0.00281107 0)
(0.000348353 0.00298391 0)
(0.00030146 0.00312562 0)
(0.000268612 0.00325045 0)
(0.000242882 0.00336398 0)
(0.000219737 0.00346649 0)
(0.000198943 0.00355777 0)
(0.000181752 0.00363928 0)
(0.000167729 0.00371309 0)
(0.000155586 0.00378018 0)
(0.000144582 0.00384087 0)
(0.000134224 0.00389548 0)
(0.000124069 0.00394424 0)
(0.000113821 0.00398729 0)
(0.00010336 0.00402477 0)
(9.2714e-05 0.00405687 0)
(8.19699e-05 0.00408386 0)
(7.12655e-05 0.00410606 0)
(6.08024e-05 0.00412385 0)
(5.07818e-05 0.00413769 0)
(4.13238e-05 0.0041481 0)
(3.24807e-05 0.00415557 0)
(2.42516e-05 0.00416061 0)
(1.65239e-05 0.00416372 0)
(9.11666e-06 0.0041653 0)
(1.81876e-06 0.00416562 0)
(-5.64236e-06 0.00416491 0)
(-1.35409e-05 0.00416333 0)
(-2.20844e-05 0.00416095 0)
(-3.13864e-05 0.00415787 0)
(-4.14071e-05 0.00415418 0)
(-5.19554e-05 0.00415016 0)
(-6.27102e-05 0.00414625 0)
(-7.32067e-05 0.00414307 0)
(-8.26632e-05 0.00414126 0)
(-8.96947e-05 0.00414165 0)
(-9.24463e-05 0.00414545 0)
(-8.84619e-05 0.00415426 0)
(-7.4775e-05 0.00416976 0)
(-4.76852e-05 0.00419396 0)
(-3.16417e-06 0.00422946 0)
(6.23257e-05 0.0042802 0)
(0.000150045 0.00435204 0)
(0.000256348 0.00445247 0)
(0.000370598 0.00458852 0)
(0.000476736 0.0047626 0)
(0.000560845 0.00496732 0)
(0.000621809 0.00518563 0)
(0.000675821 0.00540254 0)
(0.000746224 0.00561895 0)
(0.000843442 0.00585292 0)
(0.000952129 0.00612408 0)
(0.00103794 0.00643564 0)
(0.0010684 0.00676768 0)
(0.00103169 0.0070863 0)
(0.000941024 0.00736139 0)
(0.00082326 0.00757986 0)
(0.000702147 0.00774837 0)
(0.000588973 0.0078809 0)
(0.000485424 0.0079867 0)
(0.000390602 0.00806924 0)
(0.000304022 0.00813049 0)
(0.000225118 0.00817282 0)
(0.000152677 0.0081983 0)
(8.51299e-05 0.00820796 0)
(2.21934e-05 0.00820204 0)
(-3.59938e-05 0.00818246 0)
(-9.18884e-05 0.00815068 0)
(-0.000146117 0.00810546 0)
(-0.000198558 0.00804789 0)
(-0.000249999 0.00797766 0)
(-0.0003001 0.00789509 0)
(-0.000349117 0.00780074 0)
(-0.000396999 0.00769472 0)
(-0.000443512 0.00757764 0)
(-0.000488655 0.00745008 0)
(-0.000532262 0.00731253 0)
(-0.000574139 0.00716565 0)
(-0.000614185 0.00701015 0)
(-0.000652286 0.0068467 0)
(-0.000688325 0.00667602 0)
(-0.000722235 0.00649885 0)
(-0.000753974 0.00631591 0)
(-0.000783519 0.00612791 0)
(-0.000810871 0.00593554 0)
(-0.00083606 0.00573949 0)
(-0.000859136 0.00554039 0)
(-0.000880166 0.00533886 0)
(-0.000899234 0.00513547 0)
(-0.000916439 0.00493075 0)
(-0.000931891 0.0047252 0)
(-0.000945712 0.00451928 0)
(-0.00095803 0.0043134 0)
(-0.000968984 0.00410794 0)
(-0.000978719 0.00390323 0)
(-0.000987386 0.00369957 0)
(-0.000995144 0.00349722 0)
(-0.00100216 0.00329642 0)
(-0.00100861 0.00309735 0)
(-0.00101468 0.00290018 0)
(-0.00102058 0.00270503 0)
(-0.00102651 0.002512 0)
(-0.00103273 0.00232113 0)
(-0.0010395 0.00213243 0)
(-0.00104709 0.00194585 0)
(-0.00105582 0.00176126 0)
(-0.00106599 0.00157844 0)
(-0.00107793 0.00139707 0)
(-0.00109191 0.0012167 0)
(-0.00110816 0.00103684 0)
(-0.00112686 0.000856947 0)
(-0.00114811 0.000676578 0)
(-0.00117201 0.000495449 0)
(-0.00119868 0.000313503 0)
(-0.00122849 0.000130929 0)
(-0.00126195 -5.20896e-05 0)
(-0.00129987 -0.000235346 0)
(-0.00134353 -0.000418853 0)
(-0.00139384 -0.000602906 0)
(-0.00145174 -0.000787819 0)
(-0.00151895 -0.000974245 0)
(-0.00159712 -0.00116314 0)
(-0.00168766 -0.00135559 0)
(-0.00179196 -0.00155269 0)
(-0.00191159 -0.0017555 0)
(-0.00204821 -0.00196555 0)
(-0.00220356 -0.00218241 0)
(-0.0023802 -0.00241287 0)
(-0.00257788 -0.00264261 0)
(-0.00280619 -0.0029127 0)
(-0.00304687 -0.00313224 0)
(-0.00334821 -0.00350386 0)
(-0.00359426 -0.00360593 0)
(-0.00399059 -0.00428108 0)
(-0.00394884 -0.00381364 0)
)
;
    }
    frontAndBack
    {
        type            empty;
    }
}


// ************************************************************************* //
