/*--------------------------------*- C++ -*----------------------------------*\
  =========                 |
  \\      /  F ield         | OpenFOAM: The Open Source CFD Toolbox
   \\    /   O peration     | Website:  https://openfoam.org
    \\  /    A nd           | Version:  7
     \\/     M anipulation  |
\*---------------------------------------------------------------------------*/
FoamFile
{
    version     2.0;
    format      ascii;
    class       volScalarField;
    location    "0.5";
    object      k_0;
}
// * * * * * * * * * * * * * * * * * * * * * * * * * * * * * * * * * * * * * //

dimensions      [0 2 -2 0 0 0 0];

internalField   nonuniform List<scalar> 
70000
(
1.08549e-05
4.21882e-06
2.82451e-06
2.31696e-06
1.99775e-06
1.75737e-06
1.5655e-06
1.40856e-06
1.27789e-06
1.16711e-06
1.07232e-06
9.90211e-07
9.18827e-07
8.5603e-07
8.00812e-07
7.51606e-07
7.07918e-07
6.68528e-07
6.3328e-07
6.01185e-07
5.72297e-07
5.45766e-07
5.21766e-07
4.99552e-07
4.79364e-07
4.60552e-07
4.43382e-07
4.27291e-07
4.12537e-07
3.98663e-07
3.85865e-07
3.73846e-07
3.62628e-07
3.52213e-07
3.42243e-07
3.3328e-07
3.24255e-07
3.16674e-07
3.08377e-07
3.02609e-07
2.94618e-07
2.91009e-07
2.82747e-07
2.81211e-07
2.73118e-07
2.75606e-07
2.66577e-07
2.83283e-07
2.8152e-07
3.18772e-07
1.72795e-05
1.13674e-05
8.52094e-06
7.01083e-06
6.03792e-06
5.31153e-06
4.7324e-06
4.25844e-06
3.86377e-06
3.5292e-06
3.24295e-06
2.99496e-06
2.77937e-06
2.58968e-06
2.42287e-06
2.2742e-06
2.14219e-06
2.02314e-06
1.9166e-06
1.81958e-06
1.73225e-06
1.65204e-06
1.57947e-06
1.51229e-06
1.45125e-06
1.39435e-06
1.34243e-06
1.29375e-06
1.24913e-06
1.20715e-06
1.16844e-06
1.13207e-06
1.09812e-06
1.06662e-06
1.03643e-06
1.00934e-06
9.81991e-07
9.59087e-07
9.33863e-07
9.16036e-07
8.91663e-07
8.79854e-07
8.55188e-07
8.48275e-07
8.24972e-07
8.2658e-07
8.04699e-07
8.33239e-07
8.5511e-07
8.96438e-07
1.93701e-05
1.61297e-05
1.32915e-05
1.12901e-05
9.82949e-06
8.69682e-06
7.77967e-06
7.0216e-06
6.38573e-06
5.84394e-06
5.37875e-06
4.97452e-06
4.62222e-06
4.31155e-06
4.03784e-06
3.79341e-06
3.57601e-06
3.37965e-06
3.2037e-06
3.04328e-06
2.89873e-06
2.76582e-06
2.6455e-06
2.534e-06
2.43263e-06
2.33804e-06
2.25172e-06
2.17066e-06
2.0964e-06
2.02643e-06
1.96193e-06
1.90126e-06
1.84462e-06
1.79205e-06
1.74161e-06
1.69635e-06
1.65066e-06
1.61228e-06
1.57001e-06
1.53934e-06
1.49876e-06
1.47707e-06
1.43664e-06
1.42225e-06
1.38419e-06
1.3799e-06
1.34749e-06
1.36862e-06
1.44027e-06
1.45306e-06
1.9861e-05
1.82599e-05
1.6086e-05
1.42004e-05
1.2641e-05
1.13492e-05
1.02621e-05
9.33939e-06
8.54886e-06
7.86497e-06
7.27141e-06
6.75096e-06
6.29404e-06
5.88846e-06
5.52916e-06
5.2065e-06
4.91825e-06
4.65673e-06
4.42164e-06
4.20653e-06
4.01224e-06
3.83304e-06
3.67052e-06
3.51944e-06
3.38198e-06
3.25326e-06
3.13579e-06
3.02508e-06
2.92372e-06
2.82786e-06
2.73957e-06
2.65625e-06
2.57853e-06
2.50615e-06
2.43681e-06
2.37428e-06
2.31148e-06
2.25808e-06
2.2002e-06
2.1559e-06
2.10122e-06
2.06708e-06
2.01388e-06
1.99022e-06
1.93941e-06
1.92607e-06
1.88312e-06
1.89077e-06
1.98114e-06
1.97829e-06
1.99707e-05
1.78456e-05
1.6075e-05
1.47662e-05
1.36028e-05
1.25374e-05
1.157e-05
1.07018e-05
9.92196e-06
9.2256e-06
8.6069e-06
8.05321e-06
7.55909e-06
7.11402e-06
6.71482e-06
6.35195e-06
6.02472e-06
5.72504e-06
5.45386e-06
5.2039e-06
4.97697e-06
4.76628e-06
4.5745e-06
4.39506e-06
4.23147e-06
4.07727e-06
3.93643e-06
3.80281e-06
3.68057e-06
3.56413e-06
3.45712e-06
3.35536e-06
3.26074e-06
3.17183e-06
3.0872e-06
3.00977e-06
2.93321e-06
2.8662e-06
2.79619e-06
2.73887e-06
2.67412e-06
2.62634e-06
2.56547e-06
2.52863e-06
2.47038e-06
2.44588e-06
2.39556e-06
2.38116e-06
2.45961e-06
2.45175e-06
2.00095e-05
1.47038e-05
1.37474e-05
1.321e-05
1.25908e-05
1.19262e-05
1.12776e-05
1.06566e-05
1.00807e-05
9.54583e-06
9.04675e-06
8.57941e-06
8.14764e-06
7.7465e-06
7.37701e-06
7.03278e-06
6.71673e-06
6.42215e-06
6.15238e-06
5.9001e-06
5.66887e-06
5.4514e-06
5.25208e-06
5.06335e-06
4.89061e-06
4.72578e-06
4.57499e-06
4.43026e-06
4.298e-06
4.17049e-06
4.05368e-06
3.94109e-06
3.83707e-06
3.73762e-06
3.64423e-06
3.55642e-06
3.47202e-06
3.3945e-06
3.31803e-06
3.24948e-06
3.18031e-06
3.11972e-06
3.05725e-06
3.00456e-06
2.9484e-06
2.90382e-06
2.86106e-06
2.81631e-06
2.87176e-06
2.86217e-06
2.01331e-05
1.5469e-05
9.63461e-06
9.39678e-06
9.49121e-06
9.49034e-06
9.43178e-06
9.29312e-06
9.05392e-06
8.77962e-06
8.48614e-06
8.18812e-06
7.89804e-06
7.61353e-06
7.3386e-06
7.0763e-06
6.83109e-06
6.59497e-06
6.37379e-06
6.16068e-06
5.96173e-06
5.76987e-06
5.59173e-06
5.41943e-06
5.26045e-06
5.10535e-06
4.96318e-06
4.82408e-06
4.69712e-06
4.57222e-06
4.45838e-06
4.34609e-06
4.24353e-06
4.14249e-06
4.04973e-06
3.95865e-06
3.87473e-06
3.79218e-06
3.71674e-06
3.6411e-06
3.57417e-06
3.50411e-06
3.44576e-06
3.38036e-06
3.33134e-06
3.26854e-06
3.23504e-06
3.16773e-06
3.19863e-06
3.18648e-06
2.01712e-05
1.86769e-05
8.6967e-06
5.53999e-06
5.62955e-06
5.93245e-06
6.29058e-06
6.57501e-06
6.75532e-06
6.8635e-06
6.88376e-06
6.86437e-06
6.81312e-06
6.72357e-06
6.61453e-06
6.49148e-06
6.35542e-06
6.21191e-06
6.07129e-06
5.92717e-06
5.78859e-06
5.64895e-06
5.51685e-06
5.38464e-06
5.26057e-06
5.13755e-06
5.02489e-06
4.91087e-06
4.80684e-06
4.70083e-06
4.60484e-06
4.50645e-06
4.4181e-06
4.32684e-06
4.24577e-06
4.16093e-06
4.08708e-06
4.00761e-06
3.94123e-06
3.86579e-06
3.80734e-06
3.73508e-06
3.68476e-06
3.61509e-06
3.57316e-06
3.50531e-06
3.47253e-06
3.3982e-06
3.40747e-06
3.38992e-06
2.01671e-05
1.97241e-05
1.61703e-05
4.86572e-06
3.04247e-06
3.10498e-06
3.37301e-06
3.80207e-06
4.16803e-06
4.4851e-06
4.73295e-06
4.92177e-06
5.06322e-06
5.16244e-06
5.2218e-06
5.25702e-06
5.26087e-06
5.25195e-06
5.23057e-06
5.18958e-06
5.14346e-06
5.08562e-06
5.02701e-06
4.95959e-06
4.89418e-06
4.82098e-06
4.75151e-06
4.67563e-06
4.60603e-06
4.53084e-06
4.4632e-06
4.38984e-06
4.3253e-06
4.2541e-06
4.19341e-06
4.12442e-06
4.06825e-06
4.00102e-06
3.9502e-06
3.88471e-06
3.83974e-06
3.77542e-06
3.7358e-06
3.67263e-06
3.638e-06
3.57631e-06
3.54601e-06
3.47577e-06
3.47081e-06
3.44802e-06
2.01476e-05
1.99343e-05
1.90666e-05
1.45037e-05
5.25175e-06
2.15593e-06
1.91455e-06
1.99317e-06
2.20586e-06
2.5036e-06
2.7796e-06
3.03166e-06
3.25688e-06
3.45254e-06
3.61665e-06
3.75383e-06
3.86582e-06
3.95279e-06
4.02502e-06
4.07539e-06
4.11496e-06
4.13684e-06
4.15287e-06
4.15364e-06
4.15044e-06
4.14058e-06
4.1272e-06
4.10421e-06
4.08249e-06
4.0524e-06
4.02497e-06
3.98995e-06
3.95923e-06
3.92016e-06
3.88845e-06
3.84631e-06
3.81473e-06
3.77021e-06
3.73951e-06
3.69272e-06
3.66305e-06
3.61477e-06
3.58674e-06
3.53762e-06
3.51116e-06
3.46154e-06
3.43618e-06
3.37878e-06
3.36743e-06
3.34141e-06
2.01215e-05
1.99661e-05
1.96429e-05
1.85482e-05
1.52192e-05
8.37435e-06
3.11509e-06
1.63459e-06
1.44275e-06
1.44925e-06
1.52562e-06
1.68554e-06
1.86776e-06
2.0436e-06
2.2139e-06
2.3717e-06
2.51933e-06
2.64868e-06
2.76757e-06
2.86923e-06
2.96135e-06
3.03764e-06
3.1061e-06
3.16109e-06
3.20918e-06
3.2465e-06
3.27985e-06
3.30308e-06
3.32344e-06
3.33582e-06
3.34555e-06
3.35002e-06
3.35036e-06
3.34824e-06
3.3442e-06
3.33467e-06
3.32744e-06
3.31204e-06
3.30231e-06
3.28234e-06
3.27058e-06
3.24692e-06
3.23319e-06
3.2059e-06
3.19046e-06
3.15963e-06
3.14203e-06
3.10217e-06
3.08982e-06
3.06546e-06
2.00981e-05
1.99327e-05
1.97577e-05
1.93536e-05
1.85089e-05
1.65432e-05
1.23438e-05
6.87942e-06
2.99975e-06
1.4963e-06
1.24387e-06
1.14773e-06
1.15159e-06
1.19355e-06
1.28563e-06
1.39126e-06
1.50416e-06
1.61237e-06
1.72274e-06
1.826e-06
1.92623e-06
2.01739e-06
2.10408e-06
2.18153e-06
2.25455e-06
2.31845e-06
2.37858e-06
2.43041e-06
2.47876e-06
2.51982e-06
2.55786e-06
2.58946e-06
2.61887e-06
2.64157e-06
2.66423e-06
2.67928e-06
2.69587e-06
2.70457e-06
2.71551e-06
2.7191e-06
2.7244e-06
2.72415e-06
2.72318e-06
2.71931e-06
2.71477e-06
2.70451e-06
2.69598e-06
2.67544e-06
2.66597e-06
2.64721e-06
2.00781e-05
1.98876e-05
1.97572e-05
1.9462e-05
1.91476e-05
1.86439e-05
1.75617e-05
1.54372e-05
1.17618e-05
7.47021e-06
4.0019e-06
1.92426e-06
1.21109e-06
1.05786e-06
9.82764e-07
9.42289e-07
9.5319e-07
9.86282e-07
1.04861e-06
1.1113e-06
1.18041e-06
1.24897e-06
1.31942e-06
1.3879e-06
1.45632e-06
1.52018e-06
1.58301e-06
1.64065e-06
1.69695e-06
1.74782e-06
1.79752e-06
1.84148e-06
1.88472e-06
1.9218e-06
1.95886e-06
1.98955e-06
2.02067e-06
2.04556e-06
2.07094e-06
2.09043e-06
2.11035e-06
2.12464e-06
2.13909e-06
2.14809e-06
2.15671e-06
2.16094e-06
2.16116e-06
2.15782e-06
2.15297e-06
2.1415e-06
2.00613e-05
1.98539e-05
1.97347e-05
1.94723e-05
1.92569e-05
1.9049e-05
1.87387e-05
1.81951e-05
1.71056e-05
1.52465e-05
1.259e-05
9.26441e-06
6.00224e-06
3.50148e-06
1.89525e-06
1.17282e-06
9.6599e-07
8.91514e-07
8.37313e-07
7.96152e-07
7.97583e-07
8.10516e-07
8.39649e-07
8.77396e-07
9.17155e-07
9.58233e-07
1.00222e-06
1.04526e-06
1.09048e-06
1.13365e-06
1.17782e-06
1.21874e-06
1.26018e-06
1.29791e-06
1.33614e-06
1.37015e-06
1.40485e-06
1.43499e-06
1.4658e-06
1.49164e-06
1.51862e-06
1.53963e-06
1.5624e-06
1.57846e-06
1.59609e-06
1.60694e-06
1.61778e-06
1.6224e-06
1.62267e-06
1.61829e-06
2.00475e-05
1.98304e-05
1.97081e-05
1.94502e-05
1.92739e-05
1.91168e-05
1.89675e-05
1.87528e-05
1.84658e-05
1.79177e-05
1.70864e-05
1.57158e-05
1.39041e-05
1.15629e-05
8.89037e-06
6.28339e-06
4.10751e-06
2.52837e-06
1.52124e-06
1.03761e-06
8.65126e-07
8.00315e-07
7.52356e-07
7.11824e-07
6.81968e-07
6.77566e-07
6.82948e-07
6.9609e-07
7.17634e-07
7.40002e-07
7.64682e-07
7.8897e-07
8.15834e-07
8.42036e-07
8.70119e-07
8.9666e-07
9.24812e-07
9.50454e-07
9.77232e-07
1.00076e-06
1.02573e-06
1.0463e-06
1.06879e-06
1.08604e-06
1.10514e-06
1.11814e-06
1.13266e-06
1.13982e-06
1.14697e-06
1.14563e-06
2.00362e-05
1.98126e-05
1.96856e-05
1.942e-05
1.92599e-05
1.91106e-05
1.90024e-05
1.88514e-05
1.87144e-05
1.85034e-05
1.82513e-05
1.78381e-05
1.724e-05
1.63739e-05
1.51798e-05
1.36504e-05
1.18506e-05
9.77435e-06
7.63544e-06
5.63869e-06
3.95526e-06
2.67104e-06
1.74768e-06
1.17532e-06
8.89092e-07
7.68541e-07
7.13728e-07
6.76328e-07
6.41363e-07
6.10855e-07
5.90215e-07
5.80627e-07
5.8198e-07
5.86757e-07
5.96756e-07
6.08442e-07
6.22217e-07
6.35139e-07
6.49669e-07
6.63078e-07
6.78337e-07
6.92167e-07
7.0733e-07
7.20622e-07
7.346e-07
7.46017e-07
7.57502e-07
7.6483e-07
7.71919e-07
7.71657e-07
2.00271e-05
1.97987e-05
1.96665e-05
1.93982e-05
1.92343e-05
1.90833e-05
1.89844e-05
1.8855e-05
1.87385e-05
1.85987e-05
1.84622e-05
1.82921e-05
1.80843e-05
1.77989e-05
1.74151e-05
1.68741e-05
1.61704e-05
1.52541e-05
1.41199e-05
1.27847e-05
1.12943e-05
9.64354e-06
7.94382e-06
6.31257e-06
4.83279e-06
3.59064e-06
2.6049e-06
1.84728e-06
1.30729e-06
9.68701e-07
7.84109e-07
6.92032e-07
6.44327e-07
6.12418e-07
5.85714e-07
5.5939e-07
5.36385e-07
5.17612e-07
5.06208e-07
4.98946e-07
4.9892e-07
5.00286e-07
5.03598e-07
5.08743e-07
5.13949e-07
5.19378e-07
5.24033e-07
5.28006e-07
5.31027e-07
5.33622e-07
2.002e-05
1.97902e-05
1.96462e-05
1.9382e-05
1.92104e-05
1.90546e-05
1.89466e-05
1.88289e-05
1.87169e-05
1.85921e-05
1.84738e-05
1.83477e-05
1.82231e-05
1.80801e-05
1.79239e-05
1.77254e-05
1.74826e-05
1.7165e-05
1.67633e-05
1.62443e-05
1.56133e-05
1.4841e-05
1.39335e-05
1.28897e-05
1.17482e-05
1.0514e-05
9.20005e-06
7.87005e-06
6.57491e-06
5.37269e-06
4.28872e-06
3.36759e-06
2.60877e-06
1.99269e-06
1.50899e-06
1.15129e-06
9.06772e-07
7.53302e-07
6.62308e-07
6.09111e-07
5.76229e-07
5.52966e-07
5.33516e-07
5.16801e-07
5.01289e-07
4.87634e-07
4.77077e-07
4.68287e-07
4.68609e-07
4.72026e-07
2.00144e-05
1.97902e-05
1.962e-05
1.93688e-05
1.919e-05
1.90281e-05
1.89109e-05
1.87929e-05
1.86772e-05
1.85567e-05
1.84434e-05
1.83262e-05
1.82136e-05
1.80949e-05
1.7981e-05
1.78593e-05
1.77348e-05
1.75924e-05
1.7434e-05
1.72405e-05
1.70122e-05
1.67307e-05
1.63916e-05
1.59791e-05
1.54917e-05
1.49217e-05
1.4268e-05
1.35238e-05
1.27057e-05
1.18127e-05
1.08786e-05
9.89531e-06
8.87676e-06
7.85529e-06
6.85773e-06
5.90964e-06
5.03017e-06
4.23769e-06
3.53593e-06
2.94139e-06
2.44004e-06
2.02347e-06
1.68427e-06
1.41664e-06
1.2152e-06
1.07089e-06
9.77935e-07
9.25515e-07
9.23716e-07
9.39266e-07
2.00102e-05
1.97942e-05
1.95933e-05
1.93551e-05
1.91714e-05
1.90029e-05
1.88778e-05
1.87573e-05
1.86376e-05
1.85143e-05
1.83978e-05
1.82804e-05
1.81687e-05
1.80569e-05
1.79486e-05
1.784e-05
1.77321e-05
1.76236e-05
1.75163e-05
1.74041e-05
1.7288e-05
1.7161e-05
1.70199e-05
1.68589e-05
1.66739e-05
1.64574e-05
1.62073e-05
1.59154e-05
1.55793e-05
1.51932e-05
1.47583e-05
1.42738e-05
1.37373e-05
1.31514e-05
1.25201e-05
1.18529e-05
1.1153e-05
1.04369e-05
9.71104e-06
8.97693e-06
8.24805e-06
7.54531e-06
6.87611e-06
6.26424e-06
5.70802e-06
5.23407e-06
4.83631e-06
4.54021e-06
4.31315e-06
4.19021e-06
2.0007e-05
1.98016e-05
1.95687e-05
1.93419e-05
1.9154e-05
1.89794e-05
1.88463e-05
1.87232e-05
1.85992e-05
1.84731e-05
1.83516e-05
1.82325e-05
1.81165e-05
1.8003e-05
1.78922e-05
1.77842e-05
1.76789e-05
1.75771e-05
1.74761e-05
1.73772e-05
1.72783e-05
1.71813e-05
1.7082e-05
1.69844e-05
1.68823e-05
1.6776e-05
1.66615e-05
1.65386e-05
1.64006e-05
1.62474e-05
1.60761e-05
1.5884e-05
1.56691e-05
1.54282e-05
1.51599e-05
1.48682e-05
1.45396e-05
1.41946e-05
1.38154e-05
1.34183e-05
1.29964e-05
1.2562e-05
1.2109e-05
1.16661e-05
1.12151e-05
1.07902e-05
1.03868e-05
1.0037e-05
9.72494e-06
9.49104e-06
2.00046e-05
1.98101e-05
1.95459e-05
1.93288e-05
1.91372e-05
1.89574e-05
1.88162e-05
1.86904e-05
1.85624e-05
1.84335e-05
1.83072e-05
1.81855e-05
1.80651e-05
1.79492e-05
1.78343e-05
1.77246e-05
1.76144e-05
1.7511e-05
1.74072e-05
1.73081e-05
1.72108e-05
1.71196e-05
1.70255e-05
1.69382e-05
1.68491e-05
1.67624e-05
1.66739e-05
1.65889e-05
1.65011e-05
1.64124e-05
1.63221e-05
1.62275e-05
1.61291e-05
1.60219e-05
1.59078e-05
1.57892e-05
1.56491e-05
1.55124e-05
1.5353e-05
1.51871e-05
1.50081e-05
1.48169e-05
1.46112e-05
1.44076e-05
1.41837e-05
1.39622e-05
1.37449e-05
1.35312e-05
1.33245e-05
1.31508e-05
2.00029e-05
1.9819e-05
1.95247e-05
1.93153e-05
1.91205e-05
1.89371e-05
1.87874e-05
1.86588e-05
1.85273e-05
1.83957e-05
1.8265e-05
1.81406e-05
1.80158e-05
1.78974e-05
1.77785e-05
1.76663e-05
1.75521e-05
1.74464e-05
1.73388e-05
1.72372e-05
1.71358e-05
1.70417e-05
1.69441e-05
1.68554e-05
1.67651e-05
1.668e-05
1.65963e-05
1.65169e-05
1.64365e-05
1.63583e-05
1.62815e-05
1.62061e-05
1.61305e-05
1.60532e-05
1.59793e-05
1.59076e-05
1.58256e-05
1.57557e-05
1.56741e-05
1.55946e-05
1.5513e-05
1.54248e-05
1.5334e-05
1.5247e-05
1.51452e-05
1.50456e-05
1.49485e-05
1.48404e-05
1.47315e-05
1.46349e-05
2.00017e-05
1.98274e-05
1.95053e-05
1.93008e-05
1.91035e-05
1.89182e-05
1.87602e-05
1.86283e-05
1.84941e-05
1.83599e-05
1.82253e-05
1.80982e-05
1.79694e-05
1.78484e-05
1.7726e-05
1.7611e-05
1.74933e-05
1.73851e-05
1.7274e-05
1.71697e-05
1.70652e-05
1.69683e-05
1.68673e-05
1.67756e-05
1.66822e-05
1.65932e-05
1.65059e-05
1.6423e-05
1.63403e-05
1.62599e-05
1.61817e-05
1.61081e-05
1.60359e-05
1.59635e-05
1.58956e-05
1.58308e-05
1.57594e-05
1.57013e-05
1.56348e-05
1.55746e-05
1.55133e-05
1.54518e-05
1.53928e-05
1.53384e-05
1.52764e-05
1.52194e-05
1.51628e-05
1.50989e-05
1.50331e-05
1.49742e-05
2.00009e-05
1.98305e-05
1.94891e-05
1.92858e-05
1.90864e-05
1.89012e-05
1.87352e-05
1.85996e-05
1.84632e-05
1.83266e-05
1.81887e-05
1.80589e-05
1.79267e-05
1.78032e-05
1.76777e-05
1.75597e-05
1.7439e-05
1.73282e-05
1.72139e-05
1.71072e-05
1.7e-05
1.69004e-05
1.67966e-05
1.67024e-05
1.66062e-05
1.65146e-05
1.64244e-05
1.63384e-05
1.62523e-05
1.61693e-05
1.60868e-05
1.6011e-05
1.59335e-05
1.5858e-05
1.5787e-05
1.57192e-05
1.56471e-05
1.55868e-05
1.55206e-05
1.54628e-05
1.54034e-05
1.53475e-05
1.52929e-05
1.5243e-05
1.51884e-05
1.514e-05
1.50882e-05
1.50358e-05
1.49807e-05
1.49311e-05
2.00003e-05
1.98289e-05
1.9476e-05
1.92701e-05
1.90694e-05
1.88861e-05
1.87126e-05
1.8573e-05
1.84348e-05
1.82963e-05
1.81556e-05
1.80234e-05
1.78882e-05
1.77624e-05
1.76342e-05
1.75134e-05
1.73902e-05
1.7277e-05
1.71597e-05
1.7051e-05
1.6941e-05
1.68391e-05
1.67329e-05
1.66367e-05
1.65376e-05
1.64443e-05
1.63516e-05
1.62635e-05
1.61747e-05
1.60895e-05
1.60038e-05
1.59265e-05
1.58449e-05
1.57675e-05
1.56926e-05
1.56221e-05
1.55472e-05
1.54838e-05
1.54141e-05
1.53538e-05
1.52899e-05
1.52327e-05
1.51744e-05
1.51226e-05
1.50668e-05
1.50183e-05
1.49636e-05
1.49124e-05
1.48566e-05
1.48061e-05
2e-05
1.98271e-05
1.94647e-05
1.92529e-05
1.90517e-05
1.88725e-05
1.86924e-05
1.85487e-05
1.8409e-05
1.82693e-05
1.81264e-05
1.79921e-05
1.78543e-05
1.77267e-05
1.75961e-05
1.74731e-05
1.73476e-05
1.72324e-05
1.71123e-05
1.7002e-05
1.68896e-05
1.67855e-05
1.66773e-05
1.65794e-05
1.64776e-05
1.63832e-05
1.62881e-05
1.61984e-05
1.61074e-05
1.60204e-05
1.59326e-05
1.58538e-05
1.57692e-05
1.56908e-05
1.56129e-05
1.55405e-05
1.54637e-05
1.53978e-05
1.53256e-05
1.52633e-05
1.51965e-05
1.5138e-05
1.5076e-05
1.50223e-05
1.49639e-05
1.49134e-05
1.48551e-05
1.48023e-05
1.4744e-05
1.4691e-05
1.99999e-05
1.98259e-05
1.94564e-05
1.92353e-05
1.9034e-05
1.88606e-05
1.86752e-05
1.85273e-05
1.83864e-05
1.8246e-05
1.81015e-05
1.79656e-05
1.78257e-05
1.76969e-05
1.75642e-05
1.74394e-05
1.73122e-05
1.71952e-05
1.70728e-05
1.69613e-05
1.68467e-05
1.6741e-05
1.66308e-05
1.65318e-05
1.64276e-05
1.63324e-05
1.62352e-05
1.61443e-05
1.60514e-05
1.59626e-05
1.58737e-05
1.57933e-05
1.57062e-05
1.56274e-05
1.5547e-05
1.54733e-05
1.53953e-05
1.53275e-05
1.52535e-05
1.51897e-05
1.51213e-05
1.50616e-05
1.49972e-05
1.49421e-05
1.48818e-05
1.48299e-05
1.47686e-05
1.47143e-05
1.4654e-05
1.45985e-05
1.99999e-05
1.98251e-05
1.9451e-05
1.92184e-05
1.90173e-05
1.88506e-05
1.86616e-05
1.85096e-05
1.83675e-05
1.82272e-05
1.80817e-05
1.79446e-05
1.78033e-05
1.76736e-05
1.75392e-05
1.74132e-05
1.72847e-05
1.71662e-05
1.70422e-05
1.69298e-05
1.68135e-05
1.67064e-05
1.65948e-05
1.6495e-05
1.63888e-05
1.6293e-05
1.61942e-05
1.61022e-05
1.6008e-05
1.59177e-05
1.58281e-05
1.57461e-05
1.5657e-05
1.5578e-05
1.54959e-05
1.54208e-05
1.5342e-05
1.52727e-05
1.51973e-05
1.51326e-05
1.5063e-05
1.50022e-05
1.49362e-05
1.48802e-05
1.48183e-05
1.47653e-05
1.47014e-05
1.46465e-05
1.45843e-05
1.45265e-05
1.99999e-05
1.98247e-05
1.94483e-05
1.92029e-05
1.90022e-05
1.88426e-05
1.86522e-05
1.84961e-05
1.83529e-05
1.82134e-05
1.80675e-05
1.79297e-05
1.77875e-05
1.76574e-05
1.75218e-05
1.73953e-05
1.7266e-05
1.71464e-05
1.70212e-05
1.69084e-05
1.67908e-05
1.66828e-05
1.65702e-05
1.647e-05
1.63622e-05
1.62663e-05
1.61662e-05
1.60735e-05
1.59783e-05
1.58869e-05
1.5797e-05
1.57136e-05
1.56229e-05
1.55439e-05
1.54605e-05
1.53843e-05
1.53047e-05
1.52343e-05
1.51578e-05
1.50925e-05
1.5022e-05
1.49601e-05
1.48929e-05
1.48363e-05
1.47729e-05
1.47189e-05
1.4653e-05
1.45974e-05
1.45333e-05
1.44734e-05
1.99999e-05
1.98248e-05
1.94481e-05
1.91898e-05
1.89891e-05
1.88363e-05
1.86469e-05
1.84873e-05
1.83429e-05
1.82046e-05
1.80592e-05
1.79212e-05
1.77789e-05
1.76488e-05
1.75125e-05
1.73862e-05
1.72564e-05
1.71363e-05
1.70106e-05
1.68978e-05
1.67793e-05
1.66711e-05
1.65579e-05
1.64577e-05
1.63489e-05
1.62533e-05
1.61524e-05
1.60593e-05
1.59634e-05
1.58715e-05
1.57814e-05
1.56968e-05
1.56052e-05
1.55263e-05
1.5442e-05
1.53649e-05
1.52847e-05
1.52135e-05
1.51363e-05
1.50704e-05
1.49991e-05
1.49365e-05
1.48681e-05
1.48112e-05
1.47463e-05
1.4691e-05
1.46237e-05
1.45673e-05
1.45014e-05
1.44398e-05
1.99999e-05
1.98252e-05
1.94501e-05
1.91793e-05
1.89782e-05
1.88314e-05
1.86457e-05
1.84833e-05
1.83378e-05
1.82012e-05
1.80569e-05
1.79195e-05
1.77777e-05
1.76481e-05
1.75118e-05
1.73863e-05
1.72567e-05
1.71366e-05
1.70111e-05
1.68987e-05
1.67799e-05
1.66719e-05
1.65587e-05
1.64587e-05
1.63497e-05
1.62545e-05
1.61532e-05
1.60602e-05
1.59642e-05
1.58724e-05
1.57823e-05
1.56968e-05
1.56049e-05
1.55264e-05
1.54414e-05
1.53638e-05
1.52832e-05
1.52115e-05
1.51337e-05
1.50675e-05
1.49953e-05
1.49322e-05
1.48628e-05
1.48055e-05
1.47393e-05
1.46824e-05
1.46141e-05
1.45567e-05
1.44888e-05
1.44258e-05
1.99999e-05
1.98262e-05
1.94546e-05
1.91724e-05
1.89697e-05
1.88281e-05
1.86482e-05
1.84841e-05
1.83375e-05
1.82029e-05
1.80603e-05
1.7924e-05
1.77831e-05
1.76543e-05
1.75186e-05
1.73943e-05
1.72649e-05
1.71454e-05
1.70205e-05
1.69088e-05
1.67899e-05
1.66829e-05
1.65701e-05
1.64706e-05
1.63617e-05
1.62676e-05
1.61663e-05
1.60737e-05
1.59781e-05
1.58866e-05
1.57966e-05
1.57107e-05
1.5619e-05
1.5541e-05
1.54557e-05
1.53778e-05
1.52972e-05
1.52254e-05
1.51475e-05
1.50811e-05
1.50083e-05
1.4945e-05
1.48749e-05
1.48172e-05
1.47499e-05
1.46918e-05
1.46227e-05
1.45642e-05
1.44943e-05
1.44303e-05
1.99999e-05
1.98276e-05
1.94611e-05
1.91688e-05
1.89642e-05
1.88258e-05
1.86545e-05
1.84896e-05
1.83415e-05
1.82091e-05
1.80688e-05
1.79344e-05
1.77954e-05
1.76678e-05
1.75334e-05
1.74112e-05
1.72826e-05
1.71644e-05
1.7041e-05
1.69305e-05
1.68122e-05
1.67068e-05
1.65949e-05
1.64965e-05
1.63884e-05
1.6296e-05
1.61949e-05
1.61034e-05
1.60087e-05
1.59182e-05
1.58285e-05
1.57426e-05
1.56517e-05
1.55745e-05
1.54887e-05
1.54108e-05
1.53304e-05
1.52588e-05
1.51806e-05
1.51141e-05
1.50408e-05
1.49773e-05
1.49066e-05
1.48483e-05
1.47798e-05
1.47205e-05
1.46505e-05
1.45909e-05
1.4519e-05
1.44538e-05
1.99999e-05
1.98295e-05
1.94693e-05
1.91689e-05
1.89614e-05
1.88251e-05
1.86634e-05
1.84997e-05
1.83504e-05
1.82204e-05
1.80826e-05
1.79509e-05
1.7814e-05
1.7688e-05
1.75556e-05
1.7436e-05
1.73085e-05
1.71923e-05
1.70708e-05
1.69618e-05
1.68447e-05
1.67416e-05
1.6631e-05
1.6534e-05
1.64274e-05
1.63371e-05
1.62367e-05
1.61469e-05
1.60535e-05
1.59643e-05
1.58753e-05
1.57901e-05
1.57005e-05
1.56243e-05
1.55385e-05
1.5461e-05
1.53814e-05
1.53102e-05
1.5232e-05
1.51654e-05
1.5092e-05
1.50284e-05
1.49573e-05
1.48983e-05
1.48287e-05
1.47686e-05
1.46974e-05
1.46368e-05
1.45631e-05
1.44964e-05
1.99999e-05
1.98318e-05
1.94791e-05
1.91724e-05
1.89614e-05
1.88259e-05
1.86745e-05
1.85134e-05
1.83632e-05
1.82357e-05
1.81007e-05
1.79723e-05
1.78379e-05
1.7714e-05
1.75841e-05
1.74673e-05
1.73414e-05
1.72279e-05
1.71085e-05
1.70014e-05
1.6886e-05
1.67857e-05
1.66768e-05
1.65818e-05
1.64771e-05
1.63894e-05
1.62901e-05
1.62025e-05
1.61107e-05
1.60233e-05
1.59352e-05
1.58514e-05
1.57634e-05
1.56882e-05
1.56028e-05
1.55261e-05
1.54475e-05
1.5377e-05
1.52989e-05
1.52325e-05
1.51591e-05
1.50956e-05
1.50241e-05
1.49646e-05
1.48939e-05
1.48331e-05
1.47608e-05
1.46992e-05
1.46238e-05
1.45558e-05
1.99999e-05
1.98346e-05
1.94895e-05
1.91796e-05
1.89642e-05
1.88284e-05
1.86874e-05
1.85304e-05
1.83798e-05
1.82546e-05
1.81225e-05
1.79978e-05
1.78663e-05
1.77448e-05
1.76179e-05
1.7504e-05
1.73802e-05
1.727e-05
1.7153e-05
1.70481e-05
1.6935e-05
1.68377e-05
1.67307e-05
1.66383e-05
1.65361e-05
1.64511e-05
1.63535e-05
1.62686e-05
1.61785e-05
1.60934e-05
1.60066e-05
1.59248e-05
1.58386e-05
1.57643e-05
1.56798e-05
1.56043e-05
1.5527e-05
1.54573e-05
1.53793e-05
1.53133e-05
1.52402e-05
1.51768e-05
1.51048e-05
1.50451e-05
1.49733e-05
1.49119e-05
1.48386e-05
1.47758e-05
1.46989e-05
1.46298e-05
1.99999e-05
1.98377e-05
1.95007e-05
1.91897e-05
1.897e-05
1.88333e-05
1.87017e-05
1.85503e-05
1.84e-05
1.82767e-05
1.81475e-05
1.80269e-05
1.78983e-05
1.77798e-05
1.76561e-05
1.75453e-05
1.7424e-05
1.73173e-05
1.72028e-05
1.71006e-05
1.69902e-05
1.68962e-05
1.67914e-05
1.6702e-05
1.66026e-05
1.65206e-05
1.6425e-05
1.63434e-05
1.62551e-05
1.61726e-05
1.60875e-05
1.60081e-05
1.59238e-05
1.58507e-05
1.57674e-05
1.56936e-05
1.56177e-05
1.55486e-05
1.5471e-05
1.54056e-05
1.5333e-05
1.52696e-05
1.51972e-05
1.51372e-05
1.50645e-05
1.50025e-05
1.4928e-05
1.48644e-05
1.47862e-05
1.47158e-05
1.99999e-05
1.9841e-05
1.95121e-05
1.92023e-05
1.89785e-05
1.88405e-05
1.87165e-05
1.85721e-05
1.84232e-05
1.83015e-05
1.8175e-05
1.80586e-05
1.79331e-05
1.78181e-05
1.76977e-05
1.75899e-05
1.74716e-05
1.73688e-05
1.72566e-05
1.71575e-05
1.70501e-05
1.69595e-05
1.68572e-05
1.67714e-05
1.66749e-05
1.65961e-05
1.6503e-05
1.64248e-05
1.63385e-05
1.62589e-05
1.61761e-05
1.60994e-05
1.60168e-05
1.59451e-05
1.58634e-05
1.57917e-05
1.5717e-05
1.56487e-05
1.55717e-05
1.5507e-05
1.54349e-05
1.53715e-05
1.52988e-05
1.52385e-05
1.51651e-05
1.51023e-05
1.50267e-05
1.49628e-05
1.48831e-05
1.48112e-05
1.99999e-05
1.98444e-05
1.95234e-05
1.9217e-05
1.89895e-05
1.88501e-05
1.87318e-05
1.85953e-05
1.84489e-05
1.83284e-05
1.82047e-05
1.80924e-05
1.797e-05
1.7859e-05
1.77417e-05
1.7637e-05
1.75221e-05
1.7423e-05
1.73132e-05
1.72177e-05
1.71135e-05
1.70261e-05
1.69266e-05
1.68447e-05
1.67513e-05
1.66757e-05
1.65855e-05
1.65111e-05
1.64269e-05
1.63506e-05
1.62702e-05
1.61963e-05
1.61155e-05
1.60455e-05
1.59658e-05
1.58962e-05
1.58226e-05
1.5755e-05
1.5679e-05
1.56152e-05
1.55434e-05
1.54799e-05
1.5407e-05
1.53463e-05
1.52722e-05
1.52088e-05
1.51324e-05
1.5068e-05
1.49868e-05
1.49139e-05
1.99999e-05
1.9848e-05
1.95346e-05
1.92335e-05
1.90028e-05
1.88621e-05
1.87473e-05
1.86194e-05
1.84765e-05
1.8357e-05
1.8236e-05
1.81276e-05
1.80085e-05
1.79016e-05
1.77872e-05
1.76856e-05
1.75745e-05
1.7479e-05
1.73716e-05
1.728e-05
1.7179e-05
1.70948e-05
1.69984e-05
1.69206e-05
1.68303e-05
1.6758e-05
1.66711e-05
1.66004e-05
1.65185e-05
1.64458e-05
1.6368e-05
1.62968e-05
1.6218e-05
1.615e-05
1.60724e-05
1.60051e-05
1.59323e-05
1.58653e-05
1.57907e-05
1.57279e-05
1.56561e-05
1.55926e-05
1.55195e-05
1.54583e-05
1.53835e-05
1.53199e-05
1.52425e-05
1.51774e-05
1.50948e-05
1.50217e-05
1.99999e-05
1.98516e-05
1.95455e-05
1.92511e-05
1.90182e-05
1.88763e-05
1.8763e-05
1.86441e-05
1.85056e-05
1.83869e-05
1.82685e-05
1.81637e-05
1.8048e-05
1.79453e-05
1.78335e-05
1.77353e-05
1.76279e-05
1.75356e-05
1.74308e-05
1.73435e-05
1.72455e-05
1.71643e-05
1.70715e-05
1.69976e-05
1.69106e-05
1.68414e-05
1.67582e-05
1.66912e-05
1.66118e-05
1.65429e-05
1.64676e-05
1.63991e-05
1.63225e-05
1.62567e-05
1.61814e-05
1.61161e-05
1.60437e-05
1.59779e-05
1.5905e-05
1.58428e-05
1.57708e-05
1.57074e-05
1.5634e-05
1.55723e-05
1.54968e-05
1.54331e-05
1.53548e-05
1.52888e-05
1.52048e-05
1.5132e-05
1.99999e-05
1.98551e-05
1.95561e-05
1.92694e-05
1.90353e-05
1.88923e-05
1.8779e-05
1.86689e-05
1.85352e-05
1.84177e-05
1.83018e-05
1.82002e-05
1.80881e-05
1.79894e-05
1.78799e-05
1.77853e-05
1.76814e-05
1.75922e-05
1.74903e-05
1.74072e-05
1.73118e-05
1.72338e-05
1.71446e-05
1.70745e-05
1.69907e-05
1.69248e-05
1.68456e-05
1.67821e-05
1.67054e-05
1.66407e-05
1.65673e-05
1.65017e-05
1.64277e-05
1.6364e-05
1.6291e-05
1.62273e-05
1.61554e-05
1.60912e-05
1.60198e-05
1.59579e-05
1.58858e-05
1.58223e-05
1.57486e-05
1.56865e-05
1.56105e-05
1.55465e-05
1.54672e-05
1.54007e-05
1.53155e-05
1.5243e-05
1.99999e-05
1.98586e-05
1.95664e-05
1.92878e-05
1.90538e-05
1.89097e-05
1.87955e-05
1.86936e-05
1.85649e-05
1.84491e-05
1.83356e-05
1.8237e-05
1.81283e-05
1.80333e-05
1.79261e-05
1.78352e-05
1.77344e-05
1.76482e-05
1.75493e-05
1.74703e-05
1.7377e-05
1.73023e-05
1.72169e-05
1.71503e-05
1.70698e-05
1.70071e-05
1.6932e-05
1.6872e-05
1.67981e-05
1.67375e-05
1.66657e-05
1.66035e-05
1.6532e-05
1.64706e-05
1.63995e-05
1.63372e-05
1.62661e-05
1.62038e-05
1.61334e-05
1.60718e-05
1.59994e-05
1.59356e-05
1.58618e-05
1.57992e-05
1.57225e-05
1.56582e-05
1.55782e-05
1.55112e-05
1.54248e-05
1.53525e-05
1.99999e-05
1.9862e-05
1.95765e-05
1.93059e-05
1.90734e-05
1.8928e-05
1.88128e-05
1.87179e-05
1.8594e-05
1.8481e-05
1.83695e-05
1.82736e-05
1.81683e-05
1.80763e-05
1.79717e-05
1.78847e-05
1.77863e-05
1.77031e-05
1.76076e-05
1.75319e-05
1.74406e-05
1.73696e-05
1.72877e-05
1.7224e-05
1.71471e-05
1.70876e-05
1.70166e-05
1.69597e-05
1.68892e-05
1.68323e-05
1.67621e-05
1.67034e-05
1.66344e-05
1.65754e-05
1.65054e-05
1.64446e-05
1.6375e-05
1.63141e-05
1.62447e-05
1.61832e-05
1.61101e-05
1.60462e-05
1.59725e-05
1.59092e-05
1.58315e-05
1.57671e-05
1.56867e-05
1.56189e-05
1.55314e-05
1.54584e-05
1.99999e-05
1.98652e-05
1.95864e-05
1.93232e-05
1.90935e-05
1.89469e-05
1.8831e-05
1.87416e-05
1.86223e-05
1.85133e-05
1.84032e-05
1.831e-05
1.82077e-05
1.81183e-05
1.80166e-05
1.79333e-05
1.78367e-05
1.77569e-05
1.76645e-05
1.75914e-05
1.75022e-05
1.74351e-05
1.7356e-05
1.72952e-05
1.72219e-05
1.71659e-05
1.70983e-05
1.70447e-05
1.69777e-05
1.69241e-05
1.6856e-05
1.68005e-05
1.67342e-05
1.66772e-05
1.66077e-05
1.65493e-05
1.64812e-05
1.64212e-05
1.63526e-05
1.62908e-05
1.62169e-05
1.61535e-05
1.60797e-05
1.6015e-05
1.59364e-05
1.58724e-05
1.57914e-05
1.5723e-05
1.56342e-05
1.556e-05
1.99999e-05
1.98683e-05
1.95959e-05
1.93396e-05
1.91138e-05
1.89664e-05
1.88501e-05
1.87643e-05
1.86495e-05
1.85457e-05
1.84366e-05
1.83458e-05
1.82462e-05
1.81592e-05
1.80608e-05
1.79806e-05
1.78856e-05
1.78095e-05
1.77196e-05
1.76485e-05
1.75615e-05
1.74986e-05
1.74213e-05
1.73635e-05
1.72938e-05
1.72417e-05
1.71765e-05
1.71269e-05
1.70627e-05
1.70129e-05
1.69466e-05
1.68944e-05
1.68308e-05
1.67746e-05
1.67063e-05
1.6651e-05
1.65837e-05
1.65244e-05
1.64564e-05
1.63939e-05
1.63196e-05
1.6257e-05
1.61823e-05
1.61159e-05
1.6037e-05
1.59732e-05
1.58911e-05
1.5822e-05
1.57323e-05
1.56581e-05
1.99999e-05
1.98712e-05
1.9605e-05
1.93551e-05
1.91336e-05
1.89864e-05
1.887e-05
1.87862e-05
1.86761e-05
1.85779e-05
1.84694e-05
1.8381e-05
1.82836e-05
1.81991e-05
1.8104e-05
1.80264e-05
1.7933e-05
1.78606e-05
1.77724e-05
1.77032e-05
1.76187e-05
1.75594e-05
1.74833e-05
1.7429e-05
1.73625e-05
1.73143e-05
1.72508e-05
1.72061e-05
1.71436e-05
1.70984e-05
1.70336e-05
1.69847e-05
1.69231e-05
1.68674e-05
1.68014e-05
1.67491e-05
1.66816e-05
1.66233e-05
1.65554e-05
1.64922e-05
1.64182e-05
1.63558e-05
1.62795e-05
1.62117e-05
1.61329e-05
1.60688e-05
1.59851e-05
1.59153e-05
1.58253e-05
1.57519e-05
1.99999e-05
1.98739e-05
1.96134e-05
1.93698e-05
1.91528e-05
1.90068e-05
1.88902e-05
1.88072e-05
1.87023e-05
1.86093e-05
1.85015e-05
1.84155e-05
1.83199e-05
1.82384e-05
1.8146e-05
1.80705e-05
1.79792e-05
1.791e-05
1.78226e-05
1.77557e-05
1.76737e-05
1.76172e-05
1.7542e-05
1.74917e-05
1.74278e-05
1.73831e-05
1.73215e-05
1.72814e-05
1.72207e-05
1.718e-05
1.71167e-05
1.70712e-05
1.70103e-05
1.69559e-05
1.68933e-05
1.68428e-05
1.67746e-05
1.67176e-05
1.66493e-05
1.65859e-05
1.65124e-05
1.64491e-05
1.63707e-05
1.63027e-05
1.62238e-05
1.61582e-05
1.6073e-05
1.60031e-05
1.59129e-05
1.58401e-05
1.99999e-05
1.98765e-05
1.9621e-05
1.93837e-05
1.9171e-05
1.90275e-05
1.89101e-05
1.88277e-05
1.8728e-05
1.86394e-05
1.8533e-05
1.84493e-05
1.83551e-05
1.82769e-05
1.81865e-05
1.81129e-05
1.80242e-05
1.79572e-05