/*--------------------------------*- C++ -*----------------------------------*\
  =========                 |
  \\      /  F ield         | OpenFOAM: The Open Source CFD Toolbox
   \\    /   O peration     | Website:  https://openfoam.org
    \\  /    A nd           | Version:  7
     \\/     M anipulation  |
\*---------------------------------------------------------------------------*/
FoamFile
{
    version     2.0;
    format      ascii;
    class       volScalarField;
    location    "0.5";
    object      nut;
}
// * * * * * * * * * * * * * * * * * * * * * * * * * * * * * * * * * * * * * //

dimensions      [0 2 -1 0 0 0 0];

internalField   nonuniform List<scalar> 
70000
(
0
0
0
0
0
0
0
0
0
0
0
0
0
0
0
0
0
0
0
0
0
0
0
0
0
0
0
0
0
0
0
0
0
0
0
0
0
0
1.50633e-14
4.77633e-14
6.07605e-14
1.26196e-13
9.26359e-14
2.71791e-13
1.6062e-13
5.94224e-13
1.53599e-13
1.61522e-12
0
0
0
0
0
0
0
0
0
0
0
0
0
0
0
0
0
0
0
0
0
0
0
0
0
0
0
0
0
0
0
0
0
0
0
0
0
0
0
9.83406e-15
3.8941e-14
9.48735e-14
1.11826e-13
2.31273e-13
1.68315e-13
4.79734e-13
2.34197e-13
1.07675e-12
1.66444e-13
3.12297e-12
1.49092e-12
0
0
0
0
0
0
0
0
0
0
0
0
0
0
0
0
0
0
0
0
0
0
0
0
0
0
0
0
0
0
0
0
0
0
0
0
0
0
0
2.44857e-14
8.63082e-14
9.08405e-14
2.4077e-13
1.48185e-13
5.28604e-13
8.27797e-14
1.25645e-12
0
3.91054e-12
6.98134e-12
0
0
0
0
0
0
0
0
0
0
0
0
0
0
0
0
0
0
0
0
0
0
0
0
0
0
0
0
0
0
0
0
0
0
0
0
0
0
0
0
0
0
8.89295e-14
0
3.99624e-13
0
1.12901e-12
0
3.67813e-12
1.15154e-11
0
0
0
0
0
0
0
0
0
0
0
0
0
0
0
0
0
0
0
0
0
0
0
0
0
0
0
0
0
0
0
0
0
0
0
0
0
0
0
0
0
0
0
0
1.70029e-13
0
8.43533e-13
0
2.91159e-12
1.33512e-11
0
9.4477e-10
0
0
0
0
0
0
0
0
0
0
0
0
0
0
0
0
0
0
0
0
0
0
0
0
0
0
0
0
0
0
0
0
0
0
0
0
0
0
0
0
0
0
0
0
5.20575e-13
0
2.08721e-12
1.36878e-11
0
1.31845e-08
0
0
0
0
0
0
0
0
0
0
0
0
0
0
0
0
0
0
0
0
0
0
0
0
0
0
0
0
0
0
0
0
0
0
0
0
0
0
0
0
0
0
0
0
1.80884e-13
0
1.23427e-12
1.36005e-11
0
1.2078e-08
0
0
0
0
0
0
0
0
0
0
0
0
0
0
0
0
0
0
0
0
0
0
0
0
0
0
0
0
0
0
0
0
0
0
0
0
0
0
0
0
0
0
0
0
0
0
3.19162e-13
1.33085e-11
0
1.10592e-08
0
0
0
0
0
0
0
0
0
0
0
0
0
0
0
0
0
0
0
0
0
0
0
0
0
0
0
0
0
0
0
0
0
0
0
0
0
0
0
0
0
0
0
0
0
0
0
1.28282e-11
0
1.02112e-08
0
0
0
0
0
0
0
0
0
0
0
0
0
0
0
0
0
0
0
0
0
0
0
0
0
0
0
0
0
0
0
0
0
0
0
0
0
0
0
0
0
0
0
0
0
0
0
1.21822e-11
0
9.50066e-09
0
0
0
0
0
0
0
0
0
0
0
0
0
0
0
0
0
0
0
0
0
0
0
0
0
0
0
0
0
0
0
0
0
0
0
0
0
0
0
0
0
0
0
0
0
0
0
1.14358e-11
0
8.85721e-09
0
0
0
0
0
0
0
0
0
0
0
0
0
0
0
0
0
0
0
0
0
0
0
0
0
0
0
0
0
0
0
0
0
0
0
0
0
0
0
0
0
0
0
0
0
0
0
1.07e-11
0
8.21517e-09
0
0
0
0
0
0
0
0
0
0
0
0
0
0
0
0
0
0
0
0
0
0
0
0
0
0
0
0
0
0
0
0
0
0
0
0
0
0
0
0
0
0
0
0
0
0
0
1.01059e-11
0
7.55473e-09
0
0
0
0
0
0
0
0
0
0
0
0
0
0
0
0
0
0
0
0
0
0
0
0
0
0
0
0
0
0
0
0
0
0
0
0
0
0
0
0
0
0
0
0
0
1.06453e-12
0
9.82497e-12
0
6.88204e-09
0
0
0
0
0
0
0
0
0
0
0
0
0
0
0
3.21727e-12
1.09161e-11
7.25212e-13
0
0
0
0
0
0
0
0
0
0
0
0
0
0
0
0
0
0
0
0
0
0
0
0
0
0
0
2.79752e-12
0
1.01973e-11
0
6.20816e-09
0
0
0
0
0
0
0
0
0
0
0
0
0
0
0
0
0
0
0
1.16381e-11
1.76088e-11
9.58142e-12
0
0
0
0
0
0
0
0
0
0
0
0
0
0
0
0
0
0
0
0
0
0
0
5.97977e-12
8.65281e-13
1.20021e-11
0
5.54159e-09
0
0
0
3.41533e-11
0
0
0
0
0
0
0
0
0
0
0
0
0
0
0
0
0
0
0
0
0
0
0
0
0
0
0
0
0
0
0
0
0
0
0
0
0
0
0
2.40362e-12
3.36948e-12
1.3353e-11
7.26976e-12
1.77369e-11
0
4.8886e-09
0
0
0
1.12216e-10
0
0
0
0
0
0
0
0
0
0
0
0
0
0
0
0
0
0
0
0
0
0
0
0
0
0
0
0
0
0
0
0
0
0
0
0
0
0
0
7.49548e-12
1.24514e-11
3.33875e-11
2.64963e-11
3.74e-11
0
4.25469e-09
0
0
0
1.60991e-10
0
0
0
0
0
0
0
0
0
0
0
0
0
0
0
0
0
0
0
0
0
0
0
0
0
0
0
0
0
0
0
0
0
0
0
0
0
0
0
0
0
0
0
0
8.34116e-12
3.64496e-09
0
0
0
1.65157e-10
0
0
0
0
0
0
0
0
0
0
0
0
0
0
0
0
0
0
0
0
0
0
0
0
0
0
0
0
0
0
0
0
0
0
0
0
0
0
0
0
0
0
0
0
7.98769e-11
3.06367e-09
0
0
0
1.07062e-10
0
0
0
0
0
0
0
0
0
0
0
0
0
0
0
0
0
0
0
0
0
0
0
0
0
0
0
0
0
0
0
0
0
0
0
0
0
0
0
0
0
0
0
0
1.40936e-10
2.51378e-09
0
0
0
0
0
0
0
0
0
0
0
0
0
0
0
0
0
0
0
0
0
0
0
0
0
0
0
0
0
0
0
0
0
0
0
0
0
0
0
0
0
0
0
0
0
0
0
0
2.28661e-10
1.99659e-09
0
0
0
0
0
0
0
0
0
0
0
0
0
0
0
0
0
0
0
0
0
0
0
0
0
0
0
0
0
0
0
0
0
0
0
0
0
0
0
0
0
0
0
0
0
0
0
0
3.33311e-10
1.51169e-09
0
0
0
0
0
0
0
0
0
0
0
0
0
0
0
0
0
0
0
0
0
0
0
0
0
0
0
0
0
0
0
0
0
0
0
0
0
0
0
0
0
0
0
0
0
0
0
3.42439e-11
4.55288e-10
1.0571e-09
0
0
0
0
0
0
0
0
0
0
0
0
0
0
0
0
0
0
0
0
0
0
0
0
0
0
0
0
0
0
0
0
0
0
0
0
0
0
0
0
0
0
0
0
0
0
0
1.54068e-10
5.9539e-10
6.29646e-10
0
0
0
0
0
0
0
0
0
0
0
0
0
0
0
0
0
0
0
0
0
0
0
0
0
0
0
0
0
0
0
0
0
0
0
0
0
0
0
0
0
0
0
0
0
0
0
2.89501e-10
7.52885e-10
2.25546e-10
0
0
0
0
0
0
0
0
0
0
0
0
0
0
0
0
0
0
0
0
0
0
0
0
0
0
0
0
0
0
0
0
0
0
0
0
0
0
0
0
0
0
0
0
0
0
0
4.41368e-10
9.26578e-10
0
0
0
0
0
0
0
0
0
0
0
0
0
0
0
0
0
0
0
0
0
0
0
0
0
0
0
0
0
0
0
0
0
0
0
0
0
0
0
0
0
0
0
0
0
0
0
5.02231e-11
6.09652e-10
1.11515e-09
0
0
0
0
0
0
0
0
0
0
0
0
0
0
0
0
0
0
0
0
0
0
0
0
0
0
0
0
0
0
0
0
0
0
0
0
0
0
0
0
0
0
0
0
0
0
0
1.87179e-10
7.9394e-10
1.31712e-09
0
0
0
0
0
0
0
0
0
0
0
0
0
0
0
0
0
0
0
0
0
0
0
0
0
0
0
0
0
0
0
0
0
0
0
0
0
0
0
0
0
0
0
0
0
0
0
3.40533e-10
9.93845e-10
1.53112e-09
0
0
0
0
0
0
0
0
0
0
0
0
0
0
0
0
0
0
0
0
0
0
0
0
0
0
0
0
0
0
0
0
0
0
0
0
0
0
0
0
0
0
0
0
0
0
9.37477e-12
5.10396e-10
1.20909e-09
1.7564e-09
0
0
0
0
0
0
0
0
0
0
0
0
0
0
0
0
0
0
0
0
0
0
0
0
0
0
0
0
0
0
0
0
0
0
0
0
0
0
0
0
0
0
0
0
0
0
1.46025e-10
6.96294e-10
1.4385e-09
1.99164e-09
0
6.20009e-10
0
0
0
0
0
0
0
0
0
0
0
0
0
0
0
0
0
0
0
0
0
0
0
0
0
0
0
0
0
0
0
0
0
0
0
0
0
0
0
0
0
0
0
0
2.988e-10
8.97257e-10
1.67951e-09
2.23363e-09
0
1.52512e-09
0
0
0
0
0
0
0
0
0
0
0
0
0
0
0
0
0
0
0
0
0
0
0
0
0
0
0
0
0
0
0
0
0
0
0
0
0
0
0
0
0
0
0
0
4.66929e-10
1.11175e-09
1.9298e-09
2.47926e-09
0
2.30436e-09
0
0
0
0
0
0
0
0
0
0
0
0
0
0
0
0
0
0
0
0
0
0
0
0
0
0
0
0
0
0
0
0
0
0
0
0
0
0
0
0
0
0
0
9.40028e-11
6.50219e-10
1.33854e-09
2.18793e-09
2.72696e-09
0
2.96044e-09
0
0
0
0
0
0
0
0
0
0
0
0
0
0
0
0
0
0
0
0
0
0
0
0
0
0
0
0
0
0
0
0
0
0
0
0
0
0
0
0
0
0
0
2.45652e-10
8.48309e-10
1.57589e-09
2.45111e-09
2.9746e-09
0
3.4991e-09
0
0
0
0
0
0
0
0
0
0
0
0
0
0
0
0
0
0
0
0
0
0
0
0
0
0
0
0
0
0
0
0
0
0
0
0
0
0
0
0
0
0
0
4.11313e-10
1.05787e-09
1.81944e-09
2.71424e-09
3.21758e-09
0
3.92818e-09
0
0
0
0
0
0
0
0
0
0
0
0
0
0
0
0
0
0
0
0
0
0
0
0
0
0
0
0
0
0
0
0
0
0
0
0
0
0
0
0
0
0
6.85452e-11
5.89439e-10
1.27441e-09
2.06583e-09
2.97396e-09
3.45048e-09
0
4.25634e-09
0
0
0
0
0
0
0
0
0
0
0
0
0
0
0
0
0
0
0
0
0
0
0
0
0
0
0
0
0
0
0
0
0
0
0
0
0
0
0
0
0
0
2.16614e-10
7.77766e-10
1.49543e-09
2.31412e-09
3.22959e-09
3.67127e-09
0
4.49277e-09
0
0
0
0
0
0
0
0
0
0
0
0
0
0
0
0
0
0
0
0
0
0
0
0
0
0
0
0
0
0
0
0
0
0
0
0
0
0
0
0
0
0
3.75716e-10
9.73566e-10
1.71957e-09
2.55949e-09
3.47565e-09
3.8778e-09
0
4.64787e-09
0
0
0
0
0
0
0
0
0
0
0
0
0
0
0
0
0
0
0
0
0
0
0
0
0
0
0
0
0
0
0
0
0
0
0
0
0
0
0
0
0
2.10279e-11
5.43541e-10
1.17412e-09
1.94457e-09
2.7945e-09
3.70216e-09
4.06149e-09
0
4.73301e-09
0
0
0
0
0
0
0
0
0
0
0
0
0
0
0
0
0
0
0
0
0
0
0
0
0
0
0
0
0
0
0
0
0
0
0
0
0
0
0
0
0
1.61627e-10
7.17379e-10
1.37606e-09
2.16458e-09
3.01475e-09
3.90605e-09
4.2171e-09
0
4.7595e-09
0
0
0
0
0
0
0
0
0
0
0
0
0
0
0
0
0
0
0
0
0
0
0
0
0
0
0
0
0
0
0
0
0
0
0
0
0
0
0
0
0
3.09434e-10
8.94106e-10
1.57523e-09
2.37252e-09
3.21566e-09
4.08473e-09
4.3442e-09
0
4.73772e-09
0
0
0
0
0
0
0
0
0
0
0
0
0
0
0
0
0
0
0
0
0
0
0
0
0
0
0
0
0
0
0
0
0
0
0
0
0
0
0
0
0
4.61641e-10
1.07029e-09
1.7675e-09
2.56566e-09
3.39622e-09
4.23193e-09
4.43616e-09
0
4.67674e-09
0
0
0
0
0
0
0
0
0
0
0
0
0
0
0
0
0
0
0
0
0
0
0
0
0
0
0
0
0
0
0
0
0
0
0
0
0
0
0
0
8.77782e-11
6.15203e-10
1.24224e-09
1.94907e-09
2.74622e-09
3.56824e-09
4.35673e-09
4.49217e-09
0
4.58422e-09
0
0
0
0
0
0
0
0
0
0
0
0
0
0
0
0
0
0
0
0
0
0
0
0
0
0
0
0
0
0
0
0
0
0
0
0
0
0
0
0
2.18561e-10
7.66997e-10
1.40647e-09
2.11683e-09
2.91113e-09
3.7272e-09
4.4666e-09
4.5244e-09
0
4.46656e-09
0
0
0
0
0
0
0
0
0
0
0
0
0
0
0
0
0
0
0
0
0
0
0
0
0
0
0
0
0
0
0
0
0
0
0
0
0
0
0
0
3.49525e-10
9.13954e-10
1.56016e-09
2.26771e-09
3.04808e-09
3.84193e-09
4.54175e-09
4.53302e-09
0
4.329e-09
0
0
0
0
0
0
0
0
0
0
0
0
0
0
0
0
0
0
0
0
0
0
0
0
0
0
0
0
0
0
0
0
0
0
0
0
0
0
0
0
4.77754e-10
1.05291e-09
1.70004e-09
2.39804e-09
3.15261e-09
3.90683e-09
4.5679e-09
4.50557e-09
0
4.17589e-09
0
0
0
0
0
0
0
0
0
0
0
0
0
0
0
0
0
0
0
0
0
0
0
0
0
0
0
0
0
0
0
0
0
0
0
0
0
0
0
8.15047e-11
6.00314e-10
1.18078e-09
1.82289e-09
2.50499e-09
3.2276e-09
3.93737e-09
4.55101e-09
4.44605e-09
0
4.01089e-09
0
0
0
0
0
0
0
0
0
0
0
0
0
0
0
0
0
0
0
0
0
0
0
0
0
0
0
0
0
0
0
0
0
0
0
0
0
0
0
1.87699e-10
7.14354e-10
1.29466e-09
1.92591e-09
2.58618e-09
3.27191e-09
3.93424e-09
4.49242e-09
4.35262e-09
0
3.83719e-09
0
0
0
0
0
0
0
0
0
0
0
0
0
0
0
0
0
0
0
0
0
0
0
0
0
0
0
0
0
0
0
0
0
0
0
0
0
0
0
2.8773e-10
8.17173e-10
1.39183e-09
2.00661e-09
2.63974e-09
3.28437e-09
3.89423e-09
4.38518e-09
4.19486e-09
0
3.65754e-09
0
0
0
0
0
0
0
0
0
0
0
0
0
0
0
0
0
0
0
0
0
0
0
0
0
0
0
0
0
0
0
0
0
0
0
0
0
0
0
3.79084e-10
9.06254e-10
1.46991e-09
2.06289e-09
2.66402e-09
3.26371e-09
3.81766e-09
4.23427e-09
3.97653e-09
0
3.47428e-09
0
0
0
0
0
0
0
0
0
0
0
0
0
0
0
0
0
0
0
0
0
0
0
0
0
0
0
0
0
0
0
0
0
0
0
0
0
0
0
4.59439e-10
9.79362e-10
1.52686e-09
2.09315e-09
2.65789e-09
3.20904e-09
3.7051e-09
4.04993e-09
3.7311e-09
0
3.2895e-09
0
0
0
0
0
0
0
0
0
0
0
0
0
0
0
0
0
0
0
0
0
0
0
0
0
0
0
0
0
0
0
0
0
0
0
0
0
0
4.77304e-11
5.2672e-10
1.03458e-09
1.56109e-09
2.09631e-09
2.62078e-09
3.12036e-09
3.55692e-09
3.83338e-09
3.46783e-09
0
3.10515e-09
0
0
0
0
0
0
0
0
0
0
0
0
0
0
0
0
0
0
0
0
0
0
0
0
0
0
0
0
0
0
0
0
0
0
0
0
0
0
1.08405e-10
5.79172e-10
1.07037e-09
1.57149e-09
2.07181e-09
2.55275e-09
2.99853e-09
3.37485e-09
3.58525e-09
3.18269e-09
0
2.92303e-09
0
0
0
0
0
0
0
0
0
0
0
0
0
0
0
0
0
0
0
0
0
0
0
0
0
0
0
0
0
0
0
0
0
0
0
0
0
0
1.57191e-10
6.15392e-10
1.08566e-09
1.55751e-09
2.01968e-09
2.4545e-09
2.8452e-09
3.16137e-09
3.30858e-09
2.87721e-09
0
2.74473e-09
0
0
0
0
0
0
0
0
0
0
0
0
0
0
0
0
0
0
0
0
0
0
0
0
0
0
0
0
0
0
0
0
0
0
0
0
0
0
1.92831e-10
6.34381e-10
1.07988e-09
1.51917e-09
1.94054e-09
2.32738e-09
2.66266e-09
2.91974e-09
3.00745e-09
2.55614e-09
0
2.5716e-09
0
0
0
0
0
0
0
0
0
0
0
0
0
0
0
0
0
0
0
0
0
0
0
0
0
0
0
0
0
0
0
0
0
0
0
0
0
0
2.14468e-10
6.35637e-10
1.05309e-09
1.45706e-09
1.83559e-09
2.17353e-09
2.45402e-09
2.65393e-09
2.68675e-09
2.22512e-09
0
2.40471e-09
0
0
0
0
0
0
0
0
0
0
0
0
0
0
0
0
0
0
0
0
0
0
0
0
0
0
0
0
0
0
0
0
0
0
0
0
0
0
2.21692e-10
6.19208e-10
1.00585e-09
1.37231e-09
1.70676e-09
1.99585e-09
2.22299e-09
2.36844e-09
2.35199e-09
1.89047e-09
0
2.24492e-09
0
0
0
0
0
0
0
0
0
0
0
0
0
0
0
0
0
0
0
0
0
0
0
0
0
0
0
0
0
0
0
0
0
0
0
0
0
0
2.14598e-10
5.857e-10
9.39336e-10
1.26674e-09
1.55679e-09
1.79787e-09
1.97383e-09
2.06855e-09
2.00947e-09
1.55916e-09
0
2.0928e-09
0
0
0
0
0
0
0
0
0
0
0
0
0
0
0
0
0
0
0
0
0
0
0
0
0
0
0
0
0
0
0
0
0
0
0
0
0
0
1.9382e-10
5.36296e-10
8.55317e-10
1.14293e-09
1.38904e-09
1.58366e-09
1.71149e-09
1.76024e-09
1.66606e-09
1.23846e-09
0
1.94878e-09
0
0
0
0
0
0
0
0
0
0
0
0
0
0
0
0
0
0
0
0
0
0
0
0
0
0
0
0
0
0
0
0
0
0
0
0
0
0
1.60551e-10
4.72773e-10
7.56263e-10
1.00415e-09
1.20751e-09
1.35799e-09
1.44168e-09
1.45008e-09
1.32902e-09
9.3576e-10
0
1.81312e-09
0
0
0
0
0
0
0
0
0
0
0
0
0
0
0
0
0
0
0
0
0
0
0
0
0
0
0
0
0
0
0
0
0
0
0
0
0
0
1.16553e-10
3.97529e-10
6.45312e-10
8.54273e-10
1.01679e-09
1.12629e-09
1.17069e-09
1.14509e-09
1.00588e-09
6.58362e-10
0
1.68597e-09
0
0
0
0
0
0
0
0
0
0
0
0
0
0
0
0
0
0
0
0
0
0
0
0
0
0
0
0
0
0
0
0
0
0
0
0
0
0
6.41548e-11
3.13581e-10
5.26229e-10
6.97794e-10
8.22153e-10
8.94661e-10
9.05284e-10
8.52564e-10
7.04318e-10
4.13433e-10
0
1.56738e-09
0
0
0
0
0
0
0
0
0
0
0
0
0
0
0
0
0
0
0
0
0
0
0
0
0
0
0
0
0
0
0
0
0
0
0
0
0
0
6.23541e-12
2.24517e-10
4.03336e-10
5.39778e-10
6.29413e-10
6.69645e-10
6.52587e-10
5.8012e-10
4.32063e-10
2.07755e-10
0
1.45736e-09
0
0
0
0
0
0
0
0
0
0
0
0
0
0
0
0
0
0
0
0
0
0
0
0
0
0
0
0
0
0
0
0
0
0
0
0
0
0
0
1.34429e-10
2.81446e-10
3.85777e-10
4.44842e-10
4.58118e-10
4.19931e-10
3.35399e-10
1.96611e-10
4.72773e-11
0
1.35583e-09
0
0
0
0
0
0
0
0
0
0
0
0
0
0
0
0
0
0
0
0
0
0
0
0
0
0
0
0
0
0
0
0
0
0
0
0
0
0
0
4.77894e-11
1.6574e-10
2.41669e-10
2.74936e-10
2.6703e-10
2.14572e-10
1.25771e-10
4.81679e-12
0
0
1.26272e-09
0
0
0
0
0
0
0
0
0
0
0
0
0
0
0
0
0
0
0
0
0
0
0
0
0
0
0
0
0
0
0
0
0
0
0
0
0
0
0
0
6.15456e-11
1.13378e-10
1.26089e-10
1.03102e-10
4.33346e-11
0
0
0
0
1.17788e-09
0
0
0
0
0
0
0
0
0
0
0
0
0
0
0
0
0
0
0
0
0
0
0
0
0
0
0
0
0
0
0
0
0
0
0
0
0
0
0
0
0
6.48262e-12
4.17143e-12
0
0
0
0
0
0
1.10119e-09
0
0
0
0
0
0
0
0
0
0
0
0
0
0
0
0
0
0
0
0
0
0
0
0
0
0
0
0
0
0
0
0
0
0
0
0
0
0
0
0
0
0
0
0
0
0
0
0
0
1.03255e-09
0
0
0
0
0
0
0
0
0
0
0
0
0
0
0
0
0
0
0
0
0
0
0
0
0
0
0
0
0
0
0
0
0
0
0
0
0
0
0
0
0
0
0
0
0
0
0
0
0
9.71903e-10
0
0
0
0
0
0
0
0
0
0
0
0
0
0
0
0
0
0
0
0
0
0
0
0
0
0
0
0
0
0
0
0
0
0
0
0
0
0
0
0
0
0
0
0
0
0
0
5.70704e-11
0
9.19242e-10
0
0
0
0
0
0
0
0
0
0
0
0
0
0
0
0
0
0
0
0
0
0
0
0
0
0
0
0
0
0
0
0
0
0
0
0
0
0
0
0
0
0
0
0
0
0
0
1.11865e-10
0
8.74649e-10
0
0
0
0
0
0
0
0
0
0
0
0
0
0
0
0
0
0
0
0
0
0
0
0
0
0
0
0
0
0
0
0
0
0
0
0
0
0
0
0
0
0
0
0
0
0
0
9.63296e-11
0
8.3832e-10
0
0
0
0
0
0
0
0
0
0
0
0
0
0
0
0
0
0
0
0
0
0
0
0
0
0
0
0
0
0
0
0
0
0
0
0
0
0
0
0
0
0
0
0
0
0
0
0
0
8.10617e-10
0
0
0
0
0
0
0
0
0
0
0
0
0
0
0
0
0
0
0
0
0
0
0
0
0
0
0
0
0
0
0
0
0
0
0
0
0
0
0
0
0
0
0
0
0
0
0
0
0
7.92117e-10
0
0
0
0
0
0
0
0
0
0
0
0
0
0
0
0
0
0
0
0
0
0
0
0
0
0
0
0
0
0
0
0
0
0
0
0
0
0
0
0
0
0
0
0
0
0
0
0
0
7.83681e-10
0
0
0
0
0
0
0
0
0
0
0
0
0
0
0
0
0
0
0
0
0
0
0
0
0
0
0
0
0
0
0
0
0
0
0
0
0
0
0
0
0
0
0
0
0
0
0
0
0
7.86576e-10
0
0
0
0
0
0
0
0
0
0
0
0
0
0
0
0
0
0
0
0
0
0
0
0
0
0
0
0
0
0
0
0
0
0
0
0
0
0
0
0
0
0
0
0
0
0
0
0
0
8.02653e-10
0
0
0
0
0
0
0
0
0
0
0
0
0
0
0
0
0
0
0
0
0
0
0
0
0
0
0
0
0
0
0
0
0
3.85562e-12
6.92707e-11
7.05636e-11
8.47247e-12
0
0
0
0
0
0
0
0
0
0
0
0
8.34601e-10
0
0
0
0
0
0
0
0
0
0
0
0
0
0
0
0
0
0
0
0
0
0
0
0
0
0
0
0
0
0
0
8.92302e-11
2.28386e-10
3.00191e-10
2.99974e-10
2.25681e-10
7.87147e-11
0
0
0
0
0
0
0
0
0
0
0
0
8.86333e-10
0
0
0
0
0
0
0
0
0
0
0
0
0
0
0
0
0
0
0
0
0
0
0
0
0
0
0
0
0
1.90277e-10
4.10374e-10
5.68499e-10
6.5534e-10
6.63853e-10
5.89069e-10
4.29324e-10
1.87813e-10
0
0
0
0
0
0
0
0
0
0
0
0
9.63619e-10
0
0
0
0
0
0
0
0
0
0
0
0
0
0
0
0
0
0
0
0
0
0
0
0
0
0
0
3.0356e-10
5.98243e-10
8.4566e-10
1.03268e-09
1.14703e-09
1.17822e-09
1.11881e-09
9.64571e-10
7.15526e-10
3.78334e-10
0
0
0
0
0
0
0
0
0
0
0
0
1.07513e-09
0
0
0
0
0
0
0
0
0
0
0
0
0
0
0
0
0
0
0
0
0
0
0
0
7.41863e-11
4.3816e-10
7.87804e-10
1.11125e-09
1.39354e-09
1.61975e-09
1.77519e-09
1.84634e-09
1.82193e-09
1.69448e-09
1.46172e-09
1.12762e-09
7.04402e-10
2.15545e-10
0
0
0
0
0
0
0
0
0
7.29634e-10
0
1.23411e-09
0
0
0
0
0
0
0
0
0
0
0
0
0
0
0
0
0
0
0
0
0
0
2.27469e-10
6.13444e-10
9.96073e-10
1.36779e-09
1.7221e-09
2.04562e-09
2.32042e-09
2.52991e-09
2.65771e-09
2.68923e-09
2.61318e-09
2.4233e-09
2.12027e-09
1.71388e-09
1.22457e-09
6.85393e-10
1.42355e-10
0
0
0
0
0
0
5.17e-10
1.43232e-09
2.79167e-09
0
1.46109e-09
0
0
0
0
0
0
0
0
0
0
0
0
0
0
0
0
0
0
0
0
3.98776e-10
8.13618e-10
1.22925e-09
1.64041e-09
2.04097e-09
2.42513e-09
2.78923e-09
3.11925e-09
3.39306e-09
3.59232e-09
3.69912e-09
3.69813e-09
3.57871e-09
3.33717e-09
2.97891e-09
2.52072e-09
1.99237e-09
1.43726e-09
9.10672e-10
4.76086e-10
1.97049e-10
1.29795e-10
3.07105e-10
7.37302e-10
1.39714e-09
2.26983e-09
3.42251e-09
5.19969e-09
0
1.78894e-09
0
0
0
0
0
0
0
0
0
0
0
0
0
0
0
0
0
7.13869e-11
5.23503e-10
9.79544e-10
1.4391e-09
1.89884e-09
2.35283e-09
2.79413e-09
3.21709e-09
3.61806e-09
3.99669e-09
4.34069e-09
4.62182e-09
4.81984e-09
4.91536e-09
4.89261e-09
4.74233e-09
4.46446e-09
4.07043e-09
3.58513e-09
3.04767e-09
2.51047e-09
2.03571e-09
1.68968e-09
1.53339e-09
1.61432e-09
1.94621e-09
2.53073e-09
3.34265e-09
4.36382e-09
5.70627e-09
7.84245e-09
0
2.27084e-09
0
0
0
0
0
0
0
0
0
0
0
0
0
0
0
1.01964e-10
5.83951e-10
1.07779e-09
1.5781e-09
2.08621e-09
2.59861e-09
3.1079e-09
3.60462e-09
4.0801e-09
4.52906e-09
4.95036e-09
5.34683e-09
5.71287e-09
6.01132e-09
6.2193e-09
6.31596e-09
6.28538e-09
6.12018e-09
5.82459e-09
5.41672e-09
4.92965e-09
4.41087e-09
3.91972e-09
3.52217e-09
3.28429e-09
3.26177e-09
3.49145e-09
3.96549e-09
4.67063e-09
5.59203e-09
6.71304e-09
8.19091e-09
1.06167e-08
0
2.99271e-09
1.21205e-10
0
0
0
0
0
0
0
0
0
0
0
0
1.29256e-10
6.17478e-10
1.12497e-09
1.65683e-09
2.2031e-09
2.75477e-09
3.31708e-09
3.88397e-09
4.44432e-09
4.98542e-09
5.4971e-09
5.97438e-09
6.41861e-09
6.83478e-09
7.23005e-09
7.55811e-09
7.78969e-09
7.90247e-09
7.88042e-09
7.71828e-09
7.42488e-09
7.02487e-09
6.55878e-09
6.08091e-09
5.65516e-09
5.34868e-09
5.22525e-09
5.33425e-09
5.70165e-09
6.29914e-09
7.08413e-09
8.06625e-09
9.23461e-09
1.07903e-08
1.34304e-08
0
4.09193e-09
7.10563e-10
0
0
0
0
0
0
0
0
0
0
1.9256e-10
6.85046e-10
1.18835e-09
1.71318e-09
2.26871e-09
2.85821e-09
3.46207e-09
4.06456e-09
4.67873e-09
5.29696e-09
5.90533e-09
6.48858e-09
7.03553e-09
7.54128e-09
8.00916e-09
8.44607e-09
8.87121e-09
9.24474e-09
9.51682e-09
9.66389e-09
9.66962e-09
9.53054e-09
9.25965e-09
8.88746e-09
8.46077e-09
8.039e-09
7.68867e-09
7.47651e-09
7.46315e-09
7.69203e-09
8.179e-09
8.87953e-09
9.70188e-09
1.06921e-08
1.18523e-08
1.34252e-08
1.6199e-08
0
5.80239e-09
1.54606e-09
0
0
0
0
0
0
0
0
3.20806e-10
8.2277e-10
1.32491e-09
1.83754e-09
2.37183e-09
2.93971e-09
3.55028e-09
4.20406e-09
4.86896e-09
5.51531e-09
6.17167e-09
6.83074e-09
7.47737e-09
8.09505e-09
8.67226e-09
9.20423e-09
9.69451e-09
1.0152e-08
1.06009e-08
1.10362e-08
1.13698e-08
1.15731e-08
1.16287e-08
1.15345e-08
1.13067e-08
1.09805e-08
1.06076e-08
1.0251e-08
9.97883e-09
9.85663e-09
9.94204e-09
1.02739e-08
1.08591e-08
1.16407e-08
1.24662e-08
1.34056e-08
1.44979e-08
1.60225e-08
1.88423e-08
0
8.44666e-09
2.61121e-09
0
0
0
0
0
2.53581e-11
5.63536e-10
1.07426e-09
1.57395e-09
2.07583e-09
2.59023e-09
3.12689e-09
3.69705e-09
4.31366e-09
4.98524e-09
5.70816e-09
6.43541e-09
7.11025e-09
7.78873e-09
8.46741e-09
9.13252e-09
9.76833e-09
1.03641e-08
1.09157e-08
1.14246e-08
1.19008e-08
1.23668e-08
1.28705e-08
1.32964e-08
1.35847e-08
1.37174e-08
1.36928e-08
1.35294e-08
1.3266e-08
1.29581e-08
1.26715e-08
1.2475e-08
1.24337e-08
1.26029e-08
1.30184e-08
1.36798e-08
1.45197e-08
1.53257e-08
1.61498e-08
1.71073e-08
1.85097e-08
2.12767e-08
2.51633e-10
1.21547e-08
3.60581e-09
0
0
0
4.6037e-10
1.00579e-09
1.51239e-09
2.00158e-09
2.48539e-09
2.9746e-09
3.47951e-09
4.00912e-09
4.57265e-09
5.18133e-09
5.84924e-09
6.5845e-09
7.37793e-09
8.16533e-09
8.84252e-09
9.50873e-09
1.01711e-08
1.08213e-08
1.14475e-08
1.20412e-08
1.25992e-08
1.31198e-08
1.361e-08
1.40934e-08
1.46513e-08
1.52128e-08
1.56268e-08
1.5873e-08
1.59494e-08
1.5876e-08
1.56941e-08
1.54623e-08
1.52487e-08
1.51236e-08
1.5152e-08
1.53885e-08
1.58679e-08
1.65836e-08
1.74586e-08
1.823e-08
1.88718e-08
1.96184e-08
2.08135e-08
2.34143e-08
5.10094e-09
1.60395e-08
4.23227e-09
8.18369e-10
8.63934e-10
1.44207e-09
1.98235e-09
2.5906e-09
3.11719e-09
3.5875e-09
4.05102e-09
4.53337e-09
5.04627e-09
5.59627e-09
6.19059e-09
6.83986e-09
7.55922e-09
8.35694e-09
9.21665e-09
1.00533e-08
1.0694e-08
1.12912e-08
1.18802e-08
1.24626e-08
1.30351e-08
1.3594e-08
1.41366e-08
1.46574e-08
1.51543e-08
1.56539e-08
1.6255e-08
1.69999e-08
1.75965e-08
1.80063e-08
1.82254e-08
1.82748e-08
1.81979e-08
1.8056e-08
1.792e-08
1.78626e-08
1.79503e-08
1.82385e-08
1.87625e-08
1.9511e-08
2.03962e-08
2.11146e-08
2.15093e-08
2.19647e-08
2.28615e-08
2.51749e-08
1.70101e-08
1.69526e-08
4.73722e-09
2.21656e-09
2.40259e-09
2.98401e-09
3.40408e-09
3.92733e-09
4.68628e-09
5.26585e-09
5.76624e-09
6.25925e-09
6.78387e-09
7.35746e-09
7.98516e-09
8.67484e-09
9.44247e-09
1.02978e-08
1.12142e-08
1.20777e-08
1.26256e-08
1.30708e-08
1.35038e-08
1.39419e-08
1.43969e-08
1.48731e-08
1.5368e-08
1.58698e-08
1.63625e-08
1.68723e-08
1.75145e-08
1.84857e-08
1.93538e-08
1.99996e-08
2.04204e-08
2.06379e-08
2.06981e-08
2.06657e-08
2.06156e-08
2.06243e-08
2.07617e-08
2.10864e-08
2.16363e-08
2.23949e-08
2.32581e-08
2.38727e-08
2.39596e-08
2.40589e-08
2.45857e-08
2.65142e-08
3.50613e-08
1.32055e-08
5.15842e-09
3.94479e-09
4.13989e-09
4.59904e-09
4.9732e-09
5.2454e-09
6.0164e-09
6.88103e-09
7.53482e-09
8.11052e-09
8.68014e-09
9.2882e-09
9.95122e-09
1.06778e-08
1.14847e-08
1.23842e-08
1.33361e-08
1.41809e-08
1.45458e-08
1.4739e-08
1.4917e-08
1.51197e-08
1.53806e-08
1.57161e-08
1.61234e-08
1.65811e-08
1.70543e-08
1.75621e-08
1.82411e-08
1.94494e-08
2.07177e-08
2.17019e-08
2.24059e-08
2.2854e-08
2.30955e-08
2.32001e-08
2.32488e-08
2.33245e-08
2.35038e-08
2.3851e-08
2.44089e-08
2.51518e-08
2.59447e-08
2.63322e-08
2.60608e-08
2.57894e-08
2.59421e-08
2.74745e-08
2.62175e-08
8.49344e-09
5.49409e-09
5.48875e-09
5.97408e-09
6.23987e-09
6.5788e-09
6.76418e-09
7.18233e-09
8.33925e-09
9.2538e-09
9.98886e-09
1.06701e-08
1.13508e-08
1.20593e-08
1.28175e-08
1.36501e-08
1.4573e-08
1.55217e-08
1.62502e-08
1.62892e-08
1.61522e-08
1.60034e-08
1.5908e-08
1.59215e-08
1.60728e-08
1.63588e-08
1.67479e-08
1.71862e-08
1.76719e-08
1.83494e-08
1.96974e-08
2.14989e-08
2.29498e-08
2.40396e-08
2.47957e-08
2.52722e-08
2.55466e-08
2.57092e-08
2.58533e-08
2.60658e-08
2.64217e-08
2.69686e-08
2.76605e-08
2.82971e-08
2.82435e-08
2.76248e-08
2.70602e-08
2.69488e-08
2.82224e-08
8.31038e-09
5.57726e-09
5.50647e-09
6.32569e-09
7.45025e-09
7.82714e-09
8.10728e-09
8.35744e-09
8.53692e-09
9.44703e-09
1.08061e-08
1.18103e-08
1.26637e-08
1.34552e-08
1.42263e-08
1.50098e-08
1.58465e-08
1.67585e-08
1.76286e-08
1.80146e-08
1.76297e-08
1.71765e-08
1.67498e-08
1.64193e-08
1.62411e-08
1.62426e-08
1.64184e-08
1.67336e-08
1.71296e-08
1.75729e-08
1.81707e-08
1.93024e-08
2.15409e-08
2.35869e-08
2.51684e-08
2.63142e-08
2.70804e-08
2.75556e-08
2.78443e-08
2.80547e-08
2.82896e-08
2.86394e-08
2.91524e-08
2.97382e-08
3.00491e-08
2.94076e-08
2.8616e-08
2.79522e-08
2.78109e-08
2.91078e-08
1.26404e-09
3.90438e-09
5.13751e-09
6.4373e-09
8.18929e-09
9.14884e-09
9.52906e-09
9.80202e-09
1.00059e-08
1.03855e-08
1.18198e-08
1.32863e-08
1.44196e-08
1.53748e-08
1.62183e-08
1.70071e-08
1.7815e-08
1.86559e-08
1.92777e-08
1.89941e-08
1.83317e-08
1.77613e-08
1.7318e-08
1.70293e-08
1.69043e-08
1.69374e-08
1.71137e-08
1.74086e-08
1.77852e-08
1.82014e-08
1.86797e-08
1.9372e-08
2.08275e-08
2.33937e-08
2.55337e-08
2.71339e-08
2.82397e-08
2.89469e-08
2.93758e-08
2.96537e-08
2.99031e-08
3.0235e-08
3.06897e-08
3.11061e-08
3.08944e-08
2.99955e-08
2.92344e-08
2.87088e-08
2.87967e-08
3.04007e-08
0
2.73067e-09
4.48067e-09
5.97191e-09
8.01521e-09
9.80839e-09
1.05345e-08
1.08166e-08
1.10636e-08
1.12852e-08
1.19724e-08
1.37602e-08
1.52847e-08
1.64362e-08
1.73309e-08
1.80788e-08
1.88102e-08
1.94643e-08
1.94731e-08
1.87404e-08
1.82213e-08
1.79831e-08
1.79795e-08
1.81152e-08
1.83106e-08
1.85363e-08
1.88035e-08
1.9132e-08
1.95251e-08
1.99608e-08
2.04032e-08
2.08507e-08
2.13888e-08
2.23519e-08
2.44972e-08
2.6581e-08
2.80712e-08
2.90563e-08
2.96594e-08
3.0024e-08
3.02944e-08
3.06046e-08
3.09882e-08
3.12072e-08
3.06348e-08
2.99179e-08
2.94644e-08
2.93101e-08
2.98051e-08
3.18401e-08
0
0
0
1.84984e-11
3.93681e-11
4.84792e-11
5.19381e-11
5.60667e-11
5.74469e-11
4.99978e-11
2.89495e-11
0
0
0
0
8.6391e-11
2.54226e-10
4.77735e-10
6.41561e-10
3.9868e-10
0
0
0
0
0
0
2.07559e-09
7.62007e-09
1.50801e-08
1.97778e-08
1.87018e-08
1.20987e-08
4.99164e-09
9.93624e-10
0
0
0
0
0
3.25175e-10
6.84398e-10
1.00404e-09
1.06464e-09
1.04493e-09
9.97942e-10
0
0
0
0
0
0
0
0
0
0
0
0
0
0
1.91731e-09
1.23132e-09
3.97908e-10
8.82887e-09
1.65975e-08
1.81675e-08
9.50323e-09
0
0
2.66354e-08
4.11308e-08
3.86935e-08
1.85807e-08
0
0
0
0
0
0
0
0
0
0
4.84848e-10
2.14057e-09
2.46914e-09
2.23643e-09
2.2923e-09
2.81711e-09
3.24791e-09
0
0
0
5.11336e-09
7.85514e-09
8.33738e-09
0
1.65173e-08
2.58898e-08
2.35034e-08
0
0
0
0
1.07282e-12
1.92752e-11
3.10278e-11
3.72633e-11
4.28313e-11
4.61023e-11
4.22941e-11
2.66598e-11
2.04647e-12
0
0
8.10224e-12
8.71133e-11
2.36771e-10
4.44985e-10
6.63596e-10
7.29667e-10
1.74756e-10
0
0
0
0
0
1.77142e-09
7.60609e-09
1.51858e-08
1.9668e-08
1.84747e-08
1.15866e-08
4.67226e-09
8.81612e-10
0
0
0
0
5.49083e-11
2.97204e-10
6.38894e-10
9.58066e-10
1.1015e-09
1.0765e-09
1.07398e-09
7.46296e-10
0
0
0
0
0
0
0
0
0
0
0
0
0
1.48501e-09
3.27583e-10
1.23071e-10
9.01351e-09
1.60457e-08
1.74427e-08
7.43472e-09
0
0
2.72962e-08
4.47413e-08
4.27159e-08
2.0497e-08
0
0
0
0
0
0
0
0
0
0
0
1.89869e-09
2.34354e-09
2.19952e-09
2.24201e-09
2.76505e-09
3.53741e-09
5.17495e-10
0
0
3.70685e-09
7.54734e-09
8.75425e-09
0
1.70291e-08
2.72673e-08
3.83154e-08
0
0
9.36375e-12
0
0
7.50717e-12
1.83838e-11
2.52191e-11
3.1178e-11
3.5227e-11
3.35936e-11
2.17967e-11
2.08128e-12
0
0
2.12425e-11
9.6505e-11
2.34018e-10
4.23826e-10
6.41184e-10
8.40064e-10
7.34782e-10
0
0
0
0
0
1.61493e-09
7.66877e-09
1.51943e-08
1.94727e-08
1.81517e-08
1.1028e-08
4.3403e-09
7.69252e-10
0
0
0
0
1.48779e-10
3.02656e-10
6.03333e-10
8.90153e-10
1.13623e-09
1.12297e-09
1.10419e-09
1.04972e-09
0
0
0
0
0
0
0
0
0
0
0
0
0
1.03591e-09
0
0
9.16479e-09
1.54556e-08
1.67287e-08
5.3318e-09
0
0
2.82803e-08
4.92455e-08
4.78203e-08
2.28641e-08
1.87879e-10
0
0
0
0
0
0
0
0
0
0
1.53095e-09
2.20302e-09
2.18323e-09
2.23141e-09
2.72858e-09
3.66356e-09
1.78095e-09
0
0
2.3224e-09
7.11011e-09
8.799e-09
0
1.68906e-08
2.59875e-08
5.05449e-08
6.17773e-08
0
1.72821e-11
0
0
1.99542e-12
1.10873e-11
1.72702e-11
2.27866e-11
2.6616e-11
2.56558e-11
1.61925e-11
1.01838e-13
0
0
3.5841e-11
1.13009e-10
2.43138e-10
4.1882e-10
6.11346e-10
8.23923e-10
9.39053e-10
5.95902e-10
0
0
0
0
1.58169e-09
7.69967e-09
1.50335e-08
1.91747e-08
1.7629e-08
1.03431e-08
3.9614e-09
6.56353e-10
0
0
0
1.65889e-11
2.58031e-10
3.55173e-10
5.68584e-10
8.39767e-10
1.1304e-09
1.17283e-09
1.12397e-09
1.12496e-09
7.42555e-10
0
0
0
0
0
0
0
0
0
0
0
0
5.47776e-10
0
0
9.23646e-09
1.47757e-08
1.59517e-08
3.14623e-09
0
0
2.95738e-08
5.45266e-08
5.39845e-08
2.57309e-08
8.68503e-10
0
0
0
0
0
0
0
0
0
0
7.99974e-10
2.03835e-09
2.16428e-09
2.24151e-09
2.70006e-09
3.65521e-09
2.8056e-09
0
0
1.00592e-09
6.39236e-09
8.10618e-09
0
1.56854e-08
2.12971e-08
5.68515e-08
1.44396e-07
0
2.44326e-11
0
0
4.9007e-13
8.15327e-12
1.3293e-11
1.78128e-11
2.07682e-11
1.9357e-11
1.06838e-11
0
0
2.87637e-12
5.08846e-11
1.3433e-10
2.60413e-10
4.281e-10
5.9612e-10
7.70406e-10
9.35526e-10
8.31268e-10
2.24282e-10
0
0
0
1.62825e-09
7.65054e-09
1.47792e-08
1.86887e-08
1.67719e-08
9.53872e-09
3.52607e-09
5.46123e-10
0
0
0
1.33081e-10
3.76455e-10
4.55806e-10
5.40991e-10
7.99756e-10
1.07064e-09
1.2129e-09
1.15055e-09
1.1321e-09
1.07199e-09
0
0
0
0
0
0
0
0
0
0
0
0
2.28844e-11
0
0
9.18231e-09
1.40104e-08
1.51013e-08
9.43452e-10
0
0
3.11082e-08
6.04476e-08
6.1116e-08
2.90432e-08
1.60738e-09
0
0
0
0
0
0
0
3.45262e-11
0
0
0
1.84345e-09
2.1019e-09
2.26056e-09
2.67872e-09
3.56557e-09
3.43556e-09
0
0
0
5.35034e-09
6.73626e-09
0
1.31989e-08
1.62249e-08
5.46016e-08
1.77013e-07
0
3.01926e-11
0
0
1.05371e-12
7.99483e-12
1.20814e-11
1.53578e-11
1.69656e-11
1.43863e-11
5.50081e-12
0
0
1.06188e-11
6.66714e-11
1.58073e-10
2.81597e-10
4.45423e-10
5.97749e-10
7.29793e-10
8.43623e-10
8.45145e-10
4.16335e-10
0
0
0
1.72385e-09
7.59899e-09
1.43183e-08
1.78992e-08
1.56149e-08
8.62815e-09
3.03243e-09
4.46945e-10
0
4.71764e-12
1.6886e-10
2.9888e-10
5.02589e-10
5.91188e-10
5.49937e-10
7.46742e-10
9.76788e-10
1.21797e-09
1.18325e-09
1.12442e-09
1.13062e-09
7.24269e-10
0
0
0
0
0
0
0
0
0
0
0
0
0
4.67777e-11
9.00152e-09
1.31769e-08
1.41706e-08
0
0
0
3.28718e-08
6.69942e-08
6.92156e-08
3.27993e-08
2.41076e-09
0
0
0
0
0
0
0
3.12109e-10
0
0
0
1.47479e-09
1.99989e-09
2.28005e-09
2.66816e-09
3.43539e-09
3.69735e-09
9.99564e-10
0
0
4.08584e-09
5.06153e-09
0
9.45648e-09
1.12736e-08
4.22489e-08
1.72522e-07
0
3.26303e-11
0
0
2.06246e-12
9.04861e-12
1.23692e-11
1.43409e-11
1.43048e-11
1.01056e-11
4.7837e-13
0
0
1.99844e-11
8.45931e-11
1.8312e-10
3.05352e-10
4.61066e-10
6.09188e-10
7.07155e-10
7.66081e-10
7.34905e-10
4.45148e-10
0
0
0
1.87749e-09
7.50635e-09
1.36522e-08
1.68372e-08
1.42334e-08
7.58066e-09
2.48773e-09
3.72726e-10
8.60435e-11
3.09791e-10
4.93346e-10
5.36036e-10
6.44196e-10
7.43926e-10
6.21835e-10
6.62442e-10
9.03314e-10
1.15316e-09
1.20863e-09
1.12598e-09
1.11493e-09
1.06091e-09
0
0
0
0
0
0
0
0
0
0
0
0
0
1.83114e-10
8.6936e-09
1.2284e-08
1.31636e-08
0
0
0
3.49165e-08
7.42141e-08
7.83248e-08
3.69402e-08
3.26852e-09
0
0
0
0
0
0
0
3.48719e-10
0
0
0
6.47996e-10
1.87499e-09
2.27968e-09
2.66613e-09
3.29668e-09
3.69731e-09
2.0187e-09
0
0
2.76444e-09
3.48506e-09
0
4.8414e-09
6.07016e-09
2.54117e-08
1.50426e-07
0
3.20321e-11
1.56005e-12
0
2.32563e-12
9.89117e-12
1.27725e-11
1.34663e-11
1.1705e-11
5.65182e-12
0
0
0
3.21139e-11
1.06259e-10
2.10164e-10
3.30927e-10
4.7266e-10
6.17499e-10
6.9492e-10
7.07834e-10
6.34127e-10
3.81915e-10
0
0
0
2.07325e-09
7.25547e-09
1.27895e-08
1.55021e-08
1.26685e-08
6.42077e-09
1.90679e-09
3.46305e-10
3.74901e-10
7.10191e-10
9.03314e-10
8.68403e-10
8.23114e-10
9.01453e-10
7.58601e-10
5.67565e-10
8.12092e-10
1.0287e-09
1.20911e-09
1.13696e-09
1.08276e-09
1.09822e-09
7.07927e-10
0
0
0
0
0
0
0
0
0
0
0
0
3.30387e-10
8.26281e-09
1.13353e-08
1.20872e-08
0
0
0
3.7299e-08
8.22161e-08
8.85222e-08
4.1395e-08
4.15375e-09
0
0
0
0
0
0
0
1.44593e-10
2.90225e-10
0
0
0
1.71867e-09
2.23262e-09
2.66451e-09
3.16689e-09
3.55066e-09
2.74902e-09
0
0
1.51957e-09
2.17586e-09
0
0
1.28863e-09
1.19777e-08
1.22771e-07
0
2.98435e-11
5.54342e-12
0
1.59101e-12
9.89543e-12
1.25609e-11
1.19427e-11
8.24511e-12
2.54452e-13
0
0
0
4.82449e-11
1.33069e-10
2.41224e-10
3.56666e-10
4.81957e-10
6.14016e-10
6.77456e-10
6.58983e-10
5.54718e-10
3.2035e-10
0
0
0
2.20873e-09
6.87892e-09
1.16771e-08
1.39196e-08
1.09856e-08
5.1709e-09
1.31389e-09
4.06679e-10
7.92682e-10
1.2257e-09
1.4077e-09
1.32132e-09
1.06519e-09
1.05326e-09
9.34812e-10
5.37282e-10
6.40833e-10
9.16612e-10
1.13968e-09
1.14542e-09
1.06209e-09
1.0595e-09
1.01991e-09
0
0
0
0
0
0
0
0
0
0
0
0
4.62628e-10
7.71195e-09
1.03342e-08
1.09538e-08
0
0
0
4.00797e-08
9.11236e-08
9.99531e-08
4.60325e-08
5.01905e-09
0
0
0
0
0
0
0
0
8.32085e-10
0
0
0
1.33903e-09
2.1532e-09
2.65605e-09
3.04815e-09
3.33777e-09
3.129e-09
0
0
4.56794e-10
1.09818e-09
0
0
0
4.43395e-09
9.81445e-08
0
2.69902e-11
9.02489e-12
0
1.68631e-13
8.91432e-12
1.13562e-11
9.20141e-12
3.26092e-12
0
0
0
6.62392e-12
7.01699e-11
1.66557e-10
2.77475e-10
3.83617e-10
4.89052e-10
5.94732e-10
6.461e-10
6.07785e-10
4.85668e-10
2.68473e-10
0
0
1.58796e-10
2.2161e-09
6.30734e-09
1.03215e-08
1.21909e-08
9.23834e-09
3.84579e-09
7.55019e-10
6.21538e-10
1.37744e-09
1.84034e-09
2.04258e-09
1.89961e-09
1.41234e-09
1.20096e-09
1.1202e-09
6.2236e-10