/*--------------------------------*- C++ -*----------------------------------*\
  =========                 |
  \\      /  F ield         | OpenFOAM: The Open Source CFD Toolbox
   \\    /   O peration     | Website:  https://openfoam.org
    \\  /    A nd           | Version:  7
     \\/     M anipulation  |
\*---------------------------------------------------------------------------*/
FoamFile
{
    version     2.0;
    format      ascii;
    class       surfaceScalarField;
    location    "0.5";
    object      phi;
}
// * * * * * * * * * * * * * * * * * * * * * * * * * * * * * * * * * * * * * //

dimensions      [0 3 -1 0 0 0 0];

internalField   nonuniform List<scalar> 
139350
(
6.45933e-08
9.20382e-08
3.19534e-08
3.26399e-08
2.30643e-08
8.88908e-09
1.95722e-08
3.49205e-09
1.76229e-08
1.94934e-09
1.61979e-08
1.42501e-09
1.50675e-08
1.13035e-09
1.41563e-08
9.11204e-10
1.34067e-08
7.49604e-10
1.27756e-08
6.31124e-10
1.22342e-08
5.41447e-10
1.17631e-08
4.71096e-10
1.13486e-08
4.14452e-10
1.09806e-08
3.67988e-10
1.06513e-08
3.293e-10
1.03547e-08
2.96666e-10
1.00858e-08
2.6882e-10
9.84102e-09
2.44813e-10
9.6171e-09
2.23922e-10
9.41152e-09
2.05586e-10
9.22215e-09
1.89365e-10
9.04724e-09
1.74908e-10
8.88531e-09
1.61931e-10
8.73511e-09
1.502e-10
8.59559e-09
1.39523e-10
8.46586e-09
1.29735e-10
8.34516e-09
1.20694e-10
8.23288e-09
1.1228e-10
8.1285e-09
1.04378e-10
8.03161e-09
9.68945e-11
7.94189e-09
8.9721e-11
7.8591e-09
8.27889e-11
7.78313e-09
7.59692e-11
7.71391e-09
6.9221e-11
7.65155e-09
6.23619e-11
7.59616e-09
5.53832e-11
7.54815e-09
4.80175e-11
7.5079e-09
4.02478e-11
7.47612e-09
3.17782e-11
7.45382e-09
2.23016e-11
7.44184e-09
1.19791e-11
7.44283e-09
-9.9309e-13
7.45683e-09
-1.39927e-11
7.49129e-09
-3.4468e-11
7.54155e-09
-5.02594e-11
7.63069e-09
-8.91352e-11
7.73136e-09
-1.0067e-10
7.94613e-09
-2.14769e-10
7.93343e-09
1.26966e-11
-4.0622e-09
1.19956e-08
1.26027e-07
1.27455e-07
9.12676e-08
6.73992e-08
7.19513e-08
2.82053e-08
6.12299e-08
1.42135e-08
5.47895e-08
8.38968e-09
5.03019e-08
5.91268e-09
4.6824e-08
4.60822e-09
4.40145e-08
3.72074e-09
4.16941e-08
3.06997e-09
3.97383e-08
2.58695e-09
3.806e-08
2.21976e-09
3.65992e-08
1.93187e-09
3.53134e-08
1.70029e-09
3.41709e-08
1.5104e-09
3.31479e-08
1.3523e-09
3.22257e-08
1.21894e-09
3.13893e-08
1.10516e-09
3.06271e-08
1.00709e-09
2.99292e-08
9.2177e-10
2.92879e-08
8.46925e-10
2.86965e-08
7.80759e-10
2.81495e-08
7.21843e-10
2.76424e-08
6.69022e-10
2.71713e-08
6.2135e-10
2.67328e-08
5.78044e-10
2.63241e-08
5.38442e-10
2.59428e-08
5.01975e-10
2.55869e-08
4.68158e-10
2.52547e-08
4.36545e-10
2.49449e-08
4.06763e-10
2.46562e-08
3.78413e-10
2.43878e-08
3.51204e-10
2.4139e-08
3.24702e-10
2.39095e-08
2.98708e-10
2.36993e-08
2.7262e-10
2.35083e-08
2.46387e-10
2.33373e-08
2.19029e-10
2.31868e-08
1.9073e-10
2.30587e-08
1.59869e-10
2.29542e-08
1.26793e-10
2.28769e-08
8.92663e-11
2.28293e-08
4.66178e-11
2.28175e-08
-2.17016e-12
2.28478e-08
-6.47338e-11
2.2927e-08
-1.29492e-10
2.30796e-08
-2.41715e-10
2.32859e-08
-3.07009e-10
2.3716e-08
-6.44826e-10
2.39994e-08
-2.70747e-10
-5.63451e-09
2.55717e-08
1.58808e-07
1.35051e-07
1.36499e-07
8.97086e-08
1.17503e-07
4.72006e-08
1.03333e-07
2.83836e-08
9.33347e-08
1.83882e-08
8.60414e-08
1.3206e-08
8.03443e-08
1.03053e-08
7.57019e-08
8.36316e-09
7.1832e-08
6.93978e-09
6.85481e-08
5.87091e-09
6.57169e-08
5.0509e-09
6.3244e-08
4.40484e-09
6.10607e-08
3.88357e-09
5.9116e-08
3.45507e-09
5.73708e-08
3.09754e-09
5.57943e-08
2.79541e-09
5.43622e-08
2.53725e-09
5.30549e-08
2.31445e-09
5.18562e-08
2.12045e-09
5.0753e-08
1.95015e-09
4.97342e-08
1.79952e-09
4.87907e-08
1.66538e-09
4.79146e-08
1.54513e-09
4.70993e-08
1.43664e-09
4.63391e-08
1.33816e-09
4.56294e-08
1.24819e-09
4.49659e-08
1.16548e-09
4.43451e-08
1.08892e-09
4.37641e-08
1.01754e-09
4.32204e-08
9.50505e-10
4.27118e-08
8.86964e-10
4.22368e-08
8.26253e-10
4.1794e-08
7.67495e-10
4.13825e-08
7.10212e-10
4.10019e-08
6.53217e-10
4.06519e-08
5.96371e-10
4.03333e-08
5.37648e-10
4.00464e-08
4.77667e-10
3.97937e-08
4.12556e-10
3.9576e-08
3.44484e-10
3.93992e-08
2.661e-10
3.9264e-08
1.81733e-10
3.91824e-08
7.94803e-11
3.9156e-08
-3.83676e-11
3.92044e-08
-1.77881e-10
3.9343e-08
-3.8029e-10
3.95738e-08
-5.37857e-10
4.00501e-08
-1.12108e-09
4.06197e-08
-8.40386e-10
-6.33646e-09
4.13217e-08
1.75664e-07
1.30902e-07
1.65598e-07
9.97753e-08
1.52732e-07
6.00661e-08
1.40141e-07
4.09746e-08
1.29461e-07
2.9068e-08
1.20829e-07
2.18387e-08
1.13727e-07
1.74067e-08
1.07757e-07
1.43332e-08
1.02667e-07
1.20297e-08
9.82755e-08
1.02628e-08
9.44422e-08
8.88421e-09
9.1062e-08
7.78507e-09
8.80551e-08
6.89047e-09
8.53601e-08
6.15003e-09
8.29289e-08
5.52872e-09
8.07231e-08
5.00124e-09
7.87116e-08
4.54874e-09
7.68691e-08
4.15695e-09
7.51747e-08
3.81486e-09
7.3611e-08
3.51386e-09
7.21634e-08
3.24714e-09
7.08195e-08
3.00925e-09
6.95689e-08
2.79575e-09
6.84025e-08
2.60298e-09
6.73128e-08
2.42791e-09
6.6293e-08
2.26796e-09
6.53375e-08
2.12096e-09
6.44415e-08
1.985e-09
6.36006e-08
1.85842e-09
6.28114e-08
1.73973e-09
6.20708e-08
1.62754e-09
6.13764e-08
1.52067e-09
6.07262e-08
1.41768e-09
6.01187e-08
1.31773e-09
5.9553e-08
1.21892e-09
5.90284e-08
1.12097e-09
5.85454e-08
1.0206e-09
5.81041e-08
9.18985e-10
5.77072e-08
8.09449e-10
5.7355e-08
6.96634e-10
5.70546e-08
5.66568e-10
5.68057e-08
4.30648e-10
5.66229e-08
2.62265e-10
5.65057e-08
7.8777e-11
5.64795e-08
-1.51672e-10
5.65556e-08
-4.56374e-10
5.67515e-08
-7.33758e-10
5.71799e-08
-1.54947e-09
5.7869e-08
-1.52949e-09
-6.82714e-09
5.83597e-08
1.8456e-07
1.23127e-07
1.82323e-07
1.02013e-07
1.76109e-07
6.62803e-08
1.67773e-07
4.93107e-08
1.59159e-07
3.76821e-08
1.5126e-07
2.97376e-08
1.44198e-07
2.44683e-08
1.3791e-07
2.06214e-08
1.32321e-07
1.76187e-08
1.27347e-07
1.52365e-08
1.22903e-07
1.33283e-08
1.18912e-07
1.17758e-08
1.1531e-07
1.04924e-08
1.12044e-07
9.41675e-09
1.09067e-07
8.50484e-09
1.06345e-07
7.72398e-09
1.03844e-07
7.04927e-09
1.0154e-07
6.4615e-09
9.94089e-08
5.94559e-09
9.74331e-08
5.48963e-09
9.55962e-08
5.08406e-09
9.38843e-08
4.72114e-09
9.22856e-08
4.39452e-09
9.07896e-08
4.09895e-09
8.93875e-08
3.83001e-09
8.80715e-08
3.58397e-09
8.68348e-08
3.35761e-09
8.56717e-08
3.14816e-09
8.45769e-08
2.95313e-09
8.35463e-08
2.77037e-09
8.2576e-08
2.5978e-09
8.1663e-08
2.43367e-09
8.08048e-08
2.27595e-09
7.99992e-08
2.12331e-09
7.9245e-08
1.97309e-09
7.85412e-08
1.82483e-09
7.78879e-08
1.6739e-09
7.72849e-08
1.52199e-09
7.67348e-08
1.35949e-09
7.62379e-08
1.19356e-09
7.58011e-08
1.00336e-09
7.54243e-08
8.07413e-10
7.51224e-08
5.64256e-10
7.48953e-08
3.05849e-10
7.47682e-08
-2.46437e-11
7.47537e-08
-4.41862e-10
7.48766e-08
-8.56618e-10
7.5218e-08
-1.89084e-09
7.58868e-08
-2.1983e-09
-7.23869e-09
7.62983e-08
1.90389e-07
1.14955e-07
1.91853e-07
1.00548e-07
1.90248e-07
6.78855e-08
1.86162e-07
5.33961e-08
1.80731e-07
4.31134e-08
1.74985e-07
3.5483e-08
1.69299e-07
3.01546e-08
1.63826e-07
2.60941e-08
1.58663e-07
2.27821e-08
1.53851e-07
2.00487e-08
1.49393e-07
1.77863e-08
1.45272e-07
1.58962e-08
1.41466e-07
1.42991e-08
1.37946e-07
1.29361e-08
1.34688e-07
1.17628e-08
1.31667e-07
1.07451e-08
1.28861e-07
9.85599e-09
1.26248e-07
9.07412e-09
1.23811e-07
8.38224e-09
1.21535e-07
7.7664e-09
1.19403e-07
7.21522e-09
1.17405e-07
6.71934e-09
1.15529e-07
6.27097e-09
1.13764e-07
5.86354e-09
1.12103e-07
5.49154e-09
1.10536e-07
5.15017e-09
1.09059e-07
4.83535e-09
1.07663e-07
4.54344e-09
1.06345e-07
4.27125e-09
1.051e-07
4.01592e-09
1.03923e-07
3.77474e-09
1.02811e-07
3.54539e-09
1.01762e-07
3.3252e-09
1.00773e-07
3.11239e-09
9.98423e-08
2.90353e-09
9.89693e-08
2.69789e-09
9.81536e-08
2.48956e-09
9.7395e-08
2.2806e-09
9.66958e-08
2.05868e-09
9.60564e-08
1.83298e-09
9.54832e-08
1.57658e-09
9.4977e-08
1.3136e-09
9.45509e-08
9.90359e-10
9.42079e-08
6.48806e-10
9.39689e-08
2.14429e-10
9.38515e-08
-3.2454e-10
9.38801e-08
-8.85207e-10
9.4118e-08
-2.12868e-09
9.46989e-08
-2.77923e-09
-7.55913e-09
9.50193e-08
1.95541e-07
1.07229e-07
1.98248e-07
9.78409e-08
1.98971e-07
6.71625e-08
1.97794e-07
5.45732e-08
1.95168e-07
4.57401e-08
1.91833e-07
3.88176e-08
1.8811e-07
3.38776e-08
1.8417e-07
3.00346e-08
1.8016e-07
2.67911e-08
1.76193e-07
2.40165e-08
1.72334e-07
2.1645e-08
1.68623e-07
1.9607e-08
1.65081e-07
1.78418e-08
1.61714e-07
1.63023e-08
1.58525e-07
1.49519e-08
1.55509e-07
1.37612e-08
1.52659e-07
1.27059e-08
1.49967e-07
1.17662e-08
1.47424e-07
1.09254e-08
1.45021e-07
1.01697e-08
1.42748e-07
9.4874e-09
1.40599e-07
8.86887e-09
1.38564e-07
8.30577e-09
1.36637e-07
7.79101e-09
1.3481e-07
7.31847e-09
1.33077e-07
6.8828e-09
1.31433e-07
6.47932e-09
1.29873e-07
6.10388e-09
1.28391e-07
5.75273e-09
1.26985e-07
5.42249e-09
1.25649e-07
5.10995e-09
1.24383e-07
4.8123e-09
1.23181e-07
4.52635e-09
1.22044e-07
4.24986e-09
1.20969e-07
3.97877e-09
1.19955e-07
3.71199e-09
1.19002e-07
3.44256e-09
1.1811e-07
3.17261e-09
1.17281e-07
2.88763e-09
1.16516e-07
2.59796e-09
1.1582e-07
2.27212e-09
1.15196e-07
1.93731e-09
1.14655e-07
1.5318e-09
1.14203e-07
1.10107e-09
1.13855e-07
5.62414e-10
1.13635e-07
-1.04618e-10
1.13564e-07
-8.14071e-10
1.13691e-07
-2.25565e-09
1.14157e-07
-3.24522e-09
-7.77628e-09
1.14374e-07
2.00848e-07
9.99651e-08
2.03777e-07
9.49123e-08
2.0533e-07
6.56099e-08
2.05648e-07
5.42549e-08
2.04825e-07
4.65625e-08
2.0335e-07
4.02931e-08
2.0141e-07
3.58181e-08
1.99088e-07
3.2356e-08
1.96491e-07
2.93881e-08
1.93721e-07
2.67868e-08
1.90858e-07
2.45081e-08
1.87962e-07
2.25027e-08
1.85078e-07
2.07258e-08
1.82238e-07
1.91427e-08
1.79463e-07
1.77266e-08
1.76769e-07
1.64555e-08
1.74164e-07
1.53107e-08
1.71654e-07
1.42763e-08
1.6924e-07
1.33386e-08
1.66924e-07
1.24858e-08
1.64704e-07
1.17076e-08
1.62578e-07
1.09953e-08
1.60542e-07
1.03411e-08
1.58595e-07
9.73835e-09
1.56732e-07
9.18109e-09
1.54951e-07
8.664e-09
1.53248e-07
8.18235e-09
1.5162e-07
7.73182e-09
1.50065e-07
7.30849e-09
1.48578e-07
6.90873e-09
1.47159e-07
6.52907e-09
1.45805e-07
6.16637e-09
1.44514e-07
5.81711e-09
1.43286e-07
5.47871e-09
1.42118e-07
5.14659e-09
1.4101e-07
4.81938e-09
1.39964e-07
4.48925e-09
1.38978e-07
4.15822e-09
1.38055e-07
3.81016e-09
1.37198e-07
3.45571e-09
1.36409e-07
3.06053e-09
1.35694e-07
2.65226e-09
1.35061e-07
2.16553e-09
1.34519e-07
1.64293e-09
1.34079e-07
1.00263e-09
1.33768e-07
2.05934e-10
1.33605e-07
-6.51517e-10
1.33624e-07
-2.27445e-09
1.33966e-07
-3.5871e-09
-7.89178e-09
1.34082e-07
2.06447e-07
9.30499e-08
2.09341e-07
9.2019e-08
2.11039e-07
6.39111e-08
2.11936e-07
5.33585e-08
2.12008e-07
4.64899e-08
2.11627e-07
4.06745e-08
2.10904e-07
3.65413e-08
2.09841e-07
3.34185e-08
2.08477e-07
3.07529e-08
2.06868e-07
2.83957e-08
2.0507e-07
2.63055e-08
2.03133e-07
2.44398e-08
2.01099e-07
2.27601e-08
1.99003e-07
2.12384e-08
1.96875e-07
1.98543e-08
1.94739e-07
1.85918e-08
1.92613e-07
1.74371e-08
1.9051e-07
1.63786e-08
1.88443e-07
1.5406e-08
1.86419e-07
1.45103e-08
1.84443e-07
1.36834e-08
1.8252e-07
1.29183e-08
1.80652e-07
1.22087e-08
1.78842e-07
1.15488e-08
1.77089e-07
1.09336e-08
1.75395e-07
1.03583e-08
1.73759e-07
9.8185e-09
1.7218e-07
9.31029e-09
1.70659e-07
8.82988e-09
1.69194e-07
8.3737e-09
1.67785e-07
7.93829e-09
1.6643e-07
7.52045e-09
1.65131e-07
7.11649e-09
1.63886e-07
6.72366e-09
1.62696e-07
6.33707e-09
1.6156e-07
5.95511e-09
1.6048e-07
5.56936e-09
1.59456e-07
5.18154e-09
1.58492e-07
4.77456e-09
1.57589e-07
4.35854e-09
1.56752e-07
3.89791e-09
1.55986e-07
3.41839e-09
1.55296e-07
2.85499e-09
1.54697e-07
2.24208e-09
1.54194e-07
1.50585e-09
1.53816e-07
5.83345e-10
1.53582e-07
-4.17378e-10
1.53507e-07
-2.19943e-09
1.53729e-07
-3.8084e-09
-7.91481e-09
1.53752e-07
2.12289e-07
8.64231e-08
2.15153e-07
8.91546e-08
2.16794e-07
6.22707e-08
2.17848e-07
5.23042e-08
2.18267e-07
4.60712e-08
2.18388e-07
4.05537e-08
2.18318e-07
3.66113e-08
2.18025e-07
3.37107e-08
2.17503e-07
3.12749e-08
2.1677e-07
2.91292e-08
2.15849e-07
2.72266e-08
2.14765e-07
2.55234e-08
2.13545e-07
2.39805e-08
2.12213e-07
2.25703e-08
2.10793e-07
2.12742e-08
2.09307e-07
2.00784e-08
2.07772e-07
1.89718e-08
2.06205e-07
1.79452e-08
2.04621e-07
1.69908e-08
2.03029e-07
1.61017e-08
2.01441e-07
1.52719e-08
1.99863e-07
1.4496e-08
1.98303e-07
1.37691e-08
1.96765e-07
1.30868e-08
1.95253e-07
1.24449e-08
1.93772e-07
1.18396e-08
1.92323e-07
1.12672e-08
1.90909e-07
1.07242e-08
1.89532e-07
1.02073e-08
1.88192e-07
9.71331e-09
1.86892e-07
9.2389e-09
1.85631e-07
8.78101e-09
1.84412e-07
8.33599e-09
1.83234e-07
7.90108e-09
1.821e-07
7.47125e-09
1.81011e-07
7.04471e-09
1.79967e-07
6.61272e-09
1.78972e-07
6.17663e-09
1.78028e-07
5.71885e-09
1.77138e-07
5.24845e-09
1.76306e-07
4.72998e-09
1.75539e-07
4.18542e-09
1.7484e-07
3.55331e-09
1.74226e-07
2.85614e-09
1.737e-07
2.03271e-09
1.73289e-07
9.9407e-10
1.73012e-07
-1.40952e-10
1.72868e-07
-2.05551e-09
1.72985e-07
-3.92461e-09
-7.86044e-09
1.7293e-07
2.1833e-07
8.00735e-08
2.21207e-07
8.62777e-08
2.22767e-07
6.07112e-08
2.23848e-07
5.12229e-08
2.24376e-07
4.5543e-08
2.24675e-07
4.02552e-08
2.2488e-07
3.64054e-08
2.24966e-07
3.3625e-08
2.24909e-07
3.13317e-08
2.2471e-07
2.93286e-08
2.24373e-07
2.7564e-08
2.23903e-07
2.59927e-08
2.23311e-07
2.45728e-08
2.22607e-07
2.32744e-08
2.21804e-07
2.20774e-08
2.20914e-07
2.09677e-08
2.19952e-07
1.99342e-08
2.18928e-07
1.89686e-08
2.17856e-07
1.80636e-08
2.16744e-07
1.72135e-08
2.15603e-07
1.64131e-08
2.1444e-07
1.56583e-08
2.13265e-07
1.4945e-08
2.12082e-07
1.42697e-08
2.10898e-07
1.36291e-08
2.09717e-07
1.30201e-08
2.08545e-07
1.24397e-08
2.07384e-07
1.18851e-08
2.06238e-07
1.13532e-08
2.0511e-07
1.08414e-08
2.04002e-07
1.03466e-08
2.02917e-07
9.8659e-09
2.01857e-07
9.39588e-09
2.00824e-07
8.93383e-09
1.99821e-07
8.47468e-09
1.98849e-07
8.01655e-09
1.97911e-07
7.55056e-09
1.9701e-07
7.0776e-09
1.96149e-07
6.5801e-09
1.95332e-07
6.06553e-09
1.94562e-07
5.49974e-09
1.93848e-07
4.89965e-09
1.93192e-07
4.20957e-09
1.9261e-07
3.43818e-09
1.92104e-07
2.53893e-09
1.91699e-07
1.39892e-09
1.91415e-07
1.42535e-10
1.91235e-07
-1.8749e-09
1.91271e-07
-3.96098e-09
-7.74939e-09
1.9116e-07
2.24559e-07
7.40077e-08
2.27471e-07
8.33653e-08
2.28963e-07
5.92192e-08
2.3005e-07
5.01363e-08
2.3062e-07
4.49735e-08
2.30967e-07
3.9908e-08
2.31262e-07
3.611e-08
2.31496e-07
3.33914e-08
2.31648e-07
3.11799e-08
2.31715e-07
2.92608e-08
2.31699e-07
2.75809e-08
2.31595e-07
2.60961e-08
2.31405e-07
2.47632e-08
2.31129e-07
2.35499e-08
2.30772e-07
2.24344e-08
2.30339e-07
2.14012e-08
2.29835e-07
2.04383e-08
2.29266e-07
1.95367e-08
2.28641e-07
1.8689e-08
2.27965e-07
1.78893e-08
2.27246e-07
1.71326e-08
2.26489e-07
1.64149e-08
2.25702e-07
1.57325e-08
2.24889e-07
1.50825e-08
2.24056e-07
1.44618e-08
2.23208e-07
1.38678e-08
2.2235e-07
1.32979e-08
2.21486e-07
1.27496e-08
2.20619e-07
1.22204e-08
2.19752e-07
1.17078e-08
2.1889e-07
1.12089e-08
2.18034e-07
1.07212e-08
2.17189e-07
1.02413e-08
2.16356e-07
9.76658e-09
2.15539e-07
9.29198e-09
2.1474e-07
8.81555e-09
2.13962e-07
8.32839e-09
2.13209e-07
7.83085e-09
2.12483e-07
7.30573e-09
2.1179e-07
6.75856e-09
2.11133e-07
6.15734e-09
2.10519e-07
5.5131e-09
2.09951e-07
4.7773e-09
2.09445e-07
3.94438e-09
2.09002e-07
2.9823e-09
2.08642e-07
1.75898e-09
2.08386e-07
3.98068e-10
2.08204e-07
-1.69239e-09
2.08191e-07
-3.94822e-09
-7.60612e-09
2.08048e-07
2.3098e-07
6.82339e-08
2.33936e-07
8.04091e-08
2.35369e-07
5.77863e-08
2.36462e-07
4.90434e-08
2.37065e-07
4.43702e-08
2.37428e-07
3.95453e-08
2.37745e-07
3.57929e-08
2.38024e-07
3.31117e-08
2.38252e-07
3.09525e-08
2.38429e-07
2.90839e-08
2.38557e-07
2.74523e-08
2.38636e-07
2.60178e-08
2.38661e-07
2.47377e-08
2.38632e-07
2.3579e-08
2.38548e-07
2.25187e-08
2.38409e-07
2.15403e-08
2.38216e-07
2.06311e-08
2.37971e-07
1.97812e-08
2.37678e-07
1.89825e-08
2.37338e-07
1.82287e-08
2.36957e-07
1.75145e-08
2.36536e-07
1.68355e-08
2.3608e-07
1.61882e-08
2.35593e-07
1.55692e-08
2.35079e-07
1.49758e-08
2.34542e-07
1.44055e-08
2.33984e-07
1.38556e-08
2.3341e-07
1.3324e-08
2.32822e-07
1.28081e-08
2.32224e-07
1.23057e-08
2.31619e-07
1.1814e-08
2.3101e-07
1.13306e-08
2.30399e-07
1.08521e-08
2.29789e-07
1.03759e-08
2.29184e-07
9.89711e-09
2.28586e-07
9.4135e-09
2.27999e-07
8.91625e-09
2.27424e-07
8.40505e-09
2.26867e-07
7.86339e-09
2.26331e-07
7.29455e-09
2.25819e-07
6.66927e-09
2.25339e-07
5.99234e-09
2.24894e-07
5.22288e-09
2.24496e-07
4.34195e-09
2.24148e-07
3.33024e-09
2.23864e-07
2.04293e-09
2.23666e-07
5.96342e-10
2.23513e-07
-1.53893e-09
2.23482e-07
-3.91701e-09
-7.45524e-09
2.23331e-07
2.37601e-07
6.27578e-08
2.40604e-07
7.74064e-08
2.41979e-07
5.64104e-08
2.43077e-07
4.79456e-08
2.43718e-07
4.37297e-08
2.44094e-07
3.9169e-08
2.44417e-07
3.54703e-08
2.44709e-07
3.28195e-08
2.44959e-07
3.07022e-08
2.45173e-07
2.88702e-08
2.45356e-07
2.72693e-08
2.45509e-07
2.58644e-08
2.45632e-07
2.4615e-08
2.45723e-07
2.34883e-08
2.4578e-07
2.24614e-08
2.45803e-07
2.15173e-08
2.45791e-07
2.0643e-08
2.45744e-07
1.98281e-08
2.45663e-07
1.90643e-08
2.45547e-07
1.83446e-08
2.45398e-07
1.76634e-08
2.45217e-07
1.70161e-08
2.45007e-07
1.63986e-08
2.44768e-07
1.58076e-08
2.44504e-07
1.52402e-08
2.44216e-07
1.46935e-08
2.43907e-07
1.41651e-08
2.43578e-07
1.36527e-08
2.43232e-07
1.31537e-08
2.42872e-07
1.26659e-08
2.42499e-07
1.21865e-08
2.42117e-07
1.17131e-08
2.41727e-07
1.12422e-08
2.41331e-07
1.07713e-08
2.40933e-07
1.02953e-08
2.40535e-07
9.81188e-09
2.40139e-07
9.31226e-09
2.39748e-07
8.79538e-09
2.39366e-07
8.24558e-09
2.38997e-07
7.66372e-09
2.38643e-07
7.02362e-09
2.38311e-07
6.32387e-09
2.38003e-07
5.53105e-09
2.3773e-07
4.61468e-09
2.37495e-07
3.56534e-09
2.37306e-07
2.23235e-09
2.37183e-07
7.19108e-10
2.3708e-07
-1.43633e-09
2.37056e-07
-3.89241e-09
-7.31722e-09
2.36918e-07
2.44431e-07
5.75831e-08
2.47473e-07
7.43641e-08
2.488e-07
5.50835e-08
2.49898e-07
4.68474e-08
2.50578e-07
4.30502e-08
2.50971e-07
3.87754e-08
2.51299e-07
3.5143e-08
2.51597e-07
3.25216e-08
2.51855e-07
3.0444e-08
2.52079e-07
2.86455e-08
2.5228e-07
2.70691e-08
2.52459e-07
2.5685e-08
2.52619e-07
2.44555e-08
2.52758e-07
2.33486e-08
2.52878e-07
2.23416e-08
2.52977e-07
2.14179e-08
2.53056e-07
2.05646e-08
2.53113e-07
1.97713e-08
2.53148e-07
1.90293e-08
2.5316e-07
1.83317e-08
2.53151e-07
1.76727e-08
2.5312e-07
1.70472e-08
2.53067e-07
1.64511e-08
2.52994e-07
1.58809e-08
2.52901e-07
1.53333e-08
2.52789e-07
1.48056e-08
2.52659e-07
1.4295e-08
2.52513e-07
1.37991e-08
2.52351e-07
1.33154e-08
2.52175e-07
1.28414e-08
2.51987e-07
1.23745e-08
2.51789e-07
1.19119e-08
2.51581e-07
1.14503e-08
2.51365e-07
1.09868e-08
2.51144e-07
1.05165e-08
2.50919e-07
1.00365e-08
2.50693e-07
9.53851e-09
2.50468e-07
9.02038e-09
2.50246e-07
8.46749e-09
2.50032e-07
7.87824e-09
2.49826e-07
7.22955e-09
2.49635e-07
6.51428e-09
2.49461e-07
5.70566e-09
2.49311e-07
4.76417e-09
2.4919e-07
3.6869e-09
2.49098e-07
2.32388e-09
2.49056e-07
7.61491e-10
2.49014e-07
-1.3943e-09
2.49011e-07
-3.89013e-09
-7.20507e-09
2.48899e-07
2.51478e-07
5.27115e-08
2.54551e-07
7.12915e-08
2.55839e-07
5.37951e-08
2.56932e-07
4.57543e-08
2.57649e-07
4.2333e-08
2.58063e-07
3.83616e-08
2.58396e-07
3.48098e-08
2.587e-07
3.22184e-08
2.58963e-07
3.01805e-08
2.59193e-07
2.84161e-08
2.59399e-07
2.68633e-08
2.59586e-07
2.54974e-08
2.59758e-07
2.42838e-08
2.59915e-07
2.31916e-08
2.60058e-07
2.21983e-08
2.60188e-07
2.12879e-08
2.60305e-07
2.04477e-08
2.60409e-07
1.96675e-08
2.60499e-07
1.89388e-08
2.60576e-07
1.82546e-08
2.6064e-07
1.76091e-08
2.6069e-07
1.69972e-08
2.60726e-07
1.64147e-08
2.60749e-07
1.58579e-08
2.60759e-07
1.53235e-08
2.60756e-07
1.48085e-08
2.60741e-07
1.43103e-08
2.60714e-07
1.38262e-08
2.60676e-07
1.33537e-08
2.60627e-07
1.28902e-08
2.60569e-07
1.24328e-08
2.60501e-07
1.1979e-08
2.60427e-07
1.1525e-08
2.60345e-07
1.10681e-08
2.60259e-07
1.06031e-08
2.60168e-07
1.0127e-08
2.60075e-07
9.63138e-09
2.59982e-07
9.11341e-09
2.5989e-07
8.55947e-09
2.59803e-07
7.96554e-09
2.59721e-07
7.31152e-09
2.5965e-07
6.58531e-09
2.5959e-07
5.76555e-09
2.59548e-07
4.80646e-09
2.59526e-07
3.70837e-09
2.59523e-07
2.32737e-09
2.59554e-07
7.30828e-10
2.5957e-07
-1.41079e-09
2.59596e-07
-3.91553e-09
-7.1231e-09
2.59514e-07
2.58751e-07
4.81433e-08
2.61844e-07
6.81987e-08
2.63104e-07
5.25347e-08
2.64187e-07
4.46715e-08
2.6494e-07
4.15805e-08
2.65376e-07
3.79255e-08
2.65716e-07
3.44696e-08
2.66025e-07
3.19093e-08
2.66295e-07
2.99112e-08
2.66528e-07
2.81825e-08
2.66737e-07
2.66544e-08
2.66928e-07
2.53065e-08
2.67104e-07
2.41081e-08
2.67266e-07
2.3029e-08
2.67417e-07
2.20473e-08
2.67558e-07
2.11472e-08
2.67689e-07
2.03165e-08
2.67811e-07
1.95453e-08
2.67925e-07
1.88253e-08
2.6803e-07
1.81497e-08
2.68126e-07
1.75125e-08
2.68215e-07
1.69088e-08
2.68295e-07
1.63344e-08
2.68367e-07
1.57856e-08
2.68432e-07
1.52591e-08
2.68488e-07
1.47518e-08
2.68538e-07
1.42611e-08
2.6858e-07
1.37842e-08
2.68615e-07
1.33186e-08
2.68643e-07
1.28615e-08
2.68666e-07
1.24103e-08
2.68683e-07
1.19619e-08
2.68695e-07
1.1513e-08
2.68703e-07
1.10603e-08
2.68707e-07
1.05986e-08
2.68709e-07
1.01248e-08
2.6871e-07
9.63063e-09
2.68711e-07
9.1123e-09
2.68713e-07
8.55725e-09
2.6872e-07
7.95933e-09
2.6873e-07
7.30099e-09
2.68749e-07
6.56616e-09
2.68777e-07
5.73757e-09
2.68818e-07
4.76582e-09
2.68875e-07
3.65169e-09
2.68941e-07
2.26126e-09
2.69029e-07
6.42663e-10
2.69093e-07
-1.47501e-09
2.69143e-07
-3.96543e-09
-7.06797e-09
2.69088e-07
2.66259e-07
4.38767e-08
2.69361e-07
6.50962e-08
2.70604e-07
5.12917e-08
2.71673e-07
4.36032e-08
2.72457e-07
4.07961e-08
2.72917e-07
3.74654e-08
2.73265e-07
3.41214e-08
2.7358e-07
3.15943e-08
2.73856e-07
2.96357e-08
2.74094e-07
2.79444e-08
2.74306e-07
2.64423e-08
2.74499e-07
2.51132e-08
2.74677e-07
2.39301e-08
2.74842e-07
2.2864e-08
2.74996e-07
2.18934e-08
2.7514e-07
2.10028e-08
2.75276e-07
2.01805e-08
2.75405e-07
1.94168e-08
2.75527e-07
1.87036e-08
2.75642e-07
1.80341e-08
2.75752e-07
1.74027e-08
2.75856e-07
1.68045e-08
2.75955e-07
1.62353e-08
2.7605e-07
1.56913e-08
2.76139e-07
1.51694e-08
2.76225e-07
1.46664e-08
2.76306e-07
1.41798e-08
2.76383e-07
1.37068e-08
2.76457e-07
1.32447e-08
2.76528e-07
1.2791e-08
2.76595e-07
1.23428e-08
2.7666e-07
1.18971e-08
2.76723e-07
1.14504e-08
2.76784e-07
1.09994e-08
2.76843e-07
1.0539e-08
2.76903e-07
1.00654e-08
2.76962e-07
9.57102e-09
2.77023e-07
9.05101e-09
2.77087e-07
8.49385e-09
2.77155e-07
7.89149e-09
2.77227e-07
7.22858e-09
2.77307e-07
6.48609e-09
2.77395e-07
5.64947e-09
2.77493e-07
4.66807e-09
2.77604e-07
3.54104e-09
2.77718e-07
2.14686e-09
2.77845e-07
5.15798e-10
2.77942e-07
-1.57194e-09
2.78008e-07
-4.03139e-09
-7.03143e-09
2.77971e-07
2.7401e-07
3.99082e-08
2.77111e-07
6.1995e-08
2.78347e-07
5.00559e-08
2.79397e-07
4.25532e-08
2.80209e-07
3.99838e-08
2.80695e-07
3.69798e-08
2.81052e-07
3.37645e-08
2.81372e-07
3.12736e-08
2.81654e-07
2.9354e-08
2.81897e-07
2.77012e-08
2.82113e-07
2.62268e-08
2.82309e-07
2.49173e-08
2.82489e-07
2.375e-08
2.82656e-07
2.26972e-08
2.82811e-07
2.17379e-08
2.82957e-07
2.08568e-08
2.83095e-07
2.00427e-08
2.83226e-07
1.92861e-08
2.8335e-07
1.8579e-08
2.83469e-07
1.7915e-08
2.83584e-07
1.72884e-08
2.83694e-07
1.66944e-08
2.838e-07
1.61289e-08
2.83903e-07
1.55882e-08
2.84004e-07
1.50692e-08
2.84101e-07
1.45688e-08
2.84197e-07
1.40844e-08
2.8429e-07
1.36132e-08
2.84382e-07
1.31528e-08
2.84473e-07
1.27004e-08
2.84563e-07
1.22531e-08
2.84652e-07
1.1808e-08
2.84741e-07
1.13616e-08
2.8483e-07
1.09104e-08
2.84919e-07
1.04493e-08
2.8501e-07
9.97444e-09
2.85103e-07
9.47824e-09
2.85199e-07
8.95525e-09
2.85298e-07
8.39478e-09
2.85402e-07
7.78731e-09
2.85511e-07
7.11915e-09
2.85628e-07
6.36931e-09
2.85753e-07
5.52481e-09
2.85885e-07
4.53564e-09
2.86028e-07
3.39799e-09
2.86171e-07
2.00379e-09
2.86319e-07
3.67887e-10
2.86434e-07
-1.68636e-09
2.86506e-07
-4.1034e-09
-7.00339e-09
2.86478e-07
2.82013e-07
3.62325e-08
2.85102e-07
5.89066e-08
2.8634e-07
4.88178e-08
2.87369e-07
4.1524e-08
2.88204e-07
3.91483e-08
2.88717e-07
3.64673e-08
2.89084e-07
3.33974e-08
2.8941e-07
3.09471e-08
2.89699e-07
2.90657e-08
2.89947e-07
2.74527e-08
2.90166e-07
2.60075e-08
2.90365e-07
2.47185e-08
2.90548e-07
2.35675e-08
2.90716e-07
2.25286e-08
2.90873e-07
2.15808e-08
2.91021e-07
2.07095e-08
2.9116e-07
1.99037e-08
2.91291e-07
1.91542e-08
2.91417e-07
1.84532e-08
2.91538e-07
1.77945e-08
2.91654e-07
1.71724e-08
2.91766e-07
1.65822e-08
2.91875e-07
1.60199e-08
2.91981e-07
1.5482e-08
2.92085e-07
1.49651e-08
2.92188e-07
1.44665e-08
2.92289e-07
1.39833e-08
2.92389e-07
1.35131e-08
2.92488e-07
1.30532e-08
2.92588e-07
1.26009e-08
2.92687e-07
1.21535e-08
2.92788e-07
1.17079e-08
2.92889e-07
1.12605e-08
2.92991e-07
1.08079e-08
2.93095e-07
1.03451e-08
2.93202e-07
9.86775e-09
2.93311e-07
9.36869e-09
2.93425e-07
8.8418e-09
2.93543e-07
8.27714e-09
2.93666e-07
7.66404e-09
2.93795e-07
6.99004e-09
2.93931e-07
6.23308e-09
2.94075e-07
5.38079e-09
2.94226e-07
4.3852e-09
2.94385e-07
3.23895e-09
2.94541e-07
1.84735e-09
2.94696e-07
2.12924e-10
2.94815e-07
-1.80561e-09
2.94884e-07
-4.17243e-09
-6.97447e-09
2.94855e-07
2.90279e-07
3.28425e-08
2.93343e-07
5.58428e-08
2.94592e-07
4.75685e-08
2.95598e-07
4.05175e-08
2.96452e-07
3.8295e-08
2.96992e-07
3.5927e-08
2.97371e-07
3.30189e-08
2.97703e-07
3.0615e-08
2.97997e-07
2.8771e-08
2.98252e-07
2.71985e-08
2.98475e-07
2.57841e-08
2.98677e-07
2.45167e-08
2.98862e-07
2.33826e-08
2.99033e-07
2.23578e-08
2.99191e-07
2.1422e-08
2.9934e-07
2.05609e-08
2.9948e-07
1.97636e-08
2.99613e-07
1.90213e-08
2.9974e-07
1.83266e-08
2.99861e-07
1.76731e-08
2.99978e-07
1.70555e-08
3.00091e-07
1.64691e-08
3.00201e-07
1.591e-08
3.00308e-07
1.53745e-08
3.00414e-07
1.48596e-08
3.00518e-07
1.43624e-08
3.00621e-07
1.38802e-08
3.00724e-07
1.34104e-08
3.00826e-07
1.29506e-08
3.00929e-07
1.2498e-08
3.01033e-07
1.20498e-08
3.01138e-07
1.16032e-08
3.01244e-07
1.11543e-08
3.01352e-07
1.06997e-08
3.01463e-07
1.02345e-08
3.01577e-07
9.75403e-09
3.01694e-07
9.25152e-09
3.01815e-07
8.72026e-09
3.01942e-07
8.15091e-09
3.02074e-07
7.53201e-09
3.02212e-07
6.85189e-09
3.02357e-07
6.08818e-09
3.02509e-07
5.22844e-09
3.02667e-07
4.22764e-09
3.02831e-07
3.07486e-09
3.0299e-07
1.68803e-09
3.03142e-07
6.05401e-11
3.03257e-07
-1.9206e-09
3.03317e-07
-4.23175e-09
-6.93729e-09
3.03279e-07
2.98816e-07
2.97294e-08
3.01843e-07
5.28155e-08
3.03111e-07
4.63e-08
3.04094e-07
3.95346e-08
3.0496e-07
3.74291e-08
3.05529e-07
3.53584e-08
3.0592e-07
3.26275e-08
3.06258e-07
3.0277e-08
3.06559e-07
2.84698e-08
3.0682e-07
2.69382e-08
3.07047e-07
2.55563e-08
3.07253e-07
2.43116e-08
3.0744e-07
2.31949e-08
3.07613e-07
2.21848e-08
3.07774e-07
2.12614e-08
3.07924e-07
2.04107e-08
3.08065e-07
1.96221e-08
3.08199e-07
1.88873e-08
3.08327e-07
1.8199e-08
3.08449e-07
1.75509e-08
3.08567e-07
1.69379e-08
3.0868e-07
1.63554e-08
3.08791e-07
1.57994e-08
3.08899e-07
1.52664e-08
3.09005e-07
1.47534e-08
3.0911e-07
1.42575e-08
3.09214e-07
1.37761e-08
3.09318e-07
1.33067e-08
3.09422e-07
1.28468e-08
3.09526e-07
1.23937e-08
3.09632e-07
1.19446e-08
3.09738e-07
1.14965e-08
3.09847e-07
1.10459e-08
3.09957e-07
1.0589e-08
3.10071e-07
1.01212e-08
3.10187e-07
9.63743e-09
3.10307e-07
9.13123e-09
3.10432e-07
8.59547e-09
3.10562e-07
8.02127e-09
3.10697e-07
7.39668e-09
3.10839e-07
6.7105e-09
3.10986e-07
5.94058e-09
3.11141e-07
5.07407e-09
3.11299e-07
4.06931e-09
3.11461e-07
2.91225e-09
3.11617e-07
1.53225e-09
3.11761e-07
-8.34281e-11
3.11866e-07
-2.0255e-09
3.11911e-07
-4.27701e-09
-6.88681e-09
3.11861e-07
3.07634e-07
2.68827e-08
3.10613e-07
4.98369e-08
3.11907e-07
4.50056e-08
3.12866e-07
3.85752e-08
3.13739e-07
3.65561e-08
3.14336e-07
3.4762e-08
3.14742e-07
3.22214e-08
3.15086e-07
2.9933e-08
3.15394e-07
2.81622e-08
3.1566e-07
2.66717e-08
3.15893e-07
2.53238e-08
3.16101e-07
2.4103e-08
3.16292e-07
2.30044e-08
3.16467e-07
2.20094e-08
3.1663e-07
2.10988e-08
3.16782e-07
2.02588e-08
3.16925e-07
1.94793e-08
3.1706e-07
1.87522e-08
3.17188e-07
1.80704e-08
3.17312e-07
1.74279e-08
3.1743e-07
1.68196e-08
3.17544e-07
1.62409e-08
3.17656e-07
1.56881e-08
3.17764e-07
1.51577e-08
3.17871e-07
1.46465e-08
3.17977e-07
1.4152e-08
3.18081e-07
1.36714e-08
3.18186e-07
1.32023e-08
3.1829e-07
1.27422e-08
3.18395e-07
1.22886e-08
3.18501e-07
1.18385e-08
3.18609e-07
1.1389e-08
3.18718e-07
1.09365e-08
3.1883e-07
1.04774e-08
3.18944e-07
1.00068e-08
3.19062e-07
9.5197e-09
3.19184e-07
9.00979e-09
3.19309e-07
8.46962e-09
3.1944e-07
7.89062e-09
3.19576e-07
7.26065e-09
3.19718e-07
6.56872e-09
3.19865e-07
5.79333e-09
3.20018e-07
4.92098e-09
3.20174e-07
3.91361e-09
3.20331e-07
2.75472e-09
3.2048e-07
1.38367e-09
3.20612e-07
-2.15841e-10
3.20704e-07
-2.11693e-09
3.20733e-07
-4.30572e-09
-6.81991e-09
3.20666e-07
3.16744e-07
2.42902e-08
3.19662e-07
4.6919e-08
3.20987e-07
4.36801e-08
3.21924e-07
3.76383e-08
3.22799e-07
3.56812e-08
3.23422e-07
3.41386e-08
3.23845e-07
3.17992e-08
3.24195e-07
2.95825e-08
3.24509e-07
2.78482e-08
3.24782e-07
2.63986e-08
3.2502e-07
2.50861e-08
3.25232e-07
2.38905e-08
3.25426e-07
2.28107e-08
3.25604e-07
2.18313e-08
3.25769e-07
2.09339e-08
3.25923e-07
2.0105e-08
3.26067e-07
1.93349e-08
3.26204e-07
1.86157e-08
3.26334e-07
1.79406e-08
3.26458e-07
1.73038e-08
3.26577e-07
1.67003e-08
3.26692e-07
1.61257e-08
3.26804e-07
1.55761e-08
3.26914e-07
1.50482e-08
3.27021e-07
1.45391e-08
3.27127e-07
1.40459e-08
3.27232e-07
1.35661e-08
3.27337e-07
1.30974e-08
3.27442e-07
1.26371e-08
3.27548e-07
1.21829e-08
3.27655e-07
1.17318e-08
3.27763e-07
1.12809e-08
3.27873e-07
1.08266e-08
3.27985e-07
1.03651e-08
3.281e-07
9.89181e-09
3.28218e-07
9.40152e-09
3.2834e-07
8.88797e-09
3.28466e-07
8.34359e-09
3.28597e-07
7.76002e-09
3.28732e-07
7.1251e-09
3.28873e-07
6.42791e-09
3.29019e-07
5.64787e-09
3.29169e-07
4.77086e-09
3.2932e-07
3.76233e-09
3.29471e-07
2.60413e-09
3.2961e-07
1.24427e-09
3.29729e-07
-3.35082e-10
3.29805e-07
-2.19309e-09
3.29816e-07
-4.31662e-09
-6.73489e-09
3.29731e-07
3.26154e-07
2.19387e-08
3.29e-07
4.40734e-08
3.3036e-07
4.23196e-08
3.31277e-07
3.67218e-08
3.32149e-07
3.4809e-08
3.32797e-07
3.349e-08
3.33237e-07
3.13593e-08
3.33595e-07
2.92249e-08
3.33915e-07
2.7528e-08
3.34195e-07
2.61187e-08
3.34438e-07
2.48429e-08
3.34655e-07
2.36739e-08
3.34852e-07
2.26137e-08
3.35033e-07
2.16503e-08
3.352e-07
2.07665e-08
3.35356e-07
1.99491e-08
3.35502e-07
1.91887e-08
3.3564e-07
1.84776e-08
3.35771e-07
1.78095e-08
3.35897e-07
1.71786e-08
3.36017e-07
1.65801e-08
3.36133e-07
1.60095e-08
3.36246e-07
1.54633e-08
3.36356e-07
1.49381e-08
3.36464e-07
1.44309e-08
3.36571e-07
1.39391e-08
3.36677e-07
1.34602e-08
3.36782e-07
1.29918e-08
3.36888e-07