/*--------------------------------*- C++ -*----------------------------------*\
  =========                 |
  \\      /  F ield         | OpenFOAM: The Open Source CFD Toolbox
   \\    /   O peration     | Website:  https://openfoam.org
    \\  /    A nd           | Version:  7
     \\/     M anipulation  |
\*---------------------------------------------------------------------------*/
FoamFile
{
    version     2.0;
    format      ascii;
    class       surfaceScalarField;
    location    "0.5";
    object      phi_0;
}
// * * * * * * * * * * * * * * * * * * * * * * * * * * * * * * * * * * * * * //

dimensions      [0 3 -1 0 0 0 0];

internalField   nonuniform List<scalar> 
139350
(
6.45933e-08
9.20382e-08
3.19534e-08
3.26399e-08
2.30643e-08
8.88907e-09
1.95722e-08
3.49205e-09
1.76229e-08
1.94934e-09
1.61979e-08
1.42502e-09
1.50675e-08
1.13036e-09
1.41563e-08
9.11207e-10
1.34067e-08
7.49607e-10
1.27756e-08
6.31126e-10
1.22341e-08
5.4145e-10
1.17631e-08
4.71098e-10
1.13486e-08
4.14454e-10
1.09806e-08
3.67991e-10
1.06513e-08
3.29303e-10
1.03546e-08
2.96669e-10
1.00858e-08
2.68824e-10
9.84099e-09
2.44818e-10
9.61707e-09
2.23927e-10
9.41147e-09
2.05592e-10
9.2221e-09
1.89372e-10
9.04718e-09
1.74916e-10
8.88524e-09
1.6194e-10
8.73503e-09
1.50211e-10
8.5955e-09
1.39535e-10
8.46575e-09
1.29749e-10
8.34504e-09
1.20711e-10
8.23274e-09
1.12299e-10
8.12834e-09
1.044e-10
8.03142e-09
9.69202e-11
7.94167e-09
8.97506e-11
7.85885e-09
8.28231e-11
7.78284e-09
7.60087e-11
7.71357e-09
6.92666e-11
7.65116e-09
6.24147e-11
7.59571e-09
5.54444e-11
7.54762e-09
4.80882e-11
7.50729e-09
4.03299e-11
7.47542e-09
3.18724e-11
7.45301e-09
2.24114e-11
7.4409e-09
1.21038e-11
7.44175e-09
-8.46343e-13
7.45559e-09
-1.38358e-11
7.48987e-09
-3.42787e-11
7.53993e-09
-5.0069e-11
7.62885e-09
-8.89141e-11
7.72933e-09
-1.00479e-10
7.94388e-09
-2.14548e-10
7.93123e-09
1.26463e-11
-4.06201e-09
1.19932e-08
1.26027e-07
1.27455e-07
9.12676e-08
6.73992e-08
7.19513e-08
2.82053e-08
6.12299e-08
1.42135e-08
5.47895e-08
8.3897e-09
5.03018e-08
5.91269e-09
4.6824e-08
4.60823e-09
4.40144e-08
3.72075e-09
4.1694e-08
3.06998e-09
3.97382e-08
2.58696e-09
3.80599e-08
2.21977e-09
3.65991e-08
1.93188e-09
3.53133e-08
1.7003e-09
3.41708e-08
1.51041e-09
3.31478e-08
1.35231e-09
3.22255e-08
1.21896e-09
3.13892e-08
1.10518e-09
3.06269e-08
1.00711e-09
2.9929e-08
9.21795e-10
2.92877e-08
8.46953e-10
2.86962e-08
7.8079e-10
2.81493e-08
7.21878e-10
2.76422e-08
6.69061e-10
2.7171e-08
6.21395e-10
2.67324e-08
5.78094e-10
2.63237e-08
5.38499e-10
2.59423e-08
5.0204e-10
2.55864e-08
4.68232e-10
2.52542e-08
4.36629e-10
2.49442e-08
4.06859e-10
2.46555e-08
3.78523e-10
2.4387e-08
3.5133e-10
2.41381e-08
3.24847e-10
2.39085e-08
2.98874e-10
2.36981e-08
2.72812e-10
2.35069e-08
2.46609e-10
2.33357e-08
2.19286e-10
2.31851e-08
1.91028e-10
2.30567e-08
1.60214e-10
2.29519e-08
1.27195e-10
2.28743e-08
8.97279e-11
2.28263e-08
4.71596e-11
2.2814e-08
-1.56594e-12
2.28438e-08
-6.40156e-11
2.29224e-08
-1.28723e-10
2.30743e-08
-2.40815e-10
2.328e-08
-3.06124e-10
2.37093e-08
-6.43857e-10
2.39921e-08
-2.70159e-10
-5.635e-09
2.55651e-08
1.58808e-07
1.35051e-07
1.36499e-07
8.97086e-08
1.17503e-07
4.72005e-08
1.03333e-07
2.83837e-08
9.33346e-08
1.83882e-08
8.60413e-08
1.3206e-08
8.03442e-08
1.03054e-08
7.57018e-08
8.3632e-09
7.18319e-08
6.93982e-09
6.85479e-08
5.87094e-09
6.57168e-08
5.05093e-09
6.32438e-08
4.40488e-09
6.10605e-08
3.8836e-09
5.91158e-08
3.45511e-09
5.73705e-08
3.09758e-09
5.5794e-08
2.79545e-09
5.43619e-08
2.53729e-09
5.30545e-08
2.3145e-09
5.18558e-08
2.12051e-09
5.07526e-08
1.95021e-09
4.97338e-08
1.79959e-09
4.87902e-08
1.66546e-09
4.7914e-08
1.54521e-09
4.70987e-08
1.43674e-09
4.63385e-08
1.33827e-09
4.56287e-08
1.24831e-09
4.49651e-08
1.16561e-09
4.43443e-08
1.08908e-09
4.37632e-08
1.01772e-09
4.32193e-08
9.50707e-10
4.27107e-08
8.87193e-10
4.22355e-08
8.26514e-10
4.17925e-08
7.67794e-10
4.13809e-08
7.10556e-10
4.10001e-08
6.53613e-10
4.06498e-08
5.96827e-10
4.03309e-08
5.38175e-10
4.00437e-08
4.78278e-10
3.97906e-08
4.13264e-10
3.95725e-08
3.45307e-10
3.93952e-08
2.67052e-10
3.92595e-08
1.82848e-10
3.91772e-08
8.07464e-11
3.91501e-08
-3.68707e-11
3.91976e-08
-1.7624e-10
3.93351e-08
-3.78364e-10
3.95649e-08
-5.35853e-10
4.004e-08
-1.11896e-09
4.06083e-08
-8.38505e-10
-6.33727e-09
4.13106e-08
1.75664e-07
1.30902e-07
1.65598e-07
9.97752e-08
1.52732e-07
6.00661e-08
1.40141e-07
4.09747e-08
1.29461e-07
2.90681e-08
1.20829e-07
2.18388e-08
1.13727e-07
1.74067e-08
1.07757e-07
1.43333e-08
1.02667e-07
1.20298e-08
9.82753e-08
1.02628e-08
9.4442e-08
8.88428e-09
9.10617e-08
7.78513e-09
8.80548e-08
6.89053e-09
8.53598e-08
6.15009e-09
8.29286e-08
5.5288e-09
8.07227e-08
5.00132e-09
7.87112e-08
4.54883e-09
7.68687e-08
4.15704e-09
7.51742e-08
3.81496e-09
7.36105e-08
3.51397e-09
7.21628e-08
3.24726e-09
7.08189e-08
3.00939e-09
6.95682e-08
2.7959e-09
6.84018e-08
2.60314e-09
6.73119e-08
2.42809e-09
6.62921e-08
2.26817e-09
6.53365e-08
2.12119e-09
6.44403e-08
1.98526e-09
6.35993e-08
1.85871e-09
6.281e-08
1.74007e-09
6.20693e-08
1.62792e-09
6.13747e-08
1.52109e-09
6.07243e-08
1.41817e-09
6.01166e-08
1.31829e-09
5.95506e-08
1.21956e-09
5.90257e-08
1.12171e-09
5.85425e-08
1.02145e-09
5.81008e-08
9.1997e-10
5.77034e-08
8.1059e-10
5.73508e-08
6.97961e-10
5.70497e-08
5.68105e-10
5.68001e-08
4.32446e-10
5.66166e-08
2.64323e-10
5.64985e-08
8.12087e-11
5.64712e-08
-1.48974e-10
5.65461e-08
-4.53211e-10
5.67406e-08
-7.3035e-10
5.71675e-08
-1.54591e-09
5.7855e-08
-1.526e-09
-6.82745e-09
5.83452e-08
1.8456e-07
1.23127e-07
1.82323e-07
1.02013e-07
1.76109e-07
6.62802e-08
1.67773e-07
4.93107e-08
1.59159e-07
3.76821e-08
1.5126e-07
2.97377e-08
1.44198e-07
2.44684e-08
1.3791e-07
2.06216e-08
1.32321e-07
1.76188e-08
1.27347e-07
1.52366e-08
1.22903e-07
1.33284e-08
1.18912e-07
1.17759e-08
1.1531e-07
1.04925e-08
1.12043e-07
9.41686e-09
1.09067e-07
8.50496e-09
1.06344e-07
7.7241e-09
1.03844e-07
7.0494e-09
1.01539e-07
6.46164e-09
9.94083e-08
5.94574e-09
9.74325e-08
5.4898e-09
9.55955e-08
5.08424e-09
9.38836e-08
4.72134e-09
9.22847e-08
4.39474e-09
9.07887e-08
4.09919e-09
8.93865e-08
3.83028e-09
8.80704e-08
3.58427e-09
8.68336e-08
3.35795e-09
8.56703e-08
3.14853e-09
8.45755e-08
2.95356e-09
8.35447e-08
2.77085e-09
8.25743e-08
2.59834e-09
8.16611e-08
2.43428e-09
8.08026e-08
2.27664e-09
7.99968e-08
2.1241e-09
7.92424e-08
1.974e-09
7.85382e-08
1.82588e-09
7.78846e-08
1.6751e-09
7.72811e-08
1.52338e-09
7.67306e-08
1.36111e-09
7.62331e-08
1.19544e-09
7.57957e-08
1.00554e-09
7.54182e-08
8.09956e-10
7.51153e-08
5.6718e-10
7.48873e-08
3.09295e-10
7.47591e-08
-2.0781e-11
7.47432e-08
-4.3736e-10
7.48645e-08
-8.51655e-10
7.52043e-08
-1.8857e-09
7.58714e-08
-2.19312e-09
-7.23782e-09
7.62818e-08
1.90389e-07
1.14955e-07
1.91853e-07
1.00548e-07
1.90248e-07
6.78855e-08
1.86162e-07
5.33961e-08
1.80731e-07
4.31135e-08
1.74985e-07
3.54832e-08
1.69299e-07
3.01548e-08
1.63826e-07
2.60943e-08
1.58663e-07
2.27822e-08
1.53851e-07
2.00488e-08
1.49393e-07
1.77865e-08
1.45272e-07
1.58964e-08
1.41465e-07
1.42993e-08
1.37946e-07
1.29362e-08
1.34688e-07
1.17629e-08
1.31667e-07
1.07452e-08
1.2886e-07
9.85617e-09
1.26247e-07
9.07431e-09
1.23811e-07
8.38244e-09
1.21534e-07
7.76662e-09
1.19403e-07
7.21547e-09
1.17404e-07
6.71961e-09
1.15528e-07
6.27126e-09
1.13763e-07
5.86387e-09
1.12102e-07
5.4919e-09
1.10535e-07
5.15058e-09
1.09057e-07
4.83579e-09
1.07662e-07
4.54394e-09
1.06344e-07
4.27181e-09
1.05098e-07
4.01655e-09
1.03921e-07
3.77545e-09
1.02809e-07
3.5462e-09
1.0176e-07
3.32612e-09
1.0077e-07
3.11343e-09
9.98395e-08
2.90473e-09
9.89661e-08
2.69926e-09
9.81501e-08
2.49114e-09
9.7391e-08
2.28242e-09
9.66914e-08
2.06079e-09
9.60514e-08
1.83542e-09
9.54775e-08
1.57942e-09
9.49705e-08
1.31692e-09
9.45435e-08
9.94185e-10
9.41995e-08
6.53298e-10
9.39592e-08
2.19513e-10
9.38405e-08
-3.18657e-10
9.38675e-08
-8.78632e-10
9.41036e-08
-2.12184e-09
9.46829e-08
-2.77236e-09
-7.55665e-09
9.50017e-08
1.95541e-07
1.07229e-07
1.98248e-07
9.78408e-08
1.98971e-07
6.71625e-08
1.97794e-07
5.45732e-08
1.95168e-07
4.57402e-08
1.91833e-07
3.88178e-08
1.8811e-07
3.38778e-08
1.8417e-07
3.00348e-08
1.8016e-07
2.67914e-08
1.76193e-07
2.40167e-08
1.72334e-07
2.16452e-08
1.68623e-07
1.96072e-08
1.6508e-07
1.7842e-08
1.61714e-07
1.63025e-08
1.58525e-07
1.49521e-08
1.55509e-07
1.37614e-08
1.52659e-07
1.27062e-08
1.49966e-07
1.17665e-08
1.47423e-07
1.09257e-08
1.4502e-07
1.01699e-08
1.42748e-07
9.48771e-09
1.40598e-07
8.86921e-09
1.38563e-07
8.30614e-09
1.36636e-07
7.79142e-09
1.34809e-07
7.31892e-09
1.33076e-07
6.8833e-09
1.31432e-07
6.47989e-09
1.29871e-07
6.10451e-09
1.2839e-07
5.75344e-09
1.26983e-07
5.42328e-09
1.25648e-07
5.11085e-09
1.2438e-07
4.81331e-09
1.23179e-07
4.5275e-09
1.22041e-07
4.25116e-09
1.20966e-07
3.98025e-09
1.19951e-07
3.71369e-09
1.18998e-07
3.44452e-09
1.18105e-07
3.17487e-09
1.17276e-07
2.89025e-09
1.1651e-07
2.60099e-09
1.15814e-07
2.27563e-09
1.1519e-07
1.94141e-09
1.14647e-07
1.53653e-09
1.14194e-07
1.10661e-09
1.13845e-07
5.68732e-10
1.13624e-07
-9.73437e-11
1.13551e-07
-8.05883e-10
1.13676e-07
-2.24706e-09
1.1414e-07
-3.23664e-09
-7.77193e-09
1.14356e-07
2.00848e-07
9.99651e-08
2.03777e-07
9.49122e-08
2.0533e-07
6.56098e-08
2.05648e-07
5.42548e-08
2.04825e-07
4.65626e-08
2.0335e-07
4.02932e-08
2.0141e-07
3.58183e-08
1.99088e-07
3.23562e-08
1.96491e-07
2.93884e-08
1.93721e-07
2.67871e-08
1.90858e-07
2.45083e-08
1.87962e-07
2.2503e-08
1.85078e-07
2.07261e-08
1.82237e-07
1.9143e-08
1.79463e-07
1.77269e-08
1.76768e-07
1.64558e-08
1.74163e-07
1.5311e-08
1.71653e-07
1.42767e-08
1.6924e-07
1.3339e-08
1.66924e-07
1.24861e-08
1.64703e-07
1.1708e-08
1.62577e-07
1.09957e-08
1.60542e-07
1.03415e-08
1.58594e-07
9.73884e-09
1.56731e-07
9.18164e-09
1.5495e-07
8.66461e-09
1.53247e-07
8.18303e-09
1.51619e-07
7.73258e-09
1.50063e-07
7.30934e-09
1.48577e-07
6.90969e-09
1.47157e-07
6.53014e-09
1.45803e-07
6.16759e-09
1.44512e-07
5.81849e-09
1.43283e-07
5.48027e-09
1.42115e-07
5.14837e-09
1.41007e-07
4.82142e-09
1.3996e-07
4.49159e-09
1.38974e-07
4.16091e-09
1.38051e-07
3.81327e-09
1.37193e-07
3.45932e-09
1.36404e-07
3.06472e-09
1.35688e-07
2.65714e-09
1.35053e-07
2.17118e-09
1.3451e-07
1.64952e-09
1.34069e-07
1.01017e-09
1.33757e-07
2.14589e-10
1.33593e-07
-6.41751e-10
1.3361e-07
-2.26411e-09
1.3395e-07
-3.57678e-09
-7.88537e-09
1.34063e-07
2.06447e-07
9.30499e-08
2.09341e-07
9.20189e-08
2.11039e-07
6.3911e-08
2.11936e-07
5.33585e-08
2.12008e-07
4.649e-08
2.11627e-07
4.06746e-08
2.10904e-07
3.65415e-08
2.09841e-07
3.34188e-08
2.08477e-07
3.07531e-08
2.06868e-07
2.8396e-08
2.0507e-07
2.63059e-08
2.03133e-07
2.44401e-08
2.01099e-07
2.27604e-08
1.99003e-07
2.12387e-08
1.96875e-07
1.98546e-08
1.94739e-07
1.85921e-08
1.92612e-07
1.74375e-08
1.9051e-07
1.6379e-08
1.88443e-07
1.54064e-08
1.86418e-07
1.45107e-08
1.84442e-07
1.36839e-08
1.82519e-07
1.29188e-08
1.80651e-07
1.22092e-08
1.78841e-07
1.15494e-08
1.77088e-07
1.09343e-08
1.75394e-07
1.0359e-08
1.73757e-07
9.8193e-09
1.72179e-07
9.31118e-09
1.70657e-07
8.83087e-09
1.69192e-07
8.37482e-09
1.67783e-07
7.93955e-09
1.66428e-07
7.52187e-09
1.65129e-07
7.11809e-09
1.63884e-07
6.72548e-09
1.62693e-07
6.33914e-09
1.61557e-07
5.95748e-09
1.60476e-07
5.57207e-09
1.59453e-07
5.18467e-09
1.58488e-07
4.77817e-09
1.57584e-07
4.36272e-09
1.56746e-07
3.90276e-09
1.55979e-07
3.42403e-09
1.55289e-07
2.86152e-09
1.54689e-07
2.24968e-09
1.54184e-07
1.51456e-09
1.53806e-07
5.93333e-10
1.5357e-07
-4.06095e-10
1.53493e-07
-2.1874e-09
1.53713e-07
-3.79635e-09
-7.90621e-09
1.53734e-07
2.12289e-07
8.64231e-08
2.15153e-07
8.91545e-08
2.16794e-07
6.22706e-08
2.17848e-07
5.23041e-08
2.18267e-07
4.60712e-08
2.18388e-07
4.05538e-08
2.18318e-07
3.66115e-08
2.18026e-07
3.3711e-08
2.17503e-07
3.12752e-08
2.1677e-07
2.91296e-08
2.15849e-07
2.72269e-08
2.14765e-07
2.55237e-08
2.13545e-07
2.39808e-08
2.12213e-07
2.25707e-08
2.10793e-07
2.12746e-08
2.09306e-07
2.00788e-08
2.07772e-07
1.89722e-08
2.06205e-07
1.79456e-08
2.0462e-07
1.69912e-08
2.03029e-07
1.61022e-08
2.0144e-07
1.52724e-08
1.99862e-07
1.44966e-08
1.98302e-07
1.37697e-08
1.96764e-07
1.30875e-08
1.95252e-07
1.24457e-08
1.93771e-07
1.18404e-08
1.92322e-07
1.12681e-08
1.90908e-07
1.07252e-08
1.89531e-07
1.02085e-08
1.88191e-07
9.71458e-09
1.8689e-07
9.24033e-09
1.85629e-07
8.78262e-09
1.8441e-07
8.33782e-09
1.83232e-07
7.90315e-09
1.82097e-07
7.4736e-09
1.81008e-07
7.0474e-09
1.79964e-07
6.6158e-09
1.78968e-07
6.18017e-09
1.78024e-07
5.72294e-09
1.77133e-07
5.25318e-09
1.763e-07
4.73545e-09
1.75533e-07
4.19179e-09
1.74833e-07
3.56066e-09
1.74218e-07
2.86471e-09
1.7369e-07
2.04255e-09
1.73278e-07
1.00532e-09
1.73001e-07
-1.28241e-10
1.72855e-07
-2.04185e-09
1.7297e-07
-3.91084e-09
-7.84957e-09
1.72913e-07
2.1833e-07
8.00735e-08
2.21207e-07
8.62776e-08
2.22767e-07
6.07111e-08
2.23848e-07
5.12228e-08
2.24376e-07
4.5543e-08
2.24675e-07
4.02553e-08
2.24881e-07
3.64056e-08
2.24966e-07
3.36253e-08
2.24909e-07
3.1332e-08
2.2471e-07
2.93289e-08
2.24373e-07
2.75644e-08
2.23903e-07
2.59931e-08
2.23311e-07
2.45733e-08
2.22607e-07
2.32749e-08
2.21803e-07
2.20779e-08
2.20914e-07
2.09681e-08
2.19952e-07
1.99347e-08
2.18928e-07
1.89691e-08
2.17855e-07
1.80641e-08
2.16743e-07
1.7214e-08
2.15602e-07
1.64137e-08
2.1444e-07
1.56589e-08
2.13264e-07
1.49456e-08
2.12081e-07
1.42704e-08
2.10897e-07
1.36299e-08
2.09716e-07
1.3021e-08
2.08543e-07
1.24407e-08
2.07382e-07
1.18862e-08
2.06236e-07
1.13545e-08
2.05108e-07
1.08428e-08
2.04e-07
1.03482e-08
2.02915e-07
9.8677e-09
2.01855e-07
9.39792e-09
2.00822e-07
8.93614e-09
1.99819e-07
8.4773e-09
1.98846e-07
8.01955e-09
1.97908e-07
7.55399e-09
1.97007e-07
7.08154e-09
1.96145e-07
6.58463e-09
1.95328e-07
6.07077e-09
1.94557e-07
5.50581e-09
1.93842e-07
4.90669e-09
1.93185e-07
4.21771e-09
1.92602e-07
3.44765e-09
1.92095e-07
2.5498e-09
1.91689e-07
1.41135e-09
1.91404e-07
1.56551e-10
1.91222e-07
-1.85973e-09
1.91257e-07
-3.94554e-09
-7.73624e-09
1.91143e-07
2.24559e-07
7.40077e-08
2.27471e-07
8.33652e-08
2.28963e-07
5.9219e-08
2.3005e-07
5.01362e-08
2.3062e-07
4.49734e-08
2.30967e-07
3.99081e-08
2.31262e-07
3.61102e-08
2.31496e-07
3.33916e-08
2.31648e-07
3.11802e-08
2.31715e-07
2.92612e-08
2.31699e-07
2.75813e-08
2.31595e-07
2.60966e-08
2.31405e-07
2.47636e-08
2.31129e-07
2.35504e-08
2.30772e-07
2.24349e-08
2.30339e-07
2.14017e-08
2.29834e-07
2.04389e-08
2.29266e-07
1.95373e-08
2.28641e-07
1.86896e-08
2.27965e-07
1.78899e-08
2.27245e-07
1.71332e-08
2.26489e-07
1.64156e-08
2.25701e-07
1.57333e-08
2.24888e-07
1.50833e-08
2.24055e-07
1.44626e-08
2.23208e-07
1.38687e-08
2.22349e-07
1.3299e-08
2.21485e-07
1.27508e-08
2.20617e-07
1.22218e-08
2.19751e-07
1.17093e-08
2.18888e-07
1.12107e-08
2.18033e-07
1.07232e-08
2.17187e-07
1.02435e-08
2.16354e-07
9.76911e-09
2.15537e-07
9.29485e-09
2.14737e-07
8.81884e-09
2.13959e-07
8.33215e-09
2.13206e-07
7.83516e-09
2.1248e-07
7.31069e-09
2.11786e-07
6.76428e-09
2.11128e-07
6.16396e-09
2.10514e-07
5.52077e-09
2.09945e-07
4.78616e-09
2.09438e-07
3.95466e-09
2.08994e-07
2.99411e-09
2.08633e-07
1.77248e-09
2.08376e-07
4.13269e-10
2.08192e-07
-1.67585e-09
2.08178e-07
-3.93121e-09
-7.59074e-09
2.08032e-07
2.3098e-07
6.82339e-08
2.33936e-07
8.0409e-08
2.35369e-07
5.77861e-08
2.36462e-07
4.90433e-08
2.37065e-07
4.43702e-08
2.37428e-07
3.95453e-08
2.37745e-07
3.57931e-08
2.38025e-07
3.3112e-08
2.38252e-07
3.09529e-08
2.38429e-07
2.90843e-08
2.38557e-07
2.74528e-08
2.38636e-07
2.60183e-08
2.38661e-07
2.47382e-08
2.38632e-07
2.35795e-08
2.38548e-07
2.25192e-08
2.38408e-07
2.15409e-08
2.38216e-07
2.06317e-08
2.37971e-07
1.97818e-08
2.37677e-07
1.89832e-08
2.37338e-07
1.82294e-08
2.36956e-07
1.75152e-08
2.36535e-07
1.68363e-08
2.3608e-07
1.6189e-08
2.35593e-07
1.55701e-08
2.35079e-07
1.49768e-08
2.34541e-07
1.44065e-08
2.33983e-07
1.38568e-08
2.33409e-07
1.33253e-08
2.32821e-07
1.28096e-08
2.32223e-07
1.23073e-08
2.31618e-07
1.18159e-08
2.31008e-07
1.13327e-08
2.30397e-07
1.08545e-08
2.29788e-07
1.03787e-08
2.29182e-07
9.90022e-09
2.28584e-07
9.41704e-09
2.27996e-07
8.9203e-09
2.27421e-07
8.4097e-09
2.26863e-07
7.86873e-09
2.26327e-07
7.30071e-09
2.25814e-07
6.67639e-09
2.25335e-07
6.00058e-09
2.24888e-07
5.23239e-09
2.2449e-07
4.35296e-09
2.24141e-07
3.34289e-09
2.23856e-07
2.05737e-09
2.23657e-07
6.12598e-10
2.23502e-07
-1.52116e-09
2.2347e-07
-3.89852e-09
-7.43771e-09
2.23317e-07
2.37601e-07
6.27578e-08
2.40604e-07
7.74063e-08
2.41979e-07
5.64103e-08
2.43077e-07
4.79454e-08
2.43718e-07
4.37296e-08
2.44094e-07
3.9169e-08
2.44417e-07
3.54704e-08
2.44709e-07
3.28198e-08
2.44959e-07
3.07025e-08
2.45173e-07
2.88707e-08
2.45356e-07
2.72698e-08
2.45509e-07
2.58649e-08
2.45632e-07
2.46156e-08
2.45723e-07
2.34889e-08
2.4578e-07
2.2462e-08
2.45803e-07
2.15179e-08
2.45791e-07
2.06436e-08
2.45744e-07
1.98288e-08
2.45662e-07
1.9065e-08
2.45546e-07
1.83453e-08
2.45397e-07
1.76642e-08
2.45217e-07
1.70169e-08
2.45006e-07
1.63995e-08
2.44768e-07
1.58086e-08
2.44503e-07
1.52412e-08
2.44215e-07
1.46946e-08
2.43906e-07
1.41664e-08
2.43577e-07
1.36541e-08
2.43231e-07
1.31553e-08
2.42871e-07
1.26676e-08
2.42498e-07
1.21885e-08
2.42116e-07
1.17153e-08
2.41725e-07
1.12448e-08
2.4133e-07
1.07743e-08
2.40931e-07
1.02986e-08
2.40533e-07
9.81567e-09
2.40136e-07
9.31659e-09
2.39746e-07
8.80034e-09
2.39363e-07
8.25127e-09
2.38994e-07
7.67028e-09
2.38639e-07
7.03118e-09
2.38307e-07
6.33262e-09
2.37998e-07
5.54113e-09
2.37725e-07
4.62634e-09
2.37489e-07
3.57871e-09
2.37299e-07
2.24761e-09
2.37175e-07
7.36291e-10
2.37071e-07
-1.41747e-09
2.37045e-07
-3.87255e-09
-7.29766e-09
2.36905e-07
2.44431e-07
5.7583e-08
2.47473e-07
7.4364e-08
2.488e-07
5.50834e-08
2.49898e-07
4.68472e-08
2.50578e-07
4.30502e-08
2.50971e-07
3.87754e-08
2.51299e-07
3.51432e-08
2.51597e-07
3.25219e-08
2.51855e-07
3.04444e-08
2.52079e-07
2.8646e-08
2.5228e-07
2.70696e-08
2.52459e-07
2.56855e-08
2.52619e-07
2.4456e-08
2.52758e-07
2.33492e-08
2.52878e-07
2.23423e-08
2.52977e-07
2.14186e-08
2.53056e-07
2.05653e-08
2.53112e-07
1.9772e-08
2.53147e-07
1.90301e-08
2.5316e-07
1.83325e-08
2.53151e-07
1.76735e-08
2.53119e-07
1.7048e-08
2.53067e-07
1.6452e-08
2.52994e-07
1.58819e-08
2.529e-07
1.53344e-08
2.52788e-07
1.48067e-08
2.52658e-07
1.42963e-08
2.52512e-07
1.38006e-08
2.5235e-07
1.33171e-08
2.52174e-07
1.28433e-08
2.51986e-07
1.23766e-08
2.51787e-07
1.19143e-08
2.51579e-07
1.1453e-08
2.51364e-07
1.09899e-08
2.51142e-07
1.052e-08
2.50917e-07
1.00406e-08
2.50691e-07
9.54309e-09
2.50466e-07
9.02562e-09
2.50243e-07
8.47351e-09
2.50028e-07
7.88516e-09
2.49822e-07
7.23751e-09
2.49631e-07
6.52348e-09
2.49456e-07
5.71625e-09
2.49306e-07
4.7764e-09
2.49184e-07
3.70092e-09
2.49092e-07
2.33986e-09
2.49048e-07
7.79486e-10
2.49005e-07
-1.37447e-09
2.49002e-07
-3.86901e-09
-7.18358e-09
2.48888e-07
2.51478e-07
5.27115e-08
2.54551e-07
7.12914e-08
2.55839e-07
5.37949e-08
2.56932e-07
4.57541e-08
2.5765e-07
4.23329e-08
2.58063e-07
3.83616e-08
2.58397e-07
3.481e-08
2.587e-07
3.22187e-08
2.58963e-07
3.01808e-08
2.59193e-07
2.84166e-08
2.59399e-07
2.68639e-08
2.59586e-07
2.5498e-08
2.59758e-07
2.42845e-08
2.59915e-07
2.31923e-08
2.60058e-07
2.2199e-08
2.60188e-07
2.12886e-08
2.60305e-07
2.04485e-08
2.60408e-07
1.96683e-08
2.60499e-07
1.89396e-08
2.60576e-07
1.82555e-08
2.60639e-07
1.761e-08
2.60689e-07
1.69981e-08
2.60726e-07
1.64157e-08
2.60749e-07
1.58589e-08
2.60758e-07
1.53246e-08
2.60755e-07
1.48098e-08
2.6074e-07
1.43117e-08
2.60713e-07
1.38278e-08
2.60675e-07
1.33554e-08
2.60626e-07
1.28921e-08
2.60567e-07
1.2435e-08
2.605e-07
1.19815e-08
2.60425e-07
1.15279e-08
2.60344e-07
1.10714e-08
2.60257e-07
1.06068e-08
2.60166e-07
1.01312e-08
2.60073e-07
9.63619e-09
2.5998e-07
9.11891e-09
2.59888e-07
8.56577e-09
2.598e-07
7.97279e-09
2.59718e-07
7.31986e-09
2.59646e-07
6.59492e-09
2.59586e-07
5.7766e-09
2.59543e-07
4.8192e-09
2.59521e-07
3.72296e-09
2.59517e-07
2.34399e-09
2.59547e-07
7.49544e-10
2.59562e-07
-1.39009e-09
2.59587e-07
-3.89324e-09
-7.0998e-09
2.59503e-07
2.58751e-07
4.81433e-08
2.61844e-07
6.81986e-08
2.63105e-07
5.25345e-08
2.64187e-07
4.46713e-08
2.6494e-07
4.15804e-08
2.65376e-07
3.79255e-08
2.65716e-07
3.44697e-08
2.66025e-07
3.19096e-08
2.66295e-07
2.99116e-08
2.66528e-07
2.8183e-08
2.66737e-07
2.66549e-08
2.66928e-07
2.53072e-08
2.67104e-07
2.41088e-08
2.67266e-07
2.30297e-08
2.67417e-07
2.2048e-08
2.67558e-07
2.1148e-08
2.67689e-07
2.03173e-08
2.67811e-07
1.95462e-08
2.67924e-07
1.88262e-08
2.68029e-07
1.81506e-08
2.68126e-07
1.75134e-08
2.68214e-07
1.69098e-08
2.68294e-07
1.63355e-08
2.68367e-07
1.57867e-08
2.68431e-07
1.52603e-08
2.68488e-07
1.47532e-08
2.68537e-07
1.42625e-08
2.68579e-07
1.37858e-08
2.68614e-07
1.33204e-08
2.68642e-07
1.28636e-08
2.68665e-07
1.24126e-08
2.68682e-07
1.19646e-08
2.68693e-07
1.15159e-08
2.68701e-07
1.10637e-08
2.68705e-07
1.06025e-08
2.68707e-07
1.01292e-08
2.68708e-07
9.63565e-09
2.68709e-07
9.11805e-09
2.68711e-07
8.56383e-09
2.68717e-07
7.96688e-09
2.68727e-07
7.30966e-09
2.68746e-07
6.57615e-09
2.68773e-07
5.74905e-09
2.68813e-07
4.77902e-09
2.6887e-07
3.66679e-09
2.68935e-07
2.27845e-09
2.69023e-07
6.62031e-10
2.69086e-07
-1.4535e-09
2.69135e-07
-3.94204e-09
-7.04295e-09
2.69078e-07
2.66259e-07
4.38766e-08
2.69361e-07
6.5096e-08
2.70604e-07
5.12914e-08
2.71673e-07
4.3603e-08
2.72457e-07
4.07959e-08
2.72917e-07
3.74654e-08
2.73265e-07
3.41216e-08
2.7358e-07
3.15946e-08
2.73856e-07
2.96362e-08
2.74094e-07
2.79449e-08
2.74306e-07
2.64429e-08
2.74499e-07
2.51139e-08
2.74677e-07
2.39308e-08
2.74842e-07
2.28648e-08
2.74996e-07
2.18942e-08
2.7514e-07
2.10037e-08
2.75276e-07
2.01814e-08
2.75405e-07
1.94177e-08
2.75526e-07
1.87045e-08
2.75642e-07
1.80351e-08
2.75751e-07
1.74037e-08
2.75856e-07
1.68056e-08
2.75955e-07
1.62364e-08
2.76049e-07
1.56925e-08
2.76139e-07
1.51706e-08
2.76224e-07
1.46678e-08
2.76305e-07
1.41813e-08
2.76383e-07
1.37085e-08
2.76456e-07
1.32466e-08
2.76527e-07
1.27932e-08
2.76594e-07
1.23452e-08
2.76659e-07
1.18999e-08
2.76721e-07
1.14535e-08
2.76782e-07
1.10029e-08
2.76841e-07
1.0543e-08
2.76901e-07
1.007e-08
2.7696e-07
9.57625e-09
2.77021e-07
9.05699e-09
2.77084e-07
8.50069e-09
2.77152e-07
7.89934e-09
2.77224e-07
7.23758e-09
2.77304e-07
6.49644e-09
2.77391e-07
5.66133e-09
2.77489e-07
4.6817e-09
2.77599e-07
3.55662e-09
2.77713e-07
2.16458e-09
2.77839e-07
5.35776e-10
2.77935e-07
-1.54967e-09
2.78e-07
-4.00693e-09
-7.00478e-09
2.77962e-07
2.7401e-07
3.99081e-08
2.77111e-07
6.19948e-08
2.78347e-07
5.00557e-08
2.79397e-07
4.25529e-08
2.80209e-07
3.99836e-08
2.80695e-07
3.69798e-08
2.81052e-07
3.37646e-08
2.81372e-07
3.12739e-08
2.81654e-07
2.93544e-08
2.81897e-07
2.77018e-08
2.82113e-07
2.62274e-08
2.82309e-07
2.4918e-08
2.82489e-07
2.37507e-08
2.82656e-07
2.2698e-08
2.82811e-07
2.17387e-08
2.82957e-07
2.08577e-08
2.83095e-07
2.00436e-08
2.83225e-07
1.9287e-08
2.8335e-07
1.858e-08
2.83469e-07
1.7916e-08
2.83583e-07
1.72894e-08
2.83693e-07
1.66955e-08
2.838e-07
1.613e-08
2.83903e-07
1.55895e-08
2.84003e-07
1.50705e-08
2.841e-07
1.45702e-08
2.84196e-07
1.40859e-08
2.84289e-07
1.3615e-08
2.84381e-07
1.31547e-08
2.84472e-07
1.27026e-08
2.84561e-07
1.22556e-08
2.8465e-07
1.18109e-08
2.84739e-07
1.13648e-08
2.84828e-07
1.09141e-08
2.84917e-07
1.04535e-08
2.85008e-07
9.97921e-09
2.85101e-07
9.48368e-09
2.85196e-07
8.96146e-09
2.85295e-07
8.40188e-09
2.85399e-07
7.79544e-09
2.85508e-07
7.12846e-09
2.85625e-07
6.38e-09
2.85749e-07
5.53705e-09
2.85881e-07
4.54967e-09
2.86024e-07
3.41403e-09
2.86166e-07
2.02201e-09
2.86313e-07
3.88452e-10
2.86427e-07
-1.66336e-09
2.86498e-07
-4.0779e-09
-6.97517e-09
2.86468e-07
2.82013e-07
3.62324e-08
2.85102e-07
5.89064e-08
2.8634e-07
4.88175e-08
2.87369e-07
4.15237e-08
2.88204e-07
3.91482e-08
2.88717e-07
3.64673e-08
2.89084e-07
3.33976e-08
2.8941e-07
3.09474e-08
2.89699e-07
2.90662e-08
2.89947e-07
2.74533e-08
2.90166e-07
2.60081e-08
2.90365e-07
2.47193e-08
2.90547e-07
2.35683e-08
2.90716e-07
2.25294e-08
2.90873e-07
2.15817e-08
2.9102e-07
2.07105e-08
2.91159e-07
1.99047e-08
2.91291e-07
1.91552e-08
2.91417e-07
1.84543e-08
2.91537e-07
1.77955e-08
2.91653e-07
1.71735e-08
2.91765e-07
1.65834e-08
2.91874e-07
1.60212e-08
2.91981e-07
1.54833e-08
2.92085e-07
1.49665e-08
2.92187e-07
1.4468e-08
2.92288e-07
1.3985e-08
2.92388e-07
1.35149e-08
2.92487e-07
1.30552e-08
2.92587e-07
1.26032e-08
2.92686e-07
1.21561e-08
2.92786e-07
1.17109e-08
2.92887e-07
1.12639e-08
2.92989e-07
1.08118e-08
2.93093e-07
1.03495e-08
2.932e-07
9.8727e-09
2.93309e-07
9.37433e-09
2.93423e-07
8.84823e-09
2.9354e-07
8.28449e-09
2.93663e-07
7.67245e-09
2.93792e-07
6.99966e-09
2.93928e-07
6.2441e-09
2.94071e-07
5.3934e-09
2.94221e-07
4.39963e-09
2.9438e-07
3.25542e-09
2.94536e-07
1.86607e-09
2.9469e-07
2.34066e-10
2.94809e-07
-1.78188e-09
2.94877e-07
-4.14592e-09
-6.94472e-09
2.94846e-07
2.90279e-07
3.28425e-08
2.93343e-07
5.58426e-08
2.94592e-07
4.75682e-08
2.95598e-07
4.05172e-08
2.96452e-07
3.82948e-08
2.96992e-07
3.59269e-08
2.97371e-07
3.30191e-08
2.97703e-07
3.06153e-08
2.97998e-07
2.87714e-08
2.98252e-07
2.71991e-08
2.98475e-07
2.57848e-08
2.98677e-07
2.45175e-08
2.98862e-07
2.33834e-08
2.99032e-07
2.23587e-08
2.99191e-07
2.1423e-08
2.9934e-07
2.05619e-08
2.9948e-07
1.97646e-08
2.99613e-07
1.90224e-08
2.99739e-07
1.83277e-08
2.99861e-07
1.76742e-08
2.99977e-07
1.70567e-08
3.0009e-07
1.64703e-08
3.002e-07
1.59113e-08
3.00308e-07
1.53759e-08
3.00413e-07
1.4861e-08
3.00517e-07
1.43639e-08
3.0062e-07
1.38819e-08
3.00723e-07
1.34123e-08
3.00825e-07
1.29527e-08
3.00928e-07
1.25004e-08
3.01032e-07
1.20526e-08
3.01136e-07
1.16062e-08
3.01243e-07
1.11578e-08
3.01351e-07
1.07037e-08
3.01461e-07
1.0239e-08
3.01575e-07
9.75916e-09
3.01692e-07
9.25737e-09
3.01813e-07
8.72692e-09
3.01939e-07
8.15851e-09
3.02071e-07
7.54069e-09
3.02209e-07
6.86181e-09
3.02353e-07
6.09953e-09
3.02505e-07
5.24141e-09
3.02662e-07
4.24247e-09
3.02826e-07
3.09176e-09
3.02985e-07
1.70724e-09
3.03137e-07
8.22581e-11
3.03251e-07
-1.89613e-09
3.03309e-07
-4.20423e-09
-6.90606e-09
3.0327e-07
2.98816e-07
2.97294e-08
3.01843e-07
5.28153e-08
3.03111e-07
4.62997e-08
3.04094e-07
3.95343e-08
3.0496e-07
3.74289e-08
3.05529e-07
3.53584e-08
3.0592e-07
3.26276e-08
3.06258e-07
3.02773e-08
3.06559e-07
2.84702e-08
3.0682e-07
2.69389e-08
3.07047e-07
2.55571e-08
3.07252e-07
2.43124e-08
3.0744e-07
2.31958e-08
3.07613e-07
2.21858e-08
3.07774e-07
2.12624e-08
3.07924e-07
2.04117e-08
3.08065e-07
1.96232e-08
3.08199e-07
1.88885e-08
3.08327e-07
1.82002e-08
3.08449e-07
1.75522e-08
3.08566e-07
1.69392e-08
3.0868e-07
1.63567e-08
3.0879e-07
1.58007e-08
3.08898e-07
1.52678e-08
3.09005e-07
1.47549e-08
3.09109e-07
1.42591e-08
3.09213e-07
1.37779e-08
3.09317e-07
1.33087e-08
3.09421e-07
1.2849e-08
3.09525e-07
1.23962e-08
3.0963e-07
1.19474e-08
3.09737e-07
1.14997e-08
3.09845e-07
1.10495e-08
3.09956e-07
1.05932e-08
3.10069e-07
1.01258e-08
3.10185e-07
9.64275e-09
3.10305e-07
9.13729e-09
3.1043e-07
8.60237e-09
3.10559e-07
8.02912e-09
3.10694e-07
7.40564e-09
3.10835e-07
6.72072e-09
3.10983e-07
5.95227e-09
3.11137e-07
5.0874e-09
3.11294e-07
4.08453e-09
3.11457e-07
2.92959e-09
3.11612e-07
1.55195e-09
3.11755e-07
-6.11304e-11
3.11859e-07
-2.0003e-09
3.11904e-07
-4.24849e-09
-6.85415e-09
3.11852e-07
3.07634e-07
2.68826e-08
3.10613e-07
4.98367e-08
3.11907e-07
4.50053e-08
3.12866e-07
3.85749e-08
3.13739e-07
3.65559e-08
3.14336e-07
3.47619e-08
3.14742e-07
3.22215e-08
3.15086e-07
2.99333e-08
3.15394e-07
2.81626e-08
3.1566e-07
2.66723e-08
3.15893e-07
2.53246e-08
3.16101e-07
2.41038e-08
3.16292e-07
2.30053e-08
3.16467e-07
2.20104e-08
3.1663e-07
2.10998e-08
3.16782e-07
2.02599e-08
3.16924e-07
1.94805e-08
3.17059e-07
1.87534e-08
3.17188e-07
1.80716e-08
3.17311e-07
1.74292e-08
3.17429e-07
1.68209e-08
3.17544e-07
1.62423e-08
3.17655e-07
1.56895e-08
3.17764e-07
1.51591e-08
3.1787e-07
1.46481e-08
3.17976e-07
1.41537e-08
3.1808e-07
1.36732e-08
3.18185e-07
1.32044e-08
3.18289e-07
1.27445e-08
3.18394e-07
1.22912e-08
3.185e-07
1.18414e-08
3.18608e-07
1.13923e-08
3.18717e-07
1.09403e-08
3.18828e-07
1.04816e-08
3.18942e-07
1.00116e-08
3.1906e-07
9.52521e-09
3.19181e-07
9.01605e-09
3.19307e-07
8.47674e-09
3.19437e-07
7.89873e-09
3.19573e-07
7.26989e-09
3.19714e-07
6.57925e-09
3.19861e-07
5.80534e-09
3.20014e-07
4.93468e-09
3.20169e-07
3.92923e-09
3.20327e-07
2.77249e-09
3.20475e-07
1.40386e-09
3.20606e-07
-1.9296e-10
3.20697e-07
-2.091e-09
3.20725e-07
-4.27622e-09
-6.78589e-09
3.20657e-07
3.16744e-07
2.42902e-08
3.19662e-07
4.69187e-08
3.20987e-07
4.36797e-08
3.21924e-07
3.76379e-08
3.22799e-07
3.56809e-08
3.23423e-07
3.41385e-08
3.23845e-07
3.17993e-08
3.24195e-07
2.95828e-08
3.24509e-07
2.78487e-08
3.24782e-07
2.63992e-08
3.2502e-07
2.50869e-08
3.25232e-07
2.38914e-08
3.25426e-07
2.28117e-08
3.25604e-07
2.18323e-08
3.25769e-07
2.0935e-08
3.25923e-07
2.01062e-08
3.26067e-07
1.93361e-08
3.26203e-07
1.86169e-08
3.26333e-07
1.79419e-08
3.26457e-07
1.73052e-08
3.26576e-07
1.67017e-08
3.26691e-07
1.61271e-08
3.26803e-07
1.55776e-08
3.26913e-07
1.50498e-08
3.2702e-07
1.45407e-08
3.27126e-07
1.40476e-08
3.27231e-07
1.3568e-08
3.27336e-07
1.30995e-08
3.27441e-07
1.26395e-08
3.27547e-07
1.21856e-08
3.27653e-07
1.17348e-08
3.27761e-07
1.12843e-08
3.27871e-07
1.08305e-08
3.27983e-07
1.03695e-08
3.28098e-07
9.89683e-09
3.28216e-07
9.40722e-09
3.28338e-07
8.89445e-09
3.28464e-07
8.35095e-09
3.28594e-07
7.76839e-09
3.28729e-07
7.13462e-09
3.2887e-07
6.43875e-09
3.29015e-07
5.66021e-09
3.29165e-07
4.78492e-09
3.29315e-07
3.77834e-09
3.29466e-07
2.62233e-09
3.29605e-07
1.26495e-09
3.29723e-07
-3.11622e-10
3.29799e-07
-2.16643e-09
3.29809e-07
-4.28616e-09
-6.69956e-09
3.29722e-07
3.26154e-07
2.19386e-08
3.29e-07
4.40732e-08
3.3036e-07
4.23192e-08
3.31277e-07
3.67213e-08
3.32149e-07
3.48087e-08
3.32798e-07
3.34899e-08
3.33237e-07
3.13594e-08
3.33595e-07
2.92253e-08
3.33915e-07
2.75286e-08
3.34195e-07
2.61194e-08
3.34438e-07
2.48438e-08
3.34655e-07
2.36749e-08
3.34852e-07
2.26147e-08
3.35033e-07
2.16514e-08
3.352e-07
2.07677e-08
3.35356e-07
1.99504e-08
3.35502e-07
1.919e-08
3.3564e-07
1.8479e-08
3.35771e-07
1.78109e-08
3.35896e-07
1.718e-08
3.36016e-07
1.65815e-08
3.36132e-07
1.6011e-08
3.36245e-07
1.54648e-08
3.36355e-07
1.49397e-08
3.36463e-07
1.44326e-08
3.3657e-07
1.39409e-08
3.36676e-07
1.34622e-08
3.36781e-07
1.2994e-08
3.36887e-07