/*--------------------------------*- C++ -*----------------------------------*\
  =========                 |
  \\      /  F ield         | OpenFOAM: The Open Source CFD Toolbox
   \\    /   O peration     | Website:  https://openfoam.org
    \\  /    A nd           | Version:  7
     \\/     M anipulation  |
\*---------------------------------------------------------------------------*/
FoamFile
{
    version     2.0;
    format      ascii;
    class       volVectorField;
    location    "0.5";
    object      U;
}
// * * * * * * * * * * * * * * * * * * * * * * * * * * * * * * * * * * * * * //

dimensions      [0 1 -1 0 0 0 0];

internalField   nonuniform List<vector> 
70000
(
(0.553392 0.016723 0)
(0.251268 0.00340088 0)
(0.166218 0.000321858 0)
(0.132481 5.41556e-05 0)
(0.1173 4.5595e-05 0)
(0.107387 5.37682e-05 0)
(0.0994505 4.61331e-05 0)
(0.0930221 3.67909e-05 0)
(0.0877896 3.04732e-05 0)
(0.0834332 2.61412e-05 0)
(0.0797246 2.28358e-05 0)
(0.076516 2.01838e-05 0)
(0.0737062 1.80158e-05 0)
(0.0712214 1.62189e-05 0)
(0.0690053 1.47092e-05 0)
(0.0670148 1.34248e-05 0)
(0.0652157 1.23192e-05 0)
(0.063581 1.13571e-05 0)
(0.0620887 1.05114e-05 0)
(0.0607209 9.76054e-06 0)
(0.0594628 9.08766e-06 0)
(0.0583022 8.47883e-06 0)
(0.0572288 7.92268e-06 0)
(0.056234 7.40968e-06 0)
(0.0553105 6.93152e-06 0)
(0.0544521 6.48097e-06 0)
(0.0536536 6.05106e-06 0)
(0.0529106 5.63621e-06 0)
(0.0522197 5.22864e-06 0)
(0.0515776 4.8248e-06 0)
(0.0509823 4.41359e-06 0)
(0.0504319 3.99439e-06 0)
(0.0499252 3.54957e-06 0)
(0.0494618 3.08261e-06 0)
(0.0490415 2.56664e-06 0)
(0.0486656 2.00432e-06 0)
(0.0483346 1.36993e-06 0)
(0.0480532 6.23871e-07 0)
(0.0478202 -1.76713e-07 0)
(0.0476504 -1.29993e-06 0)
(0.0475315 -2.27096e-06 0)
(0.0475082 -4.18998e-06 0)
(0.0475281 -5.35431e-06 0)
(0.047721 -9.13146e-06 0)
(0.0479152 -9.00486e-06 0)
(0.0484618 -1.79362e-05 0)
(0.048899 -1.40149e-05 0)
(0.0500118 -3.57957e-05 0)
(0.0512974 1.57494e-05 0)
(0.0483841 -0.00200323 0)
(0.884899 0.043167 0)
(0.649727 0.0201932 0)
(0.494351 0.00659727 0)
(0.40372 0.00276649 0)
(0.35482 0.00155087 0)
(0.323543 0.00113047 0)
(0.299711 0.000909281 0)
(0.28054 0.000745376 0)
(0.264854 0.000622504 0)
(0.25176 0.000531709 0)
(0.240609 0.000462749 0)
(0.230958 0.000408446 0)
(0.222503 0.000364528 0)
(0.215022 0.000328333 0)
(0.208345 0.000298052 0)
(0.202344 0.000272386 0)
(0.196915 0.000250377 0)
(0.191979 0.000231306 0)
(0.187469 0.00021462 0)
(0.183331 0.000199891 0)
(0.179522 0.000186782 0)
(0.176003 0.000175021 0)
(0.172744 0.000164387 0)
(0.169719 0.000154699 0)
(0.166906 0.0001458 0)
(0.164286 0.000137561 0)
(0.161842 0.000129862 0)
(0.159561 0.000122603 0)
(0.157432 0.000115681 0)
(0.155445 0.000109012 0)
(0.153593 0.000102493 0)
(0.151868 9.60512e-05 0)
(0.150267 8.95546e-05 0)
(0.148786 8.29484e-05 0)
(0.147424 7.60291e-05 0)
(0.146181 6.87707e-05 0)
(0.145058 6.08402e-05 0)
(0.144064 5.22327e-05 0)
(0.143193 4.24552e-05 0)
(0.142481 3.13453e-05 0)
(0.141892 1.85285e-05 0)
(0.141539 2.82548e-06 0)
(0.141278 -1.39242e-05 0)
(0.141442 -4.04318e-05 0)
(0.141574 -6.4519e-05 0)
(0.142571 -0.000113662 0)
(0.143236 -0.00013799 0)
(0.145512 -0.000290411 0)
(0.148017 -9.01055e-06 0)
(0.146817 -0.00374568 0)
(0.991237 0.0499008 0)
(0.890357 0.0307172 0)
(0.762716 0.0145954 0)
(0.656738 0.007977 0)
(0.585449 0.00488215 0)
(0.536083 0.00346842 0)
(0.498253 0.00273298 0)
(0.46767 0.00224074 0)
(0.44239 0.00187762 0)
(0.421114 0.00160596 0)
(0.402896 0.00139838 0)
(0.387069 0.0012349 0)
(0.373159 0.0011028 0)
(0.360817 0.000993947 0)
(0.349777 0.000902875 0)
(0.339833 0.000825678 0)
(0.330823 0.000759484 0)
(0.322615 0.000702134 0)
(0.315104 0.000651977 0)
(0.308204 0.000607732 0)
(0.301841 0.000568387 0)
(0.295956 0.000533134 0)
(0.290498 0.000501313 0)
(0.285423 0.000472382 0)
(0.280696 0.000445883 0)
(0.276285 0.000421428 0)
(0.272164 0.000398675 0)
(0.268309 0.000377324 0)
(0.264701 0.000357094 0)
(0.261324 0.000337738 0)
(0.258165 0.000318983 0)
(0.255211 0.000300618 0)
(0.252454 0.000282317 0)
(0.249888 0.000263911 0)
(0.247508 0.000244905 0)
(0.245313 0.00022523 0)
(0.243301 0.000204009 0)
(0.241484 0.000181404 0)
(0.239851 0.000155779 0)
(0.238451 0.000127682 0)
(0.237228 9.43047e-05 0)
(0.236341 5.62325e-05 0)
(0.235578 1.09592e-05 0)
(0.23541 -4.78835e-05 0)
(0.23518 -0.000115501 0)
(0.23614 -0.000223294 0)
(0.236616 -0.000300399 0)
(0.239276 -0.000632382 0)
(0.241811 -0.000359466 0)
(0.243792 -0.00442518 0)
(1.0156 0.0489195 0)
(1.00596 0.0358726 0)
(0.935975 0.020788 0)
(0.852178 0.0134998 0)
(0.782278 0.00920301 0)
(0.727125 0.0067763 0)
(0.682089 0.00537862 0)
(0.644377 0.0044396 0)
(0.612402 0.00374596 0)
(0.584975 0.00322011 0)
(0.561161 0.00281365 0)
(0.540255 0.0024914 0)
(0.521728 0.00222987 0)
(0.505178 0.00201364 0)
(0.490291 0.00183221 0)
(0.476818 0.00167805 0)
(0.464561 0.00154559 0)
(0.453355 0.00143065 0)
(0.443069 0.00132999 0)
(0.433591 0.00124112 0)
(0.42483 0.00116205 0)
(0.416707 0.00109119 0)
(0.409155 0.00102724 0)
(0.40212 0.000969122 0)
(0.395552 0.00091595 0)
(0.38941 0.000866951 0)
(0.383658 0.000821459 0)
(0.378266 0.000778886 0)
(0.373207 0.000738691 0)
(0.368458 0.000700393 0)
(0.364002 0.00066349 0)
(0.359821 0.000627566 0)
(0.355903 0.000592044 0)
(0.352238 0.000556591 0)
(0.348818 0.000520344 0)
(0.34564 0.000483172 0)
(0.3427 0.000443488 0)
(0.340009 0.000401736 0)
(0.337552 0.000354652 0)
(0.335384 0.0003041 0)
(0.333439 0.000243335 0)
(0.331896 0.000176879 0)
(0.33051 9.21765e-05 0)
(0.329815 -4.50378e-06 0)
(0.329062 -0.00012852 0)
(0.329656 -0.000303478 0)
(0.329725 -0.000456524 0)
(0.332256 -0.000963267 0)
(0.334255 -0.000839908 0)
(0.337962 -0.00477529 0)
(1.01434 0.0460028 0)
(1.04754 0.0374856 0)
(1.02459 0.0241467 0)
(0.974797 0.0175528 0)
(0.923519 0.013115 0)
(0.876791 0.0101982 0)
(0.834679 0.00833442 0)
(0.796984 0.00701336 0)
(0.763474 0.00600355 0)
(0.733709 0.00521589 0)
(0.707179 0.00459347 0)
(0.683414 0.00409216 0)
(0.662014 0.00368052 0)
(0.642649 0.00333709 0)
(0.625044 0.00304676 0)
(0.608969 0.00279855 0)
(0.594232 0.00258418 0)
(0.580671 0.00239736 0)
(0.568153 0.00223318 0)
(0.55656 0.00208778 0)
(0.545794 0.0019581 0)
(0.535773 0.00184165 0)
(0.526423 0.0017364 0)
(0.517681 0.00164067 0)
(0.509495 0.00155302 0)
(0.501816 0.00147225 0)
(0.494603 0.00139729 0)
(0.487822 0.00132722 0)
(0.481442 0.00126118 0)
(0.475435 0.00119839 0)
(0.46978 0.0011381 0)
(0.464456 0.00107963 0)
(0.459449 0.00102212 0)
(0.454745 0.000965022 0)
(0.450334 0.000907071 0)
(0.446211 0.000848045 0)
(0.44237 0.000785564 0)
(0.43882 0.000720395 0)
(0.435546 0.000647427 0)
(0.432601 0.000570082 0)
(0.429917 0.000477101 0)
(0.427674 0.000377651 0)
(0.425628 0.000249 0)
(0.424308 0.000107076 0)
(0.422978 -7.79118e-05 0)
(0.423014 -0.000327342 0)
(0.422601 -0.000571475 0)
(0.424655 -0.00123706 0)
(0.426088 -0.0013418 0)
(0.429985 -0.00508539 0)
(1.00933 0.0429142 0)
(1.05528 0.0372605 0)
(1.0587 0.02529 0)
(1.0364 0.0197508 0)
(1.00715 0.0158017 0)
(0.976142 0.012925 0)
(0.944661 0.0109484 0)
(0.913845 0.00946626 0)
(0.884542 0.00827589 0)
(0.857136 0.00730794 0)
(0.831707 0.00651747 0)
(0.808191 0.00586436 0)
(0.786469 0.00531727 0)
(0.766397 0.00485342 0)
(0.74783 0.0044561 0)
(0.730628 0.00411266 0)
(0.714661 0.00381331 0)
(0.699813 0.00355038 0)
(0.685978 0.00331776 0)
(0.673062 0.00311059 0)
(0.660982 0.0029249 0)
(0.649665 0.00275746 0)
(0.639045 0.00260559 0)
(0.629065 0.00246705 0)
(0.619673 0.00233991 0)
(0.610824 0.00222253 0)
(0.602479 0.00211346 0)
(0.594602 0.00201143 0)
(0.587162 0.00191526 0)
(0.580132 0.00182389 0)
(0.573488 0.00173626 0)
(0.567211 0.00165144 0)
(0.561284 0.00156827 0)
(0.555693 0.00148596 0)
(0.550426 0.00140284 0)
(0.545478 0.00131856 0)
(0.540842 0.00122994 0)
(0.536525 0.00113802 0)
(0.532513 0.00103588 0)
(0.528854 0.000928356 0)
(0.525488 0.000799881 0)
(0.522577 0.000663752 0)
(0.519905 0.000487941 0)
(0.51795 0.000296412 0)
(0.516061 4.50224e-05 0)
(0.515461 -0.000282279 0)
(0.514578 -0.000624753 0)
(0.515953 -0.00144006 0)
(0.516913 -0.00179323 0)
(0.520256 -0.00535009 0)
(1.00625 0.0400326 0)
(1.05207 0.0363327 0)
(1.0661 0.0252184 0)
(1.05962 0.0205491 0)
(1.04691 0.0172263 0)
(1.03086 0.0146422 0)
(1.012 0.0128049 0)
(0.991365 0.0113794 0)
(0.970003 0.0101826 0)
(0.948648 0.00916651 0)
(0.927744 0.0083056 0)
(0.907553 0.00757196 0)
(0.888222 0.00694118 0)
(0.869821 0.00639447 0)
(0.852369 0.00591736 0)
(0.835854 0.00549835 0)
(0.820244 0.00512814 0)
(0.805499 0.00479913 0)
(0.791571 0.00450508 0)
(0.778411 0.00424087 0)
(0.765974 0.00400222 0)
(0.754211 0.00378557 0)
(0.743079 0.0035879 0)
(0.732538 0.00340663 0)
(0.72255 0.00323955 0)
(0.71308 0.0030847 0)
(0.704097 0.00294036 0)
(0.695571 0.00280498 0)
(0.687477 0.00267713 0)
(0.679792 0.0025555 0)
(0.672496 0.00243876 0)
(0.665571 0.00232576 0)
(0.659003 0.00221504 0)
(0.652778 0.0021056 0)
(0.646889 0.00199537 0)
(0.641327 0.00188384 0)
(0.636088 0.00176714 0)
(0.631178 0.00164641 0)
(0.626587 0.00151317 0)
(0.622354 0.00137322 0)
(0.618433 0.0012075 0)
(0.614962 0.00103202 0)
(0.611765 0.000807868 0)
(0.609244 0.000563375 0)
(0.606873 0.000243063 0)
(0.605661 -0.000164185 0)
(0.604361 -0.000607326 0)
(0.605004 -0.00156463 0)
(0.605534 -0.00216679 0)
(0.608104 -0.00554242 0)
(1.00495 0.0373545 0)
(1.04727 0.0352503 0)
(1.06398 0.0246779 0)
(1.06427 0.0205743 0)
(1.06071 0.0177624 0)
(1.0548 0.0154826 0)
(1.04608 0.0138595 0)
(1.03493 0.0125985 0)
(1.02206 0.0115122 0)
(1.00808 0.0105591 0)
(0.993438 0.00972567 0)
(0.978498 0.00899444 0)
(0.963521 0.00834868 0)
(0.9487 0.00777528 0)
(0.934173 0.00726395 0)
(0.920031 0.00680622 0)
(0.906333 0.0063949 0)
(0.893116 0.00602383 0)
(0.880396 0.00568776 0)
(0.86818 0.00538219 0)
(0.856464 0.00510327 0)
(0.845239 0.00484767 0)
(0.834492 0.00461249 0)
(0.824208 0.00439521 0)
(0.81437 0.00419359 0)
(0.804962 0.00400561 0)
(0.795965 0.00382948 0)
(0.787365 0.00366351 0)
(0.779144 0.00350614 0)
(0.771289 0.00335591 0)
(0.763787 0.00321133 0)
(0.756625 0.00307106 0)
(0.749796 0.00293344 0)
(0.743288 0.00279727 0)
(0.737098 0.00266014 0)
(0.731221 0.00252138 0)
(0.725656 0.00237651 0)
(0.720407 0.00222666 0)
(0.715471 0.00206214 0)
(0.710879 0.00188913 0)
(0.706601 0.00168615 0)
(0.702748 0.00147015 0)
(0.69919 0.0011984 0)
(0.696246 0.000898749 0)
(0.693522 0.000513775 0)
(0.691803 2.13688e-05 0)
(0.690172 -0.000521387 0)
(0.69015 -0.00160874 0)
(0.690273 -0.00245154 0)
(0.692061 -0.0056583 0)
(1.0044 0.0348064 0)
(1.04324 0.0341768 0)
(1.05995 0.0240363 0)
(1.06231 0.0202796 0)
(1.06253 0.0178249 0)
(1.06185 0.0157618 0)
(1.05931 0.0143115 0)
(1.0548 0.0132154 0)
(1.04862 0.012271 0)
(1.04109 0.0114298 0)
(1.0325 0.0106806 0)
(1.02308 0.01001 0)
(1.01308 0.00940524 0)
(1.0027 0.00885677 0)
(0.99208 0.00835764 0)
(0.981369 0.0079022 0)
(0.970667 0.00748562 0)
(0.960054 0.00710362 0)
(0.949593 0.00675243 0)
(0.93933 0.00642871 0)
(0.929299 0.0061295 0)
(0.919524 0.00585214 0)
(0.910021 0.00559427 0)
(0.900802 0.00535373 0)
(0.891872 0.00512858 0)
(0.883234 0.00491698 0)
(0.874887 0.00471727 0)
(0.866832 0.00452783 0)
(0.859064 0.00434714 0)
(0.85158 0.00417369 0)
(0.844378 0.00400597 0)
(0.837453 0.00384253 0)
(0.830804 0.00368159 0)
(0.824428 0.0035218 0)
(0.818324 0.00336054 0)
(0.812494 0.00319695 0)
(0.806939 0.00302611 0)
(0.801667 0.00284899 0)
(0.796679 0.00265505 0)
(0.792004 0.00245034 0)
(0.787622 0.00221201 0)
(0.783624 0.00195634 0)
(0.779919 0.00163954 0)
(0.776755 0.00128518 0)
(0.773852 0.000839409 0)
(0.771797 0.000262316 0)
(0.769956 -0.000377521 0)
(0.769414 -0.00157949 0)
(0.769179 -0.0026461 0)
(0.770262 -0.005703 0)
(1.00402 0.0323662 0)
(1.03991 0.0331264 0)
(1.05617 0.0234126 0)
(1.05894 0.0198905 0)
(1.06025 0.0176931 0)
(1.06162 0.0157642 0)
(1.06202 0.0144146 0)
(1.06116 0.0134328 0)
(1.05913 0.0126041 0)
(1.05605 0.0118684 0)
(1.052 0.011212 0)
(1.0471 0.0106211 0)
(1.04147 0.0100829 0)
(1.03524 0.0095886 0)
(1.02852 0.00913223 0)
(1.02143 0.00870953 0)
(1.01406 0.00831703 0)
(1.00651 0.00795177 0)
(0.99883 0.00761115 0)
(0.991096 0.00729287 0)
(0.983354 0.00699486 0)
(0.975648 0.00671523 0)
(0.968011 0.00645225 0)
(0.960473 0.0062043 0)
(0.953054 0.00596985 0)
(0.945775 0.00574745 0)
(0.938648 0.00553567 0)
(0.931686 0.00533312 0)
(0.924897 0.00513842 0)
(0.91829 0.00495017 0)
(0.911869 0.0047669 0)
(0.905641 0.00458716 0)
(0.89961 0.00440915 0)
(0.89378 0.00423144 0)
(0.888159 0.00405125 0)
(0.88275 0.00386757 0)
(0.877562 0.0036752 0)
(0.872604 0.00347483 0)
(0.867883 0.00325545 0)
(0.863424 0.0030225 0)
(0.859222 0.00275274 0)
(0.855346 0.00246039 0)
(0.851741 0.00210297 0)
(0.848592 0.00169689 0)
(0.845717 0.00119517 0)
(0.843534 0.000540634 0)
(0.841638 -0.000194727 0)
(0.84076 -0.00149316 0)
(0.840261 -0.00275841 0)
(0.840766 -0.00568587 0)
(1.00364 0.0300256 0)
(1.03692 0.0320784 0)
(1.05283 0.0228222 0)
(1.0557 0.0194842 0)
(1.05716 0.0174997 0)
(1.05908 0.0156623 0)
(1.06055 0.0143597 0)
(1.06127 0.0134405 0)
(1.0613 0.012685 0)
(1.06069 0.0120232 0)
(1.05942 0.0114389 0)
(1.05751 0.0109168 0)
(1.055 0.0104426 0)
(1.05193 0.0100064 0)
(1.04836 0.00960175 0)
(1.04435 0.00922423 0)
(1.03997 0.00887055 0)
(1.03527 0.00853812 0)
(1.03032 0.0082248 0)
(1.02515 0.0079288 0)
(1.01983 0.00764857 0)
(1.01439 0.00738271 0)
(1.00886 0.00712996 0)
(1.00329 0.00688913 0)
(0.997703 0.00665909 0)
(0.99212 0.00643869 0)
(0.986565 0.00622682 0)
(0.981057 0.00602231 0)
(0.975612 0.00582398 0)
(0.970245 0.00563058 0)
(0.964968 0.00544073 0)
(0.959794 0.00525307 0)
(0.954732 0.00506577 0)
(0.949793 0.00487742 0)
(0.944988 0.00468512 0)
(0.940326 0.00448777 0)
(0.935818 0.00427996 0)
(0.931478 0.00406206 0)
(0.927316 0.00382287 0)
(0.923356 0.00356689 0)
(0.919601 0.00327128 0)
(0.916107 0.00294718 0)
(0.912843 0.00255518 0)
(0.909946 0.00210268 0)
(0.907308 0.0015519 0)
(0.905216 0.000828158 0)
(0.90343 6.98798e-06 0)
(0.902418 -0.00137006 0)
(0.90178 -0.00280415 0)
(0.901865 -0.00562054 0)
(1.00327 0.0277857 0)
(1.03409 0.0310193 0)
(1.04971 0.0222583 0)
(1.05274 0.0190759 0)
(1.05416 0.0172874 0)
(1.05613 0.0155312 0)
(1.05787 0.0142502 0)
(1.05912 0.0133608 0)
(1.05996 0.0126457 0)
(1.06046 0.012027 0)
(1.06058 0.0114874 0)
(1.06031 0.0110117 0)
(1.05963 0.0105844 0)
(1.05857 0.0101943 0)
(1.05711 0.00983403 0)
(1.0553 0.00949844 0)
(1.05315 0.00918376 0)
(1.05069 0.0088871 0)
(1.04795 0.00860618 0)
(1.04496 0.00833919 0)
(1.04176 0.00808464 0)
(1.03838 0.00784128 0)
(1.03484 0.007608 0)
(1.03117 0.00738381 0)
(1.0274 0.00716776 0)
(1.02355 0.00695891 0)
(1.01964 0.00675633 0)
(1.01569 0.00655902 0)
(1.01173 0.00636595 0)
(1.00776 0.00617598 0)
(1.0038 0.00598782 0)
(0.999863 0.00580018 0)
(0.995968 0.00561124 0)
(0.992125 0.00541958 0)
(0.988346 0.00522225 0)
(0.984644 0.00501804 0)
(0.981032 0.0048014 0)
(0.977525 0.00457237 0)
(0.974136 0.00431976 0)
(0.970887 0.00404687 0)
(0.967786 0.00373188 0)
(0.964879 0.00338221 0)
(0.962154 0.00296261 0)
(0.959709 0.00247088 0)
(0.957487 0.00187879 0)
(0.955677 0.00109659 0)
(0.954154 0.000202691 0)
(0.953193 -0.00123488 0)
(0.952551 -0.00280489 0)
(0.952383 -0.00552427 0)
(1.00292 0.0256498 0)
(1.03138 0.0299444 0)
(1.04671 0.0217164 0)
(1.04995 0.0186655 0)
(1.05135 0.0170631 0)
(1.05328 0.015393 0)
(1.05505 0.014127 0)
(1.05641 0.0132529 0)
(1.05749 0.0125604 0)
(1.05837 0.0119654 0)
(1.05905 0.0114502 0)
(1.05952 0.0110009 0)
(1.05975 0.0106021 0)
(1.05975 0.0102419 0)
(1.05949 0.00991222 0)
(1.059 0.0096074 0)
(1.05826 0.00932313 0)
(1.05729 0.00905606 0)
(1.05609 0.00880356 0)
(1.05468 0.00856355 0)
(1.05308 0.00833432 0)
(1.05129 0.00811449 0)
(1.04934 0.00790288 0)
(1.04725 0.00769846 0)
(1.04502 0.00750029 0)
(1.04268 0.00730747 0)
(1.04025 0.0071191 0)
(1.03773 0.00693424 0)
(1.03515 0.0067519 0)
(1.03251 0.006571 0)
(1.02984 0.00639027 0)
(1.02714 0.00620843 0)
(1.02443 0.00602367 0)
(1.02171 0.00583453 0)
(1.01901 0.00563799 0)
(1.01634 0.00543271 0)
(1.0137 0.0052131 0)
(1.01112 0.00497873 0)
(1.0086 0.00471868 0)
(1.00617 0.0044348 0)
(1.00384 0.00410679 0)
(1.00164 0.00373794 0)
(0.99957 0.00329777 0)
(0.997701 0.00277473 0)
(0.996014 0.00214935 0)
(0.994621 0.00132139 0)
(0.993471 0.000364983 0)
(0.992707 -0.00111268 0)
(0.992176 -0.00278377 0)
(0.991908 -0.00541558 0)
(1.0026 0.0236206 0)
(1.0288 0.0288526 0)
(1.0438 0.0211954 0)
(1.04726 0.018253 0)
(1.04866 0.0168251 0)
(1.05056 0.0152501 0)
(1.05233 0.0140011 0)
(1.05369 0.0131376 0)
(1.05481 0.0124612 0)
(1.05578 0.011881 0)
(1.05664 0.0113793 0)
(1.05736 0.0109442 0)
(1.05796 0.0105609 0)
(1.05842 0.0102175 0)
(1.05874 0.00990598 0)
(1.05891 0.00962023 0)
(1.05894 0.00935574 0)
(1.05881 0.00910889 0)
(1.05854 0.00887677 0)
(1.05811 0.00865701 0)
(1.05754 0.00844768 0)
(1.05683 0.0082472 0)
(1.05598 0.00805421 0)
(1.05502 0.00786755 0)
(1.05393 0.00768616 0)
(1.05274 0.00750907 0)
(1.05145 0.00733532 0)
(1.05007 0.00716394 0)
(1.04862 0.00699389 0)
(1.0471 0.00682407 0)
(1.04552 0.00665318 0)
(1.04389 0.00647991 0)
(1.04222 0.00630238 0)
(1.04053 0.00611906 0)
(1.03881 0.00592687 0)
(1.0371 0.00572429 0)
(1.03538 0.00550571 0)
(1.03369 0.00527021 0)
(1.03202 0.00500724 0)
(1.0304 0.0047171 0)
(1.02883 0.00438126 0)
(1.02735 0.00399886 0)
(1.02597 0.00354421 0)
(1.02471 0.00299746 0)
(1.0236 0.00234619 0)
(1.02268 0.00148432 0)
(1.02196 0.000477903 0)
(1.02147 -0.00102148 0)
(1.02113 -0.00276137 0)
(1.02088 -0.00531129 0)
(1.0023 0.0216998 0)
(1.02634 0.0277446 0)
(1.04096 0.0206937 0)
(1.04466 0.0178398 0)
(1.04608 0.0165722 0)
(1.04794 0.0151011 0)
(1.0497 0.0138738 0)
(1.05107 0.0130198 0)
(1.05218 0.0123578 0)
(1.05315 0.01179 0)
(1.05404 0.0112976 0)
(1.05483 0.0108709 0)
(1.05554 0.0104964 0)
(1.05616 0.0101623 0)
(1.05671 0.00986067 0)
(1.05716 0.00958556 0)
(1.05754 0.00933243 0)
(1.05782 0.00909758 0)
(1.05801 0.00887799 0)
(1.05811 0.00867117 0)
(1.05812 0.00847505 0)
(1.05803 0.00828788 0)
(1.05786 0.00810818 0)
(1.0576 0.00793463 0)
(1.05725 0.00776608 0)
(1.05682 0.00760144 0)
(1.05631 0.00743966 0)
(1.05573 0.0072797 0)
(1.05509 0.00712043 0)
(1.05438 0.0069607 0)
(1.05362 0.00679914 0)
(1.05281 0.00663435 0)
(1.05196 0.00646438 0)
(1.05107 0.0062876 0)
(1.05016 0.00610086 0)
(1.04923 0.00590242 0)
(1.04828 0.00568671 0)
(1.04734 0.0054522 0)
(1.0464 0.00518889 0)
(1.04549 0.00489545 0)
(1.0446 0.00455521 0)
(1.04377 0.0041634 0)
(1.043 0.00369875 0)
(1.04232 0.00313462 0)
(1.04174 0.00246358 0)
(1.04129 0.00157824 0)
(1.04097 0.000533614 0)
(1.04079 -0.000972269 0)
(1.04067 -0.00275228 0)
(1.0405 -0.00522354 0)
(1.00203 0.0198883 0)
(1.02402 0.0266236 0)
(1.03823 0.0202082 0)
(1.04213 0.0174279 0)
(1.04358 0.0163046 0)
(1.04542 0.0149447 0)
(1.04718 0.0137443 0)
(1.04854 0.0129001 0)
(1.04963 0.0122523 0)
(1.0506 0.0116967 0)
(1.05147 0.0112127 0)
(1.05227 0.0107926 0)
(1.053 0.0104241 0)
(1.05366 0.0100959 0)
(1.05427 0.00980011 0)
(1.05482 0.00953099 0)
(1.05532 0.00928414 0)
(1.05577 0.00905591 0)
(1.05616 0.00884332 0)
(1.0565 0.00864387 0)
(1.05679 0.00845543 0)
(1.05702 0.00827622 0)
(1.0572 0.00810466 0)
(1.05732 0.00793938 0)
(1.05738 0.00777914 0)
(1.0574 0.00762277 0)
(1.05736 0.00746916 0)
(1.05727 0.00731718 0)
(1.05714 0.00716566 0)
(1.05696 0.00701336 0)
(1.05675 0.00685884 0)
(1.05649 0.00670063 0)
(1.0562 0.00653669 0)
(1.05588 0.00636528 0)
(1.05554 0.00618319 0)
(1.05518 0.00598842 0)
(1.05481 0.00577551 0)
(1.05443 0.0055423 0)
(1.05406 0.00527938 0)
(1.05369 0.00498382 0)
(1.05334 0.00464079 0)
(1.05303 0.00424206 0)
(1.05276 0.00377008 0)
(1.05255 0.00319325 0)
(1.05241 0.00250689 0)
(1.05235 0.00160638 0)
(1.05238 0.000533848 0)
(1.05247 -0.000967037 0)
(1.05255 -0.00276338 0)
(1.05249 -0.00515781 0)
(1.00179 0.0181863 0)
(1.02184 0.0254933 0)
(1.03559 0.019735 0)
(1.03969 0.017019 0)
(1.04117 0.0160229 0)
(1.04298 0.0147798 0)
(1.04474 0.0136122 0)
(1.0461 0.0127781 0)
(1.04719 0.0121446 0)
(1.04814 0.0116018 0)
(1.049 0.0111264 0)
(1.04978 0.0107127 0)
(1.0505 0.0103495 0)
(1.05116 0.010026 0)
(1.05178 0.00973444 0)
(1.05235 0.0094693 0)
(1.05289 0.0092263 0)
(1.05338 0.00900193 0)
(1.05385 0.00879326 0)
(1.05428 0.00859785 0)
(1.05467 0.00841359 0)
(1.05504 0.00823869 0)
(1.05537 0.00807158 0)
(1.05567 0.00791085 0)
(1.05594 0.00775525 0)
(1.05618 0.00760356 0)
(1.05638 0.00745463 0)
(1.05656 0.00730731 0)
(1.05671 0.00716037 0)
(1.05684 0.00701253 0)
(1.05694 0.00686228 0)
(1.05702 0.00670811 0)
(1.05707 0.0065479 0)
(1.05711 0.00637981 0)
(1.05714 0.00620057 0)
(1.05715 0.00600797 0)
(1.05715 0.00579664 0)
(1.05716 0.00556384 0)
(1.05716 0.00530074 0)
(1.05718 0.00500296 0)
(1.05721 0.00465736 0)
(1.05726 0.00425279 0)
(1.05736 0.00377463 0)
(1.05749 0.00318814 0)
(1.05767 0.00248945 0)
(1.0579 0.0015797 0)
(1.05819 0.000487847 0)
(1.05848 -0.00100016 0)
(1.05872 -0.00279444 0)
(1.05875 -0.00511354 0)
(1.00157 0.0165934 0)
(1.01979 0.0243578 0)
(1.03305 0.0192702 0)
(1.03734 0.0166149 0)
(1.03886 0.0157284 0)
(1.04063 0.0146058 0)
(1.04238 0.0134772 0)
(1.04375 0.0126538 0)
(1.04483 0.0120345 0)
(1.04577 0.0115051 0)
(1.04661 0.0110389 0)
(1.04739 0.0106316 0)
(1.04809 0.0102738 0)
(1.04874 0.0099548 0)
(1.04935 0.00966711 0)
(1.04992 0.00940531 0)
(1.05045 0.00916528 0)
(1.05096 0.00894362 0)
(1.05143 0.0087375 0)
(1.05189 0.00854452 0)
(1.05231 0.00836262 0)
(1.05272 0.00819005 0)
(1.05311 0.00802524 0)
(1.05348 0.0078668 0)
(1.05383 0.00771346 0)
(1.05417 0.00756402 0)
(1.05448 0.00741731 0)
(1.05479 0.00727217 0)
(1.05507 0.00712734 0)
(1.05535 0.00698153 0)
(1.05561 0.00683319 0)
(1.05587 0.00668077 0)
(1.05611 0.00652211 0)
(1.05634 0.00635526 0)
(1.05657 0.00617696 0)
(1.0568 0.00598476 0)
(1.05703 0.00577344 0)
(1.05726 0.00553969 0)
(1.05749 0.00527529 0)
(1.05774 0.00497455 0)
(1.05801 0.00462577 0)
(1.0583 0.00421561 0)
(1.05862 0.00373146 0)
(1.05897 0.0031371 0)
(1.05936 0.00242801 0)
(1.05978 0.001513 0)
(1.06023 0.000408659 0)
(1.06065 -0.00106151 0)
(1.06098 -0.00284016 0)
(1.06107 -0.00508542 0)
(1.00137 0.0151088 0)
(1.01788 0.023221 0)
(1.03062 0.0188097 0)
(1.03508 0.0162172 0)
(1.03664 0.0154226 0)
(1.03837 0.0144221 0)
(1.04011 0.0133389 0)
(1.04149 0.0125272 0)
(1.04256 0.0119218 0)
(1.04349 0.0114065 0)
(1.04432 0.0109501 0)
(1.04508 0.0105496 0)
(1.04578 0.0101972 0)
(1.04642 0.00988282 0)
(1.04701 0.009599 0)
(1.04757 0.00934044 0)
(1.04809 0.00910317 0)
(1.04859 0.00888389 0)
(1.04906 0.00867983 0)
(1.04951 0.00848867 0)
(1.04994 0.00830838 0)
(1.05036 0.00813724 0)
(1.05076 0.00797371 0)
(1.05115 0.00781641 0)
(1.05152 0.00766408 0)
(1.05189 0.00751553 0)
(1.05224 0.00736959 0)
(1.05259 0.00722512 0)
(1.05294 0.00708084 0)
(1.05328 0.00693546 0)
(1.05361 0.00678741 0)
(1.05394 0.00663511 0)
(1.05427 0.00647637 0)
(1.0546 0.00630918 0)
(1.05493 0.00613027 0)
(1.05526 0.005937 0)
(1.0556 0.0057243 0)
(1.05595 0.00548836 0)
(1.05631 0.00522149 0)
(1.05669 0.00491695 0)
(1.05708 0.00456419 0)
(1.0575 0.0041483 0)
(1.05795 0.00365795 0)
(1.05842 0.00305682 0)
(1.05892 0.00233861 0)
(1.05945 0.00142107 0)
(1.05998 0.000309666 0)
(1.06046 -0.00113977 0)
(1.06082 -0.00289308 0)
(1.06093 -0.00506592 0)
(1.0012 0.0137308 0)
(1.01611 0.0220871 0)
(1.0283 0.0183499 0)
(1.0329 0.0158269 0)
(1.03452 0.0151071 0)
(1.0362 0.0142281 0)
(1.03793 0.0131969 0)
(1.03931 0.0123984 0)
(1.04038 0.0118065 0)
(1.0413 0.0113057 0)
(1.04212 0.0108597 0)
(1.04287 0.0104664 0)
(1.04356 0.0101196 0)
(1.04418 0.00981006 0)
(1.04477 0.00953023 0)
(1.04531 0.00927499 0)
(1.04582 0.0090405 0)
(1.04631 0.00882355 0)
(1.04677 0.00862147 0)
(1.04721 0.00843195 0)
(1.04764 0.00825303 0)
(1.04805 0.008083 0)
(1.04844 0.00792035 0)
(1.04883 0.00776371 0)
(1.04921 0.00761183 0)
(1.04958 0.00746353 0)
(1.04994 0.00731767 0)
(1.0503 0.00717308 0)
(1.05066 0.00702852 0)
(1.05102 0.00688268 0)
(1.05138 0.00673399 0)
(1.05174 0.00658084 0)
(1.0521 0.00642104 0)
(1.05246 0.00625249 0)
(1.05283 0.00607197 0)
(1.05321 0.00587663 0)
(1.0536 0.00566158 0)
(1.054 0.00542256 0)
(1.05441 0.00515235 0)
(1.05485 0.00484339 0)
(1.0553 0.00448598 0)
(1.05577 0.00406427 0)
(1.05628 0.00356752 0)
(1.0568 0.00296036 0)
(1.05736 0.00223426 0)
(1.05792 0.00131599 0)
(1.05847 0.000202102 0)
(1.05896 -0.00122469 0)
(1.05932 -0.00294606 0)
(1.05941 -0.00504798 0)
(1.00104 0.0124573 0)
(1.01447 0.0209603 0)
(1.02609 0.0178873 0)
(1.03081 0.0154448 0)
(1.03249 0.0147838 0)
(1.03413 0.0140234 0)
(1.03584 0.0130506 0)
(1.03723 0.0122673 0)
(1.0383 0.0116887 0)
(1.0392 0.0112026 0)
(1.04002 0.0107677 0)
(1.04075 0.0103819 0)
(1.04143 0.0100411 0)
(1.04204 0.00973645 0)
(1.04262 0.00946076 0)
(1.04315 0.00920896 0)
(1.04365 0.00897733 0)
(1.04413 0.00876278 0)
(1.04458 0.00856269 0)
(1.04501 0.00837481 0)
(1.04542 0.00819722 0)
(1.04582 0.00802822 0)
(1.04621 0.00786633 0)
(1.04659 0.00771018 0)
(1.04696 0.00755855 0)
(1.04733 0.00741027 0)
(1.04769 0.00726418 0)
(1.04805 0.00711915 0)
(1.0484 0.00697393 0)
(1.04876 0.00682721 0)
(1.04912 0.00667742 0)
(1.04948 0.00652293 0)
(1.04985 0.00636154 0)
(1.05022 0.0061911 0)
(1.05061 0.00600842 0)
(1.051 0.00581046 0)
(1.0514 0.0055925 0)
(1.05181 0.00534991 0)
(1.05225 0.00507585 0)
(1.0527 0.00476216 0)
(1.05317 0.00439971 0)
(1.05366 0.00397226 0)
(1.05418 0.00346913 0)
(1.05471 0.00285666 0)
(1.05527 0.00212394 0)
(1.05583 0.00120646 0)
(1.05637 9.40563e-05 0)
(1.05683 -0.00130876 0)
(1.05716 -0.00299353 0)
(1.05722 -0.0050256 0)
(1.0009 0.0112852 0)
(1.01296 0.0198449 0)
(1.02399 0.0174189 0)
(1.02881 0.0150715 0)
(1.03055 0.014455 0)
(1.03216 0.0138078 0)
(1.03384 0.0128994 0)
(1.03523 0.0121339 0)
(1.0363 0.0115682 0)
(1.0372 0.0110971 0)
(1.038 0.0106739 0)
(1.03873 0.0102962 0)
(1.03939 0.00996139 0)
(1.04 0.00966189 0)
(1.04056 0.0093905 0)
(1.04108 0.00914228 0)
(1.04158 0.00891361 0)
(1.04204 0.00870154 0)
(1.04248 0.0085035 0)
(1.0429 0.00831731 0)
(1.04331 0.00814107 0)
(1.0437 0.00797312 0)
(1.04408 0.00781197 0)
(1.04445 0.00765629 0)
(1.04481 0.00750485 0)
(1.04517 0.00735649 0)
(1.04552 0.00721008 0)
(1.04587 0.00706448 0)
(1.04622 0.00691845 0)
(1.04657 0.00677068 0)
(1.04693 0.00661961 0)
(1.04728 0.00646356 0)
(1.04765 0.00630037 0)
(1.04802 0.00612779 0)
(1.0484 0.00594269 0)
(1.04878 0.00574187 0)
(1.04918 0.00552075 0)
(1.0496 0.00527439 0)
(1.05003 0.00499626 0)
(1.05048 0.00467779 0)
(1.05094 0.00431022 0)
(1.05143 0.00387728 0)
(1.05194 0.00336809 0)
(1.05247 0.00275109 0)
(1.05301 0.00201319 0)
(1.05354 0.00109797 0)
(1.05405 -9.61905e-06 0)
(1.05446 -0.00138699 0)
(1.05474 -0.00303165 0)
(1.05475 -0.00499459 0)
(1.00078 0.0102111 0)
(1.01157 0.0187455 0)
(1.02201 0.016942 0)
(1.02689 0.014707 0)
(1.02871 0.0141225 0)
(1.03027 0.0135812 0)
(1.03193 0.0127427 0)
(1.03332 0.0119982 0)
(1.03439 0.0114451 0)
(1.03528 0.010989 0)
(1.03608 0.0105783 0)
(1.0368 0.0102089 0)
(1.03745 0.00988052 0)
(1.03805 0.00958632 0)
(1.0386 0.0093194 0)
(1.03911 0.00907488 0)
(1.0396 0.00884929 0)
(1.04005 0.00863978 0)
(1.04048 0.00844387 0)
(1.04089 0.00825943 0)
(1.04129 0.00808458 0)
(1.04167 0.0079177 0)
(1.04204 0.00775731 0)
(1.0424 0.0076021 0)
(1.04275 0.00745085 0)
(1.0431 0.0073024 0)
(1.04345 0.00715564 0)
(1.04379 0.00700944 0)
(1.04413 0.00686255 0)
(1.04447 0.00671367 0)
(1.04482 0.00656124 0)
(1.04517 0.00640357 0)
(1.04553 0.00623849 0)
(1.04589 0.00606369 0)
(1.04626 0.00587609 0)
(1.04664 0.00567234 0)
(1.04703 0.00544798 0)
(1.04744 0.00519785 0)
(1.04786 0.00491562 0)
(1.04829 0.00459252 0)
(1.04875 0.00421994 0)
(1.04922 0.00378193 0)
(1.04971 0.00326723 0)
(1.05022 0.00264656 0)
(1.05073 0.0019051 0)
(1.05123 0.000993626 0)
(1.05169 -0.000105858 0)
(1.05206 -0.0014564 0)
(1.05227 -0.00305834 0)
(1.05223 -0.0049524 0)
(1.00067 0.00923092 0)
(1.01031 0.0176665 0)
(1.02014 0.0164542 0)
(1.02505 0.014351 0)
(1.02695 0.0137886 0)
(1.02848 0.013344 0)
(1.03011 0.0125798 0)
(1.0315 0.0118601 0)
(1.03257 0.0113195 0)
(1.03345 0.0108783 0)
(1.03424 0.0104805 0)
(1.03495 0.0101202 0)
(1.0356 0.00979837 0)
(1.03619 0.00950964 0)
(1.03673 0.00924735 0)
(1.03723 0.00900668 0)
(1.03771 0.00878429 0)
(1.03815 0.00857743 0)
(1.03858 0.00838373 0)
(1.03898 0.00820109 0)
(1.03937 0.00802769 0)
(1.03974 0.00786192 0)
(1.0401 0.00770232 0)
(1.04045 0.0075476 0)
(1.0408 0.00739654 0)
(1.04114 0.00724802 0)
(1.04147 0.00710091 0)
(1.04181 0.00695408 0)
(1.04214 0.00680633 0)
(1.04248 0.00665633 0)
(1.04281 0.00650253 0)
(1.04316 0.00634321 0)
(1.0435 0.00617623 0)
(1.04386 0.00599921 0)
(1.04422 0.00580909 0)
(1.04459 0.00560244 0)
(1.04497 0.00537487 0)
(1.04536 0.00512106 0)
(1.04577 0.00483482 0)
(1.04619 0.00450733 0)
(1.04663 0.00413002 0)
(1.04709 0.00368745 0)
(1.04756 0.00316795 0)
(1.04804 0.00254458 0)
(1.04851 0.00180128 0)
(1.04897 0.000895113 0)
(1.04939 -0.000193018 0)
(1.0497 -0.00151542 0)
(1.04985 -0.00307256 0)
(1.04975 -0.00489756 0)
(1.00058 0.00834003 0)
(1.00917 0.0166122 0)
(1.01838 0.0159541 0)
(1.02331 0.0140029 0)
(1.02528 0.013455 0)
(1.02678 0.0130967 0)
(1.02838 0.0124102 0)
(1.02976 0.0117192 0)
(1.03083 0.0111914 0)
(1.03171 0.0107649 0)
(1.03249 0.0103805 0)
(1.0332 0.0100297 0)
(1.03383 0.00971483 0)
(1.03442 0.00943177 0)
(1.03495 0.00917427 0)
(1.03545 0.0089376 0)
(1.03591 0.00871852 0)
(1.03635 0.00851442 0)
(1.03677 0.008323 0)
(1.03716 0.00814224 0)
(1.03754 0.00797034 0)
(1.0379 0.00780572 0)
(1.03826 0.00764695 0)
(1.0386 0.00749274 0)
(1.03894 0.0073419 0)
(1.03927 0.0071933 0)
(1.0396 0.00704584 0)
(1.03992 0.00689841 0)
(1.04025 0.00674979 0)
(1.04058 0.00659867 0)
(1.04091 0.0064435 0)
(1.04124 0.00628255 0)
(1.04158 0.00611368 0)
(1.04192 0.00593446 0)
(1.04227 0.00574186 0)
(1.04263 0.00553237 0)
(1.043 0.00530166 0)
(1.04339 0.00504432 0)
(1.04378 0.00475425 0)
(1.04419 0.00442266 0)
(1.04461 0.004041 0)
(1.04505 0.00359444 0)
(1.04549 0.003071 0)
(1.04594 0.00244596 0)
(1.04638 0.00170258 0)
(1.0468 0.000803363 0)
(1.04717 -0.000270666 0)
(1.04742 -0.00156323 0)
(1.04752 -0.00307376 0)
(1.04736 -0.00482923 0)
(1.0005 0.00753339 0)
(1.00814 0.0155868 0)
(1.01673 0.0154404 0)
(1.02164 0.0136618 0)
(1.02369 0.0131236 0)
(1.02517 0.0128401 0)
(1.02673 0.0122332 0)
(1.0281 0.0115753 0)
(1.02918 0.0110608 0)
(1.03006 0.0106487 0)
(1.03083 0.0102781 0)
(1.03153 0.00993747 0)