/*--------------------------------*- C++ -*----------------------------------*\
  =========                 |
  \\      /  F ield         | OpenFOAM: The Open Source CFD Toolbox
   \\    /   O peration     | Website:  https://openfoam.org
    \\  /    A nd           | Version:  7
     \\/     M anipulation  |
\*---------------------------------------------------------------------------*/
FoamFile
{
    version     2.0;
    format      ascii;
    class       volScalarField;
    location    "0.5";
    object      yPlus;
}
// * * * * * * * * * * * * * * * * * * * * * * * * * * * * * * * * * * * * * //

dimensions      [0 0 0 0 0 0 0];

internalField   uniform 0;

boundaryField
{
    velocityInlet
    {
        type            calculated;
        value           uniform 0;
    }
    pressureOutlet
    {
        type            calculated;
        value           uniform 0;
    }
    fixedWalls
    {
        type            calculated;
        value           nonuniform List<scalar> 
100
(
2.18534
0.875758
0.553447
0.74865
0.878045
0.867273
0.786914
0.679524
0.570375
0.480688
0.429358
0.420231
0.419434
0.430361
0.60752
0.956145
1.27539
1.40729
1.1585
0.688012
1.47231
1.67269
1.50681
1.03595
0.427251
1.0321
1.23317
1.28814
1.27697
1.23951
1.19533
1.15267
1.11125
1.06671
1.01793
0.972528
0.946574
0.954717
0.991152
1.02525
1.01821
0.937966
0.768342
0.507449
0.12592
0.341901
0.280332
0.240222
0.476007
0.616818
0.706537
0.761343
0.79273
0.808617
0.813648
0.81009
0.79933
0.78341
0.765614
0.749962
0.740516
0.740982
0.754517
0.782303
0.821006
0.862643
0.897488
0.916336
0.90932
0.861871
0.749921
0.530611
0.243201
0.591086
0.688829
0.623419
0.382115
0.386655
0.642131
0.777984
0.853724
0.893934
0.911647
0.912387
0.897509
0.866905
0.821947
0.765509
0.702285
0.635301
0.566869
0.497133
0.427382
0.364762
0.314127
0.312636
0.344666
0.431728
0.507225
0.585032
)
;
    }
    bottomWall
    {
        type            calculated;
        value           nonuniform List<scalar> 
800
(
2.94479
1.9839
1.61342
1.4403
1.35517
1.29653
1.24759
1.20648
1.17194
1.14238
1.11658
1.09375
1.07335
1.05496
1.03826
1.02301
1.009
0.996076
0.984105
0.972971
0.962585
0.952865
0.943745
0.935165
0.927076
0.919434
0.9122
0.905342
0.898826
0.892629
0.886724
0.881092
0.875713
0.87057
0.865646
0.860927
0.856401
0.852055
0.847879
0.843864
0.839998
0.836275
0.832687
0.829225
0.825883
0.822657
0.819538
0.816524
0.813606
0.810783
0.808416
0.806456
0.804516
0.8026
0.80071
0.798843
0.796998
0.795177
0.793377
0.791598
0.789841
0.788104
0.786388
0.784691
0.783014
0.781356
0.779716
0.778094
0.776491
0.774905
0.773337
0.771785
0.77025
0.768732
0.76723
0.765744
0.764273
0.762818
0.761377
0.759951
0.75854
0.757143
0.75576
0.75439
0.753034
0.751692
0.750363
0.749046
0.747743
0.746452
0.745173
0.743905
0.74265
0.741407
0.740175
0.738955
0.737746
0.736548
0.73536
0.734183
0.733017
0.731861
0.730715
0.72958
0.728454
0.727339
0.726232
0.725135
0.724048
0.72297
0.721901
0.720842
0.719791
0.718749
0.717716
0.716691
0.715675
0.714667
0.713668
0.712676
0.711693
0.710717
0.709749
0.70879
0.707838
0.706892
0.705956
0.705025
0.704103
0.703188
0.70228
0.701378
0.700484
0.699596
0.698715
0.697841
0.696974
0.696112
0.695257
0.694409
0.693566
0.69273
0.691901
0.691076
0.690259
0.689446
0.68864
0.68784
0.687045
0.686256
0.685592
0.685051
0.684508
0.683963
0.683417
0.682871
0.682322
0.681773
0.681223
0.680672
0.68012
0.679567
0.679012
0.678456
0.6779
0.677342
0.676784
0.676224
0.675664
0.675102
0.67454
0.673976
0.673411
0.672846
0.672279
0.671711
0.671142
0.670572
0.670002
0.66943
0.668858
0.668284
0.667709
0.667134
0.666558
0.665981
0.665402
0.664823
0.664243
0.663661
0.663079
0.662495
0.661911
0.661327
0.66074
0.660153
0.659564
0.658975
0.658385
0.657794
0.657202
0.656608
0.656014
0.655419
0.654823
0.654224
0.653627
0.653026
0.652426
0.651825
0.651221
0.650617
0.650012
0.649405
0.648798
0.64819
0.647579
0.646968
0.646355
0.645742
0.645127
0.64451
0.643892
0.643273
0.642652
0.64203
0.641406
0.640781
0.640154
0.639524
0.638895
0.638261
0.637627
0.636988
0.636353
0.635706
0.635073
0.634411
0.633787
0.633099
0.632498
0.631761
0.631217
0.630384
0.629954
0.628951
0.62872
0.627457
0.627516
0.62591
2.9448
1.98394
1.61354
1.44051
1.35547
1.29693
1.24808
1.20707
1.17263
1.14317
1.11747
1.09475
1.07446
1.0562
1.03963
1.02453
1.01068
0.997937
0.986156
0.975234
0.965078
0.955613
0.946775
0.93851
0.930772
0.923521
0.916725
0.910355
0.904392
0.898815
0.893613
0.888776
0.8843
0.880186
0.876438
0.873073
0.870099
0.867562
0.865457
0.863919
0.86284
0.862629
0.862809
0.864559
0.866316
0.871244
0.875164
0.885068
0.89637
0.870917
0.632722
1.09791
1.29893
1.48212
1.70524
1.9351
2.16555
2.38667
2.58636
2.74495
2.83709
2.83266
2.70782
2.44427
2.02
1.379
1.14176
1.90887
2.48267
2.93312
3.29992
3.60428
3.85949
4.07465
4.25641
4.40982
4.53875
4.64621
4.73454
4.80568
4.86115
4.90235
4.93046
4.94654
4.95179
4.94622
4.93091
4.9065
4.87326
4.83132
4.78065
4.72114
4.65254
4.57453
4.48689
4.38941
4.28149
4.16105
4.02474
3.86886
3.69037
3.48806
3.26159
3.01597
2.76723
2.53623
2.34191
2.19861
2.11045
2.06593
2.04782
2.04874
2.07415
2.1363
2.23313
2.35006
2.46871
2.56968
2.64613
2.69916
2.73801
2.77242
2.79911
2.80389
2.77193
2.70034
2.59927
2.46699
2.2939
2.06832
1.78571
1.45173
1.09138
0.958784
1.25399
1.56381
1.81878
2.02356
2.18542
2.31006
2.4021
2.46532
2.50298
2.51854
2.51571
2.499
2.47247
2.44016
2.40561
2.37138
2.33897
2.30895
2.28129
2.25573
2.23234
2.21188
2.19565
2.18495
2.18111
2.1855
2.19919
2.22264
2.2565
2.3011
2.3569
2.42473
2.5052
2.59814
2.70218
2.81475
2.9325
3.0518
3.16917
3.28153
3.38652
3.48252
3.56868
3.6447
3.71062
3.76666
3.81309
3.85017
3.87824
3.89762
3.90862
3.91115
3.90494
3.89027
3.86703
3.8352
3.79468
3.74535
3.68706
3.61964
3.5429
3.45658
3.36047
3.25428
3.1377
3.0126
2.87777
2.7317
2.57357
2.40247
2.21753
2.01867
1.80856
1.59849
1.42308
1.35163
1.42019
1.56975
1.74393
1.91034
2.06169
2.19649
2.3152
2.41883
2.50844
2.58501
2.64944
2.70252
2.74495
2.77735
2.80029
2.81427
2.82004
2.81721
2.80597
2.78672
2.76216
2.73077
2.69164
2.64508
2.59139
2.53088
2.46389
2.39076
2.31182
2.22742
2.13799
2.04422
1.94722
1.84877
1.75247
1.66533
1.59679
1.60141
1.82836
2.36284
0.559996
1.24085
1.66666
2.00232
2.31234
2.60725
2.87588
3.10276
3.2786
3.40127
3.47234
3.49617
3.47471
3.41029
3.3071
3.16395
2.979
2.75017
2.46753
2.10926
1.63546
1.03041
1.28784
1.85814
2.06568
1.94106
1.78628
1.47552
1.01922
1.16565
1.61838
1.84665
1.76168
1.20996
1.92535
2.86976
3.37279
3.58706
3.70928
3.79837
3.82188
3.79337
3.72183
3.60628
3.44272
3.22464
2.93927
2.56359
2.05689
1.40272
1.46228
2.18717
2.78737
3.28474
3.70469
4.05971
4.35513
4.59181
4.76962
4.88863
4.94655
4.93893
4.87615
4.74674
4.52064
4.1793
3.69797
3.05657
2.29421
2.08622
3.17474
4.09743
4.09132
3.30813
3.07103
2.77802
2.32177
1.69272
1.48469
2.18198
2.78152
3.2312
3.57138
3.82855
4.00465
4.10228
4.12453
4.06276
3.89671
3.64203
3.41279
3.28644
3.17784
2.92206
2.54548
2.20036
1.96208
1.8323
1.64211
0.93485
1.05626
1.6088
1.9294
2.08781
2.16227
2.17704
2.17851
2.20281
2.2716
2.37281
2.47843
2.55955
2.591
2.55313
2.43163
2.21403
1.88279
1.4117
0.97597
1.52907
2.06896
2.45952
2.77427
3.03466
3.18769
3.23122
3.21774
3.19475
3.14623
3.01953
2.78214
2.41276
1.89551
1.22217
1.17938
1.6674
1.94635
2.06718
2.05222
1.96782
1.91501
1.91744
2.04993
2.25848
2.42963
2.41492
2.30145
2.43838
2.69534
2.89173
2.97941
2.94407
2.78598
2.41413
1.69074
0.854735
1.48584
2.09488
2.70367
3.44813
4.18931
4.70275
4.99445
5.19665
5.38591
5.57853
5.73602
5.86105
5.97131
6.06307
6.13183
6.18438
6.22466
6.25228
6.27016
6.28186
6.28696
6.28517
6.27704
6.26254
6.24169
6.21641
6.1903
6.16901
6.16019
6.16936
6.20014
6.25632
6.34032
6.45239
6.59916
6.78084
6.97633
7.14767
7.26972
7.34456
7.38883
7.41841
7.43898
7.45029
7.45482
7.45742
7.4606
7.46382
7.46614
7.46708
7.46604
7.46222
7.45525
7.44556
7.43389
7.42108
7.40799
7.39541
7.38393
7.37401
7.366
7.36013
7.35657
7.35544
7.35757
7.36213
7.3689
7.37782
7.38879
7.40166
7.41623
7.43231
7.44964
7.46795
7.48696
7.50635
7.5258
7.54497
7.56352
7.5811
7.59737
7.61201
7.62468
7.63509
7.64339
7.6505
7.65473
7.65577
7.6534
7.64768
7.63822
7.62491
7.60755
7.58601
7.56013
7.52977
7.49478
7.45501
7.41031
7.36053
7.30553
7.24515
7.17928
7.10779
7.0306
6.94758
6.85869
6.76385
6.66299
6.55606
6.44297
6.32364
6.19795
6.06575
5.92684
5.781
5.62791
5.46724
5.2986
5.12158
4.93575
4.74089
4.53715
4.32527
4.11444
3.93327
3.7587
3.60295
3.49017
3.45393
3.51966
3.68455
3.92404
4.20555
4.50815
4.81997
5.13684
5.45701
5.83044
6.20143
6.60265
6.95548
7.41387
7.65306
)
;
    }
    frontAndBack
    {
        type            empty;
    }
}


// ************************************************************************* //
