/*--------------------------------*- C++ -*----------------------------------*\
  =========                 |
  \\      /  F ield         | OpenFOAM: The Open Source CFD Toolbox
   \\    /   O peration     | Website:  https://openfoam.org
    \\  /    A nd           | Version:  7
     \\/     M anipulation  |
\*---------------------------------------------------------------------------*/
FoamFile
{
    version     2.0;
    format      ascii;
    class       volScalarField;
    location    "0.3";
    object      k;
}
// * * * * * * * * * * * * * * * * * * * * * * * * * * * * * * * * * * * * * //

dimensions      [0 2 -2 0 0 0 0];

internalField   nonuniform List<scalar> 
70000
(
1.08549e-05
4.21869e-06
2.82421e-06
2.31666e-06
1.99736e-06
1.75711e-06
1.56516e-06
1.4084e-06
1.27762e-06
1.16703e-06
1.07206e-06
9.90142e-07
9.18491e-07
8.55929e-07
8.00374e-07
7.5148e-07
7.07396e-07
6.68385e-07
6.32692e-07
6.01008e-07
5.71651e-07
5.45508e-07
5.21054e-07
4.9916e-07
4.78562e-07
4.59985e-07
4.42454e-07
4.26533e-07
4.11428e-07
3.97729e-07
3.84513e-07
3.72764e-07
3.6097e-07
3.50996e-07
3.40246e-07
3.31892e-07
3.21934e-07
3.15e-07
3.05755e-07
2.99991e-07
2.91642e-07
2.87518e-07
2.79706e-07
2.78019e-07
2.70573e-07
2.74509e-07
2.6338e-07
3.01116e-07
2.67458e-07
4.47537e-07
1.72794e-05
1.13671e-05
8.52015e-06
7.00999e-06
6.03674e-06
5.3107e-06
4.73131e-06
4.25789e-06
3.86289e-06
3.52889e-06
3.24208e-06
2.9947e-06
2.77828e-06
2.58933e-06
2.42148e-06
2.27377e-06
2.14054e-06
2.02265e-06
1.91478e-06
1.81898e-06
1.73028e-06
1.65119e-06
1.57733e-06
1.51107e-06
1.44885e-06
1.39262e-06
1.33965e-06
1.29149e-06
1.24577e-06
1.20439e-06
1.16431e-06
1.12889e-06
1.09305e-06
1.06303e-06
1.03033e-06
1.0052e-06
9.74938e-07
9.54017e-07
9.26042e-07
9.08362e-07
8.83022e-07
8.6928e-07
8.45901e-07
8.37856e-07
8.15741e-07
8.19707e-07
7.93984e-07
8.64896e-07
8.06547e-07
9.58205e-07
1.937e-05
1.61296e-05
1.32906e-05
1.12891e-05
9.82781e-06
8.6956e-06
7.77793e-06
7.02067e-06
6.38419e-06
5.84336e-06
5.37719e-06
4.97404e-06
4.62031e-06
4.31096e-06
4.03542e-06
3.79266e-06
3.57318e-06
3.37876e-06
3.20063e-06
3.04219e-06
2.89551e-06
2.76436e-06
2.64209e-06
2.53196e-06
2.42884e-06
2.33529e-06
2.24726e-06
2.16716e-06
2.09092e-06
2.02223e-06
1.95508e-06
1.89642e-06
1.83615e-06
1.78652e-06
1.73143e-06
1.68983e-06
1.63896e-06
1.60409e-06
1.55739e-06
1.52743e-06
1.4855e-06
1.46002e-06
1.42239e-06
1.40411e-06
1.36819e-06
1.36495e-06
1.32922e-06
1.39807e-06
1.34191e-06
1.40518e-06
1.9861e-05
1.826e-05
1.60855e-05
1.42e-05
1.26396e-05
1.13483e-05
1.02603e-05
9.33851e-06
8.54695e-06
7.86433e-06
7.26929e-06
6.75041e-06
6.29138e-06
5.88775e-06
5.52581e-06
5.20554e-06
4.91439e-06
4.65553e-06
4.41756e-06
4.20504e-06
4.00812e-06
3.83109e-06
3.66627e-06
3.5169e-06
3.37728e-06
3.25001e-06
3.13015e-06
3.02111e-06
2.9166e-06
2.82317e-06
2.7305e-06
2.65083e-06
2.5672e-06
2.49978e-06
2.42321e-06
2.36645e-06
2.29593e-06
2.24779e-06
2.1836e-06
2.14137e-06
2.08468e-06
2.0459e-06
1.99812e-06
1.9633e-06
1.9217e-06
1.90405e-06
1.85708e-06
1.90598e-06
1.85825e-06
1.87353e-06
1.99706e-05
1.7846e-05
1.60749e-05
1.47668e-05
1.36026e-05
1.25377e-05
1.15691e-05
1.07018e-05
9.92037e-06
9.22542e-06
8.60463e-06
8.05292e-06
7.55597e-06
7.11342e-06
6.71085e-06
6.351e-06
6.02021e-06
5.72372e-06
5.44928e-06
5.2022e-06
4.97254e-06
4.76421e-06
4.57007e-06
4.39264e-06
4.22658e-06
4.07448e-06
3.93039e-06
3.79964e-06
3.67269e-06
3.56048e-06
3.44686e-06
3.35104e-06
3.24782e-06
3.16642e-06
3.07164e-06
3.00252e-06
2.91549e-06
2.8558e-06
2.77741e-06
2.72345e-06
2.65581e-06
2.60342e-06
2.54976e-06
2.4966e-06
2.45452e-06
2.41698e-06
2.36372e-06
2.38899e-06
2.3436e-06
2.33619e-06
2.00095e-05
1.47038e-05
1.37485e-05
1.32121e-05
1.25923e-05
1.19281e-05
1.12784e-05
1.06581e-05
1.00803e-05
9.54675e-06
9.04506e-06
8.57978e-06
8.14458e-06
7.74632e-06
7.37297e-06
7.03208e-06
6.71217e-06
6.42095e-06
6.14794e-06
5.89852e-06
5.66481e-06
5.44975e-06
5.24819e-06
5.06192e-06
4.88629e-06
4.72468e-06
4.56949e-06
4.42943e-06
4.29061e-06
4.16965e-06
4.04383e-06
3.93987e-06
3.82449e-06
3.73543e-06
3.62899e-06
3.55224e-06
3.45477e-06
3.38666e-06
3.30011e-06
3.23588e-06
3.1635e-06
3.09801e-06
3.04321e-06
2.97514e-06
2.93309e-06
2.87886e-06
2.8227e-06
2.82923e-06
2.78082e-06
2.75215e-06
2.01332e-05
1.54659e-05
9.63486e-06
9.39982e-06
9.49477e-06
9.49417e-06
9.43551e-06
9.29722e-06
9.05559e-06
8.78216e-06
8.48594e-06
8.18941e-06
7.89579e-06
7.61403e-06
7.3352e-06
7.07597e-06
6.82715e-06
6.59409e-06
6.37008e-06
6.15957e-06
5.95862e-06
5.76923e-06
5.58898e-06
5.41987e-06
5.25742e-06
5.1071e-06
4.95925e-06
4.82691e-06
4.69171e-06
4.57578e-06
4.45089e-06
4.34988e-06
4.23365e-06
4.14576e-06
4.03767e-06
3.96006e-06
3.86141e-06
3.78965e-06
3.70371e-06
3.63244e-06
3.56292e-06
3.48799e-06
3.43599e-06
3.35992e-06
3.31731e-06
3.25518e-06
3.19836e-06
3.1913e-06
3.13793e-06
3.09111e-06
2.01714e-05
1.8675e-05
8.6874e-06
5.5408e-06
5.63172e-06
5.93662e-06
6.29482e-06
6.58026e-06
6.75891e-06
6.86766e-06
6.88579e-06
6.86625e-06
6.81288e-06
6.72528e-06
6.61287e-06
6.49193e-06
6.35312e-06
6.21179e-06
6.06896e-06
5.92712e-06
5.78693e-06
5.64983e-06
5.51568e-06
5.38726e-06
5.25943e-06
5.14265e-06
5.02346e-06
4.91795e-06
4.80482e-06
4.70957e-06
4.60161e-06
4.51636e-06
4.41333e-06
4.33705e-06
4.23987e-06
4.16972e-06
4.08141e-06
4.01251e-06
3.93724e-06
3.86508e-06
3.80548e-06
3.72917e-06
3.68278e-06
3.60811e-06
3.56622e-06
3.50482e-06
3.44887e-06
3.43082e-06
3.37925e-06
3.31281e-06
2.01672e-05
1.97236e-05
1.61643e-05
4.85734e-06
3.04268e-06
3.1066e-06
3.37631e-06
3.80659e-06
4.17169e-06
4.48967e-06
4.73563e-06
4.92517e-06
5.06404e-06
5.16453e-06
5.22173e-06
5.25775e-06
5.26068e-06
5.25202e-06
5.23003e-06
5.19096e-06
5.14367e-06
5.08856e-06
5.02831e-06
4.96498e-06
4.89658e-06
4.82961e-06
4.75385e-06
4.68705e-06
4.60893e-06
4.54471e-06
4.46605e-06
4.40573e-06
4.32775e-06
4.27126e-06
4.19596e-06
4.1408e-06
4.07272e-06
4.01397e-06
3.95798e-06
3.89446e-06
3.84981e-06
3.78311e-06
3.74537e-06
3.68135e-06
3.64423e-06
3.59051e-06
3.54012e-06
3.51298e-06
3.47015e-06
3.38949e-06
2.01477e-05
1.99341e-05
1.90646e-05
1.44935e-05
5.23524e-06
2.15382e-06
1.91465e-06
1.99436e-06
2.20814e-06
2.50702e-06
2.78183e-06
3.03505e-06
3.2584e-06
3.4549e-06
3.61747e-06
3.75525e-06
3.86618e-06
3.95413e-06
4.02529e-06
4.07748e-06
4.11615e-06
4.14069e-06
4.15579e-06
4.15966e-06
4.15671e-06
4.14963e-06
4.13339e-06
4.11875e-06
4.09093e-06
4.07025e-06
4.03555e-06
4.01081e-06
3.9717e-06
3.94395e-06
3.90273e-06
3.8714e-06
3.83301e-06
3.79437e-06
3.76148e-06
3.71596e-06
3.68712e-06
3.63833e-06
3.61116e-06
3.56324e-06
3.53428e-06
3.49158e-06
3.45194e-06
3.41803e-06
3.38889e-06
3.3102e-06
2.01217e-05
1.9966e-05
1.96419e-05
1.85443e-05
1.52056e-05
8.34539e-06
3.09781e-06
1.63219e-06
1.44219e-06
1.44947e-06
1.52659e-06
1.68775e-06
1.869e-06
2.04556e-06
2.21485e-06
2.37336e-06
2.52002e-06
2.65039e-06
2.76841e-06
2.8717e-06
2.96296e-06
3.04189e-06
3.1094e-06
3.16792e-06
3.21491e-06
3.2573e-06
3.28796e-06
3.31765e-06
3.33541e-06
3.35391e-06
3.36189e-06
3.37082e-06
3.37216e-06
3.37172e-06
3.36855e-06
3.36334e-06
3.35614e-06
3.34265e-06
3.33454e-06
3.31732e-06
3.30677e-06
3.28491e-06
3.27218e-06
3.24718e-06
3.23119e-06
3.20406e-06
3.17949e-06
3.14895e-06
3.12585e-06
3.05896e-06
2.00982e-05
1.99327e-05
1.97569e-05
1.93513e-05
1.85035e-05
1.65306e-05
1.23147e-05
6.84613e-06
2.97963e-06
1.49186e-06
1.24271e-06
1.14738e-06
1.15159e-06
1.19404e-06
1.28629e-06
1.39247e-06
1.5048e-06
1.61385e-06
1.72359e-06
1.82826e-06
1.9277e-06
2.02126e-06
2.10702e-06
2.18781e-06
2.25982e-06
2.32809e-06
2.38706e-06
2.44365e-06
2.49142e-06
2.53703e-06
2.57519e-06
2.61091e-06
2.641e-06
2.66788e-06
2.69119e-06
2.70975e-06
2.72929e-06
2.73903e-06
2.75405e-06
2.75949e-06
2.76801e-06
2.76964e-06
2.77149e-06
2.76987e-06
2.76627e-06
2.75825e-06
2.74826e-06
2.72865e-06
2.71131e-06
2.65987e-06
2.00782e-05
1.98876e-05
1.97566e-05
1.94597e-05
1.91439e-05
1.86383e-05
1.75505e-05
1.54184e-05
1.17293e-05
7.43478e-06
3.97567e-06
1.91166e-06
1.20813e-06
1.05683e-06
9.81804e-07
9.42174e-07
9.53285e-07
9.86977e-07
1.04897e-06
1.11273e-06
1.1814e-06
1.25172e-06
1.32158e-06
1.39258e-06
1.4605e-06
1.52757e-06
1.59005e-06
1.65137e-06
1.70783e-06
1.76246e-06
1.81284e-06
1.86062e-06
1.90503e-06
1.94572e-06
1.98529e-06
2.01771e-06
2.05416e-06
2.07903e-06
2.11024e-06
2.13112e-06
2.15527e-06
2.17183e-06
2.19016e-06
2.2014e-06
2.21207e-06
2.21876e-06
2.21789e-06
2.21314e-06
2.2028e-06
2.17091e-06
2.00614e-05
1.98539e-05
1.9734e-05
1.94699e-05
1.92533e-05
1.90448e-05
1.87331e-05
1.81873e-05
1.70922e-05
1.52271e-05
1.25602e-05
9.22962e-06
5.96989e-06
3.47827e-06
1.88226e-06
1.16837e-06
9.64689e-07
8.90733e-07
8.3641e-07
7.9617e-07
7.97888e-07
8.11374e-07
8.40849e-07
8.80123e-07
9.19632e-07
9.62908e-07
1.00693e-06
1.05265e-06
1.0983e-06
1.14422e-06
1.1895e-06
1.23308e-06
1.27655e-06
1.31648e-06
1.35844e-06
1.39284e-06
1.43398e-06
1.46325e-06
1.50053e-06
1.5278e-06
1.55865e-06
1.58275e-06
1.60971e-06
1.62768e-06
1.6478e-06
1.66217e-06
1.67178e-06
1.67406e-06
1.67104e-06
1.65756e-06
2.00476e-05
1.98303e-05
1.97073e-05
1.94477e-05
1.92701e-05
1.91127e-05
1.89627e-05
1.8748e-05
1.84596e-05
1.791e-05
1.70749e-05
1.56984e-05
1.38826e-05
1.15344e-05
8.85865e-06
6.25249e-06
4.0822e-06
2.50942e-06
1.50966e-06
1.03261e-06
8.63328e-07
7.99423e-07
7.51178e-07
7.11404e-07
6.81757e-07
6.79332e-07
6.85208e-07
6.99786e-07
7.21707e-07
7.45818e-07
7.71537e-07
7.97578e-07
8.26685e-07
8.54126e-07
8.85921e-07
9.1227e-07
9.46464e-07
9.71015e-07
1.00334e-06
1.02898e-06
1.05623e-06
1.08066e-06
1.10716e-06
1.12559e-06
1.14752e-06
1.16491e-06
1.17595e-06
1.18654e-06
1.18599e-06
1.18039e-06
2.00363e-05
1.98125e-05
1.96848e-05
1.94173e-05
1.92559e-05
1.91062e-05
1.89976e-05
1.88469e-05
1.87098e-05
1.84988e-05
1.82464e-05
1.78314e-05
1.72317e-05
1.63624e-05
1.51642e-05
1.36316e-05
1.18262e-05
9.74468e-06
7.6023e-06
5.6034e-06
3.92211e-06
2.64129e-06
1.72327e-06
1.15934e-06
8.80785e-07
7.65012e-07
7.11763e-07
6.74646e-07
6.39069e-07
6.09922e-07
5.89989e-07
5.8366e-07
5.85984e-07
5.92099e-07
6.04768e-07
6.16474e-07
6.34062e-07
6.46726e-07
6.64584e-07
6.8085e-07
6.97339e-07
7.1469e-07
7.33688e-07
7.47179e-07
7.64477e-07
7.78851e-07
7.88515e-07
7.9868e-07
7.98185e-07
7.92424e-07
2.00272e-05
1.97986e-05
1.96655e-05
1.93952e-05
1.923e-05
1.90784e-05
1.89794e-05
1.88501e-05
1.87339e-05
1.85944e-05
1.84586e-05
1.82884e-05
1.80808e-05
1.77948e-05
1.74101e-05
1.68679e-05
1.61619e-05
1.52424e-05
1.41038e-05
1.2764e-05
1.12647e-05
9.60356e-06
7.89244e-06
6.25193e-06
4.764e-06
3.52217e-06
2.53895e-06
1.78797e-06
1.25974e-06
9.37104e-07
7.65658e-07
6.82275e-07
6.3819e-07
6.07363e-07
5.80197e-07
5.53585e-07
5.31807e-07
5.15588e-07
5.06065e-07
5.03915e-07
5.05169e-07
5.08503e-07
5.15343e-07
5.20028e-07
5.28261e-07
5.34656e-07
5.39949e-07
5.45314e-07
5.4857e-07
5.53603e-07
2.00201e-05
1.979e-05
1.96455e-05
1.93785e-05
1.92057e-05
1.90489e-05
1.89409e-05
1.88234e-05
1.8712e-05
1.85878e-05
1.847e-05
1.83445e-05
1.82207e-05
1.80778e-05
1.79222e-05
1.77238e-05
1.74812e-05
1.71623e-05
1.67601e-05
1.62384e-05
1.56047e-05
1.48256e-05
1.39113e-05
1.28543e-05
1.17013e-05
1.04459e-05
9.10887e-06
7.7554e-06
6.43805e-06
5.22083e-06
4.12394e-06
3.20603e-06
2.45377e-06
1.84835e-06
1.38251e-06
1.04899e-06
8.32292e-07
7.02678e-07
6.29083e-07
5.86535e-07
5.58696e-07
5.36776e-07
5.19496e-07
5.01006e-07
4.89915e-07
4.76463e-07
4.75575e-07
4.81077e-07
4.98573e-07
5.38091e-07
2.00145e-05
1.979e-05
1.96192e-05
1.93648e-05
1.91851e-05
1.90217e-05
1.89046e-05
1.87868e-05
1.86714e-05
1.85521e-05
1.84391e-05
1.83229e-05
1.82111e-05
1.80929e-05
1.79798e-05
1.78591e-05
1.77352e-05
1.75922e-05
1.74353e-05
1.72404e-05
1.70124e-05
1.67276e-05
1.63871e-05
1.59677e-05
1.54759e-05
1.48939e-05
1.4228e-05
1.34635e-05
1.26256e-05
1.17023e-05
1.07433e-05
9.7188e-06
8.65944e-06
7.5967e-06
6.56258e-06
5.58179e-06
4.68394e-06
3.87418e-06
3.18136e-06
2.60172e-06
2.12078e-06
1.73321e-06
1.43232e-06
1.20927e-06
1.06772e-06
9.74491e-07
9.76107e-07
1.01646e-06
1.12419e-06
1.30999e-06
2.00103e-05
1.97941e-05
1.95923e-05
1.93508e-05
1.91662e-05
1.89957e-05
1.88706e-05
1.87506e-05
1.86306e-05
1.85094e-05
1.83924e-05
1.8277e-05
1.81659e-05
1.80549e-05
1.79471e-05
1.78405e-05
1.77327e-05
1.7624e-05
1.75187e-05
1.74057e-05
1.72905e-05
1.71617e-05
1.70208e-05
1.68561e-05
1.66713e-05
1.64485e-05
1.61944e-05
1.58938e-05
1.55479e-05
1.51486e-05
1.46968e-05
1.41913e-05
1.36257e-05
1.30111e-05
1.23361e-05
1.16314e-05
1.08783e-05
1.0118e-05
9.33104e-06
8.53716e-06
7.75144e-06
7.0049e-06
6.31078e-06
5.68238e-06
5.16411e-06
4.73457e-06
4.45903e-06
4.30104e-06
4.32844e-06
4.44172e-06
2.00071e-05
1.98017e-05
1.95674e-05
1.93373e-05
1.91483e-05
1.89715e-05
1.88378e-05
1.87161e-05
1.85906e-05
1.84683e-05
1.83448e-05
1.82292e-05
1.8113e-05
1.8001e-05
1.78898e-05
1.77856e-05
1.76792e-05
1.75779e-05
1.74788e-05
1.73798e-05
1.72813e-05
1.71832e-05
1.7084e-05
1.69835e-05
1.68833e-05
1.67725e-05
1.66562e-05
1.65303e-05
1.63868e-05
1.62313e-05
1.60514e-05
1.58527e-05
1.56228e-05
1.53758e-05
1.50801e-05
1.47758e-05
1.44154e-05
1.40415e-05
1.36257e-05
1.31911e-05
1.27117e-05
1.22356e-05
1.17349e-05
1.12318e-05
1.07514e-05
1.03151e-05
9.89555e-06
9.59447e-06
9.37922e-06
9.304e-06
2.00047e-05
1.98105e-05
1.95439e-05
1.93241e-05
1.91308e-05
1.8949e-05
1.8806e-05
1.86831e-05
1.85517e-05
1.84288e-05
1.82986e-05
1.81822e-05
1.80609e-05
1.79472e-05
1.78311e-05
1.77271e-05
1.7614e-05
1.75123e-05
1.741e-05
1.73116e-05
1.7214e-05
1.71224e-05
1.70278e-05
1.69379e-05
1.6851e-05
1.67597e-05
1.66693e-05
1.65834e-05
1.64898e-05
1.64041e-05
1.63058e-05
1.62131e-05
1.61021e-05
1.60037e-05
1.5867e-05
1.57557e-05
1.55954e-05
1.54537e-05
1.52741e-05
1.51046e-05
1.48804e-05
1.4688e-05
1.44498e-05
1.42072e-05
1.39482e-05
1.37269e-05
1.34392e-05
1.3207e-05
1.30051e-05
1.28636e-05
2.0003e-05
1.982e-05
1.95219e-05
1.93106e-05
1.91131e-05
1.89281e-05
1.87751e-05
1.86512e-05
1.85143e-05
1.83911e-05
1.82545e-05
1.81371e-05
1.80109e-05
1.78951e-05
1.77744e-05
1.76699e-05
1.75509e-05
1.74484e-05
1.73418e-05
1.72416e-05
1.71392e-05
1.70453e-05
1.69465e-05
1.68554e-05
1.67673e-05
1.66776e-05
1.65911e-05
1.6512e-05
1.64241e-05
1.6352e-05
1.62645e-05
1.61953e-05
1.61043e-05
1.60424e-05
1.59454e-05
1.58883e-05
1.57899e-05
1.5725e-05
1.56308e-05
1.55624e-05
1.54458e-05
1.53742e-05
1.527e-05
1.51603e-05
1.50392e-05
1.49512e-05
1.4797e-05
1.4653e-05
1.45144e-05
1.43993e-05
2.00018e-05
1.98289e-05
1.95017e-05
1.92963e-05
1.90951e-05
1.89087e-05
1.87456e-05
1.86204e-05
1.84787e-05
1.83552e-05
1.82129e-05
1.80943e-05
1.7964e-05
1.78455e-05
1.77214e-05
1.76153e-05
1.74914e-05
1.73877e-05
1.72774e-05
1.71751e-05
1.70693e-05
1.69725e-05
1.68703e-05
1.67761e-05
1.66848e-05
1.65911e-05
1.64992e-05
1.64178e-05
1.63255e-05
1.62529e-05
1.61621e-05
1.60958e-05
1.60078e-05
1.59515e-05
1.58618e-05
1.58106e-05
1.57256e-05
1.56727e-05
1.55983e-05
1.55474e-05
1.54612e-05
1.54142e-05
1.53508e-05
1.5284e-05
1.52082e-05
1.51613e-05
1.50694e-05
1.4969e-05
1.48625e-05
1.47789e-05
2.00009e-05
1.98305e-05
1.94858e-05
1.92819e-05
1.90773e-05
1.88912e-05
1.87182e-05
1.85912e-05
1.84455e-05
1.83214e-05
1.81747e-05
1.80544e-05
1.79206e-05
1.77994e-05
1.76727e-05
1.75644e-05
1.74369e-05
1.73315e-05
1.72181e-05
1.71135e-05
1.70049e-05
1.69051e-05
1.68006e-05
1.67035e-05
1.66089e-05
1.65129e-05
1.64162e-05
1.63328e-05
1.62359e-05
1.61601e-05
1.60657e-05
1.59945e-05
1.5902e-05
1.58411e-05
1.57496e-05
1.56923e-05
1.5608e-05
1.55523e-05
1.54795e-05
1.54296e-05
1.53497e-05
1.53068e-05
1.52472e-05
1.51918e-05
1.51216e-05
1.50796e-05
1.49985e-05
1.49142e-05
1.48129e-05
1.47368e-05
2.00003e-05
1.98288e-05
1.94724e-05
1.92662e-05
1.90593e-05
1.88753e-05
1.86931e-05
1.85639e-05
1.84149e-05
1.82901e-05
1.814e-05
1.8018e-05
1.78811e-05
1.77577e-05
1.7629e-05
1.7518e-05
1.73883e-05
1.72809e-05
1.71648e-05
1.70584e-05
1.6947e-05
1.68446e-05
1.6738e-05
1.66386e-05
1.65405e-05
1.6443e-05
1.63423e-05
1.62572e-05
1.6157e-05
1.60774e-05
1.59816e-05
1.59053e-05
1.58103e-05
1.57459e-05
1.56505e-05
1.5589e-05
1.55006e-05
1.54431e-05
1.5364e-05
1.53114e-05
1.52259e-05
1.51818e-05
1.51136e-05
1.50609e-05
1.49869e-05
1.49375e-05
1.48548e-05
1.47746e-05
1.46645e-05
1.45796e-05
2e-05
1.98271e-05
1.94612e-05
1.92487e-05
1.90405e-05
1.88607e-05
1.86705e-05
1.85385e-05
1.8387e-05
1.82617e-05
1.81091e-05
1.79857e-05
1.78459e-05
1.77214e-05
1.75906e-05
1.74771e-05
1.73462e-05
1.72368e-05
1.71184e-05
1.70107e-05
1.68964e-05
1.67923e-05
1.66835e-05
1.65827e-05
1.64804e-05
1.63821e-05
1.62781e-05
1.61908e-05
1.60887e-05
1.6005e-05
1.59089e-05
1.58279e-05
1.57308e-05
1.56646e-05
1.55648e-05
1.5502e-05
1.54082e-05
1.53513e-05
1.52657e-05
1.52119e-05
1.51216e-05
1.50764e-05
1.4999e-05
1.49483e-05
1.48667e-05
1.48087e-05
1.47237e-05
1.46377e-05
1.45179e-05
1.44198e-05
1.99999e-05
1.98259e-05
1.94532e-05
1.92308e-05
1.90217e-05
1.88478e-05
1.8651e-05
1.85156e-05
1.83622e-05
1.82367e-05
1.80825e-05
1.7958e-05
1.78155e-05
1.76911e-05
1.75583e-05
1.74427e-05
1.73116e-05
1.72001e-05
1.70798e-05
1.69713e-05
1.68543e-05
1.67491e-05
1.66383e-05
1.65366e-05
1.64303e-05
1.63313e-05
1.62251e-05
1.61348e-05
1.60319e-05
1.5944e-05
1.58478e-05
1.57627e-05
1.56636e-05
1.55963e-05
1.54924e-05
1.54289e-05
1.53302e-05
1.52744e-05
1.51832e-05
1.51284e-05
1.5035e-05
1.4988e-05
1.49048e-05
1.48537e-05
1.47639e-05
1.47021e-05
1.46114e-05
1.4516e-05
1.4389e-05
1.42858e-05
1.99999e-05
1.98253e-05
1.94483e-05
1.92135e-05
1.90037e-05
1.88367e-05
1.86355e-05
1.84961e-05
1.83412e-05
1.82159e-05
1.80607e-05
1.79358e-05
1.77909e-05
1.76675e-05
1.75328e-05
1.74156e-05
1.7285e-05
1.71719e-05
1.70502e-05
1.6941e-05
1.68221e-05
1.67161e-05
1.66037e-05
1.65011e-05
1.63916e-05
1.62918e-05
1.61845e-05
1.60906e-05
1.59874e-05
1.58959e-05
1.57991e-05
1.5711e-05
1.56098e-05
1.55411e-05
1.54346e-05
1.5369e-05
1.52675e-05
1.52118e-05
1.51158e-05
1.50599e-05
1.49648e-05
1.49142e-05
1.4829e-05
1.47735e-05
1.46773e-05
1.46146e-05
1.45133e-05
1.44096e-05
1.42796e-05
1.41697e-05
1.99999e-05
1.98251e-05
1.94462e-05
1.91979e-05
1.89872e-05
1.88275e-05
1.86244e-05
1.84804e-05
1.83245e-05
1.81997e-05
1.80443e-05
1.79194e-05
1.77729e-05
1.7651e-05
1.75149e-05
1.73968e-05
1.72672e-05
1.71531e-05
1.70302e-05
1.69207e-05
1.68008e-05
1.66941e-05
1.6581e-05
1.64773e-05
1.63655e-05
1.62648e-05
1.61571e-05
1.60599e-05
1.59561e-05
1.58628e-05
1.57636e-05
1.56744e-05
1.55707e-05
1.55e-05
1.53928e-05
1.53232e-05
1.52213e-05
1.51642e-05
1.5064e-05
1.50072e-05
1.4911e-05
1.48557e-05
1.47702e-05
1.47073e-05
1.46077e-05
1.45429e-05
1.44285e-05
1.43195e-05
1.41871e-05
1.4065e-05
1.99999e-05
1.98253e-05
1.94467e-05
1.91847e-05
1.89727e-05
1.88199e-05
1.86178e-05
1.84689e-05
1.83123e-05
1.81886e-05
1.80335e-05
1.79094e-05
1.77619e-05
1.76418e-05
1.75051e-05
1.73867e-05
1.72585e-05
1.71441e-05
1.70208e-05
1.69112e-05
1.67912e-05
1.66842e-05
1.65707e-05
1.64663e-05
1.6353e-05
1.62519e-05
1.61434e-05
1.60442e-05
1.59388e-05
1.58456e-05
1.57425e-05
1.56535e-05
1.5548e-05
1.54739e-05
1.53681e-05
1.5293e-05
1.51926e-05
1.51327e-05
1.50288e-05
1.49718e-05
1.48738e-05
1.48141e-05
1.47281e-05
1.46565e-05
1.4556e-05
1.44853e-05
1.43588e-05
1.42463e-05
1.41077e-05
1.39703e-05
1.99999e-05
1.98261e-05
1.94495e-05
1.91745e-05
1.89605e-05
1.88137e-05
1.86155e-05
1.8462e-05
1.83048e-05
1.81826e-05
1.80283e-05
1.79057e-05
1.77584e-05
1.76401e-05
1.75039e-05
1.73863e-05
1.72594e-05
1.71455e-05
1.70221e-05
1.69129e-05
1.67934e-05
1.66865e-05
1.65727e-05
1.64683e-05
1.63542e-05
1.62533e-05
1.61437e-05
1.6044e-05
1.59369e-05
1.58445e-05
1.57381e-05
1.56486e-05
1.55434e-05
1.54642e-05
1.53607e-05
1.52805e-05
1.51819e-05
1.5118e-05
1.50115e-05
1.49547e-05
1.48531e-05
1.47916e-05
1.47016e-05
1.46232e-05
1.45225e-05
1.44413e-05
1.43057e-05
1.4191e-05
1.40403e-05
1.38855e-05
1.99999e-05
1.98273e-05
1.94549e-05
1.91679e-05
1.89511e-05
1.88092e-05
1.86168e-05
1.846e-05
1.8302e-05
1.81818e-05
1.8029e-05
1.79084e-05
1.77617e-05
1.76452e-05
1.75098e-05
1.73934e-05
1.72679e-05
1.71553e-05
1.70325e-05
1.69241e-05
1.68059e-05
1.66996e-05
1.65859e-05
1.64819e-05
1.63675e-05
1.62668e-05
1.61563e-05
1.60565e-05
1.59484e-05
1.58557e-05
1.5748e-05
1.56573e-05
1.55531e-05
1.54698e-05
1.53678e-05
1.52849e-05
1.51869e-05
1.51196e-05
1.50118e-05
1.49553e-05
1.48489e-05
1.47878e-05
1.46903e-05
1.46086e-05
1.45057e-05
1.44111e-05
1.42697e-05
1.4152e-05
1.39842e-05
1.38129e-05
1.99999e-05
1.9829e-05
1.94624e-05
1.91651e-05
1.89446e-05
1.8806e-05
1.86216e-05
1.84625e-05
1.83035e-05
1.81855e-05
1.80343e-05
1.79167e-05
1.77714e-05
1.76573e-05
1.75237e-05
1.74097e-05
1.7286e-05
1.71756e-05
1.70543e-05
1.69474e-05
1.6831e-05
1.67259e-05
1.66127e-05
1.65099e-05
1.63961e-05
1.62959e-05
1.6185e-05
1.60855e-05
1.59769e-05
1.58835e-05
1.57753e-05
1.56829e-05
1.558e-05
1.54924e-05
1.5391e-05
1.53069e-05
1.5208e-05
1.51368e-05
1.50286e-05
1.49708e-05
1.48601e-05
1.47996e-05
1.46929e-05
1.46113e-05
1.45024e-05
1.43949e-05
1.42508e-05
1.4125e-05
1.39376e-05
1.37574e-05
1.99999e-05
1.98313e-05
1.94717e-05
1.91662e-05
1.89412e-05
1.88043e-05
1.8629e-05
1.84698e-05
1.83094e-05
1.81937e-05
1.80449e-05
1.79311e-05
1.77875e-05
1.76761e-05
1.75448e-05
1.74338e-05
1.73121e-05
1.72043e-05
1.70851e-05
1.69805e-05
1.68662e-05
1.67626e-05
1.66508e-05
1.65496e-05
1.64369e-05
1.63374e-05
1.62269e-05
1.61282e-05
1.60199e-05
1.59262e-05
1.58178e-05
1.57255e-05
1.56221e-05
1.55335e-05
1.54311e-05
1.53469e-05
1.52477e-05
1.51717e-05
1.50663e-05
1.50045e-05
1.48904e-05
1.48298e-05
1.47131e-05
1.46323e-05
1.45135e-05
1.43959e-05
1.42491e-05
1.41089e-05
1.39037e-05
1.37211e-05
1.99999e-05
1.98341e-05
1.94828e-05
1.91711e-05
1.8941e-05
1.88043e-05
1.86385e-05
1.84813e-05
1.83196e-05
1.8206e-05
1.80598e-05
1.79507e-05
1.78085e-05
1.77008e-05
1.75719e-05
1.74642e-05
1.73452e-05
1.72404e-05
1.71238e-05
1.70223e-05
1.69103e-05
1.68086e-05
1.66989e-05
1.65998e-05
1.64884e-05
1.639e-05
1.62806e-05
1.6183e-05
1.60752e-05
1.59818e-05
1.58737e-05
1.57815e-05
1.56778e-05
1.55885e-05
1.54864e-05
1.54002e-05
1.53028e-05
1.52206e-05
1.51209e-05
1.50506e-05
1.49372e-05
1.48747e-05
1.47492e-05
1.46685e-05
1.45386e-05
1.44133e-05
1.42607e-05
1.41028e-05
1.38849e-05
1.37006e-05
1.99999e-05
1.98374e-05
1.94948e-05
1.91802e-05
1.89442e-05
1.8806e-05
1.86496e-05
1.84961e-05
1.83333e-05
1.82216e-05
1.80785e-05
1.79743e-05
1.78336e-05
1.77303e-05
1.76038e-05
1.75e-05
1.73841e-05
1.72826e-05
1.71692e-05
1.70714e-05
1.69617e-05
1.68625e-05
1.67557e-05
1.66589e-05
1.6549e-05
1.64525e-05
1.63446e-05
1.62482e-05
1.61414e-05
1.60487e-05
1.59412e-05
1.58492e-05
1.57457e-05
1.56563e-05
1.55541e-05
1.54668e-05
1.53697e-05
1.52844e-05
1.51876e-05
1.51093e-05
1.49984e-05
1.49318e-05
1.47979e-05
1.47171e-05
1.45743e-05
1.44445e-05
1.42816e-05
1.41051e-05
1.38791e-05
1.36907e-05
1.99999e-05
1.9841e-05
1.95077e-05
1.91926e-05
1.89507e-05
1.881e-05
1.86622e-05
1.85139e-05
1.83507e-05
1.82403e-05
1.81006e-05
1.80011e-05
1.78623e-05
1.7764e-05
1.76396e-05
1.75403e-05
1.74277e-05
1.73298e-05
1.72202e-05
1.71263e-05
1.70191e-05
1.69231e-05
1.68196e-05
1.67252e-05
1.66172e-05
1.65232e-05
1.64172e-05
1.63221e-05
1.62167e-05
1.61253e-05
1.60185e-05
1.59269e-05
1.58239e-05
1.57348e-05
1.56321e-05
1.55444e-05
1.54472e-05
1.53604e-05
1.52645e-05
1.51787e-05
1.50721e-05
1.49975e-05
1.48583e-05
1.47761e-05
1.46192e-05
1.44866e-05
1.43087e-05
1.4115e-05
1.38843e-05
1.36857e-05
1.99999e-05
1.9845e-05
1.95212e-05
1.92077e-05
1.89605e-05
1.88164e-05
1.86758e-05
1.85338e-05
1.83712e-05
1.82615e-05
1.81256e-05
1.803e-05
1.78938e-05
1.78007e-05
1.76782e-05
1.75842e-05
1.74747e-05
1.73808e-05
1.72756e-05
1.71852e-05
1.70812e-05
1.69891e-05
1.68888e-05
1.6797e-05
1.66914e-05
1.66003e-05
1.64963e-05
1.6403e-05
1.62993e-05
1.62095e-05
1.61035e-05
1.60128e-05
1.59106e-05
1.58217e-05
1.57186e-05
1.5631e-05
1.55336e-05
1.5446e-05
1.53488e-05
1.52578e-05
1.51549e-05
1.50703e-05
1.49284e-05
1.48428e-05
1.46712e-05
1.45367e-05
1.43397e-05
1.41325e-05
1.38967e-05
1.36791e-05
1.99999e-05
1.98491e-05
1.9535e-05
1.92252e-05
1.89733e-05
1.88254e-05
1.86903e-05
1.8555e-05
1.83945e-05
1.82846e-05
1.81529e-05
1.80602e-05
1.79278e-05
1.78394e-05
1.77188e-05
1.76308e-05
1.75238e-05
1.74346e-05
1.73339e-05
1.72469e-05
1.71466e-05
1.70589e-05
1.69617e-05
1.68728e-05
1.67702e-05
1.66822e-05
1.65802e-05
1.64891e-05
1.63876e-05
1.62992e-05
1.61941e-05
1.6105e-05
1.60036e-05
1.59147e-05
1.58114e-05
1.57246e-05
1.56266e-05
1.55383e-05
1.54382e-05
1.53455e-05
1.52433e-05
1.51487e-05
1.50064e-05
1.49157e-05
1.47266e-05
1.45909e-05
1.43743e-05
1.4156e-05
1.39096e-05
1.36669e-05
1.99999e-05
1.98534e-05
1.9549e-05
1.92444e-05
1.89891e-05
1.8837e-05
1.87054e-05
1.8577e-05
1.84198e-05
1.83096e-05
1.81819e-05
1.80911e-05
1.79636e-05
1.7879e-05
1.77609e-05
1.76788e-05
1.75742e-05
1.74902e-05
1.73938e-05
1.73102e-05
1.72142e-05
1.71312e-05
1.70367e-05
1.69511e-05
1.68521e-05
1.67672e-05
1.66673e-05
1.65788e-05
1.64795e-05
1.63928e-05
1.6289e-05
1.62016e-05
1.61008e-05
1.6012e-05
1.5909e-05
1.58234e-05
1.57242e-05
1.56349e-05
1.55314e-05
1.54397e-05
1.53345e-05
1.52313e-05
1.50902e-05
1.49906e-05
1.47835e-05
1.46494e-05
1.44094e-05
1.4181e-05
1.39186e-05
1.36501e-05
1.99999e-05
1.98578e-05
1.9563e-05
1.9265e-05
1.90076e-05
1.88513e-05
1.87211e-05
1.85996e-05
1.84465e-05
1.83362e-05
1.82116e-05
1.81225e-05
1.80005e-05
1.79189e-05
1.78041e-05
1.77271e-05
1.76253e-05
1.75466e-05
1.74542e-05
1.73743e-05
1.7283e-05
1.72044e-05
1.71126e-05
1.7031e-05
1.69358e-05
1.68539e-05
1.67563e-05
1.66708e-05
1.65737e-05
1.64886e-05
1.63867e-05
1.63008e-05
1.62005e-05
1.6112e-05
1.60101e-05
1.5925e-05
1.5824e-05
1.57337e-05
1.56275e-05
1.55379e-05
1.54263e-05
1.5317e-05
1.51772e-05
1.50595e-05
1.48479e-05
1.47095e-05
1.44399e-05
1.42045e-05
1.3922e-05
1.36317e-05
1.99999e-05
1.98622e-05
1.9577e-05
1.92865e-05
1.90285e-05
1.8868e-05
1.87373e-05
1.86223e-05
1.84739e-05
1.83643e-05
1.82416e-05
1.81545e-05
1.80377e-05
1.79586e-05
1.78476e-05
1.77749e-05
1.76764e-05
1.76028e-05
1.75141e-05
1.74384e-05
1.73519e-05
1.72775e-05
1.71884e-05
1.71115e-05
1.702e-05
1.69407e-05
1.6846e-05
1.67636e-05
1.66685e-05
1.65853e-05
1.64858e-05
1.64008e-05
1.63014e-05
1.62135e-05
1.6113e-05
1.60276e-05
1.59244e-05
1.58335e-05
1.57258e-05
1.56368e-05
1.55172e-05
1.54051e-05
1.5263e-05
1.51259e-05
1.49175e-05
1.47615e-05
1.44672e-05
1.42257e-05
1.3919e-05
1.36135e-05
1.99999e-05
1.98666e-05
1.95907e-05
1.93088e-05
1.90512e-05
1.88867e-05
1.87541e-05
1.8645e-05
1.85014e-05
1.83934e-05
1.82713e-05
1.81869e-05
1.80743e-05
1.79978e-05
1.78909e-05
1.78216e-05
1.77268e-05
1.76579e-05
1.75729e-05
1.75019e-05
1.742e-05
1.73492e-05
1.72633e-05
1.71918e-05
1.71035e-05
1.70267e-05
1.69355e-05
1.68563e-05
1.67628e-05
1.6682e-05
1.6585e-05
1.65005e-05
1.64022e-05
1.63155e-05
1.6216e-05
1.61294e-05
1.60245e-05
1.59336e-05
1.58251e-05
1.57341e-05
1.56067e-05
1.5494e-05
1.53452e-05
1.51919e-05
1.49866e-05
1.48053e-05
1.44911e-05
1.42419e-05
1.39093e-05
1.35961e-05
1.99999e-05
1.9871e-05
1.96042e-05
1.93314e-05
1.90753e-05
1.89072e-05
1.87715e-05
1.86675e-05
1.85288e-05
1.84228e-05
1.83007e-05
1.82196e-05
1.81099e-05
1.80361e-05
1.79333e-05
1.78669e-05
1.7776e-05
1.77115e-05
1.76299e-05
1.75643e-05
1.74863e-05
1.7419e-05
1.73372e-05
1.72709e-05
1.71854e-05
1.71113e-05
1.70239e-05
1.69478e-05
1.68561e-05
1.67777e-05
1.6683e-05
1.65991e-05
1.65021e-05
1.64172e-05
1.63177e-05
1.62293e-05
1.61238e-05
1.6033e-05
1.59236e-05
1.5828e-05
1.56951e-05
1.55817e-05
1.5423e-05
1.52576e-05
1.50519e-05
1.48398e-05
1.45117e-05
1.42519e-05
1.3894e-05
1.35784e-05
1.99999e-05
1.98753e-05
1.96173e-05
1.93541e-05
1.91003e-05
1.89293e-05
1.87899e-05
1.86897e-05
1.85558e-05
1.8452e-05
1.83304e-05
1.82516e-05
1.81445e-05
1.80731e-05
1.79743e-05
1.79106e-05
1.78234e-05
1.77631e-05
1.7685e-05
1.7625e-05
1.75499e-05
1.74869e-05
1.74098e-05
1.73478e-05
1.72652e-05
1.71943e-05
1.71104e-05
1.70375e-05
1.69478e-05
1.68715e-05
1.67792e-05
1.66963e-05
1.66006e-05
1.65173e-05
1.64171e-05
1.63271e-05
1.62218e-05
1.61307e-05
1.60198e-05
1.59181e-05
1.57829e-05
1.56661e-05
1.54964e-05
1.53227e-05
1.51099e-05
1.48658e-05
1.45297e-05
1.42549e-05
1.38738e-05
1.35585e-05
1.99999e-05
1.98796e-05
1.96303e-05
1.93767e-05
1.91259e-05
1.89525e-05
1.88094e-05
1.87114e-05
1.85823e-05
1.84805e-05
1.83603e-05
1.82825e-05
1.81779e-05
1.81088e-05
1.80136e-05
1.79526e-05
1.78686e-05
1.78127e-05
1.77381e-05
1.76832e-05
1.76109e-05
1.75527e-05
1.74805e-05
1.74219e-05
1.73425e-05
1.72755e-05
1.71947e-05
1.71246e-05
1.70376e-05
1.6963e-05
1.68731e-05
1.67918e-05
1.66974e-05
1.66148e-05
1.65139e-05
1.64232e-05
1.63183e-05
1.62258e-05
1.61128e-05
1.60051e-05
1.58699e-05
1.57455e-05
1.55664e-05
1.5386e-05
1.51585e-05
1.48865e-05
1.45442e-05
1.4251e-05
1.38504e-05
1.35359e-05
1.99999e-05
1.98837e-05
1.96429e-05
1.93988e-05
1.91515e-05
1.89768e-05
1.88301e-05
1.87329e-05
1.8608e-05
1.85083e-05
1.83901e-05
1.83119e-05
1.821e-05
1.81429e-05
1.80509e-05
1.79924e-05
1.79117e-05
1.78599e-05
1.7789e-05
1.77384e-05
1.76693e-05
1.76163e-05
1.75486e-05
1.74932e-05
1.74171e-05
1.73545e-05
1.72765e-05
1.72089e-05
1.7125e-05
1.70522e-05
1.69643e-05
1.68852e-05
1.67919e-05
1.67093e-05
1.66078e-05
1.65176e-05
1.64124e-05
1.63176e-05
1.62024e-05
1.60897e-05
1.59549e-05
1.58192e-05
1.56344e-05
1.54454e-05
1.51988e-05
1.49034e-05
1.45555e-05
1.42417e-05
1.38243e-05
1.35145e-05
1.99999e-05
1.98878e-05
1.96553e-05
1.94204e-05
1.9177e-05
1.90022e-05
1.88516e-05
1.87541e-05
1.86328e-05
1.85352e-05
1.84193e-05
1.83402e-05
1.82411e-05
1.81753e-05
1.80861e-05
1.803e-05
1.79526e-05
1.79046e-05
1.78372e-05
1.77908e-05
1.77251e-05
1.76776e-05
1.76137e-05
1.75617e-05
1.74892e-05
1.7431e-05
1.73555e-05
1.72907e-05
1.72097e-05
1.71391e-05
1.70531e-05
1.69762e-05
1.68839e-05
1.68009e-05
1.66993e-05
1.66101e-05
1.65037e-05
1.64063e-05
1.62889e-05
1.61725e-05
1.6037e-05
1.58884e-05
1.5701e-05
1.54996e-05
1.52322e-05
1.49181e-05
1.45657e-05
1.42278e-05
1.37996e-05
1.35043e-05
1.99999e-05
1.98917e-05
1.96672e-05
1.94413e-05
1.92026e-05
1.90283e-05
1.88736e-05
1.87753e-05
1.86567e-05
1.85614e-05
1.84473e-05
1.83678e-05
1.82708e-05
1.82056e-05
1.81193e-05
1.80654e-05