/*--------------------------------*- C++ -*----------------------------------*\
  =========                 |
  \\      /  F ield         | OpenFOAM: The Open Source CFD Toolbox
   \\    /   O peration     | Website:  https://openfoam.org
    \\  /    A nd           | Version:  7
     \\/     M anipulation  |
\*---------------------------------------------------------------------------*/
FoamFile
{
    version     2.0;
    format      ascii;
    class       volScalarField;
    location    "0.3";
    object      nut;
}
// * * * * * * * * * * * * * * * * * * * * * * * * * * * * * * * * * * * * * //

dimensions      [0 2 -1 0 0 0 0];

internalField   nonuniform List<scalar> 
70000
(
0
0
0
0
0
0
0
0
0
0
0
0
0
0
0
0
0
0
0
0
0
0
0
0
0
0
0
0
0
0
0
0
0
0
0
0
0
0
0
2.91917e-14
4.78762e-14
1.54346e-13
1.37065e-13
3.84518e-13
3.27135e-13
1.00079e-12
1.1531e-13
3.74515e-12
0
0
0
0
0
0
0
0
0
0
0
0
0
0
0
0
0
0
0
0
0
0
0
0
0
0
0
0
0
0
0
0
0
0
0
0
0
0
0
0
0
3.10993e-14
4.69063e-14
2.34869e-13
1.90049e-13
6.12109e-13
4.55681e-13
1.72728e-12
1.82449e-14
7.1436e-12
0
0
0
0
0
0
0
0
0
0
0
0
0
0
0
0
0
0
0
0
0
0
0
0
0
0
0
0
0
0
0
0
0
0
0
0
0
0
0
0
0
0
0
1.60703e-13
6.00005e-14
5.45127e-13
1.73569e-13
1.81281e-12
0
9.17081e-12
0
0
0
0
0
0
0
0
0
0
0
0
0
0
0
0
0
0
0
0
0
0
0
0
0
0
0
0
0
0
0
0
0
0
0
0
0
0
0
0
0
0
0
0
0
2.48224e-13
0
1.35354e-12
0
9.33375e-12
0
0
0
0
0
0
0
0
0
0
0
0
0
0
0
0
0
0
0
0
0
0
0
0
0
0
0
0
0
0
0
0
0
0
0
0
0
0
0
0
0
0
0
0
0
0
0
7.93598e-13
0
8.6371e-12
0
0
9.44605e-10
0
0
0
0
0
0
0
0
0
0
0
0
0
0
0
0
0
0
0
0
0
0
0
0
0
0
0
0
0
0
0
0
0
0
0
0
0
0
0
0
0
0
0
0
4.03171e-13
0
7.85785e-12
0
0
1.31972e-08
0
0
0
0
0
0
0
0
0
0
0
0
0
0
0
0
0
0
0
0
0
0
0
0
0
0
0
0
0
0
0
0
0
0
0
0
0
0
0
0
0
0
0
0
1.26688e-13
0
6.66216e-12
0
0
1.20909e-08
0
0
0
0
0
0
0
0
0
0
0
0
0
0
0
0
0
0
0
0
0
0
0
0
0
0
0
0
0
0
0
0
0
0
0
0
0
0
0
0
0
0
0
0
0
0
4.72446e-12
0
0
1.10711e-08
0
0
0
0
0
0
0
0
0
0
0
0
0
0
0
0
0
0
0
0
0
0
0
0
0
0
0
0
0
0
0
0
0
0
0
0
0
0
0
0
0
0
0
0
0
0
2.24447e-12
0
0
1.02228e-08
0
0
0
0
0
0
0
0
0
0
0
0
0
0
0
0
0
0
0
0
0
0
0
0
0
0
0
0
0
0
0
0
0
0
0
0
0
0
0
0
0
0
0
0
0
0
0
0
0
9.51273e-09
0
0
0
0
0
0
0
0
0
0
0
0
0
0
0
0
0
0
0
0
0
0
0
0
0
0
0
0
0
0
0
0
0
0
0
0
0
0
0
0
0
0
0
0
0
0
0
0
0
8.87027e-09
0
0
0
0
0
0
0
0
0
0
0
0
0
0
0
0
0
0
0
0
0
0
0
0
0
0
0
0
0
0
0
0
0
0
0
0
0
0
0
0
0
0
0
0
0
0
0
0
0
8.22944e-09
0
0
0
0
0
0
0
0
0
0
0
0
0
0
0
0
0
0
0
0
0
0
0
0
0
0
0
0
0
0
0
0
0
0
0
0
0
0
0
0
0
0
0
0
0
0
0
0
5.3644e-12
7.57036e-09
0
0
0
0
0
0
0
0
0
0
0
0
2.81389e-11
7.9912e-12
0
0
0
0
0
0
0
0
0
0
0
0
0
0
0
0
0
0
0
0
0
0
0
0
0
0
0
0
0
0
0
0
0
9.12808e-12
4.21503e-11
6.8992e-09
0
0
0
0
0
0
0
0
0
0
0
0
0
0
2.00823e-11
5.40008e-11
4.7853e-11
1.7703e-11
1.26224e-12
0
0
0
0
0
0
0
0
0
0
0
0
0
0
0
0
0
0
0
0
0
0
0
0
0
0
0
3.64834e-12
2.75501e-11
9.21834e-11
6.22706e-09
0
0
0
0
0
0
0
0
0
0
0
0
0
0
0
0
0
1.03617e-11
3.97937e-11
6.20137e-11
6.43714e-11
4.11692e-11
1.66379e-11
4.05687e-12
0
0
0
0
0
0
0
0
0
0
0
0
0
0
0
0
0
0
0
0
1.87772e-13
0
1.47507e-11
5.92588e-11
1.69856e-10
5.56248e-09
0
0
0
9.58793e-11
0
0
0
0
0
0
0
0
0
0
0
0
0
0
0
0
0
1.09644e-11
2.95154e-11
4.74249e-11
6.14285e-11
6.58177e-11
5.34482e-11
3.14388e-11
1.44308e-11
5.07222e-12
3.43772e-13
0
0
0
0
0
0
0
0
0
0
0
0
0
6.44151e-12
1.12011e-11
4.07912e-11
1.27043e-10
3.31195e-10
4.91178e-09
0
0
0
1.81066e-10
0
0
0
0
0
0
0
0
0
0
0
0
0
0
0
0
0
0
0
0
0
1.81152e-12
1.18751e-11
2.27817e-11
3.35851e-11
4.31127e-11
4.98634e-11
5.13749e-11
4.39986e-11
2.81773e-11
1.20895e-11
6.17123e-13
0
0
0
0
0
0
1.0206e-12
8.46213e-12
2.56634e-11
4.78867e-11
1.19988e-10
3.32514e-10
8.09567e-10
4.28048e-09
0
0
0
2.38391e-10
0
0
0
0
0
0
0
0
0
0
0
0
0
0
0
0
0
0
0
0
0
0
0
0
0
0
0
0
0
0
0
0
0
0
0
0
0
0
0
0
0
0
0
0
3.44808e-10
3.67371e-09
0
0
0
2.52854e-10
0
0
0
0
0
0
0
0
0
0
0
0
0
0
0
0
0
0
0
0
0
0
0
0
0
0
0
0
0
0
0
0
0
0
0
0
0
0
0
0
0
0
0
1.13706e-10
9.26692e-10
3.09576e-09
0
0
0
2.07183e-10
0
0
0
0
0
0
0
0
0
0
0
0
0
0
0
0
0
0
0
0
0
0
0
0
0
0
0
0
0
0
0
0
0
0
0
0
0
0
0
0
0
0
6.56054e-12
8.55303e-10
1.95489e-09
2.54959e-09
0
0
0
8.24229e-11
0
0
0
0
0
0
0
0
0
0
0
0
0
0
0
0
0
0
0
0
0
0
0
0
0
0
0
0
0
0
0
0
0
0
0
0
0
0
0
0
0
0
5.00491e-10
1.65524e-09
2.94528e-09
2.0365e-09
0
0
0
0
0
0
0
0
0
0
0
0
0
0
0
0
0
0
0
0
0
0
0
0
0
0
0
0
0
0
0
0
0
0
0
0
0
0
0
0
0
0
0
0
0
2.69669e-10
1.02394e-09
2.42896e-09
3.81963e-09
1.55608e-09
0
0
0
0
0
0
0
0
0
0
0
0
0
0
0
0
0
0
0
0
0
0
0
0
0
0
0
0
0
0
0
0
0
0
0
0
0
0
0
0
0
0
0
0
8.82762e-11
6.37487e-10
1.57441e-09
3.19016e-09
4.62104e-09
1.10632e-09
0
0
0
0
0
0
0
0
0
0
0
0
0
0
0
0
0
0
0
0
0
0
0
0
0
0
0
0
0
0
0
0
0
0
0
0
0
0
0
0
0
0
0
3.43871e-11
3.3823e-10
1.04398e-09
2.16098e-09
3.95928e-09
5.39005e-09
6.84012e-10
0
0
0
0
0
0
0
0
0
0
0
0
0
0
0
0
0
0
0
0
0
0
0
0
0
0
0
0
0
0
0
0
0
0
0
0
0
0
0
0
0
0
0
2.1248e-10
6.27133e-10
1.49597e-09
2.78661e-09
4.73813e-09
6.14019e-09
2.85362e-10
0
0
0
0
0
0
0
0
0
0
0
0
0
0
0
0
0
0
0
0
0
0
0
0
0
0
0
0
0
0
0
0
0
0
0
0
0
0
0
0
0
0
8.68271e-11
4.22854e-10
9.5661e-10
1.99165e-09
3.44435e-09
5.52091e-09
6.874e-09
0
0
0
0
0
0
0
0
0
0
0
0
0
0
0
0
0
0
0
0
0
0
0
0
0
0
0
0
0
0
0
0
0
0
0
0
0
0
0
0
0
0
4.33908e-11
2.36348e-10
6.66859e-10
1.32611e-09
2.52221e-09
4.1219e-09
6.29788e-09
7.58495e-09
0
0
0
0
0
0
0
0
0
0
0
0
0
0
0
0
0
0
0
0
0
0
0
0
0
0
0
0
0
0
0
0
0
0
0
0
0
0
0
0
0
0
1.50375e-10
4.1318e-10
9.44392e-10
1.73236e-09
3.07944e-09
4.81008e-09
7.05999e-09
8.26125e-09
0
0
0
0
0
0
0
0
0
0
0
0
0
0
0
0
0
0
0
0
0
0
0
0
0
0
0
0
0
0
0
0
0
0
0
0
0
0
0
0
0
6.45115e-11
2.7851e-10
6.17958e-10
1.25429e-09
2.17154e-09
3.65784e-09
5.50156e-09
7.79336e-09
8.89262e-09
0
0
0
0
0
0
0
0
0
0
0
0
0
0
0
0
0
0
0
0
0
0
0
0
0
0
0
0
0
0
0
0
0
0
0
0
0
0
0
0
2.30832e-11
1.57231e-10
4.28645e-10
8.50404e-10
1.59428e-09
2.63992e-09
4.25448e-09
6.19039e-09
8.48519e-09
9.46925e-09
0
0
0
0
0
0
0
0
0
0
0
0
0
0
0
0
0
0
0
0
0
0
0
0
0
0
0
0
0
0
0
0
0
0
0
0
0
0
0
0
8.8544e-11
2.67146e-10
6.0086e-10
1.10925e-09
1.96084e-09
3.13001e-09
4.85976e-09
6.86807e-09
9.13644e-09
9.98635e-09
0
1.04919e-09
0
0
0
0
0
0
0
0
0
0
0
0
0
0
0
0
0
0
0
0
0
0
0
0
0
0
0
0
0
0
0
0
0
0
0
0
0
2.73428e-11
1.66912e-10
3.94445e-10
7.94272e-10
1.39196e-09
2.3487e-09
3.63234e-09
5.45897e-09
7.51896e-09
9.74279e-09
1.04428e-08
0
1.99381e-09
0
0
0
0
0
0
0
0
0
0
0
0
0
0
0
0
0
0
0
0
0
0
0
0
0
0
0
0
0
0
0
0
0
0
0
0
0
8.32208e-11
2.58313e-10
5.38469e-10
1.00681e-09
1.69445e-09
2.7508e-09
4.13737e-09
6.04006e-09
8.12831e-09
1.0288e-08
1.08383e-08
0
2.81319e-09
0
0
0
0
0
0
0
0
0
0
0
0
0
0
0
0
0
0
0
0
0
0
0
0
0
0
0
0
0
0
0
0
0
0
0
0
2.52647e-11
1.48781e-10
3.62251e-10
6.97661e-10
1.23527e-09
2.01115e-09
3.15886e-09
4.63465e-09
6.59017e-09
8.6873e-09
1.07783e-08
1.11978e-08
0
3.50894e-09
0
0
0
0
0
0
0
0
0
0
0
0
0
0
0
0
0
0
0
0
0
0
0
0
0
0
0
0
0
0
0
0
0
0
0
0
7.01148e-11
2.23509e-10
4.77375e-10
8.69211e-10
1.47486e-09
2.33456e-09
3.56278e-09
5.1122e-09
7.09644e-09
9.18507e-09
1.12107e-08
1.15207e-08
0
4.08592e-09
0
0
0
0
0
0
0
0
0
0
0
0
0
0
0
0
0
0
0
0
0
0
0
0
0
0
0
0
0
0
0
0
0
0
0
7.60275e-12
1.2152e-10
3.06228e-10
6.01354e-10
1.049e-09
1.71913e-09
2.65539e-09
3.95064e-09
5.55721e-09
7.54736e-09
9.59811e-09
1.15188e-08
1.17061e-08
0
4.5515e-09
0
0
0
0
0
0
0
0
0
0
0
0
0
0
0
0
0
0
0
0
0
0
0
0
0
0
0
0
0
0
0
0
0
0
0
4.22811e-11
1.78505e-10
3.94959e-10
7.30777e-10
1.23146e-09
1.9601e-09
2.96269e-09
4.30899e-09
5.95397e-09
7.92613e-09
9.90793e-09
1.16712e-08
1.17063e-08
0
4.9138e-09
0
0
0
0
0
0
0
0
0
0
0
0
0
0
0
0
0
0
0
0
0
0
0
0
0
0
0
0
0
0
0
0
0
0
0
8.08024e-11
2.39459e-10
4.86852e-10
8.61012e-10
1.4096e-09
2.18808e-09
3.24371e-09
4.62265e-09
6.28528e-09
8.21592e-09
1.01123e-08
1.17058e-08
1.15863e-08
0
5.18148e-09
0
0
0
0
0
0
0
0
0
0
0
0
0
0
0
0
0
0
0
0
0
0
0
0
0
0
0
0
0
0
0
0
0
0
5.05406e-12
1.21926e-10
3.02075e-10
5.78113e-10
9.8617e-10
1.57496e-09
2.39176e-09
3.48412e-09
4.87468e-09
6.53273e-09
8.40003e-09
1.02006e-08
1.16314e-08
1.13775e-08
0
5.36446e-09
0
0
0
0
0
0
0
0
0
0
0
0
0
0
0
0
0
0
0
0
0
0
0
0
0
0
0
0
0
0
0
0
0
0
3.16367e-11
1.63895e-10
3.6332e-10
6.63956e-10
1.09909e-09
1.71763e-09
2.55817e-09
3.66758e-09
5.04679e-09
6.6777e-09
8.46079e-09
1.01564e-08
1.14291e-08
1.10666e-08
0
5.4737e-09
0
0
0
0
0
0
0
0
0
0
0
0
0
0
0
0
0
0
0
0
0
0
0
0
0
0
0
0
0
0
0
0
0
0
5.89378e-11
2.04428e-10
4.19438e-10
7.38585e-10
1.19143e-09
1.82628e-09
2.67265e-09
3.77552e-09
5.1205e-09
6.69979e-09
8.37985e-09
9.96624e-09
1.10873e-08
1.06459e-08
0
5.52026e-09
0
0
0
0
0
0
0
0
0
0
0
0
0
0
0
0
0
0
0
0
0
0
0
0
0
0
0
0
0
0
0
0
0
0
8.54053e-11
2.40739e-10
4.65964e-10
7.95245e-10
1.25366e-09
1.88819e-09
2.71868e-09
3.78896e-09
5.07413e-09
6.57575e-09
8.14051e-09
9.61912e-09
1.06024e-08
1.01171e-08
0
5.51433e-09
0
0
0
0
0
0
0
0
0
0
0
0
0
0
0
0
0
0
0
0
0
0
0
0
0
0
0
0
0
0
0
0
0
0
1.09189e-10
2.69601e-10
4.9779e-10
8.26328e-10
1.27523e-09
1.8892e-09
2.67817e-09
3.68681e-09
4.88325e-09
6.28305e-09
7.72567e-09
9.10555e-09
9.97487e-09
9.48502e-09
0
5.46485e-09
0
0
0
0
0
0
0
0
0
0
0
0
0
0
0
0
0
0
0
0
0
0
0
0
0
0
0
0
0
0
0
0
0
1.61569e-11
1.28227e-10
2.87435e-10
5.09285e-10
8.2353e-10
1.24463e-09
1.81374e-09
2.5313e-09
3.44537e-09
4.52125e-09
5.79738e-09
7.11848e-09
8.41939e-09
9.20978e-09
8.75749e-09
0
5.37948e-09
0
0
0
0
0
0
0
0
0
0
0
0
0
0
0
0
0
0
0
0
0
0
0
0
0
0
0
0
0
0
0
0
0
3.16963e-11
1.40369e-10
2.90468e-10
4.94491e-10
7.78068e-10
1.14952e-09
1.64481e-09
2.25625e-09
3.03792e-09
3.95835e-09
5.0927e-09
6.30276e-09
7.55858e-09
8.31683e-09
7.94579e-09
0
5.26466e-09
0
0
0
0
0
0
0
0
0
0
0
0
0
0
0
0
0
0
0
0
0
0
0
0
0
0
0
0
0
0
0
0
0
4.45537e-11
1.43551e-10
2.74974e-10
4.47407e-10
6.80931e-10
9.76818e-10
1.36412e-09
1.82882e-09
2.43389e-09
3.16082e-09
4.14059e-09
5.26327e-09
6.52697e-09
7.31198e-09
7.06578e-09
0
5.12572e-09
0
0
0
0
0
0
0
0
0
0
0
0
0
0
0
0
0
0
0
0
0
0
0
0
0
0
0
0
0
0
0
0
0
5.41599e-11
1.36059e-10
2.37604e-10
3.62361e-10
5.23228e-10
7.13015e-10
9.52107e-10
1.22182e-09
1.59769e-09
2.08965e-09
2.90878e-09
3.98792e-09
5.33698e-09
6.21858e-09
6.13849e-09
0
4.96718e-09
0
0
0
0
0
0
0
0
0
0
0
0
0
0
0
0
0
0
0
0
0
0
0
0
0
0
0
0
0
0
0
0
6.52065e-13
6.05211e-11
1.16893e-10
1.75834e-10
2.34534e-10
2.96721e-10
3.44659e-10
3.88047e-10
4.04242e-10
4.87271e-10
6.97792e-10
1.36079e-09
2.47046e-09
4.01315e-09
5.06984e-09
5.18966e-09
0
4.79288e-09
0
0
0
0
0
0
0
0
0
0
0
0
0
0
0
0
0
0
0
0
0
0
0
0
0
0
0
0
0
0
0
0
2.37177e-11
6.45684e-11
8.62351e-11
8.8567e-11
6.07037e-11
0
0
0
0
0
0
0
7.15672e-10
2.59833e-09
3.90955e-09
4.24736e-09
0
4.60622e-09
0
0
0
0
0
0
0
0
0
0
0
0
0
0
0
0
0
0
0
0
0
0
0
0
0
0
0
0
0
0
0
3.72923e-12
5.24987e-11
6.86012e-11
4.60622e-11
0
0
0
0
0
0
0
0
0
0
1.16062e-09
2.79092e-09
3.33937e-09
0
4.41015e-09
1.17082e-10
0
0
0
0
0
0
0
0
0
0
0
0
0
0
0
0
0
0
0
0
0
0
0
0
0
0
0
0
0
0
5.47108e-11
9.0698e-11
7.68395e-11
9.60564e-13
0
0
0
0
0
0
0
0
0
0
0
1.77279e-09
2.49021e-09
0
4.20736e-09
5.31343e-10
0
0
0
0
0
0
0
0
0
0
0
0
0
0
0
0
0
0
0
0
0
0
0
0
0
0
0
0
0
4.20826e-11
1.21906e-10
1.43803e-10
9.6091e-11
0
0
0
0
0
0
0
0
0
0
0
0
9.11532e-10
1.71849e-09
0
4.00035e-09
8.84781e-10
0
0
0
0
0
0
0
0
0
0
0
0
0
0
0
0
0
0
0
0
0
0
0
0
0
0
0
0
0
1.28957e-10
2.11091e-10
2.19531e-10
1.36512e-10
0
0
0
0
0
0
0
0
0
0
0
0
2.48475e-10
1.03454e-09
0
3.79136e-09
1.18239e-09
0
0
0
0
0
0
0
0
0
0
0
0
0
0
0
0
0
0
0
0
0
0
0
0
0
0
0
0
7.96408e-11
2.40977e-10
3.29656e-10
3.28241e-10
2.12413e-10
0
0
0
0
0
0
0
0
0
0
0
0
0
4.38553e-10
0
3.58241e-09
1.42903e-09
0
0
0
0
0
0
0
0
0
0
0
0
0
0
0
0
0
0
0
0
0
0
0
0
0
0
0
0
1.97929e-10
3.84176e-10
4.86663e-10
4.83218e-10
3.42988e-10
1.78921e-11
0
0
0
0
0
0
0
0
0
0
0
0
0
0
3.37538e-09
1.62942e-09
0
0
0
0
0
0
0
0
0
0
0
0
0
0
0
0
0
0
0
0
0
0
0
0
0
0
0
4.99296e-11
3.44791e-10
5.65206e-10
6.92641e-10
7.00637e-10
5.52684e-10
1.91441e-10
0
0
0
0
0
0
0
0
0
0
0
0
0
0
3.17187e-09
1.78818e-09
0
0
0
0
0
0
0
0
0
0
0
0
0
0
0
0
0
0
0
0
0
0
0
0
0
0
0
1.78751e-10
5.23965e-10
7.90815e-10
9.58963e-10
9.98914e-10
8.7071e-10
5.10845e-10
0
0
0
0
0
0
0
0
0
0
0
0
0
0
2.97322e-09
1.90973e-09
0
0
0
0
0
0
0
0
0
0
0
0
0
0
0
0
0
0
0
0
0
0
0
0
0
0
0
3.31019e-10
7.38211e-10
1.06688e-09
1.29654e-09
1.39696e-09
1.32889e-09
1.02922e-09
3.98101e-10
0
0
0
0
0
0
0
0
5.41581e-10
2.36413e-10
0
0
0
2.78048e-09
1.99824e-09
0
0
0
0
0
0
0
0
0
0
0
0
0
0
0
0
0
0
0
0
0
0
0
0
0
0
0
5.06055e-10
9.88331e-10
1.39694e-09
1.71355e-09
1.91081e-09
1.95666e-09
1.79947e-09
1.36248e-09
5.08174e-10
0
0
0
0
0
0
5.246e-09
2.91293e-09
4.7783e-10
0
0
0
2.59446e-09
2.05762e-09
0
0
0
0
0
0
0
0
0
0
0
0
0
0
0
0
0
0
0
0
0
0
0
0
0
0
8.11936e-11
7.00844e-10
1.27191e-09
1.78005e-09
2.21207e-09
2.54809e-09
2.77186e-09
2.85856e-09
2.78626e-09
2.52751e-09
2.07768e-09
1.55965e-09
1.91101e-09
1.1774e-08
5.76204e-08
2.34544e-08
9.71273e-09
3.69012e-09
2.82277e-10
0
0
0
2.41577e-09
2.09147e-09
0
0
0
0
0
0
0
0
0
0
0
0
0
0
0
0
0
0
0
0
0
0
0
0
0
0
2.00655e-10
9.09172e-10
1.58176e-09
2.2082e-09
2.78345e-09
3.30015e-09
3.76682e-09
4.20121e-09
4.66937e-09
5.32585e-09
6.60676e-09
9.84709e-09
1.98731e-08
4.9277e-08
5.16765e-08
2.27361e-08
9.5952e-09
3.27309e-09
0
0
0
0
2.24484e-09
2.10321e-09
0
0
0
0
0
0
0
0
0
0
0
0
0
0
0
0
0
0
0
0
0
0
0
0
0
0
3.17556e-10
1.1209e-09
1.90434e-09
2.66359e-09
3.40363e-09
4.13327e-09
4.89149e-09
5.74635e-09
6.86427e-09
8.58834e-09
1.17313e-08
1.81653e-08
3.10132e-08
4.35586e-08
3.31448e-08
1.70718e-08
7.61741e-09
2.25649e-09
0
0
0
0
2.08196e-09
2.09601e-09
0
0
0
0
0
0
0
0
0
0
0
0
0
0
0
0
0
0
0
0
0
0
0
0
0
0
4.21669e-10
1.32145e-09
2.21903e-09
3.11664e-09
4.02941e-09
4.98177e-09
6.04066e-09
7.31317e-09
9.02964e-09
1.15951e-08
1.57433e-08
2.22667e-08
2.97124e-08
3.03155e-08
2.14923e-08
1.18556e-08
5.28598e-09
1.08942e-09
0
0
0
0
1.92732e-09
2.07288e-09
1.17213e-10
0
0
0
0
0
0
0
0
0
0
0
0
0
0
0
0
0
0
0
0
0
0
0
0
0
5.00459e-10
1.49214e-09
2.49829e-09
3.52648e-09
4.59865e-09
5.74918e-09
7.05777e-09
8.63587e-09
1.06917e-08
1.34845e-08
1.72213e-08
2.13212e-08
2.33329e-08
2.03903e-08
1.40284e-08
7.7931e-09
3.19531e-09
2.83675e-11
0
0
0
0
1.78099e-09
2.0364e-09
3.23893e-10
0
0
0
0
0
0
0
0
0
0
0
0
0
0
0
0
0
0
0
0
0
0
0
0
0
5.40139e-10
1.61152e-09
2.70975e-09
3.84449e-09
5.03778e-09
6.32223e-09
7.76592e-09
9.43938e-09
1.14448e-08
1.37821e-08
1.61741e-08
1.76675e-08
1.69196e-08
1.35636e-08
9.01458e-09
4.77461e-09
1.52577e-09
0
0
0
0
0
1.643e-09
1.98911e-09
4.93343e-10
0
0
0
0
0
0
0
0
0
0
0
0
0
0
0
0
0
0
0
0
0
0
0
0
0
5.27427e-10
1.65804e-09
2.82017e-09
4.02169e-09
5.27605e-09
6.59827e-09
8.02287e-09
9.55301e-09
1.11622e-08
1.26597e-08
1.36384e-08
1.3467e-08
1.1769e-08
8.84232e-09
5.55721e-09
2.59452e-09
2.94087e-10
0
0
0
0
0
1.51326e-09
1.93331e-09
6.29404e-10
0
0
0
0
0
0
0
0
0
0
0
0
0
0
0
0
0
0
0
0
0
0
0
0
0
4.51812e-10
1.61469e-09
2.80346e-09
4.01926e-09
5.26067e-09
6.51529e-09
7.7755e-09
8.98291e-09
1.00283e-08
1.06824e-08
1.06601e-08
9.71566e-09
7.89628e-09
5.54491e-09
3.16105e-09
1.07208e-09
0
0
0
0
0
0
1.39167e-09
1.87098e-09
7.35803e-10
0
0
0
0
0
0
0
0
0
0
0
0
0
0
0
0
0
0
0
0
0
0
0
0
0
3.07917e-10
1.47207e-09
2.64615e-09
3.82041e-09
4.97653e-09
6.07707e-09
7.07753e-09
7.88864e-09
8.3921e-09
8.42205e-09
7.86007e-09
6.68584e-09
5.06082e-09
3.24555e-09
1.52518e-09
6.32226e-11
0
0
0
0
0
0
1.27806e-09
1.80392e-09
8.16169e-10
0
0
0
0
0
0
0
0
0
0
0
0
0
0
0
0
0
0
0
0
0
0
0
0
0
9.77373e-11
1.23186e-09
2.3519e-09
3.4366e-09
4.4529e-09
5.34835e-09
6.05983e-09
6.50318e-09
6.59764e-09
6.26211e-09
5.49349e-09
4.36231e-09
3.02894e-09
1.67059e-09
4.5121e-10
0
0
0
0
0
5.09495e-10
0
1.17221e-09
1.73373e-09
8.74029e-10
0
0
0
0
0
0
0
0
0
0
0
0
0
0
0
0
0
0
0
0
0
0
0
0
0
0
9.08335e-10
1.94283e-09
2.90518e-09
3.75394e-09
4.43378e-09
4.88349e-09
5.04779e-09
4.88884e-09
4.39454e-09
3.61705e-09
2.64776e-09
1.61478e-09
6.33924e-10
0
0
0
0
0
0
1.13487e-09
0
1.07391e-09
1.66184e-09
9.12765e-10
0
0
0
0
0
0
0
0
0
0
0
0
0
0
0
0
0
0
0
0
0
0
0
0
0
0
5.27158e-10
1.45631e-09
2.28189e-09
2.96189e-09
3.44836e-09
3.69678e-09
3.68203e-09
3.40205e-09
2.88635e-09
2.20176e-09
1.43387e-09
6.76573e-10
5.21612e-12
0
0
0
0
0
0
1.79147e-09
0
9.82945e-10
1.58951e-09
9.35575e-10
0
0
0
0
0
0
0
0
0
0
0
0
0
0
0
0
0
0
0
0
0
0
0
0
0
0
1.22095e-10
9.38502e-10
1.62979e-09
2.15966e-09
2.49369e-09
2.60801e-09
2.50101e-09
2.19501e-09
1.7365e-09
1.18885e-09
6.24002e-10
1.08219e-10
0
0
0
0
0
0
3.16409e-10
2.47234e-09
0
8.99062e-10
1.51788e-09
9.45444e-10
0
0
0
0
0
0
0
0
0
0
0
0
0
0
0
0
0
0
0
0
0
0
0
0
0
0
0
4.37203e-10
1.00858e-09
1.41752e-09
1.64458e-09
1.68359e-09
1.54956e-09
1.27669e-09
9.13319e-10
5.1525e-10
1.3888e-10
0
0
0
0
0
0
2.31023e-10
1.00615e-09
3.17225e-09
0
8.22002e-10
1.44795e-09
9.45163e-10
2.0702e-11
0
0
0
0
0
0
0
0
0
0
0
0
0
0
0
0
0
0
0
0
0
0
0
0
0
0
0
4.6742e-10
7.86867e-10
9.47587e-10
9.56683e-10
8.38254e-10
6.29767e-10
3.76106e-10
1.23702e-10
0
0
0
0
0
2.03379e-10
5.08888e-10
9.09508e-10
1.72455e-09
3.88906e-09
0
7.51496e-10
1.3806e-09
9.37301e-10
8.19117e-11
0
0
0
0
0
0
0
0
0
0
0
0
0
0
0
0
0
0
0
0
0
0
0
0
0
0
0
4.1879e-11
3.00005e-10
4.262e-10
4.36081e-10
3.57674e-10
2.27114e-10
8.39052e-11
0
0
0
1.73448e-11
2.04978e-10
4.69781e-10
8.00958e-10
1.17584e-09
1.62515e-09
2.46796e-09
4.62381e-09
0
6.87275e-10
1.3166e-09
9.24203e-10
1.2836e-10
0
0
0
0
0
0
0
0
0
0
0
0
0
0
0
0
0
0
0
0
0
0
0
0
0
0
0
0
0
8.70207e-11
1.16066e-10
8.90891e-11
3.90436e-11
0
4.90517e-14
6.28732e-11
2.0068e-10
4.16878e-10
7.06944e-10
1.05845e-09
1.45915e-09
1.88796e-09
2.37393e-09
3.23578e-09
5.38002e-09
0
6.29065e-10
1.25661e-09
9.07998e-10
1.63598e-10
0
0
0
0
0
0
0
0
0
0
0
0
0
0
0
0
0
0
0
0
0
0
0
0
0
0
0
0
0
0
0
1.06613e-11
3.73564e-11
9.15968e-11
1.95837e-10
3.65656e-10
6.07296e-10
9.19209e-10
1.2929e-09
1.71455e-09
2.17055e-09
2.64098e-09
3.15454e-09
4.02985e-09
6.1626e-09
0
5.76597e-10
1.20122e-09
8.90611e-10
1.90977e-10
0
0
0
0
0
0
0
0
0
0
0
0
0
0
0
0
0
0
0
0
0
0
0
0
0
0
0
0
0
0
2.14072e-11
1.00742e-10
1.97067e-10
3.33709e-10
5.27541e-10
7.8839e-10
1.11736e-09
1.50897e-09
1.95176e-09
2.43039e-09
2.93066e-09
3.43351e-09
3.96811e-09
4.85339e-09
6.97704e-09
0
5.29607e-10
1.15093e-09
8.73785e-10
2.13647e-10
0
0
0
0
0
0
0
0
0
0
0
0
0
0
0
0
0
0
0
0
0
0
0
0
0
0
0
0
0
9.5971e-11
2.13698e-10
3.39751e-10
4.97206e-10
7.05248e-10
9.76058e-10
1.31455e-09
1.7175e-09
2.17597e-09
2.67615e-09
3.2016e-09
3.73802e-09
4.26691e-09
4.81803e-09
5.71137e-09
7.83014e-09
0
4.87837e-10
1.10619e-09
8.5911e-10
2.34586e-10
0
0
0
0
0
0
0
0
0
0
0
0
0
0
0
0
0
0
0
0
0
0
0
0
0
0
0
9.30969e-11
2.58779e-10
4.01836e-10
5.4498e-10
7.11121e-10
9.21061e-10
1.19048e-09
1.52748e-09
1.93264e-09
2.39888e-09
2.91411e-09
3.46263e-09
4.02725e-09
4.59355e-09
5.14414e-09
5.70886e-09
6.61009e-09
8.7301e-09
0
4.51051e-10
1.0674e-09
8.48056e-10
2.56642e-10
0
0
0
0
0
0
0
0
0
0
0
0
0
0
0
0
0
0
0
0
0
0
0
0
0
1.10353e-10
3.46137e-10
5.32976e-10
6.89987e-10
8.39048e-10
1.00239e-09
1.20143e-09
1.45561e-09
1.77784e-09
2.17246e-09
2.63551e-09
3.15669e-09
3.72098e-09
4.31096e-09
4.90903e-09
5.50061e-09
6.06976e-09
6.64649e-09
7.55643e-09
9.68461e-09
0
4.19025e-10
1.03498e-09
8.42029e-10
2.82611e-10
0
0
0
0
0
0
0
0
0
0
0
0
0
0
0
0
0
0
0
0
0
0
0
1.55622e-10
4.80736e-10
7.37318e-10
9.38419e-10
1.1015e-09
1.24718e-09
1.39805e-09
1.57615e-09
1.80105e-09
2.09141e-09
2.45866e-09
2.90465e-09
3.42003e-09
3.98979e-09
4.59732e-09
5.22357e-09
5.85068e-09
6.46418e-09
7.04949e-09
7.63734e-09
8.55756e-09
1.0701e-08
0
3.91572e-10
1.00937e-09
8.42391e-10
3.153e-10
0
0
0
0
0
0
0
0
0
0
0
0
0
0
0
0
0
0
0
0
0
2.21529e-10
6.50004e-10
1.00026e-09
1.27667e-09
1.48978e-09
1.65519e-09
1.79234e-09
1.92327e-09
2.07132e-09
2.25872e-09
2.50373e-09
2.8235e-09
3.22919e-09
3.72037e-09
4.28518e-09
4.89965e-09
5.54648e-09
6.20532e-09
6.85798e-09
7.49047e-09
8.08952e-09
8.68771e-09
9.61988e-09
1.17851e-08
0
3.68541e-10
9.91105e-10
8.5056e-10
3.57752e-10
0
0
0
0
0
0
0
0
0
0
0
0
0
0
0
0
0
0
0
2.94817e-10
8.27688e-10
1.28727e-09
1.66688e-09
1.96703e-09
2.19507e-09
2.36422e-09
2.49235e-09
2.60083e-09
2.71321e-09
2.85382e-09
3.04544e-09
3.30572e-09
3.64947e-09
4.08846e-09
4.62046e-09
5.2317e-09
5.8908e-09
6.57432e-09
7.26307e-09
7.93825e-09
8.58677e-09
9.19687e-09
9.80381e-09
1.07484e-08
1.294e-08
0
3.49839e-10
9.80713e-10
8.68263e-10
4.13461e-10
0
0
0
0
0
0
0
0
0
0
0
0
0
0
0
0
0
3.68155e-10
9.87297e-10
1.55434e-09
2.05204e-09
2.46906e-09
2.8014e-09
3.05251e-09
3.23255e-09
3.35721e-09
3.44653e-09
3.52381e-09
3.61421e-09
3.74331e-09
3.9348e-09
4.20649e-09
4.57015e-09
5.03849e-09
5.60822e-09
6.26327e-09
6.96938e-09
7.68837e-09
8.40524e-09
9.10036e-09
9.76139e-09
1.03783e-08
1.09905e-08
1.19455e-08
1.41653e-08
0
3.35455e-10
9.78956e-10
8.97433e-10
4.86505e-10
0
0
0
0
0
0
0
0
0
0
0
0
0
0
0
4.44478e-10
1.11089e-09
1.76082e-09
2.37009e-09
2.91677e-09
3.38401e-09
3.76222e-09
4.05001e-09
4.2538e-09
4.38654e-09
4.46641e-09
4.51565e-09
4.55956e-09
4.62516e-09
4.73948e-09
4.92745e-09
5.20754e-09
5.58907e-09
6.08391e-09
6.68938e-09
7.38702e-09
8.14256e-09
8.89845e-09
9.64171e-09
1.03532e-08
1.10226e-08
1.16412e-08
1.22519e-08
1.32115e-08
1.54562e-08
0
3.25487e-10
9.86888e-10
9.40565e-10
5.81937e-10
0
0
0
0
0
0
0
0
0
0
0
0
0
5.52178e-10
1.19958e-09
1.87984e-09
2.56451e-09
3.2252e-09
3.83488e-09
4.37014e-09
4.81434e-09
5.15967e-09
5.4075e-09
5.56729e-09
5.65486e-09
5.69086e-09
5.6998e-09
5.70911e-09
5.74785e-09
5.84491e-09
6.0267e-09
6.31289e-09
6.71144e-09
7.23108e-09
7.87114e-09
8.61109e-09
9.41582e-09
1.02173e-08
1.09838e-08
1.17072e-08
1.23785e-08
1.29897e-08
1.35893e-08
1.4544e-08
1.68041e-08
0
3.20168e-10
1.00591e-09
1.00096e-09
7.06631e-10
5.78429e-11
0
0
0
0
0
0
0
0
0
1.25824e-10
7.31191e-10
1.34046e-09
1.95918e-09
2.60627e-09
3.32075e-09
4.04362e-09
4.73352e-09
5.36019e-09
5.89826e-09
6.33117e-09
6.65296e-09
6.868e-09
6.9891e-09
7.03519e-09
7.02967e-09
6.99945e-09
6.97429e-09
6.98555e-09
7.06422e-09
7.23841e-09
7.52946e-09
7.94513e-09
8.48908e-09
9.1632e-09
9.94559e-09
1.0799e-08
1.16548e-08
1.24437e-08
1.31728e-08
1.3836e-08
1.4427e-08
1.50006e-08
1.5934e-08
1.8191e-08
0
3.19979e-10
1.03796e-09
1.08288e-09
8.69391e-10
3.46155e-10
0
0
0
0
0
0
0
3.38325e-10
9.39296e-10
1.52896e-09
2.11455e-09
2.70007e-09
3.29618e-09
3.93703e-09
4.70066e-09
5.49489e-09
6.24351e-09
6.91316e-09
7.47637e-09
7.91661e-09
8.2299e-09
8.42391e-09
8.51515e-09
8.52611e-09
8.48334e-09
8.41659e-09
8.35835e-09
8.34261e-09
8.40283e-09
8.56906e-09
8.86454e-09
9.29818e-09
9.8674e-09
1.05758e-08
1.1401e-08
1.23033e-08
1.32188e-08
1.4035e-08
1.47606e-08
1.54017e-08
1.59541e-08
1.64792e-08
1.73658e-08
1.95893e-08
0
3.25651e-10
1.08588e-09
1.1926e-09
1.08239e-09
7.20464e-10
1.41044e-10
0
0
0
0
5.63764e-10
1.15449e-09
1.72651e-09
2.27844e-09
2.82328e-09
3.37044e-09
3.92098e-09
4.48524e-09
5.1114e-09
5.93102e-09
6.84733e-09
7.69999e-09
8.45183e-09
9.07324e-09
9.54796e-09
9.87458e-09
1.00647e-08
1.01393e-08
1.0125e-08
1.00523e-08
9.95419e-09
9.86639e-09
9.82592e-09
9.86898e-09
1.00279e-08
1.0328e-08
1.07799e-08
1.13772e-08
1.21198e-08
1.29879e-08
1.39388e-08
1.49104e-08
1.57716e-08
1.64792e-08
1.70783e-08
1.75658e-08
1.80109e-08
1.8814e-08
2.09585e-08
0
3.38304e-10
1.15348e-09
1.33868e-09
1.36323e-09
1.20916e-09
8.91721e-10
6.39797e-10
6.66173e-10
9.85334e-10
1.47586e-09
2.01123e-09
2.523e-09
3.00114e-09
3.46526e-09
3.93631e-09
4.42434e-09
4.92753e-09
5.45111e-09
6.05079e-09
6.90126e-09
8.00294e-09
9.0251e-09
9.91612e-09
1.06439e-08
1.11926e-08
1.15641e-08
1.17751e-08
1.18521e-08
1.18271e-08
1.17352e-08
1.16137e-08
1.15022e-08
1.14412e-08
1.14701e-08
1.1624e-08
1.19297e-08
1.24009e-08
1.303e-08
1.3808e-08
1.47187e-08
1.5717e-08
1.67391e-08
1.76543e-08
1.83315e-08
1.88619e-08
1.92496e-08
1.95726e-08
2.02434e-08
2.22472e-08
0
3.59796e-10
1.24639e-09
1.53289e-09
1.73443e-09
1.84729e-09
1.83514e-09
1.85257e-09
2.05964e-09
2.45181e-09
2.9177e-09
3.36329e-09
3.75872e-09
4.12385e-09
4.493e-09
4.88835e-09
5.31496e-09
5.76674e-09
6.24339e-09
6.79646e-09
7.58188e-09
8.85981e-09
1.01323e-08
1.12342e-08
1.21315e-08
1.28078e-08
1.3268e-08
1.35345e-08
1.36407e-08
1.36254e-08
1.35297e-08
1.33965e-08
1.327e-08
1.31949e-08
1.32144e-08
1.33664e-08
1.36797e-08
1.41705e-08
1.48349e-08
1.56524e-08
1.6605e-08
1.76474e-08
1.87118e-08
1.96692e-08
2.02995e-08
2.07265e-08
2.09734e-08
2.11268e-08
2.16105e-08
2.34045e-08
0
3.93004e-10
1.37346e-09
1.79395e-09
2.22855e-09
2.67223e-09
2.98516e-09
3.22197e-09
3.50737e-09
3.85769e-09
4.2115e-09
4.53279e-09
4.83191e-09
5.13882e-09
5.47562e-09
5.84778e-09
6.25066e-09
6.67705e-09
7.12713e-09
7.63294e-09
8.27881e-09
9.34696e-09
1.09095e-08
1.23065e-08
1.34545e-08
1.43299e-08
1.4939e-08
1.531e-08
1.54835e-08
1.55066e-08
1.54285e-08
1.52996e-08
1.51704e-08
1.5091e-08
1.51085e-08
1.52638e-08
1.55879e-08
1.60987e-08
1.67959e-08
1.766e-08
1.86574e-08
1.97399e-08
2.08354e-08
2.17954e-08
2.23306e-08
2.2605e-08
2.2668e-08
2.26118e-08
2.28675e-08
2.44006e-08
0
4.42308e-10
1.54687e-09
2.14749e-09
2.89112e-09
3.72665e-09
4.34076e-09
4.67204e-09
4.86662e-09
5.04486e-09
5.26101e-09
5.55006e-09
5.9163e-09
6.33618e-09
6.77062e-09
7.19554e-09
7.61713e-09
8.05154e-09
8.51026e-09
9.00068e-09
9.5344e-09
1.017e-08
1.11465e-08
1.28624e-08
1.44378e-08
1.56446e-08
1.65003e-08
1.70477e-08
1.73429e-08
1.74462e-08
1.74177e-08
1.7317e-08
1.72026e-08
1.71313e-08
1.71552e-08
1.73191e-08
1.76565e-08
1.8187e-08
1.8912e-08
1.98104e-08
2.08448e-08
2.19613e-08
2.30751e-08
2.40007e-08
2.43624e-08
2.44177e-08
2.42525e-08
2.39649e-08
2.39878e-08
2.52664e-08
0
5.14222e-10
1.78481e-09
2.63044e-09
3.78053e-09
5.0525e-09
5.82309e-09
6.02202e-09
6.0146e-09
6.09912e-09
6.36984e-09
6.79668e-09
7.28881e-09
7.85826e-09
8.5922e-09
9.19579e-09
9.68169e-09
1.01307e-08
1.04602e-08
1.07565e-08
1.12134e-08
1.17429e-08
1.23182e-08
1.31782e-08
1.49038e-08
1.66384e-08
1.78721e-08
1.86899e-08
1.9175e-08
1.941e-08
1.94719e-08
1.94318e-08
1.93568e-08
1.93108e-08
1.93523e-08
1.95311e-08
1.98844e-08
2.04341e-08
2.11835e-08
2.21104e-08
2.31721e-08
2.4304e-08
2.5393e-08
2.61428e-08
2.62021e-08
2.60069e-08
2.56125e-08
2.51291e-08
2.49871e-08
2.61153e-08
0
6.1875e-10
2.11634e-09
3.30115e-09
4.96836e-09
6.59075e-09
7.26631e-09
7.23645e-09
7.16941e-09
7.35691e-09
7.75091e-09
8.23782e-09
8.93519e-09
1.01339e-08
1.11799e-08
1.19131e-08
1.24574e-08
1.29429e-08
1.31596e-08
1.29288e-08
1.29845e-08
1.33461e-08
1.38562e-08
1.44035e-08
1.52926e-08
1.71829e-08
1.89545e-08
2.01593e-08
2.0925e-08
2.13594e-08
2.15611e-08
2.16185e-08
2.16114e-08
2.16124e-08
2.16862e-08
2.18882e-08
2.22601e-08
2.28274e-08
2.35961e-08
2.45431e-08
2.56169e-08
2.67304e-08
2.76995e-08
2.80063e-08
2.77365e-08
2.73043e-08
2.6746e-08
2.61769e-08
2.60193e-08
2.71946e-08
0
7.74199e-10
2.58806e-09
4.23998e-09
6.50539e-09
8.21889e-09
8.66451e-09
8.51784e-09
8.54384e-09
8.8378e-09
9.28018e-09
1.00631e-08
1.15635e-08
1.29917e-08
1.40772e-08
1.48515e-08
1.54419e-08
1.59905e-08
1.62793e-08
1.56823e-08
1.51543e-08
1.50973e-08
1.54231e-08
1.59057e-08
1.64378e-08
1.7467e-08
1.95923e-08
2.13267e-08
2.24858e-08
2.3213e-08
2.36279e-08
2.38359e-08
2.39326e-08
2.40038e-08
2.41252e-08
2.43591e-08
2.47526e-08
2.53354e-08
2.6117e-08
2.7072e-08
2.81332e-08
2.9168e-08
2.98156e-08
2.95336e-08
2.90183e-08
2.84269e-08
2.78189e-08
2.73092e-08
2.7302e-08
2.87139e-08
0
1.00785e-09
3.26778e-09
5.54555e-09
8.31668e-09
9.85772e-09
1.00596e-08
9.9563e-09
1.00905e-08
1.04621e-08
1.14347e-08
1.29731e-08
1.44342e-08
1.57258e-08
1.67579e-08
1.75307e-08
1.81554e-08
1.87706e-08
1.92023e-08
1.86344e-08
1.75782e-08
1.70178e-08
1.69886e-08
1.73359e-08
1.77854e-08
1.83453e-08
1.96871e-08
2.19905e-08
2.36655e-08
2.47892e-08
2.55057e-08
2.59391e-08
2.61973e-08
2.63767e-08
2.65649e-08
2.68369e-08
2.72504e-08
2.78417e-08
2.8626e-08
2.95717e-08
3.0582e-08
3.14309e-08
3.14506e-08
3.07959e-08
3.01125e-08
2.94801e-08
2.8958e-08
2.86397e-08
2.89085e-08
3.06864e-08
0
1.33898e-09
4.19186e-09
7.18562e-09
1.00455e-08
1.11771e-08
1.1221e-08
1.11725e-08
1.1359e-08
1.24066e-08
1.39283e-08
1.52905e-08
1.65616e-08
1.7697e-08
1.86363e-08
1.9386e-08
2.00411e-08
2.0726e-08
2.13256e-08
2.11215e-08
1.98046e-08
1.88111e-08
1.8361e-08
1.84282e-08
1.88011e-08
1.92166e-08
1.98619e-08
2.16149e-08
2.39379e-08
2.55725e-08
2.66838e-08
2.74199e-08
2.7905e-08
2.82462e-08
2.85392e-08
2.88692e-08
2.93053e-08
2.98957e-08
3.06649e-08
3.15702e-08
3.24651e-08
3.29295e-08
3.22932e-08
3.15053e-08
3.08078e-08
3.02845e-08
2.99783e-08
2.99408e-08
3.05371e-08
3.26685e-08
0
0
5.09032e-09
5.95882e-09
1.86417e-09
1.55662e-10
0
3.92595e-10
1.70907e-09
1.98997e-09
0
0
0
0
0
0
0
3.40521e-09
7.64273e-09
3.65577e-08
1.50256e-07
2.89743e-07
4.54113e-07
4.58951e-07
3.89188e-07
3.98648e-07
3.86043e-07
1.11853e-07
1.17983e-08
5.2847e-09
4.99632e-09
4.5177e-09
4.12673e-09
3.30789e-09
2.36017e-09
2.37315e-09
2.1054e-09
4.25342e-10
0
1.5867e-09
3.06101e-09
1.37725e-09
0
5.86857e-11
1.88175e-09
3.23695e-09
3.45146e-09
3.84163e-09
4.86889e-09
6.31711e-09
7.59227e-09
8.0572e-09
7.88738e-09
7.83666e-09
8.19874e-09
1.09139e-08
1.58103e-08
1.95487e-08
2.04988e-08
6.84464e-09
0
0
0
0
3.22443e-07
7.01063e-07
2.46633e-07
6.91921e-08
0
0
0
0
0
0
0
0
0
0
0
0
0
0
0
3.26587e-09
7.03008e-09
8.88206e-09
9.38699e-09
9.22406e-09
9.19651e-09
8.26671e-09
7.8371e-09
5.87992e-09
9.33105e-09
9.73427e-09
1.98663e-08
1.63612e-08
3.19838e-08
3.20308e-08
1.84156e-08
0
0
0
3.65205e-09
4.97092e-09
1.86968e-09
1.65805e-10
0
4.29944e-10
1.65531e-09
3.13384e-09
0
0
0
0
0
0
0
2.72117e-09
7.07278e-09
3.86341e-08
1.51198e-07
2.95995e-07
4.57747e-07
4.55037e-07
3.91276e-07
4.06926e-07
3.93228e-07
1.00144e-07
1.02819e-08
6.49544e-09
5.96708e-09
5.24174e-09
4.69544e-09
3.83234e-09
2.7476e-09
2.60372e-09
2.4789e-09
8.58453e-10
9.32469e-12
1.38953e-09
3.05932e-09
1.81701e-09
0
6.12546e-11
1.62115e-09
2.9871e-09
3.30094e-09
3.67036e-09
4.5662e-09
5.83406e-09
7.03297e-09
7.54603e-09
7.51341e-09
7.44235e-09
7.68971e-09
1.04244e-08
1.51022e-08
1.8525e-08
1.91672e-08
5.13485e-09
0
0
0
0
2.50539e-07
8.35636e-07
2.69594e-07
7.71338e-08
1.35559e-09
0
0
0
0
0
0
0
0
0
0
1.31816e-10
0
0
0
2.69031e-09
6.52689e-09
8.63047e-09
9.23946e-09
9.04683e-09
9.06742e-09
8.15878e-09
7.8215e-09
5.61489e-09
9.13113e-09
9.21096e-09
2.06479e-08
1.78412e-08
3.50829e-08
3.42024e-08
4.1005e-08
0
0
2.19398e-10
2.4224e-09
3.61845e-09
1.59004e-09
1.37889e-10
1.49942e-11
4.80872e-10
1.61586e-09
3.86763e-09
1.0324e-09
0
0
0
0
0
0
2.04267e-09
6.72764e-09
4.06001e-08
1.52207e-07
3.03718e-07
4.60979e-07
4.52306e-07
3.95249e-07
4.18235e-07
4.01999e-07
8.60792e-08
9.06771e-09
7.77137e-09
6.99269e-09
6.02269e-09
5.30626e-09
4.39476e-09
3.18064e-09
2.85728e-09
2.84615e-09
1.33017e-09
1.88111e-10
1.21356e-09