/*--------------------------------*- C++ -*----------------------------------*\
  =========                 |
  \\      /  F ield         | OpenFOAM: The Open Source CFD Toolbox
   \\    /   O peration     | Website:  https://openfoam.org
    \\  /    A nd           | Version:  7
     \\/     M anipulation  |
\*---------------------------------------------------------------------------*/
FoamFile
{
    version     2.0;
    format      ascii;
    class       volScalarField;
    location    "0.3";
    object      p;
}
// * * * * * * * * * * * * * * * * * * * * * * * * * * * * * * * * * * * * * //

dimensions      [0 2 -2 0 0 0 0];

internalField   nonuniform List<scalar> 
70000
(
0.135424
0.0585427
0.0454129
0.0478875
0.0481772
0.047166
0.0462486
0.0455664
0.0450104
0.0445307
0.044113
0.0437492
0.0434314
0.0431526
0.0429072
0.0426904
0.0424983
0.0423277
0.0421759
0.0420403
0.0419188
0.0418095
0.0417103
0.0416194
0.0415349
0.0414549
0.0413773
0.0412999
0.0412201
0.0411353
0.0410423
0.0409371
0.0408156
0.0406724
0.0405014
0.0402951
0.0400444
0.0397392
0.0393651
0.0389104
0.0383508
0.037676
0.0368458
0.0358571
0.0346448
0.0332473
0.0314897
0.0297922
0.0269471
0.0265828
0.131124
0.0589047
0.0456155
0.0479821
0.0482316
0.0472018
0.0462765
0.0455894
0.0450298
0.0445472
0.0441274
0.0437619
0.0434428
0.0431629
0.0429166
0.042699
0.0425062
0.0423351
0.0421827
0.0420467
0.0419249
0.0418151
0.0417157
0.0416245
0.0415398
0.0414595
0.0413817
0.0413041
0.0412242
0.0411392
0.041046
0.0409407
0.0408191
0.0406758
0.0405047
0.0402982
0.0400474
0.039742
0.0393678
0.0389128
0.038353
0.0376778
0.0368472
0.0358575
0.0346442
0.033245
0.0314852
0.0297829
0.0269409
0.0264659
0.127518
0.059827
0.04596
0.0481107
0.0483063
0.0472467
0.0463089
0.0456156
0.0450516
0.0445657
0.0441434
0.0437759
0.0434552
0.0431741
0.0429267
0.0427083
0.0425148
0.042343
0.0421901
0.0420536
0.0419313
0.0418212
0.0417214
0.04163
0.041545
0.0414645
0.0413865
0.0413087
0.0412286
0.0411435
0.0410502
0.0409448
0.0408231
0.0406797
0.0405086
0.0403021
0.0400512
0.0397459
0.0393717
0.0389168
0.038357
0.0376818
0.0368506
0.0358613
0.0346475
0.033247
0.0314858
0.0297762
0.0269542
0.02623
0.124413
0.0609259
0.0464362
0.0482832
0.0484074
0.0473047
0.046347
0.0456455
0.0450762
0.0445862
0.0441608
0.043791
0.0434686
0.043186
0.0429375
0.042718
0.0425237
0.0423512
0.0421977
0.0420607
0.041938
0.0418275
0.0417274
0.0416356
0.0415504
0.0414697
0.0413914
0.0413135
0.0412333
0.0411481
0.0410547
0.0409492
0.0408275
0.0406842
0.0405131
0.0403068
0.0400561
0.0397511
0.0393772
0.0389228
0.0383635
0.0376889
0.0368586
0.0358698
0.0346573
0.033256
0.0314964
0.0297731
0.0269832
0.0258701
0.121457
0.0620193
0.0470095
0.0485012
0.0485419
0.047383
0.046396
0.0456825
0.0451061
0.0446107
0.0441813
0.0438086
0.0434838
0.0431995
0.0429495
0.0427289
0.0425336
0.0423603
0.0422061
0.0420685
0.0419453
0.0418344
0.0417338
0.0416417
0.0415562
0.0414752
0.0413968
0.0413187
0.0412383
0.041153
0.0410596
0.0409542
0.0408325
0.0406893
0.0405185
0.0403125
0.0400622
0.0397578
0.0393847
0.0389313
0.0383733
0.0377002
0.036872
0.0358849
0.0346759
0.0332753
0.0315207
0.0297789
0.0270237
0.0254287
0.118549
0.0630511
0.047633
0.0487454
0.0487038
0.0474834
0.0464584
0.0457287
0.0451433
0.0446411
0.0442065
0.0438299
0.0435022
0.0432156
0.0429638
0.0427417
0.0425452
0.0423708
0.0422158
0.0420774
0.0419535
0.0418421
0.0417411
0.0416486
0.0415627
0.0414814
0.0414028
0.0413245
0.041244
0.0411586
0.0410652
0.0409599
0.0408384
0.0406954
0.040525
0.0403195
0.04007
0.0397666
0.0393948
0.0389431
0.0383873
0.0377169
0.0368923
0.0359089
0.0347058
0.0333087
0.0315634
0.0298004
0.0270762
0.024955
0.115684
0.064004
0.0482736
0.0489946
0.04888
0.047601
0.0465333
0.0457841
0.0451883
0.044678
0.044237
0.0438556
0.0435243
0.0432349
0.0429808
0.0427568
0.0425588
0.0423832
0.042227
0.0420878
0.0419631
0.041851
0.0417494
0.0416564
0.0415701
0.0414885
0.0414096
0.0413311
0.0412505
0.0411651
0.0410717
0.0409665
0.0408453
0.0407027
0.0405328
0.0403282
0.0400799
0.0397779
0.0394081
0.0389589
0.0384065
0.0377402
0.0369213
0.035944
0.0347501
0.0333606
0.0316294
0.0298447
0.027146
0.0244999
0.112869
0.0648715
0.0489149
0.0492371
0.0490594
0.0477295
0.0466171
0.0458467
0.0452397
0.0447207
0.0442727
0.0438859
0.0435504
0.0432577
0.0430009
0.0427748
0.0425749
0.0423978
0.0422403
0.0421
0.0419744
0.0418614
0.0417591
0.0416656
0.0415788
0.0414968
0.0414175
0.0413388
0.0412581
0.0411726
0.0410792
0.0409743
0.0408534
0.0407114
0.0405424
0.0403389
0.0400921
0.0397922
0.0394251
0.0389794
0.0384318
0.0377713
0.0369606
0.0359925
0.0348117
0.0334347
0.0317237
0.0299193
0.0272419
0.0241174
0.110112
0.0656511
0.0495516
0.049469
0.049236
0.0478637
0.0467066
0.0459139
0.0452957
0.0447679
0.0443125
0.04392
0.0435801
0.0432838
0.043024
0.0427955
0.0425935
0.0424147
0.0422557
0.0421141
0.0419874
0.0418735
0.0417704
0.0416762
0.0415888
0.0415063
0.0414267
0.0413477
0.0412668
0.0411813
0.0410881
0.0409834
0.040863
0.0407218
0.0405538
0.0403518
0.040107
0.0398098
0.0394463
0.0390053
0.038464
0.0378113
0.0370115
0.0360562
0.0348931
0.0335347
0.0318511
0.0300317
0.0273747
0.0238582
0.107415
0.0663421
0.0501822
0.0496901
0.0494067
0.048001
0.0467996
0.0459837
0.0453542
0.0448179
0.0443553
0.0439569
0.0436124
0.0433124
0.0430496
0.0428185
0.0426144
0.0424336
0.0422731
0.0421301
0.0420022
0.0418873
0.0417833
0.0416883
0.0416002
0.0415172
0.0414372
0.0413579
0.0412769
0.0411914
0.0410983
0.040994
0.0408742
0.040734
0.0405673
0.0403672
0.0401249
0.0398311
0.0394721
0.039037
0.0385037
0.037861
0.0370752
0.0361366
0.0349965
0.0336631
0.0320149
0.0301893
0.0275568
0.0237618
0.104783
0.0669446
0.0508058
0.0499015
0.0495703
0.0481399
0.0468952
0.046055
0.0454143
0.0448697
0.0443998
0.0439957
0.0436466
0.0433429
0.0430771
0.0428433
0.042637
0.0424544
0.0422922
0.0421477
0.0420186
0.0419026
0.0417976
0.0417018
0.0416131
0.0415295
0.041449
0.0413694
0.0412882
0.0412028
0.0411099
0.0410061
0.0408871
0.040748
0.040583
0.0403851
0.0401459
0.0398562
0.0395027
0.0390748
0.0385513
0.037921
0.0371522
0.0362346
0.035123
0.0338216
0.0322174
0.030398
0.0278011
0.0238554
0.102218
0.0674593
0.0514207
0.0501044
0.0497258
0.0482794
0.0469931
0.0461274
0.0454752
0.0449225
0.0444456
0.0440357
0.0436821
0.0433747
0.0431058
0.0428695
0.0426609
0.0424764
0.0423125
0.0421666
0.0420362
0.0419191
0.0418132
0.0417165
0.0416271
0.0415429
0.041462
0.0413821
0.0413008
0.0412155
0.0411229
0.0410197
0.0409016
0.0407639
0.0406008
0.0404056
0.04017
0.0398851
0.0395382
0.0391188
0.0386069
0.0379912
0.0372428
0.0363503
0.0352726
0.0340104
0.0324591
0.0306617
0.0281187
0.0241529
0.0997223
0.0678866
0.0520247
0.0503002
0.0498726
0.0484187
0.0470929
0.0462006
0.0455367
0.0449761
0.0444922
0.0440765
0.0437184
0.0434073
0.0431354
0.0428965
0.0426857
0.0424993
0.0423338
0.0421864
0.0420548
0.0419365
0.0418296
0.0417321
0.041642
0.0415573
0.041476
0.0413959
0.0413145
0.0412293
0.0411371
0.0410346
0.0409176
0.0407815
0.0406207
0.0404286
0.0401971
0.0399178
0.0395784
0.0391687
0.0386702
0.0380715
0.0373463
0.0364831
0.0354447
0.0342285
0.0327389
0.0309818
0.0285172
0.024652
0.0972994
0.0682275
0.0526151
0.0504902
0.0500101
0.048557
0.0471946
0.0462747
0.0455986
0.0450303
0.0445394
0.044118
0.0437553
0.0434406
0.0431656
0.0429241
0.0427112
0.0425228
0.0423557
0.0422069
0.042074
0.0419547
0.0418468
0.0417485
0.0416577
0.0415725
0.0414908
0.0414105
0.0413291
0.0412441
0.0411524
0.0410507
0.0409351
0.0408008
0.0406425
0.0404539
0.0402271
0.039954
0.039623
0.0392243
0.0387407
0.0381611
0.037462
0.0366318
0.0356375
0.034474
0.0330543
0.0313572
0.0289997
0.025338
0.0949513
0.0684835
0.0531887
0.050676
0.050138
0.0486933
0.0472981
0.0463497
0.0456608
0.0450849
0.0445873
0.04416
0.0437927
0.0434744
0.0431963
0.0429523
0.0427371
0.0425469
0.0423781
0.0422279
0.0420937
0.0419733
0.0418646
0.0417654
0.041674
0.0415883
0.0415063
0.0414257
0.0413444
0.0412597
0.0411687
0.0410679
0.0409537
0.0408215
0.040666
0.0404813
0.0402597
0.0399935
0.0396718
0.0392852
0.038818
0.0382594
0.0375889
0.0367949
0.035849
0.0347441
0.0334023
0.0317848
0.0295643
0.0261881
0.0926799
0.0686562
0.0537424
0.0508592
0.0502563
0.0488266
0.0474031
0.0464256
0.0457233
0.0451399
0.0446356
0.0442026
0.0438307
0.0435086
0.0432275
0.0429809
0.0427635
0.0425714
0.0424009
0.0422493
0.0421139
0.0419924
0.0418827
0.0417828
0.0416908
0.0416046
0.0415222
0.0414416
0.0413604
0.0412761
0.0411857
0.0410861
0.0409735
0.0408436
0.0406912
0.0405107
0.0402947
0.040036
0.0397244
0.0393508
0.0389013
0.0383655
0.0377257
0.0369709
0.0360771
0.0350361
0.0337796
0.0322603
0.0302056
0.0271756
0.0904868
0.0687479
0.054273
0.051041
0.0503648
0.0489559
0.0475093
0.0465025
0.045786
0.0451953
0.0446845
0.0442457
0.0438691
0.0435433
0.0432591
0.0430099
0.0427903
0.0425962
0.0424242
0.0422711
0.0421344
0.0420119
0.0419013
0.0418006
0.0417079
0.0416213
0.0415387
0.041458
0.041377
0.0412931
0.0412035
0.0411052
0.0409944
0.0408669
0.0407179
0.0405419
0.0403321
0.0400815
0.0397806
0.0394211
0.0389904
0.0384789
0.0378717
0.0371586
0.03632
0.0353475
0.0341831
0.0327786
0.0309158
0.0282738
0.0883734
0.0687612
0.0547774
0.0512225
0.0504638
0.0490802
0.0476164
0.0465802
0.0458488
0.0452508
0.0447338
0.0442892
0.0439079
0.0435784
0.0432912
0.0430393
0.0428175
0.0426215
0.0424477
0.0422932
0.0421553
0.0420317
0.0419202
0.0418188
0.0417255
0.0416384
0.0415556
0.0414749
0.0413941
0.0413107
0.0412221
0.0411251
0.0410162
0.0408915
0.0407462
0.040575
0.0403717
0.0401297
0.0398403
0.0394956
0.0390849
0.038599
0.038026
0.0373569
0.0365762
0.0356766
0.0346104
0.0333353
0.0316861
0.0294576
0.0863402
0.0686993
0.0552525
0.0514045
0.0505536
0.0491985
0.0477237
0.0466589
0.0459117
0.0453065
0.0447835
0.0443332
0.0439472
0.0436139
0.0433236
0.0430691
0.042845
0.0426471
0.0424717
0.0423157
0.0421766
0.0420519
0.0419394
0.0418373
0.0417434
0.041656
0.0415729
0.0414923
0.0414118
0.041329
0.0412414
0.0411459
0.0410391
0.0409173
0.0407759
0.04061
0.0404136
0.0401807
0.0399034
0.0395744
0.0391846
0.0387257
0.0381884
0.0375652
0.0368447
0.0360216
0.0350596
0.0339263
0.0325077
0.030705
0.0843878
0.068566
0.0556955
0.0515873
0.0506349
0.0493099
0.0478308
0.0467384
0.0459746
0.0453622
0.0448334
0.0443776
0.0439868
0.0436498
0.0433563
0.0430992
0.0428729
0.042673
0.042496
0.0423385
0.0421981
0.0420724
0.041959
0.0418561
0.0417618
0.0416739
0.0415907
0.0415101
0.04143
0.0413479
0.0412614
0.0411675
0.0410631
0.0409443
0.0408071
0.0406468
0.0404578
0.0402345
0.0399699
0.0396574
0.0392894
0.0388587
0.0383584
0.0377829
0.0371249
0.0363819
0.0355291
0.0345476
0.0333722
0.0319972
0.0825158
0.0683652
0.0561035
0.051771
0.0507082
0.0494136
0.047937
0.0468188
0.0460376
0.0454178
0.0448836
0.0444223
0.0440269
0.043686
0.0433895
0.0431297
0.0429012
0.0426993
0.0425206
0.0423617
0.04222
0.0420932
0.041979
0.0418754
0.0417804
0.0416923
0.041609
0.0415285
0.0414487
0.0413675
0.0412822
0.0411901
0.0410881
0.0409727
0.0408399
0.0406854
0.0405042
0.040291
0.0400398
0.0397446
0.0393993
0.0389979
0.038536
0.0380098
0.0374163
0.0367565
0.0360175
0.0351956
0.0342715
0.0333177
0.080724
0.0681017
0.0564738
0.0519554
0.0507745
0.0495089
0.0480416
0.0468998
0.0461006
0.0454732
0.0449339
0.0444674
0.0440672
0.0437226
0.0434229
0.0431606
0.0429297
0.042726
0.0425455
0.0423852
0.0422423
0.0421144
0.0419993
0.0418949
0.0417995
0.041711
0.0416276
0.0415473
0.0414681
0.0413877
0.0413037
0.0412135
0.0411142
0.0410023
0.0408743
0.0407261
0.0405531
0.0403505
0.0401133
0.0398361
0.0395143
0.0391434
0.0387209
0.0382457
0.0377186
0.0371448
0.0365235
0.035867
0.0351979
0.0346522
0.0790113
0.0677803
0.0568042
0.0521397
0.0508347
0.0495954
0.0481437
0.0469814
0.0461635
0.0455283
0.0449842
0.0445127
0.0441079
0.0437594
0.0434567
0.0431917
0.0429586
0.0427529
0.0425708
0.042409
0.0422648
0.0421358
0.0420199
0.0419149
0.0418189
0.0417302
0.0416468
0.0415667
0.041488
0.0414086
0.0413261
0.0412379
0.0411414
0.0410333
0.0409103
0.0407687
0.0406043
0.0404129
0.0401902
0.0399318
0.0396345
0.039295
0.0389132
0.0384903
0.0380313
0.0375461
0.0370455
0.0365582
0.0361437
0.035988
0.0773765
0.0674063
0.0570926
0.0523228
0.0508898
0.0496727
0.0482425
0.0470632
0.0462265
0.045583
0.0450344
0.0445582
0.0441487
0.0437965
0.0434907
0.0432231
0.0429878
0.0427801
0.0425963
0.0424331
0.0422877
0.0421577
0.0420408
0.0419352
0.0418388
0.0417498
0.0416663
0.0415866
0.0415086
0.0414302
0.0413492
0.0412633
0.0411698
0.0410657
0.040948
0.0408133
0.0406579
0.0404782
0.0402707
0.0400319
0.0397597
0.0394526
0.0391126
0.0387434
0.038354
0.0379594
0.0375816
0.0372652
0.0371014
0.0373136
0.075818
0.066985
0.0573373
0.0525032
0.0509408
0.0497407
0.0483371
0.0471449
0.0462894
0.0456372
0.0450844
0.0446037
0.0441898
0.0438338
0.043525
0.0432548
0.0430173
0.0428077
0.0426221
0.0424575
0.0423108
0.0421798
0.0420621
0.0419558
0.041859
0.0417698
0.0416864
0.041607
0.0415297
0.0414525
0.0413732
0.0412897
0.0411993
0.0410995
0.0409874
0.04086
0.0407141
0.0405466
0.0403548
0.0401362
0.03989
0.0396163
0.0393191
0.0390046
0.0386862
0.0383836
0.03813
0.0379839
0.0380638
0.0386187
0.0743338
0.0665221
0.0575371
0.0526791
0.0509886
0.0497995
0.0484266
0.0472261
0.0463523
0.0456908
0.045134
0.0446493
0.0442311
0.0438713
0.0435594
0.0432867
0.043047
0.0428354
0.0426482
0.0424821
0.0423343
0.0422022
0.0420837
0.0419768
0.0418795
0.0417902
0.0417069
0.0416279
0.0415514
0.0414755
0.0413981
0.0413171
0.0412301
0.0411348
0.0410286
0.0409088
0.0407727
0.0406179
0.0404425
0.0402448
0.0400254
0.0397858
0.0395322
0.0392736
0.0390269
0.0388175
0.0386881
0.0387103
0.0390237
0.0398935
0.0729216
0.0660233
0.0576912
0.0528482
0.0510342
0.0498494
0.0485102
0.0473062
0.046415
0.0457438
0.045183
0.0446947
0.0442724
0.0439089
0.0435941
0.0433188
0.0430769
0.0428634
0.0426746
0.0425071
0.042358
0.0422249
0.0421056
0.0419981
0.0419005
0.041811
0.0417279
0.0416494
0.0415738
0.0414993
0.0414238
0.0413455
0.0412621
0.0411716
0.0410715
0.0409597
0.0408339
0.0406923
0.0405337
0.0403575
0.0401656
0.039961
0.0397518
0.0395497
0.0393755
0.0392595
0.0392534
0.0394399
0.0399742
0.0411294
0.071579
0.0654943
0.0577992
0.0530081
0.0510783
0.0498908
0.048587
0.0473847
0.0464775
0.0457962
0.0452314
0.0447399
0.0443137
0.0439466
0.0436288
0.0433511
0.043107
0.0428917
0.0427012
0.0425322
0.042382
0.0422479
0.0421278
0.0420197
0.0419218
0.0418322
0.0417494
0.0416715
0.0415968
0.0415238
0.0414504
0.0413749
0.0412954
0.0412098
0.0411162
0.0410127
0.0408976
0.0407696
0.0406284
0.0404744
0.0403105
0.0401415
0.0399773
0.0398322
0.0397308
0.0397079
0.039823
0.0401679
0.0409086
0.0423186
0.0703033
0.0649406
0.0578615
0.0531563
0.0511214
0.0499243
0.0486566
0.047461
0.0465397
0.0458478
0.0452791
0.0447847
0.0443549
0.0439843
0.0436636
0.0433834
0.0431372
0.04292
0.042728
0.0425576
0.0424062
0.0422711
0.0421503
0.0420417
0.0419435
0.0418539
0.0417713
0.041694
0.0416205
0.041549
0.0414779
0.0414054
0.0413299
0.0412495
0.0411627
0.0410678
0.0409638
0.04085
0.0407266
0.0405953
0.04046
0.040327
0.0402083
0.0401205
0.0400916
0.0401608
0.0403938
0.0408897
0.0418205
0.0434544
0.0690916
0.0643675
0.0578789
0.0532901
0.0511638
0.0499506
0.0487183
0.0475343
0.0466012
0.0458987
0.0453259
0.0448289
0.044396
0.044022
0.0436983
0.0434158
0.0431676
0.0429486
0.0427549
0.0425832
0.0424306
0.0422946
0.0421731
0.042064
0.0419655
0.0418759
0.0417937
0.0417171
0.0416448
0.041575
0.0415062
0.041437
0.0413657
0.0412908
0.041211
0.0411251
0.0410326
0.0409332
0.0408282
0.0407199
0.0406137
0.0405172
0.0404442
0.0404136
0.0404565
0.040616
0.0409629
0.0416008
0.0427042
0.0445307
0.0679408
0.0637802
0.0578526
0.0534071
0.0512053
0.0499706
0.0487719
0.0476039
0.0466619
0.0459488
0.0453717
0.0448725
0.0444367
0.0440596
0.0437331
0.0434482
0.043198
0.0429772
0.042782
0.0426089
0.0424552
0.0423183
0.0421961
0.0420865
0.0419878
0.0418983
0.0418165
0.0417408
0.0416697
0.0416017
0.0415355
0.0414696
0.0414027
0.0413335
0.041261
0.0411844
0.0411037
0.0410192
0.040933
0.0408482
0.0407714
0.0407116
0.0406843
0.0407105
0.040824
0.0410711
0.0415266
0.0422968
0.0435542
0.0455424
0.0668481
0.063183
0.0577845
0.0535051
0.0512453
0.0499849
0.0488171
0.047669
0.0467214
0.0459981
0.0454163
0.0449153
0.0444771
0.0440969
0.0437677
0.0434806
0.0432284
0.0430059
0.0428091
0.0426348
0.04248
0.0423423
0.0422193
0.0421093
0.0420105
0.0419211
0.0418398
0.0417649
0.0416952
0.0416292
0.0415656
0.0415032
0.0414409
0.0413777
0.0413127
0.0412458
0.0411772
0.0411079
0.0410408
0.0409799
0.0409326
0.0409097
0.0409278
0.0410101
0.0411924
0.041524
0.0420816
0.0429731
0.0443654
0.0464859
0.0658103
0.0625803
0.0576769
0.0535824
0.0512831
0.0499943
0.048854
0.047729
0.0467791
0.0460463
0.0454598
0.0449571
0.0445168
0.0441339
0.0438021
0.0435128
0.0432587
0.0430346
0.0428364
0.0426608
0.0425049
0.0423663
0.0422428
0.0421324
0.0420334
0.0419443
0.0418635
0.0417896
0.0417213
0.0416574
0.0415966
0.0415379
0.0414804
0.0414233
0.0413662
0.0413091
0.0412529
0.0411992
0.0411514
0.0411145
0.041097
0.0411107
0.0411737
0.041311
0.0415601
0.041972
0.0426248
0.0436253
0.0451333
0.0473575
0.0648242
0.0619757
0.0575325
0.0536372
0.0513174
0.0499994
0.0488827
0.0477832
0.0468347
0.0460935
0.0455021
0.0449978
0.0445559
0.0441706
0.0438362
0.0435448
0.0432889
0.0430632
0.0428636
0.0426868
0.0425299
0.0423905
0.0422664
0.0421557
0.0420567
0.0419678
0.0418876
0.0418147
0.041748
0.0416862
0.0416284
0.0415736
0.0415211
0.0414703
0.0414212
0.0413743
0.0413307
0.0412928
0.0412645
0.0412519
0.041264
0.041314
0.0414212
0.041612
0.0419251
0.0424127
0.0431528
0.0442494
0.045854
0.0481546
0.063887
0.0613726
0.0573543
0.0536685
0.051347
0.0500007
0.0489035
0.047831
0.0468875
0.0461394
0.045543
0.0450372
0.0445941
0.0442067
0.04387
0.0435765
0.043319
0.0430917
0.0428908
0.0427128
0.042555
0.0424148
0.0422902
0.0421792
0.0420802
0.0419916
0.041912
0.0418403
0.0417753
0.0417158
0.0416611
0.0416102
0.0415628
0.0415186
0.0414778
0.0414412
0.0414105
0.0413886
0.04138
0.0413915
0.0414331
0.0415189
0.0416692
0.0419115
0.0422854
0.0428435
0.0436625
0.0448419
0.0465239
0.0488755
0.0629955
0.0607736
0.0571456
0.0536754
0.0513704
0.0499985
0.048917
0.047872
0.046937
0.0461838
0.0455825
0.0450753
0.0446313
0.0442422
0.0439034
0.043608
0.0433487
0.0431201
0.0429179
0.0427388
0.04258
0.0424392
0.0423141
0.0422028
0.0421038
0.0420156
0.0419369
0.0418664
0.0418031
0.041746
0.0416945
0.0416478
0.0416057
0.0415682
0.0415359
0.0415098
0.0414921
0.0414863
0.0414973
0.0415328
0.0416036
0.0417244
0.0419165
0.042208
0.042639
0.0432619
0.0441507
0.0453996
0.0471384
0.0495194
0.0621469
0.0601811
0.0569097
0.0536575
0.0513859
0.0499929
0.0489234
0.047906
0.0469826
0.0462264
0.0456205
0.0451118
0.0446673
0.0442769
0.0439362
0.0436389
0.0433782
0.0431482
0.0429448
0.0427647
0.0426051
0.0424635
0.042338
0.0422266
0.0421277
0.0420399
0.041962
0.0418928
0.0418313
0.0417768
0.0417286
0.0416862
0.0416496
0.041619
0.0415952
0.0415798
0.0415753
0.0415855
0.0416162
0.0416755
0.0417748
0.0419296
0.0421618
0.0425
0.042984
0.0436653
0.0446148
0.0459204
0.0476992
0.0500814
0.0613386
0.059597
0.0566501
0.053615
0.051392
0.0499838
0.0489234
0.0479326
0.0470238
0.0462668
0.0456568
0.0451467
0.0447019
0.0443106
0.0439683
0.0436694
0.0434072
0.043176
0.0429715
0.0427904
0.04263
0.0424879
0.0423619
0.0422504
0.0421517
0.0420644
0.0419874
0.0419196
0.0418601
0.0418082
0.0417634
0.0417254
0.0416944
0.0416708
0.0416557
0.0416511
0.0416597
0.041686
0.0417362
0.0418188
0.0419459
0.0421336
0.0424039
0.0427857
0.0433183
0.0440514
0.0450521
0.0464015
0.0482038
0.0505699
0.0605678
0.0590229
0.0563699
0.0535482
0.0513872
0.0499708
0.0489174
0.047952
0.0470599
0.0463046
0.0456914
0.0451798
0.0447351
0.0443432
0.0439996
0.0436993
0.0434357
0.0432034
0.0429979
0.0428159
0.0426547
0.0425121
0.0423858
0.0422742
0.0421758
0.0420891
0.042013
0.0419467
0.0418892
0.04184
0.0417987
0.0417653
0.04174
0.0417235
0.0417172
0.0417234
0.0417452
0.0417874
0.0418567
0.0419622
0.0421162
0.0423352
0.0426414
0.0430636
0.0436397
0.0444178
0.0454601
0.0468406
0.0486507
0.0509834
0.0598322
0.0584598
0.0560726
0.0534579
0.0513703
0.0499534
0.0489058
0.0479641
0.0470905
0.0463394
0.045724
0.0452111
0.0447665
0.0443746
0.0440301
0.0437284
0.0434637
0.0432303
0.0430238
0.0428411
0.0426793
0.0425361
0.0424096
0.042298
0.0421998
0.0421138
0.0420388
0.041974
0.0419186
0.0418722
0.0418346
0.0418058
0.0417862
0.0417769
0.0417795
0.0417964
0.0418314
0.0418893
0.0419773
0.0421049
0.0422847
0.0425334
0.042873
0.0433318
0.0439465
0.0447623
0.0458367
0.0472361
0.0490392
0.0513229
0.0591294
0.0579087
0.0557609
0.0533453
0.0513402
0.049931
0.0488888
0.0479691
0.0471153
0.0463707
0.0457543
0.0452404
0.0447962
0.0444045
0.0440594
0.0437567
0.0434909
0.0432566
0.0430493
0.0428658
0.0427035
0.0425599
0.0424333
0.0423217
0.0422239
0.0421386
0.0420647
0.0420015
0.0419483
0.0419048
0.0418709
0.0418467
0.041833
0.0418309
0.0418424
0.04187
0.0419178
0.0419912
0.0420974
0.0422462
0.0424505
0.042727
0.0430973
0.0435888
0.0442366
0.0450829
0.0461801
0.0475866
0.0493695
0.0515904
0.0584573
0.0573701
0.0554376
0.0532117
0.0512961
0.0499028
0.0488667
0.0479672
0.0471338
0.0463981
0.0457822
0.0452675
0.0448239
0.0444328
0.0440875
0.043784
0.0435173
0.0432822
0.0430743
0.0428902
0.0427273
0.0425834
0.0424566
0.0423452
0.0422478
0.0421633
0.0420906
0.042029
0.0419781
0.0419376
0.0419074
0.041888
0.0418802
0.0418853
0.0419055
0.0419438
0.0420042
0.0420926
0.0422163
0.0423854
0.0426127
0.0429148
0.0433128
0.043833
0.0445084
0.045378
0.0464887
0.0478914
0.0496419
0.0517882
0.0578139
0.0568444
0.0551054
0.0530586
0.0512375
0.0498679
0.0488395
0.0479586
0.047146
0.0464212
0.0458073
0.0452925
0.0448494
0.0444593
0.0441142
0.0438101
0.0435428
0.043307
0.0430985
0.0429139
0.0427507
0.0426066
0.0424797
0.0423685
0.0422716
0.0421878
0.0421164
0.0420566
0.042008
0.0419704
0.0419441
0.0419295
0.0419275
0.0419398
0.0419687
0.0420174
0.0420901
0.0421929
0.0423334
0.0425215
0.0427702
0.0430956
0.0435181
0.0440628
0.0447601
0.0456458
0.0467613
0.04815
0.0498574
0.0519193
0.0571972
0.0563317
0.0547663
0.0528878
0.0511643
0.0498255
0.0488071
0.0479436
0.0471517
0.0464394
0.0458293
0.0453149
0.0448728
0.0444838
0.0441392
0.0438351
0.0435672
0.0433309
0.043122
0.042937
0.0427734
0.0426292
0.0425023
0.0423914
0.042295
0.0422122
0.0421421
0.042084
0.0420378
0.0420033
0.0419808
0.0419709
0.0419748
0.0419942
0.0420316
0.0420904
0.0421751
0.0422917
0.0424479
0.0426539
0.0429221
0.0432683
0.043712
0.0442766
0.0449904
0.0458851
0.046997
0.0483625
0.0500174
0.0519869
0.0566057
0.0558321
0.0544225
0.052701
0.0510763
0.0497749
0.0487693
0.0479225
0.0471508
0.0464525
0.0458477
0.0453348
0.0448938
0.0445062
0.0441626
0.0438586
0.0435904
0.0433538
0.0431445
0.0429593
0.0427956
0.0426512
0.0425245
0.0424139
0.0423181
0.0422362
0.0421674
0.0421113
0.0420674
0.042036
0.0420173
0.0420122
0.0420218
0.0420482
0.0420939
0.0421625
0.0422585
0.0423882
0.0425592
0.0427815
0.0430672
0.0434316
0.043893
0.0444733
0.0451978
0.0460949
0.0471955
0.0485293
0.0501236
0.0519945
0.0560376
0.0553454
0.0540755
0.0525
0.050974
0.0497154
0.0487258
0.0478953
0.0471435
0.0464602
0.0458624
0.0453517
0.0449122
0.0445263
0.044184
0.0438804
0.0436123
0.0433755
0.0431661
0.0429807
0.0428169
0.0426725
0.042546
0.0424358
0.0423407
0.0422598
0.0421924
0.0421381
0.0420967
0.0420683
0.0420535
0.042053
0.0420683
0.0421015
0.0421552
0.0422331
0.0423399
0.0424818
0.0426664
0.0429034
0.0432047
0.0435845
0.0440601
0.0446514
0.0453812
0.0462743
0.0473564
0.0486511
0.0501783
0.051946
0.0554914
0.0548716
0.0537269
0.0522864
0.0508578
0.0496465
0.0486763
0.0478622
0.0471296
0.0464622
0.0458728
0.0453655
0.0449279
0.044544
0.0442032
0.0439006
0.0436327
0.0433959
0.0431864
0.0430011
0.0428373
0.0426931
0.0425668
0.0424571
0.0423627
0.0422829
0.0422169
0.0421645
0.0421255
0.0421001
0.042089
0.0420932
0.042114
0.0421537
0.0422151
0.0423018
0.0424188
0.0425719
0.0427689
0.0430189
0.0433334
0.0437258
0.044212
0.04481
0.0455399
0.0464228
0.0474799
0.0487292
0.0501837
0.0518452
0.0549659
0.0544102
0.0533779
0.052062
0.0507284
0.0495679
0.0486204
0.0478232
0.0471094
0.0464583
0.0458787
0.0453758
0.0449408
0.0445591
0.0442202
0.0439187
0.0436514
0.0434148
0.0432055
0.0430203
0.0428566
0.0427126
0.0425867
0.0424775
0.042384
0.0423052
0.0422407
0.0421902
0.0421536
0.0421313
0.0421238
0.0421324
0.0421586
0.0422045
0.0422732
0.0423682
0.0424944
0.0426578
0.0428657
0.043127
0.0434524
0.0438545
0.0443476
0.044948
0.0456729
0.0465402
0.0475665
0.0487649
0.0501426
0.0516962
0.0544597
0.0539611
0.0530296
0.0518283
0.0505864
0.0494793
0.0485577
0.0477782
0.0470829
0.0464484
0.0458797
0.0453825
0.0449505
0.0445713
0.0442347
0.0439347
0.0436683
0.0434322
0.0432231
0.0430382
0.0428748
0.0427311
0.0426056
0.042497
0.0424043
0.0423267
0.0422637
0.042215
0.0421808
0.0421614
0.0421576
0.0421705
0.0422017
0.0422536
0.042329
0.0424316
0.0425663
0.0427388
0.0429561
0.0432268
0.0435608
0.0439696
0.0444662
0.0450647
0.04578
0.0466265
0.0476169
0.0487599
0.0500579
0.0515032
0.0539717
0.0535238
0.0526829
0.0515867
0.0504329
0.0493807
0.0484879
0.0477273
0.0470502
0.0464325
0.0458757
0.0453851
0.044957
0.0445807
0.0442465
0.0439484
0.0436831
0.0434477
0.0432392
0.0430546
0.0428916
0.0427484
0.0426234
0.0425155
0.0424236
0.0423472
0.0422856
0.0422389
0.042207
0.0421905
0.0421901
0.042207
0.042243
0.0423004
0.042382
0.0424916
0.0426338
0.0428142
0.0430394
0.0433175
0.0436576
0.0440702
0.0445668
0.0451595
0.0458607
0.0466819
0.0476321
0.0487161
0.0499326
0.0512703
0.0535007
0.0530981
0.0523385
0.0513386
0.0502686
0.0492722
0.0484107
0.0476702
0.0470113
0.0464105
0.0458663
0.0453835
0.0449599
0.0445869
0.0442554
0.0439596
0.0436958
0.0434613
0.0432534
0.0430694
0.042907
0.0427643
0.0426399
0.0425327
0.0424418
0.0423665
0.0423064
0.0422615
0.0422319
0.0422181
0.0422209
0.0422417
0.0422822
0.0423446
0.0424318
0.0425476
0.0426963
0.0428832
0.0431148
0.0433983
0.0437422
0.0441557
0.0446488
0.045232
0.0459152
0.046707
0.0476133
0.0486358
0.0497698
0.0510017
0.0530457
0.0526835
0.051997
0.0510852
0.0500947
0.0491541
0.0483258
0.0476068
0.0469663
0.0463824
0.0458515
0.0453773
0.044959
0.0445897
0.0442614
0.043968
0.043706
0.0434728
0.0432658
0.0430825
0.0429207
0.0427786
0.0426549
0.0425485
0.0424585
0.0423844
0.0423258
0.0422826
0.0422552
0.042244
0.0422499
0.0422742
0.0423187
0.0423857
0.0424779
0.042599
0.0427531
0.0429453
0.0431815
0.0434684
0.0438136
0.0442252
0.0447118
0.045282
0.0459435
0.0467024
0.0475621
0.0485213
0.0495728
0.0507015
0.0526058
0.0522796
0.0516589
0.0508276
0.049912
0.0490267
0.0482333
0.0475371
0.0469152
0.0463482
0.045831
0.0453663
0.0449541
0.0445891
0.0442642
0.0439735
0.0437136
0.0434819
0.043276
0.0430935
0.0429325
0.0427912
0.0426682
0.0425627
0.0424737
0.0424007
0.0423435
0.0423021
0.0422767
0.0422679
0.0422766
0.0423042
0.0423523
0.0424233
0.0425198
0.0426453
0.0428037
0.0429997
0.0432389
0.0435272
0.0438713
0.0442783
0.0447554
0.0453094
0.045946
0.0466693
0.04748
0.0483749
0.0493447
0.0503736
0.0521801
0.0518861
0.0513245
0.0505668
0.0497214
0.0488903
0.048133
0.0474607
0.0468579
0.0463078
0.0458048
0.0453503
0.0449449
0.0445847
0.0442635
0.043976
0.0437184
0.0434884
0.0432838
0.0431024
0.0429423
0.0428018
0.0426797
0.042575
0.042487
0.0424152
0.0423594
0.0423196
0.0422961
0.0422895
0.0423008
0.0423312
0.0423825
0.0424569
0.0425569
0.0426858
0.0428473
0.0430459
0.0432863
0.043574
0.0439147
0.0443146
0.0447794
0.0453143
0.0459234
0.0466086
0.0473689
0.0481991
0.0490889
0.0500218
0.0517678
0.0515026
0.0509942
0.0503036
0.0495239
0.0487456
0.048025
0.0473778
0.0467945
0.0462614
0.0457727
0.0453291
0.0449313
0.0445764
0.0442593
0.0439751
0.0437202
0.0434923
0.0432892
0.043109
0.0429499
0.0428104
0.0426892
0.0425854
0.0424984
0.0424277
0.0423732
0.0423349
0.0423131
0.0423085
0.0423221
0.042355
0.0424089
0.042486
0.0425887
0.0427201
0.0428836
0.0430831
0.043323
0.0436082
0.0439434
0.0443338
0.0447837
0.0452971
0.0458763
0.0465217
0.0472306
0.0479967
0.0488086
0.0496498
0.051368
0.0511286
0.0506682
0.0500387
0.0493204
0.048593
0.0479094
0.0472881
0.0467248
0.0462089
0.0457348
0.0453026
0.0449129
0.0445639
0.0442513
0.0439708
0.0437188
0.0434931
0.0432918
0.043113
0.0429551
0.0428166
0.0426963
0.0425935
0.0425075
0.0424379
0.0423846
0.0423477
0.0423275
0.0423246
0.04234
0.042375
0.042431
0.0425102
0.0426148
0.0427476
0.0429118
0.0431109
0.0433487
0.0436294
0.0439571
0.0443356
0.0447684
0.0452581
0.0458056
0.04641
0.0470672
0.04777
0.0485067
0.0492611
0.0509801
0.0507638
0.0503466
0.0497728
0.0491116
0.0484332
0.0477864
0.0471918
0.0466489
0.0461503
0.045691
0.0452705
0.0448896
0.044547
0.0442394
0.0439628
0.043714
0.0434909
0.0432915
0.0431142
0.0429576
0.0428202
0.042701
0.0425991
0.0425141
0.0424456
0.0423934
0.0423577
0.0423388
0.0423374
0.0423543
0.0423908
0.0424484
0.0425289
0.0426345
0.0427677
0.0429314
0.0431287
0.0433628
0.0436373
0.0439554
0.0443202
0.0447339
0.0451981
0.0457125
0.046275
0.0468808
0.0475218
0.0481863
0.0488588
0.0506033
0.0504079
0.0500296
0.0495066
0.0488984
0.0482666
0.0476562
0.0470887
0.0465668
0.0460856
0.0456412
0.0452329
0.0448613
0.0445256
0.0442232
0.0439509
0.0437056
0.0434852
0.043288
0.0431125
0.0429572
0.042821
0.0427029
0.0426021
0.042518
0.0424504
0.0423992
0.0423646
0.0423468
0.0423465
0.0423646
0.0424021
0.0424606
0.0425417
0.0426474
0.04278
0.042942
0.043136
0.0433649
0.0436315
0.0439383
0.0442875
0.0446805
0.0451177
0.0455981
0.0461184
0.0466733
0.0472545
0.0478502
0.0484459
0.0502371
0.0500603
0.0497172
0.0492404
0.0486813
0.0480939
0.0475193
0.046979
0.0464783
0.0460148
0.0455854
0.0451895
0.0448276
0.0444993
0.0442027
0.0439349
0.0436933
0.0434759
0.0432811
0.0431074
0.0429538
0.0428189
0.0427018
0.042602
0.0425189
0.0424522
0.0424018
0.042368
0.0423511
0.0423516
0.0423704
0.0424085
0.0424672
0.0425482
0.0426532
0.0427841
0.0429431
0.0431326
0.0433548
0.0436119
0.0439058
0.0442378
0.0446087
0.0450179
0.0454635
0.0459419
0.046447
0.0469705
0.0475012
0.0480253
0.0498809
0.0497208
0.0494095
0.0489748
0.048461
0.0479157
0.0473759
0.0468628
0.0463837
0.0459379
0.0455237
0.0451404
0.0447886
0.0444681
0.0441776
0.0439146
0.043677