/*--------------------------------*- C++ -*----------------------------------*\
  =========                 |
  \\      /  F ield         | OpenFOAM: The Open Source CFD Toolbox
   \\    /   O peration     | Website:  https://openfoam.org
    \\  /    A nd           | Version:  7
     \\/     M anipulation  |
\*---------------------------------------------------------------------------*/
FoamFile
{
    version     2.0;
    format      ascii;
    class       surfaceScalarField;
    location    "0.3";
    object      phi_0;
}
// * * * * * * * * * * * * * * * * * * * * * * * * * * * * * * * * * * * * * //

dimensions      [0 3 -1 0 0 0 0];

internalField   nonuniform List<scalar> 
139350
(
6.45915e-08
9.204e-08
3.19484e-08
3.2643e-08
2.30556e-08
8.89282e-09
1.95598e-08
3.49582e-09
1.76068e-08
1.95298e-09
1.61783e-08
1.42849e-09
1.50447e-08
1.13366e-09
1.41303e-08
9.14395e-10
1.33775e-08
7.5276e-10
1.27432e-08
6.3433e-10
1.21984e-08
5.44791e-10
1.17237e-08
4.74653e-10
1.13054e-08
4.18285e-10
1.09333e-08
3.72142e-10
1.05995e-08
3.33805e-10
1.0298e-08
3.01543e-10
1.00239e-08
2.74083e-10
9.7734e-09
2.50475e-10
9.5434e-09
2.29995e-10
9.33132e-09
2.12088e-10
9.135e-09
1.96314e-10
8.95267e-09
1.82328e-10
8.78283e-09
1.69848e-10
8.62418e-09
1.58645e-10
8.47566e-09
1.48523e-10
8.33634e-09
1.39323e-10
8.20544e-09
1.30896e-10
8.08232e-09
1.23123e-10
7.96644e-09
1.15877e-10
7.85738e-09
1.09062e-10
7.75483e-09
1.02544e-10
7.65859e-09
9.6248e-11
7.56859e-09
8.99935e-11
7.48487e-09
8.37213e-11
7.40771e-09
7.7166e-11
7.33746e-09
7.02445e-11
7.27484e-09
6.26207e-11
7.22086e-09
5.39784e-11
7.17667e-09
4.41922e-11
7.1447e-09
3.19696e-11
7.12627e-09
1.84264e-11
7.12687e-09
-6.00489e-13
7.14725e-09
-2.03735e-11
7.19896e-09
-5.1716e-11
7.27921e-09
-8.02427e-11
7.41543e-09
-1.36219e-10
7.57922e-09
-1.63792e-10
7.85978e-09
-2.80567e-10
7.90524e-09
-4.54551e-11
-4.09686e-09
1.20021e-08
1.26024e-07
1.27459e-07
9.12583e-08
6.7409e-08
7.19331e-08
2.82181e-08
6.12024e-08
1.42266e-08
5.47532e-08
8.40211e-09
5.02573e-08
5.92437e-09
4.67719e-08
4.61915e-09
4.39552e-08
3.73109e-09
4.16279e-08
3.08007e-09
3.9665e-08
2.59717e-09
3.79793e-08
2.23046e-09
3.65106e-08
1.94336e-09
3.52161e-08
1.71283e-09
3.40641e-08
1.52415e-09
3.30305e-08
1.36738e-09
3.20966e-08
1.23543e-09
3.12476e-08
1.1231e-09
3.04716e-08
1.02652e-09
2.97588e-08
9.42744e-10
2.91014e-08
8.69501e-10
2.84927e-08
8.05012e-10
2.79272e-08
7.47866e-10
2.74001e-08
6.9692e-10
2.69075e-08
6.51246e-10
2.64459e-08
6.10063e-10
2.60126e-08
5.72719e-10
2.56048e-08
5.38646e-10
2.52206e-08
5.07354e-10
2.48581e-08
4.78388e-10
2.45158e-08
4.51352e-10
2.41925e-08
4.25814e-10
2.38873e-08
4.01434e-10
2.35996e-08
3.77687e-10
2.33291e-08
3.54272e-10
2.30758e-08
3.30401e-10
2.28403e-08
3.05777e-10
2.26238e-08
2.79156e-10
2.24277e-08
2.50014e-10
2.22552e-08
2.16706e-10
2.21098e-08
1.77413e-10
2.19969e-08
1.31253e-10
2.19245e-08
7.18679e-11
2.19013e-08
2.80012e-12
2.1944e-08
-9.44164e-11
2.20652e-08
-2.01484e-10
2.22951e-08
-3.66118e-10
2.26671e-08
-5.35712e-10
2.31678e-08
-7.81344e-10
2.38196e-08
-6.97248e-10
-4.99073e-09
2.47135e-08
1.58806e-07
1.35057e-07
1.36489e-07
8.97256e-08
1.17483e-07
4.72249e-08
1.03299e-07
2.84098e-08
9.32881e-08
1.84134e-08
8.5983e-08
1.32294e-08
8.02752e-08
1.0327e-08
7.56229e-08
8.38332e-09
7.17439e-08
6.95911e-09
6.84508e-08
5.89023e-09
6.56102e-08
5.07106e-09
6.3127e-08
4.42656e-09
6.09324e-08
3.90743e-09
5.89751e-08
3.48148e-09
5.72157e-08
3.12676e-09
5.56235e-08
2.82761e-09
5.41741e-08
2.57255e-09
5.28477e-08
2.35294e-09
5.16282e-08
2.16222e-09
5.05024e-08
1.99533e-09
4.94591e-08
1.84828e-09
4.84891e-08
1.7179e-09
4.75844e-08
1.60163e-09
4.67382e-08
1.4974e-09
4.59448e-08
1.40344e-09
4.51992e-08
1.31831e-09
4.44971e-08
1.24074e-09
4.38348e-08
1.16964e-09
4.32092e-08
1.10404e-09
4.26175e-08
1.04306e-09
4.20575e-08
9.85825e-10
4.15273e-08
9.31571e-10
4.10257e-08
8.79327e-10
4.05516e-08
8.28388e-10
4.01047e-08
7.77313e-10
3.96849e-08
7.25499e-10
3.92937e-08
6.70411e-10
3.89321e-08
6.11583e-10
3.86042e-08
5.44582e-10
3.83132e-08
4.68483e-10
3.80676e-08
3.76854e-10
3.78743e-08
2.65165e-10
3.77491e-08
1.27933e-10
3.77073e-08
-5.26029e-11
3.77779e-08
-2.72057e-10
3.79765e-08
-5.64689e-10
3.84131e-08
-9.72285e-10
3.89299e-08
-1.29824e-09
3.99681e-08
-1.73539e-09
-4.96455e-09
3.99419e-08
1.75663e-07
1.3091e-07
1.65591e-07
9.97981e-08
1.52714e-07
6.01016e-08
1.40108e-07
4.10154e-08
1.29413e-07
2.91086e-08
1.20766e-07
2.1877e-08
1.13651e-07
1.74418e-08
1.07669e-07
1.43655e-08
1.02568e-07
1.20601e-08
9.81652e-08
1.02926e-08
9.43212e-08
8.91498e-09
9.09297e-08
7.81806e-09
8.79104e-08
6.92676e-09
8.52015e-08
6.19039e-09
8.27546e-08
5.5737e-09
8.0531e-08
5.05116e-09
7.84997e-08
4.60385e-09
7.66352e-08
4.21741e-09
7.49166e-08
3.88085e-09
7.33263e-08
3.58561e-09
7.18497e-08
3.32491e-09
7.04742e-08
3.09335e-09
6.91893e-08
2.88655e-09
6.79858e-08
2.70091e-09
6.68558e-08
2.53343e-09
6.57926e-08
2.3816e-09
6.47901e-08
2.24324e-09
6.38432e-08
2.11647e-09
6.29476e-08
1.99966e-09
6.20994e-08
1.89126e-09
6.12953e-08
1.78989e-09
6.05327e-08
1.6942e-09
5.98093e-08
1.6027e-09
5.91235e-08
1.51418e-09
5.84744e-08
1.42644e-09
5.78614e-08
1.33853e-09
5.72854e-08
1.24638e-09
5.67472e-08
1.1498e-09
5.6251e-08
1.0408e-09
5.57992e-08
9.2022e-10
5.54019e-08
7.74156e-10
5.5065e-08
6.02065e-10
5.48077e-08
3.8527e-10
5.46432e-08
1.11929e-10
5.46113e-08
-2.40177e-10
5.47129e-08
-6.66323e-10
5.5106e-08
-1.36532e-09
5.55781e-08
-1.7704e-09
5.66181e-08
-2.77536e-09
-5.1568e-09
5.68103e-08
1.84559e-07
1.23135e-07
1.82318e-07
1.0204e-07
1.76094e-07
6.6325e-08
1.67745e-07
4.93652e-08
1.59114e-07
3.77388e-08
1.51199e-07
2.97925e-08
1.44121e-07
2.45193e-08
1.37819e-07
2.06683e-08
1.32216e-07
1.76622e-08
1.27231e-07
1.52786e-08
1.22775e-07
1.33708e-08
1.18772e-07
1.18209e-08
1.15157e-07
1.05416e-08
1.11876e-07
9.47148e-09
1.08884e-07
8.56599e-09
1.06143e-07
7.79219e-09
1.03621e-07
7.12499e-09
1.01294e-07
6.54507e-09
9.91374e-08
6.03733e-09
9.71331e-08
5.58988e-09
9.52648e-08
5.19322e-09
9.35185e-08
4.83967e-09
9.1882e-08
4.52296e-09
9.0345e-08
4.23791e-09
8.88983e-08
3.98017e-09
8.75339e-08
3.74605e-09
8.62447e-08
3.53241e-09
8.50247e-08
3.33647e-09
8.38685e-08
3.15584e-09
8.27715e-08
2.98826e-09
8.17297e-08
2.83173e-09
8.07396e-08
2.68428e-09
7.97984e-08
2.54383e-09
7.8904e-08
2.4086e-09
7.80549e-08
2.27558e-09
7.725e-08
2.14346e-09
7.64898e-08
2.0065e-09
7.57748e-08
1.86483e-09
7.51089e-08
1.70668e-09
7.44943e-08
1.53482e-09
7.3941e-08
1.32744e-09
7.34549e-08
1.08824e-09
7.30557e-08
7.84399e-10
7.27558e-08
4.11908e-10
7.26006e-08
-8.50595e-11
7.25834e-08
-6.49047e-10
7.28676e-08
-1.64951e-09
7.32992e-08
-2.20206e-09
7.41457e-08
-3.62181e-09
-5.7192e-09
7.47081e-08
1.90388e-07
1.14964e-07
1.91849e-07
1.00578e-07
1.90237e-07
6.79373e-08
1.8614e-07
5.34621e-08
1.80694e-07
4.31852e-08
1.74931e-07
3.55548e-08
1.69228e-07
3.02229e-08
1.63738e-07
2.61576e-08
1.5856e-07
2.2841e-08
1.53733e-07
2.01049e-08
1.49262e-07
1.78423e-08
1.45128e-07
1.59545e-08
1.41308e-07
1.4362e-08
1.37774e-07
1.30054e-08
1.345e-07
1.18401e-08
1.31461e-07
1.08314e-08
1.28633e-07
9.95213e-09
1.25998e-07
9.1807e-09
1.23535e-07
8.49979e-09
1.2123e-07
7.89549e-09
1.19066e-07
7.35644e-09
1.17033e-07
6.87334e-09
1.15117e-07
6.43848e-09
1.1331e-07
6.0454e-09
1.11601e-07
5.68862e-09
1.09984e-07
5.36345e-09
1.0845e-07
5.06587e-09
1.06995e-07
4.79226e-09
1.05611e-07
4.53955e-09
1.04294e-07
4.30478e-09
1.03041e-07
4.08535e-09
1.01846e-07
3.87868e-09
1.00708e-07
3.68209e-09
9.96235e-08
3.49323e-09
9.85908e-08
3.30828e-09
9.76087e-08
3.12554e-09
9.66776e-08
2.93762e-09
9.57976e-08
2.74488e-09
9.49723e-08
2.53193e-09
9.42041e-08
2.30305e-09
9.35023e-08
2.0292e-09
9.28733e-08
1.71723e-09
9.23364e-08
1.32132e-09
9.19039e-08
8.44472e-10
9.16215e-08
1.97247e-10
9.1488e-08
-5.15511e-10
9.16319e-08
-1.79338e-09
9.2022e-08
-2.59222e-09
9.26775e-08
-4.27723e-09
-6.48065e-09
9.34389e-08
1.9554e-07
1.07239e-07
1.98245e-07
9.78737e-08
1.98962e-07
6.72197e-08
1.97776e-07
5.46484e-08
1.95136e-07
4.58248e-08
1.91786e-07
3.89052e-08
1.88046e-07
3.39633e-08
1.84088e-07
3.01157e-08
1.80061e-07
2.68673e-08
1.76077e-07
2.4089e-08
1.72203e-07
2.17163e-08
1.68478e-07
1.96801e-08
1.6492e-07
1.79193e-08
1.61539e-07
1.63868e-08
1.58334e-07
1.50454e-08
1.553e-07
1.38653e-08
1.5243e-07
1.28218e-08
1.49716e-07
1.18949e-08
1.47148e-07
1.10679e-08
1.44716e-07
1.03267e-08
1.42413e-07
9.65997e-09
1.40228e-07
9.05785e-09
1.38155e-07
8.51216e-09
1.36184e-07
8.01587e-09
1.3431e-07
7.56294e-09
1.32525e-07
7.14809e-09
1.30824e-07
6.76675e-09
1.29202e-07
6.41476e-09
1.27653e-07
6.08853e-09
1.26173e-07
5.78459e-09
1.24759e-07
5.49987e-09
1.23406e-07
5.23124e-09
1.22113e-07
4.97554e-09
1.20876e-07
4.72992e-09
1.19694e-07
4.48977e-09
1.18567e-07
4.25302e-09
1.17494e-07
4.01078e-09
1.16475e-07
3.76343e-09
1.15515e-07
3.49243e-09
1.14615e-07
3.20284e-09
1.13785e-07
2.85965e-09
1.13031e-07
2.47104e-09
1.12371e-07
1.98071e-09
1.1182e-07
1.39548e-09
1.11419e-07
5.98905e-10
1.11181e-07
-2.77515e-10
1.11182e-07
-1.79509e-09
1.1151e-07
-2.9198e-09
1.12043e-07
-4.8101e-09
-7.32398e-09
1.12886e-07
2.00847e-07
9.99762e-08
2.03773e-07
9.49477e-08
2.05321e-07
6.56718e-08
2.05632e-07
5.43379e-08
2.04798e-07
4.66584e-08
2.03308e-07
4.03947e-08
2.01352e-07
3.59201e-08
1.99013e-07
3.24547e-08
1.96398e-07
2.94822e-08
1.9361e-07
2.6877e-08
1.9073e-07
2.45965e-08
1.87817e-07
2.25923e-08
1.84917e-07
2.08195e-08
1.82061e-07
1.92433e-08
1.79269e-07
1.78367e-08
1.76558e-07
1.65771e-08
1.73934e-07
1.54457e-08
1.71403e-07
1.44261e-08
1.68966e-07
1.35045e-08
1.66624e-07
1.26691e-08
1.64374e-07
1.19097e-08
1.62214e-07
1.12174e-08
1.60142e-07
1.05847e-08
1.58153e-07
1.00047e-08
1.56244e-07
9.47162e-09
1.54412e-07
8.98023e-09
1.52653e-07
8.52587e-09
1.50963e-07
8.10423e-09
1.4934e-07
7.71155e-09
1.47781e-07
7.3441e-09
1.46282e-07
6.99856e-09
1.44842e-07
6.67148e-09
1.43458e-07
6.35934e-09
1.42129e-07
6.0589e-09
1.40854e-07
5.76494e-09
1.39632e-07
5.47505e-09
1.38464e-07
5.17903e-09
1.3735e-07
4.87711e-09
1.36294e-07
4.5482e-09
1.353e-07
4.19731e-09
1.34374e-07
3.78503e-09
1.33527e-07
3.31877e-09
1.32772e-07
2.73515e-09
1.32128e-07
2.03974e-09
1.31627e-07
1.10025e-09
1.31301e-07
4.82138e-11
1.31179e-07
-1.67308e-09
1.31425e-07
-3.16556e-09
1.3189e-07
-5.27519e-09
-8.21319e-09
1.32779e-07
2.06446e-07
9.30621e-08
2.09337e-07
9.20572e-08
2.11031e-07
6.39778e-08
2.1192e-07
5.34488e-08
2.11983e-07
4.65957e-08
2.11588e-07
4.07889e-08
2.1085e-07
3.66585e-08
2.09771e-07
3.35342e-08
2.08388e-07
3.08649e-08
2.06761e-07
2.85042e-08
2.04945e-07
2.64121e-08
2.0299e-07
2.45471e-08
2.00938e-07
2.28711e-08
1.98826e-07
2.13561e-08
1.96681e-07
1.99816e-08
1.94527e-07
1.8731e-08
1.92382e-07
1.75906e-08
1.9026e-07
1.65483e-08
1.88171e-07
1.55937e-08
1.86122e-07
1.47179e-08
1.84119e-07
1.39127e-08
1.82165e-07
1.3171e-08
1.80263e-07
1.24866e-08
1.78414e-07
1.18537e-08
1.76619e-07
1.12673e-08
1.74876e-07
1.07226e-08
1.73187e-07
1.02154e-08
1.71549e-07
9.74167e-09
1.69963e-07
9.29778e-09
1.68427e-07
8.88007e-09
1.66941e-07
8.48524e-09
1.65502e-07
8.10973e-09
1.64112e-07
7.74985e-09
1.62769e-07
7.40217e-09
1.61472e-07
7.06099e-09
1.60224e-07
6.72364e-09
1.59024e-07
6.37893e-09
1.57874e-07
6.02673e-09
1.56779e-07
5.64406e-09
1.55741e-07
5.23512e-09
1.54768e-07
4.75772e-09
1.5387e-07
4.21649e-09
1.53061e-07
3.54455e-09
1.5236e-07
2.74104e-09
1.5179e-07
1.66946e-09
1.51401e-07
4.37481e-10
1.51186e-07
-1.45758e-09
1.51344e-07
-3.32437e-09
1.51776e-07
-5.70673e-09
-9.13804e-09
1.52701e-07
2.12288e-07
8.64363e-08
2.15149e-07
8.91959e-08
2.16785e-07
6.23423e-08
2.17832e-07
5.24016e-08
2.18241e-07
4.61866e-08
2.1835e-07
4.06802e-08
2.18265e-07
3.67429e-08
2.17957e-07
3.38426e-08
2.17417e-07
3.14045e-08
2.16666e-07
2.92561e-08
2.15726e-07
2.73518e-08
2.14624e-07
2.56492e-08
2.13385e-07
2.41098e-08
2.12035e-07
2.2706e-08
2.10598e-07
2.14192e-08
2.09093e-07
2.02354e-08
2.0754e-07
1.91434e-08
2.05955e-07
1.81338e-08
2.0435e-07
1.71988e-08
2.02736e-07
1.63314e-08
2.01123e-07
1.55256e-08
1.99518e-07
1.4776e-08
1.97927e-07
1.40778e-08
1.96354e-07
1.34264e-08
1.94804e-07
1.28176e-08
1.93279e-07
1.22477e-08
1.91781e-07
1.17131e-08
1.90313e-07
1.12101e-08
1.88875e-07
1.07356e-08
1.87469e-07
1.02862e-08
1.86095e-07
9.85885e-09
1.84755e-07
9.45001e-09
1.83449e-07
9.05599e-09
1.82178e-07
8.67335e-09
1.80943e-07
8.29608e-09
1.79745e-07
7.92133e-09
1.78587e-07
7.53717e-09
1.7747e-07
7.14299e-09
1.764e-07
6.71463e-09
1.7538e-07
6.25472e-09
1.74418e-07
5.71991e-09
1.73524e-07
5.11031e-09
1.7271e-07
4.35888e-09
1.71997e-07
3.45382e-09
1.71402e-07
2.26473e-09
1.70981e-07
8.58015e-10
1.70711e-07
-1.18763e-09
1.70793e-07
-3.40598e-09
1.71208e-07
-6.12201e-09
-1.00961e-08
1.72166e-07
2.18329e-07
8.00878e-08
2.21203e-07
8.63221e-08
2.22757e-07
6.07879e-08
2.23831e-07
5.13277e-08
2.2435e-07
4.56682e-08
2.24636e-07
4.03938e-08
2.24828e-07
3.6551e-08
2.24898e-07
3.37727e-08
2.24824e-07
3.14785e-08
2.24606e-07
2.94735e-08
2.2425e-07
2.77079e-08
2.23762e-07
2.61374e-08
2.23151e-07
2.47209e-08
2.22428e-07
2.34287e-08
2.21607e-07
2.22407e-08
2.20699e-07
2.11428e-08
2.19719e-07
2.0124e-08
2.18677e-07
1.91756e-08
2.17585e-07
1.82907e-08
2.16453e-07
1.74635e-08
2.1529e-07
1.66888e-08
2.14103e-07
1.59625e-08
2.129e-07
1.52807e-08
2.11687e-07
1.46396e-08
2.10468e-07
1.40361e-08
2.09249e-07
1.3467e-08
2.08033e-07
1.29292e-08
2.06823e-07
1.24198e-08
2.05623e-07
1.1936e-08
2.04435e-07
1.14747e-08
2.0326e-07
1.10332e-08
2.02102e-07
1.06081e-08
2.00962e-07
1.01958e-08
1.99843e-07
9.79286e-09
1.98746e-07
9.39316e-09
1.97673e-07
8.99371e-09
1.96629e-07
8.58206e-09
1.95615e-07
8.157e-09
1.94635e-07
7.69379e-09
1.93697e-07
7.19294e-09
1.92806e-07
6.61133e-09
1.91973e-07
5.94321e-09
1.91207e-07
5.12434e-09
1.90533e-07
4.12839e-09
1.89959e-07
2.83893e-09
1.89544e-07
1.27268e-09
1.89263e-07
-9.06534e-10
1.89292e-07
-3.43484e-09
1.89694e-07
-6.52388e-09
-1.10781e-08
1.90676e-07
2.24558e-07
7.40232e-08
2.27467e-07
8.34129e-08
2.28954e-07
5.93012e-08
2.30033e-07
5.02488e-08
2.30592e-07
4.51088e-08
2.30927e-07
4.00588e-08
2.31208e-07
3.62698e-08
2.31426e-07
3.35549e-08
2.31561e-07
3.13439e-08
2.3161e-07
2.9424e-08
2.31575e-07
2.77436e-08
2.31452e-07
2.62599e-08
2.31243e-07
2.49303e-08
2.30948e-07
2.37231e-08
2.30573e-07
2.26164e-08
2.30121e-07
2.15947e-08
2.29599e-07
2.06462e-08
2.29013e-07
1.97619e-08
2.28369e-07
1.89345e-08
2.27674e-07
1.81582e-08
2.26934e-07
1.74283e-08
2.26156e-07
1.67408e-08
2.25345e-07
1.6092e-08
2.24506e-07
1.54789e-08
2.23643e-07
1.48986e-08
2.22762e-07
1.43482e-08
2.21866e-07
1.38253e-08
2.20959e-07
1.3327e-08
2.20044e-07
1.2851e-08
2.19124e-07
1.23944e-08
2.18202e-07
1.19547e-08
2.17282e-07
1.15287e-08
2.16365e-07
1.11128e-08
2.15454e-07
1.07037e-08
2.14552e-07
1.0295e-08
2.13662e-07
9.88364e-09
2.12787e-07
9.45689e-09
2.11932e-07
9.01276e-09
2.11099e-07
8.52647e-09
2.10296e-07
7.99595e-09
2.09528e-07
7.37952e-09
2.08807e-07
6.66449e-09
2.08139e-07
5.79198e-09
2.07548e-07
4.71904e-09
2.0704e-07
3.34677e-09
2.06669e-07
1.64435e-09
2.06416e-07
-6.53805e-10
2.06427e-07
-3.4455e-09
2.06814e-07
-6.91077e-09
-1.20572e-08
2.07793e-07
2.30979e-07
6.82505e-08
2.33932e-07
8.04599e-08
2.35359e-07
5.78738e-08
2.36444e-07
4.9164e-08
2.37037e-07
4.45159e-08
2.37387e-07
3.97087e-08
2.37689e-07
3.59672e-08
2.37953e-07
3.32915e-08
2.38163e-07
3.11339e-08
2.38321e-07
2.92653e-08
2.38431e-07
2.7634e-08
2.3849e-07
2.62009e-08
2.38496e-07
2.49242e-08
2.38448e-07
2.37713e-08
2.38345e-07
2.27196e-08
2.38187e-07
2.17524e-08
2.37976e-07
2.08572e-08
2.37713e-07
2.00244e-08
2.37402e-07
1.92459e-08
2.37044e-07
1.85158e-08
2.36644e-07
1.7829e-08
2.36203e-07
1.71812e-08
2.35726e-07
1.65689e-08
2.35216e-07
1.5989e-08
2.34676e-07
1.54386e-08
2.3411e-07
1.4915e-08
2.33519e-07
1.44157e-08
2.32908e-07
1.39381e-08
2.32279e-07
1.348e-08
2.31635e-07
1.30386e-08
2.30978e-07
1.26113e-08
2.30312e-07
1.21951e-08
2.29638e-07
1.17863e-08
2.2896e-07
1.13817e-08
2.28281e-07
1.09747e-08
2.27602e-07
1.05619e-08
2.26929e-07
1.01306e-08
2.26264e-07
9.67767e-09
2.25611e-07
9.17895e-09
2.24978e-07
8.62924e-09
2.24368e-07
7.9894e-09
2.23793e-07
7.23911e-09
2.23259e-07
6.32641e-09
2.22786e-07
5.19211e-09
2.22379e-07
3.75348e-09
2.22082e-07
1.94154e-09
2.21887e-07
-4.58816e-10
2.21913e-07
-3.47116e-09
2.22287e-07
-7.28518e-09
-1.29945e-08
2.23224e-07
2.376e-07
6.27755e-08
2.40599e-07
7.74607e-08
2.41969e-07
5.65036e-08
2.43059e-07
4.80744e-08
2.43688e-07
4.38862e-08
2.44052e-07
3.93454e-08
2.44359e-07
3.56596e-08
2.44635e-07
3.30158e-08
2.44867e-07
3.09014e-08
2.45062e-07
2.90704e-08
2.45226e-07
2.74702e-08
2.4536e-07
2.6067e-08
2.45463e-07
2.48211e-08
2.45534e-07
2.37002e-08
2.45572e-07
2.26815e-08
2.45576e-07
2.17482e-08
2.45546e-07
2.08876e-08
2.45481e-07
2.00894e-08
2.45381e-07
1.93456e-08
2.45248e-07
1.86495e-08
2.45081e-07
1.79959e-08
2.44882e-07
1.73803e-08
2.44652e-07
1.6799e-08
2.44392e-07
1.62485e-08
2.44105e-07
1.5726e-08
2.43791e-07
1.52286e-08
2.43453e-07
1.47537e-08
2.43092e-07
1.42989e-08
2.42711e-07
1.38615e-08
2.4231e-07
1.3439e-08
2.41893e-07
1.30285e-08
2.41461e-07
1.26272e-08
2.41016e-07
1.22311e-08
2.40561e-07
1.18369e-08
2.40098e-07
1.14378e-08
2.39629e-07
1.10303e-08
2.39159e-07
1.06014e-08
2.38689e-07
1.0147e-08
2.38225e-07
9.64369e-09
2.37771e-07
9.08294e-09
2.37331e-07
8.42888e-09
2.36917e-07
7.65348e-09
2.36532e-07
6.71187e-09
2.36192e-07
5.53133e-09
2.35905e-07
4.04118e-09
2.35702e-07
2.14461e-09
2.35581e-07
-3.3849e-10
2.35643e-07
-3.53323e-09
2.3601e-07
-7.65217e-09
-1.38523e-08
2.36868e-07
2.4443e-07
5.7602e-08
2.47469e-07
7.44219e-08
2.4879e-07
5.51826e-08
2.49879e-07
4.69847e-08
2.50547e-07
4.3218e-08
2.50928e-07
3.89653e-08
2.51239e-07
3.53478e-08
2.5152e-07
3.27351e-08
2.5176e-07
3.06616e-08
2.51965e-07
2.88649e-08
2.52146e-07
2.72898e-08
2.52305e-07
2.59076e-08
2.52445e-07
2.46817e-08
2.52565e-07
2.35804e-08
2.52665e-07
2.25814e-08
2.52745e-07
2.16682e-08
2.52804e-07
2.08281e-08
2.52843e-07
2.0051e-08
2.5286e-07
1.93286e-08
2.52855e-07
1.86545e-08
2.52828e-07
1.8023e-08
2.52778e-07
1.74296e-08
2.52707e-07
1.68703e-08
2.52614e-07
1.63416e-08
2.525e-07
1.58405e-08
2.52364e-07
1.5364e-08
2.52209e-07
1.49094e-08
2.52033e-07
1.44739e-08
2.5184e-07
1.40551e-08
2.51629e-07
1.36501e-08
2.51401e-07
1.32559e-08
2.51159e-07
1.28696e-08
2.50903e-07
1.24871e-08
2.50635e-07
1.21048e-08
2.50357e-07
1.17158e-08
2.50071e-07
1.13161e-08
2.4978e-07
1.08929e-08
2.49486e-07
1.04406e-08
2.49193e-07
9.93725e-09
2.48905e-07
9.37056e-09
2.48626e-07
8.70832e-09
2.48364e-07
7.91545e-09
2.48122e-07
6.95325e-09
2.47914e-07
5.73909e-09
2.47745e-07
4.21031e-09
2.4764e-07
2.24971e-09
2.47599e-07
-2.96999e-10
2.47703e-07
-3.63779e-09
2.48064e-07
-8.01243e-09
-1.46024e-08
2.48814e-07
2.51477e-07
5.27317e-08
2.54546e-07
7.1353e-08
2.55828e-07
5.39003e-08
2.56912e-07
4.59005e-08
2.57618e-07
4.25123e-08
2.58018e-07
3.85655e-08
2.58335e-07
3.50306e-08
2.58621e-07
3.24494e-08
2.58866e-07
3.04169e-08
2.59075e-07
2.86552e-08
2.59261e-07
2.71043e-08
2.59428e-07
2.57406e-08
2.59579e-07
2.45307e-08
2.59715e-07
2.34439e-08
2.59838e-07
2.24582e-08
2.59949e-07
2.15579e-08
2.60046e-07
2.07304e-08
2.60132e-07
1.99659e-08
2.60204e-07
1.92565e-08
2.60263e-07
1.85954e-08
2.60308e-07
1.79773e-08
2.6034e-07
1.73976e-08
2.60358e-07
1.68524e-08
2.60362e-07
1.63379e-08
2.60351e-07
1.58512e-08
2.60326e-07
1.53891e-08
2.60287e-07
1.49488e-08
2.60233e-07
1.45276e-08
2.60165e-07
1.41227e-08
2.60084e-07
1.37313e-08
2.5999e-07
1.33501e-08
2.59883e-07
1.29762e-08
2.59765e-07
1.2605e-08
2.59637e-07
1.22331e-08
2.595e-07
1.18533e-08
2.59355e-07
1.1461e-08
2.59204e-07
1.10436e-08
2.5905e-07
1.05943e-08
2.58895e-07
1.00923e-08
2.58744e-07
9.52196e-09
2.58598e-07
8.85455e-09
2.58464e-07
8.04915e-09
2.58345e-07
7.07176e-09
2.58251e-07
5.83325e-09
2.58185e-07
4.27619e-09
2.58167e-07
2.26788e-09
2.58197e-07
-3.26354e-10
2.58337e-07
-3.77844e-09
2.58683e-07
-8.35772e-09
-1.52273e-08
2.59307e-07
2.5875e-07
4.81647e-08
2.61839e-07
6.82639e-08
2.63093e-07
5.26461e-08
2.64167e-07
4.48268e-08
2.64907e-07
4.17717e-08
2.65329e-07
3.81438e-08
2.65653e-07
3.47068e-08
2.65944e-07
3.21585e-08
2.66194e-07
3.0167e-08
2.66407e-07
2.84419e-08
2.66595e-07
2.69162e-08
2.66765e-07
2.55709e-08
2.66919e-07
2.43761e-08
2.67061e-07
2.33022e-08
2.67191e-07
2.23278e-08
2.67312e-07
2.14373e-08
2.67423e-07
2.06189e-08
2.67526e-07
1.9863e-08
2.67621e-07
1.91617e-08
2.67708e-07
1.85088e-08
2.67786e-07
1.78989e-08
2.67856e-07
1.73276e-08
2.67918e-07
1.67908e-08
2.67971e-07
1.6285e-08
2.68015e-07
1.58072e-08
2.68049e-07
1.53542e-08
2.68075e-07
1.49232e-08
2.68091e-07
1.45114e-08
2.68098e-07
1.41158e-08
2.68096e-07
1.37336e-08
2.68085e-07
1.33615e-08
2.68064e-07
1.29963e-08
2.68036e-07
1.26334e-08
2.68e-07
1.22689e-08
2.67958e-07
1.18958e-08
2.6791e-07
1.15088e-08
2.67858e-07
1.10959e-08
2.67804e-07
1.06484e-08
2.67748e-07
1.01473e-08
2.67697e-07
9.57374e-09
2.67649e-07
8.90203e-09
2.67612e-07
8.0868e-09
2.67586e-07
7.09735e-09
2.67578e-07
5.8408e-09
2.67592e-07
4.26308e-09
2.67639e-07
2.22011e-09
2.67722e-07
-4.09425e-10
2.67885e-07
-3.94074e-09
2.68199e-07
-8.67187e-09
-1.57157e-08
2.68687e-07
2.66258e-07
4.38993e-08
2.69356e-07
6.51653e-08
2.70593e-07
5.14096e-08
2.71651e-07
4.3768e-08
2.72424e-07
4.09997e-08
2.72869e-07
3.76986e-08
2.732e-07
3.43757e-08
2.73496e-07
3.18622e-08
2.73752e-07
2.99116e-08
2.73969e-07
2.82247e-08
2.74159e-07
2.67256e-08
2.74331e-07
2.53993e-08
2.74487e-07
2.42198e-08
2.74631e-07
2.31588e-08
2.74763e-07
2.21951e-08
2.74887e-07
2.13137e-08
2.75003e-07
2.05031e-08
2.75112e-07
1.97542e-08
2.75214e-07
1.90592e-08
2.75311e-07
1.84122e-08
2.75402e-07
1.78079e-08
2.75488e-07
1.7242e-08
2.75568e-07
1.67106e-08
2.75642e-07
1.62103e-08
2.75711e-07
1.57381e-08
2.75775e-07
1.52907e-08
2.75833e-07
1.48655e-08
2.75884e-07
1.44596e-08
2.7593e-07
1.40699e-08
2.7597e-07
1.36936e-08
2.76005e-07
1.33273e-08
2.76033e-07
1.29676e-08
2.76057e-07
1.261e-08
2.76075e-07
1.22502e-08
2.7609e-07
1.18813e-08
2.76101e-07
1.14973e-08
2.7611e-07
1.10867e-08
2.76119e-07
1.06395e-08
2.76129e-07
1.0138e-08
2.76142e-07
9.56071e-09
2.76159e-07
8.88444e-09
2.76185e-07
8.06075e-09
2.76222e-07
7.06098e-09
2.76272e-07
5.79071e-09
2.76337e-07
4.19775e-09
2.76427e-07
2.13074e-09
2.76541e-07
-5.24132e-10
2.76707e-07
-4.1067e-09
2.76971e-07
-8.93532e-09
-1.60578e-08
2.77313e-07
2.74008e-07
3.99321e-08
2.77106e-07
6.20682e-08
2.78335e-07
5.01806e-08
2.79375e-07
4.27277e-08
2.80174e-07
4.02002e-08
2.80645e-07
3.72283e-08
2.80984e-07
3.40362e-08
2.81286e-07
3.15608e-08
2.81547e-07
2.96504e-08
2.81768e-07
2.80031e-08
2.81962e-07
2.65321e-08
2.82135e-07
2.52257e-08
2.82293e-07
2.4062e-08
2.82438e-07
2.30141e-08
2.82572e-07
2.20613e-08
2.82697e-07
2.1189e-08
2.82814e-07
2.03861e-08
2.82924e-07
1.96436e-08
2.83029e-07
1.89544e-08
2.83129e-07
1.83124e-08
2.83224e-07
1.77127e-08
2.83315e-07
1.7151e-08
2.83402e-07
1.66237e-08
2.83485e-07
1.61274e-08
2.83564e-07
1.56589e-08
2.83639e-07
1.52155e-08
2.83711e-07
1.47941e-08
2.83778e-07
1.4392e-08
2.83842e-07
1.40062e-08
2.83902e-07
1.36336e-08
2.83958e-07
1.3271e-08
2.84011e-07
1.29147e-08
2.84061e-07
1.25603e-08
2.84108e-07
1.22032e-08
2.84153e-07
1.18365e-08
2.84197e-07
1.14537e-08
2.8424e-07
1.10437e-08
2.84284e-07
1.05954e-08
2.8433e-07
1.00921e-08
2.8438e-07
9.5106e-09
2.84435e-07
8.82926e-09
2.84498e-07
7.99802e-09
2.84569e-07
6.98909e-09
2.84652e-07
5.70845e-09
2.84745e-07
4.10441e-09
2.84854e-07
2.02225e-09
2.84978e-07
-6.48209e-10
2.85129e-07
-4.25788e-09
2.85323e-07
-9.12994e-09
-1.62432e-08
2.85509e-07
2.82012e-07
3.62578e-08
2.85096e-07
5.89839e-08
2.86327e-07
4.89495e-08
2.87346e-07
4.17087e-08
2.88169e-07
3.9378e-08
2.88665e-07
3.67317e-08
2.89014e-07
3.36873e-08
2.89321e-07
3.12542e-08
2.89588e-07
2.93834e-08
2.89814e-07
2.77767e-08
2.90011e-07
2.63355e-08
2.90187e-07
2.50498e-08
2.90346e-07
2.39024e-08
2.90492e-07
2.28681e-08
2.90627e-07
2.19265e-08
2.90752e-07
2.10635e-08
2.9087e-07
2.02683e-08
2.90981e-07
1.95324e-08
2.91087e-07
1.88488e-08
2.91187e-07
1.82117e-08
2.91284e-07
1.76163e-08
2.91376e-07
1.70585e-08
2.91465e-07
1.65347e-08
2.91551e-07
1.60417e-08
2.91633e-07
1.55765e-08
2.91713e-07
1.51361e-08
2.91789e-07
1.47177e-08
2.91863e-07
1.43185e-08
2.91934e-07
1.39354e-08
2.92002e-07
1.35656e-08
2.92067e-07
1.32054e-08
2.9213e-07
1.28514e-08
2.92192e-07
1.24989e-08
2.92252e-07
1.21433e-08
2.9231e-07
1.17776e-08
2.92369e-07
1.13949e-08
2.92429e-07
1.09845e-08
2.9249e-07
1.05342e-08
2.92553e-07
1.00285e-08
2.92621e-07
9.44247e-09
2.92695e-07
8.75587e-09
2.92775e-07
7.91805e-09
2.92863e-07
6.9012e-09
2.92958e-07
5.61325e-09
2.9306e-07
4.00201e-09
2.9317e-07
1.9126e-09
2.93285e-07
-7.6291e-10
2.93404e-07
-4.37729e-09
2.93516e-07
-9.2417e-09
-1.62631e-08
2.93536e-07
2.90277e-07
3.28692e-08
2.93337e-07
5.59244e-08
2.94579e-07
4.77074e-08
2.95575e-07
4.07126e-08
2.96415e-07
3.85382e-08
2.96939e-07
3.62078e-08
2.97299e-07
3.33274e-08
2.9761e-07
3.09425e-08
2.97883e-07
2.91105e-08
2.98115e-07
2.75452e-08
2.98315e-07
2.61354e-08
2.98493e-07
2.48716e-08
2.98654e-07
2.3741e-08
2.98802e-07
2.27206e-08
2.98938e-07
2.17907e-08
2.99064e-07
2.09372e-08
2.99182e-07
2.015e-08
2.99294e-07
1.94208e-08
2.994e-07
1.87429e-08
2.99501e-07
1.81106e-08
2.99598e-07
1.75195e-08
2.99691e-07
1.69656e-08
2.9978e-07
1.64453e-08
2.99866e-07
1.59554e-08
2.9995e-07
1.54932e-08
3.0003e-07
1.50556e-08
3.00108e-07
1.46399e-08
3.00183e-07
1.42432e-08
3.00256e-07
1.38625e-08
3.00327e-07
1.34949e-08
3.00396e-07
1.31368e-08
3.00462e-07
1.27845e-08
3.00528e-07
1.24334e-08
3.00593e-07
1.20787e-08
3.00657e-07
1.17134e-08
3.00721e-07
1.13303e-08
3.00787e-07
1.09191e-08
3.00854e-07
1.04665e-08
3.00925e-07
9.95803e-09
3.00999e-07
9.36787e-09
3.01079e-07
8.67631e-09
3.01164e-07
7.8332e-09
3.01255e-07
6.81007e-09
3.0135e-07
5.51794e-09
3.01449e-07
3.90373e-09
3.01546e-07
1.81488e-09
3.01638e-07
-8.54467e-10
3.01712e-07
-4.45094e-09
3.01731e-07
-9.26097e-09
-1.61131e-08
3.01581e-07
2.98814e-07
2.97575e-08
3.01837e-07
5.29016e-08
3.03098e-07
4.64464e-08
3.0407e-07
3.97405e-08
3.04922e-07
3.76865e-08
3.05474e-07
3.56561e-08
3.05846e-07
3.29552e-08
3.06163e-07
3.06256e-08
3.06441e-07
2.88317e-08
3.06678e-07
2.73084e-08
3.06882e-07
2.59316e-08
3.07063e-07
2.46906e-08
3.07227e-07
2.35775e-08
3.07376e-07
2.25716e-08
3.07513e-07
2.16536e-08
3.0764e-07
2.081e-08
3.07759e-07
2.0031e-08
3.07871e-07
1.93086e-08
3.07977e-07
1.86365e-08
3.08079e-07
1.80093e-08
3.08176e-07
1.74226e-08
3.08269e-07
1.68725e-08
3.08358e-07
1.63557e-08
3.08445e-07
1.58691e-08
3.08528e-07
1.54097e-08
3.08609e-07
1.49749e-08
3.08687e-07
1.45618e-08
3.08763e-07
1.41676e-08
3.08836e-07
1.37893e-08
3.08907e-07
1.34237e-08
3.08976e-07
1.30675e-08
3.09044e-07
1.27168e-08
3.0911e-07
1.2367e-08
3.09176e-07
1.2013e-08
3.09241e-07
1.16481e-08
3.09307e-07
1.12645e-08
3.09374e-07
1.08523e-08
3.09443e-07
1.03978e-08
3.09514e-07
9.88669e-09
3.09589e-07
9.29306e-09
3.09668e-07
8.59729e-09
3.0975e-07
7.75052e-09
3.09837e-07
6.72322e-09
3.09925e-07
5.43036e-09
3.10011e-07
3.81795e-09
3.10088e-07
1.73767e-09
3.10147e-07
-9.13115e-10
3.10164e-07
-4.46865e-09
3.10085e-07
-9.18152e-09
-1.57939e-08
3.09766e-07
3.07633e-07
2.69122e-08
3.10607e-07
4.99275e-08
3.11893e-07
4.51598e-08
3.12841e-07
3.87923e-08
3.137e-07
3.6828e-08
3.14279e-07
3.50771e-08
3.14665e-07
3.2569e-08
3.14987e-07
3.03033e-08
3.15272e-07
2.85472e-08
3.15514e-07
2.70659e-08
3.15722e-07
2.57237e-08
3.15906e-07
2.45069e-08
3.16072e-07
2.34118e-08
3.16223e-07
2.24207e-08
3.16361e-07
2.1515e-08
3.1649e-07
2.06816e-08
3.1661e-07
1.99111e-08
3.16722e-07
1.91958e-08
3.16829e-07
1.85297e-08
3.16931e-07
1.79076e-08
3.17028e-07
1.73254e-08
3.17121e-07
1.67792e-08
3.17211e-07
1.6266e-08
3.17297e-07
1.57826e-08
3.17381e-07
1.53263e-08
3.17461e-07
1.48943e-08
3.17539e-07
1.44839e-08
3.17615e-07
1.40922e-08
3.17688e-07
1.37162e-08
3.17759e-07
1.33528e-08
3.17828e-07
1.29985e-08
3.17895e-07
1.26494e-08
3.17961e-07
1.23009e-08
3.18027e-07
1.19478e-08
3.18091e-07
1.15833e-08
3.18156e-07
1.11995e-08
3.18222e-07
1.07865e-08
3.1829e-07
1.03304e-08
3.18359e-07
9.81723e-09
3.18431e-07
9.2211e-09
3.18506e-07
8.52227e-09
3.18583e-07
7.67375e-09
3.18661e-07
6.64484e-09
3.18736e-07
5.35505e-09
3.18805e-07
3.74972e-09
3.18856e-07
1.68665e-09
3.18875e-07
-9.32422e-10
3.1883e-07
-4.42345e-09
3.18648e-07
-8.99988e-09
-1.53107e-08
3.18165e-07
3.16742e-07
2.43212e-08
3.19655e-07
4.70143e-08
3.20973e-07
4.38423e-08
3.21898e-07
3.78668e-08
3.22758e-07
3.5968e-08
3.23364e-07
3.44718e-08
3.23765e-07
3.21672e-08
3.24094e-07
2.99752e-08
3.24384e-07
2.82571e-08
3.24632e-07
2.68175e-08
3.24844e-07
2.55113e-08
3.25031e-07
2.43199e-08
3.252e-07
2.32436e-08
3.25353e-07
2.22677e-08
3.25493e-07
2.13749e-08
3.25622e-07
2.0552e-08
3.25743e-07
1.97901e-08
3.25857e-07
1.90822e-08
3.25964e-07
1.84222e-08
3.26067e-07
1.78054e-08
3.26164e-07
1.72278e-08
3.26258e-07
1.66857e-08
3.26347e-07
1.61761e-08
3.26434e-07
1.56961e-08
3.26517e-07
1.52429e-08
3.26598e-07
1.48138e-08
3.26676e-07
1.44061e-08
3.26751e-07
1.4017e-08
3.26824e-07
1.36434e-08
3.26894e-07
1.32823e-08
3.26963e-07
1.293e-08
3.27029e-07
1.25827e-08
3.27095e-07
1.22356e-08
3.27159e-07
1.18835e-08
3.27223e-07
1.15197e-08
3.27286e-07
1.11359e-08
3.2735e-07
1.07226e-08
3.27415e-07
1.02655e-08
3.27481e-07
9.75096e-09
3.27549e-07
9.15349e-09
3.27618e-07
8.45302e-09
3.27687e-07
7.60486e-09
3.27755e-07
6.57728e-09
3.27815e-07
5.29466e-09
3.27862e-07
3.70227e-09
3.27884e-07
1.66551e-09
3.27859e-07
-9.08045e-10
3.27747e-07
-4.31088e-09
3.27462e-07
-8.71501e-09
-1.4672e-08
3.26823e-07
3.26153e-07
2.19711e-08
3.28993e-07
4.41736e-08
3.30345e-07
4.24902e-08
3.3125e-07
3.69622e-08
3.32107e-07
3.51114e-08
3.32737e-07
3.38419e-08
3.33155e-07
3.17484e-08
3.3349e-07
2.96406e-08
3.33786e-07
2.79614e-08
3.3404e-07
2.65631e-08
3.34257e-07
2.52941e-08
3.34448e-07
2.41295e-08
3.34619e-07
2.30727e-08
3.34774e-07
2.21126e-08
3.34916e-07
2.12329e-08
3.35047e-07
2.04209e-08
3.35169e-07
1.9668e-08
3.35284e-07
1.89675e-08
3.35392e-07
1.83139e-08
3.35495e-07
1.77026e-08
3.35593e-07
1.71297e-08
3.35687e-07
1.65918e-08
3.35777e-07
1.6086e-08
3.35864e-07
1.56094e-08
3.35947e-07
1.51594e-08
3.36028e-07
1.47333e-08
3.36105e-07
1.43285e-08