/*--------------------------------*- C++ -*----------------------------------*\
  =========                 |
  \\      /  F ield         | OpenFOAM: The Open Source CFD Toolbox
   \\    /   O peration     | Website:  https://openfoam.org
    \\  /    A nd           | Version:  7
     \\/     M anipulation  |
\*---------------------------------------------------------------------------*/
FoamFile
{
    version     2.0;
    format      ascii;
    class       volScalarField;
    location    "0.3";
    object      yPlus;
}
// * * * * * * * * * * * * * * * * * * * * * * * * * * * * * * * * * * * * * //

dimensions      [0 0 0 0 0 0 0];

internalField   uniform 0;

boundaryField
{
    velocityInlet
    {
        type            calculated;
        value           uniform 0;
    }
    pressureOutlet
    {
        type            calculated;
        value           uniform 0;
    }
    fixedWalls
    {
        type            calculated;
        value           nonuniform List<scalar> 
100
(
2.02636
1.6828
0.447749
1.34406
1.44694
1.50447
1.24862
0.953031
0.553752
0.252642
0.473594
0.486081
0.367115
0.236075
0.541269
0.738019
0.882289
0.981726
1.03821
1.05346
1.03038
0.973203
0.88543
0.770302
0.629055
0.453502
0.18435
0.342178
0.493897
0.590519
0.666792
0.767925
0.931838
1.11956
1.23652
1.18022
0.853262
0.473553
0.974871
1.09807
0.976252
0.598813
0.562017
0.92498
1.088
1.15106
1.15875
1.13723
1.10178
1.06104
1.01993
0.981524
0.948462
0.923384
0.908163
0.902359
0.902068
0.900323
0.889077
0.861465
0.812699
0.73893
0.63674
0.507309
0.366642
0.268491
0.298415
0.417459
0.543978
0.649912
0.730351
0.788295
0.829295
0.859272
0.884767
0.91318
0.950583
0.998094
1.05196
1.10713
1.15928
1.20387
1.23495
1.24392
1.21843
1.14033
0.98475
0.685652
0.366678
0.8269
1.02565
1.088
1.0519
0.962543
0.860652
0.760174
0.771336
0.674352
0.88332
0.755118
)
;
    }
    bottomWall
    {
        type            calculated;
        value           nonuniform List<scalar> 
800
(
2.9448
1.98393
1.61351
1.44045
1.35537
1.29679
1.2479
1.20683
1.17234
1.14282
1.11706
1.09428
1.07392
1.05557
1.03892
1.02372
1.00977
0.996902
0.984988
0.973916
0.96359
0.953932
0.944876
0.93636
0.928336
0.92076
0.913593
0.9068
0.900352
0.894222
0.888386
0.882823
0.877513
0.872438
0.867583
0.862934
0.858477
0.8542
0.850092
0.846145
0.842347
0.83869
0.835168
0.831771
0.828494
0.825332
0.822276
0.819324
0.816466
0.813705
0.81139
0.809472
0.807575
0.805702
0.803854
0.80203
0.800229
0.798449
0.796692
0.794955
0.79324
0.791544
0.789869
0.788212
0.786576
0.784958
0.783359
0.781777
0.780212
0.778666
0.777136
0.775623
0.774126
0.772645
0.77118
0.76973
0.768296
0.766875
0.765471
0.76408
0.762704
0.761341
0.759991
0.758655
0.757333
0.756023
0.754726
0.753442
0.75217
0.750909
0.74966
0.748424
0.747198
0.745985
0.744782
0.74359
0.742409
0.741238
0.740078
0.738928
0.737789
0.736658
0.735538
0.734428
0.733326
0.732235
0.731153
0.730079
0.729014
0.727958
0.726912
0.725873
0.724843
0.723821
0.722807
0.721801
0.720803
0.719814
0.718832
0.717857
0.71689
0.71593
0.714977
0.714032
0.713094
0.712162
0.711237
0.71032
0.709408
0.708505
0.707607
0.706715
0.70583
0.704951
0.704078
0.703212
0.702352
0.701497
0.700648
0.699806
0.698969
0.698138
0.697312
0.696491
0.695677
0.694868
0.694064
0.693266
0.692472
0.691684
0.691021
0.69048
0.689935
0.68939
0.688845
0.688297
0.687748
0.687198
0.686646
0.686093
0.685539
0.684982
0.684425
0.683868
0.683307
0.682747
0.682184
0.681621
0.681055
0.680489
0.679921
0.679352
0.678782
0.67821
0.677637
0.677063
0.676487
0.67591
0.675332
0.674753
0.674171
0.67359
0.673006
0.672421
0.671835
0.671248
0.670659
0.670069
0.669477
0.668885
0.668291
0.667695
0.667098
0.6665
0.665901
0.665301
0.664698
0.664095
0.66349
0.662884
0.662277
0.661667
0.661058
0.660446
0.659834
0.65922
0.658604
0.657988
0.65737
0.65675
0.65613
0.655508
0.654884
0.654259
0.653633
0.653006
0.652377
0.651747
0.651115
0.650482
0.649848
0.649212
0.648576
0.647937
0.647297
0.646656
0.646014
0.64537
0.644724
0.644076
0.643428
0.642776
0.642126
0.641469
0.640818
0.640152
0.639504
0.638825
0.638185
0.637482
0.636866
0.636115
0.635555
0.63471
0.634265
0.633252
0.633008
0.631733
0.631781
0.630157
2.94479
1.98386
1.61332
1.44014
1.35494
1.29624
1.24723
1.20605
1.17145
1.14181
1.11594
1.09304
1.07254
1.05405
1.03725
1.02188
1.00775
0.994688
0.982571
0.971284
0.960738
0.950854
0.941565
0.932817
0.924561
0.916756
0.909367
0.902366
0.895728
0.889436
0.883476
0.877838
0.872525
0.867536
0.862894
0.858614
0.854737
0.851325
0.848411
0.846199
0.844601
0.844196
0.844509
0.84697
0.850099
0.857412
0.863309
0.88295
0.876645
0.918463
0.625079
0.852685
1.04083
1.35725
0.581639
2.44191
3.37447
3.48224
3.57359
3.5114
3.43833
3.3744
3.3007
3.24346
3.1749
3.10875
3.02055
2.90628
2.75395
2.55184
2.28522
1.93196
1.44654
0.846857
1.41359
1.98814
2.44231
2.82192
3.14721
3.42908
3.67439
3.88801
4.0736
4.23418
4.37227
4.49002
4.58933
4.67187
4.7391
4.79238
4.83288
4.86168
4.87968
4.88798
4.8869
4.87724
4.85994
4.83563
4.8049
4.76834
4.72642
4.67953
4.62791
4.57167
4.51083
4.44523
4.37458
4.29843
4.21612
4.12674
4.02926
3.92211
3.80342
3.67142
3.52212
3.35282
3.16552
2.95268
2.69162
2.31894
1.70889
0.809525
1.34596
1.81271
2.03549
2.10176
2.04359
1.85264
1.51555
1.07218
1.18667
1.4623
1.51163
1.47985
1.48511
1.48589
1.4279
1.31927
1.19578
1.08042
0.985004
0.886813
0.769086
0.649585
0.565966
0.543616
0.615467
0.746297
0.896515
1.05172
1.2076
1.35999
1.50424
1.63667
1.75543
1.86018
1.95104
2.02815
2.0917
2.14212
2.18026
2.20733
2.22478
2.2342
2.23741
2.23568
2.22996
2.22156
2.21142
2.20055
2.19074
2.18482
2.1806
2.15766
2.08764
1.96395
1.80046
1.59519
1.28927
0.928038
1.36979
1.78724
2.05724
2.28919
2.51489
2.73164
2.93667
3.13041
3.31396
3.48836
3.65676
3.818
3.97063
4.1143
4.24855
4.37312
4.4878
4.59235
4.68666
4.77066
4.84434
4.90769
4.96072
5.00345
5.03589
5.06165
5.07801
5.08457
5.08109
5.06824
5.04591
5.01376
4.97181
4.91982
4.85768
4.7852
4.70218
4.60837
4.5035
4.38724
4.25926
4.11915
3.96661
3.8013
3.62708
3.45122
3.26282
3.06092
2.84575
2.62081
2.39736
2.20209
2.0812
2.07477
2.1693
2.31324
2.46436
2.60189
2.71868
2.82025
2.90823
2.97093
3.00886
3.02327
3.01472
2.98574
2.94031
2.88611
2.84178
2.88998
0.553232
1.00804
1.18298
1.13085
0.725019
0.813192
1.27469
1.4967
1.5239
1.37267
1.06035
1.17487
1.69311
2.15072
2.51022
2.73038
2.88733
3.04316
3.18813
3.29412
3.35483
3.36647
3.32053
3.16734
2.84947
2.31569
1.53179
1.15338
1.65459
1.92145
1.9547
1.83123
1.63501
1.89011
1.87264
1.77664
2.96827
3.76845
4.1512
4.43642
4.71335
4.82972
4.87212
4.88478
4.83624
4.78432
4.73652
4.68076
4.62911
4.58409
4.54218
4.50135
4.45924
4.41298
4.35944
4.29525
4.2167
4.11931
3.99778
3.84609
3.6576
3.42462
3.13712
2.77995
2.32703
1.73466
1.20934
1.86763
2.55585
3.13698
3.65088
4.11819
4.55047
4.95513
5.33536
5.69263
6.02722
6.33785
6.62394
6.88024
7.10533
7.28613
7.4217
7.4874
7.48925
7.37013
7.16099
6.76591
6.17305
5.41104
3.70793
2.01712
1.92004
1.16291
1.14678
1.73513
1.91328
1.68554
0.993867
0.751925
0.849576
0.410744
1.48141
2.13339
2.66322
3.04516
3.25316
3.3396
3.32757
3.23182
3.06832
2.87055
2.67751
2.49328
2.29253
2.00469
1.53868
0.996054
1.21756
1.23985
0.755078
1.36024
1.46743
0.976665
1.40725
2.20553
2.77133
3.17543
3.44127
3.57865
3.59225
3.47361
3.22755
2.86739
2.4328
1.96708
1.5056
1.08306
0.814547
0.815294
0.997565
1.3989
1.81227
2.14076
2.41682
2.72202
3.05848
3.36992
3.63301
3.8548
4.0567
4.26287
4.47981
4.69032
4.86858
4.9775
5.31683
5.36956
5.16173
4.61279
3.75518
2.74894
2.26686
3.12097
3.80883
4.12932
4.71488
5.62196
6.17669
7.42393
8.65072
9.26411
9.55468
9.81328
9.97282
9.99727
9.99062
9.93451
9.83811
9.72961
9.59696
9.45426
9.30747
9.15467
9.00349
8.85436
8.70828
8.56786
8.4329
8.30407
8.18181
8.06581
7.95603
7.85222
7.75395
7.66088
7.5726
7.48871
7.40885
7.33264
7.25976
7.1899
7.12275
7.05802
6.99544
6.93472
6.8756
6.81779
6.76105
6.70512
6.64976
6.59475
6.53988
6.48495
6.42979
6.37425
6.31815
6.26139
6.20383
6.14536
6.08586
6.02523
5.96337
5.9002
5.8356
5.76949
5.70177
5.63236
5.56116
5.48809
5.41306
5.33597
5.25675
5.1753
5.09155
5.00541
4.91678
4.82555
4.73165
4.63496
4.53534
4.43266
4.32676
4.21745
4.10453
3.98772
3.86674
3.74122
3.61073
3.47477
3.33275
3.18401
3.02778
2.86319
2.68906
2.51403
2.33317
2.1418
1.94379
1.75789
1.63566
1.6462
1.78858
1.9926
2.20954
2.42183
2.62563
2.8249
3.027
3.22207
3.41128
3.59556
3.77573
3.95256
4.12675
4.29894
4.46973
4.63966
4.80926
4.97905
5.14952
5.32118
5.49453
5.67005
5.84831
6.0298
6.21513
6.40481
6.59962
6.79985
7.00693
7.22013
7.44297
7.6711
7.91491
8.15758
8.43137
8.67833
8.99616
9.19149
)
;
    }
    frontAndBack
    {
        type            empty;
    }
}


// ************************************************************************* //
