/*--------------------------------*- C++ -*----------------------------------*\
  =========                 |
  \\      /  F ield         | OpenFOAM: The Open Source CFD Toolbox
   \\    /   O peration     | Website:  https://openfoam.org
    \\  /    A nd           | Version:  7
     \\/     M anipulation  |
\*---------------------------------------------------------------------------*/
FoamFile
{
    version     2.0;
    format      ascii;
    class       volVectorField;
    location    "0.42";
    object      ddt0(U);
}
// * * * * * * * * * * * * * * * * * * * * * * * * * * * * * * * * * * * * * //

dimensions      [0 1 -2 0 0 0 0];

internalField   nonuniform List<vector> 
70000
(
(-0.000566876 4.8623e-05 0)
(-0.00441296 8.14808e-05 0)
(-0.0107689 9.02498e-05 0)
(-0.0186434 7.16292e-05 0)
(-0.0273253 7.13583e-05 0)
(-0.036461 7.51545e-05 0)
(-0.0455071 7.79316e-05 0)
(-0.0541054 7.92754e-05 0)
(-0.062264 7.98347e-05 0)
(-0.0701597 8.04442e-05 0)
(-0.0780079 8.21591e-05 0)
(-0.0860126 8.56728e-05 0)
(-0.0943382 9.0724e-05 0)
(-0.103101 9.73525e-05 0)
(-0.11238 0.000105214 0)
(-0.122242 0.000114787 0)
(-0.132746 0.000125664 0)
(-0.143921 0.000137643 0)
(-0.15582 0.000151172 0)
(-0.16851 0.000166016 0)
(-0.18206 0.000182714 0)
(-0.196585 0.000201553 0)
(-0.212195 0.00022269 0)
(-0.229043 0.000247046 0)
(-0.247307 0.00027498 0)
(-0.267178 0.000306685 0)
(-0.288905 0.000343935 0)
(-0.312767 0.000386505 0)
(-0.33908 0.000436088 0)
(-0.368235 0.000493556 0)
(-0.400651 0.000559626 0)
(-0.436831 0.000636048 0)
(-0.477375 0.000723562 0)
(-0.522949 0.000824659 0)
(-0.574384 0.000938506 0)
(-0.632596 0.00107124 0)
(-0.698641 0.00121073 0)
(-0.773869 0.00138556 0)
(-0.859323 0.00153694 0)
(-0.957229 0.001761 0)
(-1.06759 0.00187006 0)
(-1.19434 0.00211903 0)
(-1.3345 0.00206598 0)
(-1.49251 0.00216174 0)
(-1.66338 0.00170797 0)
(-1.83676 0.001052 0)
(-2.01794 -0.000964326 0)
(-2.14654 -0.0015137 0)
(-2.17541 -0.0156701 0)
(-2.0061 0.079974 0)
(-0.000154802 0.000239032 0)
(-0.00685994 0.000585572 0)
(-0.0216455 0.000865031 0)
(-0.0419601 0.00102472 0)
(-0.065027 0.00111086 0)
(-0.0893997 0.00113619 0)
(-0.113426 0.00110863 0)
(-0.135927 0.00106109 0)
(-0.156826 0.00102733 0)
(-0.176665 0.00102 0)
(-0.196129 0.00104126 0)
(-0.215834 0.00108771 0)
(-0.23626 0.00115349 0)
(-0.257718 0.00123399 0)
(-0.280406 0.00132566 0)
(-0.304455 0.00142841 0)
(-0.329957 0.00153924 0)
(-0.356954 0.00165879 0)
(-0.385524 0.00178923 0)
(-0.415797 0.00193339 0)
(-0.447917 0.00209389 0)
(-0.482115 0.00227578 0)
(-0.518645 0.00248207 0)
(-0.557843 0.00271974 0)
(-0.600092 0.0029924 0)
(-0.645831 0.00330741 0)
(-0.695592 0.00367272 0)
(-0.749989 0.00409683 0)
(-0.809717 0.00458947 0)
(-0.875622 0.00516417 0)
(-0.948639 0.00583284 0)
(-1.0299 0.00661663 0)
(-1.12077 0.00753333 0)
(-1.2228 0.00861536 0)
(-1.33799 0.00988152 0)
(-1.46853 0.0113877 0)
(-1.61718 0.0131323 0)
(-1.78732 0.0152407 0)
(-1.98212 0.0175967 0)
(-2.20759 0.0205301 0)
(-2.46515 0.0235502 0)
(-2.76663 0.0275054 0)
(-3.10763 0.0308796 0)
(-3.50486 0.0357105 0)
(-3.95398 0.0378374 0)
(-4.43937 0.0419998 0)
(-5.00714 0.0359423 0)
(-5.50103 0.0323726 0)
(-5.95865 -0.0195147 0)
(-6.29455 0.0405409 0)
(0.000389315 0.000437748 0)
(-0.0051925 0.00128467 0)
(-0.0215713 0.00210705 0)
(-0.048004 0.00267614 0)
(-0.0806354 0.00299617 0)
(-0.116375 0.00310106 0)
(-0.152321 0.00302253 0)
(-0.186233 0.00286014 0)
(-0.217446 0.00272534 0)
(-0.246485 0.00266897 0)
(-0.27435 0.00269999 0)
(-0.302052 0.0028065 0)
(-0.330427 0.00297003 0)
(-0.360046 0.00317396 0)
(-0.391271 0.00340624 0)
(-0.424314 0.00366285 0)
(-0.459289 0.0039356 0)
(-0.496246 0.00422649 0)
(-0.535249 0.00454009 0)
(-0.57644 0.004885 0)
(-0.61999 0.00526779 0)
(-0.666177 0.00570084 0)
(-0.715325 0.00619261 0)
(-0.76786 0.00675882 0)
(-0.824265 0.00740827 0)
(-0.885109 0.00815951 0)
(-0.951056 0.00902917 0)
(-1.02289 0.0100388 0)
(-1.10147 0.0112111 0)
(-1.18786 0.0125779 0)
(-1.28326 0.01417 0)
(-1.38906 0.0160394 0)
(-1.50704 0.0182324 0)
(-1.63917 0.0208309 0)
(-1.78806 0.0238904 0)
(-1.95653 0.0275484 0)
(-2.14832 0.0318438 0)
(-2.36793 0.0370461 0)
(-2.61966 0.0430379 0)
(-2.91215 0.0504428 0)
(-3.24718 0.0585511 0)
(-3.6427 0.0689441 0)
(-4.09275 0.0789648 0)
(-4.62443 0.0929015 0)
(-5.23427 0.101937 0)
(-5.90956 0.117944 0)
(-6.7223 0.113126 0)
(-7.49012 0.110423 0)
(-8.25549 0.0468777 0)
(-9.18123 -0.011668 0)
(0.00044556 0.000551803 0)
(-0.00283593 0.0018936 0)
(-0.015837 0.00342895 0)
(-0.0409505 0.00464374 0)
(-0.0760451 0.00541204 0)
(-0.117632 0.00574195 0)
(-0.161744 0.00567467 0)
(-0.20484 0.00538032 0)
(-0.245034 0.00507864 0)
(-0.282103 0.00489942 0)
(-0.316852 0.00488454 0)
(-0.350453 0.00502333 0)
(-0.384066 0.0052834 0)
(-0.418601 0.00562971 0)
(-0.454691 0.00603447 0)
(-0.492729 0.00648363 0)
(-0.532916 0.00696 0)
(-0.575355 0.0074647 0)
(-0.620108 0.00800416 0)
(-0.667317 0.00859383 0)
(-0.717153 0.00924573 0)
(-0.769901 0.00998091 0)
(-0.825907 0.0108155 0)
(-0.885634 0.0117749 0)
(-0.949599 0.0128752 0)
(-1.01843 0.014147 0)
(-1.09284 0.0156174 0)
(-1.17367 0.0173226 0)
(-1.26186 0.0193001 0)
(-1.35852 0.0216031 0)
(-1.46495 0.0242846 0)
(-1.58264 0.0274325 0)
(-1.7135 0.0311273 0)
(-1.85966 0.0355102 0)
(-2.02396 0.0406821 0)
(-2.20947 0.0468754 0)
(-2.42025 0.0541952 0)
(-2.6614 0.0630662 0)
(-2.93738 0.0734413 0)
(-3.25855 0.0862007 0)
(-3.62585 0.100598 0)
(-4.06158 0.118829 0)
(-4.55696 0.137431 0)
(-5.14737 0.162741 0)
(-5.82477 0.181944 0)
(-6.591 0.212883 0)
(-7.50255 0.216401 0)
(-8.4359 0.22015 0)
(-9.32924 0.154858 0)
(-10.5252 -0.0179222 0)
(0.00020314 0.000605011 0)
(-0.00156496 0.00230986 0)
(-0.0100184 0.00451203 0)
(-0.0291789 0.00650633 0)
(-0.0597964 0.0079558 0)
(-0.100144 0.00875041 0)
(-0.146757 0.00887991 0)
(-0.195457 0.00854845 0)
(-0.242946 0.00807947 0)
(-0.287533 0.00771357 0)
(-0.329024 0.00756707 0)
(-0.368161 0.00766104 0)
(-0.406126 0.0079643 0)
(-0.444097 0.00842661 0)
(-0.483039 0.00900016 0)
(-0.523644 0.00965369 0)
(-0.566318 0.0103551 0)
(-0.611309 0.0110997 0)
(-0.658746 0.0118929 0)
(-0.70879 0.0127558 0)
(-0.761626 0.0137063 0)
(-0.817533 0.0147744 0)
(-0.876856 0.0159852 0)
(-0.940066 0.0173748 0)
(-1.00768 0.0189673 0)
(-1.08035 0.0208062 0)
(-1.1588 0.0229294 0)
(-1.24387 0.0253883 0)
(-1.33653 0.0282363 0)
(-1.43788 0.0315485 0)
(-1.54923 0.0354018 0)
(-1.67209 0.0399221 0)
(-1.80839 0.0452268 0)
(-1.96025 0.0515203 0)
(-2.13058 0.0589555 0)
(-2.32251 0.0678621 0)
(-2.54006 0.0784303 0)
(-2.78871 0.0912257 0)
(-3.07245 0.106326 0)
(-3.40291 0.124825 0)
(-3.77945 0.146054 0)
(-4.22767 0.172751 0)
(-4.73467 0.200801 0)
(-5.34411 0.238542 0)
(-6.03551 0.269479 0)
(-6.83922 0.316568 0)
(-7.76 0.333388 0)
(-8.77829 0.345522 0)
(-9.71263 0.275998 0)
(-10.9576 0.0188006 0)
(6.07372e-06 0.00065086 0)
(-0.00135292 0.0025806 0)
(-0.00665987 0.00525896 0)
(-0.019404 0.00795745 0)
(-0.0420998 0.0101862 0)
(-0.0754647 0.0116724 0)
(-0.118149 0.0122766 0)
(-0.166943 0.0121506 0)
(-0.218069 0.0116568 0)
(-0.268421 0.0111341 0)
(-0.316254 0.0108028 0)
(-0.361159 0.0107597 0)
(-0.403734 0.0110118 0)
(-0.445068 0.0115155 0)
(-0.486326 0.0122104 0)
(-0.52851 0.0130457 0)
(-0.572322 0.0139688 0)
(-0.618255 0.0149631 0)
(-0.666596 0.0160269 0)
(-0.717596 0.0171833 0)
(-0.771483 0.0184546 0)
(-0.828548 0.0198786 0)
(-0.889138 0.02149 0)
(-0.953717 0.0233354 0)
(-1.0228 0.0254481 0)
(-1.09703 0.0278846 0)
(-1.17713 0.0306937 0)
(-1.26393 0.0339423 0)
(-1.35838 0.0376995 0)
(-1.46157 0.0420629 0)
(-1.5748 0.0471338 0)
(-1.69952 0.0530762 0)
(-1.83764 0.0600459 0)
(-1.99125 0.0683106 0)
(-2.16317 0.0780815 0)
(-2.35659 0.089779 0)
(-2.57526 0.103697 0)
(-2.82498 0.120518 0)
(-3.10899 0.14049 0)
(-3.43995 0.164867 0)
(-3.81533 0.19316 0)
(-4.26354 0.2285 0)
(-4.76669 0.266452 0)
(-5.37722 0.31669 0)
(-6.05796 0.360647 0)
(-6.87196 0.423178 0)
(-7.76766 0.455872 0)
(-8.81229 0.477255 0)
(-9.76639 0.402354 0)
(-10.9844 0.0865469 0)
(-4.83315e-05 0.0007067 0)
(-0.0015243 0.00278623 0)
(-0.00551611 0.00575593 0)
(-0.0139781 0.00896376 0)
(-0.0293372 0.0118768 0)
(-0.0537955 0.0141246 0)
(-0.0883209 0.0154273 0)
(-0.131849 0.0158045 0)
(-0.181563 0.0155571 0)
(-0.233959 0.0150505 0)
(-0.286025 0.0145909 0)
(-0.33591 0.0143751 0)
(-0.383091 0.0144903 0)
(-0.428046 0.0149384 0)
(-0.471781 0.015671 0)
(-0.515427 0.0166289 0)
(-0.559946 0.0177401 0)
(-0.606108 0.0189714 0)
(-0.654433 0.0203079 0)
(-0.705324 0.021769 0)
(-0.759107 0.0233775 0)
(-0.816122 0.0251765 0)
(-0.876732 0.0272091 0)
(-0.941399 0.0295319 0)
(-1.01063 0.032188 0)
(-1.08507 0.0352466 0)
(-1.16542 0.038768 0)
(-1.25249 0.0428344 0)
(-1.34723 0.0475301 0)
(-1.45069 0.0529753 0)
(-1.56413 0.0592955 0)
(-1.68896 0.0666922 0)
(-1.82703 0.0753603 0)
(-1.98035 0.0856289 0)
(-2.15159 0.0977736 0)
(-2.34398 0.112296 0)
(-2.5609 0.12961 0)
(-2.80842 0.15049 0)
(-3.0889 0.175399 0)
(-3.41586 0.205678 0)
(-3.7849 0.24114 0)
(-4.22657 0.285088 0)
(-4.71863 0.333209 0)
(-5.31999 0.395631 0)
(-5.98095 0.453449 0)
(-6.78554 0.530594 0)
(-7.65093 0.580435 0)
(-8.68158 0.610926 0)
(-9.64932 0.531579 0)
(-10.8353 0.177274 0)
(-2.79139e-05 0.000768439 0)
(-0.00163943 0.00298155 0)
(-0.00544739 0.00613802 0)
(-0.0119973 0.00966798 0)
(-0.022717 0.0130746 0)
(-0.0398339 0.0159859 0)
(-0.0656454 0.0180482 0)
(-0.10117 0.0191375 0)
(-0.145393 0.0194171 0)
(-0.19558 0.0191861 0)
(-0.248374 0.0187712 0)
(-0.300894 0.0184504 0)
(-0.351427 0.0184098 0)
(-0.39951 0.0187322 0)
(-0.445608 0.0194164 0)
(-0.49068 0.0204183 0)
(-0.535767 0.0216588 0)
(-0.581837 0.0230911 0)
(-0.629637 0.0246841 0)
(-0.679755 0.0264478 0)
(-0.732652 0.0284012 0)
(-0.788749 0.0305884 0)
(-0.848452 0.0330584 0)
(-0.912233 0.0358767 0)
(-0.980603 0.0390958 0)
(-1.05419 0.0427976 0)
(-1.13368 0.0470538 0)
(-1.21989 0.0519618 0)
(-1.31374 0.0576213 0)
(-1.41624 0.0641737 0)
(-1.52864 0.0717689 0)
(-1.65228 0.0806432 0)
(-1.7889 0.0910323 0)
(-1.94046 0.10332 0)
(-2.10942 0.117856 0)
(-2.299 0.135208 0)
(-2.51213 0.155928 0)
(-2.75505 0.180856 0)
(-3.02932 0.210702 0)
(-3.34884 0.246837 0)
(-3.70793 0.289466 0)
(-4.13769 0.341888 0)
(-4.61428 0.40022 0)
(-5.19718 0.474475 0)
(-5.8345 0.546361 0)
(-6.6124 0.637691 0)
(-7.44669 0.704262 0)
(-8.43883 0.745288 0)
(-9.40913 0.664423 0)
(-10.5726 0.285676 0)
(-5.19235e-06 0.000832171 0)
(-0.00163265 0.00318696 0)
(-0.00554301 0.00650248 0)
(-0.0117093 0.0102401 0)
(-0.0204059 0.013965 0)
(-0.0331449 0.0173695 0)
(-0.0523927 0.0201108 0)
(-0.0803351 0.0219697 0)
(-0.117614 0.0229553 0)
(-0.162819 0.0232347 0)
(-0.213114 0.0230802 0)
(-0.265331 0.0228 0)
(-0.316979 0.0226643 0)
(-0.366718 0.0228512 0)
(-0.414316 0.0234338 0)
(-0.460318 0.0244108 0)
(-0.505629 0.0257162 0)
(-0.551261 0.0272999 0)
(-0.598105 0.0291176 0)
(-0.646903 0.0311682 0)
(-0.698254 0.0334626 0)
(-0.752674 0.0360425 0)
(-0.810627 0.0389593 0)
(-0.872607 0.0422852 0)
(-0.939134 0.0460811 0)
(-1.01082 0.0504412 0)
(-1.08836 0.055449 0)
(-1.17252 0.061217 0)
(-1.26424 0.0678602 0)
(-1.3645 0.0755406 0)
(-1.4745 0.0844314 0)
(-1.59555 0.0948005 0)
(-1.72928 0.106924 0)
(-1.87758 0.121235 0)
(-2.04264 0.138158 0)
(-2.22762 0.158321 0)
(-2.43501 0.182419 0)
(-2.67098 0.211337 0)
(-2.93651 0.246053 0)
(-3.24514 0.287933 0)
(-3.59102 0.337597 0)
(-4.0034 0.398296 0)
(-4.46051 0.466625 0)
(-5.01594 0.552345 0)
(-5.62512 0.638024 0)
(-6.36239 0.743098 0)
(-7.15962 0.825885 0)
(-8.09886 0.877672 0)
(-9.05499 0.800983 0)
(-10.2006 0.408925 0)
(-5.60531e-07 0.000894947 0)
(-0.00157895 0.00340168 0)
(-0.00554165 0.00687956 0)
(-0.0118125 0.0107927 0)
(-0.0200523 0.014733 0)
(-0.0309667 0.0184815 0)
(-0.0465215 0.0217683 0)
(-0.0691872 0.0243414 0)
(-0.100523 0.0260836 0)
(-0.140268 0.0270107 0)
(-0.186456 0.0272899 0)
(-0.236223 0.0272058 0)
(-0.286847 0.0270783 0)
(-0.336453 0.0271715 0)
(-0.384224 0.0276433 0)
(-0.430239 0.028555 0)
(-0.475138 0.0298736 0)
(-0.519835 0.0315594 0)
(-0.565253 0.0335635 0)
(-0.612221 0.0358749 0)
(-0.661437 0.0384961 0)
(-0.7135 0.0414631 0)
(-0.768935 0.0448268 0)
(-0.828258 0.0486636 0)
(-0.892001 0.0530418 0)
(-0.96076 0.0580663 0)
(-1.03522 0.0638331 0)
(-1.11613 0.0704699 0)
(-1.2044 0.0781077 0)
(-1.30101 0.0869278 0)
(-1.40713 0.0971268 0)
(-1.52403 0.109 0)
(-1.65324 0.122863 0)
(-1.79655 0.139189 0)
(-1.95593 0.15848 0)
(-2.13437 0.181409 0)
(-2.33399 0.208819 0)
(-2.56059 0.241632 0)
(-2.81487 0.281074 0)
(-3.10919 0.328533 0)
(-3.43863 0.384962 0)
(-3.82849 0.453662 0)
(-4.26178 0.531565 0)
(-4.78218 0.628258 0)
(-5.35686 0.72719 0)
(-6.04344 0.845332 0)
(-6.79355 0.943916 0)
(-7.67054 1.00646 0)
(-8.59565 0.937774 0)
(-9.71677 0.557223 0)
(-4.49622e-06 0.000957076 0)
(-0.00153358 0.00362148 0)
(-0.0054687 0.00727339 0)
(-0.0118629 0.0113656 0)
(-0.0202022 0.0154887 0)
(-0.0307014 0.0194979 0)
(-0.0447988 0.0232189 0)
(-0.0646879 0.0264147 0)
(-0.0921679 0.0288812 0)
(-0.127657 0.0304949 0)
(-0.169889 0.0312999 0)
(-0.216505 0.0315226 0)
(-0.264925 0.0314983 0)
(-0.313109 0.031557 0)
(-0.359904 0.0319371 0)
(-0.405031 0.0327701 0)
(-0.448855 0.034069 0)
(-0.492131 0.0358173 0)
(-0.535727 0.0379703 0)
(-0.580486 0.0405122 0)
(-0.627155 0.0434378 0)
(-0.676386 0.0467769 0)
(-0.728747 0.0505778 0)
(-0.784772 0.0549187 0)
(-0.844999 0.0598736 0)
(-0.910007 0.0655573 0)
(-0.980455 0.0720779 0)
(-1.05707 0.0795785 0)
(-1.14074 0.0882071 0)
(-1.23242 0.0981646 0)
(-1.33324 0.109671 0)
(-1.44447 0.123045 0)
(-1.56753 0.13864 0)
(-1.70414 0.156961 0)
(-1.85605 0.178582 0)
(-2.02602 0.204217 0)
(-2.21589 0.234838 0)
(-2.43084 0.271414 0)
(-2.67159 0.315373 0)
(-2.94865 0.368179 0)
(-3.25871 0.430996 0)
(-3.62203 0.507305 0)
(-4.02722 0.594201 0)
(-4.50727 0.701204 0)
(-5.04082 0.812638 0)
(-5.67032 0.942966 0)
(-6.36309 1.05664 0)
(-7.17144 1.13059 0)
(-8.05089 1.07361 0)
(-9.13852 0.722342 0)
(-6.90715e-06 0.00101958 0)
(-0.00150506 0.00384534 0)
(-0.00538991 0.00767974 0)
(-0.0118273 0.0119659 0)
(-0.0203247 0.0162744 0)
(-0.0309146 0.0205168 0)
(-0.0447022 0.0246149 0)
(-0.06355 0.0283628 0)
(-0.0891567 0.031498 0)
(-0.122097 0.0337807 0)
(-0.161515 0.0351349 0)
(-0.205442 0.0357157 0)
(-0.251564 0.0358525 0)
(-0.297891 0.0359229 0)
(-0.343166 0.0362346 0)
(-0.386908 0.0369884 0)
(-0.429286 0.038249 0)
(-0.470897 0.0400303 0)
(-0.512523 0.0422996 0)
(-0.554974 0.0450407 0)
(-0.599 0.0482437 0)
(-0.645271 0.0519325 0)
(-0.694375 0.0561515 0)
(-0.746851 0.0609794 0)
(-0.803235 0.0664948 0)
(-0.864085 0.0728201 0)
(-0.930026 0.0800757 0)
(-1.00175 0.0884198 0)
(-1.0801 0.0980186 0)
(-1.166 0.109093 0)
(-1.26055 0.121886 0)
(-1.36498 0.136739 0)
(-1.48066 0.15404 0)
(-1.60919 0.174321 0)
(-1.7522 0.198217 0)
(-1.91215 0.226479 0)
(-2.09073 0.260186 0)
(-2.29228 0.300366 0)
(-2.51777 0.348582 0)
(-2.77556 0.406445 0)
(-3.06407 0.475194 0)
(-3.39849 0.558603 0)
(-3.77245 0.653805 0)
(-4.20948 0.770248 0)
(-4.69693 0.89331 0)
(-5.26656 1.0347 0)
(-5.89548 1.16255 0)
(-6.63064 1.24852 0)
(-7.45682 1.2084 0)
(-8.50396 0.890071 0)
(-5.55791e-06 0.00108277 0)
(-0.00148364 0.00407431 0)
(-0.00532881 0.00809638 0)
(-0.0117678 0.0125895 0)
(-0.0203585 0.0170974 0)
(-0.0311083 0.0215754 0)
(-0.0449899 0.0260346 0)
(-0.0636523 0.030303 0)
(-0.0886072 0.03407 0)
(-0.12039 0.0369925 0)
(-0.158247 0.0388852 0)
(-0.200428 0.0398326 0)
(-0.244812 0.0401509 0)
(-0.289536 0.0402536 0)
(-0.333347 0.0405099 0)
(-0.375699 0.0411844 0)
(-0.416652 0.0423939 0)
(-0.456694 0.0441858 0)
(-0.496522 0.0465436 0)
(-0.536894 0.0494546 0)
(-0.578535 0.0529061 0)
(-0.622106 0.0569175 0)
(-0.668195 0.0615292 0)
(-0.717331 0.0668192 0)
(-0.770038 0.0728695 0)
(-0.826845 0.0798089 0)
(-0.888341 0.0877692 0)
(-0.955171 0.0969232 0)
(-1.02812 0.107456 0)
(-1.10807 0.119608 0)
(-1.19607 0.133648 0)
(-1.2933 0.149939 0)
(-1.40107 0.1689 0)
(-1.5209 0.191086 0)
(-1.65431 0.217184 0)
(-1.80346 0.24798 0)
(-1.96995 0.284625 0)
(-2.1573 0.32823 0)
(-2.36676 0.380421 0)
(-2.60458 0.443006 0)
(-2.87069 0.517201 0)
(-3.17581 0.60711 0)
(-3.51733 0.709889 0)
(-3.91157 0.834756 0)
(-4.35114 0.968476 0)
(-4.86146 1.11973 0)
(-5.42591 1.26069 0)
(-6.08737 1.3595 0)
(-6.85571 1.33977 0)
(-7.86376 1.06363 0)
(-2.23016e-06 0.00114647 0)
(-0.00146242 0.00430956 0)
(-0.00528094 0.00852365 0)
(-0.0117173 0.0132337 0)
(-0.0203577 0.0179548 0)
(-0.0312239 0.0226805 0)
(-0.0452626 0.0275069 0)
(-0.0640281 0.0322933 0)
(-0.0888988 0.0366802 0)
(-0.120314 0.040226 0)
(-0.157503 0.0426426 0)
(-0.198775 0.0439483 0)
(-0.242115 0.0444462 0)
(-0.285749 0.0445829 0)
(-0.32848 0.044784 0)
(-0.369753 0.0453744 0)
(-0.409585 0.0465211 0)
(-0.448397 0.0483054 0)
(-0.486827 0.0507287 0)
(-0.525584 0.0537835 0)
(-0.565353 0.0574566 0)
(-0.606779 0.0617629 0)
(-0.65042 0.0667395 0)
(-0.696792 0.0724629 0)
(-0.746401 0.0790182 0)
(-0.79974 0.0865387 0)
(-0.85736 0.0951669 0)
(-0.919855 0.105089 0)
(-0.987947 0.116508 0)
(-1.06246 0.129687 0)
(-1.14437 0.14492 0)
(-1.2348 0.162589 0)
(-1.33501 0.183147 0)
(-1.44641 0.207169 0)
(-1.57045 0.23538 0)
(-1.70902 0.268604 0)
(-1.86368 0.308033 0)
(-2.03717 0.354871 0)
(-2.231 0.410755 0)
(-2.44963 0.47771 0)
(-2.69406 0.556871 0)
(-2.9715 0.652644 0)
(-3.28167 0.762282 0)
(-3.63607 0.894534 0)
(-4.02986 1.03785 0)
(-4.48462 1.19801 0)
(-4.98928 1.35071 0)
(-5.58305 1.46346 0)
(-6.29188 1.46774 0)
(-7.26495 1.24107 0)
(1.4272e-06 0.00121052 0)
(-0.00144045 0.00455129 0)
(-0.00523863 0.00896298 0)
(-0.0116788 0.0138984 0)
(-0.0203571 0.0188445 0)
(-0.0313052 0.0238311 0)
(-0.0454766 0.0290384 0)
(-0.0643939 0.0343547 0)
(-0.0893633 0.0393678 0)
(-0.120747 0.0435359 0)
(-0.157728 0.04647 0)
(-0.198613 0.0481255 0)
(-0.241425 0.048795 0)
(-0.28444 0.0489589 0)
(-0.326504 0.049098 0)
(-0.367077 0.0495961 0)
(-0.406165 0.0506692 0)
(-0.44416 0.0524312 0)
(-0.481658 0.0549022 0)
(-0.519322 0.0580807 0)
(-0.557818 0.0619525 0)
(-0.597729 0.0665302 0)
(-0.639628 0.0718464 0)
(-0.683989 0.0779765 0)
(-0.731291 0.0850073 0)
(-0.781993 0.0930767 0)
(-0.836616 0.102336 0)
(-0.89569 0.112984 0)
(-0.959883 0.125242 0)
(-1.02995 0.139393 0)
(-1.1068 0.155757 0)
(-1.19148 0.17474 0)
(-1.28519 0.196822 0)
(-1.38923 0.222599 0)
(-1.50501 0.252827 0)
(-1.63414 0.288367 0)
(-1.77819 0.330429 0)
(-1.93925 0.380313 0)
(-2.11902 0.439626 0)
(-2.32054 0.510609 0)
(-2.54548 0.594297 0)
(-2.79854 0.695319 0)
(-3.08059 0.81115 0)
(-3.40019 0.949854 0)
(-3.75373 1.10169 0)
(-4.15975 1.26998 0)
(-4.61267 1.43356 0)
(-5.15054 1.56054 0)
(-5.80382 1.59286 0)
(-6.74464 1.42276 0)
(4.83455e-06 0.00127494 0)
(-0.00141895 0.00479904 0)
(-0.00519873 0.00941573 0)
(-0.011647 0.0145845 0)
(-0.0203642 0.0197667 0)
(-0.0313821 0.0250267 0)
(-0.0456637 0.0306294 0)
(-0.0647219 0.0364925 0)
(-0.0898225 0.0421467 0)
(-0.121277 0.0469464 0)
(-0.158229 0.0504004 0)
(-0.19897 0.0524025 0)
(-0.241533 0.0532373 0)
(-0.284223 0.0534206 0)
(-0.325912 0.05349 0)
(-0.36608 0.0538876 0)
(-0.404732 0.0548782 0)
(-0.442247 0.0566077 0)
(-0.479196 0.0591145 0)
(-0.51622 0.0624028 0)
(-0.55394 0.066458 0)
(-0.592945 0.0712891 0)
(-0.633739 0.0769264 0)
(-0.6768 0.0834422 0)
(-0.722562 0.0909259 0)
(-0.771489 0.0995176 0)
(-0.82401 0.109378 0)
(-0.880666 0.120716 0)
(-0.94205 0.133771 0)
(-1.00886 0.148846 0)
(-1.08193 0.166286 0)
(-1.16223 0.186521 0)
(-1.25089 0.210056 0)
(-1.34912 0.237511 0)
(-1.45826 0.269665 0)
(-1.57971 0.307414 0)
(-1.71504 0.351971 0)
(-1.86583 0.404727 0)
(-2.03389 0.467243 0)
(-2.22125 0.541943 0)
(-2.42987 0.629794 0)
(-2.66291 0.735521 0)
(-2.92154 0.856963 0)
(-3.21259 1.00137 0)
(-3.5334 1.16076 0)
(-3.89985 1.33661 0)
(-4.31096 1.51064 0)
(-4.80659 1.65231 0)
(-5.4154 1.71566 0)
(-6.32549 1.60845 0)
(7.97819e-06 0.00133973 0)
(-0.00139886 0.0050527 0)
(-0.00516097 0.00988276 0)
(-0.0116181 0.015293 0)
(-0.0203765 0.0207222 0)
(-0.031462 0.026268 0)
(-0.0458449 0.032281 0)
(-0.0650327 0.0387087 0)
(-0.090261 0.0450218 0)
(-0.121804 0.0504667 0)
(-0.158776 0.0544479 0)
(-0.199458 0.056798 0)
(-0.241889 0.0577949 0)
(-0.284393 0.0579921 0)
(-0.325861 0.0579855 0)
(-0.365791 0.0582765 0)
(-0.404196 0.0591785 0)
(-0.441445 0.0608695 0)
(-0.478098 0.0634056 0)
(-0.514777 0.0667962 0)
(-0.552083 0.0710267 0)
(-0.590577 0.0761021 0)
(-0.630752 0.0820494 0)
(-0.673054 0.0889382 0)
(-0.717911 0.0968601 0)
(-0.765731 0.105958 0)
(-0.816968 0.116398 0)
(-0.872076 0.128402 0)
(-0.931623 0.142225 0)
(-0.996249 0.158189 0)
(-1.06675 0.176663 0)
(-1.144 0.1981 0)
(-1.22909 0.223031 0)
(-1.3231 0.2521 0)
(-1.42735 0.286102 0)
(-1.54305 0.325971 0)
(-1.67175 0.372909 0)
(-1.81468 0.428393 0)
(-1.97365 0.493932 0)
(-2.15007 0.572089 0)
(-2.34586 0.663817 0)
(-2.56356 0.773818 0)
(-2.80398 0.900392 0)
(-3.07296 1.04996 0)
(-3.36885 1.21617 0)
(-3.70577 1.39919 0)
(-4.08537 1.58356 0)
(-4.55162 1.74108 0)
(-5.13075 1.83693 0)
(-6.01179 1.79757 0)
(1.09386e-05 0.00140495 0)
(-0.0013805 0.0053125 0)
(-0.00512571 0.0103647 0)
(-0.0115911 0.0160246 0)
(-0.0203912 0.0217119 0)
(-0.0315441 0.0275566 0)
(-0.0460253 0.0339948 0)
(-0.0653377 0.0410055 0)
(-0.0906896 0.0479963 0)
(-0.122321 0.0541014 0)
(-0.159322 0.058619 0)
(-0.199966 0.0613204 0)
(-0.2423 0.0624785 0)
(-0.284666 0.0626858 0)
(-0.325975 0.0625987 0)
(-0.365742 0.0627786 0)
(-0.403985 0.0635885 0)
(-0.441076 0.0652381 0)
(-0.477566 0.0678011 0)
(-0.514062 0.0712921 0)
(-0.551154 0.0756954 0)
(-0.589383 0.0810123 0)
(-0.629229 0.087266 0)
(-0.67112 0.0945236 0)
(-0.715468 0.102878 0)
(-0.762667 0.112474 0)
(-0.813136 0.123486 0)
(-0.867322 0.136144 0)
(-0.925752 0.150719 0)
(-0.989027 0.167552 0)
(-1.05789 0.187034 0)
(-1.13318 0.209643 0)
(-1.2159 0.235933 0)
(-1.30708 0.266572 0)
(-1.40797 0.302367 0)
(-1.51965 0.344289 0)
(-1.6436 0.393525 0)
(-1.78084 0.451627 0)
(-1.93315 0.520053 0)
(-2.10144 0.601479 0)
(-2.28797 0.696863 0)
(-2.49371 0.81082 0)
(-2.72073 0.942175 0)
(-2.97364 1.09657 0)
(-3.25171 1.2691 0)
(-3.56819 1.45914 0)
(-3.92607 1.65409 0)
(-4.37322 1.82863 0)
(-4.93575 1.95866 0)
(-5.79296 1.99022 0)
(1.37544e-05 0.00147061 0)
(-0.00136391 0.00557868 0)
(-0.00509313 0.0108622 0)
(-0.0115658 0.01678 0)
(-0.0204072 0.0227367 0)
(-0.0316267 0.0288943 0)
(-0.0462041 0.035773 0)
(-0.0656391 0.0433852 0)
(-0.0911129 0.051073 0)
(-0.122831 0.057854 0)
(-0.159862 0.0629178 0)
(-0.200471 0.0659744 0)
(-0.242714 0.0672932 0)
(-0.284953 0.0675078 0)
(-0.326121 0.0673364 0)
(-0.365746 0.067402 0)
(-0.403859 0.0681179 0)
(-0.440832 0.0697253 0)
(-0.477211 0.0723154 0)
(-0.513596 0.0759079 0)
(-0.550564 0.0804856 0)
(-0.588647 0.0860458 0)
(-0.628312 0.0926078 0)
(-0.669975 0.100236 0)
(-0.714036 0.109025 0)
(-0.760878 0.11912 0)
(-0.810902 0.130703 0)
(-0.86454 0.144014 0)
(-0.922297 0.159338 0)
(-0.984748 0.177034 0)
(-1.0526 0.197516 0)
(-1.12665 0.221284 0)
(-1.20786 0.248915 0)
(-1.29719 0.2811 0)
(-1.39582 0.318656 0)
(-1.50476 0.36259 0)
(-1.62542 0.414072 0)
(-1.75865 0.474714 0)
(-1.90615 0.545944 0)
(-2.06872 0.630498 0)
(-2.24815 0.729405 0)
(-2.44609 0.847099 0)
(-2.66351 0.982989 0)
(-2.90483 1.14203 0)
(-3.17038 1.32064 0)
(-3.47323 1.51779 0)
(-3.8175 1.72365 0)
(-4.25263 1.91687 0)
(-4.80739 2.08223 0)
(-5.64774 2.18573 0)
(1.6425e-05 0.00153681 0)
(-0.00134902 0.00585141 0)
(-0.00506317 0.0113758 0)
(-0.0115418 0.01756 0)
(-0.0204237 0.0237975 0)
(-0.0317088 0.0302826 0)
(-0.0463799 0.0376178 0)
(-0.0659353 0.0458507 0)
(-0.0915299 0.0542554 0)
(-0.123335 0.0617282 0)
(-0.160394 0.0673481 0)
(-0.200967 0.070764 0)
(-0.243119 0.072243 0)
(-0.285232 0.0724619 0)
(-0.326258 0.0722028 0)
(-0.365745 0.0721513 0)
(-0.403733 0.0727716 0)
(-0.440596 0.0743369 0)
(-0.476879 0.0769558 0)
(-0.513173 0.0806527 0)
(-0.55005 0.0854088 0)
(-0.58803 0.0912168 0)
(-0.627572 0.0980923 0)
(-0.669085 0.106097 0)
(-0.712958 0.115325 0)
(-0.759566 0.125926 0)
(-0.809301 0.138086 0)
(-0.862581 0.152057 0)
(-0.919897 0.168135 0)
(-0.981806 0.186698 0)
(-1.049 0.208184 0)
(-1.12222 0.233112 0)
(-1.20242 0.262082 0)
(-1.29048 0.295808 0)
(-1.38756 0.335115 0)
(-1.49457 0.381039 0)
(-1.61287 0.43474 0)
(-1.74319 0.497875 0)
(-1.88717 0.571861 0)
(-2.04544 0.659452 0)
(-2.21979 0.761791 0)
(-2.41146 0.883133 0)
(-2.62187 1.0234 0)
(-2.85494 1.18702 0)
(-3.11184 1.37162 0)
(-3.40559 1.57619 0)
(-3.74189 1.79343 0)
(-4.16958 2.00678 0)
(-4.72064 2.20883 0)
(-5.5476 2.38425 0)
(1.89453e-05 0.00160361 0)
(-0.00133577 0.00613086 0)
(-0.00503573 0.0119062 0)
(-0.011519 0.0183653 0)
(-0.0204401 0.024895 0)
(-0.0317895 0.0317231 0)
(-0.0465517 0.0395317 0)
(-0.0662244 0.0484049 0)
(-0.091938 0.0575468 0)
(-0.123829 0.065728 0)
(-0.160915 0.0719139 0)
(-0.201451 0.0756928 0)
(-0.243511 0.0773314 0)
(-0.285495 0.0775514 0)
(-0.326376 0.0772009 0)
(-0.365721 0.0770295 0)
(-0.40358 0.0775529 0)
(-0.44033 0.0790767 0)
(-0.476515 0.0817266 0)
(-0.512721 0.0855315 0)
(-0.549509 0.0904706 0)
(-0.587395 0.0965322 0)
(-0.626829 0.103728 0)
(-0.668213 0.112116 0)
(-0.71193 0.121793 0)
(-0.758348 0.132908 0)
(-0.807851 0.145655 0)
(-0.860847 0.160294 0)
(-0.917817 0.177138 0)
(-0.979305 0.19658 0)
(-1.04598 0.21908 0)
(-1.11858 0.24518 0)
(-1.198 0.275498 0)
(-1.2851 0.31077 0)
(-1.38099 0.35183 0)
(-1.4865 0.39974 0)
(-1.60294 0.455652 0)
(-1.73096 0.521253 0)
(-1.87212 0.597969 0)
(-2.02696 0.688543 0)
(-2.19722 0.794265 0)
(-2.38398 0.919189 0)
(-2.58886 1.06376 0)
(-2.81551 1.23199 0)
(-3.06598 1.42261 0)
(-3.35306 1.63502 0)
(-3.68434 1.86419 0)
(-4.10678 2.09906 0)
(-4.65426 2.33862 0)
(-5.46823 2.5854 0)
(2.13089e-05 0.00167112 0)
(-0.00132408 0.00641723 0)
(-0.00501067 0.012454 0)
(-0.011497 0.019197 0)
(-0.0204558 0.02603 0)
(-0.0318682 0.0332174 0)
(-0.0467183 0.0415169 0)
(-0.0665045 0.0510505 0)
(-0.0923342 0.0609507 0)
(-0.124309 0.0698572 0)
(-0.161421 0.0766192 0)
(-0.201919 0.0807647 0)
(-0.243884 0.0825619 0)
(-0.285737 0.0827795 0)
(-0.32647 0.0823337 0)
(-0.365667 0.0820393 0)
(-0.403391 0.0824646 0)
(-0.440023 0.0839474 0)
(-0.476103 0.0866306 0)
(-0.512212 0.0905472 0)
(-0.548907 0.0956747 0)
(-0.586693 0.101996 0)
(-0.626014 0.10952 0)
(-0.667268 0.1183 0)
(-0.710829 0.128434 0)
(-0.757062 0.140073 0)
(-0.806341 0.153419 0)
(-0.859067 0.168739 0)
(-0.915714 0.186361 0)
(-0.976813 0.206697 0)
(-1.04302 0.230226 0)
(-1.11505 0.257512 0)
(-1.19378 0.289194 0)
(-1.28003 0.326025 0)
(-1.37485 0.368849 0)
(-1.47905 0.418746 0)
(-1.59384 0.476869 0)
(-1.71983 0.544922 0)
(-1.85848 0.624354 0)
(-2.01028 0.71788 0)
(-2.1769 0.826949 0)
(-2.35934 0.95543 0)
(-2.5594 1.10425 0)
(-2.78051 1.27719 0)
(-3.02557 1.47391 0)
(-3.30695 1.69461 0)
(-3.63404 1.93639 0)
(-4.05164 2.19361 0)
(-4.59328 2.47168 0)
(-5.38961 2.78771 0)
(2.35177e-05 0.00173941 0)
(-0.00131385 0.00671066 0)
(-0.00498784 0.0130198 0)
(-0.0114756 0.0200558 0)
(-0.0204701 0.0272035 0)
(-0.0319439 0.0347668 0)
(-0.0468788 0.0435757 0)
(-0.0667738 0.0537904 0)
(-0.0927155 0.0644704 0)
(-0.124771 0.0741195 0)
(-0.161907 0.081468 0)
(-0.202364 0.0859837 0)
(-0.244233 0.0879381 0)
(-0.285951 0.0881495 0)
(-0.326532 0.0876041 0)
(-0.365577 0.0871836 0)
(-0.40316 0.0875092 0)
(-0.439666 0.0889516 0)
(-0.475634 0.0916703 0)
(-0.511639 0.0957027 0)
(-0.54823 0.101024 0)
(-0.585905 0.107612 0)
(-0.625103 0.11547 0)
(-0.666215 0.124651 0)
(-0.70961 0.135252 0)
(-0.755646 0.147427 0)
(-0.804688 0.161382 0)
(-0.857133 0.177395 0)
(-0.913444 0.195809 0)
(-0.974144 0.217054 0)
(-1.03988 0.241628 0)
(-1.11133 0.270119 0)
(-1.18937 0.30318 0)
(-1.27477 0.341586 0)
(-1.36855 0.386186 0)
(-1.47146 0.438077 0)
(-1.58464 0.498415 0)
(-1.70865 0.56891 0)
(-1.84486 0.651046 0)
(-1.99371 0.747499 0)
(-2.15682 0.859885 0)
(-2.33509 0.991915 0)
(-2.53054 1.14497 0)
(-2.74632 1.32271 0)
(-2.98616 1.52563 0)
(-3.26186 1.75509 0)
(-3.58433 2.00994 0)
(-3.99557 2.29027 0)
(-4.52821 2.60728 0)
(-5.30114 2.98972 0)
(2.55734e-05 0.0018086 0)
(-0.00130495 0.00701135 0)
(-0.00496705 0.0136042 0)
(-0.0114545 0.0209425 0)
(-0.0204824 0.0284166 0)
(-0.0320157 0.0363725 0)
(-0.0470319 0.0457104 0)
(-0.0670304 0.0566274 0)
(-0.093079 0.0681091 0)
(-0.125211 0.0785189 0)
(-0.162367 0.0864644 0)
(-0.20278 0.0913536 0)
(-0.24455 0.0934637 0)
(-0.286131 0.0936648 0)
(-0.326557 0.0930152 0)
(-0.365446 0.092465 0)
(-0.402882 0.0926894 0)
(-0.439256 0.0940917 0)
(-0.475102 0.0968482 0)
(-0.510993 0.101 0)
(-0.54747 0.10652 0)
(-0.585024 0.113381 0)
(-0.624086 0.121582 0)
(-0.665041 0.131173 0)
(-0.708254 0.14225 0)
(-0.754073 0.15497 0)
(-0.802859 0.169545 0)
(-0.855001 0.186265 0)
(-0.910951 0.205485 0)
(-0.971224 0.227653 0)
(-1.03645 0.253289 0)
(-1.1073 0.283 0)
(-1.18461 0.317459 0)
(-1.26913 0.357453 0)
(-1.36182 0.403842 0)
(-1.46338 0.457733 0)
(-1.5749 0.520287 0)
(-1.69688 0.593212 0)
(-1.83059 0.678038 0)
(-1.97642 0.777394 0)
(-2.13596 0.893063 0)
(-2.30997 1.02864 0)
(-2.50071 1.18588 0)
(-2.71101 1.36852 0)
(-2.94535 1.57776 0)
(-3.2148 1.81626 0)
(-3.53136 2.08475 0)
(-3.93402 2.38861 0)
(-4.45357 2.74336 0)
(-5.19567 3.19012 0)
(2.74838e-05 0.0018788 0)
(-0.00129723 0.00731945 0)
(-0.00494813 0.0142079 0)
(-0.0114333 0.0218581 0)
(-0.0204919 0.0296702 0)
(-0.0320829 0.0380359 0)
(-0.0471767 0.0479233 0)
(-0.0672724 0.0595644 0)
(-0.0934217 0.0718701 0)
(-0.125625 0.083059 0)
(-0.162797 0.0916123 0)
(-0.203162 0.0968785 0)
(-0.24483 0.0991424 0)
(-0.286272 0.0993287 0)
(-0.326539 0.0985701 0)
(-0.365267 0.0978866 0)
(-0.402552 0.0980078 0)
(-0.438786 0.0993703 0)
(-0.474503 0.102167 0)
(-0.51027 0.106442 0)
(-0.546621 0.112166 0)
(-0.584041 0.119306 0)
(-0.622952 0.127858 0)
(-0.663736 0.137866 0)
(-0.706747 0.149428 0)
(-0.752331 0.162704 0)
(-0.800837 0.177911 0)
(-0.852648 0.195348 0)
(-0.908206 0.215387 0)
(-0.968017 0.238493 0)
(-1.03269 0.265207 0)
(-1.10289 0.296154 0)
(-1.17942 0.332025 0)
(-1.26299 0.373621 0)
(-1.35452 0.421808 0)
(-1.45467 0.4777 0)
(-1.56443 0.542467 0)
(-1.68427 0.617809 0)
(-1.81537 0.705303 0)
(-1.95803 0.807533 0)
(-2.11383 0.926443 0)
(-2.2834 1.06554 0)
(-2.46916 1.22695 0)
(-2.67363 1.41453 0)
(-2.90192 1.63018 0)
(-3.16421 1.87796 0)
(-3.47324 2.16035 0)
(-3.86445 2.48753 0)
(-4.36638 2.87977 0)
(-5.07105 3.38587 0)
(2.92549e-05 0.00195013 0)
(-0.00129051 0.00763514 0)
(-0.00493087 0.0148314 0)
(-0.0114119 0.0228033 0)
(-0.020498 0.0309653 0)
(-0.0321442 0.0397583 0)
(-0.0473119 0.0502165 0)
(-0.0674982 0.0626042 0)