/*--------------------------------*- C++ -*----------------------------------*\
  =========                 |
  \\      /  F ield         | OpenFOAM: The Open Source CFD Toolbox
   \\    /   O peration     | Website:  https://openfoam.org
    \\  /    A nd           | Version:  7
     \\/     M anipulation  |
\*---------------------------------------------------------------------------*/
FoamFile
{
    version     2.0;
    format      ascii;
    class       volScalarField;
    location    "0.42";
    object      p;
}
// * * * * * * * * * * * * * * * * * * * * * * * * * * * * * * * * * * * * * //

dimensions      [0 2 -2 0 0 0 0];

internalField   nonuniform List<scalar> 
70000
(
0.143697
0.0662478
0.053738
0.0561987
0.0563898
0.0553603
0.0544547
0.0537851
0.0532406
0.0527734
0.05237
0.0520223
0.0517227
0.0514646
0.0512426
0.0510522
0.0508899
0.050753
0.0506388
0.0505455
0.0504714
0.0504151
0.0503754
0.0503514
0.0503422
0.0503473
0.0503661
0.0503983
0.0504437
0.0505021
0.0505736
0.0506584
0.0507568
0.0508692
0.0509964
0.0511393
0.0512992
0.0514776
0.0516764
0.0518988
0.052146
0.0524262
0.0527347
0.0530949
0.0534782
0.0539565
0.0544105
0.055079
0.0555133
0.0564976
0.139329
0.0666147
0.053941
0.0562943
0.0564444
0.0553963
0.0544829
0.0538083
0.0532601
0.0527901
0.0523845
0.0520352
0.0517342
0.051475
0.051252
0.0510608
0.0508979
0.0507603
0.0506456
0.0505519
0.0504774
0.0504207
0.0503807
0.0503564
0.0503469
0.0503517
0.0503703
0.0504023
0.0504475
0.0505057
0.050577
0.0506616
0.0507599
0.0508721
0.0509992
0.0511419
0.0513016
0.0514799
0.0516784
0.0519007
0.0521476
0.0524276
0.0527359
0.0530959
0.0534789
0.053957
0.0544109
0.055078
0.055518
0.0565373
0.135749
0.0675545
0.0542813
0.0564234
0.0565186
0.055441
0.0545152
0.0538345
0.0532819
0.0528085
0.0524004
0.0520491
0.0517466
0.0514861
0.051262
0.05107
0.0509063
0.0507681
0.0506529
0.0505586
0.0504837
0.0504266
0.0503862
0.0503616
0.0503519
0.0503564
0.0503747
0.0504065
0.0504515
0.0505095
0.0505806
0.050665
0.0507631
0.0508751
0.051002
0.0511445
0.051304
0.0514821
0.0516805
0.0519025
0.0521491
0.0524289
0.0527368
0.0530966
0.0534791
0.053957
0.0544107
0.0550766
0.0555381
0.0565741
0.132654
0.0686561
0.0547507
0.0565973
0.0566195
0.0554986
0.0545534
0.0538644
0.0533064
0.0528289
0.0524178
0.0520642
0.0517599
0.0514979
0.0512727
0.0510797
0.0509152
0.0507762
0.0506604
0.0505656
0.0504902
0.0504327
0.050392
0.050367
0.050357
0.0503612
0.0503793
0.0504108
0.0504555
0.0505133
0.0505843
0.0506685
0.0507663
0.0508782
0.0510049
0.0511472
0.0513065
0.0514844
0.0516825
0.0519042
0.0521506
0.05243
0.0527376
0.0530969
0.0534791
0.0539564
0.054411
0.0550734
0.0555718
0.0566102
0.129695
0.0697524
0.0553164
0.0568177
0.0567539
0.0555763
0.0546023
0.0539014
0.0533364
0.0528535
0.0524383
0.0520817
0.0517752
0.0515114
0.0512848
0.0510905
0.050925
0.0507853
0.0506687
0.0505733
0.0504974
0.0504394
0.0503982
0.0503728
0.0503625
0.0503664
0.0503842
0.0504155
0.0504599
0.0505175
0.0505883
0.0506723
0.0507699
0.0508816
0.051008
0.0511502
0.0513093
0.0514869
0.0516847
0.0519062
0.0521523
0.0524313
0.0527385
0.0530973
0.0534792
0.0539554
0.0544125
0.0550698
0.0556153
0.0566537
0.126786
0.0707911
0.0559314
0.0570646
0.056916
0.055676
0.0546646
0.0539477
0.0533736
0.0528839
0.0524635
0.052103
0.0517935
0.0515275
0.051299
0.0511033
0.0509366
0.0507957
0.0506783
0.0505822
0.0505055
0.050447
0.0504053
0.0503795
0.0503687
0.0503723
0.0503898
0.0504207
0.0504649
0.0505223
0.0505928
0.0506766
0.050774
0.0508855
0.0510118
0.0511537
0.0513126
0.05149
0.0516876
0.0519088
0.0521546
0.0524332
0.0527401
0.0530982
0.0534802
0.0539547
0.054416
0.0550671
0.0556655
0.0567054
0.123921
0.0717534
0.0565619
0.0573163
0.0570926
0.0557929
0.0547393
0.0540032
0.0534186
0.0529208
0.052494
0.0521288
0.0518157
0.0515469
0.0513161
0.0511186
0.0509503
0.0508082
0.0506897
0.0505926
0.0505151
0.0504559
0.0504136
0.0503872
0.050376
0.0503792
0.0503962
0.0504269
0.0504708
0.0505279
0.0505981
0.0506817
0.0507789
0.0508902
0.0510163
0.0511581
0.0513168
0.051494
0.0516914
0.0519125
0.0521579
0.0524362
0.0527428
0.0531003
0.0534825
0.0539551
0.0544224
0.0550671
0.0557194
0.056764
0.121106
0.0726312
0.057192
0.057561
0.0572728
0.0559205
0.0548228
0.0540659
0.0534701
0.0529635
0.0525297
0.0521591
0.0518419
0.0515698
0.0513364
0.0511367
0.0509666
0.0508229
0.0507031
0.0506049
0.0505265
0.0504664
0.0504234
0.0503964
0.0503846
0.0503873
0.0504039
0.0504342
0.0504778
0.0505345
0.0506045
0.0506879
0.0507849
0.050896
0.051022
0.0511636
0.0513222
0.0514994
0.0516966
0.0519175
0.0521628
0.0524409
0.0527473
0.0531041
0.053487
0.0539573
0.0544322
0.0550711
0.0557747
0.0568272
0.118347
0.0734217
0.0578166
0.0577948
0.0574505
0.056054
0.054912
0.0541332
0.0535261
0.0530107
0.0525696
0.0521933
0.0518717
0.0515961
0.0513597
0.0511576
0.0509854
0.0508401
0.0507188
0.0506193
0.0505398
0.0504787
0.0504349
0.0504072
0.0503947
0.0503968
0.050413
0.0504428
0.050486
0.0505425
0.0506122
0.0506954
0.0507922
0.0509032
0.0510291
0.0511706
0.0513292
0.0515063
0.0517035
0.0519244
0.0521696
0.0524475
0.052754
0.0531102
0.0534941
0.0539621
0.0544459
0.0550802
0.0558291
0.056892
0.11565
0.0741247
0.0584344
0.0580171
0.0576228
0.0561907
0.0550046
0.054203
0.0535848
0.0530607
0.0526124
0.0522303
0.0519042
0.0516249
0.0513856
0.0511809
0.0510066
0.0508594
0.0507365
0.0506356
0.0505549
0.0504928
0.0504481
0.0504195
0.0504064
0.0504079
0.0504236
0.0504529
0.0504958
0.0505519
0.0506214
0.0507043
0.050801
0.0509119
0.0510377
0.0511793
0.0513378
0.051515
0.0517123
0.0519333
0.0521786
0.0524565
0.0527632
0.0531189
0.0535044
0.05397
0.0544634
0.0550949
0.0558809
0.0569555
0.113016
0.0747406
0.0590447
0.058229
0.0577881
0.056329
0.0550997
0.0542743
0.0536449
0.0531125
0.052657
0.0522692
0.0519386
0.0516556
0.0514133
0.051206
0.0510295
0.0508804
0.0507559
0.0506536
0.0505717
0.0505085
0.0504628
0.0504334
0.0504195
0.0504204
0.0504355
0.0504644
0.0505068
0.0505627
0.0506319
0.0507146
0.0508112
0.050922
0.0510479
0.0511895
0.0513482
0.0515255
0.0517231
0.0519443
0.0521899
0.0524679
0.0527752
0.0531304
0.0535178
0.0539812
0.0544845
0.055115
0.0559288
0.0570131
0.110449
0.0752698
0.059646
0.0584314
0.0579456
0.056468
0.0551969
0.0543466
0.0537059
0.0531654
0.0527027
0.0523092
0.0519741
0.0516876
0.0514422
0.0512324
0.0510538
0.0509028
0.0507766
0.0506729
0.0505897
0.0505255
0.0504788
0.0504485
0.0504339
0.0504341
0.0504487
0.0504771
0.0505192
0.0505747
0.0506437
0.0507263
0.0508228
0.0509336
0.0510595
0.0512013
0.0513602
0.0515378
0.0517357
0.0519573
0.0522033
0.0524816
0.0527896
0.0531445
0.0535341
0.0539958
0.0545083
0.0551395
0.0559717
0.0570619
0.107951
0.0757126
0.0602364
0.0586255
0.0580947
0.056607
0.055296
0.0544197
0.0537674
0.0532189
0.0527493
0.0523501
0.0520105
0.0517204
0.051472
0.0512597
0.0510789
0.0509261
0.0507983
0.0506931
0.0506087
0.0505433
0.0504957
0.0504646
0.0504492
0.0504488
0.0504628
0.0504908
0.0505325
0.0505877
0.0506565
0.050739
0.0508354
0.0509463
0.0510723
0.0512144
0.0513735
0.0515516
0.0517499
0.051972
0.0522186
0.0524973
0.0528062
0.0531608
0.0535528
0.0540133
0.0545339
0.0551669
0.0560087
0.0570992
0.105526
0.0760701
0.0608134
0.0588127
0.0582348
0.0567452
0.055397
0.0544936
0.0538293
0.0532731
0.0527965
0.0523916
0.0520475
0.0517538
0.0515025
0.0512876
0.0511046
0.0509499
0.0508205
0.050714
0.0506283
0.0505618
0.0505132
0.0504813
0.0504652
0.0504642
0.0504776
0.0505052
0.0505465
0.0506015
0.0506701
0.0507525
0.050849
0.05096
0.0510861
0.0512285
0.051388
0.0515665
0.0517653
0.051988
0.0522353
0.0525145
0.0528244
0.0531789
0.0535732
0.0540328
0.0545602
0.0551953
0.0560392
0.0571234
0.103175
0.0763433
0.0613741
0.0589945
0.0583654
0.0568816
0.0554997
0.0545683
0.0538915
0.0533277
0.0528443
0.0524336
0.052085
0.0517877
0.0515333
0.051316
0.0511308
0.0509743
0.0508432
0.0507353
0.0506483
0.0505808
0.0505312
0.0504985
0.0504817
0.05048
0.0504929
0.0505201
0.0505611
0.0506158
0.0506842
0.0507666
0.0508631
0.0509742
0.0511006
0.0512432
0.0514031
0.0515822
0.0517816
0.0520048
0.052253
0.0525326
0.0528436
0.0531981
0.0535945
0.0540536
0.0545859
0.0552229
0.0560627
0.0571335
0.1009
0.0765342
0.0619153
0.0591723
0.0584864
0.0570153
0.0556038
0.0546439
0.053954
0.0533826
0.0528926
0.0524762
0.052123
0.051822
0.0515647
0.0513447
0.0511574
0.050999
0.0508663
0.0507569
0.0506687
0.0506001
0.0505496
0.050516
0.0504984
0.0504962
0.0505086
0.0505353
0.0505759
0.0506304
0.0506987
0.050781
0.0508775
0.0509888
0.0511154
0.0512584
0.0514187
0.0515983
0.0517983
0.0520222
0.0522711
0.0525512
0.0528633
0.0532177
0.0536159
0.0540747
0.0546101
0.055248
0.0560787
0.0571296
0.098703
0.0766445
0.062434
0.0593477
0.0585976
0.0571452
0.055709
0.0547203
0.0540166
0.0534379
0.0529414
0.0525192
0.0521614
0.0518567
0.0515964
0.0513738
0.0511843
0.051024
0.0508897
0.0507789
0.0506894
0.0506197
0.0505682
0.0505337
0.0505154
0.0505125
0.0505244
0.0505507
0.050591
0.0506452
0.0507134
0.0507956
0.0508922
0.0510036
0.0511304
0.0512738
0.0514345
0.0516146
0.0518152
0.0520396
0.0522894
0.0525699
0.0528828
0.0532372
0.0536367
0.0540952
0.0546319
0.0552692
0.0560868
0.057112
0.0965856
0.0766768
0.0629271
0.0595218
0.0586993
0.0572704
0.0558151
0.0547974
0.0540793
0.0534934
0.0529906
0.0525626
0.0522002
0.0518918
0.0516284
0.0514033
0.0512116
0.0510493
0.0509134
0.0508011
0.0507104
0.0506395
0.050587
0.0505517
0.0505327
0.0505291
0.0505405
0.0505663
0.0506062
0.0506602
0.0507282
0.0508103
0.0509069
0.0510184
0.0511455
0.0512892
0.0514503
0.0516309
0.0518321
0.052057
0.0523074
0.0525882
0.0529019
0.0532562
0.0536563
0.0541143
0.0546507
0.0552855
0.0560871
0.0570817
0.0945482
0.0766341
0.0633918
0.0596954
0.0587916
0.0573899
0.0559215
0.0548755
0.054142
0.053549
0.0530401
0.0526065
0.0522394
0.0519273
0.0516608
0.0514331
0.0512392
0.051075
0.0509373
0.0508235
0.0507315
0.0506595
0.050606
0.0505698
0.05055
0.0505458
0.0505566
0.050582
0.0506216
0.0506753
0.0507431
0.0508251
0.0509217
0.0510333
0.0511606
0.0513045
0.051466
0.051647
0.0518487
0.052074
0.052325
0.0526061
0.0529202
0.0532742
0.0536745
0.0541316
0.054666
0.0552963
0.0560794
0.0570395
0.0925913
0.0765198
0.0638253
0.0598691
0.058875
0.0575027
0.0560278
0.0549543
0.0542048
0.0536045
0.0530899
0.0526507
0.0522789
0.0519631
0.0516936
0.0514632
0.051267
0.0511009
0.0509615
0.0508462
0.0507529
0.0506797
0.0506252
0.0505881
0.0505676
0.0505627
0.0505729
0.0505977
0.050637
0.0506904
0.050758
0.0508399
0.0509364
0.0510481
0.0511755
0.0513197
0.0514815
0.0516628
0.0518649
0.0520906
0.052342
0.0526232
0.0529375
0.0532911
0.0536909
0.0541465
0.0546775
0.0553012
0.0560638
0.0569864
0.0907149
0.0763379
0.0642248
0.0600431
0.05895
0.057608
0.0561332
0.0550338
0.0542674
0.05366
0.0531398
0.0526952
0.0523187
0.0519992
0.0517266
0.0514936
0.0512952
0.051127
0.0509859
0.0508692
0.0507745
0.0507001
0.0506446
0.0506066
0.0505852
0.0505796
0.0505892
0.0506136
0.0506524
0.0507055
0.0507728
0.0508546
0.0509511
0.0510628
0.0511904
0.0513347
0.0514968
0.0516783
0.0518808
0.0521067
0.0523584
0.0526395
0.0529537
0.0533065
0.0537053
0.0541587
0.054685
0.0553
0.0560405
0.0569234
0.0889184
0.0760926
0.0645879
0.0602172
0.0590175
0.0577051
0.0562371
0.0551139
0.05433
0.0537152
0.0531899
0.05274
0.0523589
0.0520356
0.0517599
0.0515243
0.0513236
0.0511534
0.0510106
0.0508923
0.0507963
0.0507207
0.0506641
0.0506252
0.050603
0.0505967
0.0506057
0.0506295
0.0506679
0.0507206
0.0507877
0.0508693
0.0509657
0.0510774
0.051205
0.0513494
0.0515117
0.0516935
0.0518961
0.0521222
0.0523739
0.0526548
0.0529686
0.0533204
0.0537175
0.054168
0.0546883
0.0552927
0.0560097
0.0568514
0.0872011
0.0757888
0.0649124
0.0603909
0.0590782
0.0577935
0.0563386
0.0551944
0.0543925
0.05377
0.0532399
0.052785
0.0523992
0.0520722
0.0517934
0.0515552
0.0513522
0.0511801
0.0510355
0.0509156
0.0508183
0.0507415
0.0506838
0.0506439
0.0506208
0.0506138
0.0506222
0.0506454
0.0506833
0.0507357
0.0508025
0.0508839
0.0509802
0.0510918
0.0512194
0.0513639
0.0515263
0.0517081
0.0519109
0.052137
0.0523886
0.0526691
0.0529821
0.0533326
0.0537274
0.0541742
0.0546873
0.0552793
0.0559716
0.0567712
0.0855617
0.0754314
0.0651962
0.0605634
0.059133
0.0578728
0.056437
0.0552751
0.0544549
0.0538244
0.0532898
0.0528301
0.0524398
0.052109
0.0518271
0.0515863
0.051381
0.0512069
0.0510605
0.0509391
0.0508404
0.0507624
0.0507036
0.0506627
0.0506388
0.050631
0.0506387
0.0506614
0.0506988
0.0507507
0.0508172
0.0508984
0.0509945
0.051106
0.0512336
0.051378
0.0515405
0.0517223
0.0519251
0.052151
0.0524023
0.0526821
0.0529941
0.0533429
0.0537348
0.0541771
0.0546818
0.05526
0.0559264
0.0566836
0.0839986
0.0750258
0.0654377
0.0607332
0.0591829
0.0579427
0.0565314
0.0553557
0.0545172
0.0538783
0.0533394
0.0528753
0.0524805
0.0521459
0.051861
0.0516176
0.05141
0.0512339
0.0510858
0.0509628
0.0508626
0.0507834
0.0507234
0.0506816
0.0506568
0.0506482
0.0506552
0.0506773
0.0507142
0.0507657
0.0508318
0.0509127
0.0510086
0.0511199
0.0512474
0.0513918
0.0515542
0.0517359
0.0519385
0.0521641
0.0524149
0.0526939
0.0530046
0.0533511
0.0537396
0.0541765
0.0546719
0.0552348
0.0558747
0.0565894
0.08251
0.0745774
0.0656356
0.0608987
0.0592289
0.0580034
0.0566209
0.0554358
0.0545792
0.0539315
0.0533886
0.0529204
0.0525212
0.0521829
0.051895
0.051649
0.0514392
0.051261
0.0511111
0.0509866
0.050885
0.0508044
0.0507434
0.0507005
0.0506748
0.0506654
0.0506717
0.0506932
0.0507295
0.0507805
0.0508463
0.0509268
0.0510224
0.0511336
0.0512608
0.0514051
0.0515673
0.0517488
0.0519512
0.0521763
0.0524264
0.0527043
0.0530132
0.0533572
0.0537417
0.0541724
0.0546575
0.055204
0.0558167
0.0564894
0.0810935
0.0740917
0.0657891
0.061058
0.0592717
0.0580549
0.0567047
0.0555148
0.0546411
0.053984
0.0534372
0.0529653
0.052562
0.05222
0.051929
0.0516805
0.0514684
0.0512883
0.0511366
0.0510104
0.0509074
0.0508256
0.0507634
0.0507195
0.0506928
0.0506826
0.0506881
0.0507089
0.0507447
0.0507952
0.0508605
0.0509407
0.051036
0.0511469
0.0512739
0.0514179
0.0515799
0.0517611
0.051963
0.0521874
0.0524366
0.0527131
0.05302
0.053361
0.0537408
0.0541646
0.0546387
0.0551677
0.055753
0.0563844
0.0797468
0.0735745
0.0658977
0.0612088
0.0593122
0.0580977
0.0567819
0.0555922
0.0547026
0.0540358
0.0534851
0.0530099
0.0526027
0.0522571
0.0519631
0.051712
0.0514977
0.0513156
0.0511621
0.0510343
0.0509299
0.0508468
0.0507834
0.0507385
0.0507109
0.0506998
0.0507045
0.0507246
0.0507598
0.0508098
0.0508746
0.0509543
0.0510492
0.0511598
0.0512865
0.0514301
0.0515917
0.0517725
0.0519738
0.0521975
0.0524455
0.0527204
0.0530249
0.0533624
0.0537371
0.0541532
0.0546153
0.0551262
0.0556839
0.0562751
0.0784672
0.0730313
0.0659617
0.0613485
0.0593511
0.0581323
0.056852
0.0556674
0.0547636
0.0540867
0.0535322
0.053054
0.0526432
0.0522941
0.0519971
0.0517436
0.051527
0.0513429
0.0511876
0.0510583
0.0509524
0.050868
0.0508034
0.0507574
0.0507288
0.0507168
0.0507208
0.0507402
0.0507747
0.0508241
0.0508884
0.0509676
0.0510621
0.0511722
0.0512985
0.0514418
0.0516029
0.0517831
0.0519837
0.0522063
0.052453
0.0527259
0.0530277
0.0533613
0.0537302
0.054138
0.0545876
0.0550798
0.0556099
0.0561624
0.0772519
0.0724673
0.0659815
0.0614747
0.0593886
0.0581593
0.0569143
0.0557397
0.0548239
0.0541368
0.0535783
0.0530976
0.0526835
0.0523309
0.052031
0.051775
0.0515563
0.0513702
0.0512132
0.0510822
0.0509749
0.0508891
0.0508234
0.0507762
0.0507467
0.0507338
0.0507369
0.0507555
0.0507893
0.0508381
0.0509018
0.0509805
0.0510745
0.0511841
0.05131
0.0514527
0.0516132
0.0517927
0.0519924
0.0522138
0.0524589
0.0527295
0.0530282
0.0533575
0.0537202
0.054119
0.0545555
0.0550287
0.0555317
0.056047
0.0760978
0.0718878
0.0659584
0.0615849
0.0594247
0.0581794
0.0569684
0.0558083
0.0548833
0.054186
0.0536233
0.0531404
0.0527234
0.0523675
0.0520648
0.0518063
0.0515855
0.0513975
0.0512387
0.0511061
0.0509973
0.0509102
0.0508432
0.050795
0.0507644
0.0507506
0.0507528
0.0507707
0.0508037
0.0508518
0.0509149
0.050993
0.0510865
0.0511955
0.0513207
0.0514628
0.0516227
0.0518013
0.0519999
0.0522199
0.0524631
0.0527312
0.0530265
0.053351
0.053707
0.0540963
0.0545192
0.0549733
0.0554497
0.0559297
0.075002
0.0712973
0.0658939
0.0616769
0.0594591
0.0581934
0.0570142
0.0558726
0.0549414
0.0542341
0.0536672
0.0531823
0.0527627
0.0524038
0.0520982
0.0518375
0.0516145
0.0514246
0.0512641
0.0511299
0.0510196
0.0509312
0.050863
0.0508136
0.050782
0.0507672
0.0507685
0.0507855
0.0508178
0.0508652
0.0509276
0.0510051
0.0510978
0.0512062
0.0513308
0.0514722
0.0516311
0.0518087
0.052006
0.0522245
0.0524655
0.0527309
0.0530223
0.0533416
0.0536905
0.0540698
0.0544789
0.0549139
0.0553644
0.0558112
0.0739614
0.0707001
0.0657901
0.061749
0.0594912
0.0582019
0.0570516
0.0559319
0.0549977
0.0542812
0.0537097
0.0532231
0.0528014
0.0524397
0.0521314
0.0518683
0.0516434
0.0514516
0.0512893
0.0511535
0.0510418
0.050952
0.0508826
0.050832
0.0507993
0.0507835
0.0507839
0.0508001
0.0508315
0.0508781
0.0509398
0.0510165
0.0511086
0.0512163
0.0513401
0.0514805
0.0516385
0.0518149
0.0520108
0.0522274
0.0524661
0.0527283
0.0530156
0.0533293
0.0536706
0.0540397
0.0544346
0.0548507
0.0552764
0.0556921
0.0729729
0.0701001
0.0656497
0.0617995
0.0595199
0.0582057
0.0570807
0.0559854
0.0550518
0.0543271
0.0537509
0.0532627
0.0528393
0.052475
0.0521642
0.0518988
0.0516719
0.0514783
0.0513143
0.0511769
0.0510637
0.0509726
0.0509019
0.0508502
0.0508164
0.0507995
0.050799
0.0508142
0.0508448
0.0508906
0.0509515
0.0510274
0.0511187
0.0512255
0.0513484
0.0514879
0.0516448
0.0518198
0.0520141
0.0522286
0.0524646
0.0527234
0.0530062
0.0533141
0.0536474
0.0540058
0.0543867
0.0547841
0.0551861
0.0555731
0.0720334
0.0695006
0.0654753
0.0618271
0.0595439
0.0582051
0.0571017
0.0560326
0.0551032
0.0543715
0.0537906
0.053301
0.0528762
0.0525097
0.0521964
0.0519289
0.0517
0.0515046
0.051339
0.0512001
0.0510854
0.050993
0.050921
0.0508681
0.0508331
0.0508152
0.0508137
0.050828
0.0508577
0.0509026
0.0509625
0.0510376
0.051128
0.0512339
0.0513558
0.0514942
0.0516498
0.0518233
0.0520157
0.0522279
0.0524611
0.0527162
0.0529942
0.0532957
0.0536208
0.0539684
0.0543351
0.0547144
0.055094
0.0554546
0.07114
0.0689044
0.0652701
0.0618311
0.059562
0.0582006
0.0571149
0.056073
0.0551512
0.0544143
0.0538288
0.0533377
0.052912
0.0525436
0.0522281
0.0519584
0.0517277
0.0515306
0.0513633
0.0512229
0.0511068
0.051013
0.0509397
0.0508856
0.0508495
0.0508305
0.0508279
0.0508412
0.0508699
0.0509139
0.0509729
0.051047
0.0511364
0.0512413
0.0513621
0.0514992
0.0516534
0.0518252
0.0520156
0.0522253
0.0524553
0.0527064
0.0529793
0.0532743
0.0535909
0.0539275
0.0542802
0.054642
0.0550005
0.0553372
0.0702897
0.068314
0.0650374
0.0618109
0.0595725
0.0581923
0.057121
0.0561063
0.0551953
0.0544552
0.0538652
0.0533728
0.0529464
0.0525766
0.052259
0.0519873
0.0517548
0.0515561
0.0513872
0.0512453
0.0511277
0.0510326
0.050958
0.0509027
0.0508654
0.0508453
0.0508417
0.0508539
0.0508816
0.0509245
0.0509825
0.0510556
0.051144
0.0512477
0.0513672
0.051503
0.0516555
0.0518255
0.0520136
0.0522205
0.0524471
0.052694
0.0529615
0.0532496
0.0535575
0.0538831
0.054222
0.0545671
0.0549059
0.0552212
0.0694798
0.0677314
0.0647805
0.0617666
0.0595739
0.0581802
0.0571202
0.0561323
0.055235
0.0544938
0.0538999
0.0534061
0.0529794
0.0526085
0.052289
0.0520155
0.0517813
0.051581
0.0514106
0.0512672
0.0511482
0.0510517
0.0509758
0.0509193
0.0508808
0.0508596
0.0508548
0.0508659
0.0508926
0.0509344
0.0509913
0.0510633
0.0511505
0.051253
0.0513711
0.0515053
0.0516561
0.051824
0.0520096
0.0522136
0.0524365
0.0526788
0.0529407
0.0532217
0.0535208
0.0538354
0.0541609
0.0544899
0.0548106
0.0551068
0.0687076
0.0671583
0.0645027
0.0616984
0.0595649
0.0581639
0.057113
0.0561509
0.0552696
0.0545297
0.0539326
0.0534374
0.0530106
0.052639
0.0523181
0.0520429
0.0518071
0.0516053
0.0514334
0.0512885
0.0511682
0.0510703
0.0509931
0.0509353
0.0508956
0.0508732
0.0508673
0.0508773
0.0509027
0.0509434
0.0509992
0.05107
0.0511558
0.051257
0.0513736
0.0515061
0.051655
0.0518206
0.0520036
0.0522043
0.0524234
0.0526609
0.0529168
0.0531906
0.0534807
0.0537844
0.0540968
0.0544107
0.0547148
0.0549943
0.0679707
0.0665957
0.0642071
0.061607
0.059544
0.0581432
0.0570999
0.056162
0.0552987
0.0545625
0.0539632
0.0534668
0.0530401
0.0526682
0.0523461
0.0520693
0.0518319
0.0516287
0.0514555
0.0513092
0.0511875
0.0510882
0.0510098
0.0509507
0.0509098
0.0508861
0.050879
0.0508878
0.0509121
0.0509516
0.0510061
0.0510755
0.05116
0.0512596
0.0513746
0.0515053
0.051652
0.0518152
0.0519953
0.0521926
0.0524075
0.05264
0.0528898
0.0531562
0.0534373
0.0537302
0.05403
0.0543297
0.0546187
0.0548835
0.0672667
0.0660448
0.0638968
0.0614935
0.0595103
0.0581173
0.0570812
0.0561659
0.0553218
0.0545918
0.0539914
0.053494
0.0530675
0.0526957
0.0523727
0.0520946
0.0518559
0.0516513
0.0514767
0.0513291
0.051206
0.0511055
0.0510257
0.0509653
0.0509232
0.0508983
0.0508899
0.0508974
0.0509204
0.0509586
0.0510118
0.0510799
0.0511628
0.0512608
0.051374
0.0515027
0.0516471
0.0518077
0.0519847
0.0521783
0.0523888
0.0526161
0.0528596
0.0531184
0.0533905
0.0536729
0.0539606
0.054247
0.0545223
0.0547746
0.0665935
0.0655061
0.0635744
0.061359
0.0594629
0.0580855
0.0570569
0.0561626
0.0553387
0.054617
0.054017
0.0535188
0.0530928
0.0527213
0.0523979
0.0521187
0.0518787
0.0516729
0.051497
0.0513481
0.0512238
0.0511219
0.0510408
0.0509792
0.0509357
0.0509095
0.0508998
0.0509061
0.0509278
0.0509646
0.0510163
0.0510829
0.0511642
0.0512605
0.0513717
0.0514982
0.0516402
0.0517979
0.0519715
0.0521613
0.0523672
0.052589
0.0528261
0.0530772
0.0533404
0.0536124
0.0538886
0.0541626
0.0544256
0.0546672
0.0659489
0.06498
0.0632426
0.0612051
0.0594013
0.0580471
0.0570273
0.0561525
0.0553491
0.0546378
0.0540396
0.0535412
0.0531158
0.052745
0.0524215
0.0521414
0.0519003
0.0516933
0.0515163
0.0513662
0.0512405
0.0511374
0.051055
0.0509921
0.0509473
0.0509198
0.0509088
0.0509136
0.0509339
0.0509693
0.0510195
0.0510844
0.0511641
0.0512584
0.0513676
0.0514917
0.051631
0.0517857
0.0519558
0.0521415
0.0523426
0.0525588
0.0527892
0.0530326
0.0532869
0.0535489
0.0538142
0.0540767
0.0543287
0.0545612
0.0653311
0.0644666
0.0629036
0.0610334
0.0593252
0.0580013
0.0569923
0.0561357
0.0553529
0.0546537
0.0540589
0.053561
0.0531363
0.0527665
0.0524432
0.0521625
0.0519205
0.0517125
0.0515344
0.0513831
0.0512563
0.0511519
0.0510682
0.0510039
0.0509578
0.050929
0.0509166
0.05092
0.0509388
0.0509727
0.0510213
0.0510845
0.0511622
0.0512545
0.0513615
0.0514831
0.0516196
0.051771
0.0519374
0.0521187
0.0523148
0.0525252
0.0527489
0.0529846
0.0532301
0.0534824
0.0537372
0.0539891
0.0542312
0.0544562
0.0647383
0.0639662
0.0625593
0.0608456
0.0592346
0.0579472
0.0569517
0.0561124
0.0553499
0.0546643
0.0540746
0.0535779
0.0531542
0.0527856
0.0524629
0.052182
0.0519392
0.0517303
0.0515512
0.0513989
0.0512708
0.0511652
0.0510803
0.0510147
0.0509672
0.0509369
0.0509231
0.0509251
0.0509423
0.0509745
0.0510214
0.0510828
0.0511586
0.0512487
0.0513532
0.0514722
0.0516056
0.0517536
0.051916
0.0520929
0.0522838
0.0524882
0.0527051
0.052933
0.0531699
0.0534127
0.0536576
0.0538998
0.0541331
0.0543516
0.0641689
0.0634785
0.0622117
0.0606433
0.0591297
0.0578844
0.0569052
0.0560829
0.0553403
0.0546693
0.0540862
0.0535917
0.0531693
0.0528021
0.0524804
0.0521995
0.0519562
0.0517465
0.0515666
0.0514132
0.0512841
0.0511772
0.051091
0.0510241
0.0509753
0.0509436
0.0509283
0.0509287
0.0509444
0.0509748
0.0510199
0.0510793
0.0511529
0.0512407
0.0513427
0.0514588
0.051589
0.0517333
0.0518917
0.0520638
0.0522494
0.0524477
0.0526577
0.0528779
0.0531063
0.05334
0.0535755
0.0538085
0.0540341
0.0542471
0.0636214
0.0630033
0.0618621
0.0604284
0.059011
0.0578122
0.0568525
0.0560471
0.0553239
0.0546685
0.0540935
0.0536021
0.0531815
0.052816
0.0524954
0.052215
0.0519714
0.0517611
0.0515803
0.0514261
0.0512959
0.0511879
0.0511004
0.0510322
0.050982
0.0509488
0.050932
0.0509308
0.0509447
0.0509734
0.0510165
0.0510738
0.0511452
0.0512306
0.0513298
0.0514428
0.0515697
0.0517102
0.0518642
0.0520315
0.0522115
0.0524035
0.0526066
0.0528191
0.0530391
0.053264
0.0534906
0.0537152
0.0539336
0.054142
0.0630943
0.0625406
0.0615118
0.0602023
0.0588789
0.0577303
0.0567933
0.0560052
0.055301
0.0546616
0.0540961
0.0536088
0.0531905
0.0528269
0.0525079
0.0522281
0.0519845
0.0517737
0.0515923
0.0514373
0.0513061
0.051197
0.0511083
0.0510387
0.0509871
0.0509525
0.050934
0.0509312
0.0509433
0.0509701
0.0510112
0.0510663
0.0511353
0.051218
0.0513143
0.0514241
0.0515474
0.0516839
0.0518334
0.0519956
0.0521699
0.0523557
0.0525517
0.0527565
0.0529683
0.0531847
0.0534029
0.0536196
0.0538315
0.0540356
0.0625865
0.0620898
0.061162
0.0599668
0.0587344
0.0576384
0.0567272
0.0559571
0.0552715
0.0546486
0.0540936
0.0536116
0.0531962
0.0528348
0.0525175
0.0522388
0.0519954
0.0517844
0.0516025
0.0514466
0.0513146
0.0512044
0.0511145
0.0510436
0.0509905
0.0509544
0.0509343
0.0509297
0.05094
0.0509648
0.0510037
0.0510565
0.0511229
0.0512029
0.0512961
0.0514026
0.051522
0.0516543
0.0517992
0.0519561
0.0521247
0.0523039
0.0524929
0.0526901
0.0528939
0.053102
0.053312
0.0535212
0.0537271
0.0539274
0.0620966
0.0616507
0.0608135
0.0597232
0.0585781
0.0575365
0.0566539
0.0559028
0.0552356
0.0546293
0.0540858
0.0536102
0.0531982
0.0528394
0.0525242
0.0522468
0.0520039
0.0517929
0.0516105
0.051454
0.0513211
0.0512099
0.0511188
0.0510466
0.0509921
0.0509544
0.0509327
0.0509262
0.0509346
0.0509573
0.050994
0.0510443
0.051108
0.051185
0.0512751
0.0513779
0.0514935
0.0516214
0.0517613
0.0519129
0.0520755
0.0522482
0.0524301
0.0526197
0.0528156
0.0530156
0.0532178
0.0534199
0.0536199
0.0538165
0.0616236
0.061223
0.060467
0.0594729
0.0584111
0.0574246
0.056573
0.0558422
0.0551932
0.0546036
0.0540725
0.0536042
0.0531965
0.0528406
0.0525276
0.0522519
0.0520098
0.0517989
0.0516163
0.0514593
0.0513256
0.0512134
0.0511212
0.0510477
0.0509917
0.0509524
0.0509289
0.0509207
0.050927
0.0509475
0.0509818
0.0510295
0.0510904
0.0511643
0.051251
0.0513501
0.0514615
0.0515848
0.0517198
0.0518658
0.0520223
0.0521884
0.0523632
0.0525452
0.0527332
0.0529254
0.05312
0.0533152
0.0535095
0.0537022
0.0611665
0.0608061
0.0601233
0.059217
0.0582342
0.0573029
0.0564845
0.055775
0.0551444
0.0545716
0.0540534
0.0535934
0.0531906
0.0528381
0.0525277
0.0522538
0.0520129
0.0518023
0.0516196
0.0514622
0.0513279
0.0512148
0.0511214
0.0510466
0.0509892
0.0509482
0.050923
0.0509127
0.050917
0.0509352
0.0509669
0.051012
0.0510699
0.0511406
0.0512237
0.0513189
0.051426
0.0515446
0.0516743
0.0518146
0.0519649
0.0521243
0.0522919
0.0524665
0.0526467
0.0528311
0.0530183
0.0532067
0.0533954
0.0535839
0.0607242
0.0603998
0.0597826
0.0589567
0.0580483
0.0571719
0.056388
0.0557013
0.0550893
0.0545332
0.0540284
0.0535776
0.0531804
0.0528317
0.0525243
0.0522525
0.0520129
0.051803
0.0516204
0.0514626
0.0513277
0.0512138
0.0511193
0.0510432
0.0509843
0.0509417
0.0509146
0.0509024
0.0509044
0.0509202
0.0509494
0.0509915
0.0510464
0.0511136
0.051193
0.0512841
0.0513867
0.0515004
0.0516248
0.0517593
0.0519033
0.0520559
0.0522163
0.0523833
0.0525558
0.0527326
0.0529123
0.0530939
0.0532768
0.0534609
0.0602958
0.0600037
0.0594455
0.0586929
0.0578544
0.0570318
0.0562836
0.0556207
0.0550277
0.0544884
0.0539974
0.0535564
0.0531657
0.0528213
0.052517
0.0522477
0.0520097
0.0518006
0.0516182
0.0514604
0.0513249
0.0512102
0.0511147
0.0510373
0.0509769
0.0509326
0.0509037
0.0508893
0.0508891
0.0509024
0.0509288
0.050968
0.0510196
0.0510833
0.0511587
0.0512456
0.0513436
0.0514522
0.0515711
0.0516996
0.0518371
0.0519829
0.052136
0.0522955
0.0524604
0.0526294
0.0528018
0.0529765
0.0531534
0.0533325
0.0598806
0.0596172
0.0591122
0.0584265
0.0576534
0.0568831
0.0561713
0.0555333
0.0549597
0.0544372
0.0539603
0.0535297
0.0531461
0.0528065
0.0525058
0.0522392
0.052003
0.051795
0.0516131
0.0514552
0.0513193
0.0512039
0.0511074
0.0510287
0.0509668
0.0509208
0.0508899
0.0508734
0.0508708
0.0508815
0.0509051
0.0509412
0.0509894
0.0510494
0.0511208
0.0512032
0.0512964
0.0513998
0.051513
0.0516354
0.0517663
0.0519051
0.052051
0.0522029
0.05236
0.0525214
0.0526863
0.0528541
0.0530246
0.0531982
0.0594778
0.0592401
0.0587829
0.0581581
0.0574461
0.0567264
0.0560512
0.055439
0.0548852
0.0543797
0.053917
0.0534974
0.0531215
0.0527872
0.0524904
0.0522267
0.0519927
0.051786
0.0516047
0.0514469
0.0513107
0.0511946
0.0510972
0.0510173
0.0509539
0.0509061
0.0508732
0.0508545
0.0508495
0.0508575
0.0508781
0.0509109
0.0509556
0.0510117
0.0510789
0.0511568
0.0512449
0.051343
0.0514503
0.0515665
0.0516908
0.0518225
0.051961
0.0521053
0.0522547
0.0524083
0.0525656
0.0527261
0.0528899
0.0530573
0.0590865
0.0588719
0.0584578
0.0578886
0.0572334
0.0565622
0.0559235
0.0553377
0.0548042
0.0543157
0.0538675
0.0534592
0.0530916
0.0527632
0.0524706
0.0522102
0.0519785
0.0517733
0.0515929
0.0514353
0.0512989
0.0511822
0.0510839
0.0510027
0.0509378
0.0508883
0.0508534
0.0508324
0.0508248
0.05083
0.0508475
0.050877
0.050918
0.0509701
0.0510329
0.051106
0.0511891
0.0512816
0.0513829
0.0514927
0.0516102
0.0517349
0.0518658
0.0520025
0.052144
0.0522898
0.0524393
0.0525923
0.0527488
0.0529093
0.0587062
0.0585123
0.058137
0.0576183
0.0570159
0.056391
0.0557885
0.0552295
0.0547167
0.0542453
0.0538117
0.0534151
0.0530562
0.0527341
0.0524463
0.0521893
0.0519602
0.0517568
0.0515773
0.0514201
0.0512837
0.0511665
0.0510673
0.0509849
0.0509185
0.0508672
0.0508302
0.0508068
0.0507966
0.0507989
0.0508133
0.0508392
0.0508764
0.0509243
0.0509826
0.0510509
0.0511286
0.0512154
0.0513107
0.051414
0.0515246
0.0516419
0.0517654
0.0518942
0.0520278
0.0521655
0.0523071
0.0524522
0.0526011
0.052754
0.0583361
0.0581608
0.0578206
0.0573479
0.0567943
0.0562135
0.0556464
0.0551143
0.0546225
0.0541685
0.0537496
0.053365
0.0530152
0.0527
0.0524171
0.0521639
0.0519376
0.0517362
0.0515579
0.0514013
0.0512648
0.0511472
0.0510471
0.0509636
0.0508957
0.0508425
0.0508034
0.0507776
0.0507647
0.050764
0.0507751
0.0507974
0.0508306
0.0508742
0.0509279
0.0509911
0.0510634
0.0511443
0.0512334
0.05133
0.0514336
0.0515436
0.0516594
0.0517803
0.0519058
0.0520354
0.0521687
0.0523056
0.0524462
0.0525908
0.0579757
0.0578171
0.0575085
0.0570777
0.0565692
0.0560302
0.0554976
0.0549925
0.0545219
0.0540853
0.0536811
0.0533087
0.0529685
0.0526604
0.0523829
0.0521338