/*--------------------------------*- C++ -*----------------------------------*\
  =========                 |
  \\      /  F ield         | OpenFOAM: The Open Source CFD Toolbox
   \\    /   O peration     | Website:  https://openfoam.org
    \\  /    A nd           | Version:  7
     \\/     M anipulation  |
\*---------------------------------------------------------------------------*/
FoamFile
{
    version     2.0;
    format      ascii;
    class       surfaceScalarField;
    location    "0.42";
    object      phi;
}
// * * * * * * * * * * * * * * * * * * * * * * * * * * * * * * * * * * * * * //

dimensions      [0 3 -1 0 0 0 0];

internalField   nonuniform List<scalar> 
139350
(
6.45113e-08
9.21202e-08
3.19624e-08
3.25489e-08
2.30553e-08
8.90711e-09
1.95686e-08
3.48671e-09
1.76147e-08
1.95389e-09
1.61825e-08
1.4322e-09
1.50475e-08
1.13497e-09
1.41331e-08
9.1445e-10
1.33804e-08
7.52658e-10
1.27462e-08
6.34229e-10
1.22016e-08
5.44608e-10
1.17272e-08
4.74318e-10
1.13095e-08
4.17748e-10
1.09381e-08
3.71369e-10
1.06054e-08
3.32775e-10
1.03051e-08
3.00246e-10
1.00326e-08
2.72516e-10
9.78395e-09
2.48643e-10
9.55604e-09
2.27907e-10
9.34629e-09
2.09753e-10
9.15255e-09
1.93742e-10
8.97302e-09
1.79528e-10
8.80619e-09
1.66828e-10
8.65078e-09
1.55415e-10
8.50568e-09
1.45097e-10
8.36996e-09
1.35719e-10
8.24282e-09
1.27145e-10
8.12355e-09
1.19267e-10
8.01157e-09
1.11983e-10
7.90635e-09
1.05218e-10
7.80747e-09
9.88854e-11
7.71452e-09
9.29465e-11
7.62721e-09
8.73078e-11
7.54523e-09
8.19788e-11
7.4684e-09
7.68298e-11
7.39645e-09
7.19476e-11
7.32932e-09
6.71302e-11
7.26675e-09
6.25743e-11
7.20876e-09
5.79938e-11
7.15511e-09
5.36506e-11
7.10573e-09
4.93755e-11
7.06075e-09
4.49834e-11
7.01914e-09
4.16042e-11
6.98308e-09
3.60599e-11
6.94711e-09
3.59724e-11
6.92277e-09
2.43447e-11
6.88501e-09
3.77568e-11
6.89984e-09
-1.48316e-11
6.70791e-09
1.91935e-10
-3.11332e-09
9.82123e-09
1.25942e-07
1.27622e-07
9.12856e-08
6.72052e-08
7.19291e-08
2.82637e-08
6.12097e-08
1.42061e-08
5.47695e-08
8.39409e-09
5.02707e-08
5.93092e-09
4.67825e-08
4.62326e-09
4.39653e-08
3.73164e-09
4.16383e-08
3.07963e-09
3.9676e-08
2.59653e-09
3.79911e-08
2.22947e-09
3.65237e-08
1.94174e-09
3.52311e-08
1.71035e-09
3.40818e-08
1.52067e-09
3.30518e-08
1.3628e-09
3.21223e-08
1.22969e-09
3.12786e-08
1.1162e-09
3.05088e-08
1.01846e-09
2.98032e-08
9.33535e-10
2.91538e-08
8.59164e-10
2.8554e-08
7.93558e-10
2.79982e-08
7.35294e-10
2.74818e-08
6.83223e-10
2.70008e-08
6.36408e-10
2.65518e-08
5.94073e-10
2.6132e-08
5.55576e-10
2.57387e-08
5.2037e-10
2.537e-08
4.87998e-10
2.50239e-08
4.58056e-10
2.46989e-08
4.30215e-10
2.43937e-08
4.0415e-10
2.4107e-08
3.79646e-10
2.38379e-08
3.56381e-10
2.35856e-08
3.34289e-10
2.33495e-08
3.12938e-10
2.31289e-08
2.9254e-10
2.29237e-08
2.72337e-10
2.27332e-08
2.53105e-10
2.25578e-08
2.33354e-10
2.23965e-08
2.14965e-10
2.22508e-08
1.95095e-10
2.21184e-08
1.77387e-10
2.20027e-08
1.5726e-10
2.18992e-08
1.39584e-10
2.18142e-08
1.20937e-10
2.17411e-08
9.74708e-11
2.16822e-08
9.67017e-11
2.16857e-08
-1.84068e-11
2.15349e-08
3.42796e-10
-3.81716e-09
2.22387e-08
1.58751e-07
1.35274e-07
1.36523e-07
8.94335e-08
1.17485e-07
4.73016e-08
1.03303e-07
2.83879e-08
9.33054e-08
1.8392e-08
8.60022e-08
1.32341e-08
8.02925e-08
1.03329e-08
7.56398e-08
8.38439e-09
7.17613e-08
6.95813e-09
6.84692e-08
5.88865e-09
6.56299e-08
5.06871e-09
6.31488e-08
4.42288e-09
6.09573e-08
3.90189e-09
5.90042e-08
3.4737e-09
5.72505e-08
3.1165e-09
5.56655e-08
2.81473e-09
5.42247e-08
2.55698e-09
5.29085e-08
2.33468e-09
5.17007e-08
2.14129e-09
5.05882e-08
1.97173e-09
4.95597e-08
1.82201e-09
4.86061e-08
1.68893e-09
4.77194e-08
1.56991e-09
4.6893e-08
1.46283e-09
4.61211e-08
1.36594e-09
4.53989e-08
1.2778e-09
4.47221e-08
1.19716e-09
4.40871e-08
1.12298e-09
4.34908e-08
1.05437e-09
4.29305e-08
9.90548e-10
4.24038e-08
9.3081e-10
4.19088e-08
8.74619e-10
4.14439e-08
8.21298e-10
4.10076e-08
7.706e-10
4.05989e-08
7.21645e-10
4.02167e-08
6.74754e-10
3.98607e-08
6.28314e-10
3.95298e-08
5.83982e-10
3.9225e-08
5.38192e-10
3.89442e-08
4.95763e-10
3.86908e-08
4.48527e-10
3.84598e-08
4.08323e-10
3.82601e-08
3.5699e-10
3.8079e-08
3.20678e-10
3.79378e-08
2.6216e-10
3.78071e-08
2.28127e-10
3.7727e-08
1.7683e-10
3.76903e-08
1.83173e-11
3.76689e-08
3.64138e-10
-3.63191e-09
3.74837e-08
1.75611e-07
1.31179e-07
1.6562e-07
9.94237e-08
1.52728e-07
6.01942e-08
1.40114e-07
4.10022e-08
1.29429e-07
2.90769e-08
1.20786e-07
2.18767e-08
1.13672e-07
1.74474e-08
1.0769e-07
1.43662e-08
1.0259e-07
1.2058e-08
9.8189e-08
1.02896e-08
9.43469e-08
8.91078e-09
9.0958e-08
7.81177e-09
8.79425e-08
6.91745e-09
8.52388e-08
6.17736e-09
8.27989e-08
5.55644e-09
8.05843e-08
5.02936e-09
7.85639e-08
4.57733e-09
7.67125e-08
4.18613e-09
7.50089e-08
3.84479e-09
7.34359e-08
3.54475e-09
7.19787e-08
3.27922e-09
7.06249e-08
3.04273e-09
6.9364e-08
2.83087e-09
6.81868e-08
2.63998e-09
6.70857e-08
2.46704e-09
6.6054e-08
2.30954e-09
6.50858e-08
2.16532e-09
6.41762e-08
2.03257e-09
6.33209e-08
1.90972e-09
6.2516e-08
1.79541e-09
6.17584e-08
1.6884e-09
6.10453e-08
1.58773e-09
6.03744e-08
1.49225e-09
5.97435e-08
1.40143e-09
5.91513e-08
1.31384e-09
5.85962e-08
1.22986e-09
5.80777e-08
1.14681e-09
5.75943e-08
1.06739e-09
5.71471e-08
9.85425e-10
5.67335e-08
9.09345e-10
5.63578e-08
8.24225e-10
5.60138e-08
7.52293e-10
5.5713e-08
6.5784e-10
5.54392e-08
5.9449e-10
5.52201e-08
4.81217e-10
5.50189e-08
4.29385e-10
5.48877e-08
3.07961e-10
5.47987e-08
1.0739e-10
5.48087e-08
3.54115e-10
-3.25007e-09
5.44268e-08
1.8451e-07
1.23455e-07
1.82338e-07
1.01595e-07
1.76115e-07
6.64176e-08
1.67752e-07
4.93645e-08
1.59128e-07
3.77013e-08
1.51218e-07
2.97865e-08
1.44143e-07
2.45229e-08
1.37841e-07
2.06676e-08
1.32241e-07
1.76583e-08
1.27257e-07
1.52734e-08
1.22804e-07
1.33641e-08
1.18804e-07
1.18115e-08
1.15194e-07
1.05281e-08
1.11918e-07
9.45275e-09
1.08933e-07
8.54119e-09
1.06202e-07
7.76072e-09
1.03693e-07
7.08649e-09
1.0138e-07
6.49934e-09
9.92402e-08
5.98428e-09
9.72555e-08
5.52942e-09
9.54095e-08
5.12523e-09
9.36883e-08
4.76398e-09
9.20798e-08
4.43932e-09
9.05738e-08
4.14601e-09
8.91612e-08
3.87965e-09
8.78342e-08
3.63654e-09
8.65859e-08
3.41356e-09
8.54105e-08
3.20799e-09
8.43027e-08
3.01752e-09
8.3258e-08
2.84012e-09
8.22725e-08
2.67395e-09
8.13427e-08
2.51752e-09
8.04657e-08
2.36917e-09
7.96392e-08
2.22802e-09
7.8861e-08
2.09199e-09
7.81294e-08
1.9615e-09
7.74434e-08
1.83273e-09
7.68015e-08
1.70934e-09
7.62044e-08
1.58249e-09
7.56496e-08
1.46418e-09
7.51412e-08
1.33264e-09
7.46731e-08
1.22034e-09
7.42567e-08
1.0743e-09
7.38768e-08
9.74362e-10
7.3559e-08
7.99058e-10
7.32732e-08
7.15187e-10
7.30589e-08
5.22184e-10
7.29068e-08
2.59495e-10
7.28565e-08
4.0443e-10
-2.80706e-09
7.24135e-08
1.90342e-07
1.1533e-07
1.91857e-07
1.0008e-07
1.90258e-07
6.80171e-08
1.86148e-07
5.3474e-08
1.80704e-07
4.31452e-08
1.74948e-07
3.55432e-08
1.69247e-07
3.02237e-08
1.6376e-07
2.61547e-08
1.58583e-07
2.28345e-08
1.5376e-07
2.00969e-08
1.49292e-07
1.78325e-08
1.45162e-07
1.59414e-08
1.41346e-07
1.43439e-08
1.37818e-07
1.29808e-08
1.34551e-07
1.18077e-08
1.31522e-07
1.07903e-08
1.28707e-07
9.90167e-09
1.26085e-07
9.12043e-09
1.2364e-07
8.42943e-09
1.21355e-07
7.81479e-09
1.19215e-07
7.26516e-09
1.17208e-07
6.77117e-09
1.15322e-07
6.32502e-09
1.13548e-07
5.92016e-09
1.11876e-07
5.55109e-09
1.103e-07
5.21308e-09
1.08811e-07
4.9021e-09
1.07405e-07
4.61465e-09
1.06075e-07
4.3477e-09
1.04816e-07
4.09857e-09
1.03625e-07
3.86486e-09
1.02498e-07
3.64455e-09
1.01432e-07
3.43546e-09
1.00424e-07
3.23632e-09
9.94711e-08
3.04447e-09
9.85724e-08
2.86023e-09
9.77264e-08
2.67875e-09
9.69313e-08
2.50445e-09
9.61876e-08
2.32613e-09
9.54931e-08
2.15868e-09
9.48511e-08
1.97465e-09
9.42569e-08
1.81459e-09
9.37191e-08
1.61207e-09
9.32275e-08
1.46594e-09
9.27989e-08
1.22769e-09
9.24194e-08
1.09471e-09
9.21026e-08
8.38917e-10
9.18702e-08
4.91876e-10
9.17268e-08
5.47888e-10
-2.27985e-09
9.11996e-08
1.95504e-07
1.07641e-07
1.98245e-07
9.73384e-08
1.98981e-07
6.7281e-08
1.97783e-07
5.4672e-08
1.95144e-07
4.57844e-08
1.91799e-07
3.88883e-08
1.88062e-07
3.39609e-08
1.84106e-07
3.01105e-08
1.80083e-07
2.68579e-08
1.76102e-07
2.40776e-08
1.72232e-07
2.17028e-08
1.6851e-07
1.96627e-08
1.64958e-07
1.78964e-08
1.61582e-07
1.63563e-08
1.58384e-07
1.50058e-08
1.55359e-07
1.38152e-08
1.52501e-07
1.27602e-08
1.498e-07
1.18211e-08
1.47248e-07
1.09812e-08
1.44836e-07
1.02268e-08
1.42555e-07
9.54622e-09
1.40397e-07
8.92978e-09
1.38353e-07
8.36916e-09
1.36415e-07
7.85725e-09
1.34579e-07
7.38797e-09
1.32836e-07
6.95602e-09
1.31181e-07
6.55681e-09
1.29609e-07
6.18632e-09
1.28116e-07
5.84102e-09
1.26697e-07
5.51773e-09
1.25348e-07
5.21363e-09
1.24066e-07
4.92626e-09
1.22849e-07
4.65301e-09
1.21693e-07
4.39229e-09
1.20596e-07
4.1409e-09
1.19557e-07
3.89907e-09
1.18575e-07
3.66109e-09
1.17648e-07
3.43184e-09
1.16775e-07
3.19837e-09
1.15957e-07
2.97745e-09
1.15194e-07
2.73774e-09
1.14484e-07
2.52469e-09
1.13832e-07
2.26411e-09
1.13234e-07
2.06387e-09
1.12696e-07
1.76553e-09
1.12221e-07
1.56914e-09
1.118e-07
1.2599e-09
1.11473e-07
8.1936e-10
1.11231e-07
7.89703e-10
-1.65967e-09
1.10611e-07
2.00819e-07
1.00407e-07
2.0377e-07
9.43875e-08
2.05341e-07
6.57097e-08
2.05639e-07
5.43743e-08
2.04804e-07
4.66195e-08
2.03319e-07
4.03733e-08
2.01365e-07
3.59148e-08
1.99028e-07
3.24473e-08
1.96416e-07
2.94702e-08
1.93631e-07
2.68622e-08
1.90755e-07
2.45789e-08
1.87847e-07
2.25705e-08
1.84952e-07
2.07914e-08
1.82101e-07
1.9207e-08
1.79317e-07
1.77902e-08
1.76613e-07
1.65188e-08
1.73999e-07
1.53742e-08
1.7148e-07
1.43404e-08
1.69058e-07
1.34036e-08
1.66732e-07
1.25521e-08
1.64503e-07
1.17758e-08
1.62367e-07
1.10658e-08
1.60321e-07
1.04144e-08
1.58364e-07
9.81488e-09
1.5649e-07
9.26124e-09
1.54698e-07
8.74826e-09
1.52984e-07
8.27131e-09
1.51344e-07
7.82623e-09
1.49775e-07
7.40933e-09
1.48276e-07
7.01726e-09
1.46843e-07
6.64695e-09
1.45473e-07
6.29574e-09
1.44165e-07
5.96073e-09
1.42918e-07
5.64013e-09
1.41728e-07
5.33038e-09
1.40596e-07
5.0316e-09
1.39519e-07
4.73751e-09
1.38498e-07
4.45315e-09
1.37532e-07
4.16453e-09
1.3662e-07
3.88919e-09
1.35764e-07
3.594e-09
1.34962e-07
3.32587e-09
1.34218e-07
3.00872e-09
1.33532e-07
2.7499e-09
1.32901e-07
2.39618e-09
1.32342e-07
2.12845e-09
1.3183e-07
1.77202e-09
1.31406e-07
1.24272e-09
1.3107e-07
1.12584e-09
-9.6224e-10
1.30373e-07
2.06422e-07
9.35166e-08
2.09329e-07
9.14802e-08
2.11052e-07
6.39871e-08
2.11929e-07
5.3497e-08
2.11988e-07
4.65608e-08
2.11597e-07
4.07639e-08
2.10861e-07
3.66507e-08
2.09783e-07
3.35253e-08
2.08403e-07
3.08507e-08
2.06779e-07
2.84864e-08
2.04967e-07
2.63908e-08
2.03016e-07
2.45209e-08
2.0097e-07
2.2838e-08
1.98863e-07
2.13141e-08
1.96724e-07
1.99287e-08
1.94577e-07
1.86655e-08
1.92441e-07
1.75107e-08
1.90329e-07
1.64527e-08
1.88251e-07
1.5481e-08
1.86216e-07
1.45868e-08
1.8423e-07
1.37621e-08
1.82296e-07
1.29996e-08
1.80418e-07
1.22931e-08
1.78596e-07
1.16369e-08
1.76831e-07
1.10257e-08
1.75125e-07
1.04549e-08
1.73476e-07
9.92039e-09
1.71884e-07
9.4182e-09
1.70348e-07
8.94488e-09
1.68868e-07
8.49717e-09
1.67443e-07
8.07208e-09
1.66072e-07
7.66692e-09
1.64754e-07
7.27878e-09
1.63488e-07
6.90579e-09
1.62274e-07
6.54423e-09
1.61112e-07
6.19418e-09
1.6e-07
5.84904e-09
1.58939e-07
5.51385e-09
1.5793e-07
5.17423e-09
1.56971e-07
4.84758e-09
1.56065e-07
4.50077e-09
1.55211e-07
4.17935e-09
1.5441e-07
3.81012e-09
1.53667e-07
3.4927e-09
1.52973e-07
3.08967e-09
1.52352e-07
2.74976e-09
1.51774e-07
2.35051e-09
1.5127e-07
1.74625e-09
1.50853e-07
1.54275e-09
-2.13751e-10
1.50105e-07
2.12268e-07
8.69107e-08
2.15138e-07
8.86105e-08
2.16807e-07
6.23184e-08
2.17844e-07
5.24601e-08
2.18247e-07
4.61569e-08
2.18359e-07
4.06524e-08
2.18277e-07
3.67332e-08
2.17969e-07
3.38328e-08
2.17431e-07
3.13889e-08
2.16682e-07
2.92359e-08
2.15745e-07
2.73272e-08
2.14647e-07
2.5619e-08
2.13413e-07
2.4072e-08
2.12068e-07
2.26588e-08
2.10636e-07
2.13606e-08
2.09138e-07
2.01636e-08
2.07592e-07
1.90566e-08
2.06015e-07
1.80303e-08
2.04419e-07
1.70769e-08
2.02816e-07
1.61896e-08
2.01216e-07
1.53622e-08
1.99626e-07
1.45893e-08
1.98054e-07
1.3866e-08
1.96503e-07
1.31878e-08
1.94978e-07
1.25506e-08
1.93482e-07
1.19505e-08
1.92019e-07
1.1384e-08
1.90589e-07
1.08478e-08
1.89195e-07
1.03388e-08
1.87838e-07
9.85415e-09
1.86519e-07
9.39113e-09
1.85239e-07
8.94725e-09
1.83998e-07
8.5197e-09
1.82797e-07
8.10673e-09
1.81636e-07
7.70464e-09
1.80517e-07
7.31352e-09
1.79439e-07
6.92675e-09
1.78404e-07
6.5492e-09
1.77412e-07
6.16667e-09
1.76463e-07
5.79575e-09
1.75559e-07
5.4047e-09
1.74703e-07
5.03573e-09
1.73891e-07
4.62183e-09
1.73134e-07
4.25032e-09
1.72418e-07
3.80562e-09
1.71769e-07
3.39892e-09
1.71158e-07
2.96138e-09
1.70603e-07
2.30097e-09
1.7013e-07
2.01627e-09
5.54054e-10
1.69362e-07
2.18314e-07
8.05774e-08
2.21187e-07
8.57373e-08
2.22779e-07
6.07265e-08
2.23844e-07
5.13949e-08
2.24357e-07
4.56445e-08
2.24646e-07
4.03633e-08
2.2484e-07
3.65394e-08
2.2491e-07
3.37624e-08
2.24837e-07
3.14619e-08
2.24621e-07
2.94515e-08
2.24268e-07
2.76806e-08
2.23783e-07
2.61037e-08
2.23176e-07
2.46789e-08
2.22458e-07
2.33767e-08
2.21642e-07
2.2177e-08
2.2074e-07
2.10656e-08
2.19765e-07
2.00315e-08
2.18729e-07
1.9066e-08
2.17644e-07
1.81621e-08
2.1652e-07
1.73139e-08
2.15366e-07
1.65163e-08
2.1419e-07
1.57649e-08
2.13e-07
1.50558e-08
2.11803e-07
1.43853e-08
2.10603e-07
1.37502e-08
2.09406e-07
1.31473e-08
2.08217e-07
1.25737e-08
2.07038e-07
1.20268e-08
2.05873e-07
1.15039e-08
2.04724e-07
1.10025e-08
2.03595e-07
1.05204e-08
2.02487e-07
1.00552e-08
2.01402e-07
9.60451e-09
2.00342e-07
9.16664e-09
1.99309e-07
8.73805e-09
1.98303e-07
8.31892e-09
1.97327e-07
7.90278e-09
1.96382e-07
7.49429e-09
1.95469e-07
7.0798e-09
1.9459e-07
6.67467e-09
1.93745e-07
6.24951e-09
1.92939e-07
5.84192e-09
1.92168e-07
5.39315e-09
1.91442e-07
4.97579e-09
1.90749e-07
4.49859e-09
1.90113e-07
4.03535e-09
1.89509e-07
3.56535e-09
1.8894e-07
2.86962e-09
1.88442e-07
2.51427e-09
1.30644e-09
1.8769e-07
2.24548e-07
7.45229e-08
2.27447e-07
8.2838e-08
2.28975e-07
5.91987e-08
2.30047e-07
5.03228e-08
2.306e-07
4.50917e-08
2.30937e-07
4.00259e-08
2.3122e-07
3.62561e-08
2.31439e-07
3.3544e-08
2.31574e-07
3.13266e-08
2.31625e-07
2.94004e-08
2.31592e-07
2.7714e-08
2.31473e-07
2.62231e-08
2.31267e-07
2.48846e-08
2.30977e-07
2.36668e-08
2.30606e-07
2.25481e-08
2.30159e-07
2.15128e-08
2.29641e-07
2.0549e-08
2.29059e-07
1.96476e-08
2.28421e-07
1.8801e-08
2.27731e-07
1.80035e-08
2.26997e-07
1.72499e-08
2.26226e-07
1.65363e-08
2.25423e-07
1.58588e-08
2.24594e-07
1.52144e-08
2.23744e-07
1.46001e-08
2.22878e-07
1.40132e-08
2.22e-07
1.34513e-08
2.21115e-07
1.2912e-08
2.20226e-07
1.2393e-08
2.19336e-07
1.18923e-08
2.18449e-07
1.14077e-08
2.17567e-07
1.09373e-08
2.16693e-07
1.04787e-08
2.15829e-07
1.00306e-08
2.14977e-07
9.58961e-09
2.1414e-07
9.1559e-09
2.13319e-07
8.7233e-09
2.12518e-07
8.29616e-09
2.11736e-07
7.86171e-09
2.10977e-07
7.43373e-09
2.1024e-07
6.98586e-09
2.09532e-07
6.55031e-09
2.08847e-07
6.07767e-09
2.08198e-07
5.62506e-09
2.07571e-07
5.12541e-09
2.06988e-07
4.61891e-09
2.06429e-07
4.12366e-09
2.05886e-07
3.41325e-09
2.05398e-07
3.00171e-09
2.00926e-09
2.04696e-07
2.30974e-07
6.87552e-08
2.33908e-07
7.99038e-08
2.35379e-07
5.77279e-08
2.36459e-07
4.92425e-08
2.37044e-07
4.45062e-08
2.37396e-07
3.96737e-08
2.37701e-07
3.59512e-08
2.37965e-07
3.32799e-08
2.38176e-07
3.11159e-08
2.38336e-07
2.92403e-08
2.38448e-07
2.76022e-08
2.3851e-07
2.61611e-08
2.3852e-07
2.48749e-08
2.38475e-07
2.37111e-08
2.38376e-07
2.26471e-08
2.38223e-07
2.16663e-08
2.38016e-07
2.07561e-08
2.37757e-07
1.99063e-08
2.37449e-07
1.9109e-08
2.37095e-07
1.83577e-08
2.36698e-07
1.76472e-08
2.36261e-07
1.69729e-08
2.35788e-07
1.63313e-08
2.35284e-07
1.57189e-08
2.34751e-07
1.51331e-08
2.34193e-07
1.4571e-08
2.33614e-07
1.40305e-08
2.33017e-07
1.35093e-08
2.32404e-07
1.30053e-08
2.3178e-07
1.25165e-08
2.31147e-07
1.2041e-08
2.30507e-07
1.1577e-08
2.29864e-07
1.11222e-08
2.29219e-07
1.06754e-08
2.28575e-07
1.02334e-08
2.27934e-07
9.79642e-09
2.27299e-07
9.35854e-09
2.26672e-07
8.92375e-09
2.26053e-07
8.4803e-09
2.25447e-07
8.04019e-09
2.24852e-07
7.58044e-09
2.24275e-07
7.12756e-09
2.23711e-07
6.64173e-09
2.23171e-07
6.16513e-09
2.22643e-07
5.65278e-09
2.22145e-07
5.11735e-09
2.21664e-07
4.60481e-09
2.21179e-07
3.89815e-09
2.20733e-07
3.44704e-09
2.63375e-09
2.20109e-07
2.376e-07
6.32801e-08
2.40573e-07
7.69304e-08
2.41987e-07
5.63144e-08
2.43074e-07
4.81551e-08
2.43696e-07
4.38843e-08
2.44061e-07
3.93088e-08
2.44371e-07
3.56411e-08
2.44648e-07
3.30034e-08
2.44881e-07
3.08827e-08
2.45077e-07
2.90439e-08
2.45243e-07
2.74362e-08
2.4538e-07
2.60244e-08
2.45486e-07
2.47685e-08
2.45561e-07
2.36362e-08
2.45603e-07
2.26051e-08
2.45611e-07
2.16583e-08
2.45585e-07
2.07828e-08
2.45523e-07
1.99682e-08
2.45426e-07
1.9206e-08
2.45294e-07
1.84893e-08
2.45129e-07
1.78123e-08
2.44931e-07
1.71704e-08
2.44703e-07
1.65596e-08
2.44446e-07
1.59764e-08
2.44161e-07
1.54176e-08
2.43851e-07
1.48808e-08
2.43519e-07
1.43633e-08
2.43165e-07
1.3863e-08
2.42792e-07
1.33778e-08
2.42403e-07
1.29057e-08
2.42e-07
1.24446e-08
2.41584e-07
1.1993e-08
2.41157e-07
1.15485e-08
2.40723e-07
1.11101e-08
2.40282e-07
1.06744e-08
2.39836e-07
1.02417e-08
2.39388e-07
9.80647e-09
2.3894e-07
9.37208e-09
2.38492e-07
8.92797e-09
2.38048e-07
8.48419e-09
2.37608e-07
8.02129e-09
2.37175e-07
7.56008e-09
2.36747e-07
7.06998e-09
2.36332e-07
6.57964e-09
2.35922e-07
6.0629e-09
2.35528e-07
5.51196e-09
2.35143e-07
4.98984e-09
2.34739e-07
4.30163e-09
2.34358e-07
3.82769e-09
3.16104e-09
2.33831e-07
2.44435e-07
5.81012e-08
2.47447e-07
7.39186e-08
2.48805e-07
5.49564e-08
2.49895e-07
4.70651e-08
2.50555e-07
4.32242e-08
2.50936e-07
3.89276e-08
2.51251e-07
3.53266e-08
2.51532e-07
3.27216e-08
2.51773e-07
3.0642e-08
2.5198e-07
2.88369e-08
2.52163e-07
2.72535e-08
2.52325e-07
2.58621e-08
2.52468e-07
2.46256e-08
2.52592e-07
2.35126e-08
2.52696e-07
2.2501e-08
2.5278e-07
2.15744e-08
2.52842e-07
2.07199e-08
2.52884e-07
1.99269e-08
2.52903e-07
1.91869e-08
2.52899e-07
1.84928e-08
2.52873e-07
1.78386e-08
2.52824e-07
1.72194e-08
2.52753e-07
1.6631e-08
2.52659e-07
1.60696e-08
2.52545e-07
1.55322e-08
2.5241e-07
1.50158e-08
2.52255e-07
1.45179e-08
2.52082e-07
1.40361e-08
2.51892e-07
1.35682e-08
2.51685e-07
1.31123e-08
2.51464e-07
1.26661e-08
2.51229e-07
1.2228e-08
2.50981e-07
1.17958e-08
2.50723e-07
1.13681e-08
2.50456e-07
1.09419e-08
2.5018e-07
1.05171e-08
2.49898e-07
1.00886e-08
2.49611e-07
9.65922e-09
2.4932e-07
9.21949e-09
2.49026e-07
8.77747e-09
2.4873e-07
8.31722e-09
2.48436e-07
7.85416e-09
2.4814e-07
7.36605e-09
2.4785e-07
6.8701e-09
2.47558e-07
6.35502e-09
2.4727e-07
5.79964e-09
2.46985e-07
5.27452e-09
2.46672e-07
4.61487e-09
2.46367e-07
4.13312e-09
3.58469e-09
2.45943e-07
2.51487e-07
5.32206e-08
2.54527e-07
7.08786e-08
2.55841e-07
5.36428e-08
2.56928e-07
4.59779e-08
2.57626e-07
4.25266e-08
2.58026e-07
3.85274e-08
2.58346e-07
3.50067e-08
2.58633e-07
3.24348e-08
2.58878e-07
3.03965e-08
2.5909e-07
2.86257e-08
2.59277e-07
2.70657e-08
2.59447e-07
2.56921e-08
2.59602e-07
2.4471e-08
2.59742e-07
2.33722e-08
2.59869e-07
2.2374e-08
2.59983e-07
2.14604e-08
2.60084e-07
2.06189e-08
2.60172e-07
1.98392e-08
2.60246e-07
1.91128e-08
2.60307e-07
1.84326e-08
2.60352e-07
1.77927e-08
2.60384e-07
1.71879e-08
2.60401e-07
1.66141e-08
2.60403e-07
1.60675e-08
2.6039e-07
1.55447e-08
2.60363e-07
1.50428e-08
2.60322e-07
1.45591e-08
2.60267e-07
1.40912e-08
2.60199e-07
1.36367e-08
2.60117e-07
1.31937e-08
2.60024e-07
1.27599e-08
2.59918e-07
1.23335e-08
2.59802e-07
1.19122e-08
2.59675e-07
1.14946e-08
2.59539e-07
1.10778e-08
2.59395e-07
1.06615e-08
2.59243e-07
1.02408e-08
2.59084e-07
9.81785e-09
2.58919e-07
9.38454e-09
2.5875e-07
8.94688e-09
2.58575e-07
8.4922e-09
2.58398e-07
8.03109e-09
2.58215e-07
7.54846e-09
2.58033e-07
7.05247e-09
2.57845e-07
6.54268e-09
2.57654e-07
5.99088e-09
2.57461e-07
5.46779e-09
2.57234e-07
4.84216e-09
2.57002e-07
4.3645e-09
3.91002e-09
2.56677e-07
2.58765e-07
4.86385e-08
2.61823e-07
6.78209e-08
2.63103e-07
5.23628e-08
2.64182e-07
4.48985e-08
2.64915e-07
4.17938e-08
2.65336e-07
3.81061e-08
2.65663e-07
3.46802e-08
2.65955e-07
3.21425e-08
2.66206e-07
3.01457e-08
2.66421e-07
2.84109e-08
2.66611e-07
2.68752e-08
2.66784e-07
2.55193e-08
2.66942e-07
2.43128e-08
2.67088e-07
2.32266e-08
2.67222e-07
2.22395e-08
2.67346e-07
2.1336e-08
2.67461e-07
2.05041e-08
2.67567e-07
1.97336e-08
2.67663e-07
1.90163e-08
2.67751e-07
1.83451e-08
2.67829e-07
1.77142e-08
2.67899e-07
1.71187e-08
2.67959e-07
1.65541e-08
2.68009e-07
1.60168e-08
2.68051e-07
1.55034e-08
2.68082e-07
1.5011e-08
2.68105e-07
1.45367e-08
2.68118e-07
1.40782e-08
2.68121e-07
1.36331e-08
2.68116e-07
1.31992e-08
2.68101e-07
1.27743e-08
2.68078e-07
1.23566e-08
2.68047e-07
1.19436e-08
2.68007e-07
1.15341e-08
2.6796e-07
1.11249e-08
2.67906e-07
1.07157e-08
2.67845e-07
1.0302e-08
2.67778e-07
9.88511e-09
2.67704e-07
9.45821e-09
2.67625e-07
9.02542e-09
2.67541e-07
8.57703e-09
2.67452e-07
8.11956e-09
2.67357e-07
7.64367e-09
2.67258e-07
7.15092e-09
2.67153e-07
6.648e-09
2.67039e-07
6.10479e-09
2.6692e-07
5.58714e-09
2.66765e-07
4.99707e-09
2.66598e-07
4.53177e-09
4.15077e-09
2.66357e-07
2.66277e-07
4.43537e-08
2.69342e-07
6.47561e-08
2.70599e-07
5.11057e-08
2.71666e-07
4.38313e-08
2.72431e-07
4.1029e-08
2.72875e-07
3.76621e-08
2.73209e-07
3.43464e-08
2.73507e-07
3.18447e-08
2.73763e-07
2.98893e-08
2.73982e-07
2.8192e-08
2.74175e-07
2.66822e-08
2.7435e-07
2.53445e-08
2.7451e-07
2.41528e-08
2.74657e-07
2.30791e-08
2.74794e-07
2.21027e-08
2.74921e-07
2.12085e-08
2.75041e-07
2.03849e-08
2.75152e-07
1.96221e-08
2.75256e-07
1.89119e-08
2.75354e-07
1.82476e-08
2.75445e-07
1.76233e-08
2.7553e-07
1.70341e-08
2.75608e-07
1.64759e-08
2.7568e-07
1.59448e-08
2.75746e-07
1.54376e-08
2.75806e-07
1.49513e-08
2.75859e-07
1.44832e-08
2.75907e-07
1.40308e-08
2.75948e-07
1.35917e-08
2.75983e-07
1.31639e-08
2.76012e-07
1.2745e-08
2.76036e-07
1.23333e-08
2.76053e-07
1.19261e-08
2.76065e-07
1.15223e-08
2.76071e-07
1.11187e-08
2.76072e-07
1.07148e-08
2.76068e-07
1.03064e-08
2.76058e-07
9.89435e-09
2.76044e-07
9.47285e-09
2.76025e-07
9.04438e-09
2.76e-07
8.60179e-09
2.75971e-07
8.14831e-09
2.75936e-07
7.679e-09
2.75896e-07
7.19108e-09
2.75849e-07
6.69527e-09
2.7579e-07
6.16323e-09
2.75724e-07
5.65314e-09
2.75624e-07
5.09731e-09
2.75506e-07
4.6492e-09
4.32456e-09
2.75333e-07
2.74032e-07
4.03632e-08
2.77093e-07
6.16952e-08
2.78337e-07
4.98611e-08
2.79389e-07
4.27798e-08
2.80182e-07
4.02358e-08
2.8065e-07
3.7194e-08
2.80992e-07
3.40045e-08
2.81295e-07
3.15414e-08
2.81557e-07
2.96271e-08
2.81781e-07
2.79687e-08
2.81977e-07
2.64862e-08
2.82153e-07
2.51677e-08
2.82315e-07
2.39912e-08
2.82464e-07
2.29303e-08
2.82602e-07
2.19647e-08
2.82731e-07
2.10799e-08
2.82851e-07
2.02644e-08
2.82964e-07
1.95088e-08
2.83071e-07
1.88052e-08
2.83172e-07
1.81469e-08
2.83267e-07
1.75282e-08
2.83357e-07
1.69443e-08
2.83442e-07
1.6391e-08
2.83522e-07
1.58646e-08
2.83597e-07
1.53619e-08
2.83668e-07
1.48801e-08
2.83735e-07
1.44163e-08
2.83798e-07
1.39681e-08
2.83857e-07
1.35332e-08
2.83911e-07
1.31095e-08
2.83961e-07
1.26947e-08
2.84008e-07
1.22869e-08
2.8405e-07
1.18837e-08
2.84089e-07
1.14837e-08
2.84123e-07
1.1084e-08
2.84154e-07
1.06838e-08
2.84181e-07
1.02793e-08
2.84205e-07
9.87083e-09
2.84224e-07
9.45351e-09
2.8424e-07
9.02851e-09
2.84251e-07
8.59076e-09
2.84258e-07
8.14105e-09
2.8426e-07
7.67758e-09
2.84256e-07
7.19509e-09
2.84245e-07
6.70601e-09
2.84222e-07
6.18608e-09
2.84191e-07
5.68472e-09
2.84128e-07
5.16017e-09
2.84046e-07
4.73127e-09
4.44866e-09
2.83921e-07
2.82039e-07
3.66621e-08
2.85085e-07
5.86491e-08
2.86326e-07
4.86197e-08
2.87359e-07
4.17469e-08
2.88176e-07
3.94188e-08
2.8867e-07
3.67004e-08
2.89021e-07
3.36534e-08
2.89329e-07
3.12329e-08
2.89597e-07
2.93589e-08
2.89825e-07
2.77407e-08
2.90025e-07
2.6287e-08
2.90204e-07
2.49885e-08
2.90367e-07
2.38277e-08
2.90517e-07
2.27801e-08
2.90657e-07
2.18257e-08
2.90786e-07
2.09504e-08
2.90907e-07
2.01432e-08
2.91021e-07
1.93949e-08
2.91128e-07
1.86979e-08
2.9123e-07
1.80454e-08
2.91326e-07
1.7432e-08
2.91417e-07
1.6853e-08
2.91504e-07
1.63041e-08
2.91587e-07
1.57819e-08
2.91666e-07
1.52832e-08
2.91741e-07
1.48049e-08
2.91813e-07
1.43446e-08
2.91881e-07
1.38998e-08
2.91946e-07
1.34681e-08
2.92008e-07
1.30474e-08
2.92067e-07
1.26355e-08
2.92124e-07
1.22306e-08
2.92177e-07
1.18303e-08
2.92228e-07
1.1433e-08
2.92276e-07
1.10361e-08
2.92321e-07
1.06385e-08
2.92363e-07
1.02369e-08
2.92403e-07
9.83099e-09
2.9244e-07
9.4169e-09
2.92474e-07
8.99469e-09
2.92504e-07
8.56089e-09
2.9253e-07
8.11465e-09
2.92551e-07
7.65618e-09
2.92567e-07
7.17926e-09
2.92577e-07
6.69641e-09
2.92574e-07
6.18858e-09
2.92562e-07
5.69659e-09
2.92523e-07
5.19957e-09
2.92464e-07
4.78985e-09
4.53738e-09
2.92376e-07
2.90307e-07
3.32441e-08
2.93327e-07
5.56291e-08
2.94574e-07
4.73725e-08
2.95586e-07
4.07347e-08
2.96422e-07
3.85829e-08
2.96942e-07
3.61803e-08
2.97304e-07
3.32917e-08
2.97618e-07
3.0919e-08
2.97892e-07
2.90847e-08
2.98125e-07
2.75076e-08
2.98328e-07
2.60843e-08
2.98509e-07
2.48068e-08
2.98675e-07
2.36623e-08
2.98827e-07
2.26283e-08
2.98967e-07
2.16854e-08
2.99097e-07
2.082e-08
2.99219e-07
2.00213e-08
2.99333e-07
1.92806e-08
2.99441e-07
1.85901e-08
2.99543e-07
1.79436e-08
2.99639e-07
1.73356e-08
2.99731e-07
1.67614e-08
2.99818e-07
1.62169e-08
2.99901e-07
1.56987e-08
2.99981e-07
1.52037e-08
3.00057e-07
1.47288e-08
3.0013e-07
1.42717e-08
3.002e-07
1.38298e-08
3.00267e-07
1.34008e-08
3.00332e-07
1.29828e-08
3.00394e-07
1.25734e-08
3.00454e-07
1.21709e-08
3.00511e-07
1.17728e-08
3.00566e-07
1.13777e-08
3.0062e-07
1.0983e-08
3.00671e-07
1.05874e-08
3.0072e-07
1.01881e-08
3.00766e-07
9.78424e-09
3.0081e-07
9.37278e-09
3.00852e-07
8.95295e-09
3.00891e-07
8.52249e-09
3.00926e-07
8.0795e-09
3.00956e-07
7.62542e-09
3.00982e-07
7.15408e-09
3.01001e-07
6.67708e-09
3.01009e-07
6.18085e-09
3.01007e-07
5.69855e-09
3.00981e-07
5.22518e-09
3.00938e-07
4.83323e-09
4.60095e-09
3.00874e-07
2.98846e-07
3.01009e-08
3.01829e-07
5.26463e-08
3.03089e-07
4.61117e-08
3.0408e-07
3.97446e-08
3.04929e-07
3.77334e-08
3.05476e-07
3.56331e-08
3.0585e-07
3.29181e-08
3.06169e-07
3.05999e-08
3.06449e-07
2.88046e-08
3.06688e-07
2.72691e-08
3.06894e-07
2.58779e-08
3.07079e-07
2.46225e-08
3.07246e-07
2.34948e-08
3.074e-07
2.24748e-08
3.07541e-07
2.15439e-08
3.07673e-07
2.06886e-08
3.07795e-07
1.98987e-08
3.0791e-07
1.91656e-08
3.08018e-07
1.8482e-08
3.0812e-07
1.78416e-08
3.08217e-07
1.7239e-08
3.08308e-07
1.66697e-08
3.08396e-07
1.61297e-08
3.08479e-07
1.56156e-08
3.08558e-07
1.51242e-08
3.08634e-07
1.46527e-08
3.08707e-07
1.41986e-08
3.08778e-07
1.37596e-08
3.08845e-07
1.33333e-08
3.0891e-07
1.29177e-08
3.08973e-07
1.25107e-08
3.09033e-07
1.21103e-08
3.09092e-07
1.17143e-08
3.09149e-07
1.13211e-08
3.09203e-07
1.09283e-08
3.09256e-07
1.05346e-08
3.09307e-07
1.01373e-08
3.09356e-07
9.73528e-09
3.09402e-07
9.32613e-09
3.09447e-07
8.90852e-09
3.09488e-07
8.48105e-09
3.09526e-07
8.04128e-09
3.09561e-07
7.59121e-09
3.09589e-07
7.12541e-09
3.09612e-07
6.65412e-09
3.09624e-07
6.16881e-09
3.09627e-07
5.69627e-09
3.09609e-07
5.24285e-09
3.09576e-07
4.86638e-09
4.64594e-09
3.09531e-07
3.07665e-07
2.72228e-08
3.106e-07
4.97119e-08
3.11881e-07
4.48304e-08
3.12849e-07
3.87768e-08
3.13707e-07
3.68756e-08
3.14281e-07
3.50589e-08
3.14668e-07
3.25309e-08
3.14993e-07
3.02752e-08
3.15279e-07
2.85186e-08
3.15523e-07
2.70249e-08
3.15733e-07
2.56673e-08
3.15921e-07
2.44351e-08
3.16091e-07
2.33249e-08
3.16246e-07
2.23195e-08
3.16389e-07
2.14009e-08
3.16522e-07
2.05561e-08
3.16645e-07
1.97752e-08
3.16761e-07
1.905e-08
3.16869e-07
1.83734e-08
3.16972e-07
1.77393e-08
3.17068e-07
1.71423e-08
3.1716e-07
1.6578e-08
3.17247e-07
1.60425e-08
3.1733e-07
1.55325e-08
3.1741e-07
1.50448e-08
3.17486e-07
1.45768e-08
3.17558e-07
1.41258e-08
3.17628e-07
1.36897e-08
3.17696e-07
1.32661e-08
3.1776e-07
1.28529e-08
3.17823e-07
1.24482e-08
3.17883e-07
1.20499e-08
3.17941e-07
1.1656e-08
3.17998e-07
1.12647e-08
3.18053e-07
1.08738e-08
3.18105e-07
1.04817e-08
3.18156e-07
1.00863e-08
3.18205e-07
9.68616e-09
3.18252e-07
9.27921e-09
3.18297e-07
8.86383e-09
3.18339e-07
8.43918e-09
3.18378e-07
8.00268e-09
3.18412e-07
7.55648e-09
3.18441e-07
7.09619e-09
3.18465e-07
6.63058e-09
3.18478e-07
6.15543e-09
3.18482e-07
5.69254e-09
3.18469e-07
5.25567e-09
3.18444e-07
4.89185e-09
4.67622e-09
3.18414e-07
3.16775e-07
2.45986e-08
3.1965e-07
4.68371e-08
3.20958e-07
4.35231e-08
3.21903e-07
3.78312e-08
3.22764e-07
3.60143e-08
3.23365e-07
3.44587e-08
3.23767e-07
3.21287e-08
3.24097e-07
2.99447e-08
3.24389e-07
2.82268e-08
3.24639e-07
2.67747e-08
3.24854e-07
2.54522e-08
3.25045e-07
2.42445e-08
3.25217e-07
2.31525e-08
3.25375e-07
2.2162e-08
3.2552e-07
2.12561e-08
3.25653e-07
2.04222e-08
3.25778e-07
1.96507e-08
3.25894e-07
1.89337e-08
3.26004e-07
1.82643e-08
3.26106e-07
1.76365e-08
3.26203e-07
1.70452e-08
3.26295e-07
1.64861e-08
3.26382e-07
1.59553e-08
3.26466e-07
1.54495e-08
3.26545e-07
1.49656e-08
3.2662e-07
1.45011e-08
3.26693e-07
1.40533e-08
3.26762e-07
1.36201e-08
3.26829e-07
1.31992e-08
3.26894e-07
1.27886e-08
3.26956e-07
1.23862e-08
3.27016e-07
1.199e-08
3.27073e-07
1.15982e-08
3.27129e-07
1.12088e-08
3.27183e-07
1.08197e-08
3.27236e-07
1.04295e-08
3.27286e-07
1.0036e-08
3.27334e-07
9.63769e-09
3.27381e-07
9.23291e-09
3.27425e-07
8.81985e-09
3.27466e-07
8.39799e-09
3.27504e-07
7.96485e-09
3.27538e-07
7.52251e-09
3.27566e-07
7.06769e-09
3.27589e-07
6.60782e-09
3.27602e-07
6.14207e-09
3.27606e-07
5.68848e-09
3.27597e-07
5.26508e-09
3.27578e-07
4.91081e-09
4.69397e-09
3.2756e-07
3.26186e-07
2.22156e-08
3.2899e-07
4.40327e-08
3.30328e-07
4.21856e-08
3.31252e-07
3.69065e-08
3.32112e-07
3.51546e-08
3.32737e-07
3.38337e-08
3.33156e-07
3.17102e-08
3.33492e-07
2.96077e-08
3.3379e-07
2.79292e-08
3.34046e-07
2.65185e-08
3.34266e-07
2.52323e-08
3.3446e-07
2.40505e-08
3.34635e-07
2.29773e-08
3.34795e-07
2.20022e-08
3.34942e-07
2.11095e-08
3.35077e-07
2.02868e-08
3.35203e-07
1.95249e-08
3.3532e-07
1.88163e-08
3.3543e-07
1.81543e-08
3.35534e-07
1.75331e-08
3.35631e-07
1.69478e-08
3.35723e-07
1.6394e-08
3.35811e-07
1.58679e-08
3.35894e-07
1.53664e-08
3.35973e-07
1.48865e-08
3.36048e-07
1.44255e-08
3.36121e-07
1.3981e-08
3.3619e-07
1.35508e-08
3.36256e-07
1.31327e-08
3.3632e-07
1.27246e-08
3.36382e-07
1.23246e-08