/*--------------------------------*- C++ -*----------------------------------*\
  =========                 |
  \\      /  F ield         | OpenFOAM: The Open Source CFD Toolbox
   \\    /   O peration     | Website:  https://openfoam.org
    \\  /    A nd           | Version:  7
     \\/     M anipulation  |
\*---------------------------------------------------------------------------*/
FoamFile
{
    version     2.0;
    format      ascii;
    class       surfaceScalarField;
    location    "0.42";
    object      phi_0;
}
// * * * * * * * * * * * * * * * * * * * * * * * * * * * * * * * * * * * * * //

dimensions      [0 3 -1 0 0 0 0];

internalField   nonuniform List<scalar> 
139350
(
6.45113e-08
9.21202e-08
3.19624e-08
3.25489e-08
2.30553e-08
8.9071e-09
1.95686e-08
3.4867e-09
1.76147e-08
1.95388e-09
1.61825e-08
1.43219e-09
1.50476e-08
1.13495e-09
1.41332e-08
9.14437e-10
1.33805e-08
7.52646e-10
1.27463e-08
6.34216e-10
1.22017e-08
5.44596e-10
1.17274e-08
4.74305e-10
1.13097e-08
4.17734e-10
1.09383e-08
3.71355e-10
1.06055e-08
3.3276e-10
1.03053e-08
3.0023e-10
1.00328e-08
2.72499e-10
9.78419e-09
2.48625e-10
9.5563e-09
2.27888e-10
9.34657e-09
2.09732e-10
9.15284e-09
1.9372e-10
8.97334e-09
1.79504e-10
8.80654e-09
1.66803e-10
8.65115e-09
1.55387e-10
8.50608e-09
1.45067e-10
8.3704e-09
1.35686e-10
8.24329e-09
1.2711e-10
8.12406e-09
1.19228e-10
8.01212e-09
1.1194e-10
7.90695e-09
1.0517e-10
7.80812e-09
9.88318e-11
7.71523e-09
9.28865e-11
7.62799e-09
8.72406e-11
7.54609e-09
8.1903e-11
7.46934e-09
7.67442e-11
7.39749e-09
7.18505e-11
7.33047e-09
6.702e-11
7.26802e-09
6.24485e-11
7.21017e-09
5.78512e-11
7.15669e-09
5.34869e-11
7.10749e-09
4.91917e-11
7.06272e-09
4.47725e-11
7.02135e-09
4.13735e-11
6.98555e-09
3.57992e-11
6.94984e-09
3.57051e-11
6.92579e-09
2.40592e-11
6.88825e-09
3.75321e-11
6.90328e-09
-1.50315e-11
6.71109e-09
1.92192e-10
-3.11419e-09
9.82529e-09
1.25942e-07
1.27622e-07
9.12857e-08
6.72051e-08
7.19291e-08
2.82637e-08
6.12097e-08
1.42061e-08
5.47696e-08
8.39403e-09
5.02709e-08
5.93086e-09
4.67827e-08
4.6232e-09
4.39655e-08
3.73159e-09
4.16386e-08
3.07958e-09
3.96763e-08
2.59649e-09
3.79915e-08
2.22943e-09
3.65241e-08
1.9417e-09
3.52315e-08
1.71031e-09
3.40822e-08
1.52062e-09
3.30522e-08
1.36275e-09
3.21228e-08
1.22964e-09
3.12792e-08
1.11614e-09
3.05094e-08
1.01839e-09
2.98038e-08
9.33468e-10
2.91545e-08
8.59093e-10
2.85547e-08
7.93483e-10
2.7999e-08
7.35213e-10
2.74827e-08
6.83137e-10
2.70017e-08
6.36315e-10
2.65528e-08
5.93972e-10
2.61331e-08
5.55467e-10
2.57399e-08
5.2025e-10
2.53713e-08
4.87867e-10
2.50253e-08
4.57911e-10
2.47004e-08
4.30055e-10
2.43953e-08
4.03972e-10
2.41087e-08
3.79448e-10
2.38398e-08
3.56158e-10
2.35877e-08
3.34038e-10
2.33518e-08
3.12654e-10
2.31314e-08
2.92218e-10
2.29264e-08
2.7197e-10
2.27362e-08
2.52684e-10
2.25612e-08
2.32873e-10
2.24003e-08
2.14411e-10
2.2255e-08
1.94463e-10
2.21231e-08
1.76654e-10
2.2008e-08
1.56437e-10
2.19052e-08
1.38635e-10
2.1821e-08
1.19919e-10
2.17487e-08
9.63256e-11
2.16906e-08
9.56412e-11
2.16951e-08
-1.94778e-11
2.15446e-08
3.42614e-10
-3.81735e-09
2.22478e-08
1.58751e-07
1.35274e-07
1.36523e-07
8.94335e-08
1.17485e-07
4.73015e-08
1.03303e-07
2.83878e-08
9.33056e-08
1.83918e-08
8.60025e-08
1.3234e-08
8.02928e-08
1.03328e-08
7.56401e-08
8.38429e-09
7.17617e-08
6.95803e-09
6.84696e-08
5.88856e-09
6.56304e-08
5.06862e-09
6.31493e-08
4.42279e-09
6.09578e-08
3.9018e-09
5.90048e-08
3.4736e-09
5.72512e-08
3.11639e-09
5.56662e-08
2.81462e-09
5.42255e-08
2.55686e-09
5.29093e-08
2.33455e-09
5.17017e-08
2.14115e-09
5.05892e-08
1.97159e-09
4.95608e-08
1.82186e-09
4.86072e-08
1.68877e-09
4.77206e-08
1.56974e-09
4.68943e-08
1.46265e-09
4.61225e-08
1.36574e-09
4.54004e-08
1.27758e-09
4.47237e-08
1.19692e-09
4.40889e-08
1.12273e-09
4.34927e-08
1.05408e-09
4.29325e-08
9.90237e-10
4.2406e-08
9.30465e-10
4.19112e-08
8.74234e-10
4.14465e-08
8.20867e-10
4.10104e-08
7.70115e-10
4.0602e-08
7.21097e-10
4.02201e-08
6.74132e-10
3.98645e-08
6.27604e-10
3.9534e-08
5.83169e-10
3.92296e-08
5.3726e-10
3.89493e-08
4.94685e-10
3.86965e-08
4.47289e-10
3.84663e-08
4.06883e-10
3.82673e-08
3.55354e-10
3.80872e-08
3.18774e-10
3.7947e-08
2.60075e-10
3.78176e-08
2.25734e-10
3.77388e-08
1.74471e-10
3.77034e-08
1.58795e-11
3.76833e-08
3.62781e-10
-3.63157e-09
3.74975e-08
1.75611e-07
1.31179e-07
1.6562e-07
9.94237e-08
1.52728e-07
6.01941e-08
1.40114e-07
4.1002e-08
1.29429e-07
2.90767e-08
1.20786e-07
2.18765e-08
1.13672e-07
1.74472e-08
1.0769e-07
1.43661e-08
1.0259e-07
1.20579e-08
9.81895e-08
1.02895e-08
9.43475e-08
8.91063e-09
9.09587e-08
7.81162e-09
8.79432e-08
6.9173e-09
8.52396e-08
6.1772e-09
8.27997e-08
5.55627e-09
8.05851e-08
5.02918e-09
7.85649e-08
4.57714e-09
7.67135e-08
4.18593e-09
7.501e-08
3.84458e-09
7.34371e-08
3.54453e-09
7.198e-08
3.27898e-09
7.06263e-08
3.04248e-09
6.93654e-08
2.8306e-09
6.81884e-08
2.63969e-09
6.70874e-08
2.46673e-09
6.60558e-08
2.3092e-09
6.50878e-08
2.16495e-09
6.41783e-08
2.03217e-09
6.33231e-08
1.90928e-09
6.25184e-08
1.79492e-09
6.1761e-08
1.68787e-09
6.10481e-08
1.58713e-09
6.03774e-08
1.49158e-09
5.97469e-08
1.40068e-09
5.9155e-08
1.31299e-09
5.86002e-08
1.22889e-09
5.80821e-08
1.14572e-09
5.75991e-08
1.06613e-09
5.71524e-08
9.8398e-10
5.67394e-08
9.07674e-10
5.63644e-08
8.22301e-10
5.60212e-08
7.5005e-10
5.57213e-08
6.55277e-10
5.54486e-08
5.91493e-10
5.52308e-08
4.77895e-10
5.5031e-08
4.25546e-10
5.49014e-08
3.04029e-10
5.4814e-08
1.03316e-10
5.48256e-08
3.512e-10
-3.24986e-09
5.44438e-08
1.8451e-07
1.23455e-07
1.82338e-07
1.01595e-07
1.76115e-07
6.64175e-08
1.67753e-07
4.93643e-08
1.59128e-07
3.77011e-08
1.51218e-07
2.97862e-08
1.44143e-07
2.45226e-08
1.37842e-07
2.06673e-08
1.32242e-07
1.76581e-08
1.27258e-07
1.52732e-08
1.22805e-07
1.33639e-08
1.18805e-07
1.18113e-08
1.15194e-07
1.05279e-08
1.11919e-07
9.45252e-09
1.08934e-07
8.54095e-09
1.06203e-07
7.76046e-09
1.03694e-07
7.08622e-09
1.01381e-07
6.49906e-09
9.92414e-08
5.98398e-09
9.72568e-08
5.5291e-09
9.54109e-08
5.12489e-09
9.36898e-08
4.76362e-09
9.20814e-08
4.43894e-09
9.05755e-08
4.1456e-09
8.9163e-08
3.87921e-09
8.78362e-08
3.63607e-09
8.65881e-08
3.41305e-09
8.54128e-08
3.20744e-09
8.43052e-08
3.01691e-09
8.32606e-08
2.83944e-09
8.22753e-08
2.6732e-09
8.13457e-08
2.51669e-09
8.04691e-08
2.36825e-09
7.96428e-08
2.22698e-09
7.88649e-08
2.09082e-09
7.81337e-08
1.96018e-09
7.74482e-08
1.83122e-09
7.68067e-08
1.70761e-09
7.62101e-08
1.58051e-09
7.56559e-08
1.46188e-09
7.51483e-08
1.32999e-09
7.46811e-08
1.21725e-09
7.42656e-08
1.07075e-09
7.38869e-08
9.70209e-10
7.35703e-08
7.94415e-10
7.32861e-08
7.09818e-10
7.30736e-08
5.16542e-10
7.29232e-08
2.53651e-10
7.28746e-08
3.99813e-10
-2.80753e-09
7.24323e-08
1.90342e-07
1.1533e-07
1.91857e-07
1.0008e-07
1.90258e-07
6.80169e-08
1.86148e-07
5.34737e-08
1.80704e-07
4.31449e-08
1.74948e-07
3.55429e-08
1.69247e-07
3.02233e-08
1.6376e-07
2.61544e-08
1.58584e-07
2.28342e-08
1.5376e-07
2.00966e-08
1.49292e-07
1.78322e-08
1.45162e-07
1.59411e-08
1.41347e-07
1.43436e-08
1.37819e-07
1.29805e-08
1.34552e-07
1.18074e-08
1.31523e-07
1.079e-08
1.28708e-07
9.90132e-09
1.26087e-07
9.12006e-09
1.23642e-07
8.42904e-09
1.21356e-07
7.81438e-09
1.19216e-07
7.26473e-09
1.17209e-07
6.7707e-09
1.15324e-07
6.32452e-09
1.1355e-07
5.91964e-09
1.11878e-07
5.55052e-09
1.10302e-07
5.21246e-09
1.08814e-07
4.90143e-09
1.07407e-07
4.61392e-09
1.06077e-07
4.34691e-09
1.04819e-07
4.0977e-09
1.03628e-07
3.8639e-09
1.02501e-07
3.64349e-09
1.01435e-07
3.43427e-09
1.00427e-07
3.23499e-09
9.94752e-08
3.04296e-09
9.85769e-08
2.85853e-09
9.77313e-08
2.67682e-09
9.69367e-08
2.50223e-09
9.61936e-08
2.32358e-09
9.54997e-08
2.15574e-09
9.48585e-08
1.97125e-09
9.42651e-08
1.81063e-09
9.37283e-08
1.60752e-09
9.32379e-08
1.46061e-09
9.28107e-08
1.22168e-09
9.24327e-08
1.08778e-09
9.21177e-08
8.31506e-10
9.18872e-08
4.84193e-10
9.17455e-08
5.41511e-10
-2.28137e-09
9.12193e-08
1.95504e-07
1.07641e-07
1.98245e-07
9.73383e-08
1.98981e-07
6.72808e-08
1.97783e-07
5.46717e-08
1.95144e-07
4.57841e-08
1.91799e-07
3.8888e-08
1.88062e-07
3.39605e-08
1.84106e-07
3.011e-08
1.80083e-07
2.68575e-08
1.76102e-07
2.40772e-08
1.72232e-07
2.17023e-08
1.68511e-07
1.96624e-08
1.64959e-07
1.7896e-08
1.61583e-07
1.63559e-08
1.58385e-07
1.50054e-08
1.5536e-07
1.38147e-08
1.52502e-07
1.27598e-08
1.49801e-07
1.18207e-08
1.4725e-07
1.09807e-08
1.44838e-07
1.02263e-08
1.42557e-07
9.54568e-09
1.40398e-07
8.9292e-09
1.38354e-07
8.36855e-09
1.36417e-07
7.8566e-09
1.34581e-07
7.38727e-09
1.32838e-07
6.95526e-09
1.31183e-07
6.55599e-09
1.29612e-07
6.18543e-09
1.28119e-07
5.84004e-09
1.267e-07
5.51666e-09
1.25351e-07
5.21245e-09
1.2407e-07
4.92495e-09
1.22852e-07
4.65155e-09
1.21697e-07
4.39065e-09
1.20601e-07
4.13905e-09
1.19562e-07
3.89698e-09
1.1858e-07
3.65872e-09
1.17653e-07
3.42913e-09
1.16782e-07
3.19526e-09
1.15963e-07
2.97385e-09
1.15201e-07
2.73358e-09
1.14492e-07
2.51984e-09
1.13841e-07
2.25853e-09
1.13244e-07
2.05734e-09
1.12708e-07
1.75814e-09
1.12235e-07
1.56064e-09
1.11816e-07
1.2507e-09
1.1149e-07
8.09808e-10
1.1125e-07
7.81514e-10
-1.66255e-09
1.10631e-07
2.00819e-07
1.00407e-07
2.0377e-07
9.43874e-08
2.05341e-07
6.57096e-08
2.05639e-07
5.4374e-08
2.04804e-07
4.66192e-08
2.03319e-07
4.03729e-08
2.01365e-07
3.59143e-08
1.99028e-07
3.24468e-08
1.96416e-07
2.94696e-08
1.93631e-07
2.68617e-08
1.90755e-07
2.45784e-08
1.87848e-07
2.257e-08
1.84953e-07
2.07909e-08
1.82102e-07
1.92065e-08
1.79318e-07
1.77897e-08
1.76614e-07
1.65183e-08
1.74e-07
1.53737e-08
1.71481e-07
1.43398e-08
1.69059e-07
1.3403e-08
1.66734e-07
1.25515e-08
1.64504e-07
1.17752e-08
1.62368e-07
1.10652e-08
1.60323e-07
1.04137e-08
1.58365e-07
9.8141e-09
1.56492e-07
9.2604e-09
1.547e-07
8.74735e-09
1.52986e-07
8.27032e-09
1.51346e-07
7.82516e-09
1.49778e-07
7.40816e-09
1.48279e-07
7.01598e-09
1.46846e-07
6.64554e-09
1.45476e-07
6.29417e-09
1.44169e-07
5.95898e-09
1.42921e-07
5.63818e-09
1.41732e-07
5.32819e-09
1.406e-07
5.02912e-09
1.39524e-07
4.73469e-09
1.38503e-07
4.44993e-09
1.37538e-07
4.16084e-09
1.36627e-07
3.88493e-09
1.35771e-07
3.58908e-09
1.34971e-07
3.32015e-09
1.34227e-07
3.00211e-09
1.33543e-07
2.74219e-09
1.32913e-07
2.38742e-09
1.32355e-07
2.1184e-09
1.31845e-07
1.76105e-09
1.31424e-07
1.2313e-09
1.31089e-07
1.1158e-09
-9.66734e-10
1.30394e-07
2.06422e-07
9.35166e-08
2.09329e-07
9.14801e-08
2.11052e-07
6.39869e-08
2.11929e-07
5.34967e-08
2.11988e-07
4.65605e-08
2.11597e-07
4.07634e-08
2.10862e-07
3.66502e-08
2.09784e-07
3.35247e-08
2.08403e-07
3.08501e-08
2.06779e-07
2.84858e-08
2.04967e-07
2.63902e-08
2.03017e-07
2.45203e-08
2.0097e-07
2.28374e-08
1.98863e-07
2.13135e-08
1.96725e-07
1.99281e-08
1.94578e-07
1.86649e-08
1.92442e-07
1.75101e-08
1.9033e-07
1.6452e-08
1.88252e-07
1.54804e-08
1.86218e-07
1.45861e-08
1.84232e-07
1.37613e-08
1.82298e-07
1.29988e-08
1.80419e-07
1.22923e-08
1.78598e-07
1.16359e-08
1.76833e-07
1.10247e-08
1.75127e-07
1.04539e-08
1.73478e-07
9.91925e-09
1.71886e-07
9.41696e-09
1.70351e-07
8.94352e-09
1.68871e-07
8.49568e-09
1.67446e-07
8.07043e-09
1.66075e-07
7.6651e-09
1.64757e-07
7.27675e-09
1.63492e-07
6.90352e-09
1.62279e-07
6.54169e-09
1.61116e-07
6.19131e-09
1.60005e-07
5.84579e-09
1.58945e-07
5.51014e-09
1.57936e-07
5.16997e-09
1.56978e-07
4.84267e-09
1.56072e-07
4.49509e-09
1.5522e-07
4.17275e-09
1.54419e-07
3.8025e-09
1.53678e-07
3.48383e-09
1.52985e-07
3.07956e-09
1.52366e-07
2.73818e-09
1.51789e-07
2.33781e-09
1.51287e-07
1.73299e-09
1.50872e-07
1.5308e-09
-2.2012e-10
1.50126e-07
2.12268e-07
8.69107e-08
2.15138e-07
8.86104e-08
2.16807e-07
6.23182e-08
2.17844e-07
5.24598e-08
2.18248e-07
4.61565e-08
2.18359e-07
4.06519e-08
2.18277e-07
3.67326e-08
2.17969e-07
3.38322e-08
2.17431e-07
3.13882e-08
2.16682e-07
2.92352e-08
2.15746e-07
2.73265e-08
2.14648e-07
2.56183e-08
2.13414e-07
2.40713e-08
2.12069e-07
2.26581e-08
2.10637e-07
2.136e-08
2.09139e-07
2.01629e-08
2.07593e-07
1.90559e-08
2.06016e-07
1.80296e-08
2.0442e-07
1.70762e-08
2.02817e-07
1.61887e-08
2.01217e-07
1.53613e-08
1.99628e-07
1.45884e-08
1.98055e-07
1.3865e-08
1.96504e-07
1.31868e-08
1.9498e-07
1.25495e-08
1.93484e-07
1.19493e-08
1.92021e-07
1.13827e-08
1.90591e-07
1.08463e-08
1.89198e-07
1.03372e-08
1.87841e-07
9.85245e-09
1.86522e-07
9.38926e-09
1.85242e-07
8.94518e-09
1.84001e-07
8.51739e-09
1.82801e-07
8.10416e-09
1.81641e-07
7.70176e-09
1.80522e-07
7.31026e-09
1.79444e-07
6.92305e-09
1.7841e-07
6.54498e-09
1.77418e-07
6.16184e-09
1.7647e-07
5.79019e-09
1.75567e-07
5.39828e-09
1.74711e-07
5.02828e-09
1.73901e-07
4.61323e-09
1.73144e-07
4.24032e-09
1.7243e-07
3.79421e-09
1.71782e-07
3.38588e-09
1.71173e-07
2.94702e-09
1.7062e-07
2.28591e-09
1.70148e-07
2.00242e-09
5.456e-10
1.69382e-07
2.18314e-07
8.05773e-08
2.21187e-07
8.57372e-08
2.22779e-07
6.07263e-08
2.23844e-07
5.13946e-08
2.24357e-07
4.56441e-08
2.24646e-07
4.03628e-08
2.2484e-07
3.65388e-08
2.2491e-07
3.37617e-08
2.24837e-07
3.14612e-08
2.24622e-07
2.94507e-08
2.24268e-07
2.76798e-08
2.23784e-07
2.61029e-08
2.23177e-07
2.46782e-08
2.22459e-07
2.33759e-08
2.21643e-07
2.21762e-08
2.20741e-07
2.10648e-08
2.19766e-07
2.00307e-08
2.1873e-07
1.90652e-08
2.17645e-07
1.81612e-08
2.16521e-07
1.7313e-08
2.15367e-07
1.65153e-08
2.14192e-07
1.57639e-08
2.13002e-07
1.50547e-08
2.11805e-07
1.43842e-08
2.10605e-07
1.37489e-08
2.09408e-07
1.31459e-08
2.08219e-07
1.25722e-08
2.0704e-07
1.20252e-08
2.05875e-07
1.15021e-08
2.04727e-07
1.10006e-08
2.03598e-07
1.05183e-08
2.0249e-07
1.00529e-08
2.01406e-07
9.60193e-09
2.00346e-07
9.16376e-09
1.99313e-07
8.73482e-09
1.98308e-07
8.31528e-09
1.97332e-07
7.89866e-09
1.96388e-07
7.48959e-09
1.95475e-07
7.07442e-09
1.94597e-07
6.66849e-09
1.93753e-07
6.24239e-09
1.92947e-07
5.83366e-09
1.92177e-07
5.38362e-09
1.91453e-07
4.96471e-09
1.90761e-07
4.48595e-09
1.90126e-07
4.02091e-09
1.89523e-07
3.54941e-09
1.88956e-07
2.85285e-09
1.8846e-07
2.49852e-09
1.29573e-09
1.8771e-07
2.24548e-07
7.45228e-08
2.27447e-07
8.28379e-08
2.28975e-07
5.91985e-08
2.30047e-07
5.03225e-08
2.306e-07
4.50913e-08
2.30937e-07
4.00254e-08
2.31221e-07
3.62554e-08
2.31439e-07
3.35433e-08
2.31574e-07
3.13258e-08
2.31626e-07
2.93995e-08
2.31592e-07
2.77131e-08
2.31473e-07
2.62222e-08
2.31268e-07
2.48837e-08
2.30977e-07
2.36659e-08
2.30607e-07
2.25472e-08
2.30159e-07
2.15119e-08
2.29642e-07
2.05481e-08
2.29061e-07
1.96466e-08
2.28422e-07
1.88001e-08
2.27732e-07
1.80025e-08
2.26999e-07
1.72489e-08
2.26227e-07
1.65352e-08
2.25424e-07
1.58577e-08
2.24596e-07
1.52131e-08
2.23746e-07
1.45987e-08
2.2288e-07
1.40117e-08
2.22002e-07
1.34497e-08
2.21117e-07
1.29102e-08
2.20228e-07
1.23911e-08
2.19339e-07
1.18902e-08
2.18452e-07
1.14054e-08
2.1757e-07
1.09348e-08
2.16696e-07
1.04759e-08
2.15832e-07
1.00275e-08
2.14981e-07
9.58605e-09
2.14144e-07
9.15189e-09
2.13324e-07
8.71876e-09
2.12523e-07
8.29099e-09
2.11741e-07
7.8558e-09
2.10983e-07
7.42695e-09
2.10247e-07
6.97805e-09
2.0954e-07
6.54127e-09
2.08856e-07
6.06725e-09
2.08208e-07
5.61297e-09
2.07582e-07
5.1116e-09
2.07e-07
4.60318e-09
2.06443e-07
4.10626e-09
2.05901e-07
3.39485e-09
2.05415e-07
2.9841e-09
1.99618e-09
2.04715e-07
2.30974e-07
6.87552e-08
2.33908e-07
7.99037e-08
2.35379e-07
5.77277e-08
2.36459e-07
4.92421e-08
2.37044e-07
4.45058e-08
2.37397e-07
3.96732e-08
2.37701e-07
3.59505e-08
2.37966e-07
3.32791e-08
2.38176e-07
3.1115e-08
2.38337e-07
2.92394e-08
2.38448e-07
2.76012e-08
2.3851e-07
2.61601e-08
2.3852e-07
2.4874e-08
2.38476e-07
2.37102e-08
2.38377e-07
2.26461e-08
2.38224e-07
2.16653e-08
2.38017e-07
2.07551e-08
2.37758e-07
1.99053e-08
2.3745e-07
1.91079e-08
2.37096e-07
1.83566e-08
2.36699e-07
1.7646e-08
2.36262e-07
1.69717e-08
2.3579e-07
1.633e-08
2.35286e-07
1.57176e-08
2.34753e-07
1.51316e-08
2.34195e-07
1.45694e-08
2.33616e-07
1.40288e-08
2.33019e-07
1.35074e-08
2.32407e-07
1.30032e-08
2.31783e-07
1.25143e-08
2.31149e-07
1.20385e-08
2.3051e-07
1.15742e-08
2.29867e-07
1.11191e-08
2.29222e-07
1.0672e-08
2.28579e-07
1.02295e-08
2.27939e-07
9.79205e-09
2.27304e-07
9.35361e-09
2.26677e-07
8.91814e-09
2.26059e-07
8.4739e-09
2.25453e-07
8.03285e-09
2.24859e-07
7.572e-09
2.24282e-07
7.11779e-09
2.23719e-07
6.63048e-09
2.2318e-07
6.15211e-09
2.22654e-07
5.6379e-09
2.22156e-07
5.10043e-09
2.21677e-07
4.58605e-09
2.21193e-07
3.87822e-09
2.2075e-07
3.42761e-09
2.61821e-09
2.20128e-07
2.376e-07
6.328e-08
2.40573e-07
7.69303e-08
2.41987e-07
5.63142e-08
2.43074e-07
4.81547e-08
2.43696e-07
4.38838e-08
2.44061e-07
3.93082e-08
2.44371e-07
3.56403e-08
2.44648e-07
3.30026e-08
2.44881e-07
3.08817e-08
2.45078e-07
2.90429e-08
2.45244e-07
2.74352e-08
2.4538e-07
2.60233e-08
2.45487e-07
2.47674e-08
2.45562e-07
2.36352e-08
2.45604e-07
2.2604e-08
2.45612e-07
2.16572e-08
2.45586e-07
2.07817e-08
2.45524e-07
1.99671e-08
2.45427e-07
1.92049e-08
2.45295e-07
1.84881e-08
2.4513e-07
1.78111e-08
2.44933e-07
1.71691e-08
2.44705e-07
1.65582e-08
2.44447e-07
1.59749e-08
2.44163e-07
1.5416e-08
2.43853e-07
1.4879e-08
2.43521e-07
1.43614e-08
2.43167e-07
1.3861e-08
2.42795e-07
1.33755e-08
2.42406e-07
1.29032e-08
2.42002e-07
1.24419e-08
2.41587e-07
1.199e-08
2.4116e-07
1.15452e-08
2.40726e-07
1.11063e-08
2.40285e-07
1.06702e-08
2.3984e-07
1.0237e-08
2.39393e-07
9.80115e-09
2.38945e-07
9.36604e-09
2.38498e-07
8.92109e-09
2.38054e-07
8.4763e-09
2.37614e-07
8.01224e-09
2.37182e-07
7.54963e-09
2.36755e-07
7.05796e-09
2.36341e-07
6.56576e-09
2.35932e-07
6.04704e-09
2.35539e-07
5.49394e-09
2.35155e-07
4.96983e-09
2.34753e-07
4.28028e-09
2.34374e-07
3.80648e-09
3.143e-09
2.33849e-07
2.44435e-07
5.81012e-08
2.47447e-07
7.39185e-08
2.48805e-07
5.49561e-08
2.49895e-07
4.70647e-08
2.50555e-07
4.32237e-08
2.50936e-07
3.8927e-08
2.51251e-07
3.53259e-08
2.51533e-07
3.27208e-08
2.51773e-07
3.0641e-08
2.5198e-07
2.88358e-08
2.52163e-07
2.72524e-08
2.52326e-07
2.58609e-08
2.52469e-07
2.46244e-08
2.52592e-07
2.35114e-08
2.52697e-07
2.24999e-08
2.5278e-07
2.15733e-08
2.52843e-07
2.07188e-08
2.52885e-07
1.99258e-08
2.52904e-07
1.91857e-08
2.52901e-07
1.84915e-08
2.52874e-07
1.78373e-08
2.52825e-07
1.7218e-08
2.52754e-07
1.66295e-08
2.52661e-07
1.6068e-08
2.52547e-07
1.55305e-08
2.52412e-07
1.50139e-08
2.52257e-07
1.45159e-08
2.52084e-07
1.40339e-08
2.51894e-07
1.35658e-08
2.51688e-07
1.31096e-08
2.51466e-07
1.26632e-08
2.51232e-07
1.22248e-08
2.50985e-07
1.17922e-08
2.50727e-07
1.13641e-08
2.5046e-07
1.09374e-08
2.50185e-07
1.05121e-08
2.49903e-07
1.0083e-08
2.49616e-07
9.65277e-09
2.49325e-07
9.21215e-09
2.49032e-07
8.76908e-09
2.48737e-07
8.3076e-09
2.48443e-07
7.84308e-09
2.48148e-07
7.35331e-09
2.47858e-07
6.85541e-09
2.47567e-07
6.33825e-09
2.4728e-07
5.78061e-09
2.46997e-07
5.25337e-09
2.46685e-07
4.59217e-09
2.46381e-07
4.11016e-09
3.56409e-09
2.4596e-07
2.51487e-07
5.32205e-08
2.54527e-07
7.08785e-08
2.55841e-07
5.36426e-08
2.56928e-07
4.59775e-08
2.57626e-07
4.2526e-08
2.58026e-07
3.85267e-08
2.58346e-07
3.50059e-08
2.58633e-07
3.24338e-08
2.58879e-07
3.03954e-08
2.5909e-07
2.86245e-08
2.59278e-07
2.70645e-08
2.59448e-07
2.56908e-08
2.59603e-07
2.44697e-08
2.59743e-07
2.33709e-08
2.5987e-07
2.23727e-08
2.59984e-07
2.14591e-08
2.60086e-07
2.06176e-08
2.60173e-07
1.98379e-08
2.60248e-07
1.91115e-08
2.60308e-07
1.84312e-08
2.60354e-07
1.77912e-08
2.60385e-07
1.71864e-08
2.60402e-07
1.66125e-08
2.60405e-07
1.60658e-08
2.60392e-07
1.55428e-08
2.60365e-07
1.50408e-08
2.60324e-07
1.45569e-08
2.60269e-07
1.40888e-08
2.60201e-07
1.36342e-08
2.6012e-07
1.31909e-08
2.60026e-07
1.27568e-08
2.59921e-07
1.233e-08
2.59805e-07
1.19083e-08
2.59679e-07
1.14904e-08
2.59543e-07
1.1073e-08
2.59399e-07
1.06561e-08
2.59247e-07
1.02348e-08
2.59089e-07
9.81101e-09
2.58924e-07
9.37677e-09
2.58755e-07
8.93799e-09
2.58581e-07
8.48203e-09
2.58405e-07
8.0194e-09
2.58223e-07
7.53504e-09
2.58041e-07
7.03704e-09
2.57854e-07
6.52507e-09
2.57664e-07
5.97091e-09
2.57472e-07
5.44556e-09
2.57246e-07
4.81818e-09
2.57016e-07
4.33983e-09
3.88682e-09
2.56694e-07
2.58765e-07
4.86385e-08
2.61823e-07
6.78207e-08
2.63103e-07
5.23626e-08
2.64182e-07
4.48981e-08
2.64915e-07
4.17933e-08
2.65336e-07
3.81054e-08
2.65663e-07
3.46794e-08
2.65955e-07
3.21415e-08
2.66206e-07
3.01446e-08
2.66421e-07
2.84096e-08
2.66612e-07
2.68739e-08
2.66784e-07
2.55179e-08
2.66943e-07
2.43114e-08
2.67088e-07
2.32252e-08
2.67223e-07
2.22381e-08
2.67347e-07
2.13347e-08
2.67462e-07
2.05027e-08
2.67568e-07
1.97322e-08
2.67665e-07
1.90149e-08
2.67752e-07
1.83436e-08
2.67831e-07
1.77127e-08
2.679e-07
1.71171e-08
2.6796e-07
1.65524e-08
2.68011e-07
1.6015e-08
2.68052e-07
1.55015e-08
2.68084e-07
1.50088e-08
2.68107e-07
1.45344e-08
2.6812e-07
1.40757e-08
2.68124e-07
1.36303e-08
2.68118e-07
1.31962e-08
2.68104e-07
1.2771e-08
2.68081e-07
1.23529e-08
2.6805e-07
1.19396e-08
2.68011e-07
1.15296e-08
2.67964e-07
1.11199e-08
2.6791e-07
1.07101e-08
2.67849e-07
1.02956e-08
2.67782e-07
9.87789e-09
2.67709e-07
9.45e-09
2.67631e-07
9.01606e-09
2.67547e-07
8.56634e-09
2.67459e-07
8.10729e-09
2.67364e-07
7.62961e-09
2.67267e-07
7.13478e-09
2.67162e-07
6.62959e-09
2.67049e-07
6.08393e-09
2.66931e-07
5.56389e-09
2.66777e-07
4.97184e-09
2.66611e-07
4.5054e-09
4.12493e-09
2.66373e-07
2.66277e-07
4.43537e-08
2.69342e-07
6.4756e-08
2.70599e-07
5.11054e-08
2.71666e-07
4.38308e-08
2.72431e-07
4.10284e-08
2.72875e-07
3.76614e-08
2.73209e-07
3.43456e-08
2.73507e-07
3.18436e-08
2.73763e-07
2.98881e-08
2.73982e-07
2.81906e-08
2.74175e-07
2.66807e-08
2.7435e-07
2.5343e-08
2.7451e-07
2.41513e-08
2.74658e-07
2.30776e-08
2.74795e-07
2.21012e-08
2.74922e-07
2.12071e-08
2.75042e-07
2.03835e-08
2.75153e-07
1.96206e-08
2.75258e-07
1.89104e-08
2.75355e-07
1.8246e-08
2.75446e-07
1.76216e-08
2.75531e-07
1.70324e-08
2.7561e-07
1.6474e-08
2.75682e-07
1.59428e-08
2.75748e-07
1.54355e-08
2.75808e-07
1.4949e-08
2.75861e-07
1.44807e-08
2.75909e-07
1.40281e-08
2.7595e-07
1.35889e-08
2.75986e-07
1.31608e-08
2.76015e-07
1.27416e-08
2.76039e-07
1.23294e-08
2.76056e-07
1.19219e-08
2.76068e-07
1.15175e-08
2.76075e-07
1.11134e-08
2.76076e-07
1.07088e-08
2.76072e-07
1.02997e-08
2.76063e-07
9.88676e-09
2.76049e-07
9.46423e-09
2.76031e-07
9.03456e-09
2.76006e-07
8.59058e-09
2.75978e-07
8.13547e-09
2.75943e-07
7.66431e-09
2.75904e-07
7.17425e-09
2.75857e-07
6.67609e-09
2.758e-07
6.14152e-09
2.75735e-07
5.62888e-09
2.75636e-07
5.07084e-09
2.7552e-07
4.62111e-09
4.29603e-09
2.75349e-07
2.74032e-07
4.03632e-08
2.77093e-07
6.1695e-08
2.78337e-07
4.98608e-08
2.79389e-07
4.27793e-08
2.80182e-07
4.02352e-08
2.8065e-07
3.71932e-08
2.80992e-07
3.40036e-08
2.81295e-07
3.15403e-08
2.81558e-07
2.96258e-08
2.81781e-07
2.79673e-08
2.81977e-07
2.64846e-08
2.82154e-07
2.51661e-08
2.82316e-07
2.39895e-08
2.82465e-07
2.29287e-08
2.82603e-07
2.19631e-08
2.82732e-07
2.10783e-08
2.82852e-07
2.02628e-08
2.82966e-07
1.95073e-08
2.83072e-07
1.88036e-08
2.83173e-07
1.81453e-08
2.83268e-07
1.75265e-08
2.83358e-07
1.69425e-08
2.83443e-07
1.6389e-08
2.83524e-07
1.58625e-08
2.83599e-07
1.53597e-08
2.83671e-07
1.48777e-08
2.83738e-07
1.44137e-08
2.838e-07
1.39653e-08
2.83859e-07
1.35302e-08
2.83914e-07
1.31062e-08
2.83964e-07
1.2691e-08
2.84011e-07
1.22828e-08
2.84053e-07
1.18792e-08
2.84092e-07
1.14787e-08
2.84127e-07
1.10784e-08
2.84158e-07
1.06775e-08
2.84186e-07
1.02723e-08
2.8421e-07
9.86285e-09
2.84229e-07
9.44447e-09
2.84246e-07
9.01823e-09
2.84257e-07
8.57904e-09
2.84265e-07
8.12766e-09
2.84267e-07
7.66227e-09
2.84264e-07
7.17758e-09
2.84254e-07
6.68607e-09
2.84232e-07
6.16352e-09
2.84201e-07
5.65946e-09
2.8414e-07
5.13243e-09
2.84059e-07
4.70142e-09
4.41739e-09
2.83938e-07
2.82039e-07
3.66621e-08
2.85085e-07
5.8649e-08
2.86326e-07
4.86194e-08
2.87359e-07
4.17464e-08
2.88176e-07
3.94182e-08
2.8867e-07
3.66996e-08
2.89021e-07
3.36524e-08
2.89329e-07
3.12317e-08
2.89598e-07
2.93575e-08
2.89826e-07
2.77392e-08
2.90025e-07
2.62853e-08
2.90204e-07
2.49868e-08
2.90368e-07
2.3826e-08
2.90518e-07
2.27783e-08
2.90657e-07
2.1824e-08
2.90787e-07
2.09487e-08
2.90908e-07
2.01415e-08
2.91022e-07
1.93933e-08
2.9113e-07
1.86962e-08
2.91231e-07
1.80437e-08
2.91328e-07
1.74302e-08
2.91419e-07
1.6851e-08
2.91506e-07
1.63021e-08
2.91589e-07
1.57798e-08
2.91668e-07
1.52808e-08
2.91743e-07
1.48024e-08
2.91815e-07
1.43419e-08
2.91883e-07
1.38968e-08
2.91949e-07
1.34648e-08
2.92011e-07
1.30439e-08
2.9207e-07
1.26317e-08
2.92127e-07
1.22264e-08
2.92181e-07
1.18256e-08
2.92231e-07
1.14278e-08
2.9228e-07
1.10302e-08
2.92325e-07
1.06319e-08
2.92368e-07
1.02295e-08
2.92408e-07
9.82263e-09
2.92445e-07
9.40745e-09
2.9248e-07
8.98395e-09
2.9251e-07
8.54867e-09
2.92537e-07
8.10069e-09
2.92559e-07
7.64025e-09
2.92575e-07
7.16108e-09
2.92586e-07
6.67572e-09
2.92584e-07
6.16515e-09
2.92573e-07
5.67032e-09
2.92535e-07
5.17053e-09
2.92478e-07
4.7582e-09
4.50334e-09
2.92392e-07
2.90307e-07
3.32441e-08
2.93327e-07
5.56289e-08
2.94574e-07
4.73722e-08
2.95586e-07
4.07342e-08
2.96422e-07
3.85822e-08
2.96942e-07
3.61794e-08
2.97304e-07
3.32907e-08
2.97618e-07
3.09178e-08
2.97892e-07
2.90833e-08
2.98125e-07
2.7506e-08
2.98328e-07
2.60826e-08
2.9851e-07
2.4805e-08
2.98676e-07
2.36605e-08
2.98827e-07
2.26265e-08
2.98968e-07
2.16836e-08
2.99098e-07
2.08182e-08
2.9922e-07
2.00196e-08
2.99335e-07
1.92788e-08
2.99443e-07
1.85883e-08
2.99544e-07
1.79418e-08
2.99641e-07
1.73336e-08
2.99733e-07
1.67593e-08
2.9982e-07
1.62148e-08
2.99903e-07
1.56964e-08
2.99983e-07
1.52012e-08
3.00059e-07
1.47262e-08
3.00132e-07
1.42688e-08
3.00202e-07
1.38266e-08
3.0027e-07
1.33974e-08
3.00335e-07
1.29791e-08
3.00397e-07
1.25693e-08
3.00457e-07
1.21664e-08
3.00515e-07
1.17678e-08
3.0057e-07
1.13722e-08
3.00624e-07
1.09768e-08
3.00675e-07
1.05805e-08
3.00724e-07
1.01803e-08
3.00771e-07
9.7755e-09
3.00816e-07
9.3629e-09
3.00858e-07
8.94174e-09
3.00897e-07
8.50975e-09
3.00933e-07
8.06499e-09
3.00964e-07
7.60888e-09
3.0099e-07
7.13522e-09
3.0101e-07
6.65563e-09
3.01019e-07
6.15656e-09
3.01018e-07
5.67124e-09
3.00994e-07
5.19482e-09
3.00952e-07
4.79973e-09
4.56411e-09
3.00891e-07
2.98846e-07
3.01009e-08
3.01829e-07
5.26461e-08
3.03089e-07
4.61113e-08
3.0408e-07
3.9744e-08
3.04929e-07
3.77327e-08
3.05476e-07
3.56322e-08
3.0585e-07
3.2917e-08
3.06169e-07
3.05985e-08
3.0645e-07
2.88031e-08
3.06688e-07
2.72673e-08
3.06895e-07
2.5876e-08
3.07079e-07
2.46205e-08
3.07247e-07
2.34928e-08
3.07401e-07
2.24729e-08
3.07542e-07
2.1542e-08
3.07674e-07
2.06867e-08
3.07796e-07
1.98968e-08
3.07911e-07
1.91638e-08
3.0802e-07
1.84801e-08
3.08122e-07
1.78396e-08
3.08218e-07
1.7237e-08
3.0831e-07
1.66676e-08
3.08398e-07
1.61274e-08
3.08481e-07
1.56131e-08
3.0856e-07
1.51216e-08
3.08637e-07
1.46499e-08
3.0871e-07
1.41956e-08
3.0878e-07
1.37563e-08
3.08848e-07
1.33298e-08
3.08913e-07
1.29138e-08
3.08976e-07
1.25064e-08
3.09037e-07
1.21056e-08
3.09096e-07
1.17091e-08
3.09152e-07
1.13153e-08
3.09207e-07
1.09219e-08
3.0926e-07
1.05273e-08
3.09312e-07
1.01292e-08
3.09361e-07
9.72615e-09
3.09408e-07
9.31582e-09
3.09453e-07
8.89685e-09
3.09495e-07
8.4678e-09
3.09534e-07
8.0262e-09
3.09569e-07
7.57405e-09
3.09598e-07
7.10587e-09
3.09622e-07
6.6319e-09
3.09635e-07
6.14364e-09
3.09638e-07
5.66791e-09
3.09622e-07
5.21112e-09
3.0959e-07
4.83098e-09
4.60629e-09
3.09548e-07
3.07665e-07
2.72228e-08
3.106e-07
4.97117e-08
3.11881e-07
4.483e-08
3.12849e-07
3.87763e-08
3.13707e-07
3.68748e-08
3.14281e-07
3.5058e-08
3.14668e-07
3.25298e-08
3.14993e-07
3.02738e-08
3.15279e-07
2.8517e-08
3.15523e-07
2.7023e-08
3.15734e-07
2.56653e-08
3.15921e-07
2.4433e-08
3.16091e-07
2.33228e-08
3.16247e-07
2.23174e-08
3.1639e-07
2.13988e-08
3.16523e-07
2.05541e-08
3.16646e-07
1.97732e-08
3.16762e-07
1.90481e-08
3.16871e-07
1.83714e-08
3.16973e-07
1.77372e-08
3.1707e-07
1.71401e-08
3.17162e-07
1.65757e-08
3.17249e-07
1.60401e-08
3.17332e-07
1.55299e-08
3.17412e-07
1.50421e-08
3.17488e-07
1.45738e-08
3.17561e-07
1.41227e-08
3.17631e-07
1.36862e-08
3.17698e-07
1.32623e-08
3.17763e-07
1.28489e-08
3.17826e-07
1.24437e-08
3.17887e-07
1.2045e-08
3.17945e-07
1.16505e-08
3.18002e-07
1.12586e-08
3.18057e-07
1.0867e-08
3.1811e-07
1.04742e-08
3.18161e-07
1.00779e-08
3.18211e-07
9.67663e-09
3.18258e-07
9.26846e-09
3.18303e-07
8.85168e-09
3.18346e-07
8.42541e-09
3.18385e-07
7.98704e-09
3.1842e-07
7.5387e-09
3.1845e-07
7.07596e-09
3.18474e-07
6.60759e-09
3.18489e-07
6.12937e-09
3.18494e-07
5.66311e-09
3.18482e-07
5.22255e-09
3.18459e-07
4.85454e-09
4.63377e-09
3.18431e-07
3.16775e-07
2.45985e-08
3.1965e-07
4.68369e-08
3.20958e-07
4.35227e-08
3.21903e-07
3.78306e-08
3.22764e-07
3.60136e-08
3.23365e-07
3.44577e-08
3.23767e-07
3.21276e-08
3.24098e-07
2.99432e-08
3.2439e-07
2.8225e-08
3.2464e-07
2.67728e-08
3.24855e-07
2.54501e-08
3.25046e-07
2.42423e-08
3.25218e-07
2.31502e-08
3.25376e-07
2.21598e-08
3.25521e-07
2.1254e-08
3.25655e-07
2.04201e-08
3.25779e-07
1.96486e-08
3.25896e-07
1.89316e-08
3.26005e-07
1.82621e-08
3.26108e-07
1.76343e-08
3.26205e-07
1.70429e-08
3.26297e-07
1.64837e-08
3.26385e-07
1.59528e-08
3.26468e-07
1.54468e-08
3.26547e-07
1.49628e-08
3.26623e-07
1.4498e-08
3.26696e-07
1.405e-08
3.26765e-07
1.36165e-08
3.26832e-07
1.31953e-08
3.26897e-07
1.27843e-08
3.26959e-07
1.23815e-08
3.27019e-07
1.19849e-08
3.27077e-07
1.15924e-08
3.27133e-07
1.12024e-08
3.27188e-07
1.08127e-08
3.2724e-07
1.04216e-08
3.27291e-07
1.00272e-08
3.2734e-07
9.62775e-09
3.27387e-07
9.22172e-09
3.27431e-07
8.80722e-09
3.27473e-07
8.3837e-09
3.27511e-07
7.94864e-09
3.27546e-07
7.5041e-09
3.27575e-07
7.04676e-09
3.27599e-07
6.58405e-09
3.27613e-07
6.11511e-09
3.27618e-07
5.65796e-09
3.2761e-07
5.23055e-09
3.27593e-07
4.87158e-09
4.64876e-09
3.27578e-07
3.26186e-07
2.22155e-08
3.2899e-07
4.40325e-08
3.30328e-07
4.21852e-08
3.31252e-07
3.69059e-08
3.32112e-07
3.51538e-08
3.32737e-07
3.38327e-08
3.33156e-07
3.17089e-08
3.33493e-07
2.96062e-08
3.3379e-07
2.79274e-08
3.34047e-07
2.65164e-08
3.34267e-07
2.52301e-08
3.34461e-07
2.40481e-08
3.34636e-07
2.29749e-08
3.34796e-07
2.19999e-08
3.34943e-07
2.11072e-08
3.35078e-07
2.02845e-08
3.35204e-07
1.95227e-08
3.35322e-07
1.88141e-08
3.35432e-07
1.81521e-08
3.35535e-07
1.75308e-08
3.35633e-07
1.69454e-08
3.35725e-07
1.63915e-08
3.35813e-07
1.58653e-08
3.35896e-07
1.53636e-08
3.35975e-07
1.48835e-08
3.36051e-07
1.44223e-08
3.36123e-07
1.39775e-08
3.36193e-07
1.3547e-08
3.36259e-07
1.31286e-08
3.36324e-07
1.27202e-08
3.36385e-07
1.23197e-08
3.36445e-07
1.19253e-08
3.36502e-07