/*--------------------------------*- C++ -*----------------------------------*\
  =========                 |
  \\      /  F ield         | OpenFOAM: The Open Source CFD Toolbox
   \\    /   O peration     | Website:  https://openfoam.org
    \\  /    A nd           | Version:  7
     \\/     M anipulation  |
\*---------------------------------------------------------------------------*/
FoamFile
{
    version     2.0;
    format      ascii;
    class       volVectorField;
    location    "0.42";
    object      U;
}
// * * * * * * * * * * * * * * * * * * * * * * * * * * * * * * * * * * * * * //

dimensions      [0 1 -1 0 0 0 0];

internalField   nonuniform List<vector> 
70000
(
(0.553411 0.0169783 0)
(0.251405 0.00340065 0)
(0.1659 0.000319216 0)
(0.132403 4.92327e-05 0)
(0.117285 4.4272e-05 0)
(0.107316 5.24279e-05 0)
(0.0993348 4.46188e-05 0)
(0.0928827 3.55353e-05 0)
(0.0876312 2.94922e-05 0)
(0.0832553 2.53508e-05 0)
(0.0795267 2.2187e-05 0)
(0.0762977 1.96517e-05 0)
(0.0734672 1.75849e-05 0)
(0.070961 1.58773e-05 0)
(0.068723 1.44481e-05 0)
(0.06671 1.32372e-05 0)
(0.0648877 1.21998e-05 0)
(0.063229 1.13029e-05 0)
(0.0617117 1.05204e-05 0)
(0.0603179 9.83293e-06 0)
(0.0590326 9.22438e-06 0)
(0.0578433 8.68254e-06 0)
(0.0567396 8.19708e-06 0)
(0.0557125 7.75993e-06 0)
(0.0547546 7.36362e-06 0)
(0.0538593 7.00356e-06 0)
(0.0530212 6.67326e-06 0)
(0.0522354 6.37072e-06 0)
(0.0514979 6.08987e-06 0)
(0.0508051 5.83123e-06 0)
(0.0501541 5.58759e-06 0)
(0.049542 5.36446e-06 0)
(0.048967 5.14966e-06 0)
(0.0484268 4.95783e-06 0)
(0.04792 4.76881e-06 0)
(0.0474453 4.60605e-06 0)
(0.0470009 4.45089e-06 0)
(0.0465878 4.31037e-06 0)
(0.0462007 4.22677e-06 0)
(0.0458483 4.06683e-06 0)
(0.0455114 4.18742e-06 0)
(0.0452243 3.81944e-06 0)
(0.0449216 4.59139e-06 0)
(0.0447201 3.25293e-06 0)
(0.0444069 6.21371e-06 0)
(0.0443613 9.74837e-07 0)
(0.0439052 1.13659e-05 0)
(0.0442378 -7.98858e-06 0)
(0.0434601 3.4166e-05 0)
(0.0413826 -0.00163768 0)
(0.884862 0.043494 0)
(0.65013 0.0201504 0)
(0.49393 0.00660641 0)
(0.403478 0.0027565 0)
(0.35474 0.00154959 0)
(0.323401 0.00113318 0)
(0.299482 0.000910642 0)
(0.280256 0.000745966 0)
(0.264528 0.000623224 0)
(0.251395 0.000532719 0)
(0.240203 0.000464015 0)
(0.230511 0.000409938 0)
(0.222015 0.000366231 0)
(0.214491 0.000330237 0)
(0.207771 0.000300152 0)
(0.201726 0.00027468 0)
(0.196253 0.000252869 0)
(0.19127 0.000234006 0)
(0.186713 0.000217545 0)
(0.182526 0.000203063 0)
(0.178665 0.000190229 0)
(0.175093 0.000178774 0)
(0.171778 0.000168483 0)
(0.168694 0.000159177 0)
(0.165818 0.00015071 0)
(0.163131 0.000142957 0)
(0.160616 0.000135811 0)
(0.158258 0.000129184 0)
(0.156047 0.000122992 0)
(0.15397 0.000117172 0)
(0.15202 0.000111649 0)
(0.150187 0.000106388 0)
(0.148467 0.000101304 0)
(0.146853 9.64046e-05 0)
(0.145341 9.15596e-05 0)
(0.143927 8.6861e-05 0)
(0.142607 8.20776e-05 0)
(0.141384 7.74608e-05 0)
(0.140245 7.25935e-05 0)
(0.139213 6.79726e-05 0)
(0.138239 6.29835e-05 0)
(0.137417 5.82167e-05 0)
(0.136575 5.34641e-05 0)
(0.136025 4.78188e-05 0)
(0.13521 4.51375e-05 0)
(0.135123 3.45801e-05 0)
(0.134016 4.34048e-05 0)
(0.134929 -1.42867e-05 0)
(0.13307 0.000224122 0)
(0.132428 -0.00274379 0)
(0.991209 0.0499569 0)
(0.890909 0.0305658 0)
(0.762445 0.0146146 0)
(0.656448 0.00797495 0)
(0.585305 0.00488348 0)
(0.535901 0.00347805 0)
(0.497979 0.00274151 0)
(0.467324 0.00224695 0)
(0.441989 0.00188308 0)
(0.420664 0.0016114 0)
(0.402397 0.00140396 0)
(0.386522 0.00124067 0)
(0.372563 0.00110876 0)
(0.36017 0.00100012 0)
(0.34908 0.000909268 0)
(0.339085 0.00083231 0)
(0.330022 0.000766378 0)
(0.321762 0.000709328 0)
(0.314198 0.000659521 0)
(0.307242 0.000615684 0)
(0.300822 0.000576815 0)
(0.294877 0.00054211 0)
(0.289357 0.000510918 0)
(0.284217 0.000482701 0)
(0.279422 0.000457015 0)
(0.274938 0.000433486 0)
(0.270739 0.000411791 0)
(0.266802 0.000391659 0)
(0.263106 0.000372843 0)
(0.259633 0.000355139 0)
(0.25637 0.000338339 0)
(0.253302 0.000322302 0)
(0.250419 0.000306806 0)
(0.247712 0.000291807 0)
(0.245174 0.000276974 0)
(0.242799 0.000262482 0)
(0.240579 0.000247686 0)
(0.238519 0.000233287 0)
(0.236599 0.000217858 0)
(0.234856 0.000203318 0)
(0.233217 0.000186516 0)
(0.231819 0.000171893 0)
(0.230417 0.000152967 0)
(0.229459 0.00013848 0)
(0.228156 0.000117288 0)
(0.227914 0.000100233 0)
(0.226293 8.77847e-05 0)
(0.22748 -9.0678e-06 0)
(0.224861 0.000276351 0)
(0.226519 -0.00278361 0)
(1.01554 0.0489554 0)
(1.00648 0.0357287 0)
(0.93585 0.0208258 0)
(0.851936 0.0135056 0)
(0.782118 0.00920476 0)
(0.726929 0.00678947 0)
(0.681804 0.00539253 0)
(0.644015 0.00445065 0)
(0.611978 0.00375555 0)
(0.584496 0.00322941 0)
(0.560631 0.00282303 0)
(0.539674 0.00250099 0)
(0.521097 0.0022397 0)
(0.504496 0.00202376 0)
(0.489558 0.00184262 0)
(0.476035 0.00168876 0)
(0.463725 0.00155665 0)
(0.452468 0.00144212 0)
(0.442129 0.00134195 0)
(0.432598 0.00125365 0)
(0.423782 0.00117527 0)
(0.415601 0.0011052 0)
(0.407991 0.00104216 0)
(0.400894 0.00098509 0)
(0.394261 0.000933106 0)
(0.388051 0.000885461 0)
(0.382228 0.000841518 0)
(0.376759 0.00080073 0)
(0.371619 0.000762613 0)
(0.366783 0.000726748 0)
(0.362232 0.000692734 0)
(0.357947 0.000660263 0)
(0.353914 0.000628923 0)
(0.350121 0.00059857 0)
(0.346557 0.000568603 0)
(0.343214 0.000539275 0)
(0.340082 0.000509367 0)
(0.337166 0.000480182 0)
(0.334442 0.000448823 0)
(0.331951 0.000419299 0)
(0.329612 0.000384519 0)
(0.32758 0.000355056 0)
(0.325576 0.000313911 0)
(0.324112 0.000286588 0)
(0.322298 0.000234527 0)
(0.321709 0.000210295 0)
(0.31966 0.000154867 0)
(0.320674 3.36908e-05 0)
(0.317709 0.000256416 0)
(0.320013 -0.00249962 0)
(1.01435 0.0461 0)
(1.04797 0.0373469 0)
(1.02454 0.0241956 0)
(0.974619 0.0175677 0)
(0.923381 0.0131191 0)
(0.876609 0.0102145 0)
(0.834408 0.00835317 0)
(0.796631 0.00702914 0)
(0.763052 0.00601726 0)
(0.733229 0.00522893 0)
(0.706645 0.00460647 0)
(0.682827 0.00410534 0)
(0.661378 0.003694 0)
(0.641964 0.0033509 0)
(0.62431 0.00306094 0)
(0.608186 0.00281311 0)
(0.5934 0.00259916 0)
(0.579791 0.00241284 0)
(0.567223 0.00224925 0)
(0.55558 0.00210458 0)
(0.544764 0.00197575 0)
(0.53469 0.00186031 0)
(0.525287 0.00175622 0)
(0.516489 0.00166181 0)
(0.508245 0.00157568 0)
(0.500505 0.00149663 0)
(0.493229 0.00142364 0)
(0.48638 0.00135584 0)
(0.479928 0.00129245 0)
(0.473845 0.00123279 0)
(0.468107 0.00117621 0)
(0.462693 0.00112221 0)
(0.457586 0.00107014 0)
(0.452769 0.00101971 0)
(0.448232 0.000970012 0)
(0.443964 0.00092135 0)
(0.439953 0.000871857 0)
(0.436202 0.000823471 0)
(0.432687 0.000771626 0)
(0.429447 0.000722649 0)
(0.426402 0.000664968 0)
(0.423704 0.000616048 0)
(0.421081 0.000546962 0)
(0.419033 0.000501921 0)
(0.416699 0.000412242 0)
(0.415585 0.000374394 0)
(0.413184 0.00026967 0)
(0.413601 0.000115037 0)
(0.410673 0.000260122 0)
(0.412203 -0.0021933 0)
(1.00941 0.0430499 0)
(1.05563 0.0371032 0)
(1.05865 0.0253388 0)
(1.03626 0.0197753 0)
(1.00704 0.0158104 0)
(0.975986 0.0129455 0)
(0.944417 0.0109726 0)
(0.913515 0.00948741 0)
(0.884138 0.00829435 0)
(0.856667 0.00732523 0)
(0.831179 0.00653441 0)
(0.807609 0.00588133 0)
(0.785836 0.00533446 0)
(0.765715 0.00487093 0)
(0.747101 0.00447399 0)
(0.729852 0.00413097 0)
(0.713839 0.0038321 0)
(0.698944 0.00356973 0)
(0.685063 0.00333779 0)
(0.6721 0.00313145 0)
(0.659972 0.00294677 0)
(0.648606 0.00278051 0)
(0.637937 0.00263 0)
(0.627905 0.00249302 0)
(0.618459 0.00236765 0)
(0.609555 0.0022523 0)
(0.601152 0.00214555 0)
(0.593214 0.0020462 0)
(0.585709 0.00195317 0)
(0.578611 0.00186551 0)
(0.571894 0.00178232 0)
(0.565536 0.00170287 0)
(0.559521 0.00162627 0)
(0.55383 0.00155207 0)
(0.548452 0.00147904 0)
(0.543374 0.0014075 0)
(0.538585 0.00133493 0)
(0.534086 0.00126384 0)
(0.529854 0.00118808 0)
(0.525924 0.00111605 0)
(0.522223 0.00103205 0)
(0.518885 0.000959664 0)
(0.515675 0.000859494 0)
(0.513022 0.000791312 0)
(0.510196 0.000662756 0)
(0.508459 0.000600637 0)
(0.505765 0.000452286 0)
(0.505355 0.000246365 0)
(0.50257 0.00032749 0)
(0.502924 -0.00184495 0)
(1.00635 0.0401822 0)
(1.0524 0.0361573 0)
(1.06603 0.0252638 0)
(1.05949 0.0205827 0)
(1.04682 0.0172405 0)
(1.03073 0.0146672 0)
(1.01179 0.0128348 0)
(0.991065 0.0114065 0)
(0.969624 0.0102065 0)
(0.948197 0.00918874 0)
(0.927228 0.00832705 0)
(0.906978 0.0075931 0)
(0.887593 0.00696233 0)
(0.869142 0.00641583 0)
(0.851641 0.00593906 0)
(0.835079 0.00552047 0)
(0.819424 0.00515075 0)
(0.804632 0.00482235 0)
(0.790658 0.00452906 0)
(0.777453 0.00426578 0)
(0.764969 0.00402826 0)
(0.753158 0.00381294 0)
(0.741977 0.00361681 0)
(0.731386 0.00343731 0)
(0.721346 0.00327224 0)
(0.711822 0.00311967 0)
(0.702782 0.00297796 0)
(0.694198 0.00284561 0)
(0.686043 0.00272132 0)
(0.678293 0.0026039 0)
(0.670927 0.00249226 0)
(0.663927 0.00238544 0)
(0.657276 0.00228234 0)
(0.650959 0.00218237 0)
(0.644964 0.00208398 0)
(0.639281 0.00198748 0)
(0.633899 0.0018898 0)
(0.628818 0.00179384 0)
(0.62402 0.00169215 0)
(0.61953 0.00159468 0)
(0.615293 0.00148261 0)
(0.611412 0.00138373 0)
(0.607705 0.00125161 0)
(0.604507 0.0011553 0)
(0.601257 0.000990148 0)
(0.598912 0.000893171 0)
(0.595963 0.0007099 0)
(0.594724 0.000441862 0)
(0.591988 0.000464714 0)
(0.591293 -0.00142799 0)
(1.00506 0.0375053 0)
(1.04762 0.0350598 0)
(1.06394 0.0247178 0)
(1.06414 0.020616 0)
(1.06063 0.0177817 0)
(1.05469 0.0155117 0)
(1.04589 0.0138949 0)
(1.03465 0.0126318 0)
(1.02171 0.0115422 0)
(1.00765 0.0105869 0)
(0.992938 0.00975227 0)
(0.977933 0.00902033 0)
(0.962897 0.00837425 0)
(0.948022 0.00780083 0)
(0.933443 0.00728971 0)
(0.919252 0.00683233 0)
(0.905507 0.00642149 0)
(0.892242 0.00605107 0)
(0.879476 0.00571582 0)
(0.867212 0.0054113 0)
(0.855448 0.00513364 0)
(0.844173 0.00487954 0)
(0.833376 0.0046461 0)
(0.823039 0.0044308 0)
(0.813147 0.00423142 0)
(0.803683 0.00404599 0)
(0.794628 0.00387277 0)
(0.785967 0.00371015 0)
(0.777683 0.00355674 0)
(0.769761 0.00341122 0)
(0.762188 0.00327234 0)
(0.75495 0.00313904 0)
(0.748037 0.00301004 0)
(0.741437 0.00288463 0)
(0.735143 0.00276105 0)
(0.729146 0.00263955 0)
(0.72344 0.00251666 0)
(0.718023 0.00239547 0)
(0.712885 0.00226767 0)
(0.708042 0.00214401 0)
(0.703457 0.00200389 0)
(0.699204 0.00187704 0)
(0.695154 0.00171401 0)
(0.691548 0.00158621 0)
(0.68799 0.00138831 0)
(0.685151 0.00124956 0)
(0.681999 0.00103772 0)
(0.680077 0.000708406 0)
(0.677288 0.000671141 0)
(0.675779 -0.000947553 0)
(1.00451 0.0349697 0)
(1.04359 0.0339807 0)
(1.05991 0.0240684 0)
(1.06219 0.0203288 0)
(1.06245 0.0178494 0)
(1.06175 0.0157946 0)
(1.05914 0.0143521 0)
(1.05455 0.0132549 0)
(1.04829 0.0123074 0)
(1.04069 0.0114638 0)
(1.03201 0.0107129 0)
(1.02253 0.0100413 0)
(1.01247 0.0094358 0)
(1.00202 0.00888702 0)
(0.991348 0.00838788 0)
(0.980584 0.00793268 0)
(0.96983 0.00751655 0)
(0.959168 0.00713521 0)
(0.948657 0.00678493 0)
(0.938343 0.00646237 0)
(0.92826 0.00616458 0)
(0.918432 0.00588892 0)
(0.908875 0.00563302 0)
(0.899599 0.00539471 0)
(0.890611 0.00517207 0)
(0.881911 0.00496332 0)
(0.873502 0.00476684 0)
(0.86538 0.00458113 0)
(0.857543 0.00440481 0)
(0.849986 0.00423656 0)
(0.842707 0.00407515 0)
(0.8357 0.00391945 0)
(0.828961 0.00376814 0)
(0.822486 0.00362042 0)
(0.816273 0.00347441 0)
(0.810317 0.00333031 0)
(0.804617 0.00318439 0)
(0.799174 0.00303979 0)
(0.793982 0.00288777 0)
(0.789053 0.00273921 0)
(0.784367 0.00257299 0)
(0.779973 0.00241872 0)
(0.775788 0.00222748 0)
(0.771975 0.00206738 0)
(0.768272 0.00184111 0)
(0.765127 0.0016586 0)
(0.761865 0.00142184 0)
(0.75947 0.0010402 0)
(0.756614 0.000941591 0)
(0.754527 -0.000421369 0)
(1.00412 0.0325394 0)
(1.04026 0.0329283 0)
(1.05615 0.0234353 0)
(1.05883 0.0199464 0)
(1.06018 0.0177232 0)
(1.06153 0.0158006 0)
(1.06186 0.0144601 0)
(1.06092 0.0134785 0)
(1.05882 0.012647 0)
(1.05566 0.0119088 0)
(1.05153 0.0112506 0)
(1.04656 0.0106583 0)
(1.04086 0.0101191 0)
(1.03456 0.00962412 0)
(1.02779 0.0091675 0)
(1.02064 0.00874489 0)
(1.01322 0.00835278 0)
(1.00561 0.00798819 0)
(0.997876 0.00764855 0)
(0.990088 0.00733157 0)
(0.98229 0.00703518 0)
(0.974527 0.00675749 0)
(0.966831 0.00649676 0)
(0.95923 0.00625136 0)
(0.951747 0.00601979 0)
(0.9444 0.0058006 0)
(0.937202 0.00559246 0)
(0.930166 0.00539407 0)
(0.923299 0.00520423 0)
(0.916609 0.00502175 0)
(0.910102 0.00484546 0)
(0.90378 0.0046743 0)
(0.89765 0.00450695 0)
(0.891711 0.00434264 0)
(0.885969 0.00417943 0)
(0.880425 0.0040175 0)
(0.875082 0.00385303 0)
(0.869943 0.00368905 0)
(0.86501 0.00351678 0)
(0.860293 0.00334672 0)
(0.855781 0.00315825 0)
(0.851511 0.00297929 0)
(0.847431 0.00276409 0)
(0.843649 0.0025736 0)
(0.84 0.00232386 0)
(0.836772 0.00210003 0)
(0.833543 0.00184114 0)
(0.830908 0.00141995 0)
(0.828052 0.0012628 0)
(0.825624 0.000131008 0)
(1.00374 0.0302055 0)
(1.03726 0.0318801 0)
(1.05281 0.0228335 0)
(1.05559 0.0195464 0)
(1.05709 0.0175356 0)
(1.05899 0.0157023 0)
(1.06039 0.01441 0)
(1.06104 0.0134923 0)
(1.061 0.0127344 0)
(1.06031 0.0120703 0)
(1.05896 0.011484 0)
(1.05698 0.0109603 0)
(1.0544 0.0104848 0)
(1.05126 0.0100477 0)
(1.04762 0.00964259 0)
(1.04356 0.00926501 0)
(1.03912 0.00891166 0)
(1.03436 0.00857992 0)
(1.02935 0.00826768 0)
(1.02412 0.00797314 0)
(1.01874 0.00769476 0)
(1.01324 0.00743113 0)
(1.00765 0.00718098 0)
(1.00201 0.0069431 0)
(0.996351 0.00671637 0)
(0.990693 0.00649967 0)
(0.985059 0.00629195 0)
(0.979468 0.00609217 0)
(0.973935 0.00589932 0)
(0.968475 0.00571237 0)
(0.963099 0.0055303 0)
(0.95782 0.00535213 0)
(0.952645 0.00517664 0)
(0.947584 0.00500311 0)
(0.942644 0.0048296 0)
(0.937832 0.00465631 0)
(0.933157 0.00447941 0)
(0.928623 0.0043018 0)
(0.924237 0.00411489 0)
(0.920009 0.0039285 0)
(0.915937 0.00372319 0)
(0.912047 0.00352416 0)
(0.908309 0.00329054 0)
(0.904798 0.00307396 0)
(0.90141 0.00280634 0)
(0.898327 0.00254691 0)
(0.895295 0.00226924 0)
(0.892652 0.00182276 0)
(0.889913 0.00161394 0)
(0.887376 0.000685131 0)
(1.00337 0.0279703 0)
(1.03442 0.0308239 0)
(1.04971 0.0222566 0)
(1.05263 0.0191438 0)
(1.05409 0.0173296 0)
(1.05604 0.0155749 0)
(1.05772 0.0143052 0)
(1.05889 0.0134187 0)
(1.05966 0.0127017 0)
(1.06008 0.0120808 0)
(1.06013 0.0115393 0)
(1.05978 0.0110618 0)
(1.05904 0.010633 0)
(1.0579 0.0102418 0)
(1.05638 0.0098809 0)
(1.05451 0.00954514 0)
(1.05229 0.00923075 0)
(1.04977 0.00893482 0)
(1.04697 0.0086551 0)
(1.04392 0.00838977 0)
(1.04066 0.00813734 0)
(1.03721 0.00789655 0)
(1.0336 0.00766629 0)
(1.02986 0.00744553 0)
(1.02601 0.00723334 0)
(1.02208 0.00702879 0)
(1.01808 0.00683103 0)
(1.01405 0.00663916 0)
(1.00998 0.00645233 0)
(1.00591 0.00626967 0)
(1.00184 0.00609024 0)
(0.997785 0.00591318 0)
(0.993763 0.00573734 0)
(0.989782 0.00556205 0)
(0.985854 0.00538543 0)
(0.981987 0.00520769 0)
(0.978191 0.00502506 0)
(0.974476 0.00484025 0)
(0.970848 0.00464507 0)
(0.96732 0.00444838 0)
(0.963893 0.00423247 0)
(0.960588 0.00401918 0)
(0.95739 0.00377346 0)
(0.954347 0.00353671 0)
(0.951401 0.00325724 0)
(0.948658 0.00297017 0)
(0.945979 0.00267784 0)
(0.943532 0.00222044 0)
(0.94104 0.00197024 0)
(0.938602 0.00121389 0)
(1.00301 0.0258374 0)
(1.0317 0.0297556 0)
(1.04671 0.0217009 0)
(1.04983 0.0187383 0)
(1.05127 0.0171118 0)
(1.05319 0.0154406 0)
(1.0549 0.0141868 0)
(1.05619 0.0133168 0)
(1.05719 0.0126231 0)
(1.058 0.0120261 0)
(1.05861 0.011509 0)
(1.059 0.0110579 0)
(1.05916 0.0106574 0)
(1.05908 0.0102959 0)
(1.05876 0.00996546 0)
(1.0582 0.0096604 0)
(1.0574 0.00937641 0)
(1.05637 0.00911016 0)
(1.05511 0.00885902 0)
(1.05363 0.0086209 0)
(1.05196 0.00839411 0)
(1.05011 0.00817726 0)
(1.04808 0.00796914 0)
(1.04591 0.00776873 0)
(1.0436 0.00757506 0)
(1.04118 0.00738726 0)
(1.03865 0.00720451 0)
(1.03604 0.00702596 0)
(1.03335 0.00685082 0)
(1.0306 0.00667826 0)
(1.0278 0.0065074 0)
(1.02497 0.00633745 0)
(1.02212 0.00616725 0)
(1.01926 0.00599622 0)
(1.0164 0.00582248 0)
(1.01354 0.00564622 0)
(1.01071 0.00546381 0)
(1.0079 0.00527766 0)
(1.00513 0.00508016 0)
(1.00241 0.00487903 0)
(0.999739 0.00465859 0)
(0.997137 0.00443699 0)
(0.994596 0.0041854 0)
(0.992148 0.00393502 0)
(0.989764 0.00364956 0)
(0.987498 0.00334379 0)
(0.985283 0.00304152 0)
(0.983184 0.00258623 0)
(0.981044 0.00230677 0)
(0.978865 0.00169454 0)
(1.00268 0.0238093 0)
(1.0291 0.0286735 0)
(1.0438 0.0211661 0)
(1.04714 0.0183299 0)
(1.04858 0.0168808 0)
(1.05046 0.015302 0)
(1.05217 0.0140657 0)
(1.05346 0.0132077 0)
(1.05451 0.0125307 0)
(1.05541 0.0119487 0)
(1.05619 0.0114452 0)
(1.05684 0.0110081 0)
(1.05737 0.010623 0)
(1.05776 0.0102783 0)
(1.05801 0.00996584 0)
(1.05812 0.00967981 0)
(1.05808 0.00941565 0)
(1.05789 0.00916974 0)
(1.05755 0.00893917 0)
(1.05706 0.00872159 0)
(1.05642 0.00851507 0)
(1.05563 0.00831801 0)
(1.05472 0.00812906 0)
(1.05367 0.00794704 0)
(1.0525 0.00777089 0)
(1.05122 0.00759966 0)
(1.04983 0.00743246 0)
(1.04835 0.00726841 0)
(1.04678 0.00710668 0)
(1.04514 0.00694643 0)
(1.04343 0.00678676 0)
(1.04166 0.00662687 0)
(1.03985 0.00646559 0)
(1.03799 0.00630233 0)
(1.0361 0.00613522 0)
(1.03419 0.00596438 0)
(1.03226 0.00578633 0)
(1.03033 0.00560315 0)
(1.0284 0.00540785 0)
(1.02648 0.00520693 0)
(1.02457 0.00498687 0)
(1.02269 0.0047621 0)
(1.02083 0.00450986 0)
(1.01901 0.00425199 0)
(1.01723 0.00396558 0)
(1.0155 0.00364971 0)
(1.01379 0.00334223 0)
(1.01213 0.00289968 0)
(1.0104 0.00260317 0)
(1.00858 0.00211008 0)
(1.00238 0.0218878 0)
(1.02663 0.0275769 0)
(1.04098 0.0206517 0)
(1.04453 0.0179199 0)
(1.04599 0.0166352 0)
(1.04784 0.0151577 0)
(1.04954 0.0139433 0)
(1.05083 0.0130964 0)
(1.05187 0.0124344 0)
(1.05278 0.0118648 0)
(1.05358 0.0113707 0)
(1.05431 0.010942 0)
(1.05494 0.0105656 0)
(1.0555 0.01023 0)
(1.05598 0.00992737 0)
(1.05637 0.00965196 0)
(1.05668 0.00939922 0)
(1.05689 0.00916546 0)
(1.05702 0.00894766 0)
(1.05705 0.00874334 0)
(1.05699 0.00855043 0)
(1.05684 0.00836718 0)
(1.05658 0.00819211 0)
(1.05624 0.00802391 0)
(1.0558 0.00786141 0)
(1.05528 0.00770355 0)
(1.05468 0.00754936 0)
(1.05399 0.00739788 0)
(1.05323 0.0072482 0)
(1.0524 0.00709944 0)
(1.0515 0.00695062 0)
(1.05055 0.00680091 0)
(1.04954 0.00664909 0)
(1.04848 0.00649453 0)
(1.04738 0.00633535 0)
(1.04625 0.00617156 0)
(1.04508 0.00599984 0)
(1.04389 0.00582188 0)
(1.04268 0.00563138 0)
(1.04145 0.00543355 0)
(1.04022 0.00521708 0)
(1.03899 0.00499277 0)
(1.03775 0.00474355 0)
(1.03652 0.00448308 0)
(1.0353 0.00419938 0)
(1.03409 0.00388068 0)
(1.03288 0.00357208 0)
(1.03165 0.00314987 0)
(1.03034 0.00284739 0)
(1.02891 0.00245146 0)
(1.0021 0.0200738 0)
(1.0243 0.0264676 0)
(1.03824 0.0201556 0)
(1.04201 0.0175106 0)
(1.04348 0.0163751 0)
(1.04531 0.0150062 0)
(1.04701 0.0138189 0)
(1.0483 0.0129831 0)
(1.04932 0.012336 0)
(1.05022 0.0117789 0)
(1.05102 0.0112931 0)
(1.05174 0.0108711 0)
(1.0524 0.0105005 0)
(1.05299 0.0101707 0)
(1.05354 0.00987383 0)
(1.05402 0.00960441 0)
(1.05446 0.00935803 0)
(1.05484 0.00913106 0)
(1.05517 0.00892052 0)
(1.05545 0.00872391 0)
(1.05566 0.00853913 0)
(1.05582 0.00836437 0)
(1.05592 0.00819809 0)
(1.05595 0.0080389 0)
(1.05593 0.00788558 0)
(1.05585 0.00773699 0)
(1.05572 0.00759208 0)
(1.05552 0.00744985 0)
(1.05527 0.0073093 0)
(1.05496 0.00716951 0)
(1.05461 0.00702941 0)
(1.0542 0.00688815 0)
(1.05375 0.00674444 0)
(1.05326 0.00659758 0)
(1.05273 0.00644571 0)
(1.05216 0.0062887 0)
(1.05156 0.00612339 0)
(1.05093 0.00595105 0)
(1.05027 0.00576613 0)
(1.04959 0.00557253 0)
(1.04889 0.00536105 0)
(1.04818 0.00513923 0)
(1.04745 0.00489492 0)
(1.0467 0.0046352 0)
(1.04595 0.00435628 0)
(1.04518 0.00404012 0)
(1.04439 0.00373357 0)
(1.04356 0.00333599 0)
(1.04263 0.00303655 0)
(1.04156 0.0027187 0)
(1.00185 0.0183676 0)
(1.0221 0.0253497 0)
(1.03561 0.019674 0)
(1.03957 0.0171034 0)
(1.04107 0.016101 0)
(1.04287 0.0148469 0)
(1.04457 0.0136922 0)
(1.04586 0.0128677 0)
(1.04687 0.0122357 0)
(1.04775 0.0116916 0)
(1.04854 0.0112144 0)
(1.04925 0.0107986 0)
(1.0499 0.0104333 0)
(1.05049 0.010108 0)
(1.05104 0.00981537 0)
(1.05155 0.00954993 0)
(1.05202 0.0093075 0)
(1.05246 0.00908457 0)
(1.05285 0.00887823 0)
(1.05321 0.00868602 0)
(1.05354 0.00850587 0)
(1.05383 0.008336 0)
(1.05409 0.00817483 0)
(1.0543 0.00802099 0)
(1.05448 0.00787322 0)
(1.05463 0.00773036 0)
(1.05474 0.00759133 0)
(1.0548 0.00745508 0)
(1.05484 0.00732059 0)
(1.05483 0.00718689 0)
(1.05479 0.00705288 0)
(1.05472 0.00691766 0)
(1.05461 0.00677989 0)
(1.05447 0.00663884 0)
(1.0543 0.00649264 0)
(1.0541 0.00634103 0)
(1.05387 0.00618107 0)
(1.05362 0.00601355 0)
(1.05334 0.00583368 0)
(1.05304 0.00564416 0)
(1.05272 0.00543771 0)
(1.05238 0.00521905 0)
(1.05202 0.00498011 0)
(1.05164 0.00472301 0)
(1.05123 0.00444961 0)
(1.0508 0.00413936 0)
(1.05034 0.00383703 0)
(1.04981 0.00346544 0)
(1.04919 0.00317547 0)
(1.04843 0.00291942 0)
(1.00162 0.0167689 0)
(1.02004 0.0242275 0)
(1.03308 0.0192029 0)
(1.03722 0.0167002 0)
(1.03875 0.0158141 0)
(1.04051 0.0146789 0)
(1.04221 0.0135627 0)
(1.0435 0.0127502 0)
(1.04451 0.0121332 0)
(1.04537 0.0116027 0)
(1.04615 0.0111347 0)
(1.04685 0.0107253 0)
(1.04749 0.0103652 0)
(1.04807 0.0100443 0)
(1.04861 0.00975544 0)
(1.04911 0.00949335 0)
(1.04958 0.00925398 0)
(1.05002 0.00903396 0)
(1.05044 0.00883046 0)
(1.05082 0.00864107 0)
(1.05118 0.00846377 0)
(1.05151 0.0082968 0)
(1.05183 0.00813864 0)
(1.05211 0.0079879 0)
(1.05238 0.00784335 0)
(1.05262 0.00770383 0)
(1.05283 0.00756825 0)
(1.05302 0.00743557 0)
(1.05319 0.00730474 0)
(1.05334 0.00717478 0)
(1.05346 0.00704458 0)
(1.05356 0.0069132 0)
(1.05364 0.00677931 0)
(1.0537 0.00664211 0)
(1.05373 0.00649978 0)
(1.05374 0.00635192 0)
(1.05374 0.00619582 0)
(1.05371 0.00603185 0)
(1.05367 0.00585593 0)
(1.0536 0.00566967 0)
(1.05352 0.00546751 0)
(1.05341 0.00525185 0)
(1.05329 0.00501783 0)
(1.05315 0.00476414 0)
(1.05298 0.0044961 0)
(1.05278 0.00419351 0)
(1.05254 0.00389666 0)
(1.05223 0.0035504 0)
(1.05183 0.00327361 0)
(1.05131 0.00306565 0)
(1.00142 0.0152769 0)
(1.01811 0.023105 0)
(1.03066 0.0187383 0)
(1.03496 0.0163023 0)
(1.03653 0.0155156 0)
(1.03825 0.0145017 0)
(1.03993 0.0134302 0)
(1.04123 0.0126305 0)
(1.04224 0.0120283 0)
(1.04309 0.0115121 0)
(1.04385 0.0110539 0)
(1.04454 0.0106512 0)
(1.04517 0.0102964 0)
(1.04574 0.00998003 0)
(1.04627 0.00969495 0)
(1.04676 0.00943611 0)
(1.04722 0.00919959 0)
(1.04765 0.00898215 0)
(1.04806 0.00878101 0)
(1.04844 0.00859383 0)
(1.0488 0.00841864 0)
(1.04915 0.00825371 0)
(1.04947 0.00809755 0)
(1.04978 0.0079488 0)
(1.05006 0.00780624 0)
(1.05034 0.00766874 0)
(1.05059 0.00753521 0)
(1.05083 0.00740463 0)
(1.05105 0.00727595 0)
(1.05126 0.00714818 0)
(1.05146 0.00702023 0)
(1.05164 0.00689113 0)
(1.0518 0.00675957 0)
(1.05195 0.0066247 0)
(1.05209 0.00648479 0)
(1.05221 0.00633928 0)
(1.05231 0.00618572 0)
(1.05241 0.00602409 0)
(1.05249 0.00585098 0)
(1.05255 0.00566706 0)
(1.0526 0.00546822 0)
(1.05264 0.00525509 0)
(1.05265 0.00502517 0)
(1.05265 0.00477508 0)
(1.05262 0.00451184 0)
(1.05256 0.0042175 0)
(1.05246 0.00392681 0)
(1.05229 0.00360389 0)
(1.05204 0.00334188 0)
(1.05168 0.00317049 0)
(1.00124 0.0138903 0)
(1.01632 0.0219862 0)
(1.02834 0.0182763 0)
(1.03279 0.015911 0)
(1.0344 0.0152073 0)
(1.03608 0.0143148 0)
(1.03775 0.0132942 0)
(1.03906 0.0125086 0)
(1.04005 0.011921 0)
(1.0409 0.0114196 0)
(1.04165 0.0109718 0)
(1.04233 0.0105761 0)
(1.04294 0.0102269 0)
(1.0435 0.00991518 0)
(1.04402 0.00963401 0)
(1.0445 0.00937849 0)
(1.04495 0.00914486 0)
(1.04537 0.00892996 0)
(1.04577 0.00873109 0)
(1.04614 0.00854597 0)
(1.0465 0.00837266 0)
(1.04683 0.00820948 0)
(1.04715 0.00805494 0)
(1.04746 0.00790772 0)
(1.04775 0.00776663 0)
(1.04802 0.00763054 0)
(1.04829 0.0074984 0)
(1.04854 0.00736917 0)
(1.04878 0.00724185 0)
(1.04901 0.00711543 0)
(1.04922 0.00698884 0)
(1.04943 0.00686111 0)
(1.04963 0.00673094 0)
(1.04981 0.00659746 0)
(1.04999 0.006459 0)
(1.05016 0.0063149 0)
(1.05032 0.00616294 0)
(1.05046 0.00600277 0)
(1.0506 0.00583157 0)
(1.05073 0.00564928 0)
(1.05084 0.00545292 0)
(1.05094 0.00524188 0)
(1.05103 0.00501525 0)
(1.0511 0.00476868 0)
(1.05114 0.00450966 0)
(1.05116 0.00422354 0)
(1.05113 0.00393936 0)
(1.05105 0.00363714 0)
(1.05089 0.00338999 0)
(1.05064 0.00324543 0)
(1.00107 0.012607 0)
(1.01466 0.0208752 0)
(1.02613 0.0178137 0)
(1.0307 0.0155271 0)
(1.03236 0.0148909 0)
(1.034 0.0141178 0)
(1.03566 0.0131543 0)
(1.03697 0.0123847 0)
(1.03796 0.0118113 0)
(1.0388 0.011325 0)
(1.03954 0.0108882 0)
(1.04021 0.0105 0)
(1.04081 0.0101566 0)
(1.04136 0.00984969 0)
(1.04186 0.00957259 0)
(1.04233 0.00932052 0)
(1.04277 0.00908986 0)
(1.04318 0.00887756 0)
(1.04357 0.008681 0)
(1.04393 0.00849795 0)
(1.04428 0.0083265 0)
(1.04461 0.00816499 0)
(1.04492 0.00801197 0)
(1.04521 0.00786616 0)
(1.0455 0.00772636 0)
(1.04577 0.00759147 0)
(1.04603 0.00746044 0)
(1.04628 0.00733228 0)
(1.04652 0.00720597 0)
(1.04675 0.00708053 0)
(1.04697 0.00695488 0)
(1.04718 0.00682806 0)
(1.04738 0.00669881 0)
(1.04758 0.00656621 0)
(1.04777 0.00642869 0)
(1.04795 0.00628547 0)
(1.04812 0.00613457 0)
(1.04829 0.00597536 0)
(1.04845 0.00580551 0)
(1.0486 0.00562441 0)
(1.04874 0.00542995 0)
(1.04887 0.00522071 0)
(1.04898 0.00499679 0)
(1.04908 0.00475362 0)
(1.04916 0.00449842 0)
(1.04921 0.00422015 0)
(1.04922 0.00394266 0)
(1.04918 0.00365833 0)
(1.04907 0.00342511 0)
(1.0489 0.00329936 0)
(1.00093 0.0114243 0)
(1.01313 0.019776 0)
(1.02403 0.0173473 0)
(1.0287 0.0151513 0)
(1.03042 0.0145684 0)
(1.03201 0.0139102 0)
(1.03365 0.01301 0)
(1.03496 0.0122588 0)
(1.03596 0.0116993 0)
(1.03679 0.0112283 0)
(1.03752 0.0108032 0)
(1.03818 0.0104229 0)
(1.03877 0.0100854 0)
(1.03931 0.00978349 0)
(1.03981 0.00951062 0)
(1.04027 0.00926213 0)
(1.04069 0.00903454 0)
(1.04109 0.00882494 0)
(1.04147 0.00863076 0)
(1.04183 0.00844983 0)
(1.04216 0.00828027 0)
(1.04248 0.00812047 0)
(1.04278 0.00796899 0)
(1.04307 0.00782456 0)
(1.04334 0.00768602 0)
(1.04361 0.00755228 0)
(1.04386 0.00742231 0)
(1.0441 0.00729512 0)
(1.04433 0.00716971 0)
(1.04456 0.00704511 0)
(1.04477 0.00692025 0)
(1.04498 0.00679417 0)
(1.04518 0.00666564 0)
(1.04538 0.00653371 0)
(1.04556 0.0063969 0)
(1.04575 0.00625432 0)
(1.04592 0.00610422 0)
(1.04609 0.00594573 0)
(1.04625 0.00577694 0)
(1.0464 0.00559685 0)
(1.04655 0.00540395 0)
(1.04668 0.0051964 0)
(1.04681 0.00497483 0)
(1.04691 0.00473501 0)
(1.047 0.0044834 0)
(1.04706 0.00421253 0)
(1.04709 0.00394177 0)
(1.04707 0.00367267 0)
(1.047 0.00345176 0)
(1.04688 0.00333806 0)
(1.0008 0.010339 0)
(1.01173 0.0186928 0)
(1.02205 0.0168744 0)
(1.02678 0.0147838 0)
(1.02857 0.0142419 0)
(1.03013 0.0136922 0)
(1.03174 0.0128605 0)
(1.03305 0.0121307 0)
(1.03405 0.0115848 0)
(1.03487 0.0111293 0)
(1.03559 0.0107165 0)
(1.03624 0.0103445 0)
(1.03682 0.0100132 0)
(1.03735 0.0097165 0)
(1.03784 0.00944802 0)
(1.03829 0.00920325 0)
(1.03871 0.00897886 0)
(1.0391 0.00877204 0)
(1.03947 0.00858032 0)
(1.03981 0.00840158 0)
(1.04014 0.00823398 0)
(1.04045 0.00807593 0)
(1.04074 0.00792603 0)
(1.04102 0.00778302 0)
(1.04129 0.00764577 0)
(1.04154 0.00751319 0)
(1.04178 0.00738428 0)
(1.04202 0.00725806 0)
(1.04224 0.00713353 0)
(1.04246 0.00700975 0)
(1.04267 0.00688565 0)
(1.04287 0.00676026 0)
(1.04306 0.0066324 0)
(1.04325 0.00650107 0)
(1.04343 0.0063649 0)
(1.04361 0.0062229 0)
(1.04378 0.0060735 0)
(1.04394 0.00591567 0)
(1.0441 0.00574782 0)
(1.04425 0.00556869 0)
(1.04439 0.0053772 0)
(1.04453 0.00517135 0)
(1.04465 0.00495197 0)
(1.04475 0.00471546 0)
(1.04484 0.0044674 0)
(1.0449 0.00420343 0)
(1.04493 0.00393935 0)
(1.04492 0.00368302 0)
(1.04487 0.00347235 0)
(1.04479 0.00336513 0)
(1.00069 0.00934729 0)
(1.01045 0.0176298 0)
(1.02018 0.0163927 0)
(1.02495 0.0144246 0)
(1.02681 0.0139134 0)
(1.02833 0.0134638 0)
(1.02991 0.0127053 0)
(1.03122 0.0120003 0)
(1.03222 0.011468 0)
(1.03303 0.0110279 0)
(1.03375 0.010628 0)
(1.03439 0.0102649 0)
(1.03497 0.00994002 0)
(1.03549 0.00964865 0)
(1.03597 0.00938472 0)
(1.03641 0.00914382 0)
(1.03682 0.00892274 0)
(1.0372 0.0087188 0)
(1.03756 0.00852964 0)
(1.0379 0.00835316 0)
(1.03821 0.00818758 0)
(1.03851 0.00803134 0)
(1.0388 0.00788307 0)
(1.03907 0.00774153 0)
(1.03933 0.0076056 0)
(1.03957 0.00747423 0)
(1.03981 0.00734641 0)
(1.04003 0.00722118 0)
(1.04025 0.00709756 0)
(1.04046 0.00697461 0)
(1.04066 0.00685128 0)
(1.04086 0.00672661 0)
(1.04104 0.00659942 0)
(1.04122 0.0064687 0)
(1.0414 0.00633316 0)
(1.04157 0.00619174 0)
(1.04173 0.00604303 0)
(1.04189 0.00588588 0)
(1.04204 0.00571895 0)
(1.04218 0.00554082 0)
(1.04232 0.00535071 0)
(1.04244 0.00514661 0)
(1.04256 0.00492939 0)
(1.04266 0.00469617 0)
(1.04274 0.00445168 0)
(1.0428 0.00419411 0)
(1.04283 0.00393656 0)
(1.04283 0.00369069 0)
(1.04279 0.00348813 0)
(1.04274 0.00338262 0)
(1.0006 0.00844489 0)
(1.00929 0.0165908 0)
(1.01842 0.0159004 0)
(1.02321 0.0140734 0)
(1.02513 0.0135847 0)
(1.02662 0.0132256 0)
(1.02817 0.0125438 0)
(1.02948 0.0118675 0)
(1.03048 0.0113489 0)
(1.03129 0.010924 0)
(1.032 0.0105376 0)
(1.03263 0.0101838 0)
(1.0332 0.00986569 0)
(1.03371 0.00957985 0)
(1.03419 0.00932064 0)
(1.03462 0.00908375 0)
(1.03502 0.0088661 0)
(1.03539 0.00866516 0)
(1.03574 0.00847864 0)
(1.03607 0.00830451 0)
(1.03638 0.00814102 0)
(1.03668 0.00798666 0)
(1.03695 0.00784007 0)
(1.03721 0.00770005 0)
(1.03746 0.00756549 0)
(1.0377 0.00743536 0)
(1.03793 0.00730867 0)
(1.03815 0.00718447 0)
(1.03836 0.0070618 0)
(1.03856 0.00693972 0)
(1.03875 0.0068172 0)
(1.03894 0.00669326 0)
(1.03912 0.00656677 0)
(1.03929 0.0064367 0)
(1.03946 0.00630182 0)
(1.03962 0.00616102 0)
(1.03978 0.00601302 0)
(1.03993 0.00585661 0)
(1.04007 0.00569061 0)
(1.04021 0.00551357 0)
(1.04034 0.00532484 0)
(1.04046 0.00512257 0)
(1.04056 0.00490754 0)
(1.04066 0.0046776 0)
(1.04073 0.00443674 0)
(1.04079 0.00418509 0)
(1.04082 0.00393372 0)
(1.04082 0.00369635 0)
(1.0408 0.00349952 0)
(1.04078 0.00339144 0)
(1.00051 0.007627 0)
(1.00824 0.0155799 0)
(1.01677 0.0153963 0)
(1.02155 0.0137294 0)
(1.02354 0.0132576 0)
(1.02501 0.0129783 0)
(1.02652 0.0123755 0)
(1.02782 0.0117321 0)
(1.02883 0.0112276 0)
(1.02963 0.0108176 0)
(1.03033 0.0104451 0)
(1.03096 0.0101012 0)
(1.03152 0.00979013 0)
(1.03203 0.00951 0)
(1.03249 0.00925568 0)
(1.03292 0.00902296 0)
(1.03331 0.00880889 0)