/*--------------------------------*- C++ -*----------------------------------*\
  =========                 |
  \\      /  F ield         | OpenFOAM: The Open Source CFD Toolbox
   \\    /   O peration     | Website:  https://openfoam.org
    \\  /    A nd           | Version:  7
     \\/     M anipulation  |
\*---------------------------------------------------------------------------*/
FoamFile
{
    version     2.0;
    format      ascii;
    class       volVectorField;
    location    "0.42";
    object      U_0;
}
// * * * * * * * * * * * * * * * * * * * * * * * * * * * * * * * * * * * * * //

dimensions      [0 1 -1 0 0 0 0];

internalField   nonuniform List<vector> 
70000
(
(0.553411 0.0169783 0)
(0.251405 0.00340065 0)
(0.1659 0.000319215 0)
(0.132403 4.9232e-05 0)
(0.117285 4.42713e-05 0)
(0.107316 5.24272e-05 0)
(0.0993352 4.46181e-05 0)
(0.0928832 3.55345e-05 0)
(0.0876318 2.94915e-05 0)
(0.083256 2.535e-05 0)
(0.0795274 2.21862e-05 0)
(0.0762986 1.96508e-05 0)
(0.0734681 1.7584e-05 0)
(0.070962 1.58764e-05 0)
(0.0687241 1.44471e-05 0)
(0.0667112 1.3236e-05 0)
(0.064889 1.21985e-05 0)
(0.0632304 1.13016e-05 0)
(0.0617133 1.05189e-05 0)
(0.0603196 9.8313e-06 0)
(0.0590344 9.22258e-06 0)
(0.0578453 8.68056e-06 0)
(0.0567417 8.19488e-06 0)
(0.0557148 7.75749e-06 0)
(0.054757 7.3609e-06 0)
(0.053862 7.00053e-06 0)
(0.053024 6.66986e-06 0)
(0.0522385 6.3669e-06 0)
(0.0515013 6.08556e-06 0)
(0.0508088 5.82634e-06 0)
(0.0501581 5.58205e-06 0)
(0.0495464 5.35816e-06 0)
(0.0489718 5.1425e-06 0)
(0.048432 4.94966e-06 0)
(0.0479257 4.75952e-06 0)
(0.0474516 4.59545e-06 0)
(0.0470079 4.43891e-06 0)
(0.0465955 4.29667e-06 0)
(0.0462093 4.21159e-06 0)
(0.0458578 4.04945e-06 0)
(0.045522 4.169e-06 0)
(0.0452362 3.7986e-06 0)
(0.0449349 4.57118e-06 0)
(0.0447349 3.23188e-06 0)
(0.0444235 6.19737e-06 0)
(0.0443795 9.65236e-07 0)
(0.0439252 1.13768e-05 0)
(0.0442591 -7.97175e-06 0)
(0.0434817 3.43242e-05 0)
(0.0414024 -0.00163847 0)
(0.884862 0.0434939 0)
(0.65013 0.0201504 0)
(0.493931 0.0066064 0)
(0.403478 0.00275649 0)
(0.35474 0.00154958 0)
(0.323402 0.00113317 0)
(0.299483 0.000910631 0)
(0.280257 0.000745955 0)
(0.26453 0.000623214 0)
(0.251396 0.000532709 0)
(0.240205 0.000464004 0)
(0.230514 0.000409928 0)
(0.222017 0.00036622 0)
(0.214494 0.000330225 0)
(0.207774 0.000300139 0)
(0.201729 0.000274666 0)
(0.196256 0.000252854 0)
(0.191274 0.000233989 0)
(0.186717 0.000217527 0)
(0.18253 0.000203044 0)
(0.17867 0.000190208 0)
(0.175098 0.000178751 0)
(0.171784 0.000168458 0)
(0.1687 0.00015915 0)
(0.165824 0.00015068 0)
(0.163137 0.000142924 0)
(0.160623 0.000135775 0)
(0.158266 0.000129143 0)
(0.156055 0.000122947 0)
(0.153979 0.00011712 0)
(0.152029 0.000111591 0)
(0.150198 0.000106322 0)
(0.148478 0.000101229 0)
(0.146865 9.63187e-05 0)
(0.145354 9.1461e-05 0)
(0.143942 8.67475e-05 0)
(0.142623 8.19467e-05 0)
(0.141402 7.73088e-05 0)
(0.140264 7.24182e-05 0)
(0.139235 6.77681e-05 0)
(0.138264 6.27491e-05 0)
(0.137445 5.79431e-05 0)
(0.136606 5.31573e-05 0)
(0.13606 4.74644e-05 0)
(0.13525 4.47628e-05 0)
(0.135167 3.41653e-05 0)
(0.134066 4.3052e-05 0)
(0.134984 -1.4603e-05 0)
(0.133129 0.000224328 0)
(0.13249 -0.00274417 0)
(0.991209 0.0499569 0)
(0.890909 0.0305657 0)
(0.762445 0.0146146 0)
(0.656448 0.00797493 0)
(0.585306 0.00488345 0)
(0.535902 0.00347802 0)
(0.49798 0.00274148 0)
(0.467326 0.00224692 0)
(0.441992 0.00188305 0)
(0.420666 0.00161137 0)
(0.4024 0.00140394 0)
(0.386525 0.00124064 0)
(0.372566 0.00110873 0)
(0.360174 0.00100009 0)
(0.349084 0.000909235 0)
(0.339089 0.000832273 0)
(0.330027 0.000766338 0)
(0.321767 0.000709286 0)
(0.314203 0.000659475 0)
(0.307247 0.000615636 0)
(0.300828 0.000576763 0)
(0.294884 0.000542053 0)
(0.289364 0.000510856 0)
(0.284225 0.000482634 0)
(0.27943 0.000456941 0)
(0.274947 0.000433404 0)
(0.270749 0.000411701 0)
(0.266812 0.000391558 0)
(0.263117 0.000372731 0)
(0.259645 0.000355013 0)
(0.256382 0.000338197 0)
(0.253316 0.000322142 0)
(0.250434 0.000306624 0)
(0.247729 0.000291599 0)
(0.245192 0.000276735 0)
(0.242818 0.000262207 0)
(0.2406 0.000247368 0)
(0.238543 0.000232917 0)
(0.236626 0.000217428 0)
(0.234885 0.000202815 0)
(0.23325 0.000185933 0)
(0.231856 0.000171206 0)
(0.230458 0.00015218 0)
(0.229505 0.000137556 0)
(0.228208 0.000116275 0)
(0.227973 9.90632e-05 0)
(0.22636 8.66662e-05 0)
(0.227554 -1.01569e-05 0)
(0.224944 0.000275908 0)
(0.22661 -0.00278345 0)
(1.01554 0.0489554 0)
(1.00648 0.0357287 0)
(0.935851 0.0208258 0)
(0.851936 0.0135056 0)
(0.782118 0.00920471 0)
(0.72693 0.00678941 0)
(0.681806 0.00539247 0)
(0.644017 0.0044506 0)
(0.61198 0.0037555 0)
(0.584499 0.00322936 0)
(0.560634 0.00282298 0)
(0.539678 0.00250094 0)
(0.521101 0.00223965 0)
(0.504501 0.0020237 0)
(0.489563 0.00184256 0)
(0.476039 0.0016887 0)
(0.463731 0.00155659 0)
(0.452474 0.00144204 0)
(0.442135 0.00134187 0)
(0.432605 0.00125357 0)
(0.423789 0.00117517 0)
(0.415609 0.0011051 0)
(0.407999 0.00104205 0)
(0.400903 0.000984973 0)
(0.394271 0.000932977 0)
(0.388061 0.00088532 0)
(0.382239 0.000841362 0)
(0.376771 0.000800557 0)
(0.371631 0.00076242 0)
(0.366796 0.000726532 0)
(0.362246 0.000692491 0)
(0.357963 0.000659989 0)
(0.353932 0.000628612 0)
(0.35014 0.000598215 0)
(0.346577 0.000568197 0)
(0.343236 0.000538806 0)
(0.340106 0.000508826 0)
(0.337193 0.000479552 0)
(0.334472 0.000448089 0)
(0.331984 0.000418438 0)
(0.329648 0.000383515 0)
(0.32762 0.000353871 0)
(0.325621 0.000312541 0)
(0.324163 0.000284967 0)
(0.322356 0.000232717 0)
(0.321775 0.00020818 0)
(0.319735 0.000152722 0)
(0.320758 3.15171e-05 0)
(0.317802 0.000254909 0)
(0.320117 -0.00249937 0)
(1.01435 0.0461 0)
(1.04797 0.0373469 0)
(1.02454 0.0241956 0)
(0.97462 0.0175677 0)
(0.923381 0.013119 0)
(0.87661 0.0102144 0)
(0.834409 0.00835309 0)
(0.796633 0.00702905 0)
(0.763055 0.00601718 0)
(0.733232 0.00522885 0)
(0.706648 0.0046064 0)
(0.682831 0.00410527 0)
(0.661382 0.00369392 0)
(0.641969 0.00335082 0)
(0.624315 0.00306085 0)
(0.608191 0.00281301 0)
(0.593406 0.00259906 0)
(0.579797 0.00241273 0)
(0.567229 0.00224913 0)
(0.555587 0.00210445 0)
(0.544772 0.00197562 0)
(0.534699 0.00186016 0)
(0.525295 0.00175606 0)
(0.516499 0.00166164 0)
(0.508255 0.00157549 0)
(0.500516 0.00149642 0)
(0.49324 0.00142341 0)
(0.486393 0.00135559 0)
(0.479941 0.00129217 0)
(0.473859 0.00123247 0)
(0.468122 0.00117586 0)
(0.462709 0.00112181 0)
(0.457604 0.00106969 0)
(0.452789 0.00101919 0)
(0.448254 0.000969422 0)
(0.443987 0.000920672 0)
(0.439978 0.000871073 0)
(0.43623 0.000822559 0)
(0.432718 0.000770564 0)
(0.429481 0.000721402 0)
(0.42644 0.00066351 0)
(0.423747 0.000614324 0)
(0.421129 0.00054496 0)
(0.419086 0.000499544 0)
(0.416759 0.00040956 0)
(0.415654 0.000371247 0)
(0.413262 0.000266362 0)
(0.413689 0.000111623 0)
(0.41077 0.000257419 0)
(0.412312 -0.00219339 0)
(1.00941 0.0430498 0)
(1.05563 0.0371031 0)
(1.05865 0.0253388 0)
(1.03626 0.0197753 0)
(1.00704 0.0158103 0)
(0.975987 0.0129454 0)
(0.944418 0.0109724 0)
(0.913517 0.00948729 0)
(0.88414 0.00829424 0)
(0.85667 0.00732512 0)
(0.831182 0.0065343 0)
(0.807613 0.00588122 0)
(0.78584 0.00533435 0)
(0.76572 0.00487082 0)
(0.747105 0.00447387 0)
(0.729857 0.00413084 0)
(0.713845 0.00383196 0)
(0.698951 0.00356958 0)
(0.685069 0.00333763 0)
(0.672107 0.00313128 0)
(0.65998 0.00294658 0)
(0.648615 0.00278031 0)
(0.637945 0.00262979 0)
(0.627914 0.00249278 0)
(0.618469 0.0023674 0)
(0.609566 0.00225202 0)
(0.601163 0.00214524 0)
(0.593226 0.00204586 0)
(0.585723 0.00195279 0)
(0.578625 0.00186509 0)
(0.57191 0.00178185 0)
(0.565553 0.00170234 0)
(0.559539 0.00162567 0)
(0.55385 0.00155139 0)
(0.548473 0.00147826 0)
(0.543397 0.0014066 0)
(0.538611 0.0013339 0)
(0.534114 0.00126264 0)
(0.529886 0.00118667 0)
(0.525958 0.0011144 0)
(0.522261 0.00103013 0)
(0.518928 0.000957383 0)
(0.515723 0.000856836 0)
(0.513076 0.000788155 0)
(0.510256 0.000659164 0)
(0.508528 0.000596428 0)
(0.505843 0.00044776 0)
(0.505443 0.000241645 0)
(0.502667 0.000323541 0)
(0.503034 -0.0018457 0)
(1.00635 0.0401822 0)
(1.0524 0.0361572 0)
(1.06603 0.0252637 0)
(1.05949 0.0205826 0)
(1.04682 0.0172404 0)
(1.03073 0.0146671 0)
(1.01179 0.0128346 0)
(0.991066 0.0114064 0)
(0.969626 0.0102064 0)
(0.948199 0.00918859 0)
(0.927231 0.0083269 0)
(0.906982 0.00759296 0)
(0.887597 0.00696218 0)
(0.869146 0.00641568 0)
(0.851646 0.0059389 0)
(0.835084 0.0055203 0)
(0.819429 0.00515057 0)
(0.804638 0.00482216 0)
(0.790665 0.00452885 0)
(0.77746 0.00426556 0)
(0.764976 0.00402802 0)
(0.753166 0.00381269 0)
(0.741986 0.00361654 0)
(0.731395 0.00343702 0)
(0.721356 0.00327192 0)
(0.711833 0.00311932 0)
(0.702794 0.00297757 0)
(0.69421 0.00284518 0)
(0.686056 0.00272084 0)
(0.678307 0.00260337 0)
(0.670943 0.00249167 0)
(0.663944 0.00238477 0)
(0.657295 0.00228159 0)
(0.650979 0.00218151 0)
(0.644986 0.002083 0)
(0.639304 0.00198635 0)
(0.633925 0.0018885 0)
(0.628846 0.00179233 0)
(0.624051 0.0016904 0)
(0.619564 0.00159262 0)
(0.615331 0.0014802 0)
(0.611454 0.00138088 0)
(0.607753 0.00124828 0)
(0.60456 0.00115135 0)
(0.601317 0.00098563 0)
(0.598979 0.000887893 0)
(0.59604 0.000704135 0)
(0.594811 0.000435815 0)
(0.592084 0.000459489 0)
(0.591401 -0.00142962 0)
(1.00506 0.0375052 0)
(1.04762 0.0350598 0)
(1.06394 0.0247178 0)
(1.06414 0.0206159 0)
(1.06063 0.0177816 0)
(1.05469 0.0155115 0)
(1.04589 0.0138947 0)
(1.03466 0.0126316 0)
(1.02171 0.011542 0)
(1.00765 0.0105868 0)
(0.992941 0.00975208 0)
(0.977936 0.00902014 0)
(0.962901 0.00837407 0)
(0.948026 0.00780064 0)
(0.933447 0.00728951 0)
(0.919257 0.00683213 0)
(0.905512 0.00642128 0)
(0.892248 0.00605084 0)
(0.879482 0.00571558 0)
(0.867219 0.00541103 0)
(0.855455 0.00513336 0)
(0.844181 0.00487923 0)
(0.833384 0.00464577 0)
(0.823048 0.00443045 0)
(0.813157 0.00423103 0)
(0.803693 0.00404557 0)
(0.794639 0.00387229 0)
(0.785979 0.00370964 0)
(0.777696 0.00355617 0)
(0.769775 0.00341057 0)
(0.762204 0.00327162 0)
(0.754967 0.00313823 0)
(0.748055 0.00300913 0)
(0.741457 0.0028836 0)
(0.735164 0.00275987 0)
(0.729169 0.0026382 0)
(0.723465 0.0025151 0)
(0.718051 0.00239366 0)
(0.712915 0.00226556 0)
(0.708075 0.00214154 0)
(0.703494 0.00200099 0)
(0.699245 0.00187363 0)
(0.6952 0.00171002 0)
(0.691599 0.00158148 0)
(0.688049 0.00138287 0)
(0.685217 0.00124321 0)
(0.682074 0.00103073 0)
(0.680161 0.000701026 0)
(0.677382 0.000664603 0)
(0.675884 -0.000950249 0)
(1.00451 0.0349697 0)
(1.04359 0.0339807 0)
(1.05991 0.0240684 0)
(1.06219 0.0203287 0)
(1.06245 0.0178493 0)
(1.06175 0.0157944 0)
(1.05914 0.0143519 0)
(1.05455 0.0132547 0)
(1.04829 0.0123072 0)
(1.04069 0.0114635 0)
(1.03202 0.0107127 0)
(1.02253 0.010041 0)
(1.01247 0.00943558 0)
(1.00202 0.00888679 0)
(0.991352 0.00838764 0)
(0.980588 0.00793244 0)
(0.969836 0.00751629 0)
(0.959173 0.00713494 0)
(0.948663 0.00678464 0)
(0.93835 0.00646206 0)
(0.928267 0.00616425 0)
(0.91844 0.00588856 0)
(0.908883 0.00563263 0)
(0.899608 0.00539429 0)
(0.89062 0.00517161 0)
(0.881922 0.00496282 0)
(0.873513 0.00476629 0)
(0.865392 0.00458052 0)
(0.857555 0.00440413 0)
(0.85 0.00423581 0)
(0.842722 0.00407431 0)
(0.835715 0.00391851 0)
(0.828978 0.00376707 0)
(0.822505 0.00361921 0)
(0.816293 0.00347302 0)
(0.810339 0.00332872 0)
(0.804642 0.00318257 0)
(0.7992 0.00303768 0)
(0.794011 0.00288531 0)
(0.789086 0.00273633 0)
(0.784403 0.00256961 0)
(0.780013 0.00241474 0)
(0.775833 0.00222282 0)
(0.772025 0.00206187 0)
(0.768328 0.00183475 0)
(0.76519 0.0016512 0)
(0.761937 0.00141363 0)
(0.759551 0.00103151 0)
(0.756704 0.000933702 0)
(0.754628 -0.000425274 0)
(1.00412 0.0325394 0)
(1.04026 0.0329282 0)
(1.05615 0.0234353 0)
(1.05883 0.0199463 0)
(1.06018 0.017723 0)
(1.06153 0.0158004 0)
(1.06186 0.0144598 0)
(1.06092 0.0134783 0)
(1.05882 0.0126467 0)
(1.05566 0.0119085 0)
(1.05154 0.0112503 0)
(1.04656 0.010658 0)
(1.04086 0.0101188 0)
(1.03457 0.00962385 0)
(1.02779 0.00916722 0)
(1.02064 0.00874461 0)
(1.01322 0.00835248 0)
(1.00561 0.00798788 0)
(0.997882 0.00764822 0)
(0.990094 0.00733121 0)
(0.982297 0.00703479 0)
(0.974534 0.00675707 0)
(0.966838 0.00649631 0)
(0.959238 0.00625088 0)
(0.951756 0.00601926 0)
(0.944409 0.00580002 0)
(0.937213 0.00559182 0)
(0.930177 0.00539337 0)
(0.923311 0.00520345 0)
(0.916622 0.00502088 0)
(0.910116 0.00484449 0)
(0.903796 0.00467321 0)
(0.897666 0.00450572 0)
(0.891729 0.00434125 0)
(0.885989 0.00417784 0)
(0.880446 0.00401569 0)
(0.875105 0.00385094 0)
(0.869969 0.00368664 0)
(0.865038 0.00351397 0)
(0.860324 0.00334344 0)
(0.855816 0.00315441 0)
(0.85155 0.00297476 0)
(0.847473 0.00275878 0)
(0.843697 0.00256733 0)
(0.840054 0.00231661 0)
(0.836833 0.00209161 0)
(0.833611 0.00183176 0)
(0.830985 0.00140998 0)
(0.828138 0.00125355 0)
(0.825721 0.000125642 0)
(1.00374 0.0302055 0)
(1.03726 0.0318801 0)
(1.05281 0.0228334 0)
(1.05559 0.0195463 0)
(1.05709 0.0175354 0)
(1.05899 0.0157021 0)
(1.06039 0.0144097 0)
(1.06104 0.013492 0)
(1.061 0.0127341 0)
(1.06031 0.01207 0)
(1.05897 0.0114837 0)
(1.05698 0.01096 0)
(1.0544 0.0104845 0)
(1.05126 0.0100474 0)
(1.04763 0.00964228 0)
(1.04356 0.00926469 0)
(1.03912 0.00891132 0)
(1.03437 0.00857957 0)
(1.02935 0.0082673 0)
(1.02413 0.00797274 0)
(1.01875 0.00769432 0)
(1.01324 0.00743066 0)
(1.00766 0.00718047 0)
(1.00202 0.00694255 0)
(0.996359 0.00671577 0)
(0.990702 0.00649901 0)
(0.985069 0.00629123 0)
(0.979478 0.00609138 0)
(0.973946 0.00589844 0)
(0.968487 0.00571139 0)
(0.963113 0.0055292 0)
(0.957834 0.0053509 0)
(0.952661 0.00517526 0)
(0.947601 0.00500154 0)
(0.942662 0.00482781 0)
(0.937853 0.00465427 0)
(0.933179 0.00447706 0)
(0.928647 0.00429909 0)
(0.924263 0.00411174 0)
(0.920039 0.00392482 0)
(0.915969 0.00371888 0)
(0.912083 0.00351909 0)
(0.908349 0.00328461 0)
(0.904843 0.00306697 0)
(0.901461 0.00279824 0)
(0.898383 0.00253753 0)
(0.895359 0.00225873 0)
(0.892723 0.00181156 0)
(0.889994 0.00160336 0)
(0.887468 0.000678131 0)
(1.00337 0.0279703 0)
(1.03442 0.0308239 0)
(1.04971 0.0222565 0)
(1.05263 0.0191437 0)
(1.05409 0.0173294 0)
(1.05604 0.0155747 0)
(1.05772 0.0143049 0)
(1.05889 0.0134184 0)
(1.05967 0.0127014 0)
(1.06008 0.0120805 0)
(1.06013 0.011539 0)
(1.05978 0.0110615 0)
(1.05904 0.0106327 0)
(1.0579 0.0102415 0)
(1.05639 0.00988054 0)
(1.05451 0.00954477 0)
(1.0523 0.00923036 0)
(1.04977 0.00893442 0)
(1.04698 0.00865467 0)
(1.04393 0.00838932 0)
(1.04067 0.00813686 0)
(1.03722 0.00789604 0)
(1.03361 0.00766573 0)
(1.02987 0.00744492 0)
(1.02602 0.00723267 0)
(1.02209 0.00702806 0)
(1.01809 0.00683022 0)
(1.01406 0.00663827 0)
(1.00999 0.00645135 0)
(1.00592 0.00626858 0)
(1.00185 0.00608902 0)
(0.997799 0.00591182 0)
(0.993778 0.00573579 0)
(0.989798 0.00556031 0)
(0.985871 0.00538345 0)
(0.982006 0.00520542 0)
(0.978212 0.00502246 0)
(0.974499 0.00483724 0)
(0.970873 0.00464158 0)
(0.967348 0.00444432 0)
(0.963924 0.00422772 0)
(0.960622 0.0040136 0)
(0.957427 0.00376694 0)
(0.954389 0.00352903 0)
(0.951448 0.00324833 0)
(0.948711 0.00295987 0)
(0.946038 0.00266629 0)
(0.943599 0.00220806 0)
(0.941114 0.00195832 0)
(0.938686 0.00120523 0)
(1.00301 0.0258374 0)
(1.0317 0.0297556 0)
(1.04671 0.0217008 0)
(1.04983 0.0187382 0)
(1.05127 0.0171117 0)
(1.05319 0.0154404 0)
(1.0549 0.0141865 0)
(1.05619 0.0133165 0)
(1.05719 0.0126228 0)
(1.058 0.0120257 0)
(1.05861 0.0115086 0)
(1.059 0.0110575 0)
(1.05916 0.010657 0)
(1.05909 0.0102955 0)
(1.05877 0.00996505 0)
(1.05821 0.00965998 0)
(1.05741 0.00937599 0)
(1.05637 0.00910972 0)
(1.05511 0.00885856 0)
(1.05364 0.00862041 0)
(1.05197 0.00839358 0)
(1.05011 0.00817669 0)
(1.04809 0.00796853 0)
(1.04592 0.00776806 0)
(1.04361 0.00757433 0)
(1.04119 0.00738647 0)
(1.03866 0.00720363 0)
(1.03605 0.00702499 0)
(1.03336 0.00684974 0)
(1.03061 0.00667706 0)
(1.02782 0.00650606 0)
(1.02499 0.00633595 0)
(1.02214 0.00616556 0)
(1.01928 0.00599431 0)
(1.01641 0.00582031 0)
(1.01356 0.00564374 0)
(1.01073 0.00546096 0)
(1.00792 0.00527438 0)
(1.00516 0.00507635 0)
(1.00244 0.00487461 0)
(0.999768 0.00465342 0)
(0.997169 0.00443093 0)
(0.994631 0.00417831 0)
(0.992187 0.0039267 0)
(0.989807 0.00363991 0)
(0.987546 0.00333265 0)
(0.985337 0.00302899 0)
(0.983245 0.00257275 0)
(0.981112 0.00229355 0)
(0.978943 0.00168416 0)
(1.00268 0.0238093 0)
(1.0291 0.0286735 0)
(1.0438 0.021166 0)
(1.04714 0.0183297 0)
(1.04858 0.0168806 0)
(1.05046 0.0153018 0)
(1.05217 0.0140655 0)
(1.05346 0.0132074 0)
(1.05451 0.0125303 0)
(1.05541 0.0119483 0)
(1.05619 0.0114448 0)
(1.05684 0.0110077 0)
(1.05737 0.0106226 0)
(1.05776 0.0102779 0)
(1.05802 0.00996539 0)
(1.05812 0.00967936 0)
(1.05809 0.00941518 0)
(1.0579 0.00916926 0)
(1.05755 0.00893866 0)
(1.05706 0.00872105 0)
(1.05642 0.00851449 0)
(1.05564 0.0083174 0)
(1.05472 0.0081284 0)
(1.05367 0.00794631 0)
(1.05251 0.0077701 0)
(1.05122 0.0075988 0)
(1.04984 0.0074315 0)
(1.04836 0.00726736 0)
(1.04679 0.00710552 0)
(1.04515 0.00694514 0)
(1.04344 0.00678531 0)
(1.04168 0.00662524 0)
(1.03986 0.00646376 0)
(1.038 0.00630026 0)
(1.03612 0.00613286 0)
(1.03421 0.0059617 0)
(1.03228 0.00578325 0)
(1.03035 0.0055996 0)
(1.02842 0.00540374 0)
(1.0265 0.00520216 0)
(1.02459 0.00498131 0)
(1.02272 0.00475558 0)
(1.02086 0.00450226 0)
(1.01905 0.00424307 0)
(1.01727 0.00395524 0)
(1.01554 0.00363779 0)
(1.01384 0.0033288 0)
(1.01218 0.00288517 0)
(1.01046 0.00258867 0)
(1.00865 0.00209794 0)
(1.00238 0.0218878 0)
(1.02663 0.0275768 0)
(1.04098 0.0206516 0)
(1.04454 0.0179198 0)
(1.04599 0.0166351 0)
(1.04784 0.0151574 0)
(1.04954 0.013943 0)
(1.05084 0.013096 0)
(1.05187 0.012434 0)
(1.05278 0.0118644 0)
(1.05359 0.0113702 0)
(1.05431 0.0109415 0)
(1.05494 0.0105651 0)
(1.0555 0.0102295 0)
(1.05598 0.00992688 0)
(1.05637 0.00965147 0)
(1.05668 0.00939872 0)
(1.0569 0.00916494 0)
(1.05703 0.00894711 0)
(1.05706 0.00874276 0)
(1.057 0.00854981 0)
(1.05684 0.00836652 0)
(1.05659 0.00819139 0)
(1.05625 0.00802313 0)
(1.05581 0.00786056 0)
(1.05529 0.00770262 0)
(1.05468 0.00754833 0)
(1.054 0.00739675 0)
(1.05324 0.00724695 0)
(1.05241 0.00709805 0)
(1.05151 0.00694906 0)
(1.05056 0.00679917 0)
(1.04955 0.00664712 0)
(1.0485 0.0064923 0)
(1.0474 0.00633282 0)
(1.04626 0.00616868 0)
(1.0451 0.00599654 0)
(1.04391 0.00581807 0)
(1.0427 0.00562698 0)
(1.04148 0.00542845 0)
(1.04025 0.00521114 0)
(1.03901 0.00498583 0)
(1.03778 0.00473545 0)
(1.03656 0.00447361 0)
(1.03534 0.0041884 0)
(1.03413 0.00386804 0)
(1.03292 0.00355783 0)
(1.0317 0.0031344 0)
(1.0304 0.00283164 0)
(1.02898 0.00243751 0)
(1.0021 0.0200738 0)
(1.0243 0.0264675 0)
(1.03824 0.0201555 0)
(1.04201 0.0175104 0)
(1.04348 0.0163749 0)
(1.04531 0.015006 0)
(1.04701 0.0138186 0)
(1.0483 0.0129827 0)
(1.04933 0.0123356 0)
(1.05022 0.0117784 0)
(1.05102 0.0112926 0)
(1.05174 0.0108705 0)
(1.0524 0.0105 0)
(1.053 0.0101701 0)
(1.05354 0.0098733 0)
(1.05403 0.00960387 0)
(1.05446 0.00935748 0)
(1.05485 0.0091305 0)
(1.05518 0.00891993 0)
(1.05545 0.00872329 0)
(1.05567 0.00853846 0)
(1.05582 0.00836366 0)
(1.05592 0.00819732 0)
(1.05596 0.00803807 0)
(1.05594 0.00788467 0)
(1.05586 0.007736 0)
(1.05572 0.00759099 0)
(1.05553 0.00744864 0)
(1.05528 0.00730797 0)
(1.05497 0.00716802 0)
(1.05462 0.00702775 0)
(1.05422 0.00688629 0)
(1.05377 0.00674234 0)
(1.05327 0.00659521 0)
(1.05274 0.00644301 0)
(1.05217 0.00628562 0)
(1.05157 0.00611987 0)
(1.05094 0.00594701 0)
(1.05029 0.00576145 0)
(1.04961 0.00556711 0)
(1.04891 0.00535476 0)
(1.0482 0.00513188 0)
(1.04747 0.00488637 0)
(1.04674 0.00462521 0)
(1.04599 0.00434471 0)
(1.04522 0.00402682 0)
(1.04444 0.00371855 0)
(1.04361 0.0033196 0)
(1.04268 0.00301958 0)
(1.04162 0.0027029 0)
(1.00185 0.0183676 0)
(1.0221 0.0253496 0)
(1.03561 0.019674 0)
(1.03957 0.0171033 0)
(1.04107 0.0161008 0)
(1.04287 0.0148466 0)
(1.04457 0.0136918 0)
(1.04586 0.0128673 0)
(1.04687 0.0122353 0)
(1.04775 0.0116911 0)
(1.04854 0.0112139 0)
(1.04925 0.010798 0)
(1.0499 0.0104327 0)
(1.0505 0.0101074 0)
(1.05105 0.00981479 0)
(1.05156 0.00954935 0)
(1.05203 0.00930691 0)
(1.05246 0.00908396 0)
(1.05286 0.00887759 0)
(1.05322 0.00868535 0)
(1.05355 0.00850516 0)
(1.05384 0.00833524 0)
(1.05409 0.00817401 0)
(1.05431 0.0080201 0)
(1.05449 0.00787225 0)
(1.05464 0.0077293 0)
(1.05474 0.00759016 0)
(1.05481 0.0074538 0)
(1.05485 0.00731917 0)
(1.05484 0.00718531 0)
(1.05481 0.00705112 0)
(1.05473 0.00691568 0)
(1.05463 0.00677766 0)
(1.05449 0.00663632 0)
(1.05432 0.00648978 0)
(1.05412 0.00633777 0)
(1.05389 0.00617734 0)
(1.05364 0.00600927 0)
(1.05336 0.00582875 0)
(1.05307 0.00563844 0)
(1.05275 0.00543108 0)
(1.05241 0.00521132 0)
(1.05205 0.00497112 0)
(1.05167 0.00471253 0)
(1.05127 0.00443749 0)
(1.05084 0.00412543 0)
(1.05038 0.00382128 0)
(1.04986 0.00344817 0)
(1.04924 0.00315729 0)
(1.04849 0.00290173 0)
(1.00162 0.0167689 0)
(1.02004 0.0242274 0)
(1.03308 0.0192028 0)
(1.03722 0.0167001 0)
(1.03875 0.0158138 0)
(1.04051 0.0146786 0)
(1.04221 0.0135623 0)
(1.0435 0.0127498 0)
(1.04451 0.0121327 0)
(1.04538 0.0116022 0)
(1.04615 0.0111342 0)
(1.04685 0.0107247 0)
(1.04749 0.0103645 0)
(1.04807 0.0100437 0)
(1.04861 0.00975482 0)
(1.04912 0.00949272 0)
(1.04959 0.00925335 0)
(1.05003 0.00903331 0)
(1.05044 0.00882978 0)
(1.05083 0.00864035 0)
(1.05119 0.00846301 0)
(1.05152 0.00829599 0)
(1.05183 0.00813776 0)
(1.05212 0.00798696 0)
(1.05238 0.00784232 0)
(1.05262 0.00770271 0)
(1.05284 0.00756702 0)
(1.05303 0.00743421 0)
(1.0532 0.00730323 0)
(1.05335 0.0071731 0)
(1.05347 0.00704271 0)
(1.05357 0.0069111 0)
(1.05365 0.00677695 0)
(1.05371 0.00663944 0)
(1.05374 0.00649676 0)
(1.05376 0.00634848 0)
(1.05375 0.00619188 0)
(1.05373 0.00602734 0)
(1.05368 0.00585073 0)
(1.05362 0.00566366 0)
(1.05354 0.00546055 0)
(1.05344 0.00524375 0)
(1.05332 0.00500843 0)
(1.05318 0.0047532 0)
(1.05301 0.00448345 0)
(1.05281 0.00417898 0)
(1.05258 0.00388021 0)
(1.05228 0.00353225 0)
(1.05188 0.00325423 0)
(1.05136 0.00304603 0)
(1.00142 0.0152769 0)
(1.01811 0.0231049 0)
(1.03066 0.0187382 0)
(1.03496 0.0163022 0)
(1.03653 0.0155154 0)
(1.03825 0.0145014 0)
(1.03993 0.0134298 0)
(1.04124 0.01263 0)
(1.04224 0.0120278 0)
(1.04309 0.0115115 0)
(1.04386 0.0110533 0)
(1.04454 0.0106505 0)
(1.04517 0.0102957 0)
(1.04574 0.00997936 0)
(1.04627 0.00969427 0)
(1.04676 0.00943543 0)
(1.04722 0.00919891 0)
(1.04766 0.00898145 0)
(1.04806 0.00878028 0)
(1.04845 0.00859307 0)
(1.04881 0.00841783 0)
(1.04915 0.00825285 0)
(1.04948 0.00809662 0)
(1.04978 0.0079478 0)
(1.05007 0.00780515 0)
(1.05034 0.00766755 0)
(1.0506 0.00753391 0)
(1.05084 0.00740319 0)
(1.05106 0.00727435 0)
(1.05127 0.00714641 0)
(1.05147 0.00701825 0)
(1.05165 0.00688892 0)
(1.05181 0.00675708 0)
(1.05196 0.00662189 0)
(1.0521 0.00648161 0)
(1.05222 0.00633566 0)
(1.05233 0.00618158 0)
(1.05243 0.00601935 0)
(1.05251 0.00584552 0)
(1.05257 0.00566076 0)
(1.05262 0.00546093 0)
(1.05266 0.00524664 0)
(1.05268 0.00501536 0)
(1.05268 0.00476369 0)
(1.05265 0.00449868 0)
(1.05259 0.00420239 0)
(1.05249 0.00390967 0)
(1.05233 0.00358486 0)
(1.05209 0.00332126 0)
(1.05174 0.00314892 0)
(1.00124 0.0138903 0)
(1.01632 0.0219861 0)
(1.02834 0.0182762 0)
(1.03279 0.0159108 0)
(1.0344 0.015207 0)
(1.03608 0.0143145 0)
(1.03775 0.0132938 0)
(1.03906 0.0125082 0)
(1.04005 0.0119205 0)
(1.0409 0.0114189 0)
(1.04165 0.0109711 0)
(1.04233 0.0105754 0)
(1.04294 0.0102262 0)
(1.0435 0.00991445 0)
(1.04402 0.00963329 0)
(1.0445 0.00937777 0)
(1.04495 0.00914414 0)
(1.04537 0.00892922 0)
(1.04577 0.00873032 0)
(1.04615 0.00854517 0)
(1.0465 0.00837181 0)
(1.04684 0.00820857 0)
(1.04716 0.00805396 0)
(1.04746 0.00790666 0)
(1.04775 0.00776548 0)
(1.04803 0.00762928 0)
(1.04829 0.00749702 0)
(1.04855 0.00736765 0)
(1.04879 0.00724016 0)
(1.04902 0.00711357 0)
(1.04923 0.00698676 0)
(1.04944 0.00685877 0)
(1.04964 0.00672832 0)
(1.04983 0.0065945 0)
(1.05001 0.00645565 0)
(1.05017 0.00631109 0)
(1.05033 0.00615859 0)
(1.05048 0.0059978 0)
(1.05062 0.00582586 0)
(1.05075 0.0056427 0)
(1.05086 0.00544531 0)
(1.05097 0.00523306 0)
(1.05106 0.00500504 0)
(1.05112 0.00475684 0)
(1.05117 0.00449599 0)
(1.05119 0.00420785 0)
(1.05117 0.00392152 0)
(1.05109 0.00361721 0)
(1.05094 0.0033681 0)
(1.0507 0.00322189 0)
(1.00107 0.0126069 0)
(1.01466 0.0208751 0)
(1.02613 0.0178136 0)
(1.0307 0.0155269 0)
(1.03236 0.0148906 0)
(1.034 0.0141174 0)
(1.03566 0.0131539 0)
(1.03697 0.0123843 0)
(1.03796 0.0118108 0)
(1.0388 0.0113243 0)
(1.03954 0.0108875 0)
(1.04021 0.0104993 0)
(1.04081 0.0101558 0)
(1.04136 0.00984891 0)
(1.04187 0.00957182 0)
(1.04234 0.00931975 0)
(1.04278 0.00908908 0)
(1.04319 0.00887677 0)
(1.04358 0.00868018 0)
(1.04394 0.00849709 0)
(1.04429 0.00832559 0)
(1.04461 0.00816402 0)
(1.04492 0.00801094 0)
(1.04522 0.00786504 0)
(1.04551 0.00772514 0)
(1.04578 0.00759014 0)
(1.04604 0.00745899 0)
(1.04629 0.00733068 0)
(1.04653 0.00720419 0)
(1.04676 0.00707856 0)
(1.04698 0.00695269 0)
(1.04719 0.00682561 0)
(1.0474 0.00669605 0)
(1.04759 0.0065631 0)
(1.04778 0.00642518 0)
(1.04797 0.00628147 0)
(1.04814 0.00613001 0)
(1.04831 0.00597015 0)
(1.04847 0.00579953 0)
(1.04862 0.00561753 0)
(1.04876 0.00542201 0)
(1.04889 0.00521153 0)
(1.04901 0.00498617 0)
(1.04911 0.00474134 0)
(1.04919 0.00448424 0)
(1.04924 0.00420387 0)
(1.04925 0.00392411 0)
(1.04922 0.00363749 0)
(1.04912 0.00340193 0)
(1.04896 0.0032738 0)
(1.00093 0.0114242 0)
(1.01313 0.0197759 0)
(1.02403 0.0173472 0)
(1.0287 0.0151511 0)
(1.03042 0.0145681 0)
(1.03202 0.0139099 0)
(1.03365 0.0130096 0)
(1.03496 0.0122583 0)
(1.03596 0.0116987 0)
(1.03679 0.0112276 0)
(1.03752 0.0108024 0)
(1.03818 0.0104221 0)
(1.03877 0.0100845 0)
(1.03931 0.00978266 0)
(1.03981 0.00950979 0)
(1.04027 0.00926131 0)
(1.0407 0.00903372 0)
(1.0411 0.0088241 0)
(1.04148 0.00862989 0)
(1.04183 0.00844892 0)
(1.04217 0.00827932 0)
(1.04248 0.00811945 0)
(1.04279 0.00796789 0)
(1.04307 0.00782338 0)
(1.04335 0.00768474 0)
(1.04361 0.00755088 0)
(1.04387 0.00742078 0)
(1.04411 0.00729343 0)
(1.04434 0.00716784 0)
(1.04457 0.00704304 0)
(1.04478 0.00691795 0)
(1.04499 0.00679159 0)
(1.04519 0.00666275 0)
(1.04539 0.00653045 0)
(1.04558 0.00639321 0)
(1.04576 0.00625013 0)
(1.04594 0.00609945 0)
(1.04611 0.00594028 0)
(1.04627 0.00577071 0)
(1.04642 0.00558968 0)
(1.04657 0.00539569 0)
(1.04671 0.00518687 0)
(1.04683 0.00496381 0)
(1.04694 0.00472227 0)
(1.04703 0.00446871 0)
(1.0471 0.00419566 0)
(1.04712 0.00392251 0)
(1.04711 0.00365088 0)
(1.04704 0.00342725 0)
(1.04693 0.00331047 0)
(1.0008 0.010339 0)
(1.01173 0.0186928 0)
(1.02205 0.0168743 0)
(1.02678 0.0147836 0)
(1.02857 0.0142416 0)
(1.03013 0.0136918 0)
(1.03174 0.0128601 0)
(1.03305 0.0121301 0)
(1.03405 0.0115842 0)
(1.03487 0.0111285 0)
(1.03559 0.0107157 0)
(1.03624 0.0103437 0)
(1.03683 0.0100123 0)
(1.03736 0.00971562 0)
(1.03784 0.00944714 0)
(1.03829 0.00920238 0)
(1.03871 0.00897798 0)
(1.0391 0.00877115 0)
(1.03947 0.00857941 0)
(1.03982 0.00840063 0)
(1.04014 0.00823297 0)
(1.04045 0.00807486 0)
(1.04075 0.00792488 0)
(1.04103 0.00778178 0)
(1.04129 0.00764441 0)
(1.04155 0.00751172 0)
(1.04179 0.00738267 0)
(1.04203 0.00725629 0)
(1.04225 0.00713157 0)
(1.04247 0.00700758 0)
(1.04268 0.00688323 0)
(1.04288 0.00675756 0)
(1.04308 0.00662937 0)
(1.04326 0.00649766 0)
(1.04345 0.00636104 0)
(1.04362 0.00621852 0)
(1.0438 0.00606851 0)
(1.04396 0.00590998 0)
(1.04412 0.00574132 0)
(1.04427 0.00556122 0)
(1.04442 0.00536862 0)
(1.04455 0.00516145 0)
(1.04467 0.00494055 0)
(1.04478 0.00470227 0)
(1.04487 0.00445219 0)
(1.04493 0.00418595 0)
(1.04497 0.00391935 0)
(1.04496 0.00366026 0)
(1.04492 0.00344648 0)
(1.04485 0.00333552 0)
(1.00069 0.00934727 0)
(1.01045 0.0176297 0)
(1.02018 0.0163926 0)
(1.02495 0.0144244 0)
(1.02681 0.0139131 0)
(1.02833 0.0134634 0)
(1.02991 0.0127049 0)
(1.03122 0.0119998 0)
(1.03222 0.0114674 0)
(1.03304 0.0110271 0)
(1.03375 0.0106272 0)
(1.03439 0.010264 0)
(1.03497 0.00993908 0)
(1.03549 0.00964772 0)
(1.03597 0.00938379 0)
(1.03641 0.00914289 0)
(1.03682 0.00892181 0)
(1.03721 0.00871786 0)
(1.03756 0.00852867 0)
(1.0379 0.00835215 0)
(1.03822 0.00818652 0)
(1.03852 0.00803021 0)
(1.0388 0.00788186 0)
(1.03908 0.00774022 0)
(1.03933 0.00760418 0)
(1.03958 0.00747268 0)
(1.03982 0.00734471 0)
(1.04004 0.00721932 0)
(1.04026 0.00709551 0)
(1.04047 0.00697234 0)
(1.04067 0.00684875 0)
(1.04087 0.00672378 0)
(1.04105 0.00659624 0)
(1.04124 0.00646513 0)
(1.04141 0.00632913 0)
(1.04158 0.00618717 0)
(1.04175 0.00603783 0)
(1.0419 0.00587995 0)
(1.04206 0.00571217 0)
(1.0422 0.00553305 0)
(1.04234 0.00534179 0)
(1.04247 0.00513634 0)
(1.04258 0.00491755 0)
(1.04268 0.00468252 0)
(1.04277 0.00443595 0)
(1.04283 0.00417602 0)
(1.04286 0.00391582 0)
(1.04287 0.00366695 0)
(1.04284 0.0034609 0)
(1.0428 0.003351 0)
(1.0006 0.00844487 0)
(1.00929 0.0165908 0)
(1.01842 0.0159003 0)
(1.02321 0.0140731 0)
(1.02513 0.0135844 0)
(1.02662 0.0132252 0)
(1.02817 0.0125434 0)
(1.02948 0.011867 0)
(1.03048 0.0113482 0)
(1.03129 0.0109232 0)
(1.032 0.0105367 0)
(1.03263 0.0101828 0)
(1.0332 0.0098647 0)
(1.03372 0.00957886 0)
(1.03419 0.00931965 0)
(1.03462 0.00908277 0)
(1.03502 0.00886512 0)
(1.0354 0.00866417 0)
(1.03575 0.00847761 0)
(1.03608 0.00830344 0)
(1.03639 0.0081399 0)
(1.03668 0.00798547 0)
(1.03696 0.00783879 0)
(1.03722 0.00769867 0)
(1.03747 0.00756399 0)
(1.03771 0.00743373 0)
(1.03794 0.00730689 0)
(1.03816 0.00718252 0)
(1.03837 0.00705965 0)
(1.03857 0.00693733 0)
(1.03876 0.00681454 0)
(1.03895 0.00669029 0)
(1.03913 0.00656345 0)
(1.03931 0.00643297 0)
(1.03948 0.0062976 0)
(1.03964 0.00615625 0)
(1.03979 0.0060076 0)
(1.03995 0.00585044 0)
(1.04009 0.00568356 0)
(1.04023 0.0055055 0)
(1.04036 0.00531559 0)
(1.04048 0.00511194 0)
(1.04059 0.00489529 0)
(1.04068 0.00466349 0)
(1.04076 0.00442049 0)
(1.04082 0.00416638 0)
(1.04085 0.00391222 0)
(1.04086 0.00367162 0)
(1.04084 0.00347092 0)
(1.04083 0.00335785 0)
(1.00051 0.00762698 0)
(1.00824 0.0155799 0)
(1.01677 0.0153962 0)
(1.02155 0.0137292 0)
(1.02354 0.0132573 0)
(1.02501 0.0129779 0)
(1.02652 0.012375 0)
(1.02782 0.0117314 0)
(1.02883 0.0112269 0)
(1.02963 0.0108167 0)
(1.03033 0.0104441 0)
(1.03096 0.0101002 0)
(1.03152 0.00978908 0)
(1.03203 0.00950895 0)
(1.03249 0.00925464 0)