/*--------------------------------*- C++ -*----------------------------------*\
  =========                 |
  \\      /  F ield         | OpenFOAM: The Open Source CFD Toolbox
   \\    /   O peration     | Website:  https://openfoam.org
    \\  /    A nd           | Version:  7
     \\/     M anipulation  |
\*---------------------------------------------------------------------------*/
FoamFile
{
    version     2.0;
    format      ascii;
    class       volVectorField;
    location    "0.42";
    object      vorticity;
}
// * * * * * * * * * * * * * * * * * * * * * * * * * * * * * * * * * * * * * //

dimensions      [0 0 -1 0 0 0 0];

internalField   nonuniform List<vector> 
70000
(
(0 -0 -45716)
(0 -0 -28616.6)
(0 -0 -20910.9)
(0 -0 -16976)
(0 -0 -14953.3)
(0 -0 -13645)
(0 -0 -12634.4)
(0 -0 -11820.9)
(0 -0 -11156.2)
(0 -0 -10601.5)
(0 -0 -10128.8)
(0 -0 -9719.51)
(0 -0 -9360.67)
(0 -0 -9042.9)
(0 -0 -8759.12)
(0 -0 -8503.82)
(0 -0 -8272.7)
(0 -0 -8062.31)
(0 -0 -7869.86)
(0 -0 -7693.06)
(0 -0 -7530.03)
(0 -0 -7379.19)
(0 -0 -7239.21)
(0 -0 -7108.97)
(0 -0 -6987.5)
(0 -0 -6874)
(0 -0 -6767.77)
(0 -0 -6668.19)
(0 -0 -6574.76)
(0 -0 -6487.02)
(0 -0 -6404.61)
(0 -0 -6327.17)
(0 -0 -6254.45)
(0 -0 -6186.2)
(0 -0 -6122.23)
(0 -0 -6062.4)
(0 -0 -6006.51)
(0 -0 -5954.67)
(0 -0 -5906.3)
(0 -0 -5862.44)
(0 -0 -5820.92)
(0 -0 -5785.77)
(0 -0 -5749.49)
(0 -0 -5725.65)
(0 -0 -5689.91)
(0 -0 -5685.65)
(0 -0 -5636.14)
(0 -0 -5675.49)
(0 -0 -5597.77)
(0 -0 -5490.14)
(0 -0 -13549.7)
(0 -0 -19947.2)
(0 -0 -18535.4)
(0 -0 -16248)
(0 -0 -14501.2)
(0 -0 -13276.4)
(0 -0 -12347.8)
(0 -0 -11597.4)
(0 -0 -10974.8)
(0 -0 -10449.5)
(0 -0 -9999.03)
(0 -0 -9607.19)
(0 -0 -9262.39)
(0 -0 -8956.12)
(0 -0 -8681.87)
(0 -0 -8434.61)
(0 -0 -8210.33)
(0 -0 -8005.85)
(0 -0 -7818.54)
(0 -0 -7646.26)
(0 -0 -7487.22)
(0 -0 -7339.94)
(0 -0 -7203.15)
(0 -0 -7075.78)
(0 -0 -6956.92)
(0 -0 -6845.79)
(0 -0 -6741.71)
(0 -0 -6644.1)
(0 -0 -6552.47)
(0 -0 -6466.38)
(0 -0 -6385.48)
(0 -0 -6309.42)
(0 -0 -6237.97)
(0 -0 -6170.87)
(0 -0 -6107.97)
(0 -0 -6049.11)
(0 -0 -5994.14)
(0 -0 -5943.15)
(0 -0 -5895.7)
(0 -0 -5852.64)
(0 -0 -5812.33)
(0 -0 -5777.95)
(0 -0 -5743.9)
(0 -0 -5720.5)
(0 -0 -5689.85)
(0 -0 -5683.78)
(0 -0 -5647.8)
(0 -0 -5673.59)
(0 -0 -5626.88)
(0 -0 -5730.03)
(0 -0 -3818.82)
(0 -0 -10829.1)
(0 -0 -13363.6)
(0 -0 -13519.4)
(0 -0 -12865.5)
(0 -0 -12138.9)
(0 -0 -11496.9)
(0 -0 -10936.4)
(0 -0 -10444.6)
(0 -0 -10012.3)
(0 -0 -9630.63)
(0 -0 -9291.48)
(0 -0 -8988.08)
(0 -0 -8714.97)
(0 -0 -8467.73)
(0 -0 -8242.78)
(0 -0 -8037.18)
(0 -0 -7848.47)
(0 -0 -7674.62)
(0 -0 -7513.93)
(0 -0 -7364.92)
(0 -0 -7226.38)
(0 -0 -7097.25)
(0 -0 -6976.61)
(0 -0 -6863.69)
(0 -0 -6757.8)
(0 -0 -6658.36)
(0 -0 -6564.85)
(0 -0 -6476.83)
(0 -0 -6393.9)
(0 -0 -6315.73)
(0 -0 -6242.03)
(0 -0 -6172.55)
(0 -0 -6107.06)
(0 -0 -6045.41)
(0 -0 -5987.44)
(0 -0 -5933.01)
(0 -0 -5882.15)
(0 -0 -5834.56)
(0 -0 -5790.74)
(0 -0 -5749.71)
(0 -0 -5713.38)
(0 -0 -5678.49)
(0 -0 -5651.09)
(0 -0 -5621.08)
(0 -0 -5606.08)
(0 -0 -5578)
(0 -0 -5580.19)
(0 -0 -5557.41)
(0 -0 -5638.86)
(0 -0 -533.068)
(0 -0 -4662.9)
(0 -0 -7719.04)
(0 -0 -9329.23)
(0 -0 -9892.84)
(0 -0 -9957.87)
(0 -0 -9825.88)
(0 -0 -9613.76)
(0 -0 -9370.37)
(0 -0 -9120.41)
(0 -0 -8876.26)
(0 -0 -8643.48)
(0 -0 -8424.15)
(0 -0 -8218.69)
(0 -0 -8026.73)
(0 -0 -7847.55)
(0 -0 -7680.28)
(0 -0 -7524)
(0 -0 -7377.84)
(0 -0 -7240.96)
(0 -0 -7112.59)
(0 -0 -6992.04)
(0 -0 -6878.66)
(0 -0 -6771.9)
(0 -0 -6671.23)
(0 -0 -6576.21)
(0 -0 -6486.4)
(0 -0 -6401.46)
(0 -0 -6321.05)
(0 -0 -6244.88)
(0 -0 -6172.7)
(0 -0 -6104.26)
(0 -0 -6039.37)
(0 -0 -5977.86)
(0 -0 -5919.56)
(0 -0 -5864.36)
(0 -0 -5812.14)
(0 -0 -5762.83)
(0 -0 -5716.33)
(0 -0 -5672.72)
(0 -0 -5631.72)
(0 -0 -5593.87)
(0 -0 -5558.29)
(0 -0 -5526.56)
(0 -0 -5496.51)
(0 -0 -5471.2)
(0 -0 -5448.77)
(0 -0 -5425.54)
(0 -0 -5425.78)
(0 -0 -5416.69)
(0 -0 322.464)
(0 -0 -1444.67)
(0 -0 -3533.1)
(0 -0 -5260.04)
(0 -0 -6400.19)
(0 -0 -7074.8)
(0 -0 -7451.93)
(0 -0 -7642.2)
(0 -0 -7713.94)
(0 -0 -7711.48)
(0 -0 -7663.4)
(0 -0 -7587.76)
(0 -0 -7495.96)
(0 -0 -7395.27)
(0 -0 -7290.34)
(0 -0 -7184.2)
(0 -0 -7078.8)
(0 -0 -6975.36)
(0 -0 -6874.68)
(0 -0 -6777.22)
(0 -0 -6683.22)
(0 -0 -6592.81)
(0 -0 -6506)
(0 -0 -6422.76)
(0 -0 -6343)
(0 -0 -6266.62)
(0 -0 -6193.49)
(0 -0 -6123.5)
(0 -0 -6056.51)
(0 -0 -5992.4)
(0 -0 -5931.05)
(0 -0 -5872.35)
(0 -0 -5816.19)
(0 -0 -5762.46)
(0 -0 -5711.08)
(0 -0 -5661.97)
(0 -0 -5615.06)
(0 -0 -5570.26)
(0 -0 -5527.59)
(0 -0 -5486.86)
(0 -0 -5448.36)
(0 -0 -5411.47)
(0 -0 -5377.32)
(0 -0 -5343.78)
(0 -0 -5315.12)
(0 -0 -5282.76)
(0 -0 -5264.89)
(0 -0 -5223.85)
(0 -0 -5237.14)
(0 -0 -5176.97)
(0 -0 364.73)
(0 -0 -158.578)
(0 -0 -1181.81)
(0 -0 -2362.67)
(0 -0 -3418.4)
(0 -0 -4256.99)
(0 -0 -4891.83)
(0 -0 -5356.92)
(0 -0 -5687.45)
(0 -0 -5915.56)
(0 -0 -6067.61)
(0 -0 -6163.75)
(0 -0 -6218.91)
(0 -0 -6244.02)
(0 -0 -6247.14)
(0 -0 -6234.18)
(0 -0 -6209.49)
(0 -0 -6176.34)
(0 -0 -6137.15)
(0 -0 -6093.73)
(0 -0 -6047.46)
(0 -0 -5999.38)
(0 -0 -5950.25)
(0 -0 -5900.69)
(0 -0 -5851.12)
(0 -0 -5801.9)
(0 -0 -5753.27)
(0 -0 -5705.42)
(0 -0 -5658.5)
(0 -0 -5612.6)
(0 -0 -5567.8)
(0 -0 -5524.14)
(0 -0 -5481.65)
(0 -0 -5440.35)
(0 -0 -5400.26)
(0 -0 -5361.36)
(0 -0 -5323.68)
(0 -0 -5287.11)
(0 -0 -5251.86)
(0 -0 -5217.51)
(0 -0 -5184.77)
(0 -0 -5152.33)
(0 -0 -5122.55)
(0 -0 -5091.08)
(0 -0 -5065.91)
(0 -0 -5032.18)
(0 -0 -5017.66)
(0 -0 -4971.42)
(0 -0 -4983.8)
(0 -0 -4918.36)
(0 -0 254.037)
(0 -0 185.322)
(0 -0 -173.381)
(0 -0 -765.016)
(0 -0 -1448.28)
(0 -0 -2116.13)
(0 -0 -2721.16)
(0 -0 -3243.89)
(0 -0 -3680.26)
(0 -0 -4036.14)
(0 -0 -4321.89)
(0 -0 -4548.69)
(0 -0 -4726.9)
(0 -0 -4865.47)
(0 -0 -4971.93)
(0 -0 -5052.44)
(0 -0 -5112.01)
(0 -0 -5154.68)
(0 -0 -5183.71)
(0 -0 -5201.74)
(0 -0 -5210.87)
(0 -0 -5212.83)
(0 -0 -5209)
(0 -0 -5200.5)
(0 -0 -5188.26)
(0 -0 -5173.01)
(0 -0 -5155.38)
(0 -0 -5135.86)
(0 -0 -5114.87)
(0 -0 -5092.74)
(0 -0 -5069.75)
(0 -0 -5046.13)
(0 -0 -5022.07)
(0 -0 -4997.72)
(0 -0 -4973.22)
(0 -0 -4948.64)
(0 -0 -4924.12)
(0 -0 -4899.61)
(0 -0 -4875.39)
(0 -0 -4851.06)
(0 -0 -4827.45)
(0 -0 -4803.08)
(0 -0 -4780.69)
(0 -0 -4755.36)
(0 -0 -4735.87)
(0 -0 -4706.54)
(0 -0 -4694.95)
(0 -0 -4653.93)
(0 -0 -4659.7)
(0 -0 -4606.58)
(0 -0 178.755)
(0 -0 204.529)
(0 -0 130.662)
(0 -0 -85.3288)
(0 -0 -418.18)
(0 -0 -815.315)
(0 -0 -1236.77)
(0 -0 -1653.6)
(0 -0 -2045.94)
(0 -0 -2402.84)
(0 -0 -2720.13)
(0 -0 -2997.76)
(0 -0 -3237.97)
(0 -0 -3444.09)
(0 -0 -3619.87)
(0 -0 -3769.03)
(0 -0 -3895.05)
(0 -0 -4001.12)
(0 -0 -4090.02)
(0 -0 -4164.19)
(0 -0 -4225.76)
(0 -0 -4276.52)
(0 -0 -4318.04)
(0 -0 -4351.63)
(0 -0 -4378.44)
(0 -0 -4399.41)
(0 -0 -4415.38)
(0 -0 -4427.04)
(0 -0 -4434.99)
(0 -0 -4439.75)
(0 -0 -4441.75)
(0 -0 -4441.37)
(0 -0 -4438.92)
(0 -0 -4434.68)
(0 -0 -4428.89)
(0 -0 -4421.72)
(0 -0 -4413.39)
(0 -0 -4403.94)
(0 -0 -4393.67)
(0 -0 -4382.3)
(0 -0 -4370.62)
(0 -0 -4357.36)
(0 -0 -4344.93)
(0 -0 -4329.11)
(0 -0 -4317.39)
(0 -0 -4296.73)
(0 -0 -4289.28)
(0 -0 -4258.75)
(0 -0 -4260.31)
(0 -0 -4221.65)
(0 -0 148.026)
(0 -0 164.625)
(0 -0 170.01)
(0 -0 120.963)
(0 -0 0.933781)
(0 -0 -180.934)
(0 -0 -409.19)
(0 -0 -667.416)
(0 -0 -939.736)
(0 -0 -1213.22)
(0 -0 -1478.68)
(0 -0 -1730.14)
(0 -0 -1964.12)
(0 -0 -2178.98)
(0 -0 -2374.33)
(0 -0 -2550.63)
(0 -0 -2708.84)
(0 -0 -2850.21)
(0 -0 -2976.1)
(0 -0 -3087.91)
(0 -0 -3187)
(0 -0 -3274.66)
(0 -0 -3352.07)
(0 -0 -3420.32)
(0 -0 -3480.4)
(0 -0 -3533.19)
(0 -0 -3579.46)
(0 -0 -3619.93)
(0 -0 -3655.22)
(0 -0 -3685.86)
(0 -0 -3712.36)
(0 -0 -3735.13)
(0 -0 -3754.56)
(0 -0 -3770.98)
(0 -0 -3784.67)
(0 -0 -3795.89)
(0 -0 -3804.87)
(0 -0 -3811.75)
(0 -0 -3816.79)
(0 -0 -3819.91)
(0 -0 -3821.66)
(0 -0 -3821.23)
(0 -0 -3820.39)
(0 -0 -3816.06)
(0 -0 -3813.77)
(0 -0 -3804.01)
(0 -0 -3802.72)
(0 -0 -3784.31)
(0 -0 -3786.16)
(0 -0 -3761.11)
(0 -0 136.836)
(0 -0 137.084)
(0 -0 148.756)
(0 -0 149.696)
(0 -0 122.176)
(0 -0 60.0419)
(0 -0 -36.4922)
(0 -0 -163.722)
(0 -0 -315.251)
(0 -0 -483.738)
(0 -0 -662.266)
(0 -0 -844.933)
(0 -0 -1027.02)
(0 -0 -1204.97)
(0 -0 -1376.24)
(0 -0 -1539.12)
(0 -0 -1692.62)
(0 -0 -1836.21)
(0 -0 -1969.78)
(0 -0 -2093.46)
(0 -0 -2207.57)
(0 -0 -2312.55)
(0 -0 -2408.9)
(0 -0 -2497.19)
(0 -0 -2577.94)
(0 -0 -2651.72)
(0 -0 -2719.03)
(0 -0 -2780.39)
(0 -0 -2836.26)
(0 -0 -2887.06)
(0 -0 -2933.2)
(0 -0 -2975.06)
(0 -0 -3012.95)
(0 -0 -3047.19)
(0 -0 -3078.04)
(0 -0 -3105.76)
(0 -0 -3130.55)
(0 -0 -3152.6)
(0 -0 -3172.12)
(0 -0 -3189.12)
(0 -0 -3203.99)
(0 -0 -3216.25)
(0 -0 -3227.1)
(0 -0 -3234.49)
(0 -0 -3242.2)
(0 -0 -3243.68)
(0 -0 -3249.91)
(0 -0 -3243.46)
(0 -0 -3248.87)
(0 -0 -3236.36)
(0 -0 129.959)
(0 -0 124.012)
(0 -0 129.198)
(0 -0 136.403)
(0 -0 136.485)
(0 -0 123.195)
(0 -0 92.8912)
(0 -0 43.7424)
(0 -0 -24.0576)
(0 -0 -108.65)
(0 -0 -207.246)
(0 -0 -316.704)
(0 -0 -433.885)
(0 -0 -555.896)
(0 -0 -680.208)
(0 -0 -804.715)
(0 -0 -927.722)
(0 -0 -1047.92)
(0 -0 -1164.33)
(0 -0 -1276.25)
(0 -0 -1383.23)
(0 -0 -1484.99)
(0 -0 -1581.39)
(0 -0 -1672.41)
(0 -0 -1758.12)
(0 -0 -1838.64)
(0 -0 -1914.13)
(0 -0 -1984.79)
(0 -0 -2050.82)
(0 -0 -2112.43)
(0 -0 -2169.85)
(0 -0 -2223.3)
(0 -0 -2272.97)
(0 -0 -2319.08)
(0 -0 -2361.79)
(0 -0 -2401.31)
(0 -0 -2437.75)
(0 -0 -2471.3)
(0 -0 -2502.06)
(0 -0 -2530.11)
(0 -0 -2555.67)
(0 -0 -2578.48)
(0 -0 -2599.29)
(0 -0 -2616.78)
(0 -0 -2633.47)
(0 -0 -2644.91)
(0 -0 -2658.51)
(0 -0 -2662.64)
(0 -0 -2672.95)
(0 -0 -2671.4)
(0 -0 122.972)
(0 -0 116.662)
(0 -0 118.03)
(0 -0 122.508)
(0 -0 126.45)
(0 -0 126.912)
(0 -0 121.417)
(0 -0 107.669)
(0 -0 84.0372)
(0 -0 49.8311)
(0 -0 5.1588)
(0 -0 -49.2597)
(0 -0 -112.295)
(0 -0 -182.581)
(0 -0 -258.669)
(0 -0 -339.128)
(0 -0 -422.617)
(0 -0 -507.932)
(0 -0 -594.019)
(0 -0 -679.984)
(0 -0 -765.084)
(0 -0 -848.719)
(0 -0 -930.412)
(0 -0 -1009.8)
(0 -0 -1086.6)
(0 -0 -1160.62)
(0 -0 -1231.74)
(0 -0 -1299.87)
(0 -0 -1364.97)
(0 -0 -1427.04)
(0 -0 -1486.1)
(0 -0 -1542.19)
(0 -0 -1595.35)
(0 -0 -1645.67)
(0 -0 -1693.18)
(0 -0 -1737.98)
(0 -0 -1780.12)
(0 -0 -1819.67)
(0 -0 -1856.68)
(0 -0 -1891.19)
(0 -0 -1923.3)
(0 -0 -1952.84)
(0 -0 -1980.28)
(0 -0 -2004.71)
(0 -0 -2027.81)
(0 -0 -2046.55)
(0 -0 -2065.82)
(0 -0 -2078.1)
(0 -0 -2092.88)
(0 -0 -2099.91)
(0 -0 115.653)
(0 -0 110.433)
(0 -0 110.75)
(0 -0 113.188)
(0 -0 116)
(0 -0 118.256)
(0 -0 119.122)
(0 -0 117.397)
(0 -0 111.801)
(0 -0 101.288)
(0 -0 85.1424)
(0 -0 63.0006)
(0 -0 34.8118)
(0 -0 0.797415)
(0 -0 -38.6155)
(0 -0 -82.859)
(0 -0 -131.282)
(0 -0 -183.197)
(0 -0 -237.92)
(0 -0 -294.791)
(0 -0 -353.199)
(0 -0 -412.586)
(0 -0 -472.454)
(0 -0 -532.369)
(0 -0 -591.954)
(0 -0 -650.89)
(0 -0 -708.906)
(0 -0 -765.779)
(0 -0 -821.325)
(0 -0 -875.396)
(0 -0 -927.871)
(0 -0 -978.662)
(0 -0 -1027.69)
(0 -0 -1074.91)
(0 -0 -1120.27)
(0 -0 -1163.75)
(0 -0 -1205.32)
(0 -0 -1244.97)
(0 -0 -1282.67)
(0 -0 -1318.41)
(0 -0 -1352.21)
(0 -0 -1383.9)
(0 -0 -1413.76)
(0 -0 -1441.13)
(0 -0 -1467.12)
(0 -0 -1489.67)
(0 -0 -1511.87)
(0 -0 -1529.06)
(0 -0 -1546.66)
(0 -0 -1559.22)
(0 -0 108.411)
(0 -0 104.218)
(0 -0 104.427)
(0 -0 106.134)
(0 -0 107.999)
(0 -0 109.706)
(0 -0 111.236)
(0 -0 112.241)
(0 -0 112.141)
(0 -0 110.307)
(0 -0 106.156)
(0 -0 99.1884)
(0 -0 89.0339)
(0 -0 75.4552)
(0 -0 58.3581)
(0 -0 37.7683)
(0 -0 13.8167)
(0 -0 -13.2843)
(0 -0 -43.2637)
(0 -0 -75.8114)
(0 -0 -110.597)
(0 -0 -147.283)
(0 -0 -185.537)
(0 -0 -225.038)
(0 -0 -265.483)
(0 -0 -306.59)
(0 -0 -348.101)
(0 -0 -389.782)
(0 -0 -431.42)
(0 -0 -472.829)
(0 -0 -513.836)
(0 -0 -554.299)
(0 -0 -594.079)
(0 -0 -633.069)
(0 -0 -671.157)
(0 -0 -708.266)
(0 -0 -744.299)
(0 -0 -779.196)
(0 -0 -812.881)
(0 -0 -845.278)
(0 -0 -876.364)
(0 -0 -905.966)
(0 -0 -934.239)
(0 -0 -960.68)
(0 -0 -985.973)
(0 -0 -1008.77)
(0 -0 -1030.89)
(0 -0 -1049.62)
(0 -0 -1067.79)
(0 -0 -1082.73)
(0 -0 101.435)
(0 -0 98.0288)
(0 -0 98.2527)
(0 -0 99.7247)
(0 -0 101.234)
(0 -0 102.502)
(0 -0 103.719)
(0 -0 104.896)
(0 -0 105.86)
(0 -0 106.365)
(0 -0 106.131)
(0 -0 104.862)
(0 -0 102.27)
(0 -0 98.0997)
(0 -0 92.1404)
(0 -0 84.2416)
(0 -0 74.3106)
(0 -0 62.312)
(0 -0 48.2623)
(0 -0 32.222)
(0 -0 14.2882)
(0 -0 -5.41406)
(0 -0 -26.739)
(0 -0 -49.5277)
(0 -0 -73.6125)
(0 -0 -98.8237)
(0 -0 -124.991)
(0 -0 -151.949)
(0 -0 -179.537)
(0 -0 -207.602)
(0 -0 -235.998)
(0 -0 -264.588)
(0 -0 -293.243)
(0 -0 -321.845)
(0 -0 -350.277)
(0 -0 -378.441)
(0 -0 -406.232)
(0 -0 -433.56)
(0 -0 -460.338)
(0 -0 -486.465)
(0 -0 -511.894)
(0 -0 -536.459)
(0 -0 -560.23)
(0 -0 -582.837)
(0 -0 -604.661)
(0 -0 -624.869)
(0 -0 -644.405)
(0 -0 -661.828)
(0 -0 -678.448)
(0 -0 -693.05)
(0 -0 94.7608)
(0 -0 91.9814)
(0 -0 92.1936)
(0 -0 93.5166)
(0 -0 94.8941)
(0 -0 95.9876)
(0 -0 96.9797)
(0 -0 97.9684)
(0 -0 98.9259)
(0 -0 99.7857)
(0 -0 100.459)
(0 -0 100.831)
(0 -0 100.764)
(0 -0 100.109)
(0 -0 98.7218)
(0 -0 96.4658)
(0 -0 93.2237)
(0 -0 88.9004)
(0 -0 83.4256)
(0 -0 76.7545)
(0 -0 68.8676)
(0 -0 59.7671)
(0 -0 49.4772)
(0 -0 38.0384)
(0 -0 25.5061)
(0 -0 11.947)
(0 -0 -2.56257)
(0 -0 -17.9404)
(0 -0 -34.099)
(0 -0 -50.9489)
(0 -0 -68.3978)
(0 -0 -86.3553)
(0 -0 -104.729)
(0 -0 -123.43)
(0 -0 -142.37)
(0 -0 -161.463)
(0 -0 -180.626)
(0 -0 -199.774)
(0 -0 -218.832)
(0 -0 -237.705)
(0 -0 -256.342)
(0 -0 -274.608)
(0 -0 -292.518)
(0 -0 -309.821)
(0 -0 -326.693)
(0 -0 -342.66)
(0 -0 -358.138)
(0 -0 -372.422)
(0 -0 -386.034)
(0 -0 -398.476)
(0 -0 88.3872)
(0 -0 86.1279)
(0 -0 86.3215)
(0 -0 87.4948)
(0 -0 88.7737)
(0 -0 89.7877)
(0 -0 90.6729)
(0 -0 91.5328)
(0 -0 92.3717)
(0 -0 93.176)
(0 -0 93.9308)
(0 -0 94.6081)
(0 -0 95.1632)
(0 -0 95.5375)
(0 -0 95.6633)
(0 -0 95.4675)
(0 -0 94.8762)
(0 -0 93.8181)
(0 -0 92.2281)
(0 -0 90.0491)
(0 -0 87.2342)
(0 -0 83.7474)
(0 -0 79.5638)
(0 -0 74.6696)
(0 -0 69.0616)
(0 -0 62.7466)
(0 -0 55.7397)
(0 -0 48.0643)
(0 -0 39.7505)
(0 -0 30.834)
(0 -0 21.3557)
(0 -0 11.3604)
(0 -0 0.896019)
(0 -0 -9.98645)
(0 -0 -21.2349)
(0 -0 -32.7937)
(0 -0 -44.6099)
(0 -0 -56.6217)
(0 -0 -68.7802)
(0 -0 -81.0107)
(0 -0 -93.2781)
(0 -0 -105.479)
(0 -0 -117.61)
(0 -0 -129.517)
(0 -0 -141.256)
(0 -0 -152.584)
(0 -0 -163.635)
(0 -0 -174.1)
(0 -0 -184.132)
(0 -0 -193.572)
(0 -0 82.3126)
(0 -0 80.4863)
(0 -0 80.6699)
(0 -0 81.6982)
(0 -0 82.8735)
(0 -0 83.8217)
(0 -0 84.6384)
(0 -0 85.4203)
(0 -0 86.1757)
(0 -0 86.8991)
(0 -0 87.593)
(0 -0 88.2578)
(0 -0 88.8857)
(0 -0 89.4608)
(0 -0 89.9605)
(0 -0 90.3566)
(0 -0 90.6166)
(0 -0 90.7048)
(0 -0 90.5847)
(0 -0 90.2195)
(0 -0 89.5743)
(0 -0 88.6169)
(0 -0 87.3185)
(0 -0 85.6549)
(0 -0 83.6064)
(0 -0 81.1584)
(0 -0 78.3016)
(0 -0 75.0313)
(0 -0 71.348)
(0 -0 67.2567)
(0 -0 62.7666)
(0 -0 57.8914)
(0 -0 52.6474)
(0 -0 47.0562)
(0 -0 41.1399)
(0 -0 34.9264)
(0 -0 28.4417)
(0 -0 21.7209)
(0 -0 14.791)
(0 -0 7.69662)
(0 -0 0.461562)
(0 -0 -6.85416)
(0 -0 -14.2365)
(0 -0 -21.6027)
(0 -0 -28.9536)
(0 -0 -36.1831)
(0 -0 -43.2985)
(0 -0 -50.1889)
(0 -0 -56.8474)
(0 -0 -63.2828)
(0 -0 76.5376)
(0 -0 75.068)
(0 -0 75.2507)
(0 -0 76.1468)
(0 -0 77.2159)
(0 -0 78.0972)
(0 -0 78.8519)
(0 -0 79.5706)
(0 -0 80.2636)
(0 -0 80.9246)
(0 -0 81.557)
(0 -0 82.1669)
(0 -0 82.7563)
(0 -0 83.3235)
(0 -0 83.8634)
(0 -0 84.3685)
(0 -0 84.8281)
(0 -0 85.2292)
(0 -0 85.5567)
(0 -0 85.794)
(0 -0 85.9234)
(0 -0 85.9267)
(0 -0 85.786)
(0 -0 85.4841)
(0 -0 85.0046)
(0 -0 84.333)
(0 -0 83.4563)
(0 -0 82.364)
(0 -0 81.0474)
(0 -0 79.5005)
(0 -0 77.7197)
(0 -0 75.704)
(0 -0 73.4544)
(0 -0 70.9753)
(0 -0 68.2719)
(0 -0 65.354)
(0 -0 62.2305)
(0 -0 58.9166)
(0 -0 55.4242)
(0 -0 51.7735)
(0 -0 47.9798)
(0 -0 44.068)
(0 -0 40.0549)
(0 -0 35.9763)
(0 -0 31.8499)
(0 -0 27.7105)
(0 -0 23.5916)
(0 -0 19.512)
(0 -0 15.5405)
(0 -0 11.5863)
(0 -0 71.0619)
(0 -0 69.8835)
(0 -0 70.071)
(0 -0 70.8493)
(0 -0 71.8141)
(0 -0 72.6281)
(0 -0 73.3224)
(0 -0 73.9811)
(0 -0 74.6176)
(0 -0 75.2249)
(0 -0 75.8052)
(0 -0 76.3641)
(0 -0 76.9053)
(0 -0 77.43)
(0 -0 77.9382)
(0 -0 78.4287)
(0 -0 78.8993)
(0 -0 79.3465)
(0 -0 79.7659)
(0 -0 80.1518)
(0 -0 80.4976)
(0 -0 80.7959)
(0 -0 81.0384)
(0 -0 81.2168)
(0 -0 81.3221)
(0 -0 81.3456)
(0 -0 81.2787)
(0 -0 81.1134)
(0 -0 80.8421)
(0 -0 80.4582)
(0 -0 79.9558)
(0 -0 79.3304)
(0 -0 78.5781)
(0 -0 77.6973)
(0 -0 76.6862)
(0 -0 75.5463)
(0 -0 74.2781)
(0 -0 72.8864)
(0 -0 71.3736)
(0 -0 69.7485)
(0 -0 68.0151)
(0 -0 66.1861)
(0 -0 64.2687)
(0 -0 62.2745)
(0 -0 60.2224)
(0 -0 58.1149)
(0 -0 55.9908)
(0 -0 53.8289)
(0 -0 51.7139)
(0 -0 49.5287)
(0 -0 65.884)
(0 -0 64.9411)
(0 -0 65.1363)
(0 -0 65.8105)
(0 -0 66.6748)
(0 -0 67.4229)
(0 -0 68.059)
(0 -0 68.6598)
(0 -0 69.2417)
(0 -0 69.7984)
(0 -0 70.3305)
(0 -0 70.8431)
(0 -0 71.3396)
(0 -0 71.8214)
(0 -0 72.2892)
(0 -0 72.7433)
(0 -0 73.1835)
(0 -0 73.6096)
(0 -0 74.0208)
(0 -0 74.4157)
(0 -0 74.7928)
(0 -0 75.1499)
(0 -0 75.4842)
(0 -0 75.7926)
(0 -0 76.0716)
(0 -0 76.3172)
(0 -0 76.5255)
(0 -0 76.6922)
(0 -0 76.8129)
(0 -0 76.8837)
(0 -0 76.9002)
(0 -0 76.859)
(0 -0 76.7563)
(0 -0 76.5897)
(0 -0 76.3562)
(0 -0 76.0548)
(0 -0 75.6834)
(0 -0 75.2427)
(0 -0 74.7318)
(0 -0 74.153)
(0 -0 73.5069)
(0 -0 72.7966)
(0 -0 72.0266)
(0 -0 71.1971)
(0 -0 70.3221)
(0 -0 69.392)
(0 -0 68.4395)
(0 -0 67.4298)
(0 -0 66.4417)
(0 -0 65.3641)
(0 -0 61.0011)
(0 -0 60.2472)
(0 -0 60.451)
(0 -0 61.0337)
(0 -0 61.8022)
(0 -0 62.4862)
(0 -0 63.067)
(0 -0 63.6123)
(0 -0 64.1417)
(0 -0 64.6497)
(0 -0 65.1359)
(0 -0 65.6046)
(0 -0 66.0591)
(0 -0 66.5005)
(0 -0 66.9295)
(0 -0 67.3462)
(0 -0 67.751)
(0 -0 68.1441)
(0 -0 68.5256)
(0 -0 68.8957)
(0 -0 69.2543)
(0 -0 69.6012)
(0 -0 69.9358)
(0 -0 70.2574)
(0 -0 70.5651)
(0 -0 70.8575)
(0 -0 71.1332)
(0 -0 71.3905)
(0 -0 71.6276)
(0 -0 71.8425)
(0 -0 72.0331)
(0 -0 72.1974)
(0 -0 72.3332)
(0 -0 72.4388)
(0 -0 72.5121)
(0 -0 72.5519)
(0 -0 72.5565)
(0 -0 72.5253)
(0 -0 72.4568)
(0 -0 72.3513)
(0 -0 72.208)
(0 -0 72.0268)
(0 -0 71.8097)
(0 -0 71.5538)
(0 -0 71.2676)
(0 -0 70.9398)
(0 -0 70.595)
(0 -0 70.1975)
(0 -0 69.8136)
(0 -0 69.3462)
(0 -0 56.4095)
(0 -0 55.8061)
(0 -0 56.0175)
(0 -0 56.5201)
(0 -0 57.1986)
(0 -0 57.8205)
(0 -0 58.3489)
(0 -0 58.8418)
(0 -0 59.3209)
(0 -0 59.7822)
(0 -0 60.2244)
(0 -0 60.6514)
(0 -0 61.0659)
(0 -0 61.4691)
(0 -0 61.8612)
(0 -0 62.2424)
(0 -0 62.6128)
(0 -0 62.9726)
(0 -0 63.3222)
(0 -0 63.662)
(0 -0 63.9922)
(0 -0 64.3131)
(0 -0 64.625)
(0 -0 64.9279)
(0 -0 65.2218)
(0 -0 65.5063)
(0 -0 65.7813)
(0 -0 66.0461)
(0 -0 66.3002)
(0 -0 66.5428)
(0 -0 66.773)
(0 -0 66.9899)
(0 -0 67.1924)
(0 -0 67.3798)
(0 -0 67.5507)
(0 -0 67.7048)
(0 -0 67.8406)
(0 -0 67.958)
(0 -0 68.0556)
(0 -0 68.1335)
(0 -0 68.1904)
(0 -0 68.2261)
(0 -0 68.2406)
(0 -0 68.2314)
(0 -0 68.2031)
(0 -0 68.1462)
(0 -0 68.078)
(0 -0 67.9683)
(0 -0 67.8698)
(0 -0 67.6992)
(0 -0 52.1038)
(0 -0 51.6197)
(0 -0 51.8364)
(0 -0 52.2693)
(0 -0 52.8641)
(0 -0 53.4262)
(0 -0 53.9051)
(0 -0 54.3487)
(0 -0 54.7802)
(0 -0 55.197)
(0 -0 55.5976)
(0 -0 55.9848)
(0 -0 56.3613)
(0 -0 56.7282)
(0 -0 57.0854)
(0 -0 57.4328)
(0 -0 57.7705)
(0 -0 58.0987)
(0 -0 58.4175)
(0 -0 58.7274)
(0 -0 59.0287)
(0 -0 59.3219)
(0 -0 59.6072)
(0 -0 59.885)
(0 -0 60.1553)
(0 -0 60.4184)
(0 -0 60.6742)
(0 -0 60.9227)
(0 -0 61.1637)
(0 -0 61.397)
(0 -0 61.6221)
(0 -0 61.8388)
(0 -0 62.0465)
(0 -0 62.245)
(0 -0 62.4335)
(0 -0 62.6119)
(0 -0 62.7796)
(0 -0 62.9365)
(0 -0 63.0818)
(0 -0 63.2157)
(0 -0 63.3368)
(0 -0 63.4455)
(0 -0 63.5405)
(0 -0 63.6209)
(0 -0 63.6883)
(0 -0 63.7362)
(0 -0 63.7762)
(0 -0 63.7844)
(0 -0 63.8032)
(0 -0 63.7599)
(0 -0 48.0777)
(0 -0 47.6876)
(0 -0 47.9068)
(0 -0 48.2792)
(0 -0 48.7971)
(0 -0 49.3018)
(0 -0 49.7342)
(0 -0 50.1317)
(0 -0 50.5183)
(0 -0 50.8931)
(0 -0 51.2542)
(0 -0 51.6039)
(0 -0 51.9446)
(0 -0 52.2771)
(0 -0 52.6012)
(0 -0 52.9167)
(0 -0 53.2236)
(0 -0 53.5217)
(0 -0 53.8114)
(0 -0 54.093)
(0 -0 54.3667)
(0 -0 54.6331)
(0 -0 54.8923)
(0 -0 55.1448)
(0 -0 55.3907)
(0 -0 55.6303)
(0 -0 55.8636)
(0 -0 56.0907)
(0 -0 56.3116)
(0 -0 56.5261)
(0 -0 56.7341)
(0 -0 56.9354)
(0 -0 57.1297)
(0 -0 57.317)
(0 -0 57.4968)
(0 -0 57.6693)
(0 -0 57.834)
(0 -0 57.9913)
(0 -0 58.1402)
(0 -0 58.2815)
(0 -0 58.4137)
(0 -0 58.5376)
(0 -0 58.6514)
(0 -0 58.7555)
(0 -0 58.8491)
(0 -0 58.9292)
(0 -0 59.0024)
(0 -0 59.0512)
(0 -0 59.1094)
(0 -0 59.1134)
(0 -0 44.3237)
(0 -0 44.0076)
(0 -0 44.2257)
(0 -0 44.5458)
(0 -0 44.9937)
(0 -0 45.4439)
(0 -0 45.8327)
(0 -0 46.1874)
(0 -0 46.5319)
(0 -0 46.8673)
(0 -0 47.1913)
(0 -0 47.5058)
(0 -0 47.8127)
(0 -0 48.1129)
(0 -0 48.406)
(0 -0 48.6916)
(0 -0 48.9693)
(0 -0 49.2392)
(0 -0 49.5015)
(0 -0 49.7563)
(0 -0 50.004)
(0 -0 50.245)
(0 -0 50.4795)
(0 -0 50.708)
(0 -0 50.9305)
(0 -0 51.1473)
(0 -0 51.3585)
(0 -0 51.5641)
(0 -0 51.7642)
(0 -0 51.9587)
(0 -0 52.1474)
(0 -0 52.3302)
(0 -0 52.5069)
(0 -0 52.6776)
(0 -0 52.8419)
(0 -0 53)
(0 -0 53.1517)
(0 -0 53.2973)
(0 -0 53.4362)
(0 -0 53.5691)
(0 -0 53.6945)
(0 -0 53.8139)
(0 -0 53.9245)
(0 -0 54.0283)
(0 -0 54.1226)
(0 -0 54.2071)
(0 -0 54.2846)
(0 -0 54.3429)
(0 -0 54.4088)
(0 -0 54.4278)
(0 -0 40.8331)
(0 -0 40.5753)
(0 -0 40.7886)
(0 -0 41.0637)
(0 -0 41.4486)
(0 -0 41.8474)
(0 -0 42.1954)
(0 -0 42.5106)
(0 -0 42.8159)
(0 -0 43.1143)
(0 -0 43.4037)
(0 -0 43.6853)
(0 -0 43.9608)
(0 -0 44.2309)
(0 -0 44.4949)
(0 -0 44.7524)
(0 -0 45.003)
(0 -0 45.2465)
(0 -0 45.483)
(0 -0 45.7127)
(0 -0 45.9361)
(0 -0 46.1532)
(0 -0 46.3646)
(0 -0 46.5704)
(0 -0 46.7709)
(0 -0 46.9662)
(0 -0 47.1565)
(0 -0 47.3418)
(0 -0 47.522)
(0 -0 47.6972)
(0 -0 47.8671)
(0 -0 48.0316)
(0 -0 48.1907)
(0 -0 48.3442)
(0 -0 48.4921)
(0 -0 48.6344)
(0 -0 48.7711)
(0 -0 48.9025)
(0 -0 49.0281)
(0 -0 49.1487)
(0 -0 49.2626)
(0 -0 49.3718)
(0 -0 49.473)
(0 -0 49.5691)
(0 -0 49.6561)
(0 -0 49.7358)
(0 -0 49.8083)
(0 -0 49.8655)
(0 -0 49.9278)
(0 -0 49.9503)
(0 -0 37.5961)
(0 -0 37.3846)
(0 -0 37.5893)
(0 -0 37.8256)
(0 -0 38.1544)
(0 -0 38.5052)
(0 -0 38.8151)
(0 -0 39.094)
(0 -0 39.3632)
(0 -0 39.6272)
(0 -0 39.8845)
(0 -0 40.1355)
(0 -0 40.3819)
(0 -0 40.624)
(0 -0 40.8611)
(0 -0 41.0925)
(0 -0 41.3178)
(0 -0 41.5367)
(0 -0 41.7493)
(0 -0 41.9557)
(0 -0 42.1563)
(0 -0 42.3513)
(0 -0 42.541)
(0 -0 42.7257)
(0 -0 42.9057)
(0 -0 43.0809)
(0 -0 43.2516)
(0 -0 43.4178)
(0 -0 43.5794)
(0 -0 43.7364)
(0 -0 43.8887)
(0 -0 44.036)
(0 -0 44.1783)
(0 -0 44.3155)
(0 -0 44.4475)
(0 -0 44.5747)
(0 -0 44.6966)
(0 -0 44.8141)
(0 -0 44.9262)
(0 -0 45.0341)
(0 -0 45.1361)
(0 -0 45.2341)
(0 -0 45.3248)
(0 -0 45.4116)
(0 -0 45.4896)
(0 -0 45.5623)
(0 -0 45.6271)
(0 -0 45.6803)
(0 -0 45.7359)
(0 -0 45.7581)
(0 -0 34.6021)
(0 -0 34.428)
(0 -0 34.6203)
(0 -0 34.8231)
(0 -0 35.1024)
(0 -0 35.4087)
(0 -0 35.6834)
(0 -0 35.929)
(0 -0 36.1651)
(0 -0 36.3974)
(0 -0 36.6249)
(0 -0 36.8478)
(0 -0 37.0673)
(0 -0 37.2836)
(0 -0 37.4959)
(0 -0 37.7033)
(0 -0 37.9053)
(0 -0 38.1015)
(0 -0 38.2919)
(0 -0 38.4767)
(0 -0 38.6562)
(0 -0 38.8306)
(0 -0 39.0003)
(0 -0 39.1655)
(0 -0 39.3263)
(0 -0 39.4829)
(0 -0 39.6355)
(0 -0 39.7839)
(0 -0 39.9283)
(0 -0 40.0684)
(0 -0 40.2041)
(0 -0 40.3354)
(0 -0 40.462)
(0 -0 40.584)
(0 -0 40.7014)
(0 -0 40.8142)
(0 -0 40.9224)
(0 -0 41.0266)
(0 -0 41.1261)
(0 -0 41.2221)
(0 -0 41.3126)
(0 -0 41.4)
(0 -0 41.4805)
(0 -0 41.5582)
(0 -0 41.6273)
(0 -0 41.6928)
(0 -0 41.7498)
(0 -0 41.7985)
(0 -0 41.8471)
(0 -0 41.8678)
(0 -0 31.8397)
(0 -0 31.696)
(0 -0 31.8729)
(0 -0 32.0471)
(0 -0 32.2832)
(0 -0 32.5486)
(0 -0 32.7906)
(0 -0 33.006)
(0 -0 33.2118)
(0 -0 33.415)
(0 -0 33.6152)
(0 -0 33.8123)
(0 -0 34.0071)
(0 -0 34.1997)
(0 -0 34.3892)
(0 -0 34.5746)
(0 -0 34.7552)
(0 -0 34.9305)
(0 -0 35.1006)
(0 -0 35.2656)
(0 -0 35.4257)
(0 -0 35.5812)
(0 -0 35.7324)
(0 -0 35.8795)
(0 -0 36.0227)
(0 -0 36.1621)
(0 -0 36.2979)
(0 -0 36.43)
(0 -0 36.5584)
(0 -0 36.6829)
(0 -0 36.8035)
(0 -0 36.9199)
(0 -0 37.0321)
(0 -0 37.14)
(0 -0 37.2436)
(0 -0 37.3433)
(0 -0 37.4388)
(0 -0 37.5307)
(0 -0 37.6186)
(0 -0 37.7034)
(0 -0 37.7833)
(0 -0 37.8608)
(0 -0 37.932)
(0 -0 38.0011)
(0 -0 38.062)
(0 -0 38.1207)
(0 -0 38.1706)
(0 -0 38.2147)
(0 -0 38.2566)
(0 -0 38.2765)
(0 -0 29.2969)
(0 -0 29.1779)
(0 -0 29.3375)
(0 -0 29.4876)
(0 -0 29.6863)
(0 -0 29.9145)
(0 -0 30.1263)
(0 -0 30.3142)
(0 -0 30.4925)
(0 -0 30.6691)
(0 -0 30.8443)
(0 -0 31.0178)
(0 -0 31.1902)
(0 -0 31.3612)
(0 -0 31.5299)
(0 -0 31.6952)
(0 -0 31.8562)
(0 -0 32.0125)
(0 -0 32.164)
(0 -0 32.3108)
(0 -0 32.4532)
(0 -0 32.5913)
(0 -0 32.7256)
(0 -0 32.8562)
(0 -0 32.9832)
(0 -0 33.1069)
(0 -0 33.2273)
(0 -0 33.3444)
(0 -0 33.4581)
(0 -0 33.5684)
(0 -0 33.6749)
(0 -0 33.7777)
(0 -0 33.8766)
(0 -0 33.9715)
(0 -0 34.0626)
(0 -0 34.1501)
(0 -0 34.234)
(0 -0 34.3147)
(0 -0 34.3918)
(0 -0 34.4664)
(0 -0 34.5367)
(0 -0 34.6051)
(0 -0 34.6677)
(0 -0 34.729)
(0 -0 34.7824)
(0 -0 34.8349)
(0 -0 34.8782)
(0 -0 34.9183)
(0 -0 34.954)
(0 -0 34.9729)
(0 -0 26.9612)
(0 -0 26.8623)
(0 -0 27.0037)
(0 -0 27.1334)
(0 -0 27.2999)
(0 -0 27.4945)
(0 -0 27.6786)
(0 -0 27.8417)
(0 -0 27.9952)
(0 -0 28.1476)
(0 -0 28.3)
(0 -0 28.4521)
(0 -0 28.6041)
(0 -0 28.7556)
(0 -0 28.9056)
(0 -0 29.0526)
(0 -0 29.1959)
(0 -0 29.3349)
(0 -0 29.4695)
(0 -0 29.5998)
(0 -0 29.726)
(0 -0 29.8484)
(0 -0 29.9672)
(0 -0 30.0827)
(0 -0 30.1951)
(0 -0 30.3044)
(0 -0 30.4108)
(0 -0 30.5142)
(0 -0 30.6145)
(0 -0 30.7117)
(0 -0 30.8055)
(0 -0 30.8958)
(0 -0 30.9825)
(0 -0 31.0656)
(0 -0 31.1453)
(0 -0 31.2217)
(0 -0 31.2948)
(0 -0 31.3653)
(0 -0 31.4327)
(0 -0 31.498)
(0 -0 31.5595)
(0 -0 31.6196)
(0 -0 31.6745)
(0 -0 31.7287)
(0 -0 31.7754)
(0 -0 31.8222)
(0 -0 31.8596)
(0 -0 31.8959)
(0 -0 31.9261)
(0 -0 31.9443)
(0 -0 24.8196)
(0 -0 24.7371)
(0 -0 24.8604)
(0 -0 24.9725)
(0 -0 25.1114)
(0 -0 25.2762)
(0 -0 25.4351)
(0 -0 25.5757)
(0 -0 25.707)
(0 -0 25.8375)
(0 -0 25.9693)
(0 -0 26.1021)
(0 -0 26.2358)
(0 -0 26.3697)
(0 -0 26.5027)
(0 -0 26.6334)
(0 -0 26.7607)
(0 -0 26.8841)
(0 -0 27.0034)
(0 -0 27.1188)
(0 -0 27.2304)
(0 -0 27.3385)
(0 -0 27.4434)
(0 -0 27.5453)
(0 -0 27.6443)
(0 -0 27.7406)
(0 -0 27.8343)
(0 -0 27.9253)
(0 -0 28.0135)
(0 -0 28.0988)
(0 -0 28.181)
(0 -0 28.26)
(0 -0 28.3356)
(0 -0 28.408)
(0 -0 28.4772)
(0 -0 28.5435)
(0 -0 28.607)
(0 -0 28.6682)
(0 -0 28.7268)
(0 -0 28.7836)
(0 -0 28.8373)
(0 -0 28.8899)
(0 -0 28.9378)
(0 -0 28.9856)
(0 -0 29.0263)
(0 -0 29.0678)
(0 -0 29.1001)
(0 -0 29.133)
(0 -0 29.158)
(0 -0 29.1761)
(0 -0 22.8594)
(0 -0 22.79)
(0 -0 22.8958)
(0 -0 22.9926)
(0 -0 23.1082)
(0 -0 23.2465)
(0 -0 23.3825)
(0 -0 23.5029)
(0 -0 23.6144)
(0 -0 23.7253)
(0 -0 23.8386)
(0 -0 23.9541)
(0 -0 24.0713)
(0 -0 24.1895)
(0 -0 24.3073)
(0 -0 24.4233)
(0 -0 24.5363)
(0 -0 24.6458)
(0 -0 24.7515)
(0 -0 24.8534)
(0 -0 24.9519)
(0 -0 25.0472)
(0 -0 25.1396)
(0 -0 25.2292)
(0 -0 25.3162)
(0 -0 25.4008)
(0 -0 25.483)
(0 -0 25.5628)
(0 -0 25.6401)
(0 -0 25.7147)
(0 -0 25.7864)
(0 -0 25.8552)
(0 -0 25.9209)
(0 -0 25.9835)
(0 -0 26.0433)
(0 -0 26.1005)
(0 -0 26.1553)
(0 -0 26.2081)
(0 -0 26.2587)
(0 -0 26.308)
(0 -0 26.3546)
(0 -0 26.4004)
(0 -0 26.4422)
(0 -0 26.4841)
(0 -0 26.5194)
(0 -0 26.5564)
(0 -0 26.584)
(0 -0 26.6139)
(0 -0 26.6347)
(0 -0 26.6518)
(0 -0 21.0674)
(0 -0 21.0085)
(0 -0 21.098)
(0 -0 21.1814)
(0 -0 21.2771)
(0 -0 21.3923)
(0 -0 21.5076)
(0 -0 21.6099)
(0 -0 21.7037)
(0 -0 21.7972)
(0 -0 21.8939)
(0 -0 21.9938)
(0 -0 22.0965)
(0 -0 22.2007)
(0 -0 22.3051)
(0 -0 22.408)
(0 -0 22.5083)
(0 -0 22.6054)
(0 -0 22.6989)
(0 -0 22.7889)
(0 -0 22.8757)
(0 -0 22.9595)
(0 -0 23.0406)
(0 -0 23.1193)
(0 -0 23.1956)
(0 -0 23.2697)
(0 -0 23.3416)
(0 -0 23.4114)
(0 -0 23.4789)
(0 -0 23.5439)
(0 -0 23.6063)
(0 -0 23.6658)
(0 -0 23.7225)
(0 -0 23.7765)
(0 -0 23.8278)
(0 -0 23.8768)
(0 -0 23.9237)
(0 -0 23.969)
(0 -0 24.0125)
(0 -0 24.055)
(0 -0 24.0953)
(0 -0 24.1352)
(0 -0 24.1714)
(0 -0 24.2081)
(0 -0 24.2388)
(0 -0 24.2716)
(0 -0 24.2951)
(0 -0 24.3223)
(0 -0 24.3393)
(0 -0 24.356)
(0 -0 19.4309)
(0 -0 19.3804)
(0 -0 19.4549)
(0 -0 19.5264)
(0 -0 19.6053)
(0 -0 19.7005)
(0 -0 19.7972)
(0 -0 19.8832)
(0 -0 19.9614)
(0 -0 20.0394)
(0 -0 20.1212)
(0 -0 20.2074)
(0 -0 20.2971)
(0 -0 20.389)
(0 -0 20.4815)
(0 -0 20.5729)
(0 -0 20.662)
(0 -0 20.748)
(0 -0 20.8307)
(0 -0 20.9102)
(0 -0 20.9866)
(0 -0 21.0602)
(0 -0 21.1314)
(0 -0 21.2003)
(0 -0 21.267)
(0 -0 21.3318)
(0 -0 21.3946)
(0 -0 21.4555)
(0 -0 21.5142)
(0 -0 21.5707)
(0 -0 21.6247)
(0 -0 21.676)
(0 -0 21.7247)
(0 -0 21.7708)
(0 -0 21.8146)
(0 -0 21.8563)
(0 -0 21.8962)
(0 -0 21.9348)
(0 -0 21.972)
(0 -0 22.0084)
(0 -0 22.0431)
(0 -0 22.0777)
(0 -0 22.1091)
(0 -0 22.1412)
(0 -0 22.1677)
(0 -0 22.1968)
(0 -0 22.2169)
(0 -0 22.2417)
(0 -0 22.2552)
(0 -0 22.2719)
(0 -0 17.9373)
(0 -0 17.8934)
(0 -0 17.9546)
(0 -0 18.0154)
(0 -0 18.0801)
(0 -0 18.1579)
(0 -0 18.2381)
(0 -0 18.3096)
(0 -0 18.3739)
(0 -0 18.4382)
(0 -0 18.5069)
(0 -0 18.5809)
(0 -0 18.6591)
(0 -0 18.7402)
(0 -0 18.8222)
(0 -0 18.9035)
(0 -0 18.9828)
(0 -0 19.0592)
(0 -0 19.1324)
(0 -0 19.2025)
(0 -0 19.2697)
(0 -0 19.3344)
(0 -0 19.3967)
(0 -0 19.4569)
(0 -0 19.5153)
(0 -0 19.5718)
(0 -0 19.6265)
(0 -0 19.6795)
(0 -0 19.7305)
(0 -0 19.7793)
(0 -0 19.8259)
(0 -0 19.8699)
(0 -0 19.9115)
(0 -0 19.9507)
(0 -0 19.9877)
(0 -0 20.0229)
(0 -0 20.0566)
(0 -0 20.0892)
(0 -0 20.1208)
(0 -0 20.1519)
(0 -0 20.1817)
(0 -0 20.2115)
(0 -0 20.2387)
(0 -0 20.2667)
(0 -0 20.2897)
(0 -0 20.3155)
(0 -0 20.3326)
(0 -0 20.3552)
(0 -0 20.3661)
(0 -0 20.3823)
(0 -0 16.5745)
(0 -0 16.5357)
(0 -0 16.5853)
(0 -0 16.6364)
(0 -0 16.6892)
(0 -0 16.7521)
(0 -0 16.8176)
(0 -0 16.8761)
(0 -0 16.9282)
(0 -0 16.9803)
(0 -0 17.0375)
(0 -0 17.1007)
(0 -0 17.1689)
(0 -0 17.2404)
(0 -0 17.3134)
(0 -0 17.3859)
(0 -0 17.4565)
(0 -0 17.5244)
(0 -0 17.5893)
(0 -0 17.6513)
(0 -0 17.7105)
(0 -0 17.7672)
(0 -0 17.8218)
(0 -0 17.8744)
(0 -0 17.9253)
(0 -0 17.9745)
(0 -0 18.0222)
(0 -0 18.0682)
(0 -0 18.1123)
(0 -0 18.1545)
(0 -0 18.1944)
(0 -0 18.232)
(0 -0 18.2673)
(0 -0 18.3003)
(0 -0 18.3313)
(0 -0 18.3608)
(0 -0 18.389)
(0 -0 18.4164)
(0 -0 18.443)
(0 -0 18.4694)
(0 -0 18.4949)
(0 -0 18.5206)
(0 -0 18.5441)
(0 -0 18.5685)
(0 -0 18.5885)
(0 -0 18.6112)
(0 -0 18.626)
(0 -0 18.6465)
(0 -0 18.6552)
(0 -0 18.6712)
(0 -0 15.3308)
(0 -0 15.2962)
(0 -0 15.3356)
(0 -0 15.378)
(0 -0 15.4207)
(0 -0 15.471)
(0 -0 15.5235)
(0 -0 15.5704)
(0 -0 15.6116)
(0 -0 15.6531)
(0 -0 15.7001)
(0 -0 15.7537)
(0 -0 15.8132)
(0 -0 15.8765)
(0 -0 15.9416)
(0 -0 16.0064)
(0 -0 16.0696)
(0 -0 16.1301)
(0 -0 16.1878)
(0 -0 16.2426)
(0 -0 16.2947)