/*--------------------------------*- C++ -*----------------------------------*\
  =========                 |
  \\      /  F ield         | OpenFOAM: The Open Source CFD Toolbox
   \\    /   O peration     | Website:  https://openfoam.org
    \\  /    A nd           | Version:  7
     \\/     M anipulation  |
\*---------------------------------------------------------------------------*/
FoamFile
{
    version     2.0;
    format      ascii;
    class       volVectorField;
    location    "0.42";
    object      wallShearStress;
}
// * * * * * * * * * * * * * * * * * * * * * * * * * * * * * * * * * * * * * //

dimensions      [0 2 -2 0 0 0 0];

internalField   uniform (0 0 0);

boundaryField
{
    velocityInlet
    {
        type            calculated;
        value           uniform (0 0 0);
    }
    pressureOutlet
    {
        type            calculated;
        value           uniform (0 0 0);
    }
    fixedWalls
    {
        type            calculated;
        value           nonuniform List<vector> 
100
(
(-0.0145956 -0.00880779 0)
(0.0113607 -0.000593294 0)
(-0.00294095 0.00058246 0)
(0.00488912 -0.000668911 0)
(0.00545072 -0.000468364 0)
(0.00710461 -2.23698e-05 0)
(0.00499742 0.000229298 0)
(0.00308897 0.000370946 0)
(0.00069793 0.000340148 0)
(-0.0010173 0.000268525 0)
(-0.00221658 0.000190312 0)
(-0.00283714 0.0001146 0)
(-0.00291687 4.04062e-05 0)
(-0.00244508 -4.76641e-05 0)
(-0.00142847 -0.00013665 0)
(5.23525e-05 -0.000196956 0)
(0.00171975 -0.000240602 0)
(0.00333701 -0.000250384 0)
(0.0047867 -0.00023781 0)
(0.00599232 -0.000207426 0)
(0.00684677 -0.000157338 0)
(0.00721635 -8.67421e-05 0)
(0.00701025 4.2234e-07 0)
(0.00630366 7.32321e-05 0)
(0.00529985 0.000123605 0)
(0.00407332 0.000177946 0)
(0.00276111 0.00019342 0)
(0.00208613 9.10511e-05 0)
(0.00312414 -0.000163679 0)
(0.00564229 -0.000354375 0)
(0.00766726 -0.000250759 0)
(0.00754444 4.61481e-05 0)
(0.00539373 0.000280895 0)
(0.00240738 0.000335335 0)
(-0.000418598 0.000280343 0)
(-0.00259863 0.000190652 0)
(-0.00403904 0.000111922 0)
(-0.00486917 5.90389e-05 0)
(-0.00526001 2.76382e-05 0)
(-0.00535956 1.13058e-05 0)
(-0.00528525 -9.23834e-07 0)
(-0.00512368 -6.94102e-06 0)
(-0.00493261 -8.4079e-06 0)
(-0.00474545 -7.24128e-06 0)
(-0.00456194 -7.34187e-06 0)
(-0.00434896 -1.27207e-05 0)
(-0.00406271 -2.38478e-05 0)
(-0.00368105 -3.7256e-05 0)
(-0.00321957 -4.84658e-05 0)
(-0.00272512 -5.40479e-05 0)
(-0.00226322 -5.14485e-05 0)
(-0.00190901 -3.87112e-05 0)
(-0.00173704 -1.7824e-05 0)
(-0.00179138 8.91187e-06 0)
(-0.00203324 2.93311e-05 0)
(-0.0023248 2.93596e-05 0)
(-0.00249155 6.8686e-06 0)
(-0.00246882 -1.88201e-05 0)
(-0.00244243 -1.78865e-05 0)
(-0.00278319 3.2501e-05 0)
(-0.00368635 9.56413e-05 0)
(-0.00494031 0.000128406 0)
(-0.00623708 0.000137393 0)
(-0.00739347 0.000138143 0)
(-0.0080886 0.000110956 0)
(-0.00775947 6.23981e-07 0)
(-0.00594767 -0.000176508 0)
(-0.00250596 -0.000385974 0)
(0.00166653 -0.000432954 0)
(0.00504348 -0.000356478 0)
(0.00669057 -0.000161906 0)
(0.00637118 4.38994e-05 0)
(0.00467019 0.000169558 0)
(0.00250988 0.000195634 0)
(0.000549868 0.000167184 0)
(-0.000921404 0.000120761 0)
(-0.0018709 7.44183e-05 0)
(-0.00241258 4.06137e-05 0)
(-0.00268418 1.92963e-05 0)
(-0.00280408 7.91844e-06 0)
(-0.00285826 3.55138e-06 0)
(-0.00290313 4.04865e-06 0)
(-0.00296981 7.24238e-06 0)
(-0.00306008 1.01509e-05 0)
(-0.00314514 9.73004e-06 0)
(-0.00318064 5.66736e-06 0)
(-0.00313317 -1.96034e-06 0)
(-0.00300118 -8.91317e-06 0)
(-0.00281282 -1.2818e-05 0)
(-0.00262035 -1.16676e-05 0)
(-0.00246615 -5.98957e-06 0)
(-0.00238613 2.18294e-06 0)
(-0.00233647 7.63466e-06 0)
(-0.00226637 6.42158e-06 0)
(-0.00200732 -7.94922e-06 0)
(-0.00154046 -3.21878e-05 0)
(-0.000564151 -6.87126e-05 0)
(0.000436468 -9.07723e-05 0)
(0.00196463 -0.000103237 0)
(0.00216959 6.40033e-05 0)
)
;
    }
    bottomWall
    {
        type            calculated;
        value           nonuniform List<vector> 
800
(
(-0.0353513 0.00216561 0)
(-0.0160368 0.000524948 0)
(-0.0105913 0.000100537 0)
(-0.00845699 3.4574e-05 0)
(-0.00749336 1.96691e-05 0)
(-0.00685806 1.59989e-05 0)
(-0.00634962 1.31998e-05 0)
(-0.00593873 1.0751e-05 0)
(-0.00560444 8.95058e-06 0)
(-0.00532604 7.65085e-06 0)
(-0.00508896 6.66585e-06 0)
(-0.00488377 5.88747e-06 0)
(-0.00470402 5.25687e-06 0)
(-0.00454495 4.73721e-06 0)
(-0.00440299 4.30292e-06 0)
(-0.00427536 3.93545e-06 0)
(-0.00415987 3.62113e-06 0)
(-0.00405478 3.34964e-06 0)
(-0.00395867 3.11313e-06 0)
(-0.00387039 2.90552e-06 0)
(-0.00378896 2.72204e-06 0)
(-0.0037136 2.55887e-06 0)
(-0.00364362 2.41296e-06 0)
(-0.00357845 2.28184e-06 0)
(-0.00351758 2.16346e-06 0)
(-0.0034606 2.05614e-06 0)
(-0.00340713 1.95848e-06 0)
(-0.00335686 1.8693e-06 0)
(-0.00330948 1.78759e-06 0)
(-0.00326476 1.71251e-06 0)
(-0.00322248 1.64333e-06 0)
(-0.00318243 1.5794e-06 0)
(-0.00314445 1.52019e-06 0)
(-0.00310836 1.46523e-06 0)
(-0.00307404 1.41408e-06 0)
(-0.00304136 1.36638e-06 0)
(-0.0030102 1.32181e-06 0)
(-0.00298045 1.2801e-06 0)
(-0.00295203 1.24098e-06 0)
(-0.00292484 1.20423e-06 0)
(-0.00289881 1.16966e-06 0)
(-0.00287387 1.13708e-06 0)
(-0.00284995 1.10636e-06 0)
(-0.00282699 1.07728e-06 0)
(-0.00280492 1.04992e-06 0)
(-0.00278372 1.02373e-06 0)
(-0.00276331 9.99394e-07 0)
(-0.00274368 9.75451e-07 0)
(-0.00272475 9.53937e-07 0)
(-0.00270652 9.30978e-07 0)
(-0.00269128 9.12165e-07 0)
(-0.0026787 9.01514e-07 0)
(-0.00266629 8.87842e-07 0)
(-0.00265407 8.73258e-07 0)
(-0.00264204 8.59594e-07 0)
(-0.00263019 8.46602e-07 0)
(-0.00261853 8.33921e-07 0)
(-0.00260703 8.21509e-07 0)
(-0.0025957 8.09393e-07 0)
(-0.00258454 7.97569e-07 0)
(-0.00257354 7.86018e-07 0)
(-0.00256269 7.7473e-07 0)
(-0.002552 7.63695e-07 0)
(-0.00254146 7.52906e-07 0)
(-0.00253107 7.42356e-07 0)
(-0.00252082 7.32039e-07 0)
(-0.00251071 7.21946e-07 0)
(-0.00250074 7.12071e-07 0)
(-0.00249091 7.02408e-07 0)
(-0.0024812 6.92949e-07 0)
(-0.00247163 6.83688e-07 0)
(-0.00246218 6.7462e-07 0)
(-0.00245285 6.6574e-07 0)
(-0.00244365 6.57041e-07 0)
(-0.00243456 6.48519e-07 0)
(-0.00242559 6.40171e-07 0)
(-0.00241674 6.3199e-07 0)
(-0.002408 6.23974e-07 0)
(-0.00239936 6.16118e-07 0)
(-0.00239084 6.08418e-07 0)
(-0.00238242 6.0087e-07 0)
(-0.0023741 5.93471e-07 0)
(-0.00236588 5.86217e-07 0)
(-0.00235776 5.79104e-07 0)
(-0.00234974 5.72129e-07 0)
(-0.00234182 5.65289e-07 0)
(-0.00233399 5.58578e-07 0)
(-0.00232625 5.51996e-07 0)
(-0.0023186 5.45538e-07 0)
(-0.00231104 5.39201e-07 0)
(-0.00230357 5.32981e-07 0)
(-0.00229618 5.26877e-07 0)
(-0.00228887 5.20883e-07 0)
(-0.00228165 5.14999e-07 0)
(-0.00227451 5.09219e-07 0)
(-0.00226745 5.03542e-07 0)
(-0.00226046 4.97964e-07 0)
(-0.00225356 4.92485e-07 0)
(-0.00224672 4.87099e-07 0)
(-0.00223997 4.81806e-07 0)
(-0.00223328 4.76602e-07 0)
(-0.00222667 4.71487e-07 0)
(-0.00222013 4.66458e-07 0)
(-0.00221365 4.61514e-07 0)
(-0.00220724 4.56652e-07 0)
(-0.00220091 4.51872e-07 0)
(-0.00219463 4.47171e-07 0)
(-0.00218842 4.42549e-07 0)
(-0.00218228 4.38005e-07 0)
(-0.0021762 4.33537e-07 0)
(-0.00217017 4.29143e-07 0)
(-0.00216421 4.24822e-07 0)
(-0.00215831 4.20574e-07 0)
(-0.00215247 4.16397e-07 0)
(-0.00214668 4.12289e-07 0)
(-0.00214095 4.0825e-07 0)
(-0.00213528 4.04277e-07 0)
(-0.00212966 4.00371e-07 0)
(-0.0021241 3.96529e-07 0)
(-0.00211859 3.92751e-07 0)
(-0.00211313 3.89035e-07 0)
(-0.00210772 3.8538e-07 0)
(-0.00210236 3.81785e-07 0)
(-0.00209705 3.7825e-07 0)
(-0.00209179 3.74772e-07 0)
(-0.00208658 3.71353e-07 0)
(-0.00208141 3.67989e-07 0)
(-0.0020763 3.64681e-07 0)
(-0.00207122 3.61425e-07 0)
(-0.0020662 3.58225e-07 0)
(-0.00206121 3.55076e-07 0)
(-0.00205627 3.5198e-07 0)
(-0.00205137 3.48932e-07 0)
(-0.00204652 3.45936e-07 0)
(-0.00204171 3.4299e-07 0)
(-0.00203693 3.40092e-07 0)
(-0.0020322 3.37243e-07 0)
(-0.00202751 3.34438e-07 0)
(-0.00202285 3.31682e-07 0)
(-0.00201824 3.28965e-07 0)
(-0.00201366 3.26302e-07 0)
(-0.00200912 3.23666e-07 0)
(-0.00200461 3.21098e-07 0)
(-0.00200014 3.18532e-07 0)
(-0.00199571 3.16065e-07 0)
(-0.00199131 3.13552e-07 0)
(-0.00198695 3.11198e-07 0)
(-0.00198262 3.08702e-07 0)
(-0.00197832 3.06446e-07 0)
(-0.00197405 3.03881e-07 0)
(-0.00197047 3.01612e-07 0)
(-0.00196755 3.00477e-07 0)
(-0.00196461 2.99066e-07 0)
(-0.00196168 2.97428e-07 0)
(-0.00195873 2.95788e-07 0)
(-0.00195578 2.94225e-07 0)
(-0.00195283 2.92669e-07 0)
(-0.00194987 2.91128e-07 0)
(-0.00194691 2.89596e-07 0)
(-0.00194394 2.88068e-07 0)
(-0.00194097 2.86551e-07 0)
(-0.00193799 2.85041e-07 0)
(-0.00193501 2.83519e-07 0)
(-0.00193202 2.82016e-07 0)
(-0.00192903 2.80512e-07 0)
(-0.00192603 2.79023e-07 0)
(-0.00192303 2.77535e-07 0)
(-0.00192002 2.76055e-07 0)
(-0.00191701 2.74583e-07 0)
(-0.00191399 2.73116e-07 0)
(-0.00191097 2.71657e-07 0)
(-0.00190794 2.70202e-07 0)
(-0.00190491 2.68753e-07 0)
(-0.00190188 2.67309e-07 0)
(-0.00189884 2.65871e-07 0)
(-0.00189579 2.64437e-07 0)
(-0.00189274 2.63013e-07 0)
(-0.00188969 2.61598e-07 0)
(-0.00188663 2.60186e-07 0)
(-0.00188356 2.58782e-07 0)
(-0.0018805 2.57388e-07 0)
(-0.00187742 2.5599e-07 0)
(-0.00187434 2.54617e-07 0)
(-0.00187126 2.53241e-07 0)
(-0.00186817 2.51875e-07 0)
(-0.00186508 2.50517e-07 0)
(-0.00186199 2.49169e-07 0)
(-0.00185888 2.47828e-07 0)
(-0.00185578 2.46499e-07 0)
(-0.00185267 2.4517e-07 0)
(-0.00184955 2.43858e-07 0)
(-0.00184643 2.42549e-07 0)
(-0.00184331 2.41255e-07 0)
(-0.00184018 2.39974e-07 0)
(-0.00183704 2.38698e-07 0)
(-0.0018339 2.37432e-07 0)
(-0.00183076 2.36173e-07 0)
(-0.00182761 2.34928e-07 0)
(-0.00182445 2.33692e-07 0)
(-0.00182129 2.32445e-07 0)
(-0.00181813 2.31231e-07 0)
(-0.00181496 2.30015e-07 0)
(-0.00181178 2.28809e-07 0)
(-0.0018086 2.27618e-07 0)
(-0.00180542 2.26428e-07 0)
(-0.00180223 2.25248e-07 0)
(-0.00179904 2.2408e-07 0)
(-0.00179584 2.22905e-07 0)
(-0.00179263 2.21753e-07 0)
(-0.00178942 2.20596e-07 0)
(-0.00178621 2.19453e-07 0)
(-0.00178299 2.18324e-07 0)
(-0.00177976 2.17214e-07 0)
(-0.00177653 2.16108e-07 0)
(-0.00177329 2.15003e-07 0)
(-0.00177005 2.13885e-07 0)
(-0.00176681 2.128e-07 0)
(-0.00176355 2.11734e-07 0)
(-0.0017603 2.10676e-07 0)
(-0.00175703 2.0962e-07 0)
(-0.00175376 2.08577e-07 0)
(-0.00175049 2.07568e-07 0)
(-0.00174721 2.06553e-07 0)
(-0.00174392 2.05568e-07 0)
(-0.00174063 2.04576e-07 0)
(-0.00173733 2.03608e-07 0)
(-0.00173402 2.02628e-07 0)
(-0.00173071 2.01749e-07 0)
(-0.00172739 2.00755e-07 0)
(-0.00172406 1.99998e-07 0)
(-0.00172073 1.98932e-07 0)
(-0.00171738 1.98448e-07 0)
(-0.00171404 1.97104e-07 0)
(-0.00171067 1.97116e-07 0)
(-0.00170733 1.95041e-07 0)
(-0.00170392 1.96395e-07 0)
(-0.00170059 1.92505e-07 0)
(-0.0016971 1.96854e-07 0)
(-0.00169382 1.88631e-07 0)
(-0.00169021 1.99747e-07 0)
(-0.00168706 1.81612e-07 0)
(-0.0016832 2.07726e-07 0)
(-0.00168035 1.67815e-07 0)
(-0.001676 2.2596e-07 0)
(-0.00167374 1.40543e-07 0)
(-0.00166852 2.63095e-07 0)
(-0.0016673 8.88987e-08 0)
(-0.00166074 3.28729e-07 0)
(-0.00166102 7.22858e-09 0)
(-0.00165268 3.62126e-07 0)
(-0.0353511 -0.00216565 0)
(-0.0160355 -0.000525 0)
(-0.0105886 -0.000100593 0)
(-0.00845287 -3.46243e-05 0)
(-0.00748796 -1.97167e-05 0)
(-0.00685147 -1.60444e-05 0)
(-0.00634192 -1.32433e-05 0)
(-0.00593 -1.07932e-05 0)
(-0.00559473 -8.99231e-06 0)
(-0.00531535 -7.69263e-06 0)
(-0.0050773 -6.70801e-06 0)
(-0.00487116 -5.93011e-06 0)
(-0.00469044 -5.29993e-06 0)
(-0.00453044 -4.78053e-06 0)
(-0.00438756 -4.34627e-06 0)
(-0.00425904 -3.97859e-06 0)
(-0.0041427 -3.66376e-06 0)
(-0.0040368 -3.39155e-06 0)
(-0.00393993 -3.15405e-06 0)
(-0.00385094 -2.94523e-06 0)
(-0.00376888 -2.76025e-06 0)
(-0.00369295 -2.59529e-06 0)
(-0.00362249 -2.44724e-06 0)
(-0.00355692 -2.31355e-06 0)
(-0.00349576 -2.19207e-06 0)
(-0.0034386 -2.0811e-06 0)
(-0.00338509 -1.97901e-06 0)
(-0.00333492 -1.88467e-06 0)
(-0.00328784 -1.79678e-06 0)
(-0.00324361 -1.71459e-06 0)
(-0.00320204 -1.63695e-06 0)
(-0.00316297 -1.56365e-06 0)
(-0.00312625 -1.49322e-06 0)
(-0.00309176 -1.42643e-06 0)
(-0.00305941 -1.36093e-06 0)
(-0.0030291 -1.29905e-06 0)
(-0.00300073 -1.23709e-06 0)
(-0.00297436 -1.17921e-06 0)
(-0.00294964 -1.12111e-06 0)
(-0.00292714 -1.06611e-06 0)
(-0.00290563 -1.01707e-06 0)
(-0.00288731 -9.58958e-07 0)
(-0.00286798 -9.39617e-07 0)
(-0.00285512 -8.46646e-07 0)
(-0.00283512 -9.29051e-07 0)
(-0.00283222 -6.56752e-07 0)
(-0.00280307 -1.10354e-06 0)
(-0.00282436 1.50276e-07 0)
(-0.00277175 -6.30641e-06 0)
(-0.00264917 0.000190651 0)
(7.07153e-05 4.77162e-06 0)
(0.000154014 -0.000225422 0)
(0.00010705 -0.000490057 0)
(-1.49001e-05 -0.00061173 0)
(-8.96049e-05 -0.000538489 0)
(-6.16059e-05 -0.000399383 0)
(3.91128e-05 -0.000366301 0)
(0.000105284 -0.000422088 0)
(4.25501e-05 -0.000425353 0)
(-0.000123472 -0.000252688 0)
(-0.000294078 9.69302e-05 0)
(-0.000368019 0.000526656 0)
(-0.000325578 0.000901706 0)
(-0.000223548 0.0011431 0)
(-0.000120791 0.00125621 0)
(-3.2714e-05 0.00126956 0)
(3.90165e-05 0.00120414 0)
(9.17296e-05 0.00108258 0)
(0.000129202 0.000920271 0)
(0.000151958 0.000733986 0)
(0.00016566 0.000537666 0)
(0.000173228 0.000337881 0)
(0.000171932 0.000130279 0)
(0.000166213 -6.96153e-05 0)
(0.000161752 -0.000259409 0)
(0.000157355 -0.000441913 0)
(0.000153094 -0.000617794 0)
(0.00014867 -0.000787166 0)
(0.000144091 -0.000950195 0)
(0.000138917 -0.00110656 0)
(0.000132909 -0.00125586 0)
(0.000125808 -0.00139743 0)
(0.000117311 -0.00153032 0)
(0.000107255 -0.00165337 0)
(9.5689e-05 -0.00176539 0)
(8.28965e-05 -0.00186529 0)
(6.9391e-05 -0.00195233 0)
(5.58343e-05 -0.00202627 0)
(4.29171e-05 -0.00208744 0)
(3.12386e-05 -0.00213675 0)
(2.12829e-05 -0.00217563 0)
(1.33877e-05 -0.002206 0)
(7.54996e-06 -0.00223008 0)
(3.51978e-06 -0.00225014 0)
(8.02218e-07 -0.00226824 0)
(-1.25622e-06 -0.00228587 0)
(-3.41601e-06 -0.00230393 0)
(-6.71708e-06 -0.00232253 0)
(-1.2106e-05 -0.00234069 0)
(-2.02721e-05 -0.00235697 0)
(-3.16802e-05 -0.00236893 0)
(-4.66393e-05 -0.0023745 0)
(-6.50977e-05 -0.00237071 0)
(-8.65631e-05 -0.00235547 0)
(-0.00011068 -0.00232713 0)
(-0.000137223 -0.0022845 0)
(-0.000166254 -0.0022264 0)
(-0.000197928 -0.00215174 0)
(-0.000232325 -0.00205938 0)
(-0.00026937 -0.00194839 0)
(-0.000308914 -0.00181735 0)
(-0.000350206 -0.00166531 0)
(-0.000392582 -0.00149079 0)
(-0.000433274 -0.00129191 0)
(-0.000466996 -0.00106645 0)
(-0.000478038 -0.000811518 0)
(-0.000447896 -0.000551672 0)
(-0.000392437 -0.000295245 0)
(-0.000303539 -3.55473e-05 0)
(-0.000134929 0.000200365 0)
(8.12497e-05 0.000372853 0)
(0.000296547 0.000456086 0)
(0.000447006 0.000446784 0)
(0.000520163 0.00038413 0)
(0.000530419 0.000307767 0)
(0.000474052 0.000222196 0)
(0.000345301 0.000141668 0)
(0.000157707 9.22764e-05 0)
(-3.0103e-05 0.000106906 0)
(-0.000150535 0.000180228 0)
(-0.000157563 0.000225126 0)
(-0.000117972 0.000214197 0)
(-9.33931e-05 0.000158956 0)
(-8.74143e-05 0.000112861 0)
(-7.22433e-05 9.45185e-05 0)
(-3.24082e-05 9.10747e-05 0)
(2.45662e-05 8.08664e-05 0)
(7.77362e-05 5.0988e-05 0)
(0.000107889 5.06437e-06 0)
(0.000108851 -3.79306e-05 0)
(9.51166e-05 -6.73929e-05 0)
(7.84169e-05 -8.775e-05 0)
(6.24801e-05 -0.000105066 0)
(4.69287e-05 -0.000121372 0)
(3.11211e-05 -0.000135043 0)
(1.61976e-05 -0.000144005 0)
(3.27119e-06 -0.00014753 0)
(-7.24356e-06 -0.000145852 0)
(-1.56727e-05 -0.000139714 0)
(-2.2676e-05 -0.000129823 0)
(-2.87718e-05 -0.000116733 0)
(-3.42262e-05 -0.000100966 0)
(-3.90312e-05 -8.29915e-05 0)
(-4.28747e-05 -6.3466e-05 0)
(-4.55647e-05 -4.32407e-05 0)
(-4.70396e-05 -2.31617e-05 0)
(-4.72666e-05 -3.93979e-06 0)
(-4.63319e-05 1.36997e-05 0)
(-4.45191e-05 2.92384e-05 0)
(-4.21744e-05 4.25888e-05 0)
(-3.95141e-05 5.38445e-05 0)
(-3.67011e-05 6.32736e-05 0)
(-3.37726e-05 7.12324e-05 0)
(-3.06364e-05 7.80688e-05 0)
(-2.70963e-05 8.39697e-05 0)
(-2.30316e-05 8.89945e-05 0)
(-1.83145e-05 9.31105e-05 0)
(-1.29005e-05 9.61396e-05 0)
(-6.83949e-06 9.78538e-05 0)
(-2.78628e-07 9.7996e-05 0)
(6.51283e-06 9.63529e-05 0)
(1.31653e-05 9.28769e-05 0)
(1.93429e-05 8.77675e-05 0)
(2.48516e-05 8.1439e-05 0)
(2.96496e-05 7.43641e-05 0)
(3.36369e-05 6.6925e-05 0)
(3.63673e-05 5.96191e-05 0)
(3.72646e-05 5.35003e-05 0)
(3.62318e-05 4.98594e-05 0)
(3.36399e-05 4.92025e-05 0)
(2.94274e-05 5.10092e-05 0)
(2.27509e-05 5.48235e-05 0)
(1.26864e-05 6.10636e-05 0)
(-8.70332e-07 7.09103e-05 0)
(-1.67722e-05 8.55061e-05 0)
(-3.30364e-05 0.000105166 0)
(-4.77194e-05 0.000129135 0)
(-5.96057e-05 0.000155971 0)
(-6.83722e-05 0.000184191 0)
(-7.43139e-05 0.000212719 0)
(-7.79249e-05 0.000240955 0)
(-7.96006e-05 0.000268589 0)
(-7.95441e-05 0.000295383 0)
(-7.78072e-05 0.000321041 0)
(-7.43704e-05 0.00034519 0)
(-6.92093e-05 0.000367404 0)
(-6.23336e-05 0.00038725 0)
(-5.3807e-05 0.000404313 0)
(-4.37531e-05 0.000418217 0)
(-3.23728e-05 0.000428647 0)
(-1.9918e-05 0.000435383 0)
(-6.48315e-06 0.000438317 0)
(7.91266e-06 0.000437333 0)
(2.29585e-05 0.000432238 0)
(3.83045e-05 0.0004231 0)
(5.3861e-05 0.000409958 0)
(6.94465e-05 0.000392905 0)
(8.48645e-05 0.000372076 0)
(9.99115e-05 0.000347643 0)
(0.000114383 0.000319816 0)
(0.000128075 0.00028884 0)
(0.00014079 0.000254988 0)
(0.000152335 0.000218562 0)
(0.000162527 0.000179888 0)
(0.000171202 0.000139312 0)
(0.000178196 9.71982e-05 0)
(0.000183352 5.39317e-05 0)
(0.000186534 9.91851e-06 0)
(0.000187628 -3.44154e-05 0)
(0.000186534 -7.86237e-05 0)
(0.000183181 -0.000122246 0)
(0.000177522 -0.00016481 0)
(0.000169549 -0.000205839 0)
(0.000159295 -0.000244865 0)
(0.000146863 -0.000281446 0)
(0.00013242 -0.000315199 0)
(0.000116156 -0.000345781 0)
(9.82849e-05 -0.000372919 0)
(7.90367e-05 -0.00039639 0)
(5.86851e-05 -0.000415985 0)
(3.75406e-05 -0.000431544 0)
(1.59468e-05 -0.000442966 0)
(-5.71768e-06 -0.000450216 0)
(-2.72004e-05 -0.000453328 0)
(-4.82192e-05 -0.000452231 0)
(-6.82648e-05 -0.000446952 0)
(-8.68593e-05 -0.000437672 0)
(-0.000103602 -0.000424607 0)
(-0.000118095 -0.000408018 0)
(-0.000129962 -0.000388276 0)
(-0.000138883 -0.000365935 0)
(-0.000144703 -0.000341978 0)
(-0.000147711 -0.00031812 0)
(-0.000149036 -0.000297637 0)
(-0.000151616 -0.000287271 0)
(-0.000162306 -0.000300222 0)
(-0.000196121 -0.000359407 0)
(-0.000283268 -0.000498019 0)
(-0.000466238 -0.000749268 0)
(-0.000754966 -0.00110659 0)
(6.261e-06 -4.57579e-05 0)
(9.7169e-05 -0.000102747 0)
(0.00023746 -0.000167981 0)
(0.000405209 -0.000176121 0)
(0.000529606 -0.000126141 0)
(0.000589378 -5.9284e-05 0)
(0.000595868 -4.68799e-07 0)
(0.000566684 3.94725e-05 0)
(0.000519794 6.19066e-05 0)
(0.00046541 7.17701e-05 0)
(0.000408709 7.6683e-05 0)
(0.000348674 8.05727e-05 0)
(0.000284289 8.39307e-05 0)
(0.000214903 8.74751e-05 0)
(0.000139547 9.25346e-05 0)
(5.5717e-05 9.97045e-05 0)
(-3.90838e-05 0.000105595 0)
(-0.000138206 0.000105249 0)
(-0.000232333 9.91737e-05 0)
(-0.000315881 8.63158e-05 0)
(-0.000380479 6.60556e-05 0)
(-0.000437452 3.2144e-05 0)
(-0.000472236 -4.26599e-05 0)
(-0.000458054 -0.000115455 0)
(-0.000437581 -0.000121663 0)
(-0.000439464 -0.000108967 0)
(-0.000501479 -5.19782e-05 0)
(-0.000433597 0.000181735 0)
(-0.000355293 0.000280741 0)
(-0.000512421 0.000302808 0)
(-0.0005651 9.73631e-05 0)
(-0.000314284 -0.00018993 0)
(-4.10968e-05 -0.0003026 0)
(0.000134098 -0.000213178 0)
(0.0002352 -0.000165362 0)
(0.000323481 -0.000119107 0)
(0.000383418 -9.68322e-05 0)
(0.000446185 -8.51367e-05 0)
(0.000497261 -7.17349e-05 0)
(0.000542093 -6.47563e-05 0)
(0.000582379 -5.65796e-05 0)
(0.000615798 -5.07882e-05 0)
(0.000645299 -4.55987e-05 0)
(0.000669475 -4.00694e-05 0)
(0.000688231 -3.44251e-05 0)
(0.000701102 -2.73057e-05 0)
(0.000706793 -1.85841e-05 0)
(0.000704113 -8.41119e-06 0)
(0.000691478 3.28415e-06 0)
(0.000667575 1.64041e-05 0)
(0.000631158 3.1059e-05 0)
(0.000581067 4.72194e-05 0)
(0.000516406 6.46029e-05 0)
(0.000436653 8.27213e-05 0)
(0.000341801 0.000100946 0)
(0.000232381 0.000118413 0)
(0.000109719 0.000134764 0)
(-2.62925e-05 0.000149241 0)
(-0.000175859 0.000162246 0)
(-0.000331815 0.000169961 0)
(-0.000481989 0.0001705 0)
(-0.000628391 0.000166077 0)
(-0.000771907 0.000158445 0)
(-0.000908997 0.000147729 0)
(-0.00103603 0.000133976 0)
(-0.00115012 0.000117797 0)
(-0.00124958 0.000100045 0)
(-0.0013335 8.18702e-05 0)
(-0.00140282 6.32927e-05 0)
(-0.00145655 4.29465e-05 0)
(-0.00149405 2.17647e-05 0)
(-0.00151701 -2.89808e-06 0)
(-0.00151982 -3.69256e-05 0)
(-0.00149587 -8.2362e-05 0)
(-0.00143736 -0.000137197 0)
(-0.00133839 -0.000193673 0)
(-0.0012001 -0.000237485 0)
(-0.00103566 -0.000259963 0)
(-0.000857737 -0.000267224 0)
(-0.000669092 -0.000269225 0)
(-0.000465866 -0.000265731 0)
(-0.000249282 -0.00023812 0)
(-4.94911e-05 -0.000167587 0)
(9.85615e-05 -7.77238e-05 0)
(0.000197607 -1.76743e-05 0)
(0.000265203 2.56156e-05 0)
(0.000294082 7.59151e-05 0)
(0.000277853 0.000105083 0)
(0.00024388 7.46233e-05 0)
(0.00021807 1.60707e-05 0)
(0.000217298 -1.72452e-05 0)
(0.000237957 -2.88578e-05 0)
(0.000265536 -2.98083e-05 0)
(0.000279036 -6.67719e-06 0)
(0.000255345 3.67087e-05 0)
(0.000187217 7.65147e-05 0)
(8.37912e-05 9.06996e-05 0)
(-1.55109e-05 5.77219e-05 0)
(-5.81069e-05 -2.93215e-06 0)
(-1.35297e-05 -4.50019e-05 0)
(-5.26136e-05 -1.7867e-05 0)
(-4.88988e-05 -7.78725e-05 0)
(-2.5331e-05 -9.42665e-05 0)
(2.86072e-05 -4.53141e-05 0)
(8.92959e-05 7.77923e-05 0)
(9.3549e-05 0.000215054 0)
(3.70257e-05 0.000277294 0)
(-2.66039e-05 0.000251478 0)
(-7.36388e-05 0.000164088 0)
(-0.000101929 4.2191e-05 0)
(-0.000105738 -8.39498e-05 0)
(-8.25237e-05 -0.000184499 0)
(-1.00096e-05 -0.000234654 0)
(0.000111497 -0.000180896 0)
(0.000185455 -9.55283e-06 0)
(0.000143987 0.000136592 0)
(6.16783e-05 0.000208463 0)
(-4.98918e-05 0.000148387 0)
(-0.000158512 3.4095e-06 0)
(-0.000249554 -0.000252851 0)
(-0.000297982 -0.00058726 0)
(-0.000273419 -0.000938105 0)
(-0.000184197 -0.00123328 0)
(-5.84867e-05 -0.00141488 0)
(8.51001e-05 -0.00147095 0)
(0.000241997 -0.00138685 0)
(0.000385069 -0.00114515 0)
(0.000428343 -0.000764386 0)
(0.000331096 -0.000375352 0)
(0.000194342 -9.09547e-05 0)
(0.000113815 9.90372e-05 0)
(9.09541e-05 0.000242246 0)
(8.75805e-05 0.000358928 0)
(7.50288e-05 0.000454709 0)
(3.54451e-05 0.000511422 0)
(-3.20503e-05 0.000519855 0)
(-0.000115062 0.000482081 0)
(-0.000186449 0.000400815 0)
(-0.000215845 0.000313814 0)
(-0.000198113 0.000190797 0)
(-5.44019e-05 9.34039e-06 0)
(0.000189174 -0.000137907 0)
(0.00039218 -0.000200976 0)
(0.00037882 -0.000212312 0)
(-7.26361e-05 -0.000162042 0)
(-0.000685161 -0.000268125 0)
(-0.00107778 -0.000599842 0)
(-0.00110338 -0.000914685 0)
(-0.00116878 -0.00156844 0)
(-0.00068611 -0.00183519 0)
(1.82546e-05 -0.00109408 0)
(0.000536215 -0.000649015 0)
(0.000784404 5.34805e-05 0)
(0.00072898 0.000651569 0)
(0.000712733 0.00113256 0)
(0.000705415 0.0015535 0)
(0.000652529 0.00187334 0)
(0.000483856 0.00210345 0)
(0.000189214 0.00230425 0)
(-0.000207949 0.00250171 0)
(-0.000579542 0.00258332 0)
(-0.000677829 0.00254688 0)
(-0.000344774 0.00271192 0)
(0.000680517 0.00332244 0)
(0.00151211 0.00329167 0)
(0.00169575 0.00437014 0)
(0.000844913 0.00531411 0)
(-2.08165e-05 0.00493856 0)
(4.2508e-05 0.00461396 0)
(0.000327719 0.00475787 0)
(0.000179437 0.00500036 0)
(-5.63622e-05 0.00494183 0)
(-4.90644e-06 0.0048294 0)
(8.66297e-05 0.00487848 0)
(1.70172e-05 0.00493006 0)
(-4.52626e-05 0.00487608 0)
(-1.21622e-05 0.00483026 0)
(3.22403e-06 0.00483556 0)
(-3.06732e-05 0.00482135 0)
(-4.56541e-05 0.00477488 0)
(-3.55368e-05 0.00473905 0)
(-3.94906e-05 0.00471452 0)
(-5.45722e-05 0.00467746 0)
(-5.95622e-05 0.00463174 0)
(-5.94589e-05 0.00459061 0)
(-6.52243e-05 0.0045502 0)
(-7.24531e-05 0.00450403 0)
(-7.57295e-05 0.00445551 0)
(-7.82523e-05 0.00440815 0)
(-8.26308e-05 0.00435983 0)
(-8.68163e-05 0.00430907 0)
(-8.96121e-05 0.00425744 0)
(-9.22665e-05 0.00420581 0)
(-9.53404e-05 0.00415343 0)
(-9.81391e-05 0.00410006 0)
(-0.000100421 0.00404628 0)
(-0.000102582 0.00399234 0)
(-0.000104753 0.00393806 0)
(-0.000106752 0.00388343 0)
(-0.000108543 0.00382866 0)
(-0.000110248 0.00377384 0)
(-0.000111917 0.00371893 0)
(-0.00011352 0.00366396 0)
(-0.00011506 0.00360897 0)
(-0.00011658 0.00355399 0)
(-0.000118107 0.00349903 0)
(-0.000119646 0.00344406 0)
(-0.000121205 0.00338911 0)
(-0.0001228 0.00333415 0)
(-0.000124444 0.0032792 0)
(-0.000126147 0.00322422 0)
(-0.000127913 0.0031692 0)
(-0.000129751 0.00311414 0)
(-0.000131666 0.00305901 0)
(-0.000133666 0.0030038 0)
(-0.000135753 0.00294848 0)
(-0.000137934 0.00289305 0)
(-0.000140212 0.00283748 0)
(-0.000142593 0.00278175 0)
(-0.00014508 0.00272584 0)
(-0.000147679 0.00266974 0)
(-0.000150394 0.00261342 0)
(-0.000153231 0.00255686 0)
(-0.000156196 0.00250004 0)
(-0.000159295 0.00244295 0)
(-0.000162535 0.00238555 0)
(-0.000165921 0.00232782 0)
(-0.000169463 0.00226973 0)
(-0.000173166 0.00221127 0)
(-0.00017704 0.00215241 0)
(-0.000181094 0.00209311 0)
(-0.000185334 0.00203335 0)
(-0.000189772 0.0019731 0)
(-0.000194414 0.00191233 0)
(-0.000199272 0.001851 0)
(-0.000204353 0.00178908 0)
(-0.000209666 0.00172654 0)
(-0.00021522 0.00166335 0)
(-0.000221024 0.00159946 0)
(-0.000227085 0.00153484 0)
(-0.000233413 0.00146947 0)
(-0.000240014 0.00140329 0)
(-0.000246899 0.00133629 0)
(-0.000254079 0.00126842 0)
(-0.000261567 0.00119965 0)
(-0.00026938 0.00112996 0)
(-0.000277539 0.00105931 0)
(-0.000286068 0.000987677 0)
(-0.000294994 0.000915025 0)
(-0.000304357 0.000841327 0)
(-0.000314206 0.000766546 0)
(-0.000324593 0.000690628 0)
(-0.00033556 0.000613494 0)
(-0.000347158 0.000535035 0)
(-0.000359471 0.000455103 0)
(-0.000372489 0.000373489 0)
(-0.000386127 0.000290015 0)
(-0.00040033 0.000204558 0)
(-0.00041511 0.000117064 0)
(-0.000430354 2.75293e-05 0)
(-0.000445924 -6.39213e-05 0)
(-0.000461904 -0.000157078 0)
(-0.000478504 -0.000251884 0)
(-0.000495827 -0.000348364 0)
(-0.00051403 -0.000446599 0)
(-0.000533272 -0.000546726 0)
(-0.000553702 -0.000648905 0)
(-0.000575465 -0.000753307 0)
(-0.000598706 -0.000860099 0)
(-0.000623579 -0.000969445 0)
(-0.00065025 -0.00108151 0)
(-0.000678908 -0.00119645 0)
(-0.000709766 -0.00131443 0)
(-0.000743067 -0.00143563 0)
(-0.000779087 -0.00156024 0)
(-0.000818142 -0.00168846 0)
(-0.00086059 -0.0018205 0)
(-0.000906837 -0.00195661 0)
(-0.000957343 -0.00209703 0)
(-0.00101263 -0.00224206 0)
(-0.00107328 -0.00239201 0)
(-0.00113996 -0.00254721 0)
(-0.0012134 -0.00270807 0)
(-0.00129444 -0.00287495 0)
(-0.00138401 -0.00304841 0)
(-0.00148311 -0.00322881 0)
(-0.00159299 -0.00341703 0)
(-0.00171475 -0.00361306 0)
(-0.00185018 -0.00381893 0)
(-0.00200015 -0.0040328 0)
(-0.00216784 -0.00426075 0)
(-0.0023524 -0.00449361 0)
(-0.00256146 -0.00475205 0)
(-0.00278673 -0.00500003 0)
(-0.00305072 -0.00530885 0)
(-0.00331742 -0.00554966 0)
(-0.00365646 -0.00596227 0)
(-0.00393245 -0.00611127 0)
(-0.00434743 -0.00677486 0)
(-0.00439668 -0.00651317 0)
)
;
    }
    frontAndBack
    {
        type            empty;
    }
}


// ************************************************************************* //
