/*--------------------------------*- C++ -*----------------------------------*\
  =========                 |
  \\      /  F ield         | OpenFOAM: The Open Source CFD Toolbox
   \\    /   O peration     | Website:  https://openfoam.org
    \\  /    A nd           | Version:  7
     \\/     M anipulation  |
\*---------------------------------------------------------------------------*/
FoamFile
{
    version     2.0;
    format      ascii;
    class       volVectorField;
    location    "0.34";
    object      ddt0(U);
}
// * * * * * * * * * * * * * * * * * * * * * * * * * * * * * * * * * * * * * //

dimensions      [0 1 -2 0 0 0 0];

internalField   nonuniform List<vector> 
70000
(
(-0.000156489 8.58496e-06 0)
(-0.000826524 4.7256e-06 0)
(-0.000678564 -4.06613e-07 0)
(0.000800063 1.26973e-06 0)
(0.00317381 -1.57521e-06 0)
(0.00614502 -4.44698e-06 0)
(0.0094518 -5.72144e-06 0)
(0.0128505 -6.75007e-06 0)
(0.0161842 -7.46733e-06 0)
(0.0193528 -7.54861e-06 0)
(0.0222938 -6.86456e-06 0)
(0.0249892 -5.64688e-06 0)
(0.0274693 -4.13091e-06 0)
(0.0297972 -2.69302e-06 0)
(0.0320564 -1.74781e-06 0)
(0.0343241 -1.44796e-06 0)
(0.0366694 -1.90161e-06 0)
(0.0391357 -2.66183e-06 0)
(0.041752 -3.79361e-06 0)
(0.044535 -4.88013e-06 0)
(0.0474941 -5.86786e-06 0)
(0.0506453 -6.70185e-06 0)
(0.054006 -7.38633e-06 0)
(0.0576006 -7.85985e-06 0)
(0.0614682 -8.43352e-06 0)
(0.065643 -8.7802e-06 0)
(0.0701774 -9.31801e-06 0)
(0.0751192 -9.70848e-06 0)
(0.0805208 -9.83227e-06 0)
(0.0864283 -9.39024e-06 0)
(0.0928911 -7.9091e-06 0)
(0.0999229 -4.44554e-06 0)
(0.107561 1.35981e-06 0)
(0.115761 1.15285e-05 0)
(0.124509 2.68512e-05 0)
(0.133688 5.03911e-05 0)
(0.143129 8.45218e-05 0)
(0.15262 0.000133982 0)
(0.161576 0.000204441 0)
(0.169731 0.000303497 0)
(0.175389 0.000445092 0)
(0.178601 0.00063499 0)
(0.174532 0.000927087 0)
(0.165589 0.00125976 0)
(0.136355 0.00193925 0)
(0.103456 0.00236817 0)
(0.00539958 0.00435462 0)
(-0.0530386 0.00432207 0)
(-0.402334 0.00904734 0)
(-0.245097 0.0158208 0)
(-0.00014308 4.5658e-05 0)
(-0.00145798 1.53139e-05 0)
(-0.000736702 -0.000122883 0)
(0.00412714 -0.000263415 0)
(0.0120466 -0.000360881 0)
(0.0218892 -0.000419982 0)
(0.0328406 -0.000448152 0)
(0.0441514 -0.00045274 0)
(0.0552725 -0.000441324 0)
(0.0658481 -0.000419396 0)
(0.0756787 -0.000392296 0)
(0.0847264 -0.000365977 0)
(0.0931049 -0.000346057 0)
(0.101029 -0.000336045 0)
(0.108751 -0.000337347 0)
(0.116498 -0.000348915 0)
(0.124447 -0.000369004 0)
(0.132718 -0.000394747 0)
(0.141389 -0.000424542 0)
(0.150513 -0.000457471 0)
(0.160138 -0.000493119 0)
(0.170328 -0.000532605 0)
(0.181158 -0.00057693 0)
(0.192726 -0.000627493 0)
(0.205159 -0.000686307 0)
(0.218589 -0.000754349 0)
(0.233182 -0.000833158 0)
(0.249104 -0.000923816 0)
(0.266544 -0.0010259 0)
(0.285674 -0.0011402 0)
(0.306713 -0.00126537 0)
(0.329804 -0.00139968 0)
(0.355185 -0.00154152 0)
(0.382942 -0.00168525 0)
(0.413284 -0.00182673 0)
(0.446226 -0.00195211 0)
(0.481743 -0.00205322 0)
(0.519828 -0.00209354 0)
(0.55961 -0.00206209 0)
(0.601389 -0.00186555 0)
(0.641759 -0.00149721 0)
(0.682651 -0.00072916 0)
(0.713162 0.000439845 0)
(0.742675 0.00251483 0)
(0.734247 0.00553963 0)
(0.73603 0.0106924 0)
(0.596721 0.0178281 0)
(0.585493 0.0328466 0)
(-0.0701744 0.0451456 0)
(0.289061 0.117374 0)
(4.82433e-06 9.8051e-05 0)
(-0.00165739 4.49403e-05 0)
(-0.0014934 -0.000320709 0)
(0.00452038 -0.000772213 0)
(0.0160587 -0.00110952 0)
(0.0313912 -0.00131881 0)
(0.0490492 -0.00142752 0)
(0.0677392 -0.00145508 0)
(0.08643 -0.00142434 0)
(0.1044 -0.00135629 0)
(0.121215 -0.00127086 0)
(0.136735 -0.00118838 0)
(0.151087 -0.00112641 0)
(0.164586 -0.00109526 0)
(0.177616 -0.00109747 0)
(0.190531 -0.00112902 0)
(0.203608 -0.00118374 0)
(0.217034 -0.00125445 0)
(0.230939 -0.00133701 0)
(0.245419 -0.00142981 0)
(0.260573 -0.00153296 0)
(0.276518 -0.00164963 0)
(0.293396 -0.00178304 0)
(0.311375 -0.00193739 0)
(0.330663 -0.00211752 0)
(0.351476 -0.00232713 0)
(0.374072 -0.00257008 0)
(0.398709 -0.00285036 0)
(0.425688 -0.00316881 0)
(0.455288 -0.00352937 0)
(0.487872 -0.00393176 0)
(0.523713 -0.00437644 0)
(0.563242 -0.00486302 0)
(0.606713 -0.0053855 0)
(0.654577 -0.00594044 0)
(0.707086 -0.00650338 0)
(0.764461 -0.0070691 0)
(0.827098 -0.00755714 0)
(0.894169 -0.00797352 0)
(0.966832 -0.00809077 0)
(1.04092 -0.00797019 0)
(1.12051 -0.00700503 0)
(1.19123 -0.00544651 0)
(1.26897 -0.00166194 0)
(1.30292 0.00326798 0)
(1.36681 0.0146415 0)
(1.25023 0.0262946 0)
(1.33326 0.0627832 0)
(0.609994 0.0881502 0)
(1.06828 0.246691 0)
(0.000152779 0.000146003 0)
(-0.00146652 0.000114965 0)
(-0.00257503 -0.000474175 0)
(0.00179407 -0.00132661 0)
(0.0132437 -0.00204914 0)
(0.0306483 -0.00254134 0)
(0.0522144 -0.00282744 0)
(0.0761272 -0.00293864 0)
(0.100835 -0.00291531 0)
(0.125161 -0.00280001 0)
(0.148313 -0.00263621 0)
(0.169899 -0.00246814 0)
(0.189913 -0.00233389 0)
(0.208634 -0.00225664 0)
(0.226488 -0.00224274 0)
(0.243895 -0.0022852 0)
(0.261204 -0.00237186 0)
(0.278662 -0.00248998 0)
(0.296446 -0.00263183 0)
(0.314703 -0.00279546 0)
(0.333582 -0.00298189 0)
(0.353265 -0.00319729 0)
(0.373964 -0.00344766 0)
(0.395919 -0.00374084 0)
(0.41941 -0.00408468 0)
(0.444724 -0.0044866 0)
(0.472187 -0.0049528 0)
(0.502119 -0.00549159 0)
(0.53489 -0.00610567 0)
(0.570847 -0.00680405 0)
(0.610438 -0.00758912 0)
(0.654025 -0.00846633 0)
(0.702161 -0.00943886 0)
(0.755228 -0.0105039 0)
(0.813839 -0.011663 0)
(0.878448 -0.0128829 0)
(0.94946 -0.0141713 0)
(1.02762 -0.015397 0)
(1.11222 -0.0166078 0)
(1.20506 -0.0174101 0)
(1.30183 -0.0179971 0)
(1.40795 -0.0172666 0)
(1.50774 -0.0159481 0)
(1.62098 -0.0107748 0)
(1.69037 -0.00491058 0)
(1.80333 0.0131504 0)
(1.72516 0.0278251 0)
(1.87168 0.0886075 0)
(1.21879 0.12785 0)
(1.60713 0.366606 0)
(0.000198391 0.000178784 0)
(-0.00104366 0.000218835 0)
(-0.00315069 -0.000510371 0)
(-0.00176929 -0.00175341 0)
(0.00635452 -0.00295348 0)
(0.0217234 -0.00386665 0)
(0.0431669 -0.00446093 0)
(0.0688071 -0.00476 0)
(0.0967375 -0.00481582 0)
(0.125353 -0.00469293 0)
(0.153444 -0.00446244 0)
(0.180241 -0.00419885 0)
(0.205429 -0.00396892 0)
(0.229076 -0.0038165 0)
(0.251487 -0.00375759 0)
(0.273042 -0.00378515 0)
(0.294089 -0.00388175 0)
(0.314895 -0.00402899 0)
(0.335664 -0.00421537 0)
(0.356575 -0.00443914 0)
(0.377822 -0.00470312 0)
(0.399644 -0.00501757 0)
(0.422327 -0.00539202 0)
(0.446191 -0.00583835 0)
(0.471599 -0.00636725 0)
(0.498909 -0.00698968 0)
(0.528512 -0.00771364 0)
(0.560779 -0.00855171 0)
(0.596121 -0.00950854 0)
(0.63492 -0.0105988 0)
(0.677658 -0.0118287 0)
(0.724739 -0.0132104 0)
(0.776761 -0.0147526 0)
(0.834175 -0.0164578 0)
(0.897665 -0.0183369 0)
(0.967807 -0.0203487 0)
(1.0451 -0.0225219 0)
(1.13048 -0.0246728 0)
(1.22339 -0.0269051 0)
(1.32589 -0.0286495 0)
(1.43393 -0.0302635 0)
(1.55322 -0.0301001 0)
(1.66854 -0.0294829 0)
(1.80004 -0.0232849 0)
(1.89138 -0.0171651 0)
(2.02836 0.00720719 0)
(1.98795 0.0245694 0)
(2.14531 0.107176 0)
(1.62656 0.169266 0)
(1.84141 0.463293 0)
(0.000145411 0.000198649 0)
(-0.000666895 0.000328971 0)
(-0.00306083 -0.000427169 0)
(-0.00427897 -0.00194926 0)
(-0.000624187 -0.00361408 0)
(0.00994178 -0.00503102 0)
(0.0275374 -0.006062 0)
(0.0509532 -0.00668354 0)
(0.0784408 -0.00693729 0)
(0.108259 -0.00690008 0)
(0.13891 -0.00666688 0)
(0.169259 -0.00634216 0)
(0.198598 -0.00602475 0)
(0.22663 -0.00578569 0)
(0.253377 -0.00565794 0)
(0.279025 -0.00564061 0)
(0.303809 -0.0057147 0)
(0.327935 -0.00585806 0)
(0.351573 -0.00605635 0)
(0.374885 -0.00630921 0)
(0.398065 -0.00662289 0)
(0.421377 -0.00701375 0)
(0.44516 -0.00749667 0)
(0.46981 -0.00808872 0)
(0.495781 -0.00880365 0)
(0.523527 -0.00965543 0)
(0.553521 -0.0106527 0)
(0.586199 -0.011811 0)
(0.622018 -0.0131358 0)
(0.661388 -0.0146468 0)
(0.704796 -0.0163539 0)
(0.752656 -0.018276 0)
(0.805558 -0.0204291 0)
(0.863974 -0.0228218 0)
(0.928578 -0.0254766 0)
(0.999997 -0.0283462 0)
(1.07875 -0.0314828 0)
(1.16583 -0.0346546 0)
(1.26083 -0.0380202 0)
(1.3657 -0.0408472 0)
(1.47703 -0.0436467 0)
(1.59976 -0.0442547 0)
(1.7207 -0.0445506 0)
(1.85694 -0.0376714 0)
(1.95974 -0.0314073 0)
(2.09965 -0.0017664 0)
(2.09229 0.0197122 0)
(2.22451 0.118841 0)
(1.84425 0.211849 0)
(1.89456 0.544204 0)
(5.95937e-05 0.000211945 0)
(-0.000490293 0.000427431 0)
(-0.00269836 -0.000272669 0)
(-0.00532723 -0.00192902 0)
(-0.00533999 -0.0039491 0)
(-1.65471e-05 -0.0058502 0)
(0.0119049 -0.00738087 0)
(0.030238 -0.00843683 0)
(0.0539077 -0.00901999 0)
(0.0815022 -0.00919873 0)
(0.111588 -0.00907785 0)
(0.14289 -0.00878219 0)
(0.17441 -0.00843768 0)
(0.205483 -0.00814307 0)
(0.235765 -0.0079532 0)
(0.265136 -0.00788 0)
(0.293604 -0.00790871 0)
(0.321214 -0.00801727 0)
(0.348018 -0.00819056 0)
(0.374082 -0.00843119 0)
(0.399521 -0.00875101 0)
(0.424549 -0.00917549 0)
(0.449489 -0.0097284 0)
(0.47477 -0.0104352 0)
(0.500919 -0.0113149 0)
(0.528489 -0.0123851 0)
(0.558061 -0.0136543 0)
(0.590174 -0.0151391 0)
(0.62536 -0.016844 0)
(0.664079 -0.0187908 0)
(0.706834 -0.0209919 0)
(0.754043 -0.0234716 0)
(0.806257 -0.0262532 0)
(0.86394 -0.0293509 0)
(0.927709 -0.0328002 0)
(0.998175 -0.0365491 0)
(1.07585 -0.0406723 0)
(1.16163 -0.0448984 0)
(1.25533 -0.0494281 0)
(1.35848 -0.0533955 0)
(1.46856 -0.0574189 0)
(1.58904 -0.0589125 0)
(1.70983 -0.0601308 0)
(1.84265 -0.0528886 0)
(1.95032 -0.0461945 0)
(2.08141 -0.0125113 0)
(2.09999 0.0149519 0)
(2.19682 0.126044 0)
(1.92869 0.253446 0)
(1.87464 0.610734 0)
(-1.30111e-06 0.000225379 0)
(-0.000492582 0.000513528 0)
(-0.00239846 -9.35685e-05 0)
(-0.00546059 -0.00177274 0)
(-0.00758016 -0.00401152 0)
(-0.00621261 -0.00629764 0)
(0.000406932 -0.00829729 0)
(0.0128901 -0.00982356 0)
(0.0309576 -0.0108226 0)
(0.0538294 -0.0113347 0)
(0.0804903 -0.0114559 0)
(0.109859 -0.0113147 0)
(0.140916 -0.0110504 0)
(0.172807 -0.0107818 0)
(0.204901 -0.0105837 0)
(0.236777 -0.0104839 0)
(0.268179 -0.0104769 0)
(0.298934 -0.0105447 0)
(0.328914 -0.0106737 0)
(0.358022 -0.0108705 0)
(0.386211 -0.011154 0)
(0.413546 -0.0115615 0)
(0.440233 -0.0121303 0)
(0.466634 -0.0128996 0)
(0.493272 -0.0138987 0)
(0.520759 -0.0151529 0)
(0.549779 -0.0166722 0)
(0.580997 -0.0184736 0)
(0.615055 -0.0205584 0)
(0.652517 -0.0229472 0)
(0.693928 -0.0256519 0)
(0.739742 -0.0286988 0)
(0.790477 -0.0321167 0)
(0.846575 -0.035924 0)
(0.908578 -0.040168 0)
(0.977036 -0.0447944 0)
(1.05242 -0.0498949 0)
(1.13547 -0.0551717 0)
(1.22619 -0.0608465 0)
(1.32557 -0.0659613 0)
(1.43205 -0.0711713 0)
(1.5474 -0.0736086 0)
(1.66482 -0.0756428 0)
(1.79035 -0.0683064 0)
(1.8984 -0.0607796 0)
(2.01687 -0.0241096 0)
(2.05313 0.0107402 0)
(2.12007 0.130812 0)
(1.93419 0.291358 0)
(1.83199 0.668308 0)
(-2.53653e-05 0.000243086 0)
(-0.000563322 0.00059514 0)
(-0.00230481 8.48629e-05 0)
(-0.00530765 -0.00155737 0)
(-0.0082447 -0.00390892 0)
(-0.00907976 -0.00646451 0)
(-0.00611831 -0.00884414 0)
(0.00154992 -0.0107992 0)
(0.014182 -0.0122249 0)
(0.0315907 -0.0131285 0)
(0.0533044 -0.0135855 0)
(0.0786606 -0.0137128 0)
(0.106885 -0.0136475 0)
(0.137184 -0.0135141 0)
(0.168844 -0.0133993 0)
(0.201277 -0.0133439 0)
(0.234031 -0.0133523 0)
(0.266754 -0.0134129 0)
(0.299146 -0.0135144 0)
(0.330936 -0.0136668 0)
(0.361884 -0.013895 0)
(0.391843 -0.0142486 0)
(0.420801 -0.0147811 0)
(0.448937 -0.0155513 0)
(0.476651 -0.0166065 0)
(0.504515 -0.0179867 0)
(0.533246 -0.0197094 0)
(0.563611 -0.0217948 0)
(0.596379 -0.0242414 0)
(0.632248 -0.0270658 0)
(0.671861 -0.0302757 0)
(0.715748 -0.0338947 0)
(0.764429 -0.0379532 0)
(0.818343 -0.0424707 0)
(0.877961 -0.0475026 0)
(0.943752 -0.0529941 0)
(1.01613 -0.0590468 0)
(1.09564 -0.0653493 0)
(1.18241 -0.0721214 0)
(1.27694 -0.0783575 0)
(1.37842 -0.0846755 0)
(1.48719 -0.088068 0)
(1.5991 -0.0907739 0)
(1.71587 -0.0835298 0)
(1.82077 -0.0748327 0)
(1.92687 -0.0359516 0)
(1.97354 0.00694218 0)
(2.02046 0.13431 0)
(1.89537 0.323314 0)
(1.78675 0.72028 0)
(-2.73022e-05 0.000264842 0)
(-0.000628665 0.000679174 0)
(-0.00234196 0.000261484 0)
(-0.00521993 -0.0013264 0)
(-0.00829394 -0.00373473 0)
(-0.00999043 -0.00647394 0)
(-0.0089461 -0.0091406 0)
(-0.00430777 -0.011446 0)
(0.00433406 -0.0132508 0)
(0.0171176 -0.0145372 0)
(0.0339928 -0.0153612 0)
(0.0547215 -0.0158221 0)
(0.0788857 -0.0160434 0)
(0.105932 -0.016143 0)
(0.135256 -0.0162085 0)
(0.166277 -0.0162868 0)
(0.198492 -0.0163892 0)
(0.231472 -0.0165094 0)
(0.264829 -0.0166373 0)
(0.298181 -0.0167837 0)
(0.331141 -0.0169757 0)
(0.363355 -0.0172709 0)
(0.394568 -0.0177386 0)
(0.424695 -0.0184595 0)
(0.453902 -0.0195053 0)
(0.482594 -0.0209397 0)
(0.51141 -0.0227973 0)
(0.541132 -0.0251088 0)
(0.572616 -0.0278745 0)
(0.60669 -0.0311073 0)
(0.644124 -0.034809 0)
(0.685564 -0.0389953 0)
(0.731585 -0.0436931 0)
(0.782654 -0.048918 0)
(0.8392 -0.0547283 0)
(0.901625 -0.0610678 0)
(0.970268 -0.0680399 0)
(1.04549 -0.0753306 0)
(1.12745 -0.0831371 0)
(1.2163 -0.0904423 0)
(1.31161 -0.0977719 0)
(1.4129 -0.102086 0)
(1.51757 -0.105324 0)
(1.62496 -0.0982711 0)
(1.72391 -0.0881919 0)
(1.8188 -0.0476275 0)
(1.87044 0.00330561 0)
(1.90638 0.136753 0)
(1.82811 0.349178 0)
(1.74075 0.759936 0)
(-2.27814e-05 0.00028913 0)
(-0.000669841 0.000768849 0)
(-0.00241893 0.000440985 0)
(-0.00523817 -0.00109266 0)
(-0.00824483 -0.00353996 0)
(-0.0101226 -0.00641991 0)
(-0.00978531 -0.00930977 0)
(-0.00660664 -0.0118937 0)
(-0.00026297 -0.0140119 0)
(0.00946353 -0.0156334 0)
(0.0227015 -0.0168036 0)
(0.0394848 -0.0176072 0)
(0.0596923 -0.018152 0)
(0.0830386 -0.0185424 0)
(0.109121 -0.0188587 0)
(0.137487 -0.0191468 0)
(0.167703 -0.0194208 0)
(0.199375 -0.019677 0)
(0.232134 -0.0199045 0)
(0.265588 -0.0201109 0)
(0.299296 -0.0203193 0)
(0.332783 -0.0205892 0)
(0.365597 -0.0209987 0)
(0.397395 -0.0216483 0)
(0.42806 -0.0226362 0)
(0.457739 -0.0240568 0)
(0.486879 -0.0259717 0)
(0.516166 -0.0284324 0)
(0.546449 -0.03145 0)
(0.578637 -0.0350386 0)
(0.613604 -0.0391954 0)
(0.652131 -0.0439258 0)
(0.69488 -0.0492487 0)
(0.742386 -0.0551699 0)
(0.795075 -0.0617433 0)
(0.853314 -0.0689093 0)
(0.917364 -0.0767638 0)
(0.987453 -0.0849956 0)
(1.06369 -0.0937661 0)
(1.14599 -0.102068 0)
(1.23401 -0.110305 0)
(1.32701 -0.11547 0)
(1.42296 -0.119112 0)
(1.52042 -0.112287 0)
(1.61133 -0.100721 0)
(1.69587 -0.058841 0)
(1.7487 -0.000422283 0)
(1.78042 0.138216 0)
(1.73965 0.367873 0)
(1.69052 0.786489 0)
(-1.9065e-05 0.00031506 0)
(-0.000695153 0.000864667 0)
(-0.00249147 0.000627197 0)
(-0.00530926 -0.00085578 0)
(-0.008246 -0.00334244 0)
(-0.0100788 -0.00635095 0)
(-0.00987868 -0.0094355 0)
(-0.00719696 -0.0122543 0)
(-0.00185157 -0.0146329 0)
(0.00628117 -0.0165374 0)
(0.0173487 -0.018011 0)
(0.0314732 -0.0191314 0)
(0.0486938 -0.0199938 0)
(0.0689119 -0.0206891 0)
(0.0919039 -0.021287 0)
(0.117369 -0.0218287 0)
(0.144996 -0.0223277 0)
(0.17449 -0.022781 0)
(0.205567 -0.0231751 0)
(0.237911 -0.0235114 0)
(0.271122 -0.0238039 0)
(0.30471 -0.024105 0)
(0.338124 -0.0244937 0)
(0.37084 -0.025082 0)
(0.402489 -0.0259919 0)
(0.432942 -0.0273498 0)
(0.462391 -0.0292517 0)
(0.491335 -0.0317796 0)
(0.520517 -0.0349666 0)
(0.550838 -0.0388365 0)
(0.583223 -0.0433871 0)
(0.618556 -0.0486151 0)
(0.657591 -0.0545283 0)
(0.700953 -0.0611186 0)
(0.749094 -0.0684285 0)
(0.802386 -0.0763901 0)
(0.861027 -0.0850839 0)
(0.925172 -0.0942015 0)
(0.994796 -0.10386 0)
(1.06975 -0.113071 0)
(1.14955 -0.122106 0)
(1.2335 -0.128027 0)
(1.31964 -0.131951 0)
(1.40664 -0.125349 0)
(1.48809 -0.112282 0)
(1.5628 -0.0693619 0)
(1.61424 -0.00435517 0)
(1.6462 0.138429 0)
(1.63626 0.379163 0)
(1.63383 0.799862 0)
(-1.71248e-05 0.000342431 0)
(-0.000715044 0.000966265 0)
(-0.00255268 0.000821635 0)
(-0.00539033 -0.000612991 0)
(-0.0082902 -0.00314439 0)
(-0.0100496 -0.00628382 0)
(-0.00980152 -0.00955716 0)
(-0.0071893 -0.012594 0)
(-0.00214123 -0.0152055 0)
(0.00536893 -0.0173574 0)
(0.0154166 -0.0190963 0)
(0.0281108 -0.0204991 0)
(0.0435253 -0.0216536 0)
(0.0616382 -0.02264 0)
(0.0823332 -0.0235185 0)
(0.105416 -0.0243249 0)
(0.130678 -0.0250712 0)
(0.157926 -0.0257548 0)
(0.186977 -0.0263594 0)
(0.217619 -0.0268793 0)
(0.249549 -0.0273158 0)
(0.282338 -0.0277081 0)
(0.315434 -0.0281265 0)
(0.348233 -0.0286854 0)
(0.380198 -0.0295227 0)
(0.410977 -0.0307939 0)
(0.44051 -0.0326312 0)
(0.469073 -0.035154 0)
(0.497238 -0.0384266 0)
(0.525815 -0.0424925 0)
(0.555714 -0.0473582 0)
(0.58786 -0.0530158 0)
(0.623071 -0.0594629 0)
(0.662053 -0.066675 0)
(0.705298 -0.0746782 0)
(0.753208 -0.0833911 0)
(0.805937 -0.0928718 0)
(0.863617 -0.102811 0)
(0.926081 -0.113277 0)
(0.993187 -0.123301 0)
(1.06423 -0.13302 0)
(1.1387 -0.13959 0)
(1.21453 -0.143683 0)
(1.29082 -0.137269 0)
(1.36216 -0.12276 0)
(1.42756 -0.0790091 0)
(1.47608 -0.0085654 0)
(1.51092 0.137168 0)
(1.52673 0.383326 0)
(1.57233 0.800427 0)
(-1.60219e-05 0.000371325 0)
(-0.000734209 0.00107345 0)
(-0.00260754 0.00102456 0)
(-0.0054671 -0.000362685 0)
(-0.00834781 -0.0029442 0)
(-0.0100503 -0.00622115 0)
(-0.00972764 -0.00968757 0)
(-0.00705657 -0.0129419 0)
(-0.00201988 -0.0157784 0)
(0.00534352 -0.018162 0)
(0.0150439 -0.0201445 0)
(0.0271391 -0.0218047 0)
(0.0416784 -0.0232267 0)
(0.0586497 -0.0244831 0)
(0.0779636 -0.0256267 0)
(0.0994759 -0.0266893 0)
(0.123036 -0.0276821 0)
(0.148512 -0.0286041 0)
(0.175798 -0.0294377 0)
(0.204769 -0.0301703 0)
(0.23522 -0.0307903 0)
(0.266811 -0.0313197 0)
(0.299049 -0.0318138 0)
(0.331327 -0.0323805 0)
(0.363036 -0.033165 0)
(0.39368 -0.034345 0)
(0.423008 -0.0360871 0)
(0.451091 -0.0385498 0)
(0.478317 -0.0418354 0)
(0.505363 -0.0460148 0)
(0.53306 -0.0511115 0)
(0.562319 -0.057119 0)
(0.593979 -0.0640279 0)
(0.628789 -0.0717979 0)
(0.667276 -0.0804349 0)
(0.709876 -0.0898405 0)
(0.756719 -0.100045 0)
(0.807936 -0.110732 0)
(0.863247 -0.121921 0)
(0.922539 -0.132657 0)
(0.984917 -0.142948 0)
(1.05007 -0.150054 0)
(1.11583 -0.154214 0)
(1.18178 -0.147937 0)
(1.24323 -0.132105 0)
(1.30017 -0.0877064 0)
(1.34531 -0.0130933 0)
(1.38448 0.13423 0)
(1.42203 0.381012 0)
(1.51189 0.788394 0)
(-1.50896e-05 0.000401833 0)
(-0.000753383 0.00118644 0)
(-0.00265991 0.00123591 0)
(-0.00553928 -0.000104385 0)
(-0.00840482 -0.00274072 0)
(-0.0100618 -0.00616219 0)
(-0.00967366 -0.00982891 0)
(-0.00692659 -0.0133066 0)
(-0.00182308 -0.0163708 0)
(0.00556735 -0.0189842 0)
(0.0152171 -0.0212034 0)
(0.0271435 -0.0231098 0)
(0.0413619 -0.0247851 0)
(0.057839 -0.0262962 0)
(0.076481 -0.0276901 0)
(0.0971502 -0.0289957 0)
(0.119712 -0.0302251 0)
(0.144059 -0.0313799 0)
(0.17012 -0.032443 0)
(0.197822 -0.0333972 0)
(0.227027 -0.0342186 0)
(0.257471 -0.0349113 0)
(0.28873 -0.035512 0)
(0.320238 -0.0361162 0)
(0.351375 -0.0368687 0)
(0.38158 -0.0379628 0)
(0.410488 -0.0395946 0)
(0.438018 -0.0419608 0)
(0.464405 -0.0452039 0)
(0.490186 -0.0494274 0)
(0.516094 -0.0546779 0)
(0.54298 -0.0609567 0)
(0.571662 -0.0682511 0)
(0.602898 -0.0765066 0)
(0.637227 -0.0857084 0)
(0.675103 -0.0957388 0)
(0.716645 -0.106596 0)
(0.761987 -0.117954 0)
(0.810782 -0.129777 0)
(0.862935 -0.141128 0)
(0.917447 -0.151883 0)
(0.974135 -0.15942 0)
(1.03084 -0.163561 0)
(1.08759 -0.157367 0)
(1.14028 -0.140375 0)
(1.19018 -0.0955167 0)
(1.23247 -0.0180157 0)
(1.27687 0.129454 0)
(1.33301 0.372815 0)
(1.46072 0.765016 0)
(-1.4147e-05 0.000433988 0)
(-0.000772248 0.00130568 0)
(-0.0027109 0.00145575 0)
(-0.00560876 0.000162017 0)
(-0.00845868 -0.00253361 0)
(-0.0100731 -0.00610649 0)
(-0.00962639 -0.00998104 0)
(-0.00680897 -0.0136897 0)
(-0.0016299 -0.0169883 0)
(0.00582974 -0.0198361 0)
(0.0155258 -0.022294 0)
(0.0274539 -0.0244457 0)
(0.0416066 -0.0263706 0)
(0.0579301 -0.0281302 0)
(0.0763168 -0.0297665 0)
(0.0966209 -0.0313065 0)
(0.118704 -0.0327636 0)
(0.142459 -0.0341431 0)
(0.167823 -0.0354299 0)
(0.194739 -0.0366039 0)
(0.2231 -0.0376303 0)
(0.252689 -0.038496 0)
(0.28313 -0.0392181 0)
(0.313902 -0.0398765 0)
(0.344408 -0.0406112 0)
(0.374072 -0.0416254 0)
(0.402476 -0.0431402 0)
(0.429452 -0.0453875 0)
(0.455127 -0.04855 0)
(0.479932 -0.0527659 0)
(0.504501 -0.0581088 0)
(0.529614 -0.0645918 0)
(0.556045 -0.0722023 0)
(0.584525 -0.0808744 0)
(0.615588 -0.0905726 0)
(0.649683 -0.101159 0)
(0.686925 -0.112598 0)
(0.72744 -0.124551 0)
(0.770854 -0.136926 0)
(0.817079 -0.148802 0)
(0.865088 -0.159926 0)
(0.914779 -0.1678 0)
(0.964107 -0.171865 0)
(1.01342 -0.165712 0)
(1.05924 -0.147758 0)
(1.10407 -0.10265 0)
(1.14491 -0.0234957 0)
(1.19534 0.122666 0)
(1.26781 0.359271 0)
(1.42627 0.73194 0)
(-1.32086e-05 0.000467835 0)
(-0.000790561 0.00143146 0)
(-0.00276042 0.00168432 0)
(-0.00567625 0.000436664 0)
(-0.00850997 -0.00232279 0)
(-0.0100817 -0.00605413 0)
(-0.00957818 -0.010144 0)
(-0.00669445 -0.0140915 0)
(-0.00144337 -0.0176323 0)
(0.00608882 -0.0207214 0)
(0.0158516 -0.0234238 0)
(0.0278313 -0.025825 0)
(0.0420087 -0.0280022 0)
(0.0583184 -0.0300112 0)
(0.0766429 -0.0318892 0)
(0.0968284 -0.0336614 0)
(0.118729 -0.0353427 0)
(0.142233 -0.0369425 0)
(0.167268 -0.0384484 0)
(0.193779 -0.039838 0)
(0.221664 -0.0410673 0)
(0.250721 -0.0421065 0)
(0.2806 -0.0429535 0)
(0.310811 -0.0436717 0)
(0.340781 -0.0443941 0)
(0.369944 -0.0453306 0)
(0.397869 -0.0467241 0)
(0.424352 -0.0488391 0)
(0.449461 -0.051897 0)
(0.473555 -0.0560714 0)
(0.497199 -0.0614634 0)
(0.521104 -0.0681011 0)
(0.545996 -0.0759737 0)
(0.572564 -0.0850062 0)
(0.601324 -0.0951424 0)
(0.632703 -0.106226 0)
(0.666809 -0.118183 0)
(0.703755 -0.130666 0)
(0.743169 -0.143522 0)
(0.784955 -0.155848 0)
(0.828125 -0.167267 0)
(0.87262 -0.175408 0)
(0.916582 -0.179369 0)
(0.960631 -0.17324 0)
(1.00189 -0.154553 0)
(1.04396 -0.109448 0)
(1.08529 -0.0297839 0)
(1.14267 0.113646 0)
(1.23001 0.340852 0)
(1.4129 0.690732 0)
(-1.23094e-05 0.000503424 0)
(-0.000808254 0.00156398 0)
(-0.00280827 0.00192189 0)
(-0.00574169 0.000719743 0)
(-0.00855909 -0.00210818 0)
(-0.0100876 -0.0060054 0)
(-0.00952743 -0.0103184 0)
(-0.0065785 -0.0145126 0)
(-0.00125761 -0.0183033 0)
(0.0063449 -0.0216414 0)
(0.0161752 -0.0245951 0)
(0.0282155 -0.0272524 0)
(0.0424412 -0.0296874 0)
(0.0587815 -0.0319507 0)
(0.0771143 -0.0340742 0)
(0.0972821 -0.0360812 0)
(0.119136 -0.0379881 0)
(0.142556 -0.0398086 0)
(0.167467 -0.0415327 0)
(0.193803 -0.0431361 0)
(0.221457 -0.0445659 0)
(0.250226 -0.0457764 0)
(0.279767 -0.0467465 0)
(0.3096 -0.0475231 0)
(0.339171 -0.0482319 0)
(0.367931 -0.0490884 0)
(0.395454 -0.0503561 0)
(0.421529 -0.0523301 0)
(0.446204 -0.0552694 0)
(0.469801 -0.0593822 0)
(0.492842 -0.0647975 0)
(0.51599 -0.0715588 0)
(0.539928 -0.0796578 0)
(0.565304 -0.0890118 0)
(0.592609 -0.099544 0)
(0.622239 -0.11108 0)
(0.654302 -0.123509 0)
(0.688889 -0.136472 0)
(0.725646 -0.149756 0)
(0.76447 -0.162481 0)
(0.80445 -0.174147 0)
(0.845564 -0.182512 0)
(0.886183 -0.18638 0)
(0.927154 -0.180295 0)
(0.9662 -0.161131 0)
(1.00784 -0.116331 0)
(1.05179 -0.0371992 0)
(1.11712 0.102152 0)
(1.21848 0.317925 0)
(1.42095 0.642864 0)
(-1.14673e-05 0.000540804 0)
(-0.00082532 0.00170338 0)
(-0.0028543 0.00216876 0)
(-0.00580485 0.00101145 0)
(-0.00860603 -0.00188969 0)
(-0.0100912 -0.00596059 0)
(-0.00947446 -0.0105046 0)
(-0.00646064 -0.0149535 0)
(-0.00107059 -0.0190024 0)
(0.00660098 -0.022597 0)
(0.0164974 -0.0258095 0)
(0.0285984 -0.0287299 0)
(0.0428762 -0.0314297 0)
(0.0592573 -0.0339535 0)
(0.0776182 -0.0363282 0)
(0.0978009 -0.0385751 0)
(0.119655 -0.0407122 0)
(0.143061 -0.0427569 0)
(0.167936 -0.0447019 0)
(0.194209 -0.0465205 0)
(0.221762 -0.0481505 0)
(0.250385 -0.0495303 0)
(0.279729 -0.0506201 0)
(0.309318 -0.0514508 0)
(0.338603 -0.0521409 0)
(0.367049 -0.0529122 0)
(0.394244 -0.0540482 0)
(0.419987 -0.0558748 0)
(0.444327 -0.0586877 0)
(0.467574 -0.062729 0)
(0.490231 -0.068155 0)
(0.512931 -0.0750246 0)
(0.536326 -0.0833313 0)
(0.561031 -0.0929856 0)
(0.587515 -0.10389 0)
(0.616146 -0.115852 0)
(0.647028 -0.128724 0)
(0.680236 -0.142137 0)
(0.715447 -0.15582 0)
(0.752556 -0.168913 0)
(0.790744 -0.180809 0)
(0.830039 -0.189388 0)
(0.869057 -0.193208 0)
(0.908865 -0.187231 0)
(0.947768 -0.167874 0)
(0.991034 -0.123733 0)
(1.03951 -0.04608 0)
(1.11366 0.0879225 0)
(1.22864 0.290829 0)
(1.44703 0.589368 0)
(-1.06941e-05 0.000580018 0)
(-0.000841749 0.00184986 0)
(-0.00289842 0.00242524 0)
(-0.00586552 0.00131199 0)
(-0.00865066 -0.00166718 0)
(-0.0100926 -0.00591997 0)
(-0.00941971 -0.0107034 0)
(-0.00634156 -0.0154152 0)
(-0.000882769 -0.0197304 0)
(0.0068573 -0.0235895 0)
(0.016819 -0.0270684 0)
(0.0289798 -0.0302593 0)
(0.0433095 -0.0332309 0)
(0.059733 -0.0360222 0)
(0.078126 -0.0386547 0)
(0.0983313 -0.0411477 0)
(0.1202 -0.0435209 0)
(0.143611 -0.0457952 0)
(0.168481 -0.0479658 0)
(0.194734 -0.0500029 0)
(0.222242 -0.0518347 0)
(0.250785 -0.0533831 0)
(0.280005 -0.0545894 0)
(0.309421 -0.0554689 0)
(0.338487 -0.0561339 0)
(0.366678 -0.0568128 0)
(0.393597 -0.0578107 0)
(0.419058 -0.0594844 0)
(0.443123 -0.0621665 0)
(0.466106 -0.0661328 0)
(0.488505 -0.0715659 0)
(0.510937 -0.0785397 0)
(0.53404 -0.0870488 0)
(0.558401 -0.0969966 0)
(0.584473 -0.108264 0)
(0.612602 -0.120642 0)
(0.642895 -0.133946 0)
(0.675412 -0.147797 0)
(0.70987 -0.16187 0)
(0.746169 -0.175327 0)
(0.783601 -0.187462 0)
(0.822249 -0.196274 0)
(0.860989 -0.200128 0)
(0.901093 -0.194365 0)
(0.941453 -0.175123 0)
(0.987906 -0.132044 0)
(1.04235 -0.0567504 0)
(1.12598 0.070797 0)
(1.25399 0.259625 0)
(1.48606 0.531188 0)
(-9.9982e-06 0.000621112 0)
(-0.000857528 0.00200359 0)
(-0.00294055 0.00269163 0)
(-0.00592354 0.00162153 0)
(-0.00869289 -0.00144051 0)
(-0.0100919 -0.00588376 0)
(-0.00936351 -0.0109153 0)
(-0.00622198 -0.0158985 0)
(-0.000695169 -0.0204885 0)
(0.00711274 -0.0246203 0)
(0.0171389 -0.0283733 0)
(0.0293587 -0.0318423 0)
(0.0437399 -0.0350932 0)
(0.0602055 -0.038159 0)
(0.0786309 -0.0410561 0)
(0.0988599 -0.0438018 0)
(0.120745 -0.0464175 0)
(0.144166 -0.0489276 0)
(0.16904 -0.0513294 0)
(0.195284 -0.0535895 0)
(0.222765 -0.0556259 0)
(0.251252 -0.0573429 0)
(0.280377 -0.0586631 0)
(0.309651 -0.0595859 0)
(0.338529 -0.0602184 0)
(0.366492 -0.0607972 0)
(0.39316 -0.06165 0)
(0.418363 -0.0631658 0)
(0.442182 -0.0657144 0)
(0.464941 -0.0696057 0)
(0.487144 -0.0750479 0)
(0.509401 -0.0821291 0)
(0.532342 -0.0908442 0)
(0.556535 -0.101089 0)
(0.582425 -0.112722 0)
(0.61034 -0.125518 0)
(0.640394 -0.139257 0)
(0.672641 -0.15355 0)
(0.706842 -0.168022 0)
(0.742913 -0.181855 0)
(0.780263 -0.194263 0)
(0.819041 -0.203354 0)
(0.858386 -0.207353 0)
(0.899776 -0.201949 0)
(0.942662 -0.183152 0)
(0.993341 -0.141583 0)
(1.05466 -0.0694411 0)
(1.14795 0.0505835 0)
(1.28853 0.224564 0)
(1.5321 0.46874 0)
(-9.38889e-06 0.000664133 0)
(-0.000872639 0.00216474 0)
(-0.00298061 0.00296823 0)
(-0.00597874 0.00194027 0)
(-0.00873263 -0.00120952 0)
(-0.0100892 -0.00585215 0)
(-0.00930613 -0.0111409 0)
(-0.00610253 -0.016404 0)
(-0.000508851 -0.0212776 0)
(0.00736593 -0.0256906 0)
(0.0174556 -0.0297258 0)
(0.0297334 -0.0334807 0)
(0.044165 -0.0370184 0)
(0.0606721 -0.0403661 0)
(0.0791294 -0.0435349 0)
(0.0993817 -0.0465402 0)
(0.121282 -0.0494049 0)
(0.144714 -0.0521572 0)
(0.16959 -0.0547961 0)
(0.195828 -0.0572843 0)
(0.223286 -0.0595283 0)
(0.251723 -0.0614146 0)
(0.28076 -0.0628459 0)
(0.309901 -0.0638064 0)
(0.3386 -0.0643988 0)
(0.366344 -0.0648692 0)
(0.392767 -0.0655694 0)
(0.41772 -0.0669223 0)
(0.441302 -0.0693358 0)
(0.463851 -0.0731541 0)
(0.485881 -0.0786102 0)
(0.508001 -0.0858063 0)
(0.530836 -0.094736 0)
(0.554943 -0.105287 0)
(0.580761 -0.117296 0)
(0.608606 -0.130521 0)
(0.638603 -0.144708 0)
(0.670807 -0.159457 0)
(0.705024 -0.174349 0)
(0.741197 -0.188587 0)
(0.778851 -0.201318 0)
(0.818216 -0.210757 0)
(0.85869 -0.215035 0)
(0.901951 -0.210166 0)
(0.947984 -0.19216 0)
(1.00345 -0.152573 0)
(1.072 -0.0843337 0)
(1.17484 0.0272349 0)
(1.327 0.185779 0)
(1.58027 0.402292 0)
(-8.87256e-06 0.000709131 0)
(-0.00088707 0.00233348 0)
(-0.00301855 0.00325532 0)
(-0.00603097 0.0022684 0)
(-0.00876981 -0.000974141 0)
(-0.0100846 -0.00582524 0)
(-0.00924783 -0.0113807 0)
(-0.00598382 -0.0169327 0)
(-0.000324829 -0.0220987 0)
(0.00761546 -0.0268017 0)
(0.0177671 -0.0311273 0)
(0.0301015 -0.0351761 0)
(0.0445824 -0.0390086 0)
(0.0611299 -0.0426458 0)
(0.079618 -0.0460935 0)
(0.0998923 -0.0493652 0)
(0.121808 -0.0524857 0)
(0.145247 -0.0554869 0)
(0.170126 -0.0583691 0)
(0.196355 -0.0610904 0)
(0.223789 -0.0635453 0)
(0.252174 -0.0656012 0)
(0.281123 -0.0671409 0)
(0.31013 -0.0681333 0)
(0.338648 -0.0686774 0)
(0.366173 -0.0690305 0)
(0.392351 -0.0695705 0)
(0.417052 -0.0707557 0)
(0.440396 -0.0730327 0)
(0.462736 -0.0767807 0)
(0.484597 -0.0822572 0)
(0.50659 -0.0895776 0)
(0.529338 -0.0987337 0)
(0.553388 -0.109604 0)
(0.579177 -0.122004 0)
(0.607013 -0.135674 0)
(0.637034 -0.150326 0)
(0.669301 -0.165553 0)
(0.703666 -0.180897 0)
(0.740106 -0.195578 0)
(0.778263 -0.208697 0)
(0.818453 -0.218566 0)
(0.860328 -0.223272 0)
(0.905757 -0.219141 0)
(0.95523 -0.202281 0)
(1.01568 -0.165161 0)
(1.09144 -0.101531 0)
(1.2033 0.000803498 0)
(1.36588 0.143245 0)
(1.62713 0.332645 0)
(-8.45553e-06 0.000756157 0)
(-0.000900807 0.00250995 0)
(-0.00305429 0.00355319 0)
(-0.00608011 0.00260615 0)
(-0.0088044 -0.000734299 0)
(-0.0100781 -0.00580311 0)
(-0.00918889 -0.0116354 0)
(-0.00586644 -0.0174853 0)
(-0.000144083 -0.0229528 0)
(0.00785998 -0.0279548 0)
(0.0180719 -0.0325795 0)
(0.030461 -0.0369304 0)
(0.0449893 -0.0410657 0)
(0.0615755 -0.0450001 0)
(0.0800928 -0.0487342 0)
(0.100388 -0.0522794 0)
(0.122315 -0.0556628 0)
(0.145761 -0.0589194 0)
(0.170639 -0.0620512 0)
(0.196858 -0.0650109 0)
(0.224263 -0.0676798 0)
(0.252594 -0.0699057 0)
(0.28145 -0.0715507 0)
(0.310321 -0.0725685 0)
(0.338655 -0.0730558 0)
(0.365955 -0.0732824 0)
(0.391883 -0.0736542 0)
(0.416327 -0.0746663 0)
(0.439428 -0.0768057 0)
(0.461555 -0.0804866 0)
(0.483244 -0.0859908 0)
(0.505108 -0.0934462 0)
(0.527769 -0.102842 0)
(0.551768 -0.114048 0)
(0.577539 -0.126855 0)
(0.605387 -0.140988 0)
(0.635461 -0.156129 0)
(0.667832 -0.17186 0)
(0.702401 -0.18769 0)
(0.739181 -0.202861 0)
(0.777929 -0.216439 0)
(0.819051 -0.226834 0)
(0.862446 -0.23213 0)
(0.910156 -0.228955 0)
(0.96314 -0.213599 0)
(1.02851 -0.179433 0)
(1.11118 -0.121055 0)
(1.23131 -0.0287022 0)
(1.40296 0.0973566 0)
(1.67024 0.25985 0)
(-8.13926e-06 0.000805263 0)
(-0.000913844 0.00269432 0)