/*--------------------------------*- C++ -*----------------------------------*\
  =========                 |
  \\      /  F ield         | OpenFOAM: The Open Source CFD Toolbox
   \\    /   O peration     | Website:  https://openfoam.org
    \\  /    A nd           | Version:  7
     \\/     M anipulation  |
\*---------------------------------------------------------------------------*/
FoamFile
{
    version     2.0;
    format      ascii;
    class       surfaceScalarField;
    location    "0.34";
    object      ddtCorrDdt0(phi);
}
// * * * * * * * * * * * * * * * * * * * * * * * * * * * * * * * * * * * * * //

dimensions      [0 3 -2 0 0 0 0];

internalField   nonuniform List<scalar> 
139350
(
-7.56929e-11
7.59051e-11
-1.14075e-10
3.93052e-11
1.23195e-11
-1.25804e-10
3.10614e-10
-2.97631e-10
7.29952e-10
-4.18769e-10
1.22274e-09
-4.92321e-10
1.74721e-09
-5.23995e-10
2.27403e-09
-5.26048e-10
2.7832e-09
-5.08581e-10
3.26262e-09
-4.7826e-10
3.70471e-09
-4.41427e-10
4.11101e-09
-4.05281e-10
4.48795e-09
-3.76273e-10
4.84699e-09
-3.58414e-10
5.20148e-09
-3.53401e-10
5.56165e-09
-3.59782e-10
5.93921e-09
-3.75583e-10
6.33614e-09
-3.969e-10
6.76035e-09
-4.22e-10
7.20956e-09
-4.49354e-10
7.68933e-09
-4.78297e-10
8.19932e-09
-5.09796e-10
8.74541e-09
-5.44647e-10
9.32942e-09
-5.8382e-10
9.96157e-09
-6.29427e-10
1.06425e-08
-6.81522e-10
1.13876e-08
-7.41741e-10
1.21971e-08
-8.10267e-10
1.30857e-08
-8.86212e-10
1.40556e-08
-9.69671e-10
1.51164e-08
-1.05869e-09
1.62677e-08
-1.15062e-09
1.7515e-08
-1.24384e-09
1.88465e-08
-1.33169e-09
2.02612e-08
-1.41065e-09
2.17282e-08
-1.46745e-09
2.32259e-08
-1.49493e-09
2.46889e-08
-1.46263e-09
2.60508e-08
-1.36063e-09
2.71681e-08
-1.11692e-09
2.78921e-08
-7.22611e-10
2.79075e-08
-1.68326e-11
2.68823e-08
1.02775e-09
2.41785e-08
2.69885e-09
1.89477e-08
5.23344e-09
1.00175e-08
8.9243e-09
-4.9815e-09
1.50012e-08
-2.91795e-08
2.41953e-08
-6.50814e-08
3.59062e-08
8.94975e-08
-1.54579e-07
-1.27193e-10
2.03355e-10
-1.71149e-10
8.42561e-11
2.78994e-10
-5.75301e-10
1.30663e-09
-1.32456e-09
2.74261e-09
-1.85415e-09
4.42323e-09
-2.17242e-09
6.21923e-09
-2.31948e-09
8.0292e-09
-2.33515e-09
9.78055e-09
-2.25928e-09
1.1429e-08
-2.12541e-09
1.29538e-08
-1.96552e-09
1.43616e-08
-1.81201e-09
1.56779e-08
-1.69189e-09
1.69405e-08
-1.62032e-09
1.81888e-08
-1.6005e-09
1.94544e-08
-1.62498e-09
2.07645e-08
-1.68345e-09
2.2131e-08
-1.7634e-09
2.3569e-08
-1.85769e-09
2.50824e-08
-1.96283e-09
2.66835e-08
-2.07789e-09
2.83807e-08
-2.20671e-09
3.01905e-08
-2.35286e-09
3.21279e-08
-2.52099e-09
3.42184e-08
-2.7169e-09
3.64798e-08
-2.94366e-09
3.89467e-08
-3.20511e-09
4.164e-08
-3.5043e-09
4.45962e-08
-3.83988e-09
4.78412e-08
-4.21436e-09
5.14094e-08
-4.62452e-09
5.53267e-08
-5.06728e-09
5.96263e-08
-5.53959e-09
6.4324e-08
-6.02959e-09
6.9448e-08
-6.53037e-09
7.49892e-08
-7.00901e-09
8.09529e-08
-7.45586e-09
8.72683e-08
-7.77757e-09
9.38846e-08
-7.97565e-09
1.00574e-07
-7.80558e-09
1.07176e-07
-7.32327e-09
1.13073e-07
-5.916e-09
1.17906e-07
-3.80231e-09
1.20062e-07
5.38045e-10
1.18966e-07
6.33202e-09
1.09953e-07
1.79306e-08
9.358e-08
3.13768e-08
5.17186e-08
6.6054e-08
-4.16219e-09
9.1792e-08
2.47337e-07
-1.62002e-07
-1.35172e-10
3.38822e-10
-2.55658e-10
2.05796e-10
2.58252e-10
-1.08852e-09
1.71554e-09
-2.78112e-09
3.95443e-09
-4.09239e-09
6.70221e-09
-4.91965e-09
9.72576e-09
-5.34247e-09
1.28352e-08
-5.44366e-09
1.58853e-08
-5.30867e-09
1.87805e-08
-5.01927e-09
2.14715e-08
-4.6558e-09
2.39578e-08
-4.29718e-09
2.62752e-08
-4.00846e-09
2.84818e-08
-3.82625e-09
3.06401e-08
-3.75745e-09
3.28012e-08
-3.78567e-09
3.5007e-08
-3.88692e-09
3.728e-08
-4.03632e-09
3.96434e-08
-4.21865e-09
4.2109e-08
-4.42852e-09
4.46982e-08
-4.66551e-09
4.74297e-08
-4.93793e-09
5.0332e-08
-5.25336e-09
5.34329e-08
-5.62182e-09
5.67726e-08
-6.05334e-09
6.0384e-08
-6.55579e-09
6.43181e-08
-7.13546e-09
6.86134e-08
-7.80035e-09
7.33257e-08
-8.54959e-09
7.85027e-08
-9.39099e-09
8.42026e-08
-1.0322e-08
9.04793e-08
-1.13432e-08
9.73965e-08
-1.24527e-08
1.05005e-07
-1.36383e-08
1.13374e-07
-1.48947e-08
1.22533e-07
-1.61691e-08
1.32544e-07
-1.74631e-08
1.43368e-07
-1.86018e-08
1.55031e-07
-1.96366e-08
1.67303e-07
-2.00778e-08
1.80137e-07
-2.01551e-08
1.92784e-07
-1.85648e-08
2.05128e-07
-1.6144e-08
2.14896e-07
-9.23601e-09
2.22463e-07
-1.23133e-09
2.20281e-07
2.01061e-08
2.13048e-07
3.86122e-08
1.72095e-07
1.07004e-07
1.15513e-07
1.48379e-07
4.23708e-07
-6.08575e-08
-1.10116e-10
4.4926e-10
-3.40662e-10
4.37447e-10
-6.16842e-11
-1.36677e-09
1.29329e-09
-4.13533e-09
3.77229e-09
-6.57073e-09
7.11826e-09
-8.26503e-09
1.10185e-08
-9.2421e-09
1.51878e-08
-9.612e-09
1.93929e-08
-9.51301e-09
2.34655e-08
-9.09047e-09
2.73028e-08
-8.49225e-09
3.0871e-08
-7.86421e-09
3.41926e-08
-7.32931e-09
3.73283e-08
-6.96122e-09
4.03516e-08
-6.77929e-09
4.33272e-08
-6.76081e-09
4.63093e-08
-6.86659e-09
4.93304e-08
-7.05741e-09
5.24229e-08
-7.30859e-09
5.56076e-08
-7.61329e-09
5.89165e-08
-7.97276e-09
6.23802e-08
-8.40134e-09
6.60403e-08
-8.91159e-09
6.99381e-08
-9.5195e-09
7.4127e-08
-1.02389e-08
7.8653e-08
-1.10825e-08
8.35796e-08
-1.20582e-08
8.8958e-08
-1.31795e-08
9.48572e-08
-1.44462e-08
1.0134e-07
-1.58731e-08
1.08481e-07
-1.74601e-08
1.16353e-07
-1.92149e-08
1.25044e-07
-2.11399e-08
1.34632e-07
-2.3226e-08
1.45218e-07
-2.54762e-08
1.56867e-07
-2.78187e-08
1.69687e-07
-3.02797e-08
1.8368e-07
-3.25941e-08
1.98936e-07
-3.48918e-08
2.15263e-07
-3.64045e-08
2.32715e-07
-3.7605e-08
2.50521e-07
-3.63731e-08
2.68787e-07
-3.44073e-08
2.84942e-07
-2.5397e-08
2.99997e-07
-1.6283e-08
3.05255e-07
1.4842e-08
3.06554e-07
3.73156e-08
2.74852e-07
1.38703e-07
2.17555e-07
2.05682e-07
5.75305e-07
6.59571e-08
-7.18763e-11
5.21481e-10
-3.65478e-10
7.32194e-10
-4.31881e-10
-1.2996e-09
4.07327e-10
-4.97375e-09
2.48944e-09
-8.65215e-09
5.74832e-09
-1.15233e-08
9.91129e-09
-1.34045e-08
1.46472e-08
-1.43469e-08
1.96462e-08
-1.45113e-08
2.46601e-08
-1.41029e-08
2.95125e-08
-1.33438e-08
3.41083e-08
-1.24588e-08
3.84247e-08
-1.16448e-08
4.24947e-08
-1.10305e-08
4.638e-08
-1.06631e-08
5.01438e-08
-1.05241e-08
5.38436e-08
-1.05639e-08
5.75172e-08
-1.07309e-08
6.12029e-08
-1.09917e-08
6.49291e-08
-1.13396e-08
6.87379e-08
-1.17798e-08
7.26724e-08
-1.23356e-08
7.67891e-08
-1.30263e-08
8.11448e-08
-1.38751e-08
8.58083e-08
-1.48989e-08
9.08391e-08
-1.61141e-08
9.63127e-08
-1.75279e-08
1.0229e-07
-1.91577e-08
1.08849e-07
-2.10026e-08
1.16061e-07
-2.30839e-08
1.24008e-07
-2.54047e-08
1.32775e-07
-2.7981e-08
1.42461e-07
-3.0822e-08
1.53159e-07
-3.39243e-08
1.64991e-07
-3.73036e-08
1.78043e-07
-4.08709e-08
1.92451e-07
-4.46845e-08
2.08248e-07
-4.83903e-08
2.25563e-07
-5.2205e-08
2.44242e-07
-5.50834e-08
2.64392e-07
-5.77534e-08
2.85282e-07
-5.72651e-08
3.07101e-07
-5.62229e-08
3.27304e-07
-4.56068e-08
3.46895e-07
-3.5871e-08
3.5773e-07
4.00012e-09
3.63449e-07
3.15992e-08
3.41994e-07
1.60156e-07
2.821e-07
2.65583e-07
6.97506e-07
1.599e-07
-4.4337e-11
5.6618e-10
-3.34224e-10
1.02326e-09
-6.67568e-10
-9.65471e-10
-4.47387e-10
-5.19313e-09
8.54024e-10
-9.95285e-09
3.42521e-09
-1.40939e-08
7.16374e-09
-1.71423e-08
1.18033e-08
-1.89853e-08
1.70261e-08
-1.97333e-08
2.25376e-08
-1.96129e-08
2.80967e-08
-1.8902e-08
3.35359e-08
-1.78968e-08
3.87628e-08
-1.68708e-08
4.37524e-08
-1.60194e-08
4.85249e-08
-1.5434e-08
5.31174e-08
-1.51162e-08
5.75737e-08
-1.50175e-08
6.19237e-08
-1.50809e-08
6.62024e-08
-1.52678e-08
7.04377e-08
-1.55749e-08
7.4675e-08
-1.60155e-08
7.89661e-08
-1.66263e-08
8.33808e-08
-1.7439e-08
8.79932e-08
-1.84873e-08
9.28909e-08
-1.9793e-08
9.81515e-08
-2.13755e-08
1.03866e-07
-2.32388e-08
1.10108e-07
-2.54005e-08
1.16964e-07
-2.7856e-08
1.2451e-07
-3.06293e-08
1.32834e-07
-3.37256e-08
1.42022e-07
-3.71676e-08
1.52177e-07
-4.09732e-08
1.63397e-07
-4.51442e-08
1.7581e-07
-4.97123e-08
1.89513e-07
-5.45739e-08
2.04651e-07
-5.98195e-08
2.21278e-07
-6.50171e-08
2.39532e-07
-7.0457e-08
2.593e-07
-7.48514e-08
2.80683e-07
-7.91342e-08
3.0304e-07
-7.96245e-08
3.26473e-07
-7.96535e-08
3.48768e-07
-6.79079e-08
3.70278e-07
-5.73776e-08
3.84633e-07
-1.0362e-08
3.91377e-07
2.4858e-08
3.776e-07
1.73931e-07
3.17235e-07
3.25955e-07
8.00778e-07
2.13963e-07
-3.69106e-11
6.03469e-10
-2.93446e-10
1.28102e-09
-7.53072e-10
-5.05031e-10
-1.00492e-09
-4.94046e-09
-5.00919e-10
-1.04561e-08
1.12365e-09
-1.57178e-08
3.96714e-09
-1.99852e-08
7.91417e-09
-2.29312e-08
1.27312e-08
-2.45495e-08
1.81513e-08
-2.50315e-08
2.39185e-08
-2.46684e-08
2.98199e-08
-2.37969e-08
3.56983e-08
-2.27483e-08
4.14591e-08
-2.17794e-08
4.706e-08
-2.10333e-08
5.24892e-08
-2.05449e-08
5.77553e-08
-2.02809e-08
6.28632e-08
-2.01888e-08
6.78289e-08
-2.02308e-08
7.26645e-08
-2.04106e-08
7.74049e-08
-2.07541e-08
8.20972e-08
-2.13183e-08
8.68152e-08
-2.2155e-08
9.16449e-08
-2.33169e-08
9.66929e-08
-2.48373e-08
1.02059e-07
-2.67422e-08
1.07856e-07
-2.90324e-08
1.14178e-07
-3.17225e-08
1.21124e-07
-3.47994e-08
1.28779e-07
-3.82841e-08
1.37236e-07
-4.21795e-08
1.4658e-07
-4.65108e-08
1.56914e-07
-5.13028e-08
1.68331e-07
-5.65614e-08
1.80958e-07
-6.23344e-08
1.94891e-07
-6.85067e-08
2.1027e-07
-7.51961e-08
2.27164e-07
-8.19101e-08
2.45693e-07
-8.89849e-08
2.6579e-07
-9.49475e-08
2.875e-07
-1.00843e-07
3.10318e-07
-1.02445e-07
3.34132e-07
-1.03465e-07
3.57242e-07
-9.10243e-08
3.79042e-07
-7.91748e-08
3.95301e-07
-2.66275e-08
4.01551e-07
1.86112e-08
3.92301e-07
1.83179e-07
3.35341e-07
3.82921e-07
8.91326e-07
2.44795e-07
-4.39392e-11
6.47801e-10
-2.7366e-10
1.51198e-09
-7.60311e-10
-1.75412e-11
-1.26711e-09
-4.43281e-09
-1.33542e-09
-1.03871e-08
-5.57992e-10
-1.64945e-08
1.29296e-09
-2.18355e-08
4.25293e-09
-2.589e-08
8.21919e-09
-2.85149e-08
1.30181e-08
-2.98288e-08
1.84449e-08
-3.00943e-08
2.42966e-08
-2.96473e-08
3.03908e-08
-2.88416e-08
3.65838e-08
-2.79716e-08
4.27752e-08
-2.72231e-08
4.88979e-08
-2.66672e-08
5.49142e-08
-2.62945e-08
6.0791e-08
-2.60655e-08
6.65111e-08
-2.59482e-08
7.2056e-08
-2.59555e-08
7.74313e-08
-2.61277e-08
8.26598e-08
-2.65465e-08
8.77997e-08
-2.72928e-08
9.29331e-08
-2.84501e-08
9.81751e-08
-3.00756e-08
1.03644e-07
-3.22121e-08
1.0948e-07
-3.48637e-08
1.15799e-07
-3.80427e-08
1.22728e-07
-4.17252e-08
1.30367e-07
-4.59223e-08
1.38818e-07
-5.06281e-08
1.48171e-07
-5.58628e-08
1.58526e-07
-6.1653e-08
1.69969e-07
-6.80049e-08
1.82618e-07
-7.49786e-08
1.96563e-07
-8.24515e-08
2.11928e-07
-9.05584e-08
2.28787e-07
-9.87686e-08
2.47231e-07
-1.07428e-07
2.67232e-07
-1.14948e-07
2.8876e-07
-1.22369e-07
3.11455e-07
-1.25142e-07
3.34959e-07
-1.26966e-07
3.58099e-07
-1.14171e-07
3.79385e-07
-1.00458e-07
3.96427e-07
-4.36749e-08
4.0195e-07
1.30907e-08
3.95206e-07
1.89921e-07
3.44412e-07
4.33722e-07
9.69014e-07
2.66726e-07
-5.46375e-11
7.02846e-10
-2.79899e-10
1.73852e-09
-7.59672e-10
4.63096e-10
-1.3579e-09
-3.83371e-09
-1.7303e-09
-1.00139e-08
-1.51467e-09
-1.67095e-08
-4.53083e-10
-2.28964e-08
1.57471e-09
-2.79166e-08
4.57554e-09
-3.15149e-08
8.48361e-09
-3.37353e-08
1.31839e-08
-3.47936e-08
1.85332e-08
-3.49954e-08
2.43741e-08
-3.46815e-08
3.05562e-08
-3.41529e-08
3.69507e-08
-3.36159e-08
4.34526e-08
-3.31686e-08
4.99855e-08
-3.28246e-08
5.648e-08
-3.256e-08
6.28843e-08
-3.23496e-08
6.91424e-08
-3.22136e-08
7.52197e-08
-3.22032e-08
8.10969e-08
-3.24233e-08
8.6794e-08
-3.29879e-08
9.23652e-08
-3.40211e-08
9.79126e-08
-3.56193e-08
1.03558e-07
-3.78584e-08
1.09458e-07
-4.076e-08
1.15758e-07
-4.4343e-08
1.22612e-07
-4.85759e-08
1.30147e-07
-5.34568e-08
1.38486e-07
-5.89645e-08
1.47729e-07
-6.51049e-08
1.57979e-07
-7.18983e-08
1.69318e-07
-7.93439e-08
1.81851e-07
-8.75068e-08
1.95657e-07
-9.62584e-08
2.1084e-07
-1.05738e-07
2.2747e-07
-1.15397e-07
2.45601e-07
-1.25557e-07
2.65232e-07
-1.34579e-07
2.8626e-07
-1.43396e-07
3.08446e-07
-1.4733e-07
3.31236e-07
-1.49753e-07
3.53883e-07
-1.36824e-07
3.74277e-07
-1.20851e-07
3.91373e-07
-6.07761e-08
3.96439e-07
8.02747e-09
3.91354e-07
1.95005e-07
3.49092e-07
4.75992e-07
1.03215e-06
2.85964e-07
-6.31834e-11
7.66452e-10
-2.99019e-10
1.97566e-09
-7.781e-10
9.43068e-10
-1.39606e-09
-3.21487e-09
-1.88283e-09
-9.52631e-09
-1.94695e-09
-1.66446e-08
-1.36234e-09
-2.34803e-08
5.11302e-12
-2.92829e-08
2.21178e-09
-3.37206e-08
5.26662e-09
-3.67885e-08
9.13803e-09
-3.8664e-08
1.37588e-08
-3.96148e-08
1.90277e-08
-3.99494e-08
2.48256e-08
-3.99499e-08
3.10318e-08
-3.98204e-08
3.75336e-08
-3.96698e-08
4.42387e-08
-3.95269e-08
5.1059e-08
-3.93802e-08
5.79203e-08
-3.92081e-08
6.47385e-08
-3.90318e-08
7.14415e-08
-3.89044e-08
7.79631e-08
-3.89445e-08
8.42716e-08
-3.92943e-08
9.03719e-08
-4.01212e-08
9.63279e-08
-4.15715e-08
1.0224e-07
-4.37713e-08
1.08264e-07
-4.67796e-08
1.14558e-07
-5.06382e-08
1.21305e-07
-5.53202e-08
1.28663e-07
-6.08138e-08
1.36783e-07
-6.7081e-08
1.45784e-07
-7.41056e-08
1.55783e-07
-8.1892e-08
1.66861e-07
-9.04228e-08
1.79117e-07
-9.97572e-08
1.92617e-07
-1.09759e-07
2.0744e-07
-1.20558e-07
2.23645e-07
-1.31602e-07
2.41251e-07
-1.43161e-07
2.60265e-07
-1.53592e-07
2.80529e-07
-1.63658e-07
3.01881e-07
-1.68684e-07
3.23647e-07
-1.71517e-07
3.45386e-07
-1.58569e-07
3.64653e-07
-1.40115e-07
3.81305e-07
-7.74341e-08
3.8629e-07
3.04467e-09
3.82827e-07
1.98468e-07
3.50429e-07
5.08397e-07
1.07846e-06
3.04116e-07
-6.89288e-11
8.3582e-10
-3.2076e-10
2.22883e-09
-8.12002e-10
1.43523e-09
-1.43591e-09
-2.59005e-09
-1.9497e-09
-9.0117e-09
-2.11015e-09
-1.64834e-08
-1.73789e-09
-2.38518e-08
-7.27405e-10
-3.02922e-08
9.78925e-10
-3.5426e-08
3.41767e-09
-3.92256e-08
6.6041e-09
-4.18494e-08
1.05292e-08
-4.35385e-08
1.51487e-08
-4.45679e-08
2.03893e-08
-4.51897e-08
2.61616e-08
-4.5591e-08
3.23703e-08
-4.5878e-08
3.89315e-08
-4.60852e-08
4.576e-08
-4.62085e-08
5.27799e-08
-4.62253e-08
5.98982e-08
-4.615e-08
6.70216e-08
-4.6026e-08
7.40484e-08
-4.59709e-08
8.08976e-08
-4.61414e-08
8.75168e-08
-4.67401e-08
9.39145e-08
-4.79655e-08
1.00147e-07
-5.00044e-08
1.06343e-07
-5.29718e-08
1.12657e-07
-5.6953e-08
1.19284e-07
-6.1944e-08
1.26406e-07
-6.7935e-08
1.34204e-07
-7.48765e-08
1.42827e-07
-8.27271e-08
1.52407e-07
-9.14679e-08
1.6304e-07
-1.01055e-07
1.74818e-07
-1.11531e-07
1.87803e-07
-1.22743e-07
2.02049e-07
-1.34801e-07
2.176e-07
-1.47153e-07
2.34442e-07
-1.60001e-07
2.52574e-07
-1.71724e-07
2.71801e-07
-1.82884e-07
2.92001e-07
-1.88887e-07
3.12445e-07
-1.91958e-07
3.32907e-07
-1.79036e-07
3.50832e-07
-1.58038e-07
3.6666e-07
-9.32677e-08
3.71887e-07
-2.17863e-09
3.70301e-07
2.00053e-07
3.48441e-07
5.30265e-07
1.10642e-06
3.20484e-07
-7.32824e-11
9.09557e-10
-3.41356e-10
2.49827e-09
-8.52591e-10
1.94741e-09
-1.48813e-09
-1.95358e-09
-2.00506e-09
-8.49393e-09
-2.18039e-09
-1.63073e-08
-1.86633e-09
-2.41651e-08
-9.88627e-10
-3.11686e-08
4.86526e-10
-3.69002e-08
2.58854e-09
-4.13259e-08
5.3449e-09
-4.46047e-08
8.77351e-09
-4.69657e-08
1.28667e-08
-4.866e-08
1.7589e-08
-4.99111e-08
2.28843e-08
-5.08845e-08
2.86844e-08
-5.16775e-08
3.49266e-08
-5.23246e-08
4.15436e-08
-5.28253e-08
4.84747e-08
-5.31536e-08
5.56366e-08
-5.33118e-08
6.2936e-08
-5.33236e-08
7.02557e-08
-5.32901e-08
7.74813e-08
-5.33649e-08
8.45116e-08
-5.37702e-08
9.12978e-08
-5.47479e-08
9.78398e-08
-5.6547e-08
1.04222e-07
-5.93501e-08
1.10572e-07
-6.33033e-08
1.17077e-07
-6.84464e-08
1.23931e-07
-7.47885e-08
1.31338e-07
-8.22799e-08
1.3947e-07
-9.08585e-08
1.48486e-07
-1.00479e-07
1.58495e-07
-1.11065e-07
1.69597e-07
-1.22628e-07
1.81849e-07
-1.34995e-07
1.9529e-07
-1.48239e-07
2.09947e-07
-1.61809e-07
2.25778e-07
-1.7583e-07
2.42764e-07
-1.8871e-07
2.60686e-07
-2.00804e-07
2.79442e-07
-2.07645e-07
2.98285e-07
-2.10799e-07
3.17144e-07
-1.97902e-07
3.33535e-07
-1.74427e-07
3.48244e-07
-1.07982e-07
3.53912e-07
-7.84292e-09
3.54514e-07
1.99451e-07
3.43259e-07
5.41528e-07
1.11543e-06
3.34263e-07
-7.73981e-11
9.87427e-10
-3.61013e-10
2.78328e-09
-8.94794e-10
2.48217e-09
-1.54819e-09
-1.29923e-09
-2.0685e-09
-7.97276e-09
-2.23525e-09
-1.61398e-08
-1.9141e-09
-2.44855e-08
-1.05106e-09
-3.20304e-08
3.65597e-10
-3.83159e-08
2.34697e-09
-4.33055e-08
4.91179e-09
-4.71684e-08
8.08095e-09
-5.01335e-08
1.18592e-08
-5.24372e-08
1.62308e-08
-5.42817e-08
2.11617e-08
-5.58137e-08
2.66056e-08
-5.71206e-08
3.25204e-08
-5.82366e-08
3.88599e-08
-5.91645e-08
4.55843e-08
-5.98752e-08
5.26307e-08
-6.0358e-08
5.99204e-08
-6.06116e-08
6.73396e-08
-6.07088e-08
7.4761e-08
-6.07841e-08
8.20525e-08
-6.10614e-08
8.91194e-08
-6.1811e-08
9.59084e-08
-6.33365e-08
1.02453e-07
-6.58906e-08
1.0884e-07
-6.96907e-08
1.15233e-07
-7.48373e-08
1.21822e-07
-8.13757e-08
1.28816e-07
-8.92712e-08
1.36408e-07
-9.84498e-08
1.44776e-07
-1.08843e-07
1.54049e-07
-1.20337e-07
1.64333e-07
-1.32908e-07
1.75689e-07
-1.46351e-07
1.88148e-07
-1.60695e-07
2.0172e-07
-1.7538e-07
2.16343e-07
-1.90451e-07
2.31978e-07
-2.04345e-07
2.48388e-07
-2.17212e-07
2.65482e-07
-2.24741e-07
2.82524e-07
-2.27839e-07
2.99553e-07
-2.14937e-07
3.14284e-07
-1.89156e-07
3.27694e-07
-1.21397e-07
3.33906e-07
-1.40514e-08
3.36974e-07
1.96383e-07
3.3585e-07
5.42661e-07
1.10611e-06
3.45175e-07
-8.16906e-11
1.06961e-09
-3.80683e-10
3.0837e-09
-9.37583e-10
3.04008e-09
-1.61157e-09
-6.2426e-10
-2.13904e-09
-7.44439e-09
-2.29526e-09
-1.59828e-08
-1.94877e-09
-2.48311e-08
-1.05393e-09
-3.29239e-08
3.87793e-10
-3.97566e-08
2.37257e-09
-4.52886e-08
4.90615e-09
-4.97009e-08
8.00129e-09
-5.32272e-08
1.16613e-08
-5.6096e-08
1.58742e-08
-5.84936e-08
2.06139e-08
-6.05517e-08
2.58451e-08
-6.23511e-08
3.15384e-08
-6.3927e-08
3.76621e-08
-6.52879e-08
4.41944e-08
-6.64047e-08
5.10919e-08
-6.72553e-08
5.82952e-08
-6.78131e-08
6.57041e-08
-6.81171e-08
7.31936e-08
-6.82715e-08
8.06191e-08
-6.84866e-08
8.78577e-08
-6.90458e-08
9.48159e-08
-7.02952e-08
1.01481e-07
-7.25524e-08
1.079e-07
-7.61094e-08
1.14203e-07
-8.11373e-08
1.20559e-07
-8.77316e-08
1.27177e-07
-9.58862e-08
1.34255e-07
-1.05527e-07
1.41983e-07
-1.16566e-07
1.50504e-07
-1.28857e-07
1.59934e-07
-1.42334e-07
1.70339e-07
-1.56756e-07
1.81746e-07
-1.72098e-07
1.94153e-07
-1.87787e-07
2.07484e-07
-2.03781e-07
2.21684e-07
-2.18545e-07
2.36502e-07
-2.32028e-07
2.51857e-07
-2.40099e-07
2.67042e-07
-2.43022e-07
2.82171e-07
-2.30072e-07
2.95249e-07
-2.02233e-07
3.07347e-07
-1.33498e-07
3.14188e-07
-2.0889e-08
3.19941e-07
1.90631e-07
3.28099e-07
5.34512e-07
1.08011e-06
3.54102e-07
-8.61798e-11
1.1563e-09
-4.01823e-10
3.40079e-09
-9.8135e-10
3.62065e-09
-1.67671e-09
7.21122e-11
-2.21328e-09
-6.9069e-09
-2.36055e-09
-1.58346e-08
-1.98641e-09
-2.52044e-08
-1.0472e-09
-3.38617e-08
4.49981e-10
-4.12527e-08
2.49288e-09
-4.73297e-08
5.07794e-09
-5.22848e-08
8.2094e-09
-5.63572e-08
1.18842e-08
-5.97696e-08
1.60868e-08
-6.26953e-08
2.07908e-08
-6.52539e-08
2.59623e-08
-6.75219e-08
3.15759e-08
-6.95376e-08
3.76062e-08
-7.13179e-08
4.40407e-08
-7.28365e-08
5.08494e-08
-7.40637e-08
5.79878e-08
-7.49496e-08
6.537e-08
-7.54987e-08
7.28805e-08
-7.57798e-08
8.03737e-08
-7.59795e-08
8.77138e-08
-7.63822e-08
9.47832e-08
-7.73649e-08
1.01537e-07
-7.93024e-08
1.07986e-07
-8.25585e-08
1.1423e-07
-8.73788e-08
1.20416e-07
-9.3917e-08
1.26739e-07
-1.02206e-07
1.33394e-07
-1.1218e-07
1.40574e-07
-1.23742e-07
1.48431e-07
-1.36714e-07
1.57088e-07
-1.50986e-07
1.66613e-07
-1.6628e-07
1.7703e-07
-1.82513e-07
1.88335e-07
-1.9909e-07
2.00438e-07
-2.15882e-07
2.13274e-07
-2.31382e-07
2.26586e-07
-2.45337e-07
2.403e-07
-2.53816e-07
2.53757e-07
-2.56477e-07
2.67118e-07
-2.43439e-07
2.78729e-07
-2.13843e-07
2.89704e-07
-1.44477e-07
2.9732e-07
-2.85023e-08
3.05943e-07
1.8201e-07
3.22322e-07
5.18143e-07
1.03962e-06
3.62816e-07
-9.08126e-11
1.24764e-09
-4.2392e-10
3.73539e-09
-1.02646e-09
4.22427e-09
-1.74355e-09
7.90234e-10
-2.28974e-09
-6.35976e-09
-2.42852e-09
-1.5695e-08
-2.02683e-09
-2.56052e-08
-1.04101e-09
-3.48462e-08
5.19955e-10
-4.28125e-08
2.63988e-09
-4.94478e-08
5.31025e-09
-5.49539e-08
8.5299e-09
-5.95753e-08
1.22904e-08
-6.35289e-08
1.65717e-08
-6.69755e-08
2.13436e-08
-7.00239e-08
2.65699e-08
-7.27474e-08
3.22239e-08
-7.51887e-08
3.82805e-08
-7.73741e-08
4.47297e-08
-7.92829e-08
5.15465e-08
-8.08802e-08
5.86946e-08
-8.20959e-08
6.60974e-08
-8.29009e-08
7.36471e-08
-8.33273e-08
8.12021e-08
-8.35341e-08
8.86231e-08
-8.37995e-08
9.57808e-08
-8.45228e-08
1.02611e-07
-8.61292e-08
1.09102e-07
-8.90496e-08
1.1533e-07
-9.36036e-08
1.21421e-07
-1.00007e-07
1.27553e-07
-1.08336e-07
1.33916e-07
-1.18542e-07
1.40699e-07
-1.30521e-07
1.48054e-07
-1.44069e-07
1.56107e-07
-1.59034e-07
1.64927e-07
-1.751e-07
1.74537e-07
-1.9212e-07
1.84928e-07
-2.0948e-07
1.96004e-07
-2.26956e-07
2.07696e-07
-2.43074e-07
2.19744e-07
-2.57384e-07
2.32086e-07
-2.66159e-07
2.44121e-07
-2.68511e-07
2.5604e-07
-2.55362e-07
2.6655e-07
-2.24352e-07
2.76794e-07
-1.54725e-07
2.85446e-07
-3.71498e-08
2.97143e-07
1.70314e-07
3.20717e-07
4.94579e-07
9.86998e-07
3.73349e-07
-9.55626e-11
1.34376e-09
-4.46689e-10
4.08803e-09
-1.07304e-09
4.85174e-09
-1.81225e-09
1.53051e-09
-2.36822e-09
-5.80281e-09
-2.49803e-09
-1.55643e-08
-2.06808e-09
-2.60343e-08
-1.03466e-09
-3.58782e-08
5.92526e-10
-4.44386e-08
2.79531e-09
-5.16487e-08
5.56276e-09
-5.77201e-08
8.89092e-09
-6.2902e-08
1.27683e-08
-6.7405e-08
1.71714e-08
-7.13774e-08
2.20668e-08
-7.49175e-08
2.74156e-08
-7.80952e-08
3.3188e-08
-8.09582e-08
3.9357e-08
-8.35426e-08
4.5911e-08
-8.58342e-08
5.28252e-08
-8.7794e-08
6.00646e-08
-8.93335e-08
6.75558e-08
-9.03915e-08
7.51947e-08
-9.0964e-08
8.28423e-08
-9.11813e-08
9.03594e-08
-9.13129e-08
9.76127e-08
-9.17763e-08
1.04529e-07
-9.30423e-08
1.11085e-07
-9.56054e-08
1.17342e-07
-9.98573e-08
1.23411e-07
-1.06075e-07
1.29461e-07
-1.14382e-07
1.3567e-07
-1.2475e-07
1.42222e-07
-1.37069e-07
1.49267e-07
-1.51113e-07
1.56928e-07
-1.6669e-07
1.65274e-07
-1.83446e-07
1.74325e-07
-2.01169e-07
1.84071e-07
-2.19225e-07
1.94411e-07
-2.37295e-07
2.05276e-07
-2.53939e-07
2.16411e-07
-2.68518e-07
2.27764e-07
-2.77515e-07
2.3881e-07
-2.79555e-07
2.49755e-07
-2.66313e-07
2.59668e-07
-2.34264e-07
2.69726e-07
-1.64787e-07
2.79788e-07
-4.72072e-08
2.94815e-07
1.5529e-07
3.24779e-07
4.64624e-07
9.24397e-07
3.87389e-07
-1.00427e-10
1.44476e-09
-4.70099e-10
4.45926e-09
-1.12107e-09
5.50387e-09
-1.88288e-09
2.29342e-09
-2.44883e-09
-5.23583e-09
-2.56893e-09
-1.54432e-08
-2.10938e-09
-2.64929e-08
-1.02682e-09
-3.69593e-08
6.68552e-10
-4.61327e-08
2.95711e-09
-5.39354e-08
5.82639e-09
-6.0588e-08
9.27098e-09
-6.6345e-08
1.32777e-08
-7.14104e-08
1.78211e-08
-7.59197e-08
2.28658e-08
-7.99603e-08
2.83704e-08
-8.35989e-08
3.4303e-08
-8.68879e-08
4.06344e-08
-8.98734e-08
4.73504e-08
-9.25474e-08
5.44239e-08
-9.4867e-08
6.18177e-08
-9.67254e-08
6.94568e-08
-9.803e-08
7.72365e-08
-9.87415e-08
8.50175e-08
-9.89618e-08
9.26603e-08
-9.89521e-08
1.00031e-07
-9.91469e-08
1.07054e-07
-1.00062e-07
1.13701e-07
-1.02252e-07
1.20027e-07
-1.06181e-07
1.26139e-07
-1.12186e-07
1.32196e-07
-1.20436e-07
1.38372e-07
-1.30924e-07
1.44843e-07
-1.43536e-07
1.51758e-07
-1.58027e-07
1.59233e-07
-1.74161e-07
1.67338e-07
-1.9155e-07
1.76088e-07
-2.09917e-07
1.85473e-07
-2.28608e-07
1.95391e-07
-2.47211e-07
2.05775e-07
-2.64323e-07
2.16385e-07
-2.79126e-07
2.27179e-07
-2.88311e-07
2.37713e-07
-2.90088e-07
2.48216e-07
-2.76821e-07
2.58091e-07
-2.44137e-07
2.68583e-07
-1.75283e-07
2.80507e-07
-5.91269e-08
2.99159e-07
1.36641e-07
3.34996e-07
4.28798e-07
8.536e-07
4.05802e-07
-1.05411e-10
1.55078e-09
-4.94131e-10
4.84956e-09
-1.17053e-09
6.18147e-09
-1.95544e-09
3.07947e-09
-2.53167e-09
-4.65854e-09
-2.64132e-09
-1.53326e-08
-2.15065e-09
-2.69826e-08
-1.01704e-09
-3.80914e-08
7.48845e-10
-4.78973e-08
3.12599e-09
-5.63106e-08
6.10058e-09
-6.35612e-08
9.66613e-09
-6.99089e-08
1.38084e-08
-7.55513e-08
1.85008e-08
-8.06108e-08
2.37062e-08
-8.51638e-08
2.9382e-08
-8.92737e-08
3.5495e-08
-9.29979e-08
4.20141e-08
-9.63918e-08
4.8923e-08
-9.94536e-08
5.61917e-08
-1.02135e-07
6.37792e-08
-1.04311e-07
7.16068e-08
-1.05857e-07
7.95658e-08
-1.06698e-07
8.75141e-08
-1.0691e-07
9.53105e-08
-1.06745e-07
1.02821e-07
-1.06657e-07
1.09971e-07
-1.07208e-07
1.16732e-07
-1.09014e-07
1.2316e-07
-1.12607e-07
1.29361e-07
-1.18386e-07
1.35491e-07
-1.26564e-07
1.41722e-07
-1.37153e-07
1.48228e-07
-1.50038e-07
1.55153e-07
-1.64951e-07
1.62611e-07
-1.81615e-07
1.70669e-07
-1.99607e-07
1.79341e-07
-2.18586e-07
1.88615e-07
-2.37881e-07
1.98394e-07
-2.56989e-07
2.08614e-07
-2.74543e-07
2.19056e-07
-2.89566e-07
2.2969e-07
-2.98948e-07
2.40164e-07
-3.00561e-07
2.50732e-07
-2.87394e-07
2.61109e-07
-2.54513e-07
2.7264e-07
-1.86817e-07
2.86885e-07
-7.33673e-08
3.09474e-07
1.14056e-07
3.50876e-07
3.87406e-07
7.7583e-07
4.28655e-07
-1.10517e-10
1.66192e-09
-5.18773e-10
5.25944e-09
-1.2214e-09
6.88536e-09
-2.02991e-09
3.88916e-09
-2.61678e-09
-4.07059e-09
-2.71532e-09
-1.5233e-08
-2.19201e-09
-2.75048e-08
-1.00533e-09
-3.92765e-08
8.33577e-10
-4.97349e-08
3.30236e-09
-5.87774e-08
6.3858e-09
-6.66432e-08
1.00764e-08
-7.35979e-08
1.4359e-08
-7.98325e-08
1.92058e-08
-8.54564e-08
2.45788e-08
-9.05348e-08
3.04342e-08
-9.5128e-08
3.67377e-08
-9.92985e-08
4.34573e-08
-1.03111e-07
5.05749e-08
-1.06568e-07
5.80578e-08
-1.09618e-07
6.5861e-08
-1.12112e-07
7.39006e-08
-1.13896e-07
8.20627e-08
-1.14858e-07
9.02006e-08
-1.15047e-07
9.81704e-08
-1.14711e-07
1.05838e-07
-1.14325e-07
1.13129e-07
-1.14495e-07
1.20021e-07
-1.15905e-07
1.26571e-07
-1.19154e-07
1.32889e-07
-1.24703e-07
1.39135e-07
-1.32806e-07
1.45479e-07
-1.43496e-07
1.52096e-07
-1.5665e-07
1.59128e-07
-1.71982e-07
1.66687e-07
-1.89169e-07
1.74839e-07
-2.07758e-07
1.83598e-07
-2.27342e-07
1.92952e-07
-2.47234e-07
2.0281e-07
-2.66845e-07
2.13114e-07
-2.84848e-07
2.23675e-07
-3.00125e-07
2.34477e-07
-3.09753e-07
2.45264e-07
-3.11347e-07
2.56327e-07
-2.98462e-07
2.67664e-07
-2.65849e-07
2.80753e-07
-1.99908e-07
2.97726e-07
-9.03351e-08
3.24499e-07
8.72868e-08
3.7132e-07
3.40596e-07
6.91975e-07
4.55184e-07
-1.15749e-10
1.77833e-09
-5.4401e-10
5.68936e-09
-1.27367e-09
7.61632e-09
-2.10629e-09
4.723e-09
-2.70419e-09
-3.47155e-09
-2.79102e-09
-1.51451e-08
-2.23358e-09
-2.80612e-08
-9.91814e-10
-4.05167e-08
9.22652e-10
-5.1648e-08
3.48622e-09
-6.1339e-08
6.68219e-09
-6.98376e-08
1.05019e-08
-7.74159e-08
1.49294e-08
-8.42586e-08
1.99359e-08
-9.04615e-08
2.5482e-08
-9.60789e-08
3.15231e-08
-1.01168e-07
3.8024e-08
-1.05796e-07
4.49521e-08
-1.10038e-07
5.22875e-08
-1.13901e-07
5.99953e-08
-1.17325e-07
6.80263e-08
-1.20142e-07
7.62912e-08
-1.2216e-07
8.46698e-08
-1.23234e-07
9.30104e-08
-1.23387e-07
1.01165e-07
-1.22862e-07
1.08999e-07
-1.22159e-07
1.16441e-07
-1.21934e-07
1.23472e-07
-1.22936e-07
1.30157e-07
-1.25836e-07
1.36609e-07
-1.31155e-07
1.42993e-07
-1.39187e-07
1.49484e-07
-1.49986e-07
1.56256e-07
-1.63418e-07
1.63453e-07
-1.79178e-07
1.71187e-07
-1.96899e-07
1.79522e-07
-2.16092e-07
1.88475e-07
-2.36292e-07
1.98036e-07
-2.56794e-07
2.08124e-07
-2.76931e-07
2.18689e-07
-2.95413e-07
2.29573e-07
-3.11007e-07
2.40783e-07
-3.20966e-07
2.52159e-07
-3.22722e-07
2.64045e-07
-3.10353e-07
2.76694e-07
-2.78497e-07
2.91742e-07
-2.14958e-07
3.11749e-07
-1.10337e-07
3.42893e-07
5.61476e-08
3.94995e-07
2.88505e-07
6.0269e-07
4.8429e-07
-1.2111e-10
1.90013e-09
-5.6983e-10
6.13977e-09
-1.32729e-09
8.37514e-09
-2.18456e-09
5.58152e-09
-2.79381e-09
-2.86111e-09
-2.8685e-09
-1.50692e-08
-2.27549e-09
-2.86531e-08
-9.76631e-10
-4.18139e-08
1.0159e-09
-5.3639e-08
3.6774e-09
-6.39984e-08
6.9896e-09
-7.31482e-08
1.09427e-08
-8.13672e-08
1.55197e-08
-8.88341e-08
2.06908e-08
-9.56312e-08
2.64155e-08
-1.01801e-07
3.26481e-08
-1.07399e-07
3.93525e-08
-1.12498e-07
4.64954e-08
-1.1718e-07
5.40556e-08
-1.21459e-07
6.19959e-08
-1.25264e-07
7.02626e-08
-1.28406e-07
7.8761e-08
-1.30657e-07
8.73642e-08
-1.31835e-07
9.59148e-08
-1.31937e-07
1.04261e-07
-1.31205e-07
1.12267e-07
-1.30165e-07
1.19865e-07
-1.29528e-07
1.2704e-07
-1.3011e-07
1.33863e-07
-1.32657e-07
1.40457e-07
-1.37748e-07
1.46991e-07
-1.45718e-07
1.53645e-07
-1.56638e-07
1.60597e-07
-1.70365e-07
1.67991e-07
-1.86571e-07
1.7594e-07
-2.04843e-07
1.84511e-07
-2.24662e-07
1.93722e-07
-2.455e-07
2.03567e-07
-2.66638e-07
2.13978e-07
-2.8734e-07
2.24916e-07
-3.06351e-07
2.36258e-07
-3.22348e-07
2.48037e-07
-3.32748e-07
2.60192e-07
-3.34875e-07
2.7313e-07
-3.23296e-07
2.87339e-07
-2.92705e-07
3.04623e-07
-2.32244e-07
3.27872e-07
-1.3358e-07
3.63435e-07
2.05897e-08
4.20671e-07
2.3128e-07
5.08395e-07
5.14976e-07
-1.26604e-10
2.02746e-09
-5.96218e-10
6.61112e-09
-1.38224e-09
9.16258e-09
-2.26471e-09
6.4653e-09
-2.88543e-09
-2.23916e-09
-2.94787e-09
-1.50056e-08
-2.31787e-09
-2.92819e-08
-9.5993e-10
-4.31701e-08
1.11314e-09
-5.57106e-08
3.87565e-09
-6.67589e-08
7.30781e-09
-7.65787e-08
1.13984e-08
-8.54561e-08
1.61297e-08
-9.35638e-08
2.14705e-08
-1.00971e-07
2.73791e-08
-1.07708e-07
3.38088e-08
-1.13828e-07
4.07227e-08
-1.19409e-07
4.80867e-08
-1.24543e-07
5.58781e-08
-1.29247e-07
6.40574e-08
-1.33443e-07
7.25663e-08
-1.36914e-07
8.13044e-08
-1.39395e-07
9.0138e-08
-1.40667e-07
9.89034e-08
-1.40701e-07
1.07445e-07
-1.39743e-07
1.15626e-07
-1.38346e-07
1.23381e-07
-1.37279e-07
1.30702e-07
-1.3743e-07
1.37667e-07
-1.39619e-07
1.44406e-07
-1.44485e-07
1.51095e-07
-1.52405e-07
1.57921e-07
-1.63462e-07
1.65063e-07
-1.77504e-07
1.7267e-07
-1.94177e-07
1.80857e-07
-2.13026e-07
1.89691e-07
-2.33495e-07
1.99196e-07
-2.55003e-07
2.09371e-07
-2.76812e-07
2.20161e-07
-2.98128e-07
2.3154e-07
-3.1773e-07
2.43423e-07
-3.3423e-07
2.55876e-07
-3.45203e-07
2.68933e-07
-3.47932e-07
2.83079e-07
-3.37446e-07
2.9901e-07
-3.08634e-07
3.18703e-07
-2.51939e-07
3.45296e-07
-1.60166e-07
3.85229e-07
-1.93379e-08
4.47415e-07
1.69105e-07
4.09633e-07
5.46188e-07
-1.32238e-10
2.16046e-09
-6.23161e-10
7.10383e-09
-1.43848e-09
9.97938e-09
-2.34672e-09
7.3749e-09
-2.97921e-09
-1.60538e-09
-3.02921e-09
-1.49544e-08
-2.36094e-09
-2.99489e-08
-9.4189e-10
-4.45874e-08
1.21415e-09
-5.7865e-08
4.08072e-09
-6.96233e-08
7.6365e-09
-8.01327e-08
1.18689e-08
-8.96866e-08
1.67589e-08
-9.84522e-08
2.22745e-08
-1.06485e-07
2.83723e-08
-1.13804e-07
3.5005e-08
-1.20459e-07
4.21341e-08
-1.26535e-07
4.97254e-08
-1.32133e-07
5.77543e-08
-1.37274e-07
6.61787e-08
-1.41866e-07
7.4936e-08
-1.45669e-07
8.39194e-08
-1.48377e-07
9.29881e-08
-1.49733e-07
1.01972e-07
-1.49685e-07
1.10712e-07
-1.48479e-07
1.1907e-07
-1.46704e-07
1.26984e-07
-1.45189e-07
1.34451e-07
-1.44897e-07
1.41558e-07
-1.46723e-07
1.48443e-07
-1.51369e-07
1.55291e-07
-1.59249e-07
1.62291e-07
-1.70462e-07
1.69631e-07