/*--------------------------------*- C++ -*----------------------------------*\
  =========                 |
  \\      /  F ield         | OpenFOAM: The Open Source CFD Toolbox
   \\    /   O peration     | Website:  https://openfoam.org
    \\  /    A nd           | Version:  7
     \\/     M anipulation  |
\*---------------------------------------------------------------------------*/
FoamFile
{
    version     2.0;
    format      ascii;
    class       volScalarField;
    location    "0.34";
    object      nut;
}
// * * * * * * * * * * * * * * * * * * * * * * * * * * * * * * * * * * * * * //

dimensions      [0 2 -1 0 0 0 0];

internalField   nonuniform List<scalar> 
70000
(
9.96287e-12
6.88139e-14
2.56138e-16
8.59594e-17
4.81308e-17
7.91534e-17
2.79121e-17
1.31101e-17
8.92542e-18
6.54353e-18
4.81943e-18
3.61356e-18
2.77386e-18
2.17488e-18
1.73621e-18
1.40775e-18
1.15718e-18
9.6289e-19
8.10046e-19
6.88233e-19
5.89982e-19
5.09886e-19
4.43914e-19
3.89116e-19
3.4313e-19
3.04349e-19
2.71181e-19
2.42918e-19
2.18133e-19
1.97007e-19
1.77657e-19
1.61533e-19
1.45523e-19
1.32927e-19
1.1888e-19
1.08236e-19
9.6258e-20
8.39982e-20
7.86991e-20
5.47705e-20
7.40506e-20
1.68027e-20
1.27446e-19
6.04025e-22
8.47768e-19
1.67703e-18
2.20587e-17
1.44901e-16
5.74476e-15
2.00977e-12
1.04278e-10
5.98698e-12
6.44302e-14
2.1432e-14
2.88835e-16
1.69427e-17
2.52109e-17
2.11755e-17
1.23136e-17
7.3402e-18
4.8222e-18
3.37244e-18
2.45098e-18
1.83371e-18
1.4058e-18
1.10068e-18
8.77661e-19
7.11077e-19
5.84232e-19
4.85992e-19
4.08766e-19
3.47222e-19
2.97606e-19
2.57119e-19
2.2383e-19
1.96077e-19
1.72952e-19
1.53201e-19
1.36719e-19
1.22086e-19
1.10191e-19
9.87867e-20
9.02532e-20
8.08473e-20
7.47148e-20
6.70271e-20
6.13945e-20
5.79718e-20
4.65469e-20
5.97125e-20
2.37271e-20
1.07794e-19
1.49313e-21
6.04151e-19
4.10412e-19
1.14842e-17
4.52523e-17
5.4683e-16
2.1719e-14
3.16519e-13
3.19197e-10
3.3971e-12
1.90781e-13
1.98894e-14
7.64455e-16
5.79644e-17
7.20835e-18
4.12687e-18
2.08978e-18
1.03189e-18
5.6985e-19
3.47901e-19
2.25793e-19
1.52614e-19
1.0651e-19
7.64092e-20
5.61565e-20
4.21611e-20
3.22552e-20
2.50915e-20
1.98131e-20
1.58542e-20
1.28423e-20
1.05134e-20
8.6998e-21
7.25716e-21
6.12276e-21
5.18778e-21
4.46849e-21
3.83313e-21
3.39502e-21
2.93774e-21
2.71928e-21
2.38275e-21
2.35436e-21
2.20171e-21
2.27908e-21
2.81561e-21
2.52407e-21
6.57273e-21
3.89004e-21
3.39093e-20
3.3412e-20
4.55744e-19
1.43317e-18
1.371e-17
7.40989e-17
6.95829e-16
2.06899e-14
2.53327e-13
6.15388e-09
1.92719e-11
7.83474e-13
6.09956e-14
5.46633e-15
9.22323e-16
1.08965e-16
2.88351e-17
1.19507e-17
5.24805e-18
2.42493e-18
1.23064e-18
6.80156e-19
3.99314e-19
2.44823e-19
1.55308e-19
1.01355e-19
6.77546e-20
4.62324e-20
3.21056e-20
2.26338e-20
1.61645e-20
1.16751e-20
8.51758e-21
6.27315e-21
4.66571e-21
3.5094e-21
2.67923e-21
2.08546e-21
1.67286e-21
1.39113e-21
1.23095e-21
1.15272e-21
1.20918e-21
1.34568e-21
1.77966e-21
2.38793e-21
3.99886e-21
6.23418e-21
1.28085e-20
2.27782e-20
6.01648e-20
1.43295e-19
5.74852e-19
2.36922e-18
1.32823e-17
7.73064e-17
4.69815e-16
1.35802e-14
3.07508e-13
2.32243e-09
2.23315e-10
4.45137e-12
3.21216e-13
2.29344e-14
4.37436e-15
7.12457e-16
1.98698e-16
8.0595e-17
3.54756e-17
1.64393e-17
8.27041e-18
4.50485e-18
2.60677e-18
1.57855e-18
9.91293e-19
6.4171e-19
4.2629e-19
2.89524e-19
2.00402e-19
1.40986e-19
1.00574e-19
7.26056e-20
5.29626e-20
3.89981e-20
2.8982e-20
2.17517e-20
1.65304e-20
1.27595e-20
1.00895e-20
8.21126e-21
7.02876e-21
6.31156e-21
6.24599e-21
6.53755e-21
8.04361e-21
1.00786e-20
1.59646e-20
2.31637e-20
4.64859e-20
7.3967e-20
1.86896e-19
3.48087e-19
1.17523e-18
3.60553e-18
1.49192e-17
8.09916e-17
2.55915e-16
8.90225e-15
2.66052e-13
3.01144e-09
5.28694e-09
4.35562e-11
1.9419e-12
1.07489e-13
1.78594e-14
3.20022e-15
9.2678e-16
3.74703e-16
1.66013e-16
7.75667e-17
3.90658e-17
2.11789e-17
1.21689e-17
7.31354e-18
4.55945e-18
2.932e-18
1.93639e-18
1.30864e-18
9.02163e-19
6.32689e-19
4.50275e-19
3.24518e-19
2.3644e-19
1.73938e-19
1.29128e-19
9.67653e-20
7.33209e-20
5.63235e-20
4.41406e-20
3.5466e-20
2.96971e-20
2.59559e-20
2.46172e-20
2.46579e-20
2.85645e-20
3.38821e-20
5.07102e-20
6.93841e-20
1.34938e-19
1.9944e-19
4.9299e-19
8.01142e-19
2.44198e-18
6.01064e-18
1.80171e-17
9.21143e-17
1.05181e-16
5.9036e-15
2.1147e-13
1.07677e-09
4.76495e-09
3.715e-09
1.84707e-11
6.67382e-13
9.08849e-14
1.49578e-14
4.04694e-15
1.55116e-15
6.69879e-16
3.09323e-16
1.54389e-16
8.29526e-17
4.72476e-17
2.8162e-17
1.74219e-17
1.11238e-17
7.29913e-18
4.90457e-18
3.36433e-18
2.34951e-18
1.66637e-18
1.1977e-18
8.70786e-19
6.39533e-19
4.7409e-19
3.54731e-19
2.68222e-19
2.05377e-19
1.60071e-19
1.27523e-19
1.053e-19
9.02793e-20
8.3158e-20
8.05122e-20
8.89372e-20
1.00964e-19
1.42623e-19
1.87473e-19
3.44869e-19
4.95024e-19
1.15055e-18
1.80042e-18
4.83479e-18
1.07652e-17
2.31383e-17
1.15769e-16
2.92705e-17
3.90296e-15
1.55183e-13
2.42832e-09
3.86957e-09
8.22023e-10
2.41412e-09
8.55748e-12
7.06247e-13
8.90848e-14
2.01757e-14
6.87427e-15
2.75273e-15
1.20811e-15
5.81029e-16
3.03457e-16
1.69043e-16
9.89738e-17
6.03324e-17
3.8047e-17
2.47028e-17
1.6449e-17
1.11963e-17
7.76793e-18
5.47931e-18
3.92064e-18
2.84016e-18
2.0798e-18
1.538e-18
1.14826e-18
8.66178e-19
6.61303e-19
5.13199e-19
4.06309e-19
3.32134e-19
2.80871e-19
2.53163e-19
2.39036e-19
2.54161e-19
2.78912e-19
3.73782e-19
4.76701e-19
8.25613e-19
1.16944e-18
2.52566e-18
3.95043e-18
9.36014e-18
2.00506e-17
3.29597e-17
1.60238e-16
9.96883e-18
2.61111e-15
1.04127e-13
3.36989e-09
4.37029e-09
5.90621e-10
2.99354e-10
5.47481e-10
1.83353e-11
9.41248e-13
1.41856e-13
3.84469e-14
1.33084e-14
5.26988e-15
2.34695e-15
1.15567e-15
6.14897e-16
3.47137e-16
2.05467e-16
1.26477e-16
8.04836e-17
5.26953e-17
3.53608e-17
2.424e-17
1.69264e-17
1.20097e-17
8.63924e-18
6.28984e-18
4.62879e-18
3.44141e-18
2.58596e-18
1.96663e-18
1.51913e-18
1.19593e-18
9.69464e-19
8.11183e-19
7.18954e-19
6.66166e-19
6.87072e-19
7.34562e-19
9.40811e-19
1.17181e-18
1.91699e-18
2.69497e-18
5.41469e-18
8.55555e-18
1.81936e-17
3.83566e-17
5.36033e-17
2.42166e-16
2.59587e-17
1.82632e-15
6.53679e-14
3.41142e-09
4.60742e-09
6.72095e-10
1.93061e-10
4.67825e-11
6.65839e-11
3.00043e-10
2.74101e-12
3.7779e-13
9.37252e-14
3.0144e-14
1.16078e-14
5.13383e-15
2.51593e-15
1.33124e-15
7.4788e-16
4.41108e-16
2.70922e-16
1.72186e-16
1.12679e-16
7.56137e-17
5.1853e-17
3.62308e-17
2.57269e-17
1.85264e-17
1.35076e-17
9.96276e-18
7.4334e-18
5.61643e-18
4.31003e-18
3.36987e-18
2.7087e-18
2.24461e-18
1.96146e-18
1.79007e-18
1.80152e-18
1.88684e-18
2.32706e-18
2.8441e-18
4.42308e-18
6.18411e-18
1.1636e-17
1.85799e-17
3.62238e-17
7.55398e-17
9.88003e-17
3.94687e-16
1.08245e-16
1.40333e-15
3.86766e-14
3.2123e-09
4.39102e-09
7.73165e-10
2.01601e-10
3.62764e-11
2.15482e-11
1.32118e-11
2.05849e-11
1.44228e-10
2.14745e-12
3.38706e-13
9.07247e-14
3.19505e-14
1.33589e-14
6.28122e-15
3.21962e-15
1.7647e-15
1.02079e-15
6.17252e-16
3.87355e-16
2.50859e-16
1.66892e-16
1.13627e-16
7.89155e-17
5.57599e-17
3.99973e-17
2.90882e-17
2.14368e-17
1.60192e-17
1.21672e-17
9.41982e-18
7.49328e-18
6.14308e-18
5.29604e-18
4.76712e-18
4.69953e-18
4.83858e-18
5.78327e-18
6.95881e-18
1.03604e-17
1.44148e-17
2.56119e-17
4.12076e-17
7.51046e-17
1.54638e-16
2.00966e-16
6.89576e-16
3.44458e-16
1.28545e-15
2.17697e-14
3.01795e-09
3.97254e-09
8.45733e-10
2.1243e-10
3.85262e-11
1.98715e-11
8.46318e-12
4.48726e-12
4.07547e-12
6.63939e-12
8.35204e-11
4.58466e-12
5.22201e-13
1.33286e-13
4.68616e-14
1.97404e-14
9.37468e-15
4.85676e-15
2.68989e-15
1.57117e-15
9.58564e-16
6.0643e-16
3.95601e-16
2.64889e-16
1.81385e-16
1.26641e-16
8.99698e-17
6.49617e-17
4.76739e-17
3.56239e-17
2.71699e-17
2.13038e-17
1.72247e-17
1.46279e-17
1.29773e-17
1.25517e-17
1.27225e-17
1.48033e-17
1.75722e-17
2.5197e-17
3.48844e-17
5.89888e-17
9.52722e-17
1.64889e-16
3.33697e-16
4.43037e-16
1.29767e-15
9.37508e-16
1.55906e-15
1.23276e-14
2.84662e-09
3.51248e-09
9.07315e-10
2.09818e-10
4.20148e-11
2.13788e-11
8.8702e-12
3.81434e-12
2.38771e-12
1.84453e-12
1.66735e-12
1.96438e-12
4.08943e-12
8.01204e-11
2.36253e-12
3.50181e-13
1.01948e-13
3.92758e-14
1.77587e-14
8.93179e-15
4.8534e-15
2.79864e-15
1.69211e-15
1.06351e-15
6.904e-16
4.60622e-16
3.14725e-16
2.19701e-16
1.56543e-16
1.13959e-16
8.49032e-17
6.51609e-17
5.16558e-17
4.30305e-17
3.75041e-17
3.55504e-17
3.54493e-17
4.02317e-17
4.71345e-17
6.53578e-17
8.9961e-17
1.45681e-16
2.3521e-16
3.91039e-16
7.7372e-16
1.05795e-15
2.67145e-15
2.44599e-15
2.68445e-15
8.59802e-15
2.67667e-09
3.05688e-09
9.7624e-10
1.98635e-10
4.5169e-11
2.28164e-11
1.00978e-11
4.10896e-12
2.3296e-12
1.55243e-12
1.09546e-12
8.34747e-13
7.14254e-13
7.07728e-13
8.60359e-13
1.51022e-12
7.87151e-12
7.13679e-12
5.32602e-13
1.35036e-13
4.99034e-14
2.23296e-14
1.12542e-14
6.1613e-15
3.58772e-15
2.1922e-15
1.39299e-15
9.14972e-16
6.19008e-16
4.30931e-16
3.08771e-16
2.28941e-16
1.76005e-16
1.42552e-16
1.21184e-16
1.12018e-16
1.0945e-16
1.20972e-16
1.39591e-16
1.87393e-16
2.55777e-16
3.982e-16
6.39363e-16
1.02883e-15
1.97868e-15
2.78148e-15
6.16538e-15
6.63387e-15
6.44492e-15
1.16194e-14
2.49826e-09
2.62192e-09
1.05601e-09
1.84523e-10
4.84697e-11
2.36975e-11
1.14664e-11
4.60951e-12
2.53577e-12
1.63342e-12
1.08496e-12
7.44781e-13
5.43191e-13
4.23505e-13
3.53003e-13
3.16586e-13
3.10327e-13
3.42502e-13
4.52124e-13
8.30065e-13
3.83332e-12
5.27209e-12
4.40642e-13
1.13984e-13
4.3522e-14
2.01639e-14
1.05147e-14
5.94965e-15
3.58068e-15
2.26804e-15
1.50305e-15
1.04362e-15
7.5865e-16
5.85323e-16
4.77297e-16
4.24596e-16
4.02145e-16
4.2952e-16
4.84668e-16
6.27614e-16
8.44041e-16
1.26339e-15
2.00151e-15
3.12731e-15
5.80518e-15
8.33252e-15
1.65427e-14
1.99761e-14
2.02071e-14
3.46111e-14
2.31198e-09
2.2216e-09
1.14129e-09
1.70104e-10
5.23824e-11
2.41538e-11
1.28799e-11
5.17391e-12
2.80521e-12
1.80275e-12
1.18837e-12
7.94448e-13
5.53168e-13
4.02975e-13
3.05402e-13
2.40146e-13
1.96144e-13
1.66923e-13
1.48716e-13
1.39711e-13
1.39993e-13
1.52468e-13
1.86662e-13
2.74966e-13
5.78905e-13
3.50739e-12
7.12858e-13
2.31413e-13
7.22239e-14
3.06628e-14
1.54932e-14
8.83226e-15
5.52464e-15
3.78563e-15
2.80681e-15
2.30559e-15
2.04834e-15
2.0609e-15
2.22518e-15
2.7362e-15
3.56587e-15
5.08762e-15
7.83508e-15
1.18344e-14
2.0974e-14
3.03671e-14
5.49235e-14
7.19557e-14
8.06278e-14
1.58006e-13
2.12012e-09
1.86218e-09
1.22477e-09
1.56418e-10
5.69494e-11
2.43128e-11
1.4363e-11
5.80079e-12
3.10078e-12
1.99974e-12
1.32836e-12
8.86209e-13
6.10017e-13
4.35809e-13
3.20814e-13
2.42086e-13
1.87003e-13
1.4789e-13
1.19808e-13
9.95245e-14
8.49138e-14
7.45854e-14
6.76635e-14
6.36684e-14
6.24978e-14
6.45271e-14
7.09592e-14
8.48693e-14
1.14609e-13
1.88819e-13
4.60676e-13
3.6025e-12
3.86181e-15
1.41321e-13
6.40823e-14
3.68951e-14
2.54583e-14
2.11383e-14
1.97619e-14
2.144e-14
2.54491e-14
3.31109e-14
4.74827e-14
6.73521e-14
1.10838e-13
1.57378e-13
2.60151e-13
3.5639e-13
4.42314e-13
9.66343e-13
1.92433e-09
1.54408e-09
1.29986e-09
1.44233e-10
6.19253e-11
2.42421e-11
1.59174e-11
6.51438e-12
3.42604e-12
2.21488e-12
1.48761e-12
9.97322e-13
6.85827e-13
4.88038e-13
3.56674e-13
2.65952e-13
2.01816e-13
1.55731e-13
1.22143e-13
9.73588e-14
7.88863e-14
6.50172e-14
5.45586e-14
4.66628e-14
4.07213e-14
3.6299e-14
3.30921e-14
3.09134e-14
2.96694e-14
2.94074e-14
3.02867e-14
3.28116e-14
3.78226e-14
4.75704e-14
6.65426e-14
1.08848e-13
2.1809e-13
6.15692e-13
3.43226e-12
2.46909e-11
2.87571e-12
1.72759e-12
1.47722e-12
1.47558e-12
1.84894e-12
2.20586e-12
3.05032e-12
3.94583e-12
5.02295e-12
1.11994e-11
1.72682e-09
1.26714e-09
1.36088e-09
1.3444e-10
6.69065e-11
2.40104e-11
1.75069e-11
7.33538e-12
3.79005e-12
2.45062e-12
1.66503e-12
1.12403e-12
7.74224e-13
5.51077e-13
4.02536e-13
2.99487e-13
2.26219e-13
1.73267e-13
1.34451e-13
1.05635e-13
8.40159e-14
6.76573e-14
5.5194e-14
4.56407e-14
3.82744e-14
3.2561e-14
2.81046e-14
2.46236e-14
2.19136e-14
1.98608e-14
1.83816e-14
1.75043e-14
1.72392e-14
1.78224e-14
1.94346e-14
2.28602e-14
2.89584e-14
4.04651e-14
6.17146e-14
1.0379e-13
1.91773e-13
3.78468e-13
8.29943e-13
1.84513e-12
4.59824e-12
1.11506e-11
2.86873e-11
7.11226e-11
1.1491e-10
2.11384e-12
1.53038e-09
1.03107e-09
1.40295e-09
1.27982e-10
7.13713e-11
2.3717e-11
1.90707e-11
8.27999e-12
4.20076e-12
2.71039e-12
1.8627e-12
1.26773e-12
8.75259e-13
6.23643e-13
4.56051e-13
3.39494e-13
2.56311e-13
1.95977e-13
1.51605e-13
1.18561e-13
9.36959e-14
7.48307e-14
6.0422e-14
4.93503e-14
4.07873e-14
3.41166e-14
2.88766e-14
2.47352e-14
2.14471e-14
1.88634e-14
1.68679e-14
1.54414e-14
1.4544e-14
1.42901e-14
1.4729e-14
1.62415e-14
1.91764e-14
2.46804e-14
3.44106e-14
5.20129e-14
8.52146e-14
1.46079e-13
2.70678e-13
4.98337e-13
9.80633e-13
1.84522e-12
3.53977e-12
6.82874e-12
1.34903e-11
3.54986e-11
1.33793e-09
8.34657e-10
1.42205e-09
1.25754e-10
7.47212e-11
2.34905e-11
2.05324e-11
9.36159e-12
4.66599e-12
2.99717e-12
2.08253e-12
1.43064e-12
9.90629e-13
7.06649e-13
5.17471e-13
3.85687e-13
2.91356e-13
2.22748e-13
1.72182e-13
1.34459e-13
1.06032e-13
8.44415e-14
6.79429e-14
5.52647e-14
4.54608e-14
3.78234e-14
3.18191e-14
2.70634e-14
2.32711e-14
2.02665e-14
1.79141e-14
1.61777e-14
1.50066e-14
1.44871e-14
1.46562e-14
1.58154e-14
1.82728e-14
2.29113e-14
3.11263e-14
4.55872e-14
7.22199e-14
1.19346e-13
2.11391e-13
3.74215e-13
6.96557e-13
1.26361e-12
2.32081e-12
4.38918e-12
8.75195e-12
2.22941e-11
1.15245e-09
6.75615e-10
1.41529e-09
1.28546e-10
7.63953e-11
2.34732e-11
2.18092e-11
1.05895e-11
5.19452e-12
3.31402e-12
2.32601e-12
1.6149e-12
1.12233e-12
8.01541e-13
5.87784e-13
4.38705e-13
3.3169e-13
2.53654e-13
1.96035e-13
1.52998e-13
1.20542e-13
9.58881e-14
7.7058e-14
6.26049e-14
5.14459e-14
4.27666e-14
3.59505e-14
3.05519e-14
2.62412e-14
2.28144e-14
2.01188e-14
1.81087e-14
1.67327e-14
1.60719e-14
1.61788e-14
1.73438e-14
1.99237e-14
2.47731e-14
3.33962e-14
4.83873e-14
7.57002e-14
1.23502e-13
2.14466e-13
3.74733e-13
6.80741e-13
1.2236e-12
2.22589e-12
4.22247e-12
8.58701e-12
2.11676e-11
9.76829e-10
5.50608e-10
1.38128e-09
1.37032e-10
7.60113e-11
2.3796e-11
2.28239e-11
1.19657e-11
5.79656e-12
3.66446e-12
2.59441e-12
1.82248e-12
1.27244e-12
9.09913e-13
6.6817e-13
4.99444e-13
3.77983e-13
2.89164e-13
2.23463e-13
1.74334e-13
1.37267e-13
1.09117e-13
8.76381e-14
7.11819e-14
5.85061e-14
4.86717e-14
4.09646e-14
3.4867e-14
2.99977e-14
2.61205e-14
2.30652e-14
2.07783e-14
1.92139e-14
1.84573e-14
1.85911e-14
1.99231e-14
2.29007e-14
2.84469e-14
3.83234e-14
5.53969e-14
8.62796e-14
1.40232e-13
2.41119e-13
4.19533e-13
7.53187e-13
1.35208e-12
2.4637e-12
4.70275e-12
9.6881e-12
2.30767e-11
8.13775e-10
4.55488e-10
1.32038e-09
1.51729e-10
7.34365e-11
2.45572e-11
2.35169e-11
1.34811e-11
6.48383e-12
4.05267e-12
2.88883e-12
2.0551e-12
1.44307e-12
1.03346e-12
7.5989e-13
5.68883e-13
4.31003e-13
3.2987e-13
2.54906e-13
1.98788e-13
1.56429e-13
1.24272e-13
9.97678e-14
8.10334e-14
6.66427e-14
5.55112e-14
4.68106e-14
3.9938e-14
3.44527e-14
3.00805e-14
2.66326e-14
2.40484e-14
2.22916e-14
2.14577e-14
2.16698e-14
2.32719e-14
2.68297e-14
3.33968e-14
4.50849e-14
6.52514e-14
1.01516e-13
1.64981e-13
2.82196e-13
4.90549e-13
8.75809e-13
1.57411e-12
2.8838e-12
5.52991e-12
1.14443e-11
2.62949e-11
6.65592e-10
3.85602e-10
1.23484e-09
1.72869e-10
6.88235e-11
2.58051e-11
2.38587e-11
1.51104e-11
7.26934e-12
4.48346e-12
3.21037e-12
2.31417e-12
1.63634e-12
1.17396e-12
8.64262e-13
6.48039e-13
4.91559e-13
3.76405e-13
2.90851e-13
2.26727e-13
1.78305e-13
1.41563e-13
1.13603e-13
9.22765e-14
7.59447e-14
6.3353e-14
5.35398e-14
4.58027e-14
3.96313e-14
3.47077e-14
3.08225e-14
2.79086e-14
2.59431e-14
2.50366e-14
2.53624e-14
2.73155e-14
3.1603e-14
3.94613e-14
5.34228e-14
7.75126e-14
1.20615e-13
1.96238e-13
3.34669e-13
5.81753e-13
1.0361e-12
1.86499e-12
3.4356e-12
6.59794e-12
1.36097e-11
3.0141e-11
5.34e-10
3.36117e-10
1.12866e-09
2.00174e-10
6.264e-11
2.75148e-11
2.38601e-11
1.6808e-11
8.1666e-12
4.96232e-12
3.56014e-12
2.60066e-12
1.85426e-12
1.33325e-12
9.82651e-13
7.37956e-13
5.60481e-13
4.29423e-13
3.31801e-13
2.58533e-13
2.03186e-13
1.61209e-13
1.29315e-13
1.05049e-13
8.6527e-14
7.22964e-14
6.12404e-14
5.25402e-14
4.56046e-14
4.00647e-14
3.56892e-14
3.24045e-14
3.02053e-14
2.92232e-14
2.969e-14
3.20679e-14
3.72257e-14
4.66323e-14
6.33061e-14
9.21e-14
1.43392e-13
2.33574e-13
3.97584e-13
6.91029e-13
1.22931e-12
2.21453e-12
4.09517e-12
7.84847e-12
1.60335e-11
3.42222e-11
4.2001e-10
3.02257e-10
1.00741e-09
2.32573e-10
5.56477e-11
2.95579e-11
2.35779e-11
1.85074e-11
9.18806e-12
5.49534e-12
3.93944e-12
2.91493e-12
2.09855e-12
1.51316e-12
1.11643e-12
8.39665e-13
6.38588e-13
4.8957e-13
3.78252e-13
2.94582e-13
2.31352e-13
1.83426e-13
1.47072e-13
1.19487e-13
9.85056e-14
8.24455e-14
7.00092e-14
6.02419e-14
5.24586e-14
4.62321e-14
4.13065e-14
3.76029e-14
3.51385e-14
3.40723e-14
3.47034e-14
3.75779e-14
4.37471e-14
5.49629e-14
7.47951e-14
1.09077e-13
1.69912e-13
2.76999e-13
4.70807e-13
8.178e-13
1.45358e-12
2.61769e-12
4.84709e-12
9.23926e-12
1.86001e-11
3.82799e-11
3.23843e-10
2.79482e-10
8.78439e-10
2.67855e-10
4.88379e-11
3.16923e-11
2.31093e-11
2.01247e-11
1.03428e-11
6.0892e-12
4.34986e-12
3.25676e-12
2.37049e-12
1.71543e-12
1.26695e-12
9.54151e-13
7.26654e-13
5.57461e-13
4.30675e-13
3.35221e-13
2.6306e-13
2.08403e-13
1.67019e-13
1.3571e-13
1.11984e-13
9.3896e-14
7.99382e-14
6.89975e-14
6.02806e-14
5.32928e-14
4.77518e-14
4.35751e-14
4.08071e-14
3.96426e-14
4.04571e-14
4.38987e-14
5.12223e-14
6.4513e-14
8.79615e-14
1.28527e-13
2.00278e-13
3.26608e-13
5.54368e-13
9.61823e-13
1.70761e-12
3.07025e-12
5.67723e-12
1.07303e-11
2.12114e-11
4.21297e-11
2.44839e-10
2.63829e-10
7.50452e-10
3.02545e-10
4.32587e-11
3.3601e-11
2.25784e-11
2.15662e-11
1.1633e-11
6.75124e-12
4.79335e-12
3.6253e-12
2.67071e-12
1.94156e-12
1.43544e-12
1.0823e-12
8.25361e-13
6.33635e-13
4.89478e-13
3.80747e-13
2.98519e-13
2.36291e-13
1.89269e-13
1.53807e-13
1.27042e-13
1.06725e-13
9.11054e-14
7.88864e-14
6.91498e-14
6.13238e-14
5.50971e-14
5.03862e-14
4.72685e-14
4.59839e-14
4.69942e-14
5.10679e-14
5.9685e-14
7.53131e-14
1.02834e-13
1.50468e-13
2.34491e-13
3.82333e-13
6.48011e-13
1.12237e-12
1.98911e-12
3.5661e-12
6.5679e-12
1.22774e-11
2.37745e-11
4.56185e-11
1.8161e-10
2.52041e-10
6.30727e-10
3.32529e-10
3.97242e-11
3.49417e-11
2.21157e-11
2.27407e-11
1.30491e-11
7.48913e-12
5.27223e-12
4.01917e-12
2.99896e-12
2.19267e-12
1.62297e-12
1.22483e-12
9.35238e-13
7.18512e-13
5.54973e-13
4.31372e-13
3.37868e-13
2.67176e-13
2.13879e-13
1.73823e-13
1.43723e-13
1.2098e-13
1.03565e-13
8.99685e-14
7.91291e-14
7.03874e-14
6.34e-14
5.80863e-14
5.45631e-14
5.31261e-14
5.43331e-14
5.90913e-14
6.91268e-14
8.7334e-14
1.19353e-13
1.74787e-13
2.72335e-13
4.43752e-13
7.50862e-13
1.29761e-12
2.29381e-12
4.09544e-12
7.4953e-12
1.38292e-11
2.61931e-11
4.86266e-11
1.32339e-10
2.41311e-10
5.2303e-10
3.54172e-10
3.86735e-11
3.5403e-11
2.18311e-11
2.35778e-11
1.45645e-11
8.31022e-12
5.78901e-12
4.4366e-12
3.35389e-12
2.46925e-12
1.83032e-12
1.38224e-12
1.0566e-12
8.12326e-13
6.27325e-13
4.8719e-13
3.8114e-13
3.01059e-13
2.40835e-13
1.95742e-13
1.62019e-13
1.36666e-13
1.17334e-13
1.02273e-13
9.02549e-14
8.05214e-14
7.26946e-14
6.67008e-14
6.2704e-14
6.10673e-14
6.24541e-14
6.7927e-14
7.94759e-14
1.00459e-13
1.37332e-13
2.01172e-13
3.13276e-13
5.09927e-13
8.61159e-13
1.48421e-12
2.61473e-12
4.64373e-12
8.42857e-12
1.53258e-11
2.83715e-11
5.10452e-11
9.49349e-11
2.2941e-10
4.28878e-10
3.65109e-10
4.02739e-11
3.48169e-11
2.17874e-11
2.4045e-11
1.61336e-11
9.22054e-12
6.34626e-12
4.87567e-12
3.73304e-12
2.77099e-12
2.05785e-12
1.55473e-12
1.18948e-12
9.15075e-13
7.06507e-13
5.48132e-13
4.28236e-13
3.37825e-13
2.70024e-13
2.19467e-13
1.81852e-13
1.53729e-13
1.32383e-13
1.15788e-13
1.02526e-13
9.17286e-14
8.298e-14
7.62191e-14
7.16653e-14
6.9761e-14
7.12847e-14
7.74673e-14
9.05754e-14
1.14454e-13
1.56412e-13
2.29055e-13
3.56375e-13
5.79256e-13
9.7602e-13
1.67688e-12
2.94165e-12
5.19127e-12
9.32967e-12
1.67009e-11
3.02139e-11
5.27769e-11
6.72024e-11
2.15051e-10
3.48838e-10
3.64461e-10
4.45282e-11
3.32549e-11
2.19841e-11
2.41555e-11
1.76927e-11
1.02233e-11
6.94654e-12
5.33461e-12
4.13285e-12
3.09658e-12
2.30541e-12
1.74213e-12
1.3336e-12
1.02647e-12
7.9225e-13
6.13936e-13
4.78892e-13
3.77219e-13
3.01215e-13
2.448e-13
2.03063e-13
1.72043e-13
1.48617e-13
1.30443e-13
1.1589e-13
1.03964e-13
9.42086e-14
8.65818e-14
8.13684e-14
7.91023e-14
8.06843e-14
8.75215e-14
1.02161e-13
1.2894e-13
1.76027e-13
2.57556e-13
4.00204e-13
6.49357e-13
1.09129e-12
1.86828e-12
3.26103e-12
5.71335e-12
1.01547e-11
1.78846e-11
3.16295e-11
5.37444e-11
4.70709e-11
1.97851e-10
2.82636e-10
3.52735e-10
5.12364e-11
3.10057e-11
2.2358e-11
2.39653e-11
1.91643e-11
1.13161e-11
7.59213e-12
5.81195e-12
4.54891e-12
3.44353e-12
2.57219e-12
1.94387e-12
1.48828e-12
1.14587e-12
8.84004e-13
6.84105e-13
5.32648e-13
4.18826e-13
3.34043e-13
2.71427e-13
2.2539e-13
1.91398e-13
1.65868e-13
1.46104e-13
1.30233e-13
1.17123e-13
1.06273e-13
9.76682e-14
9.16695e-14
8.89134e-14
9.04287e-14
9.77989e-14
1.13842e-13
1.4337e-13
1.95375e-13
2.85447e-13
4.42795e-13
7.16998e-13
1.20146e-12
2.04889e-12
3.55612e-12
6.18105e-12
1.08558e-11
1.88073e-11
3.25374e-11
5.38876e-11
3.27219e-11
1.78144e-10
2.29205e-10
3.31591e-10
5.98891e-11
2.84865e-11
2.27932e-11
2.35622e-11
2.04666e-11
1.24882e-11
8.28473e-12
6.30656e-12
4.97622e-12
3.8081e-12
2.85656e-12
2.15888e-12
1.65247e-12
1.27226e-12
9.80889e-13
7.57879e-13
5.88831e-13
4.62046e-13
3.67986e-13
2.98905e-13
2.48461e-13
2.11485e-13
1.83878e-13
1.62553e-13
1.45364e-13
1.31027e-13
1.18993e-13
1.09283e-13
1.02346e-13
9.89317e-14
1.00198e-13
1.07897e-13
1.2509e-13
1.57016e-13
2.13401e-13
3.11135e-13
4.81637e-13
7.78107e-13
1.29974e-12
2.2073e-12
3.80762e-12
6.56265e-12
1.13842e-11
1.94038e-11
3.28705e-11
5.317e-11
2.2646e-11
1.56805e-10
1.86894e-10
3.03488e-10
6.96307e-11
2.61477e-11
2.31445e-11
2.30474e-11
2.15264e-11
1.37168e-11
9.0249e-12
6.81751e-12
5.40962e-12
4.18529e-12
3.15592e-12
2.38554e-12
1.82465e-12
1.40424e-12
1.08168e-12
8.34212e-13
6.46531e-13
5.06088e-13
4.02362e-13
3.26653e-13
2.71784e-13
2.31886e-13
2.02293e-13
1.79482e-13
1.61009e-13
1.45415e-13
1.32106e-13
1.21148e-13
1.13088e-13
1.08801e-13
1.0957e-13
1.17295e-13
1.35236e-13
1.68974e-13
2.28817e-13
3.32696e-13
5.13735e-13
8.27903e-13
1.37832e-12
2.33069e-12
3.99471e-12
6.82571e-12
1.16936e-11
1.96183e-11
3.25811e-11
5.15803e-11
1.56434e-11
1.35066e-10
1.53766e-10
2.71215e-10
7.934e-11
2.43915e-11
2.32785e-11
2.25141e-11
2.22927e-11
1.49662e-11
9.81132e-12
7.34397e-12
5.84422e-12
4.56908e-12
3.46664e-12
2.62163e-12
2.0029e-12
1.53999e-12
1.1848e-12
9.11757e-13
7.04599e-13
5.49963e-13
4.36322e-13
3.53948e-13
2.94744e-13
2.52075e-13
2.20656e-13
1.96489e-13
1.76797e-13
1.59935e-13
1.45259e-13
1.3289e-13
1.23492e-13
1.18069e-13
1.18022e-13
1.25367e-13
1.4349e-13
1.78195e-13
2.4015e-13
3.47965e-13
5.35768e-13
8.61156e-13
1.42883e-12
2.40574e-12
4.09662e-12
6.93969e-12
1.17439e-11
1.94084e-11
3.16438e-11
4.91342e-11
1.08063e-11
1.14072e-10
1.27891e-10
2.37538e-10
8.78154e-11
2.35046e-11
2.31195e-11
2.20308e-11
2.27464e-11
1.61888e-11
1.06399e-11
7.88508e-12
6.27579e-12
4.95279e-12
3.78407e-12
2.86426e-12
2.18487e-12
1.67735e-12
1.28831e-12
9.88886e-13
7.61659e-13
5.92498e-13
4.68868e-13
3.79937e-13
3.16611e-13
2.71419e-13
2.38412e-13
2.13073e-13
1.92265e-13
1.74142e-13
1.58006e-13
1.44048e-13
1.33062e-13
1.26193e-13
1.24943e-13
1.31397e-13
1.48976e-13
1.83546e-13
2.45847e-13
3.54694e-13
5.4435e-13
8.72626e-13
1.44311e-12
2.41982e-12
4.09464e-12
6.87893e-12
1.15053e-11
1.875e-11
3.00591e-11
4.58764e-11
7.47991e-12
9.45401e-11
1.07524e-10
2.04825e-10
9.40454e-11
2.36085e-11
2.26695e-11
2.16289e-11
2.29028e-11
1.7329e-11
1.15022e-11
8.43952e-12
6.70084e-12
5.32954e-12
4.10258e-12
3.10988e-12
2.36781e-12
1.8138e-12
1.38998e-12
1.0637e-12
8.16122e-13
6.32357e-13
4.98864e-13
4.03653e-13
3.3655e-13
2.8919e-13
2.54909e-13
2.28642e-13
2.0686e-13
1.87497e-13
1.6981e-13
1.54072e-13
1.41225e-13
1.32561e-13
1.29664e-13
1.34632e-13
1.50806e-13
1.83915e-13
2.44428e-13
3.50796e-13
5.36408e-13
8.57667e-13
1.41412e-12
2.36253e-12
3.9744e-12
6.62591e-12
1.09624e-11
1.76402e-11
2.78561e-11
4.18815e-11
5.19578e-12
7.69324e-11
9.11933e-11
1.74616e-10
9.7422e-11
2.46619e-11
2.20043e-11
2.13009e-11
2.28056e-11
1.83308e-11
1.23833e-11
9.00506e-12
7.11661e-12
5.69271e-12
4.41572e-12
3.35422e-12
2.54859e-12
1.94658e-12
1.48732e-12
1.13408e-12
8.66226e-13
6.68071e-13
5.25077e-13
4.24045e-13
3.53654e-13
3.04584e-13
2.69423e-13
2.42524e-13
2.19944e-13
1.99387e-13
1.80061e-13
1.62345e-13
1.47349e-13
1.36521e-13
1.31505e-13
1.34346e-13
1.4817e-13
1.78352e-13
2.34698e-13
3.34667e-13
5.09676e-13
8.12987e-13
1.33716e-12
2.22744e-12
3.72839e-12
6.17453e-12
1.01174e-11
1.61014e-11
2.5094e-11
3.72551e-11
3.62311e-12
6.15894e-11
7.77638e-11
1.4767e-10
9.77957e-11
2.64955e-11
2.12545e-11
2.10134e-11
2.25165e-11
1.91463e-11
1.32617e-11
9.57819e-12
7.5208e-12
6.03638e-12
4.71658e-12
3.59234e-12
2.72369e-12
2.07269e-12
1.57766e-12
1.19772e-12
9.10077e-13
6.98085e-13
5.46212e-13
4.40014e-13
3.66965e-13
3.16749e-13
2.81173e-13
2.53989e-13
2.30821e-13
2.09132e-13
1.8809e-13
1.68204e-13
1.50781e-13
1.37433e-13
1.29843e-13
1.29932e-13
1.40475e-13
1.66253e-13
2.16016e-13
3.05575e-13
4.63283e-13
7.37523e-13
1.21112e-12
2.01398e-12
3.3585e-12
5.53311e-12
8.99361e-12
1.41834e-11
2.18643e-11
3.21355e-11
2.53572e-12
4.864e-11
6.64282e-11
1.24255e-10
9.54246e-11
2.8841e-11
2.05669e-11
2.07262e-11
2.21014e-11
1.97433e-11
1.41091e-11
1.01535e-11
7.91137e-12
6.35564e-12
4.99815e-12
3.81873e-12
2.88923e-12
2.189e-12
1.65822e-12
1.25225e-12
9.45721e-13
7.20817e-13
5.60969e-13
4.50465e-13
3.75529e-13
3.24823e-13
2.89359e-13
2.62279e-13
2.38762e-13
2.16024e-13
1.9321e-13
1.70988e-13
1.50898e-13
1.34735e-13
1.242e-13
1.21022e-13
1.27492e-13
1.47574e-13
1.88592e-13
2.64092e-13
3.98371e-13
6.33362e-13
1.03984e-12
1.72924e-12
2.87832e-12
4.72715e-12
7.6381e-12
1.19656e-11
1.82921e-11
2.66947e-11
1.78041e-12
3.8001e-11
5.66562e-11
1.04312e-10
9.08482e-11
3.13684e-11
2.00666e-11
2.04089e-11
2.16183e-11
2.01098e-11
1.48928e-11
1.07229e-11
8.28609e-12
6.6467e-12
5.25379e-12
4.02751e-12
3.04107e-12
2.29228e-12
1.72621e-12
1.29529e-12
9.71223e-13
7.34732e-13
5.68116e-13
4.54368e-13
3.78448e-13
3.27985e-13
2.93206e-13
2.66648e-13
2.43041e-13
2.19363e-13
1.94755e-13
1.70087e-13
1.47175e-13
1.28027e-13
1.14349e-13
1.07619e-13
1.09534e-13
1.23054e-13
1.53781e-13
2.12497e-13
3.18677e-13
5.06552e-13
8.33234e-13
1.38949e-12
2.31499e-12
3.80122e-12
6.1232e-12
9.55855e-12
1.45366e-11
2.11398e-11
1.25333e-12
2.94485e-11
4.8123e-11
8.75587e-11
8.47273e-11
3.3741e-11
1.98325e-11
2.00512e-11
2.11095e-11
2.02547e-11
1.5579e-11
1.12755e-11
8.64229e-12
6.90681e-12
5.47767e-12
4.21268e-12
3.17484e-12
2.3793e-12
1.77896e-12
1.32457e-12
9.84766e-13
7.38427e-13
5.6656e-13
4.50833e-13
3.74944e-13
3.25515e-13
2.92019e-13
2.66411e-13
2.42992e-13
2.18511e-13
1.92142e-13
1.65009e-13
1.39267e-13
1.17168e-13
1.00429e-13
9.02338e-14
8.76117e-14
9.43979e-14
1.14311e-13
1.55067e-13
2.30904e-13
3.67612e-13
6.07932e-13
1.02099e-12
1.71006e-12
2.81977e-12
4.5469e-12
7.10321e-12
1.07916e-11
1.57135e-11
8.83997e-13
2.26897e-11
4.06407e-11
7.35982e-11
7.77115e-11
3.5672e-11
1.98875e-11
1.96651e-11
2.06e-11
2.02034e-11
1.61378e-11
1.17972e-11
8.97651e-12
7.13401e-12
5.66507e-12
4.3685e-12
3.28609e-12
2.4469e-12
1.81399e-12
1.33807e-12
9.84768e-13
7.30732e-13
5.55444e-13
4.39191e-13
3.64438e-13
3.1686e-13
2.85243e-13
2.61012e-13
2.38065e-13
2.12957e-13
1.84941e-13
1.55467e-13
1.27098e-13
1.02385e-13
8.30628e-14
7.0002e-14
6.35381e-14
6.43604e-14
7.4318e-14
9.80582e-14
1.44635e-13
2.31359e-13
3.86989e-13
6.59465e-13
1.11851e-12
1.86548e-12
3.03044e-12
4.76849e-12
7.28178e-12
1.06913e-11
6.24361e-13
1.7417e-11
3.40983e-11
6.19974e-11
7.03574e-11
3.69656e-11
2.0202e-11
1.92805e-11
2.01007e-11
1.99919e-11
1.65473e-11
1.22711e-11
9.28418e-12
7.32683e-12
5.81257e-12
4.48981e-12
3.3705e-12
2.49208e-12
1.82912e-12
1.33411e-12
9.69995e-13
7.10816e-13
5.34235e-13
4.19077e-13
3.46626e-13
3.01713e-13
2.7254e-13
2.50084e-13
2.27897e-13
2.02388e-13
1.72954e-13
1.4146e-13
1.10963e-13
8.43662e-14
6.34394e-14
4.8732e-14
3.99081e-14
3.66008e-14
3.90241e-14
4.9113e-14
7.13776e-14
1.15454e-13
1.97748e-13
3.47055e-13
6.04519e-13
1.03349e-12
1.71067e-12
2.74194e-12
4.2524e-12
6.37125e-12
4.4142e-13
1.33428e-11
2.84199e-11
5.23477e-11
6.30847e-11
3.7534e-11
2.07044e-11
1.8933e-11
1.96146e-11
1.96592e-11
1.67966e-11
1.26793e-11
9.55949e-12
7.48395e-12
5.91802e-12
4.5724e-12
3.42409e-12
2.5121e-12
1.82259e-12
1.3115e-12
9.3969e-13
6.783e-13
5.02826e-13
3.90524e-13
3.21566e-13
2.80086e-13
2.53858e-13
2.33528e-13
2.12388e-13
1.86769e-13
1.56301e-13
1.23365e-13
9.16077e-14
6.43285e-14
4.33316e-14
2.88208e-14
1.98321e-14
1.51264e-14
1.37324e-14
1.56285e-14
2.2036e-14
3.66673e-14
6.64527e-14
1.24787e-13
2.31024e-13
4.17658e-13
7.22414e-13
1.20822e-12
1.9443e-12
3.04654e-12
3.12345e-13
1.02151e-11
2.35429e-11
4.42937e-11
5.6169e-11
3.7389e-11
2.12969e-11
1.86505e-11
1.91415e-11
1.92415e-11
1.68865e-11
1.30041e-11
9.79528e-12
7.60392e-12
5.9804e-12
4.61327e-12
3.44348e-12
2.50465e-12
1.7931e-12
1.26963e-12
8.93689e-13
6.33365e-13
4.61632e-13
3.54043e-13
2.8975e-13
2.5239e-13
2.2951e-13
2.1159e-13
1.91775e-13
1.66421e-13
1.35498e-13
1.02012e-13
7.02849e-14
4.40196e-14
2.49823e-14
1.29275e-14
6.24639e-15
3.02478e-15
1.68299e-15
1.32677e-15
1.66267e-15
3.1199e-15
7.05879e-15
1.68423e-14
3.80838e-14
8.15745e-14
1.60485e-13
3.02001e-13
5.37125e-13
9.43056e-13
2.21253e-13
7.82178e-12
1.94069e-11
3.75432e-11
4.97677e-11
3.66135e-11
2.18754e-11
1.84458e-11
1.86825e-11
1.87688e-11
1.68281e-11
1.32312e-11
9.98342e-12
7.68497e-12
5.99957e-12
4.61076e-12
3.42621e-12
2.46802e-12
1.73999e-12
1.20856e-12
8.32531e-13
5.76861e-13
4.11677e-13
3.10697e-13
2.52176e-13
2.19496e-13
2.00238e-13
1.84921e-13
1.66705e-13
1.42093e-13
1.11518e-13
7.87251e-14
4.87454e-14
2.55947e-14
1.07641e-14
3.24061e-15
5.19069e-16
1.14735e-17
2.0035e-17
2.07427e-16
4.54924e-16
4.76895e-16
2.8042e-16
5.16209e-17
5.56742e-18
2.35224e-16
1.95192e-15
8.75597e-15
2.75846e-14
8.21116e-14
1.56993e-13
5.99232e-12
1.59406e-11
3.1864e-11
4.39543e-11
3.53304e-11
2.23484e-11
1.83163e-11
1.82417e-11
1.82641e-11
1.664e-11
1.33508e-11
1.01155e-11
7.7251e-12
5.97608e-12