/*--------------------------------*- C++ -*----------------------------------*\
  =========                 |
  \\      /  F ield         | OpenFOAM: The Open Source CFD Toolbox
   \\    /   O peration     | Website:  https://openfoam.org
    \\  /    A nd           | Version:  7
     \\/     M anipulation  |
\*---------------------------------------------------------------------------*/
FoamFile
{
    version     2.0;
    format      ascii;
    class       surfaceScalarField;
    location    "0.34";
    object      phi;
}
// * * * * * * * * * * * * * * * * * * * * * * * * * * * * * * * * * * * * * //

dimensions      [0 3 -1 0 0 0 0];

internalField   nonuniform List<scalar> 
139350
(
6.45122e-08
9.21193e-08
3.19646e-08
3.25476e-08
2.30588e-08
8.90581e-09
1.9573e-08
3.48577e-09
1.76196e-08
1.9534e-09
1.61874e-08
1.43219e-09
1.5052e-08
1.13541e-09
1.41367e-08
9.15294e-10
1.33829e-08
7.5384e-10
1.27472e-08
6.35698e-10
1.22009e-08
5.46326e-10
1.17246e-08
4.76261e-10
1.13047e-08
4.19904e-10
1.0931e-08
3.73736e-10
1.05956e-08
3.35358e-10
1.02926e-08
3.03053e-10
1.0017e-08
2.75561e-10
9.76506e-09
2.5194e-10
9.53359e-09
2.31469e-10
9.31999e-09
2.13594e-10
9.12212e-09
1.97876e-10
8.93815e-09
1.83969e-10
8.76656e-09
1.71593e-10
8.60603e-09
1.60522e-10
8.45547e-09
1.50566e-10
8.31389e-09
1.41573e-10
8.18048e-09
1.33411e-10
8.05451e-09
1.25969e-10
7.93536e-09
1.19151e-10
7.82249e-09
1.12876e-10
7.71542e-09
1.07062e-10
7.61377e-09
1.01656e-10
7.5172e-09
9.65698e-11
7.42541e-09
9.17844e-11
7.33823e-09
8.71798e-11
7.25545e-09
8.27894e-11
7.17702e-09
7.84262e-11
7.10282e-09
7.41966e-11
7.03299e-09
6.98354e-11
6.96752e-09
6.54627e-11
6.9066e-09
6.09242e-11
6.85074e-09
5.5861e-11
6.79941e-09
5.1326e-11
6.7552e-09
4.42094e-11
6.71377e-09
4.14295e-11
6.6859e-09
2.78764e-11
6.64919e-09
3.67058e-11
6.66143e-09
-1.22375e-11
6.4667e-09
1.94726e-10
-3.0319e-09
9.49861e-09
1.25943e-07
1.2762e-07
9.12897e-08
6.72011e-08
7.1936e-08
2.82595e-08
6.12184e-08
1.42033e-08
5.47786e-08
8.39322e-09
5.02787e-08
5.93206e-09
4.67878e-08
4.62631e-09
4.39667e-08
3.73638e-09
4.16348e-08
3.08578e-09
3.96666e-08
2.60388e-09
3.79751e-08
2.23786e-09
3.65003e-08
1.95108e-09
3.51996e-08
1.72059e-09
3.40415e-08
1.5318e-09
3.3002e-08
1.37484e-09
3.20624e-08
1.2427e-09
3.12077e-08
1.13022e-09
3.04261e-08
1.03355e-09
2.97078e-08
9.49755e-10
2.90449e-08
8.76572e-10
2.84305e-08
8.12215e-10
2.78592e-08
7.55269e-10
2.73262e-08
7.04595e-10
2.68275e-08
6.59268e-10
2.63595e-08
6.18526e-10
2.59194e-08
5.8174e-10
2.55044e-08
5.48378e-10
2.51124e-08
5.17993e-10
2.47413e-08
4.90194e-10
2.43895e-08
4.64654e-10
2.40555e-08
4.41056e-10
2.3738e-08
4.19164e-10
2.34359e-08
3.98674e-10
2.31483e-08
3.79452e-10
2.28743e-08
3.61113e-10
2.26134e-08
3.43694e-10
2.23653e-08
3.26568e-10
2.21294e-08
3.10116e-10
2.1906e-08
2.93179e-10
2.16947e-08
2.76783e-10
2.14968e-08
2.58874e-10
2.13113e-08
2.41338e-10
2.11412e-08
2.21382e-10
2.09849e-08
2.00523e-10
2.08472e-08
1.7917e-10
2.07269e-08
1.48182e-10
2.06211e-08
1.42487e-10
2.05799e-08
2.8988e-11
2.03665e-08
4.08111e-10
-3.47787e-09
2.08124e-08
1.58752e-07
1.35271e-07
1.36527e-07
8.94264e-08
1.17493e-07
4.72936e-08
1.03314e-07
2.83824e-08
9.33166e-08
1.83906e-08
8.60113e-08
1.32373e-08
8.0297e-08
1.03406e-08
7.56373e-08
8.39603e-09
7.175e-08
6.97315e-09
6.84473e-08
5.90655e-09
6.55961e-08
5.08909e-09
6.31017e-08
4.44549e-09
6.08956e-08
3.92661e-09
5.89269e-08
3.5005e-09
5.71564e-08
3.14543e-09
5.55532e-08
2.84589e-09
5.40929e-08
2.59048e-09
5.27558e-08
2.37065e-09
5.15257e-08
2.17985e-09
5.03893e-08
2.01302e-09
4.93353e-08
1.86617e-09
4.83545e-08
1.73611e-09
4.74387e-08
1.6203e-09
4.65814e-08
1.51666e-09
4.57764e-08
1.42346e-09
4.50189e-08
1.33929e-09
4.43043e-08
1.26296e-09
4.36288e-08
1.19344e-09
4.29892e-08
1.12988e-09
4.23823e-08
1.07152e-09
4.18057e-08
1.01767e-09
4.1257e-08
9.67786e-10
4.07345e-08
9.21228e-10
4.02363e-08
8.77641e-10
3.97611e-08
8.3627e-10
3.93077e-08
7.971e-10
3.88754e-08
7.58871e-10
3.84632e-08
7.22369e-10
3.80714e-08
6.84991e-10
3.76987e-08
6.49452e-10
3.73476e-08
6.10005e-10
3.70152e-08
5.7373e-10
3.67082e-08
5.28325e-10
3.64194e-08
4.89411e-10
3.61644e-08
4.34165e-10
3.59261e-08
3.86457e-10
3.57292e-08
3.39382e-10
3.55837e-08
1.74458e-10
3.5412e-08
5.79831e-10
-2.96111e-09
3.48952e-08
1.75611e-07
1.31175e-07
1.65624e-07
9.94139e-08
1.52735e-07
6.01821e-08
1.40125e-07
4.09931e-08
1.29441e-07
2.90741e-08
1.20797e-07
2.18817e-08
1.13677e-07
1.74603e-08
1.07687e-07
1.43865e-08
1.02575e-07
1.20847e-08
9.816e-08
1.03217e-08
9.43015e-08
8.94759e-09
9.08942e-08
7.85278e-09
8.78584e-08
6.96239e-09
8.51327e-08
6.22614e-09
8.26691e-08
5.60909e-09
8.04289e-08
5.08604e-09
7.83812e-08
4.63822e-09
7.65004e-08
4.25142e-09
7.47656e-08
3.9147e-09
7.31591e-08
3.6195e-09
7.16662e-08
3.35905e-09
7.02744e-08
3.12793e-09
6.89729e-08
2.92176e-09
6.77526e-08
2.73696e-09
6.66055e-08
2.57058e-09
6.55247e-08
2.42015e-09
6.4504e-08
2.2836e-09
6.35383e-08
2.15918e-09
6.26228e-08
2.04536e-09
6.17535e-08
1.94085e-09
6.09267e-08
1.84445e-09
6.01393e-08
1.75519e-09
5.93885e-08
1.67201e-09
5.86719e-08
1.59423e-09
5.79875e-08
1.52066e-09
5.73335e-08
1.45116e-09
5.67086e-08
1.38371e-09
5.61114e-08
1.31955e-09
5.55421e-08
1.25431e-09
5.49987e-08
1.19282e-09
5.44841e-08
1.12462e-09
5.39943e-08
1.06355e-09
5.35378e-08
9.84853e-10
5.31044e-08
9.22785e-10
5.27146e-08
8.23931e-10
5.23459e-08
7.55195e-10
5.20317e-08
6.53566e-10
5.17651e-08
4.41038e-10
5.15479e-08
7.97047e-10
-2.22241e-09
5.08092e-08
1.8451e-07
1.23451e-07
1.82341e-07
1.01583e-07
1.76121e-07
6.64018e-08
1.67763e-07
4.93513e-08
1.59141e-07
3.76959e-08
1.51231e-07
2.97918e-08
1.44151e-07
2.45399e-08
1.37842e-07
2.0696e-08
1.32229e-07
1.76971e-08
1.2723e-07
1.53212e-08
1.22758e-07
1.34199e-08
1.18736e-07
1.18742e-08
1.15101e-07
1.05974e-08
1.11799e-07
9.52823e-09
1.08785e-07
8.62288e-09
1.06023e-07
7.84876e-09
1.0348e-07
7.18112e-09
1.0113e-07
6.60084e-09
9.8952e-08
6.09293e-09
9.69259e-08
5.64554e-09
9.50358e-08
5.24918e-09
9.32676e-08
4.89618e-09
9.16091e-08
4.58026e-09
9.00497e-08
4.29629e-09
8.85804e-08
4.03996e-09
8.71928e-08
3.80771e-09
8.58799e-08
3.59648e-09
8.46354e-08
3.40369e-09
8.34537e-08
3.22711e-09
8.23297e-08
3.06477e-09
8.12592e-08
2.91495e-09
8.02383e-08
2.77615e-09
7.92634e-08
2.64684e-09
7.83317e-08
2.52599e-09
7.74405e-08
2.41186e-09
7.65875e-08
2.30417e-09
7.57711e-08
2.2001e-09
7.49893e-08
2.10129e-09
7.42421e-08
2.00152e-09
7.35272e-08
1.90774e-09
7.28472e-08
1.80466e-09
7.21979e-08
1.71287e-09
7.15875e-08
1.59519e-09
7.10065e-08
1.50379e-09
7.04737e-08
1.35679e-09
6.9971e-08
1.25783e-09
6.95237e-08
1.10087e-09
6.91345e-08
8.30223e-10
6.88045e-08
1.12706e-09
-1.4145e-09
6.79966e-08
1.90342e-07
1.15325e-07
1.91859e-07
1.00066e-07
1.90263e-07
6.79981e-08
1.86158e-07
5.34566e-08
1.80718e-07
4.31361e-08
1.74963e-07
3.55468e-08
1.6926e-07
3.02423e-08
1.63767e-07
2.6189e-08
1.58581e-07
2.28836e-08
1.53743e-07
2.01594e-08
1.49255e-07
1.7907e-08
1.45103e-07
1.60267e-08
1.41261e-07
1.44391e-08
1.37704e-07
1.30854e-08
1.34406e-07
1.19215e-08
1.31341e-07
1.09133e-08
1.28488e-07
1.00342e-08
1.25826e-07
9.26278e-09
1.23337e-07
8.58196e-09
1.21005e-07
7.9779e-09
1.18814e-07
7.4393e-09
1.16754e-07
6.95689e-09
1.14811e-07
6.52299e-09
1.12976e-07
6.1312e-09
1.1124e-07
5.77614e-09
1.09594e-07
5.45326e-09
1.08032e-07
5.15867e-09
1.06547e-07
4.88903e-09
1.05132e-07
4.64144e-09
1.03784e-07
4.41334e-09
1.02496e-07
4.20244e-09
1.01266e-07
4.00677e-09
1.00088e-07
3.82433e-09
9.89606e-08
3.65367e-09
9.78799e-08
3.49258e-09
9.68435e-08
3.34056e-09
9.58496e-08
3.19403e-09
9.4896e-08
3.05492e-09
9.39821e-08
2.91534e-09
9.31059e-08
2.78397e-09
9.22692e-08
2.64134e-09
9.14686e-08
2.51348e-09
9.07106e-08
2.35323e-09
8.99885e-08
2.22587e-09
8.93152e-08
2.03008e-09
8.86836e-08
1.8894e-09
8.81019e-08
1.68257e-09
8.75904e-08
1.3417e-09
8.71388e-08
1.57872e-09
-5.27996e-10
8.62523e-08
1.95504e-07
1.07635e-07
1.98247e-07
9.73233e-08
1.98986e-07
6.72592e-08
1.97792e-07
5.46507e-08
1.95157e-07
4.57709e-08
1.91816e-07
3.88884e-08
1.88079e-07
3.39783e-08
1.84121e-07
3.0147e-08
1.80091e-07
2.69136e-08
1.76099e-07
2.41514e-08
1.72213e-07
2.17933e-08
1.68471e-07
1.97685e-08
1.64894e-07
1.80162e-08
1.6149e-07
1.64894e-08
1.5826e-07
1.51518e-08
1.55199e-07
1.3974e-08
1.52301e-07
1.29321e-08
1.49558e-07
1.20062e-08
1.4696e-07
1.118e-08
1.44498e-07
1.04397e-08
1.42164e-07
9.77378e-09
1.39948e-07
9.17267e-09
1.37843e-07
8.62819e-09
1.35841e-07
8.13344e-09
1.33934e-07
7.68252e-09
1.32117e-07
7.27034e-09
1.30383e-07
6.89255e-09
1.28727e-07
6.54529e-09
1.27143e-07
6.22523e-09
1.25627e-07
5.92937e-09
1.24175e-07
5.65501e-09
1.22782e-07
5.39979e-09
1.21445e-07
5.16132e-09
1.2016e-07
4.93782e-09
1.18926e-07
4.72666e-09
1.1774e-07
4.52713e-09
1.16599e-07
4.33497e-09
1.15501e-07
4.15231e-09
1.14447e-07
3.96989e-09
1.13433e-07
3.79754e-09
1.12462e-07
3.61275e-09
1.1153e-07
3.44491e-09
1.10643e-07
3.24066e-09
1.09797e-07
3.07165e-09
1.08999e-07
2.82875e-09
1.08252e-07
2.63645e-09
1.07549e-07
2.38503e-09
1.0692e-07
1.97062e-09
1.06362e-07
2.13706e-09
4.26282e-10
1.05408e-07
2.00819e-07
1.00401e-07
2.03772e-07
9.43708e-08
2.05346e-07
6.56855e-08
2.05647e-07
5.43493e-08
2.04816e-07
4.66014e-08
2.03336e-07
4.03687e-08
2.01386e-07
3.59287e-08
1.9905e-07
3.24827e-08
1.96435e-07
2.95282e-08
1.93644e-07
2.69426e-08
1.90757e-07
2.46808e-08
1.87833e-07
2.26923e-08
1.84917e-07
2.0932e-08
1.82041e-07
1.93653e-08
1.79227e-07
1.79656e-08
1.7649e-07
1.67112e-08
1.73839e-07
1.55836e-08
1.71278e-07
1.4567e-08
1.6881e-07
1.36478e-08
1.66435e-07
1.28145e-08
1.64152e-07
1.20569e-08
1.61959e-07
1.13663e-08
1.59851e-07
1.07353e-08
1.57828e-07
1.01573e-08
1.55884e-07
9.62659e-09
1.54016e-07
9.13829e-09
1.5222e-07
8.68799e-09
1.50494e-07
8.27179e-09
1.48833e-07
7.88624e-09
1.47234e-07
7.5282e-09
1.45694e-07
7.19481e-09
1.4421e-07
6.88348e-09
1.4278e-07
6.59163e-09
1.41401e-07
6.31725e-09
1.4007e-07
6.05743e-09
1.38786e-07
5.81129e-09
1.37547e-07
5.57411e-09
1.36351e-07
5.34803e-09
1.35198e-07
5.12289e-09
1.34086e-07
4.90901e-09
1.33017e-07
4.68218e-09
1.31989e-07
4.47289e-09
1.31004e-07
4.22558e-09
1.30064e-07
4.01166e-09
1.29168e-07
3.72472e-09
1.28329e-07
3.47515e-09
1.27532e-07
3.18225e-09
1.26803e-07
2.69988e-09
1.26158e-07
2.78142e-09
1.41314e-09
1.25172e-07
2.06423e-07
9.351e-08
2.09332e-07
9.1462e-08
2.11057e-07
6.39603e-08
2.11938e-07
5.34684e-08
2.12001e-07
4.65381e-08
2.11616e-07
4.0754e-08
2.10885e-07
3.66596e-08
2.0981e-07
3.35569e-08
2.08431e-07
3.09074e-08
2.06805e-07
2.85688e-08
2.04987e-07
2.64987e-08
2.03026e-07
2.46533e-08
2.00964e-07
2.29937e-08
1.98837e-07
2.14922e-08
1.96675e-07
2.01284e-08
1.94499e-07
1.88866e-08
1.9233e-07
1.77531e-08
1.9018e-07
1.67166e-08
1.88061e-07
1.57669e-08
1.8598e-07
1.48951e-08
1.83944e-07
1.40933e-08
1.81956e-07
1.33547e-08
1.80018e-07
1.26731e-08
1.78132e-07
1.2043e-08
1.76299e-07
1.14596e-08
1.74519e-07
1.09185e-08
1.72791e-07
1.0416e-08
1.71114e-07
9.94837e-09
1.69488e-07
9.51254e-09
1.67911e-07
9.10549e-09
1.66381e-07
8.72447e-09
1.64898e-07
8.36693e-09
1.63459e-07
8.03029e-09
1.62064e-07
7.71248e-09
1.60711e-07
7.41049e-09
1.59399e-07
7.12333e-09
1.58127e-07
6.84606e-09
1.56894e-07
6.58071e-09
1.557e-07
6.31671e-09
1.54545e-07
6.06426e-09
1.53428e-07
5.7987e-09
1.52352e-07
5.54969e-09
1.51314e-07
5.26283e-09
1.50322e-07
5.00416e-09
1.49369e-07
4.67761e-09
1.48474e-07
4.37027e-09
1.47618e-07
4.03797e-09
1.46819e-07
3.49857e-09
1.46117e-07
3.48429e-09
2.39258e-09
1.45137e-07
2.12269e-07
8.69035e-08
2.1514e-07
8.85906e-08
2.16812e-07
6.2289e-08
2.17852e-07
5.24278e-08
2.18261e-07
4.61295e-08
2.18378e-07
4.0637e-08
2.18301e-07
3.67362e-08
2.17999e-07
3.3859e-08
2.17465e-07
3.14415e-08
2.16717e-07
2.93166e-08
2.15779e-07
2.74366e-08
2.14676e-07
2.57566e-08
2.13432e-07
2.4237e-08
2.12074e-07
2.28505e-08
2.10624e-07
2.15783e-08
2.09104e-07
2.0407e-08
2.07531e-07
1.93257e-08
2.05923e-07
1.83253e-08
2.04291e-07
1.73981e-08
2.02649e-07
1.65376e-08
2.01005e-07
1.57376e-08
1.99366e-07
1.49931e-08
1.9774e-07
1.42993e-08
1.96131e-07
1.36519e-08
1.94543e-07
1.30473e-08
1.9298e-07
1.24819e-08
1.91443e-07
1.19527e-08
1.89935e-07
1.14567e-08
1.88456e-07
1.09912e-08
1.87008e-07
1.05537e-08
1.85591e-07
1.01417e-08
1.84205e-07
9.75288e-09
1.8285e-07
9.38488e-09
1.81527e-07
9.03574e-09
1.80235e-07
8.70246e-09
1.78974e-07
8.38411e-09
1.77745e-07
8.07564e-09
1.76546e-07
7.77902e-09
1.7538e-07
7.48358e-09
1.74245e-07
7.19902e-09
1.73142e-07
6.9012e-09
1.72074e-07
6.61753e-09
1.7104e-07
6.29732e-09
1.70046e-07
5.99766e-09
1.69087e-07
5.63753e-09
1.6818e-07
5.27675e-09
1.6731e-07
4.90759e-09
1.66484e-07
4.32473e-09
1.65759e-07
4.20954e-09
3.32517e-09
1.64826e-07
2.18315e-07
8.05694e-08
2.2119e-07
8.57157e-08
2.22784e-07
6.06944e-08
2.23853e-07
5.13589e-08
2.2437e-07
4.56124e-08
2.24665e-07
4.03424e-08
2.24865e-07
3.65362e-08
2.24942e-07
3.37824e-08
2.24874e-07
3.15091e-08
2.24662e-07
2.95283e-08
2.24311e-07
2.77882e-08
2.23825e-07
2.62424e-08
2.23214e-07
2.48484e-08
2.22488e-07
2.35765e-08
2.21659e-07
2.24066e-08
2.20742e-07
2.13247e-08
2.19747e-07
2.03202e-08
2.18688e-07
1.93847e-08
2.17575e-07
1.85112e-08
2.16418e-07
1.76939e-08
2.15228e-07
1.69281e-08
2.14011e-07
1.62095e-08
2.12776e-07
1.55343e-08
2.11529e-07
1.48993e-08
2.10275e-07
1.43014e-08
2.09019e-07
1.37381e-08
2.07765e-07
1.32069e-08
2.06516e-07
1.27055e-08
2.05275e-07
1.22317e-08
2.04045e-07
1.17835e-08
2.02828e-07
1.13588e-08
2.01625e-07
1.09557e-08
2.00438e-07
1.0572e-08
1.99268e-07
1.0206e-08
1.98116e-07
9.85485e-09
1.96982e-07
9.51765e-09
1.95868e-07
9.18946e-09
1.94775e-07
8.87214e-09
1.93703e-07
8.55521e-09
1.92655e-07
8.2476e-09
1.9163e-07
7.92642e-09
1.90631e-07
7.61584e-09
1.89658e-07
7.27056e-09
1.88719e-07
6.93677e-09
1.87806e-07
6.55054e-09
1.86938e-07
6.1446e-09
1.86103e-07
5.74241e-09
1.85298e-07
5.13039e-09
1.84592e-07
4.91547e-09
4.17306e-09
1.83744e-07
2.24548e-07
7.45143e-08
2.27449e-07
8.28146e-08
2.2898e-07
5.91637e-08
2.30056e-07
5.02829e-08
2.30614e-07
4.50547e-08
2.30957e-07
3.99992e-08
2.31247e-07
3.62465e-08
2.31472e-07
3.35574e-08
2.31613e-07
3.13675e-08
2.3167e-07
2.94719e-08
2.3164e-07
2.78179e-08
2.31522e-07
2.63602e-08
2.31315e-07
2.50551e-08
2.31021e-07
2.38705e-08
2.30643e-07
2.27846e-08
2.30186e-07
2.17821e-08
2.29655e-07
2.08513e-08
2.29056e-07
1.99832e-08
2.28397e-07
1.91707e-08
2.27683e-07
1.84078e-08
2.26921e-07
1.76899e-08
2.26118e-07
1.7013e-08
2.25278e-07
1.63736e-08
2.24409e-07
1.57688e-08
2.23514e-07
1.51962e-08
2.22599e-07
1.46534e-08
2.21667e-07
1.41384e-08
2.20723e-07
1.36494e-08
2.1977e-07
1.31847e-08
2.18812e-07
1.27425e-08
2.17849e-07
1.23211e-08
2.16886e-07
1.1919e-08
2.15924e-07
1.15341e-08
2.14965e-07
1.1165e-08
2.14011e-07
1.0809e-08
2.13063e-07
1.04654e-08
2.12123e-07
1.01293e-08
2.11193e-07
9.80242e-09
2.10273e-07
9.4747e-09
2.09367e-07
9.15406e-09
2.08474e-07
8.81938e-09
2.07599e-07
8.49098e-09
2.06739e-07
8.12989e-09
2.05905e-07
7.77074e-09
2.05089e-07
7.3666e-09
2.04308e-07
6.92622e-09
2.03554e-07
6.49611e-09
2.02816e-07
5.8684e-09
2.02171e-07
5.56047e-09
4.90342e-09
2.01441e-07
2.30974e-07
6.87459e-08
2.3391e-07
7.98785e-08
2.35384e-07
5.769e-08
2.36468e-07
4.91985e-08
2.37059e-07
4.44642e-08
2.37417e-07
3.96411e-08
2.37728e-07
3.59351e-08
2.37999e-07
3.32865e-08
2.38217e-07
3.11502e-08
2.38383e-07
2.93059e-08
2.38499e-07
2.77015e-08
2.38564e-07
2.62953e-08
2.38575e-07
2.50445e-08
2.38529e-07
2.39161e-08
2.38426e-07
2.28874e-08
2.38266e-07
2.19419e-08
2.3805e-07
2.10673e-08
2.3778e-07
2.02537e-08
2.37457e-07
1.94932e-08
2.37086e-07
1.87798e-08
2.36667e-07
1.81081e-08
2.36206e-07
1.74739e-08
2.35706e-07
1.68738e-08
2.3517e-07
1.63048e-08
2.34602e-07
1.57643e-08
2.34005e-07
1.52503e-08
2.33383e-07
1.47607e-08
2.32738e-07
1.4294e-08
2.32074e-07
1.38485e-08
2.31394e-07
1.34229e-08
2.307e-07
1.30155e-08
2.29994e-07
1.26249e-08
2.29278e-07
1.22494e-08
2.28556e-07
1.18877e-08
2.27828e-07
1.15372e-08
2.27096e-07
1.11972e-08
2.26362e-07
1.0863e-08
2.25628e-07
1.05361e-08
2.24896e-07
1.0207e-08
2.24168e-07
9.88239e-09
2.23444e-07
9.5433e-09
2.22729e-07
9.20582e-09
2.22021e-07
8.83768e-09
2.2133e-07
8.46223e-09
2.20648e-07
8.04798e-09
2.1999e-07
7.58451e-09
2.19354e-07
7.13228e-09
2.18722e-07
6.50011e-09
2.18173e-07
6.10984e-09
5.49279e-09
2.17584e-07
2.37601e-07
6.32701e-08
2.40576e-07
7.69031e-08
2.41993e-07
5.62734e-08
2.43084e-07
4.81069e-08
2.43711e-07
4.3837e-08
2.44082e-07
3.92701e-08
2.44399e-07
3.56182e-08
2.44683e-07
3.3003e-08
2.44923e-07
3.09101e-08
2.45125e-07
2.91034e-08
2.45296e-07
2.75305e-08
2.45437e-07
2.6155e-08
2.45545e-07
2.49361e-08
2.4562e-07
2.38411e-08
2.4566e-07
2.28472e-08
2.45664e-07
2.19378e-08
2.45631e-07
2.11001e-08
2.45561e-07
2.03238e-08
2.45454e-07
1.96007e-08
2.45309e-07
1.89242e-08
2.45129e-07
1.82887e-08
2.44913e-07
1.76896e-08
2.44664e-07
1.71232e-08
2.44382e-07
1.65862e-08
2.44071e-07
1.6076e-08
2.43731e-07
1.55902e-08
2.43365e-07
1.51269e-08
2.42974e-07
1.46845e-08
2.42561e-07
1.42613e-08
2.42128e-07
1.38559e-08
2.41677e-07
1.34669e-08
2.41209e-07
1.30929e-08
2.40726e-07
1.27322e-08
2.40231e-07
1.23835e-08
2.39723e-07
1.20444e-08
2.39206e-07
1.17142e-08
2.38681e-07
1.13883e-08
2.38149e-07
1.10678e-08
2.37612e-07
1.0744e-08
2.37073e-07
1.04221e-08
2.36531e-07
1.00854e-08
2.35991e-07
9.74576e-09
2.35451e-07
9.37742e-09
2.3492e-07
8.99357e-09
2.34392e-07
8.57552e-09
2.33877e-07
8.09921e-09
2.33379e-07
7.63041e-09
2.32878e-07
7.00179e-09
2.32446e-07
6.54169e-09
5.93087e-09
2.32008e-07
2.44436e-07
5.80905e-08
2.4745e-07
7.38893e-08
2.48811e-07
5.49121e-08
2.49905e-07
4.70125e-08
2.50571e-07
4.31714e-08
2.50958e-07
3.88826e-08
2.5128e-07
3.52968e-08
2.51569e-07
3.2714e-08
2.51816e-07
3.06625e-08
2.5203e-07
2.88901e-08
2.52218e-07
2.73425e-08
2.52384e-07
2.59888e-08
2.52529e-07
2.47909e-08
2.52653e-07
2.37169e-08
2.52756e-07
2.27443e-08
2.52837e-07
2.18568e-08
2.52896e-07
2.10417e-08
2.52931e-07
2.02888e-08
2.52942e-07
1.95897e-08
2.52928e-07
1.89376e-08
2.5289e-07
1.83268e-08
2.52827e-07
1.77526e-08
2.5274e-07
1.72108e-08
2.52628e-07
1.6698e-08
2.52492e-07
1.62115e-08
2.52334e-07
1.57486e-08
2.52153e-07
1.53074e-08
2.51952e-07
1.4886e-08
2.5173e-07
1.44828e-08
2.5149e-07
1.40963e-08
2.51232e-07
1.3725e-08
2.50957e-07
1.33676e-08
2.50667e-07
1.30224e-08
2.50362e-07
1.2688e-08
2.50044e-07
1.23621e-08
2.49715e-07
1.20438e-08
2.49374e-07
1.17287e-08
2.49025e-07
1.14177e-08
2.48666e-07
1.11024e-08
2.48302e-07
1.07867e-08
2.47931e-07
1.04563e-08
2.47557e-07
1.01189e-08
2.4718e-07
9.75464e-09
2.46806e-07
9.3681e-09
2.46431e-07
8.95038e-09
2.46061e-07
8.46909e-09
2.45703e-07
7.98824e-09
2.45337e-07
7.36758e-09
2.45029e-07
6.85001e-09
6.22215e-09
2.44738e-07
2.51488e-07
5.32091e-08
2.5453e-07
7.08471e-08
2.55847e-07
5.35952e-08
2.56939e-07
4.59208e-08
2.57642e-07
4.24681e-08
2.58049e-07
3.84758e-08
2.58376e-07
3.49697e-08
2.5867e-07
3.24197e-08
2.58923e-07
3.04097e-08
2.59141e-07
2.86723e-08
2.59334e-07
2.71493e-08
2.59508e-07
2.58148e-08
2.59665e-07
2.46339e-08
2.59806e-07
2.35756e-08
2.59933e-07
2.2618e-08
2.60044e-07
2.17451e-08
2.60141e-07
2.09446e-08
2.60224e-07
2.02065e-08
2.60291e-07
1.95225e-08
2.60343e-07
1.88859e-08
2.60379e-07
1.8291e-08
2.60398e-07
1.77328e-08
2.60402e-07
1.72074e-08
2.60388e-07
1.67111e-08
2.60359e-07
1.62411e-08
2.60313e-07
1.57946e-08
2.60251e-07
1.53694e-08
2.60173e-07
1.49638e-08
2.6008e-07
1.45759e-08
2.59972e-07
1.42042e-08
2.5985e-07
1.38472e-08
2.59714e-07
1.35035e-08
2.59565e-07
1.31714e-08
2.59404e-07
1.28496e-08
2.5923e-07
1.25355e-08
2.59046e-07
1.22283e-08
2.58851e-07
1.19237e-08
2.58646e-07
1.1622e-08
2.58433e-07
1.13156e-08
2.58213e-07
1.10071e-08
2.57985e-07
1.06841e-08
2.57753e-07
1.03508e-08
2.57516e-07
9.9922e-09
2.57277e-07
9.60629e-09
2.57037e-07
9.19077e-09
2.56797e-07
8.70952e-09
2.56565e-07
8.21973e-09
2.56325e-07
7.60808e-09
2.56131e-07
7.0439e-09
6.38434e-09
2.55968e-07
2.58766e-07
4.86263e-08
2.61826e-07
6.77872e-08
2.63109e-07
5.23118e-08
2.64193e-07
4.48367e-08
2.64932e-07
4.17295e-08
2.6536e-07
3.80477e-08
2.65694e-07
3.46358e-08
2.65994e-07
3.21198e-08
2.66252e-07
3.01516e-08
2.66474e-07
2.84508e-08
2.6667e-07
2.69533e-08
2.66846e-07
2.5638e-08
2.67007e-07
2.44732e-08
2.67153e-07
2.34292e-08
2.67287e-07
2.24843e-08
2.67409e-07
2.1623e-08
2.6752e-07
2.08335e-08
2.67621e-07
2.0106e-08
2.67711e-07
1.94325e-08
2.6779e-07
1.88063e-08
2.6786e-07
1.82218e-08
2.67918e-07
1.76743e-08
2.67966e-07
1.71595e-08
2.68003e-07
1.66741e-08
2.68029e-07
1.62149e-08
2.68044e-07
1.57793e-08
2.68049e-07
1.5365e-08
2.68043e-07
1.497e-08
2.68026e-07
1.45927e-08
2.67999e-07
1.42315e-08
2.67961e-07
1.38847e-08
2.67914e-07
1.3551e-08
2.67857e-07
1.32285e-08
2.6779e-07
1.29161e-08
2.67714e-07
1.26111e-08
2.6763e-07
1.23126e-08
2.67537e-07
1.20164e-08
2.67437e-07
1.17223e-08
2.67329e-07
1.14236e-08
2.67215e-07
1.11211e-08
2.67094e-07
1.08048e-08
2.6697e-07
1.04756e-08
2.66839e-07
1.01224e-08
2.66707e-07
9.73838e-09
2.66573e-07
9.32518e-09
2.66436e-07
8.84642e-09
2.66306e-07
8.34945e-09
2.66169e-07
7.74535e-09
2.6607e-07
7.14331e-09
6.4441e-09
2.6601e-07
2.66278e-07
4.43407e-08
2.69345e-07
6.47202e-08
2.70606e-07
5.1051e-08
2.71678e-07
4.37645e-08
2.72449e-07
4.09586e-08
2.729e-07
3.75967e-08
2.73241e-07
3.42944e-08
2.73547e-07
3.18141e-08
2.73811e-07
2.98876e-08
2.74036e-07
2.82252e-08
2.74235e-07
2.67546e-08
2.74414e-07
2.5459e-08
2.74577e-07
2.43107e-08
2.74725e-07
2.32809e-08
2.74861e-07
2.23483e-08
2.74986e-07
2.14979e-08
2.75101e-07
2.07182e-08
2.75208e-07
1.99998e-08
2.75305e-07
1.93347e-08
2.75395e-07
1.87166e-08
2.75477e-07
1.814e-08
2.75551e-07
1.76001e-08
2.75618e-07
1.7093e-08
2.75677e-07
1.6615e-08
2.75728e-07
1.61632e-08
2.75773e-07
1.5735e-08
2.7581e-07
1.53279e-08
2.7584e-07
1.49401e-08
2.75862e-07
1.45698e-08
2.75878e-07
1.42155e-08
2.75888e-07
1.38755e-08
2.7589e-07
1.35484e-08
2.75886e-07
1.32325e-08
2.75876e-07
1.29265e-08
2.75859e-07
1.26278e-08
2.75836e-07
1.23353e-08
2.75808e-07
1.20451e-08
2.75774e-07
1.17564e-08
2.75734e-07
1.14632e-08
2.7569e-07
1.11651e-08
2.75641e-07
1.08538e-08
2.75589e-07
1.05276e-08
2.75533e-07
1.01785e-08
2.75475e-07
9.79648e-09
2.75415e-07
9.38474e-09
2.75353e-07
8.90906e-09
2.75296e-07
8.40574e-09
2.75235e-07
7.80631e-09
2.75205e-07
7.17314e-09
6.43133e-09
2.75218e-07
2.74033e-07
4.03493e-08
2.77096e-07
6.16569e-08
2.78344e-07
4.98027e-08
2.79401e-07
4.27079e-08
2.802e-07
4.01591e-08
2.80676e-07
3.71213e-08
2.81025e-07
3.39446e-08
2.81337e-07
3.15028e-08
2.81607e-07
2.96176e-08
2.81837e-07
2.79949e-08
2.82039e-07
2.65529e-08
2.8222e-07
2.5278e-08
2.82384e-07
2.41466e-08
2.82534e-07
2.31312e-08
2.82671e-07
2.22112e-08
2.82797e-07
2.13717e-08
2.82913e-07
2.06017e-08
2.83021e-07
1.98919e-08
2.83121e-07
1.92348e-08
2.83214e-07
1.8624e-08
2.83299e-07
1.80543e-08
2.83379e-07
1.75209e-08
2.83452e-07
1.70199e-08
2.83519e-07
1.65479e-08
2.8358e-07
1.61018e-08
2.83636e-07
1.5679e-08
2.83687e-07
1.52772e-08
2.83733e-07
1.48944e-08
2.83774e-07
1.4529e-08
2.8381e-07
1.41793e-08
2.83842e-07
1.38438e-08
2.83869e-07
1.35211e-08
2.83892e-07
1.32096e-08
2.83911e-07
1.29077e-08
2.83925e-07
1.26131e-08
2.83936e-07
1.23245e-08
2.83943e-07
1.20381e-08
2.83947e-07
1.17529e-08
2.83947e-07
1.14633e-08
2.83944e-07
1.1168e-08
2.83937e-07
1.086e-08
2.83929e-07
1.05358e-08
2.83919e-07
1.01892e-08
2.83907e-07
9.80855e-09
2.83894e-07
9.39716e-09
2.83879e-07
8.92412e-09
2.8387e-07
8.41488e-09
2.83859e-07
7.81687e-09
2.83875e-07
7.15778e-09
6.37413e-09
2.83932e-07
2.82039e-07
3.66474e-08
2.85088e-07
5.86083e-08
2.86333e-07
4.85574e-08
2.87371e-07
4.16698e-08
2.88195e-07
3.93356e-08
2.88696e-07
3.66202e-08
2.89055e-07
3.35853e-08
2.89372e-07
3.11858e-08
2.89649e-07
2.93414e-08
2.89884e-07
2.77598e-08
2.90089e-07
2.63478e-08
2.90272e-07
2.50945e-08
2.90438e-07
2.39806e-08
2.90589e-07
2.29803e-08
2.90727e-07
2.20731e-08
2.90854e-07
2.12449e-08
2.90971e-07
2.04847e-08
2.91079e-07
1.97836e-08
2.9118e-07
1.91344e-08
2.91273e-07
1.85309e-08
2.91359e-07
1.79677e-08
2.9144e-07
1.74405e-08
2.91514e-07
1.69452e-08
2.91584e-07
1.64785e-08
2.91648e-07
1.60374e-08
2.91708e-07
1.56192e-08
2.91763e-07
1.52218e-08
2.91815e-07
1.48431e-08
2.91862e-07
1.44814e-08
2.91906e-07
1.41352e-08
2.91947e-07
1.3803e-08
2.91985e-07
1.34834e-08
2.9202e-07
1.31748e-08
2.92052e-07
1.28757e-08
2.92081e-07
1.25839e-08
2.92108e-07
1.22977e-08
2.92132e-07
1.20139e-08
2.92154e-07
1.17307e-08
2.92174e-07
1.14435e-08
2.92192e-07
1.11498e-08
2.92208e-07
1.08438e-08
2.92223e-07
1.05205e-08
2.92237e-07
1.01752e-08
2.9225e-07
9.79548e-09
2.92264e-07
9.38356e-09
2.92276e-07
8.9124e-09
2.92293e-07
8.39766e-09
2.92312e-07
7.79825e-09
2.92352e-07
7.11749e-09
6.29544e-09
2.92431e-07
2.90308e-07
3.32285e-08
2.9333e-07
5.55857e-08
2.94582e-07
4.73061e-08
2.95599e-07
4.06521e-08
2.96442e-07
3.84929e-08
2.9697e-07
3.60923e-08
2.9734e-07
3.32152e-08
2.97662e-07
3.08634e-08
2.97945e-07
2.9059e-08
2.98185e-07
2.75193e-08
2.98394e-07
2.61392e-08
2.9858e-07
2.49085e-08
2.98748e-07
2.38127e-08
2.989e-07
2.28278e-08
2.99039e-07
2.1934e-08
2.99167e-07
2.11173e-08
2.99284e-07
2.03672e-08
2.99393e-07
1.96751e-08
2.99493e-07
1.9034e-08
2.99586e-07
1.84377e-08
2.99673e-07
1.78812e-08
2.99753e-07
1.73601e-08
2.99828e-07
1.68705e-08
2.99897e-07
1.6409e-08
2.99962e-07
1.59727e-08
3.00022e-07
1.5559e-08
3.00079e-07
1.51655e-08
3.00131e-07
1.47904e-08
3.00181e-07
1.4432e-08
3.00227e-07
1.40889e-08
3.00271e-07
1.37594e-08
3.00312e-07
1.34423e-08
3.0035e-07
1.3136e-08
3.00387e-07
1.28391e-08
3.00422e-07
1.25492e-08
3.00455e-07
1.22648e-08
3.00486e-07
1.19827e-08
3.00516e-07
1.1701e-08
3.00544e-07
1.14152e-08
3.00571e-07
1.11224e-08
3.00598e-07
1.08176e-08
3.00623e-07
1.04948e-08
3.00648e-07
1.01501e-08
3.00673e-07
9.7709e-09
3.00699e-07
9.35803e-09
3.00723e-07
8.88805e-09
3.00752e-07
8.36843e-09
3.00785e-07
7.76568e-09
3.00835e-07
7.06706e-09
6.21192e-09
3.00919e-07
2.98847e-07
3.00844e-08
3.01832e-07
5.26003e-08
3.03097e-07
4.60411e-08
3.04093e-07
3.96562e-08
3.0495e-07
3.76364e-08
3.05505e-07
3.55371e-08
3.05887e-07
3.28328e-08
3.06215e-07
3.05354e-08
3.06504e-07
2.87704e-08
3.0675e-07
2.72733e-08
3.06962e-07
2.59266e-08
3.07151e-07
2.47197e-08
3.07321e-07
2.36426e-08
3.07475e-07
2.26737e-08
3.07616e-07
2.17937e-08
3.07744e-07
2.09889e-08
3.07862e-07
2.02491e-08
3.07971e-07
1.95663e-08
3.08072e-07
1.89334e-08
3.08165e-07
1.83447e-08
3.08251e-07
1.7795e-08
3.08331e-07
1.72802e-08
3.08405e-07
1.67963e-08
3.08474e-07
1.63401e-08
3.08538e-07
1.59085e-08
3.08598e-07
1.54991e-08
3.08654e-07
1.51096e-08
3.08706e-07
1.47381e-08
3.08755e-07
1.43829e-08
3.08802e-07
1.40426e-08
3.08845e-07
1.37156e-08
3.08887e-07
1.34009e-08
3.08926e-07
1.30966e-08
3.08964e-07
1.28015e-08
3.09e-07
1.25133e-08
3.09034e-07
1.22304e-08
3.09067e-07
1.19497e-08
3.09099e-07
1.1669e-08
3.0913e-07
1.13844e-08
3.0916e-07
1.10923e-08
3.09189e-07
1.07882e-08
3.09218e-07
1.04659e-08
3.09247e-07
1.01214e-08
3.09275e-07
9.74268e-09
3.09304e-07
9.32888e-09
3.09333e-07
8.85965e-09
3.09365e-07
8.33602e-09
3.09402e-07
7.72902e-09
3.09453e-07
7.01616e-09
6.13454e-09
3.0953e-07
3.07666e-07
2.72054e-08
3.10603e-07
4.96631e-08
3.11889e-07
4.47555e-08
3.12863e-07
3.86826e-08
3.13728e-07
3.67713e-08
3.1431e-07
3.49546e-08
3.14706e-07
3.24367e-08
3.1504e-07
3.02016e-08
3.15335e-07
2.84757e-08
3.15587e-07
2.70214e-08
3.15804e-07
2.57098e-08
3.15996e-07
2.45279e-08
3.16168e-07
2.34701e-08
3.16324e-07
2.25177e-08
3.16466e-07
2.16519e-08
3.16595e-07
2.08594e-08
3.16714e-07
2.01304e-08
3.16823e-07
1.94571e-08
3.16924e-07
1.88327e-08
3.17017e-07
1.82517e-08
3.17103e-07
1.7709e-08
3.17183e-07
1.72005e-08
3.17256e-07
1.67225e-08
3.17325e-07
1.62717e-08
3.17388e-07
1.5845e-08
3.17447e-07
1.54401e-08
3.17502e-07
1.50546e-08
3.17554e-07
1.46866e-08
3.17602e-07
1.43346e-08
3.17648e-07
1.3997e-08
3.17691e-07
1.36726e-08
3.17731e-07
1.33601e-08
3.1777e-07
1.30578e-08
3.17807e-07
1.27645e-08
3.17843e-07
1.2478e-08
3.17876e-07
1.21964e-08
3.17909e-07
1.19171e-08
3.17941e-07
1.16375e-08
3.17971e-07
1.13538e-08
3.18001e-07
1.10625e-08
3.1803e-07
1.07591e-08
3.18059e-07
1.04372e-08
3.18087e-07
1.00929e-08
3.18115e-07
9.7149e-09
3.18143e-07
9.3005e-09
3.18171e-07
8.8319e-09
3.18202e-07
8.30535e-09
3.18237e-07
7.69416e-09
3.18282e-07
6.9707e-09
6.06992e-09
3.18347e-07
3.16776e-07
2.45802e-08
3.19654e-07
4.67855e-08
3.20966e-07
4.34436e-08
3.21918e-07
3.77308e-08
3.22786e-07
3.59025e-08
3.23395e-07
3.43457e-08
3.23807e-07
3.20253e-08
3.24147e-07
2.98616e-08
3.24447e-07
2.81749e-08
3.24705e-07
2.67633e-08
3.24927e-07
2.54883e-08
3.25122e-07
2.43327e-08
3.25297e-07
2.32951e-08
3.25455e-07
2.23597e-08
3.25598e-07
2.15086e-08
3.25729e-07
2.07288e-08
3.25849e-07
2.00109e-08
3.25958e-07
1.93473e-08
3.26059e-07
1.87317e-08
3.26153e-07
1.81585e-08
3.26238e-07
1.76231e-08
3.26318e-07
1.71212e-08
3.26391e-07
1.66492e-08
3.26459e-07
1.62038e-08
3.26522e-07
1.57822e-08
3.2658e-07
1.53818e-08
3.26634e-07
1.50003e-08
3.26685e-07
1.4636e-08
3.26732e-07
1.42872e-08
3.26777e-07
1.39525e-08
3.26819e-07
1.36307e-08
3.26859e-07
1.33204e-08
3.26896e-07
1.30202e-08
3.26932e-07
1.27286e-08
3.26966e-07
1.24438e-08
3.26999e-07
1.21637e-08
3.2703e-07
1.18857e-08
3.27061e-07
1.16072e-08
3.2709e-07
1.13247e-08
3.27118e-07
1.10342e-08
3.27146e-07
1.07316e-08
3.27173e-07
1.04105e-08
3.27199e-07
1.00666e-08
3.27224e-07
9.68949e-09
3.2725e-07
9.27505e-09
3.27274e-07
8.80725e-09
3.27301e-07
8.279e-09
3.2733e-07
7.6645e-09
3.27367e-07
6.93415e-09
6.02179e-09
3.27415e-07
3.26187e-07
2.21961e-08
3.28994e-07
4.39781e-08
3.30336e-07
4.21014e-08
3.31267e-07
3.67998e-08
3.32135e-07
3.5035e-08
3.32769e-07
3.37119e-08
3.33197e-07
3.15971e-08
3.33543e-07
2.9515e-08
3.3385e-07
2.78682e-08
3.34115e-07
2.6499e-08
3.34341e-07
2.52619e-08
3.3454e-07
2.4134e-08
3.34718e-07
2.31173e-08
3.34878e-07
2.21994e-08
3.35023e-07
2.13635e-08
3.35155e-07
2.05968e-08
3.35276e-07
1.98903e-08
3.35386e-07
1.92368e-08
3.35487e-07
1.86302e-08
3.35581e-07
1.80652e-08
3.35667e-07
1.75371e-08
3.35746e-07
1.7042e-08
3.35819e-07
1.65762e-08
3.35886e-07
1.61365e-08
3.35949e-07
1.57199e-08
3.36006e-07
1.53241e-08
3.3606e-07
1.49468e-08
3.36109e-07
1.45862e-08
3.36156e-07
1.42407e-08
3.36199e-07
1.3909e-08
3.3624e-07
1.35897e-08
3.36279e-07
1.32818e-08