/*--------------------------------*- C++ -*----------------------------------*\
  =========                 |
  \\      /  F ield         | OpenFOAM: The Open Source CFD Toolbox
   \\    /   O peration     | Website:  https://openfoam.org
    \\  /    A nd           | Version:  7
     \\/     M anipulation  |
\*---------------------------------------------------------------------------*/
FoamFile
{
    version     2.0;
    format      ascii;
    class       surfaceScalarField;
    location    "0.34";
    object      phi_0;
}
// * * * * * * * * * * * * * * * * * * * * * * * * * * * * * * * * * * * * * //

dimensions      [0 3 -1 0 0 0 0];

internalField   nonuniform List<scalar> 
139350
(
6.45122e-08
9.21193e-08
3.19646e-08
3.25476e-08
2.30588e-08
8.90581e-09
1.9573e-08
3.48577e-09
1.76196e-08
1.95341e-09
1.61874e-08
1.4322e-09
1.5052e-08
1.13542e-09
1.41367e-08
9.153e-10
1.33829e-08
7.53845e-10
1.27472e-08
6.35702e-10
1.22008e-08
5.46331e-10
1.17246e-08
4.76265e-10
1.13047e-08
4.19908e-10
1.09309e-08
3.7374e-10
1.05956e-08
3.35361e-10
1.02925e-08
3.03056e-10
1.00169e-08
2.75565e-10
9.76499e-09
2.51944e-10
9.53352e-09
2.31474e-10
9.31992e-09
2.13598e-10
9.12204e-09
1.97881e-10
8.93807e-09
1.83974e-10
8.76647e-09
1.71599e-10
8.60594e-09
1.60527e-10
8.45537e-09
1.50573e-10
8.31379e-09
1.4158e-10
8.18037e-09
1.33418e-10
8.05439e-09
1.25978e-10
7.93523e-09
1.1916e-10
7.82235e-09
1.12886e-10
7.71527e-09
1.07073e-10
7.61361e-09
1.01668e-10
7.51702e-09
9.65823e-11
7.42523e-09
9.17977e-11
7.33803e-09
8.71939e-11
7.25523e-09
8.2804e-11
7.17679e-09
7.84411e-11
7.10258e-09
7.42112e-11
7.03273e-09
6.98489e-11
6.96725e-09
6.54737e-11
6.90632e-09
6.09313e-11
6.85046e-09
5.58609e-11
6.79914e-09
5.13155e-11
6.75496e-09
4.41821e-11
6.71359e-09
4.13769e-11
6.6858e-09
2.77868e-11
6.64924e-09
3.65556e-11
6.66172e-09
-1.24797e-11
6.46735e-09
1.94369e-10
-3.0328e-09
9.50015e-09
1.25943e-07
1.2762e-07
9.12897e-08
6.72011e-08
7.1936e-08
2.82595e-08
6.12184e-08
1.42033e-08
5.47786e-08
8.39323e-09
5.02787e-08
5.93208e-09
4.67878e-08
4.62634e-09
4.39667e-08
3.7364e-09
4.16347e-08
3.0858e-09
3.96665e-08
2.60391e-09
3.7975e-08
2.23788e-09
3.65001e-08
1.9511e-09
3.51994e-08
1.7206e-09
3.40414e-08
1.53182e-09
3.30019e-08
1.37486e-09
3.20622e-08
1.24271e-09
3.12075e-08
1.13023e-09
3.04259e-08
1.03356e-09
2.97076e-08
9.49773e-10
2.90446e-08
8.76591e-10
2.84303e-08
8.12236e-10
2.78589e-08
7.55291e-10
2.73259e-08
7.04619e-10
2.68272e-08
6.59293e-10
2.63592e-08
6.18553e-10
2.5919e-08
5.81769e-10
2.5504e-08
5.4841e-10
2.51119e-08
5.18028e-10
2.47409e-08
4.90233e-10
2.43891e-08
4.64696e-10
2.4055e-08
4.41102e-10
2.37375e-08
4.19215e-10
2.34353e-08
3.9873e-10
2.31476e-08
3.79512e-10
2.28736e-08
3.61178e-10
2.26127e-08
3.43764e-10
2.23645e-08
3.26642e-10
2.21285e-08
3.10193e-10
2.19051e-08
2.93259e-10
2.16937e-08
2.76861e-10
2.14957e-08
2.58947e-10
2.13101e-08
2.41396e-10
2.114e-08
2.21419e-10
2.09837e-08
2.00516e-10
2.0846e-08
1.79105e-10
2.07258e-08
1.48001e-10
2.06202e-08
1.42171e-10
2.05793e-08
2.83247e-11
2.03665e-08
4.07194e-10
-3.48034e-09
2.08141e-08
1.58752e-07
1.35271e-07
1.36527e-07
8.94264e-08
1.17493e-07
4.72936e-08
1.03314e-07
2.83825e-08
9.33165e-08
1.83906e-08
8.60112e-08
1.32374e-08
8.02969e-08
1.03407e-08
7.56372e-08
8.39609e-09
7.17498e-08
6.97321e-09
6.84471e-08
5.9066e-09
6.55959e-08
5.08914e-09
6.31014e-08
4.44553e-09
6.08954e-08
3.92665e-09
5.89267e-08
3.50054e-09
5.7156e-08
3.14547e-09
5.55528e-08
2.84593e-09
5.40925e-08
2.59052e-09
5.27554e-08
2.37069e-09
5.15253e-08
2.17989e-09
5.03888e-08
2.01306e-09
4.93349e-08
1.86621e-09
4.8354e-08
1.73616e-09
4.74382e-08
1.62036e-09
4.65808e-08
1.51671e-09
4.57759e-08
1.42352e-09
4.50183e-08
1.33936e-09
4.43036e-08
1.26303e-09
4.36282e-08
1.19352e-09
4.29884e-08
1.12997e-09
4.23815e-08
1.07161e-09
4.18048e-08
1.01778e-09
4.12561e-08
9.679e-10
4.07335e-08
9.21352e-10
4.02353e-08
8.77777e-10
3.976e-08
8.36419e-10
3.93065e-08
7.97261e-10
3.88741e-08
7.59045e-10
3.84618e-08
7.22554e-10
3.80698e-08
6.85186e-10
3.7697e-08
6.49651e-10
3.73458e-08
6.10205e-10
3.70133e-08
5.73913e-10
3.67062e-08
5.28484e-10
3.64172e-08
4.89501e-10
3.61621e-08
4.34173e-10
3.59239e-08
3.86251e-10
3.57271e-08
3.38991e-10
3.5582e-08
1.73381e-10
3.54109e-08
5.78346e-10
-2.96534e-09
3.48959e-08
1.75611e-07
1.31175e-07
1.65624e-07
9.94139e-08
1.52735e-07
6.01821e-08
1.40125e-07
4.09931e-08
1.29441e-07
2.90742e-08
1.20797e-07
2.18817e-08
1.13677e-07
1.74604e-08
1.07686e-07
1.43866e-08
1.02575e-07
1.20848e-08
9.81597e-08
1.03218e-08
9.43012e-08
8.94767e-09
9.08939e-08
7.85286e-09
8.7858e-08
6.96247e-09
8.51324e-08
6.22621e-09
8.26687e-08
5.60916e-09
8.04285e-08
5.0861e-09
7.83807e-08
4.63829e-09
7.64999e-08
4.25149e-09
7.47651e-08
3.91478e-09
7.31585e-08
3.61958e-09
7.16656e-08
3.35913e-09
7.02738e-08
3.12801e-09
6.89723e-08
2.92185e-09
6.77519e-08
2.73706e-09
6.66048e-08
2.57068e-09
6.55239e-08
2.42026e-09
6.45032e-08
2.28372e-09
6.35374e-08
2.15931e-09
6.26218e-08
2.04551e-09
6.17524e-08
1.94101e-09
6.09256e-08
1.84463e-09
6.01381e-08
1.75538e-09
5.93872e-08
1.67222e-09
5.86706e-08
1.59447e-09
5.79861e-08
1.52091e-09
5.73319e-08
1.45143e-09
5.67069e-08
1.38401e-09
5.61096e-08
1.31988e-09
5.55401e-08
1.25466e-09
5.49966e-08
1.19318e-09
5.44818e-08
1.125e-09
5.39918e-08
1.06391e-09
5.35351e-08
9.85193e-10
5.31016e-08
9.23034e-10
5.27117e-08
8.24088e-10
5.23429e-08
7.55039e-10
5.20287e-08
6.53185e-10
5.17624e-08
4.3964e-10
5.15458e-08
7.94984e-10
-2.22816e-09
5.08086e-08
1.8451e-07
1.23451e-07
1.82341e-07
1.01583e-07
1.76121e-07
6.64018e-08
1.67763e-07
4.93514e-08
1.59141e-07
3.7696e-08
1.51231e-07
2.97919e-08
1.44151e-07
2.45401e-08
1.37842e-07
2.06962e-08
1.32229e-07
1.76973e-08
1.2723e-07
1.53214e-08
1.22757e-07
1.342e-08
1.18736e-07
1.18744e-08
1.15101e-07
1.05975e-08
1.11799e-07
9.52834e-09
1.08785e-07
8.62299e-09
1.06022e-07
7.84887e-09
1.03479e-07
7.18123e-09
1.0113e-07
6.60094e-09
9.89514e-08
6.09304e-09
9.69253e-08
5.64565e-09
9.50351e-08
5.2493e-09
9.32668e-08
4.8963e-09
9.16083e-08
4.58039e-09
9.00489e-08
4.29642e-09
8.85795e-08
4.04011e-09
8.71919e-08
3.80787e-09
8.5879e-08
3.59666e-09
8.46344e-08
3.40389e-09
8.34526e-08
3.22732e-09
8.23286e-08
3.065e-09
8.1258e-08
2.9152e-09
8.0237e-08
2.77643e-09
7.9262e-08
2.64715e-09
7.83302e-08
2.52633e-09
7.74388e-08
2.41223e-09
7.65857e-08
2.30458e-09
7.57692e-08
2.20054e-09
7.49873e-08
2.10177e-09
7.42399e-08
2.00204e-09
7.35248e-08
1.90829e-09
7.28445e-08
1.80523e-09
7.2195e-08
1.71344e-09
7.15845e-08
1.59574e-09
7.10033e-08
1.50424e-09
7.04702e-08
1.35714e-09
6.99675e-08
1.25777e-09
6.95201e-08
1.10054e-09
6.91312e-08
8.28605e-10
6.88017e-08
1.12439e-09
-1.42147e-09
6.79951e-08
1.90342e-07
1.15325e-07
1.91859e-07
1.00066e-07
1.90263e-07
6.79981e-08
1.86158e-07
5.34567e-08
1.80718e-07
4.31362e-08
1.74963e-07
3.55469e-08
1.6926e-07
3.02425e-08
1.63767e-07
2.61891e-08
1.58581e-07
2.28838e-08
1.53742e-07
2.01596e-08
1.49255e-07
1.79072e-08
1.45103e-07
1.60269e-08
1.41261e-07
1.44393e-08
1.37704e-07
1.30855e-08
1.34405e-07
1.19216e-08
1.3134e-07
1.09135e-08
1.28487e-07
1.00344e-08
1.25825e-07
9.26293e-09
1.23336e-07
8.58211e-09
1.21004e-07
7.97806e-09
1.18814e-07
7.43946e-09
1.16753e-07
6.95706e-09
1.1481e-07
6.52317e-09
1.12975e-07
6.13138e-09
1.11239e-07
5.77634e-09
1.09593e-07
5.45347e-09
1.08031e-07
5.1589e-09
1.06546e-07
4.88929e-09
1.05131e-07
4.64172e-09
1.03783e-07
4.41364e-09
1.02495e-07
4.20278e-09
1.01264e-07
4.00714e-09
1.00087e-07
3.82473e-09
9.8959e-08
3.65412e-09
9.78781e-08
3.49307e-09
9.68416e-08
3.34111e-09
9.58475e-08
3.19462e-09
9.48937e-08
3.05557e-09
9.39797e-08
2.91604e-09
9.31033e-08
2.78472e-09
9.22664e-08
2.64213e-09
9.14656e-08
2.51427e-09
9.07073e-08
2.35402e-09
8.9985e-08
2.22654e-09
8.93115e-08
2.03065e-09
8.86798e-08
1.88949e-09
8.8098e-08
1.68231e-09
8.75867e-08
1.33994e-09
8.71356e-08
1.57544e-09
-5.3601e-10
8.62502e-08
1.95504e-07
1.07635e-07
1.98247e-07
9.73233e-08
1.98986e-07
6.72592e-08
1.97792e-07
5.46507e-08
1.95157e-07
4.5771e-08
1.91816e-07
3.88885e-08
1.88079e-07
3.39785e-08
1.84121e-07
3.01472e-08
1.80091e-07
2.69138e-08
1.76099e-07
2.41517e-08
1.72213e-07
2.17935e-08
1.68471e-07
1.97688e-08
1.64894e-07
1.80164e-08
1.6149e-07
1.64896e-08
1.58259e-07
1.5152e-08
1.55199e-07
1.39742e-08
1.52301e-07
1.29323e-08
1.49557e-07
1.20064e-08
1.46959e-07
1.11802e-08
1.44498e-07
1.04399e-08
1.42163e-07
9.77398e-09
1.39947e-07
9.17288e-09
1.37842e-07
8.62841e-09
1.3584e-07
8.13367e-09
1.33933e-07
7.68276e-09
1.32116e-07
7.27061e-09
1.30382e-07
6.89284e-09
1.28726e-07
6.54561e-09
1.27142e-07
6.22558e-09
1.25626e-07
5.92975e-09
1.24173e-07
5.65543e-09
1.2278e-07
5.40025e-09
1.21443e-07
5.16183e-09
1.20159e-07
4.93839e-09
1.18924e-07
4.72729e-09
1.17738e-07
4.52781e-09
1.16597e-07
4.33572e-09
1.15499e-07
4.15313e-09
1.14444e-07
3.97078e-09
1.13431e-07
3.79848e-09
1.12459e-07
3.61375e-09
1.11527e-07
3.44593e-09
1.1064e-07
3.24169e-09
1.09794e-07
3.07255e-09
1.08995e-07
2.82953e-09
1.08248e-07
2.63669e-09
1.07545e-07
2.38482e-09
1.06916e-07
1.96876e-09
1.06358e-07
2.13321e-09
4.17356e-10
1.05405e-07
2.00819e-07
1.00401e-07
2.03772e-07
9.43708e-08
2.05346e-07
6.56855e-08
2.05647e-07
5.43493e-08
2.04816e-07
4.66015e-08
2.03336e-07
4.03689e-08
2.01386e-07
3.59289e-08
1.9905e-07
3.2483e-08
1.96435e-07
2.95285e-08
1.93644e-07
2.69429e-08
1.90757e-07
2.46811e-08
1.87833e-07
2.26926e-08
1.84917e-07
2.09322e-08
1.82041e-07
1.93656e-08
1.79227e-07
1.79659e-08
1.7649e-07
1.67115e-08
1.73838e-07
1.55839e-08
1.71277e-07
1.45672e-08
1.68809e-07
1.36481e-08
1.66435e-07
1.28147e-08
1.64151e-07
1.20571e-08
1.61958e-07
1.13666e-08
1.59851e-07
1.07355e-08
1.57827e-07
1.01575e-08
1.55883e-07
9.62689e-09
1.54015e-07
9.13861e-09
1.52219e-07
8.68833e-09
1.50493e-07
8.27217e-09
1.48831e-07
7.88666e-09
1.47233e-07
7.52866e-09
1.45693e-07
7.19531e-09
1.44209e-07
6.88404e-09
1.42778e-07
6.59224e-09
1.41399e-07
6.31793e-09
1.40068e-07
6.05818e-09
1.38784e-07
5.81211e-09
1.37544e-07
5.57502e-09
1.36349e-07
5.34901e-09
1.35195e-07
5.12396e-09
1.34084e-07
4.91015e-09
1.33014e-07
4.6834e-09
1.31986e-07
4.47414e-09
1.31001e-07
4.22683e-09
1.3006e-07
4.01279e-09
1.29164e-07
3.72571e-09
1.28325e-07
3.47557e-09
1.27528e-07
3.1821e-09
1.26799e-07
2.69796e-09
1.26155e-07
2.77706e-09
1.40343e-09
1.25169e-07
2.06423e-07
9.351e-08
2.09332e-07
9.1462e-08
2.11057e-07
6.39603e-08
2.11938e-07
5.34684e-08
2.12001e-07
4.65382e-08
2.11616e-07
4.07542e-08
2.10885e-07
3.66598e-08
2.0981e-07
3.35572e-08
2.08431e-07
3.09077e-08
2.06805e-07
2.85692e-08
2.04987e-07
2.64991e-08
2.03026e-07
2.46536e-08
2.00964e-07
2.29941e-08
1.98837e-07
2.14925e-08
1.96674e-07
2.01288e-08
1.94499e-07
1.88869e-08
1.92329e-07
1.77535e-08
1.9018e-07
1.6717e-08
1.8806e-07
1.57672e-08
1.8598e-07
1.48954e-08
1.83943e-07
1.40937e-08
1.81955e-07
1.3355e-08
1.80017e-07
1.26734e-08
1.78131e-07
1.20433e-08
1.76298e-07
1.14599e-08
1.74518e-07
1.09189e-08
1.7279e-07
1.04164e-08
1.71113e-07
9.94882e-09
1.69487e-07
9.51302e-09
1.67909e-07
9.10602e-09
1.6638e-07
8.72506e-09
1.64896e-07
8.36758e-09
1.63457e-07
8.03101e-09
1.62062e-07
7.71328e-09
1.60709e-07
7.41136e-09
1.59397e-07
7.12429e-09
1.58125e-07
6.84711e-09
1.56892e-07
6.58186e-09
1.55698e-07
6.31796e-09
1.54542e-07
6.0656e-09
1.53426e-07
5.80012e-09
1.52349e-07
5.55115e-09
1.51311e-07
5.26432e-09
1.50318e-07
5.00551e-09
1.49365e-07
4.6788e-09
1.4847e-07
4.37086e-09
1.47614e-07
4.03786e-09
1.46816e-07
3.49659e-09
1.46113e-07
3.4795e-09
2.38223e-09
1.45134e-07
2.12269e-07
8.69034e-08
2.1514e-07
8.85906e-08
2.16812e-07
6.2289e-08
2.17852e-07
5.24279e-08
2.18261e-07
4.61296e-08
2.18378e-07
4.06372e-08
2.18301e-07
3.67364e-08
2.17999e-07
3.38593e-08
2.17465e-07
3.14419e-08
2.16717e-07
2.9317e-08
2.15779e-07
2.7437e-08
2.14676e-07
2.5757e-08
2.13432e-07
2.42374e-08
2.12074e-07
2.28509e-08
2.10624e-07
2.15787e-08
2.09104e-07
2.04074e-08
2.07531e-07
1.93261e-08
2.05922e-07
1.83257e-08
2.04291e-07
1.73985e-08
2.02648e-07
1.65379e-08
2.01004e-07
1.5738e-08
1.99366e-07
1.49935e-08
1.97739e-07
1.42996e-08
1.9613e-07
1.36523e-08
1.94542e-07
1.30477e-08
1.92979e-07
1.24824e-08
1.91442e-07
1.19532e-08
1.89934e-07
1.14572e-08
1.88455e-07
1.09918e-08
1.87007e-07
1.05543e-08
1.85589e-07
1.01423e-08
1.84203e-07
9.75362e-09
1.82849e-07
9.3857e-09
1.81525e-07
9.03664e-09
1.80233e-07
8.70346e-09
1.78972e-07
8.3852e-09
1.77743e-07
8.07684e-09
1.76544e-07
7.78033e-09
1.75377e-07
7.485e-09
1.74242e-07
7.20055e-09
1.73139e-07
6.90283e-09
1.72071e-07
6.61921e-09
1.71037e-07
6.29902e-09
1.70043e-07
5.99922e-09
1.69083e-07
5.63891e-09
1.68176e-07
5.2775e-09
1.67307e-07
4.90753e-09
1.6648e-07
4.3227e-09
1.65756e-07
4.20442e-09
3.31435e-09
1.64823e-07
2.18315e-07
8.05694e-08
2.2119e-07
8.57157e-08
2.22784e-07
6.06943e-08
2.23853e-07
5.1359e-08
2.2437e-07
4.56124e-08
2.24665e-07
4.03425e-08
2.24865e-07
3.65364e-08
2.24942e-07
3.37827e-08
2.24874e-07
3.15094e-08
2.24662e-07
2.95287e-08
2.24311e-07
2.77887e-08
2.23825e-07
2.62429e-08
2.23213e-07
2.48489e-08
2.22487e-07
2.35769e-08
2.21659e-07
2.2407e-08
2.20741e-07
2.13252e-08
2.19747e-07
2.03207e-08
2.18687e-07
1.93851e-08
2.17574e-07
1.85116e-08
2.16418e-07
1.76944e-08
2.15227e-07
1.69286e-08
2.14011e-07
1.62099e-08
2.12775e-07
1.55348e-08
2.11528e-07
1.48997e-08
2.10274e-07
1.43019e-08
2.09018e-07
1.37386e-08
2.07763e-07
1.32074e-08
2.06515e-07
1.2706e-08
2.05274e-07
1.22323e-08
2.04044e-07
1.17842e-08
2.02827e-07
1.13596e-08
2.01624e-07
1.09566e-08
2.00437e-07
1.0573e-08
1.99266e-07
1.0207e-08
1.98114e-07
9.85596e-09
1.9698e-07
9.51887e-09
1.95866e-07
9.19081e-09
1.94773e-07
8.8736e-09
1.93701e-07
8.5568e-09
1.92652e-07
8.24931e-09
1.91627e-07
7.92824e-09
1.90628e-07
7.61772e-09
1.89655e-07
7.27247e-09
1.88716e-07
6.93854e-09
1.87802e-07
6.5521e-09
1.86934e-07
6.14551e-09
1.861e-07
5.7424e-09
1.85294e-07
5.12835e-09
1.84588e-07
4.91012e-09
4.16196e-09
1.83741e-07
2.24548e-07
7.45143e-08
2.27449e-07
8.28145e-08
2.2898e-07
5.91636e-08
2.30056e-07
5.02829e-08
2.30614e-07
4.50548e-08
2.30957e-07
3.99994e-08
2.31247e-07
3.62468e-08
2.31472e-07
3.35578e-08
2.31613e-07
3.13678e-08
2.3167e-07
2.94723e-08
2.3164e-07
2.78184e-08
2.31522e-07
2.63607e-08
2.31315e-07
2.50556e-08
2.31021e-07
2.3871e-08
2.30643e-07
2.27851e-08
2.30186e-07
2.17826e-08
2.29655e-07
2.08518e-08
2.29056e-07
1.99838e-08
2.28396e-07
1.91712e-08
2.27682e-07
1.84083e-08
2.26921e-07
1.76905e-08
2.26117e-07
1.70135e-08
2.25278e-07
1.63741e-08
2.24408e-07
1.57694e-08
2.23513e-07
1.51967e-08
2.22598e-07
1.46539e-08
2.21666e-07
1.4139e-08
2.20722e-07
1.365e-08
2.19769e-07
1.31854e-08
2.1881e-07
1.27432e-08
2.17848e-07
1.2322e-08
2.16885e-07
1.19199e-08
2.15922e-07
1.15351e-08
2.14963e-07
1.11662e-08
2.14009e-07
1.08103e-08
2.13061e-07
1.04668e-08
2.12121e-07
1.01308e-08
2.11191e-07
9.80403e-09
2.10271e-07
9.47646e-09
2.09364e-07
9.15594e-09
2.08471e-07
8.82138e-09
2.07596e-07
8.49305e-09
2.06736e-07
8.13199e-09
2.05902e-07
7.7727e-09
2.05086e-07
7.36832e-09
2.04304e-07
6.92726e-09
2.03551e-07
6.49615e-09
2.02812e-07
5.86636e-09
2.02168e-07
5.55501e-09
4.89222e-09
2.01437e-07
2.30974e-07
6.87459e-08
2.3391e-07
7.98784e-08
2.35384e-07
5.76899e-08
2.36468e-07
4.91985e-08
2.37059e-07
4.44643e-08
2.37417e-07
3.96413e-08
2.37729e-07
3.59353e-08
2.37999e-07
3.32868e-08
2.38217e-07
3.11506e-08
2.38383e-07
2.93064e-08
2.38499e-07
2.77019e-08
2.38564e-07
2.62958e-08
2.38575e-07
2.5045e-08
2.38529e-07
2.39166e-08
2.38426e-07
2.28879e-08
2.38266e-07
2.19425e-08
2.3805e-07
2.10679e-08
2.3778e-07
2.02543e-08
2.37457e-07
1.94938e-08
2.37085e-07
1.87804e-08
2.36667e-07
1.81087e-08
2.36206e-07
1.74745e-08
2.35705e-07
1.68744e-08
2.35169e-07
1.63054e-08
2.34601e-07
1.5765e-08
2.34004e-07
1.52509e-08
2.33382e-07
1.47614e-08
2.32737e-07
1.42947e-08
2.32073e-07
1.38493e-08
2.31393e-07
1.34237e-08
2.30698e-07
1.30164e-08
2.29992e-07
1.26259e-08
2.29277e-07
1.22505e-08
2.28554e-07
1.18889e-08
2.27826e-07
1.15385e-08
2.27094e-07
1.11986e-08
2.2636e-07
1.08646e-08
2.25626e-07
1.05378e-08
2.24894e-07
1.02089e-08
2.24166e-07
9.88443e-09
2.23441e-07
9.54546e-09
2.22726e-07
9.20806e-09
2.22018e-07
8.83994e-09
2.21327e-07
8.46435e-09
2.20645e-07
8.04984e-09
2.19987e-07
7.58569e-09
2.19351e-07
7.13238e-09
2.18719e-07
6.4981e-09
2.1817e-07
6.10436e-09
5.48167e-09
2.1758e-07
2.37601e-07
6.32701e-08
2.40576e-07
7.69031e-08
2.41993e-07
5.62733e-08
2.43084e-07
4.81069e-08
2.43711e-07
4.38371e-08
2.44082e-07
3.92703e-08
2.44399e-07
3.56185e-08
2.44683e-07
3.30033e-08
2.44923e-07
3.09105e-08
2.45125e-07
2.91038e-08
2.45296e-07
2.7531e-08
2.45437e-07
2.61556e-08
2.45545e-07
2.49367e-08
2.4562e-07
2.38417e-08
2.4566e-07
2.28478e-08
2.45664e-07
2.19384e-08
2.45631e-07
2.11007e-08
2.45561e-07
2.03245e-08
2.45453e-07
1.96014e-08
2.45309e-07
1.89249e-08
2.45128e-07
1.82893e-08
2.44913e-07
1.76903e-08
2.44663e-07
1.71238e-08
2.44382e-07
1.65869e-08
2.4407e-07
1.60766e-08
2.4373e-07
1.55909e-08
2.43364e-07
1.51277e-08
2.42973e-07
1.46852e-08
2.4256e-07
1.42621e-08
2.42127e-07
1.38568e-08
2.41676e-07
1.34678e-08
2.41208e-07
1.30939e-08
2.40725e-07
1.27333e-08
2.40229e-07
1.23848e-08
2.39722e-07
1.20458e-08
2.39205e-07
1.17158e-08
2.38679e-07
1.139e-08
2.38147e-07
1.10697e-08
2.3761e-07
1.0746e-08
2.3707e-07
1.04242e-08
2.36528e-07
1.00877e-08
2.35988e-07
9.74814e-09
2.35448e-07
9.37983e-09
2.34917e-07
8.99585e-09
2.34389e-07
8.57752e-09
2.33874e-07
8.10051e-09
2.33376e-07
7.63057e-09
2.32874e-07
6.99984e-09
2.32442e-07
6.53628e-09
5.92001e-09
2.32004e-07
2.44436e-07
5.80905e-08
2.4745e-07
7.38892e-08
2.48811e-07
5.49121e-08
2.49905e-07
4.70125e-08
2.50571e-07
4.31715e-08
2.50958e-07
3.88827e-08
2.5128e-07
3.52971e-08
2.51569e-07
3.27143e-08
2.51816e-07
3.06629e-08
2.5203e-07
2.88905e-08
2.52218e-07
2.7343e-08
2.52384e-07
2.59894e-08
2.52529e-07
2.47915e-08
2.52653e-07
2.37175e-08
2.52756e-07
2.27449e-08
2.52837e-07
2.18575e-08
2.52896e-07
2.10424e-08
2.5293e-07
2.02895e-08
2.52941e-07
1.95905e-08
2.52928e-07
1.89384e-08
2.5289e-07
1.83276e-08
2.52827e-07
1.77533e-08
2.52739e-07
1.72115e-08
2.52627e-07
1.66988e-08
2.52491e-07
1.62122e-08
2.52333e-07
1.57494e-08
2.52152e-07
1.53082e-08
2.51951e-07
1.48869e-08
2.51729e-07
1.44837e-08
2.51489e-07
1.40972e-08
2.5123e-07
1.3726e-08
2.50956e-07
1.33687e-08
2.50665e-07
1.30236e-08
2.50361e-07
1.26894e-08
2.50043e-07
1.23636e-08
2.49713e-07
1.20455e-08
2.49373e-07
1.17306e-08
2.49023e-07
1.14196e-08
2.48664e-07
1.11045e-08
2.48299e-07
1.0789e-08
2.47928e-07
1.04587e-08
2.47555e-07
1.01214e-08
2.47178e-07
9.75718e-09
2.46803e-07
9.37052e-09
2.46428e-07
8.95249e-09
2.46058e-07
8.4705e-09
2.457e-07
7.98849e-09
2.45334e-07
7.36571e-09
2.45026e-07
6.84477e-09
6.21168e-09
2.44734e-07
2.51488e-07
5.32091e-08
2.5453e-07
7.08471e-08
2.55847e-07
5.35952e-08
2.56939e-07
4.59208e-08
2.57642e-07
4.24682e-08
2.58049e-07
3.84759e-08
2.58376e-07
3.49699e-08
2.5867e-07
3.24201e-08
2.58923e-07
3.04102e-08
2.59141e-07
2.86728e-08
2.59334e-07
2.71498e-08
2.59508e-07
2.58154e-08
2.59665e-07
2.46345e-08
2.59806e-07
2.35763e-08
2.59932e-07
2.26187e-08
2.60044e-07
2.17458e-08
2.60141e-07
2.09453e-08
2.60223e-07
2.02072e-08
2.6029e-07
1.95233e-08
2.60342e-07
1.88867e-08
2.60378e-07
1.82918e-08
2.60398e-07
1.77337e-08
2.60401e-07
1.72082e-08
2.60388e-07
1.6712e-08
2.60358e-07
1.62419e-08
2.60312e-07
1.57954e-08
2.6025e-07
1.53703e-08
2.60172e-07
1.49647e-08
2.60079e-07
1.45768e-08
2.59971e-07
1.42052e-08
2.59849e-07
1.38483e-08
2.59713e-07
1.35047e-08
2.59564e-07
1.31727e-08
2.59402e-07
1.2851e-08
2.59229e-07
1.25371e-08
2.59044e-07
1.22301e-08
2.58849e-07
1.19256e-08
2.58645e-07
1.16241e-08
2.58431e-07
1.13179e-08
2.58211e-07
1.10095e-08
2.57983e-07
1.06866e-08
2.57751e-07
1.03534e-08
2.57513e-07
9.99487e-09
2.57275e-07
9.60882e-09
2.57034e-07
9.19299e-09
2.56794e-07
8.71103e-09
2.56562e-07
8.22006e-09
2.56322e-07
7.60632e-09
2.56127e-07
7.03889e-09
6.3744e-09
2.55965e-07
2.58766e-07
4.86263e-08
2.61826e-07
6.77872e-08
2.63109e-07
5.23117e-08
2.64193e-07
4.48366e-08
2.64932e-07
4.17296e-08
2.6536e-07
3.80478e-08
2.65694e-07
3.4636e-08
2.65994e-07
3.21201e-08
2.66252e-07
3.0152e-08
2.66473e-07
2.84513e-08
2.66669e-07
2.69539e-08
2.66846e-07
2.56386e-08
2.67007e-07
2.44739e-08
2.67153e-07
2.34299e-08
2.67287e-07
2.2485e-08
2.67409e-07
2.16238e-08
2.6752e-07
2.08343e-08
2.6762e-07
2.01069e-08
2.6771e-07
1.94334e-08
2.6779e-07
1.88072e-08
2.67859e-07
1.82227e-08
2.67917e-07
1.76752e-08
2.67965e-07
1.71604e-08
2.68002e-07
1.6675e-08
2.68028e-07
1.62158e-08
2.68043e-07
1.57802e-08
2.68048e-07
1.53659e-08
2.68042e-07
1.4971e-08
2.68025e-07
1.45937e-08
2.67997e-07
1.42325e-08
2.6796e-07
1.38858e-08
2.67912e-07
1.35522e-08
2.67855e-07
1.32299e-08
2.67789e-07
1.29176e-08
2.67713e-07
1.26128e-08
2.67628e-07
1.23144e-08
2.67536e-07
1.20184e-08
2.67435e-07
1.17245e-08
2.67327e-07
1.14259e-08
2.67213e-07
1.11237e-08
2.67092e-07
1.08075e-08
2.66967e-07
1.04783e-08
2.66837e-07
1.01251e-08
2.66705e-07
9.74102e-09
2.6657e-07
9.32749e-09
2.66433e-07
8.84803e-09
2.66304e-07
8.34987e-09
2.66166e-07
7.74374e-09
2.66066e-07
7.13859e-09
6.43478e-09
2.66006e-07
2.66278e-07
4.43407e-08
2.69345e-07
6.47201e-08
2.70606e-07
5.10509e-08
2.71678e-07
4.37645e-08
2.72449e-07
4.09586e-08
2.729e-07
3.75969e-08
2.73241e-07
3.42946e-08
2.73547e-07
3.18145e-08
2.73811e-07
2.98881e-08
2.74036e-07
2.82257e-08
2.74235e-07
2.67552e-08
2.74414e-07
2.54597e-08
2.74576e-07
2.43114e-08
2.74725e-07
2.32816e-08
2.74861e-07
2.23491e-08
2.74986e-07
2.14987e-08
2.75101e-07
2.07191e-08
2.75207e-07
2.00007e-08
2.75305e-07
1.93357e-08
2.75394e-07
1.87176e-08
2.75476e-07
1.8141e-08
2.7555e-07
1.76011e-08
2.75617e-07
1.7094e-08
2.75676e-07
1.6616e-08
2.75727e-07
1.61642e-08
2.75772e-07
1.57359e-08
2.75809e-07
1.53289e-08
2.75838e-07
1.49412e-08
2.75861e-07
1.45709e-08
2.75877e-07
1.42166e-08
2.75886e-07
1.38767e-08
2.75889e-07
1.35497e-08
2.75885e-07
1.3234e-08
2.75874e-07
1.29281e-08
2.75858e-07
1.26296e-08
2.75835e-07
1.23372e-08
2.75806e-07
1.20472e-08
2.75772e-07
1.17587e-08
2.75732e-07
1.14656e-08
2.75688e-07
1.11678e-08
2.75639e-07
1.08566e-08
2.75587e-07
1.05305e-08
2.7553e-07
1.01814e-08
2.75472e-07
9.79922e-09
2.75413e-07
9.38715e-09
2.7535e-07
8.91077e-09
2.75293e-07
8.40628e-09
2.75232e-07
7.80488e-09
2.75202e-07
7.16878e-09
6.42272e-09
2.75214e-07
2.74033e-07
4.03493e-08
2.77096e-07
6.16568e-08
2.78344e-07
4.98027e-08
2.79401e-07
4.27079e-08
2.802e-07
4.01592e-08
2.80676e-07
3.71215e-08
2.81025e-07
3.39449e-08
2.81337e-07
3.15031e-08
2.81607e-07
2.9618e-08
2.81837e-07
2.79955e-08
2.82039e-07
2.65535e-08
2.8222e-07
2.52787e-08
2.82384e-07
2.41473e-08
2.82533e-07
2.3132e-08
2.8267e-07
2.2212e-08
2.82797e-07
2.13726e-08
2.82913e-07
2.06026e-08
2.83021e-07
1.98929e-08
2.83121e-07
1.92358e-08
2.83213e-07
1.86251e-08
2.83299e-07
1.80553e-08
2.83378e-07
1.75219e-08
2.83451e-07
1.7021e-08
2.83518e-07
1.65489e-08
2.83579e-07
1.61028e-08
2.83635e-07
1.568e-08
2.83686e-07
1.52782e-08
2.83732e-07
1.48955e-08
2.83773e-07
1.45301e-08
2.83809e-07
1.41805e-08
2.8384e-07
1.38451e-08
2.83867e-07
1.35225e-08
2.8389e-07
1.32111e-08
2.83909e-07
1.29093e-08
2.83924e-07
1.26149e-08
2.83935e-07
1.23264e-08
2.83941e-07
1.20403e-08
2.83945e-07
1.17552e-08
2.83945e-07
1.14659e-08
2.83942e-07
1.11708e-08
2.83935e-07
1.08629e-08
2.83927e-07
1.05387e-08
2.83916e-07
1.01922e-08
2.83904e-07
9.8114e-09
2.83892e-07
9.39967e-09
2.83876e-07
8.92595e-09
2.83867e-07
8.41557e-09
2.83856e-07
7.81568e-09
2.83871e-07
7.15384e-09
6.36629e-09
2.83928e-07
2.82039e-07
3.66474e-08
2.85088e-07
5.86083e-08
2.86333e-07
4.85573e-08
2.87371e-07
4.16697e-08
2.88195e-07
3.93356e-08
2.88696e-07
3.66203e-08
2.89055e-07
3.35856e-08
2.89372e-07
3.11862e-08
2.89649e-07
2.93419e-08
2.89884e-07
2.77603e-08
2.90089e-07
2.63485e-08
2.90272e-07
2.50952e-08
2.90438e-07
2.39814e-08
2.90589e-07
2.29811e-08
2.90727e-07
2.2074e-08
2.90854e-07
2.12458e-08
2.90971e-07
2.04857e-08
2.91079e-07
1.97847e-08
2.91179e-07
1.91355e-08
2.91272e-07
1.8532e-08
2.91359e-07
1.79688e-08
2.91439e-07
1.74416e-08
2.91514e-07
1.69463e-08
2.91583e-07
1.64797e-08
2.91647e-07
1.60385e-08
2.91707e-07
1.56204e-08
2.91762e-07
1.52229e-08
2.91813e-07
1.48442e-08
2.91861e-07
1.44826e-08
2.91905e-07
1.41364e-08
2.91946e-07
1.38043e-08
2.91983e-07
1.34849e-08
2.92018e-07
1.31764e-08
2.9205e-07
1.28775e-08
2.92079e-07
1.25858e-08
2.92106e-07
1.22998e-08
2.9213e-07
1.20162e-08
2.92152e-07
1.17332e-08
2.92172e-07
1.14461e-08
2.9219e-07
1.11526e-08
2.92206e-07
1.08468e-08
2.92221e-07
1.05236e-08
2.92235e-07
1.01783e-08
2.92248e-07
9.79843e-09
2.92261e-07
9.38619e-09
2.92273e-07
8.91436e-09
2.9229e-07
8.39851e-09
2.92308e-07
7.79732e-09
2.92348e-07
7.11402e-09
6.28844e-09
2.92426e-07
2.90308e-07
3.32285e-08
2.9333e-07
5.55857e-08
2.94582e-07
4.7306e-08
2.95599e-07
4.0652e-08
2.96442e-07
3.8493e-08
2.9697e-07
3.60925e-08
2.9734e-07
3.32155e-08
2.97662e-07
3.08638e-08
2.97945e-07
2.90595e-08
2.98185e-07
2.75199e-08
2.98394e-07
2.61399e-08
2.9858e-07
2.49093e-08
2.98748e-07
2.38135e-08
2.989e-07
2.28287e-08
2.99039e-07
2.1935e-08
2.99167e-07
2.11183e-08
2.99284e-07
2.03682e-08
2.99392e-07
1.96762e-08
2.99493e-07
1.90351e-08
2.99586e-07
1.84389e-08
2.99672e-07
1.78824e-08
2.99753e-07
1.73613e-08
2.99827e-07
1.68718e-08
2.99897e-07
1.64103e-08
2.99961e-07
1.59739e-08
3.00021e-07
1.55602e-08
3.00078e-07
1.51667e-08
3.0013e-07
1.47917e-08
3.00179e-07
1.44333e-08
3.00226e-07
1.40902e-08
3.00269e-07
1.37608e-08
3.0031e-07
1.34438e-08
3.00349e-07
1.31377e-08
3.00386e-07
1.28408e-08
3.0042e-07
1.25511e-08
3.00453e-07
1.2267e-08
3.00484e-07
1.19851e-08
3.00514e-07
1.17035e-08
3.00542e-07
1.14179e-08
3.00569e-07
1.11254e-08
3.00595e-07
1.08207e-08
3.00621e-07
1.0498e-08
3.00646e-07
1.01533e-08
3.0067e-07
9.77397e-09
3.00696e-07
9.36078e-09
3.0072e-07
8.89016e-09
3.00749e-07
8.36948e-09
3.00781e-07
7.76506e-09
3.00831e-07
7.0641e-09
6.20581e-09
3.00914e-07
2.98847e-07
3.00844e-08
3.01832e-07
5.26002e-08
3.03097e-07
4.6041e-08
3.04093e-07
3.96562e-08
3.0495e-07
3.76364e-08
3.05505e-07
3.55372e-08
3.05887e-07
3.28331e-08
3.06215e-07
3.05358e-08
3.06504e-07
2.87709e-08
3.0675e-07
2.72739e-08
3.06962e-07
2.59274e-08
3.07151e-07
2.47205e-08
3.07321e-07
2.36434e-08
3.07475e-07
2.26746e-08
3.07615e-07
2.17947e-08
3.07744e-07
2.09899e-08
3.07862e-07
2.02503e-08
3.07971e-07
1.95675e-08
3.08071e-07
1.89347e-08
3.08164e-07
1.83459e-08
3.0825e-07
1.77963e-08
3.0833e-07
1.72815e-08
3.08404e-07
1.67976e-08
3.08473e-07
1.63414e-08
3.08537e-07
1.59099e-08
3.08597e-07
1.55004e-08
3.08653e-07
1.51109e-08
3.08705e-07
1.47394e-08
3.08754e-07
1.43842e-08
3.088e-07
1.40439e-08
3.08844e-07
1.37171e-08
3.08885e-07
1.34024e-08
3.08925e-07
1.30983e-08
3.08962e-07
1.28033e-08
3.08998e-07
1.25153e-08
3.09032e-07
1.22326e-08
3.09065e-07
1.19522e-08
3.09097e-07
1.16717e-08
3.09128e-07
1.13873e-08
3.09158e-07
1.10954e-08
3.09187e-07
1.07915e-08
3.09216e-07
1.04692e-08
3.09244e-07
1.01247e-08
3.09273e-07
9.74588e-09
3.09302e-07
9.33177e-09
3.0933e-07
8.86193e-09
3.09362e-07
8.3373e-09
3.09398e-07
7.72875e-09
3.09449e-07
7.01377e-09
6.12937e-09
3.09525e-07
3.07666e-07
2.72054e-08
3.10603e-07
4.96631e-08
3.11889e-07
4.47554e-08
3.12863e-07
3.86825e-08
3.13728e-07
3.67713e-08
3.1431e-07
3.49548e-08
3.14706e-07
3.2437e-08
3.1504e-07
3.0202e-08
3.15335e-07
2.84762e-08
3.15587e-07
2.7022e-08
3.15804e-07
2.57106e-08
3.15995e-07
2.45287e-08
3.16168e-07
2.3471e-08
3.16324e-07
2.25187e-08
3.16465e-07
2.1653e-08
3.16595e-07
2.08605e-08
3.16714e-07
2.01316e-08
3.16823e-07
1.94583e-08
3.16923e-07
1.8834e-08
3.17016e-07
1.8253e-08
3.17102e-07
1.77104e-08
3.17182e-07
1.72019e-08
3.17255e-07
1.67239e-08
3.17324e-07
1.62731e-08
3.17387e-07
1.58464e-08
3.17446e-07
1.54415e-08
3.17501e-07
1.50559e-08
3.17553e-07
1.4688e-08
3.17601e-07
1.4336e-08
3.17646e-07
1.39985e-08
3.17689e-07
1.36742e-08
3.1773e-07
1.33617e-08
3.17769e-07
1.30596e-08
3.17805e-07
1.27664e-08
3.17841e-07
1.24801e-08
3.17875e-07
1.21988e-08
3.17907e-07
1.19196e-08
3.17939e-07
1.16402e-08
3.17969e-07
1.13568e-08
3.17999e-07
1.10656e-08
3.18028e-07
1.07624e-08
3.18056e-07
1.04407e-08
3.18085e-07
1.00964e-08
3.18112e-07
9.71825e-09
3.1814e-07
9.30355e-09
3.18168e-07
8.83438e-09
3.18198e-07
8.30689e-09
3.18233e-07
7.69429e-09
3.18278e-07
6.96893e-09
6.06573e-09
3.18341e-07
3.16776e-07
2.45801e-08
3.19654e-07
4.67854e-08
3.20966e-07
4.34435e-08
3.21918e-07
3.77308e-08
3.22786e-07
3.59025e-08
3.23395e-07
3.43459e-08
3.23807e-07
3.20256e-08
3.24147e-07
2.98621e-08
3.24447e-07
2.81755e-08
3.24705e-07
2.6764e-08
3.24927e-07
2.54891e-08
3.25122e-07
2.43336e-08
3.25297e-07
2.32961e-08
3.25455e-07
2.23607e-08
3.25598e-07
2.15097e-08
3.25729e-07
2.073e-08
3.25848e-07
2.00121e-08
3.25958e-07
1.93486e-08
3.26059e-07
1.87331e-08
3.26152e-07
1.816e-08
3.26238e-07
1.76245e-08
3.26317e-07
1.71227e-08
3.2639e-07
1.66507e-08
3.26458e-07
1.62053e-08
3.26521e-07
1.57837e-08
3.26579e-07
1.53832e-08
3.26633e-07
1.50018e-08
3.26684e-07
1.46374e-08
3.26731e-07
1.42886e-08
3.26775e-07
1.3954e-08
3.26817e-07
1.36322e-08
3.26857e-07
1.33221e-08
3.26895e-07
1.3022e-08
3.2693e-07
1.27306e-08
3.26965e-07
1.2446e-08
3.26997e-07
1.21661e-08
3.27028e-07
1.18884e-08
3.27059e-07
1.16101e-08
3.27088e-07
1.13278e-08
3.27116e-07
1.10374e-08
3.27143e-07
1.0735e-08
3.2717e-07
1.0414e-08
3.27196e-07
1.00702e-08
3.27221e-07
9.69299e-09
3.27247e-07
9.27828e-09
3.27271e-07
8.80995e-09
3.27297e-07
8.28085e-09
3.27326e-07
7.66507e-09
3.27362e-07
6.93305e-09
6.01863e-09
3.27409e-07
3.26187e-07
2.21961e-08
3.28994e-07
4.3978e-08
3.30336e-07
4.21013e-08
3.31267e-07
3.67997e-08
3.32135e-07
3.5035e-08
3.32769e-07
3.3712e-08
3.33197e-07
3.15975e-08
3.33543e-07
2.95155e-08
3.3385e-07
2.78688e-08
3.34115e-07
2.64997e-08
3.34341e-07
2.52627e-08
3.3454e-07
2.41349e-08
3.34717e-07
2.31183e-08
3.34878e-07
2.22005e-08
3.35023e-07
2.13647e-08
3.35155e-07
2.0598e-08
3.35275e-07
1.98916e-08
3.35385e-07
1.92382e-08
3.35487e-07
1.86317e-08
3.3558e-07
1.80667e-08
3.35666e-07
1.75387e-08
3.35745e-07
1.70436e-08
3.35818e-07
1.65778e-08
3.35885e-07
1.6138e-08
3.35947e-07
1.57215e-08
3.36005e-07
1.53257e-08
3.36058e-07
1.49484e-08
3.36108e-07
1.45877e-08
3.36154e-07
1.42422e-08
3.36198e-07
1.39106e-08
3.36239e-07
1.35914e-08
3.36277e-07