/*--------------------------------*- C++ -*----------------------------------*\
  =========                 |
  \\      /  F ield         | OpenFOAM: The Open Source CFD Toolbox
   \\    /   O peration     | Website:  https://openfoam.org
    \\  /    A nd           | Version:  7
     \\/     M anipulation  |
\*---------------------------------------------------------------------------*/
FoamFile
{
    version     2.0;
    format      ascii;
    class       volVectorField;
    location    "0.34";
    object      U;
}
// * * * * * * * * * * * * * * * * * * * * * * * * * * * * * * * * * * * * * //

dimensions      [0 1 -1 0 0 0 0];

internalField   nonuniform List<vector> 
70000
(
(0.553413 0.0169782 0)
(0.251414 0.00340051 0)
(0.165918 0.000319079 0)
(0.132429 4.91206e-05 0)
(0.117316 4.41716e-05 0)
(0.107348 5.2341e-05 0)
(0.0993657 4.4545e-05 0)
(0.0929095 3.54745e-05 0)
(0.0876514 2.94441e-05 0)
(0.083267 2.53139e-05 0)
(0.0795281 2.21595e-05 0)
(0.0762875 1.96326e-05 0)
(0.0734438 1.75733e-05 0)
(0.0709232 1.58724e-05 0)
(0.0686695 1.44495e-05 0)
(0.0666393 1.32449e-05 0)
(0.0647984 1.22144e-05 0)
(0.0631194 1.13248e-05 0)
(0.0615803 1.05504e-05 0)
(0.0601629 9.87126e-06 0)
(0.0588522 9.2715e-06 0)
(0.0576355 8.7384e-06 0)
(0.0565025 8.26152e-06 0)
(0.0554439 7.83241e-06 0)
(0.0544523 7.4438e-06 0)
(0.053521 7.08994e-06 0)
(0.0526442 6.76522e-06 0)
(0.0518171 6.46588e-06 0)
(0.0510354 6.18666e-06 0)
(0.0502954 5.92582e-06 0)
(0.0495939 5.67661e-06 0)
(0.0489281 5.44064e-06 0)
(0.0482958 5.20664e-06 0)
(0.0476948 4.98237e-06 0)
(0.0471238 4.74818e-06 0)
(0.0465814 4.52004e-06 0)
(0.0460667 4.27143e-06 0)
(0.04558 4.01339e-06 0)
(0.045119 3.75057e-06 0)
(0.0446893 3.3977e-06 0)
(0.0442807 3.18856e-06 0)
(0.0439167 2.53959e-06 0)
(0.0435562 2.71033e-06 0)
(0.043283 1.09126e-06 0)
(0.042949 2.88995e-06 0)
(0.042834 -2.05115e-06 0)
(0.0424367 6.10927e-06 0)
(0.0426594 -1.0651e-05 0)
(0.0420103 3.18539e-05 0)
(0.0398425 -0.00166777 0)
(0.884863 0.0434934 0)
(0.650144 0.0201494 0)
(0.493965 0.00660549 0)
(0.403529 0.00275587 0)
(0.354797 0.00154932 0)
(0.323457 0.0011333 0)
(0.299525 0.000911136 0)
(0.280279 0.000746793 0)
(0.264524 0.00062434 0)
(0.251356 0.000534091 0)
(0.240125 0.000465618 0)
(0.23039 0.000411759 0)
(0.221846 0.000368265 0)
(0.21427 0.000332489 0)
(0.207494 0.000302633 0)
(0.201388 0.000277407 0)
(0.195849 0.000255861 0)
(0.190796 0.000237282 0)
(0.186163 0.000221127 0)
(0.181895 0.000206973 0)
(0.177948 0.000194489 0)
(0.174283 0.00018341 0)
(0.170868 0.000173522 0)
(0.167678 0.000164651 0)
(0.164688 0.000156654 0)
(0.16188 0.00014941 0)
(0.159234 0.000142817 0)
(0.156738 0.00013679 0)
(0.154377 0.000131248 0)
(0.15214 0.00012613 0)
(0.150018 0.000121364 0)
(0.148002 0.000116906 0)
(0.146085 0.000112676 0)
(0.144259 0.000108655 0)
(0.142521 0.000104726 0)
(0.140865 0.00010092 0)
(0.139288 9.70321e-05 0)
(0.13779 9.31875e-05 0)
(0.136365 8.903e-05 0)
(0.135025 8.48063e-05 0)
(0.133743 8.0039e-05 0)
(0.132581 7.4862e-05 0)
(0.131428 6.9327e-05 0)
(0.130506 6.19061e-05 0)
(0.129428 5.67074e-05 0)
(0.128919 4.3042e-05 0)
(0.127704 4.74944e-05 0)
(0.128044 -6.78883e-06 0)
(0.126311 0.000233978 0)
(0.124869 -0.00259979 0)
(0.991209 0.0499559 0)
(0.890922 0.0305637 0)
(0.762482 0.0146124 0)
(0.656507 0.0079735 0)
(0.585374 0.00488315 0)
(0.535965 0.00347894 0)
(0.498023 0.00274357 0)
(0.467333 0.00225008 0)
(0.441951 0.00188712 0)
(0.420567 0.00161626 0)
(0.402232 0.00140955 0)
(0.386281 0.00124695 0)
(0.372238 0.00111571 0)
(0.359755 0.00100776 0)
(0.348567 0.000917634 0)
(0.338467 0.000841452 0)
(0.329291 0.000776355 0)
(0.32091 0.000720201 0)
(0.313216 0.000671355 0)
(0.306121 0.000628546 0)
(0.299553 0.000590779 0)
(0.29345 0.000557256 0)
(0.287761 0.000527339 0)
(0.282442 0.000500503 0)
(0.277454 0.000476319 0)
(0.272765 0.000454428 0)
(0.268347 0.000434526 0)
(0.264175 0.000416355 0)
(0.260227 0.000399686 0)
(0.256485 0.000384325 0)
(0.252932 0.00037008 0)
(0.249554 0.000356804 0)
(0.246337 0.000344299 0)
(0.243272 0.000332476 0)
(0.240349 0.000321055 0)
(0.23756 0.000310073 0)
(0.234899 0.000299015 0)
(0.232364 0.000288221 0)
(0.229943 0.000276615 0)
(0.227656 0.000265247 0)
(0.22546 0.000251857 0)
(0.223443 0.000238939 0)
(0.221447 0.00022216 0)
(0.219787 0.000206163 0)
(0.21791 0.000184926 0)
(0.216843 0.000161252 0)
(0.214809 0.000147581 0)
(0.214904 5.01697e-05 0)
(0.2122 0.000363049 0)
(0.21228 -0.00242751 0)
(1.01554 0.0489541 0)
(1.00649 0.0357256 0)
(0.935881 0.0208221 0)
(0.851992 0.0135029 0)
(0.78219 0.0092041 0)
(0.727001 0.00679119 0)
(0.681856 0.00539668 0)
(0.644025 0.00445704 0)
(0.611929 0.00376392 0)
(0.584372 0.00323951 0)
(0.560417 0.00283469 0)
(0.539359 0.0025141 0)
(0.520669 0.00225424 0)
(0.503945 0.00203972 0)
(0.488874 0.00186009 0)
(0.475207 0.00170783 0)
(0.462743 0.00157742 0)
(0.451321 0.00146471 0)
(0.440805 0.00136649 0)
(0.431085 0.00128029 0)
(0.422068 0.00120413 0)
(0.413673 0.00113645 0)
(0.405834 0.001076 0)
(0.398493 0.00102173 0)
(0.391601 0.000972798 0)
(0.385114 0.000928488 0)
(0.378995 0.000888202 0)
(0.37321 0.000851427 0)
(0.367732 0.000817716 0)
(0.362533 0.00078668 0)
(0.357593 0.000757955 0)
(0.352891 0.00073124 0)
(0.34841 0.000706175 0)
(0.344135 0.000682561 0)
(0.340053 0.000659914 0)
(0.336153 0.000638253 0)
(0.332425 0.000616668 0)
(0.328866 0.000595783 0)
(0.32546 0.000573525 0)
(0.322228 0.00055216 0)
(0.31912 0.000526703 0)
(0.316235 0.00050357 0)
(0.31339 0.000471033 0)
(0.310944 0.000444905 0)
(0.30827 0.000400202 0)
(0.306521 0.000367093 0)
(0.303736 0.000321319 0)
(0.303255 0.000193216 0)
(0.299863 0.000482308 0)
(0.300128 -0.00189711 0)
(1.01435 0.0460985 0)
(1.04798 0.0373428 0)
(1.02456 0.0241904 0)
(0.974668 0.0175635 0)
(0.923451 0.0131176 0)
(0.876687 0.0102167 0)
(0.834475 0.00835924 0)
(0.796663 0.00703901 0)
(0.763026 0.0060306 0)
(0.733123 0.00524537 0)
(0.706441 0.0046257 0)
(0.682508 0.00412714 0)
(0.660928 0.00371826 0)
(0.64137 0.00337764 0)
(0.623558 0.00309022 0)
(0.607263 0.00284508 0)
(0.592293 0.00263399 0)
(0.578487 0.00245071 0)
(0.565707 0.00229037 0)
(0.553837 0.00214915 0)
(0.54278 0.00202401 0)
(0.532449 0.00191252 0)
(0.522771 0.0018127 0)
(0.513682 0.00172291 0)
(0.505126 0.00164181 0)
(0.497055 0.00156826 0)
(0.489425 0.00150132 0)
(0.482199 0.00144015 0)
(0.475343 0.00138406 0)
(0.468828 0.0013324 0)
(0.462626 0.00128462 0)
(0.456715 0.00124021 0)
(0.451074 0.00119864 0)
(0.445685 0.00115954 0)
(0.440532 0.00112222 0)
(0.435601 0.00108665 0)
(0.43088 0.00105149 0)
(0.426364 0.00101765 0)
(0.422035 0.000981936 0)
(0.417911 0.000948001 0)
(0.413942 0.000907729 0)
(0.410225 0.000872056 0)
(0.406578 0.000820745 0)
(0.403353 0.000782321 0)
(0.399939 0.000710697 0)
(0.397444 0.000665089 0)
(0.394026 0.000584066 0)
(0.392737 0.000423511 0)
(0.388999 0.000671043 0)
(0.38839 -0.00133131 0)
(1.00941 0.0430482 0)
(1.05564 0.0370984 0)
(1.05867 0.0253323 0)
(1.0363 0.0197695 0)
(1.00711 0.0158076 0)
(0.976067 0.0129474 0)
(0.944501 0.0109798 0)
(0.913579 0.00950015 0)
(0.884158 0.00831237 0)
(0.856618 0.00734809 0)
(0.831038 0.00656168 0)
(0.807354 0.00591268 0)
(0.785447 0.00536969 0)
(0.765176 0.00490999 0)
(0.746393 0.00451694 0)
(0.72896 0.00417798 0)
(0.712748 0.00388338 0)
(0.697637 0.00362553 0)
(0.683523 0.0033984 0)
(0.670311 0.00319715 0)
(0.657917 0.00301789 0)
(0.646267 0.00285744 0)
(0.635294 0.00271318 0)
(0.624939 0.00258295 0)
(0.61515 0.00246495 0)
(0.60588 0.00235763 0)
(0.597085 0.00225971 0)
(0.58873 0.00217005 0)
(0.58078 0.00208768 0)
(0.573204 0.00201173 0)
(0.565975 0.00194141 0)
(0.55907 0.00187603 0)
(0.552466 0.00181484 0)
(0.546144 0.00175734 0)
(0.540087 0.00170257 0)
(0.53428 0.00165047 0)
(0.528711 0.00159925 0)
(0.52337 0.00155008 0)
(0.518242 0.00149869 0)
(0.51334 0.00144999 0)
(0.508619 0.00139291 0)
(0.504164 0.00134247 0)
(0.499814 0.00127081 0)
(0.495876 0.00121714 0)
(0.491823 0.00111857 0)
(0.4886 0.00105415 0)
(0.48468 0.000942416 0)
(0.482513 0.000740021 0)
(0.478605 0.000950507 0)
(0.476941 -0.000719244 0)
(1.00635 0.0401803 0)
(1.05241 0.036152 0)
(1.06605 0.0252562 0)
(1.05952 0.0205754 0)
(1.04688 0.0172361 0)
(1.03081 0.014668 0)
(1.01189 0.012842 0)
(0.991159 0.0114209 0)
(0.969695 0.010228 0)
(0.948221 0.00921706 0)
(0.927179 0.00836173 0)
(0.906832 0.00763373 0)
(0.887327 0.00700861 0)
(0.868733 0.00646763 0)
(0.851071 0.0059964 0)
(0.834328 0.00558351 0)
(0.818472 0.00521975 0)
(0.803463 0.0048976 0)
(0.789252 0.0046109 0)
(0.775791 0.00435459 0)
(0.763032 0.00412447 0)
(0.750927 0.00391705 0)
(0.739433 0.00372939 0)
(0.728506 0.00355903 0)
(0.718107 0.00340389 0)
(0.708201 0.00326217 0)
(0.698754 0.00313234 0)
(0.689735 0.00301305 0)
(0.681114 0.00290311 0)
(0.672867 0.00280147 0)
(0.664968 0.00270716 0)
(0.657396 0.0026193 0)
(0.650132 0.00253699 0)
(0.643157 0.00245957 0)
(0.636456 0.00238588 0)
(0.630013 0.00231577 0)
(0.623819 0.00224706 0)
(0.617862 0.00218113 0)
(0.612131 0.00211275 0)
(0.606633 0.0020478 0)
(0.601333 0.00197289 0)
(0.596296 0.0019059 0)
(0.591396 0.0018136 0)
(0.586877 0.00174166 0)
(0.582327 0.00161811 0)
(0.578479 0.0015282 0)
(0.574183 0.00139158 0)
(0.571234 0.00114293 0)
(0.567191 0.00131079 0)
(0.564691 -4.69277e-05 0)
(1.00506 0.0375032 0)
(1.04762 0.035054 0)
(1.06395 0.0247093 0)
(1.06418 0.0206073 0)
(1.06068 0.0177757 0)
(1.05477 0.0155108 0)
(1.04599 0.0139012 0)
(1.03477 0.0126463 0)
(1.02182 0.0115655 0)
(1.00774 0.010619 0)
(0.992984 0.00979272 0)
(0.977909 0.0090688 0)
(0.962777 0.00843042 0)
(0.947783 0.0078645 0)
(0.933063 0.00736086 0)
(0.918709 0.0069111 0)
(0.90478 0.00650814 0)
(0.891311 0.00614592 0)
(0.87832 0.00581929 0)
(0.865812 0.00552382 0)
(0.853782 0.00525574 0)
(0.842221 0.00501181 0)
(0.831115 0.00478924 0)
(0.820449 0.00458564 0)
(0.810203 0.00439895 0)
(0.800361 0.00422734 0)
(0.790902 0.00406924 0)
(0.781809 0.00392323 0)
(0.773063 0.00378806 0)
(0.764646 0.00366257 0)
(0.756542 0.0035457 0)
(0.748736 0.00343649 0)
(0.741212 0.0033339 0)
(0.733957 0.00323718 0)
(0.726959 0.003145 0)
(0.720206 0.00305715 0)
(0.713691 0.00297115 0)
(0.707403 0.00288845 0)
(0.701335 0.00280318 0)
(0.695491 0.00272171 0)
(0.689847 0.00262917 0)
(0.68445 0.00254484 0)
(0.679209 0.00243281 0)
(0.674305 0.00234048 0)
(0.669438 0.00219478 0)
(0.665144 0.00207494 0)
(0.660611 0.00191712 0)
(0.65708 0.00162537 0)
(0.652936 0.00173983 0)
(0.649866 0.000661918 0)
(1.00451 0.0349674 0)
(1.04359 0.0339743 0)
(1.05993 0.0240589 0)
(1.06222 0.0203187 0)
(1.0625 0.0178416 0)
(1.06183 0.0157917 0)
(1.05924 0.0143566 0)
(1.05468 0.0132684 0)
(1.04843 0.0123308 0)
(1.04083 0.0114975 0)
(1.03214 0.010757 0)
(1.02261 0.0100954 0)
(1.01248 0.00949973 0)
(1.00195 0.00896057 0)
(0.991167 0.00847102 0)
(0.98027 0.00802554 0)
(0.969362 0.0076194 0)
(0.958523 0.00724842 0)
(0.947814 0.00690893 0)
(0.937281 0.00659768 0)
(0.926958 0.0063118 0)
(0.916867 0.00604874 0)
(0.907025 0.00580624 0)
(0.897442 0.00558232 0)
(0.888122 0.00537522 0)
(0.879067 0.00518336 0)
(0.870276 0.00500532 0)
(0.861745 0.00483982 0)
(0.853469 0.00468568 0)
(0.845442 0.0045418 0)
(0.837658 0.00440714 0)
(0.830108 0.00428071 0)
(0.822787 0.00416148 0)
(0.815686 0.00404863 0)
(0.808801 0.00394077 0)
(0.802123 0.00383762 0)
(0.795649 0.00373652 0)
(0.789373 0.00363893 0)
(0.783291 0.00353857 0)
(0.777407 0.00344193 0)
(0.771706 0.00333348 0)
(0.766223 0.00323252 0)
(0.760896 0.00310292 0)
(0.755855 0.00298981 0)
(0.750894 0.00282518 0)
(0.746386 0.0026742 0)
(0.741791 0.00249707 0)
(0.737924 0.00216987 0)
(0.733772 0.00222253 0)
(0.730385 0.00137921 0)
(1.00412 0.0325369 0)
(1.04026 0.0329213 0)
(1.05616 0.0234249 0)
(1.05886 0.019935 0)
(1.06023 0.0177136 0)
(1.0616 0.0157957 0)
(1.06196 0.0144624 0)
(1.06105 0.0134901 0)
(1.05898 0.0126692 0)
(1.05583 0.0119425 0)
(1.05171 0.0112961 0)
(1.04672 0.0107157 0)
(1.04098 0.0101882 0)
(1.03463 0.00970491 0)
(1.02778 0.00925998 0)
(1.02053 0.00884922 0)
(1.01299 0.00846926 0)
(1.00524 0.00811724 0)
(0.997349 0.00779066 0)
(0.989378 0.00748732 0)
(0.981377 0.00720525 0)
(0.973387 0.00694266 0)
(0.965443 0.00669795 0)
(0.957572 0.00646967 0)
(0.949796 0.00625652 0)
(0.942131 0.00605729 0)
(0.934591 0.0058709 0)
(0.927186 0.00569629 0)
(0.919922 0.00553252 0)
(0.912805 0.00537864 0)
(0.905838 0.00523373 0)
(0.899022 0.00509692 0)
(0.892359 0.00496719 0)
(0.885848 0.00484379 0)
(0.87949 0.0047253 0)
(0.873283 0.00461144 0)
(0.867229 0.00449946 0)
(0.861325 0.00439077 0)
(0.855574 0.00427893 0)
(0.849979 0.00417023 0)
(0.844534 0.00404918 0)
(0.839265 0.00393397 0)
(0.834133 0.00379023 0)
(0.829231 0.00365794 0)
(0.824425 0.00347814 0)
(0.819965 0.00329792 0)
(0.815509 0.00310287 0)
(0.811574 0.00274984 0)
(0.807557 0.00273637 0)
(0.804107 0.00207749 0)
(1.00374 0.0302028 0)
(1.03727 0.0318725 0)
(1.05283 0.022822 0)
(1.05562 0.0195336 0)
(1.05714 0.0175242 0)
(1.05906 0.0156953 0)
(1.06049 0.0144099 0)
(1.06117 0.0135015 0)
(1.06116 0.0127546 0)
(1.0605 0.0121027 0)
(1.05917 0.0115294 0)
(1.05718 0.0110189 0)
(1.05459 0.0105568 0)
(1.05142 0.0101331 0)
(1.04774 0.00974156 0)
(1.04361 0.00937778 0)
(1.03908 0.00903861 0)
(1.03423 0.00872154 0)
(1.02909 0.00842455 0)
(1.02373 0.00814593 0)
(1.01818 0.00788423 0)
(1.0125 0.00763817 0)
(1.00671 0.00740661 0)
(1.00084 0.00718855 0)
(0.994937 0.00698306 0)
(0.989011 0.00678931 0)
(0.983085 0.00660651 0)
(0.977178 0.00643393 0)
(0.971303 0.00627084 0)
(0.965474 0.00611651 0)
(0.9597 0.0059702 0)
(0.95399 0.00583117 0)
(0.948351 0.00569854 0)
(0.942789 0.0055716 0)
(0.937309 0.00544901 0)
(0.931916 0.00533048 0)
(0.926614 0.00521328 0)
(0.921407 0.00509871 0)
(0.916299 0.0049804 0)
(0.911298 0.00486416 0)
(0.906401 0.00473511 0)
(0.901632 0.00460954 0)
(0.896968 0.00445617 0)
(0.892474 0.0043081 0)
(0.888068 0.00411744 0)
(0.883913 0.00391241 0)
(0.879809 0.00370127 0)
(0.876065 0.00333224 0)
(0.87235 0.00325306 0)
(0.869077 0.00272793 0)
(1.00337 0.0279673 0)
(1.03443 0.0308156 0)
(1.04972 0.0222441 0)
(1.05266 0.0191295 0)
(1.05414 0.0173164 0)
(1.05612 0.0155657 0)
(1.05782 0.0143027 0)
(1.05903 0.0134253 0)
(1.05983 0.0127195 0)
(1.06027 0.0121113 0)
(1.06034 0.0115834 0)
(1.06001 0.0111202 0)
(1.05926 0.010706 0)
(1.05812 0.0103297 0)
(1.05658 0.00998385 0)
(1.05466 0.00966356 0)
(1.05239 0.00936509 0)
(1.0498 0.00908568 0)
(1.04691 0.00882316 0)
(1.04376 0.0085758 0)
(1.04038 0.00834223 0)
(1.03679 0.00812129 0)
(1.03303 0.00791202 0)
(1.02911 0.00771359 0)
(1.02507 0.00752528 0)
(1.02092 0.00734645 0)
(1.01669 0.00717655 0)
(1.0124 0.00701502 0)
(1.00805 0.00686134 0)
(1.00367 0.00671495 0)
(0.999273 0.00657526 0)
(0.994864 0.00644169 0)
(0.990456 0.00631343 0)
(0.986058 0.00618991 0)
(0.981678 0.0060698 0)
(0.977323 0.0059529 0)
(0.973002 0.00583645 0)
(0.968721 0.00572169 0)
(0.964486 0.0056024 0)
(0.960306 0.00548378 0)
(0.956184 0.00535191 0)
(0.952139 0.00522069 0)
(0.94816 0.00506272 0)
(0.944294 0.00490347 0)
(0.940494 0.00470654 0)
(0.936864 0.00448281 0)
(0.933296 0.00425805 0)
(0.929967 0.00388222 0)
(0.926714 0.00374147 0)
(0.92382 0.00330443 0)
(1.00301 0.0258342 0)
(1.03171 0.0297467 0)
(1.04673 0.0216874 0)
(1.04987 0.0187226 0)
(1.05132 0.0170967 0)
(1.05326 0.0154291 0)
(1.055 0.0141817 0)
(1.05632 0.0133208 0)
(1.05736 0.0126383 0)
(1.05819 0.0120542 0)
(1.05882 0.0115513 0)
(1.05923 0.0111152 0)
(1.0594 0.0107303 0)
(1.05933 0.0103847 0)
(1.059 0.0100706 0)
(1.05842 0.00978231 0)
(1.05758 0.00951567 0)
(1.0565 0.00926744 0)
(1.05518 0.0090351 0)
(1.05364 0.00881668 0)
(1.05188 0.0086106 0)
(1.04992 0.00841556 0)
(1.04779 0.00823053 0)
(1.04548 0.00805465 0)
(1.04303 0.0078872 0)
(1.04044 0.00772758 0)
(1.03773 0.00757527 0)
(1.03491 0.00742981 0)
(1.032 0.00729075 0)
(1.02902 0.00715763 0)
(1.02596 0.00702997 0)
(1.02285 0.00690724 0)
(1.01969 0.00678872 0)
(1.0165 0.00667391 0)
(1.01328 0.00656152 0)
(1.01003 0.00645135 0)
(1.00678 0.00634071 0)
(1.00352 0.00623067 0)
(1.00026 0.00611527 0)
(0.997016 0.00599897 0)
(0.993788 0.00586908 0)
(0.990594 0.0057368 0)
(0.987429 0.00557901 0)
(0.984325 0.00541348 0)
(0.981263 0.00521457 0)
(0.978302 0.00497883 0)
(0.975395 0.00474336 0)
(0.972639 0.00436829 0)
(0.969966 0.00417289 0)
(0.967593 0.00378534 0)
(1.00268 0.0238058 0)
(1.02911 0.0286639 0)
(1.04382 0.0211514 0)
(1.04718 0.0183125 0)
(1.04863 0.0168637 0)
(1.05054 0.0152882 0)
(1.05227 0.0140581 0)
(1.0536 0.013209 0)
(1.05467 0.0125432 0)
(1.0556 0.0119743 0)
(1.05641 0.0114854 0)
(1.05708 0.011064 0)
(1.05762 0.0106952 0)
(1.05801 0.0103673 0)
(1.05826 0.0100721 0)
(1.05836 0.00980386 0)
(1.0583 0.00955813 0)
(1.05808 0.0093314 0)
(1.0577 0.0091209 0)
(1.05715 0.00892439 0)
(1.05645 0.00874005 0)
(1.0556 0.00856641 0)
(1.0546 0.00840226 0)
(1.05345 0.0082466 0)
(1.05217 0.0080986 0)
(1.05077 0.00795758 0)
(1.04924 0.00782298 0)
(1.04761 0.00769429 0)
(1.04588 0.00757106 0)
(1.04406 0.00745285 0)
(1.04215 0.00733918 0)
(1.04017 0.00722956 0)
(1.03812 0.0071233 0)
(1.03601 0.0070199 0)
(1.03385 0.00691808 0)
(1.03164 0.00681762 0)
(1.02939 0.00671589 0)
(1.02711 0.00661374 0)
(1.02481 0.00650556 0)
(1.02249 0.00639492 0)
(1.02016 0.00627052 0)
(1.01783 0.00614077 0)
(1.0155 0.0059868 0)
(1.01319 0.00581928 0)
(1.0109 0.00562175 0)
(1.00866 0.00538012 0)
(1.00646 0.0051368 0)
(1.00435 0.00476776 0)
(1.00231 0.00452586 0)
(1.00052 0.00415758 0)
(1.00238 0.0218841 0)
(1.02664 0.0275665 0)
(1.04099 0.0206359 0)
(1.04457 0.017901 0)
(1.04604 0.0166161 0)
(1.04792 0.0151414 0)
(1.04965 0.013933 0)
(1.05097 0.0130948 0)
(1.05204 0.012444 0)
(1.05297 0.0118879 0)
(1.0538 0.0114087 0)
(1.05454 0.0109963 0)
(1.05519 0.0106368 0)
(1.05576 0.0103188 0)
(1.05623 0.0100342 0)
(1.05662 0.00977742 0)
(1.05691 0.00954397 0)
(1.05711 0.0093303 0)
(1.0572 0.00913355 0)
(1.0572 0.00895135 0)
(1.05709 0.00878176 0)
(1.05688 0.00862318 0)
(1.05657 0.00847425 0)
(1.05615 0.00833385 0)
(1.05563 0.00820103 0)
(1.05502 0.00807499 0)
(1.05431 0.00795508 0)
(1.05351 0.00784074 0)
(1.05262 0.00773144 0)
(1.05166 0.00762671 0)
(1.05061 0.00752604 0)
(1.0495 0.00742894 0)
(1.04832 0.00733468 0)
(1.04707 0.00724275 0)
(1.04577 0.00715187 0)
(1.04442 0.00706174 0)
(1.04302 0.00696979 0)
(1.04157 0.00687661 0)
(1.04009 0.00677696 0)
(1.03858 0.00667349 0)
(1.03704 0.00655632 0)
(1.03549 0.00643114 0)
(1.03392 0.00628302 0)
(1.03234 0.00611651 0)
(1.03077 0.00592235 0)
(1.02922 0.00567951 0)
(1.02769 0.00543063 0)
(1.02621 0.00507038 0)
(1.02478 0.00478985 0)
(1.02357 0.00441905 0)
(1.0021 0.0200698 0)
(1.0243 0.0264564 0)
(1.03826 0.0201386 0)
(1.04204 0.0174899 0)
(1.04354 0.0163539 0)
(1.04539 0.0149875 0)
(1.04712 0.0138058 0)
(1.04844 0.0129786 0)
(1.04949 0.0123429 0)
(1.05041 0.0117993 0)
(1.05124 0.011329 0)
(1.05198 0.0109236 0)
(1.05265 0.0105707 0)
(1.05325 0.0102591 0)
(1.0538 0.00998104 0)
(1.05428 0.00973097 0)
(1.0547 0.00950461 0)
(1.05507 0.00929849 0)
(1.05537 0.00910979 0)
(1.05561 0.00893613 0)
(1.05579 0.00877557 0)
(1.0559 0.00862645 0)
(1.05595 0.00848735 0)
(1.05593 0.00835708 0)
(1.05584 0.00823461 0)
(1.05569 0.00811907 0)
(1.05547 0.00800972 0)
(1.05519 0.00790594 0)
(1.05484 0.00780716 0)
(1.05443 0.00771284 0)
(1.05397 0.00762245 0)
(1.05344 0.00753545 0)
(1.05286 0.00745109 0)
(1.05223 0.00736885 0)
(1.05156 0.00728738 0)
(1.05083 0.00720635 0)
(1.05006 0.00712321 0)
(1.04925 0.00703828 0)
(1.0484 0.00694671 0)
(1.04752 0.0068502 0)
(1.04661 0.00674029 0)
(1.04568 0.00662013 0)
(1.04473 0.00647823 0)
(1.04376 0.00631424 0)
(1.04279 0.00612399 0)
(1.04181 0.00588285 0)
(1.04085 0.00562982 0)
(1.03992 0.0052787 0)
(1.03903 0.00496628 0)
(1.03832 0.00457843 0)
(1.00185 0.0183633 0)
(1.0221 0.0253378 0)
(1.03563 0.0196557 0)
(1.03961 0.017081 0)
(1.04113 0.0160776 0)
(1.04294 0.0148256 0)
(1.04467 0.0136762 0)
(1.046 0.0128602 0)
(1.04704 0.0122396 0)
(1.04795 0.0117093 0)
(1.04876 0.0112481 0)
(1.04949 0.0108495 0)
(1.05015 0.0105024 0)
(1.05075 0.0101961 0)
(1.0513 0.00992291 0)
(1.0518 0.00967751 0)
(1.05226 0.00945578 0)
(1.05268 0.00925439 0)
(1.05305 0.00907056 0)
(1.05339 0.00890203 0)
(1.05368 0.00874685 0)
(1.05393 0.00860341 0)
(1.05414 0.00847027 0)
(1.05431 0.00834623 0)
(1.05443 0.00823022 0)
(1.05451 0.00812135 0)
(1.05455 0.00801884 0)
(1.05455 0.00792201 0)
(1.0545 0.00783027 0)
(1.05442 0.00774305 0)
(1.05429 0.00765979 0)
(1.05412 0.00757994 0)
(1.05392 0.00750272 0)
(1.05367 0.00742756 0)
(1.05339 0.00735313 0)
(1.05308 0.00727899 0)
(1.05273 0.00720268 0)
(1.05235 0.0071242 0)
(1.05194 0.00703913 0)
(1.0515 0.00694827 0)
(1.05104 0.00684442 0)
(1.05056 0.00672857 0)
(1.05006 0.00659204 0)
(1.04954 0.00643078 0)
(1.04901 0.00624385 0)
(1.04848 0.00600561 0)
(1.04795 0.005749 0)
(1.04745 0.00540552 0)
(1.04698 0.00506655 0)
(1.04666 0.00465282 0)
(1.00162 0.0167643 0)
(1.02004 0.0242147 0)
(1.0331 0.0191833 0)
(1.03726 0.016676 0)
(1.03881 0.0157883 0)
(1.04059 0.0146549 0)
(1.04231 0.0135437 0)
(1.04364 0.0127395 0)
(1.04468 0.012134 0)
(1.04557 0.0116177 0)
(1.04637 0.011166 0)
(1.04709 0.0107744 0)
(1.04774 0.0104332 0)
(1.04833 0.010132 0)
(1.04887 0.00986332 0)
(1.04937 0.00962196 0)
(1.04982 0.00940398 0)
(1.05025 0.00920615 0)
(1.05064 0.00902581 0)
(1.05099 0.00886076 0)
(1.05132 0.00870911 0)
(1.05162 0.00856928 0)
(1.05189 0.00843988 0)
(1.05213 0.00831969 0)
(1.05234 0.00820767 0)
(1.05252 0.00810289 0)
(1.05268 0.00800458 0)
(1.0528 0.00791204 0)
(1.0529 0.00782466 0)
(1.05298 0.00774189 0)
(1.05303 0.00766312 0)
(1.05305 0.00758783 0)
(1.05305 0.0075152 0)
(1.05302 0.00744467 0)
(1.05297 0.0073749 0)
(1.05289 0.00730536 0)
(1.05279 0.00723371 0)
(1.05267 0.00715962 0)
(1.05253 0.00707912 0)
(1.05237 0.00699214 0)
(1.0522 0.00689266 0)
(1.052 0.00677986 0)
(1.0518 0.00664719 0)
(1.05158 0.00648811 0)
(1.05135 0.00630328 0)
(1.05112 0.00606794 0)
(1.05089 0.00580776 0)
(1.05068 0.00546935 0)
(1.0505 0.00510787 0)
(1.05046 0.00466389 0)
(1.00142 0.0152721 0)
(1.01811 0.0230914 0)
(1.03067 0.0187173 0)
(1.035 0.0162762 0)
(1.03658 0.0154875 0)
(1.03833 0.014475 0)
(1.04004 0.0134081 0)
(1.04137 0.0126167 0)
(1.04241 0.012026 0)
(1.04329 0.0115242 0)
(1.04407 0.0110828 0)
(1.04478 0.0106986 0)
(1.04542 0.0103634 0)
(1.046 0.0100674 0)
(1.04653 0.00980321 0)
(1.04701 0.0095658 0)
(1.04746 0.00935136 0)
(1.04787 0.00915677 0)
(1.04826 0.00897945 0)
(1.04861 0.00881726 0)
(1.04894 0.00866839 0)
(1.04925 0.00853127 0)
(1.04953 0.00840455 0)
(1.04979 0.00828704 0)
(1.05003 0.0081777 0)
(1.05025 0.0080756 0)
(1.05044 0.00797997 0)
(1.05062 0.00789012 0)
(1.05078 0.00780542 0)
(1.05092 0.00772535 0)
(1.05105 0.00764929 0)
(1.05116 0.00757673 0)
(1.05125 0.00750686 0)
(1.05133 0.0074391 0)
(1.05139 0.00737215 0)
(1.05144 0.00730537 0)
(1.05147 0.00723657 0)
(1.05149 0.00716512 0)
(1.0515 0.00708745 0)
(1.05149 0.00700278 0)
(1.05148 0.00690602 0)
(1.05145 0.00679497 0)
(1.05141 0.00666461 0)
(1.05137 0.00650691 0)
(1.05132 0.0063229 0)
(1.05128 0.00608978 0)
(1.05123 0.00582585 0)
(1.0512 0.00548965 0)
(1.05121 0.00510879 0)
(1.05133 0.00463346 0)
(1.00124 0.0138851 0)
(1.01632 0.0219717 0)
(1.02836 0.0182539 0)
(1.03282 0.0158829 0)
(1.03445 0.0151767 0)
(1.03616 0.0142852 0)
(1.03786 0.013269 0)
(1.0392 0.0124916 0)
(1.04022 0.0119156 0)
(1.04109 0.0114288 0)
(1.04187 0.0109983 0)
(1.04257 0.0106217 0)
(1.04319 0.0102928 0)
(1.04376 0.0100022 0)
(1.04428 0.00974269 0)
(1.04475 0.00950934 0)
(1.04519 0.00929848 0)
(1.04559 0.00910711 0)
(1.04596 0.00893274 0)
(1.04631 0.00877327 0)
(1.04663 0.00862695 0)
(1.04693 0.00849224 0)
(1.04721 0.00836782 0)
(1.04747 0.00825252 0)
(1.04771 0.00814529 0)
(1.04793 0.00804524 0)
(1.04814 0.00795156 0)
(1.04833 0.00786359 0)
(1.04851 0.0077807 0)
(1.04867 0.00770238 0)
(1.04883 0.00762803 0)
(1.04897 0.00755714 0)
(1.0491 0.00748892 0)
(1.04922 0.00742279 0)
(1.04933 0.00735747 0)
(1.04943 0.00729225 0)
(1.04952 0.00722507 0)
(1.0496 0.00715504 0)
(1.04968 0.00707895 0)
(1.04975 0.00699543 0)
(1.04981 0.00690014 0)
(1.04986 0.00678987 0)
(1.04992 0.00666059 0)
(1.04996 0.00650354 0)
(1.05001 0.00631934 0)
(1.05006 0.00608764 0)
(1.05011 0.00581985 0)
(1.05018 0.00548335 0)
(1.05029 0.00508573 0)
(1.05048 0.00458047 0)
(1.00107 0.0126015 0)
(1.01466 0.0208598 0)
(1.02615 0.0177898 0)
(1.03073 0.015497 0)
(1.03242 0.0148578 0)
(1.03408 0.0140852 0)
(1.03577 0.0131259 0)
(1.03711 0.0123643 0)
(1.03813 0.0118026 0)
(1.03899 0.0113313 0)
(1.03976 0.0109123 0)
(1.04045 0.0105438 0)
(1.04106 0.0102214 0)
(1.04162 0.00993639 0)
(1.04212 0.00968172 0)
(1.04258 0.00945258 0)
(1.04301 0.00924541 0)
(1.0434 0.00905735 0)
(1.04377 0.00888597 0)
(1.0441 0.00872925 0)
(1.04442 0.00858547 0)
(1.04471 0.00845313 0)
(1.04498 0.00833093 0)
(1.04523 0.00821771 0)
(1.04546 0.00811242 0)
(1.04568 0.00801418 0)
(1.04588 0.00792218 0)
(1.04607 0.00783576 0)
(1.04625 0.00775432 0)
(1.04641 0.00767732 0)
(1.04657 0.0076042 0)
(1.04672 0.00753446 0)
(1.04686 0.00746734 0)
(1.04699 0.00740223 0)
(1.04711 0.00733792 0)
(1.04723 0.0072736 0)
(1.04734 0.00720735 0)
(1.04745 0.00713804 0)
(1.04755 0.00706279 0)
(1.04765 0.00697974 0)
(1.04774 0.00688514 0)
(1.04783 0.00677508 0)
(1.04792 0.00664609 0)
(1.04801 0.00648925 0)
(1.04809 0.00630428 0)
(1.04818 0.0060733 0)
(1.04827 0.00580181 0)
(1.04839 0.00546319 0)
(1.04853 0.00505124 0)
(1.04875 0.00451916 0)
(1.00093 0.0114185 0)
(1.01314 0.0197596 0)
(1.02405 0.0173219 0)
(1.02873 0.0151191 0)
(1.03048 0.0145327 0)
(1.0321 0.0138746 0)
(1.03376 0.0129782 0)
(1.0351 0.0122348 0)
(1.03613 0.0116872 0)
(1.03698 0.0112315 0)
(1.03774 0.0108247 0)
(1.03842 0.0104648 0)
(1.03902 0.0101491 0)
(1.03957 0.0098699 0)
(1.04006 0.00962025 0)
(1.04051 0.00939546 0)
(1.04093 0.00919212 0)
(1.04131 0.00900748 0)
(1.04167 0.00883919 0)
(1.04199 0.0086853 0)
(1.04229 0.00854411 0)
(1.04258 0.00841419 0)
(1.04284 0.00829423 0)
(1.04308 0.00818309 0)
(1.0433 0.00807973 0)
(1.04351 0.00798325 0)
(1.04371 0.00789287 0)
(1.04389 0.00780791 0)
(1.04406 0.00772778 0)
(1.04422 0.00765196 0)
(1.04437 0.0075799 0)
(1.04452 0.00751112 0)
(1.04465 0.00744487 0)
(1.04478 0.00738052 0)
(1.04491 0.00731694 0)
(1.04503 0.00725323 0)
(1.04514 0.00718759 0)
(1.04525 0.0071187 0)
(1.04536 0.00704393 0)
(1.04546 0.00696107 0)
(1.04556 0.00686675 0)
(1.04566 0.00675668 0)
(1.04576 0.00662761 0)
(1.04585 0.0064708 0)
(1.04595 0.00628489 0)
(1.04605 0.0060542 0)
(1.04615 0.00577943 0)
(1.04627 0.00543766 0)
(1.04641 0.00501382 0)
(1.04662 0.0044593 0)
(1.0008 0.0103328 0)
(1.01174 0.0186755 0)
(1.02207 0.0168474 0)
(1.02682 0.0147494 0)
(1.02863 0.0142035 0)
(1.03021 0.0136534 0)
(1.03185 0.0128252 0)
(1.03319 0.0121032 0)
(1.03422 0.0115692 0)
(1.03506 0.0111294 0)
(1.03581 0.0107355 0)
(1.03648 0.0103846 0)
(1.03707 0.0100759 0)
(1.03761 0.00980264 0)
(1.0381 0.0095582 0)
(1.03854 0.00933793 0)
(1.03894 0.00913855 0)
(1.03932 0.00895744 0)
(1.03966 0.00879235 0)
(1.03998 0.00864137 0)
(1.04027 0.00850287 0)
(1.04054 0.00837543 0)
(1.04079 0.00825778 0)
(1.04103 0.00814876 0)
(1.04124 0.00804737 0)
(1.04144 0.00795269 0)
(1.04163 0.00786393 0)
(1.0418 0.00778044 0)
(1.04197 0.0077016 0)
(1.04212 0.00762694 0)
(1.04227 0.00755591 0)
(1.0424 0.00748803 0)
(1.04253 0.00742259 0)
(1.04266 0.00735895 0)
(1.04278 0.00729601 0)
(1.04289 0.00723283 0)
(1.043 0.0071677 0)
(1.04311 0.00709914 0)
(1.04321 0.00702474 0)
(1.04331 0.006942 0)
(1.0434 0.00684785 0)
(1.0435 0.00673777 0)
(1.04359 0.00660853 0)
(1.04368 0.00645179 0)
(1.04378 0.00626508 0)
(1.04387 0.00603451 0)
(1.04396 0.00575713 0)
(1.04407 0.00541197 0)
(1.0442 0.00497873 0)
(1.04437 0.00440699 0)
(1.00069 0.00934081 0)
(1.01046 0.0176114 0)
(1.0202 0.016364 0)
(1.02499 0.014388 0)
(1.02686 0.0138721 0)
(1.02841 0.0134217 0)
(1.03002 0.0126665 0)
(1.03137 0.0119691 0)
(1.03239 0.0114489 0)
(1.03323 0.0110248 0)
(1.03397 0.0106444 0)
(1.03463 0.010303 0)
(1.03522 0.0100016 0)
(1.03575 0.00973453 0)
(1.03622 0.00949549 0)
(1.03666 0.00927991 0)
(1.03705 0.00908464 0)
(1.03742 0.00890718 0)
(1.03775 0.0087454 0)
(1.03806 0.00859743 0)
(1.03834 0.00846171 0)
(1.03861 0.00833683 0)
(1.03885 0.00822155 0)
(1.03907 0.00811473 0)
(1.03928 0.00801536 0)
(1.03947 0.00792253 0)
(1.03965 0.00783544 0)
(1.03982 0.00775343 0)
(1.03998 0.00767593 0)
(1.04012 0.00760245 0)
(1.04026 0.00753246 0)
(1.04039 0.00746549 0)
(1.04051 0.00740088 0)
(1.04063 0.00733795 0)
(1.04074 0.00727568 0)
(1.04085 0.00721303 0)
(1.04095 0.00714842 0)
(1.04105 0.00708024 0)
(1.04114 0.00700621 0)
(1.04123 0.00692368 0)
(1.04132 0.00682973 0)
(1.04141 0.00671977 0)
(1.04149 0.00659048 0)
(1.04157 0.00643398 0)
(1.04166 0.0062468 0)
(1.04174 0.00601641 0)
(1.04182 0.00573722 0)
(1.04191 0.00538906 0)
(1.04201 0.00494909 0)
(1.04213 0.00436558 0)
(1.0006 0.00843805 0)
(1.0093 0.0165714 0)
(1.01844 0.01587 0)
(1.02324 0.0140344 0)
(1.02519 0.0135405 0)
(1.02671 0.0131801 0)
(1.02828 0.0125013 0)
(1.02962 0.0118325 0)
(1.03066 0.0113261 0)
(1.03149 0.0109177 0)
(1.03222 0.0105512 0)
(1.03287 0.01022 0)
(1.03345 0.00992613 0)
(1.03397 0.0096655 0)
(1.03444 0.00943205 0)
(1.03487 0.00922132 0)
(1.03525 0.00903031 0)
(1.03561 0.00885664 0)
(1.03594 0.00869827 0)
(1.03624 0.00855342 0)
(1.03651 0.00842056 0)
(1.03677 0.00829834 0)
(1.037 0.00818551 0)
(1.03722 0.00808096 0)
(1.03742 0.00798367 0)
(1.0376 0.00789273 0)
(1.03777 0.00780736 0)
(1.03793 0.0077269 0)
(1.03808 0.00765077 0)
(1.03822 0.0075785 0)
(1.03835 0.0075096 0)
(1.03847 0.00744359 0)
(1.03859 0.00737984 0)
(1.0387 0.00731768 0)
(1.0388 0.0072561 0)
(1.0389 0.00719406 0)
(1.039 0.00713002 0)
(1.03909 0.0070623 0)
(1.03917 0.00698872 0)
(1.03925 0.00690654 0)
(1.03933 0.00681291 0)
(1.03941 0.00670327 0)
(1.03948 0.00657417 0)
(1.03955 0.00641814 0)
(1.03962 0.00623096 0)
(1.03969 0.006001 0)
(1.03975 0.00572091 0)
(1.03982 0.00537067 0)
(1.03988 0.00492669 0)
(1.03996 0.00433704 0)
(1.00051 0.00761979 0)
(1.00825 0.0155594 0)
(1.01679 0.0153641 0)
(1.02158 0.013688 0)
(1.0236 0.0132103 0)
(1.02509 0.0129293 0)
(1.02663 0.0123292 0)
(1.02797 0.0116931 0)
(1.029 0.011201 0)
(1.02983 0.0108079 0)
(1.03055 0.010456 0)
(1.0312 0.0101354 0)
(1.03177 0.00984945 0)
(1.03228 0.00959543 0)
(1.03275 0.00936777 0)
(1.03316 0.00916209 0)
(1.03354 0.00897549 0)
(1.03389 0.00880574 0)