/*--------------------------------*- C++ -*----------------------------------*\
  =========                 |
  \\      /  F ield         | OpenFOAM: The Open Source CFD Toolbox
   \\    /   O peration     | Website:  https://openfoam.org
    \\  /    A nd           | Version:  7
     \\/     M anipulation  |
\*---------------------------------------------------------------------------*/
FoamFile
{
    version     2.0;
    format      ascii;
    class       volVectorField;
    location    "0.34";
    object      vorticity;
}
// * * * * * * * * * * * * * * * * * * * * * * * * * * * * * * * * * * * * * //

dimensions      [0 0 -1 0 0 0 0];

internalField   nonuniform List<vector> 
70000
(
(0 -0 -45716)
(0 -0 -28617.4)
(0 -0 -20912.6)
(0 -0 -16978.5)
(0 -0 -14956.1)
(0 -0 -13647.8)
(0 -0 -12636.8)
(0 -0 -11822.5)
(0 -0 -11156.8)
(0 -0 -10600.7)
(0 -0 -10126.4)
(0 -0 -9715.38)
(0 -0 -9354.6)
(0 -0 -9034.73)
(0 -0 -8748.66)
(0 -0 -8490.9)
(0 -0 -8257.12)
(0 -0 -8043.86)
(0 -0 -7848.32)
(0 -0 -7668.21)
(0 -0 -7501.62)
(0 -0 -7346.97)
(0 -0 -7202.92)
(0 -0 -7068.31)
(0 -0 -6942.19)
(0 -0 -6823.7)
(0 -0 -6712.13)
(0 -0 -6606.84)
(0 -0 -6507.28)
(0 -0 -6412.99)
(0 -0 -6323.54)
(0 -0 -6238.57)
(0 -0 -6157.8)
(0 -0 -6080.93)
(0 -0 -6007.77)
(0 -0 -5938.14)
(0 -0 -5871.89)
(0 -0 -5809.03)
(0 -0 -5749.28)
(0 -0 -5693.22)
(0 -0 -5639.68)
(0 -0 -5591.34)
(0 -0 -5543.44)
(0 -0 -5505.59)
(0 -0 -5460.87)
(0 -0 -5441.14)
(0 -0 -5390.1)
(0 -0 -5407.88)
(0 -0 -5338.39)
(0 -0 -5180.68)
(0 -0 -13549.7)
(0 -0 -19947.3)
(0 -0 -18536)
(0 -0 -16249)
(0 -0 -14502.4)
(0 -0 -13277.4)
(0 -0 -12348.2)
(0 -0 -11596.8)
(0 -0 -10973)
(0 -0 -10446.2)
(0 -0 -9993.88)
(0 -0 -9600.04)
(0 -0 -9253.07)
(0 -0 -8944.43)
(0 -0 -8667.65)
(0 -0 -8417.66)
(0 -0 -8190.47)
(0 -0 -7982.85)
(0 -0 -7792.2)
(0 -0 -7616.36)
(0 -0 -7453.52)
(0 -0 -7302.19)
(0 -0 -7161.08)
(0 -0 -7029.11)
(0 -0 -6905.34)
(0 -0 -6788.97)
(0 -0 -6679.29)
(0 -0 -6575.69)
(0 -0 -6477.64)
(0 -0 -6384.67)
(0 -0 -6296.36)
(0 -0 -6212.35)
(0 -0 -6132.33)
(0 -0 -6056.01)
(0 -0 -5983.17)
(0 -0 -5913.61)
(0 -0 -5847.14)
(0 -0 -5783.71)
(0 -0 -5723.04)
(0 -0 -5665.52)
(0 -0 -5610.19)
(0 -0 -5559.04)
(0 -0 -5508.42)
(0 -0 -5465.49)
(0 -0 -5417.75)
(0 -0 -5388.33)
(0 -0 -5337.78)
(0 -0 -5333.16)
(0 -0 -5279.42)
(0 -0 -5320.67)
(0 -0 -3818.78)
(0 -0 -10828.9)
(0 -0 -13363.5)
(0 -0 -13519.6)
(0 -0 -12866)
(0 -0 -12139.4)
(0 -0 -11497.1)
(0 -0 -10936.1)
(0 -0 -10443.3)
(0 -0 -10009.7)
(0 -0 -9626.51)
(0 -0 -9285.61)
(0 -0 -8980.26)
(0 -0 -8705.01)
(0 -0 -8455.46)
(0 -0 -8228.03)
(0 -0 -8019.76)
(0 -0 -7828.2)
(0 -0 -7651.32)
(0 -0 -7487.38)
(0 -0 -7334.94)
(0 -0 -7192.74)
(0 -0 -7059.72)
(0 -0 -6934.95)
(0 -0 -6817.64)
(0 -0 -6707.07)
(0 -0 -6602.64)
(0 -0 -6503.81)
(0 -0 -6410.1)
(0 -0 -6321.07)
(0 -0 -6236.37)
(0 -0 -6155.64)
(0 -0 -6078.6)
(0 -0 -6004.98)
(0 -0 -5934.55)
(0 -0 -5867.11)
(0 -0 -5802.47)
(0 -0 -5740.52)
(0 -0 -5681.02)
(0 -0 -5624.17)
(0 -0 -5569.29)
(0 -0 -5517.56)
(0 -0 -5466.71)
(0 -0 -5420.97)
(0 -0 -5373.06)
(0 -0 -5335.79)
(0 -0 -5288.86)
(0 -0 -5263.21)
(0 -0 -5222.88)
(0 -0 -5253.72)
(0 -0 -533.072)
(0 -0 -4662.71)
(0 -0 -7718.67)
(0 -0 -9328.93)
(0 -0 -9892.85)
(0 -0 -9958.26)
(0 -0 -9826.52)
(0 -0 -9614.41)
(0 -0 -9370.72)
(0 -0 -9120.14)
(0 -0 -8875.1)
(0 -0 -8641.16)
(0 -0 -8420.45)
(0 -0 -8213.42)
(0 -0 -8019.71)
(0 -0 -7838.61)
(0 -0 -7669.26)
(0 -0 -7510.75)
(0 -0 -7362.19)
(0 -0 -7222.74)
(0 -0 -7091.65)
(0 -0 -6968.19)
(0 -0 -6851.74)
(0 -0 -6741.71)
(0 -0 -6637.57)
(0 -0 -6538.85)
(0 -0 -6445.13)
(0 -0 -6356.01)
(0 -0 -6271.15)
(0 -0 -6190.23)
(0 -0 -6112.95)
(0 -0 -6039.06)
(0 -0 -5968.33)
(0 -0 -5900.53)
(0 -0 -5835.48)
(0 -0 -5773)
(0 -0 -5712.93)
(0 -0 -5655.15)
(0 -0 -5599.5)
(0 -0 -5545.95)
(0 -0 -5494.25)
(0 -0 -5444.69)
(0 -0 -5396.54)
(0 -0 -5350.98)
(0 -0 -5306.17)
(0 -0 -5264.56)
(0 -0 -5224.52)
(0 -0 -5183.09)
(0 -0 -5160.89)
(0 -0 -5123.78)
(0 -0 322.435)
(0 -0 -1444.57)
(0 -0 -3532.75)
(0 -0 -5259.59)
(0 -0 -6399.95)
(0 -0 -7075.05)
(0 -0 -7452.81)
(0 -0 -7643.68)
(0 -0 -7715.86)
(0 -0 -7713.58)
(0 -0 -7665.41)
(0 -0 -7589.43)
(0 -0 -7497.04)
(0 -0 -7395.55)
(0 -0 -7289.64)
(0 -0 -7182.35)
(0 -0 -7075.64)
(0 -0 -6970.76)
(0 -0 -6868.49)
(0 -0 -6769.31)
(0 -0 -6673.47)
(0 -0 -6581.07)
(0 -0 -6492.15)
(0 -0 -6406.66)
(0 -0 -6324.5)
(0 -0 -6245.58)
(0 -0 -6169.75)
(0 -0 -6096.88)
(0 -0 -6026.83)
(0 -0 -5959.46)
(0 -0 -5894.63)
(0 -0 -5832.22)
(0 -0 -5772.08)
(0 -0 -5714.1)
(0 -0 -5658.16)
(0 -0 -5604.16)
(0 -0 -5552)
(0 -0 -5501.55)
(0 -0 -5452.8)
(0 -0 -5405.55)
(0 -0 -5359.91)
(0 -0 -5315.49)
(0 -0 -5272.87)
(0 -0 -5230.73)
(0 -0 -5191.71)
(0 -0 -5150.08)
(0 -0 -5118.31)
(0 -0 -5069.49)
(0 -0 -5061.44)
(0 -0 -4991.83)
(0 -0 364.701)
(0 -0 -158.563)
(0 -0 -1181.61)
(0 -0 -2362.29)
(0 -0 -3418.07)
(0 -0 -4257.06)
(0 -0 -4892.61)
(0 -0 -5358.61)
(0 -0 -5690.1)
(0 -0 -5919.08)
(0 -0 -6071.84)
(0 -0 -6168.47)
(0 -0 -6223.9)
(0 -0 -6249.08)
(0 -0 -6252.07)
(0 -0 -6238.81)
(0 -0 -6213.69)
(0 -0 -6179.96)
(0 -0 -6140.08)
(0 -0 -6095.86)
(0 -0 -6048.67)
(0 -0 -5999.57)
(0 -0 -5949.33)
(0 -0 -5898.55)
(0 -0 -5847.68)
(0 -0 -5797.06)
(0 -0 -5746.94)
(0 -0 -5697.5)
(0 -0 -5648.87)
(0 -0 -5601.16)
(0 -0 -5554.42)
(0 -0 -5508.7)
(0 -0 -5464.01)
(0 -0 -5420.36)
(0 -0 -5377.76)
(0 -0 -5336.19)
(0 -0 -5295.64)
(0 -0 -5256.05)
(0 -0 -5217.49)
(0 -0 -5179.73)
(0 -0 -5143.14)
(0 -0 -5106.91)
(0 -0 -5072.48)
(0 -0 -5037.03)
(0 -0 -5005.82)
(0 -0 -4968.71)
(0 -0 -4945.04)
(0 -0 -4898.34)
(0 -0 -4895.22)
(0 -0 -4830.59)
(0 -0 254.017)
(0 -0 185.3)
(0 -0 -173.309)
(0 -0 -764.787)
(0 -0 -1447.99)
(0 -0 -2116.05)
(0 -0 -2721.64)
(0 -0 -3245.25)
(0 -0 -3682.75)
(0 -0 -4039.87)
(0 -0 -4326.85)
(0 -0 -4554.8)
(0 -0 -4734.02)
(0 -0 -4873.45)
(0 -0 -4980.61)
(0 -0 -5061.67)
(0 -0 -5121.66)
(0 -0 -5164.63)
(0 -0 -5193.86)
(0 -0 -5211.99)
(0 -0 -5221.13)
(0 -0 -5223.02)
(0 -0 -5219.04)
(0 -0 -5210.34)
(0 -0 -5197.83)
(0 -0 -5182.27)
(0 -0 -5164.27)
(0 -0 -5144.35)
(0 -0 -5122.9)
(0 -0 -5100.28)
(0 -0 -5076.76)
(0 -0 -5052.57)
(0 -0 -5027.89)
(0 -0 -5002.89)
(0 -0 -4977.68)
(0 -0 -4952.36)
(0 -0 -4927.04)
(0 -0 -4901.74)
(0 -0 -4876.61)
(0 -0 -4851.45)
(0 -0 -4826.78)
(0 -0 -4801.69)
(0 -0 -4777.91)
(0 -0 -4752.21)
(0 -0 -4730.55)
(0 -0 -4702.01)
(0 -0 -4686.21)
(0 -0 -4648.75)
(0 -0 -4646.47)
(0 -0 -4598.8)
(0 -0 178.74)
(0 -0 204.502)
(0 -0 130.661)
(0 -0 -85.2368)
(0 -0 -418.003)
(0 -0 -815.193)
(0 -0 -1236.97)
(0 -0 -1654.44)
(0 -0 -2047.75)
(0 -0 -2405.87)
(0 -0 -2724.53)
(0 -0 -3003.61)
(0 -0 -3245.27)
(0 -0 -3452.8)
(0 -0 -3629.9)
(0 -0 -3780.29)
(0 -0 -3907.48)
(0 -0 -4014.62)
(0 -0 -4104.51)
(0 -0 -4179.61)
(0 -0 -4242.04)
(0 -0 -4293.61)
(0 -0 -4335.88)
(0 -0 -4370.19)
(0 -0 -4397.67)
(0 -0 -4419.31)
(0 -0 -4435.94)
(0 -0 -4448.26)
(0 -0 -4456.88)
(0 -0 -4462.32)
(0 -0 -4465.03)
(0 -0 -4465.38)
(0 -0 -4463.7)
(0 -0 -4460.27)
(0 -0 -4455.32)
(0 -0 -4449.07)
(0 -0 -4441.7)
(0 -0 -4433.32)
(0 -0 -4424.15)
(0 -0 -4414.09)
(0 -0 -4403.65)
(0 -0 -4392.09)
(0 -0 -4380.99)
(0 -0 -4367.52)
(0 -0 -4356.94)
(0 -0 -4339.86)
(0 -0 -4332.67)
(0 -0 -4307.91)
(0 -0 -4307.91)
(0 -0 -4277.14)
(0 -0 148.013)
(0 -0 164.604)
(0 -0 169.988)
(0 -0 120.977)
(0 -0 1.01012)
(0 -0 -180.838)
(0 -0 -409.22)
(0 -0 -667.805)
(0 -0 -940.772)
(0 -0 -1215.2)
(0 -0 -1481.84)
(0 -0 -1734.68)
(0 -0 -1970.17)
(0 -0 -2186.61)
(0 -0 -2383.58)
(0 -0 -2561.5)
(0 -0 -2721.33)
(0 -0 -2864.3)
(0 -0 -2991.78)
(0 -0 -3105.15)
(0 -0 -3205.78)
(0 -0 -3294.95)
(0 -0 -3373.86)
(0 -0 -3443.61)
(0 -0 -3505.17)
(0 -0 -3559.45)
(0 -0 -3607.26)
(0 -0 -3649.29)
(0 -0 -3686.19)
(0 -0 -3718.52)
(0 -0 -3746.77)
(0 -0 -3771.39)
(0 -0 -3792.75)
(0 -0 -3811.22)
(0 -0 -3827.07)
(0 -0 -3840.58)
(0 -0 -3851.99)
(0 -0 -3861.48)
(0 -0 -3869.29)
(0 -0 -3875.44)
(0 -0 -3880.33)
(0 -0 -3883.51)
(0 -0 -3886.2)
(0 -0 -3886.27)
(0 -0 -3887.81)
(0 -0 -3883.63)
(0 -0 -3886.11)
(0 -0 -3875.08)
(0 -0 -3880.09)
(0 -0 -3864.76)
(0 -0 136.821)
(0 -0 137.067)
(0 -0 148.735)
(0 -0 149.682)
(0 -0 122.193)
(0 -0 60.0906)
(0 -0 -36.4652)
(0 -0 -163.844)
(0 -0 -315.715)
(0 -0 -484.782)
(0 -0 -664.134)
(0 -0 -847.859)
(0 -0 -1031.21)
(0 -0 -1210.57)
(0 -0 -1383.39)
(0 -0 -1547.93)
(0 -0 -1703.16)
(0 -0 -1848.55)
(0 -0 -1983.97)
(0 -0 -2109.54)
(0 -0 -2225.57)
(0 -0 -2332.51)
(0 -0 -2430.86)
(0 -0 -2521.16)
(0 -0 -2603.98)
(0 -0 -2679.86)
(0 -0 -2749.34)
(0 -0 -2812.94)
(0 -0 -2871.14)
(0 -0 -2924.39)
(0 -0 -2973.09)
(0 -0 -3017.64)
(0 -0 -3058.38)
(0 -0 -3095.63)
(0 -0 -3129.66)
(0 -0 -3160.76)
(0 -0 -3189.14)
(0 -0 -3215.02)
(0 -0 -3238.58)
(0 -0 -3259.97)
(0 -0 -3279.45)
(0 -0 -3296.79)
(0 -0 -3312.87)
(0 -0 -3326.2)
(0 -0 -3339.76)
(0 -0 -3348.34)
(0 -0 -3360.83)
(0 -0 -3363.09)
(0 -0 -3374.79)
(0 -0 -3373.44)
(0 -0 129.941)
(0 -0 123.996)
(0 -0 129.181)
(0 -0 136.385)
(0 -0 136.478)
(0 -0 123.21)
(0 -0 92.9188)
(0 -0 43.7335)
(0 -0 -24.204)
(0 -0 -109.082)
(0 -0 -208.147)
(0 -0 -318.272)
(0 -0 -436.32)
(0 -0 -559.386)
(0 -0 -684.927)
(0 -0 -810.819)
(0 -0 -935.356)
(0 -0 -1057.21)
(0 -0 -1175.39)
(0 -0 -1289.2)
(0 -0 -1398.16)
(0 -0 -1501.98)
(0 -0 -1600.54)
(0 -0 -1693.79)
(0 -0 -1781.82)
(0 -0 -1864.74)
(0 -0 -1942.73)
(0 -0 -2016)
(0 -0 -2084.77)
(0 -0 -2149.27)
(0 -0 -2209.74)
(0 -0 -2266.41)
(0 -0 -2319.5)
(0 -0 -2369.24)
(0 -0 -2415.8)
(0 -0 -2459.41)
(0 -0 -2500.21)
(0 -0 -2538.4)
(0 -0 -2574.1)
(0 -0 -2607.44)
(0 -0 -2638.62)
(0 -0 -2667.5)
(0 -0 -2694.7)
(0 -0 -2719.18)
(0 -0 -2743.07)
(0 -0 -2762.65)
(0 -0 -2784.1)
(0 -0 -2797.89)
(0 -0 -2816.45)
(0 -0 -2826.83)
(0 -0 122.951)
(0 -0 116.645)
(0 -0 118.014)
(0 -0 122.492)
(0 -0 126.438)
(0 -0 126.911)
(0 -0 121.432)
(0 -0 107.688)
(0 -0 84.0235)
(0 -0 49.7106)
(0 -0 4.82523)
(0 -0 -49.9394)
(0 -0 -113.472)
(0 -0 -184.415)
(0 -0 -261.323)
(0 -0 -342.763)
(0 -0 -427.393)
(0 -0 -514.004)
(0 -0 -601.536)
(0 -0 -689.092)
(0 -0 -775.922)
(0 -0 -861.419)
(0 -0 -945.101)
(0 -0 -1026.6)
(0 -0 -1105.63)
(0 -0 -1182.02)
(0 -0 -1255.63)
(0 -0 -1326.39)
(0 -0 -1394.29)
(0 -0 -1459.33)
(0 -0 -1521.54)
(0 -0 -1581)
(0 -0 -1637.76)
(0 -0 -1691.91)
(0 -0 -1743.52)
(0 -0 -1792.7)
(0 -0 -1839.51)
(0 -0 -1884.06)
(0 -0 -1926.4)
(0 -0 -1966.62)
(0 -0 -2004.82)
(0 -0 -2040.9)
(0 -0 -2075.28)
(0 -0 -2107.2)
(0 -0 -2138.14)
(0 -0 -2165.51)
(0 -0 -2193.4)
(0 -0 -2215.69)
(0 -0 -2239.74)
(0 -0 -2258.7)
(0 -0 115.631)
(0 -0 110.413)
(0 -0 110.733)
(0 -0 113.174)
(0 -0 115.988)
(0 -0 118.251)
(0 -0 119.129)
(0 -0 117.417)
(0 -0 111.826)
(0 -0 101.29)
(0 -0 85.0733)
(0 -0 62.789)
(0 -0 34.3665)
(0 -0 0.0110277)
(0 -0 -39.8629)
(0 -0 -84.6965)
(0 -0 -133.846)
(0 -0 -186.628)
(0 -0 -242.363)
(0 -0 -300.393)
(0 -0 -360.107)
(0 -0 -420.946)
(0 -0 -482.412)
(0 -0 -544.069)
(0 -0 -605.54)
(0 -0 -666.508)
(0 -0 -726.708)
(0 -0 -785.927)
(0 -0 -843.992)
(0 -0 -900.771)
(0 -0 -956.158)
(0 -0 -1010.08)
(0 -0 -1062.49)
(0 -0 -1113.34)
(0 -0 -1162.61)
(0 -0 -1210.3)
(0 -0 -1256.39)
(0 -0 -1300.9)
(0 -0 -1343.82)
(0 -0 -1385.15)
(0 -0 -1424.94)
(0 -0 -1463.08)
(0 -0 -1499.81)
(0 -0 -1534.58)
(0 -0 -1568.35)
(0 -0 -1599.38)
(0 -0 -1630.21)
(0 -0 -1657.11)
(0 -0 -1684.11)
(0 -0 -1707.92)
(0 -0 108.387)
(0 -0 104.196)
(0 -0 104.409)
(0 -0 106.119)
(0 -0 107.988)
(0 -0 109.701)
(0 -0 111.24)
(0 -0 112.258)
(0 -0 112.172)
(0 -0 110.345)
(0 -0 106.183)
(0 -0 99.1757)
(0 -0 88.9362)
(0 -0 75.214)
(0 -0 57.9017)
(0 -0 37.0133)
(0 -0 12.6689)
(0 -0 -14.9288)
(0 -0 -45.5174)
(0 -0 -78.7947)
(0 -0 -114.436)
(0 -0 -152.109)
(0 -0 -191.484)
(0 -0 -232.244)
(0 -0 -274.088)
(0 -0 -316.739)
(0 -0 -359.944)
(0 -0 -403.477)
(0 -0 -447.138)
(0 -0 -490.751)
(0 -0 -534.162)
(0 -0 -577.242)
(0 -0 -619.874)
(0 -0 -661.966)
(0 -0 -703.425)
(0 -0 -744.193)
(0 -0 -784.192)
(0 -0 -823.383)
(0 -0 -861.705)
(0 -0 -899.115)
(0 -0 -935.596)
(0 -0 -971.018)
(0 -0 -1005.53)
(0 -0 -1038.69)
(0 -0 -1071.1)
(0 -0 -1101.62)
(0 -0 -1131.71)
(0 -0 -1159.21)
(0 -0 -1186.14)
(0 -0 -1211.04)
(0 -0 101.409)
(0 -0 98.0055)
(0 -0 98.2325)
(0 -0 99.7085)
(0 -0 101.223)
(0 -0 102.497)
(0 -0 103.723)
(0 -0 104.912)
(0 -0 105.89)
(0 -0 106.408)
(0 -0 106.185)
(0 -0 104.916)
(0 -0 102.307)
(0 -0 98.0924)
(0 -0 92.0544)
(0 -0 84.0324)
(0 -0 73.9245)
(0 -0 61.6858)
(0 -0 47.3234)
(0 -0 30.8888)
(0 -0 12.4706)
(0 -0 -7.81374)
(0 -0 -29.8253)
(0 -0 -53.4108)
(0 -0 -78.4085)
(0 -0 -104.654)
(0 -0 -131.985)
(0 -0 -160.242)
(0 -0 -189.276)
(0 -0 -218.945)
(0 -0 -249.116)
(0 -0 -279.669)
(0 -0 -310.49)
(0 -0 -341.479)
(0 -0 -372.536)
(0 -0 -403.581)
(0 -0 -434.526)
(0 -0 -465.303)
(0 -0 -495.839)
(0 -0 -526.06)
(0 -0 -555.929)
(0 -0 -585.312)
(0 -0 -614.277)
(0 -0 -642.507)
(0 -0 -670.326)
(0 -0 -697.025)
(0 -0 -723.352)
(0 -0 -748.145)
(0 -0 -772.273)
(0 -0 -795.148)
(0 -0 94.7335)
(0 -0 91.9564)
(0 -0 92.1717)
(0 -0 93.4989)
(0 -0 94.8818)
(0 -0 95.9824)
(0 -0 96.9837)
(0 -0 97.984)
(0 -0 98.9552)
(0 -0 99.8301)
(0 -0 100.519)
(0 -0 100.903)
(0 -0 100.842)
(0 -0 100.184)
(0 -0 98.7794)
(0 -0 96.4869)
(0 -0 93.183)
(0 -0 88.766)
(0 -0 83.1586)
(0 -0 76.3086)
(0 -0 68.1885)
(0 -0 58.7938)
(0 -0 48.1407)
(0 -0 36.2632)
(0 -0 23.2102)
(0 -0 9.04216)
(0 -0 -6.17152)
(0 -0 -22.356)
(0 -0 -39.4323)
(0 -0 -57.3212)
(0 -0 -75.9417)
(0 -0 -95.2164)
(0 -0 -115.067)
(0 -0 -135.42)
(0 -0 -156.201)
(0 -0 -177.343)
(0 -0 -198.776)
(0 -0 -220.435)
(0 -0 -242.259)
(0 -0 -264.175)
(0 -0 -286.143)
(0 -0 -308.053)
(0 -0 -329.924)
(0 -0 -351.538)
(0 -0 -373.05)
(0 -0 -394.04)
(0 -0 -414.845)
(0 -0 -434.865)
(0 -0 -454.411)
(0 -0 -473.229)
(0 -0 88.358)
(0 -0 86.1011)
(0 -0 86.2979)
(0 -0 87.4756)
(0 -0 88.7603)
(0 -0 89.7819)
(0 -0 90.6769)
(0 -0 91.5488)
(0 -0 92.4017)
(0 -0 93.2211)
(0 -0 93.9913)
(0 -0 94.6834)
(0 -0 95.2514)
(0 -0 95.6356)
(0 -0 95.7665)
(0 -0 95.5691)
(0 -0 94.9666)
(0 -0 93.8844)
(0 -0 92.253)
(0 -0 90.0108)
(0 -0 87.1057)
(0 -0 83.4958)
(0 -0 79.1508)
(0 -0 74.051)
(0 -0 68.1879)
(0 -0 61.5621)
(0 -0 54.1835)
(0 -0 46.0691)
(0 -0 37.2422)
(0 -0 27.7307)
(0 -0 17.5669)
(0 -0 6.7851)
(0 -0 -4.57702)
(0 -0 -16.4815)
(0 -0 -28.8875)
(0 -0 -41.7547)
(0 -0 -55.0414)
(0 -0 -68.7034)
(0 -0 -82.7016)
(0 -0 -96.982)
(0 -0 -111.517)
(0 -0 -126.226)
(0 -0 -141.111)
(0 -0 -156.035)
(0 -0 -171.057)
(0 -0 -185.947)
(0 -0 -200.83)
(0 -0 -215.404)
(0 -0 -229.753)
(0 -0 -243.724)
(0 -0 82.2814)
(0 -0 80.4575)
(0 -0 80.6446)
(0 -0 81.6775)
(0 -0 82.8589)
(0 -0 83.8152)
(0 -0 84.6423)
(0 -0 85.4368)
(0 -0 86.2068)
(0 -0 86.9456)
(0 -0 87.6551)
(0 -0 88.3348)
(0 -0 88.9766)
(0 -0 89.5645)
(0 -0 90.0756)
(0 -0 90.4813)
(0 -0 90.7482)
(0 -0 90.8394)
(0 -0 90.7165)
(0 -0 90.3403)
(0 -0 89.6731)
(0 -0 88.6792)
(0 -0 87.3262)
(0 -0 85.586)
(0 -0 83.4351)
(0 -0 80.8547)
(0 -0 77.8315)
(0 -0 74.3565)
(0 -0 70.4254)
(0 -0 66.038)
(0 -0 61.1976)
(0 -0 55.9106)
(0 -0 50.1864)
(0 -0 44.0367)
(0 -0 37.4756)
(0 -0 30.5195)
(0 -0 23.1857)
(0 -0 15.4963)
(0 -0 7.46921)
(0 -0 -0.864648)
(0 -0 -9.49083)
(0 -0 -18.3624)
(0 -0 -27.4762)
(0 -0 -36.7557)
(0 -0 -46.2193)
(0 -0 -55.7463)
(0 -0 -65.3753)
(0 -0 -74.952)
(0 -0 -84.4939)
(0 -0 -93.876)
(0 -0 76.5042)
(0 -0 75.0373)
(0 -0 75.2236)
(0 -0 76.1247)
(0 -0 77.2003)
(0 -0 78.09)
(0 -0 78.8557)
(0 -0 79.5877)
(0 -0 80.2959)
(0 -0 80.9728)
(0 -0 81.6211)
(0 -0 82.2459)
(0 -0 82.8491)
(0 -0 83.4292)
(0 -0 83.9815)
(0 -0 84.4986)
(0 -0 84.9701)
(0 -0 85.3826)
(0 -0 85.7206)
(0 -0 85.9664)
(0 -0 86.101)
(0 -0 86.1047)
(0 -0 85.9574)
(0 -0 85.6396)
(0 -0 85.1329)
(0 -0 84.4202)
(0 -0 83.4862)
(0 -0 82.3177)
(0 -0 80.9036)
(0 -0 79.2347)
(0 -0 77.3038)
(0 -0 75.1058)
(0 -0 72.6372)
(0 -0 69.8964)
(0 -0 66.8832)
(0 -0 63.5999)
(0 -0 60.0489)
(0 -0 56.2372)
(0 -0 52.1687)
(0 -0 47.8566)
(0 -0 43.3048)
(0 -0 38.5359)
(0 -0 33.5507)
(0 -0 28.3871)
(0 -0 23.039)
(0 -0 17.5672)
(0 -0 11.9571)
(0 -0 6.29623)
(0 -0 0.564602)
(0 -0 -5.11595)
(0 -0 71.0263)
(0 -0 69.8507)
(0 -0 70.0419)
(0 -0 70.8255)
(0 -0 71.7973)
(0 -0 72.6203)
(0 -0 73.3261)
(0 -0 73.9989)
(0 -0 74.6511)
(0 -0 75.275)
(0 -0 75.8713)
(0 -0 76.4452)
(0 -0 77.0001)
(0 -0 77.5374)
(0 -0 78.0577)
(0 -0 78.5603)
(0 -0 79.0434)
(0 -0 79.5038)
(0 -0 79.937)
(0 -0 80.3371)
(0 -0 80.697)
(0 -0 81.0084)
(0 -0 81.2623)
(0 -0 81.4489)
(0 -0 81.5583)
(0 -0 81.5805)
(0 -0 81.5059)
(0 -0 81.3251)
(0 -0 81.0296)
(0 -0 80.6114)
(0 -0 80.0628)
(0 -0 79.3775)
(0 -0 78.5491)
(0 -0 77.5727)
(0 -0 76.4434)
(0 -0 75.1583)
(0 -0 73.7139)
(0 -0 72.1099)
(0 -0 70.3438)
(0 -0 68.419)
(0 -0 66.3336)
(0 -0 64.0962)
(0 -0 61.7042)
(0 -0 59.1747)
(0 -0 56.5019)
(0 -0 53.7176)
(0 -0 50.8065)
(0 -0 47.8287)
(0 -0 44.7433)
(0 -0 41.672)
(0 -0 65.8462)
(0 -0 64.9062)
(0 -0 65.1054)
(0 -0 65.7851)
(0 -0 66.6568)
(0 -0 67.4144)
(0 -0 68.0627)
(0 -0 68.6782)
(0 -0 69.2766)
(0 -0 69.8504)
(0 -0 70.399)
(0 -0 70.9266)
(0 -0 71.4366)
(0 -0 71.9307)
(0 -0 72.4101)
(0 -0 72.8757)
(0 -0 73.328)
(0 -0 73.7671)
(0 -0 74.1923)
(0 -0 74.6024)
(0 -0 74.9955)
(0 -0 75.3691)
(0 -0 75.7199)
(0 -0 76.0442)
(0 -0 76.3379)
(0 -0 76.5966)
(0 -0 76.816)
(0 -0 76.9915)
(0 -0 77.1185)
(0 -0 77.1928)
(0 -0 77.2097)
(0 -0 77.1649)
(0 -0 77.054)
(0 -0 76.8728)
(0 -0 76.617)
(0 -0 76.2831)
(0 -0 75.867)
(0 -0 75.3665)
(0 -0 74.7778)
(0 -0 74.1003)
(0 -0 73.3304)
(0 -0 72.4706)
(0 -0 71.5161)
(0 -0 70.4752)
(0 -0 69.3392)
(0 -0 68.1283)
(0 -0 66.8212)
(0 -0 65.4664)
(0 -0 64.0085)
(0 -0 62.5612)
(0 -0 60.961)
(0 -0 60.2101)
(0 -0 60.418)
(0 -0 61.0066)
(0 -0 61.783)
(0 -0 62.4771)
(0 -0 63.0707)
(0 -0 63.6315)
(0 -0 64.1781)
(0 -0 64.7037)
(0 -0 65.2067)
(0 -0 65.6906)
(0 -0 66.1584)
(0 -0 66.6118)
(0 -0 67.0518)
(0 -0 67.4794)
(0 -0 67.8956)
(0 -0 68.301)
(0 -0 68.6961)
(0 -0 69.0809)
(0 -0 69.4554)
(0 -0 69.819)
(0 -0 70.1708)
(0 -0 70.5097)
(0 -0 70.8345)
(0 -0 71.1438)
(0 -0 71.436)
(0 -0 71.7097)
(0 -0 71.9634)
(0 -0 72.1953)
(0 -0 72.4037)
(0 -0 72.5865)
(0 -0 72.7416)
(0 -0 72.8666)
(0 -0 72.959)
(0 -0 73.0166)
(0 -0 73.0363)
(0 -0 73.0164)
(0 -0 72.9537)
(0 -0 72.8473)
(0 -0 72.6935)
(0 -0 72.4931)
(0 -0 72.241)
(0 -0 71.9424)
(0 -0 71.5867)
(0 -0 71.1904)
(0 -0 70.7275)
(0 -0 70.2427)
(0 -0 69.671)
(0 -0 69.122)
(0 -0 56.367)
(0 -0 55.7667)
(0 -0 55.9824)
(0 -0 56.4913)
(0 -0 57.1781)
(0 -0 57.8106)
(0 -0 58.3526)
(0 -0 58.8617)
(0 -0 59.3588)
(0 -0 59.8383)
(0 -0 60.2978)
(0 -0 60.74)
(0 -0 61.1676)
(0 -0 61.5823)
(0 -0 61.9849)
(0 -0 62.3764)
(0 -0 62.7575)
(0 -0 63.129)
(0 -0 63.4914)
(0 -0 63.8452)
(0 -0 64.1905)
(0 -0 64.5275)
(0 -0 64.856)
(0 -0 65.1756)
(0 -0 65.4863)
(0 -0 65.7876)
(0 -0 66.0796)
(0 -0 66.362)
(0 -0 66.6347)
(0 -0 66.8977)
(0 -0 67.1505)
(0 -0 67.3927)
(0 -0 67.6235)
(0 -0 67.842)
(0 -0 68.047)
(0 -0 68.2375)
(0 -0 68.4116)
(0 -0 68.5686)
(0 -0 68.7062)
(0 -0 68.8241)
(0 -0 68.9192)
(0 -0 68.9926)
(0 -0 69.0391)
(0 -0 69.0638)
(0 -0 69.0552)
(0 -0 69.0293)
(0 -0 68.9579)
(0 -0 68.8841)
(0 -0 68.74)
(0 -0 68.63)
(0 -0 52.0588)
(0 -0 51.5778)
(0 -0 51.7992)
(0 -0 52.2387)
(0 -0 52.8423)
(0 -0 53.4156)
(0 -0 53.9089)
(0 -0 54.3695)
(0 -0 54.8197)
(0 -0 55.2555)
(0 -0 55.6735)
(0 -0 56.076)
(0 -0 56.4655)
(0 -0 56.8434)
(0 -0 57.2105)
(0 -0 57.5676)
(0 -0 57.9153)
(0 -0 58.2543)
(0 -0 58.5852)
(0 -0 58.9084)
(0 -0 59.2241)
(0 -0 59.5324)
(0 -0 59.8332)
(0 -0 60.1267)
(0 -0 60.4127)
(0 -0 60.6914)
(0 -0 60.9632)
(0 -0 61.2283)
(0 -0 61.4873)
(0 -0 61.7406)
(0 -0 61.9886)
(0 -0 62.2314)
(0 -0 62.469)
(0 -0 62.7012)
(0 -0 62.9275)
(0 -0 63.1475)
(0 -0 63.3603)
(0 -0 63.5656)
(0 -0 63.762)
(0 -0 63.9495)
(0 -0 64.1259)
(0 -0 64.2926)
(0 -0 64.4448)
(0 -0 64.5879)
(0 -0 64.7106)
(0 -0 64.8285)
(0 -0 64.9137)
(0 -0 65.0076)
(0 -0 65.0434)
(0 -0 65.1202)
(0 -0 48.0302)
(0 -0 47.6433)
(0 -0 47.8673)
(0 -0 48.2467)
(0 -0 48.7738)
(0 -0 49.2905)
(0 -0 49.738)
(0 -0 50.1534)
(0 -0 50.5596)
(0 -0 50.9539)
(0 -0 51.333)
(0 -0 51.698)
(0 -0 52.0514)
(0 -0 52.3945)
(0 -0 52.7279)
(0 -0 53.0524)
(0 -0 53.3684)
(0 -0 53.6767)
(0 -0 53.9777)
(0 -0 54.2717)
(0 -0 54.5589)
(0 -0 54.8394)
(0 -0 55.1132)
(0 -0 55.3802)
(0 -0 55.6405)
(0 -0 55.8942)
(0 -0 56.142)
(0 -0 56.3842)
(0 -0 56.6215)
(0 -0 56.8547)
(0 -0 57.0843)
(0 -0 57.3107)
(0 -0 57.534)
(0 -0 57.7545)
(0 -0 57.9718)
(0 -0 58.1859)
(0 -0 58.3963)
(0 -0 58.6028)
(0 -0 58.8046)
(0 -0 59.0019)
(0 -0 59.193)
(0 -0 59.3794)
(0 -0 59.5569)
(0 -0 59.7308)
(0 -0 59.8906)
(0 -0 60.0513)
(0 -0 60.1864)
(0 -0 60.335)
(0 -0 60.4338)
(0 -0 60.5759)
(0 -0 44.2735)
(0 -0 43.9607)
(0 -0 44.1838)
(0 -0 44.5113)
(0 -0 44.969)
(0 -0 45.4319)
(0 -0 45.8366)
(0 -0 46.2101)
(0 -0 46.5751)
(0 -0 46.9306)
(0 -0 47.273)
(0 -0 47.6028)
(0 -0 47.9223)
(0 -0 48.2326)
(0 -0 48.5344)
(0 -0 48.8281)
(0 -0 49.1143)
(0 -0 49.3936)
(0 -0 49.6663)
(0 -0 49.9328)
(0 -0 50.1931)
(0 -0 50.4472)
(0 -0 50.6952)
(0 -0 50.9369)
(0 -0 51.1724)
(0 -0 51.4019)
(0 -0 51.6259)
(0 -0 51.8449)
(0 -0 52.0599)
(0 -0 52.2714)
(0 -0 52.48)
(0 -0 52.6863)
(0 -0 52.8906)
(0 -0 53.0929)
(0 -0 53.2932)
(0 -0 53.4914)
(0 -0 53.6871)
(0 -0 53.8804)
(0 -0 54.0705)
(0 -0 54.2579)
(0 -0 54.4408)
(0 -0 54.6211)
(0 -0 54.7947)
(0 -0 54.9671)
(0 -0 55.1282)
(0 -0 55.2923)
(0 -0 55.435)
(0 -0 55.5924)
(0 -0 55.7058)
(0 -0 55.8618)
(0 -0 40.78)
(0 -0 40.5257)
(0 -0 40.7443)
(0 -0 41.0271)
(0 -0 41.4224)
(0 -0 41.8346)
(0 -0 42.1993)
(0 -0 42.5343)
(0 -0 42.861)
(0 -0 43.1803)
(0 -0 43.4884)
(0 -0 43.7855)
(0 -0 44.0733)
(0 -0 44.3529)
(0 -0 44.625)
(0 -0 44.89)
(0 -0 45.1483)
(0 -0 45.4003)
(0 -0 45.6465)
(0 -0 45.887)
(0 -0 46.122)
(0 -0 46.3514)
(0 -0 46.5751)
(0 -0 46.7929)
(0 -0 47.0049)
(0 -0 47.2114)
(0 -0 47.4128)
(0 -0 47.6099)
(0 -0 47.8032)
(0 -0 47.9937)
(0 -0 48.1819)
(0 -0 48.3684)
(0 -0 48.5533)
(0 -0 48.7368)
(0 -0 48.9188)
(0 -0 49.0993)
(0 -0 49.2779)
(0 -0 49.4547)
(0 -0 49.6289)
(0 -0 49.801)
(0 -0 49.9695)
(0 -0 50.1361)
(0 -0 50.2972)
(0 -0 50.4578)
(0 -0 50.6087)
(0 -0 50.7632)
(0 -0 50.8989)
(0 -0 51.049)
(0 -0 51.1596)
(0 -0 51.3106)
(0 -0 37.5402)
(0 -0 37.3323)
(0 -0 37.5426)
(0 -0 37.7869)
(0 -0 38.1267)
(0 -0 38.4916)
(0 -0 38.8191)
(0 -0 39.1187)
(0 -0 39.4102)
(0 -0 39.6959)
(0 -0 39.9723)
(0 -0 40.239)
(0 -0 40.4974)
(0 -0 40.7486)
(0 -0 40.9931)
(0 -0 41.2313)
(0 -0 41.4635)
(0 -0 41.6902)
(0 -0 41.9116)
(0 -0 42.128)
(0 -0 42.3393)
(0 -0 42.5455)
(0 -0 42.7464)
(0 -0 42.9418)
(0 -0 43.1319)
(0 -0 43.3168)
(0 -0 43.497)
(0 -0 43.6733)
(0 -0 43.8464)
(0 -0 44.017)
(0 -0 44.1859)
(0 -0 44.3535)
(0 -0 44.52)
(0 -0 44.6856)
(0 -0 44.85)
(0 -0 45.0133)
(0 -0 45.175)
(0 -0 45.3353)
(0 -0 45.4933)
(0 -0 45.6496)
(0 -0 45.8028)
(0 -0 45.9544)
(0 -0 46.1012)
(0 -0 46.2476)
(0 -0 46.3856)
(0 -0 46.527)
(0 -0 46.6518)
(0 -0 46.79)
(0 -0 46.8927)
(0 -0 47.0329)
(0 -0 34.5432)
(0 -0 34.3728)
(0 -0 34.5709)
(0 -0 34.7822)
(0 -0 35.0731)
(0 -0 35.3943)
(0 -0 35.6875)
(0 -0 35.9549)
(0 -0 36.2142)
(0 -0 36.469)
(0 -0 36.7161)
(0 -0 36.9548)
(0 -0 37.186)
(0 -0 37.4109)
(0 -0 37.63)
(0 -0 37.8434)
(0 -0 38.0515)
(0 -0 38.2546)
(0 -0 38.4531)
(0 -0 38.6471)
(0 -0 38.8365)
(0 -0 39.0211)
(0 -0 39.2008)
(0 -0 39.3754)
(0 -0 39.5449)
(0 -0 39.7096)
(0 -0 39.8701)
(0 -0 40.027)
(0 -0 40.1811)
(0 -0 40.3333)
(0 -0 40.4842)
(0 -0 40.6342)
(0 -0 40.7835)
(0 -0 40.9322)
(0 -0 41.0802)
(0 -0 41.2273)
(0 -0 41.3732)
(0 -0 41.5178)
(0 -0 41.6605)
(0 -0 41.8017)
(0 -0 41.9401)
(0 -0 42.0771)
(0 -0 42.2099)
(0 -0 42.3423)
(0 -0 42.4673)
(0 -0 42.5954)
(0 -0 42.7089)
(0 -0 42.8344)
(0 -0 42.9282)
(0 -0 43.0563)
(0 -0 31.7778)
(0 -0 31.6379)
(0 -0 31.8208)
(0 -0 32.0039)
(0 -0 32.2522)
(0 -0 32.5333)
(0 -0 32.7948)
(0 -0 33.033)
(0 -0 33.2631)
(0 -0 33.4896)
(0 -0 33.7099)
(0 -0 33.9228)
(0 -0 34.1292)
(0 -0 34.33)
(0 -0 34.5256)
(0 -0 34.7163)
(0 -0 34.9022)
(0 -0 35.0837)
(0 -0 35.261)
(0 -0 35.4343)
(0 -0 35.6034)
(0 -0 35.7681)
(0 -0 35.9282)
(0 -0 36.0835)
(0 -0 36.234)
(0 -0 36.38)
(0 -0 36.5221)
(0 -0 36.661)
(0 -0 36.7976)
(0 -0 36.9327)
(0 -0 37.0668)
(0 -0 37.2005)
(0 -0 37.3339)
(0 -0 37.467)
(0 -0 37.5997)
(0 -0 37.7318)
(0 -0 37.863)
(0 -0 37.993)
(0 -0 38.1215)
(0 -0 38.2485)
(0 -0 38.3732)
(0 -0 38.4965)
(0 -0 38.6161)
(0 -0 38.7353)
(0 -0 38.8481)
(0 -0 38.9635)
(0 -0 39.0661)
(0 -0 39.1794)
(0 -0 39.2646)
(0 -0 39.3809)
(0 -0 29.2318)
(0 -0 29.1168)
(0 -0 29.2826)
(0 -0 29.4421)
(0 -0 29.6535)
(0 -0 29.8982)
(0 -0 30.1305)
(0 -0 30.3423)
(0 -0 30.546)
(0 -0 30.7467)
(0 -0 30.9426)
(0 -0 31.1321)
(0 -0 31.3159)
(0 -0 31.4946)
(0 -0 31.6688)
(0 -0 31.8386)
(0 -0 32.0042)
(0 -0 32.1659)
(0 -0 32.3239)
(0 -0 32.4782)
(0 -0 32.6287)
(0 -0 32.7751)
(0 -0 32.9172)
(0 -0 33.0547)
(0 -0 33.1877)
(0 -0 33.3164)
(0 -0 33.4416)
(0 -0 33.5639)
(0 -0 33.6842)
(0 -0 33.8035)
(0 -0 33.9222)
(0 -0 34.0409)
(0 -0 34.1596)
(0 -0 34.2784)
(0 -0 34.3971)
(0 -0 34.5153)
(0 -0 34.6329)
(0 -0 34.7496)
(0 -0 34.8649)
(0 -0 34.9789)
(0 -0 35.0908)
(0 -0 35.2014)
(0 -0 35.3088)
(0 -0 35.4157)
(0 -0 35.5171)
(0 -0 35.6207)
(0 -0 35.7132)
(0 -0 35.8152)
(0 -0 35.8924)
(0 -0 35.9974)
(0 -0 26.8927)
(0 -0 26.7979)
(0 -0 26.946)
(0 -0 27.0854)
(0 -0 27.2653)
(0 -0 27.4772)
(0 -0 27.6829)
(0 -0 27.871)
(0 -0 28.051)
(0 -0 28.2285)
(0 -0 28.4021)
(0 -0 28.5704)
(0 -0 28.7336)
(0 -0 28.8924)
(0 -0 29.0472)
(0 -0 29.198)
(0 -0 29.3452)
(0 -0 29.4888)
(0 -0 29.6292)
(0 -0 29.7661)
(0 -0 29.8996)
(0 -0 30.0293)
(0 -0 30.1549)
(0 -0 30.2761)
(0 -0 30.393)
(0 -0 30.506)
(0 -0 30.6155)
(0 -0 30.7226)
(0 -0 30.8281)
(0 -0 30.9329)
(0 -0 31.0375)
(0 -0 31.1424)
(0 -0 31.2477)
(0 -0 31.3534)
(0 -0 31.4592)
(0 -0 31.5648)
(0 -0 31.67)
(0 -0 31.7744)
(0 -0 31.8776)
(0 -0 31.9796)
(0 -0 32.0798)
(0 -0 32.1788)
(0 -0 32.275)
(0 -0 32.3706)
(0 -0 32.4616)
(0 -0 32.5542)
(0 -0 32.6375)
(0 -0 32.7288)
(0 -0 32.7988)
(0 -0 32.8932)
(0 -0 24.7478)
(0 -0 24.6694)
(0 -0 24.7996)
(0 -0 24.9219)
(0 -0 25.0749)
(0 -0 25.2578)
(0 -0 25.4393)
(0 -0 25.6062)
(0 -0 25.7652)
(0 -0 25.9217)
(0 -0 26.0754)
(0 -0 26.2246)
(0 -0 26.3693)
(0 -0 26.5101)
(0 -0 26.6473)
(0 -0 26.7811)
(0 -0 26.9115)
(0 -0 27.0388)
(0 -0 27.1632)
(0 -0 27.2845)
(0 -0 27.4026)
(0 -0 27.5171)
(0 -0 27.6277)
(0 -0 27.7341)
(0 -0 27.8363)
(0 -0 27.9348)
(0 -0 28.0301)
(0 -0 28.1233)
(0 -0 28.2153)
(0 -0 28.3068)
(0 -0 28.3986)
(0 -0 28.491)
(0 -0 28.5841)
(0 -0 28.6779)
(0 -0 28.772)
(0 -0 28.8661)
(0 -0 28.9599)
(0 -0 29.0532)
(0 -0 29.1454)
(0 -0 29.2365)
(0 -0 29.3261)
(0 -0 29.4144)
(0 -0 29.5004)
(0 -0 29.5857)
(0 -0 29.667)
(0 -0 29.7497)
(0 -0 29.8245)
(0 -0 29.906)
(0 -0 29.9694)
(0 -0 30.054)
(0 -0 22.784)
(0 -0 22.7189)
(0 -0 22.8319)
(0 -0 22.9394)
(0 -0 23.0696)
(0 -0 23.227)
(0 -0 23.3867)
(0 -0 23.5347)
(0 -0 23.675)
(0 -0 23.813)
(0 -0 23.9487)
(0 -0 24.0808)
(0 -0 24.209)
(0 -0 24.3337)
(0 -0 24.4552)
(0 -0 24.5736)
(0 -0 24.6891)
(0 -0 24.8017)
(0 -0 24.9117)
(0 -0 25.0189)
(0 -0 25.1231)
(0 -0 25.2239)
(0 -0 25.3209)
(0 -0 25.4139)
(0 -0 25.5028)
(0 -0 25.5882)
(0 -0 25.6706)
(0 -0 25.7512)
(0 -0 25.8308)
(0 -0 25.9104)
(0 -0 25.9905)
(0 -0 26.0716)
(0 -0 26.1537)
(0 -0 26.2367)
(0 -0 26.3203)
(0 -0 26.404)
(0 -0 26.4877)
(0 -0 26.5708)
(0 -0 26.6531)
(0 -0 26.7344)
(0 -0 26.8143)
(0 -0 26.8929)
(0 -0 26.9696)
(0 -0 27.0455)
(0 -0 27.1182)
(0 -0 27.1917)
(0 -0 27.2588)
(0 -0 27.3314)
(0 -0 27.3889)
(0 -0 27.4642)
(0 -0 20.9884)
(0 -0 20.9339)
(0 -0 21.0308)
(0 -0 21.1254)
(0 -0 21.2364)
(0 -0 21.3717)
(0 -0 21.5118)
(0 -0 21.6429)
(0 -0 21.7669)
(0 -0 21.8884)
(0 -0 22.0083)
(0 -0 22.1252)
(0 -0 22.2386)
(0 -0 22.349)
(0 -0 22.4564)
(0 -0 22.5612)
(0 -0 22.6633)
(0 -0 22.7628)
(0 -0 22.8599)
(0 -0 22.9545)
(0 -0 23.0463)
(0 -0 23.1348)
(0 -0 23.2196)
(0 -0 23.3004)
(0 -0 23.3774)
(0 -0 23.4509)
(0 -0 23.5217)
(0 -0 23.5909)
(0 -0 23.6594)
(0 -0 23.7282)
(0 -0 23.7979)
(0 -0 23.8688)
(0 -0 23.941)
(0 -0 24.0143)
(0 -0 24.0884)
(0 -0 24.1629)
(0 -0 24.2373)
(0 -0 24.3114)
(0 -0 24.3848)
(0 -0 24.4572)
(0 -0 24.5284)
(0 -0 24.5984)
(0 -0 24.6667)
(0 -0 24.7341)
(0 -0 24.7989)
(0 -0 24.8642)
(0 -0 24.9243)
(0 -0 24.9887)
(0 -0 25.0409)
(0 -0 25.1078)
(0 -0 19.3481)
(0 -0 19.3021)
(0 -0 19.3844)
(0 -0 19.4675)
(0 -0 19.5624)
(0 -0 19.6786)
(0 -0 19.8014)
(0 -0 19.9175)
(0 -0 20.0271)
(0 -0 20.1343)
(0 -0 20.2401)
(0 -0 20.3435)
(0 -0 20.4439)
(0 -0 20.5416)
(0 -0 20.6366)
(0 -0 20.7292)
(0 -0 20.8194)
(0 -0 20.9074)
(0 -0 20.9931)
(0 -0 21.0764)
(0 -0 21.1571)
(0 -0 21.2346)
(0 -0 21.3085)
(0 -0 21.3785)
(0 -0 21.4447)
(0 -0 21.5076)
(0 -0 21.5679)
(0 -0 21.6268)
(0 -0 21.6854)
(0 -0 21.7445)
(0 -0 21.8048)
(0 -0 21.8666)
(0 -0 21.93)
(0 -0 21.9947)
(0 -0 22.0603)
(0 -0 22.1265)
(0 -0 22.1928)
(0 -0 22.2588)
(0 -0 22.3242)
(0 -0 22.3887)
(0 -0 22.4521)
(0 -0 22.5143)
(0 -0 22.5751)
(0 -0 22.6349)
(0 -0 22.6927)
(0 -0 22.7505)
(0 -0 22.8044)
(0 -0 22.8615)
(0 -0 22.9088)
(0 -0 22.968)
(0 -0 17.8506)
(0 -0 17.8113)
(0 -0 17.8806)
(0 -0 17.9535)
(0 -0 18.035)
(0 -0 18.1347)
(0 -0 18.2422)
(0 -0 18.3452)
(0 -0 18.4423)
(0 -0 18.5369)
(0 -0 18.6303)
(0 -0 18.7219)
(0 -0 18.8109)
(0 -0 18.8973)
(0 -0 18.9815)
(0 -0 19.0634)
(0 -0 19.1431)
(0 -0 19.2208)
(0 -0 19.2964)
(0 -0 19.3698)
(0 -0 19.4406)
(0 -0 19.5084)
(0 -0 19.5725)
(0 -0 19.6329)
(0 -0 19.6895)
(0 -0 19.7428)
(0 -0 19.7938)
(0 -0 19.8435)
(0 -0 19.8931)
(0 -0 19.9436)
(0 -0 19.9955)
(0 -0 20.0493)
(0 -0 20.1048)
(0 -0 20.1619)
(0 -0 20.2201)
(0 -0 20.2789)
(0 -0 20.338)
(0 -0 20.3968)
(0 -0 20.4552)
(0 -0 20.5126)
(0 -0 20.5691)
(0 -0 20.6244)
(0 -0 20.6785)
(0 -0 20.7315)
(0 -0 20.783)
(0 -0 20.8342)
(0 -0 20.8825)
(0 -0 20.9329)
(0 -0 20.976)
(0 -0 21.0281)
(0 -0 16.4837)
(0 -0 16.4498)
(0 -0 16.5076)
(0 -0 16.5714)
(0 -0 16.6416)
(0 -0 16.7275)
(0 -0 16.8216)
(0 -0 16.913)
(0 -0 16.9992)
(0 -0 17.0829)
(0 -0 17.1656)
(0 -0 17.2468)
(0 -0 17.3257)
(0 -0 17.4025)
(0 -0 17.477)
(0 -0 17.5495)
(0 -0 17.62)
(0 -0 17.6887)
(0 -0 17.7554)
(0 -0 17.8201)
(0 -0 17.8822)
(0 -0 17.9413)
(0 -0 17.9969)
(0 -0 18.0487)
(0 -0 18.0967)
(0 -0 18.1415)
(0 -0 18.1841)
(0 -0 18.2257)
(0 -0 18.2673)
(0 -0 18.3101)
(0 -0 18.3547)
(0 -0 18.4012)
(0 -0 18.4499)
(0 -0 18.5002)
(0 -0 18.5518)
(0 -0 18.6042)
(0 -0 18.6569)
(0 -0 18.7095)
(0 -0 18.7616)
(0 -0 18.8128)
(0 -0 18.8632)
(0 -0 18.9124)
(0 -0 18.9605)
(0 -0 19.0075)
(0 -0 19.0535)
(0 -0 19.0987)
(0 -0 19.1421)
(0 -0 19.1865)
(0 -0 19.2258)
(0 -0 19.2715)
(0 -0 15.2359)
(0 -0 15.2061)
(0 -0 15.2542)
(0 -0 15.3097)
(0 -0 15.3707)
(0 -0 15.4449)
(0 -0 15.5273)
(0 -0 15.6086)
(0 -0 15.6854)
(0 -0 15.7597)
(0 -0 15.8331)
(0 -0 15.9052)
(0 -0 15.9754)
(0 -0 16.0436)
(0 -0 16.1098)
(0 -0 16.1742)
(0 -0 16.2367)
(0 -0 16.2974)
(0 -0 16.3563)
(0 -0 16.4133)