/*--------------------------------*- C++ -*----------------------------------*\
  =========                 |
  \\      /  F ield         | OpenFOAM: The Open Source CFD Toolbox
   \\    /   O peration     | Website:  https://openfoam.org
    \\  /    A nd           | Version:  7
     \\/     M anipulation  |
\*---------------------------------------------------------------------------*/
FoamFile
{
    version     2.0;
    format      ascii;
    class       volScalarField;
    location    "0.37";
    object      k;
}
// * * * * * * * * * * * * * * * * * * * * * * * * * * * * * * * * * * * * * //

dimensions      [0 2 -2 0 0 0 0];

internalField   nonuniform List<scalar> 
70000
(
1.08549e-05
4.21867e-06
2.82415e-06
2.31653e-06
1.99712e-06
1.75677e-06
1.56468e-06
1.40784e-06
1.27691e-06
1.16629e-06
1.0712e-06
9.89294e-07
9.17588e-07
8.55031e-07
7.99496e-07
7.50532e-07
7.06538e-07
6.67366e-07
6.31814e-07
5.9992e-07
5.70704e-07
5.44396e-07
5.20003e-07
4.98084e-07
4.77393e-07
4.58995e-07
4.41177e-07
4.25629e-07
4.1009e-07
3.96838e-07
3.83194e-07
3.71746e-07
3.59781e-07
3.4968e-07
3.39273e-07
3.30153e-07
3.21144e-07
3.12887e-07
3.04815e-07
2.97821e-07
2.89761e-07
2.84592e-07
2.76308e-07
2.72224e-07
2.64374e-07
2.61376e-07
2.54948e-07
2.64548e-07
2.57764e-07
4.25161e-07
1.72794e-05
1.13671e-05
8.52001e-06
7.00966e-06
6.03612e-06
5.30982e-06
4.72999e-06
4.25634e-06
3.86086e-06
3.52676e-06
3.23959e-06
2.99221e-06
2.77565e-06
2.58665e-06
2.41891e-06
2.27093e-06
2.13802e-06
2.01961e-06
1.91217e-06
1.81576e-06
1.72741e-06
1.64791e-06
1.57409e-06
1.50789e-06
1.44522e-06
1.38966e-06
1.33569e-06
1.28871e-06
1.24167e-06
1.20157e-06
1.16035e-06
1.12559e-06
1.08956e-06
1.05878e-06
1.02753e-06
9.99683e-07
9.72593e-07
9.47529e-07
9.22973e-07
9.02079e-07
8.77287e-07
8.61879e-07
8.36701e-07
8.24215e-07
8.00272e-07
7.90852e-07
7.70767e-07
7.92676e-07
7.76498e-07
9.30337e-07
1.937e-05
1.61296e-05
1.32905e-05
1.12887e-05
9.82706e-06
8.69453e-06
7.77617e-06
7.0186e-06
6.38136e-06
5.84034e-06
5.37359e-06
4.97033e-06
4.61644e-06
4.30682e-06
4.0316e-06
3.78821e-06
3.56937e-06
3.37401e-06
3.19656e-06
3.0372e-06
2.89086e-06
2.7593e-06
2.63666e-06
2.52703e-06
2.42266e-06
2.33057e-06
2.24054e-06
2.16251e-06
2.08411e-06
2.01721e-06
1.94873e-06
1.89034e-06
1.83079e-06
1.77871e-06
1.72725e-06
1.68008e-06
1.63523e-06
1.59327e-06
1.55174e-06
1.51764e-06
1.47516e-06
1.4499e-06
1.40763e-06
1.38651e-06
1.34591e-06
1.32987e-06
1.29455e-06
1.31921e-06
1.29819e-06
1.36671e-06
1.9861e-05
1.826e-05
1.60854e-05
1.41998e-05
1.26391e-05
1.13476e-05
1.02588e-05
9.3368e-06
8.54433e-06
7.86146e-06
7.26577e-06
6.74653e-06
6.28748e-06
5.88314e-06
5.52185e-06
5.20043e-06
4.91025e-06
4.65006e-06
4.41282e-06
4.19933e-06
4.00228e-06
3.82532e-06
3.65911e-06
3.51113e-06
3.36894e-06
3.24416e-06
3.12115e-06
3.01482e-06
2.90773e-06
2.81579e-06
2.72262e-06
2.64154e-06
2.56095e-06
2.48801e-06
2.41846e-06
2.35245e-06
2.29108e-06
2.23346e-06
2.17496e-06
2.12943e-06
2.06918e-06
2.03482e-06
1.97629e-06
1.94696e-06
1.88984e-06
1.86825e-06
1.81645e-06
1.83524e-06
1.81689e-06
1.82726e-06
1.99706e-05
1.7846e-05
1.60749e-05
1.47669e-05
1.36026e-05
1.25379e-05
1.15687e-05
1.07014e-05
9.91926e-06
9.22409e-06
8.6029e-06
8.05053e-06
7.55392e-06
7.11011e-06
6.70859e-06
6.34702e-06
6.01737e-06
5.71937e-06
5.44527e-06
5.19767e-06
4.96679e-06
4.75954e-06
4.5624e-06
4.3876e-06
4.21738e-06
4.06863e-06
3.92052e-06
3.79234e-06
3.66331e-06
3.55096e-06
3.43907e-06
3.33858e-06
3.24209e-06
3.15095e-06
3.0673e-06
2.98524e-06
2.90977e-06
2.83981e-06
2.76558e-06
2.71156e-06
2.63533e-06
2.59315e-06
2.52062e-06
2.4844e-06
2.41275e-06
2.38611e-06
2.31896e-06
2.32711e-06
2.31582e-06
2.28327e-06
2.00095e-05
1.47038e-05
1.37486e-05
1.32125e-05
1.2593e-05
1.19292e-05
1.12792e-05
1.06594e-05
1.00816e-05
9.54814e-06
9.04669e-06
8.58066e-06
8.14637e-06
7.74645e-06
7.37449e-06
7.03155e-06
6.71265e-06
6.42021e-06
6.1466e-06
5.89767e-06
5.66112e-06
5.44853e-06
5.24212e-06
5.05964e-06
4.87851e-06
4.7204e-06
4.56121e-06
4.42229e-06
4.28317e-06
4.15892e-06
4.03834e-06
3.92528e-06
3.82099e-06
3.71772e-06
3.626e-06
3.53385e-06
3.44846e-06
3.37179e-06
3.2854e-06
3.22676e-06
3.13907e-06
3.09131e-06
3.00876e-06
2.96784e-06
2.88614e-06
2.85538e-06
2.77702e-06
2.77303e-06
2.76146e-06
2.70854e-06
2.01332e-05
1.54656e-05
9.63465e-06
9.40061e-06
9.49617e-06
9.4961e-06
9.43819e-06
9.30121e-06
9.05999e-06
8.78674e-06
8.49147e-06
8.1944e-06
7.90216e-06
7.6188e-06
7.34139e-06
7.08085e-06
6.83272e-06
6.59926e-06
6.37342e-06
6.16474e-06
5.95936e-06
5.77364e-06
5.58723e-06
5.42235e-06
5.25397e-06
5.10622e-06
4.95559e-06
4.82171e-06
4.68901e-06
4.56574e-06
4.44999e-06
4.33544e-06
4.23398e-06
4.1286e-06
4.03695e-06
3.94381e-06
3.85513e-06
3.77915e-06
3.68738e-06
3.6288e-06
3.53691e-06
3.48725e-06
3.40069e-06
3.35826e-06
3.27282e-06
3.23984e-06
3.15913e-06
3.14264e-06
3.12898e-06
3.0659e-06
2.01714e-05
1.86748e-05
8.68594e-06
5.54102e-06
5.63251e-06
5.93851e-06
6.2979e-06
6.58468e-06
6.76533e-06
6.87497e-06
6.89529e-06
6.87618e-06
6.82449e-06
6.7361e-06
6.62562e-06
6.50339e-06
6.36463e-06
6.22351e-06
6.07811e-06
5.93906e-06
5.79376e-06
5.66059e-06
5.52031e-06
5.39532e-06
5.26281e-06
5.1469e-06
5.02705e-06
4.91682e-06
4.80911e-06
4.70294e-06
4.60694e-06
4.50537e-06
4.41861e-06
4.32405e-06
4.24235e-06
4.15913e-06
4.07645e-06
4.00915e-06
3.92181e-06
3.86868e-06
3.78185e-06
3.7354e-06
3.65286e-06
3.61265e-06
3.53141e-06
3.49925e-06
3.42562e-06
3.39573e-06
3.38455e-06
3.32268e-06
2.01673e-05
1.97236e-05
1.61634e-05
4.85533e-06
3.04268e-06
3.10732e-06
3.37846e-06
3.81001e-06
4.17732e-06
4.49666e-06
4.74529e-06
4.93593e-06
5.07736e-06
5.17848e-06
5.23726e-06
5.27423e-06
5.27776e-06
5.2694e-06
5.24609e-06
5.21022e-06
5.15843e-06
5.10655e-06
5.04177e-06
4.98041e-06
4.9086e-06
4.84052e-06
4.76568e-06
4.69196e-06
4.62073e-06
4.54435e-06
4.47777e-06
4.40157e-06
4.3382e-06
4.26553e-06
4.20246e-06
4.13809e-06
4.07077e-06
4.01886e-06
3.94696e-06
3.90509e-06
3.83328e-06
3.79567e-06
3.72632e-06
3.69255e-06
3.62409e-06
3.59646e-06
3.5381e-06
3.50101e-06
3.49326e-06
3.44263e-06
2.01477e-05
1.99341e-05
1.90643e-05
1.44913e-05
5.23055e-06
2.15298e-06
1.91504e-06
1.99566e-06
2.21139e-06
2.51169e-06
2.78898e-06
3.04386e-06
3.26988e-06
3.4683e-06
3.63236e-06
3.77256e-06
3.88372e-06
3.97437e-06
4.04393e-06
4.09935e-06
4.1358e-06
4.1621e-06
4.17583e-06
4.17922e-06
4.1758e-06
4.16781e-06
4.15262e-06
4.13093e-06
4.10997e-06
4.07891e-06
4.05342e-06
4.01714e-06
3.98751e-06
3.94921e-06
3.91524e-06
3.87928e-06
3.83853e-06
3.80856e-06
3.76066e-06
3.73393e-06
3.68407e-06
3.65882e-06
3.60933e-06
3.58523e-06
3.53573e-06
3.51567e-06
3.47589e-06
3.44253e-06
3.43908e-06
3.40554e-06
2.01217e-05
1.9966e-05
1.96417e-05
1.85435e-05
1.52019e-05
8.33514e-06
3.08983e-06
1.63111e-06
1.44249e-06
1.45075e-06
1.52955e-06
1.69318e-06
1.87649e-06
2.05532e-06
2.22598e-06
2.38786e-06
2.53473e-06
2.66873e-06
2.78612e-06
2.89242e-06
2.98327e-06
3.06362e-06
3.1314e-06
3.18956e-06
3.2375e-06
3.27762e-06
3.31138e-06
3.33558e-06
3.35783e-06
3.37034e-06
3.38229e-06
3.38695e-06
3.3894e-06
3.38806e-06
3.38491e-06
3.37907e-06
3.36858e-06
3.36203e-06
3.34688e-06
3.33829e-06
3.31988e-06
3.31025e-06
3.2897e-06
3.27941e-06
3.25679e-06
3.24841e-06
3.23152e-06
3.21518e-06
3.21953e-06
3.20507e-06
2.00982e-05
1.99327e-05
1.97569e-05
1.93509e-05
1.85021e-05
1.65263e-05
1.23021e-05
6.82584e-06
2.9635e-06
1.48793e-06
1.24224e-06
1.14824e-06
1.15372e-06
1.19813e-06
1.29257e-06
1.40193e-06
1.51455e-06
1.62718e-06
1.73709e-06
1.84454e-06
1.94465e-06
2.03966e-06
2.12682e-06
2.20745e-06
2.28173e-06
2.34793e-06
2.41024e-06
2.46351e-06
2.51431e-06
2.55689e-06
2.59719e-06
2.63072e-06
2.66208e-06
2.68758e-06
2.71137e-06
2.7311e-06
2.74694e-06
2.76335e-06
2.77276e-06
2.78549e-06
2.79043e-06
2.79952e-06
2.80236e-06
2.80832e-06
2.80965e-06
2.81431e-06
2.81604e-06
2.81933e-06
2.83648e-06
2.83678e-06
2.00782e-05
1.98876e-05
1.97565e-05
1.94594e-05
1.91433e-05
1.86366e-05
1.75455e-05
1.54089e-05
1.17044e-05
7.3985e-06
3.94182e-06
1.8915e-06
1.20362e-06
1.05645e-06
9.80899e-07
9.44928e-07
9.57254e-07
9.93932e-07
1.05644e-06
1.12259e-06
1.19258e-06
1.26416e-06
1.33624e-06
1.40723e-06
1.47806e-06
1.54376e-06
1.6095e-06
1.66907e-06
1.72803e-06
1.78132e-06
1.83351e-06
1.88021e-06
1.92588e-06
1.96644e-06
2.00562e-06
2.04099e-06
2.07371e-06
2.10497e-06
2.13193e-06
2.15979e-06
2.18173e-06
2.20549e-06
2.22537e-06
2.2453e-06
2.26366e-06
2.28029e-06
2.30111e-06
2.31394e-06
2.34323e-06
2.36044e-06
2.00615e-05
1.98539e-05
1.97339e-05
1.94697e-05
1.92526e-05
1.90438e-05
1.8731e-05
1.81833e-05
1.70825e-05
1.52095e-05
1.25232e-05
9.17375e-06
5.90575e-06
3.42334e-06
1.84605e-06
1.15561e-06
9.6247e-07
8.90252e-07
8.35189e-07
7.98633e-07
8.01686e-07
8.16947e-07
8.49227e-07
8.88598e-07
9.30554e-07
9.73527e-07
1.0203e-06
1.0655e-06
1.11327e-06
1.15908e-06
1.20575e-06
1.24948e-06
1.29369e-06
1.33494e-06
1.37581e-06
1.41434e-06
1.45174e-06
1.48755e-06
1.52106e-06
1.55508e-06
1.5851e-06
1.61491e-06
1.64503e-06
1.67048e-06
1.70059e-06
1.72298e-06
1.75401e-06
1.77487e-06
1.81015e-06
1.83697e-06
2.00476e-05
1.98303e-05
1.97073e-05
1.94475e-05
1.92695e-05
1.91118e-05
1.89612e-05
1.87456e-05
1.84559e-05
1.79025e-05
1.70624e-05
1.56706e-05
1.38407e-05
1.14656e-05
8.76804e-06
6.15122e-06
3.99234e-06
2.43728e-06
1.46512e-06
1.01483e-06
8.58616e-07
7.97398e-07
7.49297e-07
7.10363e-07
6.8336e-07
6.83733e-07
6.90783e-07
7.06847e-07
7.30165e-07
7.54895e-07
7.8149e-07
8.08642e-07
8.38314e-07
8.67691e-07
8.98427e-07
9.29066e-07
9.59984e-07
9.90529e-07
1.02002e-06
1.05085e-06
1.07945e-06
1.10699e-06
1.13785e-06
1.16254e-06
1.19369e-06
1.21866e-06
1.2481e-06
1.27402e-06
1.30917e-06
1.33747e-06
2.00363e-05
1.98125e-05
1.96847e-05
1.9417e-05
1.92553e-05
1.91052e-05
1.89962e-05
1.88447e-05
1.87073e-05
1.84946e-05
1.82407e-05
1.78218e-05
1.7214e-05
1.63352e-05
1.51157e-05
1.35649e-05
1.17286e-05
9.61898e-06
7.46047e-06
5.45715e-06
3.79434e-06
2.53565e-06
1.64614e-06
1.11564e-06
8.6201e-07
7.58446e-07
7.09049e-07
6.71932e-07
6.36517e-07
6.09365e-07
5.91206e-07
5.8836e-07
5.91481e-07
5.99139e-07
6.11883e-07
6.26648e-07
6.42275e-07
6.59167e-07
6.7604e-07
6.95574e-07
7.1476e-07
7.33752e-07
7.56673e-07
7.7564e-07
7.99339e-07
8.21184e-07
8.43576e-07
8.66457e-07
8.96043e-07
9.22443e-07
2.00272e-05
1.97986e-05
1.96655e-05
1.93949e-05
1.92293e-05
1.90775e-05
1.89777e-05
1.88482e-05
1.8731e-05
1.85914e-05
1.84536e-05
1.82836e-05
1.80717e-05
1.77842e-05
1.73907e-05
1.68408e-05
1.61187e-05
1.51819e-05
1.40155e-05
1.26543e-05
1.11211e-05
9.43196e-06
7.70141e-06
6.05719e-06
4.57481e-06
3.35909e-06
2.40233e-06
1.68137e-06
1.1871e-06
8.96531e-07
7.46521e-07
6.74507e-07
6.34283e-07
6.04843e-07
5.77021e-07
5.51712e-07
5.31069e-07
5.18189e-07
5.11534e-07
5.12286e-07
5.15232e-07
5.20936e-07
5.29948e-07
5.38609e-07
5.49534e-07
5.61962e-07
5.73865e-07
5.87929e-07
6.06934e-07
6.26354e-07
2.00201e-05
1.97899e-05
1.96455e-05
1.93783e-05
1.92048e-05
1.90483e-05
1.89388e-05
1.88216e-05
1.87089e-05
1.85846e-05
1.84653e-05
1.83396e-05
1.8214e-05
1.80703e-05
1.7912e-05
1.77107e-05
1.74629e-05
1.7138e-05
1.67244e-05
1.61893e-05
1.5539e-05
1.47357e-05
1.37985e-05
1.2711e-05
1.15366e-05
1.02486e-05
8.88601e-06
7.51579e-06
6.19246e-06
4.98065e-06
3.89813e-06
3.00704e-06
2.28023e-06
1.70148e-06
1.26613e-06
9.65868e-07
7.79943e-07
6.73782e-07
6.14899e-07
5.79673e-07
5.54186e-07
5.31996e-07
5.11957e-07
4.93168e-07
4.77776e-07
4.679e-07
4.62332e-07
4.63235e-07
4.67349e-07
4.77811e-07
2.00145e-05
1.97899e-05
1.96192e-05
1.93649e-05
1.91839e-05
1.90211e-05
1.89023e-05
1.87847e-05
1.86683e-05
1.85481e-05
1.84345e-05
1.83171e-05
1.8205e-05
1.80847e-05
1.79717e-05
1.7848e-05
1.77238e-05
1.75785e-05
1.74181e-05
1.72184e-05
1.69851e-05
1.66905e-05
1.63402e-05
1.5906e-05
1.5397e-05
1.47958e-05
1.41074e-05
1.33174e-05
1.24545e-05
1.15047e-05
1.05232e-05
9.4685e-06
8.38311e-06
7.29945e-06
6.24916e-06
5.25856e-06
4.35296e-06
3.54247e-06
2.85483e-06
2.27341e-06
1.78946e-06
1.39527e-06
1.09378e-06
8.77062e-07
7.35612e-07
6.4986e-07
5.99185e-07
5.72801e-07
5.63403e-07
5.69726e-07
2.00103e-05
1.97941e-05
1.95923e-05
1.93509e-05
1.91648e-05
1.89951e-05
1.88681e-05
1.87479e-05
1.86277e-05
1.85043e-05
1.83879e-05
1.82698e-05
1.81597e-05
1.80456e-05
1.79391e-05
1.78288e-05
1.77216e-05
1.76124e-05
1.75039e-05
1.73912e-05
1.72732e-05
1.71424e-05
1.69978e-05
1.68307e-05
1.66363e-05
1.6409e-05
1.61451e-05
1.58335e-05
1.5474e-05
1.50581e-05
1.45897e-05
1.40638e-05
1.34754e-05
1.28334e-05
1.21326e-05
1.13943e-05
1.06089e-05
9.8077e-06
8.96127e-06
8.09652e-06
7.23407e-06
6.37587e-06
5.55407e-06
4.76304e-06
4.03097e-06
3.35702e-06
2.77051e-06
2.28325e-06
1.88846e-06
1.6591e-06
2.00071e-05
1.98018e-05
1.95675e-05
1.93374e-05
1.91468e-05
1.89707e-05
1.88353e-05
1.87128e-05
1.85879e-05
1.8462e-05
1.834e-05
1.82206e-05
1.8106e-05
1.79903e-05
1.78809e-05
1.77721e-05
1.76668e-05
1.75663e-05
1.74624e-05
1.73664e-05
1.72639e-05
1.71671e-05
1.70649e-05
1.69681e-05
1.68595e-05
1.67526e-05
1.66323e-05
1.65048e-05
1.63571e-05
1.61943e-05
1.60116e-05
1.58023e-05
1.55664e-05
1.53014e-05
1.49994e-05
1.46705e-05
1.42938e-05
1.38976e-05
1.34446e-05
1.29677e-05
1.24477e-05
1.18887e-05
1.12963e-05
1.06735e-05
1.00107e-05
9.33958e-06
8.58847e-06
7.85234e-06
7.04006e-06
6.27581e-06
2.00047e-05
1.98106e-05
1.95443e-05
1.93241e-05
1.91292e-05
1.8948e-05
1.88035e-05
1.86791e-05
1.85493e-05
1.84214e-05
1.82934e-05
1.81724e-05
1.80526e-05
1.79354e-05
1.78206e-05
1.77116e-05
1.75995e-05
1.74997e-05
1.73903e-05
1.72971e-05
1.71943e-05
1.71055e-05
1.70075e-05
1.69233e-05
1.68273e-05
1.67426e-05
1.66501e-05
1.65653e-05
1.64723e-05
1.63807e-05
1.62903e-05
1.61877e-05
1.60844e-05
1.59692e-05
1.58446e-05
1.57107e-05
1.55555e-05
1.54024e-05
1.52049e-05
1.50158e-05
1.47891e-05
1.45504e-05
1.42776e-05
1.3987e-05
1.36607e-05
1.33236e-05
1.29024e-05
1.25098e-05
1.20019e-05
1.14093e-05
2.0003e-05
1.98199e-05
1.95227e-05
1.93105e-05
1.91116e-05
1.89268e-05
1.87728e-05
1.86463e-05
1.85121e-05
1.83824e-05
1.82487e-05
1.81261e-05
1.8001e-05
1.78823e-05
1.77619e-05
1.76523e-05
1.75342e-05
1.7434e-05
1.73186e-05
1.7225e-05
1.71158e-05
1.70257e-05
1.69227e-05
1.68384e-05
1.67399e-05
1.66587e-05
1.65711e-05
1.64936e-05
1.64079e-05
1.63286e-05
1.62546e-05
1.61727e-05
1.60959e-05
1.60164e-05
1.59389e-05
1.58595e-05
1.57762e-05
1.57032e-05
1.56006e-05
1.55207e-05
1.54178e-05
1.53202e-05
1.51993e-05
1.50821e-05
1.49409e-05
1.48132e-05
1.46154e-05
1.44528e-05
1.42316e-05
1.38901e-05
2.00018e-05
1.98287e-05
1.9503e-05
1.92958e-05
1.90938e-05
1.89069e-05
1.87438e-05
1.86145e-05
1.84767e-05
1.8345e-05
1.82065e-05
1.8082e-05
1.79523e-05
1.78319e-05
1.77061e-05
1.75956e-05
1.74723e-05
1.73708e-05
1.72507e-05
1.71556e-05
1.70416e-05
1.69499e-05
1.68422e-05
1.67554e-05
1.66532e-05
1.65676e-05
1.64755e-05
1.63958e-05
1.63057e-05
1.62255e-05
1.61504e-05
1.6072e-05
1.59987e-05
1.59267e-05
1.58557e-05
1.57853e-05
1.57157e-05
1.56567e-05
1.55748e-05
1.5514e-05
1.54446e-05
1.53773e-05
1.53038e-05
1.52364e-05
1.51535e-05
1.50972e-05
1.49892e-05
1.49025e-05
1.47946e-05
1.45991e-05
2.00009e-05
1.98305e-05
1.94869e-05
1.9281e-05
1.90762e-05
1.88888e-05
1.87171e-05
1.85841e-05
1.84437e-05
1.83097e-05
1.81674e-05
1.80407e-05
1.79071e-05
1.77848e-05
1.76544e-05
1.75425e-05
1.74148e-05
1.73112e-05
1.71878e-05
1.70903e-05
1.69725e-05
1.68792e-05
1.67674e-05
1.66782e-05
1.6573e-05
1.64844e-05
1.63882e-05
1.63068e-05
1.62107e-05
1.61294e-05
1.60483e-05
1.59678e-05
1.58874e-05
1.58141e-05
1.57372e-05
1.56655e-05
1.5594e-05
1.55335e-05
1.54548e-05
1.53952e-05
1.53349e-05
1.52708e-05
1.52063e-05
1.51481e-05
1.50741e-05
1.50304e-05
1.49433e-05
1.48712e-05
1.47757e-05
1.46338e-05
2.00003e-05
1.98288e-05
1.94735e-05
1.92651e-05
1.90584e-05
1.88722e-05
1.86929e-05
1.85555e-05
1.84132e-05
1.82771e-05
1.8132e-05
1.80027e-05
1.7866e-05
1.77417e-05
1.76076e-05
1.74936e-05
1.73627e-05
1.72566e-05
1.71306e-05
1.70306e-05
1.69094e-05
1.68148e-05
1.66992e-05
1.66076e-05
1.65e-05
1.64087e-05
1.63092e-05
1.62263e-05
1.61257e-05
1.60435e-05
1.59575e-05
1.58752e-05
1.57904e-05
1.5715e-05
1.56329e-05
1.5558e-05
1.54839e-05
1.5417e-05
1.5337e-05
1.52696e-05
1.52058e-05
1.51376e-05
1.50678e-05
1.501e-05
1.49298e-05
1.48829e-05
1.47997e-05
1.47276e-05
1.46296e-05
1.45116e-05
2e-05
1.98271e-05
1.94621e-05
1.92477e-05
1.90398e-05
1.8857e-05
1.86711e-05
1.85287e-05
1.83851e-05
1.82473e-05
1.81001e-05
1.79686e-05
1.78293e-05
1.7703e-05
1.75662e-05
1.74497e-05
1.73168e-05
1.72079e-05
1.70801e-05
1.69775e-05
1.68532e-05
1.67579e-05
1.66384e-05
1.65446e-05
1.64352e-05
1.63414e-05
1.6239e-05
1.61543e-05
1.60506e-05
1.59676e-05
1.58772e-05
1.57936e-05
1.5706e-05
1.56287e-05
1.55423e-05
1.54663e-05
1.53883e-05
1.53179e-05
1.52361e-05
1.51655e-05
1.50951e-05
1.50268e-05
1.4949e-05
1.48918e-05
1.48047e-05
1.47513e-05
1.46654e-05
1.45893e-05
1.44827e-05
1.4364e-05
1.99999e-05
1.9826e-05
1.94538e-05
1.92301e-05
1.90212e-05
1.88436e-05
1.86523e-05
1.85048e-05
1.83599e-05
1.8221e-05
1.80724e-05
1.7939e-05
1.77975e-05
1.76695e-05
1.75311e-05
1.74119e-05
1.72777e-05
1.71664e-05
1.7037e-05
1.69323e-05
1.68051e-05
1.67094e-05
1.65863e-05
1.64906e-05
1.63795e-05
1.62838e-05
1.61788e-05
1.60918e-05
1.59865e-05
1.59023e-05
1.58076e-05
1.57233e-05
1.56336e-05
1.55542e-05
1.54647e-05
1.53885e-05
1.53056e-05
1.52345e-05
1.515e-05
1.50791e-05
1.5001e-05
1.49345e-05
1.48516e-05
1.47925e-05
1.47036e-05
1.46416e-05
1.45574e-05
1.44769e-05
1.43665e-05
1.425e-05
1.99999e-05
1.98254e-05
1.94485e-05
1.92132e-05
1.90034e-05
1.88323e-05
1.86372e-05
1.84843e-05
1.83384e-05
1.8199e-05
1.80495e-05
1.79148e-05
1.77714e-05
1.7642e-05
1.75027e-05
1.7381e-05
1.7246e-05
1.7133e-05
1.70021e-05
1.68959e-05
1.67662e-05
1.66703e-05
1.6544e-05
1.64469e-05
1.63338e-05
1.62372e-05
1.61295e-05
1.60401e-05
1.59344e-05
1.58484e-05
1.575e-05
1.56658e-05
1.55738e-05
1.54922e-05
1.5401e-05
1.5324e-05
1.52369e-05
1.5165e-05
1.50795e-05
1.50068e-05
1.49237e-05
1.48574e-05
1.47732e-05
1.47093e-05
1.46224e-05
1.45518e-05
1.44711e-05
1.43872e-05
1.42743e-05
1.41619e-05
1.99999e-05
1.98252e-05
1.9446e-05
1.91982e-05
1.8987e-05
1.88233e-05
1.86261e-05
1.84681e-05
1.83212e-05
1.81816e-05
1.8032e-05
1.78964e-05
1.77515e-05
1.76212e-05
1.74817e-05
1.7358e-05
1.72225e-05
1.71086e-05
1.69763e-05
1.6869e-05
1.67378e-05
1.66411e-05
1.65125e-05
1.64147e-05
1.62992e-05
1.62028e-05
1.60921e-05
1.60007e-05
1.58957e-05
1.5807e-05
1.57057e-05
1.56222e-05
1.55275e-05
1.5444e-05
1.53523e-05
1.52734e-05
1.51832e-05
1.51106e-05
1.50248e-05
1.49486e-05
1.48641e-05
1.47957e-05
1.47127e-05
1.46422e-05
1.45585e-05
1.4483e-05
1.44018e-05
1.43198e-05
1.42024e-05
1.4097e-05
1.99999e-05
1.98255e-05
1.94461e-05
1.91856e-05
1.89726e-05
1.88162e-05
1.86192e-05
1.84563e-05
1.83085e-05
1.81693e-05
1.80201e-05
1.78843e-05
1.77382e-05
1.76077e-05
1.74682e-05
1.73435e-05
1.72078e-05
1.70936e-05
1.69602e-05
1.68521e-05
1.67207e-05
1.66226e-05
1.64926e-05
1.6395e-05
1.62763e-05
1.61815e-05
1.60676e-05
1.5975e-05
1.58707e-05
1.57791e-05
1.56764e-05
1.55934e-05
1.54956e-05
1.54112e-05
1.53192e-05
1.5238e-05
1.51458e-05
1.5073e-05
1.49856e-05
1.49072e-05
1.48213e-05
1.47529e-05
1.46675e-05
1.45949e-05
1.45105e-05
1.44372e-05
1.4349e-05
1.4274e-05
1.41531e-05
1.40519e-05
1.99999e-05
1.98262e-05
1.94486e-05
1.9176e-05
1.89605e-05
1.88106e-05
1.86163e-05
1.84493e-05
1.83004e-05
1.81621e-05
1.8014e-05
1.78784e-05
1.7732e-05
1.76018e-05
1.74627e-05
1.73379e-05
1.72024e-05
1.70883e-05
1.69546e-05
1.68459e-05
1.67151e-05
1.66158e-05
1.64848e-05
1.63885e-05
1.62663e-05
1.61736e-05
1.60569e-05
1.5964e-05
1.58599e-05
1.57659e-05
1.56629e-05
1.558e-05
1.54793e-05
1.53949e-05
1.53023e-05
1.52188e-05
1.51259e-05
1.50527e-05
1.49628e-05
1.48837e-05
1.47972e-05
1.47284e-05
1.46399e-05
1.45674e-05
1.44815e-05
1.44122e-05
1.43169e-05
1.42477e-05
1.41294e-05
1.40276e-05
1.99999e-05
1.98275e-05
1.94538e-05
1.917e-05
1.89513e-05
1.88066e-05
1.86174e-05
1.84474e-05
1.82971e-05
1.81602e-05
1.80138e-05
1.7879e-05
1.7733e-05
1.76035e-05
1.7465e-05
1.73407e-05
1.72059e-05
1.70918e-05
1.69585e-05
1.685e-05
1.67195e-05
1.662e-05
1.64883e-05
1.63935e-05
1.62688e-05
1.61777e-05
1.60595e-05
1.59668e-05
1.58621e-05
1.57672e-05
1.56646e-05
1.5581e-05
1.54787e-05
1.5395e-05
1.53011e-05
1.52163e-05
1.51237e-05
1.50495e-05
1.49571e-05
1.48788e-05
1.47923e-05
1.47219e-05
1.46315e-05
1.45596e-05
1.44743e-05
1.44049e-05
1.43106e-05
1.42408e-05
1.41309e-05
1.40277e-05
1.99999e-05
1.98293e-05
1.9461e-05
1.91678e-05
1.89452e-05
1.8804e-05
1.86219e-05
1.845e-05
1.82981e-05
1.8163e-05
1.80185e-05
1.78847e-05
1.77398e-05
1.76114e-05
1.74737e-05
1.73509e-05
1.72174e-05
1.71036e-05
1.69714e-05
1.68638e-05
1.67339e-05
1.66349e-05
1.65024e-05
1.64104e-05
1.62824e-05
1.61939e-05
1.60742e-05
1.59826e-05
1.58763e-05
1.57814e-05
1.56801e-05
1.55948e-05
1.54916e-05
1.5409e-05
1.53133e-05
1.52283e-05
1.5136e-05
1.50602e-05
1.49662e-05
1.48894e-05
1.48025e-05
1.47305e-05
1.46395e-05
1.4569e-05
1.44839e-05
1.44143e-05
1.43226e-05
1.42522e-05
1.41492e-05
1.40493e-05
1.99999e-05
1.98316e-05
1.94703e-05
1.91695e-05
1.89422e-05
1.88028e-05
1.86294e-05
1.84576e-05
1.83036e-05
1.81705e-05
1.80283e-05
1.78963e-05
1.77534e-05
1.76265e-05
1.749e-05
1.73695e-05
1.72375e-05
1.71245e-05
1.69941e-05
1.68881e-05
1.67585e-05
1.66614e-05
1.65287e-05
1.64393e-05
1.63093e-05
1.62233e-05
1.61032e-05
1.60129e-05
1.59051e-05
1.5812e-05
1.57119e-05
1.56244e-05
1.55219e-05
1.54407e-05
1.53426e-05
1.52587e-05
1.51671e-05
1.5089e-05
1.49941e-05
1.49203e-05
1.48323e-05
1.47582e-05
1.46678e-05
1.46e-05
1.45147e-05
1.44454e-05
1.43567e-05
1.429e-05
1.41897e-05
1.4098e-05
1.99999e-05
1.98345e-05
1.94813e-05
1.91751e-05
1.89427e-05
1.88034e-05
1.86393e-05
1.84693e-05
1.83135e-05
1.81825e-05
1.80424e-05
1.79129e-05
1.77725e-05
1.76471e-05
1.75123e-05
1.73945e-05
1.72643e-05
1.71525e-05
1.70246e-05
1.69204e-05
1.67916e-05
1.66968e-05
1.65646e-05
1.64774e-05
1.63466e-05
1.62633e-05
1.6143e-05
1.60541e-05
1.59455e-05
1.58552e-05
1.57552e-05
1.56667e-05
1.55661e-05
1.54854e-05
1.53859e-05
1.53043e-05
1.52123e-05
1.51328e-05
1.50391e-05
1.49675e-05
1.48776e-05
1.48032e-05
1.47155e-05
1.46501e-05
1.4564e-05
1.44964e-05
1.44122e-05
1.435e-05
1.42512e-05
1.41623e-05
1.99999e-05
1.98378e-05
1.94932e-05
1.91849e-05
1.89465e-05
1.8806e-05
1.8651e-05
1.84847e-05
1.83274e-05
1.81981e-05
1.80602e-05
1.79339e-05
1.77961e-05
1.76725e-05
1.75399e-05
1.7425e-05
1.72966e-05
1.71868e-05
1.70619e-05
1.69593e-05
1.68322e-05
1.67397e-05
1.66089e-05
1.65235e-05
1.63931e-05
1.63125e-05
1.61922e-05
1.61048e-05
1.59965e-05
1.59093e-05
1.58085e-05
1.57205e-05
1.56221e-05
1.55412e-05
1.54416e-05
1.53625e-05
1.52692e-05
1.51897e-05
1.50983e-05
1.50278e-05
1.4936e-05
1.48635e-05
1.47788e-05
1.4715e-05
1.46286e-05
1.45643e-05
1.44852e-05
1.44273e-05
1.43293e-05
1.42408e-05
1.99999e-05
1.98414e-05
1.95061e-05
1.9198e-05
1.89537e-05
1.88113e-05
1.86642e-05
1.85033e-05
1.83453e-05
1.8217e-05
1.80812e-05
1.79587e-05
1.78234e-05
1.77018e-05
1.75719e-05
1.74597e-05
1.73335e-05
1.72263e-05
1.71046e-05
1.70033e-05
1.68795e-05
1.67885e-05
1.66601e-05
1.6576e-05
1.64472e-05
1.63692e-05
1.62486e-05
1.61637e-05
1.60566e-05
1.59717e-05
1.58702e-05
1.57841e-05
1.56876e-05
1.56064e-05
1.55079e-05
1.54308e-05
1.53364e-05
1.52586e-05
1.51693e-05
1.50988e-05
1.50062e-05
1.49375e-05
1.48555e-05
1.47923e-05
1.47071e-05
1.46479e-05
1.45738e-05
1.45188e-05
1.4421e-05
1.43309e-05
1.99999e-05
1.98454e-05
1.95194e-05
1.92141e-05
1.89639e-05
1.88193e-05
1.86783e-05
1.85245e-05
1.83664e-05
1.82387e-05
1.8105e-05
1.79866e-05
1.78536e-05
1.77346e-05
1.76075e-05
1.74977e-05
1.7374e-05
1.727e-05
1.71514e-05
1.70513e-05
1.69319e-05
1.68416e-05
1.67169e-05
1.66333e-05
1.65075e-05
1.64314e-05
1.63107e-05
1.62294e-05
1.61236e-05
1.60403e-05
1.5939e-05
1.58558e-05
1.57602e-05
1.56793e-05
1.55829e-05
1.55067e-05
1.5412e-05
1.53372e-05
1.52492e-05
1.51782e-05
1.50868e-05
1.50231e-05
1.49424e-05
1.48794e-05
1.47978e-05
1.47448e-05
1.46747e-05
1.46209e-05
1.45223e-05
1.44299e-05
1.99999e-05
1.98496e-05
1.95331e-05
1.92327e-05
1.89773e-05
1.88302e-05
1.86932e-05
1.85475e-05
1.83904e-05
1.82627e-05
1.81312e-05
1.80168e-05
1.7886e-05
1.77699e-05
1.76456e-05
1.75381e-05
1.74174e-05
1.73165e-05
1.7201e-05
1.71025e-05
1.69881e-05
1.68977e-05
1.67778e-05
1.66942e-05
1.65725e-05
1.64973e-05
1.63771e-05
1.63003e-05
1.61952e-05
1.61131e-05
1.60133e-05
1.59334e-05
1.58376e-05
1.57584e-05
1.5664e-05
1.55882e-05
1.54944e-05
1.54232e-05
1.53354e-05
1.5264e-05
1.51763e-05
1.51174e-05
1.50361e-05
1.49748e-05
1.48989e-05
1.48518e-05
1.47841e-05
1.47303e-05
1.46302e-05
1.45341e-05
1.99999e-05
1.9854e-05
1.95469e-05
1.92532e-05
1.89937e-05
1.88441e-05
1.8709e-05
1.8572e-05
1.84166e-05
1.82889e-05
1.81596e-05
1.80487e-05
1.792e-05
1.78074e-05
1.76854e-05
1.75802e-05
1.74628e-05
1.7365e-05
1.72522e-05
1.71562e-05
1.70463e-05
1.6956e-05
1.68412e-05
1.67576e-05
1.66403e-05
1.65652e-05
1.64471e-05
1.63745e-05
1.62695e-05
1.61889e-05
1.60917e-05
1.60145e-05
1.59182e-05
1.58416e-05
1.57491e-05
1.56734e-05
1.55817e-05
1.55139e-05
1.54251e-05
1.53552e-05
1.52726e-05
1.52167e-05
1.5134e-05
1.5077e-05
1.50079e-05
1.49651e-05
1.48983e-05
1.48439e-05
1.47417e-05
1.46402e-05
1.99999e-05
1.98584e-05
1.95609e-05
1.92751e-05
1.90129e-05
1.88607e-05
1.87258e-05
1.85973e-05
1.84443e-05
1.83171e-05
1.81895e-05
1.80816e-05
1.79553e-05
1.78462e-05
1.77261e-05
1.76235e-05
1.75093e-05
1.74143e-05
1.73042e-05
1.72115e-05
1.71051e-05
1.70157e-05
1.69055e-05
1.68226e-05
1.67093e-05
1.66339e-05
1.65196e-05
1.64496e-05
1.63448e-05
1.62665e-05
1.61722e-05
1.60972e-05
1.60005e-05
1.59273e-05
1.58359e-05
1.57608e-05
1.56722e-05
1.56066e-05
1.55165e-05
1.54506e-05
1.53727e-05
1.53175e-05
1.52352e-05
1.51847e-05
1.51216e-05
1.50811e-05
1.50145e-05
1.49585e-05
1.48542e-05
1.47445e-05
1.99999e-05
1.98629e-05
1.95749e-05
1.92976e-05
1.90347e-05
1.88797e-05
1.87438e-05
1.86231e-05
1.84731e-05
1.83472e-05
1.82207e-05
1.81151e-05
1.79915e-05
1.78857e-05
1.77673e-05
1.76674e-05
1.75562e-05
1.74637e-05
1.73564e-05
1.72675e-05
1.71634e-05
1.70762e-05
1.69697e-05
1.68884e-05
1.67782e-05
1.67027e-05
1.65934e-05
1.65241e-05
1.64202e-05
1.6345e-05
1.62531e-05
1.61796e-05
1.60836e-05
1.60137e-05
1.59226e-05
1.58493e-05
1.57638e-05
1.56988e-05
1.56088e-05
1.55487e-05
1.54737e-05
1.54175e-05
1.5339e-05
1.52958e-05
1.52361e-05
1.51968e-05
1.51299e-05
1.50721e-05
1.4964e-05
1.4844e-05
1.99999e-05
1.98673e-05
1.9589e-05
1.93205e-05
1.90588e-05
1.89008e-05
1.8763e-05
1.8649e-05
1.85025e-05
1.83788e-05
1.82528e-05
1.8149e-05
1.80282e-05
1.79255e-05
1.78086e-05
1.77115e-05
1.76028e-05
1.75127e-05
1.74083e-05
1.73233e-05
1.72207e-05
1.71367e-05
1.70328e-05
1.6954e-05
1.68458e-05
1.67714e-05
1.66665e-05
1.6597e-05
1.64947e-05
1.64235e-05
1.63328e-05
1.62605e-05
1.61668e-05
1.60991e-05
1.60077e-05
1.59381e-05
1.58545e-05
1.57887e-05
1.57014e-05
1.56475e-05
1.55724e-05
1.5516e-05
1.54443e-05
1.54075e-05
1.53484e-05
1.53097e-05
1.52424e-05
1.51829e-05
1.5068e-05
1.49354e-05
1.99999e-05
1.98718e-05
1.96031e-05
1.93434e-05
1.90846e-05
1.89239e-05
1.87835e-05
1.86748e-05
1.85324e-05
1.84114e-05
1.82854e-05
1.81834e-05
1.80651e-05
1.79651e-05
1.78498e-05
1.77552e-05
1.76486e-05
1.75608e-05
1.74597e-05
1.73779e-05
1.72769e-05
1.71962e-05
1.70948e-05
1.70184e-05
1.69117e-05
1.68395e-05
1.67373e-05
1.66681e-05
1.65677e-05
1.65008e-05
1.641e-05
1.6339e-05
1.6249e-05
1.61821e-05
1.60906e-05
1.60258e-05
1.59421e-05
1.58759e-05
1.57937e-05
1.57443e-05
1.56667e-05
1.56135e-05
1.55499e-05
1.55159e-05
1.54565e-05
1.54181e-05
1.53504e-05
1.52879e-05
1.51642e-05
1.50155e-05
1.99999e-05
1.98761e-05
1.9617e-05
1.93662e-05
1.91117e-05
1.89485e-05
1.88054e-05
1.87007e-05
1.85625e-05
1.84447e-05
1.83185e-05
1.82181e-05
1.81021e-05
1.80044e-05
1.78908e-05
1.7798e-05
1.76935e-05
1.76079e-05
1.75101e-05
1.74307e-05
1.73322e-05
1.7254e-05
1.71557e-05
1.70803e-05
1.69761e-05
1.69061e-05
1.68049e-05
1.67375e-05
1.66384e-05
1.65758e-05
1.6484e-05
1.64151e-05
1.63291e-05
1.62615e-05
1.61713e-05
1.6111e-05
1.60252e-05
1.59607e-05
1.58844e-05
1.58363e-05
1.57566e-05
1.57102e-05
1.56528e-05
1.56186e-05
1.55589e-05
1.55212e-05
1.54524e-05
1.53852e-05
1.52492e-05
1.50845e-05
1.99999e-05
1.98804e-05
1.96307e-05
1.93887e-05
1.91397e-05
1.89746e-05
1.88289e-05
1.87265e-05
1.85927e-05
1.84782e-05
1.83521e-05
1.82533e-05
1.81391e-05
1.80431e-05
1.79313e-05
1.784e-05
1.77373e-05
1.76539e-05
1.75593e-05
1.74815e-05
1.73864e-05
1.73095e-05
1.72153e-05
1.71394e-05
1.70392e-05
1.69701e-05
1.68692e-05
1.68051e-05
1.6706e-05
1.66477e-05
1.65548e-05
1.64888e-05
1.64055e-05
1.6337e-05
1.62497e-05
1.61917e-05
1.61033e-05
1.60434e-05
1.59717e-05
1.59212e-05
1.58435e-05
1.58047e-05
1.57496e-05
1.57143e-05
1.56553e-05
1.5618e-05
1.55465e-05
1.54726e-05
1.53205e-05
1.51425e-05
1.99999e-05
1.98846e-05
1.96442e-05
1.94108e-05
1.91682e-05
1.90018e-05
1.88538e-05
1.87526e-05
1.8623e-05
1.85117e-05
1.83862e-05
1.82889e-05
1.81759e-05
1.80814e-05
1.79714e-05
1.7881e-05
1.77799e-05
1.76988e-05
1.76069e-05
1.75306e-05
1.74392e-05
1.73627e-05
1.72733e-05
1.71957e-05
1.7101e-05
1.70304e-05
1.69314e-05
1.68698e-05
1.67709e-05
1.67154e-05
1.66227e-05
1.65596e-05
1.64771e-05
1.6409e-05
1.63255e-05
1.62665e-05
1.6177e-05
1.61242e-05
1.60533e-05
1.59997e-05
1.59276e-05
1.58951e-05
1.58389e-05
1.58025e-05
1.57449e-05
1.57066e-05
1.5631e-05
1.5547e-05
1.53787e-05
1.51899e-05
1.99999e-05
1.98887e-05
1.96574e-05
1.94324e-05
1.91968e-05
1.90299e-05
1.88802e-05
1.87789e-05
1.86531e-05
1.8545e-05
1.84209e-05
1.83247e-05
1.82126e-05
1.81193e-05
1.80108e-05
1.79211e-05
1.78216e-05
1.77426e-05
1.76528e-05
1.75783e-05
1.749e-05
1.74143e-05
1.73289e-05
1.72499e-05
1.7161e-05
1.70869e-05
1.69921e-05
1.69306e-05
1.68327e-05
1.67797e-05
1.66869e-05
1.66273e-05
1.65442e-05
1.64776e-05
1.6397e-05
1.63353e-05
1.62483e-05
1.62004e-05
1.61271e-05
1.60739e-05
1.60085e-05
1.59785e-05
1.59196e-05
1.58837e-05
1.5827e-05
1.57863e-05
1.57031e-05
1.56066e-05
1.54264e-05
1.52237e-05
1.99999e-05
1.98927e-05
1.96703e-05
1.94534e-05
1.92254e-05
1.90587e-05
1.8908e-05
1.88056e-05
1.86833e-05
1.85781e-05
1.84563e-05
1.83607e-05
1.82495e-05
1.81567e-05
1.80496e-05