/*--------------------------------*- C++ -*----------------------------------*\
  =========                 |
  \\      /  F ield         | OpenFOAM: The Open Source CFD Toolbox
   \\    /   O peration     | Website:  https://openfoam.org
    \\  /    A nd           | Version:  7
     \\/     M anipulation  |
\*---------------------------------------------------------------------------*/
FoamFile
{
    version     2.0;
    format      ascii;
    class       volScalarField;
    location    "0.37";
    object      k_0;
}
// * * * * * * * * * * * * * * * * * * * * * * * * * * * * * * * * * * * * * //

dimensions      [0 2 -2 0 0 0 0];

internalField   nonuniform List<scalar> 
70000
(
1.08549e-05
4.21867e-06
2.82415e-06
2.31653e-06
1.99712e-06
1.75677e-06
1.56468e-06
1.40784e-06
1.27691e-06
1.16629e-06
1.0712e-06
9.89295e-07
9.17589e-07
8.55032e-07
7.99496e-07
7.50533e-07
7.06539e-07
6.67367e-07
6.31815e-07
5.99921e-07
5.70706e-07
5.44397e-07
5.20005e-07
4.98085e-07
4.77396e-07
4.58996e-07
4.4118e-07
4.2563e-07
4.10092e-07
3.96841e-07
3.83196e-07
3.7175e-07
3.59782e-07
3.49686e-07
3.39274e-07
3.3016e-07
3.21148e-07
3.12892e-07
3.04824e-07
2.97824e-07
2.89773e-07
2.84599e-07
2.76317e-07
2.72238e-07
2.64391e-07
2.61405e-07
2.54988e-07
2.64637e-07
2.57817e-07
4.25533e-07
1.72794e-05
1.13671e-05
8.52001e-06
7.00966e-06
6.03612e-06
5.30982e-06
4.72999e-06
4.25634e-06
3.86086e-06
3.52677e-06
3.23959e-06
2.99222e-06
2.77565e-06
2.58666e-06
2.41891e-06
2.27094e-06
2.13802e-06
2.01961e-06
1.91217e-06
1.81576e-06
1.72742e-06
1.64791e-06
1.5741e-06
1.50789e-06
1.44523e-06
1.38967e-06
1.33569e-06
1.28872e-06
1.24168e-06
1.20158e-06
1.16036e-06
1.12561e-06
1.08956e-06
1.05879e-06
1.02753e-06
9.99702e-07
9.72604e-07
9.47542e-07
9.23001e-07
9.02087e-07
8.77322e-07
8.61906e-07
8.36729e-07
8.24257e-07
8.00321e-07
7.90935e-07
7.70883e-07
7.92937e-07
7.76654e-07
9.30739e-07
1.937e-05
1.61296e-05
1.32905e-05
1.12887e-05
9.82706e-06
8.69453e-06
7.77617e-06
7.0186e-06
6.38136e-06
5.84034e-06
5.37359e-06
4.97033e-06
4.61644e-06
4.30682e-06
4.0316e-06
3.78821e-06
3.56938e-06
3.37402e-06
3.19657e-06
3.0372e-06
2.89087e-06
2.7593e-06
2.63667e-06
2.52703e-06
2.42267e-06
2.33058e-06
2.24056e-06
2.16253e-06
2.08412e-06
2.01723e-06
1.94874e-06
1.89037e-06
1.8308e-06
1.77874e-06
1.72726e-06
1.68011e-06
1.63526e-06
1.59328e-06
1.55179e-06
1.51765e-06
1.47522e-06
1.44995e-06
1.40768e-06
1.38657e-06
1.34599e-06
1.33001e-06
1.29474e-06
1.31961e-06
1.29838e-06
1.36694e-06
1.9861e-05
1.826e-05
1.60854e-05
1.41998e-05
1.26391e-05
1.13476e-05
1.02588e-05
9.3368e-06
8.54433e-06
7.86146e-06
7.26577e-06
6.74653e-06
6.28748e-06
5.88315e-06
5.52185e-06
5.20044e-06
4.91026e-06
4.65006e-06
4.41283e-06
4.19933e-06
4.0023e-06
3.82532e-06
3.65912e-06
3.51114e-06
3.36896e-06
3.24417e-06
3.12116e-06
3.01484e-06
2.90773e-06
2.81582e-06
2.72263e-06
2.64158e-06
2.56095e-06
2.48805e-06
2.41848e-06
2.35248e-06
2.29113e-06
2.23347e-06
2.17505e-06
2.12945e-06
2.06925e-06
2.03489e-06
1.97636e-06
1.94704e-06
1.88994e-06
1.86842e-06
1.81668e-06
1.83572e-06
1.8169e-06
1.82729e-06
1.99706e-05
1.7846e-05
1.60749e-05
1.47669e-05
1.36026e-05
1.25379e-05
1.15687e-05
1.07014e-05
9.91926e-06
9.22409e-06
8.6029e-06
8.05053e-06
7.55392e-06
7.11012e-06
6.70859e-06
6.34702e-06
6.01738e-06
5.71937e-06
5.44528e-06
5.19767e-06
4.9668e-06
4.75954e-06
4.56241e-06
4.38761e-06
4.21739e-06
4.06865e-06
3.92053e-06
3.79237e-06
3.6633e-06
3.551e-06
3.43907e-06
3.33863e-06
3.2421e-06
3.15099e-06
3.06733e-06
2.98525e-06
2.90985e-06
2.8398e-06
2.76569e-06
2.71158e-06
2.63541e-06
2.59325e-06
2.5207e-06
2.48449e-06
2.41285e-06
2.38628e-06
2.31919e-06
2.32761e-06
2.3159e-06
2.28305e-06
2.00095e-05
1.47038e-05
1.37486e-05
1.32125e-05
1.2593e-05
1.19292e-05
1.12792e-05
1.06594e-05
1.00816e-05
9.54814e-06
9.04669e-06
8.58066e-06
8.14637e-06
7.74645e-06
7.37449e-06
7.03155e-06
6.71266e-06
6.42021e-06
6.14661e-06
5.89766e-06
5.66113e-06
5.44852e-06
5.24213e-06
5.05965e-06
4.87851e-06
4.72042e-06
4.5612e-06
4.42233e-06
4.28315e-06
4.15897e-06
4.03833e-06
3.92532e-06
3.821e-06
3.71774e-06
3.62605e-06
3.53383e-06
3.44856e-06
3.37176e-06
3.28552e-06
3.22679e-06
3.13913e-06
3.0914e-06
3.00884e-06
2.96794e-06
2.88624e-06
2.85554e-06
2.77718e-06
2.77346e-06
2.76163e-06
2.70825e-06
2.01332e-05
1.54656e-05
9.63465e-06
9.40061e-06
9.49617e-06
9.4961e-06
9.43819e-06
9.30121e-06
9.05999e-06
8.78674e-06
8.49146e-06
8.1944e-06
7.90216e-06
7.61879e-06
7.34139e-06
7.08084e-06
6.83273e-06
6.59925e-06
6.37343e-06
6.16473e-06
5.95936e-06
5.77363e-06
5.58723e-06
5.42236e-06
5.25395e-06
5.10624e-06
4.95556e-06
4.82175e-06
4.68898e-06
4.56578e-06
4.44998e-06
4.33546e-06
4.23399e-06
4.1286e-06
4.03702e-06
3.94376e-06
3.85524e-06
3.77909e-06
3.68748e-06
3.62883e-06
3.53694e-06
3.48733e-06
3.40076e-06
3.35834e-06
3.2729e-06
3.23997e-06
3.15919e-06
3.14315e-06
3.12912e-06
3.06558e-06
2.01714e-05
1.86748e-05
8.68592e-06
5.54102e-06
5.63251e-06
5.93851e-06
6.29789e-06
6.58468e-06
6.76532e-06
6.87497e-06
6.89529e-06
6.87618e-06
6.82448e-06
6.73609e-06
6.62561e-06
6.50337e-06
6.36463e-06
6.22349e-06
6.07811e-06
5.93905e-06
5.79376e-06
5.66058e-06
5.5203e-06
5.39532e-06
5.26278e-06
5.14691e-06
5.027e-06
4.91685e-06
4.80906e-06
4.70295e-06
4.60692e-06
4.50536e-06
4.41862e-06
4.32401e-06
4.24241e-06
4.15905e-06
4.07656e-06
4.00907e-06
3.92188e-06
3.86869e-06
3.78186e-06
3.73544e-06
3.6529e-06
3.6127e-06
3.53146e-06
3.49934e-06
3.42556e-06
3.39622e-06
3.38478e-06
3.32242e-06
2.01673e-05
1.97236e-05
1.61634e-05
4.85532e-06
3.04268e-06
3.10732e-06
3.37846e-06
3.81001e-06
4.17732e-06
4.49665e-06
4.74529e-06
4.93593e-06
5.07735e-06
5.17847e-06
5.23725e-06
5.27422e-06
5.27774e-06
5.26939e-06
5.24608e-06
5.2102e-06
5.15841e-06
5.10654e-06
5.04174e-06
4.9804e-06
4.90856e-06
4.84053e-06
4.76562e-06
4.69197e-06
4.62068e-06
4.54434e-06
4.47775e-06
4.40153e-06
4.3382e-06
4.26546e-06
4.20251e-06
4.13798e-06
4.07085e-06
4.01876e-06
3.94699e-06
3.90506e-06
3.83326e-06
3.79566e-06
3.72632e-06
3.69255e-06
3.62408e-06
3.59648e-06
3.53797e-06
3.50135e-06
3.49348e-06
3.4424e-06
2.01477e-05
1.99341e-05
1.90643e-05
1.44913e-05
5.23054e-06
2.15298e-06
1.91504e-06
1.99566e-06
2.21139e-06
2.51169e-06
2.78898e-06
3.04386e-06
3.26988e-06
3.46829e-06
3.63236e-06
3.77254e-06
3.8837e-06
3.97435e-06
4.04391e-06
4.09933e-06
4.13578e-06
4.16208e-06
4.1758e-06
4.17919e-06
4.17576e-06
4.16778e-06
4.15255e-06
4.13092e-06
4.10992e-06
4.07887e-06
4.05338e-06
4.01708e-06
3.98749e-06
3.94912e-06
3.91525e-06
3.87915e-06
3.83855e-06
3.80845e-06
3.76063e-06
3.73386e-06
3.68401e-06
3.65876e-06
3.60926e-06
3.58517e-06
3.53565e-06
3.51563e-06
3.47572e-06
3.4427e-06
3.43921e-06
3.40534e-06
2.01217e-05
1.9966e-05
1.96417e-05
1.85435e-05
1.52019e-05
8.33514e-06
3.08983e-06
1.63111e-06
1.44249e-06
1.45075e-06
1.52955e-06
1.69317e-06
1.87649e-06
2.05531e-06
2.22598e-06
2.38785e-06
2.53472e-06
2.66872e-06
2.7861e-06
2.8924e-06
2.98324e-06
3.0636e-06
3.13136e-06
3.18954e-06
3.23745e-06
3.2776e-06
3.31132e-06
3.33554e-06
3.35778e-06
3.37029e-06
3.38223e-06
3.38689e-06
3.38934e-06
3.38799e-06
3.38485e-06
3.37895e-06
3.36854e-06
3.36197e-06
3.34676e-06
3.33817e-06
3.31978e-06
3.31013e-06
3.28957e-06
3.27928e-06
3.25663e-06
3.24828e-06
3.23134e-06
3.21517e-06
3.21954e-06
3.20492e-06
2.00982e-05
1.99327e-05
1.97569e-05
1.93509e-05
1.85021e-05
1.65263e-05
1.23021e-05
6.82584e-06
2.96351e-06
1.48793e-06
1.24224e-06
1.14824e-06
1.15372e-06
1.19813e-06
1.29257e-06
1.40192e-06
1.51454e-06
1.62717e-06
1.73707e-06
1.84453e-06
1.94463e-06
2.03965e-06
2.12678e-06
2.20744e-06
2.28169e-06
2.3479e-06
2.4102e-06
2.46346e-06
2.51426e-06
2.55683e-06
2.59714e-06
2.63065e-06
2.66201e-06
2.68749e-06
2.71131e-06
2.73097e-06
2.74688e-06
2.76323e-06
2.77266e-06
2.78535e-06
2.79028e-06
2.79937e-06
2.8022e-06
2.80814e-06
2.80945e-06
2.81412e-06
2.81585e-06
2.81919e-06
2.8364e-06
2.83674e-06
2.00782e-05
1.98876e-05
1.97565e-05
1.94594e-05
1.91433e-05
1.86366e-05
1.75455e-05
1.54089e-05
1.17045e-05
7.39852e-06
3.94184e-06
1.89151e-06
1.20363e-06
1.05646e-06
9.80901e-07
9.44927e-07
9.57251e-07
9.93928e-07
1.05643e-06
1.12259e-06
1.19256e-06
1.26415e-06
1.33621e-06
1.40721e-06
1.47804e-06
1.54373e-06
1.60947e-06
1.66903e-06
1.72799e-06
1.78127e-06
1.83345e-06
1.88015e-06
1.92582e-06
1.96636e-06
2.00555e-06
2.04089e-06
2.07363e-06
2.10484e-06
2.13183e-06
2.15964e-06
2.18156e-06
2.20534e-06
2.22518e-06
2.24511e-06
2.26342e-06
2.28007e-06
2.30088e-06
2.31375e-06
2.34314e-06
2.36029e-06
2.00615e-05
1.98539e-05
1.97339e-05
1.94697e-05
1.92526e-05
1.90438e-05
1.8731e-05
1.81833e-05
1.70825e-05
1.52095e-05
1.25232e-05
9.17377e-06
5.90577e-06
3.42337e-06
1.84607e-06
1.15562e-06
9.62472e-07
8.90254e-07
8.3519e-07
7.98631e-07
8.01682e-07
8.16941e-07
8.49213e-07
8.88588e-07
9.30541e-07
9.73503e-07
1.02028e-06
1.06547e-06
1.11325e-06
1.15904e-06
1.20571e-06
1.24943e-06
1.29365e-06
1.33487e-06
1.37574e-06
1.41425e-06
1.45166e-06
1.48743e-06
1.52098e-06
1.55495e-06
1.58492e-06
1.61479e-06
1.64484e-06
1.67029e-06
1.70038e-06
1.72273e-06
1.75376e-06
1.77472e-06
1.81001e-06
1.83669e-06
2.00476e-05
1.98303e-05
1.97073e-05
1.94475e-05
1.92695e-05
1.91118e-05
1.89612e-05
1.87456e-05
1.84559e-05
1.79025e-05
1.70624e-05
1.56706e-05
1.38407e-05
1.14656e-05
8.76809e-06
6.1513e-06
3.99242e-06
2.43735e-06
1.46516e-06
1.01485e-06
8.58621e-07
7.97402e-07
7.49298e-07
7.10366e-07
6.83356e-07
6.83726e-07
6.90773e-07
7.06827e-07
7.3015e-07
7.54873e-07
7.81464e-07
8.08608e-07
8.38282e-07
8.67642e-07
8.98379e-07
9.29006e-07
9.59923e-07
9.90432e-07
1.01994e-06
1.05076e-06
1.07928e-06
1.1069e-06
1.13769e-06
1.16237e-06
1.19354e-06
1.21842e-06
1.24785e-06
1.27396e-06
1.30906e-06
1.33705e-06
2.00363e-05
1.98125e-05
1.96847e-05
1.9417e-05
1.92553e-05
1.91052e-05
1.89962e-05
1.88447e-05
1.87073e-05
1.84946e-05
1.82407e-05
1.78218e-05
1.7214e-05
1.63352e-05
1.51157e-05
1.3565e-05
1.17287e-05
9.61909e-06
7.46061e-06
5.45731e-06
3.79448e-06
2.53578e-06
1.64624e-06
1.1157e-06
8.62038e-07
7.58456e-07
7.09055e-07
6.71935e-07
6.36522e-07
6.09364e-07
5.91201e-07
5.88345e-07
5.91462e-07
5.99112e-07
6.11856e-07
6.26615e-07
6.42237e-07
6.59104e-07
6.75989e-07
6.95526e-07
7.14635e-07
7.33685e-07
7.5656e-07
7.75495e-07
7.99243e-07
8.20992e-07
8.4334e-07
8.66434e-07
8.96027e-07
9.22042e-07
2.00272e-05
1.97986e-05
1.96655e-05
1.93949e-05
1.92293e-05
1.90775e-05
1.89777e-05
1.88482e-05
1.8731e-05
1.85914e-05
1.84536e-05
1.82836e-05
1.80717e-05
1.77842e-05
1.73908e-05
1.68408e-05
1.61187e-05
1.51819e-05
1.40156e-05
1.26545e-05
1.11212e-05
9.43216e-06
7.70166e-06
6.05746e-06
4.57509e-06
3.35935e-06
2.40257e-06
1.68157e-06
1.18725e-06
8.96617e-07
7.46564e-07
6.74525e-07
6.34295e-07
6.04849e-07
5.7703e-07
5.51722e-07
5.31066e-07
5.18179e-07
5.11507e-07
5.12254e-07
5.15187e-07
5.20891e-07
5.29881e-07
5.38514e-07
5.49473e-07
5.61855e-07
5.73704e-07
5.87914e-07
6.0697e-07
6.2608e-07
2.00201e-05
1.97899e-05
1.96455e-05
1.93783e-05
1.92048e-05
1.90483e-05
1.89388e-05
1.88216e-05
1.87089e-05
1.85846e-05
1.84653e-05
1.83396e-05
1.8214e-05
1.80703e-05
1.79121e-05
1.77108e-05
1.74629e-05
1.7138e-05
1.67244e-05
1.61893e-05
1.55391e-05
1.47358e-05
1.37987e-05
1.27112e-05
1.15368e-05
1.02489e-05
8.88638e-06
7.51623e-06
6.19295e-06
4.98119e-06
3.89866e-06
3.00755e-06
2.28071e-06
1.70191e-06
1.26648e-06
9.66121e-07
7.80105e-07
6.73875e-07
6.14949e-07
5.79708e-07
5.54214e-07
5.32024e-07
5.1199e-07
4.9319e-07
4.77802e-07
4.67911e-07
4.62345e-07
4.63265e-07
4.674e-07
4.7782e-07
2.00145e-05
1.97899e-05
1.96192e-05
1.93649e-05
1.91839e-05
1.90211e-05
1.89023e-05
1.87847e-05
1.86683e-05
1.85481e-05
1.84345e-05
1.83171e-05
1.8205e-05
1.80847e-05
1.79717e-05
1.7848e-05
1.77238e-05
1.75785e-05
1.74181e-05
1.72185e-05
1.69851e-05
1.66905e-05
1.63403e-05
1.5906e-05
1.53971e-05
1.4796e-05
1.41076e-05
1.33177e-05
1.24548e-05
1.15051e-05
1.05238e-05
9.46914e-06
8.38389e-06
7.30035e-06
6.25019e-06
5.25966e-06
4.35415e-06
3.54364e-06
2.85596e-06
2.2745e-06
1.79044e-06
1.3961e-06
1.09444e-06
8.77531e-07
7.3598e-07
6.50164e-07
5.99499e-07
5.73165e-07
5.63697e-07
5.6993e-07
2.00103e-05
1.97941e-05
1.95923e-05
1.93509e-05
1.91648e-05
1.89951e-05
1.88681e-05
1.87479e-05
1.86277e-05
1.85043e-05
1.83879e-05
1.82698e-05
1.81596e-05
1.80456e-05
1.79391e-05
1.78287e-05
1.77216e-05
1.76124e-05
1.75039e-05
1.73912e-05
1.72732e-05
1.71424e-05
1.69978e-05
1.68307e-05
1.66364e-05
1.64091e-05
1.61452e-05
1.58336e-05
1.54741e-05
1.50583e-05
1.459e-05
1.40642e-05
1.34758e-05
1.28339e-05
1.21332e-05
1.13951e-05
1.06099e-05
9.80896e-06
8.96269e-06
8.09835e-06
7.23608e-06
6.37805e-06
5.55648e-06
4.7653e-06
4.03317e-06
3.35858e-06
2.77136e-06
2.28302e-06
1.88692e-06
1.6567e-06
2.00071e-05
1.98018e-05
1.95675e-05
1.93374e-05
1.91468e-05
1.89707e-05
1.88353e-05
1.87128e-05
1.85879e-05
1.8462e-05
1.834e-05
1.82207e-05
1.8106e-05
1.79903e-05
1.78809e-05
1.7772e-05
1.76669e-05
1.75663e-05
1.74625e-05
1.73664e-05
1.72639e-05
1.71672e-05
1.7065e-05
1.69681e-05
1.68595e-05
1.67526e-05
1.66324e-05
1.65048e-05
1.6357e-05
1.61944e-05
1.60117e-05
1.58024e-05
1.55666e-05
1.53016e-05
1.49998e-05
1.46708e-05
1.42944e-05
1.38982e-05
1.34452e-05
1.29688e-05
1.24489e-05
1.18901e-05
1.12981e-05
1.06755e-05
1.00131e-05
9.34168e-06
8.59054e-06
7.85358e-06
7.03872e-06
6.27172e-06
2.00047e-05
1.98106e-05
1.95443e-05
1.93241e-05
1.91292e-05
1.8948e-05
1.88035e-05
1.86791e-05
1.85493e-05
1.84214e-05
1.82934e-05
1.81725e-05
1.80526e-05
1.79353e-05
1.78206e-05
1.77116e-05
1.75996e-05
1.74997e-05
1.73903e-05
1.72972e-05
1.71943e-05
1.71055e-05
1.70075e-05
1.69234e-05
1.68273e-05
1.67427e-05
1.66502e-05
1.65653e-05
1.64723e-05
1.63808e-05
1.62904e-05
1.61877e-05
1.60845e-05
1.59692e-05
1.58448e-05
1.57108e-05
1.55559e-05
1.54025e-05
1.5205e-05
1.50164e-05
1.47896e-05
1.45511e-05
1.42783e-05
1.39879e-05
1.36623e-05
1.33243e-05
1.2904e-05
1.25118e-05
1.20012e-05
1.14084e-05
2.0003e-05
1.98199e-05
1.95227e-05
1.93105e-05
1.91116e-05
1.89268e-05
1.87728e-05
1.86464e-05
1.85121e-05
1.83824e-05
1.82487e-05
1.81262e-05
1.8001e-05
1.78823e-05
1.77619e-05
1.76523e-05
1.75343e-05
1.7434e-05
1.73187e-05
1.72251e-05
1.71157e-05
1.70257e-05
1.69227e-05
1.68384e-05
1.67399e-05
1.66588e-05
1.65711e-05
1.64936e-05
1.64078e-05
1.63288e-05
1.62547e-05
1.61727e-05
1.6096e-05
1.60164e-05
1.5939e-05
1.58595e-05
1.57765e-05
1.57032e-05
1.56006e-05
1.55211e-05
1.54181e-05
1.53204e-05
1.51995e-05
1.50825e-05
1.49418e-05
1.48134e-05
1.46159e-05
1.44547e-05
1.42311e-05
1.38901e-05
2.00018e-05
1.98287e-05
1.9503e-05
1.92958e-05
1.90938e-05
1.89069e-05
1.87438e-05
1.86146e-05
1.84767e-05
1.8345e-05
1.82065e-05
1.80821e-05
1.79523e-05
1.78318e-05
1.77062e-05
1.75956e-05
1.74723e-05
1.73708e-05
1.72507e-05
1.71557e-05
1.70416e-05
1.69499e-05
1.68422e-05
1.67555e-05
1.66531e-05
1.65677e-05
1.64756e-05
1.63958e-05
1.63056e-05
1.62257e-05
1.61505e-05
1.6072e-05
1.59988e-05
1.59267e-05
1.58557e-05
1.57854e-05
1.5716e-05
1.56567e-05
1.55748e-05
1.55144e-05
1.54448e-05
1.53775e-05
1.5304e-05
1.52364e-05
1.51543e-05
1.50974e-05
1.49892e-05
1.49038e-05
1.47949e-05
1.46e-05
2.00009e-05
1.98305e-05
1.94869e-05
1.9281e-05
1.90762e-05
1.88888e-05
1.87171e-05
1.85842e-05
1.84437e-05
1.83097e-05
1.81674e-05
1.80407e-05
1.79071e-05
1.77847e-05
1.76545e-05
1.75425e-05
1.74148e-05
1.73112e-05
1.71878e-05
1.70904e-05
1.69725e-05
1.68793e-05
1.67675e-05
1.66782e-05
1.65729e-05
1.64844e-05
1.63883e-05
1.63068e-05
1.62106e-05
1.61296e-05
1.60484e-05
1.59678e-05
1.58875e-05
1.58142e-05
1.57373e-05
1.56656e-05
1.55944e-05
1.55335e-05
1.54547e-05
1.53956e-05
1.53351e-05
1.52709e-05
1.52066e-05
1.51481e-05
1.50747e-05
1.50308e-05
1.49433e-05
1.48721e-05
1.47766e-05
1.46357e-05
2.00003e-05
1.98288e-05
1.94735e-05
1.92651e-05
1.90584e-05
1.88722e-05
1.86929e-05
1.85555e-05
1.84132e-05
1.8277e-05
1.8132e-05
1.80028e-05
1.7866e-05
1.77416e-05
1.76076e-05
1.74936e-05
1.73628e-05
1.72566e-05
1.71307e-05
1.70306e-05
1.69094e-05
1.68149e-05
1.66992e-05
1.66076e-05
1.65e-05
1.64088e-05
1.63093e-05
1.62263e-05
1.61256e-05
1.60437e-05
1.59576e-05
1.58753e-05
1.57905e-05
1.57151e-05
1.5633e-05
1.55582e-05
1.54842e-05
1.54171e-05
1.5337e-05
1.527e-05
1.52062e-05
1.51377e-05
1.50682e-05
1.50101e-05
1.49304e-05
1.48836e-05
1.48e-05
1.47285e-05
1.46311e-05
1.45142e-05
2e-05
1.98271e-05
1.94621e-05
1.92477e-05
1.90398e-05
1.8857e-05
1.86712e-05
1.85288e-05
1.83851e-05
1.82473e-05
1.81002e-05
1.79687e-05
1.78293e-05
1.7703e-05
1.75663e-05
1.74497e-05
1.73168e-05
1.72079e-05
1.70802e-05
1.69775e-05
1.68533e-05
1.6758e-05
1.66384e-05
1.65447e-05
1.64351e-05
1.63415e-05
1.62392e-05
1.61543e-05
1.60506e-05
1.59678e-05
1.58773e-05
1.57937e-05
1.57062e-05
1.56288e-05
1.55424e-05
1.54665e-05
1.53886e-05
1.53181e-05
1.52362e-05
1.51659e-05
1.50956e-05
1.5027e-05
1.49495e-05
1.48921e-05
1.48052e-05
1.47522e-05
1.46661e-05
1.45904e-05
1.44845e-05
1.43669e-05
1.99999e-05
1.9826e-05
1.94538e-05
1.92301e-05
1.90211e-05
1.88436e-05
1.86524e-05
1.85048e-05
1.83599e-05
1.8221e-05
1.80725e-05
1.79391e-05
1.77975e-05
1.76695e-05
1.75311e-05
1.74119e-05
1.72777e-05
1.71664e-05
1.7037e-05
1.69323e-05
1.68052e-05
1.67095e-05
1.65862e-05
1.64907e-05
1.63795e-05
1.62838e-05
1.6179e-05
1.60918e-05
1.59865e-05
1.59025e-05
1.58077e-05
1.57235e-05
1.56338e-05
1.55543e-05
1.54648e-05
1.53888e-05
1.53059e-05
1.52347e-05
1.51501e-05
1.50794e-05
1.50015e-05
1.49348e-05
1.48522e-05
1.47929e-05
1.47041e-05
1.46426e-05
1.45584e-05
1.44781e-05
1.43687e-05
1.4253e-05
1.99999e-05
1.98254e-05
1.94485e-05
1.92133e-05
1.90033e-05
1.88324e-05
1.86372e-05
1.84843e-05
1.83384e-05
1.81989e-05
1.80496e-05
1.79148e-05
1.77714e-05
1.76419e-05
1.75027e-05
1.73809e-05
1.72461e-05
1.71331e-05
1.70021e-05
1.68959e-05
1.67663e-05
1.66703e-05
1.65439e-05
1.64471e-05
1.63339e-05
1.62372e-05
1.61296e-05
1.60402e-05
1.59345e-05
1.58486e-05
1.57501e-05
1.5666e-05
1.5574e-05
1.54923e-05
1.54012e-05
1.53242e-05
1.52372e-05
1.51653e-05
1.50797e-05
1.50071e-05
1.49242e-05
1.48579e-05
1.47738e-05
1.47099e-05
1.4623e-05
1.45529e-05
1.44724e-05
1.43886e-05
1.4277e-05
1.41651e-05
1.99999e-05
1.98252e-05
1.9446e-05
1.91982e-05
1.8987e-05
1.88233e-05
1.86261e-05
1.84681e-05
1.83212e-05
1.81816e-05
1.8032e-05
1.78964e-05
1.77514e-05
1.76212e-05
1.74817e-05
1.7358e-05
1.72226e-05
1.71087e-05
1.69763e-05
1.6869e-05
1.6738e-05
1.66411e-05
1.65124e-05
1.64149e-05
1.62992e-05
1.62029e-05
1.60922e-05
1.60009e-05
1.58958e-05
1.58071e-05
1.57059e-05
1.56224e-05
1.55276e-05
1.54442e-05
1.53525e-05
1.52736e-05
1.51835e-05
1.5111e-05
1.50251e-05
1.49489e-05
1.48646e-05
1.47963e-05
1.47133e-05
1.46429e-05
1.45593e-05
1.44842e-05
1.44035e-05
1.43214e-05
1.42054e-05
1.41006e-05
1.99999e-05
1.98255e-05
1.94461e-05
1.91856e-05
1.89726e-05
1.88162e-05
1.86192e-05
1.84563e-05
1.83085e-05
1.81693e-05
1.80202e-05
1.78843e-05
1.77382e-05
1.76077e-05
1.74683e-05
1.73435e-05
1.72079e-05
1.70937e-05
1.69603e-05
1.68521e-05
1.67208e-05
1.66227e-05
1.64925e-05
1.63951e-05
1.62764e-05
1.61816e-05
1.60676e-05
1.59752e-05
1.58708e-05
1.57792e-05
1.56766e-05
1.55937e-05
1.54958e-05
1.54114e-05
1.53195e-05
1.52382e-05
1.51462e-05
1.50735e-05
1.49859e-05
1.49075e-05
1.4822e-05
1.47536e-05
1.46682e-05
1.45957e-05
1.45116e-05
1.44385e-05
1.43509e-05
1.42761e-05
1.41563e-05
1.40562e-05
1.99999e-05
1.98262e-05
1.94486e-05
1.9176e-05
1.89605e-05
1.88107e-05
1.86163e-05
1.84493e-05
1.83004e-05
1.81621e-05
1.80141e-05
1.78784e-05
1.77319e-05
1.76018e-05
1.74627e-05
1.73378e-05
1.72025e-05
1.70883e-05
1.69547e-05
1.68459e-05
1.67152e-05
1.66159e-05
1.64848e-05
1.63886e-05
1.62664e-05
1.61737e-05
1.6057e-05
1.59643e-05
1.586e-05
1.5766e-05
1.56632e-05
1.55802e-05
1.54794e-05
1.53953e-05
1.53026e-05
1.5219e-05
1.51264e-05
1.50532e-05
1.49632e-05
1.48841e-05
1.4798e-05
1.47292e-05
1.46406e-05
1.45683e-05
1.44827e-05
1.44136e-05
1.4319e-05
1.42502e-05
1.41328e-05
1.40326e-05
1.99999e-05
1.98275e-05
1.94538e-05
1.917e-05
1.89513e-05
1.88067e-05
1.86173e-05
1.84474e-05
1.82971e-05
1.81602e-05
1.80139e-05
1.7879e-05
1.77329e-05
1.76035e-05
1.7465e-05
1.73407e-05
1.7206e-05
1.70919e-05
1.69586e-05
1.685e-05
1.67197e-05
1.662e-05
1.64883e-05
1.63936e-05
1.62688e-05
1.61778e-05
1.60595e-05
1.59671e-05
1.58622e-05
1.57673e-05
1.5665e-05
1.55812e-05
1.54789e-05
1.53954e-05
1.53014e-05
1.52166e-05
1.51243e-05
1.505e-05
1.49575e-05
1.48794e-05
1.47931e-05
1.47227e-05
1.46323e-05
1.45608e-05
1.44758e-05
1.44065e-05
1.43129e-05
1.42438e-05
1.41347e-05
1.4033e-05
1.99999e-05
1.98293e-05
1.9461e-05
1.91678e-05
1.89451e-05
1.88041e-05
1.86218e-05
1.845e-05
1.82982e-05
1.8163e-05
1.80186e-05
1.78847e-05
1.77397e-05
1.76114e-05
1.74737e-05
1.73509e-05
1.72175e-05
1.71037e-05
1.69715e-05
1.68638e-05
1.6734e-05
1.66349e-05
1.65024e-05
1.64105e-05
1.62825e-05
1.61941e-05
1.60742e-05
1.59829e-05
1.58765e-05
1.57816e-05
1.56805e-05
1.5595e-05
1.54918e-05
1.54094e-05
1.53135e-05
1.52286e-05
1.51366e-05
1.50607e-05
1.49667e-05
1.48902e-05
1.48034e-05
1.47313e-05
1.46405e-05
1.45703e-05
1.44855e-05
1.44161e-05
1.4325e-05
1.42555e-05
1.41535e-05
1.40548e-05
1.99999e-05
1.98316e-05
1.94703e-05
1.91695e-05
1.89422e-05
1.88029e-05
1.86293e-05
1.84576e-05
1.83036e-05
1.81705e-05
1.80283e-05
1.78963e-05
1.77534e-05
1.76265e-05
1.749e-05
1.73695e-05
1.72377e-05
1.71245e-05
1.69942e-05
1.68882e-05
1.67586e-05
1.66614e-05
1.65287e-05
1.64393e-05
1.63094e-05
1.62235e-05
1.61032e-05
1.60132e-05
1.59052e-05
1.58122e-05
1.57122e-05
1.56247e-05
1.55222e-05
1.54412e-05
1.53429e-05
1.52592e-05
1.51677e-05
1.50895e-05
1.49947e-05
1.49212e-05
1.48332e-05
1.47591e-05
1.4669e-05
1.46016e-05
1.45164e-05
1.44474e-05
1.43595e-05
1.42937e-05
1.41944e-05
1.41034e-05
1.99999e-05
1.98345e-05
1.94813e-05
1.91751e-05
1.89426e-05
1.88035e-05
1.86392e-05
1.84694e-05
1.83136e-05
1.81825e-05
1.80424e-05
1.79129e-05
1.77724e-05
1.76471e-05
1.75123e-05
1.73946e-05
1.72644e-05
1.71526e-05
1.70247e-05
1.69205e-05
1.67917e-05
1.66968e-05
1.65647e-05
1.64775e-05
1.63467e-05
1.62636e-05
1.61431e-05
1.60544e-05
1.59456e-05
1.58556e-05
1.57555e-05
1.5667e-05
1.55665e-05
1.54858e-05
1.53863e-05
1.53049e-05
1.52129e-05
1.51333e-05
1.50399e-05
1.49685e-05
1.48785e-05
1.48043e-05
1.4717e-05
1.46517e-05
1.45658e-05
1.44987e-05
1.44153e-05
1.43538e-05
1.4256e-05
1.41676e-05
1.99999e-05
1.98378e-05
1.94932e-05
1.91849e-05
1.89464e-05
1.8806e-05
1.86509e-05
1.84847e-05
1.83275e-05
1.81981e-05
1.80602e-05
1.79339e-05
1.7796e-05
1.76724e-05
1.75399e-05
1.7425e-05
1.72966e-05
1.71869e-05
1.7062e-05
1.69593e-05
1.68324e-05
1.67397e-05
1.6609e-05
1.65235e-05
1.63932e-05
1.63128e-05
1.61922e-05
1.61051e-05
1.59967e-05
1.59096e-05
1.58087e-05
1.57208e-05
1.56226e-05
1.55416e-05
1.5442e-05
1.53631e-05
1.52698e-05
1.51904e-05
1.50992e-05
1.50288e-05
1.4937e-05
1.48647e-05
1.47805e-05
1.47167e-05
1.46306e-05
1.45668e-05
1.44886e-05
1.44313e-05
1.43341e-05
1.42459e-05
1.99999e-05
1.98414e-05
1.95061e-05
1.9198e-05
1.89536e-05
1.88113e-05
1.86641e-05
1.85033e-05
1.83453e-05
1.8217e-05
1.80812e-05
1.79587e-05
1.78233e-05
1.77018e-05
1.7572e-05
1.74598e-05
1.73335e-05
1.72264e-05
1.71048e-05
1.70033e-05
1.68797e-05
1.67885e-05
1.66603e-05
1.6576e-05
1.64473e-05
1.63695e-05
1.62486e-05
1.6164e-05
1.60568e-05
1.59721e-05
1.58705e-05
1.57845e-05
1.56881e-05
1.56068e-05
1.55084e-05
1.54314e-05
1.5337e-05
1.52593e-05
1.51703e-05
1.50997e-05
1.50073e-05
1.4939e-05
1.48573e-05
1.47941e-05
1.47092e-05
1.46506e-05
1.45774e-05
1.45228e-05
1.44256e-05
1.43356e-05
1.99999e-05
1.98454e-05
1.95194e-05
1.92141e-05
1.89639e-05
1.88193e-05
1.86782e-05
1.85245e-05
1.83665e-05
1.82386e-05
1.8105e-05
1.79866e-05
1.78535e-05
1.77345e-05
1.76075e-05
1.74978e-05
1.73741e-05
1.72701e-05
1.71516e-05
1.70514e-05
1.69322e-05
1.68416e-05
1.67171e-05
1.66334e-05
1.65077e-05
1.64317e-05
1.63107e-05
1.62298e-05
1.61238e-05
1.60406e-05
1.59393e-05
1.58563e-05
1.57607e-05
1.56798e-05
1.55835e-05
1.55073e-05
1.54127e-05
1.53381e-05
1.52503e-05
1.51791e-05
1.5088e-05
1.50248e-05
1.49441e-05
1.48813e-05
1.48001e-05
1.47479e-05
1.46783e-05
1.46248e-05
1.45266e-05
1.44341e-05
1.99999e-05
1.98496e-05
1.95331e-05
1.92327e-05
1.89772e-05
1.88303e-05
1.86931e-05
1.85476e-05
1.83905e-05
1.82627e-05
1.81313e-05
1.80168e-05
1.78859e-05
1.77699e-05
1.76457e-05
1.75381e-05
1.74175e-05
1.73167e-05
1.72011e-05
1.71026e-05
1.69883e-05
1.68977e-05
1.67779e-05
1.66943e-05
1.65727e-05
1.64975e-05
1.63772e-05
1.63008e-05
1.61955e-05
1.61135e-05
1.60137e-05
1.59339e-05
1.58381e-05
1.57589e-05
1.56646e-05
1.55888e-05
1.54952e-05
1.54242e-05
1.53364e-05
1.52651e-05
1.51778e-05
1.51191e-05
1.50378e-05
1.49767e-05
1.49015e-05
1.4855e-05
1.47876e-05
1.4734e-05
1.46341e-05
1.45378e-05
1.99999e-05
1.9854e-05
1.95469e-05
1.92532e-05
1.89936e-05
1.88441e-05
1.87089e-05
1.85721e-05
1.84166e-05
1.82889e-05
1.81596e-05
1.80487e-05
1.79199e-05
1.78073e-05
1.76854e-05
1.75802e-05
1.74629e-05
1.73651e-05
1.72523e-05
1.71563e-05
1.70465e-05
1.6956e-05
1.68413e-05
1.67576e-05
1.66405e-05
1.65653e-05
1.64473e-05
1.63749e-05
1.62697e-05
1.61893e-05
1.60922e-05
1.6015e-05
1.59187e-05
1.58422e-05
1.57497e-05
1.56741e-05
1.55826e-05
1.55149e-05
1.5426e-05
1.53564e-05
1.52742e-05
1.52184e-05
1.51357e-05
1.50792e-05
1.50107e-05
1.49682e-05
1.49016e-05
1.48472e-05
1.47453e-05
1.46432e-05
1.99999e-05
1.98584e-05
1.95609e-05
1.9275e-05
1.90128e-05
1.88607e-05
1.87257e-05
1.85974e-05
1.84444e-05
1.83171e-05
1.81896e-05
1.80816e-05
1.79552e-05
1.78461e-05
1.77261e-05
1.76235e-05
1.75095e-05
1.74145e-05
1.73043e-05
1.72117e-05
1.71053e-05
1.70157e-05
1.69057e-05
1.68226e-05
1.67095e-05
1.6634e-05
1.65199e-05
1.64501e-05
1.6345e-05
1.6267e-05
1.61728e-05
1.60976e-05
1.6001e-05
1.5928e-05
1.58365e-05
1.57615e-05
1.56732e-05
1.56076e-05
1.55175e-05
1.5452e-05
1.53745e-05
1.53192e-05
1.5237e-05
1.51871e-05
1.51244e-05
1.5084e-05
1.50175e-05
1.49616e-05
1.48572e-05
1.47466e-05
1.99999e-05
1.98629e-05
1.9575e-05
1.92976e-05
1.90346e-05
1.88797e-05
1.87437e-05
1.86231e-05
1.84731e-05
1.83472e-05
1.82208e-05
1.81151e-05
1.79914e-05
1.78857e-05
1.77673e-05
1.76675e-05
1.75563e-05
1.74639e-05
1.73566e-05
1.72678e-05
1.71636e-05
1.70763e-05
1.69699e-05
1.68884e-05
1.67783e-05
1.67029e-05
1.65937e-05
1.65245e-05
1.64204e-05
1.63455e-05
1.62537e-05
1.61801e-05
1.60842e-05
1.60144e-05
1.59232e-05
1.58501e-05
1.57649e-05
1.56997e-05
1.56099e-05
1.55503e-05
1.54754e-05
1.54191e-05
1.53409e-05
1.52984e-05
1.52388e-05
1.51995e-05
1.51326e-05
1.50748e-05
1.49664e-05
1.48451e-05
1.99999e-05
1.98673e-05
1.95891e-05
1.93205e-05
1.90587e-05
1.89008e-05
1.87629e-05
1.8649e-05
1.85025e-05
1.83788e-05
1.82528e-05
1.8149e-05
1.80281e-05
1.79254e-05
1.78086e-05
1.77116e-05
1.76029e-05
1.75128e-05
1.74086e-05
1.73235e-05
1.72209e-05
1.71368e-05
1.7033e-05
1.69541e-05
1.68459e-05
1.67716e-05
1.66668e-05
1.65973e-05
1.6495e-05
1.64241e-05
1.63334e-05
1.62609e-05
1.61674e-05
1.60998e-05
1.60083e-05
1.5939e-05
1.58555e-05
1.57896e-05
1.57027e-05
1.56492e-05
1.5574e-05
1.55177e-05
1.54466e-05
1.541e-05
1.53508e-05
1.53122e-05
1.52448e-05
1.51851e-05
1.50696e-05
1.49354e-05
1.99999e-05
1.98718e-05
1.96031e-05
1.93434e-05
1.90845e-05
1.89238e-05
1.87834e-05
1.86749e-05
1.85324e-05
1.84115e-05
1.82854e-05
1.81833e-05
1.8065e-05
1.7965e-05
1.78498e-05
1.77552e-05
1.76487e-05
1.7561e-05
1.74599e-05
1.73781e-05
1.72771e-05
1.71964e-05
1.7095e-05
1.70184e-05
1.69118e-05
1.68397e-05
1.67376e-05
1.66684e-05
1.65681e-05
1.65014e-05
1.64105e-05
1.63395e-05
1.62497e-05
1.61827e-05
1.60913e-05
1.60268e-05
1.59431e-05
1.58769e-05
1.57952e-05
1.5746e-05
1.56682e-05
1.56153e-05
1.55523e-05
1.55183e-05
1.54587e-05
1.54202e-05
1.53525e-05
1.52895e-05
1.51648e-05
1.50144e-05
1.99999e-05
1.98761e-05
1.9617e-05
1.93662e-05
1.91117e-05
1.89485e-05
1.88053e-05
1.87007e-05
1.85625e-05
1.84447e-05
1.83185e-05
1.82181e-05
1.8102e-05
1.80043e-05
1.78907e-05
1.77981e-05
1.76936e-05
1.76081e-05
1.75104e-05
1.74309e-05
1.73324e-05
1.72542e-05
1.71559e-05
1.70804e-05
1.69763e-05
1.69063e-05
1.68051e-05
1.67378e-05
1.66388e-05
1.65764e-05
1.64845e-05
1.64157e-05
1.63298e-05
1.62621e-05
1.61721e-05
1.61119e-05
1.60261e-05
1.59618e-05
1.5886e-05
1.58377e-05
1.5758e-05
1.57122e-05
1.56551e-05
1.56207e-05
1.55608e-05
1.55231e-05
1.5454e-05
1.53862e-05
1.52485e-05
1.50823e-05
1.99999e-05
1.98804e-05
1.96307e-05
1.93887e-05
1.91397e-05
1.89745e-05
1.88288e-05
1.87266e-05
1.85928e-05
1.84782e-05
1.83521e-05
1.82533e-05
1.8139e-05
1.8043e-05
1.79313e-05
1.784e-05
1.77374e-05
1.76541e-05
1.75596e-05
1.74818e-05
1.73866e-05
1.73097e-05
1.72155e-05
1.71394e-05
1.70394e-05
1.69702e-05
1.68695e-05
1.68054e-05
1.67065e-05
1.66483e-05
1.65552e-05
1.64895e-05
1.64062e-05
1.63375e-05
1.62506e-05
1.61926e-05
1.61041e-05
1.60447e-05
1.59733e-05
1.59225e-05
1.58451e-05
1.58069e-05
1.57517e-05
1.5716e-05
1.56569e-05
1.56195e-05
1.55475e-05
1.54727e-05
1.53186e-05
1.51394e-05
1.99999e-05
1.98846e-05
1.96442e-05
1.94108e-05
1.91681e-05
1.90017e-05
1.88537e-05
1.87526e-05
1.8623e-05
1.85118e-05
1.83862e-05
1.82889e-05
1.81758e-05
1.80812e-05
1.79713e-05
1.7881e-05
1.778e-05
1.76991e-05
1.76072e-05
1.75309e-05
1.74394e-05
1.7363e-05
1.72735e-05
1.71957e-05
1.71013e-05
1.70305e-05
1.69317e-05
1.68701e-05
1.67713e-05
1.67161e-05
1.66231e-05
1.65604e-05
1.64778e-05
1.64096e-05
1.63264e-05
1.62672e-05
1.61779e-05
1.61256e-05
1.60546e-05
1.60009e-05
1.59294e-05
1.58971e-05
1.58406e-05
1.5804e-05
1.57462e-05
1.57077e-05
1.56313e-05
1.55459e-05
1.5376e-05
1.51858e-05
1.99999e-05
1.98887e-05
1.96574e-05
1.94324e-05
1.91967e-05
1.90298e-05
1.88801e-05
1.87789e-05
1.86532e-05
1.85451e-05
1.84209e-05
1.83247e-05
1.82125e-05
1.81191e-05
1.80106e-05
1.79211e-05
1.78217e-05
1.77428e-05
1.76531e-05
1.75786e-05
1.74902e-05
1.74146e-05
1.73291e-05
1.72499e-05
1.71612e-05
1.70869e-05
1.69925e-05
1.69309e-05
1.68332e-05
1.67803e-05
1.66874e-05
1.66281e-05
1.65448e-05
1.64783e-05
1.63978e-05
1.6336e-05
1.62493e-05
1.62018e-05
1.61282e-05
1.60752e-05
1.60104e-05
1.59803e-05
1.5921e-05
1.58849e-05
1.5828e-05
1.57869e-05
1.57025e-05
1.56045e-05
1.54228e-05
1.52185e-05
1.99999e-05
1.98927e-05
1.96703e-05
1.94534e-05
1.92253e-05
1.90586e-05
1.89079e-05
1.88056e-05
1.86833e-05
1.85782e-05
1.84564e-05
1.83607e-05
1.82493e-05