/*--------------------------------*- C++ -*----------------------------------*\
  =========                 |
  \\      /  F ield         | OpenFOAM: The Open Source CFD Toolbox
   \\    /   O peration     | Website:  https://openfoam.org
    \\  /    A nd           | Version:  7
     \\/     M anipulation  |
\*---------------------------------------------------------------------------*/
FoamFile
{
    version     2.0;
    format      ascii;
    class       volScalarField;
    location    "0.37";
    object      nut;
}
// * * * * * * * * * * * * * * * * * * * * * * * * * * * * * * * * * * * * * //

dimensions      [0 2 -1 0 0 0 0];

internalField   nonuniform List<scalar> 
70000
(
0
0
0
0
0
0
0
0
0
0
0
0
0
0
0
0
0
0
0
0
0
0
0
0
0
0
0
0
0
0
0
0
0
0
0
0
0
0
0
0
0
0
0
0
0
0
0
5.58535e-13
0
0
0
0
0
0
0
0
0
0
0
0
0
0
0
0
0
0
0
0
0
0
0
0
0
0
0
0
0
0
0
0
0
0
0
0
0
0
0
0
0
0
0
0
0
0
0
0
0
1.2708e-12
0
0
0
0
0
0
0
0
0
0
0
0
0
0
0
0
0
0
0
0
0
0
0
0
0
0
0
0
0
0
0
0
0
0
0
0
0
0
0
0
0
0
0
0
0
0
0
2.31523e-14
0
2.22582e-12
8.94045e-14
0
0
0
0
0
0
0
0
0
0
0
0
0
0
0
0
0
0
0
0
0
0
0
0
0
0
0
0
0
0
0
0
0
0
0
0
0
0
0
0
0
0
0
0
0
0
3.78511e-13
0
3.2353e-12
1.98764e-12
0
0
0
0
0
0
0
0
0
0
0
0
0
0
0
0
0
0
0
0
0
0
0
0
0
0
0
0
0
0
0
0
0
0
0
0
0
0
0
0
0
0
0
0
0
0
8.35427e-13
0
4.2298e-12
3.23212e-12
0
9.44488e-10
0
0
0
0
0
0
0
0
0
0
0
0
0
0
0
0
0
0
0
0
0
0
0
0
0
0
0
0
0
0
0
0
0
0
0
0
0
0
0
0
0
0
0
0
1.32525e-12
0
4.996e-12
4.40733e-12
0
1.3198e-08
0
0
0
0
0
0
0
0
0
0
0
0
0
0
0
0
0
0
0
0
0
0
0
0
0
0
0
0
0
0
0
0
0
0
0
0
0
0
0
0
0
0
7.95909e-14
0
1.72952e-12
0
5.30027e-12
5.90221e-12
0
1.20917e-08
0
0
0
0
0
0
0
0
0
0
0
0
0
0
0
0
0
0
0
0
0
0
0
0
0
0
0
0
0
0
0
0
0
0
0
0
0
0
0
0
0
0
1.23576e-13
0
2.00358e-12
0
5.20167e-12
7.64029e-12
0
1.10717e-08
0
0
0
0
0
0
0
0
0
0
0
0
0
0
0
0
0
0
0
0
0
0
0
0
0
0
0
0
0
0
0
0
0
0
0
0
0
0
0
0
0
0
1.41243e-13
0
2.1653e-12
0
4.91304e-12
9.43536e-12
0
1.02232e-08
0
0
0
0
0
0
0
0
0
0
0
0
0
0
0
0
0
0
0
0
0
0
0
0
0
0
0
0
0
0
0
0
0
0
0
0
0
0
0
0
0
0
1.50508e-13
0
2.26122e-12
0
4.60052e-12
1.11922e-11
0
9.51315e-09
0
0
0
0
0
0
0
0
0
0
0
0
0
0
0
0
0
0
0
0
0
0
0
0
0
0
0
0
0
0
0
0
0
0
0
0
0
0
0
0
0
0
1.78331e-13
0
2.33571e-12
0
4.35367e-12
1.28648e-11
0
8.87067e-09
0
0
0
0
0
0
0
0
0
0
0
0
0
0
0
0
0
0
0
0
0
0
0
0
0
0
0
0
0
0
0
0
0
0
0
0
0
0
0
0
0
0
2.60365e-13
0
2.43417e-12
0
4.23421e-12
1.43818e-11
0
8.22983e-09
0
0
0
0
0
0
0
0
0
0
0
0
0
0
0
0
0
0
0
0
0
0
0
0
0
0
0
0
0
0
0
0
0
0
0
0
0
0
0
0
0
0
4.41885e-13
0
2.62477e-12
8.43783e-13
4.34541e-12
1.57943e-11
0
7.57074e-09
0
0
0
0
0
0
0
0
0
0
0
1.74384e-11
5.04414e-11
1.81254e-11
0
0
0
0
0
0
0
0
0
0
0
0
0
0
0
0
0
0
0
0
0
0
0
0
0
0
0
0
7.8785e-13
0
3.01327e-12
2.39734e-12
4.84416e-12
1.73421e-11
0
6.89956e-09
0
0
0
0
0
0
0
0
0
0
0
0
0
0
5.82327e-11
9.93471e-11
8.33038e-11
3.52299e-11
9.19258e-12
0
0
0
0
0
0
0
0
0
0
0
0
0
0
0
0
0
0
0
0
0
0
0
1.42839e-12
0
3.80915e-12
4.4948e-12
6.04346e-12
1.96175e-11
0
6.22741e-09
0
0
0
4.21104e-12
0
0
0
0
0
0
0
0
0
0
0
0
1.59006e-11
5.66163e-11
1.00987e-10
1.35817e-10
1.35439e-10
8.86706e-11
4.20272e-11
1.7564e-11
6.54674e-12
1.65113e-12
0
0
0
0
0
0
0
0
0
0
0
0
0
0
6.44495e-13
0
2.74722e-12
1.1854e-12
5.55321e-12
7.79821e-12
8.7751e-12
2.41476e-11
5.59919e-12
5.56284e-09
0
0
0
1.05779e-10
0
0
0
0
0
0
0
0
0
0
0
0
0
0
0
1.71981e-11
4.03186e-11
7.01358e-11
1.05793e-10
1.43441e-10
1.75613e-10
1.85056e-10
1.5136e-10
9.56773e-11
5.35351e-11
2.96232e-11
1.69433e-11
1.02218e-11
6.53983e-12
4.41114e-12
3.11467e-12
2.30969e-12
1.97652e-12
1.67088e-12
2.21025e-12
1.88198e-12
3.72336e-12
2.74016e-12
6.48409e-12
5.33527e-12
1.0288e-11
1.4789e-11
1.60081e-11
3.59684e-11
2.37961e-11
4.91213e-09
0
0
0
1.92252e-10
0
0
0
0
0
0
0
0
0
0
0
0
0
0
0
0
0
6.75848e-12
1.84126e-11
3.10408e-11
4.59125e-11
6.51832e-11
9.03346e-11
1.21326e-10
1.5732e-10
1.95912e-10
2.33865e-10
2.5895e-10
2.48292e-10
1.98131e-10
1.38641e-10
9.29939e-11
6.41925e-11
4.62996e-11
3.69654e-11
2.97462e-11
2.86987e-11
2.42278e-11
2.78352e-11
2.55796e-11
3.13663e-11
3.99087e-11
4.4024e-11
7.94925e-11
8.67591e-11
4.28083e-09
0
0
0
2.51097e-10
0
0
0
0
0
0
0
0
0
0
0
0
0
0
0
0
0
0
0
3.31245e-12
1.13263e-11
1.95397e-11
2.8072e-11
3.71509e-11
4.70292e-11
5.84372e-11
7.24328e-11
9.07704e-11
1.149e-10
1.45297e-10
1.83017e-10
2.27472e-10
2.81527e-10
3.42346e-10
4.10297e-10
4.53782e-10
4.55016e-10
3.96335e-10
3.32552e-10
2.70932e-10
2.41082e-10
2.42638e-10
2.57123e-10
3.65478e-10
4.48834e-10
3.67406e-09
0
0
0
2.67351e-10
0
0
0
0
0
0
0
0
0
0
0
0
0
0
0
0
0
0
0
0
0
2.49192e-12
8.14679e-12
1.38241e-11
1.95817e-11
2.54818e-11
3.1575e-11
3.78077e-11
4.43551e-11
5.07413e-11
5.79001e-11
6.38278e-11
7.25651e-11
7.77089e-11
9.14998e-11
9.77027e-11
1.2067e-10
1.34489e-10
1.71173e-10
2.28441e-10
3.23742e-10
5.68169e-10
1.00331e-09
1.98176e-09
2.78803e-09
3.09611e-09
0
0
0
2.23785e-10
0
0
0
0
0
0
0
0
0
0
0
0
0
0
0
0
0
0
0
0
0
0
0
2.96541e-12
6.84262e-12
1.05331e-11
1.40885e-11
1.7327e-11
2.0443e-11
2.26159e-11
2.48325e-11
2.40933e-11
2.43401e-11
1.63801e-11
1.19309e-11
0
0
0
0
0
0
0
0
0
0
2.54993e-09
0
0
0
1.01495e-10
0
0
0
0
0
0
0
0
0
0
0
0
0
0
0
0
0
0
0
0
0
0
0
0
1.0555e-12
3.59404e-12
5.79332e-12
7.36801e-12
8.58293e-12
8.38852e-12
7.95645e-12
3.86951e-12
3.38947e-13
0
0
0
0
0
0
0
0
0
0
0
0
2.03684e-09
0
0
0
0
0
0
0
0
0
0
0
0
0
0
0
0
0
0
0
0
0
0
0
0
0
0
0
0
0
6.19143e-13
2.0574e-12
2.61656e-12
2.6285e-12
8.43597e-13
0
0
0
0
0
0
0
0
0
0
0
0
0
0
0
1.55641e-09
0
0
0
0
0
0
0
0
0
0
0
0
0
0
0
0
0
0
0
0
0
0
0
0
0
0
0
0
0
0
5.01122e-13
3.57515e-13
0
0
0
0
0
0
0
0
0
0
0
0
0
0
0
0
0
1.10661e-09
0
0
0
0
0
0
0
0
0
0
0
0
0
0
0
0
0
0
0
0
0
0
0
0
0
0
0
0
0
0
0
0
0
0
0
0
0
0
0
0
0
0
0
0
0
0
0
0
0
6.84252e-10
0
0
0
0
0
0
0
0
0
0
0
0
0
0
0
0
0
0
0
0
0
0
0
0
0
0
0
0
0
0
0
0
0
0
0
0
0
0
0
0
0
0
0
0
0
0
0
0
0
2.85522e-10
0
0
0
0
0
0
0
0
0
0
0
0
0
0
0
0
0
0
0
0
0
0
0
0
0
0
0
0
0
0
0
0
0
0
0
0
0
0
0
0
0
0
0
0
0
0
0
0
0
0
0
0
0
0
0
0
0
0
0
0
0
0
0
0
0
0
0
0
0
0
0
0
0
0
0
0
0
0
0
0
0
0
0
0
0
0
0
0
0
0
0
0
0
0
0
0
0
0
0
0
0
0
0
0
0
0
0
0
0
0
0
0
0
0
0
0
0
0
0
0
0
0
0
0
0
0
0
0
0
0
0
0
0
0
0
0
0
0
0
0
0
0
0
0
0
0
0
0
0
0
0
0
0
0
0
0
0
0
0
0
0
0
0
0
0
0
0
0
0
0
0
0
0
0
0
0
0
0
0
0
0
0
0
0
0
0
0
0
0
0
0
0
0
0
0
0
0
0
0
0
0
0
0
0
0
0
0
0
0
0
0
0
0
0
0
0
0
0
0
0
0
0
0
0
0
0
0
0
0
0
0
0
0
0
0
0
0
0
0
0
0
0
0
0
0
0
0
0
8.35749e-09
0
0
0
0
0
0
0
0
0
0
0
0
0
0
0
0
0
0
0
0
0
0
0
0
0
0
0
0
0
0
0
0
0
0
0
0
0
0
0
0
0
0
0
0
0
0
0
0
2.82371e-10
1.87274e-08
0
1.0585e-09
0
0
0
0
0
0
0
0
0
0
0
0
0
0
0
0
0
0
0
0
0
0
0
0
0
0
0
0
0
0
0
0
0
0
0
0
0
0
0
0
0
0
0
0
0
0
4.68956e-09
2.60003e-08
0
2.00225e-09
0
0
0
0
0
0
0
0
0
0
0
0
0
0
0
0
0
0
0
0
0
0
0
0
0
0
0
0
0
0
0
0
0
0
0
0
0
0
0
0
0
0
0
0
0
2.37594e-10
9.83377e-09
2.8221e-08
0
2.82044e-09
0
0
0
0
0
0
0
0
0
0
0
0
0
0
0
0
0
0
0
0
0
0
0
0
0
0
0
0
0
0
0
0
0
0
0
0
0
0
0
0
0
0
0
0
0
2.60322e-09
1.46977e-08
2.65477e-08
0
3.51463e-09
0
0
0
0
0
0
0
0
0
0
0
0
0
0
0
0
0
0
0
0
0
0
0
0
0
0
0
0
0
0
0
0
0
0
0
0
0
0
0
0
0
0
0
0
2.00105e-11
5.42912e-09
1.81708e-08
2.30045e-08
0
4.08965e-09
0
0
0
0
0
0
0
0
0
0
0
0
0
0
0
0
0
0
0
0
0
0
0
0
0
0
0
0
0
0
0
0
0
0
0
0
0
0
0
0
0
0
0
0
1.45783e-09
8.38585e-09
1.96734e-08
1.89937e-08
0
4.55283e-09
0
0
0
0
0
0
0
0
0
0
0
0
0
0
0
0
0
0
0
0
0
0
0
0
0
0
0
0
0
0
0
0
0
0
0
0
0
0
0
0
0
0
0
0
3.18459e-09
1.10261e-08
1.93591e-08
1.51885e-08
0
4.91231e-09
0
0
0
0
0
0
0
0
0
0
0
0
0
0
0
0
0
0
0
0
0
0
0
0
0
0
0
0
0
0
0
0
0
0
0
0
0
0
0
0
0
0
0
7.2883e-10
5.06351e-09
1.29433e-08
1.7801e-08
1.18386e-08
0
5.17677e-09
0
0
0
0
0
0
0
0
0
0
0
0
0
0
0
0
0
0
0
0
0
0
0
0
0
0
0
0
0
0
0
0
0
0
0
0
0
0
0
0
0
0
0
1.86529e-09
6.89617e-09
1.39261e-08
1.56033e-08
8.99901e-09
0
5.35612e-09
0
0
0
0
0
0
0
0
0
0
0
0
0
0
0
0
0
0
0
0
0
0
0
0
0
0
0
0
0
0
0
0
0
0
0
0
0
0
0
0
0
0
2.35357e-10
3.12672e-09
8.4693e-09
1.40028e-08
1.32138e-08
6.64735e-09
0
5.46137e-09
0
0
0
0
0
0
0
0
0
0
0
0
0
0
0
0
0
0
0
0
0
0
0
0
0
2.36088e-12
0
0
0
0
0
0
0
0
0
0
0
0
0
0
0
0
1.03009e-09
4.41491e-09
9.61623e-09
1.33688e-08
1.09044e-08
4.7365e-09
0
5.50358e-09
0
0
0
0
0
0
0
0
0
0
0
0
0
0
0
0
0
0
0
0
0
0
0
0
1.99366e-12
7.61908e-12
2.03963e-12
0
0
0
0
0
0
0
0
0
0
0
0
0
0
0
1.92264e-09
5.61712e-09
1.02604e-08
1.22774e-08
8.81655e-09
3.21419e-09
0
5.49297e-09
0
0
0
0
0
0
0
0
0
0
0
0
0
0
0
0
0
0
0
0
0
0
0
0
1.08621e-11
1.5345e-11
7.37736e-12
0
0
0
0
0
0
0
0
0
0
0
0
0
0
4.86391e-10
2.86019e-09
6.63083e-09
1.04205e-08
1.09594e-08
7.01151e-09
2.03009e-09
0
5.43854e-09
0
0
0
0
0
0
0
0
0
0
0
0
0
0
0
0
0
0
0
0
0
0
0
6.1326e-12
2.33693e-11
2.64444e-11
1.5781e-11
0
0
0
0
0
0
0
0
0
0
0
0
0
0
1.15262e-09
3.78072e-09
7.38631e-09
1.01845e-08
9.58925e-09
5.50474e-09
1.13855e-09
0
5.34798e-09
0
0
0
0
0
0
0
0
0
0
0
0
0
0
0
0
0
0
0
0
0
0
0
2.36746e-11
4.06649e-11
4.20743e-11
2.84316e-11
0
0
0
0
0
0
0
0
0
0
0
0
0
1.52709e-10
1.86928e-09
4.62384e-09
7.85819e-09
9.67074e-09
8.283e-09
4.28678e-09
4.98032e-10
0
5.22776e-09
0
0
0
0
0
0
0
0
0
0
0
0
0
0
0
0
0
0
0
0
0
0
1.24686e-11
4.76267e-11
6.41797e-11
6.36932e-11
4.68321e-11
1.35775e-11
0
0
0
0
0
0
0
0
0
0
0
0
6.83522e-10
2.6011e-09
5.34177e-09
8.0631e-09
8.99621e-09
7.10921e-09
3.33615e-09
7.06948e-11
0
5.08327e-09
0
0
0
0
0
0
0
0
0
0
0
0
0
0
0
0
0
0
0
0
0
0
4.3293e-11
7.97143e-11
9.56785e-11
9.31154e-11
7.28727e-11
3.52037e-11
0
0
0
0
0
0
0
0
0
0
0
0
1.26769e-09
3.31241e-09
5.90688e-09
8.04707e-09
8.25924e-09
6.10211e-09
2.62545e-09
0
0
4.91905e-09
0
0
0
0
0
0
0
0
0
0
0
0
0
0
0
0
0
0
0
0
0
2.20824e-11
8.4354e-11
1.22017e-10
1.37314e-10
1.32571e-10
1.08901e-10
6.69294e-11
6.1192e-12
0
0
0
0
0
0
0
0
0
0
4.50372e-10
1.88543e-09
3.97282e-09
6.31384e-09
7.87075e-09
7.53285e-09
5.27326e-09
2.12485e-09
0
0
4.739e-09
0
0
0
0
0
0
0
0
0
0
0
0
0
0
0
0
0
0
0
0
0
7.23793e-11
1.38067e-10
1.77023e-10
1.9169e-10
1.84773e-10
1.57803e-10
1.11851e-10
4.66193e-11
0
0
0
0
0
0
0
0
0
0
9.67508e-10
2.51642e-09
4.5616e-09
6.57648e-09
7.59593e-09
6.86652e-09
4.62017e-09
1.80363e-09
0
0
4.54652e-09
0
0
0
0
0
0
0
0
0
0
0
0
0
0
0
0
0
0
0
0
3.89397e-11
1.37983e-10
2.07261e-10
2.4768e-10
2.61911e-10
2.52984e-10
2.23086e-10
1.73741e-10
1.05063e-10
1.74035e-11
0
0
0
0
0
0
0
0
4.37294e-10
1.5334e-09
3.14294e-09
5.06967e-09
6.72215e-09
7.27761e-09
6.29029e-09
4.13085e-09
1.63195e-09
0
0
4.34467e-09
4.58255e-11
0
0
0
0
0
0
0
0
0
0
0
0
0
0
0
0
0
0
0
1.17261e-10
2.22038e-10
2.95214e-10
3.37449e-10
3.51636e-10
3.41102e-10
3.0896e-10
2.5714e-10
1.86448e-10
9.80768e-11
0
0
0
0
0
0
0
1.84633e-10
9.42713e-10
2.13822e-09
3.75218e-09
5.49965e-09
6.78532e-09
6.96032e-09
5.81944e-09
3.78848e-09
1.58123e-09
1.41338e-11
0
4.13616e-09
4.42095e-10
0
0
0
0
0
0
0
0
0
0
0
0
0
0
0
0
0
0
7.45341e-11
2.17036e-10
3.28087e-10
4.0568e-10
4.50344e-10
4.6511e-10
4.53751e-10
4.20391e-10
3.67461e-10
2.96753e-10
2.10405e-10
1.10923e-10
4.56996e-12
0
0
0
0
1.37897e-10
6.49897e-10
1.51393e-09
2.77378e-09
4.33815e-09
5.86451e-09
6.80191e-09
6.67749e-09
5.45918e-09
3.57421e-09
1.6248e-09
2.26764e-10
0
3.92348e-09
7.76681e-10
0
0
0
0
0
0
0
0
0
0
0
0
0
0
0
0
0
7.40898e-12
1.90535e-10
3.41854e-10
4.60037e-10
5.429e-10
5.90927e-10
6.07235e-10
5.96302e-10
5.63168e-10
5.11079e-10
4.43045e-10
3.62178e-10
2.72173e-10
1.81515e-10
1.0374e-10
6.16787e-11
9.11766e-11
2.42734e-10
5.85698e-10
1.19866e-09
2.14946e-09
3.43526e-09
4.90262e-09
6.18465e-09
6.80608e-09
6.45334e-09
5.20852e-09
3.46907e-09
1.73831e-09
4.59381e-10
0
3.70888e-09
1.05471e-09
0
0
0
0
0
0
0
0
0
0
0
0
0
0
0
0
0
1.3954e-10
3.34041e-10
4.95522e-10
6.22122e-10
7.11553e-10
7.64287e-10
7.83587e-10
7.74868e-10
7.43948e-10
6.95387e-10
6.33512e-10
5.62428e-10
4.87495e-10
4.19403e-10
3.73505e-10
3.76374e-10
4.6624e-10
6.9555e-10
1.12988e-09
1.8358e-09
2.84943e-09
4.12267e-09
5.4548e-09
6.48523e-09
6.82924e-09
6.30578e-09
5.06389e-09
3.45613e-09
1.9005e-09
6.92826e-10
0
3.49446e-09
1.28119e-09
0
0
0
0
0
0
0
0
0
0
0
0
0
0
0
0
6.58168e-11
3.01507e-10
5.08529e-10
6.81937e-10
8.18814e-10
9.16654e-10
9.75988e-10
1.00037e-09
9.9624e-10
9.70269e-10
9.28796e-10
8.77413e-10
8.21507e-10
7.68474e-10
7.30882e-10
7.25832e-10
7.83394e-10
9.42504e-10
1.25552e-09
1.78058e-09
2.56728e-09
3.61695e-09
4.84149e-09
6.01055e-09
6.79425e-09
6.90021e-09
6.24948e-09
5.02222e-09
3.52257e-09
2.09447e-09
9.10884e-10
0
3.2821e-09
1.46104e-09
0
0
0
0
0
0
0
0
0
0
0
0
0
0
0
0
2.50837e-10
4.96419e-10
7.17362e-10
9.04925e-10
1.05463e-09
1.16338e-09
1.23192e-09
1.26424e-09
1.26776e-09
1.25047e-09
1.22056e-09
1.185e-09
1.15103e-09
1.12797e-09
1.12998e-09
1.17597e-09
1.29864e-09
1.53543e-09
1.93662e-09
2.54892e-09
3.40075e-09
4.45867e-09
5.60289e-09
6.59166e-09
7.14199e-09
7.04628e-09
6.29838e-09
5.08433e-09
3.6621e-09
2.30955e-09
1.10159e-09
0
3.07343e-09
1.59908e-09
0
0
0
0
0
0
0
0
0
0
0
0
0
0
0
2.15027e-10
4.71396e-10
7.26969e-10
9.63521e-10
1.16802e-09
1.33384e-09
1.45683e-09
1.53806e-09
1.58201e-09
1.59714e-09
1.59334e-09
1.58049e-09
1.56734e-09
1.56349e-09
1.57976e-09
1.6318e-09
1.74029e-09
1.93886e-09
2.26114e-09
2.7535e-09
3.4468e-09
4.3456e-09
5.38481e-09
6.4236e-09
7.22458e-09
7.56071e-09
7.29564e-09
6.47024e-09
5.25945e-09
3.87851e-09
2.54416e-09
1.25899e-09
0
2.86977e-09
1.69994e-09
0
0
0
0
0
0
0
0
0
0
0
0
0
3.8628e-12
2.37043e-10
4.72e-10
7.2897e-10
9.95061e-10
1.24924e-09
1.47409e-09
1.66004e-09
1.80162e-09
1.89993e-09
1.96018e-09
1.99204e-09
2.00754e-09
2.01842e-09
2.03576e-09
2.07154e-09
2.13782e-09
2.25186e-09
2.43531e-09
2.72052e-09
3.13549e-09
3.72056e-09
4.48575e-09
5.41205e-09
6.40859e-09
7.32452e-09
7.93896e-09
8.08499e-09
7.67962e-09
6.79063e-09
5.57055e-09
4.19151e-09
2.81178e-09
1.38693e-09
0
2.67219e-09
1.76798e-09
0
0
0
0
0
0
0
0
0
0
0
0
6.4187e-12
3.07284e-10
5.36215e-10
7.65565e-10
1.02364e-09
1.30131e-09
1.57555e-09
1.82481e-09
2.03564e-09
2.20122e-09
2.32196e-09
2.40429e-09
2.45912e-09
2.50079e-09
2.54341e-09
2.60068e-09
2.68676e-09
2.81516e-09
3.00443e-09
3.27568e-09
3.65795e-09
4.17206e-09
4.84923e-09
5.67426e-09
6.60903e-09
7.54351e-09
8.32732e-09
8.76512e-09
8.75078e-09
8.23501e-09
7.29837e-09
6.06026e-09
4.64628e-09
3.15199e-09
1.50677e-09
0
2.4815e-09
1.80731e-09
0
0
0
0
0
0
0
0
0
0
0
0
3.42187e-10
6.42599e-10
8.68003e-10
1.09319e-09
1.35361e-09
1.64446e-09
1.94171e-09
2.21982e-09
2.46123e-09
2.65697e-09
2.80659e-09
2.91779e-09
3.00277e-09
3.0786e-09
3.16212e-09
3.26967e-09
3.41782e-09
3.62147e-09
3.89947e-09
4.27112e-09
4.75993e-09
5.3778e-09
6.14272e-09
7.01317e-09
7.9393e-09
8.79691e-09
9.44743e-09
9.72936e-09
9.5922e-09
9.00416e-09
8.04812e-09
6.79927e-09
5.32981e-09
3.65223e-09
1.67338e-09
0
2.2983e-09
1.82172e-09
0
0
0
0
0
0
0
0
0
0
0
2.67274e-10
7.07014e-10
1.005e-09
1.22734e-09
1.45002e-09
1.71457e-09
2.0207e-09
2.34434e-09
2.65607e-09
2.93437e-09
3.16691e-09
3.35289e-09
3.50035e-09
3.62344e-09
3.74233e-09
3.87639e-09
4.04499e-09
4.26741e-09
4.55908e-09
4.93827e-09
5.42143e-09
6.02341e-09
6.74523e-09
7.58824e-09
8.48775e-09
9.38879e-09
1.0158e-08
1.06825e-08
1.08434e-08
1.06317e-08
1.00258e-08
9.10645e-09
7.89448e-09
6.39581e-09
4.49177e-09
2.01385e-09
0
2.12301e-09
1.81479e-09
0
0
0
0
0
0
0
0
0
0
9.72202e-11
6.62553e-10
1.0934e-09
1.38716e-09
1.60656e-09
1.82837e-09
2.09911e-09
2.423e-09
2.77646e-09
3.1268e-09
3.44816e-09
3.72461e-09
3.95455e-09
4.14594e-09
4.31555e-09
4.48603e-09
4.67996e-09
4.91982e-09
5.22714e-09
5.61741e-09
6.10726e-09
6.70836e-09
7.42338e-09
8.24163e-09
9.14543e-09
1.00529e-08
1.09084e-08
1.15807e-08
1.19964e-08
1.20787e-08
1.18534e-08
1.13096e-08
1.05294e-08
9.47827e-09
8.09427e-09
6.0255e-09
2.83003e-09
0
1.9559e-09
1.7898e-09
0
0
0
0
0
0
0
0
0
0
5.1193e-10
1.06905e-09
1.49076e-09
1.77877e-09
1.99502e-09
2.21724e-09
2.49619e-09
2.84028e-09
3.22669e-09
3.62016e-09
3.99004e-09
4.31722e-09
4.59788e-09
4.84047e-09
5.06404e-09
5.29291e-09
5.55442e-09
5.87273e-09
6.27142e-09
6.76607e-09
7.36878e-09
8.08427e-09
8.90042e-09
9.7951e-09
1.07286e-08
1.16129e-08
1.23935e-08
1.29614e-08
1.32858e-08
1.33291e-08
1.31573e-08
1.27762e-08
1.22849e-08
1.16352e-08
1.07242e-08
8.91342e-09
4.87227e-09
0
1.79711e-09
1.74983e-09
0
0
0
0
0
0
0
0
0
2.72408e-10
9.18231e-10
1.47209e-09
1.88533e-09
2.16631e-09
2.37876e-09
2.60207e-09
2.89075e-09
3.25681e-09
3.67842e-09
4.11803e-09
4.54064e-09
4.92329e-09
5.26006e-09
5.55889e-09
5.8406e-09
6.1319e-09
6.46398e-09
6.86195e-09
7.35112e-09
7.94618e-09
8.65043e-09
9.46078e-09
1.03484e-08
1.12777e-08
1.21915e-08
1.30055e-08
1.36687e-08
1.41144e-08
1.43442e-08
1.43716e-08
1.42953e-08
1.41536e-08
1.40907e-08
1.41129e-08
1.4275e-08
1.3812e-08
9.70531e-09
0
1.6467e-09
1.69764e-09
0
0
0
0
0
0
0
0
0
6.33991e-10
1.29958e-09
1.8546e-09
2.26031e-09
2.53308e-09
2.74054e-09
2.96476e-09
3.2635e-09
3.65188e-09
4.10916e-09
4.59537e-09
5.07239e-09
5.51222e-09
5.90663e-09
6.26217e-09
6.60169e-09
6.95377e-09
7.35075e-09
7.8219e-09
8.38809e-09
9.06187e-09
9.83754e-09
1.07016e-08
1.1608e-08
1.25032e-08
1.3325e-08
1.40015e-08
1.44878e-08
1.4772e-08
1.48717e-08
1.48611e-08
1.4842e-08
1.49e-08
1.5205e-08
1.58772e-08
1.71928e-08
1.8609e-08
1.53381e-08
0
1.50464e-09
1.63575e-09
6.9154e-11
0
0
0
0
0
0
0
1.93702e-10
9.50797e-10
1.63868e-09
2.19767e-09
2.59654e-09
2.85975e-09
3.06028e-09
3.28387e-09
3.59117e-09
4.00009e-09
4.49041e-09
5.02112e-09
5.54916e-09
6.04286e-09
6.49108e-09
6.89775e-09
7.28723e-09
7.68913e-09
8.13554e-09
8.65856e-09
9.27275e-09
9.98522e-09
1.07801e-08
1.16275e-08
1.24732e-08
1.32469e-08
1.38905e-08
1.43446e-08
1.45905e-08
1.46477e-08
1.45667e-08
1.44314e-08
1.43304e-08
1.43736e-08
1.46677e-08
1.53058e-08
1.64107e-08
1.67965e-08
1.07411e-08
0
1.37082e-09
1.56641e-09
1.67808e-10
0
0
0
0
0
0
0
4.1859e-10
1.20931e-09
1.91835e-09
2.48193e-09
2.87358e-09
3.12526e-09
3.31596e-09
3.53549e-09
3.84765e-09
4.27238e-09
4.78988e-09
5.35743e-09
5.92826e-09
6.46656e-09
6.95584e-09
7.40112e-09
7.82285e-09
8.25236e-09
8.72232e-09
9.25911e-09
9.87455e-09
1.05679e-08
1.13093e-08
1.20536e-08
1.27428e-08
1.33047e-08
1.36846e-08
1.38483e-08
1.38033e-08
1.35931e-08
1.32712e-08
1.29198e-08
1.25975e-08
1.23618e-08
1.22306e-08
1.21877e-08
1.20275e-08
1.04826e-08
4.6258e-09
0
1.24506e-09
1.49157e-09
2.38892e-10
0
0
0
0
0
0
0
5.82396e-10
1.39762e-09
2.12294e-09
2.68885e-09
3.07133e-09
3.3084e-09
3.48503e-09
3.69531e-09
4.0059e-09
4.43839e-09
4.97291e-09
5.56477e-09
6.1634e-09
6.72908e-09
7.24048e-09
7.70102e-09
8.12865e-09
8.55442e-09
9.00847e-09
9.51067e-09
1.00706e-08
1.06729e-08
1.128e-08
1.1842e-08
1.22939e-08
1.25724e-08
1.26443e-08
1.25026e-08
1.21632e-08
1.16856e-08
1.11324e-08
1.05547e-08
9.97091e-09
9.40969e-09
8.8443e-09
8.2207e-09
7.34162e-09
5.55381e-09
1.66927e-09
0
1.12714e-09
1.41296e-09
2.8624e-10
0
0
0
0
0
0
0
6.78905e-10
1.50649e-09
2.23966e-09
2.80258e-09
3.17186e-09
3.3899e-09
3.54676e-09
3.74075e-09
4.04089e-09
4.46977e-09
5.00702e-09
5.60551e-09
6.21119e-09
6.78013e-09
7.28766e-09
7.73358e-09
8.13416e-09
8.518e-09
8.91139e-09
9.32852e-09
9.77502e-09
1.02222e-08
1.06332e-08
1.0959e-08
1.1133e-08
1.11176e-08
1.09048e-08
1.04973e-08
9.92791e-09
9.26411e-09
8.55528e-09
7.83088e-09
7.10153e-09
6.38426e-09
5.64965e-09
4.87959e-09
3.98892e-09
2.69359e-09
4.09633e-10
0
1.01678e-09
1.33209e-09
3.13489e-10
0
0
0
0
0
0
0
7.04871e-10
1.53041e-09
2.25991e-09
2.81169e-09
3.16154e-09
3.35471e-09
3.48501e-09
3.65409e-09
3.93306e-09
4.34449e-09
4.8669e-09
5.4508e-09
6.03869e-09
6.58308e-09
7.05673e-09
7.45606e-09
7.79551e-09
8.10084e-09
8.39343e-09
8.68635e-09
8.97533e-09
9.23309e-09
9.42482e-09
9.50295e-09
9.42226e-09
9.16767e-09
8.74148e-09
8.1634e-09
7.48056e-09
6.74747e-09
5.99798e-09
5.25834e-09
4.54244e-09
3.86162e-09
3.19988e-09
2.56672e-09
1.93153e-09
1.1627e-09
0
0
9.13709e-10
1.25028e-09
3.24024e-10
0
0
0
0
0
0
0
6.6057e-10
1.46834e-09
2.18053e-09
2.71062e-09
3.0332e-09
3.19446e-09
3.29079e-09
3.42587e-09
3.67197e-09
4.05128e-09
4.54017e-09
5.08707e-09
5.63187e-09
6.12438e-09
6.53584e-09
6.86067e-09
7.11219e-09
7.31241e-09
7.48185e-09
7.63017e-09
7.75041e-09
7.82175e-09
7.81204e-09
7.68579e-09
7.42173e-09
7.01596e-09
6.48093e-09
5.84991e-09
5.16718e-09
4.47108e-09
3.79061e-09
3.15047e-09
2.56259e-09
2.03339e-09
1.55745e-09
1.14659e-09
7.86638e-10
4.326e-10
5.36258e-11
0
8.176e-10
1.16866e-09
3.20941e-10
0
0
0
0
0
0
0
5.50036e-10
1.32415e-09
2.00439e-09
2.50111e-09
2.78748e-09
2.90964e-09
2.9646e-09
3.05734e-09
3.25981e-09
3.59313e-09
4.03161e-09
4.52141e-09
5.00147e-09
5.42057e-09
5.7494e-09
5.9826e-09
6.13256e-09
6.22026e-09
6.26518e-09
6.27633e-09
6.24988e-09
6.16992e-09
6.01299e-09
5.75889e-09
5.39948e-09
4.93923e-09
4.39909e-09
3.81204e-09
3.21293e-09
2.63127e-09
2.0929e-09
1.61541e-09
1.20643e-09
8.6787e-10
5.9793e-10
3.99945e-10
2.67795e-10
2.27567e-10
4.59833e-10
0
7.2813e-10
1.08818e-09
3.0703e-10
0
0
0
0
0
0
0
3.80969e-10
1.10658e-09
1.74072e-09
2.19245e-09
2.43392e-09
2.51026e-09
2.518e-09
2.56171e-09
2.71257e-09
2.9895e-09
3.36483e-09
3.78343e-09
4.18457e-09
4.51901e-09
4.75794e-09
4.89659e-09
4.94838e-09
4.93486e-09
4.87574e-09
4.78168e-09
4.6525e-09
4.47813e-09
4.24481e-09
3.94253e-09
3.5706e-09
3.13884e-09
2.66934e-09
2.18879e-09
1.72468e-09
1.30013e-09
9.35092e-10
6.3889e-10
4.15768e-10
2.6305e-10
1.788e-10
1.57326e-10
2.01375e-10
4.0274e-10
1.12708e-09
0
6.4496e-10
1.00963e-09
2.84785e-10
0
0
0
0
0
0
0
1.64294e-10
8.28781e-10
1.40452e-09
1.80111e-09
1.99029e-09
2.01593e-09
1.97309e-09
1.96465e-09
2.05967e-09
2.2748e-09
2.58083e-09
2.923e-09
3.24221e-09
3.49123e-09
3.646e-09
3.70297e-09
3.67623e-09
3.58849e-09
3.4609e-09
3.30613e-09
3.12726e-09
2.91961e-09
2.67621e-09
2.39257e-09
2.07175e-09
1.7247e-09
1.37039e-09
1.02931e-09
7.23154e-10
4.68379e-10
2.78453e-10
1.56423e-10
1.04084e-10
1.14256e-10
1.84145e-10
3.02046e-10
4.80947e-10
8.73586e-10
2.00643e-09
0
5.67749e-10
9.33649e-10
2.56412e-10
0
0
0
0
0
0
0
0
5.0727e-10
1.01534e-09
1.34928e-09
1.48144e-09
1.4545e-09
1.36109e-09
1.30127e-09
1.34139e-09
1.49586e-09
1.7345e-09
2.00359e-09
2.24754e-09
2.42318e-09
2.51007e-09
2.5087e-09
2.4338e-09
2.30782e-09
2.15302e-09
1.98372e-09
1.80532e-09
1.61661e-09
1.41422e-09
1.19623e-09
9.66646e-10
7.34798e-10
5.15751e-10
3.24917e-10
1.78675e-10
8.73361e-11
5.93314e-11
9.32382e-11
1.88532e-10
3.34351e-10
5.27859e-10
7.54324e-10
1.03698e-09
1.58428e-09
3.06166e-09
0
4.96146e-10
8.60754e-10
2.23835e-10
0
0
0
0
0
0
0
0
1.60784e-10
5.95674e-10
8.63108e-10
9.37077e-10
8.59184e-10
7.19064e-10
6.13168e-10
6.04689e-10
7.05946e-10
8.86369e-10
1.09415e-09
1.27781e-09
1.39988e-09
1.44347e-09
1.41226e-09
1.3222e-09
1.19514e-09
1.05218e-09
9.08197e-10
7.70097e-10
6.3808e-10
5.10132e-10
3.85164e-10
2.66485e-10
1.6113e-10
8.07091e-11
3.64072e-11
3.99929e-11
9.70308e-11
2.12069e-10
3.80084e-10
5.98537e-10
8.54461e-10
1.14582e-09
1.45667e-09
1.81954e-09
2.49334e-09
4.26312e-09
0
4.29803e-10
7.91349e-10
1.88724e-10
0
0
0
0
0
0
0
0
0
1.69212e-10
3.70404e-10
3.88867e-10
2.65386e-10
8.62391e-11
0
0
0
9.56904e-11
2.59824e-10
4.03901e-10
4.96021e-10
5.23489e-10
4.91737e-10
4.17188e-10
3.20581e-10
2.21238e-10
1.32805e-10
6.20305e-11
9.66995e-12
0
0
0
0
2.24259e-11
1.13165e-10
2.51304e-10
4.38653e-10
6.76424e-10
9.5681e-10
1.27601e-09
1.6203e-09
1.98866e-09
2.36494e-09
2.78985e-09
3.56771e-09
5.58603e-09
0
3.68374e-10
7.25756e-10
1.525e-10
0
0
0
0
0
0
0
0
0
0
0
0
0
0
0
0
0
0
0
0
0
0
0
0
0
0
0
0
0
0
0
0
1.21508e-10
2.92752e-10
5.03742e-10
7.59493e-10
1.05869e-09
1.39971e-09
1.77285e-09
2.17363e-09
2.58833e-09
3.01693e-09
3.44378e-09
3.91665e-09
4.78021e-09
7.00946e-09
0
3.1152e-10
6.64219e-10
1.16366e-10
0
0
0
0
0
0
0
0
0
0
0
0
0
0
0
0
0
0
0
0
0
0
0
0
0
0
0
0
0
0
1.13998e-10
3.2612e-10
5.67922e-10
8.44943e-10
1.16054e-09
1.51711e-09
1.91075e-09
2.33751e-09
2.78647e-09
3.25276e-09
3.72317e-09
4.19852e-09
4.66417e-09
5.17376e-09
6.10744e-09
8.51703e-09
0
2.58917e-10
6.06921e-10
8.13526e-11
0
0
0
0
0
0
0
0
0
0
0
0
0
0
0
0
0
0
0
0
0
0
0
0
0
0
0
0
1.03943e-10
3.54568e-10
6.31264e-10
9.34679e-10
1.26815e-09
1.63642e-09
2.04134e-09
2.48308e-09
2.95553e-09
3.45283e-09
3.96325e-09
4.48169e-09
4.99577e-09
5.50698e-09
6.00193e-09
6.53879e-09
7.53043e-09
1.00958e-08
0
2.10256e-10
5.54006e-10
4.83471e-11
0
0
0
0
0
0
0
0
0
0
0
0
0
0
0
0
0
0
0
0
0
0
0
0
0
0
1.16601e-10
3.93565e-10
6.99677e-10
1.03268e-09
1.39045e-09
1.77291e-09
2.18467e-09
2.63016e-09
3.11012e-09
3.62278e-09
4.16021e-09
4.71492e-09
5.27466e-09
5.8342e-09
6.38211e-09
6.92034e-09
7.43663e-09
7.99334e-09
9.03407e-09
1.17305e-08
0
1.6525e-10
5.056e-10
1.81438e-11
0
0
0
0
0
0
0
0
0
0
0
0
0
0
0
0
0
0
0
0
0
0
0
0
1.62533e-10
4.60183e-10
7.86929e-10
1.14217e-09
1.52363e-09
1.92942e-09
2.35803e-09
2.80775e-09
3.28501e-09
3.79468e-09
4.33667e-09
4.90757e-09
5.4979e-09
6.09874e-09
6.69755e-09
7.28896e-09
7.86249e-09
8.42032e-09
8.95125e-09
9.5222e-09
1.06047e-08
1.34088e-08
0
1.23641e-10
4.61845e-10
0
0
0
0
0
0
0
0
0
0
0
0
0
0
0
0
0
0
0
0
0
0
0
2.24033e-10
5.50452e-10
8.9885e-10
1.27306e-09
1.67364e-09
2.09899e-09
2.54677e-09
3.01569e-09
3.50514e-09
4.01169e-09
4.5422e-09
5.10385e-09
5.69594e-09
6.31367e-09
6.94624e-09
7.58351e-09
8.21267e-09
8.82817e-09
9.42045e-09
9.99164e-09
1.05317e-08
1.11122e-08
1.22288e-08
1.5122e-08
0
8.52085e-11
4.22917e-10
0
0
0
0
0
0
0
0
0
0
0
0
0
0
0
0
0
0
0
0
0
2.71779e-10
6.42418e-10
1.02371e-09
1.42169e-09
1.84169e-09
2.28539e-09
2.75179e-09
3.23856e-09
3.74355e-09
4.2663e-09
4.80721e-09
5.36156e-09
5.93408e-09
6.53639e-09
7.16761e-09
7.82185e-09
8.48716e-09
9.15225e-09
9.80409e-09
1.04369e-08
1.10419e-08
1.16211e-08
1.21658e-08
1.27513e-08
1.38947e-08
1.68614e-08
0
4.97827e-11
3.89074e-10
0
0
0
0
0
0
0
0
0
0
0
0
0
0
0
0
0
0
0
2.90503e-10
7.1258e-10
1.13984e-09
1.5746e-09
2.02169e-09
2.48542e-09
2.97008e-09
3.47553e-09
3.99942e-09
4.53896e-09
5.09237e-09
5.66019e-09
6.24391e-09
6.83806e-09
7.44232e-09
8.0747e-09
8.73481e-09
9.41591e-09
1.01052e-08
1.07904e-08
1.14581e-08
1.21023e-08
1.27149e-08
1.32975e-08
1.38427e-08
1.44291e-08
1.55921e-08
1.86188e-08
0
1.72643e-11
3.60709e-10
0
0
0
0
0
0
0
0
0
0
0
0
0
0
0
0
0
3.0592e-10
7.56848e-10
1.23108e-09
1.71294e-09
2.1991e-09
2.69352e-09
3.20095e-09
3.72378e-09
4.26546e-09
4.8245e-09
5.39748e-09
5.98138e-09
6.57499e-09
7.17993e-09
7.79872e-09
8.42577e-09
9.05234e-09
9.70449e-09
1.03834e-08
1.10821e-08
1.17871e-08
1.24849e-08
1.31621e-08
1.38122e-08
1.44275e-08
1.50094e-08
1.55516e-08
1.61346e-08
1.73095e-08
2.03857e-08
0
0
3.38423e-10
0
0
0
0
0
0
0
0
0
0
0
0
0
0
6.33943e-11
3.95791e-10
8.14239e-10
1.29877e-09
1.82107e-09
2.35749e-09
2.89597e-09
3.4364e-09
3.98463e-09
4.54582e-09
5.12079e-09
5.71163e-09
6.31615e-09
6.9301e-09
7.55038e-09
8.1765e-09
8.81121e-09
9.45802e-09
1.01116e-08
1.07524e-08
1.14139e-08
1.21017e-08
1.28086e-08
1.35208e-08
1.4224e-08
1.49044e-08
1.55551e-08
1.61686e-08
1.67462e-08
1.72821e-08
1.78579e-08
1.90356e-08
2.21508e-08
0
0
3.23121e-10
0
0
0
0
0
0
0
0
0
0
0
0
2.60928e-10
5.65974e-10
9.35617e-10
1.38368e-09
1.90382e-09
2.47289e-09
3.06462e-09
3.66005e-09
4.25066e-09
4.83968e-09
5.43492e-09
6.0425e-09
6.66239e-09
7.2944e-09
7.93641e-09
8.58353e-09
9.23274e-09
9.88435e-09
1.05422e-08
1.12108e-08
1.18846e-08
1.25331e-08
1.31926e-08
1.38785e-08
1.45838e-08
1.52942e-08
1.59952e-08
1.66723e-08
1.73183e-08
1.79258e-08
1.84956e-08
1.90224e-08
1.95877e-08
2.07593e-08
2.39021e-08
0
0
3.16179e-10
0
0
0
0
0
0
0
0
0
1.80863e-12
3.23167e-10
6.68781e-10
1.04805e-09
1.47991e-09
1.97911e-09
2.54761e-09
3.17069e-09
3.8226e-09
4.47973e-09
5.12933e-09
5.76642e-09
6.39756e-09
7.03253e-09
7.67857e-09
8.33605e-09
9.00167e-09
9.67344e-09
1.03463e-08
1.10173e-08
1.16878e-08
1.23628e-08
1.30472e-08
1.37354e-08
1.43861e-08
1.50315e-08
1.57035e-08
1.63958e-08
1.70945e-08
1.77845e-08
1.84512e-08
1.90867e-08
1.96838e-08
2.02425e-08
2.07577e-08
2.13098e-08
2.24692e-08
2.56202e-08
0
0
3.19694e-10
0
0
0
0
0
0
0
0
2.55288e-10
6.23429e-10
1.03528e-09
1.48963e-09
1.99376e-09
2.5615e-09
3.19587e-09
3.88658e-09
4.61103e-09
5.34173e-09
6.05843e-09
6.75555e-09
7.43289e-09
8.09929e-09
8.76659e-09
9.44281e-09
1.01297e-08
1.08221e-08
1.15163e-08
1.22078e-08
1.28943e-08
1.35777e-08
1.42641e-08
1.49591e-08
1.56563e-08
1.6304e-08
1.69215e-08
1.75653e-08
1.82311e-08
1.89057e-08
1.95743e-08
2.02222e-08
2.08406e-08
2.14223e-08
2.19664e-08
2.24677e-08
2.30047e-08
2.41481e-08
2.72845e-08
0
0
3.36871e-10
5.1821e-11
0
0
0
0
0
2.15917e-10
5.30992e-10
9.2247e-10
1.37826e-09
1.89336e-09
2.46857e-09
3.10673e-09
3.81632e-09
4.58786e-09
5.39893e-09
6.21996e-09
7.02289e-09
7.7916e-09
8.528e-09
9.23882e-09
9.93357e-09
1.06261e-08
1.13251e-08
1.20324e-08
1.27444e-08
1.34544e-08
1.41579e-08
1.48535e-08
1.55442e-08
1.6237e-08
1.69377e-08
1.76388e-08
1.82792e-08
1.8853e-08
1.94507e-08
2.00727e-08
2.07076e-08
2.13413e-08
2.19593e-08
2.25523e-08
2.31127e-08
2.36384e-08
2.41234e-08
2.46437e-08
2.57685e-08
2.88691e-08
0
0
3.72663e-10
1.36935e-10
0
0
7.84839e-11
2.65585e-10
5.17597e-10
8.42154e-10
1.2464e-09
1.72812e-09
2.28287e-09
2.91269e-09
3.61891e-09
4.39676e-09
5.24985e-09
6.156e-09
7.0813e-09
7.9906e-09
8.85669e-09
9.66813e-09
1.04343e-08
1.11712e-08
1.18873e-08
1.25982e-08
1.33131e-08
1.40341e-08
1.47571e-08
1.54756e-08
1.6185e-08
1.68844e-08
1.75778e-08
1.82726e-08
1.89744e-08
1.9674e-08
2.03024e-08
2.08136e-08
2.1342e-08
2.18971e-08
2.24713e-08
2.30519e-08
2.36254e-08
2.4182e-08
2.47132e-08
2.52156e-08
2.56817e-08
2.61839e-08
2.72874e-08
3.03413e-08
0
0
4.34848e-10
2.63797e-10
1.87573e-10
2.88602e-10
5.13853e-10
8.16098e-10
1.17907e-09
1.60819e-09
2.11201e-09
2.69375e-09
3.35726e-09
4.1113e-09
4.95582e-09
5.87421e-09
6.86659e-09
7.89873e-09
8.92682e-09
9.91213e-09
1.08297e-08
1.16732e-08
1.24588e-08
1.32139e-08
1.39449e-08
1.46674e-08
1.53918e-08
1.612e-08
1.68475e-08
1.7568e-08
1.82767e-08
1.89739e-08
1.96647e-08
2.03573e-08
2.10565e-08
2.17505e-08
2.23631e-08
2.27874e-08
2.32144e-08
2.3671e-08
2.41549e-08
2.46569e-08
2.5165e-08
2.56696e-08
2.61611e-08
2.66334e-08
2.70772e-08
2.75597e-08
2.86382e-08
3.16385e-08
0
0
5.35957e-10
4.51032e-10
4.86735e-10
7.16752e-10
1.07705e-09
1.51149e-09
1.99893e-09
2.54327e-09
3.15551e-09
3.84513e-09
4.62475e-09
5.50937e-09
6.49542e-09
7.54846e-09
8.66822e-09
9.81023e-09
1.09233e-08
1.19676e-08
1.29221e-08
1.37855e-08
1.45801e-08
1.53444e-08
1.60853e-08
1.6814e-08
1.75421e-08
1.82716e-08
1.8998e-08
1.97149e-08
2.04176e-08
2.11072e-08
2.17902e-08
2.2475e-08
2.3166e-08
2.38478e-08
2.44364e-08
2.47523e-08
2.50307e-08
2.53438e-08
2.56956e-08
2.60823e-08
2.64954e-08
2.69256e-08
2.73619e-08
2.77949e-08
2.82113e-08
2.86716e-08
2.97197e-08
3.26538e-08
0
0
6.9653e-10
7.27351e-10
9.0476e-10
1.29081e-09
1.80844e-09
2.39175e-09