/*--------------------------------*- C++ -*----------------------------------*\
  =========                 |
  \\      /  F ield         | OpenFOAM: The Open Source CFD Toolbox
   \\    /   O peration     | Website:  https://openfoam.org
    \\  /    A nd           | Version:  7
     \\/     M anipulation  |
\*---------------------------------------------------------------------------*/
FoamFile
{
    version     2.0;
    format      ascii;
    class       volVectorField;
    location    "0.37";
    object      U;
}
// * * * * * * * * * * * * * * * * * * * * * * * * * * * * * * * * * * * * * //

dimensions      [0 1 -1 0 0 0 0];

internalField   nonuniform List<vector> 
70000
(
(0.553388 0.0167232 0)
(0.251246 0.00340127 0)
(0.166168 0.000322281 0)
(0.1324 5.45064e-05 0)
(0.117187 4.59422e-05 0)
(0.10724 5.41233e-05 0)
(0.0992671 4.64984e-05 0)
(0.0928012 3.71737e-05 0)
(0.0875297 3.08773e-05 0)
(0.0831326 2.65688e-05 0)
(0.0793815 2.32904e-05 0)
(0.0761284 2.06684e-05 0)
(0.0732721 1.85341e-05 0)
(0.0707385 1.67744e-05 0)
(0.0684712 1.53059e-05 0)
(0.0664269 1.40668e-05 0)
(0.0645711 1.30111e-05 0)
(0.0628766 1.21051e-05 0)
(0.0613209 1.13219e-05 0)
(0.0598858 1.06421e-05 0)
(0.058556 1.00492e-05 0)
(0.0573188 9.53145e-06 0)
(0.0561632 9.07861e-06 0)
(0.0550801 8.68327e-06 0)
(0.0540614 8.33848e-06 0)
(0.0531 8.04096e-06 0)
(0.0521898 7.78502e-06 0)
(0.0513254 7.57085e-06 0)
(0.0505018 7.39377e-06 0)
(0.0497144 7.25744e-06 0)
(0.0489593 7.15631e-06 0)
(0.0482323 7.10202e-06 0)
(0.04753 7.07899e-06 0)
(0.0468482 7.12096e-06 0)
(0.0461838 7.18072e-06 0)
(0.0455324 7.34803e-06 0)
(0.044891 7.49007e-06 0)
(0.0442541 7.82969e-06 0)
(0.0436182 8.04029e-06 0)
(0.0429786 8.58298e-06 0)
(0.0423252 8.8821e-06 0)
(0.0416691 9.4169e-06 0)
(0.0409594 1.01369e-05 0)
(0.0403007 9.371e-06 0)
(0.0394495 1.20348e-05 0)
(0.0389136 5.33404e-06 0)
(0.0377207 1.39164e-05 0)
(0.0377504 -1.06098e-05 0)
(0.0360889 7.04414e-06 0)
(0.03494 -0.00141572 0)
(0.884898 0.0431682 0)
(0.649693 0.0201958 0)
(0.494255 0.00660075 0)
(0.403548 0.00277034 0)
(0.354568 0.00155498 0)
(0.323206 0.00113483 0)
(0.299284 0.000913877 0)
(0.28002 0.000750213 0)
(0.264236 0.000627608 0)
(0.25104 0.000537104 0)
(0.239782 0.000468461 0)
(0.23002 0.0004145 0)
(0.221449 0.000370951 0)
(0.213845 0.000335157 0)
(0.207041 0.000305312 0)
(0.200906 0.000280124 0)
(0.195338 0.000258644 0)
(0.190254 0.000240162 0)
(0.185588 0.000224136 0)
(0.181286 0.000210149 0)
(0.177302 0.000197874 0)
(0.173597 0.000187052 0)
(0.17014 0.000177474 0)
(0.166902 0.000168976 0)
(0.16386 0.00016142 0)
(0.160994 0.000154701 0)
(0.158285 0.000148728 0)
(0.155717 0.000143436 0)
(0.153276 0.000138769 0)
(0.150949 0.000134695 0)
(0.148724 0.000131176 0)
(0.14659 0.000128229 0)
(0.144538 0.000125806 0)
(0.142556 0.000124015 0)
(0.140636 0.000122732 0)
(0.138767 0.00012229 0)
(0.136941 0.000122288 0)
(0.135145 0.000123619 0)
(0.133368 0.000125102 0)
(0.1316 0.000128944 0)
(0.129812 0.0001321 0)
(0.128033 0.000139409 0)
(0.126125 0.000144205 0)
(0.124356 0.000155238 0)
(0.122072 0.000160547 0)
(0.120585 0.000171287 0)
(0.117299 0.000170954 0)
(0.117056 0.000141329 0)
(0.112069 0.000237098 0)
(0.111684 -0.00242537 0)
(0.991238 0.0499029 0)
(0.89033 0.0307228 0)
(0.762619 0.0146037 0)
(0.656542 0.00798669 0)
(0.585141 0.00489266 0)
(0.535654 0.0034797 0)
(0.497697 0.00274498 0)
(0.46698 0.00225342 0)
(0.441559 0.00189102 0)
(0.420137 0.00162014 0)
(0.401766 0.00141339 0)
(0.38578 0.00125082 0)
(0.371703 0.00111966 0)
(0.359185 0.00101184 0)
(0.347963 0.000921874 0)
(0.337828 0.000845886 0)
(0.328617 0.000781023 0)
(0.3202 0.000725154 0)
(0.312468 0.000676654 0)
(0.305334 0.000634266 0)
(0.298724 0.000597005 0)
(0.292577 0.00056409 0)
(0.286839 0.000534891 0)
(0.281466 0.000508904 0)
(0.27642 0.000485717 0)
(0.271666 0.000464998 0)
(0.267176 0.000446475 0)
(0.262924 0.000429933 0)
(0.258885 0.000415194 0)
(0.255041 0.000402137 0)
(0.251371 0.000390647 0)
(0.247859 0.000380711 0)
(0.244489 0.000372218 0)
(0.241245 0.000365352 0)
(0.238114 0.000359886 0)
(0.235079 0.000356455 0)
(0.232129 0.000354338 0)
(0.229245 0.000355325 0)
(0.226414 0.000357117 0)
(0.223618 0.000364529 0)
(0.22082 0.000370679 0)
(0.218059 0.000388214 0)
(0.215136 0.000397677 0)
(0.212435 0.000431364 0)
(0.209014 0.00043708 0)
(0.206721 0.00049257 0)
(0.201902 0.000472458 0)
(0.201153 0.000478427 0)
(0.19392 0.000562955 0)
(0.194128 -0.00238014 0)
(1.0156 0.0489223 0)
(1.00595 0.0358811 0)
(0.9359 0.0208016 0)
(0.852005 0.0135166 0)
(0.781982 0.00922168 0)
(0.726689 0.00679652 0)
(0.681503 0.00540025 0)
(0.64363 0.00446257 0)
(0.611487 0.00377031 0)
(0.583883 0.00324592 0)
(0.559885 0.00284101 0)
(0.538785 0.00252041 0)
(0.520056 0.00226063 0)
(0.503294 0.00204627 0)
(0.488186 0.00186683 0)
(0.474482 0.00171483 0)
(0.461982 0.00158475 0)
(0.450523 0.00147244 0)
(0.439971 0.00137473 0)
(0.430212 0.00128915 0)
(0.421153 0.00121377 0)
(0.412715 0.00114703 0)
(0.40483 0.00108769 0)
(0.397438 0.00103475 0)
(0.39049 0.000987376 0)
(0.383941 0.000944909 0)
(0.377752 0.000906794 0)
(0.37189 0.000872588 0)
(0.366324 0.000841927 0)
(0.361026 0.000814537 0)
(0.355972 0.00079018 0)
(0.351139 0.000768768 0)
(0.346508 0.000750101 0)
(0.342056 0.0007344 0)
(0.337769 0.000721327 0)
(0.333624 0.000711789 0)
(0.329609 0.000704768 0)
(0.325699 0.000702953 0)
(0.321881 0.00070289 0)
(0.318132 0.000712357 0)
(0.314411 0.000719814 0)
(0.310759 0.000748117 0)
(0.306955 0.000760137 0)
(0.303425 0.000822284 0)
(0.299112 0.000823387 0)
(0.296051 0.000940145 0)
(0.290284 0.000893474 0)
(0.288679 0.000958324 0)
(0.280578 0.000994801 0)
(0.279839 -0.00189659 0)
(1.01434 0.046006 0)
(1.04752 0.0374961 0)
(1.02454 0.0241649 0)
(0.974665 0.0175766 0)
(0.923275 0.0131425 0)
(0.876408 0.0102285 0)
(0.834139 0.00836718 0)
(0.796272 0.00704835 0)
(0.762578 0.00604075 0)
(0.732619 0.00525539 0)
(0.705885 0.00463542 0)
(0.681905 0.00413667 0)
(0.66028 0.00372775 0)
(0.64068 0.00338718 0)
(0.622828 0.0030999 0)
(0.606495 0.00285498 0)
(0.591488 0.00264422 0)
(0.577644 0.00246138 0)
(0.564828 0.00230164 0)
(0.552922 0.00216119 0)
(0.541827 0.00203704 0)
(0.531456 0.00192677 0)
(0.521735 0.00182842 0)
(0.512599 0.0017404 0)
(0.503992 0.00166139 0)
(0.495864 0.00159033 0)
(0.488171 0.00152632 0)
(0.480874 0.00146864 0)
(0.473938 0.00141669 0)
(0.46733 0.00137001 0)
(0.461023 0.00132819 0)
(0.45499 0.00129104 0)
(0.449208 0.00125824 0)
(0.443653 0.00123002 0)
(0.438306 0.00120592 0)
(0.433143 0.00118706 0)
(0.428149 0.00117219 0)
(0.423296 0.00116478 0)
(0.418572 0.00116031 0)
(0.413947 0.00116953 0)
(0.409387 0.00117602 0)
(0.404919 0.00121364 0)
(0.400338 0.00122614 0)
(0.396035 0.00131645 0)
(0.391025 0.00131288 0)
(0.387155 0.00148782 0)
(0.380903 0.00142926 0)
(0.378117 0.00153258 0)
(0.370117 0.00155341 0)
(0.367506 -0.00124966 0)
(1.00933 0.0429176 0)
(1.05527 0.0372724 0)
(1.05866 0.0253116 0)
(1.0363 0.0197805 0)
(1.00697 0.0158373 0)
(0.975834 0.0129654 0)
(0.944207 0.0109927 0)
(0.913224 0.00951406 0)
(0.883737 0.00832703 0)
(0.856134 0.00736245 0)
(0.830494 0.00657548 0)
(0.806755 0.00592603 0)
(0.784796 0.00538277 0)
(0.764476 0.00492294 0)
(0.745649 0.00452988 0)
(0.728174 0.00419102 0)
(0.711921 0.00389665 0)
(0.696773 0.00363921 0)
(0.682622 0.00341269 0)
(0.669373 0.0032123 0)
(0.656942 0.00303418 0)
(0.645254 0.00287516 0)
(0.634241 0.00273269 0)
(0.623842 0.00260462 0)
(0.614006 0.0024892 0)
(0.604683 0.00238497 0)
(0.59583 0.0022907 0)
(0.587409 0.00220541 0)
(0.579384 0.00212824 0)
(0.571723 0.00205854 0)
(0.564397 0.00199575 0)
(0.557378 0.00193953 0)
(0.550643 0.00188947 0)
(0.544165 0.00184573 0)
(0.537926 0.00180783 0)
(0.531899 0.00177696 0)
(0.526071 0.00175175 0)
(0.520408 0.0017363 0)
(0.514904 0.00172524 0)
(0.509519 0.00173195 0)
(0.504235 0.00173568 0)
(0.499049 0.00178014 0)
(0.49381 0.00179272 0)
(0.4888 0.0019064 0)
(0.483256 0.0019042 0)
(0.478575 0.0021211 0)
(0.47211 0.00207776 0)
(0.468073 0.00218455 0)
(0.460452 0.00222492 0)
(0.456076 -0.000442498 0)
(1.00625 0.0400364 0)
(1.05206 0.0363457 0)
(1.06607 0.0252425 0)
(1.05955 0.0205833 0)
(1.04677 0.0172687 0)
(1.03062 0.0146914 0)
(1.01164 0.01286 0)
(0.990853 0.0114398 0)
(0.969322 0.0102477 0)
(0.94778 0.00923637 0)
(0.926672 0.00838027 0)
(0.906263 0.00765159 0)
(0.886698 0.00702595 0)
(0.868049 0.0064846 0)
(0.850335 0.00601312 0)
(0.833543 0.00560014 0)
(0.817642 0.00523644 0)
(0.80259 0.00491457 0)
(0.788339 0.00462843 0)
(0.774839 0.00437298 0)
(0.762041 0.00414407 0)
(0.749897 0.00393826 0)
(0.738362 0.00375263 0)
(0.727391 0.00358478 0)
(0.716947 0.00343267 0)
(0.70699 0.00329459 0)
(0.697486 0.00316911 0)
(0.688404 0.00305501 0)
(0.679712 0.0029513 0)
(0.671383 0.00285715 0)
(0.663391 0.00277188 0)
(0.655711 0.00269506 0)
(0.648321 0.0026262 0)
(0.641197 0.0025654 0)
(0.634322 0.00251218 0)
(0.627669 0.00246777 0)
(0.621227 0.00243081 0)
(0.614961 0.0024058 0)
(0.60887 0.00238689 0)
(0.602904 0.00238941 0)
(0.597065 0.00238966 0)
(0.591315 0.00243836 0)
(0.585573 0.00245243 0)
(0.579986 0.00258282 0)
(0.574058 0.002591 0)
(0.56868 0.00283154 0)
(0.562118 0.00282679 0)
(0.557044 0.00291761 0)
(0.549684 0.00298496 0)
(0.544022 0.000538946 0)
(1.00495 0.0373587 0)
(1.04726 0.0352643 0)
(1.06395 0.0247039 0)
(1.06421 0.020612 0)
(1.0606 0.0178101 0)
(1.05461 0.0155392 0)
(1.04578 0.013924 0)
(1.03451 0.01267 0)
(1.02149 0.0115903 0)
(1.00735 0.0106436 0)
(0.992525 0.00981654 0)
(0.977383 0.00909181 0)
(0.962187 0.00845273 0)
(0.947131 0.00788622 0)
(0.932352 0.00738211 0)
(0.917943 0.00693202 0)
(0.903961 0.0065289 0)
(0.890443 0.00616678 0)
(0.877405 0.00584056 0)
(0.864852 0.00554589 0)
(0.852778 0.00527904 0)
(0.841174 0.00503682 0)
(0.830024 0.00481649 0)
(0.819312 0.0046157 0)
(0.809018 0.00443245 0)
(0.799123 0.004265 0)
(0.789607 0.0041119 0)
(0.780449 0.00397188 0)
(0.771631 0.00384392 0)
(0.763134 0.00372714 0)
(0.754938 0.00362081 0)
(0.747024 0.00352446 0)
(0.739378 0.00343761 0)
(0.731977 0.00336034 0)
(0.72481 0.00329222 0)
(0.717851 0.0032345 0)
(0.711096 0.00318596 0)
(0.704508 0.00315132 0)
(0.698092 0.00312467 0)
(0.691794 0.00312248 0)
(0.685632 0.00311978 0)
(0.67954 0.00317089 0)
(0.6735 0.00318899 0)
(0.667542 0.00333036 0)
(0.661397 0.00335705 0)
(0.655547 0.00360839 0)
(0.648959 0.0036547 0)
(0.643198 0.00372884 0)
(0.635978 0.00382153 0)
(0.629457 0.00165499 0)
(1.0044 0.034811 0)
(1.04323 0.0341919 0)
(1.05992 0.0240642 0)
(1.06224 0.0203202 0)
(1.06242 0.0178769 0)
(1.06168 0.0158244 0)
(1.05906 0.0143838 0)
(1.05444 0.0132965 0)
(1.04814 0.0123605 0)
(1.04048 0.0115274 0)
(1.03172 0.0107863 0)
(1.02213 0.0101239 0)
(1.01194 0.00952753 0)
(1.00134 0.00898769 0)
(0.990491 0.00849752 0)
(0.979532 0.00805152 0)
(0.968565 0.00764502 0)
(0.957669 0.00727394 0)
(0.946906 0.0069347 0)
(0.936322 0.00662413 0)
(0.925948 0.00633945 0)
(0.915808 0.00607815 0)
(0.905916 0.00583805 0)
(0.896281 0.00561721 0)
(0.886908 0.00541393 0)
(0.877796 0.00522673 0)
(0.868943 0.00505433 0)
(0.860344 0.00489561 0)
(0.851994 0.00474965 0)
(0.843883 0.00461566 0)
(0.836003 0.00449301 0)
(0.828345 0.00438125 0)
(0.8209 0.00428002 0)
(0.813654 0.0041894 0)
(0.8066 0.00410915 0)
(0.799718 0.00404051 0)
(0.793009 0.00398254 0)
(0.786439 0.00394003 0)
(0.780019 0.00390741 0)
(0.773695 0.00390157 0)
(0.767495 0.00389775 0)
(0.761341 0.00395096 0)
(0.755252 0.00397611 0)
(0.749189 0.00412523 0)
(0.743031 0.00417622 0)
(0.737001 0.00443222 0)
(0.730506 0.00453375 0)
(0.724418 0.00460086 0)
(0.717357 0.00471818 0)
(0.710353 0.00285857 0)
(1.00402 0.0323711 0)
(1.0399 0.0331426 0)
(1.05614 0.0234424 0)
(1.05888 0.0199339 0)
(1.06015 0.0177492 0)
(1.06146 0.0158321 0)
(1.06179 0.0144936 0)
(1.06084 0.0135222 0)
(1.05871 0.0127034 0)
(1.05551 0.0119774 0)
(1.05132 0.0113307 0)
(1.04627 0.0107498 0)
(1.04047 0.0102217 0)
(1.03405 0.00973783 0)
(1.02713 0.00929227 0)
(1.01983 0.00888093 0)
(1.01222 0.00850049 0)
(1.00441 0.00814823 0)
(0.996455 0.00782176 0)
(0.988425 0.007519 0)
(0.980367 0.00723808 0)
(0.972321 0.00697729 0)
(0.96432 0.00673511 0)
(0.956392 0.00651016 0)
(0.948555 0.00630119 0)
(0.940827 0.00610712 0)
(0.933219 0.00592699 0)
(0.92574 0.00575997 0)
(0.918396 0.00560535 0)
(0.91119 0.00546255 0)
(0.904123 0.00533112 0)
(0.897194 0.00521076 0)
(0.890403 0.00510128 0)
(0.883743 0.00500284 0)
(0.877215 0.00491546 0)
(0.870805 0.0048404 0)
(0.864517 0.00477711 0)
(0.858325 0.00473038 0)
(0.852242 0.00469521 0)
(0.846222 0.00468847 0)
(0.840294 0.00468659 0)
(0.834384 0.00474337 0)
(0.828525 0.00477892 0)
(0.822655 0.00493517 0)
(0.816722 0.00501444 0)
(0.810816 0.00527386 0)
(0.804598 0.00543054 0)
(0.798524 0.00550454 0)
(0.791746 0.00564878 0)
(0.78462 0.00411902 0)
(1.00364 0.030031 0)
(1.03691 0.0320958 0)
(1.0528 0.022854 0)
(1.05564 0.0195306 0)
(1.05705 0.0175597 0)
(1.05892 0.0157352 0)
(1.06032 0.0144448 0)
(1.06096 0.0135373 0)
(1.06091 0.012793 0)
(1.06019 0.0121423 0)
(1.0588 0.0115691 0)
(1.05676 0.0110584 0)
(1.0541 0.010596 0)
(1.05087 0.010172 0)
(1.04713 0.00977992 0)
(1.04293 0.00941565 0)
(1.03834 0.00907602 0)
(1.03342 0.00875869 0)
(1.02821 0.00846175 0)
(1.02279 0.00818367 0)
(1.01718 0.00792311 0)
(1.01143 0.0076789 0)
(1.00557 0.00745002 0)
(0.999649 0.00723553 0)
(0.993676 0.0070346 0)
(0.98768 0.00684652 0)
(0.98168 0.00667065 0)
(0.975692 0.00650646 0)
(0.96973 0.00635353 0)
(0.963805 0.00621149 0)
(0.957925 0.00608014 0)
(0.952095 0.00595937 0)
(0.946323 0.0058492 0)
(0.940607 0.00574994 0)
(0.934954 0.00566187 0)
(0.929356 0.00558637 0)
(0.92382 0.00552323 0)
(0.918329 0.00547734 0)
(0.912895 0.00544426 0)
(0.907484 0.00544074 0)
(0.90212 0.00544483 0)
(0.896745 0.00550806 0)
(0.891388 0.00555774 0)
(0.88599 0.00572237 0)
(0.88053 0.00583287 0)
(0.875032 0.00609755 0)
(0.869303 0.00630734 0)
(0.863547 0.00640361 0)
(0.857233 0.00658066 0)
(0.85031 0.00538928 0)
(1.00327 0.0277915 0)
(1.03408 0.031038 0)
(1.04968 0.0222921 0)
(1.05268 0.0191253 0)
(1.05405 0.0173515 0)
(1.05597 0.0156091 0)
(1.05765 0.0143414 0)
(1.05882 0.0134647 0)
(1.05958 0.0127618 0)
(1.05997 0.0121552 0)
(1.05999 0.011628 0)
(1.0596 0.011165 0)
(1.0588 0.0107508 0)
(1.05759 0.0103744 0)
(1.05598 0.0100284 0)
(1.054 0.00970781 0)
(1.05167 0.00940904 0)
(1.04901 0.00912946 0)
(1.04605 0.00886705 0)
(1.04284 0.00862028 0)
(1.03939 0.00838791 0)
(1.03573 0.00816894 0)
(1.0319 0.00796253 0)
(1.02791 0.00776795 0)
(1.02379 0.00758461 0)
(1.01957 0.007412 0)
(1.01526 0.00724972 0)
(1.01088 0.00709745 0)
(1.00644 0.00695498 0)
(1.00196 0.00682214 0)
(0.997448 0.00669895 0)
(0.992913 0.00658545 0)
(0.988365 0.00648189 0)
(0.983809 0.00638876 0)
(0.97925 0.00630654 0)
(0.974689 0.0062368 0)
(0.970132 0.00617959 0)
(0.96557 0.00614001 0)
(0.961013 0.00611408 0)
(0.95644 0.00611842 0)
(0.951865 0.00613288 0)
(0.947251 0.0062061 0)
(0.942616 0.00627366 0)
(0.937914 0.006449 0)
(0.933138 0.00659286 0)
(0.928278 0.00686639 0)
(0.923229 0.00712633 0)
(0.91804 0.00725953 0)
(0.912366 0.00747883 0)
(0.905921 0.00662305 0)
(1.00292 0.0256561 0)
(1.03137 0.0299644 0)
(1.04668 0.0217523 0)
(1.04989 0.0187181 0)
(1.05124 0.0171312 0)
(1.05312 0.015476 0)
(1.05483 0.0142243 0)
(1.05611 0.0133638 0)
(1.05711 0.0126845 0)
(1.05789 0.0121026 0)
(1.05847 0.0116007 0)
(1.05883 0.0111652 0)
(1.05894 0.0107806 0)
(1.05881 0.0104354 0)
(1.05842 0.0101214 0)
(1.05777 0.00983306 0)
(1.05687 0.00956636 0)
(1.05572 0.00931816 0)
(1.05433 0.00908611 0)
(1.05272 0.00886841 0)
(1.05089 0.00866368 0)
(1.04887 0.00847079 0)
(1.04666 0.00828887 0)
(1.04428 0.00811718 0)
(1.04175 0.00795516 0)
(1.03908 0.00780234 0)
(1.03628 0.00765841 0)
(1.03337 0.00752314 0)
(1.03037 0.00739641 0)
(1.02727 0.00727818 0)
(1.0241 0.00716859 0)
(1.02086 0.00706782 0)
(1.01756 0.00697628 0)
(1.0142 0.00689458 0)
(1.01079 0.00682339 0)
(1.00734 0.00676446 0)
(1.00385 0.00671803 0)
(1.00031 0.00668943 0)
(0.996735 0.00667508 0)
(0.993111 0.0066914 0)
(0.989446 0.00672017 0)
(0.985718 0.00680663 0)
(0.981934 0.00689528 0)
(0.978063 0.00708381 0)
(0.974103 0.00726211 0)
(0.970027 0.0075487 0)
(0.965786 0.00785538 0)
(0.96133 0.00803787 0)
(0.956429 0.00831081 0)
(0.950661 0.00777989 0)
(1.0026 0.0236273 0)
(1.02879 0.0288738 0)
(1.04376 0.0212336 0)
(1.0472 0.0183088 0)
(1.04856 0.0168976 0)
(1.0504 0.0153385 0)
(1.0521 0.0141048 0)
(1.05339 0.0132557 0)
(1.05442 0.0125934 0)
(1.05531 0.0120272 0)
(1.05606 0.0115397 0)
(1.05668 0.0111191 0)
(1.05716 0.0107511 0)
(1.0575 0.0104238 0)
(1.05769 0.0101291 0)
(1.05773 0.00986118 0)
(1.0576 0.00961569 0)
(1.05731 0.00938927 0)
(1.05686 0.00917929 0)
(1.05625 0.00898372 0)
(1.05548 0.00880096 0)
(1.05455 0.00862972 0)
(1.05347 0.00846899 0)
(1.05225 0.00831793 0)
(1.05089 0.00817587 0)
(1.0494 0.00804231 0)
(1.04779 0.0079169 0)
(1.04607 0.00779939 0)
(1.04423 0.00768968 0)
(1.0423 0.00758777 0)
(1.04027 0.00749383 0)
(1.03815 0.00740814 0)
(1.03595 0.00733116 0)
(1.03367 0.00726364 0)
(1.03133 0.00720631 0)
(1.02891 0.00716113 0)
(1.02642 0.00712842 0)
(1.02387 0.00711375 0)
(1.02125 0.00711386 0)
(1.01857 0.00714486 0)
(1.01581 0.00719059 0)
(1.01298 0.0072925 0)
(1.01007 0.0074042 0)
(1.00705 0.00760783 0)
(1.00394 0.00782024 0)
(1.0007 0.00812375 0)
(0.997302 0.00847345 0)
(0.99365 0.00871434 0)
(0.989574 0.00905203 0)
(0.984594 0.00883036 0)
(1.0023 0.021707 0)
(1.02633 0.0277672 0)
(1.04093 0.0207341 0)
(1.04459 0.017899 0)
(1.04597 0.0166492 0)
(1.04778 0.0151951 0)
(1.04948 0.0139839 0)
(1.05076 0.0131455 0)
(1.05179 0.0124984 0)
(1.05268 0.0119453 0)
(1.05346 0.0114679 0)
(1.05415 0.0110567 0)
(1.05474 0.0106983 0)
(1.05525 0.0103813 0)
(1.05567 0.0100975 0)
(1.05599 0.0098414 0)
(1.05622 0.00960853 0)
(1.05635 0.00939547 0)
(1.05637 0.00919953 0)
(1.0563 0.00901854 0)
(1.05612 0.00885082 0)
(1.05584 0.00869495 0)
(1.05545 0.00854981 0)
(1.05495 0.00841446 0)
(1.05436 0.00828814 0)
(1.05366 0.00817028 0)
(1.05286 0.00806044 0)
(1.05196 0.00795832 0)
(1.05097 0.0078638 0)
(1.04989 0.00777686 0)
(1.04872 0.00769767 0)
(1.04747 0.00762652 0)
(1.04614 0.00756392 0)
(1.04472 0.00751069 0)
(1.04323 0.00746758 0)
(1.04167 0.00743674 0)
(1.04003 0.00741848 0)
(1.03831 0.00741859 0)
(1.03652 0.00743412 0)
(1.03466 0.0074807 0)
(1.03271 0.00754435 0)
(1.03068 0.00766241 0)
(1.02856 0.0077975 0)
(1.02634 0.00801706 0)
(1.02402 0.0082618 0)
(1.02156 0.00858501 0)
(1.01895 0.00897379 0)
(1.01607 0.00927863 0)
(1.01279 0.00969028 0)
(1.00861 0.0097579 0)
(1.00203 0.0198959 0)
(1.02401 0.0266475 0)
(1.0382 0.020251 0)
(1.04207 0.0174904 0)
(1.04347 0.0163862 0)
(1.04525 0.0150443 0)
(1.04695 0.0138612 0)
(1.04824 0.0130335 0)
(1.04925 0.0124015 0)
(1.05012 0.0118615 0)
(1.0509 0.0113933 0)
(1.05159 0.0109895 0)
(1.0522 0.010638 0)
(1.05275 0.0103277 0)
(1.05323 0.0100508 0)
(1.05365 0.00980177 0)
(1.05401 0.00957632 0)
(1.05431 0.00937114 0)
(1.05455 0.00918354 0)
(1.05472 0.00901141 0)
(1.05482 0.00885303 0)
(1.05486 0.00870697 0)
(1.05484 0.00857207 0)
(1.05474 0.00844734 0)
(1.05457 0.008332 0)
(1.05433 0.00822538 0)
(1.05402 0.00812702 0)
(1.05364 0.00803658 0)
(1.05319 0.00795389 0)
(1.05267 0.00787891 0)
(1.05207 0.00781179 0)
(1.05141 0.00775286 0)
(1.05068 0.00770259 0)
(1.04988 0.0076619 0)
(1.04901 0.00763153 0)
(1.04807 0.00761375 0)
(1.04707 0.0076089 0)
(1.04599 0.00762288 0)
(1.04484 0.0076531 0)
(1.04361 0.00771449 0)
(1.04231 0.0077954 0)
(1.04093 0.00792892 0)
(1.03946 0.00808618 0)
(1.03789 0.00832141 0)
(1.03622 0.0085954 0)
(1.03442 0.00893984 0)
(1.03248 0.00936368 0)
(1.03028 0.00973468 0)
(1.02769 0.0102267 0)
(1.02425 0.0105603 0)
(1.00179 0.0181943 0)
(1.02183 0.0255187 0)
(1.03556 0.0197802 0)
(1.03963 0.0170851 0)
(1.04107 0.0161092 0)
(1.04281 0.0148853 0)
(1.04451 0.0137361 0)
(1.0458 0.0129195 0)
(1.0468 0.0123027 0)
(1.04766 0.0117764 0)
(1.04842 0.0113176 0)
(1.0491 0.010921 0)
(1.04971 0.0105757 0)
(1.05025 0.010271 0)
(1.05074 0.00999935 0)
(1.05118 0.00975531 0)
(1.05158 0.00953484 0)
(1.05193 0.00933469 0)
(1.05223 0.0091523 0)
(1.0525 0.00898561 0)
(1.05272 0.00883294 0)
(1.0529 0.00869293 0)
(1.05303 0.00856443 0)
(1.05312 0.00844646 0)
(1.05317 0.00833823 0)
(1.05316 0.00823908 0)
(1.05311 0.00814851 0)
(1.05301 0.00806617 0)
(1.05286 0.00799188 0)
(1.05265 0.00792561 0)
(1.0524 0.00786748 0)
(1.05209 0.00781786 0)
(1.05173 0.0077772 0)
(1.05132 0.00774651 0)
(1.05085 0.0077265 0)
(1.05033 0.00771958 0)
(1.04975 0.0077261 0)
(1.0491 0.00775199 0)
(1.04839 0.00779512 0)
(1.04762 0.00786953 0)
(1.04678 0.00796596 0)
(1.04586 0.00811328 0)
(1.04487 0.00829044 0)
(1.04379 0.00854026 0)
(1.04262 0.00883969 0)
(1.04133 0.00920571 0)
(1.03991 0.00966088 0)
(1.03823 0.0100976 0)
(1.0362 0.0106733 0)
(1.03337 0.0112475 0)
(1.00157 0.0166019 0)
(1.01978 0.0243847 0)
(1.03302 0.0193178 0)
(1.03728 0.0166847 0)
(1.03876 0.0158197 0)
(1.04046 0.0147174 0)
(1.04215 0.0136083 0)
(1.04344 0.0128034 0)
(1.04444 0.0122018 0)
(1.04529 0.0116897 0)
(1.04604 0.0112411 0)
(1.0467 0.0108518 0)
(1.0473 0.0105126 0)
(1.04783 0.0102134 0)
(1.04831 0.00994661 0)
(1.04875 0.00970697 0)
(1.04914 0.00949058 0)
(1.0495 0.00929433 0)
(1.04982 0.00911575 0)
(1.05011 0.00895286 0)
(1.05037 0.00880407 0)
(1.05059 0.00866806 0)
(1.05078 0.00854374 0)
(1.05095 0.00843018 0)
(1.05108 0.0083266 0)
(1.05117 0.00823237 0)
(1.05124 0.00814699 0)
(1.05127 0.00807013 0)
(1.05126 0.00800161 0)
(1.05122 0.00794141 0)
(1.05114 0.00788968 0)
(1.05103 0.00784682 0)
(1.05087 0.00781329 0)
(1.05068 0.00779017 0)
(1.05044 0.00777817 0)
(1.05015 0.0077798 0)
(1.04982 0.00779549 0)
(1.04944 0.00783111 0)
(1.04901 0.00788505 0)
(1.04853 0.00797036 0)
(1.04798 0.00808016 0)
(1.04737 0.00823933 0)
(1.0467 0.00843367 0)
(1.04594 0.00869668 0)
(1.04511 0.00901763 0)
(1.04417 0.00940486 0)
(1.04311 0.00988821 0)
(1.04182 0.0103883 0)
(1.0402 0.0110483 0)
(1.03786 0.0118373 0)
(1.00137 0.0151178 0)
(1.01787 0.0232494 0)
(1.03059 0.0188599 0)
(1.03502 0.0162908 0)
(1.03654 0.0155189 0)
(1.03821 0.01454 0)
(1.03988 0.0134774 0)
(1.04118 0.0126852 0)
(1.04217 0.0120985 0)
(1.04301 0.0116015 0)
(1.04374 0.0111635 0)
(1.0444 0.0107819 0)
(1.04498 0.0104491 0)
(1.0455 0.0101555 0)
(1.04597 0.00989355 0)
(1.0464 0.00965823 0)
(1.04678 0.00944572 0)
(1.04713 0.00925305 0)
(1.04745 0.00907781 0)
(1.04773 0.00891812 0)
(1.04799 0.00877245 0)
(1.04823 0.00863956 0)
(1.04843 0.00851839 0)
(1.04862 0.00840807 0)
(1.04877 0.00830786 0)
(1.04891 0.00821714 0)
(1.04901 0.00813546 0)
(1.04909 0.0080625 0)
(1.04915 0.00799811 0)
(1.04918 0.00794229 0)
(1.04918 0.00789521 0)
(1.04915 0.00785732 0)
(1.04909 0.00782911 0)
(1.049 0.00781173 0)
(1.04888 0.00780591 0)
(1.04872 0.00781425 0)
(1.04852 0.00783729 0)
(1.04829 0.00788075 0)
(1.04801 0.00794367 0)
(1.04768 0.00803801 0)
(1.04731 0.00815915 0)
(1.04688 0.00832841 0)
(1.04639 0.00853736 0)
(1.04584 0.00881224 0)
(1.04522 0.00915129 0)
(1.04451 0.00955899 0)
(1.04368 0.0100682 0)
(1.04264 0.0106283 0)
(1.0413 0.0113709 0)
(1.03933 0.0123492 0)
(1.00119 0.0137403 0)
(1.0161 0.022117 0)
(1.02827 0.0184027 0)
(1.03284 0.0159044 0)
(1.03441 0.0152086 0)
(1.03604 0.0143525 0)
(1.0377 0.013343 0)
(1.03901 0.0125651 0)
(1.03999 0.011993 0)
(1.04082 0.0115114 0)
(1.04154 0.0110847 0)
(1.04219 0.0107112 0)
(1.04276 0.0103851 0)
(1.04327 0.0100972 0)
(1.04373 0.0098403 0)
(1.04414 0.0096094 0)
(1.04451 0.00940083 0)
(1.04485 0.00921172 0)
(1.04516 0.00903976 0)
(1.04544 0.00888313 0)
(1.04569 0.00874036 0)
(1.04592 0.00861029 0)
(1.04612 0.0084919 0)
(1.0463 0.00838437 0)
(1.04646 0.00828698 0)
(1.0466 0.00819916 0)
(1.04671 0.00812048 0)
(1.04681 0.00805065 0)
(1.04688 0.00798953 0)
(1.04693 0.00793717 0)
(1.04696 0.00789377 0)
(1.04696 0.00785982 0)
(1.04694 0.00783584 0)
(1.0469 0.00782307 0)
(1.04683 0.00782228 0)
(1.04672 0.00783611 0)
(1.04659 0.00786526 0)
(1.04642 0.00791526 0)
(1.04622 0.00798581 0)
(1.04598 0.0080878 0)
(1.04569 0.00821871 0)
(1.04536 0.00839674 0)
(1.04498 0.00861818 0)
(1.04454 0.00890396 0)
(1.04404 0.00925845 0)
(1.04346 0.00968583 0)
(1.04277 0.0102194 0)
(1.04189 0.0108358 0)
(1.04073 0.0116572 0)
(1.03904 0.0127999 0)
(1.00104 0.0124672 0)
(1.01446 0.0209918 0)
(1.02606 0.0179429 0)
(1.03075 0.0155264 0)
(1.03238 0.0148908 0)
(1.03397 0.0141545 0)
(1.03561 0.0132046 0)
(1.03692 0.012443 0)
(1.03791 0.0118852 0)
(1.03872 0.0114193 0)
(1.03944 0.0110047 0)
(1.04007 0.0106397 0)
(1.04063 0.0103204 0)
(1.04113 0.0100385 0)
(1.04158 0.00978683 0)
(1.04198 0.0095605 0)
(1.04234 0.00935599 0)
(1.04267 0.00917053 0)
(1.04296 0.0090019 0)
(1.04323 0.00884835 0)
(1.04348 0.0087085 0)
(1.04369 0.0085812 0)
(1.04389 0.00846552 0)
(1.04406 0.00836066 0)
(1.04422 0.00826594 0)
(1.04435 0.00818081 0)
(1.04446 0.00810488 0)
(1.04456 0.00803787 0)
(1.04463 0.00797967 0)
(1.04468 0.00793038 0)
(1.04472 0.0078902 0)
(1.04473 0.0078597 0)
(1.04472 0.00783944 0)
(1.04469 0.00783068 0)
(1.04463 0.0078343 0)
(1.04455 0.00785293 0)
(1.04444 0.00788748 0)
(1.0443 0.00794324 0)
(1.04413 0.00802058 0)
(1.04392 0.00812938 0)
(1.04368 0.00826897 0)
(1.04339 0.00845497 0)
(1.04306 0.00868735 0)
(1.04269 0.00898344 0)
(1.04225 0.00935151 0)
(1.04174 0.00979784 0)
(1.04113 0.0103548 0)
(1.04035 0.0110235 0)
(1.03932 0.0119189 0)
(1.03784 0.0132016 0)
(1.0009 0.0112957 0)
(1.01295 0.0198781 0)
(1.02396 0.0174774 0)
(1.02874 0.0151572 0)
(1.03045 0.0145675 0)
(1.03199 0.0139457 0)
(1.03361 0.0130615 0)
(1.03492 0.012319 0)
(1.03591 0.011775 0)
(1.03672 0.0113252 0)
(1.03742 0.0109233 0)
(1.03804 0.0105672 0)
(1.0386 0.0102551 0)
(1.03908 0.00997933 0)
(1.03952 0.00973307 0)
(1.03991 0.00951147 0)
(1.04026 0.00931115 0)
(1.04058 0.00912946 0)
(1.04087 0.00896427 0)
(1.04113 0.00881389 0)
(1.04136 0.00867701 0)
(1.04157 0.00855254 0)
(1.04176 0.0084396 0)
(1.04192 0.00833743 0)
(1.04207 0.00824537 0)
(1.04219 0.00816292 0)
(1.0423 0.00808968 0)
(1.04238 0.00802543 0)
(1.04245 0.00797006 0)
(1.0425 0.00792371 0)
(1.04253 0.00788662 0)
(1.04254 0.00785939 0)
(1.04253 0.00784262 0)
(1.0425 0.00783765 0)
(1.04244 0.0078454 0)
(1.04236 0.00786852 0)
(1.04226 0.00790812 0)
(1.04213 0.00796925 0)
(1.04197 0.00805291 0)
(1.04178 0.00816807 0)
(1.04155 0.00831562 0)
(1.04129 0.00850915 0)
(1.04099 0.00875139 0)
(1.04064 0.00905742 0)
(1.04024 0.00943787 0)
(1.03977 0.00990244 0)
(1.03921 0.0104822 0)
(1.0385 0.011199 0)
(1.03756 0.0121621 0)
(1.03626 0.0135615 0)
(1.00078 0.0102221 0)
(1.01156 0.0187804 0)
(1.02198 0.0170033 0)
(1.02683 0.014797 0)
(1.0286 0.0142408 0)
(1.03011 0.0137263 0)
(1.0317 0.0129132 0)
(1.03301 0.0121929 0)
(1.034 0.0116627 0)
(1.0348 0.0112289 0)
(1.0355 0.0108403 0)
(1.03611 0.0104937 0)
(1.03665 0.0101889 0)
(1.03713 0.00991961 0)
(1.03756 0.00967895 0)
(1.03794 0.00946226 0)
(1.03828 0.00926628 0)
(1.03859 0.00908848 0)
(1.03887 0.00892682 0)
(1.03912 0.00877972 0)
(1.03934 0.00864589 0)
(1.03954 0.00852434 0)
(1.03972 0.00841422 0)
(1.03988 0.00831479 0)
(1.04001 0.00822546 0)
(1.04013 0.00814572 0)
(1.04023 0.00807522 0)
(1.04031 0.00801374 0)
(1.04037 0.00796122 0)
(1.04041 0.0079178 0)
(1.04043 0.00788379 0)
(1.04044 0.00785979 0)
(1.04042 0.00784649 0)
(1.04039 0.00784522 0)
(1.04033 0.00785703 0)
(1.04025 0.00788452 0)
(1.04015 0.00792904 0)
(1.04002 0.00799536 0)
(1.03986 0.00808509 0)
(1.03967 0.00820638 0)
(1.03945 0.00836144 0)
(1.0392 0.00856228 0)
(1.03891 0.00881363 0)
(1.03858 0.00912937 0)
(1.0382 0.00952141 0)
(1.03776 0.0100034 0)
(1.03723 0.0106053 0)
(1.03657 0.0113658 0)
(1.03572 0.012389 0)
(1.03457 0.0138824 0)
(1.00067 0.00924243 0)
(1.0103 0.0177031 0)
(1.02011 0.0165186 0)
(1.02499 0.0144454 0)
(1.02684 0.0139128 0)
(1.02832 0.0134964 0)
(1.02988 0.012759 0)
(1.03119 0.0120646 0)
(1.03218 0.0115481 0)
(1.03297 0.0111303 0)
(1.03366 0.0107557 0)
(1.03427 0.0104191 0)
(1.0348 0.010122 0)
(1.03527 0.00985927 0)
(1.03569 0.00962441 0)
(1.03606 0.00941281 0)
(1.0364 0.00922131 0)
(1.0367 0.00904753 0)
(1.03696 0.00888953 0)
(1.03721 0.00874579 0)
(1.03742 0.00861512 0)
(1.03761 0.00849657 0)
(1.03778 0.00838934 0)
(1.03793 0.00829274 0)
(1.03806 0.0082062 0)
(1.03817 0.00812925 0)
(1.03826 0.00806154 0)
(1.03833 0.0080029 0)
(1.03838 0.00795327 0)
(1.03842 0.00791284 0)
(1.03844 0.00788193 0)
(1.03844 0.00786121 0)
(1.03841 0.00785138 0)
(1.03837 0.00785384 0)
(1.03831 0.0078697 0)
(1.03823 0.00790154 0)
(1.03812 0.00795091 0)
(1.03799 0.00802236 0)
(1.03783 0.00811801 0)
(1.03765 0.00824533 0)
(1.03743 0.00840757 0)
(1.03718 0.00861558 0)
(1.0369 0.00887549 0)
(1.03658 0.00920066 0)
(1.03621 0.00960372 0)
(1.0358 0.0101022 0)
(1.0353 0.0107252 0)
(1.03469 0.0115245 0)
(1.03392 0.0125993 0)
(1.03293 0.0141647 0)
(1.00058 0.00835208 0)
(1.00916 0.0166506 0)
(1.01835 0.0160216 0)
(1.02324 0.0141019 0)
(1.02517 0.0135853 0)
(1.02662 0.0132567 0)
(1.02815 0.0125982 0)
(1.02945 0.0119339 0)
(1.03045 0.0114313 0)
(1.03123 0.0110293 0)
(1.03191 0.0106692 0)
(1.03251 0.0103432 0)
(1.03304 0.0100542 0)
(1.0335 0.00979822 0)
(1.03391 0.00956936 0)
(1.03428 0.00936303 0)
(1.0346 0.00917618 0)
(1.03489 0.00900655 0)
(1.03515 0.00885232 0)
(1.03539 0.00871205 0)
(1.03559 0.00858464 0)
(1.03578 0.00846918 0)
(1.03594 0.00836493 0)
(1.03608 0.00827124 0)
(1.0362 0.00818757 0)
(1.0363 0.00811347 0)
(1.03639 0.00804864 0)
(1.03645 0.00799289 0)
(1.0365 0.00794622 0)
(1.03653 0.00790884 0)
(1.03654 0.0078811 0)
(1.03653 0.00786369 0)
(1.03651 0.00785739 0)
(1.03646 0.0078636 0)
(1.0364 0.00788354 0)
(1.03631 0.00791973 0)
(1.0362 0.00797394 0)
(1.03607 0.00805049 0)
(1.03591 0.00815195 0)
(1.03572 0.00828521 0)
(1.03551 0.00845436 0)
(1.03527 0.00866939 0)
(1.03499 0.0089374 0)
(1.03468 0.00927167 0)
(1.03433 0.00968519 0)
(1.03393 0.010199 0)
(1.03346 0.0108417 0)
(1.0329 0.0116744 0)
(1.03221 0.0127913 0)
(1.03138 0.0144074 0)
(1.0005 0.007546 0)
(1.00813 0.0156271 0)
(1.0167 0.0155112 0)
(1.02158 0.0137655 0)
(1.02359 0.0132602 0)
(1.02501 0.013008 0)
(1.0265 0.0124305 0)
(1.0278 0.0118005 0)
(1.02879 0.0113124 0)
(1.02958 0.0109259 0)
(1.03025 0.0105807 0)
(1.03084 0.010266 0)
(1.03136 0.00998529 0)
(1.03182 0.00973638 0)
(1.03222 0.00951373 0)
(1.03258 0.00931285 0)
(1.0329 0.00913081 0)
(1.03318 0.00896547 0)
(1.03343 0.00881513 0)
(1.03366 0.00867846 0)
(1.03386 0.0085544 0)