/*--------------------------------*- C++ -*----------------------------------*\
  =========                 |
  \\      /  F ield         | OpenFOAM: The Open Source CFD Toolbox
   \\    /   O peration     | Website:  https://openfoam.org
    \\  /    A nd           | Version:  7
     \\/     M anipulation  |
\*---------------------------------------------------------------------------*/
FoamFile
{
    version     2.0;
    format      ascii;
    class       volVectorField;
    location    "0.37";
    object      U_0;
}
// * * * * * * * * * * * * * * * * * * * * * * * * * * * * * * * * * * * * * //

dimensions      [0 1 -1 0 0 0 0];

internalField   nonuniform List<vector> 
70000
(
(0.553388 0.0167232 0)
(0.251246 0.00340127 0)
(0.166168 0.000322281 0)
(0.1324 5.45068e-05 0)
(0.117187 4.59425e-05 0)
(0.10724 5.41237e-05 0)
(0.0992669 4.64987e-05 0)
(0.092801 3.7174e-05 0)
(0.0875296 3.08776e-05 0)
(0.0831324 2.65691e-05 0)
(0.0793813 2.32907e-05 0)
(0.0761283 2.06687e-05 0)
(0.073272 1.85344e-05 0)
(0.0707383 1.67747e-05 0)
(0.0684711 1.53062e-05 0)
(0.0664268 1.40671e-05 0)
(0.064571 1.30113e-05 0)
(0.0628765 1.21054e-05 0)
(0.0613208 1.13221e-05 0)
(0.0598857 1.06423e-05 0)
(0.058556 1.00494e-05 0)
(0.0573188 9.53168e-06 0)
(0.0561633 9.07885e-06 0)
(0.0550802 8.68352e-06 0)
(0.0540616 8.33876e-06 0)
(0.0531002 8.04127e-06 0)
(0.0521902 7.78539e-06 0)
(0.0513258 7.5713e-06 0)
(0.0505023 7.39436e-06 0)
(0.0497151 7.25825e-06 0)
(0.0489601 7.15745e-06 0)
(0.0482332 7.10361e-06 0)
(0.047531 7.08131e-06 0)
(0.0468493 7.12418e-06 0)
(0.0461851 7.18546e-06 0)
(0.0455339 7.35455e-06 0)
(0.0448925 7.49969e-06 0)
(0.0442557 7.8429e-06 0)
(0.0436197 8.05955e-06 0)
(0.04298 8.60969e-06 0)
(0.0423263 8.91994e-06 0)
(0.0416695 9.47067e-06 0)
(0.0409586 1.02108e-05 0)
(0.0402979 9.47665e-06 0)
(0.0394437 1.2182e-05 0)
(0.0389034 5.52847e-06 0)
(0.0377027 1.4217e-05 0)
(0.0377253 -1.02949e-05 0)
(0.0360409 7.5139e-06 0)
(0.0348963 -0.00141361 0)
(0.884898 0.0431682 0)
(0.649693 0.0201958 0)
(0.494255 0.00660075 0)
(0.403548 0.00277034 0)
(0.354568 0.00155498 0)
(0.323206 0.00113483 0)
(0.299284 0.000913879 0)
(0.280019 0.000750214 0)
(0.264235 0.000627608 0)
(0.25104 0.000537104 0)
(0.239781 0.000468461 0)
(0.23002 0.000414499 0)
(0.221449 0.00037095 0)
(0.213845 0.000335155 0)
(0.207041 0.00030531 0)
(0.200906 0.000280122 0)
(0.195338 0.000258641 0)
(0.190254 0.000240158 0)
(0.185589 0.000224131 0)
(0.181286 0.000210144 0)
(0.177302 0.000197868 0)
(0.173598 0.000187044 0)
(0.17014 0.000177466 0)
(0.166903 0.000168966 0)
(0.163862 0.000161409 0)
(0.160996 0.000154688 0)
(0.158287 0.000148713 0)
(0.155719 0.000143419 0)
(0.153278 0.000138749 0)
(0.150952 0.000134673 0)
(0.148727 0.000131151 0)
(0.146594 0.000128201 0)
(0.144542 0.000125775 0)
(0.142561 0.000123982 0)
(0.140642 0.000122698 0)
(0.138774 0.000122256 0)
(0.136948 0.000122259 0)
(0.135153 0.000123597 0)
(0.133377 0.000125098 0)
(0.13161 0.000128967 0)
(0.129822 0.000132171 0)
(0.128044 0.000139554 0)
(0.126135 0.000144464 0)
(0.124364 0.000155681 0)
(0.122077 0.000161247 0)
(0.120584 0.000172424 0)
(0.117285 0.000172609 0)
(0.117033 0.000144118 0)
(0.111999 0.000240107 0)
(0.111622 -0.00241759 0)
(0.991238 0.0499029 0)
(0.89033 0.0307228 0)
(0.762619 0.0146037 0)
(0.656542 0.0079867 0)
(0.585141 0.00489267 0)
(0.535654 0.0034797 0)
(0.497697 0.00274498 0)
(0.46698 0.00225343 0)
(0.441559 0.00189102 0)
(0.420137 0.00162013 0)
(0.401766 0.00141339 0)
(0.38578 0.00125081 0)
(0.371703 0.00111966 0)
(0.359186 0.00101183 0)
(0.347963 0.000921865 0)
(0.337828 0.000845876 0)
(0.328618 0.000781011 0)
(0.3202 0.000725141 0)
(0.312469 0.000676638 0)
(0.305335 0.000634248 0)
(0.298725 0.000596985 0)
(0.292578 0.000564066 0)
(0.28684 0.000534863 0)
(0.281468 0.000508872 0)
(0.276422 0.00048568 0)
(0.271669 0.000464956 0)
(0.267179 0.000446426 0)
(0.262927 0.000429877 0)
(0.25889 0.00041513 0)
(0.255045 0.000402064 0)
(0.251377 0.000390563 0)
(0.247865 0.000380615 0)
(0.244496 0.000372109 0)
(0.241253 0.000365231 0)
(0.238123 0.000359752 0)
(0.23509 0.000356309 0)
(0.232141 0.000354185 0)
(0.229259 0.000355171 0)
(0.226429 0.000356977 0)
(0.223635 0.000364419 0)
(0.220838 0.000370641 0)
(0.218079 0.000388293 0)
(0.215157 0.000397961 0)
(0.212456 0.000431996 0)
(0.209032 0.000438204 0)
(0.206736 0.000494668 0)
(0.201903 0.000475505 0)
(0.201148 0.000484405 0)
(0.19386 0.000569648 0)
(0.194074 -0.00236506 0)
(1.0156 0.0489223 0)
(1.00595 0.0358811 0)
(0.9359 0.0208016 0)
(0.852005 0.0135166 0)
(0.781982 0.00922168 0)
(0.726689 0.00679652 0)
(0.681502 0.00540026 0)
(0.64363 0.00446257 0)
(0.611487 0.00377031 0)
(0.583883 0.00324591 0)
(0.559885 0.002841 0)
(0.538785 0.0025204 0)
(0.520056 0.00226062 0)
(0.503294 0.00204625 0)
(0.488186 0.00186681 0)
(0.474482 0.00171481 0)
(0.461983 0.00158472 0)
(0.450524 0.00147241 0)
(0.439972 0.0013747 0)
(0.430213 0.00128911 0)
(0.421155 0.00121372 0)
(0.412717 0.00114698 0)
(0.404832 0.00108764 0)
(0.397441 0.00103468 0)
(0.390493 0.000987305 0)
(0.383944 0.000944827 0)
(0.377756 0.000906699 0)
(0.371895 0.000872479 0)
(0.366329 0.000841802 0)
(0.361032 0.000814393 0)
(0.355979 0.000790015 0)
(0.351147 0.000768579 0)
(0.346516 0.000749885 0)
(0.342066 0.000734154 0)
(0.337781 0.000721051 0)
(0.333638 0.000711482 0)
(0.329624 0.000704433 0)
(0.325717 0.000702596 0)
(0.3219 0.000702531 0)
(0.318153 0.000712016 0)
(0.314435 0.000719551 0)
(0.310786 0.000747994 0)
(0.306983 0.00076029 0)
(0.303454 0.000822938 0)
(0.299141 0.000824727 0)
(0.296078 0.000943066 0)
(0.290299 0.000897669 0)
(0.288691 0.00096751 0)
(0.280536 0.00100563 0)
(0.279793 -0.00187429 0)
(1.01434 0.046006 0)
(1.04752 0.0374961 0)
(1.02454 0.0241649 0)
(0.974665 0.0175766 0)
(0.923274 0.0131425 0)
(0.876408 0.0102285 0)
(0.834138 0.00836718 0)
(0.796271 0.00704835 0)
(0.762577 0.00604075 0)
(0.732619 0.00525539 0)
(0.705885 0.00463541 0)
(0.681905 0.00413666 0)
(0.66028 0.00372773 0)
(0.64068 0.00338715 0)
(0.622828 0.00309987 0)
(0.606495 0.00285494 0)
(0.591488 0.00264418 0)
(0.577645 0.00246134 0)
(0.564829 0.00230158 0)
(0.552924 0.00216113 0)
(0.541828 0.00203698 0)
(0.531458 0.0019267 0)
(0.521737 0.00182834 0)
(0.512602 0.0017403 0)
(0.503996 0.00166128 0)
(0.495868 0.0015902 0)
(0.488176 0.00152617 0)
(0.480879 0.00146847 0)
(0.473944 0.0014165 0)
(0.467337 0.00136978 0)
(0.461031 0.00132793 0)
(0.454999 0.00129074 0)
(0.449218 0.0012579 0)
(0.443664 0.00122963 0)
(0.438319 0.00120548 0)
(0.433158 0.00118657 0)
(0.428166 0.00117164 0)
(0.423315 0.00116418 0)
(0.418594 0.00115968 0)
(0.413971 0.0011689 0)
(0.409414 0.00117546 0)
(0.404948 0.00121323 0)
(0.40037 0.00122606 0)
(0.396068 0.00131701 0)
(0.391058 0.00131428 0)
(0.387188 0.0014914 0)
(0.380926 0.00143444 0)
(0.378137 0.00154458 0)
(0.370091 0.00156895 0)
(0.367462 -0.00122053 0)
(1.00933 0.0429176 0)
(1.05527 0.0372724 0)
(1.05866 0.0253116 0)
(1.0363 0.0197805 0)
(1.00697 0.0158373 0)
(0.975834 0.0129654 0)
(0.944207 0.0109927 0)
(0.913224 0.00951407 0)
(0.883737 0.00832702 0)
(0.856134 0.00736244 0)
(0.830494 0.00657546 0)
(0.806755 0.00592601 0)
(0.784796 0.00538274 0)
(0.764477 0.0049229 0)
(0.745649 0.00452984 0)
(0.728174 0.00419097 0)
(0.711922 0.00389659 0)
(0.696774 0.00363914 0)
(0.682623 0.00341262 0)
(0.669375 0.00321222 0)
(0.656944 0.00303408 0)
(0.645256 0.00287506 0)
(0.634243 0.00273257 0)
(0.623845 0.00260448 0)
(0.614009 0.00248904 0)
(0.604687 0.00238478 0)
(0.595835 0.0022905 0)
(0.587414 0.00220517 0)
(0.57939 0.00212797 0)
(0.57173 0.00205823 0)
(0.564405 0.00199539 0)
(0.557387 0.00193911 0)
(0.550653 0.00188899 0)
(0.544176 0.00184519 0)
(0.537939 0.00180721 0)
(0.531914 0.00177626 0)
(0.526088 0.00175097 0)
(0.520427 0.00173544 0)
(0.514926 0.00172432 0)
(0.509544 0.001731 0)
(0.504263 0.00173479 0)
(0.499079 0.00177941 0)
(0.493843 0.00179235 0)
(0.488836 0.0019068 0)
(0.483291 0.00190558 0)
(0.47861 0.00212523 0)
(0.472136 0.00208393 0)
(0.468095 0.00219895 0)
(0.460437 0.00224546 0)
(0.456032 -0.000404232 0)
(1.00625 0.0400364 0)
(1.05206 0.0363457 0)
(1.06607 0.0252425 0)
(1.05955 0.0205833 0)
(1.04677 0.0172687 0)
(1.03062 0.0146915 0)
(1.01164 0.0128601 0)
(0.990853 0.0114398 0)
(0.969322 0.0102477 0)
(0.94778 0.00923636 0)
(0.926672 0.00838026 0)
(0.906263 0.00765156 0)
(0.886698 0.00702591 0)
(0.868049 0.00648455 0)
(0.850335 0.00601307 0)
(0.833543 0.00560007 0)
(0.817643 0.00523636 0)
(0.802591 0.00491448 0)
(0.78834 0.00462833 0)
(0.77484 0.00437287 0)
(0.762043 0.00414395 0)
(0.749899 0.00393811 0)
(0.738364 0.00375247 0)
(0.727394 0.0035846 0)
(0.71695 0.00343246 0)
(0.706994 0.00329436 0)
(0.697491 0.00316884 0)
(0.688409 0.0030547 0)
(0.679718 0.00295094 0)
(0.67139 0.00285674 0)
(0.663399 0.00277142 0)
(0.65572 0.00269453 0)
(0.648332 0.00262558 0)
(0.641209 0.0025647 0)
(0.634335 0.00251137 0)
(0.627684 0.00246687 0)
(0.621244 0.00242979 0)
(0.61498 0.00240467 0)
(0.608891 0.00238567 0)
(0.602928 0.00238814 0)
(0.597092 0.00238843 0)
(0.591345 0.00243729 0)
(0.585606 0.00245175 0)
(0.580021 0.00258304 0)
(0.574094 0.00259234 0)
(0.568715 0.00283611 0)
(0.562145 0.00283402 0)
(0.557065 0.00293412 0)
(0.549675 0.00301048 0)
(0.543979 0.000585757 0)
(1.00495 0.0373587 0)
(1.04726 0.0352644 0)
(1.06395 0.024704 0)
(1.06421 0.020612 0)
(1.0606 0.0178101 0)
(1.05461 0.0155392 0)
(1.04578 0.013924 0)
(1.03451 0.01267 0)
(1.02149 0.0115903 0)
(1.00735 0.0106436 0)
(0.992525 0.00981652 0)
(0.977383 0.00909178 0)
(0.962187 0.00845268 0)
(0.947131 0.00788617 0)
(0.932352 0.00738204 0)
(0.917943 0.00693193 0)
(0.903962 0.0065288 0)
(0.890444 0.00616667 0)
(0.877406 0.00584044 0)
(0.864853 0.00554575 0)
(0.85278 0.00527888 0)
(0.841176 0.00503664 0)
(0.830026 0.00481629 0)
(0.819314 0.00461547 0)
(0.809021 0.00443219 0)
(0.799126 0.0042647 0)
(0.789611 0.00411156 0)
(0.780454 0.0039715 0)
(0.771637 0.00384348 0)
(0.76314 0.00372663 0)
(0.754945 0.00362023 0)
(0.747033 0.0035238 0)
(0.739387 0.00343686 0)
(0.731988 0.00335948 0)
(0.724822 0.00329123 0)
(0.717866 0.00323338 0)
(0.711112 0.0031847 0)
(0.704526 0.00314992 0)
(0.698113 0.00312316 0)
(0.691818 0.00312089 0)
(0.685658 0.00311821 0)
(0.679569 0.00316949 0)
(0.673531 0.003188 0)
(0.667575 0.0033304 0)
(0.661431 0.00335837 0)
(0.655581 0.00361333 0)
(0.648987 0.00366305 0)
(0.643217 0.0037473 0)
(0.635973 0.00385185 0)
(0.629416 0.00170874 0)
(1.0044 0.034811 0)
(1.04323 0.0341919 0)
(1.05992 0.0240642 0)
(1.06224 0.0203202 0)
(1.06242 0.017877 0)
(1.06168 0.0158244 0)
(1.05906 0.0143838 0)
(1.05444 0.0132965 0)
(1.04814 0.0123605 0)
(1.04048 0.0115274 0)
(1.03172 0.0107863 0)
(1.02213 0.0101239 0)
(1.01194 0.00952748 0)
(1.00134 0.00898763 0)
(0.99049 0.00849744 0)
(0.979532 0.00805143 0)
(0.968565 0.00764491 0)
(0.957669 0.00727381 0)
(0.946907 0.00693455 0)
(0.936322 0.00662397 0)
(0.925949 0.00633926 0)
(0.915809 0.00607794 0)
(0.905918 0.00583781 0)
(0.896283 0.00561694 0)
(0.886911 0.00541362 0)
(0.877799 0.00522638 0)
(0.868947 0.00505393 0)
(0.860349 0.00489515 0)
(0.851999 0.00474913 0)
(0.843888 0.00461506 0)
(0.83601 0.00449232 0)
(0.828353 0.00438047 0)
(0.820909 0.00427913 0)
(0.813664 0.00418838 0)
(0.806611 0.00410798 0)
(0.799732 0.00403918 0)
(0.793024 0.00398104 0)
(0.786456 0.00393837 0)
(0.780038 0.00390561 0)
(0.773717 0.00389966 0)
(0.767519 0.00389585 0)
(0.761367 0.00394923 0)
(0.755281 0.00397482 0)
(0.74922 0.00412509 0)
(0.743062 0.00417755 0)
(0.737032 0.0044375 0)
(0.730531 0.00454321 0)
(0.724435 0.0046212 0)
(0.717353 0.00475288 0)
(0.710316 0.00292034 0)
(1.00402 0.0323711 0)
(1.0399 0.0331426 0)
(1.05614 0.0234424 0)
(1.05888 0.0199339 0)
(1.06015 0.0177492 0)
(1.06146 0.0158321 0)
(1.06179 0.0144936 0)
(1.06084 0.0135222 0)
(1.05871 0.0127034 0)
(1.05551 0.0119774 0)
(1.05132 0.0113307 0)
(1.04627 0.0107497 0)
(1.04047 0.0102217 0)
(1.03405 0.00973776 0)
(1.02713 0.00929219 0)
(1.01982 0.00888082 0)
(1.01222 0.00850037 0)
(1.00441 0.00814808 0)
(0.996456 0.00782159 0)
(0.988426 0.00751881 0)
(0.980367 0.00723786 0)
(0.972322 0.00697705 0)
(0.964322 0.00673484 0)
(0.956393 0.00650984 0)
(0.948557 0.00630083 0)
(0.94083 0.00610672 0)
(0.933222 0.00592653 0)
(0.925744 0.00575944 0)
(0.9184 0.00560475 0)
(0.911195 0.00546186 0)
(0.904128 0.00533033 0)
(0.897201 0.00520986 0)
(0.890411 0.00510025 0)
(0.883752 0.00500166 0)
(0.877225 0.00491411 0)
(0.870817 0.00483888 0)
(0.864531 0.00477539 0)
(0.85834 0.00472847 0)
(0.85226 0.00469313 0)
(0.846242 0.00468626 0)
(0.840316 0.00468438 0)
(0.834408 0.00474135 0)
(0.828551 0.00477737 0)
(0.822682 0.00493486 0)
(0.81675 0.00501579 0)
(0.810843 0.00527944 0)
(0.804621 0.00544107 0)
(0.798538 0.00552664 0)
(0.791744 0.0056875 0)
(0.784587 0.00418791 0)
(1.00364 0.030031 0)
(1.03691 0.0320959 0)
(1.0528 0.022854 0)
(1.05564 0.0195306 0)
(1.05705 0.0175597 0)
(1.05892 0.0157352 0)
(1.06032 0.0144449 0)
(1.06096 0.0135373 0)
(1.06091 0.012793 0)
(1.06019 0.0121423 0)
(1.0588 0.0115691 0)
(1.05676 0.0110584 0)
(1.0541 0.010596 0)
(1.05087 0.0101719 0)
(1.04713 0.00977984 0)
(1.04293 0.00941554 0)
(1.03834 0.00907589 0)
(1.03342 0.00875853 0)
(1.02821 0.00846157 0)
(1.02279 0.00818346 0)
(1.01718 0.00792287 0)
(1.01143 0.00767863 0)
(1.00558 0.00744971 0)
(0.99965 0.00723517 0)
(0.993677 0.0070342 0)
(0.987682 0.00684606 0)
(0.981682 0.00667013 0)
(0.975695 0.00650587 0)
(0.969734 0.00635285 0)
(0.963809 0.00621071 0)
(0.957929 0.00607926 0)
(0.952101 0.00595835 0)
(0.946329 0.00584804 0)
(0.940615 0.00574862 0)
(0.934963 0.00566036 0)
(0.929366 0.00558466 0)
(0.923832 0.0055213 0)
(0.918342 0.0054752 0)
(0.91291 0.00544192 0)
(0.907501 0.00543826 0)
(0.902139 0.00544233 0)
(0.896766 0.00550577 0)
(0.891411 0.00555594 0)
(0.886014 0.00572191 0)
(0.880554 0.00583428 0)
(0.875055 0.00610341 0)
(0.869323 0.00631888 0)
(0.863559 0.00642734 0)
(0.85723 0.00662288 0)
(0.850284 0.00546437 0)
(1.00327 0.0277916 0)
(1.03408 0.031038 0)
(1.04968 0.0222921 0)
(1.05268 0.0191254 0)
(1.05405 0.0173515 0)
(1.05597 0.0156092 0)
(1.05765 0.0143414 0)
(1.05881 0.0134647 0)
(1.05957 0.0127618 0)
(1.05997 0.0121552 0)
(1.05999 0.011628 0)
(1.0596 0.011165 0)
(1.0588 0.0107508 0)
(1.05759 0.0103744 0)
(1.05598 0.0100283 0)
(1.054 0.0097077 0)
(1.05167 0.00940891 0)
(1.04901 0.0091293 0)
(1.04605 0.00886686 0)
(1.04284 0.00862006 0)
(1.03939 0.00838766 0)
(1.03573 0.00816865 0)
(1.0319 0.00796219 0)
(1.02791 0.00776757 0)
(1.0238 0.00758417 0)
(1.01957 0.0074115 0)
(1.01526 0.00724915 0)
(1.01088 0.0070968 0)
(1.00644 0.00695423 0)
(1.00196 0.00682129 0)
(0.997451 0.00669797 0)
(0.992918 0.00658433 0)
(0.988371 0.00648062 0)
(0.983815 0.0063873 0)
(0.979257 0.00630488 0)
(0.974697 0.00623492 0)
(0.970142 0.00617747 0)
(0.965581 0.00613766 0)
(0.961026 0.00611152 0)
(0.956454 0.00611571 0)
(0.951881 0.00613014 0)
(0.947269 0.00620357 0)
(0.942635 0.00627168 0)
(0.937934 0.00644843 0)
(0.933158 0.00659434 0)
(0.928296 0.00687253 0)
(0.923245 0.0071388 0)
(0.918049 0.00728473 0)
(0.912364 0.00752398 0)
(0.905901 0.00670322 0)
(1.00292 0.0256561 0)
(1.03137 0.0299644 0)
(1.04668 0.0217524 0)
(1.04989 0.0187181 0)
(1.05124 0.0171313 0)
(1.05312 0.0154761 0)
(1.05483 0.0142243 0)
(1.05611 0.0133638 0)
(1.05711 0.0126846 0)
(1.05789 0.0121026 0)
(1.05847 0.0116007 0)
(1.05883 0.0111651 0)
(1.05894 0.0107806 0)
(1.05881 0.0104353 0)
(1.05842 0.0101213 0)
(1.05777 0.00983295 0)
(1.05687 0.00956622 0)
(1.05572 0.00931799 0)
(1.05433 0.00908591 0)
(1.05272 0.00886818 0)
(1.05089 0.00866341 0)
(1.04887 0.00847048 0)
(1.04666 0.00828851 0)
(1.04428 0.00811677 0)
(1.04175 0.00795469 0)
(1.03908 0.00780181 0)
(1.03628 0.0076578 0)
(1.03338 0.00752243 0)
(1.03037 0.0073956 0)
(1.02728 0.00727726 0)
(1.0241 0.00716753 0)
(1.02086 0.00706661 0)
(1.01756 0.0069749 0)
(1.0142 0.00689301 0)
(1.0108 0.0068216 0)
(1.00735 0.00676243 0)
(1.00385 0.00671575 0)
(1.00032 0.0066869 0)
(0.996745 0.00667232 0)
(0.993123 0.00668848 0)
(0.989459 0.00671722 0)
(0.985732 0.00680392 0)
(0.981949 0.00689315 0)
(0.978079 0.00708317 0)
(0.974119 0.00726369 0)
(0.970042 0.00755511 0)
(0.965797 0.00786867 0)
(0.961337 0.00806433 0)
(0.956428 0.00835825 0)
(0.950648 0.00786386 0)
(1.0026 0.0236273 0)
(1.02879 0.0288739 0)
(1.04376 0.0212336 0)
(1.0472 0.0183088 0)
(1.04856 0.0168976 0)
(1.0504 0.0153386 0)
(1.0521 0.0141048 0)
(1.05339 0.0132558 0)
(1.05442 0.0125934 0)
(1.05531 0.0120272 0)
(1.05606 0.0115396 0)
(1.05668 0.0111191 0)
(1.05716 0.0107511 0)
(1.0575 0.0104237 0)
(1.05769 0.010129 0)
(1.05772 0.00986107 0)
(1.0576 0.00961555 0)
(1.05731 0.0093891 0)
(1.05686 0.00917908 0)
(1.05625 0.00898347 0)
(1.05548 0.00880068 0)
(1.05455 0.0086294 0)
(1.05347 0.00846862 0)
(1.05225 0.0083175 0)
(1.05089 0.00817538 0)
(1.0494 0.00804175 0)
(1.04779 0.00791625 0)
(1.04607 0.00779864 0)
(1.04423 0.00768882 0)
(1.0423 0.00758679 0)
(1.04027 0.00749271 0)
(1.03815 0.00740686 0)
(1.03595 0.00732969 0)
(1.03368 0.00726196 0)
(1.03133 0.00720441 0)
(1.02891 0.00715898 0)
(1.02643 0.007126 0)
(1.02388 0.00711106 0)
(1.02126 0.00711094 0)
(1.01858 0.00714178 0)
(1.01582 0.00718749 0)
(1.01299 0.00728965 0)
(1.01008 0.00740198 0)
(1.00707 0.00760715 0)
(1.00396 0.00782196 0)
(1.00071 0.00813042 0)
(0.99731 0.00848745 0)
(0.993654 0.00874186 0)
(0.989573 0.00910111 0)
(0.984587 0.00891673 0)
(1.0023 0.021707 0)
(1.02633 0.0277672 0)
(1.04093 0.0207342 0)
(1.04459 0.017899 0)
(1.04597 0.0166492 0)
(1.04778 0.0151951 0)
(1.04948 0.013984 0)
(1.05076 0.0131455 0)
(1.05179 0.0124984 0)
(1.05267 0.0119453 0)
(1.05346 0.0114679 0)
(1.05415 0.0110567 0)
(1.05474 0.0106983 0)
(1.05525 0.0103812 0)
(1.05566 0.0100974 0)
(1.05599 0.0098413 0)
(1.05622 0.00960839 0)
(1.05635 0.0093953 0)
(1.05637 0.00919931 0)
(1.0563 0.00901829 0)
(1.05612 0.00885053 0)
(1.05584 0.00869462 0)
(1.05545 0.00854942 0)
(1.05495 0.00841401 0)
(1.05436 0.00828763 0)
(1.05366 0.00816969 0)
(1.05286 0.00805976 0)
(1.05196 0.00795754 0)
(1.05097 0.0078629 0)
(1.04989 0.00777583 0)
(1.04872 0.00769648 0)
(1.04747 0.00762517 0)
(1.04614 0.00756237 0)
(1.04473 0.00750892 0)
(1.04324 0.00746558 0)
(1.04167 0.00743447 0)
(1.04003 0.00741594 0)
(1.03832 0.00741578 0)
(1.03653 0.00743108 0)
(1.03466 0.00747749 0)
(1.03272 0.00754112 0)
(1.03069 0.00765947 0)
(1.02857 0.00779522 0)
(1.02635 0.00801639 0)
(1.02403 0.00826366 0)
(1.02156 0.00859193 0)
(1.01895 0.00898837 0)
(1.01608 0.00930694 0)
(1.01279 0.00974038 0)
(1.00861 0.00984522 0)
(1.00203 0.0198959 0)
(1.02401 0.0266476 0)
(1.0382 0.020251 0)
(1.04207 0.0174905 0)
(1.04347 0.0163862 0)
(1.04525 0.0150443 0)
(1.04695 0.0138612 0)
(1.04824 0.0130335 0)
(1.04925 0.0124016 0)
(1.05012 0.0118615 0)
(1.0509 0.0113933 0)
(1.05159 0.0109895 0)
(1.0522 0.010638 0)
(1.05275 0.0103277 0)
(1.05323 0.0100508 0)
(1.05365 0.00980167 0)
(1.05401 0.00957619 0)
(1.05431 0.00937096 0)
(1.05454 0.00918333 0)
(1.05472 0.00901116 0)
(1.05482 0.00885273 0)
(1.05486 0.00870663 0)
(1.05484 0.00857167 0)
(1.05474 0.00844689 0)
(1.05457 0.00833147 0)
(1.05433 0.00822477 0)
(1.05402 0.00812632 0)
(1.05364 0.00803577 0)
(1.05319 0.00795295 0)
(1.05267 0.00787783 0)
(1.05207 0.00781056 0)
(1.05141 0.00775145 0)
(1.05068 0.00770098 0)
(1.04988 0.00766006 0)
(1.04901 0.00762944 0)
(1.04808 0.00761139 0)
(1.04707 0.00760627 0)
(1.04599 0.00761997 0)
(1.04484 0.00764996 0)
(1.04362 0.00771119 0)
(1.04232 0.00779209 0)
(1.04093 0.00792591 0)
(1.03946 0.00808389 0)
(1.03789 0.00832077 0)
(1.03623 0.00859741 0)
(1.03443 0.00894697 0)
(1.03249 0.0093787 0)
(1.03029 0.00976351 0)
(1.0277 0.0102772 0)
(1.02426 0.0106472 0)
(1.00179 0.0181943 0)
(1.02183 0.0255187 0)
(1.03556 0.0197803 0)
(1.03963 0.0170852 0)
(1.04107 0.0161093 0)
(1.04281 0.0148854 0)
(1.04451 0.0137361 0)
(1.0458 0.0129195 0)
(1.0468 0.0123027 0)
(1.04766 0.0117764 0)
(1.04842 0.0113176 0)
(1.0491 0.010921 0)
(1.04971 0.0105757 0)
(1.05025 0.010271 0)
(1.05074 0.00999928 0)
(1.05118 0.00975521 0)
(1.05158 0.0095347 0)
(1.05193 0.00933451 0)
(1.05223 0.00915208 0)
(1.0525 0.00898535 0)
(1.05272 0.00883264 0)
(1.0529 0.00869258 0)
(1.05303 0.00856402 0)
(1.05312 0.00844599 0)
(1.05317 0.00833768 0)
(1.05316 0.00823845 0)
(1.05311 0.00814778 0)
(1.05301 0.00806533 0)
(1.05286 0.00799091 0)
(1.05265 0.00792449 0)
(1.0524 0.0078662 0)
(1.0521 0.00781639 0)
(1.05174 0.00777553 0)
(1.05132 0.00774461 0)
(1.05086 0.00772434 0)
(1.05033 0.00771715 0)
(1.04975 0.00772339 0)
(1.04911 0.007749 0)
(1.0484 0.0077919 0)
(1.04763 0.00786615 0)
(1.04679 0.00796259 0)
(1.04587 0.00811024 0)
(1.04488 0.00828816 0)
(1.04379 0.00853967 0)
(1.04262 0.00884184 0)
(1.04133 0.00921302 0)
(1.03991 0.00967618 0)
(1.03824 0.0101266 0)
(1.0362 0.0107236 0)
(1.03339 0.0113329 0)
(1.00157 0.0166019 0)
(1.01978 0.0243847 0)
(1.03302 0.0193179 0)
(1.03728 0.0166848 0)
(1.03875 0.0158197 0)
(1.04046 0.0147175 0)
(1.04215 0.0136083 0)
(1.04344 0.0128034 0)
(1.04444 0.0122018 0)
(1.04529 0.0116897 0)
(1.04604 0.0112411 0)
(1.0467 0.0108518 0)
(1.0473 0.0105126 0)
(1.04783 0.0102134 0)
(1.04831 0.00994655 0)
(1.04875 0.00970687 0)
(1.04914 0.00949044 0)
(1.0495 0.00929415 0)
(1.04982 0.00911553 0)
(1.05011 0.00895259 0)
(1.05037 0.00880375 0)
(1.05059 0.0086677 0)
(1.05078 0.00854332 0)
(1.05095 0.0084297 0)
(1.05108 0.00832604 0)
(1.05117 0.00823172 0)
(1.05124 0.00814624 0)
(1.05127 0.00806926 0)
(1.05126 0.00800061 0)
(1.05122 0.00794026 0)
(1.05114 0.00788836 0)
(1.05103 0.00784531 0)
(1.05087 0.00781156 0)
(1.05068 0.0077882 0)
(1.05044 0.00777594 0)
(1.05016 0.0077773 0)
(1.04983 0.00779271 0)
(1.04945 0.00782805 0)
(1.04902 0.00788176 0)
(1.04853 0.00796693 0)
(1.04798 0.00807675 0)
(1.04738 0.00823627 0)
(1.0467 0.00843141 0)
(1.04595 0.00869614 0)
(1.04512 0.00901991 0)
(1.04417 0.00941229 0)
(1.04312 0.00990365 0)
(1.04183 0.0104172 0)
(1.0402 0.0110978 0)
(1.03788 0.0119201 0)
(1.00137 0.0151178 0)
(1.01787 0.0232494 0)
(1.03059 0.01886 0)
(1.03502 0.0162908 0)
(1.03654 0.015519 0)
(1.03821 0.01454 0)
(1.03988 0.0134774 0)
(1.04118 0.0126853 0)
(1.04217 0.0120985 0)
(1.04301 0.0116015 0)
(1.04374 0.0111635 0)
(1.0444 0.0107818 0)
(1.04498 0.0104491 0)
(1.0455 0.0101555 0)
(1.04597 0.00989349 0)
(1.0464 0.00965813 0)
(1.04678 0.00944559 0)
(1.04713 0.00925287 0)
(1.04745 0.00907759 0)
(1.04773 0.00891785 0)
(1.04799 0.00877213 0)
(1.04823 0.00863918 0)
(1.04843 0.00851796 0)
(1.04862 0.00840758 0)
(1.04877 0.00830728 0)
(1.04891 0.00821648 0)
(1.04901 0.00813469 0)
(1.04909 0.00806161 0)
(1.04915 0.00799708 0)
(1.04918 0.0079411 0)
(1.04918 0.00789385 0)
(1.04915 0.00785576 0)
(1.04909 0.00782733 0)
(1.049 0.0078097 0)
(1.04888 0.00780362 0)
(1.04872 0.00781169 0)
(1.04852 0.00783444 0)
(1.04829 0.00787763 0)
(1.04801 0.00794032 0)
(1.04769 0.00803453 0)
(1.04731 0.00815571 0)
(1.04689 0.00832534 0)
(1.0464 0.00853511 0)
(1.04585 0.00881174 0)
(1.04523 0.00915365 0)
(1.04451 0.00956647 0)
(1.04369 0.0100836 0)
(1.04265 0.0106569 0)
(1.04131 0.0114192 0)
(1.03935 0.0124285 0)
(1.00119 0.0137403 0)
(1.0161 0.0221171 0)
(1.02827 0.0184028 0)
(1.03284 0.0159044 0)
(1.03441 0.0152087 0)
(1.03604 0.0143525 0)
(1.0377 0.013343 0)
(1.03901 0.0125651 0)
(1.03999 0.011993 0)
(1.04082 0.0115114 0)
(1.04154 0.0110847 0)
(1.04219 0.0107112 0)
(1.04276 0.0103851 0)
(1.04327 0.0100972 0)
(1.04373 0.00984025 0)
(1.04414 0.00960931 0)
(1.04451 0.0094007 0)
(1.04485 0.00921154 0)
(1.04516 0.00903953 0)
(1.04544 0.00888285 0)
(1.04569 0.00874004 0)
(1.04592 0.00860991 0)
(1.04612 0.00849146 0)
(1.0463 0.00838386 0)
(1.04646 0.00828639 0)
(1.0466 0.00819848 0)
(1.04671 0.00811969 0)
(1.04681 0.00804973 0)
(1.04688 0.00798847 0)
(1.04693 0.00793595 0)
(1.04696 0.00789236 0)
(1.04697 0.00785821 0)
(1.04695 0.00783401 0)
(1.0469 0.00782099 0)
(1.04683 0.00781993 0)
(1.04673 0.00783348 0)
(1.04659 0.00786235 0)
(1.04643 0.00791208 0)
(1.04622 0.0079824 0)
(1.04598 0.00808427 0)
(1.0457 0.00821523 0)
(1.04537 0.00839365 0)
(1.04498 0.00861593 0)
(1.04455 0.00890348 0)
(1.04405 0.00926084 0)
(1.04346 0.00969326 0)
(1.04278 0.0102346 0)
(1.0419 0.0108636 0)
(1.04075 0.0117038 0)
(1.03907 0.0128749 0)
(1.00104 0.0124672 0)
(1.01446 0.0209918 0)
(1.02606 0.017943 0)
(1.03075 0.0155264 0)
(1.03238 0.0148909 0)
(1.03397 0.0141545 0)
(1.03561 0.0132046 0)
(1.03692 0.0124431 0)
(1.03791 0.0118852 0)
(1.03872 0.0114193 0)
(1.03944 0.0110047 0)
(1.04007 0.0106397 0)
(1.04063 0.0103204 0)
(1.04113 0.0100385 0)
(1.04158 0.00978678 0)
(1.04198 0.00956041 0)
(1.04234 0.00935586 0)
(1.04267 0.00917035 0)
(1.04296 0.00900167 0)
(1.04323 0.00884807 0)
(1.04348 0.00870816 0)
(1.04369 0.00858081 0)
(1.04389 0.00846507 0)
(1.04406 0.00836014 0)
(1.04422 0.00826533 0)
(1.04435 0.00818011 0)
(1.04446 0.00810406 0)
(1.04456 0.00803692 0)
(1.04463 0.00797858 0)
(1.04468 0.00792912 0)
(1.04472 0.00788876 0)
(1.04473 0.00785805 0)
(1.04472 0.00783755 0)
(1.04469 0.00782855 0)
(1.04463 0.00783189 0)
(1.04455 0.00785024 0)
(1.04444 0.0078845 0)
(1.0443 0.00794 0)
(1.04413 0.00801712 0)
(1.04393 0.0081258 0)
(1.04368 0.00826545 0)
(1.0434 0.00845185 0)
(1.04307 0.00868509 0)
(1.04269 0.00898292 0)
(1.04226 0.00935386 0)
(1.04175 0.00980512 0)
(1.04114 0.0103697 0)
(1.04037 0.0110504 0)
(1.03935 0.0119632 0)
(1.03788 0.0132716 0)
(1.0009 0.0112957 0)
(1.01295 0.0198782 0)
(1.02396 0.0174774 0)
(1.02874 0.0151573 0)
(1.03045 0.0145676 0)
(1.03199 0.0139458 0)
(1.03361 0.0130616 0)
(1.03492 0.012319 0)
(1.03591 0.0117751 0)
(1.03671 0.0113252 0)
(1.03742 0.0109233 0)
(1.03804 0.0105672 0)
(1.0386 0.010255 0)
(1.03908 0.00997931 0)
(1.03952 0.00973302 0)
(1.03991 0.00951139 0)
(1.04026 0.00931102 0)
(1.04058 0.00912928 0)
(1.04087 0.00896403 0)
(1.04113 0.0088136 0)
(1.04136 0.00867667 0)
(1.04157 0.00855215 0)
(1.04176 0.00843914 0)
(1.04192 0.0083369 0)
(1.04207 0.00824476 0)
(1.04219 0.00816221 0)
(1.0423 0.00808885 0)
(1.04238 0.00802446 0)
(1.04245 0.00796894 0)
(1.0425 0.00792241 0)
(1.04253 0.00788513 0)
(1.04254 0.00785769 0)
(1.04253 0.00784069 0)
(1.0425 0.00783546 0)
(1.04244 0.00784294 0)
(1.04237 0.00786577 0)
(1.04226 0.00790508 0)
(1.04213 0.00796594 0)
(1.04197 0.00804938 0)
(1.04178 0.00816443 0)
(1.04156 0.00831205 0)
(1.04129 0.00850598 0)
(1.04099 0.00874909 0)
(1.04064 0.00905684 0)
(1.04024 0.00944011 0)
(1.03978 0.00990946 0)
(1.03922 0.0104965 0)
(1.03851 0.0112246 0)
(1.03759 0.0122037 0)
(1.0363 0.0136261 0)
(1.00078 0.0102221 0)
(1.01156 0.0187805 0)
(1.02198 0.0170034 0)
(1.02683 0.014797 0)
(1.0286 0.0142409 0)
(1.03011 0.0137264 0)
(1.0317 0.0129132 0)
(1.03301 0.0121929 0)
(1.034 0.0116627 0)
(1.0348 0.0112289 0)
(1.0355 0.0108403 0)
(1.03611 0.0104937 0)
(1.03665 0.0101889 0)
(1.03713 0.0099196 0)
(1.03756 0.00967891 0)
(1.03794 0.00946218 0)
(1.03828 0.00926615 0)
(1.03859 0.0090883 0)
(1.03887 0.00892659 0)
(1.03912 0.00877942 0)
(1.03934 0.00864555 0)
(1.03954 0.00852394 0)
(1.03972 0.00841374 0)
(1.03988 0.00831424 0)
(1.04001 0.00822482 0)
(1.04013 0.00814499 0)
(1.04023 0.00807436 0)
(1.04031 0.00801274 0)
(1.04037 0.00796006 0)
(1.04041 0.00791647 0)
(1.04043 0.00788225 0)
(1.04044 0.00785804 0)
(1.04042 0.0078445 0)
(1.04039 0.00784297 0)
(1.04033 0.0078545 0)
(1.04025 0.0078817 0)
(1.04015 0.00792593 0)
(1.04002 0.00799198 0)
(1.03986 0.00808149 0)
(1.03968 0.00820267 0)
(1.03946 0.00835781 0)
(1.0392 0.00855904 0)
(1.03891 0.00881126 0)
(1.03858 0.00912867 0)
(1.0382 0.00952346 0)
(1.03776 0.01001 0)
(1.03724 0.0106188 0)
(1.03659 0.0113898 0)
(1.03575 0.0124275 0)
(1.03463 0.013941 0)
(1.00067 0.00924246 0)
(1.0103 0.0177032 0)
(1.02011 0.0165187 0)
(1.02499 0.0144455 0)
(1.02684 0.0139129 0)
(1.02832 0.0134965 0)
(1.02988 0.012759 0)
(1.03119 0.0120646 0)
(1.03218 0.0115481 0)
(1.03297 0.0111303 0)
(1.03366 0.0107557 0)
(1.03427 0.0104191 0)
(1.0348 0.010122 0)
(1.03527 0.00985926 0)
(1.03569 0.00962437 0)
(1.03606 0.00941273 0)
(1.0364 0.00922119 0)
(1.0367 0.00904735 0)
(1.03696 0.00888929 0)
(1.0372 0.00874549 0)
(1.03742 0.00861476 0)
(1.03761 0.00849615 0)
(1.03778 0.00838885 0)
(1.03793 0.00829218 0)
(1.03806 0.00820555 0)
(1.03817 0.00812849 0)
(1.03826 0.00806066 0)
(1.03833 0.00800187 0)
(1.03838 0.00795208 0)
(1.03842 0.00791147 0)
(1.03844 0.00788036 0)
(1.03844 0.00785941 0)
(1.03842 0.00784934 0)
(1.03838 0.00785153 0)
(1.03831 0.00786711 0)
(1.03823 0.00789865 0)
(1.03813 0.00794773 0)
(1.03799 0.00801891 0)
(1.03784 0.00811434 0)
(1.03765 0.00824154 0)
(1.03744 0.00840386 0)
(1.03719 0.00861225 0)
(1.03691 0.008873 0)
(1.03659 0.0091998 0)
(1.03622 0.0096055 0)
(1.03581 0.0101083 0)
(1.03531 0.0107378 0)
(1.03471 0.0115466 0)
(1.03395 0.0126343 0)
(1.03299 0.0142169 0)
(1.00058 0.00835211 0)
(1.00916 0.0166507 0)
(1.01835 0.0160217 0)
(1.02324 0.014102 0)
(1.02517 0.0135854 0)
(1.02662 0.0132568 0)
(1.02815 0.0125983 0)
(1.02945 0.0119339 0)
(1.03045 0.0114313 0)
(1.03123 0.0110293 0)
(1.03191 0.0106692 0)
(1.03251 0.0103433 0)
(1.03304 0.0100542 0)
(1.0335 0.00979821 0)
(1.03391 0.00956933 0)
(1.03428 0.00936295 0)
(1.0346 0.00917605 0)
(1.03489 0.00900636 0)
(1.03515 0.00885207 0)
(1.03539 0.00871175 0)
(1.03559 0.00858428 0)
(1.03578 0.00846876 0)
(1.03594 0.00836443 0)
(1.03608 0.00827067 0)
(1.0362 0.0081869 0)
(1.0363 0.0081127 0)
(1.03639 0.00804773 0)
(1.03645 0.00799184 0)
(1.0365 0.007945 0)
(1.03653 0.00790743 0)
(1.03654 0.00787947 0)
(1.03653 0.00786184 0)
(1.03651 0.00785529 0)
(1.03646 0.00786123 0)
(1.0364 0.00788088 0)
(1.03631 0.00791677 0)
(1.0362 0.00797069 0)
(1.03607 0.00804696 0)
(1.03591 0.00814819 0)
(1.03573 0.00828134 0)
(1.03551 0.00845055 0)
(1.03527 0.00866595 0)
(1.035 0.00893477 0)
(1.03469 0.00927058 0)
(1.03434 0.00968661 0)
(1.03394 0.0102045 0)
(1.03348 0.0108531 0)
(1.03292 0.0116944 0)
(1.03225 0.0128225 0)
(1.03144 0.0144528 0)
(1.0005 0.00754603 0)
(1.00813 0.0156271 0)
(1.0167 0.0155113 0)
(1.02158 0.0137656 0)
(1.02359 0.0132603 0)
(1.02501 0.0130081 0)
(1.0265 0.0124306 0)
(1.0278 0.0118005 0)
(1.02879 0.0113124 0)
(1.02958 0.0109259 0)
(1.03025 0.0105808 0)
(1.03084 0.010266 0)
(1.03136 0.0099853 0)
(1.03182 0.00973638 0)
(1.03222 0.0095137 0)
(1.03258 0.00931278 0)
(1.0329 0.00913069 0)
(1.03318 0.00896528 0)
(1.03343 0.00881488 0)
(1.03366 0.00867815 0)