/*--------------------------------*- C++ -*----------------------------------*\
  =========                 |
  \\      /  F ield         | OpenFOAM: The Open Source CFD Toolbox
   \\    /   O peration     | Website:  https://openfoam.org
    \\  /    A nd           | Version:  7
     \\/     M anipulation  |
\*---------------------------------------------------------------------------*/
FoamFile
{
    version     2.0;
    format      ascii;
    class       volScalarField;
    location    "0.37";
    object      yPlus;
}
// * * * * * * * * * * * * * * * * * * * * * * * * * * * * * * * * * * * * * //

dimensions      [0 0 0 0 0 0 0];

internalField   uniform 0;

boundaryField
{
    velocityInlet
    {
        type            calculated;
        value           uniform 0;
    }
    pressureOutlet
    {
        type            calculated;
        value           uniform 0;
    }
    fixedWalls
    {
        type            calculated;
        value           nonuniform List<scalar> 
100
(
2.06665
0.875281
0.543094
0.170817
0.506703
0.482018
0.567958
0.619159
0.739966
0.891437
1.05443
1.18631
1.24631
1.15683
0.664028
1.02587
1.5996
1.8601
1.85255
1.61754
1.21795
0.65622
0.584539
0.904627
1.11556
1.30438
1.39788
1.33866
1.14059
0.899217
0.72412
0.626631
0.548512
0.431969
0.18893
0.372717
0.543173
0.636591
0.66832
0.642736
0.559582
0.410672
0.0945896
0.392133
0.543362
0.64213
0.710174
0.757513
0.789949
0.810785
0.8217
0.82355
0.817136
0.803789
0.785566
0.765072
0.744974
0.727442
0.71367
0.703537
0.695367
0.68588
0.670522
0.644109
0.601556
0.53873
0.454671
0.356888
0.273807
0.265491
0.347317
0.460747
0.566469
0.650146
0.70864
0.744103
0.761084
0.764764
0.760083
0.751251
0.741252
0.731456
0.72104
0.706584
0.682568
0.643931
0.589989
0.5276
0.471871
0.440422
0.446184
0.481045
0.537956
0.592966
0.65724
0.698877
0.756217
0.782641
0.821794
0.862846
)
;
    }
    bottomWall
    {
        type            calculated;
        value           nonuniform List<scalar> 
800
(
2.94479
1.98392
1.61348
1.44042
1.35535
1.29679
1.24792
1.2069
1.17244
1.14296
1.11725
1.09451
1.07419
1.05588
1.03927
1.02411
1.01019
0.99735
0.985463
0.974415
0.964111
0.954474
0.945434
0.936934
0.928924
0.92136
0.914202
0.907417
0.900975
0.894849
0.889015
0.883452
0.878139
0.873061
0.868201
0.863546
0.859081
0.854796
0.85068
0.846721
0.842912
0.839243
0.835709
0.832299
0.829009
0.825831
0.82276
0.819794
0.816921
0.814144
0.811813
0.809884
0.807975
0.806089
0.804228
0.802392
0.800576
0.798784
0.797012
0.795261
0.793532
0.791822
0.790132
0.788462
0.786809
0.785176
0.783561
0.781964
0.780384
0.778821
0.777275
0.775745
0.774232
0.772733
0.771251
0.769784
0.768331
0.766894
0.76547
0.764061
0.762665
0.761283
0.759914
0.758558
0.757216
0.755886
0.754568
0.753262
0.751969
0.750688
0.749417
0.748159
0.746911
0.745675
0.744449
0.743234
0.74203
0.740836
0.739652
0.738478
0.737314
0.736161
0.735015
0.73388
0.732754
0.731637
0.730528
0.72943
0.728339
0.727257
0.726183
0.725118
0.724062
0.723013
0.721972
0.720939
0.719914
0.718896
0.717887
0.716884
0.715889
0.714901
0.71392
0.712947
0.71198
0.71102
0.710068
0.709122
0.708183
0.70725
0.706324
0.705404
0.70449
0.703583
0.702682
0.701786
0.700898
0.700015
0.699139
0.698267
0.697402
0.696543
0.695689
0.694841
0.693997
0.693161
0.692329
0.691502
0.690682
0.689866
0.68918
0.68862
0.688057
0.687493
0.686928
0.686361
0.685792
0.685222
0.684652
0.68408
0.683506
0.68293
0.682354
0.681776
0.681198
0.680617
0.680035
0.679452
0.678868
0.678283
0.677696
0.677109
0.67652
0.675929
0.675338
0.674745
0.674152
0.673557
0.67296
0.672363
0.671765
0.671165
0.670565
0.669963
0.669361
0.668757
0.668153
0.667548
0.666941
0.666333
0.665724
0.665115
0.664504
0.663892
0.66328
0.662667
0.662053
0.661438
0.660822
0.660204
0.659587
0.658968
0.658349
0.657727
0.657107
0.656484
0.655861
0.655236
0.654612
0.653986
0.65336
0.652732
0.652103
0.651475
0.650845
0.650214
0.649583
0.648949
0.648317
0.647682
0.647047
0.646411
0.645774
0.645137
0.644498
0.643858
0.643217
0.642576
0.641934
0.641289
0.640645
0.639998
0.639352
0.638701
0.638056
0.637396
0.636753
0.636083
0.635451
0.634755
0.634148
0.633404
0.632855
0.632018
0.631581
0.630579
0.630343
0.629082
0.629134
0.627532
2.94478
1.98385
1.61329
1.44007
1.35481
1.29604
1.24693
1.20564
1.17089
1.1411
1.11506
1.09198
1.07129
1.05261
1.0356
1.02003
1.00568
0.992394
0.98004
0.968504
0.957691
0.947519
0.937919
0.928831
0.920202
0.911983
0.904133
0.896614
0.889392
0.882431
0.875704
0.869178
0.862826
0.856616
0.85052
0.8445
0.838531
0.832561
0.826558
0.820476
0.814215
0.80788
0.80097
0.794504
0.786068
0.780711
0.768651
0.768954
0.751842
0.740081
0.4421
0.916102
1.19093
1.3016
1.38751
1.50211
1.64888
1.80935
1.96744
2.11522
2.251
2.37588
2.49178
2.60047
2.70337
2.80148
2.89542
2.98511
3.06892
3.1424
3.1991
3.22726
3.2143
3.14796
3.01514
2.80694
2.50951
2.08792
1.49509
1.21862
1.80666
2.30564
2.67643
2.93825
3.10549
3.19657
3.21617
3.16929
3.0607
2.89282
2.66577
2.37602
2.01269
1.54984
0.984799
1.22953
1.76255
2.16834
2.49259
2.76379
2.99295
3.1867
3.35025
3.48693
3.59876
3.68675
3.75139
3.79265
3.80894
3.79919
3.76405
3.70326
3.61538
3.49396
3.33159
3.11909
2.85748
2.5676
2.2941
2.06133
1.88519
1.76893
1.70268
1.66652
1.63935
1.61743
1.61934
1.67153
1.77357
1.9024
2.03819
2.17228
2.3001
2.41795
2.52032
2.60386
2.66957
2.71855
2.74909
2.75676
2.7386
2.69406
2.62522
2.53369
2.41769
2.27175
2.08912
1.86644
1.60789
1.33271
1.12336
1.14577
1.32151
1.49328
1.62245
1.70723
1.75262
1.7644
1.74861
1.71172
1.66078
1.60299
1.54562
1.49532
1.45717
1.43422
1.42706
1.43424
1.45243
1.47687
1.50284
1.52713
1.54898
1.57207
1.60158
1.64395
1.70412
1.78404
1.88281
1.99891
2.13421
2.29651
2.49579
2.73409
2.99969
3.27184
3.53159
3.76835
3.98003
4.16845
4.33556
4.48273
4.61114
4.72189
4.81606
4.89469
4.95878
5.00932
5.04725
5.07344
5.0887
5.09371
5.08924
5.07693
5.05697
5.02976
4.99578
4.95531
4.90867
4.85607
4.7977
4.73362
4.66391
4.58856
4.5075
4.42064
4.32782
4.22884
4.12348
4.01147
3.89254
3.76639
3.63267
3.49099
3.34947
3.20338
3.04793
2.88215
2.70531
2.51724
2.31882
2.11289
1.90564
1.70941
1.5459
1.44222
1.41595
1.45502
1.51772
1.58012
1.63015
1.66324
1.67727
1.67161
1.66873
1.62807
1.5752
1.56764
1.67793
2.00615
0.391285
0.93187
1.1815
1.2349
1.19018
1.13594
1.10895
1.06348
0.94342
0.793155
0.714329
0.636899
0.673781
0.901178
1.16536
1.43564
1.69012
1.922
2.1218
2.27993
2.38808
2.4405
2.439
2.38549
2.26369
2.06833
1.78307
1.45244
1.15351
0.84665
0.48462
1.22636
1.60141
1.65584
1.47372
1.86827
2.65844
3.30617
3.76687
4.10858
4.38379
4.60093
4.76833
4.90033
5.00552
5.09273
5.17001
5.24431
5.32042
5.4004
5.48391
5.56905
5.65147
5.72557
5.78386
5.8193
5.82071
5.77751
5.68475
5.53315
5.31219
5.01023
4.61285
4.09979
3.43689
2.57397
1.92318
2.8227
3.77449
4.56147
5.22392
5.78378
6.25075
6.62994
6.92594
7.14509
7.29641
7.39119
7.44172
7.45983
7.45405
7.42831
7.37997
7.29951
7.17061
6.96671
6.65275
6.18492
5.51289
4.60226
3.10073
1.48827
2.66419
2.4359
1.99738
1.78595
1.82531
1.76052
1.42289
0.634176
0.716536
1.4255
2.18689
2.81407
2.9706
2.62705
1.96203
1.08726
1.84965
2.38286
2.60011
2.56739
2.27761
1.64032
1.07177
1.82227
2.16726
2.2953
2.28917
2.28937
2.36238
2.52084
2.72855
2.93407
3.09231
3.17496
3.17781
3.11103
2.98598
2.79857
2.53014
2.14834
1.60205
1.05566
1.64318
2.14902
2.45115
2.60772
2.65703
2.65025
2.59102
2.51111
2.41434
2.25325
1.95842
1.6741
2.08926
2.57624
2.8272
2.851
2.59504
2.04865
1.36701
2.46758
3.09545
3.55336
3.94656
4.29233
4.55864
4.7754
4.94922
5.09095
5.20732
5.30399
5.38512
5.45387
5.51294
5.56437
5.61
5.65116
5.68897
5.72439
5.75829
5.79138
5.8243
5.85757
5.89165
5.92686
5.96349
6.00167
6.04142
6.08265
6.12514
6.16873
6.21275
6.2566
6.29963
6.34122
6.38079
6.41786
6.45211
6.48339
6.51171
6.53724
6.56028
6.5812
6.60042
6.61838
6.6355
6.65211
6.6685
6.68487
6.70131
6.71783
6.73435
6.75069
6.76664
6.7819
6.79618
6.80916
6.82056
6.83012
6.83767
6.84309
6.84637
6.84752
6.84653
6.84376
6.83936
6.83341
6.82617
6.81777
6.8084
6.79822
6.78737
6.77596
6.7641
6.75185
6.73928
6.72643
6.7133
6.69992
6.68626
6.6723
6.65801
6.64335
6.62826
6.61269
6.59656
6.5798
6.56233
6.54408
6.52496
6.50488
6.48374
6.46147
6.43797
6.41313
6.38686
6.35906
6.32963
6.29847
6.26545
6.2305
6.19347
6.15427
6.11276
6.06884
6.02237
5.9732
5.92121
5.86624
5.80812
5.74669
5.68177
5.61316
5.54064
5.46399
5.38294
5.29724
5.20657
5.11063
5.00905
4.90144
4.78741
4.66651
4.53833
4.40246
4.25851
4.1073
3.96744
3.82236
3.67288
3.52192
3.37717
3.25334
3.17401
3.16617
3.24612
3.41067
3.63819
3.90769
4.20551
4.53932
4.89604
5.25784
5.65043
6.01057
6.47341
6.72517
)
;
    }
    frontAndBack
    {
        type            empty;
    }
}


// ************************************************************************* //
