/*--------------------------------*- C++ -*----------------------------------*\
  =========                 |
  \\      /  F ield         | OpenFOAM: The Open Source CFD Toolbox
   \\    /   O peration     | Website:  https://openfoam.org
    \\  /    A nd           | Version:  7
     \\/     M anipulation  |
\*---------------------------------------------------------------------------*/
FoamFile
{
    version     2.0;
    format      ascii;
    class       volVectorField;
    location    "0.25";
    object      ddt0(U);
}
// * * * * * * * * * * * * * * * * * * * * * * * * * * * * * * * * * * * * * //

dimensions      [0 1 -2 0 0 0 0];

internalField   nonuniform List<vector> 
70000
(
(-0.000597708 4.05133e-05 0)
(-0.00358034 5.24828e-05 0)
(-0.00682993 4.97123e-05 0)
(-0.0091334 4.31533e-05 0)
(-0.0104591 4.00444e-05 0)
(-0.011019 3.66426e-05 0)
(-0.0110437 3.38281e-05 0)
(-0.0108524 3.18698e-05 0)
(-0.0107302 3.12623e-05 0)
(-0.0108596 3.21601e-05 0)
(-0.0113222 3.42431e-05 0)
(-0.012111 3.7253e-05 0)
(-0.0131539 4.04211e-05 0)
(-0.0143431 4.32417e-05 0)
(-0.0155615 4.5271e-05 0)
(-0.0167115 4.66057e-05 0)
(-0.0177185 4.7368e-05 0)
(-0.0185385 4.7725e-05 0)
(-0.0191462 4.81866e-05 0)
(-0.0195293 4.86736e-05 0)
(-0.0196792 4.95211e-05 0)
(-0.0195796 5.04085e-05 0)
(-0.0192106 5.13811e-05 0)
(-0.0185455 5.23276e-05 0)
(-0.0175505 5.3152e-05 0)
(-0.0161911 5.37281e-05 0)
(-0.0144258 5.44404e-05 0)
(-0.0122135 5.49348e-05 0)
(-0.00950967 5.595e-05 0)
(-0.00626536 5.72994e-05 0)
(-0.00243128 5.95711e-05 0)
(0.00204889 6.2773e-05 0)
(0.0072208 6.85474e-05 0)
(0.013154 7.55666e-05 0)
(0.0198285 8.93418e-05 0)
(0.0273872 0.000103503 0)
(0.0355588 0.000133931 0)
(0.0447133 0.000162142 0)
(0.0538845 0.000226933 0)
(0.0639957 0.000286144 0)
(0.0725791 0.000415967 0)
(0.0813815 0.000549789 0)
(0.0854392 0.00079818 0)
(0.0868134 0.00105917 0)
(0.0760165 0.00174634 0)
(0.0576982 0.00222792 0)
(-0.00370325 0.00406137 0)
(-0.04673 0.00389155 0)
(-0.343539 0.00844619 0)
(-0.176662 0.0243909 0)
(-0.000423415 0.000195074 0)
(-0.00557493 0.00033179 0)
(-0.0123451 0.000296092 0)
(-0.0166893 0.000181634 0)
(-0.0177836 7.26788e-05 0)
(-0.0162862 -7.71207e-06 0)
(-0.013029 -5.23753e-05 0)
(-0.00904057 -5.87072e-05 0)
(-0.0052527 -3.52644e-05 0)
(-0.00226448 5.12092e-06 0)
(-0.000320908 5.00699e-05 0)
(0.000631892 8.97409e-05 0)
(0.00085194 0.000117123 0)
(0.000691805 0.000129132 0)
(0.00050595 0.000125994 0)
(0.000582983 0.000110633 0)
(0.00113413 8.63867e-05 0)
(0.00229252 5.61948e-05 0)
(0.00414248 2.25402e-05 0)
(0.00674292 -1.40885e-05 0)
(0.0101484 -5.36708e-05 0)
(0.0144278 -9.75545e-05 0)
(0.0196574 -0.000146663 0)
(0.025927 -0.000202042 0)
(0.033338 -0.000265018 0)
(0.0419977 -0.000336541 0)
(0.0520302 -0.000417081 0)
(0.0635683 -0.000508404 0)
(0.076768 -0.000610591 0)
(0.091807 -0.000725705 0)
(0.108889 -0.000854525 0)
(0.128255 -0.000999319 0)
(0.15015 -0.00115871 0)
(0.174925 -0.00133701 0)
(0.202743 -0.00152506 0)
(0.234255 -0.00173416 0)
(0.26911 -0.00193021 0)
(0.308784 -0.00214255 0)
(0.35131 -0.00228411 0)
(0.400107 -0.00241921 0)
(0.449562 -0.00234887 0)
(0.506239 -0.00218371 0)
(0.558572 -0.00152805 0)
(0.615639 -0.000519617 0)
(0.656061 0.00177786 0)
(0.69738 0.00511088 0)
(0.658754 0.0114586 0)
(0.70108 0.0235145 0)
(0.209979 0.0345062 0)
(0.633349 0.133376 0)
(4.0655e-06 0.000373295 0)
(-0.0049434 0.000728355 0)
(-0.0131251 0.000684468 0)
(-0.0192298 0.000358274 0)
(-0.0205622 -2.53684e-06 0)
(-0.0172811 -0.000281017 0)
(-0.0105468 -0.000443563 0)
(-0.00199813 -0.00048109 0)
(0.00674021 -0.00041906 0)
(0.014495 -0.000299961 0)
(0.0206801 -0.000165723 0)
(0.0252463 -4.92304e-05 0)
(0.0285303 2.78929e-05 0)
(0.0310639 5.73203e-05 0)
(0.0334055 4.1251e-05 0)
(0.0360264 -1.13992e-05 0)
(0.0392807 -9.07891e-05 0)
(0.0434086 -0.000188993 0)
(0.048578 -0.000300038 0)
(0.054921 -0.000423008 0)
(0.0625621 -0.000558182 0)
(0.0716386 -0.00070851 0)
(0.0822914 -0.000876133 0)
(0.0946714 -0.00106352 0)
(0.108936 -0.0012735 0)
(0.125248 -0.00150899 0)
(0.143788 -0.00177204 0)
(0.164754 -0.0020681 0)
(0.188382 -0.0024 0)
(0.214951 -0.00277486 0)
(0.244787 -0.00319817 0)
(0.278288 -0.0036785 0)
(0.315873 -0.00421987 0)
(0.358154 -0.00483367 0)
(0.405476 -0.00551587 0)
(0.458984 -0.00628292 0)
(0.518332 -0.00710157 0)
(0.586061 -0.00799926 0)
(0.659582 -0.00887665 0)
(0.744605 -0.00978815 0)
(0.833482 -0.0104551 0)
(0.93709 -0.0109962 0)
(1.03966 -0.0107279 0)
(1.15713 -0.00971252 0)
(1.25973 -0.00686121 0)
(1.38092 -6.82182e-05 0)
(1.403 0.00772446 0)
(1.57378 0.0372999 0)
(1.07874 0.0583823 0)
(1.67398 0.226837 0)
(0.000191444 0.000503818 0)
(-0.00356482 0.00112518 0)
(-0.0114864 0.00116993 0)
(-0.0190521 0.000654147 0)
(-0.0221773 -4.33134e-05 0)
(-0.0195234 -0.000655135 0)
(-0.0116393 -0.00106217 0)
(-0.000221849 -0.00121955 0)
(0.0126371 -0.00115885 0)
(0.0251399 -0.000958029 0)
(0.0361391 -0.000704271 0)
(0.0452089 -0.000470488 0)
(0.0525132 -0.000306224 0)
(0.0585743 -0.000232899 0)
(0.0640371 -0.000248975 0)
(0.0694995 -0.000338986 0)
(0.0754448 -0.000484599 0)
(0.0822303 -0.000671181 0)
(0.0901309 -0.000888254 0)
(0.0993801 -0.00113395 0)
(0.110199 -0.00140883 0)
(0.122819 -0.00171715 0)
(0.137463 -0.00206191 0)
(0.154356 -0.00244656 0)
(0.173712 -0.00287493 0)
(0.195739 -0.00335189 0)
(0.220657 -0.00388143 0)
(0.2487 -0.00447357 0)
(0.280143 -0.00513554 0)
(0.315315 -0.00588162 0)
(0.354607 -0.00672498 0)
(0.398511 -0.00768316 0)
(0.447539 -0.00877102 0)
(0.502486 -0.0100081 0)
(0.563786 -0.0114075 0)
(0.63296 -0.0129844 0)
(0.70962 -0.0147364 0)
(0.797115 -0.016663 0)
(0.892415 -0.0187121 0)
(1.00286 -0.0208683 0)
(1.11959 -0.0228795 0)
(1.25645 -0.0247594 0)
(1.39509 -0.0257333 0)
(1.557 -0.0254895 0)
(1.70535 -0.023336 0)
(1.88987 -0.0134444 0)
(1.96384 -0.00600801 0)
(2.22792 0.0426681 0)
(1.8263 0.0687061 0)
(2.40632 0.308442 0)
(0.00011972 0.000588579 0)
(-0.00251226 0.00146394 0)
(-0.0092316 0.00167523 0)
(-0.0173893 0.00107375 0)
(-0.0229384 6.65505e-05 0)
(-0.0232181 -0.000946703 0)
(-0.0174223 -0.00172212 0)
(-0.00640997 -0.00213294 0)
(0.00792609 -0.00218024 0)
(0.0234769 -0.00195959 0)
(0.0385262 -0.001604 0)
(0.0520573 -0.00123814 0)
(0.0637658 -0.000954299 0)
(0.0738797 -0.000799724 0)
(0.0829092 -0.000781993 0)
(0.0914333 -0.000883407 0)
(0.0999834 -0.00107855 0)
(0.108997 -0.00134637 0)
(0.118847 -0.00167198 0)
(0.129876 -0.00205273 0)
(0.142419 -0.0024896 0)
(0.156825 -0.00298794 0)
(0.173434 -0.00355097 0)
(0.19257 -0.00418208 0)
(0.214536 -0.00488473 0)
(0.239601 -0.0056646 0)
(0.268032 -0.00652683 0)
(0.300089 -0.00748563 0)
(0.336063 -0.0085532 0)
(0.376302 -0.00975167 0)
(0.421205 -0.011104 0)
(0.471299 -0.012638 0)
(0.527109 -0.014384 0)
(0.589531 -0.0163695 0)
(0.658986 -0.0186346 0)
(0.737235 -0.0211875 0)
(0.823791 -0.0240768 0)
(0.922497 -0.027257 0)
(1.03003 -0.0307622 0)
(1.15465 -0.0344738 0)
(1.28687 -0.0382312 0)
(1.44214 -0.0418715 0)
(1.60063 -0.0446957 0)
(1.78782 -0.045724 0)
(1.96122 -0.0452428 0)
(2.18207 -0.0333395 0)
(2.29291 -0.02668 0)
(2.58824 0.0377567 0)
(2.32528 0.078647 0)
(2.77151 0.361572 0)
(-2.84791e-05 0.000658459 0)
(-0.00207102 0.0017374 0)
(-0.00748345 0.00214679 0)
(-0.0153376 0.00157874 0)
(-0.0227225 0.000375867 0)
(-0.0266622 -0.00100116 0)
(-0.0251753 -0.00219918 0)
(-0.0177775 -0.00298549 0)
(-0.00539331 -0.00328749 0)
(0.0102241 -0.00317772 0)
(0.0271701 -0.00281067 0)
(0.0439161 -0.00235664 0)
(0.0595526 -0.00195736 0)
(0.0737719 -0.00169833 0)
(0.0866936 -0.00160883 0)
(0.0986588 -0.00167866 0)
(0.110084 -0.00188151 0)
(0.121375 -0.00219366 0)
(0.132928 -0.00259833 0)
(0.145145 -0.00309393 0)
(0.158453 -0.00368346 0)
(0.173319 -0.00437439 0)
(0.19021 -0.00517033 0)
(0.20959 -0.00607393 0)
(0.231888 -0.00708677 0)
(0.25748 -0.00821337 0)
(0.286715 -0.00945807 0)
(0.319908 -0.0108374 0)
(0.357376 -0.0123675 0)
(0.399477 -0.0140774 0)
(0.446596 -0.0160005 0)
(0.499258 -0.0181746 0)
(0.557945 -0.0206483 0)
(0.623581 -0.023456 0)
(0.696513 -0.0266716 0)
(0.778602 -0.0302924 0)
(0.869252 -0.0344291 0)
(0.972494 -0.0389845 0)
(1.0849 -0.0440952 0)
(1.21495 -0.0495267 0)
(1.35313 -0.0552467 0)
(1.51528 -0.0608528 0)
(1.68119 -0.065887 0)
(1.87783 -0.0683989 0)
(2.06153 -0.0702235 0)
(2.29326 -0.0564747 0)
(2.43163 -0.051003 0)
(2.71076 0.0243208 0)
(2.58188 0.0897492 0)
(2.88932 0.39609 0)
(-0.000130721 0.000729216 0)
(-0.00204296 0.00196804 0)
(-0.00659582 0.00256756 0)
(-0.0137221 0.00211802 0)
(-0.0218854 0.000858276 0)
(-0.0287124 -0.000764006 0)
(-0.0318411 -0.00234202 0)
(-0.0296949 -0.00355344 0)
(-0.0219302 -0.00423298 0)
(-0.00934876 -0.00439002 0)
(0.00655299 -0.00415989 0)
(0.024146 -0.00373103 0)
(0.0420909 -0.00328381 0)
(0.0595245 -0.00294436 0)
(0.0760383 -0.00277304 0)
(0.0915517 -0.00277823 0)
(0.106183 -0.00294222 0)
(0.120144 -0.00324561 0)
(0.133715 -0.00367503 0)
(0.147247 -0.0042342 0)
(0.161168 -0.00493207 0)
(0.175995 -0.00578175 0)
(0.192296 -0.00678991 0)
(0.210667 -0.00795973 0)
(0.231692 -0.00929073 0)
(0.255899 -0.0107847 0)
(0.283771 -0.0124428 0)
(0.315731 -0.014281 0)
(0.352164 -0.0163168 0)
(0.393469 -0.0185833 0)
(0.440027 -0.0211232 0)
(0.492357 -0.0239821 0)
(0.550876 -0.0272282 0)
(0.616488 -0.0309005 0)
(0.689438 -0.0351098 0)
(0.771566 -0.0398412 0)
(0.862189 -0.045271 0)
(0.965265 -0.0512508 0)
(1.07744 -0.0580215 0)
(1.20687 -0.0652334 0)
(1.34455 -0.0729956 0)
(1.50548 -0.080636 0)
(1.67082 -0.088001 0)
(1.86533 -0.0921584 0)
(2.05069 -0.096191 0)
(2.27521 -0.0817285 0)
(2.43276 -0.0753082 0)
(2.67653 0.00558145 0)
(2.64734 0.0973721 0)
(2.86052 0.418226 0)
(-0.000162308 0.000805577 0)
(-0.00215842 0.00218517 0)
(-0.00635209 0.00295318 0)
(-0.0128428 0.00265568 0)
(-0.0210058 0.0014455 0)
(-0.0293914 -0.000282578 0)
(-0.035988 -0.0021271 0)
(-0.038808 -0.00372253 0)
(-0.0365396 -0.00482621 0)
(-0.0288982 -0.00536722 0)
(-0.0165572 -0.00542628 0)
(-0.000761819 -0.00517353 0)
(0.0171158 -0.00480171 0)
(0.0358971 -0.00446517 0)
(0.0547345 -0.00425432 0)
(0.0731014 -0.00420167 0)
(0.090727 -0.00430577 0)
(0.107506 -0.00455865 0)
(0.123469 -0.0049564 0)
(0.138774 -0.00551354 0)
(0.153714 -0.00625055 0)
(0.168729 -0.00719219 0)
(0.184387 -0.00835402 0)
(0.20135 -0.0097446 0)
(0.220325 -0.0113644 0)
(0.242001 -0.0132132 0)
(0.267027 -0.0152881 0)
(0.295987 -0.0176016 0)
(0.329392 -0.0201694 0)
(0.367736 -0.0230247 0)
(0.411438 -0.0262162 0)
(0.461037 -0.0297936 0)
(0.516903 -0.0338431 0)
(0.579899 -0.0384058 0)
(0.650174 -0.0436284 0)
(0.729455 -0.0494841 0)
(0.817017 -0.0562113 0)
(0.916515 -0.0636186 0)
(1.02486 -0.0720378 0)
(1.14939 -0.0810249 0)
(1.28219 -0.0908032 0)
(1.4362 -0.100478 0)
(1.59574 -0.110099 0)
(1.78021 -0.11604 0)
(1.96109 -0.121894 0)
(2.16877 -0.107627 0)
(2.33431 -0.0987706 0)
(2.54291 -0.0141571 0)
(2.57659 0.102479 0)
(2.73824 0.433119 0)
(-0.000155408 0.000889133 0)
(-0.00225276 0.00240917 0)
(-0.0064139 0.00332821 0)
(-0.0125699 0.00318383 0)
(-0.0204537 0.00207728 0)
(-0.0293384 0.000350753 0)
(-0.0378437 -0.00163335 0)
(-0.0441625 -0.00351399 0)
(-0.0465858 -0.00500741 0)
(-0.0440527 -0.00597288 0)
(-0.0363962 -0.00642204 0)
(-0.0242205 -0.00647871 0)
(-0.00857279 -0.00631903 0)
(0.0093937 -0.00610403 0)
(0.0286474 -0.0059425 0)
(0.0483701 -0.00588763 0)
(0.0679656 -0.00595552 0)
(0.0870098 -0.00615258 0)
(0.105233 -0.00648777 0)
(0.122513 -0.00698985 0)
(0.138886 -0.00769546 0)
(0.154585 -0.00864723 0)
(0.170031 -0.0098774 0)
(0.185828 -0.0114079 0)
(0.202708 -0.0132471 0)
(0.22146 -0.0153976 0)
(0.242884 -0.0178548 0)
(0.267738 -0.020627 0)
(0.296694 -0.0237261 0)
(0.330395 -0.0271811 0)
(0.369353 -0.0310429 0)
(0.414172 -0.0353602 0)
(0.465223 -0.040233 0)
(0.523334 -0.0457009 0)
(0.588601 -0.0519416 0)
(0.66257 -0.0589185 0)
(0.744539 -0.0669207 0)
(0.837686 -0.0757292 0)
(0.939347 -0.085738 0)
(1.05564 -0.0964521 0)
(1.18021 -0.10814 0)
(1.3231 -0.119798 0)
(1.47271 -0.131484 0)
(1.64202 -0.139274 0)
(1.81256 -0.146473 0)
(1.99925 -0.133104 0)
(2.16163 -0.120684 0)
(2.33998 -0.033107 0)
(2.40964 0.101938 0)
(2.5468 0.439614 0)
(-0.000141829 0.000977134 0)
(-0.00229331 0.00264599 0)
(-0.00653302 0.00371072 0)
(-0.0126118 0.00371234 0)
(-0.0202721 0.00272405 0)
(-0.0291391 0.00105675 0)
(-0.0383676 -0.000971992 0)
(-0.0465545 -0.00303326 0)
(-0.0520584 -0.00483767 0)
(-0.0535041 -0.00620001 0)
(-0.0501659 -0.00706906 0)
(-0.0420589 -0.00751171 0)
(-0.0297693 -0.00766809 0)
(-0.0141877 -0.0076858 0)
(0.00372804 -0.00767649 0)
(0.023093 -0.00770424 0)
(0.043156 -0.00779757 0)
(0.0632885 -0.00797477 0)
(0.0829826 -0.00825608 0)
(0.101849 -0.00868366 0)
(0.119639 -0.00931086 0)
(0.136294 -0.0102013 0)
(0.151979 -0.0114103 0)
(0.167101 -0.0129816 0)
(0.182285 -0.0149412 0)
(0.198308 -0.0173029 0)
(0.216036 -0.0200668 0)
(0.236356 -0.0232404 0)
(0.260096 -0.0268322 0)
(0.288057 -0.0308653 0)
(0.32089 -0.0353887 0)
(0.359299 -0.0404453 0)
(0.403715 -0.0461434 0)
(0.454957 -0.0525175 0)
(0.513124 -0.059767 0)
(0.579563 -0.0678485 0)
(0.653662 -0.0770834 0)
(0.738014 -0.0872462 0)
(0.830488 -0.0987517 0)
(0.935784 -0.111109 0)
(1.0492 -0.124551 0)
(1.1778 -0.138079 0)
(1.31376 -0.151599 0)
(1.46461 -0.161146 0)
(1.61928 -0.169393 0)
(1.78303 -0.156971 0)
(1.93297 -0.140712 0)
(2.08471 -0.0524993 0)
(2.17242 0.0970649 0)
(2.30247 0.435009 0)
(-0.000133833 0.00106781 0)
(-0.0023036 0.00289513 0)
(-0.00661912 0.00410925 0)
(-0.0127424 0.00425192 0)
(-0.0203161 0.00338078 0)
(-0.0290551 0.00179235 0)
(-0.0383947 -0.000229924 0)
(-0.0472917 -0.00239679 0)
(-0.0543594 -0.00443399 0)
(-0.0582317 -0.00613464 0)
(-0.0579739 -0.00740063 0)
(-0.0532455 -0.00824588 0)
(-0.0442534 -0.00876837 0)
(-0.0315747 -0.00909085 0)
(-0.0159586 -0.00931574 0)
(0.00181216 -0.00950779 0)
(0.0210009 -0.00970036 0)
(0.040927 -0.00991765 0)
(0.0609725 -0.0101859 0)
(0.0805802 -0.0105555 0)
(0.0992748 -0.0110923 0)
(0.116723 -0.011879 0)
(0.132797 -0.0129957 0)
(0.147628 -0.0145139 0)
(0.161621 -0.0164858 0)
(0.175419 -0.0189463 0)
(0.189839 -0.0219097 0)
(0.205806 -0.0253893 0)
(0.224237 -0.0293947 0)
(0.246064 -0.0339439 0)
(0.272069 -0.0390829 0)
(0.30307 -0.0448458 0)
(0.3396 -0.0513428 0)
(0.382488 -0.0586006 0)
(0.431901 -0.0668285 0)
(0.488992 -0.0759802 0)
(0.553301 -0.0863871 0)
(0.626821 -0.0978369 0)
(0.707964 -0.110723 0)
(0.800062 -0.124608 0)
(0.899848 -0.139618 0)
(1.01185 -0.154841 0)
(1.13098 -0.169944 0)
(1.26119 -0.181058 0)
(1.39568 -0.190048 0)
(1.53509 -0.17854 0)
(1.66625 -0.158814 0)
(1.7937 -0.0699906 0)
(1.8876 0.090151 0)
(2.02022 0.425239 0)
(-0.000131056 0.00116093 0)
(-0.00230763 0.00315511 0)
(-0.0066717 0.00452521 0)
(-0.0128627 0.00481 0)
(-0.020439 0.00405231 0)
(-0.029095 0.00254442 0)
(-0.0383605 0.00054656 0)
(-0.0473902 -0.0016879 0)
(-0.0550163 -0.00390508 0)
(-0.0600315 -0.00589004 0)
(-0.0615081 -0.00751118 0)
(-0.0589879 -0.00873903 0)
(-0.0524721 -0.00963239 0)
(-0.04231 -0.010287 0)
(-0.0290446 -0.0107904 0)
(-0.0133 -0.0112018 0)
(0.00429365 -0.0115534 0)
(0.0231145 -0.0118696 0)
(0.0425531 -0.0121767 0)
(0.0620032 -0.0125261 0)
(0.0808719 -0.0129892 0)
(0.0986366 -0.0136614 0)
(0.114922 -0.0146445 0)
(0.129586 -0.0160384 0)
(0.142769 -0.0179267 0)
(0.154896 -0.0203733 0)
(0.166641 -0.023416 0)
(0.178858 -0.0270828 0)
(0.192471 -0.0313912 0)
(0.208463 -0.0363584 0)
(0.227707 -0.0420284 0)
(0.25111 -0.0484266 0)
(0.279306 -0.0556603 0)
(0.313147 -0.0637473 0)
(0.352902 -0.0728946 0)
(0.399557 -0.0830572 0)
(0.452835 -0.0945533 0)
(0.514195 -0.1072 0)
(0.582527 -0.121334 0)
(0.660015 -0.136595 0)
(0.74444 -0.152976 0)
(0.838494 -0.169665 0)
(0.938732 -0.186088 0)
(1.04712 -0.198507 0)
(1.15886 -0.207945 0)
(1.27324 -0.197258 0)
(1.38215 -0.174282 0)
(1.487 -0.085299 0)
(1.5793 0.0804079 0)
(1.71816 0.407364 0)
(-0.000130232 0.0012568 0)
(-0.00231476 0.00342531 0)
(-0.00671083 0.00495793 0)
(-0.0129579 0.0053889 0)
(-0.0205661 0.00474379 0)
(-0.0291929 0.00331358 0)
(-0.0383778 0.00134184 0)
(-0.0473467 -0.000948187 0)
(-0.0550592 -0.00332156 0)
(-0.0604431 -0.00555811 0)
(-0.0626663 -0.00749987 0)
(-0.0612856 -0.00908153 0)
(-0.0562478 -0.0103286 0)
(-0.0477923 -0.0113121 0)
(-0.036336 -0.0121053 0)
(-0.0223734 -0.0127597 0)
(-0.00642081 -0.013304 0)
(0.0109964 -0.0137594 0)
(0.0293385 -0.0141481 0)
(0.0480344 -0.0145171 0)
(0.0664717 -0.0149354 0)
(0.0840426 -0.0155037 0)
(0.100215 -0.0163385 0)
(0.114634 -0.0175649 0)
(0.127203 -0.019298 0)
(0.138117 -0.0216353 0)
(0.147853 -0.0246446 0)
(0.157128 -0.0283765 0)
(0.166784 -0.0328638 0)
(0.177781 -0.0381289 0)
(0.191014 -0.0442172 0)
(0.207424 -0.0511478 0)
(0.227723 -0.0590223 0)
(0.252763 -0.0678508 0)
(0.28292 -0.0778279 0)
(0.319043 -0.0889129 0)
(0.361032 -0.101392 0)
(0.409919 -0.115121 0)
(0.46497 -0.130355 0)
(0.527507 -0.146819 0)
(0.59599 -0.164362 0)
(0.6719 -0.18226 0)
(0.752643 -0.199735 0)
(0.839247 -0.213156 0)
(0.92771 -0.222769 0)
(1.0176 -0.212748 0)
(1.10339 -0.186829 0)
(1.18766 -0.0984444 0)
(1.27401 0.0695897 0)
(1.41956 0.389647 0)
(-0.000129499 0.00135571 0)
(-0.00232522 0.00370596 0)
(-0.00674841 0.00540696 0)
(-0.0130393 0.00598889 0)
(-0.0206796 0.00545773 0)
(-0.0293017 0.00410306 0)
(-0.0384342 0.0021545 0)
(-0.0473153 -0.000191719 0)
(-0.0549558 -0.00271643 0)
(-0.0603639 -0.00519266 0)
(-0.0627905 -0.00743732 0)
(-0.0618509 -0.00935265 0)
(-0.0575081 -0.0109348 0)
(-0.0499814 -0.0122339 0)
(-0.039634 -0.0133105 0)
(-0.0268953 -0.0142098 0)
(-0.0122057 -0.0149569 0)
(0.00398373 -0.0155698 0)
(0.0212131 -0.0160648 0)
(0.0389738 -0.0164812 0)
(0.0566871 -0.0168808 0)
(0.0737432 -0.0173621 0)
(0.0895302 -0.0180496 0)
(0.103574 -0.0190876 0)
(0.115609 -0.02062 0)
(0.125634 -0.0227777 0)
(0.133943 -0.025662 0)
(0.141085 -0.0293513 0)
(0.147782 -0.0338993 0)
(0.154905 -0.0393399 0)
(0.163316 -0.0457234 0)
(0.173928 -0.053067 0)
(0.187485 -0.0614653 0)
(0.20481 -0.0709235 0)
(0.226362 -0.0816164 0)
(0.252866 -0.0935109 0)
(0.284376 -0.106848 0)
(0.321596 -0.121522 0)
(0.364068 -0.1377 0)
(0.412511 -0.155177 0)
(0.465799 -0.173675 0)
(0.524655 -0.19252 0)
(0.586906 -0.210778 0)
(0.653197 -0.224899 0)
(0.719819 -0.234461 0)
(0.787275 -0.22488 0)
(0.851481 -0.196604 0)
(0.918211 -0.109389 0)
(0.998055 0.0566101 0)
(1.14746 0.360565 0)
(-0.000128478 0.00145782 0)
(-0.00233718 0.00399758 0)
(-0.0067872 0.00587251 0)
(-0.0131165 0.00661 0)
(-0.0207837 0.00619505 0)
(-0.0294057 0.00491496 0)
(-0.0385026 0.00298636 0)
(-0.0473085 0.000579413 0)
(-0.0548494 -0.0021005 0)
(-0.060172 -0.00481725 0)
(-0.0625776 -0.00736129 0)
(-0.0617299 -0.00960278 0)
(-0.0576243 -0.01151 0)
(-0.0504925 -0.013114 0)
(-0.0406923 -0.0144647 0)
(-0.0286329 -0.0156024 0)
(-0.0147248 -0.01655 0)
(0.000623968 -0.017323 0)
(0.017002 -0.0179327 0)
(0.0339506 -0.0184096 0)
(0.050951 -0.0188054 0)
(0.0673879 -0.0192129 0)
(0.0826803 -0.0197582 0)
(0.0962814 -0.0205994 0)
(0.107829 -0.0219049 0)
(0.117192 -0.0238368 0)
(0.124526 -0.0265302 0)
(0.130227 -0.0300933 0)
(0.134894 -0.0346042 0)
(0.139287 -0.0401124 0)
(0.144197 -0.0466764 0)
(0.150469 -0.0543155 0)
(0.158836 -0.0631174 0)
(0.170061 -0.0730856 0)
(0.184648 -0.0843709 0)
(0.203206 -0.0969495 0)
(0.225901 -0.11101 0)
(0.253193 -0.126484 0)
(0.284811 -0.143446 0)
(0.321078 -0.161747 0)
(0.361105 -0.180998 0)
(0.405172 -0.200545 0)
(0.451325 -0.219336 0)
(0.500074 -0.233887 0)
(0.54795 -0.243218 0)
(0.596429 -0.233862 0)
(0.642492 -0.203981 0)
(0.695405 -0.118367 0)
(0.768777 0.041627 0)
(0.922412 0.321286 0)
(-0.000127318 0.00156323 0)
(-0.00234964 0.00430069 0)
(-0.00682661 0.00635516 0)
(-0.0131924 0.0072526 0)
(-0.0208837 0.00695626 0)
(-0.0295043 0.00575035 0)
(-0.0385703 0.00383892 0)
(-0.0473112 0.00136613 0)
(-0.0547575 -0.00147561 0)
(-0.059975 -0.00443927 0)
(-0.0622929 -0.00728715 0)
(-0.0614042 -0.00985646 0)
(-0.0573283 -0.0120876 0)
(-0.0503121 -0.0139932 0)
(-0.0407218 -0.015613 0)
(-0.0289678 -0.0169836 0)
(-0.0154564 -0.0181265 0)
(-0.000582531 -0.0190562 0)
(0.0152622 -0.0197795 0)
(0.031653 -0.020319 0)
(0.0480924 -0.0207157 0)
(0.0640248 -0.0210536 0)
(0.0788415 -0.0214592 0)
(0.0920106 -0.0220992 0)
(0.10312 -0.023163 0)
(0.111989 -0.0248409 0)
(0.118653 -0.0273003 0)
(0.123431 -0.0306793 0)
(0.126813 -0.0350814 0)
(0.129452 -0.0405741 0)
(0.132061 -0.0472256 0)
(0.1354 -0.0550603 0)
(0.140164 -0.0641593 0)
(0.14704 -0.0745274 0)
(0.15654 -0.0862888 0)
(0.169166 -0.0994303 0)
(0.185148 -0.114087 0)
(0.204774 -0.130219 0)
(0.227881 -0.147816 0)
(0.254549 -0.166765 0)
(0.284022 -0.186588 0)
(0.316333 -0.206622 0)
(0.349683 -0.225735 0)
(0.384558 -0.240501 0)
(0.4178 -0.249452 0)
(0.451716 -0.240299 0)
(0.48432 -0.209332 0)
(0.52791 -0.126066 0)
(0.59732 0.0264533 0)
(0.754202 0.285063 0)
(-0.000126169 0.00167205 0)
(-0.00236231 0.00461568 0)
(-0.00686582 0.00685558 0)
(-0.0132672 0.00791723 0)
(-0.0209816 0.00774199 0)
(-0.0295997 0.00660989 0)
(-0.0386352 0.004713 0)
(-0.0473146 0.00216934 0)
(-0.0546718 -0.000841445 0)
(-0.0597858 -0.00406015 0)
(-0.0620046 -0.00721957 0)
(-0.0610381 -0.0101231 0)
(-0.0569195 -0.0126827 0)
(-0.0499047 -0.0148924 0)
(-0.0403662 -0.0167819 0)
(-0.0287196 -0.0183839 0)
(-0.0153752 -0.0197194 0)
(-0.00072885 -0.020802 0)
(0.0148311 -0.0216355 0)
(0.0308895 -0.0222344 0)
(0.046965 -0.0226298 0)
(0.0625146 -0.0228969 0)
(0.0769587 -0.0231599 0)
(0.0897622 -0.0235934 0)
(0.100517 -0.0244049 0)
(0.108998 -0.0258117 0)
(0.115227 -0.0280101 0)
(0.119434 -0.0311687 0)
(0.122049 -0.0354151 0)
(0.123648 -0.0408357 0)
(0.12488 -0.0475084 0)
(0.126424 -0.0554646 0)
(0.128934 -0.0647786 0)
(0.133008 -0.075458 0)
(0.139157 -0.0876002 0)
(0.147786 -0.101202 0)
(0.15915 -0.116345 0)
(0.173415 -0.133014 0)
(0.190476 -0.151121 0)
(0.210265 -0.17057 0)
(0.232111 -0.190816 0)
(0.25592 -0.211169 0)
(0.280047 -0.230438 0)
(0.304985 -0.24526 0)
(0.328009 -0.253796 0)
(0.352067 -0.244815 0)
(0.376214 -0.213388 0)
(0.415043 -0.133421 0)
(0.483846 0.00987724 0)
(0.644044 0.246276 0)
(-0.0001251 0.0017844 0)
(-0.00237518 0.00494292 0)
(-0.00690443 0.00737443 0)
(-0.0133402 0.00860453 0)
(-0.0210774 0.00855294 0)
(-0.0296927 0.00749427 0)
(-0.0386975 0.00560918 0)
(-0.0473162 0.00298955 0)
(-0.0545864 -0.000197646 0)
(-0.0595997 -0.00368002 0)
(-0.0617195 -0.00715972 0)
(-0.0606689 -0.0104055 0)
(-0.0564889 -0.0133008 0)
(-0.049439 -0.0158202 0)
(-0.0398941 -0.0179835 0)
(-0.0282722 -0.0198193 0)
(-0.0149872 -0.0213477 0)
(-0.000438645 -0.022582 0)
(0.0149821 -0.0235227 0)
(0.0308574 -0.0241771 0)
(0.0467105 -0.0245663 0)
(0.0620025 -0.024757 0)
(0.0761681 -0.0248711 0)
(0.0886821 -0.0250908 0)
(0.0991439 -0.0256411 0)
(0.107329 -0.0267643 0)
(0.113238 -0.0286862 0)
(0.117082 -0.0316027 0)
(0.119252 -0.0356656 0)
(0.120274 -0.0409796 0)
(0.12075 -0.0476319 0)
(0.121299 -0.0556617 0)
(0.122534 -0.0651355 0)
(0.124993 -0.0760645 0)
(0.129155 -0.0885195 0)
(0.135359 -0.102505 0)
(0.143857 -0.118055 0)
(0.154737 -0.135167 0)
(0.167918 -0.153689 0)
(0.183251 -0.173527 0)
(0.200126 -0.194087 0)
(0.218382 -0.214638 0)
(0.236555 -0.23395 0)
(0.255179 -0.24875 0)
(0.272043 -0.256888 0)
(0.290569 -0.248156 0)
(0.310869 -0.217001 0)
(0.349057 -0.140973 0)
(0.420523 -0.00809732 0)
(0.584745 0.204755 0)
(-0.000124128 0.0019004 0)
(-0.00238825 0.00528275 0)
(-0.0069423 0.0079124 0)
(-0.0134111 0.00931515 0)
(-0.0211708 0.00938984 0)
(-0.0297832 0.00840419 0)
(-0.0387573 0.00652799 0)
(-0.0473159 0.00382712 0)
(-0.0544998 0.000455931 0)
(-0.0594134 -0.00329901 0)
(-0.0614352 -0.00710813 0)
(-0.0602999 -0.010705 0)
(-0.0560546 -0.0139439 0)
(-0.0489606 -0.0167802 0)
(-0.0393925 -0.0192231 0)
(-0.0277682 -0.0212968 0)
(-0.0145025 -0.0230209 0)
(2.295e-06 -0.0244076 0)
(0.0153508 -0.0254542 0)
(0.0311202 -0.0261605 0)
(0.0468301 -0.0265381 0)
(0.0619419 -0.0266452 0)
(0.0758952 -0.0266023 0)
(0.0881755 -0.0265993 0)
(0.0983921 -0.026879 0)
(0.106331 -0.0277088 0)
(0.111993 -0.0293429 0)
(0.115584 -0.0320047 0)
(0.117479 -0.0358689 0)
(0.118179 -0.0410579 0)
(0.118258 -0.0476677 0)
(0.118297 -0.0557444 0)
(0.118877 -0.0653468 0)
(0.120491 -0.0764888 0)
(0.123595 -0.0892154 0)
(0.128476 -0.103536 0)
(0.135376 -0.119441 0)
(0.144336 -0.136933 0)
(0.15528 -0.155811 0)
(0.168027 -0.175963 0)
(0.182017 -0.196767 0)
(0.197082 -0.217448 0)
(0.211951 -0.236751 0)
(0.227195 -0.251508 0)
(0.241169 -0.259341 0)
(0.257644 -0.251043 0)
(0.27778 -0.22077 0)
(0.318544 -0.149492 0)
(0.395129 -0.0279557 0)
(0.564023 0.16089 0)
(-0.000123267 0.00202018 0)
(-0.00240147 0.0056355 0)
(-0.00697934 0.00847019 0)
(-0.0134796 0.0100498 0)
(-0.0212613 0.0102535 0)
(-0.0298707 0.00934044 0)
(-0.0388143 0.00747002 0)
(-0.0473133 0.00468239 0)
(-0.054412 0.00111937 0)
(-0.0592265 -0.00291735 0)
(-0.0611505 -0.00706535 0)
(-0.0599302 -0.0110224 0)
(-0.0556187 -0.0146134 0)
(-0.0484784 -0.017774 0)
(-0.038883 -0.0205028 0)
(-0.0272492 -0.0228197 0)
(-0.0139913 -0.0247429 0)
(0.000487459 -0.026284 0)
(0.0157883 -0.0274363 0)
(0.0314828 -0.0281919 0)
(0.0470848 -0.0285526 0)
(0.0620529 -0.0285686 0)
(0.0758284 -0.0283595 0)
(0.0879049 -0.0281239 0)
(0.0979027 -0.0281231 0)
(0.10562 -0.02865 0)
(0.111068 -0.0299876 0)
(0.114455 -0.0323865 0)
(0.116154 -0.0360438 0)
(0.116655 -0.0410992 0)
(0.116518 -0.0476564 0)
(0.116301 -0.0557683 0)
(0.116567 -0.0654852 0)
(0.117778 -0.0768225 0)
(0.120371 -0.0898009 0)
(0.124603 -0.104431 0)
(0.130703 -0.120664 0)
(0.138688 -0.138502 0)
(0.148485 -0.157702 0)
(0.159904 -0.178129 0)
(0.172444 -0.199144 0)
(0.185939 -0.219934 0)
(0.199345 -0.239221 0)
(0.213289 -0.253976 0)
(0.226688 -0.261657 0)
(0.243615 -0.25404 0)
(0.266126 -0.225259 0)
(0.311599 -0.159492 0)
(0.394885 -0.050059 0)
(0.568733 0.114866 0)
(-0.000122524 0.0021439 0)
(-0.00241481 0.00600153 0)
(-0.00701543 0.0090485 0)
(-0.0135455 0.010809 0)
(-0.0213486 0.0111445 0)
(-0.0299549 0.0103038 0)
(-0.0388681 0.00843589 0)
(-0.0473084 0.00555575 0)
(-0.0543227 0.00179274 0)
(-0.059039 -0.00253532 0)
(-0.0608656 -0.00703198 0)
(-0.0595602 -0.0113586 0)
(-0.0551818 -0.0153102 0)
(-0.0479943 -0.0188029 0)
(-0.0383706 -0.0218243 0)
(-0.0267258 -0.0243897 0)
(-0.0134733 -0.0265161 0)
(0.00098367 -0.0282138 0)
(0.0162434 -0.029472 0)
(0.0318723 -0.0302746 0)
(0.0473779 -0.0306132 0)
(0.062215 -0.0305304 0)
(0.0758255 -0.0301454 0)
(0.0877095 -0.0296666 0)
(0.0974981 -0.0293748 0)
(0.105003 -0.0295895 0)
(0.110247 -0.0306228 0)
(0.113445 -0.0327525 0)
(0.114977 -0.036198 0)
(0.115327 -0.0411161 0)
(0.115051 -0.0476179 0)
(0.114693 -0.0557617 0)
(0.114805 -0.0655899 0)
(0.115832 -0.0771172 0)
(0.118196 -0.090342 0)
(0.122138 -0.105272 0)
(0.127878 -0.121826 0)
(0.135422 -0.139994 0)
(0.144707 -0.159507 0)
(0.155546 -0.180197 0)
(0.167507 -0.201417 0)
(0.180444 -0.222325 0)
(0.193541 -0.241628 0)
(0.207497 -0.256466 0)
(0.22177 -0.264194 0)
(0.240674 -0.257534 0)
(0.267074 -0.230898 0)
(0.318341 -0.171223 0)
(0.408877 -0.0745813 0)
(0.58741 0.0665747 0)
(-0.000121907 0.00227169 0)
(-0.00242819 0.00638118 0)
(-0.00705048 0.00964806 0)
(-0.0136086 0.0115937 0)
(-0.0214323 0.0120638 0)
(-0.0300354 0.0112951 0)
(-0.0389183 0.00942622 0)
(-0.0473007 0.00644758 0)
(-0.054232 0.00247619 0)
(-0.0588512 -0.00215312 0)
(-0.0605813 -0.00700859 0)
(-0.0591911 -0.0117144 0)
(-0.0547456 -0.0160356 0)
(-0.0475104 -0.0198682 0)
(-0.0378581 -0.0231889 0)
(-0.0262022 -0.0260083 0)
(-0.0129549 -0.0283421 0)
(0.00148057 -0.0301988 0)
(0.0166998 -0.0315632 0)
(0.0322641 -0.0324104 0)
(0.047675 -0.0327215 0)
(0.0623829 -0.0325318 0)
(0.0758302 -0.0319608 0)
(0.0875228 -0.0312276 0)
(0.0971025 -0.030634 0)
(0.104394 -0.0305268 0)
(0.109433 -0.0312478 0)
(0.112445 -0.0331027 0)
(0.113813 -0.0363332 0)
(0.114025 -0.0411128 0)
(0.113634 -0.0475594 0)
(0.113177 -0.0557367 0)
(0.113199 -0.0656787 0)
(0.114132 -0.0773978 0)
(0.116391 -0.0908721 0)
(0.120209 -0.106102 0)
(0.125798 -0.122979 0)
(0.133167 -0.141478 0)
(0.142264 -0.161307 0)
(0.152916 -0.182266 0)
(0.164764 -0.203706 0)
(0.177694 -0.224765 0)
(0.191116 -0.244148 0)
(0.205814 -0.259179 0)
(0.221744 -0.267184 0)
(0.243424 -0.261804 0)
(0.274389 -0.237877 0)
(0.331669 -0.184935 0)
(0.429207 -0.101 0)
(0.611692 0.0153248 0)
(-0.000121415 0.00240372 0)
(-0.00244155 0.00677478 0)
(-0.00708436 0.0102696 0)
(-0.0136685 0.0124044 0)
(-0.0215121 0.0130119 0)
(-0.0301118 0.0123151 0)
(-0.0389644 0.0104417 0)
(-0.0472898 0.00735833 0)
(-0.0541396 0.00316987 0)
(-0.0586634 -0.00177096 0)
(-0.0602983 -0.00699573 0)
(-0.0588242 -0.0120907 0)
(-0.0543119 -0.0167906 0)
(-0.0470293 -0.0209713 0)
(-0.0373484 -0.0245981 0)
(-0.0256817 -0.027677 0)
(-0.0124402 -0.0302223 0)
(0.00197281 -0.0322404 0)
(0.0171504 -0.0337113 0)
(0.0326486 -0.0346003 0)
(0.0479629 -0.0348784 0)
(0.0625396 -0.0345733 0)
(0.0758212 -0.0338056 0)
(0.0873196 -0.0328065 0)
(0.0966868 -0.0318996 0)
(0.103761 -0.0314603 0)
(0.10859 -0.0318611 0)
(0.11141 -0.0334358 0)
(0.112611 -0.0364484 0)
(0.112683 -0.0410889 0)
(0.112179 -0.0474824 0)
(0.111632 -0.0556965 0)
(0.111579 -0.0657576 0)
(0.112449 -0.0776739 0)
(0.114646 -0.0914051 0)
(0.118403 -0.10694 0)
(0.123927 -0.12415 0)
(0.131233 -0.142987 0)
(0.140285 -0.163146 0)
(0.150929 -0.184391 0)
(0.162883 -0.206076 0)
(0.176071 -0.227336 0)
(0.19012 -0.246878 0)
(0.205908 -0.262234 0)
(0.223838 -0.270763 0)
(0.248581 -0.266995 0)
(0.284214 -0.246285 0)
(0.347302 -0.200712 0)
(0.450668 -0.129678 0)
(0.635835 -0.0351495 0)
(-0.00012105 0.00254016 0)
(-0.00245481 0.00718268 0)
(-0.00711697 0.0109137 0)
(-0.0137252 0.013242 0)
(-0.0215878 0.0139897 0)
(-0.0301838 0.0133647 0)
(-0.0390061 0.011483 0)
(-0.0472754 0.00828845 0)
(-0.0540455 0.00387399 0)
(-0.0584758 -0.00138894 0)
(-0.0600173 -0.0069939 0)
(-0.0584607 -0.0124883 0)
(-0.0538828 -0.0175763 0)
(-0.0465535 -0.0221133 0)
(-0.0368448 -0.0260533 0)
(-0.0251682 -0.0293973 0)
(-0.0119336 -0.0321582 0)
(0.00245565 -0.0343402 0)
(0.0175898 -0.0359174 0)
(0.0330196 -0.0368455 0)
(0.0482346 -0.0370844 0)
(0.0626767 -0.0366548 0)
(0.0757892 -0.0356792 0)
(0.0870892 -0.034402 0)
(0.0962395 -0.0331699 0)
(0.103091 -0.0323881 0)
(0.107704 -0.0324603 0)
(0.110325 -0.0337491 0)
(0.111353 -0.0365411 0)
(0.111279 -0.0410425 0)
(0.110655 -0.0473853 0)
(0.110013 -0.0556406 0)
(0.109884 -0.0658273 0)
(0.110694 -0.0779479 0)
(0.112838 -0.0919453 0)
(0.11655 -0.107795 0)