/*--------------------------------*- C++ -*----------------------------------*\
  =========                 |
  \\      /  F ield         | OpenFOAM: The Open Source CFD Toolbox
   \\    /   O peration     | Website:  https://openfoam.org
    \\  /    A nd           | Version:  7
     \\/     M anipulation  |
\*---------------------------------------------------------------------------*/
FoamFile
{
    version     2.0;
    format      ascii;
    class       surfaceScalarField;
    location    "0.25";
    object      ddtCorrDdt0(phi);
}
// * * * * * * * * * * * * * * * * * * * * * * * * * * * * * * * * * * * * * //

dimensions      [0 3 -2 0 0 0 0];

internalField   nonuniform List<scalar> 
139350
(
-3.28808e-10
3.28832e-10
-8.12603e-10
4.84372e-10
-1.24395e-09
4.31548e-10
-1.53128e-09
2.87759e-10
-1.68245e-09
1.5156e-10
-1.7298e-09
4.76546e-11
-1.71755e-09
-1.19339e-11
-1.6927e-09
-2.43935e-11
-1.69226e-09
-1.06629e-13
-1.73693e-09
4.53734e-11
-1.83353e-09
9.69473e-11
-1.97582e-09
1.42922e-10
-2.15033e-09
1.74889e-10
-2.33914e-09
1.89234e-10
-2.52477e-09
1.86262e-10
-2.69422e-09
1.69775e-10
-2.83694e-09
1.43856e-10
-2.94892e-09
1.12165e-10
-3.02548e-09
7.78778e-11
-3.06705e-09
4.17375e-11
-3.07016e-09
4.08499e-12
-3.03321e-09
-3.6482e-11
-2.95154e-09
-8.07123e-11
-2.82154e-09
-1.29412e-10
-2.63614e-09
-1.83784e-10
-2.39148e-09
-2.44352e-10
-2.07846e-09
-3.11097e-10
-1.69284e-09
-3.85338e-10
-1.22508e-09
-4.66291e-10
-6.69034e-10
-5.5537e-10
-1.52937e-11
-6.52359e-10
7.4416e-10
-7.58646e-10
1.61751e-09
-8.71263e-10
2.61223e-09
-9.94277e-10
3.73002e-09
-1.11537e-09
4.97907e-09
-1.24869e-09
6.33543e-09
-1.35453e-09
7.80745e-09
-1.47128e-09
9.3106e-09
-1.50188e-09
1.08425e-08
-1.53092e-09
1.21988e-08
-1.35486e-09
1.33102e-08
-1.11093e-09
1.37535e-08
-4.41128e-10
1.32221e-08
5.30326e-10
1.07991e-08
2.42488e-09
5.6678e-09
5.12907e-09
-4.81258e-09
1.04804e-08
-2.29537e-08
1.81384e-08
-5.25086e-08
2.95551e-08
1.06856e-07
-1.59366e-07
-4.86088e-10
8.14948e-10
-1.44703e-09
1.44593e-09
-2.33683e-09
1.32159e-09
-2.7781e-09
7.29477e-10
-2.74992e-09
1.23794e-10
-2.3679e-09
-3.34035e-10
-1.78378e-09
-5.95705e-10
-1.15549e-09
-6.52172e-10
-6.06987e-10
-5.48243e-10
-2.06594e-10
-3.54252e-10
2.90574e-11
-1.38329e-10
1.25074e-10
4.7577e-11
1.30107e-10
1.70275e-10
1.01719e-10
2.18076e-10
9.26603e-11
1.96039e-10
1.42824e-10
1.19957e-10
2.81402e-10
6.53815e-12
5.24428e-10
-1.30677e-10
8.85202e-10
-2.81476e-10
1.37065e-09
-4.43518e-10
1.99227e-09
-6.16495e-10
2.7605e-09
-8.04196e-10
3.68985e-09
-1.00899e-09
4.79454e-09
-1.23348e-09
6.09332e-09
-1.48078e-09
7.60269e-09
-1.7534e-09
9.34616e-09
-2.05251e-09
1.13446e-08
-2.38342e-09
1.36271e-08
-2.74724e-09
1.62231e-08
-3.15062e-09
1.91694e-08
-3.59715e-09
2.2506e-08
-4.09439e-09
2.62789e-08
-4.64185e-09
3.05362e-08
-5.25114e-09
3.53302e-08
-5.90682e-09
4.07146e-08
-6.63267e-09
4.67294e-08
-7.3674e-09
5.34231e-08
-8.1641e-09
6.07818e-08
-8.85923e-09
6.8822e-08
-9.57016e-09
7.73734e-08
-9.90452e-09
8.63457e-08
-1.00828e-08
9.51879e-08
-9.281e-09
1.03392e-07
-7.6749e-09
1.09774e-07
-3.95499e-09
1.11687e-07
3.21349e-09
1.08537e-07
1.363e-08
8.48352e-08
4.18375e-08
5.06304e-08
6.37603e-08
2.48551e-07
-9.10667e-08
-4.12291e-10
1.22727e-09
-1.50587e-09
2.54017e-09
-2.68606e-09
2.50205e-09
-3.30585e-09
1.34974e-09
-3.14722e-09
-3.43914e-11
-2.31485e-09
-1.16606e-09
-1.04347e-09
-1.86672e-09
3.95654e-10
-2.09073e-09
1.76939e-09
-1.92159e-09
2.9313e-09
-1.51535e-09
3.8274e-09
-1.03403e-09
4.48164e-09
-6.05957e-10
4.96567e-09
-3.13302e-10
5.37072e-09
-1.86498e-10
5.78332e-09
-2.15781e-10
6.27167e-09
-3.68024e-10
6.88664e-09
-6.07078e-10
7.66058e-09
-9.04432e-10
8.62028e-09
-1.23967e-09
9.78473e-09
-1.60775e-09
1.11773e-08
-2.008e-09
1.28199e-08
-2.44619e-09
1.47378e-08
-2.92575e-09
1.69555e-08
-3.45054e-09
1.95015e-08
-4.02489e-09
2.24022e-08
-4.65375e-09
2.56921e-08
-5.34017e-09
2.94046e-08
-6.09559e-09
3.35849e-08
-6.92588e-09
3.82818e-08
-7.84671e-09
4.35567e-08
-8.87041e-09
4.94783e-08
-1.00151e-08
5.61301e-08
-1.12913e-08
6.35989e-08
-1.27194e-08
7.19944e-08
-1.42996e-08
8.14141e-08
-1.60519e-08
9.19877e-08
-1.7939e-08
1.03803e-07
-1.99783e-08
1.16983e-07
-2.20379e-08
1.31568e-07
-2.41539e-08
1.47571e-07
-2.59061e-08
1.64907e-07
-2.74182e-08
1.83237e-07
-2.76091e-08
2.01895e-07
-2.63342e-08
2.20291e-07
-2.23485e-08
2.34017e-07
-1.05152e-08
2.46447e-07
1.19947e-09
2.3188e-07
5.64016e-08
2.08372e-07
8.72689e-08
3.77593e-07
7.9328e-08
-2.89943e-10
1.51725e-09
-1.29353e-09
3.54446e-09
-2.61376e-09
3.82257e-09
-3.53147e-09
2.26794e-09
-3.57482e-09
9.42004e-12
-2.67116e-09
-2.06935e-09
-1.01514e-09
-3.52235e-09
1.06831e-09
-4.17359e-09
3.24517e-09
-4.09805e-09
5.26287e-09
-3.53219e-09
6.98541e-09
-2.75614e-09
8.39048e-09
-2.0103e-09
9.53638e-09
-1.45873e-09
1.05238e-08
-1.17342e-09
1.14603e-08
-1.1514e-09
1.2438e-08
-1.34535e-09
1.35305e-08
-1.69818e-09
1.47904e-08
-2.16413e-09
1.62631e-08
-2.71087e-09
1.79853e-08
-3.32968e-09
1.99973e-08
-4.01886e-09
2.23367e-08
-4.78504e-09
2.50432e-08
-5.63095e-09
2.81529e-08
-6.55964e-09
3.17044e-08
-7.5743e-09
3.57317e-08
-8.68076e-09
4.02769e-08
-9.88315e-09
4.5381e-08
-1.11993e-08
5.10981e-08
-1.26413e-08
5.74886e-08
-1.42363e-08
6.46292e-08
-1.60093e-08
7.26068e-08
-1.79918e-08
8.15314e-08
-2.02133e-08
9.15154e-08
-2.27029e-08
1.02712e-07
-2.54934e-08
1.15251e-07
-2.859e-08
1.2933e-07
-3.20165e-08
1.45073e-07
-3.57199e-08
1.62708e-07
-3.9672e-08
1.82312e-07
-4.37565e-08
2.04051e-07
-4.76436e-08
2.27862e-07
-5.12289e-08
2.53675e-07
-5.34192e-08
2.80626e-07
-5.32863e-08
3.09003e-07
-5.07241e-08
3.3292e-07
-3.44348e-08
3.58345e-07
-2.42252e-08
3.57929e-07
5.68137e-08
3.4094e-07
1.04259e-07
4.69668e-07
2.48863e-07
-2.11712e-10
1.729e-09
-1.04023e-09
4.3737e-09
-2.34819e-09
5.13083e-09
-3.56153e-09
3.48179e-09
-4.08004e-09
5.28406e-10
-3.59215e-09
-2.55686e-09
-2.10469e-09
-5.0094e-09
1.38637e-10
-6.41629e-09
2.78332e-09
-6.74231e-09
5.49107e-09
-6.23904e-09
8.01916e-09
-5.28379e-09
1.0251e-08
-4.24142e-09
1.21795e-08
-3.38666e-09
1.38704e-08
-2.86388e-09
1.54212e-08
-2.70133e-09
1.69296e-08
-2.85329e-09
1.84826e-08
-3.24976e-09
2.01503e-08
-3.83163e-09
2.19978e-08
-4.55676e-09
2.40825e-08
-5.41411e-09
2.64667e-08
-6.40188e-09
2.92097e-08
-7.52741e-09
3.23714e-08
-8.7914e-09
3.6006e-08
-1.01935e-08
4.0166e-08
-1.17323e-08
4.48964e-08
-1.34108e-08
5.02468e-08
-1.52313e-08
5.62634e-08
-1.72154e-08
6.30049e-08
-1.93812e-08
7.05359e-08
-2.17663e-08
7.89393e-08
-2.4411e-08
8.83091e-08
-2.73606e-08
9.87685e-08
-3.067e-08
1.10441e-07
-3.43752e-08
1.23506e-07
-3.85547e-08
1.38107e-07
-4.31906e-08
1.54485e-07
-4.8393e-08
1.72785e-07
-5.40183e-08
1.93298e-07
-6.01832e-08
2.16124e-07
-6.65819e-08
2.41534e-07
-7.3052e-08
2.69454e-07
-7.9148e-08
3.00063e-07
-8.4026e-08
3.32271e-07
-8.54951e-08
3.66969e-07
-8.54206e-08
3.98043e-07
-6.55111e-08
4.30345e-07
-5.65272e-08
4.43111e-07
4.4044e-08
4.28243e-07
1.19129e-07
5.3017e-07
3.67739e-07
-1.91008e-10
1.92006e-09
-8.7182e-10
5.05525e-09
-2.07378e-09
6.33311e-09
-3.46539e-09
4.87393e-09
-4.50159e-09
1.56509e-09
-4.72527e-09
-2.33278e-09
-3.91363e-09
-5.82062e-09
-2.10751e-09
-8.22176e-09
4.47912e-10
-9.29729e-09
3.41889e-09
-9.20911e-09
6.4912e-09
-8.35564e-09
9.44289e-09
-7.19235e-09
1.21626e-08
-6.10588e-09
1.46341e-08
-5.3348e-09
1.69004e-08
-4.96672e-09
1.90302e-08
-4.98268e-09
2.11e-08
-5.3181e-09
2.31812e-08
-5.91254e-09
2.53484e-08
-6.72241e-09
2.7675e-08
-7.74036e-09
3.02437e-08
-8.96947e-09
3.31385e-08
-1.04215e-08
3.64453e-08
-1.20969e-08
4.0244e-08
-1.39915e-08
4.46102e-08
-1.60963e-08
4.96074e-08
-1.84076e-08
5.52991e-08
-2.09207e-08
6.17403e-08
-2.36561e-08
6.8995e-08
-2.66341e-08
7.71291e-08
-2.98995e-08
8.62268e-08
-3.35068e-08
9.63807e-08
-3.75136e-08
1.07717e-07
-4.20032e-08
1.20358e-07
-4.70158e-08
1.3449e-07
-5.26843e-08
1.50263e-07
-5.89626e-08
1.67931e-07
-6.60595e-08
1.87649e-07
-7.3735e-08
2.09733e-07
-8.22656e-08
2.34296e-07
-9.11437e-08
2.61662e-07
-1.00416e-07
2.91731e-07
-1.09217e-07
3.24834e-07
-1.17126e-07
3.59803e-07
-1.20466e-07
3.97534e-07
-1.23149e-07
4.32926e-07
-1.00906e-07
4.67384e-07
-9.09856e-08
4.89237e-07
2.21885e-08
4.76666e-07
1.31701e-07
5.70424e-07
4.36411e-07
-2.02824e-10
2.12293e-09
-8.12177e-10
5.66537e-09
-1.90169e-09
7.42296e-09
-3.342e-09
6.31478e-09
-4.75559e-09
2.97919e-09
-5.69189e-09
-1.39607e-09
-5.78235e-09
-5.72973e-09
-4.84733e-09
-9.15611e-09
-2.9313e-09
-1.12129e-08
-2.5092e-10
-1.18886e-08
2.89849e-09
-1.15046e-08
6.23816e-09
-1.05312e-08
9.5607e-09
-9.42789e-09
1.27475e-08
-8.52108e-09
1.5754e-08
-7.97223e-09
1.85832e-08
-7.81153e-09
2.12681e-08
-8.00138e-09
2.3853e-08
-8.49718e-09
2.63994e-08
-9.26722e-09
2.8978e-08
-1.03186e-08
3.16791e-08
-1.16694e-08
3.46034e-08
-1.3345e-08
3.78613e-08
-1.53535e-08
4.15623e-08
-1.76917e-08
4.5813e-08
-2.03448e-08
5.07056e-08
-2.32999e-08
5.63285e-08
-2.65412e-08
6.27547e-08
-3.00818e-08
7.00605e-08
-3.39381e-08
7.83173e-08
-3.81553e-08
8.76108e-08
-4.27984e-08
9.80297e-08
-4.79315e-08
1.09696e-07
-5.36666e-08
1.22725e-07
-6.00442e-08
1.37297e-07
-6.72535e-08
1.53555e-07
-7.52198e-08
1.71749e-07
-8.42512e-08
1.92033e-07
-9.40184e-08
2.14718e-07
-1.04948e-07
2.39925e-07
-1.1635e-07
2.67976e-07
-1.28465e-07
2.98788e-07
-1.40028e-07
3.32665e-07
-1.51001e-07
3.6864e-07
-1.56442e-07
4.07021e-07
-1.61528e-07
4.44481e-07
-1.38369e-07
4.78588e-07
-1.25093e-07
5.05034e-07
-4.2605e-09
4.96528e-07
1.40208e-07
5.96559e-07
4.70393e-07
-2.22452e-10
2.34543e-09
-8.24942e-10
6.26864e-09
-1.85099e-09
8.44936e-09
-3.27438e-09
7.73873e-09
-4.88334e-09
4.58866e-09
-6.33621e-09
5.72264e-11
-7.24679e-09
-4.81871e-09
-7.29608e-09
-9.10613e-09
-6.33099e-09
-1.21775e-08
-4.39017e-09
-1.38284e-08
-1.66148e-09
-1.42328e-08
1.60146e-09
-1.37934e-08
5.151e-09
-1.29769e-08
8.7918e-09
-1.21613e-08
1.23921e-08
-1.15716e-08
1.58744e-08
-1.12934e-08
1.92042e-08
-1.13296e-08
2.23725e-08
-1.16653e-08
2.54e-08
-1.2293e-08
2.83275e-08
-1.32458e-08
3.12278e-08
-1.45686e-08
3.41974e-08
-1.63139e-08
3.73563e-08
-1.85111e-08
4.08358e-08
-2.11705e-08
4.47733e-08
-2.428e-08
4.92955e-08
-2.78217e-08
5.45253e-08
-3.17687e-08
6.05656e-08
-3.61215e-08
6.75161e-08
-4.08867e-08
7.54636e-08
-4.61018e-08
8.45018e-08
-5.18348e-08
9.47197e-08
-5.81484e-08
1.06234e-07
-6.51784e-08
1.19151e-07
-7.29605e-08
1.33637e-07
-8.17358e-08
1.49821e-07
-9.14039e-08
1.67932e-07
-1.0236e-07
1.8812e-07
-1.14206e-07
2.10658e-07
-1.27485e-07
2.35686e-07
-1.41376e-07
2.63464e-07
-1.56241e-07
2.93976e-07
-1.7054e-07
3.27367e-07
-1.84389e-07
3.63021e-07
-1.92098e-07
4.00504e-07
-1.99008e-07
4.38103e-07
-1.75971e-07
4.70749e-07
-1.57739e-07
4.98607e-07
-3.21211e-08
4.95226e-07
1.4359e-07
6.10156e-07
4.81628e-07
-2.37538e-10
2.58303e-09
-8.66304e-10
6.89821e-09
-1.8867e-09
9.47012e-09
-3.2924e-09
9.14499e-09
-4.97342e-09
6.27022e-09
-6.7121e-09
1.79635e-09
-8.19117e-09
-3.33919e-09
-9.05992e-09
-8.23668e-09
-9.04318e-09
-1.21938e-08
-8.01944e-09
-1.48512e-08
-6.03467e-09
-1.6217e-08
-3.25413e-09
-1.65731e-08
1.01701e-10
-1.63321e-08
3.81549e-09
-1.58745e-08
7.70386e-09
-1.5459e-08
1.16254e-08
-1.52145e-08
1.54802e-08
-1.51828e-08
1.91974e-08
-1.53821e-08
2.274e-08
-1.5834e-08
2.60971e-08
-1.66025e-08
2.92973e-08
-1.77675e-08
3.24045e-08
-1.94204e-08
3.55224e-08
-2.16276e-08
3.87828e-08
-2.44301e-08
4.23399e-08
-2.78349e-08
4.63496e-08
-3.1831e-08
5.09706e-08
-3.63873e-08
5.63427e-08
-4.1493e-08
6.25995e-08
-4.71417e-08
6.98546e-08
-5.33558e-08
7.82203e-08
-6.01986e-08
8.77949e-08
-6.77219e-08
9.86955e-08
-7.60762e-08
1.11022e-07
-8.52864e-08
1.24922e-07
-9.56334e-08
1.40516e-07
-1.06996e-07
1.57991e-07
-1.19833e-07
1.77496e-07
-1.33709e-07
1.99241e-07
-1.49228e-07
2.23386e-07
-1.6552e-07
2.50092e-07
-1.82944e-07
2.79427e-07
-1.99875e-07
3.11342e-07
-2.16301e-07
3.45527e-07
-2.26284e-07
3.81006e-07
-2.34485e-07
4.17169e-07
-2.12136e-07
4.47628e-07
-1.88198e-07
4.75041e-07
-5.95372e-08
4.76783e-07
1.41851e-07
6.11819e-07
4.75119e-07
-2.47113e-10
2.8302e-09
-9.09813e-10
7.56174e-09
-1.96123e-09
1.05219e-08
-3.37891e-09
1.05632e-08
-5.08714e-09
7.979e-09
-6.9523e-09
3.66195e-09
-8.74397e-09
-1.54704e-09
-1.01491e-08
-6.8308e-09
-1.08584e-08
-1.14839e-08
-1.06567e-08
-1.50519e-08
-9.47327e-09
-1.73999e-08
-7.37053e-09
-1.8675e-08
-4.50144e-09
-1.92006e-08
-1.05559e-09
-1.93198e-08
2.77861e-09
-1.92922e-08
6.83254e-09
-1.92679e-08
1.09663e-08
-1.93149e-08
1.50611e-08
-1.94766e-08
1.90271e-08
-1.97983e-08
2.2796e-08
-2.0371e-08
2.63381e-08
-2.13084e-08
2.96631e-08
-2.27446e-08
3.28312e-08
-2.47943e-08
3.59473e-08
-2.75453e-08
3.91579e-08
-3.10433e-08
4.26294e-08
-3.5302e-08
4.65455e-08
-4.0301e-08
5.10795e-08
-4.60264e-08
5.64015e-08
-5.24619e-08
6.26591e-08
-5.96124e-08
6.99926e-08
-6.75302e-08
7.85198e-08
-7.62481e-08
8.83664e-08
-8.592e-08
9.96349e-08
-9.65542e-08
1.12458e-07
-1.08453e-07
1.26945e-07
-1.21483e-07
1.43245e-07
-1.3613e-07
1.61496e-07
-1.51959e-07
1.81836e-07
-1.69567e-07
2.04436e-07
-1.8812e-07
2.29351e-07
-2.07857e-07
2.56697e-07
-2.27221e-07
2.86285e-07
-2.45886e-07
3.17969e-07
-2.5797e-07
3.50514e-07
-2.67027e-07
3.83922e-07
-2.45547e-07
4.11499e-07
-2.15775e-07
4.37229e-07
-8.52697e-08
4.43942e-07
1.35139e-07
6.01759e-07
4.54003e-07
-2.54355e-10
3.08462e-09
-9.48558e-10
8.25678e-09
-2.04459e-09
1.16183e-08
-3.50097e-09
1.20202e-08
-5.23919e-09
9.71778e-09
-7.16001e-09
5.58324e-09
-9.09411e-09
3.87538e-10
-1.0784e-08
-5.14015e-09
-1.19387e-08
-1.03287e-08
-1.23149e-08
-1.46747e-08
-1.178e-08
-1.79343e-08
-1.03202e-08
-2.01339e-08
-8.01988e-09
-2.15004e-08
-5.0191e-09
-2.23199e-08
-1.47926e-09
-2.2831e-08
2.43815e-09
-2.31848e-08
6.58484e-09
-2.346e-08
1.08213e-08
-2.37127e-08
1.50251e-08
-2.40004e-08
1.90844e-08
-2.44299e-08
2.29152e-08
-2.51379e-08
2.64673e-08
-2.62959e-08
2.97426e-08
-2.80682e-08
3.27967e-08
-3.05986e-08
3.57432e-08
-3.39874e-08
3.87341e-08
-3.82924e-08
4.19577e-08
-4.35221e-08
4.56063e-08
-4.96743e-08
4.98783e-08
-5.67322e-08
5.49538e-08
-6.46867e-08
6.10032e-08
-7.35776e-08
6.8171e-08
-8.34148e-08
7.65984e-08
-9.43445e-08
8.63994e-08
-1.06354e-07
9.76974e-08
-1.19749e-07
1.106e-07
-1.34385e-07
1.25215e-07
-1.50743e-07
1.41673e-07
-1.68416e-07
1.60042e-07
-1.87933e-07
1.80482e-07
-2.08558e-07
2.02962e-07
-2.30335e-07
2.27591e-07
-2.5185e-07
2.54107e-07
-2.72399e-07
2.82413e-07
-2.86278e-07
3.112e-07
-2.95813e-07
3.40805e-07
-2.75154e-07
3.64911e-07
-2.39881e-07
3.88165e-07
-1.08526e-07
3.99341e-07
1.23964e-07
5.81053e-07
4.20048e-07
-2.61629e-10
3.34633e-09
-9.84551e-10
8.98056e-09
-2.12654e-09
1.27607e-08
-3.63488e-09
1.35292e-08
-5.41797e-09
1.15015e-08
-7.38063e-09
7.54639e-09
-9.38058e-09
2.38798e-09
-1.11982e-08
-3.32179e-09
-1.25746e-08
-8.95178e-09
-1.32772e-08
-1.3971e-08
-1.31569e-08
-1.80541e-08
-1.21643e-08
-2.11256e-08
-1.03388e-08
-2.33253e-08
-7.77741e-09
-2.48807e-08
-4.6067e-09
-2.60007e-08
-9.64178e-10
-2.68268e-08
3.01529e-09
-2.74378e-08
7.19522e-09
-2.78922e-08
1.1445e-08
-2.82485e-08
1.56311e-08
-2.86154e-08
1.96332e-08
-2.91388e-08
2.33521e-08
-3.0014e-08
2.67326e-08
-3.14471e-08
2.97731e-08
-3.36383e-08
3.25384e-08
-3.67504e-08
3.51457e-08
-4.08992e-08
3.77656e-08
-4.61396e-08
4.05895e-08
-5.24974e-08
4.38282e-08
-5.9969e-08
4.76829e-08
-6.85402e-08
5.23488e-08
-7.82415e-08
5.79957e-08
-8.90605e-08
6.47826e-08
-1.01129e-07
7.28406e-08
-1.14412e-07
8.22902e-08
-1.29195e-07
9.32423e-08
-1.45336e-07
1.05773e-07
-1.63272e-07
1.20004e-07
-1.82646e-07
1.35944e-07
-2.03871e-07
1.53727e-07
-2.2634e-07
1.73262e-07
-2.49868e-07
1.94607e-07
-2.73194e-07
2.17474e-07
-2.95264e-07
2.41753e-07
-3.10558e-07
2.66163e-07
-3.20221e-07
2.91243e-07
-3.00235e-07
3.11449e-07
-2.60087e-07
3.3177e-07
-1.28849e-07
3.46537e-07
1.09199e-07
5.51016e-07
3.76575e-07
-2.69629e-10
3.61604e-09
-1.02077e-09
9.73259e-09
-2.20735e-09
1.39478e-08
-3.77132e-09
1.50938e-08
-5.6098e-09
1.33405e-08
-7.62039e-09
9.55749e-09
-9.6657e-09
4.4338e-09
-1.15421e-08
-1.4446e-09
-1.30123e-08
-7.48105e-09
-1.38623e-08
-1.31199e-08
-1.3951e-08
-1.79647e-08
-1.3223e-08
-2.18528e-08
-1.17002e-08
-2.48474e-08
-9.45604e-09
-2.71242e-08
-6.59224e-09
-2.88635e-08
-3.22309e-09
-3.01954e-08
5.35997e-10
-3.11952e-08
4.56309e-09
-3.19189e-08
8.73531e-09
-3.2419e-08
1.29167e-08
-3.27963e-08
1.69715e-08
-3.31923e-08
2.07701e-08
-3.38118e-08
2.4214e-08
-3.48895e-08
2.72512e-08
-3.66746e-08
2.98952e-08
-3.9392e-08
3.22192e-08
-4.32226e-08
3.43613e-08
-4.82792e-08
3.64942e-08
-5.46296e-08
3.88236e-08
-6.22964e-08
4.15566e-08
-7.12721e-08
4.49008e-08
-8.15837e-08
4.90438e-08
-9.32023e-08
5.41581e-08
-1.0624e-07
6.03911e-08
-1.20644e-07
6.78638e-08
-1.36665e-07
7.66933e-08
-1.54164e-07
8.69346e-08
-1.73511e-07
9.86972e-08
-1.94407e-07
1.11951e-07
-2.17123e-07
1.2679e-07
-2.41178e-07
1.43089e-07
-2.66165e-07
1.60835e-07
-2.9094e-07
1.7974e-07
-3.14166e-07
1.99657e-07
-3.30476e-07
2.19397e-07
-3.39959e-07
2.39617e-07
-3.20457e-07
2.55786e-07
-2.76256e-07
2.73035e-07
-1.461e-07
2.90551e-07
9.16859e-08
5.1309e-07
3.28479e-07
-2.78228e-10
3.89436e-09
-1.05858e-09
1.05138e-08
-2.28948e-09
1.51791e-08
-3.90951e-09
1.67144e-08
-5.808e-09
1.52396e-08
-7.87375e-09
1.16238e-08
-9.96539e-09
6.52598e-09
-1.18809e-08
4.71662e-10
-1.33907e-08
-5.9706e-09
-1.42935e-08
-1.22161e-08
-1.44599e-08
-1.77976e-08
-1.38416e-08
-2.24702e-08
-1.24607e-08
-2.62277e-08
-1.03842e-08
-2.92e-08
-7.70322e-09
-3.15434e-08
-4.51918e-09
-3.33789e-08
-9.3366e-10
-3.4779e-08
2.94565e-09
-3.57978e-08
7.00846e-09
-3.64801e-08
1.11259e-08
-3.69132e-08
1.51617e-08
-3.72268e-08
1.89726e-08
-3.76219e-08
2.2434e-08
-3.83494e-08
2.54587e-08
-3.96983e-08
2.80184e-08
-4.19494e-08
3.01448e-08
-4.53482e-08
3.19388e-08
-5.00708e-08
3.35457e-08
-5.62357e-08
3.51528e-08
-6.39015e-08
3.69598e-08
-7.30779e-08
3.91733e-08
-8.3795e-08
4.19874e-08
-9.60152e-08
4.55802e-08
-1.0983e-07
5.01096e-08
-1.25172e-07
5.56963e-08
-1.42249e-07
6.2462e-08
-1.60929e-07
7.04484e-08
-1.81495e-07
7.97523e-08
-2.0371e-07
9.03204e-08
-2.27689e-07
1.02204e-07
-2.5306e-07
1.15261e-07
-2.7922e-07
1.29412e-07
-3.0509e-07
1.44373e-07
-3.29124e-07
1.5997e-07
-3.46075e-07
1.7514e-07
-3.55127e-07
1.90614e-07
-3.35933e-07
2.03008e-07
-2.88649e-07
2.17425e-07
-1.60517e-07
2.37324e-07
7.17886e-08
4.69575e-07
2.80841e-07
-2.8721e-10
4.18167e-09
-1.0983e-09
1.13258e-08
-2.37434e-09
1.64556e-08
-4.05097e-09
1.83917e-08
-6.01134e-09
1.72007e-08
-8.13635e-09
1.37493e-08
-1.02787e-08
8.66892e-09
-1.22321e-08
2.42581e-09
-1.37662e-08
-4.43587e-09
-1.4684e-08
-1.12972e-08
-1.48642e-08
-1.76168e-08
-1.42664e-08
-2.3067e-08
-1.29188e-08
-2.75746e-08
-1.08913e-08
-3.12267e-08
-8.2748e-09
-3.41589e-08
-5.16771e-09
-3.64853e-08
-1.66612e-09
-3.82789e-08
2.12999e-09
-3.95933e-08
6.11863e-09
-4.0467e-08
1.01802e-08
-4.09741e-08
1.41806e-08
-4.12259e-08
1.79755e-08
-4.14158e-08
2.14311e-08
-4.18034e-08
2.44375e-08
-4.27037e-08
2.69382e-08
-4.44478e-08
2.89337e-08
-4.73429e-08
3.04935e-08
-5.16282e-08
3.17341e-08
-5.74754e-08
3.28205e-08
-6.49859e-08
3.3937e-08
-7.41931e-08
3.52798e-08
-8.51357e-08
3.70397e-08
-9.77738e-08
3.93915e-08
-1.12179e-07
4.24958e-08
-1.28275e-07
4.64702e-08
-1.4622e-07
5.1436e-08
-1.65894e-07
5.74265e-08
-1.87483e-07
6.45239e-08
-2.10806e-07
7.26642e-08
-2.35828e-07
8.18586e-08
-2.62253e-07
9.19602e-08
-2.8932e-07
1.02835e-07
-3.15964e-07
1.14209e-07
-3.40496e-07
1.259e-07
-3.57767e-07
1.36986e-07
-3.66211e-07
1.48264e-07
-3.47212e-07
1.57457e-07
-2.97843e-07
1.69683e-07
-1.72744e-07
1.91216e-07
5.02587e-08
4.20922e-07
2.3987e-07
-2.96492e-10
4.47827e-09
-1.13951e-09
1.21698e-08
-2.46235e-09
1.7779e-08
-4.19676e-09
2.01268e-08
-6.22049e-09
1.9225e-08
-8.40695e-09
1.59363e-08
-1.06031e-08
1.08656e-08
-1.25966e-08
4.42021e-09
-1.41532e-08
-2.8786e-09
-1.50755e-08
-1.03739e-08
-1.52454e-08
-1.74462e-08
-1.4628e-08
-2.36834e-08
-1.3257e-08
-2.89449e-08
-1.12074e-08
-3.32756e-08
-8.57408e-09
-3.67911e-08
-5.4581e-09
-3.96006e-08
-1.95647e-09
-4.17788e-08
1.83193e-09
-4.33812e-08
5.8085e-09
-4.44418e-08
9.85691e-09
-4.50219e-08
1.38489e-08
-4.52165e-08
1.76395e-08
-4.52055e-08
2.10894e-08
-4.52517e-08
2.40808e-08
-4.56942e-08
2.65434e-08
-4.69079e-08
2.84566e-08
-4.92553e-08
2.98676e-08
-5.30368e-08
3.08738e-08
-5.84806e-08
3.16183e-08
-6.57284e-08
3.22688e-08
-7.48422e-08
3.30069e-08
-8.58716e-08
3.40144e-08
-9.878e-08
3.54573e-08
-1.13619e-07
3.74923e-08
-1.30309e-07
4.023e-08
-1.48955e-07
4.37865e-08
-1.69449e-07
4.81892e-08
-1.91884e-07
5.35036e-08
-2.16119e-07
5.9663e-08
-2.41985e-07
6.66439e-08
-2.69233e-07
7.43018e-08
-2.96975e-07
8.24667e-08
-3.24128e-07
9.08767e-08
-3.48903e-07
9.93652e-08
-3.66256e-07
1.07157e-07
-3.74001e-07
1.1513e-07
-3.55187e-07
1.22001e-07
-3.04713e-07
1.32986e-07
-1.8373e-07
1.56045e-07
2.72017e-08
3.68177e-07
2.08794e-07
-3.06074e-10
4.78447e-09
-1.18202e-09
1.30467e-08
-2.55352e-09
1.9151e-08
-4.34729e-09
2.19213e-08
-6.43608e-09
2.13145e-08
-8.68572e-09
1.81866e-08
-1.09373e-08
1.31178e-08
-1.29728e-08
6.45663e-09
-1.45528e-08
-1.29792e-09
-1.54777e-08
-9.44784e-09
-1.56304e-08
-1.72928e-08
-1.49788e-08
-2.4334e-08
-1.35605e-08
-3.03624e-08
-1.14547e-08
-3.53806e-08
-8.7607e-09
-3.9484e-08
-5.58387e-09
-4.27767e-08
-2.02485e-09
-4.53361e-08
1.81483e-09
-4.72202e-08
5.83505e-09
-4.84602e-08
9.9193e-09
-4.91054e-08
1.39389e-08
-4.92348e-08
1.775e-08
-4.90156e-08
2.1212e-08
-4.87121e-08
2.42038e-08
-4.8685e-08
2.66475e-08
-4.93492e-08
2.85149e-08
-5.11219e-08
2.98414e-08
-5.43607e-08
3.07083e-08
-5.93465e-08
3.12459e-08
-6.6264e-08
3.1609e-08
-7.52039e-08
3.19662e-08
-8.62266e-08
3.24893e-08
-9.93017e-08
3.33337e-08
-1.1446e-07
3.46482e-08
-1.31622e-07
3.65362e-08
-1.5084e-07
3.91042e-08
-1.72016e-07
4.23751e-08
-1.95152e-07
4.63969e-08
-2.20139e-07
5.11044e-08
-2.46691e-07
5.64459e-08
-2.74573e-07
6.22844e-08
-3.02811e-07
6.84317e-08
-3.30275e-07
7.46403e-08
-3.5511e-07
8.07788e-08
-3.72395e-07
8.62286e-08
-3.79449e-07
9.19539e-08
-3.60913e-07
9.75435e-08
-3.10302e-07
1.08345e-07
-1.94532e-07
1.33189e-07
2.36067e-09
3.11993e-07
1.89375e-07
-3.15981e-10
5.10059e-09
-1.22583e-09
1.39575e-08
-2.64785e-09
2.05736e-08
-4.50266e-09
2.37768e-08
-6.6584e-09
2.3471e-08
-8.97303e-09
2.05018e-08
-1.12815e-08
1.54268e-08
-1.33601e-08
8.53614e-09
-1.49641e-08
3.06788e-10
-1.58913e-08
-8.51949e-09
-1.60247e-08
-1.71585e-08
-1.53341e-08
-2.50236e-08
-1.38596e-08
-3.18362e-08
-1.16837e-08
-3.75557e-08
-8.90929e-09
-4.22572e-08
-5.64583e-09
-4.60394e-08
-1.99809e-09
-4.89821e-08
1.92851e-09
-5.11461e-08
6.02993e-09
-5.25598e-08
1.01865e-08
-5.32612e-08
1.42667e-08
-5.33135e-08
1.81246e-08
-5.28724e-08
2.16185e-08
-5.22043e-08
2.4626e-08
-5.16913e-08
2.70675e-08
-5.17883e-08
2.89116e-08
-5.2965e-08
3.01893e-08
-5.56359e-08
3.09771e-08
-6.01331e-08
3.13972e-08
-6.66821e-08
3.15965e-08
-7.54018e-08
3.17352e-08
-8.6363e-08
3.19767e-08
-9.95417e-08
3.24681e-08
-1.14949e-07
3.33501e-08
-1.32503e-07
3.47185e-08
-1.52205e-07
3.66694e-08
-1.73965e-07
3.92232e-08
-1.97704e-07
4.24109e-08
-2.23325e-07
4.61717e-08
-2.50449e-07
5.04328e-08
-2.78833e-07
5.50655e-08
-3.07442e-07
5.98788e-08
-3.35087e-07
6.46459e-08
-3.59874e-07
6.92892e-08
-3.77039e-07
7.33503e-08
-3.83509e-07
7.78912e-08
-3.65455e-07
8.32448e-08
-3.15654e-07
9.48816e-08
-2.06168e-07
1.21961e-07
-2.47158e-08
2.52665e-07
1.81293e-07
-3.26239e-10
5.42698e-09
-1.27094e-09
1.49032e-08
-2.74535e-09
2.20486e-08
-4.66294e-09
2.56952e-08
-6.88758e-09
2.56963e-08
-9.26912e-09
2.2884e-08
-1.16359e-08
1.77943e-08
-1.37585e-08
1.06596e-08
-1.53867e-08
1.93578e-09
-1.63158e-08
-7.58926e-09
-1.64286e-08
-1.70448e-08
-1.56967e-08
-2.57546e-08
-1.41621e-08
-3.33699e-08
-1.19102e-08
-3.98068e-08
-9.04709e-09
-4.51191e-08
-5.6856e-09
-4.94001e-08
-1.93432e-09
-5.27316e-08
2.09728e-09
-5.5177e-08
6.30057e-09
-5.67613e-08
1.05512e-08
-5.7511e-08
1.4713e-08
-5.74739e-08
1.86363e-08
-5.67947e-08
2.21773e-08
-5.57436e-08
2.52125e-08
-5.47253e-08
2.76626e-08
-5.4236e-08
2.9497e-08
-5.47983e-08
3.07463e-08
-5.68828e-08
3.1487e-08
-6.08726e-08
3.18393e-08
-6.70323e-08
3.19477e-08
-7.55086e-08
3.1968e-08
-8.63811e-08
3.20594e-08
-9.96315e-08
3.23634e-08
-1.1525e-07
3.30144e-08
-1.33153e-07
3.41037e-08
-1.53291e-07
3.57175e-08
-1.75577e-07
3.78757e-08
-1.99859e-07
4.05946e-08
-2.26043e-07
4.38195e-08
-2.53672e-07
4.74638e-08
-2.82476e-07
5.14106e-08
-3.11386e-07
5.5479e-08
-3.39155e-07
5.94655e-08
-3.63858e-07
6.33559e-08
-3.8093e-07
6.68552e-08
-3.87007e-07
7.11399e-08
-3.6974e-07
7.7158e-08
-3.21671e-07
9.04672e-08
-2.19477e-07
1.20238e-07
-5.44832e-08
1.90361e-07
1.82545e-07
-3.36869e-10
5.76402e-09
-1.31737e-09
1.58848e-08
-2.84606e-09
2.35779e-08
-4.82821e-09
2.76781e-08
-7.1237e-09
2.79926e-08
-9.57414e-09
2.53351e-08
-1.20008e-08
2.02216e-08
-1.41682e-08
1.2828e-08
-1.58209e-08
3.58927e-09
-1.67512e-08
-6.65777e-09
-1.68421e-08
-1.6953e-08
-1.60667e-08
-2.6529e-08
-1.44693e-08
-3.49664e-08
-1.2138e-08
-4.21372e-08
-9.18178e-09
-4.80741e-08
-5.71671e-09
-5.28643e-08
-1.85491e-09
-5.65917e-08
2.29032e-09
-5.93214e-08
6.60561e-09
-6.10748e-08
1.09613e-08
-6.18658e-08
1.52159e-08
-6.17269e-08
1.9215e-08
-6.07927e-08
2.28116e-08
-5.93384e-08
2.58812e-08
-5.77937e-08
2.83453e-08
-5.66977e-08
3.01755e-08
-5.66273e-08
3.1405e-08
-5.81098e-08
3.21128e-08
-6.15791e-08
3.24209e-08
-6.73383e-08
3.24747e-08
-7.55609e-08
3.24301e-08
-8.63341e-08
3.24447e-08
-9.96445e-08
3.26584e-08
-1.1546e-07
3.32011e-08
-1.33694e-07
3.41629e-08
-1.5425e-07
3.56221e-08
-1.77035e-07
3.76001e-08
-2.01835e-07
4.01021e-08
-2.28543e-07
4.30804e-08
-2.56648e-07
4.64418e-08
-2.85836e-07
5.00803e-08
-3.15022e-07
5.38357e-08
-3.4291e-07
5.75364e-08
-3.67557e-07
6.1239e-08
-3.84633e-07
6.4816e-08
-3.90582e-07
6.95593e-08
-3.74484e-07
7.69216e-08
-3.29031e-07
9.25217e-08
-2.35077e-07
1.25312e-07
-8.72705e-08
1.25173e-07
1.90503e-07
-3.47895e-10
6.1121e-09
-1.36513e-09
1.69031e-08
-2.95002e-09
2.51634e-08
-4.99855e-09
2.97275e-08
-7.36685e-09
3.03617e-08
-9.88821e-09
2.78572e-08
-1.23763e-08
2.27104e-08
-1.45895e-08
1.50423e-08
-1.62669e-08
5.26751e-09
-1.71979e-08
-5.7256e-09
-1.72655e-08
-1.68845e-08
-1.64444e-08
-2.73489e-08
-1.47817e-08
-3.66282e-08
-1.23678e-08
-4.45501e-08
-9.31517e-09
-5.11255e-08
-5.74277e-09
-5.64358e-08
-1.76623e-09
-6.05664e-08
2.49736e-09
-6.3584e-08
6.92984e-09
-6.55054e-08
1.13961e-08
-6.63311e-08
1.57487e-08
-6.6078e-08
1.98281e-08
-6.4871e-08
2.34839e-08
-6.29923e-08
2.65902e-08
-6.08988e-08
2.90694e-08
-5.91745e-08
3.0896e-08
-5.84526e-08
3.2107e-08
-5.93183e-08
3.27856e-08
-6.22563e-08
3.30575e-08
-6.7608e-08
3.30714e-08
-7.55732e-08
3.29853e-08
-8.62456e-08
3.29578e-08
-9.96153e-08
3.31297e-08
-1.15629e-07
3.36288e-08
-1.34191e-07
3.45461e-08
-1.55164e-07
3.59543e-08
-1.78442e-07
3.78785e-08
-2.03756e-07
4.0316e-08
-2.30979e-07
4.3227e-08
-2.59557e-07
4.65179e-08
-2.89125e-07
5.00949e-08
-3.18597e-07
5.3825e-08
-3.46639e-07
5.75747e-08
-3.71304e-07
6.14747e-08
-3.88533e-07
6.55657e-08
-3.94671e-07
7.1258e-08
-3.80177e-07
8.04057e-08
-3.38177e-07
9.8665e-08
-2.53335e-07
1.34628e-07
-1.2323e-07
5.73499e-08
2.02454e-07
-3.5934e-10
6.47164e-09
-1.41424e-09
1.79591e-08
-3.05723e-09
2.68071e-08
-5.17403e-09
3.18451e-08
-7.61703e-09
3.28056e-08
-1.02114e-08
3.04524e-08
-1.27626e-08
2.52623e-08
-1.50227e-08
1.73034e-08
-1.67252e-08
6.97085e-09
-1.76562e-08
-4.79326e-09
-1.76991e-08
-1.68406e-08
-1.68305e-08
-2.82165e-08
-1.50997e-08
-3.8358e-08
-1.26004e-08
-4.70484e-08
-9.44802e-09
-5.42766e-08
-5.76493e-09
-6.01178e-08
-1.6702e-09
-6.46593e-08
2.71524e-09
-6.79685e-08
7.26828e-09
-7.00565e-08
1.18482e-08
-7.09099e-08
1.63012e-08
-7.05295e-08
2.04627e-08
-6.90312e-08
2.41783e-08
-6.67061e-08
2.73208e-08
-6.404e-08
2.98138e-08
-6.1665e-08
3.16348e-08
-6.02722e-08
3.2825e-08
-6.05059e-08
3.34728e-08
-6.29026e-08
3.37086e-08
-6.78417e-08
3.36854e-08
-7.55483e-08
3.35651e-08
-8.61228e-08
3.35083e-08
-9.95567e-08
3.36584e-08
-1.15776e-07
3.41426e-08
-1.34674e-07
3.50544e-08
-1.56073e-07
3.64629e-08
-1.79848e-07
3.83978e-08
-2.05688e-07
4.08522e-08
-2.33432e-07
4.37939e-08
-2.62496e-07
4.71342e-08
-2.92464e-07
5.07927e-08
-3.22253e-07
5.46683e-08
-3.50513e-07
5.86711e-08
-3.75305e-07
6.30064e-08
-3.92869e-07
6.78808e-08
-3.99544e-07
7.4822e-08
-3.87118e-07
8.59857e-08
-3.49338e-07
1.07028e-07
-2.74376e-07
1.46142e-07
-1.6234e-07
-1.28293e-08
2.16324e-07
-3.71226e-10
6.8431e-09
-1.46471e-09
1.90537e-08
-3.16771e-09
2.85109e-08
-5.35473e-09
3.4033e-08
-7.87421e-09
3.5326e-08
-1.05439e-08
3.31228e-08
-1.31599e-08
2.78791e-08
-1.5468e-08
1.96126e-08
-1.7196e-08
8.69973e-09
-1.81268e-08
-3.86113e-09
-1.81437e-08
-1.68226e-08
-1.72255e-08
-2.91335e-08
-1.54241e-08
-4.01583e-08
-1.28364e-08
-4.9635e-08
-9.58119e-09
-5.75305e-08
-5.78411e-09
-6.39138e-08
-1.56789e-09
-6.88737e-08
2.94254e-09
-7.24779e-08
7.61895e-09
-7.47311e-08
1.23147e-08
-7.56046e-08
1.68698e-08
-7.50829e-08
2.11138e-08
-7.3274e-08
2.48886e-08
-7.04789e-08
2.80657e-08
-6.72157e-08
3.05698e-08
-6.41665e-08
3.23816e-08
-6.20827e-08
3.35471e-08
-6.16689e-08
3.41602e-08
-6.35141e-08
3.43565e-08
-6.80357e-08
3.4294e-08
-7.5484e-08
3.4139e-08
-8.59652e-08
3.4055e-08
-9.94708e-08
3.41888e-08
-1.15907e-07
3.46679e-08
-1.35151e-07
3.55891e-08
-1.56991e-07
3.70194e-08
-1.81277e-07
3.89934e-08
-2.0766e-07
4.15028e-08
-2.35939e-07
4.45228e-08
-2.65514e-07
4.79735e-08
-2.95913e-07
5.17889e-08
-3.26065e-07
5.59023e-08
-3.54626e-07
6.02723e-08
-3.79672e-07
6.51779e-08
-3.97774e-07
7.09842e-08
-4.05348e-07
7.93253e-08
-3.9546e-07
9.26148e-08
-3.62625e-07
1.16364e-07
-2.98123e-07
1.58241e-07
-2.04214e-07
-8.53545e-08
2.3077e-07
-3.83576e-10
7.22693e-09
-1.51655e-09
2.01878e-08
-3.28145e-09
3.02766e-08
-5.54071e-09
3.62932e-08
-8.13858e-09
3.79248e-08
-1.08857e-08
3.58708e-08
-1.35684e-08
3.05626e-08
-1.59256e-08
2.19709e-08
-1.76796e-08
1.04547e-08
-1.86099e-08
-2.92944e-09
-1.85998e-08
-1.68316e-08
-1.76301e-08
-3.0102e-08
-1.57558e-08
-4.20316e-08
-1.30769e-08
-5.23128e-08
-9.71568e-09
-6.08904e-08
-5.80139e-09
-6.7827e-08
-1.46047e-09
-7.32127e-08
3.17799e-09
-7.71152e-08
7.98042e-09
-7.95315e-08
1.27941e-08
-8.0417e-08
1.74523e-08
-7.97394e-08
2.17789e-08
-7.75993e-08
2.56119e-08
-7.43099e-08
2.88214e-08
-7.04237e-08
3.13332e-08
-6.66757e-08
3.31319e-08
-6.38798e-08
3.42682e-08
-6.28026e-08
3.48416e-08
-6.40858e-08