/*--------------------------------*- C++ -*----------------------------------*\
  =========                 |
  \\      /  F ield         | OpenFOAM: The Open Source CFD Toolbox
   \\    /   O peration     | Website:  https://openfoam.org
    \\  /    A nd           | Version:  7
     \\/     M anipulation  |
\*---------------------------------------------------------------------------*/
FoamFile
{
    version     2.0;
    format      ascii;
    class       volScalarField;
    location    "0.25";
    object      nut;
}
// * * * * * * * * * * * * * * * * * * * * * * * * * * * * * * * * * * * * * //

dimensions      [0 2 -1 0 0 0 0];

internalField   nonuniform List<scalar> 
70000
(
9.96266e-12
6.87942e-14
2.56806e-16
8.65169e-17
4.76333e-17
7.83685e-17
2.74912e-17
1.28313e-17
8.68719e-18
6.33094e-18
4.63017e-18
3.44396e-18
2.62016e-18
2.03403e-18
1.60599e-18
1.28641e-18
1.04336e-18
8.55433e-19
7.08024e-19
5.90834e-19
4.96541e-19
4.19832e-19
3.56765e-19
3.0446e-19
2.60613e-19
2.23671e-19
1.92081e-19
1.65182e-19
1.41607e-19
1.21506e-19
1.03266e-19
8.79099e-20
7.33653e-20
6.12822e-20
4.97713e-20
3.94003e-20
3.17107e-20
2.0718e-20
1.97023e-20
5.55907e-21
1.58018e-20
1.42213e-24
3.56819e-20
7.16094e-20
3.92455e-19
2.99214e-18
8.31326e-18
6.42254e-17
8.80413e-15
2.28716e-13
1.04274e-10
5.98798e-12
6.44585e-14
2.14278e-14
2.89192e-16
1.69768e-17
2.51994e-17
2.11501e-17
1.22827e-17
7.30612e-18
4.78652e-18
3.33534e-18
2.41278e-18
1.79527e-18
1.36763e-18
1.06309e-18
8.40818e-19
6.75057e-19
5.4904e-19
4.51624e-19
3.75187e-19
3.14387e-19
2.65465e-19
2.25613e-19
1.92909e-19
1.65666e-19
1.43018e-19
1.23657e-19
1.07545e-19
9.32374e-20
8.15786e-20
7.05962e-20
6.20342e-20
5.35185e-20
4.67416e-20
4.1153e-20
3.36469e-20
3.4304e-20
2.0274e-20
3.8179e-20
7.31068e-21
8.39372e-20
2.32782e-20
4.83333e-19
1.29622e-18
6.19705e-18
3.70766e-17
1.60312e-16
3.57562e-14
4.77148e-14
3.19157e-10
3.39895e-12
1.91069e-13
1.99255e-14
7.71442e-16
5.92352e-17
7.49527e-18
4.29642e-18
2.20036e-18
1.10246e-18
6.17325e-19
3.82104e-19
2.51651e-19
1.72754e-19
1.22553e-19
8.94499e-20
6.69549e-20
5.12633e-20
4.00541e-20
3.18827e-20
2.58188e-20
2.12474e-20
1.77622e-20
1.50723e-20
1.29975e-20
1.13744e-20
1.01482e-20
9.18777e-21
8.54551e-21
8.05787e-21
7.91258e-21
7.86637e-21
8.27516e-21
8.87431e-21
1.00441e-20
1.21305e-20
1.43794e-20
2.09897e-20
2.46907e-20
4.77079e-20
5.72204e-20
1.58286e-19
2.66363e-19
9.68331e-19
3.05868e-18
1.05983e-17
6.84672e-17
2.16678e-16
4.86343e-14
1.4774e-13
6.15339e-09
1.92838e-11
7.85077e-13
6.12118e-14
5.51939e-15
9.37851e-16
1.12789e-16
3.04216e-17
1.28535e-17
5.78856e-18
2.76194e-18
1.45508e-18
8.38758e-19
5.16317e-19
3.33993e-19
2.25148e-19
1.57399e-19
1.13733e-19
8.47299e-20
6.49614e-20
5.11904e-20
4.143e-20
3.44316e-20
2.93924e-20
2.57912e-20
2.32888e-20
2.16677e-20
2.08071e-20
2.06418e-20
2.12117e-20
2.25548e-20
2.49546e-20
2.8529e-20
3.41766e-20
4.19963e-20
5.47734e-20
7.20775e-20
1.02989e-19
1.44852e-19
2.29138e-19
3.52809e-19
6.35869e-19
1.19581e-18
2.58635e-18
7.35396e-18
1.76682e-17
1.1037e-16
1.25765e-16
4.39975e-14
2.09599e-13
2.32064e-09
2.23448e-10
4.46216e-12
3.22501e-13
2.31766e-14
4.44964e-15
7.35032e-16
2.08392e-16
8.59958e-17
3.86902e-17
1.8434e-17
9.58321e-18
5.41846e-18
3.27066e-18
2.07765e-18
1.37743e-18
9.48149e-19
6.75123e-19
4.95864e-19
3.74866e-19
2.91229e-19
2.32272e-19
1.90096e-19
1.5966e-19
1.3769e-19
1.22053e-19
1.1133e-19
1.04688e-19
1.01565e-19
1.01973e-19
1.05825e-19
1.14233e-19
1.27328e-19
1.48805e-19
1.78332e-19
2.27272e-19
2.92057e-19
4.09019e-19
5.61622e-19
8.70548e-19
1.29353e-18
2.22761e-18
3.88224e-18
7.24901e-18
1.8918e-17
3.10989e-17
1.96641e-16
7.65267e-17
3.89738e-14
1.82799e-13
3.00799e-09
5.28544e-09
4.36793e-11
1.95068e-12
1.08733e-13
1.8196e-14
3.30226e-15
9.70453e-16
3.98548e-16
1.80074e-16
8.62467e-17
4.47335e-17
2.50822e-17
1.49738e-17
9.39904e-18
6.15583e-18
4.18599e-18
2.94467e-18
2.13682e-18
1.5959e-18
1.22465e-18
9.64412e-19
7.78927e-19
6.45156e-19
5.48209e-19
4.78323e-19
4.29008e-19
3.96198e-19
3.77138e-19
3.71065e-19
3.77128e-19
3.98243e-19
4.34255e-19
4.96092e-19
5.8153e-19
7.25013e-19
9.11784e-19
1.25235e-18
1.68298e-18
2.56497e-18
3.715e-18
6.24814e-18
1.04255e-17
1.8234e-17
4.39188e-17
5.89665e-17
3.65376e-16
1.12805e-16
3.48692e-14
1.49604e-13
1.07675e-09
4.7671e-09
3.72282e-09
1.85716e-11
6.76044e-13
9.27554e-14
1.5457e-14
4.24135e-15
1.65007e-15
7.25664e-16
3.42766e-16
1.7574e-16
9.73804e-17
5.74467e-17
3.56364e-17
2.30693e-17
1.55071e-17
1.07844e-17
7.73696e-18
5.71284e-18
4.33361e-18
3.37283e-18
2.69124e-18
2.20094e-18
1.84533e-18
1.58734e-18
1.40228e-18
1.27427e-18
1.19238e-18
1.15204e-18
1.14895e-18
1.18936e-18
1.27114e-18
1.42193e-18
1.63343e-18
1.99347e-18
2.45938e-18
3.30815e-18
4.37015e-18
6.52392e-18
9.29851e-18
1.52567e-17
2.48711e-17
4.17081e-17
9.51907e-17
1.20293e-16
6.71885e-16
3.16408e-16
3.16646e-14
1.20551e-13
2.4291e-09
3.8716e-09
8.24076e-10
2.43576e-09
8.69008e-12
7.22303e-13
9.22644e-14
2.11963e-14
7.3297e-15
2.98722e-15
1.33962e-15
6.60809e-16
3.55256e-16
2.04509e-16
1.24296e-16
7.90525e-17
5.23083e-17
3.58586e-17
2.5384e-17
1.85071e-17
1.38687e-17
1.06655e-17
8.40909e-18
6.79396e-18
5.62514e-18
4.77542e-18
4.16055e-18
3.72539e-18
3.43213e-18
3.2616e-18
3.19733e-18
3.24996e-18
3.41019e-18
3.74085e-18
4.21807e-18
5.04379e-18
6.11457e-18
8.05375e-18
1.04818e-17
1.53046e-17
2.15579e-17
3.44698e-17
5.54199e-17
8.99371e-17
1.97264e-16
2.49654e-16
1.21598e-15
8.93454e-16
2.95049e-14
9.56345e-14
3.37085e-09
4.37237e-09
5.92332e-10
3.00492e-10
5.50202e-10
1.88556e-11
9.78627e-13
1.49655e-13
4.11723e-14
1.45029e-14
5.86573e-15
2.67753e-15
1.35584e-15
7.44558e-16
4.35649e-16
2.68526e-16
1.73054e-16
1.15973e-16
8.04833e-17
5.76508e-17
4.25149e-17
3.2215e-17
2.50474e-17
1.9966e-17
1.63132e-17
1.36651e-17
1.17439e-17
1.03674e-17
9.41142e-18
8.80601e-18
8.49511e-18
8.48969e-18
8.75766e-18
9.43302e-18
1.04541e-17
1.2261e-17
1.46239e-17
1.88705e-17
2.42273e-17
3.45903e-17
4.82444e-17
7.51722e-17
1.19633e-16
1.89143e-16
4.00634e-16
5.23763e-16
2.19588e-15
2.20711e-15
2.91877e-14
7.7575e-14
3.41251e-09
4.60959e-09
6.74093e-10
1.93977e-10
4.73715e-11
6.75627e-11
3.24228e-10
2.92152e-12
4.0786e-13
1.02897e-13
3.3791e-14
1.33335e-14
6.06205e-15
3.06454e-15
1.67938e-15
9.81595e-16
6.0544e-16
3.91062e-16
2.63002e-16
1.83352e-16
1.32045e-16
9.79734e-17
7.47463e-17
5.85566e-17
4.70722e-17
3.88223e-17
3.28615e-17
2.85739e-17
2.55469e-17
2.35337e-17
2.23462e-17
2.1967e-17
2.22908e-17
2.35941e-17
2.57192e-17
2.96114e-17
3.47731e-17
4.39865e-17
5.57449e-17
7.78433e-17
1.07571e-16
1.63449e-16
2.57666e-16
3.99054e-16
8.17152e-16
1.11629e-15
4.01466e-15
4.9567e-15
3.21577e-14
6.84492e-14
3.21349e-09
4.39338e-09
7.75499e-10
2.02637e-10
3.67952e-11
2.20008e-11
1.36334e-11
2.13051e-11
1.72329e-10
2.41072e-12
3.8548e-13
1.05575e-13
3.81863e-14
1.64618e-14
8.01359e-15
4.27223e-15
2.44787e-15
1.48846e-15
9.51874e-16
6.35912e-16
4.41552e-16
3.17421e-16
2.35551e-16
1.80049e-16
1.41564e-16
1.14403e-16
9.50145e-17
8.1135e-17
7.12809e-17
6.45407e-17
6.02494e-17
5.82175e-17
5.80841e-17
6.0409e-17
6.47648e-17
7.32136e-17
8.46552e-17
1.05002e-16
1.31359e-16
1.79444e-16
2.45633e-16
3.6424e-16
5.68445e-16
8.65305e-16
1.71401e-15
2.43805e-15
7.58321e-15
1.0666e-14
4.06405e-14
7.00718e-14
3.0192e-09
3.97511e-09
8.48349e-10
2.13619e-10
3.91143e-11
2.03301e-11
8.77103e-12
4.72387e-12
4.33808e-12
7.07514e-12
7.93514e-11
5.71158e-12
6.45721e-13
1.68504e-13
6.11326e-14
2.67438e-14
1.32677e-14
7.22366e-15
4.23114e-15
2.63129e-15
1.72142e-15
1.17681e-15
8.36527e-16
6.16051e-16
4.68813e-16
3.68023e-16
2.97746e-16
2.48211e-16
2.13236e-16
1.89021e-16
1.72915e-16
1.63819e-16
1.60367e-16
1.63628e-16
1.72307e-16
1.91081e-16
2.17351e-16
2.64204e-16
3.26011e-16
4.35533e-16
5.89949e-16
8.54084e-16
1.31751e-15
1.97475e-15
3.78217e-15
5.5522e-15
1.51341e-14
2.30002e-14
5.98336e-14
8.71849e-14
2.84793e-09
3.51527e-09
9.10189e-10
2.11134e-10
4.26893e-11
2.19095e-11
9.21251e-12
4.03469e-12
2.56598e-12
2.01267e-12
1.84763e-12
2.20062e-12
4.51234e-12
8.31965e-11
3.51401e-12
5.07025e-13
1.51508e-13
6.08998e-14
2.90254e-14
1.55209e-14
9.0405e-15
5.63429e-15
3.71367e-15
2.56806e-15
1.85277e-15
1.38918e-15
1.07971e-15
8.68635e-16
7.22729e-16
6.22213e-16
5.54039e-16
5.11771e-16
4.8923e-16
4.87819e-16
5.02852e-16
5.45532e-16
6.08919e-16
7.23946e-16
8.79285e-16
1.14724e-15
1.53439e-15
2.16795e-15
3.29694e-15
4.86757e-15
9.0014e-15
1.35002e-14
3.27162e-14
5.17904e-14
1.04242e-13
1.36844e-13
2.67804e-09
3.05989e-09
9.7938e-10
2.00064e-10
4.59262e-11
2.34279e-11
1.05064e-11
4.36156e-12
2.51723e-12
1.70746e-12
1.22942e-12
9.57923e-13
8.38415e-13
8.48264e-13
1.04559e-12
1.81219e-12
7.87298e-12
2.03593e-11
1.04278e-12
2.6291e-13
1.01636e-13
4.86024e-14
2.65528e-14
1.59468e-14
1.03027e-14
7.06637e-15
5.1017e-15
3.85637e-15
3.04102e-15
2.49803e-15
2.13351e-15
1.89805e-15
1.75363e-15
1.69391e-15
1.69651e-15
1.7891e-15
1.94868e-15
2.25533e-15
2.68423e-15
3.40899e-15
4.48342e-15
6.17082e-15
9.21277e-15
1.33808e-14
2.38306e-14
3.61508e-14
7.89119e-14
1.27041e-13
2.16273e-13
2.70971e-13
2.49969e-09
2.62515e-09
1.05943e-09
1.86067e-10
4.93117e-11
2.43887e-11
1.19528e-11
4.90934e-12
2.75329e-12
1.8074e-12
1.22696e-12
8.63628e-13
6.47328e-13
5.1971e-13
4.46947e-13
4.14169e-13
4.1944e-13
4.7641e-13
6.38237e-13
1.13416e-12
3.97752e-12
1.06625e-10
1.62439e-12
3.81945e-13
1.51434e-13
7.62465e-14
4.4339e-14
2.85211e-14
1.98313e-14
1.47179e-14
1.15563e-14
9.57352e-15
8.31867e-15
7.61189e-15
7.27048e-15
7.33769e-15
7.6956e-15
8.57375e-15
9.89904e-15
1.21402e-14
1.55708e-14
2.07688e-14
3.02207e-14
4.3005e-14
7.34369e-14
1.11498e-13
2.21658e-13
3.56793e-13
5.45044e-13
6.71369e-13
2.31347e-09
2.22506e-09
1.14502e-09
1.71777e-10
5.33183e-11
2.49264e-11
1.34541e-11
5.52978e-12
3.06104e-12
2.00652e-12
1.35299e-12
9.2875e-13
6.65975e-13
5.01034e-13
3.93446e-13
3.21762e-13
2.74405e-13
2.44786e-13
2.29414e-13
2.27307e-13
2.40332e-13
2.75151e-13
3.49552e-13
5.15934e-13
9.80273e-13
3.29646e-12
3.75026e-10
3.00971e-12
6.91245e-13
2.92608e-13
1.61396e-13
1.04441e-13
7.54814e-14
5.97908e-14
5.08616e-14
4.65743e-14
4.50716e-14
4.67103e-14
5.08381e-14
5.88462e-14
7.2099e-14
9.17836e-14
1.28178e-13
1.76724e-13
2.86677e-13
4.29649e-13
7.83813e-13
1.24265e-12
1.77387e-12
2.18072e-12
2.12167e-09
1.86585e-09
1.22881e-09
1.58235e-10
5.7991e-11
2.51708e-11
1.50377e-11
6.22271e-12
3.40163e-12
2.2397e-12
1.5228e-12
1.0442e-12
7.41239e-13
5.47834e-13
4.18789e-13
3.29652e-13
2.66968e-13
2.22558e-13
1.91168e-13
1.69397e-13
1.55102e-13
1.4703e-13
1.4466e-13
1.48179e-13
1.58676e-13
1.78651e-13
2.13317e-13
2.73641e-13
3.8507e-13
6.17378e-13
1.21527e-12
3.58026e-12
3.35069e-11
2.01314e-11
3.35865e-12
1.48182e-12
9.24127e-13
7.07095e-13
6.17629e-13
6.00643e-13
6.43298e-13
7.31052e-13
9.28528e-13
1.18971e-12
1.77701e-12
2.55277e-12
4.24607e-12
6.50999e-12
8.81512e-12
1.08192e-11
1.92592e-09
1.54794e-09
1.30423e-09
1.46215e-10
6.30847e-11
2.51905e-11
1.67078e-11
7.01528e-12
3.77999e-12
2.49741e-12
1.7179e-12
1.18481e-12
8.41241e-13
6.20157e-13
4.71435e-13
3.67437e-13
2.93081e-13
2.39187e-13
1.99754e-13
1.70768e-13
1.49527e-13
1.34193e-13
1.23528e-13
1.1672e-13
1.13293e-13
1.13074e-13
1.16178e-13
1.23119e-13
1.34851e-13
1.53207e-13
1.81099e-13
2.24137e-13
2.91556e-13
4.02966e-13
5.94833e-13
9.55945e-13
1.69314e-12
3.43197e-12
8.34717e-12
2.68351e-11
8.1135e-11
2.3305e-10
1.09623e-10
6.91749e-11
6.55539e-11
7.12165e-11
9.29822e-11
1.25317e-10
1.48814e-10
1.70361e-10
1.72845e-09
1.27118e-09
1.3656e-09
1.36614e-10
6.81951e-11
2.50549e-11
1.843e-11
7.93133e-12
4.20726e-12
2.78344e-12
1.93802e-12
1.34707e-12
9.59161e-13
7.08221e-13
5.38912e-13
4.19848e-13
3.34064e-13
2.71323e-13
2.24899e-13
1.90255e-13
1.64296e-13
1.44882e-13
1.30517e-13
1.20147e-13
1.13043e-13
1.08742e-13
1.06986e-13
1.0775e-13
1.11179e-13
1.17768e-13
1.28202e-13
1.43927e-13
1.66716e-13
2.00299e-13
2.49319e-13
3.23694e-13
4.3716e-13
6.17713e-13
9.12591e-13
1.40575e-12
2.28327e-12
3.81121e-12
6.78382e-12
1.2064e-11
2.28592e-11
4.13328e-11
7.52301e-11
1.22778e-10
1.79753e-10
2.39891e-10
1.53204e-09
1.03524e-09
1.40802e-09
1.30382e-10
7.28002e-11
2.48643e-11
2.01441e-11
8.99033e-12
4.69373e-12
3.10286e-12
2.18663e-12
1.53353e-12
1.09587e-12
8.11162e-13
6.18882e-13
4.8327e-13
3.85135e-13
3.13033e-13
2.59429e-13
2.19205e-13
1.88854e-13
1.65936e-13
1.48725e-13
1.35989e-13
1.26851e-13
1.20716e-13
1.17201e-13
1.16158e-13
1.17581e-13
1.21763e-13
1.29104e-13
1.4057e-13
1.57238e-13
1.81455e-13
2.15882e-13
2.66066e-13
3.39209e-13
4.48563e-13
6.16131e-13
8.7383e-13
1.29577e-12
1.95929e-12
3.1243e-12
4.98439e-12
8.38566e-12
1.37784e-11
2.29068e-11
3.60007e-11
5.22387e-11
7.29756e-11
1.33961e-09
8.38943e-10
1.42748e-09
1.28429e-10
7.63012e-11
2.47495e-11
2.17742e-11
1.02093e-11
5.24994e-12
3.4605e-12
2.4673e-12
1.74798e-12
1.2544e-12
9.30959e-13
7.12422e-13
5.58008e-13
4.45904e-13
3.63294e-13
3.01735e-13
2.55453e-13
2.20472e-13
1.94014e-13
1.74107e-13
1.59331e-13
1.48662e-13
1.41398e-13
1.37071e-13
1.35475e-13
1.36559e-13
1.40587e-13
1.47931e-13
1.59513e-13
1.76372e-13
2.00676e-13
2.34957e-13
2.84082e-13
3.54679e-13
4.57663e-13
6.12197e-13
8.42904e-13
1.20939e-12
1.76848e-12
2.70879e-12
4.17074e-12
6.69534e-12
1.06112e-11
1.68648e-11
2.57502e-11
3.68943e-11
5.16691e-11
1.15412e-09
6.79986e-10
1.42109e-09
1.31559e-10
7.81375e-11
2.48561e-11
2.32372e-11
1.16014e-11
5.88793e-12
3.86163e-12
2.78337e-12
1.99437e-12
1.43837e-12
1.07047e-12
8.21742e-13
6.45765e-13
5.17624e-13
4.22945e-13
3.52283e-13
2.99126e-13
2.58965e-13
2.28639e-13
2.05895e-13
1.89103e-13
1.77082e-13
1.69013e-13
1.64354e-13
1.62858e-13
1.64468e-13
1.69478e-13
1.78329e-13
1.92047e-13
2.11851e-13
2.40095e-13
2.79711e-13
3.3583e-13
4.15921e-13
5.31189e-13
7.02243e-13
9.53981e-13
1.34642e-12
1.93743e-12
2.90196e-12
4.38446e-12
6.83842e-12
1.05918e-11
1.63467e-11
2.44487e-11
3.48551e-11
4.89798e-11
9.78474e-10
5.5504e-10
1.38747e-09
1.40458e-10
7.79281e-11
2.53192e-11
2.44551e-11
1.31728e-11
6.62187e-12
4.31242e-12
3.13826e-12
2.27676e-12
1.65181e-12
1.233e-12
9.49535e-13
7.48805e-13
6.02211e-13
4.93598e-13
4.12416e-13
3.51337e-13
3.05246e-13
2.7055e-13
2.44673e-13
2.25749e-13
2.12417e-13
2.03733e-13
1.99073e-13
1.98162e-13
2.00957e-13
2.0782e-13
2.19327e-13
2.36696e-13
2.61471e-13
2.96398e-13
3.45129e-13
4.13552e-13
5.10722e-13
6.4938e-13
8.53465e-13
1.1514e-12
1.60904e-12
2.29338e-12
3.38341e-12
5.04529e-12
7.70515e-12
1.17195e-11
1.76986e-11
2.60341e-11
3.70022e-11
5.20769e-11
8.15377e-10
4.59969e-10
1.32698e-09
1.55655e-10
7.55418e-11
2.62413e-11
2.53673e-11
1.49185e-11
7.46821e-12
4.82023e-12
3.5356e-12
2.59935e-12
1.89916e-12
1.42228e-12
1.09888e-12
8.69767e-13
7.01973e-13
5.77282e-13
4.83935e-13
4.13701e-13
3.60788e-13
3.21108e-13
2.91723e-13
2.70493e-13
2.55853e-13
2.46718e-13
2.42377e-13
2.42528e-13
2.47161e-13
2.56745e-13
2.72041e-13
2.94545e-13
3.26252e-13
3.70476e-13
4.31858e-13
5.17435e-13
6.38412e-13
8.09998e-13
1.06069e-12
1.42467e-12
1.97647e-12
2.79711e-12
4.07732e-12
6.01283e-12
9.02647e-12
1.35098e-11
2.00474e-11
2.907e-11
4.11507e-11
5.78434e-11
6.67129e-10
3.9013e-10
1.24186e-09
1.77385e-10
7.11326e-11
2.76747e-11
2.59428e-11
1.68168e-11
8.44549e-12
5.39371e-12
3.97941e-12
2.96638e-12
2.18526e-12
1.64257e-12
1.27329e-12
1.01167e-12
8.1958e-13
6.76383e-13
5.68991e-13
4.88195e-13
4.27444e-13
3.82091e-13
3.48781e-13
3.25067e-13
3.09148e-13
2.99778e-13
2.96149e-13
2.97936e-13
3.05185e-13
3.18499e-13
3.38893e-13
3.68226e-13
4.09078e-13
4.6551e-13
5.43422e-13
6.51383e-13
8.03277e-13
1.01764e-12
1.32852e-12
1.77772e-12
2.45044e-12
3.44505e-12
4.96815e-12
7.24823e-12
1.07163e-11
1.57968e-11
2.30813e-11
3.30366e-11
4.64979e-11
6.50486e-11
5.35451e-10
3.407e-10
1.13609e-09
2.05365e-10
6.51695e-11
2.95975e-11
2.61914e-11
1.88252e-11
9.57362e-12
6.04294e-12
4.47421e-12
3.38204e-12
2.51533e-12
1.8986e-12
1.47673e-12
1.17793e-12
9.5809e-13
7.9366e-13
6.70105e-13
5.77158e-13
5.07434e-13
4.55652e-13
4.1799e-13
3.91644e-13
3.74547e-13
3.65267e-13
3.6289e-13
3.6707e-13
3.77929e-13
3.9625e-13
4.23373e-13
4.61616e-13
5.14301e-13
5.86442e-13
6.85485e-13
8.21963e-13
1.01297e-12
1.28125e-12
1.66736e-12
2.22245e-12
3.0439e-12
4.24993e-12
6.06548e-12
8.7521e-12
1.27548e-11
1.85247e-11
2.6678e-11
3.77036e-11
5.26716e-11
7.31095e-11
4.21358e-10
3.06908e-10
1.01527e-09
2.38511e-10
5.8417e-11
3.18828e-11
2.61695e-11
2.0879e-11
1.08721e-11
6.77948e-12
5.02526e-12
3.85038e-12
2.89479e-12
2.19567e-12
1.71367e-12
1.37243e-12
1.12098e-12
9.32284e-13
7.90194e-13
6.83323e-13
6.03373e-13
5.44358e-13
5.01923e-13
4.72863e-13
4.54805e-13
4.46105e-13
4.4573e-13
4.53318e-13
4.69095e-13
4.94074e-13
5.30005e-13
5.79788e-13
6.47662e-13
7.39839e-13
8.65645e-13
1.03806e-12
1.27797e-12
1.61327e-12
2.09202e-12
2.77626e-12
3.77708e-12
5.23409e-12
7.39242e-12
1.05445e-11
1.5153e-11
2.16857e-11
3.07933e-11
4.29693e-11
5.94728e-11
8.16856e-11
3.25071e-10
2.84215e-10
8.86722e-10
2.74592e-10
5.1874e-11
3.42883e-11
2.59758e-11
2.28946e-11
1.23577e-11
7.61641e-12
5.63877e-12
4.37527e-12
3.32914e-12
2.5395e-12
1.98909e-12
1.59947e-12
1.31215e-12
1.09586e-12
9.32611e-13
8.09857e-13
7.1832e-13
6.51234e-13
6.03645e-13
5.71892e-13
5.53257e-13
5.45853e-13
5.48516e-13
5.60872e-13
5.83286e-13
6.17059e-13
6.64457e-13
7.29109e-13
8.16378e-13
9.33967e-13
1.09346e-12
1.31083e-12
1.61142e-12
2.02926e-12
2.62093e-12
3.46089e-12
4.67523e-12
6.42588e-12
8.97918e-12
1.2655e-11
1.79345e-11
2.5292e-11
3.54136e-11
4.87771e-11
6.67782e-11
9.0566e-11
2.45939e-10
2.68649e-10
7.5913e-10
3.1011e-10
4.66065e-11
3.64964e-11
2.57376e-11
2.47773e-11
1.40404e-11
8.56854e-12
6.3221e-12
4.96047e-12
3.82374e-12
2.93625e-12
2.30847e-12
1.86384e-12
1.53595e-12
1.28844e-12
1.10117e-12
9.60398e-13
8.55823e-13
7.79822e-13
7.26774e-13
6.92506e-13
6.73909e-13
6.68819e-13
6.75927e-13
6.94856e-13
7.26146e-13
7.71465e-13
8.33712e-13
9.17423e-13
1.02933e-12
1.17897e-12
1.3806e-12
1.65383e-12
2.02916e-12
2.54778e-12
3.27587e-12
4.30157e-12
5.76719e-12
7.85706e-12
1.0859e-11
1.51156e-11
2.11248e-11
2.93578e-11
4.0529e-11
5.50795e-11
7.44847e-11
9.95874e-11
1.82577e-10
2.56947e-10
6.39759e-10
3.4093e-10
4.34582e-11
3.81642e-11
2.55914e-11
2.64333e-11
1.59175e-11
9.65205e-12
7.08377e-12
5.60965e-12
4.38354e-12
3.39225e-12
2.67774e-12
2.17073e-12
1.79716e-12
1.51453e-12
1.30016e-12
1.13908e-12
1.01995e-12
9.34224e-13
8.75543e-13
8.39159e-13
8.21525e-13
8.20164e-13
8.33604e-13
8.61475e-13
9.04536e-13
9.6491e-13
1.04627e-12
1.15427e-12
1.29728e-12
1.48707e-12
1.74106e-12
2.08316e-12
2.54978e-12
3.19031e-12
4.08156e-12
5.32638e-12
7.08414e-12
9.56085e-12
1.3065e-11
1.79561e-11
2.47453e-11
3.38894e-11
4.61197e-11
6.18203e-11
8.24837e-11
1.08596e-10
1.33176e-10
2.46287e-10
5.32355e-10
3.63403e-10
4.29037e-11
3.89794e-11
2.56546e-11
2.77883e-11
1.79684e-11
1.08836e-11
7.93343e-12
6.32663e-12
5.01283e-12
3.91386e-12
3.10323e-12
2.52578e-12
2.10092e-12
1.77904e-12
1.53434e-12
1.35055e-12
1.21532e-12
1.11914e-12
1.05485e-12
1.01706e-12
1.00172e-12
1.00602e-12
1.02828e-12
1.06817e-12
1.1267e-12
1.20656e-12
1.31236e-12
1.4511e-12
1.63311e-12
1.87282e-12
2.19135e-12
2.61759e-12
3.19467e-12
3.98113e-12
5.06532e-12
6.56545e-12
8.65831e-12
1.157e-11
1.56275e-11
2.12005e-11
2.88073e-11
3.88793e-11
5.215e-11
6.89233e-11
9.06543e-11
1.17449e-10
9.56466e-11
2.34427e-10
4.38424e-10
3.75154e-10
4.51425e-11
3.87737e-11
2.59979e-11
2.88057e-11
2.01513e-11
1.22794e-11
8.88175e-12
7.11562e-12
5.71512e-12
4.50712e-12
3.59149e-12
2.93494e-12
2.45274e-12
2.08728e-12
1.8089e-12
1.59994e-12
1.4471e-12
1.33991e-12
1.27031e-12
1.23222e-12
1.22105e-12
1.23357e-12
1.26791e-12
1.32375e-12
1.40244e-12
1.50732e-12
1.64412e-12
1.82145e-12
2.05197e-12
2.3532e-12
2.75053e-12
3.27855e-12
3.98784e-12
4.94691e-12
6.25637e-12
8.04994e-12
1.05215e-11
1.39145e-11
1.85712e-11
2.48639e-11
3.33096e-11
4.43041e-11
5.85639e-11
7.62924e-11
9.8867e-11
1.26001e-10
6.77996e-11
2.20071e-10
3.58527e-10
3.75295e-10
5.01972e-11
3.76204e-11
2.66275e-11
2.94954e-11
2.24034e-11
1.38529e-11
9.94035e-12
7.98166e-12
6.49316e-12
5.17755e-12
4.14921e-12
3.40449e-12
2.85841e-12
2.44488e-12
2.12945e-12
1.89289e-12
1.72104e-12
1.60249e-12
1.52828e-12
1.49153e-12
1.48706e-12
1.51117e-12
1.56177e-12
1.63855e-12
1.74324e-12
1.87996e-12
2.05576e-12
2.28113e-12
2.57141e-12
2.94772e-12
3.44026e-12
4.08997e-12
4.95558e-12
6.11614e-12
7.68492e-12
9.81067e-12
1.27032e-11
1.66198e-11
2.1913e-11
2.89496e-11
3.82359e-11
5.01207e-11
6.5286e-11
8.38172e-11
1.0698e-10
1.34107e-10
4.7566e-11
2.02827e-10
2.92393e-10
3.64324e-10
5.78675e-11
3.58136e-11
2.74843e-11
2.99121e-11
2.46459e-11
1.56116e-11
1.11215e-11
8.93074e-12
7.34907e-12
5.9298e-12
4.78299e-12
3.94092e-12
3.324e-12
2.85777e-12
2.50198e-12
2.23549e-12
2.04342e-12
1.91352e-12
1.83587e-12
1.80278e-12
1.80836e-12
1.84842e-12
1.92057e-12
2.02451e-12
2.16241e-12
2.33928e-12
2.56366e-12
2.84824e-12
3.21139e-12
3.67832e-12
4.28453e-12
5.07791e-12
6.12585e-12
7.51821e-12
9.38084e-12
1.18764e-11
1.52284e-11
1.97038e-11
2.5659e-11
3.3447e-11
4.35528e-11
5.62685e-11
7.22237e-11
9.13727e-11
1.14845e-10
1.4163e-10
3.31286e-11
1.83023e-10
2.38961e-10
3.4389e-10
6.76212e-11
3.37802e-11
2.84537e-11
3.01448e-11
2.67923e-11
1.75533e-11
1.24376e-11
9.96999e-12
8.28463e-12
6.76745e-12
5.49903e-12
4.55084e-12
3.85572e-12
3.33205e-12
2.93272e-12
2.63423e-12
2.42104e-12
2.28023e-12
2.20098e-12
2.17468e-12
2.19467e-12
2.25619e-12
2.3565e-12
2.49528e-12
2.67515e-12
2.90212e-12
3.18641e-12
3.54317e-12
3.99418e-12
4.56913e-12
5.30932e-12
6.26996e-12
7.5274e-12
9.1822e-12
1.13721e-11
1.4272e-11
1.8116e-11
2.31752e-11
2.9803e-11
3.83304e-11
4.92103e-11
6.26693e-11
7.92695e-11
9.88308e-11
1.22321e-10
1.48432e-10
2.2978e-11
1.61535e-10
1.96591e-10
3.16436e-10
7.85642e-11
3.19876e-11
2.93896e-11
3.02991e-11
2.87631e-11
1.96616e-11
1.39004e-11
1.11075e-11
9.30172e-12
7.69282e-12
6.3029e-12
5.24081e-12
4.45991e-12
3.87396e-12
3.42817e-12
3.09593e-12
2.86116e-12
2.71048e-12
2.63222e-12
2.61683e-12
2.6568e-12
2.74667e-12
2.88326e-12
3.0662e-12
3.29852e-12
3.58733e-12
3.94469e-12
4.38844e-12
4.94406e-12
5.64611e-12
6.54196e-12
7.69439e-12
9.18867e-12
1.11355e-11
1.36834e-11
1.70166e-11
2.1376e-11
2.70314e-11
3.43251e-11
4.3559e-11
5.51417e-11
6.92332e-11
8.63053e-11
1.06056e-10
1.29288e-10
1.54422e-10
1.59131e-11
1.39598e-10
1.6336e-10
2.84737e-10
8.95296e-11
3.08655e-11
3.01577e-11
3.04755e-11
3.04998e-11
2.19037e-11
1.55195e-11
1.23521e-11
1.04027e-11
8.70708e-12
7.1992e-12
6.01713e-12
5.14293e-12
4.48978e-12
3.99487e-12
3.62766e-12
3.37144e-12
3.21263e-12
3.1389e-12
3.13972e-12
3.20662e-12
3.3333e-12
3.51604e-12
3.75428e-12
4.05144e-12
4.41572e-12
4.86113e-12
5.40841e-12
6.08695e-12
6.93639e-12
8.01036e-12
9.37913e-12
1.11365e-11
1.34022e-11
1.63337e-11
2.01216e-11
2.50087e-11
3.12573e-11
3.91916e-11
4.90764e-11
6.12694e-11
7.58549e-11
9.32153e-11
1.12924e-10
1.35611e-10
1.59523e-10
1.10248e-11
1.18367e-10
1.37348e-10
2.51545e-10
9.92709e-11
3.07358e-11
3.06836e-11
3.07513e-11
3.19763e-11
2.42315e-11
1.73012e-11
1.37133e-11
1.15912e-11
9.81061e-12
8.19141e-12
6.88574e-12
5.91111e-12
5.18581e-12
4.63948e-12
4.23666e-12
3.95984e-12
3.79555e-12
3.73099e-12
3.75467e-12
3.85702e-12
4.03078e-12
4.27144e-12
4.5781e-12
4.95446e-12
5.40977e-12
5.96e-12
6.62886e-12
7.44981e-12
8.4676e-12
9.74207e-12
1.13506e-11
1.33947e-11
1.60018e-11
1.93356e-11
2.35894e-11
2.90031e-11
3.58256e-11
4.43553e-11
5.48148e-11
6.75036e-11
8.24285e-11
9.98811e-11
1.19317e-10
1.41209e-10
1.63675e-10
7.65671e-12
9.85621e-11
1.16813e-10
2.19213e-10
1.06738e-10
3.17512e-11
3.09737e-11
3.11672e-11
3.32027e-11
2.65853e-11
1.92459e-11
1.52007e-11
1.2872e-11
1.10034e-11
9.28174e-12
7.85193e-12
6.77065e-12
5.96832e-12
5.36857e-12
4.93024e-12
4.63457e-12
4.46847e-12
4.41898e-12
4.4737e-12
4.62183e-12
4.85488e-12
5.16732e-12
5.55765e-12
6.02962e-12
6.59336e-12
7.26675e-12
8.07645e-12
9.05992e-12
1.02669e-11
1.17631e-11
1.36324e-11
1.59828e-11
1.89474e-11
2.26932e-11
2.74126e-11
3.33369e-11
4.06964e-11
4.97573e-11
6.06965e-11
7.37481e-11
8.88506e-11
1.06188e-10
1.25127e-10
1.46017e-10
1.66852e-10
5.3389e-12
8.06533e-11
1.00287e-10
1.89278e-10
1.11294e-10
3.3885e-11
3.11126e-11
3.17224e-11
3.42205e-11
2.89015e-11
2.13452e-11
1.68225e-11
1.42508e-11
1.22854e-11
1.04711e-11
8.92006e-12
7.72744e-12
6.84344e-12
6.18863e-12
5.71567e-12
5.40394e-12
5.24091e-12
5.21383e-12
5.30947e-12
5.51566e-12
5.82234e-12
6.22264e-12
6.71405e-12
7.30003e-12
7.99134e-12
8.80752e-12
9.778e-12
1.0944e-11
1.236e-11
1.4097e-11
1.62442e-11
1.89148e-11
2.22449e-11
2.6402e-11
3.15732e-11
3.79766e-11
4.58191e-11
5.53298e-11
6.66364e-11
7.99096e-11
9.5012e-11
1.12044e-10
1.30283e-10
1.49935e-10
1.69014e-10
3.73905e-12
6.49917e-11
8.66284e-11
1.62497e-10
1.12765e-10
3.69604e-11
3.12442e-11
3.23881e-11
3.50922e-11
3.11231e-11
2.35805e-11
1.85854e-11
1.57346e-11
1.36575e-11
1.17592e-11
1.00933e-11
8.78686e-12
7.81708e-12
7.10593e-12
6.60002e-12
6.27621e-12
6.12252e-12
6.12675e-12
6.27505e-12
6.55367e-12
6.95063e-12
7.45714e-12
8.0692e-12
8.7895e-12
9.62895e-12
1.06084e-11
1.17597e-11
1.31275e-11
1.47702e-11
1.67634e-11
1.92004e-11
2.21976e-11
2.5892e-11
3.04478e-11
3.60432e-11
4.28789e-11
5.11343e-11
6.0998e-11
7.25493e-11
8.58902e-11
1.00827e-10
1.17358e-10
1.34716e-10
1.52979e-10
1.70156e-10
2.62971e-12
5.1718e-11
7.50275e-11
1.39142e-10
1.11392e-10
4.06806e-11
3.15333e-11
3.31283e-11
3.58884e-11
3.3208e-11
2.59229e-11
2.04929e-11
1.73303e-11
1.51212e-11
1.31451e-11
1.13736e-11
9.95353e-12
8.8948e-12
8.12644e-12
7.59009e-12
7.25943e-12
7.12285e-12
7.16906e-12
7.38375e-12
7.7514e-12
8.25758e-12
8.89095e-12
9.64533e-12
1.05219e-11
1.15312e-11
1.26947e-11
1.40461e-11
1.5633e-11
1.7517e-11
1.9777e-11
2.25092e-11
2.58308e-11
2.98775e-11
3.4807e-11
4.07852e-11
4.79916e-11
5.65761e-11
6.66843e-11
7.83484e-11
9.16042e-11
1.0621e-10
1.22063e-10
1.3839e-10
1.55139e-10
1.70333e-10
1.85668e-12
4.07595e-11
6.49512e-11
1.19162e-10
1.07703e-10
4.46734e-11
3.21237e-11
3.39165e-11
3.66737e-11
3.51355e-11
2.83347e-11
2.25435e-11
1.90449e-11
1.66794e-11
1.46272e-11
1.27615e-11
1.12311e-11
1.00817e-11
9.25575e-12
8.69225e-12
8.36127e-12
8.25124e-12
8.35195e-12
8.64884e-12
9.12439e-12
9.7611e-12
1.05442e-11
1.14645e-11
1.25207e-11
1.3722e-11
1.509e-11
1.66595e-11
1.84798e-11
2.06153e-11
2.31468e-11
2.61717e-11
2.98062e-11
3.41818e-11
3.94474e-11
4.57537e-11
5.32564e-11
6.20743e-11
7.23106e-11
8.39514e-11
9.69748e-11
1.11084e-10
1.26123e-10
1.41269e-10
1.56408e-10
1.69673e-10
1.31526e-12
3.19009e-11
5.60752e-11
1.02289e-10
1.02349e-10
4.8555e-11
3.31099e-11
3.47481e-11
3.74987e-11
3.69073e-11
3.07742e-11
2.47303e-11
2.08838e-11
1.8336e-11
1.62043e-11
1.4256e-11
1.2622e-11
1.1382e-11
1.04989e-11
9.91231e-12
9.58886e-12
9.51652e-12
9.68621e-12
1.00833e-11
1.06879e-11
1.14787e-11
1.24366e-11
1.35479e-11
1.4808e-11
1.62236e-11
1.78154e-11
1.96184e-11
2.1683e-11
2.40746e-11
2.68752e-11
3.01815e-11
3.41071e-11
3.87771e-11
4.43289e-11
5.08965e-11
5.86101e-11
6.75578e-11
7.78007e-11
8.92841e-11
1.0193e-10
1.15406e-10
1.29492e-10
1.4335e-10
1.56827e-10
1.6815e-10
9.34318e-13
2.48555e-11
4.82154e-11
8.81354e-11
9.59772e-11
5.19934e-11
3.45226e-11
3.56428e-11
3.83961e-11
3.8545e-11
3.32008e-11
2.70396e-11
2.28507e-11
2.00954e-11
1.78757e-11
1.58553e-11
1.41272e-11
1.27993e-11
1.18604e-11
1.12554e-11
1.09486e-11
1.09268e-11
1.1182e-11
1.16993e-11
1.24564e-11
1.34272e-11
1.45866e-11
1.59154e-11
1.7404e-11
1.90556e-11
2.08887e-11
2.29373e-11
2.52519e-11
2.78983e-11
3.09577e-11
3.4525e-11
3.87093e-11
4.36278e-11
4.94051e-11
5.61568e-11
6.39879e-11
7.29563e-11
8.30837e-11
9.42792e-11
1.06414e-10
1.19134e-10
1.32144e-10
1.44672e-10
1.56415e-10
1.65715e-10
6.65264e-13
1.93197e-11
4.12672e-11
7.62784e-11
8.9144e-11
5.47544e-11
3.63279e-11
3.66396e-11
3.93846e-11
4.00835e-11
3.55808e-11
2.94511e-11
2.49459e-11
2.19619e-11
1.96411e-11
1.75567e-11
1.57462e-11
1.43357e-11
1.33436e-11
1.27258e-11
1.24458e-11
1.24891e-11
1.28483e-11
1.35082e-11
1.44433e-11
1.56217e-11
1.70111e-11
1.85847e-11
2.03264e-11
2.22342e-11
2.43232e-11
2.66255e-11
2.91904e-11
3.20827e-11
3.53822e-11
3.91806e-11
4.35813e-11
4.86923e-11
5.46245e-11
6.14752e-11
6.93246e-11
7.82026e-11
8.8095e-11
9.88798e-11
1.10385e-10
1.22238e-10
1.34099e-10
1.45221e-10
1.55233e-10
1.62632e-10
4.74682e-13
1.50077e-11
3.51624e-11
6.63185e-11
8.22731e-11
5.67204e-11
3.84382e-11
3.77834e-11
4.04734e-11
4.15635e-11
3.78917e-11
3.19396e-11
2.71658e-11
2.39389e-11
2.15013e-11
1.93569e-11
1.74768e-11
1.59917e-11
1.49509e-11
1.43267e-11
1.40847e-11
1.42093e-11
1.4693e-11
1.55197e-11
1.66603e-11
1.80757e-11
1.97246e-11
2.15705e-11
2.35889e-11
2.57712e-11
2.81273e-11
3.06863e-11
3.34954e-11
3.66175e-11
4.01298e-11
4.41201e-11
4.86852e-11
5.39236e-11
5.99324e-11
6.67913e-11
7.4557e-11
8.32345e-11
9.27778e-11
1.03039e-10
1.13812e-10
1.24708e-10
1.35361e-10
1.45037e-10
1.53362e-10
1.58983e-10
3.3941e-13
1.16676e-11
2.98482e-11
5.79081e-11
7.56466e-11
5.78818e-11
4.07282e-11
3.91078e-11
4.16674e-11
4.30242e-11
4.01239e-11
3.44767e-11
2.95018e-11
2.6028e-11
2.34567e-11
2.12525e-11
1.93153e-11
1.77662e-11
1.66831e-11
1.60599e-11
1.5868e-11
1.60915e-11
1.67218e-11
1.77416e-11
1.91169e-11
2.08e-11
2.27384e-11
2.4884e-11
2.72014e-11
2.96734e-11
3.23038e-11
3.51171e-11
3.81575e-11
4.14853e-11
4.51747e-11
4.9309e-11
5.39782e-11
5.92715e-11
6.52726e-11
7.20454e-11
7.96254e-11
8.79961e-11
9.7084e-11
1.06722e-10
1.16672e-10
1.26547e-10
1.35943e-10
1.4419e-10
1.50852e-10
1.54724e-10
2.43295e-13
9.08637e-12
2.52744e-11
5.07624e-11
6.94307e-11
5.83077e-11
4.30601e-11
4.0626e-11
4.2972e-11
4.44998e-11
4.22796e-11
3.70346e-11
3.19405e-11
2.8228e-11
2.55078e-11
2.32399e-11
2.12566e-11
1.9656e-11
1.85392e-11
1.79256e-11
1.77968e-11
1.81377e-11
1.89385e-11
2.01792e-11
2.18198e-11
2.38022e-11
2.60604e-11
2.8532e-11
3.11686e-11
3.39423e-11
3.68491e-11
3.99083e-11
4.31601e-11
4.6662e-11
5.04848e-11
5.47072e-11
5.94131e-11
6.4683e-11
7.05889e-11
7.71804e-11
8.4475e-11
9.24384e-11
1.00975e-10
1.09902e-10
1.1896e-10
1.27763e-10
1.3589e-10
1.42713e-10
1.47737e-10
1.50028e-10
1.74972e-13
7.09153e-12
2.13786e-11
4.46567e-11
6.37091e-11
5.81126e-11
4.53068e-11
4.23291e-11
4.43942e-11
4.60173e-11
4.43711e-11
3.95888e-11