/*--------------------------------*- C++ -*----------------------------------*\
  =========                 |
  \\      /  F ield         | OpenFOAM: The Open Source CFD Toolbox
   \\    /   O peration     | Website:  https://openfoam.org
    \\  /    A nd           | Version:  7
     \\/     M anipulation  |
\*---------------------------------------------------------------------------*/
FoamFile
{
    version     2.0;
    format      ascii;
    class       volScalarField;
    location    "0.25";
    object      p;
}
// * * * * * * * * * * * * * * * * * * * * * * * * * * * * * * * * * * * * * //

dimensions      [0 2 -2 0 0 0 0];

internalField   nonuniform List<scalar> 
70000
(
0.109367
0.0319063
0.019374
0.021803
0.0219527
0.0208713
0.0199036
0.0191616
0.0185348
0.0179756
0.0174706
0.0170119
0.0165919
0.0162041
0.0158428
0.0155036
0.0151827
0.0148768
0.0145832
0.0142997
0.0140241
0.0137547
0.0134896
0.0132275
0.0129667
0.012706
0.012444
0.0121792
0.0119103
0.0116358
0.0113544
0.0110644
0.0107641
0.0104517
0.0101253
0.00978249
0.00942086
0.00903789
0.00862969
0.00819445
0.00772471
0.00722253
0.00667075
0.00608485
0.00542145
0.00473624
0.0039138
0.00313029
0.00206265
0.00118524
0.104999
0.0322732
0.019577
0.0218986
0.0220072
0.0209073
0.0199318
0.0191848
0.0185543
0.0179922
0.017485
0.0170246
0.0166033
0.0162144
0.0158522
0.0155122
0.0151905
0.014884
0.01459
0.014306
0.01403
0.0137602
0.0134948
0.0132324
0.0129714
0.0127104
0.0124481
0.0121831
0.011914
0.0116394
0.0113578
0.0110676
0.0107672
0.0104546
0.010128
0.0097851
0.00942331
0.00904018
0.00863181
0.00819639
0.00772645
0.00722406
0.00667203
0.00608585
0.00542215
0.00473642
0.00391382
0.00312772
0.00206535
0.00123041
0.101419
0.0332132
0.0199174
0.0220277
0.0220815
0.0209521
0.0199641
0.019211
0.0185761
0.0180107
0.0175009
0.0170386
0.0166157
0.0162255
0.0158623
0.0155214
0.015199
0.0148919
0.0145972
0.0143128
0.0140363
0.0137661
0.0135004
0.0132377
0.0129764
0.0127152
0.0124527
0.0121874
0.0119182
0.0116434
0.0113616
0.0110712
0.0107707
0.010458
0.0101312
0.00978817
0.00942626
0.00904301
0.00863453
0.008199
0.00772893
0.00722644
0.00667423
0.00608794
0.00542393
0.0047381
0.00391541
0.00312663
0.00208773
0.00127806
0.0983248
0.0343152
0.0203871
0.0222018
0.0221825
0.0210097
0.0200023
0.019241
0.0186007
0.0180312
0.0175184
0.0170538
0.0166291
0.0162375
0.015873
0.0155312
0.015208
0.0149001
0.0146049
0.0143199
0.014043
0.0137724
0.0135063
0.0132433
0.0129817
0.0127202
0.0124575
0.0121921
0.0119226
0.0116476
0.0113657
0.0110752
0.0107745
0.0104617
0.0101349
0.00979176
0.00942979
0.0090465
0.00863798
0.00820245
0.00773238
0.00722992
0.00667777
0.00609152
0.00542772
0.00474152
0.00392068
0.00312776
0.00212597
0.00132988
0.0953656
0.035412
0.0209533
0.0224226
0.0223172
0.0210877
0.0200515
0.0192782
0.0186309
0.018056
0.0175391
0.0170715
0.0166446
0.0162512
0.0158853
0.0155423
0.0152181
0.0149094
0.0146135
0.0143279
0.0140505
0.0137794
0.0135129
0.0132495
0.0129876
0.0127259
0.0124629
0.0121972
0.0119276
0.0116524
0.0113704
0.0110798
0.010779
0.0104662
0.0101393
0.00979614
0.00943419
0.00905096
0.00864254
0.00820713
0.00773727
0.00723503
0.00668325
0.00609728
0.00543435
0.00474791
0.00393089
0.00313311
0.00217722
0.00139261
0.0924568
0.0364512
0.0215688
0.0226699
0.0224797
0.0211878
0.0201141
0.0193248
0.0186685
0.0180867
0.0175646
0.0170931
0.0166633
0.0162676
0.0158999
0.0155554
0.01523
0.0149203
0.0146235
0.0143371
0.0140591
0.0137874
0.0135205
0.0132567
0.0129944
0.0127324
0.0124691
0.0122033
0.0119334
0.0116581
0.011376
0.0110853
0.0107844
0.0104716
0.0101447
0.00980165
0.00943982
0.00905677
0.00864859
0.00821351
0.00774409
0.00724234
0.00669138
0.00610602
0.00544483
0.00475831
0.0039478
0.00314547
0.00223901
0.00146733
0.0895923
0.0374141
0.0222
0.0229222
0.0226568
0.0213051
0.0201892
0.0193808
0.0187139
0.018124
0.0175956
0.0171194
0.016686
0.0162875
0.0159176
0.0155712
0.0152442
0.0149333
0.0146354
0.0143481
0.0140693
0.013797
0.0135295
0.0132652
0.0130025
0.0127401
0.0124766
0.0122104
0.0119404
0.011665
0.0113827
0.0110919
0.0107911
0.0104783
0.0101515
0.00980862
0.00944703
0.00906432
0.00865659
0.00822207
0.00775341
0.00725251
0.00670288
0.00611858
0.00546022
0.00477406
0.00397277
0.00316773
0.00231037
0.00155313
0.0867782
0.0382925
0.0228308
0.0231676
0.0228376
0.0214333
0.0202733
0.019444
0.0187659
0.0181673
0.0176319
0.0171503
0.0167128
0.0163111
0.0159385
0.01559
0.0152612
0.0149487
0.0146496
0.0143613
0.0140815
0.0138084
0.0135402
0.0132753
0.0130122
0.0127494
0.0124854
0.0122191
0.0119488
0.0116732
0.0113908
0.0111
0.0107992
0.0104865
0.01016
0.00981739
0.0094562
0.00907402
0.00866697
0.0082333
0.00776578
0.00726615
0.00671851
0.00613586
0.00548158
0.00479656
0.00400715
0.00320235
0.00239052
0.00164902
0.0840203
0.0390838
0.0234561
0.023402
0.023016
0.0215675
0.0203631
0.0195119
0.0188226
0.0182151
0.0176725
0.0171853
0.0167433
0.0163381
0.0159626
0.0156117
0.015281
0.0149668
0.0146662
0.0143766
0.0140958
0.0138219
0.0135529
0.0132873
0.0130236
0.0127603
0.012496
0.0122293
0.0119588
0.0116831
0.0114007
0.0111099
0.0108092
0.0104967
0.0101704
0.00982827
0.00946765
0.00908622
0.00868013
0.00824766
0.00778171
0.00728385
0.00673895
0.00615864
0.00550982
0.00482711
0.00405201
0.00325153
0.00247929
0.00175412
0.0813231
0.0397876
0.0240748
0.0236252
0.023189
0.0217049
0.0204564
0.0195824
0.018882
0.018266
0.0177161
0.0172231
0.0167767
0.0163679
0.0159895
0.015636
0.0153032
0.0149872
0.0146851
0.0143942
0.0141123
0.0138373
0.0135675
0.0133012
0.0130369
0.0127731
0.0125084
0.0122414
0.0119707
0.0116948
0.0114123
0.0111216
0.0108211
0.0105089
0.010183
0.00984147
0.00948162
0.00910119
0.00869637
0.00826547
0.00780159
0.00730605
0.0067647
0.00618758
0.00554563
0.00486675
0.00410803
0.00331618
0.00257678
0.00186768
0.07869
0.0404044
0.024686
0.023838
0.0233552
0.021844
0.0205524
0.0196546
0.0189429
0.0183186
0.0177616
0.017263
0.0168121
0.0163997
0.0160183
0.0156623
0.0153273
0.0150096
0.0147059
0.0144136
0.0141305
0.0138546
0.0135839
0.0133169
0.0130519
0.0127876
0.0125225
0.0122552
0.0119843
0.0117083
0.0114258
0.0111352
0.010835
0.0105232
0.0101979
0.0098571
0.00949823
0.00911907
0.00871585
0.00828691
0.00782562
0.00733301
0.00679607
0.00622304
0.00558935
0.00491614
0.00417537
0.00339644
0.00268342
0.00198926
0.0761239
0.0409344
0.0252883
0.0240413
0.0235137
0.021984
0.0206505
0.0197278
0.0190049
0.0183725
0.0178084
0.0173041
0.0168489
0.0164329
0.0160485
0.0156901
0.015353
0.0150334
0.0147282
0.0144346
0.0141503
0.0138733
0.0136018
0.013334
0.0130685
0.0128037
0.0125382
0.0122706
0.0119995
0.0117235
0.0114411
0.0111507
0.0108508
0.0105395
0.010215
0.00987511
0.00951745
0.00913983
0.00873855
0.00831198
0.00785382
0.00736475
0.00683306
0.00626511
0.00564095
0.00497545
0.00425365
0.00349155
0.00279941
0.00211869
0.0736274
0.0413783
0.0258798
0.0242365
0.0236638
0.022124
0.0207507
0.0198019
0.0190674
0.0184272
0.0178562
0.0173462
0.0168866
0.016467
0.0160798
0.0157189
0.0153797
0.0150583
0.0147516
0.0144566
0.0141712
0.0138933
0.0136209
0.0133525
0.0130863
0.0128211
0.0125552
0.0122874
0.0120162
0.0117402
0.0114579
0.0111678
0.0108684
0.0105577
0.0102341
0.00989533
0.00953911
0.0091633
0.00876431
0.00834051
0.00788601
0.00740106
0.00687543
0.00631356
0.00570005
0.00504429
0.00434206
0.00359992
0.00292467
0.00225587
0.071203
0.0417369
0.026458
0.0244248
0.0238049
0.0222633
0.0208528
0.019877
0.0191305
0.0184825
0.0179047
0.0173891
0.016925
0.0165019
0.0161118
0.0157485
0.0154072
0.0150841
0.0147758
0.0144796
0.0141931
0.0139142
0.013641
0.0133719
0.0131052
0.0128395
0.0125733
0.0123053
0.012034
0.0117581
0.0114761
0.0111864
0.0108875
0.0105776
0.010255
0.00991756
0.00956299
0.00918925
0.00879287
0.00837222
0.00792186
0.00744162
0.00692274
0.00636795
0.00576598
0.00512187
0.00443949
0.0037195
0.00305873
0.00240078
0.068853
0.0420114
0.02702
0.0246079
0.0239368
0.022401
0.0209567
0.019953
0.0191941
0.0185385
0.0179539
0.0174327
0.0169641
0.0165375
0.0161445
0.0157787
0.0154354
0.0151105
0.0148007
0.0145032
0.0142156
0.0139358
0.0136618
0.013392
0.0131248
0.0128587
0.0125923
0.0123242
0.0120529
0.0117771
0.0114954
0.0112061
0.0109079
0.010599
0.0102775
0.00994153
0.00958883
0.00921739
0.00882392
0.00840677
0.00796099
0.007486
0.00697449
0.00642769
0.00583796
0.00520718
0.00454468
0.00384819
0.00320076
0.00255333
0.0665795
0.0422036
0.0275627
0.0247872
0.0240592
0.022536
0.0210622
0.02003
0.019258
0.018595
0.0180038
0.0174769
0.0170038
0.0165737
0.0161777
0.0158095
0.0154641
0.0151375
0.0148262
0.0145274
0.0142387
0.013958
0.0136833
0.0134129
0.0131452
0.0128787
0.0126121
0.0123438
0.0120726
0.011797
0.0115156
0.011227
0.0109295
0.0106216
0.0103013
0.00996706
0.00961641
0.00924749
0.0088572
0.00844387
0.00800304
0.00753378
0.00703015
0.00649218
0.00591523
0.00529914
0.00465642
0.00398404
0.00334994
0.00271353
0.0643842
0.0423154
0.0280829
0.0249641
0.0241719
0.0226675
0.021169
0.0201079
0.0193222
0.018652
0.0180544
0.0175217
0.0170442
0.0166105
0.0162116
0.0158409
0.0154935
0.015165
0.0148523
0.0145522
0.0142624
0.0139808
0.0137053
0.0134343
0.0131662
0.0128994
0.0126326
0.0123642
0.0120931
0.0118178
0.0115368
0.0112488
0.0109521
0.0106453
0.0103265
0.009994
0.00964556
0.00927937
0.0088925
0.00848326
0.00804773
0.00758465
0.00708931
0.00656091
0.00599714
0.00539679
0.00477373
0.00412553
0.00350556
0.00288139
0.0622683
0.0423493
0.0285777
0.0251398
0.0242752
0.0227943
0.0212768
0.0201868
0.0193867
0.0187093
0.0181055
0.0175672
0.0170851
0.0166478
0.016246
0.0158729
0.0155233
0.0151932
0.0148789
0.0145776
0.0142867
0.0140042
0.0137279
0.0134564
0.0131878
0.0129207
0.0126537
0.0123853
0.0121143
0.0118393
0.0115588
0.0112715
0.0109758
0.0106701
0.0103529
0.0100223
0.00967621
0.00931292
0.0089297
0.00852482
0.00809487
0.00763837
0.00715169
0.00663349
0.00608322
0.00549938
0.00489589
0.00427165
0.00366709
0.00305695
0.0602326
0.0423083
0.0290442
0.0253152
0.0243693
0.0229156
0.021385
0.0202667
0.0194514
0.0187669
0.0181571
0.0176133
0.0171266
0.0166857
0.016281
0.0159054
0.0155538
0.0152218
0.0149061
0.0146035
0.0143115
0.0140281
0.0137512
0.013479
0.01321
0.0129426
0.0126754
0.0124071
0.0121363
0.0118616
0.0115816
0.0112951
0.0110004
0.010696
0.0103804
0.0100518
0.00970831
0.0093481
0.00896872
0.00856846
0.00814437
0.00769483
0.00721712
0.00670967
0.00617317
0.00560637
0.00502243
0.00442181
0.00383419
0.00324031
0.0582776
0.0421959
0.0294796
0.0254909
0.0244546
0.0230304
0.0214933
0.0203476
0.0195163
0.0188247
0.0182092
0.0176599
0.0171687
0.0167242
0.0163166
0.0159385
0.0155848
0.0152511
0.0149338
0.0146299
0.014337
0.0140526
0.013775
0.0135022
0.0132328
0.0129651
0.0126979
0.0124296
0.012159
0.0118847
0.0116053
0.0113196
0.011026
0.010723
0.0104091
0.0100827
0.00974187
0.00938491
0.00900958
0.00861418
0.0081962
0.00775397
0.00728553
0.00678931
0.00626684
0.00571746
0.00515312
0.00457578
0.00400672
0.00343159
0.0564031
0.042016
0.0298813
0.025667
0.0245318
0.0231378
0.0216009
0.0204294
0.0195813
0.0188825
0.0182617
0.0177071
0.0172114
0.0167633
0.0163527
0.0159722
0.0156164
0.0152809
0.0149621
0.014657
0.0143629
0.0140777
0.0137994
0.0135261
0.0132562
0.0129884
0.012721
0.0124528
0.0121825
0.0119086
0.0116299
0.011345
0.0110526
0.0107511
0.0104391
0.010115
0.00977693
0.0094234
0.00905232
0.00866202
0.00825039
0.00781581
0.00735693
0.00687237
0.00636418
0.00583248
0.00528786
0.00473357
0.00418465
0.00363084
0.0546089
0.041773
0.0302467
0.0258435
0.0246016
0.0232373
0.0217072
0.020512
0.0196464
0.0189404
0.0183146
0.0177548
0.0172545
0.0168028
0.0163893
0.0160064
0.0156485
0.0153113
0.014991
0.0146846
0.0143895
0.0141034
0.0138244
0.0135506
0.0132804
0.0130123
0.0127449
0.0124768
0.0122067
0.0119333
0.0116554
0.0113715
0.0110803
0.0107804
0.0104703
0.0101486
0.00981354
0.00946362
0.00909697
0.00871202
0.008307
0.00788039
0.00743135
0.00695884
0.0064652
0.00595137
0.00542665
0.0048953
0.00436805
0.00383805
0.0528939
0.0414716
0.0305736
0.0260197
0.0246648
0.0233282
0.0218114
0.0205952
0.0197117
0.0189981
0.0183676
0.017803
0.0172982
0.0168429
0.0164265
0.0160412
0.0156813
0.0153423
0.0150205
0.0147129
0.0144167
0.0141298
0.01385
0.0135757
0.0133052
0.0130369
0.0127695
0.0125015
0.0122318
0.011959
0.0116818
0.0113989
0.011109
0.0108108
0.0105028
0.0101837
0.00985176
0.00950563
0.00914362
0.00876426
0.00836609
0.00794778
0.00750888
0.00704875
0.00656993
0.00607412
0.00556953
0.00506115
0.00455698
0.00405315
0.0512571
0.0411168
0.0308601
0.0261949
0.0247223
0.0234102
0.0219126
0.0206788
0.0197771
0.0190556
0.0184207
0.0178515
0.0173424
0.0168835
0.0164642
0.0160765
0.0157145
0.0153738
0.0150506
0.0147417
0.0144445
0.0141567
0.0138763
0.0136015
0.0133307
0.0130622
0.0127948
0.0125271
0.0122577
0.0119855
0.0117092
0.0114274
0.011139
0.0108425
0.0105368
0.0102203
0.00989165
0.00954949
0.00919232
0.00881881
0.00842774
0.00801804
0.00758956
0.00714213
0.0066784
0.00620077
0.00571655
0.00523126
0.00475143
0.00427572
0.0496968
0.040714
0.0311045
0.0263677
0.0247752
0.0234832
0.0220101
0.0207626
0.0198426
0.0191129
0.0184739
0.0179004
0.017387
0.0169245
0.0165024
0.0161124
0.0157484
0.0154059
0.0150812
0.0147711
0.014473
0.0141844
0.0139033
0.013628
0.0133569
0.0130883
0.012821
0.0125535
0.0122846
0.012013
0.0117376
0.011457
0.0111701
0.0108756
0.0105721
0.0102585
0.00993328
0.00959528
0.00924317
0.00887573
0.00849204
0.00809123
0.00767347
0.00723904
0.00679067
0.00633135
0.00586775
0.00540578
0.00495136
0.00450546
0.0482112
0.0402686
0.0313056
0.0265364
0.0248243
0.0235471
0.0221029
0.020846
0.0199082
0.0191698
0.0185269
0.0179495
0.017432
0.016966
0.0165411
0.0161487
0.0157828
0.0154386
0.0151125
0.0148012
0.014502
0.0142126
0.013931
0.0136553
0.0133838
0.0131152
0.0128479
0.0125807
0.0123123
0.0120415
0.0117671
0.0114878
0.0112025
0.0109099
0.0106089
0.0102983
0.00997671
0.00964307
0.00929622
0.00893511
0.00855904
0.00816742
0.00776068
0.00733951
0.00690677
0.00646589
0.00602317
0.00558479
0.00515667
0.00474195
0.046798
0.0397862
0.0314624
0.0266991
0.0248706
0.0236021
0.0221902
0.0209288
0.0199739
0.0192263
0.0185797
0.0179988
0.0174773
0.0170079
0.0165803
0.0161856
0.0158177
0.0154719
0.0151444
0.0148319
0.0145318
0.0142416
0.0139594
0.0136832
0.0134116
0.0131429
0.0128757
0.0126089
0.0123411
0.012071
0.0117976
0.0115197
0.0112361
0.0109457
0.0106473
0.0103398
0.010022
0.00969292
0.00935154
0.00899701
0.00862882
0.00824668
0.00785123
0.00744358
0.00702671
0.00660443
0.00618282
0.00576831
0.00536723
0.00498468
0.0454549
0.0392726
0.0315747
0.0268536
0.0249149
0.0236487
0.0222714
0.0210102
0.0200396
0.0192824
0.0186321
0.0180481
0.017523
0.0170502
0.0166199
0.016223
0.0158532
0.0155057
0.0151768
0.0148632
0.0145621
0.0142712
0.0139884
0.0137119
0.0134401
0.0131714
0.0129044
0.012638
0.0123708
0.0121016
0.0118294
0.0115529
0.0112712
0.010983
0.0106873
0.010383
0.0100692
0.0097449
0.00940922
0.0090615
0.00870146
0.00832905
0.00794517
0.00755129
0.00715051
0.00674697
0.00634667
0.00595631
0.00558281
0.00523309
0.0441791
0.0387331
0.0316425
0.0269974
0.0249577
0.0236873
0.0223456
0.0210898
0.0201051
0.019338
0.0186841
0.0180974
0.0175689
0.0170929
0.0166598
0.0162608
0.0158891
0.0155401
0.0152099
0.0148952
0.0145932
0.0143016
0.0140182
0.0137414
0.0134694
0.0132007
0.012934
0.012668
0.0124015
0.0121333
0.0118623
0.0115874
0.0113076
0.0110217
0.0107289
0.0104281
0.0101185
0.00979907
0.00946931
0.00912864
0.008777
0.00841459
0.00804254
0.00766264
0.00727817
0.0068935
0.0065147
0.0061487
0.00580316
0.00548659
0.0429679
0.0381733
0.0316666
0.0271278
0.0249996
0.0237187
0.0224124
0.0211667
0.0201703
0.0193932
0.0187355
0.0181465
0.017615
0.0171358
0.0167002
0.016299
0.0159256
0.0155751
0.0152435
0.0149277
0.0146249
0.0143326
0.0140488
0.0137717
0.0134995
0.013231
0.0129646
0.0126991
0.0124333
0.0121661
0.0118964
0.0116232
0.0113454
0.0110621
0.0107723
0.0104751
0.0101697
0.00985551
0.00953187
0.0091985
0.0088555
0.00850335
0.00814337
0.00777766
0.00740967
0.007044
0.00668682
0.00634535
0.00602796
0.00574455
0.0418183
0.0375982
0.031648
0.0272426
0.0250404
0.0237436
0.0224715
0.0212405
0.0202349
0.0194478
0.0187862
0.0181953
0.0176611
0.017179
0.0167409
0.0163377
0.0159626
0.0156106
0.0152778
0.0149609
0.0146573
0.0143643
0.0140801
0.0138027
0.0135305
0.0132621
0.0129961
0.0127312
0.0124662
0.0122001
0.0119319
0.0116604
0.0113848
0.0111041
0.0108174
0.010524
0.0102232
0.00991427
0.00959698
0.00927113
0.00893701
0.00859534
0.00824767
0.00789634
0.00754499
0.00719841
0.00686293
0.00654605
0.00625685
0.00600633
0.0407273
0.0370126
0.0315884
0.0273397
0.0250799
0.0237627
0.0225226
0.0213102
0.0202987
0.0195019
0.0188362
0.0182436
0.0177072
0.0172224
0.0167818
0.0163767
0.016
0.0156466
0.0153126
0.0149948
0.0146903
0.0143968
0.0141122
0.0138346
0.0135624
0.0132942
0.0130285
0.0127643
0.0125003
0.0122354
0.0119686
0.011699
0.0114257
0.0111477
0.0108644
0.0105749
0.0102787
0.00997541
0.00966468
0.00934658
0.00902157
0.00869061
0.00835545
0.00801866
0.00768407
0.00735664
0.0070429
0.00675059
0.00648941
0.00627126
0.0396919
0.0364206
0.0314899
0.0274171
0.0251175
0.0237768
0.0225656
0.0213754
0.0203611
0.0195553
0.0188854
0.0182914
0.0177532
0.017266
0.0168231
0.0164161
0.0160378
0.0156831
0.015348
0.0150292
0.0147241
0.01443
0.014145
0.0138673
0.0135952
0.0133272
0.013062
0.0127985
0.0125355
0.0122719
0.0120067
0.0117391
0.0114682
0.0111931
0.0109132
0.0106279
0.0103366
0.010039
0.00973502
0.00942488
0.00910921
0.00878916
0.0084667
0.00814459
0.00782685
0.0075186
0.00722654
0.00695868
0.00672521
0.00653867
0.0387089
0.0358261
0.031355
0.0274734
0.025152
0.0237865
0.0226008
0.0214352
0.0204218
0.019608
0.0189337
0.0183385
0.0177989
0.0173096
0.0168645
0.0164558
0.016076
0.0157201
0.0153839
0.0150643
0.0147585
0.014464
0.0141787
0.0139009
0.0136288
0.0133612
0.0130966
0.0128339
0.0125719
0.0123097
0.0120462
0.0117807
0.0115123
0.0112403
0.010964
0.0106829
0.0103967
0.010105
0.00980805
0.00950608
0.00919995
0.00889101
0.00858139
0.00827408
0.00797324
0.00768414
0.00741365
0.00717
0.00696376
0.00680787
0.0377754
0.0352326
0.0311867
0.0275072
0.0251824
0.0237924
0.0226284
0.0214893
0.0204803
0.0196598
0.0189811
0.0183847
0.0178443
0.0173531
0.0169061
0.0164957
0.0161146
0.0157575
0.0154204
0.0151
0.0147936
0.0144986
0.0142132
0.0139353
0.0136635
0.0133962
0.0131322
0.0128704
0.0126096
0.0123488
0.0120872
0.0118239
0.0115581
0.0112893
0.0110168
0.0107402
0.0104591
0.0101736
0.00988381
0.00959021
0.0092938
0.00899612
0.00869949
0.00840706
0.00812312
0.0078531
0.007604
0.0073842
0.00720455
0.00707818
0.0368884
0.0346429
0.0309881
0.0275179
0.0252072
0.0237948
0.0226488
0.021537
0.0205359
0.0197105
0.0190275
0.0184301
0.0178891
0.0173966
0.0169478
0.0165358
0.0161536
0.0157954
0.0154574
0.0151363
0.0148293
0.0145341
0.0142484
0.0139706
0.013699
0.0134322
0.0131689
0.0129081
0.0126485
0.0123893
0.0121296
0.0118686
0.0116057
0.0113402
0.0110716
0.0107996
0.010524
0.0102448
0.00996232
0.00967727
0.00939076
0.00910449
0.00882095
0.00854343
0.00827637
0.00802529
0.0077973
0.00760089
0.00744705
0.00734891
0.0360451
0.0340594
0.0307624
0.0275048
0.025225
0.0237939
0.0226624
0.0215782
0.0205882
0.0197599
0.0190729
0.0184745
0.0179333
0.0174398
0.0169895
0.0165761
0.0161928
0.0158337
0.0154949
0.0151732
0.0148658
0.0145702
0.0142845
0.0140068
0.0137355
0.0134693
0.0132068
0.012947
0.0126887
0.0124312
0.0121736
0.0119151
0.0116551
0.011393
0.0111285
0.0108613
0.0105912
0.0103185
0.0100436
0.00976727
0.00949081
0.00921608
0.0089457
0.0086831
0.00843282
0.00820048
0.00799325
0.00781967
0.00769072
0.00761937
0.0352426
0.0334843
0.030513
0.0274682
0.0252343
0.0237898
0.0226698
0.0216127
0.0206367
0.0198076
0.0191171
0.0185177
0.0179767
0.0174827
0.0170312
0.0166166
0.0162322
0.0158724
0.0155329
0.0152107
0.0149029
0.0146071
0.0143214
0.0140439
0.013773
0.0135074
0.0132458
0.0129871
0.0127303
0.0124746
0.0122191
0.0119632
0.0117062
0.0114478
0.0111875
0.0109252
0.0106609
0.0103949
0.0101277
0.00986021
0.00959393
0.00933082
0.00907364
0.00882592
0.00859229
0.00837842
0.00819151
0.00804008
0.007935
0.0078889
0.0344785
0.0329191
0.0302433
0.0274082
0.0252337
0.0237822
0.0226715
0.0216403
0.0206807
0.0198534
0.01916
0.0185598
0.0180192
0.017525
0.0170727
0.0166571
0.0162718
0.0159113
0.0155714
0.0152487
0.0149406
0.0146448
0.0143591
0.0140819
0.0138115
0.0135466
0.013286
0.0130285
0.0127733
0.0125194
0.0122662
0.012013
0.0117593
0.0115046
0.0112487
0.0109915
0.0107331
0.0104739
0.0102145
0.00995607
0.00970007
0.00944865
0.00920467
0.00897174
0.00875457
0.00855885
0.00839174
0.00826168
0.00817933
0.00815686
0.0337501
0.0323652
0.0299563
0.0273256
0.0252218
0.0237706
0.0226678
0.0216612
0.0207199
0.0198967
0.0192016
0.0186006
0.0180607
0.0175668
0.017114
0.0166976
0.0163116
0.0159506
0.0156102
0.0152872
0.014979
0.0146832
0.0143977
0.0141208
0.013851
0.0135869
0.0133273
0.0130712
0.0128176
0.0125658
0.012315
0.0120646
0.0118142
0.0115634
0.011312
0.0110601
0.0108078
0.0105555
0.0103042
0.0100548
0.00980919
0.00956948
0.00933865
0.0091204
0.00891944
0.00874146
0.00859355
0.00848399
0.00842314
0.00842261
0.0330553
0.0318235
0.0296553
0.0272215
0.0251978
0.0237546
0.0226592
0.0216755
0.0207539
0.0199373
0.0192416
0.0186401
0.018101
0.0176079
0.0171549
0.016738
0.0163515
0.0159901
0.0156495
0.0153263
0.015018
0.0147222
0.014437
0.0141606
0.0138915
0.0136283
0.0133699
0.0131152
0.0128634
0.0126137
0.0123654
0.012118
0.0118711
0.0116243
0.0113776
0.0111311
0.0108849
0.0106398
0.0103965
0.0101564
0.00992119
0.0096932
0.00947545
0.00927169
0.00908663
0.00892592
0.00879654
0.00870652
0.00866585
0.00868552
0.0323919
0.0312947
0.0293429
0.0270972
0.0251607
0.0237334
0.0226458
0.0216835
0.0207825
0.0199746
0.0192798
0.0186782
0.0181402
0.0176481
0.0171954
0.0167782
0.0163914
0.0160298
0.015689
0.0153658
0.0150576
0.014762
0.0144772
0.0142014
0.013933
0.0136708
0.0134137
0.0131606
0.0129107
0.0126632
0.0124175
0.0121732
0.0119299
0.0116873
0.0114454
0.0112044
0.0109646
0.0107267
0.0104916
0.0102608
0.010036
0.00981969
0.0096149
0.00942539
0.00925588
0.00911191
0.00900029
0.0089288
0.00890692
0.00894499
0.0317579
0.0307791
0.0290217
0.0269541
0.0251102
0.0237064
0.0226279
0.0216853
0.0208053
0.0200084
0.0193159
0.0187147
0.0181779
0.0176873
0.0172354
0.0168182
0.0164313
0.0160696
0.0157289
0.0154058
0.0150978
0.0148025
0.0145182
0.014243
0.0139755
0.0137145
0.0134587
0.0132073
0.0129593
0.0127142
0.0124713
0.0122302
0.0119906
0.0117524
0.0115154
0.0112801
0.0110467
0.0108162
0.0105894
0.0103679
0.0101535
0.0099488
0.0097568
0.00958128
0.00942688
0.00929905
0.00920438
0.00915032
0.00914582
0.0092005
0.0311514
0.0302772
0.0286942
0.026794
0.025046
0.0236727
0.0226053
0.0216814
0.0208224
0.0200381
0.0193497
0.0187496
0.0182143
0.0177254
0.0172746
0.0168578
0.016471
0.0161095
0.015769
0.0154462
0.0151385
0.0148437
0.01456
0.0142856
0.0140191
0.0137593
0.013505
0.0132553
0.0130095
0.0127669
0.0125269
0.0122891
0.0120534
0.0118195
0.0115877
0.0113581
0.0111313
0.0109082
0.0106897
0.0104776
0.0102736
0.0100804
0.00990095
0.00973908
0.00959933
0.00948698
0.00940838
0.0093706
0.00938205
0.00945156
0.0305707
0.0297889
0.0283622
0.0266186
0.0249681
0.0236317
0.0225781
0.0216719
0.0208337
0.0200636
0.0193808
0.0187826
0.0182492
0.0177623
0.017313
0.016897
0.0165106
0.0161494
0.0158093
0.0154869
0.0151797
0.0148855
0.0146025
0.014329
0.0140637
0.0138052
0.0135525
0.0133047
0.0130612
0.0128211
0.0125841
0.0123499
0.0121181
0.0118888
0.0116622
0.0114385
0.0112184
0.0110027
0.0107926
0.0105898
0.0103961
0.0102142
0.0100471
0.00989854
0.0097729
0.00967532
0.00961185
0.00958917
0.00961509
0.00969763
0.0300143
0.0293142
0.0280277
0.0264297
0.0248767
0.0235828
0.0225459
0.0216571
0.0208393
0.0200845
0.019409
0.0188137
0.0182824
0.0177979
0.0173505
0.0169357
0.01655
0.0161893
0.0158497
0.0155279
0.0152214
0.0149279
0.0146458
0.0143734
0.0141092
0.0138522
0.0136013
0.0133555
0.0131143
0.012877
0.0126432
0.0124125
0.0121848
0.0119602
0.0117389
0.0115212
0.0113078
0.0110996
0.0108979
0.0107044
0.0105209
0.0103502
0.0101951
0.0100594
0.00994725
0.00986367
0.00981436
0.00980556
0.00984445
0.00993827
0.0294807
0.028853
0.0276921
0.0262289
0.0247725
0.0235254
0.0225085
0.0216371
0.0208393
0.0201006
0.019434
0.0188426
0.0183139
0.017832
0.0173869
0.0169737
0.0165889
0.0162291
0.0158902
0.0155692
0.0152635
0.014971
0.0146899
0.0144186
0.0141558
0.0139004
0.0136513
0.0134077
0.013169
0.0129345
0.0127039
0.012477
0.0122535
0.0120337
0.0118178
0.0116061
0.0113995
0.0111989
0.0110056
0.0108212
0.0106478
0.010488
0.0103446
0.0102212
0.010122
0.0100516
0.0100155
0.0100193
0.0100697
0.0101731
0.0289684
0.0284051
0.0273569
0.0260181
0.024656
0.0234594
0.0224656
0.021612
0.0208337
0.0201118
0.0194554
0.018869
0.0183435
0.0178646
0.0174222
0.0170109
0.0166275
0.0162686
0.0159308
0.0156108
0.015306
0.0150146
0.0147346
0.0144646
0.0142034
0.0139497
0.0137026
0.0134612
0.0132251
0.0129936
0.0127664
0.0125433
0.0123242
0.0121092
0.0118988
0.0116932
0.0114934
0.0113004
0.0111154
0.0109401
0.0107767
0.0106274
0.0104953
0.0103838
0.0102969
0.0102388
0.0102148
0.01023
0.0102905
0.0104018
0.0284764
0.0279702
0.0270231
0.0257989
0.024528
0.0233845
0.022417
0.0215819
0.0208229
0.0201181
0.019473
0.0188929
0.0183712
0.0178956
0.0174561
0.0170472
0.0166655
0.016308
0.0159713
0.0156525
0.0153489
0.0150587
0.01478
0.0145115
0.0142519
0.0140001
0.0137551
0.0135161
0.0132827
0.0130543
0.0128306
0.0126114
0.0123968
0.0121868
0.0119819
0.0117825
0.0115896
0.011404
0.0112273
0.011061
0.0109072
0.0107682
0.0106471
0.0105469
0.0104714
0.0104249
0.0104119
0.0104372
0.0105063
0.0106241
0.0280035
0.0275481
0.0266917
0.0255726
0.0243895
0.0233007
0.0223623
0.0215468
0.0208068
0.0201194
0.0194868
0.0189139
0.0183968
0.0179249
0.0174887
0.0170824
0.0167028
0.0163469
0.0160117
0.0156942
0.0153921
0.0151032
0.0148261
0.0145592
0.0143014
0.0140515
0.0138088
0.0135724
0.0133418
0.0131166
0.0128965
0.0126814
0.0124712
0.0122663
0.012067
0.0118738
0.0116877
0.0115097
0.0113411
0.0111836
0.0110392
0.0109102
0.0107995
0.01071
0.0106454
0.0106094
0.0106063
0.0106406
0.0107169
0.0108397
0.0275486
0.0271385
0.0263636
0.0253409
0.0242413
0.0232081
0.0223013
0.0215067
0.0207856
0.0201158
0.0194963
0.0189318
0.01842
0.0179523
0.0175198
0.0171166
0.0167394
0.0163855
0.0160519
0.0157361
0.0154355
0.0151482
0.0148727
0.0146076
0.0143517
0.014104
0.0138636
0.0136299
0.0134023
0.0131804
0.012964
0.012753
0.0125475
0.0123477
0.012154
0.0119671
0.0117878
0.0116172
0.0114566
0.0113077
0.0111724
0.0110531
0.0109522
0.0108729
0.0108183
0.010792
0.0107978
0.0108398
0.0109219
0.0110481
0.0271107
0.026741
0.0260393
0.0251048
0.0240846
0.0231071
0.0222339
0.0214614
0.0207595
0.0201072
0.0195017
0.0189465
0.0184409
0.0179778
0.0175493
0.0171496
0.0167752
0.0164235
0.0160919
0.0157778
0.015479
0.0151936
0.0149199
0.0146568
0.014403
0.0141575
0.0139197
0.0136887
0.0134642
0.0132458
0.0130332
0.0128264
0.0126256
0.012431
0.012243
0.0120622
0.0118897
0.0117264
0.0115737
0.0114331
0.0113067
0.0111965
0.0111051
0.0110352
0.0109898
0.0109723
0.010986
0.0110345
0.0111212
0.0112495
0.026689
0.0263554
0.0257195
0.0248656
0.0239202
0.0229981
0.02216
0.0214109
0.0207284
0.0200938
0.0195027
0.0189578
0.0184591
0.0180012
0.0175771
0.0171812
0.0168099
0.0164608
0.0161315
0.0158195
0.0155227
0.0152393
0.0149676
0.0147066
0.014455
0.014212
0.0139768
0.0137488
0.0135275
0.0133126
0.0131039
0.0129015
0.0127054
0.0125159
0.0123336
0.0121591
0.0119932
0.0118371
0.0116921
0.0115597
0.0114417
0.0113403
0.0112577
0.0111966
0.0111597
0.01115
0.0111705
0.0112244
0.0113146
0.0114437
0.0262826
0.0259813
0.0254046
0.0246243
0.0237493
0.0228814
0.0220797
0.0213552
0.0206925
0.0200757
0.0194994
0.0189656
0.0184745
0.0180224
0.0176031
0.0172113
0.0168436
0.0164975
0.0161707
0.015861
0.0155665
0.0152852
0.0150158
0.014757
0.0145079
0.0142675
0.014035
0.0138101
0.0135921
0.0133808
0.0131762
0.0129781
0.0127868
0.0126026
0.0124259
0.0122575
0.0120983
0.0119492
0.0118117
0.0116871
0.0115772
0.0114841
0.0114098
0.0113567
0.0113275
0.0113247
0.0113511
0.0114093
0.0115018
0.0116307
0.0258908
0.0256183
0.025095
0.0243819
0.0235727
0.0227578
0.0219931
0.0212942
0.0206518
0.0200528
0.0194918
0.0189696
0.0184871
0.0180413
0.0176272
0.01724
0.0168761
0.0165333
0.0162093
0.0159023
0.0156102
0.0153313
0.0150643
0.014808
0.0145615
0.0143238
0.0140943
0.0138725
0.0136579
0.0134504
0.0132498
0.0130562
0.0128697
0.0126907
0.0125197
0.0123574
0.0122047
0.0120625
0.0119321
0.0118151
0.0117129
0.0116276
0.011561
0.0115154
0.011493
0.0114963
0.0115275
0.0115889
0.0116827
0.0118103
0.0255128
0.0252662
0.0247909
0.0241391
0.0233915
0.0226277
0.0219003
0.021228
0.0206064
0.0200254
0.0194798
0.01897
0.0184966
0.0180578
0.0176494
0.017267
0.0169074
0.0165682
0.0162474
0.0159432
0.0156538
0.0153775
0.0151132
0.0148595
0.0146157
0.0143809
0.0141545
0.0139359
0.0137249
0.0135213
0.0133248
0.0131357
0.0129541
0.0127803
0.0126149
0.0124586
0.0123122
0.0121767
0.0120533
0.0119434
0.0118486
0.0117705
0.011711
0.0116721
0.0116559
0.0116643
0.0116995
0.0117632
0.0118572
0.0119827
0.0251481
0.0249247
0.0244927
0.0238968
0.0232064
0.0224918
0.0218017
0.0211567
0.0205564
0.0199935
0.0194636
0.0189665
0.018503
0.0180717
0.0176694
0.0172924
0.0169373
0.016602
0.0162847
0.0159837
0.0156972
0.0154238
0.0151622
0.0149114
0.0146705
0.0144387
0.0142155
0.0140004
0.0137931
0.0135933
0.0134011
0.0132165
0.0130397
0.0128711
0.0127113
0.0125609
0.0124207
0.0122916
0.0121749
0.0120719
0.0119839
0.0119126
0.0118596
0.0118267
0.0118158
0.0118286
0.0118668
0.011932
0.0120254
0.0121479
0.024796
0.0245934
0.0242005
0.0236556
0.0230184
0.0223508
0.0216976
0.0210803
0.0205017
0.0199572
0.0194432
0.0189593
0.0185061
0.018083
0.0176873
0.0173159
0.0169658
0.0166348
0.0163213
0.0160236
0.0157403
0.01547
0.0152115
0.0149637
0.0147258
0.0144973
0.0142774
0.0140658
0.0138622
0.0136664
0.0134785
0.0132984
0.0131265
0.0129631
0.0128088
0.0126641
0.0125299
0.0124071
0.0122968
0.0122002
0.0121186
0.0120535
0.0120064
0.0119789
0.0119726
0.0119889
0.0120294
0.0120951
0.0121871
0.012306
0.024456
0.0242721
0.0239145
0.023416
0.0228282