/*--------------------------------*- C++ -*----------------------------------*\
  =========                 |
  \\      /  F ield         | OpenFOAM: The Open Source CFD Toolbox
   \\    /   O peration     | Website:  https://openfoam.org
    \\  /    A nd           | Version:  7
     \\/     M anipulation  |
\*---------------------------------------------------------------------------*/
FoamFile
{
    version     2.0;
    format      ascii;
    class       surfaceScalarField;
    location    "0.25";
    object      phi;
}
// * * * * * * * * * * * * * * * * * * * * * * * * * * * * * * * * * * * * * //

dimensions      [0 3 -1 0 0 0 0];

internalField   nonuniform List<scalar> 
139350
(
6.45131e-08
9.21184e-08
3.19673e-08
3.25458e-08
2.30639e-08
8.90343e-09
1.9581e-08
3.48297e-09
1.76307e-08
1.95021e-09
1.62021e-08
1.42862e-09
1.50706e-08
1.13151e-09
1.41595e-08
9.11065e-10
1.34103e-08
7.49288e-10
1.27794e-08
6.30818e-10
1.22383e-08
5.41113e-10
1.17676e-08
4.70708e-10
1.13536e-08
4.14007e-10
1.09861e-08
3.67489e-10
1.06574e-08
3.28757e-10
1.03613e-08
2.96091e-10
1.0093e-08
2.6823e-10
9.84881e-09
2.44228e-10
9.62545e-09
2.23361e-10
9.42038e-09
2.05072e-10
9.23146e-09
1.8892e-10
9.05691e-09
1.74555e-10
8.89521e-09
1.61694e-10
8.74511e-09
1.50107e-10
8.6055e-09
1.39602e-10
8.47548e-09
1.30022e-10
8.35425e-09
1.2123e-10
8.24114e-09
1.13111e-10
8.13558e-09
1.05561e-10
8.03708e-09
9.84981e-11
7.94525e-09
9.18281e-11
7.85976e-09
8.54966e-11
7.78035e-09
7.94036e-11
7.70683e-09
7.35246e-11
7.6391e-09
6.77308e-11
7.57707e-09
6.203e-11
7.52081e-09
5.6259e-11
7.4704e-09
5.04093e-11
7.42601e-09
4.43865e-11
7.38813e-09
3.78842e-11
7.35671e-09
3.14149e-11
7.33345e-09
2.32644e-11
7.31689e-09
1.65559e-11
7.31251e-09
4.37842e-12
7.31327e-09
-7.54713e-13
7.33732e-09
-2.40472e-11
7.35403e-09
-1.6711e-11
7.44855e-09
-9.45271e-11
7.29568e-09
1.52875e-10
-3.51645e-09
1.08121e-08
1.25945e-07
1.27617e-07
9.12948e-08
6.71956e-08
7.19469e-08
2.82513e-08
6.12365e-08
1.41933e-08
5.48051e-08
8.38164e-09
5.03148e-08
5.91894e-09
4.68345e-08
4.61179e-09
4.4025e-08
3.72055e-09
4.17057e-08
3.06867e-09
3.9751e-08
2.58547e-09
3.8074e-08
2.21813e-09
3.66147e-08
1.93001e-09
3.53305e-08
1.69817e-09
3.419e-08
1.50803e-09
3.3169e-08
1.34971e-09
3.22489e-08
1.21618e-09
3.14149e-08
1.10229e-09
3.06549e-08
1.00418e-09
2.99594e-08
9.18898e-10
2.93203e-08
8.44167e-10
2.8731e-08
7.78193e-10
2.8186e-08
7.1955e-10
2.76806e-08
6.67085e-10
2.72109e-08
6.19861e-10
2.67734e-08
5.77102e-10
2.63652e-08
5.3816e-10
2.5984e-08
5.02488e-10
2.56275e-08
4.69619e-10
2.52939e-08
4.39141e-10
2.49817e-08
4.1071e-10
2.46895e-08
3.83981e-10
2.44163e-08
3.58707e-10
2.41612e-08
3.34542e-10
2.39234e-08
3.11346e-10
2.37024e-08
2.88676e-10
2.34979e-08
2.66551e-10
2.33099e-08
2.44293e-10
2.31381e-08
2.22154e-10
2.29834e-08
1.991e-10
2.28458e-08
1.7552e-10
2.27269e-08
1.50314e-10
2.26273e-08
1.22871e-10
2.25494e-08
9.43959e-11
2.24962e-08
5.76453e-11
2.24679e-08
2.74699e-11
2.24801e-08
-3.61649e-11
2.25053e-08
-4.19134e-11
2.26724e-08
-2.617e-10
2.26165e-08
2.08764e-10
-4.4853e-09
2.35854e-08
1.58753e-07
1.35268e-07
1.36532e-07
8.94169e-08
1.17505e-07
4.72781e-08
1.03336e-07
2.83625e-08
9.33509e-08
1.83669e-08
8.60597e-08
1.32101e-08
8.03613e-08
1.03102e-08
7.57192e-08
8.36262e-09
7.1851e-08
6.93683e-09
6.85692e-08
5.86731e-09
6.57404e-08
5.04689e-09
6.32701e-08
4.40032e-09
6.10898e-08
3.87845e-09
5.91485e-08
3.44935e-09
5.74069e-08
3.09127e-09
5.58344e-08
2.7887e-09
5.44065e-08
2.53022e-09
5.31034e-08
2.30726e-09
5.19091e-08
2.11325e-09
5.08101e-08
1.94309e-09
4.97956e-08
1.79278e-09
4.8856e-08
1.65911e-09
4.79836e-08
1.53951e-09
4.71716e-08
1.43185e-09
4.64143e-08
1.33439e-09
4.57068e-08
1.24568e-09
4.50448e-08
1.16449e-09
4.44246e-08
1.08975e-09
4.38432e-08
1.02056e-09
4.32978e-08
9.56126e-10
4.27861e-08
8.95711e-10
4.2306e-08
8.38733e-10
4.18561e-08
7.84479e-10
4.14349e-08
7.32589e-10
4.10414e-08
6.82164e-10
4.06747e-08
6.33224e-10
4.03347e-08
5.84275e-10
4.00208e-08
5.36119e-10
3.97339e-08
4.85927e-10
3.94735e-08
4.36e-10
3.92426e-08
3.81141e-10
3.90399e-08
3.25625e-10
3.88722e-08
2.62055e-10
3.87371e-08
1.92801e-10
3.86452e-08
1.19289e-10
3.86012e-08
7.87698e-12
3.85966e-08
-3.72688e-11
3.87374e-08
-4.02548e-10
3.88466e-08
9.95492e-11
-4.50154e-09
3.88628e-08
1.75612e-07
1.31171e-07
1.65628e-07
9.94013e-08
1.52746e-07
6.016e-08
1.40146e-07
4.09627e-08
1.29476e-07
2.90368e-08
1.20848e-07
2.18378e-08
1.13748e-07
1.74106e-08
1.07779e-07
1.43313e-08
1.02691e-07
1.20243e-08
9.83027e-08
1.02561e-08
9.44728e-08
8.87679e-09
9.10963e-08
7.77674e-09
8.80937e-08
6.88111e-09
8.54034e-08
6.13961e-09
8.29774e-08
5.51731e-09
8.07771e-08
4.98898e-09
7.87715e-08
4.53584e-09
7.69351e-08
4.14363e-09
7.5247e-08
3.80138e-09
7.36896e-08
3.50049e-09
7.22482e-08
3.23415e-09
7.09104e-08
2.99691e-09
6.96656e-08
2.78433e-09
6.85047e-08
2.59279e-09
6.74198e-08
2.41926e-09
6.64042e-08
2.26124e-09
6.54521e-08
2.11657e-09
6.45585e-08
1.98343e-09
6.37188e-08
1.86024e-09
6.29293e-08
1.74562e-09
6.21867e-08
1.6383e-09
6.14882e-08
1.53725e-09
6.08314e-08
1.44129e-09
6.02142e-08
1.34975e-09
5.96352e-08
1.26117e-09
5.90929e-08
1.17554e-09
5.85868e-08
1.09035e-09
5.81158e-08
1.0071e-09
5.76811e-08
9.20666e-10
5.72812e-08
8.35938e-10
5.69201e-08
7.42212e-10
5.6595e-08
6.50692e-10
5.63152e-08
5.4187e-10
5.60754e-08
4.32663e-10
5.58912e-08
3.03482e-10
5.57617e-08
1.37388e-10
5.56921e-08
3.23252e-11
5.57517e-08
-4.62239e-10
5.59177e-08
-6.6437e-11
-4.26374e-09
5.56799e-08
1.8451e-07
1.23446e-07
1.82343e-07
1.01568e-07
1.76129e-07
6.63745e-08
1.6778e-07
4.9312e-08
1.59171e-07
3.76456e-08
1.51277e-07
2.97312e-08
1.44218e-07
2.44699e-08
1.37932e-07
2.06172e-08
1.32347e-07
1.761e-08
1.27377e-07
1.5226e-08
1.22937e-07
1.33165e-08
1.18951e-07
1.17628e-08
1.15354e-07
1.04778e-08
1.12093e-07
9.40056e-09
1.09123e-07
8.48713e-09
1.06408e-07
7.70491e-09
1.03914e-07
7.02912e-09
1.01617e-07
6.44057e-09
9.94945e-08
5.92426e-09
9.75267e-08
5.46826e-09
9.56978e-08
5.06304e-09
9.39939e-08
4.70086e-09
9.24028e-08
4.37539e-09
9.09142e-08
4.08139e-09
8.9519e-08
3.8145e-09
8.82092e-08
3.57103e-09
8.69779e-08
3.34785e-09
8.58191e-08
3.14226e-09
8.47274e-08
2.95191e-09
8.36982e-08
2.77477e-09
8.27276e-08
2.60896e-09
8.18119e-08
2.45293e-09
8.09482e-08
2.30497e-09
8.01339e-08
2.16403e-09
7.93671e-08
2.02802e-09
7.86457e-08
1.89687e-09
7.79691e-08
1.76697e-09
7.73357e-08
1.64054e-09
7.67464e-08
1.50997e-09
7.61995e-08
1.38287e-09
7.56989e-08
1.24274e-09
7.52417e-08
1.10794e-09
7.48371e-08
9.46487e-10
7.44798e-08
7.89917e-10
7.41856e-08
5.9764e-10
7.39537e-08
3.69318e-10
7.37947e-08
1.91385e-10
7.3753e-08
-4.20587e-10
7.3873e-08
-1.86457e-10
-3.93304e-09
7.35423e-08
1.90343e-07
1.1532e-07
1.91861e-07
1.0005e-07
1.90269e-07
6.79671e-08
1.8617e-07
5.34105e-08
1.80741e-07
4.30752e-08
1.75e-07
3.54715e-08
1.69317e-07
3.01534e-08
1.63847e-07
2.60872e-08
1.58687e-07
2.27697e-08
1.53879e-07
2.00337e-08
1.49426e-07
1.77697e-08
1.45311e-07
1.58778e-08
1.4151e-07
1.42786e-08
1.37997e-07
1.29134e-08
1.34747e-07
1.1738e-08
1.31733e-07
1.07184e-08
1.28934e-07
9.82771e-09
1.2633e-07
9.04463e-09
1.23903e-07
8.35198e-09
1.21635e-07
7.73585e-09
1.19513e-07
7.18488e-09
1.17524e-07
6.68972e-09
1.15657e-07
6.2426e-09
1.13902e-07
5.83701e-09
1.12249e-07
5.46747e-09
1.1069e-07
5.12927e-09
1.0922e-07
4.81841e-09
1.07831e-07
4.53139e-09
1.06517e-07
4.26515e-09
1.05275e-07
4.01702e-09
1.041e-07
3.78454e-09
1.02987e-07
3.56563e-09
1.01934e-07
3.35804e-09
1.00937e-07
3.16036e-09
9.99957e-08
2.96985e-09
9.91062e-08
2.78633e-09
9.8268e-08
2.60514e-09
9.74795e-08
2.42909e-09
9.67412e-08
2.24827e-09
9.60514e-08
2.0726e-09
9.54137e-08
1.88046e-09
9.48256e-08
1.6961e-09
9.42948e-08
1.4772e-09
9.38185e-08
1.26627e-09
9.34088e-08
1.00732e-09
9.30693e-08
7.08788e-10
9.28087e-08
4.52033e-10
9.26594e-08
-2.71263e-10
9.2689e-08
-2.16063e-10
-3.51785e-09
9.22738e-08
1.95505e-07
1.0763e-07
1.98249e-07
9.73055e-08
1.98991e-07
6.72256e-08
1.97801e-07
5.45997e-08
1.95174e-07
4.57021e-08
1.91844e-07
3.88015e-08
1.88124e-07
3.38737e-08
1.84186e-07
3.00252e-08
1.8018e-07
2.67754e-08
1.76217e-07
2.39972e-08
1.72363e-07
2.16233e-08
1.68658e-07
1.95829e-08
1.65122e-07
1.78151e-08
1.61762e-07
1.62729e-08
1.5858e-07
1.49198e-08
1.55572e-07
1.37266e-08
1.52731e-07
1.26692e-08
1.50047e-07
1.17278e-08
1.47514e-07
1.08858e-08
1.4512e-07
1.01294e-08
1.42858e-07
9.44709e-09
1.40719e-07
8.82914e-09
1.38694e-07
8.26728e-09
1.36776e-07
7.75447e-09
1.34959e-07
7.28467e-09
1.33236e-07
6.85263e-09
1.316e-07
6.4538e-09
1.30048e-07
6.08415e-09
1.28573e-07
5.74015e-09
1.27171e-07
5.41862e-09
1.25839e-07
5.11666e-09
1.24573e-07
4.83176e-09
1.2337e-07
4.56124e-09
1.22227e-07
4.30332e-09
1.21142e-07
4.05474e-09
1.20113e-07
3.81518e-09
1.19139e-07
3.57906e-09
1.18219e-07
3.34957e-09
1.17352e-07
3.11495e-09
1.16538e-07
2.88672e-09
1.15779e-07
2.6394e-09
1.15074e-07
2.40099e-09
1.14429e-07
2.1224e-09
1.13844e-07
1.85148e-09
1.13325e-07
1.52533e-09
1.12884e-07
1.14986e-09
1.12524e-07
8.12263e-10
1.12268e-07
-1.48119e-11
1.12196e-07
-1.44472e-10
-3.02717e-09
1.11705e-07
2.0082e-07
1.00395e-07
2.03774e-07
9.43517e-08
2.0535e-07
6.56495e-08
2.05655e-07
5.42945e-08
2.0483e-07
4.65268e-08
2.03359e-07
4.02732e-08
2.01421e-07
3.58118e-08
1.99101e-07
3.23448e-08
1.96507e-07
2.93697e-08
1.9374e-07
2.67638e-08
1.90881e-07
2.44819e-08
1.87991e-07
2.24735e-08
1.85113e-07
2.06933e-08
1.82279e-07
1.91068e-08
1.79511e-07
1.76875e-08
1.76824e-07
1.64133e-08
1.74228e-07
1.52658e-08
1.71726e-07
1.42292e-08
1.69322e-07
1.32898e-08
1.67016e-07
1.24359e-08
1.64806e-07
1.16573e-08
1.62689e-07
1.09453e-08
1.60664e-07
1.02923e-08
1.58728e-07
9.69146e-09
1.56875e-07
9.13707e-09
1.55104e-07
8.6239e-09
1.5341e-07
8.14739e-09
1.51791e-07
7.7034e-09
1.50243e-07
7.28823e-09
1.48763e-07
6.89854e-09
1.47348e-07
6.53118e-09
1.45997e-07
6.18342e-09
1.44706e-07
5.85228e-09
1.43473e-07
5.53578e-09
1.42298e-07
5.23025e-09
1.41178e-07
4.93524e-09
1.40112e-07
4.64449e-09
1.39101e-07
4.36137e-09
1.38143e-07
4.07281e-09
1.37238e-07
3.79112e-09
1.36389e-07
3.48849e-09
1.35596e-07
3.19426e-09
1.34862e-07
2.85656e-09
1.34191e-07
2.52262e-09
1.33585e-07
2.13118e-09
1.33059e-07
1.67546e-09
1.32615e-07
1.25671e-09
1.32262e-07
3.3798e-10
1.32093e-07
2.43342e-11
-2.48362e-09
1.3155e-07
2.06423e-07
9.35036e-08
2.09334e-07
9.14414e-08
2.11061e-07
6.3922e-08
2.11945e-07
5.34103e-08
2.12013e-07
4.64587e-08
2.11635e-07
4.06518e-08
2.10913e-07
3.65334e-08
2.09852e-07
3.34065e-08
2.08488e-07
3.07328e-08
2.06882e-07
2.837e-08
2.05088e-07
2.62758e-08
2.03156e-07
2.44062e-08
2.01126e-07
2.27225e-08
1.99036e-07
2.11968e-08
1.96915e-07
1.98088e-08
1.94786e-07
1.85427e-08
1.92667e-07
1.73848e-08
1.90572e-07
1.63235e-08
1.88513e-07
1.53488e-08
1.86498e-07
1.44516e-08
1.84531e-07
1.3624e-08
1.82618e-07
1.28589e-08
1.8076e-07
1.21501e-08
1.78959e-07
1.1492e-08
1.77217e-07
1.08796e-08
1.75532e-07
1.03083e-08
1.73905e-07
9.774e-09
1.72336e-07
9.27285e-09
1.70823e-07
8.80139e-09
1.69365e-07
8.35639e-09
1.67961e-07
7.93477e-09
1.66611e-07
7.5338e-09
1.65313e-07
7.15042e-09
1.64066e-07
6.78258e-09
1.6287e-07
6.4264e-09
1.61724e-07
6.08136e-09
1.60628e-07
5.74078e-09
1.59581e-07
5.40804e-09
1.58584e-07
5.06934e-09
1.57638e-07
4.73699e-09
1.56745e-07
4.38241e-09
1.55905e-07
4.03399e-09
1.55121e-07
3.64081e-09
1.54399e-07
3.24433e-09
1.53738e-07
2.79178e-09
1.53157e-07
2.25719e-09
1.52654e-07
1.75879e-09
1.52228e-07
7.64065e-10
1.51978e-07
2.74971e-10
-1.91476e-09
1.51409e-07
2.12269e-07
8.68964e-08
2.15142e-07
8.85684e-08
2.16816e-07
6.22483e-08
2.1786e-07
5.23664e-08
2.18273e-07
4.60457e-08
2.18396e-07
4.0529e-08
2.18327e-07
3.66023e-08
2.18035e-07
3.36986e-08
2.17513e-07
3.12541e-08
2.16782e-07
2.91018e-08
2.15863e-07
2.71943e-08
2.14783e-07
2.54864e-08
2.13566e-07
2.39389e-08
2.12239e-07
2.25241e-08
2.10824e-07
2.12235e-08
2.09344e-07
2.00235e-08
2.07815e-07
1.89132e-08
2.06255e-07
1.78834e-08
2.04678e-07
1.69264e-08
2.03094e-07
1.60354e-08
2.01513e-07
1.52045e-08
1.99944e-07
1.44283e-08
1.98392e-07
1.3702e-08
1.96863e-07
1.30212e-08
1.95361e-07
1.2382e-08
1.93888e-07
1.17807e-08
1.92449e-07
1.12138e-08
1.91043e-07
1.06782e-08
1.89674e-07
1.01708e-08
1.88341e-07
9.68879e-09
1.87047e-07
9.22935e-09
1.85791e-07
8.78995e-09
1.84573e-07
8.36763e-09
1.83396e-07
7.96044e-09
1.82258e-07
7.56445e-09
1.8116e-07
7.17915e-09
1.80103e-07
6.79768e-09
1.79088e-07
6.4233e-09
1.78115e-07
6.04202e-09
1.77186e-07
5.66551e-09
1.76303e-07
5.26574e-09
1.75469e-07
4.86834e-09
1.74683e-07
4.42627e-09
1.73956e-07
3.97159e-09
1.73283e-07
3.4643e-09
1.72684e-07
2.85711e-09
1.72159e-07
2.28295e-09
1.71693e-07
1.23003e-09
1.71387e-07
5.81311e-10
-1.35048e-09
1.70823e-07
2.18315e-07
8.05619e-08
2.21192e-07
8.56919e-08
2.22789e-07
6.06511e-08
2.23861e-07
5.1294e-08
2.24383e-07
4.55242e-08
2.24683e-07
4.02288e-08
2.2489e-07
3.63954e-08
2.24975e-07
3.36132e-08
2.24919e-07
3.13107e-08
2.2472e-07
2.93002e-08
2.24385e-07
2.753e-08
2.23918e-07
2.59534e-08
2.23328e-07
2.45283e-08
2.22628e-07
2.32247e-08
2.21828e-07
2.20227e-08
2.20944e-07
2.09083e-08
2.19986e-07
1.98707e-08
2.18968e-07
1.89014e-08
2.17901e-07
1.79935e-08
2.16795e-07
1.71412e-08
2.1566e-07
1.63394e-08
2.14505e-07
1.55839e-08
2.13336e-07
1.48709e-08
2.1216e-07
1.41969e-08
2.10983e-07
1.35588e-08
2.0981e-07
1.29537e-08
2.08645e-07
1.23788e-08
2.07492e-07
1.18316e-08
2.06353e-07
1.13096e-08
2.05231e-07
1.08103e-08
2.04129e-07
1.03314e-08
2.03049e-07
9.87044e-09
2.01992e-07
9.42484e-09
2.00959e-07
8.99279e-09
1.99953e-07
8.57043e-09
1.98975e-07
8.15733e-09
1.98026e-07
7.74661e-09
1.97108e-07
7.34132e-09
1.96222e-07
6.92774e-09
1.95372e-07
6.51637e-09
1.94556e-07
6.0808e-09
1.93782e-07
5.64255e-09
1.93048e-07
5.16054e-09
1.92364e-07
4.65541e-09
1.91727e-07
4.10163e-09
1.91152e-07
3.43215e-09
1.90646e-07
2.78897e-09
1.9018e-07
1.69626e-09
1.89851e-07
9.09472e-10
-8.21558e-10
1.89323e-07
2.24549e-07
7.45062e-08
2.27452e-07
8.27892e-08
2.28985e-07
5.91179e-08
2.30065e-07
5.02144e-08
2.30627e-07
4.4962e-08
2.30976e-07
3.988e-08
2.31272e-07
3.60988e-08
2.31505e-07
3.33799e-08
2.31657e-07
3.11592e-08
2.31725e-07
2.9232e-08
2.31709e-07
2.75458e-08
2.31608e-07
2.60552e-08
2.31419e-07
2.47164e-08
2.31147e-07
2.34975e-08
2.30793e-07
2.23767e-08
2.30363e-07
2.13384e-08
2.29862e-07
2.03711e-08
2.29298e-07
1.94656e-08
2.28677e-07
1.86147e-08
2.28005e-07
1.78125e-08
2.27291e-07
1.70542e-08
2.26539e-07
1.63356e-08
2.25756e-07
1.56534e-08
2.24949e-07
1.50044e-08
2.24122e-07
1.4386e-08
2.2328e-07
1.37957e-08
2.22427e-07
1.32313e-08
2.21568e-07
1.26905e-08
2.20707e-07
1.21713e-08
2.19846e-07
1.16715e-08
2.18988e-07
1.11891e-08
2.18136e-07
1.0722e-08
2.17293e-07
1.02679e-08
2.16461e-07
9.82497e-09
2.15642e-07
9.3896e-09
2.14838e-07
8.96137e-09
2.14051e-07
8.53356e-09
2.13283e-07
8.10886e-09
2.12537e-07
7.67416e-09
2.11815e-07
7.23839e-09
2.11118e-07
6.77756e-09
2.10452e-07
6.3082e-09
2.09817e-07
5.79637e-09
2.09221e-07
5.25073e-09
2.08663e-07
4.65981e-09
2.08154e-07
3.94096e-09
2.07705e-07
3.23793e-09
2.07279e-07
2.12298e-09
2.06965e-07
1.22322e-09
-3.56997e-10
2.065e-07
2.30975e-07
6.87372e-08
2.33913e-07
7.98514e-08
2.35389e-07
5.76415e-08
2.36477e-07
4.91264e-08
2.37072e-07
4.43667e-08
2.37436e-07
3.95161e-08
2.37755e-07
3.57804e-08
2.38034e-07
3.31006e-08
2.38261e-07
3.09321e-08
2.38438e-07
2.90547e-08
2.38568e-07
2.74163e-08
2.38647e-07
2.59755e-08
2.38675e-07
2.46892e-08
2.38648e-07
2.35245e-08
2.38566e-07
2.24586e-08
2.38429e-07
2.1475e-08
2.38239e-07
2.05611e-08
2.37998e-07
1.97072e-08
2.37707e-07
1.89052e-08
2.37371e-07
1.81488e-08
2.36992e-07
1.74328e-08
2.36575e-07
1.6753e-08
2.36123e-07
1.61056e-08
2.35639e-07
1.54877e-08
2.35129e-07
1.48965e-08
2.34595e-07
1.43297e-08
2.34041e-07
1.37853e-08
2.3347e-07
1.32611e-08
2.32886e-07
1.27552e-08
2.32292e-07
1.22658e-08
2.3169e-07
1.1791e-08
2.31083e-07
1.13289e-08
2.30474e-07
1.08771e-08
2.29865e-07
1.04342e-08
2.29258e-07
9.99657e-09
2.28656e-07
9.56374e-09
2.2806e-07
9.12921e-09
2.27474e-07
8.69521e-09
2.26898e-07
8.2495e-09
2.26337e-07
7.79908e-09
2.25792e-07
7.32289e-09
2.25268e-07
6.8321e-09
2.24764e-07
6.3002e-09
2.24291e-07
5.72458e-09
2.23845e-07
5.1058e-09
2.23434e-07
4.3512e-09
2.23073e-07
3.59893e-09
2.22719e-07
2.47705e-09
2.22452e-07
1.49034e-09
2.00115e-11
2.22075e-07
2.37601e-07
6.32608e-08
2.40578e-07
7.68743e-08
2.41998e-07
5.62222e-08
2.43093e-07
4.8031e-08
2.43725e-07
4.37347e-08
2.44102e-07
3.91391e-08
2.44426e-07
3.54563e-08
2.44718e-07
3.28085e-08
2.44968e-07
3.0682e-08
2.45182e-07
2.88407e-08
2.45366e-07
2.72324e-08
2.45521e-07
2.58209e-08
2.45645e-07
2.4565e-08
2.45738e-07
2.34321e-08
2.45797e-07
2.23993e-08
2.45822e-07
2.14498e-08
2.45812e-07
2.05708e-08
2.45768e-07
1.97519e-08
2.45688e-07
1.89847e-08
2.45575e-07
1.82625e-08
2.45428e-07
1.75796e-08
2.45249e-07
1.69314e-08
2.45041e-07
1.63139e-08
2.44805e-07
1.5724e-08
2.44542e-07
1.51588e-08
2.44256e-07
1.46158e-08
2.43949e-07
1.40928e-08
2.43622e-07
1.35878e-08
2.43278e-07
1.30989e-08
2.4292e-07
1.26243e-08
2.42549e-07
1.2162e-08
2.42168e-07
1.17103e-08
2.41778e-07
1.12669e-08
2.41382e-07
1.08304e-08
2.40981e-07
1.03971e-08
2.40578e-07
9.96648e-09
2.40175e-07
9.53235e-09
2.39774e-07
9.09625e-09
2.39377e-07
8.64697e-09
2.38986e-07
8.18944e-09
2.38604e-07
7.70569e-09
2.38234e-07
7.20158e-09
2.37877e-07
6.65761e-09
2.3754e-07
6.06153e-09
2.37223e-07
5.42295e-09
2.36929e-07
4.64511e-09
2.36673e-07
3.85429e-09
2.36413e-07
2.73744e-09
2.36215e-07
1.68839e-09
2.95763e-10
2.35939e-07
2.44436e-07
5.80806e-08
2.47452e-07
7.38587e-08
2.48816e-07
5.48582e-08
2.49914e-07
4.69327e-08
2.50585e-07
4.3064e-08
2.50979e-07
3.87454e-08
2.51308e-07
3.51274e-08
2.51605e-07
3.25106e-08
2.51863e-07
3.0424e-08
2.52088e-07
2.86156e-08
2.5229e-07
2.70313e-08
2.5247e-07
2.56402e-08
2.52631e-07
2.44039e-08
2.52773e-07
2.32906e-08
2.52894e-07
2.22776e-08
2.52996e-07
2.13486e-08
2.53076e-07
2.04905e-08
2.53135e-07
1.96932e-08
2.53171e-07
1.8948e-08
2.53186e-07
1.8248e-08
2.53178e-07
1.75873e-08
2.53148e-07
1.69611e-08
2.53097e-07
1.63653e-08
2.53025e-07
1.57963e-08
2.52932e-07
1.52511e-08
2.52821e-07
1.47271e-08
2.52692e-07
1.4222e-08
2.52546e-07
1.37337e-08
2.52385e-07
1.32602e-08
2.52209e-07
1.27996e-08
2.52021e-07
1.23499e-08
2.51822e-07
1.19095e-08
2.51613e-07
1.14759e-08
2.51396e-07
1.10477e-08
2.51172e-07
1.06212e-08
2.50942e-07
1.01958e-08
2.50709e-07
9.76554e-09
2.50474e-07
9.33114e-09
2.50239e-07
8.88254e-09
2.50006e-07
8.42251e-09
2.49775e-07
7.93613e-09
2.49552e-07
7.42437e-09
2.49336e-07
6.87378e-09
2.49133e-07
6.26468e-09
2.48944e-07
5.61235e-09
2.48768e-07
4.82134e-09
2.4862e-07
4.00159e-09
2.4846e-07
2.89775e-09
2.48341e-07
1.80738e-09
4.68622e-10
2.48168e-07
2.51489e-07
5.31986e-08
2.54533e-07
7.08148e-08
2.55852e-07
5.35384e-08
2.56948e-07
4.5837e-08
2.57657e-07
4.23556e-08
2.5807e-07
3.83322e-08
2.58405e-07
3.47925e-08
2.58708e-07
3.22072e-08
2.58971e-07
3.01606e-08
2.59201e-07
2.83858e-08
2.59408e-07
2.68246e-08
2.59597e-07
2.54513e-08
2.5977e-07
2.42307e-08
2.59929e-07
2.31318e-08
2.60074e-07
2.21325e-08
2.60206e-07
2.12167e-08
2.60325e-07
2.03718e-08
2.6043e-07
1.95877e-08
2.60522e-07
1.88559e-08
2.60601e-07
1.81695e-08
2.60665e-07
1.75226e-08
2.60716e-07
1.69103e-08
2.60753e-07
1.63283e-08
2.60777e-07
1.57729e-08
2.60787e-07
1.52411e-08
2.60784e-07
1.47302e-08
2.60768e-07
1.42376e-08
2.6074e-07
1.37613e-08
2.60701e-07
1.32991e-08
2.60652e-07
1.28491e-08
2.60592e-07
1.24094e-08
2.60524e-07
1.19781e-08
2.60447e-07
1.15527e-08
2.60363e-07
1.11317e-08
2.60273e-07
1.07117e-08
2.60177e-07
1.02914e-08
2.60077e-07
9.86544e-09
2.59974e-07
9.43367e-09
2.5987e-07
8.98713e-09
2.59766e-07
8.52651e-09
2.59662e-07
8.0397e-09
2.59563e-07
7.52344e-09
2.59468e-07
6.96912e-09
2.59381e-07
6.35195e-09
2.59303e-07
5.6897e-09
2.59232e-07
4.89259e-09
2.59182e-07
4.05176e-09
2.59115e-07
2.96505e-09
2.59072e-07
1.84991e-09
5.4759e-10
2.58993e-07
2.58766e-07
4.86152e-08
2.61828e-07
6.7753e-08
2.63115e-07
5.2252e-08
2.64203e-07
4.47488e-08
2.64947e-07
4.16116e-08
2.65381e-07
3.78975e-08
2.65723e-07
3.44507e-08
2.66033e-07
3.18978e-08
2.66302e-07
2.98915e-08
2.66536e-07
2.81518e-08
2.66746e-07
2.66147e-08
2.66938e-07
2.52591e-08
2.67115e-07
2.40534e-08
2.6728e-07
2.29674e-08
2.67433e-07
2.19795e-08
2.67576e-07
2.1074e-08
2.67709e-07
2.02388e-08
2.67832e-07
1.94638e-08
2.67947e-07
1.87409e-08
2.68054e-07
1.80633e-08
2.68151e-07
1.7425e-08
2.6824e-07
1.68212e-08
2.68321e-07
1.62477e-08
2.68393e-07
1.57007e-08
2.68457e-07
1.51771e-08
2.68513e-07
1.46741e-08
2.68562e-07
1.41893e-08
2.68603e-07
1.37204e-08
2.68636e-07
1.32653e-08
2.68663e-07
1.28222e-08
2.68684e-07
1.23888e-08
2.68699e-07
1.19633e-08
2.68708e-07
1.15434e-08
2.68712e-07
1.11273e-08
2.68713e-07
1.07115e-08
2.68709e-07
1.02948e-08
2.68703e-07
9.8719e-09
2.68694e-07
9.44188e-09
2.68685e-07
8.99689e-09
2.68675e-07
8.53572e-09
2.68667e-07
8.04865e-09
2.68661e-07
7.52908e-09
2.68658e-07
6.97187e-09
2.68661e-07
6.34941e-09
2.68671e-07
5.67926e-09
2.68683e-07
4.88027e-09
2.68711e-07
4.02428e-09
2.6872e-07
2.95564e-09
2.68743e-07
1.82772e-09
5.49268e-10
2.68741e-07
2.66278e-07
4.4329e-08
2.69347e-07
6.46841e-08
2.70611e-07
5.09882e-08
2.71688e-07
4.36724e-08
2.72464e-07
4.08352e-08
2.72922e-07
3.74397e-08
2.73271e-07
3.4101e-08
2.73587e-07
3.15823e-08
2.73862e-07
2.96161e-08
2.74101e-07
2.79132e-08
2.74314e-07
2.64015e-08
2.74509e-07
2.50643e-08
2.74688e-07
2.38736e-08
2.74855e-07
2.28005e-08
2.75011e-07
2.18236e-08
2.75157e-07
2.09277e-08
2.75295e-07
2.01009e-08
2.75426e-07
1.93335e-08
2.75549e-07
1.86176e-08
2.75666e-07
1.79465e-08
2.75776e-07
1.73143e-08
2.75881e-07
1.67163e-08
2.75981e-07
1.61482e-08
2.76075e-07
1.56064e-08
2.76164e-07
1.50878e-08
2.76249e-07
1.45895e-08
2.76329e-07
1.41091e-08
2.76405e-07
1.36444e-08
2.76477e-07
1.31932e-08
2.76546e-07
1.27537e-08
2.76611e-07
1.23236e-08
2.76673e-07
1.19012e-08
2.76732e-07
1.1484e-08
2.76789e-07
1.10703e-08
2.76844e-07
1.06566e-08
2.76898e-07
1.02413e-08
2.7695e-07
9.81959e-09
2.77002e-07
9.38977e-09
2.77054e-07
8.94497e-09
2.77107e-07
8.48236e-09
2.77162e-07
7.99416e-09
2.7722e-07
7.47133e-09
2.77281e-07
6.91087e-09
2.77346e-07
6.28434e-09
2.77418e-07
5.60714e-09
2.7749e-07
4.80832e-09
2.77573e-07
3.94148e-09
2.77638e-07
2.88972e-09
2.77709e-07
1.75705e-09
4.93641e-10
2.77765e-07
2.74033e-07
4.0337e-08
2.77098e-07
6.16188e-08
2.7835e-07
4.97369e-08
2.79411e-07
4.26115e-08
2.80216e-07
4.00301e-08
2.80698e-07
3.69573e-08
2.81057e-07
3.37428e-08
2.81378e-07
3.12609e-08
2.8166e-07
2.93343e-08
2.81903e-07
2.76696e-08
2.8212e-07
2.61849e-08
2.82317e-07
2.48669e-08
2.82499e-07
2.36917e-08
2.82668e-07
2.26318e-08
2.82826e-07
2.1666e-08
2.82974e-07
2.07796e-08
2.83114e-07
1.9961e-08
2.83246e-07
1.92009e-08
2.83372e-07
1.84914e-08
2.83493e-07
1.7826e-08
2.83608e-07
1.71989e-08
2.83719e-07
1.66055e-08
2.83826e-07
1.60416e-08
2.83929e-07
1.55035e-08
2.84028e-07
1.49881e-08
2.84125e-07
1.44927e-08
2.84219e-07
1.40149e-08
2.84311e-07
1.35524e-08
2.84401e-07
1.31031e-08
2.8449e-07
1.26652e-08
2.84577e-07
1.22364e-08
2.84663e-07
1.18151e-08
2.84749e-07
1.13986e-08
2.84834e-07
1.09853e-08
2.84918e-07
1.05718e-08
2.85004e-07
1.01562e-08
2.85089e-07
9.73405e-09
2.85176e-07
9.30297e-09
2.85264e-07
8.85693e-09
2.85354e-07
8.39183e-09
2.85447e-07
7.90134e-09
2.85544e-07
7.37484e-09
2.85644e-07
6.81039e-09
2.85748e-07
6.18019e-09
2.85859e-07
5.49625e-09
2.85969e-07
4.69829e-09
2.86087e-07
3.82374e-09
2.8619e-07
2.78661e-09
2.86293e-07
1.65424e-09
4.00031e-10
2.86387e-07
2.8204e-07
3.66344e-08
2.85091e-07
5.85683e-08
2.86339e-07
4.84883e-08
2.87382e-07
4.15688e-08
2.88211e-07
3.92007e-08
2.88719e-07
3.64489e-08
2.89088e-07
3.33747e-08
2.89415e-07
3.09336e-08
2.89703e-07
2.9046e-08
2.89952e-07
2.74207e-08
2.90172e-07
2.59645e-08
2.90373e-07
2.46665e-08
2.90557e-07
2.35074e-08
2.90728e-07
2.2461e-08
2.90887e-07
2.15068e-08
2.91037e-07
2.06302e-08
2.91178e-07
1.982e-08
2.91311e-07
1.90671e-08
2.91439e-07
1.8364e-08
2.91561e-07
1.7704e-08
2.91678e-07
1.70818e-08
2.91791e-07
1.64926e-08
2.919e-07
1.59323e-08
2.92006e-07
1.53973e-08
2.9211e-07
1.48845e-08
2.92211e-07
1.43913e-08
2.92311e-07
1.39151e-08
2.9241e-07
1.34538e-08
2.92507e-07
1.30054e-08
2.92605e-07
1.25679e-08
2.92702e-07
1.21393e-08
2.92799e-07
1.17178e-08
2.92897e-07
1.1301e-08
2.92995e-07
1.08869e-08
2.93095e-07
1.04724e-08
2.93195e-07
1.00553e-08
2.93298e-07
9.63152e-09
2.93403e-07
9.19812e-09
2.9351e-07
8.74976e-09
2.9362e-07
8.28138e-09
2.93734e-07
7.78764e-09
2.93852e-07
7.25707e-09
2.93974e-07
6.68795e-09
2.941e-07
6.05415e-09
2.94233e-07
5.36377e-09
2.94365e-07
4.56668e-09
2.94501e-07
3.68689e-09
2.94626e-07
2.66189e-09
2.94747e-07
1.5329e-09
2.8449e-10
2.94863e-07
2.90308e-07
3.32149e-08
2.93333e-07
5.55437e-08
2.94588e-07
4.72338e-08
2.9561e-07
4.05466e-08
2.96458e-07
3.8352e-08
2.96994e-07
3.59136e-08
2.97373e-07
3.29955e-08
2.97706e-07
3.06004e-08
2.98001e-07
2.87512e-08
2.98256e-07
2.7166e-08
2.9848e-07
2.574e-08
2.98684e-07
2.44631e-08
2.9887e-07
2.33205e-08
2.99043e-07
2.22882e-08
2.99204e-07
2.13458e-08
2.99355e-07
2.04793e-08
2.99498e-07
1.96777e-08
2.99632e-07
1.89323e-08
2.99761e-07
1.82355e-08
2.99884e-07
1.75812e-08
3.00002e-07
1.69638e-08
3.00116e-07
1.63788e-08
3.00226e-07
1.5822e-08
3.00333e-07
1.52899e-08
3.00438e-07
1.47794e-08
3.00542e-07
1.4288e-08
3.00644e-07
1.38131e-08
3.00745e-07
1.33526e-08
3.00846e-07
1.29046e-08
3.00946e-07
1.24671e-08
3.01048e-07
1.20381e-08
3.0115e-07
1.16159e-08
3.01253e-07
1.1198e-08
3.01357e-07
1.07825e-08
3.01463e-07
1.03663e-08
3.01571e-07
9.94711e-09
3.01682e-07
9.521e-09
3.01795e-07
9.0847e-09
3.01912e-07
8.63335e-09
3.02032e-07
8.16124e-09
3.02156e-07
7.66363e-09
3.02284e-07
7.12879e-09
3.02417e-07
6.55463e-09
3.02554e-07
5.91729e-09
3.02697e-07
5.22096e-09
3.02839e-07
4.42458e-09
3.02985e-07
3.54157e-09
3.0312e-07
2.52657e-09
3.0325e-07
1.40287e-09
1.58809e-10
3.03376e-07
2.98847e-07
3.00701e-08
3.01835e-07
5.25561e-08
3.03103e-07
4.59654e-08
3.04104e-07
3.9546e-08
3.04967e-07
3.74894e-08
3.0553e-07
3.53507e-08
3.05921e-07
3.26039e-08
3.0626e-07
3.02613e-08
3.06562e-07
2.84497e-08
3.06822e-07
2.69053e-08
3.07051e-07
2.55111e-08
3.07258e-07
2.42563e-08
3.07448e-07
2.31309e-08
3.07623e-07
2.2113e-08
3.07786e-07
2.11829e-08
3.07938e-07
2.03267e-08
3.08082e-07
1.9534e-08
3.08218e-07
1.87962e-08
3.08348e-07
1.81061e-08
3.08471e-07
1.74575e-08
3.0859e-07
1.68451e-08
3.08705e-07
1.62642e-08
3.08816e-07
1.57109e-08
3.08924e-07
1.51817e-08
3.0903e-07
1.46736e-08
3.09134e-07
1.41838e-08
3.09237e-07
1.37101e-08
3.09339e-07
1.32503e-08
3.09441e-07
1.28024e-08
3.09544e-07
1.23647e-08
3.09647e-07
1.19352e-08
3.09751e-07
1.15119e-08
3.09856e-07
1.10926e-08
3.09963e-07
1.06754e-08
3.10072e-07
1.02572e-08
3.10184e-07
9.83564e-09
3.10298e-07
9.4069e-09
3.10415e-07
8.96742e-09
3.10536e-07
8.51274e-09
3.1066e-07
8.03674e-09
3.10789e-07
7.53497e-09
3.10922e-07
6.99588e-09
3.1106e-07
6.41665e-09
3.11201e-07
5.77591e-09
3.11348e-07
5.07434e-09
3.11494e-07
4.27854e-09
3.11641e-07
3.3941e-09
3.1178e-07
2.38754e-09
3.11913e-07
1.27048e-09
3.08423e-11
3.12041e-07
3.07667e-07
2.71904e-08
3.10606e-07
4.96169e-08
3.11895e-07
4.46763e-08
3.12874e-07
3.85676e-08
3.13745e-07
3.66179e-08
3.14336e-07
3.47602e-08
3.14742e-07
3.21981e-08
3.15087e-07
2.9916e-08
3.15395e-07
2.81417e-08
3.15662e-07
2.66383e-08
3.15895e-07
2.52774e-08
3.16106e-07
2.40459e-08
3.16298e-07
2.29382e-08
3.16476e-07
2.19353e-08
3.16641e-07
2.10179e-08
3.16796e-07
2.01724e-08
3.16941e-07
1.93888e-08
3.17078e-07
1.86589e-08
3.17209e-07
1.79756e-08
3.17333e-07
1.73328e-08
3.17453e-07
1.67254e-08
3.17568e-07
1.61489e-08
3.1768e-07
1.55992e-08
3.17789e-07
1.50729e-08
3.17895e-07
1.4567e-08
3.18e-07
1.4079e-08
3.18104e-07
1.36064e-08
3.18207e-07
1.31472e-08
3.1831e-07
1.26995e-08
3.18413e-07
1.22615e-08
3.18517e-07
1.18312e-08
3.18622e-07
1.14068e-08
3.18729e-07
1.09861e-08
3.18837e-07
1.0567e-08
3.18948e-07
1.01467e-08
3.19061e-07
9.72258e-09
3.19177e-07
9.29107e-09
3.19296e-07
8.84835e-09
3.19418e-07
8.39021e-09
3.19545e-07
7.91035e-09
3.19675e-07
7.40437e-09
3.1981e-07
6.86119e-09
3.19949e-07
6.2771e-09
3.20092e-07
5.63321e-09
3.20239e-07
4.92728e-09
3.20386e-07
4.13211e-09
3.20532e-07
3.24783e-09
3.20671e-07
2.24881e-09
3.20802e-07
1.13949e-09
-9.45817e-11
3.20927e-07
3.16777e-07
2.45645e-08
3.19657e-07
4.6737e-08
3.20972e-07
4.33608e-08
3.21929e-07
3.76108e-08
3.22804e-07
3.57426e-08
3.23421e-07
3.41431e-08
3.23843e-07
3.17768e-08
3.24195e-07
2.95643e-08
3.24509e-07
2.78272e-08
3.24783e-07
2.63647e-08
3.25021e-07
2.50386e-08
3.25236e-07
2.38317e-08
3.25432e-07
2.27424e-08
3.25612e-07
2.17548e-08
3.25779e-07
2.08505e-08
3.25936e-07
2.00162e-08
3.26082e-07
1.9242e-08
3.26221e-07
1.85201e-08
3.26353e-07
1.78438e-08
3.26479e-07
1.72071e-08
3.26599e-07
1.66048e-08
3.26716e-07
1.60326e-08
3.26828e-07
1.54866e-08
3.26938e-07
1.49633e-08
3.27045e-07
1.44598e-08
3.27151e-07
1.39734e-08
3.27255e-07
1.3502e-08
3.27359e-07
1.30434e-08
3.27462e-07
1.25958e-08
3.27566e-07
1.21574e-08
3.27671e-07
1.17264e-08
3.27777e-07
1.13008e-08
3.27885e-07
1.08786e-08
3.27994e-07
1.04577e-08
3.28105e-07
1.00352e-08
3.2822e-07
9.60853e-09
3.28336e-07
9.17421e-09
3.28456e-07
8.72829e-09
3.2858e-07
8.26669e-09
3.28707e-07
7.78309e-09
3.28839e-07
7.27301e-09
3.28974e-07
6.72597e-09
3.29113e-07
6.13742e-09
3.29256e-07
5.49072e-09
3.29402e-07
4.78141e-09
3.29547e-07
3.98708e-09
3.2969e-07
3.10437e-09
3.29827e-07
2.11261e-09
3.29954e-07
1.0121e-09
-2.14557e-10
3.30074e-07
3.26187e-07
2.21798e-08
3.28997e-07
4.39275e-08
3.30343e-07
4.20149e-08
3.31279e-07
3.66746e-08
3.32153e-07
3.48683e-08
3.32796e-07
3.35009e-08
3.33234e-07
3.13384e-08
3.33593e-07
2.92056e-08
3.33914e-07
2.75063e-08
3.34194e-07
2.60842e-08
3.34438e-07
2.47942e-08
3.34657e-07
2.36132e-08
3.34856e-07
2.25432e-08
3.3504e-07
2.15714e-08
3.35209e-07
2.06806e-08
3.35368e-07
1.98577e-08
3.35517e-07
1.90933e-08
3.35657e-07
1.83798e-08
3.3579e-07
1.77106e-08
3.35917e-07
1.708e-08
3.36039e-07
1.64831e-08
3.36156e-07
1.59154e-08
3.3627e-07
1.53731e-08
3.3638e-07
1.48529e-08
3.36488e-07
1.43517e-08
3.36594e-07
1.38671e-08
3.36699e-07
1.33968e-08
3.36804e-07
1.29388e-08
3.36909e-07
1.24913e-08
3.37013e-07
1.20526e-08
3.37119e-07