/*--------------------------------*- C++ -*----------------------------------*\
  =========                 |
  \\      /  F ield         | OpenFOAM: The Open Source CFD Toolbox
   \\    /   O peration     | Website:  https://openfoam.org
    \\  /    A nd           | Version:  7
     \\/     M anipulation  |
\*---------------------------------------------------------------------------*/
FoamFile
{
    version     2.0;
    format      ascii;
    class       surfaceScalarField;
    location    "0.25";
    object      phi_0;
}
// * * * * * * * * * * * * * * * * * * * * * * * * * * * * * * * * * * * * * //

dimensions      [0 3 -1 0 0 0 0];

internalField   nonuniform List<scalar> 
139350
(
6.45131e-08
9.21184e-08
3.19674e-08
3.25458e-08
2.30639e-08
8.90342e-09
1.9581e-08
3.48297e-09
1.76308e-08
1.95021e-09
1.62021e-08
1.42862e-09
1.50706e-08
1.13151e-09
1.41596e-08
9.11065e-10
1.34103e-08
7.49288e-10
1.27795e-08
6.30817e-10
1.22383e-08
5.41112e-10
1.17676e-08
4.70706e-10
1.13536e-08
4.14005e-10
1.09861e-08
3.67487e-10
1.06574e-08
3.28755e-10
1.03613e-08
2.9609e-10
1.00931e-08
2.68229e-10
9.84884e-09
2.44227e-10
9.62548e-09
2.23361e-10
9.42041e-09
2.05072e-10
9.23149e-09
1.8892e-10
9.05694e-09
1.74555e-10
8.89524e-09
1.61694e-10
8.74514e-09
1.50108e-10
8.60553e-09
1.39604e-10
8.47551e-09
1.30025e-10
8.35427e-09
1.21233e-10
8.24116e-09
1.13115e-10
8.13559e-09
1.05566e-10
8.03709e-09
9.85035e-11
7.94525e-09
9.18345e-11
7.85975e-09
8.55041e-11
7.78034e-09
7.94122e-11
7.7068e-09
7.35344e-11
7.63906e-09
6.77417e-11
7.57702e-09
6.20422e-11
7.52075e-09
5.62723e-11
7.47032e-09
5.04237e-11
7.42592e-09
4.44012e-11
7.38802e-09
3.78991e-11
7.3566e-09
3.14279e-11
7.33332e-09
2.32749e-11
7.31676e-09
1.65596e-11
7.31239e-09
4.37215e-12
7.31317e-09
-7.80098e-13
7.33727e-09
-2.41e-11
7.35409e-09
-1.68175e-11
7.4488e-09
-9.4711e-11
7.29622e-09
1.52578e-10
-3.51753e-09
1.08138e-08
1.25945e-07
1.27617e-07
9.12948e-08
6.71955e-08
7.19469e-08
2.82513e-08
6.12366e-08
1.41933e-08
5.48051e-08
8.38163e-09
5.03148e-08
5.91894e-09
4.68345e-08
4.61179e-09
4.4025e-08
3.72056e-09
4.17057e-08
3.06867e-09
3.9751e-08
2.58547e-09
3.8074e-08
2.21813e-09
3.66147e-08
1.93001e-09
3.53305e-08
1.69817e-09
3.419e-08
1.50802e-09
3.3169e-08
1.3497e-09
3.22489e-08
1.21618e-09
3.14149e-08
1.10229e-09
3.06549e-08
1.00418e-09
2.99594e-08
9.18901e-10
2.93203e-08
8.44171e-10
2.8731e-08
7.78199e-10
2.8186e-08
7.19558e-10
2.76806e-08
6.67095e-10
2.72108e-08
6.19873e-10
2.67733e-08
5.77116e-10
2.63652e-08
5.38178e-10
2.59839e-08
5.02508e-10
2.56274e-08
4.69643e-10
2.52938e-08
4.39168e-10
2.49815e-08
4.10741e-10
2.46894e-08
3.84016e-10
2.44161e-08
3.58748e-10
2.41609e-08
3.34588e-10
2.39231e-08
3.11398e-10
2.37021e-08
2.88735e-10
2.34975e-08
2.66617e-10
2.33094e-08
2.44366e-10
2.31376e-08
2.22234e-10
2.29828e-08
1.99187e-10
2.28451e-08
1.75614e-10
2.27261e-08
1.50412e-10
2.26264e-08
1.22969e-10
2.25485e-08
9.44864e-11
2.24951e-08
5.77191e-11
2.24669e-08
2.75059e-11
2.2479e-08
-3.62017e-11
2.25042e-08
-4.20551e-11
2.26716e-08
-2.62126e-10
2.26161e-08
2.08118e-10
-4.48781e-09
2.35863e-08
1.58753e-07
1.35268e-07
1.36532e-07
8.94169e-08
1.17505e-07
4.72781e-08
1.03336e-07
2.83625e-08
9.33509e-08
1.83669e-08
8.60597e-08
1.32102e-08
8.03613e-08
1.03102e-08
7.57192e-08
8.36264e-09
7.1851e-08
6.93685e-09
6.85692e-08
5.86732e-09
6.57404e-08
5.0469e-09
6.32701e-08
4.40032e-09
6.10898e-08
3.87845e-09
5.91485e-08
3.44935e-09
5.74069e-08
3.09127e-09
5.58344e-08
2.78871e-09
5.44064e-08
2.53023e-09
5.31033e-08
2.30727e-09
5.1909e-08
2.11326e-09
5.081e-08
1.94311e-09
4.97954e-08
1.7928e-09
4.88559e-08
1.65914e-09
4.79834e-08
1.53954e-09
4.71714e-08
1.43188e-09
4.64141e-08
1.33443e-09
4.57065e-08
1.24573e-09
4.50445e-08
1.16454e-09
4.44243e-08
1.08981e-09
4.38429e-08
1.02063e-09
4.32974e-08
9.56204e-10
4.27856e-08
8.95799e-10
4.23056e-08
8.38833e-10
4.18556e-08
7.84591e-10
4.14342e-08
7.32716e-10
4.10407e-08
6.82306e-10
4.06739e-08
6.33383e-10
4.03338e-08
5.84453e-10
4.00197e-08
5.36317e-10
3.97328e-08
4.86145e-10
3.94722e-08
4.36239e-10
3.92412e-08
3.81397e-10
3.90382e-08
3.25896e-10
3.88704e-08
2.62326e-10
3.87351e-08
1.93059e-10
3.86431e-08
1.19506e-10
3.85989e-08
7.97337e-12
3.85941e-08
-3.72909e-11
3.87351e-08
-4.03127e-10
3.88446e-08
9.86603e-11
-4.50534e-09
3.88621e-08
1.75612e-07
1.31171e-07
1.65628e-07
9.94012e-08
1.52746e-07
6.01599e-08
1.40146e-07
4.09627e-08
1.29476e-07
2.90368e-08
1.20848e-07
2.18379e-08
1.13748e-07
1.74107e-08
1.07779e-07
1.43313e-08
1.02691e-07
1.20243e-08
9.83026e-08
1.02561e-08
9.44727e-08
8.87682e-09
9.10963e-08
7.77676e-09
8.80936e-08
6.88112e-09
8.54033e-08
6.13962e-09
8.29773e-08
5.51732e-09
8.0777e-08
4.98899e-09
7.87714e-08
4.53585e-09
7.6935e-08
4.14365e-09
7.52468e-08
3.80141e-09
7.36894e-08
3.50052e-09
7.2248e-08
3.23419e-09
7.09102e-08
2.99696e-09
6.96653e-08
2.78439e-09
6.85044e-08
2.59285e-09
6.74195e-08
2.41934e-09
6.64039e-08
2.26132e-09
6.54518e-08
2.11667e-09
6.4558e-08
1.98354e-09
6.37183e-08
1.86036e-09
6.29287e-08
1.74576e-09
6.21861e-08
1.63845e-09
6.14875e-08
1.53743e-09
6.08306e-08
1.44149e-09
6.02133e-08
1.34998e-09
5.96342e-08
1.26142e-09
5.90918e-08
1.17582e-09
5.85855e-08
1.09066e-09
5.81144e-08
1.00746e-09
5.76795e-08
9.2106e-10
5.72794e-08
8.36372e-10
5.69181e-08
7.42684e-10
5.65928e-08
6.51198e-10
5.63127e-08
5.42398e-10
5.60726e-08
4.33188e-10
5.58881e-08
3.0398e-10
5.57584e-08
1.37719e-10
5.56885e-08
3.2552e-11
5.57482e-08
-4.62829e-10
5.59144e-08
-6.75057e-11
-4.26848e-09
5.56775e-08
1.8451e-07
1.23446e-07
1.82343e-07
1.01568e-07
1.76129e-07
6.63744e-08
1.6778e-07
4.93119e-08
1.59171e-07
3.76456e-08
1.51278e-07
2.97312e-08
1.44218e-07
2.44699e-08
1.37932e-07
2.06173e-08
1.32347e-07
1.76101e-08
1.27377e-07
1.5226e-08
1.22937e-07
1.33166e-08
1.18951e-07
1.17628e-08
1.15354e-07
1.04778e-08
1.12093e-07
9.40059e-09
1.09123e-07
8.48716e-09
1.06407e-07
7.70494e-09
1.03914e-07
7.02915e-09
1.01617e-07
6.44061e-09
9.94942e-08
5.9243e-09
9.75265e-08
5.46832e-09
9.56975e-08
5.0631e-09
9.39936e-08
4.70093e-09
9.24025e-08
4.37547e-09
9.09138e-08
4.08149e-09
8.95186e-08
3.81462e-09
8.82087e-08
3.57117e-09
8.69774e-08
3.348e-09
8.58185e-08
3.14243e-09
8.47268e-08
2.95211e-09
8.36975e-08
2.77499e-09
8.27268e-08
2.6092e-09
8.1811e-08
2.45321e-09
8.09472e-08
2.30527e-09
8.01328e-08
2.16437e-09
7.93658e-08
2.0284e-09
7.86444e-08
1.8973e-09
7.79676e-08
1.76745e-09
7.7334e-08
1.64107e-09
7.67445e-08
1.51057e-09
7.61973e-08
1.38353e-09
7.56965e-08
1.24347e-09
7.5239e-08
1.10872e-09
7.48341e-08
9.47319e-10
7.44765e-08
7.90761e-10
7.4182e-08
5.98481e-10
7.39498e-08
3.69955e-10
7.37904e-08
1.91929e-10
7.37486e-08
-4.21057e-10
7.38688e-08
-1.87685e-10
-3.9384e-09
7.35387e-08
1.90343e-07
1.1532e-07
1.91861e-07
1.0005e-07
1.90269e-07
6.79671e-08
1.8617e-07
5.34105e-08
1.80741e-07
4.30752e-08
1.75e-07
3.54715e-08
1.69317e-07
3.01534e-08
1.63847e-07
2.60873e-08
1.58687e-07
2.27698e-08
1.53879e-07
2.00338e-08
1.49426e-07
1.77698e-08
1.45311e-07
1.58778e-08
1.4151e-07
1.42787e-08
1.37997e-07
1.29135e-08
1.34746e-07
1.17381e-08
1.31733e-07
1.07184e-08
1.28934e-07
9.82776e-09
1.2633e-07
9.04469e-09
1.23902e-07
8.35204e-09
1.21635e-07
7.73593e-09
1.19513e-07
7.18497e-09
1.17524e-07
6.68983e-09
1.15657e-07
6.24272e-09
1.13901e-07
5.83715e-09
1.12248e-07
5.46763e-09
1.1069e-07
5.12945e-09
1.09219e-07
4.81862e-09
1.0783e-07
4.53162e-09
1.06517e-07
4.26542e-09
1.05274e-07
4.01732e-09
1.04099e-07
3.78487e-09
1.02986e-07
3.56601e-09
1.01933e-07
3.35846e-09
1.00936e-07
3.16083e-09
9.99943e-08
2.97037e-09
9.91047e-08
2.78692e-09
9.82663e-08
2.6058e-09
9.74776e-08
2.42982e-09
9.67391e-08
2.24908e-09
9.60491e-08
2.07351e-09
9.54111e-08
1.88146e-09
9.48226e-08
1.69718e-09
9.42916e-08
1.47836e-09
9.38149e-08
1.26746e-09
9.34049e-08
1.00854e-09
9.3065e-08
7.09774e-10
9.28041e-08
4.52916e-10
9.26545e-08
-2.71522e-10
9.26843e-08
-2.17427e-10
-3.52362e-09
9.22695e-08
1.95505e-07
1.0763e-07
1.98249e-07
9.73055e-08
1.98991e-07
6.72255e-08
1.97801e-07
5.45996e-08
1.95175e-07
4.57021e-08
1.91844e-07
3.88016e-08
1.88124e-07
3.38737e-08
1.84186e-07
3.00253e-08
1.8018e-07
2.67755e-08
1.76217e-07
2.39974e-08
1.72363e-07
2.16234e-08
1.68658e-07
1.9583e-08
1.65122e-07
1.78152e-08
1.61762e-07
1.6273e-08
1.5858e-07
1.49199e-08
1.55572e-07
1.37267e-08
1.5273e-07
1.26693e-08
1.50047e-07
1.17279e-08
1.47513e-07
1.08859e-08
1.4512e-07
1.01295e-08
1.42858e-07
9.4472e-09
1.40718e-07
8.82927e-09
1.38693e-07
8.26743e-09
1.36776e-07
7.75465e-09
1.34959e-07
7.28487e-09
1.33235e-07
6.85286e-09
1.316e-07
6.45406e-09
1.30047e-07
6.08445e-09
1.28572e-07
5.74048e-09
1.2717e-07
5.419e-09
1.25838e-07
5.11708e-09
1.24572e-07
4.83224e-09
1.23369e-07
4.56177e-09
1.22225e-07
4.30392e-09
1.2114e-07
4.05541e-09
1.20111e-07
3.81593e-09
1.19137e-07
3.5799e-09
1.18217e-07
3.3505e-09
1.1735e-07
3.11599e-09
1.16535e-07
2.88788e-09
1.15776e-07
2.64068e-09
1.15071e-07
2.40238e-09
1.14425e-07
2.12389e-09
1.1384e-07
1.85303e-09
1.13321e-07
1.52693e-09
1.1288e-07
1.15121e-09
1.12519e-07
8.13481e-10
1.12263e-07
-1.48132e-11
1.12191e-07
-1.45931e-10
-3.03321e-09
1.11701e-07
2.0082e-07
1.00395e-07
2.03774e-07
9.43516e-08
2.0535e-07
6.56494e-08
2.05655e-07
5.42944e-08
2.0483e-07
4.65267e-08
2.03359e-07
4.02732e-08
2.01421e-07
3.58119e-08
1.99101e-07
3.23449e-08
1.96507e-07
2.93698e-08
1.9374e-07
2.6764e-08
1.90881e-07
2.4482e-08
1.87991e-07
2.24736e-08
1.85113e-07
2.06934e-08
1.82279e-07
1.9107e-08
1.79511e-07
1.76876e-08
1.76824e-07
1.64134e-08
1.74228e-07
1.52659e-08
1.71726e-07
1.42293e-08
1.69322e-07
1.32899e-08
1.67016e-07
1.2436e-08
1.64805e-07
1.16575e-08
1.62689e-07
1.09455e-08
1.60664e-07
1.02925e-08
1.58727e-07
9.69167e-09
1.56875e-07
9.13731e-09
1.55103e-07
8.62418e-09
1.5341e-07
8.1477e-09
1.5179e-07
7.70376e-09
1.50242e-07
7.28864e-09
1.48762e-07
6.89899e-09
1.47348e-07
6.53169e-09
1.45996e-07
6.184e-09
1.44705e-07
5.85293e-09
1.43472e-07
5.53651e-09
1.42296e-07
5.23107e-09
1.41176e-07
4.93615e-09
1.40111e-07
4.64551e-09
1.39099e-07
4.3625e-09
1.38141e-07
4.07408e-09
1.37236e-07
3.79252e-09
1.36387e-07
3.49004e-09
1.35593e-07
3.19595e-09
1.34858e-07
2.85839e-09
1.34187e-07
2.52452e-09
1.33581e-07
2.13315e-09
1.33055e-07
1.67718e-09
1.3261e-07
1.25825e-09
1.32257e-07
3.3825e-10
1.32088e-07
2.28317e-11
-2.48981e-09
1.31545e-07
2.06423e-07
9.35035e-08
2.09334e-07
9.14413e-08
2.11061e-07
6.39219e-08
2.11945e-07
5.34102e-08
2.12013e-07
4.64587e-08
2.11635e-07
4.06517e-08
2.10913e-07
3.65334e-08
2.09852e-07
3.34066e-08
2.08489e-07
3.07329e-08
2.06882e-07
2.83702e-08
2.05088e-07
2.62759e-08
2.03156e-07
2.44064e-08
2.01126e-07
2.27227e-08
1.99036e-07
2.1197e-08
1.96915e-07
1.9809e-08
1.94786e-07
1.85428e-08
1.92667e-07
1.73849e-08
1.90572e-07
1.63237e-08
1.88513e-07
1.5349e-08
1.86497e-07
1.44518e-08
1.84531e-07
1.36241e-08
1.82617e-07
1.28591e-08
1.80759e-07
1.21503e-08
1.78959e-07
1.14923e-08
1.77216e-07
1.08799e-08
1.75532e-07
1.03086e-08
1.73905e-07
9.77436e-09
1.72335e-07
9.27326e-09
1.70822e-07
8.80186e-09
1.69364e-07
8.35692e-09
1.67961e-07
7.93537e-09
1.6661e-07
7.53448e-09
1.65312e-07
7.15118e-09
1.64065e-07
6.78343e-09
1.62869e-07
6.42735e-09
1.61722e-07
6.08243e-09
1.60626e-07
5.74197e-09
1.59579e-07
5.40937e-09
1.58582e-07
5.07082e-09
1.57636e-07
4.73864e-09
1.56742e-07
4.38422e-09
1.55902e-07
4.03598e-09
1.55118e-07
3.64295e-09
1.54395e-07
3.24657e-09
1.53735e-07
2.7941e-09
1.53152e-07
2.25928e-09
1.5265e-07
1.76062e-09
1.52224e-07
7.64602e-10
1.51973e-07
2.73477e-10
-1.92099e-09
1.51404e-07
2.12269e-07
8.68964e-08
2.15142e-07
8.85683e-08
2.16816e-07
6.22482e-08
2.1786e-07
5.23663e-08
2.18273e-07
4.60457e-08
2.18396e-07
4.0529e-08
2.18327e-07
3.66023e-08
2.18035e-07
3.36987e-08
2.17513e-07
3.12542e-08
2.16782e-07
2.9102e-08
2.15863e-07
2.71944e-08
2.14783e-07
2.54866e-08
2.13567e-07
2.39391e-08
2.12239e-07
2.25243e-08
2.10824e-07
2.12237e-08
2.09344e-07
2.00237e-08
2.07815e-07
1.89134e-08
2.06255e-07
1.78836e-08
2.04678e-07
1.69266e-08
2.03094e-07
1.60356e-08
2.01513e-07
1.52047e-08
1.99944e-07
1.44285e-08
1.98392e-07
1.37022e-08
1.96863e-07
1.30215e-08
1.9536e-07
1.23823e-08
1.93888e-07
1.1781e-08
1.92448e-07
1.12142e-08
1.91043e-07
1.06786e-08
1.89673e-07
1.01713e-08
1.88341e-07
9.68938e-09
1.87046e-07
9.23003e-09
1.8579e-07
8.79071e-09
1.84573e-07
8.36849e-09
1.83395e-07
7.9614e-09
1.82256e-07
7.56553e-09
1.81158e-07
7.18036e-09
1.80101e-07
6.79903e-09
1.79086e-07
6.42481e-09
1.78113e-07
6.04371e-09
1.77184e-07
5.66738e-09
1.76301e-07
5.26781e-09
1.75466e-07
4.8706e-09
1.7468e-07
4.42871e-09
1.73953e-07
3.97415e-09
1.7328e-07
3.46694e-09
1.7268e-07
2.85952e-09
1.72155e-07
2.28506e-09
1.71689e-07
1.23081e-09
1.71383e-07
5.79875e-10
-1.35661e-09
1.70818e-07
2.18315e-07
8.05618e-08
2.21192e-07
8.56918e-08
2.22789e-07
6.0651e-08
2.23861e-07
5.12939e-08
2.24383e-07
4.55241e-08
2.24683e-07
4.02287e-08
2.2489e-07
3.63954e-08
2.24975e-07
3.36133e-08
2.24919e-07
3.13108e-08
2.2472e-07
2.93004e-08
2.24385e-07
2.75301e-08
2.23918e-07
2.59536e-08
2.23328e-07
2.45285e-08
2.22628e-07
2.32249e-08
2.21828e-07
2.20229e-08
2.20944e-07
2.09085e-08
2.19986e-07
1.9871e-08
2.18968e-07
1.89017e-08
2.17901e-07
1.79938e-08
2.16795e-07
1.71414e-08
2.1566e-07
1.63397e-08
2.14504e-07
1.55842e-08
2.13335e-07
1.48712e-08
2.1216e-07
1.41972e-08
2.10983e-07
1.35591e-08
2.0981e-07
1.29541e-08
2.08645e-07
1.23793e-08
2.07491e-07
1.18321e-08
2.06352e-07
1.13102e-08
2.05231e-07
1.0811e-08
2.04129e-07
1.03321e-08
2.03048e-07
9.87127e-09
2.01991e-07
9.42578e-09
2.00958e-07
8.99385e-09
1.99952e-07
8.57162e-09
1.98974e-07
8.15866e-09
1.98025e-07
7.74811e-09
1.97107e-07
7.34299e-09
1.96221e-07
6.92961e-09
1.9537e-07
6.51844e-09
1.94554e-07
6.08309e-09
1.9378e-07
5.64505e-09
1.93045e-07
5.16324e-09
1.92361e-07
4.65824e-09
1.91724e-07
4.10455e-09
1.91148e-07
3.43486e-09
1.90642e-07
2.79132e-09
1.90176e-07
1.69727e-09
1.89847e-07
9.0814e-10
-8.27492e-10
1.89318e-07
2.24549e-07
7.45061e-08
2.27452e-07
8.27891e-08
2.28985e-07
5.91177e-08
2.30065e-07
5.02143e-08
2.30627e-07
4.49619e-08
2.30976e-07
3.988e-08
2.31272e-07
3.60988e-08
2.31505e-07
3.338e-08
2.31657e-07
3.11593e-08
2.31725e-07
2.92321e-08
2.31709e-07
2.75459e-08
2.31608e-07
2.60554e-08
2.3142e-07
2.47167e-08
2.31147e-07
2.34978e-08
2.30793e-07
2.23769e-08
2.30363e-07
2.13387e-08
2.29862e-07
2.03714e-08
2.29298e-07
1.94659e-08
2.28677e-07
1.8615e-08
2.28005e-07
1.78128e-08
2.2729e-07
1.70545e-08
2.26539e-07
1.63359e-08
2.25756e-07
1.56537e-08
2.24949e-07
1.50047e-08
2.24121e-07
1.43864e-08
2.23279e-07
1.37961e-08
2.22427e-07
1.32318e-08
2.21568e-07
1.2691e-08
2.20706e-07
1.21718e-08
2.19845e-07
1.16722e-08
2.18987e-07
1.11898e-08
2.18136e-07
1.07229e-08
2.17293e-07
1.02689e-08
2.1646e-07
9.82611e-09
2.15641e-07
9.39089e-09
2.14837e-07
8.96282e-09
2.1405e-07
8.53518e-09
2.13282e-07
8.11067e-09
2.12536e-07
7.67619e-09
2.11813e-07
7.24064e-09
2.11116e-07
6.78004e-09
2.10451e-07
6.31091e-09
2.09814e-07
5.7993e-09
2.09219e-07
5.25381e-09
2.0866e-07
4.66297e-09
2.08151e-07
3.94391e-09
2.07702e-07
3.24047e-09
2.07275e-07
2.1242e-09
2.06961e-07
1.22203e-09
-3.6264e-10
2.06497e-07
2.30975e-07
6.87372e-08
2.33913e-07
7.98513e-08
2.35389e-07
5.76414e-08
2.36477e-07
4.91262e-08
2.37072e-07
4.43666e-08
2.37436e-07
3.9516e-08
2.37755e-07
3.57804e-08
2.38034e-07
3.31006e-08
2.38261e-07
3.09321e-08
2.38439e-07
2.90548e-08
2.38568e-07
2.74165e-08
2.38648e-07
2.59757e-08
2.38675e-07
2.46895e-08
2.38648e-07
2.35248e-08
2.38566e-07
2.24589e-08
2.38429e-07
2.14753e-08
2.38239e-07
2.05614e-08
2.37998e-07
1.97075e-08
2.37707e-07
1.89055e-08
2.37371e-07
1.81491e-08
2.36992e-07
1.74332e-08
2.36575e-07
1.67533e-08
2.36122e-07
1.61059e-08
2.35639e-07
1.5488e-08
2.35129e-07
1.48969e-08
2.34595e-07
1.43302e-08
2.34041e-07
1.37857e-08
2.3347e-07
1.32616e-08
2.32886e-07
1.27558e-08
2.32292e-07
1.22666e-08
2.3169e-07
1.17918e-08
2.31083e-07
1.13298e-08
2.30474e-07
1.08782e-08
2.29864e-07
1.04354e-08
2.29257e-07
9.99793e-09
2.28655e-07
9.56527e-09
2.28059e-07
9.13094e-09
2.27473e-07
8.69715e-09
2.26897e-07
8.25165e-09
2.26336e-07
7.80147e-09
2.25791e-07
7.32554e-09
2.25267e-07
6.83499e-09
2.24763e-07
6.30332e-09
2.24289e-07
5.72785e-09
2.23842e-07
5.10916e-09
2.23432e-07
4.35435e-09
2.23071e-07
3.60163e-09
2.22717e-07
2.47843e-09
2.22449e-07
1.48932e-09
1.47418e-11
2.22072e-07
2.37601e-07
6.32608e-08
2.40578e-07
7.68742e-08
2.41998e-07
5.62221e-08
2.43093e-07
4.80308e-08
2.43725e-07
4.37345e-08
2.44102e-07
3.9139e-08
2.44426e-07
3.54562e-08
2.44718e-07
3.28085e-08
2.44968e-07
3.0682e-08
2.45182e-07
2.88408e-08
2.45366e-07
2.72326e-08
2.45521e-07
2.58211e-08
2.45645e-07
2.45652e-08
2.45738e-07
2.34324e-08
2.45797e-07
2.23996e-08
2.45822e-07
2.14501e-08
2.45812e-07
2.05711e-08
2.45768e-07
1.97522e-08
2.45688e-07
1.89851e-08
2.45574e-07
1.82628e-08
2.45428e-07
1.75799e-08
2.45249e-07
1.69317e-08
2.45041e-07
1.63143e-08
2.44804e-07
1.57244e-08
2.44542e-07
1.51592e-08
2.44256e-07
1.46162e-08
2.43948e-07
1.40933e-08
2.43622e-07
1.35883e-08
2.43278e-07
1.30995e-08
2.4292e-07
1.2625e-08
2.42549e-07
1.21628e-08
2.42167e-07
1.17113e-08
2.41777e-07
1.1268e-08
2.41381e-07
1.08316e-08
2.40981e-07
1.03985e-08
2.40578e-07
9.96808e-09
2.40174e-07
9.53415e-09
2.39773e-07
9.09827e-09
2.39376e-07
8.64923e-09
2.38985e-07
8.19195e-09
2.38602e-07
7.70846e-09
2.38233e-07
7.20461e-09
2.37875e-07
6.66087e-09
2.37538e-07
6.06495e-09
2.37221e-07
5.42646e-09
2.36927e-07
4.64841e-09
2.36671e-07
3.85711e-09
2.36411e-07
2.73896e-09
2.36213e-07
1.68756e-09
2.90923e-10
2.35936e-07
2.44436e-07
5.80806e-08
2.47452e-07
7.38586e-08
2.48816e-07
5.4858e-08
2.49914e-07
4.69325e-08
2.50585e-07
4.30639e-08
2.50979e-07
3.87453e-08
2.51308e-07
3.51273e-08
2.51606e-07
3.25106e-08
2.51863e-07
3.04241e-08
2.52089e-07
2.86157e-08
2.5229e-07
2.70315e-08
2.5247e-07
2.56404e-08
2.52631e-07
2.44042e-08
2.52773e-07
2.32909e-08
2.52895e-07
2.2278e-08
2.52996e-07
2.13489e-08
2.53076e-07
2.04909e-08
2.53135e-07
1.96936e-08
2.53171e-07
1.89484e-08
2.53186e-07
1.82484e-08
2.53178e-07
1.75877e-08
2.53148e-07
1.69616e-08
2.53097e-07
1.63657e-08
2.53024e-07
1.57967e-08
2.52932e-07
1.52515e-08
2.52821e-07
1.47276e-08
2.52691e-07
1.42225e-08
2.52546e-07
1.37343e-08
2.52384e-07
1.32608e-08
2.52209e-07
1.28003e-08
2.52021e-07
1.23508e-08
2.51822e-07
1.19105e-08
2.51613e-07
1.1477e-08
2.51396e-07
1.1049e-08
2.51171e-07
1.06227e-08
2.50942e-07
1.01975e-08
2.50709e-07
9.7674e-09
2.50474e-07
9.33323e-09
2.50238e-07
8.88489e-09
2.50005e-07
8.42511e-09
2.49774e-07
7.93901e-09
2.49551e-07
7.4275e-09
2.49335e-07
6.87716e-09
2.49132e-07
6.26822e-09
2.48942e-07
5.61597e-09
2.48766e-07
4.82475e-09
2.48619e-07
4.0045e-09
2.48458e-07
2.89939e-09
2.48339e-07
1.80676e-09
4.64265e-10
2.48166e-07
2.51489e-07
5.31986e-08
2.54533e-07
7.08147e-08
2.55852e-07
5.35383e-08
2.56948e-07
4.58368e-08
2.57657e-07
4.23554e-08
2.5807e-07
3.8332e-08
2.58405e-07
3.47924e-08
2.58708e-07
3.22071e-08
2.58972e-07
3.01606e-08
2.59201e-07
2.83859e-08
2.59408e-07
2.68248e-08
2.59597e-07
2.54515e-08
2.5977e-07
2.4231e-08
2.59929e-07
2.31322e-08
2.60074e-07
2.21329e-08
2.60206e-07
2.12171e-08
2.60325e-07
2.03722e-08
2.6043e-07
1.95881e-08
2.60522e-07
1.88563e-08
2.60601e-07
1.81699e-08
2.60665e-07
1.75231e-08
2.60716e-07
1.69107e-08
2.60753e-07
1.63287e-08
2.60776e-07
1.57734e-08
2.60786e-07
1.52416e-08
2.60783e-07
1.47307e-08
2.60768e-07
1.42382e-08
2.6074e-07
1.37619e-08
2.60701e-07
1.32997e-08
2.60651e-07
1.28499e-08
2.60592e-07
1.24102e-08
2.60523e-07
1.1979e-08
2.60447e-07
1.15538e-08
2.60363e-07
1.1133e-08
2.60272e-07
1.07131e-08
2.60176e-07
1.02931e-08
2.60077e-07
9.86735e-09
2.59974e-07
9.43582e-09
2.59869e-07
8.98954e-09
2.59765e-07
8.52919e-09
2.59662e-07
8.04265e-09
2.59562e-07
7.52666e-09
2.59467e-07
6.97257e-09
2.5938e-07
6.35557e-09
2.59302e-07
5.6934e-09
2.59231e-07
4.89608e-09
2.59181e-07
4.05473e-09
2.59113e-07
2.96679e-09
2.59071e-07
1.84952e-09
5.43756e-10
2.58991e-07
2.58766e-07
4.86151e-08
2.61828e-07
6.77529e-08
2.63115e-07
5.22518e-08
2.64203e-07
4.47485e-08
2.64947e-07
4.16114e-08
2.65382e-07
3.78973e-08
2.65723e-07
3.44505e-08
2.66033e-07
3.18977e-08
2.66302e-07
2.98915e-08
2.66536e-07
2.81519e-08
2.66746e-07
2.66148e-08
2.66938e-07
2.52593e-08
2.67116e-07
2.40537e-08
2.6728e-07
2.29678e-08
2.67433e-07
2.19799e-08
2.67576e-07
2.10744e-08
2.67709e-07
2.02392e-08
2.67832e-07
1.94643e-08
2.67947e-07
1.87414e-08
2.68054e-07
1.80637e-08
2.68151e-07
1.74255e-08
2.6824e-07
1.68217e-08
2.68321e-07
1.62481e-08
2.68393e-07
1.57012e-08
2.68457e-07
1.51776e-08
2.68513e-07
1.46746e-08
2.68561e-07
1.41898e-08
2.68602e-07
1.3721e-08
2.68636e-07
1.3266e-08
2.68663e-07
1.28229e-08
2.68684e-07
1.23896e-08
2.68698e-07
1.19643e-08
2.68708e-07
1.15445e-08
2.68712e-07
1.11286e-08
2.68712e-07
1.0713e-08
2.68709e-07
1.02966e-08
2.68702e-07
9.87384e-09
2.68694e-07
9.44407e-09
2.68684e-07
8.99934e-09
2.68675e-07
8.53844e-09
2.68666e-07
8.05165e-09
2.6866e-07
7.53236e-09
2.68657e-07
6.97538e-09
2.6866e-07
6.35309e-09
2.6867e-07
5.68301e-09
2.68683e-07
4.88382e-09
2.6871e-07
4.02731e-09
2.68719e-07
2.95749e-09
2.68741e-07
1.82757e-09
5.45995e-10
2.68739e-07
2.66278e-07
4.43289e-08
2.69347e-07
6.46839e-08
2.70611e-07
5.0988e-08
2.71688e-07
4.36722e-08
2.72464e-07
4.0835e-08
2.72922e-07
3.74395e-08
2.73271e-07
3.41009e-08
2.73587e-07
3.15822e-08
2.73862e-07
2.96161e-08
2.74101e-07
2.79133e-08
2.74314e-07
2.64017e-08
2.74509e-07
2.50645e-08
2.74688e-07
2.38739e-08
2.74855e-07
2.28009e-08
2.75011e-07
2.18241e-08
2.75158e-07
2.09281e-08
2.75295e-07
2.01013e-08
2.75426e-07
1.9334e-08
2.75549e-07
1.86181e-08
2.75666e-07
1.7947e-08
2.75776e-07
1.73148e-08
2.75881e-07
1.67168e-08
2.75981e-07
1.61487e-08
2.76075e-07
1.5607e-08
2.76164e-07
1.50883e-08
2.76249e-07
1.459e-08
2.76329e-07
1.41097e-08
2.76405e-07
1.3645e-08
2.76477e-07
1.31939e-08
2.76545e-07
1.27544e-08
2.7661e-07
1.23245e-08
2.76673e-07
1.19022e-08
2.76732e-07
1.14852e-08
2.76789e-07
1.10716e-08
2.76844e-07
1.06581e-08
2.76897e-07
1.02431e-08
2.7695e-07
9.82155e-09
2.77002e-07
9.39199e-09
2.77054e-07
8.94746e-09
2.77107e-07
8.48512e-09
2.77161e-07
7.99721e-09
2.77219e-07
7.47465e-09
2.7728e-07
6.91443e-09
2.77345e-07
6.28807e-09
2.77417e-07
5.61092e-09
2.77489e-07
4.81191e-09
2.77572e-07
3.94455e-09
2.77638e-07
2.89168e-09
2.77708e-07
1.75717e-09
4.90959e-10
2.77763e-07
2.74033e-07
4.03369e-08
2.77098e-07
6.16187e-08
2.7835e-07
4.97366e-08
2.79411e-07
4.26112e-08
2.80216e-07
4.00298e-08
2.80698e-07
3.69571e-08
2.81057e-07
3.37426e-08
2.81378e-07
3.12608e-08
2.8166e-07
2.93343e-08
2.81904e-07
2.76697e-08
2.8212e-07
2.61851e-08
2.82318e-07
2.48671e-08
2.82499e-07
2.3692e-08
2.82668e-07
2.26322e-08
2.82826e-07
2.16665e-08
2.82974e-07
2.07801e-08
2.83114e-07
1.99616e-08
2.83246e-07
1.92015e-08
2.83372e-07
1.8492e-08
2.83493e-07
1.78265e-08
2.83608e-07
1.71995e-08
2.83719e-07
1.66061e-08
2.83825e-07
1.60421e-08
2.83928e-07
1.5504e-08
2.84028e-07
1.49887e-08
2.84125e-07
1.44933e-08
2.84219e-07
1.40155e-08
2.84311e-07
1.3553e-08
2.84401e-07
1.31038e-08
2.8449e-07
1.26659e-08
2.84577e-07
1.22373e-08
2.84663e-07
1.18161e-08
2.84748e-07
1.13998e-08
2.84833e-07
1.09866e-08
2.84918e-07
1.05733e-08
2.85003e-07
1.0158e-08
2.85089e-07
9.73603e-09
2.85176e-07
9.30521e-09
2.85264e-07
8.85945e-09
2.85354e-07
8.39463e-09
2.85447e-07
7.90443e-09
2.85543e-07
7.3782e-09
2.85644e-07
6.81399e-09
2.85748e-07
6.18395e-09
2.85859e-07
5.50006e-09
2.85969e-07
4.70192e-09
2.86086e-07
3.82688e-09
2.86189e-07
2.78871e-09
2.86292e-07
1.65466e-09
3.97971e-10
2.86385e-07
2.8204e-07
3.66344e-08
2.85091e-07
5.85682e-08
2.86339e-07
4.84881e-08
2.87382e-07
4.15686e-08
2.88211e-07
3.92004e-08
2.8872e-07
3.64487e-08
2.89088e-07
3.33745e-08
2.89415e-07
3.09334e-08
2.89703e-07
2.9046e-08
2.89952e-07
2.74207e-08
2.90173e-07
2.59647e-08
2.90373e-07
2.46668e-08
2.90557e-07
2.35077e-08
2.90728e-07
2.24615e-08
2.90887e-07
2.15073e-08
2.91037e-07
2.06307e-08
2.91178e-07
1.98205e-08
2.91311e-07
1.90677e-08
2.91439e-07
1.83646e-08
2.91561e-07
1.77047e-08
2.91678e-07
1.70824e-08
2.91791e-07
1.64932e-08
2.919e-07
1.59329e-08
2.92006e-07
1.53979e-08
2.9211e-07
1.48851e-08
2.92211e-07
1.43918e-08
2.92311e-07
1.39156e-08
2.92409e-07
1.34544e-08
2.92507e-07
1.3006e-08
2.92604e-07
1.25687e-08
2.92701e-07
1.21402e-08
2.92799e-07
1.17188e-08
2.92896e-07
1.13021e-08
2.92995e-07
1.08882e-08
2.93094e-07
1.04739e-08
2.93195e-07
1.00571e-08
2.93298e-07
9.63352e-09
2.93402e-07
9.20039e-09
2.9351e-07
8.75231e-09
2.9362e-07
8.28422e-09
2.93734e-07
7.79076e-09
2.93851e-07
7.26047e-09
2.93974e-07
6.69158e-09
2.941e-07
6.05795e-09
2.94232e-07
5.36762e-09
2.94364e-07
4.57036e-09
2.94501e-07
3.6901e-09
2.94625e-07
2.66414e-09
2.94746e-07
1.53364e-09
2.83081e-10
2.94861e-07
2.90308e-07
3.32148e-08
2.93333e-07
5.55435e-08
2.94588e-07
4.72335e-08
2.9561e-07
4.05463e-08
2.96459e-07
3.83517e-08
2.96994e-07
3.59133e-08
2.97373e-07
3.29953e-08
2.97706e-07
3.06002e-08
2.98001e-07
2.87511e-08
2.98256e-07
2.71661e-08
2.9848e-07
2.57402e-08
2.98684e-07
2.44634e-08
2.98871e-07
2.33209e-08
2.99043e-07
2.22886e-08
2.99204e-07
2.13464e-08
2.99355e-07
2.04798e-08
2.99498e-07
1.96783e-08
2.99632e-07
1.89329e-08
2.99761e-07
1.82362e-08
2.99884e-07
1.75819e-08
3.00002e-07
1.69645e-08
3.00115e-07
1.63794e-08
3.00226e-07
1.58226e-08
3.00333e-07
1.52905e-08
3.00438e-07
1.478e-08
3.00541e-07
1.42886e-08
3.00643e-07
1.38137e-08
3.00745e-07
1.33532e-08
3.00845e-07
1.29052e-08
3.00946e-07
1.24678e-08
3.01047e-07
1.2039e-08
3.01149e-07
1.16169e-08
3.01252e-07
1.11991e-08
3.01357e-07
1.07838e-08
3.01463e-07
1.03678e-08
3.01571e-07
9.94888e-09
3.01682e-07
9.52303e-09
3.01795e-07
9.08699e-09
3.01911e-07
8.63592e-09
3.02031e-07
8.16411e-09
3.02155e-07
7.66678e-09
3.02284e-07
7.13223e-09
3.02417e-07
6.55831e-09
3.02554e-07
5.92113e-09
3.02696e-07
5.22485e-09
3.02839e-07
4.42831e-09
3.02984e-07
3.54487e-09
3.03119e-07
2.529e-09
3.03249e-07
1.40397e-09
1.58079e-10
3.03374e-07
2.98847e-07
3.007e-08
3.01835e-07
5.2556e-08
3.03103e-07
4.59651e-08
3.04104e-07
3.95457e-08
3.04967e-07
3.7489e-08
3.0553e-07
3.53503e-08
3.05921e-07
3.26036e-08
3.0626e-07
3.02611e-08
3.06562e-07
2.84496e-08
3.06823e-07
2.69054e-08
3.07052e-07
2.55113e-08
3.07258e-07
2.42566e-08
3.07448e-07
2.31312e-08
3.07623e-07
2.21134e-08
3.07786e-07
2.11835e-08
3.07939e-07
2.03273e-08
3.08082e-07
1.95347e-08
3.08218e-07
1.87969e-08
3.08348e-07
1.81068e-08
3.08471e-07
1.74582e-08
3.0859e-07
1.68458e-08
3.08704e-07
1.62649e-08
3.08815e-07
1.57116e-08
3.08924e-07
1.51824e-08
3.09029e-07
1.46742e-08
3.09134e-07
1.41844e-08
3.09237e-07
1.37107e-08
3.09339e-07
1.32509e-08
3.09441e-07
1.28031e-08
3.09543e-07
1.23655e-08
3.09646e-07
1.1936e-08
3.0975e-07
1.15129e-08
3.09856e-07
1.10938e-08
3.09963e-07
1.06767e-08
3.10072e-07
1.02588e-08
3.10183e-07
9.83742e-09
3.10297e-07
9.40894e-09
3.10415e-07
8.96974e-09
3.10535e-07
8.51534e-09
3.1066e-07
8.03964e-09
3.10788e-07
7.53816e-09
3.10921e-07
6.99935e-09
3.11059e-07
6.42036e-09
3.112e-07
5.77979e-09
3.11347e-07
5.07827e-09
3.11493e-07
4.28234e-09
3.1164e-07
3.39751e-09
3.11779e-07
2.39017e-09
3.11911e-07
1.27197e-09
3.08135e-11
3.12038e-07
3.07667e-07
2.71903e-08
3.10606e-07
4.96167e-08
3.11895e-07
4.4676e-08
3.12874e-07
3.85672e-08
3.13745e-07
3.66175e-08
3.14336e-07
3.47599e-08
3.14742e-07
3.21978e-08
3.15087e-07
2.99158e-08
3.15395e-07
2.81416e-08
3.15662e-07
2.66383e-08
3.15896e-07
2.52776e-08
3.16106e-07
2.40462e-08
3.16299e-07
2.29386e-08
3.16476e-07
2.19357e-08
3.16641e-07
2.10185e-08
3.16796e-07
2.01731e-08
3.16941e-07
1.93895e-08
3.17078e-07
1.86596e-08
3.17208e-07
1.79763e-08
3.17333e-07
1.73336e-08
3.17453e-07
1.67262e-08
3.17568e-07
1.61496e-08
3.1768e-07
1.55999e-08
3.17789e-07
1.50736e-08
3.17895e-07
1.45677e-08
3.18e-07
1.40796e-08
3.18104e-07
1.3607e-08
3.18207e-07
1.31478e-08
3.1831e-07
1.27002e-08
3.18413e-07
1.22622e-08
3.18517e-07
1.1832e-08
3.18622e-07
1.14078e-08
3.18729e-07
1.09872e-08
3.18837e-07
1.05683e-08
3.18947e-07
1.01483e-08
3.1906e-07
9.72438e-09
3.19176e-07
9.29313e-09
3.19295e-07
8.85069e-09
3.19418e-07
8.39284e-09
3.19544e-07
7.91329e-09
3.19675e-07
7.4076e-09
3.19809e-07
6.8647e-09
3.19949e-07
6.28085e-09
3.20092e-07
5.63714e-09
3.20239e-07
4.93128e-09
3.20385e-07
4.13599e-09
3.20531e-07
3.25137e-09
3.2067e-07
2.25168e-09
3.208e-07
1.14141e-09
-9.38848e-11
3.20925e-07
3.16777e-07
2.45644e-08
3.19657e-07
4.67368e-08
3.20972e-07
4.33605e-08
3.21929e-07
3.76105e-08
3.22804e-07
3.57422e-08
3.23422e-07
3.41428e-08
3.23843e-07
3.17765e-08
3.24195e-07
2.95641e-08
3.24509e-07
2.78271e-08
3.24783e-07
2.63647e-08
3.25022e-07
2.50387e-08
3.25236e-07
2.3832e-08
3.25432e-07
2.27428e-08
3.25612e-07
2.17553e-08
3.25779e-07
2.08511e-08
3.25936e-07
2.00168e-08
3.26083e-07
1.92427e-08
3.26221e-07
1.85209e-08
3.26353e-07
1.78446e-08
3.26479e-07
1.72079e-08
3.26599e-07
1.66056e-08
3.26715e-07
1.60334e-08
3.26828e-07
1.54873e-08
3.26937e-07
1.4964e-08
3.27045e-07
1.44605e-08
3.2715e-07
1.39741e-08
3.27255e-07
1.35026e-08
3.27358e-07
1.3044e-08
3.27462e-07
1.25965e-08
3.27566e-07
1.21582e-08
3.27671e-07
1.17272e-08
3.27777e-07
1.13018e-08
3.27884e-07
1.08798e-08
3.27994e-07
1.0459e-08
3.28105e-07
1.00368e-08
3.28219e-07
9.61034e-09
3.28336e-07
9.17629e-09
3.28456e-07
8.73065e-09
3.2858e-07
8.26935e-09
3.28707e-07
7.78606e-09
3.28838e-07
7.27628e-09
3.28973e-07
6.72952e-09
3.29113e-07
6.14122e-09
3.29255e-07
5.4947e-09
3.29401e-07
4.78547e-09
3.29546e-07
3.99106e-09
3.29689e-07
3.10806e-09
3.29825e-07
2.11574e-09
3.29952e-07
1.01446e-09
-2.13121e-10
3.30071e-07
3.26187e-07
2.21797e-08
3.28997e-07
4.39272e-08
3.30343e-07
4.20146e-08
3.31279e-07
3.66742e-08
3.32153e-07
3.48679e-08
3.32796e-07
3.35005e-08
3.33234e-07
3.13381e-08
3.33593e-07
2.92053e-08
3.33914e-07
2.75062e-08
3.34194e-07
2.60842e-08
3.34439e-07
2.47943e-08
3.34657e-07
2.36135e-08
3.34856e-07
2.25436e-08
3.3504e-07
2.15719e-08
3.3521e-07
2.06813e-08
3.35368e-07
1.98584e-08
3.35517e-07
1.90941e-08
3.35657e-07
1.83806e-08
3.3579e-07
1.77114e-08
3.35917e-07
1.70809e-08
3.36039e-07
1.6484e-08
3.36156e-07
1.59162e-08
3.36269e-07
1.53739e-08
3.3638e-07
1.48536e-08
3.36488e-07
1.43524e-08
3.36594e-07
1.38678e-08
3.36699e-07
1.33974e-08
3.36804e-07
1.29395e-08
3.36908e-07
1.2492e-08
3.37013e-07
1.20533e-08