/*--------------------------------*- C++ -*----------------------------------*\
  =========                 |
  \\      /  F ield         | OpenFOAM: The Open Source CFD Toolbox
   \\    /   O peration     | Website:  https://openfoam.org
    \\  /    A nd           | Version:  7
     \\/     M anipulation  |
\*---------------------------------------------------------------------------*/
FoamFile
{
    version     2.0;
    format      ascii;
    class       volVectorField;
    location    "0.25";
    object      U;
}
// * * * * * * * * * * * * * * * * * * * * * * * * * * * * * * * * * * * * * //

dimensions      [0 1 -1 0 0 0 0];

internalField   nonuniform List<vector> 
70000
(
(0.553415 0.0169781 0)
(0.251425 0.00340032 0)
(0.165943 0.000318872 0)
(0.13247 4.89447e-05 0)
(0.117376 4.39925e-05 0)
(0.10743 5.21505e-05 0)
(0.0994713 4.43426e-05 0)
(0.093041 3.52568e-05 0)
(0.087811 2.92093e-05 0)
(0.0834566 2.50615e-05 0)
(0.07975 2.18885e-05 0)
(0.0765437 1.93412e-05 0)
(0.0737366 1.72596e-05 0)
(0.0712547 1.55353e-05 0)
(0.069042 1.40874e-05 0)
(0.0670551 1.28565e-05 0)
(0.0652598 1.17982e-05 0)
(0.0636288 1.08789e-05 0)
(0.0621402 1.00727e-05 0)
(0.0607758 9.35942e-06 0)
(0.0595209 8.72286e-06 0)
(0.0583628 8.14999e-06 0)
(0.0572914 7.63019e-06 0)
(0.0562977 7.15467e-06 0)
(0.0553742 6.71587e-06 0)
(0.0545147 6.30766e-06 0)
(0.0537136 5.92397e-06 0)
(0.0529664 5.56056e-06 0)
(0.052269 5.2113e-06 0)
(0.0516182 4.87411e-06 0)
(0.0510111 4.54081e-06 0)
(0.0504454 4.21256e-06 0)
(0.0499193 3.87691e-06 0)
(0.0494313 3.53893e-06 0)
(0.0489805 3.18203e-06 0)
(0.0485664 2.80843e-06 0)
(0.0481883 2.41481e-06 0)
(0.0478485 1.95556e-06 0)
(0.0475435 1.53164e-06 0)
(0.0472844 8.66858e-07 0)
(0.047055 5.04031e-07 0)
(0.0468928 -6.81851e-07 0)
(0.0467413 -6.33793e-07 0)
(0.0467118 -3.21214e-06 0)
(0.0466335 -1.572e-06 0)
(0.0468114 -7.83841e-06 0)
(0.0467872 -9.88172e-07 0)
(0.0472844 -1.7952e-05 0)
(0.0475879 2.48147e-05 0)
(0.0442531 -0.00181706 0)
(0.884863 0.0434929 0)
(0.650161 0.0201482 0)
(0.494012 0.00660367 0)
(0.403617 0.00275368 0)
(0.354934 0.00154681 0)
(0.323648 0.00113046 0)
(0.29978 0.000907978 0)
(0.280603 0.000743332 0)
(0.264922 0.000620567 0)
(0.251835 0.000529992 0)
(0.240691 0.000461178 0)
(0.231049 0.000406966 0)
(0.222604 0.000363108 0)
(0.215133 0.000326954 0)
(0.208469 0.000296706 0)
(0.202481 0.000271072 0)
(0.197066 0.000249099 0)
(0.192144 0.000230073 0)
(0.187649 0.000213444 0)
(0.183525 0.000198789 0)
(0.179729 0.000185771 0)
(0.176223 0.00017412 0)
(0.172976 0.000163621 0)
(0.169961 0.000154092 0)
(0.167155 0.000145386 0)
(0.164539 0.000137376 0)
(0.162098 0.000129952 0)
(0.159815 0.000123022 0)
(0.15768 0.000116497 0)
(0.155682 0.000110306 0)
(0.153812 0.000104367 0)
(0.152062 9.86259e-05 0)
(0.150427 9.29879e-05 0)
(0.1489 8.74244e-05 0)
(0.14748 8.17978e-05 0)
(0.146163 7.61157e-05 0)
(0.144946 7.017e-05 0)
(0.143834 6.39924e-05 0)
(0.142816 5.73337e-05 0)
(0.141921 5.00717e-05 0)
(0.141104 4.22741e-05 0)
(0.140462 3.27933e-05 0)
(0.139845 2.36701e-05 0)
(0.139543 9.27641e-06 0)
(0.139107 3.6858e-07 0)
(0.139327 -2.74843e-05 0)
(0.139031 -2.4606e-05 0)
(0.140017 -0.000124246 0)
(0.140479 0.000173776 0)
(0.137663 -0.00314421 0)
(0.991208 0.0499548 0)
(0.890935 0.0305609 0)
(0.762529 0.0146081 0)
(0.656607 0.00796796 0)
(0.585541 0.00487656 0)
(0.536211 0.00347133 0)
(0.498359 0.002735 0)
(0.46777 0.00224059 0)
(0.442498 0.00187672 0)
(0.421234 0.0016049 0)
(0.403029 0.0013972 0)
(0.387218 0.00123357 0)
(0.373325 0.00110128 0)
(0.361002 0.000992246 0)
(0.349983 0.000901006 0)
(0.340062 0.000823668 0)
(0.331076 0.00075737 0)
(0.322894 0.00069996 0)
(0.315409 0.000649794 0)
(0.308534 0.000605593 0)
(0.302197 0.00056635 0)
(0.296337 0.000531257 0)
(0.290902 0.000499662 0)
(0.285848 0.000471028 0)
(0.28114 0.000444909 0)
(0.276744 0.00042093 0)
(0.272634 0.000398766 0)
(0.268786 0.000378138 0)
(0.265179 0.000358796 0)
(0.261796 0.000340522 0)
(0.258623 0.000323095 0)
(0.255645 0.000306347 0)
(0.252852 0.000290034 0)
(0.250236 0.000274054 0)
(0.247788 0.000258059 0)
(0.245506 0.000242068 0)
(0.24338 0.000225478 0)
(0.241419 0.00020856 0)
(0.239605 0.000190214 0)
(0.237975 0.000171103 0)
(0.236466 0.000149467 0)
(0.235215 0.00012601 0)
(0.234003 9.93433e-05 0)
(0.233245 6.6745e-05 0)
(0.232299 3.52828e-05 0)
(0.232277 -2.23816e-05 0)
(0.231541 -3.72035e-05 0)
(0.232581 -0.000248253 0)
(0.232634 0.000135906 0)
(0.232105 -0.00334532 0)
(1.01554 0.0489527 0)
(1.0065 0.0357215 0)
(0.935917 0.0208151 0)
(0.852079 0.0134934 0)
(0.782347 0.00919247 0)
(0.727247 0.00677751 0)
(0.682207 0.00538104 0)
(0.644496 0.00443955 0)
(0.612534 0.00374458 0)
(0.585124 0.00321828 0)
(0.561329 0.00281151 0)
(0.540444 0.00248891 0)
(0.52194 0.00222698 0)
(0.505416 0.00201034 0)
(0.490558 0.00182852 0)
(0.477116 0.00167402 0)
(0.464892 0.00154129 0)
(0.453722 0.00142616 0)
(0.443472 0.00132541 0)
(0.434031 0.00123654 0)
(0.425306 0.00115758 0)
(0.417219 0.00108693 0)
(0.409703 0.00102331 0)
(0.4027 0.000965659 0)
(0.396162 0.000913094 0)
(0.390046 0.000864872 0)
(0.384317 0.000820354 0)
(0.378942 0.00077899 0)
(0.373894 0.000740288 0)
(0.369149 0.000703821 0)
(0.364686 0.000669166 0)
(0.360488 0.000635988 0)
(0.356539 0.000603846 0)
(0.352827 0.00057252 0)
(0.349342 0.000541389 0)
(0.346075 0.000510485 0)
(0.343017 0.000478661 0)
(0.340173 0.000446579 0)
(0.337522 0.000411844 0)
(0.335107 0.000376546 0)
(0.33285 0.000335765 0)
(0.33091 0.000294097 0)
(0.329033 0.00024302 0)
(0.327693 0.000188243 0)
(0.326156 0.000123933 0)
(0.325679 3.27465e-05 0)
(0.324423 -1.62516e-05 0)
(0.325185 -0.000325646 0)
(0.324599 1.19456e-05 0)
(0.325308 -0.00318619 0)
(1.01435 0.0460969 0)
(1.04798 0.0373378 0)
(1.02459 0.0241811 0)
(0.974732 0.0175503 0)
(0.923577 0.0131007 0)
(0.876897 0.0101964 0)
(0.83479 0.00833568 0)
(0.797102 0.00701233 0)
(0.763609 0.00600084 0)
(0.733865 0.00521249 0)
(0.707359 0.00458961 0)
(0.683618 0.00408776 0)
(0.662247 0.00367551 0)
(0.642913 0.00333142 0)
(0.625342 0.00304046 0)
(0.609304 0.00279166 0)
(0.594607 0.00257681 0)
(0.581089 0.00238962 0)
(0.568614 0.00222521 0)
(0.557066 0.00207973 0)
(0.546346 0.00195012 0)
(0.53637 0.00183391 0)
(0.527064 0.00172907 0)
(0.518366 0.00163394 0)
(0.51022 0.00154713 0)
(0.502578 0.00146744 0)
(0.495398 0.00139386 0)
(0.488645 0.00132552 0)
(0.482286 0.00126162 0)
(0.476292 0.00120149 0)
(0.47064 0.00114446 0)
(0.465309 0.00108998 0)
(0.460279 0.00103739 0)
(0.455536 0.000986309 0)
(0.451066 0.000935806 0)
(0.446859 0.000885919 0)
(0.442904 0.000834871 0)
(0.439204 0.000783786 0)
(0.435735 0.000728753 0)
(0.432539 0.000673573 0)
(0.429538 0.000609586 0)
(0.42689 0.000546081 0)
(0.424339 0.000466074 0)
(0.422358 0.000385392 0)
(0.420218 0.000283112 0)
(0.419159 0.000153493 0)
(0.417383 5.96143e-05 0)
(0.41762 -0.000333007 0)
(0.416504 -0.000102091 0)
(0.41722 -0.00296569 0)
(1.00941 0.0430465 0)
(1.05564 0.0370927 0)
(1.05869 0.0253214 0)
(1.03634 0.0197533 0)
(1.0072 0.0157862 0)
(0.976228 0.0129209 0)
(0.944753 0.0109484 0)
(0.913947 0.00946403 0)
(0.884662 0.00827164 0)
(0.857279 0.00730272 0)
(0.831876 0.00651159 0)
(0.808388 0.00585775 0)
(0.786696 0.0053098 0)
(0.766658 0.00484502 0)
(0.748128 0.00444678 0)
(0.730967 0.00410248 0)
(0.715044 0.00380238 0)
(0.700241 0.00353884 0)
(0.686454 0.0033058 0)
(0.673588 0.00309839 0)
(0.661559 0.00291267 0)
(0.650294 0.00274543 0)
(0.639725 0.002594 0)
(0.629795 0.00245616 0)
(0.620451 0.00233003 0)
(0.611648 0.002214 0)
(0.603344 0.0021067 0)
(0.595504 0.0020069 0)
(0.588094 0.00191354 0)
(0.581087 0.00182566 0)
(0.574457 0.00174234 0)
(0.568181 0.00166281 0)
(0.562242 0.00158617 0)
(0.556621 0.00151187 0)
(0.551304 0.00143865 0)
(0.546282 0.00136653 0)
(0.54154 0.00129311 0)
(0.537081 0.00121993 0)
(0.532882 0.00114159 0)
(0.52898 0.00106351 0)
(0.525302 0.000973424 0)
(0.521994 0.000884938 0)
(0.51882 0.000773319 0)
(0.516213 0.000663091 0)
(0.513515 0.00052053 0)
(0.511837 0.00034873 0)
(0.509597 0.000204072 0)
(0.509167 -0.000265174 0)
(0.507676 -0.000158077 0)
(0.507854 -0.00269527 0)
(1.00635 0.0401784 0)
(1.05241 0.0361457 0)
(1.06607 0.0252442 0)
(1.05956 0.020557 0)
(1.04694 0.0172112 0)
(1.03093 0.0146364 0)
(1.01208 0.0128037 0)
(0.991444 0.0113761 0)
(0.970098 0.0101768 0)
(0.948765 0.00915943 0)
(0.927886 0.0082976 0)
(0.907723 0.00756297 0)
(0.888423 0.00693108 0)
(0.870056 0.00638317 0)
(0.852642 0.00590484 0)
(0.836167 0.00548467 0)
(0.820601 0.00511341 0)
(0.805902 0.00478351 0)
(0.792023 0.00448879 0)
(0.778915 0.00422414 0)
(0.766529 0.0039853 0)
(0.75482 0.00376873 0)
(0.743743 0.00357145 0)
(0.733256 0.00339091 0)
(0.72332 0.00322495 0)
(0.713901 0.00307166 0)
(0.704965 0.00292941 0)
(0.696483 0.00279672 0)
(0.688427 0.0026723 0)
(0.680773 0.00255495 0)
(0.673499 0.00244355 0)
(0.666585 0.00233714 0)
(0.660014 0.00223457 0)
(0.653771 0.00213515 0)
(0.647841 0.00203732 0)
(0.642216 0.00194105 0)
(0.636883 0.00184338 0)
(0.631844 0.00174615 0)
(0.627078 0.00164269 0)
(0.622617 0.00153963 0)
(0.6184 0.00142183 0)
(0.614549 0.00130598 0)
(0.610868 0.00116164 0)
(0.60772 0.00101867 0)
(0.604563 0.000835826 0)
(0.602313 0.000617606 0)
(0.5997 0.000421547 0)
(0.598596 -0.000119164 0)
(0.596809 -0.000143771 0)
(0.59636 -0.00236534 0)
(1.00506 0.0375012 0)
(1.04763 0.0350472 0)
(1.06397 0.0246963 0)
(1.06421 0.0205873 0)
(1.06073 0.0177482 0)
(1.05486 0.0154753 0)
(1.04613 0.0138574 0)
(1.03499 0.0125943 0)
(1.02213 0.0115052 0)
(1.00816 0.0105503 0)
(0.993548 0.00971563 0)
(0.978633 0.00898313 0)
(0.963684 0.00833596 0)
(0.948895 0.00776107 0)
(0.934403 0.00724823 0)
(0.920299 0.00678903 0)
(0.906642 0.00637635 0)
(0.893469 0.00600411 0)
(0.880796 0.00566709 0)
(0.868628 0.00536083 0)
(0.856962 0.00508151 0)
(0.845789 0.00482582 0)
(0.835096 0.00459092 0)
(0.824865 0.00437432 0)
(0.815081 0.00417384 0)
(0.805724 0.00398755 0)
(0.796778 0.00381373 0)
(0.788225 0.00365082 0)
(0.780047 0.00349742 0)
(0.772228 0.0033522 0)
(0.764755 0.00321392 0)
(0.757612 0.00308148 0)
(0.750788 0.00295357 0)
(0.744272 0.00282938 0)
(0.738053 0.0027071 0)
(0.732125 0.00258666 0)
(0.72648 0.00246462 0)
(0.721117 0.00234303 0)
(0.716023 0.00221421 0)
(0.711224 0.00208555 0)
(0.706671 0.0019399 0)
(0.702464 0.00179554 0)
(0.69845 0.00161893 0)
(0.694918 0.00144117 0)
(0.69145 0.00121964 0)
(0.688754 0.000952392 0)
(0.685882 0.000705409 0)
(0.684213 0.000100213 0)
(0.682188 -5.74448e-05 0)
(0.681191 -0.00198766 0)
(1.00451 0.0349652 0)
(1.0436 0.0339671 0)
(1.05994 0.0240451 0)
(1.06225 0.0202974 0)
(1.06255 0.0178121 0)
(1.06191 0.0157533 0)
(1.05936 0.0143087 0)
(1.05485 0.0132107 0)
(1.04867 0.0122631 0)
(1.04116 0.0114197 0)
(1.03258 0.0106688 0)
(1.02319 0.00999665 0)
(1.01321 0.00939014 0)
(1.00285 0.00883987 0)
(0.992262 0.00833892 0)
(0.981584 0.00788172 0)
(0.970918 0.00746349 0)
(0.960344 0.00708003 0)
(0.949924 0.00672761 0)
(0.939704 0.00640294 0)
(0.929718 0.00610309 0)
(0.91999 0.00582543 0)
(0.910536 0.00556767 0)
(0.901366 0.00532769 0)
(0.892486 0.00510361 0)
(0.883897 0.00489373 0)
(0.8756 0.00469647 0)
(0.867591 0.00451036 0)
(0.859867 0.00433403 0)
(0.852422 0.00416621 0)
(0.845252 0.00400562 0)
(0.838351 0.00385112 0)
(0.831715 0.00370134 0)
(0.825338 0.00355539 0)
(0.819216 0.0034113 0)
(0.813347 0.00326897 0)
(0.807727 0.00312462 0)
(0.802358 0.00298035 0)
(0.797232 0.00282787 0)
(0.792372 0.00267476 0)
(0.787743 0.00250291 0)
(0.783424 0.00233058 0)
(0.779303 0.00212375 0)
(0.775599 0.00191095 0)
(0.77201 0.00165351 0)
(0.769054 0.00133746 0)
(0.766072 0.00104037 0)
(0.764015 0.00038066 0)
(0.761839 9.56e-05 0)
(0.760436 -0.00158193 0)
(1.00412 0.0325345 0)
(1.04027 0.0329134 0)
(1.05618 0.0234102 0)
(1.05889 0.0199125 0)
(1.06028 0.0176824 0)
(1.06168 0.0157549 0)
(1.06207 0.0144112 0)
(1.0612 0.013428 0)
(1.05918 0.0125958 0)
(1.0561 0.0118574 0)
(1.05206 0.011199 0)
(1.04718 0.0106061 0)
(1.04156 0.0100659 0)
(1.03535 0.00956944 0)
(1.02866 0.00911095 0)
(1.0216 0.0086862 0)
(1.01426 0.00829178 0)
(1.00673 0.00792478 0)
(0.99909 0.00758267 0)
(0.991392 0.00726318 0)
(0.983688 0.00696428 0)
(0.976021 0.00668414 0)
(0.968425 0.00642106 0)
(0.960929 0.0061735 0)
(0.953554 0.00594002 0)
(0.946318 0.00571926 0)
(0.939235 0.00550996 0)
(0.932315 0.00531088 0)
(0.925567 0.00512084 0)
(0.918997 0.00493867 0)
(0.912609 0.00476321 0)
(0.906407 0.00459336 0)
(0.900392 0.00442776 0)
(0.894568 0.00426554 0)
(0.888937 0.00410465 0)
(0.8835 0.00394495 0)
(0.87826 0.00378249 0)
(0.873222 0.00361931 0)
(0.868384 0.00344681 0)
(0.863766 0.00327234 0)
(0.859347 0.00307771 0)
(0.855187 0.00287984 0)
(0.851211 0.00264641 0)
(0.847581 0.0024005 0)
(0.844089 0.00211092 0)
(0.841099 0.00174939 0)
(0.838178 0.0014037 0)
(0.83595 0.00070272 0)
(0.833746 0.000300613 0)
(0.832115 -0.00116855 0)
(1.00374 0.0302001 0)
(1.03727 0.0318641 0)
(1.05284 0.0228064 0)
(1.05565 0.0195098 0)
(1.05719 0.0174914 0)
(1.05913 0.0156523 0)
(1.06059 0.0143559 0)
(1.06131 0.0134357 0)
(1.06135 0.0126765 0)
(1.06074 0.0120117 0)
(1.05947 0.011425 0)
(1.05757 0.0109006 0)
(1.05507 0.0104241 0)
(1.05202 0.00998549 0)
(1.04846 0.00957844 0)
(1.04448 0.00919861 0)
(1.04012 0.00884277 0)
(1.03545 0.00850836 0)
(1.03051 0.00819332 0)
(1.02538 0.00789589 0)
(1.02008 0.00761455 0)
(1.01467 0.00734797 0)
(1.00918 0.00709492 0)
(1.00364 0.0068543 0)
(0.998088 0.00662507 0)
(0.99254 0.00640621 0)
(0.987021 0.00619676 0)
(0.981548 0.00599576 0)
(0.976138 0.00580224 0)
(0.970803 0.00561524 0)
(0.965556 0.0054337 0)
(0.960405 0.00525667 0)
(0.955361 0.00508284 0)
(0.95043 0.00491139 0)
(0.94562 0.00474025 0)
(0.940939 0.00456929 0)
(0.936391 0.00439448 0)
(0.931986 0.0042177 0)
(0.927727 0.00403038 0)
(0.923633 0.00383921 0)
(0.919692 0.00362671 0)
(0.915953 0.00340741 0)
(0.912369 0.0031523 0)
(0.909053 0.00287723 0)
(0.905877 0.00256029 0)
(0.90308 0.00215907 0)
(0.900401 0.0017683 0)
(0.898224 0.00103903 0)
(0.896138 0.000533834 0)
(0.894469 -0.000769311 0)
(1.00337 0.0279645 0)
(1.03443 0.0308066 0)
(1.04974 0.0222276 0)
(1.05269 0.0191044 0)
(1.05419 0.0172818 0)
(1.05619 0.0155206 0)
(1.05792 0.014246 0)
(1.05916 0.0133562 0)
(1.06 0.0126372 0)
(1.0605 0.0120152 0)
(1.06062 0.011473 0)
(1.06036 0.0109947 0)
(1.0597 0.0105648 0)
(1.05864 0.0101721 0)
(1.0572 0.0098092 0)
(1.0554 0.00947109 0)
(1.05326 0.00915405 0)
(1.05082 0.00885523 0)
(1.0481 0.00857241 0)
(1.04514 0.00830382 0)
(1.04196 0.008048 0)
(1.0386 0.00780375 0)
(1.03508 0.00757001 0)
(1.03143 0.00734587 0)
(1.02769 0.00713048 0)
(1.02386 0.00692304 0)
(1.01998 0.0067228 0)
(1.01606 0.00652897 0)
(1.01212 0.00634077 0)
(1.00817 0.00615737 0)
(1.00424 0.00597787 0)
(1.00032 0.00580142 0)
(0.996441 0.00562676 0)
(0.992604 0.00545315 0)
(0.988823 0.00527855 0)
(0.985106 0.00510278 0)
(0.981462 0.00492184 0)
(0.977903 0.00473739 0)
(0.974435 0.00454107 0)
(0.971074 0.00433865 0)
(0.967819 0.00411393 0)
(0.964706 0.00387834 0)
(0.96171 0.00360719 0)
(0.958908 0.00330837 0)
(0.95623 0.00296945 0)
(0.953823 0.00253616 0)
(0.951545 0.00210547 0)
(0.949614 0.00136001 0)
(0.94779 0.000769338 0)
(0.946258 -0.00040685 0)
(1.00301 0.0258311 0)
(1.03171 0.0297371 0)
(1.04674 0.0216699 0)
(1.0499 0.0186961 0)
(1.05137 0.0170604 0)
(1.05333 0.0153818 0)
(1.0551 0.0141223 0)
(1.05645 0.0132484 0)
(1.05753 0.0125521 0)
(1.05841 0.0119535 0)
(1.0591 0.0114354 0)
(1.05957 0.0109833 0)
(1.05981 0.0105817 0)
(1.05981 0.0102187 0)
(1.05957 0.00988623 0)
(1.05908 0.00957876 0)
(1.05836 0.00929199 0)
(1.0574 0.00902265 0)
(1.05621 0.00876814 0)
(1.05482 0.00852641 0)
(1.05323 0.00829582 0)
(1.05146 0.00807499 0)
(1.04952 0.00786283 0)
(1.04744 0.00765835 0)
(1.04523 0.00746074 0)
(1.04291 0.00726923 0)
(1.04049 0.00708311 0)
(1.03799 0.00690168 0)
(1.03542 0.00672422 0)
(1.03281 0.00654999 0)
(1.03015 0.00637814 0)
(1.02746 0.00620789 0)
(1.02476 0.00603802 0)
(1.02205 0.00586784 0)
(1.01935 0.00569528 0)
(1.01666 0.00552016 0)
(1.014 0.0053385 0)
(1.01137 0.00515167 0)
(1.00879 0.00495172 0)
(1.00627 0.00474324 0)
(1.0038 0.0045117 0)
(1.00143 0.00426508 0)
(0.999138 0.0039834 0)
(0.996974 0.00366677 0)
(0.994907 0.00331122 0)
(0.993023 0.00285419 0)
(0.991254 0.00238985 0)
(0.989713 0.00163872 0)
(0.98826 0.000981742 0)
(0.987002 -0.000101717 0)
(1.00268 0.0238026 0)
(1.02911 0.0286536 0)
(1.04383 0.0211329 0)
(1.0472 0.0182846 0)
(1.04868 0.0168256 0)
(1.05061 0.0152386 0)
(1.05237 0.0139959 0)
(1.05373 0.0131332 0)
(1.05485 0.012453 0)
(1.05582 0.011869 0)
(1.05668 0.0113641 0)
(1.05741 0.0109261 0)
(1.05801 0.0105398 0)
(1.05848 0.0101935 0)
(1.05881 0.00987906 0)
(1.05899 0.00959056 0)
(1.05903 0.00932352 0)
(1.05891 0.00907434 0)
(1.05864 0.00884016 0)
(1.05823 0.00861865 0)
(1.05766 0.00840793 0)
(1.05696 0.00820644 0)
(1.05613 0.00801286 0)
(1.05517 0.00782611 0)
(1.05409 0.00764525 0)
(1.05291 0.00746942 0)
(1.05163 0.00729788 0)
(1.05026 0.0071299 0)
(1.04881 0.00696473 0)
(1.0473 0.00680165 0)
(1.04573 0.00663979 0)
(1.0441 0.00647838 0)
(1.04244 0.00631621 0)
(1.04074 0.00615254 0)
(1.03903 0.00598534 0)
(1.03729 0.0058143 0)
(1.03556 0.00563554 0)
(1.03382 0.00545004 0)
(1.0321 0.00525038 0)
(1.0304 0.00503981 0)
(1.02873 0.00480569 0)
(1.02711 0.00455248 0)
(1.02554 0.00426479 0)
(1.02404 0.00393586 0)
(1.02262 0.00356835 0)
(1.02131 0.00309543 0)
(1.02009 0.00260397 0)
(1.01901 0.00185567 0)
(1.01799 0.00115004 0)
(1.01708 0.000134548 0)
(1.00238 0.0218806 0)
(1.02664 0.0275556 0)
(1.04101 0.0206164 0)
(1.0446 0.0178717 0)
(1.04609 0.0165761 0)
(1.04799 0.0150895 0)
(1.04975 0.0138679 0)
(1.0511 0.0130155 0)
(1.05221 0.0123497 0)
(1.05319 0.0117778 0)
(1.05408 0.0112821 0)
(1.05487 0.0108523 0)
(1.05559 0.0104746 0)
(1.05622 0.0101375 0)
(1.05677 0.00983292 0)
(1.05724 0.00955502 0)
(1.05762 0.0092993 0)
(1.05791 0.00906212 0)
(1.05811 0.00884048 0)
(1.05821 0.00863195 0)
(1.05823 0.00843447 0)
(1.05815 0.00824633 0)
(1.05798 0.00806609 0)
(1.05772 0.0078925 0)
(1.05738 0.0077245 0)
(1.05695 0.00756116 0)
(1.05645 0.00740161 0)
(1.05587 0.00724506 0)
(1.05523 0.00709071 0)
(1.05452 0.00693778 0)
(1.05376 0.00678537 0)
(1.05295 0.00663267 0)
(1.0521 0.00647843 0)
(1.05121 0.00632186 0)
(1.05028 0.0061609 0)
(1.04933 0.00599512 0)
(1.04836 0.00582076 0)
(1.04738 0.00563829 0)
(1.0464 0.00544094 0)
(1.04542 0.00523057 0)
(1.04445 0.00499641 0)
(1.0435 0.0047396 0)
(1.04258 0.00444891 0)
(1.0417 0.00411198 0)
(1.04087 0.00373596 0)
(1.04011 0.0032536 0)
(1.03941 0.00274108 0)
(1.03879 0.00200141 0)
(1.03819 0.00126244 0)
(1.03766 0.000296224 0)
(1.0021 0.0200661 0)
(1.02431 0.0264449 0)
(1.03828 0.020118 0)
(1.04207 0.0174591 0)
(1.04359 0.0163119 0)
(1.04546 0.0149331 0)
(1.04722 0.0137377 0)
(1.04857 0.0128957 0)
(1.04967 0.0122443 0)
(1.05063 0.0116843 0)
(1.05151 0.0111968 0)
(1.05231 0.0107735 0)
(1.05304 0.0104017 0)
(1.05371 0.0100704 0)
(1.05433 0.00977155 0)
(1.05489 0.00949962 0)
(1.0554 0.00925017 0)
(1.05585 0.00901964 0)
(1.05625 0.00880506 0)
(1.0566 0.00860396 0)
(1.05689 0.00841426 0)
(1.05713 0.00823417 0)
(1.0573 0.00806218 0)
(1.05743 0.00789696 0)
(1.05749 0.00773737 0)
(1.05751 0.00758239 0)
(1.05747 0.00743109 0)
(1.05738 0.0072826 0)
(1.05725 0.00713607 0)
(1.05707 0.00699067 0)
(1.05684 0.00684545 0)
(1.05658 0.00669954 0)
(1.05629 0.00655164 0)
(1.05596 0.00640091 0)
(1.05561 0.00624527 0)
(1.05523 0.0060841 0)
(1.05483 0.0059138 0)
(1.05442 0.00573433 0)
(1.054 0.00553957 0)
(1.05357 0.00532999 0)
(1.05315 0.00509665 0)
(1.05274 0.00483773 0)
(1.05234 0.00454539 0)
(1.05197 0.00420326 0)
(1.05163 0.00382082 0)
(1.05133 0.00333354 0)
(1.05107 0.00280509 0)
(1.05085 0.00207694 0)
(1.05062 0.00131744 0)
(1.05043 0.000384043 0)
(1.00185 0.0183594 0)
(1.02211 0.0253256 0)
(1.03564 0.0196341 0)
(1.03964 0.0170487 0)
(1.04117 0.0160336 0)
(1.04301 0.0147687 0)
(1.04477 0.013605 0)
(1.04613 0.0127736 0)
(1.04721 0.0121367 0)
(1.04816 0.0115893 0)
(1.04903 0.0111101 0)
(1.04982 0.0106929 0)
(1.05054 0.0103264 0)
(1.05121 0.00999967 0)
(1.05184 0.00970505 0)
(1.05242 0.00943708 0)
(1.05296 0.00919152 0)
(1.05346 0.00896488 0)
(1.05393 0.0087543 0)
(1.05437 0.00855733 0)
(1.05477 0.00837192 0)
(1.05514 0.00819628 0)
(1.05547 0.00802888 0)
(1.05577 0.00786837 0)
(1.05604 0.00771356 0)
(1.05628 0.0075634 0)
(1.05648 0.00741692 0)
(1.05666 0.00727321 0)
(1.0568 0.00713138 0)
(1.05692 0.00699058 0)
(1.05702 0.0068498 0)
(1.05708 0.00670814 0)
(1.05713 0.00656427 0)
(1.05716 0.00641728 0)
(1.05717 0.00626509 0)
(1.05716 0.00610689 0)
(1.05714 0.00593927 0)
(1.05711 0.00576165 0)
(1.05707 0.00556858 0)
(1.05704 0.00535925 0)
(1.057 0.00512631 0)
(1.05697 0.00486552 0)
(1.05695 0.0045716 0)
(1.05695 0.00422571 0)
(1.05697 0.00383773 0)
(1.05701 0.00334826 0)
(1.05708 0.00280772 0)
(1.05717 0.00209188 0)
(1.05724 0.0013209 0)
(1.05731 0.000408866 0)
(1.00162 0.0167602 0)
(1.02005 0.0242019 0)
(1.03311 0.0191606 0)
(1.03729 0.0166421 0)
(1.03885 0.0157423 0)
(1.04066 0.0145954 0)
(1.04241 0.0134694 0)
(1.04377 0.0126491 0)
(1.04485 0.0120266 0)
(1.04579 0.0114924 0)
(1.04664 0.0110222 0)
(1.04742 0.0106113 0)
(1.04813 0.01025 0)
(1.04879 0.00992767 0)
(1.0494 0.00963686 0)
(1.04998 0.00937221 0)
(1.05052 0.00912964 0)
(1.05103 0.00890578 0)
(1.05152 0.00869783 0)
(1.05197 0.00850341 0)
(1.05241 0.00832049 0)
(1.05282 0.00814733 0)
(1.05321 0.0079824 0)
(1.05358 0.00782435 0)
(1.05393 0.00767199 0)
(1.05426 0.00752425 0)
(1.05457 0.00738015 0)
(1.05487 0.00723878 0)
(1.05515 0.00709922 0)
(1.05542 0.00696062 0)
(1.05568 0.00682193 0)
(1.05592 0.00668226 0)
(1.05615 0.00654024 0)
(1.05637 0.0063949 0)
(1.05659 0.0062442 0)
(1.05679 0.00608713 0)
(1.05699 0.00592049 0)
(1.05719 0.00574321 0)
(1.05739 0.00555043 0)
(1.05759 0.00534026 0)
(1.0578 0.00510666 0)
(1.05801 0.00484357 0)
(1.05824 0.00454738 0)
(1.05847 0.00419819 0)
(1.05873 0.00380482 0)
(1.05901 0.00331441 0)
(1.0593 0.00276461 0)
(1.05959 0.00206028 0)
(1.05986 0.00128379 0)
(1.06013 0.000385151 0)
(1.00142 0.0152677 0)
(1.01812 0.0230778 0)
(1.03069 0.0186934 0)
(1.03502 0.0162407 0)
(1.03663 0.0154393 0)
(1.0384 0.0144128 0)
(1.04014 0.0133305 0)
(1.04151 0.0125223 0)
(1.04258 0.0119139 0)
(1.04351 0.0113936 0)
(1.04435 0.0109329 0)
(1.04511 0.0105286 0)
(1.04581 0.0101726 0)
(1.04646 0.00985485 0)
(1.04706 0.00956785 0)
(1.04762 0.00930644 0)
(1.04816 0.00906665 0)
(1.04866 0.00884522 0)
(1.04914 0.00863943 0)
(1.04959 0.00844694 0)
(1.05003 0.00826578 0)
(1.05045 0.00809422 0)
(1.05085 0.00793074 0)
(1.05124 0.00777402 0)
(1.05161 0.00762286 0)
(1.05198 0.0074762 0)
(1.05233 0.00733306 0)
(1.05268 0.00719253 0)
(1.05301 0.0070537 0)
(1.05334 0.00691571 0)
(1.05367 0.00677752 0)
(1.05399 0.00663821 0)
(1.05431 0.00649643 0)
(1.05462 0.00635114 0)
(1.05494 0.00620035 0)
(1.05525 0.0060429 0)
(1.05557 0.00587576 0)
(1.05588 0.00569745 0)
(1.05621 0.00550363 0)
(1.05654 0.00529153 0)
(1.05688 0.0050561 0)
(1.05723 0.00479005 0)
(1.05759 0.00449069 0)
(1.05797 0.00413816 0)
(1.05836 0.00373927 0)
(1.05877 0.00324824 0)
(1.05919 0.00269127 0)
(1.05961 0.00199675 0)
(1.06 0.00121855 0)
(1.06038 0.00032781 0)
(1.00124 0.0138806 0)
(1.01633 0.0219574 0)
(1.02837 0.0182289 0)
(1.03285 0.0158458 0)
(1.0345 0.0151263 0)
(1.03623 0.0142203 0)
(1.03796 0.013188 0)
(1.03933 0.0123931 0)
(1.0404 0.0117986 0)
(1.04131 0.0112926 0)
(1.04214 0.0108421 0)
(1.0429 0.0104448 0)
(1.04359 0.0100943 0)
(1.04422 0.00978122 0)
(1.04481 0.00949816 0)
(1.04536 0.00924005 0)
(1.04588 0.00900306 0)
(1.04638 0.00878403 0)
(1.04685 0.00858029 0)
(1.04729 0.00838958 0)
(1.04772 0.00820993 0)
(1.04813 0.00803965 0)
(1.04853 0.00787724 0)
(1.04892 0.00772137 0)
(1.0493 0.00757086 0)
(1.04966 0.00742465 0)
(1.05003 0.00728177 0)
(1.05038 0.00714132 0)
(1.05073 0.0070024 0)
(1.05108 0.00686413 0)
(1.05143 0.00672551 0)
(1.05178 0.00658559 0)
(1.05213 0.00644305 0)
(1.05248 0.00629679 0)
(1.05284 0.00614488 0)
(1.0532 0.00598602 0)
(1.05356 0.00581736 0)
(1.05394 0.00563704 0)
(1.05432 0.00544117 0)
(1.05471 0.0052263 0)
(1.05511 0.0049881 0)
(1.05552 0.00471854 0)
(1.05596 0.00441526 0)
(1.0564 0.00405921 0)
(1.05686 0.00365472 0)
(1.05734 0.00316298 0)
(1.05782 0.00260045 0)
(1.05829 0.00191385 0)
(1.05875 0.00113625 0)
(1.05918 0.000249839 0)
(1.00107 0.0125967 0)
(1.01467 0.0208447 0)
(1.02616 0.0177636 0)
(1.03076 0.0154582 0)
(1.03246 0.0148051 0)
(1.03415 0.0140174 0)
(1.03586 0.0130414 0)
(1.03724 0.0122616 0)
(1.0383 0.0116807 0)
(1.03921 0.0111894 0)
(1.04003 0.0107496 0)
(1.04078 0.0103597 0)
(1.04145 0.0100149 0)
(1.04208 0.0097067 0)
(1.04266 0.00942772 0)
(1.0432 0.00917303 0)
(1.04371 0.00893893 0)
(1.04419 0.00872236 0)
(1.04465 0.00852071 0)
(1.04509 0.00833176 0)
(1.0455 0.00815359 0)
(1.04591 0.00798452 0)
(1.0463 0.00782306 0)
(1.04668 0.00766788 0)
(1.04705 0.00751782 0)
(1.04741 0.00737182 0)
(1.04777 0.0072289 0)
(1.04812 0.0070882 0)
(1.04847 0.00694879 0)
(1.04882 0.00680983 0)
(1.04918 0.00667031 0)
(1.04953 0.00652929 0)
(1.04989 0.00638545 0)
(1.05025 0.00623767 0)
(1.05061 0.00608407 0)
(1.05099 0.0059232 0)
(1.05137 0.00575241 0)
(1.05176 0.0055695 0)
(1.05216 0.00537096 0)
(1.05257 0.00515284 0)
(1.053 0.00491125 0)
(1.05344 0.00463786 0)
(1.05389 0.00433018 0)
(1.05436 0.0039705 0)
(1.05485 0.00356054 0)
(1.05534 0.00306787 0)
(1.05584 0.00250118 0)
(1.05634 0.00182078 0)
(1.05681 0.0010452 0)
(1.05726 0.000161159 0)
(1.00093 0.0114134 0)
(1.01314 0.0197439 0)
(1.02406 0.0172944 0)
(1.02876 0.0150785 0)
(1.03052 0.0144777 0)
(1.03217 0.0138039 0)
(1.03386 0.0128901 0)
(1.03524 0.0121278 0)
(1.0363 0.0115601 0)
(1.0372 0.0110837 0)
(1.03801 0.0106554 0)
(1.03875 0.0102732 0)
(1.03941 0.00993441 0)
(1.04003 0.00963121 0)
(1.0406 0.00935647 0)
(1.04113 0.00910534 0)
(1.04163 0.00887422 0)
(1.0421 0.00866018 0)
(1.04255 0.00846068 0)
(1.04298 0.00827355 0)
(1.04338 0.00809688 0)
(1.04378 0.00792903 0)
(1.04416 0.0077685 0)
(1.04453 0.00761399 0)
(1.04489 0.00746432 0)
(1.04525 0.00731844 0)
(1.0456 0.00717539 0)
(1.04594 0.00703429 0)
(1.04629 0.00689424 0)
(1.04663 0.00675441 0)
(1.04698 0.0066138 0)
(1.04733 0.00647145 0)
(1.04768 0.00632607 0)
(1.04804 0.0061765 0)
(1.04841 0.00602093 0)
(1.04878 0.00585777 0)
(1.04916 0.00568452 0)
(1.04955 0.00549875 0)
(1.04996 0.00529721 0)
(1.05037 0.0050756 0)
(1.0508 0.00483032 0)
(1.05124 0.00455299 0)
(1.0517 0.00424075 0)
(1.05217 0.00387744 0)
(1.05265 0.00346237 0)
(1.05315 0.00296862 0)
(1.05364 0.00239901 0)
(1.05413 0.00172357 0)
(1.0546 0.000950936 0)
(1.05505 6.84182e-05 0)
(1.0008 0.0103276 0)
(1.01174 0.018659 0)
(1.02208 0.0168186 0)
(1.02684 0.014707 0)
(1.02867 0.0141461 0)
(1.03028 0.0135796 0)
(1.03194 0.0127334 0)
(1.03332 0.0119916 0)
(1.03439 0.0114369 0)
(1.03528 0.0109755 0)
(1.03608 0.0105592 0)
(1.03681 0.0101853 0)
(1.03747 0.00985267 0)
(1.03807 0.00955466 0)
(1.03863 0.00928433 0)
(1.03915 0.00903689 0)
(1.03964 0.00880887 0)
(1.04011 0.00859745 0)
(1.04054 0.00840017 0)
(1.04096 0.00821491 0)
(1.04136 0.00803979 0)
(1.04175 0.00787318 0)
(1.04212 0.00771361 0)
(1.04248 0.00755977 0)
(1.04283 0.00741048 0)
(1.04318 0.00726471 0)
(1.04352 0.00712149 0)
(1.04386 0.00697995 0)
(1.0442 0.00683921 0)
(1.04454 0.00669844 0)
(1.04488 0.00655664 0)
(1.04522 0.00641287 0)
(1.04557 0.00626585 0)
(1.04592 0.00611438 0)
(1.04628 0.00595671 0)
(1.04664 0.00579115 0)
(1.04702 0.0056153 0)
(1.0474 0.00542657 0)
(1.0478 0.00522188 0)
(1.04821 0.00499675 0)
(1.04863 0.00474765 0)
(1.04906 0.00446644 0)
(1.04951 0.00414968 0)
(1.04998 0.00378286 0)
(1.05045 0.00336321 0)
(1.05093 0.00286839 0)
(1.05141 0.00229698 0)
(1.05188 0.00162569 0)
(1.05233 0.000856845 0)
(1.05276 -2.3844e-05 0)
(1.00069 0.00933528 0)
(1.01046 0.0175941 0)
(1.02021 0.016334 0)
(1.02501 0.0143437 0)
(1.02691 0.0138123 0)
(1.02848 0.0133448 0)
(1.03012 0.0125708 0)
(1.0315 0.011853 0)
(1.03257 0.0113111 0)
(1.03345 0.0108646 0)
(1.03424 0.010461 0)
(1.03496 0.0100957 0)
(1.03561 0.00976962 0)
(1.03621 0.00947698 0)
(1.03676 0.00921122 0)
(1.03727 0.0089676 0)
(1.03775 0.0087428 0)
(1.03821 0.00853409 0)
(1.03864 0.00833912 0)
(1.03904 0.00815578 0)
(1.03944 0.00798227 0)
(1.03981 0.00781695 0)
(1.04018 0.00765836 0)
(1.04053 0.0075052 0)
(1.04087 0.00735631 0)
(1.04121 0.00721064 0)
(1.04155 0.00706724 0)
(1.04188 0.00692525 0)
(1.04221 0.00678379 0)
(1.04254 0.00664204 0)
(1.04287 0.00649903 0)
(1.0432 0.00635379 0)
(1.04354 0.0062051 0)
(1.04389 0.00605168 0)
(1.04424 0.00589186 0)
(1.0446 0.00572386 0)
(1.04497 0.00554537 0)
(1.04534 0.00535367 0)
(1.04573 0.00514578 0)
(1.04613 0.00491719 0)
(1.04654 0.00466429 0)
(1.04696 0.00437932 0)
(1.0474 0.00405826 0)
(1.04785 0.00368813 0)
(1.04831 0.00326454 0)
(1.04877 0.00276875 0)
(1.04923 0.0021966 0)
(1.04968 0.00152906 0)
(1.0501 0.000764744 0)
(1.0505 -0.000112658 0)
(1.0006 0.00843227 0)
(1.0093 0.0165533 0)
(1.01845 0.0158386 0)
(1.02327 0.0139882 0)
(1.02524 0.0134781 0)
(1.02677 0.0131 0)
(1.02838 0.0124017 0)
(1.02976 0.0117116 0)
(1.03083 0.0111827 0)
(1.03171 0.0107509 0)
(1.03249 0.0103605 0)
(1.0332 0.0100045 0)
(1.03384 0.00968515 0)
(1.03443 0.00939806 0)
(1.03498 0.00913703 0)
(1.03548 0.00889739 0)
(1.03595 0.00867592 0)
(1.0364 0.00847003 0)
(1.03682 0.00827744 0)
(1.03722 0.00809611 0)
(1.0376 0.00792425 0)
(1.03797 0.00776026 0)
(1.03833 0.00760269 0)
(1.03867 0.00745024 0)
(1.03901 0.00730175 0)
(1.03934 0.00715619 0)
(1.03967 0.00701261 0)
(1.03999 0.00687016 0)
(1.04031 0.00672798 0)
(1.04064 0.00658524 0)
(1.04096 0.00644099 0)
(1.04129 0.00629427 0)
(1.04162 0.00614387 0)
(1.04196 0.0059885 0)
(1.0423 0.0058265 0)
(1.04265 0.00565606 0)
(1.04301 0.00547492 0)
(1.04338 0.00528029 0)
(1.04376 0.00506924 0)
(1.04415 0.00483726 0)
(1.04455 0.00458068 0)
(1.04496 0.00429211 0)
(1.04538 0.00396705 0)
(1.04581 0.00359386 0)
(1.04625 0.003167 0)
(1.0467 0.0026705 0)
(1.04713 0.00209853 0)
(1.04756 0.00143479 0)
(1.04795 0.000675691 0)
(1.04832 -0.000196651 0)
(1.00051 0.00761375 0)
(1.00825 0.0155404 0)
(1.0168 0.0153313 0)
(1.02161 0.0136399 0)
(1.02365 0.0131454 0)
(1.02516 0.0128458 0)
(1.02673 0.0122254 0)
(1.0281 0.0115673 0)
(1.02917 0.0110518 0)
(1.03005 0.0106345 0)
(1.03083 0.0102576 0)
(1.03153 0.00991148 0)
(1.03216 0.00959916 0)
(1.03275 0.00931781 0)