/*--------------------------------*- C++ -*----------------------------------*\
  =========                 |
  \\      /  F ield         | OpenFOAM: The Open Source CFD Toolbox
   \\    /   O peration     | Website:  https://openfoam.org
    \\  /    A nd           | Version:  7
     \\/     M anipulation  |
\*---------------------------------------------------------------------------*/
FoamFile
{
    version     2.0;
    format      ascii;
    class       volVectorField;
    location    "0.25";
    object      U_0;
}
// * * * * * * * * * * * * * * * * * * * * * * * * * * * * * * * * * * * * * //

dimensions      [0 1 -1 0 0 0 0];

internalField   nonuniform List<vector> 
70000
(
(0.553415 0.0169781 0)
(0.251425 0.00340032 0)
(0.165943 0.000318871 0)
(0.13247 4.89443e-05 0)
(0.117376 4.3992e-05 0)
(0.10743 5.21501e-05 0)
(0.0994714 4.43422e-05 0)
(0.0930411 3.52565e-05 0)
(0.0878111 2.9209e-05 0)
(0.0834567 2.50612e-05 0)
(0.0797501 2.18881e-05 0)
(0.0765438 1.93408e-05 0)
(0.0737367 1.72592e-05 0)
(0.0712549 1.55348e-05 0)
(0.0690422 1.4087e-05 0)
(0.0670553 1.28561e-05 0)
(0.06526 1.17977e-05 0)
(0.063629 1.08784e-05 0)
(0.0621404 1.00722e-05 0)
(0.060776 9.35893e-06 0)
(0.0595211 8.72235e-06 0)
(0.058363 8.14948e-06 0)
(0.0572916 7.62966e-06 0)
(0.0562978 7.15413e-06 0)
(0.0553744 6.71532e-06 0)
(0.0545148 6.30711e-06 0)
(0.0537138 5.92341e-06 0)
(0.0529665 5.56e-06 0)
(0.0522691 5.21072e-06 0)
(0.0516182 4.87351e-06 0)
(0.0510112 4.54019e-06 0)
(0.0504454 4.2119e-06 0)
(0.0499193 3.8762e-06 0)
(0.0494312 3.53815e-06 0)
(0.0489803 3.1811e-06 0)
(0.0485662 2.80735e-06 0)
(0.0481879 2.41342e-06 0)
(0.0478481 1.95389e-06 0)
(0.047543 1.5293e-06 0)
(0.0472838 8.6392e-07 0)
(0.0470543 4.99784e-07 0)
(0.046892 -6.87456e-07 0)
(0.0467404 -6.419e-07 0)
(0.046711 -3.2229e-06 0)
(0.0466328 -1.58971e-06 0)
(0.0468109 -7.86092e-06 0)
(0.0467873 -1.02907e-06 0)
(0.047285 -1.79913e-05 0)
(0.0475915 2.473e-05 0)
(0.044255 -0.00181731 0)
(0.884863 0.0434929 0)
(0.650161 0.0201482 0)
(0.494012 0.00660367 0)
(0.403617 0.00275368 0)
(0.354934 0.0015468 0)
(0.323649 0.00113046 0)
(0.29978 0.000907978 0)
(0.280603 0.000743332 0)
(0.264922 0.000620567 0)
(0.251835 0.000529991 0)
(0.240691 0.000461177 0)
(0.231049 0.000406965 0)
(0.222604 0.000363106 0)
(0.215133 0.000326953 0)
(0.208469 0.000296705 0)
(0.202481 0.000271071 0)
(0.197066 0.000249098 0)
(0.192144 0.000230072 0)
(0.187649 0.000213444 0)
(0.183525 0.000198789 0)
(0.179729 0.000185771 0)
(0.176223 0.000174121 0)
(0.172976 0.000163622 0)
(0.16996 0.000154094 0)
(0.167155 0.000145389 0)
(0.164539 0.000137379 0)
(0.162097 0.000129956 0)
(0.159815 0.000123027 0)
(0.157679 0.000116503 0)
(0.155681 0.000110313 0)
(0.153811 0.000104375 0)
(0.152061 9.86357e-05 0)
(0.150425 9.29993e-05 0)
(0.148899 8.74376e-05 0)
(0.147478 8.18128e-05 0)
(0.146161 7.61328e-05 0)
(0.144943 7.0189e-05 0)
(0.143831 6.40134e-05 0)
(0.142813 5.73561e-05 0)
(0.141917 5.00954e-05 0)
(0.141099 4.2297e-05 0)
(0.140457 3.28143e-05 0)
(0.139839 2.36844e-05 0)
(0.139537 9.2804e-06 0)
(0.139101 3.49344e-07 0)
(0.13932 -2.75374e-05 0)
(0.139024 -2.47228e-05 0)
(0.14001 -0.000124484 0)
(0.140477 0.000173428 0)
(0.137657 -0.00314555 0)
(0.991208 0.0499548 0)
(0.890935 0.0305609 0)
(0.762529 0.0146081 0)
(0.656607 0.00796796 0)
(0.585541 0.00487656 0)
(0.536211 0.00347133 0)
(0.498359 0.002735 0)
(0.46777 0.0022406 0)
(0.442498 0.00187672 0)
(0.421234 0.0016049 0)
(0.403029 0.0013972 0)
(0.387218 0.00123357 0)
(0.373325 0.00110128 0)
(0.361001 0.000992246 0)
(0.349982 0.000901006 0)
(0.340061 0.000823668 0)
(0.331075 0.00075737 0)
(0.322893 0.000699962 0)
(0.315408 0.000649797 0)
(0.308534 0.000605597 0)
(0.302196 0.000566355 0)
(0.296336 0.000531264 0)
(0.290901 0.00049967 0)
(0.285847 0.000471038 0)
(0.281139 0.000444922 0)
(0.276743 0.000420945 0)
(0.272633 0.000398783 0)
(0.268784 0.000378159 0)
(0.265177 0.00035882 0)
(0.261794 0.00034055 0)
(0.25862 0.000323126 0)
(0.255642 0.000306383 0)
(0.252849 0.000290076 0)
(0.250232 0.000274102 0)
(0.247784 0.000258113 0)
(0.245501 0.00024213 0)
(0.243375 0.000225548 0)
(0.241414 0.000208639 0)
(0.239598 0.000190302 0)
(0.237968 0.000171199 0)
(0.236458 0.00014957 0)
(0.235205 0.000126118 0)
(0.233993 9.94485e-05 0)
(0.233234 6.68393e-05 0)
(0.232287 3.53481e-05 0)
(0.232263 -2.23852e-05 0)
(0.231527 -3.72861e-05 0)
(0.232565 -0.000248634 0)
(0.232624 0.000135314 0)
(0.232089 -0.00334761 0)
(1.01554 0.0489527 0)
(1.0065 0.0357214 0)
(0.935917 0.020815 0)
(0.852079 0.0134934 0)
(0.782347 0.00919247 0)
(0.727247 0.00677752 0)
(0.682207 0.00538105 0)
(0.644496 0.00443956 0)
(0.612534 0.00374459 0)
(0.585124 0.00321829 0)
(0.561329 0.00281152 0)
(0.540443 0.00248892 0)
(0.52194 0.00222698 0)
(0.505415 0.00201034 0)
(0.490557 0.00182853 0)
(0.477116 0.00167402 0)
(0.464891 0.0015413 0)
(0.453721 0.00142616 0)
(0.443471 0.00132542 0)
(0.43403 0.00123655 0)
(0.425305 0.00115759 0)
(0.417218 0.00108695 0)
(0.409701 0.00102333 0)
(0.402698 0.000965683 0)
(0.39616 0.000913123 0)
(0.390045 0.000864905 0)
(0.384315 0.000820393 0)
(0.37894 0.000779035 0)
(0.373891 0.000740339 0)
(0.369146 0.000703879 0)
(0.364683 0.000669233 0)
(0.360484 0.000636064 0)
(0.356535 0.000603933 0)
(0.352822 0.00057262 0)
(0.349336 0.000541502 0)
(0.346068 0.000510614 0)
(0.343009 0.000478807 0)
(0.340165 0.000446745 0)
(0.337513 0.00041203 0)
(0.335097 0.000376753 0)
(0.332839 0.000335992 0)
(0.330897 0.000294342 0)
(0.329019 0.000243274 0)
(0.327677 0.000188493 0)
(0.326139 0.000124161 0)
(0.32566 3.28737e-05 0)
(0.324403 -1.62002e-05 0)
(0.325163 -0.000326086 0)
(0.324581 1.12438e-05 0)
(0.325284 -0.0031893 0)
(1.01435 0.0460969 0)
(1.04799 0.0373378 0)
(1.02459 0.0241811 0)
(0.974732 0.0175503 0)
(0.923577 0.0131007 0)
(0.876897 0.0101964 0)
(0.83479 0.0083357 0)
(0.797102 0.00701235 0)
(0.763609 0.00600087 0)
(0.733865 0.00521251 0)
(0.707358 0.00458963 0)
(0.683618 0.00408777 0)
(0.662246 0.00367552 0)
(0.642913 0.00333143 0)
(0.625342 0.00304046 0)
(0.609303 0.00279167 0)
(0.594606 0.00257682 0)
(0.581088 0.00238963 0)
(0.568613 0.00222522 0)
(0.557064 0.00207975 0)
(0.546345 0.00195014 0)
(0.536368 0.00183394 0)
(0.527062 0.00172911 0)
(0.518364 0.00163398 0)
(0.510217 0.00154717 0)
(0.502575 0.00146749 0)
(0.495396 0.00139393 0)
(0.488642 0.00132559 0)
(0.482282 0.00126171 0)
(0.476288 0.00120158 0)
(0.470636 0.00114457 0)
(0.465304 0.00109011 0)
(0.460274 0.00103753 0)
(0.45553 0.000986471 0)
(0.451059 0.000935991 0)
(0.446852 0.000886129 0)
(0.442895 0.00083511 0)
(0.439194 0.000784057 0)
(0.435724 0.000729058 0)
(0.432528 0.000673915 0)
(0.429526 0.000609965 0)
(0.426876 0.000546496 0)
(0.424323 0.000466516 0)
(0.42234 0.000385842 0)
(0.420199 0.000283557 0)
(0.419138 0.000153816 0)
(0.41736 5.98687e-05 0)
(0.417594 -0.000333403 0)
(0.416481 -0.000102899 0)
(0.417193 -0.00296934 0)
(1.00941 0.0430465 0)
(1.05564 0.0370927 0)
(1.05869 0.0253214 0)
(1.03634 0.0197533 0)
(1.0072 0.0157862 0)
(0.976228 0.0129209 0)
(0.944753 0.0109484 0)
(0.913947 0.00946405 0)
(0.884662 0.00827167 0)
(0.857279 0.00730276 0)
(0.831875 0.00651162 0)
(0.808388 0.00585777 0)
(0.786696 0.00530982 0)
(0.766658 0.00484504 0)
(0.748128 0.0044468 0)
(0.730966 0.00410249 0)
(0.715043 0.0038024 0)
(0.70024 0.00353886 0)
(0.686453 0.00330582 0)
(0.673587 0.00309842 0)
(0.661558 0.00291271 0)
(0.650292 0.00274547 0)
(0.639723 0.00259405 0)
(0.629792 0.00245622 0)
(0.620449 0.0023301 0)
(0.611645 0.00221408 0)
(0.603341 0.00210679 0)
(0.595501 0.00200701 0)
(0.588091 0.00191366 0)
(0.581083 0.0018258 0)
(0.574453 0.00174249 0)
(0.568177 0.00166299 0)
(0.562236 0.00158637 0)
(0.556615 0.0015121 0)
(0.551298 0.00143891 0)
(0.546274 0.00136683 0)
(0.541531 0.00129345 0)
(0.537071 0.00122032 0)
(0.532871 0.00114203 0)
(0.528968 0.001064 0)
(0.525289 0.000973972 0)
(0.521979 0.000885542 0)
(0.518803 0.000773971 0)
(0.516194 0.000663766 0)
(0.513495 0.000521222 0)
(0.511814 0.000349281 0)
(0.509573 0.000204566 0)
(0.50914 -0.000265441 0)
(0.50765 -0.000159004 0)
(0.507825 -0.00269928 0)
(1.00635 0.0401784 0)
(1.05241 0.0361457 0)
(1.06607 0.0252441 0)
(1.05956 0.0205569 0)
(1.04695 0.0172112 0)
(1.03093 0.0146364 0)
(1.01208 0.0128037 0)
(0.991444 0.0113761 0)
(0.970098 0.0101768 0)
(0.948765 0.00915947 0)
(0.927886 0.00829764 0)
(0.907723 0.00756301 0)
(0.888423 0.00693111 0)
(0.870056 0.0063832 0)
(0.852641 0.00590487 0)
(0.836166 0.0054847 0)
(0.8206 0.00511344 0)
(0.805901 0.00478355 0)
(0.792021 0.00448883 0)
(0.778913 0.00422418 0)
(0.766528 0.00398535 0)
(0.754818 0.00376879 0)
(0.743741 0.00357152 0)
(0.733253 0.00339099 0)
(0.723318 0.00322504 0)
(0.713898 0.00307177 0)
(0.704962 0.00292953 0)
(0.69648 0.00279687 0)
(0.688424 0.00267246 0)
(0.680769 0.00255514 0)
(0.673495 0.00244376 0)
(0.66658 0.00233738 0)
(0.660009 0.00223484 0)
(0.653764 0.00213546 0)
(0.647834 0.00203767 0)
(0.642208 0.00194145 0)
(0.636875 0.00184383 0)
(0.631834 0.00174666 0)
(0.627067 0.00164326 0)
(0.622605 0.00154028 0)
(0.618387 0.00142255 0)
(0.614534 0.00130678 0)
(0.610851 0.00116251 0)
(0.607701 0.00101958 0)
(0.604543 0.000836775 0)
(0.602291 0.000618407 0)
(0.599676 0.000422279 0)
(0.59857 -0.000119249 0)
(0.596783 -0.000144781 0)
(0.596332 -0.00236958 0)
(1.00506 0.0375011 0)
(1.04763 0.0350472 0)
(1.06397 0.0246963 0)
(1.06421 0.0205873 0)
(1.06073 0.0177481 0)
(1.05486 0.0154753 0)
(1.04613 0.0138574 0)
(1.03499 0.0125943 0)
(1.02213 0.0115052 0)
(1.00816 0.0105504 0)
(0.993548 0.00971569 0)
(0.978633 0.00898318 0)
(0.963684 0.00833601 0)
(0.948895 0.00776111 0)
(0.934402 0.00724827 0)
(0.920298 0.00678907 0)
(0.906641 0.0063764 0)
(0.893468 0.00600415 0)
(0.880794 0.00566714 0)
(0.868627 0.00536088 0)
(0.856961 0.00508157 0)
(0.845788 0.00482589 0)
(0.835094 0.004591 0)
(0.824863 0.00437441 0)
(0.815079 0.00417395 0)
(0.805722 0.00398768 0)
(0.796776 0.00381388 0)
(0.788222 0.003651 0)
(0.780043 0.00349762 0)
(0.772225 0.00335243 0)
(0.764751 0.00321418 0)
(0.757607 0.00308178 0)
(0.750783 0.00295391 0)
(0.744266 0.00282977 0)
(0.738047 0.00270754 0)
(0.732118 0.00258716 0)
(0.726472 0.00246518 0)
(0.721108 0.00234367 0)
(0.716013 0.00221493 0)
(0.711212 0.00208635 0)
(0.706658 0.00194081 0)
(0.70245 0.00179654 0)
(0.698434 0.00162002 0)
(0.694901 0.00144232 0)
(0.691431 0.00122085 0)
(0.688732 0.000953449 0)
(0.685859 0.000706372 0)
(0.684188 0.00010032 0)
(0.682162 -5.85138e-05 0)
(0.681164 -0.00199205 0)
(1.00451 0.0349652 0)
(1.0436 0.033967 0)
(1.05994 0.0240451 0)
(1.06225 0.0202974 0)
(1.06255 0.0178121 0)
(1.06191 0.0157533 0)
(1.05936 0.0143087 0)
(1.05485 0.0132107 0)
(1.04868 0.0122632 0)
(1.04116 0.0114198 0)
(1.03258 0.0106689 0)
(1.02319 0.00999671 0)
(1.01321 0.0093902 0)
(1.00285 0.00883993 0)
(0.992262 0.00833898 0)
(0.981584 0.00788178 0)
(0.970917 0.00746355 0)
(0.960343 0.00708009 0)
(0.949923 0.00672768 0)
(0.939703 0.00640301 0)
(0.929717 0.00610316 0)
(0.919988 0.00582552 0)
(0.910534 0.00556776 0)
(0.901364 0.0053278 0)
(0.892484 0.00510375 0)
(0.883895 0.00489388 0)
(0.875597 0.00469665 0)
(0.867588 0.00451056 0)
(0.859864 0.00433427 0)
(0.852419 0.00416648 0)
(0.845248 0.00400593 0)
(0.838347 0.00385148 0)
(0.83171 0.00370174 0)
(0.825333 0.00355584 0)
(0.819211 0.00341182 0)
(0.81334 0.00326955 0)
(0.807719 0.00312528 0)
(0.80235 0.00298111 0)
(0.797223 0.00282872 0)
(0.792361 0.00267572 0)
(0.787731 0.00250398 0)
(0.783411 0.00233177 0)
(0.779288 0.00212505 0)
(0.775583 0.00191233 0)
(0.771992 0.00165496 0)
(0.769035 0.00133877 0)
(0.76605 0.00104155 0)
(0.763992 0.000380953 0)
(0.761815 9.45295e-05 0)
(0.76041 -0.00158639 0)
(1.00412 0.0325345 0)
(1.04027 0.0329134 0)
(1.05618 0.0234102 0)
(1.05889 0.0199124 0)
(1.06028 0.0176824 0)
(1.06168 0.0157549 0)
(1.06207 0.0144112 0)
(1.0612 0.013428 0)
(1.05918 0.0125958 0)
(1.0561 0.0118575 0)
(1.05206 0.011199 0)
(1.04718 0.0106062 0)
(1.04156 0.010066 0)
(1.03535 0.00956951 0)
(1.02866 0.00911103 0)
(1.02159 0.00868628 0)
(1.01426 0.00829186 0)
(1.00673 0.00792486 0)
(0.99909 0.00758275 0)
(0.991391 0.00726327 0)
(0.983687 0.00696438 0)
(0.97602 0.00668424 0)
(0.968424 0.00642117 0)
(0.960927 0.00617363 0)
(0.953552 0.00594017 0)
(0.946316 0.00571944 0)
(0.939233 0.00551016 0)
(0.932313 0.00531111 0)
(0.925565 0.00512111 0)
(0.918994 0.00493898 0)
(0.912606 0.00476356 0)
(0.906403 0.00459376 0)
(0.900388 0.00442822 0)
(0.894564 0.00426607 0)
(0.888932 0.00410525 0)
(0.883494 0.00394563 0)
(0.878253 0.00378325 0)
(0.873215 0.00362017 0)
(0.868376 0.00344779 0)
(0.863757 0.00327344 0)
(0.859336 0.00307895 0)
(0.855176 0.00288121 0)
(0.851198 0.00264791 0)
(0.847566 0.0024021 0)
(0.844073 0.0021126 0)
(0.841082 0.00175094 0)
(0.838159 0.00140508 0)
(0.83593 0.000703202 0)
(0.833724 0.000299586 0)
(0.832092 -0.00117297 0)
(1.00374 0.0302001 0)
(1.03727 0.031864 0)
(1.05284 0.0228064 0)
(1.05565 0.0195098 0)
(1.05719 0.0174913 0)
(1.05913 0.0156523 0)
(1.06059 0.0143559 0)
(1.06131 0.0134357 0)
(1.06135 0.0126766 0)
(1.06074 0.0120118 0)
(1.05947 0.0114251 0)
(1.05757 0.0109007 0)
(1.05507 0.0104242 0)
(1.05202 0.00998558 0)
(1.04846 0.00957854 0)
(1.04448 0.00919871 0)
(1.04012 0.00884286 0)
(1.03544 0.00850846 0)
(1.03051 0.00819342 0)
(1.02538 0.007896 0)
(1.02008 0.00761466 0)
(1.01467 0.00734809 0)
(1.00918 0.00709505 0)
(1.00364 0.00685445 0)
(0.998087 0.00662523 0)
(0.992539 0.0064064 0)
(0.987019 0.00619698 0)
(0.981546 0.00599601 0)
(0.976136 0.00580254 0)
(0.970801 0.00561558 0)
(0.965553 0.00543409 0)
(0.960402 0.00525712 0)
(0.955358 0.00508335 0)
(0.950426 0.00491197 0)
(0.945616 0.00474092 0)
(0.940934 0.00457005 0)
(0.936385 0.00439533 0)
(0.93198 0.00421868 0)
(0.92772 0.00403148 0)
(0.923625 0.00384045 0)
(0.919683 0.00362809 0)
(0.915943 0.00340895 0)
(0.912357 0.00315398 0)
(0.90904 0.00287902 0)
(0.905863 0.00256217 0)
(0.903065 0.00216083 0)
(0.900385 0.00176985 0)
(0.898206 0.00103968 0)
(0.896119 0.00053287 0)
(0.894449 -0.000773649 0)
(1.00337 0.0279645 0)
(1.03443 0.0308066 0)
(1.04974 0.0222275 0)
(1.05269 0.0191044 0)
(1.05419 0.0172818 0)
(1.05619 0.0155206 0)
(1.05792 0.014246 0)
(1.05916 0.0133562 0)
(1.06001 0.0126373 0)
(1.0605 0.0120153 0)
(1.06062 0.011473 0)
(1.06036 0.0109948 0)
(1.0597 0.0105649 0)
(1.05864 0.0101722 0)
(1.0572 0.0098093 0)
(1.0554 0.00947121 0)
(1.05326 0.00915417 0)
(1.05082 0.00885535 0)
(1.0481 0.00857253 0)
(1.04514 0.00830394 0)
(1.04196 0.00804813 0)
(1.03859 0.00780389 0)
(1.03508 0.00757016 0)
(1.03143 0.00734603 0)
(1.02769 0.00713066 0)
(1.02386 0.00692325 0)
(1.01998 0.00672303 0)
(1.01606 0.00652924 0)
(1.01212 0.00634108 0)
(1.00817 0.00615773 0)
(1.00423 0.00597829 0)
(1.00032 0.0058019 0)
(0.996438 0.00562731 0)
(0.992601 0.00545379 0)
(0.988819 0.00527927 0)
(0.985102 0.00510361 0)
(0.981458 0.00492278 0)
(0.977898 0.00473845 0)
(0.974429 0.00454228 0)
(0.971068 0.00434001 0)
(0.967812 0.00411545 0)
(0.964698 0.00388003 0)
(0.961701 0.00360904 0)
(0.958898 0.00331034 0)
(0.956218 0.00297151 0)
(0.953811 0.0025381 0)
(0.951531 0.00210717 0)
(0.9496 0.00136081 0)
(0.947774 0.000768466 0)
(0.946241 -0.000411016 0)
(1.00301 0.0258311 0)
(1.03171 0.029737 0)
(1.04674 0.0216698 0)
(1.0499 0.018696 0)
(1.05137 0.0170604 0)
(1.05333 0.0153818 0)
(1.0551 0.0141223 0)
(1.05645 0.0132484 0)
(1.05753 0.0125522 0)
(1.05842 0.0119535 0)
(1.0591 0.0114355 0)
(1.05957 0.0109834 0)
(1.05981 0.0105818 0)
(1.05981 0.0102188 0)
(1.05957 0.00988635 0)
(1.05908 0.00957888 0)
(1.05836 0.00929213 0)
(1.0574 0.00902279 0)
(1.05621 0.00876828 0)
(1.05482 0.00852656 0)
(1.05323 0.00829596 0)
(1.05146 0.00807515 0)
(1.04952 0.00786299 0)
(1.04744 0.00765853 0)
(1.04523 0.00746094 0)
(1.04291 0.00726945 0)
(1.04049 0.00708336 0)
(1.03799 0.00690196 0)
(1.03542 0.00672455 0)
(1.0328 0.00655037 0)
(1.03014 0.00637858 0)
(1.02746 0.0062084 0)
(1.02476 0.00603861 0)
(1.02205 0.00586851 0)
(1.01934 0.00569605 0)
(1.01666 0.00552104 0)
(1.01399 0.00533951 0)
(1.01137 0.00515281 0)
(1.00878 0.00495302 0)
(1.00626 0.0047447 0)
(1.0038 0.00451333 0)
(1.00142 0.00426689 0)
(0.99913 0.00398538 0)
(0.996966 0.00366888 0)
(0.994898 0.00331343 0)
(0.993013 0.00285629 0)
(0.991243 0.00239167 0)
(0.989701 0.00163965 0)
(0.988247 0.000980974 0)
(0.986988 -0.00010571 0)
(1.00268 0.0238026 0)
(1.02911 0.0286536 0)
(1.04383 0.0211329 0)
(1.0472 0.0182846 0)
(1.04868 0.0168255 0)
(1.05061 0.0152386 0)
(1.05237 0.0139959 0)
(1.05373 0.0131332 0)
(1.05485 0.012453 0)
(1.05582 0.011869 0)
(1.05668 0.0113642 0)
(1.05741 0.0109261 0)
(1.05801 0.0105399 0)
(1.05848 0.0101936 0)
(1.05881 0.00987919 0)
(1.05899 0.00959071 0)
(1.05903 0.00932367 0)
(1.05891 0.00907449 0)
(1.05864 0.00884032 0)
(1.05822 0.00861882 0)
(1.05766 0.0084081 0)
(1.05696 0.00820661 0)
(1.05613 0.00801304 0)
(1.05517 0.0078263 0)
(1.05409 0.00764545 0)
(1.05291 0.00746965 0)
(1.05163 0.00729814 0)
(1.05026 0.00713019 0)
(1.04881 0.00696507 0)
(1.0473 0.00680204 0)
(1.04572 0.00664024 0)
(1.0441 0.00647891 0)
(1.04244 0.00631682 0)
(1.04074 0.00615325 0)
(1.03902 0.00598615 0)
(1.03729 0.00581523 0)
(1.03555 0.0056366 0)
(1.03382 0.00545125 0)
(1.0321 0.00525174 0)
(1.0304 0.00504136 0)
(1.02873 0.00480742 0)
(1.02711 0.00455439 0)
(1.02553 0.00426689 0)
(1.02404 0.00393809 0)
(1.02261 0.00357067 0)
(1.0213 0.00309765 0)
(1.02008 0.00260589 0)
(1.019 0.0018567 0)
(1.01798 0.0011494 0)
(1.01707 0.000130842 0)
(1.00238 0.0218806 0)
(1.02664 0.0275556 0)
(1.04101 0.0206163 0)
(1.0446 0.0178716 0)
(1.04609 0.016576 0)
(1.04799 0.0150894 0)
(1.04975 0.0138678 0)
(1.0511 0.0130155 0)
(1.05221 0.0123497 0)
(1.05319 0.0117778 0)
(1.05408 0.0112821 0)
(1.05487 0.0108524 0)
(1.05559 0.0104747 0)
(1.05622 0.0101377 0)
(1.05677 0.00983307 0)
(1.05724 0.00955518 0)
(1.05762 0.00929947 0)
(1.05791 0.00906229 0)
(1.05811 0.00884066 0)
(1.05821 0.00863213 0)
(1.05823 0.00843466 0)
(1.05815 0.00824652 0)
(1.05798 0.00806628 0)
(1.05772 0.0078927 0)
(1.05738 0.00772472 0)
(1.05695 0.00756139 0)
(1.05645 0.00740187 0)
(1.05587 0.00724535 0)
(1.05523 0.00709105 0)
(1.05452 0.00693818 0)
(1.05376 0.00678583 0)
(1.05295 0.00663321 0)
(1.0521 0.00647905 0)
(1.0512 0.00632259 0)
(1.05028 0.00616174 0)
(1.04933 0.00599609 0)
(1.04836 0.00582186 0)
(1.04738 0.00563955 0)
(1.0464 0.00544237 0)
(1.04542 0.00523217 0)
(1.04444 0.00499821 0)
(1.04349 0.00474159 0)
(1.04257 0.00445109 0)
(1.0417 0.00411429 0)
(1.04087 0.00373837 0)
(1.0401 0.0032559 0)
(1.0394 0.00274307 0)
(1.03878 0.00200253 0)
(1.03818 0.00126195 0)
(1.03765 0.000292906 0)
(1.0021 0.0200661 0)
(1.02431 0.0264449 0)
(1.03828 0.0201179 0)
(1.04207 0.017459 0)
(1.04359 0.0163118 0)
(1.04546 0.0149331 0)
(1.04722 0.0137377 0)
(1.04857 0.0128957 0)
(1.04967 0.0122443 0)
(1.05063 0.0116844 0)
(1.05151 0.0111969 0)
(1.05231 0.0107736 0)
(1.05304 0.0104018 0)
(1.05371 0.0100705 0)
(1.05433 0.00977171 0)
(1.05489 0.00949979 0)
(1.0554 0.00925035 0)
(1.05585 0.00901983 0)
(1.05625 0.00880526 0)
(1.0566 0.00860416 0)
(1.05689 0.00841446 0)
(1.05713 0.00823438 0)
(1.0573 0.00806239 0)
(1.05743 0.00789718 0)
(1.05749 0.0077376 0)
(1.05751 0.00758264 0)
(1.05747 0.00743136 0)
(1.05738 0.0072829 0)
(1.05724 0.00713642 0)
(1.05706 0.00699108 0)
(1.05684 0.00684592 0)
(1.05658 0.00670009 0)
(1.05629 0.00655227 0)
(1.05596 0.00640165 0)
(1.05561 0.00624612 0)
(1.05523 0.00608509 0)
(1.05483 0.00591493 0)
(1.05442 0.00573562 0)
(1.054 0.00554104 0)
(1.05357 0.00533165 0)
(1.05315 0.00509851 0)
(1.05274 0.00483978 0)
(1.05234 0.00454763 0)
(1.05197 0.00420564 0)
(1.05163 0.00382328 0)
(1.05133 0.00333591 0)
(1.05106 0.00280713 0)
(1.05084 0.00207814 0)
(1.05062 0.0013171 0)
(1.05042 0.000381084 0)
(1.00185 0.0183594 0)
(1.02211 0.0253255 0)
(1.03564 0.019634 0)
(1.03964 0.0170486 0)
(1.04117 0.0160335 0)
(1.04302 0.0147686 0)
(1.04477 0.013605 0)
(1.04613 0.0127736 0)
(1.04721 0.0121367 0)
(1.04817 0.0115893 0)
(1.04903 0.0111102 0)
(1.04982 0.010693 0)
(1.05054 0.0103265 0)
(1.05121 0.00999981 0)
(1.05184 0.00970522 0)
(1.05242 0.00943726 0)
(1.05296 0.00919171 0)
(1.05346 0.00896509 0)
(1.05393 0.00875451 0)
(1.05437 0.00855755 0)
(1.05477 0.00837214 0)
(1.05514 0.00819651 0)
(1.05547 0.00802911 0)
(1.05577 0.0078686 0)
(1.05604 0.0077138 0)
(1.05627 0.00756366 0)
(1.05648 0.0074172 0)
(1.05665 0.00727352 0)
(1.0568 0.00713174 0)
(1.05692 0.00699099 0)
(1.05701 0.00685027 0)
(1.05708 0.0067087 0)
(1.05713 0.00656492 0)
(1.05716 0.00641803 0)
(1.05717 0.00626596 0)
(1.05716 0.0061079 0)
(1.05714 0.00594042 0)
(1.05711 0.00576298 0)
(1.05707 0.00557008 0)
(1.05703 0.00536094 0)
(1.057 0.0051282 0)
(1.05697 0.00486761 0)
(1.05695 0.00457388 0)
(1.05695 0.00422814 0)
(1.05697 0.00384023 0)
(1.05701 0.00335067 0)
(1.05708 0.0028098 0)
(1.05716 0.00209315 0)
(1.05723 0.00132072 0)
(1.05731 0.000406293 0)
(1.00162 0.0167602 0)
(1.02005 0.0242018 0)
(1.03311 0.0191605 0)
(1.03729 0.016642 0)
(1.03886 0.0157422 0)
(1.04066 0.0145953 0)
(1.04241 0.0134693 0)
(1.04377 0.0126491 0)
(1.04485 0.0120266 0)
(1.04579 0.0114925 0)
(1.04664 0.0110223 0)
(1.04742 0.0106114 0)
(1.04813 0.0102501 0)
(1.04879 0.00992783 0)
(1.0494 0.00963704 0)
(1.04998 0.00937241 0)
(1.05052 0.00912985 0)
(1.05103 0.00890601 0)
(1.05151 0.00869806 0)
(1.05197 0.00850365 0)
(1.05241 0.00832074 0)
(1.05282 0.00814758 0)
(1.05321 0.00798265 0)
(1.05358 0.0078246 0)
(1.05393 0.00767224 0)
(1.05426 0.00752451 0)
(1.05457 0.00738043 0)
(1.05487 0.00723909 0)
(1.05515 0.00709958 0)
(1.05542 0.00696102 0)
(1.05568 0.00682241 0)
(1.05592 0.00668282 0)
(1.05615 0.00654089 0)
(1.05637 0.00639566 0)
(1.05658 0.00624507 0)
(1.05679 0.00608815 0)
(1.05699 0.00592166 0)
(1.05719 0.00574455 0)
(1.05739 0.00555195 0)
(1.05759 0.00534198 0)
(1.05779 0.00510858 0)
(1.05801 0.00484569 0)
(1.05823 0.0045497 0)
(1.05847 0.00420065 0)
(1.05873 0.00380736 0)
(1.059 0.00331684 0)
(1.05929 0.00276673 0)
(1.05959 0.00206162 0)
(1.05986 0.00128378 0)
(1.06012 0.000382992 0)
(1.00142 0.0152677 0)
(1.01812 0.0230778 0)
(1.03069 0.0186933 0)
(1.03502 0.0162406 0)
(1.03663 0.0154392 0)
(1.0384 0.0144127 0)
(1.04014 0.0133304 0)
(1.04151 0.0125222 0)
(1.04258 0.0119139 0)
(1.04351 0.0113936 0)
(1.04435 0.010933 0)
(1.04511 0.0105287 0)
(1.04581 0.0101728 0)
(1.04646 0.00985502 0)
(1.04706 0.00956804 0)
(1.04762 0.00930665 0)
(1.04816 0.00906688 0)
(1.04866 0.00884547 0)
(1.04914 0.00863968 0)
(1.04959 0.0084472 0)
(1.05003 0.00826604 0)
(1.05045 0.00809448 0)
(1.05085 0.00793101 0)
(1.05124 0.00777428 0)
(1.05161 0.00762313 0)
(1.05198 0.00747647 0)
(1.05233 0.00733335 0)
(1.05267 0.00719285 0)
(1.05301 0.00705406 0)
(1.05334 0.00691612 0)
(1.05367 0.00677799 0)
(1.05399 0.00663876 0)
(1.05431 0.00649707 0)
(1.05462 0.0063519 0)
(1.05493 0.00620123 0)
(1.05525 0.00604393 0)
(1.05556 0.00587695 0)
(1.05588 0.00569881 0)
(1.05621 0.00550518 0)
(1.05654 0.00529327 0)
(1.05688 0.00505805 0)
(1.05722 0.0047922 0)
(1.05759 0.00449303 0)
(1.05797 0.00414064 0)
(1.05836 0.00374183 0)
(1.05877 0.00325071 0)
(1.05919 0.00269342 0)
(1.0596 0.00199818 0)
(1.06 0.00121874 0)
(1.06038 0.000326089 0)
(1.00124 0.0138805 0)
(1.01633 0.0219574 0)
(1.02837 0.0182288 0)
(1.03285 0.0158457 0)
(1.0345 0.0151262 0)
(1.03623 0.0142202 0)
(1.03796 0.0131879 0)
(1.03933 0.012393 0)
(1.0404 0.0117986 0)
(1.04131 0.0112927 0)
(1.04214 0.0108421 0)
(1.0429 0.0104449 0)
(1.04359 0.0100944 0)
(1.04422 0.00978139 0)
(1.04481 0.00949836 0)
(1.04536 0.00924027 0)
(1.04588 0.0090033 0)
(1.04638 0.00878429 0)
(1.04685 0.00858056 0)
(1.04729 0.00838986 0)
(1.04772 0.00821022 0)
(1.04813 0.00803994 0)
(1.04853 0.00787752 0)
(1.04892 0.00772165 0)
(1.0493 0.00757114 0)
(1.04966 0.00742494 0)
(1.05002 0.00728207 0)
(1.05038 0.00714165 0)
(1.05073 0.00700276 0)
(1.05108 0.00686454 0)
(1.05143 0.00672598 0)
(1.05178 0.00658615 0)
(1.05213 0.00644369 0)
(1.05248 0.00629755 0)
(1.05284 0.00614578 0)
(1.0532 0.00598705 0)
(1.05356 0.00581856 0)
(1.05393 0.00563841 0)
(1.05432 0.00544274 0)
(1.05471 0.00522807 0)
(1.05511 0.00499008 0)
(1.05552 0.00472072 0)
(1.05595 0.00441763 0)
(1.0564 0.00406172 0)
(1.05686 0.0036573 0)
(1.05733 0.00316547 0)
(1.05781 0.00260264 0)
(1.05829 0.00191537 0)
(1.05874 0.00113666 0)
(1.05918 0.000248578 0)
(1.00107 0.0125967 0)
(1.01467 0.0208447 0)
(1.02616 0.0177635 0)
(1.03076 0.0154581 0)
(1.03247 0.014805 0)
(1.03415 0.0140173 0)
(1.03586 0.0130413 0)
(1.03724 0.0122616 0)
(1.03831 0.0116807 0)
(1.03921 0.0111894 0)
(1.04003 0.0107497 0)
(1.04078 0.0103598 0)
(1.04145 0.0100151 0)
(1.04208 0.00970688 0)
(1.04266 0.00942794 0)
(1.0432 0.00917328 0)
(1.04371 0.0089392 0)
(1.04419 0.00872264 0)
(1.04465 0.008521 0)
(1.04509 0.00833206 0)
(1.0455 0.00815389 0)
(1.04591 0.00798482 0)
(1.0463 0.00782336 0)
(1.04668 0.00766818 0)
(1.04705 0.00751811 0)
(1.04741 0.00737211 0)
(1.04777 0.00722921 0)
(1.04812 0.00708852 0)
(1.04847 0.00694915 0)
(1.04882 0.00681024 0)
(1.04917 0.00667078 0)
(1.04953 0.00652984 0)
(1.04989 0.0063861 0)
(1.05025 0.00623843 0)
(1.05061 0.00608497 0)
(1.05099 0.00592425 0)
(1.05137 0.00575361 0)
(1.05176 0.00557089 0)
(1.05216 0.00537254 0)
(1.05257 0.00515462 0)
(1.05299 0.00491325 0)
(1.05343 0.00464007 0)
(1.05389 0.00433257 0)
(1.05436 0.00397303 0)
(1.05484 0.00356315 0)
(1.05534 0.00307039 0)
(1.05584 0.00250343 0)
(1.05633 0.00182242 0)
(1.05681 0.00104586 0)
(1.05726 0.00016038 0)
(1.00093 0.0114134 0)
(1.01314 0.0197438 0)
(1.02406 0.0172943 0)
(1.02876 0.0150784 0)
(1.03052 0.0144776 0)
(1.03217 0.0138037 0)
(1.03386 0.01289 0)
(1.03524 0.0121278 0)
(1.0363 0.0115601 0)
(1.0372 0.0110837 0)
(1.03801 0.0106554 0)
(1.03875 0.0102733 0)
(1.03942 0.00993457 0)
(1.04003 0.0096314 0)
(1.0406 0.0093567 0)
(1.04113 0.0091056 0)
(1.04163 0.00887451 0)
(1.0421 0.00866048 0)
(1.04255 0.008461 0)
(1.04298 0.00827387 0)
(1.04338 0.00809721 0)
(1.04378 0.00792935 0)
(1.04416 0.00776882 0)
(1.04453 0.0076143 0)
(1.04489 0.00746462 0)
(1.04525 0.00731874 0)
(1.0456 0.0071757 0)
(1.04594 0.00703461 0)
(1.04629 0.0068946 0)
(1.04663 0.00675482 0)
(1.04698 0.00661427 0)
(1.04733 0.006472 0)
(1.04768 0.00632672 0)
(1.04804 0.00617727 0)
(1.04841 0.00602183 0)
(1.04878 0.00585883 0)
(1.04916 0.00568574 0)
(1.04955 0.00550016 0)
(1.04995 0.00529881 0)
(1.05037 0.00507741 0)
(1.0508 0.00483234 0)
(1.05124 0.00455522 0)
(1.05169 0.00424316 0)
(1.05217 0.00388 0)
(1.05265 0.003465 0)
(1.05315 0.00297119 0)
(1.05364 0.00240133 0)
(1.05413 0.00172535 0)
(1.0546 0.000951855 0)
(1.05504 6.81511e-05 0)
(1.0008 0.0103275 0)
(1.01174 0.0186589 0)
(1.02208 0.0168185 0)
(1.02684 0.0147069 0)
(1.02867 0.014146 0)
(1.03028 0.0135795 0)
(1.03195 0.0127333 0)
(1.03332 0.0119916 0)
(1.03439 0.0114369 0)
(1.03528 0.0109755 0)
(1.03608 0.0105593 0)
(1.03681 0.0101854 0)
(1.03747 0.00985284 0)
(1.03807 0.00955487 0)
(1.03863 0.00928458 0)
(1.03915 0.00903716 0)
(1.03964 0.00880917 0)
(1.04011 0.00859777 0)
(1.04054 0.00840051 0)
(1.04096 0.00821525 0)
(1.04136 0.00804014 0)
(1.04175 0.00787353 0)
(1.04212 0.00771395 0)
(1.04248 0.0075601 0)
(1.04283 0.0074108 0)
(1.04318 0.00726502 0)
(1.04352 0.0071218 0)
(1.04386 0.00698028 0)
(1.0442 0.00683957 0)
(1.04453 0.00669884 0)
(1.04487 0.00655711 0)
(1.04522 0.00641342 0)
(1.04556 0.0062665 0)
(1.04592 0.00611515 0)
(1.04628 0.00595762 0)
(1.04664 0.00579221 0)
(1.04702 0.00561653 0)
(1.0474 0.00542799 0)
(1.0478 0.00522349 0)
(1.04821 0.00499858 0)
(1.04863 0.00474969 0)
(1.04906 0.00446869 0)
(1.04951 0.00415213 0)
(1.04997 0.00378545 0)
(1.05045 0.00336588 0)
(1.05093 0.00287101 0)
(1.05141 0.00229938 0)
(1.05188 0.00162762 0)
(1.05233 0.000858051 0)
(1.05275 -2.36059e-05 0)
(1.00069 0.00933525 0)
(1.01046 0.017594 0)
(1.02021 0.0163338 0)
(1.02501 0.0143436 0)
(1.02691 0.0138121 0)
(1.02848 0.0133447 0)
(1.03012 0.0125707 0)
(1.0315 0.0118529 0)
(1.03257 0.0113111 0)
(1.03345 0.0108646 0)
(1.03424 0.010461 0)
(1.03496 0.0100959 0)
(1.03561 0.00976979 0)
(1.03621 0.0094772 0)
(1.03676 0.00921147 0)
(1.03727 0.00896789 0)
(1.03775 0.00874312 0)
(1.03821 0.00853443 0)
(1.03864 0.00833947 0)
(1.03904 0.00815615 0)
(1.03944 0.00798264 0)
(1.03981 0.00781731 0)
(1.04018 0.00765872 0)
(1.04053 0.00750555 0)
(1.04087 0.00735664 0)
(1.04121 0.00721096 0)
(1.04154 0.00706756 0)
(1.04188 0.00692558 0)
(1.04221 0.00678416 0)
(1.04254 0.00664245 0)
(1.04287 0.0064995 0)
(1.0432 0.00635434 0)
(1.04354 0.00620575 0)
(1.04389 0.00605245 0)
(1.04424 0.00589277 0)
(1.0446 0.00572492 0)
(1.04496 0.00554661 0)
(1.04534 0.0053551 0)
(1.04573 0.00514742 0)
(1.04613 0.00491903 0)
(1.04654 0.00466636 0)
(1.04696 0.00438159 0)
(1.0474 0.00406074 0)
(1.04785 0.00369075 0)
(1.04831 0.00326725 0)
(1.04877 0.00277143 0)
(1.04923 0.0021991 0)
(1.04967 0.00153116 0)
(1.0501 0.000766261 0)
(1.05049 -0.000111909 0)
(1.0006 0.00843224 0)
(1.0093 0.0165532 0)
(1.01845 0.0158385 0)
(1.02327 0.0139881 0)
(1.02524 0.0134779 0)
(1.02678 0.0130998 0)
(1.02838 0.0124015 0)
(1.02976 0.0117115 0)
(1.03083 0.0111827 0)
(1.03171 0.0107509 0)
(1.03249 0.0103606 0)
(1.0332 0.0100047 0)
(1.03385 0.00968533 0)
(1.03443 0.00939829 0)
(1.03498 0.0091373 0)
(1.03548 0.0088977 0)
(1.03595 0.00867626 0)
(1.0364 0.0084704 0)
(1.03682 0.00827782 0)
(1.03722 0.0080965 0)
(1.0376 0.00792464 0)
(1.03797 0.00776065 0)
(1.03833 0.00760306 0)
(1.03867 0.0074506 0)
(1.03901 0.0073021 0)
(1.03934 0.00715652 0)
(1.03967 0.00701294 0)
(1.03999 0.0068705 0)
(1.04031 0.00672834 0)
(1.04064 0.00658564 0)
(1.04096 0.00644146 0)
(1.04129 0.00629482 0)
(1.04162 0.00614452 0)
(1.04196 0.00598927 0)
(1.0423 0.00582742 0)
(1.04265 0.00565714 0)
(1.04301 0.00547617 0)
(1.04338 0.00528174 0)
(1.04376 0.00507089 0)
(1.04414 0.00483913 0)
(1.04454 0.00458277 0)
(1.04496 0.00429441 0)
(1.04538 0.00396956 0)
(1.04581 0.00359652 0)
(1.04625 0.00316976 0)
(1.04669 0.00267325 0)
(1.04713 0.00210114 0)
(1.04755 0.00143709 0)
(1.04795 0.000677532 0)
(1.04831 -0.000195358 0)
(1.00051 0.00761372 0)
(1.00825 0.0155403 0)
(1.0168 0.0153312 0)
(1.02161 0.0136397 0)
(1.02365 0.0131452 0)
(1.02516 0.0128457 0)
(1.02673 0.0122253 0)
(1.0281 0.0115672 0)
(1.02917 0.0110518 0)
(1.03005 0.0106345 0)
(1.03083 0.0102577 0)
(1.03153 0.00991161 0)
(1.03217 0.00959935 0)
(1.03275 0.00931805 0)