/*--------------------------------*- C++ -*----------------------------------*\
  =========                 |
  \\      /  F ield         | OpenFOAM: The Open Source CFD Toolbox
   \\    /   O peration     | Website:  https://openfoam.org
    \\  /    A nd           | Version:  7
     \\/     M anipulation  |
\*---------------------------------------------------------------------------*/
FoamFile
{
    version     2.0;
    format      ascii;
    class       volVectorField;
    location    "0.25";
    object      vorticity;
}
// * * * * * * * * * * * * * * * * * * * * * * * * * * * * * * * * * * * * * //

dimensions      [0 0 -1 0 0 0 0];

internalField   nonuniform List<vector> 
70000
(
(0 -0 -45716.1)
(0 -0 -28618.3)
(0 -0 -20914.9)
(0 -0 -16982.6)
(0 -0 -14962.4)
(0 -0 -13656.5)
(0 -0 -12648.2)
(0 -0 -11836.9)
(0 -0 -11174.4)
(0 -0 -10621.9)
(0 -0 -10151.4)
(0 -0 -9744.39)
(0 -0 -9387.92)
(0 -0 -9072.62)
(0 -0 -8791.39)
(0 -0 -8538.74)
(0 -0 -8310.34)
(0 -0 -8102.75)
(0 -0 -7913.17)
(0 -0 -7739.32)
(0 -0 -7579.3)
(0 -0 -7431.55)
(0 -0 -7294.73)
(0 -0 -7167.74)
(0 -0 -7049.6)
(0 -0 -6939.52)
(0 -0 -6836.8)
(0 -0 -6740.83)
(0 -0 -6651.1)
(0 -0 -6567.19)
(0 -0 -6488.72)
(0 -0 -6415.37)
(0 -0 -6346.92)
(0 -0 -6283.12)
(0 -0 -6223.85)
(0 -0 -6169.03)
(0 -0 -6118.51)
(0 -0 -6072.55)
(0 -0 -6030.67)
(0 -0 -5994.12)
(0 -0 -5961)
(0 -0 -5935.56)
(0 -0 -5911.25)
(0 -0 -5900.8)
(0 -0 -5884.58)
(0 -0 -5897.23)
(0 -0 -5887.18)
(0 -0 -5934.17)
(0 -0 -5965.06)
(0 -0 -5751.52)
(0 -0 -13549.6)
(0 -0 -19947.4)
(0 -0 -18536.7)
(0 -0 -16250.8)
(0 -0 -14505.7)
(0 -0 -13282.5)
(0 -0 -12355.3)
(0 -0 -11606.3)
(0 -0 -10985.1)
(0 -0 -10461)
(0 -0 -10011.7)
(0 -0 -9621.18)
(0 -0 -9277.72)
(0 -0 -8972.84)
(0 -0 -8700.03)
(0 -0 -8454.26)
(0 -0 -8231.53)
(0 -0 -8028.61)
(0 -0 -7842.89)
(0 -0 -7672.23)
(0 -0 -7514.82)
(0 -0 -7369.18)
(0 -0 -7234.04)
(0 -0 -7108.32)
(0 -0 -6991.1)
(0 -0 -6881.59)
(0 -0 -6779.12)
(0 -0 -6683.09)
(0 -0 -6593.01)
(0 -0 -6508.41)
(0 -0 -6428.93)
(0 -0 -6354.25)
(0 -0 -6284.08)
(0 -0 -6218.18)
(0 -0 -6156.38)
(0 -0 -6098.53)
(0 -0 -6044.46)
(0 -0 -5994.29)
(0 -0 -5947.57)
(0 -0 -5905.19)
(0 -0 -5865.6)
(0 -0 -5831.94)
(0 -0 -5799.19)
(0 -0 -5776.71)
(0 -0 -5749.96)
(0 -0 -5743.85)
(0 -0 -5722.15)
(0 -0 -5738.1)
(0 -0 -5742.17)
(0 -0 -5818.65)
(0 -0 -3818.74)
(0 -0 -10828.7)
(0 -0 -13363.2)
(0 -0 -13519.6)
(0 -0 -12866.6)
(0 -0 -12141)
(0 -0 -11500.1)
(0 -0 -10940.5)
(0 -0 -10449.6)
(0 -0 -10018)
(0 -0 -9636.95)
(0 -0 -9298.47)
(0 -0 -8995.75)
(0 -0 -8723.34)
(0 -0 -8476.84)
(0 -0 -8252.66)
(0 -0 -8047.84)
(0 -0 -7859.94)
(0 -0 -7686.91)
(0 -0 -7527.03)
(0 -0 -7378.85)
(0 -0 -7241.12)
(0 -0 -7112.78)
(0 -0 -6992.92)
(0 -0 -6880.73)
(0 -0 -6775.53)
(0 -0 -6676.72)
(0 -0 -6583.77)
(0 -0 -6496.22)
(0 -0 -6413.67)
(0 -0 -6335.76)
(0 -0 -6262.19)
(0 -0 -6192.68)
(0 -0 -6127)
(0 -0 -6064.95)
(0 -0 -6006.37)
(0 -0 -5951.07)
(0 -0 -5899.06)
(0 -0 -5850.01)
(0 -0 -5804.38)
(0 -0 -5761.16)
(0 -0 -5722.21)
(0 -0 -5684.42)
(0 -0 -5653.3)
(0 -0 -5620.34)
(0 -0 -5599.44)
(0 -0 -5571.17)
(0 -0 -5563.18)
(0 -0 -5543.55)
(0 -0 -5644.98)
(0 -0 -533.089)
(0 -0 -4662.5)
(0 -0 -7718.01)
(0 -0 -9327.88)
(0 -0 -9891.68)
(0 -0 -9957.25)
(0 -0 -9825.96)
(0 -0 -9614.55)
(0 -0 -9371.8)
(0 -0 -9122.37)
(0 -0 -8878.68)
(0 -0 -8646.28)
(0 -0 -8427.29)
(0 -0 -8222.16)
(0 -0 -8030.53)
(0 -0 -7851.7)
(0 -0 -7684.78)
(0 -0 -7528.88)
(0 -0 -7383.11)
(0 -0 -7246.63)
(0 -0 -7118.66)
(0 -0 -6998.5)
(0 -0 -6885.51)
(0 -0 -6779.11)
(0 -0 -6678.77)
(0 -0 -6584.03)
(0 -0 -6494.47)
(0 -0 -6409.7)
(0 -0 -6329.39)
(0 -0 -6253.23)
(0 -0 -6180.94)
(0 -0 -6112.28)
(0 -0 -6047.04)
(0 -0 -5985)
(0 -0 -5926.01)
(0 -0 -5869.91)
(0 -0 -5816.55)
(0 -0 -5765.85)
(0 -0 -5717.63)
(0 -0 -5672.01)
(0 -0 -5628.54)
(0 -0 -5587.87)
(0 -0 -5548.86)
(0 -0 -5513.28)
(0 -0 -5478.61)
(0 -0 -5448.42)
(0 -0 -5418.84)
(0 -0 -5394.18)
(0 -0 -5370.44)
(0 -0 -5403.82)
(0 -0 322.399)
(0 -0 -1444.49)
(0 -0 -3532.25)
(0 -0 -5258.42)
(0 -0 -6398.11)
(0 -0 -7072.65)
(0 -0 -7450.06)
(0 -0 -7640.78)
(0 -0 -7713.05)
(0 -0 -7711.07)
(0 -0 -7663.38)
(0 -0 -7588.04)
(0 -0 -7496.47)
(0 -0 -7395.95)
(0 -0 -7291.17)
(0 -0 -7185.16)
(0 -0 -7079.89)
(0 -0 -6976.61)
(0 -0 -6876.09)
(0 -0 -6778.81)
(0 -0 -6685)
(0 -0 -6594.8)
(0 -0 -6508.2)
(0 -0 -6425.16)
(0 -0 -6345.6)
(0 -0 -6269.4)
(0 -0 -6196.44)
(0 -0 -6126.56)
(0 -0 -6059.65)
(0 -0 -5995.55)
(0 -0 -5934.15)
(0 -0 -5875.31)
(0 -0 -5818.92)
(0 -0 -5764.86)
(0 -0 -5713.02)
(0 -0 -5663.32)
(0 -0 -5615.66)
(0 -0 -5569.95)
(0 -0 -5526.14)
(0 -0 -5484.1)
(0 -0 -5443.92)
(0 -0 -5405.24)
(0 -0 -5368.61)
(0 -0 -5332.85)
(0 -0 -5300.16)
(0 -0 -5266.21)
(0 -0 -5239.28)
(0 -0 -5204.48)
(0 -0 -5187.7)
(0 -0 -5170.02)
(0 -0 364.673)
(0 -0 -158.573)
(0 -0 -1181.37)
(0 -0 -2361.48)
(0 -0 -3416.46)
(0 -0 -4254.54)
(0 -0 -4889.19)
(0 -0 -5354.38)
(0 -0 -5685.2)
(0 -0 -5913.67)
(0 -0 -6066.07)
(0 -0 -6162.5)
(0 -0 -6217.85)
(0 -0 -6243.1)
(0 -0 -6246.29)
(0 -0 -6233.36)
(0 -0 -6208.71)
(0 -0 -6175.59)
(0 -0 -6136.44)
(0 -0 -6093.09)
(0 -0 -6046.9)
(0 -0 -5998.92)
(0 -0 -5949.93)
(0 -0 -5900.52)
(0 -0 -5851.13)
(0 -0 -5802.09)
(0 -0 -5753.65)
(0 -0 -5706)
(0 -0 -5659.26)
(0 -0 -5613.52)
(0 -0 -5568.85)
(0 -0 -5525.3)
(0 -0 -5482.87)
(0 -0 -5441.59)
(0 -0 -5401.46)
(0 -0 -5362.45)
(0 -0 -5324.59)
(0 -0 -5287.79)
(0 -0 -5252.15)
(0 -0 -5217.41)
(0 -0 -5184.01)
(0 -0 -5151.02)
(0 -0 -5120.07)
(0 -0 -5088.13)
(0 -0 -5060.41)
(0 -0 -5027.71)
(0 -0 -5005.76)
(0 -0 -4968.12)
(0 -0 -4957.11)
(0 -0 -4922.86)
(0 -0 254)
(0 -0 185.265)
(0 -0 -173.26)
(0 -0 -764.408)
(0 -0 -1447)
(0 -0 -2114.19)
(0 -0 -2718.74)
(0 -0 -3241.23)
(0 -0 -3677.58)
(0 -0 -4033.61)
(0 -0 -4319.58)
(0 -0 -4546.59)
(0 -0 -4724.95)
(0 -0 -4863.63)
(0 -0 -4970.14)
(0 -0 -5050.65)
(0 -0 -5110.19)
(0 -0 -5152.82)
(0 -0 -5181.82)
(0 -0 -5199.82)
(0 -0 -5208.96)
(0 -0 -5210.96)
(0 -0 -5207.19)
(0 -0 -5198.81)
(0 -0 -5186.72)
(0 -0 -5171.66)
(0 -0 -5154.26)
(0 -0 -5135.01)
(0 -0 -5114.31)
(0 -0 -5092.5)
(0 -0 -5069.84)
(0 -0 -5046.57)
(0 -0 -5022.87)
(0 -0 -4998.88)
(0 -0 -4974.74)
(0 -0 -4950.53)
(0 -0 -4926.37)
(0 -0 -4902.23)
(0 -0 -4878.35)
(0 -0 -4854.41)
(0 -0 -4831.07)
(0 -0 -4807.19)
(0 -0 -4784.85)
(0 -0 -4760.33)
(0 -0 -4740.01)
(0 -0 -4712.9)
(0 -0 -4697.2)
(0 -0 -4663.57)
(0 -0 -4655.43)
(0 -0 -4622.42)
(0 -0 178.727)
(0 -0 204.473)
(0 -0 130.637)
(0 -0 -85.1344)
(0 -0 -417.56)
(0 -0 -814.155)
(0 -0 -1235.08)
(0 -0 -1651.5)
(0 -0 -2043.6)
(0 -0 -2400.41)
(0 -0 -2717.72)
(0 -0 -2995.43)
(0 -0 -3235.71)
(0 -0 -3441.88)
(0 -0 -3617.66)
(0 -0 -3766.77)
(0 -0 -3892.73)
(0 -0 -3998.71)
(0 -0 -4087.52)
(0 -0 -4161.61)
(0 -0 -4223.1)
(0 -0 -4273.82)
(0 -0 -4315.34)
(0 -0 -4348.98)
(0 -0 -4375.87)
(0 -0 -4397.01)
(0 -0 -4413.19)
(0 -0 -4425.13)
(0 -0 -4433.43)
(0 -0 -4438.6)
(0 -0 -4441.07)
(0 -0 -4441.2)
(0 -0 -4439.33)
(0 -0 -4435.72)
(0 -0 -4430.6)
(0 -0 -4424.17)
(0 -0 -4416.61)
(0 -0 -4408.01)
(0 -0 -4398.64)
(0 -0 -4388.27)
(0 -0 -4377.61)
(0 -0 -4365.55)
(0 -0 -4354.21)
(0 -0 -4339.93)
(0 -0 -4329.01)
(0 -0 -4310.82)
(0 -0 -4302.44)
(0 -0 -4277.45)
(0 -0 -4272.17)
(0 -0 -4246.37)
(0 -0 147.998)
(0 -0 164.583)
(0 -0 169.954)
(0 -0 120.964)
(0 -0 1.1307)
(0 -0 -180.411)
(0 -0 -408.266)
(0 -0 -666.095)
(0 -0 -938.09)
(0 -0 -1211.36)
(0 -0 -1476.68)
(0 -0 -1728.08)
(0 -0 -1962.03)
(0 -0 -2176.85)
(0 -0 -2372.15)
(0 -0 -2548.36)
(0 -0 -2706.47)
(0 -0 -2847.7)
(0 -0 -2973.45)
(0 -0 -3085.12)
(0 -0 -3184.07)
(0 -0 -3271.61)
(0 -0 -3348.94)
(0 -0 -3417.15)
(0 -0 -3477.24)
(0 -0 -3530.1)
(0 -0 -3576.52)
(0 -0 -3617.23)
(0 -0 -3652.83)
(0 -0 -3683.88)
(0 -0 -3710.88)
(0 -0 -3734.25)
(0 -0 -3754.36)
(0 -0 -3771.55)
(0 -0 -3786.11)
(0 -0 -3798.29)
(0 -0 -3808.33)
(0 -0 -3816.38)
(0 -0 -3822.71)
(0 -0 -3827.22)
(0 -0 -3830.53)
(0 -0 -3831.75)
(0 -0 -3832.75)
(0 -0 -3830.37)
(0 -0 -3830.07)
(0 -0 -3822.79)
(0 -0 -3822.71)
(0 -0 -3808.62)
(0 -0 -3807.79)
(0 -0 -3791.21)
(0 -0 136.803)
(0 -0 137.049)
(0 -0 148.708)
(0 -0 149.647)
(0 -0 122.185)
(0 -0 60.1965)
(0 -0 -36.1091)
(0 -0 -163.063)
(0 -0 -314.314)
(0 -0 -482.56)
(0 -0 -660.897)
(0 -0 -843.423)
(0 -0 -1025.4)
(0 -0 -1203.25)
(0 -0 -1374.41)
(0 -0 -1537.18)
(0 -0 -1690.53)
(0 -0 -1833.97)
(0 -0 -1967.37)
(0 -0 -2090.86)
(0 -0 -2204.79)
(0 -0 -2309.59)
(0 -0 -2405.79)
(0 -0 -2493.94)
(0 -0 -2574.62)
(0 -0 -2648.37)
(0 -0 -2715.73)
(0 -0 -2777.22)
(0 -0 -2833.31)
(0 -0 -2884.45)
(0 -0 -2931.04)
(0 -0 -2973.45)
(0 -0 -3012.02)
(0 -0 -3047.06)
(0 -0 -3078.83)
(0 -0 -3107.6)
(0 -0 -3133.58)
(0 -0 -3156.95)
(0 -0 -3177.96)
(0 -0 -3196.57)
(0 -0 -3213.29)
(0 -0 -3227.46)
(0 -0 -3240.59)
(0 -0 -3250.13)
(0 -0 -3260.5)
(0 -0 -3264.51)
(0 -0 -3273.04)
(0 -0 -3270.26)
(0 -0 -3275.23)
(0 -0 -3268.4)
(0 -0 129.921)
(0 -0 123.976)
(0 -0 129.158)
(0 -0 136.352)
(0 -0 136.44)
(0 -0 123.195)
(0 -0 92.9892)
(0 -0 43.9884)
(0 -0 -23.6335)
(0 -0 -108.042)
(0 -0 -206.467)
(0 -0 -315.774)
(0 -0 -432.823)
(0 -0 -554.71)
(0 -0 -678.898)
(0 -0 -803.271)
(0 -0 -926.131)
(0 -0 -1046.17)
(0 -0 -1162.4)
(0 -0 -1274.13)
(0 -0 -1380.91)
(0 -0 -1482.46)
(0 -0 -1578.66)
(0 -0 -1669.5)
(0 -0 -1755.05)
(0 -0 -1835.46)
(0 -0 -1910.9)
(0 -0 -1981.57)
(0 -0 -2047.71)
(0 -0 -2109.54)
(0 -0 -2167.28)
(0 -0 -2221.18)
(0 -0 -2271.43)
(0 -0 -2318.25)
(0 -0 -2361.82)
(0 -0 -2402.34)
(0 -0 -2439.96)
(0 -0 -2474.82)
(0 -0 -2507.1)
(0 -0 -2536.79)
(0 -0 -2564.28)
(0 -0 -2589.05)
(0 -0 -2612.28)
(0 -0 -2632)
(0 -0 -2651.55)
(0 -0 -2665.54)
(0 -0 -2681.82)
(0 -0 -2689.21)
(0 -0 -2700.25)
(0 -0 -2702.48)
(0 -0 122.93)
(0 -0 116.622)
(0 -0 117.99)
(0 -0 122.463)
(0 -0 126.4)
(0 -0 126.868)
(0 -0 121.404)
(0 -0 107.717)
(0 -0 84.1755)
(0 -0 50.0779)
(0 -0 5.5214)
(0 -0 -48.7821)
(0 -0 -111.706)
(0 -0 -181.883)
(0 -0 -257.859)
(0 -0 -338.199)
(0 -0 -421.558)
(0 -0 -506.729)
(0 -0 -592.657)
(0 -0 -678.448)
(0 -0 -763.362)
(0 -0 -846.8)
(0 -0 -928.291)
(0 -0 -1007.47)
(0 -0 -1084.09)
(0 -0 -1157.95)
(0 -0 -1228.94)
(0 -0 -1297)
(0 -0 -1362.1)
(0 -0 -1424.25)
(0 -0 -1483.49)
(0 -0 -1539.88)
(0 -0 -1593.47)
(0 -0 -1644.35)
(0 -0 -1692.57)
(0 -0 -1738.23)
(0 -0 -1781.39)
(0 -0 -1822.12)
(0 -0 -1860.52)
(0 -0 -1896.54)
(0 -0 -1930.47)
(0 -0 -1961.87)
(0 -0 -1991.61)
(0 -0 -2018.18)
(0 -0 -2044.01)
(0 -0 -2065.2)
(0 -0 -2087.11)
(0 -0 -2102.23)
(0 -0 -2118.29)
(0 -0 -2127.8)
(0 -0 115.609)
(0 -0 110.389)
(0 -0 110.708)
(0 -0 113.145)
(0 -0 115.953)
(0 -0 118.207)
(0 -0 119.08)
(0 -0 117.375)
(0 -0 111.816)
(0 -0 101.354)
(0 -0 85.2721)
(0 -0 63.1998)
(0 -0 35.0842)
(0 -0 1.14597)
(0 -0 -38.1863)
(0 -0 -82.3421)
(0 -0 -130.668)
(0 -0 -182.475)
(0 -0 -237.077)
(0 -0 -293.813)
(0 -0 -352.072)
(0 -0 -411.297)
(0 -0 -470.992)
(0 -0 -530.726)
(0 -0 -590.129)
(0 -0 -648.89)
(0 -0 -706.752)
(0 -0 -763.502)
(0 -0 -818.972)
(0 -0 -873.03)
(0 -0 -925.569)
(0 -0 -976.516)
(0 -0 -1025.81)
(0 -0 -1073.41)
(0 -0 -1119.28)
(0 -0 -1163.41)
(0 -0 -1205.78)
(0 -0 -1246.39)
(0 -0 -1285.25)
(0 -0 -1322.26)
(0 -0 -1357.61)
(0 -0 -1390.91)
(0 -0 -1422.77)
(0 -0 -1452.05)
(0 -0 -1480.41)
(0 -0 -1505.15)
(0 -0 -1529.7)
(0 -0 -1549.27)
(0 -0 -1568.29)
(0 -0 -1582.47)
(0 -0 108.363)
(0 -0 104.171)
(0 -0 104.381)
(0 -0 106.088)
(0 -0 107.953)
(0 -0 109.659)
(0 -0 111.19)
(0 -0 112.201)
(0 -0 112.115)
(0 -0 110.303)
(0 -0 106.181)
(0 -0 99.249)
(0 -0 89.1341)
(0 -0 75.5992)
(0 -0 58.5501)
(0 -0 38.0141)
(0 -0 14.1234)
(0 -0 -12.908)
(0 -0 -42.8078)
(0 -0 -75.2649)
(0 -0 -109.948)
(0 -0 -146.519)
(0 -0 -184.645)
(0 -0 -224.007)
(0 -0 -264.305)
(0 -0 -305.262)
(0 -0 -346.63)
(0 -0 -388.179)
(0 -0 -429.711)
(0 -0 -471.051)
(0 -0 -512.041)
(0 -0 -552.551)
(0 -0 -592.458)
(0 -0 -631.665)
(0 -0 -670.078)
(0 -0 -707.622)
(0 -0 -744.225)
(0 -0 -779.817)
(0 -0 -814.366)
(0 -0 -847.746)
(0 -0 -880.039)
(0 -0 -910.921)
(0 -0 -940.776)
(0 -0 -968.785)
(0 -0 -995.978)
(0 -0 -1020.59)
(0 -0 -1044.64)
(0 -0 -1065.24)
(0 -0 -1084.71)
(0 -0 -1100.71)
(0 -0 101.384)
(0 -0 97.9781)
(0 -0 98.2029)
(0 -0 99.6758)
(0 -0 101.186)
(0 -0 102.454)
(0 -0 103.673)
(0 -0 104.854)
(0 -0 105.824)
(0 -0 106.339)
(0 -0 106.119)
(0 -0 104.867)
(0 -0 102.294)
(0 -0 98.145)
(0 -0 92.2098)
(0 -0 84.3387)
(0 -0 74.4401)
(0 -0 62.4794)
(0 -0 48.4744)
(0 -0 32.4864)
(0 -0 14.6135)
(0 -0 -5.01806)
(0 -0 -26.262)
(0 -0 -48.9596)
(0 -0 -72.943)
(0 -0 -98.0471)
(0 -0 -124.1)
(0 -0 -150.949)
(0 -0 -178.436)
(0 -0 -206.419)
(0 -0 -234.76)
(0 -0 -263.335)
(0 -0 -292.025)
(0 -0 -320.724)
(0 -0 -349.329)
(0 -0 -377.748)
(0 -0 -405.895)
(0 -0 -433.675)
(0 -0 -461.037)
(0 -0 -487.847)
(0 -0 -514.13)
(0 -0 -539.624)
(0 -0 -564.543)
(0 -0 -588.327)
(0 -0 -611.552)
(0 -0 -633.136)
(0 -0 -654.138)
(0 -0 -672.931)
(0 -0 -690.594)
(0 -0 -705.901)
(0 -0 94.7062)
(0 -0 91.9273)
(0 -0 92.1402)
(0 -0 93.4642)
(0 -0 94.8426)
(0 -0 95.9375)
(0 -0 96.9322)
(0 -0 97.9251)
(0 -0 98.8886)
(0 -0 99.756)
(0 -0 100.438)
(0 -0 100.819)
(0 -0 100.761)
(0 -0 100.116)
(0 -0 98.7389)
(0 -0 96.4949)
(0 -0 93.2671)
(0 -0 88.9611)
(0 -0 83.5073)
(0 -0 76.8616)
(0 -0 69.0056)
(0 -0 59.9412)
(0 -0 49.695)
(0 -0 38.3074)
(0 -0 25.8342)
(0 -0 12.3414)
(0 -0 -2.09534)
(0 -0 -17.397)
(0 -0 -33.4797)
(0 -0 -50.2591)
(0 -0 -67.6495)
(0 -0 -85.5678)
(0 -0 -103.93)
(0 -0 -122.656)
(0 -0 -141.668)
(0 -0 -160.887)
(0 -0 -180.242)
(0 -0 -199.65)
(0 -0 -219.06)
(0 -0 -238.358)
(0 -0 -257.541)
(0 -0 -276.418)
(0 -0 -295.087)
(0 -0 -313.192)
(0 -0 -331.015)
(0 -0 -347.935)
(0 -0 -364.435)
(0 -0 -379.658)
(0 -0 -394.021)
(0 -0 -406.899)
(0 -0 88.329)
(0 -0 86.0702)
(0 -0 86.2646)
(0 -0 87.439)
(0 -0 88.719)
(0 -0 89.7347)
(0 -0 90.6231)
(0 -0 91.488)
(0 -0 92.3337)
(0 -0 93.1457)
(0 -0 93.9082)
(0 -0 94.5925)
(0 -0 95.1534)
(0 -0 95.5325)
(0 -0 95.6626)
(0 -0 95.4711)
(0 -0 94.8847)
(0 -0 93.8328)
(0 -0 92.2506)
(0 -0 90.0814)
(0 -0 87.2788)
(0 -0 83.8076)
(0 -0 79.6427)
(0 -0 74.772)
(0 -0 69.1917)
(0 -0 62.9115)
(0 -0 55.941)
(0 -0 48.3096)
(0 -0 40.0431)
(0 -0 31.1745)
(0 -0 21.7414)
(0 -0 11.7842)
(0 -0 1.34583)
(0 -0 -9.52857)
(0 -0 -20.7937)
(0 -0 -32.3996)
(0 -0 -44.3023)
(0 -0 -56.443)
(0 -0 -68.7861)
(0 -0 -81.2525)
(0 -0 -93.8293)
(0 -0 -106.392)
(0 -0 -118.977)
(0 -0 -131.378)
(0 -0 -143.705)
(0 -0 -155.631)
(0 -0 -167.334)
(0 -0 -178.389)
(0 -0 -188.915)
(0 -0 -198.591)
(0 -0 82.2508)
(0 -0 80.4249)
(0 -0 80.6093)
(0 -0 81.6389)
(0 -0 82.8155)
(0 -0 83.7657)
(0 -0 84.5861)
(0 -0 85.3737)
(0 -0 86.1367)
(0 -0 86.8685)
(0 -0 87.5706)
(0 -0 88.2423)
(0 -0 88.8753)
(0 -0 89.4538)
(0 -0 89.9556)
(0 -0 90.353)
(0 -0 90.614)
(0 -0 90.7034)
(0 -0 90.5848)
(0 -0 90.2218)
(0 -0 89.5796)
(0 -0 88.6261)
(0 -0 87.3331)
(0 -0 85.6765)
(0 -0 83.6375)
(0 -0 81.2017)
(0 -0 78.3617)
(0 -0 75.1106)
(0 -0 71.45)
(0 -0 67.3842)
(0 -0 62.9212)
(0 -0 58.0724)
(0 -0 52.8516)
(0 -0 47.2769)
(0 -0 41.3667)
(0 -0 35.1449)
(0 -0 28.6322)
(0 -0 21.8604)
(0 -0 14.849)
(0 -0 7.64294)
(0 -0 0.253971)
(0 -0 -7.24955)
(0 -0 -14.8727)
(0 -0 -22.5094)
(0 -0 -30.1889)
(0 -0 -37.7538)
(0 -0 -45.2473)
(0 -0 -52.4714)
(0 -0 -59.4348)
(0 -0 -65.9671)
(0 -0 76.4719)
(0 -0 75.0029)
(0 -0 75.1864)
(0 -0 76.084)
(0 -0 77.1546)
(0 -0 78.0382)
(0 -0 78.797)
(0 -0 79.5221)
(0 -0 80.2235)
(0 -0 80.8937)
(0 -0 81.535)
(0 -0 82.1522)
(0 -0 82.7468)
(0 -0 83.3171)
(0 -0 83.8586)
(0 -0 84.3641)
(0 -0 84.8233)
(0 -0 85.2237)
(0 -0 85.5503)
(0 -0 85.7866)
(0 -0 85.9148)
(0 -0 85.9169)
(0 -0 85.7751)
(0 -0 85.4721)
(0 -0 84.9924)
(0 -0 84.3214)
(0 -0 83.4474)
(0 -0 82.3598)
(0 -0 81.0504)
(0 -0 79.5135)
(0 -0 77.745)
(0 -0 75.7433)
(0 -0 73.5086)
(0 -0 71.0435)
(0 -0 68.3515)
(0 -0 65.4399)
(0 -0 62.3149)
(0 -0 58.9893)
(0 -0 55.4707)
(0 -0 51.7791)
(0 -0 47.9218)
(0 -0 43.929)
(0 -0 39.8063)
(0 -0 35.6005)
(0 -0 31.3119)
(0 -0 27.0082)
(0 -0 22.6912)
(0 -0 18.4492)
(0 -0 14.2954)
(0 -0 10.3276)
(0 -0 70.9923)
(0 -0 69.8144)
(0 -0 70.0028)
(0 -0 70.7828)
(0 -0 71.7494)
(0 -0 72.5662)
(0 -0 73.2651)
(0 -0 73.9308)
(0 -0 74.5765)
(0 -0 75.1939)
(0 -0 75.7836)
(0 -0 76.3503)
(0 -0 76.897)
(0 -0 77.425)
(0 -0 77.9346)
(0 -0 78.4253)
(0 -0 78.8951)
(0 -0 79.341)
(0 -0 79.7587)
(0 -0 80.1424)
(0 -0 80.4855)
(0 -0 80.7805)
(0 -0 81.0192)
(0 -0 81.1931)
(0 -0 81.2936)
(0 -0 81.3123)
(0 -0 81.2413)
(0 -0 81.0729)
(0 -0 80.8001)
(0 -0 80.4167)
(0 -0 79.9172)
(0 -0 79.2969)
(0 -0 78.552)
(0 -0 77.68)
(0 -0 76.6786)
(0 -0 75.548)
(0 -0 74.2876)
(0 -0 72.9002)
(0 -0 71.3871)
(0 -0 69.7547)
(0 -0 68.0056)
(0 -0 66.1509)
(0 -0 64.1946)
(0 -0 62.1533)
(0 -0 60.0341)
(0 -0 57.8619)
(0 -0 55.6452)
(0 -0 53.4243)
(0 -0 51.2026)
(0 -0 49.0457)
(0 -0 65.8104)
(0 -0 64.868)
(0 -0 65.0643)
(0 -0 65.7403)
(0 -0 66.6067)
(0 -0 67.3579)
(0 -0 67.9992)
(0 -0 68.6077)
(0 -0 69.1997)
(0 -0 69.7672)
(0 -0 70.3096)
(0 -0 70.8304)
(0 -0 71.3327)
(0 -0 71.8179)
(0 -0 72.2872)
(0 -0 72.7413)
(0 -0 73.1807)
(0 -0 73.6053)
(0 -0 74.0144)
(0 -0 74.4068)
(0 -0 74.7807)
(0 -0 75.1338)
(0 -0 75.4631)
(0 -0 75.7656)
(0 -0 76.0379)
(0 -0 76.2765)
(0 -0 76.4776)
(0 -0 76.6376)
(0 -0 76.7527)
(0 -0 76.8192)
(0 -0 76.8335)
(0 -0 76.7922)
(0 -0 76.6919)
(0 -0 76.5299)
(0 -0 76.3032)
(0 -0 76.01)
(0 -0 75.6483)
(0 -0 75.217)
(0 -0 74.7153)
(0 -0 74.1435)
(0 -0 73.502)
(0 -0 72.7924)
(0 -0 72.0175)
(0 -0 71.1805)
(0 -0 70.2861)
(0 -0 69.3425)
(0 -0 68.352)
(0 -0 67.3373)
(0 -0 66.2864)
(0 -0 65.2528)
(0 -0 60.9234)
(0 -0 60.17)
(0 -0 60.3749)
(0 -0 60.9596)
(0 -0 61.7306)
(0 -0 62.4181)
(0 -0 63.0047)
(0 -0 63.5586)
(0 -0 64.0988)
(0 -0 64.6185)
(0 -0 65.1157)
(0 -0 65.5932)
(0 -0 66.0538)
(0 -0 66.4988)
(0 -0 66.9292)
(0 -0 67.3459)
(0 -0 67.7497)
(0 -0 68.1411)
(0 -0 68.5205)
(0 -0 68.8879)
(0 -0 69.2431)
(0 -0 69.5856)
(0 -0 69.9148)
(0 -0 70.23)
(0 -0 70.5302)
(0 -0 70.8144)
(0 -0 71.0817)
(0 -0 71.3309)
(0 -0 71.5605)
(0 -0 71.7691)
(0 -0 71.955)
(0 -0 72.1167)
(0 -0 72.2522)
(0 -0 72.3599)
(0 -0 72.4379)
(0 -0 72.4845)
(0 -0 72.498)
(0 -0 72.477)
(0 -0 72.4204)
(0 -0 72.3264)
(0 -0 72.1951)
(0 -0 72.0249)
(0 -0 71.8167)
(0 -0 71.5699)
(0 -0 71.2854)
(0 -0 70.9667)
(0 -0 70.6091)
(0 -0 70.2301)
(0 -0 69.8064)
(0 -0 69.3875)
(0 -0 56.3275)
(0 -0 55.7246)
(0 -0 55.9372)
(0 -0 56.442)
(0 -0 57.1234)
(0 -0 57.7492)
(0 -0 58.284)
(0 -0 58.7863)
(0 -0 59.2773)
(0 -0 59.7512)
(0 -0 60.2052)
(0 -0 60.6414)
(0 -0 61.0624)
(0 -0 61.4692)
(0 -0 61.8628)
(0 -0 62.2438)
(0 -0 62.6131)
(0 -0 62.9712)
(0 -0 63.3186)
(0 -0 63.6555)
(0 -0 63.9822)
(0 -0 64.2986)
(0 -0 64.6047)
(0 -0 64.9008)
(0 -0 65.1867)
(0 -0 65.4626)
(0 -0 65.7285)
(0 -0 65.9845)
(0 -0 66.2302)
(0 -0 66.4656)
(0 -0 66.6902)
(0 -0 66.9034)
(0 -0 67.1045)
(0 -0 67.2928)
(0 -0 67.4673)
(0 -0 67.627)
(0 -0 67.7711)
(0 -0 67.8983)
(0 -0 68.0079)
(0 -0 68.0982)
(0 -0 68.169)
(0 -0 68.2185)
(0 -0 68.2464)
(0 -0 68.2518)
(0 -0 68.2328)
(0 -0 68.1929)
(0 -0 68.1224)
(0 -0 68.0386)
(0 -0 67.9117)
(0 -0 67.7905)
(0 -0 52.0175)
(0 -0 51.5337)
(0 -0 51.7518)
(0 -0 52.1872)
(0 -0 52.7852)
(0 -0 53.3517)
(0 -0 53.8377)
(0 -0 54.2916)
(0 -0 54.7358)
(0 -0 55.1663)
(0 -0 55.5794)
(0 -0 55.9764)
(0 -0 56.3597)
(0 -0 56.7302)
(0 -0 57.0888)
(0 -0 57.4361)
(0 -0 57.7726)
(0 -0 58.0989)
(0 -0 58.4154)
(0 -0 58.7223)
(0 -0 59.0199)
(0 -0 59.3083)
(0 -0 59.5877)
(0 -0 59.8582)
(0 -0 60.1203)
(0 -0 60.3743)
(0 -0 60.6208)
(0 -0 60.86)
(0 -0 61.0923)
(0 -0 61.318)
(0 -0 61.5372)
(0 -0 61.7498)
(0 -0 61.9556)
(0 -0 62.1545)
(0 -0 62.3461)
(0 -0 62.5298)
(0 -0 62.7052)
(0 -0 62.8715)
(0 -0 63.0282)
(0 -0 63.1743)
(0 -0 63.3092)
(0 -0 63.4317)
(0 -0 63.541)
(0 -0 63.6367)
(0 -0 63.7154)
(0 -0 63.7815)
(0 -0 63.8231)
(0 -0 63.8579)
(0 -0 63.8534)
(0 -0 63.8586)
(0 -0 47.9869)
(0 -0 47.5971)
(0 -0 47.8178)
(0 -0 48.1929)
(0 -0 48.7143)
(0 -0 49.224)
(0 -0 49.6642)
(0 -0 50.0729)
(0 -0 50.4733)
(0 -0 50.8628)
(0 -0 51.2372)
(0 -0 51.5973)
(0 -0 51.9449)
(0 -0 52.2812)
(0 -0 52.6068)
(0 -0 52.922)
(0 -0 53.2275)
(0 -0 53.5236)
(0 -0 53.8108)
(0 -0 54.0893)
(0 -0 54.3591)
(0 -0 54.6205)
(0 -0 54.8735)
(0 -0 55.1185)
(0 -0 55.3558)
(0 -0 55.586)
(0 -0 55.8096)
(0 -0 56.0271)
(0 -0 56.2391)
(0 -0 56.4459)
(0 -0 56.6477)
(0 -0 56.8448)
(0 -0 57.0372)
(0 -0 57.2249)
(0 -0 57.4077)
(0 -0 57.5853)
(0 -0 57.7575)
(0 -0 57.9238)
(0 -0 58.0838)
(0 -0 58.2367)
(0 -0 58.3821)
(0 -0 58.5192)
(0 -0 58.6467)
(0 -0 58.7652)
(0 -0 58.8703)
(0 -0 58.9673)
(0 -0 59.0433)
(0 -0 59.1167)
(0 -0 59.154)
(0 -0 59.2049)
(0 -0 44.2282)
(0 -0 43.9124)
(0 -0 44.1321)
(0 -0 44.4552)
(0 -0 44.907)
(0 -0 45.3628)
(0 -0 45.76)
(0 -0 46.1269)
(0 -0 46.4864)
(0 -0 46.8374)
(0 -0 47.1755)
(0 -0 47.501)
(0 -0 47.8153)
(0 -0 48.1193)
(0 -0 48.4137)
(0 -0 48.6988)
(0 -0 48.9751)
(0 -0 49.2429)
(0 -0 49.5025)
(0 -0 49.754)
(0 -0 49.9977)
(0 -0 50.2334)
(0 -0 50.4614)
(0 -0 50.682)
(0 -0 50.8956)
(0 -0 51.1027)
(0 -0 51.3039)
(0 -0 51.4997)
(0 -0 51.6908)
(0 -0 51.8774)
(0 -0 52.0599)
(0 -0 52.2386)
(0 -0 52.4135)
(0 -0 52.5847)
(0 -0 52.752)
(0 -0 52.9153)
(0 -0 53.0745)
(0 -0 53.229)
(0 -0 53.3785)
(0 -0 53.5227)
(0 -0 53.6607)
(0 -0 53.7923)
(0 -0 53.916)
(0 -0 54.0327)
(0 -0 54.1379)
(0 -0 54.2373)
(0 -0 54.3179)
(0 -0 54.3982)
(0 -0 54.445)
(0 -0 54.5079)
(0 -0 40.7328)
(0 -0 40.4753)
(0 -0 40.6903)
(0 -0 40.9686)
(0 -0 41.3579)
(0 -0 41.7627)
(0 -0 42.12)
(0 -0 42.4483)
(0 -0 42.7698)
(0 -0 43.0849)
(0 -0 43.3893)
(0 -0 43.6824)
(0 -0 43.9656)
(0 -0 44.2396)
(0 -0 44.5049)
(0 -0 44.7618)
(0 -0 45.0107)
(0 -0 45.2519)
(0 -0 45.4856)
(0 -0 45.712)
(0 -0 45.9309)
(0 -0 46.1426)
(0 -0 46.3472)
(0 -0 46.5448)
(0 -0 46.736)
(0 -0 46.9213)
(0 -0 47.1013)
(0 -0 47.2765)
(0 -0 47.4476)
(0 -0 47.6149)
(0 -0 47.7787)
(0 -0 47.9392)
(0 -0 48.0967)
(0 -0 48.251)
(0 -0 48.4021)
(0 -0 48.5498)
(0 -0 48.694)
(0 -0 48.8342)
(0 -0 48.9703)
(0 -0 49.1016)
(0 -0 49.2277)
(0 -0 49.3483)
(0 -0 49.4617)
(0 -0 49.5694)
(0 -0 49.6665)
(0 -0 49.7592)
(0 -0 49.8346)
(0 -0 49.911)
(0 -0 49.9562)
(0 -0 50.0187)
(0 -0 37.4909)
(0 -0 37.2797)
(0 -0 37.4863)
(0 -0 37.726)
(0 -0 38.0595)
(0 -0 38.4169)
(0 -0 38.7369)
(0 -0 39.03)
(0 -0 39.3164)
(0 -0 39.5983)
(0 -0 39.8715)
(0 -0 40.1347)
(0 -0 40.389)
(0 -0 40.6351)
(0 -0 40.8734)
(0 -0 41.1041)
(0 -0 41.3276)
(0 -0 41.544)
(0 -0 41.7536)
(0 -0 41.9564)
(0 -0 42.1524)
(0 -0 42.3416)
(0 -0 42.5242)
(0 -0 42.7004)
(0 -0 42.8707)
(0 -0 43.0355)
(0 -0 43.1957)
(0 -0 43.3517)
(0 -0 43.504)
(0 -0 43.6531)
(0 -0 43.7994)
(0 -0 43.9429)
(0 -0 44.0838)
(0 -0 44.2221)
(0 -0 44.3578)
(0 -0 44.4905)
(0 -0 44.6202)
(0 -0 44.7465)
(0 -0 44.869)
(0 -0 44.9874)
(0 -0 45.1009)
(0 -0 45.2097)
(0 -0 45.3119)
(0 -0 45.409)
(0 -0 45.4964)
(0 -0 45.5801)
(0 -0 45.6479)
(0 -0 45.7174)
(0 -0 45.7579)
(0 -0 45.8162)
(0 -0 34.4918)
(0 -0 34.3179)
(0 -0 34.5123)
(0 -0 34.7187)
(0 -0 35.0032)
(0 -0 35.3167)
(0 -0 35.6023)
(0 -0 35.8632)
(0 -0 36.1177)
(0 -0 36.3691)
(0 -0 36.6134)
(0 -0 36.8491)
(0 -0 37.0768)
(0 -0 37.2972)
(0 -0 37.5106)
(0 -0 37.7171)
(0 -0 37.9171)
(0 -0 38.1106)
(0 -0 38.2978)
(0 -0 38.4788)
(0 -0 38.6535)
(0 -0 38.8219)
(0 -0 38.984)
(0 -0 39.1403)
(0 -0 39.2911)
(0 -0 39.437)
(0 -0 39.5787)
(0 -0 39.7168)
(0 -0 39.8518)
(0 -0 39.9841)
(0 -0 40.114)
(0 -0 40.2418)
(0 -0 40.3674)
(0 -0 40.4909)
(0 -0 40.6121)
(0 -0 40.7309)
(0 -0 40.8471)
(0 -0 40.9603)
(0 -0 41.0701)
(0 -0 41.1763)
(0 -0 41.2781)
(0 -0 41.3755)
(0 -0 41.4669)
(0 -0 41.5537)
(0 -0 41.6316)
(0 -0 41.7062)
(0 -0 41.7665)
(0 -0 41.8286)
(0 -0 41.8641)
(0 -0 41.9171)
(0 -0 31.7242)
(0 -0 31.5806)
(0 -0 31.7597)
(0 -0 31.9378)
(0 -0 32.1796)
(0 -0 32.4528)
(0 -0 32.7065)
(0 -0 32.9383)
(0 -0 33.1638)
(0 -0 33.3872)
(0 -0 33.6052)
(0 -0 33.8157)
(0 -0 34.0191)
(0 -0 34.2159)
(0 -0 34.4064)
(0 -0 34.5908)
(0 -0 34.7691)
(0 -0 34.9415)
(0 -0 35.1082)
(0 -0 35.2691)
(0 -0 35.4241)
(0 -0 35.5733)
(0 -0 35.7166)
(0 -0 35.8544)
(0 -0 35.9872)
(0 -0 36.1156)
(0 -0 36.2403)
(0 -0 36.3619)
(0 -0 36.4808)
(0 -0 36.5976)
(0 -0 36.7125)
(0 -0 36.8258)
(0 -0 36.9373)
(0 -0 37.0472)
(0 -0 37.1552)
(0 -0 37.2612)
(0 -0 37.3649)
(0 -0 37.4661)
(0 -0 37.5643)
(0 -0 37.6592)
(0 -0 37.7501)
(0 -0 37.837)
(0 -0 37.9184)
(0 -0 37.9957)
(0 -0 38.0648)
(0 -0 38.131)
(0 -0 38.1841)
(0 -0 38.2392)
(0 -0 38.27)
(0 -0 38.3177)
(0 -0 29.176)
(0 -0 29.0571)
(0 -0 29.219)
(0 -0 29.3734)
(0 -0 29.578)
(0 -0 29.8146)
(0 -0 30.0391)
(0 -0 30.2445)
(0 -0 30.4438)
(0 -0 30.6418)
(0 -0 30.8358)
(0 -0 31.0234)
(0 -0 31.2047)
(0 -0 31.38)
(0 -0 31.5496)
(0 -0 31.7137)
(0 -0 31.8723)
(0 -0 32.0255)
(0 -0 32.1733)
(0 -0 32.3158)
(0 -0 32.4528)
(0 -0 32.5842)
(0 -0 32.7102)
(0 -0 32.8311)
(0 -0 32.9474)
(0 -0 33.0597)
(0 -0 33.1688)
(0 -0 33.2751)
(0 -0 33.3794)
(0 -0 33.482)
(0 -0 33.5832)
(0 -0 33.6831)
(0 -0 33.7818)
(0 -0 33.8792)
(0 -0 33.9752)
(0 -0 34.0695)
(0 -0 34.1619)
(0 -0 34.2522)
(0 -0 34.3397)
(0 -0 34.4244)
(0 -0 34.5053)
(0 -0 34.5827)
(0 -0 34.655)
(0 -0 34.7235)
(0 -0 34.7846)
(0 -0 34.8431)
(0 -0 34.8897)
(0 -0 34.9383)
(0 -0 34.9648)
(0 -0 35.0075)
(0 -0 26.8347)
(0 -0 26.7359)
(0 -0 26.8798)
(0 -0 27.0139)
(0 -0 27.1868)
(0 -0 27.3905)
(0 -0 27.5882)
(0 -0 27.7699)
(0 -0 27.9458)
(0 -0 28.1208)
(0 -0 28.293)
(0 -0 28.4599)
(0 -0 28.6212)
(0 -0 28.777)
(0 -0 28.9278)
(0 -0 29.0734)
(0 -0 29.2141)
(0 -0 29.3498)
(0 -0 29.4805)
(0 -0 29.6062)
(0 -0 29.7267)
(0 -0 29.842)
(0 -0 29.9522)
(0 -0 30.0577)
(0 -0 30.1588)
(0 -0 30.2564)
(0 -0 30.3511)
(0 -0 30.4436)
(0 -0 30.5345)
(0 -0 30.6242)
(0 -0 30.7128)
(0 -0 30.8007)
(0 -0 30.8877)
(0 -0 30.9738)
(0 -0 31.0589)
(0 -0 31.1427)
(0 -0 31.2249)
(0 -0 31.3052)
(0 -0 31.3831)
(0 -0 31.4585)
(0 -0 31.5305)
(0 -0 31.5992)
(0 -0 31.6633)
(0 -0 31.7239)
(0 -0 31.7777)
(0 -0 31.8291)
(0 -0 31.8699)
(0 -0 31.9126)
(0 -0 31.9354)
(0 -0 31.9733)
(0 -0 24.6875)
(0 -0 24.6049)
(0 -0 24.7308)
(0 -0 24.8477)
(0 -0 24.9934)
(0 -0 25.1679)
(0 -0 25.3412)
(0 -0 25.5017)
(0 -0 25.6567)
(0 -0 25.8112)
(0 -0 25.9639)
(0 -0 26.1122)
(0 -0 26.2554)
(0 -0 26.3938)
(0 -0 26.5275)
(0 -0 26.6566)
(0 -0 26.781)
(0 -0 26.9009)
(0 -0 27.0161)
(0 -0 27.1266)
(0 -0 27.2323)
(0 -0 27.3329)
(0 -0 27.4287)
(0 -0 27.5201)
(0 -0 27.6075)
(0 -0 27.6917)
(0 -0 27.7734)
(0 -0 27.8534)
(0 -0 27.9321)
(0 -0 28.01)
(0 -0 28.0873)
(0 -0 28.1643)
(0 -0 28.2408)
(0 -0 28.3167)
(0 -0 28.392)
(0 -0 28.4663)
(0 -0 28.5393)
(0 -0 28.6107)
(0 -0 28.68)
(0 -0 28.747)
(0 -0 28.811)
(0 -0 28.8719)
(0 -0 28.9286)
(0 -0 28.982)
(0 -0 29.0294)
(0 -0 29.0744)
(0 -0 29.1099)
(0 -0 29.1473)
(0 -0 29.1667)
(0 -0 29.2002)
(0 -0 22.7213)
(0 -0 22.6519)
(0 -0 22.7604)
(0 -0 22.8623)
(0 -0 22.985)
(0 -0 23.1337)
(0 -0 23.2851)
(0 -0 23.4266)
(0 -0 23.5632)
(0 -0 23.6995)
(0 -0 23.8347)
(0 -0 23.9663)
(0 -0 24.0935)
(0 -0 24.2163)
(0 -0 24.3347)
(0 -0 24.4489)
(0 -0 24.5588)
(0 -0 24.6645)
(0 -0 24.7658)
(0 -0 24.8627)
(0 -0 24.9549)
(0 -0 25.0423)
(0 -0 25.1251)
(0 -0 25.2037)
(0 -0 25.2787)
(0 -0 25.3508)
(0 -0 25.4208)
(0 -0 25.4894)
(0 -0 25.5571)
(0 -0 25.6245)
(0 -0 25.6917)
(0 -0 25.7588)
(0 -0 25.8259)
(0 -0 25.8927)
(0 -0 25.9592)
(0 -0 26.025)
(0 -0 26.0898)
(0 -0 26.1533)
(0 -0 26.2149)
(0 -0 26.2745)
(0 -0 26.3313)
(0 -0 26.3853)
(0 -0 26.4354)
(0 -0 26.4824)
(0 -0 26.524)
(0 -0 26.5633)
(0 -0 26.5942)
(0 -0 26.6266)
(0 -0 26.6432)
(0 -0 26.6725)
(0 -0 20.9233)
(0 -0 20.8643)
(0 -0 20.9566)
(0 -0 21.0453)
(0 -0 21.1486)
(0 -0 21.2749)
(0 -0 21.4066)
(0 -0 21.5312)
(0 -0 21.6515)
(0 -0 21.7717)
(0 -0 21.8914)
(0 -0 22.0083)
(0 -0 22.1213)
(0 -0 22.2302)
(0 -0 22.3351)
(0 -0 22.436)
(0 -0 22.533)
(0 -0 22.626)
(0 -0 22.7149)
(0 -0 22.7995)
(0 -0 22.8797)
(0 -0 22.9552)
(0 -0 23.0264)
(0 -0 23.0935)
(0 -0 23.1573)
(0 -0 23.2185)
(0 -0 23.2779)
(0 -0 23.3363)
(0 -0 23.3942)
(0 -0 23.4521)
(0 -0 23.5102)
(0 -0 23.5686)
(0 -0 23.6273)
(0 -0 23.6861)
(0 -0 23.7448)
(0 -0 23.8031)
(0 -0 23.8606)
(0 -0 23.917)
(0 -0 23.9719)
(0 -0 24.0249)
(0 -0 24.0753)
(0 -0 24.1231)
(0 -0 24.1674)
(0 -0 24.2087)
(0 -0 24.2451)
(0 -0 24.2794)
(0 -0 24.3061)
(0 -0 24.3341)
(0 -0 24.3482)
(0 -0 24.3738)
(0 -0 19.2806)
(0 -0 19.2298)
(0 -0 19.3074)
(0 -0 19.3845)
(0 -0 19.4714)
(0 -0 19.5782)
(0 -0 19.6923)
(0 -0 19.802)
(0 -0 19.9081)
(0 -0 20.0142)
(0 -0 20.1203)
(0 -0 20.2241)
(0 -0 20.3245)
(0 -0 20.4212)
(0 -0 20.5141)
(0 -0 20.6033)
(0 -0 20.6889)
(0 -0 20.7706)
(0 -0 20.8485)
(0 -0 20.9222)
(0 -0 20.9916)
(0 -0 21.0565)
(0 -0 21.1173)
(0 -0 21.1741)
(0 -0 21.2279)
(0 -0 21.2793)
(0 -0 21.3293)
(0 -0 21.3785)
(0 -0 21.4277)
(0 -0 21.4772)
(0 -0 21.5272)
(0 -0 21.5779)
(0 -0 21.6291)
(0 -0 21.6808)
(0 -0 21.7326)
(0 -0 21.7843)
(0 -0 21.8354)
(0 -0 21.8857)
(0 -0 21.9346)
(0 -0 21.9817)
(0 -0 22.0266)
(0 -0 22.069)
(0 -0 22.1081)
(0 -0 22.1444)
(0 -0 22.1763)
(0 -0 22.206)
(0 -0 22.2291)
(0 -0 22.2532)
(0 -0 22.2651)
(0 -0 22.2871)
(0 -0 17.7806)
(0 -0 17.7363)
(0 -0 17.8007)
(0 -0 17.8673)
(0 -0 17.9405)
(0 -0 18.0307)
(0 -0 18.1292)
(0 -0 18.2257)
(0 -0 18.3194)
(0 -0 18.4133)
(0 -0 18.5074)
(0 -0 18.5998)
(0 -0 18.6892)
(0 -0 18.7751)
(0 -0 18.8575)
(0 -0 18.9364)
(0 -0 19.0119)
(0 -0 19.0837)
(0 -0 19.1517)
(0 -0 19.2158)
(0 -0 19.2757)
(0 -0 19.3312)
(0 -0 19.3826)
(0 -0 19.4303)
(0 -0 19.4751)
(0 -0 19.5179)
(0 -0 19.5594)
(0 -0 19.6005)
(0 -0 19.6419)
(0 -0 19.6839)
(0 -0 19.7268)
(0 -0 19.7707)
(0 -0 19.8154)
(0 -0 19.8608)
(0 -0 19.9066)
(0 -0 19.9525)
(0 -0 19.9981)
(0 -0 20.043)
(0 -0 20.0866)
(0 -0 20.1287)
(0 -0 20.1687)
(0 -0 20.2064)
(0 -0 20.241)
(0 -0 20.2729)
(0 -0 20.3008)
(0 -0 20.3266)
(0 -0 20.3465)
(0 -0 20.3671)
(0 -0 20.3771)
(0 -0 20.3959)
(0 -0 16.4111)
(0 -0 16.372)
(0 -0 16.4248)
(0 -0 16.4821)
(0 -0 16.5437)
(0 -0 16.6197)
(0 -0 16.7046)
(0 -0 16.7894)
(0 -0 16.8724)
(0 -0 16.9556)
(0 -0 17.0393)
(0 -0 17.1218)
(0 -0 17.2016)
(0 -0 17.2781)
(0 -0 17.3513)
(0 -0 17.4212)
(0 -0 17.4878)
(0 -0 17.5509)
(0 -0 17.6104)
(0 -0 17.6659)
(0 -0 17.7173)
(0 -0 17.7645)
(0 -0 17.8077)
(0 -0 17.8473)
(0 -0 17.8841)
(0 -0 17.9191)
(0 -0 17.9531)
(0 -0 17.987)
(0 -0 18.0215)
(0 -0 18.0569)
(0 -0 18.0936)
(0 -0 18.1314)
(0 -0 18.1705)
(0 -0 18.2104)
(0 -0 18.251)
(0 -0 18.2919)
(0 -0 18.3327)
(0 -0 18.3729)
(0 -0 18.412)
(0 -0 18.4498)
(0 -0 18.4855)
(0 -0 18.5191)
(0 -0 18.5498)
(0 -0 18.5778)
(0 -0 18.6022)
(0 -0 18.6245)
(0 -0 18.6417)
(0 -0 18.6591)
(0 -0 18.6675)
(0 -0 18.6834)
(0 -0 15.1606)
(0 -0 15.1256)
(0 -0 15.1683)
(0 -0 15.2172)
(0 -0 15.2692)
(0 -0 15.3332)
(0 -0 15.4062)
(0 -0 15.4807)
(0 -0 15.5544)
(0 -0 15.6285)
(0 -0 15.7032)
(0 -0 15.777)
(0 -0 15.8485)
(0 -0 15.9169)
(0 -0 15.9822)
(0 -0 16.0442)
(0 -0 16.1031)
(0 -0 16.1585)
(0 -0 16.2105)
(0 -0 16.2585)
(0 -0 16.3025)