/*--------------------------------*- C++ -*----------------------------------*\
  =========                 |
  \\      /  F ield         | OpenFOAM: The Open Source CFD Toolbox
   \\    /   O peration     | Website:  https://openfoam.org
    \\  /    A nd           | Version:  7
     \\/     M anipulation  |
\*---------------------------------------------------------------------------*/
FoamFile
{
    version     2.0;
    format      ascii;
    class       volVectorField;
    location    "0.25";
    object      wallShearStress;
}
// * * * * * * * * * * * * * * * * * * * * * * * * * * * * * * * * * * * * * //

dimensions      [0 2 -2 0 0 0 0];

internalField   uniform (0 0 0);

boundaryField
{
    velocityInlet
    {
        type            calculated;
        value           uniform (0 0 0);
    }
    pressureOutlet
    {
        type            calculated;
        value           uniform (0 0 0);
    }
    fixedWalls
    {
        type            calculated;
        value           nonuniform List<vector> 
100
(
(-0.0210761 -0.00730088 0)
(0.000964152 -0.00148796 0)
(-0.000893367 0.000472878 0)
(-0.00119503 0.000160071 0)
(-0.00195321 0.00013448 0)
(-0.00252074 9.66851e-05 0)
(-0.00285171 6.0391e-05 0)
(-0.00296763 3.2586e-05 0)
(-0.00294014 1.17254e-05 0)
(-0.0028479 2.61508e-06 0)
(-0.00275512 2.4096e-06 0)
(-0.00269817 6.02561e-06 0)
(-0.0026806 8.17872e-06 0)
(-0.00270731 1.44412e-05 0)
(-0.00277503 1.72698e-05 0)
(-0.00272536 -1.77508e-05 0)
(-0.00242244 -6.08876e-05 0)
(-0.00242735 1.68219e-05 0)
(-0.00377313 0.000230551 0)
(-0.00640596 0.000389733 0)
(-0.00910898 0.000408107 0)
(-0.00998851 0.000118762 0)
(-0.00595642 -0.000779611 0)
(0.00239809 -0.001285 0)
(0.00942941 -0.00101648 0)
(0.0116977 -0.000273736 0)
(0.00962562 0.000329898 0)
(0.00542694 0.000540557 0)
(0.00118553 0.000473498 0)
(-0.00197474 0.000317097 0)
(-0.00382668 0.000168615 0)
(-0.00470578 7.4689e-05 0)
(-0.0050205 2.69095e-05 0)
(-0.00508862 1.25695e-05 0)
(-0.00509105 1.3449e-05 0)
(-0.00507147 1.37838e-05 0)
(-0.00497213 7.74636e-07 0)
(-0.00472117 -2.25465e-05 0)
(-0.00432278 -4.28832e-05 0)
(-0.00386569 -4.91724e-05 0)
(-0.00345482 -4.12862e-05 0)
(-0.00314692 -2.75178e-05 0)
(-0.00293427 -1.59344e-05 0)
(-0.00276855 -1.09886e-05 0)
(-0.00259219 -1.37424e-05 0)
(-0.0023578 -2.27969e-05 0)
(-0.00203909 -3.53875e-05 0)
(-0.00163944 -4.74269e-05 0)
(-0.00119759 -5.39559e-05 0)
(-0.000782519 -5.05862e-05 0)
(-0.000473484 -3.65469e-05 0)
(-0.000330511 -1.73021e-05 0)
(-0.000367923 3.54982e-06 0)
(-0.000551233 1.96584e-05 0)
(-0.000820756 2.8391e-05 0)
(-0.00112012 3.02839e-05 0)
(-0.00141255 2.83179e-05 0)
(-0.00168445 2.53521e-05 0)
(-0.00194212 2.35563e-05 0)
(-0.00220722 2.50287e-05 0)
(-0.00251116 3.11554e-05 0)
(-0.0028778 4.07984e-05 0)
(-0.00328695 4.81864e-05 0)
(-0.00363506 4.40939e-05 0)
(-0.00373335 2.06492e-05 0)
(-0.00336596 -3.06625e-05 0)
(-0.00241163 -9.52721e-05 0)
(-0.000976885 -0.000149325 0)
(0.000581831 -0.000155326 0)
(0.00173931 -0.000110195 0)
(0.00206153 -2.53386e-05 0)
(0.00152296 5.58522e-05 0)
(0.000487334 9.16998e-05 0)
(-0.000618794 9.1048e-05 0)
(-0.00152629 6.9959e-05 0)
(-0.0021564 4.63424e-05 0)
(-0.00254836 2.80314e-05 0)
(-0.00277376 1.57217e-05 0)
(-0.00289695 8.1428e-06 0)
(-0.00297187 4.67983e-06 0)
(-0.00304388 4.69374e-06 0)
(-0.00314438 6.67505e-06 0)
(-0.00330046 1.09246e-05 0)
(-0.00356628 2.21794e-05 0)
(-0.00402294 4.24433e-05 0)
(-0.00469241 6.39142e-05 0)
(-0.00544475 7.24207e-05 0)
(-0.0059692 5.60256e-05 0)
(-0.00586077 2.71186e-06 0)
(-0.00483334 -7.53866e-05 0)
(-0.00299021 -0.00014585 0)
(-0.000720038 -0.000189071 0)
(0.00141305 -0.000174482 0)
(0.00288461 -0.000119947 0)
(0.00346609 -4.80312e-05 0)
(0.00318107 2.36572e-05 0)
(0.00228726 6.82184e-05 0)
(0.000975215 9.35875e-05 0)
(-0.000180925 9.72216e-05 0)
(-0.00178796 6.52268e-05 0)
)
;
    }
    bottomWall
    {
        type            calculated;
        value           nonuniform List<vector> 
800
(
(-0.0353512 0.00216563 0)
(-0.0160362 0.000524973 0)
(-0.01059 0.000100565 0)
(-0.00845491 3.46e-05 0)
(-0.00749055 1.96942e-05 0)
(-0.00685456 1.60233e-05 0)
(-0.00634546 1.32233e-05 0)
(-0.00593395 1.07737e-05 0)
(-0.00559907 8.97291e-06 0)
(-0.00532009 7.6731e-06 0)
(-0.00508243 6.68829e-06 0)
(-0.00487665 5.91032e-06 0)
(-0.0046963 5.28026e-06 0)
(-0.00453663 4.76119e-06 0)
(-0.00439406 4.32746e-06 0)
(-0.00426581 3.96049e-06 0)
(-0.00414969 3.64656e-06 0)
(-0.00404397 3.37538e-06 0)
(-0.00394724 3.13912e-06 0)
(-0.00385833 2.93171e-06 0)
(-0.00377629 2.74841e-06 0)
(-0.00370031 2.58541e-06 0)
(-0.00362972 2.43968e-06 0)
(-0.00356393 2.30872e-06 0)
(-0.00350247 2.1905e-06 0)
(-0.00344489 2.08331e-06 0)
(-0.00339083 1.98575e-06 0)
(-0.00333997 1.89664e-06 0)
(-0.00329202 1.81495e-06 0)
(-0.00324674 1.73986e-06 0)
(-0.00320389 1.67062e-06 0)
(-0.0031633 1.60661e-06 0)
(-0.00312477 1.54729e-06 0)
(-0.00308817 1.49218e-06 0)
(-0.00305333 1.44088e-06 0)
(-0.00302014 1.39302e-06 0)
(-0.00298848 1.34829e-06 0)
(-0.00295825 1.3064e-06 0)
(-0.00292936 1.26711e-06 0)
(-0.00290171 1.23019e-06 0)
(-0.00287522 1.19544e-06 0)
(-0.00284984 1.16269e-06 0)
(-0.00282548 1.13181e-06 0)
(-0.00280209 1.10256e-06 0)
(-0.00277961 1.07503e-06 0)
(-0.002758 1.04868e-06 0)
(-0.00273719 1.02417e-06 0)
(-0.00271717 1.00006e-06 0)
(-0.00269785 9.78387e-07 0)
(-0.00267925 9.5526e-07 0)
(-0.0026637 9.36294e-07 0)
(-0.00265086 9.25531e-07 0)
(-0.00263818 9.11754e-07 0)
(-0.0026257 8.97054e-07 0)
(-0.00261341 8.83276e-07 0)
(-0.0026013 8.70166e-07 0)
(-0.00258938 8.57365e-07 0)
(-0.00257763 8.44832e-07 0)
(-0.00256605 8.32594e-07 0)
(-0.00255463 8.20646e-07 0)
(-0.00254338 8.08971e-07 0)
(-0.00253228 7.97556e-07 0)
(-0.00252135 7.86392e-07 0)
(-0.00251056 7.75471e-07 0)
(-0.00249992 7.64785e-07 0)
(-0.00248943 7.54326e-07 0)
(-0.00247908 7.44086e-07 0)
(-0.00246887 7.34059e-07 0)
(-0.0024588 7.24239e-07 0)
(-0.00244886 7.14618e-07 0)
(-0.00243905 7.05193e-07 0)
(-0.00242937 6.95955e-07 0)
(-0.00241982 6.86901e-07 0)
(-0.00241038 6.78026e-07 0)
(-0.00240107 6.69324e-07 0)
(-0.00239188 6.6079e-07 0)
(-0.00238281 6.52421e-07 0)
(-0.00237385 6.44211e-07 0)
(-0.002365 6.36158e-07 0)
(-0.00235626 6.28255e-07 0)
(-0.00234763 6.205e-07 0)
(-0.0023391 6.12889e-07 0)
(-0.00233068 6.05418e-07 0)
(-0.00232236 5.98083e-07 0)
(-0.00231414 5.90881e-07 0)
(-0.00230602 5.8381e-07 0)
(-0.00229799 5.76865e-07 0)
(-0.00229006 5.70044e-07 0)
(-0.00228223 5.63343e-07 0)
(-0.00227448 5.5676e-07 0)
(-0.00226682 5.50293e-07 0)
(-0.00225925 5.43938e-07 0)
(-0.00225177 5.37693e-07 0)
(-0.00224438 5.31556e-07 0)
(-0.00223707 5.25525e-07 0)
(-0.00222984 5.19597e-07 0)
(-0.00222269 5.1377e-07 0)
(-0.00221562 5.08042e-07 0)
(-0.00220863 5.02412e-07 0)
(-0.00220171 4.96876e-07 0)
(-0.00219487 4.91434e-07 0)
(-0.00218811 4.86083e-07 0)
(-0.00218142 4.80822e-07 0)
(-0.0021748 4.75649e-07 0)
(-0.00216825 4.70561e-07 0)
(-0.00216177 4.65557e-07 0)
(-0.00215536 4.60635e-07 0)
(-0.00214902 4.55793e-07 0)
(-0.00214274 4.5103e-07 0)
(-0.00213653 4.46343e-07 0)
(-0.00213038 4.41732e-07 0)
(-0.0021243 4.37193e-07 0)
(-0.00211827 4.32727e-07 0)
(-0.00211231 4.28331e-07 0)
(-0.00210641 4.24004e-07 0)
(-0.00210057 4.19744e-07 0)
(-0.00209479 4.1555e-07 0)
(-0.00208906 4.11422e-07 0)
(-0.00208339 4.07357e-07 0)
(-0.00207778 4.03355e-07 0)
(-0.00207222 3.99415e-07 0)
(-0.00206671 3.95535e-07 0)
(-0.00206126 3.91715e-07 0)
(-0.00205586 3.87953e-07 0)
(-0.00205051 3.8425e-07 0)
(-0.00204522 3.80603e-07 0)
(-0.00203997 3.77012e-07 0)
(-0.00203477 3.73477e-07 0)
(-0.00202962 3.69995e-07 0)
(-0.00202452 3.66565e-07 0)
(-0.00201946 3.63188e-07 0)
(-0.00201446 3.59863e-07 0)
(-0.00200949 3.56588e-07 0)
(-0.00200457 3.53361e-07 0)
(-0.0019997 3.50184e-07 0)
(-0.00199487 3.47053e-07 0)
(-0.00199008 3.43972e-07 0)
(-0.00198534 3.40935e-07 0)
(-0.00198064 3.37948e-07 0)
(-0.00197597 3.34998e-07 0)
(-0.00197135 3.32105e-07 0)
(-0.00196677 3.29237e-07 0)
(-0.00196223 3.26439e-07 0)
(-0.00195773 3.23641e-07 0)
(-0.00195326 3.20946e-07 0)
(-0.00194883 3.182e-07 0)
(-0.00194444 3.15622e-07 0)
(-0.00194009 3.12895e-07 0)
(-0.00193577 3.10424e-07 0)
(-0.00193149 3.07631e-07 0)
(-0.0019279 3.05153e-07 0)
(-0.00192496 3.03882e-07 0)
(-0.00192202 3.02335e-07 0)
(-0.00191907 3.00544e-07 0)
(-0.00191613 2.9878e-07 0)
(-0.00191317 2.97056e-07 0)
(-0.00191022 2.95371e-07 0)
(-0.00190726 2.93686e-07 0)
(-0.00190429 2.92005e-07 0)
(-0.00190133 2.90334e-07 0)
(-0.00189835 2.88669e-07 0)
(-0.00189538 2.87012e-07 0)
(-0.0018924 2.85371e-07 0)
(-0.00188942 2.83723e-07 0)
(-0.00188644 2.82096e-07 0)
(-0.00188345 2.80469e-07 0)
(-0.00188045 2.78851e-07 0)
(-0.00187746 2.77238e-07 0)
(-0.00187446 2.75634e-07 0)
(-0.00187146 2.74039e-07 0)
(-0.00186845 2.72451e-07 0)
(-0.00186544 2.70872e-07 0)
(-0.00186243 2.69308e-07 0)
(-0.00185941 2.67739e-07 0)
(-0.00185639 2.66192e-07 0)
(-0.00185337 2.64644e-07 0)
(-0.00185034 2.63106e-07 0)
(-0.00184731 2.61577e-07 0)
(-0.00184428 2.60056e-07 0)
(-0.00184124 2.58545e-07 0)
(-0.0018382 2.5705e-07 0)
(-0.00183516 2.55552e-07 0)
(-0.00183211 2.54073e-07 0)
(-0.00182906 2.52597e-07 0)
(-0.00182601 2.51132e-07 0)
(-0.00182295 2.49678e-07 0)
(-0.0018199 2.48229e-07 0)
(-0.00181683 2.46788e-07 0)
(-0.00181377 2.45365e-07 0)
(-0.0018107 2.43935e-07 0)
(-0.00180762 2.4253e-07 0)
(-0.00180454 2.41123e-07 0)
(-0.00180146 2.39725e-07 0)
(-0.00179838 2.38337e-07 0)
(-0.00179529 2.3696e-07 0)
(-0.0017922 2.35592e-07 0)
(-0.00178911 2.34229e-07 0)
(-0.00178601 2.32877e-07 0)
(-0.00178291 2.31545e-07 0)
(-0.00177981 2.30206e-07 0)
(-0.0017767 2.28891e-07 0)
(-0.00177359 2.27577e-07 0)
(-0.00177047 2.26277e-07 0)
(-0.00176735 2.24988e-07 0)
(-0.00176423 2.23706e-07 0)
(-0.0017611 2.22436e-07 0)
(-0.00175797 2.21188e-07 0)
(-0.00175484 2.19934e-07 0)
(-0.0017517 2.18713e-07 0)
(-0.00174856 2.17489e-07 0)
(-0.00174541 2.1628e-07 0)
(-0.00174226 2.15086e-07 0)
(-0.00173911 2.13896e-07 0)
(-0.00173595 2.1273e-07 0)
(-0.00173279 2.11594e-07 0)
(-0.00172962 2.1044e-07 0)
(-0.00172644 2.09331e-07 0)
(-0.00172327 2.08215e-07 0)
(-0.00172008 2.07122e-07 0)
(-0.00171689 2.06041e-07 0)
(-0.0017137 2.04979e-07 0)
(-0.0017105 2.03937e-07 0)
(-0.0017073 2.02902e-07 0)
(-0.00170409 2.01903e-07 0)
(-0.00170087 2.00922e-07 0)
(-0.00169765 1.99953e-07 0)
(-0.00169442 1.98993e-07 0)
(-0.00169118 1.98098e-07 0)
(-0.00168794 1.97113e-07 0)
(-0.00168468 1.96352e-07 0)
(-0.00168143 1.95267e-07 0)
(-0.00167816 1.94747e-07 0)
(-0.00167489 1.93436e-07 0)
(-0.0016716 1.93441e-07 0)
(-0.00166833 1.91406e-07 0)
(-0.00166499 1.92672e-07 0)
(-0.00166174 1.88835e-07 0)
(-0.00165833 1.93029e-07 0)
(-0.00165513 1.84934e-07 0)
(-0.0016516 1.95751e-07 0)
(-0.00164852 1.77968e-07 0)
(-0.00164474 2.0347e-07 0)
(-0.00164195 1.64355e-07 0)
(-0.0016377 2.21242e-07 0)
(-0.00163549 1.37422e-07 0)
(-0.00163038 2.57494e-07 0)
(-0.0016292 8.65523e-08 0)
(-0.00162277 3.21635e-07 0)
(-0.00162307 6.1972e-09 0)
(-0.00161491 3.53714e-07 0)
(-0.0353513 -0.00216562 0)
(-0.0160368 -0.000524947 0)
(-0.0105914 -0.000100534 0)
(-0.00845717 -3.45698e-05 0)
(-0.00749376 -1.96631e-05 0)
(-0.00685876 -1.59913e-05 0)
(-0.00635064 -1.31908e-05 0)
(-0.00594011 -1.07408e-05 0)
(-0.0056062 -8.93924e-06 0)
(-0.00532821 -7.63823e-06 0)
(-0.00509156 -6.65164e-06 0)
(-0.00488686 -5.87125e-06 0)
(-0.00470764 -5.23816e-06 0)
(-0.00454919 -4.71557e-06 0)
(-0.00440793 -4.27792e-06 0)
(-0.00428107 -3.90672e-06 0)
(-0.00416645 -3.58828e-06 0)
(-0.00406233 -3.3123e-06 0)
(-0.00396728 -3.07088e-06 0)
(-0.00388018 -2.85786e-06 0)
(-0.00380006 -2.66837e-06 0)
(-0.00372612 -2.4985e-06 0)
(-0.00365772 -2.34509e-06 0)
(-0.00359427 -2.20552e-06 0)
(-0.00353532 -2.0776e-06 0)
(-0.00348044 -1.95947e-06 0)
(-0.0034293 -1.84951e-06 0)
(-0.00338159 -1.74634e-06 0)
(-0.00333707 -1.64858e-06 0)
(-0.00329552 -1.5552e-06 0)
(-0.00325676 -1.4648e-06 0)
(-0.00322064 -1.3767e-06 0)
(-0.00318705 -1.28912e-06 0)
(-0.0031559 -1.20184e-06 0)
(-0.00312711 -1.11233e-06 0)
(-0.00310068 -1.02076e-06 0)
(-0.00307654 -9.23956e-07 0)
(-0.00305485 -8.20872e-07 0)
(-0.00303537 -7.1105e-07 0)
(-0.00301883 -5.83808e-07 0)
(-0.00300418 -4.57233e-07 0)
(-0.00299383 -2.79014e-07 0)
(-0.00298415 -1.42349e-07 0)
(-0.00298227 1.5394e-07 0)
(-0.00297727 2.4752e-07 0)
(-0.00298863 8.40395e-07 0)
(-0.00298707 6.33864e-07 0)
(-0.00301888 2.46314e-06 0)
(-0.00303498 -5.73902e-06 0)
(-0.00283056 0.000213406 0)
(-4.83016e-05 2.73011e-05 0)
(-5.09189e-05 0.000122453 0)
(-5.45277e-05 0.000211731 0)
(-6.01826e-05 0.000306132 0)
(-6.68968e-05 0.000405042 0)
(-7.20968e-05 0.000506636 0)
(-7.30915e-05 0.000606061 0)
(-6.73128e-05 0.0006959 0)
(-5.2643e-05 0.000766177 0)
(-2.84865e-05 0.000806004 0)
(2.414e-06 0.000806023 0)
(3.55809e-05 0.000763083 0)
(6.67333e-05 0.000680046 0)
(9.29636e-05 0.000563334 0)
(0.000112437 0.000421897 0)
(0.000124817 0.000265839 0)
(0.000130725 0.000101989 0)
(0.00012636 -6.40457e-05 0)
(0.000116351 -0.000217542 0)
(0.000103743 -0.000357166 0)
(8.92224e-05 -0.000481107 0)
(7.51159e-05 -0.000588304 0)
(6.30997e-05 -0.000680508 0)
(5.5047e-05 -0.000761642 0)
(5.24057e-05 -0.000837107 0)
(5.64073e-05 -0.000913564 0)
(6.75e-05 -0.000997895 0)
(8.51183e-05 -0.00109664 0)
(0.000107722 -0.00121521 0)
(0.000133161 -0.00135689 0)
(0.00015912 -0.00152253 0)
(0.000183411 -0.00171078 0)
(0.000204155 -0.00191852 0)
(0.000219951 -0.00214134 0)
(0.000229983 -0.00237398 0)
(0.000234034 -0.00261087 0)
(0.000232378 -0.00284666 0)
(0.000225575 -0.00307669 0)
(0.000214209 -0.00329706 0)
(0.000198834 -0.00350453 0)
(0.00018018 -0.00369647 0)
(0.000158902 -0.00387115 0)
(0.000134733 -0.00402723 0)
(0.000107613 -0.00416287 0)
(7.84417e-05 -0.0042772 0)
(4.57752e-05 -0.00436978 0)
(8.6195e-06 -0.00443765 0)
(-3.27152e-05 -0.00448089 0)
(-8.14843e-05 -0.00449667 0)
(-0.000140494 -0.00447885 0)
(-0.000210548 -0.00442468 0)
(-0.000293313 -0.00432921 0)
(-0.000390695 -0.00418546 0)
(-0.000502735 -0.00398701 0)
(-0.000630793 -0.00372644 0)
(-0.000771483 -0.00339112 0)
(-0.000911584 -0.002978 0)
(-0.00104836 -0.00246904 0)
(-0.00111673 -0.0018237 0)
(-0.000967362 -0.00111077 0)
(-0.0005899 -0.000501125 0)
(-0.000150596 -8.15177e-05 0)
(0.000204988 0.000172233 0)
(0.000429627 0.000298123 0)
(0.000533861 0.000338517 0)
(0.00053294 0.000327051 0)
(0.000449196 0.000288956 0)
(0.000327175 0.000249087 0)
(0.000196787 0.000210522 0)
(8.17766e-05 0.000183596 0)
(-1.86357e-06 0.000167546 0)
(-4.63365e-05 0.000157299 0)
(-5.51673e-05 0.000143261 0)
(-3.86926e-05 0.000119767 0)
(-7.43398e-06 8.49371e-05 0)
(2.67573e-05 4.05372e-05 0)
(5.77568e-05 -9.50254e-06 0)
(8.33573e-05 -6.354e-05 0)
(0.000101339 -0.000121161 0)
(0.000109072 -0.000179182 0)
(0.000107452 -0.000233262 0)
(9.95334e-05 -0.000280775 0)
(8.81128e-05 -0.000321072 0)
(7.45655e-05 -0.000354007 0)
(5.95612e-05 -0.00037908 0)
(4.35943e-05 -0.000395473 0)
(2.69805e-05 -0.000402778 0)
(9.65418e-06 -0.000400896 0)
(-8.64914e-06 -0.00039006 0)
(-2.80266e-05 -0.0003706 0)
(-4.82532e-05 -0.000342979 0)
(-6.82222e-05 -0.0003077 0)
(-8.54089e-05 -0.0002659 0)
(-9.6336e-05 -0.000220221 0)
(-9.80969e-05 -0.000175247 0)
(-9.02468e-05 -0.000136248 0)
(-7.52194e-05 -0.000107064 0)
(-5.70156e-05 -8.90458e-05 0)
(-3.98626e-05 -8.11702e-05 0)
(-2.69565e-05 -8.05334e-05 0)
(-1.99706e-05 -8.34273e-05 0)
(-1.89393e-05 -8.62604e-05 0)
(-2.25952e-05 -8.60796e-05 0)
(-2.87649e-05 -8.14411e-05 0)
(-3.52879e-05 -7.21056e-05 0)
(-4.00874e-05 -5.87368e-05 0)
(-4.11494e-05 -4.25395e-05 0)
(-3.69703e-05 -2.53052e-05 0)
(-2.74315e-05 -8.40779e-06 0)
(-1.50268e-05 8.9558e-06 0)
(-1.8877e-06 3.19715e-05 0)
(1.31445e-05 6.44801e-05 0)
(2.92818e-05 0.000101168 0)
(3.48718e-05 0.000131824 0)
(8.72995e-06 0.000152567 0)
(-6.93357e-05 0.000176756 0)
(-0.000199996 0.000237152 0)
(-0.000340209 0.000362333 0)
(-0.000434494 0.000543405 0)
(-0.00046299 0.00072551 0)
(-0.000454048 0.000874886 0)
(-0.000434542 0.000999752 0)
(-0.000410201 0.00111267 0)
(-0.000382085 0.00121453 0)
(-0.000352219 0.00130522 0)
(-0.000321389 0.00138564 0)
(-0.000290062 0.00145606 0)
(-0.000258656 0.00151676 0)
(-0.000227401 0.00156811 0)
(-0.000196488 0.00161042 0)
(-0.000166084 0.00164401 0)
(-0.00013635 0.00166921 0)
(-0.000107435 0.0016864 0)
(-7.94243e-05 0.00169597 0)
(-5.23331e-05 0.00169828 0)
(-2.6702e-05 0.00169361 0)
(-2.36508e-06 0.00168314 0)
(2.11064e-05 0.00166685 0)
(4.35311e-05 0.00164523 0)
(6.50575e-05 0.00161856 0)
(8.57125e-05 0.00158719 0)
(0.000105586 0.00155142 0)
(0.00012475 0.00151155 0)
(0.000143289 0.00146783 0)
(0.000161284 0.0014205 0)
(0.000178813 0.00136978 0)
(0.000195951 0.00131583 0)
(0.00021276 0.00125881 0)
(0.00022929 0.00119886 0)
(0.00024557 0.00113608 0)
(0.000261611 0.00107057 0)
(0.000277393 0.00100242 0)
(0.000292872 0.000931704 0)
(0.000307968 0.000858514 0)
(0.000322568 0.000782935 0)
(0.000336522 0.000705067 0)
(0.000349642 0.000625025 0)
(0.000361698 0.000542949 0)
(0.000372423 0.000459015 0)
(0.000381512 0.000373451 0)
(0.000388631 0.000286562 0)
(0.000393441 0.00019875 0)
(0.000395623 0.000110523 0)
(0.000394849 2.24915e-05 0)
(0.000390881 -6.46322e-05 0)
(0.000383614 -0.000150114 0)
(0.000372961 -0.000233214 0)
(0.000358911 -0.000313207 0)
(0.000341553 -0.000389468 0)
(0.000321026 -0.000461427 0)
(0.000297513 -0.000528593 0)
(0.000271225 -0.000590551 0)
(0.000242395 -0.000646941 0)
(0.000211267 -0.000697452 0)
(0.000178105 -0.000741818 0)
(0.000143188 -0.000779817 0)
(0.00010681 -0.000811272 0)
(6.92859e-05 -0.000836044 0)
(3.09443e-05 -0.000854054 0)
(-7.73646e-06 -0.000865281 0)
(-4.67299e-05 -0.000869778 0)
(-8.5712e-05 -0.000867228 0)
(-0.000123838 -0.000857737 0)
(-0.000160564 -0.000841415 0)
(-0.000195349 -0.000818445 0)
(-0.000227592 -0.000789144 0)
(-0.000256709 -0.000753884 0)
(-0.000282125 -0.000713033 0)
(-0.000303223 -0.000666999 0)
(-0.000319348 -0.000616281 0)
(-0.000329839 -0.000561516 0)
(-0.000334105 -0.000503696 0)
(-0.000331825 -0.000444755 0)
(-0.000323522 -0.000388924 0)
(-0.000311901 -0.000345264 0)
(-0.000304574 -0.000331416 0)
(-0.000319496 -0.00037742 0)
(-0.000392262 -0.000523255 0)
(-0.000574229 -0.000800987 0)
(-0.000872775 -0.00118639 0)
(6.69316e-06 5.82241e-05 0)
(-7.72442e-05 9.2553e-05 0)
(-0.000171755 0.000104974 0)
(-0.000265691 0.000108429 0)
(-0.000361353 0.000110417 0)
(-0.000458731 0.00011124 0)
(-0.000556657 0.000110406 0)
(-0.000653427 0.000107644 0)
(-0.000747263 0.000103212 0)
(-0.000836917 9.76924e-05 0)
(-0.000921605 9.15538e-05 0)
(-0.00100101 8.54739e-05 0)
(-0.0010756 7.98478e-05 0)
(-0.00114568 7.45772e-05 0)
(-0.00121158 7.04548e-05 0)
(-0.00127497 6.84591e-05 0)
(-0.00133792 6.81464e-05 0)
(-0.00140127 6.95798e-05 0)
(-0.00146641 7.43879e-05 0)
(-0.00153672 8.30657e-05 0)
(-0.00161509 9.41744e-05 0)
(-0.00170169 0.000106416 0)
(-0.00179678 0.000121394 0)
(-0.00190415 0.000141724 0)
(-0.00203023 0.000167729 0)
(-0.00218019 0.000194959 0)
(-0.00235279 0.000216244 0)
(-0.00253941 0.000227776 0)
(-0.0027299 0.000230868 0)
(-0.00291785 0.000227943 0)
(-0.00309998 0.000218685 0)
(-0.00327223 0.000199673 0)
(-0.00342703 0.000165762 0)
(-0.00355233 0.000111478 0)
(-0.00363184 3.50929e-05 0)
(-0.00365344 -6.78194e-05 0)
(-0.00359006 -0.000199297 0)
(-0.0034264 -0.000351712 0)
(-0.00314966 -0.000520612 0)
(-0.00274908 -0.000697789 0)
(-0.00222135 -0.000868908 0)
(-0.00156918 -0.00101392 0)
(-0.000783377 -0.00108967 0)
(0.000111198 -0.000981184 0)
(0.000924277 -0.000587268 0)
(0.00127834 -0.000117443 0)
(0.00128214 8.29335e-05 0)
(0.00128725 7.39549e-05 0)
(0.00131195 -2.46341e-05 0)
(0.00138899 -8.65114e-05 0)
(0.00146554 -5.75495e-05 0)
(0.00148343 1.07747e-05 0)
(0.00145709 5.09797e-05 0)
(0.00142774 5.85976e-05 0)
(0.00140403 6.27966e-05 0)
(0.0013726 7.56799e-05 0)
(0.00132835 9.20429e-05 0)
(0.00127726 0.0001081 0)
(0.00123094 0.000123766 0)
(0.00120506 0.000136925 0)
(0.00121457 0.000132851 0)
(0.0012726 7.53036e-05 0)
(0.0014067 -9.56592e-05 0)
(0.00166411 -0.000402366 0)
(0.00208278 -0.000682054 0)
(0.00259489 -0.00066814 0)
(0.00290369 -0.000348529 0)
(0.0028882 -5.55596e-05 0)
(0.0027749 5.15427e-05 0)
(0.00266895 0.000101215 0)
(0.00252909 0.00017055 0)
(0.00234554 0.000214755 0)
(0.00216357 0.000209236 0)
(0.0020128 0.000176757 0)
(0.00189615 0.000140045 0)
(0.00180694 0.000109008 0)
(0.00173546 8.80718e-05 0)
(0.00167032 7.89337e-05 0)
(0.00160124 8.0347e-05 0)
(0.00152174 8.88292e-05 0)
(0.00142988 0.000100149 0)
(0.00132732 0.00011069 0)
(0.00121744 0.000118336 0)
(0.00110384 0.000122439 0)
(0.000989548 0.000123227 0)
(0.000876899 0.000121177 0)
(0.000767771 0.000116655 0)
(0.000663847 0.000109883 0)
(0.000566752 0.0001012 0)
(0.000477755 9.14469e-05 0)
(0.000397126 8.22499e-05 0)
(0.000323365 7.58975e-05 0)
(0.000252659 7.4492e-05 0)
(0.000180123 7.80576e-05 0)
(0.000101872 8.31081e-05 0)
(1.71823e-05 8.18987e-05 0)
(-6.60046e-05 6.27566e-05 0)
(-0.000122493 1.38355e-05 0)
(-0.00011537 -5.23895e-05 0)
(-1.42098e-05 -8.78781e-05 0)
(-9.24585e-05 -3.74476e-05 0)
(-9.02819e-05 -0.000165155 0)
(-8.05761e-05 -0.00025915 0)
(-7.9471e-05 -0.000332869 0)
(-8.47817e-05 -0.000397351 0)
(-8.76511e-05 -0.000465342 0)
(-9.28106e-05 -0.000558565 0)
(-0.000118819 -0.000700039 0)
(-0.000165678 -0.000910134 0)
(-0.000216057 -0.00119267 0)
(-0.000250912 -0.00153033 0)
(-0.000256006 -0.00189265 0)
(-0.000221627 -0.0022399 0)
(-0.000143907 -0.00252501 0)
(-2.84418e-05 -0.00270133 0)
(0.000123017 -0.00274058 0)
(0.000304998 -0.00260246 0)
(0.000492666 -0.00227275 0)
(0.000658277 -0.00175088 0)
(0.000757785 -0.00106136 0)
(0.000689968 -0.000259501 0)
(0.000332528 0.000436384 0)
(-2.64379e-05 0.000723112 0)
(-8.29306e-05 0.000725493 0)
(-9.62573e-05 0.000696026 0)
(-0.000227706 0.000559921 0)
(-0.000396716 0.000232022 0)
(-0.000488927 -0.000267429 0)
(-0.000428936 -0.00075065 0)
(-0.000306373 -0.00108576 0)
(-0.000214836 -0.00129621 0)
(-0.000145288 -0.00142618 0)
(-8.94564e-05 -0.00150384 0)
(-2.29226e-05 -0.00157033 0)
(7.908e-05 -0.00162079 0)
(0.000221281 -0.00162288 0)
(0.000399805 -0.00152574 0)
(0.000544187 -0.00128273 0)
(0.000549974 -0.000933001 0)
(0.000381172 -0.000598712 0)
(0.000112842 -0.000388526 0)
(-0.000124588 -0.000310237 0)
(-0.000250332 -0.000322163 0)
(-0.000265153 -0.000346185 0)
(-0.000209317 -0.000347284 0)
(-0.000110603 -0.000297305 0)
(-1.16163e-05 -0.000199145 0)
(4.9075e-05 -9.40671e-05 0)
(7.21903e-05 -1.13118e-05 0)
(7.43282e-05 0.000121936 0)
(3.86133e-05 0.000342329 0)
(-3.08657e-05 0.000567918 0)
(-5.03e-05 0.000733205 0)
(0.000101068 0.000875053 0)
(0.00051041 0.00112866 0)
(0.000961457 0.00158958 0)
(0.00100732 0.00228598 0)
(0.00055131 0.00273756 0)
(0.000239669 0.00275007 0)
(0.000285808 0.00280197 0)
(0.000262091 0.00297973 0)
(0.000120826 0.0030691 0)
(8.50927e-05 0.00307961 0)
(9.26695e-05 0.00312963 0)
(4.79607e-05 0.00317854 0)
(2.09872e-05 0.00319036 0)
(2.72423e-05 0.0032082 0)
(2.10474e-05 0.00323625 0)
(1.38985e-05 0.00325371 0)
(2.24546e-05 0.00327071 0)
(3.15173e-05 0.00329519 0)
(3.85595e-05 0.00331911 0)
(5.09175e-05 0.00334274 0)
(6.40271e-05 0.00336995 0)
(7.37484e-05 0.0033977 0)
(8.1241e-05 0.00342401 0)
(8.44817e-05 0.00344897 0)
(8.10467e-05 0.00347017 0)
(7.17617e-05 0.00348509 0)
(5.76502e-05 0.00349282 0)
(3.98332e-05 0.00349237 0)
(2.0742e-05 0.0034836 0)
(1.86122e-06 0.00346805 0)
(-1.65404e-05 0.00344679 0)
(-3.37929e-05 0.00342065 0)
(-4.91987e-05 0.00339094 0)
(-6.25057e-05 0.00335904 0)
(-7.3588e-05 0.00332617 0)
(-8.231e-05 0.0032935 0)
(-8.85948e-05 0.00326209 0)
(-9.23704e-05 0.00323287 0)
(-9.34962e-05 0.00320658 0)
(-9.17377e-05 0.00318377 0)
(-8.67242e-05 0.00316484 0)
(-7.79056e-05 0.00315008 0)
(-6.46821e-05 0.00313977 0)
(-4.63279e-05 0.00313411 0)
(-2.1834e-05 0.00313342 0)
(9.61057e-06 0.00313894 0)
(4.74903e-05 0.00315239 0)
(8.96794e-05 0.00317527 0)
(0.000132755 0.00320812 0)
(0.00017279 0.00325028 0)
(0.000205957 0.00330009 0)
(0.000228713 0.0033552 0)
(0.00023799 0.00341241 0)
(0.000231874 0.00346753 0)
(0.000210632 0.00351562 0)
(0.000177512 0.00355214 0)
(0.00013799 0.00357457 0)
(9.77826e-05 0.00358329 0)
(6.07912e-05 0.00358065 0)
(2.90386e-05 0.00356926 0)
(2.99285e-06 0.00355201 0)
(-1.83293e-05 0.00353074 0)
(-3.58732e-05 0.00350641 0)
(-5.03398e-05 0.0034797 0)
(-6.23356e-05 0.00345124 0)
(-7.242e-05 0.00342154 0)
(-8.10614e-05 0.00339094 0)
(-8.86198e-05 0.00335969 0)
(-9.54091e-05 0.00332803 0)
(-0.00010174 0.00329612 0)
(-0.000107896 0.00326404 0)
(-0.000114089 0.00323179 0)
(-0.00012043 0.00319935 0)
(-0.000126949 0.00316676 0)
(-0.000133594 0.00313405 0)
(-0.000140207 0.00310131 0)
(-0.000146505 0.00306871 0)
(-0.000152048 0.00303651 0)
(-0.000156214 0.00300509 0)
(-0.000158242 0.002975 0)
(-0.00015719 0.00294693 0)
(-0.000151741 0.00292176 0)
(-0.000140106 0.00290053 0)
(-0.000120569 0.0028841 0)
(-9.04744e-05 0.00287311 0)
(-4.58046e-05 0.00286943 0)
(1.72246e-05 0.00287576 0)
(0.000102531 0.00289474 0)
(0.000214335 0.00293127 0)
(0.000354364 0.00299247 0)
(0.000517397 0.00308572 0)
(0.000687516 0.00321988 0)
(0.000841471 0.00340609 0)
(0.000957341 0.00364057 0)
(0.00102325 0.00389441 0)
(0.00104457 0.00413978 0)
(0.00103608 0.00436684 0)
(0.00100835 0.00457957 0)
(0.000964144 0.00478188 0)
(0.000904361 0.00497026 0)
(0.000832469 0.0051398 0)
(0.000752619 0.00528979 0)
(0.000666925 0.00542165 0)
(0.000576101 0.00553546 0)
(0.000481231 0.00563027 0)
(0.000383672 0.00570594 0)
(0.000283731 0.00576298 0)
(0.000181117 0.00580103 0)
(7.76144e-05 0.00581918 0)
(-2.3847e-05 0.00581821 0)
(-0.000122188 0.00580124 0)
(-0.000220321 0.00577077 0)
(-0.000319293 0.00572524 0)
(-0.000417842 0.00566526 0)
(-0.000516634 0.00559164 0)
(-0.000615793 0.00550437 0)
(-0.000715314 0.00540399 0)
(-0.000815549 0.00529105 0)
(-0.000916729 0.00516593 0)
(-0.00101917 0.00502921 0)
(-0.00112328 0.00488142 0)
(-0.00122954 0.00472305 0)
(-0.0013385 0.00455458 0)
(-0.00145082 0.00437641 0)
(-0.00156723 0.00418872 0)
(-0.00168855 0.00399151 0)
(-0.00181559 0.00378442 0)
(-0.00194913 0.00356679 0)
(-0.00208986 0.00333761 0)
(-0.00223829 0.0030957 0)
(-0.00239478 0.00283982 0)
(-0.00255952 0.00256894 0)
(-0.00273267 0.0022824 0)
(-0.00291453 0.00198002 0)
(-0.0031058 0.00166208 0)
(-0.0033067 0.00132922 0)
(-0.0035117 0.000982679 0)
(-0.0037361 0.000627262 0)
(-0.00399225 0.000255387 0)
(-0.00425971 -0.000134679 0)
(-0.0045415 -0.000533893 0)
(-0.00485766 -0.000960276 0)
(-0.0051971 -0.00134725 0)
(-0.00561263 -0.00191375 0)
(-0.00592694 -0.00211339 0)
(-0.00651657 -0.00316471 0)
(-0.00620947 -0.00242429 0)
)
;
    }
    frontAndBack
    {
        type            empty;
    }
}


// ************************************************************************* //
