/*--------------------------------*- C++ -*----------------------------------*\
  =========                 |
  \\      /  F ield         | OpenFOAM: The Open Source CFD Toolbox
   \\    /   O peration     | Website:  https://openfoam.org
    \\  /    A nd           | Version:  7
     \\/     M anipulation  |
\*---------------------------------------------------------------------------*/
FoamFile
{
    version     2.0;
    format      ascii;
    class       surfaceScalarField;
    location    "0.35";
    object      ddtCorrDdt0(phi);
}
// * * * * * * * * * * * * * * * * * * * * * * * * * * * * * * * * * * * * * //

dimensions      [0 3 -2 0 0 0 0];

internalField   nonuniform List<scalar> 
139350
(
-2.00472e-10
2.00867e-10
-6.03908e-10
4.04213e-10
-1.13761e-09
5.34685e-10
-1.68175e-09
5.44938e-10
-2.17099e-09
4.90071e-10
-2.58185e-09
4.11602e-10
-2.92126e-09
3.40107e-10
-3.22079e-09
2.99942e-10
-3.51481e-09
2.94697e-10
-3.82924e-09
3.14491e-10
-4.17606e-09
3.47586e-10
-4.55977e-09
3.83912e-10
-4.97544e-09
4.16333e-10
-5.41522e-09
4.40387e-10
-5.87061e-09
4.55452e-10
-6.33176e-09
4.62363e-10
-6.79679e-09
4.64218e-10
-7.25839e-09
4.63952e-10
-7.72336e-09
4.64098e-10
-8.18729e-09
4.66739e-10
-8.65913e-09
4.72005e-10
-9.1385e-09
4.81305e-10
-9.63224e-09
4.94104e-10
-1.01411e-08
5.10754e-10
-1.0675e-08
5.33056e-10
-1.12325e-08
5.61057e-10
-1.18304e-08
5.96735e-10
-1.24683e-08
6.42094e-10
-1.31667e-08
6.98581e-10
-1.39336e-08
7.69772e-10
-1.47927e-08
8.59792e-10
-1.57616e-08
9.71622e-10
-1.68799e-08
1.11784e-09
-1.81724e-08
1.2973e-09
-1.97108e-08
1.53765e-09
-2.15369e-08
1.83182e-09
-2.3773e-08
2.23695e-09
-2.65021e-08
2.73316e-09
-2.99286e-08
3.42885e-09
-3.42309e-08
4.30542e-09
-3.9731e-08
5.50195e-09
-4.68677e-08
7.14175e-09
-5.60641e-08
9.19697e-09
-6.8435e-08
1.23802e-08
-8.4438e-08
1.60039e-08
-1.06727e-07
2.22998e-08
-1.35368e-07
2.86437e-08
-1.7955e-07
4.41883e-08
-2.19309e-07
3.97566e-08
1.95437e-07
-4.14744e-07
-2.88011e-10
4.89357e-10
-1.18019e-09
1.29724e-09
-2.55924e-09
1.91479e-09
-4.02434e-09
2.01091e-09
-5.29685e-09
1.76348e-09
-6.29562e-09
1.41117e-09
-7.05689e-09
1.10212e-09
-7.68415e-09
9.27635e-10
-8.28939e-09
9.00665e-10
-8.95427e-09
9.79435e-10
-9.71741e-09
1.11156e-09
-1.05854e-08
1.2521e-09
-1.15389e-08
1.37056e-09
-1.25487e-08
1.45086e-09
-1.35851e-08
1.49189e-09
-1.46214e-08
1.50005e-09
-1.56446e-08
1.48652e-09
-1.66411e-08
1.46305e-09
-1.76151e-08
1.43724e-09
-1.85613e-08
1.41592e-09
-1.94889e-08
1.39985e-09
-2.03983e-08
1.39273e-09
-2.1298e-08
1.39408e-09
-2.21909e-08
1.40579e-09
-2.30906e-08
1.43179e-09
-2.40003e-08
1.47468e-09
-2.49429e-08
1.53815e-09
-2.59249e-08
1.62854e-09
-2.69752e-08
1.74924e-09
-2.81115e-08
1.90909e-09
-2.93692e-08
2.11814e-09
-3.07809e-08
2.38639e-09
-3.24047e-08
2.74104e-09
-3.42917e-08
3.18964e-09
-3.65463e-08
3.7914e-09
-3.92621e-08
4.55374e-09
-4.26247e-08
5.60064e-09
-4.68198e-08
6.93257e-09
-5.21868e-08
8.7984e-09
-5.90955e-08
1.12174e-08
-6.81767e-08
1.4585e-08
-8.02234e-08
1.91942e-08
-9.63141e-08
2.52882e-08
-1.18474e-07
3.45506e-08
-1.47838e-07
4.5369e-08
-1.91294e-07
6.57674e-08
-2.44807e-07
8.21591e-08
-3.40229e-07
1.39617e-07
-4.35566e-07
1.35091e-07
4.24251e-07
-6.6438e-07
-1.96907e-10
6.8681e-10
-1.14274e-09
2.24398e-09
-2.9203e-09
3.69347e-09
-5.06284e-09
4.15437e-09
-7.03049e-09
3.73208e-09
-8.56681e-09
2.94833e-09
-9.66901e-09
2.20511e-09
-1.0481e-08
1.74006e-09
-1.11884e-08
1.60884e-09
-1.1944e-08
1.73506e-09
-1.28332e-08
2.00174e-09
-1.38816e-08
2.30072e-09
-1.50664e-08
2.55611e-09
-1.63428e-08
2.72793e-09
-1.76617e-08
2.81081e-09
-1.89791e-08
2.81897e-09
-2.02688e-08
2.77525e-09
-2.15074e-08
2.70443e-09
-2.26922e-08
2.62116e-09
-2.38119e-08
2.53877e-09
-2.48709e-08
2.45913e-09
-2.58653e-08
2.38924e-09
-2.68008e-08
2.32991e-09
-2.7679e-08
2.28629e-09
-2.85139e-08
2.26555e-09
-2.93099e-08
2.27487e-09
-3.00926e-08
2.31976e-09
-3.08715e-08
2.41199e-09
-3.1678e-08
2.55623e-09
-3.25325e-08
2.76673e-09
-3.34716e-08
3.05787e-09
-3.45304e-08
3.44853e-09
-3.57659e-08
3.97579e-09
-3.72351e-08
4.66463e-09
-3.90378e-08
5.59329e-09
-4.12877e-08
6.80996e-09
-4.41621e-08
8.47629e-09
-4.78981e-08
1.0673e-08
-5.28366e-08
1.37396e-08
-5.9445e-08
1.78294e-08
-6.84263e-08
2.35682e-08
-8.07301e-08
3.15043e-08
-9.76671e-08
4.22258e-08
-1.21789e-07
5.86839e-08
-1.54029e-07
7.761e-08
-2.04729e-07
1.16479e-07
-2.65005e-07
1.42437e-07
-3.80132e-07
2.54752e-07
-5.11507e-07
2.66462e-07
6.69711e-07
-7.56966e-07
-9.381e-11
7.81216e-10
-8.06288e-10
2.9574e-09
-2.47588e-09
5.36423e-09
-4.8629e-09
6.54236e-09
-7.35565e-09
6.22582e-09
-9.46925e-09
5.06281e-09
-1.10231e-08
3.75982e-09
-1.20926e-08
2.80997e-09
-1.28829e-08
2.4e-09
-1.36116e-08
2.46381e-09
-1.44331e-08
2.82413e-09
-1.54226e-08
3.29052e-09
-1.65825e-08
3.71681e-09
-1.78726e-08
4.01882e-09
-1.92367e-08
4.17481e-09
-2.06183e-08
4.20216e-09
-2.19789e-08
4.13475e-09
-2.32832e-08
4.01172e-09
-2.45184e-08
3.85549e-09
-2.56631e-08
3.68666e-09
-2.6712e-08
3.5084e-09
-2.76522e-08
3.33161e-09
-2.84818e-08
3.15984e-09
-2.91966e-08
3.00356e-09
-2.98074e-08
2.87519e-09
-3.03173e-08
2.78917e-09
-3.07527e-08
2.75404e-09
-3.11246e-08
2.78855e-09
-3.14663e-08
2.89853e-09
-3.18002e-08
3.1038e-09
-3.21627e-08
3.42109e-09
-3.25896e-08
3.87889e-09
-3.31332e-08
4.51863e-09
-3.38511e-08
5.38853e-09
-3.4831e-08
6.57247e-09
-3.61921e-08
8.17752e-09
-3.80899e-08
1.03755e-08
-4.07786e-08
1.33662e-08
-4.45726e-08
1.75364e-08
-4.99716e-08
2.32321e-08
-5.76668e-08
3.12654e-08
-6.86848e-08
4.25287e-08
-8.42895e-08
5.78311e-08
-1.07478e-07
8.18835e-08
-1.38557e-07
1.08691e-07
-1.89749e-07
1.67684e-07
-2.51426e-07
2.04117e-07
-3.65622e-07
3.68955e-07
-5.21968e-07
4.22803e-07
9.02951e-07
-7.55208e-07
-5.43157e-11
8.36167e-10
-4.89447e-10
3.39352e-09
-1.74647e-09
6.62247e-09
-3.91475e-09
8.71165e-09
-6.57897e-09
8.89107e-09
-9.17553e-09
7.66027e-09
-1.13061e-08
5.89129e-09
-1.28488e-08
4.35305e-09
-1.39099e-08
3.46198e-09
-1.47062e-08
3.26017e-09
-1.54479e-08
3.5668e-09
-1.62805e-08
4.12343e-09
-1.72645e-08
4.70155e-09
-1.83963e-08
5.15141e-09
-1.96366e-08
5.41509e-09
-2.09323e-08
5.49954e-09
-2.22407e-08
5.44205e-09
-2.35185e-08
5.29252e-09
-2.47432e-08
5.0793e-09
-2.58822e-08
4.82896e-09
-2.69182e-08
4.54479e-09
-2.78251e-08
4.24077e-09
-2.85884e-08
3.92346e-09
-2.91923e-08
3.60998e-09
-2.96385e-08
3.32022e-09
-2.99238e-08
3.07897e-09
-3.00716e-08
2.90074e-09
-3.00922e-08
2.81397e-09
-3.00204e-08
2.82735e-09
-2.98811e-08
2.9677e-09
-2.97125e-08
3.25323e-09
-2.95534e-08
3.72333e-09
-2.94546e-08
4.41905e-09
-2.94766e-08
5.41669e-09
-2.96992e-08
6.79441e-09
-3.02458e-08
8.73066e-09
-3.12556e-08
1.13868e-08
-3.29903e-08
1.51055e-08
-3.57404e-08
2.02894e-08
-4.00221e-08
2.75176e-08
-4.64824e-08
3.77276e-08
-5.623e-08
5.2283e-08
-7.03562e-08
7.1958e-08
-9.22027e-08
1.03742e-07
-1.21762e-07
1.38252e-07
-1.70919e-07
2.16852e-07
-2.34302e-07
2.67502e-07
-3.40072e-07
4.74733e-07
-5.10793e-07
5.93519e-07
1.1252e-06
-7.33044e-07
-6.51266e-11
9.01959e-10
-3.30816e-10
3.66023e-09
-1.15297e-09
7.44588e-09
-2.84095e-09
1.04007e-08
-5.29871e-09
1.13499e-08
-8.09853e-09
1.0461e-08
-1.07464e-08
8.54009e-09
-1.29042e-08
6.51123e-09
-1.44786e-08
5.03733e-09
-1.55796e-08
4.36118e-09
-1.64057e-08
4.39393e-09
-1.71512e-08
4.86929e-09
-1.7946e-08
5.49706e-09
-1.88495e-08
6.0558e-09
-1.98682e-08
6.43366e-09
-2.09758e-08
6.60883e-09
-2.21427e-08
6.60784e-09
-2.33292e-08
6.48218e-09
-2.45112e-08
6.26041e-09
-2.565e-08
5.97105e-09
-2.67188e-08
5.61405e-09
-2.76787e-08
5.20294e-09
-2.84998e-08
4.74482e-09
-2.91494e-08
4.26217e-09
-2.96131e-08
3.78279e-09
-2.98737e-08
3.34414e-09
-2.99442e-08
2.9702e-09
-2.98285e-08
2.70315e-09
-2.95589e-08
2.55838e-09
-2.91612e-08
2.57328e-09
-2.8676e-08
2.76875e-09
-2.81469e-08
3.19788e-09
-2.76272e-08
3.89858e-09
-2.7184e-08
4.97968e-09
-2.68961e-08
6.50594e-09
-2.68935e-08
8.73469e-09
-2.73101e-08
1.18049e-08
-2.84134e-08
1.62134e-08
-3.04816e-08
2.23605e-08
-3.40463e-08
3.10862e-08
-3.97096e-08
4.33928e-08
-4.86519e-08
6.12321e-08
-6.18426e-08
8.51494e-08
-8.26512e-08
1.24562e-07
-1.11565e-07
1.67167e-07
-1.58098e-07
2.63397e-07
-2.23875e-07
3.33282e-07
-3.2204e-07
5.72905e-07
-4.95702e-07
7.67175e-07
1.34533e-06
-7.15827e-07
-8.70837e-11
9.89733e-10
-3.05519e-10
3.87972e-09
-8.45673e-10
7.98731e-09
-2.05774e-09
1.16138e-08
-4.10384e-09
1.33971e-08
-6.80446e-09
1.31626e-08
-9.73711e-09
1.14736e-08
-1.24494e-08
9.22401e-09
-1.46478e-08
7.23664e-09
-1.62654e-08
5.9788e-09
-1.74054e-08
5.53499e-09
-1.82498e-08
5.71402e-09
-1.89702e-08
6.21821e-09
-1.96891e-08
6.77554e-09
-2.04734e-08
7.21789e-09
-2.13444e-08
7.48153e-09
-2.23052e-08
7.56754e-09
-2.33367e-08
7.51685e-09
-2.44272e-08
7.35e-09
-2.55439e-08
7.09112e-09
-2.66609e-08
6.73154e-09
-2.77339e-08
6.27822e-09
-2.87215e-08
5.73276e-09
-2.95742e-08
5.11754e-09
-3.02572e-08
4.46461e-09
-3.07315e-08
3.82309e-09
-3.09906e-08
3.22828e-09
-3.10225e-08
2.73991e-09
-3.08485e-08
2.38506e-09
-3.04893e-08
2.21739e-09
-2.99841e-08
2.26427e-09
-2.93799e-08
2.59747e-09
-2.87341e-08
3.25193e-09
-2.81213e-08
4.37325e-09
-2.7626e-08
6.01004e-09
-2.73855e-08
8.50083e-09
-2.75387e-08
1.19598e-08
-2.83574e-08
1.70367e-08
-3.01213e-08
2.41273e-08
-3.33671e-08
3.43359e-08
-3.86823e-08
4.87099e-08
-4.72462e-08
6.9803e-08
-6.00741e-08
9.79781e-08
-8.01651e-08
1.44665e-07
-1.09117e-07
1.96121e-07
-1.53362e-07
3.07654e-07
-2.20712e-07
4.00634e-07
-3.1433e-07
6.6653e-07
-4.82473e-07
9.35312e-07
1.56226e-06
-6.99407e-07
-9.90569e-11
1.0895e-09
-3.37261e-10
4.119e-09
-7.67958e-10
8.41932e-09
-1.6674e-09
1.25143e-08
-3.31575e-09
1.50465e-08
-5.75298e-09
1.56008e-08
-8.72119e-09
1.44428e-08
-1.17835e-08
1.22868e-08
-1.45296e-08
9.98363e-09
-1.67257e-08
8.17508e-09
-1.83367e-08
7.14698e-09
-1.94714e-08
6.84904e-09
-2.02928e-08
7.04038e-09
-2.09568e-08
7.44047e-09
-2.15814e-08
7.84235e-09
-2.22386e-08
8.14054e-09
-2.29751e-08
8.30291e-09
-2.38056e-08
8.35048e-09
-2.47449e-08
8.28842e-09
-2.5781e-08
8.13063e-09
-2.69037e-08
7.85477e-09
-2.80779e-08
7.45466e-09
-2.92631e-08
6.91838e-09
-3.04018e-08
6.25892e-09
-3.14423e-08
5.50386e-09
-3.23219e-08
4.70744e-09
-3.30081e-08
3.9135e-09
-3.34632e-08
3.19992e-09
-3.36868e-08
2.60941e-09
-3.36841e-08
2.21798e-09
-3.34844e-08
2.06537e-09
-3.3132e-08
2.24878e-09
-3.26851e-08
2.80431e-09
-3.22238e-08
3.91828e-09
-3.18407e-08
5.62644e-09
-3.16789e-08
8.34559e-09
-3.18905e-08
1.21731e-08
-3.27453e-08
1.78962e-08
-3.45413e-08
2.59262e-08
-3.77954e-08
3.7594e-08
-4.31259e-08
5.40424e-08
-5.16183e-08
7.83023e-08
-6.4461e-08
1.10822e-07
-8.4089e-08
1.64304e-07
-1.1319e-07
2.25224e-07
-1.55693e-07
3.50168e-07
-2.2301e-07
4.67953e-07
-3.1345e-07
7.56976e-07
-4.72146e-07
1.094e-06
1.76842e-06
-6.78313e-07
-1.0031e-10
1.19054e-09
-3.70006e-10
4.3898e-09
-7.99017e-10
8.84968e-09
-1.5698e-09
1.32863e-08
-2.96184e-09
1.64397e-08
-5.13992e-09
1.77799e-08
-8.00337e-09
1.73072e-08
-1.12054e-08
1.54893e-08
-1.43168e-08
1.30959e-08
-1.70026e-08
1.0861e-08
-1.91036e-08
9.24895e-09
-2.06314e-08
8.37718e-09
-2.16995e-08
8.10937e-09
-2.24588e-08
8.20056e-09
-2.305e-08
8.43349e-09
-2.35814e-08
8.67369e-09
-2.41377e-08
8.85806e-09
-2.47691e-08
8.9851e-09
-2.55233e-08
9.04178e-09
-2.64186e-08
9.02932e-09
-2.74732e-08
8.90995e-09
-2.86769e-08
8.66066e-09
-3.00076e-08
8.24942e-09
-3.14159e-08
7.66996e-09
-3.28466e-08
6.93336e-09
-3.42215e-08
6.08714e-09
-3.54836e-08
5.17461e-09
-3.65654e-08
4.28658e-09
-3.74362e-08
3.48101e-09
-3.80747e-08
2.85983e-09
-3.84896e-08
2.48108e-09
-3.87115e-08
2.47448e-09
-3.87929e-08
2.88501e-09
-3.88117e-08
3.94332e-09
-3.88677e-08
5.68207e-09
-3.91039e-08
8.58832e-09
-3.96911e-08
1.27621e-08
-4.08874e-08
1.90971e-08
-4.3022e-08
2.80638e-08
-4.65686e-08
4.11447e-08
-5.21995e-08
5.96753e-08
-6.08657e-08
8.69756e-08
-7.39106e-08
1.23867e-07
-9.32813e-08
1.83687e-07
-1.223e-07
2.54244e-07
-1.63311e-07
3.91191e-07
-2.29096e-07
5.3374e-07
-3.15913e-07
8.43799e-07
-4.61708e-07
1.23979e-06
1.95755e-06
-6.50839e-07
-9.73557e-11
1.28865e-09
-3.88888e-10
4.68247e-09
-8.52184e-10
9.31434e-09
-1.6119e-09
1.40471e-08
-2.90359e-09
1.77325e-08
-4.92475e-09
1.98021e-08
-7.6711e-09
2.00545e-08
-1.0891e-08
1.87097e-08
-1.41928e-08
1.63987e-08
-1.72109e-08
1.38791e-08
-1.97111e-08
1.17502e-08
-2.16232e-08
1.02896e-08
-2.29991e-08
9.48604e-09
-2.39581e-08
9.1605e-09
-2.46367e-08
9.11196e-09
-2.51556e-08
9.19439e-09
-2.56214e-08
9.32278e-09
-2.61099e-08
9.47675e-09
-2.66963e-08
9.62735e-09
-2.74287e-08
9.76517e-09
-2.83581e-08
9.8399e-09
-2.95082e-08
9.81308e-09
-3.08894e-08
9.63099e-09
-3.24784e-08
9.26174e-09
-3.42352e-08
8.68898e-09
-3.60828e-08
7.93947e-09
-3.79513e-08
7.04222e-09
-3.97492e-08
6.08938e-09
-4.14148e-08
5.1475e-09
-4.28942e-08
4.34256e-09
-4.41664e-08
3.75401e-09
-4.52369e-08
3.54889e-09
-4.61433e-08
3.79071e-09
-4.69505e-08
4.75682e-09
-4.77608e-08
6.4921e-09
-4.87081e-08
9.54205e-09
-4.99818e-08
1.40376e-08
-5.18191e-08
2.0939e-08
-5.45817e-08
3.08292e-08
-5.86933e-08
4.52604e-08
-6.48601e-08
6.5844e-08
-7.39261e-08
9.60486e-08
-8.72661e-08
1.37208e-07
-1.06515e-07
2.02947e-07
-1.35161e-07
2.82892e-07
-1.7459e-07
4.3063e-07
-2.37545e-07
5.96697e-07
-3.19323e-07
9.25581e-07
-4.49658e-07
1.37012e-06
2.12388e-06
-6.15996e-07
-9.50459e-11
1.38447e-09
-3.98479e-10
4.98706e-09
-8.96297e-10
9.81355e-09
-1.69273e-09
1.48447e-08
-2.98624e-09
1.90272e-08
-4.96315e-09
2.178e-08
-7.65342e-09
2.27457e-08
-1.08641e-08
2.19209e-08
-1.42519e-08
1.97874e-08
-1.74622e-08
1.70896e-08
-2.02337e-08
1.45228e-08
-2.24483e-08
1.25046e-08
-2.41094e-08
1.11479e-08
-2.53002e-08
1.03522e-08
-2.61373e-08
9.94903e-09
-2.67361e-08
9.79489e-09
-2.72072e-08
9.79282e-09
-2.76371e-08
9.90977e-09
-2.81164e-08
1.0106e-08
-2.87142e-08
1.03663e-08
-2.95078e-08
1.06342e-08
-3.05544e-08
1.0862e-08
-3.19015e-08
1.09785e-08
-3.35632e-08
1.09262e-08
-3.55307e-08
1.06554e-08
-3.77472e-08
1.01607e-08
-4.01481e-08
9.44237e-09
-4.26324e-08
8.57847e-09
-4.51161e-08
7.63209e-09
-4.75151e-08
6.74492e-09
-4.97764e-08
6.01608e-09
-5.18735e-08
5.64994e-09
-5.38208e-08
5.73735e-09
-5.56601e-08
6.60226e-09
-5.74881e-08
8.31994e-09
-5.94205e-08
1.14809e-08
-6.16587e-08
1.62777e-08
-6.44147e-08
2.36995e-08
-6.80673e-08
3.44848e-08
-7.3002e-08
5.01993e-08
-7.99107e-08
7.27546e-08
-8.95795e-08
1.05724e-07
-1.03292e-07
1.50922e-07
-1.22483e-07
2.22149e-07
-1.50524e-07
3.10935e-07
-1.88108e-07
4.68225e-07
-2.47114e-07
6.55704e-07
-3.22333e-07
1.0008e-06
-4.35175e-07
1.48295e-06
2.26305e-06
-5.74352e-07
-9.45213e-11
1.47978e-09
-4.05997e-10
5.29973e-09
-9.29954e-10
1.03389e-08
-1.77179e-09
1.56878e-08
-3.11271e-09
2.03693e-08
-5.11965e-09
2.3788e-08
-7.82327e-09
2.54503e-08
-1.10528e-08
2.51509e-08
-1.44942e-08
2.32297e-08
-1.78133e-08
2.04087e-08
-2.075e-08
1.74605e-08
-2.31691e-08
1.49241e-08
-2.50479e-08
1.30276e-08
-2.64436e-08
1.17488e-08
-2.74522e-08
1.09575e-08
-2.81758e-08
1.05203e-08
-2.8719e-08
1.03349e-08
-2.91667e-08
1.03606e-08
-2.96131e-08
1.05517e-08
-3.01358e-08
1.08923e-08
-3.08275e-08
1.13266e-08
-3.17693e-08
1.1806e-08
-3.3041e-08
1.22506e-08
-3.46946e-08
1.25826e-08
-3.67604e-08
1.27202e-08
-3.92148e-08
1.26198e-08
-4.20153e-08
1.22422e-08
-4.50688e-08
1.16367e-08
-4.82844e-08
1.08487e-08
-5.15586e-08
1.00224e-08
-5.48119e-08
9.27024e-09
-5.79863e-08
8.82821e-09
-6.10696e-08
8.82008e-09
-6.40743e-08
9.61309e-09
-6.70842e-08
1.13298e-08
-7.01905e-08
1.45934e-08
-7.35946e-08
1.96837e-08
-7.7484e-08
2.75935e-08
-8.22317e-08
3.92354e-08
-8.82002e-08
5.61719e-08
-9.60211e-08
8.05775e-08
-1.06452e-07
1.16162e-07
-1.20616e-07
1.65087e-07
-1.39771e-07
2.41315e-07
-1.67037e-07
3.38203e-07
-2.0252e-07
5.03718e-07
-2.5669e-07
7.09875e-07
-3.24067e-07
1.06818e-06
-4.18206e-07
1.57708e-06
2.37232e-06
-5.27489e-07
-9.51331e-11
1.57571e-09
-4.14824e-10
5.62064e-09
-9.59839e-10
1.08854e-08
-1.84353e-09
1.65727e-08
-3.24419e-09
2.17712e-08
-5.31586e-09
2.58608e-08
-8.07976e-09
2.82152e-08
-1.13652e-08
2.84369e-08
-1.48672e-08
2.67327e-08
-1.82642e-08
2.38058e-08
-2.13044e-08
2.05018e-08
-2.38529e-08
1.7473e-08
-2.58787e-08
1.50542e-08
-2.74267e-08
1.32976e-08
-2.85799e-08
1.21106e-08
-2.9429e-08
1.13712e-08
-3.00697e-08
1.09746e-08
-3.05807e-08
1.08747e-08
-3.10522e-08
1.10225e-08
-3.15611e-08
1.14045e-08
-3.22048e-08
1.1971e-08
-3.30764e-08
1.268e-08
-3.4277e-08
1.34517e-08
-3.58892e-08
1.41976e-08
-3.79792e-08
1.48092e-08
-4.05606e-08
1.52058e-08
-4.36225e-08
1.53036e-08
-4.70933e-08
1.51122e-08
-5.08903e-08
1.46468e-08
-5.4905e-08
1.40403e-08
-5.90427e-08
1.34088e-08
-6.3221e-08
1.30104e-08
-6.74044e-08
1.3003e-08
-7.15762e-08
1.37909e-08
-7.58027e-08
1.55565e-08
-8.01488e-08
1.89456e-08
-8.48049e-08
2.43418e-08
-8.99367e-08
3.27297e-08
-9.58906e-08
4.51922e-08
-1.03016e-07
6.3301e-08
-1.11856e-07
8.94199e-08
-1.23139e-07
1.27452e-07
-1.37816e-07
1.79766e-07
-1.56939e-07
2.60448e-07
-1.83314e-07
3.6458e-07
-2.16526e-07
5.36939e-07
-2.65298e-07
7.58648e-07
-3.23972e-07
1.12686e-06
-3.99148e-07
1.65225e-06
2.45108e-06
-4.77917e-07
-9.61472e-11
1.67269e-09
-4.25346e-10
5.95108e-09
-9.90269e-10
1.14518e-08
-1.91263e-09
1.74963e-08
-3.37382e-09
2.32336e-08
-5.52163e-09
2.80097e-08
-8.3684e-09
3.1063e-08
-1.17358e-08
3.18049e-08
-1.53155e-08
3.03134e-08
-1.87881e-08
2.72785e-08
-2.19075e-08
2.36221e-08
-2.4543e-08
2.01089e-08
-2.6665e-08
1.71771e-08
-2.8316e-08
1.49495e-08
-2.95742e-08
1.33687e-08
-3.05244e-08
1.23231e-08
-3.12561e-08
1.17053e-08
-3.18425e-08
1.14641e-08
-3.23681e-08
1.15475e-08
-3.29055e-08
1.19452e-08
-3.35498e-08
1.26161e-08
-3.43973e-08
1.35297e-08
-3.55591e-08
1.4614e-08
-3.71369e-08
1.57782e-08
-3.92241e-08
1.68955e-08
-4.18662e-08
1.78525e-08
-4.50843e-08
1.85213e-08
-4.88341e-08
1.88665e-08
-5.3051e-08
1.88649e-08
-5.76333e-08
1.86259e-08
-6.24837e-08
1.82602e-08
-6.75059e-08
1.80365e-08
-7.26487e-08
1.81455e-08
-7.78717e-08
1.90198e-08
-8.3224e-08
2.09089e-08
-8.8747e-08
2.44745e-08
-9.46126e-08
3.02095e-08
-1.00969e-07
3.90907e-08
-1.08123e-07
5.23494e-08
-1.16413e-07
7.15947e-08
-1.26289e-07
9.9298e-08
-1.38431e-07
1.39601e-07
-1.53632e-07
1.94968e-07
-1.72708e-07
2.79533e-07
-1.98121e-07
3.89995e-07
-2.28995e-07
5.67822e-07
-2.72168e-07
8.0182e-07
-3.2179e-07
1.17648e-06
-3.78721e-07
1.70917e-06
2.50073e-06
-4.28386e-07
-9.72467e-11
1.77077e-09
-4.36415e-10
6.29152e-09
-1.02249e-09
1.20394e-08
-1.98294e-09
1.8458e-08
-3.50428e-09
2.47562e-08
-5.73133e-09
3.02378e-08
-8.66961e-09
3.40024e-08
-1.21323e-08
3.52681e-08
-1.58028e-08
3.39849e-08
-1.93576e-08
3.08335e-08
-2.25515e-08
2.68169e-08
-2.5257e-08
2.28149e-08
-2.74483e-08
1.93692e-08
-2.91696e-08
1.66717e-08
-3.04994e-08
1.46985e-08
-3.15216e-08
1.3347e-08
-3.23237e-08
1.25065e-08
-3.29763e-08
1.21197e-08
-3.35602e-08
1.21309e-08
-3.41443e-08
1.25324e-08
-3.48195e-08
1.32922e-08
-3.56806e-08
1.4393e-08
-3.68417e-08
1.57756e-08
-3.84135e-08
1.73528e-08
-4.05058e-08
1.89871e-08
-4.31869e-08
2.0538e-08
-4.65031e-08
2.18372e-08
-5.04352e-08
2.28031e-08
-5.49396e-08
2.33705e-08
-5.99276e-08
2.36172e-08
-6.53083e-08
2.36418e-08
-7.09813e-08
2.37133e-08
-7.6888e-08
2.4052e-08
-8.29732e-08
2.51107e-08
-8.92718e-08
2.72079e-08
-9.58083e-08
3.10168e-08
-1.02734e-07
3.7137e-08
-1.10183e-07
4.65449e-08
-1.18422e-07
6.05903e-08
-1.27771e-07
8.09487e-08
-1.386e-07
1.10129e-07
-1.51517e-07
1.52525e-07
-1.67187e-07
2.1064e-07
-1.8617e-07
2.98526e-07
-2.10575e-07
4.14402e-07
-2.39129e-07
5.96384e-07
-2.76809e-07
8.39498e-07
-3.17525e-07
1.2172e-06
-3.57807e-07
1.74944e-06
2.52415e-06
-3.8123e-07
-9.83905e-11
1.87002e-09
-4.47868e-10
6.64231e-09
-1.05647e-09
1.26495e-08
-2.05588e-09
1.94587e-08
-3.63824e-09
2.63398e-08
-5.94644e-09
3.25472e-08
-8.97996e-09
3.70369e-08
-1.25439e-08
3.88327e-08
-1.63127e-08
3.77546e-08
-1.9956e-08
3.4477e-08
-2.32265e-08
3.00883e-08
-2.59982e-08
2.5587e-08
-2.8248e-08
2.16197e-08
-3.0023e-08
1.84476e-08
-3.14041e-08
1.60795e-08
-3.24766e-08
1.44211e-08
-3.33289e-08
1.33579e-08
-3.40317e-08
1.28255e-08
-3.46654e-08
1.27642e-08
-3.5297e-08
1.31672e-08
-3.60151e-08
1.40112e-08
-3.69124e-08
1.52925e-08
-3.81025e-08
1.69662e-08
-3.96995e-08
1.89526e-08
-4.18214e-08
2.11082e-08
-4.45486e-08
2.32697e-08
-4.79446e-08
2.5233e-08
-5.20089e-08
2.68719e-08
-5.6715e-08
2.80779e-08
-6.19878e-08
2.88931e-08
-6.77458e-08
2.94008e-08
-7.38913e-08
2.98626e-08
-8.03648e-08
3.05252e-08
-8.7104e-08
3.18556e-08
-9.41347e-08
3.42389e-08
-1.01471e-07
3.83591e-08
-1.09245e-07
4.49132e-08
-1.17585e-07
5.48884e-08
-1.26713e-07
6.97211e-08
-1.36936e-07
9.11758e-08
-1.48553e-07
1.21748e-07
-1.62087e-07
1.66065e-07
-1.78103e-07
2.26658e-07
-1.96909e-07
3.17341e-07
-2.20258e-07
4.37753e-07
-2.46551e-07
6.22684e-07
-2.79045e-07
8.7199e-07
-3.11369e-07
1.24952e-06
-3.37004e-07
1.77506e-06
2.5251e-06
-3.37971e-07
-9.96167e-11
1.97052e-09
-4.59747e-10
7.00377e-09
-1.09203e-09
1.32833e-08
-2.13168e-09
2.04997e-08
-3.77677e-09
2.79862e-08
-6.1686e-09
3.49401e-08
-9.30027e-09
4.01697e-08
-1.29691e-08
4.25021e-08
-1.68402e-08
4.16267e-08
-2.05761e-08
3.8213e-08
-2.39262e-08
3.34394e-08
-2.67647e-08
2.8426e-08
-2.90705e-08
2.39263e-08
-3.08932e-08
2.02712e-08
-3.2316e-08
1.75023e-08
-3.34266e-08
1.55334e-08
-3.43156e-08
1.42459e-08
-3.50556e-08
1.35684e-08
-3.5728e-08
1.34362e-08
-3.64008e-08
1.38431e-08
-3.71624e-08
1.47736e-08
-3.81049e-08
1.62373e-08
-3.93418e-08
1.82037e-08
-4.09883e-08
2.06018e-08
-4.3165e-08
2.32842e-08
-4.59591e-08
2.60682e-08
-4.9442e-08
2.87158e-08
-5.36234e-08
3.10576e-08
-5.84885e-08
3.29443e-08
-6.39724e-08
3.43802e-08
-7.00022e-08
3.54315e-08
-7.6485e-08
3.63491e-08
-8.33632e-08
3.74032e-08
-9.05731e-08
3.90711e-08
-9.81349e-08
4.18012e-08
-1.0606e-07
4.62893e-08
-1.14463e-07
5.33181e-08
-1.23466e-07
6.38963e-08
-1.33261e-07
7.95185e-08
-1.44134e-07
1.02053e-07
-1.56332e-07
1.33948e-07
-1.70281e-07
1.8002e-07
-1.86471e-07
2.42849e-07
-2.04977e-07
3.35856e-07
-2.27202e-07
4.5998e-07
-2.51286e-07
6.46774e-07
-2.78968e-07
8.99669e-07
-3.03589e-07
1.27414e-06
-3.16648e-07
1.7881e-06
2.50756e-06
-2.99129e-07
-1.0096e-10
2.07237e-09
-4.72066e-10
7.37624e-09
-1.12912e-09
1.3942e-08
-2.21035e-09
2.15823e-08
-3.92008e-09
2.96973e-08
-6.39845e-09
3.74197e-08
-9.63148e-09
4.34038e-08
-1.34083e-08
4.62795e-08
-1.73848e-08
4.56042e-08
-2.12161e-08
4.20446e-08
-2.46482e-08
3.68723e-08
-2.7555e-08
3.13332e-08
-2.9917e-08
2.6289e-08
-3.1786e-08
2.2141e-08
-3.32472e-08
1.89635e-08
-3.4391e-08
1.66786e-08
-3.53098e-08
1.51639e-08
-3.60792e-08
1.43405e-08
-3.67825e-08
1.41392e-08
-3.749e-08
1.45537e-08
-3.82917e-08
1.55762e-08
-3.92813e-08
1.72291e-08
-4.05734e-08
1.94964e-08
-4.22841e-08
2.23153e-08
-4.45354e-08
2.5535e-08
-4.74165e-08
2.89535e-08
-5.10017e-08
3.23011e-08
-5.53053e-08
3.53655e-08
-6.03172e-08
3.79576e-08
-6.59779e-08
4.00441e-08
-7.22197e-08
4.16743e-08
-7.89535e-08
4.30866e-08
-8.61239e-08
4.45736e-08
-9.36691e-08
4.66216e-08
-1.01605e-07
4.97376e-08
-1.09943e-07
5.46324e-08
-1.18785e-07
6.21619e-08
-1.28249e-07
7.33649e-08
-1.38504e-07
8.97757e-08
-1.49801e-07
1.13354e-07
-1.62361e-07
1.46509e-07
-1.7652e-07
1.94186e-07
-1.92695e-07
2.59026e-07
-2.10754e-07
3.53923e-07
-2.3176e-07
4.80987e-07
-2.53644e-07
6.68663e-07
-2.76852e-07
9.22874e-07
-2.94462e-07
1.29174e-06
-2.96795e-07
1.79042e-06
2.47508e-06
-2.64329e-07
-1.02447e-10
2.17573e-09
-4.84858e-10
7.76005e-09
-1.16777e-09
1.46265e-08
-2.29191e-09
2.27078e-08
-4.06817e-09
3.14749e-08
-6.63615e-09
3.99889e-08
-9.97397e-09
4.67427e-08
-1.3862e-08
5.01681e-08
-1.79469e-08
4.96901e-08
-2.18761e-08
4.5974e-08
-2.53921e-08
4.03892e-08
-2.83686e-08
3.43102e-08
-3.07876e-08
2.87088e-08
-3.2703e-08
2.40571e-08
-3.4202e-08
2.04626e-08
-3.53773e-08
1.78554e-08
-3.63236e-08
1.61094e-08
-3.7119e-08
1.51386e-08
-3.78492e-08
1.48691e-08
-3.85875e-08
1.52949e-08
-3.94263e-08
1.64161e-08
-4.04626e-08
1.82676e-08
-4.18132e-08
2.08477e-08
-4.35963e-08
2.41011e-08
-4.59349e-08
2.78731e-08
-4.89188e-08
3.19415e-08
-5.26221e-08
3.60045e-08
-5.70594e-08
3.98069e-08
-6.22211e-08
4.31206e-08
-6.80486e-08
4.58747e-08
-7.44757e-08
4.81024e-08
-8.14149e-08
5.00295e-08
-8.88115e-08
5.19701e-08
-9.66054e-08
5.44208e-08
-1.04809e-07
5.7942e-08
-1.13436e-07
6.32638e-08
-1.22575e-07
7.13035e-08
-1.32344e-07
8.31377e-08
-1.42886e-07
1.00321e-07
-1.54436e-07
1.24908e-07
-1.6718e-07
1.59255e-07
-1.8135e-07
2.08362e-07
-1.97315e-07
2.74992e-07
-2.14764e-07
3.71381e-07
-2.34427e-07
5.00651e-07
-2.54064e-07
6.88305e-07
-2.73048e-07
9.41853e-07
-2.84218e-07
1.30291e-06
-2.77286e-07
1.78348e-06
2.43049e-06
-2.32707e-07
-1.04095e-10
2.28076e-09
-4.98152e-10
8.15553e-09
-1.20803e-09
1.5338e-08
-2.37645e-09
2.38776e-08
-4.22105e-09
3.33208e-08
-6.88172e-09
4.26507e-08
-1.03279e-08
5.01899e-08
-1.43305e-08
5.41713e-08
-1.85267e-08
5.38873e-08
-2.25563e-08
5.00037e-08
-2.6158e-08
4.39918e-08
-2.92055e-08
3.73582e-08
-3.16824e-08
3.11864e-08
-3.36447e-08
2.60201e-08
-3.51817e-08
2.19997e-08
-3.63884e-08
1.90634e-08
-3.73616e-08
1.70819e-08
-3.8182e-08
1.59616e-08
-3.89377e-08
1.56246e-08
-3.97051e-08
1.60651e-08
-4.05799e-08
1.72918e-08
-4.16625e-08
1.93524e-08
-4.30735e-08
2.22593e-08
-4.49337e-08
2.5964e-08
-4.73675e-08
3.03066e-08
-5.0465e-08
3.50431e-08
-5.42987e-08
3.98383e-08
-5.88814e-08
4.43937e-08
-6.42009e-08
4.84415e-08
-7.01969e-08
5.18738e-08
-7.68015e-08
5.47078e-08
-8.39266e-08
5.71583e-08
-9.15163e-08
5.95599e-08
-9.95115e-08
6.2421e-08
-1.07921e-07
6.63518e-08
-1.16757e-07
7.21054e-08
-1.26102e-07
8.06504e-08
-1.36066e-07
9.31053e-08
-1.46777e-07
1.11034e-07
-1.58434e-07
1.36569e-07
-1.71207e-07
1.7203e-07
-1.85239e-07
2.22399e-07
-2.00828e-07
2.90582e-07
-2.17513e-07
3.88074e-07
-2.35698e-07
5.18836e-07
-2.52996e-07
7.05606e-07
-2.679e-07
9.56751e-07
-2.73053e-07
1.30806e-06
-2.57926e-07
1.76833e-06
2.37584e-06
-2.03298e-07
-1.05925e-10
2.38763e-09
-5.11972e-10
8.56303e-09
-1.24996e-09
1.60776e-08
-2.46404e-09
2.50932e-08
-4.37874e-09
3.52369e-08
-7.13514e-09
4.54083e-08
-1.06932e-08
5.37491e-08
-1.48138e-08
5.82925e-08
-1.91246e-08
5.81989e-08
-2.3257e-08
5.41364e-08
-2.69464e-08
4.76819e-08
-3.00662e-08
4.04784e-08
-3.26019e-08
3.37228e-08
-3.46116e-08
2.80305e-08
-3.6187e-08
2.3575e-08
-3.74252e-08
2.0303e-08
-3.84254e-08
1.80814e-08
-3.9271e-08
1.68096e-08
-4.0052e-08
1.64055e-08
-4.08484e-08
1.68642e-08
-4.1759e-08
1.82034e-08
-4.28886e-08
2.04841e-08
-4.43616e-08
2.37329e-08
-4.63023e-08
2.79074e-08
-4.88368e-08
3.28408e-08
-5.20553e-08
3.82656e-08
-5.60283e-08
4.38116e-08
-6.0766e-08
4.91352e-08
-6.62517e-08
5.39287e-08
-7.24217e-08
5.80469e-08
-7.92044e-08
6.14915e-08
-8.65099e-08
6.44672e-08
-9.42788e-08
6.73288e-08
-1.02452e-07
7.05992e-08
-1.11034e-07
7.49337e-08
-1.20036e-07
8.11128e-08
-1.29531e-07
9.0147e-08
-1.3962e-07
1.03199e-07
-1.50418e-07
1.21834e-07
-1.62089e-07
1.48244e-07
-1.7478e-07
1.84723e-07
-1.88549e-07
2.36173e-07
-2.03619e-07
3.05654e-07
-2.19397e-07
4.03859e-07
-2.35965e-07
5.35405e-07
-2.50803e-07
7.20447e-07
-2.61685e-07
9.67627e-07
-2.61097e-07
1.30746e-06
-2.38498e-07
1.74572e-06
2.31259e-06
-1.75259e-07
-1.07956e-10
2.49655e-09
-5.26342e-10
8.9829e-09
-1.29358e-09
1.68465e-08
-2.55476e-09
2.63558e-08
-4.54132e-09
3.72248e-08
-7.39637e-09
4.82646e-08
-1.107e-08
5.74239e-08
-1.53121e-08
6.25352e-08
-1.97405e-08
6.26281e-08
-2.39785e-08
5.83746e-08
-2.77576e-08
5.14618e-08
-3.09511e-08
4.36724e-08
-3.35466e-08
3.63188e-08
-3.56043e-08
3.00889e-08
-3.72183e-08
2.51891e-08
-3.84885e-08
2.15743e-08
-3.9516e-08
1.91083e-08
-4.03869e-08
1.76828e-08
-4.11937e-08
1.72122e-08
-4.20195e-08
1.76926e-08
-4.29667e-08
1.91516e-08
-4.41445e-08
2.1664e-08
-4.56816e-08
2.52706e-08
-4.77059e-08
2.99343e-08
-5.03453e-08
3.548e-08
-5.36907e-08
4.16147e-08
-5.78098e-08
4.79312e-08
-6.27097e-08
5.40389e-08
-6.83688e-08
5.95891e-08
-7.47187e-08
6.43998e-08
-8.16831e-08
6.84567e-08
-8.91687e-08
7.19564e-08
-9.71122e-08
7.52724e-08
-1.05454e-07
7.89452e-08
-1.14191e-07
8.36712e-08
-1.23335e-07
9.02615e-08
-1.32947e-07
9.97609e-08
-1.43119e-07
1.13374e-07
-1.5395e-07
1.32667e-07
-1.65568e-07
1.59865e-07
-1.78094e-07
1.97251e-07
-1.91505e-07
2.49589e-07
-2.05937e-07
3.20087e-07
-2.20677e-07
4.18606e-07
-2.35499e-07
5.50226e-07
-2.47748e-07
7.32698e-07
-2.54618e-07
9.7449e-07
-2.48482e-07
1.30132e-06
-2.18922e-07
1.71614e-06
2.24171e-06
-1.48067e-07
-1.10209e-10
2.60773e-09
-5.41283e-10
9.41549e-09
-1.33893e-09
1.76458e-08
-2.64869e-09
2.7667e-08
-4.70894e-09
3.92865e-08
-7.66538e-09
5.12223e-08
-1.14582e-08
6.12178e-08
-1.58254e-08
6.6903e-08
-2.03746e-08
6.71781e-08
-2.47209e-08
6.27212e-08
-2.85918e-08
5.53334e-08
-3.18607e-08
4.69417e-08
-3.45169e-08
3.89756e-08
-3.66233e-08
3.21959e-08
-3.82766e-08
2.68424e-08
-3.9579e-08
2.28779e-08
-4.06342e-08
2.01628e-08
-4.15309e-08
1.85816e-08
-4.23638e-08
1.80451e-08
-4.32197e-08
1.8551e-08
-4.42046e-08
2.01374e-08
-4.54321e-08
2.28936e-08
-4.70354e-08
2.68747e-08
-4.91465e-08
3.20478e-08
-5.1895e-08
3.82284e-08
-5.53721e-08
4.50955e-08
-5.96431e-08
5.22026e-08
-6.47113e-08
5.91107e-08
-7.05497e-08
6.54288e-08
-7.70847e-08
7.09377e-08
-8.42344e-08
7.56073e-08
-9.1902e-08
7.96273e-08
-1.00019e-07
8.33896e-08
-1.08524e-07
8.74542e-08
-1.17407e-07
9.25553e-08
-1.26678e-07
9.95368e-08
-1.36388e-07
1.09472e-07
-1.46613e-07
1.23604e-07
-1.5744e-07
1.43494e-07
-1.68955e-07
1.71384e-07
-1.81251e-07
2.09548e-07
-1.94227e-07
2.62569e-07
-2.07919e-07
3.3378e-07
-2.21506e-07
4.32198e-07
-2.34462e-07
5.63181e-07
-2.44003e-07
7.42241e-07
-2.46855e-07
9.77333e-07
-2.35322e-07
1.28978e-06
-1.99206e-07
1.68001e-06
2.16396e-06
-1.2147e-07
-1.127e-10
2.72143e-09
-5.5682e-10
9.86115e-09
-1.38603e-09
1.84768e-08
-2.74586e-09
2.90284e-08
-4.88157e-09
4.14236e-08
-7.9421e-09
5.4284e-08
-1.18577e-08
6.51345e-08
-1.63536e-08
7.13996e-08
-2.10269e-08
7.18522e-08
-2.54845e-08
6.71789e-08
-2.94496e-08
5.92991e-08
-3.27954e-08
5.02879e-08
-3.55135e-08
4.16942e-08
-3.76695e-08
3.43524e-08
-3.93625e-08
2.85354e-08
-4.06976e-08
2.4214e-08
-4.17808e-08
2.12454e-08
-4.27036e-08
1.95064e-08
-4.35633e-08
1.89048e-08
-4.445e-08
1.94401e-08
-4.54736e-08
2.11619e-08
-4.67525e-08
2.41745e-08
-4.84245e-08
2.85473e-08
-5.06254e-08
3.42512e-08
-5.3487e-08
4.109e-08
-5.71005e-08
4.87125e-08
-6.15284e-08
5.6631e-08
-6.67702e-08
6.4356e-08
-7.2793e-08
7.14529e-08
-7.95176e-08
7.76652e-08
-8.68562e-08
8.29466e-08
-9.47075e-08