/*--------------------------------*- C++ -*----------------------------------*\
  =========                 |
  \\      /  F ield         | OpenFOAM: The Open Source CFD Toolbox
   \\    /   O peration     | Website:  https://openfoam.org
    \\  /    A nd           | Version:  7
     \\/     M anipulation  |
\*---------------------------------------------------------------------------*/
FoamFile
{
    version     2.0;
    format      ascii;
    class       surfaceScalarField;
    location    "0.35";
    object      phi_0;
}
// * * * * * * * * * * * * * * * * * * * * * * * * * * * * * * * * * * * * * //

dimensions      [0 3 -1 0 0 0 0];

internalField   nonuniform List<scalar> 
139350
(
6.45121e-08
9.21194e-08
3.19645e-08
3.25476e-08
2.30588e-08
8.90565e-09
1.95735e-08
3.48531e-09
1.76209e-08
1.95262e-09
1.61898e-08
1.4311e-09
1.50557e-08
1.13404e-09
1.41421e-08
9.13677e-10
1.33901e-08
7.52001e-10
1.27564e-08
6.33654e-10
1.22123e-08
5.44091e-10
1.17385e-08
4.73846e-10
1.13212e-08
4.1732e-10
1.09502e-08
3.7099e-10
1.06177e-08
3.32457e-10
1.03177e-08
3.00001e-10
1.00453e-08
2.72362e-10
9.79675e-09
2.48595e-10
9.56877e-09
2.27979e-10
9.35881e-09
2.09957e-10
9.16472e-09
1.94091e-10
8.98469e-09
1.80033e-10
8.81719e-09
1.67501e-10
8.66092e-09
1.56268e-10
8.51477e-09
1.46145e-10
8.3778e-09
1.36974e-10
8.24918e-09
1.28625e-10
8.12819e-09
1.20985e-10
8.01423e-09
1.13956e-10
7.90677e-09
1.07461e-10
7.80536e-09
1.01415e-10
7.70959e-09
9.57705e-11
7.61915e-09
9.0439e-11
7.53373e-09
8.54141e-11
7.45316e-09
8.05761e-11
7.37718e-09
7.59749e-11
7.30574e-09
7.14434e-11
7.23866e-09
6.7078e-11
7.17594e-09
6.27251e-11
7.11758e-09
5.8356e-11
7.06335e-09
5.42312e-11
7.01394e-09
4.94073e-11
6.9678e-09
4.61421e-11
6.9281e-09
3.96952e-11
6.88816e-09
3.99436e-11
6.86029e-09
2.78753e-11
6.81632e-09
4.39645e-11
6.81968e-09
-3.35688e-12
6.59032e-09
2.29358e-10
-3.00394e-09
9.59426e-09
1.25943e-07
1.2762e-07
9.12894e-08
6.72012e-08
7.19362e-08
2.82589e-08
6.12201e-08
1.42014e-08
5.47828e-08
8.38996e-09
5.02863e-08
5.9275e-09
4.67998e-08
4.62059e-09
4.39838e-08
3.72963e-09
4.16577e-08
3.07812e-09
3.9696e-08
2.59538e-09
3.80115e-08
2.22857e-09
3.65443e-08
1.94104e-09
3.52518e-08
1.70985e-09
3.41024e-08
1.5204e-09
3.3072e-08
1.36281e-09
3.2142e-08
1.23005e-09
3.12974e-08
1.11698e-09
3.05262e-08
1.01972e-09
2.98189e-08
9.35344e-10
2.91672e-08
8.61577e-10
2.85647e-08
7.96631e-10
2.80057e-08
7.39085e-10
2.74854e-08
6.87794e-10
2.69998e-08
6.41823e-10
2.65455e-08
6.00407e-10
2.61196e-08
5.62904e-10
2.57195e-08
5.28778e-10
2.53429e-08
4.97573e-10
2.49879e-08
4.68894e-10
2.4653e-08
4.42413e-10
2.43366e-08
4.17811e-10
2.40375e-08
3.94863e-10
2.37547e-08
3.73264e-10
2.34872e-08
3.52914e-10
2.32343e-08
3.33423e-10
2.29954e-08
3.14901e-10
2.27701e-08
2.96719e-10
2.25578e-08
2.79354e-10
2.23588e-08
2.61749e-10
2.21723e-08
2.44896e-10
2.19992e-08
2.27322e-10
2.18384e-08
2.10166e-10
2.16917e-08
1.92916e-10
2.15576e-08
1.73744e-10
2.14367e-08
1.6081e-10
2.13319e-08
1.32756e-10
2.12245e-08
1.51345e-10
2.11852e-08
3.59711e-11
2.09186e-08
4.95942e-10
-3.41964e-09
2.13343e-08
1.58752e-07
1.35271e-07
1.36527e-07
8.94267e-08
1.17493e-07
4.72924e-08
1.03316e-07
2.83786e-08
9.33222e-08
1.83837e-08
8.60223e-08
1.32275e-08
8.03149e-08
1.0328e-08
7.56635e-08
8.38103e-09
7.17856e-08
6.95599e-09
6.84935e-08
5.88741e-09
6.5654e-08
5.06812e-09
6.31722e-08
4.4228e-09
6.09798e-08
3.9023e-09
5.90255e-08
3.47467e-09
5.72702e-08
3.11815e-09
5.5683e-08
2.8172e-09
5.42396e-08
2.56043e-09
5.29201e-08
2.33926e-09
5.17083e-08
2.14715e-09
5.05908e-08
1.97901e-09
4.95566e-08
1.83085e-09
4.85962e-08
1.69946e-09
4.77017e-08
1.58229e-09
4.68663e-08
1.47722e-09
4.60842e-08
1.38253e-09
4.53503e-08
1.29678e-09
4.46604e-08
1.21874e-09
4.40106e-08
1.1474e-09
4.33976e-08
1.08185e-09
4.28186e-08
1.02136e-09
4.22712e-08
9.6522e-10
4.17532e-08
9.12893e-10
4.12627e-08
8.63747e-10
4.07982e-08
8.17483e-10
4.03583e-08
7.73326e-10
3.99417e-08
7.31416e-10
3.9548e-08
6.90427e-10
3.91759e-08
6.51455e-10
3.88259e-08
6.11818e-10
3.84961e-08
5.74639e-10
3.8189e-08
5.34483e-10
3.79009e-08
4.98189e-10
3.76377e-08
4.56154e-10
3.73919e-08
4.19528e-10
3.71742e-08
3.78529e-10
3.69728e-08
3.34149e-10
3.67916e-08
3.32523e-10
3.66666e-08
1.61016e-10
3.64603e-08
7.02255e-10
-2.86256e-09
3.59032e-08
1.75611e-07
1.31176e-07
1.65623e-07
9.94145e-08
1.52735e-07
6.01808e-08
1.40126e-07
4.09876e-08
1.29446e-07
2.90635e-08
1.20808e-07
2.18658e-08
1.13697e-07
1.74395e-08
1.07716e-07
1.43611e-08
1.02617e-07
1.20553e-08
9.82158e-08
1.02887e-08
9.43728e-08
8.91119e-09
9.09823e-08
7.81324e-09
8.79647e-08
6.91989e-09
8.52586e-08
6.18085e-09
8.28156e-08
5.56115e-09
8.05972e-08
5.03554e-09
7.85724e-08
4.58527e-09
7.67155e-08
4.19608e-09
7.50057e-08
3.85701e-09
7.34252e-08
3.5595e-09
7.19593e-08
3.29673e-09
7.05955e-08
3.06329e-09
6.9323e-08
2.85474e-09
6.81328e-08
2.66748e-09
6.70168e-08
2.49852e-09
6.59682e-08
2.34535e-09
6.49811e-08
2.20587e-09
6.40502e-08
2.07827e-09
6.3171e-08
1.96102e-09
6.23396e-08
1.85279e-09
6.15524e-08
1.75238e-09
6.08065e-08
1.65882e-09
6.00992e-08
1.57106e-09
5.94282e-08
1.48849e-09
5.87916e-08
1.40987e-09
5.81877e-08
1.33534e-09
5.76155e-08
1.26269e-09
5.70731e-08
1.19378e-09
5.65611e-08
1.12384e-09
5.6077e-08
1.05875e-09
5.56236e-08
9.8787e-10
5.51962e-08
9.25592e-10
5.48023e-08
8.50062e-10
5.44318e-08
7.90083e-10
5.40995e-08
7.10773e-10
5.37883e-08
6.45385e-10
5.35119e-08
6.08858e-10
5.32817e-08
3.9121e-10
5.30613e-08
9.22699e-10
-2.0754e-09
5.22741e-08
1.8451e-07
1.23451e-07
1.82341e-07
1.01584e-07
1.76121e-07
6.64006e-08
1.67763e-07
4.9345e-08
1.59144e-07
3.76825e-08
1.5124e-07
2.97705e-08
1.44168e-07
2.45109e-08
1.3787e-07
2.06599e-08
1.3227e-07
1.76544e-08
1.27287e-07
1.52726e-08
1.22832e-07
1.33658e-08
1.1883e-07
1.1815e-08
1.15217e-07
1.05334e-08
1.11938e-07
9.45976e-09
1.08949e-07
8.55015e-09
1.06212e-07
7.77195e-09
1.03697e-07
7.1004e-09
1.01377e-07
6.51631e-09
9.92293e-08
6.00471e-09
9.72351e-08
5.5537e-09
9.53781e-08
5.15374e-09
9.36442e-08
4.79714e-09
9.20213e-08
4.47759e-09
9.0499e-08
4.18987e-09
8.90678e-08
3.92964e-09
8.77199e-08
3.69324e-09
8.64482e-08
3.4776e-09
8.52465e-08
3.28004e-09
8.41092e-08
3.09828e-09
8.30316e-08
2.93035e-09
8.20095e-08
2.77447e-09
8.10392e-08
2.62916e-09
8.01174e-08
2.49288e-09
7.92412e-08
2.36469e-09
7.84083e-08
2.24279e-09
7.76163e-08
2.12727e-09
7.6864e-08
2.015e-09
7.61492e-08
1.90855e-09
7.54721e-08
1.80101e-09
7.48298e-08
1.70099e-09
7.42252e-08
1.59254e-09
7.36531e-08
1.49762e-09
7.31211e-08
1.38213e-09
7.26192e-08
1.292e-09
7.21613e-08
1.16861e-09
7.17327e-08
1.07396e-09
7.13446e-08
9.96972e-10
7.10043e-08
7.31542e-10
7.06989e-08
1.22804e-09
-1.22125e-09
6.98448e-08
1.90342e-07
1.15325e-07
1.91859e-07
1.00067e-07
1.90262e-07
6.79973e-08
1.86157e-07
5.34502e-08
1.80719e-07
4.31211e-08
1.74967e-07
3.55216e-08
1.69272e-07
3.02066e-08
1.63788e-07
2.61431e-08
1.58615e-07
2.28282e-08
1.53792e-07
2.00953e-08
1.49323e-07
1.78347e-08
1.45191e-07
1.59468e-08
1.41372e-07
1.43521e-08
1.3784e-07
1.29918e-08
1.34569e-07
1.18215e-08
1.31534e-07
1.08074e-08
1.28712e-07
9.92246e-09
1.26082e-07
9.14546e-09
1.23628e-07
8.45924e-09
1.21332e-07
7.8499e-09
1.19179e-07
7.30612e-09
1.17158e-07
6.81856e-09
1.15256e-07
6.37948e-09
1.13463e-07
5.98239e-09
1.11771e-07
5.62186e-09
1.10171e-07
5.29321e-09
1.08656e-07
4.9925e-09
1.0722e-07
4.71627e-09
1.05857e-07
4.46155e-09
1.04562e-07
4.22574e-09
1.03329e-07
4.0065e-09
1.02157e-07
3.80186e-09
1.0104e-07
3.60977e-09
9.99756e-08
3.42894e-09
9.89614e-08
3.25703e-09
9.79947e-08
3.09403e-09
9.70737e-08
2.93593e-09
9.61964e-08
2.78588e-09
9.53624e-08
2.63501e-09
9.45691e-08
2.49427e-09
9.38185e-08
2.34312e-09
9.31065e-08
2.20963e-09
9.24387e-08
2.04999e-09
9.18079e-08
1.92279e-09
9.12233e-08
1.75319e-09
9.06779e-08
1.61935e-09
9.01725e-08
1.50238e-09
8.97202e-08
1.18386e-09
8.93124e-08
1.63583e-09
-2.99984e-10
8.83911e-08
1.95504e-07
1.07636e-07
1.98247e-07
9.73247e-08
1.98985e-07
6.72589e-08
1.97791e-07
5.46446e-08
1.95156e-07
4.57555e-08
1.91817e-07
3.88612e-08
1.88085e-07
3.39382e-08
1.84134e-07
3.00938e-08
1.80115e-07
2.68477e-08
1.76137e-07
2.40736e-08
1.72267e-07
2.17043e-08
1.68545e-07
1.9669e-08
1.6499e-07
1.79068e-08
1.61611e-07
1.63708e-08
1.58408e-07
1.50243e-08
1.55378e-07
1.38381e-08
1.52512e-07
1.27881e-08
1.49803e-07
1.18545e-08
1.47242e-07
1.10207e-08
1.44818e-07
1.02731e-08
1.42524e-07
9.60007e-09
1.40351e-07
8.99192e-09
1.3829e-07
8.44041e-09
1.36334e-07
7.93854e-09
1.34476e-07
7.48031e-09
1.32708e-07
7.0605e-09
1.31026e-07
6.67464e-09
1.29424e-07
6.31876e-09
1.27896e-07
5.98942e-09
1.26438e-07
5.68354e-09
1.25046e-07
5.39837e-09
1.23716e-07
5.13151e-09
1.22446e-07
4.88055e-09
1.21231e-07
4.64384e-09
1.20069e-07
4.41862e-09
1.18959e-07
4.20471e-09
1.17897e-07
3.99741e-09
1.16883e-07
3.80023e-09
1.15915e-07
3.60278e-09
1.14992e-07
3.41758e-09
1.14114e-07
3.22085e-09
1.13279e-07
3.04454e-09
1.1249e-07
2.83888e-09
1.11744e-07
2.66885e-09
1.11044e-07
2.45345e-09
1.10391e-07
2.27174e-09
1.09777e-07
2.11656e-09
1.09216e-07
1.74515e-09
1.08713e-07
2.13829e-09
6.74153e-10
1.07739e-07
2.00819e-07
1.00401e-07
2.03772e-07
9.43724e-08
2.05345e-07
6.56856e-08
2.05646e-07
5.43438e-08
2.04815e-07
4.65864e-08
2.03335e-07
4.0341e-08
2.01387e-07
3.58863e-08
1.99056e-07
3.24248e-08
1.96449e-07
2.94548e-08
1.93668e-07
2.68543e-08
1.90794e-07
2.45781e-08
1.87887e-07
2.2576e-08
1.84991e-07
2.08027e-08
1.82139e-07
1.92237e-08
1.7935e-07
1.78124e-08
1.76642e-07
1.65468e-08
1.74021e-07
1.54084e-08
1.71494e-07
1.43814e-08
1.69063e-07
1.34522e-08
1.66727e-07
1.26091e-08
1.64485e-07
1.18421e-08
1.62335e-07
1.11422e-08
1.60273e-07
1.05019e-08
1.58297e-07
9.91461e-09
1.56403e-07
9.37449e-09
1.54587e-07
8.8764e-09
1.52846e-07
8.41585e-09
1.51176e-07
7.98876e-09
1.49574e-07
7.59157e-09
1.48036e-07
7.22102e-09
1.4656e-07
6.87417e-09
1.45143e-07
6.54839e-09
1.43783e-07
6.24105e-09
1.42477e-07
5.95029e-09
1.41222e-07
5.67303e-09
1.40018e-07
5.409e-09
1.38862e-07
5.15297e-09
1.37754e-07
4.90864e-09
1.36692e-07
4.66464e-09
1.35675e-07
4.43425e-09
1.34704e-07
4.19195e-09
1.33778e-07
3.97112e-09
1.32896e-07
3.72014e-09
1.32061e-07
3.50397e-09
1.3127e-07
3.24501e-09
1.30531e-07
3.0104e-09
1.2983e-07
2.81795e-09
1.29174e-07
2.40046e-09
1.28593e-07
2.71923e-09
1.66557e-09
1.27602e-07
2.06423e-07
9.35108e-08
2.09331e-07
9.14638e-08
2.11056e-07
6.39608e-08
2.11936e-07
5.34637e-08
2.11999e-07
4.65239e-08
2.11613e-07
4.07267e-08
2.10883e-07
3.66165e-08
2.09811e-07
3.34967e-08
2.08436e-07
3.08294e-08
2.06817e-07
2.84732e-08
2.0501e-07
2.63858e-08
2.03062e-07
2.45238e-08
2.01016e-07
2.28483e-08
1.98908e-07
2.13314e-08
1.96768e-07
1.9953e-08
1.94618e-07
1.86969e-08
1.92476e-07
1.75498e-08
1.90358e-07
1.65e-08
1.88273e-07
1.55374e-08
1.86229e-07
1.46531e-08
1.84232e-07
1.38392e-08
1.82285e-07
1.30886e-08
1.80392e-07
1.23951e-08
1.78553e-07
1.17532e-08
1.7677e-07
1.11579e-08
1.75042e-07
1.06046e-08
1.73368e-07
1.00893e-08
1.71749e-07
9.60835e-09
1.70182e-07
9.15828e-09
1.68667e-07
8.73602e-09
1.67202e-07
8.33873e-09
1.65787e-07
7.96378e-09
1.64419e-07
7.60852e-09
1.63099e-07
7.27105e-09
1.61824e-07
6.94815e-09
1.60593e-07
6.63952e-09
1.59406e-07
6.33964e-09
1.58263e-07
6.05226e-09
1.57162e-07
5.76553e-09
1.56103e-07
5.49282e-09
1.55087e-07
5.20825e-09
1.54114e-07
4.94451e-09
1.53182e-07
4.65164e-09
1.52297e-07
4.38941e-09
1.51451e-07
4.09078e-09
1.50658e-07
3.80296e-09
1.49902e-07
3.5738e-09
1.49182e-07
3.12098e-09
1.48547e-07
3.35391e-09
2.63443e-09
1.47578e-07
2.12269e-07
8.69044e-08
2.1514e-07
8.85926e-08
2.16811e-07
6.229e-08
2.17851e-07
5.24239e-08
2.18258e-07
4.61163e-08
2.18374e-07
4.06106e-08
2.18298e-07
3.66934e-08
2.17996e-07
3.37979e-08
2.17465e-07
3.1361e-08
2.16722e-07
2.92164e-08
2.1579e-07
2.73169e-08
2.14697e-07
2.56177e-08
2.13465e-07
2.40795e-08
2.12122e-07
2.26748e-08
2.1069e-07
2.13851e-08
2.0919e-07
2.01966e-08
2.07641e-07
1.90986e-08
2.06059e-07
1.8082e-08
2.04458e-07
1.7139e-08
2.02848e-07
1.6263e-08
2.01239e-07
1.54479e-08
1.99639e-07
1.46885e-08
1.98054e-07
1.39801e-08
1.96489e-07
1.33181e-08
1.94948e-07
1.26988e-08
1.93435e-07
1.21185e-08
1.9195e-07
1.15738e-08
1.90497e-07
1.10616e-08
1.89076e-07
1.0579e-08
1.87689e-07
1.01234e-08
1.86335e-07
9.69215e-09
1.85016e-07
9.28285e-09
1.83732e-07
8.893e-09
1.82482e-07
8.52082e-09
1.81267e-07
8.16312e-09
1.80087e-07
7.81966e-09
1.78942e-07
7.48483e-09
1.77832e-07
7.16235e-09
1.76757e-07
6.84036e-09
1.75718e-07
6.53176e-09
1.74715e-07
6.21149e-09
1.73749e-07
5.90981e-09
1.7282e-07
5.58123e-09
1.71932e-07
5.27661e-09
1.71079e-07
4.94392e-09
1.70275e-07
4.60717e-09
1.69506e-07
4.34264e-09
1.68761e-07
3.86671e-09
1.68106e-07
4.00824e-09
3.54171e-09
1.67199e-07
2.18315e-07
8.05705e-08
2.21189e-07
8.5718e-08
2.22783e-07
6.06958e-08
2.23852e-07
5.13557e-08
2.24368e-07
4.56001e-08
2.24661e-07
4.03169e-08
2.24861e-07
3.64941e-08
2.24938e-07
3.37211e-08
2.24871e-07
3.14273e-08
2.24662e-07
2.94253e-08
2.24315e-07
2.7664e-08
2.23836e-07
2.60971e-08
2.23233e-07
2.46823e-08
2.22518e-07
2.33898e-08
2.21703e-07
2.21999e-08
2.20802e-07
2.10983e-08
2.19826e-07
2.00744e-08
2.18788e-07
1.91198e-08
2.17699e-07
1.82276e-08
2.1657e-07
1.7392e-08
2.1541e-07
1.66081e-08
2.14227e-07
1.58717e-08
2.13028e-07
1.51789e-08
2.1182e-07
1.45263e-08
2.10608e-07
1.39108e-08
2.09397e-07
1.33295e-08
2.08191e-07
1.27799e-08
2.06993e-07
1.22594e-08
2.05806e-07
1.17656e-08
2.04633e-07
1.12963e-08
2.03476e-07
1.08493e-08
2.02337e-07
1.04225e-08
2.01216e-07
1.00136e-08
2.00116e-07
9.62114e-09
1.99037e-07
9.24199e-09
1.97981e-07
8.87605e-09
1.96948e-07
8.51778e-09
1.95939e-07
8.17081e-09
1.94956e-07
7.82362e-09
1.93999e-07
7.4882e-09
1.9307e-07
7.14124e-09
1.9217e-07
6.80936e-09
1.91298e-07
6.45336e-09
1.90461e-07
6.11318e-09
1.89652e-07
5.75343e-09
1.88883e-07
5.37579e-09
1.88147e-07
5.07869e-09
1.87422e-07
4.59167e-09
1.86788e-07
4.64206e-09
4.35061e-09
1.8598e-07
2.24548e-07
7.45154e-08
2.27449e-07
8.28172e-08
2.28979e-07
5.91656e-08
2.30055e-07
5.02804e-08
2.30611e-07
4.50434e-08
2.30953e-07
3.99748e-08
2.31242e-07
3.62051e-08
2.31467e-07
3.34964e-08
2.31609e-07
3.1285e-08
2.31667e-07
2.93672e-08
2.31641e-07
2.76906e-08
2.31528e-07
2.62103e-08
2.31327e-07
2.48828e-08
2.31041e-07
2.36759e-08
2.30673e-07
2.2568e-08
2.30228e-07
2.15436e-08
2.29711e-07
2.05912e-08
2.29129e-07
1.97016e-08
2.28489e-07
1.88678e-08
2.27797e-07
1.8084e-08
2.2706e-07
1.73453e-08
2.26284e-07
1.66477e-08
2.25475e-07
1.59878e-08
2.24639e-07
1.53625e-08
2.2378e-07
1.47693e-08
2.22904e-07
1.42056e-08
2.22015e-07
1.36693e-08
2.21116e-07
1.31582e-08
2.20211e-07
1.26704e-08
2.19303e-07
1.2204e-08
2.18395e-07
1.17572e-08
2.1749e-07
1.13282e-08
2.16588e-07
1.09148e-08
2.15694e-07
1.05159e-08
2.14807e-07
1.01285e-08
2.13931e-07
9.75256e-09
2.13066e-07
9.38276e-09
2.12214e-07
9.02253e-09
2.11377e-07
8.66099e-09
2.10556e-07
8.30884e-09
2.09752e-07
7.94521e-09
2.08969e-07
7.59229e-09
2.08204e-07
7.21814e-09
2.07466e-07
6.85116e-09
2.06748e-07
6.47211e-09
2.0606e-07
6.06388e-09
2.054e-07
5.73844e-09
2.04741e-07
5.2508e-09
2.04168e-07
5.21518e-09
5.02989e-09
2.03488e-07
2.30974e-07
6.87471e-08
2.3391e-07
7.98813e-08
2.35383e-07
5.76924e-08
2.36467e-07
4.91969e-08
2.37056e-07
4.44539e-08
2.37413e-07
3.96177e-08
2.37724e-07
3.58945e-08
2.37995e-07
3.32257e-08
2.38212e-07
3.10673e-08
2.3838e-07
2.91998e-08
2.38498e-07
2.75717e-08
2.38567e-07
2.61419e-08
2.38582e-07
2.48674e-08
2.38543e-07
2.37153e-08
2.38448e-07
2.26631e-08
2.38297e-07
2.16941e-08
2.38092e-07
2.07961e-08
2.37835e-07
1.99591e-08
2.37527e-07
1.91754e-08
2.37173e-07
1.84386e-08
2.36774e-07
1.77437e-08
2.36335e-07
1.70865e-08
2.3586e-07
1.64633e-08
2.35351e-07
1.58711e-08
2.34813e-07
1.53073e-08
2.34249e-07
1.47696e-08
2.33663e-07
1.42558e-08
2.33057e-07
1.37641e-08
2.32435e-07
1.32927e-08
2.31799e-07
1.28399e-08
2.31152e-07
1.2404e-08
2.30497e-07
1.19835e-08
2.29835e-07
1.15764e-08
2.29169e-07
1.11817e-08
2.28501e-07
1.07964e-08
2.27833e-07
1.04207e-08
2.27167e-07
1.00494e-08
2.26504e-07
9.68563e-09
2.25845e-07
9.31939e-09
2.25194e-07
8.95979e-09
2.24551e-07
8.58877e-09
2.23919e-07
8.22373e-09
2.23297e-07
7.84018e-09
2.22693e-07
7.45557e-09
2.221e-07
7.06463e-09
2.21527e-07
6.6366e-09
2.20978e-07
6.28788e-09
2.20421e-07
5.80747e-09
2.19942e-07
5.69416e-09
5.55824e-09
2.19414e-07
2.37601e-07
6.32714e-08
2.40576e-07
7.69063e-08
2.41992e-07
5.62764e-08
2.43082e-07
4.81061e-08
2.43708e-07
4.38278e-08
2.44078e-07
3.92478e-08
2.44394e-07
3.55785e-08
2.44678e-07
3.29425e-08
2.44918e-07
3.08268e-08
2.45122e-07
2.8996e-08
2.45295e-07
2.73986e-08
2.45439e-07
2.59984e-08
2.45551e-07
2.47548e-08
2.45631e-07
2.36351e-08
2.45678e-07
2.26165e-08
2.4569e-07
2.16824e-08
2.45666e-07
2.08198e-08
2.45606e-07
2.00187e-08
2.45511e-07
1.92707e-08
2.45381e-07
1.85691e-08
2.45216e-07
1.79084e-08
2.45018e-07
1.72842e-08
2.44789e-07
1.66925e-08
2.4453e-07
1.613e-08
2.44243e-07
1.55941e-08
2.43931e-07
1.50821e-08
2.43594e-07
1.45921e-08
2.43236e-07
1.41221e-08
2.42859e-07
1.36704e-08
2.42464e-07
1.32352e-08
2.42053e-07
1.28149e-08
2.41628e-07
1.24081e-08
2.41192e-07
1.20129e-08
2.40745e-07
1.16282e-08
2.4029e-07
1.12514e-08
2.39828e-07
1.08823e-08
2.39362e-07
1.05162e-08
2.38891e-07
1.01557e-08
2.38419e-07
9.79173e-09
2.37947e-07
9.43162e-09
2.37476e-07
9.06031e-09
2.37009e-07
8.69038e-09
2.36545e-07
8.30438e-09
2.3609e-07
7.91018e-09
2.35642e-07
7.51339e-09
2.35203e-07
7.07514e-09
2.34783e-07
6.70813e-09
2.34351e-07
6.23948e-09
2.33987e-07
6.05813e-09
5.92778e-09
2.33617e-07
2.44436e-07
5.8092e-08
2.47449e-07
7.38928e-08
2.4881e-07
5.49158e-08
2.49903e-07
4.70126e-08
2.50568e-07
4.31633e-08
2.50954e-07
3.88613e-08
2.51275e-07
3.52579e-08
2.51564e-07
3.26538e-08
2.51812e-07
3.05787e-08
2.52026e-07
2.87814e-08
2.52216e-07
2.72084e-08
2.52386e-07
2.58291e-08
2.52535e-07
2.46055e-08
2.52664e-07
2.35059e-08
2.52773e-07
2.25076e-08
2.52861e-07
2.15944e-08
2.52927e-07
2.07534e-08
2.52972e-07
1.99745e-08
2.52993e-07
1.92491e-08
2.52992e-07
1.85706e-08
2.52967e-07
1.79331e-08
2.52919e-07
1.7332e-08
2.52849e-07
1.67631e-08
2.52756e-07
1.6223e-08
2.52641e-07
1.57086e-08
2.52506e-07
1.52176e-08
2.5235e-07
1.47474e-08
2.52176e-07
1.42962e-08
2.51984e-07
1.38621e-08
2.51776e-07
1.34435e-08
2.51553e-07
1.30385e-08
2.51315e-07
1.26459e-08
2.51064e-07
1.22636e-08
2.50802e-07
1.18907e-08
2.50529e-07
1.15244e-08
2.50246e-07
1.11645e-08
2.49956e-07
1.08066e-08
2.49659e-07
1.04527e-08
2.49356e-07
1.00946e-08
2.4905e-07
9.73796e-09
2.4874e-07
9.37056e-09
2.48429e-07
9.00051e-09
2.48117e-07
8.61643e-09
2.47809e-07
8.21857e-09
2.47502e-07
7.81995e-09
2.47199e-07
7.37868e-09
2.4691e-07
6.99747e-09
2.46607e-07
6.54166e-09
2.46364e-07
6.30158e-09
6.14508e-09
2.46147e-07
2.51488e-07
5.32107e-08
2.5453e-07
7.0851e-08
2.55846e-07
5.35995e-08
2.56937e-07
4.59218e-08
2.57639e-07
4.24612e-08
2.58045e-07
3.84557e-08
2.58371e-07
3.49316e-08
2.58665e-07
3.23598e-08
2.58918e-07
3.03255e-08
2.59137e-07
2.85623e-08
2.59333e-07
2.70129e-08
2.5951e-07
2.56519e-08
2.59671e-07
2.44445e-08
2.59817e-07
2.33597e-08
2.59949e-07
2.23755e-08
2.60068e-07
2.14759e-08
2.60173e-07
2.06486e-08
2.60264e-07
1.98834e-08
2.60341e-07
1.91721e-08
2.60403e-07
1.85079e-08
2.60452e-07
1.7885e-08
2.60485e-07
1.72986e-08
2.60503e-07
1.67445e-08
2.60507e-07
1.62193e-08
2.60496e-07
1.57198e-08
2.6047e-07
1.52432e-08
2.6043e-07
1.47874e-08
2.60377e-07
1.435e-08
2.60309e-07
1.39293e-08
2.60229e-07
1.35235e-08
2.60137e-07
1.31308e-08
2.60033e-07
1.27498e-08
2.59918e-07
1.23786e-08
2.59793e-07
1.20159e-08
2.59658e-07
1.16592e-08
2.59514e-07
1.13082e-08
2.59363e-07
1.09585e-08
2.59204e-07
1.06115e-08
2.59038e-07
1.02602e-08
2.58868e-07
9.90838e-09
2.58692e-07
9.5464e-09
2.58514e-07
9.17851e-09
2.58332e-07
8.79823e-09
2.5815e-07
8.40024e-09
2.57969e-07
8.00167e-09
2.57786e-07
7.56176e-09
2.57614e-07
7.16915e-09
2.57431e-07
6.72427e-09
2.573e-07
6.43328e-09
6.22923e-09
2.57215e-07
2.58766e-07
4.8628e-08
2.61825e-07
6.77915e-08
2.63108e-07
5.23167e-08
2.64191e-07
4.48387e-08
2.64929e-07
4.17237e-08
2.65355e-07
3.80288e-08
2.65689e-07
3.45986e-08
2.65988e-07
3.20602e-08
2.66247e-07
3.00668e-08
2.6647e-07
2.83394e-08
2.66668e-07
2.68145e-08
2.66848e-07
2.54717e-08
2.67013e-07
2.42796e-08
2.67165e-07
2.32082e-08
2.67304e-07
2.22358e-08
2.67433e-07
2.1347e-08
2.67552e-07
2.05298e-08
2.67661e-07
1.97743e-08
2.67761e-07
1.90724e-08
2.67851e-07
1.84175e-08
2.67932e-07
1.7804e-08
2.68004e-07
1.72269e-08
2.68066e-07
1.66823e-08
2.68119e-07
1.61664e-08
2.68163e-07
1.56763e-08
2.68197e-07
1.52092e-08
2.68221e-07
1.47625e-08
2.68237e-07
1.43343e-08
2.68244e-07
1.39226e-08
2.68242e-07
1.35255e-08
2.68231e-07
1.31413e-08
2.68213e-07
1.27685e-08
2.68186e-07
1.24052e-08
2.68152e-07
1.20502e-08
2.6811e-07
1.17007e-08
2.68062e-07
1.13565e-08
2.68007e-07
1.10133e-08
2.67947e-07
1.0672e-08
2.6788e-07
1.03266e-08
2.6781e-07
9.97898e-09
2.67734e-07
9.622e-09
2.67656e-07
9.25667e-09
2.67574e-07
8.88013e-09
2.67491e-07
8.4835e-09
2.67407e-07
8.08524e-09
2.67321e-07
7.64852e-09
2.67244e-07
7.24601e-09
2.6716e-07
6.80798e-09
2.67121e-07
6.47207e-09
6.20729e-09
2.67143e-07
2.66278e-07
4.43426e-08
2.69344e-07
6.47249e-08
2.70604e-07
5.10567e-08
2.71675e-07
4.37675e-08
2.72445e-07
4.0954e-08
2.72895e-07
3.7579e-08
2.73235e-07
3.42581e-08
2.73541e-07
3.17548e-08
2.73805e-07
2.98023e-08
2.74033e-07
2.81122e-08
2.74234e-07
2.66134e-08
2.74416e-07
2.52894e-08
2.74583e-07
2.41127e-08
2.74737e-07
2.30546e-08
2.74879e-07
2.20936e-08
2.75011e-07
2.12148e-08
2.75134e-07
2.04065e-08
2.75249e-07
1.96591e-08
2.75357e-07
1.89648e-08
2.75458e-07
1.8317e-08
2.75551e-07
1.77102e-08
2.75639e-07
1.71397e-08
2.75719e-07
1.66014e-08
2.75794e-07
1.60918e-08
2.75863e-07
1.56078e-08
2.75925e-07
1.51466e-08
2.75982e-07
1.47058e-08
2.76033e-07
1.42833e-08
2.76078e-07
1.38771e-08
2.76118e-07
1.34855e-08
2.76153e-07
1.31066e-08
2.76183e-07
1.2739e-08
2.76207e-07
1.23807e-08
2.76227e-07
1.20306e-08
2.76242e-07
1.16859e-08
2.76252e-07
1.13461e-08
2.76258e-07
1.10074e-08
2.7626e-07
1.06699e-08
2.76258e-07
1.03285e-08
2.76253e-07
9.98385e-09
2.76245e-07
9.63052e-09
2.76234e-07
9.26711e-09
2.76221e-07
8.8932e-09
2.76207e-07
8.49808e-09
2.76192e-07
8.09939e-09
2.76175e-07
7.66584e-09
2.76167e-07
7.25401e-09
2.76157e-07
6.8177e-09
2.76188e-07
6.44112e-09
6.10879e-09
2.76287e-07
2.74032e-07
4.03513e-08
2.77095e-07
6.1662e-08
2.78343e-07
4.98091e-08
2.79398e-07
4.2712e-08
2.80196e-07
4.01559e-08
2.80671e-07
3.71049e-08
2.81019e-07
3.39092e-08
2.81331e-07
3.14437e-08
2.81601e-07
2.95316e-08
2.81833e-07
2.78804e-08
2.82037e-07
2.64091e-08
2.82222e-07
2.51047e-08
2.82391e-07
2.3944e-08
2.82546e-07
2.28995e-08
2.82689e-07
2.19502e-08
2.82823e-07
2.10813e-08
2.82948e-07
2.02817e-08
2.83065e-07
1.9542e-08
2.83175e-07
1.88546e-08
2.83278e-07
1.82132e-08
2.83376e-07
1.76122e-08
2.83469e-07
1.7047e-08
2.83557e-07
1.65138e-08
2.8364e-07
1.60088e-08
2.83718e-07
1.55292e-08
2.83793e-07
1.50722e-08
2.83863e-07
1.46353e-08
2.8393e-07
1.42166e-08
2.83993e-07
1.38139e-08
2.84053e-07
1.34256e-08
2.8411e-07
1.30499e-08
2.84163e-07
1.26854e-08
2.84214e-07
1.23301e-08
2.84262e-07
1.19827e-08
2.84307e-07
1.16408e-08
2.84349e-07
1.13035e-08
2.84389e-07
1.09674e-08
2.84427e-07
1.0632e-08
2.84463e-07
1.02931e-08
2.84497e-07
9.94996e-09
2.84528e-07
9.59876e-09
2.84559e-07
9.23635e-09
2.84589e-07
8.8637e-09
2.84617e-07
8.46958e-09
2.84647e-07
8.06944e-09
2.84675e-07
7.63798e-09
2.84712e-07
7.21689e-09
2.84753e-07
6.77712e-09
2.84831e-07
6.36287e-09
5.96092e-09
2.84979e-07
2.82039e-07
3.66496e-08
2.85087e-07
5.86139e-08
2.86332e-07
4.85646e-08
2.87369e-07
4.1675e-08
2.88191e-07
3.93337e-08
2.88691e-07
3.6605e-08
2.89049e-07
3.35509e-08
2.89366e-07
3.1127e-08
2.89643e-07
2.92548e-08
2.8988e-07
2.76436e-08
2.90087e-07
2.62013e-08
2.90274e-07
2.49176e-08
2.90445e-07
2.37733e-08
2.90602e-07
2.27428e-08
2.90746e-07
2.18055e-08
2.90881e-07
2.09469e-08
2.91007e-07
2.01561e-08
2.91124e-07
1.94242e-08
2.91235e-07
1.87437e-08
2.9134e-07
1.81084e-08
2.91439e-07
1.75129e-08
2.91533e-07
1.69528e-08
2.91623e-07
1.6424e-08
2.91709e-07
1.59232e-08
2.91791e-07
1.54473e-08
2.91869e-07
1.49937e-08
2.91945e-07
1.45598e-08
2.92017e-07
1.41438e-08
2.92088e-07
1.37436e-08
2.92156e-07
1.33575e-08
2.92222e-07
1.29839e-08
2.92286e-07
1.26212e-08
2.92349e-07
1.22676e-08
2.92409e-07
1.19218e-08
2.92469e-07
1.15814e-08
2.92527e-07
1.12453e-08
2.92584e-07
1.09106e-08
2.9264e-07
1.05761e-08
2.92695e-07
1.02383e-08
2.92749e-07
9.89573e-09
2.92802e-07
9.54543e-09
2.92855e-07
9.18324e-09
2.92908e-07
8.81065e-09
2.92961e-07
8.41688e-09
2.93016e-07
8.0144e-09
2.9307e-07
7.58358e-09
2.93134e-07
7.15317e-09
2.93206e-07
6.70539e-09
2.93313e-07
6.25576e-09
5.78563e-09
2.93488e-07
2.90308e-07
3.32308e-08
2.9333e-07
5.55918e-08
2.9458e-07
4.73142e-08
2.95597e-07
4.06585e-08
2.96438e-07
3.84924e-08
2.96964e-07
3.60785e-08
2.97333e-07
3.31817e-08
2.97656e-07
3.08049e-08
2.97939e-07
2.89717e-08
2.98181e-07
2.74014e-08
2.98392e-07
2.59899e-08
2.98582e-07
2.47277e-08
2.98755e-07
2.36005e-08
2.98913e-07
2.25845e-08
2.99059e-07
2.16595e-08
2.99195e-07
2.08114e-08
2.99321e-07
2.00298e-08
2.9944e-07
1.93058e-08
2.99551e-07
1.86324e-08
2.99656e-07
1.80033e-08
2.99756e-07
1.74133e-08
2.9985e-07
1.68582e-08
2.99941e-07
1.63338e-08
3.00027e-07
1.5837e-08
3.0011e-07
1.53646e-08
3.00189e-07
1.4914e-08
3.00266e-07
1.44829e-08
3.00341e-07
1.40692e-08
3.00414e-07
1.3671e-08
3.00484e-07
1.32866e-08
3.00554e-07
1.29145e-08
3.00622e-07
1.25531e-08
3.00689e-07
1.22005e-08
3.00755e-07
1.18556e-08
3.00821e-07
1.1516e-08
3.00885e-07
1.11805e-08
3.0095e-07
1.08464e-08
3.01014e-07
1.05122e-08
3.01077e-07
1.01748e-08
3.01141e-07
9.83212e-09
3.01204e-07
9.48191e-09
3.01268e-07
9.11943e-09
3.01333e-07
8.74612e-09
3.01397e-07
8.35214e-09
3.01465e-07
7.94676e-09
3.01533e-07
7.51515e-09
3.01611e-07
7.07542e-09
3.017e-07
6.61614e-09
3.01823e-07
6.13317e-09
5.59879e-09
3.0201e-07
2.98847e-07
3.00869e-08
3.01831e-07
5.26068e-08
3.03096e-07
4.605e-08
3.0409e-07
3.96639e-08
3.04945e-07
3.76374e-08
3.05499e-07
3.55247e-08
3.05881e-07
3.28003e-08
3.06208e-07
3.04771e-08
3.06498e-07
2.86824e-08
3.06745e-07
2.71536e-08
3.06961e-07
2.57744e-08
3.07154e-07
2.45349e-08
3.07329e-07
2.34253e-08
3.07489e-07
2.24242e-08
3.07637e-07
2.1512e-08
3.07773e-07
2.06748e-08
3.079e-07
1.99025e-08
3.0802e-07
1.91868e-08
3.08131e-07
1.85205e-08
3.08237e-07
1.78978e-08
3.08337e-07
1.73135e-08
3.08431e-07
1.67634e-08
3.08522e-07
1.62435e-08
3.08608e-07
1.57506e-08
3.08691e-07
1.52817e-08
3.08771e-07
1.48341e-08
3.08848e-07
1.44056e-08
3.08923e-07
1.39941e-08
3.08996e-07
1.35978e-08
3.09068e-07
1.3215e-08
3.09138e-07
1.28441e-08
3.09208e-07
1.24837e-08
3.09276e-07
1.2132e-08
3.09344e-07
1.17877e-08
3.09411e-07
1.14486e-08
3.09478e-07
1.11134e-08
3.09545e-07
1.07795e-08
3.09612e-07
1.04452e-08
3.09679e-07
1.01079e-08
3.09746e-07
9.76488e-09
3.09814e-07
9.41432e-09
3.09882e-07
9.05132e-09
3.09951e-07
8.67685e-09
3.10021e-07
8.28227e-09
3.10094e-07
7.87377e-09
3.10169e-07
7.44017e-09
3.10253e-07
6.99126e-09
3.10351e-07
6.51813e-09
3.10481e-07
6.0039e-09
5.41092e-09
3.10668e-07
3.07666e-07
2.72081e-08
3.10603e-07
4.96702e-08
3.11887e-07
4.47653e-08
3.1286e-07
3.86916e-08
3.13723e-07
3.67738e-08
3.14304e-07
3.49437e-08
3.147e-07
3.24052e-08
3.15033e-07
3.01436e-08
3.15329e-07
2.8387e-08
3.15582e-07
2.68998e-08
3.15802e-07
2.55545e-08
3.15998e-07
2.43389e-08
3.16176e-07
2.32476e-08
3.16338e-07
2.22619e-08
3.16487e-07
2.13628e-08
3.16625e-07
2.05369e-08
3.16754e-07
1.97743e-08
3.16873e-07
1.90669e-08
3.16986e-07
1.84081e-08
3.17092e-07
1.77919e-08
3.17192e-07
1.72134e-08
3.17287e-07
1.66684e-08
3.17377e-07
1.61531e-08
3.17464e-07
1.56642e-08
3.17546e-07
1.51988e-08
3.17626e-07
1.47543e-08
3.17703e-07
1.43284e-08
3.17778e-07
1.39192e-08
3.17852e-07
1.35247e-08
3.17923e-07
1.31434e-08
3.17994e-07
1.27737e-08
3.18063e-07
1.24143e-08
3.18132e-07
1.20633e-08
3.182e-07
1.17195e-08
3.18268e-07
1.13808e-08
3.18336e-07
1.10458e-08
3.18403e-07
1.0712e-08
3.18471e-07
1.03776e-08
3.18539e-07
1.00401e-08
3.18607e-07
9.69664e-09
3.18676e-07
9.34555e-09
3.18745e-07
8.98196e-09
3.18816e-07
8.6062e-09
3.18887e-07
8.21077e-09
3.18962e-07
7.79916e-09
3.19039e-07
7.36268e-09
3.19126e-07
6.90482e-09
3.19227e-07
6.41661e-09
3.19358e-07
5.87342e-09
5.22854e-09
3.1954e-07
3.16776e-07
2.4583e-08
3.19653e-07
4.67931e-08
3.20964e-07
4.34544e-08
3.21915e-07
3.77412e-08
3.22782e-07
3.59066e-08
3.23389e-07
3.43363e-08
3.23799e-07
3.19949e-08
3.24139e-07
2.98039e-08
3.24441e-07
2.80854e-08
3.24701e-07
2.66398e-08
3.24925e-07
2.53299e-08
3.25125e-07
2.41394e-08
3.25305e-07
2.30671e-08
3.2547e-07
2.20972e-08
3.25621e-07
2.12118e-08
3.2576e-07
2.03975e-08
3.2589e-07
1.96448e-08
3.26011e-07
1.89462e-08
3.26124e-07
1.82949e-08
3.2623e-07
1.76854e-08
3.26331e-07
1.71129e-08
3.26426e-07
1.65732e-08
3.26516e-07
1.60626e-08
3.26603e-07
1.55778e-08
3.26686e-07
1.5116e-08
3.26766e-07
1.46746e-08
3.26843e-07
1.42513e-08
3.26917e-07
1.38443e-08
3.2699e-07
1.34517e-08
3.27062e-07
1.30719e-08
3.27132e-07
1.27034e-08
3.27202e-07
1.23449e-08
3.2727e-07
1.19947e-08
3.27338e-07
1.16514e-08
3.27406e-07
1.13131e-08
3.27474e-07
1.09782e-08
3.27541e-07
1.06445e-08
3.27609e-07
1.031e-08
3.27676e-07
9.9723e-09
3.27745e-07
9.6285e-09
3.27813e-07
9.27684e-09
3.27883e-07
8.91269e-09
3.27953e-07
8.53566e-09
3.28025e-07
8.13925e-09
3.28099e-07
7.72469e-09
3.28177e-07
7.28471e-09
3.28264e-07
6.81828e-09
3.28366e-07
6.31466e-09
3.28494e-07
5.74509e-09
5.05563e-09
3.28667e-07
3.26186e-07
2.21992e-08
3.28993e-07
4.39864e-08
3.30334e-07
4.21132e-08
3.31264e-07
3.68116e-08
3.3213e-07
3.50407e-08
3.32762e-07
3.3704e-08
3.33189e-07
3.15678e-08
3.33536e-07
2.94575e-08
3.33843e-07
2.77778e-08
3.3411e-07
2.63734e-08
3.34339e-07
2.51002e-08
3.34543e-07
2.39362e-08
3.34726e-07
2.28836e-08
3.34893e-07
2.19301e-08
3.35046e-07
2.10587e-08
3.35187e-07
2.02564e-08
3.35318e-07
1.9514e-08
3.3544e-07
1.88243e-08
3.35554e-07
1.81809e-08
3.35661e-07
1.75783e-08
3.35762e-07
1.70119e-08
3.35858e-07
1.64776e-08
3.35949e-07
1.59717e-08
3.36035e-07
1.54912e-08
3.36118e-07
1.5033e-08
3.36198e-07
1.45948e-08
3.36275e-07
1.41743e-08
3.3635e-07
1.37695e-08
3.36423e-07
1.33788e-08
3.36494e-07
1.30005e-08
3.36564e-07