/*--------------------------------*- C++ -*----------------------------------*\
  =========                 |
  \\      /  F ield         | OpenFOAM: The Open Source CFD Toolbox
   \\    /   O peration     | Website:  https://openfoam.org
    \\  /    A nd           | Version:  7
     \\/     M anipulation  |
\*---------------------------------------------------------------------------*/
FoamFile
{
    version     2.0;
    format      ascii;
    class       volVectorField;
    location    "0.35";
    object      U;
}
// * * * * * * * * * * * * * * * * * * * * * * * * * * * * * * * * * * * * * //

dimensions      [0 1 -1 0 0 0 0];

internalField   nonuniform List<vector> 
70000
(
(0.553413 0.0169782 0)
(0.251413 0.00340051 0)
(0.165917 0.000319076 0)
(0.13243 4.91162e-05 0)
(0.117321 4.41607e-05 0)
(0.107359 5.23203e-05 0)
(0.0993844 4.45153e-05 0)
(0.0929377 3.54357e-05 0)
(0.0876907 2.93961e-05 0)
(0.0833187 2.52572e-05 0)
(0.0795935 2.20945e-05 0)
(0.0763677 1.95591e-05 0)
(0.07354 1.74913e-05 0)
(0.0710363 1.57822e-05 0)
(0.0688006 1.43509e-05 0)
(0.0667894 1.3138e-05 0)
(0.0649684 1.20992e-05 0)
(0.0633103 1.12009e-05 0)
(0.061793 1.04177e-05 0)
(0.0603983 9.72924e-06 0)
(0.0591112 9.11997e-06 0)
(0.0579192 8.57697e-06 0)
(0.0568117 8.08998e-06 0)
(0.0557798 7.65047e-06 0)
(0.0548158 7.25143e-06 0)
(0.0539132 6.88694e-06 0)
(0.0530663 6.55173e-06 0)
(0.0522703 6.24205e-06 0)
(0.0515211 5.95264e-06 0)
(0.0508148 5.68256e-06 0)
(0.0501486 5.42443e-06 0)
(0.0495195 5.18181e-06 0)
(0.0489254 4.94253e-06 0)
(0.0483642 4.71693e-06 0)
(0.0478346 4.48627e-06 0)
(0.0473349 4.26587e-06 0)
(0.046864 4.04164e-06 0)
(0.0464224 3.80283e-06 0)
(0.0460062 3.61286e-06 0)
(0.0456227 3.28754e-06 0)
(0.0452563 3.25656e-06 0)
(0.0449369 2.63715e-06 0)
(0.0446095 3.18e-06 0)
(0.044372 1.63389e-06 0)
(0.0440527 4.0757e-06 0)
(0.0439425 -4.66582e-07 0)
(0.0435375 8.55132e-06 0)
(0.0436556 -6.31145e-06 0)
(0.0430369 3.63572e-05 0)
(0.0402178 -0.00164896 0)
(0.884862 0.0434935 0)
(0.650143 0.0201495 0)
(0.493964 0.00660534 0)
(0.403533 0.00275547 0)
(0.354814 0.00154866 0)
(0.323491 0.00113238 0)
(0.299584 0.000909973 0)
(0.280367 0.000745414 0)
(0.264646 0.00062276 0)
(0.251517 0.000532317 0)
(0.240328 0.000463656 0)
(0.230638 0.000409616 0)
(0.222143 0.000365945 0)
(0.214619 0.000329994 0)
(0.207897 0.000299964 0)
(0.201849 0.000274563 0)
(0.196371 0.00025284 0)
(0.191382 0.000234082 0)
(0.186815 0.000217743 0)
(0.182616 0.0002034 0)
(0.17874 0.000190721 0)
(0.17515 0.000179437 0)
(0.171813 0.000169336 0)
(0.168702 0.00016024 0)
(0.165796 0.000152004 0)
(0.163073 0.000144505 0)
(0.160518 0.00013764 0)
(0.158115 0.00013132 0)
(0.155852 0.000125465 0)
(0.153717 0.000120011 0)
(0.151701 0.000114886 0)
(0.149796 0.000110051 0)
(0.147995 0.000105425 0)
(0.146292 0.000101002 0)
(0.144681 9.66632e-05 0)
(0.143158 9.24634e-05 0)
(0.14172 8.82103e-05 0)
(0.140367 8.40439e-05 0)
(0.139088 7.96945e-05 0)
(0.137903 7.53261e-05 0)
(0.13677 7.08153e-05 0)
(0.135768 6.5843e-05 0)
(0.134754 6.1611e-05 0)
(0.133986 5.50383e-05 0)
(0.133018 5.35257e-05 0)
(0.132609 4.17501e-05 0)
(0.13148 5.61836e-05 0)
(0.131681 2.99221e-06 0)
(0.130169 0.000280985 0)
(0.127562 -0.00256754 0)
(0.991209 0.049956 0)
(0.89092 0.0305638 0)
(0.76248 0.0146121 0)
(0.656511 0.00797242 0)
(0.585394 0.00488123 0)
(0.536012 0.0034762 0)
(0.498107 0.00274009 0)
(0.467463 0.00224592 0)
(0.442134 0.00188233 0)
(0.42081 0.00161087 0)
(0.402543 0.00140359 0)
(0.386665 0.00124043 0)
(0.372701 0.00110865 0)
(0.360302 0.00100016 0)
(0.349203 0.000909512 0)
(0.339196 0.000832801 0)
(0.33012 0.000767174 0)
(0.321842 0.000710482 0)
(0.314255 0.000661089 0)
(0.307272 0.000617719 0)
(0.300821 0.000579373 0)
(0.294839 0.00054525 0)
(0.289275 0.000514704 0)
(0.284085 0.000487204 0)
(0.279232 0.000462314 0)
(0.274682 0.000439666 0)
(0.270409 0.000418948 0)
(0.266388 0.000399894 0)
(0.262597 0.00038227 0)
(0.259019 0.000365876 0)
(0.255638 0.000350517 0)
(0.252438 0.00033605 0)
(0.24941 0.000322274 0)
(0.246542 0.000309124 0)
(0.243826 0.000296315 0)
(0.241253 0.000283945 0)
(0.238818 0.000271487 0)
(0.23652 0.000259396 0)
(0.234343 0.000246626 0)
(0.232314 0.000234327 0)
(0.230373 0.000220566 0)
(0.228632 0.000207522 0)
(0.226886 0.000192509 0)
(0.225505 0.000177727 0)
(0.223855 0.00016389 0)
(0.223009 0.000142653 0)
(0.221192 0.000152858 0)
(0.221221 5.25572e-05 0)
(0.218893 0.000446346 0)
(0.217868 -0.00236418 0)
(1.01554 0.0489542 0)
(1.00649 0.0357257 0)
(0.935878 0.0208216 0)
(0.851993 0.0135012 0)
(0.782206 0.00920073 0)
(0.727045 0.00678618 0)
(0.681942 0.00539011 0)
(0.644165 0.00444906 0)
(0.612135 0.00375462 0)
(0.584654 0.00322897 0)
(0.560785 0.00282297 0)
(0.53982 0.00250123 0)
(0.521233 0.00224025 0)
(0.504619 0.00202464 0)
(0.489664 0.00184392 0)
(0.476121 0.00169059 0)
(0.463788 0.00155911 0)
(0.452502 0.00144532 0)
(0.442129 0.001346 0)
(0.432558 0.00125868 0)
(0.423694 0.00118137 0)
(0.41546 0.00111251 0)
(0.407787 0.00105082 0)
(0.400618 0.000995249 0)
(0.393904 0.000944932 0)
(0.387602 0.000899138 0)
(0.381674 0.000857251 0)
(0.376089 0.000818739 0)
(0.370818 0.000783141 0)
(0.365835 0.000750056 0)
(0.361121 0.000719108 0)
(0.356654 0.000689999 0)
(0.352421 0.000662362 0)
(0.348405 0.000636032 0)
(0.344595 0.000610505 0)
(0.340981 0.000585916 0)
(0.337552 0.000561288 0)
(0.334307 0.000537516 0)
(0.331225 0.000512408 0)
(0.328337 0.000488676 0)
(0.325572 0.000461416 0)
(0.32306 0.00043718 0)
(0.320563 0.000406082 0)
(0.318503 0.00038084 0)
(0.316164 0.000346984 0)
(0.31475 0.000315857 0)
(0.312297 0.00030875 0)
(0.311883 0.000175894 0)
(0.30892 0.000580437 0)
(0.308408 -0.00179861 0)
(1.01435 0.0460987 0)
(1.04798 0.0373432 0)
(1.02456 0.0241899 0)
(0.974665 0.0175613 0)
(0.923457 0.0131129 0)
(0.876717 0.0102094 0)
(0.834542 0.00834937 0)
(0.796784 0.00702671 0)
(0.763216 0.00601603 0)
(0.733395 0.00522866 0)
(0.706807 0.00460695 0)
(0.68298 0.00410642 0)
(0.661517 0.00369564 0)
(0.642085 0.00335315 0)
(0.624409 0.00306391 0)
(0.608259 0.00281694 0)
(0.593442 0.00260405 0)
(0.579796 0.00241895 0)
(0.567185 0.00225678 0)
(0.555492 0.0021137 0)
(0.544618 0.00198668 0)
(0.534478 0.00187325 0)
(0.524998 0.00177141 0)
(0.516114 0.0016795 0)
(0.507771 0.00159615 0)
(0.49992 0.00152021 0)
(0.492519 0.00145068 0)
(0.48553 0.00138671 0)
(0.47892 0.00132756 0)
(0.472661 0.00127259 0)
(0.466728 0.00122119 0)
(0.461096 0.00117288 0)
(0.455748 0.00112709 0)
(0.450665 0.00108353 0)
(0.445834 0.00104142 0)
(0.441241 0.00100094 0)
(0.436873 0.000960591 0)
(0.432728 0.000921753 0)
(0.428784 0.000880915 0)
(0.425069 0.000842583 0)
(0.42151 0.000798395 0)
(0.418238 0.000759977 0)
(0.415013 0.000709068 0)
(0.412255 0.000670499 0)
(0.409258 0.000612359 0)
(0.407193 0.000568289 0)
(0.404183 0.000537782 0)
(0.403107 0.000376518 0)
(0.399786 0.000760733 0)
(0.398752 -0.00119534 0)
(1.00941 0.0430484 0)
(1.05564 0.0370988 0)
(1.05867 0.025332 0)
(1.03629 0.0197671 0)
(1.0071 0.0158021 0)
(0.976079 0.0129383 0)
(0.944541 0.0109669 0)
(0.913664 0.00948367 0)
(0.884304 0.00829244 0)
(0.856842 0.00732488 0)
(0.831354 0.00653534 0)
(0.807777 0.00588332 0)
(0.78599 0.00533741 0)
(0.76585 0.00487486 0)
(0.747212 0.00447903 0)
(0.729934 0.0041373 0)
(0.713886 0.00383996 0)
(0.698951 0.00357938 0)
(0.685021 0.0033495 0)
(0.672003 0.00314548 0)
(0.659812 0.00296341 0)
(0.648373 0.00280008 0)
(0.63762 0.00265285 0)
(0.627494 0.00251953 0)
(0.617941 0.00239826 0)
(0.608916 0.00228746 0)
(0.600377 0.0021858 0)
(0.592285 0.0020921 0)
(0.58461 0.00200533 0)
(0.57732 0.0019246 0)
(0.570389 0.00184907 0)
(0.563794 0.00177805 0)
(0.557516 0.00171076 0)
(0.551533 0.00164675 0)
(0.545833 0.00158501 0)
(0.540399 0.00152568 0)
(0.53522 0.00146677 0)
(0.53029 0.00141011 0)
(0.525588 0.00135089 0)
(0.521137 0.00129529 0)
(0.516872 0.00123171 0)
(0.512908 0.00117633 0)
(0.509032 0.00110347 0)
(0.505614 0.00104818 0)
(0.502034 0.000964587 0)
(0.499309 0.000902145 0)
(0.49584 0.000848663 0)
(0.494007 0.000655475 0)
(0.490493 0.0010149 0)
(0.488666 -0.000552605 0)
(1.00635 0.0401805 0)
(1.05241 0.0361525 0)
(1.06605 0.025256 0)
(1.05952 0.020573 0)
(1.04687 0.0172303 0)
(1.03081 0.0146578 0)
(1.0119 0.012827 0)
(0.991204 0.011401 0)
(0.969787 0.0102033 0)
(0.948377 0.00918776 0)
(0.927416 0.008328 0)
(0.907166 0.00759574 0)
(0.887773 0.00696647 0)
(0.869305 0.00642145 0)
(0.851783 0.00594626 0)
(0.835193 0.00552947 0)
(0.819503 0.00516183 0)
(0.804671 0.00483582 0)
(0.79065 0.00454527 0)
(0.777389 0.00428509 0)
(0.76484 0.00405105 0)
(0.752956 0.00383964 0)
(0.741692 0.0036479 0)
(0.731005 0.0034733 0)
(0.720857 0.00331371 0)
(0.711212 0.00316729 0)
(0.702035 0.00303242 0)
(0.693296 0.00290769 0)
(0.684967 0.00279186 0)
(0.677023 0.00268382 0)
(0.669441 0.00258255 0)
(0.662199 0.00248715 0)
(0.65528 0.00239667 0)
(0.648664 0.00231053 0)
(0.64234 0.00222745 0)
(0.636293 0.00214759 0)
(0.630511 0.00206847 0)
(0.624988 0.00199227 0)
(0.619706 0.00191311 0)
(0.614684 0.00183843 0)
(0.609866 0.00175412 0)
(0.605346 0.00167963 0)
(0.600951 0.00158409 0)
(0.59698 0.00150886 0)
(0.592935 0.00140068 0)
(0.589625 0.00131415 0)
(0.585805 0.00124029 0)
(0.583266 0.00101413 0)
(0.57961 0.00133921 0)
(0.577117 0.000139072 0)
(1.00506 0.0375034 0)
(1.04762 0.0350545 0)
(1.06395 0.0247092 0)
(1.06417 0.0206052 0)
(1.06067 0.0177699 0)
(1.05476 0.0155002 0)
(1.04599 0.0138849 0)
(1.03478 0.012624 0)
(1.02186 0.0115372 0)
(1.00783 0.0105847 0)
(0.993137 0.00975258 0)
(0.978141 0.009023 0)
(0.963104 0.0083791 0)
(0.948221 0.00780778 0)
(0.933626 0.00729882 0)
(0.919413 0.00684383 0)
(0.905638 0.00643567 0)
(0.892337 0.00606828 0)
(0.879528 0.00573649 0)
(0.867213 0.00543585 0)
(0.855389 0.00516256 0)
(0.844047 0.00491336 0)
(0.833171 0.00468541 0)
(0.822745 0.00447626 0)
(0.812752 0.00428378 0)
(0.803172 0.00410607 0)
(0.793988 0.00394148 0)
(0.785181 0.0037885 0)
(0.776732 0.00364581 0)
(0.768626 0.00351217 0)
(0.760846 0.00338647 0)
(0.753376 0.00326769 0)
(0.746205 0.00315475 0)
(0.739319 0.00304696 0)
(0.732706 0.00294287 0)
(0.726357 0.0028426 0)
(0.720263 0.00274333 0)
(0.714417 0.00264742 0)
(0.708808 0.00254827 0)
(0.703448 0.00245403 0)
(0.698296 0.00234904 0)
(0.693424 0.00225441 0)
(0.688699 0.00213682 0)
(0.684353 0.00203948 0)
(0.680006 0.00190874 0)
(0.676264 0.00179422 0)
(0.672221 0.00170168 0)
(0.669136 0.00144702 0)
(0.665382 0.00172554 0)
(0.662428 0.0008563 0)
(1.00451 0.0349677 0)
(1.04359 0.033975 0)
(1.05993 0.0240591 0)
(1.06221 0.0203168 0)
(1.06249 0.0178361 0)
(1.06182 0.0157811 0)
(1.05923 0.0143398 0)
(1.05467 0.0132447 0)
(1.04844 0.0123001 0)
(1.04087 0.0114595 0)
(1.03222 0.0107119 0)
(1.02275 0.0100432 0)
(1.0127 0.00944062 0)
(1.00225 0.00889462 0)
(0.991573 0.00839831 0)
(0.980795 0.00794613 0)
(0.970021 0.00753332 0)
(0.95933 0.0071557 0)
(0.948784 0.00680958 0)
(0.938428 0.00649169 0)
(0.928295 0.00619913 0)
(0.918408 0.00592932 0)
(0.908783 0.00567997 0)
(0.89943 0.00544901 0)
(0.890352 0.00523462 0)
(0.881551 0.00503511 0)
(0.873027 0.00484899 0)
(0.864775 0.00467485 0)
(0.856791 0.00451144 0)
(0.849069 0.00435754 0)
(0.841604 0.00421205 0)
(0.834387 0.00407394 0)
(0.827415 0.00394208 0)
(0.820679 0.00381573 0)
(0.814175 0.00369335 0)
(0.807896 0.00357503 0)
(0.801839 0.00345774 0)
(0.796001 0.00334392 0)
(0.790373 0.00322653 0)
(0.784967 0.00311398 0)
(0.779755 0.00298998 0)
(0.77479 0.00287579 0)
(0.769975 0.00273817 0)
(0.765483 0.00261825 0)
(0.761041 0.00246771 0)
(0.757079 0.00232417 0)
(0.752976 0.0022136 0)
(0.749567 0.00193813 0)
(0.745806 0.00216137 0)
(0.742611 0.0015711 0)
(1.00412 0.0325372 0)
(1.04026 0.032922 0)
(1.05616 0.0234252 0)
(1.05886 0.0199334 0)
(1.06022 0.0177084 0)
(1.06159 0.0157853 0)
(1.06195 0.0144456 0)
(1.06104 0.0134659 0)
(1.05897 0.0126371 0)
(1.05584 0.0119022 0)
(1.05174 0.0112475 0)
(1.04679 0.0106588 0)
(1.04111 0.0101231 0)
(1.03482 0.00963155 0)
(1.02805 0.00917843 0)
(1.0209 0.00875949 0)
(1.01346 0.00837136 0)
(1.00583 0.00801115 0)
(0.99808 0.00767638 0)
(0.99026 0.00736482 0)
(0.982424 0.00707447 0)
(0.974615 0.00680352 0)
(0.966864 0.00655033 0)
(0.959201 0.00631337 0)
(0.951645 0.00609126 0)
(0.944215 0.0058827 0)
(0.936923 0.00568648 0)
(0.929778 0.00550144 0)
(0.922789 0.00532652 0)
(0.91596 0.00516065 0)
(0.909296 0.00500285 0)
(0.902797 0.00485213 0)
(0.896467 0.00470744 0)
(0.890305 0.00456804 0)
(0.884312 0.00443239 0)
(0.878489 0.00430057 0)
(0.872835 0.00416946 0)
(0.867351 0.0040415 0)
(0.862036 0.00390948 0)
(0.8569 0.00378169 0)
(0.851925 0.00364202 0)
(0.847153 0.00351059 0)
(0.842517 0.00335635 0)
(0.83814 0.00321538 0)
(0.833839 0.00304846 0)
(0.829902 0.00287784 0)
(0.82593 0.00274971 0)
(0.822446 0.00246231 0)
(0.818816 0.00262581 0)
(0.815611 0.00225553 0)
(1.00374 0.0302031 0)
(1.03727 0.0318733 0)
(1.05283 0.0228225 0)
(1.05562 0.0195323 0)
(1.05713 0.0175194 0)
(1.05905 0.0156853 0)
(1.06048 0.0143933 0)
(1.06115 0.0134771 0)
(1.06115 0.0127218 0)
(1.06049 0.012061 0)
(1.05917 0.0114785 0)
(1.05722 0.0109588 0)
(1.05465 0.0104873 0)
(1.05153 0.0100542 0)
(1.04791 0.00965319 0)
(1.04385 0.00927989 0)
(1.03941 0.00893112 0)
(1.03464 0.00860438 0)
(1.02962 0.00829765 0)
(1.02437 0.00800921 0)
(1.01896 0.0077376 0)
(1.01343 0.00748151 0)
(1.0078 0.00723976 0)
(1.00212 0.00701128 0)
(0.996403 0.00679507 0)
(0.990683 0.00659019 0)
(0.984977 0.00639574 0)
(0.979302 0.00621083 0)
(0.973675 0.00603462 0)
(0.968107 0.00586627 0)
(0.962608 0.00570491 0)
(0.957189 0.00554974 0)
(0.951856 0.00539974 0)
(0.946615 0.00525431 0)
(0.941474 0.00511189 0)
(0.936435 0.00497263 0)
(0.931506 0.00483338 0)
(0.926689 0.00469652 0)
(0.921988 0.00455495 0)
(0.917414 0.00441645 0)
(0.912957 0.00426579 0)
(0.908651 0.004121 0)
(0.904451 0.00395468 0)
(0.900446 0.00379604 0)
(0.896516 0.00361677 0)
(0.892851 0.00342342 0)
(0.889207 0.00327884 0)
(0.885896 0.00298794 0)
(0.882558 0.0030917 0)
(0.879566 0.00288175 0)
(1.00337 0.0279677 0)
(1.03443 0.0308166 0)
(1.04972 0.0222448 0)
(1.05265 0.0191285 0)
(1.05413 0.0173119 0)
(1.0561 0.0155561 0)
(1.0578 0.0142864 0)
(1.059 0.0134011 0)
(1.05981 0.0126863 0)
(1.06026 0.0120687 0)
(1.06034 0.0115311 0)
(1.06002 0.0110578 0)
(1.0593 0.0106335 0)
(1.05818 0.0102468 0)
(1.05668 0.00989045 0)
(1.05482 0.00955949 0)
(1.05261 0.00925021 0)
(1.05009 0.00895981 0)
(1.04729 0.00868615 0)
(1.04423 0.00842749 0)
(1.04095 0.00818246 0)
(1.03748 0.00794987 0)
(1.03385 0.00772874 0)
(1.03008 0.00751816 0)
(1.0262 0.00731736 0)
(1.02222 0.00712559 0)
(1.01818 0.00694216 0)
(1.01408 0.00676638 0)
(1.00995 0.0065976 0)
(1.0058 0.00643512 0)
(1.00164 0.00627824 0)
(0.997488 0.00612626 0)
(0.993351 0.00597828 0)
(0.989238 0.00583378 0)
(0.98516 0.00569125 0)
(0.981123 0.00555087 0)
(0.977136 0.00540955 0)
(0.973206 0.00526954 0)
(0.969337 0.00512403 0)
(0.965543 0.00498006 0)
(0.961819 0.00482372 0)
(0.958191 0.00467034 0)
(0.954636 0.00449702 0)
(0.95121 0.00432536 0)
(0.947847 0.00413808 0)
(0.944661 0.00392792 0)
(0.941517 0.00376877 0)
(0.938593 0.00348166 0)
(0.935699 0.00352897 0)
(0.933108 0.00342496 0)
(1.00301 0.0258346 0)
(1.03171 0.0297477 0)
(1.04672 0.0216882 0)
(1.04986 0.0187218 0)
(1.05131 0.0170927 0)
(1.05325 0.01542 0)
(1.05498 0.0141657 0)
(1.0563 0.0132966 0)
(1.05734 0.012605 0)
(1.05818 0.0120111 0)
(1.05881 0.0114979 0)
(1.05923 0.0110512 0)
(1.05942 0.0106555 0)
(1.05937 0.0102989 0)
(1.05907 0.00997345 0)
(1.05853 0.00967361 0)
(1.05774 0.00939516 0)
(1.05671 0.00913487 0)
(1.05545 0.00889022 0)
(1.05398 0.00865924 0)
(1.0523 0.00844032 0)
(1.05044 0.00823218 0)
(1.04841 0.00803375 0)
(1.04622 0.00784412 0)
(1.04389 0.00766251 0)
(1.04144 0.0074882 0)
(1.03889 0.00732057 0)
(1.03623 0.00715901 0)
(1.0335 0.00700293 0)
(1.03071 0.00685173 0)
(1.02786 0.00670478 0)
(1.02496 0.00656148 0)
(1.02204 0.00642097 0)
(1.01909 0.0062828 0)
(1.01612 0.00614549 0)
(1.01316 0.00600924 0)
(1.01019 0.00587104 0)
(1.00724 0.00573293 0)
(1.0043 0.00558853 0)
(1.00139 0.00544395 0)
(0.998513 0.00528691 0)
(0.995683 0.00512969 0)
(0.992891 0.0049542 0)
(0.990175 0.00477454 0)
(0.987499 0.00458333 0)
(0.98493 0.00436276 0)
(0.982402 0.00419152 0)
(0.980014 0.00391358 0)
(0.977676 0.00390986 0)
(0.975616 0.0038655 0)
(1.00268 0.0238063 0)
(1.02911 0.028665 0)
(1.04381 0.0211525 0)
(1.04717 0.0183121 0)
(1.04862 0.0168601 0)
(1.05053 0.0152794 0)
(1.05225 0.0140424 0)
(1.05358 0.0131849 0)
(1.05465 0.0125097 0)
(1.05558 0.0119307 0)
(1.0564 0.0114311 0)
(1.05708 0.0109987 0)
(1.05763 0.0106186 0)
(1.05805 0.010279 0)
(1.05832 0.00997195 0)
(1.05845 0.00969149 0)
(1.05843 0.0094332 0)
(1.05825 0.00919357 0)
(1.05791 0.00896982 0)
(1.05743 0.00875971 0)
(1.05679 0.00856141 0)
(1.05601 0.00837345 0)
(1.05509 0.00819458 0)
(1.05403 0.00802376 0)
(1.05286 0.00786011 0)
(1.05156 0.00770284 0)
(1.05016 0.00755128 0)
(1.04867 0.00740479 0)
(1.04708 0.00726278 0)
(1.04541 0.00712465 0)
(1.04367 0.00698977 0)
(1.04187 0.00685758 0)
(1.04002 0.00672721 0)
(1.03811 0.00659825 0)
(1.03617 0.00646922 0)
(1.03419 0.00634028 0)
(1.03219 0.00620853 0)
(1.03017 0.00607572 0)
(1.02814 0.005936 0)
(1.0261 0.00579437 0)
(1.02407 0.00564037 0)
(1.02205 0.00548314 0)
(1.02003 0.00530925 0)
(1.01806 0.00512604 0)
(1.0161 0.00493416 0)
(1.0142 0.00470895 0)
(1.01233 0.00452816 0)
(1.01054 0.00426234 0)
(1.00881 0.00421392 0)
(1.00734 0.00419181 0)
(1.00238 0.0218846 0)
(1.02664 0.0275678 0)
(1.04099 0.0206372 0)
(1.04456 0.0179009 0)
(1.04603 0.0166129 0)
(1.04791 0.0151331 0)
(1.04963 0.0139176 0)
(1.05095 0.0130708 0)
(1.05201 0.0124104 0)
(1.05295 0.0118437 0)
(1.05379 0.0113535 0)
(1.05454 0.0109297 0)
(1.05521 0.0105584 0)
(1.05579 0.0102284 0)
(1.05629 0.00993141 0)
(1.0567 0.00966187 0)
(1.05702 0.00941527 0)
(1.05726 0.00918805 0)
(1.05739 0.00897731 0)
(1.05744 0.00878069 0)
(1.05738 0.00859624 0)
(1.05723 0.00842233 0)
(1.05698 0.00825759 0)
(1.05664 0.00810085 0)
(1.05621 0.00795111 0)
(1.05568 0.00780749 0)
(1.05507 0.00766922 0)
(1.05438 0.00753559 0)
(1.05362 0.00740595 0)
(1.05278 0.00727968 0)
(1.05188 0.00715611 0)
(1.05091 0.00703466 0)
(1.04989 0.00691443 0)
(1.04882 0.00679499 0)
(1.0477 0.00667486 0)
(1.04653 0.00655412 0)
(1.04534 0.00642998 0)
(1.04411 0.00630383 0)
(1.04285 0.00617042 0)
(1.04158 0.00603355 0)
(1.04029 0.00588461 0)
(1.03899 0.00572971 0)
(1.03769 0.00555962 0)
(1.03639 0.00537609 0)
(1.0351 0.00518551 0)
(1.03383 0.00495999 0)
(1.03258 0.00477172 0)
(1.03138 0.0045185 0)
(1.03023 0.00443121 0)
(1.02933 0.00440315 0)
(1.0021 0.0200704 0)
(1.0243 0.0264578 0)
(1.03826 0.0201401 0)
(1.04204 0.0174902 0)
(1.04353 0.0163511 0)
(1.04537 0.0149796 0)
(1.0471 0.0137908 0)
(1.04842 0.0129548 0)
(1.04947 0.012309 0)
(1.05039 0.0117546 0)
(1.05123 0.0112729 0)
(1.05198 0.0108557 0)
(1.05266 0.0104907 0)
(1.05329 0.0101666 0)
(1.05385 0.00987569 0)
(1.05436 0.0096124 0)
(1.05481 0.0093724 0)
(1.05521 0.00915218 0)
(1.05555 0.00894889 0)
(1.05583 0.00876016 0)
(1.05606 0.008584 0)
(1.05622 0.00841873 0)
(1.05633 0.00826292 0)
(1.05637 0.00811533 0)
(1.05636 0.00797489 0)
(1.05628 0.00784063 0)
(1.05615 0.00771173 0)
(1.05596 0.00758741 0)
(1.05571 0.00746696 0)
(1.05541 0.00734973 0)
(1.05506 0.00723498 0)
(1.05467 0.00712212 0)
(1.05422 0.00701021 0)
(1.05373 0.00689878 0)
(1.05321 0.00678634 0)
(1.05264 0.00667285 0)
(1.05204 0.00655568 0)
(1.05141 0.0064358 0)
(1.05075 0.00630857 0)
(1.05007 0.00617662 0)
(1.04936 0.00603307 0)
(1.04864 0.00588133 0)
(1.04791 0.00571563 0)
(1.04718 0.00553352 0)
(1.04643 0.00534486 0)
(1.0457 0.00512157 0)
(1.04497 0.00492709 0)
(1.04428 0.00468473 0)
(1.04364 0.00456322 0)
(1.04324 0.00450911 0)
(1.00185 0.0183639 0)
(1.0221 0.0253393 0)
(1.03563 0.0196575 0)
(1.0396 0.0170817 0)
(1.04112 0.0160752 0)
(1.04293 0.0148181 0)
(1.04465 0.0136615 0)
(1.04597 0.0128365 0)
(1.04702 0.0122056 0)
(1.04793 0.0116641 0)
(1.04875 0.011191 0)
(1.04949 0.0107802 0)
(1.05017 0.0104206 0)
(1.05079 0.0101014 0)
(1.05136 0.00981498 0)
(1.05188 0.00955593 0)
(1.05237 0.0093201 0)
(1.05282 0.00910411 0)
(1.05323 0.00890517 0)
(1.0536 0.00872098 0)
(1.05394 0.00854956 0)
(1.05424 0.00838927 0)
(1.0545 0.00823865 0)
(1.05473 0.00809646 0)
(1.05492 0.00796159 0)
(1.05507 0.00783304 0)
(1.05519 0.00770995 0)
(1.05527 0.00759152 0)
(1.05531 0.007477 0)
(1.05532 0.0073657 0)
(1.0553 0.00725686 0)
(1.05524 0.00714987 0)
(1.05515 0.00704375 0)
(1.05503 0.00693801 0)
(1.05488 0.00683116 0)
(1.0547 0.00672303 0)
(1.0545 0.00661114 0)
(1.05427 0.00649607 0)
(1.05402 0.00637377 0)
(1.05375 0.00624578 0)
(1.05346 0.00610673 0)
(1.05316 0.0059578 0)
(1.05284 0.00579586 0)
(1.05252 0.00561561 0)
(1.05218 0.00542842 0)
(1.05185 0.00520823 0)
(1.05153 0.00500799 0)
(1.05124 0.00477314 0)
(1.05099 0.00462072 0)
(1.05097 0.00452713 0)
(1.00162 0.016765 0)
(1.02004 0.0242164 0)
(1.0331 0.0191853 0)
(1.03725 0.016677 0)
(1.0388 0.0157865 0)
(1.04057 0.014648 0)
(1.04229 0.0135294 0)
(1.04362 0.012716 0)
(1.04466 0.0120998 0)
(1.04555 0.0115719 0)
(1.04636 0.011108 0)
(1.04709 0.0107038 0)
(1.04775 0.0103496 0)
(1.04836 0.0100351 0)
(1.04892 0.00975273 0)
(1.04945 0.00949729 0)
(1.04993 0.00926475 0)
(1.05039 0.00905185 0)
(1.05081 0.00885589 0)
(1.05121 0.00867463 0)
(1.05158 0.00850615 0)
(1.05192 0.00834883 0)
(1.05225 0.00820125 0)
(1.05254 0.00806216 0)
(1.05282 0.00793046 0)
(1.05307 0.00780517 0)
(1.05329 0.00768538 0)
(1.0535 0.00757031 0)
(1.05368 0.00745918 0)
(1.05384 0.00735131 0)
(1.05399 0.00724592 0)
(1.05411 0.00714238 0)
(1.05421 0.00703974 0)
(1.0543 0.00693743 0)
(1.05436 0.00683402 0)
(1.05441 0.00672921 0)
(1.05444 0.00662069 0)
(1.05445 0.00650865 0)
(1.05445 0.00638961 0)
(1.05444 0.00626414 0)
(1.05441 0.00612815 0)
(1.05438 0.00598106 0)
(1.05433 0.0058216 0)
(1.05428 0.00564283 0)
(1.05422 0.00545606 0)
(1.05416 0.0052386 0)
(1.05411 0.00503247 0)
(1.0541 0.00480095 0)
(1.05414 0.00461971 0)
(1.05439 0.00447878 0)
(1.00142 0.0152728 0)
(1.01811 0.0230932 0)
(1.03067 0.0187196 0)
(1.03499 0.0162776 0)
(1.03657 0.0154861 0)
(1.03831 0.0144685 0)
(1.04002 0.0133942 0)
(1.04135 0.0125933 0)
(1.04238 0.0119916 0)
(1.04327 0.0114778 0)
(1.04406 0.0110237 0)
(1.04478 0.0106264 0)
(1.04543 0.0102778 0)
(1.04603 0.00996812 0)
(1.04658 0.00968985 0)
(1.04709 0.00943792 0)
(1.04757 0.00920846 0)
(1.04802 0.00899832 0)
(1.04844 0.00880487 0)
(1.04883 0.00862593 0)
(1.0492 0.00845964 0)
(1.04956 0.00830441 0)
(1.04989 0.00815884 0)
(1.05021 0.00802171 0)
(1.0505 0.00789193 0)
(1.05079 0.00776852 0)
(1.05106 0.00765058 0)
(1.05131 0.00753733 0)
(1.05155 0.00742801 0)
(1.05178 0.00732192 0)
(1.05199 0.0072183 0)
(1.0522 0.00711653 0)
(1.05239 0.00701564 0)
(1.05257 0.00691506 0)
(1.05274 0.00681342 0)
(1.0529 0.00671026 0)
(1.05306 0.0066035 0)
(1.0532 0.00649293 0)
(1.05334 0.00637561 0)
(1.05346 0.0062513 0)
(1.05358 0.00611692 0)
(1.0537 0.00597061 0)
(1.05381 0.00581224 0)
(1.05392 0.0056342 0)
(1.05402 0.00544668 0)
(1.05414 0.00523089 0)
(1.05425 0.00501849 0)
(1.05441 0.00478601 0)
(1.05463 0.00457732 0)
(1.05504 0.00438538 0)
(1.00124 0.0138859 0)
(1.01632 0.0219737 0)
(1.02835 0.0182565 0)
(1.03281 0.0158848 0)
(1.03444 0.0151759 0)
(1.03614 0.0142793 0)
(1.03784 0.0132555 0)
(1.03917 0.0124683 0)
(1.0402 0.0118809 0)
(1.04108 0.0113817 0)
(1.04186 0.0109381 0)
(1.04257 0.010548 0)
(1.04321 0.0102053 0)
(1.04379 0.00990052 0)
(1.04433 0.00962647 0)
(1.04483 0.00937813 0)
(1.0453 0.00915178 0)
(1.04573 0.00894437 0)
(1.04614 0.00875334 0)
(1.04653 0.00857657 0)
(1.0469 0.00841223 0)
(1.04724 0.00825878 0)
(1.04757 0.00811484 0)
(1.04789 0.0079792 0)
(1.04819 0.00785079 0)
(1.04848 0.00772863 0)
(1.04875 0.00761184 0)
(1.04902 0.00749964 0)
(1.04927 0.00739127 0)
(1.04952 0.00728607 0)
(1.04976 0.00718327 0)
(1.05 0.00708226 0)
(1.05022 0.0069821 0)
(1.05045 0.00688219 0)
(1.05066 0.0067812 0)
(1.05087 0.0066786 0)
(1.05108 0.00657247 0)
(1.05128 0.00646229 0)
(1.05148 0.00634556 0)
(1.05167 0.00622139 0)
(1.05187 0.00608747 0)
(1.05206 0.00594109 0)
(1.05225 0.00578266 0)
(1.05244 0.00560462 0)
(1.05263 0.00541536 0)
(1.05283 0.00519999 0)
(1.05304 0.00498091 0)
(1.0533 0.00474366 0)
(1.05362 0.00450859 0)
(1.05411 0.0042651 0)
(1.00107 0.0126023 0)
(1.01466 0.0208619 0)
(1.02614 0.0177927 0)
(1.03073 0.0154993 0)
(1.03241 0.0148575 0)
(1.03406 0.0140798 0)
(1.03575 0.0131128 0)
(1.03708 0.0123411 0)
(1.03811 0.0117677 0)
(1.03897 0.0112835 0)
(1.03975 0.010851 0)
(1.04044 0.0104686 0)
(1.04108 0.0101318 0)
(1.04165 0.00983221 0)
(1.04218 0.00956253 0)
(1.04267 0.00931792 0)
(1.04312 0.00909478 0)
(1.04355 0.00889016 0)
(1.04395 0.00870159 0)
(1.04432 0.00852699 0)
(1.04468 0.00836458 0)
(1.04502 0.00821285 0)
(1.04534 0.00807043 0)
(1.04565 0.00793615 0)
(1.04594 0.00780891 0)
(1.04622 0.00768777 0)
(1.0465 0.00757185 0)
(1.04676 0.00746038 0)
(1.04702 0.0073526 0)
(1.04726 0.00724786 0)
(1.04751 0.00714543 0)
(1.04775 0.00704468 0)
(1.04798 0.00694471 0)
(1.04822 0.00684489 0)
(1.04844 0.00674398 0)
(1.04867 0.00664131 0)
(1.0489 0.00653516 0)
(1.04912 0.00642473 0)
(1.04934 0.00630789 0)
(1.04956 0.00618326 0)
(1.04978 0.00604904 0)
(1.05 0.00590204 0)
(1.05023 0.00574277 0)
(1.05045 0.00556416 0)
(1.05068 0.00537253 0)
(1.05092 0.0051564 0)
(1.05118 0.00493037 0)
(1.05148 0.00468534 0)
(1.05184 0.00442491 0)
(1.05237 0.00413168 0)
(1.00093 0.0114193 0)
(1.01314 0.019762 0)
(1.02405 0.0173251 0)
(1.02872 0.0151219 0)
(1.03046 0.0145329 0)
(1.03208 0.0138697 0)
(1.03374 0.0129654 0)
(1.03508 0.0122118 0)
(1.03611 0.011652 0)
(1.03696 0.0111831 0)
(1.03773 0.0107623 0)
(1.03842 0.0103879 0)
(1.03904 0.0100574 0)
(1.0396 0.00976311 0)
(1.04012 0.00949798 0)
(1.0406 0.00925723 0)
(1.04104 0.0090374 0)
(1.04146 0.00883567 0)
(1.04185 0.00864963 0)
(1.04221 0.00847726 0)
(1.04256 0.00831683 0)
(1.04289 0.00816683 0)
(1.0432 0.00802595 0)
(1.0435 0.007893 0)
(1.04378 0.00776691 0)
(1.04406 0.00764673 0)
(1.04432 0.00753159 0)
(1.04458 0.00742073 0)
(1.04483 0.00731341 0)
(1.04508 0.00720898 0)
(1.04532 0.00710673 0)
(1.04555 0.00700603 0)
(1.04578 0.00690602 0)
(1.04601 0.00680604 0)
(1.04624 0.00670493 0)
(1.04647 0.00660191 0)
(1.0467 0.00649541 0)
(1.04692 0.00638443 0)
(1.04715 0.0062671 0)
(1.04737 0.00614172 0)
(1.0476 0.00600678 0)
(1.04783 0.00585888 0)
(1.04806 0.00569833 0)
(1.0483 0.00551877 0)
(1.04854 0.00532446 0)
(1.04879 0.0051066 0)
(1.04906 0.00487355 0)
(1.04937 0.00461862 0)
(1.04975 0.00433399 0)
(1.05028 0.00399446 0)
(1.0008 0.0103338 0)
(1.01174 0.018678 0)
(1.02206 0.0168509 0)
(1.02681 0.0147527 0)
(1.02861 0.0142043 0)
(1.03019 0.013649 0)
(1.03183 0.0128129 0)
(1.03317 0.0120803 0)
(1.03419 0.0115338 0)
(1.03504 0.0110802 0)
(1.0358 0.0106718 0)
(1.03648 0.010306 0)
(1.03709 0.00998197 0)
(1.03764 0.00969316 0)
(1.03815 0.00943273 0)
(1.03862 0.00919599 0)
(1.03906 0.0089796 0)
(1.03946 0.00878085 0)
(1.03984 0.00859742 0)
(1.0402 0.00842736 0)
(1.04054 0.00826896 0)
(1.04086 0.00812076 0)
(1.04116 0.00798144 0)
(1.04145 0.00784985 0)
(1.04173 0.00772492 0)
(1.04199 0.0076057 0)
(1.04225 0.00749134 0)
(1.0425 0.00738107 0)
(1.04274 0.00727418 0)
(1.04298 0.00717001 0)
(1.04321 0.00706788 0)
(1.04344 0.00696716 0)
(1.04367 0.00686704 0)
(1.04389 0.00676681 0)
(1.04411 0.00666539 0)
(1.04434 0.00656191 0)
(1.04456 0.00645494 0)
(1.04478 0.0063433 0)
(1.045 0.00622532 0)
(1.04522 0.00609909 0)
(1.04545 0.00596324 0)
(1.04567 0.00581434 0)
(1.0459 0.00565233 0)
(1.04614 0.0054716 0)
(1.04638 0.00527453 0)
(1.04663 0.0050542 0)
(1.0469 0.00481418 0)
(1.04721 0.00454808 0)
(1.04758 0.00424068 0)
(1.04809 0.00385932 0)
(1.00069 0.00934182 0)
(1.01046 0.0176141 0)
(1.02019 0.0163679 0)
(1.02498 0.0143917 0)
(1.02685 0.0138735 0)
(1.02839 0.013418 0)
(1.03 0.0126546 0)
(1.03134 0.0119463 0)
(1.03237 0.0114131 0)
(1.03321 0.0109748 0)
(1.03396 0.0105794 0)
(1.03463 0.0102226 0)
(1.03523 0.00990539 0)
(1.03578 0.00962226 0)
(1.03628 0.00936671 0)
(1.03674 0.00913412 0)
(1.03717 0.00892129 0)
(1.03756 0.00872563 0)
(1.03793 0.00854492 0)
(1.03828 0.00837723 0)
(1.03861 0.00822093 0)
(1.03892 0.00807458 0)
(1.03922 0.00793688 0)
(1.0395 0.00780669 0)
(1.03977 0.00768295 0)
(1.04003 0.00756472 0)
(1.04028 0.00745115 0)
(1.04052 0.00734149 0)
(1.04075 0.00723502 0)
(1.04098 0.00713111 0)
(1.04121 0.00702909 0)
(1.04143 0.00692835 0)
(1.04165 0.00682809 0)
(1.04187 0.0067276 0)
(1.04208 0.00662584 0)
(1.0423 0.00652189 0)
(1.04251 0.00641441 0)
(1.04272 0.0063021 0)
(1.04294 0.00618342 0)
(1.04316 0.00605634 0)
(1.04337 0.00591952 0)
(1.04359 0.00576962 0)
(1.04381 0.00560613 0)
(1.04404 0.0054241 0)
(1.04427 0.00522432 0)
(1.04452 0.00500104 0)
(1.04478 0.00475422 0)
(1.04508 0.00447642 0)
(1.04544 0.00414791 0)
(1.04591 0.00372982 0)
(1.0006 0.00843913 0)
(1.0093 0.0165744 0)
(1.01843 0.0158743 0)
(1.02323 0.0140387 0)
(1.02518 0.0135425 0)
(1.02669 0.013177 0)
(1.02826 0.0124898 0)
(1.0296 0.0118099 0)
(1.03063 0.0112901 0)
(1.03147 0.0108669 0)
(1.03221 0.010485 0)
(1.03287 0.0101378 0)
(1.03347 0.00982759 0)
(1.03401 0.00955032 0)
(1.0345 0.00929983 0)
(1.03495 0.00907156 0)
(1.03537 0.00886242 0)
(1.03576 0.00866996 0)
(1.03612 0.00849204 0)
(1.03646 0.00832682 0)
(1.03678 0.00817269 0)
(1.03708 0.00802824 0)
(1.03737 0.00789221 0)
(1.03765 0.00776346 0)
(1.03791 0.00764095 0)
(1.03816 0.00752374 0)
(1.0384 0.00741099 0)
(1.03863 0.00730195 0)
(1.03886 0.00719592 0)
(1.03908 0.00709229 0)
(1.0393 0.0069904 0)
(1.03952 0.00688964 0)
(1.03973 0.00678925 0)
(1.03994 0.00668851 0)
(1.04015 0.00658642 0)
(1.04035 0.00648201 0)
(1.04056 0.00637403 0)
(1.04077 0.00626108 0)
(1.04098 0.00614171 0)
(1.04118 0.00601383 0)
(1.04139 0.00587606 0)
(1.0416 0.0057252 0)
(1.04182 0.00556029 0)
(1.04204 0.00537692 0)
(1.04226 0.00517457 0)
(1.04249 0.00494803 0)
(1.04274 0.00469467 0)
(1.04303 0.00440522 0)
(1.04337 0.00405755 0)
(1.0438 0.00360816 0)
(1.00051 0.00762094 0)
(1.00825 0.0155626 0)
(1.01679 0.0153688 0)
(1.02157 0.0136929 0)
(1.02359 0.013213 0)
(1.02507 0.0129268 0)
(1.02661 0.0123182 0)
(1.02794 0.0116706 0)
(1.02898 0.0111647 0)
(1.02981 0.0107563 0)
(1.03054 0.0103883 0)
(1.0312 0.0100512 0)
(1.03179 0.00974846 0)
(1.03232 0.00947725 0)
(1.0328 0.00923199 0)
(1.03325 0.0090082 0)
(1.03366 0.0088029 0)