/*--------------------------------*- C++ -*----------------------------------*\
  =========                 |
  \\      /  F ield         | OpenFOAM: The Open Source CFD Toolbox
   \\    /   O peration     | Website:  https://openfoam.org
    \\  /    A nd           | Version:  7
     \\/     M anipulation  |
\*---------------------------------------------------------------------------*/
FoamFile
{
    version     2.0;
    format      ascii;
    class       volVectorField;
    location    "0.35";
    object      vorticity;
}
// * * * * * * * * * * * * * * * * * * * * * * * * * * * * * * * * * * * * * //

dimensions      [0 0 -1 0 0 0 0];

internalField   nonuniform List<vector> 
70000
(
(0 -0 -45716)
(0 -0 -28617.3)
(0 -0 -20912.5)
(0 -0 -16978.6)
(0 -0 -14956.8)
(0 -0 -13649.2)
(0 -0 -12639.2)
(0 -0 -11826.2)
(0 -0 -11161.9)
(0 -0 -10607.4)
(0 -0 -10134.9)
(0 -0 -9725.76)
(0 -0 -9367.04)
(0 -0 -9049.36)
(0 -0 -8765.6)
(0 -0 -8510.27)
(0 -0 -8279.04)
(0 -0 -8068.45)
(0 -0 -7875.71)
(0 -0 -7698.5)
(0 -0 -7534.93)
(0 -0 -7383.42)
(0 -0 -7242.62)
(0 -0 -7111.4)
(0 -0 -6988.78)
(0 -0 -6873.94)
(0 -0 -6766.16)
(0 -0 -6664.82)
(0 -0 -6569.38)
(0 -0 -6479.38)
(0 -0 -6394.42)
(0 -0 -6314.14)
(0 -0 -6238.27)
(0 -0 -6166.52)
(0 -0 -6098.71)
(0 -0 -6034.66)
(0 -0 -5974.18)
(0 -0 -5917.33)
(0 -0 -5863.64)
(0 -0 -5813.95)
(0 -0 -5766.45)
(0 -0 -5724.61)
(0 -0 -5682.12)
(0 -0 -5650.28)
(0 -0 -5609.5)
(0 -0 -5593.04)
(0 -0 -5544.47)
(0 -0 -5554.48)
(0 -0 -5492.9)
(0 -0 -5281.9)
(0 -0 -13549.7)
(0 -0 -19947.3)
(0 -0 -18535.9)
(0 -0 -16249.1)
(0 -0 -14502.8)
(0 -0 -13278.6)
(0 -0 -12350.2)
(0 -0 -11600)
(0 -0 -10977.5)
(0 -0 -10452.1)
(0 -0 -10001.5)
(0 -0 -9609.45)
(0 -0 -9264.43)
(0 -0 -8957.87)
(0 -0 -8683.29)
(0 -0 -8435.63)
(0 -0 -8210.88)
(0 -0 -8005.82)
(0 -0 -7817.83)
(0 -0 -7644.75)
(0 -0 -7484.79)
(0 -0 -7336.43)
(0 -0 -7198.41)
(0 -0 -7069.63)
(0 -0 -6949.17)
(0 -0 -6836.24)
(0 -0 -6730.12)
(0 -0 -6630.23)
(0 -0 -6536.05)
(0 -0 -6447.11)
(0 -0 -6363.02)
(0 -0 -6283.43)
(0 -0 -6208.05)
(0 -0 -6136.61)
(0 -0 -6068.9)
(0 -0 -6004.72)
(0 -0 -5943.91)
(0 -0 -5886.43)
(0 -0 -5831.92)
(0 -0 -5780.97)
(0 -0 -5732.21)
(0 -0 -5688.22)
(0 -0 -5644.31)
(0 -0 -5608.92)
(0 -0 -5567.74)
(0 -0 -5544.97)
(0 -0 -5501.38)
(0 -0 -5497.78)
(0 -0 -5454.85)
(0 -0 -5484.72)
(0 -0 -3818.78)
(0 -0 -10828.9)
(0 -0 -13363.5)
(0 -0 -13519.5)
(0 -0 -12865.9)
(0 -0 -12139.7)
(0 -0 -11498)
(0 -0 -10937.6)
(0 -0 -10445.8)
(0 -0 -10013.4)
(0 -0 -9631.5)
(0 -0 -9292.06)
(0 -0 -8988.32)
(0 -0 -8714.81)
(0 -0 -8467.13)
(0 -0 -8241.68)
(0 -0 -8035.5)
(0 -0 -7846.14)
(0 -0 -7671.55)
(0 -0 -7510.01)
(0 -0 -7360.06)
(0 -0 -7220.44)
(0 -0 -7090.09)
(0 -0 -6968.09)
(0 -0 -6853.64)
(0 -0 -6746.03)
(0 -0 -6644.66)
(0 -0 -6549.01)
(0 -0 -6458.6)
(0 -0 -6373.01)
(0 -0 -6291.89)
(0 -0 -6214.92)
(0 -0 -6141.82)
(0 -0 -6072.33)
(0 -0 -6006.25)
(0 -0 -5943.39)
(0 -0 -5883.57)
(0 -0 -5826.73)
(0 -0 -5772.56)
(0 -0 -5721.41)
(0 -0 -5672.38)
(0 -0 -5627.02)
(0 -0 -5582.48)
(0 -0 -5543.69)
(0 -0 -5502.53)
(0 -0 -5472.3)
(0 -0 -5432.77)
(0 -0 -5413.07)
(0 -0 -5379.09)
(0 -0 -5423.44)
(0 -0 -533.075)
(0 -0 -4662.74)
(0 -0 -7718.64)
(0 -0 -9328.74)
(0 -0 -9892.46)
(0 -0 -9957.76)
(0 -0 -9826.06)
(0 -0 -9614.19)
(0 -0 -9370.95)
(0 -0 -9121)
(0 -0 -8876.76)
(0 -0 -8643.78)
(0 -0 -8424.18)
(0 -0 -8218.37)
(0 -0 -8026.03)
(0 -0 -7846.41)
(0 -0 -7678.64)
(0 -0 -7521.82)
(0 -0 -7375.05)
(0 -0 -7237.48)
(0 -0 -7108.35)
(0 -0 -6986.95)
(0 -0 -6872.62)
(0 -0 -6764.8)
(0 -0 -6662.94)
(0 -0 -6566.58)
(0 -0 -6475.3)
(0 -0 -6388.7)
(0 -0 -6306.45)
(0 -0 -6228.23)
(0 -0 -6153.77)
(0 -0 -6082.82)
(0 -0 -6015.15)
(0 -0 -5950.55)
(0 -0 -5888.86)
(0 -0 -5829.91)
(0 -0 -5773.55)
(0 -0 -5719.69)
(0 -0 -5668.15)
(0 -0 -5618.99)
(0 -0 -5571.85)
(0 -0 -5527.19)
(0 -0 -5484.1)
(0 -0 -5443.97)
(0 -0 -5404.73)
(0 -0 -5369.11)
(0 -0 -5334.66)
(0 -0 -5301.11)
(0 -0 -5280.08)
(0 -0 -5264.01)
(0 -0 322.439)
(0 -0 -1444.6)
(0 -0 -3532.77)
(0 -0 -5259.44)
(0 -0 -6399.47)
(0 -0 -7074.16)
(0 -0 -7451.54)
(0 -0 -7642.13)
(0 -0 -7714.19)
(0 -0 -7711.96)
(0 -0 -7664)
(0 -0 -7588.37)
(0 -0 -7496.49)
(0 -0 -7395.63)
(0 -0 -7290.48)
(0 -0 -7184.07)
(0 -0 -7078.35)
(0 -0 -6974.56)
(0 -0 -6873.49)
(0 -0 -6775.6)
(0 -0 -6681.13)
(0 -0 -6590.19)
(0 -0 -6502.79)
(0 -0 -6418.89)
(0 -0 -6338.4)
(0 -0 -6261.2)
(0 -0 -6187.16)
(0 -0 -6116.14)
(0 -0 -6048)
(0 -0 -5982.61)
(0 -0 -5919.83)
(0 -0 -5859.53)
(0 -0 -5801.6)
(0 -0 -5745.9)
(0 -0 -5692.36)
(0 -0 -5640.84)
(0 -0 -5591.29)
(0 -0 -5543.59)
(0 -0 -5497.7)
(0 -0 -5453.48)
(0 -0 -5411.04)
(0 -0 -5369.96)
(0 -0 -5330.93)
(0 -0 -5292.51)
(0 -0 -5257.41)
(0 -0 -5220.25)
(0 -0 -5191.88)
(0 -0 -5150.33)
(0 -0 -5141.13)
(0 -0 -5089.6)
(0 -0 364.707)
(0 -0 -158.573)
(0 -0 -1181.64)
(0 -0 -2362.22)
(0 -0 -3417.71)
(0 -0 -4256.22)
(0 -0 -4891.16)
(0 -0 -5356.52)
(0 -0 -5687.43)
(0 -0 -5915.93)
(0 -0 -6068.31)
(0 -0 -6164.7)
(0 -0 -6220.01)
(0 -0 -6245.19)
(0 -0 -6248.31)
(0 -0 -6235.29)
(0 -0 -6210.52)
(0 -0 -6177.25)
(0 -0 -6137.92)
(0 -0 -6094.36)
(0 -0 -6047.91)
(0 -0 -5999.64)
(0 -0 -5950.3)
(0 -0 -5900.49)
(0 -0 -5850.66)
(0 -0 -5801.14)
(0 -0 -5752.17)
(0 -0 -5703.93)
(0 -0 -5656.56)
(0 -0 -5610.14)
(0 -0 -5564.74)
(0 -0 -5520.4)
(0 -0 -5477.15)
(0 -0 -5434.98)
(0 -0 -5393.91)
(0 -0 -5353.92)
(0 -0 -5315.01)
(0 -0 -5277.12)
(0 -0 -5240.36)
(0 -0 -5204.43)
(0 -0 -5169.82)
(0 -0 -5135.58)
(0 -0 -5103.39)
(0 -0 -5070.14)
(0 -0 -5041.33)
(0 -0 -5007.06)
(0 -0 -4985.23)
(0 -0 -4943.61)
(0 -0 -4939.37)
(0 -0 -4886.75)
(0 -0 254.022)
(0 -0 185.301)
(0 -0 -173.332)
(0 -0 -764.784)
(0 -0 -1447.81)
(0 -0 -2115.49)
(0 -0 -2720.48)
(0 -0 -3243.36)
(0 -0 -3680.04)
(0 -0 -4036.33)
(0 -0 -4322.52)
(0 -0 -4549.74)
(0 -0 -4728.3)
(0 -0 -4867.16)
(0 -0 -4973.84)
(0 -0 -5054.53)
(0 -0 -5114.24)
(0 -0 -5157.03)
(0 -0 -5186.17)
(0 -0 -5204.31)
(0 -0 -5213.55)
(0 -0 -5215.63)
(0 -0 -5211.92)
(0 -0 -5203.56)
(0 -0 -5191.46)
(0 -0 -5176.38)
(0 -0 -5158.91)
(0 -0 -5139.56)
(0 -0 -5118.74)
(0 -0 -5096.78)
(0 -0 -5073.95)
(0 -0 -5050.48)
(0 -0 -5026.55)
(0 -0 -5002.31)
(0 -0 -4977.89)
(0 -0 -4953.38)
(0 -0 -4928.9)
(0 -0 -4904.43)
(0 -0 -4880.19)
(0 -0 -4855.91)
(0 -0 -4832.21)
(0 -0 -4808)
(0 -0 -4785.34)
(0 -0 -4760.6)
(0 -0 -4740.16)
(0 -0 -4712.92)
(0 -0 -4698.09)
(0 -0 -4663.3)
(0 -0 -4660.4)
(0 -0 -4619.86)
(0 -0 178.743)
(0 -0 204.507)
(0 -0 130.653)
(0 -0 -85.2544)
(0 -0 -417.951)
(0 -0 -814.916)
(0 -0 -1236.27)
(0 -0 -1653.12)
(0 -0 -2045.64)
(0 -0 -2402.86)
(0 -0 -2720.56)
(0 -0 -2998.64)
(0 -0 -3239.3)
(0 -0 -3445.85)
(0 -0 -3622.02)
(0 -0 -3771.53)
(0 -0 -3897.9)
(0 -0 -4004.29)
(0 -0 -4093.51)
(0 -0 -4168.02)
(0 -0 -4229.94)
(0 -0 -4281.07)
(0 -0 -4322.99)
(0 -0 -4357.02)
(0 -0 -4384.31)
(0 -0 -4405.81)
(0 -0 -4422.35)
(0 -0 -4434.64)
(0 -0 -4443.27)
(0 -0 -4448.76)
(0 -0 -4451.54)
(0 -0 -4451.99)
(0 -0 -4450.42)
(0 -0 -4447.11)
(0 -0 -4442.3)
(0 -0 -4436.17)
(0 -0 -4428.92)
(0 -0 -4420.65)
(0 -0 -4411.61)
(0 -0 -4401.62)
(0 -0 -4391.33)
(0 -0 -4379.77)
(0 -0 -4368.88)
(0 -0 -4355.36)
(0 -0 -4345.12)
(0 -0 -4328.08)
(0 -0 -4321.21)
(0 -0 -4297.35)
(0 -0 -4296.8)
(0 -0 -4270.18)
(0 -0 148.014)
(0 -0 164.609)
(0 -0 169.988)
(0 -0 120.963)
(0 -0 1.00734)
(0 -0 -180.748)
(0 -0 -408.897)
(0 -0 -667.077)
(0 -0 -939.46)
(0 -0 -1213.14)
(0 -0 -1478.89)
(0 -0 -1730.73)
(0 -0 -1965.15)
(0 -0 -2180.46)
(0 -0 -2376.27)
(0 -0 -2553.02)
(0 -0 -2711.68)
(0 -0 -2853.51)
(0 -0 -2979.87)
(0 -0 -3092.17)
(0 -0 -3191.78)
(0 -0 -3280)
(0 -0 -3358.01)
(0 -0 -3426.92)
(0 -0 -3487.71)
(0 -0 -3541.28)
(0 -0 -3588.42)
(0 -0 -3629.84)
(0 -0 -3666.17)
(0 -0 -3697.96)
(0 -0 -3725.69)
(0 -0 -3749.82)
(0 -0 -3770.7)
(0 -0 -3788.68)
(0 -0 -3804.04)
(0 -0 -3817.06)
(0 -0 -3827.95)
(0 -0 -3836.9)
(0 -0 -3844.16)
(0 -0 -3849.69)
(0 -0 -3854.02)
(0 -0 -3856.46)
(0 -0 -3858.62)
(0 -0 -3857.82)
(0 -0 -3858.95)
(0 -0 -3853.87)
(0 -0 -3856.03)
(0 -0 -3844.77)
(0 -0 -3848.98)
(0 -0 -3835.95)
(0 -0 136.822)
(0 -0 137.07)
(0 -0 148.738)
(0 -0 149.677)
(0 -0 122.179)
(0 -0 60.0988)
(0 -0 -36.3628)
(0 -0 -163.535)
(0 -0 -315.058)
(0 -0 -483.625)
(0 -0 -662.325)
(0 -0 -845.253)
(0 -0 -1027.68)
(0 -0 -1206.01)
(0 -0 -1377.69)
(0 -0 -1541.03)
(0 -0 -1694.99)
(0 -0 -1839.09)
(0 -0 -1973.18)
(0 -0 -2097.42)
(0 -0 -2212.13)
(0 -0 -2317.75)
(0 -0 -2414.82)
(0 -0 -2503.87)
(0 -0 -2585.46)
(0 -0 -2660.16)
(0 -0 -2728.5)
(0 -0 -2791)
(0 -0 -2848.11)
(0 -0 -2900.3)
(0 -0 -2947.97)
(0 -0 -2991.49)
(0 -0 -3031.2)
(0 -0 -3067.41)
(0 -0 -3100.4)
(0 -0 -3130.44)
(0 -0 -3157.72)
(0 -0 -3182.47)
(0 -0 -3204.9)
(0 -0 -3225.05)
(0 -0 -3243.34)
(0 -0 -3259.31)
(0 -0 -3274.21)
(0 -0 -3286)
(0 -0 -3298.49)
(0 -0 -3305.49)
(0 -0 -3316.99)
(0 -0 -3318.28)
(0 -0 -3328.83)
(0 -0 -3328.5)
(0 -0 129.943)
(0 -0 123.998)
(0 -0 129.183)
(0 -0 136.384)
(0 -0 136.468)
(0 -0 123.195)
(0 -0 92.9272)
(0 -0 43.8206)
(0 -0 -23.9535)
(0 -0 -108.561)
(0 -0 -207.232)
(0 -0 -316.833)
(0 -0 -434.224)
(0 -0 -556.503)
(0 -0 -681.135)
(0 -0 -806.006)
(0 -0 -929.419)
(0 -0 -1050.06)
(0 -0 -1166.96)
(0 -0 -1279.42)
(0 -0 -1386.99)
(0 -0 -1489.39)
(0 -0 -1586.49)
(0 -0 -1678.29)
(0 -0 -1764.86)
(0 -0 -1846.33)
(0 -0 -1922.87)
(0 -0 -1994.7)
(0 -0 -2062.03)
(0 -0 -2125.1)
(0 -0 -2184.13)
(0 -0 -2239.36)
(0 -0 -2291)
(0 -0 -2339.26)
(0 -0 -2384.32)
(0 -0 -2426.4)
(0 -0 -2465.64)
(0 -0 -2502.22)
(0 -0 -2536.27)
(0 -0 -2567.88)
(0 -0 -2597.34)
(0 -0 -2624.34)
(0 -0 -2649.8)
(0 -0 -2672.23)
(0 -0 -2694.43)
(0 -0 -2711.95)
(0 -0 -2731.79)
(0 -0 -2744.05)
(0 -0 -2761.11)
(0 -0 -2771.56)
(0 -0 122.954)
(0 -0 116.646)
(0 -0 118.015)
(0 -0 122.491)
(0 -0 126.431)
(0 -0 126.896)
(0 -0 121.414)
(0 -0 107.688)
(0 -0 84.0794)
(0 -0 49.8824)
(0 -0 5.19015)
(0 -0 -49.2891)
(0 -0 -112.432)
(0 -0 -182.875)
(0 -0 -259.167)
(0 -0 -339.876)
(0 -0 -423.66)
(0 -0 -509.316)
(0 -0 -595.793)
(0 -0 -682.199)
(0 -0 -767.795)
(0 -0 -851.984)
(0 -0 -934.297)
(0 -0 -1014.37)
(0 -0 -1091.94)
(0 -0 -1166.83)
(0 -0 -1238.91)
(0 -0 -1308.12)
(0 -0 -1374.43)
(0 -0 -1437.87)
(0 -0 -1498.45)
(0 -0 -1556.24)
(0 -0 -1611.3)
(0 -0 -1663.72)
(0 -0 -1713.55)
(0 -0 -1760.9)
(0 -0 -1805.83)
(0 -0 -1848.44)
(0 -0 -1888.8)
(0 -0 -1926.93)
(0 -0 -1963.05)
(0 -0 -1996.89)
(0 -0 -2029.12)
(0 -0 -2058.64)
(0 -0 -2087.43)
(0 -0 -2112.39)
(0 -0 -2138.19)
(0 -0 -2158.52)
(0 -0 -2180.75)
(0 -0 -2199.07)
(0 -0 115.634)
(0 -0 110.415)
(0 -0 110.734)
(0 -0 113.172)
(0 -0 115.983)
(0 -0 118.238)
(0 -0 119.108)
(0 -0 117.392)
(0 -0 111.811)
(0 -0 101.31)
(0 -0 85.1678)
(0 -0 63.0094)
(0 -0 34.7775)
(0 -0 0.688473)
(0 -0 -38.8335)
(0 -0 -83.2222)
(0 -0 -131.828)
(0 -0 -183.968)
(0 -0 -238.957)
(0 -0 -296.143)
(0 -0 -354.915)
(0 -0 -414.721)
(0 -0 -475.069)
(0 -0 -535.528)
(0 -0 -595.73)
(0 -0 -655.364)
(0 -0 -714.171)
(0 -0 -771.94)
(0 -0 -828.502)
(0 -0 -883.725)
(0 -0 -937.503)
(0 -0 -989.765)
(0 -0 -1040.45)
(0 -0 -1089.52)
(0 -0 -1136.95)
(0 -0 -1182.73)
(0 -0 -1226.85)
(0 -0 -1269.3)
(0 -0 -1310.11)
(0 -0 -1349.22)
(0 -0 -1386.76)
(0 -0 -1422.5)
(0 -0 -1456.88)
(0 -0 -1489.09)
(0 -0 -1520.45)
(0 -0 -1548.91)
(0 -0 -1577.36)
(0 -0 -1602.04)
(0 -0 -1626.99)
(0 -0 -1649.63)
(0 -0 108.39)
(0 -0 104.199)
(0 -0 104.409)
(0 -0 106.117)
(0 -0 107.982)
(0 -0 109.689)
(0 -0 111.22)
(0 -0 112.23)
(0 -0 112.138)
(0 -0 110.315)
(0 -0 106.172)
(0 -0 99.2062)
(0 -0 89.0411)
(0 -0 75.4351)
(0 -0 58.2905)
(0 -0 37.6301)
(0 -0 13.5819)
(0 -0 -13.6446)
(0 -0 -43.7818)
(0 -0 -76.5235)
(0 -0 -111.543)
(0 -0 -148.507)
(0 -0 -187.088)
(0 -0 -226.969)
(0 -0 -267.853)
(0 -0 -309.467)
(0 -0 -351.56)
(0 -0 -393.91)
(0 -0 -436.315)
(0 -0 -478.603)
(0 -0 -520.619)
(0 -0 -562.233)
(0 -0 -603.325)
(0 -0 -643.803)
(0 -0 -683.571)
(0 -0 -722.566)
(0 -0 -760.713)
(0 -0 -797.96)
(0 -0 -834.265)
(0 -0 -869.545)
(0 -0 -903.846)
(0 -0 -936.947)
(0 -0 -969.131)
(0 -0 -999.811)
(0 -0 -1029.8)
(0 -0 -1057.78)
(0 -0 -1085.43)
(0 -0 -1110.65)
(0 -0 -1135.44)
(0 -0 -1158.87)
(0 -0 101.413)
(0 -0 98.008)
(0 -0 98.2335)
(0 -0 99.7066)
(0 -0 101.217)
(0 -0 102.484)
(0 -0 103.703)
(0 -0 104.883)
(0 -0 105.853)
(0 -0 106.366)
(0 -0 106.142)
(0 -0 104.88)
(0 -0 102.29)
(0 -0 98.1142)
(0 -0 92.1397)
(0 -0 84.2133)
(0 -0 74.2402)
(0 -0 62.1822)
(0 -0 48.0529)
(0 -0 31.9095)
(0 -0 13.8455)
(0 -0 -6.01754)
(0 -0 -27.538)
(0 -0 -50.561)
(0 -0 -74.9238)
(0 -0 -100.462)
(0 -0 -127.013)
(0 -0 -154.418)
(0 -0 -182.527)
(0 -0 -211.198)
(0 -0 -240.298)
(0 -0 -269.704)
(0 -0 -299.299)
(0 -0 -328.983)
(0 -0 -358.653)
(0 -0 -388.225)
(0 -0 -417.613)
(0 -0 -446.737)
(0 -0 -475.539)
(0 -0 -503.916)
(0 -0 -531.873)
(0 -0 -559.219)
(0 -0 -586.104)
(0 -0 -612.128)
(0 -0 -637.732)
(0 -0 -662.142)
(0 -0 -686.206)
(0 -0 -708.845)
(0 -0 -730.932)
(0 -0 -752.242)
(0 -0 94.737)
(0 -0 91.9592)
(0 -0 92.1729)
(0 -0 93.4972)
(0 -0 94.8752)
(0 -0 95.9692)
(0 -0 96.9629)
(0 -0 97.955)
(0 -0 98.9183)
(0 -0 99.7858)
(0 -0 100.468)
(0 -0 100.848)
(0 -0 100.786)
(0 -0 100.135)
(0 -0 98.7456)
(0 -0 96.4824)
(0 -0 93.2263)
(0 -0 88.8803)
(0 -0 83.3722)
(0 -0 76.655)
(0 -0 68.7063)
(0 -0 59.5258)
(0 -0 49.1343)
(0 -0 37.5691)
(0 -0 24.8821)
(0 -0 11.136)
(0 -0 -3.59766)
(0 -0 -19.2425)
(0 -0 -35.7176)
(0 -0 -52.942)
(0 -0 -70.8326)
(0 -0 -89.3097)
(0 -0 -108.292)
(0 -0 -127.704)
(0 -0 -147.469)
(0 -0 -167.515)
(0 -0 -187.772)
(0 -0 -208.168)
(0 -0 -228.649)
(0 -0 -249.123)
(0 -0 -269.576)
(0 -0 -289.862)
(0 -0 -310.047)
(0 -0 -329.873)
(0 -0 -349.55)
(0 -0 -368.648)
(0 -0 -387.539)
(0 -0 -405.712)
(0 -0 -423.474)
(0 -0 -440.825)
(0 -0 88.3618)
(0 -0 86.1042)
(0 -0 86.2995)
(0 -0 87.4741)
(0 -0 88.7536)
(0 -0 89.7682)
(0 -0 90.6551)
(0 -0 91.5188)
(0 -0 92.3638)
(0 -0 93.176)
(0 -0 93.9392)
(0 -0 94.6246)
(0 -0 95.1865)
(0 -0 95.5659)
(0 -0 95.6946)
(0 -0 95.4994)
(0 -0 94.9059)
(0 -0 93.8421)
(0 -0 92.2418)
(0 -0 90.0466)
(0 -0 87.208)
(0 -0 83.688)
(0 -0 79.4596)
(0 -0 74.5069)
(0 -0 68.8244)
(0 -0 62.416)
(0 -0 55.2939)
(0 -0 47.4778)
(0 -0 38.9936)
(0 -0 29.8715)
(0 -0 20.1464)
(0 -0 9.85528)
(0 -0 -0.961322)
(0 -0 -12.2622)
(0 -0 -24.0043)
(0 -0 -36.1427)
(0 -0 -48.635)
(0 -0 -61.4306)
(0 -0 -74.4928)
(0 -0 -87.7586)
(0 -0 -101.207)
(0 -0 -114.746)
(0 -0 -128.394)
(0 -0 -142.001)
(0 -0 -155.647)
(0 -0 -169.11)
(0 -0 -182.522)
(0 -0 -195.655)
(0 -0 -208.582)
(0 -0 -221.327)
(0 -0 82.2856)
(0 -0 80.461)
(0 -0 80.6464)
(0 -0 81.6761)
(0 -0 82.8521)
(0 -0 83.8009)
(0 -0 84.6195)
(0 -0 85.4055)
(0 -0 86.1675)
(0 -0 86.8992)
(0 -0 87.6019)
(0 -0 88.2749)
(0 -0 88.9097)
(0 -0 89.4902)
(0 -0 89.994)
(0 -0 90.393)
(0 -0 90.6548)
(0 -0 90.7437)
(0 -0 90.6227)
(0 -0 90.2546)
(0 -0 89.6034)
(0 -0 88.6359)
(0 -0 87.3223)
(0 -0 85.6367)
(0 -0 83.5583)
(0 -0 81.0708)
(0 -0 78.1631)
(0 -0 74.8287)
(0 -0 71.0656)
(0 -0 66.8757)
(0 -0 62.2649)
(0 -0 57.2419)
(0 -0 51.8188)
(0 -0 46.0103)
(0 -0 39.8327)
(0 -0 33.3063)
(0 -0 26.4498)
(0 -0 19.2902)
(0 -0 11.8454)
(0 -0 4.15232)
(0 -0 -3.77714)
(0 -0 -11.8892)
(0 -0 -20.1864)
(0 -0 -28.5887)
(0 -0 -37.1189)
(0 -0 -45.6696)
(0 -0 -54.2751)
(0 -0 -62.8331)
(0 -0 -71.3462)
(0 -0 -79.8069)
(0 -0 76.5088)
(0 -0 75.0411)
(0 -0 75.2258)
(0 -0 76.1234)
(0 -0 77.1933)
(0 -0 78.0752)
(0 -0 78.8319)
(0 -0 79.555)
(0 -0 80.2551)
(0 -0 80.9249)
(0 -0 81.5666)
(0 -0 82.1849)
(0 -0 82.7813)
(0 -0 83.3538)
(0 -0 83.898)
(0 -0 84.4063)
(0 -0 84.8687)
(0 -0 85.2723)
(0 -0 85.6021)
(0 -0 85.8411)
(0 -0 85.9714)
(0 -0 85.9743)
(0 -0 85.8312)
(0 -0 85.5241)
(0 -0 85.036)
(0 -0 84.3515)
(0 -0 83.457)
(0 -0 82.3407)
(0 -0 80.9933)
(0 -0 79.4071)
(0 -0 77.5768)
(0 -0 75.4991)
(0 -0 73.1724)
(0 -0 70.5975)
(0 -0 67.776)
(0 -0 64.7132)
(0 -0 61.413)
(0 -0 57.886)
(0 -0 54.1366)
(0 -0 50.1831)
(0 -0 46.0268)
(0 -0 41.6967)
(0 -0 37.193)
(0 -0 32.5525)
(0 -0 27.7719)
(0 -0 22.9002)
(0 -0 17.9316)
(0 -0 12.9187)
(0 -0 7.85968)
(0 -0 2.79604)
(0 -0 71.0313)
(0 -0 69.8549)
(0 -0 70.0445)
(0 -0 70.8245)
(0 -0 71.7901)
(0 -0 72.6049)
(0 -0 73.3013)
(0 -0 73.9648)
(0 -0 74.6088)
(0 -0 75.2256)
(0 -0 75.8155)
(0 -0 76.3831)
(0 -0 76.9314)
(0 -0 77.4615)
(0 -0 77.9737)
(0 -0 78.4674)
(0 -0 78.9407)
(0 -0 79.3907)
(0 -0 79.813)
(0 -0 80.202)
(0 -0 80.5508)
(0 -0 80.8519)
(0 -0 81.0966)
(0 -0 81.2762)
(0 -0 81.3814)
(0 -0 81.4032)
(0 -0 81.3328)
(0 -0 81.1618)
(0 -0 80.8824)
(0 -0 80.4876)
(0 -0 79.9709)
(0 -0 79.3269)
(0 -0 78.5506)
(0 -0 77.6385)
(0 -0 76.5871)
(0 -0 75.3953)
(0 -0 74.061)
(0 -0 72.5857)
(0 -0 70.969)
(0 -0 69.2154)
(0 -0 67.326)
(0 -0 65.3088)
(0 -0 63.1645)
(0 -0 60.9084)
(0 -0 58.5391)
(0 -0 56.0806)
(0 -0 53.5261)
(0 -0 50.9132)
(0 -0 48.2207)
(0 -0 45.5136)
(0 -0 65.8516)
(0 -0 64.9108)
(0 -0 65.1083)
(0 -0 65.7843)
(0 -0 66.6495)
(0 -0 67.3984)
(0 -0 68.0368)
(0 -0 68.6427)
(0 -0 69.2328)
(0 -0 69.7994)
(0 -0 70.3417)
(0 -0 70.8633)
(0 -0 71.367)
(0 -0 71.8541)
(0 -0 72.3257)
(0 -0 72.7827)
(0 -0 73.2256)
(0 -0 73.6542)
(0 -0 74.0682)
(0 -0 74.4663)
(0 -0 74.8468)
(0 -0 75.2073)
(0 -0 75.545)
(0 -0 75.8565)
(0 -0 76.1381)
(0 -0 76.3858)
(0 -0 76.5956)
(0 -0 76.7634)
(0 -0 76.885)
(0 -0 76.9565)
(0 -0 76.9737)
(0 -0 76.9328)
(0 -0 76.83)
(0 -0 76.6619)
(0 -0 76.4251)
(0 -0 76.117)
(0 -0 75.7346)
(0 -0 75.2765)
(0 -0 74.7405)
(0 -0 74.1267)
(0 -0 73.4333)
(0 -0 72.6628)
(0 -0 71.8132)
(0 -0 70.891)
(0 -0 69.8916)
(0 -0 68.8304)
(0 -0 67.6927)
(0 -0 66.5141)
(0 -0 65.2542)
(0 -0 63.9923)
(0 -0 60.9669)
(0 -0 60.2152)
(0 -0 60.4213)
(0 -0 61.006)
(0 -0 61.7755)
(0 -0 62.4604)
(0 -0 63.0437)
(0 -0 63.5946)
(0 -0 64.1326)
(0 -0 64.6511)
(0 -0 65.148)
(0 -0 65.6261)
(0 -0 66.0879)
(0 -0 66.5346)
(0 -0 66.9671)
(0 -0 67.3865)
(0 -0 67.7936)
(0 -0 68.1889)
(0 -0 68.573)
(0 -0 68.946)
(0 -0 69.3078)
(0 -0 69.6581)
(0 -0 69.996)
(0 -0 70.3209)
(0 -0 70.6315)
(0 -0 70.9267)
(0 -0 71.2052)
(0 -0 71.4655)
(0 -0 71.7061)
(0 -0 71.9255)
(0 -0 72.1219)
(0 -0 72.2934)
(0 -0 72.4381)
(0 -0 72.5541)
(0 -0 72.6392)
(0 -0 72.6915)
(0 -0 72.7087)
(0 -0 72.6895)
(0 -0 72.6316)
(0 -0 72.5343)
(0 -0 72.3953)
(0 -0 72.2153)
(0 -0 71.991)
(0 -0 71.7265)
(0 -0 71.414)
(0 -0 71.0674)
(0 -0 70.6654)
(0 -0 70.245)
(0 -0 69.7536)
(0 -0 69.277)
(0 -0 56.3733)
(0 -0 55.7722)
(0 -0 55.9861)
(0 -0 56.4908)
(0 -0 57.1705)
(0 -0 57.7933)
(0 -0 58.3245)
(0 -0 58.8233)
(0 -0 59.3117)
(0 -0 59.7841)
(0 -0 60.2376)
(0 -0 60.6742)
(0 -0 61.0962)
(0 -0 61.5045)
(0 -0 61.9)
(0 -0 62.2836)
(0 -0 62.6559)
(0 -0 63.0177)
(0 -0 63.3696)
(0 -0 63.7119)
(0 -0 64.045)
(0 -0 64.369)
(0 -0 64.6839)
(0 -0 64.9896)
(0 -0 65.2861)
(0 -0 65.5731)
(0 -0 65.8506)
(0 -0 66.1183)
(0 -0 66.3762)
(0 -0 66.6239)
(0 -0 66.8609)
(0 -0 67.0869)
(0 -0 67.301)
(0 -0 67.5024)
(0 -0 67.6902)
(0 -0 67.8632)
(0 -0 68.0203)
(0 -0 68.1606)
(0 -0 68.2825)
(0 -0 68.3856)
(0 -0 68.4678)
(0 -0 68.5298)
(0 -0 68.5678)
(0 -0 68.5861)
(0 -0 68.575)
(0 -0 68.5489)
(0 -0 68.4828)
(0 -0 68.4153)
(0 -0 68.2876)
(0 -0 68.1882)
(0 -0 52.0656)
(0 -0 51.5839)
(0 -0 51.8034)
(0 -0 52.2385)
(0 -0 52.8345)
(0 -0 53.3976)
(0 -0 53.8796)
(0 -0 54.3296)
(0 -0 54.7709)
(0 -0 55.1996)
(0 -0 55.6118)
(0 -0 56.0091)
(0 -0 56.3931)
(0 -0 56.765)
(0 -0 57.1254)
(0 -0 57.4749)
(0 -0 57.8142)
(0 -0 58.144)
(0 -0 58.4648)
(0 -0 58.7769)
(0 -0 59.0808)
(0 -0 59.3766)
(0 -0 59.6645)
(0 -0 59.9445)
(0 -0 60.2169)
(0 -0 60.4818)
(0 -0 60.7395)
(0 -0 60.9903)
(0 -0 61.2345)
(0 -0 61.4725)
(0 -0 61.7042)
(0 -0 61.9299)
(0 -0 62.1494)
(0 -0 62.3624)
(0 -0 62.5686)
(0 -0 62.7676)
(0 -0 62.9587)
(0 -0 63.1414)
(0 -0 63.3149)
(0 -0 63.479)
(0 -0 63.632)
(0 -0 63.7751)
(0 -0 63.9042)
(0 -0 64.0243)
(0 -0 64.125)
(0 -0 64.2212)
(0 -0 64.2869)
(0 -0 64.3608)
(0 -0 64.3825)
(0 -0 64.4407)
(0 -0 48.0375)
(0 -0 47.6499)
(0 -0 47.872)
(0 -0 48.2468)
(0 -0 48.7659)
(0 -0 49.2718)
(0 -0 49.7075)
(0 -0 50.1119)
(0 -0 50.509)
(0 -0 50.8963)
(0 -0 51.2697)
(0 -0 51.6297)
(0 -0 51.978)
(0 -0 52.3154)
(0 -0 52.6425)
(0 -0 52.9598)
(0 -0 53.2679)
(0 -0 53.5673)
(0 -0 53.8586)
(0 -0 54.1421)
(0 -0 54.418)
(0 -0 54.6865)
(0 -0 54.9478)
(0 -0 55.2021)
(0 -0 55.4494)
(0 -0 55.6901)
(0 -0 55.9246)
(0 -0 56.1532)
(0 -0 56.3766)
(0 -0 56.595)
(0 -0 56.809)
(0 -0 57.0187)
(0 -0 57.2242)
(0 -0 57.4256)
(0 -0 57.6228)
(0 -0 57.8155)
(0 -0 58.0034)
(0 -0 58.1863)
(0 -0 58.3636)
(0 -0 58.5354)
(0 -0 58.7002)
(0 -0 58.8596)
(0 -0 59.0095)
(0 -0 59.1552)
(0 -0 59.2863)
(0 -0 59.4179)
(0 -0 59.524)
(0 -0 59.6429)
(0 -0 59.7147)
(0 -0 59.8267)
(0 -0 44.2814)
(0 -0 43.9678)
(0 -0 44.189)
(0 -0 44.5117)
(0 -0 44.961)
(0 -0 45.4125)
(0 -0 45.8048)
(0 -0 46.167)
(0 -0 46.5226)
(0 -0 46.8712)
(0 -0 47.2081)
(0 -0 47.5332)
(0 -0 47.8479)
(0 -0 48.1529)
(0 -0 48.4487)
(0 -0 48.7356)
(0 -0 49.0143)
(0 -0 49.2851)
(0 -0 49.5486)
(0 -0 49.8049)
(0 -0 50.0544)
(0 -0 50.2972)
(0 -0 50.5333)
(0 -0 50.7629)
(0 -0 50.9862)
(0 -0 51.2034)
(0 -0 51.415)
(0 -0 51.6215)
(0 -0 51.8232)
(0 -0 52.0209)
(0 -0 52.2148)
(0 -0 52.4053)
(0 -0 52.5926)
(0 -0 52.7767)
(0 -0 52.9576)
(0 -0 53.1351)
(0 -0 53.309)
(0 -0 53.4793)
(0 -0 53.6454)
(0 -0 53.8076)
(0 -0 53.9645)
(0 -0 54.1177)
(0 -0 54.2634)
(0 -0 54.4069)
(0 -0 54.5381)
(0 -0 54.6717)
(0 -0 54.7829)
(0 -0 54.9083)
(0 -0 54.99)
(0 -0 55.1129)
(0 -0 40.7885)
(0 -0 40.5335)
(0 -0 40.75)
(0 -0 41.0278)
(0 -0 41.4142)
(0 -0 41.8145)
(0 -0 42.1662)
(0 -0 42.4894)
(0 -0 42.8066)
(0 -0 43.119)
(0 -0 43.4219)
(0 -0 43.7145)
(0 -0 43.9978)
(0 -0 44.2725)
(0 -0 44.539)
(0 -0 44.7975)
(0 -0 45.0486)
(0 -0 45.2927)
(0 -0 45.53)
(0 -0 45.761)
(0 -0 45.9857)
(0 -0 46.2042)
(0 -0 46.4166)
(0 -0 46.6231)
(0 -0 46.8237)
(0 -0 47.0187)
(0 -0 47.2086)
(0 -0 47.3939)
(0 -0 47.5751)
(0 -0 47.7527)
(0 -0 47.9271)
(0 -0 48.0987)
(0 -0 48.2676)
(0 -0 48.434)
(0 -0 48.5976)
(0 -0 48.7585)
(0 -0 48.9164)
(0 -0 49.0713)
(0 -0 49.2226)
(0 -0 49.3707)
(0 -0 49.5144)
(0 -0 49.6551)
(0 -0 49.7893)
(0 -0 49.9221)
(0 -0 50.044)
(0 -0 50.1688)
(0 -0 50.2732)
(0 -0 50.3919)
(0 -0 50.4697)
(0 -0 50.588)
(0 -0 37.5492)
(0 -0 37.3407)
(0 -0 37.5488)
(0 -0 37.7879)
(0 -0 38.1183)
(0 -0 38.4707)
(0 -0 38.7847)
(0 -0 39.0721)
(0 -0 39.354)
(0 -0 39.6327)
(0 -0 39.904)
(0 -0 40.1665)
(0 -0 40.4207)
(0 -0 40.6673)
(0 -0 40.9066)
(0 -0 41.1387)
(0 -0 41.3642)
(0 -0 41.5833)
(0 -0 41.7963)
(0 -0 42.0036)
(0 -0 42.2051)
(0 -0 42.401)
(0 -0 42.5913)
(0 -0 42.7761)
(0 -0 42.9554)
(0 -0 43.1297)
(0 -0 43.2993)
(0 -0 43.4648)
(0 -0 43.6267)
(0 -0 43.7854)
(0 -0 43.9415)
(0 -0 44.0953)
(0 -0 44.2468)
(0 -0 44.3962)
(0 -0 44.5434)
(0 -0 44.6882)
(0 -0 44.8304)
(0 -0 44.97)
(0 -0 45.1065)
(0 -0 45.2403)
(0 -0 45.3701)
(0 -0 45.4974)
(0 -0 45.6188)
(0 -0 45.7391)
(0 -0 45.8495)
(0 -0 45.9629)
(0 -0 46.0575)
(0 -0 46.1659)
(0 -0 46.236)
(0 -0 46.345)
(0 -0 34.5529)
(0 -0 34.3818)
(0 -0 34.5778)
(0 -0 34.7835)
(0 -0 35.0646)
(0 -0 35.3726)
(0 -0 35.6517)
(0 -0 35.9064)
(0 -0 36.1559)
(0 -0 36.4037)
(0 -0 36.646)
(0 -0 36.8807)
(0 -0 37.1081)
(0 -0 37.3288)
(0 -0 37.5429)
(0 -0 37.7507)
(0 -0 37.9524)
(0 -0 38.1484)
(0 -0 38.3389)
(0 -0 38.5242)
(0 -0 38.7043)
(0 -0 38.8792)
(0 -0 39.0489)
(0 -0 39.2135)
(0 -0 39.3731)
(0 -0 39.5281)
(0 -0 39.6788)
(0 -0 39.8259)
(0 -0 39.9698)
(0 -0 40.111)
(0 -0 40.2501)
(0 -0 40.3872)
(0 -0 40.5226)
(0 -0 40.6562)
(0 -0 40.788)
(0 -0 40.9178)
(0 -0 41.0454)
(0 -0 41.1707)
(0 -0 41.2932)
(0 -0 41.4133)
(0 -0 41.5299)
(0 -0 41.6442)
(0 -0 41.7533)
(0 -0 41.8614)
(0 -0 41.9604)
(0 -0 42.0623)
(0 -0 42.147)
(0 -0 42.2446)
(0 -0 42.3066)
(0 -0 42.4055)
(0 -0 31.7881)
(0 -0 31.6475)
(0 -0 31.8283)
(0 -0 32.0056)
(0 -0 32.2436)
(0 -0 32.5108)
(0 -0 32.7575)
(0 -0 32.9826)
(0 -0 33.2027)
(0 -0 33.4222)
(0 -0 33.6378)
(0 -0 33.8471)
(0 -0 34.05)
(0 -0 34.2469)
(0 -0 34.4379)
(0 -0 34.6233)
(0 -0 34.8032)
(0 -0 34.978)
(0 -0 35.1478)
(0 -0 35.3128)
(0 -0 35.473)
(0 -0 35.6286)
(0 -0 35.7793)
(0 -0 35.9253)
(0 -0 36.0667)
(0 -0 36.2038)
(0 -0 36.337)
(0 -0 36.467)
(0 -0 36.5943)
(0 -0 36.7194)
(0 -0 36.8427)
(0 -0 36.9645)
(0 -0 37.085)
(0 -0 37.2041)
(0 -0 37.3217)
(0 -0 37.4376)
(0 -0 37.5516)
(0 -0 37.6637)
(0 -0 37.7733)
(0 -0 37.8808)
(0 -0 37.9851)
(0 -0 38.0874)
(0 -0 38.185)
(0 -0 38.2816)
(0 -0 38.3701)
(0 -0 38.4612)
(0 -0 38.5365)
(0 -0 38.6238)
(0 -0 38.6782)
(0 -0 38.7674)
(0 -0 29.2428)
(0 -0 29.1271)
(0 -0 29.2908)
(0 -0 29.4442)
(0 -0 29.6448)
(0 -0 29.8749)
(0 -0 30.0918)
(0 -0 30.29)
(0 -0 30.4834)
(0 -0 30.6772)
(0 -0 30.8685)
(0 -0 31.0546)
(0 -0 31.2352)
(0 -0 31.4104)
(0 -0 31.5803)
(0 -0 31.7452)
(0 -0 31.9052)
(0 -0 32.0605)
(0 -0 32.2113)
(0 -0 32.3578)
(0 -0 32.4999)
(0 -0 32.6377)
(0 -0 32.771)
(0 -0 32.8999)
(0 -0 33.0245)
(0 -0 33.1451)
(0 -0 33.2623)
(0 -0 33.3766)
(0 -0 33.4886)
(0 -0 33.5989)
(0 -0 33.7077)
(0 -0 33.8155)
(0 -0 33.9223)
(0 -0 34.0281)
(0 -0 34.1326)
(0 -0 34.2359)
(0 -0 34.3375)
(0 -0 34.4374)
(0 -0 34.5352)
(0 -0 34.6311)
(0 -0 34.7242)
(0 -0 34.8155)
(0 -0 34.9025)
(0 -0 34.9886)
(0 -0 35.0674)
(0 -0 35.1485)
(0 -0 35.2153)
(0 -0 35.293)
(0 -0 35.3406)
(0 -0 35.4205)
(0 -0 26.9045)
(0 -0 26.8091)
(0 -0 26.9547)
(0 -0 27.0879)
(0 -0 27.2564)
(0 -0 27.4531)
(0 -0 27.6427)
(0 -0 27.8167)
(0 -0 27.9862)
(0 -0 28.1566)
(0 -0 28.3258)
(0 -0 28.491)
(0 -0 28.6513)
(0 -0 28.8069)
(0 -0 28.9577)
(0 -0 29.104)
(0 -0 29.2459)
(0 -0 29.3835)
(0 -0 29.5171)
(0 -0 29.6467)
(0 -0 29.7722)
(0 -0 29.8938)
(0 -0 30.0111)
(0 -0 30.1244)
(0 -0 30.2337)
(0 -0 30.3393)
(0 -0 30.4418)
(0 -0 30.5418)
(0 -0 30.6398)
(0 -0 30.7365)
(0 -0 30.8322)
(0 -0 30.9271)
(0 -0 31.0215)
(0 -0 31.1151)
(0 -0 31.2078)
(0 -0 31.2995)
(0 -0 31.3898)
(0 -0 31.4787)
(0 -0 31.5658)
(0 -0 31.6511)
(0 -0 31.734)
(0 -0 31.8152)
(0 -0 31.8926)
(0 -0 31.9691)
(0 -0 32.0391)
(0 -0 32.111)
(0 -0 32.1701)
(0 -0 32.239)
(0 -0 32.2806)
(0 -0 32.3517)
(0 -0 24.7603)
(0 -0 24.6813)
(0 -0 24.8091)
(0 -0 24.9248)
(0 -0 25.0659)
(0 -0 25.2329)
(0 -0 25.3976)
(0 -0 25.5498)
(0 -0 25.6979)
(0 -0 25.8475)
(0 -0 25.9969)
(0 -0 26.1432)
(0 -0 26.2853)
(0 -0 26.4231)
(0 -0 26.5568)
(0 -0 26.6863)
(0 -0 26.8118)
(0 -0 26.9334)
(0 -0 27.0514)
(0 -0 27.1656)
(0 -0 27.2762)
(0 -0 27.383)
(0 -0 27.486)
(0 -0 27.585)
(0 -0 27.6804)
(0 -0 27.7723)
(0 -0 27.8615)
(0 -0 27.9484)
(0 -0 28.0338)
(0 -0 28.1181)
(0 -0 28.2018)
(0 -0 28.2852)
(0 -0 28.3682)
(0 -0 28.4509)
(0 -0 28.5329)
(0 -0 28.6141)
(0 -0 28.6943)
(0 -0 28.7732)
(0 -0 28.8505)
(0 -0 28.9263)
(0 -0 28.9999)
(0 -0 29.072)
(0 -0 29.1408)
(0 -0 29.2086)
(0 -0 29.2706)
(0 -0 29.3342)
(0 -0 29.3863)
(0 -0 29.4471)
(0 -0 29.4834)
(0 -0 29.5466)
(0 -0 22.7973)
(0 -0 22.7316)
(0 -0 22.8421)
(0 -0 22.9428)
(0 -0 23.0605)
(0 -0 23.2013)
(0 -0 23.3434)
(0 -0 23.4761)
(0 -0 23.6053)
(0 -0 23.7362)
(0 -0 23.8678)
(0 -0 23.9973)
(0 -0 24.1231)
(0 -0 24.2451)
(0 -0 24.3634)
(0 -0 24.4778)
(0 -0 24.5887)
(0 -0 24.696)
(0 -0 24.7999)
(0 -0 24.9004)
(0 -0 24.9975)
(0 -0 25.091)
(0 -0 25.1809)
(0 -0 25.2671)
(0 -0 25.3499)
(0 -0 25.4295)
(0 -0 25.5065)
(0 -0 25.5817)
(0 -0 25.6556)
(0 -0 25.7288)
(0 -0 25.8017)
(0 -0 25.8747)
(0 -0 25.9475)
(0 -0 26.0203)
(0 -0 26.0927)
(0 -0 26.1646)
(0 -0 26.2356)
(0 -0 26.3055)
(0 -0 26.3741)
(0 -0 26.4413)
(0 -0 26.5067)
(0 -0 26.5705)
(0 -0 26.6315)
(0 -0 26.6915)
(0 -0 26.7464)
(0 -0 26.8024)
(0 -0 26.8484)
(0 -0 26.9018)
(0 -0 26.9335)
(0 -0 26.9893)
(0 -0 21.0026)
(0 -0 20.9475)
(0 -0 21.0418)
(0 -0 21.1293)
(0 -0 21.2272)
(0 -0 21.3451)
(0 -0 21.4669)
(0 -0 21.5821)
(0 -0 21.6946)
(0 -0 21.8091)
(0 -0 21.9249)
(0 -0 22.0393)
(0 -0 22.1507)
(0 -0 22.2587)
(0 -0 22.3632)
(0 -0 22.4642)
(0 -0 22.562)
(0 -0 22.6565)
(0 -0 22.7478)
(0 -0 22.836)
(0 -0 22.9211)
(0 -0 23.0027)
(0 -0 23.0809)
(0 -0 23.1556)
(0 -0 23.227)
(0 -0 23.2954)
(0 -0 23.3616)
(0 -0 23.4262)
(0 -0 23.4898)
(0 -0 23.553)
(0 -0 23.6163)
(0 -0 23.6799)
(0 -0 23.7437)
(0 -0 23.8076)
(0 -0 23.8715)
(0 -0 23.935)
(0 -0 23.9978)
(0 -0 24.0597)
(0 -0 24.1205)
(0 -0 24.1801)
(0 -0 24.2381)
(0 -0 24.2946)
(0 -0 24.3486)
(0 -0 24.4016)
(0 -0 24.4501)
(0 -0 24.4994)
(0 -0 24.5398)
(0 -0 24.5867)
(0 -0 24.6143)
(0 -0 24.6634)
(0 -0 19.3632)
(0 -0 19.3166)
(0 -0 19.3962)
(0 -0 19.4719)
(0 -0 19.5532)
(0 -0 19.6511)
(0 -0 19.7547)
(0 -0 19.8544)
(0 -0 19.9522)
(0 -0 20.0522)
(0 -0 20.1541)
(0 -0 20.2552)
(0 -0 20.3539)
(0 -0 20.4494)
(0 -0 20.5417)
(0 -0 20.6309)
(0 -0 20.717)
(0 -0 20.8002)
(0 -0 20.8804)
(0 -0 20.9577)
(0 -0 21.0319)
(0 -0 21.103)
(0 -0 21.1707)
(0 -0 21.2351)
(0 -0 21.2963)
(0 -0 21.3548)
(0 -0 21.4113)
(0 -0 21.4663)
(0 -0 21.5207)
(0 -0 21.5751)
(0 -0 21.6298)
(0 -0 21.685)
(0 -0 21.7408)
(0 -0 21.7969)
(0 -0 21.8531)
(0 -0 21.9092)
(0 -0 21.9648)
(0 -0 22.0196)
(0 -0 22.0736)
(0 -0 22.1264)
(0 -0 22.1777)
(0 -0 22.2278)
(0 -0 22.2757)
(0 -0 22.3224)
(0 -0 22.3653)
(0 -0 22.4085)
(0 -0 22.4441)
(0 -0 22.485)
(0 -0 22.5091)
(0 -0 22.552)
(0 -0 17.8665)
(0 -0 17.8267)
(0 -0 17.8933)
(0 -0 17.9584)
(0 -0 18.0257)
(0 -0 18.1063)
(0 -0 18.1938)
(0 -0 18.2797)
(0 -0 18.3647)
(0 -0 18.452)
(0 -0 18.5416)
(0 -0 18.6311)
(0 -0 18.7185)
(0 -0 18.8031)
(0 -0 18.8847)
(0 -0 18.9634)
(0 -0 19.0393)
(0 -0 19.1124)
(0 -0 19.1828)
(0 -0 19.2504)
(0 -0 19.3151)
(0 -0 19.3767)
(0 -0 19.4352)
(0 -0 19.4904)
(0 -0 19.5426)
(0 -0 19.5922)
(0 -0 19.64)
(0 -0 19.6866)
(0 -0 19.7328)
(0 -0 19.7793)
(0 -0 19.8263)
(0 -0 19.8742)
(0 -0 19.9228)
(0 -0 19.972)
(0 -0 20.0216)
(0 -0 20.0711)
(0 -0 20.1203)
(0 -0 20.169)
(0 -0 20.2168)
(0 -0 20.2637)
(0 -0 20.3093)
(0 -0 20.3536)
(0 -0 20.396)
(0 -0 20.4373)
(0 -0 20.4752)
(0 -0 20.513)
(0 -0 20.5443)
(0 -0 20.5799)
(0 -0 20.601)
(0 -0 20.6384)
(0 -0 16.5006)
(0 -0 16.4661)
(0 -0 16.5212)
(0 -0 16.5769)
(0 -0 16.6323)
(0 -0 16.6982)
(0 -0 16.7715)
(0 -0 16.8451)
(0 -0 16.9188)
(0 -0 16.9951)
(0 -0 17.074)
(0 -0 17.1533)
(0 -0 17.2309)
(0 -0 17.3059)
(0 -0 17.3782)
(0 -0 17.4478)
(0 -0 17.5147)
(0 -0 17.5789)
(0 -0 17.6406)
(0 -0 17.6997)
(0 -0 17.756)
(0 -0 17.8094)
(0 -0 17.8596)
(0 -0 17.9067)
(0 -0 17.9508)
(0 -0 17.9926)
(0 -0 18.0326)
(0 -0 18.0717)
(0 -0 18.1107)
(0 -0 18.1501)
(0 -0 18.1905)
(0 -0 18.2318)
(0 -0 18.2742)
(0 -0 18.3174)
(0 -0 18.361)
(0 -0 18.4049)
(0 -0 18.4485)
(0 -0 18.4917)
(0 -0 18.5343)
(0 -0 18.5759)
(0 -0 18.6165)
(0 -0 18.6558)
(0 -0 18.6935)
(0 -0 18.7299)
(0 -0 18.7634)
(0 -0 18.7966)
(0 -0 18.8241)
(0 -0 18.855)
(0 -0 18.8735)
(0 -0 18.9057)
(0 -0 15.2538)
(0 -0 15.2235)
(0 -0 15.2687)
(0 -0 15.3159)
(0 -0 15.3612)
(0 -0 15.4147)
(0 -0 15.4754)
(0 -0 15.5382)
(0 -0 15.6021)
(0 -0 15.6688)
(0 -0 15.7385)
(0 -0 15.8088)
(0 -0 15.8779)
(0 -0 15.9446)
(0 -0 16.0088)
(0 -0 16.0704)
(0 -0 16.1294)
(0 -0 16.186)
(0 -0 16.2401)
(0 -0 16.2917)
(0 -0 16.3406)