/*--------------------------------*- C++ -*----------------------------------*\
  =========                 |
  \\      /  F ield         | OpenFOAM: The Open Source CFD Toolbox
   \\    /   O peration     | Website:  https://openfoam.org
    \\  /    A nd           | Version:  7
     \\/     M anipulation  |
\*---------------------------------------------------------------------------*/
FoamFile
{
    version     2.0;
    format      ascii;
    class       volVectorField;
    location    "0.35";
    object      wallShearStress;
}
// * * * * * * * * * * * * * * * * * * * * * * * * * * * * * * * * * * * * * //

dimensions      [0 2 -2 0 0 0 0];

internalField   uniform (0 0 0);

boundaryField
{
    velocityInlet
    {
        type            calculated;
        value           uniform (0 0 0);
    }
    pressureOutlet
    {
        type            calculated;
        value           uniform (0 0 0);
    }
    fixedWalls
    {
        type            calculated;
        value           nonuniform List<vector> 
100
(
(-0.0154317 -0.00691449 0)
(0.0082986 -0.00121489 0)
(0.00170291 0.00018281 0)
(0.00400332 2.31413e-05 0)
(0.00208802 0.000211507 0)
(0.000934077 0.000211172 0)
(-0.000219379 0.000165998 0)
(-0.000793744 8.22859e-05 0)
(-0.000915793 1.87985e-05 0)
(-0.00074157 -2.47186e-05 0)
(-0.000418439 -4.72408e-05 0)
(-4.94267e-05 -5.40009e-05 0)
(0.000296702 -5.24875e-05 0)
(0.000580016 -4.51445e-05 0)
(0.000775088 -3.55895e-05 0)
(0.00082668 -1.66813e-05 0)
(0.000579238 3.67732e-05 0)
(-0.000255083 0.000122095 0)
(-0.00181529 0.000224368 0)
(-0.00379887 0.000284591 0)
(-0.00547709 0.000254931 0)
(-0.00554641 -1.11914e-05 0)
(-0.0020382 -0.000637027 0)
(0.00402749 -0.000884228 0)
(0.00855623 -0.000636085 0)
(0.0096366 -0.000109003 0)
(0.00759775 0.000305311 0)
(0.00411148 0.000437027 0)
(0.000691624 0.00037445 0)
(-0.00185046 0.00025069 0)
(-0.00336372 0.000134979 0)
(-0.0041051 6.05923e-05 0)
(-0.00438524 2.06132e-05 0)
(-0.00445979 6.49899e-06 0)
(-0.00451168 1.30475e-05 0)
(-0.00463183 2.80102e-05 0)
(-0.00478244 3.46607e-05 0)
(-0.00482519 2.05516e-05 0)
(-0.0046246 -1.46632e-05 0)
(-0.00415229 -5.1041e-05 0)
(-0.00351005 -7.23898e-05 0)
(-0.00285591 -7.23495e-05 0)
(-0.00231445 -5.69869e-05 0)
(-0.0019311 -3.78855e-05 0)
(-0.00167745 -2.35749e-05 0)
(-0.00149048 -1.77526e-05 0)
(-0.00130987 -1.98041e-05 0)
(-0.00109978 -2.58867e-05 0)
(-0.000860753 -3.10427e-05 0)
(-0.000629212 -3.0576e-05 0)
(-0.000462124 -2.2129e-05 0)
(-0.000411277 -8.24568e-06 0)
(-0.000495647 7.89375e-06 0)
(-0.000692036 2.06609e-05 0)
(-0.000950812 2.73102e-05 0)
(-0.00121969 2.77027e-05 0)
(-0.00146034 2.40012e-05 0)
(-0.00165444 1.87264e-05 0)
(-0.00180164 1.37472e-05 0)
(-0.00191281 1.00901e-05 0)
(-0.00200263 7.94144e-06 0)
(-0.00208485 6.98697e-06 0)
(-0.0021741 7.68473e-06 0)
(-0.0022912 1.13026e-05 0)
(-0.00245022 1.65354e-05 0)
(-0.00262063 1.62033e-05 0)
(-0.00271365 3.54122e-06 0)
(-0.00267186 -1.35748e-05 0)
(-0.00261011 -1.52487e-05 0)
(-0.00279343 1.74739e-05 0)
(-0.00339855 6.32252e-05 0)
(-0.00434606 9.7269e-05 0)
(-0.00539823 0.000111106 0)
(-0.00622279 9.73268e-05 0)
(-0.00633606 3.70052e-05 0)
(-0.00525458 -9.17912e-05 0)
(-0.00266949 -0.000259376 0)
(0.000910808 -0.000342421 0)
(0.00422018 -0.00032325 0)
(0.00617736 -0.00018263 0)
(0.00630844 -3.27922e-06 0)
(0.00487592 0.000134297 0)
(0.0026829 0.000187269 0)
(0.000513158 0.000172768 0)
(-0.00118468 0.000128127 0)
(-0.00227678 7.79219e-05 0)
(-0.00285393 3.86219e-05 0)
(-0.00307863 1.36099e-05 0)
(-0.00310833 6.57811e-07 0)
(-0.00306344 -3.65833e-06 0)
(-0.00302302 -2.00486e-06 0)
(-0.00305726 4.97163e-06 0)
(-0.00316703 1.33117e-05 0)
(-0.00339135 2.06241e-05 0)
(-0.0035679 2.00848e-05 0)
(-0.00381183 1.70387e-05 0)
(-0.00387756 1.4081e-05 0)
(-0.00405778 1.36142e-05 0)
(-0.00427009 1.93526e-05 0)
(-0.00400416 -1.19749e-05 0)
)
;
    }
    bottomWall
    {
        type            calculated;
        value           nonuniform List<vector> 
800
(
(-0.0353512 0.00216562 0)
(-0.0160365 0.000524961 0)
(-0.0105907 0.000100552 0)
(-0.00845591 3.45874e-05 0)
(-0.00749191 1.96819e-05 0)
(-0.00685628 1.60112e-05 0)
(-0.00634752 1.32114e-05 0)
(-0.00593634 1.0762e-05 0)
(-0.00560179 8.96128e-06 0)
(-0.00532313 7.66144e-06 0)
(-0.00508579 6.67654e-06 0)
(-0.00488034 5.89841e-06 0)
(-0.00470031 5.26816e-06 0)
(-0.00454096 4.74888e-06 0)
(-0.00439872 4.31495e-06 0)
(-0.0042708 3.94781e-06 0)
(-0.00415501 3.63374e-06 0)
(-0.00404962 3.36243e-06 0)
(-0.00395321 3.12607e-06 0)
(-0.00386463 2.91857e-06 0)
(-0.00378291 2.73517e-06 0)
(-0.00370726 2.57207e-06 0)
(-0.00363699 2.42624e-06 0)
(-0.00357152 2.29519e-06 0)
(-0.00351037 2.17687e-06 0)
(-0.00345311 2.06959e-06 0)
(-0.00339937 1.97195e-06 0)
(-0.00334882 1.88276e-06 0)
(-0.00330118 1.80101e-06 0)
(-0.0032562 1.72586e-06 0)
(-0.00321366 1.65658e-06 0)
(-0.00317337 1.59253e-06 0)
(-0.00313515 1.53319e-06 0)
(-0.00309883 1.47807e-06 0)
(-0.00306429 1.42677e-06 0)
(-0.00303138 1.37893e-06 0)
(-0.00300001 1.33422e-06 0)
(-0.00297006 1.29238e-06 0)
(-0.00294143 1.25313e-06 0)
(-0.00291405 1.21627e-06 0)
(-0.00288783 1.1816e-06 0)
(-0.00286271 1.14893e-06 0)
(-0.0028386 1.11813e-06 0)
(-0.00281546 1.08898e-06 0)
(-0.00279323 1.06154e-06 0)
(-0.00277186 1.03529e-06 0)
(-0.00275128 1.01089e-06 0)
(-0.00273149 9.86895e-07 0)
(-0.00271239 9.65337e-07 0)
(-0.00269401 9.4234e-07 0)
(-0.00267864 9.23497e-07 0)
(-0.00266595 9.12826e-07 0)
(-0.00265343 8.99143e-07 0)
(-0.00264109 8.84551e-07 0)
(-0.00262895 8.70882e-07 0)
(-0.002617 8.57885e-07 0)
(-0.00260522 8.45201e-07 0)
(-0.00259361 8.32787e-07 0)
(-0.00258217 8.20672e-07 0)
(-0.0025709 8.0885e-07 0)
(-0.00255979 7.97304e-07 0)
(-0.00254883 7.86021e-07 0)
(-0.00253803 7.74991e-07 0)
(-0.00252738 7.64208e-07 0)
(-0.00251688 7.53663e-07 0)
(-0.00250652 7.43348e-07 0)
(-0.0024963 7.33257e-07 0)
(-0.00248621 7.23383e-07 0)
(-0.00247627 7.13718e-07 0)
(-0.00246645 7.04257e-07 0)
(-0.00245676 6.94993e-07 0)
(-0.0024472 6.85922e-07 0)
(-0.00243776 6.77037e-07 0)
(-0.00242844 6.68334e-07 0)
(-0.00241925 6.59807e-07 0)
(-0.00241016 6.51452e-07 0)
(-0.0024012 6.43264e-07 0)
(-0.00239234 6.35238e-07 0)
(-0.00238359 6.2737e-07 0)
(-0.00237495 6.19656e-07 0)
(-0.00236642 6.1209e-07 0)
(-0.00235799 6.04669e-07 0)
(-0.00234966 5.97389e-07 0)
(-0.00234143 5.90246e-07 0)
(-0.00233329 5.83237e-07 0)
(-0.00232526 5.76358e-07 0)
(-0.00231731 5.69605e-07 0)
(-0.00230946 5.62976e-07 0)
(-0.0023017 5.56467e-07 0)
(-0.00229403 5.50076e-07 0)
(-0.00228644 5.43799e-07 0)
(-0.00227894 5.37635e-07 0)
(-0.00227153 5.31579e-07 0)
(-0.0022642 5.25629e-07 0)
(-0.00225695 5.19782e-07 0)
(-0.00224978 5.14038e-07 0)
(-0.00224268 5.08391e-07 0)
(-0.00223567 5.02841e-07 0)
(-0.00222873 4.97385e-07 0)
(-0.00222186 4.9202e-07 0)
(-0.00221507 4.86745e-07 0)
(-0.00220835 4.81557e-07 0)
(-0.00220171 4.76455e-07 0)
(-0.00219513 4.71436e-07 0)
(-0.00218862 4.66499e-07 0)
(-0.00218218 4.61642e-07 0)
(-0.0021758 4.56864e-07 0)
(-0.00216949 4.52162e-07 0)
(-0.00216325 4.47534e-07 0)
(-0.00215706 4.4298e-07 0)
(-0.00215094 4.38497e-07 0)
(-0.00214489 4.34085e-07 0)
(-0.00213889 4.2974e-07 0)
(-0.00213295 4.25463e-07 0)
(-0.00212707 4.2125e-07 0)
(-0.00212125 4.17101e-07 0)
(-0.00211548 4.13014e-07 0)
(-0.00210978 4.08988e-07 0)
(-0.00210412 4.05021e-07 0)
(-0.00209852 4.01113e-07 0)
(-0.00209298 3.9726e-07 0)
(-0.00208749 3.93463e-07 0)
(-0.00208205 3.8972e-07 0)
(-0.00207666 3.8603e-07 0)
(-0.00207132 3.82392e-07 0)
(-0.00206603 3.78805e-07 0)
(-0.00206079 3.75267e-07 0)
(-0.0020556 3.71778e-07 0)
(-0.00205046 3.68338e-07 0)
(-0.00204537 3.64947e-07 0)
(-0.00204032 3.61601e-07 0)
(-0.00203532 3.58301e-07 0)
(-0.00203036 3.55048e-07 0)
(-0.00202545 3.51841e-07 0)
(-0.00202058 3.48679e-07 0)
(-0.00201576 3.4556e-07 0)
(-0.00201098 3.42486e-07 0)
(-0.00200624 3.39451e-07 0)
(-0.00200154 3.36463e-07 0)
(-0.00199688 3.3351e-07 0)
(-0.00199227 3.30609e-07 0)
(-0.00198769 3.27732e-07 0)
(-0.00198315 3.24922e-07 0)
(-0.00197866 3.22113e-07 0)
(-0.0019742 3.19403e-07 0)
(-0.00196977 3.16645e-07 0)
(-0.00196539 3.14048e-07 0)
(-0.00196104 3.11307e-07 0)
(-0.00195673 3.08814e-07 0)
(-0.00195246 3.06006e-07 0)
(-0.00194887 3.03521e-07 0)
(-0.00194594 3.02242e-07 0)
(-0.001943 3.00675e-07 0)
(-0.00194006 2.98874e-07 0)
(-0.00193712 2.97085e-07 0)
(-0.00193417 2.95372e-07 0)
(-0.00193122 2.93669e-07 0)
(-0.00192826 2.91984e-07 0)
(-0.0019253 2.90299e-07 0)
(-0.00192234 2.88621e-07 0)
(-0.00191938 2.86948e-07 0)
(-0.00191641 2.85282e-07 0)
(-0.00191344 2.83618e-07 0)
(-0.00191046 2.81977e-07 0)
(-0.00190748 2.80332e-07 0)
(-0.0019045 2.78702e-07 0)
(-0.00190151 2.77076e-07 0)
(-0.00189852 2.75463e-07 0)
(-0.00189553 2.73854e-07 0)
(-0.00189253 2.72253e-07 0)
(-0.00188953 2.70658e-07 0)
(-0.00188653 2.69069e-07 0)
(-0.00188353 2.67485e-07 0)
(-0.00188052 2.6592e-07 0)
(-0.0018775 2.64353e-07 0)
(-0.00187449 2.62806e-07 0)
(-0.00187147 2.61264e-07 0)
(-0.00186845 2.59728e-07 0)
(-0.00186542 2.58201e-07 0)
(-0.00186239 2.56679e-07 0)
(-0.00185936 2.55161e-07 0)
(-0.00185633 2.53665e-07 0)
(-0.00185329 2.5217e-07 0)
(-0.00185025 2.5069e-07 0)
(-0.0018472 2.49214e-07 0)
(-0.00184416 2.47745e-07 0)
(-0.00184111 2.46289e-07 0)
(-0.00183805 2.44842e-07 0)
(-0.00183499 2.434e-07 0)
(-0.00183193 2.41983e-07 0)
(-0.00182887 2.40563e-07 0)
(-0.0018258 2.39167e-07 0)
(-0.00182273 2.37777e-07 0)
(-0.00181966 2.36397e-07 0)
(-0.00181658 2.35024e-07 0)
(-0.0018135 2.33665e-07 0)
(-0.00181041 2.32325e-07 0)
(-0.00180733 2.30987e-07 0)
(-0.00180423 2.29659e-07 0)
(-0.00180114 2.28363e-07 0)
(-0.00179804 2.27067e-07 0)
(-0.00179494 2.25794e-07 0)
(-0.00179183 2.24528e-07 0)
(-0.00178872 2.2327e-07 0)
(-0.0017856 2.22032e-07 0)
(-0.00178248 2.20803e-07 0)
(-0.00177936 2.19585e-07 0)
(-0.00177623 2.18399e-07 0)
(-0.0017731 2.17211e-07 0)
(-0.00176996 2.1606e-07 0)
(-0.00176682 2.14917e-07 0)
(-0.00176367 2.13787e-07 0)
(-0.00176052 2.12676e-07 0)
(-0.00175736 2.11563e-07 0)
(-0.0017542 2.10471e-07 0)
(-0.00175103 2.0943e-07 0)
(-0.00174786 2.08387e-07 0)
(-0.00174468 2.07378e-07 0)
(-0.00174149 2.06374e-07 0)
(-0.0017383 2.054e-07 0)
(-0.0017351 2.0444e-07 0)
(-0.00173189 2.03499e-07 0)
(-0.00172868 2.02583e-07 0)
(-0.00172546 2.01676e-07 0)
(-0.00172223 2.00779e-07 0)
(-0.00171899 1.99968e-07 0)
(-0.00171575 1.99106e-07 0)
(-0.00171249 1.9837e-07 0)
(-0.00170923 1.97509e-07 0)
(-0.00170596 1.96885e-07 0)
(-0.00170268 1.95959e-07 0)
(-0.00169938 1.95575e-07 0)
(-0.00169609 1.94345e-07 0)
(-0.00169276 1.94593e-07 0)
(-0.00168946 1.92639e-07 0)
(-0.00168609 1.94203e-07 0)
(-0.00168279 1.9038e-07 0)
(-0.00167934 1.94943e-07 0)
(-0.0016761 1.86704e-07 0)
(-0.00167251 1.98168e-07 0)
(-0.00166939 1.7982e-07 0)
(-0.00166554 2.06596e-07 0)
(-0.00166272 1.66084e-07 0)
(-0.00165837 2.25438e-07 0)
(-0.00165615 1.3861e-07 0)
(-0.00165091 2.63327e-07 0)
(-0.00164974 8.62539e-08 0)
(-0.00164313 3.29923e-07 0)
(-0.00164348 3.40951e-09 0)
(-0.00163509 3.63939e-07 0)
(-0.0353512 -0.00216563 0)
(-0.0160361 -0.000524978 0)
(-0.0105898 -0.00010057 0)
(-0.0084546 -3.46032e-05 0)
(-0.00749024 -1.9697e-05 0)
(-0.00685423 -1.60262e-05 0)
(-0.0063451 -1.32268e-05 0)
(-0.00593351 -1.07782e-05 0)
(-0.00559853 -8.9785e-06 0)
(-0.0053194 -7.67967e-06 0)
(-0.00508157 -6.69558e-06 0)
(-0.00487562 -5.91802e-06 0)
(-0.00469509 -5.2881e-06 0)
(-0.00453525 -4.76896e-06 0)
(-0.00439251 -4.33504e-06 0)
(-0.00426411 -3.96786e-06 0)
(-0.00414785 -3.65376e-06 0)
(-0.00404199 -3.38244e-06 0)
(-0.00394512 -3.14606e-06 0)
(-0.00385607 -2.9385e-06 0)
(-0.0037739 -2.75495e-06 0)
(-0.0036978 -2.59156e-06 0)
(-0.00362709 -2.44521e-06 0)
(-0.00356121 -2.31334e-06 0)
(-0.00349966 -2.19385e-06 0)
(-0.00344204 -2.08494e-06 0)
(-0.00338797 -1.98511e-06 0)
(-0.00333715 -1.89309e-06 0)
(-0.00328932 -1.80765e-06 0)
(-0.00324423 -1.72794e-06 0)
(-0.00320169 -1.65278e-06 0)
(-0.00316153 -1.58176e-06 0)
(-0.0031236 -1.51341e-06 0)
(-0.00308777 -1.44804e-06 0)
(-0.00305395 -1.38342e-06 0)
(-0.00302205 -1.32088e-06 0)
(-0.00299199 -1.25733e-06 0)
(-0.0029638 -1.19456e-06 0)
(-0.00293722 -1.1309e-06 0)
(-0.00291274 -1.06303e-06 0)
(-0.00288935 -1.00343e-06 0)
(-0.00286895 -9.19525e-07 0)
(-0.00284805 -8.85573e-07 0)
(-0.00283289 -7.55163e-07 0)
(-0.0028125 -8.26827e-07 0)
(-0.00280548 -5.4843e-07 0)
(-0.0027796 -1.05452e-06 0)
(-0.0027872 -5.43389e-08 0)
(-0.00274471 -7.19166e-06 0)
(-0.00258358 0.000191431 0)
(1.8619e-05 1.08684e-05 0)
(8.60121e-05 -7.64835e-05 0)
(0.000119929 -0.000244827 0)
(0.000128782 -0.000425653 0)
(0.000120222 -0.000607504 0)
(0.000106848 -0.000774636 0)
(9.42524e-05 -0.000927014 0)
(8.52525e-05 -0.00106744 0)
(8.19613e-05 -0.00120169 0)
(8.40076e-05 -0.00133638 0)
(8.52344e-05 -0.00147621 0)
(7.56121e-05 -0.00161504 0)
(4.6987e-05 -0.00173606 0)
(-9.06382e-06 -0.00181797 0)
(-9.27142e-05 -0.00182852 0)
(-0.000183648 -0.00174047 0)
(-0.00023006 -0.00154792 0)
(-0.000190127 -0.00130072 0)
(-7.93948e-05 -0.00109703 0)
(5.32393e-05 -0.00101993 0)
(0.000155385 -0.00107055 0)
(0.00018507 -0.00117246 0)
(0.000108308 -0.00121327 0)
(-6.9353e-05 -0.00110667 0)
(-0.000269945 -0.000836984 0)
(-0.000396637 -0.000436147 0)
(-0.000420368 -9.49502e-06 0)
(-0.000392003 0.000362942 0)
(-0.00034475 0.000674753 0)
(-0.000289841 0.000928762 0)
(-0.000232797 0.00112643 0)
(-0.000177191 0.00127137 0)
(-0.000125105 0.00136814 0)
(-7.79152e-05 0.0014215 0)
(-3.70231e-05 0.00143731 0)
(-1.20337e-06 0.00142162 0)
(2.91736e-05 0.00138 0)
(5.47384e-05 0.00131661 0)
(7.5785e-05 0.00123554 0)
(9.2675e-05 0.0011405 0)
(0.000105771 0.00103495 0)
(0.000115559 0.000921937 0)
(0.000122282 0.000804191 0)
(0.000126271 0.000684176 0)
(0.000127816 0.000564055 0)
(0.000127225 0.0004458 0)
(0.000124869 0.000331152 0)
(0.0001212 0.000220856 0)
(0.000115671 0.000114036 0)
(0.000107768 1.28977e-05 0)
(9.87548e-05 -7.96896e-05 0)
(8.93978e-05 -0.000164118 0)
(7.96916e-05 -0.000240641 0)
(6.97302e-05 -0.000309209 0)
(5.96528e-05 -0.000369806 0)
(4.9605e-05 -0.000422527 0)
(3.97163e-05 -0.000467567 0)
(3.00887e-05 -0.000505199 0)
(2.0789e-05 -0.000535747 0)
(1.18407e-05 -0.000559566 0)
(3.21219e-06 -0.00057702 0)
(-5.17373e-06 -0.000588464 0)
(-1.35484e-05 -0.00059423 0)
(-2.20906e-05 -0.00059439 0)
(-3.09727e-05 -0.000589234 0)
(-4.06127e-05 -0.000578922 0)
(-5.15403e-05 -0.000563298 0)
(-6.4412e-05 -0.000542098 0)
(-8.03327e-05 -0.000514839 0)
(-0.000100922 -0.00048087 0)
(-0.000129031 -0.000440098 0)
(-0.000171741 -0.000391344 0)
(-0.000237775 -0.000320824 0)
(-0.000302634 -0.000195612 0)
(-0.000297751 -2.32825e-05 0)
(-0.000195219 0.000135337 0)
(-5.60597e-05 0.000241408 0)
(7.49954e-05 0.000301507 0)
(0.000177812 0.000323662 0)
(0.000232508 0.000304247 0)
(0.000244353 0.000276013 0)
(0.000218074 0.000256275 0)
(0.000159368 0.000254966 0)
(8.53041e-05 0.000285999 0)
(1.3904e-05 0.000319883 0)
(-2.58388e-05 0.000327878 0)
(-4.23562e-05 0.000317585 0)
(-6.19761e-05 0.000297184 0)
(-8.93214e-05 0.000282389 0)
(-0.000107138 0.000284963 0)
(-0.000103274 0.000300367 0)
(-7.71198e-05 0.000316375 0)
(-3.81648e-05 0.000322575 0)
(-7.42779e-07 0.000314877 0)
(2.15453e-05 0.000300461 0)
(2.88885e-05 0.000290127 0)
(2.80699e-05 0.000286469 0)
(2.44571e-05 0.000286374 0)
(2.06526e-05 0.000286274 0)
(1.7604e-05 0.000284198 0)
(1.63027e-05 0.00028011 0)
(1.87258e-05 0.000274207 0)
(2.69305e-05 0.000265093 0)
(4.14519e-05 0.000249976 0)
(6.10415e-05 0.000225833 0)
(8.27837e-05 0.000190449 0)
(0.000102736 0.000143256 0)
(0.000116669 8.59063e-05 0)
(0.00012107 2.23957e-05 0)
(0.000114209 -4.13886e-05 0)
(9.69775e-05 -9.91836e-05 0)
(7.23138e-05 -0.000146205 0)
(4.40203e-05 -0.000179926 0)
(1.57223e-05 -0.000199792 0)
(-9.5795e-06 -0.000206506 0)
(-2.94622e-05 -0.000201656 0)
(-4.22646e-05 -0.000187671 0)
(-4.7175e-05 -0.000167534 0)
(-4.43223e-05 -0.00014446 0)
(-3.44038e-05 -0.000121386 0)
(-1.79277e-05 -0.000100699 0)
(5.22391e-06 -8.54293e-05 0)
(3.51426e-05 -7.8326e-05 0)
(6.54783e-05 -7.69459e-05 0)
(8.98889e-05 -7.85817e-05 0)
(0.000103616 -8.10794e-05 0)
(0.000104052 -9.25534e-05 0)
(7.34806e-05 -0.000106846 0)
(4.47604e-06 -0.000106011 0)
(-9.10773e-05 -6.72313e-05 0)
(-0.000185997 1.39261e-05 0)
(-0.000260152 0.000120641 0)
(-0.000309982 0.000233979 0)
(-0.000340341 0.000345302 0)
(-0.000355394 0.000453006 0)
(-0.000357009 0.000555976 0)
(-0.000346372 0.000651937 0)
(-0.000324925 0.000738471 0)
(-0.000294383 0.000813699 0)
(-0.000256538 0.000876344 0)
(-0.000213181 0.000925609 0)
(-0.000166041 0.000961091 0)
(-0.000116568 0.000982803 0)
(-6.56677e-05 0.000991151 0)
(-1.41026e-05 0.000986324 0)
(3.70935e-05 0.000968879 0)
(8.75822e-05 0.000939582 0)
(0.00013721 0.000898883 0)
(0.000185751 0.000847318 0)
(0.000232996 0.000785409 0)
(0.000278703 0.000713681 0)
(0.000322595 0.000632643 0)
(0.000364335 0.000542799 0)
(0.0004035 0.000444666 0)
(0.000439553 0.000338823 0)
(0.000471829 0.000225983 0)
(0.000499813 0.000107099 0)
(0.000522761 -1.68103e-05 0)
(0.000539696 -0.000144284 0)
(0.000550148 -0.000273552 0)
(0.000553961 -0.000402849 0)
(0.000551104 -0.00053053 0)
(0.000541627 -0.000655169 0)
(0.000525767 -0.000775422 0)
(0.000503823 -0.000890204 0)
(0.000476197 -0.00099852 0)
(0.000443381 -0.00109953 0)
(0.000405925 -0.00119254 0)
(0.000364399 -0.00127698 0)
(0.000319386 -0.00135242 0)
(0.000271464 -0.00141851 0)
(0.000221206 -0.00147503 0)
(0.000169158 -0.00152187 0)
(0.000115854 -0.00155908 0)
(6.1666e-05 -0.00158692 0)
(7.06927e-06 -0.00160559 0)
(-4.79984e-05 -0.0016154 0)
(-0.00010397 -0.00161598 0)
(-0.000160101 -0.00160697 0)
(-0.000215437 -0.00158865 0)
(-0.000269458 -0.00156125 0)
(-0.000321717 -0.00152513 0)
(-0.000371772 -0.00148067 0)
(-0.000419133 -0.00142822 0)
(-0.000463238 -0.00136807 0)
(-0.000503392 -0.00130058 0)
(-0.000538904 -0.00122646 0)
(-0.0005692 -0.00114636 0)
(-0.000593644 -0.00106079 0)
(-0.000611514 -0.000970377 0)
(-0.00062208 -0.000875864 0)
(-0.000624632 -0.000778176 0)
(-0.000618544 -0.000678588 0)
(-0.000603516 -0.000579492 0)
(-0.000580306 -0.000486756 0)
(-0.00055294 -0.000414462 0)
(-0.000534288 -0.000390933 0)
(-0.000555268 -0.000460937 0)
(-0.00065558 -0.000667322 0)
(-0.000855505 -0.00101278 0)
(9.316e-07 -8.65414e-06 0)
(4.17155e-05 -3.05178e-05 0)
(6.9923e-05 -2.34975e-05 0)
(8.32586e-05 -2.05618e-05 0)
(0.000105147 -2.3768e-05 0)
(0.000120138 -1.74901e-05 0)
(0.000126224 -1.82369e-05 0)
(0.000140022 -2.58236e-05 0)
(0.000170101 -2.8448e-05 0)
(0.000208405 -1.16795e-05 0)
(0.000228649 1.58479e-05 0)
(0.000221236 2.86562e-05 0)
(0.000204826 2.13483e-05 0)
(0.000188557 2.07818e-05 0)
(0.000148695 6.14098e-05 0)
(2.57759e-05 0.000149662 0)
(-0.000199455 0.000225437 0)
(-0.000456985 0.0002343 0)
(-0.000677129 0.000176876 0)
(-0.000822106 8.08669e-05 0)
(-0.000877414 -2.98163e-05 0)
(-0.000839884 -0.000139411 0)
(-0.000715326 -0.000228797 0)
(-0.000525723 -0.000281365 0)
(-0.00030641 -0.000287826 0)
(-9.40169e-05 -0.000248763 0)
(7.87067e-05 -0.000172625 0)
(0.000188996 -8.387e-05 0)
(0.000238048 -2.92991e-05 0)
(0.0002559 -2.66739e-05 0)
(0.0002462 -2.98331e-05 0)
(0.000228313 5.11182e-05 0)
(0.000206431 0.000250021 0)
(0.000151592 0.000450718 0)
(8.94788e-05 0.000470126 0)
(0.000210174 -0.000274774 0)
(0.000567878 -0.000683693 0)
(0.00119073 -0.000564486 0)
(0.00131839 -0.000202841 0)
(0.00133626 -0.000217745 0)
(0.00149514 -0.00019262 0)
(0.00153555 -6.30322e-05 0)
(0.00151211 -5.45951e-05 0)
(0.00152598 -4.81989e-05 0)
(0.00151092 4.432e-06 0)
(0.00146857 1.59336e-05 0)
(0.00144608 -1.62655e-06 0)
(0.00144031 -9.72576e-06 0)
(0.00144053 -1.75097e-05 0)
(0.00145272 -3.11119e-05 0)
(0.00147784 -4.42044e-05 0)
(0.00151238 -5.50155e-05 0)
(0.0015535 -6.31681e-05 0)
(0.00159797 -6.75103e-05 0)
(0.00164202 -6.66057e-05 0)
(0.00168129 -5.88304e-05 0)
(0.00171092 -4.30162e-05 0)
(0.00172575 -1.96697e-05 0)
(0.00172047 8.47019e-06 0)
(0.00169152 4.08384e-05 0)
(0.00163311 7.89274e-05 0)
(0.00153952 0.000123504 0)
(0.00140539 0.000174498 0)
(0.00122674 0.000230706 0)
(0.00100213 0.000290307 0)
(0.000733591 0.00035219 0)
(0.000420631 0.000419648 0)
(4.1727e-05 0.000486915 0)
(-0.000393445 0.000528183 0)
(-0.000819602 0.000533079 0)
(-0.00123427 0.000529349 0)
(-0.00165286 0.000522156 0)
(-0.00207106 0.000508297 0)
(-0.00247976 0.000486589 0)
(-0.00287108 0.000456454 0)
(-0.00323775 0.00041784 0)
(-0.00357374 0.000368267 0)
(-0.00386857 0.000307317 0)
(-0.00411613 0.000231704 0)
(-0.00430146 0.000141481 0)
(-0.00441959 3.25962e-05 0)
(-0.0044533 -9.57905e-05 0)
(-0.00439483 -0.000251161 0)
(-0.00420625 -0.000435383 0)
(-0.00390435 -0.000633944 0)
(-0.00342679 -0.000875251 0)
(-0.00282313 -0.0010571 0)
(-0.00199307 -0.00133438 0)
(-0.00069835 -0.00108623 0)
(-4.43522e-05 -0.000152817 0)
(7.86583e-05 0.000114053 0)
(0.000171915 7.68062e-07 0)
(0.000270175 -0.000106877 0)
(0.000422845 -0.000190864 0)
(0.000552202 -0.000158246 0)
(0.000600822 -5.96725e-05 0)
(0.000589231 3.81995e-05 0)
(0.000483483 0.000164975 0)
(0.000252643 0.000237414 0)
(-7.36314e-06 0.000153305 0)
(0.000147493 4.83831e-05 0)
(0.000257341 0.000375821 0)
(0.000249926 0.000802967 0)
(1.17694e-05 0.000937617 0)
(-0.000201834 0.000689304 0)
(-0.000275368 0.00033948 0)
(-0.000291722 -8.255e-05 0)
(-0.000251215 -0.000469332 0)
(-0.00018258 -0.000783118 0)
(-0.000101798 -0.000998268 0)
(-2.99278e-05 -0.00110515 0)
(1.65636e-05 -0.00111195 0)
(4.20242e-05 -0.00105207 0)
(5.4271e-05 -0.000965842 0)
(4.99735e-05 -0.000879967 0)
(3.44357e-05 -0.000804043 0)
(2.06432e-05 -0.000740952 0)
(6.1803e-06 -0.000699539 0)
(-6.49883e-06 -0.000685274 0)
(-8.10819e-06 -0.000690607 0)
(1.39267e-05 -0.000691279 0)
(6.39187e-05 -0.000652338 0)
(0.000124045 -0.000558275 0)
(0.00016594 -0.000423782 0)
(0.00018002 -0.000276655 0)
(0.000175598 -0.000134854 0)
(0.000165605 -3.18968e-06 0)
(0.000161256 0.000121517 0)
(0.000171428 0.000249342 0)
(0.000194691 0.000387368 0)
(0.000224782 0.000545531 0)
(0.000244287 0.000739253 0)
(0.000226857 0.000956966 0)
(0.000165791 0.00116254 0)
(6.61105e-05 0.00131658 0)
(-3.90135e-05 0.00139478 0)
(-0.000125325 0.00137891 0)
(-0.000203192 0.00126302 0)
(-0.000259196 0.00108567 0)
(-0.000290216 0.000869461 0)
(-0.000300882 0.000602891 0)
(-0.000267364 0.000284606 0)
(-0.000127088 -5.59416e-05 0)
(0.000176222 -0.00027778 0)
(0.000420949 -0.000297607 0)
(0.000499561 -0.000245897 0)
(0.000243504 -7.54421e-05 0)
(-0.000286782 8.28805e-05 0)
(-0.000939745 1.87197e-05 0)
(-0.00116095 -0.000248862 0)
(-0.00122199 -0.000652369 0)
(-0.000779945 -0.00106196 0)
(0.000253939 -0.000532057 0)
(0.000804991 0.000148138 0)
(0.000749378 0.000894946 0)
(0.000468442 0.00123806 0)
(0.000552785 0.00149544 0)
(0.000599293 0.00191167 0)
(0.00064979 0.00227199 0)
(0.000726269 0.00265751 0)
(0.000741147 0.0030484 0)
(0.000705021 0.00340449 0)
(0.00060017 0.00371322 0)
(0.000469033 0.00394088 0)
(0.000349965 0.00410317 0)
(0.000262933 0.0042193 0)
(0.000208506 0.00431105 0)
(0.000173158 0.00438945 0)
(0.000148034 0.00445662 0)
(0.000127319 0.00451364 0)
(0.000109968 0.00456038 0)
(9.55879e-05 0.00459849 0)
(8.3424e-05 0.00462925 0)
(7.242e-05 0.00465364 0)
(6.16458e-05 0.00467192 0)
(5.11599e-05 0.00468411 0)
(4.12117e-05 0.0046907 0)
(3.18267e-05 0.00469226 0)
(2.29174e-05 0.00468921 0)
(1.44472e-05 0.00468216 0)
(6.46065e-06 0.00467124 0)
(-9.58746e-07 0.00465699 0)
(-7.90971e-06 0.00463972 0)
(-1.43485e-05 0.00461975 0)
(-2.02433e-05 0.00459742 0)
(-2.55942e-05 0.00457306 0)
(-3.03993e-05 0.00454697 0)
(-3.46494e-05 0.00451942 0)
(-3.83339e-05 0.0044907 0)
(-4.14421e-05 0.00446105 0)
(-4.39645e-05 0.00443075 0)
(-4.58875e-05 0.00440001 0)
(-4.71957e-05 0.00436907 0)
(-4.78757e-05 0.00433816 0)
(-4.7919e-05 0.00430749 0)
(-4.73224e-05 0.00427727 0)
(-4.60893e-05 0.00424769 0)
(-4.42309e-05 0.00421893 0)
(-4.17682e-05 0.00419115 0)
(-3.87317e-05 0.00416452 0)
(-3.51626e-05 0.00413918 0)
(-3.11117e-05 0.00411524 0)
(-2.66383e-05 0.00409281 0)
(-2.18076e-05 0.00407199 0)
(-1.66878e-05 0.00405285 0)
(-1.13464e-05 0.00403544 0)
(-5.84628e-06 0.00401982 0)
(-2.43423e-07 0.00400601 0)
(5.41481e-06 0.00399404 0)
(1.10881e-05 0.00398391 0)
(1.67383e-05 0.00397565 0)
(2.23191e-05 0.00396924 0)
(2.77625e-05 0.00396466 0)
(3.29701e-05 0.00396186 0)
(3.78084e-05 0.00396076 0)
(4.20489e-05 0.0039612 0)
(4.54113e-05 0.0039629 0)
(4.75614e-05 0.00396552 0)
(4.80945e-05 0.00396858 0)
(4.65096e-05 0.00397144 0)
(4.24032e-05 0.00397323 0)
(3.54784e-05 0.00397302 0)
(2.55493e-05 0.00396981 0)
(1.25956e-05 0.00396257 0)
(-3.18757e-06 0.00395032 0)
(-2.13819e-05 0.00393221 0)
(-4.13862e-05 0.00390769 0)
(-6.25076e-05 0.00387648 0)
(-8.40486e-05 0.00383861 0)
(-0.000105371 0.00379438 0)
(-0.000125941 0.00374428 0)
(-0.000145365 0.00368892 0)
(-0.000163383 0.003629 0)
(-0.000179863 0.00356519 0)
(-0.000194773 0.00349817 0)
(-0.000208156 0.00342853 0)
(-0.000220106 0.0033568 0)
(-0.000230745 0.00328344 0)
(-0.000240216 0.00320885 0)
(-0.000248663 0.00313334 0)
(-0.000256231 0.00305718 0)
(-0.000263058 0.00298061 0)
(-0.000269272 0.00290378 0)
(-0.000274992 0.00282684 0)
(-0.000280324 0.0027499 0)
(-0.000285366 0.00267302 0)
(-0.000290204 0.00259627 0)
(-0.000294918 0.00251968 0)
(-0.00029958 0.00244327 0)
(-0.000304254 0.00236705 0)
(-0.000309003 0.00229101 0)
(-0.000313884 0.00221513 0)
(-0.000318953 0.00213938 0)
(-0.000324266 0.00206374 0)
(-0.000329876 0.00198814 0)
(-0.000335839 0.00191255 0)
(-0.000342214 0.00183689 0)
(-0.000349061 0.00176111 0)
(-0.000356447 0.00168513 0)
(-0.000364443 0.00160888 0)
(-0.000373131 0.00153226 0)
(-0.000382599 0.00145517 0)
(-0.000392949 0.00137753 0)
(-0.000404297 0.00129921 0)
(-0.000416775 0.00122011 0)
(-0.000430537 0.00114008 0)
(-0.000445762 0.00105897 0)
(-0.000462653 0.00097662 0)
(-0.000481441 0.000892799 0)
(-0.000502382 0.000807238 0)
(-0.000525744 0.000719602 0)
(-0.000551799 0.000629487 0)
(-0.000580813 0.000536445 0)
(-0.000613025 0.000440026 0)
(-0.000648543 0.000339842 0)
(-0.000687277 0.000235642 0)
(-0.000730535 0.000127425 0)
(-0.000779038 1.44205e-05 0)
(-0.000831689 -0.000103612 0)
(-0.000889187 -0.000226396 0)
(-0.000953172 -0.000354453 0)
(-0.00102414 -0.00048829 0)
(-0.00110277 -0.000628454 0)
(-0.00118989 -0.000775543 0)
(-0.00128643 -0.000930194 0)
(-0.00139336 -0.00109308 0)
(-0.00151179 -0.0012649 0)
(-0.00164292 -0.00144636 0)
(-0.00178814 -0.00163841 0)
(-0.00194892 -0.00184135 0)
(-0.00212727 -0.00205768 0)
(-0.00232428 -0.00228421 0)
(-0.00254451 -0.0025324 0)
(-0.00278449 -0.00277935 0)
(-0.00306075 -0.00307996 0)
(-0.00334408 -0.003321 0)
(-0.0037016 -0.0037391 0)
(-0.00398644 -0.00386075 0)
(-0.00444785 -0.00460288 0)
(-0.0044097 -0.00414109 0)
)
;
    }
    frontAndBack
    {
        type            empty;
    }
}


// ************************************************************************* //
