/*--------------------------------*- C++ -*----------------------------------*\
  =========                 |
  \\      /  F ield         | OpenFOAM: The Open Source CFD Toolbox
   \\    /   O peration     | Website:  https://openfoam.org
    \\  /    A nd           | Version:  7
     \\/     M anipulation  |
\*---------------------------------------------------------------------------*/
FoamFile
{
    version     2.0;
    format      ascii;
    class       volScalarField;
    location    "0.03";
    object      k;
}
// * * * * * * * * * * * * * * * * * * * * * * * * * * * * * * * * * * * * * //

dimensions      [0 2 -2 0 0 0 0];

internalField   nonuniform List<scalar> 
70000
(
1.08549e-05
4.21873e-06
2.82416e-06
2.31655e-06
1.997e-06
1.75664e-06
1.56435e-06
1.40747e-06
1.27628e-06
1.16557e-06
1.07015e-06
9.88132e-07
9.16043e-07
8.53393e-07
7.97405e-07
7.48406e-07
7.03872e-07
6.64716e-07
6.28535e-07
5.96695e-07
5.66778e-07
5.40524e-07
5.15401e-07
4.93487e-07
4.72088e-07
4.53598e-07
4.3512e-07
4.19364e-07
4.03203e-07
3.89666e-07
3.75367e-07
3.63654e-07
3.5086e-07
3.40662e-07
3.29091e-07
3.20163e-07
3.09585e-07
3.01731e-07
2.91954e-07
2.85021e-07
2.75878e-07
2.69777e-07
2.61059e-07
2.55856e-07
2.47153e-07
2.43864e-07
2.33803e-07
2.4038e-07
2.29075e-07
2.73424e-07
1.72794e-05
1.13672e-05
8.52003e-06
7.00975e-06
6.03582e-06
5.30949e-06
4.72912e-06
4.25536e-06
3.85916e-06
3.52481e-06
3.23668e-06
2.98899e-06
2.77127e-06
2.58205e-06
2.41292e-06
2.2649e-06
2.13033e-06
2.01202e-06
1.90268e-06
1.80647e-06
1.71603e-06
1.63669e-06
1.56073e-06
1.4945e-06
1.42978e-06
1.3739e-06
1.31801e-06
1.27038e-06
1.22149e-06
1.18058e-06
1.13731e-06
1.10192e-06
1.06321e-06
1.03239e-06
9.97387e-07
9.70414e-07
9.38414e-07
9.14694e-07
8.85125e-07
8.6419e-07
8.36544e-07
8.18146e-07
7.91762e-07
7.7613e-07
7.4978e-07
7.39012e-07
7.09457e-07
7.21133e-07
6.95051e-07
7.40303e-07
1.937e-05
1.61297e-05
1.32905e-05
1.12889e-05
9.82671e-06
8.6942e-06
7.77507e-06
7.0174e-06
6.37908e-06
5.83777e-06
5.36953e-06
4.9659e-06
4.61012e-06
4.3003e-06
4.02275e-06
3.77948e-06
3.55786e-06
3.36284e-06
3.18225e-06
3.0233e-06
2.87361e-06
2.7423e-06
2.61631e-06
2.50652e-06
2.399e-06
2.30623e-06
2.21322e-06
2.13409e-06
2.05263e-06
1.98459e-06
1.91244e-06
1.85354e-06
1.78893e-06
1.73764e-06
1.67916e-06
1.63426e-06
1.58078e-06
1.54129e-06
1.49188e-06
1.45701e-06
1.4108e-06
1.3802e-06
1.33605e-06
1.31012e-06
1.26618e-06
1.24696e-06
1.19862e-06
1.2061e-06
1.17403e-06
1.19083e-06
1.9861e-05
1.82602e-05
1.60853e-05
1.42e-05
1.26388e-05
1.13475e-05
1.02579e-05
9.33596e-06
8.54228e-06
7.85928e-06
7.26178e-06
6.74241e-06
6.28086e-06
5.87667e-06
5.5122e-06
5.19136e-06
4.89738e-06
4.63799e-06
4.39659e-06
4.18382e-06
3.98251e-06
3.80583e-06
3.6355e-06
3.48714e-06
3.34109e-06
3.21527e-06
3.08841e-06
2.98075e-06
2.86928e-06
2.77649e-06
2.67748e-06
2.59701e-06
2.50814e-06
2.43796e-06
2.35737e-06
2.29586e-06
2.22205e-06
2.16785e-06
2.09962e-06
2.05168e-06
1.98784e-06
1.94579e-06
1.88468e-06
1.84903e-06
1.78864e-06
1.76043e-06
1.69552e-06
1.6918e-06
1.66389e-06
1.64515e-06
1.99706e-05
1.78461e-05
1.60746e-05
1.47671e-05
1.36024e-05
1.25381e-05
1.15684e-05
1.07015e-05
9.91833e-06
9.22345e-06
8.60045e-06
8.04859e-06
7.54918e-06
7.10629e-06
6.70106e-06
6.34087e-06
6.00676e-06
5.71028e-06
5.43149e-06
5.18503e-06
4.94958e-06
4.74267e-06
4.54127e-06
4.36592e-06
4.19159e-06
4.04169e-06
3.88901e-06
3.75993e-06
3.62487e-06
3.51306e-06
3.39244e-06
3.29505e-06
3.18628e-06
3.10105e-06
3.002e-06
2.92706e-06
2.83609e-06
2.76977e-06
2.68557e-06
2.62665e-06
2.54774e-06
2.49598e-06
2.42031e-06
2.37616e-06
2.30186e-06
2.26577e-06
2.18929e-06
2.17059e-06
2.14331e-06
2.09224e-06
2.00095e-05
1.47038e-05
1.3748e-05
1.32125e-05
1.25928e-05
1.19297e-05
1.12797e-05
1.06604e-05
1.00824e-05
9.54982e-06
9.04708e-06
8.58246e-06
8.1456e-06
7.74772e-06
7.37217e-06
7.03162e-06
6.70833e-06
6.4184e-06
6.14037e-06
5.89312e-06
5.65257e-06
5.44052e-06
5.23048e-06
5.04764e-06
4.86258e-06
4.70391e-06
4.53942e-06
4.4012e-06
4.254e-06
4.13313e-06
4.00037e-06
3.89425e-06
3.77349e-06
3.67998e-06
3.56926e-06
3.48645e-06
3.38426e-06
3.31033e-06
3.21553e-06
3.14928e-06
3.06023e-06
3.00166e-06
2.9162e-06
2.86548e-06
2.78214e-06
2.73973e-06
2.65894e-06
2.62031e-06
2.5919e-06
2.52269e-06
2.01332e-05
1.54667e-05
9.63431e-06
9.40041e-06
9.49599e-06
9.49695e-06
9.43953e-06
9.30374e-06
9.06283e-06
8.7908e-06
8.49536e-06
8.2002e-06
7.90623e-06
7.62586e-06
7.34562e-06
7.08897e-06
6.83785e-06
6.608e-06
6.37891e-06
6.17276e-06
5.96481e-06
5.78029e-06
5.59165e-06
5.42722e-06
5.25544e-06
5.10881e-06
4.95228e-06
4.82211e-06
4.67921e-06
4.56345e-06
4.43238e-06
4.32922e-06
4.20829e-06
4.11621e-06
4.00404e-06
3.92139e-06
3.81702e-06
3.74206e-06
3.64488e-06
3.5767e-06
3.48515e-06
3.42393e-06
3.33633e-06
3.28141e-06
3.19783e-06
3.14748e-06
3.07357e-06
3.01779e-06
2.98725e-06
2.90889e-06
2.01713e-05
1.86754e-05
8.6883e-06
5.54108e-06
5.63257e-06
5.93893e-06
6.29935e-06
6.58727e-06
6.76958e-06
6.88065e-06
6.9033e-06
6.88537e-06
6.83471e-06
6.74999e-06
6.63962e-06
6.52036e-06
6.38081e-06
6.24351e-06
6.09653e-06
5.96118e-06
5.8149e-06
5.68419e-06
5.5432e-06
5.41968e-06
5.28647e-06
5.17453e-06
5.04893e-06
4.94629e-06
4.82725e-06
4.733e-06
4.62038e-06
4.534e-06
4.42754e-06
4.34852e-06
4.24787e-06
4.17498e-06
4.08003e-06
4.01224e-06
3.92333e-06
3.86016e-06
3.77609e-06
3.71763e-06
3.63792e-06
3.58235e-06
3.50878e-06
3.45296e-06
3.39266e-06
3.32801e-06
3.29808e-06
3.21878e-06
2.01672e-05
1.97237e-05
1.61649e-05
4.85662e-06
3.0427e-06
3.10752e-06
3.37932e-06
3.81196e-06
4.18078e-06
4.50221e-06
4.7526e-06
4.9465e-06
5.08932e-06
5.19455e-06
5.25563e-06
5.29618e-06
5.30455e-06
5.2984e-06
5.27761e-06
5.2476e-06
5.19694e-06
5.15058e-06
5.08652e-06
5.03104e-06
4.95808e-06
4.8944e-06
4.81528e-06
4.75168e-06
4.67029e-06
4.60833e-06
4.52697e-06
4.46731e-06
4.3874e-06
4.33026e-06
4.25262e-06
4.19866e-06
4.1256e-06
4.07385e-06
4.00461e-06
3.95441e-06
3.88845e-06
3.83946e-06
3.7777e-06
3.72761e-06
3.67244e-06
3.6187e-06
3.57539e-06
3.51272e-06
3.48711e-06
3.41692e-06
2.01477e-05
1.99342e-05
1.90647e-05
1.44931e-05
5.23201e-06
2.15295e-06
1.91531e-06
1.99644e-06
2.21317e-06
2.51554e-06
2.79398e-06
3.0525e-06
3.28018e-06
3.48303e-06
3.64985e-06
3.79503e-06
3.90983e-06
4.00702e-06
4.07917e-06
4.14238e-06
4.18152e-06
4.21624e-06
4.23183e-06
4.24496e-06
4.2443e-06
4.24116e-06
4.23008e-06
4.21879e-06
4.19413e-06
4.17777e-06
4.14453e-06
4.12421e-06
4.08613e-06
4.06215e-06
4.02182e-06
3.99366e-06
3.95062e-06
3.92011e-06
3.87682e-06
3.84495e-06
3.8026e-06
3.76866e-06
3.72913e-06
3.69144e-06
3.65677e-06
3.61396e-06
3.58752e-06
3.53858e-06
3.52098e-06
3.47223e-06
2.01216e-05
1.99661e-05
1.9642e-05
1.85442e-05
1.5203e-05
8.33527e-06
3.08777e-06
1.63071e-06
1.44259e-06
1.45161e-06
1.53174e-06
1.69819e-06
1.88286e-06
2.06573e-06
2.23862e-06
2.40612e-06
2.55597e-06
2.69719e-06
2.81809e-06
2.93268e-06
3.02757e-06
3.11726e-06
3.18929e-06
3.25749e-06
3.31022e-06
3.36105e-06
3.39721e-06
3.43558e-06
3.45802e-06
3.4853e-06
3.49752e-06
3.51506e-06
3.52033e-06
3.52913e-06
3.53021e-06
3.53156e-06
3.52972e-06
3.52706e-06
3.52038e-06
3.5151e-06
3.50528e-06
3.49535e-06
3.48556e-06
3.47072e-06
3.46141e-06
3.44271e-06
3.43213e-06
3.4075e-06
3.39975e-06
3.37468e-06
2.00982e-05
1.99328e-05
1.97571e-05
1.93513e-05
1.85026e-05
1.65263e-05
1.22994e-05
6.81649e-06
2.95338e-06
1.48488e-06
1.24146e-06
1.14874e-06
1.15542e-06
1.20209e-06
1.29922e-06
1.41323e-06
1.52828e-06
1.64707e-06
1.76046e-06
1.87545e-06
1.97985e-06
2.08409e-06
2.17586e-06
2.26762e-06
2.34636e-06
2.42574e-06
2.49181e-06
2.55955e-06
2.61459e-06
2.67144e-06
2.71714e-06
2.76399e-06
2.80213e-06
2.84004e-06
2.87198e-06
2.90247e-06
2.92879e-06
2.95385e-06
2.97529e-06
2.99519e-06
3.01337e-06
3.0279e-06
3.04355e-06
3.05352e-06
3.06676e-06
3.07302e-06
3.08451e-06
3.08789e-06
3.09851e-06
3.09928e-06
2.00782e-05
1.98877e-05
1.97567e-05
1.946e-05
1.91438e-05
1.86367e-05
1.75442e-05
1.54056e-05
1.16897e-05
7.37204e-06
3.91356e-06
1.87273e-06
1.19861e-06
1.05559e-06
9.78822e-07
9.4802e-07
9.62402e-07
1.00394e-06
1.06866e-06
1.14094e-06
1.21465e-06
1.29402e-06
1.37019e-06
1.45174e-06
1.52644e-06
1.60469e-06
1.67512e-06
1.74799e-06
1.81315e-06
1.88012e-06
1.93967e-06
2.00033e-06
2.05465e-06
2.10889e-06
2.15857e-06
2.20684e-06
2.25204e-06
2.29536e-06
2.33644e-06
2.37509e-06
2.41286e-06
2.44719e-06
2.48177e-06
2.51223e-06
2.54394e-06
2.57071e-06
2.59954e-06
2.62307e-06
2.64829e-06
2.67365e-06
2.00614e-05
1.9854e-05
1.97342e-05
1.94705e-05
1.92531e-05
1.90442e-05
1.87305e-05
1.81815e-05
1.70768e-05
1.51976e-05
1.24936e-05
9.12359e-06
5.84189e-06
3.36376e-06
1.8033e-06
1.13917e-06
9.58505e-07
8.88735e-07
8.32033e-07
8.03264e-07
8.09273e-07
8.29601e-07
8.6768e-07
9.13594e-07
9.5942e-07
1.01223e-06
1.06355e-06
1.11991e-06
1.17412e-06
1.23185e-06
1.28574e-06
1.34263e-06
1.39561e-06
1.45013e-06
1.50217e-06
1.55388e-06
1.60418e-06
1.65373e-06
1.70156e-06
1.74901e-06
1.79451e-06
1.83998e-06
1.88296e-06
1.92653e-06
1.96686e-06
2.00895e-06
2.04586e-06
2.08672e-06
2.11878e-06
2.16171e-06
2.00475e-05
1.98304e-05
1.97075e-05
1.94485e-05
1.92698e-05
1.91123e-05
1.89608e-05
1.87446e-05
1.84536e-05
1.78971e-05
1.70532e-05
1.56466e-05
1.38018e-05
1.13943e-05
8.66466e-06
6.02363e-06
3.86957e-06
2.33012e-06
1.39464e-06
9.8496e-07
8.49893e-07
7.92055e-07
7.44985e-07
7.06707e-07
6.91843e-07
6.96498e-07
7.09539e-07
7.35296e-07
7.64183e-07
7.96676e-07
8.29933e-07
8.68216e-07
9.05525e-07
9.46616e-07
9.87577e-07
1.03005e-06
1.07235e-06
1.11626e-06
1.15843e-06
1.20342e-06
1.24526e-06
1.29093e-06
1.33219e-06
1.37804e-06
1.41847e-06
1.4645e-06
1.50366e-06
1.54883e-06
1.58612e-06
1.63155e-06
2.00362e-05
1.98126e-05
1.9685e-05
1.94185e-05
1.92552e-05
1.91064e-05
1.89951e-05
1.88444e-05
1.87046e-05
1.84924e-05
1.82352e-05
1.78152e-05
1.71974e-05
1.63107e-05
1.50634e-05
1.34875e-05
1.16017e-05
9.43742e-06
7.2366e-06
5.20443e-06
3.55696e-06
2.32425e-06
1.48434e-06
1.02142e-06
8.21209e-07
7.424e-07
7.00256e-07
6.61313e-07
6.30417e-07
6.07798e-07
6.05951e-07
6.10528e-07
6.2128e-07
6.39812e-07
6.60453e-07
6.83697e-07
7.08118e-07
7.36516e-07
7.64031e-07
7.96657e-07
8.26646e-07
8.62441e-07
8.94517e-07
9.3218e-07
9.65859e-07
1.00499e-06
1.04013e-06
1.07926e-06
1.11501e-06
1.15519e-06
2.00272e-05
1.97988e-05
1.96658e-05
1.93972e-05
1.92283e-05
1.90797e-05
1.89756e-05
1.88494e-05
1.87268e-05
1.85913e-05
1.84473e-05
1.82823e-05
1.80621e-05
1.7778e-05
1.73711e-05
1.68148e-05
1.60668e-05
1.51036e-05
1.38841e-05
1.24768e-05
1.08628e-05
9.09207e-06
7.29194e-06
5.60276e-06
4.11045e-06
2.93093e-06
2.02304e-06
1.37583e-06
9.83263e-07
7.8316e-07
6.9402e-07
6.48637e-07
6.17273e-07
5.86771e-07
5.6163e-07
5.43397e-07
5.37193e-07
5.39237e-07
5.4494e-07
5.57111e-07
5.69893e-07
5.88496e-07
6.05475e-07
6.27426e-07
6.48388e-07
6.73796e-07
6.98282e-07
7.25629e-07
7.52393e-07
7.82484e-07
2.002e-05
1.97915e-05
1.96438e-05
1.93819e-05
1.92032e-05
1.90514e-05
1.8936e-05
1.88233e-05
1.8704e-05
1.85848e-05
1.84588e-05
1.83387e-05
1.82062e-05
1.8068e-05
1.79021e-05
1.77026e-05
1.74436e-05
1.71127e-05
1.66778e-05
1.61192e-05
1.54308e-05
1.45736e-05
1.35683e-05
1.23945e-05
1.11309e-05
9.71758e-06
8.24114e-06
6.76861e-06
5.39261e-06
4.14274e-06
3.11584e-06
2.28894e-06
1.64389e-06
1.17815e-06
8.84667e-07
7.22098e-07
6.40907e-07
5.982e-07
5.68599e-07
5.44946e-07
5.20382e-07
5.0269e-07
4.88915e-07
4.85138e-07
4.86614e-07
4.91564e-07
4.99266e-07
5.1145e-07
5.23605e-07
5.39899e-07
2.00145e-05
1.97922e-05
1.96167e-05
1.93687e-05
1.91821e-05
1.90243e-05
1.88996e-05
1.87861e-05
1.86635e-05
1.85476e-05
1.84286e-05
1.83153e-05
1.81981e-05
1.8082e-05
1.79642e-05
1.78427e-05
1.77138e-05
1.75677e-05
1.74006e-05
1.71943e-05
1.69467e-05
1.66359e-05
1.62543e-05
1.57847e-05
1.52174e-05
1.45565e-05
1.37653e-05
1.28843e-05
1.18773e-05
1.08214e-05
9.66056e-06
8.43846e-06
7.20479e-06
5.99801e-06
4.87884e-06
3.8518e-06
2.9961e-06
2.28852e-06
1.71362e-06
1.26808e-06
9.52303e-07
7.53706e-07
6.4029e-07
5.7991e-07
5.44412e-07
5.20451e-07
4.98974e-07
4.81887e-07
4.62442e-07
4.53943e-07
2.00102e-05
1.97966e-05
1.95903e-05
1.93545e-05
1.91638e-05
1.89977e-05
1.88666e-05
1.87483e-05
1.86239e-05
1.85023e-05
1.83829e-05
1.82664e-05
1.81534e-05
1.8042e-05
1.79326e-05
1.78229e-05
1.77136e-05
1.76032e-05
1.74929e-05
1.73781e-05
1.72548e-05
1.71217e-05
1.69646e-05
1.67896e-05
1.65713e-05
1.63266e-05
1.60187e-05
1.56692e-05
1.52407e-05
1.47555e-05
1.41877e-05
1.35483e-05
1.28155e-05
1.20211e-05
1.1137e-05
1.02257e-05
9.23148e-06
8.18816e-06
7.13228e-06
6.08776e-06
5.09307e-06
4.16802e-06
3.34271e-06
2.65016e-06
2.06982e-06
1.59415e-06
1.21486e-06
9.38328e-07
7.44802e-07
6.35479e-07
2.0007e-05
1.98037e-05
1.95664e-05
1.93404e-05
1.91471e-05
1.89724e-05
1.88353e-05
1.87118e-05
1.85853e-05
1.84583e-05
1.83362e-05
1.82155e-05
1.81003e-05
1.79852e-05
1.78751e-05
1.77643e-05
1.766e-05
1.75558e-05
1.74534e-05
1.73531e-05
1.72502e-05
1.71503e-05
1.70458e-05
1.6944e-05
1.68304e-05
1.67176e-05
1.65841e-05
1.64447e-05
1.62749e-05
1.60915e-05
1.58665e-05
1.56206e-05
1.53181e-05
1.49868e-05
1.45875e-05
1.4151e-05
1.36451e-05
1.30871e-05
1.24563e-05
1.17739e-05
1.10259e-05
1.02381e-05
9.40283e-06
8.51835e-06
7.5935e-06
6.67859e-06
5.7667e-06
4.91892e-06
4.11002e-06
3.3994e-06
2.00047e-05
1.98116e-05
1.95442e-05
1.93264e-05
1.91307e-05
1.8949e-05
1.88049e-05
1.86769e-05
1.85477e-05
1.84161e-05
1.82907e-05
1.81654e-05
1.80476e-05
1.79285e-05
1.78157e-05
1.77013e-05
1.75936e-05
1.7486e-05
1.73824e-05
1.72803e-05
1.71823e-05
1.70868e-05
1.69916e-05
1.68995e-05
1.68051e-05
1.67145e-05
1.66178e-05
1.65298e-05
1.64293e-05
1.6339e-05
1.62284e-05
1.61264e-05
1.59957e-05
1.58687e-05
1.57067e-05
1.55412e-05
1.53353e-05
1.51153e-05
1.48519e-05
1.45612e-05
1.4225e-05
1.38496e-05
1.34279e-05
1.29606e-05
1.2439e-05
1.18726e-05
1.12525e-05
1.0603e-05
9.90241e-06
9.19843e-06
2.0003e-05
1.98201e-05
1.95234e-05
1.93123e-05
1.9114e-05
1.89273e-05
1.87754e-05
1.86433e-05
1.85113e-05
1.83758e-05
1.82469e-05
1.81174e-05
1.79966e-05
1.78737e-05
1.77577e-05
1.76396e-05
1.75289e-05
1.74174e-05
1.73108e-05
1.72047e-05
1.71033e-05
1.70026e-05
1.6906e-05
1.681e-05
1.67163e-05
1.66297e-05
1.65398e-05
1.64596e-05
1.63705e-05
1.62969e-05
1.62078e-05
1.61345e-05
1.60446e-05
1.59702e-05
1.588e-05
1.57999e-05
1.57022e-05
1.56092e-05
1.5498e-05
1.53829e-05
1.52496e-05
1.51015e-05
1.49346e-05
1.47463e-05
1.45311e-05
1.42932e-05
1.402e-05
1.37195e-05
1.33813e-05
1.30132e-05
2.00018e-05
1.98284e-05
1.95042e-05
1.92975e-05
1.90966e-05
1.89075e-05
1.87469e-05
1.86111e-05
1.84761e-05
1.83376e-05
1.82052e-05
1.80718e-05
1.79479e-05
1.78218e-05
1.77023e-05
1.75808e-05
1.74667e-05
1.73522e-05
1.72419e-05
1.71325e-05
1.70278e-05
1.69229e-05
1.68232e-05
1.67224e-05
1.66256e-05
1.65325e-05
1.64391e-05
1.63547e-05
1.6263e-05
1.61886e-05
1.61015e-05
1.60345e-05
1.59535e-05
1.58861e-05
1.58118e-05
1.57451e-05
1.56715e-05
1.56028e-05
1.55273e-05
1.54585e-05
1.53838e-05
1.53094e-05
1.52308e-05
1.51479e-05
1.50566e-05
1.4963e-05
1.48524e-05
1.47338e-05
1.46015e-05
1.4452e-05
2.00009e-05
1.98306e-05
1.94883e-05
1.92825e-05
1.90791e-05
1.88898e-05
1.87202e-05
1.85807e-05
1.84428e-05
1.83019e-05
1.81661e-05
1.80293e-05
1.79025e-05
1.77736e-05
1.76502e-05
1.75262e-05
1.74082e-05
1.72912e-05
1.7177e-05
1.70647e-05
1.69569e-05
1.6848e-05
1.67458e-05
1.66403e-05
1.6541e-05
1.64427e-05
1.63468e-05
1.62566e-05
1.61619e-05
1.60827e-05
1.59909e-05
1.59182e-05
1.58333e-05
1.57609e-05
1.5686e-05
1.56166e-05
1.55454e-05
1.54827e-05
1.54154e-05
1.53567e-05
1.52925e-05
1.52341e-05
1.51728e-05
1.51122e-05
1.50481e-05
1.49897e-05
1.49195e-05
1.48596e-05
1.47942e-05
1.472e-05
2.00003e-05
1.9829e-05
1.94752e-05
1.92666e-05
1.90615e-05
1.8874e-05
1.86958e-05
1.85523e-05
1.84117e-05
1.82691e-05
1.81304e-05
1.79902e-05
1.7861e-05
1.77294e-05
1.76025e-05
1.74764e-05
1.73545e-05
1.72353e-05
1.71174e-05
1.70023e-05
1.68917e-05
1.67793e-05
1.66738e-05
1.65653e-05
1.64622e-05
1.63603e-05
1.62619e-05
1.61665e-05
1.60701e-05
1.59856e-05
1.58915e-05
1.58141e-05
1.57253e-05
1.56486e-05
1.5569e-05
1.54965e-05
1.54189e-05
1.53506e-05
1.52786e-05
1.52145e-05
1.51477e-05
1.50868e-05
1.50254e-05
1.49656e-05
1.49109e-05
1.48629e-05
1.47998e-05
1.47561e-05
1.47032e-05
1.46453e-05
2e-05
1.98273e-05
1.94644e-05
1.9249e-05
1.90433e-05
1.88595e-05
1.86738e-05
1.8526e-05
1.83831e-05
1.82393e-05
1.80981e-05
1.7955e-05
1.78239e-05
1.76901e-05
1.75597e-05
1.74322e-05
1.73066e-05
1.71854e-05
1.70644e-05
1.69466e-05
1.68332e-05
1.67179e-05
1.66083e-05
1.64986e-05
1.639e-05
1.62864e-05
1.61844e-05
1.60849e-05
1.59871e-05
1.58973e-05
1.58021e-05
1.57202e-05
1.56285e-05
1.55492e-05
1.54643e-05
1.53908e-05
1.53071e-05
1.52356e-05
1.51597e-05
1.50906e-05
1.50186e-05
1.49546e-05
1.48871e-05
1.48213e-05
1.47612e-05
1.47078e-05
1.4637e-05
1.45931e-05
1.45359e-05
1.44764e-05
1.99999e-05
1.98261e-05
1.94568e-05
1.9231e-05
1.90254e-05
1.88466e-05
1.8655e-05
1.85025e-05
1.83576e-05
1.82132e-05
1.80699e-05
1.79244e-05
1.77916e-05
1.76561e-05
1.75226e-05
1.73944e-05
1.72652e-05
1.71424e-05
1.70187e-05
1.68984e-05
1.67825e-05
1.66649e-05
1.65506e-05
1.6441e-05
1.63258e-05
1.62218e-05
1.61153e-05
1.60129e-05
1.59133e-05
1.58187e-05
1.57225e-05
1.56366e-05
1.55423e-05
1.5461e-05
1.53716e-05
1.5297e-05
1.5209e-05
1.51343e-05
1.50559e-05
1.49832e-05
1.49064e-05
1.48405e-05
1.47673e-05
1.46982e-05
1.46338e-05
1.45751e-05
1.45002e-05
1.445e-05
1.43879e-05
1.43258e-05
1.99999e-05
1.98255e-05
1.94523e-05
1.92136e-05
1.90086e-05
1.88357e-05
1.86401e-05
1.84824e-05
1.83359e-05
1.81913e-05
1.80462e-05
1.78995e-05
1.77649e-05
1.76285e-05
1.74921e-05
1.73638e-05
1.72314e-05
1.71073e-05
1.69813e-05
1.6859e-05
1.67406e-05
1.66212e-05
1.65025e-05
1.63928e-05
1.62718e-05
1.61673e-05
1.60562e-05
1.59516e-05
1.58496e-05
1.57514e-05
1.56533e-05
1.55645e-05
1.54673e-05
1.53841e-05
1.52915e-05
1.52143e-05
1.51241e-05
1.5046e-05
1.49651e-05
1.48901e-05
1.48092e-05
1.47413e-05
1.46637e-05
1.4593e-05
1.45239e-05
1.44612e-05
1.43849e-05
1.4328e-05
1.42622e-05
1.41993e-05
1.99999e-05
1.98253e-05
1.94504e-05
1.9198e-05
1.89935e-05
1.88268e-05
1.86296e-05
1.84666e-05
1.83187e-05
1.81742e-05
1.80278e-05
1.78809e-05
1.77442e-05
1.76079e-05
1.7469e-05
1.73409e-05
1.7206e-05
1.70809e-05
1.6953e-05
1.68294e-05
1.67084e-05
1.65877e-05
1.64655e-05
1.63545e-05
1.62298e-05
1.61235e-05
1.60087e-05
1.59024e-05
1.57972e-05
1.56968e-05
1.55958e-05
1.55051e-05
1.5405e-05
1.53198e-05
1.5225e-05
1.51442e-05
1.50527e-05
1.49718e-05
1.48877e-05
1.4811e-05
1.47269e-05
1.46561e-05
1.45753e-05
1.45036e-05
1.443e-05
1.43636e-05
1.42865e-05
1.42245e-05
1.4155e-05
1.40911e-05
1.99999e-05
1.98255e-05
1.9451e-05
1.91849e-05
1.89804e-05
1.88197e-05
1.86234e-05
1.84553e-05
1.83062e-05
1.81621e-05
1.8015e-05
1.78688e-05
1.77301e-05
1.75946e-05
1.7454e-05
1.73262e-05
1.71897e-05
1.70639e-05
1.69344e-05
1.68103e-05
1.66866e-05
1.65652e-05
1.64403e-05
1.6327e-05
1.62005e-05
1.60914e-05
1.59737e-05
1.58661e-05
1.57574e-05
1.56556e-05
1.55515e-05
1.54591e-05
1.53566e-05
1.52691e-05
1.51727e-05
1.50886e-05
1.49954e-05
1.49126e-05
1.4825e-05
1.47466e-05
1.466e-05
1.45862e-05
1.45026e-05
1.44296e-05
1.43521e-05
1.42824e-05
1.42038e-05
1.41385e-05
1.40648e-05
1.39992e-05
1.99999e-05
1.98262e-05
1.94538e-05
1.91749e-05
1.89697e-05
1.88142e-05
1.86216e-05
1.84491e-05
1.82986e-05
1.81553e-05
1.80079e-05
1.78633e-05
1.77231e-05
1.75886e-05
1.74477e-05
1.732e-05
1.7183e-05
1.70566e-05
1.6926e-05
1.6802e-05
1.66759e-05
1.65542e-05
1.64273e-05
1.63115e-05
1.61841e-05
1.60719e-05
1.59519e-05
1.58431e-05
1.57311e-05
1.56283e-05
1.55215e-05
1.54273e-05
1.5323e-05
1.52333e-05
1.51353e-05
1.50484e-05
1.49533e-05
1.48692e-05
1.47783e-05
1.4698e-05
1.46092e-05
1.45326e-05
1.44465e-05
1.43719e-05
1.42909e-05
1.42185e-05
1.41378e-05
1.40697e-05
1.39923e-05
1.39242e-05
1.99999e-05
1.98274e-05
1.94591e-05
1.91689e-05
1.89615e-05
1.88107e-05
1.86236e-05
1.84481e-05
1.82959e-05
1.81538e-05
1.8007e-05
1.78643e-05
1.77237e-05
1.75902e-05
1.74499e-05
1.73223e-05
1.71856e-05
1.70591e-05
1.6928e-05
1.68044e-05
1.66767e-05
1.65551e-05
1.64268e-05
1.63088e-05
1.61808e-05
1.6066e-05
1.59438e-05
1.58339e-05
1.57189e-05
1.56151e-05
1.55061e-05
1.54102e-05
1.53044e-05
1.52129e-05
1.51131e-05
1.50244e-05
1.49271e-05
1.48418e-05
1.47482e-05
1.46658e-05
1.45751e-05
1.44962e-05
1.44078e-05
1.43311e-05
1.42471e-05
1.41725e-05
1.40892e-05
1.40183e-05
1.39379e-05
1.38673e-05
1.99999e-05
1.98291e-05
1.94663e-05
1.91666e-05
1.89563e-05
1.88086e-05
1.86294e-05
1.84518e-05
1.82979e-05
1.81569e-05
1.80112e-05
1.78708e-05
1.77301e-05
1.75978e-05
1.7459e-05
1.73317e-05
1.71959e-05
1.70697e-05
1.69385e-05
1.68155e-05
1.66866e-05
1.6565e-05
1.64357e-05
1.63163e-05
1.61878e-05
1.60713e-05
1.59477e-05
1.5837e-05
1.57202e-05
1.56158e-05
1.55052e-05
1.54081e-05
1.53012e-05
1.52081e-05
1.51068e-05
1.50166e-05
1.49172e-05
1.48308e-05
1.47349e-05
1.46506e-05
1.45578e-05
1.44771e-05
1.43866e-05
1.43077e-05
1.42209e-05
1.41445e-05
1.40586e-05
1.39851e-05
1.3902e-05
1.3829e-05
1.99999e-05
1.98313e-05
1.94756e-05
1.91682e-05
1.89541e-05
1.88082e-05
1.86381e-05
1.84607e-05
1.83047e-05
1.81647e-05
1.80208e-05
1.78832e-05
1.77435e-05
1.76126e-05
1.74761e-05
1.73497e-05
1.72153e-05
1.709e-05
1.69594e-05
1.68374e-05
1.67082e-05
1.65869e-05
1.64568e-05
1.63361e-05
1.62067e-05
1.60885e-05
1.59632e-05
1.58512e-05
1.57325e-05
1.56272e-05
1.55151e-05
1.54171e-05
1.53093e-05
1.52152e-05
1.51127e-05
1.50219e-05
1.49211e-05
1.48338e-05
1.47366e-05
1.46512e-05
1.45567e-05
1.44749e-05
1.43826e-05
1.43018e-05
1.42125e-05
1.41345e-05
1.40461e-05
1.39701e-05
1.38845e-05
1.38093e-05
1.99999e-05
1.9834e-05
1.94864e-05
1.91737e-05
1.89553e-05
1.88097e-05
1.86492e-05
1.84738e-05
1.83161e-05
1.81771e-05
1.80355e-05
1.79006e-05
1.77628e-05
1.76335e-05
1.74996e-05
1.73745e-05
1.72419e-05
1.71178e-05
1.69884e-05
1.68676e-05
1.67389e-05
1.66181e-05
1.6488e-05
1.63669e-05
1.62368e-05
1.61176e-05
1.59914e-05
1.58786e-05
1.57587e-05
1.56526e-05
1.55392e-05
1.54402e-05
1.53315e-05
1.52364e-05
1.51323e-05
1.50407e-05
1.49383e-05
1.48498e-05
1.47509e-05
1.4664e-05
1.45677e-05
1.44847e-05
1.43909e-05
1.43088e-05
1.42177e-05
1.41384e-05
1.40484e-05
1.39708e-05
1.38833e-05
1.38067e-05
1.99999e-05
1.98372e-05
1.94983e-05
1.9183e-05
1.89599e-05
1.88134e-05
1.86625e-05
1.84907e-05
1.83318e-05
1.81933e-05
1.80543e-05
1.79223e-05
1.77868e-05
1.76595e-05
1.75285e-05
1.74051e-05
1.72746e-05
1.71522e-05
1.70245e-05
1.69049e-05
1.67774e-05
1.66574e-05
1.65278e-05
1.64064e-05
1.6276e-05
1.61562e-05
1.60292e-05
1.59157e-05
1.5795e-05
1.56887e-05
1.55746e-05
1.54751e-05
1.53661e-05
1.52706e-05
1.51656e-05
1.50736e-05
1.49704e-05
1.48811e-05
1.47811e-05
1.46933e-05
1.45953e-05
1.4511e-05
1.44154e-05
1.43316e-05
1.4238e-05
1.41569e-05
1.40646e-05
1.39845e-05
1.3895e-05
1.38164e-05
1.99999e-05
1.98407e-05
1.95111e-05
1.91955e-05
1.8968e-05
1.88197e-05
1.86775e-05
1.85111e-05
1.83516e-05
1.82132e-05
1.80768e-05
1.79477e-05
1.78149e-05
1.76901e-05
1.7562e-05
1.74408e-05
1.73127e-05
1.71921e-05
1.70665e-05
1.69484e-05
1.68226e-05
1.67034e-05
1.65747e-05
1.64533e-05
1.63229e-05
1.62026e-05
1.60752e-05
1.59612e-05
1.58399e-05
1.57334e-05
1.5619e-05
1.55193e-05
1.54101e-05
1.53146e-05
1.52087e-05
1.51167e-05
1.5013e-05
1.4923e-05
1.48221e-05
1.47342e-05
1.46351e-05
1.45499e-05
1.44533e-05
1.43688e-05
1.42735e-05
1.41912e-05
1.40976e-05
1.40155e-05
1.39244e-05
1.38434e-05
1.99999e-05
1.98445e-05
1.95243e-05
1.92107e-05
1.89794e-05
1.88287e-05
1.86938e-05
1.85342e-05
1.83748e-05
1.82363e-05
1.81023e-05
1.79763e-05
1.78465e-05
1.77243e-05
1.75993e-05
1.74805e-05
1.73549e-05
1.72365e-05
1.71133e-05
1.69969e-05
1.6873e-05
1.67551e-05
1.66275e-05
1.65063e-05
1.63761e-05
1.62555e-05
1.61279e-05
1.60135e-05
1.5892e-05
1.57853e-05
1.56709e-05
1.55711e-05
1.54618e-05
1.53665e-05
1.52602e-05
1.51682e-05
1.50642e-05
1.49739e-05
1.48721e-05
1.47842e-05
1.46842e-05
1.45984e-05
1.45008e-05
1.4416e-05
1.4319e-05
1.4236e-05
1.41407e-05
1.40577e-05
1.39653e-05
1.38824e-05
1.99999e-05
1.98485e-05
1.95378e-05
1.92281e-05
1.89941e-05
1.88406e-05
1.87112e-05
1.85592e-05
1.8401e-05
1.82623e-05
1.81303e-05
1.80073e-05
1.78807e-05
1.77614e-05
1.76396e-05
1.75232e-05
1.74004e-05
1.72844e-05
1.71638e-05
1.70492e-05
1.69275e-05
1.68111e-05
1.66848e-05
1.6564e-05
1.64342e-05
1.63135e-05
1.61859e-05
1.6071e-05
1.59495e-05
1.58429e-05
1.57285e-05
1.56288e-05
1.55196e-05
1.54245e-05
1.53182e-05
1.52261e-05
1.5122e-05
1.50317e-05
1.49293e-05
1.48413e-05
1.47409e-05
1.46546e-05
1.4556e-05
1.4471e-05
1.43728e-05
1.42894e-05
1.41921e-05
1.41093e-05
1.40142e-05
1.39312e-05
1.99999e-05
1.98526e-05
1.95513e-05
1.92474e-05
1.90117e-05
1.88553e-05
1.87298e-05
1.85858e-05
1.84298e-05
1.8291e-05
1.81605e-05
1.80403e-05
1.79171e-05
1.78008e-05
1.76822e-05
1.75684e-05
1.74485e-05
1.7335e-05
1.72169e-05
1.71044e-05
1.69851e-05
1.68704e-05
1.67455e-05
1.66253e-05
1.6496e-05
1.63752e-05
1.62477e-05
1.61324e-05
1.60111e-05
1.59044e-05
1.57901e-05
1.56907e-05
1.55816e-05
1.54869e-05
1.53808e-05
1.52887e-05
1.51844e-05
1.50944e-05
1.49916e-05
1.49035e-05
1.48028e-05
1.47163e-05
1.4617e-05
1.45316e-05
1.44332e-05
1.43484e-05
1.42505e-05
1.41671e-05
1.40697e-05
1.39876e-05
1.99999e-05
1.98568e-05
1.95648e-05
1.92681e-05
1.90321e-05
1.88729e-05
1.87496e-05
1.86133e-05
1.84607e-05
1.83219e-05
1.81926e-05
1.80748e-05
1.79551e-05
1.78419e-05
1.77265e-05
1.76154e-05
1.74983e-05
1.73873e-05
1.7272e-05
1.71616e-05
1.70448e-05
1.6932e-05
1.68087e-05
1.66891e-05
1.65605e-05
1.64396e-05
1.63121e-05
1.61964e-05
1.60752e-05
1.59685e-05
1.58544e-05
1.57551e-05
1.56464e-05
1.55519e-05
1.54461e-05
1.53542e-05
1.52498e-05
1.516e-05
1.50571e-05
1.4969e-05
1.4868e-05
1.47815e-05
1.46818e-05
1.45958e-05
1.44974e-05
1.44113e-05
1.43137e-05
1.42286e-05
1.41303e-05
1.40488e-05
1.99999e-05
1.9861e-05
1.95781e-05
1.92897e-05
1.90548e-05
1.8893e-05
1.87706e-05
1.86415e-05
1.84932e-05
1.83546e-05
1.82261e-05
1.81104e-05
1.79942e-05
1.78841e-05
1.7772e-05
1.76635e-05
1.75494e-05
1.74408e-05
1.73281e-05
1.72201e-05
1.71061e-05
1.69951e-05
1.68734e-05
1.67546e-05
1.66266e-05
1.65056e-05
1.6378e-05
1.62619e-05
1.61407e-05
1.60339e-05
1.592e-05
1.58208e-05
1.57125e-05
1.56182e-05
1.55127e-05
1.5421e-05
1.53166e-05
1.5227e-05
1.51241e-05
1.5036e-05
1.49347e-05
1.48485e-05
1.47481e-05
1.46624e-05
1.45632e-05
1.44769e-05
1.43791e-05
1.42924e-05
1.41946e-05
1.4112e-05
1.99999e-05
1.98652e-05
1.95912e-05
1.93119e-05
1.90794e-05
1.89155e-05
1.8793e-05
1.86701e-05
1.85267e-05
1.83889e-05
1.82609e-05
1.81469e-05
1.80339e-05
1.79271e-05
1.78182e-05
1.77124e-05
1.76011e-05
1.7495e-05
1.7385e-05
1.72794e-05
1.71682e-05
1.70591e-05
1.69391e-05
1.6821e-05
1.66937e-05
1.65724e-05
1.64446e-05
1.63281e-05
1.6207e-05
1.60999e-05
1.59861e-05
1.5887e-05
1.5779e-05
1.56849e-05
1.55796e-05
1.5488e-05
1.53838e-05
1.52942e-05
1.51912e-05
1.51033e-05
1.50016e-05
1.49158e-05
1.48147e-05
1.47297e-05
1.4629e-05
1.45437e-05
1.44449e-05
1.43574e-05
1.42602e-05
1.41756e-05
1.99999e-05
1.98693e-05
1.96041e-05
1.93342e-05
1.91054e-05
1.894e-05
1.88168e-05
1.86989e-05
1.85609e-05
1.84245e-05
1.82968e-05
1.81842e-05
1.80741e-05
1.79705e-05
1.78649e-05
1.77617e-05
1.76533e-05
1.75495e-05
1.74421e-05
1.7339e-05
1.72306e-05
1.71234e-05
1.70053e-05
1.6888e-05
1.67612e-05
1.66396e-05
1.65116e-05
1.63946e-05
1.62733e-05
1.61658e-05
1.60521e-05
1.59528e-05
1.58452e-05
1.5751e-05
1.56459e-05
1.55544e-05
1.54502e-05
1.53605e-05
1.52575e-05
1.51696e-05
1.50676e-05
1.49819e-05
1.48805e-05
1.47958e-05
1.4694e-05
1.46097e-05
1.45094e-05
1.44224e-05
1.4325e-05
1.42383e-05
1.99999e-05
1.98733e-05
1.96167e-05
1.93563e-05
1.91324e-05
1.89663e-05
1.88422e-05
1.87281e-05
1.85956e-05
1.8461e-05
1.83336e-05
1.8222e-05
1.81144e-05
1.80142e-05
1.79119e-05
1.78113e-05
1.77055e-05
1.76041e-05
1.74993e-05
1.73987e-05
1.72932e-05
1.7188e-05
1.70716e-05
1.69553e-05
1.68291e-05
1.67069e-05
1.65787e-05
1.64609e-05
1.63393e-05
1.6231e-05
1.61174e-05
1.60177e-05
1.59103e-05
1.58158e-05
1.57108e-05
1.56192e-05
1.5515e-05
1.54251e-05
1.5322e-05
1.52339e-05
1.51318e-05
1.50458e-05
1.49446e-05
1.48596e-05
1.47576e-05
1.46736e-05
1.45721e-05
1.44863e-05
1.43879e-05
1.43001e-05
1.99999e-05
1.98773e-05
1.9629e-05
1.93781e-05
1.916e-05
1.89941e-05
1.8869e-05
1.87576e-05
1.86304e-05
1.84983e-05
1.83712e-05
1.82603e-05
1.81551e-05
1.8058e-05
1.7959e-05
1.78611e-05
1.77579e-05
1.76588e-05
1.75565e-05
1.74584e-05
1.73558e-05
1.72528e-05
1.71382e-05
1.70229e-05
1.68971e-05
1.67742e-05
1.66456e-05
1.65269e-05
1.64048e-05
1.62955e-05
1.61817e-05
1.60815e-05
1.5974e-05
1.58791e-05
1.5774e-05
1.56822e-05
1.5578e-05
1.54877e-05
1.53844e-05
1.52961e-05
1.51939e-05
1.51076e-05
1.50065e-05
1.49211e-05
1.48194e-05
1.47353e-05
1.46332e-05
1.45485e-05
1.44488e-05
1.43611e-05
1.99999e-05
1.98811e-05
1.9641e-05
1.93995e-05
1.91879e-05
1.90231e-05
1.88973e-05
1.87878e-05
1.86653e-05
1.85361e-05
1.84095e-05
1.8299e-05
1.81959e-05
1.81019e-05
1.80063e-05
1.7911e-05
1.78103e-05
1.77135e-05
1.76137e-05
1.75183e-05
1.74186e-05
1.73178e-05
1.72051e-05
1.70907e-05
1.69653e-05
1.68417e-05
1.67125e-05
1.65927e-05
1.64699e-05
1.63595e-05
1.62453e-05
1.61444e-05
1.60367e-05
1.59413e-05
1.58361e-05
1.57438e-05
1.56395e-05
1.55487e-05
1.54451e-05
1.53565e-05
1.52541e-05
1.51675e-05
1.50664e-05
1.49809e-05
1.48793e-05
1.47951e-05
1.46928e-05
1.4609e-05
1.45084e-05
1.44216e-05
1.99999e-05
1.98848e-05
1.96525e-05
1.94203e-05
1.92158e-05
1.90531e-05
1.89269e-05
1.88185e-05
1.87003e-05
1.85743e-05
1.84484e-05
1.83382e-05
1.8237e-05
1.81459e-05
1.80536e-05
1.79611e-05
1.78628e-05
1.77684e-05
1.76712e-05
1.75784e-05
1.74816e-05
1.73832e-05
1.72724e-05
1.71589e-05
1.70338e-05
1.69095e-05
1.67797e-05
1.66587e-05
1.65349e-05
1.64235e-05
1.63088e-05
1.62071e-05
1.60989e-05
1.60027e-05
1.58974e-05
1.58045e-05
1.56998e-05
1.56084e-05
1.55045e-05
1.54155e-05
1.53128e-05
1.52259e-05
1.51245e-05
1.50391e-05
1.49376e-05
1.48536e-05
1.47512e-05
1.46682e-05
1.45673e-05
1.44818e-05
1.99999e-05
1.98883e-05
1.96637e-05
1.94405e-05
1.92434e-05
1.90838e-05
1.89576e-05
1.88501e-05
1.87354e-05
1.86127e-05
1.84877e-05
1.83779e-05
1.82785e-05
1.81901e-05
1.81011e-05
1.80114e-05