/*--------------------------------*- C++ -*----------------------------------*\
  =========                 |
  \\      /  F ield         | OpenFOAM: The Open Source CFD Toolbox
   \\    /   O peration     | Website:  https://openfoam.org
    \\  /    A nd           | Version:  7
     \\/     M anipulation  |
\*---------------------------------------------------------------------------*/
FoamFile
{
    version     2.0;
    format      ascii;
    class       volScalarField;
    location    "0.03";
    object      nut;
}
// * * * * * * * * * * * * * * * * * * * * * * * * * * * * * * * * * * * * * //

dimensions      [0 2 -1 0 0 0 0];

internalField   nonuniform List<scalar> 
70000
(
0
0
0
0
0
0
0
0
0
0
0
0
0
0
0
0
0
0
0
0
0
0
0
0
0
0
0
0
0
0
0
0
0
0
0
0
0
0
0
0
0
0
0
0
0
1.20033e-13
0
9.67954e-13
0
0
0
0
0
0
0
0
0
0
0
0
0
0
0
0
0
0
0
0
0
0
0
0
0
0
0
0
0
0
0
0
0
0
0
0
0
0
0
0
0
0
0
0
0
0
0
2.3834e-13
0
2.02063e-12
0
0
0
0
0
0
0
0
0
0
0
0
0
0
0
0
0
0
0
0
0
0
0
0
0
0
0
0
0
0
0
0
0
0
0
0
0
0
0
0
0
0
0
0
0
0
0
3.09477e-13
0
2.8387e-12
0
0
0
0
0
0
0
0
0
0
0
0
0
0
0
0
0
0
0
0
0
0
0
0
0
0
0
0
0
0
0
0
0
0
0
0
0
0
0
0
0
0
0
0
0
0
0
2.20004e-13
0
3.0174e-12
1.77687e-12
0
0
0
0
0
0
0
0
0
0
0
0
0
0
0
0
0
0
0
0
0
0
0
0
0
0
0
0
0
0
0
0
0
0
0
0
0
0
0
0
0
0
0
0
0
0
1.57358e-13
0
2.87615e-12
2.31444e-12
0
9.4423e-10
0
0
0
0
0
0
0
0
0
0
0
0
0
0
0
0
0
0
0
0
0
0
0
0
0
0
0
0
0
0
0
0
0
0
0
0
0
0
0
0
0
0
0
0
2.18712e-13
0
2.69919e-12
2.23345e-12
0
1.31925e-08
0
0
0
0
0
0
0
0
0
0
0
0
0
0
0
0
0
0
0
0
0
0
0
0
0
0
0
0
0
0
0
0
0
0
0
0
0
0
0
0
0
0
0
0
3.26981e-13
0
2.40356e-12
2.30958e-12
0
1.20861e-08
0
0
0
0
0
0
0
0
0
0
0
0
0
0
0
0
0
0
0
0
0
0
0
0
0
0
0
0
0
0
0
0
0
0
0
0
0
0
0
0
0
0
0
0
4.1204e-13
0
1.90947e-12
2.65885e-12
0
1.10663e-08
0
0
0
0
0
0
0
0
0
0
0
0
0
0
0
0
0
0
0
0
0
0
0
0
0
0
0
0
0
0
0
0
0
0
0
0
0
0
0
0
0
0
0
0
4.34207e-13
0
1.2437e-12
3.08471e-12
0
1.02178e-08
0
0
0
0
0
0
0
0
0
0
0
0
0
0
0
0
0
0
0
0
0
0
0
0
0
0
0
0
0
0
0
0
0
0
0
0
0
0
0
0
0
0
0
0
3.84525e-13
0
4.80506e-13
3.42163e-12
0
9.50733e-09
0
0
0
0
0
0
0
0
0
0
0
0
0
0
0
0
0
0
0
0
0
0
0
0
0
0
0
0
0
0
0
0
0
0
0
0
0
0
0
0
0
0
0
0
2.77824e-13
0
0
3.61569e-12
0
8.86432e-09
0
0
0
0
0
0
0
0
0
0
0
0
0
0
0
0
0
0
0
0
0
0
0
0
0
0
0
0
0
0
0
0
0
0
0
0
0
0
0
0
0
0
0
0
1.41252e-13
0
0
3.64689e-12
0
8.22284e-09
0
0
0
0
0
0
0
0
0
0
0
0
0
0
0
0
0
0
0
0
0
0
0
0
0
0
0
0
0
0
0
0
0
0
0
0
0
0
0
0
0
0
0
0
1.4857e-14
0
0
3.53535e-12
0
7.56303e-09
0
0
0
0
0
0
0
0
0
0
0
1.88684e-11
4.89978e-11
1.68482e-11
0
0
0
0
0
0
0
0
0
0
0
0
0
0
0
0
0
0
0
0
0
0
0
0
0
0
0
0
0
0
0
0
0
3.32793e-12
0
6.89106e-09
0
0
0
0
0
0
0
0
0
0
0
0
0
3.59454e-12
6.03502e-11
9.73834e-11
7.66325e-11
3.08517e-11
8.22713e-12
1.20281e-13
0
0
0
0
0
0
0
0
0
0
0
0
0
0
0
0
0
0
0
0
0
0
0
0
0
0
0
3.08096e-12
0
6.218e-09
0
0
0
0
0
0
0
0
0
0
0
0
0
0
0
0
2.15548e-11
6.1395e-11
1.04106e-10
1.34797e-10
1.24583e-10
7.36616e-11
3.35442e-11
1.45342e-11
6.25808e-12
2.6468e-12
9.52747e-13
8.03608e-14
0
0
0
0
0
0
0
0
0
0
0
0
2.10208e-13
0
4.44798e-13
0
1.46169e-13
2.92643e-13
0
2.86058e-12
0
5.55239e-09
0
0
0
9.28101e-11
0
0
0
0
0
0
0
0
0
0
0
0
0
0
6.70361e-12
2.4883e-11
4.81868e-11
7.84995e-11
1.14702e-10
1.51805e-10
1.78749e-10
1.6879e-10
1.16075e-10
6.5179e-11
3.54318e-11
2.02668e-11
1.24877e-11
8.29543e-12
5.77653e-12
4.14749e-12
3.10001e-12
2.33644e-12
1.99657e-12
1.51471e-12
1.62349e-12
9.71149e-13
1.52705e-12
3.79119e-13
1.42127e-12
3.49238e-14
6.35375e-13
1.32238e-12
0
2.79621e-12
0
4.90051e-09
0
0
0
1.78057e-10
0
0
0
0
0
0
0
0
0
0
0
0
0
0
0
0
5.83418e-12
1.67341e-11
2.78176e-11
3.99944e-11
5.50648e-11
7.57534e-11
1.03093e-10
1.36834e-10
1.74457e-10
2.12099e-10
2.3436e-10
2.12202e-10
1.50812e-10
9.3005e-11
5.6269e-11
3.53515e-11
2.39147e-11
1.66111e-11
1.27272e-11
8.80764e-12
7.63174e-12
4.62092e-12
4.84901e-12
2.70654e-12
2.35204e-12
3.51243e-12
0
3.42334e-12
0
4.26789e-09
0
0
0
2.3541e-10
0
0
0
0
0
0
0
0
0
0
0
0
0
0
0
0
0
0
7.54173e-12
1.50522e-11
2.2333e-11
2.95109e-11
3.67082e-11
4.42055e-11
5.26138e-11
6.31756e-11
7.79157e-11
9.83675e-11
1.24809e-10
1.5659e-10
1.92725e-10
2.30871e-10
2.63541e-10
2.63011e-10
2.16375e-10
1.46695e-10
9.42035e-11
5.72539e-11
3.89513e-11
2.53554e-11
1.74607e-11
1.63755e-11
3.20723e-12
1.02702e-11
0
3.65962e-09
0
0
0
2.49835e-10
0
0
0
0
0
0
0
0
0
0
0
0
0
0
0
0
0
0
0
4.34567e-12
9.65603e-12
1.45244e-11
1.89988e-11
2.32261e-11
2.72456e-11
3.11967e-11
3.51606e-11
3.91378e-11
4.35709e-11
4.80593e-11
5.43741e-11
6.13908e-11
7.38182e-11
8.79937e-11
1.10615e-10
1.32619e-10
1.6283e-10
1.9037e-10
2.21451e-10
2.47517e-10
2.4744e-10
2.32598e-10
1.72319e-10
1.47192e-10
8.34016e-11
3.08e-09
0
0
0
2.04002e-10
0
0
0
0
0
0
0
0
0
0
0
0
0
0
0
0
0
0
0
0
4.06946e-12
7.77179e-12
1.08523e-11
1.34706e-11
1.56985e-11
1.76639e-11
1.95126e-11
2.11645e-11
2.30978e-11
2.4607e-11
2.71727e-11
2.85232e-11
3.24837e-11
3.35483e-11
3.98172e-11
4.09781e-11
4.9916e-11
5.42754e-11
6.43148e-11
8.093e-11
8.77862e-11
1.26829e-10
1.36543e-10
2.03757e-10
2.69103e-10
2.53197e-09
0
0
0
7.88817e-11
0
0
0
0
0
0
0
0
0
0
0
0
0
0
0
0
0
0
0
0
1.99764e-12
5.1329e-12
7.45705e-12
9.13769e-12
1.0298e-11
1.10587e-11
1.16429e-11
1.19309e-11
1.25018e-11
1.25828e-11
1.37492e-11
1.37024e-11
1.62217e-11
1.60441e-11
2.06675e-11
2.07629e-11
2.72474e-11
3.00097e-11
3.4799e-11
4.65878e-11
4.03248e-11
6.53149e-11
3.95649e-11
6.17623e-11
5.18566e-11
2.01684e-09
0
0
0
0
0
0
0
0
0
0
0
0
0
0
0
0
0
0
0
0
0
0
0
0
1.65173e-12
4.55105e-12
6.46325e-12
7.56286e-12
8.02515e-12
7.96438e-12
7.67509e-12
7.0086e-12
6.62279e-12
5.72206e-12
5.90334e-12
4.98825e-12
6.48338e-12
5.76575e-12
9.19677e-12
9.35038e-12
1.42584e-11
1.76483e-11
2.04738e-11
3.18921e-11
2.37184e-11
4.2739e-11
1.41349e-11
2.07352e-11
4.07322e-13
1.53418e-09
0
0
0
0
0
0
0
0
0
0
0
0
0
0
0
0
0
0
0
0
0
0
0
0
2.13066e-12
4.95961e-12
6.62734e-12
7.31835e-12
7.26064e-12
6.56549e-12
5.59108e-12
4.16996e-12
3.01365e-12
1.34023e-12
7.10402e-13
0
0
0
1.15248e-12
1.54991e-12
5.17343e-12
9.18239e-12
1.07496e-11
2.1379e-11
1.32496e-11
2.64428e-11
7.55242e-13
0
0
1.08197e-09
0
0
0
0
0
0
0
0
0
0
0
0
0
0
0
0
0
0
0
0
0
0
0
0
3.03557e-12
5.85663e-12
7.33182e-12
7.66302e-12
7.13237e-12
5.85749e-12
4.25186e-12
2.14723e-12
2.8256e-13
0
0
0
0
0
0
0
0
2.19155e-12
3.09126e-12
1.26105e-11
5.36223e-12
1.35323e-11
0
0
0
6.57024e-10
0
0
0
0
0
0
0
0
0
0
0
0
0
0
0
0
0
0
0
0
0
0
0
0
4.23728e-12
7.05209e-12
8.31348e-12
8.25083e-12
7.20375e-12
5.31039e-12
3.03125e-12
2.1759e-13
0
0
0
0
0
0
0
0
0
0
0
4.09095e-12
0
2.06974e-12
0
0
0
2.55556e-10
0
0
0
0
0
0
0
0
0
0
0
0
0
0
0
0
0
0
0
0
0
0
0
8.91365e-13
5.73325e-12
8.50962e-12
9.49146e-12
8.94772e-12
7.28003e-12
4.66314e-12
1.59779e-12
0
0
0
0
0
0
0
0
0
0
0
0
0
0
0
0
0
0
0
0
0
0
0
0
0
0
0
0
0
0
0
0
0
0
0
0
0
0
0
0
0
0
2.48516e-12
7.57691e-12
1.02603e-11
1.08653e-11
9.71432e-12
7.27745e-12
3.78252e-12
0
0
0
0
0
0
0
0
0
0
0
0
0
0
0
0
0
0
0
0
0
0
0
0
0
0
0
0
0
0
0
0
0
0
0
0
0
0
0
0
0
0
0
4.52359e-12
9.85241e-12
1.23678e-11
1.24692e-11
1.05487e-11
7.15382e-12
2.58225e-12
0
0
0
0
0
0
0
0
0
0
0
0
0
0
0
0
0
0
0
0
0
0
0
0
0
0
0
0
0
0
0
0
0
0
0
0
0
0
0
0
0
0
0
7.12933e-12
1.26704e-11
1.49196e-11
1.43576e-11
1.14654e-11
6.8799e-12
9.8633e-13
0
0
0
0
0
0
0
0
0
0
0
0
0
0
0
0
0
0
0
0
0
0
0
0
0
0
0
0
0
0
0
0
0
0
0
0
0
0
0
0
0
0
5.44093e-13
1.04585e-11
1.61721e-11
1.80283e-11
1.66041e-11
1.24908e-11
6.43107e-12
0
0
0
0
0
0
0
0
0
0
0
0
0
0
0
0
0
0
0
0
0
0
0
0
0
0
0
0
0
0
0
0
0
0
0
0
0
0
0
0
0
0
0
3.94749e-12
1.47082e-11
2.05359e-11
2.1838e-11
1.93058e-11
1.3666e-11
5.78788e-12
0
0
0
0
0
0
0
0
0
0
0
0
0
0
0
0
0
0
0
0
0
8.7536e-10
0
0
0
0
0
0
0
0
0
0
0
0
0
0
0
0
0
0
0
0
0
8.46602e-12
2.01262e-11
2.59871e-11
2.65327e-11
2.25906e-11
1.50525e-11
4.94039e-12
0
0
0
0
0
0
0
0
0
0
0
0
0
0
0
0
0
0
0
0
0
1.80081e-09
0
0
0
0
0
0
0
0
0
0
0
0
0
0
0
0
0
0
0
0
0
1.44171e-11
2.70228e-11
3.2808e-11
3.23457e-11
2.66259e-11
1.67399e-11
3.89401e-12
0
0
0
0
0
0
0
0
0
0
0
0
0
0
0
0
0
0
0
0
0
2.60025e-09
0
0
0
0
0
0
0
0
0
0
0
0
0
0
0
0
0
0
0
0
2.48792e-13
2.22019e-11
3.57917e-11
4.13577e-11
3.95765e-11
3.16322e-11
1.8856e-11
2.67763e-12
0
0
0
0
0
0
0
0
0
0
0
0
0
0
0
0
0
0
0
0
0
3.27567e-09
0
0
0
0
0
0
0
0
0
0
0
0
0
0
0
0
0
0
0
0
7.92257e-12
3.23201e-11
4.69234e-11
5.2088e-11
4.86095e-11
3.79023e-11
2.15846e-11
1.35628e-12
0
0
0
0
0
0
0
0
0
0
0
0
0
0
0
0
0
0
0
0
0
3.83219e-09
0
0
0
0
0
0
0
0
0
0
0
0
0
0
0
0
0
0
0
0
1.82874e-11
4.53884e-11
6.10226e-11
6.55579e-11
5.99242e-11
4.58101e-11
2.51744e-11
4.38586e-14
0
0
0
0
0
0
0
0
0
0
0
0
0
0
0
0
0
0
0
0
0
4.27742e-09
0
0
0
0
0
0
0
0
0
0
0
0
0
0
0
0
0
0
0
0
3.20744e-11
6.21644e-11
7.88365e-11
8.24639e-11
7.41274e-11
5.58402e-11
2.99641e-11
0
0
0
0
0
0
0
0
0
0
0
0
0
0
0
0
0
0
0
0
0
0
4.61974e-09
0
0
0
0
0
0
0
0
0
0
0
0
0
0
0
0
0
0
0
1.2705e-12
5.01763e-11
8.35744e-11
1.01284e-10
1.03669e-10
9.19814e-11
6.86141e-11
3.64081e-11
0
0
0
0
0
0
0
0
0
0
0
0
0
0
0
0
0
0
0
0
0
0
4.8681e-09
0
0
0
0
0
0
0
0
0
0
0
0
0
0
0
0
0
0
0
1.86977e-11
7.36767e-11
1.10745e-10
1.29489e-10
1.30239e-10
1.14437e-10
8.49228e-11
4.51037e-11
0
0
0
0
0
0
0
0
0
0
0
0
0
0
0
0
0
0
0
0
0
0
5.03265e-09
0
0
0
0
0
0
0
0
0
0
0
0
0
0
0
0
0
0
0
4.21046e-11
1.03883e-10
1.4504e-10
1.64819e-10
1.6348e-10
1.42675e-10
1.05765e-10
5.68291e-11
0
0
0
0
0
0
0
0
0
0
0
0
0
0
0
0
0
0
0
0
0
0
5.12461e-09
0
0
0
0
0
0
0
0
0
0
0
0
0
0
0
0
0
0
0
7.29731e-11
1.42361e-10
1.88096e-10
2.08928e-10
2.04988e-10
1.78157e-10
1.32404e-10
7.25951e-11
3.66442e-12
0
0
0
0
0
0
0
0
0
0
0
0
0
0
0
0
0
0
0
0
0
5.15518e-09
0
0
0
0
0
0
0
0
0
0
0
0
0
0
0
0
0
0
1.06594e-11
1.13063e-10
1.90973e-10
2.41874e-10
2.6382e-10
2.56725e-10
2.22706e-10
1.66438e-10
9.37121e-11
1.04162e-11
0
0
0
0
0
0
0
0
0
0
0
0
0
0
0
0
0
0
0
0
0
5.1347e-09
0
0
0
0
0
0
0
0
0
0
0
0
0
0
0
0
0
0
4.99638e-11
1.64451e-10
2.51934e-10
3.08724e-10
3.31925e-10
3.21095e-10
2.78581e-10
2.09877e-10
1.2186e-10
2.15528e-11
0
0
0
0
0
0
0
0
0
0
0
0
0
0
0
0
0
0
0
0
0
5.07225e-09
0
0
0
0
0
0
0
0
0
0
0
0
0
0
0
0
0
0
1.01672e-10
2.2959e-10
3.27882e-10
3.91463e-10
4.16169e-10
4.01014e-10
3.48554e-10
2.6522e-10
1.59166e-10
3.8768e-11
0
0
0
0
0
0
0
0
0
0
0
0
0
0
0
0
0
0
0
0
0
4.97557e-09
0
0
0
0
0
0
0
0
0
0
0
0
0
0
0
0
0
0
1.68371e-10
3.1134e-10
4.21921e-10
4.93422e-10
5.20047e-10
5.00012e-10
4.36027e-10
3.35585e-10
2.08338e-10
6.42696e-11
0
0
0
0
0
0
0
0
0
0
0
0
0
0
0
0
0
0
0
0
0
4.85112e-09
0
0
0
0
0
0
0
0
0
0
0
0
0
0
0
0
0
6.16852e-11
2.5299e-10
4.12995e-10
5.37671e-10
6.18529e-10
6.47735e-10
6.22376e-10
5.45202e-10
4.24885e-10
2.72835e-10
1.00945e-10
0
0
0
0
0
0
0
0
0
0
0
0
0
0
0
0
0
0
0
0
0
4.70428e-09
0
0
0
0
0
0
0
0
0
0
0
0
0
0
0
0
0
1.45073e-10
3.58803e-10
5.38312e-10
6.79336e-10
7.71419e-10
8.04229e-10
7.73304e-10
6.81246e-10
5.38014e-10
3.57059e-10
1.52548e-10
0
0
0
0
0
0
0
0
0
0
0
0
0
0
0
0
0
0
0
0
0
4.53954e-09
0
0
0
0
0
0
0
0
0
0
0
0
0
0
0
0
0
2.49978e-10
4.89424e-10
6.91533e-10
8.5178e-10
9.57547e-10
9.95499e-10
9.59096e-10
8.5051e-10
6.81061e-10
4.66569e-10
2.23914e-10
0
0
0
0
0
0
0
0
0
0
0
0
0
0
0
0
0
0
0
0
0
4.36072e-09
0
0
0
0
0
0
0
0
0
0
0
0
0
0
0
0
6.20127e-11
3.79778e-10
6.48822e-10
8.77429e-10
1.0606e-09
1.18331e-09
1.22864e-09
1.18734e-09
1.06076e-09
8.61591e-10
6.08391e-10
3.21263e-10
1.60321e-11
0
0
0
0
0
0
0
0
0
0
0
0
0
0
0
0
0
0
0
0
4.17122e-09
0
0
0
0
0
0
0
0
0
0
0
0
0
0
0
0
1.84588e-10
5.38175e-10
8.41351e-10
1.10131e-09
1.31217e-09
1.45612e-09
1.51203e-09
1.46715e-09
1.32148e-09
1.08903e-09
7.91451e-10
4.5266e-10
9.16569e-11
0
0
0
0
0
0
0
0
0
0
0
0
0
0
0
0
0
0
0
0
3.97398e-09
0
0
0
0
0
0
0
0
0
0
0
0
0
0
0
0
3.36255e-10
7.29173e-10
1.07171e-09
1.36901e-09
1.61363e-09
1.78453e-09
1.85554e-09
1.80954e-09
1.64435e-09
1.37518e-09
1.0271e-09
6.28552e-10
2.0238e-10
0
0
0
0
0
0
0
0
0
0
0
0
0
0
0
0
0
0
0
0
3.77154e-09
0
0
0
0
0
0
0
0
0
0
0
0
0
0
0
4.21049e-11
5.20859e-10
9.56959e-10
1.34487e-09
1.68678e-09
1.97291e-09
2.17829e-09
2.27079e-09
2.22769e-09
2.04369e-09
1.73476e-09
1.32977e-09
8.6249e-10
3.60396e-10
0
0
0
0
0
0
0
0
0
0
0
0
0
0
0
0
0
0
0
0
3.56605e-09
0
0
0
0
0
0
0
0
0
0
0
0
0
0
0
2.24146e-10
7.42093e-10
1.22576e-09
1.66593e-09
2.06128e-09
2.39872e-09
2.64844e-09
2.77122e-09
2.73732e-09
2.53698e-09
2.18625e-09
1.71798e-09
1.17215e-09
5.81929e-10
0
0
0
0
0
0
0
0
0
0
0
0
0
0
0
0
0
0
0
0
3.35963e-09
0
0
0
0
0
0
0
0
0
0
0
0
0
0
0
4.42299e-10
1.00329e-09
1.5397e-09
2.04007e-09
2.49939e-09
2.90038e-09
3.2073e-09
3.37234e-09
3.35704e-09
3.14545e-09
2.75268e-09
2.21542e-09
1.58077e-09
8.88768e-10
1.66272e-10
0
0
0
0
0
0
0
0
0
0
0
0
0
0
0
0
0
0
0
3.15433e-09
1.7872e-10
0
0
0
0
0
0
0
0
0
0
0
0
0
8.97718e-11
6.97992e-10
1.30715e-09
1.90249e-09
2.47222e-09
3.00798e-09
3.48759e-09
3.86821e-09
4.09178e-09
4.10884e-09
3.89493e-09
3.46271e-09
2.85236e-09
2.11887e-09
1.31037e-09
4.6009e-10
0
0
0
0
0
0
0
0
0
0
0
0
0
0
0
0
0
0
0
2.95193e-09
3.57543e-10
0
0
0
0
0
0
0
0
0
0
0
0
0
3.32942e-10
9.91609e-10
1.65539e-09
2.31705e-09
2.96668e-09
3.5935e-09
4.17006e-09
4.64532e-09
4.9491e-09
5.0183e-09
4.81683e-09
4.35238e-09
3.66768e-09
2.82643e-09
1.88638e-09
8.88473e-10
0
0
0
0
0
0
0
0
0
0
0
0
0
0
0
0
0
0
0
2.75385e-09
5.00118e-10
0
0
0
0
0
0
0
0
0
0
0
0
0
6.05638e-10
1.32227e-09
2.04835e-09
2.78504e-09
3.5266e-09
4.26142e-09
4.95695e-09
5.55311e-09
5.96553e-09
6.11448e-09
5.9485e-09
5.46666e-09
4.71188e-09
3.75679e-09
2.67065e-09
1.50416e-09
2.76984e-10
0
0
0
0
0
0
0
0
0
0
0
0
0
0
0
0
0
0
2.56125e-09
6.10716e-10
0
0
0
0
0
0
0
0
0
0
0
0
1.19133e-10
9.05489e-10
1.68762e-09
2.48464e-09
3.30633e-09
4.15343e-09
5.01558e-09
5.856e-09
6.60532e-09
7.16317e-09
7.42964e-09
7.33333e-09
6.86014e-09
6.04948e-09
4.98159e-09
3.73826e-09
2.38249e-09
9.39475e-10
0
0
0
0
0
0
0
0
0
0
0
0
0
0
0
0
0
0
2.37502e-09
6.93338e-10
0
0
0
0
0
0
0
0
0
0
0
0
3.78759e-10
1.22886e-09
2.08355e-09
2.96071e-09
3.87838e-09
4.84597e-09
5.85701e-09
6.87215e-09
7.81328e-09
8.56299e-09
8.99779e-09
9.02072e-09
8.59824e-09
7.76112e-09
6.59469e-09
5.19304e-09
3.63307e-09
1.94682e-09
1.23433e-10
0
0
0
0
0
0
0
0
0
0
0
0
0
0
0
0
0
2.19581e-09
7.51655e-10
0
0
0
0
0
0
0
0
0
0
0
0
6.55714e-10
1.5706e-09
2.50398e-09
3.47042e-09
4.49553e-09
5.59938e-09
6.78255e-09
8.00563e-09
9.18351e-09
1.0182e-08
1.08515e-08
1.10637e-08
1.07576e-08
9.94715e-09
8.71821e-09
7.17607e-09
5.41275e-09
3.4675e-09
1.32429e-09
0
0
0
0
0
0
0
0
0
0
0
0
0
0
0
0
0
2.02405e-09
7.89003e-10
0
0
0
0
0
0
0
0
0
0
0
3.14384e-11
9.44444e-10
1.92386e-09
2.94055e-09
4.00461e-09
5.14832e-09
6.40405e-09
7.78308e-09
9.24942e-09
1.0714e-08
1.20282e-08
1.30159e-08
1.35124e-08
1.34209e-08
1.27279e-08
1.15105e-08
9.88077e-09
7.94672e-09
5.75624e-09
3.28434e-09
4.1857e-10
0
0
0
0
0
0
0
0
0
0
0
0
0
0
0
0
1.86002e-09
8.08404e-10
0
0
0
0
0
0
0
0
0
0
0
2.94879e-10
1.23757e-09
2.28009e-09
3.38266e-09
4.5508e-09
5.82277e-09
7.24414e-09
8.84105e-09
1.05859e-08
1.23894e-08
1.40931e-08
1.54981e-08
1.6402e-08
1.66645e-08
1.62331e-08
1.51644e-08
1.35679e-08
1.15639e-08
9.20973e-09
6.46966e-09
3.17309e-09
0
0
0
0
0
0
0
0
0
0
0
0
0
0
0
0
1.70389e-09
8.12607e-10
0
0
0
0
0
0
0
0
0
0
0
5.56562e-10
1.52556e-09
2.62857e-09
3.81724e-09
5.09287e-09
6.50029e-09
8.09771e-09
9.92883e-09
1.19829e-08
1.41765e-08
1.63436e-08
1.82707e-08
1.97273e-08
2.05284e-08
2.05705e-08
1.98786e-08
1.85525e-08
1.67203e-08
1.44459e-08
1.16826e-08
8.18826e-09
3.43579e-09
0
0
0
0
0
0
0
0
0
0
0
0
0
0
0
1.55573e-09
8.04095e-10
0
0
0
0
0
0
0
0
0
0
4.72208e-11
8.06247e-10
1.79777e-09
2.95645e-09
4.22814e-09
5.61084e-09
7.15689e-09
8.93676e-09
1.10093e-08
1.33896e-08
1.60126e-08
1.87128e-08
2.12542e-08
2.34061e-08
2.49607e-08
2.57584e-08
2.57792e-08
2.51191e-08
2.39302e-08
2.23079e-08
2.0233e-08
1.74423e-08
1.31964e-08
5.63367e-09
0
0
0
0
0
0
0
0
0
0
0
0
0
0
1.4154e-09
7.85085e-10
0
0
0
0
0
0
0
0
0
0
2.78576e-10
1.03278e-09
2.04266e-09
3.24973e-09
4.59785e-09
6.08287e-09
7.76187e-09
9.72084e-09
1.20379e-08
1.47476e-08
1.7805e-08
2.1066e-08
2.42933e-08
2.72435e-08
2.97399e-08
3.15932e-08
3.27332e-08
3.32797e-08
3.34894e-08
3.36049e-08
3.38207e-08
3.42298e-08
3.46562e-08
3.37293e-08
2.37591e-08
0
0
0
0
0
0
0
0
0
0
0
0
0
1.28275e-09
7.57473e-10
0
0
0
0
0
0
0
0
0
0
4.77038e-10
1.22488e-09
2.2476e-09
3.49375e-09
4.90813e-09
6.48494e-09
8.28422e-09
1.04065e-08
1.29508e-08
1.59702e-08
1.94368e-08
2.32243e-08
2.71155e-08
3.09018e-08
3.4407e-08
3.74583e-08
4.00296e-08
4.2328e-08
4.47752e-08
4.79368e-08
5.26477e-08
6.03946e-08
7.4389e-08
1.0237e-07
1.54804e-07
1.07884e-07
8.98501e-10
0
0
0
0
0
0
0
0
0
0
0
1.15757e-09
7.22926e-10
0
0
0
0
0
0
0
0
0
1.57283e-10
6.33688e-10
1.3721e-09
2.40051e-09
3.67451e-09
5.14008e-09
6.79096e-09
8.69034e-09
1.09491e-08
1.36816e-08
1.69553e-08
2.07545e-08
2.49667e-08
2.94005e-08
3.38647e-08
3.81956e-08
4.22934e-08
4.62208e-08
5.02689e-08
5.49902e-08
6.1246e-08
7.04148e-08
8.4738e-08
1.06997e-07
1.32601e-07
1.21939e-07
6.19171e-08
2.14008e-08
5.76203e-09
3.88998e-10
0
0
0
0
0
0
0
0
0
1.03958e-09
6.82882e-10
0
0
0
0
0
0
0
0
0
2.81147e-10
7.41268e-10
1.4654e-09
2.49074e-09
3.77878e-09
5.27646e-09
6.97718e-09
8.94682e-09
1.13036e-08
1.41656e-08
1.76053e-08
2.16078e-08
2.60602e-08
3.07743e-08
3.55523e-08
4.02521e-08
4.4825e-08
4.93658e-08
5.4141e-08
5.95977e-08
6.63113e-08
7.47478e-08
8.43121e-08
9.07495e-08
8.42564e-08
6.1145e-08
3.54313e-08
1.82271e-08
8.96612e-09
4.32333e-09
2.03928e-09
9.34091e-10
4.15018e-10
1.90982e-10
1.07101e-10
9.04937e-11
1.01974e-10
1.27425e-10
0
9.28447e-10
6.38584e-10
0
0
0
0
0
0
0
0
4.60349e-11
3.56107e-10
7.94668e-10
1.49802e-09
2.5095e-09
3.79527e-09
5.30376e-09
7.02579e-09
9.02726e-09
1.14278e-08
1.4344e-08
1.7835e-08
2.18686e-08
2.63072e-08
3.09416e-08
3.55455e-08
3.99738e-08
4.418e-08
4.82108e-08
5.21827e-08
5.62131e-08
6.02174e-08
6.35121e-08
6.42944e-08
5.9895e-08
4.92087e-08
3.53042e-08
2.28307e-08
1.39445e-08
8.3353e-09
4.98099e-09
3.01034e-09
1.85807e-09
1.17905e-09
7.77763e-10
5.33308e-10
3.82195e-10
2.71001e-10
1.5575e-10
0
8.23855e-10
5.91041e-10
0
0
0
0
0
0
0
0
9.72086e-11
3.80599e-10
7.91076e-10
1.46575e-09
2.45163e-09
3.71742e-09
5.21203e-09
6.92369e-09
8.91356e-09
1.12962e-08
1.41773e-08
1.75896e-08
2.14629e-08
2.56147e-08
2.97969e-08
3.37659e-08
3.735e-08
4.05006e-08
4.32138e-08
4.54776e-08
4.71887e-08
4.80135e-08
4.72963e-08
4.42116e-08
3.83919e-08
3.05958e-08
2.25095e-08
1.55954e-08
1.04239e-08
6.85282e-09
4.49133e-09
2.95668e-09
1.96629e-09
1.32201e-09
9.01738e-10
6.19858e-10
4.29688e-10
2.78077e-10
1.16182e-10
0
7.25417e-10
5.41126e-10
0
0
0
0
0
0
0
0
1.05859e-10
3.55212e-10
7.30492e-10
1.36797e-09
2.31596e-09
3.54373e-09
4.99861e-09
6.66569e-09
8.5987e-09
1.08999e-08
1.36543e-08
1.68591e-08
2.03944e-08
2.40284e-08
2.7483e-08
3.05202e-08
3.29874e-08
3.48518e-08
3.61242e-08
3.67746e-08
3.66966e-08
3.56759e-08
3.34517e-08
2.98904e-08
2.52151e-08
2.00301e-08
1.5082e-08
1.08948e-08
7.65637e-09
5.29333e-09
3.63047e-09
2.48e-09
1.69255e-09
1.15146e-09
7.81971e-10
5.24831e-10
3.48619e-10
2.07217e-10
6.36912e-11
0
6.32745e-10
4.89585e-10
0
0
0
0
0
0
0
0
7.43733e-11
2.82805e-10
6.15849e-10
1.20763e-09
2.10569e-09
3.2779e-09
4.66814e-09
6.25734e-09
8.08985e-09
1.02503e-08
1.27967e-08
1.5686e-08
1.87508e-08
2.17257e-08
2.43333e-08
2.63777e-08
2.77754e-08
2.85335e-08
2.87143e-08
2.83281e-08
2.7341e-08
2.56827e-08
2.33168e-08
2.03153e-08
1.69147e-08
1.34566e-08
1.02805e-08
7.5971e-09
5.47628e-09
3.87457e-09
2.70338e-09
1.86161e-09
1.26616e-09
8.45716e-10
5.54759e-10
3.52027e-10
2.18094e-10
1.17547e-10
3.71148e-11
0
5.45457e-10
4.37022e-10
0
0
0
0
0
0
0
0
6.82001e-12
1.68399e-10
4.52879e-10
9.9119e-10
1.8284e-09
2.92906e-09
4.23272e-09
5.71474e-09
7.40894e-09
9.38e-09
1.16564e-08
1.41584e-08
1.66854e-08
1.89656e-08
2.07585e-08
2.19381e-08
2.25011e-08
2.25067e-08
2.20447e-08
2.11658e-08
1.98844e-08
1.82021e-08
1.61556e-08
1.38389e-08
1.14142e-08
9.06532e-09
6.95525e-09
5.17529e-09
3.75177e-09
2.6558e-09
1.83803e-09
1.23944e-09
8.11747e-10
5.09582e-10
3.05358e-10
1.69728e-10
9.22729e-11
5.06593e-11
6.37347e-11
0
4.63171e-10
3.83916e-10
0
0
0
0
0
0
0
0
0
1.89525e-11
2.4981e-10
7.28278e-10
1.49556e-09
2.51175e-09
3.71128e-09
5.06315e-09
6.59054e-09
8.33875e-09
1.03089e-08
1.23943e-08
1.43816e-08
1.60205e-08
1.71318e-08
1.76619e-08
1.76697e-08
1.72507e-08
1.64959e-08
1.54691e-08
1.42033e-08
1.27229e-08
1.10762e-08
9.33721e-09
7.60764e-09
5.9866e-09
4.55547e-09
3.35456e-09
2.39216e-09
1.64734e-09
1.09017e-09
6.8373e-10
3.98918e-10
2.0564e-10
8.73891e-11
2.2611e-11
7.68208e-12
3.50684e-11
1.61857e-10
0
3.85498e-10
3.30641e-10
0
0
0
0
0
0
0
0
0
0
1.69131e-11
4.31142e-10
1.12205e-09
2.04459e-09
3.128e-09
4.33478e-09
5.67815e-09
7.18706e-09
8.84113e-09
1.05197e-08
1.20158e-08
1.31216e-08
1.37215e-08
1.38212e-08
1.35119e-08
1.28996e-08
1.20655e-08
1.10676e-08
9.94055e-09
8.71236e-09
7.4255e-09
6.13182e-09
4.89392e-09
3.76575e-09
2.78825e-09
1.97811e-09
1.33533e-09
8.43764e-10
4.83856e-10
2.31039e-10
6.72196e-11
0
0
0
0
8.98707e-11
3.43233e-10
0
3.12052e-10
2.77491e-10
0
0
0
0
0
0
0
0
0
0
0
1.13871e-10
7.25092e-10
1.54912e-09
2.51029e-09
3.56552e-09
4.71961e-09
5.98899e-09
7.34016e-09
8.6502e-09
9.7341e-09
1.04322e-08
1.06825e-08
1.05289e-08
1.00714e-08
9.40761e-09
8.60557e-09
7.71092e-09
6.75515e-09
5.76416e-09
4.77184e-09
3.8141e-09
2.92917e-09
2.14623e-09
1.48491e-09
9.50092e-10
5.37869e-10
2.35155e-10
2.83256e-11
0
0
0
0
0
5.06442e-11
2.27446e-10
6.14808e-10
0
2.42442e-10
2.24689e-10
0
0
0
0
0
0
0
0
0
0
0
0
3.23088e-10
1.04815e-09
1.88686e-09
2.79193e-09
3.762e-09
4.80541e-09
5.88316e-09
6.87977e-09
7.63936e-09
8.04654e-09
8.07886e-09
7.79795e-09
7.29751e-09
6.65961e-09
5.93869e-09
5.1697e-09
4.3801e-09
3.59304e-09
2.83538e-09
2.13228e-09
1.50685e-09
9.73996e-10
5.41563e-10
2.0824e-10
0
0
0
0
0
0
0
3.30691e-11
2.03717e-10
4.55301e-10
9.80008e-10
0
1.7628e-10
1.72401e-10
0
0
0
0
0
0
0
0
0
0
0
0
0
5.64301e-10
1.2856e-09
2.0485e-09
2.848e-09
3.68841e-09
4.53129e-09
5.27449e-09
5.79225e-09
6.00505e-09
5.91547e-09
5.58826e-09
5.10421e-09
4.5288e-09
3.90502e-09
3.26069e-09
2.61974e-09
2.00318e-09
1.43265e-09
9.26019e-10
4.96806e-10
1.51325e-10
0
0
0
0
0
0
0
0
3.68858e-11
2.27303e-10
4.5331e-10
7.77442e-10
1.43978e-09
0
1.1318e-10
1.20743e-10
0
0
0
0
0
0
0
0
0
0
0
0
0
1.18738e-10
7.3186e-10
1.3655e-09
2.01325e-09
2.67864e-09
3.32781e-09
3.87444e-09
4.21991e-09
4.31128e-09
4.16406e-09
3.83819e-09
3.40003e-09
2.90081e-09
2.37465e-09
1.84519e-09
1.3337e-09
8.59582e-10
4.40608e-10
8.95044e-11
0
0
0
0
0
0
0
0
0
6.10053e-11
2.83212e-10
5.25144e-10
8.02e-10
1.19541e-09
1.9934e-09
0
5.27561e-11
6.97998e-11
0
0
0
0
0
0
0
0
0
0
0
0
0
0
2.47447e-10
7.67775e-10
1.28522e-09
1.80485e-09
2.29941e-09
2.69841e-09
2.9257e-09
2.94663e-09
2.78158e-09
2.48235e-09
2.10208e-09
1.68089e-09
1.24651e-09
8.20073e-10
4.21181e-10
6.78608e-11
0
0
0
0
0
0
0
0
0
0
1.21865e-10
3.68317e-10
6.39356e-10
9.27466e-10
1.2504e-09
1.70913e-09
2.63907e-09
0
0
1.96376e-11
0
0
0
0
0
0
0
0
0
0
0
0
0
0
0
2.74408e-10
6.83407e-10
1.08496e-09
1.45907e-09
1.74962e-09
1.8981e-09
1.88183e-09
1.72153e-09
1.46031e-09
1.14033e-09
7.93503e-10
4.43221e-10
1.09064e-10
0
0
0
0
0
0
0
0
0
0
0
2.25846e-10
4.98267e-10
7.90557e-10
1.10469e-09
1.43373e-09
1.79785e-09
2.3175e-09
3.37449e-09
0
0
0
0
0
0
0
0
0
0
0
0
0
0
0
0
0
0
0
2.2022e-10
5.28038e-10
8.09655e-10
1.02122e-09
1.11772e-09
1.08427e-09
9.39884e-10
7.19825e-10
4.57743e-10
1.79705e-10
0
0
0
0
0
0
0
0
0
0
0
1.13051e-10
3.8495e-10
6.78501e-10
9.93635e-10
1.32597e-09
1.6778e-09
2.04267e-09
2.44309e-09
3.01898e-09
4.19731e-09
0
0
0
0
0
0
0
0
0
0
0
0
0
0
0
0
0
0
0
0
1.36718e-10
3.4736e-10
5.00743e-10
5.62268e-10
5.22327e-10
3.97812e-10
2.1759e-10
9.02883e-12
0
0
0
0
0
0
0
0
0
0
3.83237e-11
3.09905e-10
6.04244e-10
9.198e-10
1.25341e-09
1.60566e-09
1.97275e-09
2.35718e-09
2.75295e-09
3.18483e-09
3.81216e-09
5.10563e-09
0
0
0
0
0
0
0
0
0
0
0
0
0
0
0
0
0
0
0
0
0
6.46675e-11
1.73483e-10
2.09662e-10
1.67604e-10
6.25771e-11
0
0
0
0
0
0
0
0
0
0
0
2.72392e-10
5.70278e-10
8.893e-10
1.22595e-09
1.57966e-09
1.94809e-09
2.33239e-09
2.72931e-09
3.14151e-09
3.56339e-09
4.02197e-09
4.69589e-09
6.09812e-09
0
0
0
0
0
0
0
0
0
0
0
0
0
0
0
0
0
0
0
0
0
0
2.47159e-11
3.98135e-11
0
0
0
0
0
0
0
0
0
0
0
2.61208e-10
5.64335e-10
8.927e-10
1.23928e-09
1.60085e-09
1.97497e-09
2.36205e-09
2.76061e-09
3.17231e-09
3.59446e-09
4.02982e-09
4.47319e-09
4.95384e-09
5.66959e-09
7.17425e-09
0
0
0
0
0
0
0
0
0
0
0
0
0
0
0
0
0
0
0
0
0
2.46419e-12
4.12387e-11
3.56406e-11
0
0
0
0
0
0
0
0
2.77555e-11
2.71284e-10
5.68588e-10
9.05798e-10
1.26953e-09
1.65026e-09
2.04169e-09
2.44175e-09
2.84918e-09
3.26541e-09
3.68983e-09
4.12465e-09
4.56771e-09
5.02185e-09
5.48229e-09
5.98059e-09
6.73359e-09
8.3346e-09
0
0
0
0
0
0
0
0
0
0
0
0
0
0
0
0
0
0
1.61104e-11
1.11877e-10
1.71838e-10
2.06763e-10
2.12204e-10
1.83609e-10
1.27747e-10
6.04006e-11
0
0
0
1.72798e-11
1.35283e-10
3.25226e-10
5.86868e-10
9.11678e-10
1.28475e-09
1.68971e-09
2.11206e-09
2.54249e-09
2.97561e-09
3.41071e-09
3.84776e-09
4.28933e-09
4.7357e-09
5.18965e-09
5.64954e-09
6.11833e-09
6.59164e-09
7.10335e-09
7.88927e-09
9.581e-09
0
0
0
0
0
0
0
0
0
0
0
0
0
0
0
0
9.90264e-11
3.18773e-10
4.59981e-10
5.33325e-10
5.6206e-10
5.60161e-10
5.29685e-10
4.73945e-10
4.05394e-10
3.41623e-10
3.01021e-10
2.99552e-10
3.51291e-10
4.68931e-10
6.62214e-10
9.34829e-10
1.28171e-09
1.68943e-09
2.13888e-09
2.61115e-09
3.09073e-09
3.56871e-09
4.04085e-09
4.5079e-09
4.97125e-09
5.43466e-09
5.89933e-09
6.36865e-09
6.84152e-09
7.32103e-09
7.80324e-09
8.3244e-09
9.1392e-09
1.09166e-08
0
0
0
0
0
0
0
0
0
0
0
0
0
0
1.18831e-10
4.07445e-10
6.9719e-10
9.19973e-10
1.05177e-09
1.10434e-09
1.10139e-09
1.05997e-09
9.89006e-10
9.00641e-10
8.14019e-10
7.49193e-10
7.25435e-10
7.58447e-10
8.61432e-10
1.04541e-09
1.3172e-09
1.676e-09
2.11122e-09
2.60408e-09
3.13103e-09
3.67057e-09
4.20633e-09
4.73004e-09
5.23879e-09
5.73495e-09
6.22149e-09
6.7034e-09
7.18293e-09
7.66406e-09
8.14631e-09
8.63286e-09
9.12023e-09
9.64711e-09
1.04872e-08
1.2346e-08
0
0
0
0
0
0
0
2.86636e-11
1.51496e-10
2.13909e-10
2.43823e-10
2.7307e-10
3.47597e-10
5.16893e-10
7.94184e-10
1.13072e-09
1.4448e-09
1.67374e-09
1.79765e-09
1.82909e-09
1.79199e-09
1.70642e-09
1.58882e-09
1.4614e-09
1.3509e-09
1.28046e-09
1.27086e-09
1.33775e-09
1.49338e-09
1.74669e-09
2.10092e-09
2.54999e-09
3.07711e-09
3.65766e-09
4.26345e-09
4.87035e-09
5.4614e-09
6.02911e-09
6.57217e-09
7.09474e-09
7.60151e-09
8.09874e-09
8.58987e-09
9.07942e-09
9.56764e-09
1.00577e-08
1.05468e-08
1.1076e-08
1.19381e-08
1.38747e-08
0
0
0
0
0
0
3.66507e-11
2.68894e-10
4.27861e-10
5.48666e-10
6.6217e-10
7.96216e-10
9.84909e-10
1.26046e-09
1.62127e-09
2.01218e-09
2.35394e-09
2.59037e-09
2.70603e-09
2.71417e-09
2.63876e-09
2.50277e-09
2.33112e-09
2.15756e-09
2.01707e-09
1.93649e-09
1.93868e-09
2.0394e-09
2.24967e-09
2.57588e-09
3.01701e-09
3.56083e-09
4.1836e-09
4.85441e-09
5.54035e-09
6.21464e-09
6.86001e-09
7.4699e-09
8.045e-09
8.59126e-09
9.11537e-09
9.62485e-09
1.01245e-08
1.06192e-08
1.11102e-08
1.16006e-08
1.20882e-08
1.26165e-08
1.34979e-08
1.55095e-08
0
0
0
0
0
0
3.05089e-10
5.66937e-10
7.73397e-10
9.68462e-10
1.18508e-09
1.44489e-09
1.7673e-09
2.16428e-09
2.61806e-09
3.06789e-09
3.43881e-09
3.68223e-09
3.78749e-09
3.76875e-09
3.6493e-09
3.45531e-09
3.22124e-09
2.9941e-09
2.81714e-09
2.72191e-09
2.73377e-09
2.86863e-09
3.13599e-09
3.5391e-09
4.07187e-09
4.71501e-09
5.43709e-09
6.20053e-09
6.9676e-09
7.70899e-09
8.40742e-09
9.05752e-09
9.66222e-09
1.02294e-08
1.0768e-08
1.12867e-08
1.17917e-08
1.22887e-08
1.27794e-08
1.32671e-08
1.37503e-08
1.4275e-08
1.51734e-08
1.72579e-08
0
0
0
0
0
2.71577e-10
6.41324e-10
9.39948e-10
1.20653e-09
1.49364e-09
1.83498e-09
2.24282e-09
2.71855e-09
3.25084e-09
3.80504e-09
4.31616e-09
4.71548e-09
4.9635e-09
5.05494e-09
5.00426e-09
4.83385e-09
4.57326e-09
4.26783e-09
3.97951e-09
3.75927e-09
3.64476e-09
3.66432e-09
3.83387e-09
4.16104e-09
4.64523e-09
5.27441e-09
6.02127e-09
6.84589e-09
7.70383e-09
8.5524e-09
9.36006e-09
1.01098e-08
1.07978e-08
1.14294e-08
1.20147e-08
1.25647e-08
1.30897e-08
1.35971e-08
1.40934e-08
1.4581e-08
1.50634e-08
1.55395e-08
1.60582e-08
1.69714e-08
1.91276e-08
0
0
0
0
2.26446e-10
6.69278e-10
1.06832e-09
1.41095e-09
1.75155e-09
2.15046e-09
2.64005e-09
3.21876e-09
3.86641e-09
4.54555e-09
5.20466e-09
5.77666e-09
6.20136e-09
6.44984e-09
6.52255e-09
6.43389e-09
6.20477e-09
5.86847e-09
5.48279e-09
5.12583e-09
4.85498e-09
4.71646e-09
4.74173e-09
4.94663e-09
5.33637e-09
5.90575e-09
6.63584e-09
7.49028e-09
8.41988e-09
9.37323e-09
1.03028e-08
1.11751e-08
1.19736e-08
1.26967e-08
1.3352e-08
1.39524e-08
1.45108e-08
1.50393e-08
1.55465e-08
1.60393e-08
1.6521e-08
1.69952e-08
1.74614e-08
1.7972e-08
1.88988e-08
2.11258e-08
0
0
1.56312e-10
3.12742e-10
7.18615e-10
1.19168e-09
1.61754e-09
2.01094e-09
2.4405e-09
2.97262e-09
3.63527e-09
4.40679e-09
5.24203e-09
6.07541e-09
6.83983e-09
7.46896e-09
7.91365e-09
8.15686e-09
8.20496e-09
8.07171e-09
7.77579e-09
7.35507e-09
6.88145e-09
6.44818e-09
6.11906e-09
5.95166e-09
5.98057e-09
6.22134e-09
6.67621e-09
7.33447e-09
8.16926e-09
9.13417e-09
1.017e-08
1.12183e-08
1.22269e-08
1.3161e-08
1.40049e-08
1.47595e-08
1.54353e-08
1.60475e-08
1.66113e-08
1.71402e-08
1.76441e-08
1.81305e-08
1.86035e-08
1.90671e-08
1.95217e-08
2.00227e-08
2.09616e-08
2.32589e-08
0
0
6.68454e-10
9.54098e-10
1.40446e-09
1.88681e-09
2.33199e-09
2.78144e-09
3.31528e-09
4.0028e-09
4.86299e-09
5.84583e-09
6.87829e-09
7.86673e-09
8.73122e-09
9.40984e-09
9.86682e-09
1.00978e-08
1.01149e-08
9.93039e-09
9.56062e-09
9.0487e-09
8.48256e-09
7.96349e-09
7.5691e-09
7.36799e-09
7.39832e-09
7.67521e-09
8.19726e-09
8.94727e-09
9.88937e-09
1.09662e-08
1.21076e-08
1.32484e-08
1.43325e-08
1.5324e-08
1.6209e-08
1.69909e-08
1.76831e-08
1.83034e-08
1.88691e-08
1.93952e-08
1.98927e-08
2.03699e-08
2.08318e-08
2.12831e-08
2.17245e-08
2.22141e-08
2.31642e-08
2.5531e-08
0
8.42318e-10
1.58843e-09
1.9325e-09
2.36563e-09
2.81886e-09
3.2679e-09
3.77513e-09
4.42702e-09
5.29048e-09
6.3688e-09
7.57322e-09
8.80168e-09
9.93609e-09
1.08882e-08
1.16044e-08
1.20639e-08
1.2275e-08
1.22549e-08
1.20142e-08
1.15673e-08
1.09621e-08
1.0302e-08
9.68803e-09
9.22204e-09
8.98267e-09
9.01206e-09
9.32476e-09
9.91507e-09
1.07582e-08
1.18083e-08
1.29961e-08
1.42398e-08
1.54682e-08
1.66218e-08
1.76648e-08
1.85851e-08
1.93891e-08
2.0093e-08
2.07174e-08
2.12813e-08
2.18012e-08
2.22893e-08
2.27548e-08
2.32036e-08
2.36414e-08
2.40678e-08
2.45446e-08
2.55049e-08
2.79402e-08
0
2.6605e-09
3.15548e-09
3.36242e-09
3.67065e-09
4.03488e-09
4.46091e-09
5.01992e-09
5.7955e-09