/*--------------------------------*- C++ -*----------------------------------*\
  =========                 |
  \\      /  F ield         | OpenFOAM: The Open Source CFD Toolbox
   \\    /   O peration     | Website:  https://openfoam.org
    \\  /    A nd           | Version:  7
     \\/     M anipulation  |
\*---------------------------------------------------------------------------*/
FoamFile
{
    version     2.0;
    format      ascii;
    class       volScalarField;
    location    "0.03";
    object      p;
}
// * * * * * * * * * * * * * * * * * * * * * * * * * * * * * * * * * * * * * //

dimensions      [0 2 -2 0 0 0 0];

internalField   nonuniform List<scalar> 
70000
(
0.119788
0.042903
0.0297659
0.0322292
0.0325031
0.0314713
0.0305286
0.0298164
0.0292257
0.0287065
0.0282448
0.0278325
0.027462
0.0271265
0.0268206
0.0265397
0.0262803
0.0260393
0.0258141
0.0256026
0.0254028
0.025213
0.0250318
0.0248579
0.0246899
0.0245267
0.0243673
0.0242103
0.0240548
0.0238995
0.0237433
0.0235846
0.0234223
0.0232545
0.0230797
0.0228957
0.0227008
0.022492
0.0222669
0.0220226
0.0217545
0.0214616
0.0211322
0.0207764
0.0203569
0.019926
0.019363
0.0188612
0.0180365
0.0174955
0.115487
0.0432649
0.0299685
0.0323239
0.0325576
0.0315071
0.0305566
0.0298396
0.0292452
0.0287232
0.0282594
0.0278455
0.0274737
0.0271371
0.0268303
0.0265487
0.0262886
0.026047
0.0258214
0.0256094
0.0254093
0.0252192
0.0250378
0.0248636
0.0246954
0.0245321
0.0243724
0.0242154
0.0240597
0.0239044
0.023748
0.0235893
0.0234269
0.023259
0.0230843
0.0229002
0.0227053
0.0224964
0.0222714
0.022027
0.0217589
0.021466
0.0211365
0.0207808
0.0203611
0.0199303
0.019367
0.0188645
0.0180435
0.0175335
0.111882
0.0441873
0.030313
0.0324525
0.0326323
0.0315522
0.030589
0.0298659
0.0292671
0.0287418
0.0282755
0.0278597
0.0274863
0.0271485
0.0268407
0.0265583
0.0262975
0.0260553
0.0258292
0.0256168
0.0254162
0.0252258
0.0250441
0.0248696
0.0247012
0.0245377
0.0243779
0.0242207
0.0240649
0.0239095
0.023753
0.0235943
0.0234318
0.0232639
0.0230891
0.0229051
0.0227101
0.0225013
0.0222762
0.0220319
0.0217638
0.0214711
0.0211416
0.020786
0.0203663
0.0199358
0.0193724
0.0188694
0.0180627
0.0175696
0.108777
0.0452862
0.0307892
0.0326249
0.0327333
0.0316101
0.0306272
0.0298957
0.0292917
0.0287624
0.028293
0.0278749
0.0274998
0.0271606
0.0268516
0.0265682
0.0263067
0.0260639
0.0258371
0.0256242
0.0254233
0.0252325
0.0250504
0.0248757
0.0247071
0.0245433
0.0243833
0.024226
0.0240701
0.0239145
0.023758
0.0235991
0.0234366
0.0232687
0.0230939
0.0229099
0.0227149
0.0225061
0.0222812
0.022037
0.021769
0.0214764
0.0211471
0.0207917
0.0203723
0.0199421
0.0193798
0.0188754
0.0180936
0.0176038
0.105821
0.0463797
0.0313624
0.0328428
0.0328676
0.0316882
0.030676
0.0299325
0.0293215
0.0287868
0.0283134
0.0278924
0.027515
0.027174
0.0268637
0.0265791
0.0263166
0.026073
0.0258455
0.0256321
0.0254306
0.0252394
0.025057
0.0248819
0.024713
0.024549
0.0243888
0.0242312
0.0240752
0.0239195
0.0237628
0.0236039
0.0234413
0.0232734
0.0230985
0.0229145
0.0227196
0.0225109
0.0222861
0.022042
0.0217743
0.0214819
0.021153
0.020798
0.0203792
0.0199493
0.0193897
0.018883
0.0181348
0.0176442
0.102913
0.0474116
0.0319859
0.0330868
0.0330293
0.0317882
0.030738
0.0299783
0.0293583
0.0288167
0.0283381
0.0279132
0.0275329
0.0271897
0.0268775
0.0265915
0.0263277
0.0260831
0.0258548
0.0256406
0.0254384
0.0252467
0.0250638
0.0248883
0.024719
0.0245547
0.0243942
0.0242364
0.0240801
0.0239242
0.0237674
0.0236084
0.0234457
0.0232777
0.0231028
0.0229188
0.022724
0.0225154
0.0222907
0.0220468
0.0217793
0.0214874
0.0211589
0.0208045
0.0203869
0.0199574
0.0194023
0.0188929
0.0181844
0.0176934
0.100048
0.0483645
0.0326264
0.0333358
0.0332051
0.0319054
0.0308123
0.0300331
0.0294025
0.0288528
0.0283679
0.0279381
0.0275542
0.0272082
0.0268937
0.0266058
0.0263405
0.0260945
0.0258651
0.0256499
0.025447
0.0252545
0.025071
0.0248949
0.0247251
0.0245604
0.0243995
0.0242414
0.0240848
0.0239286
0.0237716
0.0236123
0.0234495
0.0232814
0.0231064
0.0229224
0.0227276
0.0225191
0.0222945
0.0220509
0.0217838
0.0214923
0.0211646
0.020811
0.0203951
0.0199661
0.0194177
0.0189058
0.0182407
0.0177517
0.0972333
0.0492321
0.0332678
0.0335781
0.0333842
0.0320333
0.0308954
0.0300949
0.0294531
0.0288946
0.0284025
0.0279673
0.0275791
0.0272297
0.0269125
0.0266223
0.0263551
0.0261075
0.0258767
0.0256604
0.0254564
0.025263
0.0250787
0.0249019
0.0247315
0.0245661
0.0244047
0.0242461
0.0240891
0.0239325
0.0237752
0.0236156
0.0234525
0.0232842
0.0231091
0.022925
0.0227301
0.0225217
0.0222972
0.022054
0.0217872
0.0214964
0.0211696
0.020817
0.0204034
0.0199753
0.0194357
0.0189224
0.0183017
0.0178186
0.0944761
0.0500119
0.0339045
0.0338098
0.0335604
0.0321671
0.0309842
0.0301612
0.0295079
0.0289406
0.028441
0.0279999
0.0276072
0.0272541
0.0269338
0.0266411
0.0263717
0.0261222
0.0258898
0.0256721
0.0254668
0.0252723
0.025087
0.0249093
0.024738
0.0245719
0.0244098
0.0242506
0.024093
0.0239359
0.0237781
0.0236181
0.0234546
0.0232859
0.0231105
0.0229262
0.0227312
0.0225228
0.0222985
0.0220555
0.0217892
0.0214991
0.0211734
0.020822
0.0204116
0.0199846
0.019456
0.0189431
0.0183655
0.0178931
0.0917799
0.050703
0.0345351
0.0340309
0.0337309
0.0323039
0.0310766
0.0302301
0.0295654
0.0289893
0.0284823
0.0280352
0.0276378
0.0272808
0.0269573
0.0266618
0.0263901
0.0261385
0.0259043
0.0256849
0.0254782
0.0252824
0.0250959
0.0249171
0.0247449
0.0245779
0.0244149
0.0242549
0.0240965
0.0239387
0.0237803
0.0236197
0.0234556
0.0232865
0.0231106
0.022926
0.0227307
0.0225222
0.0222979
0.0220552
0.0217894
0.0215
0.0211758
0.0208258
0.0204192
0.0199938
0.019478
0.0189679
0.0184303
0.0179733
0.0891477
0.0513057
0.0351587
0.0342422
0.0338941
0.0324423
0.0311715
0.0303005
0.0296244
0.0290398
0.0285254
0.0280723
0.0276701
0.0273092
0.0269824
0.0266841
0.0264099
0.0261562
0.02592
0.0256988
0.0254906
0.0252933
0.0251054
0.0249255
0.0247521
0.024584
0.02442
0.024259
0.0240997
0.0239411
0.0237818
0.0236204
0.0234557
0.0232858
0.0231094
0.0229243
0.0227286
0.0225199
0.0222955
0.022053
0.0217876
0.0214991
0.0211764
0.0208281
0.020426
0.0200029
0.0195014
0.0189969
0.0184949
0.0180569
0.0865827
0.0518205
0.0357737
0.034445
0.0340494
0.0325813
0.0312686
0.030372
0.0296842
0.0290913
0.0285696
0.0281105
0.0277035
0.0273387
0.0270086
0.0267074
0.0264307
0.0261748
0.0259366
0.0257136
0.0255037
0.0253049
0.0251156
0.0249342
0.0247595
0.0245902
0.0244251
0.024263
0.0241027
0.023943
0.0237827
0.0236204
0.0234548
0.0232842
0.023107
0.0229212
0.022725
0.0225159
0.0222913
0.0220489
0.021784
0.0214963
0.0211754
0.0208289
0.020432
0.0200119
0.0195255
0.0190295
0.0185583
0.0181415
0.0840877
0.052248
0.0363778
0.0346406
0.0341959
0.0327202
0.0313678
0.0304444
0.0297446
0.0291436
0.0286146
0.0281496
0.0277378
0.0273691
0.0270356
0.0267316
0.0264523
0.0261941
0.0259539
0.025729
0.0255174
0.025317
0.0251261
0.0249434
0.0247673
0.0245967
0.0244303
0.024267
0.0241055
0.0239446
0.0237832
0.0236199
0.0234532
0.0232816
0.0231035
0.022917
0.0227201
0.0225105
0.0222856
0.0220432
0.0217787
0.0214919
0.021173
0.0208285
0.0204373
0.0200211
0.0195501
0.0190653
0.01862
0.0182252
0.0816651
0.0525892
0.0369683
0.0348306
0.0343332
0.0328581
0.031469
0.0305177
0.0298054
0.0291964
0.0286604
0.0281893
0.0277727
0.0274
0.0270633
0.0267563
0.0264745
0.026214
0.0259717
0.025745
0.0255315
0.0253295
0.0251371
0.0249528
0.0247753
0.0246033
0.0244356
0.024271
0.0241082
0.0239461
0.0237835
0.0236189
0.0234511
0.0232784
0.0230993
0.0229119
0.0227141
0.022504
0.0222787
0.0220363
0.0217721
0.0214862
0.0211694
0.0208271
0.020442
0.0200306
0.019575
0.0191036
0.0186799
0.0183062
0.0793172
0.0528455
0.0375421
0.0350165
0.034461
0.032994
0.0315719
0.0305919
0.0298666
0.0292498
0.0287067
0.0282296
0.0278081
0.0274315
0.0270914
0.0267815
0.0264971
0.0262343
0.02599
0.0257613
0.0255461
0.0253423
0.0251483
0.0249625
0.0247836
0.0246102
0.0244411
0.024275
0.0241109
0.0239476
0.0237836
0.0236178
0.0234488
0.0232749
0.0230947
0.0229062
0.0227076
0.0224967
0.022271
0.0220285
0.0217648
0.0214797
0.0211651
0.0208253
0.0204465
0.0200409
0.0196
0.0191436
0.018738
0.0183836
0.0770462
0.0530186
0.0380961
0.0351997
0.0345791
0.033127
0.0316763
0.030667
0.0299281
0.0293036
0.0287536
0.0282704
0.027844
0.0274635
0.02712
0.0268072
0.0265202
0.0262551
0.0260086
0.025778
0.0255609
0.0253555
0.0251599
0.0249725
0.0247921
0.0246172
0.0244466
0.0242792
0.0241138
0.023949
0.0237837
0.0236166
0.0234462
0.0232712
0.0230897
0.0229002
0.0227007
0.0224891
0.0222628
0.0220202
0.021757
0.0214729
0.0211606
0.0208235
0.0204511
0.0200521
0.0196253
0.0191847
0.0187946
0.0184572
0.0748537
0.0531106
0.0386269
0.0353817
0.0346875
0.033256
0.031782
0.0307431
0.0299898
0.0293577
0.028801
0.0283118
0.0278805
0.0274959
0.027149
0.0268332
0.0265436
0.0262762
0.0260275
0.0257949
0.0255761
0.0253689
0.0251716
0.0249827
0.0248008
0.0246244
0.0244524
0.0242835
0.0241167
0.0239505
0.0237839
0.0236154
0.0234437
0.0232674
0.0230848
0.0228942
0.0226936
0.0224813
0.0222546
0.0220119
0.0217492
0.021466
0.0211563
0.0208221
0.0204562
0.0200644
0.0196511
0.0192265
0.01885
0.0185272
0.0727407
0.0531244
0.0391316
0.0355633
0.0347865
0.03338
0.0318886
0.0308201
0.0300517
0.0294121
0.0288489
0.0283536
0.0279173
0.0275287
0.0271784
0.0268597
0.0265674
0.0262976
0.0260468
0.0258122
0.0255915
0.0253826
0.0251837
0.0249932
0.0248096
0.0246318
0.0244583
0.024288
0.0241197
0.0239521
0.0237841
0.0236143
0.0234413
0.0232636
0.0230798
0.0228881
0.0226867
0.0224736
0.0222465
0.0220037
0.0217416
0.0214595
0.0211524
0.0208215
0.020462
0.020078
0.0196773
0.0192687
0.0189044
0.0185938
0.0707081
0.053063
0.0396072
0.0357455
0.0348764
0.0334982
0.0319955
0.0308982
0.0301138
0.0294667
0.0288972
0.028396
0.0279547
0.027562
0.0272082
0.0268865
0.0265916
0.0263194
0.0260664
0.0258298
0.0256072
0.0253965
0.0251959
0.0250038
0.0248187
0.0246394
0.0244644
0.0242926
0.0241229
0.0239539
0.0237845
0.0236133
0.0234389
0.02326
0.023075
0.0228823
0.0226799
0.0224662
0.0222387
0.0219959
0.0217345
0.0214536
0.0211492
0.0208218
0.0204688
0.020093
0.0197043
0.019311
0.0189581
0.0186579
0.0687562
0.0529301
0.0400506
0.0359286
0.0349577
0.0336094
0.0321023
0.0309771
0.0301759
0.0295213
0.0289458
0.0284387
0.0279924
0.0275956
0.0272384
0.0269137
0.0266161
0.0263415
0.0260863
0.0258477
0.0256232
0.0254107
0.0252084
0.0250147
0.024828
0.0246471
0.0244707
0.0242974
0.0241262
0.0239558
0.023785
0.0236124
0.0234368
0.0232566
0.0230704
0.0228766
0.0226733
0.022459
0.0222312
0.0219885
0.0217279
0.0214484
0.0211469
0.0208233
0.0204766
0.0201093
0.019732
0.0193533
0.0190111
0.0187198
0.0668849
0.05273
0.0404591
0.0361127
0.0350312
0.0337131
0.0322082
0.0310569
0.0302381
0.0295759
0.0289947
0.0284819
0.0280306
0.0276297
0.027269
0.0269413
0.026641
0.0263639
0.0261066
0.0258659
0.0256395
0.0254252
0.0252212
0.0250258
0.0248376
0.0246551
0.0244771
0.0243024
0.0241298
0.0239579
0.0237857
0.0236117
0.0234348
0.0232534
0.023066
0.0228712
0.0226671
0.0224522
0.0222242
0.0219816
0.021722
0.021444
0.0211454
0.0208259
0.0204856
0.0201268
0.0197605
0.0193956
0.0190638
0.0187803
0.0650938
0.0524672
0.04083
0.0362975
0.0350977
0.0338084
0.0323126
0.0311375
0.0303003
0.0296303
0.0290438
0.0285254
0.0280691
0.0276641
0.0273
0.0269692
0.0266662
0.0263867
0.0261271
0.0258844
0.0256561
0.02544
0.0252342
0.0250372
0.0248473
0.0246633
0.0244838
0.0243076
0.0241334
0.0239602
0.0237865
0.0236112
0.023433
0.0232503
0.0230619
0.0228661
0.0226612
0.0224457
0.0222176
0.0219754
0.0217167
0.0214405
0.0211449
0.0208296
0.0204958
0.0201456
0.0197899
0.0194379
0.019116
0.0188396
0.0633819
0.0521465
0.041161
0.0364822
0.0351582
0.033895
0.0324146
0.0312187
0.0303626
0.0296845
0.0290929
0.0285693
0.028108
0.0276988
0.0273313
0.0269975
0.0266918
0.0264098
0.026148
0.0259032
0.0256729
0.025455
0.0252475
0.0250487
0.0248573
0.0246717
0.0244906
0.0243129
0.0241373
0.0239626
0.0237876
0.0236109
0.0234314
0.0232475
0.023058
0.0228613
0.0226557
0.0224398
0.0222116
0.0219697
0.0217122
0.0214379
0.0211455
0.0208347
0.0205072
0.0201656
0.01982
0.0194802
0.019168
0.0188982
0.061748
0.0517733
0.0414501
0.0366659
0.0352137
0.0339725
0.0325133
0.0313002
0.030425
0.0297383
0.029142
0.0286133
0.0281471
0.0277338
0.0273629
0.0270261
0.0267177
0.0264332
0.0261691
0.0259222
0.02569
0.0254702
0.025261
0.0250605
0.0248674
0.0246803
0.0244977
0.0243185
0.0241414
0.0239653
0.0237888
0.0236108
0.02343
0.023245
0.0230544
0.0228568
0.0226506
0.0224343
0.0222061
0.0219648
0.0217085
0.0214363
0.0211471
0.0208409
0.0205197
0.0201867
0.019851
0.0195226
0.0192198
0.0189562
0.0601904
0.0513529
0.0416957
0.036847
0.0352651
0.0340408
0.0326079
0.0313817
0.0304875
0.0297918
0.0291909
0.0286576
0.0281866
0.0277692
0.0273947
0.0270549
0.0267438
0.026457
0.0261906
0.0259416
0.0257074
0.0254857
0.0252747
0.0250726
0.0248778
0.0246891
0.0245049
0.0243242
0.0241457
0.0239681
0.0237903
0.023611
0.0234289
0.0232427
0.0230511
0.0228527
0.0226458
0.0224292
0.0222013
0.0219606
0.0217056
0.0214356
0.0211497
0.0208483
0.0205336
0.0202088
0.0198828
0.0195651
0.0192713
0.0190139
0.0587073
0.050891
0.0418964
0.0370236
0.0353135
0.0340999
0.0326975
0.0314627
0.0305499
0.0298448
0.0292395
0.0287019
0.0282262
0.0278047
0.0274269
0.0270841
0.0267703
0.026481
0.0262123
0.0259612
0.025725
0.0255015
0.0252887
0.0250849
0.0248885
0.0246981
0.0245124
0.0243302
0.0241502
0.0239712
0.023792
0.0236114
0.023428
0.0232408
0.0230482
0.0228489
0.0226416
0.0224248
0.022197
0.0219571
0.0217036
0.0214359
0.0211535
0.0208569
0.0205486
0.020232
0.0199153
0.0196078
0.0193227
0.0190713
0.0572963
0.0503934
0.0420514
0.0371935
0.0353598
0.0341503
0.0327813
0.0315429
0.0306124
0.0298972
0.0292877
0.0287461
0.0282661
0.0278405
0.0274592
0.0271135
0.026797
0.0265052
0.0262343
0.0259811
0.0257429
0.0255176
0.025303
0.0250974
0.0248993
0.0247074
0.0245201
0.0243364
0.0241549
0.0239745
0.0237939
0.023612
0.0234275
0.0232391
0.0230456
0.0228456
0.0226378
0.0224209
0.0221934
0.0219543
0.0217025
0.0214372
0.0211584
0.0208668
0.0205648
0.0202563
0.0199486
0.0196507
0.019374
0.0191285
0.055955
0.0498655
0.0421606
0.0373544
0.0354046
0.0341922
0.0328586
0.0316215
0.0306747
0.0299491
0.0293354
0.0287902
0.028306
0.0278764
0.0274918
0.0271431
0.026824
0.0265297
0.0262566
0.0260012
0.0257611
0.0255338
0.0253174
0.0251102
0.0249104
0.0247169
0.0245281
0.0243428
0.0241598
0.023978
0.0237961
0.0236129
0.0234272
0.0232378
0.0230434
0.0228428
0.0226346
0.0224176
0.0221905
0.0219524
0.0217023
0.0214396
0.0211645
0.0208778
0.0205822
0.0202815
0.0199826
0.0196938
0.0194253
0.0191856
0.0546806
0.0493132
0.0422242
0.0375037
0.0354487
0.0342264
0.0329286
0.031698
0.0307368
0.0300004
0.0293824
0.0288341
0.0283459
0.0279124
0.0275244
0.0271729
0.0268512
0.0265545
0.0262791
0.0260216
0.0257795
0.0255504
0.0253322
0.0251232
0.0249218
0.0247266
0.0245362
0.0243494
0.024165
0.0239818
0.0237985
0.0236141
0.0234273
0.0232369
0.0230416
0.0228404
0.0226318
0.0224149
0.0221884
0.0219513
0.021703
0.021443
0.0211717
0.0208901
0.0206007
0.0203077
0.0200173
0.0197373
0.0194765
0.0192427
0.0534704
0.0487416
0.0422429
0.0376387
0.0354921
0.0342536
0.0329909
0.0317716
0.0307985
0.0300511
0.0294287
0.0288775
0.0283858
0.0279485
0.0275572
0.0272028
0.0268786
0.0265795
0.0263018
0.0260423
0.0257982
0.0255671
0.0253471
0.0251364
0.0249334
0.0247365
0.0245446
0.0243563
0.0241705
0.0239859
0.0238013
0.0236156
0.0234277
0.0232363
0.0230403
0.0228385
0.0226297
0.0224129
0.022187
0.0219511
0.0217047
0.0214475
0.0211801
0.0209035
0.0206204
0.0203349
0.0200527
0.019781
0.0195278
0.0192997
0.0523214
0.0481558
0.0422181
0.0377571
0.0355347
0.0342745
0.0330452
0.0318417
0.0308594
0.0301012
0.0294741
0.0289204
0.0284255
0.0279846
0.0275901
0.0272329
0.0269061
0.0266046
0.0263247
0.0260631
0.025817
0.0255841
0.0253623
0.0251499
0.0249452
0.0247467
0.0245533
0.0243635
0.0241762
0.0239902
0.0238043
0.0236175
0.0234284
0.0232361
0.0230394
0.0228371
0.0226282
0.0224115
0.0221863
0.0219518
0.0217074
0.0214532
0.0211896
0.0209181
0.0206412
0.0203629
0.0200887
0.019825
0.0195791
0.0193567
0.0512305
0.0475605
0.0421517
0.0378567
0.0355761
0.0342899
0.0330913
0.0319075
0.0309192
0.0301505
0.0295186
0.0289627
0.0284649
0.0280207
0.0276229
0.027263
0.0269337
0.0266299
0.0263478
0.0260841
0.0258361
0.0256013
0.0253777
0.0251636
0.0249572
0.0247572
0.0245622
0.0243709
0.0241822
0.0239948
0.0238077
0.0236197
0.0234296
0.0232364
0.023039
0.0228363
0.0226273
0.0224109
0.0221865
0.0219534
0.0217112
0.0214599
0.0212003
0.0209339
0.0206632
0.0203919
0.0201254
0.0198694
0.0196305
0.0194136
0.0501946
0.0469597
0.0420459
0.0379356
0.0356153
0.0343006
0.0331293
0.0319683
0.0309775
0.030199
0.029562
0.0290041
0.0285039
0.0280566
0.0276558
0.0272931
0.0269614
0.0266553
0.0263711
0.0261054
0.0258554
0.0256187
0.0253934
0.0251775
0.0249695
0.0247679
0.0245713
0.0243786
0.0241884
0.0239998
0.0238114
0.0236222
0.0234312
0.0232371
0.0230391
0.0228361
0.022627
0.0224111
0.0221876
0.021956
0.021716
0.0214678
0.0212122
0.0209508
0.0206861
0.0204218
0.0201627
0.0199141
0.0196819
0.0194706
0.0492108
0.0463572
0.0419035
0.0379924
0.0356514
0.0343072
0.0331593
0.0320234
0.0310338
0.0302466
0.0296044
0.0290446
0.0285424
0.0280922
0.0276885
0.0273232
0.0269891
0.0266809
0.0263945
0.0261267
0.0258748
0.0256364
0.0254092
0.0251917
0.024982
0.0247788
0.0245807
0.0243865
0.024195
0.024005
0.0238154
0.0236252
0.0234331
0.0232384
0.0230398
0.0228365
0.0226275
0.0224121
0.0221895
0.0219595
0.0217218
0.0214768
0.0212253
0.0209689
0.0207102
0.0204526
0.0202006
0.0199592
0.0197335
0.0195276
0.0482759
0.0457564
0.0417276
0.0380257
0.0356829
0.0343102
0.0331816
0.0320725
0.0310875
0.0302931
0.0296456
0.029084
0.0285802
0.0281275
0.027721
0.0273532
0.0270168
0.0267064
0.026418
0.0261482
0.0258944
0.0256541
0.0254253
0.025206
0.0249947
0.02479
0.0245904
0.0243948
0.0242019
0.0240106
0.0238198
0.0236285
0.0234356
0.0232401
0.023041
0.0228375
0.0226287
0.0224138
0.0221924
0.021964
0.0217288
0.0214869
0.0212395
0.0209881
0.0207352
0.0204842
0.0202391
0.0200045
0.0197852
0.0195846
0.047387
0.0451599
0.0415213
0.0380349
0.0357084
0.0343099
0.0331967
0.032115
0.0311382
0.0303384
0.0296857
0.0291222
0.0286172
0.0281624
0.0277533
0.027383
0.0270444
0.026732
0.0264415
0.0261698
0.0259142
0.0256721
0.0254415
0.0252206
0.0250077
0.0248014
0.0246003
0.0244033
0.0242091
0.0240165
0.0238246
0.0236323
0.0234385
0.0232423
0.0230429
0.0228392
0.0226306
0.0224164
0.0221962
0.0219696
0.0217368
0.0214982
0.0212548
0.0210084
0.0207612
0.0205165
0.0202782
0.0200502
0.0198369
0.0196416
0.0465412
0.0445702
0.041288
0.0380195
0.0357262
0.0343064
0.0332051
0.0321506
0.0311852
0.030382
0.0297244
0.0291591
0.0286533
0.0281967
0.0277853
0.0274127
0.027072
0.0267575
0.0264651
0.0261915
0.025934
0.0256902
0.0254579
0.0252354
0.0250209
0.0248131
0.0246106
0.0244121
0.0242166
0.0240228
0.0238298
0.0236365
0.0234419
0.0232452
0.0230453
0.0228416
0.0226333
0.0224199
0.0222009
0.0219762
0.0217459
0.0215106
0.0212714
0.0210298
0.0207883
0.0205497
0.0203178
0.0200962
0.0198888
0.0196986
0.0457359
0.0439891
0.0410313
0.0379798
0.0357349
0.0342997
0.0332072
0.0321792
0.031228
0.0304238
0.0297618
0.0291947
0.0286882
0.0282303
0.0278168
0.027442
0.0270993
0.0267829
0.0264886
0.0262133
0.025954
0.0257084
0.0254745
0.0252503
0.0250343
0.024825
0.024621
0.0244212
0.0242244
0.0240295
0.0238354
0.0236412
0.0234459
0.0232486
0.0230485
0.0228448
0.0226369
0.0224243
0.0222067
0.0219839
0.0217562
0.0215242
0.021289
0.0210523
0.0208162
0.0205837
0.0203579
0.0201425
0.0199408
0.0197555
0.0449685
0.0434182
0.0407543
0.037916
0.035733
0.0342894
0.0332036
0.0322007
0.031266
0.0304632
0.0297976
0.0292288
0.0287219
0.0282631
0.0278478
0.027471
0.0271263
0.0268082
0.0265121
0.026235
0.025974
0.0257268
0.0254912
0.0252654
0.0250479
0.0248371
0.0246318
0.0244307
0.0242326
0.0240365
0.0238414
0.0236463
0.0234503
0.0232526
0.0230523
0.0228487
0.0226413
0.0224296
0.0222134
0.0219926
0.0217676
0.0215389
0.0213078
0.0210758
0.0208451
0.0206183
0.0203986
0.020189
0.0199928
0.0198124
0.0442364
0.0428587
0.0404604
0.037829
0.0357192
0.034275
0.0331947
0.0322153
0.0312989
0.0305
0.0298318
0.0292613
0.0287542
0.0282949
0.0278782
0.0274996
0.0271531
0.0268332
0.0265355
0.0262567
0.025994
0.0257452
0.025508
0.0252807
0.0250617
0.0248495
0.0246428
0.0244404
0.0242411
0.024044
0.0238479
0.023652
0.0234554
0.0232572
0.0230568
0.0228534
0.0226465
0.0224358
0.0222211
0.0220024
0.0217801
0.0215548
0.0213277
0.0211003
0.0208748
0.0206537
0.0204397
0.0202357
0.0200448
0.0198691
0.0435375
0.0423114
0.0401524
0.03772
0.0356926
0.0342558
0.0331808
0.0322231
0.0313262
0.0305336
0.0298641
0.0292922
0.0287851
0.0283256
0.0279078
0.0275276
0.0271795
0.026858
0.0265587
0.0262783
0.026014
0.0257636
0.0255249
0.0252962
0.0250757
0.0248621
0.0246541
0.0244504
0.02425
0.0240518
0.0238549
0.0236582
0.023461
0.0232625
0.023062
0.0228589
0.0226527
0.0224431
0.0222299
0.0220133
0.0217937
0.0215718
0.0213486
0.0211259
0.0209054
0.0206897
0.0204812
0.0202827
0.0200968
0.0199256
0.0428696
0.041777
0.0398333
0.0375904
0.0356523
0.0342312
0.0331621
0.0322244
0.0313477
0.0305636
0.0298943
0.0293213
0.0288144
0.0283551
0.0279366
0.027555
0.0272054
0.0268824
0.0265817
0.0262998
0.026034
0.0257821
0.0255419
0.0253117
0.0250899
0.024875
0.0246657
0.0244608
0.0242593
0.0240601
0.0238623
0.0236649
0.0234673
0.0232685
0.023068
0.0228652
0.0226597
0.0224512
0.0222397
0.0220253
0.0218084
0.0215898
0.0213707
0.0211524
0.0209369
0.0207263
0.0205231
0.0203298
0.0201488
0.019982
0.0422308
0.0412558
0.0395055
0.0374417
0.0355979
0.0342003
0.0331387
0.0322194
0.0313632
0.0305896
0.0299221
0.0293486
0.0288419
0.0283831
0.0279643
0.0275817
0.0272308
0.0269065
0.0266044
0.0263211
0.0260539
0.0258005
0.025559
0.0253274
0.0251042
0.024888
0.0246775
0.0244715
0.0242689
0.0240688
0.0238702
0.0236722
0.0234741
0.0232752
0.0230748
0.0228724
0.0226677
0.0224604
0.0222506
0.0220384
0.0218243
0.021609
0.0213937
0.0211798
0.020969
0.0207635
0.0205654
0.0203771
0.0202006
0.020038
0.0416191
0.040748
0.0391712
0.0372756
0.0355292
0.0341622
0.0331104
0.0322084
0.0313725
0.0306113
0.0299471
0.0293738
0.0288676
0.0284096
0.0279909
0.0276076
0.0272556
0.0269301
0.0266267
0.0263421
0.0260736
0.0258189
0.025576
0.0253432
0.0251187
0.0249013
0.0246896
0.0244825
0.024279
0.024078
0.0238786
0.0236801
0.0234816
0.0232826
0.0230823
0.0228804
0.0226766
0.0224706
0.0222626
0.0220526
0.0218412
0.0216293
0.0214178
0.0212081
0.021002
0.0208013
0.020608
0.0204244
0.0202524
0.0200937
0.0410329
0.0402537
0.0388326
0.0370939
0.0354462
0.0341164
0.0330772
0.0321916
0.0313758
0.0306283
0.0299692
0.0293969
0.0288915
0.0284344
0.0280162
0.0276325
0.0272796
0.0269531
0.0266487
0.0263629
0.0260932
0.0258373
0.0255931
0.025359
0.0251333
0.0249147
0.0247019
0.0244938
0.0242894
0.0240876
0.0238876
0.0236885
0.0234898
0.0232907
0.0230907
0.0228894
0.0226865
0.0224819
0.0222756
0.0220679
0.0218593
0.0216506
0.0214428
0.0212373
0.0210356
0.0208395
0.0206509
0.0204718
0.0203039
0.020149
0.0404706
0.0397728
0.0384913
0.0368984
0.0353494
0.0340622
0.0330388
0.0321693
0.0313731
0.0306403
0.0299878
0.0294175
0.0289132
0.0284575
0.0280401
0.0276564
0.0273029
0.0269755
0.0266701
0.0263834
0.0261126
0.0258555
0.0256101
0.0253749
0.0251481
0.0249284
0.0247146
0.0245055
0.0243002
0.0240976
0.023897
0.0236976
0.0234987
0.0232996
0.0230999
0.0228992
0.0226973
0.0224941
0.0222896
0.0220843
0.0218784
0.021673
0.0214688
0.0212673
0.0210699
0.0208782
0.020694
0.0205191
0.0203552
0.0202037
0.0399308
0.0393052
0.0381489
0.0366909
0.0352391
0.0339991
0.0329949
0.0321415
0.0313644
0.0306471
0.0300028
0.0294355
0.0289329
0.0284787
0.0280624
0.0276791
0.0273252
0.0269972
0.026691
0.0264034
0.0261316
0.0258735
0.0256271
0.0253907
0.0251629
0.0249422
0.0247274
0.0245175
0.0243114
0.0241082
0.0239071
0.0237073
0.0235082
0.0233092
0.02311
0.02291
0.0227092
0.0225074
0.0223048
0.0221017
0.0218986
0.0216963
0.0214957
0.0212981
0.0211048
0.0209173
0.0207373
0.0205664
0.0204062
0.020258
0.039412
0.0388506
0.0378066
0.036473
0.0351161
0.0339268
0.0329451
0.0321084
0.0313499
0.0306487
0.0300139
0.0294507
0.0289502
0.0284978
0.028083
0.0277004
0.0273466
0.0270181
0.0267113
0.026423
0.0261503
0.0258913
0.0256439
0.0254066
0.0251778
0.0249562
0.0247405
0.0245298
0.0243229
0.0241192
0.0239176
0.0237176
0.0235185
0.0233197
0.0231209
0.0229217
0.022722
0.0225217
0.022321
0.0221202
0.0219199
0.0217207
0.0215235
0.0213296
0.0211403
0.0209568
0.0207808
0.0206136
0.0204568
0.0203116
0.0389132
0.0384087
0.0374655
0.0362464
0.0349811
0.033845
0.0328891
0.03207
0.0313296
0.0306449
0.0300207
0.0294629
0.0289651
0.0285149
0.0281019
0.0277203
0.0273667
0.0270381
0.0267309
0.026442
0.0261687
0.0259088
0.0256606
0.0254224
0.0251927
0.0249703
0.0247538
0.0245424
0.0243349
0.0241306
0.0239287
0.0237285
0.0235294
0.0233309
0.0231326
0.0229343
0.0227358
0.022537
0.0223383
0.0221398
0.0219421
0.021746
0.0215522
0.0213619
0.0211763
0.0209966
0.0208243
0.0206606
0.020507
0.0203646
0.0384331
0.0379794
0.0371266
0.0360126
0.0348352
0.0337539
0.0328266
0.0320261
0.0313039
0.0306357
0.0300232
0.0294717
0.0289774
0.0285297
0.0281187
0.0277386
0.0273857
0.0270571
0.0267497
0.0264604
0.0261865
0.025926
0.0256771
0.0254381
0.0252077
0.0249845
0.0247674
0.0245553
0.0243473
0.0241426
0.0239404
0.0237401
0.0235411
0.023343
0.0231453
0.0229479
0.0227506
0.0225534
0.0223566
0.0221604
0.0219654
0.0217722
0.0215817
0.0213948
0.0212128
0.0210367
0.0208678
0.0207074
0.0205567
0.0204168
0.0379706
0.0375621
0.0367906
0.0357729
0.0346792
0.0336536
0.0327574
0.0319769
0.0312726
0.0306211
0.030021
0.0294769
0.0289869
0.0285422
0.0281336
0.0277551
0.0274032
0.027075
0.0267676
0.0264781
0.0262039
0.0259429
0.0256934
0.0254538
0.0252227
0.0249988
0.0247811
0.0245684
0.02436
0.024155
0.0239526
0.0237523
0.0235535
0.0233558
0.0231588
0.0229624
0.0227664
0.0225708
0.0223759
0.022182
0.0219896
0.0217993
0.0216119
0.0214284
0.0212497
0.021077
0.0209114
0.020754
0.020606
0.0204682
0.0375249
0.0371567
0.0364583
0.0355285
0.0345142
0.0335443
0.0326813
0.0319221
0.031236
0.0306012
0.0300141
0.0294785
0.0289934
0.0285521
0.0281463
0.0277699
0.0274193
0.0270918
0.0267846
0.026495
0.0262206
0.0259593
0.0257093
0.0254692
0.0252376
0.0250132
0.024795
0.0245819
0.0243731
0.0241679
0.0239654
0.0237652
0.0235667
0.0233695
0.0231732
0.0229778
0.0227831
0.0225892
0.0223963
0.0222046
0.0220147
0.0218272
0.0216429
0.0214625
0.021287
0.0211175
0.0209549
0.0208003
0.0206546
0.0205188
0.0370949
0.0367628
0.03613
0.0352807
0.0343412
0.0334265
0.0325982
0.0318616
0.0311941
0.030576
0.0300024
0.0294761
0.0289969
0.0285595
0.0281567
0.0277827
0.0274338
0.0271072
0.0268005
0.0265111
0.0262367
0.0259752
0.025725
0.0254845
0.0252524
0.0250277
0.024809
0.0245956
0.0243866
0.0241812
0.0239788
0.0237787
0.0235806
0.0233839
0.0231885
0.0229942
0.0228009
0.0226086
0.0224176
0.0222282
0.0220408
0.021856
0.0216746
0.0214972
0.0213247
0.0211582
0.0209984
0.0208463
0.0207027
0.0205685
0.0366799
0.03638
0.0358063
0.0350305
0.0341612
0.0333006
0.0325082
0.0317955
0.0311468
0.0305455
0.0299859
0.0294696
0.028997
0.0285641
0.0281648
0.0277935
0.0274465
0.0271213
0.0268153
0.0265264
0.0262521
0.0259906
0.0257402
0.0254995
0.0252672
0.0250421
0.0248232
0.0246096
0.0244005
0.0241951
0.0239927
0.0237929
0.0235952
0.0233992
0.0232047
0.0230115
0.0228196
0.022629
0.0224399
0.0222527
0.0220677
0.0218856
0.0217069
0.0215324
0.0213628
0.021199
0.0210417
0.0208919
0.0207502
0.0206174
0.0362791
0.036008
0.0354875
0.0347787
0.0339751
0.0331671
0.0324114
0.0317237
0.0310944
0.0305099
0.0299646
0.0294589
0.0289936
0.0285659
0.0281704
0.0278022
0.0274575
0.0271338
0.0268289
0.0265406
0.0262667
0.0260054
0.025755
0.0255143
0.0252818
0.0250566
0.0248375
0.0246238
0.0244147
0.0242093
0.0240072
0.0238077
0.0236105
0.0234153
0.0232217
0.0230297
0.0228392
0.0226503
0.0224632
0.0222781
0.0220955
0.0219159
0.0217399
0.021568
0.0214011
0.0212398
0.021085
0.0209372
0.0207971
0.0206655
0.0358918
0.0356464
0.0351739
0.0345261
0.0337838
0.0330268
0.0323079
0.0316461
0.0310367
0.0304693
0.0299384
0.0294439
0.0289867
0.0285646
0.0281734
0.0278086
0.0274665
0.0271447
0.0268412
0.0265537
0.0262804
0.0260195
0.0257694
0.0255287
0.0252962
0.025071
0.0248519
0.0246383
0.0244292
0.024224
0.0240222
0.0238232
0.0236266
0.0234322
0.0232396
0.0230488
0.0228598
0.0226726
0.0224874
0.0223044
0.0221242
0.021947
0.0217735
0.0216042
0.0214397
0.0212808
0.021128
0.0209821
0.0208434
0.0207127
0.0355172
0.035295
0.0348657
0.0342736
0.0335883
0.0328801
0.0321981
0.0315628
0.0309738
0.0304236
0.0299074
0.0294247
0.028976
0.0285602
0.0281737
0.0278126
0.0274735
0.027154
0.026852
0.0265657
0.0262932
0.0260329
0.0257831
0.0255427
0.0253104
0.0250853
0.0248664
0.0246529
0.024444
0.0242391
0.0240377
0.0238392
0.0236434
0.0234498
0.0232583
0.0230688
0.0228813
0.0226958
0.0225125
0.0223316
0.0221536
0.0219787
0.0218076
0.0216407
0.0214786
0.0213218
0.021171
0.0210266
0.0208892
0.0207591
0.0351549
0.0349534
0.034563
0.0340217
0.0333894
0.0327279
0.0320823
0.031474
0.0309058
0.0303731
0.0298717
0.029401
0.0289616
0.0285526
0.0281713
0.0278143
0.0274784
0.0271614
0.0268614
0.0265765
0.0263051
0.0260455
0.0257963
0.0255563
0.0253244
0.0250995
0.0248809
0.0246677
0.0244591
0.0242546
0.0240537
0.0238559
0.0236608
0.0234682
0.0232779
0.0230897
0.0229037
0.0227199
0.0225385
0.0223596
0.0221838
0.0220112
0.0218423
0.0216776
0.0215177
0.0213629
0.0212138
0.0210708
0.0209343
0.0208047
0.0348042
0.0346214
0.0342661
0.033771
0.0331878
0.0325706
0.0319608
0.0313797
0.0308328
0.0303177
0.0298313
0.029373
0.0289433
0.0285416
0.0281659
0.0278134
0.0274812
0.027167
0.0268691
0.0265859
0.0263158
0.0260572
0.0258088
0.0255695
0.025338
0.0251136
0.0248954
0.0246826
0.0244745
0.0242705
0.0240702
0.0238732
0.023679
0.0234874
0.0232982
0.0231114
0.022927
0.0227449
0.0225653
0.0223885
0.0222147
0.0220442
0.0218775
0.021715
0.021557
0.021404
0.0212565
0.0211147
0.020979
0.0208497
0.0344647
0.0342986
0.033975
0.033522
0.0329842
0.0324091
0.031834
0.0312803
0.0307549
0.0302576
0.0297864
0.0293407
0.0289211
0.0285272
0.0281576
0.0278099