/*--------------------------------*- C++ -*----------------------------------*\
  =========                 |
  \\      /  F ield         | OpenFOAM: The Open Source CFD Toolbox
   \\    /   O peration     | Website:  https://openfoam.org
    \\  /    A nd           | Version:  7
     \\/     M anipulation  |
\*---------------------------------------------------------------------------*/
FoamFile
{
    version     2.0;
    format      ascii;
    class       surfaceScalarField;
    location    "0.03";
    object      phi;
}
// * * * * * * * * * * * * * * * * * * * * * * * * * * * * * * * * * * * * * //

dimensions      [0 3 -1 0 0 0 0];

internalField   nonuniform List<scalar> 
139350
(
6.45919e-08
9.20396e-08
3.19492e-08
3.26427e-08
2.30562e-08
8.89296e-09
1.95595e-08
3.49669e-09
1.76049e-08
1.95466e-09
1.61738e-08
1.43105e-09
1.50367e-08
1.13709e-09
1.4118e-08
9.1869e-10
1.33601e-08
7.57917e-10
1.27198e-08
6.40344e-10
1.21681e-08
5.51647e-10
1.16858e-08
4.82332e-10
1.1259e-08
4.26768e-10
1.08776e-08
3.81417e-10
1.05338e-08
3.43868e-10
1.02214e-08
3.124e-10
9.9356e-09
2.8575e-10
9.67262e-09
2.62978e-10
9.42925e-09
2.43368e-10
9.20289e-09
2.26367e-10
8.99134e-09
2.11543e-10
8.79279e-09
1.98553e-10
8.60567e-09
1.87118e-10
8.42866e-09
1.77013e-10
8.26061e-09
1.68052e-10
8.10053e-09
1.60083e-10
7.94755e-09
1.52972e-10
7.80094e-09
1.46614e-10
7.66003e-09
1.40907e-10
7.52425e-09
1.3578e-10
7.39311e-09
1.3114e-10
7.26616e-09
1.26955e-10
7.14305e-09
1.23108e-10
7.02342e-09
1.19629e-10
6.90709e-09
1.16326e-10
6.79375e-09
1.13345e-10
6.68342e-09
1.10333e-10
6.57577e-09
1.07643e-10
6.47112e-09
1.04651e-10
6.36915e-09
1.01975e-10
6.27038e-09
9.87695e-11
6.17485e-09
9.55294e-11
6.08265e-09
9.21995e-11
5.9959e-09
8.67504e-11
5.91113e-09
8.47644e-11
5.83936e-09
7.17738e-11
5.76064e-09
7.87201e-11
5.73257e-09
2.80712e-11
5.54847e-09
1.84104e-10
-2.72946e-09
8.27793e-09
1.26025e-07
1.27458e-07
9.12596e-08
6.7408e-08
7.19336e-08
2.82189e-08
6.11999e-08
1.42304e-08
5.47453e-08
8.40929e-09
5.02412e-08
5.9351e-09
4.67448e-08
4.6335e-09
4.39145e-08
3.74902e-09
4.15709e-08
3.10156e-09
3.9589e-08
2.62219e-09
3.78817e-08
2.25895e-09
3.63888e-08
1.97523e-09
3.50676e-08
1.74798e-09
3.38865e-08
1.56254e-09
3.28214e-08
1.40898e-09
3.18535e-08
1.28026e-09
3.0968e-08
1.17124e-09
3.01529e-08
1.07806e-09
2.93985e-08
9.97813e-10
2.86966e-08
9.28238e-10
2.80406e-08
8.67571e-10
2.74247e-08
8.14407e-10
2.68442e-08
7.67618e-10
2.6295e-08
7.26286e-10
2.57734e-08
6.89656e-10
2.52763e-08
6.57104e-10
2.48012e-08
6.28104e-10
2.43456e-08
6.02214e-10
2.39075e-08
5.79049e-10
2.3485e-08
5.58293e-10
2.30765e-08
5.39626e-10
2.26806e-08
5.22846e-10
2.22961e-08
5.0761e-10
2.19218e-08
4.93879e-10
2.1557e-08
4.81127e-10
2.12007e-08
4.69651e-10
2.08526e-08
4.58427e-10
2.05118e-08
4.48478e-10
2.01788e-08
4.37678e-10
1.98522e-08
4.28504e-10
1.95342e-08
4.16773e-10
1.92224e-08
4.0732e-10
1.89215e-08
3.93114e-10
1.86273e-08
3.81012e-10
1.83485e-08
3.63547e-10
1.80798e-08
3.40425e-10
1.78285e-08
3.30012e-10
1.76377e-08
2.18946e-10
1.73195e-08
5.023e-10
-3.25072e-09
1.78407e-08
1.58807e-07
1.35055e-07
1.36491e-07
8.97237e-08
1.17483e-07
4.72263e-08
1.03296e-07
2.84175e-08
9.3277e-08
1.84286e-08
8.59594e-08
1.32526e-08
8.02345e-08
1.03584e-08
7.55606e-08
8.42295e-09
7.16552e-08
7.00694e-09
6.83312e-08
5.94618e-09
6.54552e-08
5.13497e-09
6.29322e-08
4.49825e-09
6.06935e-08
3.98669e-09
5.86878e-08
3.56818e-09
5.6876e-08
3.22084e-09
5.52271e-08
2.92912e-09
5.37168e-08
2.68161e-09
5.23251e-08
2.46977e-09
5.10358e-08
2.2871e-09
4.98355e-08
2.12855e-09
4.87129e-08
1.99016e-09
4.76585e-08
1.86878e-09
4.66642e-08
1.76189e-09
4.57231e-08
1.6674e-09
4.48291e-08
1.58364e-09
4.39771e-08
1.50919e-09
4.31623e-08
1.44287e-09
4.23808e-08
1.3837e-09
4.1629e-08
1.33081e-09
4.09039e-08
1.28347e-09
4.02025e-08
1.24103e-09
3.95223e-08
1.20296e-09
3.88613e-08
1.16861e-09
3.82175e-08
1.13775e-09
3.75891e-08
1.10946e-09
3.69747e-08
1.08408e-09
3.63733e-08
1.05979e-09
3.57834e-08
1.0384e-09
3.52054e-08
1.01568e-09
3.4637e-08
9.96962e-10
3.40812e-08
9.72502e-10
3.35333e-08
9.55291e-10
3.30023e-08
9.24063e-10
3.24764e-08
9.06957e-10
3.19783e-08
8.61575e-10
3.14814e-08
8.37368e-10
3.10282e-08
7.83182e-10
3.06144e-08
6.32782e-10
3.02039e-08
9.12748e-10
-2.73776e-09
2.9691e-08
1.75664e-07
1.30908e-07
1.65592e-07
9.97952e-08
1.52715e-07
6.01031e-08
1.40107e-07
4.10264e-08
1.29403e-07
2.91319e-08
1.20742e-07
2.19141e-08
1.13607e-07
1.74934e-08
1.07598e-07
1.44318e-08
1.02464e-07
1.2141e-08
9.80217e-08
1.03882e-08
9.41318e-08
9.02491e-09
9.0688e-08
7.94206e-09
8.76102e-08
7.06448e-09
8.48368e-08
6.34159e-09
8.23193e-08
5.73826e-09
8.00193e-08
5.22914e-09
7.79055e-08
4.79545e-09
7.59523e-08
4.42299e-09
7.41385e-08
4.10086e-09
7.24465e-08
3.82053e-09
7.08614e-08
3.5753e-09
6.93704e-08
3.35978e-09
6.79626e-08
3.16963e-09
6.66287e-08
3.0013e-09
6.53605e-08
2.85186e-09
6.41508e-08
2.71889e-09
6.29933e-08
2.60035e-09
6.18825e-08
2.4945e-09
6.08134e-08
2.3999e-09
5.97816e-08
2.31525e-09
5.87832e-08
2.23943e-09
5.78147e-08
2.1715e-09
5.68729e-08
2.11043e-09
5.5955e-08
2.05568e-09
5.50585e-08
2.00589e-09
5.41812e-08
1.9614e-09
5.33216e-08
1.91944e-09
5.24773e-08
1.88271e-09
5.16484e-08
1.84452e-09
5.08318e-08
1.81355e-09
5.0031e-08
1.77332e-09
4.92393e-08
1.74697e-09
4.84682e-08
1.69517e-09
4.77016e-08
1.6736e-09
4.69687e-08
1.59443e-09
4.62339e-08
1.57217e-09
4.55534e-08
1.46375e-09
4.49e-08
1.28619e-09
4.43302e-08
1.48252e-09
-1.80956e-09
4.3402e-08
1.8456e-07
1.23133e-07
1.82319e-07
1.02036e-07
1.76097e-07
6.63257e-08
1.67745e-07
4.93777e-08
1.59109e-07
3.77683e-08
1.51181e-07
2.9842e-08
1.44084e-07
2.45905e-08
1.37754e-07
2.07619e-08
1.32116e-07
1.77786e-08
1.27087e-07
1.54176e-08
1.22579e-07
1.35324e-08
1.18517e-07
1.20046e-08
1.14834e-07
1.07471e-08
1.11477e-07
9.69831e-09
1.08402e-07
8.81399e-09
1.05569e-07
8.06141e-09
1.02949e-07
7.41572e-09
1.00514e-07
6.85779e-09
9.82425e-08
6.37268e-09
9.61144e-08
5.9486e-09
9.41136e-08
5.5761e-09
9.22258e-08
5.24755e-09
9.04387e-08
4.95675e-09
8.87415e-08
4.69857e-09
8.71245e-08
4.4688e-09
8.55795e-08
4.26389e-09
8.4099e-08
4.08087e-09
8.26763e-08
3.91719e-09
8.13055e-08
3.77072e-09
7.99812e-08
3.63953e-09
7.86986e-08
3.52202e-09
7.74534e-08
3.41673e-09
7.62416e-08
3.32223e-09
7.50596e-08
3.23762e-09
7.39045e-08
3.16105e-09
7.27731e-08
3.0928e-09
7.16633e-08
3.02918e-09
7.05724e-08
2.97366e-09
6.94998e-08
2.9171e-09
6.84419e-08
2.87148e-09
6.74017e-08
2.81352e-09
6.63722e-08
2.7765e-09
6.53644e-08
2.70295e-09
6.43622e-08
2.67573e-09
6.33936e-08
2.56304e-09
6.24268e-08
2.53905e-09
6.15097e-08
2.38081e-09
6.06249e-08
2.17099e-09
5.98327e-08
2.27468e-09
-6.58277e-10
5.86814e-08
1.90388e-07
1.14962e-07
1.9185e-07
1.00574e-07
1.90239e-07
6.79366e-08
1.86143e-07
5.34745e-08
1.80693e-07
4.32179e-08
1.74922e-07
3.56129e-08
1.69203e-07
3.03098e-08
1.6369e-07
2.6275e-08
1.58478e-07
2.29901e-08
1.5361e-07
2.0286e-08
1.49087e-07
1.80554e-08
1.44892e-07
1.61993e-08
1.41001e-07
1.46381e-08
1.37387e-07
1.33124e-08
1.34023e-07
1.21778e-08
1.30885e-07
1.11998e-08
1.27949e-07
1.03517e-08
1.25195e-07
9.61202e-09
1.22604e-07
8.9637e-09
1.20159e-07
8.39295e-09
1.17847e-07
7.88851e-09
1.15653e-07
7.44116e-09
1.13567e-07
7.04327e-09
1.11577e-07
6.68848e-09
1.09674e-07
6.37149e-09
1.0785e-07
6.0878e-09
1.06098e-07
5.83364e-09
1.04409e-07
5.6057e-09
1.02778e-07
5.40127e-09
1.012e-07
5.21781e-09
9.96689e-08
5.05326e-09
9.818e-08
4.90567e-09
9.6729e-08
4.77324e-09
9.53119e-08
4.65467e-09
9.39253e-08
4.54768e-09
9.25656e-08
4.45244e-09
9.12304e-08
4.3644e-09
8.99164e-08
4.28765e-09
8.86226e-08
4.21092e-09
8.73452e-08
4.14888e-09
8.60863e-08
4.07247e-09
8.48395e-08
4.02329e-09
8.36135e-08
3.92895e-09
8.23957e-08
3.89346e-09
8.12065e-08
3.75225e-09
8.00273e-08
3.71825e-09
7.88842e-08
3.52395e-09
7.77868e-08
3.26834e-09
7.67642e-08
3.29728e-09
6.9484e-10
7.54111e-08
1.9554e-07
1.07236e-07
1.98246e-07
9.78678e-08
1.98965e-07
6.72176e-08
1.9778e-07
5.46596e-08
1.9514e-07
4.58581e-08
1.91785e-07
3.89676e-08
1.88035e-07
3.40603e-08
1.84059e-07
3.02507e-08
1.80007e-07
2.70425e-08
1.75987e-07
2.43057e-08
1.72067e-07
2.19751e-08
1.68286e-07
1.99809e-08
1.64662e-07
1.82621e-08
1.61203e-07
1.67712e-08
1.57909e-07
1.54714e-08
1.54776e-07
1.4333e-08
1.51796e-07
1.33319e-08
1.4896e-07
1.2448e-08
1.46258e-07
1.1665e-08
1.43682e-07
1.09692e-08
1.41222e-07
1.03491e-08
1.38868e-07
9.79504e-09
1.36612e-07
9.29898e-09
1.34446e-07
8.85401e-09
1.32364e-07
8.45431e-09
1.30357e-07
8.09487e-09
1.28419e-07
7.77144e-09
1.26544e-07
7.48027e-09
1.24727e-07
7.21823e-09
1.22963e-07
6.98241e-09
1.21246e-07
6.77037e-09
1.19571e-07
6.57984e-09
1.17936e-07
6.4087e-09
1.16335e-07
6.25536e-09
1.14766e-07
6.11719e-09
1.13224e-07
5.99419e-09
1.11707e-07
5.88121e-09
1.10212e-07
5.78266e-09
1.08737e-07
5.68572e-09
1.07279e-07
5.60682e-09
1.05839e-07
5.51283e-09
1.04412e-07
5.45072e-09
1.03002e-07
5.33843e-09
1.01604e-07
5.29185e-09
1.00226e-07
5.12974e-09
9.88675e-08
5.07699e-09
9.75296e-08
4.86185e-09
9.62457e-08
4.55224e-09
9.50232e-08
4.51983e-09
2.2335e-09
9.34845e-08
2.00848e-07
9.9973e-08
2.03774e-07
9.4941e-08
2.05324e-07
6.56682e-08
2.05636e-07
5.43472e-08
2.04804e-07
4.66904e-08
2.03313e-07
4.04582e-08
2.01351e-07
3.6022e-08
1.99002e-07
3.26003e-08
1.96369e-07
2.96754e-08
1.93555e-07
2.71201e-08
1.90638e-07
2.48911e-08
1.8768e-07
2.29392e-08
1.84723e-07
2.1219e-08
1.81799e-07
1.96958e-08
1.78928e-07
1.83423e-08
1.76124e-07
1.71364e-08
1.73397e-07
1.60593e-08
1.7075e-07
1.50952e-08
1.68184e-07
1.42305e-08
1.657e-07
1.34534e-08
1.63295e-07
1.27539e-08
1.60967e-07
1.21233e-08
1.58712e-07
1.15541e-08
1.56526e-07
1.10398e-08
1.54406e-07
1.05747e-08
1.52347e-07
1.0154e-08
1.50345e-07
9.77337e-09
1.48396e-07
9.42904e-09
1.46496e-07
9.11782e-09
1.44642e-07
8.83668e-09
1.42829e-07
8.5831e-09
1.41055e-07
8.35465e-09
1.39314e-07
8.14907e-09
1.37605e-07
7.96461e-09
1.35924e-07
7.79847e-09
1.34267e-07
7.6505e-09
1.32633e-07
7.5152e-09
1.31019e-07
7.39706e-09
1.29422e-07
7.28235e-09
1.27841e-07
7.18831e-09
1.26274e-07
7.07961e-09
1.24719e-07
7.00542e-09
1.23178e-07
6.87967e-09
1.21649e-07
6.82064e-09
1.20133e-07
6.64599e-09
1.18641e-07
6.56906e-09
1.17158e-07
6.34503e-09
1.15727e-07
5.98361e-09
1.14351e-07
5.89565e-09
3.9122e-09
1.12672e-07
2.06447e-07
9.30585e-08
2.09338e-07
9.20496e-08
2.11034e-07
6.39727e-08
2.11925e-07
5.34561e-08
2.11989e-07
4.66257e-08
2.11596e-07
4.08512e-08
2.10857e-07
3.67616e-08
2.09772e-07
3.36848e-08
2.08379e-07
3.10684e-08
2.06735e-07
2.87644e-08
2.04894e-07
2.67317e-08
2.02906e-07
2.49279e-08
2.0081e-07
2.33143e-08
1.98643e-07
2.18628e-08
1.96433e-07
2.05527e-08
1.94202e-07
1.93676e-08
1.91967e-07
1.82939e-08
1.89743e-07
1.73199e-08
1.87538e-07
1.64353e-08
1.8536e-07
1.56314e-08
1.83214e-07
1.49001e-08
1.81102e-07
1.42345e-08
1.79028e-07
1.36285e-08
1.76991e-07
1.30765e-08
1.74992e-07
1.25738e-08
1.7303e-07
1.21159e-08
1.71104e-07
1.16992e-08
1.69213e-07
1.13201e-08
1.67355e-07
1.09759e-08
1.65528e-07
1.06635e-08
1.63731e-07
1.03808e-08
1.6196e-07
1.01253e-08
1.60214e-07
9.89498e-09
1.58491e-07
9.68795e-09
1.56788e-07
9.50147e-09
1.55103e-07
9.33534e-09
1.53434e-07
9.18392e-09
1.51779e-07
9.05169e-09
1.50137e-07
8.92457e-09
1.48506e-07
8.8198e-09
1.46884e-07
8.70157e-09
1.45271e-07
8.61846e-09
1.43665e-07
8.48531e-09
1.42071e-07
8.41502e-09
1.40481e-07
8.23618e-09
1.38915e-07
8.13443e-09
1.3735e-07
7.90995e-09
1.35827e-07
7.50726e-09
1.34355e-07
7.3677e-09
5.66767e-09
1.32599e-07
2.12288e-07
8.64324e-08
2.15151e-07
8.91873e-08
2.16788e-07
6.23357e-08
2.17837e-07
5.24069e-08
2.18248e-07
4.62143e-08
2.18359e-07
4.07404e-08
2.18276e-07
3.6845e-08
2.17966e-07
3.39946e-08
2.17422e-07
3.16128e-08
2.1666e-07
2.95257e-08
2.15705e-07
2.76867e-08
2.14581e-07
2.60523e-08
2.13312e-07
2.45833e-08
2.11923e-07
2.32519e-08
2.10436e-07
2.20394e-08
2.08872e-07
2.09318e-08
2.07248e-07
1.9918e-08
2.05579e-07
1.89889e-08
2.03877e-07
1.81367e-08
2.02154e-07
1.73546e-08
2.00417e-07
1.66366e-08
1.98674e-07
1.59776e-08
1.9693e-07
1.53727e-08
1.95189e-07
1.48176e-08
1.93455e-07
1.43085e-08
1.91729e-07
1.38419e-08
1.90013e-07
1.34147e-08
1.88309e-07
1.30241e-08
1.86617e-07
1.26677e-08
1.84938e-07
1.2343e-08
1.8327e-07
1.20481e-08
1.81615e-07
1.1781e-08
1.7997e-07
1.15396e-08
1.78335e-07
1.13225e-08
1.7671e-07
1.1127e-08
1.75092e-07
1.09529e-08
1.73482e-07
1.07948e-08
1.71876e-07
1.06569e-08
1.70276e-07
1.05254e-08
1.68678e-07
1.04169e-08
1.67084e-07
1.02964e-08
1.65492e-07
1.021e-08
1.63901e-07
1.00768e-08
1.62316e-07
9.99926e-09
1.60728e-07
9.82448e-09
1.59161e-07
9.70178e-09
1.57587e-07
9.48331e-09
1.5604e-07
9.0548e-09
1.54538e-07
8.86931e-09
7.42804e-09
1.52778e-07
2.1833e-07
8.00835e-08
2.21204e-07
8.63125e-08
2.2276e-07
6.07798e-08
2.23836e-07
5.13309e-08
2.24357e-07
4.56934e-08
2.24646e-07
4.04515e-08
2.2484e-07
3.66513e-08
2.2491e-07
3.39242e-08
2.24835e-07
3.16884e-08
2.24613e-07
2.97478e-08
2.24248e-07
2.80513e-08
2.23746e-07
2.65539e-08
2.23116e-07
2.52136e-08
2.22367e-07
2.40007e-08
2.21512e-07
2.28948e-08
2.20562e-07
2.18819e-08
2.19529e-07
2.0951e-08
2.18424e-07
2.00937e-08
2.17258e-07
1.9303e-08
2.16039e-07
1.85732e-08
2.14777e-07
1.78993e-08
2.13477e-07
1.7277e-08
2.12147e-07
1.67026e-08
2.10792e-07
1.61727e-08
2.09416e-07
1.56843e-08
2.08024e-07
1.52344e-08
2.06618e-07
1.48207e-08
2.05201e-07
1.4441e-08
2.03775e-07
1.40932e-08
2.02343e-07
1.37755e-08
2.00905e-07
1.34863e-08
1.99462e-07
1.32239e-08
1.98015e-07
1.29868e-08
1.96563e-07
1.27736e-08
1.95109e-07
1.25819e-08
1.9365e-07
1.24118e-08
1.92186e-07
1.2258e-08
1.90719e-07
1.21246e-08
1.89246e-07
1.19982e-08
1.87768e-07
1.18946e-08
1.86284e-07
1.17804e-08
1.84796e-07
1.16978e-08
1.833e-07
1.15729e-08
1.81806e-07
1.14941e-08
1.80299e-07
1.13314e-08
1.78806e-07
1.11949e-08
1.77301e-07
1.09879e-08
1.75804e-07
1.05512e-08
1.74346e-07
1.03282e-08
9.11833e-09
1.72655e-07
2.24558e-07
7.40184e-08
2.27469e-07
8.34023e-08
2.28957e-07
5.92914e-08
2.30038e-07
5.02498e-08
2.306e-07
4.51314e-08
2.30938e-07
4.01139e-08
2.31221e-07
3.63678e-08
2.3144e-07
3.3705e-08
2.31575e-07
3.15538e-08
2.31623e-07
2.97002e-08
2.31582e-07
2.80915e-08
2.31452e-07
2.6684e-08
2.31231e-07
2.54347e-08
2.3092e-07
2.43115e-08
2.30523e-07
2.32925e-08
2.30042e-07
2.23624e-08
2.29484e-07
2.15094e-08
2.28853e-07
2.07246e-08
2.28155e-07
2.00007e-08
2.27396e-07
1.9332e-08
2.26582e-07
1.87138e-08
2.25717e-07
1.8142e-08
2.24806e-07
1.76132e-08
2.23855e-07
1.71245e-08
2.22866e-07
1.66731e-08
2.21844e-07
1.62566e-08
2.20791e-07
1.58731e-08
2.19712e-07
1.55204e-08
2.18608e-07
1.51972e-08
2.17482e-07
1.49018e-08
2.16335e-07
1.46329e-08
2.1517e-07
1.43892e-08
2.13987e-07
1.41694e-08
2.12788e-07
1.39726e-08
2.11573e-07
1.37965e-08
2.10344e-07
1.36414e-08
2.091e-07
1.35021e-08
2.07842e-07
1.33829e-08
2.06569e-07
1.32708e-08
2.05283e-07
1.31805e-08
2.03983e-07
1.30809e-08
2.02671e-07
1.30094e-08
2.01343e-07
1.29007e-08
2.0001e-07
1.28273e-08
1.98657e-07
1.26839e-08
1.9731e-07
1.25425e-08
1.95946e-07
1.23516e-08
1.94573e-07
1.19241e-08
1.93227e-07
1.16742e-08
1.06676e-08
1.91678e-07
2.30979e-07
6.82452e-08
2.33933e-07
8.04482e-08
2.35362e-07
5.78622e-08
2.36449e-07
4.91626e-08
2.37045e-07
4.45359e-08
2.37398e-07
3.97611e-08
2.37703e-07
3.60629e-08
2.37968e-07
3.344e-08
2.38178e-07
3.13433e-08
2.38336e-07
2.95424e-08
2.38443e-07
2.79845e-08
2.38497e-07
2.66298e-08
2.38496e-07
2.5436e-08
2.38437e-07
2.43703e-08
2.3832e-07
2.34101e-08
2.38143e-07
2.2539e-08
2.37908e-07
2.17447e-08
2.37615e-07
2.10175e-08
2.37266e-07
2.03497e-08
2.36863e-07
1.9735e-08
2.36408e-07
1.91684e-08
2.35904e-07
1.86458e-08
2.35354e-07
1.81638e-08
2.34759e-07
1.77191e-08
2.34123e-07
1.73094e-08
2.33447e-07
1.69322e-08
2.32734e-07
1.65856e-08
2.31987e-07
1.62676e-08
2.31207e-07
1.5977e-08
2.30397e-07
1.57121e-08
2.29558e-07
1.5472e-08
2.28692e-07
1.52555e-08
2.278e-07
1.50615e-08
2.26883e-07
1.48892e-08
2.25943e-07
1.47366e-08
2.2498e-07
1.46041e-08
2.23995e-07
1.44869e-08
2.2299e-07
1.43888e-08
2.21962e-07
1.42979e-08
2.20916e-07
1.42272e-08
2.19848e-07
1.41486e-08
2.18763e-07
1.40942e-08
2.17656e-07
1.40075e-08
2.16538e-07
1.39455e-08
2.15395e-07
1.38266e-08
2.14249e-07
1.36889e-08
2.13083e-07
1.35175e-08
2.11893e-07
1.3114e-08
2.10719e-07
1.28488e-08
1.20177e-08
2.09368e-07
2.376e-07
6.27698e-08
2.40601e-07
7.74478e-08
2.41973e-07
5.64902e-08
2.43065e-07
4.80706e-08
2.43697e-07
4.39034e-08
2.44063e-07
3.9395e-08
2.44373e-07
3.57529e-08
2.44651e-07
3.31626e-08
2.44884e-07
3.11101e-08
2.45078e-07
2.9348e-08
2.4524e-07
2.78227e-08
2.4537e-07
2.64995e-08
2.45468e-07
2.53384e-08
2.45531e-07
2.43068e-08
2.45559e-07
2.33822e-08
2.4555e-07
2.25482e-08
2.45503e-07
2.17921e-08
2.45416e-07
2.1104e-08
2.4529e-07
2.04757e-08
2.45124e-07
1.99008e-08
2.44919e-07
1.93739e-08
2.44674e-07
1.88906e-08
2.44391e-07
1.84472e-08
2.44069e-07
1.80406e-08
2.43711e-07
1.7668e-08
2.43316e-07
1.7327e-08
2.42886e-07
1.70155e-08
2.42422e-07
1.67316e-08
2.41925e-07
1.64738e-08
2.41397e-07
1.62406e-08
2.40838e-07
1.6031e-08
2.40249e-07
1.58438e-08
2.39633e-07
1.56781e-08
2.38989e-07
1.55332e-08
2.38318e-07
1.54071e-08
2.37622e-07
1.53003e-08
2.36901e-07
1.52082e-08
2.36155e-07
1.51345e-08
2.35385e-07
1.50678e-08
2.34593e-07
1.50198e-08
2.33776e-07
1.49654e-08
2.32939e-07
1.4931e-08
2.32077e-07
1.48694e-08
2.312e-07
1.48225e-08
2.30297e-07
1.47303e-08
2.29382e-07
1.46031e-08
2.28447e-07
1.44525e-08
2.27478e-07
1.40836e-08
2.26512e-07
1.38141e-08
1.31316e-08
2.25398e-07
2.4443e-07
5.75958e-08
2.4747e-07
7.44077e-08
2.48793e-07
5.51672e-08
2.49886e-07
4.69783e-08
2.50557e-07
4.32322e-08
2.5094e-07
3.90121e-08
2.51254e-07
3.54386e-08
2.51536e-07
3.28801e-08
2.51777e-07
3.08696e-08
2.51982e-07
2.91431e-08
2.52161e-07
2.76441e-08
2.52317e-07
2.63433e-08
2.52451e-07
2.52037e-08
2.52565e-07
2.41935e-08
2.52657e-07
2.32905e-08
2.52726e-07
2.24788e-08
2.52772e-07
2.17459e-08
2.52794e-07
2.1082e-08
2.52791e-07
2.04788e-08
2.52762e-07
1.99299e-08
2.52706e-07
1.94296e-08
2.52623e-07
1.89736e-08
2.52512e-07
1.8558e-08
2.52373e-07
1.81795e-08
2.52206e-07
1.78352e-08
2.52011e-07
1.75227e-08
2.51786e-07
1.72396e-08
2.51534e-07
1.69839e-08
2.51254e-07
1.6754e-08
2.50946e-07
1.65483e-08
2.50612e-07
1.63656e-08
2.5025e-07
1.6205e-08
2.49863e-07
1.60651e-08
2.49451e-07
1.59456e-08
2.49014e-07
1.58444e-08
2.48552e-07
1.5762e-08
2.48066e-07
1.5694e-08
2.47557e-07
1.56437e-08
2.47024e-07
1.56006e-08
2.46469e-07
1.55747e-08
2.45891e-07
1.55439e-08
2.45293e-07
1.55293e-08
2.44669e-07
1.54925e-08
2.4403e-07
1.54615e-08
2.43366e-07
1.5395e-08
2.42687e-07
1.52823e-08
2.41988e-07
1.51515e-08
2.41249e-07
1.48228e-08
2.40505e-07
1.45577e-08
1.39985e-08
2.39638e-07
2.51478e-07
5.2725e-08
2.54548e-07
7.13375e-08
2.55832e-07
5.38828e-08
2.56919e-07
4.58914e-08
2.57628e-07
4.25235e-08
2.58031e-07
3.86092e-08
2.5835e-07
3.51187e-08
2.58638e-07
3.25927e-08
2.58883e-07
3.06242e-08
2.59092e-07
2.89339e-08
2.59276e-07
2.74605e-08
2.5944e-07
2.61796e-08
2.59586e-07
2.50574e-08
2.59716e-07
2.40631e-08
2.59832e-07
2.31753e-08
2.59932e-07
2.23782e-08
2.60018e-07
2.16601e-08
2.60089e-07
2.10112e-08
2.60144e-07
2.04236e-08
2.60183e-07
1.98909e-08
2.60205e-07
1.94075e-08
2.6021e-07
1.89689e-08
2.60196e-07
1.85715e-08
2.60164e-07
1.82118e-08
2.60112e-07
1.7887e-08
2.6004e-07
1.75944e-08
2.59948e-07
1.73317e-08
2.59835e-07
1.70968e-08
2.59702e-07
1.68878e-08
2.59547e-07
1.67031e-08
2.59371e-07
1.65414e-08
2.59175e-07
1.64016e-08
2.58957e-07
1.62824e-08
2.58719e-07
1.61834e-08
2.58461e-07
1.61025e-08
2.58183e-07
1.60403e-08
2.57885e-07
1.59923e-08
2.57567e-07
1.59615e-08
2.57229e-07
1.59384e-08
2.56873e-07
1.59311e-08
2.56496e-07
1.59208e-08
2.56102e-07
1.59229e-08
2.55687e-07
1.59076e-08
2.55258e-07
1.58908e-08
2.54807e-07
1.58462e-08
2.5434e-07
1.57488e-08
2.53856e-07
1.56351e-08
2.53332e-07
1.53471e-08
2.52797e-07
1.50925e-08
1.46328e-08
2.52163e-07
2.58751e-07
4.81575e-08
2.61841e-07
6.82471e-08
2.63097e-07
5.26265e-08
2.64174e-07
4.48149e-08
2.64918e-07
4.17798e-08
2.65342e-07
3.81844e-08
2.65669e-07
3.47922e-08
2.65962e-07
3.22999e-08
2.66212e-07
3.03736e-08
2.66425e-07
2.87212e-08
2.66611e-07
2.72743e-08
2.66777e-07
2.60133e-08
2.66927e-07
2.49076e-08
2.67062e-07
2.39279e-08
2.67185e-07
2.30528e-08
2.67296e-07
2.22674e-08
2.67395e-07
2.15602e-08
2.67485e-07
2.0922e-08
2.67563e-07
2.0345e-08
2.67631e-07
1.98229e-08
2.67688e-07
1.93504e-08
2.67734e-07
1.89232e-08
2.67768e-07
1.85374e-08
2.6779e-07
1.819e-08
2.67799e-07
1.78779e-08
2.67795e-07
1.75986e-08
2.67777e-07
1.73497e-08
2.67745e-07
1.71289e-08
2.67698e-07
1.69343e-08
2.67637e-07
1.67643e-08
2.67561e-07
1.66174e-08
2.6747e-07
1.64924e-08
2.67365e-07
1.63881e-08
2.67244e-07
1.6304e-08
2.67109e-07
1.62379e-08
2.66958e-07
1.61904e-08
2.66794e-07
1.61572e-08
2.66614e-07
1.61409e-08
2.6642e-07
1.61328e-08
2.66212e-07
1.61392e-08
2.65988e-07
1.61443e-08
2.65752e-07
1.61588e-08
2.655e-07
1.61598e-08
2.65237e-07
1.61539e-08
2.64957e-07
1.61258e-08
2.64664e-07
1.60424e-08
2.64357e-07
1.59417e-08
2.64013e-07
1.56913e-08
2.63655e-07
1.54503e-08
1.50688e-08
2.63219e-07
2.66258e-07
4.38916e-08
2.69358e-07
6.5147e-08
2.70597e-07
5.13877e-08
2.71659e-07
4.37532e-08
2.72434e-07
4.10044e-08
2.72883e-07
3.77359e-08
2.73217e-07
3.44583e-08
2.73515e-07
3.20017e-08
2.73771e-07
3.01175e-08
2.73987e-07
2.85046e-08
2.74176e-07
2.70858e-08
2.74344e-07
2.58452e-08
2.74495e-07
2.47564e-08
2.74632e-07
2.3791e-08
2.74757e-07
2.29283e-08
2.7487e-07
2.21537e-08
2.74974e-07
2.14563e-08
2.75069e-07
2.08271e-08
2.75156e-07
2.02586e-08
2.75234e-07
1.97447e-08
2.75304e-07
1.92803e-08
2.75366e-07
1.88611e-08
2.7542e-07
1.84836e-08
2.75465e-07
1.81445e-08
2.75502e-07
1.78411e-08
2.7553e-07
1.75708e-08
2.75548e-07
1.73312e-08
2.75557e-07
1.712e-08
2.75556e-07
1.69352e-08
2.75545e-07
1.67751e-08
2.75525e-07
1.66382e-08
2.75494e-07
1.65233e-08
2.75453e-07
1.6429e-08
2.75402e-07
1.63548e-08
2.75341e-07
1.62986e-08
2.75271e-07
1.62609e-08
2.75191e-07
1.62376e-08
2.75101e-07
1.62307e-08
2.75001e-07
1.62325e-08
2.74893e-07
1.62477e-08
2.74774e-07
1.62632e-08
2.74647e-07
1.62854e-08
2.74509e-07
1.62975e-08
2.74365e-07
1.62987e-08
2.74209e-07
1.62813e-08
2.74042e-07
1.62091e-08
2.73867e-07
1.61171e-08
2.73659e-07
1.58991e-08
2.73437e-07
1.56728e-08
1.53513e-08
2.73154e-07
2.74009e-07
3.99238e-08
2.77108e-07
6.20483e-08
2.78339e-07
5.01563e-08
2.79382e-07
4.27098e-08
2.80185e-07
4.02014e-08
2.80659e-07
3.72622e-08
2.81001e-07
3.41159e-08
2.81305e-07
3.16983e-08
2.81567e-07
2.98555e-08
2.81788e-07
2.82836e-08
2.81979e-07
2.68945e-08
2.82149e-07
2.56753e-08
2.82302e-07
2.46038e-08
2.82439e-07
2.36532e-08
2.82565e-07
2.28031e-08
2.82679e-07
2.20394e-08
2.82784e-07
2.13515e-08
2.8288e-07
2.07309e-08
2.82968e-07
2.01703e-08
2.83049e-07
1.96638e-08
2.83123e-07
1.92064e-08
2.8319e-07
1.8794e-08
2.83251e-07
1.8423e-08
2.83305e-07
1.80906e-08
2.83352e-07
1.77939e-08
2.83392e-07
1.75304e-08
2.83426e-07
1.72977e-08
2.83452e-07
1.70935e-08
2.83472e-07
1.69157e-08
2.83484e-07
1.67626e-08
2.8349e-07
1.66325e-08
2.83489e-07
1.65244e-08
2.83481e-07
1.64367e-08
2.83467e-07
1.6369e-08
2.83446e-07
1.63192e-08
2.8342e-07
1.62875e-08
2.83387e-07
1.62703e-08
2.83349e-07
1.6269e-08
2.83304e-07
1.62768e-08
2.83255e-07
1.62968e-08
2.832e-07
1.63184e-08
2.83141e-07
1.63445e-08
2.83076e-07
1.63628e-08
2.83007e-07
1.63677e-08
2.82932e-07
1.63561e-08
2.82849e-07
1.62922e-08
2.8276e-07
1.62055e-08
2.82645e-07
1.6014e-08
2.82516e-07
1.58021e-08
1.5526e-08
2.82341e-07
2.82012e-07
3.62488e-08
2.85098e-07
5.89624e-08
2.86332e-07
4.89227e-08
2.87354e-07
4.16875e-08
2.8818e-07
3.93756e-08
2.8868e-07
3.6762e-08
2.89032e-07
3.37639e-08
2.89341e-07
3.13896e-08
2.89609e-07
2.95877e-08
2.89834e-07
2.80579e-08
2.90029e-07
2.67001e-08
2.90201e-07
2.55033e-08
2.90355e-07
2.44498e-08
2.90494e-07
2.35144e-08
2.90619e-07
2.26773e-08
2.90734e-07
2.19247e-08
2.90839e-07
2.12466e-08
2.90935e-07
2.06347e-08
2.91024e-07
2.0082e-08
2.91105e-07
1.95827e-08
2.91179e-07
1.9132e-08
2.91247e-07
1.8726e-08
2.91309e-07
1.83612e-08
2.91365e-07
1.80347e-08
2.91415e-07
1.7744e-08
2.91459e-07
1.74863e-08
2.91497e-07
1.72594e-08
2.9153e-07
1.7061e-08
2.91556e-07
1.68888e-08
2.91578e-07
1.67412e-08
2.91594e-07
1.66164e-08
2.91605e-07
1.65132e-08
2.91612e-07
1.64303e-08
2.91614e-07
1.6367e-08
2.91612e-07
1.63213e-08
2.91606e-07
1.62934e-08
2.91596e-07
1.62798e-08
2.91584e-07
1.62814e-08
2.91568e-07
1.62926e-08
2.9155e-07
1.63147e-08
2.91529e-07
1.63393e-08
2.91507e-07
1.63666e-08
2.91482e-07
1.63877e-08
2.91456e-07
1.63939e-08
2.91428e-07
1.63845e-08
2.91394e-07
1.63264e-08
2.91356e-07
1.62427e-08
2.91298e-07
1.60724e-08
2.91226e-07
1.58743e-08
1.56323e-08
2.9112e-07
2.90278e-07
3.28596e-08
2.93339e-07
5.59012e-08
2.94584e-07
4.7678e-08
2.95583e-07
4.0688e-08
2.96427e-07
3.8532e-08
2.96955e-07
3.62344e-08
2.97318e-07
3.34009e-08
2.97631e-07
3.10757e-08
2.97905e-07
2.9314e-08
2.98136e-07
2.78272e-08
2.98334e-07
2.65024e-08
2.98508e-07
2.53291e-08
2.98664e-07
2.42941e-08
2.98803e-07
2.33744e-08
2.9893e-07
2.25507e-08
2.99045e-07
2.18097e-08
2.9915e-07
2.11416e-08
2.99246e-07
2.05386e-08
2.99334e-07
1.99939e-08
2.99415e-07
1.9502e-08
2.99489e-07
1.90582e-08
2.99556e-07
1.86585e-08
2.99618e-07
1.82998e-08
2.99673e-07
1.79792e-08
2.99723e-07
1.76942e-08
2.99767e-07
1.74422e-08
2.99806e-07
1.72208e-08
2.99839e-07
1.70276e-08
2.99867e-07
1.68606e-08
2.99891e-07
1.67178e-08
2.9991e-07
1.65975e-08
2.99924e-07
1.64985e-08
2.99935e-07
1.64193e-08
2.99943e-07
1.63594e-08
2.99947e-07
1.63167e-08
2.99949e-07
1.62913e-08
2.99949e-07
1.628e-08
2.99947e-07
1.62833e-08
2.99944e-07
1.62961e-08
2.9994e-07
1.63187e-08
2.99935e-07
1.63445e-08
2.9993e-07
1.63714e-08
2.99924e-07
1.63931e-08
2.99919e-07
1.63992e-08
2.99914e-07
1.63898e-08
2.99904e-07
1.63359e-08
2.99893e-07
1.6254e-08
2.99865e-07
1.61006e-08
2.99823e-07
1.59158e-08
1.57001e-08
2.99755e-07
2.98815e-07
2.97473e-08
3.0184e-07
5.28766e-08
3.03103e-07
4.64143e-08
3.04079e-07
3.97124e-08
3.04935e-07
3.76763e-08
3.0549e-07
3.56789e-08
3.05866e-07
3.30254e-08
3.06185e-07
3.07566e-08
3.06464e-07
2.90344e-08
3.06701e-07
2.75911e-08
3.06902e-07
2.6301e-08
3.07079e-07
2.51524e-08
3.07236e-07
2.41366e-08
3.07377e-07
2.32331e-08
3.07505e-07
2.24233e-08
3.0762e-07
2.16941e-08
3.07726e-07
2.10364e-08
3.07822e-07
2.04426e-08
3.07909e-07
1.99062e-08
3.0799e-07
1.94218e-08
3.08063e-07
1.8985e-08
3.08129e-07
1.85919e-08
3.0819e-07
1.82394e-08
3.08244e-07
1.79248e-08
3.08293e-07
1.76455e-08
3.08336e-07
1.73992e-08
3.08374e-07
1.71832e-08
3.08406e-07
1.69953e-08
3.08433e-07
1.68333e-08
3.08456e-07
1.66952e-08
3.08474e-07
1.65791e-08
3.08489e-07
1.6484e-08
3.085e-07
1.64083e-08
3.08508e-07
1.63512e-08
3.08513e-07
1.63111e-08
3.08517e-07
1.62876e-08
3.08519e-07
1.62781e-08
3.0852e-07
1.62822e-08
3.0852e-07
1.62959e-08
3.08521e-07
1.63184e-08
3.08521e-07
1.63443e-08
3.08522e-07
1.63703e-08
3.08524e-07
1.63914e-08
3.08526e-07
1.63967e-08
3.0853e-07
1.63863e-08
3.0853e-07
1.63357e-08
3.08528e-07
1.62554e-08
3.08513e-07
1.61159e-08
3.08485e-07
1.59439e-08
1.5749e-08
3.08436e-07
3.07633e-07
2.69013e-08
3.10609e-07
4.99006e-08
3.11899e-07
4.51248e-08
3.12851e-07
3.87604e-08
3.13713e-07
3.68137e-08
3.14296e-07
3.50958e-08
3.14686e-07
3.26358e-08
3.15011e-07
3.0432e-08
3.15296e-07
2.8749e-08
3.15538e-07
2.73494e-08
3.15743e-07
2.60957e-08
3.15922e-07
2.49729e-08
3.16082e-07
2.3977e-08
3.16225e-07
2.30903e-08
3.16353e-07
2.22948e-08
3.1647e-07
2.15779e-08
3.16575e-07
2.09309e-08
3.16671e-07
2.03465e-08
3.16759e-07
1.98187e-08
3.16838e-07
1.93421e-08
3.16911e-07
1.89124e-08
3.16977e-07
1.8526e-08
3.17036e-07
1.81799e-08
3.17089e-07
1.78715e-08
3.17137e-07
1.75981e-08
3.17178e-07
1.73575e-08
3.17214e-07
1.71472e-08
3.17245e-07
1.69647e-08
3.17271e-07
1.68077e-08
3.17292e-07
1.66742e-08
3.17308e-07
1.65625e-08
3.17321e-07
1.64712e-08
3.17331e-07
1.63988e-08
3.17337e-07
1.63446e-08
3.17342e-07
1.63069e-08
3.17344e-07
1.62852e-08
3.17345e-07
1.62771e-08
3.17345e-07
1.62819e-08
3.17345e-07
1.62962e-08
3.17345e-07
1.63183e-08
3.17346e-07
1.63439e-08
3.17347e-07
1.63688e-08
3.1735e-07
1.63887e-08
3.17353e-07
1.63933e-08
3.17358e-07
1.63816e-08
3.1736e-07
1.63338e-08
3.17359e-07
1.62558e-08
3.17347e-07
1.6128e-08
3.17323e-07
1.59685e-08
1.57909e-08
3.17281e-07
3.16743e-07
2.43096e-08
3.19658e-07
4.69854e-08
3.20979e-07
4.38043e-08
3.21908e-07
3.7831e-08
3.22772e-07
3.59494e-08
3.23382e-07
3.44863e-08
3.23787e-07
3.22304e-08
3.24118e-07
3.01015e-08
3.24409e-07
2.8458e-08
3.24656e-07
2.71019e-08
3.24866e-07
2.5886e-08
3.25048e-07
2.47905e-08
3.2521e-07
2.38153e-08
3.25355e-07
2.29458e-08
3.25484e-07
2.2165e-08
3.25602e-07
2.14609e-08
3.25708e-07
2.08249e-08
3.25804e-07
2.02503e-08
3.25891e-07
1.97313e-08
3.25971e-07
1.92627e-08
3.26043e-07
1.88404e-08
3.26108e-07
1.8461e-08
3.26166e-07
1.81214e-08
3.26218e-07
1.78192e-08
3.26264e-07
1.7552e-08
3.26305e-07
1.73174e-08
3.26339e-07
1.71128e-08
3.26368e-07
1.69357e-08
3.26392e-07
1.67839e-08
3.26411e-07
1.66552e-08
3.26425e-07
1.65479e-08
3.26436e-07
1.64604e-08
3.26443e-07
1.63915e-08
3.26448e-07
1.63401e-08
3.2645e-07
1.63048e-08
3.2645e-07
1.62849e-08
3.26449e-07
1.62782e-08
3.26447e-07
1.62838e-08
3.26445e-07
1.62985e-08
3.26443e-07
1.63204e-08
3.26441e-07
1.63456e-08
3.26441e-07
1.63694e-08
3.26441e-07
1.63882e-08
3.26443e-07
1.63921e-08
3.26445e-07
1.63795e-08
3.26444e-07
1.63344e-08
3.26441e-07
1.62592e-08
3.26427e-07
1.61418e-08
3.26401e-07
1.59946e-08
1.58322e-08
3.26359e-07
3.26153e-07
2.19588e-08
3.28996e-07
4.41427e-08
3.30351e-07
4.24489e-08
3.3126e-07
3.69224e-08
3.32121e-07
3.50881e-08
3.32756e-07
3.38519e-08
3.33178e-07
3.1808e-08
3.33515e-07
2.97644e-08
3.33812e-07
2.81613e-08
3.34065e-07
2.68483e-08
3.3428e-07
2.56715e-08
3.34466e-07
2.46048e-08
3.3463e-07
2.3651e-08
3.34776e-07
2.27993e-08
3.34907e-07
2.20339e-08
3.35026e-07
2.13428e-08
3.35132e-07
2.07183e-08
3.35229e-07
2.01538e-08
3.35316e-07
1.96438e-08
3.35395e-07
1.91835e-08
3.35467e-07
1.87688e-08
3.35531e-07
1.83965e-08
3.35589e-07
1.80637e-08
3.3564e-07
1.77681e-08
3.35685e-07
1.75072e-08
3.35724e-07
1.72786e-08
3.35757e-07
1.70799e-08
3.35784e-07
1.69085e-08
3.35806e-07
1.6762e-08
3.35823e-07
1.66382e-08
3.35836e-07
1.65353e-08
3.35844e-07
1.64519e-08
3.35849e-07