/*--------------------------------*- C++ -*----------------------------------*\
  =========                 |
  \\      /  F ield         | OpenFOAM: The Open Source CFD Toolbox
   \\    /   O peration     | Website:  https://openfoam.org
    \\  /    A nd           | Version:  7
     \\/     M anipulation  |
\*---------------------------------------------------------------------------*/
FoamFile
{
    version     2.0;
    format      ascii;
    class       surfaceScalarField;
    location    "0.03";
    object      phi_0;
}
// * * * * * * * * * * * * * * * * * * * * * * * * * * * * * * * * * * * * * //

dimensions      [0 3 -1 0 0 0 0];

internalField   nonuniform List<scalar> 
139350
(
6.45919e-08
9.20396e-08
3.19492e-08
3.26427e-08
2.30562e-08
8.89297e-09
1.95595e-08
3.49671e-09
1.76048e-08
1.95468e-09
1.61737e-08
1.43107e-09
1.50366e-08
1.13711e-09
1.41179e-08
9.18711e-10
1.336e-08
7.57939e-10
1.27196e-08
6.40368e-10
1.21679e-08
5.51672e-10
1.16856e-08
4.82359e-10
1.12588e-08
4.26796e-10
1.08773e-08
3.81447e-10
1.05334e-08
3.43899e-10
1.0221e-08
3.12432e-10
9.93522e-09
2.85783e-10
9.67221e-09
2.63012e-10
9.4288e-09
2.43403e-10
9.2024e-09
2.26404e-10
8.99082e-09
2.11581e-10
8.79223e-09
1.98592e-10
8.60507e-09
1.87159e-10
8.42801e-09
1.77057e-10
8.25991e-09
1.68098e-10
8.09978e-09
1.60131e-10
7.94676e-09
1.53022e-10
7.80009e-09
1.46667e-10
7.65913e-09
1.40963e-10
7.52329e-09
1.35839e-10
7.39209e-09
1.31203e-10
7.26507e-09
1.27022e-10
7.14189e-09
1.23179e-10
7.02218e-09
1.19704e-10
6.90578e-09
1.16405e-10
6.79235e-09
1.1343e-10
6.68193e-09
1.10423e-10
6.57419e-09
1.07739e-10
6.46943e-09
1.04754e-10
6.36735e-09
1.02084e-10
6.26846e-09
9.88858e-11
6.17281e-09
9.56544e-11
6.08048e-09
9.23324e-11
5.99358e-09
8.68953e-11
5.90866e-09
8.49181e-11
5.83672e-09
7.19457e-11
5.75782e-09
7.89003e-11
5.72952e-09
2.83008e-11
5.5453e-09
1.84219e-10
-2.72803e-09
8.27333e-09
1.26025e-07
1.27458e-07
9.12595e-08
6.7408e-08
7.19335e-08
2.82189e-08
6.11998e-08
1.42305e-08
5.47451e-08
8.40936e-09
5.0241e-08
5.93517e-09
4.67446e-08
4.63357e-09
4.39142e-08
3.74909e-09
4.15705e-08
3.10164e-09
3.95886e-08
2.62228e-09
3.78812e-08
2.25904e-09
3.63882e-08
1.97533e-09
3.50669e-08
1.74809e-09
3.38857e-08
1.56265e-09
3.28205e-08
1.4091e-09
3.18526e-08
1.28038e-09
3.0967e-08
1.17136e-09
3.01518e-08
1.07819e-09
2.93973e-08
9.97945e-10
2.86953e-08
9.28375e-10
2.80392e-08
8.67714e-10
2.74232e-08
8.14556e-10
2.68426e-08
7.67774e-10
2.62932e-08
7.26449e-10
2.57715e-08
6.89827e-10
2.52743e-08
6.57283e-10
2.47991e-08
6.28292e-10
2.43433e-08
6.02413e-10
2.3905e-08
5.79259e-10
2.34824e-08
5.58515e-10
2.30737e-08
5.39861e-10
2.26776e-08
5.23096e-10
2.22929e-08
5.07875e-10
2.19185e-08
4.94161e-10
2.15534e-08
4.81427e-10
2.11969e-08
4.69971e-10
2.08486e-08
4.58768e-10
2.05075e-08
4.48842e-10
2.01741e-08
4.38067e-10
1.98473e-08
4.2892e-10
1.9529e-08
4.17217e-10
1.92168e-08
4.07797e-10
1.89155e-08
3.93624e-10
1.86209e-08
3.81565e-10
1.83417e-08
3.64136e-10
1.80725e-08
3.41086e-10
1.78207e-08
3.30692e-10
1.76292e-08
2.19834e-10
1.73105e-08
5.02954e-10
-3.24836e-09
1.78308e-08
1.58807e-07
1.35055e-07
1.36491e-07
8.97238e-08
1.17483e-07
4.72264e-08
1.03296e-07
2.84177e-08
9.32767e-08
1.84287e-08
8.59592e-08
1.32528e-08
8.02342e-08
1.03585e-08
7.55602e-08
8.42311e-09
7.16547e-08
7.00711e-09
6.83306e-08
5.94636e-09
6.54545e-08
5.13517e-09
6.29313e-08
4.49847e-09
6.06925e-08
3.98692e-09
5.86868e-08
3.56841e-09
5.68748e-08
3.22108e-09
5.52258e-08
2.92937e-09
5.37153e-08
2.68187e-09
5.23234e-08
2.47004e-09
5.1034e-08
2.28738e-09
4.98335e-08
2.12884e-09
4.87108e-08
1.99046e-09
4.76562e-08
1.8691e-09
4.66618e-08
1.76222e-09
4.57205e-08
1.66775e-09
4.48263e-08
1.58401e-09
4.3974e-08
1.50957e-09
4.3159e-08
1.44328e-09
4.23773e-08
1.38412e-09
4.16253e-08
1.33125e-09
4.08999e-08
1.28395e-09
4.01982e-08
1.24153e-09
3.95178e-08
1.20349e-09
3.88565e-08
1.16918e-09
3.82123e-08
1.13836e-09
3.75837e-08
1.1101e-09
3.69689e-08
1.08477e-09
3.63671e-08
1.06052e-09
3.57768e-08
1.03918e-09
3.51983e-08
1.01652e-09
3.46294e-08
9.97859e-10
3.40731e-08
9.73461e-10
3.35246e-08
9.56324e-10
3.29931e-08
9.25167e-10
3.24665e-08
9.08156e-10
3.19678e-08
8.62854e-10
3.147e-08
8.38805e-10
3.10161e-08
7.8465e-10
3.06012e-08
6.34689e-10
3.01898e-08
9.14387e-10
-2.73429e-09
2.96757e-08
1.75664e-07
1.30908e-07
1.65592e-07
9.97953e-08
1.52715e-07
6.01032e-08
1.40106e-07
4.10266e-08
1.29403e-07
2.91322e-08
1.20741e-07
2.19143e-08
1.13606e-07
1.74937e-08
1.07597e-07
1.4432e-08
1.02463e-07
1.21413e-08
9.8021e-08
1.03885e-08
9.41309e-08
9.02525e-09
9.0687e-08
7.94241e-09
8.7609e-08
7.06486e-09
8.48354e-08
6.34199e-09
8.23179e-08
5.73867e-09
8.00177e-08
5.22957e-09
7.79036e-08
4.79589e-09
7.59502e-08
4.42345e-09
7.41363e-08
4.10133e-09
7.24441e-08
3.82103e-09
7.08587e-08
3.57582e-09
6.93675e-08
3.36032e-09
6.79595e-08
3.17019e-09
6.66254e-08
3.00189e-09
6.53569e-08
2.85248e-09
6.4147e-08
2.71953e-09
6.29892e-08
2.60103e-09
6.18781e-08
2.49522e-09
6.08087e-08
2.40066e-09
5.97766e-08
2.31605e-09
5.87779e-08
2.24028e-09
5.7809e-08
2.17239e-09
5.68668e-08
2.11138e-09
5.59484e-08
2.0567e-09
5.50515e-08
2.00697e-09
5.41737e-08
1.96256e-09
5.33136e-08
1.92068e-09
5.24687e-08
1.88404e-09
5.16393e-08
1.84594e-09
5.08221e-08
1.81508e-09
5.00206e-08
1.77496e-09
4.92282e-08
1.74873e-09
4.84563e-08
1.69705e-09
4.76888e-08
1.67565e-09
4.6955e-08
1.59662e-09
4.62192e-08
1.57463e-09
4.55376e-08
1.46626e-09
4.48829e-08
1.28939e-09
4.43117e-08
1.48554e-09
-1.80467e-09
4.33821e-08
1.8456e-07
1.23133e-07
1.82319e-07
1.02036e-07
1.76097e-07
6.63259e-08
1.67745e-07
4.9378e-08
1.59109e-07
3.77686e-08
1.51181e-07
2.98423e-08
1.44084e-07
2.45908e-08
1.37753e-07
2.07623e-08
1.32116e-07
1.7779e-08
1.27086e-07
1.54181e-08
1.22578e-07
1.35329e-08
1.18516e-07
1.20052e-08
1.14833e-07
1.07477e-08
1.11476e-07
9.69889e-09
1.084e-07
8.8146e-09
1.05568e-07
8.06204e-09
1.02947e-07
7.41638e-09
1.00512e-07
6.85847e-09
9.824e-08
6.37339e-09
9.61117e-08
5.94934e-09
9.41106e-08
5.57686e-09
9.22226e-08
5.24835e-09
9.04352e-08
4.95758e-09
8.87376e-08
4.69945e-09
8.71204e-08
4.46972e-09
8.55751e-08
4.26485e-09
8.40942e-08
4.08188e-09
8.26712e-08
3.91825e-09
8.13e-08
3.77184e-09
7.99754e-08
3.64072e-09
7.86924e-08
3.52327e-09
7.74467e-08
3.41806e-09
7.62344e-08
3.32365e-09
7.5052e-08
3.23913e-09
7.38963e-08
3.16266e-09
7.27643e-08
3.09453e-09
7.1654e-08
3.03102e-09
7.05624e-08
2.97564e-09
6.94891e-08
2.91922e-09
6.84304e-08
2.87375e-09
6.73894e-08
2.81596e-09
6.6359e-08
2.77913e-09
6.53503e-08
2.70577e-09
6.43472e-08
2.6788e-09
6.33775e-08
2.56632e-09
6.24094e-08
2.54273e-09
6.1491e-08
2.38461e-09
6.06047e-08
2.1757e-09
5.98108e-08
2.27941e-09
-6.51686e-10
5.86579e-08
1.90388e-07
1.14962e-07
1.9185e-07
1.00574e-07
1.90239e-07
6.79368e-08
1.86142e-07
5.34748e-08
1.80693e-07
4.32183e-08
1.74922e-07
3.56133e-08
1.69202e-07
3.03102e-08
1.63689e-07
2.62755e-08
1.58478e-07
2.29906e-08
1.53609e-07
2.02866e-08
1.49086e-07
1.8056e-08
1.44891e-07
1.62e-08
1.41e-07
1.46388e-08
1.37386e-07
1.33132e-08
1.34022e-07
1.21786e-08
1.30883e-07
1.12007e-08
1.27947e-07
1.03526e-08
1.25192e-07
9.61295e-09
1.22601e-07
8.96467e-09
1.20156e-07
8.39396e-09
1.17844e-07
7.88957e-09
1.1565e-07
7.44226e-09
1.13563e-07
7.04442e-09
1.11573e-07
6.68968e-09
1.0967e-07
6.37274e-09
1.07845e-07
6.08911e-09
1.06092e-07
5.83501e-09
1.04403e-07
5.60715e-09
1.02772e-07
5.4028e-09
1.01194e-07
5.21943e-09
9.96621e-08
5.05497e-09
9.81726e-08
4.90749e-09
9.67211e-08
4.77517e-09
9.53035e-08
4.65673e-09
9.39163e-08
4.54989e-09
9.2556e-08
4.45479e-09
9.12201e-08
4.36693e-09
8.99054e-08
4.29036e-09
8.86108e-08
4.21382e-09
8.73326e-08
4.152e-09
8.60727e-08
4.07582e-09
8.48249e-08
4.02691e-09
8.35979e-08
3.93284e-09
8.2379e-08
3.89769e-09
8.11885e-08
3.75676e-09
8.00079e-08
3.72332e-09
7.88633e-08
3.52922e-09
7.77643e-08
3.27471e-09
7.67397e-08
3.30397e-09
7.03383e-10
7.53847e-08
1.9554e-07
1.07236e-07
1.98246e-07
9.78679e-08
1.98965e-07
6.72178e-08
1.9778e-07
5.46599e-08
1.9514e-07
4.58585e-08
1.91785e-07
3.89681e-08
1.88034e-07
3.40608e-08
1.84059e-07
3.02513e-08
1.80006e-07
2.70431e-08
1.75986e-07
2.43064e-08
1.72066e-07
2.19758e-08
1.68285e-07
1.99817e-08
1.6466e-07
1.8263e-08
1.61201e-07
1.67722e-08
1.57908e-07
1.54724e-08
1.54774e-07
1.43341e-08
1.51794e-07
1.3333e-08
1.48957e-07
1.24492e-08
1.46256e-07
1.16663e-08
1.43679e-07
1.09705e-08
1.41218e-07
1.03504e-08
1.38864e-07
9.79646e-09
1.36608e-07
9.30046e-09
1.34442e-07
8.85556e-09
1.32359e-07
8.45593e-09
1.30352e-07
8.09656e-09
1.28413e-07
7.77322e-09
1.26538e-07
7.48214e-09
1.24721e-07
7.22021e-09
1.22956e-07
6.98449e-09
1.21238e-07
6.77258e-09
1.19564e-07
6.58219e-09
1.17928e-07
6.4112e-09
1.16326e-07
6.25802e-09
1.14756e-07
6.12003e-09
1.13214e-07
5.99723e-09
1.11696e-07
5.88447e-09
1.102e-07
5.78615e-09
1.08725e-07
5.68946e-09
1.07266e-07
5.61085e-09
1.05825e-07
5.51716e-09
1.04396e-07
5.4554e-09
1.02986e-07
5.34346e-09
1.01586e-07
5.29734e-09
1.00207e-07
5.13561e-09
9.88468e-08
5.08356e-09
9.75072e-08
4.86876e-09
9.62216e-08
4.5604e-09
9.49969e-08
4.52865e-09
2.24422e-09
9.3456e-08
2.00848e-07
9.99731e-08
2.03774e-07
9.49412e-08
2.05324e-07
6.56685e-08
2.05636e-07
5.43476e-08
2.04804e-07
4.66909e-08
2.03313e-07
4.04587e-08
2.01351e-07
3.60226e-08
1.99002e-07
3.2601e-08
1.96369e-07
2.96761e-08
1.93554e-07
2.7121e-08
1.90638e-07
2.4892e-08
1.87679e-07
2.29402e-08
1.84722e-07
2.12201e-08
1.81797e-07
1.9697e-08
1.78926e-07
1.83435e-08
1.76123e-07
1.71377e-08
1.73395e-07
1.60607e-08
1.70748e-07
1.50967e-08
1.68182e-07
1.4232e-08
1.65697e-07
1.3455e-08
1.63292e-07
1.27555e-08
1.60964e-07
1.2125e-08
1.58708e-07
1.15559e-08
1.56522e-07
1.10417e-08
1.54401e-07
1.05767e-08
1.52342e-07
1.01561e-08
1.5034e-07
9.77557e-09
1.4839e-07
9.43136e-09
1.4649e-07
9.12026e-09
1.44636e-07
8.83925e-09
1.42822e-07
8.58583e-09
1.41047e-07
8.35754e-09
1.39306e-07
8.15215e-09
1.37596e-07
7.9679e-09
1.35914e-07
7.80198e-09
1.34257e-07
7.65426e-09
1.32622e-07
7.51922e-09
1.31007e-07
7.40137e-09
1.2941e-07
7.28698e-09
1.27827e-07
7.1933e-09
1.26259e-07
7.08497e-09
1.24704e-07
7.01121e-09
1.23161e-07
6.88591e-09
1.21631e-07
6.82744e-09
1.20113e-07
6.65329e-09
1.1862e-07
6.5772e-09
1.17135e-07
6.35367e-09
1.15702e-07
5.99364e-09
1.14323e-07
5.90669e-09
3.92524e-09
1.12642e-07
2.06447e-07
9.30586e-08
2.09338e-07
9.20498e-08
2.11034e-07
6.3973e-08
2.11925e-07
5.34565e-08
2.11989e-07
4.66262e-08
2.11596e-07
4.08518e-08
2.10857e-07
3.67622e-08
2.09772e-07
3.36856e-08
2.08379e-07
3.10693e-08
2.06734e-07
2.87653e-08
2.04894e-07
2.67327e-08
2.02905e-07
2.4929e-08
2.0081e-07
2.33156e-08
1.98642e-07
2.18641e-08
1.96432e-07
2.05541e-08
1.942e-07
1.93691e-08
1.91966e-07
1.82955e-08
1.89741e-07
1.73216e-08
1.87536e-07
1.64371e-08
1.85357e-07
1.56333e-08
1.83211e-07
1.49021e-08
1.81099e-07
1.42366e-08
1.79024e-07
1.36307e-08
1.76987e-07
1.30788e-08
1.74988e-07
1.25762e-08
1.73026e-07
1.21184e-08
1.71099e-07
1.17018e-08
1.69208e-07
1.13229e-08
1.67349e-07
1.09788e-08
1.65522e-07
1.06666e-08
1.63724e-07
1.03841e-08
1.61952e-07
1.01288e-08
1.60206e-07
9.89866e-09
1.58482e-07
9.69188e-09
1.56778e-07
9.50566e-09
1.55093e-07
9.33982e-09
1.53423e-07
9.18872e-09
1.51768e-07
9.05684e-09
1.50125e-07
8.93011e-09
1.48492e-07
8.82577e-09
1.46869e-07
8.70799e-09
1.45255e-07
8.6254e-09
1.43648e-07
8.49279e-09
1.42052e-07
8.42317e-09
1.40461e-07
8.24494e-09
1.38894e-07
8.14416e-09
1.37327e-07
7.92038e-09
1.35801e-07
7.51919e-09
1.34327e-07
7.38097e-09
5.6831e-09
1.32569e-07
2.12288e-07
8.64324e-08
2.15151e-07
8.91875e-08
2.16788e-07
6.2336e-08
2.17837e-07
5.24073e-08
2.18248e-07
4.62148e-08
2.18359e-07
4.0741e-08
2.18276e-07
3.68457e-08
2.17966e-07
3.39954e-08
2.17421e-07
3.16137e-08
2.1666e-07
2.95267e-08
2.15705e-07
2.76878e-08
2.1458e-07
2.60535e-08
2.13311e-07
2.45846e-08
2.11922e-07
2.32534e-08
2.10435e-07
2.2041e-08
2.08871e-07
2.09335e-08
2.07246e-07
1.99198e-08
2.05577e-07
1.89908e-08
2.03875e-07
1.81387e-08
2.02152e-07
1.73567e-08
2.00415e-07
1.66389e-08
1.98672e-07
1.598e-08
1.96927e-07
1.53752e-08
1.95186e-07
1.48202e-08
1.93451e-07
1.43113e-08
1.91724e-07
1.38448e-08
1.90008e-07
1.34178e-08
1.88304e-07
1.30274e-08
1.86612e-07
1.26711e-08
1.84932e-07
1.23466e-08
1.83264e-07
1.20519e-08
1.81608e-07
1.1785e-08
1.79962e-07
1.15439e-08
1.78327e-07
1.1327e-08
1.76701e-07
1.11318e-08
1.75083e-07
1.09581e-08
1.73471e-07
1.08003e-08
1.71865e-07
1.06629e-08
1.70263e-07
1.05318e-08
1.68665e-07
1.04238e-08
1.67069e-07
1.03039e-08
1.65477e-07
1.0218e-08
1.63884e-07
1.00855e-08
1.62298e-07
1.00087e-08
1.60709e-07
9.83471e-09
1.5914e-07
9.7131e-09
1.57565e-07
9.49551e-09
1.56015e-07
9.06862e-09
1.54511e-07
8.88477e-09
7.44584e-09
1.52749e-07
2.1833e-07
8.00835e-08
2.21204e-07
8.63127e-08
2.2276e-07
6.07801e-08
2.23836e-07
5.13313e-08
2.24357e-07
4.5694e-08
2.24646e-07
4.04522e-08
2.2484e-07
3.66521e-08
2.2491e-07
3.39251e-08
2.24834e-07
3.16894e-08
2.24612e-07
2.97489e-08
2.24248e-07
2.80525e-08
2.23746e-07
2.65552e-08
2.23115e-07
2.52151e-08
2.22367e-07
2.40022e-08
2.21511e-07
2.28965e-08
2.20561e-07
2.18837e-08
2.19528e-07
2.0953e-08
2.18423e-07
2.00958e-08
2.17256e-07
1.93053e-08
2.16037e-07
1.85756e-08
2.14774e-07
1.79018e-08
2.13475e-07
1.72797e-08
2.12144e-07
1.67055e-08
2.10789e-07
1.61757e-08
2.09413e-07
1.56874e-08
2.0802e-07
1.52377e-08
2.06614e-07
1.48242e-08
2.05196e-07
1.44446e-08
2.0377e-07
1.40971e-08
2.02337e-07
1.37796e-08
2.00899e-07
1.34906e-08
1.99455e-07
1.32285e-08
1.98007e-07
1.29916e-08
1.96556e-07
1.27787e-08
1.951e-07
1.25874e-08
1.93641e-07
1.24177e-08
1.92177e-07
1.22643e-08
1.90708e-07
1.21314e-08
1.89234e-07
1.20055e-08
1.87756e-07
1.19024e-08
1.86271e-07
1.17889e-08
1.84782e-07
1.17069e-08
1.83285e-07
1.15828e-08
1.81789e-07
1.15048e-08
1.8028e-07
1.1343e-08
1.78786e-07
1.12078e-08
1.77279e-07
1.10019e-08
1.75781e-07
1.05669e-08
1.7432e-07
1.03457e-08
9.1384e-09
1.72627e-07
2.24558e-07
7.40185e-08
2.27469e-07
8.34024e-08
2.28957e-07
5.92917e-08
2.30038e-07
5.02502e-08
2.306e-07
4.51319e-08
2.30938e-07
4.01146e-08
2.31221e-07
3.63687e-08
2.3144e-07
3.3706e-08
2.31575e-07
3.15549e-08
2.31622e-07
2.97014e-08
2.31582e-07
2.80928e-08
2.31452e-07
2.66854e-08
2.3123e-07
2.54363e-08
2.3092e-07
2.43131e-08
2.30522e-07
2.32943e-08
2.30041e-07
2.23643e-08
2.29483e-07
2.15115e-08
2.28852e-07
2.07268e-08
2.28154e-07
2.00031e-08
2.27395e-07
1.93346e-08
2.2658e-07
1.87165e-08
2.25715e-07
1.81449e-08
2.24804e-07
1.76163e-08
2.23852e-07
1.71277e-08
2.22863e-07
1.66765e-08
2.2184e-07
1.62603e-08
2.20788e-07
1.58769e-08
2.19708e-07
1.55245e-08
2.18603e-07
1.52015e-08
2.17477e-07
1.49063e-08
2.1633e-07
1.46376e-08
2.15164e-07
1.43942e-08
2.13981e-07
1.41748e-08
2.12781e-07
1.39783e-08
2.11566e-07
1.38026e-08
2.10336e-07
1.36479e-08
2.09091e-07
1.35091e-08
2.07832e-07
1.33904e-08
2.06558e-07
1.32789e-08
2.05272e-07
1.31892e-08
2.0397e-07
1.30903e-08
2.02658e-07
1.30196e-08
2.01329e-07
1.29117e-08
1.99994e-07
1.28393e-08
1.9864e-07
1.26969e-08
1.97291e-07
1.25568e-08
1.95926e-07
1.23672e-08
1.94551e-07
1.19415e-08
1.93204e-07
1.16936e-08
1.06897e-08
1.91652e-07
2.30979e-07
6.82453e-08
2.33933e-07
8.04484e-08
2.35362e-07
5.78625e-08
2.36449e-07
4.91631e-08
2.37045e-07
4.45365e-08
2.37398e-07
3.97619e-08
2.37702e-07
3.60638e-08
2.37967e-07
3.3441e-08
2.38178e-07
3.13445e-08
2.38336e-07
2.95437e-08
2.38442e-07
2.79859e-08
2.38497e-07
2.66313e-08
2.38495e-07
2.54376e-08
2.38436e-07
2.4372e-08
2.38319e-07
2.3412e-08
2.38142e-07
2.2541e-08
2.37907e-07
2.17469e-08
2.37613e-07
2.10199e-08
2.37264e-07
2.03522e-08
2.36861e-07
1.97377e-08
2.36406e-07
1.91714e-08
2.35902e-07
1.8649e-08
2.35352e-07
1.81671e-08
2.34757e-07
1.77227e-08
2.3412e-07
1.73132e-08
2.33444e-07
1.69362e-08
2.32731e-07
1.65898e-08
2.31984e-07
1.6272e-08
2.31203e-07
1.59816e-08
2.30393e-07
1.5717e-08
2.29553e-07
1.54772e-08
2.28686e-07
1.5261e-08
2.27794e-07
1.50673e-08
2.26877e-07
1.48954e-08
2.25936e-07
1.47432e-08
2.24973e-07
1.46112e-08
2.23987e-07
1.44945e-08
2.22981e-07
1.43971e-08
2.21953e-07
1.43067e-08
2.20905e-07
1.42367e-08
2.19837e-07
1.41589e-08
2.18751e-07
1.41053e-08
2.17643e-07
1.40196e-08
2.16524e-07
1.39586e-08
2.1538e-07
1.38408e-08
2.14232e-07
1.37045e-08
2.13065e-07
1.35345e-08
2.11874e-07
1.31329e-08
2.10697e-07
1.28699e-08
1.20417e-08
2.09345e-07
2.376e-07
6.27699e-08
2.40601e-07
7.7448e-08
2.41973e-07
5.64905e-08
2.43065e-07
4.80711e-08
2.43697e-07
4.3904e-08
2.44063e-07
3.93959e-08
2.44373e-07
3.57538e-08
2.4465e-07
3.31637e-08
2.44883e-07
3.11114e-08
2.45078e-07
2.93494e-08
2.45239e-07
2.78242e-08
2.4537e-07
2.65011e-08
2.45467e-07
2.534e-08
2.45531e-07
2.43086e-08
2.45558e-07
2.33842e-08
2.45549e-07
2.25503e-08
2.45502e-07
2.17944e-08
2.45415e-07
2.11064e-08
2.45289e-07
2.04784e-08
2.45123e-07
1.99037e-08
2.44917e-07
1.9377e-08
2.44673e-07
1.88939e-08
2.44389e-07
1.84507e-08
2.44067e-07
1.80443e-08
2.43708e-07
1.7672e-08
2.43313e-07
1.73312e-08
2.42883e-07
1.702e-08
2.42419e-07
1.67363e-08
2.41922e-07
1.64788e-08
2.41393e-07
1.62459e-08
2.40833e-07
1.60365e-08
2.40245e-07
1.58497e-08
2.39628e-07
1.56844e-08
2.38983e-07
1.55399e-08
2.38312e-07
1.54142e-08
2.37615e-07
1.5308e-08
2.36894e-07
1.52164e-08
2.36147e-07
1.51433e-08
2.35377e-07
1.50773e-08
2.34583e-07
1.50301e-08
2.33766e-07
1.49764e-08
2.32928e-07
1.49429e-08
2.32066e-07
1.48824e-08
2.31188e-07
1.48366e-08
2.30283e-07
1.47455e-08
2.29368e-07
1.46198e-08
2.28431e-07
1.44707e-08
2.2746e-07
1.41039e-08
2.26494e-07
1.38367e-08
1.31572e-08
2.25378e-07
2.4443e-07
5.75959e-08
2.4747e-07
7.44079e-08
2.48793e-07
5.51675e-08
2.49885e-07
4.69789e-08
2.50557e-07
4.32329e-08
2.50939e-07
3.90129e-08
2.51254e-07
3.54396e-08
2.51536e-07
3.28813e-08
2.51777e-07
3.08709e-08
2.51982e-07
2.91445e-08
2.5216e-07
2.76456e-08
2.52316e-07
2.6345e-08
2.52451e-07
2.52054e-08
2.52564e-07
2.41953e-08
2.52656e-07
2.32925e-08
2.52725e-07
2.2481e-08
2.52771e-07
2.17483e-08
2.52793e-07
2.10845e-08
2.5279e-07
2.04816e-08
2.52761e-07
1.99329e-08
2.52705e-07
1.94329e-08
2.52622e-07
1.89771e-08
2.52511e-07
1.85617e-08
2.52371e-07
1.81834e-08
2.52204e-07
1.78395e-08
2.52008e-07
1.75272e-08
2.51784e-07
1.72444e-08
2.51531e-07
1.69889e-08
2.51251e-07
1.67593e-08
2.50943e-07
1.65539e-08
2.50608e-07
1.63715e-08
2.50246e-07
1.62112e-08
2.49859e-07
1.60718e-08
2.49446e-07
1.59527e-08
2.49008e-07
1.58519e-08
2.48546e-07
1.57701e-08
2.4806e-07
1.57027e-08
2.4755e-07
1.5653e-08
2.47017e-07
1.56106e-08
2.46461e-07
1.55855e-08
2.45882e-07
1.55556e-08
2.45283e-07
1.55419e-08
2.44659e-07
1.55062e-08
2.44019e-07
1.54764e-08
2.43354e-07
1.54111e-08
2.42674e-07
1.52999e-08
2.41974e-07
1.51708e-08
2.41233e-07
1.48442e-08
2.40488e-07
1.45816e-08
1.40252e-08
2.3962e-07
2.51478e-07
5.27251e-08
2.54548e-07
7.13377e-08
2.55832e-07
5.38832e-08
2.56919e-07
4.5892e-08
2.57628e-07
4.25243e-08
2.5803e-07
3.86101e-08
2.5835e-07
3.51198e-08
2.58638e-07
3.25939e-08
2.58883e-07
3.06256e-08
2.59092e-07
2.89354e-08
2.59276e-07
2.74621e-08
2.59439e-07
2.61813e-08
2.59585e-07
2.50592e-08
2.59716e-07
2.40651e-08
2.59831e-07
2.31774e-08
2.59931e-07
2.23805e-08
2.60017e-07
2.16626e-08
2.60088e-07
2.10139e-08
2.60143e-07
2.04265e-08
2.60182e-07
1.9894e-08
2.60204e-07
1.94108e-08
2.60208e-07
1.89726e-08
2.60195e-07
1.85754e-08
2.60162e-07
1.8216e-08
2.6011e-07
1.78914e-08
2.60038e-07
1.75992e-08
2.59946e-07
1.73368e-08
2.59832e-07
1.71021e-08
2.59698e-07
1.68934e-08
2.59543e-07
1.6709e-08
2.59367e-07
1.65476e-08
2.5917e-07
1.64082e-08
2.58953e-07
1.62894e-08
2.58715e-07
1.61909e-08
2.58456e-07
1.61105e-08
2.58177e-07
1.60488e-08
2.57879e-07
1.60014e-08
2.5756e-07
1.59713e-08
2.57222e-07
1.5949e-08
2.56865e-07
1.59425e-08
2.56488e-07
1.5933e-08
2.56093e-07
1.59361e-08
2.55678e-07
1.59219e-08
2.55248e-07
1.59064e-08
2.54796e-07
1.58631e-08
2.54328e-07
1.57673e-08
2.53844e-07
1.56553e-08
2.53319e-07
1.53695e-08
2.52783e-07
1.51173e-08
1.46605e-08
2.52148e-07
2.58751e-07
4.81575e-08
2.61841e-07
6.82473e-08
2.63097e-07
5.26269e-08
2.64174e-07
4.48155e-08
2.64917e-07
4.17806e-08
2.65342e-07
3.81853e-08
2.65669e-07
3.47934e-08
2.65961e-07
3.23012e-08
2.66212e-07
3.03751e-08
2.66424e-07
2.87228e-08
2.6661e-07
2.7276e-08
2.66777e-07
2.60151e-08
2.66926e-07
2.49095e-08
2.67062e-07
2.39299e-08
2.67184e-07
2.3055e-08
2.67295e-07
2.22698e-08
2.67394e-07
2.15628e-08
2.67484e-07
2.09248e-08
2.67562e-07
2.0348e-08
2.6763e-07
1.98261e-08
2.67687e-07
1.93539e-08
2.67732e-07
1.89269e-08
2.67766e-07
1.85415e-08
2.67788e-07
1.81943e-08
2.67797e-07
1.78826e-08
2.67793e-07
1.76036e-08
2.67774e-07
1.73549e-08
2.67742e-07
1.71344e-08
2.67695e-07
1.69402e-08
2.67634e-07
1.67705e-08
2.67557e-07
1.66239e-08
2.67466e-07
1.64993e-08
2.6736e-07
1.63955e-08
2.67239e-07
1.63118e-08
2.67104e-07
1.62462e-08
2.66953e-07
1.61993e-08
2.66788e-07
1.61667e-08
2.66608e-07
1.61511e-08
2.66413e-07
1.61437e-08
2.66205e-07
1.6151e-08
2.65981e-07
1.6157e-08
2.65744e-07
1.61725e-08
2.65491e-07
1.61747e-08
2.65228e-07
1.61701e-08
2.64947e-07
1.61434e-08
2.64653e-07
1.60616e-08
2.64346e-07
1.59626e-08
2.64001e-07
1.57144e-08
2.63642e-07
1.54759e-08
1.50973e-08
2.63206e-07
2.66258e-07
4.38916e-08
2.69358e-07
6.51472e-08
2.70597e-07
5.13881e-08
2.71659e-07
4.37538e-08
2.72434e-07
4.10052e-08
2.72882e-07
3.77369e-08
2.73216e-07
3.44595e-08
2.73514e-07
3.20031e-08
2.7377e-07
3.0119e-08
2.73987e-07
2.85062e-08
2.74175e-07
2.70875e-08
2.74343e-07
2.58471e-08
2.74495e-07
2.47584e-08
2.74631e-07
2.37931e-08
2.74756e-07
2.29306e-08
2.74869e-07
2.21562e-08
2.74973e-07
2.1459e-08
2.75068e-07
2.08299e-08
2.75154e-07
2.02617e-08
2.75232e-07
1.97481e-08
2.75302e-07
1.92839e-08
2.75364e-07
1.8865e-08
2.75418e-07
1.84878e-08
2.75463e-07
1.8149e-08
2.755e-07
1.7846e-08
2.75527e-07
1.7576e-08
2.75546e-07
1.73367e-08
2.75554e-07
1.71258e-08
2.75553e-07
1.69413e-08
2.75542e-07
1.67816e-08
2.75521e-07
1.6645e-08
2.7549e-07
1.65305e-08
2.75449e-07
1.64366e-08
2.75397e-07
1.63629e-08
2.75336e-07
1.63072e-08
2.75266e-07
1.62701e-08
2.75185e-07
1.62474e-08
2.75095e-07
1.62412e-08
2.74995e-07
1.62439e-08
2.74886e-07
1.626e-08
2.74766e-07
1.62764e-08
2.74639e-07
1.62997e-08
2.74501e-07
1.63129e-08
2.74356e-07
1.63153e-08
2.742e-07
1.62994e-08
2.74033e-07
1.62288e-08
2.73856e-07
1.61387e-08
2.73648e-07
1.59228e-08
2.73425e-07
1.56989e-08
1.53803e-08
2.73142e-07
2.74009e-07
3.99239e-08
2.77108e-07
6.20485e-08
2.78339e-07
5.01568e-08
2.79382e-07
4.27104e-08
2.80185e-07
4.02023e-08
2.80659e-07
3.72633e-08
2.81001e-07
3.41172e-08
2.81305e-07
3.16997e-08
2.81567e-07
2.98571e-08
2.81787e-07
2.82853e-08
2.81979e-07
2.68963e-08
2.82148e-07
2.56772e-08
2.82301e-07
2.46059e-08
2.82439e-07
2.36554e-08
2.82564e-07
2.28055e-08
2.82678e-07
2.20419e-08
2.82783e-07
2.13543e-08
2.82879e-07
2.07339e-08
2.82967e-07
2.01735e-08
2.83048e-07
1.96673e-08
2.83122e-07
1.92101e-08
2.83189e-07
1.8798e-08
2.83249e-07
1.84274e-08
2.83303e-07
1.80953e-08
2.8335e-07
1.7799e-08
2.8339e-07
1.75358e-08
2.83423e-07
1.73034e-08
2.83449e-07
1.70995e-08
2.83469e-07
1.69221e-08
2.83481e-07
1.67693e-08
2.83486e-07
1.66396e-08
2.83485e-07
1.65319e-08
2.83477e-07
1.64447e-08
2.83462e-07
1.63774e-08
2.83441e-07
1.63281e-08
2.83414e-07
1.6297e-08
2.83381e-07
1.62805e-08
2.83343e-07
1.62799e-08
2.83298e-07
1.62885e-08
2.83249e-07
1.63094e-08
2.83193e-07
1.6332e-08
2.83133e-07
1.63591e-08
2.83068e-07
1.63786e-08
2.82998e-07
1.63848e-08
2.82923e-07
1.63747e-08
2.82839e-07
1.63125e-08
2.8275e-07
1.62276e-08
2.82635e-07
1.60382e-08
2.82505e-07
1.58287e-08
1.55554e-08
2.8233e-07
2.82012e-07
3.62489e-08
2.85098e-07
5.89627e-08
2.86332e-07
4.89232e-08
2.87354e-07
4.16881e-08
2.8818e-07
3.93765e-08
2.8868e-07
3.67631e-08
2.89032e-07
3.37653e-08
2.89341e-07
3.13912e-08
2.89608e-07
2.95894e-08
2.89834e-07
2.80597e-08
2.90028e-07
2.6702e-08
2.902e-07
2.55054e-08
2.90354e-07
2.44519e-08
2.90493e-07
2.35167e-08
2.90619e-07
2.26797e-08
2.90733e-07
2.19273e-08
2.90838e-07
2.12494e-08
2.90934e-07
2.06377e-08
2.91022e-07
2.00853e-08
2.91103e-07
1.95863e-08
2.91178e-07
1.91359e-08
2.91245e-07
1.87302e-08
2.91307e-07
1.83657e-08
2.91363e-07
1.80396e-08
2.91412e-07
1.77492e-08
2.91456e-07
1.7492e-08
2.91494e-07
1.72654e-08
2.91526e-07
1.70673e-08
2.91553e-07
1.68955e-08
2.91574e-07
1.67482e-08
2.9159e-07
1.66238e-08
2.91601e-07
1.6521e-08
2.91607e-07
1.64385e-08
2.91609e-07
1.63757e-08
2.91606e-07
1.63305e-08
2.916e-07
1.63032e-08
2.9159e-07
1.62903e-08
2.91578e-07
1.62927e-08
2.91561e-07
1.63047e-08
2.91543e-07
1.63277e-08
2.91522e-07
1.63533e-08
2.915e-07
1.63816e-08
2.91474e-07
1.64039e-08
2.91448e-07
1.64114e-08
2.91419e-07
1.64035e-08
2.91384e-07
1.63471e-08
2.91347e-07
1.62652e-08
2.91288e-07
1.6097e-08
2.91215e-07
1.59012e-08
1.56619e-08
2.91109e-07
2.90278e-07
3.28597e-08
2.93339e-07
5.59015e-08
2.94584e-07
4.76785e-08
2.95583e-07
4.06887e-08
2.96427e-07
3.8533e-08
2.96954e-07
3.62356e-08
2.97317e-07
3.34024e-08
2.97631e-07
3.10774e-08
2.97905e-07
2.93158e-08
2.98135e-07
2.78291e-08
2.98333e-07
2.65044e-08
2.98507e-07
2.53312e-08
2.98663e-07
2.42963e-08
2.98803e-07
2.33768e-08
2.98929e-07
2.25532e-08
2.99044e-07
2.18124e-08
2.99149e-07
2.11445e-08
2.99245e-07
2.05418e-08
2.99333e-07
1.99974e-08
2.99413e-07
1.95057e-08
2.99487e-07
1.90622e-08
2.99554e-07
1.86629e-08
2.99616e-07
1.83045e-08
2.99671e-07
1.79843e-08
2.9972e-07
1.76997e-08
2.99764e-07
1.74481e-08
2.99803e-07
1.7227e-08
2.99836e-07
1.70342e-08
2.99864e-07
1.68675e-08
2.99887e-07
1.67251e-08
2.99905e-07
1.66052e-08
2.9992e-07
1.65066e-08
2.99931e-07
1.64279e-08
2.99938e-07
1.63684e-08
2.99942e-07
1.63263e-08
2.99944e-07
1.63014e-08
2.99943e-07
1.62909e-08
2.99941e-07
1.62948e-08
2.99937e-07
1.63085e-08
2.99933e-07
1.63321e-08
2.99927e-07
1.63588e-08
2.99922e-07
1.63869e-08
2.99916e-07
1.64097e-08
2.99911e-07
1.64171e-08
2.99905e-07
1.64092e-08
2.99895e-07
1.6357e-08
2.99883e-07
1.62769e-08
2.99855e-07
1.61256e-08
2.99813e-07
1.5943e-08
1.57298e-08
2.99745e-07
2.98815e-07
2.97474e-08
3.0184e-07
5.28769e-08
3.03103e-07
4.64148e-08
3.04079e-07
3.97131e-08
3.04935e-07
3.76773e-08
3.0549e-07
3.56801e-08
3.05865e-07
3.30269e-08
3.06185e-07
3.07584e-08
3.06464e-07
2.90363e-08
3.067e-07
2.75931e-08
3.06901e-07
2.63032e-08
3.07078e-07
2.51546e-08
3.07235e-07
2.41389e-08
3.07377e-07
2.32356e-08
3.07504e-07
2.24259e-08
3.07619e-07
2.16969e-08
3.07724e-07
2.10394e-08
3.0782e-07
2.04459e-08
3.07908e-07
1.99098e-08
3.07988e-07
1.94257e-08
3.08061e-07
1.89892e-08
3.08127e-07
1.85964e-08
3.08188e-07
1.82443e-08
3.08242e-07
1.79301e-08
3.0829e-07
1.76512e-08
3.08333e-07
1.74053e-08
3.08371e-07
1.71897e-08
3.08403e-07
1.70022e-08
3.0843e-07
1.68405e-08
3.08452e-07
1.67028e-08
3.0847e-07
1.65871e-08
3.08484e-07
1.64924e-08
3.08495e-07
1.64171e-08
3.08503e-07
1.63606e-08
3.08508e-07
1.6321e-08
3.08511e-07
1.62981e-08
3.08513e-07
1.62893e-08
3.08514e-07
1.62941e-08
3.08513e-07
1.63087e-08
3.08513e-07
1.63321e-08
3.08513e-07
1.6359e-08
3.08514e-07
1.63861e-08
3.08515e-07
1.64084e-08
3.08517e-07
1.64151e-08
3.0852e-07
1.64061e-08
3.0852e-07
1.63571e-08
3.08519e-07
1.62787e-08
3.08503e-07
1.61412e-08
3.08475e-07
1.59714e-08
1.57789e-08
3.08425e-07
3.07633e-07
2.69014e-08
3.10609e-07
4.9901e-08
3.11899e-07
4.51253e-08
3.12851e-07
3.87611e-08
3.13713e-07
3.68147e-08
3.14296e-07
3.50971e-08
3.14686e-07
3.26374e-08
3.1501e-07
3.04338e-08
3.15295e-07
2.8751e-08
3.15537e-07
2.73515e-08
3.15742e-07
2.60979e-08
3.15922e-07
2.49753e-08
3.16081e-07
2.39795e-08
3.16224e-07
2.30929e-08
3.16352e-07
2.22975e-08
3.16468e-07
2.15808e-08
3.16574e-07
2.0934e-08
3.1667e-07
2.03499e-08
3.16757e-07
1.98224e-08
3.16837e-07
1.93461e-08
3.16909e-07
1.89168e-08
3.16975e-07
1.85307e-08
3.17034e-07
1.8185e-08
3.17087e-07
1.7877e-08
3.17134e-07
1.76041e-08
3.17176e-07
1.73639e-08
3.17211e-07
1.71539e-08
3.17242e-07
1.69718e-08
3.17267e-07
1.68152e-08
3.17288e-07
1.66821e-08
3.17304e-07
1.65708e-08
3.17317e-07
1.64799e-08
3.17326e-07
1.64079e-08
3.17332e-07
1.63542e-08
3.17336e-07
1.63171e-08
3.17338e-07
1.6296e-08
3.17339e-07
1.62886e-08
3.17339e-07
1.62942e-08
3.17338e-07
1.63093e-08
3.17338e-07
1.63324e-08
3.17338e-07
1.6359e-08
3.17339e-07
1.63849e-08
3.17341e-07
1.64061e-08
3.17344e-07
1.6412e-08
3.17349e-07
1.64019e-08
3.1735e-07
1.63557e-08
3.17349e-07
1.62794e-08
3.17337e-07
1.61536e-08
3.17312e-07
1.59962e-08
1.5821e-08
3.1727e-07
3.16743e-07
2.43097e-08
3.19658e-07
4.69858e-08
3.20979e-07
4.38048e-08
3.21908e-07
3.78318e-08
3.22772e-07
3.59505e-08
3.23382e-07
3.44877e-08
3.23787e-07
3.22321e-08
3.24117e-07
3.01034e-08
3.24408e-07
2.84601e-08
3.24656e-07
2.71041e-08
3.24865e-07
2.58883e-08
3.25048e-07
2.47929e-08
3.25209e-07
2.38178e-08
3.25354e-07
2.29484e-08
3.25483e-07
2.21679e-08
3.256e-07
2.14639e-08
3.25706e-07
2.08282e-08
3.25802e-07
2.02538e-08
3.2589e-07
1.97351e-08
3.25969e-07
1.92669e-08
3.26041e-07
1.88449e-08
3.26106e-07
1.84658e-08
3.26164e-07
1.81267e-08
3.26216e-07
1.7825e-08
3.26262e-07
1.75582e-08
3.26302e-07
1.7324e-08
3.26336e-07
1.71198e-08
3.26365e-07
1.69432e-08
3.26388e-07
1.67917e-08
3.26407e-07
1.66635e-08
3.26421e-07
1.65565e-08
3.26431e-07
1.64695e-08
3.26438e-07
1.64009e-08
3.26443e-07
1.63501e-08
3.26444e-07
1.63153e-08
3.26444e-07
1.6296e-08
3.26443e-07
1.62901e-08
3.26441e-07
1.62964e-08
3.26438e-07
1.6312e-08
3.26435e-07
1.63348e-08
3.26433e-07
1.6361e-08
3.26432e-07
1.63859e-08
3.26433e-07
1.6406e-08
3.26433e-07
1.64113e-08
3.26435e-07
1.64001e-08
3.26434e-07
1.63566e-08
3.2643e-07
1.62832e-08
3.26416e-07
1.61677e-08
3.2639e-07
1.60226e-08
1.58624e-08
3.26348e-07
3.26153e-07
2.19589e-08
3.28996e-07
4.4143e-08
3.30351e-07
4.24495e-08
3.3126e-07
3.69232e-08
3.32121e-07
3.50893e-08
3.32756e-07
3.38534e-08
3.33178e-07
3.18097e-08
3.33515e-07
2.97664e-08
3.33811e-07
2.81635e-08
3.34065e-07
2.68506e-08
3.34279e-07
2.5674e-08
3.34465e-07
2.46073e-08
3.34629e-07
2.36537e-08
3.34775e-07
2.28021e-08
3.34906e-07
2.20368e-08
3.35024e-07
2.1346e-08
3.35131e-07
2.07216e-08
3.35227e-07
2.01574e-08
3.35315e-07
1.96478e-08
3.35394e-07
1.91878e-08
3.35465e-07
1.87735e-08
3.35529e-07
1.84016e-08
3.35587e-07
1.80692e-08
3.35638e-07
1.7774e-08
3.35682e-07
1.75136e-08
3.35721e-07
1.72855e-08
3.35754e-07
1.70872e-08
3.3578e-07
1.69162e-08
3.35802e-07
1.67701e-08
3.35819e-07
1.66468e-08
3.35831e-07
1.65443e-08
3.35839e-07
1.64612e-08