/*--------------------------------*- C++ -*----------------------------------*\
  =========                 |
  \\      /  F ield         | OpenFOAM: The Open Source CFD Toolbox
   \\    /   O peration     | Website:  https://openfoam.org
    \\  /    A nd           | Version:  7
     \\/     M anipulation  |
\*---------------------------------------------------------------------------*/
FoamFile
{
    version     2.0;
    format      ascii;
    class       volVectorField;
    location    "0.03";
    object      wallShearStress;
}
// * * * * * * * * * * * * * * * * * * * * * * * * * * * * * * * * * * * * * //

dimensions      [0 2 -2 0 0 0 0];

internalField   uniform (0 0 0);

boundaryField
{
    velocityInlet
    {
        type            calculated;
        value           uniform (0 0 0);
    }
    pressureOutlet
    {
        type            calculated;
        value           uniform (0 0 0);
    }
    fixedWalls
    {
        type            calculated;
        value           nonuniform List<vector> 
100
(
(-0.0164342 -0.00456042 0)
(-0.00313348 -0.000874533 0)
(-0.00364136 0.000224348 0)
(-0.00428088 0.000139213 0)
(-0.00468889 6.59178e-05 0)
(-0.00476902 1.67527e-05 0)
(-0.00456362 -2.27335e-05 0)
(-0.00419908 -4.58006e-05 0)
(-0.00375972 -5.91373e-05 0)
(-0.00329449 -6.558e-05 0)
(-0.00284409 -6.53927e-05 0)
(-0.00244716 -5.85755e-05 0)
(-0.00213755 -4.60593e-05 0)
(-0.00193998 -3.02775e-05 0)
(-0.00186508 -1.43907e-05 0)
(-0.00190676 3.20149e-06 0)
(-0.0020449 1.67526e-05 0)
(-0.00225051 2.57502e-05 0)
(-0.0024911 3.00456e-05 0)
(-0.00273621 3.02172e-05 0)
(-0.00296087 2.72554e-05 0)
(-0.00314728 2.2296e-05 0)
(-0.00328509 1.65481e-05 0)
(-0.00337043 1.10478e-05 0)
(-0.00340508 6.68908e-06 0)
(-0.00339548 2.19967e-06 0)
(-0.00335104 -1.16548e-06 0)
(-0.00328204 -3.47868e-06 0)
(-0.00319798 -5.02562e-06 0)
(-0.00310521 -6.30891e-06 0)
(-0.00300529 -8.07901e-06 0)
(-0.0028975 -1.0549e-05 0)
(-0.00279024 -1.17005e-05 0)
(-0.00271319 -9.08368e-06 0)
(-0.00270812 -1.82628e-06 0)
(-0.00281276 1.06596e-05 0)
(-0.00307182 3.11514e-05 0)
(-0.00354477 6.26481e-05 0)
(-0.00423745 9.52302e-05 0)
(-0.00500178 0.000106812 0)
(-0.0055246 7.91881e-05 0)
(-0.00540979 -1.01422e-05 0)
(-0.00440628 -0.000131646 0)
(-0.00274162 -0.00021234 0)
(-0.00109925 -0.000198667 0)
(-0.000189011 -9.84049e-05 0)
(-0.000372234 2.32647e-05 0)
(-0.0014304 0.000115526 0)
(-0.00283533 0.000148951 0)
(-0.00424197 0.000151536 0)
(-0.00553299 0.000153059 0)
(-0.00654971 0.000137964 0)
(-0.00690241 8.13369e-05 0)
(-0.00603264 -6.82671e-05 0)
(-0.00342745 -0.000334623 0)
(0.000739694 -0.000472987 0)
(0.00494155 -0.000503834 0)
(0.00789972 -0.000347303 0)
(0.00876415 -9.02797e-05 0)
(0.00749941 0.000147192 0)
(0.00486945 0.000277019 0)
(0.00193368 0.000277922 0)
(-0.00050816 0.000218618 0)
(-0.00215032 0.000136065 0)
(-0.0030465 6.84934e-05 0)
(-0.00340931 2.51757e-05 0)
(-0.00345779 1.79429e-06 0)
(-0.00335054 -9.91443e-06 0)
(-0.00318983 -1.31976e-05 0)
(-0.00304745 -1.01147e-05 0)
(-0.00298167 -2.46133e-06 0)
(-0.00303386 9.36294e-06 0)
(-0.00320128 1.97792e-05 0)
(-0.00342466 2.291e-05 0)
(-0.00363888 2.04824e-05 0)
(-0.00383843 2.00873e-05 0)
(-0.00406656 2.46807e-05 0)
(-0.00434893 3.05356e-05 0)
(-0.0046465 3.16896e-05 0)
(-0.00485267 2.44081e-05 0)
(-0.00483892 6.29826e-06 0)
(-0.00449276 -2.47114e-05 0)
(-0.00373481 -6.67051e-05 0)
(-0.00257968 -0.000109291 0)
(-0.00124848 -0.000128729 0)
(-0.000104617 -0.000107508 0)
(0.000473353 -5.11707e-05 0)
(0.000264073 2.23066e-05 0)
(-0.000669761 7.65808e-05 0)
(-0.00197181 0.000102398 0)
(-0.00315307 8.18793e-05 0)
(-0.00386411 4.07696e-05 0)
(-0.00414664 1.20586e-05 0)
(-0.00427007 6.07045e-06 0)
(-0.0046012 2.65731e-05 0)
(-0.00512687 4.15397e-05 0)
(-0.00551929 3.46774e-05 0)
(-0.00614642 2.63753e-05 0)
(-0.00570118 -8.62233e-06 0)
(-0.00666492 2.15767e-05 0)
)
;
    }
    bottomWall
    {
        type            calculated;
        value           nonuniform List<vector> 
800
(
(-0.0353488 0.00214397 0)
(-0.0160267 0.000524822 0)
(-0.0106083 0.000100699 0)
(-0.00845698 3.52409e-05 0)
(-0.00748796 1.98373e-05 0)
(-0.00685513 1.60944e-05 0)
(-0.00634858 1.33256e-05 0)
(-0.00593846 1.08665e-05 0)
(-0.00560479 9.04201e-06 0)
(-0.00532715 7.7227e-06 0)
(-0.00509095 6.72297e-06 0)
(-0.00488674 5.93225e-06 0)
(-0.00470807 5.29086e-06 0)
(-0.00455017 4.76152e-06 0)
(-0.00440949 4.31831e-06 0)
(-0.00428324 3.94271e-06 0)
(-0.00416922 3.6208e-06 0)
(-0.00406569 3.34221e-06 0)
(-0.00397123 3.09895e-06 0)
(-0.00388469 2.88493e-06 0)
(-0.0038051 2.69529e-06 0)
(-0.00373165 2.52603e-06 0)
(-0.00366367 2.37408e-06 0)
(-0.0036006 2.23707e-06 0)
(-0.00354191 2.11283e-06 0)
(-0.0034872 1.9995e-06 0)
(-0.0034361 1.89595e-06 0)
(-0.00338828 1.80084e-06 0)
(-0.00334345 1.71304e-06 0)
(-0.00330138 1.63183e-06 0)
(-0.00326183 1.5564e-06 0)
(-0.00322463 1.48613e-06 0)
(-0.00318957 1.42048e-06 0)
(-0.00315653 1.3588e-06 0)
(-0.00312535 1.30084e-06 0)
(-0.00309592 1.24633e-06 0)
(-0.0030681 1.19472e-06 0)
(-0.00304181 1.14582e-06 0)
(-0.00301694 1.09936e-06 0)
(-0.00299342 1.05516e-06 0)
(-0.00297116 1.01299e-06 0)
(-0.0029501 9.72647e-07 0)
(-0.00293015 9.34165e-07 0)
(-0.00291128 8.97091e-07 0)
(-0.0028934 8.61768e-07 0)
(-0.0028765 8.27259e-07 0)
(-0.00286048 7.94963e-07 0)
(-0.00284534 7.62404e-07 0)
(-0.00283099 7.32924e-07 0)
(-0.00281745 7.00743e-07 0)
(-0.00280637 6.74031e-07 0)
(-0.00279736 6.58952e-07 0)
(-0.00278858 6.39464e-07 0)
(-0.00278007 6.18159e-07 0)
(-0.00277186 5.97874e-07 0)
(-0.00276391 5.78425e-07 0)
(-0.00275623 5.5917e-07 0)
(-0.00274881 5.40119e-07 0)
(-0.00274165 5.21474e-07 0)
(-0.00273474 5.03236e-07 0)
(-0.00272808 4.85062e-07 0)
(-0.00272167 4.66947e-07 0)
(-0.00271551 4.4939e-07 0)
(-0.00270958 4.32058e-07 0)
(-0.00270389 4.14781e-07 0)
(-0.00269844 3.98061e-07 0)
(-0.0026932 3.81395e-07 0)
(-0.00268819 3.64951e-07 0)
(-0.00268341 3.49064e-07 0)
(-0.00267883 3.33232e-07 0)
(-0.00267447 3.17627e-07 0)
(-0.00267031 3.02416e-07 0)
(-0.00266636 2.87601e-07 0)
(-0.0026626 2.73019e-07 0)
(-0.00265904 2.58838e-07 0)
(-0.00265565 2.45061e-07 0)
(-0.00265245 2.31355e-07 0)
(-0.00264943 2.18223e-07 0)
(-0.00264658 2.05331e-07 0)
(-0.0026439 1.92848e-07 0)
(-0.00264137 1.80943e-07 0)
(-0.002639 1.69287e-07 0)
(-0.00263677 1.58051e-07 0)
(-0.00263468 1.47079e-07 0)
(-0.00263273 1.36715e-07 0)
(-0.00263091 1.26975e-07 0)
(-0.0026292 1.17545e-07 0)
(-0.00262761 1.08613e-07 0)
(-0.00262613 1.00367e-07 0)
(-0.00262475 9.28293e-08 0)
(-0.00262345 8.58529e-08 0)
(-0.00262224 7.92877e-08 0)
(-0.00262111 7.34739e-08 0)
(-0.00262004 6.8413e-08 0)
(-0.00261904 6.37625e-08 0)
(-0.00261809 5.95063e-08 0)
(-0.00261721 5.5782e-08 0)
(-0.00261636 5.23884e-08 0)
(-0.00261557 4.89496e-08 0)
(-0.00261483 4.5755e-08 0)
(-0.00261414 4.27573e-08 0)
(-0.00261348 3.95807e-08 0)
(-0.00261288 3.6352e-08 0)
(-0.00261233 3.28749e-08 0)
(-0.00261183 2.91254e-08 0)
(-0.00261138 2.52593e-08 0)
(-0.00261099 2.12722e-08 0)
(-0.00261066 1.70053e-08 0)
(-0.00261038 1.26343e-08 0)
(-0.00261016 8.17007e-09 0)
(-0.00261 3.61258e-09 0)
(-0.00260989 -7.83781e-10 0)
(-0.00260984 -4.9458e-09 0)
(-0.00260985 -9.19179e-09 0)
(-0.0026099 -1.35287e-08 0)
(-0.00261 -1.72824e-08 0)
(-0.00261016 -2.07622e-08 0)
(-0.00261036 -2.43251e-08 0)
(-0.0026106 -2.7517e-08 0)
(-0.00261088 -3.07042e-08 0)
(-0.00261121 -3.37441e-08 0)
(-0.00261156 -3.66362e-08 0)
(-0.00261197 -3.95304e-08 0)
(-0.0026124 -4.20684e-08 0)
(-0.00261287 -4.47457e-08 0)
(-0.00261337 -4.75712e-08 0)
(-0.00261391 -5.00495e-08 0)
(-0.00261448 -5.25603e-08 0)
(-0.00261509 -5.51762e-08 0)
(-0.00261573 -5.76505e-08 0)
(-0.0026164 -6.01233e-08 0)
(-0.0026171 -6.26008e-08 0)
(-0.00261783 -6.50596e-08 0)
(-0.0026186 -6.73464e-08 0)
(-0.00261939 -6.96295e-08 0)
(-0.00262021 -7.20649e-08 0)
(-0.00262107 -7.4327e-08 0)
(-0.00262195 -7.65775e-08 0)
(-0.00262286 -7.88198e-08 0)
(-0.0026238 -8.08732e-08 0)
(-0.00262477 -8.2913e-08 0)
(-0.00262576 -8.49556e-08 0)
(-0.00262677 -8.69615e-08 0)
(-0.00262781 -8.89805e-08 0)
(-0.00262888 -9.09462e-08 0)
(-0.00262997 -9.27915e-08 0)
(-0.00263108 -9.47141e-08 0)
(-0.00263222 -9.65633e-08 0)
(-0.00263338 -9.81194e-08 0)
(-0.00263456 -9.99626e-08 0)
(-0.00263557 -1.0155e-07 0)
(-0.00263642 -1.02516e-07 0)
(-0.00263729 -1.03359e-07 0)
(-0.00263816 -1.04493e-07 0)
(-0.00263905 -1.05663e-07 0)
(-0.00263996 -1.06717e-07 0)
(-0.00264089 -1.0805e-07 0)
(-0.00264183 -1.09087e-07 0)
(-0.00264279 -1.09878e-07 0)
(-0.00264376 -1.10891e-07 0)
(-0.00264475 -1.12104e-07 0)
(-0.00264576 -1.1306e-07 0)
(-0.00264678 -1.13838e-07 0)
(-0.00264781 -1.14737e-07 0)
(-0.00264887 -1.15913e-07 0)
(-0.00264994 -1.17026e-07 0)
(-0.00265103 -1.17695e-07 0)
(-0.00265213 -1.18558e-07 0)
(-0.00265325 -1.19626e-07 0)
(-0.00265439 -1.2026e-07 0)
(-0.00265554 -1.21078e-07 0)
(-0.00265671 -1.22085e-07 0)
(-0.00265789 -1.22916e-07 0)
(-0.00265909 -1.23654e-07 0)
(-0.00266031 -1.24452e-07 0)
(-0.00266155 -1.24983e-07 0)
(-0.00266279 -1.25894e-07 0)
(-0.00266406 -1.26602e-07 0)
(-0.00266534 -1.2707e-07 0)
(-0.00266663 -1.27716e-07 0)
(-0.00266794 -1.28385e-07 0)
(-0.00266927 -1.28948e-07 0)
(-0.00267061 -1.29362e-07 0)
(-0.00267197 -1.29715e-07 0)
(-0.00267333 -1.30235e-07 0)
(-0.00267472 -1.30577e-07 0)
(-0.00267611 -1.30863e-07 0)
(-0.00267752 -1.31325e-07 0)
(-0.00267894 -1.31656e-07 0)
(-0.00268038 -1.3188e-07 0)
(-0.00268183 -1.32208e-07 0)
(-0.00268329 -1.32636e-07 0)
(-0.00268477 -1.32873e-07 0)
(-0.00268626 -1.3276e-07 0)
(-0.00268775 -1.32972e-07 0)
(-0.00268927 -1.33177e-07 0)
(-0.00269079 -1.33108e-07 0)
(-0.00269232 -1.33018e-07 0)
(-0.00269386 -1.32774e-07 0)
(-0.0026954 -1.32356e-07 0)
(-0.00269695 -1.32177e-07 0)
(-0.00269852 -1.31719e-07 0)
(-0.00270008 -1.3106e-07 0)
(-0.00270165 -1.3062e-07 0)
(-0.00270323 -1.30119e-07 0)
(-0.00270481 -1.29518e-07 0)
(-0.0027064 -1.29192e-07 0)
(-0.00270799 -1.28782e-07 0)
(-0.00270959 -1.28227e-07 0)
(-0.00271119 -1.27745e-07 0)
(-0.00271279 -1.27378e-07 0)
(-0.0027144 -1.2655e-07 0)
(-0.00271599 -1.25509e-07 0)
(-0.0027176 -1.24413e-07 0)
(-0.00271918 -1.22943e-07 0)
(-0.00272077 -1.21153e-07 0)
(-0.00272234 -1.1912e-07 0)
(-0.00272389 -1.17021e-07 0)
(-0.00272544 -1.14933e-07 0)
(-0.00272696 -1.12946e-07 0)
(-0.00272848 -1.11078e-07 0)
(-0.00272998 -1.09478e-07 0)
(-0.00273147 -1.08256e-07 0)
(-0.00273296 -1.07208e-07 0)
(-0.00273444 -1.06235e-07 0)
(-0.0027359 -1.04941e-07 0)
(-0.00273734 -1.03619e-07 0)
(-0.00273877 -1.01389e-07 0)
(-0.00274015 -9.8386e-08 0)
(-0.0027415 -9.46054e-08 0)
(-0.00274279 -8.99112e-08 0)
(-0.00274403 -8.43583e-08 0)
(-0.00274521 -7.91206e-08 0)
(-0.00274632 -7.32927e-08 0)
(-0.00274738 -6.9336e-08 0)
(-0.00274839 -6.42353e-08 0)
(-0.00274937 -6.2859e-08 0)
(-0.00275028 -5.88032e-08 0)
(-0.00275123 -6.18562e-08 0)
(-0.00275208 -5.61306e-08 0)
(-0.00275303 -6.47481e-08 0)
(-0.00275379 -5.25031e-08 0)
(-0.00275472 -6.73796e-08 0)
(-0.00275529 -4.14403e-08 0)
(-0.00275614 -6.43113e-08 0)
(-0.00275639 -1.7725e-08 0)
(-0.00275704 -5.21678e-08 0)
(-0.00275692 1.52147e-08 0)
(-0.00275722 -2.88843e-08 0)
(-0.00275665 3.79456e-08 0)
(-0.0353488 -0.00214399 0)
(-0.0160261 -0.000524859 0)
(-0.0106065 -0.000100749 0)
(-0.00845366 -3.52944e-05 0)
(-0.00748272 -1.99011e-05 0)
(-0.00684754 -1.61703e-05 0)
(-0.00633821 -1.34134e-05 0)
(-0.0059249 -1.09672e-05 0)
(-0.00558764 -9.15652e-06 0)
(-0.00530594 -7.85218e-06 0)
(-0.00506522 -6.86836e-06 0)
(-0.00485601 -6.09469e-06 0)
(-0.00467183 -5.47104e-06 0)
(-0.00450794 -4.95996e-06 0)
(-0.00436076 -4.53564e-06 0)
(-0.00422751 -4.17932e-06 0)
(-0.00410599 -3.87697e-06 0)
(-0.00399448 -3.61842e-06 0)
(-0.00389155 -3.39589e-06 0)
(-0.00379602 -3.20298e-06 0)
(-0.00370696 -3.03515e-06 0)
(-0.00362353 -2.88858e-06 0)
(-0.00354506 -2.76006e-06 0)
(-0.00347095 -2.64716e-06 0)
(-0.00340073 -2.54771e-06 0)
(-0.00333393 -2.4601e-06 0)
(-0.0032702 -2.3826e-06 0)
(-0.00320921 -2.31418e-06 0)
(-0.00315067 -2.25365e-06 0)
(-0.00309433 -2.20002e-06 0)
(-0.00303998 -2.1519e-06 0)
(-0.00298741 -2.10942e-06 0)
(-0.00293648 -2.07025e-06 0)
(-0.00288703 -2.03562e-06 0)
(-0.00283898 -2.00151e-06 0)
(-0.00279218 -1.97157e-06 0)
(-0.00274661 -1.93796e-06 0)
(-0.00270221 -1.90864e-06 0)
(-0.00265888 -1.87027e-06 0)
(-0.00261693 -1.83502e-06 0)
(-0.00257565 -1.78769e-06 0)
(-0.00253676 -1.73061e-06 0)
(-0.00249705 -1.67996e-06 0)
(-0.00246318 -1.5518e-06 0)
(-0.00242331 -1.54635e-06 0)
(-0.00239994 -1.18755e-06 0)
(-0.00235409 -1.44613e-06 0)
(-0.00235526 -8.86258e-08 0)
(-0.00229579 -4.88531e-06 0)
(-0.00218919 0.000166299 0)
(-2.55827e-06 2.29139e-06 0)
(8.23344e-07 1.29325e-06 0)
(2.49191e-06 -6.09937e-06 0)
(2.83501e-06 -1.3979e-05 0)
(2.85717e-06 -2.19854e-05 0)
(2.79327e-06 -2.97408e-05 0)
(2.73704e-06 -3.7311e-05 0)
(2.68635e-06 -4.4727e-05 0)
(2.63506e-06 -5.20005e-05 0)
(2.58004e-06 -5.91331e-05 0)
(2.52015e-06 -6.61228e-05 0)
(2.45471e-06 -7.29668e-05 0)
(2.38333e-06 -7.96614e-05 0)
(2.30574e-06 -8.62028e-05 0)
(2.22157e-06 -9.25867e-05 0)
(2.13041e-06 -9.88084e-05 0)
(2.03161e-06 -0.000104863 0)
(1.92514e-06 -0.000110744 0)
(1.81035e-06 -0.000116449 0)
(1.68681e-06 -0.000121967 0)
(1.55454e-06 -0.000127296 0)
(1.41269e-06 -0.000132427 0)
(1.26075e-06 -0.000137355 0)
(1.09857e-06 -0.000142071 0)
(9.25863e-07 -0.000146569 0)
(7.4196e-07 -0.000150842 0)
(5.46883e-07 -0.00015488 0)
(3.39961e-07 -0.000158679 0)
(1.21072e-07 -0.000162227 0)
(-1.10279e-07 -0.000165521 0)
(-3.54375e-07 -0.000168549 0)
(-6.11156e-07 -0.000171306 0)
(-8.81619e-07 -0.000173784 0)
(-1.16529e-06 -0.000175972 0)
(-1.46261e-06 -0.000177867 0)
(-1.77422e-06 -0.000179457 0)
(-2.09959e-06 -0.000180737 0)
(-2.43928e-06 -0.0001817 0)
(-2.7934e-06 -0.000182337 0)
(-3.16143e-06 -0.000182642 0)
(-3.54282e-06 -0.000182608 0)
(-3.93771e-06 -0.00018223 0)
(-4.3469e-06 -0.000181501 0)
(-4.7708e-06 -0.000180416 0)
(-5.20947e-06 -0.000178967 0)
(-5.66283e-06 -0.000177149 0)
(-6.13096e-06 -0.000174955 0)
(-6.61234e-06 -0.00017238 0)
(-7.1072e-06 -0.000169421 0)
(-7.61645e-06 -0.00016607 0)
(-8.14008e-06 -0.000162323 0)
(-8.67883e-06 -0.000158176 0)
(-9.23323e-06 -0.000153622 0)
(-9.80321e-06 -0.000148658 0)
(-1.03878e-05 -0.000143276 0)
(-1.09868e-05 -0.000137475 0)
(-1.16006e-05 -0.000131249 0)
(-1.22288e-05 -0.000124593 0)
(-1.28715e-05 -0.000117504 0)
(-1.3529e-05 -0.000109977 0)
(-1.42013e-05 -0.000102008 0)
(-1.48878e-05 -9.35921e-05 0)
(-1.55882e-05 -8.47267e-05 0)
(-1.63026e-05 -7.54069e-05 0)
(-1.70302e-05 -6.56288e-05 0)
(-1.77705e-05 -5.53885e-05 0)
(-1.85224e-05 -4.46822e-05 0)
(-1.92848e-05 -3.3506e-05 0)
(-2.00564e-05 -2.18564e-05 0)
(-2.08352e-05 -9.72953e-06 0)
(-2.16185e-05 2.87894e-06 0)
(-2.24043e-05 1.59713e-05 0)
(-2.31878e-05 2.95527e-05 0)
(-2.3966e-05 4.36274e-05 0)
(-2.47324e-05 5.82007e-05 0)
(-2.54818e-05 7.32856e-05 0)
(-2.62065e-05 8.88943e-05 0)
(-2.68979e-05 0.000105045 0)
(-2.75474e-05 0.000121763 0)
(-2.81434e-05 0.000139077 0)
(-2.86707e-05 0.00015701 0)
(-2.91131e-05 0.000175568 0)
(-2.94481e-05 0.000194715 0)
(-2.96504e-05 0.000214355 0)
(-2.96964e-05 0.00023435 0)
(-2.95641e-05 0.000254555 0)
(-2.92342e-05 0.000274858 0)
(-2.86842e-05 0.00029519 0)
(-2.78881e-05 0.000315501 0)
(-2.68153e-05 0.000335752 0)
(-2.5428e-05 0.000355891 0)
(-2.36869e-05 0.000375854 0)
(-2.15419e-05 0.000395558 0)
(-1.89685e-05 0.000414901 0)
(-1.59348e-05 0.000433784 0)
(-1.24172e-05 0.000452084 0)
(-8.41292e-06 0.000469665 0)
(-3.94358e-06 0.000486389 0)
(9.40821e-07 0.000502106 0)
(6.148e-06 0.000516661 0)
(1.1533e-05 0.000529889 0)
(1.68776e-05 0.000541619 0)
(2.18678e-05 0.000551669 0)
(2.60592e-05 0.00055987 0)
(2.88548e-05 0.000566107 0)
(2.95204e-05 0.000570394 0)
(2.72943e-05 0.000572976 0)
(2.16486e-05 0.000574422 0)
(1.28096e-05 0.000575368 0)
(2.40836e-06 0.000577063 0)
(-6.40804e-06 0.000580303 0)
(-9.57235e-06 0.000584398 0)
(-3.6076e-06 0.000586813 0)
(1.23399e-05 0.000583605 0)
(3.62978e-05 0.000571159 0)
(6.46875e-05 0.000548172 0)
(9.47047e-05 0.000515549 0)
(0.00012481 0.000474369 0)
(0.000153068 0.000424856 0)
(0.000175891 0.000367916 0)
(0.00018953 0.000307292 0)
(0.000193877 0.000250154 0)
(0.000191782 0.000202393 0)
(0.000184755 0.000164916 0)
(0.000174703 0.000138166 0)
(0.000161722 0.000121737 0)
(0.000144402 0.000114867 0)
(0.000119989 0.000116447 0)
(8.39376e-05 0.000123985 0)
(2.84339e-05 0.000135918 0)
(-5.46689e-05 0.000157195 0)
(-0.000165996 0.000202777 0)
(-0.000290302 0.000290791 0)
(-0.00039894 0.00042361 0)
(-0.000470031 0.000580472 0)
(-0.000502455 0.000734903 0)
(-0.000507864 0.000875044 0)
(-0.000496327 0.00100121 0)
(-0.000473321 0.00111506 0)
(-0.000442274 0.0012168 0)
(-0.00040569 0.00130639 0)
(-0.000365459 0.00138391 0)
(-0.000323035 0.00144953 0)
(-0.000279571 0.00150355 0)
(-0.000236006 0.00154637 0)
(-0.000193103 0.00157845 0)
(-0.000151539 0.00160038 0)
(-0.000111806 0.00161296 0)
(-7.41147e-05 0.00161693 0)
(-3.90343e-05 0.00161289 0)
(-6.82784e-06 0.00160209 0)
(2.30018e-05 0.00158537 0)
(5.05284e-05 0.00156319 0)
(7.57464e-05 0.00153621 0)
(9.87832e-05 0.00150494 0)
(0.00011971 0.00146992 0)
(0.000138683 0.00143166 0)
(0.000155816 0.00139058 0)
(0.000171235 0.00134714 0)
(0.000185108 0.00130169 0)
(0.000197548 0.00125458 0)
(0.000208703 0.00120612 0)
(0.000218713 0.00115656 0)
(0.00022771 0.00110616 0)
(0.000235823 0.0010551 0)
(0.000243175 0.00100357 0)
(0.000249889 0.000951678 0)
(0.000256062 0.000899554 0)
(0.000261796 0.00084728 0)
(0.000267174 0.000794913 0)
(0.000272267 0.000742489 0)
(0.000277124 0.000690016 0)
(0.000281766 0.000637474 0)
(0.000286169 0.000584848 0)
(0.000290295 0.000532126 0)
(0.000294102 0.000479275 0)
(0.000297469 0.000426157 0)
(0.000301037 0.000373895 0)
(0.000304059 0.000321604 0)
(0.000306136 0.000268966 0)
(0.000306887 0.00021585 0)
(0.000305808 0.000162241 0)
(0.000302349 0.000108302 0)
(0.000295976 5.43849e-05 0)
(0.000285973 1.01272e-06 0)
(0.00027181 -5.10037e-05 0)
(0.000253372 -0.00010083 0)
(0.000230408 -0.000147687 0)
(0.000202752 -0.000190629 0)
(0.000170753 -0.000228938 0)
(0.00013523 -0.000262789 0)
(9.55629e-05 -0.000290052 0)
(5.23574e-05 -0.000310502 0)
(5.85682e-06 -0.000324964 0)
(-4.44769e-05 -0.000336755 0)
(-0.000101179 -0.000354053 0)
(-0.000172675 -0.000393188 0)
(-0.000279338 -0.000480303 0)
(-0.000447679 -0.000644146 0)
(-0.000680554 -0.000893644 0)
(4.89609e-09 3.24116e-06 0)
(-1.18563e-06 1.89261e-06 0)
(9.89892e-07 9.81164e-07 0)
(3.58245e-06 7.23317e-07 0)
(6.24115e-06 6.22055e-07 0)
(8.92918e-06 5.39673e-07 0)
(1.16763e-05 4.47783e-07 0)
(1.44946e-05 3.44297e-07 0)
(1.7393e-05 2.28364e-07 0)
(2.03808e-05 9.93342e-08 0)
(2.34675e-05 -4.30478e-08 0)
(2.66621e-05 -1.98811e-07 0)
(2.99739e-05 -3.67783e-07 0)
(3.34114e-05 -5.49704e-07 0)
(3.6983e-05 -7.44291e-07 0)
(4.06966e-05 -9.5117e-07 0)
(4.45598e-05 -1.16991e-06 0)
(4.85794e-05 -1.40005e-06 0)
(5.27618e-05 -1.64112e-06 0)
(5.71131e-05 -1.8925e-06 0)
(6.16382e-05 -2.15351e-06 0)
(6.63416e-05 -2.42349e-06 0)
(7.1227e-05 -2.70172e-06 0)
(7.62974e-05 -2.98725e-06 0)
(8.15546e-05 -3.27932e-06 0)
(8.70003e-05 -3.57694e-06 0)
(9.26343e-05 -3.879e-06 0)
(9.84558e-05 -4.18435e-06 0)
(0.000104463 -4.49208e-06 0)
(0.000110653 -4.80072e-06 0)
(0.000117022 -5.10876e-06 0)
(0.000123564 -5.41492e-06 0)
(0.000130273 -5.71775e-06 0)
(0.000137141 -6.01569e-06 0)
(0.00014416 -6.30689e-06 0)
(0.000151319 -6.58935e-06 0)
(0.000158604 -6.86143e-06 0)
(0.000166003 -7.1216e-06 0)
(0.000173502 -7.36802e-06 0)
(0.000181084 -7.59919e-06 0)
(0.000188733 -7.81294e-06 0)
(0.00019643 -8.00736e-06 0)
(0.000204153 -8.18117e-06 0)
(0.000211884 -8.33197e-06 0)
(0.000219597 -8.45801e-06 0)
(0.000227271 -8.55735e-06 0)
(0.000234878 -8.62778e-06 0)
(0.000242394 -8.66819e-06 0)
(0.000249792 -8.67725e-06 0)
(0.000257043 -8.65342e-06 0)
(0.000264119 -8.59514e-06 0)
(0.000270991 -8.5015e-06 0)
(0.000277629 -8.3713e-06 0)
(0.000284001 -8.20359e-06 0)
(0.000290079 -7.99786e-06 0)
(0.000295831 -7.75341e-06 0)
(0.000301226 -7.46949e-06 0)
(0.000306233 -7.14633e-06 0)
(0.000310824 -6.78399e-06 0)
(0.000314966 -6.38279e-06 0)
(0.000318633 -5.94359e-06 0)
(0.000321794 -5.46677e-06 0)
(0.000324422 -4.95425e-06 0)
(0.00032649 -4.40722e-06 0)
(0.000327972 -3.82692e-06 0)
(0.000328844 -3.21235e-06 0)
(0.000329079 -2.56807e-06 0)
(0.000328665 -1.89751e-06 0)
(0.000327588 -1.20479e-06 0)
(0.000325833 -4.90517e-07 0)
(0.000323386 2.42521e-07 0)
(0.000320237 9.91292e-07 0)
(0.000316379 1.75303e-06 0)
(0.000311806 2.52434e-06 0)
(0.000306516 3.30186e-06 0)
(0.00030051 4.08251e-06 0)
(0.000293789 4.86247e-06 0)
(0.000286362 5.63803e-06 0)
(0.000278235 6.40596e-06 0)
(0.00026942 7.16225e-06 0)
(0.000259934 7.90353e-06 0)
(0.000249793 8.62649e-06 0)
(0.000239018 9.32751e-06 0)
(0.00022763 1.00031e-05 0)
(0.000215656 1.06504e-05 0)
(0.000203124 1.12664e-05 0)
(0.000190063 1.18482e-05 0)
(0.000176506 1.2393e-05 0)
(0.000162487 1.28985e-05 0)
(0.000148042 1.3363e-05 0)
(0.000133208 1.37856e-05 0)
(0.000118021 1.41672e-05 0)
(0.000102515 1.45128e-05 0)
(8.67102e-05 1.48318e-05 0)
(7.06075e-05 1.51256e-05 0)
(5.41862e-05 1.53295e-05 0)
(3.74955e-05 1.51457e-05 0)
(2.1048e-05 1.38998e-05 0)
(5.9178e-06 9.86714e-06 0)
(-1.72936e-06 2.73175e-06 0)
(1.16548e-06 1.18266e-06 0)
(2.75447e-06 1.02539e-05 0)
(3.19717e-06 2.12983e-05 0)
(3.2339e-06 3.22819e-05 0)
(3.21831e-06 4.31766e-05 0)
(3.17521e-06 5.39817e-05 0)
(3.11236e-06 6.46854e-05 0)
(3.03112e-06 7.52824e-05 0)
(2.93107e-06 8.57655e-05 0)
(2.81063e-06 9.6126e-05 0)
(2.66737e-06 0.000106353 0)
(2.49877e-06 0.000116432 0)
(2.30167e-06 0.000126346 0)
(2.07254e-06 0.000136074 0)
(1.8075e-06 0.000145591 0)
(1.50184e-06 0.000154868 0)
(1.15099e-06 0.00016387 0)
(7.49997e-07 0.000172559 0)
(2.92705e-07 0.000180892 0)
(-2.27267e-07 0.000188818 0)
(-8.16343e-07 0.000196283 0)
(-1.48229e-06 0.000203227 0)
(-2.23334e-06 0.000209581 0)
(-3.07857e-06 0.000215272 0)
(-4.02781e-06 0.000220218 0)
(-5.09246e-06 0.000224333 0)
(-6.28374e-06 0.000227518 0)
(-7.61105e-06 0.000229673 0)
(-9.08397e-06 0.000230688 0)
(-1.06873e-05 0.000230433 0)
(-1.24402e-05 0.000228767 0)
(-1.43793e-05 0.000225535 0)
(-1.65312e-05 0.000220578 0)
(-1.89243e-05 0.000213715 0)
(-2.15857e-05 0.000204746 0)
(-2.4543e-05 0.00019345 0)
(-2.78301e-05 0.000179597 0)
(-3.15279e-05 0.000162908 0)
(-3.56579e-05 0.000143067 0)
(-4.02605e-05 0.000119764 0)
(-4.53873e-05 9.26619e-05 0)
(-5.10872e-05 6.13965e-05 0)
(-5.74107e-05 2.56059e-05 0)
(-6.44367e-05 -1.50929e-05 0)
(-7.21702e-05 -6.13715e-05 0)
(-8.07156e-05 -0.000113788 0)
(-9.01162e-05 -0.000172641 0)
(-0.000100398 -0.000238456 0)
(-0.00011159 -0.000311688 0)
(-0.000123565 -0.000392772 0)
(-0.000136261 -0.000481898 0)
(-0.000149255 -0.000579369 0)
(-0.000162208 -0.000684877 0)
(-0.000174296 -0.00079802 0)
(-0.000184725 -0.000917706 0)
(-0.0001923 -0.00104239 0)
(-0.000195776 -0.00116976 0)
(-0.000193703 -0.00129691 0)
(-0.000184565 -0.00142041 0)
(-0.000166856 -0.00153638 0)
(-0.000139342 -0.00164095 0)
(-0.000100953 -0.00173003 0)
(-5.29437e-05 -0.00179868 0)
(-3.03337e-06 -0.00184404 0)
(4.09882e-05 -0.00188003 0)
(6.9828e-05 -0.00189752 0)
(7.35445e-05 -0.00189289 0)
(4.50166e-05 -0.00186624 0)
(-1.89684e-05 -0.00181981 0)
(-0.000112955 -0.00175317 0)
(-0.000219394 -0.00165941 0)
(-0.000308532 -0.0015305 0)
(-0.000345523 -0.00134533 0)
(-0.000306816 -0.00112129 0)
(-0.000122603 -0.000856067 0)
(0.00026373 -0.00051101 0)
(0.000921293 -1.15264e-05 0)
(0.00169166 0.000840839 0)
(0.00205018 0.00194265 0)
(0.00191023 0.00290483 0)
(0.00164438 0.00361975 0)
(0.00142983 0.00419806 0)
(0.00126608 0.00471309 0)
(0.00113499 0.00517654 0)
(0.00101605 0.00559506 0)
(0.000912803 0.00596892 0)
(0.000826612 0.00631141 0)
(0.000747484 0.00662261 0)
(0.000680633 0.00690103 0)
(0.000629722 0.00715523 0)
(0.00058938 0.0073911 0)
(0.000557131 0.00761037 0)
(0.000530652 0.00781667 0)
(0.00050622 0.00801194 0)
(0.000482556 0.00819593 0)
(0.000459594 0.00836888 0)
(0.000437099 0.00853126 0)
(0.000414983 0.00868352 0)
(0.000393107 0.00882606 0)
(0.00037124 0.00895899 0)
(0.000349198 0.00908229 0)
(0.000326891 0.00919594 0)
(0.000304301 0.00930003 0)
(0.000281419 0.00939471 0)
(0.000258267 0.00948001 0)
(0.000234889 0.009556 0)
(0.000211316 0.00962275 0)
(0.000187619 0.00968037 0)
(0.000163877 0.00972896 0)
(0.000140189 0.00976868 0)
(0.000116644 0.00980035 0)
(9.33093e-05 0.00982415 0)
(7.02697e-05 0.00983972 0)
(4.76299e-05 0.00984725 0)
(2.57285e-05 0.00984694 0)
(4.78212e-06 0.00983959 0)
(-1.56646e-05 0.00982578 0)
(-3.56905e-05 0.00980541 0)
(-5.52548e-05 0.00977899 0)
(-7.44533e-05 0.00974659 0)
(-9.32637e-05 0.00970858 0)
(-0.00011173 0.00966512 0)
(-0.00012984 0.00961652 0)
(-0.000147632 0.00956297 0)
(-0.000165088 0.00950471 0)
(-0.000182229 0.00944195 0)
(-0.000199061 0.0093749 0)
(-0.000215597 0.00930378 0)
(-0.00023185 0.00922875 0)
(-0.000247826 0.00915002 0)
(-0.000263543 0.00906777 0)
(-0.000279022 0.00898215 0)
(-0.000294268 0.00889333 0)
(-0.000309313 0.00880147 0)
(-0.00032417 0.00870669 0)
(-0.000338849 0.00860914 0)
(-0.000353369 0.00850895 0)
(-0.000367754 0.00840623 0)
(-0.000382025 0.0083011 0)
(-0.000396193 0.00819366 0)
(-0.000410279 0.00808402 0)
(-0.000424307 0.00797226 0)
(-0.000438281 0.00785847 0)
(-0.000452231 0.00774274 0)
(-0.000466167 0.00762513 0)
(-0.000480108 0.00750574 0)
(-0.00049408 0.00738461 0)
(-0.000508093 0.00726181 0)
(-0.000522161 0.00713741 0)
(-0.000536301 0.00701146 0)
(-0.000550553 0.00688401 0)
(-0.000564921 0.00675511 0)
(-0.000579416 0.00662481 0)
(-0.000594078 0.00649316 0)
(-0.000608942 0.00636018 0)
(-0.000624005 0.00622591 0)
(-0.000639324 0.00609041 0)
(-0.000654926 0.00595368 0)
(-0.000670841 0.00581577 0)
(-0.000687128 0.00567668 0)
(-0.000703811 0.00553644 0)
(-0.000720965 0.00539507 0)
(-0.000738656 0.00525258 0)
(-0.000756924 0.00510895 0)
(-0.000775855 0.00496422 0)
(-0.000795556 0.00481837 0)
(-0.000816095 0.00467136 0)
(-0.000837598 0.0045232 0)
(-0.000860178 0.00437384 0)
(-0.000883955 0.00422325 0)
(-0.000909101 0.00407139 0)
(-0.000935783 0.0039182 0)
(-0.000964185 0.0037636 0)
(-0.000994505 0.0036075 0)
(-0.00102699 0.00344979 0)
(-0.00106189 0.00329036 0)
(-0.00109949 0.00312908 0)
(-0.00114009 0.00296582 0)
(-0.00118404 0.00280042 0)
(-0.00123179 0.00263271 0)
(-0.00128399 0.00246244 0)
(-0.00134192 0.00229034 0)
(-0.00141565 0.00213116 0)
(-0.00149947 0.00197031 0)
(-0.00159511 0.00180574 0)
(-0.00170321 0.00163478 0)
(-0.00182389 0.00145468 0)
(-0.00195594 0.00126266 0)
(-0.00209608 0.00105654 0)
(-0.0022409 0.000836515 0)
(-0.00238883 0.000604883 0)
(-0.002543 0.000364743 0)
(-0.00270766 0.00011784 0)
(-0.00288554 -0.000135381 0)
(-0.00308353 -0.000397763 0)
(-0.0033177 -0.000657843 0)
(-0.00361957 -0.00101426 0)
(-0.00391219 -0.00118838 0)
(-0.00426046 -0.00194974 0)
(-0.00418131 -0.00133775 0)
)
;
    }
    frontAndBack
    {
        type            empty;
    }
}


// ************************************************************************* //
