/*--------------------------------*- C++ -*----------------------------------*\
  =========                 |
  \\      /  F ield         | OpenFOAM: The Open Source CFD Toolbox
   \\    /   O peration     | Website:  https://openfoam.org
    \\  /    A nd           | Version:  7
     \\/     M anipulation  |
\*---------------------------------------------------------------------------*/
FoamFile
{
    version     2.0;
    format      ascii;
    class       volScalarField;
    location    "0.31";
    object      k_0;
}
// * * * * * * * * * * * * * * * * * * * * * * * * * * * * * * * * * * * * * //

dimensions      [0 2 -2 0 0 0 0];

internalField   nonuniform List<scalar> 
70000
(
1.08549e-05
4.21865e-06
2.82412e-06
2.3165e-06
1.99713e-06
1.75681e-06
1.56479e-06
1.40796e-06
1.2771e-06
1.16642e-06
1.0714e-06
9.8939e-07
9.17744e-07
8.55079e-07
7.99571e-07
7.50563e-07
7.0653e-07
6.67411e-07
6.31734e-07
5.99993e-07
5.70571e-07
5.44482e-07
5.19844e-07
4.98149e-07
4.77246e-07
4.58986e-07
4.4108e-07
4.25495e-07
4.10071e-07
3.96553e-07
3.83244e-07
3.71339e-07
3.59822e-07
3.49251e-07
3.3916e-07
3.29847e-07
3.20703e-07
3.12805e-07
3.0399e-07
2.9775e-07
2.8893e-07
2.8409e-07
2.75837e-07
2.7149e-07
2.63793e-07
2.60133e-07
2.53155e-07
2.51181e-07
2.78117e-07
4.42311e-07
1.72794e-05
1.1367e-05
8.51992e-06
7.00956e-06
6.03611e-06
5.30988e-06
4.73027e-06
4.25662e-06
3.8614e-06
3.52713e-06
3.24019e-06
2.9925e-06
2.7761e-06
2.58682e-06
2.41911e-06
2.27107e-06
2.13797e-06
2.01979e-06
1.91191e-06
1.81601e-06
1.72702e-06
1.64819e-06
1.57366e-06
1.50807e-06
1.44487e-06
1.38961e-06
1.33552e-06
1.28827e-06
1.24174e-06
1.20069e-06
1.16058e-06
1.12442e-06
1.08967e-06
1.05763e-06
1.02704e-06
9.98992e-07
9.71053e-07
9.47472e-07
9.20403e-07
9.01786e-07
8.74876e-07
8.60096e-07
8.35112e-07
8.21852e-07
7.98437e-07
7.87108e-07
7.65982e-07
7.57339e-07
8.23638e-07
1.02708e-06
1.937e-05
1.61296e-05
1.32904e-05
1.12886e-05
9.82702e-06
8.69452e-06
7.77652e-06
7.0189e-06
6.38212e-06
5.8408e-06
5.37447e-06
4.97074e-06
4.61707e-06
4.30713e-06
4.03181e-06
3.78852e-06
3.56918e-06
3.37441e-06
3.19608e-06
3.03771e-06
2.89025e-06
2.7598e-06
2.63612e-06
2.52732e-06
2.42238e-06
2.3304e-06
2.24066e-06
2.1617e-06
2.08462e-06
2.01578e-06
1.94934e-06
1.88866e-06
1.83089e-06
1.7774e-06
1.72605e-06
1.67971e-06
1.63219e-06
1.59372e-06
1.54747e-06
1.51696e-06
1.47157e-06
1.44649e-06
1.40458e-06
1.38226e-06
1.34276e-06
1.32306e-06
1.28881e-06
1.2673e-06
1.36576e-06
1.50038e-06
1.9861e-05
1.826e-05
1.60854e-05
1.41997e-05
1.26391e-05
1.13475e-05
1.02591e-05
9.33691e-06
8.54506e-06
7.86177e-06
7.26662e-06
6.7469e-06
6.28799e-06
5.88353e-06
5.52182e-06
5.20093e-06
4.90976e-06
4.65071e-06
4.41207e-06
4.20011e-06
4.00157e-06
3.82602e-06
3.65875e-06
3.51145e-06
3.3692e-06
3.2438e-06
3.1221e-06
3.01367e-06
2.90912e-06
2.81412e-06
2.72375e-06
2.64006e-06
2.56083e-06
2.48757e-06
2.41614e-06
2.35347e-06
2.28641e-06
2.23491e-06
2.16962e-06
2.12826e-06
2.06519e-06
2.03011e-06
1.97173e-06
1.94088e-06
1.8858e-06
1.85694e-06
1.81364e-06
1.77264e-06
1.90278e-06
1.96612e-06
1.99706e-05
1.7846e-05
1.6075e-05
1.47669e-05
1.36027e-05
1.25377e-05
1.15689e-05
1.07012e-05
9.91969e-06
9.22396e-06
8.60327e-06
8.05055e-06
7.55383e-06
7.11033e-06
6.70792e-06
6.34753e-06
6.01631e-06
5.72014e-06
5.4442e-06
5.19856e-06
4.96614e-06
4.76025e-06
4.56261e-06
4.38776e-06
4.21871e-06
4.068e-06
3.9228e-06
3.79108e-06
3.66585e-06
3.54976e-06
3.44062e-06
3.33848e-06
3.24142e-06
3.15271e-06
3.0637e-06
2.98861e-06
2.90402e-06
2.84247e-06
2.76044e-06
2.71004e-06
2.63182e-06
2.58828e-06
2.51513e-06
2.47725e-06
2.40883e-06
2.36998e-06
2.32439e-06
2.26029e-06
2.4004e-06
2.43198e-06
2.00095e-05
1.47037e-05
1.37489e-05
1.32127e-05
1.25933e-05
1.19291e-05
1.12794e-05
1.06589e-05
1.00816e-05
9.54744e-06
9.04616e-06
8.57999e-06
8.14516e-06
7.7461e-06
7.37274e-06
7.03167e-06
6.71074e-06
6.4207e-06
6.14512e-06
5.89827e-06
5.66066e-06
5.44888e-06
5.2432e-06
5.05937e-06
4.88129e-06
4.71954e-06
4.56502e-06
4.42148e-06
4.28673e-06
4.15931e-06
4.03993e-06
3.92789e-06
3.81959e-06
3.72274e-06
3.62164e-06
3.53996e-06
3.44297e-06
3.37565e-06
3.28192e-06
3.22565e-06
3.13678e-06
3.08779e-06
3.0037e-06
2.96095e-06
2.8844e-06
2.83486e-06
2.7934e-06
2.70912e-06
2.83493e-06
2.85526e-06
2.01332e-05
1.54651e-05
9.63477e-06
9.40096e-06
9.49652e-06
9.4963e-06
9.43822e-06
9.30056e-06
9.05943e-06
8.78553e-06
8.48999e-06
8.19291e-06
7.89976e-06
7.61759e-06
7.3385e-06
7.08002e-06
6.82979e-06
6.59889e-06
6.3714e-06
6.1645e-06
5.95905e-06
5.77323e-06
5.5892e-06
5.42147e-06
5.25815e-06
5.10533e-06
4.96059e-06
4.82215e-06
4.69304e-06
4.56882e-06
4.4513e-06
4.34159e-06
4.23225e-06
4.13711e-06
4.0331e-06
3.95244e-06
3.85159e-06
3.78435e-06
3.68666e-06
3.62934e-06
3.53662e-06
3.48631e-06
3.39815e-06
3.3525e-06
3.27711e-06
3.21567e-06
3.1789e-06
3.0907e-06
3.1885e-06
3.19828e-06
2.01714e-05
1.86746e-05
8.68472e-06
5.54114e-06
5.63274e-06
5.93872e-06
6.29813e-06
6.58415e-06
6.76439e-06
6.87346e-06
6.89289e-06
6.87362e-06
6.82096e-06
6.73368e-06
6.62152e-06
6.50115e-06
6.36098e-06
6.22192e-06
6.07555e-06
5.93775e-06
5.7934e-06
5.65935e-06
5.52266e-06
5.39397e-06
5.26772e-06
5.14635e-06
5.03239e-06
4.91919e-06
4.81299e-06
4.70912e-06
4.60814e-06
4.51478e-06
4.41764e-06
4.33532e-06
4.24056e-06
4.16981e-06
4.07612e-06
4.01618e-06
3.92438e-06
3.87211e-06
3.7846e-06
3.73773e-06
3.65516e-06
3.60806e-06
3.54498e-06
3.47535e-06
3.44367e-06
3.36425e-06
3.43431e-06
3.43184e-06
2.01673e-05
1.97235e-05
1.61626e-05
4.85441e-06
3.04276e-06
3.10746e-06
3.37869e-06
3.80975e-06
4.1765e-06
4.49544e-06
4.74287e-06
4.93351e-06
5.07349e-06
5.17524e-06
5.23291e-06
5.27046e-06
5.27392e-06
5.26593e-06
5.24295e-06
5.20765e-06
5.15762e-06
5.10465e-06
5.04362e-06
4.97939e-06
4.91305e-06
4.84079e-06
4.77071e-06
4.6963e-06
4.62446e-06
4.55275e-06
4.47977e-06
4.41273e-06
4.33926e-06
4.27823e-06
4.20364e-06
4.15024e-06
4.07392e-06
4.02801e-06
3.95299e-06
3.91197e-06
3.83997e-06
3.80153e-06
3.73503e-06
3.69003e-06
3.64631e-06
3.57985e-06
3.55426e-06
3.48991e-06
3.53803e-06
3.52978e-06
2.01478e-05
1.99341e-05
1.9064e-05
1.44901e-05
5.22883e-06
2.15285e-06
1.915e-06
1.99552e-06
2.21091e-06
2.511e-06
2.78717e-06
3.04209e-06
3.26662e-06
3.46524e-06
3.62832e-06
3.76869e-06
3.87958e-06
3.97056e-06
4.04056e-06
4.09595e-06
4.13419e-06
4.16004e-06
4.17585e-06
4.17976e-06
4.17731e-06
4.16932e-06
4.15677e-06
4.13669e-06
4.11372e-06
4.08815e-06
4.05731e-06
4.0284e-06
3.99211e-06
3.96213e-06
3.92054e-06
3.8926e-06
3.84639e-06
3.82024e-06
3.77078e-06
3.74479e-06
3.6955e-06
3.66916e-06
3.62448e-06
3.58831e-06
3.56286e-06
3.51146e-06
3.4938e-06
3.44825e-06
3.48074e-06
3.47175e-06
2.01217e-05
1.9966e-05
1.96416e-05
1.8543e-05
1.52004e-05
8.33242e-06
3.08865e-06
1.63093e-06
1.44226e-06
1.45039e-06
1.52883e-06
1.69212e-06
1.87431e-06
2.05314e-06
2.22295e-06
2.38461e-06
2.53133e-06
2.66496e-06
2.78325e-06
2.88873e-06
2.98155e-06
3.06101e-06
3.13111e-06
3.18881e-06
3.23908e-06
3.27902e-06
3.31399e-06
3.34082e-06
3.36172e-06
3.37811e-06
3.38816e-06
3.39587e-06
3.39803e-06
3.39769e-06
3.39434e-06
3.39059e-06
3.38059e-06
3.37454e-06
3.36039e-06
3.35249e-06
3.33537e-06
3.32591e-06
3.30946e-06
3.29195e-06
3.28328e-06
3.2615e-06
3.25541e-06
3.23637e-06
3.25979e-06
3.2512e-06
2.00983e-05
1.99327e-05
1.97567e-05
1.93506e-05
1.85015e-05
1.6525e-05
1.22997e-05
6.82466e-06
2.96384e-06
1.48809e-06
1.24207e-06
1.14788e-06
1.15305e-06
1.19705e-06
1.29087e-06
1.39971e-06
1.51246e-06
1.62411e-06
1.73516e-06
1.84123e-06
1.94331e-06
2.03706e-06
2.12623e-06
2.20651e-06
2.28216e-06
2.34933e-06
2.41165e-06
2.46753e-06
2.51773e-06
2.56293e-06
2.60289e-06
2.6388e-06
2.6695e-06
2.69816e-06
2.72004e-06
2.74368e-06
2.75851e-06
2.77692e-06
2.7871e-06
2.80067e-06
2.80809e-06
2.81672e-06
2.82418e-06
2.82727e-06
2.83521e-06
2.83748e-06
2.84713e-06
2.84884e-06
2.87275e-06
2.87172e-06
2.00782e-05
1.98876e-05
1.97564e-05
1.9459e-05
1.91427e-05
1.86359e-05
1.75446e-05
1.54076e-05
1.17046e-05
7.40123e-06
3.94578e-06
1.89446e-06
1.20419e-06
1.05633e-06
9.80843e-07
9.44181e-07
9.56306e-07
9.92184e-07
1.05552e-06
1.1204e-06
1.19168e-06
1.26232e-06
1.3354e-06
1.40672e-06
1.47757e-06
1.54491e-06
1.61001e-06
1.67183e-06
1.73049e-06
1.78571e-06
1.83789e-06
1.88691e-06
1.93183e-06
1.97558e-06
2.01321e-06
2.05246e-06
2.08399e-06
2.11797e-06
2.14587e-06
2.17376e-06
2.20063e-06
2.22137e-06
2.24878e-06
2.26508e-06
2.29141e-06
2.30518e-06
2.33419e-06
2.34699e-06
2.3766e-06
2.39334e-06
2.00615e-05
1.98539e-05
1.97338e-05
1.94693e-05
1.92521e-05
1.90432e-05
1.87303e-05
1.81827e-05
1.70823e-05
1.52103e-05
1.25273e-05
9.18218e-06
5.91672e-06
3.43336e-06
1.85279e-06
1.15785e-06
9.62753e-07
8.90147e-07
8.35388e-07
7.9816e-07
8.01163e-07
8.16305e-07
8.48522e-07
8.88455e-07
9.29864e-07
9.7427e-07
1.0203e-06
1.06724e-06
1.11472e-06
1.16197e-06
1.2086e-06
1.25431e-06
1.29803e-06
1.3417e-06
1.38173e-06
1.42355e-06
1.45991e-06
1.49836e-06
1.53335e-06
1.56632e-06
1.60289e-06
1.62855e-06
1.66581e-06
1.69123e-06
1.72387e-06
1.74984e-06
1.78337e-06
1.80901e-06
1.83971e-06
1.86681e-06
2.00476e-05
1.98303e-05
1.97071e-05
1.94471e-05
1.92689e-05
1.91111e-05
1.89605e-05
1.87452e-05
1.84555e-05
1.79029e-05
1.70636e-05
1.56749e-05
1.38482e-05
1.1479e-05
8.78605e-06
6.17105e-06
4.00926e-06
2.45002e-06
1.47226e-06
1.01729e-06
8.59195e-07
7.97629e-07
7.49542e-07
7.10589e-07
6.83401e-07
6.83885e-07
6.91049e-07
7.07777e-07
7.30809e-07
7.56545e-07
7.82992e-07
8.11612e-07
8.41076e-07
8.7208e-07
9.02464e-07
9.35594e-07
9.65744e-07
9.98358e-07
1.02963e-06
1.05892e-06
1.09387e-06
1.11806e-06
1.15342e-06
1.18231e-06
1.21085e-06
1.24269e-06
1.27444e-06
1.30278e-06
1.33295e-06
1.36516e-06
2.00363e-05
1.98125e-05
1.96846e-05
1.94166e-05
1.92547e-05
1.91045e-05
1.89955e-05
1.88442e-05
1.87068e-05
1.84948e-05
1.82413e-05
1.78234e-05
1.72176e-05
1.63411e-05
1.51265e-05
1.35797e-05
1.17494e-05
9.64389e-06
7.48621e-06
5.4806e-06
3.8121e-06
2.54783e-06
1.65301e-06
1.11839e-06
8.6275e-07
7.58715e-07
7.0916e-07
6.72268e-07
6.36545e-07
6.09825e-07
5.91641e-07
5.89777e-07
5.93125e-07
6.01482e-07
6.14239e-07
6.30451e-07
6.45791e-07
6.63937e-07
6.82491e-07
7.0095e-07
7.24848e-07
7.4196e-07
7.67204e-07
7.913e-07
8.12251e-07
8.37743e-07
8.67033e-07
8.86955e-07
9.14847e-07
9.44575e-07
2.00272e-05
1.97986e-05
1.96653e-05
1.93945e-05
1.92286e-05
1.90767e-05
1.8977e-05
1.88475e-05
1.87306e-05
1.85912e-05
1.84543e-05
1.82846e-05
1.80739e-05
1.77873e-05
1.7396e-05
1.68482e-05
1.61296e-05
1.51962e-05
1.40344e-05
1.26757e-05
1.11454e-05
9.45643e-06
7.7233e-06
6.07407e-06
4.58554e-06
3.36378e-06
2.40222e-06
1.67813e-06
1.18283e-06
8.93214e-07
7.44701e-07
6.73951e-07
6.34146e-07
6.04955e-07
5.77002e-07
5.51936e-07
5.32001e-07
5.19723e-07
5.15072e-07
5.16281e-07
5.20859e-07
5.26412e-07
5.36661e-07
5.4877e-07
5.59028e-07
5.72322e-07
5.90759e-07
6.04194e-07
6.20142e-07
6.45538e-07
2.00201e-05
1.979e-05
1.96453e-05
1.93778e-05
1.92042e-05
1.9047e-05
1.89384e-05
1.88205e-05
1.87086e-05
1.85843e-05
1.84661e-05
1.83407e-05
1.82158e-05
1.8073e-05
1.79156e-05
1.77154e-05
1.74691e-05
1.71453e-05
1.67343e-05
1.62008e-05
1.55534e-05
1.47515e-05
1.38158e-05
1.27278e-05
1.1552e-05
1.02603e-05
8.89209e-06
7.51443e-06
6.18326e-06
4.96338e-06
3.87544e-06
2.98064e-06
2.25204e-06
1.67371e-06
1.24203e-06
9.47954e-07
7.68966e-07
6.68254e-07
6.13118e-07
5.79374e-07
5.54646e-07
5.32579e-07
5.12647e-07
4.95703e-07
4.82e-07
4.73598e-07
4.73717e-07
4.77167e-07
4.86394e-07
5.06324e-07
2.00145e-05
1.979e-05
1.96191e-05
1.93641e-05
1.91836e-05
1.90192e-05
1.89022e-05
1.87831e-05
1.86682e-05
1.85476e-05
1.84354e-05
1.83185e-05
1.82066e-05
1.80877e-05
1.79749e-05
1.78523e-05
1.7729e-05
1.75836e-05
1.74248e-05
1.72248e-05
1.69937e-05
1.66984e-05
1.635e-05
1.59154e-05
1.54071e-05
1.48053e-05
1.41141e-05
1.33219e-05
1.24528e-05
1.14977e-05
1.05063e-05
9.43993e-06
8.34263e-06
7.24523e-06
6.18298e-06
5.18051e-06
4.2655e-06
3.45115e-06
2.76386e-06
2.18364e-06
1.70547e-06
1.32266e-06
1.03675e-06
8.40509e-07
7.14337e-07
6.4317e-07
6.01332e-07
6.03675e-07
6.26853e-07
6.81671e-07
2.00103e-05
1.97941e-05
1.95924e-05
1.93498e-05
1.91648e-05
1.89925e-05
1.88686e-05
1.87458e-05
1.86277e-05
1.85036e-05
1.83889e-05
1.82716e-05
1.81612e-05
1.80492e-05
1.79424e-05
1.78335e-05
1.77271e-05
1.7617e-05
1.75107e-05
1.73959e-05
1.7281e-05
1.71468e-05
1.70048e-05
1.68355e-05
1.66425e-05
1.64147e-05
1.61485e-05
1.58379e-05
1.54741e-05
1.50582e-05
1.45838e-05
1.40512e-05
1.3458e-05
1.28023e-05
1.20969e-05
1.13351e-05
1.05432e-05
9.71324e-06
8.84787e-06
7.95322e-06
7.0633e-06
6.18103e-06
5.33304e-06
4.53533e-06
3.79909e-06
3.16383e-06
2.65299e-06
2.2974e-06
2.12505e-06
2.08465e-06
2.00071e-05
1.98017e-05
1.95677e-05
1.9336e-05
1.91472e-05
1.89674e-05
1.88364e-05
1.87101e-05
1.85879e-05
1.84611e-05
1.83411e-05
1.8223e-05
1.81073e-05
1.79946e-05
1.78845e-05
1.77775e-05
1.76733e-05
1.7571e-05
1.74703e-05
1.73704e-05
1.72732e-05
1.717e-05
1.70724e-05
1.6971e-05
1.68647e-05
1.67569e-05
1.66333e-05
1.65087e-05
1.63551e-05
1.6198e-05
1.60072e-05
1.57975e-05
1.55597e-05
1.52871e-05
1.49891e-05
1.46398e-05
1.42686e-05
1.38468e-05
1.33951e-05
1.28891e-05
1.23521e-05
1.17634e-05
1.11433e-05
1.04811e-05
9.79068e-06
9.0863e-06
8.3255e-06
7.62394e-06
6.97275e-06
6.42086e-06
2.00047e-05
1.98106e-05
1.95445e-05
1.93226e-05
1.91297e-05
1.89441e-05
1.8805e-05
1.86759e-05
1.85491e-05
1.84206e-05
1.82944e-05
1.81756e-05
1.80536e-05
1.79405e-05
1.78246e-05
1.77178e-05
1.76071e-05
1.75048e-05
1.73999e-05
1.73011e-05
1.72058e-05
1.7108e-05
1.70162e-05
1.69261e-05
1.68329e-05
1.67469e-05
1.66504e-05
1.65691e-05
1.64687e-05
1.63866e-05
1.62834e-05
1.61868e-05
1.60774e-05
1.59635e-05
1.58396e-05
1.56958e-05
1.55459e-05
1.53767e-05
1.51883e-05
1.4986e-05
1.47436e-05
1.45033e-05
1.42047e-05
1.39057e-05
1.35403e-05
1.31915e-05
1.27308e-05
1.22771e-05
1.17768e-05
1.11566e-05
2.0003e-05
1.98202e-05
1.95227e-05
1.93089e-05
1.91119e-05
1.89226e-05
1.87744e-05
1.86431e-05
1.85114e-05
1.83819e-05
1.82494e-05
1.81304e-05
1.80016e-05
1.78883e-05
1.77665e-05
1.76594e-05
1.75431e-05
1.74398e-05
1.73297e-05
1.72297e-05
1.71295e-05
1.70285e-05
1.69328e-05
1.68418e-05
1.67465e-05
1.66633e-05
1.6572e-05
1.64967e-05
1.64046e-05
1.63353e-05
1.6246e-05
1.61734e-05
1.60863e-05
1.60145e-05
1.59311e-05
1.58521e-05
1.57658e-05
1.56876e-05
1.55902e-05
1.55119e-05
1.53868e-05
1.53046e-05
1.51636e-05
1.50516e-05
1.48838e-05
1.47536e-05
1.4522e-05
1.4292e-05
1.40054e-05
1.35886e-05
2.00018e-05
1.98292e-05
1.95026e-05
1.92945e-05
1.90936e-05
1.89028e-05
1.87449e-05
1.86115e-05
1.8475e-05
1.83453e-05
1.82066e-05
1.80875e-05
1.79524e-05
1.78388e-05
1.77115e-05
1.76039e-05
1.74823e-05
1.73781e-05
1.72629e-05
1.7162e-05
1.7057e-05
1.69541e-05
1.68531e-05
1.67603e-05
1.66607e-05
1.65726e-05
1.64783e-05
1.63973e-05
1.63045e-05
1.62316e-05
1.61412e-05
1.60723e-05
1.59887e-05
1.59243e-05
1.58469e-05
1.57789e-05
1.57033e-05
1.56429e-05
1.55636e-05
1.55088e-05
1.54162e-05
1.53661e-05
1.52749e-05
1.52179e-05
1.51168e-05
1.50499e-05
1.49194e-05
1.47781e-05
1.45694e-05
1.42853e-05
2.00009e-05
1.98306e-05
1.94863e-05
1.92799e-05
1.90755e-05
1.88852e-05
1.87173e-05
1.85816e-05
1.84407e-05
1.83109e-05
1.81669e-05
1.80474e-05
1.79069e-05
1.77926e-05
1.76607e-05
1.75524e-05
1.7426e-05
1.73207e-05
1.72009e-05
1.70994e-05
1.69891e-05
1.68857e-05
1.6779e-05
1.66852e-05
1.65815e-05
1.64898e-05
1.6393e-05
1.63067e-05
1.62125e-05
1.61335e-05
1.604e-05
1.59663e-05
1.58784e-05
1.58078e-05
1.57291e-05
1.56571e-05
1.55788e-05
1.55189e-05
1.54403e-05
1.53884e-05
1.53075e-05
1.52564e-05
1.51766e-05
1.51291e-05
1.50386e-05
1.49806e-05
1.48665e-05
1.47473e-05
1.45386e-05
1.42885e-05
2.00003e-05
1.98288e-05
1.94728e-05
1.9264e-05
1.90571e-05
1.88692e-05
1.86918e-05
1.85534e-05
1.84089e-05
1.82789e-05
1.81309e-05
1.80103e-05
1.78658e-05
1.77504e-05
1.76148e-05
1.75057e-05
1.7375e-05
1.72688e-05
1.71447e-05
1.70428e-05
1.69272e-05
1.68238e-05
1.67115e-05
1.66168e-05
1.65097e-05
1.64149e-05
1.63157e-05
1.62255e-05
1.61303e-05
1.60455e-05
1.59504e-05
1.58721e-05
1.57828e-05
1.57042e-05
1.56258e-05
1.55473e-05
1.54657e-05
1.54016e-05
1.53178e-05
1.52586e-05
1.51782e-05
1.51154e-05
1.50338e-05
1.49836e-05
1.48866e-05
1.48236e-05
1.47055e-05
1.4587e-05
1.43663e-05
1.41332e-05
2e-05
1.98271e-05
1.94617e-05
1.92465e-05
1.9038e-05
1.88544e-05
1.86687e-05
1.85268e-05
1.838e-05
1.82494e-05
1.8099e-05
1.79766e-05
1.78294e-05
1.77127e-05
1.75742e-05
1.74646e-05
1.733e-05
1.72231e-05
1.70955e-05
1.69929e-05
1.68727e-05
1.67693e-05
1.66522e-05
1.6556e-05
1.64463e-05
1.63487e-05
1.62469e-05
1.61541e-05
1.60571e-05
1.59679e-05
1.5871e-05
1.57894e-05
1.56988e-05
1.56143e-05
1.5535e-05
1.54534e-05
1.53673e-05
1.53009e-05
1.52126e-05
1.515e-05
1.50666e-05
1.49972e-05
1.49113e-05
1.48562e-05
1.47513e-05
1.4683e-05
1.45515e-05
1.44232e-05
1.41852e-05
1.39497e-05
1.99999e-05
1.9826e-05
1.94538e-05
1.92285e-05
1.90192e-05
1.88411e-05
1.86487e-05
1.85027e-05
1.83544e-05
1.8223e-05
1.80715e-05
1.79469e-05
1.77984e-05
1.76803e-05
1.75396e-05
1.74298e-05
1.72918e-05
1.71848e-05
1.7054e-05
1.69508e-05
1.68268e-05
1.67232e-05
1.66023e-05
1.65042e-05
1.63927e-05
1.62923e-05
1.61879e-05
1.60935e-05
1.59933e-05
1.59019e-05
1.5802e-05
1.57188e-05
1.56251e-05
1.55381e-05
1.54556e-05
1.53735e-05
1.52829e-05
1.52141e-05
1.51233e-05
1.50583e-05
1.49712e-05
1.48976e-05
1.48096e-05
1.47482e-05
1.46377e-05
1.4565e-05
1.44228e-05
1.42821e-05
1.40376e-05
1.3808e-05
1.99999e-05
1.98254e-05
1.9449e-05
1.92113e-05
1.90014e-05
1.88296e-05
1.86325e-05
1.84818e-05
1.83328e-05
1.82006e-05
1.80491e-05
1.79223e-05
1.77734e-05
1.76542e-05
1.75119e-05
1.74021e-05
1.72613e-05
1.71546e-05
1.70212e-05
1.69176e-05
1.67904e-05
1.66866e-05
1.65627e-05
1.64627e-05
1.63497e-05
1.62468e-05
1.614e-05
1.60445e-05
1.59406e-05
1.58484e-05
1.57449e-05
1.56607e-05
1.55633e-05
1.5476e-05
1.53884e-05
1.53071e-05
1.52126e-05
1.51405e-05
1.50495e-05
1.49807e-05
1.48915e-05
1.48133e-05
1.47258e-05
1.46568e-05
1.45426e-05
1.44658e-05
1.4314e-05
1.41629e-05
1.39186e-05
1.3693e-05
1.99999e-05
1.98253e-05
1.9447e-05
1.91959e-05
1.89852e-05
1.88201e-05
1.86206e-05
1.84651e-05
1.83154e-05
1.81828e-05
1.8032e-05
1.79033e-05
1.7755e-05
1.76349e-05
1.74918e-05
1.73819e-05
1.72395e-05
1.71333e-05
1.69977e-05
1.68941e-05
1.67645e-05
1.66604e-05
1.65345e-05
1.64326e-05
1.63184e-05
1.62137e-05
1.61047e-05
1.60079e-05
1.5901e-05
1.5808e-05
1.57017e-05
1.56154e-05
1.55156e-05
1.54278e-05
1.53358e-05
1.52545e-05
1.51571e-05
1.50816e-05
1.49918e-05
1.49171e-05
1.4828e-05
1.47451e-05
1.46577e-05
1.45819e-05
1.44649e-05
1.43839e-05
1.42217e-05
1.40662e-05
1.3823e-05
1.36002e-05
1.99999e-05
1.98256e-05
1.94476e-05
1.91831e-05
1.89708e-05
1.88123e-05
1.8613e-05
1.84529e-05
1.83024e-05
1.81702e-05
1.80204e-05
1.78905e-05
1.77435e-05
1.76227e-05
1.748e-05
1.73695e-05
1.72274e-05
1.71214e-05
1.69841e-05
1.68814e-05
1.67497e-05
1.66455e-05
1.65185e-05
1.6415e-05
1.62996e-05
1.61938e-05
1.60829e-05
1.59844e-05
1.58758e-05
1.57815e-05
1.56731e-05
1.55843e-05
1.54836e-05
1.53942e-05
1.52991e-05
1.52166e-05
1.51177e-05
1.50388e-05
1.49503e-05
1.48697e-05
1.47805e-05
1.46955e-05
1.46047e-05
1.45249e-05
1.44063e-05
1.43194e-05
1.4146e-05
1.39937e-05
1.37496e-05
1.35288e-05
1.99999e-05
1.98264e-05
1.94506e-05
1.91733e-05
1.89587e-05
1.8806e-05
1.86095e-05
1.84456e-05
1.82938e-05
1.81629e-05
1.80142e-05
1.7884e-05
1.77393e-05
1.76178e-05
1.7477e-05
1.73653e-05
1.72254e-05
1.71195e-05
1.69813e-05
1.68802e-05
1.67467e-05
1.66429e-05
1.65154e-05
1.64108e-05
1.62941e-05
1.61883e-05
1.60752e-05
1.59751e-05
1.58661e-05
1.57698e-05
1.56596e-05
1.55692e-05
1.54675e-05
1.53764e-05
1.52788e-05
1.51953e-05
1.50949e-05
1.50139e-05
1.4924e-05
1.48419e-05
1.47483e-05
1.46657e-05
1.4568e-05
1.44866e-05
1.43685e-05
1.42694e-05
1.40937e-05
1.39464e-05
1.36956e-05
1.34797e-05
1.99999e-05
1.98277e-05
1.94563e-05
1.91672e-05
1.89492e-05
1.88015e-05
1.86101e-05
1.84433e-05
1.829e-05
1.81609e-05
1.80136e-05
1.78844e-05
1.77418e-05
1.76201e-05
1.74815e-05
1.73691e-05
1.72318e-05
1.71257e-05
1.69877e-05
1.6888e-05
1.67535e-05
1.66503e-05
1.65228e-05
1.64177e-05
1.63001e-05
1.61946e-05
1.608e-05
1.59791e-05
1.587e-05
1.5772e-05
1.56608e-05
1.55697e-05
1.54669e-05
1.53745e-05
1.5275e-05
1.51913e-05
1.50888e-05
1.50077e-05
1.49138e-05
1.48338e-05
1.47342e-05
1.46539e-05
1.45513e-05
1.44674e-05
1.43509e-05
1.42372e-05
1.40701e-05
1.39183e-05
1.36622e-05
1.34604e-05
1.99999e-05
1.98295e-05
1.94642e-05
1.91649e-05
1.89425e-05
1.87985e-05
1.86142e-05
1.84455e-05
1.82905e-05
1.81636e-05
1.80177e-05
1.789e-05
1.77504e-05
1.76286e-05
1.74934e-05
1.73805e-05
1.72474e-05
1.71413e-05
1.70048e-05
1.69069e-05
1.67719e-05
1.66699e-05
1.65428e-05
1.64377e-05
1.63193e-05
1.62142e-05
1.60982e-05
1.59968e-05
1.58876e-05
1.57873e-05
1.56756e-05
1.55839e-05
1.54797e-05
1.53859e-05
1.52852e-05
1.52009e-05
1.50972e-05
1.50154e-05
1.4919e-05
1.484e-05
1.47372e-05
1.46564e-05
1.45528e-05
1.44647e-05
1.43506e-05
1.42241e-05
1.40689e-05
1.39072e-05
1.36502e-05
1.3464e-05
1.99999e-05
1.98319e-05
1.94742e-05
1.91663e-05
1.8939e-05
1.87972e-05
1.86214e-05
1.84524e-05
1.82957e-05
1.81706e-05
1.80266e-05
1.79019e-05
1.7765e-05
1.76444e-05
1.75122e-05
1.74008e-05
1.7271e-05
1.71655e-05
1.70322e-05
1.69351e-05
1.68012e-05
1.67006e-05
1.65742e-05
1.64703e-05
1.63513e-05
1.62465e-05
1.61308e-05
1.60297e-05
1.59196e-05
1.58181e-05
1.57072e-05
1.56149e-05
1.55092e-05
1.54149e-05
1.53129e-05
1.52281e-05
1.51238e-05
1.50408e-05
1.49425e-05
1.48633e-05
1.47593e-05
1.4676e-05
1.45734e-05
1.44808e-05
1.43673e-05
1.42332e-05
1.40898e-05
1.39137e-05
1.36594e-05
1.34964e-05
1.99999e-05
1.98348e-05
1.94859e-05
1.91715e-05
1.8939e-05
1.87978e-05
1.86309e-05
1.84635e-05
1.83057e-05
1.81817e-05
1.80401e-05
1.79192e-05
1.77842e-05
1.7666e-05
1.75366e-05
1.74281e-05
1.73007e-05
1.71971e-05
1.70679e-05
1.69708e-05
1.68396e-05
1.67403e-05
1.66153e-05
1.65131e-05
1.63937e-05
1.62892e-05
1.61752e-05
1.60744e-05
1.59623e-05
1.58617e-05
1.5752e-05
1.5658e-05
1.55517e-05
1.54583e-05
1.53551e-05
1.52695e-05
1.51662e-05
1.50822e-05
1.4983e-05
1.49029e-05
1.47997e-05
1.47157e-05
1.46114e-05
1.45203e-05
1.44006e-05
1.42718e-05
1.4131e-05
1.39394e-05
1.36955e-05
1.35613e-05
1.99999e-05
1.98382e-05
1.94986e-05
1.91806e-05
1.89428e-05
1.88005e-05
1.8642e-05
1.84783e-05
1.83196e-05
1.81959e-05
1.80572e-05
1.79407e-05
1.78075e-05
1.76923e-05
1.75659e-05
1.7461e-05
1.73357e-05
1.72352e-05
1.71104e-05
1.70135e-05
1.68857e-05
1.67879e-05
1.66649e-05
1.65644e-05
1.64449e-05
1.63414e-05
1.62299e-05
1.61288e-05
1.60151e-05
1.59169e-05
1.58079e-05
1.5712e-05
1.56062e-05
1.55138e-05
1.54094e-05
1.53231e-05
1.52214e-05
1.51369e-05
1.50364e-05
1.49563e-05
1.48542e-05
1.47705e-05
1.46649e-05
1.4574e-05
1.44512e-05
1.43322e-05
1.41837e-05
1.39849e-05
1.37591e-05
1.36496e-05
1.99999e-05
1.9842e-05
1.95122e-05
1.91928e-05
1.89505e-05
1.88058e-05
1.86545e-05
1.84966e-05
1.83372e-05
1.82131e-05
1.80778e-05
1.79656e-05
1.78343e-05
1.77225e-05
1.75999e-05
1.74979e-05
1.73754e-05
1.72788e-05
1.71579e-05
1.70622e-05
1.69378e-05
1.68422e-05
1.67217e-05
1.66223e-05
1.65036e-05
1.64023e-05
1.62927e-05
1.61909e-05
1.60772e-05
1.59815e-05
1.58724e-05
1.57757e-05
1.56711e-05
1.55792e-05
1.54742e-05
1.53878e-05
1.52873e-05
1.52028e-05
1.51015e-05
1.50221e-05
1.49214e-05
1.48384e-05
1.4732e-05
1.46414e-05
1.45194e-05
1.44093e-05
1.42468e-05
1.40486e-05
1.38524e-05
1.37531e-05
1.99999e-05
1.9846e-05
1.95262e-05
1.92081e-05
1.89619e-05
1.88136e-05
1.86681e-05
1.85176e-05
1.83576e-05
1.82329e-05
1.81012e-05
1.79929e-05
1.78641e-05
1.77556e-05
1.76375e-05
1.75373e-05
1.74192e-05
1.73262e-05
1.72093e-05
1.71158e-05
1.69943e-05
1.69022e-05
1.67837e-05
1.66853e-05
1.65682e-05
1.64702e-05
1.63611e-05
1.62592e-05
1.61476e-05
1.60532e-05
1.59435e-05
1.58479e-05
1.57441e-05
1.56519e-05
1.55476e-05
1.5462e-05
1.53616e-05
1.52775e-05
1.5177e-05
1.50984e-05
1.49989e-05
1.49169e-05
1.48107e-05
1.47216e-05
1.46035e-05
1.44971e-05
1.43196e-05
1.41368e-05
1.39649e-05
1.38735e-05
1.99999e-05
1.98503e-05
1.95403e-05
1.9226e-05
1.89768e-05
1.8824e-05
1.86828e-05
1.85405e-05
1.83804e-05
1.82552e-05
1.81269e-05
1.8022e-05
1.78961e-05
1.77911e-05
1.76775e-05
1.75784e-05
1.74663e-05
1.73762e-05
1.72636e-05
1.71729e-05
1.7054e-05
1.69667e-05
1.68489e-05
1.67526e-05
1.66377e-05
1.65432e-05
1.64334e-05
1.63326e-05
1.62241e-05
1.61294e-05
1.60201e-05
1.5927e-05
1.58227e-05
1.57305e-05
1.56281e-05
1.55431e-05
1.5442e-05
1.53593e-05
1.52606e-05
1.51831e-05
1.50844e-05
1.50036e-05
1.48993e-05
1.48136e-05
1.47e-05
1.45908e-05
1.44057e-05
1.42466e-05
1.40903e-05
1.40033e-05
1.99999e-05
1.98548e-05
1.95544e-05
1.92461e-05
1.89948e-05
1.88371e-05
1.86986e-05
1.85646e-05
1.84049e-05
1.82797e-05
1.81543e-05
1.80525e-05
1.79294e-05
1.78286e-05
1.77184e-05
1.76213e-05
1.75151e-05
1.74277e-05
1.732e-05
1.72317e-05
1.71164e-05
1.70339e-05
1.69156e-05
1.68232e-05
1.67104e-05
1.66191e-05
1.65084e-05
1.64102e-05
1.63045e-05
1.62088e-05
1.61013e-05
1.60103e-05
1.59048e-05
1.58139e-05
1.57138e-05
1.56283e-05
1.55271e-05
1.54468e-05
1.53502e-05
1.52738e-05
1.51756e-05
1.50972e-05
1.49964e-05
1.4915e-05
1.48041e-05
1.46895e-05
1.45106e-05
1.43716e-05
1.42238e-05
1.41354e-05
1.99999e-05
1.98593e-05
1.95686e-05
1.92681e-05
1.90156e-05
1.88529e-05
1.87156e-05
1.85892e-05
1.84308e-05
1.83064e-05
1.8183e-05
1.80838e-05
1.79635e-05
1.78676e-05
1.77591e-05
1.76657e-05
1.75643e-05
1.74804e-05
1.73772e-05
1.72911e-05
1.71813e-05
1.71016e-05
1.69835e-05
1.68962e-05
1.67849e-05
1.6696e-05
1.65855e-05
1.64905e-05
1.63863e-05
1.62907e-05
1.61856e-05
1.60952e-05
1.59895e-05
1.59011e-05
1.5802e-05
1.57156e-05
1.5616e-05
1.55384e-05
1.54434e-05
1.53681e-05
1.52709e-05
1.51964e-05
1.51e-05
1.50228e-05
1.4912e-05
1.47945e-05
1.46309e-05
1.45049e-05
1.43601e-05
1.42659e-05
1.99999e-05
1.98639e-05
1.95827e-05
1.92913e-05
1.90386e-05
1.88713e-05
1.87338e-05
1.86138e-05
1.84577e-05
1.83347e-05
1.82125e-05
1.81154e-05
1.7998e-05
1.7907e-05
1.77993e-05
1.7711e-05
1.76129e-05
1.75336e-05
1.74341e-05
1.73507e-05
1.72475e-05
1.7168e-05
1.70526e-05
1.69701e-05
1.686e-05
1.67728e-05
1.66641e-05
1.65717e-05
1.64682e-05
1.63747e-05
1.62709e-05
1.61802e-05
1.60763e-05
1.59903e-05
1.58903e-05
1.58044e-05
1.57075e-05
1.56321e-05
1.55382e-05
1.54642e-05
1.53691e-05
1.53e-05
1.52081e-05
1.51337e-05
1.50217e-05
1.49079e-05
1.47597e-05
1.46408e-05
1.44944e-05
1.43922e-05
1.99999e-05
1.98685e-05
1.95967e-05
1.93153e-05
1.90636e-05
1.88922e-05
1.87534e-05
1.86381e-05
1.84855e-05
1.83642e-05
1.82425e-05
1.81469e-05
1.80329e-05
1.79459e-05
1.78393e-05
1.7756e-05
1.76611e-05
1.75864e-05
1.74899e-05
1.74104e-05
1.73135e-05
1.72327e-05
1.71228e-05
1.70434e-05
1.69347e-05
1.68491e-05
1.6743e-05
1.66525e-05
1.65502e-05
1.64594e-05
1.6355e-05
1.62651e-05
1.61646e-05
1.60789e-05
1.59775e-05
1.58943e-05
1.58e-05
1.57257e-05
1.56331e-05
1.55613e-05
1.54696e-05
1.5406e-05
1.53179e-05
1.52453e-05
1.51335e-05
1.5029e-05
1.48914e-05
1.47748e-05
1.46235e-05
1.45123e-05
1.99999e-05
1.98731e-05
1.96106e-05
1.93398e-05
1.90901e-05
1.89152e-05
1.87742e-05
1.86621e-05
1.85138e-05
1.83945e-05
1.82729e-05
1.81781e-05
1.80678e-05
1.79835e-05
1.78791e-05
1.77995e-05
1.77089e-05
1.76373e-05
1.75447e-05
1.74699e-05
1.73773e-05
1.72963e-05
1.71929e-05
1.7115e-05
1.70083e-05
1.6925e-05
1.68207e-05
1.67324e-05
1.66324e-05
1.65426e-05
1.64373e-05
1.63506e-05
1.62522e-05
1.61651e-05
1.60643e-05
1.59846e-05
1.58917e-05
1.5818e-05
1.57275e-05
1.56586e-05
1.55717e-05
1.55125e-05
1.54269e-05
1.53567e-05
1.52484e-05
1.51539e-05
1.50209e-05
1.49033e-05
1.47459e-05
1.46252e-05
1.99999e-05
1.98776e-05
1.96243e-05
1.93643e-05
1.91178e-05
1.89401e-05
1.87964e-05
1.86859e-05
1.85423e-05
1.8425e-05
1.83032e-05
1.8209e-05
1.81023e-05
1.80198e-05
1.79185e-05
1.78415e-05
1.77562e-05
1.76857e-05
1.75988e-05
1.75283e-05
1.74385e-05
1.73597e-05
1.72616e-05
1.71848e-05
1.70802e-05
1.70003e-05
1.68958e-05
1.68118e-05
1.67139e-05
1.66221e-05
1.65187e-05
1.64364e-05
1.63366e-05
1.62489e-05
1.61511e-05
1.60737e-05
1.5981e-05
1.5909e-05
1.58206e-05
1.57555e-05
1.56736e-05
1.56179e-05
1.55335e-05
1.54676e-05
1.53657e-05
1.52777e-05
1.51447e-05
1.50251e-05
1.48609e-05
1.47291e-05
1.99999e-05
1.98821e-05
1.96378e-05
1.93887e-05
1.91463e-05
1.89667e-05
1.88201e-05
1.87098e-05
1.85708e-05
1.84555e-05
1.83335e-05
1.82398e-05
1.8136e-05
1.8055e-05
1.79566e-05
1.78824e-05
1.78016e-05
1.7732e-05
1.76522e-05
1.75843e-05
1.74978e-05
1.74222e-05
1.73281e-05
1.72528e-05
1.71504e-05
1.70742e-05
1.69684e-05
1.68907e-05
1.67928e-05
1.66985e-05
1.66007e-05
1.65202e-05
1.6417e-05
1.63318e-05
1.62373e-05
1.61598e-05
1.60677e-05
1.59985e-05
1.59121e-05
1.58515e-05
1.5774e-05
1.57202e-05
1.56383e-05
1.55785e-05
1.54823e-05
1.53966e-05
1.52616e-05
1.51392e-05
1.49669e-05
1.48222e-05
1.99999e-05
1.98864e-05
1.96509e-05
1.94129e-05
1.91755e-05
1.89946e-05
1.88451e-05
1.87339e-05
1.8599e-05
1.84855e-05
1.83637e-05
1.82705e-05
1.81686e-05
1.80894e-05
1.79929e-05
1.79226e-05
1.78443e-05
1.77772e-05
1.77042e-05
1.76374e-05
1.75566e-05
1.74822e-05
1.7393e-05
1.73185e-05
1.72193e-05
1.71454e-05
1.70401e-05
1.69681e-05
1.68671e-05
1.67743e-05
1.66824e-05
1.65994e-05
1.6495e-05
1.64144e-05
1.63207e-05
1.62426e-05
1.61527e-05
1.60861e-05
1.60016e-05
1.59457e-05
1.58709e-05
1.58195e-05
1.5742e-05
1.56879e-05
1.55942e-05
1.55086e-05
1.53715e-05
1.52446e-05
1.50616e-05
1.49025e-05
1.99999e-05
1.98907e-05
1.96637e-05
1.94368e-05
1.92048e-05
1.90236e-05
1.88715e-05
1.87584e-05
1.86268e-05
1.85151e-05
1.83939e-05
1.83009e-05
1.82003e-05
1.81227e-05
1.80275e-05
1.79617e-05
1.78841e-05
1.7822e-05
1.77537e-05
1.7688e-05
1.76149e-05
1.7539e-05
1.74572e-05
1.73814e-05
1.72867e-05
1.7214e-05
1.71113e-05
1.70427e-05
1.69376e-05
1.68511e-05
1.67618e-05
1.66741e-05
1.65724e-05
1.64961e-05
1.64004e-05
1.63227e-05
1.6236e-05
1.61715e-05
1.60888e-05
1.60369e-05
1.59642e-05
1.59167e-05
1.58436e-05
1.57931e-05
1.56993e-05
1.56136e-05
1.5474e-05
1.53393e-05
1.51434e-05
1.49692e-05
1.99999e-05
1.98948e-05
1.96762e-05
1.94603e-05
1.92339e-05
1.90535e-05
1.88993e-05
1.87833e-05
1.86543e-05
1.85441e-05
1.8424e-05
1.83308e-05
1.82314e-05
1.81544e-05
1.80612e-05
1.79987e-05