/*--------------------------------*- C++ -*----------------------------------*\
  =========                 |
  \\      /  F ield         | OpenFOAM: The Open Source CFD Toolbox
   \\    /   O peration     | Website:  https://openfoam.org
    \\  /    A nd           | Version:  7
     \\/     M anipulation  |
\*---------------------------------------------------------------------------*/
FoamFile
{
    version     2.0;
    format      ascii;
    class       volScalarField;
    location    "0.31";
    object      nut;
}
// * * * * * * * * * * * * * * * * * * * * * * * * * * * * * * * * * * * * * //

dimensions      [0 2 -1 0 0 0 0];

internalField   nonuniform List<scalar> 
70000
(
0
0
0
0
0
0
0
0
0
0
0
0
0
0
0
0
0
0
0
0
0
0
0
0
0
0
0
0
0
0
0
0
0
0
0
0
0
0
0
0
0
0
0
0
0
0
0
0
1.01583e-12
0
0
0
0
0
0
0
0
0
0
0
0
0
0
0
0
0
0
0
0
0
0
0
0
0
0
0
0
0
0
0
0
0
0
0
0
0
0
0
0
0
0
0
0
0
0
0
0
0
4.17262e-12
0
0
0
0
0
0
0
0
0
0
0
0
0
0
0
0
0
0
0
0
0
0
0
0
0
0
0
0
0
0
0
0
0
0
0
0
0
0
0
0
0
0
0
0
0
0
0
0
0
9.22165e-12
0
0
0
0
0
0
0
0
0
0
0
0
0
0
0
0
0
0
0
0
0
0
0
0
0
0
0
0
0
0
0
0
0
0
0
0
0
0
0
0
0
0
0
0
0
0
0
0
0
1.43327e-11
0
0
0
0
0
0
0
0
0
0
0
0
0
0
0
0
0
0
0
0
0
0
0
0
0
0
0
0
0
0
0
0
0
0
0
0
0
0
0
0
0
0
0
0
0
0
0
0
0
1.86077e-11
3.10798e-12
9.44437e-10
0
0
0
0
0
0
0
0
0
0
0
0
0
0
0
0
0
0
0
0
0
0
0
0
0
0
0
0
0
0
0
0
0
0
0
0
0
0
0
0
0
0
0
0
0
0
0
2.18681e-11
7.01085e-12
1.31997e-08
0
0
0
0
0
0
0
0
0
0
0
0
0
0
0
0
0
0
0
0
0
0
0
0
0
0
0
0
0
0
0
0
0
0
0
0
0
0
0
0
0
0
1.93865e-14
0
0
0
0
2.41842e-11
8.70571e-12
1.20934e-08
0
0
0
0
0
0
0
0
0
0
0
0
0
0
0
0
0
0
0
0
0
0
0
0
0
0
0
0
0
0
0
0
0
0
0
0
0
0
0
0
0
0
0
0
0
5.89553e-13
0
2.5574e-11
8.99865e-12
1.10733e-08
0
0
0
0
0
0
0
0
0
0
0
0
0
0
0
0
0
0
0
0
0
0
0
0
0
0
0
0
0
0
0
0
0
0
0
0
0
0
0
0
0
0
0
0
0
1.52803e-12
0
2.58307e-11
9.19992e-12
1.02248e-08
0
0
0
0
0
0
0
0
0
0
0
0
0
0
0
0
0
0
0
0
0
0
0
0
0
0
0
0
0
0
0
0
0
0
0
0
0
0
0
0
0
0
0
0
0
2.48618e-12
0
2.49623e-11
8.1994e-12
9.51476e-09
0
0
0
0
0
0
0
0
0
0
0
0
0
0
0
0
0
0
0
0
0
0
0
0
0
0
0
0
0
0
0
0
0
0
0
0
0
0
0
0
0
0
0
0
0
3.45638e-12
0
2.339e-11
2.9842e-12
8.87241e-09
0
0
0
0
0
0
0
0
0
0
0
0
0
0
0
0
0
0
0
0
0
0
0
0
0
0
0
0
0
0
0
0
0
0
0
0
0
0
0
0
0
0
0
0
0
4.52212e-12
3.09413e-13
2.15581e-11
0
8.23174e-09
0
0
0
0
0
0
0
0
0
0
0
0
0
0
0
0
0
0
0
0
0
0
0
0
0
0
0
0
0
0
0
0
0
0
0
0
0
0
0
0
0
0
0
0
0
5.8328e-12
1.51338e-12
1.96474e-11
0
7.57284e-09
0
0
0
0
0
0
0
0
0
0
0
2.13298e-11
5.21773e-11
1.82521e-11
0
0
0
0
0
0
0
0
0
0
0
0
0
0
0
0
0
0
0
0
0
0
0
0
0
0
0
0
0
2.60195e-13
0
7.47017e-12
2.2323e-12
1.69077e-11
0
6.90188e-09
0
0
0
0
0
0
0
0
0
0
0
0
0
0
5.50492e-11
9.36386e-11
7.79337e-11
3.23576e-11
7.92795e-12
0
0
0
0
0
0
0
0
0
0
0
0
0
0
0
0
0
0
0
0
0
0
0
5.42987e-13
1.4279e-12
4.08503e-13
9.47472e-12
2.30199e-12
1.18042e-11
0
6.22997e-09
0
0
0
1.19658e-11
0
0
0
0
0
0
0
0
0
0
0
0
1.09231e-11
4.88563e-11
8.99061e-11
1.22209e-10
1.22694e-10
8.07129e-11
3.83054e-11
1.60102e-11
5.97629e-12
1.53637e-12
0
0
0
0
0
0
0
0
0
0
0
0
1.10022e-13
1.1206e-13
1.12059e-12
9.65036e-13
1.79585e-12
3.469e-12
1.79863e-12
1.20902e-11
1.45095e-12
2.93136e-12
0
5.56567e-09
0
0
0
1.14376e-10
0
0
0
0
0
0
0
0
0
0
0
0
0
0
0
1.13162e-11
3.30792e-11
6.11369e-11
9.49238e-11
1.31202e-10
1.63256e-10
1.74682e-10
1.4488e-10
9.29758e-11
5.31198e-11
3.03205e-11
1.81252e-11
1.16549e-11
8.07506e-12
6.0099e-12
4.74418e-12
3.9464e-12
3.67426e-12
3.37594e-12
3.91199e-12
3.72768e-12
4.87052e-12
4.86179e-12
5.52853e-12
8.23702e-12
5.35789e-12
1.68369e-11
0
0
0
4.91529e-09
0
0
0
2.01848e-10
0
0
0
0
0
0
0
0
0
0
0
0
0
0
0
0
0
2.53217e-12
1.4075e-11
2.66359e-11
4.14667e-11
6.07697e-11
8.62041e-11
1.18173e-10
1.56207e-10
1.9845e-10
2.41611e-10
2.72163e-10
2.63594e-10
2.11818e-10
1.49982e-10
1.02721e-10
7.28567e-11
5.42601e-11
4.40998e-11
3.66562e-11
3.33881e-11
3.00303e-11
2.75741e-11
3.02565e-11
2.32752e-11
3.66272e-11
1.00769e-11
1.1434e-11
7.50041e-11
4.28435e-09
0
0
0
2.61896e-10
0
0
0
0
0
0
0
0
0
0
0
0
0
0
0
0
0
0
0
9.79547e-13
9.29183e-12
1.78625e-11
2.6776e-11
3.63302e-11
4.66872e-11
5.87517e-11
7.3522e-11
9.32138e-11
1.19428e-10
1.53136e-10
1.95866e-10
2.47598e-10
3.12016e-10
3.87591e-10
4.67831e-10
5.16671e-10
5.00689e-10
4.32934e-10
3.50071e-10
3.0181e-10
2.57745e-10
2.90378e-10
3.46055e-10
7.46069e-10
1.46784e-09
3.678e-09
0
0
0
2.79607e-10
0
0
0
0
0
0
0
0
0
0
0
0
0
0
0
0
0
0
0
0
0
1.96129e-12
7.99179e-12
1.40297e-11
1.99936e-11
2.6027e-11
3.19283e-11
3.77172e-11
4.3297e-11
4.80917e-11
5.29384e-11
5.57016e-11
6.03434e-11
6.27251e-11
7.19451e-11
8.53935e-11
1.10991e-10
1.71291e-10
2.55346e-10
4.85412e-10
8.3438e-10
1.73075e-09
3.24485e-09
5.39879e-09
5.74334e-09
3.10053e-09
0
0
0
2.37809e-10
0
0
0
0
0
0
0
0
0
0
0
0
0
0
0
0
0
0
0
0
0
0
0
3.67507e-12
7.61735e-12
1.11769e-11
1.41763e-11
1.6415e-11
1.78801e-11
1.75018e-11
1.61745e-11
1.06176e-11
4.17153e-12
0
0
0
0
0
0
2.93364e-12
1.46628e-10
8.49361e-10
2.08315e-09
4.7742e-09
6.59723e-09
2.55489e-09
0
0
0
1.17671e-10
0
0
0
0
0
0
0
0
0
0
0
0
0
0
0
0
0
0
0
0
0
0
0
0
1.97702e-12
4.17816e-12
5.54443e-12
5.68746e-12
4.74733e-12
1.32971e-12
0
0
0
0
0
0
0
0
0
0
0
3.76909e-10
1.07444e-09
2.98978e-09
4.70151e-09
2.04239e-09
0
0
0
0
0
0
0
0
0
0
0
0
0
0
0
0
0
0
0
0
0
0
0
0
0
0
0
0
0
1.03981e-12
1.37341e-12
7.41018e-14
0
0
0
0
0
0
0
0
0
0
0
0
0
0
1.61364e-10
1.16433e-09
2.20927e-09
1.56261e-09
0
0
0
0
0
0
0
0
0
0
0
0
0
0
0
0
0
0
0
0
0
0
0
0
0
0
0
0
0
0
0
0
0
0
0
0
0
0
0
0
0
0
0
0
0
0
0
0
0
1.11352e-09
0
0
0
0
0
0
0
0
0
0
0
0
0
0
0
0
0
0
0
0
0
0
0
0
0
0
0
0
0
0
0
0
0
0
0
0
0
0
0
0
0
0
0
0
0
0
0
0
0
6.91917e-10
0
0
0
0
0
0
0
0
0
0
0
0
0
0
0
0
0
0
0
0
0
0
0
0
0
0
0
0
0
0
0
0
0
0
0
0
0
0
0
0
0
0
0
0
0
0
0
0
0
2.93999e-10
0
0
0
0
0
0
0
0
0
0
0
0
0
0
0
0
0
0
0
0
0
0
0
0
0
0
0
0
0
0
0
0
0
0
0
0
0
0
0
0
0
0
0
0
0
0
0
0
0
0
0
0
0
0
0
0
0
0
0
0
0
0
0
0
0
0
0
0
0
0
0
0
0
0
0
0
0
0
0
0
0
0
0
0
0
0
0
0
0
0
0
0
0
0
0
0
0
0
0
0
0
0
0
0
0
0
0
0
0
0
0
0
0
0
0
0
0
0
0
0
0
0
0
0
0
0
0
0
0
0
0
0
0
0
0
0
0
0
0
0
0
0
0
0
0
0
0
0
0
0
0
0
0
0
0
0
0
0
0
0
0
0
0
0
0
0
0
0
0
0
0
0
0
0
0
0
0
0
0
0
0
0
0
0
0
0
0
0
0
0
0
0
0
0
0
0
0
0
0
0
0
0
0
0
0
0
0
0
0
0
0
0
0
0
0
0
0
0
0
0
0
0
0
0
0
0
0
0
0
0
0
0
0
0
0
0
0
0
0
0
0
0
0
0
0
0
0
0
0
0
5.06617e-11
0
0
0
0
0
0
0
0
0
0
0
0
0
0
0
0
0
0
0
0
0
0
0
0
0
0
0
0
0
0
0
0
0
0
0
0
0
0
0
0
0
0
0
0
0
0
0
0
0
1.12459e-09
0
0
0
0
0
0
0
0
0
0
0
0
0
0
0
0
0
0
0
0
0
0
0
0
0
0
0
0
0
0
0
0
0
0
0
0
0
0
0
0
0
0
0
0
0
0
0
0
0
2.07462e-09
0
0
0
0
0
0
0
0
0
0
0
0
0
0
0
0
0
0
0
0
0
0
0
0
0
0
1.31554e-13
0
0
0
0
0
0
0
0
0
0
0
0
0
0
0
0
0
0
0
0
0
0
2.89909e-09
0
0
0
0
0
0
0
0
0
0
0
0
0
0
0
0
0
0
0
0
0
0
0
0
0
5.83835e-14
1.13748e-12
0
0
0
0
0
0
0
0
0
0
0
0
0
0
0
0
0
0
0
0
0
0
3.59944e-09
0
0
0
0
0
0
0
0
0
0
0
0
0
0
0
0
0
0
0
0
0
0
0
0
0
2.4855e-12
2.61018e-12
0
0
0
0
0
0
0
0
0
0
0
0
0
0
0
0
0
0
0
0
1.19911e-09
0
4.18038e-09
0
0
0
0
0
0
0
0
0
0
0
0
0
0
0
0
0
0
0
0
0
0
0
0
0
5.84679e-12
4.79917e-12
0
0
0
0
0
0
0
0
0
0
0
0
0
0
0
0
0
0
0
1.13904e-09
2.28588e-09
0
4.64916e-09
0
0
0
0
0
0
0
0
0
0
0
0
0
0
0
0
0
0
0
0
0
0
0
0
2.20794e-12
1.05007e-11
8.05656e-12
0
0
0
0
0
0
0
0
0
0
0
0
0
0
0
0
0
0
0
8.53395e-09
2.18195e-09
0
5.0138e-09
0
0
0
0
0
0
0
0
0
0
0
0
0
0
0
0
0
0
0
0
0
0
0
0
8.53731e-12
1.6925e-11
1.28683e-11
0
0
0
0
0
0
0
0
0
0
0
0
0
0
0
0
0
0
3.4193e-08
9.9924e-09
1.38167e-09
0
5.28287e-09
0
0
0
0
0
0
0
0
0
0
0
0
0
0
0
0
0
0
0
0
0
0
0
0
1.72526e-11
2.57479e-11
1.98907e-11
0
0
0
0
0
0
0
0
0
0
0
0
0
0
0
0
0
3.47592e-08
3.67287e-08
8.87117e-09
2.41058e-10
0
5.46621e-09
0
0
0
0
0
0
0
0
0
0
0
0
0
0
0
0
0
0
0
0
0
0
0
4.76029e-12
2.91087e-11
3.77842e-11
2.99931e-11
4.30682e-12
0
0
0
0
0
0
0
0
0
0
0
0
0
0
0
2.19091e-09
7.91243e-08
2.99381e-08
6.83377e-09
0
0
5.57473e-09
0
0
0
0
0
0
0
0
0
0
0
0
0
0
0
0
0
0
0
0
0
0
0
1.81421e-11
4.50603e-11
5.4077e-11
4.43106e-11
1.41886e-11
0
0
0
0
0
0
0
0
0
0
0
0
0
0
0
2.97491e-08
6.77741e-08
2.30629e-08
4.5939e-09
0
0
5.61944e-09
0
0
0
0
0
0
0
0
0
0
0
0
0
0
0
0
0
0
0
0
0
0
0
3.63283e-11
6.63002e-11
7.5946e-11
6.4303e-11
2.96881e-11
0
0
0
0
0
0
0
0
0
0
0
0
0
0
8.51125e-09
5.3352e-08
5.02424e-08
1.73281e-08
2.44855e-09
0
0
5.61054e-09
0
0
0
0
0
0
0
0
0
0
0
0
0
0
0
0
0
0
0
0
0
0
4.27013e-12
6.06224e-11
9.43012e-11
1.05043e-10
9.18263e-11
5.29051e-11
0
0
0
0
0
0
0
0
0
0
0
0
0
2.44774e-09
2.24787e-08
5.77866e-08
3.70418e-08
1.26785e-08
5.19071e-10
0
0
5.55699e-09
0
0
0
0
0
0
0
0
0
0
0
0
0
0
0
0
0
0
0
0
0
0
2.88219e-11
9.26036e-11
1.3086e-10
1.43413e-10
1.29211e-10
8.65027e-11
1.29965e-11
0
0
0
0
0
0
0
0
0
0
0
4.05374e-10
9.61712e-09
3.4902e-08
5.04384e-08
2.75618e-08
8.91273e-09
0
0
0
5.46648e-09
0
0
0
0
0
0
0
0
0
0
0
0
0
0
0
0
0
0
0
0
0
0
6.15943e-11
1.34164e-10
1.78152e-10
1.93565e-10
1.79343e-10
1.3381e-10
5.48308e-11
0
0
0
0
0
0
0
0
0
0
0
4.49856e-09
1.79333e-08
4.08615e-08
4.07602e-08
2.0583e-08
5.85976e-09
0
0
0
5.34548e-09
0
0
0
0
0
0
0
0
0
0
0
0
0
0
0
0
0
0
0
0
0
0
1.04475e-10
1.87537e-10
2.38781e-10
2.5854e-10
2.45743e-10
1.98947e-10
1.1636e-10
0
0
0
0
0
0
0
0
0
0
2.25238e-09
9.63533e-09
2.53579e-08
4.02664e-08
3.21423e-08
1.52977e-08
3.39171e-09
0
0
0
5.19943e-09
0
0
0
0
0
0
0
0
0
0
0
0
0
0
0
0
0
0
0
0
0
2.84933e-11
1.59652e-10
2.55325e-10
3.1584e-10
3.4197e-10
3.32657e-10
2.86958e-10
2.03581e-10
8.14746e-11
0
0
0
0
0
0
0
0
1.25901e-09
5.6068e-09
1.5152e-08
2.99573e-08
3.60384e-08
2.5145e-08
1.12128e-08
1.41414e-09
0
0
0
5.03289e-09
0
0
0
0
0
0
0
0
0
0
0
0
0
0
0
0
0
0
0
0
0
7.98941e-11
2.29626e-10
3.40534e-10
4.12939e-10
4.4813e-10
4.45154e-10
4.03925e-10
3.2375e-10
2.04986e-10
5.05586e-11
0
0
0
0
0
0
8.76866e-10
3.61116e-09
9.49451e-09
2.00438e-08
3.11832e-08
3.0684e-08
1.95896e-08
8.02034e-09
0
0
0
0
4.84977e-09
0
0
0
0
0
0
0
0
0
0
0
0
0
0
0
0
0
0
0
0
0
1.4573e-10
3.17213e-10
4.46588e-10
5.34229e-10
5.81988e-10
5.89227e-10
5.5705e-10
4.85488e-10
3.76994e-10
2.37672e-10
7.90693e-11
0
0
0
6.44702e-11
8.39644e-10
2.65082e-09
6.43676e-09
1.34698e-08
2.34078e-08
2.98064e-08
2.54729e-08
1.51932e-08
5.51906e-09
0
0
0
0
4.65352e-09
0
0
0
0
0
0
0
0
0
0
0
0
0
0
0
0
0
0
0
0
0
2.28479e-10
4.25505e-10
5.77296e-10
6.84391e-10
7.4922e-10
7.71797e-10
7.5468e-10
6.98838e-10
6.09764e-10
4.97534e-10
3.80371e-10
2.90808e-10
2.85595e-10
4.66582e-10
1.01666e-09
2.27155e-09
4.82047e-09
9.53412e-09
1.69677e-08
2.48743e-08
2.69883e-08
2.08723e-08
1.17125e-08
3.57065e-09
0
0
0
0
4.44732e-09
4.33232e-10
0
0
0
0
0
0
0
0
0
0
0
0
0
0
0
0
0
0
0
5.77043e-11
3.30764e-10
5.57805e-10
7.36791e-10
8.68584e-10
9.5618e-10
1.00068e-09
1.00627e-09
9.75299e-10
9.17365e-10
8.47129e-10
7.91067e-10
7.94528e-10
9.35007e-10
1.34398e-09
2.24964e-09
4.03627e-09
7.29008e-09
1.25923e-08
1.95048e-08
2.46548e-08
2.36439e-08
1.69836e-08
8.9616e-09
2.07527e-09
0
0
0
0
4.23404e-09
8.31569e-10
0
0
0
0
0
0
0
0
0
0
0
0
0
0
0
0
0
0
0
1.45087e-10
4.55246e-10
7.17526e-10
9.29463e-10
1.09235e-09
1.20981e-09
1.28448e-09
1.32227e-09
1.32772e-09
1.3154e-09
1.30498e-09
1.3331e-09
1.45981e-09
1.78436e-09
2.46632e-09
3.76996e-09
6.08713e-09
9.88674e-09
1.52614e-08
2.08551e-08
2.32663e-08
2.03157e-08
1.37699e-08
6.80026e-09
9.5647e-10
0
0
0
0
4.01616e-09
1.16548e-09
0
0
0
0
0
0
0
0
0
0
0
0
0
0
0
0
0
0
0
2.51563e-10
6.04437e-10
9.08049e-10
1.1598e-09
1.36139e-09
1.51743e-09
1.63227e-09
1.71386e-09
1.76991e-09
1.82032e-09
1.8903e-09
2.02869e-09
2.3104e-09
2.85474e-09
3.84337e-09
5.55462e-09
8.32377e-09
1.23813e-08
1.72557e-08
2.10803e-08
2.1241e-08
1.72688e-08
1.11529e-08
5.12166e-09
1.53077e-10
0
0
0
0
3.796e-09
1.43998e-09
0
0
0
0
0
0
0
0
0
0
0
0
0
0
0
0
0
0
0
3.78547e-10
7.80493e-10
1.1325e-09
1.43206e-09
1.68133e-09
1.8863e-09
2.05317e-09
2.19247e-09
2.31584e-09
2.4484e-09
2.62182e-09
2.89811e-09
3.36454e-09
4.15589e-09
5.46331e-09
7.54174e-09
1.05954e-08
1.45376e-08
1.8435e-08
2.04306e-08
1.89832e-08
1.46061e-08
9.04946e-09
3.84196e-09
0
0
0
0
0
3.57573e-09
1.66018e-09
0
0
0
0
0
0
0
0
0
0
0
0
0
0
0
0
0
0
2.67745e-11
5.26887e-10
9.84983e-10
1.39344e-09
1.74987e-09
2.05718e-09
2.323e-09
2.55563e-09
2.76886e-09
2.97825e-09
3.21421e-09
3.5155e-09
3.956e-09
4.62993e-09
5.67998e-09
7.28458e-09
9.62754e-09
1.27225e-08
1.61712e-08
1.88188e-08
1.92129e-08
1.67503e-08
1.23471e-08
7.38276e-09
2.89329e-09
0
0
0
0
0
3.35733e-09
1.83122e-09
0
0
0
0
0
0
0
0
0
0
0
0
0
0
0
0
0
0
1.34236e-10
6.96568e-10
1.21856e-09
1.69235e-09
2.11564e-09
2.49264e-09
2.83259e-09
3.14646e-09
3.45159e-09
3.76694e-09
4.12836e-09
4.58111e-09
5.20647e-09
6.09814e-09
7.39477e-09
9.23051e-09
1.16742e-08
1.45324e-08
1.7191e-08
1.85424e-08
1.76981e-08
1.4685e-08
1.04733e-08
6.0846e-09
2.21928e-09
0
0
0
0
0
3.1425e-09
1.95816e-09
0
0
0
0
0
0
0
0
0
0
0
0
0
0
0
0
0
0
2.55147e-10
8.86394e-10
1.48053e-09
2.02908e-09
2.52992e-09
2.9892e-09
3.41755e-09
3.82937e-09
4.24498e-09
4.68628e-09
5.19423e-09
5.81735e-09
6.63751e-09
7.73884e-09
9.2377e-09
1.11905e-08
1.35311e-08
1.58965e-08
1.76038e-08
1.77891e-08
1.6087e-08
1.2857e-08
8.94807e-09
5.09545e-09
1.7723e-09
0
0
0
0
0
2.93267e-09
2.04586e-09
0
0
0
0
0
0
0
0
0
0
0
0
0
0
0
0
0
0
3.87079e-10
1.09368e-09
1.76831e-09
2.40111e-09
2.99058e-09
3.54497e-09
4.07626e-09
4.60276e-09
5.14659e-09
5.73221e-09
6.40355e-09
7.20661e-09
8.21597e-09
9.49452e-09
1.11142e-08
1.30319e-08
1.50618e-08
1.67509e-08
1.749e-08
1.67398e-08
1.45147e-08
1.12853e-08
7.72821e-09
4.36397e-09
1.51156e-09
0
0
0
0
0
2.72897e-09
2.09899e-09
0
0
0
0
0
0
0
0
0
0
0
0
0
0
0
0
0
0
5.26113e-10
1.31392e-09
2.07684e-09
2.80293e-09
3.49174e-09
4.15322e-09
4.80118e-09
5.45741e-09
6.14429e-09
6.88835e-09
7.73139e-09
8.70998e-09
9.88299e-09
1.12779e-08
1.29034e-08
1.46197e-08
1.61687e-08
1.70983e-08
1.69683e-08
1.55435e-08
1.30587e-08
9.96305e-09
6.77021e-09
3.84593e-09
1.4016e-09
0
0
0
0
0
2.5323e-09
2.12197e-09
0
0
0
0
0
0
0
0
0
0
0
0
0
0
0
0
0
0
6.6664e-10
1.54045e-09
2.39812e-09
3.22527e-09
4.02263e-09
4.80109e-09
5.57692e-09
6.37387e-09
7.21328e-09
8.12174e-09
9.13148e-09
1.02635e-08
1.15515e-08
1.2974e-08
1.44726e-08
1.58393e-08
1.68044e-08
1.69904e-08
1.61608e-08
1.4311e-08
1.17542e-08
8.86836e-09
6.03291e-09
3.50284e-09
1.41144e-09
0
0
0
0
0
2.34331e-09
2.11892e-09
0
0
0
0
0
0
0
0
0
0
0
0
0
0
0
0
0
0
8.01258e-10
1.7641e-09
2.72075e-09
3.65449e-09
4.56661e-09
5.46826e-09
6.37837e-09
7.32039e-09
8.31328e-09
9.37931e-09
1.05338e-08
1.17774e-08
1.31084e-08
1.44521e-08
1.56979e-08
1.66132e-08
1.69698e-08
1.6508e-08
1.5179e-08
1.31094e-08
1.06084e-08
7.97248e-09
5.47898e-09
3.29986e-09
1.51389e-09
1.67995e-10
0
0
0
0
2.16251e-09
2.09371e-09
0
0
0
0
0
0
0
0
0
0
0
0
0
0
0
0
0
0
9.20723e-10
1.97315e-09
3.02984e-09
4.07214e-09
5.10048e-09
6.12602e-09
7.16958e-09
8.25162e-09
9.38688e-09
1.05874e-08
1.18465e-08
1.31407e-08
1.44264e-08
1.55858e-08
1.64849e-08
1.69087e-08
1.67047e-08
1.57413e-08
1.4106e-08
1.19729e-08
9.61153e-09
7.24345e-09
5.07295e-09
3.2055e-09
1.68476e-09
5.42679e-10
0
0
0
0
1.99021e-09
2.04999e-09
1.9419e-10
0
0
0
0
0
0
0
0
0
0
0
0
0
0
0
0
0
1.0138e-09
2.15336e-09
3.30729e-09
4.45504e-09
5.5947e-09
6.73752e-09
7.90405e-09
9.1092e-09
1.03611e-08
1.1656e-08
1.29631e-08
1.42332e-08
1.53832e-08
1.62752e-08
1.67818e-08
1.67359e-08
1.60735e-08
1.47731e-08
1.29962e-08
1.09117e-08
8.74154e-09
6.65026e-09
4.78033e-09
3.19022e-09
1.90193e-09
9.33822e-10
2.39087e-10
0
0
0
1.82662e-09
1.99118e-09
3.70194e-10
0
0
0
0
0
0
0
0
0
0
0
0
0
0
0
0
0
1.06827e-09
2.28785e-09
3.53247e-09
4.77621e-09
6.01474e-09
7.25947e-09
8.52717e-09
9.82557e-09
1.11538e-08
1.24881e-08
1.37756e-08
1.49436e-08
1.58828e-08
1.6462e-08
1.65819e-08
1.6139e-08
1.51502e-08
1.36689e-08
1.18781e-08
9.9193e-09
7.97353e-09
6.15831e-09
4.56595e-09
3.22531e-09
2.14411e-09
1.32748e-09
7.22106e-10
3.41278e-10
6.58143e-11
0
1.67186e-09
1.92034e-09
5.04096e-10
0
0
0
0
0
0
0
0
0
0
0
0
0
0
0
0
0
1.07162e-09
2.3599e-09
3.68185e-09
5.00599e-09
6.32363e-09
7.64546e-09
8.98112e-09
1.03312e-08
1.16834e-08
1.29936e-08
1.41922e-08
1.51909e-08
1.58739e-08
1.61375e-08
1.59207e-08
1.51856e-08
1.40065e-08
1.24744e-08
1.07619e-08
8.98051e-09
7.2777e-09
5.72999e-09
4.39431e-09
3.28069e-09
2.3885e-09
1.70851e-09
1.18271e-09
7.90734e-10
3.3693e-10
0
1.52595e-09
1.84018e-09
6.00924e-10
0
0
0
0
0
0
0
0
0
0
0
0
0
0
0
0
0
1.01199e-09
2.35367e-09
3.73359e-09
5.1159e-09
6.48572e-09
7.85088e-09
9.21256e-09
1.0565e-08
1.18827e-08
1.31055e-08
1.4156e-08
1.49413e-08
1.53582e-08
1.53407e-08
1.48668e-08
1.39532e-08
1.27038e-08
1.12187e-08
9.64664e-09
8.07455e-09
6.62012e-09
5.32592e-09
4.22724e-09
3.3237e-09
2.60749e-09
2.05648e-09
1.60983e-09
1.20434e-09
5.47042e-10
0
1.3888e-09
1.75323e-09
6.65582e-10
0
0
0
0
0
0
0
0
0
0
0
0
0
0
0
0
0
8.79616e-10
2.25574e-09
3.66993e-09
5.08201e-09
6.47154e-09
7.83995e-09
9.18184e-09
1.04849e-08
1.17118e-08
1.2795e-08
1.36584e-08
1.42151e-08
1.43877e-08
1.41489e-08
1.35087e-08
1.25201e-08
1.12927e-08
9.92129e-09
8.52744e-09
7.17882e-09
5.96576e-09
4.90634e-09
4.02543e-09
3.3161e-09
2.76454e-09
2.33951e-09
1.98005e-09
1.56786e-09
6.68685e-10
0
1.26028e-09
1.66173e-09
7.0277e-10
0
0
0
0
0
0
0
0
0
0
0
0
0
0
0
0
0
6.68371e-10
2.05738e-09
3.47922e-09
4.88927e-09
6.26288e-09
7.59323e-09
8.87108e-09
1.00771e-08
1.11683e-08
1.20792e-08
1.27402e-08
1.308e-08
1.30532e-08
1.26635e-08
1.19419e-08
1.0959e-08
9.81668e-09
8.5985e-09
7.3997e-09
6.27251e-09
5.28306e-09
4.43543e-09
3.75005e-09
3.21468e-09
2.81193e-09
2.50792e-09
2.24429e-09
1.8346e-09
6.25865e-10
0
1.14016e-09
1.56757e-09
7.16965e-10
0
0
0
0
0
0
0
0
0
0
0
0
0
0
0
0
0
3.77293e-10
1.75647e-09
3.15851e-09
4.5346e-09
5.85712e-09
7.11204e-09
8.28801e-09
9.36111e-09
1.02902e-08
1.10165e-08
1.14823e-08
1.16387e-08
1.1468e-08
1.09936e-08
1.02584e-08
9.33714e-09
8.31754e-09
7.26907e-09
6.26377e-09
5.34216e-09
4.55054e-09
3.88681e-09
3.36762e-09
2.97654e-09
2.6955e-09
2.49417e-09
2.31765e-09
1.90122e-09
2.5887e-10
0
1.02822e-09
1.47242e-09
7.1235e-10
0
0
0
0
0
0
0
0
0
0
0
0
0
0
0
0
0
1.16778e-11
1.35896e-09
2.7154e-09
4.02867e-09
5.26907e-09
6.4201e-09
7.46748e-09
8.38814e-09
9.14737e-09
9.69546e-09
9.99181e-09
1.0009e-08
9.74828e-09
9.24395e-09
8.54374e-09
7.71769e-09
6.83671e-09
5.95618e-09
5.13e-09
4.38952e-09
3.76472e-09
3.2513e-09
2.8605e-09
2.57361e-09
2.37242e-09
2.2317e-09
2.09552e-09
1.61444e-09
0
0
9.24177e-10
1.37769e-09
6.92766e-10
0
0
0
0
0
0
0
0
0
0
0
0
0
0
0
0
0
0
8.79345e-10
2.1683e-09
3.39579e-09
4.53143e-09
5.55945e-09
6.46635e-09
7.2318e-09
7.8289e-09
8.22098e-09
8.38371e-09
8.30619e-09
8.001e-09
7.50819e-09
6.8741e-09
6.1576e-09
5.41518e-09
4.69034e-09
4.02243e-09
3.43442e-09
2.94379e-09
2.54524e-09
2.24253e-09
2.01602e-09
1.84483e-09
1.70562e-09
1.53146e-09
8.9915e-10
0
0
8.27725e-10
1.28462e-09
6.61672e-10
0
0
0
0
0
0
0
0
0
0
0
0
0
0
0
0
0
0
3.40101e-10
1.5453e-09
2.67181e-09
3.69032e-09
4.58772e-09
5.35453e-09
5.97471e-09
6.43049e-09
6.69855e-09
6.76425e-09
6.6317e-09
6.31882e-09
5.86476e-09
5.31183e-09
4.70719e-09
4.09547e-09
3.50933e-09
2.9764e-09
2.5127e-09
2.12753e-09
1.81343e-09
1.56616e-09
1.36589e-09
1.18697e-09
1.00512e-09
7.41002e-10
0
0
0
7.38527e-10
1.19419e-09
6.22134e-10
0
0
0
0
0
0
0
0
0
0
0
0
0
0
0
0
0
0
0
8.81693e-10
1.90027e-09
2.79912e-09
3.56918e-09
4.20609e-09
4.70068e-09
5.04289e-09
5.21831e-09
5.22332e-09
5.06757e-09
4.77392e-09
4.37409e-09
3.90722e-09
3.41137e-09
2.91886e-09
2.45378e-09
2.0357e-09
1.67433e-09
1.37349e-09
1.12358e-09
9.14349e-10
7.26582e-10
5.32046e-10
3.08851e-10
0
0
0
0
6.56235e-10
1.10722e-09
5.76825e-10
0
0
0
0
0
0
0
0
0
0
0
0
0
0
0
0
0
0
0
2.16682e-10
1.12786e-09
1.91281e-09
2.56708e-09
3.09168e-09
3.48448e-09
3.74075e-09
3.85466e-09
3.82893e-09
3.6747e-09
3.41601e-09
3.08054e-09
2.7005e-09
2.30603e-09
1.92075e-09
1.56307e-09
1.24618e-09
9.73566e-10
7.45614e-10
5.52459e-10
3.81081e-10
2.14378e-10
2.69461e-11
0
0
0
0
0
5.80489e-10
1.02436e-09
5.28038e-10
0
0
0
0
0
0
0
0
0
0
0
0
0
0
0
0
0
0
0
0
4.0012e-10
1.08269e-09
1.63778e-09
2.07116e-09
2.38613e-09
2.58294e-09
2.66169e-09
2.62769e-09
2.4927e-09
2.28006e-09
2.01267e-09
1.71773e-09
1.41724e-09
1.13083e-09
8.70819e-10
6.45906e-10
4.56228e-10
2.9988e-10
1.67392e-10
4.63875e-11
0
0
0
0
0
0
0
5.10921e-10
9.46098e-10
4.77713e-10
0
0
0
0
0
0
0
0
0
0
0
0
0
0
0
0
0
0
0
0
0
3.52861e-10
8.2735e-10
1.19098e-09
1.45085e-09
1.61067e-09
1.674e-09
1.64815e-09
1.54528e-09
1.38439e-09
1.18622e-09
9.7333e-10
7.62244e-10
5.68376e-10
4.00086e-10
2.63158e-10
1.56293e-10
7.61741e-11
1.39884e-11
0
0
0
0
0
0
0
0
4.47163e-10
8.72785e-10
4.27461e-10
0
0
0
0
0
0
0
0
0
0
0
0
0
0
0
0
0
0
0
0
0
0
1.70318e-10
4.83683e-10
7.07891e-10
8.48923e-10
9.12068e-10
9.0551e-10
8.41462e-10
7.35995e-10
6.07135e-10
4.73079e-10
3.47616e-10
2.4252e-10
1.63651e-10
1.14602e-10
9.30011e-11
9.50403e-11
1.12213e-10
1.37222e-10
1.62181e-10
1.83506e-10
2.04973e-10
2.30436e-10
2.83373e-10
4.56829e-10
0
3.88848e-10
8.04671e-10
3.78599e-10
0
0
0
0
0
0
0
0
0
0
0
0
0
0
0
0
0
0
0
0
0
0
0
0
1.73651e-10
3.09428e-10
3.83223e-10
4.03514e-10
3.81988e-10
3.33151e-10
2.72455e-10
2.1503e-10
1.72541e-10
1.5401e-10
1.63654e-10
2.03212e-10
2.69211e-10
3.57533e-10
4.59944e-10
5.71166e-10
6.84656e-10
8.00564e-10
9.22457e-10
1.06484e-09
1.31984e-09
1.98776e-09
0
3.35615e-10
7.41908e-10
3.3219e-10
0
0
0
0
0
0
0
0
0
0
0
0
0
0
0
0
0
0
0
0
0
0
0
0
0
0
8.60952e-11
1.37701e-10
1.60586e-10
1.68193e-10
1.74062e-10
1.9121e-10
2.29409e-10
2.95808e-10
3.92912e-10
5.21003e-10
6.75477e-10
8.51668e-10
1.0411e-09
1.23918e-09
1.43994e-09
1.64524e-09
1.85789e-09
2.10033e-09
2.52509e-09
3.60224e-09
0
2.87115e-10
6.84594e-10
2.89079e-10
0
0
0
0
0
0
0
0
0
0
0
0
0
0
0
0
0
0
0
0
0
0
0
0
0
0
1.349e-11
9.85458e-11
1.66254e-10
2.29291e-10
2.99867e-10
3.89275e-10
5.05872e-10
6.55189e-10
8.38157e-10
1.05358e-09
1.29547e-09
1.55811e-09
1.83218e-09
2.11311e-09
2.39477e-09
2.68001e-09
2.97029e-09
3.29573e-09
3.86168e-09
5.27946e-09
0
2.43014e-10
6.32788e-10
2.49962e-10
0
0
0
0
0
0
0
0
0
0
0
0
0
0
0
0
0
0
0
0
0
0
0
0
0
1.7912e-11
1.54833e-10
2.73649e-10
3.85334e-10
5.02109e-10
6.35187e-10
7.94212e-10
9.86578e-10
1.21631e-09
1.4827e-09
1.78283e-09
2.109e-09
2.45402e-09
2.80744e-09
3.16428e-09
3.51798e-09
3.87192e-09
4.22669e-09
4.6194e-09
5.30287e-09
7.00431e-09
0
2.03006e-10
5.86515e-10
2.15427e-10
0
0
0
0
0
0
0
0
0
0
0
0
0
0
0
0
0
0
0
0
0
0
0
0
1.58404e-10
3.37378e-10
4.97862e-10
6.49387e-10
8.03203e-10
9.71352e-10
1.16433e-09
1.39005e-09
1.65505e-09
1.96194e-09
2.30823e-09
2.68899e-09
3.09464e-09
3.51626e-09
3.94212e-09
4.36654e-09
4.78262e-09
5.19413e-09
5.60136e-09
6.04793e-09
6.82883e-09
8.76762e-09
0
1.66811e-10
5.45819e-10
1.86011e-10
0
0
0
0
0
0
0
0
0
0
0
0
0
0
0
0
0
0
0
0
0
0
2.00844e-10
4.40862e-10
6.53516e-10
8.4699e-10
1.02972e-09
1.21191e-09
1.40528e-09
1.62189e-09
1.87171e-09
2.16103e-09
2.49497e-09
2.87505e-09
3.29674e-09
3.75296e-09
4.23212e-09
4.72347e-09
5.214e-09
5.6973e-09
6.16631e-09
6.62514e-09
7.07437e-09
7.56362e-09
8.42515e-09
1.05628e-08
0
1.34189e-10
5.10777e-10
1.62267e-10
0
0
0
0
0
0
0
0
0
0
0
0
0
0
0
0
0
0
0
0
2.80353e-10
5.96911e-10
8.68844e-10
1.10952e-09
1.32886e-09
1.5353e-09
1.73804e-09
1.94813e-09
2.17786e-09
2.43953e-09
2.74267e-09
3.09214e-09
3.49094e-09
3.93966e-09
4.43161e-09
4.95744e-09
5.50353e-09
6.0573e-09
6.6046e-09
7.13831e-09
7.65142e-09
8.14846e-09
8.63069e-09
9.15321e-09
1.00812e-08
1.23855e-08
0
1.04947e-10
4.8154e-10
1.44838e-10
0
0
0
0
0
0
0
0
0
0
0
0
0
0
0
0
0
0
3.48742e-10
7.79153e-10
1.13861e-09
1.44335e-09
1.7096e-09
1.95009e-09
2.17446e-09
2.39156e-09
2.61144e-09
2.84616e-09
3.10872e-09
3.41167e-09
3.76424e-09
4.16995e-09
4.62915e-09
5.14151e-09
5.69814e-09
6.28735e-09
6.89354e-09
7.50241e-09
8.09882e-09
8.67506e-09
9.22436e-09
9.75166e-09
1.02592e-08
1.08071e-08
1.17896e-08
1.42334e-08
0
7.89651e-11
4.58389e-10
1.34546e-10
0
0
0
0
0
0
0
0
0
0
0
0
0
0
0
0
3.6334e-10
9.2391e-10
1.41165e-09
1.82067e-09
2.16279e-09
2.45571e-09
2.71549e-09
2.95421e-09
3.1813e-09
3.40614e-09
3.63984e-09
3.89556e-09
4.18711e-09
4.52727e-09
4.92507e-09
5.38285e-09
5.89775e-09
6.46851e-09
7.08404e-09
7.73027e-09
8.38974e-09
9.04658e-09
9.68485e-09
1.02964e-08
1.08747e-08
1.14253e-08
1.19517e-08
1.25183e-08
1.3545e-08
1.61055e-08
0
5.62094e-11
4.41791e-10
1.32514e-10
0
0
0
0
0
0
0
0
0
0
0
0
0
0
4.12168e-10
1.01678e-09
1.61785e-09
2.1651e-09
2.63289e-09
3.02152e-09
3.34662e-09
3.62724e-09
3.87926e-09
4.1142e-09
4.34139e-09
4.57082e-09
4.81478e-09
5.08765e-09
5.40412e-09
5.77723e-09
6.21577e-09
6.72111e-09
7.28693e-09
7.9106e-09
8.57924e-09
9.27625e-09
9.98237e-09
1.06804e-08
1.13537e-08
1.19939e-08
1.2595e-08
1.31629e-08
1.37023e-08
1.42819e-08
1.53442e-08
1.80021e-08
0
3.67728e-11
4.32481e-10
1.40315e-10
0
0
0
0
0
0
0
0
0
0
0
1.69975e-10
6.52253e-10
1.19638e-09
1.79626e-09
2.41929e-09
3.01995e-09
3.55577e-09
4.00544e-09
4.375e-09
4.68355e-09
4.9514e-09
5.19429e-09
5.4233e-09
5.64783e-09
5.87864e-09
6.12926e-09
6.41539e-09
6.75266e-09
7.15435e-09
7.62898e-09
8.17707e-09
8.78925e-09
9.46002e-09
1.01759e-08
1.09175e-08
1.16639e-08
1.23966e-08
1.30987e-08
1.37616e-08
1.43798e-08
1.49597e-08
1.55073e-08
1.60949e-08
1.71853e-08
1.99244e-08
0
2.09231e-11
4.31592e-10
1.60197e-10
0
0
0
0
0
0
0
0
0
4.08152e-10
9.28801e-10
1.48049e-09
2.06313e-09
2.68005e-09
3.32285e-09
3.96238e-09
4.55892e-09
5.08529e-09
5.52007e-09
5.87303e-09
6.16634e-09
6.42155e-09
6.65438e-09
6.87565e-09
7.09498e-09
7.32404e-09
7.57779e-09
7.87332e-09
8.22725e-09
8.65312e-09
9.15907e-09
9.74489e-09
1.03988e-08
1.11112e-08
1.18681e-08
1.26484e-08
1.34292e-08
1.41905e-08
1.49155e-08
1.55955e-08
1.62259e-08
1.68132e-08
1.73647e-08
1.7956e-08
1.90681e-08
2.18749e-08
0
9.20028e-12
4.40845e-10
1.95395e-10
0
0
0
0
0
0
6.13327e-11
4.68594e-10
1.00523e-09
1.61507e-09
2.26377e-09
2.93236e-09
3.61171e-09
4.29771e-09
4.98005e-09
5.63323e-09
6.22329e-09
6.73734e-09
7.16413e-09
7.50544e-09
7.78663e-09
8.03061e-09
8.25338e-09
8.4658e-09
8.67795e-09
8.90262e-09
9.15628e-09
9.45754e-09
9.82407e-09
1.02697e-08
1.08021e-08
1.14206e-08
1.21113e-08
1.28598e-08
1.36522e-08
1.44652e-08
1.52743e-08
1.60589e-08
1.68014e-08
1.74933e-08
1.8131e-08
1.87217e-08
1.92735e-08
1.9865e-08
2.09934e-08
2.38568e-08
0
2.54791e-12
4.6286e-10
2.50642e-10
5.93481e-11
0
2.05678e-11
1.18343e-10
2.83107e-10
5.51956e-10
9.67889e-10
1.5393e-09
2.22964e-09
2.97299e-09
3.74298e-09
4.51937e-09
5.28589e-09
6.03268e-09
6.74886e-09
7.41193e-09
7.99436e-09
8.493e-09
8.92065e-09
9.25899e-09
9.53406e-09
9.77038e-09
9.98471e-09
1.01884e-08
1.03924e-08
1.06107e-08
1.08616e-08
1.11652e-08
1.15405e-08
1.20016e-08
1.25557e-08
1.32014e-08
1.39241e-08
1.47033e-08
1.55252e-08
1.63651e-08
1.71971e-08
1.79994e-08
1.87543e-08
1.94538e-08
2.00952e-08
2.06851e-08
2.12336e-08
2.18223e-08
2.29628e-08
2.5874e-08
0
2.57268e-12
5.01624e-10
3.32923e-10
2.11e-10
2.41545e-10
3.99575e-10
6.49318e-10
9.84306e-10
1.43378e-09
2.03025e-09
2.773e-09
3.61864e-09
4.48669e-09
5.36236e-09
6.22866e-09
7.06517e-09
7.85886e-09
8.59999e-09
9.26855e-09
9.84251e-09
1.03273e-08
1.07662e-08
1.11159e-08
1.13951e-08
1.16306e-08
1.18405e-08
1.20375e-08
1.22337e-08
1.24448e-08
1.26911e-08
1.29944e-08
1.33751e-08
1.38475e-08
1.44186e-08
1.50862e-08
1.58352e-08
1.66402e-08
1.74856e-08
1.83465e-08
1.91958e-08
2.00107e-08
2.07732e-08
2.1476e-08
2.21175e-08
2.27039e-08
2.32462e-08
2.38292e-08
2.49782e-08
2.79299e-08
0
1.19513e-11
5.63292e-10
4.52621e-10
4.20041e-10
5.74264e-10
8.86413e-10
1.3126e-09
1.83857e-09
2.48417e-09
3.27032e-09
4.18689e-09
5.18273e-09
6.1564e-09
7.10984e-09
8.03662e-09
8.9165e-09
9.73667e-09
1.049e-08
1.11586e-08
1.1724e-08
1.22027e-08
1.26682e-08
1.30515e-08
1.33509e-08
1.3597e-08
1.38103e-08
1.40053e-08
1.41963e-08
1.44011e-08
1.46421e-08
1.49433e-08
1.53264e-08
1.58066e-08
1.63902e-08
1.70742e-08
1.78438e-08
1.867e-08
1.95326e-08
2.04086e-08
2.12696e-08
2.20919e-08
2.28577e-08
2.35595e-08
2.41974e-08
2.47775e-08
2.53114e-08
2.58868e-08
2.70412e-08
3.00274e-08
0
3.52867e-11
6.57562e-10
6.2535e-10
7.08586e-10
1.01673e-09
1.51298e-09
2.14133e-09
2.87789e-09
3.73182e-09
4.71159e-09
5.79754e-09
6.92894e-09
7.97402e-09
8.96027e-09
9.9025e-09
1.0787e-08
1.16054e-08
1.23541e-08
1.30158e-08
1.35735e-08
1.40587e-08
1.45816e-08
1.50306e-08
1.53748e-08
1.56495e-08
1.5879e-08
1.60809e-08
1.62723e-08
1.6474e-08
1.67109e-08
1.70096e-08
1.73932e-08
1.78778e-08
1.84697e-08
1.91649e-08
1.99488e-08
2.07915e-08
2.16653e-08
2.255e-08
2.34168e-08
2.42415e-08
2.50063e-08
2.57035e-08
2.63339e-08
2.6905e-08
2.74287e-08
2.79948e-08
2.91525e-08
3.21682e-08
0
8.05414e-11
8.00123e-10
8.75232e-10
1.10905e-09
1.60773e-09
2.32093e-09
3.17616e-09
4.13893e-09
5.20714e-09
6.37641e-09
7.61786e-09
8.85726e-09
9.91802e-09
1.08686e-08
1.17598e-08
1.25941e-08
1.33728e-08
1.40955e-08
1.47418e-08
1.52933e-08
1.58056e-08
1.64384e-08
1.70011e-08
1.74274e-08
1.77586e-08
1.80245e-08
1.82479e-08
1.84498e-08
1.86549e-08
1.88915e-08
1.91888e-08
1.95723e-08
2.00591e-08
2.06556e-08
2.13573e-08
2.21492e-08
2.30027e-08
2.38818e-08
2.47684e-08
2.56347e-08
2.64563e-08
2.72157e-08
2.79049e-08
2.85246e-08
2.90841e-08
2.95958e-08
3.01516e-08
3.13108e-08
3.43518e-08
0
1.61348e-10
1.01641e-09
1.23984e-09
1.66942e-09
2.40129e-09
3.36427e-09
4.46616e-09
5.66251e-09
6.94033e-09
8.2825e-09
9.65155e-09
1.09515e-08
1.19404e-08
1.27568e-08
1.35041e-08
1.42135e-08
1.49027e-08
1.55731e-08
1.61932e-08
1.67414e-08
1.73127e-08
1.81379e-08
1.88863e-08
1.94502e-08
1.98798e-08
2.02135e-08
2.04812e-08
2.07102e-08
2.09301e-08
2.11736e-08
2.14737e-08
2.18582e-08
2.23461e-08
2.29442e-08
2.36478e-08
2.44417e-08
2.5299e-08
2.61793e-08
2.70595e-08
2.7918e-08
2.87303e-08
2.94792e-08
3.0157e-08
3.07638e-08
3.13094e-08
3.18076e-08
3.23518e-08
3.35105e-08
3.6572e-08
0
3.00636e-10
1.34653e-09
1.77527e-09
2.4569e-09
3.46724e-09
4.70583e-09
6.06213e-09
7.4854e-09
8.95263e-09
1.0434e-08
1.18828e-08
1.31615e-08
1.3943e-08
1.44945e-08
1.49774e-08
1.54685e-08
1.60085e-08
1.65956e-08
1.71771e-08
1.77254e-08
1.8398e-08
1.95303e-08
2.05707e-08
2.13531e-08
2.19427e-08
2.23905e-08
2.27373e-08
2.30191e-08
2.32724e-08
2.35357e-08
2.38463e-08
2.42359e-08
2.47255e-08
2.53233e-08
2.60249e-08
2.6815e-08
2.76686e-08
2.85459e-08
2.94116e-08
3.02539e-08
3.10497e-08
3.17822e-08
3.24439e-08
3.30354e-08
3.35661e-08
3.40499e-08
3.45817e-08
3.57381e-08
3.88147e-08
0
5.33492e-10
1.84281e-09
2.54348e-09
3.53052e-09
4.84695e-09
6.35722e-09
7.94541e-09
9.55997e-09
1.1168e-08
1.27268e-08
1.41742e-08
1.52753e-08
1.56751e-08
1.58308e-08
1.59356e-08
1.61222e-08
1.64583e-08
1.69339e-08
1.74651e-08
1.80129e-08
1.88104e-08
2.03539e-08
2.18276e-08
2.2937e-08
2.37709e-08
2.43987e-08
2.48758e-08
2.525e-08
2.55666e-08