/*--------------------------------*- C++ -*----------------------------------*\
  =========                 |
  \\      /  F ield         | OpenFOAM: The Open Source CFD Toolbox
   \\    /   O peration     | Website:  https://openfoam.org
    \\  /    A nd           | Version:  7
     \\/     M anipulation  |
\*---------------------------------------------------------------------------*/
FoamFile
{
    version     2.0;
    format      ascii;
    class       volScalarField;
    location    "0.31";
    object      p;
}
// * * * * * * * * * * * * * * * * * * * * * * * * * * * * * * * * * * * * * //

dimensions      [0 2 -2 0 0 0 0];

internalField   nonuniform List<scalar> 
70000
(
0.112409
0.0355296
0.0224036
0.0248831
0.0251789
0.0241752
0.0232668
0.022595
0.0220511
0.0215852
0.0211834
0.0208378
0.0205409
0.0202861
0.0200684
0.0198836
0.0197284
0.0196003
0.0194973
0.0194177
0.0193604
0.0193244
0.0193092
0.0193145
0.0193399
0.0193855
0.0194516
0.0195385
0.0196466
0.0197766
0.0199291
0.0201048
0.0203046
0.0205289
0.0207787
0.0210531
0.0213527
0.0216745
0.0220164
0.0223717
0.0227302
0.023081
0.0233893
0.0236446
0.0237515
0.0237006
0.0232975
0.0224391
0.020981
0.0180307
0.108109
0.0358915
0.0226062
0.0249778
0.0252334
0.024211
0.0232947
0.0226181
0.0220706
0.0216019
0.0211979
0.0208506
0.0205523
0.0202965
0.0200779
0.0198923
0.0197365
0.0196078
0.0195042
0.0194242
0.0193665
0.0193302
0.0193147
0.0193197
0.0193449
0.0193903
0.0194562
0.0195429
0.0196509
0.0197807
0.0199331
0.0201088
0.0203085
0.0205328
0.0207825
0.021057
0.0213566
0.0216784
0.0220205
0.022376
0.0227347
0.0230859
0.0233946
0.0236506
0.0237582
0.0237081
0.0233058
0.0224464
0.0209876
0.0181004
0.104503
0.0368138
0.0229506
0.0251063
0.0253081
0.024256
0.0233271
0.0226444
0.0220924
0.0216204
0.0212139
0.0208647
0.0205648
0.0203078
0.0200881
0.0199016
0.0197451
0.0196158
0.0195116
0.0194311
0.019373
0.0193364
0.0193206
0.0193252
0.0193501
0.0193953
0.019461
0.0195475
0.0196553
0.019785
0.0199373
0.0201127
0.0203124
0.0205366
0.0207863
0.0210607
0.0213604
0.0216823
0.0220245
0.0223803
0.0227394
0.0230913
0.0234008
0.0236583
0.0237674
0.0237202
0.0233217
0.022465
0.0210281
0.0182276
0.101398
0.0379126
0.0234268
0.0252787
0.0254091
0.0243139
0.0233652
0.0226742
0.022117
0.0216409
0.0212313
0.0208798
0.0205782
0.0203197
0.0200988
0.0199114
0.019754
0.019624
0.0195193
0.0194382
0.0193797
0.0193426
0.0193264
0.0193307
0.0193553
0.0194003
0.0194657
0.019552
0.0196596
0.0197891
0.0199411
0.0201165
0.020316
0.02054
0.0207896
0.021064
0.0213637
0.0216857
0.022028
0.0223842
0.0227438
0.0230967
0.0234074
0.0236673
0.0237794
0.0237376
0.0233473
0.0225005
0.0211062
0.0184422
0.0984415
0.0390059
0.0239998
0.0254966
0.0255434
0.0243921
0.0234141
0.022711
0.0221468
0.0216653
0.0212518
0.0208972
0.0205934
0.0203331
0.0201108
0.0199222
0.0197638
0.0196329
0.0195275
0.0194459
0.0193867
0.0193492
0.0193325
0.0193365
0.0193607
0.0194053
0.0194705
0.0195565
0.0196638
0.019793
0.0199448
0.0201199
0.0203193
0.0205431
0.0207925
0.0210667
0.0213663
0.0216883
0.0220308
0.0223873
0.0227475
0.0231016
0.0234142
0.0236774
0.0237944
0.0237603
0.023385
0.0225574
0.0212335
0.0187827
0.095534
0.0400376
0.0246232
0.0257406
0.0257051
0.0244922
0.0234763
0.022757
0.0221838
0.0216955
0.0212767
0.0209183
0.0206115
0.0203489
0.0201248
0.0199347
0.0197751
0.0196431
0.0195368
0.0194544
0.0193945
0.0193564
0.0193392
0.0193427
0.0193665
0.0194107
0.0194754
0.0195611
0.019668
0.0197969
0.0199484
0.0201232
0.0203222
0.0205458
0.0207949
0.0210689
0.0213682
0.0216901
0.0220326
0.0223894
0.0227502
0.0231058
0.0234206
0.023688
0.0238122
0.0237886
0.0234367
0.0226414
0.0214197
0.0192716
0.0926682
0.0409903
0.0252635
0.0259895
0.025881
0.0246096
0.0235508
0.0228121
0.0222284
0.021732
0.0213068
0.0209436
0.0206332
0.0203678
0.0201414
0.0199494
0.0197882
0.019655
0.0195476
0.0194642
0.0194035
0.0193646
0.0193467
0.0193496
0.0193728
0.0194165
0.0194807
0.0195659
0.0196724
0.0198009
0.0199519
0.0201263
0.0203248
0.0205479
0.0207966
0.0210702
0.0213691
0.0216908
0.0220331
0.0223901
0.0227515
0.0231086
0.0234263
0.0236985
0.0238327
0.0238225
0.0235037
0.0227579
0.0216734
0.0199184
0.0898533
0.0418576
0.0259047
0.0262317
0.0260601
0.0247376
0.0236342
0.0228743
0.0222794
0.0217742
0.021342
0.0209734
0.0206588
0.0203901
0.020161
0.0199668
0.0198037
0.0196689
0.0195601
0.0194755
0.0194138
0.019374
0.0193553
0.0193574
0.0193799
0.0194229
0.0194866
0.0195711
0.0196771
0.0198049
0.0199554
0.0201292
0.0203271
0.0205496
0.0207976
0.0210706
0.0213689
0.0216901
0.022032
0.0223891
0.0227509
0.0231095
0.0234307
0.0237086
0.0238555
0.0238622
0.023587
0.0229116
0.0220011
0.0207201
0.0870959
0.0426371
0.0265411
0.0264633
0.0262363
0.0248715
0.0237232
0.022941
0.0223347
0.0218208
0.0213813
0.0210069
0.0206878
0.0204154
0.0201834
0.0199867
0.0198215
0.0196849
0.0195745
0.0194885
0.0194256
0.0193847
0.019365
0.0193662
0.0193879
0.0194301
0.019493
0.0195769
0.0196821
0.0198092
0.019959
0.020132
0.0203291
0.0205508
0.020798
0.0210701
0.0213675
0.0216879
0.0220291
0.022386
0.0227481
0.0231082
0.0234333
0.0237176
0.0238803
0.0239082
0.0236869
0.0231055
0.0224052
0.0216629
0.0843993
0.0433278
0.0271715
0.0266842
0.0264068
0.0250084
0.0238158
0.0230102
0.0223927
0.0218702
0.0214233
0.0210431
0.0207193
0.0204433
0.0202081
0.0200087
0.0198413
0.0197027
0.0195906
0.0195032
0.0194389
0.0193967
0.019376
0.0193761
0.0193968
0.0194382
0.0195002
0.0195831
0.0196875
0.0198137
0.0199626
0.0201347
0.0203308
0.0205515
0.0207976
0.0210686
0.0213648
0.0216841
0.0220243
0.0223806
0.0227429
0.0231044
0.0234339
0.0237252
0.0239065
0.0239605
0.0238033
0.0233402
0.0228835
0.0227204
0.0817668
0.0439302
0.0277948
0.0268953
0.02657
0.0251468
0.0239109
0.023081
0.0224522
0.0219213
0.0214671
0.021081
0.0207527
0.0204729
0.0202345
0.0200325
0.0198627
0.0197221
0.0196082
0.0195192
0.0194534
0.01941
0.019388
0.019387
0.0194067
0.0194469
0.0195079
0.0195899
0.0196932
0.0198185
0.0199663
0.0201372
0.0203322
0.0205517
0.0207964
0.021066
0.0213608
0.0216787
0.0220175
0.022373
0.0227351
0.0230978
0.0234322
0.0237315
0.023934
0.0240195
0.0239357
0.0236133
0.0234288
0.0238575
0.0792014
0.0444446
0.0284094
0.0270979
0.0267251
0.0252859
0.0240082
0.0231527
0.0225124
0.0219734
0.0215121
0.0211202
0.0207872
0.0205036
0.0202621
0.0200574
0.0198853
0.0197427
0.0196269
0.0195362
0.019469
0.0194242
0.0194009
0.0193987
0.0194172
0.0194563
0.0195162
0.0195971
0.0196993
0.0198234
0.01997
0.0201397
0.0203333
0.0205513
0.0207944
0.0210624
0.0213554
0.0216716
0.0220087
0.022363
0.0227249
0.0230887
0.0234283
0.0237363
0.0239624
0.0240848
0.024083
0.0239199
0.0240275
0.0250378
0.0767059
0.0448717
0.0290131
0.0272933
0.0268714
0.0254247
0.0241075
0.0232254
0.0225732
0.0220262
0.0215578
0.0211601
0.0208225
0.0205351
0.0202905
0.0200831
0.0199087
0.0197639
0.0196464
0.019554
0.0194852
0.019439
0.0194144
0.0194109
0.0194282
0.0194662
0.0195249
0.0196046
0.0197056
0.0198284
0.0199737
0.020142
0.0203341
0.0205504
0.0207918
0.0210579
0.0213488
0.021663
0.0219981
0.0223509
0.0227123
0.023077
0.0234223
0.0237401
0.0239916
0.0241562
0.0242433
0.024253
0.0246613
0.0262261
0.0742827
0.0452124
0.0296032
0.0274829
0.0270085
0.0255625
0.0242087
0.0232989
0.0226344
0.0220795
0.0216042
0.0212005
0.0208583
0.0205672
0.0203195
0.0201094
0.0199326
0.0197858
0.0196663
0.0195723
0.019502
0.0194543
0.0194283
0.0194236
0.0194396
0.0194763
0.0195338
0.0196122
0.0197119
0.0198334
0.0199772
0.020144
0.0203344
0.020549
0.0207883
0.0210523
0.0213409
0.0216529
0.0219859
0.0223368
0.0226977
0.0230633
0.0234146
0.0237431
0.0240217
0.0242331
0.0244142
0.0246041
0.0253118
0.0273807
0.0719344
0.0454681
0.0301765
0.0276684
0.027136
0.0256983
0.0243116
0.0233732
0.0226959
0.0221333
0.0216511
0.0212416
0.0208946
0.0205998
0.0203488
0.020136
0.0199568
0.0198079
0.0196866
0.0195909
0.019519
0.0194698
0.0194425
0.0194364
0.0194511
0.0194866
0.0195428
0.0196199
0.0197182
0.0198383
0.0199805
0.0201457
0.0203343
0.0205469
0.0207841
0.0210458
0.021332
0.0216415
0.021972
0.0223211
0.0226812
0.0230479
0.0234054
0.0237457
0.0240527
0.0243146
0.0245929
0.0249647
0.0259616
0.0284726
0.0696627
0.0456405
0.0307298
0.0278511
0.0272538
0.025831
0.024416
0.0234484
0.0227576
0.0221875
0.0216985
0.021283
0.0209314
0.0206327
0.0203786
0.020163
0.0199814
0.0198304
0.0197072
0.0196097
0.0195362
0.0194856
0.0194568
0.0194493
0.0194627
0.0194969
0.0195517
0.0196274
0.0197243
0.0198429
0.0199835
0.0201469
0.0203336
0.0205442
0.0207791
0.0210384
0.0213219
0.0216288
0.0219569
0.0223038
0.0226633
0.0230311
0.0233951
0.0237482
0.0240845
0.0243997
0.0247763
0.0253265
0.0265934
0.0294792
0.0674695
0.0457319
0.03126
0.0280325
0.0273619
0.0259598
0.0245215
0.0235244
0.0228194
0.0222419
0.0217463
0.021325
0.0209685
0.020666
0.0204086
0.0201903
0.0200063
0.0198531
0.019728
0.0196287
0.0195536
0.0195014
0.0194712
0.0194623
0.0194744
0.0195071
0.0195605
0.0196348
0.0197303
0.0198472
0.0199862
0.0201477
0.0203324
0.0205408
0.0207733
0.0210301
0.0213109
0.021615
0.0219404
0.0222852
0.0226441
0.0230132
0.023384
0.0237508
0.024117
0.0244871
0.0249609
0.0256816
0.0271931
0.0303836
0.0653557
0.0457449
0.0317641
0.0282136
0.0274603
0.0260835
0.0246278
0.0236014
0.0228813
0.0222965
0.0217945
0.0213673
0.0210061
0.0206996
0.020439
0.0202179
0.0200314
0.0198761
0.0197489
0.0196479
0.0195711
0.0195174
0.0194857
0.0194753
0.0194859
0.0195172
0.0195692
0.019642
0.0197359
0.0198512
0.0199884
0.020148
0.0203306
0.0205367
0.0207667
0.0210208
0.0212987
0.0216
0.0219228
0.0222654
0.0226237
0.0229943
0.0233721
0.0237535
0.0241499
0.0245753
0.0251436
0.0260232
0.0277496
0.0311755
0.0633223
0.0456827
0.0322388
0.0283951
0.0275496
0.0262012
0.0247345
0.0236793
0.0229433
0.0223511
0.0218431
0.02141
0.0210439
0.0207336
0.0204697
0.0202457
0.0200568
0.0198992
0.0197701
0.0196672
0.0195887
0.0195334
0.0195001
0.0194883
0.0194974
0.0195273
0.0195777
0.019649
0.0197412
0.0198548
0.0199901
0.0201477
0.0203282
0.0205319
0.0207593
0.0210106
0.0212856
0.0215839
0.021904
0.0222445
0.0226021
0.0229745
0.0233595
0.023756
0.0241824
0.0246627
0.0253212
0.0263454
0.0282545
0.03185
0.0613695
0.045549
0.0326814
0.0285774
0.0276303
0.0263119
0.0248408
0.023758
0.0230053
0.0224058
0.0218918
0.0214531
0.0210821
0.0207678
0.0205007
0.0202738
0.0200823
0.0199225
0.0197914
0.0196866
0.0196064
0.0195494
0.0195146
0.0195012
0.0195088
0.0195371
0.019586
0.0196557
0.0197462
0.0198579
0.0199913
0.0201469
0.020325
0.0205262
0.020751
0.0209994
0.0212714
0.0215666
0.0218839
0.0222223
0.0225794
0.0229538
0.0233459
0.0237579
0.0242141
0.0247476
0.0254904
0.0266433
0.0287018
0.0324054
0.0594972
0.0453479
0.0330889
0.0287606
0.0277031
0.0264149
0.0249463
0.0238374
0.0230673
0.0224602
0.0219408
0.0214965
0.0211206
0.0208023
0.0205318
0.0203021
0.0201081
0.019946
0.0198128
0.0197061
0.0196241
0.0195654
0.019529
0.019514
0.0195201
0.0195468
0.0195941
0.019662
0.0197508
0.0198606
0.019992
0.0201453
0.0203211
0.0205198
0.0207417
0.0209871
0.021256
0.0215481
0.0218626
0.0221988
0.0225554
0.0229319
0.0233313
0.0237588
0.0242438
0.0248281
0.0256482
0.0269123
0.0290871
0.0328428
0.057705
0.0450839
0.0334588
0.0289445
0.0277688
0.0265096
0.02505
0.0239175
0.0231292
0.0225144
0.0219897
0.02154
0.0211593
0.020837
0.0205632
0.0203306
0.0201341
0.0199696
0.0198343
0.0197257
0.0196419
0.0195815
0.0195433
0.0195268
0.0195312
0.0195562
0.0196018
0.019668
0.0197549
0.0198628
0.0199921
0.0201431
0.0203164
0.0205124
0.0207314
0.0209737
0.0212393
0.0215283
0.0218399
0.0221739
0.02253
0.0229086
0.0233152
0.023758
0.0242707
0.0249025
0.0257918
0.027149
0.0294074
0.0331645
0.0559919
0.0447621
0.0337886
0.0291282
0.0278283
0.0265953
0.0251513
0.0239981
0.023191
0.0225683
0.0220386
0.0215838
0.0211981
0.0208719
0.0205948
0.0203593
0.0201601
0.0199934
0.0198559
0.0197453
0.0196597
0.0195975
0.0195576
0.0195394
0.0195421
0.0195654
0.0196093
0.0196736
0.0197586
0.0198645
0.0199915
0.0201402
0.0203108
0.020504
0.02072
0.0209591
0.0212214
0.0215071
0.0218157
0.0221475
0.022503
0.0228838
0.0232973
0.0237549
0.0242936
0.0249688
0.0259184
0.0273502
0.0296609
0.0333744
0.0543567
0.0443876
0.0340765
0.0293107
0.0278827
0.0266718
0.0252492
0.0240789
0.0232528
0.0226216
0.0220874
0.0216276
0.0212372
0.0209069
0.0206265
0.0203881
0.0201863
0.0200172
0.0198776
0.019765
0.0196774
0.0196134
0.0195718
0.0195518
0.0195528
0.0195743
0.0196164
0.0196788
0.0197618
0.0198655
0.0199902
0.0201364
0.0203044
0.0204946
0.0207074
0.0209432
0.0212021
0.0214843
0.02179
0.0221194
0.0224742
0.022857
0.023277
0.0237486
0.0243112
0.0250251
0.0260254
0.0275132
0.0298467
0.0334771
0.0527977
0.0439658
0.0343207
0.0294904
0.027933
0.026739
0.0253428
0.0241595
0.0233145
0.0226745
0.0221358
0.0216714
0.0212763
0.020942
0.0206582
0.020417
0.0202126
0.0200411
0.0198993
0.0197847
0.0196952
0.0196293
0.0195859
0.019564
0.0195632
0.0195829
0.0196231
0.0196835
0.0197644
0.0198659
0.0199882
0.0201318
0.0202969
0.0204841
0.0206937
0.020926
0.0211813
0.02146
0.0217624
0.0220895
0.0224433
0.0228279
0.023254
0.0237384
0.0243225
0.0250696
0.0261105
0.0276359
0.0299647
0.0334777
0.051313
0.0435024
0.0345199
0.0296656
0.0279801
0.026797
0.0254313
0.0242395
0.0233761
0.0227266
0.0221837
0.0217151
0.0213155
0.0209772
0.0206901
0.0204459
0.0202389
0.020065
0.019921
0.0198043
0.0197128
0.019645
0.0195997
0.019576
0.0195733
0.0195912
0.0196293
0.0196877
0.0197664
0.0198655
0.0199853
0.0201262
0.0202884
0.0204724
0.0206786
0.0209073
0.0211589
0.0214339
0.021733
0.0220574
0.0224102
0.0227962
0.0232275
0.0237234
0.024326
0.0251005
0.0261715
0.0277166
0.0300154
0.0333821
0.0499003
0.0430031
0.0346733
0.029834
0.0280249
0.0268459
0.0255138
0.0243185
0.0234375
0.0227781
0.022231
0.0217586
0.0213546
0.0210123
0.0207219
0.0204748
0.0202652
0.0200889
0.0199427
0.0198238
0.0197303
0.0196606
0.0196134
0.0195878
0.0195831
0.019599
0.0196351
0.0196914
0.0197678
0.0198644
0.0199816
0.0201196
0.0202788
0.0204595
0.0206621
0.0208871
0.0211348
0.021406
0.0217015
0.0220232
0.0223745
0.0227614
0.0231971
0.0237027
0.0243205
0.0251161
0.0262066
0.0277544
0.0300002
0.0331966
0.0485572
0.0424735
0.0347807
0.0299932
0.0280681
0.0268864
0.0255896
0.0243958
0.0234986
0.0228289
0.0222776
0.0218017
0.0213936
0.0210474
0.0207536
0.0205037
0.0202915
0.0201128
0.0199642
0.0198432
0.0197477
0.019676
0.0196268
0.0195992
0.0195926
0.0196064
0.0196404
0.0196944
0.0197684
0.0198625
0.019977
0.020112
0.020268
0.0204452
0.0206441
0.0208652
0.0211089
0.021376
0.0216678
0.0219864
0.0223359
0.0227232
0.0231622
0.0236754
0.0243049
0.0251151
0.0262143
0.0277486
0.0299212
0.0329282
0.0472808
0.0419192
0.0348423
0.0301406
0.0281104
0.0269189
0.025658
0.0244707
0.0235592
0.0228788
0.0223234
0.0218443
0.0214324
0.0210824
0.0207853
0.0205325
0.0203177
0.0201365
0.0199857
0.0198625
0.0197649
0.0196911
0.0196399
0.0196103
0.0196016
0.0196133
0.0196451
0.0196967
0.0197683
0.0198597
0.0199713
0.0201033
0.0202559
0.0204295
0.0206246
0.0208415
0.021081
0.0213439
0.0216317
0.0219469
0.0222941
0.022681
0.0231221
0.0236406
0.0242778
0.0250959
0.0261934
0.0276993
0.029781
0.0325839
0.0460685
0.0413455
0.034859
0.0302735
0.0281518
0.0269442
0.0257186
0.0245426
0.0236192
0.022928
0.0223681
0.0218863
0.0214708
0.0211171
0.0208167
0.0205611
0.0203437
0.0201601
0.020007
0.0198816
0.0197818
0.019706
0.0196527
0.019621
0.0196102
0.0196197
0.0196491
0.0196983
0.0197673
0.019856
0.0199646
0.0200933
0.0202424
0.0204123
0.0206033
0.020816
0.0210511
0.0213095
0.021593
0.0219045
0.0222488
0.0226345
0.0230761
0.0235975
0.0242384
0.0250575
0.0261433
0.027607
0.0295828
0.0321714
0.0449171
0.0407574
0.0348319
0.0303896
0.0281923
0.026963
0.0257709
0.0246108
0.0236782
0.0229762
0.0224118
0.0219275
0.0215089
0.0211515
0.0208479
0.0205894
0.0203695
0.0201835
0.020028
0.0199004
0.0197985
0.0197205
0.0196651
0.0196312
0.0196182
0.0196254
0.0196525
0.0196992
0.0197654
0.0198512
0.0199567
0.0200821
0.0202276
0.0203935
0.0205803
0.0207885
0.0210189
0.0212726
0.0215515
0.0218588
0.0221997
0.022583
0.0230237
0.0235453
0.0241855
0.0249989
0.0260634
0.0274727
0.0293304
0.0316981
0.0438237
0.0401595
0.034763
0.0304868
0.0282313
0.0269761
0.0258147
0.0246744
0.0237359
0.0230234
0.0224542
0.0219677
0.0215463
0.0211856
0.0208788
0.0206175
0.020395
0.0202066
0.0200488
0.019919
0.0198148
0.0197346
0.019677
0.019641
0.0196257
0.0196305
0.0196551
0.0196992
0.0197626
0.0198454
0.0199476
0.0200695
0.0202111
0.0203729
0.0205553
0.0207588
0.0209843
0.021233
0.021507
0.0218096
0.0221463
0.0225263
0.0229642
0.0234832
0.0241183
0.0249194
0.0259537
0.027298
0.0290278
0.0311719
0.0427851
0.039556
0.0346545
0.0305631
0.0282679
0.0269843
0.0258502
0.0247327
0.0237919
0.0230696
0.0224954
0.0220069
0.021583
0.0212191
0.0209092
0.0206452
0.0204202
0.0202294
0.0200692
0.0199371
0.0198307
0.0197483
0.0196885
0.0196502
0.0196325
0.0196349
0.0196569
0.0196982
0.0197587
0.0198384
0.0199372
0.0200554
0.020193
0.0203506
0.0205283
0.0207269
0.0209472
0.0211906
0.0214592
0.0217566
0.0220883
0.0224637
0.022897
0.0234104
0.0240361
0.0248187
0.0258146
0.0270846
0.0286796
0.0306005
0.0417982
0.0389506
0.0345092
0.0306169
0.0283012
0.0269881
0.0258775
0.0247852
0.0238455
0.0231146
0.0225351
0.0220447
0.0216189
0.0212521
0.0209392
0.0206724
0.0204449
0.0202517
0.0200893
0.0199549
0.0198462
0.0197615
0.0196994
0.0196587
0.0196386
0.0196385
0.0196578
0.0196963
0.0197537
0.0198301
0.0199254
0.0200397
0.0201732
0.0203263
0.0204992
0.0206926
0.0209075
0.0211452
0.021408
0.0216995
0.0220254
0.0223948
0.0228215
0.0233264
0.0239384
0.0246964
0.0256467
0.026835
0.0282904
0.0299916
0.0408601
0.0383466
0.0343301
0.0306471
0.0283296
0.0269881
0.0258968
0.0248313
0.0238963
0.0231582
0.0225734
0.0220811
0.0216537
0.0212843
0.0209685
0.0206991
0.0204692
0.0202736
0.0201088
0.0199721
0.0198612
0.0197742
0.0197097
0.0196666
0.019644
0.0196412
0.0196577
0.0196933
0.0197475
0.0198205
0.0199121
0.0200224
0.0201516
0.0202999
0.0204678
0.0206558
0.0208649
0.0210965
0.021353
0.021638
0.0219571
0.0223192
0.0227373
0.0232307
0.0238248
0.0245528
0.0254511
0.0265517
0.0278652
0.0293524
0.0399678
0.0377467
0.0341204
0.0306529
0.0283516
0.0269845
0.0259086
0.0248705
0.0239437
0.0232001
0.0226101
0.022116
0.0216872
0.0213157
0.0209972
0.0207252
0.0204928
0.0202949
0.0201278
0.0199888
0.0198755
0.0197862
0.0197193
0.0196737
0.0196485
0.019643
0.0196566
0.0196891
0.0197401
0.0198095
0.0198972
0.0200033
0.020128
0.0202714
0.020434
0.0206163
0.0208193
0.0210444
0.0212941
0.0215718
0.0218831
0.0222365
0.0226439
0.0231228
0.023695
0.0243881
0.025229
0.0262376
0.027409
0.0286903
0.0391183
0.0371532
0.0338835
0.0306339
0.0283658
0.0269774
0.0259134
0.0249025
0.0239871
0.0232402
0.0226452
0.0221492
0.0217194
0.0213461
0.021025
0.0207505
0.0205158
0.0203156
0.0201462
0.0200048
0.0198892
0.0197974
0.0197281
0.01968
0.0196521
0.0196438
0.0196544
0.0196837
0.0197312
0.0197969
0.0198806
0.0199824
0.0201023
0.0202406
0.0203976
0.0205739
0.0207705
0.0209887
0.021231
0.0215007
0.0218032
0.0221463
0.022541
0.0230025
0.0235492
0.0242029
0.0249821
0.0258959
0.0269268
0.0280119
0.0383089
0.0365681
0.0336227
0.0305901
0.0283705
0.0269667
0.0259116
0.0249271
0.0240258
0.0232779
0.0226785
0.0221806
0.0217501
0.0213752
0.021052
0.020775
0.0205379
0.0203355
0.0201638
0.0200201
0.0199021
0.0198079
0.0197361
0.0196853
0.0196547
0.0196435
0.019651
0.019677
0.0197209
0.0197828
0.0198623
0.0199595
0.0200745
0.0202074
0.0203586
0.0205286
0.0207183
0.0209292
0.0211634
0.0214244
0.0217169
0.0220483
0.0224282
0.0228696
0.0233874
0.023998
0.0247123
0.02553
0.0264235
0.0273239
0.0375371
0.0359929
0.0333414
0.030522
0.0283643
0.026952
0.0259037
0.0249443
0.0240595
0.0233129
0.0227098
0.02221
0.021779
0.021403
0.0210778
0.0207985
0.0205592
0.0203546
0.0201807
0.0200346
0.0199142
0.0198176
0.0197431
0.0196897
0.0196562
0.019642
0.0196463
0.0196688
0.0197091
0.0197669
0.0198421
0.0199345
0.0200443
0.0201716
0.0203167
0.0204801
0.0206626
0.0208657
0.0210913
0.0213426
0.0216241
0.0219422
0.0223053
0.0227242
0.0232102
0.0237745
0.0244215
0.0251431
0.0259041
0.0266321
0.0368004
0.0354287
0.0330428
0.0304304
0.0283458
0.0269329
0.0258901
0.0249542
0.0240875
0.0233447
0.022739
0.0222374
0.021806
0.0214293
0.0211024
0.0208209
0.0205795
0.0203727
0.0201965
0.0200482
0.0199254
0.0198262
0.0197492
0.019693
0.0196566
0.0196392
0.0196403
0.0196592
0.0196956
0.0197492
0.0198198
0.0199074
0.0200118
0.0201332
0.0202719
0.0204283
0.0206032
0.0207979
0.0210143
0.0212551
0.0215245
0.0218279
0.0221723
0.0225663
0.0230179
0.0235337
0.024112
0.0247388
0.0253733
0.0259421
0.0360964
0.0348764
0.0327298
0.0303163
0.0283141
0.0269087
0.025871
0.0249568
0.0241096
0.0233729
0.0227658
0.0222626
0.021831
0.0214539
0.0211256
0.0208422
0.0205986
0.0203897
0.0202114
0.0200607
0.0199355
0.0198338
0.0197541
0.019695
0.0196557
0.0196351
0.0196327
0.0196479
0.0196803
0.0197296
0.0197955
0.0198779
0.0199767
0.020092
0.020224
0.0203731
0.02054
0.0207258
0.0209322
0.0211618
0.0214179
0.0217052
0.0220293
0.0223963
0.0228114
0.0232769
0.0237862
0.0243205
0.0248356
0.0252588
0.0354231
0.0343365
0.0324053
0.0301812
0.0282683
0.0268785
0.0258467
0.0249524
0.0241253
0.0233971
0.0227899
0.0222855
0.0218537
0.0214765
0.0211472
0.0208621
0.0206165
0.0204056
0.0202251
0.0200722
0.0199445
0.0198402
0.0197578
0.0196959
0.0196534
0.0196296
0.0196236
0.019635
0.0196632
0.019708
0.019769
0.019846
0.019939
0.0200479
0.0201729
0.0203143
0.0204727
0.0206491
0.020845
0.0210624
0.0213042
0.0215741
0.0218762
0.0222146
0.0225915
0.0230057
0.0234467
0.0238918
0.0242951
0.0245866
0.0347783
0.0338094
0.0320716
0.0300266
0.028208
0.0268416
0.0258172
0.0249413
0.0241345
0.0234167
0.0228111
0.0223059
0.0218742
0.0214971
0.0211671
0.0208805
0.0206331
0.0204201
0.0202376
0.0200824
0.0199523
0.0198454
0.0197602
0.0196953
0.0196497
0.0196224
0.0196128
0.0196202
0.0196441
0.0196842
0.0197401
0.0198116
0.0198985
0.0200007
0.0201184
0.0202518
0.0204013
0.0205678
0.0207524
0.0209568
0.0211833
0.0214346
0.0217133
0.0220217
0.0223593
0.0227218
0.0230957
0.0234558
0.0237558
0.0239294
0.0341603
0.0332954
0.031731
0.0298542
0.0281329
0.0267971
0.0257825
0.0249236
0.0241371
0.0234313
0.0228289
0.0223237
0.0218921
0.0215154
0.021185
0.0208972
0.0206481
0.0204332
0.0202486
0.0200912
0.0199587
0.0198492
0.0197611
0.0196932
0.0196444
0.0196136
0.0196002
0.0196035
0.019623
0.0196582
0.0197088
0.0197745
0.0198551
0.0199504
0.0200605
0.0201854
0.0203256
0.0204816
0.0206543
0.0208451
0.0210553
0.0212869
0.0215411
0.0218183
0.0221159
0.0224271
0.0227359
0.0230157
0.0232212
0.0232905
0.0335674
0.0327943
0.0313856
0.0296656
0.028043
0.0267443
0.0257422
0.0248996
0.0241329
0.0234407
0.0228431
0.0223385
0.0219074
0.0215312
0.0212008
0.0209121
0.0206614
0.0204447
0.0202581
0.0200985
0.0199636
0.0198514
0.0197606
0.0196896
0.0196374
0.019603
0.0195857
0.0195848
0.0195996
0.0196298
0.0196749
0.0197346
0.0198086
0.0198968
0.0199989
0.0201151
0.0202455
0.0203905
0.0205508
0.020727
0.0209202
0.0211311
0.0213598
0.0216052
0.0218626
0.0221233
0.0223697
0.0225745
0.0226944
0.0226725
0.0329978
0.0323061
0.031037
0.0294628
0.0279387
0.0266825
0.0256961
0.0248694
0.0241221
0.0234444
0.0228531
0.0223502
0.0219198
0.0215445
0.0212144
0.0209249
0.0206729
0.0204545
0.020266
0.0201042
0.0199669
0.0198521
0.0197583
0.0196842
0.0196286
0.0195905
0.0195692
0.0195639
0.019574
0.019599
0.0196384
0.0196919
0.0197591
0.0198397
0.0199336
0.0200407
0.0201609
0.0202944
0.0204416
0.0206027
0.020778
0.0209675
0.0211701
0.0213832
0.0216007
0.0218123
0.0219994
0.022135
0.0221782
0.0220776
0.0324501
0.0318306
0.0306867
0.0292473
0.0278204
0.0266113
0.0256438
0.0248332
0.0241047
0.0234423
0.0228588
0.0223586
0.0219293
0.021555
0.0212254
0.0209356
0.0206824
0.0204625
0.0202721
0.0201082
0.0199685
0.019851
0.0197543
0.019677
0.0196179
0.019576
0.0195505
0.0195407
0.0195459
0.0195655
0.0195991
0.0196461
0.0197063
0.0197792
0.0198645
0.0199621
0.0200717
0.0201933
0.0203269
0.0204722
0.0206291
0.0207966
0.0209726
0.0211533
0.0213316
0.0214959
0.0216273
0.0216996
0.021675
0.0215076
0.031923
0.0313676
0.0303359
0.029021
0.0276887
0.0265302
0.0255851
0.0247909
0.0240808
0.0234341
0.0228598
0.0223632
0.0219356
0.0215625
0.0212337
0.0209438
0.0206898
0.0204684
0.0202762
0.0201103
0.0199682
0.0198481
0.0197484
0.0196678
0.0196051
0.0195594
0.0195297
0.0195152
0.0195153
0.0195294
0.0195569
0.0195973
0.0196501
0.019715
0.0197915
0.0198792
0.0199779
0.0200871
0.0202066
0.0203357
0.0204736
0.0206186
0.0207679
0.0209166
0.0210566
0.0211758
0.0212554
0.0212706
0.0211867
0.0209634
0.0314151
0.0309167
0.0299858
0.0287852
0.0275445
0.026439
0.0255194
0.0247426
0.0240504
0.0234197
0.0228557
0.0223639
0.0219385
0.021567
0.0212392
0.0209495
0.0206948
0.0204721
0.0202782
0.0201103
0.0199659
0.0198431
0.0197404
0.0196565
0.0195902
0.0195405
0.0195064
0.0194871
0.019482
0.0194904
0.0195117
0.0195452
0.0195906
0.0196471
0.0197145
0.0197921
0.0198794
0.0199759
0.0200808
0.0201933
0.0203119
0.0204343
0.0205568
0.0206741
0.0207772
0.0208539
0.0208858
0.0208499
0.0207148
0.0204459
0.0309253
0.0304776
0.0296371
0.0285415
0.0273886
0.0263377
0.0254465
0.0246881
0.0240136
0.0233991
0.0228462
0.0223604
0.0219378
0.0215681
0.0212416
0.0209524
0.0206973
0.0204735
0.020278
0.0201081
0.0199614
0.0198359
0.0197303
0.019643
0.019573
0.0195192
0.0194806
0.0194565
0.019446
0.0194485
0.0194634
0.0194899
0.0195275
0.0195755
0.0196334
0.0197006
0.0197762
0.0198596
0.0199498
0.0200453
0.0201443
0.020244
0.0203402
0.0204268
0.0204947
0.0205316
0.0205202
0.0204391
0.0202607
0.0199552
0.0304525
0.03005
0.0292907
0.0282912
0.0272219
0.0262264
0.0253661
0.0246273
0.0239705
0.0233723
0.0228313
0.0223523
0.0219333
0.0215658
0.0212407
0.0209523
0.020697
0.0204723
0.0202754
0.0201036
0.0199546
0.0198265
0.0197178
0.0196272
0.0195534
0.0194954
0.0194523
0.0194231
0.0194071
0.0194036
0.0194118
0.0194311
0.0194607
0.0195
0.0195483
0.0196047
0.0196685
0.0197385
0.0198136
0.0198919
0.0199713
0.0200485
0.0201189
0.0201759
0.0202105
0.0202107
0.0201602
0.0200397
0.0198251
0.0194913
0.0299956
0.0296334
0.0289471
0.0280356
0.0270454
0.0261054
0.025278
0.0245602
0.0239211
0.0233391
0.0228106
0.0223394
0.0219247
0.0215597
0.0212365
0.020949
0.0206938
0.0204684
0.0202701
0.0200965
0.0199453
0.0198146
0.0197029
0.0196088
0.0195312
0.019469
0.0194212
0.0193869
0.0193653
0.0193556
0.019357
0.0193689
0.0193903
0.0194207
0.0194591
0.0195046
0.0195562
0.0196126
0.0196724
0.0197335
0.0197934
0.0198484
0.0198936
0.0199225
0.0199259
0.0198923
0.019807
0.0196527
0.0194085
0.0190537
0.0295538
0.0292276
0.0286068
0.0277756
0.02686
0.025975
0.025182
0.0244864
0.0238655
0.0232996
0.0227841
0.0223214
0.0219117
0.0215499
0.0212287
0.0209424
0.0206875
0.0204616
0.0202621
0.0200868
0.0199334
0.0198001
0.0196853
0.0195878
0.0195063
0.0194398
0.0193872
0.0193477
0.0193203
0.0193043
0.0192988
0.0193031
0.0193162
0.0193374
0.0193657
0.0194001
0.0194394
0.0194821
0.0195265
0.0195705
0.019611
0.0196444
0.0196654
0.0196675
0.0196419
0.0195778
0.0194619
0.0192788
0.0190111
0.0186417
0.029126
0.028832
0.0282702
0.0275123
0.0266667
0.0258355
0.0250782
0.024406
0.0238035
0.0232539
0.0227516
0.0222982
0.0218943
0.0215359
0.0212171
0.0209323
0.020678
0.0204517
0.0202511
0.0200742
0.0199187
0.0197828
0.019665
0.019564
0.0194786
0.0194077
0.0193503
0.0193054
0.0192721
0.0192497
0.0192371
0.0192336
0.0192383
0.0192502
0.0192683
0.0192914
0.0193182
0.0193471
0.0193763
0.0194032
0.0194248
0.0194371
0.019435
0.019412
0.0193597
0.0192683
0.0191257
0.0189187
0.0186328
0.0182542
0.0287116
0.0284463
0.0279376
0.0272466
0.0264664
0.0256876
0.0249665
0.0243189
0.0237352
0.0232018
0.0227131
0.0222695
0.021872
0.0215177
0.0212015
0.0209184
0.0206649
0.0204385
0.0202371
0.0200586
0.019901
0.0197626
0.0196418
0.0195373
0.0194479
0.0193726
0.0193102
0.0192599
0.0192207
0.0191917
0.0191719
0.0191606
0.0191566
0.0191591
0.0191668
0.0191786
0.0191929
0.019208
0.0192219
0.0192321
0.0192352
0.0192273
0.0192033
0.0191568
0.0190803
0.0189646
0.0187991
0.0185727
0.0182732
0.0178902
0.0283097
0.0280701
0.0276093
0.0269791
0.02626
0.0255317
0.0248471
0.0242249
0.0236605
0.0231435
0.0226684
0.0222353
0.0218448
0.021495
0.0211818
0.0209007
0.0206481
0.0204218
0.0202197
0.0200398
0.0198802
0.0197393
0.0196155
0.0195075
0.0194142
0.0193343
0.019267
0.0192112
0.0191659
0.0191302
0.0191032
0.0190838
0.0190712
0.0190641
0.0190614
0.0190617
0.0190635
0.019065
0.0190639
0.0190576
0.0190428
0.0190156
0.018971
0.018903
0.0188045
0.0186675
0.0184827
0.0182408
0.017932
0.0175482
0.0279196
0.0277031
0.0272853
0.0267106
0.0260483
0.0253685
0.0247202
0.024124
0.0235794
0.023079
0.0226177
0.0221953
0.0218124
0.0214676
0.0211578
0.0208788
0.0206275
0.0204015
0.0201988
0.0200176
0.0198562
0.0197128
0.019586
0.0194745
0.0193772
0.0192928
0.0192205
0.019159
0.0191076
0.0190652
0.0190307
0.0190033
0.0189819
0.0189652
0.018952
0.018941
0.0189303
0.0189183
0.0189024
0.0188802
0.0188483
0.0188028
0.0187389
0.0186512
0.0185331
0.0183776
0.0181768
0.0179229
0.0176082
0.0172269
0.0275407
0.0273449
0.0269659
0.0264417
0.025832
0.0251985
0.0245862
0.0240164
0.023492
0.0230081
0.0225609
0.0221495
0.0217746
0.0214354
0.0211292
0.0208528
0.0206029
0.0203773
0.0201743
0.0199919
0.0198287
0.0196829
0.0195532
0.0194382
0.0193368
0.0192479
0.0191705
0.0191034
0.0190458
0.0189965
0.0189547
0.0189192
0.0188889
0.0188626
0.018839
0.0188165
0.0187936
0.0187682
0.0187381
0.0187004
0.0186521
0.0185894
0.0185077
0.0184021
0.0182667
0.0180954
0.0178815
0.0176187
0.0173012
0.0169248
0.0271723
0.026995
0.026651
0.0261728
0.0256119
0.0250223
0.0244452
0.023902
0.0233982
0.0229311
0.0224979
0.0220978
0.0217314
0.0213981
0.021096
0.0208223
0.0205741
0.0203492
0.0201459
0.0199625
0.0197976
0.0196495
0.0195169
0.0193984
0.019293
0.0191996
0.019117
0.0190443
0.0189804
0.0189243
0.0188749
0.0188313
0.0187921
0.0187562
0.0187222
0.0186886
0.0186535
0.0186152
0.0185711
0.0185187
0.0184549
0.0183761
0.0182781
0.0181564
0.0180058
0.0178211
0.0175968
0.0173278
0.0170099
0.0166403
0.0268138
0.0266532
0.0263408
0.0259044
0.0253885
0.0248405
0.0242977
0.0237811
0.023298
0.0228479
0.0224288
0.0220402