/*--------------------------------*- C++ -*----------------------------------*\
  =========                 |
  \\      /  F ield         | OpenFOAM: The Open Source CFD Toolbox
   \\    /   O peration     | Website:  https://openfoam.org
    \\  /    A nd           | Version:  7
     \\/     M anipulation  |
\*---------------------------------------------------------------------------*/
FoamFile
{
    version     2.0;
    format      ascii;
    class       surfaceScalarField;
    location    "0.31";
    object      phi_0;
}
// * * * * * * * * * * * * * * * * * * * * * * * * * * * * * * * * * * * * * //

dimensions      [0 3 -1 0 0 0 0];

internalField   nonuniform List<scalar> 
139350
(
6.4591e-08
9.20405e-08
3.19471e-08
3.26439e-08
2.3053e-08
8.89409e-09
1.95556e-08
3.49738e-09
1.76008e-08
1.95481e-09
1.61702e-08
1.4306e-09
1.50342e-08
1.13604e-09
1.41172e-08
9.17028e-10
1.33615e-08
7.55654e-10
1.2724e-08
6.37481e-10
1.21758e-08
5.48191e-10
1.16976e-08
4.78289e-10
1.12754e-08
4.22145e-10
1.08992e-08
3.76217e-10
1.05611e-08
3.38096e-10
1.0255e-08
3.06058e-10
9.9762e-09
2.78838e-10
9.7207e-09
2.55499e-10
9.48538e-09
2.35323e-10
9.26761e-09
2.17763e-10
9.06522e-09
2.02391e-10
8.87635e-09
1.88868e-10
8.69943e-09
1.76925e-10
8.53308e-09
1.66347e-10
8.37613e-09
1.56955e-10
8.22751e-09
1.48614e-10
8.08631e-09
1.41206e-10
7.95166e-09
1.34645e-10
7.82281e-09
1.28852e-10
7.69903e-09
1.23785e-10
7.57965e-09
1.19377e-10
7.464e-09
1.1565e-10
7.3515e-09
1.12496e-10
7.24145e-09
1.10055e-10
7.13337e-09
1.08082e-10
7.02642e-09
1.0695e-10
6.92033e-09
1.06082e-10
6.81406e-09
1.0627e-10
6.70775e-09
1.06312e-10
6.60025e-09
1.07504e-10
6.49229e-09
1.07958e-10
6.38379e-09
1.08502e-10
6.27565e-09
1.08139e-10
6.17333e-09
1.02325e-10
6.07596e-09
9.73613e-11
6.00738e-09
6.85839e-11
5.95874e-09
4.86406e-11
6.04201e-09
-8.3267e-11
6.00214e-09
3.98705e-11
-3.33503e-09
9.33717e-09
1.26024e-07
1.2746e-07
9.12558e-08
6.74118e-08
7.19274e-08
2.82225e-08
6.11925e-08
1.42323e-08
5.47385e-08
8.40887e-09
5.02368e-08
5.93223e-09
4.67448e-08
4.62808e-09
4.39208e-08
3.74105e-09
4.15854e-08
3.09105e-09
3.96137e-08
2.60914e-09
3.79185e-08
2.24337e-09
3.64397e-08
1.95713e-09
3.51344e-08
1.72738e-09
3.39712e-08
1.53943e-09
3.2926e-08
1.38337e-09
3.19799e-08
1.25213e-09
3.11182e-08
1.14056e-09
3.03289e-08
1.04481e-09
2.96022e-08
9.61959e-10
2.89302e-08
8.89774e-10
2.83061e-08
8.26495e-10
2.77242e-08
7.70739e-10
2.71798e-08
7.21398e-10
2.66685e-08
6.77587e-10
2.61869e-08
6.38579e-10
2.57317e-08
6.03804e-10
2.53001e-08
5.72779e-10
2.48896e-08
5.45137e-10
2.44979e-08
5.20562e-10
2.41229e-08
4.98836e-10
2.37625e-08
4.79742e-10
2.34149e-08
4.63245e-10
2.30783e-08
4.49103e-10
2.27508e-08
4.37572e-10
2.24307e-08
4.28167e-10
2.21159e-08
4.21733e-10
2.1805e-08
4.17006e-10
2.14952e-08
4.16088e-10
2.11858e-08
4.15736e-10
2.08728e-08
4.20486e-10
2.05575e-08
4.23194e-10
2.02347e-08
4.31321e-10
1.99098e-08
4.33089e-10
1.95798e-08
4.32334e-10
1.92543e-08
4.22822e-10
1.89601e-08
3.62787e-10
1.86741e-08
3.34666e-10
1.86691e-08
-7.8299e-11
1.84854e-08
2.2354e-10
-4.93234e-09
2.00827e-08
1.58806e-07
1.35058e-07
1.36487e-07
8.97304e-08
1.17476e-07
4.72333e-08
1.03287e-07
2.84212e-08
9.32688e-08
1.84273e-08
8.59552e-08
1.32458e-08
8.02376e-08
1.03458e-08
7.55742e-08
8.40443e-09
7.16827e-08
6.98251e-09
6.8376e-08
5.91583e-09
6.55207e-08
5.09872e-09
6.30217e-08
4.45609e-09
6.08105e-08
3.93863e-09
5.88357e-08
3.5142e-09
5.70582e-08
3.16091e-09
5.54471e-08
2.86317e-09
5.39781e-08
2.60956e-09
5.26314e-08
2.39152e-09
5.13908e-08
2.20253e-09
5.0243e-08
2.03759e-09
4.91768e-08
1.89275e-09
4.81826e-08
1.7649e-09
4.72525e-08
1.65153e-09
4.63794e-08
1.55065e-09
4.55574e-08
1.46061e-09
4.47811e-08
1.38009e-09
4.40458e-08
1.30802e-09
4.33475e-08
1.24351e-09
4.26822e-08
1.18586e-09
4.20465e-08
1.13453e-09
4.14372e-08
1.08905e-09
4.08512e-08
1.0492e-09
4.02857e-08
1.01461e-09
3.97378e-08
9.85519e-10
3.92046e-08
9.61317e-10
3.86832e-08
9.43188e-10
3.81708e-08
9.29346e-10
3.76636e-08
9.23303e-10
3.71598e-08
9.19519e-10
3.66533e-08
9.27041e-10
3.61453e-08
9.31186e-10
3.56255e-08
9.51054e-10
3.51026e-08
9.56034e-10
3.45639e-08
9.71055e-10
3.40251e-08
9.61569e-10
3.35102e-08
8.77689e-10
3.29754e-08
8.69511e-10
3.27689e-08
1.28209e-10
3.25145e-08
4.77899e-10
-5.64253e-09
3.32247e-08
1.75663e-07
1.30911e-07
1.65589e-07
9.98044e-08
1.52708e-07
6.01137e-08
1.40097e-07
4.10327e-08
1.29394e-07
2.91306e-08
1.20736e-07
2.19034e-08
1.13609e-07
1.74725e-08
1.07613e-07
1.44003e-08
1.02497e-07
1.2099e-08
9.80774e-08
1.03354e-08
9.42147e-08
8.96143e-09
9.08029e-08
7.86782e-09
8.77621e-08
6.97947e-09
8.50306e-08
6.24574e-09
8.256e-08
5.63146e-09
8.03119e-08
5.11126e-09
7.82552e-08
4.66629e-09
7.63644e-08
4.28233e-09
7.46185e-08
3.94846e-09
7.29999e-08
3.65619e-09
7.14938e-08
3.39882e-09
7.00877e-08
3.17103e-09
6.87707e-08
2.96852e-09
6.75335e-08
2.78783e-09
6.6368e-08
2.6261e-09
6.5267e-08
2.48105e-09
6.42243e-08
2.35077e-09
6.32341e-08
2.23371e-09
6.22913e-08
2.12862e-09
6.13914e-08
2.0345e-09
6.05299e-08
1.95054e-09
5.97029e-08
1.87622e-09
5.89064e-08
1.81102e-09
5.81369e-08
1.75504e-09
5.73907e-08
1.70758e-09
5.66638e-08
1.67007e-09
5.59529e-08
1.64026e-09
5.5253e-08
1.62313e-09
5.45618e-08
1.61071e-09
5.38717e-08
1.61717e-09
5.31835e-08
1.61942e-09
5.24844e-08
1.6501e-09
5.17828e-08
1.65772e-09
5.10632e-08
1.69058e-09
5.03371e-08
1.68775e-09
4.96355e-08
1.57926e-09
4.88953e-08
1.60968e-09
4.84535e-08
5.69974e-10
4.81742e-08
7.57247e-10
-5.91343e-09
4.84451e-08
1.84559e-07
1.23137e-07
1.82317e-07
1.02047e-07
1.76091e-07
6.63397e-08
1.67736e-07
4.93875e-08
1.59098e-07
3.77683e-08
1.51173e-07
2.98289e-08
1.44083e-07
2.45625e-08
1.37765e-07
2.07179e-08
1.32146e-07
1.77182e-08
1.27141e-07
1.53406e-08
1.22663e-07
1.34386e-08
1.18637e-07
1.18939e-08
1.14998e-07
1.06193e-08
1.1169e-07
9.5533e-09
1.0867e-07
8.6516e-09
1.059e-07
7.88137e-09
1.03348e-07
7.21769e-09
1.00989e-07
6.64138e-09
9.88003e-08
6.13748e-09
9.67623e-08
5.6942e-09
9.48589e-08
5.30213e-09
9.30763e-08
4.95371e-09
9.1402e-08
4.64278e-09
8.98255e-08
4.36434e-09
8.83373e-08
4.11426e-09
8.69292e-08
3.88916e-09
8.55938e-08
3.68623e-09
8.43243e-08
3.50317e-09
8.31148e-08
3.33813e-09
8.19598e-08
3.18954e-09
8.08541e-08
3.05623e-09
7.9793e-08
2.93729e-09
7.8772e-08
2.83203e-09
7.77867e-08
2.74031e-09
7.68329e-08
2.6614e-09
7.59061e-08
2.59683e-09
7.50024e-08
2.54402e-09
7.41163e-08
2.50923e-09
7.32447e-08
2.48233e-09
7.23796e-08
2.48225e-09
7.15206e-08
2.47836e-09
7.06555e-08
2.5152e-09
6.97889e-08
2.52436e-09
6.89097e-08
2.56979e-09
6.80178e-08
2.57965e-09
6.7156e-08
2.441e-09
6.62588e-08
2.50695e-09
6.55924e-08
1.23632e-09
6.52632e-08
1.08651e-09
-5.93008e-09
6.52798e-08
1.90388e-07
1.14966e-07
1.91848e-07
1.00586e-07
1.90234e-07
6.79537e-08
1.86134e-07
5.3488e-08
1.80681e-07
4.32207e-08
1.7491e-07
3.55999e-08
1.69195e-07
3.02775e-08
1.63692e-07
2.62214e-08
1.58496e-07
2.29139e-08
1.5365e-07
2.01865e-08
1.49157e-07
1.79321e-08
1.44998e-07
1.60519e-08
1.41151e-07
1.44663e-08
1.37589e-07
1.31159e-08
1.34284e-07
1.19562e-08
1.31213e-07
1.09527e-08
1.28352e-07
1.00785e-08
1.25681e-07
9.3122e-09
1.23182e-07
8.6366e-09
1.20839e-07
8.03792e-09
1.18636e-07
7.50496e-09
1.16561e-07
7.02853e-09
1.14603e-07
6.6011e-09
1.1275e-07
6.21643e-09
1.10995e-07
5.86931e-09
1.09329e-07
5.55546e-09
1.07744e-07
5.2713e-09
1.06233e-07
5.01382e-09
1.04791e-07
4.78062e-09
1.03411e-07
4.56963e-09
1.02088e-07
4.37932e-09
1.00817e-07
4.2084e-09
9.95926e-08
4.05603e-09
9.84111e-08
3.92182e-09
9.72675e-08
3.80502e-09
9.61571e-08
3.70724e-09
9.50755e-08
3.62562e-09
9.40172e-08
3.56751e-09
9.29784e-08
3.52115e-09
9.19516e-08
3.50904e-09
9.09345e-08
3.49545e-09
8.99173e-08
3.53235e-09
8.88992e-08
3.5425e-09
8.78765e-08
3.59245e-09
8.68379e-08
3.61834e-09
8.58317e-08
3.44717e-09
8.48114e-08
3.52722e-09
8.39485e-08
2.0992e-09
8.35228e-08
1.51224e-09
-5.70179e-09
8.32945e-08
1.9554e-07
1.07241e-07
1.98244e-07
9.78822e-08
1.9896e-07
6.72374e-08
1.97772e-07
5.46769e-08
1.95128e-07
4.58647e-08
1.9177e-07
3.8957e-08
1.88021e-07
3.40273e-08
1.8405e-07
3.01918e-08
1.80009e-07
2.69553e-08
1.76007e-07
2.41887e-08
1.72112e-07
2.18271e-08
1.68363e-07
1.98011e-08
1.64779e-07
1.805e-08
1.61369e-07
1.65261e-08
1.58132e-07
1.51926e-08
1.55065e-07
1.40199e-08
1.5216e-07
1.29836e-08
1.49408e-07
1.20638e-08
1.46801e-07
1.12439e-08
1.44329e-07
1.05102e-08
1.41982e-07
9.85137e-09
1.39753e-07
9.25778e-09
1.37633e-07
8.72142e-09
1.35614e-07
8.23556e-09
1.33689e-07
7.79448e-09
1.31851e-07
7.39342e-09
1.30094e-07
7.02834e-09
1.28412e-07
6.69583e-09
1.26799e-07
6.39315e-09
1.25251e-07
6.11785e-09
1.23762e-07
5.86822e-09
1.22328e-07
5.64268e-09
1.20943e-07
5.44034e-09
1.19605e-07
5.26059e-09
1.18307e-07
5.10277e-09
1.17045e-07
4.96851e-09
1.15816e-07
4.85493e-09
1.14614e-07
4.77002e-09
1.13433e-07
4.70133e-09
1.12269e-07
4.67321e-09
1.11117e-07
4.64802e-09
1.09969e-07
4.67977e-09
1.08821e-07
4.69095e-09
1.07674e-07
4.73906e-09
1.06512e-07
4.78044e-09
1.05378e-07
4.58149e-09
1.04259e-07
4.64647e-09
1.0323e-07
3.12736e-09
1.02677e-07
2.06556e-09
-5.19162e-09
1.02167e-07
2.00847e-07
9.99787e-08
2.03772e-07
9.49569e-08
2.05319e-07
6.56905e-08
2.05628e-07
5.43682e-08
2.04791e-07
4.67014e-08
2.03297e-07
4.04515e-08
2.01333e-07
3.59913e-08
1.98984e-07
3.25405e-08
1.96357e-07
2.95827e-08
1.93553e-07
2.6992e-08
1.90655e-07
2.47255e-08
1.87722e-07
2.27345e-08
1.84797e-07
2.09742e-08
1.81914e-07
1.94096e-08
1.79093e-07
1.80137e-08
1.76349e-07
1.67642e-08
1.7369e-07
1.56424e-08
1.71121e-07
1.46323e-08
1.68645e-07
1.37204e-08
1.6626e-07
1.28948e-08
1.63966e-07
1.21455e-08
1.6176e-07
1.14641e-08
1.59638e-07
1.08429e-08
1.57598e-07
1.02757e-08
1.55636e-07
9.757e-09
1.53747e-07
9.28212e-09
1.51928e-07
8.84707e-09
1.50176e-07
8.44844e-09
1.48485e-07
8.08346e-09
1.46853e-07
7.74963e-09
1.45276e-07
7.44526e-09
1.4375e-07
7.16866e-09
1.42272e-07
6.91905e-09
1.40837e-07
6.69576e-09
1.39441e-07
6.49834e-09
1.38081e-07
6.32842e-09
1.36753e-07
6.18341e-09
1.35451e-07
6.07156e-09
1.34172e-07
5.98065e-09
1.3291e-07
5.93528e-09
1.31659e-07
5.8987e-09
1.30416e-07
5.92275e-09
1.29172e-07
5.93546e-09
1.27931e-07
5.9795e-09
1.26679e-07
6.03289e-09
1.25443e-07
5.8169e-09
1.2425e-07
5.8397e-09
1.23092e-07
4.28511e-09
1.22389e-07
2.76898e-09
-4.41493e-09
1.21612e-07
2.06446e-07
9.30648e-08
2.09336e-07
9.2067e-08
2.11029e-07
6.39975e-08
2.11916e-07
5.34806e-08
2.11977e-07
4.66412e-08
2.11579e-07
4.08494e-08
2.10835e-07
3.67351e-08
2.09748e-07
3.36274e-08
2.08356e-07
3.09751e-08
2.06716e-07
2.86314e-08
2.04886e-07
2.6556e-08
2.02913e-07
2.47071e-08
2.00841e-07
2.30465e-08
1.98705e-07
2.1546e-08
1.96533e-07
2.01851e-08
1.9435e-07
1.89476e-08
1.92172e-07
1.78198e-08
1.90015e-07
1.67899e-08
1.87887e-07
1.58478e-08
1.85798e-07
1.49846e-08
1.83751e-07
1.41923e-08
1.81751e-07
1.34642e-08
1.79799e-07
1.27942e-08
1.77898e-07
1.21769e-08
1.76047e-07
1.16077e-08
1.74247e-07
1.10826e-08
1.72496e-07
1.05981e-08
1.70793e-07
1.01511e-08
1.69137e-07
9.73933e-09
1.67526e-07
9.36038e-09
1.65959e-07
9.01289e-09
1.64432e-07
8.69531e-09
1.62944e-07
8.40714e-09
1.61492e-07
8.14782e-09
1.60073e-07
7.91725e-09
1.58684e-07
7.71718e-09
1.57322e-07
7.5455e-09
1.55983e-07
7.41048e-09
1.54663e-07
7.30086e-09
1.53358e-07
7.24046e-09
1.52062e-07
7.19507e-09
1.50772e-07
7.21237e-09
1.4948e-07
7.22788e-09
1.48189e-07
7.26977e-09
1.46891e-07
7.33151e-09
1.45596e-07
7.11118e-09
1.4436e-07
7.0757e-09
1.43123e-07
5.52274e-09
1.42251e-07
3.641e-09
-3.41327e-09
1.41249e-07
2.12288e-07
8.64393e-08
2.15149e-07
8.92063e-08
2.16783e-07
6.23631e-08
2.17829e-07
5.2435e-08
2.18235e-07
4.62344e-08
2.18341e-07
4.07439e-08
2.18252e-07
3.68238e-08
2.17938e-07
3.39417e-08
2.17391e-07
3.15223e-08
2.16629e-07
2.93928e-08
2.15678e-07
2.75074e-08
2.14562e-07
2.58234e-08
2.13306e-07
2.43019e-08
2.11937e-07
2.29154e-08
2.10477e-07
2.16453e-08
2.08947e-07
2.04775e-08
2.07366e-07
1.94012e-08
2.05748e-07
1.84071e-08
2.04109e-07
1.74876e-08
2.02457e-07
1.66361e-08
2.00803e-07
1.58465e-08
1.99153e-07
1.51137e-08
1.97515e-07
1.4433e-08
1.95891e-07
1.38005e-08
1.94286e-07
1.32124e-08
1.92704e-07
1.26655e-08
1.91144e-07
1.21573e-08
1.8961e-07
1.16852e-08
1.88102e-07
1.12474e-08
1.86621e-07
1.08421e-08
1.85165e-07
1.04684e-08
1.83735e-07
1.01249e-08
1.82331e-07
9.81177e-09
1.8095e-07
9.52857e-09
1.79592e-07
9.27569e-09
1.78254e-07
9.05513e-09
1.76934e-07
8.86536e-09
1.7563e-07
8.71468e-09
1.74337e-07
8.59302e-09
1.73055e-07
8.52318e-09
1.71776e-07
8.47393e-09
1.705e-07
8.48859e-09
1.69218e-07
8.50983e-09
1.67934e-07
8.55392e-09
1.66642e-07
8.62324e-09
1.65344e-07
8.40892e-09
1.64104e-07
8.31606e-09
1.62845e-07
6.78132e-09
1.61817e-07
4.66914e-09
-2.19312e-09
1.60597e-07
2.18329e-07
8.0091e-08
2.21202e-07
8.63331e-08
2.22755e-07
6.08098e-08
2.23828e-07
5.13628e-08
2.24344e-07
4.57182e-08
2.24627e-07
4.04604e-08
2.24815e-07
3.66358e-08
2.2488e-07
3.38768e-08
2.248e-07
3.16026e-08
2.24575e-07
2.9618e-08
2.24209e-07
2.78729e-08
2.2371e-07
2.63229e-08
2.23085e-07
2.49265e-08
2.22346e-07
2.36539e-08
2.21507e-07
2.24851e-08
2.20578e-07
2.1406e-08
2.19574e-07
2.04058e-08
2.18505e-07
1.9476e-08
2.17382e-07
1.86099e-08
2.16217e-07
1.78017e-08
2.15016e-07
1.70467e-08
2.13789e-07
1.63407e-08
2.12542e-07
1.568e-08
2.11281e-07
1.50615e-08
2.10011e-07
1.44824e-08
2.08737e-07
1.39402e-08
2.07461e-07
1.34329e-08
2.06187e-07
1.29588e-08
2.04918e-07
1.25166e-08
2.03655e-07
1.2105e-08
2.024e-07
1.17235e-08
2.01154e-07
1.13714e-08
1.99916e-07
1.1049e-08
1.98689e-07
1.07564e-08
1.9747e-07
1.04944e-08
1.96259e-07
1.02655e-08
1.95056e-07
1.00687e-08
1.93858e-07
9.91228e-09
1.92664e-07
9.78747e-09
1.91471e-07
9.71613e-09
1.90275e-07
9.66985e-09
1.89076e-07
9.68796e-09
1.87866e-07
9.71982e-09
1.86648e-07
9.77123e-09
1.8542e-07
9.85126e-09
1.84179e-07
9.64987e-09
1.82981e-07
9.51409e-09
1.81754e-07
8.0089e-09
1.80625e-07
5.79772e-09
-7.43915e-10
1.79176e-07
2.24558e-07
7.40265e-08
2.27466e-07
8.34246e-08
2.28952e-07
5.93242e-08
2.30029e-07
5.02855e-08
2.30586e-07
4.5161e-08
2.30918e-07
4.01283e-08
2.31196e-07
3.63584e-08
2.31409e-07
3.36638e-08
2.31538e-07
3.14737e-08
2.3158e-07
2.95753e-08
2.31537e-07
2.79167e-08
2.31405e-07
2.64548e-08
2.31184e-07
2.5147e-08
2.30877e-07
2.39612e-08
2.30486e-07
2.28758e-08
2.30017e-07
2.18753e-08
2.29475e-07
2.0948e-08
2.28866e-07
2.00851e-08
2.28196e-07
1.92794e-08
2.27472e-07
1.85255e-08
2.267e-07
1.78186e-08
2.25886e-07
1.71548e-08
2.25035e-07
1.6531e-08
2.24153e-07
1.59443e-08
2.23243e-07
1.53923e-08
2.2231e-07
1.4873e-08
2.21358e-07
1.43849e-08
2.2039e-07
1.39267e-08
2.19409e-07
1.34974e-08
2.18418e-07
1.30962e-08
2.17418e-07
1.27231e-08
2.16412e-07
1.23776e-08
2.15401e-07
1.20605e-08
2.14385e-07
1.17723e-08
2.13365e-07
1.15142e-08
2.12342e-07
1.12891e-08
2.11314e-07
1.10963e-08
2.10282e-07
1.09446e-08
2.09243e-07
1.08261e-08
2.08197e-07
1.07618e-08
2.07141e-07
1.07261e-08
2.06075e-07
1.07542e-08
2.04992e-07
1.08028e-08
2.03896e-07
1.08665e-08
2.02785e-07
1.09625e-08
2.01655e-07
1.07802e-08
2.00549e-07
1.06197e-08
1.99392e-07
9.16616e-09
1.98233e-07
6.95636e-09
9.0522e-10
1.96584e-07
2.30978e-07
6.8254e-08
2.33931e-07
8.04724e-08
2.35357e-07
5.7898e-08
2.3644e-07
4.92024e-08
2.3703e-07
4.45705e-08
2.37377e-07
3.97813e-08
2.37676e-07
3.60597e-08
2.37935e-07
3.34051e-08
2.38139e-07
3.12694e-08
2.38291e-07
2.94232e-08
2.38393e-07
2.78146e-08
2.38444e-07
2.64044e-08
2.3844e-07
2.51507e-08
2.38381e-07
2.40208e-08
2.38264e-07
2.29919e-08
2.38092e-07
2.20478e-08
2.37864e-07
2.1176e-08
2.37582e-07
2.03669e-08
2.37249e-07
1.96129e-08
2.36866e-07
1.8908e-08
2.36438e-07
1.82472e-08
2.35966e-07
1.76267e-08
2.35454e-07
1.70429e-08
2.34905e-07
1.64932e-08
2.34322e-07
1.59751e-08
2.33708e-07
1.54868e-08
2.33066e-07
1.5027e-08
2.32399e-07
1.45943e-08
2.31708e-07
1.41881e-08
2.30996e-07
1.38079e-08
2.30266e-07
1.34537e-08
2.29518e-07
1.31255e-08
2.28754e-07
1.28242e-08
2.27975e-07
1.25509e-08
2.27183e-07
1.23067e-08
2.26377e-07
1.2095e-08
2.25558e-07
1.19155e-08
2.24725e-07
1.17773e-08
2.23878e-07
1.16731e-08
2.23017e-07
1.16232e-08
2.22138e-07
1.1605e-08
2.21244e-07
1.16487e-08
2.20327e-07
1.17195e-08
2.19393e-07
1.18002e-08
2.18439e-07
1.1917e-08
2.17458e-07
1.17609e-08
2.16486e-07
1.15917e-08
2.1543e-07
1.02223e-08
2.14296e-07
8.09021e-09
2.68209e-09
2.12519e-07
2.376e-07
6.27793e-08
2.40598e-07
7.74738e-08
2.41967e-07
5.6529e-08
2.43055e-07
4.81146e-08
2.43682e-07
4.39432e-08
2.44042e-07
3.94212e-08
2.44346e-07
3.57561e-08
2.44617e-07
3.31343e-08
2.44843e-07
3.10426e-08
2.45032e-07
2.92348e-08
2.45188e-07
2.76583e-08
2.45314e-07
2.62789e-08
2.45407e-07
2.5057e-08
2.45468e-07
2.39602e-08
2.45494e-07
2.29657e-08
2.45485e-07
2.20571e-08
2.45439e-07
2.12215e-08
2.45357e-07
2.04491e-08
2.45238e-07
1.97319e-08
2.45082e-07
1.90636e-08
2.44891e-07
1.84389e-08
2.44664e-07
1.78536e-08
2.44403e-07
1.73042e-08
2.44108e-07
1.67875e-08
2.43782e-07
1.63013e-08
2.43425e-07
1.58434e-08
2.4304e-07
1.54124e-08
2.42627e-07
1.50072e-08
2.42188e-07
1.4627e-08
2.41725e-07
1.42714e-08
2.41238e-07
1.39405e-08
2.40729e-07
1.36345e-08
2.40199e-07
1.33543e-08
2.39648e-07
1.31013e-08
2.39078e-07
1.28767e-08
2.38489e-07
1.26843e-08
2.37881e-07
1.25239e-08
2.37253e-07
1.24046e-08
2.36606e-07
1.23201e-08
2.3594e-07
1.22895e-08
2.35252e-07
1.22934e-08
2.34544e-07
1.23566e-08
2.3381e-07
1.24532e-08
2.33056e-07
1.25547e-08
2.32278e-07
1.26949e-08
2.31466e-07
1.25729e-08
2.30648e-07
1.24091e-08
2.29714e-07
1.11564e-08
2.28633e-07
9.17119e-09
4.50051e-09
2.26815e-07
2.4443e-07
5.7606e-08
2.47468e-07
7.44358e-08
2.48787e-07
5.52092e-08
2.49875e-07
4.70267e-08
2.50541e-07
4.32775e-08
2.50918e-07
3.90444e-08
2.51225e-07
3.54485e-08
2.51501e-07
3.28586e-08
2.51735e-07
3.08087e-08
2.51934e-07
2.90361e-08
2.52107e-07
2.74854e-08
2.52258e-07
2.61279e-08
2.52388e-07
2.49268e-08
2.52497e-07
2.38507e-08
2.52586e-07
2.28771e-08
2.52653e-07
2.19898e-08
2.52698e-07
2.11764e-08
2.52721e-07
2.04267e-08
2.5272e-07
1.9733e-08
2.52694e-07
1.90888e-08
2.52645e-07
1.84887e-08
2.5257e-07
1.79284e-08
2.5247e-07
1.74041e-08
2.52345e-07
1.69126e-08
2.52195e-07
1.64515e-08
2.52019e-07
1.60184e-08
2.5182e-07
1.5612e-08
2.51596e-07
1.52308e-08
2.51349e-07
1.48742e-08
2.51079e-07
1.45417e-08
2.50786e-07
1.42334e-08
2.50471e-07
1.39495e-08
2.50134e-07
1.36911e-08
2.49776e-07
1.34594e-08
2.49397e-07
1.32559e-08
2.48996e-07
1.30845e-08
2.48575e-07
1.29451e-08
2.48133e-07
1.28469e-08
2.47669e-07
1.27843e-08
2.47183e-07
1.27748e-08
2.46674e-07
1.28029e-08
2.46143e-07
1.28872e-08
2.45586e-07
1.30106e-08
2.45005e-07
1.31352e-08
2.444e-07
1.32998e-08
2.43755e-07
1.32184e-08
2.43091e-07
1.30733e-08
2.42283e-07
1.19639e-08
2.41266e-07
1.01886e-08
6.29759e-09
2.39469e-07
2.51477e-07
5.27359e-08
2.54545e-07
7.13676e-08
2.55826e-07
5.39281e-08
2.56908e-07
4.59444e-08
2.57611e-07
4.25744e-08
2.58008e-07
3.8648e-08
2.58321e-07
3.51355e-08
2.58601e-07
3.25781e-08
2.5884e-07
3.05701e-08
2.59043e-07
2.88334e-08
2.5922e-07
2.73077e-08
2.59379e-07
2.59695e-08
2.5952e-07
2.47853e-08
2.59646e-07
2.37246e-08
2.59758e-07
2.27656e-08
2.59855e-07
2.18924e-08
2.59939e-07
2.10929e-08
2.60008e-07
2.03575e-08
2.60063e-07
1.96784e-08
2.60102e-07
1.90493e-08
2.60126e-07
1.8465e-08
2.60133e-07
1.79209e-08
2.60124e-07
1.74135e-08
2.60097e-07
1.69394e-08
2.60053e-07
1.6496e-08
2.5999e-07
1.60812e-08
2.59909e-07
1.56932e-08
2.59809e-07
1.53307e-08
2.5969e-07
1.4993e-08
2.59552e-07
1.46794e-08
2.59396e-07
1.43901e-08
2.5922e-07
1.41254e-08
2.59025e-07
1.38862e-08
2.5881e-07
1.3674e-08
2.58576e-07
1.349e-08
2.58322e-07
1.33384e-08
2.58048e-07
1.32192e-08
2.57754e-07
1.31412e-08
2.57438e-07
1.31001e-08
2.57102e-07
1.31112e-08
2.56742e-07
1.31628e-08
2.56361e-07
1.32679e-08
2.55955e-07
1.3417e-08
2.55524e-07
1.35655e-08
2.5507e-07
1.3754e-08
2.54571e-07
1.37179e-08
2.54039e-07
1.36044e-08
2.53345e-07
1.2658e-08
2.5239e-07
1.11434e-08
8.04441e-09
2.50644e-07
2.5875e-07
4.81691e-08
2.61838e-07
6.82793e-08
2.63091e-07
5.26752e-08
2.64163e-07
4.48726e-08
2.64901e-07
4.18365e-08
2.65319e-07
3.82298e-08
2.65638e-07
3.48161e-08
2.65924e-07
3.22925e-08
2.66167e-07
3.03265e-08
2.66373e-07
2.86273e-08
2.66553e-07
2.71276e-08
2.66714e-07
2.58087e-08
2.66859e-07
2.46406e-08
2.6699e-07
2.35938e-08
2.67108e-07
2.2647e-08
2.67216e-07
2.1785e-08
2.67313e-07
2.09959e-08
2.674e-07
2.02706e-08
2.67477e-07
1.96014e-08
2.67544e-07
1.89824e-08
2.676e-07
1.84083e-08
2.67646e-07
1.7875e-08
2.67681e-07
1.73788e-08
2.67704e-07
1.69164e-08
2.67715e-07
1.64853e-08
2.67713e-07
1.60832e-08
2.67698e-07
1.57083e-08
2.67669e-07
1.53595e-08
2.67626e-07
1.50357e-08
2.67569e-07
1.47366e-08
2.67497e-07
1.44622e-08
2.67409e-07
1.42129e-08
2.67306e-07
1.39893e-08
2.67187e-07
1.37933e-08
2.67051e-07
1.3626e-08
2.66898e-07
1.34915e-08
2.66727e-07
1.339e-08
2.66538e-07
1.333e-08
2.6633e-07
1.33082e-08
2.66103e-07
1.3338e-08
2.65855e-07
1.3411e-08
2.65587e-07
1.35353e-08
2.65297e-07
1.37077e-08
2.64982e-07
1.38799e-08
2.64645e-07
1.40912e-08
2.64259e-07
1.41036e-08
2.6383e-07
1.40339e-08
2.63223e-07
1.32651e-08
2.62319e-07
1.20471e-08
9.73153e-09
2.60632e-07
2.66257e-07
4.39039e-08
2.69355e-07
6.51814e-08
2.7059e-07
5.144e-08
2.71647e-07
4.38158e-08
2.72417e-07
4.10672e-08
2.72858e-07
3.77882e-08
2.73185e-07
3.44896e-08
2.73475e-07
3.20018e-08
2.73724e-07
3.00776e-08
2.73934e-07
2.84175e-08
2.74116e-07
2.69453e-08
2.74279e-07
2.56463e-08
2.74425e-07
2.44944e-08
2.74557e-07
2.34615e-08
2.74678e-07
2.25266e-08
2.74788e-07
2.16749e-08
2.74889e-07
2.0895e-08
2.74981e-07
2.01781e-08
2.75066e-07
1.9517e-08
2.75142e-07
1.89057e-08
2.75211e-07
1.83394e-08
2.75272e-07
1.7814e-08
2.75325e-07
1.73258e-08
2.7537e-07
1.68718e-08
2.75406e-07
1.64495e-08
2.75432e-07
1.60565e-08
2.75449e-07
1.56913e-08
2.75456e-07
1.53525e-08
2.75453e-07
1.50392e-08
2.75438e-07
1.47511e-08
2.75412e-07
1.44881e-08
2.75375e-07
1.42507e-08
2.75324e-07
1.40397e-08
2.75261e-07
1.38568e-08
2.75183e-07
1.37031e-08
2.75092e-07
1.35829e-08
2.74986e-07
1.34965e-08
2.74864e-07
1.34519e-08
2.74725e-07
1.34468e-08
2.7457e-07
1.34928e-08
2.74397e-07
1.35846e-08
2.74206e-07
1.37263e-08
2.73994e-07
1.39192e-08
2.7376e-07
1.41144e-08
2.73503e-07
1.43476e-08
2.73196e-07
1.44112e-08
2.72833e-07
1.43962e-08
2.72283e-07
1.38158e-08
2.71413e-07
1.29167e-08
1.13595e-08
2.69785e-07
2.74008e-07
3.9937e-08
2.77105e-07
6.20851e-08
2.78332e-07
5.02123e-08
2.79371e-07
4.27775e-08
2.80167e-07
4.02705e-08
2.80634e-07
3.73216e-08
2.80969e-07
3.41548e-08
2.81264e-07
3.17061e-08
2.81519e-07
2.98232e-08
2.81733e-07
2.82035e-08
2.81918e-07
2.67605e-08
2.82082e-07
2.54822e-08
2.82229e-07
2.43471e-08
2.82362e-07
2.33284e-08
2.82483e-07
2.24055e-08
2.82594e-07
2.15641e-08
2.82696e-07
2.07933e-08
2.82789e-07
2.00845e-08
2.82876e-07
1.94308e-08
2.82955e-07
1.88265e-08
2.83027e-07
1.82669e-08
2.83093e-07
1.77481e-08
2.83152e-07
1.72667e-08
2.83205e-07
1.68196e-08
2.8325e-07
1.64043e-08
2.83288e-07
1.60187e-08
2.83318e-07
1.56611e-08
2.8334e-07
1.53302e-08
2.83354e-07
1.50253e-08
2.83359e-07
1.4746e-08
2.83355e-07
1.44922e-08
2.83341e-07
1.42645e-08
2.83317e-07
1.40637e-08
2.83283e-07
1.38916e-08
2.83236e-07
1.37494e-08
2.83178e-07
1.36412e-08
2.83107e-07
1.35676e-08
2.83023e-07
1.35361e-08
2.82924e-07
1.35456e-08
2.82811e-07
1.36057e-08
2.82682e-07
1.37139e-08
2.82536e-07
1.38715e-08
2.82373e-07
1.40824e-08
2.82187e-07
1.43003e-08
2.81979e-07
1.45555e-08
2.81718e-07
1.46727e-08
2.81392e-07
1.47225e-08
2.80869e-07
1.43382e-08
2.80016e-07
1.37699e-08
1.29323e-08
2.78443e-07
2.82012e-07
3.62628e-08
2.85095e-07
5.90016e-08
2.86325e-07
4.89825e-08
2.87342e-07
4.17604e-08
2.88161e-07
3.94512e-08
2.88654e-07
3.68288e-08
2.88998e-07
3.38107e-08
2.89299e-07
3.14054e-08
2.89559e-07
2.9563e-08
2.89777e-07
2.79851e-08
2.89965e-07
2.65727e-08
2.90131e-07
2.53162e-08
2.9028e-07
2.41984e-08
2.90414e-07
2.31943e-08
2.90536e-07
2.22839e-08
2.90647e-07
2.14531e-08
2.90748e-07
2.06915e-08
2.90842e-07
1.99908e-08
2.90928e-07
1.93445e-08
2.91008e-07
1.8747e-08
2.91081e-07
1.81939e-08
2.91147e-07
1.76815e-08
2.91208e-07
1.72063e-08
2.91262e-07
1.67655e-08
2.9131e-07
1.63566e-08
2.91351e-07
1.59776e-08
2.91385e-07
1.56267e-08
2.91412e-07
1.53029e-08
2.91432e-07
1.50053e-08
2.91445e-07
1.47336e-08
2.91449e-07
1.44878e-08
2.91445e-07
1.42686e-08
2.91432e-07
1.40767e-08
2.9141e-07
1.39141e-08
2.91377e-07
1.37819e-08
2.91334e-07
1.36843e-08
2.9128e-07
1.36221e-08
2.91214e-07
1.36022e-08
2.91135e-07
1.36246e-08
2.91043e-07
1.36975e-08
2.90936e-07
1.38204e-08
2.90815e-07
1.39927e-08
2.90677e-07
1.42201e-08
2.90517e-07
1.44607e-08
2.90333e-07
1.4739e-08
2.90094e-07
1.49124e-08
2.8978e-07
1.50367e-08
2.89265e-07
1.48531e-08
2.88416e-07
1.46188e-08
1.44528e-08
2.86895e-07
2.90277e-07
3.28745e-08
2.93336e-07
5.59429e-08
2.94577e-07
4.77418e-08
2.95571e-07
4.07665e-08
2.96407e-07
3.86144e-08
2.96927e-07
3.63089e-08
2.97282e-07
3.34558e-08
2.97588e-07
3.10997e-08
2.97854e-07
2.92973e-08
2.98077e-07
2.77618e-08
2.98268e-07
2.63818e-08
2.98436e-07
2.51481e-08
2.98586e-07
2.40482e-08
2.98721e-07
2.30592e-08
2.98843e-07
2.21616e-08
2.98955e-07
2.13417e-08
2.99057e-07
2.05895e-08
2.9915e-07
1.98972e-08
2.99236e-07
1.92584e-08
2.99315e-07
1.86679e-08
2.99388e-07
1.81214e-08
2.99454e-07
1.76152e-08
2.99514e-07
1.71463e-08
2.99568e-07
1.67117e-08
2.99616e-07
1.6309e-08
2.99657e-07
1.59363e-08
2.99692e-07
1.5592e-08
2.9972e-07
1.52748e-08
2.99741e-07
1.49841e-08
2.99755e-07
1.47196e-08
2.99761e-07
1.44813e-08
2.9976e-07
1.42701e-08
2.9975e-07
1.40865e-08
2.99731e-07
1.39327e-08
2.99703e-07
1.38098e-08
2.99666e-07
1.3722e-08
2.99617e-07
1.36703e-08
2.99558e-07
1.36613e-08
2.99487e-07
1.36956e-08
2.99404e-07
1.37806e-08
2.99308e-07
1.3917e-08
2.99197e-07
1.41038e-08
2.9907e-07
1.43469e-08
2.9892e-07
1.46108e-08
2.98745e-07
1.49141e-08
2.98511e-07
1.51465e-08
2.98194e-07
1.53535e-08
2.97674e-07
1.53726e-08
2.96825e-07
1.54683e-08
1.59197e-08
2.95358e-07
2.98814e-07
2.9763e-08
3.01836e-07
5.29208e-08
3.03096e-07
4.64823e-08
3.04066e-07
3.97965e-08
3.04914e-07
3.77657e-08
3.05462e-07
3.57613e-08
3.05829e-07
3.30887e-08
3.0614e-07
3.07891e-08
3.06411e-07
2.90259e-08
3.06639e-07
2.75334e-08
3.06834e-07
2.61875e-08
3.07004e-07
2.49777e-08
3.07156e-07
2.38963e-08
3.07292e-07
2.29229e-08
3.07415e-07
2.20385e-08
3.07527e-07
2.12299e-08
3.07629e-07
2.04875e-08
3.07723e-07
1.98037e-08
3.07809e-07
1.91726e-08
3.07887e-07
1.85892e-08
3.07959e-07
1.80494e-08
3.08025e-07
1.75497e-08
3.08084e-07
1.7087e-08
3.08137e-07
1.66587e-08
3.08184e-07
1.62624e-08
3.08224e-07
1.58961e-08
3.08258e-07
1.55582e-08
3.08285e-07
1.52477e-08
3.08305e-07
1.49638e-08
3.08319e-07
1.47064e-08
3.08324e-07
1.44755e-08
3.08322e-07
1.4272e-08
3.08312e-07
1.40965e-08
3.08294e-07
1.39512e-08
3.08266e-07
1.38374e-08
3.08229e-07
1.3759e-08
3.08182e-07
1.37175e-08
3.08124e-07
1.37189e-08
3.08055e-07
1.37648e-08
3.07974e-07
1.38614e-08
3.07881e-07
1.40108e-08
3.07772e-07
1.42121e-08
3.07648e-07
1.44709e-08
3.075e-07
1.47589e-08
3.07324e-07
1.50898e-08
3.07087e-07
1.53838e-08
3.0676e-07
1.56807e-08
3.06231e-07
1.59014e-08
3.05382e-07
1.63172e-08
1.73272e-08
3.03975e-07
3.07632e-07
2.69179e-08
3.10606e-07
4.99476e-08
3.11891e-07
4.51972e-08
3.12837e-07
3.88505e-08
3.13692e-07
3.69104e-08
3.14267e-07
3.51865e-08
3.14648e-07
3.27077e-08
3.14964e-07
3.04733e-08
3.15241e-07
2.8749e-08
3.15474e-07
2.72996e-08
3.15672e-07
2.59894e-08
3.15845e-07
2.48048e-08
3.15999e-07
2.37425e-08
3.16137e-07
2.27852e-08
3.16261e-07
2.19145e-08
3.16373e-07
2.11175e-08
3.16476e-07
2.03851e-08
3.16569e-07
1.97101e-08
3.16655e-07
1.9087e-08
3.16733e-07
1.85108e-08
3.16805e-07
1.79779e-08
3.1687e-07
1.74848e-08
3.16928e-07
1.70286e-08
3.1698e-07
1.66067e-08
3.17026e-07
1.62168e-08
3.17065e-07
1.5857e-08
3.17097e-07
1.55257e-08
3.17123e-07
1.52219e-08
3.17142e-07
1.49449e-08
3.17154e-07
1.46947e-08
3.17158e-07
1.44712e-08
3.17155e-07
1.42754e-08
3.17143e-07
1.4108e-08
3.17123e-07
1.39712e-08
3.17094e-07
1.38664e-08
3.17056e-07
1.37973e-08
3.17007e-07
1.37659e-08
3.16949e-07
1.37776e-08
3.16879e-07
1.38347e-08
3.16797e-07
1.39429e-08
3.16703e-07
1.41052e-08
3.16594e-07
1.43212e-08
3.16469e-07
1.45961e-08
3.16319e-07
1.49092e-08
3.16138e-07
1.52705e-08
3.15893e-07
1.56282e-08
3.15554e-07
1.60205e-08
3.15016e-07
1.6439e-08
3.14174e-07
1.71592e-08
1.86659e-08
3.12835e-07
3.16742e-07
2.43271e-08
3.19654e-07
4.70352e-08
3.2097e-07
4.38812e-08
3.21894e-07
3.79273e-08
3.2275e-07
3.60536e-08
3.23351e-07
3.45855e-08
3.23748e-07
3.23114e-08
3.24069e-07
3.01518e-08
3.24351e-07
2.84667e-08
3.24591e-07
2.70602e-08
3.24793e-07
2.57871e-08
3.24969e-07
2.4629e-08
3.25125e-07
2.35867e-08
3.25264e-07
2.26458e-08
3.25389e-07
2.17893e-08
3.25502e-07
2.10043e-08
3.25605e-07
2.02822e-08
3.25699e-07
1.96164e-08
3.25785e-07
1.90013e-08
3.25863e-07
1.84327e-08
3.25934e-07
1.79068e-08
3.25998e-07
1.74205e-08
3.26056e-07
1.69709e-08
3.26107e-07
1.65556e-08
3.26151e-07
1.61723e-08
3.26189e-07
1.58191e-08
3.2622e-07
1.54945e-08
3.26245e-07
1.51975e-08
3.26262e-07
1.49276e-08
3.26272e-07
1.46846e-08
3.26275e-07
1.44686e-08
3.2627e-07
1.42806e-08
3.26256e-07
1.41214e-08
3.26234e-07
1.39932e-08
3.26203e-07
1.38973e-08
3.26163e-07
1.38376e-08
3.26113e-07
1.38161e-08
3.26052e-07
1.38381e-08
3.25981e-07
1.39063e-08
3.25897e-07
1.40263e-08
3.25801e-07
1.42013e-08
3.2569e-07
1.44323e-08
3.25562e-07
1.47239e-08
3.25408e-07
1.5063e-08
3.25221e-07
1.54573e-08
3.24969e-07
1.58804e-08
3.24618e-07
1.63716e-08
3.24076e-07
1.69808e-08
3.2325e-07
1.79852e-08
1.99247e-08
3.21992e-07
3.26152e-07
2.19773e-08
3.28992e-07
4.41954e-08
3.30343e-07
4.25306e-08
3.31245e-07
3.7025e-08
3.32099e-07
3.52002e-08
3.32724e-07
3.396e-08
3.33137e-07
3.18983e-08
3.33465e-07
2.98241e-08
3.33753e-07
2.81791e-08
3.33998e-07
2.68151e-08
3.34205e-07
2.55803e-08
3.34383e-07
2.44502e-08
3.34541e-07
2.34285e-08
3.34683e-07
2.25048e-08
3.34809e-07
2.16627e-08
3.34923e-07
2.08902e-08
3.35027e-07
2.01788e-08
3.35121e-07
1.95223e-08
3.35207e-07
1.89156e-08
3.35285e-07
1.83547e-08
3.35355e-07
1.78361e-08
3.35419e-07
1.73567e-08
3.35476e-07
1.69139e-08
3.35526e-07
1.65053e-08
3.3557e-07
1.61287e-08
3.35607e-07
1.57823e-08
3.35637e-07
1.54645e-08
3.3566e-07
1.51746e-08
3.35675e-07
1.49118e-08
3.35684e-07
1.46761e-08
3.35685e-07