/*--------------------------------*- C++ -*----------------------------------*\
  =========                 |
  \\      /  F ield         | OpenFOAM: The Open Source CFD Toolbox
   \\    /   O peration     | Website:  https://openfoam.org
    \\  /    A nd           | Version:  7
     \\/     M anipulation  |
\*---------------------------------------------------------------------------*/
FoamFile
{
    version     2.0;
    format      ascii;
    class       volVectorField;
    location    "0.31";
    object      U;
}
// * * * * * * * * * * * * * * * * * * * * * * * * * * * * * * * * * * * * * //

dimensions      [0 1 -1 0 0 0 0];

internalField   nonuniform List<vector> 
70000
(
(0.553388 0.0167232 0)
(0.251244 0.00340131 0)
(0.166163 0.000322323 0)
(0.132392 5.45394e-05 0)
(0.117177 4.59726e-05 0)
(0.107229 5.41511e-05 0)
(0.099256 4.65235e-05 0)
(0.092791 3.71961e-05 0)
(0.0875208 3.08975e-05 0)
(0.0831248 2.65882e-05 0)
(0.0793745 2.33115e-05 0)
(0.0761216 2.06932e-05 0)
(0.0732643 1.85647e-05 0)
(0.0707287 1.68124e-05 0)
(0.0684584 1.53524e-05 0)
(0.0664098 1.41225e-05 0)
(0.0645489 1.30762e-05 0)
(0.0628481 1.21802e-05 0)
(0.0612854 1.14065e-05 0)
(0.0598424 1.07368e-05 0)
(0.0585039 1.01539e-05 0)
(0.0572573 9.64655e-06 0)
(0.0560917 9.20444e-06 0)
(0.0549976 8.82076e-06 0)
(0.0539671 8.48813e-06 0)
(0.052993 8.20439e-06 0)
(0.0520691 7.96258e-06 0)
(0.0511896 7.76443e-06 0)
(0.0503496 7.60302e-06 0)
(0.049544 7.48396e-06 0)
(0.0487689 7.39666e-06 0)
(0.0480195 7.35855e-06 0)
(0.0472925 7.33731e-06 0)
(0.046583 7.38517e-06 0)
(0.0458885 7.41485e-06 0)
(0.0452029 7.54716e-06 0)
(0.0445256 7.59387e-06 0)
(0.0438492 7.76802e-06 0)
(0.0431735 7.77055e-06 0)
(0.0424956 7.78669e-06 0)
(0.0418065 7.68414e-06 0)
(0.0411332 6.84283e-06 0)
(0.0404198 6.63939e-06 0)
(0.0398034 3.0661e-06 0)
(0.0390886 2.38226e-06 0)
(0.0386743 -7.08982e-06 0)
(0.0382006 -1.35899e-05 0)
(0.0380928 -3.02573e-05 0)
(0.0397899 -3.8429e-05 0)
(0.0352628 -0.00153371 0)
(0.884898 0.0431683 0)
(0.649689 0.0201961 0)
(0.494244 0.00660108 0)
(0.403531 0.00277059 0)
(0.354547 0.00155512 0)
(0.323184 0.00113484 0)
(0.299264 0.000913778 0)
(0.280006 0.000750041 0)
(0.264228 0.000627416 0)
(0.251039 0.000536945 0)
(0.239786 0.000468382 0)
(0.230028 0.00041454 0)
(0.221457 0.000371135 0)
(0.213851 0.000335498 0)
(0.207041 0.000305815 0)
(0.200897 0.000280788 0)
(0.195317 0.000259461 0)
(0.190218 0.000241124 0)
(0.185535 0.000225237 0)
(0.181213 0.000211383 0)
(0.177208 0.000199239 0)
(0.17348 0.000188551 0)
(0.169997 0.000179114 0)
(0.166733 0.000170768 0)
(0.163662 0.000163382 0)
(0.160764 0.000156858 0)
(0.158021 0.000151111 0)
(0.155416 0.000146085 0)
(0.152935 0.00014173 0)
(0.150562 0.000138024 0)
(0.148287 0.000134934 0)
(0.146097 0.000132495 0)
(0.143981 0.000130643 0)
(0.141926 0.000129525 0)
(0.139924 0.000128957 0)
(0.137959 0.000129312 0)
(0.136027 0.000130085 0)
(0.134107 0.000132101 0)
(0.132195 0.00013413 0)
(0.130278 0.000137709 0)
(0.128325 0.000140447 0)
(0.126395 0.000144082 0)
(0.124325 0.000145735 0)
(0.122446 0.000143001 0)
(0.120204 0.000138063 0)
(0.118592 0.000106658 0)
(0.116552 8.34251e-05 0)
(0.115125 -9.69022e-05 0)
(0.117349 7.57951e-05 0)
(0.10925 -0.00323065 0)
(0.991238 0.0499032 0)
(0.890327 0.0307235 0)
(0.762607 0.0146045 0)
(0.656521 0.00798733 0)
(0.585115 0.00489294 0)
(0.535627 0.00347957 0)
(0.497674 0.00274448 0)
(0.466967 0.00225266 0)
(0.441559 0.00189015 0)
(0.42015 0.00161934 0)
(0.401791 0.00141282 0)
(0.385814 0.00125058 0)
(0.371742 0.00111985 0)
(0.359226 0.00101249 0)
(0.347998 0.000922996 0)
(0.337853 0.000847472 0)
(0.328628 0.000783048 0)
(0.320191 0.000727591 0)
(0.312437 0.000679473 0)
(0.305276 0.000637446 0)
(0.298637 0.000600532 0)
(0.292457 0.000567962 0)
(0.286685 0.000539119 0)
(0.281275 0.000513516 0)
(0.276188 0.000490753 0)
(0.271392 0.000470522 0)
(0.266855 0.000452565 0)
(0.262552 0.000436697 0)
(0.258459 0.000422764 0)
(0.254553 0.000410673 0)
(0.250816 0.000400338 0)
(0.247228 0.00039179 0)
(0.243772 0.000384942 0)
(0.240428 0.00038003 0)
(0.237185 0.000376819 0)
(0.234018 0.00037599 0)
(0.230919 0.000376734 0)
(0.227858 0.000380776 0)
(0.224827 0.000385618 0)
(0.221806 0.000395307 0)
(0.218745 0.000403438 0)
(0.215722 0.000417759 0)
(0.212496 0.000425563 0)
(0.209514 0.000434603 0)
(0.205988 0.000432016 0)
(0.203224 0.000386636 0)
(0.199797 0.000369343 0)
(0.19687 -3.42423e-05 0)
(0.198199 0.00021933 0)
(0.189962 -0.0040078 0)
(1.0156 0.0489227 0)
(1.00595 0.0358821 0)
(0.935891 0.020803 0)
(0.851986 0.0135178 0)
(0.781955 0.00922225 0)
(0.726659 0.00679629 0)
(0.681476 0.00539923 0)
(0.643615 0.00446093 0)
(0.611487 0.00376835 0)
(0.583902 0.00324398 0)
(0.559923 0.00283941 0)
(0.538839 0.00251941 0)
(0.520122 0.00226042 0)
(0.503367 0.00204694 0)
(0.488258 0.00186842 0)
(0.474548 0.00171734 0)
(0.462035 0.00158812 0)
(0.450557 0.00147662 0)
(0.43998 0.00137966 0)
(0.430192 0.00129477 0)
(0.4211 0.00122004 0)
(0.412625 0.00115394 0)
(0.404699 0.00109524 0)
(0.397263 0.00104298 0)
(0.390268 0.00099634 0)
(0.383669 0.000954708 0)
(0.377427 0.00091756 0)
(0.371506 0.000884503 0)
(0.365877 0.000855223 0)
(0.360509 0.000829496 0)
(0.355379 0.000807159 0)
(0.35046 0.000788184 0)
(0.345733 0.000772477 0)
(0.34117 0.000760304 0)
(0.336758 0.000751446 0)
(0.332464 0.000746831 0)
(0.328282 0.000745442 0)
(0.324171 0.00074997 0)
(0.320124 0.000756538 0)
(0.316112 0.000772375 0)
(0.31208 0.000785973 0)
(0.308106 0.000813618 0)
(0.303923 0.000829096 0)
(0.300001 0.000856111 0)
(0.295495 0.0008615 0)
(0.291721 0.000806088 0)
(0.287307 0.000818446 0)
(0.283146 0.000182646 0)
(0.282988 0.000401644 0)
(0.275939 -0.00425973 0)
(1.01434 0.0460064 0)
(1.04752 0.0374974 0)
(1.02454 0.0241668 0)
(0.97465 0.0175784 0)
(0.92325 0.0131435 0)
(0.876378 0.0102284 0)
(0.834108 0.00836574 0)
(0.796249 0.00704579 0)
(0.76257 0.00603749 0)
(0.732632 0.00525194 0)
(0.70592 0.00463231 0)
(0.681961 0.00413437 0)
(0.660355 0.00372658 0)
(0.640768 0.00338736 0)
(0.622923 0.00310154 0)
(0.606589 0.00285809 0)
(0.591574 0.00264875 0)
(0.577716 0.00246725 0)
(0.564878 0.00230874 0)
(0.552945 0.00216945 0)
(0.541816 0.00204637 0)
(0.531406 0.00193712 0)
(0.521643 0.00183978 0)
(0.51246 0.00175279 0)
(0.503802 0.00167489 0)
(0.49562 0.00160505 0)
(0.487868 0.00154245 0)
(0.480507 0.00148643 0)
(0.473502 0.00143646 0)
(0.46682 0.00139217 0)
(0.460431 0.00135328 0)
(0.454307 0.00131965 0)
(0.448424 0.00129121 0)
(0.442752 0.00126817 0)
(0.437274 0.00125039 0)
(0.431956 0.00123898 0)
(0.426789 0.00123276 0)
(0.421727 0.00123539 0)
(0.416766 0.00124162 0)
(0.411866 0.00126201 0)
(0.406981 0.00127988 0)
(0.402168 0.00132026 0)
(0.397185 0.001344 0)
(0.39244 0.00138887 0)
(0.387195 0.0014082 0)
(0.382536 0.00134046 0)
(0.377434 0.00139059 0)
(0.372403 0.000569953 0)
(0.370635 0.000604801 0)
(0.364738 -0.00430812 0)
(1.00933 0.042918 0)
(1.05527 0.0372738 0)
(1.05866 0.0253139 0)
(1.03629 0.0197828 0)
(1.00695 0.0158389 0)
(0.975805 0.0129656 0)
(0.944174 0.0109912 0)
(0.913192 0.00951087 0)
(0.883716 0.0083226 0)
(0.856129 0.00735745 0)
(0.83051 0.00657063 0)
(0.806794 0.00592201 0)
(0.784858 0.00538012 0)
(0.764557 0.00492204 0)
(0.745744 0.00453095 0)
(0.728276 0.00419415 0)
(0.712024 0.00390184 0)
(0.696868 0.00364636 0)
(0.682701 0.00342169 0)
(0.66943 0.00322303 0)
(0.65697 0.00304652 0)
(0.645246 0.00288904 0)
(0.634192 0.00274806 0)
(0.623747 0.0026215 0)
(0.613858 0.00250764 0)
(0.604479 0.0024051 0)
(0.595565 0.00231275 0)
(0.587077 0.00222966 0)
(0.578979 0.00215513 0)
(0.571239 0.00208857 0)
(0.563827 0.00202963 0)
(0.556713 0.00197805 0)
(0.549872 0.00193374 0)
(0.543273 0.00189688 0)
(0.536901 0.0018674 0)
(0.530716 0.00184655 0)
(0.524711 0.00183307 0)
(0.518839 0.00183147 0)
(0.513097 0.00183536 0)
(0.507437 0.00185814 0)
(0.501828 0.00187908 0)
(0.496292 0.00192979 0)
(0.490652 0.00196259 0)
(0.485193 0.00202143 0)
(0.479381 0.00205967 0)
(0.473974 0.00197707 0)
(0.468325 0.00205599 0)
(0.462736 0.00110948 0)
(0.459472 0.000865013 0)
(0.454237 -0.00422814 0)
(1.00625 0.0400368 0)
(1.05205 0.0363473 0)
(1.06606 0.0252451 0)
(1.05954 0.0205862 0)
(1.04675 0.017271 0)
(1.0306 0.0146922 0)
(1.01161 0.0128588 0)
(0.990814 0.0114364 0)
(0.969285 0.0102425 0)
(0.947753 0.00923014 0)
(0.926661 0.00837381 0)
(0.906271 0.00764576 0)
(0.886729 0.0070215 0)
(0.868101 0.00648211 0)
(0.850406 0.00601299 0)
(0.833629 0.00560258 0)
(0.817737 0.00524154 0)
(0.802687 0.0049223 0)
(0.78843 0.00463869 0)
(0.774917 0.00438565 0)
(0.762097 0.00415903 0)
(0.749925 0.00395539 0)
(0.738354 0.00377188 0)
(0.727341 0.00360613 0)
(0.716848 0.00345618 0)
(0.706836 0.00332039 0)
(0.697271 0.00319743 0)
(0.688121 0.0030862 0)
(0.679355 0.00298585 0)
(0.670945 0.00289566 0)
(0.662865 0.00281522 0)
(0.655086 0.00274419 0)
(0.647587 0.00268249 0)
(0.64034 0.00263028 0)
(0.633328 0.00258759 0)
(0.626515 0.00255578 0)
(0.619895 0.00253361 0)
(0.61342 0.00252621 0)
(0.607091 0.00252656 0)
(0.600852 0.00254993 0)
(0.594694 0.00257342 0)
(0.588598 0.0026318 0)
(0.582462 0.00267485 0)
(0.576444 0.00274349 0)
(0.570205 0.00280297 0)
(0.564238 0.00270765 0)
(0.55812 0.00279677 0)
(0.552208 0.00177794 0)
(0.547651 0.00120993 0)
(0.542686 -0.00396974 0)
(1.00495 0.0373592 0)
(1.04726 0.035266 0)
(1.06395 0.0247068 0)
(1.0642 0.0206153 0)
(1.06058 0.017813 0)
(1.05458 0.0155406 0)
(1.04575 0.0139233 0)
(1.03447 0.0126669 0)
(1.02145 0.011585 0)
(1.0073 0.0106367 0)
(0.992485 0.00980894 0)
(0.977356 0.00908446 0)
(0.962178 0.00844652 0)
(0.947142 0.00788194 0)
(0.932384 0.00738032 0)
(0.917993 0.00693313 0)
(0.904028 0.00653313 0)
(0.890521 0.00617422 0)
(0.877487 0.00585119 0)
(0.864931 0.00555964 0)
(0.852848 0.00529581 0)
(0.841225 0.00505651 0)
(0.83005 0.00483904 0)
(0.819304 0.0046411 0)
(0.808968 0.00446073 0)
(0.799024 0.00429632 0)
(0.789452 0.0041465 0)
(0.780231 0.00401015 0)
(0.771341 0.0038864 0)
(0.762764 0.00377451 0)
(0.754479 0.0036741 0)
(0.746467 0.00358476 0)
(0.73871 0.00350656 0)
(0.731185 0.00343963 0)
(0.72388 0.00338415 0)
(0.716762 0.00334162 0)
(0.709829 0.00331091 0)
(0.703033 0.00329756 0)
(0.696382 0.00329451 0)
(0.689816 0.00331773 0)
(0.683343 0.00334426 0)
(0.676914 0.00340862 0)
(0.670487 0.00346315 0)
(0.66413 0.00353959 0)
(0.657627 0.00361959 0)
(0.651341 0.00351876 0)
(0.64487 0.00359793 0)
(0.638823 0.00255221 0)
(0.633245 0.00165339 0)
(0.628183 -0.00350845 0)
(1.0044 0.0348115 0)
(1.04323 0.0341937 0)
(1.05991 0.0240673 0)
(1.06223 0.0203239 0)
(1.06241 0.0178804 0)
(1.06166 0.0158266 0)
(1.05902 0.014384 0)
(1.0544 0.0132941 0)
(1.04809 0.0123557 0)
(1.04042 0.0115205 0)
(1.03166 0.0107782 0)
(1.02207 0.0101156 0)
(1.01189 0.00951995 0)
(1.0013 0.00898174 0)
(0.990477 0.00849396 0)
(0.979539 0.00805092 0)
(0.968591 0.00764776 0)
(0.957713 0.00728027 0)
(0.946963 0.00694474 0)
(0.936386 0.00663792 0)
(0.926014 0.00635696 0)
(0.915868 0.00609935 0)
(0.905963 0.00586292 0)
(0.896307 0.00564576 0)
(0.886904 0.00544623 0)
(0.877754 0.00526294 0)
(0.868854 0.00509474 0)
(0.860199 0.00494062 0)
(0.851784 0.00479989 0)
(0.843599 0.00467188 0)
(0.835636 0.00455634 0)
(0.827882 0.00445295 0)
(0.82033 0.00436193 0)
(0.812963 0.00428349 0)
(0.805773 0.00421803 0)
(0.798736 0.00416716 0)
(0.791852 0.00413007 0)
(0.78508 0.00411241 0)
(0.778432 0.00410766 0)
(0.771848 0.00413161 0)
(0.765348 0.0041627 0)
(0.758874 0.00423313 0)
(0.752408 0.00430027 0)
(0.745989 0.00438529 0)
(0.739437 0.00448338 0)
(0.733095 0.00438706 0)
(0.726483 0.00444019 0)
(0.72044 0.00340256 0)
(0.714273 0.00221277 0)
(0.708637 -0.00288334 0)
(1.00402 0.0323717 0)
(1.0399 0.0331446 0)
(1.05614 0.0234458 0)
(1.05887 0.0199381 0)
(1.06013 0.0177533 0)
(1.06144 0.0158351 0)
(1.06175 0.0144946 0)
(1.06079 0.0135208 0)
(1.05865 0.0126994 0)
(1.05544 0.0119711 0)
(1.05125 0.0113228 0)
(1.04619 0.0107411 0)
(1.0404 0.0102134 0)
(1.03399 0.00973063 0)
(1.02708 0.00928712 0)
(1.01979 0.00887853 0)
(1.01221 0.0085014 0)
(1.00441 0.00815285 0)
(0.996478 0.00783039 0)
(0.988464 0.00753182 0)
(0.980417 0.0072552 0)
(0.972378 0.00699879 0)
(0.964376 0.00676105 0)
(0.956439 0.00654062 0)
(0.948587 0.00633632 0)
(0.940834 0.00614713 0)
(0.933192 0.00597221 0)
(0.925669 0.00581086 0)
(0.918272 0.00566262 0)
(0.911002 0.00552702 0)
(0.90386 0.00540405 0)
(0.896845 0.00529353 0)
(0.889956 0.00519593 0)
(0.883183 0.00511159 0)
(0.876527 0.0050412 0)
(0.869969 0.0049865 0)
(0.863515 0.00494709 0)
(0.857131 0.00492867 0)
(0.850833 0.00492549 0)
(0.844568 0.00495276 0)
(0.838357 0.00499093 0)
(0.832151 0.00506935 0)
(0.825934 0.00515045 0)
(0.819748 0.00524675 0)
(0.813416 0.00536103 0)
(0.807279 0.00527833 0)
(0.800824 0.00529987 0)
(0.794886 0.00428689 0)
(0.788645 0.00289621 0)
(0.782179 -0.00212152 0)
(1.00364 0.0300317 0)
(1.03691 0.032098 0)
(1.05279 0.0228576 0)
(1.05563 0.0195352 0)
(1.05704 0.0175644 0)
(1.05889 0.015739 0)
(1.06028 0.0144468 0)
(1.06091 0.0135369 0)
(1.06085 0.01279 0)
(1.06012 0.0121369 0)
(1.05872 0.0115618 0)
(1.05667 0.01105 0)
(1.05401 0.0105874 0)
(1.05078 0.010164 0)
(1.04705 0.00977358 0)
(1.04286 0.00941166 0)
(1.03829 0.00907507 0)
(1.03338 0.00876133 0)
(1.0282 0.00846844 0)
(1.0228 0.00819475 0)
(1.01721 0.00793886 0)
(1.01147 0.00769955 0)
(1.00563 0.00747576 0)
(0.999706 0.00726655 0)
(0.99373 0.00707116 0)
(0.987723 0.00688891 0)
(0.981703 0.00671931 0)
(0.975687 0.00656192 0)
(0.969686 0.00641659 0)
(0.963711 0.00628308 0)
(0.957769 0.00616163 0)
(0.951867 0.00605229 0)
(0.946008 0.00595574 0)
(0.940192 0.00587256 0)
(0.934423 0.00580371 0)
(0.928691 0.00575114 0)
(0.923003 0.00571481 0)
(0.917337 0.00570053 0)
(0.911705 0.00570333 0)
(0.906071 0.00573786 0)
(0.900449 0.00578649 0)
(0.894807 0.00587599 0)
(0.889122 0.00597322 0)
(0.883446 0.00608389 0)
(0.877616 0.00621481 0)
(0.87192 0.00615116 0)
(0.86594 0.0061479 0)
(0.86024 0.00516309 0)
(0.85429 0.00367309 0)
(0.847256 -0.00120365 0)
(1.00327 0.0277923 0)
(1.03408 0.0310403 0)
(1.04968 0.022296 0)
(1.05267 0.0191304 0)
(1.05404 0.0173567 0)
(1.05595 0.0156137 0)
(1.05761 0.0143443 0)
(1.05877 0.0134654 0)
(1.05952 0.01276 0)
(1.0599 0.012151 0)
(1.0599 0.0116217 0)
(1.0595 0.0111573 0)
(1.05869 0.0107425 0)
(1.05748 0.0103663 0)
(1.05588 0.0100213 0)
(1.05391 0.00970256 0)
(1.05159 0.00940641 0)
(1.04895 0.0091301 0)
(1.04601 0.00887156 0)
(1.04282 0.00862916 0)
(1.03939 0.00840161 0)
(1.03576 0.00818783 0)
(1.03194 0.00798697 0)
(1.02797 0.00779829 0)
(1.02386 0.00762123 0)
(1.01964 0.00745532 0)
(1.01532 0.0073003 0)
(1.01092 0.00715594 0)
(1.00646 0.00702229 0)
(1.00195 0.00689933 0)
(0.997388 0.00678751 0)
(0.992796 0.00668707 0)
(0.988177 0.00659893 0)
(0.983536 0.00652387 0)
(0.978878 0.00646308 0)
(0.9742 0.00641877 0)
(0.969509 0.0063912 0)
(0.964793 0.00638633 0)
(0.960061 0.00639987 0)
(0.95529 0.00644599 0)
(0.950488 0.00650886 0)
(0.94564 0.00661276 0)
(0.94072 0.00672899 0)
(0.935773 0.00685659 0)
(0.930681 0.0070066 0)
(0.925631 0.00696489 0)
(0.920363 0.00694912 0)
(0.915105 0.00599971 0)
(0.909595 0.00448842 0)
(0.90252 -8.09292e-05 0)
(1.00292 0.0256568 0)
(1.03137 0.0299668 0)
(1.04668 0.0217566 0)
(1.04988 0.0187235 0)
(1.05122 0.0171371 0)
(1.0531 0.0154814 0)
(1.05479 0.0142283 0)
(1.05606 0.0133657 0)
(1.05705 0.012684 0)
(1.05782 0.0120996 0)
(1.05839 0.0115955 0)
(1.05873 0.0111583 0)
(1.05884 0.0107728 0)
(1.0587 0.0104273 0)
(1.05831 0.0101138 0)
(1.05767 0.00982688 0)
(1.05678 0.00956229 0)
(1.05564 0.00931694 0)
(1.05427 0.00908842 0)
(1.05268 0.00887489 0)
(1.05088 0.00867492 0)
(1.04888 0.00848733 0)
(1.04669 0.00831122 0)
(1.04433 0.00814586 0)
(1.04182 0.00799068 0)
(1.03916 0.0078453 0)
(1.03636 0.00770949 0)
(1.03345 0.00758313 0)
(1.03044 0.00746637 0)
(1.02732 0.00735932 0)
(1.02412 0.00726253 0)
(1.02083 0.00717643 0)
(1.01747 0.00710205 0)
(1.01405 0.00704039 0)
(1.01056 0.00699277 0)
(1.00701 0.00696165 0)
(1.0034 0.00694752 0)
(0.999736 0.00695648 0)
(0.996012 0.00698482 0)
(0.992219 0.00704625 0)
(0.988362 0.00712673 0)
(0.984432 0.00724772 0)
(0.980413 0.00738565 0)
(0.976328 0.00753213 0)
(0.972116 0.0077037 0)
(0.967854 0.00768695 0)
(0.963426 0.00766935 0)
(0.958802 0.00677348 0)
(0.953798 0.00529814 0)
(0.947054 0.00117408 0)
(1.0026 0.0236281 0)
(1.02879 0.0288765 0)
(1.04376 0.0212381 0)
(1.04719 0.0183147 0)
(1.04854 0.0169041 0)
(1.05037 0.0153447 0)
(1.05206 0.0141098 0)
(1.05334 0.0132588 0)
(1.05436 0.0125941 0)
(1.05523 0.0120255 0)
(1.05597 0.0115357 0)
(1.05658 0.0111133 0)
(1.05706 0.010744 0)
(1.05739 0.010416 0)
(1.05758 0.0101214 0)
(1.05761 0.00985429 0)
(1.0575 0.00961041 0)
(1.05722 0.00938635 0)
(1.05679 0.00917948 0)
(1.0562 0.00898777 0)
(1.05545 0.00880958 0)
(1.05455 0.0086436 0)
(1.05349 0.00848878 0)
(1.0523 0.00834428 0)
(1.05096 0.00820948 0)
(1.04949 0.00808391 0)
(1.04789 0.00796733 0)
(1.04617 0.0078596 0)
(1.04433 0.00776088 0)
(1.04238 0.00767133 0)
(1.04034 0.00759153 0)
(1.03819 0.00752202 0)
(1.03595 0.00746385 0)
(1.03362 0.00741822 0)
(1.03121 0.00738648 0)
(1.02871 0.00737132 0)
(1.02613 0.00737334 0)
(1.02347 0.00739878 0)
(1.02073 0.00744445 0)
(1.0179 0.00752338 0)
(1.01499 0.00762361 0)
(1.01199 0.00776322 0)
(1.00889 0.00792437 0)
(1.00569 0.00809105 0)
(1.00239 0.00828523 0)
(0.998967 0.00829718 0)
(0.995398 0.0082859 0)
(0.991504 0.00746621 0)
(0.987059 0.00607429 0)
(0.980773 0.0024513 0)
(1.0023 0.0217078 0)
(1.02633 0.02777 0)
(1.04093 0.020739 0)
(1.04458 0.0179054 0)
(1.04595 0.0166564 0)
(1.04776 0.0152021 0)
(1.04944 0.01399 0)
(1.05072 0.0131498 0)
(1.05173 0.0125005 0)
(1.0526 0.0119449 0)
(1.05337 0.0114652 0)
(1.05405 0.0110519 0)
(1.05464 0.0106919 0)
(1.05514 0.0103738 0)
(1.05555 0.0100897 0)
(1.05588 0.00983395 0)
(1.05611 0.00960216 0)
(1.05625 0.00939097 0)
(1.0563 0.0091977 0)
(1.05624 0.0090202 0)
(1.05609 0.00885678 0)
(1.05583 0.00870601 0)
(1.05546 0.00856677 0)
(1.05499 0.00843811 0)
(1.05442 0.00831932 0)
(1.05374 0.00820986 0)
(1.05295 0.00810941 0)
(1.05207 0.0080178 0)
(1.05108 0.00793514 0)
(1.05 0.0078616 0)
(1.04882 0.00779774 0)
(1.04755 0.00774416 0)
(1.04619 0.00770189 0)
(1.04474 0.00767226 0)
(1.0432 0.00765659 0)
(1.04157 0.00765777 0)
(1.03986 0.00767645 0)
(1.03805 0.00771891 0)
(1.03616 0.00778249 0)
(1.03418 0.00787932 0)
(1.0321 0.00799973 0)
(1.02993 0.00815805 0)
(1.02767 0.0083423 0)
(1.02529 0.00852965 0)
(1.02282 0.00874597 0)
(1.02019 0.00878993 0)
(1.01742 0.0087925 0)
(1.01423 0.0080683 0)
(1.01036 0.00680425 0)
(1.00454 0.00373064 0)
(1.00203 0.0198968 0)
(1.02401 0.0266506 0)
(1.03819 0.0202561 0)
(1.04206 0.0174974 0)
(1.04346 0.016394 0)
(1.04523 0.0150523 0)
(1.04692 0.0138683 0)
(1.04819 0.013039 0)
(1.04919 0.0124049 0)
(1.05005 0.0118624 0)
(1.05081 0.0113918 0)
(1.05149 0.0109858 0)
(1.0521 0.0106324 0)
(1.05264 0.0103207 0)
(1.05312 0.010043 0)
(1.05354 0.00979379 0)
(1.05391 0.00956893 0)
(1.05422 0.00936511 0)
(1.05447 0.00917974 0)
(1.05466 0.0090107 0)
(1.05479 0.00885631 0)
(1.05485 0.00871516 0)
(1.05485 0.00858607 0)
(1.05477 0.00846809 0)
(1.05463 0.00836044 0)
(1.05441 0.00826254 0)
(1.05412 0.00817404 0)
(1.05375 0.0080947 0)
(1.05331 0.00802463 0)
(1.05279 0.00796396 0)
(1.05219 0.00791325 0)
(1.05152 0.00787311 0)
(1.05077 0.00784456 0)
(1.04994 0.00782903 0)
(1.04903 0.00782777 0)
(1.04804 0.00784382 0)
(1.04697 0.00787787 0)
(1.04582 0.00793612 0)
(1.04459 0.00801653 0)
(1.04327 0.00813007 0)
(1.04186 0.00826951 0)
(1.04036 0.00844541 0)
(1.03877 0.00865111 0)
(1.03708 0.00885866 0)
(1.03529 0.00909565 0)
(1.03333 0.00917377 0)
(1.03122 0.00919793 0)
(1.02863 0.00858368 0)
(1.02529 0.00748887 0)
(1.01991 0.00498827 0)
(1.00179 0.0181953 0)
(1.02182 0.0255219 0)
(1.03556 0.0197857 0)
(1.03962 0.0170926 0)
(1.04105 0.0161179 0)
(1.04279 0.0148942 0)
(1.04447 0.0137443 0)
(1.04575 0.0129263 0)
(1.04674 0.0123075 0)
(1.04758 0.0117787 0)
(1.04833 0.0113174 0)
(1.049 0.0109183 0)
(1.0496 0.0105708 0)
(1.05014 0.0102644 0)
(1.05063 0.00999147 0)
(1.05107 0.0097468 0)
(1.05147 0.0095264 0)
(1.05183 0.00932714 0)
(1.05216 0.00914651 0)
(1.05244 0.00898252 0)
(1.05268 0.00883353 0)
(1.05288 0.00869821 0)
(1.05304 0.00857541 0)
(1.05316 0.00846419 0)
(1.05322 0.00836378 0)
(1.05324 0.0082736 0)
(1.05321 0.00819327 0)
(1.05312 0.00812257 0)
(1.05298 0.00806156 0)
(1.05279 0.00801042 0)
(1.05253 0.00796966 0)
(1.05222 0.00793997 0)
(1.05184 0.00792229 0)
(1.05141 0.00791817 0)
(1.05091 0.0079288 0)
(1.05034 0.00795733 0)
(1.0497 0.0080045 0)
(1.049 0.00807634 0)
(1.04822 0.00817147 0)
(1.04737 0.00829964 0)
(1.04644 0.00845592 0)
(1.04542 0.00864749 0)
(1.04433 0.00887211 0)
(1.04314 0.00909872 0)
(1.04187 0.00935454 0)
(1.04042 0.00946808 0)
(1.0388 0.00952141 0)
(1.03666 0.00902832 0)
(1.03374 0.00813488 0)
(1.02876 0.00621101 0)
(1.00157 0.016603 0)
(1.01978 0.0243881 0)
(1.03302 0.0193237 0)
(1.03727 0.0166928 0)
(1.03874 0.0158291 0)
(1.04044 0.0147272 0)
(1.04212 0.0136176 0)
(1.0434 0.0128115 0)
(1.04438 0.0122079 0)
(1.04521 0.0116934 0)
(1.04595 0.0112421 0)
(1.04661 0.0108502 0)
(1.04719 0.0105086 0)
(1.04772 0.0102072 0)
(1.0482 0.00993867 0)
(1.04864 0.0096979 0)
(1.04904 0.00948108 0)
(1.04941 0.00928522 0)
(1.04974 0.00910793 0)
(1.05005 0.00894734 0)
(1.05033 0.00880191 0)
(1.05058 0.00867036 0)
(1.05079 0.00855163 0)
(1.05098 0.00844481 0)
(1.05113 0.00834917 0)
(1.05125 0.00826413 0)
(1.05134 0.00818934 0)
(1.05138 0.0081246 0)
(1.05139 0.00806998 0)
(1.05136 0.00802568 0)
(1.05128 0.00799221 0)
(1.05116 0.00797033 0)
(1.05099 0.00796095 0)
(1.05078 0.00796571 0)
(1.05051 0.00798578 0)
(1.05019 0.00802435 0)
(1.04981 0.00808227 0)
(1.04938 0.00816533 0)
(1.04888 0.00827286 0)
(1.04833 0.00841336 0)
(1.0477 0.00858401 0)
(1.04701 0.00878921 0)
(1.04625 0.00903002 0)
(1.04539 0.00927438 0)
(1.04446 0.00954747 0)
(1.04336 0.00969734 0)
(1.04207 0.00978707 0)
(1.04025 0.00942404 0)
(1.03761 0.00875385 0)
(1.03297 0.00739686 0)
(1.00137 0.0151189 0)
(1.01787 0.023253 0)
(1.03059 0.0188661 0)
(1.03501 0.0162993 0)
(1.03652 0.0155291 0)
(1.03818 0.0145508 0)
(1.03985 0.0134879 0)
(1.04113 0.0126947 0)
(1.04211 0.0121061 0)
(1.04293 0.0116066 0)
(1.04366 0.0111658 0)
(1.0443 0.0107814 0)
(1.04488 0.0104458 0)
(1.04539 0.0101496 0)
(1.04586 0.00988552 0)
(1.04629 0.00964856 0)
(1.04668 0.00943511 0)
(1.04704 0.00924231 0)
(1.04737 0.00906791 0)
(1.04768 0.00891011 0)
(1.04796 0.00876748 0)
(1.04821 0.00863882 0)
(1.04845 0.00852312 0)
(1.04865 0.00841953 0)
(1.04883 0.00832735 0)
(1.04899 0.00824606 0)
(1.04911 0.00817531 0)
(1.04921 0.00811494 0)
(1.04928 0.00806503 0)
(1.04931 0.00802585 0)
(1.04932 0.0079979 0)
(1.04928 0.007982 0)
(1.04921 0.00797907 0)
(1.04911 0.00799081 0)
(1.04896 0.00801841 0)
(1.04876 0.00806509 0)
(1.04853 0.00813184 0)
(1.04824 0.00822415 0)
(1.0479 0.00834207 0)
(1.04751 0.00849295 0)
(1.04707 0.00867578 0)
(1.04656 0.00889289 0)
(1.046 0.00914757 0)
(1.04535 0.00940868 0)
(1.04462 0.00969816 0)
(1.04372 0.00988545 0)
(1.04263 0.0100186 0)
(1.041 0.00979247 0)
(1.03854 0.00935898 0)
(1.03418 0.00854788 0)
(1.00119 0.0137415 0)
(1.0161 0.0221209 0)
(1.02827 0.0184094 0)
(1.03283 0.0159135 0)
(1.0344 0.0152196 0)
(1.03602 0.0143643 0)
(1.03767 0.0133548 0)
(1.03896 0.0125759 0)
(1.03993 0.012002 0)
(1.04074 0.0115179 0)
(1.04146 0.0110884 0)
(1.04209 0.0107118 0)
(1.04265 0.0103825 0)
(1.04316 0.0100917 0)
(1.04362 0.00983215 0)
(1.04403 0.0095991 0)
(1.04441 0.00938905 0)
(1.04476 0.0091993 0)
(1.04509 0.00902769 0)
(1.04538 0.00887254 0)
(1.04566 0.00873249 0)
(1.04591 0.00860641 0)
(1.04613 0.00849337 0)
(1.04634 0.00839256 0)
(1.04652 0.00830332 0)
(1.04668 0.00822515 0)
(1.04682 0.00815774 0)
(1.04693 0.00810097 0)
(1.04701 0.00805493 0)
(1.04707 0.00801994 0)
(1.0471 0.00799651 0)
(1.0471 0.00798556 0)
(1.04707 0.00798797 0)
(1.04701 0.00800555 0)
(1.04691 0.00803949 0)
(1.04678 0.00809301 0)
(1.0466 0.0081673 0)
(1.04639 0.00826752 0)
(1.04613 0.00839438 0)
(1.04583 0.00855431 0)
(1.04547 0.0087477 0)
(1.04507 0.00897558 0)
(1.04461 0.0092425 0)
(1.04407 0.00951989 0)
(1.04345 0.00982579 0)
(1.04266 0.0100519 0)
(1.04167 0.0102351 0)
(1.04013 0.0101507 0)
(1.03778 0.00995987 0)
(1.03366 0.00966417 0)
(1.00104 0.0124685 0)
(1.01446 0.0209959 0)
(1.02606 0.01795 0)
(1.03074 0.0155361 0)
(1.03237 0.0149026 0)
(1.03395 0.0141674 0)
(1.03558 0.0132176 0)
(1.03687 0.0124553 0)
(1.03785 0.0118957 0)
(1.03865 0.0114274 0)
(1.03935 0.0110097 0)
(1.03997 0.0106414 0)
(1.04053 0.0103186 0)
(1.04102 0.0100334 0)
(1.04147 0.00977853 0)
(1.04187 0.00954951 0)
(1.04224 0.00934297 0)
(1.04258 0.00915634 0)
(1.04289 0.00898758 0)
(1.04318 0.0088351 0)
(1.04344 0.00869762 0)
(1.04369 0.0085741 0)
(1.04391 0.00846364 0)
(1.0441 0.00836549 0)
(1.04428 0.00827903 0)
(1.04444 0.00820379 0)
(1.04457 0.00813947 0)
(1.04468 0.008086 0)
(1.04476 0.00804349 0)
(1.04482 0.0080123 0)
(1.04486 0.00799297 0)
(1.04487 0.00798646 0)
(1.04485 0.0079937 0)
(1.0448 0.00801651 0)
(1.04472 0.00805617 0)
(1.04461 0.00811583 0)
(1.04446 0.00819692 0)
(1.04427 0.00830429 0)
(1.04405 0.00843924 0)
(1.04378 0.00860746 0)
(1.04347 0.00881041 0)
(1.04311 0.00904851 0)
(1.0427 0.00932681 0)
(1.04221 0.00962053 0)
(1.04165 0.0099438 0)
(1.04091 0.0102106 0)
(1.03995 0.0104501 0)
(1.03847 0.0105103 0)
(1.03619 0.0105626 0)
(1.03228 0.0107455 0)
(1.0009 0.011297 0)
(1.01295 0.0198825 0)
(1.02396 0.0174848 0)
(1.02873 0.0151676 0)
(1.03043 0.0145802 0)
(1.03197 0.0139597 0)
(1.03358 0.0130758 0)
(1.03488 0.0123326 0)
(1.03585 0.0117871 0)
(1.03664 0.0113347 0)
(1.03734 0.0109297 0)
(1.03795 0.0105701 0)
(1.03849 0.0102541 0)
(1.03898 0.00997451 0)
(1.03941 0.00972459 0)
(1.03981 0.00949975 0)
(1.04017 0.00929685 0)
(1.0405 0.00911344 0)
(1.0408 0.00894761 0)
(1.04108 0.00879787 0)
(1.04133 0.00866303 0)
(1.04156 0.00854211 0)
(1.04177 0.00843427 0)
(1.04196 0.00833881 0)
(1.04213 0.00825513 0)
(1.04228 0.00818279 0)
(1.0424 0.00812154 0)
(1.04251 0.00807131 0)
(1.04259 0.00803224 0)
(1.04264 0.00800475 0)
(1.04268 0.00798938 0)
(1.04268 0.00798715 0)
(1.04266 0.00799901 0)
(1.04262 0.00802682 0)
(1.04254 0.00807193 0)
(1.04243 0.00813744 0)
(1.04229 0.00822498 0)
(1.04211 0.00833915 0)
(1.0419 0.00848174 0)
(1.04165 0.0086579 0)
(1.04136 0.0088699 0)
(1.04101 0.00911807 0)
(1.04062 0.0094075 0)
(1.04016 0.00971797 0)
(1.03961 0.0100602 0)
(1.0389 0.0103696 0)
(1.03794 0.0106712 0)
(1.03648 0.0108768 0)
(1.03426 0.0111683 0)
(1.03056 0.0117901 0)
(1.00078 0.0102235 0)
(1.01156 0.018785 0)
(1.02197 0.0170112 0)
(1.02682 0.014808 0)
(1.02858 0.0142544 0)
(1.03008 0.0137414 0)
(1.03167 0.0129288 0)
(1.03297 0.012208 0)
(1.03394 0.0116763 0)
(1.03473 0.01124 0)
(1.03541 0.0108481 0)
(1.03602 0.0104977 0)
(1.03655 0.0101887 0)
(1.03703 0.00991509 0)
(1.03745 0.00967025 0)
(1.03784 0.00944976 0)
(1.03819 0.00925061 0)
(1.03851 0.00907054 0)
(1.0388 0.00890774 0)
(1.03907 0.00876083 0)
(1.03932 0.00862871 0)
(1.03954 0.00851046 0)
(1.03974 0.00840532 0)
(1.03992 0.0083126 0)
(1.04008 0.00823176 0)
(1.04022 0.00816239 0)
(1.04034 0.00810425 0)
(1.04043 0.00805729 0)
(1.04051 0.0080217 0)
(1.04056 0.00799791 0)
(1.04058 0.0079865 0)
(1.04059 0.00798854 0)
(1.04056 0.00800499 0)
(1.04051 0.00803776 0)
(1.04043 0.00808825 0)
(1.04032 0.00815951 0)
(1.04018 0.00825339 0)
(1.04001 0.00837423 0)
(1.0398 0.00852427 0)
(1.03955 0.00870829 0)
(1.03926 0.00892912 0)
(1.03893 0.00918749 0)
(1.03855 0.0094882 0)
(1.03809 0.00981606 0)
(1.03755 0.0101791 0)
(1.03684 0.0105329 0)
(1.03588 0.0109011 0)
(1.03444 0.0112511 0)
(1.03228 0.0117731 0)
(1.02881 0.0127906 0)
(1.00067 0.00924391 0)
(1.0103 0.017708 0)
(1.0201 0.016527 0)
(1.02498 0.0144571 0)
(1.02683 0.0139273 0)
(1.02829 0.0135127 0)
(1.02985 0.012776 0)
(1.03114 0.0120812 0)
(1.03212 0.0115632 0)
(1.0329 0.0111429 0)
(1.03358 0.0107649 0)
(1.03417 0.0104242 0)
(1.0347 0.0101226 0)
(1.03517 0.00985504 0)
(1.03558 0.00961546 0)
(1.03596 0.00939947 0)
(1.0363 0.00920421 0)
(1.03661 0.00902758 0)
(1.0369 0.00886792 0)
(1.03716 0.00872393 0)
(1.0374 0.00859461 0)
(1.03761 0.00847912 0)
(1.0378 0.00837675 0)
(1.03798 0.00828687 0)
(1.03813 0.00820895 0)
(1.03826 0.00814262 0)
(1.03837 0.00808765 0)
(1.03846 0.00804404 0)
(1.03853 0.00801198 0)
(1.03857 0.00799196 0)
(1.03859 0.00798458 0)
(1.03859 0.00799092 0)
(1.03856 0.00801201 0)
(1.0385 0.00804975 0)
(1.03842 0.00810565 0)
(1.03831 0.00818266 0)
(1.03816 0.00828284 0)
(1.03799 0.00841034 0)
(1.03778 0.00856776 0)
(1.03753 0.00875968 0)
(1.03725 0.0089893 0)
(1.03692 0.00925808 0)
(1.03654 0.00957046 0)
(1.03609 0.0099164 0)
(1.03554 0.0103023 0)
(1.03483 0.0107019 0)
(1.03388 0.0111401 0)
(1.03246 0.0116311 0)
(1.03038 0.0123713 0)
(1.02716 0.0137389 0)
(1.00058 0.00835363 0)
(1.00916 0.0166557 0)
(1.01834 0.0160304 0)
(1.02323 0.0141143 0)
(1.02516 0.0136008 0)
(1.02659 0.0132742 0)
(1.02811 0.0126167 0)
(1.02941 0.0119521 0)
(1.03039 0.0114481 0)
(1.03116 0.0110435 0)
(1.03183 0.0106798 0)
(1.03242 0.0103495 0)
(1.03294 0.0100555 0)
(1.0334 0.00979425 0)
(1.03381 0.00956012 0)
(1.03418 0.0093488 0)
(1.03451 0.00915757 0)
(1.03481 0.00898451 0)
(1.03509 0.00882808 0)
(1.03534 0.00868711 0)
(1.03557 0.00856069 0)
(1.03578 0.00844805 0)
(1.03597 0.00834854 0)
(1.03613 0.00826157 0)
(1.03628 0.00818665 0)
(1.0364 0.00812344 0)
(1.0365 0.00807172 0)
(1.03658 0.00803154 0)
(1.03664 0.0080031 0)
(1.03668 0.00798691 0)
(1.0367 0.00798362 0)
(1.03669 0.00799434 0)
(1.03665 0.00802014 0)
(1.03659 0.0080629 0)
(1.03651 0.00812423 0)
(1.03639 0.00820704 0)
(1.03625 0.00831352 0)
(1.03607 0.00844772 0)
(1.03586 0.0086125 0)
(1.03562 0.00881238 0)
(1.03533 0.00905083 0)
(1.03501 0.00933024 0)
(1.03463 0.00965477 0)
(1.03418 0.0100194 0)
(1.03364 0.0104298 0)
(1.03293 0.0108762 0)
(1.03199 0.0113864 0)
(1.03061 0.0120129 0)
(1.02863 0.0129554 0)
(1.02567 0.0146267 0)
(1.0005 0.00754763 0)
(1.00813 0.0156324 0)
(1.0167 0.0155205 0)
(1.02157 0.0137787 0)
(1.02357 0.0132766 0)
(1.02498 0.0130267 0)
(1.02646 0.0124504 0)
(1.02775 0.0118203 0)
(1.02873 0.0113309 0)
(1.02951 0.0109417 0)
(1.03017 0.0105928 0)
(1.03075 0.0102734 0)
(1.03126 0.00998733 0)
(1.03172 0.00973265 0)
(1.03212 0.00950415 0)
(1.03248 0.00929767 0)
(1.03281 0.00911062 0)
(1.0331 0.00894124 0)