/*--------------------------------*- C++ -*----------------------------------*\
  =========                 |
  \\      /  F ield         | OpenFOAM: The Open Source CFD Toolbox
   \\    /   O peration     | Website:  https://openfoam.org
    \\  /    A nd           | Version:  7
     \\/     M anipulation  |
\*---------------------------------------------------------------------------*/
FoamFile
{
    version     2.0;
    format      ascii;
    class       volVectorField;
    location    "0.31";
    object      U_0;
}
// * * * * * * * * * * * * * * * * * * * * * * * * * * * * * * * * * * * * * //

dimensions      [0 1 -1 0 0 0 0];

internalField   nonuniform List<vector> 
70000
(
(0.553388 0.0167232 0)
(0.251244 0.00340131 0)
(0.166162 0.000322323 0)
(0.132392 5.45398e-05 0)
(0.117177 4.59731e-05 0)
(0.107229 5.41516e-05 0)
(0.099256 4.6524e-05 0)
(0.092791 3.71965e-05 0)
(0.0875207 3.08979e-05 0)
(0.0831248 2.65888e-05 0)
(0.0793745 2.33121e-05 0)
(0.0761215 2.06939e-05 0)
(0.0732643 1.85655e-05 0)
(0.0707286 1.68132e-05 0)
(0.0684582 1.53533e-05 0)
(0.0664097 1.41235e-05 0)
(0.0645487 1.30773e-05 0)
(0.0628479 1.21814e-05 0)
(0.0612852 1.14079e-05 0)
(0.0598422 1.07383e-05 0)
(0.0585037 1.01556e-05 0)
(0.0572571 9.64849e-06 0)
(0.0560914 9.20666e-06 0)
(0.0549974 8.82332e-06 0)
(0.0539669 8.49111e-06 0)
(0.0529927 8.2079e-06 0)
(0.0520688 7.96674e-06 0)
(0.0511893 7.76941e-06 0)
(0.0503492 7.60905e-06 0)
(0.0495436 7.49131e-06 0)
(0.0487683 7.40572e-06 0)
(0.0480188 7.36975e-06 0)
(0.0472916 7.35131e-06 0)
(0.0465817 7.40276e-06 0)
(0.0458868 7.43705e-06 0)
(0.0452007 7.5755e-06 0)
(0.0445226 7.62977e-06 0)
(0.0438451 7.81469e-06 0)
(0.0431681 7.82928e-06 0)
(0.0424883 7.86481e-06 0)
(0.0417966 7.7804e-06 0)
(0.0411198 6.97442e-06 0)
(0.0404018 6.79675e-06 0)
(0.0397792 3.28237e-06 0)
(0.0390558 2.63732e-06 0)
(0.0386312 -6.75444e-06 0)
(0.0381413 -1.32281e-05 0)
(0.0380181 -2.97091e-05 0)
(0.0396956 -3.87295e-05 0)
(0.0351199 -0.00152897 0)
(0.884898 0.0431683 0)
(0.649689 0.0201961 0)
(0.494244 0.00660108 0)
(0.40353 0.00277059 0)
(0.354547 0.00155512 0)
(0.323184 0.00113484 0)
(0.299264 0.000913776 0)
(0.280006 0.00075004 0)
(0.264228 0.000627415 0)
(0.251039 0.000536945 0)
(0.239787 0.000468383 0)
(0.230028 0.000414541 0)
(0.221458 0.000371136 0)
(0.213851 0.0003355 0)
(0.207041 0.000305817 0)
(0.200897 0.000280789 0)
(0.195317 0.000259462 0)
(0.190218 0.000241125 0)
(0.185536 0.000225237 0)
(0.181214 0.000211383 0)
(0.177208 0.000199239 0)
(0.17348 0.00018855 0)
(0.169998 0.000179113 0)
(0.166734 0.000170768 0)
(0.163663 0.000163382 0)
(0.160766 0.000156859 0)
(0.158023 0.000151113 0)
(0.155418 0.000146088 0)
(0.152937 0.000141735 0)
(0.150564 0.000138033 0)
(0.14829 0.000134948 0)
(0.146099 0.000132517 0)
(0.143983 0.000130676 0)
(0.141928 0.000129573 0)
(0.139926 0.000129026 0)
(0.137961 0.000129412 0)
(0.136028 0.000130226 0)
(0.134107 0.000132301 0)
(0.132194 0.000134407 0)
(0.130274 0.000138104 0)
(0.128318 0.000140981 0)
(0.126383 0.000144851 0)
(0.124305 0.000146748 0)
(0.122415 0.000144476 0)
(0.120159 0.000139944 0)
(0.118527 0.000109426 0)
(0.116454 8.66874e-05 0)
(0.114998 -9.18367e-05 0)
(0.117167 8.00674e-05 0)
(0.108965 -0.00322587 0)
(0.991238 0.0499032 0)
(0.890327 0.0307235 0)
(0.762607 0.0146045 0)
(0.656521 0.00798733 0)
(0.585115 0.00489294 0)
(0.535627 0.00347956 0)
(0.497674 0.00274447 0)
(0.466967 0.00225265 0)
(0.441559 0.00189015 0)
(0.42015 0.00161933 0)
(0.401792 0.00141281 0)
(0.385815 0.00125058 0)
(0.371743 0.00111985 0)
(0.359226 0.00101249 0)
(0.347999 0.000922995 0)
(0.337854 0.00084747 0)
(0.328629 0.000783044 0)
(0.320192 0.000727586 0)
(0.312438 0.000679465 0)
(0.305278 0.000637437 0)
(0.298638 0.00060052 0)
(0.292459 0.000567947 0)
(0.286687 0.000539103 0)
(0.281277 0.000513497 0)
(0.276191 0.000490731 0)
(0.271395 0.000470498 0)
(0.266859 0.000452541 0)
(0.262556 0.000436672 0)
(0.258463 0.000422739 0)
(0.254558 0.00041065 0)
(0.250822 0.00040032 0)
(0.247233 0.00039178 0)
(0.243778 0.000384946 0)
(0.240435 0.000380057 0)
(0.237193 0.000376879 0)
(0.234025 0.0003761 0)
(0.230927 0.000376915 0)
(0.227865 0.000381066 0)
(0.224834 0.000386055 0)
(0.22181 0.000395975 0)
(0.218747 0.000404392 0)
(0.215719 0.000419203 0)
(0.212486 0.000427533 0)
(0.209494 0.000437603 0)
(0.205951 0.000435921 0)
(0.203168 0.00039271 0)
(0.199701 0.000376629 0)
(0.196741 -2.28222e-05 0)
(0.198001 0.000232083 0)
(0.189625 -0.00400279 0)
(1.0156 0.0489227 0)
(1.00595 0.0358821 0)
(0.935891 0.020803 0)
(0.851986 0.0135178 0)
(0.781955 0.00922224 0)
(0.726659 0.00679627 0)
(0.681477 0.00539921 0)
(0.643615 0.00446091 0)
(0.611488 0.00376833 0)
(0.583903 0.00324396 0)
(0.559924 0.0028394 0)
(0.538841 0.00251941 0)
(0.520123 0.00226041 0)
(0.503368 0.00204693 0)
(0.488259 0.00186842 0)
(0.474549 0.00171733 0)
(0.462036 0.00158811 0)
(0.450558 0.00147661 0)
(0.439981 0.00137964 0)
(0.430194 0.00129475 0)
(0.421102 0.00122001 0)
(0.412627 0.0011539 0)
(0.404702 0.0010952 0)
(0.397267 0.00104293 0)
(0.390272 0.000996284 0)
(0.383673 0.000954645 0)
(0.377431 0.000917492 0)
(0.371511 0.000884428 0)
(0.365883 0.000855144 0)
(0.360516 0.000829414 0)
(0.355387 0.000807077 0)
(0.350468 0.000788107 0)
(0.345742 0.000772412 0)
(0.34118 0.000760261 0)
(0.336768 0.000751441 0)
(0.332475 0.000746888 0)
(0.328294 0.000745594 0)
(0.324183 0.000750271 0)
(0.320136 0.000757049 0)
(0.316123 0.000773223 0)
(0.31209 0.000787248 0)
(0.308113 0.000815643 0)
(0.303923 0.000831937 0)
(0.299993 0.000860604 0)
(0.29547 0.000867417 0)
(0.291678 0.000815645 0)
(0.287225 0.000830122 0)
(0.283027 0.000200663 0)
(0.282805 0.000424761 0)
(0.2756 -0.00425079 0)
(1.01434 0.0460064 0)
(1.04752 0.0374974 0)
(1.02454 0.0241668 0)
(0.97465 0.0175784 0)
(0.92325 0.0131435 0)
(0.876378 0.0102283 0)
(0.834108 0.00836571 0)
(0.79625 0.00704576 0)
(0.762571 0.00603745 0)
(0.732633 0.00525192 0)
(0.705921 0.00463229 0)
(0.681962 0.00413435 0)
(0.660356 0.00372657 0)
(0.64077 0.00338735 0)
(0.622925 0.00310153 0)
(0.606591 0.00285807 0)
(0.591576 0.00264873 0)
(0.577718 0.00246722 0)
(0.564881 0.00230871 0)
(0.552947 0.0021694 0)
(0.541818 0.00204631 0)
(0.531409 0.00193705 0)
(0.521646 0.0018397 0)
(0.512464 0.00175271 0)
(0.503807 0.00167479 0)
(0.495624 0.00160494 0)
(0.487873 0.00154233 0)
(0.480513 0.00148629 0)
(0.473509 0.00143632 0)
(0.466827 0.00139201 0)
(0.46044 0.00135311 0)
(0.454316 0.00131949 0)
(0.448434 0.00129104 0)
(0.442763 0.00126803 0)
(0.437287 0.00125029 0)
(0.43197 0.00123894 0)
(0.426803 0.00123283 0)
(0.421742 0.00123565 0)
(0.416781 0.00124214 0)
(0.411882 0.00126296 0)
(0.406995 0.00128139 0)
(0.402179 0.00132277 0)
(0.397192 0.0013476 0)
(0.392438 0.00139474 0)
(0.387179 0.00141603 0)
(0.382502 0.00135335 0)
(0.377365 0.00140687 0)
(0.372293 0.000594439 0)
(0.370469 0.000638727 0)
(0.364414 -0.00429053 0)
(1.00933 0.042918 0)
(1.05527 0.0372738 0)
(1.05866 0.0253139 0)
(1.03629 0.0197828 0)
(1.00695 0.0158389 0)
(0.975805 0.0129656 0)
(0.944174 0.0109911 0)
(0.913193 0.00951081 0)
(0.883716 0.00832255 0)
(0.85613 0.0073574 0)
(0.830511 0.00657059 0)
(0.806795 0.00592198 0)
(0.784859 0.00538009 0)
(0.764559 0.00492201 0)
(0.745746 0.00453093 0)
(0.728278 0.00419412 0)
(0.712026 0.0039018 0)
(0.69687 0.00364632 0)
(0.682704 0.00342164 0)
(0.669433 0.00322297 0)
(0.656973 0.00304644 0)
(0.64525 0.00288895 0)
(0.634195 0.00274795 0)
(0.623751 0.00262137 0)
(0.613863 0.00250749 0)
(0.604483 0.00240494 0)
(0.59557 0.00231257 0)
(0.587083 0.00222946 0)
(0.578986 0.00215491 0)
(0.571247 0.00208833 0)
(0.563836 0.00202937 0)
(0.556722 0.00197778 0)
(0.549882 0.00193346 0)
(0.543285 0.00189662 0)
(0.536913 0.00186717 0)
(0.53073 0.0018464 0)
(0.524726 0.00183304 0)
(0.518855 0.00183164 0)
(0.513113 0.00183584 0)
(0.507453 0.00185915 0)
(0.501843 0.00188076 0)
(0.496305 0.00193271 0)
(0.490661 0.00196688 0)
(0.485194 0.00202857 0)
(0.479369 0.00206938 0)
(0.473944 0.00199305 0)
(0.468265 0.00207704 0)
(0.462629 0.00114016 0)
(0.459317 0.000909319 0)
(0.453928 -0.0041987 0)
(1.00625 0.0400368 0)
(1.05205 0.0363473 0)
(1.06606 0.0252451 0)
(1.05954 0.0205862 0)
(1.04675 0.0172709 0)
(1.0306 0.0146922 0)
(1.01161 0.0128587 0)
(0.990814 0.0114363 0)
(0.969285 0.0102425 0)
(0.947753 0.00923007 0)
(0.926661 0.00837376 0)
(0.906272 0.00764571 0)
(0.88673 0.00702145 0)
(0.868103 0.00648207 0)
(0.850408 0.00601295 0)
(0.833631 0.00560254 0)
(0.817739 0.00524149 0)
(0.802689 0.00492225 0)
(0.788432 0.00463862 0)
(0.774919 0.00438557 0)
(0.7621 0.00415893 0)
(0.749928 0.00395527 0)
(0.738357 0.00377174 0)
(0.727345 0.00360597 0)
(0.716852 0.00345599 0)
(0.70684 0.00332018 0)
(0.697276 0.00319719 0)
(0.688127 0.00308592 0)
(0.679362 0.00298555 0)
(0.670953 0.00289533 0)
(0.662873 0.00281487 0)
(0.655095 0.00274381 0)
(0.647598 0.0026821 0)
(0.640351 0.0026299 0)
(0.63334 0.00258724 0)
(0.626529 0.00255551 0)
(0.61991 0.00253346 0)
(0.613435 0.0025263 0)
(0.607106 0.00252701 0)
(0.600868 0.00255098 0)
(0.594709 0.00257528 0)
(0.58861 0.00263512 0)
(0.582471 0.00267983 0)
(0.576445 0.00275185 0)
(0.570194 0.00281459 0)
(0.564208 0.00272652 0)
(0.558065 0.0028227 0)
(0.552103 0.0018147 0)
(0.547502 0.0012644 0)
(0.542395 -0.00392536 0)
(1.00495 0.0373592 0)
(1.04726 0.0352661 0)
(1.06395 0.0247068 0)
(1.0642 0.0206153 0)
(1.06058 0.017813 0)
(1.05458 0.0155406 0)
(1.04575 0.0139233 0)
(1.03446 0.0126668 0)
(1.02145 0.011585 0)
(1.0073 0.0106366 0)
(0.992485 0.00980887 0)
(0.977357 0.00908439 0)
(0.962179 0.00844646 0)
(0.947143 0.00788188 0)
(0.932385 0.00738027 0)
(0.917995 0.00693307 0)
(0.90403 0.00653307 0)
(0.890523 0.00617415 0)
(0.877489 0.00585111 0)
(0.864934 0.00555954 0)
(0.85285 0.00529569 0)
(0.841228 0.00505637 0)
(0.830053 0.00483887 0)
(0.819307 0.0046409 0)
(0.808972 0.0044605 0)
(0.799029 0.00429606 0)
(0.789457 0.0041462 0)
(0.780236 0.00400981 0)
(0.771347 0.00388603 0)
(0.76277 0.0037741 0)
(0.754487 0.00367365 0)
(0.746475 0.00358429 0)
(0.738719 0.00350606 0)
(0.731195 0.00343913 0)
(0.723891 0.00338368 0)
(0.716774 0.00334122 0)
(0.709842 0.00331066 0)
(0.703047 0.00329757 0)
(0.696397 0.00329491 0)
(0.68983 0.00331883 0)
(0.683356 0.00334629 0)
(0.676925 0.00341233 0)
(0.670495 0.00346884 0)
(0.66413 0.00354911 0)
(0.657617 0.00363317 0)
(0.65131 0.00354041 0)
(0.644817 0.00362872 0)
(0.638721 0.00259515 0)
(0.633096 0.00171755 0)
(0.627917 -0.00344528 0)
(1.0044 0.0348115 0)
(1.04323 0.0341938 0)
(1.05991 0.0240673 0)
(1.06223 0.0203239 0)
(1.06241 0.0178804 0)
(1.06166 0.0158265 0)
(1.05902 0.0143839 0)
(1.0544 0.013294 0)
(1.04809 0.0123556 0)
(1.04042 0.0115204 0)
(1.03166 0.0107781 0)
(1.02207 0.0101155 0)
(1.01189 0.00951986 0)
(1.00131 0.00898166 0)
(0.990479 0.00849388 0)
(0.97954 0.00805083 0)
(0.968593 0.00764767 0)
(0.957715 0.00728018 0)
(0.946965 0.00694463 0)
(0.936389 0.0066378 0)
(0.926017 0.00635682 0)
(0.915871 0.00609919 0)
(0.905966 0.00586273 0)
(0.89631 0.00564553 0)
(0.886907 0.00544597 0)
(0.877758 0.00526264 0)
(0.868858 0.00509439 0)
(0.860204 0.00494023 0)
(0.851789 0.00479945 0)
(0.843605 0.00467139 0)
(0.835642 0.00455581 0)
(0.82789 0.00445238 0)
(0.820339 0.00436133 0)
(0.812972 0.00428288 0)
(0.805783 0.00421745 0)
(0.798747 0.00416666 0)
(0.791864 0.00412972 0)
(0.785092 0.00411235 0)
(0.778444 0.00410805 0)
(0.77186 0.00413277 0)
(0.76536 0.00416493 0)
(0.758883 0.00423722 0)
(0.752414 0.00430667 0)
(0.745986 0.00439594 0)
(0.739425 0.00449891 0)
(0.733064 0.0044114 0)
(0.72643 0.00447561 0)
(0.720343 0.00345203 0)
(0.714121 0.0022856 0)
(0.708397 -0.0027989 0)
(1.00402 0.0323718 0)
(1.0399 0.0331446 0)
(1.05614 0.0234458 0)
(1.05887 0.0199381 0)
(1.06013 0.0177533 0)
(1.06144 0.015835 0)
(1.06175 0.0144945 0)
(1.06079 0.0135207 0)
(1.05865 0.0126993 0)
(1.05544 0.011971 0)
(1.05125 0.0113227 0)
(1.04619 0.010741 0)
(1.0404 0.0102132 0)
(1.03399 0.00973053 0)
(1.02708 0.00928702 0)
(1.01979 0.00887842 0)
(1.01221 0.00850129 0)
(1.00441 0.00815274 0)
(0.99648 0.00783026 0)
(0.988466 0.00753168 0)
(0.98042 0.00725504 0)
(0.97238 0.0069986 0)
(0.964379 0.00676084 0)
(0.956442 0.00654037 0)
(0.94859 0.00633603 0)
(0.940837 0.00614679 0)
(0.933196 0.00597183 0)
(0.925674 0.00581042 0)
(0.918277 0.00566213 0)
(0.911007 0.00552647 0)
(0.903866 0.00540344 0)
(0.896852 0.00529289 0)
(0.889963 0.00519524 0)
(0.883191 0.00511089 0)
(0.876535 0.00504052 0)
(0.869978 0.00498591 0)
(0.863525 0.00494666 0)
(0.857142 0.00492856 0)
(0.850843 0.00492588 0)
(0.844578 0.004954 0)
(0.838366 0.00499338 0)
(0.832157 0.00507383 0)
(0.825937 0.00515759 0)
(0.819743 0.00525852 0)
(0.813402 0.00537847 0)
(0.807247 0.00530533 0)
(0.800771 0.00533951 0)
(0.794796 0.00434323 0)
(0.788495 0.00297703 0)
(0.781957 -0.00201695 0)
(1.00364 0.0300317 0)
(1.03691 0.032098 0)
(1.05279 0.0228577 0)
(1.05563 0.0195352 0)
(1.05704 0.0175644 0)
(1.05889 0.0157389 0)
(1.06028 0.0144468 0)
(1.06091 0.0135368 0)
(1.06085 0.0127899 0)
(1.06012 0.0121368 0)
(1.05872 0.0115617 0)
(1.05667 0.0110499 0)
(1.05401 0.0105873 0)
(1.05078 0.0101639 0)
(1.04705 0.00977345 0)
(1.04286 0.00941153 0)
(1.03829 0.00907493 0)
(1.03338 0.00876119 0)
(1.0282 0.00846828 0)
(1.0228 0.00819458 0)
(1.01721 0.00793868 0)
(1.01147 0.00769934 0)
(1.00563 0.00747552 0)
(0.999709 0.00726628 0)
(0.993733 0.00707084 0)
(0.987726 0.00688854 0)
(0.981707 0.00671889 0)
(0.975691 0.00656145 0)
(0.96969 0.00641605 0)
(0.963715 0.00628248 0)
(0.957774 0.00616097 0)
(0.951872 0.00605157 0)
(0.946014 0.00595499 0)
(0.940199 0.00587179 0)
(0.93443 0.00580296 0)
(0.928698 0.00575048 0)
(0.923011 0.00571434 0)
(0.917345 0.0057004 0)
(0.911713 0.00570375 0)
(0.906078 0.0057392 0)
(0.900455 0.00578918 0)
(0.89481 0.00588088 0)
(0.889122 0.00598109 0)
(0.883438 0.00609676 0)
(0.8776 0.00623405 0)
(0.871888 0.00618079 0)
(0.865887 0.00619135 0)
(0.860156 0.00522613 0)
(0.854149 0.00376179 0)
(0.847044 -0.00108154 0)
(1.00327 0.0277923 0)
(1.03408 0.0310403 0)
(1.04968 0.0222961 0)
(1.05267 0.0191304 0)
(1.05404 0.0173567 0)
(1.05595 0.0156136 0)
(1.05761 0.0143443 0)
(1.05877 0.0134653 0)
(1.05951 0.0127599 0)
(1.0599 0.0121509 0)
(1.0599 0.0116216 0)
(1.0595 0.0111571 0)
(1.05869 0.0107423 0)
(1.05748 0.0103661 0)
(1.05588 0.0100211 0)
(1.05391 0.0097024 0)
(1.05159 0.00940624 0)
(1.04895 0.00912993 0)
(1.04602 0.00887138 0)
(1.04282 0.00862897 0)
(1.03939 0.0084014 0)
(1.03576 0.0081876 0)
(1.03194 0.00798671 0)
(1.02797 0.007798 0)
(1.02386 0.00762088 0)
(1.01964 0.00745493 0)
(1.01532 0.00729985 0)
(1.01093 0.00715543 0)
(1.00647 0.00702172 0)
(1.00195 0.0068987 0)
(0.997392 0.00678681 0)
(0.9928 0.00668631 0)
(0.988182 0.00659812 0)
(0.983541 0.00652305 0)
(0.978883 0.00646229 0)
(0.974205 0.00641807 0)
(0.969515 0.00639071 0)
(0.964798 0.00638621 0)
(0.960066 0.00640035 0)
(0.955294 0.00644747 0)
(0.950491 0.00651181 0)
(0.94564 0.00661809 0)
(0.940717 0.00673757 0)
(0.935763 0.00687054 0)
(0.930663 0.00702753 0)
(0.925599 0.00699703 0)
(0.920312 0.00699606 0)
(0.915027 0.0060687 0)
(0.909469 0.00458597 0)
(0.902321 5.81882e-05 0)
(1.00292 0.0256568 0)
(1.03137 0.0299669 0)
(1.04668 0.0217566 0)
(1.04988 0.0187236 0)
(1.05122 0.0171371 0)
(1.05309 0.0154814 0)
(1.05479 0.0142282 0)
(1.05606 0.0133656 0)
(1.05705 0.0126839 0)
(1.05782 0.0120994 0)
(1.05839 0.0115954 0)
(1.05873 0.0111582 0)
(1.05884 0.0107726 0)
(1.0587 0.0104271 0)
(1.05831 0.0101136 0)
(1.05767 0.00982669 0)
(1.05678 0.0095621 0)
(1.05564 0.00931673 0)
(1.05428 0.00908821 0)
(1.05268 0.00887467 0)
(1.05088 0.00867468 0)
(1.04888 0.00848708 0)
(1.04669 0.00831094 0)
(1.04433 0.00814554 0)
(1.04182 0.00799032 0)
(1.03916 0.00784489 0)
(1.03637 0.00770903 0)
(1.03346 0.0075826 0)
(1.03044 0.00746578 0)
(1.02732 0.00735866 0)
(1.02412 0.0072618 0)
(1.02084 0.00717565 0)
(1.01748 0.00710122 0)
(1.01405 0.00703954 0)
(1.01056 0.00699195 0)
(1.00701 0.00696094 0)
(1.00341 0.00694703 0)
(0.99974 0.0069564 0)
(0.996015 0.00698541 0)
(0.992221 0.0070479 0)
(0.988362 0.00712997 0)
(0.98443 0.00725352 0)
(0.980407 0.00739495 0)
(0.976316 0.00754713 0)
(0.972095 0.00772621 0)
(0.967822 0.0077214 0)
(0.963376 0.00771955 0)
(0.958729 0.00684758 0)
(0.953687 0.00540468 0)
(0.946875 0.00132749 0)
(1.0026 0.0236281 0)
(1.02879 0.0288765 0)
(1.04376 0.0212381 0)
(1.04719 0.0183148 0)
(1.04854 0.0169041 0)
(1.05037 0.0153447 0)
(1.05206 0.0141097 0)
(1.05334 0.0132587 0)
(1.05436 0.012594 0)
(1.05523 0.0120253 0)
(1.05597 0.0115355 0)
(1.05658 0.0111131 0)
(1.05706 0.0107438 0)
(1.05739 0.0104158 0)
(1.05758 0.0101212 0)
(1.05761 0.00985408 0)
(1.0575 0.00961018 0)
(1.05722 0.00938612 0)
(1.05679 0.00917925 0)
(1.0562 0.00898752 0)
(1.05545 0.00880932 0)
(1.05455 0.00864332 0)
(1.0535 0.00848847 0)
(1.0523 0.00834395 0)
(1.05096 0.00820911 0)
(1.04949 0.00808349 0)
(1.04789 0.00796685 0)
(1.04617 0.00785906 0)
(1.04433 0.00776027 0)
(1.04239 0.00767065 0)
(1.04034 0.00759079 0)
(1.03819 0.00752122 0)
(1.03595 0.00746301 0)
(1.03363 0.00741737 0)
(1.03121 0.00738567 0)
(1.02871 0.00737063 0)
(1.02614 0.0073729 0)
(1.02347 0.00739878 0)
(1.02073 0.00744516 0)
(1.0179 0.00752524 0)
(1.01499 0.00762718 0)
(1.01198 0.00776949 0)
(1.00888 0.00793438 0)
(1.00568 0.00810707 0)
(1.00237 0.00830922 0)
(0.998935 0.00833372 0)
(0.995351 0.00833908 0)
(0.991436 0.00754468 0)
(0.986962 0.00618833 0)
(0.98062 0.00261631 0)
(1.0023 0.0217079 0)
(1.02633 0.0277701 0)
(1.04093 0.020739 0)
(1.04458 0.0179054 0)
(1.04595 0.0166564 0)
(1.04776 0.0152021 0)
(1.04944 0.0139899 0)
(1.05072 0.0131497 0)
(1.05173 0.0125003 0)
(1.0526 0.0119448 0)
(1.05337 0.011465 0)
(1.05405 0.0110517 0)
(1.05464 0.0106917 0)
(1.05514 0.0103736 0)
(1.05555 0.0100895 0)
(1.05588 0.00983371 0)
(1.05611 0.00960191 0)
(1.05625 0.00939072 0)
(1.0563 0.00919743 0)
(1.05625 0.00901993 0)
(1.05609 0.00885649 0)
(1.05583 0.00870571 0)
(1.05546 0.00856644 0)
(1.05499 0.00843776 0)
(1.05442 0.00831893 0)
(1.05374 0.00820942 0)
(1.05296 0.00810892 0)
(1.05207 0.00801725 0)
(1.05109 0.00793453 0)
(1.05001 0.00786092 0)
(1.04883 0.007797 0)
(1.04756 0.00774336 0)
(1.04619 0.00770106 0)
(1.04474 0.00767143 0)
(1.0432 0.00765581 0)
(1.04157 0.00765713 0)
(1.03986 0.00767608 0)
(1.03805 0.00771902 0)
(1.03616 0.00778337 0)
(1.03417 0.00788142 0)
(1.0321 0.00800365 0)
(1.02993 0.00816482 0)
(1.02766 0.00835301 0)
(1.02528 0.00854663 0)
(1.0228 0.00877133 0)
(1.02016 0.00882832 0)
(1.01737 0.00884835 0)
(1.01417 0.00815049 0)
(1.01028 0.00692462 0)
(1.00441 0.00390629 0)
(1.00203 0.0198969 0)
(1.02401 0.0266506 0)
(1.03819 0.0202562 0)
(1.04206 0.0174974 0)
(1.04346 0.0163941 0)
(1.04523 0.0150523 0)
(1.04691 0.0138683 0)
(1.04819 0.0130389 0)
(1.04919 0.0124048 0)
(1.05005 0.0118623 0)
(1.05081 0.0113916 0)
(1.05149 0.0109856 0)
(1.0521 0.0106322 0)
(1.05264 0.0103205 0)
(1.05312 0.0100427 0)
(1.05354 0.00979353 0)
(1.05391 0.00956865 0)
(1.05422 0.00936483 0)
(1.05447 0.00917944 0)
(1.05466 0.0090104 0)
(1.05479 0.008856 0)
(1.05485 0.00871483 0)
(1.05485 0.00858573 0)
(1.05478 0.00846772 0)
(1.05463 0.00836004 0)
(1.05442 0.00826209 0)
(1.05412 0.00817354 0)
(1.05376 0.00809415 0)
(1.05331 0.00802401 0)
(1.05279 0.00796328 0)
(1.0522 0.00791251 0)
(1.05152 0.00787233 0)
(1.05077 0.00784375 0)
(1.04994 0.00782823 0)
(1.04903 0.00782703 0)
(1.04804 0.00784325 0)
(1.04697 0.0078776 0)
(1.04582 0.00793637 0)
(1.04459 0.00801759 0)
(1.04326 0.00813244 0)
(1.04186 0.00827379 0)
(1.04035 0.00845268 0)
(1.03876 0.00866251 0)
(1.03706 0.00887655 0)
(1.03527 0.00912227 0)
(1.0333 0.0092138 0)
(1.03118 0.0092561 0)
(1.02857 0.00866902 0)
(1.02521 0.00761431 0)
(1.01981 0.00517233 0)
(1.00179 0.0181953 0)
(1.02182 0.025522 0)
(1.03556 0.0197858 0)
(1.03962 0.0170926 0)
(1.04105 0.0161179 0)
(1.04279 0.0148942 0)
(1.04447 0.0137443 0)
(1.04575 0.0129262 0)
(1.04674 0.0123073 0)
(1.04758 0.0117785 0)
(1.04833 0.0113172 0)
(1.049 0.0109181 0)
(1.0496 0.0105706 0)
(1.05014 0.0102641 0)
(1.05063 0.0099912 0)
(1.05107 0.00974652 0)
(1.05147 0.0095261 0)
(1.05183 0.00932683 0)
(1.05216 0.00914619 0)
(1.05244 0.00898219 0)
(1.05268 0.00883319 0)
(1.05289 0.00869786 0)
(1.05305 0.00857504 0)
(1.05316 0.0084638 0)
(1.05323 0.00836337 0)
(1.05324 0.00827314 0)
(1.05321 0.00819277 0)
(1.05313 0.00812201 0)
(1.05298 0.00806095 0)
(1.05279 0.00800975 0)
(1.05253 0.00796894 0)
(1.05222 0.0079392 0)
(1.05185 0.00792151 0)
(1.05141 0.00791741 0)
(1.05091 0.00792813 0)
(1.05034 0.00795684 0)
(1.0497 0.00800434 0)
(1.049 0.00807674 0)
(1.04822 0.00817275 0)
(1.04736 0.00830229 0)
(1.04643 0.00846058 0)
(1.04541 0.00865527 0)
(1.04432 0.00888419 0)
(1.04312 0.00911746 0)
(1.04184 0.00938232 0)
(1.04039 0.00950955 0)
(1.03876 0.00958155 0)
(1.03662 0.00911625 0)
(1.03368 0.00826415 0)
(1.02868 0.00640137 0)
(1.00157 0.016603 0)
(1.01978 0.0243882 0)
(1.03302 0.0193238 0)
(1.03727 0.0166928 0)
(1.03874 0.0158291 0)
(1.04044 0.0147273 0)
(1.04212 0.0136176 0)
(1.0434 0.0128114 0)
(1.04438 0.0122078 0)
(1.04521 0.0116933 0)
(1.04595 0.0112419 0)
(1.04661 0.0108499 0)
(1.04719 0.0105083 0)
(1.04772 0.0102069 0)
(1.0482 0.00993838 0)
(1.04864 0.00969759 0)
(1.04904 0.00948075 0)
(1.04941 0.00928487 0)
(1.04975 0.00910758 0)
(1.05005 0.00894698 0)
(1.05033 0.00880155 0)
(1.05058 0.00866999 0)
(1.0508 0.00855125 0)
(1.05098 0.00844441 0)
(1.05114 0.00834874 0)
(1.05126 0.00826367 0)
(1.05134 0.00818883 0)
(1.05139 0.00812404 0)
(1.05139 0.00806937 0)
(1.05136 0.00802502 0)
(1.05128 0.00799151 0)
(1.05116 0.00796959 0)
(1.05099 0.00796021 0)
(1.05078 0.007965 0)
(1.05051 0.00798517 0)
(1.05019 0.00802395 0)
(1.04981 0.00808224 0)
(1.04938 0.0081659 0)
(1.04888 0.00827436 0)
(1.04832 0.00841631 0)
(1.0477 0.00858905 0)
(1.047 0.00879748 0)
(1.04624 0.00904274 0)
(1.04538 0.00929392 0)
(1.04444 0.00957628 0)
(1.04333 0.00974006 0)
(1.04204 0.00984883 0)
(1.04021 0.00951401 0)
(1.03756 0.00888577 0)
(1.03291 0.00759106 0)
(1.00137 0.0151189 0)
(1.01787 0.0232531 0)
(1.03059 0.0188662 0)
(1.03501 0.0162994 0)
(1.03652 0.0155291 0)
(1.03818 0.0145508 0)
(1.03985 0.0134879 0)
(1.04113 0.0126946 0)
(1.04211 0.012106 0)
(1.04293 0.0116064 0)
(1.04366 0.0111656 0)
(1.0443 0.0107811 0)
(1.04488 0.0104456 0)
(1.04539 0.0101493 0)
(1.04586 0.00988521 0)
(1.04629 0.00964823 0)
(1.04668 0.00943475 0)
(1.04704 0.00924194 0)
(1.04737 0.00906753 0)
(1.04768 0.00890972 0)
(1.04796 0.00876709 0)
(1.04822 0.00863842 0)
(1.04845 0.00852271 0)
(1.04865 0.00841911 0)
(1.04883 0.00832691 0)
(1.04899 0.00824558 0)
(1.04912 0.0081748 0)
(1.04921 0.00811438 0)
(1.04928 0.00806443 0)
(1.04932 0.0080252 0)
(1.04932 0.00799721 0)
(1.04929 0.00798129 0)
(1.04922 0.00797836 0)
(1.04911 0.00799016 0)
(1.04896 0.00801788 0)
(1.04877 0.00806479 0)
(1.04853 0.00813194 0)
(1.04824 0.0082249 0)
(1.0479 0.00834379 0)
(1.04751 0.00849619 0)
(1.04706 0.0086812 0)
(1.04655 0.00890164 0)
(1.04599 0.0091609 0)
(1.04533 0.00942895 0)
(1.0446 0.00972788 0)
(1.0437 0.00992922 0)
(1.0426 0.0100816 0)
(1.04096 0.00988392 0)
(1.0385 0.00949242 0)
(1.03414 0.00874367 0)
(1.00119 0.0137415 0)
(1.0161 0.0221209 0)
(1.02827 0.0184095 0)
(1.03283 0.0159136 0)
(1.0344 0.0152197 0)
(1.03602 0.0143643 0)
(1.03767 0.0133547 0)
(1.03896 0.0125759 0)
(1.03993 0.0120019 0)
(1.04074 0.0115178 0)
(1.04146 0.0110882 0)
(1.04209 0.0107115 0)
(1.04265 0.0103823 0)
(1.04316 0.0100914 0)
(1.04362 0.00983182 0)
(1.04403 0.00959873 0)
(1.04441 0.00938866 0)
(1.04476 0.00919889 0)
(1.04509 0.00902728 0)
(1.04538 0.00887212 0)
(1.04566 0.00873207 0)
(1.04591 0.00860599 0)
(1.04614 0.00849295 0)
(1.04634 0.00839213 0)
(1.04652 0.00830287 0)
(1.04668 0.00822467 0)
(1.04682 0.00815723 0)
(1.04693 0.00810041 0)
(1.04702 0.00805433 0)
(1.04707 0.0080193 0)
(1.04711 0.00799585 0)
(1.04711 0.00798488 0)
(1.04708 0.00798731 0)
(1.04701 0.00800495 0)
(1.04691 0.00803904 0)
(1.04678 0.00809281 0)
(1.0466 0.00816753 0)
(1.04639 0.00826843 0)
(1.04613 0.00839633 0)
(1.04582 0.00855784 0)
(1.04547 0.00875348 0)
(1.04506 0.00898478 0)
(1.0446 0.0092564 0)
(1.04405 0.0095408 0)
(1.04343 0.00985631 0)
(1.04264 0.0100966 0)
(1.04164 0.0102991 0)
(1.04011 0.010243 0)
(1.03776 0.0100938 0)
(1.03364 0.0098595 0)
(1.00104 0.0124685 0)
(1.01446 0.020996 0)
(1.02606 0.0179501 0)
(1.03074 0.0155362 0)
(1.03237 0.0149027 0)
(1.03394 0.0141674 0)
(1.03558 0.0132176 0)
(1.03687 0.0124552 0)
(1.03785 0.0118955 0)
(1.03865 0.0114272 0)
(1.03935 0.0110095 0)
(1.03997 0.0106411 0)
(1.04053 0.0103183 0)
(1.04102 0.010033 0)
(1.04147 0.00977817 0)
(1.04187 0.00954912 0)
(1.04224 0.00934256 0)
(1.04258 0.00915591 0)
(1.04289 0.00898714 0)
(1.04318 0.00883465 0)
(1.04345 0.00869717 0)
(1.04369 0.00857365 0)
(1.04391 0.0084632 0)
(1.04411 0.00836504 0)
(1.04428 0.00827857 0)
(1.04444 0.0082033 0)
(1.04457 0.00813895 0)
(1.04468 0.00808545 0)
(1.04477 0.0080429 0)
(1.04483 0.00801168 0)
(1.04486 0.00799232 0)
(1.04487 0.00798581 0)
(1.04485 0.00799308 0)
(1.0448 0.00801597 0)
(1.04472 0.00805579 0)
(1.04461 0.00811573 0)
(1.04446 0.00819728 0)
(1.04427 0.00830537 0)
(1.04405 0.0084414 0)
(1.04378 0.00861125 0)
(1.04347 0.00881654 0)
(1.0431 0.00905812 0)
(1.04269 0.00934122 0)
(1.0422 0.00964202 0)
(1.04163 0.00997498 0)
(1.0409 0.0102559 0)
(1.03993 0.0105148 0)
(1.03845 0.010603 0)
(1.03617 0.010696 0)
(1.03227 0.0109385 0)
(1.0009 0.011297 0)
(1.01295 0.0198825 0)
(1.02396 0.0174849 0)
(1.02873 0.0151677 0)
(1.03043 0.0145803 0)
(1.03197 0.0139598 0)
(1.03358 0.0130758 0)
(1.03488 0.0123326 0)
(1.03585 0.0117869 0)
(1.03664 0.0113346 0)
(1.03734 0.0109294 0)
(1.03795 0.0105698 0)
(1.03849 0.0102538 0)
(1.03898 0.00997415 0)
(1.03941 0.0097242 0)
(1.03981 0.00949934 0)
(1.04017 0.0092964 0)
(1.0405 0.00911297 0)
(1.0408 0.00894713 0)
(1.04108 0.00879739 0)
(1.04133 0.00866255 0)
(1.04156 0.00854164 0)
(1.04178 0.0084338 0)
(1.04197 0.00833834 0)
(1.04213 0.00825465 0)
(1.04228 0.0081823 0)
(1.04241 0.00812102 0)
(1.04251 0.00807075 0)
(1.04259 0.00803166 0)
(1.04265 0.00800413 0)
(1.04268 0.00798875 0)
(1.04269 0.00798652 0)
(1.04267 0.00799843 0)
(1.04262 0.00802634 0)
(1.04254 0.00807163 0)
(1.04243 0.00813744 0)
(1.04229 0.00822547 0)
(1.04211 0.00834039 0)
(1.0419 0.00848411 0)
(1.04165 0.00866195 0)
(1.04135 0.00887634 0)
(1.04101 0.00912806 0)
(1.04062 0.00942236 0)
(1.04015 0.00973994 0)
(1.0396 0.0100919 0)
(1.03888 0.0104153 0)
(1.03793 0.0107361 0)
(1.03647 0.0109694 0)
(1.03425 0.0113003 0)
(1.03057 0.011979 0)
(1.00078 0.0102235 0)
(1.01156 0.0187851 0)
(1.02197 0.0170114 0)
(1.02682 0.0148081 0)
(1.02858 0.0142545 0)
(1.03008 0.0137415 0)
(1.03167 0.0129288 0)
(1.03297 0.0122079 0)
(1.03394 0.0116761 0)
(1.03473 0.0112398 0)
(1.03541 0.0108479 0)
(1.03602 0.0104974 0)
(1.03655 0.0101884 0)
(1.03703 0.00991472 0)
(1.03745 0.00966984 0)
(1.03784 0.00944931 0)
(1.03819 0.00925014 0)
(1.03851 0.00907004 0)
(1.0388 0.00890723 0)
(1.03907 0.00876032 0)
(1.03932 0.0086282 0)
(1.03954 0.00850996 0)
(1.03974 0.00840483 0)
(1.03992 0.00831212 0)
(1.04008 0.00823127 0)
(1.04022 0.00816189 0)
(1.04034 0.00810372 0)
(1.04044 0.00805674 0)
(1.04051 0.00802112 0)
(1.04056 0.00799731 0)
(1.04059 0.0079859 0)
(1.04059 0.00798794 0)
(1.04056 0.00800445 0)
(1.04051 0.00803733 0)
(1.04043 0.00808802 0)
(1.04032 0.00815961 0)
(1.04018 0.00825399 0)
(1.04001 0.00837562 0)
(1.03979 0.00852682 0)
(1.03955 0.00871258 0)
(1.03926 0.00893585 0)
(1.03892 0.0091978 0)
(1.03854 0.00950344 0)
(1.03808 0.00983842 0)
(1.03754 0.0102112 0)
(1.03683 0.0105788 0)
(1.03587 0.010966 0)
(1.03443 0.0113429 0)
(1.03228 0.0119027 0)
(1.02883 0.0129739 0)
(1.00067 0.00924394 0)
(1.0103 0.0177081 0)
(1.0201 0.0165271 0)
(1.02498 0.0144573 0)
(1.02683 0.0139274 0)
(1.02829 0.0135128 0)
(1.02985 0.012776 0)
(1.03114 0.0120812 0)
(1.03212 0.0115631 0)
(1.0329 0.0111427 0)
(1.03358 0.0107646 0)
(1.03417 0.0104239 0)
(1.0347 0.0101222 0)
(1.03517 0.00985463 0)
(1.03558 0.00961502 0)
(1.03596 0.00939899 0)
(1.0363 0.0092037 0)
(1.03662 0.00902705 0)
(1.0369 0.00886737 0)
(1.03716 0.00872339 0)
(1.0374 0.00859408 0)
(1.03761 0.0084786 0)
(1.03781 0.00837624 0)
(1.03798 0.00828637 0)
(1.03813 0.00820845 0)
(1.03826 0.0081421 0)
(1.03837 0.00808711 0)
(1.03846 0.00804349 0)
(1.03853 0.00801141 0)
(1.03857 0.00799137 0)
(1.03859 0.00798399 0)
(1.03859 0.00799035 0)
(1.03856 0.00801151 0)
(1.0385 0.00804938 0)
(1.03842 0.00810548 0)
(1.03831 0.00818284 0)
(1.03816 0.00828355 0)
(1.03799 0.00841188 0)
(1.03778 0.00857049 0)
(1.03753 0.00876418 0)
(1.03724 0.00899629 0)
(1.03692 0.00926867 0)
(1.03653 0.00958601 0)
(1.03608 0.00993904 0)
(1.03553 0.0103345 0)
(1.03483 0.0107478 0)
(1.03387 0.0112045 0)
(1.03246 0.0117216 0)
(1.0304 0.0124975 0)
(1.0272 0.0139151 0)
(1.00058 0.00835367 0)
(1.00916 0.0166558 0)
(1.01834 0.0160306 0)
(1.02323 0.0141145 0)
(1.02516 0.0136009 0)
(1.02659 0.0132743 0)
(1.02811 0.0126167 0)
(1.02941 0.011952 0)
(1.03039 0.011448 0)
(1.03116 0.0110433 0)
(1.03183 0.0106796 0)
(1.03242 0.0103492 0)
(1.03294 0.0100551 0)
(1.0334 0.00979382 0)
(1.03381 0.00955965 0)
(1.03418 0.00934829 0)
(1.03451 0.00915703 0)
(1.03482 0.00898394 0)
(1.03509 0.0088275 0)
(1.03534 0.00868654 0)
(1.03557 0.00856012 0)
(1.03578 0.0084475 0)
(1.03597 0.00834801 0)
(1.03613 0.00826105 0)
(1.03628 0.00818613 0)
(1.0364 0.00812291 0)
(1.03651 0.00807119 0)
(1.03659 0.00803099 0)
(1.03665 0.00800253 0)
(1.03668 0.00798634 0)
(1.0367 0.00798305 0)
(1.03669 0.0079938 0)
(1.03666 0.00801967 0)
(1.03659 0.00806257 0)
(1.03651 0.00812413 0)
(1.03639 0.0082073 0)
(1.03625 0.00831435 0)
(1.03607 0.00844939 0)
(1.03586 0.00861539 0)
(1.03561 0.00881707 0)
(1.03533 0.00905804 0)
(1.035 0.00934106 0)
(1.03462 0.00967056 0)
(1.03418 0.0100422 0)
(1.03363 0.0104621 0)
(1.03293 0.0109218 0)
(1.03199 0.01145 0)
(1.03062 0.0121014 0)
(1.02865 0.0130774 0)
(1.02572 0.0147946 0)
(1.0005 0.00754767 0)
(1.00813 0.0156325 0)
(1.0167 0.0155206 0)
(1.02157 0.0137788 0)
(1.02357 0.0132767 0)
(1.02498 0.0130268 0)
(1.02646 0.0124504 0)
(1.02775 0.0118202 0)
(1.02873 0.0113307 0)
(1.02951 0.0109415 0)
(1.03017 0.0105926 0)
(1.03075 0.0102731 0)
(1.03126 0.00998692 0)
(1.03172 0.0097322 0)
(1.03212 0.00950365 0)
(1.03248 0.00929712 0)
(1.03281 0.00911004 0)
(1.03311 0.00894064 0)