/*--------------------------------*- C++ -*----------------------------------*\
  =========                 |
  \\      /  F ield         | OpenFOAM: The Open Source CFD Toolbox
   \\    /   O peration     | Website:  https://openfoam.org
    \\  /    A nd           | Version:  7
     \\/     M anipulation  |
\*---------------------------------------------------------------------------*/
FoamFile
{
    version     2.0;
    format      ascii;
    class       volVectorField;
    location    "0.31";
    object      wallShearStress;
}
// * * * * * * * * * * * * * * * * * * * * * * * * * * * * * * * * * * * * * //

dimensions      [0 2 -2 0 0 0 0];

internalField   uniform (0 0 0);

boundaryField
{
    velocityInlet
    {
        type            calculated;
        value           uniform (0 0 0);
    }
    pressureOutlet
    {
        type            calculated;
        value           uniform (0 0 0);
    }
    fixedWalls
    {
        type            calculated;
        value           nonuniform List<vector> 
100
(
(-0.0185201 -0.00687474 0)
(0.00362909 -0.00126893 0)
(-0.000839591 0.000443875 0)
(0.000160503 -5.42135e-06 0)
(-0.000624738 6.39643e-05 0)
(-0.000861105 7.30849e-05 0)
(-0.00166919 0.00012072 0)
(-0.00243745 0.000141221 0)
(-0.00311443 0.000114749 0)
(-0.00326085 2.95432e-05 0)
(-0.00265153 -0.000120364 0)
(-0.00101982 -0.000312228 0)
(0.00124028 -0.000383179 0)
(0.00311159 -0.000301356 0)
(0.00375502 -8.16604e-05 0)
(0.00292075 0.000151959 0)
(0.00113291 0.000267274 0)
(-0.00085926 0.000273007 0)
(-0.00260482 0.000229565 0)
(-0.00391914 0.000171255 0)
(-0.00479206 0.000118896 0)
(-0.00527168 7.47566e-05 0)
(-0.00539312 3.49321e-05 0)
(-0.00516989 -8.06307e-06 0)
(-0.00461623 -5.14558e-05 0)
(-0.00375217 -9.56598e-05 0)
(-0.00260723 -0.000143102 0)
(-0.00120762 -0.000183246 0)
(0.000441695 -0.000215566 0)
(0.00227296 -0.00025165 0)
(0.00412889 -0.0002588 0)
(0.00571835 -0.000222352 0)
(0.00675212 -0.000147284 0)
(0.00709591 -6.01397e-05 0)
(0.00679044 2.48515e-05 0)
(0.00597603 8.79879e-05 0)
(0.00482572 0.000127008 0)
(0.00350201 0.000144719 0)
(0.00213205 0.000146318 0)
(0.000799944 0.000137679 0)
(-0.000434663 0.000125434 0)
(-0.0015369 0.000105319 0)
(-0.00251798 8.94294e-05 0)
(-0.00343651 8.58778e-05 0)
(-0.00434832 9.06138e-05 0)
(-0.00524837 9.38325e-05 0)
(-0.00617889 0.000111501 0)
(-0.00731257 0.00015863 0)
(-0.00855847 0.000189504 0)
(-0.00914681 0.000124154 0)
(-0.00796152 -0.000136029 0)
(-0.00414907 -0.000532246 0)
(0.00144659 -0.000676248 0)
(0.00610816 -0.000555971 0)
(0.00806418 -0.000202315 0)
(0.00697388 0.000151559 0)
(0.00400924 0.00032535 0)
(0.000750971 0.000317084 0)
(-0.00179975 0.00022869 0)
(-0.00336743 0.000129451 0)
(-0.00411335 5.70312e-05 0)
(-0.00433242 1.53926e-05 0)
(-0.00427763 -7.11881e-06 0)
(-0.00411951 -1.42192e-05 0)
(-0.00395311 -1.33083e-05 0)
(-0.003816 -9.94913e-06 0)
(-0.00371048 -6.98263e-06 0)
(-0.00362698 -4.96594e-06 0)
(-0.00355604 -3.80165e-06 0)
(-0.00348762 -3.92103e-06 0)
(-0.00340947 -5.73441e-06 0)
(-0.00331401 -8.44591e-06 0)
(-0.00320861 -1.00399e-05 0)
(-0.00311712 -8.63445e-06 0)
(-0.00307106 -4.21816e-06 0)
(-0.00309653 3.73012e-06 0)
(-0.00320408 1.27784e-05 0)
(-0.00338315 2.09924e-05 0)
(-0.00360208 2.65028e-05 0)
(-0.00381106 2.777e-05 0)
(-0.00394352 2.44024e-05 0)
(-0.00391348 1.10516e-05 0)
(-0.00361855 -1.44752e-05 0)
(-0.0029594 -5.19889e-05 0)
(-0.00190532 -9.45622e-05 0)
(-0.000542648 -0.000127369 0)
(0.000883927 -0.000132813 0)
(0.00204392 -0.000107796 0)
(0.00266672 -5.71137e-05 0)
(0.00265552 2.16044e-07 0)
(0.00208543 4.72683e-05 0)
(0.00118223 7.3928e-05 0)
(0.000157371 7.95114e-05 0)
(-0.000826151 7.56073e-05 0)
(-0.0016326 6.3116e-05 0)
(-0.00232241 5.12297e-05 0)
(-0.00253308 2.34592e-05 0)
(-0.00263317 1.13406e-06 0)
(-0.00195871 -5.29669e-05 0)
(-0.000926675 -4.6876e-05 0)
)
;
    }
    bottomWall
    {
        type            calculated;
        value           nonuniform List<vector> 
800
(
(-0.0353488 0.00214397 0)
(-0.0160268 0.000524821 0)
(-0.0106084 0.0001007 0)
(-0.00845704 3.5242e-05 0)
(-0.00748789 1.98415e-05 0)
(-0.00685482 1.61017e-05 0)
(-0.0063479 1.33353e-05 0)
(-0.00593736 1.08788e-05 0)
(-0.00560318 9.05732e-06 0)
(-0.00532491 7.74131e-06 0)
(-0.00508798 6.7449e-06 0)
(-0.00488295 5.95777e-06 0)
(-0.00470333 5.31995e-06 0)
(-0.00454442 4.79411e-06 0)
(-0.00440262 4.35453e-06 0)
(-0.00427515 3.98241e-06 0)
(-0.00415983 3.66407e-06 0)
(-0.00405491 3.38908e-06 0)
(-0.00395898 3.14949e-06 0)
(-0.00387088 2.93933e-06 0)
(-0.00378964 2.75375e-06 0)
(-0.00371444 2.58875e-06 0)
(-0.00364463 2.44131e-06 0)
(-0.0035796 2.30903e-06 0)
(-0.00351888 2.18967e-06 0)
(-0.00346202 2.08154e-06 0)
(-0.00340866 1.98325e-06 0)
(-0.00335847 1.89354e-06 0)
(-0.00331117 1.81136e-06 0)
(-0.00326652 1.73599e-06 0)
(-0.00322428 1.66655e-06 0)
(-0.00318427 1.60231e-06 0)
(-0.00314631 1.54293e-06 0)
(-0.00311024 1.48778e-06 0)
(-0.00307592 1.43648e-06 0)
(-0.00304323 1.3886e-06 0)
(-0.00301205 1.34388e-06 0)
(-0.00298228 1.30213e-06 0)
(-0.00295382 1.26297e-06 0)
(-0.00292659 1.22614e-06 0)
(-0.00290052 1.19148e-06 0)
(-0.00287553 1.15886e-06 0)
(-0.00285155 1.12806e-06 0)
(-0.00282852 1.09908e-06 0)
(-0.00280639 1.07181e-06 0)
(-0.00278511 1.04559e-06 0)
(-0.00276462 1.02121e-06 0)
(-0.00274491 9.97294e-07 0)
(-0.00272589 9.75932e-07 0)
(-0.00270756 9.53021e-07 0)
(-0.00269225 9.34221e-07 0)
(-0.00267959 9.23604e-07 0)
(-0.00266711 9.09868e-07 0)
(-0.00265481 8.95468e-07 0)
(-0.0026427 8.81886e-07 0)
(-0.00263077 8.68887e-07 0)
(-0.00261902 8.56266e-07 0)
(-0.00260744 8.44047e-07 0)
(-0.00259602 8.32088e-07 0)
(-0.00258476 8.20221e-07 0)
(-0.00257366 8.08768e-07 0)
(-0.00256272 7.97559e-07 0)
(-0.00255193 7.8659e-07 0)
(-0.00254129 7.76027e-07 0)
(-0.00253079 7.65534e-07 0)
(-0.00252043 7.55276e-07 0)
(-0.00251021 7.45418e-07 0)
(-0.00250012 7.35623e-07 0)
(-0.00249017 7.26056e-07 0)
(-0.00248034 7.16716e-07 0)
(-0.00247065 7.07432e-07 0)
(-0.00246108 6.98541e-07 0)
(-0.00245162 6.89871e-07 0)
(-0.00244229 6.81252e-07 0)
(-0.00243307 6.73019e-07 0)
(-0.00242396 6.64672e-07 0)
(-0.00241497 6.56539e-07 0)
(-0.00240608 6.48787e-07 0)
(-0.0023973 6.41081e-07 0)
(-0.00238863 6.33588e-07 0)
(-0.00238005 6.26139e-07 0)
(-0.00237158 6.18732e-07 0)
(-0.00236321 6.11533e-07 0)
(-0.00235493 6.04709e-07 0)
(-0.00234675 5.97924e-07 0)
(-0.00233866 5.91177e-07 0)
(-0.00233066 5.84633e-07 0)
(-0.00232275 5.78128e-07 0)
(-0.00231493 5.71823e-07 0)
(-0.00230719 5.65553e-07 0)
(-0.00229954 5.5948e-07 0)
(-0.00229197 5.53609e-07 0)
(-0.00228448 5.47602e-07 0)
(-0.00227708 5.4179e-07 0)
(-0.00226975 5.36174e-07 0)
(-0.00226249 5.30756e-07 0)
(-0.00225531 5.25197e-07 0)
(-0.00224821 5.19665e-07 0)
(-0.00224118 5.14661e-07 0)
(-0.00223422 5.09516e-07 0)
(-0.00222733 5.0423e-07 0)
(-0.00222051 4.99135e-07 0)
(-0.00221376 4.94231e-07 0)
(-0.00220708 4.89518e-07 0)
(-0.00220046 4.84828e-07 0)
(-0.0021939 4.80161e-07 0)
(-0.00218741 4.75517e-07 0)
(-0.00218098 4.71061e-07 0)
(-0.00217461 4.66627e-07 0)
(-0.0021683 4.62047e-07 0)
(-0.00216206 4.57822e-07 0)
(-0.00215586 4.53783e-07 0)
(-0.00214973 4.49597e-07 0)
(-0.00214365 4.4543e-07 0)
(-0.00213763 4.41281e-07 0)
(-0.00213167 4.37484e-07 0)
(-0.00212575 4.33538e-07 0)
(-0.00211989 4.29608e-07 0)
(-0.00211408 4.26028e-07 0)
(-0.00210832 4.22131e-07 0)
(-0.00210262 4.18417e-07 0)
(-0.00209697 4.1505e-07 0)
(-0.00209135 4.11364e-07 0)
(-0.0020858 4.07693e-07 0)
(-0.00208029 4.0437e-07 0)
(-0.00207483 4.01061e-07 0)
(-0.0020694 3.97598e-07 0)
(-0.00206404 3.9415e-07 0)
(-0.00205871 3.91048e-07 0)
(-0.00205342 3.87793e-07 0)
(-0.00204819 3.84552e-07 0)
(-0.00204299 3.81489e-07 0)
(-0.00203784 3.78438e-07 0)
(-0.00203273 3.75401e-07 0)
(-0.00202766 3.72374e-07 0)
(-0.00202263 3.69527e-07 0)
(-0.00201763 3.66526e-07 0)
(-0.00201269 3.63533e-07 0)
(-0.00200778 3.60726e-07 0)
(-0.0020029 3.5792e-07 0)
(-0.00199807 3.55305e-07 0)
(-0.00199327 3.52515e-07 0)
(-0.00198851 3.49767e-07 0)
(-0.00198379 3.47148e-07 0)
(-0.0019791 3.44609e-07 0)
(-0.00197445 3.41981e-07 0)
(-0.00196983 3.395e-07 0)
(-0.00196525 3.3684e-07 0)
(-0.0019607 3.34415e-07 0)
(-0.00195619 3.31859e-07 0)
(-0.0019524 3.29358e-07 0)
(-0.0019493 3.28139e-07 0)
(-0.00194619 3.26547e-07 0)
(-0.00194308 3.24859e-07 0)
(-0.00193996 3.23223e-07 0)
(-0.00193684 3.21386e-07 0)
(-0.00193371 3.19797e-07 0)
(-0.00193058 3.18205e-07 0)
(-0.00192743 3.16395e-07 0)
(-0.00192429 3.14814e-07 0)
(-0.00192114 3.13246e-07 0)
(-0.00191799 3.11453e-07 0)
(-0.00191483 3.09898e-07 0)
(-0.00191166 3.0834e-07 0)
(-0.00190849 3.06575e-07 0)
(-0.00190531 3.04811e-07 0)
(-0.00190213 3.03274e-07 0)
(-0.00189895 3.01739e-07 0)
(-0.00189576 3.00211e-07 0)
(-0.00189256 2.98474e-07 0)
(-0.00188936 2.96747e-07 0)
(-0.00188615 2.9523e-07 0)
(-0.00188294 2.93522e-07 0)
(-0.00187973 2.91807e-07 0)
(-0.00187651 2.90314e-07 0)
(-0.00187329 2.88817e-07 0)
(-0.00187006 2.87127e-07 0)
(-0.00186683 2.85443e-07 0)
(-0.00186359 2.83767e-07 0)
(-0.00186035 2.82093e-07 0)
(-0.00185711 2.80633e-07 0)
(-0.00185386 2.79161e-07 0)
(-0.0018506 2.77517e-07 0)
(-0.00184735 2.75678e-07 0)
(-0.00184409 2.74044e-07 0)
(-0.00184083 2.72604e-07 0)
(-0.00183756 2.70985e-07 0)
(-0.00183429 2.69366e-07 0)
(-0.00183102 2.6777e-07 0)
(-0.00182774 2.66159e-07 0)
(-0.00182446 2.6476e-07 0)
(-0.00182117 2.63168e-07 0)
(-0.00181788 2.61411e-07 0)
(-0.0018146 2.5984e-07 0)
(-0.0018113 2.58458e-07 0)
(-0.001808 2.56902e-07 0)
(-0.0018047 2.5518e-07 0)
(-0.0018014 2.53638e-07 0)
(-0.00179809 2.52295e-07 0)
(-0.00179478 2.50585e-07 0)
(-0.00179147 2.49079e-07 0)
(-0.00178815 2.47735e-07 0)
(-0.00178483 2.4607e-07 0)
(-0.00178151 2.44578e-07 0)
(-0.00177819 2.43098e-07 0)
(-0.00177486 2.41452e-07 0)
(-0.00177153 2.40002e-07 0)
(-0.0017682 2.38525e-07 0)
(-0.00176487 2.37094e-07 0)
(-0.00176153 2.35797e-07 0)
(-0.00175818 2.34207e-07 0)
(-0.00175484 2.32619e-07 0)
(-0.0017515 2.31356e-07 0)
(-0.00174815 2.29946e-07 0)
(-0.0017448 2.28421e-07 0)
(-0.00174144 2.26998e-07 0)
(-0.00173809 2.25635e-07 0)
(-0.00173473 2.24103e-07 0)
(-0.00173137 2.22751e-07 0)
(-0.001728 2.21535e-07 0)
(-0.00172463 2.20191e-07 0)
(-0.00172126 2.18711e-07 0)
(-0.00171789 2.17381e-07 0)
(-0.00171451 2.16223e-07 0)
(-0.00171113 2.14938e-07 0)
(-0.00170775 2.13503e-07 0)
(-0.00170436 2.12215e-07 0)
(-0.00170097 2.11141e-07 0)
(-0.00169758 2.09933e-07 0)
(-0.00169417 2.08728e-07 0)
(-0.00169078 2.07345e-07 0)
(-0.00168736 2.06586e-07 0)
(-0.00168396 2.04858e-07 0)
(-0.00168053 2.04611e-07 0)
(-0.00167713 2.02395e-07 0)
(-0.00167366 2.03263e-07 0)
(-0.00167028 1.99014e-07 0)
(-0.00166676 2.03121e-07 0)
(-0.00166343 1.94607e-07 0)
(-0.00165979 2.05177e-07 0)
(-0.00165661 1.86889e-07 0)
(-0.00165271 2.1264e-07 0)
(-0.00164983 1.72292e-07 0)
(-0.00164547 2.30164e-07 0)
(-0.00164319 1.44298e-07 0)
(-0.00163796 2.66944e-07 0)
(-0.00163673 9.12242e-08 0)
(-0.00163018 3.3241e-07 0)
(-0.00163044 7.54173e-09 0)
(-0.00162215 3.6565e-07 0)
(-0.0353486 -0.002144 0)
(-0.0160255 -0.000524879 0)
(-0.0106054 -0.000100768 0)
(-0.00845219 -3.53084e-05 0)
(-0.00748106 -1.99093e-05 0)
(-0.00684594 -1.61723e-05 0)
(-0.0063369 -1.34088e-05 0)
(-0.00592414 -1.09556e-05 0)
(-0.00558768 -9.13807e-06 0)
(-0.00530702 -7.82652e-06 0)
(-0.00506759 -6.83537e-06 0)
(-0.00485991 -6.05441e-06 0)
(-0.00467749 -5.42338e-06 0)
(-0.00451561 -4.90481e-06 0)
(-0.00437066 -4.47309e-06 0)
(-0.00423987 -4.10916e-06 0)
(-0.00412107 -3.79927e-06 0)
(-0.00401248 -3.53321e-06 0)
(-0.00391271 -3.30294e-06 0)
(-0.00382058 -3.10277e-06 0)
(-0.00373513 -2.92761e-06 0)
(-0.00365554 -2.77388e-06 0)
(-0.00358112 -2.63888e-06 0)
(-0.00351127 -2.52017e-06 0)
(-0.00344548 -2.41572e-06 0)
(-0.00338329 -2.32439e-06 0)
(-0.00332431 -2.24479e-06 0)
(-0.00326815 -2.17633e-06 0)
(-0.00321453 -2.11814e-06 0)
(-0.00316309 -2.07014e-06 0)
(-0.00311361 -2.03147e-06 0)
(-0.00306576 -2.00336e-06 0)
(-0.00301935 -1.98345e-06 0)
(-0.00297405 -1.97572e-06 0)
(-0.00292971 -1.97422e-06 0)
(-0.00288594 -1.98764e-06 0)
(-0.0028427 -2.00162e-06 0)
(-0.00279951 -2.03413e-06 0)
(-0.00275637 -2.05547e-06 0)
(-0.00271309 -2.09077e-06 0)
(-0.0026691 -2.0973e-06 0)
(-0.00262611 -2.07278e-06 0)
(-0.00258056 -2.01363e-06 0)
(-0.00254121 -1.73316e-06 0)
(-0.00249556 -1.46619e-06 0)
(-0.0024691 -4.06635e-07 0)
(-0.00243884 4.8923e-07 0)
(-0.00243196 4.44953e-06 0)
(-0.00253766 -1.38223e-07 0)
(-0.00224139 0.000183478 0)
(0.000107852 -5.7287e-05 0)
(8.85075e-05 -0.000256427 0)
(2.37899e-05 -0.000368563 0)
(-1.51889e-05 -0.000390644 0)
(9.58586e-06 -0.000390815 0)
(8.88679e-06 -0.000382293 0)
(-3.46772e-05 -0.000319084 0)
(-5.37031e-05 -0.000240066 0)
(-5.71171e-05 -0.000158942 0)
(-5.52313e-05 -8.4793e-05 0)
(-5.26594e-05 -1.91924e-05 0)
(-5.14691e-05 3.62382e-05 0)
(-4.99322e-05 8.82503e-05 0)
(-4.47954e-05 0.000132685 0)
(-3.4971e-05 0.000166383 0)
(-2.01713e-05 0.000183402 0)
(-1.52176e-06 0.000179731 0)
(1.97589e-05 0.000151839 0)
(4.09952e-05 9.89659e-05 0)
(6.01419e-05 2.44589e-05 0)
(7.57747e-05 -6.92203e-05 0)
(8.61506e-05 -0.000176228 0)
(9.14743e-05 -0.000288721 0)
(9.25415e-05 -0.000402672 0)
(8.98967e-05 -0.000514174 0)
(8.44046e-05 -0.000619925 0)
(7.70911e-05 -0.000717698 0)
(6.875e-05 -0.000806349 0)
(5.99924e-05 -0.000885462 0)
(5.12879e-05 -0.000955122 0)
(4.29646e-05 -0.00101577 0)
(3.52185e-05 -0.00106809 0)
(2.8145e-05 -0.00111285 0)
(2.17797e-05 -0.00115084 0)
(1.61172e-05 -0.00118287 0)
(1.11198e-05 -0.00120968 0)
(6.74592e-06 -0.00123195 0)
(2.94577e-06 -0.00125033 0)
(-3.31783e-07 -0.00126538 0)
(-3.1352e-06 -0.00127762 0)
(-5.51898e-06 -0.0012875 0)
(-7.52298e-06 -0.00129543 0)
(-9.19394e-06 -0.00130179 0)
(-1.05824e-05 -0.00130689 0)
(-1.17401e-05 -0.00131103 0)
(-1.2723e-05 -0.00131443 0)
(-1.35908e-05 -0.00131729 0)
(-1.44204e-05 -0.00131977 0)
(-1.52931e-05 -0.00132193 0)
(-1.63116e-05 -0.00132384 0)
(-1.75891e-05 -0.00132544 0)
(-1.92585e-05 -0.00132663 0)
(-2.15295e-05 -0.00132722 0)
(-2.46177e-05 -0.00132687 0)
(-2.87133e-05 -0.00132529 0)
(-3.41327e-05 -0.00132189 0)
(-4.11255e-05 -0.00131602 0)
(-4.99886e-05 -0.00130692 0)
(-6.13202e-05 -0.00129353 0)
(-7.56856e-05 -0.00127459 0)
(-9.31725e-05 -0.00124866 0)
(-0.000114061 -0.00121424 0)
(-0.000138571 -0.0011696 0)
(-0.000166753 -0.00111307 0)
(-0.000198582 -0.00104318 0)
(-0.000233639 -0.000958087 0)
(-0.000270992 -0.000855554 0)
(-0.000307964 -0.000732774 0)
(-0.000337162 -0.000586961 0)
(-0.000344117 -0.000420204 0)
(-0.000319069 -0.000245107 0)
(-0.000267478 -7.11336e-05 0)
(-0.000183057 9.85062e-05 0)
(-6.32273e-05 0.000239137 0)
(6.84342e-05 0.00033011 0)
(0.000193085 0.000380406 0)
(0.000297045 0.000390867 0)
(0.000367502 0.000368098 0)
(0.000394831 0.000321142 0)
(0.000379533 0.00026353 0)
(0.000322591 0.000203442 0)
(0.000229421 0.000153041 0)
(0.000113018 0.000124178 0)
(-1.8568e-06 0.000128143 0)
(-8.35075e-05 0.000161548 0)
(-0.000113972 0.000195802 0)
(-0.00010806 0.000202902 0)
(-0.000101079 0.000183588 0)
(-0.00010563 0.000163856 0)
(-0.000107754 0.00016087 0)
(-9.42986e-05 0.000171309 0)
(-6.50105e-05 0.000184164 0)
(-2.52556e-05 0.000190368 0)
(1.73144e-05 0.000182868 0)
(5.13737e-05 0.000160894 0)
(7.05233e-05 0.000133051 0)
(8.00719e-05 0.000108106 0)
(8.89641e-05 8.53419e-05 0)
(0.000102549 5.80186e-05 0)
(0.000120108 1.87128e-05 0)
(0.000135442 -3.47192e-05 0)
(0.000144362 -9.67226e-05 0)
(0.000148006 -0.000161589 0)
(0.000148136 -0.000226874 0)
(0.000145214 -0.000290915 0)
(0.000139483 -0.000352157 0)
(0.000131577 -0.000409225 0)
(0.000122291 -0.000461519 0)
(0.000112026 -0.000509009 0)
(0.000100759 -0.000551698 0)
(8.83432e-05 -0.000589396 0)
(7.46958e-05 -0.000621841 0)
(5.97489e-05 -0.000648812 0)
(4.33576e-05 -0.000670069 0)
(2.5407e-05 -0.000685239 0)
(5.63402e-06 -0.000693829 0)
(-1.56728e-05 -0.000694583 0)
(-3.73124e-05 -0.000687002 0)
(-5.77938e-05 -0.000670728 0)
(-7.55238e-05 -0.000646047 0)
(-8.88332e-05 -0.000613892 0)
(-9.62132e-05 -0.000575808 0)
(-9.65325e-05 -0.000534025 0)
(-8.93041e-05 -0.000491432 0)
(-7.45514e-05 -0.000451142 0)
(-5.2503e-05 -0.000415954 0)
(-2.43407e-05 -0.000388093 0)
(5.51651e-06 -0.00036547 0)
(3.30362e-05 -0.000339756 0)
(5.8869e-05 -0.000313592 0)
(7.12774e-05 -0.000306722 0)
(3.80306e-05 -0.000325899 0)
(-6.93443e-05 -0.000335293 0)
(-0.000233178 -0.000272612 0)
(-0.000388933 -0.000121366 0)
(-0.000496059 6.84324e-05 0)
(-0.000562331 0.000252853 0)
(-0.000605535 0.000425865 0)
(-0.000634434 0.000595686 0)
(-0.000650731 0.000764031 0)
(-0.000655618 0.000928705 0)
(-0.000650894 0.00108732 0)
(-0.000638743 0.00123865 0)
(-0.000622714 0.00138554 0)
(-0.000602152 0.00152437 0)
(-0.000577821 0.00165458 0)
(-0.000550458 0.00177566 0)
(-0.000520681 0.0018873 0)
(-0.000489034 0.00198936 0)
(-0.000455931 0.00208182 0)
(-0.00042175 0.00216473 0)
(-0.000386775 0.00223828 0)
(-0.000351213 0.00230264 0)
(-0.000315249 0.00235806 0)
(-0.000279025 0.00240478 0)
(-0.000242662 0.00244306 0)
(-0.000206231 0.00247314 0)
(-0.000169794 0.00249515 0)
(-0.000133702 0.00251316 0)
(-9.78107e-05 0.00252631 0)
(-6.20408e-05 0.00253261 0)
(-2.68823e-05 0.0025322 0)
(7.59156e-06 0.00252576 0)
(4.19868e-05 0.00251363 0)
(7.64065e-05 0.00249577 0)
(0.000110781 0.00247232 0)
(0.000145144 0.00244335 0)
(0.000179508 0.00240896 0)
(0.000213894 0.0023692 0)
(0.000248272 0.00232415 0)
(0.000282606 0.00227386 0)
(0.000316826 0.00221839 0)
(0.000350844 0.00215781 0)
(0.000384539 0.00209219 0)
(0.000417727 0.0020216 0)
(0.000450195 0.00194615 0)
(0.000481683 0.00186601 0)
(0.00051191 0.00178139 0)
(0.000540553 0.00169258 0)
(0.000567313 0.00159999 0)
(0.000591948 0.00150413 0)
(0.000614238 0.00140554 0)
(0.000634014 0.00130475 0)
(0.000651146 0.00120248 0)
(0.000665764 0.0010994 0)
(0.000681743 0.00100163 0)
(0.000695821 0.000903991 0)
(0.000707758 0.000806344 0)
(0.000717791 0.000708551 0)
(0.00072565 0.000609635 0)
(0.00073025 0.000507766 0)
(0.000729 0.000400058 0)
(0.000717005 0.000282612 0)
(0.000686348 0.000150794 0)
(0.000626321 -5.24039e-07 0)
(0.000525021 -0.000176068 0)
(0.000376838 -0.000386382 0)
(0.000148629 -0.000633019 0)
(-0.000194718 -0.000914379 0)
(-0.000625361 -0.00119614 0)
(-2.98787e-06 -0.000120458 0)
(0.000163606 -0.000150771 0)
(0.000299336 -0.000124688 0)
(0.000346205 -4.61942e-05 0)
(0.000324023 7.23557e-06 0)
(0.000296527 2.05422e-05 0)
(0.000298026 3.92434e-05 0)
(0.000330117 6.52528e-05 0)
(0.000336512 6.19387e-05 0)
(0.000321224 2.14787e-05 0)
(0.000308295 -8.7477e-06 0)
(0.000306595 -5.96617e-06 0)
(0.000311813 6.80389e-06 0)
(0.0002966 3.22912e-05 0)
(0.000240217 7.84752e-05 0)
(0.000125698 0.000131922 0)
(-4.00272e-05 0.000164853 0)
(-0.000216192 0.000155081 0)
(-0.000360538 0.000104774 0)
(-0.000440873 2.35735e-05 0)
(-0.000434492 -7.22193e-05 0)
(-0.000335068 -0.000157448 0)
(-0.00015802 -0.000204388 0)
(5.59014e-05 -0.000202766 0)
(0.000261559 -0.000173731 0)
(0.000428591 -0.000146516 0)
(0.000522885 -0.000118361 0)
(0.000562424 -5.98907e-05 0)
(0.000569174 4.76919e-05 0)
(0.000543265 0.00018163 0)
(0.000486354 0.000265791 0)
(0.000433166 0.000190065 0)
(0.000468125 -1.17416e-05 0)
(0.000637509 -0.000169513 0)
(0.000852728 -0.000174684 0)
(0.00100245 -0.000139835 0)
(0.00113952 -0.000198142 0)
(0.00133237 -0.000258749 0)
(0.0015264 -0.000268981 0)
(0.00169446 -0.000255511 0)
(0.00182944 -0.000210674 0)
(0.00191265 -0.000146174 0)
(0.00194282 -7.14745e-05 0)
(0.00191463 6.62826e-06 0)
(0.00183145 7.87978e-05 0)
(0.00169915 0.000146414 0)
(0.00151756 0.000214331 0)
(0.00128403 0.000283794 0)
(0.000997218 0.000352071 0)
(0.000658858 0.000415088 0)
(0.000273267 0.000466322 0)
(-0.000147691 0.000499169 0)
(-0.000587475 0.000504839 0)
(-0.00102071 0.000478212 0)
(-0.0014175 0.000416217 0)
(-0.0017487 0.000323183 0)
(-0.00199105 0.000208626 0)
(-0.00213168 8.6343e-05 0)
(-0.00217159 -2.8573e-05 0)
(-0.00213021 -0.000122003 0)
(-0.00202796 -0.000187801 0)
(-0.00188116 -0.000222554 0)
(-0.00171509 -0.000229745 0)
(-0.00154956 -0.000216441 0)
(-0.00139836 -0.000189582 0)
(-0.00126983 -0.000155074 0)
(-0.00116844 -0.000116991 0)
(-0.00109612 -7.7759e-05 0)
(-0.00105311 -3.93991e-05 0)
(-0.00104109 -3.86426e-06 0)
(-0.00105663 2.75498e-05 0)
(-0.00109536 5.47323e-05 0)
(-0.00115337 7.66061e-05 0)
(-0.00122645 9.27145e-05 0)
(-0.00131063 0.000103205 0)
(-0.00140213 0.000107657 0)
(-0.00149629 0.000105483 0)
(-0.00158822 9.6221e-05 0)
(-0.00167184 7.98977e-05 0)
(-0.00174225 5.69137e-05 0)
(-0.00179347 2.70959e-05 0)
(-0.0018206 -9.11049e-06 0)
(-0.00181879 -5.13909e-05 0)
(-0.0017854 -0.000100041 0)
(-0.00171744 -0.000159055 0)
(-0.00161023 -0.000235532 0)
(-0.00144846 -0.000341471 0)
(-0.00120881 -0.00048624 0)
(-0.000838734 -0.000668648 0)
(-0.000242951 -0.000754245 0)
(0.000464248 -0.00040242 0)
(0.0006814 0.000215055 0)
(0.000572374 0.000249885 0)
(0.000588064 2.04896e-05 0)
(0.000551905 1.4234e-05 0)
(0.000504331 5.76183e-05 0)
(0.000426438 0.000110617 0)
(0.000293008 0.000164912 0)
(0.000113445 0.000152015 0)
(-1.77221e-05 7.27468e-05 0)
(5.46425e-05 2.74318e-05 0)
(0.000116413 0.000168473 0)
(0.000209864 0.000423489 0)
(0.000220666 0.000743139 0)
(0.000107491 0.000926717 0)
(-2.80188e-05 0.000903455 0)
(-9.92136e-05 0.000771501 0)
(-0.000117339 0.000616292 0)
(-0.000104847 0.000473593 0)
(-7.28734e-05 0.000356188 0)
(-4.25612e-05 0.00027352 0)
(-4.45658e-05 0.00022918 0)
(-4.21774e-05 0.000213961 0)
(-1.66847e-05 0.00020803 0)
(9.77388e-06 0.000217123 0)
(5.4031e-05 0.000268695 0)
(0.00013945 0.000402593 0)
(0.000244957 0.000653866 0)
(0.000262593 0.000969261 0)
(0.000102413 0.00113404 0)
(-9.55217e-05 0.00101785 0)
(-0.000143065 0.000787975 0)
(-7.76804e-05 0.000633906 0)
(-1.39059e-05 0.000581467 0)
(2.95441e-05 0.000610083 0)
(4.76705e-05 0.000688877 0)
(3.47389e-05 0.00077274 0)
(-1.6386e-06 0.000811456 0)
(-5.43933e-05 0.000795514 0)
(-0.000135799 0.000689564 0)
(-0.000243481 0.000456337 0)
(-0.000326955 0.000105299 0)
(-0.000323168 -0.000279478 0)
(-0.000243757 -0.000584165 0)
(-0.000125199 -0.000766498 0)
(7.23638e-06 -0.000838102 0)
(0.000139153 -0.000836717 0)
(0.000257584 -0.000780726 0)
(0.000351981 -0.000691646 0)
(0.00040487 -0.000583339 0)
(0.000375348 -0.000448569 0)
(0.000181003 -0.000301936 0)
(-0.000196786 -0.000227765 0)
(-0.000601482 -0.000296054 0)
(-0.000842955 -0.000458404 0)
(-0.000851593 -0.000628864 0)
(-0.000607554 -0.000708067 0)
(-0.000162724 -0.000657977 0)
(0.000462242 -0.000385919 0)
(0.00105125 0.00030257 0)
(0.000918406 0.000981076 0)
(0.00064036 0.00134141 0)
(0.000535576 0.00158413 0)
(0.00044968 0.00183695 0)
(0.000370735 0.00202959 0)
(0.000307953 0.00219179 0)
(0.000252143 0.00231919 0)
(0.00020684 0.00242126 0)
(0.000168747 0.00250178 0)
(0.000138154 0.00256526 0)
(0.000113194 0.00261551 0)
(9.34687e-05 0.00265505 0)
(7.76522e-05 0.00268668 0)
(6.52272e-05 0.0027118 0)
(5.53648e-05 0.00273219 0)
(4.75497e-05 0.00274872 0)
(4.13364e-05 0.00276243 0)
(3.6402e-05 0.00277393 0)
(3.2527e-05 0.00278384 0)
(2.95463e-05 0.00279259 0)
(2.73438e-05 0.00280059 0)
(2.58272e-05 0.00280814 0)
(2.49393e-05 0.00281554 0)
(2.46079e-05 0.00282303 0)
(2.47805e-05 0.00283079 0)
(2.5399e-05 0.00283899 0)
(2.64176e-05 0.00284774 0)
(2.77813e-05 0.00285715 0)
(2.94338e-05 0.00286727 0)
(3.13334e-05 0.00287813 0)
(3.34292e-05 0.00288976 0)
(3.56798e-05 0.00290215 0)
(3.80341e-05 0.0029153 0)
(4.04348e-05 0.00292916 0)
(4.2837e-05 0.00294369 0)
(4.51869e-05 0.00295883 0)
(4.74298e-05 0.0029745 0)
(4.95166e-05 0.00299061 0)
(5.14008e-05 0.00300706 0)
(5.30632e-05 0.00302376 0)
(5.44829e-05 0.00304063 0)
(5.56694e-05 0.00305757 0)
(5.6652e-05 0.00307454 0)
(5.74694e-05 0.0030915 0)
(5.81954e-05 0.00310845 0)
(5.88903e-05 0.00312542 0)
(5.96244e-05 0.00314246 0)
(6.04736e-05 0.00315964 0)
(6.15029e-05 0.00317708 0)
(6.27679e-05 0.00319488 0)
(6.43064e-05 0.00321318 0)
(6.61498e-05 0.00323226 0)
(6.83108e-05 0.0032521 0)
(7.0793e-05 0.00327283 0)
(7.35948e-05 0.00329453 0)
(7.67015e-05 0.0033173 0)
(8.00881e-05 0.00334123 0)
(8.37263e-05 0.00336638 0)
(8.75856e-05 0.0033928 0)
(9.16413e-05 0.00342053 0)
(9.58585e-05 0.0034496 0)
(0.000100212 0.00348001 0)
(0.000104677 0.0035118 0)
(0.00010922 0.00354496 0)
(0.000113823 0.00357948 0)
(0.000118466 0.00361536 0)
(0.000123155 0.00365257 0)
(0.000127898 0.00369112 0)
(0.000132709 0.00373099 0)
(0.000137632 0.00377216 0)
(0.00014274 0.00381464 0)
(0.000148105 0.00385845 0)
(0.000153814 0.00390357 0)
(0.00015996 0.00395004 0)
(0.000166615 0.00399784 0)
(0.000173824 0.00404698 0)
(0.000181568 0.00409744 0)
(0.000189749 0.00414913 0)
(0.000198138 0.00420199 0)
(0.000206357 0.00425584 0)
(0.000213899 0.00431046 0)
(0.000220124 0.00436549 0)
(0.000224341 0.00442049 0)
(0.000225889 0.00447483 0)
(0.000224263 0.00452777 0)
(0.000219243 0.00457844 0)
(0.000210905 0.00462602 0)
(0.000199658 0.00466975 0)
(0.000186117 0.00470911 0)
(0.000170962 0.00474379 0)
(0.000154849 0.00477373 0)
(0.00013824 0.004799 0)
(0.000121398 0.00481974 0)
(0.000104437 0.00483755 0)
(8.72431e-05 0.00485169 0)
(6.96823e-05 0.00486179 0)
(5.15206e-05 0.00486775 0)
(3.28677e-05 0.00486931 0)
(1.36276e-05 0.0048667 0)
(-6.54645e-06 0.00485973 0)
(-2.77412e-05 0.00484824 0)
(-5.00244e-05 0.00483206 0)
(-7.34399e-05 0.00481104 0)
(-9.80189e-05 0.00478506 0)
(-0.000123777 0.004754 0)
(-0.00015074 0.00471778 0)
(-0.00017891 0.00467631 0)
(-0.000208274 0.00462951 0)
(-0.000238835 0.00457734 0)
(-0.00027058 0.00451974 0)
(-0.00030352 0.00445669 0)
(-0.000337665 0.00438815 0)
(-0.000373002 0.0043141 0)
(-0.000409558 0.00423452 0)
(-0.000447351 0.0041494 0)
(-0.000486414 0.00405874 0)
(-0.000526797 0.00396254 0)
(-0.000568567 0.00386079 0)
(-0.000611801 0.00375348 0)
(-0.000656601 0.00364063 0)
(-0.000703078 0.0035222 0)
(-0.000751372 0.00339821 0)
(-0.000801685 0.00326862 0)
(-0.000854187 0.00313337 0)
(-0.00090908 0.00299244 0)
(-0.000966645 0.00284581 0)
(-0.0010272 0.00269337 0)
(-0.00109108 0.00253503 0)
(-0.00115882 0.00237074 0)
(-0.00123078 0.00219984 0)
(-0.00132061 0.00204358 0)
(-0.00142233 0.00188441 0)
(-0.00153627 0.00171736 0)
(-0.00166259 0.00153899 0)
(-0.00180039 0.00134587 0)
(-0.00194641 0.00113494 0)
(-0.00209683 0.000905287 0)
(-0.00224871 0.000658099 0)
(-0.00240092 0.000396819 0)
(-0.00255239 0.000126111 0)
(-0.00270695 -0.000149316 0)
(-0.00287314 -0.000426553 0)
(-0.00305969 -0.000709833 0)
(-0.00327601 -0.000993214 0)
(-0.00357308 -0.00132634 0)
(-0.00389603 -0.00161437 0)
(-0.00428518 -0.00206365 0)
(-0.00463806 -0.00221036 0)
(-0.00513339 -0.00303523 0)
(-0.0051277 -0.00246287 0)
)
;
    }
    frontAndBack
    {
        type            empty;
    }
}


// ************************************************************************* //
