/*--------------------------------*- C++ -*----------------------------------*\
  =========                 |
  \\      /  F ield         | OpenFOAM: The Open Source CFD Toolbox
   \\    /   O peration     | Website:  https://openfoam.org
    \\  /    A nd           | Version:  7
     \\/     M anipulation  |
\*---------------------------------------------------------------------------*/
FoamFile
{
    version     2.0;
    format      ascii;
    class       volScalarField;
    location    "0.31";
    object      yPlus;
}
// * * * * * * * * * * * * * * * * * * * * * * * * * * * * * * * * * * * * * //

dimensions      [0 0 0 0 0 0 0];

internalField   uniform 0;

boundaryField
{
    velocityInlet
    {
        type            calculated;
        value           uniform 0;
    }
    pressureOutlet
    {
        type            calculated;
        value           uniform 0;
    }
    fixedWalls
    {
        type            calculated;
        value           nonuniform List<scalar> 
100
(
2.23965
0.91233
0.468948
0.205865
0.392005
0.460148
0.640483
0.773585
0.873965
0.893759
0.805244
0.500359
0.554866
0.873478
0.958516
0.84529
0.52759
0.460921
0.799397
0.980401
1.08413
1.13712
1.15013
1.12604
1.064
0.959202
0.79954
0.544343
0.332575
0.747398
1.00667
1.18438
1.28683
1.31913
1.29043
1.21063
1.08796
0.926897
0.723349
0.443488
0.327183
0.613981
0.785934
0.918233
1.0329
1.13479
1.23139
1.33968
1.4492
1.49771
1.39649
1.00808
0.602938
1.22417
1.40557
1.30709
0.991576
0.432635
0.664424
0.908635
1.00437
1.03085
1.02437
1.0053
0.984809
0.967584
0.95411
0.94331
0.934037
0.925001
0.91457
0.901674
0.887227
0.874499
0.86803
0.871636
0.886646
0.911082
0.94009
0.966964
0.983603
0.979806
0.942102
0.851915
0.683524
0.365426
0.466221
0.708111
0.808674
0.806936
0.715106
0.538511
0.198167
0.45032
0.632887
0.754794
0.788254
0.803623
0.693071
0.476829
)
;
    }
    bottomWall
    {
        type            calculated;
        value           nonuniform List<scalar> 
800
(
2.94479
1.98393
1.61349
1.44044
1.35537
1.29681
1.24794
1.20691
1.17246
1.14297
1.11725
1.09451
1.07419
1.05589
1.03929
1.02413
1.01022
0.997401
0.985533
0.974505
0.964224
0.95461
0.945597
0.937123
0.92914
0.921603
0.914473
0.907716
0.901301
0.895204
0.889397
0.883861
0.878577
0.873526
0.868694
0.864065
0.859627
0.855369
0.851278
0.847345
0.843562
0.83992
0.83641
0.833027
0.829761
0.826609
0.823563
0.820622
0.817774
0.815021
0.812712
0.8108
0.808908
0.807042
0.805199
0.80338
0.801583
0.799809
0.798055
0.796323
0.794612
0.792921
0.79125
0.789598
0.787965
0.786351
0.784755
0.783177
0.781616
0.780073
0.778546
0.777037
0.775543
0.774065
0.772603
0.771155
0.769724
0.768306
0.766903
0.765514
0.764139
0.762778
0.76143
0.760096
0.758774
0.757465
0.756169
0.754884
0.753612
0.752352
0.751104
0.749866
0.74864
0.747426
0.746222
0.745029
0.743845
0.742673
0.741511
0.740358
0.739216
0.738084
0.736961
0.735848
0.734743
0.733648
0.732561
0.731484
0.730415
0.729355
0.728304
0.72726
0.726224
0.725197
0.724178
0.723167
0.722163
0.721167
0.720178
0.719197
0.718224
0.717257
0.716297
0.715345
0.714399
0.71346
0.712528
0.711603
0.710684
0.709771
0.708866
0.707966
0.707073
0.706185
0.705304
0.704429
0.703559
0.702695
0.701838
0.700986
0.70014
0.699298
0.698463
0.697633
0.696808
0.695989
0.695175
0.694365
0.693562
0.692763
0.692091
0.691542
0.69099
0.690438
0.689883
0.689328
0.688771
0.688212
0.687652
0.687092
0.686529
0.685965
0.685399
0.684832
0.684264
0.683695
0.683124
0.682552
0.681978
0.681402
0.680826
0.680248
0.679669
0.679089
0.678508
0.677925
0.67734
0.676755
0.676168
0.67558
0.674991
0.6744
0.673808
0.673215
0.672621
0.672026
0.671429
0.670831
0.670232
0.669633
0.669031
0.668428
0.667824
0.66722
0.666614
0.666007
0.665398
0.66479
0.664179
0.663567
0.662955
0.662341
0.661725
0.66111
0.660492
0.659874
0.659256
0.658635
0.658014
0.657391
0.656767
0.656143
0.655517
0.65489
0.654262
0.653633
0.653002
0.652371
0.651739
0.651106
0.65047
0.649834
0.649198
0.648559
0.647919
0.647278
0.646636
0.645993
0.645348
0.644701
0.644054
0.643403
0.642754
0.642099
0.641449
0.640786
0.640139
0.639463
0.638825
0.638124
0.637513
0.636763
0.636208
0.635367
0.634925
0.633916
0.633676
0.632408
0.632459
0.630847
2.94478
1.98384
1.61327
1.44003
1.35475
1.29597
1.24686
1.20557
1.17083
1.14105
1.11501
1.09193
1.07124
1.05254
1.03551
1.0199
1.0055
0.992169
0.979756
0.968153
0.957265
0.947011
0.937322
0.928136
0.919399
0.911064
0.903087
0.895427
0.88805
0.880917
0.873999
0.867258
0.860668
0.854188
0.847796
0.841439
0.835111
0.828744
0.822334
0.815852
0.80921
0.802668
0.795677
0.789586
0.782464
0.778307
0.773526
0.772433
0.789453
0.743538
0.944777
1.58224
1.893
1.98151
1.99409
1.94471
1.76096
1.54067
1.26503
0.940563
0.570834
0.67264
0.958777
1.1563
1.28509
1.34277
1.32415
1.21262
0.977211
0.566194
0.8902
1.3495
1.70983
2.01133
2.2686
2.48872
2.67664
2.83661
2.97237
3.08718
3.18392
3.26519
3.33323
3.38997
3.43711
3.47613
3.50825
3.53456
3.55598
3.57332
3.58728
3.59845
3.60739
3.61456
3.62036
3.6251
3.62906
3.63244
3.63535
3.63785
3.63986
3.64122
3.64162
3.64062
3.63781
3.63234
3.62336
3.60964
3.58957
3.56152
3.52346
3.4729
3.40696
3.32258
3.21663
3.08482
2.92174
2.72091
2.47431
2.1693
1.79
1.31889
0.90564
1.28826
1.64364
1.88246
2.0267
2.08951
2.07267
1.99223
1.85171
1.66563
1.48097
1.4071
1.46172
1.5093
1.48874
1.42478
1.35955
1.31273
1.2856
1.27585
1.26886
1.24686
1.2013
1.13523
1.06057
0.976469
0.875307
0.793778
0.881036
1.10111
1.33012
1.53813
1.72177
1.88243
2.022
2.1428
2.2471
2.33669
2.41269
2.47582
2.52655
2.56512
2.59145
2.60537
2.60555
2.59216
2.56483
2.52351
2.46898
2.40295
2.32796
2.24755
2.1668
2.09421
2.04035
2.00636
1.97424
1.92105
1.8286
1.66396
1.37643
1.07856
1.32521
1.71037
2.0557
2.36919
2.65543
2.91599
3.15293
3.36848
3.56514
3.7493
3.91699
4.06908
4.20638
4.32971
4.43988
4.53768
4.62381
4.69898
4.76382
4.81892
4.86481
4.90199
4.93088
4.95182
4.96894
4.9813
4.98686
4.98589
4.97908
4.96662
4.94843
4.92457
4.89508
4.85995
4.81917
4.77271
4.72053
4.66255
4.59873
4.52897
4.45317
4.37126
4.28316
4.1888
4.08813
3.98117
3.86794
3.74855
3.62315
3.49199
3.35542
3.22312
3.08706
2.94634
2.80166
2.65414
2.50514
2.35595
2.20672
2.05385
1.88492
1.67445
1.38624
0.851517
1.1359
1.96227
0.836184
1.72039
2.18615
2.3078
2.25311
2.16601
2.16448
2.31282
2.39422
2.35239
2.26387
2.2241
2.23743
2.16595
1.92802
1.43108
1.1754
1.88887
2.36712
2.59758
2.58281
2.30674
1.72302
1.27404
2.06864
2.65532
2.91473
2.95128
2.89609
2.87139
2.90915
2.89373
2.97291
3.31151
3.7179
4.0559
4.36588
4.70154
5.0047
5.25391
5.44119
5.55273
5.59068
5.54919
5.42906
5.22958
4.94121
4.54626
4.01611
3.30413
2.36175
2.15467
3.2108
4.10238
4.78885
5.29854
5.64575
5.84205
5.90382
5.85924
5.73087
5.53364
5.2957
5.04273
4.7966
4.57456
4.39002
4.25243
4.16705
4.14063
4.16833
4.24081
4.34793
4.47973
4.6271
4.78193
4.93587
5.08138
5.20996
5.31535
5.3899
5.4277
5.42212
5.36795
5.25816
5.08096
4.80627
4.39187
3.78758
2.87787
2.20486
3.15331
3.31031
3.26722
2.97962
2.81745
2.59319
2.20243
1.54538
0.591629
0.668462
1.38214
2.11989
2.73013
3.00585
2.96676
2.76062
2.48592
2.19521
1.911
1.65911
1.50967
1.48014
1.46662
1.497
1.68222
2.07606
2.61847
3.11305
3.30489
3.1371
2.8124
2.54972
2.43567
2.48172
2.62286
2.76834
2.83353
2.79851
2.5884
2.10372
1.31657
1.76033
2.38826
2.7041
2.81698
2.81905
2.74913
2.64811
2.53377
2.36907
2.11144
2.07125
2.49067
2.83407
2.93691
2.72249
2.18945
1.50603
2.69722
3.26717
3.64395
3.97332
4.26826
4.48563
4.66296
4.79849
4.90554
4.98886
5.05407
5.10532
5.1455
5.17748
5.20281
5.22325
5.23976
5.25338
5.26478
5.27457
5.28321
5.29109
5.29851
5.30576
5.31307
5.32061
5.32854
5.33695
5.34595
5.35557
5.36585
5.3768
5.38842
5.40069
5.41358
5.42701
5.44094
5.45529
5.46997
5.48489
5.49998
5.51516
5.53037
5.54558
5.56076
5.57591
5.59108
5.60631
5.62167
5.63726
5.65316
5.66948
5.68646
5.70409
5.72243
5.74156
5.76157
5.78249
5.80438
5.82727
5.85116
5.87609
5.90204
5.92901
5.957
5.98598
6.01594
6.04686
6.07873
6.11154
6.14529
6.17996
6.21558
6.25214
6.28967
6.32813
6.36749
6.40767
6.44853
6.48986
6.53141
6.57282
6.61372
6.65368
6.6923
6.72915
6.76388
6.7962
6.82585
6.85269
6.87659
6.89748
6.91531
6.93004
6.94266
6.95256
6.9594
6.96313
6.96361
6.96097
6.95507
6.94579
6.93302
6.91667
6.89663
6.87281
6.84512
6.81347
6.77775
6.73788
6.69375
6.64526
6.59229
6.53472
6.47243
6.40527
6.33309
6.25571
6.17296
6.08462
5.99046
5.89021
5.78361
5.67031
5.54997
5.42221
5.28662
5.14278
4.99028
4.82875
4.65787
4.50121
4.34176
4.17735
4.0098
3.84446
3.69351
3.58
3.53367
3.57952
3.72246
3.94363
4.21649
4.52268
4.85377
5.23979
5.62883
6.05464
6.43675
6.93834
7.19927
)
;
    }
    frontAndBack
    {
        type            empty;
    }
}


// ************************************************************************* //
