/*--------------------------------*- C++ -*----------------------------------*\
  =========                 |
  \\      /  F ield         | OpenFOAM: The Open Source CFD Toolbox
   \\    /   O peration     | Website:  https://openfoam.org
    \\  /    A nd           | Version:  7
     \\/     M anipulation  |
\*---------------------------------------------------------------------------*/
FoamFile
{
    version     2.0;
    format      ascii;
    class       volScalarField;
    location    "0.13";
    object      k;
}
// * * * * * * * * * * * * * * * * * * * * * * * * * * * * * * * * * * * * * //

dimensions      [0 2 -2 0 0 0 0];

internalField   nonuniform List<scalar> 
70000
(
1.08549e-05
4.21886e-06
2.82459e-06
2.31719e-06
1.99808e-06
1.75789e-06
1.56607e-06
1.40931e-06
1.27864e-06
1.16803e-06
1.07317e-06
9.91252e-07
9.19731e-07
8.57156e-07
8.01741e-07
7.52804e-07
7.08865e-07
6.6979e-07
6.34252e-07
6.02511e-07
5.73316e-07
5.47155e-07
5.22864e-07
5.01011e-07
4.80576e-07
4.62088e-07
4.44738e-07
4.28913e-07
4.14052e-07
4.0039e-07
3.87536e-07
3.75712e-07
3.64431e-07
3.54274e-07
3.44149e-07
3.35557e-07
3.26286e-07
3.19439e-07
3.10768e-07
3.05583e-07
2.9735e-07
2.93599e-07
2.85764e-07
2.83349e-07
2.7568e-07
2.762e-07
2.69088e-07
2.84747e-07
2.73121e-07
2.9005e-07
1.72795e-05
1.13674e-05
8.52111e-06
7.01141e-06
6.03878e-06
5.31295e-06
4.734e-06
4.2606e-06
3.86591e-06
3.53189e-06
3.24542e-06
2.99804e-06
2.78202e-06
2.59303e-06
2.42562e-06
2.27779e-06
2.14501e-06
2.02694e-06
1.91953e-06
1.82358e-06
1.73534e-06
1.65622e-06
1.58281e-06
1.51669e-06
1.45495e-06
1.39897e-06
1.34657e-06
1.29864e-06
1.25374e-06
1.21238e-06
1.17351e-06
1.13775e-06
1.10358e-06
1.07291e-06
1.04219e-06
1.01627e-06
9.88051e-07
9.67342e-07
9.40951e-07
9.25178e-07
9.00146e-07
8.88736e-07
8.64882e-07
8.56736e-07
8.34201e-07
8.32512e-07
8.13382e-07
8.44969e-07
8.25204e-07
8.48371e-07
1.93701e-05
1.61298e-05
1.32916e-05
1.12907e-05
9.83048e-06
8.69867e-06
7.78175e-06
7.02461e-06
6.3887e-06
5.84789e-06
5.38231e-06
4.97917e-06
4.62615e-06
4.31675e-06
4.04201e-06
3.79907e-06
3.5804e-06
3.38572e-06
3.20835e-06
3.0497e-06
2.90372e-06
2.77257e-06
2.65098e-06
2.5411e-06
2.43875e-06
2.34555e-06
2.25859e-06
2.17867e-06
2.10408e-06
2.03506e-06
1.97034e-06
1.91072e-06
1.85364e-06
1.80257e-06
1.75114e-06
1.70801e-06
1.66056e-06
1.62586e-06
1.58156e-06
1.55465e-06
1.51264e-06
1.49286e-06
1.45288e-06
1.43785e-06
1.40099e-06
1.39403e-06
1.36267e-06
1.39343e-06
1.38206e-06
1.39345e-06
1.9861e-05
1.826e-05
1.60859e-05
1.42009e-05
1.26416e-05
1.13507e-05
1.02637e-05
9.34214e-06
8.55144e-06
7.86894e-06
7.27479e-06
6.75596e-06
6.298e-06
5.89434e-06
5.53359e-06
5.21316e-06
4.92319e-06
4.66409e-06
4.42713e-06
4.21446e-06
4.0184e-06
3.84148e-06
3.67749e-06
3.52842e-06
3.38991e-06
3.26286e-06
3.14481e-06
3.03546e-06
2.93384e-06
2.83923e-06
2.75068e-06
2.6689e-06
2.59045e-06
2.52035e-06
2.44944e-06
2.39017e-06
2.32458e-06
2.27611e-06
2.21466e-06
2.17606e-06
2.11807e-06
2.08915e-06
2.03404e-06
2.0115e-06
1.96126e-06
1.94733e-06
1.90285e-06
1.92006e-06
1.92668e-06
1.91976e-06
1.99707e-05
1.78457e-05
1.60748e-05
1.47662e-05
1.36025e-05
1.25377e-05
1.15699e-05
1.07028e-05
9.92251e-06
9.22775e-06
8.60814e-06
8.05654e-06
7.56104e-06
7.11852e-06
6.71753e-06
6.35762e-06
6.02835e-06
5.73175e-06
5.4585e-06
5.21148e-06
4.98272e-06
4.77464e-06
4.58148e-06
4.40422e-06
4.23979e-06
4.08734e-06
3.94615e-06
3.81402e-06
3.69163e-06
3.57677e-06
3.46939e-06
3.36975e-06
3.27403e-06
3.18824e-06
3.10139e-06
3.02841e-06
2.94802e-06
2.88725e-06
2.81198e-06
2.76234e-06
2.69142e-06
2.65208e-06
2.58508e-06
2.55471e-06
2.49223e-06
2.47105e-06
2.41467e-06
2.41478e-06
2.41969e-06
2.40064e-06
2.00095e-05
1.4704e-05
1.37471e-05
1.32095e-05
1.25894e-05
1.19249e-05
1.12756e-05
1.06553e-05
1.0078e-05
9.54441e-06
9.04397e-06
8.57883e-06
8.14532e-06
7.74712e-06
7.37563e-06
7.03487e-06
6.71666e-06
6.42558e-06
6.15379e-06
5.9047e-06
5.6719e-06
5.45711e-06
5.2568e-06
5.0702e-06
4.89703e-06
4.73392e-06
4.58309e-06
4.43996e-06
4.30763e-06
4.18202e-06
4.06469e-06
3.95476e-06
3.8493e-06
3.7537e-06
3.6575e-06
3.57515e-06
3.48602e-06
3.41606e-06
3.33263e-06
3.27396e-06
3.19545e-06
3.14705e-06
3.07281e-06
3.03428e-06
2.96378e-06
2.93529e-06
2.87527e-06
2.84991e-06
2.84636e-06
2.81592e-06
2.01331e-05
1.54694e-05
9.6349e-06
9.39557e-06
9.48891e-06
9.48735e-06
9.42764e-06
9.28771e-06
9.04719e-06
8.77381e-06
8.47873e-06
8.18243e-06
7.89045e-06
7.60881e-06
7.33196e-06
7.07257e-06
6.82524e-06
6.59252e-06
6.36958e-06
6.15956e-06
5.95952e-06
5.77015e-06
5.59156e-06
5.42119e-06
5.26223e-06
5.10883e-06
4.96684e-06
4.82942e-06
4.70241e-06
4.57967e-06
4.46516e-06
4.35589e-06
4.25164e-06
4.15489e-06
4.05895e-06
3.97397e-06
3.88463e-06
3.81069e-06
3.72697e-06
3.66292e-06
3.58449e-06
3.529e-06
3.45578e-06
3.40788e-06
3.33971e-06
3.29904e-06
3.24545e-06
3.19843e-06
3.18683e-06
3.14235e-06
2.01712e-05
1.86771e-05
8.69842e-06
5.53955e-06
5.62822e-06
5.92958e-06
6.28555e-06
6.5688e-06
6.74612e-06
6.85369e-06
6.87181e-06
6.85227e-06
6.79944e-06
6.71185e-06
6.60048e-06
6.48036e-06
6.343e-06
6.20222e-06
6.06031e-06
5.91889e-06
5.7797e-06
5.64218e-06
5.51008e-06
5.37953e-06
5.2559e-06
5.13405e-06
5.02155e-06
4.90919e-06
4.80506e-06
4.70125e-06
4.60452e-06
4.50915e-06
4.41908e-06
4.33207e-06
4.2477e-06
4.16909e-06
4.0895e-06
4.01892e-06
3.94408e-06
3.8801e-06
3.81062e-06
3.75182e-06
3.68843e-06
3.63343e-06
3.57712e-06
3.52369e-06
3.48236e-06
3.42243e-06
3.40586e-06
3.35271e-06
2.01671e-05
1.97242e-05
1.61714e-05
4.86835e-06
3.0423e-06
3.10375e-06
3.36948e-06
3.79712e-06
4.15999e-06
4.47568e-06
4.7205e-06
4.90874e-06
5.04729e-06
5.14696e-06
5.20438e-06
5.2399e-06
5.24296e-06
5.23431e-06
5.21252e-06
5.17314e-06
5.12656e-06
5.07009e-06
5.01154e-06
4.94539e-06
4.88011e-06
4.8086e-06
4.73953e-06
4.66525e-06
4.59556e-06
4.52235e-06
4.45404e-06
4.38329e-06
4.31725e-06
4.24975e-06
4.18606e-06
4.12269e-06
4.06115e-06
4.00193e-06
3.94361e-06
3.8869e-06
3.83402e-06
3.77874e-06
3.73146e-06
3.67644e-06
3.63584e-06
3.57921e-06
3.54877e-06
3.48811e-06
3.47012e-06
3.42104e-06
2.01476e-05
1.99343e-05
1.90669e-05
1.45065e-05
5.2582e-06
2.15698e-06
1.9138e-06
1.99118e-06
2.20119e-06
2.49733e-06
2.77026e-06
3.02101e-06
3.2429e-06
3.43776e-06
3.59939e-06
3.73601e-06
3.84619e-06
3.93313e-06
4.00392e-06
4.05472e-06
4.0936e-06
4.11593e-06
4.13174e-06
4.13304e-06
4.12993e-06
4.12044e-06
4.10689e-06
4.08483e-06
4.06276e-06
4.0339e-06
4.00581e-06
3.97234e-06
3.9405e-06
3.90366e-06
3.8698e-06
3.83138e-06
3.79589e-06
3.75664e-06
3.72141e-06
3.68017e-06
3.64669e-06
3.60313e-06
3.57235e-06
3.527e-06
3.49973e-06
3.45244e-06
3.42869e-06
3.37936e-06
3.36263e-06
3.3269e-06
2.01215e-05
1.99661e-05
1.9643e-05
1.85493e-05
1.52245e-05
8.38911e-06
3.12662e-06
1.63607e-06
1.44236e-06
1.44763e-06
1.5219e-06
1.67906e-06
1.8585e-06
2.0331e-06
2.20054e-06
2.35711e-06
2.50236e-06
2.63083e-06
2.74789e-06
2.84879e-06
2.93975e-06
3.01549e-06
3.0832e-06
3.13785e-06
3.1854e-06
3.22263e-06
3.25533e-06
3.27868e-06
3.29836e-06
3.31101e-06
3.32006e-06
3.32468e-06
3.32456e-06
3.32244e-06
3.3181e-06
3.30886e-06
3.30053e-06
3.28624e-06
3.27514e-06
3.25596e-06
3.2436e-06
3.2207e-06
3.20716e-06
3.18124e-06
3.16703e-06
3.13871e-06
3.12387e-06
3.09378e-06
3.07821e-06
3.05996e-06
2.00981e-05
1.99327e-05
1.97577e-05
1.93541e-05
1.85108e-05
1.65496e-05
1.23626e-05
6.90897e-06
3.02296e-06
1.50217e-06
1.24476e-06
1.14714e-06
1.14946e-06
1.18922e-06
1.27818e-06
1.38216e-06
1.49295e-06
1.59958e-06
1.708e-06
1.80978e-06
1.90843e-06
1.99835e-06
2.08376e-06
2.16015e-06
2.23202e-06
2.29511e-06
2.35415e-06
2.40531e-06
2.45255e-06
2.49308e-06
2.53e-06
2.56107e-06
2.58932e-06
2.61175e-06
2.63283e-06
2.64826e-06
2.66271e-06
2.67209e-06
2.68135e-06
2.68511e-06
2.68959e-06
2.68942e-06
2.68873e-06
2.68558e-06
2.68242e-06
2.67473e-06
2.66963e-06
2.6581e-06
2.6514e-06
2.64352e-06
2.00781e-05
1.98875e-05
1.97573e-05
1.94624e-05
1.91486e-05
1.86466e-05
1.75694e-05
1.54516e-05
1.17981e-05
7.52149e-06
4.04861e-06
1.95206e-06
1.21792e-06
1.05922e-06
9.84427e-07
9.40281e-07
9.49681e-07
9.80173e-07
1.04069e-06
1.10165e-06
1.16911e-06
1.23618e-06
1.30497e-06
1.37184e-06
1.43885e-06
1.50137e-06
1.56279e-06
1.61921e-06
1.674e-06
1.7238e-06
1.77194e-06
1.81489e-06
1.85641e-06
1.89288e-06
1.92763e-06
1.95833e-06
1.98681e-06
2.01171e-06
2.03503e-06
2.05424e-06
2.07271e-06
2.08701e-06
2.10096e-06
2.11048e-06
2.12089e-06
2.12599e-06
2.13287e-06
2.13443e-06
2.1381e-06
2.13812e-06
2.00613e-05
1.98539e-05
1.97347e-05
1.94725e-05
1.92579e-05
1.90505e-05
1.87422e-05
1.82017e-05
1.71205e-05
1.52725e-05
1.26418e-05
9.33959e-06
6.08625e-06
3.57215e-06
1.94198e-06
1.19058e-06
9.70142e-07
8.93536e-07
8.39942e-07
7.95045e-07
7.94839e-07
8.05753e-07
8.322e-07
8.68381e-07
9.07206e-07
9.46497e-07
9.89027e-07
1.03047e-06
1.07406e-06
1.11585e-06
1.15838e-06
1.19801e-06
1.23755e-06
1.27433e-06
1.31002e-06
1.34367e-06
1.37545e-06
1.40524e-06
1.43357e-06
1.45903e-06
1.48373e-06
1.50516e-06
1.52602e-06
1.54346e-06
1.56086e-06
1.57448e-06
1.58809e-06
1.59879e-06
1.60832e-06
1.61788e-06
2.00475e-05
1.98303e-05
1.97081e-05
1.94503e-05
1.92748e-05
1.91183e-05
1.89702e-05
1.87568e-05
1.84723e-05
1.79294e-05
1.71052e-05
1.57543e-05
1.39599e-05
1.16505e-05
9.00264e-06
6.40692e-06
4.2163e-06
2.61593e-06
1.57737e-06
1.06231e-06
8.73364e-07
8.0446e-07
7.56658e-07
7.14724e-07
6.83434e-07
6.74346e-07
6.78551e-07
6.89397e-07
7.09696e-07
7.30619e-07
7.54197e-07
7.76868e-07
8.0185e-07
8.26914e-07
8.52497e-07
8.78357e-07
9.03722e-07
9.28808e-07
9.53134e-07
9.762e-07
9.98663e-07
1.01962e-06
1.03968e-06
1.05822e-06
1.07616e-06
1.09211e-06
1.10716e-06
1.12127e-06
1.13332e-06
1.14561e-06
2.00362e-05
1.98125e-05
1.96856e-05
1.94202e-05
1.92608e-05
1.91122e-05
1.9005e-05
1.88553e-05
1.87193e-05
1.85106e-05
1.82606e-05
1.78527e-05
1.72644e-05
1.64099e-05
1.52402e-05
1.37313e-05
1.19659e-05
9.92044e-06
7.79948e-06
5.80839e-06
4.10513e-06
2.79691e-06
1.84369e-06
1.23469e-06
9.18621e-07
7.81273e-07
7.20635e-07
6.82456e-07
6.48122e-07
6.15631e-07
5.93643e-07
5.79049e-07
5.7905e-07
5.82084e-07
5.89258e-07
6.00251e-07
6.1197e-07
6.24517e-07
6.36944e-07
6.49837e-07
6.627e-07
6.76259e-07
6.89351e-07
7.02872e-07
7.16023e-07
7.28704e-07
7.40705e-07
7.52847e-07
7.63505e-07
7.7385e-07
2.00271e-05
1.97986e-05
1.96665e-05
1.93985e-05
1.92351e-05
1.90851e-05
1.89872e-05
1.88587e-05
1.87438e-05
1.86046e-05
1.84706e-05
1.83005e-05
1.80976e-05
1.78138e-05
1.744e-05
1.69073e-05
1.62213e-05
1.5324e-05
1.42197e-05
1.29076e-05
1.14544e-05
9.83512e-06
8.15945e-06
6.53644e-06
5.05578e-06
3.78899e-06
2.77732e-06
1.9894e-06
1.41411e-06
1.0377e-06
8.2385e-07
7.13308e-07
6.57293e-07
6.22746e-07
5.95526e-07
5.69759e-07
5.45307e-07
5.24952e-07
5.09736e-07
5.00628e-07
4.96198e-07
4.96638e-07
4.98411e-07
5.0242e-07
5.06676e-07
5.12116e-07
5.16718e-07
5.2259e-07
5.26787e-07
5.31736e-07
2.002e-05
1.97903e-05
1.96461e-05
1.93822e-05
1.92114e-05
1.90563e-05
1.89498e-05
1.88328e-05
1.87228e-05
1.85982e-05
1.84823e-05
1.83559e-05
1.82339e-05
1.80909e-05
1.79378e-05
1.77415e-05
1.75043e-05
1.71935e-05
1.68026e-05
1.62987e-05
1.56842e-05
1.49385e-05
1.40553e-05
1.30465e-05
1.19299e-05
1.07354e-05
9.45576e-06
8.15171e-06
6.87453e-06
5.67416e-06
4.58684e-06
3.63912e-06
2.85233e-06
2.20627e-06
1.68804e-06
1.29169e-06
1.00764e-06
8.20044e-07
7.04087e-07
6.35249e-07
5.93381e-07
5.65694e-07
5.43594e-07
5.24745e-07
5.06074e-07
4.89358e-07
4.71716e-07
4.59035e-07
4.44131e-07
4.37159e-07
2.00144e-05
1.97903e-05
1.96198e-05
1.93689e-05
1.91911e-05
1.903e-05
1.89145e-05
1.87974e-05
1.86836e-05
1.85637e-05
1.84523e-05
1.83354e-05
1.82241e-05
1.81063e-05
1.79931e-05
1.78726e-05
1.77487e-05
1.76094e-05
1.74521e-05
1.72653e-05
1.70404e-05
1.67701e-05
1.644e-05
1.60453e-05
1.55738e-05
1.50279e-05
1.43994e-05
1.36882e-05
1.29006e-05
1.20474e-05
1.11417e-05
1.02028e-05
9.22224e-06
8.23288e-06
7.25825e-06
6.32313e-06
5.44336e-06
4.63905e-06
3.91237e-06
3.27713e-06
2.73107e-06
2.26421e-06
1.8679e-06
1.53779e-06
1.26796e-06
1.05451e-06
8.89167e-07
7.68216e-07
6.73146e-07
6.16766e-07
2.00102e-05
1.97943e-05
1.95931e-05
1.93552e-05
1.91725e-05
1.90052e-05
1.88815e-05
1.87625e-05
1.86445e-05
1.85225e-05
1.84074e-05
1.82912e-05
1.81802e-05
1.80695e-05
1.79613e-05
1.78537e-05
1.77457e-05
1.7639e-05
1.75309e-05
1.74213e-05
1.73052e-05
1.71812e-05
1.70424e-05
1.68869e-05
1.67072e-05
1.64992e-05
1.62599e-05
1.59809e-05
1.56618e-05
1.5296e-05
1.48839e-05
1.44268e-05
1.39213e-05
1.33703e-05
1.27766e-05
1.21474e-05
1.14873e-05
1.08061e-05
1.01148e-05
9.41233e-06
8.70476e-06
8.00682e-06
7.32066e-06
6.66826e-06
6.03825e-06
5.45366e-06
4.89789e-06
4.39752e-06
3.90454e-06
3.47173e-06
2.0007e-05
1.98017e-05
1.95685e-05
1.93421e-05
1.9155e-05
1.8982e-05
1.88502e-05
1.87292e-05
1.86067e-05
1.84825e-05
1.83624e-05
1.82448e-05
1.81295e-05
1.80174e-05
1.79068e-05
1.77995e-05
1.76943e-05
1.75933e-05
1.74918e-05
1.7394e-05
1.72953e-05
1.7198e-05
1.71003e-05
1.70031e-05
1.6903e-05
1.67973e-05
1.66881e-05
1.65656e-05
1.64363e-05
1.62876e-05
1.61257e-05
1.59447e-05
1.57419e-05
1.55177e-05
1.52676e-05
1.4997e-05
1.46939e-05
1.43737e-05
1.40258e-05
1.36558e-05
1.32658e-05
1.28599e-05
1.24275e-05
1.2e-05
1.15436e-05
1.10958e-05
1.06369e-05
1.0188e-05
9.71657e-06
9.26493e-06
2.00046e-05
1.98102e-05
1.95455e-05
1.9329e-05
1.9138e-05
1.89605e-05
1.88202e-05
1.86972e-05
1.85706e-05
1.84443e-05
1.83194e-05
1.81994e-05
1.80799e-05
1.79656e-05
1.78513e-05
1.77419e-05
1.76325e-05
1.75294e-05
1.74256e-05
1.7327e-05
1.723e-05
1.71372e-05
1.70451e-05
1.69567e-05
1.68689e-05
1.67812e-05
1.66962e-05
1.66082e-05
1.65258e-05
1.64359e-05
1.6349e-05
1.62577e-05
1.61619e-05
1.6061e-05
1.5952e-05
1.58401e-05
1.57105e-05
1.55819e-05
1.54367e-05
1.52819e-05
1.51188e-05
1.49439e-05
1.4753e-05
1.45648e-05
1.43502e-05
1.41373e-05
1.39165e-05
1.36839e-05
1.34386e-05
1.31967e-05
2.00029e-05
1.9819e-05
1.95242e-05
1.93155e-05
1.91212e-05
1.89406e-05
1.87917e-05
1.86664e-05
1.85365e-05
1.84079e-05
1.82789e-05
1.81563e-05
1.80328e-05
1.79162e-05
1.7798e-05
1.76861e-05
1.75731e-05
1.74677e-05
1.73602e-05
1.72591e-05
1.71584e-05
1.70622e-05
1.69671e-05
1.68772e-05
1.67877e-05
1.67014e-05
1.66199e-05
1.65375e-05
1.64613e-05
1.63808e-05
1.63061e-05
1.62316e-05
1.61567e-05
1.60824e-05
1.60086e-05
1.5938e-05
1.58606e-05
1.57906e-05
1.57133e-05
1.56365e-05
1.55587e-05
1.54766e-05
1.53902e-05
1.53076e-05
1.52109e-05
1.51185e-05
1.50246e-05
1.49205e-05
1.48112e-05
1.47096e-05
2.00017e-05
1.98274e-05
1.95048e-05
1.93009e-05
1.91042e-05
1.89221e-05
1.87648e-05
1.86368e-05
1.85044e-05
1.83736e-05
1.82411e-05
1.8116e-05
1.79889e-05
1.787e-05
1.77483e-05
1.76339e-05
1.75173e-05
1.74097e-05
1.72989e-05
1.71951e-05
1.70917e-05
1.69923e-05
1.68941e-05
1.68017e-05
1.67086e-05
1.66196e-05
1.65331e-05
1.64489e-05
1.63689e-05
1.62871e-05
1.62105e-05
1.61366e-05
1.60646e-05
1.59944e-05
1.59252e-05
1.58602e-05
1.57924e-05
1.57314e-05
1.5667e-05
1.56065e-05
1.55462e-05
1.54856e-05
1.54259e-05
1.53704e-05
1.53092e-05
1.52538e-05
1.51987e-05
1.51408e-05
1.50775e-05
1.50267e-05
2.00009e-05
1.98305e-05
1.94887e-05
1.92858e-05
1.90873e-05
1.89053e-05
1.87401e-05
1.86089e-05
1.84746e-05
1.8342e-05
1.82065e-05
1.8079e-05
1.79488e-05
1.78278e-05
1.7703e-05
1.75861e-05
1.74665e-05
1.73568e-05
1.72428e-05
1.71367e-05
1.70307e-05
1.69287e-05
1.68278e-05
1.67333e-05
1.6637e-05
1.65462e-05
1.64558e-05
1.63701e-05
1.62859e-05
1.62021e-05
1.61215e-05
1.60452e-05
1.59691e-05
1.58958e-05
1.58229e-05
1.57554e-05
1.56868e-05
1.56231e-05
1.55582e-05
1.54988e-05
1.54401e-05
1.53826e-05
1.53269e-05
1.52743e-05
1.52196e-05
1.51704e-05
1.51203e-05
1.50734e-05
1.50175e-05
1.49768e-05
2.00003e-05
1.98288e-05
1.94756e-05
1.92699e-05
1.90704e-05
1.88904e-05
1.87179e-05
1.85832e-05
1.84474e-05
1.83135e-05
1.81756e-05
1.80461e-05
1.79131e-05
1.77905e-05
1.7663e-05
1.75439e-05
1.74215e-05
1.731e-05
1.71932e-05
1.7085e-05
1.69766e-05
1.68723e-05
1.67691e-05
1.66728e-05
1.6574e-05
1.64814e-05
1.63882e-05
1.63014e-05
1.62141e-05
1.61288e-05
1.6045e-05
1.59669e-05
1.58882e-05
1.58126e-05
1.57362e-05
1.56663e-05
1.55955e-05
1.55285e-05
1.54608e-05
1.53989e-05
1.53374e-05
1.52768e-05
1.52185e-05
1.51635e-05
1.51076e-05
1.50579e-05
1.50049e-05
1.49596e-05
1.49018e-05
1.48614e-05
2e-05
1.9827e-05
1.94645e-05
1.92524e-05
1.90529e-05
1.88769e-05
1.86981e-05
1.85598e-05
1.8423e-05
1.82885e-05
1.81487e-05
1.80177e-05
1.78824e-05
1.77585e-05
1.76287e-05
1.7508e-05
1.73834e-05
1.72702e-05
1.7151e-05
1.70411e-05
1.69305e-05
1.68244e-05
1.67192e-05
1.66213e-05
1.65205e-05
1.64263e-05
1.6331e-05
1.6243e-05
1.61535e-05
1.60669e-05
1.59808e-05
1.59014e-05
1.5821e-05
1.57436e-05
1.5665e-05
1.55937e-05
1.5521e-05
1.5452e-05
1.53821e-05
1.5319e-05
1.5255e-05
1.5193e-05
1.51318e-05
1.50757e-05
1.50178e-05
1.4967e-05
1.49116e-05
1.48651e-05
1.48058e-05
1.4765e-05
1.99999e-05
1.98257e-05
1.94562e-05
1.92345e-05
1.90353e-05
1.8865e-05
1.86813e-05
1.85393e-05
1.84017e-05
1.82674e-05
1.81263e-05
1.79943e-05
1.78573e-05
1.77327e-05
1.76012e-05
1.74791e-05
1.73529e-05
1.72383e-05
1.71172e-05
1.70062e-05
1.68935e-05
1.67862e-05
1.66792e-05
1.65802e-05
1.64777e-05
1.63821e-05
1.62854e-05
1.61964e-05
1.61051e-05
1.60174e-05
1.59298e-05
1.58494e-05
1.57676e-05
1.56887e-05
1.56089e-05
1.55365e-05
1.54623e-05
1.53923e-05
1.53209e-05
1.52574e-05
1.51914e-05
1.51294e-05
1.5066e-05
1.50098e-05
1.49507e-05
1.48996e-05
1.48433e-05
1.47955e-05
1.47366e-05
1.46961e-05
1.99999e-05
1.98249e-05
1.94508e-05
1.92172e-05
1.90186e-05
1.8855e-05
1.86682e-05
1.85225e-05
1.83842e-05
1.82507e-05
1.81092e-05
1.79766e-05
1.78387e-05
1.77136e-05
1.7581e-05
1.74581e-05
1.7331e-05
1.72153e-05
1.7093e-05
1.69812e-05
1.68669e-05
1.67588e-05
1.66505e-05
1.65505e-05
1.64471e-05
1.63502e-05
1.62526e-05
1.61628e-05
1.60702e-05
1.59816e-05
1.58931e-05
1.58119e-05
1.57288e-05
1.56491e-05
1.55687e-05
1.54954e-05
1.542e-05
1.53495e-05
1.52774e-05
1.52135e-05
1.51462e-05
1.50843e-05
1.50199e-05
1.49639e-05
1.49045e-05
1.48536e-05
1.47969e-05
1.47487e-05
1.46918e-05
1.46516e-05
1.99999e-05
1.98245e-05
1.9448e-05
1.92015e-05
1.90033e-05
1.88468e-05
1.86591e-05
1.851e-05
1.8371e-05
1.82391e-05
1.80977e-05
1.79652e-05
1.7827e-05
1.7702e-05
1.7569e-05
1.74457e-05
1.73184e-05
1.72018e-05
1.70791e-05
1.69669e-05
1.68514e-05
1.67433e-05
1.66341e-05
1.65335e-05
1.64295e-05
1.6332e-05
1.62339e-05
1.61437e-05
1.605e-05
1.5961e-05
1.58723e-05
1.57904e-05
1.57062e-05
1.56263e-05
1.55456e-05
1.54715e-05
1.53953e-05
1.53246e-05
1.52524e-05
1.51879e-05
1.51202e-05
1.50583e-05
1.49941e-05
1.49379e-05
1.48791e-05
1.48286e-05
1.47717e-05
1.47244e-05
1.467e-05
1.46299e-05
1.99999e-05
1.98245e-05
1.94477e-05
1.9188e-05
1.89898e-05
1.88403e-05
1.86542e-05
1.85019e-05
1.83625e-05
1.82326e-05
1.80922e-05
1.79604e-05
1.78229e-05
1.76984e-05
1.75657e-05
1.74427e-05
1.7316e-05
1.71989e-05
1.70765e-05
1.69644e-05
1.68483e-05
1.67407e-05
1.66311e-05
1.65304e-05
1.64263e-05
1.63285e-05
1.62307e-05
1.61403e-05
1.60458e-05
1.5957e-05
1.58686e-05
1.57862e-05
1.57013e-05
1.56216e-05
1.5541e-05
1.54662e-05
1.53898e-05
1.53192e-05
1.52471e-05
1.51822e-05
1.51146e-05
1.50528e-05
1.49893e-05
1.49332e-05
1.48753e-05
1.48253e-05
1.47689e-05
1.47229e-05
1.4671e-05
1.46318e-05
1.99999e-05
1.9825e-05
1.94496e-05
1.91772e-05
1.89784e-05
1.8835e-05
1.86533e-05
1.84986e-05
1.83587e-05
1.82314e-05
1.80928e-05
1.79625e-05
1.7826e-05
1.77024e-05
1.75705e-05
1.74485e-05
1.73225e-05
1.72057e-05
1.70839e-05
1.69722e-05
1.68562e-05
1.67494e-05
1.66398e-05
1.65395e-05
1.64356e-05
1.63384e-05
1.6241e-05
1.61507e-05
1.60562e-05
1.59681e-05
1.58801e-05
1.57976e-05
1.57127e-05
1.56335e-05
1.55531e-05
1.54783e-05
1.54021e-05
1.53319e-05
1.52603e-05
1.51953e-05
1.51282e-05
1.50669e-05
1.50044e-05
1.49489e-05
1.48922e-05
1.48425e-05
1.47877e-05
1.4743e-05
1.4694e-05
1.46567e-05
1.99999e-05
1.98259e-05
1.94539e-05
1.91699e-05
1.89693e-05
1.88313e-05
1.86559e-05
1.84997e-05
1.83596e-05
1.82351e-05
1.80985e-05
1.79705e-05
1.78357e-05
1.77138e-05
1.75834e-05
1.74632e-05
1.73388e-05
1.72228e-05
1.71025e-05
1.69917e-05
1.68765e-05
1.67712e-05
1.66622e-05
1.65629e-05
1.64597e-05
1.63636e-05
1.62672e-05
1.61774e-05
1.60832e-05
1.59966e-05
1.59093e-05
1.5827e-05
1.57425e-05
1.56643e-05
1.55843e-05
1.55098e-05
1.54342e-05
1.53647e-05
1.52938e-05
1.5229e-05
1.51626e-05
1.51022e-05
1.5041e-05
1.49866e-05
1.4931e-05
1.48819e-05
1.48295e-05
1.47859e-05
1.47406e-05
1.47051e-05
1.99999e-05
1.98272e-05
1.94601e-05
1.9166e-05
1.89628e-05
1.88287e-05
1.86619e-05
1.85054e-05
1.83648e-05
1.82434e-05
1.81098e-05
1.79853e-05
1.78526e-05
1.77331e-05
1.76046e-05
1.74872e-05
1.73645e-05
1.72504e-05
1.71319e-05
1.70226e-05
1.69091e-05
1.68055e-05
1.66978e-05
1.66e-05
1.6498e-05
1.64039e-05
1.63089e-05
1.62199e-05
1.6127e-05
1.60422e-05
1.59558e-05
1.58744e-05
1.5791e-05
1.57138e-05
1.56345e-05
1.5561e-05
1.54864e-05
1.54177e-05
1.53477e-05
1.52836e-05
1.52182e-05
1.5159e-05
1.50992e-05
1.50461e-05
1.49917e-05
1.49437e-05
1.48935e-05
1.48519e-05
1.48095e-05
1.47762e-05
1.99999e-05
1.98291e-05
1.94678e-05
1.91659e-05
1.89589e-05
1.88274e-05
1.86702e-05
1.85153e-05
1.83749e-05
1.82563e-05
1.81261e-05
1.80057e-05
1.78755e-05
1.77591e-05
1.76329e-05
1.7519e-05
1.73982e-05
1.72872e-05
1.71704e-05
1.70634e-05
1.69523e-05
1.68508e-05
1.67449e-05
1.66491e-05
1.65488e-05
1.64574e-05
1.6364e-05
1.62764e-05
1.61856e-05
1.61028e-05
1.60175e-05
1.59377e-05
1.5856e-05
1.578e-05
1.57018e-05
1.56298e-05
1.55565e-05
1.5489e-05
1.542e-05
1.53571e-05
1.5293e-05
1.52353e-05
1.51772e-05
1.51254e-05
1.50726e-05
1.50261e-05
1.49782e-05
1.4939e-05
1.48988e-05
1.48686e-05
1.99999e-05
1.98314e-05
1.9477e-05
1.91691e-05
1.89575e-05
1.88275e-05
1.86804e-05
1.85286e-05
1.83885e-05
1.82727e-05
1.81464e-05
1.80307e-05
1.79034e-05
1.77907e-05
1.76673e-05
1.75575e-05
1.7439e-05
1.73317e-05
1.72169e-05
1.7113e-05
1.70047e-05
1.69056e-05
1.68022e-05
1.67088e-05
1.6611e-05
1.65226e-05
1.6431e-05
1.63456e-05
1.62573e-05
1.61767e-05
1.60931e-05
1.60156e-05
1.59357e-05
1.58612e-05
1.57846e-05
1.57146e-05
1.56428e-05
1.55767e-05
1.5509e-05
1.54475e-05
1.53851e-05
1.53293e-05
1.52728e-05
1.52226e-05
1.51715e-05
1.51269e-05
1.50813e-05
1.50444e-05
1.50067e-05
1.49789e-05
1.99999e-05
1.98341e-05
1.9487e-05
1.9176e-05
1.8959e-05
1.88292e-05
1.86918e-05
1.8545e-05
1.84057e-05
1.82923e-05
1.81701e-05
1.80597e-05
1.79354e-05
1.78271e-05
1.77069e-05
1.76014e-05
1.74857e-05
1.73827e-05
1.72701e-05
1.71701e-05
1.70647e-05
1.69686e-05
1.68681e-05
1.67776e-05
1.66827e-05
1.65976e-05
1.65083e-05
1.64258e-05
1.63402e-05
1.62621e-05
1.61807e-05
1.6106e-05
1.6028e-05
1.59554e-05
1.58808e-05
1.5813e-05
1.5743e-05
1.56785e-05
1.56124e-05
1.55527e-05
1.54923e-05
1.54383e-05
1.53835e-05
1.5335e-05
1.5286e-05
1.52434e-05
1.52e-05
1.51652e-05
1.51301e-05
1.51041e-05
1.99999e-05
1.98371e-05
1.94976e-05
1.91857e-05
1.8963e-05
1.88327e-05
1.87041e-05
1.85639e-05
1.84258e-05
1.83146e-05
1.81967e-05
1.80917e-05
1.7971e-05
1.78673e-05
1.77505e-05
1.76494e-05
1.75375e-05
1.74386e-05
1.73288e-05
1.72331e-05
1.71309e-05
1.70381e-05
1.69407e-05
1.68538e-05
1.67623e-05
1.66805e-05
1.6594e-05
1.65149e-05
1.64322e-05
1.63569e-05
1.62784e-05
1.62065e-05
1.61306e-05
1.60603e-05
1.59882e-05
1.59229e-05
1.58547e-05
1.5792e-05
1.57276e-05
1.56701e-05
1.56117e-05
1.55596e-05
1.55066e-05
1.546e-05
1.54131e-05
1.53722e-05
1.5331e-05
1.52982e-05
1.52655e-05
1.52408e-05
1.99999e-05
1.98403e-05
1.95087e-05
1.91976e-05
1.89697e-05
1.88381e-05
1.87167e-05
1.85846e-05
1.84482e-05
1.83391e-05
1.82254e-05
1.81259e-05
1.80091e-05
1.79103e-05
1.77972e-05
1.77006e-05
1.7593e-05
1.74979e-05
1.73916e-05
1.73005e-05
1.72016e-05
1.71126e-05
1.70186e-05
1.69356e-05
1.68477e-05
1.67694e-05
1.66863e-05
1.66109e-05
1.65309e-05
1.64589e-05
1.63838e-05
1.63148e-05
1.62411e-05
1.61736e-05
1.61043e-05
1.60415e-05
1.59752e-05
1.59144e-05
1.58521e-05
1.57969e-05
1.57405e-05
1.56902e-05
1.56391e-05
1.55947e-05
1.55497e-05
1.55102e-05
1.5471e-05
1.54401e-05
1.54092e-05
1.53855e-05
1.99999e-05
1.98437e-05
1.952e-05
1.92112e-05
1.89789e-05
1.88453e-05
1.87294e-05
1.86062e-05
1.84722e-05
1.83653e-05
1.82558e-05
1.81613e-05
1.80489e-05
1.79553e-05
1.78458e-05
1.77541e-05
1.76509e-05
1.75596e-05
1.74573e-05
1.73711e-05
1.72753e-05
1.71904e-05
1.71001e-05
1.70213e-05
1.6937e-05
1.68625e-05
1.67832e-05
1.67116e-05
1.66345e-05
1.65663e-05
1.64947e-05
1.64286e-05
1.63572e-05
1.6293e-05
1.62267e-05
1.61664e-05
1.61018e-05
1.60432e-05
1.59833e-05
1.59305e-05
1.58757e-05
1.58272e-05
1.57783e-05
1.57359e-05
1.56923e-05
1.56541e-05
1.56168e-05
1.55875e-05
1.55578e-05
1.55342e-05
1.99999e-05
1.98472e-05
1.95313e-05
1.92261e-05
1.89904e-05
1.88542e-05
1.87422e-05
1.86283e-05
1.84972e-05
1.83928e-05
1.8287e-05
1.81976e-05
1.80898e-05
1.80015e-05
1.78954e-05
1.78089e-05
1.771e-05
1.76227e-05
1.75247e-05
1.74433e-05
1.73507e-05
1.72701e-05
1.71838e-05
1.71092e-05
1.70284e-05
1.69584e-05
1.68829e-05
1.68149e-05
1.67411e-05
1.6677e-05
1.6609e-05
1.65457e-05
1.64769e-05
1.64163e-05
1.63532e-05
1.62951e-05
1.62321e-05
1.61762e-05
1.61188e-05
1.60679e-05
1.60144e-05
1.59681e-05
1.59214e-05
1.58806e-05
1.58379e-05
1.58009e-05
1.57654e-05
1.57372e-05
1.57077e-05
1.56835e-05
1.99999e-05
1.98507e-05
1.95424e-05
1.92418e-05
1.90039e-05
1.88647e-05
1.87551e-05
1.865e-05
1.85227e-05
1.84211e-05
1.83186e-05
1.82339e-05
1.8131e-05
1.8048e-05
1.79451e-05
1.78645e-05
1.77692e-05
1.76862e-05
1.75927e-05
1.7516e-05
1.74267e-05
1.73504e-05
1.72684e-05
1.71978e-05
1.71207e-05
1.70554e-05
1.69837e-05
1.69191e-05
1.6849e-05
1.67894e-05
1.67246e-05
1.66641e-05
1.65983e-05
1.65415e-05
1.64813e-05
1.64251e-05
1.63641e-05
1.63112e-05
1.6256e-05
1.62065e-05
1.61545e-05
1.61106e-05
1.60659e-05
1.6026e-05
1.59838e-05
1.5948e-05
1.5914e-05
1.5886e-05
1.5856e-05
1.58302e-05
1.99999e-05
1.98542e-05
1.95534e-05
1.92579e-05
1.9019e-05
1.88764e-05
1.87679e-05
1.86708e-05
1.85481e-05
1.84499e-05
1.835e-05
1.82701e-05
1.81718e-05
1.80942e-05
1.79944e-05
1.79198e-05
1.78275e-05
1.77495e-05
1.76603e-05
1.75881e-05
1.75021e-05
1.74305e-05
1.73525e-05
1.72858e-05
1.72124e-05
1.71521e-05
1.70841e-05
1.70228e-05
1.69568e-05
1.69018e-05
1.68397e-05
1.67821e-05
1.67198e-05
1.6667e-05
1.66089e-05
1.65547e-05
1.64963e-05
1.64463e-05
1.63925e-05
1.63441e-05
1.62941e-05
1.62526e-05
1.6209e-05
1.61696e-05
1.6128e-05
1.60933e-05
1.60599e-05
1.60314e-05
1.60001e-05
1.59719e-05
1.99999e-05
1.98575e-05
1.9564e-05
1.9274e-05
1.90351e-05
1.8889e-05
1.87809e-05
1.86904e-05
1.8573e-05
1.84784e-05
1.83808e-05
1.83055e-05
1.82118e-05
1.81393e-05
1.80428e-05
1.79741e-05
1.78844e-05
1.78119e-05
1.77267e-05
1.76586e-05
1.75761e-05
1.75092e-05
1.7435e-05
1.73722e-05
1.73028e-05
1.72473e-05
1.71827e-05
1.7125e-05
1.70633e-05
1.70124e-05
1.6953e-05
1.68985e-05
1.68402e-05
1.67908e-05
1.67344e-05
1.66824e-05
1.6627e-05
1.65794e-05
1.65264e-05
1.64794e-05
1.64315e-05
1.63919e-05
1.63486e-05
1.63095e-05
1.62687e-05
1.62347e-05
1.62009e-05
1.61711e-05
1.6138e-05
1.6107e-05
1.99999e-05
1.98608e-05
1.95742e-05
1.92898e-05
1.90519e-05
1.89023e-05
1.87938e-05
1.87084e-05
1.85969e-05
1.85064e-05
1.84106e-05
1.83399e-05
1.82504e-05
1.81829e-05
1.80903e-05
1.80265e-05
1.79396e-05
1.78727e-05
1.77911e-05
1.7727e-05
1.76481e-05
1.7586e-05
1.75149e-05
1.74561e-05
1.7391e-05
1.73397e-05
1.72783e-05
1.7225e-05
1.71673e-05
1.71199e-05
1.70632e-05
1.70125e-05
1.6958e-05
1.69112e-05
1.68566e-05
1.68074e-05
1.67548e-05
1.67088e-05
1.66566e-05
1.66113e-05
1.65651e-05
1.65265e-05
1.64833e-05
1.64447e-05
1.64043e-05
1.63703e-05
1.63353e-05
1.63038e-05
1.62683e-05
1.62342e-05
1.99999e-05
1.9864e-05
1.95839e-05
1.93051e-05
1.90687e-05
1.89159e-05
1.88067e-05
1.87248e-05
1.86196e-05
1.85332e-05
1.84393e-05
1.83732e-05
1.82872e-05
1.82246e-05
1.81362e-05
1.80764e-05
1.7993e-05
1.79314e-05
1.7853e-05
1.77928e-05
1.77175e-05
1.766e-05
1.75916e-05
1.75372e-05
1.74761e-05
1.74283e-05
1.73705e-05
1.7322e-05
1.72678e-05
1.72232e-05
1.71697e-05
1.71234e-05
1.70719e-05
1.70273e-05
1.69749e-05
1.69288e-05
1.6878e-05
1.68332e-05
1.67823e-05
1.67389e-05
1.66934e-05
1.66551e-05
1.66122e-05
1.65743e-05
1.65336e-05
1.64988e-05
1.6462e-05
1.64285e-05
1.63903e-05
1.6353e-05
1.99999e-05
1.98669e-05
1.95931e-05
1.93197e-05
1.90851e-05
1.89296e-05
1.88193e-05
1.87398e-05
1.86406e-05
1.85586e-05
1.84667e-05
1.84049e-05
1.83219e-05
1.82644e-05
1.81801e-05
1.8124e-05
1.80439e-05
1.79876e-05
1.7912e-05
1.78557e-05
1.77841e-05
1.77304e-05
1.76646e-05
1.7615e-05
1.75575e-05
1.75128e-05
1.74588e-05
1.74153e-05
1.73638e-05
1.7322e-05
1.72723e-05
1.72301e-05
1.71809e-05
1.71385e-05
1.7089e-05
1.70455e-05
1.69956e-05
1.69521e-05
1.69031e-05
1.68611e-05
1.68152e-05
1.6777e-05
1.67348e-05
1.66973e-05
1.66556e-05
1.66193e-05
1.65806e-05
1.65447e-05
1.65034e-05
1.64629e-05
1.99999e-05
1.98697e-05
1.96016e-05
1.93335e-05
1.91008e-05
1.89432e-05
1.88313e-05
1.87534e-05
1.86596e-05
1.85821e-05
1.84925e-05
1.84349e-05
1.83542e-05
1.83022e-05
1.82213e-05
1.81694e-05
1.80922e-05
1.80409e-05
1.79679e-05
1.79156e-05
1.78473e-05
1.77968e-05
1.7734e-05
1.7689e-05
1.76343e-05
1.7593e-05
1.75431e-05
1.75039e-05
1.7455e-05
1.74163e-05
1.73702e-05
1.73316e-05
1.72847e-05
1.7245e-05
1.7198e-05
1.71563e-05
1.71073e-05
1.70656e-05
1.70182e-05
1.69766e-05
1.69303e-05
1.68923e-05
1.68504e-05
1.68125e-05
1.67694e-05
1.67317e-05
1.66909e-05
1.66521e-05
1.66074e-05
1.65635e-05
1.99999e-05
1.98723e-05
1.96094e-05
1.93464e-05
1.91154e-05
1.89564e-05
1.88423e-05
1.87658e-05
1.86764e-05
1.86036e-05
1.85167e-05
1.84627e-05
1.83847e-05
1.83374e-05
1.82599e-05
1.82121e-05
1.81378e-05
1.8091e-05
1.80205e-05
1.79725e-05
1.79065e-05
1.78593e-05
1.77996e-05
1.77584e-05
1.77066e-05
1.7669e-05
1.76225e-05
1.7587e-05
1.75414e-05
1.7506e-05
1.74628e-05
1.74275e-05
1.73832e-05
1.73463e-05
1.73012e-05
1.72611e-05
1.72135e-05
1.71733e-05
1.71264e-05
1.7085e-05
1.70388e-05
1.70012e-05
1.69584e-05
1.69195e-05
1.68753e-05
1.68363e-05
1.67927e-05
1.67505e-05
1.67023e-05
1.66549e-05
1.99999e-05
1.98747e-05
1.96166e-05
1.93581e-05
1.91288e-05
1.89687e-05
1.88523e-05
1.87766e-05
1.86911e-05
1.86226e-05
1.85391e-05
1.84879e-05
1.84131e-05
1.83699e-05
1.82958e-05
1.8252e-05
1.81806e-05
1.81377e-05
1.80697e-05