/*--------------------------------*- C++ -*----------------------------------*\
  =========                 |
  \\      /  F ield         | OpenFOAM: The Open Source CFD Toolbox
   \\    /   O peration     | Website:  https://openfoam.org
    \\  /    A nd           | Version:  7
     \\/     M anipulation  |
\*---------------------------------------------------------------------------*/
FoamFile
{
    version     2.0;
    format      ascii;
    class       volScalarField;
    location    "0.13";
    object      k_0;
}
// * * * * * * * * * * * * * * * * * * * * * * * * * * * * * * * * * * * * * //

dimensions      [0 2 -2 0 0 0 0];

internalField   nonuniform List<scalar> 
70000
(
1.08549e-05
4.21886e-06
2.82459e-06
2.31719e-06
1.99808e-06
1.75789e-06
1.56607e-06
1.40931e-06
1.27864e-06
1.16803e-06
1.07317e-06
9.91251e-07
9.1973e-07
8.57154e-07
8.01739e-07
7.52802e-07
7.08863e-07
6.69788e-07
6.3425e-07
6.02509e-07
5.73313e-07
5.47153e-07
5.22861e-07
5.01009e-07
4.80573e-07
4.62087e-07
4.44734e-07
4.28911e-07
4.14048e-07
4.00387e-07
3.87533e-07
3.75709e-07
3.64428e-07
3.5427e-07
3.44146e-07
3.35552e-07
3.26285e-07
3.19438e-07
3.1077e-07
3.05587e-07
2.97356e-07
2.93609e-07
2.85774e-07
2.83363e-07
2.7569e-07
2.76216e-07
2.69106e-07
2.84776e-07
2.73151e-07
2.90072e-07
1.72795e-05
1.13674e-05
8.52111e-06
7.01142e-06
6.03879e-06
5.31296e-06
4.734e-06
4.2606e-06
3.86591e-06
3.53189e-06
3.24542e-06
2.99803e-06
2.78201e-06
2.59303e-06
2.42562e-06
2.27779e-06
2.14501e-06
2.02694e-06
1.91952e-06
1.82357e-06
1.73533e-06
1.65621e-06
1.5828e-06
1.51668e-06
1.45494e-06
1.39897e-06
1.34656e-06
1.29863e-06
1.25373e-06
1.21237e-06
1.17351e-06
1.13774e-06
1.10357e-06
1.07289e-06
1.04219e-06
1.01626e-06
9.8805e-07
9.67341e-07
9.40957e-07
9.25192e-07
9.00166e-07
8.88761e-07
8.64909e-07
8.56772e-07
8.34232e-07
8.32553e-07
8.13434e-07
8.45045e-07
8.25296e-07
8.48455e-07
1.93701e-05
1.61298e-05
1.32916e-05
1.12907e-05
9.83049e-06
8.69867e-06
7.78176e-06
7.02462e-06
6.3887e-06
5.84789e-06
5.38231e-06
4.97917e-06
4.62615e-06
4.31675e-06
4.042e-06
3.79907e-06
3.58039e-06
3.38571e-06
3.20834e-06
3.04969e-06
2.90371e-06
2.77257e-06
2.65097e-06
2.5411e-06
2.43874e-06
2.34554e-06
2.25858e-06
2.17866e-06
2.10406e-06
2.03504e-06
1.97033e-06
1.9107e-06
1.85363e-06
1.80255e-06
1.75113e-06
1.70799e-06
1.66056e-06
1.62586e-06
1.58156e-06
1.55466e-06
1.51267e-06
1.49289e-06
1.45292e-06
1.4379e-06
1.40103e-06
1.39408e-06
1.36274e-06
1.39353e-06
1.38223e-06
1.39359e-06
1.9861e-05
1.826e-05
1.60859e-05
1.42009e-05
1.26416e-05
1.13507e-05
1.02637e-05
9.34214e-06
8.55144e-06
7.86894e-06
7.27479e-06
6.75596e-06
6.298e-06
5.89434e-06
5.53359e-06
5.21316e-06
4.92318e-06
4.66408e-06
4.42712e-06
4.21446e-06
4.01839e-06
3.84148e-06
3.67747e-06
3.52842e-06
3.3899e-06
3.26286e-06
3.14479e-06
3.03545e-06
2.93382e-06
2.83921e-06
2.75067e-06
2.66889e-06
2.59045e-06
2.52033e-06
2.44943e-06
2.39015e-06
2.32458e-06
2.2761e-06
2.21466e-06
2.17607e-06
2.11809e-06
2.08918e-06
2.03407e-06
2.01155e-06
1.96131e-06
1.94739e-06
1.90294e-06
1.92015e-06
1.92689e-06
1.91994e-06
1.99707e-05
1.78457e-05
1.60748e-05
1.47662e-05
1.36025e-05
1.25377e-05
1.15699e-05
1.07028e-05
9.92251e-06
9.22775e-06
8.60815e-06
8.05654e-06
7.56104e-06
7.11852e-06
6.71753e-06
6.35762e-06
6.02834e-06
5.73175e-06
5.45849e-06
5.21148e-06
4.98271e-06
4.77464e-06
4.58146e-06
4.40422e-06
4.23978e-06
4.08734e-06
3.94614e-06
3.81402e-06
3.69163e-06
3.57676e-06
3.46939e-06
3.36973e-06
3.27403e-06
3.18822e-06
3.10139e-06
3.02838e-06
2.94802e-06
2.88723e-06
2.81198e-06
2.76234e-06
2.69143e-06
2.6521e-06
2.5851e-06
2.55475e-06
2.49228e-06
2.47111e-06
2.41475e-06
2.41487e-06
2.41989e-06
2.40083e-06
2.00095e-05
1.4704e-05
1.37471e-05
1.32095e-05
1.25894e-05
1.19249e-05
1.12756e-05
1.06553e-05
1.0078e-05
9.54442e-06
9.04398e-06
8.57883e-06
8.14533e-06
7.74713e-06
7.37564e-06
7.03488e-06
6.71666e-06
6.42559e-06
6.15379e-06
5.9047e-06
5.67189e-06
5.45712e-06
5.25679e-06
5.07021e-06
4.89702e-06
4.73392e-06
4.58309e-06
4.43996e-06
4.30764e-06
4.18201e-06
4.06469e-06
3.95475e-06
3.84931e-06
3.75368e-06
3.65751e-06
3.57513e-06
3.48603e-06
3.41605e-06
3.33264e-06
3.27396e-06
3.19546e-06
3.14706e-06
3.07282e-06
3.03432e-06
2.96381e-06
2.93534e-06
2.87532e-06
2.84999e-06
2.84651e-06
2.8161e-06
2.01331e-05
1.54694e-05
9.6349e-06
9.39556e-06
9.48889e-06
9.48734e-06
9.42762e-06
9.2877e-06
9.04718e-06
8.77381e-06
8.47874e-06
8.18243e-06
7.89046e-06
7.60882e-06
7.33197e-06
7.07259e-06
6.82525e-06
6.59255e-06
6.36959e-06
6.15958e-06
5.95953e-06
5.77017e-06
5.59157e-06
5.4212e-06
5.26224e-06
5.10884e-06
4.96686e-06
4.82943e-06
4.70243e-06
4.57967e-06
4.46518e-06
4.35589e-06
4.25166e-06
4.15489e-06
4.05897e-06
3.97396e-06
3.88465e-06
3.81069e-06
3.72698e-06
3.66292e-06
3.5845e-06
3.52902e-06
3.45578e-06
3.40791e-06
3.33971e-06
3.2991e-06
3.24548e-06
3.19849e-06
3.18694e-06
3.14251e-06
2.01712e-05
1.86771e-05
8.69847e-06
5.53955e-06
5.62821e-06
5.92956e-06
6.28553e-06
6.56878e-06
6.74612e-06
6.85369e-06
6.87181e-06
6.85228e-06
6.79946e-06
6.71187e-06
6.6005e-06
6.48039e-06
6.34302e-06
6.20225e-06
6.06033e-06
5.91892e-06
5.77972e-06
5.64222e-06
5.5101e-06
5.37956e-06
5.25593e-06
5.13408e-06
5.02159e-06
4.90921e-06
4.8051e-06
4.70127e-06
4.60456e-06
4.50917e-06
4.41912e-06
4.33208e-06
4.24775e-06
4.16909e-06
4.08954e-06
4.01893e-06
3.9441e-06
3.88012e-06
3.81063e-06
3.75184e-06
3.68843e-06
3.63347e-06
3.57712e-06
3.52374e-06
3.48238e-06
3.42246e-06
3.40593e-06
3.35282e-06
2.01671e-05
1.97242e-05
1.61714e-05
4.86839e-06
3.0423e-06
3.10374e-06
3.36946e-06
3.79711e-06
4.15998e-06
4.47568e-06
4.7205e-06
4.90874e-06
5.0473e-06
5.14698e-06
5.2044e-06
5.23993e-06
5.24299e-06
5.23434e-06
5.21255e-06
5.17318e-06
5.12659e-06
5.07013e-06
5.01158e-06
4.94543e-06
4.88016e-06
4.80864e-06
4.73958e-06
4.66528e-06
4.59561e-06
4.52239e-06
4.45409e-06
4.38332e-06
4.31731e-06
4.24977e-06
4.18611e-06
4.12271e-06
4.0612e-06
4.00196e-06
3.94364e-06
3.88693e-06
3.83403e-06
3.77877e-06
3.73147e-06
3.67647e-06
3.63584e-06
3.57923e-06
3.54878e-06
3.48812e-06
3.47015e-06
3.42116e-06
2.01476e-05
1.99343e-05
1.90669e-05
1.45066e-05
5.25828e-06
2.15699e-06
1.9138e-06
1.99118e-06
2.20118e-06
2.49732e-06
2.77026e-06
3.02102e-06
3.24291e-06
3.43778e-06
3.5994e-06
3.73604e-06
3.84622e-06
3.93317e-06
4.00395e-06
4.05477e-06
4.09365e-06
4.11598e-06
4.13179e-06
4.13309e-06
4.12998e-06
4.12049e-06
4.10695e-06
4.08488e-06
4.06282e-06
4.03395e-06
4.00588e-06
3.97239e-06
3.94056e-06
3.9037e-06
3.86987e-06
3.83141e-06
3.79594e-06
3.75668e-06
3.72143e-06
3.68021e-06
3.64671e-06
3.60315e-06
3.57236e-06
3.52701e-06
3.49972e-06
3.45243e-06
3.42868e-06
3.37934e-06
3.36262e-06
3.32695e-06
2.01215e-05
1.99661e-05
1.9643e-05
1.85493e-05
1.52246e-05
8.38924e-06
3.1267e-06
1.63608e-06
1.44236e-06
1.44763e-06
1.5219e-06
1.67906e-06
1.8585e-06
2.03311e-06
2.20055e-06
2.35713e-06
2.50238e-06
2.63086e-06
2.74792e-06
2.84883e-06
2.93978e-06
3.01554e-06
3.08324e-06
3.1379e-06
3.18546e-06
3.22268e-06
3.25539e-06
3.27873e-06
3.29842e-06
3.31107e-06
3.32012e-06
3.32474e-06
3.32463e-06
3.32251e-06
3.31816e-06
3.30891e-06
3.30059e-06
3.2863e-06
3.27517e-06
3.256e-06
3.24362e-06
3.22072e-06
3.20718e-06
3.18124e-06
3.16702e-06
3.13869e-06
3.12383e-06
3.09374e-06
3.07815e-06
3.05995e-06
2.00981e-05
1.99327e-05
1.97577e-05
1.93541e-05
1.85109e-05
1.65497e-05
1.23627e-05
6.9091e-06
3.02303e-06
1.50218e-06
1.24476e-06
1.14714e-06
1.14946e-06
1.18923e-06
1.27818e-06
1.38217e-06
1.49296e-06
1.5996e-06
1.70803e-06
1.80981e-06
1.90847e-06
1.99839e-06
2.0838e-06
2.16019e-06
2.23206e-06
2.29515e-06
2.3542e-06
2.40537e-06
2.45261e-06
2.49314e-06
2.53006e-06
2.56114e-06
2.58939e-06
2.6118e-06
2.63289e-06
2.64832e-06
2.66276e-06
2.67216e-06
2.68139e-06
2.68516e-06
2.68961e-06
2.68944e-06
2.68875e-06
2.68558e-06
2.68241e-06
2.6747e-06
2.66958e-06
2.65804e-06
2.65133e-06
2.64344e-06
2.00781e-05
1.98875e-05
1.97573e-05
1.94624e-05
1.91486e-05
1.86466e-05
1.75694e-05
1.54517e-05
1.17982e-05
7.52159e-06
4.04867e-06
1.95209e-06
1.21793e-06
1.05922e-06
9.84428e-07
9.40286e-07
9.49687e-07
9.80182e-07
1.04071e-06
1.10167e-06
1.16913e-06
1.2362e-06
1.30499e-06
1.37187e-06
1.43889e-06
1.5014e-06
1.56283e-06
1.61925e-06
1.67404e-06
1.72385e-06
1.772e-06
1.81494e-06
1.85647e-06
1.89293e-06
1.92769e-06
1.95838e-06
1.98685e-06
2.01177e-06
2.03506e-06
2.05428e-06
2.07273e-06
2.08703e-06
2.10097e-06
2.11048e-06
2.12087e-06
2.12596e-06
2.13282e-06
2.13436e-06
2.13801e-06
2.13802e-06
2.00613e-05
1.98539e-05
1.97347e-05
1.94725e-05
1.92579e-05
1.90505e-05
1.87422e-05
1.82017e-05
1.71205e-05
1.52726e-05
1.26419e-05
9.33965e-06
6.08628e-06
3.57215e-06
1.94197e-06
1.19057e-06
9.70142e-07
8.93538e-07
8.39943e-07
7.95048e-07
7.94848e-07
8.05764e-07
8.32213e-07
8.68397e-07
9.07225e-07
9.46518e-07
9.89052e-07
1.0305e-06
1.07409e-06
1.11589e-06
1.15842e-06
1.19805e-06
1.2376e-06
1.27437e-06
1.31006e-06
1.34371e-06
1.37549e-06
1.40529e-06
1.4336e-06
1.45906e-06
1.48375e-06
1.50518e-06
1.52602e-06
1.54345e-06
1.56084e-06
1.57444e-06
1.58805e-06
1.59872e-06
1.60824e-06
1.61778e-06
2.00475e-05
1.98303e-05
1.97081e-05
1.94503e-05
1.92749e-05
1.91183e-05
1.89702e-05
1.87568e-05
1.84723e-05
1.79294e-05
1.71052e-05
1.57543e-05
1.39599e-05
1.16505e-05
9.00261e-06
6.40686e-06
4.21624e-06
2.61587e-06
1.57733e-06
1.06229e-06
8.7336e-07
8.04461e-07
7.56658e-07
7.14726e-07
6.83437e-07
6.74356e-07
6.78562e-07
6.89412e-07
7.09713e-07
7.30639e-07
7.54219e-07
7.76889e-07
8.01879e-07
8.26935e-07
8.52529e-07
8.78384e-07
9.03746e-07
9.28839e-07
9.53153e-07
9.76221e-07
9.98681e-07
1.01963e-06
1.03967e-06
1.05822e-06
1.07614e-06
1.09207e-06
1.10712e-06
1.12121e-06
1.13324e-06
1.14553e-06
2.00362e-05
1.98125e-05
1.96856e-05
1.94202e-05
1.92609e-05
1.91122e-05
1.9005e-05
1.88553e-05
1.87193e-05
1.85106e-05
1.82606e-05
1.78527e-05
1.72644e-05
1.64099e-05
1.52402e-05
1.37313e-05
1.19658e-05
9.92032e-06
7.79934e-06
5.80823e-06
4.10499e-06
2.79679e-06
1.84359e-06
1.23463e-06
9.18596e-07
7.81268e-07
7.20637e-07
6.82459e-07
6.48124e-07
6.15635e-07
5.93648e-07
5.7906e-07
5.79062e-07
5.82098e-07
5.89278e-07
6.00268e-07
6.11986e-07
6.24538e-07
6.36958e-07
6.49851e-07
6.62715e-07
6.76268e-07
6.8935e-07
7.02879e-07
7.16013e-07
7.28678e-07
7.40687e-07
7.52821e-07
7.63447e-07
7.73802e-07
2.00271e-05
1.97986e-05
1.96665e-05
1.93985e-05
1.92352e-05
1.90851e-05
1.89872e-05
1.88588e-05
1.87438e-05
1.86046e-05
1.84706e-05
1.83005e-05
1.80976e-05
1.78138e-05
1.744e-05
1.69073e-05
1.62212e-05
1.53239e-05
1.42196e-05
1.29075e-05
1.14543e-05
9.83493e-06
8.15923e-06
6.53622e-06
5.05557e-06
3.78881e-06
2.77717e-06
1.98928e-06
1.41403e-06
1.03766e-06
8.23831e-07
7.13308e-07
6.57302e-07
6.22757e-07
5.9554e-07
5.69771e-07
5.45321e-07
5.24969e-07
5.09754e-07
5.00647e-07
4.96217e-07
4.96657e-07
4.98428e-07
5.02442e-07
5.06684e-07
5.12119e-07
5.16735e-07
5.22599e-07
5.26772e-07
5.3174e-07
2.002e-05
1.97903e-05
1.96461e-05
1.93822e-05
1.92114e-05
1.90564e-05
1.89498e-05
1.88328e-05
1.87228e-05
1.85982e-05
1.84823e-05
1.83559e-05
1.82338e-05
1.80909e-05
1.79378e-05
1.77415e-05
1.75043e-05
1.71935e-05
1.68026e-05
1.62987e-05
1.56842e-05
1.49384e-05
1.40552e-05
1.30464e-05
1.19297e-05
1.07352e-05
9.45551e-06
8.15145e-06
6.87427e-06
5.67391e-06
4.58662e-06
3.63895e-06
2.8522e-06
2.20618e-06
1.68799e-06
1.29167e-06
1.00766e-06
8.20086e-07
7.04138e-07
6.35303e-07
5.93438e-07
5.65751e-07
5.43651e-07
5.24814e-07
5.06136e-07
4.89426e-07
4.71798e-07
4.59099e-07
4.44192e-07
4.37237e-07
2.00144e-05
1.97903e-05
1.96198e-05
1.93689e-05
1.91911e-05
1.903e-05
1.89145e-05
1.87974e-05
1.86836e-05
1.85637e-05
1.84523e-05
1.83354e-05
1.82241e-05
1.81063e-05
1.7993e-05
1.78726e-05
1.77487e-05
1.76093e-05
1.74521e-05
1.72652e-05
1.70404e-05
1.67701e-05
1.64399e-05
1.60452e-05
1.55737e-05
1.50278e-05
1.43993e-05
1.3688e-05
1.29004e-05
1.20472e-05
1.11415e-05
1.02026e-05
9.22198e-06
8.23264e-06
7.25806e-06
6.32299e-06
5.44329e-06
4.63909e-06
3.91249e-06
3.27734e-06
2.73137e-06
2.26456e-06
1.86832e-06
1.53824e-06
1.26841e-06
1.05495e-06
8.89565e-07
7.68533e-07
6.73381e-07
6.1694e-07
2.00102e-05
1.97943e-05
1.95931e-05
1.93552e-05
1.91725e-05
1.90052e-05
1.88815e-05
1.87625e-05
1.86445e-05
1.85225e-05
1.84074e-05
1.82912e-05
1.81802e-05
1.80695e-05
1.79613e-05
1.78537e-05
1.77457e-05
1.76389e-05
1.75309e-05
1.74213e-05
1.73051e-05
1.71812e-05
1.70424e-05
1.68869e-05
1.67072e-05
1.64992e-05
1.62598e-05
1.59808e-05
1.56618e-05
1.52959e-05
1.48838e-05
1.44266e-05
1.39211e-05
1.33701e-05
1.27765e-05
1.21473e-05
1.14871e-05
1.08061e-05
1.01147e-05
9.41237e-06
8.705e-06
8.00713e-06
7.32123e-06
6.66905e-06
6.03916e-06
5.45485e-06
4.89929e-06
4.39892e-06
3.90597e-06
3.47309e-06
2.0007e-05
1.98017e-05
1.95685e-05
1.93421e-05
1.9155e-05
1.8982e-05
1.88502e-05
1.87292e-05
1.86067e-05
1.84826e-05
1.83624e-05
1.82448e-05
1.81295e-05
1.80174e-05
1.79067e-05
1.77995e-05
1.76943e-05
1.75933e-05
1.74918e-05
1.7394e-05
1.72953e-05
1.71979e-05
1.71003e-05
1.70031e-05
1.69029e-05
1.67973e-05
1.66881e-05
1.65656e-05
1.64363e-05
1.62875e-05
1.61257e-05
1.59446e-05
1.57418e-05
1.55176e-05
1.52676e-05
1.49969e-05
1.46938e-05
1.43737e-05
1.40257e-05
1.36557e-05
1.3266e-05
1.28598e-05
1.24278e-05
1.20004e-05
1.15439e-05
1.10966e-05
1.06379e-05
1.01889e-05
9.71782e-06
9.26654e-06
2.00046e-05
1.98102e-05
1.95455e-05
1.93291e-05
1.91381e-05
1.89606e-05
1.88202e-05
1.86973e-05
1.85707e-05
1.84443e-05
1.83194e-05
1.81994e-05
1.80799e-05
1.79656e-05
1.78512e-05
1.77419e-05
1.76325e-05
1.75294e-05
1.74256e-05
1.7327e-05
1.723e-05
1.71372e-05
1.70451e-05
1.69567e-05
1.68689e-05
1.67812e-05
1.66962e-05
1.66082e-05
1.65258e-05
1.64359e-05
1.6349e-05
1.62577e-05
1.61619e-05
1.60609e-05
1.59521e-05
1.584e-05
1.57105e-05
1.5582e-05
1.54366e-05
1.52819e-05
1.51188e-05
1.49438e-05
1.47532e-05
1.45649e-05
1.43502e-05
1.41378e-05
1.3917e-05
1.36841e-05
1.34392e-05
1.31978e-05
2.00029e-05
1.9819e-05
1.95242e-05
1.93155e-05
1.91213e-05
1.89406e-05
1.87917e-05
1.86665e-05
1.85365e-05
1.84079e-05
1.82789e-05
1.81563e-05
1.80328e-05
1.79162e-05
1.7798e-05
1.76861e-05
1.75731e-05
1.74677e-05
1.73602e-05
1.72591e-05
1.71584e-05
1.70622e-05
1.69671e-05
1.68772e-05
1.67877e-05
1.67014e-05
1.66199e-05
1.65376e-05
1.64613e-05
1.63807e-05
1.63062e-05
1.62316e-05
1.61567e-05
1.60823e-05
1.60086e-05
1.5938e-05
1.58606e-05
1.57907e-05
1.57132e-05
1.56365e-05
1.55587e-05
1.54765e-05
1.53904e-05
1.53076e-05
1.52109e-05
1.51189e-05
1.50248e-05
1.49205e-05
1.48116e-05
1.47102e-05
2.00017e-05
1.98274e-05
1.95048e-05
1.93009e-05
1.91042e-05
1.89221e-05
1.87648e-05
1.86369e-05
1.85044e-05
1.83736e-05
1.82411e-05
1.8116e-05
1.79889e-05
1.787e-05
1.77483e-05
1.76338e-05
1.75173e-05
1.74097e-05
1.72988e-05
1.71951e-05
1.70916e-05
1.69923e-05
1.68941e-05
1.68017e-05
1.67085e-05
1.66196e-05
1.65331e-05
1.6449e-05
1.63688e-05
1.62871e-05
1.62105e-05
1.61367e-05
1.60645e-05
1.59943e-05
1.59253e-05
1.58602e-05
1.57924e-05
1.57315e-05
1.5667e-05
1.56066e-05
1.55463e-05
1.54857e-05
1.54261e-05
1.53705e-05
1.53093e-05
1.52541e-05
1.51989e-05
1.51408e-05
1.50778e-05
1.50271e-05
2.00009e-05
1.98305e-05
1.94887e-05
1.92858e-05
1.90873e-05
1.89054e-05
1.87401e-05
1.8609e-05
1.84746e-05
1.8342e-05
1.82065e-05
1.8079e-05
1.79488e-05
1.78278e-05
1.7703e-05
1.75861e-05
1.74665e-05
1.73568e-05
1.72428e-05
1.71367e-05
1.70306e-05
1.69286e-05
1.68278e-05
1.67333e-05
1.6637e-05
1.65462e-05
1.64558e-05
1.63702e-05
1.62859e-05
1.62021e-05
1.61216e-05
1.60452e-05
1.59691e-05
1.58958e-05
1.5823e-05
1.57554e-05
1.56869e-05
1.56232e-05
1.55582e-05
1.54989e-05
1.54402e-05
1.53826e-05
1.5327e-05
1.52744e-05
1.52198e-05
1.51707e-05
1.51206e-05
1.50734e-05
1.50176e-05
1.49772e-05
2.00003e-05
1.98288e-05
1.94757e-05
1.92699e-05
1.90705e-05
1.88905e-05
1.87179e-05
1.85832e-05
1.84474e-05
1.83136e-05
1.81756e-05
1.80461e-05
1.79131e-05
1.77905e-05
1.76629e-05
1.75439e-05
1.74215e-05
1.731e-05
1.71931e-05
1.7085e-05
1.69765e-05
1.68722e-05
1.67691e-05
1.66728e-05
1.65739e-05
1.64814e-05
1.63882e-05
1.63014e-05
1.62141e-05
1.61287e-05
1.6045e-05
1.59669e-05
1.58882e-05
1.58125e-05
1.57362e-05
1.56664e-05
1.55955e-05
1.55285e-05
1.54608e-05
1.5399e-05
1.53374e-05
1.52768e-05
1.52187e-05
1.51637e-05
1.51079e-05
1.50582e-05
1.50052e-05
1.49597e-05
1.4902e-05
1.4862e-05
2e-05
1.9827e-05
1.94645e-05
1.92525e-05
1.90529e-05
1.88769e-05
1.86981e-05
1.85598e-05
1.8423e-05
1.82885e-05
1.81487e-05
1.80177e-05
1.78824e-05
1.77586e-05
1.76287e-05
1.75079e-05
1.73833e-05
1.72702e-05
1.71509e-05
1.70411e-05
1.69304e-05
1.68243e-05
1.67192e-05
1.66213e-05
1.65204e-05
1.64263e-05
1.6331e-05
1.62431e-05
1.61535e-05
1.60669e-05
1.59808e-05
1.59015e-05
1.5821e-05
1.57435e-05
1.5665e-05
1.55937e-05
1.5521e-05
1.5452e-05
1.53821e-05
1.53191e-05
1.52551e-05
1.51931e-05
1.5132e-05
1.50758e-05
1.50181e-05
1.49673e-05
1.4912e-05
1.48652e-05
1.48061e-05
1.47657e-05
1.99999e-05
1.98257e-05
1.94562e-05
1.92345e-05
1.90354e-05
1.8865e-05
1.86814e-05
1.85394e-05
1.84017e-05
1.82674e-05
1.81264e-05
1.79943e-05
1.78573e-05
1.77327e-05
1.76011e-05
1.7479e-05
1.73528e-05
1.72383e-05
1.71171e-05
1.70062e-05
1.68935e-05
1.67861e-05
1.66793e-05
1.65802e-05
1.64777e-05
1.63821e-05
1.62854e-05
1.61964e-05
1.61051e-05
1.60173e-05
1.59298e-05
1.58494e-05
1.57675e-05
1.56887e-05
1.56089e-05
1.55366e-05
1.54623e-05
1.53923e-05
1.5321e-05
1.52575e-05
1.51915e-05
1.51294e-05
1.50661e-05
1.501e-05
1.4951e-05
1.48999e-05
1.48436e-05
1.47956e-05
1.47369e-05
1.4697e-05
1.99999e-05
1.98249e-05
1.94508e-05
1.92173e-05
1.90187e-05
1.8855e-05
1.86683e-05
1.85226e-05
1.83843e-05
1.82508e-05
1.81092e-05
1.79766e-05
1.78387e-05
1.77137e-05
1.7581e-05
1.7458e-05
1.73309e-05
1.72152e-05
1.70929e-05
1.69812e-05
1.68668e-05
1.67588e-05
1.66506e-05
1.65505e-05
1.6447e-05
1.63502e-05
1.62526e-05
1.61629e-05
1.60701e-05
1.59815e-05
1.58932e-05
1.5812e-05
1.57288e-05
1.56491e-05
1.55687e-05
1.54954e-05
1.542e-05
1.53495e-05
1.52774e-05
1.52136e-05
1.51462e-05
1.50844e-05
1.50201e-05
1.49641e-05
1.49048e-05
1.48539e-05
1.47972e-05
1.4749e-05
1.46922e-05
1.46525e-05
1.99999e-05
1.98245e-05
1.9448e-05
1.92015e-05
1.90034e-05
1.88469e-05
1.86592e-05
1.851e-05
1.83711e-05
1.82392e-05
1.80978e-05
1.79652e-05
1.78271e-05
1.7702e-05
1.75689e-05
1.74456e-05
1.73184e-05
1.72018e-05
1.7079e-05
1.69669e-05
1.68514e-05
1.67432e-05
1.66341e-05
1.65336e-05
1.64295e-05
1.63319e-05
1.6234e-05
1.61437e-05
1.60499e-05
1.59609e-05
1.58723e-05
1.57904e-05
1.57062e-05
1.56262e-05
1.55456e-05
1.54714e-05
1.53953e-05
1.53246e-05
1.52524e-05
1.5188e-05
1.51202e-05
1.50583e-05
1.49942e-05
1.49381e-05
1.48794e-05
1.4829e-05
1.47721e-05
1.47247e-05
1.46705e-05
1.46308e-05
1.99999e-05
1.98245e-05
1.94477e-05
1.9188e-05
1.89899e-05
1.88404e-05
1.86543e-05
1.8502e-05
1.83625e-05
1.82327e-05
1.80922e-05
1.79604e-05
1.78229e-05
1.76984e-05
1.75656e-05
1.74427e-05
1.73159e-05
1.71989e-05
1.70764e-05
1.69644e-05
1.68482e-05
1.67406e-05
1.66311e-05
1.65304e-05
1.64262e-05
1.63285e-05
1.62307e-05
1.61403e-05
1.60457e-05
1.5957e-05
1.58686e-05
1.57862e-05
1.57012e-05
1.56215e-05
1.55409e-05
1.54661e-05
1.53897e-05
1.53191e-05
1.52472e-05
1.51822e-05
1.51146e-05
1.50528e-05
1.49895e-05
1.49334e-05
1.48757e-05
1.48256e-05
1.47692e-05
1.47233e-05
1.46716e-05
1.46328e-05
1.99999e-05
1.98249e-05
1.94496e-05
1.91772e-05
1.89785e-05
1.88351e-05
1.86534e-05
1.84987e-05
1.83588e-05
1.82315e-05
1.80929e-05
1.79625e-05
1.7826e-05
1.77024e-05
1.75704e-05
1.74484e-05
1.73225e-05
1.72056e-05
1.70839e-05
1.69722e-05
1.68562e-05
1.67494e-05
1.66398e-05
1.65396e-05
1.64356e-05
1.63384e-05
1.6241e-05
1.61507e-05
1.60561e-05
1.59681e-05
1.58801e-05
1.57976e-05
1.57126e-05
1.56334e-05
1.5553e-05
1.54782e-05
1.5402e-05
1.53319e-05
1.52603e-05
1.51953e-05
1.51282e-05
1.50669e-05
1.50046e-05
1.49492e-05
1.48925e-05
1.48428e-05
1.47881e-05
1.47435e-05
1.46946e-05
1.46577e-05
1.99999e-05
1.98259e-05
1.94539e-05
1.917e-05
1.89694e-05
1.88314e-05
1.8656e-05
1.84998e-05
1.83597e-05
1.82352e-05
1.80986e-05
1.79706e-05
1.78357e-05
1.77138e-05
1.75833e-05
1.74632e-05
1.73387e-05
1.72227e-05
1.71025e-05
1.69917e-05
1.68765e-05
1.67712e-05
1.66622e-05
1.65629e-05
1.64596e-05
1.63636e-05
1.62673e-05
1.61774e-05
1.60832e-05
1.59966e-05
1.59093e-05
1.58269e-05
1.57424e-05
1.56642e-05
1.55842e-05
1.55097e-05
1.54341e-05
1.53646e-05
1.52938e-05
1.5229e-05
1.51626e-05
1.51022e-05
1.50411e-05
1.49868e-05
1.49313e-05
1.48822e-05
1.48299e-05
1.47865e-05
1.47413e-05
1.47061e-05
1.99999e-05
1.98272e-05
1.946e-05
1.91661e-05
1.89629e-05
1.88288e-05
1.8662e-05
1.85055e-05
1.8365e-05
1.82435e-05
1.81099e-05
1.79853e-05
1.78526e-05
1.77331e-05
1.76045e-05
1.74872e-05
1.73644e-05
1.72504e-05
1.71318e-05
1.70225e-05
1.69091e-05
1.68055e-05
1.66978e-05
1.66e-05
1.6498e-05
1.64039e-05
1.63089e-05
1.62199e-05
1.6127e-05
1.60422e-05
1.59557e-05
1.58743e-05
1.57909e-05
1.57137e-05
1.56344e-05
1.55609e-05
1.54863e-05
1.54176e-05
1.53476e-05
1.52836e-05
1.52182e-05
1.5159e-05
1.50993e-05
1.50463e-05
1.4992e-05
1.4944e-05
1.48939e-05
1.48525e-05
1.48102e-05
1.47772e-05
1.99999e-05
1.98291e-05
1.94677e-05
1.9166e-05
1.8959e-05
1.88275e-05
1.86704e-05
1.85154e-05
1.8375e-05
1.82564e-05
1.81262e-05
1.80057e-05
1.78755e-05
1.77591e-05
1.76329e-05
1.7519e-05
1.73981e-05
1.72871e-05
1.71703e-05
1.70634e-05
1.69522e-05
1.68507e-05
1.67449e-05
1.66491e-05
1.65488e-05
1.64574e-05
1.6364e-05
1.62764e-05
1.61855e-05
1.61028e-05
1.60174e-05
1.59377e-05
1.58559e-05
1.57799e-05
1.57017e-05
1.56297e-05
1.55564e-05
1.54889e-05
1.54199e-05
1.5357e-05
1.52929e-05
1.52354e-05
1.51773e-05
1.51256e-05
1.50728e-05
1.50264e-05
1.49786e-05
1.49395e-05
1.48996e-05
1.48695e-05
1.99999e-05
1.98314e-05
1.9477e-05
1.91692e-05
1.89576e-05
1.88276e-05
1.86806e-05
1.85288e-05
1.83887e-05
1.82728e-05
1.81464e-05
1.80308e-05
1.79034e-05
1.77907e-05
1.76673e-05
1.75575e-05
1.74389e-05
1.73316e-05
1.72168e-05
1.7113e-05
1.70046e-05
1.69056e-05
1.68022e-05
1.67088e-05
1.6611e-05
1.65226e-05
1.6431e-05
1.63456e-05
1.62573e-05
1.61767e-05
1.6093e-05
1.60155e-05
1.59356e-05
1.5861e-05
1.57844e-05
1.57144e-05
1.56426e-05
1.55765e-05
1.55089e-05
1.54474e-05
1.5385e-05
1.53293e-05
1.52728e-05
1.52227e-05
1.51717e-05
1.51272e-05
1.50816e-05
1.50449e-05
1.50075e-05
1.49798e-05
1.99999e-05
1.98341e-05
1.94869e-05
1.9176e-05
1.89591e-05
1.88293e-05
1.8692e-05
1.85452e-05
1.84058e-05
1.82924e-05
1.81702e-05
1.80598e-05
1.79355e-05
1.7827e-05
1.77068e-05
1.76013e-05
1.74856e-05
1.73826e-05
1.727e-05
1.717e-05
1.70647e-05
1.69685e-05
1.6868e-05
1.67776e-05
1.66827e-05
1.65977e-05
1.65083e-05
1.64257e-05
1.63402e-05
1.62621e-05
1.61806e-05
1.61059e-05
1.60278e-05
1.59552e-05
1.58806e-05
1.58129e-05
1.57428e-05
1.56783e-05
1.56122e-05
1.55525e-05
1.54922e-05
1.54383e-05
1.53835e-05
1.53351e-05
1.52861e-05
1.52435e-05
1.52003e-05
1.51657e-05
1.51308e-05
1.51048e-05
1.99999e-05
1.98371e-05
1.94976e-05
1.91857e-05
1.89631e-05
1.88329e-05
1.87042e-05
1.85641e-05
1.8426e-05
1.83147e-05
1.81968e-05
1.80918e-05
1.7971e-05
1.78673e-05
1.77505e-05
1.76494e-05
1.75374e-05
1.74384e-05
1.73287e-05
1.7233e-05
1.71308e-05
1.7038e-05
1.69407e-05
1.68538e-05
1.67623e-05
1.66806e-05
1.6594e-05
1.65149e-05
1.64321e-05
1.63568e-05
1.62783e-05
1.62064e-05
1.61304e-05
1.60601e-05
1.5988e-05
1.59226e-05
1.58545e-05
1.57917e-05
1.57273e-05
1.56699e-05
1.56116e-05
1.55595e-05
1.55065e-05
1.546e-05
1.54132e-05
1.53723e-05
1.53312e-05
1.52986e-05
1.5266e-05
1.52414e-05
1.99999e-05
1.98403e-05
1.95086e-05
1.91976e-05
1.89698e-05
1.88383e-05
1.87169e-05
1.85848e-05
1.84483e-05
1.83392e-05
1.82256e-05
1.81259e-05
1.80091e-05
1.79103e-05
1.77972e-05
1.77006e-05
1.75929e-05
1.74978e-05
1.73915e-05
1.73005e-05
1.72015e-05
1.71125e-05
1.70185e-05
1.69356e-05
1.68477e-05
1.67694e-05
1.66863e-05
1.66109e-05
1.65309e-05
1.64589e-05
1.63837e-05
1.63147e-05
1.62408e-05
1.61734e-05
1.6104e-05
1.60412e-05
1.59749e-05
1.59141e-05
1.58518e-05
1.57967e-05
1.57403e-05
1.569e-05
1.56389e-05
1.55946e-05
1.55496e-05
1.55102e-05
1.54712e-05
1.54404e-05
1.54096e-05
1.53859e-05
1.99999e-05
1.98437e-05
1.95199e-05
1.92112e-05
1.8979e-05
1.88455e-05
1.87296e-05
1.86065e-05
1.84724e-05
1.83654e-05
1.82559e-05
1.81614e-05
1.8049e-05
1.79553e-05
1.78458e-05
1.77541e-05
1.76508e-05
1.75595e-05
1.74572e-05
1.7371e-05
1.72752e-05
1.71903e-05
1.71e-05
1.70213e-05
1.6937e-05
1.68626e-05
1.67832e-05
1.67115e-05
1.66344e-05
1.65662e-05
1.64946e-05
1.64284e-05
1.63569e-05
1.62927e-05
1.62265e-05
1.61661e-05
1.61014e-05
1.60428e-05
1.5983e-05
1.59301e-05
1.58754e-05
1.5827e-05
1.57781e-05
1.57357e-05
1.56921e-05
1.5654e-05
1.56168e-05
1.55876e-05
1.55579e-05
1.55344e-05
1.99999e-05
1.98472e-05
1.95312e-05
1.92261e-05
1.89905e-05
1.88544e-05
1.87424e-05
1.86285e-05
1.84974e-05
1.8393e-05
1.82872e-05
1.81976e-05
1.80899e-05
1.80015e-05
1.78953e-05
1.78089e-05
1.77099e-05
1.76225e-05
1.75246e-05
1.74433e-05
1.73506e-05
1.727e-05
1.71838e-05
1.71092e-05
1.70285e-05
1.69584e-05
1.68829e-05
1.68148e-05
1.6741e-05
1.6677e-05
1.66089e-05
1.65455e-05
1.64766e-05
1.6416e-05
1.63529e-05
1.62947e-05
1.62316e-05
1.61757e-05
1.61184e-05
1.60674e-05
1.6014e-05
1.59678e-05
1.59211e-05
1.58803e-05
1.58375e-05
1.58006e-05
1.57653e-05
1.57371e-05
1.57076e-05
1.56833e-05
1.99999e-05
1.98506e-05
1.95424e-05
1.92418e-05
1.9004e-05
1.88648e-05
1.87553e-05
1.86502e-05
1.85229e-05
1.84213e-05
1.83188e-05
1.8234e-05
1.81311e-05
1.8048e-05
1.79451e-05
1.78645e-05
1.77691e-05
1.7686e-05
1.75926e-05
1.75159e-05
1.74265e-05
1.73504e-05
1.72684e-05
1.71978e-05
1.71207e-05
1.70555e-05
1.69837e-05
1.6919e-05
1.6849e-05
1.67894e-05
1.67244e-05
1.66638e-05
1.6598e-05
1.65413e-05
1.64809e-05
1.64246e-05
1.63636e-05
1.63107e-05
1.62555e-05
1.62059e-05
1.6154e-05
1.61102e-05
1.60655e-05
1.60255e-05
1.59833e-05
1.59477e-05
1.59137e-05
1.58857e-05
1.58556e-05
1.58296e-05
1.99999e-05
1.98541e-05
1.95533e-05
1.92578e-05
1.90191e-05
1.88765e-05
1.87682e-05
1.86711e-05
1.85483e-05
1.84501e-05
1.83502e-05
1.82702e-05
1.81719e-05
1.80942e-05
1.79943e-05
1.79199e-05
1.78273e-05
1.77493e-05
1.76602e-05
1.7588e-05
1.75019e-05
1.74304e-05
1.73525e-05
1.72858e-05
1.72125e-05
1.71522e-05
1.70841e-05
1.70227e-05
1.69568e-05
1.69018e-05
1.68395e-05
1.67817e-05
1.67195e-05
1.66667e-05
1.66085e-05
1.65541e-05
1.64957e-05
1.64457e-05
1.63919e-05
1.63435e-05
1.62935e-05
1.62521e-05
1.62084e-05
1.61689e-05
1.61273e-05
1.60928e-05
1.60594e-05
1.60308e-05
1.59994e-05
1.5971e-05
1.99999e-05
1.98575e-05
1.95639e-05
1.92739e-05
1.90352e-05
1.88892e-05
1.87811e-05
1.86907e-05
1.85732e-05
1.84787e-05
1.8381e-05
1.83056e-05
1.82119e-05
1.81393e-05
1.80428e-05
1.79741e-05
1.78842e-05
1.78117e-05
1.77266e-05
1.76584e-05
1.7576e-05
1.75092e-05
1.7435e-05
1.73722e-05
1.73029e-05
1.72474e-05
1.71826e-05
1.71249e-05
1.70633e-05
1.70124e-05
1.69527e-05
1.68981e-05
1.68399e-05
1.67904e-05
1.67339e-05
1.66818e-05
1.66264e-05
1.65788e-05
1.65257e-05
1.64787e-05
1.64309e-05
1.63913e-05
1.63479e-05
1.63087e-05
1.62679e-05
1.6234e-05
1.62002e-05
1.61702e-05
1.61369e-05
1.61057e-05
1.99999e-05
1.98608e-05
1.95741e-05
1.92897e-05
1.90519e-05
1.89025e-05
1.87941e-05
1.87087e-05
1.85972e-05
1.85066e-05
1.84109e-05
1.83401e-05
1.82505e-05
1.81828e-05
1.80903e-05
1.80265e-05
1.79395e-05
1.78726e-05
1.77909e-05
1.77268e-05
1.76479e-05
1.75859e-05
1.75148e-05
1.74561e-05
1.7391e-05
1.73397e-05
1.72783e-05
1.72249e-05
1.71673e-05
1.71198e-05
1.70629e-05
1.70122e-05
1.69577e-05
1.69108e-05
1.6856e-05
1.68068e-05
1.67541e-05
1.6708e-05
1.66557e-05
1.66105e-05
1.65644e-05
1.65257e-05
1.64824e-05
1.64438e-05
1.64033e-05
1.63694e-05
1.63343e-05
1.63026e-05
1.62669e-05
1.62327e-05
1.99999e-05
1.98639e-05
1.95838e-05
1.93049e-05
1.90687e-05
1.89161e-05
1.8807e-05
1.87251e-05
1.86199e-05
1.85335e-05
1.84396e-05
1.83733e-05
1.82874e-05
1.82246e-05
1.81362e-05
1.80764e-05
1.79928e-05
1.79313e-05
1.78528e-05
1.77926e-05
1.77173e-05
1.76599e-05
1.75915e-05
1.75371e-05
1.74762e-05
1.74284e-05
1.73704e-05
1.7322e-05
1.72677e-05
1.72231e-05
1.71695e-05
1.71231e-05
1.70715e-05
1.70268e-05
1.69743e-05
1.69281e-05
1.68772e-05
1.68323e-05
1.67813e-05
1.6738e-05
1.66925e-05
1.66541e-05
1.66112e-05
1.65732e-05
1.65325e-05
1.64976e-05
1.64608e-05
1.6427e-05
1.63886e-05
1.63512e-05
1.99999e-05
1.98669e-05
1.95929e-05
1.93195e-05
1.90852e-05
1.89298e-05
1.88196e-05
1.874e-05
1.86409e-05
1.85588e-05
1.8467e-05
1.84051e-05
1.8322e-05
1.82645e-05
1.81801e-05
1.8124e-05
1.80438e-05
1.79875e-05
1.79118e-05
1.78555e-05
1.77839e-05
1.77302e-05
1.76645e-05
1.7615e-05
1.75575e-05
1.75128e-05
1.74588e-05
1.74153e-05
1.73638e-05
1.73219e-05
1.72721e-05
1.72298e-05
1.71805e-05
1.7138e-05
1.70883e-05
1.70447e-05
1.69947e-05
1.69511e-05
1.69021e-05
1.686e-05
1.68142e-05
1.67759e-05
1.67336e-05
1.6696e-05
1.66542e-05
1.66179e-05
1.65791e-05
1.6543e-05
1.65014e-05
1.64607e-05
1.99999e-05
1.98696e-05
1.96014e-05
1.93333e-05
1.91008e-05
1.89434e-05
1.88315e-05
1.87537e-05
1.866e-05
1.85824e-05
1.84928e-05
1.84351e-05
1.83544e-05
1.83023e-05
1.82213e-05
1.81694e-05
1.80921e-05
1.80408e-05
1.79677e-05
1.79154e-05
1.78471e-05
1.77966e-05
1.77339e-05
1.7689e-05
1.76343e-05
1.7593e-05
1.75431e-05
1.75038e-05
1.7455e-05
1.74162e-05
1.737e-05
1.73313e-05
1.72842e-05
1.72444e-05
1.71973e-05
1.71555e-05
1.71064e-05
1.70646e-05
1.70171e-05
1.69754e-05
1.69291e-05
1.68912e-05
1.68491e-05
1.68111e-05
1.67678e-05
1.67301e-05
1.66891e-05
1.66501e-05
1.66051e-05
1.65611e-05
1.99999e-05
1.98722e-05
1.96092e-05
1.93462e-05
1.91154e-05
1.89566e-05
1.88426e-05
1.87661e-05
1.86768e-05
1.86039e-05
1.85171e-05
1.84629e-05
1.83849e-05
1.83375e-05
1.82599e-05
1.82121e-05
1.81377e-05
1.80909e-05
1.80203e-05
1.79723e-05
1.79063e-05
1.78591e-05
1.77995e-05
1.77584e-05
1.77066e-05
1.76691e-05
1.76225e-05
1.7587e-05
1.75413e-05
1.75059e-05
1.74626e-05
1.74272e-05
1.73828e-05
1.73457e-05
1.73005e-05
1.72602e-05
1.72125e-05
1.71722e-05
1.71252e-05
1.70836e-05
1.70375e-05
1.69998e-05
1.6957e-05
1.69179e-05
1.68735e-05
1.68345e-05
1.67907e-05
1.67482e-05
1.66998e-05
1.66522e-05
1.99999e-05
1.98746e-05
1.96163e-05
1.93579e-05
1.91287e-05
1.89689e-05
1.88526e-05
1.87769e-05
1.86915e-05
1.86229e-05
1.85395e-05
1.84882e-05
1.84134e-05
1.83701e-05
1.82958e-05