/*--------------------------------*- C++ -*----------------------------------*\
  =========                 |
  \\      /  F ield         | OpenFOAM: The Open Source CFD Toolbox
   \\    /   O peration     | Website:  https://openfoam.org
    \\  /    A nd           | Version:  7
     \\/     M anipulation  |
\*---------------------------------------------------------------------------*/
FoamFile
{
    version     2.0;
    format      ascii;
    class       surfaceScalarField;
    location    "0.13";
    object      phi;
}
// * * * * * * * * * * * * * * * * * * * * * * * * * * * * * * * * * * * * * //

dimensions      [0 3 -1 0 0 0 0];

internalField   nonuniform List<scalar> 
139350
(
6.45935e-08
9.2038e-08
3.19541e-08
3.26393e-08
2.30662e-08
8.88797e-09
1.95758e-08
3.49039e-09
1.76286e-08
1.94719e-09
1.62061e-08
1.42243e-09
1.50787e-08
1.12745e-09
1.41706e-08
9.08078e-10
1.34243e-08
7.46333e-10
1.27965e-08
6.27765e-10
1.22585e-08
5.38046e-10
1.17908e-08
4.6768e-10
1.13797e-08
4.11038e-10
1.10152e-08
3.64584e-10
1.06893e-08
3.25907e-10
1.0396e-08
2.9328e-10
1.01305e-08
2.65437e-10
9.88911e-09
2.41426e-10
9.66859e-09
2.20526e-10
9.46641e-09
2.02175e-10
9.28048e-09
1.85936e-10
9.10901e-09
1.71462e-10
8.95054e-09
1.58471e-10
8.8038e-09
1.46739e-10
8.66773e-09
1.36078e-10
8.54139e-09
1.26336e-10
8.42401e-09
1.17383e-10
8.31489e-09
1.09116e-10
8.21345e-09
1.01437e-10
8.11918e-09
9.42788e-11
8.03162e-09
8.75595e-11
7.95037e-09
8.12509e-11
7.87511e-09
7.52597e-11
7.80548e-09
6.96212e-11
7.7413e-09
6.4184e-11
7.68219e-09
5.91064e-11
7.6281e-09
5.4093e-11
7.57858e-09
4.95247e-11
7.53372e-09
4.48569e-11
7.49296e-09
4.07577e-11
7.45647e-09
3.64932e-11
7.42385e-09
3.26231e-11
7.39452e-09
2.93227e-11
7.37006e-09
2.44662e-11
7.34557e-09
2.44904e-11
7.33203e-09
1.35371e-11
7.30411e-09
2.79212e-11
7.32896e-09
-2.48495e-11
7.12763e-09
2.01324e-10
-3.18842e-09
1.0316e-08
1.26027e-07
1.27455e-07
9.12691e-08
6.73974e-08
7.19559e-08
2.82012e-08
6.12392e-08
1.42071e-08
5.48053e-08
8.38112e-09
5.03255e-08
5.90226e-09
4.68565e-08
4.59638e-09
4.40567e-08
3.70792e-09
4.17465e-08
3.05651e-09
3.98012e-08
2.5731e-09
3.81335e-08
2.2057e-09
3.66835e-08
1.91771e-09
3.54084e-08
1.6861e-09
3.42768e-08
1.4962e-09
3.32646e-08
1.33809e-09
3.23532e-08
1.2047e-09
3.15278e-08
1.09085e-09
3.07765e-08
9.92665e-10
3.00899e-08
9.07188e-10
2.94599e-08
8.32135e-10
2.88801e-08
7.6572e-10
2.83451e-08
7.06518e-10
2.78501e-08
6.53391e-10
2.73915e-08
6.05407e-10
2.69657e-08
5.61811e-10
2.65701e-08
5.21971e-10
2.62021e-08
4.85361e-10
2.58597e-08
4.51541e-10
2.5541e-08
4.20127e-10
2.52445e-08
3.90816e-10
2.49687e-08
3.633e-10
2.47126e-08
3.37405e-10
2.4475e-08
3.12824e-10
2.42551e-08
2.89571e-10
2.40521e-08
2.67194e-10
2.38651e-08
2.46086e-10
2.36938e-08
2.25344e-10
2.35372e-08
2.06164e-10
2.33955e-08
1.86579e-10
2.32668e-08
1.69421e-10
2.31527e-08
1.50573e-10
2.30496e-08
1.35754e-10
2.29614e-08
1.17485e-10
2.28812e-08
1.04745e-10
2.28169e-08
8.87171e-11
2.27587e-08
7.17777e-11
2.27085e-08
7.80848e-11
2.2719e-08
-3.5359e-11
2.25431e-08
3.77236e-10
-3.81101e-09
2.31657e-08
1.58808e-07
1.3505e-07
1.365e-07
8.97055e-08
1.17508e-07
4.71928e-08
1.03345e-07
2.83706e-08
9.33558e-08
1.83702e-08
8.60745e-08
1.31835e-08
8.03915e-08
1.02794e-08
7.57647e-08
8.33472e-09
7.19116e-08
6.90968e-09
6.86449e-08
5.83975e-09
6.58315e-08
5.01914e-09
6.33764e-08
4.37277e-09
6.12112e-08
3.85135e-09
5.92846e-08
3.42278e-09
5.75575e-08
3.06517e-09
5.59993e-08
2.76291e-09
5.45856e-08
2.50453e-09
5.32969e-08
2.2814e-09
5.21171e-08
2.08695e-09
5.10332e-08
1.91605e-09
5.00342e-08
1.76471e-09
4.9111e-08
1.62972e-09
4.82559e-08
1.50853e-09
4.74623e-08
1.39903e-09
4.67245e-08
1.29952e-09
4.6038e-08
1.20856e-09
4.53983e-08
1.12497e-09
4.48022e-08
1.04773e-09
4.42463e-08
9.75981e-10
4.37281e-08
9.09014e-10
4.32453e-08
8.46152e-10
4.27957e-08
7.86938e-10
4.23778e-08
7.30745e-10
4.19899e-08
6.77467e-10
4.16308e-08
6.26252e-10
4.12992e-08
5.77701e-10
4.09945e-08
5.30111e-10
4.07149e-08
4.85738e-10
4.04609e-08
4.40525e-10
4.02297e-08
4.00685e-10
4.0024e-08
3.563e-10
3.9837e-08
3.2272e-10
3.96777e-08
2.76729e-10
3.95299e-08
2.5263e-10
3.94162e-08
2.02383e-10
3.93027e-08
1.85257e-10
3.92265e-08
1.54259e-10
3.91877e-08
3.50936e-12
3.91244e-08
4.40461e-10
-3.49147e-09
3.88049e-08
1.75664e-07
1.30901e-07
1.65599e-07
9.97714e-08
1.52736e-07
6.00554e-08
1.40151e-07
4.09551e-08
1.29482e-07
2.90396e-08
1.20863e-07
2.18021e-08
1.13779e-07
1.73634e-08
1.07829e-07
1.42849e-08
1.02761e-07
1.19779e-08
9.83922e-08
1.02086e-08
9.45827e-08
8.82867e-09
9.12268e-08
7.72871e-09
8.82444e-08
6.83368e-09
8.55742e-08
6.09298e-09
8.31679e-08
5.47146e-09
8.09872e-08
4.9437e-09
7.90009e-08
4.49079e-09
7.71839e-08
4.09838e-09
7.55154e-08
3.75544e-09
7.39781e-08
3.45335e-09
7.25576e-08
3.18527e-09
7.12415e-08
2.94576e-09
7.00196e-08
2.73042e-09
6.88831e-08
2.53562e-09
6.78242e-08
2.3584e-09
6.68364e-08
2.19629e-09
6.59142e-08
2.0472e-09
6.50526e-08
1.90937e-09
6.42473e-08
1.78129e-09
6.34946e-08
1.66169e-09
6.27913e-08
1.5494e-09
6.21347e-08
1.44357e-09
6.15223e-08
1.34314e-09
6.0952e-08
1.2478e-09
6.0422e-08
1.15621e-09
5.99306e-08
1.06913e-09
5.94768e-08
9.83934e-10
5.90585e-08
9.04012e-10
5.86761e-08
8.22874e-10
5.83261e-08
7.5068e-10
5.80119e-08
6.70514e-10
5.77252e-08
6.09455e-10
5.7477e-08
5.24891e-10
5.72473e-08
4.8234e-10
5.70638e-08
3.85849e-10
5.68861e-08
3.63006e-10
5.67593e-08
2.81057e-10
5.66632e-08
9.96292e-11
5.66265e-08
4.77141e-10
-2.96208e-09
5.60971e-08
1.8456e-07
1.23126e-07
1.82323e-07
1.02009e-07
1.76111e-07
6.62677e-08
1.6778e-07
4.92862e-08
1.59175e-07
3.76445e-08
1.51289e-07
2.96875e-08
1.44246e-07
2.44071e-08
1.37979e-07
2.05516e-08
1.32414e-07
1.75424e-08
1.27467e-07
1.51558e-08
1.23051e-07
1.32445e-08
1.1909e-07
1.16903e-08
1.15518e-07
1.04057e-08
1.12281e-07
9.32937e-09
1.09336e-07
8.41694e-09
1.06644e-07
7.63554e-09
1.04175e-07
6.96015e-09
1.01902e-07
6.37143e-09
9.98028e-08
5.85425e-09
9.78595e-08
5.39663e-09
9.60558e-08
4.98899e-09
9.4378e-08
4.62357e-09
9.28144e-08
4.29406e-09
9.13547e-08
3.99526e-09
8.99903e-08
3.72284e-09
8.87134e-08
3.47318e-09
8.75174e-08
3.24321e-09
8.63964e-08
3.03033e-09
8.53454e-08
2.83229e-09
8.436e-08
2.64716e-09
8.34361e-08
2.47324e-09
8.25705e-08
2.30916e-09
8.17602e-08
2.15343e-09
8.10026e-08
2.00542e-09
8.02956e-08
1.86327e-09
7.96369e-08
1.72782e-09
7.90253e-08
1.5955e-09
7.84586e-08
1.47075e-09
7.79368e-08
1.34468e-09
7.74562e-08
1.23122e-09
7.70201e-08
1.10667e-09
7.66202e-08
1.00932e-09
7.62668e-08
8.7827e-10
7.59416e-08
8.07523e-10
7.5668e-08
6.59502e-10
7.54144e-08
6.16592e-10
7.52109e-08
4.84553e-10
7.50519e-08
2.58641e-10
7.49619e-08
5.6717e-10
-2.38285e-09
7.43826e-08
1.90389e-07
1.14954e-07
1.91853e-07
1.00544e-07
1.90249e-07
6.78722e-08
1.86166e-07
5.33687e-08
1.80741e-07
4.30696e-08
1.75006e-07
3.54221e-08
1.69336e-07
3.00778e-08
1.63883e-07
2.6004e-08
1.58744e-07
2.26815e-08
1.5396e-07
1.99403e-08
1.49532e-07
1.76725e-08
1.45443e-07
1.57787e-08
1.4167e-07
1.41791e-08
1.38185e-07
1.28144e-08
1.34962e-07
1.16399e-08
1.31976e-07
1.06211e-08
1.29206e-07
9.7309e-09
1.26629e-07
8.94765e-09
1.2423e-07
8.25399e-09
1.2199e-07
7.63589e-09
1.19898e-07
7.0819e-09
1.17938e-07
6.58262e-09
1.16102e-07
6.13028e-09
1.14379e-07
5.71837e-09
1.12761e-07
5.34146e-09
1.11239e-07
4.99492e-09
1.09807e-07
4.67482e-09
1.0846e-07
4.37775e-09
1.07191e-07
4.10081e-09
1.05997e-07
3.84143e-09
1.04873e-07
3.59737e-09
1.03815e-07
3.36677e-09
1.02821e-07
3.14767e-09
1.01887e-07
2.93912e-09
1.01012e-07
2.73879e-09
1.00192e-07
2.54745e-09
9.94269e-08
2.36077e-09
9.87137e-08
2.18392e-09
9.80523e-08
2.00606e-09
9.74394e-08
1.84409e-09
9.68772e-08
1.6689e-09
9.63592e-08
1.52737e-09
9.58923e-08
1.34516e-09
9.5464e-08
1.2358e-09
9.50874e-08
1.03613e-09
9.47482e-08
9.558e-10
9.44514e-08
7.81272e-10
9.42159e-08
4.94149e-10
9.40441e-08
7.39039e-10
-1.74764e-09
9.34089e-08
1.95541e-07
1.07228e-07
1.98248e-07
9.78366e-08
1.98972e-07
6.71489e-08
1.97796e-07
5.45445e-08
1.95173e-07
4.56925e-08
1.91846e-07
3.87494e-08
1.88134e-07
3.37891e-08
1.84211e-07
2.99278e-08
1.80223e-07
2.66693e-08
1.7628e-07
2.38827e-08
1.72451e-07
2.15021e-08
1.68772e-07
1.94574e-08
1.65264e-07
1.76875e-08
1.61934e-07
1.61445e-08
1.58782e-07
1.47916e-08
1.55804e-07
1.35988e-08
1.52993e-07
1.25416e-08
1.50341e-07
1.15998e-08
1.47839e-07
1.07565e-08
1.45477e-07
9.99779e-09
1.43247e-07
9.31192e-09
1.4114e-07
8.68907e-09
1.3915e-07
8.12093e-09
1.37268e-07
7.60045e-09
1.35488e-07
7.12161e-09
1.33803e-07
6.67921e-09
1.32209e-07
6.2688e-09
1.30701e-07
5.88645e-09
1.29273e-07
5.52876e-09
1.27921e-07
5.19274e-09
1.26643e-07
4.87569e-09
1.25434e-07
4.57539e-09
1.24293e-07
4.2895e-09
1.23215e-07
4.01675e-09
1.22199e-07
3.75447e-09
1.21243e-07
3.50329e-09
1.20346e-07
3.25833e-09
1.19505e-07
3.02517e-09
1.18719e-07
2.79166e-09
1.17987e-07
2.57653e-09
1.17308e-07
2.34735e-09
1.1668e-07
2.1559e-09
1.16104e-07
1.92087e-09
1.15575e-07
1.7642e-09
1.15096e-07
1.51547e-09
1.14669e-07
1.38337e-09
1.14277e-07
1.17304e-09
1.13953e-07
8.18184e-10
1.13694e-07
9.97598e-10
-1.05462e-09
1.13001e-07
2.00848e-07
9.99645e-08
2.03777e-07
9.49079e-08
2.0533e-07
6.55962e-08
2.05649e-07
5.42257e-08
2.04828e-07
4.65132e-08
2.03357e-07
4.02206e-08
2.01424e-07
3.57218e-08
1.99115e-07
3.22372e-08
1.96534e-07
2.92496e-08
1.93785e-07
2.66318e-08
1.90948e-07
2.43397e-08
1.88081e-07
2.23239e-08
1.85229e-07
2.0539e-08
1.82424e-07
1.89499e-08
1.79687e-07
1.7529e-08
1.77031e-07
1.62541e-08
1.74467e-07
1.51059e-08
1.71999e-07
1.40683e-08
1.69628e-07
1.3127e-08
1.67356e-07
1.22702e-08
1.6518e-07
1.14874e-08
1.63099e-07
1.07698e-08
1.61111e-07
1.01094e-08
1.59212e-07
9.49974e-09
1.57398e-07
8.93482e-09
1.55668e-07
8.40952e-09
1.54018e-07
7.91934e-09
1.52444e-07
7.46023e-09
1.50944e-07
7.02867e-09
1.49515e-07
6.62145e-09
1.48155e-07
6.23572e-09
1.46861e-07
5.86902e-09
1.45632e-07
5.51883e-09
1.44465e-07
5.18368e-09
1.43359e-07
4.86066e-09
1.42312e-07
4.55031e-09
1.41323e-07
4.24744e-09
1.4039e-07
3.95775e-09
1.39513e-07
3.66847e-09
1.38691e-07
3.39907e-09
1.37922e-07
3.11587e-09
1.37206e-07
2.87201e-09
1.36542e-07
2.58528e-09
1.3593e-07
2.37619e-09
1.35363e-07
2.08218e-09
1.34856e-07
1.89013e-09
1.34382e-07
1.6476e-09
1.33971e-07
1.22938e-09
1.3363e-07
1.33795e-09
-3.20467e-10
1.32896e-07
2.06447e-07
9.30493e-08
2.09341e-07
9.20145e-08
2.1104e-07
6.38973e-08
2.11936e-07
5.33292e-08
2.1201e-07
4.64397e-08
2.1163e-07
4.05998e-08
2.10912e-07
3.64404e-08
2.09857e-07
3.32918e-08
2.08504e-07
3.06025e-08
2.06912e-07
2.82245e-08
2.05135e-07
2.61167e-08
2.03222e-07
2.42364e-08
2.01216e-07
2.2545e-08
1.99152e-07
2.10138e-08
1.97059e-07
1.96221e-08
1.9496e-07
1.83532e-08
1.92873e-07
1.71931e-08
1.90812e-07
1.61295e-08
1.88787e-07
1.51518e-08
1.86806e-07
1.42507e-08
1.84876e-07
1.34179e-08
1.82999e-07
1.26462e-08
1.8118e-07
1.19292e-08
1.79418e-07
1.12611e-08
1.77716e-07
1.06368e-08
1.76074e-07
1.00518e-08
1.74492e-07
9.50197e-09
1.72968e-07
8.98361e-09
1.71503e-07
8.49338e-09
1.70097e-07
8.0282e-09
1.68747e-07
7.5853e-09
1.67454e-07
7.16224e-09
1.66216e-07
6.7565e-09
1.65033e-07
6.36655e-09
1.63905e-07
5.98947e-09
1.62829e-07
5.62571e-09
1.61807e-07
5.27004e-09
1.60836e-07
4.92812e-09
1.59918e-07
4.58713e-09
1.5905e-07
4.26644e-09
1.58233e-07
3.93277e-09
1.57467e-07
3.63793e-09
1.56749e-07
3.30342e-09
1.56084e-07
3.0412e-09
1.5546e-07
2.70678e-09
1.54897e-07
2.4531e-09
1.54364e-07
2.18035e-09
1.53883e-07
1.71016e-09
1.53477e-07
1.74447e-09
4.29057e-10
1.52727e-07
2.12289e-07
8.64224e-08
2.15154e-07
8.915e-08
2.16794e-07
6.22568e-08
2.17849e-07
5.22746e-08
2.18268e-07
4.60205e-08
2.1839e-07
4.04777e-08
2.18323e-07
3.65076e-08
2.18036e-07
3.35789e-08
2.17522e-07
3.11164e-08
2.168e-07
2.89463e-08
2.15894e-07
2.70222e-08
2.1483e-07
2.53005e-08
2.13633e-07
2.3742e-08
2.12328e-07
2.23188e-08
2.10939e-07
2.10117e-08
2.09485e-07
1.98066e-08
2.07987e-07
1.86918e-08
2.06458e-07
1.76577e-08
2.04914e-07
1.66961e-08
2.03365e-07
1.57998e-08
2.0182e-07
1.49624e-08
2.00288e-07
1.41784e-08
1.98775e-07
1.34426e-08
1.97285e-07
1.27505e-08
1.95824e-07
1.20981e-08
1.94394e-07
1.14816e-08
1.92999e-07
1.08977e-08
1.91639e-07
1.03431e-08
1.90318e-07
9.81492e-09
1.89035e-07
9.31051e-09
1.87793e-07
8.82735e-09
1.86592e-07
8.36319e-09
1.85433e-07
7.91572e-09
1.84316e-07
7.4835e-09
1.83242e-07
7.06372e-09
1.82211e-07
6.65687e-09
1.81223e-07
6.25785e-09
1.80279e-07
5.8722e-09
1.79378e-07
5.48749e-09
1.78522e-07
5.12241e-09
1.7771e-07
4.74533e-09
1.76943e-07
4.4048e-09
1.76217e-07
4.02922e-09
1.75541e-07
3.71749e-09
1.74899e-07
3.3489e-09
1.74314e-07
3.03762e-09
1.73758e-07
2.7367e-09
1.73238e-07
2.22967e-09
1.72792e-07
2.1905e-09
1.16276e-09
1.72059e-07
2.1833e-07
8.00728e-08
2.21207e-07
8.62731e-08
2.22767e-07
6.06973e-08
2.23848e-07
5.11932e-08
2.24377e-07
4.54919e-08
2.24676e-07
4.01783e-08
2.24884e-07
3.62996e-08
2.24974e-07
3.34895e-08
2.24923e-07
3.11672e-08
2.24732e-07
2.9137e-08
2.24407e-07
2.73478e-08
2.23953e-07
2.57547e-08
2.23379e-07
2.43157e-08
2.22697e-07
2.30008e-08
2.21919e-07
2.17896e-08
2.21058e-07
2.06673e-08
2.20127e-07
1.96228e-08
2.19138e-07
1.8647e-08
2.18102e-07
1.77324e-08
2.17029e-07
1.68728e-08
2.15928e-07
1.60629e-08
2.14809e-07
1.52979e-08
2.13677e-07
1.4574e-08
2.12541e-07
1.38873e-08
2.11404e-07
1.32346e-08
2.10273e-07
1.2613e-08
2.09151e-07
1.20196e-08
2.08042e-07
1.14518e-08
2.0695e-07
1.09074e-08
2.05876e-07
1.03839e-08
2.04824e-07
9.87918e-09
2.03796e-07
9.3914e-09
2.02793e-07
8.91843e-09
2.01818e-07
8.45905e-09
2.00871e-07
8.01066e-09
1.99954e-07
7.57385e-09
1.99068e-07
7.14374e-09
1.98215e-07
6.72578e-09
1.97394e-07
6.30816e-09
1.96608e-07
5.90858e-09
1.95855e-07
5.49781e-09
1.9514e-07
5.11996e-09
1.94457e-07
4.7123e-09
1.93816e-07
4.35818e-09
1.93202e-07
3.96304e-09
1.92637e-07
3.60262e-09
1.92097e-07
3.27667e-09
1.91578e-07
2.74918e-09
1.91126e-07
2.64181e-09
1.847e-09
1.90442e-07
2.24559e-07
7.40071e-08
2.27471e-07
8.33606e-08
2.28964e-07
5.92051e-08
2.3005e-07
5.01064e-08
2.3062e-07
4.49219e-08
2.30969e-07
3.983e-08
2.31266e-07
3.60023e-08
2.31503e-07
3.32527e-08
2.31659e-07
3.10105e-08
2.31734e-07
2.90622e-08
2.31727e-07
2.73551e-08
2.31636e-07
2.58458e-08
2.31461e-07
2.44909e-08
2.31203e-07
2.32581e-08
2.30868e-07
2.21253e-08
2.30458e-07
2.10767e-08
2.29981e-07
2.00999e-08
2.29443e-07
1.91855e-08
2.28849e-07
1.83256e-08
2.28208e-07
1.75141e-08
2.27525e-07
1.67456e-08
2.26807e-07
1.60158e-08
2.2606e-07
1.5321e-08
2.2529e-07
1.46578e-08
2.24501e-07
1.40234e-08
2.23699e-07
1.34152e-08
2.22888e-07
1.28308e-08
2.22071e-07
1.22681e-08
2.21254e-07
1.1725e-08
2.20438e-07
1.11995e-08
2.19627e-07
1.06899e-08
2.18824e-07
1.01944e-08
2.18032e-07
9.71126e-09
2.17251e-07
9.23939e-09
2.16485e-07
8.77642e-09
2.15736e-07
8.32307e-09
2.15005e-07
7.87473e-09
2.14294e-07
7.43671e-09
2.13605e-07
6.99798e-09
2.12938e-07
6.575e-09
2.12294e-07
6.1415e-09
2.11678e-07
5.73634e-09
2.11084e-07
5.30671e-09
2.10522e-07
4.9196e-09
2.09979e-07
4.50619e-09
2.09474e-07
4.10792e-09
2.08989e-07
3.76124e-09
2.08509e-07
3.22897e-09
2.08089e-07
3.06247e-09
2.44999e-09
2.07486e-07
2.3098e-07
6.82332e-08
2.33936e-07
8.04043e-08
2.35369e-07
5.77721e-08
2.36462e-07
4.90134e-08
2.37066e-07
4.43182e-08
2.3743e-07
3.94663e-08
2.37749e-07
3.56833e-08
2.38031e-07
3.29699e-08
2.38263e-07
3.07785e-08
2.38447e-07
2.88787e-08
2.38584e-07
2.7218e-08
2.38673e-07
2.57567e-08
2.38712e-07
2.44521e-08
2.38698e-07
2.32714e-08
2.38633e-07
2.21912e-08
2.38514e-07
2.11948e-08
2.38345e-07
2.02692e-08
2.38126e-07
1.9404e-08
2.37861e-07
1.85909e-08
2.37552e-07
1.78231e-08
2.37203e-07
1.7095e-08
2.36817e-07
1.6402e-08
2.36397e-07
1.57403e-08
2.35949e-07
1.51065e-08
2.35474e-07
1.44978e-08
2.34978e-07
1.39118e-08
2.34462e-07
1.33461e-08
2.33932e-07
1.27988e-08
2.33389e-07
1.22679e-08
2.32837e-07
1.17517e-08
2.32278e-07
1.12485e-08
2.31716e-07
1.07569e-08
2.31152e-07
1.0275e-08
2.30589e-07
9.80218e-09
2.30029e-07
9.33602e-09
2.29475e-07
8.87739e-09
2.28928e-07
8.42192e-09
2.2839e-07
7.97473e-09
2.27862e-07
7.52566e-09
2.27347e-07
7.08969e-09
2.26845e-07
6.64386e-09
2.2636e-07
6.2213e-09
2.25887e-07
5.77947e-09
2.25438e-07
5.36935e-09
2.24998e-07
4.94563e-09
2.24584e-07
4.52173e-09
2.24186e-07
4.15937e-09
2.2378e-07
3.63564e-09
2.23421e-07
3.42143e-09
2.94688e-09
2.22924e-07
2.37601e-07
6.27572e-08
2.40604e-07
7.74016e-08
2.41979e-07
5.63963e-08
2.43077e-07
4.79153e-08
2.43719e-07
4.36771e-08
2.44096e-07
3.90889e-08
2.44421e-07
3.53587e-08
2.44716e-07
3.26745e-08
2.44971e-07
3.05234e-08
2.45191e-07
2.86587e-08
2.45382e-07
2.70267e-08
2.45546e-07
2.55929e-08
2.45681e-07
2.43169e-08
2.45787e-07
2.31661e-08
2.45861e-07
2.2117e-08
2.45903e-07
2.11528e-08
2.45912e-07
2.02599e-08
2.45889e-07
1.94276e-08
2.45832e-07
1.86473e-08
2.45744e-07
1.79116e-08
2.45624e-07
1.72146e-08
2.45475e-07
1.65515e-08
2.45297e-07
1.5918e-08
2.45093e-07
1.53107e-08
2.44864e-07
1.47266e-08
2.44613e-07
1.4163e-08
2.44341e-07
1.36176e-08
2.44052e-07
1.30884e-08
2.43746e-07
1.25736e-08
2.43426e-07
1.20713e-08
2.43095e-07
1.15799e-08
2.42754e-07
1.10981e-08
2.42405e-07
1.06241e-08
2.4205e-07
1.01571e-08
2.41691e-07
9.69505e-09
2.4133e-07
9.2387e-09
2.40968e-07
8.7839e-09
2.40607e-07
8.33547e-09
2.40248e-07
7.88421e-09
2.39895e-07
7.44339e-09
2.39545e-07
6.99353e-09
2.39204e-07
6.56193e-09
2.38868e-07
6.1159e-09
2.38545e-07
5.69188e-09
2.38227e-07
5.2644e-09
2.37922e-07
4.82622e-09
2.37628e-07
4.45318e-09
2.37316e-07
3.94787e-09
2.37039e-07
3.69797e-09
3.32404e-09
2.36662e-07
2.44431e-07
5.75825e-08
2.47473e-07
7.43592e-08
2.488e-07
5.50693e-08
2.49899e-07
4.68169e-08
2.50579e-07
4.29972e-08
2.50973e-07
3.86941e-08
2.51303e-07
3.50293e-08
2.51604e-07
3.23732e-08
2.51867e-07
3.02603e-08
2.52098e-07
2.84273e-08
2.52307e-07
2.6818e-08
2.52497e-07
2.5403e-08
2.52669e-07
2.4145e-08
2.52823e-07
2.30119e-08
2.52959e-07
2.19809e-08
2.53077e-07
2.10351e-08
2.53175e-07
2.01613e-08
2.53254e-07
1.93488e-08
2.53313e-07
1.85885e-08
2.53351e-07
1.78732e-08
2.53369e-07
1.71968e-08
2.53367e-07
1.6554e-08
2.53344e-07
1.59405e-08
2.53302e-07
1.53527e-08
2.53241e-07
1.47873e-08
2.53163e-07
1.42415e-08
2.53067e-07
1.37131e-08
2.52956e-07
1.31997e-08
2.5283e-07
1.26995e-08
2.52691e-07
1.22107e-08
2.52539e-07
1.17315e-08
2.52377e-07
1.12607e-08
2.52204e-07
1.07963e-08
2.52024e-07
1.03378e-08
2.51836e-07
9.88294e-09
2.51642e-07
9.43243e-09
2.51444e-07
8.98239e-09
2.51242e-07
8.53717e-09
2.51037e-07
8.08861e-09
2.50833e-07
7.64811e-09
2.50627e-07
7.19967e-09
2.50424e-07
6.76492e-09
2.50219e-07
6.32014e-09
2.50022e-07
5.88935e-09
2.49824e-07
5.46263e-09
2.4963e-07
5.01937e-09
2.49444e-07
4.63991e-09
2.49233e-07
4.15891e-09
2.49046e-07
3.88443e-09
3.58077e-09
2.4879e-07
2.51478e-07
5.2711e-08
2.54551e-07
7.12866e-08
2.55839e-07
5.37809e-08
2.56932e-07
4.57237e-08
2.5765e-07
4.22794e-08
2.58065e-07
3.82792e-08
2.58401e-07
3.46939e-08
2.58707e-07
3.20664e-08
2.58976e-07
2.99917e-08
2.59212e-07
2.8191e-08
2.59427e-07
2.66034e-08
2.59625e-07
2.52047e-08
2.5981e-07
2.39607e-08
2.59981e-07
2.28403e-08
2.60141e-07
2.18212e-08
2.60289e-07
2.08868e-08
2.60426e-07
2.00244e-08
2.60552e-07
1.92233e-08
2.60666e-07
1.84747e-08
2.60767e-07
1.77714e-08
2.60857e-07
1.71071e-08
2.60935e-07
1.64766e-08
2.61e-07
1.58755e-08
2.61052e-07
1.53e-08
2.61093e-07
1.47469e-08
2.61121e-07
1.42131e-08
2.61138e-07
1.36964e-08
2.61143e-07
1.31943e-08
2.61137e-07
1.2705e-08
2.61122e-07
1.22265e-08
2.61096e-07
1.17571e-08
2.61061e-07
1.12954e-08
2.61018e-07
1.08396e-08
2.60967e-07
1.03889e-08
2.60909e-07
9.94115e-09
2.60844e-07
9.49699e-09
2.60774e-07
9.05274e-09
2.60699e-07
8.6122e-09
2.60619e-07
8.16829e-09
2.60537e-07
7.73048e-09
2.6045e-07
7.2861e-09
2.60364e-07
6.85156e-09
2.60273e-07
6.41088e-09
2.60184e-07
5.9781e-09
2.60092e-07
5.55451e-09
2.59999e-07
5.11261e-09
2.59909e-07
4.72985e-09
2.59793e-07
4.27528e-09
2.59692e-07
3.98537e-09
3.72807e-09
2.59545e-07
2.58751e-07
4.81428e-08
2.61844e-07
6.81938e-08
2.63104e-07
5.25205e-08
2.64187e-07
4.46407e-08
2.6494e-07
4.15263e-08
2.65378e-07
3.78418e-08
2.6572e-07
3.43514e-08
2.66033e-07
3.17536e-08
2.66308e-07
2.9717e-08
2.66549e-07
2.79502e-08
2.66767e-07
2.63854e-08
2.66969e-07
2.50028e-08
2.67157e-07
2.37719e-08
2.67335e-07
2.26627e-08
2.67503e-07
2.16532e-08
2.67662e-07
2.07274e-08
2.67814e-07
1.98728e-08
2.67958e-07
1.90791e-08
2.68095e-07
1.83378e-08
2.68225e-07
1.76416e-08
2.68347e-07
1.69844e-08
2.68463e-07
1.6361e-08
2.68571e-07
1.57671e-08
2.68673e-07
1.51988e-08
2.68767e-07
1.46528e-08
2.68854e-07
1.41262e-08
2.68934e-07
1.36165e-08
2.69007e-07
1.31214e-08
2.69073e-07
1.26388e-08
2.69132e-07
1.2167e-08
2.69185e-07
1.17041e-08
2.69232e-07
1.12486e-08
2.69273e-07
1.07988e-08
2.69308e-07
1.03539e-08
2.69338e-07
9.91159e-09
2.69362e-07
9.47251e-09
2.69382e-07
9.03322e-09
2.69397e-07
8.59691e-09
2.69408e-07
8.15759e-09
2.69415e-07
7.72286e-09
2.69418e-07
7.28307e-09
2.6942e-07
6.85011e-09
2.69416e-07
6.41428e-09
2.69412e-07
5.9822e-09
2.69404e-07
5.56239e-09
2.69391e-07
5.12562e-09
2.69379e-07
4.74159e-09
2.69342e-07
4.31253e-09
2.69314e-07
4.01395e-09
3.78475e-09
2.69257e-07
2.66259e-07
4.38762e-08
2.69361e-07
6.50913e-08
2.70604e-07
5.12775e-08
2.71673e-07
4.35724e-08
2.72458e-07
4.07413e-08
2.72919e-07
3.73804e-08
2.7327e-07
3.40008e-08
2.73588e-07
3.14348e-08
2.73869e-07
2.9436e-08
2.74115e-07
2.77046e-08
2.74337e-07
2.61638e-08
2.74541e-07
2.47979e-08
2.74733e-07
2.35803e-08
2.74914e-07
2.24821e-08
2.75085e-07
2.14818e-08
2.75249e-07
2.05637e-08
2.75405e-07
1.97159e-08
2.75557e-07
1.89281e-08
2.75702e-07
1.81921e-08
2.75843e-07
1.75008e-08
2.75979e-07
1.68482e-08
2.76111e-07
1.62292e-08
2.76239e-07
1.56395e-08
2.76362e-07
1.50753e-08
2.76482e-07
1.45333e-08
2.76597e-07
1.40106e-08
2.76709e-07
1.35047e-08
2.76817e-07
1.30134e-08
2.76921e-07
1.25346e-08
2.77022e-07
1.20664e-08
2.77119e-07
1.16071e-08
2.77212e-07
1.11553e-08
2.77302e-07
1.0709e-08
2.77388e-07
1.02675e-08
2.77471e-07
9.82869e-09
2.77551e-07
9.3929e-09
2.77627e-07
8.95704e-09
2.777e-07
8.52369e-09
2.7777e-07
8.08793e-09
2.77837e-07
7.65562e-09
2.779e-07
7.21977e-09
2.77962e-07
6.78855e-09
2.78019e-07
6.35704e-09
2.78074e-07
5.92686e-09
2.78126e-07
5.51041e-09
2.78172e-07
5.08045e-09
2.78217e-07
4.69628e-09
2.7824e-07
4.28986e-09
2.78266e-07
3.98712e-09
3.77256e-09
2.78279e-07
2.7401e-07
3.99078e-08
2.77111e-07
6.19902e-08
2.78347e-07
5.00417e-08
2.79397e-07
4.25222e-08
2.8021e-07
3.99284e-08
2.80697e-07
3.68934e-08
2.81056e-07
3.36413e-08
2.81381e-07
3.11101e-08
2.81668e-07
2.91484e-08
2.81919e-07
2.74537e-08
2.82145e-07
2.59384e-08
2.82353e-07
2.459e-08
2.82547e-07
2.33861e-08
2.8273e-07
2.22992e-08
2.82903e-07
2.13082e-08
2.83069e-07
2.03978e-08
2.83229e-07
1.95564e-08
2.83383e-07
1.87741e-08
2.83532e-07
1.80428e-08
2.83677e-07
1.73557e-08
2.83819e-07
1.67067e-08
2.83957e-07
1.60909e-08
2.84092e-07
1.55041e-08
2.84225e-07
1.49425e-08
2.84356e-07
1.44028e-08
2.84484e-07
1.38823e-08
2.8461e-07
1.33784e-08
2.84735e-07
1.2889e-08
2.84857e-07
1.2412e-08
2.84978e-07
1.19456e-08
2.85097e-07
1.1488e-08
2.85215e-07
1.10378e-08
2.8533e-07
1.05933e-08
2.85444e-07
1.01535e-08
2.85557e-07
9.71645e-09
2.85667e-07
9.28236e-09
2.85776e-07
8.84848e-09
2.85883e-07
8.4168e-09
2.85987e-07
7.98337e-09
2.8609e-07
7.55256e-09
2.8619e-07
7.11959e-09
2.86289e-07
6.68973e-09
2.86385e-07
6.26151e-09
2.86478e-07
5.83354e-09
2.86569e-07
5.41962e-09
2.86653e-07
4.99676e-09
2.86736e-07
4.61311e-09
2.868e-07
4.22544e-09
2.86866e-07
3.92126e-09
3.71188e-09
2.86927e-07
2.82013e-07
3.62322e-08
2.85101e-07
5.89019e-08
2.8634e-07
4.88037e-08
2.87369e-07
4.14929e-08
2.88205e-07
3.90924e-08
2.88719e-07
3.63794e-08
2.89088e-07
3.32717e-08
2.89419e-07
3.07794e-08
2.89713e-07
2.88541e-08
2.8997e-07
2.71971e-08
2.902e-07
2.57089e-08
2.90411e-07
2.43788e-08
2.90608e-07
2.3189e-08
2.90793e-07
2.21138e-08
2.90969e-07
2.11324e-08
2.91137e-07
2.02299e-08
2.91298e-07
1.9395e-08
2.91454e-07
1.86182e-08
2.91605e-07
1.78916e-08
2.91753e-07
1.72083e-08
2.91897e-07
1.65626e-08
2.92038e-07
1.59497e-08
2.92177e-07
1.53653e-08
2.92314e-07
1.48056e-08
2.92449e-07
1.42676e-08
2.92583e-07
1.37485e-08
2.92715e-07
1.32458e-08
2.92847e-07
1.27573e-08
2.92978e-07
1.22811e-08
2.93108e-07
1.18154e-08
2.93238e-07
1.13584e-08
2.93367e-07
1.09088e-08
2.93495e-07
1.04649e-08
2.93623e-07
1.00257e-08
2.9375e-07
9.58932e-09
2.93876e-07
9.15586e-09
2.94002e-07
8.7229e-09
2.94127e-07
8.2919e-09
2.9425e-07
7.8598e-09
2.94373e-07
7.42972e-09
2.94494e-07
6.99864e-09
2.94614e-07
6.5697e-09
2.94732e-07
6.14371e-09
2.94848e-07
5.71789e-09
2.94962e-07
5.30568e-09
2.95069e-07
4.88944e-09
2.95175e-07
4.50668e-09
2.95267e-07
4.13376e-09
2.95359e-07
3.82952e-09
3.61903e-09
2.95452e-07
2.90279e-07
3.28423e-08
2.93342e-07
5.58381e-08
2.94592e-07
4.75544e-08
2.95598e-07
4.04864e-08
2.96452e-07
3.82384e-08
2.96994e-07
3.58376e-08
2.97375e-07
3.28904e-08
2.97712e-07
3.04429e-08
2.98013e-07
2.85531e-08
2.98276e-07
2.69345e-08
2.9851e-07
2.54749e-08
2.98724e-07
2.41641e-08
2.98924e-07
2.29889e-08
2.99112e-07
2.19258e-08
2.99291e-07
2.09543e-08
2.99461e-07
2.00599e-08
2.99624e-07
1.92317e-08
2.99782e-07
1.84605e-08
2.99935e-07
1.77386e-08
3.00084e-07
1.70592e-08
3.00229e-07
1.64169e-08
3.00372e-07
1.58067e-08
3.00513e-07
1.52244e-08
3.00652e-07
1.46666e-08
3.0079e-07
1.41301e-08
3.00926e-07
1.3612e-08
3.01062e-07
1.31101e-08
3.01197e-07
1.26222e-08
3.01332e-07
1.21463e-08
3.01467e-07
1.16808e-08
3.01601e-07
1.12239e-08
3.01736e-07
1.07744e-08
3.0187e-07
1.03304e-08
3.02005e-07
9.89115e-09
3.02139e-07
9.45487e-09
3.02273e-07
9.0214e-09
3.02408e-07
8.58872e-09
3.02542e-07
8.1578e-09
3.02675e-07
7.72636e-09
3.02808e-07
7.2965e-09
3.02941e-07
6.86654e-09
3.03072e-07
6.43821e-09
3.03202e-07
6.01363e-09
3.0333e-07
5.58975e-09
3.03457e-07
5.17867e-09
3.03578e-07
4.76821e-09
3.03699e-07
4.38664e-09
3.03808e-07
4.02476e-09
3.03916e-07
3.72097e-09
3.50553e-09
3.0403e-07
2.98816e-07
2.97293e-08
3.01843e-07
5.2811e-08
3.03111e-07
4.6286e-08
3.04094e-07
3.95034e-08
3.04961e-07
3.73719e-08
3.05531e-07
3.52675e-08
3.05925e-07
3.2496e-08
3.06268e-07
3.01003e-08
3.06575e-07
2.82453e-08
3.06844e-07
2.66655e-08
3.07083e-07
2.52361e-08
3.07302e-07
2.39456e-08
3.07505e-07
2.27856e-08
3.07696e-07
2.17348e-08
3.07877e-07
2.07736e-08
3.08049e-07
1.98876e-08
3.08214e-07
1.90664e-08
3.08374e-07
1.83009e-08
3.08529e-07
1.75838e-08
3.08679e-07
1.69085e-08
3.08827e-07
1.62694e-08
3.08972e-07
1.5662e-08
3.09114e-07
1.5082e-08
3.09255e-07
1.45259e-08
3.09394e-07
1.39907e-08
3.09532e-07
1.34737e-08
3.0967e-07
1.29724e-08
3.09807e-07
1.24849e-08
3.09945e-07
1.20092e-08
3.10082e-07
1.15437e-08
3.10219e-07
1.10867e-08
3.10356e-07
1.06369e-08
3.10494e-07
1.01926e-08
3.10632e-07
9.75306e-09
3.10771e-07
9.31652e-09
3.10909e-07
8.88274e-09
3.11048e-07
8.44998e-09
3.11187e-07
8.01883e-09
3.11326e-07
7.58762e-09
3.11465e-07
7.15771e-09
3.11603e-07
6.72837e-09
3.11741e-07
6.30045e-09
3.11877e-07
5.8767e-09
3.12013e-07
5.45454e-09
3.12147e-07
5.04423e-09
3.12277e-07
4.63864e-09
3.12405e-07
4.25845e-09
3.12525e-07
3.90446e-09
3.12645e-07
3.60106e-09
3.37856e-09
3.12772e-07
3.07634e-07
2.68826e-08
3.10612e-07
4.98325e-08
3.11907e-07
4.49918e-08
3.12866e-07
3.85439e-08
3.1374e-07
3.64983e-08
3.14338e-07
3.46693e-08
3.14747e-07
3.2087e-08
3.15096e-07
2.97516e-08
3.1541e-07
2.79309e-08
3.15686e-07
2.63898e-08
3.1593e-07
2.49921e-08
3.16152e-07
2.37231e-08
3.16359e-07
2.25788e-08
3.16553e-07
2.15408e-08
3.16737e-07
2.05902e-08
3.16911e-07
1.97129e-08
3.17079e-07
1.88988e-08
3.17241e-07
1.81393e-08
3.17397e-07
1.74271e-08
3.1755e-07
1.67559e-08
3.17699e-07
1.61203e-08
3.17846e-07
1.55156e-08
3.1799e-07
1.49378e-08
3.18132e-07
1.43836e-08
3.18273e-07
1.38497e-08
3.18413e-07
1.33336e-08
3.18553e-07
1.2833e-08
3.18692e-07
1.23458e-08
3.18831e-07
1.18702e-08
3.1897e-07
1.14046e-08
3.19109e-07
1.09474e-08
3.19249e-07
1.04972e-08
3.19389e-07
1.00526e-08
3.19529e-07
9.61255e-09
3.1967e-07
9.17561e-09
3.19812e-07
8.74136e-09
3.19953e-07
8.30833e-09
3.20095e-07
7.8768e-09
3.20237e-07
7.44558e-09
3.2038e-07
7.01548e-09
3.20521e-07
6.58643e-09
3.20663e-07
6.15881e-09
3.20804e-07
5.73551e-09
3.20944e-07
5.31485e-09
3.21083e-07
4.90514e-09
3.21218e-07
4.50349e-09
3.21352e-07
4.12474e-09
3.2148e-07
3.77606e-09
3.21609e-07
3.47267e-09
3.24218e-09
3.21745e-07
3.16744e-07
2.42902e-08
3.19661e-07
4.69147e-08
3.20987e-07
4.36664e-08
3.21924e-07
3.76068e-08
3.22799e-07
3.56226e-08
3.23425e-07
3.40443e-08
3.2385e-07
3.16616e-08
3.24205e-07
2.93961e-08
3.24526e-07
2.76098e-08
3.24809e-07
2.61072e-08
3.25059e-07
2.47425e-08
3.25285e-07
2.34962e-08
3.25496e-07
2.23683e-08
3.25693e-07
2.13435e-08
3.2588e-07
2.04038e-08
3.26057e-07
1.95355e-08
3.26227e-07
1.87288e-08
3.26391e-07
1.79754e-08
3.2655e-07
1.72682e-08
3.26704e-07
1.66013e-08
3.26855e-07
1.59692e-08
3.27004e-07
1.53674e-08
3.2715e-07
1.47919e-08
3.27294e-07
1.42394e-08
3.27437e-07
1.37069e-08
3.27578e-07
1.31918e-08
3.2772e-07
1.26918e-08
3.2786e-07
1.22049e-08
3.28001e-07
1.17294e-08
3.28142e-07
1.12637e-08
3.28283e-07
1.08061e-08
3.28425e-07
1.03556e-08
3.28567e-07
9.9105e-09
3.2871e-07
9.46995e-09
3.28853e-07
9.03254e-09
3.28996e-07
8.59775e-09
3.2914e-07
8.16434e-09
3.29285e-07
7.73235e-09
3.29429e-07
7.30095e-09
3.29574e-07
6.8706e-09
3.29719e-07
6.44161e-09
3.29864e-07
6.0142e-09
3.30008e-07
5.59114e-09
3.30151e-07
5.17171e-09
3.30294e-07
4.7625e-09
3.30434e-07
4.3639e-09
3.30572e-07
3.98654e-09
3.30707e-07
3.64111e-09
3.30842e-07
3.33714e-09
3.09843e-09
3.30986e-07
3.26154e-07
2.19388e-08
3.28999e-07
4.40693e-08
3.3036e-07
4.2306e-08
3.31276e-07
3.66903e-08
3.32149e-07
3.47498e-08
3.328e-07
3.33939e-08
3.33243e-07
3.12184e-08
3.33605e-07
2.90333e-08
3.33933e-07
2.72822e-08
3.34223e-07
2.58175e-08
3.34478e-07
2.44869e-08
3.3471e-07
2.32647e-08
3.34924e-07
2.21538e-08
3.35125e-07
2.11426e-08
3.35315e-07
2.02142e-08
3.35495e-07
1.93553e-08
3.35668e-07
1.85561e-08
3.35834e-07
1.7809e-08
3.35995e-07
1.71072e-08
3.36152e-07
1.64445e-08
3.36305e-07
1.5816e-08
3.36455e-07
1.52171e-08
3.36603e-07
1.46441e-08
3.36749e-07
1.40934e-08
3.36894e-07
1.35622e-08
3.37037e-07
1.30481e-08
3.37181e-07
1.25487e-08
3.37323e-07
1.20621e-08
3.37466e-07
1.15867e-08
3.37609e-07
1.11208e-08
3.37752e-07
1.0663e-08
3.37896e-07
1.0212e-08