/*--------------------------------*- C++ -*----------------------------------*\
  =========                 |
  \\      /  F ield         | OpenFOAM: The Open Source CFD Toolbox
   \\    /   O peration     | Website:  https://openfoam.org
    \\  /    A nd           | Version:  7
     \\/     M anipulation  |
\*---------------------------------------------------------------------------*/
FoamFile
{
    version     2.0;
    format      ascii;
    class       surfaceScalarField;
    location    "0.13";
    object      phi_0;
}
// * * * * * * * * * * * * * * * * * * * * * * * * * * * * * * * * * * * * * //

dimensions      [0 3 -1 0 0 0 0];

internalField   nonuniform List<scalar> 
139350
(
6.45935e-08
9.2038e-08
3.19541e-08
3.26393e-08
2.30662e-08
8.88795e-09
1.95758e-08
3.49038e-09
1.76286e-08
1.94717e-09
1.62062e-08
1.42242e-09
1.50788e-08
1.12744e-09
1.41707e-08
9.08066e-10
1.34244e-08
7.46321e-10
1.27966e-08
6.27754e-10
1.22586e-08
5.38035e-10
1.17909e-08
4.67669e-10
1.13799e-08
4.11027e-10
1.10153e-08
3.64573e-10
1.06894e-08
3.25895e-10
1.03962e-08
2.93267e-10
1.01308e-08
2.65423e-10
9.88935e-09
2.41411e-10
9.66884e-09
2.20509e-10
9.46668e-09
2.02157e-10
9.28076e-09
1.85917e-10
9.10932e-09
1.71441e-10
8.95087e-09
1.58449e-10
8.80416e-09
1.46713e-10
8.66811e-09
1.36051e-10
8.5418e-09
1.26306e-10
8.42445e-09
1.17351e-10
8.31537e-09
1.0908e-10
8.21397e-09
1.01398e-10
8.11974e-09
9.42365e-11
8.03222e-09
8.75134e-11
7.95102e-09
8.12007e-11
7.87582e-09
7.52051e-11
7.80626e-09
6.95619e-11
7.74214e-09
6.41197e-11
7.6831e-09
5.90367e-11
7.62908e-09
5.4018e-11
7.57964e-09
4.94443e-11
7.53487e-09
4.47712e-11
7.4942e-09
4.06671e-11
7.4578e-09
3.63977e-11
7.42528e-09
3.25249e-11
7.39606e-09
2.92207e-11
7.37169e-09
2.43653e-11
7.3473e-09
2.43869e-11
7.33387e-09
1.34379e-11
7.30605e-09
2.78156e-11
7.33102e-09
-2.49691e-11
7.12983e-09
2.01192e-10
-3.18943e-09
1.03193e-08
1.26027e-07
1.27454e-07
9.12691e-08
6.73973e-08
7.1956e-08
2.82011e-08
6.12393e-08
1.4207e-08
5.48054e-08
8.38107e-09
5.03256e-08
5.90222e-09
4.68567e-08
4.59635e-09
4.40569e-08
3.70789e-09
4.17468e-08
3.05648e-09
3.98014e-08
2.57307e-09
3.81338e-08
2.20567e-09
3.66838e-08
1.91768e-09
3.54087e-08
1.68607e-09
3.42771e-08
1.49617e-09
3.3265e-08
1.33806e-09
3.23536e-08
1.20467e-09
3.15282e-08
1.09081e-09
3.0777e-08
9.92623e-10
3.00903e-08
9.07142e-10
2.94604e-08
8.32085e-10
2.88807e-08
7.65664e-10
2.83457e-08
7.06456e-10
2.78508e-08
6.53321e-10
2.73922e-08
6.05331e-10
2.69665e-08
5.61727e-10
2.65709e-08
5.21877e-10
2.6203e-08
4.85258e-10
2.58607e-08
4.51427e-10
2.55421e-08
4.20001e-10
2.52456e-08
3.90678e-10
2.497e-08
3.63148e-10
2.47139e-08
3.37238e-10
2.44765e-08
3.1264e-10
2.42567e-08
2.89368e-10
2.40539e-08
2.66972e-10
2.3867e-08
2.45843e-10
2.3696e-08
2.25079e-10
2.35396e-08
2.05876e-10
2.33981e-08
1.86268e-10
2.32696e-08
1.69087e-10
2.31558e-08
1.50215e-10
2.3053e-08
1.35379e-10
2.29651e-08
1.1709e-10
2.28851e-08
1.04345e-10
2.28212e-08
8.83002e-11
2.27633e-08
7.13815e-11
2.27134e-08
7.76602e-11
2.27242e-08
-3.57942e-11
2.25487e-08
3.76742e-10
-3.81298e-09
2.31722e-08
1.58808e-07
1.3505e-07
1.365e-07
8.97054e-08
1.17508e-07
4.71927e-08
1.03345e-07
2.83705e-08
9.3356e-08
1.83701e-08
8.60748e-08
1.31834e-08
8.03918e-08
1.02793e-08
7.5765e-08
8.33466e-09
7.19119e-08
6.90962e-09
6.86453e-08
5.8397e-09
6.58319e-08
5.01909e-09
6.33768e-08
4.37273e-09
6.12116e-08
3.85131e-09
5.9285e-08
3.42273e-09
5.7558e-08
3.06512e-09
5.59998e-08
2.76286e-09
5.45861e-08
2.50447e-09
5.32974e-08
2.28134e-09
5.21177e-08
2.08687e-09
5.10338e-08
1.91597e-09
5.00348e-08
1.76461e-09
4.91117e-08
1.62962e-09
4.82566e-08
1.50841e-09
4.7463e-08
1.3989e-09
4.67254e-08
1.29937e-09
4.60389e-08
1.20839e-09
4.53993e-08
1.12478e-09
4.48033e-08
1.04752e-09
4.42475e-08
9.75748e-10
4.37294e-08
9.08755e-10
4.32467e-08
8.45864e-10
4.27973e-08
7.86618e-10
4.23796e-08
7.3039e-10
4.19919e-08
6.77073e-10
4.1633e-08
6.25816e-10
4.13017e-08
5.7722e-10
4.09972e-08
5.29581e-10
4.07179e-08
4.85156e-10
4.04643e-08
4.39889e-10
4.02333e-08
3.99995e-10
4.0028e-08
3.55555e-10
3.98415e-08
3.21925e-10
3.96827e-08
2.75883e-10
3.95352e-08
2.51759e-10
3.94221e-08
2.01463e-10
3.93091e-08
1.84371e-10
3.92335e-08
1.53303e-10
3.91951e-08
2.54408e-12
3.91325e-08
4.39396e-10
-3.49459e-09
3.88141e-08
1.75664e-07
1.30901e-07
1.65599e-07
9.97713e-08
1.52736e-07
6.00552e-08
1.40152e-07
4.09549e-08
1.29482e-07
2.90394e-08
1.20864e-07
2.1802e-08
1.1378e-07
1.73632e-08
1.0783e-07
1.42848e-08
1.02761e-07
1.19778e-08
9.83926e-08
1.02086e-08
9.45831e-08
8.8286e-09
9.12272e-08
7.72866e-09
8.82449e-08
6.83362e-09
8.55747e-08
6.09292e-09
8.31684e-08
5.4714e-09
8.09876e-08
4.94363e-09
7.90014e-08
4.49071e-09
7.71844e-08
4.0983e-09
7.55159e-08
3.75535e-09
7.39787e-08
3.45324e-09
7.25581e-08
3.18515e-09
7.12421e-08
2.94562e-09
7.00203e-08
2.73025e-09
6.88838e-08
2.53543e-09
6.78249e-08
2.35819e-09
6.68373e-08
2.19605e-09
6.59151e-08
2.04693e-09
6.50536e-08
1.90907e-09
6.42484e-08
1.78095e-09
6.34958e-08
1.66131e-09
6.27927e-08
1.54897e-09
6.21363e-08
1.44308e-09
6.15241e-08
1.3426e-09
6.09539e-08
1.24719e-09
6.04242e-08
1.15554e-09
5.99331e-08
1.06838e-09
5.94795e-08
9.83101e-10
5.90616e-08
9.03091e-10
5.86796e-08
8.2186e-10
5.83301e-08
7.4957e-10
5.80163e-08
6.69305e-10
5.77301e-08
6.08153e-10
5.74825e-08
5.23491e-10
5.72533e-08
4.80882e-10
5.70705e-08
3.8429e-10
5.68934e-08
3.61478e-10
5.67673e-08
2.79414e-10
5.66719e-08
9.79374e-11
5.6636e-08
4.7533e-10
-2.96637e-09
5.61078e-08
1.8456e-07
1.23126e-07
1.82323e-07
1.02008e-07
1.76111e-07
6.62675e-08
1.6778e-07
4.92859e-08
1.59175e-07
3.76443e-08
1.5129e-07
2.96873e-08
1.44246e-07
2.44069e-08
1.37979e-07
2.05514e-08
1.32415e-07
1.75423e-08
1.27468e-07
1.51557e-08
1.23052e-07
1.32445e-08
1.1909e-07
1.16902e-08
1.15518e-07
1.04057e-08
1.12282e-07
9.32931e-09
1.09336e-07
8.41688e-09
1.06644e-07
7.63547e-09
1.04175e-07
6.96008e-09
1.01902e-07
6.37134e-09
9.98033e-08
5.85415e-09
9.786e-08
5.39651e-09
9.60563e-08
4.98884e-09
9.43785e-08
4.6234e-09
9.28149e-08
4.29386e-09
9.13553e-08
3.99502e-09
8.99909e-08
3.72257e-09
8.87141e-08
3.47287e-09
8.75182e-08
3.24286e-09
8.63973e-08
3.02993e-09
8.53464e-08
2.83184e-09
8.43611e-08
2.64666e-09
8.34374e-08
2.47267e-09
8.2572e-08
2.30852e-09
8.17618e-08
2.15271e-09
8.10044e-08
2.0046e-09
8.02976e-08
1.86236e-09
7.96392e-08
1.72679e-09
7.9028e-08
1.59436e-09
7.84616e-08
1.46947e-09
7.79402e-08
1.34327e-09
7.74601e-08
1.22967e-09
7.70244e-08
1.10496e-09
7.66251e-08
1.00747e-09
7.62723e-08
8.76264e-10
7.59478e-08
8.05414e-10
7.56748e-08
6.57234e-10
7.5422e-08
6.14326e-10
7.52193e-08
4.82136e-10
7.50611e-08
2.56097e-10
7.4972e-08
5.64473e-10
-2.38821e-09
7.43938e-08
1.90389e-07
1.14954e-07
1.91853e-07
1.00544e-07
1.90249e-07
6.7872e-08
1.86166e-07
5.33684e-08
1.80741e-07
4.30693e-08
1.75007e-07
3.54218e-08
1.69336e-07
3.00775e-08
1.63884e-07
2.60038e-08
1.58745e-07
2.26813e-08
1.5396e-07
1.99402e-08
1.49532e-07
1.76724e-08
1.45444e-07
1.57786e-08
1.4167e-07
1.4179e-08
1.38185e-07
1.28143e-08
1.34962e-07
1.16398e-08
1.31977e-07
1.0621e-08
1.29206e-07
9.73083e-09
1.2663e-07
8.94756e-09
1.2423e-07
8.25389e-09
1.21991e-07
7.63576e-09
1.19898e-07
7.08174e-09
1.17939e-07
6.58243e-09
1.16103e-07
6.13005e-09
1.1438e-07
5.7181e-09
1.12761e-07
5.34115e-09
1.11239e-07
4.99456e-09
1.09808e-07
4.67441e-09
1.08461e-07
4.37728e-09
1.07192e-07
4.10027e-09
1.05998e-07
3.84082e-09
1.04874e-07
3.59666e-09
1.03816e-07
3.36597e-09
1.02822e-07
3.14677e-09
1.01889e-07
2.9381e-09
1.01014e-07
2.73764e-09
1.00194e-07
2.54615e-09
9.94293e-08
2.35931e-09
9.87165e-08
2.18229e-09
9.80555e-08
2.00424e-09
9.74431e-08
1.84208e-09
9.68814e-08
1.66668e-09
9.63639e-08
1.52496e-09
9.58976e-08
1.34254e-09
9.547e-08
1.23302e-09
9.50941e-08
1.03313e-09
9.47557e-08
9.52752e-10
9.44598e-08
7.78048e-10
9.42252e-08
4.9071e-10
9.40543e-08
7.35379e-10
-1.75396e-09
9.342e-08
1.95541e-07
1.07228e-07
1.98248e-07
9.78364e-08
1.98972e-07
6.71486e-08
1.97796e-07
5.45441e-08
1.95173e-07
4.56922e-08
1.91846e-07
3.8749e-08
1.88135e-07
3.37888e-08
1.84211e-07
2.99276e-08
1.80223e-07
2.66691e-08
1.76281e-07
2.38825e-08
1.72451e-07
2.15019e-08
1.68773e-07
1.94573e-08
1.65264e-07
1.76874e-08
1.61934e-07
1.61445e-08
1.58782e-07
1.47915e-08
1.55805e-07
1.35987e-08
1.52994e-07
1.25415e-08
1.50342e-07
1.15997e-08
1.47839e-07
1.07564e-08
1.45477e-07
9.99766e-09
1.43247e-07
9.31176e-09
1.41141e-07
8.68887e-09
1.3915e-07
8.12069e-09
1.37268e-07
7.60016e-09
1.35488e-07
7.12126e-09
1.33804e-07
6.67881e-09
1.3221e-07
6.26833e-09
1.30701e-07
5.88591e-09
1.29273e-07
5.52814e-09
1.27922e-07
5.19202e-09
1.26644e-07
4.87487e-09
1.25436e-07
4.57445e-09
1.24294e-07
4.28844e-09
1.23216e-07
4.01554e-09
1.22201e-07
3.75309e-09
1.21245e-07
3.50173e-09
1.20348e-07
3.25658e-09
1.19507e-07
3.0232e-09
1.18722e-07
2.78945e-09
1.1799e-07
2.57408e-09
1.17312e-07
2.34464e-09
1.16684e-07
2.15293e-09
1.16109e-07
1.91763e-09
1.15581e-07
1.76074e-09
1.15103e-07
1.51175e-09
1.14676e-07
1.37954e-09
1.14285e-07
1.169e-09
1.13962e-07
8.13862e-10
1.13704e-07
9.9297e-10
-1.06178e-09
1.13012e-07
2.00848e-07
9.99644e-08
2.03777e-07
9.49077e-08
2.0533e-07
6.55959e-08
2.05649e-07
5.42253e-08
2.04828e-07
4.65128e-08
2.03357e-07
4.02202e-08
2.01424e-07
3.57214e-08
1.99115e-07
3.22369e-08
1.96535e-07
2.92493e-08
1.93786e-07
2.66315e-08
1.90948e-07
2.43395e-08
1.88082e-07
2.23238e-08
1.8523e-07
2.05389e-08
1.82425e-07
1.89498e-08
1.79687e-07
1.7529e-08
1.77032e-07
1.6254e-08
1.74468e-07
1.51059e-08
1.71999e-07
1.40682e-08
1.69629e-07
1.31269e-08
1.67356e-07
1.22701e-08
1.65181e-07
1.14873e-08
1.631e-07
1.07696e-08
1.61112e-07
1.01092e-08
1.59212e-07
9.49943e-09
1.57399e-07
8.93445e-09
1.55669e-07
8.40908e-09
1.54018e-07
7.91882e-09
1.52445e-07
7.45963e-09
1.50945e-07
7.02797e-09
1.49516e-07
6.62065e-09
1.48156e-07
6.23479e-09
1.46863e-07
5.86796e-09
1.45633e-07
5.51762e-09
1.44467e-07
5.18228e-09
1.43361e-07
4.85908e-09
1.42314e-07
4.54851e-09
1.41325e-07
4.2454e-09
1.40393e-07
3.95545e-09
1.39516e-07
3.6659e-09
1.38694e-07
3.3962e-09
1.37926e-07
3.11268e-09
1.37211e-07
2.86851e-09
1.36547e-07
2.58145e-09
1.35936e-07
2.37208e-09
1.3537e-07
2.07775e-09
1.34864e-07
1.88553e-09
1.3439e-07
1.64278e-09
1.33979e-07
1.22421e-09
1.3364e-07
1.33241e-09
-3.28328e-10
1.32907e-07
2.06447e-07
9.30492e-08
2.09341e-07
9.20143e-08
2.1104e-07
6.3897e-08
2.11936e-07
5.33287e-08
2.1201e-07
4.64393e-08
2.11631e-07
4.05993e-08
2.10912e-07
3.64399e-08
2.09858e-07
3.32914e-08
2.08505e-07
3.06021e-08
2.06912e-07
2.82242e-08
2.05135e-07
2.61165e-08
2.03223e-07
2.42362e-08
2.01217e-07
2.25448e-08
1.99153e-07
2.10137e-08
1.9706e-07
1.9622e-08
1.94961e-07
1.83531e-08
1.92874e-07
1.7193e-08
1.90812e-07
1.61294e-08
1.88788e-07
1.51517e-08
1.86807e-07
1.42506e-08
1.84877e-07
1.34178e-08
1.83e-07
1.2646e-08
1.81181e-07
1.19289e-08
1.79419e-07
1.12607e-08
1.77717e-07
1.06364e-08
1.76075e-07
1.00513e-08
1.74492e-07
9.50141e-09
1.72969e-07
8.98295e-09
1.71505e-07
8.49261e-09
1.70098e-07
8.02732e-09
1.68748e-07
7.58428e-09
1.67455e-07
7.16106e-09
1.66218e-07
6.75514e-09
1.65035e-07
6.36499e-09
1.63906e-07
5.98768e-09
1.62831e-07
5.62368e-09
1.61809e-07
5.26774e-09
1.60839e-07
4.92551e-09
1.59921e-07
4.5842e-09
1.59054e-07
4.26316e-09
1.58237e-07
3.92913e-09
1.57472e-07
3.63392e-09
1.56754e-07
3.29902e-09
1.5609e-07
3.03648e-09
1.55466e-07
2.70168e-09
1.54904e-07
2.44778e-09
1.54372e-07
2.17477e-09
1.53892e-07
1.7042e-09
1.53486e-07
1.73809e-09
4.20633e-10
1.52737e-07
2.12289e-07
8.64224e-08
2.15154e-07
8.91498e-08
2.16794e-07
6.22565e-08
2.17849e-07
5.22742e-08
2.18268e-07
4.602e-08
2.1839e-07
4.04772e-08
2.18323e-07
3.65071e-08
2.18036e-07
3.35784e-08
2.17522e-07
3.11159e-08
2.168e-07
2.8946e-08
2.15895e-07
2.70219e-08
2.14831e-07
2.53003e-08
2.13634e-07
2.37418e-08
2.12329e-07
2.23186e-08
2.10939e-07
2.10116e-08
2.09486e-07
1.98064e-08
2.07987e-07
1.86917e-08
2.06459e-07
1.76576e-08
2.04915e-07
1.6696e-08
2.03366e-07
1.57997e-08
2.01821e-07
1.49622e-08
2.00289e-07
1.41781e-08
1.98776e-07
1.34423e-08
1.97286e-07
1.27501e-08
1.95825e-07
1.20977e-08
1.94395e-07
1.14811e-08
1.93e-07
1.08971e-08
1.9164e-07
1.03424e-08
1.90319e-07
9.81408e-09
1.89037e-07
9.30954e-09
1.87795e-07
8.82622e-09
1.86594e-07
8.36189e-09
1.85435e-07
7.91423e-09
1.84318e-07
7.48177e-09
1.83244e-07
7.06175e-09
1.82213e-07
6.65462e-09
1.81225e-07
6.25529e-09
1.80282e-07
5.8693e-09
1.79382e-07
5.48422e-09
1.78526e-07
5.11876e-09
1.77714e-07
4.74126e-09
1.76947e-07
4.40031e-09
1.76222e-07
4.02429e-09
1.75546e-07
3.71218e-09
1.74905e-07
3.34318e-09
1.74321e-07
3.03162e-09
1.73765e-07
2.73042e-09
1.73247e-07
2.22298e-09
1.72801e-07
2.18337e-09
1.15391e-09
1.72068e-07
2.1833e-07
8.00728e-08
2.21207e-07
8.62728e-08
2.22767e-07
6.06969e-08
2.23848e-07
5.11927e-08
2.24377e-07
4.54914e-08
2.24677e-07
4.01777e-08
2.24885e-07
3.6299e-08
2.24974e-07
3.34889e-08
2.24923e-07
3.11667e-08
2.24733e-07
2.91365e-08
2.24407e-07
2.73474e-08
2.23953e-07
2.57544e-08
2.23379e-07
2.43155e-08
2.22697e-07
2.30006e-08
2.2192e-07
2.17894e-08
2.21059e-07
2.06671e-08
2.20128e-07
1.96226e-08
2.19139e-07
1.86468e-08
2.18103e-07
1.77322e-08
2.1703e-07
1.68726e-08
2.15929e-07
1.60626e-08
2.1481e-07
1.52977e-08
2.13678e-07
1.45736e-08
2.12542e-07
1.38869e-08
2.11405e-07
1.32341e-08
2.10274e-07
1.26124e-08
2.09152e-07
1.20189e-08
2.08043e-07
1.14511e-08
2.06951e-07
1.09065e-08
2.05878e-07
1.03828e-08
2.04826e-07
9.87796e-09
2.03798e-07
9.38998e-09
2.02795e-07
8.9168e-09
2.0182e-07
8.45717e-09
2.00873e-07
8.00851e-09
1.99956e-07
7.57139e-09
1.99071e-07
7.14094e-09
1.98217e-07
6.72261e-09
1.97397e-07
6.30458e-09
1.96611e-07
5.90457e-09
1.95859e-07
5.49334e-09
1.95145e-07
5.11502e-09
1.94462e-07
4.70688e-09
1.93822e-07
4.35233e-09
1.93208e-07
3.95674e-09
1.92644e-07
3.59599e-09
1.92105e-07
3.26973e-09
1.91586e-07
2.74183e-09
1.91135e-07
2.63404e-09
1.83787e-09
1.90451e-07
2.24559e-07
7.4007e-08
2.27471e-07
8.33603e-08
2.28964e-07
5.92047e-08
2.3005e-07
5.01058e-08
2.30621e-07
4.49213e-08
2.30969e-07
3.98294e-08
2.31266e-07
3.60016e-08
2.31503e-07
3.3252e-08
2.3166e-07
3.10099e-08
2.31735e-07
2.90617e-08
2.31727e-07
2.73547e-08
2.31636e-07
2.58454e-08
2.31461e-07
2.44905e-08
2.31204e-07
2.32578e-08
2.30868e-07
2.21251e-08
2.30459e-07
2.10764e-08
2.29982e-07
2.00997e-08
2.29444e-07
1.91853e-08
2.2885e-07
1.83254e-08
2.28209e-07
1.75138e-08
2.27526e-07
1.67453e-08
2.26809e-07
1.60155e-08
2.26062e-07
1.53206e-08
2.25291e-07
1.46573e-08
2.24503e-07
1.40228e-08
2.237e-07
1.34145e-08
2.22889e-07
1.28301e-08
2.22073e-07
1.22672e-08
2.21256e-07
1.1724e-08
2.2044e-07
1.11984e-08
2.19629e-07
1.06886e-08
2.18826e-07
1.01929e-08
2.18034e-07
9.70949e-09
2.17254e-07
9.23736e-09
2.16488e-07
8.77409e-09
2.15739e-07
8.32041e-09
2.15008e-07
7.8717e-09
2.14298e-07
7.43328e-09
2.13608e-07
6.99411e-09
2.12942e-07
6.57066e-09
2.12299e-07
6.13667e-09
2.11683e-07
5.73099e-09
2.11089e-07
5.30085e-09
2.10528e-07
4.91326e-09
2.09985e-07
4.49937e-09
2.0948e-07
4.10072e-09
2.08996e-07
3.75372e-09
2.08517e-07
3.22104e-09
2.08097e-07
3.05417e-09
2.44069e-09
2.07494e-07
2.3098e-07
6.82331e-08
2.33936e-07
8.0404e-08
2.35369e-07
5.77717e-08
2.36462e-07
4.90128e-08
2.37066e-07
4.43175e-08
2.3743e-07
3.94656e-08
2.37749e-07
3.56826e-08
2.38032e-07
3.29692e-08
2.38264e-07
3.07778e-08
2.38447e-07
2.88781e-08
2.38584e-07
2.72175e-08
2.38674e-07
2.57562e-08
2.38712e-07
2.44517e-08
2.38699e-07
2.3271e-08
2.38633e-07
2.21909e-08
2.38515e-07
2.11946e-08
2.38346e-07
2.0269e-08
2.38128e-07
1.94038e-08
2.37862e-07
1.85906e-08
2.37553e-07
1.78228e-08
2.37204e-07
1.70946e-08
2.36818e-07
1.64016e-08
2.36399e-07
1.57398e-08
2.3595e-07
1.5106e-08
2.35476e-07
1.44972e-08
2.34979e-07
1.39111e-08
2.34464e-07
1.33453e-08
2.33933e-07
1.27978e-08
2.33391e-07
1.22668e-08
2.32839e-07
1.17504e-08
2.3228e-07
1.12471e-08
2.31718e-07
1.07552e-08
2.31154e-07
1.02731e-08
2.30592e-07
9.79999e-09
2.30032e-07
9.33351e-09
2.29478e-07
8.87454e-09
2.28931e-07
8.41868e-09
2.28393e-07
7.97106e-09
2.27866e-07
7.52152e-09
2.27351e-07
7.08505e-09
2.26849e-07
6.63869e-09
2.26365e-07
6.21559e-09
2.25892e-07
5.7732e-09
2.25443e-07
5.36257e-09
2.25004e-07
4.93834e-09
2.24591e-07
4.51403e-09
2.24193e-07
4.15133e-09
2.23787e-07
3.62721e-09
2.23429e-07
3.41271e-09
2.93753e-09
2.22932e-07
2.37601e-07
6.27571e-08
2.40604e-07
7.74013e-08
2.4198e-07
5.63958e-08
2.43078e-07
4.79147e-08
2.43719e-07
4.36764e-08
2.44096e-07
3.90881e-08
2.44421e-07
3.53579e-08
2.44716e-07
3.26737e-08
2.44972e-07
3.05227e-08
2.45192e-07
2.8658e-08
2.45383e-07
2.70261e-08
2.45547e-07
2.55923e-08
2.45682e-07
2.43164e-08
2.45788e-07
2.31656e-08
2.45862e-07
2.21166e-08
2.45904e-07
2.11524e-08
2.45913e-07
2.02595e-08
2.4589e-07
1.94273e-08
2.45834e-07
1.86469e-08
2.45745e-07
1.79112e-08
2.45626e-07
1.72142e-08
2.45476e-07
1.6551e-08
2.45298e-07
1.59175e-08
2.45094e-07
1.53101e-08
2.44866e-07
1.47259e-08
2.44615e-07
1.41621e-08
2.44343e-07
1.36167e-08
2.44054e-07
1.30874e-08
2.43748e-07
1.25723e-08
2.43429e-07
1.20699e-08
2.43097e-07
1.15783e-08
2.42756e-07
1.10963e-08
2.42407e-07
1.0622e-08
2.42053e-07
1.01548e-08
2.41694e-07
9.69237e-09
2.41333e-07
9.23565e-09
2.40971e-07
8.78044e-09
2.4061e-07
8.33156e-09
2.40252e-07
7.87981e-09
2.39899e-07
7.43846e-09
2.39549e-07
6.98805e-09
2.39209e-07
6.55587e-09
2.38873e-07
6.10926e-09
2.38551e-07
5.6847e-09
2.38233e-07
5.25669e-09
2.37928e-07
4.81808e-09
2.37635e-07
4.44469e-09
2.37323e-07
3.93902e-09
2.37047e-07
3.68892e-09
3.31471e-09
2.3667e-07
2.44431e-07
5.75824e-08
2.47473e-07
7.43589e-08
2.488e-07
5.50688e-08
2.49899e-07
4.68162e-08
2.50579e-07
4.29964e-08
2.50973e-07
3.86933e-08
2.51303e-07
3.50285e-08
2.51604e-07
3.23724e-08
2.51867e-07
3.02595e-08
2.52099e-07
2.84266e-08
2.52308e-07
2.68173e-08
2.52498e-07
2.54024e-08
2.5267e-07
2.41444e-08
2.52824e-07
2.30114e-08
2.5296e-07
2.19804e-08
2.53078e-07
2.10347e-08
2.53176e-07
2.01609e-08
2.53255e-07
1.93484e-08
2.53314e-07
1.85881e-08
2.53353e-07
1.78728e-08
2.5337e-07
1.71963e-08
2.53368e-07
1.65534e-08
2.53346e-07
1.59399e-08
2.53304e-07
1.5352e-08
2.53243e-07
1.47865e-08
2.53165e-07
1.42406e-08
2.53069e-07
1.3712e-08
2.52958e-07
1.31985e-08
2.52832e-07
1.26981e-08
2.52693e-07
1.22091e-08
2.52542e-07
1.17298e-08
2.52379e-07
1.12587e-08
2.52207e-07
1.07941e-08
2.52027e-07
1.03353e-08
2.51839e-07
9.88007e-09
2.51645e-07
9.42918e-09
2.51447e-07
8.97872e-09
2.51246e-07
8.53303e-09
2.51042e-07
8.08396e-09
2.50837e-07
7.64292e-09
2.50631e-07
7.1939e-09
2.50429e-07
6.75855e-09
2.50225e-07
6.31317e-09
2.50028e-07
5.88181e-09
2.4983e-07
5.45454e-09
2.49637e-07
5.01083e-09
2.49451e-07
4.63101e-09
2.4924e-07
4.14969e-09
2.49054e-07
3.87512e-09
3.57152e-09
2.48797e-07
2.51478e-07
5.27109e-08
2.54551e-07
7.12863e-08
2.55839e-07
5.37804e-08
2.56933e-07
4.5723e-08
2.5765e-07
4.22786e-08
2.58065e-07
3.82782e-08
2.58401e-07
3.4693e-08
2.58708e-07
3.20655e-08
2.58977e-07
2.99908e-08
2.59213e-07
2.81902e-08
2.59428e-07
2.66027e-08
2.59626e-07
2.5204e-08
2.5981e-07
2.39601e-08
2.59982e-07
2.28397e-08
2.60142e-07
2.18206e-08
2.6029e-07
2.08863e-08
2.60427e-07
2.00239e-08
2.60553e-07
1.92228e-08
2.60667e-07
1.84742e-08
2.60769e-07
1.77708e-08
2.60859e-07
1.71065e-08
2.60936e-07
1.6476e-08
2.61001e-07
1.58748e-08
2.61054e-07
1.52992e-08
2.61094e-07
1.47459e-08
2.61123e-07
1.42121e-08
2.6114e-07
1.36952e-08
2.61145e-07
1.3193e-08
2.6114e-07
1.27035e-08
2.61124e-07
1.22248e-08
2.61099e-07
1.17552e-08
2.61064e-07
1.12933e-08
2.61021e-07
1.08372e-08
2.6097e-07
1.03862e-08
2.60912e-07
9.93809e-09
2.60848e-07
9.49354e-09
2.60778e-07
9.04885e-09
2.60703e-07
8.60783e-09
2.60623e-07
8.16339e-09
2.60541e-07
7.72502e-09
2.60455e-07
7.28004e-09
2.60369e-07
6.84489e-09
2.60278e-07
6.40358e-09
2.6019e-07
5.97022e-09
2.60098e-07
5.54607e-09
2.60006e-07
5.1037e-09
2.59916e-07
4.7206e-09
2.598e-07
4.26575e-09
2.59699e-07
3.97585e-09
3.71892e-09
2.59552e-07
2.58751e-07
4.81427e-08
2.61844e-07
6.81935e-08
2.63105e-07
5.25199e-08
2.64188e-07
4.464e-08
2.64941e-07
4.15254e-08
2.65378e-07
3.78408e-08
2.65721e-07
3.43503e-08
2.66034e-07
3.17526e-08
2.66308e-07
2.9716e-08
2.66549e-07
2.79493e-08
2.66767e-07
2.63845e-08
2.66969e-07
2.5002e-08
2.67158e-07
2.37711e-08
2.67336e-07
2.2662e-08
2.67504e-07
2.16525e-08
2.67664e-07
2.07268e-08
2.67815e-07
1.98722e-08
2.67959e-07
1.90786e-08
2.68096e-07
1.83372e-08
2.68226e-07
1.7641e-08
2.68349e-07
1.69837e-08
2.68465e-07
1.63603e-08
2.68573e-07
1.57663e-08
2.68674e-07
1.51979e-08
2.68769e-07
1.46517e-08
2.68856e-07
1.4125e-08
2.68936e-07
1.36152e-08
2.69009e-07
1.31199e-08
2.69075e-07
1.26372e-08
2.69135e-07
1.21652e-08
2.69188e-07
1.1702e-08
2.69235e-07
1.12463e-08
2.69276e-07
1.07962e-08
2.69311e-07
1.0351e-08
2.69341e-07
9.90834e-09
2.69366e-07
9.46885e-09
2.69385e-07
9.02911e-09
2.69401e-07
8.59231e-09
2.69412e-07
8.15245e-09
2.6942e-07
7.71713e-09
2.69423e-07
7.27673e-09
2.69425e-07
6.84315e-09
2.69422e-07
6.40668e-09
2.69418e-07
5.974e-09
2.6941e-07
5.55362e-09
2.69398e-07
5.11638e-09
2.69386e-07
4.732e-09
2.69349e-07
4.30273e-09
2.69321e-07
4.00426e-09
3.77571e-09
2.69264e-07
2.66259e-07
4.38761e-08
2.69361e-07
6.5091e-08
2.70604e-07
5.12769e-08
2.71673e-07
4.35716e-08
2.72458e-07
4.07403e-08
2.72919e-07
3.73793e-08
2.7327e-07
3.39997e-08
2.73589e-07
3.14337e-08
2.7387e-07
2.94349e-08
2.74116e-07
2.77036e-08
2.74337e-07
2.61628e-08
2.74542e-07
2.4797e-08
2.74734e-07
2.35795e-08
2.74915e-07
2.24814e-08
2.75086e-07
2.14811e-08
2.7525e-07
2.05631e-08
2.75407e-07
1.97152e-08
2.75558e-07
1.89275e-08
2.75704e-07
1.81914e-08
2.75844e-07
1.75001e-08
2.75981e-07
1.68475e-08
2.76113e-07
1.62284e-08
2.7624e-07
1.56386e-08
2.76364e-07
1.50743e-08
2.76484e-07
1.45321e-08
2.76599e-07
1.40093e-08
2.76711e-07
1.35033e-08
2.76819e-07
1.30118e-08
2.76924e-07
1.25328e-08
2.77024e-07
1.20644e-08
2.77121e-07
1.16049e-08
2.77215e-07
1.11528e-08
2.77305e-07
1.07062e-08
2.77392e-07
1.02644e-08
2.77475e-07
9.82523e-09
2.77555e-07
9.38902e-09
2.77631e-07
8.9527e-09
2.77704e-07
8.51885e-09
2.77774e-07
8.08253e-09
2.77842e-07
7.64963e-09
2.77905e-07
7.21316e-09
2.77967e-07
6.78129e-09
2.78025e-07
6.34913e-09
2.7808e-07
5.91834e-09
2.78133e-07
5.50131e-09
2.78178e-07
5.07087e-09
2.78224e-07
4.68638e-09
2.78247e-07
4.27978e-09
2.78274e-07
3.97727e-09
3.76359e-09
2.78286e-07
2.7401e-07
3.99076e-08
2.77111e-07
6.19898e-08
2.78347e-07
5.00411e-08
2.79397e-07
4.25213e-08
2.8021e-07
3.99274e-08
2.80697e-07
3.68922e-08
2.81056e-07
3.36401e-08
2.81381e-07
3.11089e-08
2.81669e-07
2.91473e-08
2.8192e-07
2.74526e-08
2.82145e-07
2.59374e-08
2.82353e-07
2.4589e-08
2.82548e-07
2.33852e-08
2.82731e-07
2.22984e-08
2.82904e-07
2.13074e-08
2.8307e-07
2.03971e-08
2.8323e-07
1.95556e-08
2.83384e-07
1.87734e-08
2.83533e-07
1.80421e-08
2.83679e-07
1.73549e-08
2.8382e-07
1.67058e-08
2.83959e-07
1.609e-08
2.84094e-07
1.55031e-08
2.84227e-07
1.49413e-08
2.84358e-07
1.44015e-08
2.84486e-07
1.38809e-08
2.84613e-07
1.33769e-08
2.84737e-07
1.28873e-08
2.8486e-07
1.24101e-08
2.84981e-07
1.19434e-08
2.851e-07
1.14856e-08
2.85218e-07
1.10352e-08
2.85334e-07
1.05903e-08
2.85448e-07
1.01502e-08
2.8556e-07
9.71278e-09
2.85671e-07
9.27826e-09
2.8578e-07
8.84391e-09
2.85887e-07
8.41171e-09
2.85992e-07
7.97771e-09
2.86095e-07
7.5463e-09
2.86196e-07
7.1127e-09
2.86295e-07
6.68219e-09
2.86391e-07
6.2533e-09
2.86484e-07
5.82471e-09
2.86575e-07
5.4102e-09
2.86659e-07
4.98686e-09
2.86743e-07
4.60288e-09
2.86808e-07
4.2151e-09
2.86874e-07
3.91123e-09
3.70294e-09
2.86934e-07
2.82013e-07
3.6232e-08
2.85101e-07
5.89015e-08
2.8634e-07
4.8803e-08
2.87369e-07
4.1492e-08
2.88205e-07
3.90913e-08
2.88719e-07
3.63782e-08
2.89089e-07
3.32704e-08
2.8942e-07
3.07781e-08
2.89714e-07
2.88529e-08
2.89971e-07
2.71959e-08
2.902e-07
2.57077e-08
2.90412e-07
2.43777e-08
2.90609e-07
2.3188e-08
2.90794e-07
2.21129e-08
2.9097e-07
2.11315e-08
2.91138e-07
2.02291e-08
2.913e-07
1.93942e-08
2.91456e-07
1.86174e-08
2.91607e-07
1.78907e-08
2.91754e-07
1.72074e-08
2.91898e-07
1.65617e-08
2.9204e-07
1.59487e-08
2.92179e-07
1.53641e-08
2.92316e-07
1.48044e-08
2.92451e-07
1.42663e-08
2.92585e-07
1.3747e-08
2.92718e-07
1.32441e-08
2.92849e-07
1.27555e-08
2.9298e-07
1.2279e-08
2.93111e-07
1.18131e-08
2.93241e-07
1.13559e-08
2.9337e-07
1.0906e-08
2.93498e-07
1.04617e-08
2.93626e-07
1.00222e-08
2.93754e-07
9.58543e-09
2.9388e-07
9.15153e-09
2.94006e-07
8.71809e-09
2.94131e-07
8.28656e-09
2.94255e-07
7.85389e-09
2.94378e-07
7.42318e-09
2.945e-07
6.99145e-09
2.9462e-07
6.56185e-09
2.94738e-07
6.13519e-09
2.94854e-07
5.70873e-09
2.94968e-07
5.29593e-09
2.95076e-07
4.8792e-09
2.95183e-07
4.49613e-09
2.95275e-07
4.12314e-09
2.95367e-07
3.81929e-09
3.61005e-09
2.95459e-07
2.90279e-07
3.28421e-08
2.93342e-07
5.58377e-08
2.94592e-07
4.75537e-08
2.95598e-07
4.04854e-08
2.96452e-07
3.82372e-08
2.96994e-07
3.58363e-08
2.97376e-07
3.2889e-08
2.97712e-07
3.04415e-08
2.98013e-07
2.85517e-08
2.98276e-07
2.69332e-08
2.9851e-07
2.54736e-08
2.98725e-07
2.41629e-08
2.98925e-07
2.29878e-08
2.99113e-07
2.19247e-08
2.99292e-07
2.09533e-08
2.99462e-07
2.0059e-08
2.99625e-07
1.92308e-08
2.99783e-07
1.84596e-08
2.99936e-07
1.77376e-08
3.00085e-07
1.70583e-08
3.00231e-07
1.64158e-08
3.00374e-07
1.58055e-08
3.00515e-07
1.52232e-08
3.00654e-07
1.46653e-08
3.00792e-07
1.41285e-08
3.00929e-07
1.36103e-08
3.01064e-07
1.31083e-08
3.012e-07
1.26201e-08
3.01335e-07
1.21441e-08
3.01469e-07
1.16783e-08
3.01604e-07
1.12212e-08
3.01739e-07
1.07713e-08
3.01874e-07
1.0327e-08
3.02008e-07
9.88744e-09
3.02143e-07
9.45076e-09
3.02278e-07
9.01684e-09
3.02412e-07
8.58366e-09
3.02546e-07
8.15221e-09
3.0268e-07
7.72017e-09
3.02814e-07
7.28968e-09
3.02946e-07
6.85906e-09
3.03078e-07
6.43006e-09
3.03208e-07
6.00479e-09
3.03337e-07
5.58026e-09
3.03464e-07
5.16857e-09
3.03586e-07
4.75763e-09
3.03706e-07
4.37575e-09
3.03815e-07
4.01383e-09
3.03924e-07
3.7105e-09
3.49643e-09
3.04038e-07
2.98816e-07
2.97291e-08
3.01843e-07
5.28105e-08
3.03111e-07
4.62852e-08
3.04094e-07
3.95023e-08
3.04961e-07
3.73707e-08
3.05531e-07
3.52661e-08
3.05926e-07
3.24946e-08
3.06268e-07
3.00988e-08
3.06576e-07
2.82438e-08
3.06845e-07
2.66641e-08
3.07084e-07
2.52347e-08
3.07303e-07
2.39443e-08
3.07506e-07
2.27844e-08
3.07697e-07
2.17337e-08
3.07878e-07
2.07725e-08
3.0805e-07
1.98866e-08
3.08216e-07
1.90654e-08
3.08375e-07
1.82999e-08
3.0853e-07
1.75828e-08
3.08681e-07
1.69074e-08
3.08829e-07
1.62683e-08
3.08973e-07
1.56608e-08
3.09116e-07
1.50806e-08
3.09257e-07
1.45244e-08
3.09396e-07
1.39891e-08
3.09535e-07
1.34719e-08
3.09673e-07
1.29704e-08
3.0981e-07
1.24827e-08
3.09947e-07
1.20068e-08
3.10085e-07
1.1541e-08
3.10222e-07
1.10838e-08
3.1036e-07
1.06336e-08
3.10498e-07
1.01891e-08
3.10636e-07
9.74913e-09
3.10775e-07
9.31219e-09
3.10914e-07
8.87794e-09
3.11053e-07
8.44467e-09
3.11192e-07
8.01297e-09
3.11331e-07
7.58116e-09
3.1147e-07
7.1506e-09
3.11608e-07
6.72059e-09
3.11746e-07
6.29198e-09
3.11884e-07
5.86753e-09
3.12019e-07
5.44471e-09
3.12154e-07
5.03379e-09
3.12284e-07
4.6277e-09
3.12413e-07
4.24719e-09
3.12533e-07
3.89319e-09
3.12653e-07
3.59031e-09
3.36926e-09
3.12781e-07
3.07634e-07
2.68824e-08
3.10612e-07
4.9832e-08
3.11907e-07
4.4991e-08
3.12866e-07
3.85428e-08
3.1374e-07
3.64969e-08
3.14338e-07
3.46678e-08
3.14747e-07
3.20854e-08
3.15096e-07
2.975e-08
3.15411e-07
2.79293e-08
3.15687e-07
2.63883e-08
3.15931e-07
2.49906e-08
3.16153e-07
2.37217e-08
3.1636e-07
2.25775e-08
3.16554e-07
2.15396e-08
3.16738e-07
2.0589e-08
3.16913e-07
1.97118e-08
3.1708e-07
1.88977e-08
3.17242e-07
1.81382e-08
3.17399e-07
1.7426e-08
3.17552e-07
1.67547e-08
3.17701e-07
1.6119e-08
3.17847e-07
1.55143e-08
3.17992e-07
1.49364e-08
3.18134e-07
1.4382e-08
3.18275e-07
1.38479e-08
3.18416e-07
1.33316e-08
3.18555e-07
1.28308e-08
3.18694e-07
1.23434e-08
3.18834e-07
1.18676e-08
3.18973e-07
1.14018e-08
3.19112e-07
1.09442e-08
3.19252e-07
1.04938e-08
3.19392e-07
1.00488e-08
3.19533e-07
9.6084e-09
3.19674e-07
9.17104e-09
3.19816e-07
8.73632e-09
3.19958e-07
8.30277e-09
3.201e-07
7.87067e-09
3.20242e-07
7.43883e-09
3.20385e-07
7.00808e-09
3.20527e-07
6.57834e-09
3.20669e-07
6.15001e-09
3.20811e-07
5.726e-09
3.20951e-07
5.30466e-09
3.2109e-07
4.89432e-09
3.21226e-07
4.49217e-09
3.2136e-07
4.1131e-09
3.21489e-07
3.76443e-09
3.21617e-07
3.46158e-09
3.23257e-09
3.21754e-07
3.16744e-07
2.42901e-08
3.19661e-07
4.69142e-08
3.20987e-07
4.36655e-08
3.21924e-07
3.76057e-08
3.228e-07
3.56212e-08
3.23425e-07
3.40427e-08
3.2385e-07
3.16599e-08
3.24206e-07
2.93944e-08
3.24527e-07
2.76081e-08
3.2481e-07
2.61056e-08
3.25059e-07
2.47409e-08
3.25286e-07
2.34947e-08
3.25497e-07
2.23669e-08
3.25694e-07
2.13422e-08
3.25881e-07
2.04025e-08
3.26058e-07
1.95343e-08
3.26229e-07
1.87276e-08
3.26393e-07
1.79742e-08
3.26551e-07
1.7267e-08
3.26706e-07
1.66e-08
3.26857e-07
1.59678e-08
3.27006e-07
1.53659e-08
3.27152e-07
1.47904e-08
3.27296e-07
1.42377e-08
3.27439e-07
1.3705e-08
3.27581e-07
1.31897e-08
3.27722e-07
1.26895e-08
3.27863e-07
1.22024e-08
3.28004e-07
1.17266e-08
3.28145e-07
1.12606e-08
3.28287e-07
1.08028e-08
3.28429e-07
1.0352e-08
3.28571e-07
9.90653e-09
3.28714e-07
9.46558e-09
3.28857e-07
9.02774e-09
3.29001e-07
8.59246e-09
3.29145e-07
8.15852e-09
3.2929e-07
7.72595e-09
3.29435e-07
7.29392e-09
3.2958e-07
6.8629e-09
3.29725e-07
6.4332e-09
3.2987e-07
6.00507e-09
3.30015e-07
5.58128e-09
3.30158e-07
5.16115e-09
3.30301e-07
4.7513e-09
3.30441e-07
4.35218e-09
3.3058e-07
3.97449e-09
3.30715e-07
3.62907e-09
3.30851e-07
3.32564e-09
3.08841e-09
3.30995e-07
3.26154e-07
2.19386e-08
3.28999e-07
4.40688e-08
3.3036e-07
4.23051e-08
3.31276e-07
3.6689e-08
3.32149e-07
3.47483e-08
3.328e-07
3.33922e-08
3.33243e-07
3.12166e-08
3.33606e-07
2.90315e-08
3.33934e-07
2.72804e-08
3.34224e-07
2.58158e-08
3.34479e-07
2.44852e-08
3.34711e-07
2.32631e-08
3.34925e-07
2.21523e-08
3.35126e-07
2.11412e-08
3.35316e-07
2.02129e-08
3.35496e-07
1.93539e-08
3.35669e-07
1.85549e-08
3.35836e-07
1.78078e-08
3.35997e-07
1.71059e-08
3.36154e-07
1.64432e-08
3.36307e-07
1.58146e-08
3.36457e-07
1.52156e-08
3.36605e-07
1.46424e-08
3.36751e-07
1.40915e-08
3.36896e-07
1.35602e-08
3.3704e-07
1.30458e-08
3.37183e-07
1.25462e-08
3.37326e-07
1.20594e-08
3.37469e-07
1.15837e-08
3.37612e-07
1.11176e-08
3.37756e-07
1.06595e-08
3.37899e-07
1.02081e-08
3.38044e-07
9.76222e-09