/*--------------------------------*- C++ -*----------------------------------*\
  =========                 |
  \\      /  F ield         | OpenFOAM: The Open Source CFD Toolbox
   \\    /   O peration     | Website:  https://openfoam.org
    \\  /    A nd           | Version:  7
     \\/     M anipulation  |
\*---------------------------------------------------------------------------*/
FoamFile
{
    version     2.0;
    format      ascii;
    class       volVectorField;
    location    "0.13";
    object      U;
}
// * * * * * * * * * * * * * * * * * * * * * * * * * * * * * * * * * * * * * //

dimensions      [0 1 -1 0 0 0 0];

internalField   nonuniform List<vector> 
70000
(
(0.553392 0.0167229 0)
(0.25127 0.00340082 0)
(0.166225 0.000321775 0)
(0.132497 5.40899e-05 0)
(0.117329 4.55239e-05 0)
(0.107431 5.36857e-05 0)
(0.0995119 4.60418e-05 0)
(0.0931029 3.66905e-05 0)
(0.0878909 3.03649e-05 0)
(0.0835557 2.60277e-05 0)
(0.0798688 2.27192e-05 0)
(0.076682 2.00661e-05 0)
(0.073894 1.78985e-05 0)
(0.0714309 1.61034e-05 0)
(0.0692365 1.45966e-05 0)
(0.0672676 1.33161e-05 0)
(0.0654902 1.22155e-05 0)
(0.063877 1.12596e-05 0)
(0.0624063 1.04218e-05 0)
(0.0610602 9.68056e-06 0)
(0.0598239 9.01984e-06 0)
(0.0586853 8.42599e-06 0)
(0.0576339 7.88852e-06 0)
(0.0566612 7.39852e-06 0)
(0.0557597 6.94913e-06 0)
(0.0549231 6.53421e-06 0)
(0.0541461 6.14912e-06 0)
(0.0534238 5.79018e-06 0)
(0.0527524 5.45283e-06 0)
(0.0521282 5.13712e-06 0)
(0.0515483 4.8356e-06 0)
(0.0510097 4.555e-06 0)
(0.0505105 4.28078e-06 0)
(0.0500483 4.03181e-06 0)
(0.0496214 3.778e-06 0)
(0.0492281 3.56106e-06 0)
(0.0488667 3.32503e-06 0)
(0.0485368 3.13544e-06 0)
(0.0482341 2.93583e-06 0)
(0.0479644 2.72598e-06 0)
(0.0477109 2.6735e-06 0)
(0.0475042 2.21094e-06 0)
(0.0472806 2.76003e-06 0)
(0.0471578 1.15431e-06 0)
(0.0469132 3.89884e-06 0)
(0.0469494 -1.85533e-06 0)
(0.0465469 8.35099e-06 0)
(0.0469465 -1.11959e-05 0)
(0.0462242 3.26676e-05 0)
(0.0438464 -0.00169972 0)
(0.884899 0.0431669 0)
(0.64973 0.0201928 0)
(0.494367 0.00659636 0)
(0.40376 0.00276511 0)
(0.354895 0.00154908 0)
(0.323663 0.00112832 0)
(0.299883 0.00090684 0)
(0.280771 0.000742726 0)
(0.265146 0.000619703 0)
(0.252117 0.000528801 0)
(0.241031 0.000459769 0)
(0.231447 0.000405414 0)
(0.223059 0.000361456 0)
(0.215644 0.000325224 0)
(0.209034 0.000294906 0)
(0.203099 0.000269198 0)
(0.197739 0.00024714 0)
(0.19287 0.00022801 0)
(0.188429 0.000211258 0)
(0.184361 0.000196454 0)
(0.180622 0.000183263 0)
(0.177176 0.000171415 0)
(0.173992 0.000160695 0)
(0.171043 0.000150924 0)
(0.168308 0.000141959 0)
(0.165768 0.000133677 0)
(0.163406 0.000125975 0)
(0.161208 0.000118769 0)
(0.159163 0.000111981 0)
(0.157259 0.000105553 0)
(0.155488 9.9417e-05 0)
(0.153842 9.35492e-05 0)
(0.152314 8.78678e-05 0)
(0.150898 8.24078e-05 0)
(0.149589 7.70264e-05 0)
(0.148382 7.18867e-05 0)
(0.147272 6.6683e-05 0)
(0.146259 6.18459e-05 0)
(0.145331 5.67292e-05 0)
(0.144503 5.22351e-05 0)
(0.143732 4.71903e-05 0)
(0.143098 4.30048e-05 0)
(0.142434 3.83525e-05 0)
(0.142048 3.37525e-05 0)
(0.141357 3.122e-05 0)
(0.141408 2.19744e-05 0)
(0.140345 3.21693e-05 0)
(0.141314 -2.55521e-05 0)
(0.139494 0.000237359 0)
(0.138322 -0.00277267 0)
(0.991237 0.0499006 0)
(0.890359 0.0307163 0)
(0.76273 0.0145932 0)
(0.656784 0.00797335 0)
(0.585543 0.00487714 0)
(0.536242 0.00346222 0)
(0.498492 0.00272582 0)
(0.467999 0.00223288 0)
(0.442816 0.00186925 0)
(0.421642 0.00159723 0)
(0.40353 0.0013894 0)
(0.387811 0.00122574 0)
(0.374009 0.00109348 0)
(0.361775 0.000984496 0)
(0.350844 0.00089328 0)
(0.341009 0.000815917 0)
(0.332109 0.000749527 0)
(0.324013 0.000691942 0)
(0.316615 0.00064151 0)
(0.309829 0.000596945 0)
(0.303583 0.000557237 0)
(0.297818 0.00052158 0)
(0.292484 0.000489323 0)
(0.287538 0.000459934 0)
(0.282943 0.000432974 0)
(0.278669 0.000408077 0)
(0.274689 0.000384933 0)
(0.270979 0.000363279 0)
(0.267521 0.000342884 0)
(0.264297 0.000323562 0)
(0.261291 0.000305121 0)
(0.258492 0.000287451 0)
(0.255887 0.000270348 0)
(0.253467 0.000253834 0)
(0.251224 0.000237583 0)
(0.24915 0.00022191 0)
(0.247237 0.000206104 0)
(0.245485 0.000191185 0)
(0.243876 0.000175434 0)
(0.242433 0.000161508 0)
(0.241092 0.000145327 0)
(0.239968 0.00013309 0)
(0.238823 0.000115819 0)
(0.238096 0.000106218 0)
(0.236961 8.77159e-05 0)
(0.236888 7.78793e-05 0)
(0.235303 7.31356e-05 0)
(0.236488 -2.0739e-05 0)
(0.233873 0.000316294 0)
(0.234879 -0.00273489 0)
(1.0156 0.0489193 0)
(1.00596 0.0358713 0)
(0.935984 0.0207845 0)
(0.852213 0.0134936 0)
(0.782363 0.00919409 0)
(0.727281 0.00676488 0)
(0.682338 0.0053651 0)
(0.644736 0.00442447 0)
(0.612882 0.00372966 0)
(0.585587 0.00320297 0)
(0.56191 0.00279589 0)
(0.541144 0.0024732 0)
(0.52276 0.00221132 0)
(0.506354 0.00199478 0)
(0.491611 0.00181303 0)
(0.478284 0.0016585 0)
(0.466173 0.00152563 0)
(0.455115 0.00141018 0)
(0.444979 0.00130894 0)
(0.435653 0.00121938 0)
(0.427048 0.0011395 0)
(0.419084 0.00106773 0)
(0.411697 0.00100278 0)
(0.404832 0.00094358 0)
(0.398441 0.000889271 0)
(0.392482 0.000839115 0)
(0.38692 0.000792499 0)
(0.381725 0.000748891 0)
(0.37687 0.000707831 0)
(0.372332 0.000668934 0)
(0.368091 0.000631825 0)
(0.36413 0.000596252 0)
(0.360433 0.000561844 0)
(0.356986 0.000528561 0)
(0.353781 0.000495847 0)
(0.350804 0.000464157 0)
(0.348049 0.000432275 0)
(0.34551 0.000401925 0)
(0.34317 0.000369978 0)
(0.341051 0.000341459 0)
(0.339083 0.000308129 0)
(0.337395 0.000283296 0)
(0.335717 0.0002461 0)
(0.334544 0.000228825 0)
(0.332953 0.000184037 0)
(0.332563 0.000174874 0)
(0.33059 0.000138832 0)
(0.331563 2.5692e-05 0)
(0.328597 0.000330556 0)
(0.330255 -0.00234686 0)
(1.01434 0.0460027 0)
(1.04753 0.0374842 0)
(1.0246 0.0241423 0)
(0.974817 0.0175444 0)
(0.923578 0.0131023 0)
(0.876914 0.0101813 0)
(0.834891 0.00831381 0)
(0.797309 0.00698978 0)
(0.763929 0.00597771 0)
(0.734311 0.00518838 0)
(0.707936 0.00456474 0)
(0.684334 0.00406251 0)
(0.663102 0.00365017 0)
(0.643907 0.00330613 0)
(0.626475 0.00301523 0)
(0.610574 0.0027664 0)
(0.596012 0.00255133 0)
(0.582629 0.00236369 0)
(0.570289 0.00219853 0)
(0.558878 0.00205198 0)
(0.548298 0.00192097 0)
(0.538467 0.00180298 0)
(0.529312 0.00169602 0)
(0.520772 0.00159839 0)
(0.512795 0.00150872 0)
(0.505333 0.00142584 0)
(0.498346 0.00134876 0)
(0.491799 0.00127662 0)
(0.485661 0.00120867 0)
(0.479906 0.00114429 0)
(0.47451 0.00108287 0)
(0.469452 0.00102398 0)
(0.464715 0.000967039 0)
(0.460282 0.000911904 0)
(0.456142 0.000857766 0)
(0.452281 0.000805178 0)
(0.448689 0.000752387 0)
(0.445359 0.000701819 0)
(0.442275 0.000648832 0)
(0.439455 0.00060097 0)
(0.436833 0.00054546 0)
(0.434529 0.000503338 0)
(0.432286 0.000440843 0)
(0.430573 0.000411158 0)
(0.428522 0.000334886 0)
(0.427633 0.000320078 0)
(0.425371 0.000249532 0)
(0.425756 0.000112271 0)
(0.422834 0.000365958 0)
(0.423849 -0.00193342 0)
(1.00933 0.042914 0)
(1.05528 0.037259 0)
(1.0587 0.0252852 0)
(1.03641 0.0197409 0)
(1.00719 0.0157859 0)
(0.97622 0.0129033 0)
(0.944812 0.0109211 0)
(0.914095 0.00943414 0)
(0.884915 0.00823997 0)
(0.857653 0.00726909 0)
(0.832383 0.00647639 0)
(0.809039 0.00582161 0)
(0.787496 0.00527321 0)
(0.76761 0.00480828 0)
(0.749233 0.00440997 0)
(0.732225 0.00406555 0)
(0.716455 0.00376515 0)
(0.701805 0.00350101 0)
(0.688171 0.00326698 0)
(0.675459 0.00305816 0)
(0.663587 0.00287054 0)
(0.652482 0.00270089 0)
(0.642079 0.00254651 0)
(0.632323 0.00240518 0)
(0.623162 0.00227502 0)
(0.614553 0.00215444 0)
(0.606456 0.00204208 0)
(0.598836 0.00193676 0)
(0.591664 0.00183744 0)
(0.58491 0.00174323 0)
(0.578553 0.00165329 0)
(0.572569 0.00156698 0)
(0.566942 0.00148351 0)
(0.561653 0.00140259 0)
(0.556691 0.00132319 0)
(0.552041 0.00124588 0)
(0.547693 0.00116843 0)
(0.543639 0.00109383 0)
(0.539863 0.0010161 0)
(0.536379 0.000944965 0)
(0.533131 0.000863672 0)
(0.530215 0.000799873 0)
(0.527421 0.000709068 0)
(0.525132 0.000660952 0)
(0.522636 0.000552807 0)
(0.521148 0.000521234 0)
(0.518648 0.000421852 0)
(0.518249 0.000247879 0)
(0.515481 0.000456984 0)
(0.515489 -0.00149535 0)
(1.00625 0.0400324 0)
(1.05207 0.0363312 0)
(1.0661 0.0252134 0)
(1.05962 0.0205385 0)
(1.04693 0.0172087 0)
(1.03091 0.0146169 0)
(1.0121 0.0127721 0)
(0.991532 0.0113398 0)
(0.970271 0.0101372 0)
(0.949042 0.00911654 0)
(0.928284 0.00825197 0)
(0.908257 0.00751545 0)
(0.889103 0.0068824 0)
(0.870889 0.00633384 0)
(0.853633 0.0058551 0)
(0.83732 0.00543457 0)
(0.821918 0.0050628 0)
(0.807383 0.00473209 0)
(0.79367 0.00443613 0)
(0.780729 0.00416971 0)
(0.768513 0.00392851 0)
(0.756977 0.00370892 0)
(0.746077 0.00350792 0)
(0.735774 0.00332295 0)
(0.726031 0.00315181 0)
(0.716814 0.00299263 0)
(0.708092 0.00284378 0)
(0.699837 0.00270381 0)
(0.692023 0.00257147 0)
(0.684628 0.00244564 0)
(0.677631 0.00232528 0)
(0.671012 0.00220955 0)
(0.664758 0.0020975 0)
(0.65885 0.0019887 0)
(0.65328 0.00188188 0)
(0.648032 0.00177763 0)
(0.643099 0.00167331 0)
(0.638471 0.00157232 0)
(0.634139 0.00146765 0)
(0.630105 0.00137059 0)
(0.626333 0.00126156 0)
(0.622888 0.00117264 0)
(0.619616 0.00105264 0)
(0.616798 0.000980403 0)
(0.613907 0.000842717 0)
(0.611834 0.000783627 0)
(0.609114 0.000662199 0)
(0.607944 0.000443865 0)
(0.605244 0.000609227 0)
(0.604355 -0.00101392 0)
(1.00495 0.0373543 0)
(1.04727 0.0352488 0)
(1.06398 0.0246728 0)
(1.06427 0.0205634 0)
(1.06072 0.0177438 0)
(1.05482 0.0154551 0)
(1.04613 0.0138229 0)
(1.03503 0.0125531 0)
(1.02223 0.0114591 0)
(1.00835 0.0104994 0)
(0.99383 0.0096605 0)
(0.979032 0.00892479 0)
(0.964215 0.00827539 0)
(0.949569 0.00769896 0)
(0.935229 0.00718502 0)
(0.921284 0.00672492 0)
(0.907793 0.00631129 0)
(0.894788 0.00593785 0)
(0.882286 0.00559921 0)
(0.870293 0.00529078 0)
(0.858805 0.00500862 0)
(0.847813 0.00474933 0)
(0.837305 0.00451 0)
(0.827266 0.00428808 0)
(0.817679 0.00408138 0)
(0.80853 0.00388794 0)
(0.7998 0.00370607 0)
(0.791474 0.00353422 0)
(0.783538 0.00337101 0)
(0.775975 0.00321522 0)
(0.768774 0.00306569 0)
(0.761922 0.00292145 0)
(0.755407 0.00278143 0)
(0.749218 0.00264508 0)
(0.743349 0.002511 0)
(0.737787 0.00237971 0)
(0.73253 0.00224837 0)
(0.727566 0.00212053 0)
(0.722893 0.00198861 0)
(0.718506 0.00186469 0)
(0.714388 0.0017278 0)
(0.710575 0.00161194 0)
(0.706966 0.00146356 0)
(0.70375 0.00136333 0)
(0.700565 0.00119936 0)
(0.698022 0.00110579 0)
(0.695121 0.00096637 0)
(0.693325 0.000705207 0)
(0.690607 0.00082227 0)
(0.689033 -0.000494813 0)
(1.0044 0.0348062 0)
(1.04324 0.0341752 0)
(1.05995 0.0240312 0)
(1.06231 0.0202685 0)
(1.06253 0.0178058 0)
(1.06186 0.0157331 0)
(1.05934 0.0142726 0)
(1.05485 0.0131661 0)
(1.04873 0.0122123 0)
(1.04127 0.0113624 0)
(1.03276 0.0106058 0)
(1.02346 0.0099289 0)
(1.0136 0.00931877 0)
(1.00336 0.00876574 0)
(0.99291 0.00826265 0)
(0.982379 0.00780366 0)
(0.971869 0.00738373 0)
(0.961458 0.00699841 0)
(0.951207 0.00664379 0)
(0.941161 0.00631637 0)
(0.931354 0.00601309 0)
(0.921809 0.0057312 0)
(0.912543 0.00546828 0)
(0.903567 0.00522215 0)
(0.894887 0.00499089 0)
(0.886505 0.00477273 0)
(0.878423 0.0045661 0)
(0.87064 0.00436953 0)
(0.863152 0.00418171 0)
(0.855956 0.0040014 0)
(0.849049 0.00382744 0)
(0.842426 0.00365883 0)
(0.836085 0.00349447 0)
(0.830018 0.00333374 0)
(0.824226 0.00317519 0)
(0.818701 0.00301931 0)
(0.813445 0.00286313 0)
(0.808449 0.00271025 0)
(0.803716 0.00255289 0)
(0.799241 0.00240329 0)
(0.795016 0.00224031 0)
(0.791061 0.00209776 0)
(0.787315 0.00192335 0)
(0.783901 0.00179386 0)
(0.780578 0.00160714 0)
(0.77775 0.0014767 0)
(0.774761 0.00132111 0)
(0.772544 0.00102461 0)
(0.769809 0.00108974 0)
(0.767777 4.53696e-05 0)
(1.00402 0.0323659 0)
(1.03991 0.0331247 0)
(1.05617 0.0234075 0)
(1.05895 0.0198794 0)
(1.06026 0.0176739 0)
(1.06163 0.015735 0)
(1.06204 0.0143743 0)
(1.06119 0.0133811 0)
(1.0592 0.0125414 0)
(1.05616 0.0117954 0)
(1.05218 0.0111298 0)
(1.04736 0.0105307 0)
(1.04184 0.00998539 0)
(1.03573 0.00948477 0)
(1.02915 0.00902284 0)
(1.02221 0.00859512 0)
(1.01502 0.00819793 0)
(1.00764 0.00782813 0)
(1.00016 0.00748295 0)
(0.992622 0.00715992 0)
(0.985091 0.00685683 0)
(0.977602 0.00657168 0)
(0.970191 0.00630266 0)
(0.962884 0.00604811 0)
(0.955705 0.0058065 0)
(0.948672 0.00557643 0)
(0.941799 0.00535658 0)
(0.935098 0.0051457 0)
(0.928577 0.00494265 0)
(0.922245 0.0047463 0)
(0.916106 0.00455561 0)
(0.910165 0.00436961 0)
(0.904426 0.00418725 0)
(0.89889 0.00400792 0)
(0.893562 0.00383021 0)
(0.888441 0.00365455 0)
(0.883533 0.00347803 0)
(0.878834 0.00330415 0)
(0.87435 0.00312526 0)
(0.870078 0.00295331 0)
(0.866019 0.00276786 0)
(0.862185 0.0026011 0)
(0.85854 0.00240446 0)
(0.855162 0.00224707 0)
(0.851899 0.0020416 0)
(0.849009 0.00187585 0)
(0.846077 0.00170525 0)
(0.84367 0.00138373 0)
(0.840997 0.00139686 0)
(0.83874 0.000585438 0)
(1.00364 0.0300254 0)
(1.03692 0.0320767 0)
(1.05283 0.022817 0)
(1.05571 0.0194731 0)
(1.05716 0.0174803 0)
(1.05908 0.0156327 0)
(1.06056 0.0143185 0)
(1.06129 0.0133871 0)
(1.06135 0.0126196 0)
(1.06077 0.0119462 0)
(1.05955 0.0113511 0)
(1.0577 0.0108192 0)
(1.05527 0.0103362 0)
(1.05229 0.00989201 0)
(1.04884 0.00948013 0)
(1.04496 0.00909599 0)
(1.04072 0.00873613 0)
(1.03618 0.00839775 0)
(1.03139 0.00807855 0)
(1.0264 0.00777655 0)
(1.02126 0.00749006 0)
(1.01602 0.00721754 0)
(1.0107 0.00695765 0)
(1.00534 0.00670911 0)
(0.999976 0.0064708 0)
(0.994622 0.00624161 0)
(0.989302 0.00602053 0)
(0.984036 0.00580654 0)
(0.97884 0.0055987 0)
(0.973728 0.00539606 0)
(0.968713 0.00519771 0)
(0.963803 0.0050028 0)
(0.959011 0.00481036 0)
(0.954342 0.00461985 0)
(0.949806 0.00442991 0)
(0.945406 0.004241 0)
(0.941153 0.00405027 0)
(0.937047 0.00386116 0)
(0.933098 0.00366629 0)
(0.929305 0.00347704 0)
(0.925674 0.00327429 0)
(0.922214 0.00308763 0)
(0.918906 0.0028738 0)
(0.915801 0.00269213 0)
(0.912806 0.00247246 0)
(0.910079 0.00227603 0)
(0.907372 0.00209192 0)
(0.905007 0.00175657 0)
(0.902518 0.00172152 0)
(0.900264 0.00110126 0)
(1.00327 0.0277855 0)
(1.03409 0.0310176 0)
(1.04971 0.022253 0)
(1.05274 0.0190647 0)
(1.05416 0.0172679 0)
(1.05614 0.0155012 0)
(1.05788 0.0142082 0)
(1.05914 0.0133062 0)
(1.06 0.0125781 0)
(1.06052 0.0119469 0)
(1.06068 0.0113953 0)
(1.06046 0.0109085 0)
(1.05985 0.0104709 0)
(1.05886 0.0100713 0)
(1.0575 0.00970227 0)
(1.05579 0.00935854 0)
(1.05375 0.00903617 0)
(1.05142 0.00873211 0)
(1.04882 0.00844391 0)
(1.04599 0.00816959 0)
(1.04296 0.0079075 0)
(1.03974 0.00765626 0)
(1.03639 0.00741464 0)
(1.03291 0.00718159 0)
(1.02933 0.00695613 0)
(1.02569 0.00673737 0)
(1.02199 0.00652446 0)
(1.01826 0.00631656 0)
(1.01452 0.00611289 0)
(1.01078 0.00591263 0)
(1.00705 0.005715 0)
(1.00336 0.00551926 0)
(0.999701 0.00532451 0)
(0.996098 0.0051303 0)
(0.992558 0.00493533 0)
(0.989088 0.00474009 0)
(0.985699 0.00454185 0)
(0.982396 0.00434392 0)
(0.97919 0.00413933 0)
(0.976084 0.00393872 0)
(0.973083 0.00372465 0)
(0.9702 0.00352349 0)
(0.967423 0.00329823 0)
(0.964787 0.00309742 0)
(0.962238 0.00286845 0)
(0.959869 0.00264796 0)
(0.957541 0.0024525 0)
(0.95542 0.00211417 0)
(0.953243 0.00203749 0)
(0.95119 0.00156903 0)
(1.00292 0.0256496 0)
(1.03138 0.0299427 0)
(1.04671 0.0217111 0)
(1.04995 0.0186542 0)
(1.05135 0.0170433 0)
(1.05328 0.0153626 0)
(1.05506 0.0140843 0)
(1.05643 0.013197 0)
(1.05753 0.012491 0)
(1.05844 0.0118826 0)
(1.05915 0.0113545 0)
(1.05966 0.0108929 0)
(1.05994 0.0104826 0)
(1.06 0.0101116 0)
(1.05983 0.00977189 0)
(1.05942 0.00945758 0)
(1.05878 0.00916426 0)
(1.05791 0.00888844 0)
(1.05684 0.00862733 0)
(1.05556 0.00837868 0)
(1.0541 0.00814064 0)
(1.05246 0.0079117 0)
(1.05067 0.00769057 0)
(1.04874 0.00747614 0)
(1.04668 0.00726746 0)
(1.04452 0.00706363 0)
(1.04227 0.00686386 0)
(1.03995 0.00666738 0)
(1.03756 0.00647345 0)
(1.03513 0.00628134 0)
(1.03266 0.0060903 0)
(1.03017 0.00589966 0)
(1.02766 0.00570858 0)
(1.02516 0.00551666 0)
(1.02266 0.00532262 0)
(1.02019 0.005127 0)
(1.01774 0.00492715 0)
(1.01533 0.00472624 0)
(1.01296 0.00451778 0)
(1.01064 0.00431147 0)
(1.00838 0.0040919 0)
(1.00619 0.00388177 0)
(1.00406 0.00365071 0)
(1.00202 0.00343648 0)
(1.00003 0.00320285 0)
(0.998151 0.00296579 0)
(0.996311 0.00276162 0)
(0.99458 0.0024297 0)
(0.992817 0.00231948 0)
(0.991111 0.00196793 0)
(1.0026 0.0236204 0)
(1.0288 0.0288508 0)
(1.0438 0.0211901 0)
(1.04726 0.0182416 0)
(1.04866 0.0168051 0)
(1.05056 0.0152193 0)
(1.05234 0.0139577 0)
(1.05371 0.0130804 0)
(1.05485 0.0123899 0)
(1.05585 0.0117956 0)
(1.05673 0.0112801 0)
(1.0575 0.0108318 0)
(1.05814 0.010436 0)
(1.05866 0.0100808 0)
(1.05905 0.00975803 0)
(1.0593 0.00946162 0)
(1.05941 0.00918691 0)
(1.05938 0.00893012 0)
(1.05921 0.00868819 0)
(1.0589 0.00845862 0)
(1.05845 0.00823933 0)
(1.05787 0.00802861 0)
(1.05716 0.007825 0)
(1.05634 0.00762726 0)
(1.0554 0.00743433 0)
(1.05437 0.00724524 0)
(1.05324 0.00705915 0)
(1.05203 0.00687523 0)
(1.05074 0.00669274 0)
(1.04939 0.00651094 0)
(1.04799 0.00632906 0)
(1.04654 0.00614646 0)
(1.04505 0.00596228 0)
(1.04353 0.00577614 0)
(1.04199 0.00558677 0)
(1.04044 0.00539468 0)
(1.03888 0.00519734 0)
(1.03732 0.00499768 0)
(1.03577 0.00478977 0)
(1.03423 0.00458225 0)
(1.03272 0.00436182 0)
(1.03123 0.00414743 0)
(1.02977 0.00391523 0)
(1.02835 0.0036929 0)
(1.02696 0.00345844 0)
(1.02563 0.00321197 0)
(1.02431 0.00300181 0)
(1.02305 0.00268336 0)
(1.02175 0.00254813 0)
(1.02047 0.00228357 0)
(1.0023 0.0216996 0)
(1.02634 0.0277428 0)
(1.04096 0.0206884 0)
(1.04466 0.0178284 0)
(1.04608 0.0165521 0)
(1.04795 0.0150699 0)
(1.04972 0.0138295 0)
(1.05109 0.0129614 0)
(1.05221 0.0122846 0)
(1.05322 0.0117019 0)
(1.05413 0.0111949 0)
(1.05496 0.0107542 0)
(1.05572 0.0103662 0)
(1.0564 0.0100193 0)
(1.05701 0.0097055 0)
(1.05754 0.00941872 0)
(1.05799 0.00915434 0)
(1.05836 0.00890851 0)
(1.05865 0.00867809 0)
(1.05885 0.00846044 0)
(1.05897 0.00825334 0)
(1.059 0.00805495 0)
(1.05895 0.00786366 0)
(1.05882 0.00767812 0)
(1.0586 0.00749713 0)
(1.05831 0.00731964 0)
(1.05794 0.00714472 0)
(1.05751 0.00697147 0)
(1.05701 0.00679909 0)
(1.05646 0.00662678 0)
(1.05585 0.00645375 0)
(1.05519 0.00627931 0)
(1.05449 0.00610257 0)
(1.05375 0.00592314 0)
(1.05298 0.00573972 0)
(1.05218 0.00555279 0)
(1.05136 0.00535989 0)
(1.05052 0.0051637 0)
(1.04967 0.00495885 0)
(1.04882 0.00475282 0)
(1.04796 0.00453452 0)
(1.0471 0.00431912 0)
(1.04625 0.00408887 0)
(1.04541 0.00386265 0)
(1.04458 0.00362989 0)
(1.04376 0.00337991 0)
(1.04295 0.00316614 0)
(1.04215 0.00286545 0)
(1.04131 0.00271307 0)
(1.04046 0.00251073 0)
(1.00203 0.0198881 0)
(1.02402 0.0266218 0)
(1.03823 0.0202029 0)
(1.04213 0.0174164 0)
(1.04358 0.0162842 0)
(1.04542 0.014913 0)
(1.04719 0.0136992 0)
(1.04856 0.0128403 0)
(1.04967 0.0121771 0)
(1.05066 0.0116058 0)
(1.05157 0.0111065 0)
(1.0524 0.0106715 0)
(1.05318 0.0102886 0)
(1.0539 0.00994669 0)
(1.05457 0.00963775 0)
(1.05519 0.00935604 0)
(1.05577 0.009097 0)
(1.0563 0.00885688 0)
(1.05679 0.00863255 0)
(1.05723 0.00842137 0)
(1.05762 0.00822109 0)
(1.05795 0.00802979 0)
(1.05824 0.00784583 0)
(1.05848 0.00766777 0)
(1.05867 0.00749435 0)
(1.05881 0.00732445 0)
(1.0589 0.00715705 0)
(1.05895 0.00699123 0)
(1.05894 0.00682609 0)
(1.0589 0.00666081 0)
(1.05882 0.00649454 0)
(1.05869 0.00632658 0)
(1.05853 0.00615596 0)
(1.05834 0.00598228 0)
(1.05812 0.00580423 0)
(1.05787 0.00562218 0)
(1.0576 0.00543381 0)
(1.0573 0.00524145 0)
(1.05699 0.00504038 0)
(1.05666 0.00483685 0)
(1.05631 0.00462189 0)
(1.05596 0.00440719 0)
(1.0556 0.00418034 0)
(1.05524 0.00395299 0)
(1.05487 0.00372307 0)
(1.05449 0.00347373 0)
(1.05412 0.00325806 0)
(1.05372 0.00297674 0)
(1.05328 0.0028136 0)
(1.05283 0.00265359 0)
(1.00179 0.0181861 0)
(1.02184 0.0254915 0)
(1.03559 0.0197297 0)
(1.03969 0.0170074 0)
(1.04118 0.0160023 0)
(1.04298 0.0147476 0)
(1.04475 0.0135662 0)
(1.04612 0.0127168 0)
(1.04723 0.0120672 0)
(1.0482 0.0115081 0)
(1.04909 0.0110165 0)
(1.04992 0.0105869 0)
(1.05068 0.0102084 0)
(1.0514 0.00987033 0)
(1.05208 0.00956475 0)
(1.05272 0.00928611 0)
(1.05334 0.00903005 0)
(1.05392 0.00879292 0)
(1.05447 0.00857167 0)
(1.05499 0.00836371 0)
(1.05549 0.00816682 0)
(1.05596 0.00797908 0)
(1.0564 0.00779886 0)
(1.05681 0.00762469 0)
(1.0572 0.00745529 0)
(1.05755 0.00728951 0)
(1.05788 0.00712631 0)
(1.05818 0.00696472 0)
(1.05845 0.00680383 0)
(1.0587 0.00664279 0)
(1.05892 0.00648071 0)
(1.05912 0.00631686 0)
(1.05929 0.00615027 0)
(1.05944 0.00598049 0)
(1.05957 0.0058062 0)
(1.05967 0.0056277 0)
(1.05976 0.0054428 0)
(1.05983 0.00525346 0)
(1.05988 0.00505563 0)
(1.05991 0.00485434 0)
(1.05993 0.00464262 0)
(1.05994 0.00442907 0)
(1.05994 0.0042057 0)
(1.05992 0.00397863 0)
(1.0599 0.00375158 0)
(1.05986 0.00350528 0)
(1.0598 0.00328869 0)
(1.05972 0.00302613 0)
(1.0596 0.00285687 0)
(1.05946 0.00272364 0)
(1.00157 0.0165932 0)
(1.01979 0.024356 0)
(1.03305 0.0192649 0)
(1.03734 0.0166033 0)
(1.03886 0.0157076 0)
(1.04063 0.0145731 0)
(1.04239 0.0134303 0)
(1.04377 0.012591 0)
(1.04487 0.0119549 0)
(1.04583 0.0114084 0)
(1.04671 0.0109251 0)
(1.04752 0.0105011 0)
(1.04828 0.010127 0)
(1.04898 0.0097925 0)
(1.04965 0.00948985 0)
(1.05029 0.00921365 0)
(1.0509 0.00895968 0)
(1.05149 0.00872442 0)
(1.05206 0.0085049 0)
(1.0526 0.00829859 0)
(1.05313 0.00810332 0)
(1.05364 0.00791722 0)
(1.05414 0.00773865 0)
(1.05462 0.00756617 0)
(1.05508 0.00739851 0)
(1.05553 0.00723451 0)
(1.05596 0.00707313 0)
(1.05638 0.00691341 0)
(1.05679 0.00675443 0)
(1.05718 0.00659533 0)
(1.05755 0.00643521 0)
(1.05792 0.00627336 0)
(1.05827 0.00610876 0)
(1.0586 0.00594097 0)
(1.05893 0.00576868 0)
(1.05924 0.00559211 0)
(1.05953 0.00540922 0)
(1.05982 0.00522163 0)
(1.06009 0.00502591 0)
(1.06035 0.00482599 0)
(1.0606 0.00461668 0)
(1.06084 0.00440395 0)
(1.06107 0.00418332 0)
(1.06128 0.00395701 0)
(1.06148 0.00373212 0)
(1.06167 0.00348986 0)
(1.06184 0.00327281 0)
(1.06198 0.00302688 0)
(1.06209 0.00285447 0)
(1.06218 0.00273626 0)
(1.00137 0.0151087 0)
(1.01788 0.0232192 0)
(1.03062 0.0188044 0)
(1.03508 0.0162055 0)
(1.03664 0.0154015 0)
(1.03837 0.0143889 0)
(1.04012 0.013291 0)
(1.04151 0.0124629 0)
(1.0426 0.0118399 0)
(1.04355 0.0113066 0)
(1.04442 0.0108322 0)
(1.04522 0.0104141 0)
(1.04596 0.0100445 0)
(1.04666 0.00971365 0)
(1.04732 0.00941392 0)
(1.04794 0.00914004 0)
(1.04854 0.00888793 0)
(1.04912 0.00865419 0)
(1.04969 0.00843592 0)
(1.05023 0.00823064 0)
(1.05076 0.00803625 0)
(1.05128 0.0078509 0)
(1.05178 0.00767299 0)
(1.05228 0.00750109 0)
(1.05277 0.00733395 0)
(1.05325 0.00717043 0)
(1.05372 0.0070095 0)
(1.05418 0.0068502 0)
(1.05464 0.00669163 0)
(1.05509 0.00653296 0)
(1.05553 0.00637328 0)
(1.05597 0.00621188 0)
(1.0564 0.00604777 0)
(1.05683 0.00588048 0)
(1.05725 0.00570876 0)
(1.05766 0.00553273 0)
(1.05807 0.00535055 0)
(1.05847 0.00516348 0)
(1.05886 0.00496871 0)
(1.05924 0.00476919 0)
(1.05962 0.00456122 0)
(1.05999 0.00434874 0)
(1.06035 0.0041298 0)
(1.06069 0.00390419 0)
(1.06104 0.00368053 0)
(1.06136 0.00344236 0)
(1.06167 0.00322498 0)
(1.06195 0.00299279 0)
(1.0622 0.0028189 0)
(1.06245 0.00270715 0)
(1.0012 0.0137307 0)
(1.01611 0.0220853 0)
(1.0283 0.0183446 0)
(1.0329 0.0158152 0)
(1.03452 0.0150858 0)
(1.03621 0.0141943 0)
(1.03794 0.013148 0)
(1.03933 0.0123324 0)
(1.04042 0.0117222 0)
(1.04136 0.0112025 0)
(1.04222 0.0107377 0)
(1.04301 0.0103257 0)
(1.04374 0.00996085 0)
(1.04443 0.00963377 0)
(1.04507 0.00933705 0)
(1.04569 0.00906554 0)
(1.04628 0.0088153 0)
(1.04685 0.00858301 0)
(1.0474 0.00836587 0)
(1.04794 0.00816146 0)
(1.04846 0.00796769 0)
(1.04897 0.00778277 0)
(1.04947 0.00760511 0)
(1.04997 0.00743332 0)
(1.05046 0.00726616 0)
(1.05094 0.0071025 0)
(1.05142 0.00694133 0)
(1.05189 0.00678172 0)
(1.05236 0.00662277 0)
(1.05283 0.00646367 0)
(1.0533 0.00630353 0)
(1.05376 0.00614167 0)
(1.05423 0.00597711 0)
(1.05469 0.00580937 0)
(1.05514 0.00563727 0)
(1.0556 0.00546081 0)
(1.05605 0.0052784 0)
(1.0565 0.00509094 0)
(1.05695 0.00489621 0)
(1.05739 0.0046963 0)
(1.05783 0.00448875 0)
(1.05826 0.00427596 0)
(1.05869 0.00405774 0)
(1.05911 0.00383256 0)
(1.05952 0.00360928 0)
(1.05992 0.00337476 0)
(1.0603 0.00315709 0)
(1.06067 0.00293557 0)
(1.06101 0.00276095 0)
(1.06134 0.00264977 0)
(1.00104 0.0124572 0)
(1.01447 0.0209585 0)
(1.02609 0.0178821 0)
(1.03081 0.0154331 0)
(1.03249 0.0147623 0)
(1.03414 0.0139891 0)
(1.03585 0.0130006 0)
(1.03725 0.0121996 0)
(1.03834 0.0116019 0)
(1.03927 0.0110961 0)
(1.04012 0.0106413 0)
(1.0409 0.010236 0)
(1.04162 0.00987592 0)
(1.04229 0.00955277 0)
(1.04293 0.0092592 0)
(1.04353 0.00899015 0)
(1.04411 0.00874182 0)
(1.04467 0.00851103 0)
(1.04521 0.00829502 0)
(1.04574 0.00809144 0)
(1.04625 0.00789825 0)
(1.04675 0.00771366 0)
(1.04725 0.00753613 0)
(1.04773 0.00736428 0)
(1.04821 0.00719688 0)
(1.04869 0.00703283 0)
(1.04917 0.00687113 0)
(1.04964 0.00671087 0)
(1.05011 0.00655117 0)
(1.05058 0.00639123 0)
(1.05105 0.00623021 0)
(1.05151 0.0060674 0)
(1.05198 0.00590189 0)
(1.05245 0.00573316 0)
(1.05292 0.00556013 0)
(1.05339 0.0053827 0)
(1.05386 0.00519947 0)
(1.05433 0.00501106 0)
(1.05479 0.00481574 0)
(1.05526 0.00461494 0)
(1.05572 0.00440713 0)
(1.05618 0.00419364 0)
(1.05663 0.00397537 0)
(1.05708 0.00375037 0)
(1.05753 0.00352683 0)
(1.05796 0.00329532 0)
(1.05838 0.0030774 0)
(1.05879 0.00286367 0)
(1.05918 0.00268852 0)
(1.05957 0.00257408 0)
(1.0009 0.0112851 0)
(1.01296 0.0198433 0)
(1.02399 0.0174137 0)
(1.02881 0.0150598 0)
(1.03055 0.0144332 0)
(1.03216 0.0137728 0)
(1.03385 0.0128483 0)
(1.03525 0.0120644 0)
(1.03634 0.0114788 0)
(1.03726 0.0109871 0)
(1.0381 0.0105431 0)
(1.03887 0.0101446 0)
(1.03958 0.00978966 0)
(1.04025 0.00947057 0)
(1.04087 0.00918027 0)
(1.04147 0.00891379 0)
(1.04204 0.00866746 0)
(1.04259 0.00843821 0)
(1.04312 0.00822338 0)
(1.04363 0.00802065 0)
(1.04414 0.00782803 0)
(1.04463 0.00764377 0)
(1.04511 0.00746633 0)
(1.04559 0.00729437 0)
(1.04607 0.00712666 0)
(1.04653 0.00696213 0)
(1.047 0.00679978 0)
(1.04747 0.00663873 0)
(1.04793 0.00647812 0)
(1.04839 0.00631718 0)
(1.04886 0.00615506 0)
(1.04932 0.00599109 0)
(1.04979 0.00582438 0)
(1.05025 0.00565441 0)
(1.05072 0.00548017 0)
(1.05119 0.00530147 0)
(1.05166 0.00511711 0)
(1.05213 0.00492744 0)
(1.0526 0.00473117 0)
(1.05307 0.00452918 0)
(1.05354 0.00432066 0)
(1.054 0.00410624 0)
(1.05447 0.00388742 0)
(1.05493 0.00366236 0)
(1.05538 0.00343818 0)
(1.05583 0.00320897 0)
(1.05627 0.00299084 0)
(1.05669 0.00278243 0)
(1.05711 0.00260659 0)
(1.05752 0.00248663 0)
(1.00078 0.0102111 0)
(1.01157 0.0187439 0)
(1.02201 0.0169368 0)
(1.02689 0.0146952 0)
(1.02871 0.0141006 0)
(1.03028 0.0135456 0)
(1.03194 0.0126904 0)
(1.03334 0.0119269 0)
(1.03443 0.011353 0)
(1.03535 0.0108754 0)
(1.03618 0.0104427 0)
(1.03694 0.0100517 0)
(1.03764 0.00970196 0)
(1.0383 0.00938708 0)
(1.03891 0.00910018 0)
(1.0395 0.00883637 0)
(1.04006 0.00859212 0)
(1.0406 0.00836448 0)
(1.04112 0.00815086 0)
(1.04163 0.00794902 0)
(1.04212 0.007757 0)
(1.0426 0.00757307 0)
(1.04308 0.00739573 0)
(1.04355 0.00722364 0)
(1.04401 0.0070556 0)
(1.04448 0.00689055 0)
(1.04493 0.00672752 0)
(1.04539 0.00656563 0)
(1.04585 0.00640404 0)
(1.0463 0.006242 0)
(1.04676 0.0060787 0)
(1.04722 0.00591347 0)
(1.04768 0.00574546 0)
(1.04814 0.00557412 0)
(1.0486 0.00539853 0)
(1.04906 0.00521841 0)
(1.04952 0.00503275 0)
(1.04999 0.00484167 0)
(1.05046 0.00464422 0)
(1.05092 0.00444091 0)
(1.05139 0.00423139 0)
(1.05185 0.00401592 0)
(1.05232 0.0037962 0)
(1.05278 0.00357088 0)
(1.05324 0.00334587 0)
(1.05369 0.00311828 0)
(1.05413 0.00289995 0)
(1.05456 0.00269482 0)
(1.05499 0.00251794 0)
(1.05542 0.00239125 0)
(1.00067 0.00923091 0)
(1.01031 0.0176649 0)
(1.02013 0.0164491 0)
(1.02505 0.0143392 0)
(1.02695 0.0137663 0)
(1.02848 0.0133078 0)
(1.03012 0.0125264 0)
(1.03152 0.0117868 0)
(1.03261 0.0112246 0)
(1.03352 0.0107609 0)
(1.03434 0.0103401 0)
(1.0351 0.00995694 0)
(1.03579 0.00961272 0)
(1.03644 0.00930221 0)
(1.03705 0.00901884 0)
(1.03762 0.00875781 0)
(1.03817 0.00851573 0)
(1.0387 0.00828976 0)
(1.03922 0.00807742 0)
(1.03972 0.0078765 0)
(1.0402 0.00768509 0)
(1.04068 0.00750152 0)
(1.04114 0.00732428 0)
(1.04161 0.00715206 0)
(1.04206 0.00698368 0)
(1.04251 0.0068181 0)
(1.04296 0.00665436 0)
(1.04341 0.00649159 0)
(1.04386 0.006329 0)
(1.04431 0.00616583 0)
(1.04476 0.0060013 0)
(1.04521 0.00583475 0)
(1.04566 0.00566537 0)
(1.04611 0.00549261 0)
(1.04657 0.00531559 0)
(1.04702 0.00513398 0)
(1.04748 0.00494691 0)
(1.04794 0.00475435 0)
(1.0484 0.00455558 0)
(1.04886 0.00435087 0)
(1.04932 0.00414016 0)
(1.04978 0.00392355 0)
(1.05024 0.00370273 0)
(1.0507 0.00347696 0)
(1.05116 0.003251 0)
(1.05161 0.0030244 0)
(1.05205 0.0028058 0)
(1.05249 0.00260231 0)
(1.05292 0.0024239 0)
(1.05337 0.00228997 0)
(1.00058 0.00834006 0)
(1.00917 0.0166107 0)
(1.01838 0.015949 0)
(1.0233 0.0139911 0)
(1.02528 0.0134325 0)
(1.02679 0.0130598 0)
(1.02839 0.0123555 0)
(1.02978 0.0116439 0)
(1.03088 0.0110935 0)
(1.03178 0.0106435 0)
(1.0326 0.0102351 0)
(1.03334 0.00986031 0)
(1.03403 0.00952185 0)
(1.03467 0.00921584 0)
(1.03527 0.00893614 0)
(1.03584 0.00867802 0)
(1.03638 0.0084382 0)
(1.0369 0.00821397 0)
(1.03741 0.00800295 0)
(1.0379 0.007803 0)
(1.03838 0.00761224 0)
(1.03884 0.00742903 0)
(1.0393 0.00725191 0)
(1.03976 0.00707956 0)
(1.04021 0.00691085 0)
(1.04065 0.00674472 0)
(1.04109 0.00658025 0)
(1.04153 0.00641659 0)
(1.04198 0.00625296 0)
(1.04242 0.00608863 0)
(1.04286 0.00592284 0)
(1.0433 0.00575494 0)
(1.04374 0.00558416 0)
(1.04419 0.00540992 0)
(1.04464 0.00523143 0)
(1.04509 0.00504829 0)
(1.04554 0.00485974 0)
(1.04599 0.00466564 0)
(1.04644 0.00446546 0)
(1.0469 0.00425928 0)
(1.04735 0.00404725 0)
(1.04781 0.00382942 0)
(1.04826 0.00360735 0)
(1.04872 0.00338094 0)
(1.04917 0.00315393 0)
(1.04962 0.00292772 0)
(1.05006 0.00270869 0)
(1.0505 0.00250553 0)
(1.05094 0.00232503 0)
(1.05139 0.00218373 0)
(1.0005 0.00753346 0)
(1.00814 0.0155854 0)
(1.01673 0.0154354 0)
(1.02164 0.01365 0)
(1.02369 0.0131008 0)
(1.02517 0.0128025 0)
(1.02674 0.0121772 0)
(1.02813 0.0114979 0)
(1.02923 0.0109599 0)
(1.03013 0.0105231 0)
(1.03093 0.0101274 0)
(1.03167 0.00976164 0)
(1.03236 0.00942923 0)
(1.03299 0.00912789 0)
(1.03358 0.00885198 0)
(1.03414 0.0085969 0)