/*--------------------------------*- C++ -*----------------------------------*\
  =========                 |
  \\      /  F ield         | OpenFOAM: The Open Source CFD Toolbox
   \\    /   O peration     | Website:  https://openfoam.org
    \\  /    A nd           | Version:  7
     \\/     M anipulation  |
\*---------------------------------------------------------------------------*/
FoamFile
{
    version     2.0;
    format      ascii;
    class       volVectorField;
    location    "0.13";
    object      U_0;
}
// * * * * * * * * * * * * * * * * * * * * * * * * * * * * * * * * * * * * * //

dimensions      [0 1 -1 0 0 0 0];

internalField   nonuniform List<vector> 
70000
(
(0.553392 0.0167229 0)
(0.251271 0.00340081 0)
(0.166225 0.000321773 0)
(0.132497 5.40885e-05 0)
(0.117329 4.55226e-05 0)
(0.107432 5.36845e-05 0)
(0.0995125 4.60405e-05 0)
(0.0931036 3.66893e-05 0)
(0.0878917 3.03636e-05 0)
(0.0835566 2.60264e-05 0)
(0.0798697 2.27179e-05 0)
(0.0766829 2.00647e-05 0)
(0.0738951 1.78971e-05 0)
(0.071432 1.61019e-05 0)
(0.0692377 1.45951e-05 0)
(0.0672689 1.33145e-05 0)
(0.0654915 1.22138e-05 0)
(0.0638785 1.12578e-05 0)
(0.0624079 1.04198e-05 0)
(0.0610619 9.67848e-06 0)
(0.0598257 9.01759e-06 0)
(0.0586872 8.42356e-06 0)
(0.0576359 7.88589e-06 0)
(0.0566634 7.39567e-06 0)
(0.055762 6.94605e-06 0)
(0.0549257 6.53089e-06 0)
(0.0541488 6.14552e-06 0)
(0.0534268 5.7863e-06 0)
(0.0527556 5.44864e-06 0)
(0.0521317 5.1326e-06 0)
(0.051552 4.83073e-06 0)
(0.0510138 4.54976e-06 0)
(0.0505149 4.27518e-06 0)
(0.050053 4.02582e-06 0)
(0.0496266 3.77164e-06 0)
(0.0492337 3.55431e-06 0)
(0.0488727 3.31797e-06 0)
(0.0485433 3.12804e-06 0)
(0.0482411 2.9282e-06 0)
(0.047972 2.71824e-06 0)
(0.0477191 2.66558e-06 0)
(0.0475131 2.20338e-06 0)
(0.04729 2.75215e-06 0)
(0.0471679 1.14716e-06 0)
(0.046924 3.89134e-06 0)
(0.0469609 -1.86388e-06 0)
(0.0465589 8.34176e-06 0)
(0.0469594 -1.12136e-05 0)
(0.0462379 3.26365e-05 0)
(0.0438596 -0.00170011 0)
(0.884899 0.0431669 0)
(0.64973 0.0201928 0)
(0.494367 0.00659635 0)
(0.403761 0.0027651 0)
(0.354896 0.00154907 0)
(0.323664 0.00112831 0)
(0.299884 0.00090683 0)
(0.280772 0.000742717 0)
(0.265148 0.000619695 0)
(0.252118 0.000528793 0)
(0.241032 0.000459761 0)
(0.231449 0.000405406 0)
(0.223061 0.000361447 0)
(0.215646 0.000325215 0)
(0.209036 0.000294896 0)
(0.203102 0.000269187 0)
(0.197741 0.000247128 0)
(0.192873 0.000227998 0)
(0.188432 0.000211244 0)
(0.184364 0.000196438 0)
(0.180626 0.000183245 0)
(0.17718 0.000171395 0)
(0.173996 0.000160673 0)
(0.171047 0.0001509 0)
(0.168313 0.000141932 0)
(0.165773 0.000133647 0)
(0.163411 0.000125942 0)
(0.161214 0.000118733 0)
(0.159169 0.00011194 0)
(0.157266 0.000105508 0)
(0.155495 9.93668e-05 0)
(0.15385 9.34936e-05 0)
(0.152323 8.78062e-05 0)
(0.150907 8.23397e-05 0)
(0.149599 7.69512e-05 0)
(0.148393 7.1804e-05 0)
(0.147285 6.65923e-05 0)
(0.146273 6.17469e-05 0)
(0.145346 5.66218e-05 0)
(0.14452 5.21195e-05 0)
(0.143751 4.70666e-05 0)
(0.143118 4.28751e-05 0)
(0.142455 3.8216e-05 0)
(0.142071 3.36148e-05 0)
(0.141382 3.10772e-05 0)
(0.141436 2.18373e-05 0)
(0.140374 3.20221e-05 0)
(0.141345 -2.56972e-05 0)
(0.139527 0.000237182 0)
(0.138356 -0.00277373 0)
(0.991237 0.0499006 0)
(0.890359 0.0307162 0)
(0.762731 0.0145932 0)
(0.656784 0.00797332 0)
(0.585545 0.00487711 0)
(0.536243 0.00346219 0)
(0.498493 0.0027258 0)
(0.468001 0.00223286 0)
(0.442818 0.00186923 0)
(0.421645 0.00159721 0)
(0.403532 0.00138938 0)
(0.387813 0.00122572 0)
(0.374011 0.00109347 0)
(0.361778 0.000984478 0)
(0.350847 0.00089326 0)
(0.341012 0.000815896 0)
(0.332112 0.000749504 0)
(0.324016 0.000691917 0)
(0.316618 0.000641481 0)
(0.309832 0.000596912 0)
(0.303587 0.0005572 0)
(0.297822 0.000521538 0)
(0.292488 0.000489276 0)
(0.287542 0.00045988 0)
(0.282948 0.000432914 0)
(0.278674 0.000408009 0)
(0.274694 0.000384857 0)
(0.270986 0.000363194 0)
(0.267528 0.000342789 0)
(0.264304 0.000323455 0)
(0.2613 0.000305 0)
(0.258501 0.000287316 0)
(0.255897 0.000270197 0)
(0.253478 0.000253665 0)
(0.251236 0.000237394 0)
(0.249164 0.0002217 0)
(0.247253 0.000205871 0)
(0.245502 0.000190927 0)
(0.243895 0.000175149 0)
(0.242454 0.000161197 0)
(0.241115 0.000144989 0)
(0.239994 0.000132728 0)
(0.238851 0.000115432 0)
(0.238127 0.000105817 0)
(0.236995 8.72925e-05 0)
(0.236925 7.74696e-05 0)
(0.235343 7.26933e-05 0)
(0.236532 -2.11243e-05 0)
(0.233919 0.000315763 0)
(0.234927 -0.00273669 0)
(1.0156 0.0489193 0)
(1.00596 0.0358713 0)
(0.935984 0.0207844 0)
(0.852214 0.0134936 0)
(0.782364 0.00919404 0)
(0.727282 0.00676484 0)
(0.68234 0.00536506 0)
(0.644737 0.00442444 0)
(0.612885 0.00372964 0)
(0.585589 0.00320294 0)
(0.561912 0.00279587 0)
(0.541147 0.00247318 0)
(0.522762 0.00221129 0)
(0.506356 0.00199475 0)
(0.491614 0.001813 0)
(0.478287 0.00165848 0)
(0.466175 0.0015256 0)
(0.455118 0.00141015 0)
(0.444982 0.0013089 0)
(0.435656 0.00121933 0)
(0.427051 0.00113945 0)
(0.419087 0.00106767 0)
(0.411701 0.00100271 0)
(0.404836 0.000943497 0)
(0.398445 0.000889176 0)
(0.392486 0.000839008 0)
(0.386925 0.000792377 0)
(0.381731 0.000748753 0)
(0.376876 0.000707675 0)
(0.372339 0.000668757 0)
(0.368099 0.000631625 0)
(0.364138 0.000596026 0)
(0.360442 0.000561589 0)
(0.356997 0.000528272 0)
(0.353793 0.000495522 0)
(0.350818 0.000463793 0)
(0.348064 0.000431866 0)
(0.345528 0.000401469 0)
(0.343189 0.00036947 0)
(0.341073 0.000340897 0)
(0.339108 0.000307511 0)
(0.337422 0.000282625 0)
(0.335747 0.000245373 0)
(0.334577 0.000228063 0)
(0.33299 0.000183217 0)
(0.332603 0.000174068 0)
(0.330634 0.000137952 0)
(0.331612 2.48489e-05 0)
(0.32865 0.000329543 0)
(0.330311 -0.00234949 0)
(1.01434 0.0460026 0)
(1.04753 0.0374841 0)
(1.0246 0.0241423 0)
(0.974817 0.0175443 0)
(0.923579 0.0131022 0)
(0.876915 0.0101812 0)
(0.834893 0.00831375 0)
(0.797311 0.00698973 0)
(0.763932 0.00597768 0)
(0.734313 0.00518835 0)
(0.707939 0.00456471 0)
(0.684336 0.00406249 0)
(0.663104 0.00365015 0)
(0.64391 0.00330611 0)
(0.626477 0.0030152 0)
(0.610576 0.00276637 0)
(0.596014 0.0025513 0)
(0.582631 0.00236365 0)
(0.570291 0.00219848 0)
(0.55888 0.00205193 0)
(0.548301 0.0019209 0)
(0.53847 0.0018029 0)
(0.529315 0.00169592 0)
(0.520776 0.00159828 0)
(0.512798 0.0015086 0)
(0.505337 0.0014257 0)
(0.49835 0.0013486 0)
(0.491804 0.00127643 0)
(0.485667 0.00120846 0)
(0.479912 0.00114404 0)
(0.474517 0.00108259 0)
(0.469459 0.00102366 0)
(0.464724 0.000966677 0)
(0.460292 0.000911492 0)
(0.456153 0.000857298 0)
(0.452293 0.000804648 0)
(0.448703 0.000751789 0)
(0.445375 0.000701147 0)
(0.442293 0.000648079 0)
(0.439476 0.000600131 0)
(0.436856 0.00054453 0)
(0.434555 0.00050232 0)
(0.432316 0.000439729 0)
(0.430606 0.000409976 0)
(0.428558 0.0003336 0)
(0.427674 0.00031879 0)
(0.425416 0.000248129 0)
(0.425805 0.000110812 0)
(0.422889 0.000364364 0)
(0.423907 -0.00193688 0)
(1.00933 0.042914 0)
(1.05528 0.0372589 0)
(1.0587 0.0252851 0)
(1.03641 0.0197408 0)
(1.00719 0.0157858 0)
(0.976221 0.0129032 0)
(0.944814 0.010921 0)
(0.914097 0.00943408 0)
(0.884918 0.00823992 0)
(0.857656 0.00726904 0)
(0.832386 0.00647635 0)
(0.809041 0.00582158 0)
(0.787498 0.00527318 0)
(0.767612 0.00480825 0)
(0.749236 0.00440995 0)
(0.732228 0.00406553 0)
(0.716457 0.00376511 0)
(0.701808 0.00350097 0)
(0.688174 0.00326694 0)
(0.675462 0.0030581 0)
(0.66359 0.00287047 0)
(0.652485 0.0027008 0)
(0.642082 0.0025464 0)
(0.632326 0.00240505 0)
(0.623166 0.00227487 0)
(0.614557 0.00215427 0)
(0.60646 0.00204188 0)
(0.598841 0.00193653 0)
(0.591668 0.00183718 0)
(0.584915 0.00174292 0)
(0.578558 0.00165294 0)
(0.572575 0.00156657 0)
(0.566949 0.00148304 0)
(0.561662 0.00140206 0)
(0.556701 0.00132258 0)
(0.552052 0.00124519 0)
(0.547706 0.00116764 0)
(0.543653 0.00109294 0)
(0.53988 0.0010151 0)
(0.536397 0.000943842 0)
(0.533152 0.00086242 0)
(0.53024 0.000798492 0)
(0.527449 0.000707547 0)
(0.525164 0.000659324 0)
(0.522671 0.00055103 0)
(0.521187 0.000519419 0)
(0.518691 0.000419896 0)
(0.518297 0.000245783 0)
(0.515534 0.000454722 0)
(0.515546 -0.00149954 0)
(1.00625 0.0400324 0)
(1.05207 0.0363311 0)
(1.0661 0.0252133 0)
(1.05962 0.0205384 0)
(1.04693 0.0172086 0)
(1.03091 0.0146168 0)
(1.0121 0.012772 0)
(0.991534 0.0113397 0)
(0.970274 0.0101372 0)
(0.949044 0.00911649 0)
(0.928286 0.00825192 0)
(0.908259 0.00751542 0)
(0.889106 0.00688237 0)
(0.870892 0.00633381 0)
(0.853636 0.00585508 0)
(0.837323 0.00543454 0)
(0.82192 0.00506276 0)
(0.807386 0.00473205 0)
(0.793672 0.00443608 0)
(0.780731 0.00416965 0)
(0.768516 0.00392843 0)
(0.75698 0.00370883 0)
(0.74608 0.00350781 0)
(0.735777 0.00332281 0)
(0.726034 0.00315165 0)
(0.716818 0.00299244 0)
(0.708096 0.00284355 0)
(0.699841 0.00270354 0)
(0.692027 0.00257116 0)
(0.684633 0.00244527 0)
(0.677636 0.00232486 0)
(0.671018 0.00220907 0)
(0.664765 0.00209694 0)
(0.658858 0.00198805 0)
(0.653289 0.00188114 0)
(0.648042 0.00177678 0)
(0.643111 0.00167234 0)
(0.638484 0.00157122 0)
(0.634154 0.00146641 0)
(0.630122 0.00136918 0)
(0.626352 0.00125999 0)
(0.62291 0.0011709 0)
(0.619642 0.00105071 0)
(0.616827 0.000978327 0)
(0.61394 0.000840446 0)
(0.611871 0.000781273 0)
(0.609155 0.000659682 0)
(0.60799 0.000441133 0)
(0.605294 0.000606271 0)
(0.604409 -0.00101876 0)
(1.00495 0.0373542 0)
(1.04727 0.0352487 0)
(1.06398 0.0246727 0)
(1.06427 0.0205633 0)
(1.06072 0.0177437 0)
(1.05482 0.015455 0)
(1.04613 0.0138228 0)
(1.03503 0.012553 0)
(1.02223 0.0114591 0)
(1.00835 0.0104993 0)
(0.993833 0.00966044 0)
(0.979035 0.00892475 0)
(0.964218 0.00827535 0)
(0.949572 0.00769892 0)
(0.935232 0.007185 0)
(0.921288 0.00672489 0)
(0.907796 0.00631126 0)
(0.894791 0.00593781 0)
(0.882289 0.00559917 0)
(0.870296 0.00529072 0)
(0.858808 0.00500854 0)
(0.847816 0.00474923 0)
(0.837308 0.00450987 0)
(0.827269 0.00428793 0)
(0.817683 0.0040812 0)
(0.808533 0.00388773 0)
(0.799804 0.00370581 0)
(0.791478 0.00353391 0)
(0.783542 0.00337066 0)
(0.77598 0.00321481 0)
(0.76878 0.00306521 0)
(0.761928 0.00292089 0)
(0.755414 0.00278078 0)
(0.749226 0.00264432 0)
(0.743358 0.00251013 0)
(0.737797 0.00237872 0)
(0.732541 0.00224723 0)
(0.727578 0.00211923 0)
(0.722907 0.00198713 0)
(0.718523 0.00186302 0)
(0.714407 0.00172592 0)
(0.710596 0.00160985 0)
(0.70699 0.00146124 0)
(0.703778 0.00136082 0)
(0.700596 0.00119661 0)
(0.698056 0.00110291 0)
(0.695159 0.000963297 0)
(0.693368 0.000701867 0)
(0.690654 0.000818642 0)
(0.689084 -0.000500216 0)
(1.0044 0.0348061 0)
(1.04324 0.0341751 0)
(1.05995 0.0240311 0)
(1.06231 0.0202684 0)
(1.06253 0.0178056 0)
(1.06186 0.015733 0)
(1.05934 0.0142724 0)
(1.05486 0.013166 0)
(1.04873 0.0122121 0)
(1.04127 0.0113623 0)
(1.03277 0.0106057 0)
(1.02347 0.00992883 0)
(1.0136 0.00931872 0)
(1.00336 0.0087657 0)
(0.992913 0.00826262 0)
(0.982383 0.00780363 0)
(0.971873 0.0073837 0)
(0.961462 0.00699837 0)
(0.951211 0.00664374 0)
(0.941165 0.00631631 0)
(0.931358 0.00601301 0)
(0.921813 0.0057311 0)
(0.912547 0.00546815 0)
(0.903571 0.00522199 0)
(0.894891 0.0049907 0)
(0.886509 0.0047725 0)
(0.878428 0.00456582 0)
(0.870644 0.0043692 0)
(0.863157 0.00418132 0)
(0.855961 0.00400094 0)
(0.849055 0.0038269 0)
(0.842433 0.0036582 0)
(0.836092 0.00349373 0)
(0.830026 0.00333289 0)
(0.824235 0.00317421 0)
(0.818711 0.00301817 0)
(0.813456 0.00286182 0)
(0.808462 0.00270875 0)
(0.80373 0.00255119 0)
(0.799257 0.00240136 0)
(0.795034 0.00223813 0)
(0.791082 0.00209533 0)
(0.787339 0.00192066 0)
(0.783927 0.00179092 0)
(0.780608 0.00160393 0)
(0.777783 0.00147331 0)
(0.774798 0.0013175 0)
(0.772585 0.00102069 0)
(0.769854 0.00108549 0)
(0.767824 3.94917e-05 0)
(1.00402 0.0323659 0)
(1.03991 0.0331246 0)
(1.05617 0.0234073 0)
(1.05895 0.0198792 0)
(1.06026 0.0176737 0)
(1.06163 0.0157348 0)
(1.06204 0.0143741 0)
(1.06119 0.0133809 0)
(1.0592 0.0125413 0)
(1.05616 0.0117953 0)
(1.05218 0.0111297 0)
(1.04737 0.0105306 0)
(1.04184 0.00998532 0)
(1.03573 0.00948471 0)
(1.02915 0.00902279 0)
(1.02222 0.00859508 0)
(1.01502 0.00819789 0)
(1.00764 0.00782809 0)
(1.00016 0.0074829 0)
(0.992627 0.00715985 0)
(0.985095 0.00685674 0)
(0.977607 0.00657157 0)
(0.970195 0.00630252 0)
(0.962889 0.00604793 0)
(0.95571 0.00580629 0)
(0.948677 0.00557617 0)
(0.941804 0.00535627 0)
(0.935103 0.00514534 0)
(0.928583 0.00494222 0)
(0.922251 0.0047458 0)
(0.916113 0.00455501 0)
(0.910172 0.00436891 0)
(0.904434 0.00418643 0)
(0.898899 0.00400698 0)
(0.893572 0.00382911 0)
(0.888452 0.00365328 0)
(0.883545 0.00347656 0)
(0.878846 0.00330247 0)
(0.874364 0.00312335 0)
(0.870094 0.00295114 0)
(0.866037 0.0027654 0)
(0.862205 0.00259835 0)
(0.858562 0.0024014 0)
(0.855187 0.00224373 0)
(0.851927 0.00203795 0)
(0.84904 0.00187198 0)
(0.846112 0.00170113 0)
(0.843709 0.00137928 0)
(0.841039 0.00139204 0)
(0.838784 0.000579192 0)
(1.00364 0.0300254 0)
(1.03692 0.0320766 0)
(1.05283 0.0228169 0)
(1.05571 0.0194729 0)
(1.05716 0.0174801 0)
(1.05908 0.0156325 0)
(1.06056 0.0143183 0)
(1.06129 0.0133869 0)
(1.06135 0.0126194 0)
(1.06077 0.0119461 0)
(1.05955 0.011351 0)
(1.05771 0.0108191 0)
(1.05527 0.0103361 0)
(1.0523 0.00989193 0)
(1.04884 0.00948006 0)
(1.04496 0.00909593 0)
(1.04072 0.00873607 0)
(1.03618 0.00839769 0)
(1.03139 0.00807848 0)
(1.0264 0.00777647 0)
(1.02127 0.00748996 0)
(1.01602 0.00721741 0)
(1.01071 0.00695749 0)
(1.00535 0.00670892 0)
(0.999982 0.00647057 0)
(0.994627 0.00624134 0)
(0.989308 0.0060202 0)
(0.984043 0.00580615 0)
(0.978847 0.00559824 0)
(0.973735 0.00539551 0)
(0.96872 0.00519706 0)
(0.963812 0.00500204 0)
(0.95902 0.00480947 0)
(0.954351 0.00461881 0)
(0.949816 0.0044287 0)
(0.945418 0.0042396 0)
(0.941165 0.00404866 0)
(0.93706 0.00385931 0)
(0.933112 0.00366417 0)
(0.929321 0.00347464 0)
(0.925692 0.00327157 0)
(0.922234 0.00308458 0)
(0.918928 0.00287041 0)
(0.915826 0.00268842 0)
(0.912833 0.00246841 0)
(0.910109 0.00227171 0)
(0.907405 0.00208734 0)
(0.905043 0.00175163 0)
(0.902557 0.00171621 0)
(0.900305 0.00109476 0)
(1.00327 0.0277855 0)
(1.03409 0.0310175 0)
(1.04971 0.0222529 0)
(1.05275 0.0190645 0)
(1.05416 0.0172676 0)
(1.05614 0.015501 0)
(1.05789 0.014208 0)
(1.05914 0.0133059 0)
(1.06001 0.0125779 0)
(1.06053 0.0119467 0)
(1.06068 0.0113952 0)
(1.06046 0.0109083 0)
(1.05985 0.0104707 0)
(1.05886 0.0100712 0)
(1.0575 0.00970217 0)
(1.05579 0.00935845 0)
(1.05376 0.00903609 0)
(1.05143 0.00873203 0)
(1.04883 0.00844382 0)
(1.046 0.00816949 0)
(1.04296 0.00790738 0)
(1.03975 0.00765611 0)
(1.03639 0.00741446 0)
(1.03291 0.00718137 0)
(1.02934 0.00695587 0)
(1.02569 0.00673706 0)
(1.022 0.00652409 0)
(1.01827 0.00631612 0)
(1.01453 0.00611238 0)
(1.01079 0.00591203 0)
(1.00706 0.0057143 0)
(1.00337 0.00551843 0)
(0.999711 0.00532355 0)
(0.996109 0.00512918 0)
(0.992569 0.00493402 0)
(0.9891 0.00473858 0)
(0.985712 0.00454011 0)
(0.98241 0.00434191 0)
(0.979205 0.00413703 0)
(0.9761 0.0039361 0)
(0.973102 0.00372169 0)
(0.97022 0.00352018 0)
(0.967445 0.00329454 0)
(0.964811 0.00309338 0)
(0.962265 0.00286403 0)
(0.959897 0.00264323 0)
(0.957573 0.00244749 0)
(0.955454 0.00210879 0)
(0.95328 0.00203176 0)
(0.951229 0.00156236 0)
(1.00292 0.0256496 0)
(1.03138 0.0299426 0)
(1.04671 0.021711 0)
(1.04995 0.018654 0)
(1.05135 0.017043 0)
(1.05329 0.0153623 0)
(1.05506 0.014084 0)
(1.05644 0.0131967 0)
(1.05753 0.0124908 0)
(1.05844 0.0118823 0)
(1.05915 0.0113543 0)
(1.05966 0.0108928 0)
(1.05995 0.0104824 0)
(1.06001 0.0101115 0)
(1.05983 0.00977177 0)
(1.05942 0.00945747 0)
(1.05878 0.00916416 0)
(1.05792 0.00888833 0)
(1.05684 0.00862722 0)
(1.05557 0.00837855 0)
(1.0541 0.0081405 0)
(1.05246 0.00791153 0)
(1.05067 0.00769036 0)
(1.04874 0.00747589 0)
(1.04669 0.00726716 0)
(1.04453 0.00706328 0)
(1.04228 0.00686345 0)
(1.03996 0.0066669 0)
(1.03757 0.00647289 0)
(1.03514 0.00628068 0)
(1.03267 0.00608953 0)
(1.03018 0.00589877 0)
(1.02767 0.00570754 0)
(1.02517 0.00551544 0)
(1.02268 0.00532121 0)
(1.0202 0.00512537 0)
(1.01775 0.00492527 0)
(1.01534 0.00472408 0)
(1.01298 0.00451531 0)
(1.01066 0.00430866 0)
(1.0084 0.00408872 0)
(1.00621 0.0038782 0)
(1.00408 0.00364674 0)
(1.00204 0.00343212 0)
(1.00006 0.0031981 0)
(0.998179 0.0029607 0)
(0.996341 0.00275623 0)
(0.994612 0.00242395 0)
(0.992851 0.00231341 0)
(0.991146 0.00196117 0)
(1.0026 0.0236203 0)
(1.0288 0.0288507 0)
(1.0438 0.02119 0)
(1.04726 0.0182414 0)
(1.04866 0.0168048 0)
(1.05056 0.015219 0)
(1.05234 0.0139574 0)
(1.05372 0.0130801 0)
(1.05485 0.0123896 0)
(1.05585 0.0117953 0)
(1.05673 0.0112799 0)
(1.0575 0.0108316 0)
(1.05815 0.0104358 0)
(1.05867 0.0100806 0)
(1.05905 0.00975787 0)
(1.05931 0.00946148 0)
(1.05942 0.00918677 0)
(1.05939 0.00892998 0)
(1.05922 0.00868805 0)
(1.0589 0.00845846 0)
(1.05845 0.00823915 0)
(1.05787 0.0080284 0)
(1.05717 0.00782476 0)
(1.05634 0.00762697 0)
(1.05541 0.00743399 0)
(1.05437 0.00724484 0)
(1.05325 0.00705868 0)
(1.05204 0.0068747 0)
(1.05075 0.00669212 0)
(1.0494 0.00651022 0)
(1.048 0.00632823 0)
(1.04655 0.00614549 0)
(1.04506 0.00596115 0)
(1.04354 0.00577483 0)
(1.04201 0.00558525 0)
(1.04045 0.00539294 0)
(1.03889 0.00519533 0)
(1.03734 0.00499537 0)
(1.03579 0.00478713 0)
(1.03425 0.00457925 0)
(1.03274 0.00435844 0)
(1.03125 0.00414363 0)
(1.02979 0.003911 0)
(1.02837 0.00368826 0)
(1.02699 0.00345338 0)
(1.02565 0.00320655 0)
(1.02434 0.00299608 0)
(1.02308 0.00267728 0)
(1.02178 0.00254179 0)
(1.0205 0.00227679 0)
(1.0023 0.0216996 0)
(1.02634 0.0277427 0)
(1.04096 0.0206882 0)
(1.04466 0.0178281 0)
(1.04608 0.0165518 0)
(1.04795 0.0150696 0)
(1.04972 0.0138292 0)
(1.05109 0.012961 0)
(1.05222 0.0122843 0)
(1.05322 0.0117016 0)
(1.05413 0.0111947 0)
(1.05497 0.0107539 0)
(1.05572 0.010366 0)
(1.0564 0.0100191 0)
(1.05701 0.00970531 0)
(1.05754 0.00941855 0)
(1.05799 0.00915417 0)
(1.05837 0.00890834 0)
(1.05865 0.00867791 0)
(1.05886 0.00846024 0)
(1.05898 0.00825313 0)
(1.05901 0.0080547 0)
(1.05896 0.00786337 0)
(1.05882 0.00767778 0)
(1.05861 0.00749674 0)
(1.05832 0.0073192 0)
(1.05795 0.0071442 0)
(1.05752 0.00697088 0)
(1.05702 0.0067984 0)
(1.05647 0.00662599 0)
(1.05586 0.00645283 0)
(1.0552 0.00627826 0)
(1.0545 0.00610135 0)
(1.05376 0.00592174 0)
(1.05299 0.0057381 0)
(1.05219 0.00555093 0)
(1.05137 0.00535775 0)
(1.05054 0.00516125 0)
(1.04969 0.00495606 0)
(1.04883 0.00474965 0)
(1.04798 0.00453094 0)
(1.04712 0.00431511 0)
(1.04627 0.00408442 0)
(1.04543 0.00385776 0)
(1.0446 0.00362457 0)
(1.04379 0.00337421 0)
(1.04298 0.00316011 0)
(1.04218 0.0028591 0)
(1.04134 0.00270652 0)
(1.0405 0.00250399 0)
(1.00203 0.0198881 0)
(1.02402 0.0266217 0)
(1.03823 0.0202027 0)
(1.04213 0.0174161 0)
(1.04358 0.0162839 0)
(1.04542 0.0149126 0)
(1.04719 0.0136988 0)
(1.04856 0.0128399 0)
(1.04968 0.0121767 0)
(1.05066 0.0116055 0)
(1.05157 0.0111062 0)
(1.05241 0.0106712 0)
(1.05318 0.0102883 0)
(1.0539 0.00994645 0)
(1.05457 0.00963753 0)
(1.0552 0.00935583 0)
(1.05578 0.0090968 0)
(1.05631 0.00885668 0)
(1.05679 0.00863234 0)
(1.05723 0.00842114 0)
(1.05762 0.00822083 0)
(1.05796 0.0080295 0)
(1.05825 0.0078455 0)
(1.05849 0.00766739 0)
(1.05868 0.00749392 0)
(1.05882 0.00732395 0)
(1.05891 0.00715648 0)
(1.05895 0.00699056 0)
(1.05895 0.00682533 0)
(1.05891 0.00665994 0)
(1.05883 0.00649355 0)
(1.0587 0.00632543 0)
(1.05855 0.00615465 0)
(1.05836 0.00598078 0)
(1.05813 0.0058025 0)
(1.05789 0.0056202 0)
(1.05761 0.00543154 0)
(1.05732 0.00523886 0)
(1.057 0.00503743 0)
(1.05668 0.00483351 0)
(1.05633 0.00461813 0)
(1.05598 0.00440299 0)
(1.05562 0.00417568 0)
(1.05526 0.00394787 0)
(1.05489 0.00371751 0)
(1.05452 0.00346778 0)
(1.05414 0.00325177 0)
(1.05375 0.00297016 0)
(1.05331 0.00280689 0)
(1.05286 0.00264692 0)
(1.00179 0.0181861 0)
(1.02184 0.0254914 0)
(1.03559 0.0197295 0)
(1.03969 0.0170072 0)
(1.04118 0.016002 0)
(1.04298 0.0147472 0)
(1.04475 0.0135658 0)
(1.04612 0.0127164 0)
(1.04723 0.0120669 0)
(1.0482 0.0115077 0)
(1.0491 0.0110161 0)
(1.04992 0.0105866 0)
(1.05069 0.0102081 0)
(1.05141 0.00987005 0)
(1.05208 0.00956449 0)
(1.05273 0.00928587 0)
(1.05334 0.00902981 0)
(1.05392 0.00879268 0)
(1.05447 0.00857143 0)
(1.055 0.00836344 0)
(1.0555 0.00816652 0)
(1.05596 0.00797875 0)
(1.05641 0.00779849 0)
(1.05682 0.00762426 0)
(1.0572 0.0074548 0)
(1.05756 0.00728895 0)
(1.05789 0.00712567 0)
(1.05819 0.00696399 0)
(1.05846 0.00680299 0)
(1.05871 0.00664184 0)
(1.05893 0.00647962 0)
(1.05913 0.00631563 0)
(1.0593 0.00614886 0)
(1.05945 0.00597888 0)
(1.05958 0.00580435 0)
(1.05969 0.00562559 0)
(1.05977 0.00544039 0)
(1.05984 0.00525073 0)
(1.05989 0.00505252 0)
(1.05993 0.00485083 0)
(1.05995 0.00463868 0)
(1.05996 0.00442468 0)
(1.05996 0.00420083 0)
(1.05994 0.0039733 0)
(1.05992 0.00374579 0)
(1.05988 0.00349909 0)
(1.05983 0.00328217 0)
(1.05975 0.00301934 0)
(1.05963 0.00285002 0)
(1.05949 0.00271705 0)
(1.00157 0.0165932 0)
(1.01979 0.0243559 0)
(1.03305 0.0192647 0)
(1.03734 0.016603 0)
(1.03886 0.0157072 0)
(1.04063 0.0145727 0)
(1.04239 0.0134299 0)
(1.04377 0.0125906 0)
(1.04487 0.0119545 0)
(1.04583 0.011408 0)
(1.04671 0.0109247 0)
(1.04753 0.0105007 0)
(1.04828 0.0101267 0)
(1.04899 0.00979219 0)
(1.04966 0.00948956 0)
(1.0503 0.00921337 0)
(1.05091 0.00895941 0)
(1.05149 0.00872415 0)
(1.05206 0.00850461 0)
(1.05261 0.00829828 0)
(1.05314 0.00810298 0)
(1.05365 0.00791684 0)
(1.05414 0.00773822 0)
(1.05462 0.00756568 0)
(1.05509 0.00739796 0)
(1.05554 0.00723388 0)
(1.05597 0.00707242 0)
(1.05639 0.00691261 0)
(1.05679 0.00675351 0)
(1.05719 0.00659429 0)
(1.05756 0.00643404 0)
(1.05793 0.00627202 0)
(1.05828 0.00610725 0)
(1.05861 0.00593924 0)
(1.05894 0.00576672 0)
(1.05925 0.00558987 0)
(1.05955 0.00540668 0)
(1.05983 0.00521875 0)
(1.06011 0.00502265 0)
(1.06037 0.00482232 0)
(1.06062 0.00461256 0)
(1.06086 0.00439937 0)
(1.06109 0.00417825 0)
(1.0613 0.00395146 0)
(1.06151 0.00372611 0)
(1.06169 0.00348344 0)
(1.06187 0.00326606 0)
(1.06201 0.00301989 0)
(1.06211 0.0028475 0)
(1.06221 0.00272974 0)
(1.00137 0.0151086 0)
(1.01788 0.0232191 0)
(1.03062 0.0188042 0)
(1.03508 0.0162052 0)
(1.03664 0.0154011 0)
(1.03837 0.0143884 0)
(1.04012 0.0132906 0)
(1.04151 0.0124624 0)
(1.0426 0.0118395 0)
(1.04355 0.0113062 0)
(1.04442 0.0108318 0)
(1.04522 0.0104137 0)
(1.04597 0.0100441 0)
(1.04666 0.0097133 0)
(1.04732 0.00941359 0)
(1.04795 0.00913972 0)
(1.04855 0.00888762 0)
(1.04913 0.00865387 0)
(1.04969 0.00843559 0)
(1.05024 0.0082303 0)
(1.05077 0.00803587 0)
(1.05128 0.00785048 0)
(1.05179 0.00767251 0)
(1.05229 0.00750055 0)
(1.05278 0.00733334 0)
(1.05325 0.00716974 0)
(1.05373 0.00700871 0)
(1.05419 0.00684932 0)
(1.05465 0.00669064 0)
(1.0551 0.00653183 0)
(1.05554 0.00637201 0)
(1.05598 0.00621044 0)
(1.05642 0.00604614 0)
(1.05684 0.00587864 0)
(1.05726 0.00570668 0)
(1.05767 0.00553036 0)
(1.05808 0.00534787 0)
(1.05848 0.00516045 0)
(1.05887 0.0049653 0)
(1.05926 0.00476535 0)
(1.05964 0.00455693 0)
(1.06001 0.00434397 0)
(1.06037 0.00412453 0)
(1.06072 0.00389843 0)
(1.06106 0.0036743 0)
(1.06138 0.00343572 0)
(1.06169 0.00321801 0)
(1.06198 0.00298562 0)
(1.06223 0.00281181 0)
(1.06248 0.00270067 0)
(1.0012 0.0137307 0)
(1.01611 0.0220852 0)
(1.0283 0.0183444 0)
(1.0329 0.0158148 0)
(1.03452 0.0150854 0)
(1.03621 0.0141939 0)
(1.03794 0.0131475 0)
(1.03933 0.0123319 0)
(1.04043 0.0117218 0)
(1.04137 0.0112021 0)
(1.04222 0.0107372 0)
(1.04301 0.0103253 0)
(1.04375 0.00996044 0)
(1.04443 0.00963338 0)
(1.04508 0.00933668 0)
(1.04569 0.00906519 0)
(1.04628 0.00881495 0)
(1.04685 0.00858266 0)
(1.0474 0.0083655 0)
(1.04794 0.00816107 0)
(1.04846 0.00796727 0)
(1.04898 0.0077823 0)
(1.04948 0.00760459 0)
(1.04997 0.00743273 0)
(1.05046 0.00726549 0)
(1.05095 0.00710174 0)
(1.05143 0.00694047 0)
(1.0519 0.00678076 0)
(1.05237 0.00662169 0)
(1.05284 0.00646245 0)
(1.05331 0.00630217 0)
(1.05377 0.00614013 0)
(1.05424 0.00597538 0)
(1.0547 0.00580741 0)
(1.05516 0.00563506 0)
(1.05561 0.00545832 0)
(1.05607 0.00527558 0)
(1.05652 0.00508776 0)
(1.05696 0.00489263 0)
(1.05741 0.00469229 0)
(1.05785 0.00448428 0)
(1.05828 0.00427099 0)
(1.05871 0.00405227 0)
(1.05913 0.0038266 0)
(1.05954 0.00360283 0)
(1.05994 0.00336789 0)
(1.06033 0.0031499 0)
(1.06069 0.0029282 0)
(1.06103 0.00275373 0)
(1.06137 0.00264329 0)
(1.00104 0.0124571 0)
(1.01447 0.0209584 0)
(1.02609 0.0178818 0)
(1.03081 0.0154327 0)
(1.03249 0.0147619 0)
(1.03414 0.0139886 0)
(1.03585 0.0130001 0)
(1.03725 0.012199 0)
(1.03834 0.0116013 0)
(1.03927 0.0110956 0)
(1.04012 0.0106408 0)
(1.0409 0.0102355 0)
(1.04162 0.00987547 0)
(1.04229 0.00955234 0)
(1.04293 0.00925879 0)
(1.04353 0.00898975 0)
(1.04411 0.00874143 0)
(1.04467 0.00851064 0)
(1.04521 0.00829462 0)
(1.04574 0.00809101 0)
(1.04625 0.00789778 0)
(1.04676 0.00771315 0)
(1.04725 0.00753556 0)
(1.04774 0.00736363 0)
(1.04822 0.00719615 0)
(1.0487 0.00703201 0)
(1.04917 0.0068702 0)
(1.04965 0.00670983 0)
(1.05012 0.00655 0)
(1.05059 0.00638993 0)
(1.05106 0.00622874 0)
(1.05153 0.00606576 0)
(1.052 0.00590004 0)
(1.05246 0.00573109 0)
(1.05293 0.0055578 0)
(1.0534 0.00538007 0)
(1.05387 0.00519651 0)
(1.05434 0.00500773 0)
(1.05481 0.004812 0)
(1.05527 0.00461076 0)
(1.05574 0.00440247 0)
(1.0562 0.00418848 0)
(1.05666 0.0039697 0)
(1.05711 0.00374419 0)
(1.05755 0.00352016 0)
(1.05799 0.00328822 0)
(1.05841 0.00306998 0)
(1.05882 0.0028561 0)
(1.0592 0.00268114 0)
(1.0596 0.00256754 0)
(1.0009 0.0112851 0)
(1.01296 0.0198431 0)
(1.02399 0.0174134 0)
(1.02881 0.0150594 0)
(1.03055 0.0144328 0)
(1.03216 0.0137723 0)
(1.03385 0.0128478 0)
(1.03525 0.0120639 0)
(1.03634 0.0114782 0)
(1.03727 0.0109865 0)
(1.0381 0.0105425 0)
(1.03887 0.0101441 0)
(1.03959 0.00978917 0)
(1.04025 0.0094701 0)
(1.04088 0.00917982 0)
(1.04147 0.00891335 0)
(1.04204 0.00866703 0)
(1.04259 0.00843777 0)
(1.04312 0.00822293 0)
(1.04364 0.00802017 0)
(1.04414 0.00782751 0)
(1.04464 0.0076432 0)
(1.04512 0.0074657 0)
(1.0456 0.00729366 0)
(1.04607 0.00712586 0)
(1.04654 0.00696123 0)
(1.04701 0.00679878 0)
(1.04747 0.00663761 0)
(1.04794 0.00647687 0)
(1.0484 0.00631577 0)
(1.04887 0.00615349 0)
(1.04933 0.00598934 0)
(1.0498 0.00582242 0)
(1.05027 0.00565222 0)
(1.05073 0.00547771 0)
(1.0512 0.0052987 0)
(1.05167 0.00511399 0)
(1.05214 0.00492395 0)
(1.05261 0.00472726 0)
(1.05308 0.00452482 0)
(1.05355 0.00431581 0)
(1.05402 0.00410088 0)
(1.05449 0.00388153 0)
(1.05495 0.00365595 0)
(1.0554 0.00343128 0)
(1.05585 0.00320163 0)
(1.05629 0.00298318 0)
(1.05672 0.00277464 0)
(1.05713 0.00259904 0)
(1.05755 0.00247998 0)
(1.00078 0.010211 0)
(1.01157 0.0187437 0)
(1.02201 0.0169365 0)
(1.02689 0.0146948 0)
(1.02871 0.0141001 0)
(1.03028 0.0135451 0)
(1.03194 0.0126898 0)
(1.03334 0.0119263 0)
(1.03443 0.0113524 0)
(1.03535 0.0108747 0)
(1.03618 0.0104421 0)
(1.03694 0.0100511 0)
(1.03764 0.00970142 0)
(1.0383 0.00938657 0)
(1.03892 0.00909969 0)
(1.0395 0.00883589 0)
(1.04006 0.00859165 0)
(1.0406 0.008364 0)
(1.04112 0.00815037 0)
(1.04163 0.0079485 0)
(1.04213 0.00775643 0)
(1.04261 0.00757245 0)
(1.04309 0.00739504 0)
(1.04356 0.00722287 0)
(1.04402 0.00705474 0)
(1.04448 0.00688959 0)
(1.04494 0.00672644 0)
(1.0454 0.00656442 0)
(1.04586 0.0064027 0)
(1.04631 0.0062405 0)
(1.04677 0.00607703 0)
(1.04723 0.00591161 0)
(1.04769 0.00574338 0)
(1.04815 0.0055718 0)
(1.04861 0.00539593 0)
(1.04907 0.0052155 0)
(1.04954 0.00502948 0)
(1.05001 0.00483802 0)
(1.05047 0.00464014 0)
(1.05094 0.00443636 0)
(1.05141 0.00422634 0)
(1.05187 0.00401035 0)
(1.05234 0.00379009 0)
(1.0528 0.00356424 0)
(1.05326 0.00333872 0)
(1.05371 0.00311069 0)
(1.05415 0.00289203 0)
(1.05459 0.00268679 0)
(1.05502 0.00251016 0)
(1.05545 0.00238442 0)
(1.00067 0.00923085 0)
(1.01031 0.0176648 0)
(1.02014 0.0164488 0)
(1.02505 0.0143387 0)
(1.02695 0.0137658 0)
(1.02849 0.0133072 0)
(1.03012 0.0125257 0)
(1.03152 0.0117861 0)
(1.03261 0.0112239 0)
(1.03352 0.0107602 0)
(1.03434 0.0103395 0)
(1.0351 0.00995634 0)
(1.03579 0.00961214 0)
(1.03644 0.00930165 0)
(1.03705 0.0090183 0)
(1.03763 0.00875729 0)
(1.03818 0.00851522 0)
(1.03871 0.00828924 0)
(1.03922 0.00807688 0)
(1.03972 0.00787593 0)
(1.04021 0.00768448 0)
(1.04068 0.00750084 0)
(1.04115 0.00732353 0)
(1.04161 0.00715123 0)
(1.04207 0.00698276 0)
(1.04252 0.00681706 0)
(1.04297 0.0066532 0)
(1.04342 0.0064903 0)
(1.04387 0.00632756 0)
(1.04432 0.00616423 0)
(1.04477 0.00599952 0)
(1.04522 0.00583278 0)
(1.04567 0.00566317 0)
(1.04613 0.00549015 0)
(1.04658 0.00531285 0)
(1.04704 0.00513093 0)
(1.0475 0.00494349 0)
(1.04796 0.00475053 0)
(1.04842 0.00455133 0)
(1.04888 0.00434613 0)
(1.04934 0.00413491 0)
(1.0498 0.00391777 0)
(1.05026 0.00369639 0)
(1.05072 0.00347008 0)
(1.05118 0.00324359 0)
(1.05163 0.00301654 0)
(1.05208 0.0027976 0)
(1.05252 0.002594 0)
(1.05295 0.00241585 0)
(1.0534 0.00228289 0)
(1.00058 0.00834 0)
(1.00917 0.0166105 0)
(1.01838 0.0159487 0)
(1.0233 0.0139906 0)
(1.02528 0.013432 0)
(1.02679 0.0130592 0)
(1.02839 0.0123548 0)
(1.02978 0.0116432 0)
(1.03088 0.0110928 0)
(1.03179 0.0106428 0)
(1.0326 0.0102344 0)
(1.03334 0.00985966 0)
(1.03403 0.00952123 0)
(1.03467 0.00921525 0)
(1.03527 0.00893556 0)
(1.03584 0.00867746 0)
(1.03639 0.00843764 0)
(1.03691 0.00821341 0)
(1.03741 0.00800237 0)
(1.0379 0.00780238 0)
(1.03838 0.00761158 0)
(1.03885 0.00742831 0)
(1.03931 0.0072511 0)
(1.03976 0.00707867 0)
(1.04021 0.00690985 0)
(1.04066 0.00674361 0)
(1.0411 0.00657901 0)
(1.04154 0.00641521 0)
(1.04198 0.00625143 0)
(1.04243 0.00608693 0)
(1.04287 0.00592096 0)
(1.04331 0.00575285 0)
(1.04376 0.00558184 0)
(1.0442 0.00540734 0)
(1.04465 0.00522855 0)
(1.0451 0.00504508 0)
(1.04555 0.00485616 0)
(1.04601 0.00466165 0)
(1.04646 0.00446103 0)
(1.04692 0.00425436 0)
(1.04737 0.0040418 0)
(1.04783 0.00382342 0)
(1.04828 0.00360078 0)
(1.04874 0.0033738 0)
(1.04919 0.00314626 0)
(1.04964 0.00291958 0)
(1.05008 0.0027002 0)
(1.05053 0.00249692 0)
(1.05097 0.00231667 0)
(1.05142 0.00217632 0)
(1.0005 0.0075334 0)
(1.00814 0.0155852 0)
(1.01673 0.0154351 0)
(1.02164 0.0136495 0)
(1.02369 0.0131002 0)
(1.02518 0.0128018 0)
(1.02674 0.0121764 0)
(1.02813 0.0114972 0)
(1.02923 0.0109591 0)
(1.03013 0.0105224 0)
(1.03094 0.0101267 0)
(1.03168 0.00976094 0)
(1.03236 0.00942856 0)
(1.03299 0.00912724 0)
(1.03358 0.00885136 0)
(1.03415 0.00859629 0)