/*--------------------------------*- C++ -*----------------------------------*\
  =========                 |
  \\      /  F ield         | OpenFOAM: The Open Source CFD Toolbox
   \\    /   O peration     | Website:  https://openfoam.org
    \\  /    A nd           | Version:  7
     \\/     M anipulation  |
\*---------------------------------------------------------------------------*/
FoamFile
{
    version     2.0;
    format      ascii;
    class       volVectorField;
    location    "0.13";
    object      wallShearStress;
}
// * * * * * * * * * * * * * * * * * * * * * * * * * * * * * * * * * * * * * //

dimensions      [0 2 -2 0 0 0 0];

internalField   uniform (0 0 0);

boundaryField
{
    velocityInlet
    {
        type            calculated;
        value           uniform (0 0 0);
    }
    pressureOutlet
    {
        type            calculated;
        value           uniform (0 0 0);
    }
    fixedWalls
    {
        type            calculated;
        value           nonuniform List<vector> 
100
(
(-0.0218773 -0.00748377 0)
(-1.66523e-05 -0.00151063 0)
(-0.00133177 0.000425879 0)
(-0.0018967 0.000184907 0)
(-0.00278877 0.000153329 0)
(-0.00353719 0.00011674 0)
(-0.00391221 5.40742e-05 0)
(-0.00383965 -1.99296e-05 0)
(-0.00344663 -6.4963e-05 0)
(-0.00293905 -7.42693e-05 0)
(-0.00249658 -5.66297e-05 0)
(-0.00222842 -2.72225e-05 0)
(-0.00215645 1.79736e-06 0)
(-0.00224498 2.40368e-05 0)
(-0.00244385 3.65337e-05 0)
(-0.00266263 2.83205e-05 0)
(-0.00291031 2.71991e-05 0)
(-0.00363183 0.000123433 0)
(-0.00539987 0.000294804 0)
(-0.00786015 0.000389218 0)
(-0.00951336 0.000293869 0)
(-0.00836812 -0.000238696 0)
(-0.00320872 -0.000940813 0)
(0.00373499 -0.00104294 0)
(0.00829697 -0.000653553 0)
(0.00898953 -4.78096e-05 0)
(0.00638866 0.000394409 0)
(0.00242335 0.000497105 0)
(-0.00112077 0.000401401 0)
(-0.00346646 0.000238548 0)
(-0.00466311 0.000111843 0)
(-0.00511372 4.04661e-05 0)
(-0.00520356 1.29949e-05 0)
(-0.00515808 4.50164e-06 0)
(-0.00503724 -3.03664e-06 0)
(-0.00480335 -2.05733e-05 0)
(-0.00442801 -4.20116e-05 0)
(-0.00396859 -5.38968e-05 0)
(-0.00354308 -4.92931e-05 0)
(-0.00324589 -3.47897e-05 0)
(-0.00310924 -2.10281e-05 0)
(-0.00316178 1.0929e-06 0)
(-0.00348314 3.72459e-05 0)
(-0.00412508 7.96171e-05 0)
(-0.00504648 0.000118335 0)
(-0.00609082 0.000141986 0)
(-0.00679364 0.000117887 0)
(-0.00637515 -3.35577e-05 0)
(-0.00421367 -0.000268592 0)
(-0.000522841 -0.000463093 0)
(0.00315684 -0.000430478 0)
(0.00526118 -0.000230691 0)
(0.00540072 3.51017e-07 0)
(0.00414407 0.00014129 0)
(0.00240677 0.000173888 0)
(0.000795592 0.000148451 0)
(-0.000452613 0.000114866 0)
(-0.00133062 7.82218e-05 0)
(-0.00192296 5.25919e-05 0)
(-0.00230942 3.49309e-05 0)
(-0.00255525 2.29669e-05 0)
(-0.00270562 1.47399e-05 0)
(-0.00279143 9.15797e-06 0)
(-0.00283339 5.31088e-06 0)
(-0.00284506 2.73322e-06 0)
(-0.00283522 6.81041e-07 0)
(-0.00280883 -8.76807e-07 0)
(-0.00276764 -2.3287e-06 0)
(-0.00271151 -3.90753e-06 0)
(-0.00264045 -5.61783e-06 0)
(-0.00255721 -7.1374e-06 0)
(-0.0024695 -7.89815e-06 0)
(-0.00238983 -7.35313e-06 0)
(-0.002333 -5.30253e-06 0)
(-0.00231256 -2.28124e-06 0)
(-0.00233806 2.20147e-06 0)
(-0.00241397 7.12823e-06 0)
(-0.00253963 1.21744e-05 0)
(-0.00270871 1.68949e-05 0)
(-0.00290707 2.05535e-05 0)
(-0.00310954 2.21489e-05 0)
(-0.00328037 2.0727e-05 0)
(-0.00337882 1.66987e-05 0)
(-0.00336561 8.94638e-06 0)
(-0.00320274 -3.01942e-06 0)
(-0.0028454 -2.05212e-05 0)
(-0.00224825 -4.41804e-05 0)
(-0.00139529 -7.07834e-05 0)
(-0.000317419 -9.58734e-05 0)
(0.000855991 -0.000102489 0)
(0.00188453 -9.1238e-05 0)
(0.00258679 -6.05717e-05 0)
(0.00276674 -1.57093e-05 0)
(0.00246948 2.47972e-05 0)
(0.00168943 5.92493e-05 0)
(0.000744707 7.30721e-05 0)
(-0.000331658 7.41129e-05 0)
(-0.00132665 6.78614e-05 0)
(-0.00203131 5.34016e-05 0)
(-0.00301166 3.94772e-05 0)
)
;
    }
    bottomWall
    {
        type            calculated;
        value           nonuniform List<vector> 
800
(
(-0.0353488 0.00214398 0)
(-0.0160263 0.000524844 0)
(-0.0106072 0.000100728 0)
(-0.008455 3.52713e-05 0)
(-0.00748489 1.98715e-05 0)
(-0.00685086 1.61328e-05 0)
(-0.00634292 1.33674e-05 0)
(-0.00593136 1.09109e-05 0)
(-0.00559618 9.08946e-06 0)
(-0.00531693 7.77343e-06 0)
(-0.00507903 6.77704e-06 0)
(-0.00487303 5.98996e-06 0)
(-0.00469247 5.35235e-06 0)
(-0.0045326 4.82678e-06 0)
(-0.00438985 4.38733e-06 0)
(-0.00426144 4.01548e-06 0)
(-0.00414519 3.69725e-06 0)
(-0.00403935 3.42225e-06 0)
(-0.00394251 3.18262e-06 0)
(-0.00385351 2.97232e-06 0)
(-0.00377139 2.78639e-06 0)
(-0.00369534 2.62112e-06 0)
(-0.00362468 2.47345e-06 0)
(-0.00355884 2.34069e-06 0)
(-0.00349732 2.2209e-06 0)
(-0.00343969 2.11232e-06 0)
(-0.00338558 2.01364e-06 0)
(-0.00333466 1.92353e-06 0)
(-0.00328666 1.84074e-06 0)
(-0.00324132 1.76484e-06 0)
(-0.00319842 1.69492e-06 0)
(-0.00315776 1.6302e-06 0)
(-0.00311917 1.57022e-06 0)
(-0.0030825 1.51445e-06 0)
(-0.0030476 1.46263e-06 0)
(-0.00301435 1.4142e-06 0)
(-0.00298263 1.36901e-06 0)
(-0.00295233 1.32668e-06 0)
(-0.00292337 1.28684e-06 0)
(-0.00289566 1.24941e-06 0)
(-0.00286912 1.21423e-06 0)
(-0.00284367 1.18118e-06 0)
(-0.00281925 1.14974e-06 0)
(-0.00279581 1.12008e-06 0)
(-0.00277327 1.09212e-06 0)
(-0.00275162 1.06529e-06 0)
(-0.00273076 1.04042e-06 0)
(-0.00271069 1.01587e-06 0)
(-0.00269134 9.93881e-07 0)
(-0.00267269 9.70198e-07 0)
(-0.00265712 9.50856e-07 0)
(-0.00264424 9.39897e-07 0)
(-0.00263155 9.25845e-07 0)
(-0.00261904 9.10929e-07 0)
(-0.00260673 8.96842e-07 0)
(-0.00259461 8.83337e-07 0)
(-0.00258267 8.70382e-07 0)
(-0.00257089 8.57663e-07 0)
(-0.0025593 8.45039e-07 0)
(-0.00254787 8.33004e-07 0)
(-0.0025366 8.21051e-07 0)
(-0.0025255 8.0934e-07 0)
(-0.00251455 7.98038e-07 0)
(-0.00250376 7.86809e-07 0)
(-0.00249311 7.75982e-07 0)
(-0.00248261 7.6539e-07 0)
(-0.00247225 7.54863e-07 0)
(-0.00246204 7.44732e-07 0)
(-0.00245196 7.34663e-07 0)
(-0.00244202 7.2482e-07 0)
(-0.00243221 7.15368e-07 0)
(-0.00242252 7.05805e-07 0)
(-0.00241297 6.96629e-07 0)
(-0.00240353 6.87673e-07 0)
(-0.00239422 6.78768e-07 0)
(-0.00238503 6.7008e-07 0)
(-0.00237596 6.61608e-07 0)
(-0.002367 6.53184e-07 0)
(-0.00235815 6.44972e-07 0)
(-0.00234941 6.37139e-07 0)
(-0.00234078 6.29184e-07 0)
(-0.00233226 6.21439e-07 0)
(-0.00232384 6.13735e-07 0)
(-0.00231552 6.06406e-07 0)
(-0.0023073 5.99118e-07 0)
(-0.00229919 5.91869e-07 0)
(-0.00229116 5.84991e-07 0)
(-0.00228323 5.77984e-07 0)
(-0.0022754 5.7118e-07 0)
(-0.00226765 5.64579e-07 0)
(-0.00226 5.58013e-07 0)
(-0.00225243 5.51647e-07 0)
(-0.00224495 5.45315e-07 0)
(-0.00223756 5.39015e-07 0)
(-0.00223025 5.3308e-07 0)
(-0.00222301 5.27009e-07 0)
(-0.00221587 5.21136e-07 0)
(-0.0022088 5.15459e-07 0)
(-0.0022018 5.09644e-07 0)
(-0.00219489 5.04192e-07 0)
(-0.00218805 4.98601e-07 0)
(-0.00218129 4.93203e-07 0)
(-0.00217459 4.88e-07 0)
(-0.00216797 4.82657e-07 0)
(-0.00216142 4.77674e-07 0)
(-0.00215493 4.72716e-07 0)
(-0.00214851 4.67617e-07 0)
(-0.00214217 4.62709e-07 0)
(-0.00213589 4.57992e-07 0)
(-0.00212967 4.53298e-07 0)
(-0.00212351 4.48628e-07 0)
(-0.00211742 4.44147e-07 0)
(-0.00211139 4.39687e-07 0)
(-0.00210542 4.35081e-07 0)
(-0.00209951 4.30829e-07 0)
(-0.00209366 4.26596e-07 0)
(-0.00208787 4.22383e-07 0)
(-0.00208213 4.18189e-07 0)
(-0.00207645 4.14012e-07 0)
(-0.00207083 4.10186e-07 0)
(-0.00206526 4.06211e-07 0)
(-0.00205974 4.02253e-07 0)
(-0.00205427 3.9831e-07 0)
(-0.00204887 3.9455e-07 0)
(-0.0020435 3.90806e-07 0)
(-0.0020382 3.87078e-07 0)
(-0.00203294 3.83532e-07 0)
(-0.00202773 3.8e-07 0)
(-0.00202256 3.76482e-07 0)
(-0.00201745 3.7298e-07 0)
(-0.00201238 3.69492e-07 0)
(-0.00200736 3.66186e-07 0)
(-0.00200238 3.62893e-07 0)
(-0.00199745 3.59448e-07 0)
(-0.00199257 3.56351e-07 0)
(-0.00198772 3.53266e-07 0)
(-0.00198292 3.50032e-07 0)
(-0.00197817 3.46806e-07 0)
(-0.00197345 3.43767e-07 0)
(-0.00196878 3.40898e-07 0)
(-0.00196415 3.38057e-07 0)
(-0.00195955 3.3504e-07 0)
(-0.001955 3.32069e-07 0)
(-0.00195048 3.29228e-07 0)
(-0.00194601 3.26638e-07 0)
(-0.00194156 3.2379e-07 0)
(-0.00193716 3.21097e-07 0)
(-0.0019328 3.18386e-07 0)
(-0.00192847 3.15755e-07 0)
(-0.00192418 3.12911e-07 0)
(-0.00192058 3.10448e-07 0)
(-0.00191763 3.09179e-07 0)
(-0.00191469 3.07646e-07 0)
(-0.00191173 3.05781e-07 0)
(-0.00190877 3.03737e-07 0)
(-0.00190582 3.02189e-07 0)
(-0.00190285 3.00439e-07 0)
(-0.00189989 2.98683e-07 0)
(-0.00189691 2.97167e-07 0)
(-0.00189394 2.95207e-07 0)
(-0.00189096 2.9348e-07 0)
(-0.00188798 2.91986e-07 0)
(-0.00188499 2.90288e-07 0)
(-0.001882 2.88583e-07 0)
(-0.00187901 2.86904e-07 0)
(-0.00187601 2.85222e-07 0)
(-0.00187301 2.83553e-07 0)
(-0.00187001 2.81891e-07 0)
(-0.00186701 2.80241e-07 0)
(-0.001864 2.78601e-07 0)
(-0.00186099 2.76968e-07 0)
(-0.00185797 2.75344e-07 0)
(-0.00185495 2.73943e-07 0)
(-0.00185193 2.72331e-07 0)
(-0.0018489 2.70537e-07 0)
(-0.00184587 2.68947e-07 0)
(-0.00184284 2.67368e-07 0)
(-0.00183981 2.658e-07 0)
(-0.00183677 2.64238e-07 0)
(-0.00183373 2.62685e-07 0)
(-0.00183069 2.61149e-07 0)
(-0.00182764 2.59607e-07 0)
(-0.00182459 2.58087e-07 0)
(-0.00182154 2.56566e-07 0)
(-0.00181848 2.55057e-07 0)
(-0.00181542 2.53557e-07 0)
(-0.00181236 2.52063e-07 0)
(-0.00180929 2.50389e-07 0)
(-0.00180623 2.4892e-07 0)
(-0.00180316 2.47443e-07 0)
(-0.00180008 2.45992e-07 0)
(-0.00179701 2.44535e-07 0)
(-0.00179393 2.43088e-07 0)
(-0.00179085 2.41651e-07 0)
(-0.00178776 2.40047e-07 0)
(-0.00178468 2.38626e-07 0)
(-0.00178159 2.37212e-07 0)
(-0.0017785 2.35632e-07 0)
(-0.00177541 2.34247e-07 0)
(-0.00177231 2.33018e-07 0)
(-0.00176921 2.31648e-07 0)
(-0.00176611 2.30102e-07 0)
(-0.001763 2.28573e-07 0)
(-0.0017599 2.2722e-07 0)
(-0.00175679 2.26039e-07 0)
(-0.00175368 2.24532e-07 0)
(-0.00175057 2.23214e-07 0)
(-0.00174745 2.2188e-07 0)
(-0.00174433 2.20421e-07 0)
(-0.00174121 2.19269e-07 0)
(-0.00173808 2.17818e-07 0)
(-0.00173496 2.16528e-07 0)
(-0.00173182 2.15252e-07 0)
(-0.00172869 2.13979e-07 0)
(-0.00172555 2.12742e-07 0)
(-0.00172242 2.11317e-07 0)
(-0.00171928 2.10248e-07 0)
(-0.00171613 2.0901e-07 0)
(-0.00171298 2.07794e-07 0)
(-0.00170983 2.0658e-07 0)
(-0.00170667 2.05234e-07 0)
(-0.00170352 2.04192e-07 0)
(-0.00170035 2.03158e-07 0)
(-0.00169719 2.01849e-07 0)
(-0.00169402 2.00701e-07 0)
(-0.00169085 1.99699e-07 0)
(-0.00168767 1.98688e-07 0)
(-0.00168448 1.97618e-07 0)
(-0.0016813 1.96406e-07 0)
(-0.0016781 1.95612e-07 0)
(-0.00167491 1.94382e-07 0)
(-0.0016717 1.93737e-07 0)
(-0.0016685 1.92414e-07 0)
(-0.00166527 1.92152e-07 0)
(-0.00166207 1.89968e-07 0)
(-0.0016588 1.91171e-07 0)
(-0.00165562 1.87297e-07 0)
(-0.00165229 1.91353e-07 0)
(-0.00164916 1.83262e-07 0)
(-0.00164571 1.93771e-07 0)
(-0.00164271 1.76181e-07 0)
(-0.00163902 2.01402e-07 0)
(-0.0016363 1.62651e-07 0)
(-0.00163215 2.18813e-07 0)
(-0.00163 1.35828e-07 0)
(-0.00162502 2.54577e-07 0)
(-0.00162387 8.5413e-08 0)
(-0.00161761 3.18256e-07 0)
(-0.00161788 5.48406e-09 0)
(-0.00160996 3.49885e-07 0)
(-0.0353489 -0.00214396 0)
(-0.0160272 -0.000524802 0)
(-0.0106094 -0.000100672 0)
(-0.0084589 -3.52136e-05 0)
(-0.00749077 -1.98094e-05 0)
(-0.00685884 -1.60655e-05 0)
(-0.00635323 -1.32958e-05 0)
(-0.00594406 -1.08367e-05 0)
(-0.00561131 -9.01255e-06 0)
(-0.00533453 -7.69393e-06 0)
(-0.00509915 -6.69519e-06 0)
(-0.00489569 -5.90584e-06 0)
(-0.00471769 -5.26556e-06 0)
(-0.00456044 -4.73713e-06 0)
(-0.00442034 -4.29462e-06 0)
(-0.00429464 -3.9191e-06 0)
(-0.00418116 -3.5969e-06 0)
(-0.00407817 -3.3174e-06 0)
(-0.00398427 -3.07249e-06 0)
(-0.00389833 -2.85611e-06 0)
(-0.0038194 -2.66323e-06 0)
(-0.00374671 -2.49003e-06 0)
(-0.00367958 -2.33333e-06 0)
(-0.00361748 -2.19048e-06 0)
(-0.00355993 -2.05952e-06 0)
(-0.00350652 -1.93847e-06 0)
(-0.00345691 -1.82608e-06 0)
(-0.00341079 -1.72103e-06 0)
(-0.00336793 -1.62213e-06 0)
(-0.00332808 -1.5288e-06 0)
(-0.00329105 -1.43999e-06 0)
(-0.00325667 -1.35549e-06 0)
(-0.0032248 -1.27367e-06 0)
(-0.00319529 -1.19607e-06 0)
(-0.00316803 -1.11958e-06 0)
(-0.00314292 -1.04784e-06 0)
(-0.00311985 -9.74886e-07 0)
(-0.00309879 -9.09033e-07 0)
(-0.00307946 -8.3915e-07 0)
(-0.00306224 -7.78416e-07 0)
(-0.00304606 -7.14762e-07 0)
(-0.00303286 -6.50684e-07 0)
(-0.00301859 -6.11674e-07 0)
(-0.00301075 -5.05305e-07 0)
(-0.00299513 -5.63293e-07 0)
(-0.00299745 -2.62086e-07 0)
(-0.00297173 -7.07684e-07 0)
(-0.00299731 5.66328e-07 0)
(-0.00294812 -6.47245e-06 0)
(-0.002809 0.000197979 0)
(4.45279e-05 -3.06475e-06 0)
(4.56333e-05 -2.94973e-05 0)
(1.59674e-05 -7.48834e-06 0)
(-7.58965e-05 0.000109388 0)
(-0.000178511 0.000342538 0)
(-0.000212899 0.000616211 0)
(-0.000201867 0.000855728 0)
(-0.000188709 0.00106858 0)
(-0.000167673 0.00125416 0)
(-0.000134159 0.00140195 0)
(-8.55025e-05 0.00149385 0)
(-3.17411e-05 0.00151853 0)
(1.08307e-05 0.00148332 0)
(3.63216e-05 0.00141436 0)
(4.87553e-05 0.00132828 0)
(5.23319e-05 0.0012385 0)
(5.22308e-05 0.00115013 0)
(5.14943e-05 0.00106453 0)
(5.20402e-05 0.000980464 0)
(5.46283e-05 0.000895743 0)
(5.94214e-05 0.000807997 0)
(6.61345e-05 0.000715147 0)
(7.43706e-05 0.00061556 0)
(8.36338e-05 0.000508078 0)
(9.33891e-05 0.000392177 0)
(0.000103256 0.000267917 0)
(0.000113015 0.000135052 0)
(0.000121305 -5.90577e-06 0)
(0.000128915 -0.000153014 0)
(0.000135373 -0.000304937 0)
(0.000140655 -0.000460795 0)
(0.000144627 -0.000619397 0)
(0.000147257 -0.000779542 0)
(0.000148532 -0.000940045 0)
(0.000148448 -0.00109974 0)
(0.000147003 -0.0012575 0)
(0.000144196 -0.00141224 0)
(0.000140024 -0.00156289 0)
(0.000134481 -0.00170845 0)
(0.000127566 -0.00184796 0)
(0.000119295 -0.00198045 0)
(0.000109704 -0.00210508 0)
(9.88043e-05 -0.00222105 0)
(8.6521e-05 -0.0023276 0)
(7.2763e-05 -0.00242393 0)
(5.76549e-05 -0.00250924 0)
(4.11906e-05 -0.00258306 0)
(2.27361e-05 -0.00264469 0)
(2.09458e-06 -0.00269283 0)
(-2.03906e-05 -0.00272698 0)
(-4.62618e-05 -0.00274657 0)
(-7.69969e-05 -0.00274839 0)
(-0.000112003 -0.00273084 0)
(-0.000151126 -0.00269245 0)
(-0.000194631 -0.00263092 0)
(-0.000241529 -0.00254423 0)
(-0.000290611 -0.00243101 0)
(-0.000340266 -0.0022899 0)
(-0.000387294 -0.00211943 0)
(-0.000425083 -0.00191893 0)
(-0.000442652 -0.00169198 0)
(-0.000428437 -0.0014479 0)
(-0.000377736 -0.00120229 0)
(-0.000295927 -0.000973289 0)
(-0.00019846 -0.000774823 0)
(-0.000102812 -0.000610598 0)
(-1.82725e-05 -0.000477971 0)
(5.60341e-05 -0.000374196 0)
(0.000123621 -0.000299691 0)
(0.000184722 -0.000255742 0)
(0.000235143 -0.000241735 0)
(0.000268514 -0.000254288 0)
(0.000283792 -0.000285811 0)
(0.000282379 -0.000331357 0)
(0.000266312 -0.000385137 0)
(0.000240392 -0.00044174 0)
(0.000212244 -0.000498849 0)
(0.000189924 -0.000559516 0)
(0.000176172 -0.000630036 0)
(0.000167277 -0.000713038 0)
(0.000158795 -0.000803016 0)
(0.000151182 -0.000895133 0)
(0.000144708 -0.000986478 0)
(0.000136564 -0.00107502 0)
(0.000124811 -0.00115636 0)
(0.000110785 -0.00122626 0)
(9.75635e-05 -0.0012835 0)
(8.72339e-05 -0.00132978 0)
(8.00329e-05 -0.0013681 0)
(7.48556e-05 -0.00140127 0)
(7.00105e-05 -0.00143113 0)
(6.39711e-05 -0.00145817 0)
(5.60153e-05 -0.00148168 0)
(4.64479e-05 -0.00150059 0)
(3.62546e-05 -0.0015142 0)
(2.65063e-05 -0.00152278 0)
(1.77764e-05 -0.00152663 0)
(1.02154e-05 -0.00152633 0)
(3.46126e-06 -0.0015225 0)
(-3.03388e-06 -0.00151535 0)
(-9.57588e-06 -0.00150493 0)
(-1.62408e-05 -0.00149126 0)
(-2.2917e-05 -0.00147449 0)
(-2.94089e-05 -0.00145486 0)
(-3.55072e-05 -0.00143269 0)
(-4.10382e-05 -0.00140835 0)
(-4.59266e-05 -0.00138218 0)
(-5.01886e-05 -0.00135453 0)
(-5.39318e-05 -0.00132566 0)
(-5.73464e-05 -0.00129567 0)
(-6.0682e-05 -0.00126457 0)
(-6.42471e-05 -0.00123221 0)
(-6.837e-05 -0.00119837 0)
(-7.34564e-05 -0.00116279 0)
(-7.99949e-05 -0.00112511 0)
(-8.85608e-05 -0.00108483 0)
(-9.97755e-05 -0.00104128 0)
(-0.000114204 -0.000993623 0)
(-0.000132146 -0.000940565 0)
(-0.000153477 -0.00088073 0)
(-0.000177489 -0.000812944 0)
(-0.000202873 -0.000736513 0)
(-0.000227976 -0.000651793 0)
(-0.000251226 -0.000560328 0)
(-0.000271607 -0.000464506 0)
(-0.000288851 -0.00036681 0)
(-0.000303185 -0.000269071 0)
(-0.000314994 -0.000172231 0)
(-0.000324358 -7.6496e-05 0)
(-0.000330957 1.79597e-05 0)
(-0.000334504 0.00011064 0)
(-0.000334922 0.000200964 0)
(-0.000332399 0.000288439 0)
(-0.000326961 0.000372472 0)
(-0.000318673 0.000452367 0)
(-0.000307851 0.000527647 0)
(-0.000294807 0.000597959 0)
(-0.000279835 0.000663032 0)
(-0.000263199 0.000722672 0)
(-0.000245127 0.000776736 0)
(-0.00022582 0.000825128 0)
(-0.000205444 0.000867779 0)
(-0.000184152 0.000904649 0)
(-0.00016207 0.00093572 0)
(-0.000139323 0.000960983 0)
(-0.000116043 0.000980439 0)
(-9.23737e-05 0.00099412 0)
(-6.84386e-05 0.00100209 0)
(-4.43293e-05 0.00100446 0)
(-2.01671e-05 0.00100132 0)
(3.97811e-06 0.000992869 0)
(2.81121e-05 0.000979215 0)
(5.21771e-05 0.000960453 0)
(7.6112e-05 0.00093669 0)
(9.98361e-05 0.000908045 0)
(0.000123249 0.000874649 0)
(0.000146227 0.000836651 0)
(0.000168624 0.000794222 0)
(0.000190278 0.000747552 0)
(0.000211014 0.000696859 0)
(0.000230634 0.000642328 0)
(0.000249165 0.000584928 0)
(0.000266424 0.000525 0)
(0.000282035 0.000462315 0)
(0.000295782 0.000397045 0)
(0.000307329 0.000329373 0)
(0.000316279 0.000259598 0)
(0.000322179 0.000188156 0)
(0.000324604 0.000115721 0)
(0.000323163 4.31749e-05 0)
(0.000317623 -2.84247e-05 0)
(0.000307951 -9.79825e-05 0)
(0.000294296 -0.000164532 0)
(0.000276987 -0.00022737 0)
(0.000256241 -0.000285989 0)
(0.000233734 -0.000341818 0)
(0.000208052 -0.000392519 0)
(0.000179617 -0.000437547 0)
(0.000148865 -0.000476409 0)
(0.000116362 -0.000508685 0)
(8.27507e-05 -0.000534116 0)
(4.86904e-05 -0.000552585 0)
(1.4874e-05 -0.000564088 0)
(-1.80411e-05 -0.00056873 0)
(-4.9495e-05 -0.000566694 0)
(-7.87059e-05 -0.000558305 0)
(-0.000105033 -0.000544094 0)
(-0.000128229 -0.000525355 0)
(-0.000147621 -0.00050177 0)
(-0.00016288 -0.00047423 0)
(-0.000173867 -0.000443727 0)
(-0.000180678 -0.000411484 0)
(-0.000183784 -0.000379335 0)
(-0.000184452 -0.000350671 0)
(-0.000185682 -0.00033222 0)
(-0.00019463 -0.000337942 0)
(-0.000226735 -0.000391889 0)
(-0.000314462 -0.000530932 0)
(-0.000500827 -0.000791439 0)
(-0.000798685 -0.00116758 0)
(2.65693e-05 -2.21099e-05 0)
(2.81103e-05 6.16539e-05 0)
(-9.23464e-05 0.000146398 0)
(-0.000268724 0.000193893 0)
(-0.000462924 0.000205698 0)
(-0.000649652 0.000192794 0)
(-0.000816144 0.000166346 0)
(-0.000957044 0.000133154 0)
(-0.00107047 9.62119e-05 0)
(-0.00115472 5.61549e-05 0)
(-0.0012078 1.39845e-05 0)
(-0.00122971 -3.09489e-05 0)
(-0.00121464 -7.80948e-05 0)
(-0.00116218 -0.000123622 0)
(-0.0010739 -0.000161548 0)
(-0.000955045 -0.000184954 0)
(-0.000816158 -0.000188208 0)
(-0.000671689 -0.000168548 0)
(-0.000537858 -0.000128504 0)
(-0.000429212 -7.78838e-05 0)
(-0.000353723 -3.42329e-05 0)
(-0.00030742 -1.70866e-05 0)
(-0.000266765 -3.36109e-05 0)
(-0.000205296 -5.6966e-05 0)
(-0.000141446 -4.24202e-05 0)
(-0.000129435 1.03969e-05 0)
(-0.000178756 5.35784e-05 0)
(-0.00024854 5.63716e-05 0)
(-0.000304233 3.46464e-05 0)
(-0.000337569 1.2639e-05 0)
(-0.000352836 4.8374e-07 0)
(-0.000357904 -2.84335e-06 0)
(-0.000358253 -1.66468e-06 0)
(-0.000357383 -5.37357e-08 0)
(-0.000354924 1.65707e-06 0)
(-0.000350411 6.42461e-06 0)
(-0.000344957 1.17355e-05 0)
(-0.000343504 8.38486e-06 0)
(-0.000345295 -1.1621e-05 0)
(-0.000321734 -3.95035e-05 0)
(-0.000252052 -4.97821e-05 0)
(-0.000175441 -3.99141e-05 0)
(-0.000119779 -2.3706e-05 0)
(-8.15963e-05 -9.33826e-06 0)
(-5.25323e-05 3.25953e-06 0)
(-2.54523e-05 1.43804e-05 0)
(3.58121e-06 2.11325e-05 0)
(3.5842e-05 9.82644e-06 0)
(8.04239e-05 -2.70455e-05 0)
(0.000147913 -6.90542e-05 0)
(0.000230548 -9.54497e-05 0)
(0.000314294 -0.000102882 0)
(0.000391018 -9.93228e-05 0)
(0.000459665 -9.35503e-05 0)
(0.000522907 -8.96479e-05 0)
(0.000582456 -8.69702e-05 0)
(0.000638466 -8.38201e-05 0)
(0.000690087 -7.93303e-05 0)
(0.000736526 -7.36747e-05 0)
(0.000777404 -6.73774e-05 0)
(0.000812466 -6.07421e-05 0)
(0.000841486 -5.3853e-05 0)
(0.00086421 -4.66454e-05 0)
(0.000880339 -3.91138e-05 0)
(0.000889544 -3.09703e-05 0)
(0.000891364 -2.20584e-05 0)
(0.000885347 -1.2414e-05 0)
(0.000871017 -1.92181e-06 0)
(0.000847689 9.69366e-06 0)
(0.000814438 2.26301e-05 0)
(0.000770245 3.70293e-05 0)
(0.000713979 5.29519e-05 0)
(0.000644523 7.02569e-05 0)
(0.00056094 8.85608e-05 0)
(0.000462653 0.000107186 0)
(0.000349707 0.00012508 0)
(0.000223246 0.000140817 0)
(8.53109e-05 0.000152987 0)
(-6.05094e-05 0.000158727 0)
(-0.000207669 0.000155954 0)
(-0.000348575 0.000143274 0)
(-0.000474419 0.000119807 0)
(-0.000575489 8.65042e-05 0)
(-0.000643678 4.6326e-05 0)
(-0.00067432 3.81996e-06 0)
(-0.000667524 -3.63011e-05 0)
(-0.000628016 -6.88966e-05 0)
(-0.000565518 -9.03383e-05 0)
(-0.000490553 -9.9306e-05 0)
(-0.00041332 -9.67433e-05 0)
(-0.000341122 -8.53326e-05 0)
(-0.000277781 -7.02468e-05 0)
(-0.000224349 -5.63465e-05 0)
(-0.000182383 -4.95547e-05 0)
(-0.000146247 -5.41217e-05 0)
(-9.88149e-05 -5.55309e-05 0)
(-4.67225e-05 -3.76255e-05 0)
(-1.2826e-05 -1.35341e-05 0)
(3.4228e-07 2.57229e-06 0)
(-1.16888e-06 1.16796e-05 0)
(5.81725e-06 1.12678e-05 0)
(-1.64466e-05 -8.41798e-06 0)
(-2.08921e-05 -6.29589e-05 0)
(-9.08948e-06 -0.000105005 0)
(3.05988e-06 -0.000123321 0)
(3.66526e-06 -0.000128241 0)
(-4.37045e-06 -0.000142196 0)
(-7.94279e-06 -0.000172035 0)
(2.60148e-06 -0.000205658 0)
(2.83456e-05 -0.000221959 0)
(6.42523e-05 -0.000202516 0)
(0.000101254 -0.000136206 0)
(0.00012701 -1.97385e-05 0)
(0.000125525 0.000141246 0)
(7.67235e-05 0.000320663 0)
(-1.18645e-05 0.00045234 0)
(-7.55655e-05 0.000461291 0)
(-4.0802e-05 0.000390429 0)
(9.57789e-05 0.000397678 0)
(0.000212585 0.000605169 0)
(0.000115873 0.000841822 0)
(-0.000205587 0.000743084 0)
(-0.00047828 0.000284199 0)
(-0.000508793 -0.000282805 0)
(-0.00041606 -0.000767386 0)
(-0.000296555 -0.00113083 0)
(-0.000168335 -0.00138719 0)
(-3.33937e-05 -0.0015259 0)
(0.000105439 -0.00154668 0)
(0.00024021 -0.0014411 0)
(0.00034717 -0.00121426 0)
(0.00039048 -0.000893262 0)
(0.00034741 -0.000545475 0)
(0.00023554 -0.000253817 0)
(0.000105839 -7.54972e-05 0)
(1.34812e-05 5.87196e-06 0)
(-1.71449e-05 3.32674e-05 0)
(4.1745e-07 3.54259e-05 0)
(1.22002e-05 2.57623e-05 0)
(-4.90568e-06 2.33449e-05 0)
(-5.81602e-05 1.47596e-05 0)
(-5.68065e-05 -1.32125e-05 0)
(3.21878e-05 -1.31344e-05 0)
(8.0106e-05 2.08827e-05 0)
(3.89836e-06 -2.26815e-05 0)
(-9.78993e-05 -0.000105799 0)
(-0.000248478 -9.51698e-05 0)
(-0.000468496 -6.24317e-05 0)
(-0.000577919 -0.00013148 0)
(-0.000434991 -0.000233791 0)
(-5.57173e-05 -0.000224013 0)
(0.000480374 2.60527e-05 0)
(0.000753671 0.000571886 0)
(0.000454805 0.000974098 0)
(0.000220705 0.00104008 0)
(0.00023773 0.00111683 0)
(0.000197714 0.00126543 0)
(0.000158812 0.00135352 0)
(0.000151811 0.00143951 0)
(0.000127459 0.00152264 0)
(0.00011531 0.00158729 0)
(0.000104341 0.00165109 0)
(9.28757e-05 0.00170665 0)
(8.56425e-05 0.00175684 0)
(7.77067e-05 0.00180375 0)
(7.13684e-05 0.0018458 0)
(6.55489e-05 0.00188502 0)
(5.98422e-05 0.00192099 0)
(5.45795e-05 0.00195411 0)
(4.91627e-05 0.00198483 0)
(4.37505e-05 0.00201308 0)
(3.8193e-05 0.00203925 0)
(3.24723e-05 0.00206357 0)
(2.6719e-05 0.00208643 0)
(2.10793e-05 0.00210837 0)
(1.58864e-05 0.00213007 0)
(1.15756e-05 0.0021524 0)
(8.74729e-06 0.00217659 0)
(8.12581e-06 0.00220337 0)
(1.05142e-05 0.00223353 0)
(1.66895e-05 0.00226758 0)
(2.72107e-05 0.00230571 0)
(4.22015e-05 0.00234789 0)
(6.10651e-05 0.00239396 0)
(8.22764e-05 0.00244368 0)
(0.000103433 0.00249654 0)
(0.000121506 0.00255162 0)
(0.00013338 0.00260738 0)
(0.000136611 0.00266176 0)
(0.000130091 0.00271239 0)
(0.000114363 0.00275723 0)
(9.15201e-05 0.00279502 0)
(6.46849e-05 0.00282614 0)
(3.7467e-05 0.00285158 0)
(1.36302e-05 0.00287342 0)
(-2.98206e-06 0.00289423 0)
(-8.26267e-06 0.00291683 0)
(2.28827e-06 0.00294409 0)
(3.33976e-05 0.00297909 0)
(8.91781e-05 0.00302547 0)
(0.000170791 0.00308848 0)
(0.000271734 0.00317608 0)
(0.000373385 0.00329942 0)
(0.000445705 0.00345562 0)
(0.000461544 0.0036252 0)
(0.00041718 0.00377499 0)
(0.000338665 0.00388025 0)
(0.000261132 0.00394315 0)
(0.000201124 0.00398498 0)
(0.000152507 0.00402151 0)
(0.000105443 0.00405201 0)
(6.09723e-05 0.00407364 0)
(2.62919e-05 0.00408508 0)
(4.31097e-06 0.00409411 0)
(-7.67547e-06 0.00410618 0)
(-1.19625e-05 0.00412206 0)
(-7.74184e-06 0.00414201 0)
(6.55357e-06 0.00416824 0)
(3.11851e-05 0.00420356 0)
(6.57245e-05 0.00424965 0)
(0.000110031 0.00430759 0)
(0.000163821 0.00437874 0)
(0.000226038 0.00446452 0)
(0.000294828 0.00456541 0)
(0.0003678 0.00468173 0)
(0.000442155 0.00481412 0)
(0.000514754 0.00496206 0)
(0.000582465 0.00512389 0)
(0.000642488 0.00529742 0)
(0.000692519 0.00548032 0)
(0.000730855 0.00567053 0)
(0.000756474 0.00586594 0)
(0.000768923 0.00606284 0)
(0.000768736 0.00625798 0)
(0.000757516 0.00644833 0)
(0.00073773 0.00663133 0)
(0.000712145 0.00680523 0)
(0.000683145 0.00696919 0)
(0.000652236 0.00712381 0)
(0.000619719 0.00726917 0)
(0.000585027 0.00740526 0)
(0.00054725 0.00753202 0)
(0.000505494 0.00764906 0)
(0.000459138 0.00775544 0)
(0.000407954 0.00785001 0)
(0.000352106 0.00793153 0)
(0.000292121 0.007999 0)
(0.000228735 0.00805165 0)
(0.000162674 0.008089 0)
(9.45324e-05 0.00811071 0)
(2.49701e-05 0.0081166 0)
(-4.50178e-05 0.00810706 0)
(-0.000113362 0.00809497 0)
(-0.000181428 0.00807042 0)
(-0.000250205 0.00803194 0)
(-0.000318549 0.00798022 0)
(-0.000386944 0.00791538 0)
(-0.000455087 0.00783751 0)
(-0.000522961 0.00774707 0)
(-0.000590571 0.00764424 0)
(-0.000657794 0.00752945 0)
(-0.000724616 0.00740308 0)
(-0.000790989 0.00726555 0)
(-0.00085691 0.00711732 0)
(-0.000922344 0.00695884 0)
(-0.000987316 0.00679061 0)
(-0.00105186 0.00661308 0)
(-0.00111603 0.00642676 0)
(-0.00117997 0.00623212 0)
(-0.00124379 0.00602961 0)
(-0.00130764 0.00581968 0)
(-0.00137175 0.00560276 0)
(-0.00143637 0.00537923 0)
(-0.00150177 0.00514946 0)
(-0.00156832 0.00491379 0)
(-0.00163639 0.0046725 0)
(-0.00170643 0.00442579 0)
(-0.00177888 0.00417377 0)
(-0.00185415 0.00391657 0)
(-0.00193269 0.00365438 0)
(-0.00201521 0.00338726 0)
(-0.00210281 0.0031151 0)
(-0.00219599 0.00283661 0)
(-0.00233547 0.00259816 0)
(-0.00250107 0.00236058 0)
(-0.00268983 0.00211106 0)
(-0.00289942 0.0018416 0)
(-0.00312299 0.00154564 0)
(-0.00334882 0.00122002 0)
(-0.00356038 0.000866984 0)
(-0.00375689 0.000496594 0)
(-0.00394053 0.000117445 0)
(-0.00411179 -0.000261087 0)
(-0.00428507 -0.000627493 0)
(-0.00448098 -0.00100729 0)
(-0.00470778 -0.00132318 0)
(-0.00504313 -0.00182463 0)
(-0.00540165 -0.00200158 0)
(-0.00590534 -0.00294854 0)
(-0.00583422 -0.00232376 0)
)
;
    }
    frontAndBack
    {
        type            empty;
    }
}


// ************************************************************************* //
