/*--------------------------------*- C++ -*----------------------------------*\
  =========                 |
  \\      /  F ield         | OpenFOAM: The Open Source CFD Toolbox
   \\    /   O peration     | Website:  https://openfoam.org
    \\  /    A nd           | Version:  7
     \\/     M anipulation  |
\*---------------------------------------------------------------------------*/
FoamFile
{
    version     2.0;
    format      ascii;
    class       volVectorField;
    location    "0.37";
    object      ddt0(U);
}
// * * * * * * * * * * * * * * * * * * * * * * * * * * * * * * * * * * * * * //

dimensions      [0 1 -2 0 0 0 0];

internalField   nonuniform List<vector> 
70000
(
(-0.00120372 8.22817e-05 0)
(-0.00730713 0.000107648 0)
(-0.0139176 0.000104584 0)
(-0.0188731 9.19052e-05 0)
(-0.0225996 8.57373e-05 0)
(-0.0257604 8.15965e-05 0)
(-0.0287462 8.06074e-05 0)
(-0.0319113 8.20776e-05 0)
(-0.0354796 8.52679e-05 0)
(-0.0395398 8.99989e-05 0)
(-0.0440873 9.56804e-05 0)
(-0.0490513 0.000101958 0)
(-0.0543315 0.000108202 0)
(-0.0598288 0.000114082 0)
(-0.0654673 0.00011962 0)
(-0.0712049 0.000125072 0)
(-0.0770348 0.000130939 0)
(-0.0829767 0.000137391 0)
(-0.0890643 0.000144874 0)
(-0.0953369 0.000153378 0)
(-0.101834 0.000163071 0)
(-0.108593 0.000173797 0)
(-0.115647 0.000185771 0)
(-0.123032 0.000198811 0)
(-0.130792 0.000213362 0)
(-0.138974 0.000229295 0)
(-0.147641 0.000247507 0)
(-0.156869 0.000267989 0)
(-0.166748 0.000291851 0)
(-0.177395 0.000319528 0)
(-0.188936 0.000351982 0)
(-0.201547 0.000390214 0)
(-0.215392 0.000436187 0)
(-0.230757 0.000490938 0)
(-0.247886 0.000558682 0)
(-0.267245 0.00063949 0)
(-0.289277 0.000744816 0)
(-0.314686 0.00086858 0)
(-0.344494 0.00104328 0)
(-0.379607 0.001242 0)
(-0.422508 0.00154764 0)
(-0.474336 0.00189699 0)
(-0.540405 0.00253012 0)
(-0.623494 0.00332136 0)
(-0.733291 0.00389502 0)
(-0.877845 0.00531855 0)
(-1.08346 0.0079179 0)
(-1.33338 0.00940927 0)
(-1.89371 0.0119236 0)
(-1.83806 0.0881833 0)
(-0.000833703 0.000397417 0)
(-0.0114395 0.000676683 0)
(-0.0251373 0.000622872 0)
(-0.0344677 0.000459457 0)
(-0.0394214 0.000350724 0)
(-0.0422723 0.000310864 0)
(-0.0445003 0.000320528 0)
(-0.0471934 0.000365952 0)
(-0.0510475 0.000430649 0)
(-0.0563319 0.000501176 0)
(-0.0629904 0.000567028 0)
(-0.0707551 0.000622024 0)
(-0.0792743 0.00066405 0)
(-0.0882213 0.000694558 0)
(-0.0973543 0.000717544 0)
(-0.106536 0.000737458 0)
(-0.115723 0.000758934 0)
(-0.124936 0.000784374 0)
(-0.134228 0.000815554 0)
(-0.143657 0.000852899 0)
(-0.153284 0.000896333 0)
(-0.163163 0.000945562 0)
(-0.173347 0.00100114 0)
(-0.183894 0.00106338 0)
(-0.194885 0.00113418 0)
(-0.20641 0.00121457 0)
(-0.218582 0.00130777 0)
(-0.231542 0.00141577 0)
(-0.245443 0.0015425 0)
(-0.26048 0.00169124 0)
(-0.27685 0.00186727 0)
(-0.294849 0.00207449 0)
(-0.31469 0.00232371 0)
(-0.336866 0.00262069 0)
(-0.361663 0.00298666 0)
(-0.389901 0.00343031 0)
(-0.422156 0.0039986 0)
(-0.459593 0.00469835 0)
(-0.503908 0.00564282 0)
(-0.556232 0.00681695 0)
(-0.621423 0.00849379 0)
(-0.700052 0.0106025 0)
(-0.803128 0.0137954 0)
(-0.93332 0.0178777 0)
(-1.10971 0.0254327 0)
(-1.34608 0.0334048 0)
(-1.69264 0.0480779 0)
(-2.10454 0.0738799 0)
(-3.13158 0.0883456 0)
(-3.22344 0.312445 0)
(6.21346e-05 0.000762587 0)
(-0.0102153 0.00148471 0)
(-0.0267767 0.0014231 0)
(-0.0394478 0.000934289 0)
(-0.0451997 0.000539699 0)
(-0.0463547 0.00037014 0)
(-0.0455289 0.00036978 0)
(-0.0447751 0.000485879 0)
(-0.0454814 0.000666292 0)
(-0.0483122 0.000865059 0)
(-0.0533231 0.00104667 0)
(-0.0601569 0.00119095 0)
(-0.0682652 0.00129201 0)
(-0.0771044 0.00135551 0)
(-0.0862524 0.00139379 0)
(-0.0954444 0.00141987 0)
(-0.104557 0.00144571 0)
(-0.113563 0.00147765 0)
(-0.122484 0.00151971 0)
(-0.131352 0.0015725 0)
(-0.140209 0.00163612 0)
(-0.14909 0.00171011 0)
(-0.158047 0.00179609 0)
(-0.167141 0.00189543 0)
(-0.176472 0.0020126 0)
(-0.186155 0.0021499 0)
(-0.196338 0.00231402 0)
(-0.207194 0.00250839 0)
(-0.218908 0.00274058 0)
(-0.231709 0.00301581 0)
(-0.245803 0.00334474 0)
(-0.261527 0.00373246 0)
(-0.279069 0.00420091 0)
(-0.298981 0.0047585 0)
(-0.321487 0.00544808 0)
(-0.347492 0.00628609 0)
(-0.377534 0.0073595 0)
(-0.412772 0.00869751 0)
(-0.455195 0.0104932 0)
(-0.505427 0.0127758 0)
(-0.569656 0.0160157 0)
(-0.646877 0.0201759 0)
(-0.751213 0.0263958 0)
(-0.882803 0.0344367 0)
(-1.06605 0.0479511 0)
(-1.31224 0.0668275 0)
(-1.6885 0.0955101 0)
(-2.11008 0.154467 0)
(-3.2687 0.2144 0)
(-3.46654 0.562043 0)
(0.000478988 0.00103119 0)
(-0.0074079 0.00229809 0)
(-0.0235958 0.00241055 0)
(-0.0389235 0.0016158 0)
(-0.0473883 0.000786248 0)
(-0.0491198 0.000315919 0)
(-0.0466106 0.000197047 0)
(-0.0426509 0.000343145 0)
(-0.0394812 0.000650874 0)
(-0.0384552 0.0010208 0)
(-0.0400582 0.00137243 0)
(-0.0441179 0.00165667 0)
(-0.0500856 0.00185571 0)
(-0.0573107 0.00197689 0)
(-0.0652279 0.00204239 0)
(-0.0734327 0.00207679 0)
(-0.0816856 0.00210198 0)
(-0.089858 0.00213022 0)
(-0.0978913 0.00216859 0)
(-0.105743 0.00221869 0)
(-0.113388 0.00228117 0)
(-0.120811 0.00235651 0)
(-0.128031 0.00244831 0)
(-0.135091 0.00256041 0)
(-0.142095 0.00270077 0)
(-0.149176 0.00287414 0)
(-0.15651 0.00309082 0)
(-0.164305 0.00335617 0)
(-0.172774 0.00368111 0)
(-0.182181 0.00407219 0)
(-0.192742 0.00454542 0)
(-0.204819 0.00510587 0)
(-0.21859 0.00578678 0)
(-0.234619 0.00659879 0)
(-0.253105 0.00760527 0)
(-0.274916 0.00883355 0)
(-0.300634 0.0104034 0)
(-0.331191 0.0123833 0)
(-0.368896 0.0150215 0)
(-0.413658 0.0184383 0)
(-0.472607 0.0232605 0)
(-0.543183 0.0295578 0)
(-0.641371 0.039092 0)
(-0.7647 0.0518047 0)
(-0.941257 0.0703862 0)
(-1.17387 0.105988 0)
(-1.55021 0.143504 0)
(-1.94256 0.239903 0)
(-3.07813 0.330921 0)
(-3.43681 0.798139 0)
(0.000355881 0.00120417 0)
(-0.00518132 0.00300077 0)
(-0.0191579 0.00344076 0)
(-0.0356513 0.00250548 0)
(-0.0477604 0.00124135 0)
(-0.0528995 0.000335798 0)
(-0.0518967 -6.21491e-05 0)
(-0.0472271 -7.50609e-06 0)
(-0.0415973 0.00036456 0)
(-0.0370906 0.000895485 0)
(-0.0348808 0.0014436 0)
(-0.0353107 0.0019131 0)
(-0.0381401 0.00225981 0)
(-0.0428446 0.0024836 0)
(-0.0488592 0.00261213 0)
(-0.0557049 0.00268055 0)
(-0.0630385 0.00272107 0)
(-0.0706138 0.00275267 0)
(-0.0782557 0.00278606 0)
(-0.0858049 0.00282441 0)
(-0.0931251 0.00286963 0)
(-0.1001 0.00292447 0)
(-0.106666 0.00299619 0)
(-0.112808 0.00309309 0)
(-0.118602 0.00322844 0)
(-0.124172 0.00341121 0)
(-0.129711 0.00365633 0)
(-0.135456 0.00397179 0)
(-0.141655 0.004372 0)
(-0.14861 0.00486455 0)
(-0.156572 0.00547045 0)
(-0.165928 0.00619437 0)
(-0.176888 0.00707975 0)
(-0.190006 0.00813968 0)
(-0.205534 0.00945489 0)
(-0.224241 0.0110688 0)
(-0.246864 0.0131235 0)
(-0.274032 0.0157422 0)
(-0.308435 0.0192046 0)
(-0.349324 0.0237516 0)
(-0.404545 0.0301248 0)
(-0.470329 0.0385573 0)
(-0.564059 0.0512946 0)
(-0.680245 0.0684006 0)
(-0.851463 0.0950488 0)
(-1.06998 0.139966 0)
(-1.44146 0.191148 0)
(-1.81733 0.323011 0)
(-2.85333 0.446153 0)
(-3.37948 1.01123 0)
(4.85841e-05 0.00134264 0)
(-0.00415534 0.00357505 0)
(-0.0156226 0.00441643 0)
(-0.0317454 0.00354167 0)
(-0.0467327 0.00197715 0)
(-0.0564131 0.000618781 0)
(-0.059534 -0.00018498 0)
(-0.0572311 -0.000381464 0)
(-0.0518145 -8.18318e-05 0)
(-0.0456431 0.000522231 0)
(-0.0404899 0.00123133 0)
(-0.0373595 0.00189362 0)
(-0.0365799 0.00242413 0)
(-0.0380297 0.0028012 0)
(-0.0413759 0.00304712 0)
(-0.0462316 0.0032007 0)
(-0.0522523 0.00330066 0)
(-0.0591313 0.00337076 0)
(-0.0665989 0.00342408 0)
(-0.074378 0.00346465 0)
(-0.0821969 0.00349531 0)
(-0.0897978 0.00352184 0)
(-0.096979 0.00355665 0)
(-0.103608 0.00361486 0)
(-0.109668 0.00371778 0)
(-0.115228 0.00388137 0)
(-0.120457 0.00412735 0)
(-0.125596 0.0044682 0)
(-0.130919 0.00492272 0)
(-0.136764 0.00550016 0)
(-0.143427 0.00622617 0)
(-0.151327 0.00710567 0)
(-0.16074 0.00819031 0)
(-0.172205 0.00949791 0)
(-0.186083 0.0111214 0)
(-0.203024 0.0131271 0)
(-0.223977 0.0156691 0)
(-0.24928 0.0189375 0)
(-0.281976 0.0232285 0)
(-0.320825 0.0289196 0)
(-0.374149 0.0368418 0)
(-0.437329 0.0474412 0)
(-0.528836 0.0632954 0)
(-0.640278 0.085054 0)
(-0.809047 0.118236 0)
(-1.01745 0.169611 0)
(-1.37743 0.23446 0)
(-1.75583 0.401763 0)
(-2.66517 0.582387 0)
(-3.33677 1.20433 0)
(-0.000187849 0.00147912 0)
(-0.00399505 0.0040602 0)
(-0.0136973 0.0053041 0)
(-0.0286472 0.00464506 0)
(-0.0449952 0.00296445 0)
(-0.0584698 0.00124521 0)
(-0.0664315 3.46144e-06 0)
(-0.068457 -0.000565499 0)
(-0.065792 -0.000494259 0)
(-0.0603987 3.85315e-05 0)
(-0.0541939 0.000803317 0)
(-0.0486463 0.00160177 0)
(-0.0446639 0.0023049 0)
(-0.0426716 0.00285918 0)
(-0.0427673 0.00326918 0)
(-0.0448559 0.00356654 0)
(-0.0487612 0.00378835 0)
(-0.0542523 0.00395751 0)
(-0.0610662 0.00408529 0)
(-0.0688803 0.00417314 0)
(-0.0773275 0.00422201 0)
(-0.0860153 0.0042389 0)
(-0.0945784 0.00424107 0)
(-0.102713 0.00425189 0)
(-0.11024 0.00430324 0)
(-0.117102 0.00442169 0)
(-0.123374 0.00463919 0)
(-0.129249 0.00497603 0)
(-0.134988 0.00545772 0)
(-0.140941 0.00609722 0)
(-0.147447 0.00692507 0)
(-0.154949 0.00794824 0)
(-0.16381 0.00922438 0)
(-0.174554 0.0107793 0)
(-0.187679 0.0127128 0)
(-0.203731 0.0151201 0)
(-0.223865 0.0181595 0)
(-0.248205 0.0220949 0)
(-0.280031 0.027232 0)
(-0.317831 0.034093 0)
(-0.370095 0.0435757 0)
(-0.431788 0.0563944 0)
(-0.521753 0.075316 0)
(-0.630024 0.101819 0)
(-0.795447 0.141047 0)
(-0.998432 0.204729 0)
(-1.33921 0.283032 0)
(-1.72519 0.476898 0)
(-2.51303 0.714997 0)
(-3.24788 1.3773 0)
(-0.000285704 0.00162515 0)
(-0.00418472 0.00451151 0)
(-0.0130332 0.00612711 0)
(-0.026855 0.00575684 0)
(-0.0433608 0.00411459 0)
(-0.0590487 0.00217406 0)
(-0.0709034 0.000552324 0)
(-0.0774486 -0.000427043 0)
(-0.0787967 -0.000694247 0)
(-0.0761005 -0.000375696 0)
(-0.0709245 0.000305414 0)
(-0.0647887 0.00112944 0)
(-0.0589238 0.00193552 0)
(-0.0542036 0.00263938 0)
(-0.0511838 0.00322204 0)
(-0.0501667 0.00369918 0)
(-0.0512844 0.00409763 0)
(-0.0545316 0.00443218 0)
(-0.0597974 0.00470603 0)
(-0.0668474 0.00491221 0)
(-0.0753334 0.00504384 0)
(-0.084811 0.00510371 0)
(-0.0947932 0.00510986 0)
(-0.104804 0.00509192 0)
(-0.114464 0.00509292 0)
(-0.123519 0.00515281 0)
(-0.131877 0.00531759 0)
(-0.139603 0.00562 0)
(-0.146881 0.00609613 0)
(-0.15402 0.00676649 0)
(-0.161373 0.00766816 0)
(-0.169388 0.00881334 0)
(-0.178506 0.0102642 0)
(-0.189243 0.0120582 0)
(-0.202229 0.0142976 0)
(-0.217945 0.0171108 0)
(-0.237708 0.0206559 0)
(-0.261536 0.0252723 0)
(-0.292791 0.0312732 0)
(-0.329936 0.0393257 0)
(-0.381233 0.0503821 0)
(-0.441856 0.0654521 0)
(-0.529791 0.0874153 0)
(-0.635684 0.118628 0)
(-0.795369 0.164034 0)
(-0.993979 0.238829 0)
(-1.3113 0.336299 0)
(-1.69779 0.548293 0)
(-2.37897 0.838829 0)
(-3.10265 1.53517 0)
(-0.000295176 0.00178614 0)
(-0.00438247 0.0049696 0)
(-0.0130241 0.00692634 0)
(-0.026165 0.00685963 0)
(-0.0423075 0.00534379 0)
(-0.0588258 0.00330377 0)
(-0.0729876 0.0013998 0)
(-0.0829582 4.48474e-05 0)
(-0.0881042 -0.000597083 0)
(-0.088793 -0.000584591 0)
(-0.0860027 -0.000107805 0)
(-0.0809581 0.000619031 0)
(-0.0748718 0.00142369 0)
(-0.0688046 0.00220304 0)
(-0.0636134 0.00291846 0)
(-0.0599406 0.00356817 0)
(-0.0582459 0.00416449 0)
(-0.0588204 0.00470941 0)
(-0.0618112 0.00519303 0)
(-0.0672017 0.00559435 0)
(-0.0748043 0.00589173 0)
(-0.0842608 0.00607557 0)
(-0.0950771 0.00615654 0)
(-0.10668 0.00616392 0)
(-0.118518 0.00614796 0)
(-0.130124 0.00616159 0)
(-0.141183 0.00626697 0)
(-0.151563 0.00651376 0)
(-0.161296 0.00695337 0)
(-0.170582 0.00761929 0)
(-0.179725 0.00855856 0)
(-0.189141 0.00979314 0)
(-0.199314 0.0113902 0)
(-0.210752 0.0134023 0)
(-0.224183 0.0159328 0)
(-0.240071 0.0191445 0)
(-0.259822 0.0231954 0)
(-0.283466 0.0284958 0)
(-0.314283 0.0353724 0)
(-0.35097 0.0446233 0)
(-0.401127 0.0572647 0)
(-0.46081 0.0745795 0)
(-0.545924 0.09957 0)
(-0.649524 0.135357 0)
(-0.801466 0.187069 0)
(-0.994516 0.271652 0)
(-1.2868 0.385094 0)
(-1.66047 0.620105 0)
(-2.24766 0.95221 0)
(-2.90854 1.67528 0)
(-0.000277214 0.00195744 0)
(-0.00449133 0.00544941 0)
(-0.0131975 0.00773363 0)
(-0.0260861 0.0079657 0)
(-0.0418626 0.0066073 0)
(-0.0584528 0.00454037 0)
(-0.0735879 0.00243996 0)
(-0.0855242 0.000774503 0)
(-0.0933625 -0.000221171 0)
(-0.0969873 -0.00054351 0)
(-0.0968587 -0.000340535 0)
(-0.0937895 0.00019547 0)
(-0.08875 0.000898896 0)
(-0.0827349 0.00166288 0)
(-0.0766762 0.00243944 0)
(-0.0713889 0.00321481 0)
(-0.0675564 0.0039889 0)
(-0.0657219 0.0047512 0)
(-0.0662972 0.00547804 0)
(-0.0695369 0.0061323 0)
(-0.0755092 0.00667307 0)
(-0.0840693 0.00707085 0)
(-0.0948556 0.00731917 0)
(-0.107328 0.00743671 0)
(-0.120858 0.00747215 0)
(-0.134821 0.007486 0)
(-0.148687 0.0075548 0)
(-0.162095 0.00774702 0)
(-0.174871 0.00813329 0)
(-0.187038 0.0087657 0)
(-0.198788 0.00970599 0)
(-0.210449 0.0109917 0)
(-0.222493 0.0126974 0)
(-0.235402 0.0148948 0)
(-0.249949 0.0176893 0)
(-0.266609 0.0212781 0)
(-0.286805 0.0258231 0)
(-0.310673 0.0317955 0)
(-0.341259 0.0395496 0)
(-0.377702 0.0499863 0)
(-0.42662 0.0642157 0)
(-0.485366 0.0837322 0)
(-0.567119 0.111723 0)
(-0.667926 0.151902 0)
(-0.811149 0.209762 0)
(-0.995886 0.303421 0)
(-1.26237 0.43205 0)
(-1.61204 0.685949 0)
(-2.11274 1.05783 0)
(-2.6804 1.79101 0)
(-0.000261297 0.00213522 0)
(-0.00453491 0.00595277 0)
(-0.0133512 0.00856698 0)
(-0.0262261 0.00909044 0)
(-0.0418024 0.00789403 0)
(-0.0582329 0.00582872 0)
(-0.0735779 0.00358299 0)
(-0.0863341 0.00166351 0)
(-0.0956412 0.000355952 0)
(-0.101209 -0.00028744 0)
(-0.103205 -0.000377201 0)
(-0.102117 -7.98071e-05 0)
(-0.0986295 0.000454937 0)
(-0.0935446 0.00112751 0)
(-0.0877017 0.00189096 0)
(-0.0819178 0.00272775 0)
(-0.0769513 0.00363136 0)
(-0.0734789 0.00458349 0)
(-0.0720949 0.00555051 0)
(-0.0732832 0.00648191 0)
(-0.0773742 0.00731783 0)
(-0.0844915 0.00800538 0)
(-0.0945052 0.00851336 0)
(-0.107032 0.00883928 0)
(-0.121493 0.00901873 0)
(-0.13721 0.00911019 0)
(-0.153509 0.00919794 0)
(-0.16983 0.00936702 0)
(-0.185784 0.00970822 0)
(-0.201188 0.0102963 0)
(-0.216067 0.0112122 0)
(-0.230616 0.0125149 0)
(-0.245231 0.0142909 0)
(-0.260338 0.0166346 0)
(-0.276695 0.0196579 0)
(-0.294793 0.0235901 0)
(-0.315996 0.0286054 0)
(-0.340598 0.0352223 0)
(-0.371309 0.0438419 0)
(-0.407805 0.0554329 0)
(-0.455591 0.0712338 0)
(-0.513366 0.0928832 0)
(-0.591603 0.123806 0)
(-0.688885 0.168148 0)
(-0.823015 0.231905 0)
(-0.996721 0.334 0)
(-1.23779 0.476592 0)
(-1.55321 0.74308 0)
(-1.97279 1.14563 0)
(-2.42869 1.88091 0)
(-0.000252696 0.00231837 0)
(-0.004554 0.00647807 0)
(-0.0134546 0.00943164 0)
(-0.0263914 0.0102469 0)
(-0.0419009 0.00920853 0)
(-0.0581809 0.00714895 0)
(-0.073453 0.00477712 0)
(-0.086399 0.00263511 0)
(-0.0962821 0.00105073 0)
(-0.102839 0.000113176 0)
(-0.106142 -0.000258985 0)
(-0.10651 -0.000210516 0)
(-0.104424 0.000125416 0)
(-0.100497 0.000660985 0)
(-0.0954169 0.00135656 0)
(-0.0899078 0.00219742 0)
(-0.0846889 0.00317674 0)
(-0.0804521 0.00427434 0)
(-0.0778611 0.00545273 0)
(-0.0775316 0.00665407 0)
(-0.0799863 0.00780438 0)
(-0.0855888 0.00882901 0)
(-0.094461 0.00966918 0)
(-0.106442 0.0102938 0)
(-0.121103 0.0107148 0)
(-0.13782 0.0109772 0)
(-0.155878 0.0111636 0)
(-0.174594 0.0113689 0)
(-0.193407 0.0117016 0)
(-0.211943 0.0122596 0)
(-0.230046 0.0131464 0)
(-0.247753 0.0144468 0)
(-0.26534 0.0162639 0)
(-0.283147 0.0187184 0)
(-0.301859 0.0219343 0)
(-0.321971 0.0261708 0)
(-0.344726 0.0316247 0)
(-0.370584 0.0388471 0)
(-0.401864 0.048305 0)
(-0.438755 0.0610041 0)
(-0.485702 0.0783334 0)
(-0.542514 0.102031 0)
(-0.617378 0.13576 0)
(-0.710486 0.184014 0)
(-0.835594 0.253327 0)
(-0.996176 0.362799 0)
(-1.21197 0.518162 0)
(-1.48796 0.795792 0)
(-1.8304 1.21649 0)
(-2.16811 1.94941 0)
(-0.000248267 0.00250702 0)
(-0.00457017 0.00702433 0)
(-0.0135301 0.0103281 0)
(-0.0265326 0.0114405 0)
(-0.0420328 0.0105577 0)
(-0.0582173 0.00849934 0)
(-0.0733675 0.00600235 0)
(-0.0862595 0.0036478 0)
(-0.0962588 0.00180404 0)
(-0.103173 0.000592706 0)
(-0.107094 -4.49422e-05 0)
(-0.108288 -0.000237498 0)
(-0.107147 -0.000104927 0)
(-0.104158 0.000276207 0)
(-0.0998909 0.000875074 0)
(-0.0949592 0.00168288 0)
(-0.0899988 0.00269615 0)
(-0.0856471 0.00389731 0)
(-0.0825518 0.00525046 0)
(-0.0813624 0.00669709 0)
(-0.0826979 0.00815602 0)
(-0.0870813 0.00953612 0)
(-0.0948381 0.0107529 0)
(-0.106024 0.0117439 0)
(-0.120399 0.0124905 0)
(-0.137466 0.0130148 0)
(-0.156553 0.013387 0)
(-0.176946 0.013704 0)
(-0.197985 0.0140859 0)
(-0.219155 0.0146518 0)
(-0.240147 0.0155276 0)
(-0.260849 0.0168265 0)
(-0.281399 0.0186723 0)
(-0.30204 0.0212141 0)
(-0.323343 0.0245944 0)
(-0.34579 0.0290995 0)
(-0.370465 0.0349588 0)
(-0.397956 0.042744 0)
(-0.430202 0.0530023 0)
(-0.467789 0.066754 0)
(-0.514258 0.0855458 0)
(-0.570181 0.11119 0)
(-0.641975 0.147555 0)
(-0.730581 0.199457 0)
(-0.846903 0.27381 0)
(-0.993315 0.389816 0)
(-1.18453 0.556099 0)
(-1.41858 0.841601 0)
(-1.6883 1.27473 0)
(-1.91312 1.99272 0)
(-0.000245069 0.00270151 0)
(-0.00458872 0.00759178 0)
(-0.0135971 0.0112562 0)
(-0.0266548 0.0126727 0)
(-0.0421583 0.0119455 0)
(-0.0582796 0.00988295 0)
(-0.0733247 0.00725518 0)
(-0.0861082 0.00468592 0)
(-0.0960502 0.00258598 0)
(-0.103016 0.00110925 0)
(-0.107137 0.000217091 0)
(-0.108691 -0.000206605 0)
(-0.108044 -0.000271967 0)
(-0.105635 -4.66557e-05 0)
(-0.101962 0.000446445 0)
(-0.0975681 0.0012045 0)
(-0.0930126 0.00222834 0)
(-0.0888668 0.00350484 0)
(-0.0857232 0.00500294 0)
(-0.0842062 0.00666835 0)
(-0.084953 0.00841919 0)
(-0.0885614 0.010154 0)
(-0.0954783 0.0117672 0)
(-0.105924 0.0131665 0)
(-0.119827 0.0142995 0)
(-0.136832 0.0151595 0)
(-0.156362 0.0157965 0)
(-0.177735 0.016301 0)
(-0.200263 0.016798 0)
(-0.223361 0.0174234 0)
(-0.246614 0.0183241 0)
(-0.269795 0.0196411 0)
(-0.29292 0.0215214 0)
(-0.316141 0.0241432 0)
(-0.339904 0.0276732 0)
(-0.364664 0.0324215 0)
(-0.391333 0.0386589 0)
(-0.420581 0.0469685 0)
(-0.454004 0.0579852 0)
(-0.492447 0.0727327 0)
(-0.538731 0.0929058 0)
(-0.593851 0.120386 0)
(-0.662927 0.159194 0)
(-0.746988 0.21443 0)
(-0.854957 0.293318 0)
(-0.98718 0.414883 0)
(-1.15466 0.58976 0)
(-1.34793 0.881296 0)
(-1.55151 1.31671 0)
(-1.67433 2.01169 0)
(-0.00024199 0.0029021 0)
(-0.00460905 0.00818111 0)
(-0.0136629 0.0122166 0)
(-0.026769 0.0139442 0)
(-0.0422746 0.0133738 0)
(-0.0583422 0.0113024 0)
(-0.0732983 0.0085369 0)
(-0.0859758 0.00574625 0)
(-0.0958202 0.00338586 0)
(-0.102729 0.00164307 0)
(-0.106863 0.000499211 0)
(-0.10852 -0.000150792 0)
(-0.108069 -0.000409026 0)
(-0.105938 -0.000336076 0)
(-0.102603 5.17127e-05 0)
(-0.0985683 0.000756455 0)
(-0.0943528 0.00178257 0)
(-0.0904769 0.00312133 0)
(-0.0874819 0.00474741 0)
(-0.08595 0.0066133 0)
(-0.0864959 0.00864036 0)
(-0.089723 0.0107225 0)
(-0.0961482 0.0127376 0)
(-0.106074 0.0145665 0)
(-0.119544 0.0161238 0)
(-0.136323 0.0173712 0)
(-0.155933 0.0183336 0)
(-0.177755 0.0190892 0)
(-0.201124 0.0197623 0)
(-0.225435 0.0205007 0)
(-0.250222 0.0214693 0)
(-0.275191 0.0228353 0)
(-0.300267 0.0247698 0)
(-0.325533 0.027479 0)
(-0.351324 0.0311579 0)
(-0.378062 0.0361376 0)
(-0.4065 0.0427354 0)
(-0.437345 0.0515409 0)
(-0.471908 0.0632773 0)
(-0.511165 0.0789686 0)
(-0.557392 0.100438 0)
(-0.611737 0.129639 0)
(-0.678375 0.170687 0)
(-0.758061 0.228949 0)
(-0.858161 0.311753 0)
(-0.976892 0.438071 0)
(-1.12224 0.619315 0)
(-1.27758 0.91346 0)
(-1.42285 1.34627 0)
(-1.45944 2.01184 0)
(-0.000238901 0.00310901 0)
(-0.00463011 0.00879303 0)
(-0.0137283 0.0132104 0)
(-0.02688 0.015256 0)
(-0.0423858 0.0148438 0)
(-0.0584005 0.0127592 0)
(-0.0732729 0.00984903 0)
(-0.085852 0.00682933 0)
(-0.0955975 0.0042015 0)
(-0.102425 0.00218756 0)
(-0.10651 0.000789314 0)
(-0.108163 -8.74323e-05 0)
(-0.10776 -0.000537338 0)
(-0.10573 -0.000614493 0)
(-0.102546 -0.000329566 0)
(-0.0987031 0.000323625 0)
(-0.0947023 0.00135212 0)
(-0.0910391 0.00275066 0)
(-0.088223 0.00449935 0)
(-0.0868004 0.00655811 0)
(-0.0873561 0.00885339 0)
(-0.0904843 0.0112773 0)
(-0.0966965 0.0136952 0)
(-0.106341 0.0159639 0)
(-0.119523 0.0179665 0)
(-0.136081 0.0196332 0)
(-0.155613 0.0209618 0)
(-0.177562 0.0220144 0)
(-0.201303 0.0229112 0)
(-0.226248 0.0238081 0)
(-0.251917 0.024885 0)
(-0.277991 0.0263331 0)
(-0.30434 0.0283474 0)
(-0.331002 0.0311604 0)
(-0.358233 0.0349975 0)
(-0.386422 0.0402084 0)
(-0.416194 0.0471592 0)
(-0.44826 0.0564435 0)
(-0.483705 0.0688675 0)
(-0.52354 0.0854599 0)
(-0.569643 0.108143 0)
(-0.62313 0.138957 0)
(-0.687481 0.18204 0)
(-0.762992 0.243002 0)
(-0.855749 0.329238 0)
(-0.962014 0.459133 0)
(-1.08706 0.645126 0)
(-1.20866 0.939105 0)
(-1.30408 1.36367 0)
(-1.27111 1.99573 0)
(-0.000235905 0.00332244 0)
(-0.00465149 0.0094282 0)
(-0.0137926 0.0142389 0)
(-0.0269884 0.0166089 0)
(-0.0424939 0.0163565 0)
(-0.0584551 0.0142544 0)
(-0.0732441 0.0111925 0)
(-0.0857273 0.00793601 0)
(-0.095377 0.00503307 0)
(-0.102121 0.00274136 0)
(-0.106144 0.00108357 0)
(-0.107759 -2.35203e-05 0)
(-0.107347 -0.000667066 0)
(-0.105339 -0.000894636 0)
(-0.102208 -0.000711342 0)
(-0.0984514 -0.000107271 0)
(-0.0945651 0.00092658 0)
(-0.0910369 0.0023877 0)
(-0.0883627 0.004261 0)
(-0.0870692 0.00651341 0)
(-0.0877195 0.00907711 0)
(-0.0908859 0.0118434 0)
(-0.097072 0.0146663 0)
(-0.106626 0.0173813 0)
(-0.119674 0.0198413 0)
(-0.136089 0.0219455 0)
(-0.155514 0.0236647 0)
(-0.177437 0.0250437 0)
(-0.201272 0.0261963 0)
(-0.226459 0.0272842 0)
(-0.252525 0.028501 0)
(-0.279152 0.0300592 0)
(-0.30618 0.0321777 0)
(-0.333642 0.035113 0)
(-0.361721 0.0391219 0)
(-0.390792 0.0445708 0)
(-0.421383 0.0518737 0)
(-0.454187 0.0616289 0)
(-0.490127 0.0747161 0)
(-0.53018 0.0921748 0)
(-0.575935 0.115999 0)
(-0.628377 0.148318 0)
(-0.690431 0.193253 0)
(-0.761927 0.256612 0)
(-0.847767 0.345692 0)
(-0.942607 0.478381 0)
(-1.04929 0.667228 0)
(-1.14159 0.958365 0)
(-1.19513 1.37102 0)
(-1.1082 1.96714 0)
(-0.000233082 0.0035426 0)
(-0.00467307 0.0100873 0)
(-0.0138554 0.0153034 0)
(-0.0270933 0.0180043 0)
(-0.0425989 0.017913 0)
(-0.0585063 0.0157889 0)
(-0.0732112 0.0125681 0)
(-0.0855987 0.00906682 0)
(-0.0951533 0.00588096 0)
(-0.101814 0.00330441 0)
(-0.105772 0.00138107 0)
(-0.107343 3.87538e-05 0)
(-0.106905 -0.000802065 0)
(-0.10489 -0.0011821 0)
(-0.101773 -0.00110071 0)
(-0.0980521 -0.000544205 0)
(-0.0942244 0.000498173 0)
(-0.090777 0.00202635 0)
(-0.0882025 0.00402962 0)
(-0.0870207 0.00648153 0)
(-0.0877836 0.00931963 0)
(-0.0910478 0.0124342 0)
(-0.0973016 0.0156686 0)
(-0.106881 0.018837 0)
(-0.119909 0.0217633 0)
(-0.136265 0.0243162 0)
(-0.155612 0.0264398 0)
(-0.177462 0.0281617 0)
(-0.201257 0.0295889 0)
(-0.226459 0.030888 0)
(-0.252615 0.0322654 0)
(-0.279414 0.0339536 0)
(-0.306696 0.0361946 0)
(-0.334477 0.0392681 0)
(-0.362919 0.0434615 0)
(-0.392377 0.0491568 0)
(-0.423312 0.0568138 0)
(-0.456389 0.0670368 0)
(-0.492407 0.0807673 0)
(-0.532287 0.0990641 0)
(-0.577384 0.123964 0)
(-0.628523 0.157689 0)
(-0.688168 0.204304 0)
(-0.755664 0.269741 0)
(-0.834824 0.361189 0)
(-0.919113 0.495787 0)
(-1.00908 0.685789 0)
(-1.07599 0.972069 0)
(-1.0946 1.36987 0)
(-0.966705 1.92776 0)
(-0.000230465 0.00376972 0)
(-0.00469479 0.010771 0)
(-0.0139164 0.0164051 0)
(-0.0271942 0.0194431 0)
(-0.0427 0.0195146 0)
(-0.0585537 0.0173637 0)
(-0.0731743 0.0139763 0)
(-0.0854655 0.0102222 0)
(-0.0949247 0.00674537 0)
(-0.101502 0.00387671 0)
(-0.105394 0.00168154 0)
(-0.106918 9.86643e-05 0)
(-0.106449 -0.000943659 0)
(-0.104419 -0.00147898 0)
(-0.101303 -0.0015006 0)
(-0.0975989 -0.000990893 0)
(-0.0938058 6.27213e-05 0)
(-0.0904116 0.00166259 0)
(-0.08791 0.00380234 0)
(-0.0868209 0.00646191 0)
(-0.0876922 0.00958373 0)
(-0.091071 0.0130566 0)
(-0.0974322 0.0167123 0)
(-0.107096 0.0203434 0)
(-0.12017 0.0237445 0)
(-0.136529 0.0267544 0)
(-0.155835 0.0292907 0)
(-0.177611 0.0313644 0)
(-0.201314 0.0330759 0)
(-0.226423 0.0345968 0)
(-0.252501 0.036146 0)
(-0.279249 0.0379756 0)
(-0.306508 0.0403508 0)
(-0.334298 0.0435726 0)
(-0.36276 0.0479591 0)
(-0.392236 0.0539076 0)
(-0.423142 0.0619192 0)
(-0.456107 0.0726078 0)
(-0.491848 0.0869635 0)
(-0.531194 0.106072 0)
(-0.575334 0.131986 0)
(-0.6249 0.16702 0)
(-0.681925 0.21515 0)
(-0.745409 0.282374 0)
(-0.818064 0.375713 0)
(-0.892484 0.511357 0)
(-0.967151 0.701166 0)
(-1.01205 0.980687 0)
(-1.00165 1.36132 0)
(-0.843148 1.87984 0)
(-0.000228086 0.00400405 0)
(-0.00471659 0.0114799 0)
(-0.0139754 0.0175454 0)
(-0.0272905 0.0209268 0)
(-0.0427964 0.0211624 0)
(-0.0585968 0.01898 0)
(-0.0731329 0.015418 0)
(-0.0853278 0.0114024 0)
(-0.094691 0.00762644 0)
(-0.101184 0.00445818 0)
(-0.105009 0.00198469 0)
(-0.106483 0.000155757 0)
(-0.105981 -0.00109251 0)
(-0.103933 -0.00178617 0)
(-0.100814 -0.00191219 0)
(-0.0971206 -0.00144885 0)
(-0.0933534 -0.0003816 0)
(-0.0900012 0.00129447 0)
(-0.0875602 0.00357756 0)
(-0.0865523 0.0064539 0)
(-0.0875254 0.00987044 0)
(-0.0910212 0.0137136 0)
(-0.0975031 0.0178027 0)
(-0.107275 0.0219076 0)
(-0.120429 0.0257931 0)
(-0.136825 0.0292675 0)
(-0.156118 0.0322226 0)
(-0.177831 0.034653 0)
(-0.201427 0.0366532 0)
(-0.226398 0.0384001 0)
(-0.252317 0.040126 0)
(-0.278896 0.042102 0)
(-0.305981 0.0446166 0)
(-0.333593 0.0479917 0)
(-0.361861 0.0525753 0)
(-0.391116 0.0587799 0)
(-0.42174 0.0671437 0)
(-0.454322 0.078293 0)
(-0.48951 0.0932548 0)
(-0.528045 0.113145 0)
(-0.570956 0.140017 0)
(-0.618703 0.176256 0)
(-0.672915 0.225745 0)
(-0.732254 0.294462 0)
(-0.798431 0.38922 0)
(-0.863391 0.525172 0)
(-0.923831 0.713413 0)
(-0.949297 0.984639 0)
(-0.914424 1.34669 0)
(-0.732873 1.82534 0)
(-0.000225962 0.00424583 0)
(-0.00473836 0.0122147 0)
(-0.0140321 0.0187256 0)
(-0.0273815 0.0224564 0)
(-0.0428873 0.0228576 0)
(-0.0586348 0.0206388 0)
(-0.0730864 0.0168938 0)
(-0.0851851 0.012608 0)
(-0.0944522 0.00852431 0)
(-0.100859 0.0050487 0)
(-0.104616 0.00229019 0)
(-0.106039 0.000209544 0)
(-0.105502 -0.0012492 0)
(-0.103434 -0.0021043 0)
(-0.100309 -0.00233616 0)
(-0.0966244 -0.0019188 0)
(-0.0928801 -0.000835562 0)
(-0.0895659 0.00092126 0)
(-0.0871804 0.00335472 0)
(-0.0862486 0.00645743 0)
(-0.0873197 0.0101805 0)
(-0.0909316 0.0144073 0)
(-0.0975379 0.0189432 0)
(-0.107427 0.0235343 0)
(-0.120674 0.0279144 0)
(-0.137122 0.0318611 0)
(-0.156416 0.0352401 0)
(-0.178074 0.0380301 0)
(-0.201562 0.0403208 0)
(-0.226378 0.0422947 0)
(-0.252103 0.044198 0)
(-0.278458 0.046321 0)
(-0.30529 0.0489758 0)
(-0.332623 0.0525051 0)
(-0.360579 0.0572853 0)
(-0.38947 0.0637452 0)
(-0.419653 0.0724549 0)
(-0.451676 0.0840564 0)
(-0.486124 0.099602 0)
(-0.523649 0.12024 0)
(-0.565127 0.148009 0)
(-0.610858 0.185347 0)
(-0.662068 0.236033 0)
(-0.717147 0.305948 0)
(-0.776836 0.401664 0)
(-0.832633 0.537182 0)
(-0.879702 0.722677 0)
(-0.887696 0.984292 0)
(-0.83204 1.32629 0)
(-0.633111 1.76565 0)
(-0.000224109 0.00449534 0)
(-0.00475999 0.0129759 0)
(-0.0140864 0.0199469 0)
(-0.027467 0.0240333 0)
(-0.042972 0.0246015 0)
(-0.058667 0.0223413 0)
(-0.0730343 0.0184045 0)
(-0.0850373 0.0138394 0)
(-0.0942086 0.00943914 0)
(-0.10053 0.00564817 0)
(-0.104217 0.00259772 0)
(-0.105587 0.000259536 0)
(-0.105013 -0.00141431 0)
(-0.102922 -0.002434 0)
(-0.0997899 -0.00277312 0)
(-0.0961128 -0.00240129 0)
(-0.0923897 -0.00129961 0)
(-0.0891117 0.000542656 0)
(-0.0867797 0.00313377 0)
(-0.0859218 0.00647287 0)
(-0.0870892 0.010515 0)
(-0.0908162 0.0151393 0)
(-0.0975472 0.0201363 0)
(-0.107556 0.0252266 0)
(-0.1209 0.0301121 0)
(-0.137406 0.0345388 0)
(-0.156706 0.0383467 0)
(-0.178313 0.0414987 0)
(-0.201691 0.0440801 0)
(-0.226344 0.0462801 0)
(-0.251859 0.0483593 0)
(-0.277962 0.0506274 0)
(-0.304504 0.0534204 0)
(-0.331506 0.0571018 0)
(-0.359083 0.0620749 0)
(-0.387529 0.0687857 0)
(-0.417178 0.0778316 0)
(-0.448533 0.0898723 0)
(-0.482117 0.105976 0)
(-0.518495 0.127322 0)
(-0.558393 0.15592 0)
(-0.601955 0.194245 0)
(-0.65002 0.245956 0)
(-0.700724 0.316768 0)
(-0.753927 0.412986 0)
(-0.800802 0.547339 0)
(-0.835228 0.729088 0)
(-0.827508 0.979954 0)
(-0.754034 1.3007 0)
(-0.5419 1.70185 0)
(-0.000222534 0.00475285 0)
(-0.00478136 0.0137643 0)
(-0.0141379 0.0212108 0)
(-0.0275463 0.0256587 0)
(-0.0430498 0.0263951 0)
(-0.0586928 0.0240886 0)
(-0.072976 0.019951 0)
(-0.0848839 0.015097 0)
(-0.0939599 0.0103712 0)
(-0.100195 0.00625652 0)
(-0.103812 0.00290695 0)
(-0.105128 0.000305236 0)
(-0.104515 -0.00158844 0)
(-0.102401 -0.0027759 0)
(-0.0992594 -0.00322366 0)
(-0.0955879 -0.00289683 0)
(-0.0918846 -0.00177412 0)
(-0.0886413 0.000158491 0)
(-0.0863614 0.00291485 0)
(-0.0855763 0.00650076 0)
(-0.0868387 0.0108748 0)
(-0.0906799 0.0159113 0)
(-0.097535 0.0213841 0)
(-0.107664 0.0269871 0)
(-0.121104 0.0323891 0)
(-0.137668 0.0373039 0)
(-0.156974 0.0415452 0)
(-0.178529 0.045061 0)
(-0.201796 0.0479327 0)
(-0.226281 0.0503569 0)
(-0.251575 0.0526091 0)
(-0.277412 0.055019 0)
(-0.303641 0.0579463 0)
(-0.330283 0.0617754 0)
(-0.357442 0.0669354 0)
(-0.385396 0.0738901 0)
(-0.414452 0.0832594 0)
(-0.445067 0.0957221 0)
(-0.477705 0.112353 0)
(-0.512842 0.134361 0)
(-0.551052 0.163717 0)
(-0.592331 0.202905 0)
(-0.637142 0.255459 0)
(-0.683391 0.326866 0)
(-0.730135 0.42311 0)
(-0.768333 0.555632 0)
(-0.790808 0.73263 0)
(-0.768949 0.971619 0)
(-0.680251 1.27094 0)
(-0.458241 1.63516 0)
(-0.000221238 0.00501868 0)
(-0.00480229 0.0145804 0)
(-0.0141865 0.0225184 0)
(-0.027619 0.0273341 0)
(-0.04312 0.0282398 0)
(-0.0587113 0.025882 0)
(-0.0729109 0.0215342 0)
(-0.0847247 0.0163814 0)
(-0.0937062 0.0113206 0)
(-0.0998556 0.00687372 0)
(-0.103401 0.0032176 0)
(-0.104662 0.000346175 0)
(-0.10401 -0.00177217 0)
(-0.101871 -0.00313063 0)
(-0.0987189 -0.00368841 0)
(-0.0950516 -0.00340598 0)
(-0.0913667 -0.0022595 0)
(-0.0881569 -0.000231406 0)
(-0.0859278 0.00269813 0)
(-0.0852143 0.0065417 0)
(-0.0865704 0.0112611 0)
(-0.0905243 0.0167248 0)
(-0.0975019 0.0226887 0)
(-0.107748 0.0288183 0)
(-0.121283 0.0347481 0)
(-0.137902 0.0401588 0)
(-0.157213 0.0448381 0)
(-0.178712 0.048719 0)
(-0.201863 0.0518802 0)
(-0.226174 0.0545256 0)
(-0.251241 0.0569471 0)
(-0.276798 0.0594943 0)
(-0.3027 0.0625506 0)
(-0.32896 0.0665218 0)
(-0.355676 0.0718607 0)
(-0.383105 0.0790498 0)
(-0.411526 0.0887271 0)
(-0.441352 0.101591 0)