/*--------------------------------*- C++ -*----------------------------------*\
  =========                 |
  \\      /  F ield         | OpenFOAM: The Open Source CFD Toolbox
   \\    /   O peration     | Website:  https://openfoam.org
    \\  /    A nd           | Version:  7
     \\/     M anipulation  |
\*---------------------------------------------------------------------------*/
FoamFile
{
    version     2.0;
    format      ascii;
    class       surfaceScalarField;
    location    "0.37";
    object      ddtCorrDdt0(phi);
}
// * * * * * * * * * * * * * * * * * * * * * * * * * * * * * * * * * * * * * //

dimensions      [0 3 -2 0 0 0 0];

internalField   nonuniform List<scalar> 
139350
(
-6.69015e-10
6.69358e-10
-1.65644e-09
9.87917e-10
-2.55822e-09
9.02564e-10
-3.24861e-09
6.9089e-10
-3.79231e-09
5.44232e-10
-4.27227e-09
4.80427e-10
-4.7526e-09
4.80788e-10
-5.27877e-09
5.26536e-10
-5.87435e-09
5.96052e-10
-6.54695e-09
6.72844e-10
-7.29042e-09
7.43955e-10
-8.09221e-09
8.0203e-10
-8.93624e-09
8.44424e-10
-9.8085e-09
8.72594e-10
-1.06996e-08
8.91337e-10
-1.1605e-08
9.05883e-10
-1.25267e-08
9.21786e-10
-1.34676e-08
9.41605e-10
-1.4435e-08
9.67478e-10
-1.54338e-08
9.99587e-10
-1.64713e-08
1.03772e-09
-1.75519e-08
1.08121e-09
-1.86822e-08
1.13051e-09
-1.98671e-08
1.18546e-09
-2.1115e-08
1.24792e-09
-2.24325e-08
1.31839e-09
-2.38327e-08
1.40013e-09
-2.53262e-08
1.4945e-09
-2.69312e-08
1.60518e-09
-2.86651e-08
1.73475e-09
-3.05525e-08
1.88756e-09
-3.26182e-08
2.06667e-09
-3.48998e-08
2.28149e-09
-3.74344e-08
2.53607e-09
-4.02835e-08
2.84883e-09
-4.3506e-08
3.22412e-09
-4.72105e-08
3.70472e-09
-5.14954e-08
4.28608e-09
-5.65701e-08
5.07522e-09
-6.25991e-08
6.02977e-09
-7.00069e-08
7.4082e-09
-7.90956e-08
9.08994e-09
-9.07308e-08
1.16352e-08
-1.05595e-07
1.48665e-08
-1.25495e-07
1.98997e-08
-1.51975e-07
2.64835e-08
-1.8944e-07
3.7466e-08
-2.44323e-07
5.48848e-08
-3.13429e-07
6.91064e-08
2.7412e-07
-5.87548e-07
-9.93562e-10
1.66334e-09
-2.95307e-09
2.94796e-09
-4.80308e-09
2.7534e-09
-5.96601e-09
1.85436e-09
-6.6008e-09
1.17959e-09
-7.00848e-09
8.88622e-10
-7.40387e-09
8.7667e-10
-7.93081e-09
1.05387e-09
-8.66603e-09
1.33179e-09
-9.62811e-09
1.63519e-09
-1.07907e-08
1.90708e-09
-1.21047e-08
2.1163e-09
-1.35148e-08
2.25493e-09
-1.49746e-08
2.33271e-09
-1.64532e-08
2.37018e-09
-1.79351e-08
2.38839e-09
-1.94199e-08
2.4066e-09
-2.09118e-08
2.43438e-09
-2.2422e-08
2.47768e-09
-2.39584e-08
2.53695e-09
-2.5532e-08
2.61149e-09
-2.71499e-08
2.69979e-09
-2.88225e-08
2.80334e-09
-3.05594e-08
2.92305e-09
-3.2376e-08
3.06442e-09
-3.42862e-08
3.22957e-09
-3.6313e-08
3.42685e-09
-3.84773e-08
3.6599e-09
-4.08095e-08
3.93762e-09
-4.33396e-08
4.26574e-09
-4.6108e-08
4.65616e-09
-4.91542e-08
5.11382e-09
-5.2537e-08
5.66417e-09
-5.63148e-08
6.31553e-09
-6.05832e-08
7.117e-09
-6.54396e-08
8.08224e-09
-7.10496e-08
9.31496e-09
-7.75915e-08
1.08293e-08
-8.538e-08
1.28642e-08
-9.47454e-08
1.5396e-08
-1.06345e-07
1.90081e-08
-1.20789e-07
2.35355e-08
-1.39552e-07
3.03976e-08
-1.63946e-07
3.9264e-08
-1.97193e-07
5.31469e-08
-2.42844e-07
7.21377e-08
-3.06589e-07
1.01212e-07
-4.10383e-07
1.58681e-07
-5.45039e-07
2.03762e-07
5.96181e-07
-8.67099e-07
-8.46371e-10
2.51018e-09
-3.08247e-09
5.18463e-09
-5.50436e-09
5.17616e-09
-7.04448e-09
3.39506e-09
-7.62297e-09
1.75869e-09
-7.64726e-09
9.13454e-10
-7.51368e-09
7.43618e-10
-7.50829e-09
1.04889e-09
-7.80043e-09
1.62447e-09
-8.45126e-09
2.28629e-09
-9.43544e-09
2.89181e-09
-1.06785e-08
3.3596e-09
-1.20889e-08
3.66579e-09
-1.35858e-08
3.83006e-09
-1.51119e-08
3.89653e-09
-1.6634e-08
3.9111e-09
-1.81409e-08
3.91351e-09
-1.96305e-08
3.92484e-09
-2.11094e-08
3.95663e-09
-2.25821e-08
4.01062e-09
-2.40567e-08
4.08637e-09
-2.55392e-08
4.18289e-09
-2.704e-08
4.30439e-09
-2.85711e-08
4.45489e-09
-3.0152e-08
4.64522e-09
-3.1802e-08
4.88065e-09
-3.35504e-08
5.17516e-09
-3.54241e-08
5.53481e-09
-3.74599e-08
5.9736e-09
-3.96922e-08
6.49898e-09
-4.21669e-08
7.13105e-09
-4.4926e-08
7.87395e-09
-4.80329e-08
8.77098e-09
-5.15478e-08
9.83207e-09
-5.55705e-08
1.11396e-08
-6.02059e-08
1.27194e-08
-6.5621e-08
1.47304e-08
-7.20227e-08
1.72323e-08
-7.97189e-08
2.05609e-08
-8.91166e-08
2.47947e-08
-1.00874e-07
3.07656e-08
-1.1575e-07
3.8413e-08
-1.35326e-07
4.99736e-08
-1.61081e-07
6.50222e-08
-1.96832e-07
8.8898e-08
-2.47072e-07
1.2238e-07
-3.16171e-07
1.70312e-07
-4.3531e-07
2.77823e-07
-5.96258e-07
3.6471e-07
9.40813e-07
-9.40889e-07
-5.9438e-10
3.10508e-09
-2.66404e-09
7.2549e-09
-5.35755e-09
7.87057e-09
-7.40471e-09
5.44281e-09
-8.28207e-09
2.63668e-09
-8.21105e-09
8.42997e-10
-7.65318e-09
1.86304e-10
-7.0399e-09
4.36025e-10
-6.67786e-09
1.26301e-09
-6.72591e-09
2.33462e-09
-7.21052e-09
3.37701e-09
-8.07061e-09
4.21999e-09
-9.20268e-09
4.79832e-09
-1.05019e-08
5.12966e-09
-1.18848e-08
5.2797e-09
-1.32953e-08
5.32225e-09
-1.47033e-08
5.3215e-09
-1.6091e-08
5.3135e-09
-1.74518e-08
5.31754e-09
-1.87785e-08
5.33835e-09
-2.00694e-08
5.37751e-09
-2.13232e-08
5.4374e-09
-2.25465e-08
5.52789e-09
-2.37505e-08
5.65966e-09
-2.49571e-08
5.85168e-09
-2.61902e-08
6.1149e-09
-2.74853e-08
6.47017e-09
-2.88757e-08
6.92642e-09
-3.04045e-08
7.50261e-09
-3.21111e-08
8.20657e-09
-3.40459e-08
9.06604e-09
-3.62535e-08
1.00827e-08
-3.87993e-08
1.13166e-08
-4.17442e-08
1.27787e-08
-4.51859e-08
1.45811e-08
-4.92329e-08
1.67683e-08
-5.40418e-08
1.95396e-08
-5.98336e-08
2.30254e-08
-6.68921e-08
2.762e-08
-7.56555e-08
3.35591e-08
-8.675e-08
4.18604e-08
-1.00986e-07
5.26506e-08
-1.19907e-07
6.88941e-08
-1.45235e-07
9.03534e-08
-1.80246e-07
1.23909e-07
-2.30949e-07
1.73086e-07
-2.99778e-07
2.39143e-07
-4.1936e-07
3.97408e-07
-5.95088e-07
5.40438e-07
1.26276e-06
-9.17037e-07
-4.25766e-10
3.53139e-09
-2.15559e-09
8.98535e-09
-4.84137e-09
1.05573e-08
-7.37756e-09
7.97963e-09
-8.90524e-09
4.16501e-09
-9.26551e-09
1.20384e-09
-8.7596e-09
-3.19033e-10
-7.84622e-09
-4.76921e-10
-6.9473e-09
3.64694e-10
-6.35189e-09
1.7395e-09
-6.19361e-09
3.21933e-09
-6.48214e-09
4.50882e-09
-7.14916e-09
5.46581e-09
-8.09766e-09
6.0786e-09
-9.2351e-09
6.41738e-09
-1.04878e-08
6.57564e-09
-1.18052e-08
6.63888e-09
-1.31483e-08
6.65759e-09
-1.44896e-08
6.65899e-09
-1.58017e-08
6.65142e-09
-1.70638e-08
6.63986e-09
-1.82586e-08
6.63289e-09
-1.93804e-08
6.64992e-09
-2.04331e-08
6.71311e-09
-2.14358e-08
6.85436e-09
-2.24144e-08
7.09469e-09
-2.34092e-08
7.46483e-09
-2.44603e-08
7.97876e-09
-2.56186e-08
8.66112e-09
-2.69311e-08
9.52009e-09
-2.84549e-08
1.05901e-08
-3.02413e-08
1.18702e-08
-3.23593e-08
1.34345e-08
-3.48759e-08
1.52971e-08
-3.78873e-08
1.75923e-08
-4.15106e-08
2.03935e-08
-4.58939e-08
2.39232e-08
-5.1272e-08
2.84047e-08
-5.79128e-08
3.42614e-08
-6.62739e-08
4.19212e-08
-7.69541e-08
5.2541e-08
-9.0814e-08
6.65121e-08
-1.09287e-07
8.7367e-08
-1.3434e-07
1.15409e-07
-1.68506e-07
1.58076e-07
-2.19465e-07
2.24048e-07
-2.88329e-07
3.08008e-07
-4.03828e-07
5.1291e-07
-5.88462e-07
7.25071e-07
1.54301e-06
-8.68706e-07
-3.72298e-10
3.90427e-09
-1.80464e-09
1.04183e-08
-4.31153e-09
1.30651e-08
-7.15609e-09
1.08248e-08
-9.40782e-09
6.41741e-09
-1.05686e-08
2.36525e-09
-1.06374e-08
-2.49624e-10
-9.9297e-09
-1.18422e-09
-8.86976e-09
-6.94641e-10
-7.83537e-09
7.05415e-10
-7.07927e-09
2.46385e-09
-6.72341e-09
4.15328e-09
-6.7858e-09
5.52867e-09
-7.22416e-09
6.5174e-09
-7.97255e-09
7.16602e-09
-8.96329e-09
7.56706e-09
-1.01384e-08
7.81404e-09
-1.14438e-08
7.964e-09
-1.28317e-08
8.04693e-09
-1.42506e-08
8.07137e-09
-1.5654e-08
8.0435e-09
-1.69985e-08
7.97819e-09
-1.82551e-08
7.90671e-09
-1.94086e-08
7.86741e-09
-2.04653e-08
7.911e-09
-2.14447e-08
8.07527e-09
-2.23863e-08
8.40639e-09
-2.33346e-08
8.92824e-09
-2.43472e-08
9.67399e-09
-2.54805e-08
1.06543e-08
-2.68e-08
1.19099e-08
-2.83677e-08
1.34391e-08
-3.02591e-08
1.53258e-08
-3.25521e-08
1.75919e-08
-3.53447e-08
2.03848e-08
-3.87663e-08
2.3817e-08
-4.29622e-08
2.81195e-08
-4.81803e-08
3.36242e-08
-5.46833e-08
4.07651e-08
-6.29447e-08
5.01836e-08
-7.354e-08
6.31367e-08
-8.73951e-08
8.03688e-08
-1.05789e-07
1.0576e-07
-1.30969e-07
1.40593e-07
-1.65087e-07
1.92194e-07
-2.15667e-07
2.74631e-07
-2.85975e-07
3.78318e-07
-3.96342e-07
6.23279e-07
-5.83104e-07
9.11832e-07
1.79676e-06
-8.36853e-07
-3.88828e-10
4.29369e-09
-1.66351e-09
1.16937e-08
-3.97101e-09
1.53736e-08
-6.92231e-09
1.37768e-08
-9.72901e-09
9.22479e-09
-1.17372e-08
4.37409e-09
-1.26689e-08
6.82651e-10
-1.26033e-08
-1.24939e-09
-1.1841e-08
-1.45632e-09
-1.07479e-08
-3.87348e-10
-9.64194e-09
1.3585e-09
-8.74683e-09
3.2585e-09
-8.18694e-09
4.96926e-09
-8.01039e-09
6.34131e-09
-8.21699e-09
7.37287e-09
-8.78011e-09
8.13088e-09
-9.66279e-09
8.69677e-09
-1.08171e-08
9.11932e-09
-1.21899e-08
9.41985e-09
-1.37151e-08
9.59762e-09
-1.5323e-08
9.65162e-09
-1.69409e-08
9.59683e-09
-1.85072e-08
9.47327e-09
-1.99754e-08
9.33635e-09
-2.13245e-08
9.26001e-09
-2.2554e-08
9.30604e-09
-2.36914e-08
9.54372e-09
-2.47768e-08
1.00149e-08
-2.58695e-08
1.07669e-08
-2.70327e-08
1.18185e-08
-2.83405e-08
1.32179e-08
-2.9867e-08
1.49669e-08
-3.16968e-08
1.71554e-08
-3.39219e-08
1.98188e-08
-3.66461e-08
2.31088e-08
-4.00126e-08
2.71855e-08
-4.41702e-08
3.22774e-08
-4.93774e-08
3.88327e-08
-5.58993e-08
4.72877e-08
-6.42202e-08
5.85055e-08
-7.48979e-08
7.38147e-08
-8.89081e-08
9.43806e-08
-1.0741e-07
1.24262e-07
-1.32791e-07
1.65977e-07
-1.67095e-07
2.26498e-07
-2.17233e-07
3.24773e-07
-2.88485e-07
4.49571e-07
-3.94349e-07
7.29146e-07
-5.75462e-07
1.09294e-06
2.0278e-06
-8.06506e-07
-4.26905e-10
4.72121e-09
-1.66924e-09
1.29367e-08
-3.85456e-09
1.75599e-08
-6.80297e-09
1.67259e-08
-9.92701e-09
1.23495e-08
-1.25892e-08
7.03695e-09
-1.43642e-08
2.45823e-09
-1.51221e-08
-4.90997e-10
-1.49851e-08
-1.59273e-09
-1.42179e-08
-1.15417e-09
-1.31196e-08
2.6075e-10
-1.19569e-08
2.09618e-09
-1.09329e-08
3.94578e-09
-1.01851e-08
5.5939e-09
-9.79581e-09
6.98388e-09
-9.80605e-09
8.14182e-09
-1.02292e-08
9.11997e-09
-1.10524e-08
9.9436e-09
-1.22442e-08
1.06117e-08
-1.37466e-08
1.11011e-08
-1.54845e-08
1.13899e-08
-1.73664e-08
1.14794e-08
-1.93001e-08
1.14072e-08
-2.12016e-08
1.12386e-08
-2.30109e-08
1.10692e-08
-2.46924e-08
1.09887e-08
-2.62454e-08
1.10968e-08
-2.76921e-08
1.14627e-08
-2.90819e-08
1.21571e-08
-3.04776e-08
1.32152e-08
-3.19569e-08
1.46974e-08
-3.36048e-08
1.66159e-08
-3.55148e-08
1.90653e-08
-3.77941e-08
2.21e-08
-4.05561e-08
2.58706e-08
-4.39579e-08
3.05892e-08
-4.81577e-08
3.64777e-08
-5.34214e-08
4.40977e-08
-6.00241e-08
5.3891e-08
-6.84493e-08
6.69317e-08
-7.9253e-08
8.46187e-08
-9.34111e-08
1.0854e-07
-1.12044e-07
1.42895e-07
-1.37459e-07
1.91394e-07
-1.71866e-07
2.60906e-07
-2.21033e-07
3.73943e-07
-2.92392e-07
5.20931e-07
-3.93695e-07
8.30451e-07
-5.62901e-07
1.26215e-06
2.23368e-06
-7.68783e-07
-4.59761e-10
5.1816e-09
-1.74041e-09
1.42181e-08
-3.90292e-09
1.97235e-08
-6.83729e-09
1.96609e-08
-1.01051e-08
1.5618e-08
-1.31632e-08
1.00957e-08
-1.55653e-08
4.86093e-09
-1.70674e-08
1.01157e-09
-1.76425e-08
-1.01697e-09
-1.74268e-08
-1.36951e-09
-1.66407e-08
-5.24753e-10
-1.55281e-08
9.83975e-10
-1.43154e-08
2.73354e-09
-1.31929e-08
4.4719e-09
-1.23098e-08
6.10099e-09
-1.17747e-08
7.60746e-09
-1.16637e-08
9.00901e-09
-1.20189e-08
1.02999e-08
-1.28552e-08
1.1448e-08
-1.41506e-08
1.23976e-08
-1.58523e-08
1.30919e-08
-1.78737e-08
1.35016e-08
-2.01094e-08
1.36432e-08
-2.2446e-08
1.3576e-08
-2.47827e-08
1.34059e-08
-2.704e-08
1.32472e-08
-2.91751e-08
1.32318e-08
-3.11758e-08
1.34647e-08
-3.30671e-08
1.40487e-08
-3.48982e-08
1.50472e-08
-3.67411e-08
1.65406e-08
-3.86844e-08
1.85605e-08
-4.08282e-08
2.12089e-08
-4.32918e-08
2.45656e-08
-4.62002e-08
2.87788e-08
-4.97226e-08
3.41135e-08
-5.40322e-08
4.07876e-08
-5.93974e-08
4.94642e-08
-6.61123e-08
6.06066e-08
-7.46442e-08
7.54646e-08
-8.55668e-08
9.55416e-08
-9.9805e-08
1.2278e-07
-1.18494e-07
1.61584e-07
-1.43727e-07
2.1663e-07
-1.77922e-07
2.95101e-07
-2.25748e-07
4.21772e-07
-2.95669e-07
5.90854e-07
-3.91538e-07
9.26322e-07
-5.44537e-07
1.41515e-06
2.41034e-06
-7.2119e-07
-4.82308e-10
5.66456e-09
-1.82414e-09
1.55606e-08
-4.0324e-09
2.19327e-08
-6.99261e-09
2.26219e-08
-1.03313e-08
1.89574e-08
-1.35916e-08
1.33567e-08
-1.63703e-08
7.6402e-09
-1.8398e-08
3.03976e-09
-1.95698e-08
1.55453e-10
-1.99229e-08
-1.01603e-09
-1.9589e-08
-8.58038e-10
-1.87523e-08
1.477e-10
-1.76146e-08
1.5963e-09
-1.63731e-08
3.23086e-09
-1.5207e-08
4.93516e-09
-1.42692e-08
6.67042e-09
-1.3687e-08
8.42687e-09
-1.35571e-08
1.0171e-08
-1.39497e-08
1.18407e-08
-1.48965e-08
1.33455e-08
-1.63912e-08
1.45868e-08
-1.83801e-08
1.54912e-08
-2.07714e-08
1.60348e-08
-2.34438e-08
1.62491e-08
-2.62692e-08
1.62313e-08
-2.91271e-08
1.61063e-08
-3.1928e-08
1.60326e-08
-3.46145e-08
1.61525e-08
-3.7173e-08
1.66075e-08
-3.96244e-08
1.74997e-08
-4.20226e-08
1.8939e-08
-4.44488e-08
2.09879e-08
-4.70018e-08
2.37618e-08
-4.98071e-08
2.73727e-08
-5.29991e-08
3.19707e-08
-5.67552e-08
3.78715e-08
-6.1266e-08
4.52988e-08
-6.67975e-08
5.49971e-08
-7.36683e-08
6.7478e-08
-8.23187e-08
8.41161e-08
-9.33476e-08
1.06571e-07
-1.07604e-07
1.37038e-07
-1.26234e-07
1.80214e-07
-1.51099e-07
2.41498e-07
-1.84676e-07
3.28679e-07
-2.30713e-07
4.67812e-07
-2.97638e-07
6.5778e-07
-3.87016e-07
1.0157e-06
-5.20871e-07
1.549e-06
2.55456e-06
-6.65097e-07
-4.98957e-10
6.16417e-09
-1.90265e-09
1.6965e-08
-4.18763e-09
2.42188e-08
-7.21499e-09
2.56499e-08
-1.06187e-08
2.23619e-08
-1.39849e-08
1.67236e-08
-1.69583e-08
1.06143e-08
-1.92913e-08
5.37324e-09
-2.08611e-08
1.72585e-09
-2.16564e-08
-2.20388e-10
-2.17473e-08
-7.66481e-10
-2.12591e-08
-3.40146e-10
-2.0349e-08
6.86729e-10
-1.91902e-08
2.07256e-09
-1.7958e-08
3.70316e-09
-1.68181e-08
5.53128e-09
-1.59238e-08
7.53264e-09
-1.54084e-08
9.65664e-09
-1.53879e-08
1.18203e-08
-1.59471e-08
1.39058e-08
-1.71357e-08
1.57758e-08
-1.89514e-08
1.73077e-08
-2.13406e-08
1.84242e-08
-2.42002e-08
1.91095e-08
-2.73975e-08
1.94286e-08
-3.07875e-08
1.94976e-08
-3.42414e-08
1.94865e-08
-3.76563e-08
1.95686e-08
-4.09734e-08
1.99249e-08
-4.41749e-08
2.07021e-08
-4.72844e-08
2.20488e-08
-5.03635e-08
2.40682e-08
-5.35004e-08
2.68985e-08
-5.68165e-08
3.06906e-08
-6.04508e-08
3.5605e-08
-6.45818e-08
4.20043e-08
-6.94158e-08
5.01331e-08
-7.52112e-08
6.07938e-08
-8.231e-08
7.45774e-08
-9.11219e-08
9.29291e-08
-1.02262e-07
1.17711e-07
-1.16504e-07
1.51282e-07
-1.34966e-07
1.98676e-07
-1.59301e-07
2.65836e-07
-1.91885e-07
3.61263e-07
-2.35693e-07
5.11623e-07
-2.98439e-07
7.20527e-07
-3.79498e-07
1.09676e-06
-4.92683e-07
1.66218e-06
2.66382e-06
-6.0194e-07
-5.14154e-10
6.679e-09
-1.97632e-09
1.84279e-08
-4.34613e-09
2.65896e-08
-7.46456e-09
2.87691e-08
-1.09496e-08
2.58477e-08
-1.43951e-08
2.01697e-08
-1.74726e-08
1.36925e-08
-1.99612e-08
7.86227e-09
-2.17505e-08
3.51586e-09
-2.28214e-08
8.50788e-10
-2.3217e-08
-3.7019e-10
-2.30259e-08
-5.30842e-10
-2.23673e-08
2.85634e-11
-2.13824e-08
1.08813e-09
-2.02252e-08
2.54624e-09
-1.90523e-08
4.35915e-09
-1.8019e-08
6.49943e-09
-1.72721e-08
8.91077e-09
-1.6953e-08
1.15013e-08
-1.71848e-08
1.41386e-08
-1.80658e-08
1.66571e-08
-1.96474e-08
1.889e-08
-2.19261e-08
2.07032e-08
-2.48363e-08
2.20205e-08
-2.82636e-08
2.28558e-08
-3.20598e-08
2.3295e-08
-3.6074e-08
2.35007e-08
-4.01682e-08
2.3664e-08
-4.42418e-08
2.39989e-08
-4.82361e-08
2.46975e-08
-5.21384e-08
2.59513e-08
-5.59817e-08
2.79128e-08
-5.98346e-08
3.07513e-08
-6.38047e-08
3.46625e-08
-6.80281e-08
3.98285e-08
-7.26762e-08
4.66542e-08
-7.79652e-08
5.54225e-08
-8.41413e-08
6.69713e-08
-9.15616e-08
8.19982e-08
-1.00607e-07
1.01975e-07
-1.11888e-07
1.28993e-07
-1.26119e-07
1.65514e-07
-1.44337e-07
2.16895e-07
-1.68024e-07
2.89525e-07
-1.99312e-07
3.92552e-07
-2.40478e-07
5.52792e-07
-2.98112e-07
7.78162e-07
-3.69835e-07
1.16849e-06
-4.611e-07
1.75345e-06
2.73873e-06
-5.36019e-07
-5.29847e-10
7.20953e-09
-2.0495e-09
1.99484e-08
-4.5048e-09
2.9046e-08
-7.72368e-09
3.19887e-08
-1.13046e-08
2.94294e-08
-1.48317e-08
2.36974e-08
-1.79838e-08
1.68453e-08
-2.05558e-08
1.04348e-08
-2.24537e-08
5.41445e-09
-2.36674e-08
2.06486e-09
-2.42381e-08
2.01111e-10
-2.42407e-08
-5.27819e-10
-2.37738e-08
-4.37893e-10
-2.29556e-08
2.70432e-10
-2.19191e-08
1.51001e-09
-2.0804e-08
3.24484e-09
-1.97548e-08
5.4503e-09
-1.8915e-08
8.07193e-09
-1.84322e-08
1.10187e-08
-1.84481e-08
1.41555e-08
-1.90927e-08
1.73021e-08
-2.04601e-08
2.02582e-08
-2.2594e-08
2.28373e-08
-2.54723e-08
2.48996e-08
-2.90124e-08
2.63959e-08
-3.30811e-08
2.73648e-08
-3.75239e-08
2.79435e-08
-4.21836e-08
2.83249e-08
-4.69299e-08
2.87456e-08
-5.16692e-08
2.94377e-08
-5.63541e-08
3.06364e-08
-6.09864e-08
3.25463e-08
-6.56105e-08
3.53753e-08
-7.03135e-08
3.93672e-08
-7.52216e-08
4.47366e-08
-8.04922e-08
5.19267e-08
-8.63435e-08
6.12743e-08
-9.3006e-08
7.36351e-08
-1.00839e-07
8.98321e-08
-1.10199e-07
1.11336e-07
-1.21671e-07
1.40465e-07
-1.35918e-07
1.79763e-07
-1.53864e-07
2.34841e-07
-1.76832e-07
3.12496e-07
-2.06621e-07
4.22341e-07
-2.4492e-07
5.91094e-07
-2.96779e-07
8.30022e-07
-3.58233e-07
1.22994e-06
-4.28259e-07
1.82347e-06
2.78104e-06
-4.70569e-07
-5.46352e-10
7.75658e-09
-2.12488e-09
2.15277e-08
-4.66622e-09
3.15885e-08
-7.98868e-09
3.5312e-08
-1.16732e-08
3.31147e-08
-1.52894e-08
2.73143e-08
-1.85133e-08
2.00698e-08
-2.11451e-08
1.30671e-08
-2.31008e-08
7.37084e-09
-2.43812e-08
3.34561e-09
-2.50345e-08
8.55073e-10
-2.51364e-08
-4.25547e-10
-2.47797e-08
-7.94057e-10
-2.40727e-08
-4.3612e-10
-2.31356e-08
5.73238e-10
-2.20956e-08
2.2055e-09
-2.10848e-08
4.43963e-09
-2.02372e-08
7.22537e-09
-1.96957e-08
1.04774e-08
-1.96056e-08
1.40664e-08
-2.01116e-08
1.78084e-08
-2.13336e-08
2.14809e-08
-2.33497e-08
2.48537e-08
-2.61759e-08
2.77266e-08
-2.97631e-08
2.99831e-08
-3.40014e-08
3.16043e-08
-3.87461e-08
3.26882e-08
-4.38361e-08
3.34161e-08
-4.91253e-08
3.40351e-08
-5.44965e-08
3.48099e-08
-5.98756e-08
3.60158e-08
-6.5237e-08
3.7909e-08
-7.06017e-08
4.074e-08
-7.60343e-08
4.48015e-08
-8.16475e-08
5.03499e-08
-8.7581e-08
5.78619e-08
-9.40472e-08
6.77409e-08
-1.01259e-07
8.08485e-08
-1.09567e-07
9.81408e-08
-1.19306e-07
1.21076e-07
-1.31015e-07
1.52174e-07
-1.45316e-07
1.94066e-07
-1.62998e-07
2.52523e-07
-1.85228e-07
3.34729e-07
-2.13438e-07
4.50551e-07
-2.48749e-07
6.26408e-07
-2.94573e-07
8.75846e-07
-3.45654e-07
1.28103e-06
-3.958e-07
1.87362e-06
2.79384e-06
-4.08596e-07
-5.63527e-10
8.32081e-09
-2.2028e-09
2.31677e-08
-4.83249e-09
3.42192e-08
-8.26059e-09
3.87408e-08
-1.20527e-08
3.69076e-08
-1.57634e-08
3.10257e-08
-1.90627e-08
2.33698e-08
-2.17509e-08
1.57558e-08
-2.37483e-08
9.36894e-09
-2.50628e-08
4.66056e-09
-2.57502e-08
1.54305e-09
-2.5891e-08
-2.84352e-10
-2.55801e-08
-1.10441e-09
-2.49249e-08
-1.09081e-09
-2.40424e-08
-3.09007e-10
-2.30541e-08
1.2179e-09
-2.20851e-08
3.47075e-09
-2.12615e-08
6.40273e-09
-2.07192e-08
9.93531e-09
-2.06003e-08
1.39485e-08
-2.10521e-08
1.82606e-08
-2.22071e-08
2.26367e-08
-2.4164e-08
2.68109e-08
-2.69632e-08
3.05266e-08
-3.05819e-08
3.36018e-08
-3.49332e-08
3.59567e-08
-3.98873e-08
3.76423e-08
-4.52882e-08
3.88183e-08
-5.09858e-08
3.97331e-08
-5.6851e-08
4.06761e-08
-6.27931e-08
4.19581e-08
-6.87667e-08
4.38838e-08
-7.47746e-08
4.67478e-08
-8.08616e-08
5.08902e-08
-8.71268e-08
5.66151e-08
-9.36922e-08
6.4429e-08
-1.0076e-07
7.48089e-08
-1.08526e-07
8.86161e-08
-1.17322e-07
1.06937e-07
-1.27463e-07
1.31218e-07
-1.39434e-07
1.64146e-07
-1.53816e-07
2.08449e-07
-1.7126e-07
2.69967e-07
-1.92764e-07
3.56235e-07
-2.19408e-07
4.77196e-07
-2.51743e-07
6.58745e-07
-2.91629e-07
9.15734e-07
-3.32708e-07
1.32211e-06
-3.64955e-07
1.90586e-06
2.78145e-06
-3.52571e-07
-5.81272e-10
8.90281e-09
-2.28318e-09
2.48704e-08
-5.00445e-09
3.69416e-08
-8.54067e-09
4.22778e-08
-1.24432e-08
4.08109e-08
-1.62516e-08
3.48347e-08
-1.96295e-08
2.67484e-08
-2.23758e-08
1.85026e-08
-2.44124e-08
1.14063e-08
-2.57514e-08
5.9999e-09
-2.64534e-08
2.24569e-09
-2.6604e-08
-1.33415e-10
-2.63019e-08
-1.40595e-09
-2.56577e-08
-1.7345e-09
-2.47903e-08
-1.17613e-09
-2.38217e-08
2.50007e-10
-2.28756e-08
2.52476e-09
-2.20749e-08
5.60303e-09
-2.15514e-08
9.41205e-09
-2.14436e-08
1.38416e-08
-2.18981e-08
1.87155e-08
-2.30501e-08
2.37894e-08
-2.50061e-08
2.87672e-08
-2.78211e-08
3.33423e-08
-3.14882e-08
3.72689e-08
-3.59363e-08
4.0406e-08
-4.10486e-08
4.27547e-08
-4.66774e-08
4.44481e-08
-5.26743e-08
4.57304e-08
-5.89069e-08
4.69097e-08
-6.52768e-08
4.83282e-08
-7.17273e-08
5.03355e-08
-7.82494e-08
5.32698e-08
-8.48735e-08
5.75161e-08
-9.16881e-08
6.34298e-08
-9.88005e-08
7.15431e-08
-1.064e-07
8.24088e-08
-1.1467e-07
9.68871e-08
-1.23915e-07
1.16183e-07
-1.34437e-07
1.4174e-07
-1.46661e-07
1.7637e-07
-1.61122e-07
2.22912e-07
-1.78344e-07
2.87189e-07
-1.99146e-07
3.77039e-07
-2.24284e-07
5.02334e-07
-2.53731e-07
6.88195e-07
-2.88028e-07
9.50031e-07
-3.19769e-07
1.35385e-06
-3.36544e-07
1.92264e-06
2.74838e-06
-3.03478e-07
-5.9958e-10
9.50312e-09
-2.366e-09
2.66377e-08
-5.18229e-09
3.97591e-08
-8.82951e-09
4.59259e-08
-1.28454e-08
4.48276e-08
-1.6754e-08
3.87441e-08
-2.02126e-08
3.02077e-08
-2.30188e-08
2.13094e-08
-2.50953e-08
1.34835e-08
-2.6457e-08
7.3619e-09
-2.71679e-08
2.95726e-09
-2.73172e-08
1.62878e-11
-2.70074e-08
-1.71523e-09
-2.6353e-08
-2.38849e-09
-2.54766e-08
-2.05223e-09
-2.45037e-08
-7.22199e-10
-2.35602e-08
1.5814e-09
-2.27701e-08
4.81392e-09
-2.2265e-08
8.90714e-09
-2.21822e-08
1.37598e-08
-2.26675e-08
1.92012e-08
-2.38564e-08
2.4979e-08
-2.58577e-08
3.07687e-08
-2.87305e-08
3.62159e-08
-3.2475e-08
4.10134e-08
-3.7028e-08
4.49601e-08
-4.22805e-08
4.80073e-08
-4.8091e-08
5.02597e-08
-5.4315e-08
5.19547e-08
-6.08204e-08
5.34161e-08
-6.7507e-08
5.50151e-08
-7.43127e-08
5.71423e-08
-8.12234e-08
6.01805e-08
-8.82611e-08
6.45554e-08
-9.55054e-08
7.06741e-08
-1.03054e-07
7.90938e-08
-1.11086e-07
9.04404e-08
-1.19772e-07
1.05575e-07
-1.29393e-07
1.25805e-07
-1.40235e-07
1.52583e-07
-1.52665e-07
1.88801e-07
-1.67171e-07
2.37419e-07
-1.84164e-07
3.04182e-07
-2.04274e-07
3.97151e-07
-2.27958e-07
5.26019e-07
-2.54656e-07
7.14895e-07
-2.83774e-07
9.79149e-07
-3.07017e-07
1.37709e-06
-3.10654e-07
1.92627e-06
2.69899e-06
-2.61261e-07
-6.18485e-10
1.01223e-08
-2.45122e-09
2.84712e-08
-5.36603e-09
4.2675e-08
-9.12731e-09
4.96879e-08
-1.32595e-08
4.89606e-08
-1.7271e-08
4.27563e-08
-2.0812e-08
3.37494e-08
-2.36793e-08
2.41772e-08
-2.57964e-08
1.56013e-08
-2.71806e-08
8.7465e-09
-2.78991e-08
3.67632e-09
-2.80437e-08
1.61272e-10
-2.77201e-08
-2.03835e-09
-2.70464e-08
-3.0617e-09
-2.61495e-08
-2.94882e-09
-2.5159e-08
-1.71196e-09
-2.42048e-08
6.27287e-10
-2.34141e-08
4.02418e-09
-2.29212e-08
8.41443e-09
-2.28653e-08
1.37048e-08
-2.33931e-08
1.97294e-08
-2.46401e-08
2.62267e-08
-2.6715e-08
3.28438e-08
-2.96767e-08
3.91784e-08
-3.35259e-08
4.48626e-08
-3.82009e-08
4.96361e-08
-4.35949e-08
5.34014e-08
-4.9569e-08
5.62349e-08
-5.5981e-08
5.8367e-08
-6.27003e-08
6.01363e-08
-6.9627e-08
6.19421e-08
-7.66978e-08
6.42143e-08
-8.38963e-08
6.7379e-08
-9.12403e-08
7.1901e-08
-9.88059e-08
7.82398e-08
-1.06685e-07
8.69745e-08
-1.15044e-07
9.87998e-08
-1.2405e-07
1.14582e-07
-1.33955e-07
1.35711e-07
-1.45035e-07
1.63664e-07
-1.57602e-07
2.01368e-07
-1.72092e-07
2.51911e-07
-1.88814e-07
3.20904e-07
-2.08201e-07
4.16541e-07
-2.30447e-07
5.48265e-07
-2.54496e-07
7.38945e-07
-2.78784e-07
1.00344e-06
-2.94356e-07
1.39266e-06
-2.86872e-07
1.91878e-06
2.63693e-06
-2.24821e-07
-6.38025e-10
1.07611e-08
-2.53885e-09
3.03729e-08
-5.5557e-09
4.5693e-08
-9.4342e-09
5.35673e-08
-1.36859e-08
5.32131e-08
-1.78029e-08
4.6874e-08
-2.1428e-08
3.73753e-08
-2.43573e-08
2.7107e-08
-2.65155e-08
1.77602e-08
-2.79222e-08
1.01536e-08
-2.86474e-08
4.4022e-09
-2.87859e-08
3.00134e-10
-2.84461e-08
-2.37763e-09
-2.77497e-08
-3.75762e-09
-2.68276e-08
-3.87063e-09
-2.58137e-08
-2.72521e-09
-2.4842e-08
-3.44318e-10
-2.4044e-08
3.2272e-09
-2.35584e-08
7.92897e-09
-2.3528e-08
1.36753e-08
-2.41021e-08
2.03039e-08
-2.54175e-08
2.75428e-08
-2.75819e-08
3.50085e-08
-3.06522e-08
4.22495e-08
-3.46263e-08
4.88367e-08
-3.94397e-08
5.44506e-08
-4.49839e-08
5.89457e-08
-5.11191e-08
6.23712e-08
-5.77031e-08
6.49513e-08
-6.46058e-08
6.70398e-08
-7.1728e-08
6.90645e-08
-7.90064e-08
7.14939e-08
-8.64246e-08
7.47972e-08
-9.39991e-08
7.94771e-08
-1.01803e-07
8.60435e-08
-1.09925e-07
9.50985e-08
-1.18523e-07
1.07398e-07
-1.27759e-07
1.23819e-07
-1.37863e-07
1.45815e-07
-1.49094e-07
1.74897e-07
-1.6172e-07
2.13994e-07
-1.76114e-07
2.66306e-07
-1.92502e-07
3.37291e-07
-2.11122e-07
4.35163e-07
-2.31917e-07
5.69061e-07
-2.53374e-07
7.60404e-07
-2.73135e-07
1.0232e-06
-2.81791e-07
1.40132e-06
-2.64895e-07
1.90188e-06
2.56513e-06
-1.93094e-07
-6.58239e-10
1.14201e-08
-2.62889e-09
3.23444e-08
-5.75134e-09
4.88166e-08
-9.75029e-09
5.7567e-08
-1.41245e-08
5.75881e-08
-1.83498e-08
5.11e-08
-2.20609e-08
4.10871e-08
-2.50532e-08
3.00998e-08
-2.72528e-08
1.99605e-08
-2.86818e-08
1.15829e-08
-2.94131e-08
5.13415e-09
-2.95443e-08
4.3175e-10
-2.9187e-08
-2.73453e-09
-2.84661e-08
-4.478e-09
-2.75167e-08
-4.81978e-09
-2.64767e-08
-3.7645e-09
-2.54846e-08
-1.33633e-09
-2.46764e-08
2.41998e-09
-2.41956e-08
7.44834e-09
-2.41898e-08
1.36705e-08
-2.4812e-08
2.09266e-08
-2.6201e-08
2.89325e-08
-2.84638e-08
3.72715e-08
-3.16546e-08
4.5441e-08
-3.57668e-08
5.29489e-08
-4.07314e-08
5.94162e-08
-4.64352e-08
6.46496e-08
-5.27353e-08
6.86723e-08
-5.94876e-08
7.1704e-08
-6.65611e-08
7.41142e-08
-7.38568e-08
7.63605e-08
-8.13114e-08
7.89496e-08
-8.89089e-08
8.23947e-08
-9.66655e-08
8.72352e-08
-1.04652e-07
9.40299e-08
-1.12957e-07
1.03405e-07
-1.21727e-07
1.16169e-07
-1.31124e-07
1.33217e-07
-1.41352e-07
1.56044e-07
-1.52658e-07
1.86203e-07
-1.65263e-07
2.26599e-07
-1.7948e-07
2.80525e-07
-1.9545e-07
3.53261e-07
-2.13219e-07
4.52934e-07
-2.32493e-07
5.88335e-07
-2.51351e-07
7.79264e-07
-2.66776e-07
1.03862e-06
-2.69067e-07
1.40361e-06
-2.44059e-07
1.87687e-06
2.48569e-06
-1.64621e-07
-6.79169e-10
1.21e-08
-2.72137e-09
3.43875e-08
-5.95297e-09
5.20494e-08
-1.00757e-08
6.16906e-08
-1.45757e-08
6.20889e-08
-1.89122e-08
5.54372e-08
-2.27111e-08
4.48867e-08
-2.57676e-08
3.31568e-08
-2.80089e-08
2.22026e-08
-2.94599e-08
1.30342e-08
-3.01965e-08
5.87138e-09
-3.03193e-08
5.54966e-10
-2.9943e-08
-3.11042e-09
-2.91962e-08
-5.22431e-09
-2.82179e-08
-5.79773e-09
-2.71506e-08
-4.83125e-09
-2.61366e-08
-2.35011e-09
-2.53171e-08
1.60136e-09
-2.48404e-08
6.97185e-09
-2.48595e-08
1.36904e-08
-2.55316e-08
2.1599e-08
-2.69978e-08
3.03993e-08
-2.93648e-08
3.96388e-08
-3.26837e-08
4.87607e-08
-3.69431e-08
5.72083e-08
-4.20678e-08
6.45418e-08
-4.79391e-08
7.0521e-08
-5.44094e-08
7.51436e-08
-6.13314e-08
7.86263e-08
-6.85722e-08
8.13558e-08
-7.60322e-08
8.38207e-08
-8.3648e-08
8.65664e-08
-9.14033e-08
9.015e-08
-9.93145e-08
9.51478e-08
-1.0745e-07
1.02165e-07
-1.15897e-07
1.11854e-07
-1.24796e-07
1.25068e-07
-1.34301e-07
1.42723e-07
-1.44598e-07
1.66341e-07
-1.55914e-07
1.97519e-07
-1.6843e-07
2.39116e-07
-1.8239e-07
2.94485e-07
-1.97853e-07
3.68725e-07
-2.14677e-07
4.6976e-07
-2.32337e-07
6.05995e-07
-2.48548e-07
7.95476e-07
-2.59752e-07
1.04983e-06
-2.56113e-07
1.39997e-06
-2.23985e-07
1.84474e-06
2.40018e-06
-1.38476e-07
-7.00853e-10
1.28017e-08
-2.81628e-09
3.65038e-08
-6.16058e-09
5.53948e-08
-1.04105e-08
6.59413e-08
-1.50393e-08
6.67185e-08
-1.949e-08
5.98886e-08
-2.33789e-08
4.87764e-08
-2.65006e-08
3.62791e-08
-2.87842e-08
2.44869e-08
-3.02569e-08
1.45072e-08
-3.0998e-08
6.61312e-09
-3.11113e-08
6.68609e-10
-3.07146e-08
-3.50668e-09
-2.99405e-08
-5.99799e-09
-2.8932e-08
-6.80585e-09
-2.7836e-08
-5.92666e-09
-2.67994e-08
-3.38657e-09
-2.5968e-08
7.70826e-10
-2.54956e-08
6.49959e-09
-2.55405e-08
1.37362e-08
-2.62645e-08
2.23234e-08
-2.78112e-08
3.19466e-08
-3.02871e-08
4.21149e-08
-3.374e-08
5.22143e-08
-3.81531e-08
6.16213e-08
-4.34447e-08
6.98343e-08
-4.94896e-08
7.6566e-08
-5.6135e-08
8.17899e-08
-6.32295e-08
8.57211e-08
-7.06378e-08
8.87649e-08
-7.8259e-08
9.14422e-08
-8.6029e-08
9.43374e-08
-9.39312e-08
9.80522e-08
-1.01982e-07
1.032e-07
-1.10246e-07
1.1043e-07
-1.18812e-07
1.20421e-07
-1.27808e-07
1.34065e-07
-1.37386e-07
1.52301e-07
-1.47709e-07
1.76665e-07
-1.58981e-07
2.08793e-07
-1.71347e-07
2.51482e-07
-1.84975e-07
3.08114e-07
-1.99844e-07
3.83593e-07
-2.15625e-07
4.85543e-07
-2.31568e-07
6.21938e-07
-2.45065e-07
8.08974e-07
-2.52145e-07
1.05691e-06
-2.42937e-07
1.39076e-06
-2.04438e-07
1.80624e-06
2.30978e-06
-1.14043e-07
-7.23335e-10
1.35258e-08
-2.91364e-09
3.8695e-08
-6.37413e-09
5.88564e-08
-1.07547e-08
7.03227e-08
-1.55154e-08
7.148e-08
-2.00834e-08
6.44574e-08
-2.40645e-08
5.27582e-08
-2.72527e-08
3.94678e-08
-2.95792e-08
2.68139e-08
-3.10735e-08
1.60019e-08
-3.18184e-08
7.35863e-09
-3.1921e-08
7.7154e-10
-3.15025e-08
-3.9247e-09
-3.06996e-08
-6.8005e-09
-2.96596e-08
-7.84553e-09
-2.85338e-08
-7.05191e-09
-2.74736e-08
-4.44658e-09
-2.663e-08
-7.19878e-11
-2.61621e-08
6.03189e-09
-2.6234e-08
1.3809e-08
-2.70122e-08
2.3102e-08
-2.86428e-08
3.35778e-08
-3.12319e-08
4.47042e-08
-3.48239e-08
5.58069e-08
-3.9396e-08
6.61935e-08
-4.486e-08
7.52991e-08
-5.10836e-08
8.27898e-08
-5.79083e-08
8.86155e-08
-6.51782e-08
9.29913e-08
-7.27551e-08
9.63426e-08
-8.05366e-08
9.92238e-08
-8.84576e-08
1.02259e-07
-9.65007e-08
1.06095e-07
-1.04682e-07
1.11382e-07
-1.13063e-07
1.18811e-07
-1.21729e-07
1.29089e-07
-1.30802e-07
1.43137e-07
-1.40423e-07
1.61923e-07
-1.50738e-07
1.8698e-07
-1.61923e-07
2.19978e-07
-1.74084e-07
2.63643e-07
-1.87312e-07
3.21343e-07
-2.01499e-07
3.9778e-07
-2.16142e-07
5.00187e-07
-2.30266e-07
6.36062e-07
-2.40987e-07
8.19697e-07
-2.44021e-07
1.05994e-06
-2.29592e-07
1.37633e-06
-1.85356e-07
1.762e-06
2.21543e-06
-9.10091e-08
-7.46654e-10
1.42732e-08
-3.01346e-09
4.09627e-08
-6.59356e-09
6.24377e-08
-1.11085e-08
7.48384e-08
-1.60043e-08
7.63767e-08
-2.06927e-08
6.91465e-08
-2.47684e-08
5.68345e-08
-2.80244e-08
4.27243e-08
-3.03942e-08
2.91844e-08
-3.19101e-08
1.75182e-08
-3.26582e-08
8.10725e-09
-3.27489e-08
8.62651e-10
-3.23074e-08
-4.36581e-09
-3.14742e-08
-7.6333e-09
-3.04013e-08
-8.91818e-09
-2.92444e-08
-8.20825e-09
-2.81598e-08
-5.53103e-09
-2.73035e-08
-9.27463e-10
-2.68405e-08
5.56907e-09
-2.69408e-08
1.391e-08
-2.77754e-08
2.39369e-08
-2.94931e-08
3.52961e-08
-3.21994e-08
4.74107e-08
-3.5935e-08
5.95432e-08
-4.06713e-08
7.09297e-08
-4.63124e-08
8.09411e-08
-5.27192e-08
8.91966e-08
-5.97267e-08
9.56239e-08
-6.71746e-08
1.00439e-07
-7.49214e-08
1.0409e-07
-8.28628e-08