/*--------------------------------*- C++ -*----------------------------------*\
  =========                 |
  \\      /  F ield         | OpenFOAM: The Open Source CFD Toolbox
   \\    /   O peration     | Website:  https://openfoam.org
    \\  /    A nd           | Version:  7
     \\/     M anipulation  |
\*---------------------------------------------------------------------------*/
FoamFile
{
    version     2.0;
    format      ascii;
    class       volScalarField;
    location    "0.37";
    object      nut;
}
// * * * * * * * * * * * * * * * * * * * * * * * * * * * * * * * * * * * * * //

dimensions      [0 2 -1 0 0 0 0];

internalField   nonuniform List<scalar> 
70000
(
9.96263e-12
6.87893e-14
2.56969e-16
8.66517e-17
4.75151e-17
7.81821e-17
2.73889e-17
1.27607e-17
8.62436e-18
6.27303e-18
4.57715e-18
3.39548e-18
2.57562e-18
1.99285e-18
1.56764e-18
1.25045e-18
1.00945e-18
8.23147e-19
6.77166e-19
5.61126e-19
4.67849e-19
3.92012e-19
3.29736e-19
2.78132e-19
2.34981e-19
1.98666e-19
1.67736e-19
1.41503e-19
1.18606e-19
9.93236e-20
8.18438e-20
6.75919e-20
5.38968e-20
4.3504e-20
3.27648e-20
2.52241e-20
1.76316e-20
1.1467e-20
8.4391e-21
2.17723e-21
5.33347e-21
1.42957e-22
1.71686e-20
1.09044e-19
4.39131e-19
5.13215e-18
1.75672e-17
1.80154e-16
6.64641e-15
6.67927e-13
1.04273e-10
5.98824e-12
6.44653e-14
2.14266e-14
2.89279e-16
1.69873e-17
2.52033e-17
2.11536e-17
1.2283e-17
7.30287e-18
4.78094e-18
3.32813e-18
2.4043e-18
1.78611e-18
1.3582e-18
1.05364e-18
8.31386e-19
6.65795e-19
5.39895e-19
4.42629e-19
3.66319e-19
3.05639e-19
2.56827e-19
2.17095e-19
1.84484e-19
1.57366e-19
1.34841e-19
1.15588e-19
9.96749e-20
8.54403e-20
7.41235e-20
6.31233e-20
5.52205e-20
4.63048e-20
4.08658e-20
3.37787e-20
2.91353e-20
2.58563e-20
1.77194e-20
2.59139e-20
6.44422e-21
5.66608e-20
2.99905e-20
4.49365e-19
2.1229e-18
1.1774e-17
7.17484e-17
4.89997e-16
2.62775e-14
8.76087e-14
3.19149e-10
3.39943e-12
1.91142e-13
1.99341e-14
7.73041e-16
5.95456e-17
7.5736e-18
4.34778e-18
2.23656e-18
1.12677e-18
6.34267e-19
3.94579e-19
2.6127e-19
1.8043e-19
1.28877e-19
9.48188e-20
7.16263e-20
5.54424e-20
4.38579e-20
3.54146e-20
2.91487e-20
2.44365e-20
2.08625e-20
1.81336e-20
1.60634e-20
1.44969e-20
1.33801e-20
1.2578e-20
1.21854e-20
1.19851e-20
1.23039e-20
1.27302e-20
1.39643e-20
1.5291e-20
1.793e-20
2.11208e-20
2.58331e-20
3.41445e-20
4.08494e-20
6.6629e-20
7.38305e-20
1.81245e-19
2.53566e-19
1.12865e-18
3.85005e-18
1.84118e-17
1.05377e-16
6.86859e-16
3.0941e-14
1.25003e-13
6.15323e-09
1.92869e-11
7.85491e-13
6.12642e-14
5.53146e-15
9.416e-16
1.1382e-16
3.08955e-17
1.31446e-17
5.97184e-18
2.87991e-18
1.53543e-18
8.96768e-19
5.60289e-19
3.68752e-19
2.53657e-19
1.81564e-19
1.3481e-19
1.03576e-19
8.21933e-20
6.72739e-20
5.67422e-20
4.92984e-20
4.41095e-20
4.06539e-20
3.86036e-20
3.77719e-20
3.80953e-20
3.9581e-20
4.23915e-20
4.67032e-20
5.30634e-20
6.17413e-20
7.4338e-20
9.07681e-20
1.16017e-19
1.47121e-19
2.01246e-19
2.60678e-19
3.90824e-19
5.10108e-19
9.01423e-19
1.27114e-18
3.22756e-18
7.00915e-18
2.45954e-17
1.3301e-16
4.6887e-16
2.51768e-14
1.85911e-13
2.32032e-09
2.23483e-10
4.46499e-12
3.22816e-13
2.32323e-14
4.46765e-15
7.41006e-16
2.1124e-16
8.77188e-17
3.9775e-17
1.91315e-17
1.00534e-17
5.75283e-18
3.52011e-18
2.27187e-18
1.53449e-18
1.07954e-18
7.88294e-19
5.95851e-19
4.65232e-19
3.74623e-19
3.10789e-19
2.65491e-19
2.33479e-19
2.11421e-19
1.97186e-19
1.89456e-19
1.87631e-19
1.91419e-19
2.01393e-19
2.17973e-19
2.43553e-19
2.78719e-19
3.30613e-19
3.97672e-19
5.01828e-19
6.2822e-19
8.49862e-19
1.09013e-18
1.61019e-18
2.08233e-18
3.49204e-18
4.70376e-18
9.65789e-18
1.75847e-17
4.45054e-17
2.00009e-16
2.65726e-16
2.10884e-14
1.61007e-13
3.00745e-09
5.28512e-09
4.37123e-11
1.95288e-12
1.09025e-13
1.82765e-14
3.32882e-15
9.8301e-16
4.06011e-16
1.84756e-16
8.92586e-17
4.67565e-17
2.65093e-17
1.60274e-17
1.02099e-17
6.8037e-18
4.72137e-18
3.40025e-18
2.53452e-18
1.95112e-18
1.54867e-18
1.26601e-18
1.06526e-18
9.22376e-19
8.22007e-19
7.54214e-19
7.12689e-19
6.93981e-19
6.96147e-19
7.20105e-19
7.66638e-19
8.42601e-19
9.49504e-19
1.10894e-18
1.31557e-18
1.63661e-18
2.02495e-18
2.70358e-18
3.43743e-18
5.00325e-18
6.43794e-18
1.04582e-17
1.39522e-17
2.56158e-17
4.43519e-17
8.05249e-17
3.23834e-16
1.73905e-16
1.84693e-14
1.29162e-13
1.07676e-09
4.76771e-09
3.72553e-09
1.85977e-11
6.78129e-13
9.32068e-14
1.55855e-14
4.29606e-15
1.68031e-15
7.43874e-16
3.54208e-16
1.83294e-16
1.02629e-16
6.12675e-17
3.85368e-17
2.53555e-17
1.73712e-17
1.23498e-17
9.08585e-18
6.90226e-18
5.40495e-18
4.35762e-18
3.61474e-18
3.0842e-18
2.70721e-18
2.44543e-18
2.27414e-18
2.17859e-18
2.1498e-18
2.18724e-18
2.29097e-18
2.47722e-18
2.74871e-18
3.16031e-18
3.69746e-18
4.53122e-18
5.54258e-18
7.28967e-18
9.20029e-18
1.31541e-17
1.69185e-17
2.6647e-17
3.57645e-17
6.06816e-17
1.03081e-16
1.48521e-16
5.60371e-16
2.0974e-16
1.63514e-14
1.00606e-13
2.42918e-09
3.87211e-09
8.24596e-10
2.44183e-09
8.72324e-12
7.26238e-13
9.30772e-14
2.14776e-14
7.46537e-15
3.06192e-15
1.38374e-15
6.88647e-16
3.73933e-16
2.17724e-16
1.34088e-16
8.66099e-17
5.83536e-17
4.08465e-17
2.96115e-17
2.21769e-17
1.7125e-17
1.36157e-17
1.11369e-17
9.36723e-18
8.10252e-18
7.20952e-18
6.60179e-18
6.22516e-18
6.04547e-18
6.05184e-18
6.23807e-18
6.63689e-18
7.25181e-18
8.2068e-18
9.46844e-18
1.14247e-17
1.38151e-17
1.7879e-17
2.24066e-17
3.14158e-17
4.04376e-17
6.17752e-17
8.37583e-17
1.33852e-16
2.25912e-16
2.9386e-16
1.01813e-15
4.53537e-16
1.50589e-14
7.45086e-14
3.37094e-09
4.37286e-09
5.92772e-10
3.00783e-10
5.50967e-10
1.89872e-11
9.88157e-13
1.51761e-13
4.19616e-14
1.48727e-14
6.06089e-15
2.7908e-15
1.42711e-15
7.92474e-16
4.69701e-16
2.93897e-16
1.92741e-16
1.31791e-16
9.35748e-17
6.87729e-17
5.21893e-17
4.08182e-17
3.28633e-17
2.72164e-17
2.31819e-17
2.031e-17
1.83094e-17
1.69932e-17
1.62415e-17
1.59982e-17
1.62292e-17
1.699e-17
1.82798e-17
2.03604e-17
2.316e-17
2.75067e-17
3.28716e-17
4.18398e-17
5.2042e-17
7.1523e-17
9.20563e-17
1.3662e-16
1.86818e-16
2.852e-16
4.78402e-16
6.00728e-16
1.87379e-15
1.15033e-15
1.48769e-14
5.39169e-14
3.41264e-09
4.61006e-09
6.74605e-10
1.94223e-10
4.75192e-11
6.77928e-11
3.30633e-10
2.96938e-12
4.16312e-13
1.05649e-13
3.49526e-14
1.39118e-14
6.3872e-15
3.26504e-15
1.81236e-15
1.07521e-15
6.74709e-16
4.44494e-16
3.0569e-16
2.18505e-16
1.61782e-16
1.23755e-16
9.76269e-17
7.93245e-17
6.63486e-17
5.71138e-17
5.06069e-17
4.61728e-17
4.33902e-17
4.20248e-17
4.193e-17
4.31718e-17
4.57147e-17
5.00952e-17
5.61516e-17
6.56224e-17
7.74463e-17
9.69239e-17
1.19531e-16
1.61037e-16
2.06876e-16
2.98871e-16
4.10683e-16
6.0538e-16
1.00502e-15
1.26198e-15
3.49653e-15
2.80898e-15
1.64279e-14
4.10383e-14
3.21364e-09
4.39387e-09
7.76094e-10
2.02921e-10
3.69302e-11
2.21135e-11
1.37384e-11
2.14934e-11
1.8019e-10
2.4868e-12
3.99891e-13
1.10422e-13
4.03282e-14
1.75804e-14
8.66936e-15
4.69155e-15
2.73497e-15
1.69615e-15
1.10905e-15
7.59467e-16
5.41911e-16
4.01357e-16
3.07671e-16
2.43608e-16
1.98979e-16
1.67531e-16
1.45363e-16
1.29985e-16
1.19801e-16
1.13856e-16
1.11533e-16
1.12781e-16
1.17378e-16
1.26416e-16
1.39467e-16
1.60256e-16
1.86557e-16
2.29441e-16
2.8014e-16
3.69954e-16
4.73328e-16
6.66674e-16
9.17212e-16
1.31462e-15
2.15265e-15
2.74134e-15
6.7427e-15
6.55078e-15
2.10372e-14
3.5958e-14
3.01937e-09
3.97565e-09
8.49017e-10
2.13949e-10
3.92711e-11
2.04465e-11
8.84784e-12
4.78422e-12
4.40909e-12
7.2055e-12
7.88838e-11
6.067e-12
6.87073e-13
1.80981e-13
6.64748e-14
2.95153e-14
1.48983e-14
8.27389e-15
4.95566e-15
3.15916e-15
2.12369e-15
1.49534e-15
1.09746e-15
8.36488e-16
6.60515e-16
5.39396e-16
4.55113e-16
3.96528e-16
3.56662e-16
3.31222e-16
3.17419e-16
3.14274e-16
3.20602e-16
3.38595e-16
3.66857e-16
4.13762e-16
4.74181e-16
5.72376e-16
6.90515e-16
8.93233e-16
1.13532e-15
1.56009e-15
2.14103e-15
2.99635e-15
4.82317e-15
6.24014e-15
1.37315e-14
1.51386e-14
3.17777e-14
4.01453e-14
2.8481e-09
3.51585e-09
9.10928e-10
2.11504e-10
4.28726e-11
2.20458e-11
9.29775e-12
4.08992e-12
2.61266e-12
2.0598e-12
1.90221e-12
2.27837e-12
4.67264e-12
8.22671e-11
3.94696e-12
5.68854e-13
1.72242e-13
7.05092e-14
3.43412e-14
1.88189e-14
1.1262e-14
7.22796e-15
4.91709e-15
3.51708e-15
2.6305e-15
2.04916e-15
1.65835e-15
1.39183e-15
1.21006e-15
1.0892e-15
1.01404e-15
9.7722e-16
9.72052e-16
1.00223e-15
1.06209e-15
1.17178e-15
1.31761e-15
1.55691e-15
1.85029e-15
2.34028e-15
2.94544e-15
3.94745e-15
5.38113e-15
7.36972e-15
1.16156e-14
1.52227e-14
3.02661e-14
3.61285e-14
5.74819e-14
6.17551e-14
2.67822e-09
3.06051e-09
9.80194e-10
2.00469e-10
4.61353e-11
2.35865e-11
1.06078e-11
4.4238e-12
2.56507e-12
1.74954e-12
1.26855e-12
9.96598e-13
8.80144e-13
8.98745e-13
1.11711e-12
1.94191e-12
8.15201e-12
2.81589e-11
1.29531e-12
3.28651e-13
1.29668e-13
6.36478e-14
3.58168e-14
2.22149e-14
1.48563e-14
1.05692e-14
7.93077e-15
6.24128e-15
5.13143e-15
4.39717e-15
3.91782e-15
3.6288e-15
3.48193e-15
3.47269e-15
3.57069e-15
3.82713e-15
4.19622e-15
4.82828e-15
5.6237e-15
6.9284e-15
8.59291e-15
1.121e-14
1.50979e-14
2.02387e-14
3.10921e-14
4.10407e-14
7.45142e-14
9.33807e-14
1.25866e-13
1.29691e-13
2.49988e-09
2.62581e-09
1.06033e-09
1.8651e-10
4.95479e-11
2.45696e-11
1.2073e-11
4.98197e-12
2.80736e-12
1.8533e-12
1.26731e-12
9.0001e-13
6.8151e-13
5.53421e-13
4.82022e-13
4.52974e-13
4.65674e-13
5.36935e-13
7.28384e-13
1.29719e-12
4.33284e-12
3.1456e-10
2.49006e-12
5.70118e-13
2.29225e-13
1.18443e-13
7.10865e-14
4.73557e-14
3.41795e-14
2.63599e-14
2.15173e-14
1.85024e-14
1.66511e-14
1.56973e-14
1.53613e-14
1.57377e-14
1.65934e-14
1.8375e-14
2.07551e-14
2.46979e-14
2.99218e-14
3.77945e-14
4.98865e-14
6.52675e-14
9.71228e-14
1.28191e-13
2.14416e-13
2.75975e-13
3.39579e-13
3.58468e-13
2.31367e-09
2.22576e-09
1.146e-09
1.72261e-10
5.35845e-11
2.51301e-11
1.35953e-11
5.61459e-12
3.12307e-12
2.05884e-12
1.39858e-12
9.68972e-13
7.02346e-13
5.34904e-13
4.2593e-13
3.53883e-13
3.07229e-13
2.79544e-13
2.67679e-13
2.71319e-13
2.93582e-13
3.43744e-13
4.45245e-13
6.6495e-13
1.25261e-12
3.86222e-12
1.05802e-11
6.71189e-12
1.36602e-12
5.71571e-13
3.19763e-13
2.11631e-13
1.56833e-13
1.271e-13
1.10178e-13
1.02043e-13
9.89702e-14
1.01774e-13
1.08218e-13
1.21449e-13
1.40688e-13
1.69372e-13
2.1553e-13
2.72374e-13
3.88195e-13
5.06285e-13
7.84247e-13
1.01744e-12
1.19294e-12
1.31556e-12
2.12186e-09
1.86659e-09
1.22989e-09
1.58767e-10
5.82911e-11
2.53987e-11
1.52029e-11
6.32165e-12
3.47287e-12
2.29969e-12
1.57534e-12
1.09055e-12
7.82867e-13
5.86061e-13
4.54623e-13
3.63909e-13
3.00384e-13
2.55832e-13
2.25006e-13
2.04566e-13
1.92494e-13
1.8776e-13
1.90218e-13
2.00655e-13
2.21183e-13
2.56096e-13
3.13834e-13
4.11806e-13
5.89157e-13
9.48351e-13
1.82233e-12
4.81979e-12
2.76715e-11
1.03582e-10
1.01421e-11
3.95674e-12
2.33486e-12
1.71924e-12
1.44004e-12
1.3411e-12
1.34862e-12
1.43881e-12
1.66479e-12
1.94342e-12
2.56041e-12
3.19787e-12
4.53694e-12
5.78446e-12
6.52903e-12
7.41985e-12
1.92612e-09
1.54871e-09
1.3054e-09
1.46801e-10
6.34225e-11
2.54441e-11
1.69005e-11
7.13096e-12
3.86189e-12
2.56627e-12
1.77866e-12
1.23873e-12
8.89788e-13
6.64736e-13
5.13087e-13
4.06955e-13
3.31134e-13
2.76374e-13
2.36622e-13
2.07849e-13
1.87361e-13
1.73364e-13
1.64705e-13
1.60707e-13
1.61112e-13
1.66068e-13
1.76182e-13
1.92692e-13
2.17662e-13
2.54651e-13
3.09258e-13
3.91595e-13
5.18051e-13
7.21489e-13
1.05961e-12
1.66402e-12
2.80456e-12
5.20882e-12
1.08349e-11
2.64963e-11
7.50358e-11
2.39499e-11
2.94982e-10
1.94117e-10
1.4829e-10
1.29307e-10
1.35466e-10
1.47135e-10
1.38998e-10
1.44884e-10
1.72866e-09
1.27198e-09
1.36686e-09
1.37261e-10
6.85746e-11
2.5336e-11
1.86541e-11
8.06695e-12
4.30169e-12
2.86259e-12
2.0084e-12
1.40998e-12
1.01608e-12
7.60677e-13
5.88058e-13
4.66523e-13
3.78959e-13
3.15039e-13
2.67969e-13
2.3317e-13
2.07527e-13
1.88904e-13
1.75833e-13
1.67322e-13
1.62753e-13
1.61823e-13
1.64513e-13
1.71131e-13
1.82286e-13
1.99124e-13
2.23204e-13
2.57302e-13
3.04844e-13
3.72419e-13
4.67776e-13
6.0715e-13
8.09667e-13
1.11659e-12
1.58171e-12
2.30957e-12
3.4751e-12
5.32579e-12
8.48593e-12
1.34335e-11
2.22669e-11
3.52848e-11
5.69158e-11
8.46634e-11
1.18556e-10
1.65493e-10
1.53224e-09
1.03606e-09
1.40939e-09
1.31103e-10
7.32251e-11
2.51749e-11
2.04037e-11
9.14972e-12
4.80298e-12
3.19401e-12
2.26831e-12
1.60712e-12
1.1628e-12
8.73117e-13
6.77168e-13
5.38818e-13
4.387e-13
3.6527e-13
3.10918e-13
2.70472e-13
2.40389e-13
2.18216e-13
2.02238e-13
1.91262e-13
1.84491e-13
1.81463e-13
1.81988e-13
1.86188e-13
1.94414e-13
2.07456e-13
2.26325e-13
2.52909e-13
2.89302e-13
3.39644e-13
4.08231e-13
5.04157e-13
6.36951e-13
8.26391e-13
1.09669e-12
1.48841e-12
2.07257e-12
2.92074e-12
4.25606e-12
6.16607e-12
9.28584e-12
1.35937e-11
2.01488e-11
2.85621e-11
3.8502e-11
5.39094e-11
1.33981e-09
8.39782e-10
1.42895e-09
1.29237e-10
7.67753e-11
2.50923e-11
2.20733e-11
1.03969e-11
5.37676e-12
3.5657e-12
2.56226e-12
1.83428e-12
1.33332e-12
1.00434e-12
7.81765e-13
6.24364e-13
5.10114e-13
4.26099e-13
3.638e-13
3.17382e-13
2.82827e-13
2.57332e-13
2.38925e-13
2.26217e-13
2.18261e-13
2.14482e-13
2.14613e-13
2.18726e-13
2.27132e-13
2.40598e-13
2.6009e-13
2.87418e-13
3.24548e-13
3.75286e-13
4.43572e-13
5.37289e-13
6.64977e-13
8.42593e-13
1.09116e-12
1.4408e-12
1.94961e-12
2.66679e-12
3.75828e-12
5.28523e-12
7.6609e-12
1.09112e-11
1.56053e-11
2.172e-11
2.92009e-11
4.10871e-11
1.15432e-09
6.80835e-10
1.42268e-09
1.32475e-10
7.86646e-11
2.52346e-11
2.358e-11
1.18225e-11
6.03565e-12
3.98329e-12
2.89394e-12
2.09579e-12
1.53168e-12
1.15763e-12
9.04467e-13
7.25261e-13
5.9484e-13
4.98728e-13
4.27408e-13
3.74311e-13
3.34878e-13
3.05919e-13
2.85173e-13
2.71039e-13
2.62412e-13
2.58619e-13
2.59338e-13
2.64646e-13
2.749e-13
2.90969e-13
3.13961e-13
3.45887e-13
3.88984e-13
4.47344e-13
5.2542e-13
6.31366e-13
7.74736e-13
9.71376e-13
1.24408e-12
1.62182e-12
2.16381e-12
2.91777e-12
4.03819e-12
5.59424e-12
7.92859e-12
1.1119e-11
1.55829e-11
2.1476e-11
2.90244e-11
4.10622e-11
9.78667e-10
5.55897e-10
1.38917e-09
1.41507e-10
7.85124e-11
2.57381e-11
2.48455e-11
1.34334e-11
6.79449e-12
4.45342e-12
3.26719e-12
2.39618e-12
1.7624e-12
1.33678e-12
1.04848e-12
8.44294e-13
6.95324e-13
5.85308e-13
5.03636e-13
4.42925e-13
3.98013e-13
3.65269e-13
3.42108e-13
3.26688e-13
3.17732e-13
3.14465e-13
3.16524e-13
3.2402e-13
3.3741e-13
3.5775e-13
3.86412e-13
4.25777e-13
4.786e-13
5.49597e-13
6.4423e-13
7.71647e-13
9.43426e-13
1.17694e-12
1.4989e-12
1.94086e-12
2.56816e-12
3.43489e-12
4.69804e-12
6.44628e-12
8.9956e-12
1.24762e-11
1.72553e-11
2.36209e-11
3.21068e-11
4.55216e-11
8.15562e-10
4.60831e-10
1.32879e-09
1.56864e-10
7.61879e-11
2.67065e-11
2.5809e-11
1.52251e-11
7.67052e-12
4.984e-12
3.68609e-12
2.74017e-12
2.0305e-12
1.54613e-12
1.21748e-12
9.84733e-13
8.14534e-13
6.88555e-13
5.94996e-13
5.25587e-13
4.74488e-13
4.3757e-13
4.11876e-13
3.95293e-13
3.86348e-13
3.84151e-13
3.88305e-13
3.98983e-13
4.16789e-13
4.43039e-13
4.79481e-13
5.2901e-13
5.9511e-13
6.83389e-13
8.00721e-13
9.57772e-13
1.16889e-12
1.45408e-12
1.84533e-12
2.37919e-12
3.12964e-12
4.16182e-12
5.64112e-12
7.68159e-12
1.05916e-11
1.45522e-11
1.99329e-11
2.71318e-11
3.70103e-11
5.23747e-11
6.67303e-10
3.90998e-10
1.24378e-09
1.78783e-10
7.18456e-11
2.81933e-11
2.64392e-11
1.71768e-11
8.68321e-12
5.58433e-12
4.15519e-12
3.13259e-12
2.34151e-12
1.79064e-12
1.41572e-12
1.15035e-12
9.55935e-13
8.11692e-13
7.04529e-13
6.25216e-13
5.6716e-13
5.25669e-13
4.97362e-13
4.79813e-13
4.71325e-13
4.70878e-13
4.78046e-13
4.93084e-13
5.16798e-13
5.50842e-13
5.97458e-13
6.60201e-13
7.43505e-13
8.54131e-13
1.00075e-12
1.19604e-12
1.45776e-12
1.80955e-12
2.28968e-12
2.94168e-12
3.84971e-12
5.09332e-12
6.84932e-12
9.26012e-12
1.26375e-11
1.72099e-11
2.33824e-11
3.16497e-11
4.31872e-11
6.076e-11
5.35613e-10
3.41576e-10
1.13814e-09
2.0698e-10
6.59551e-11
3.01776e-11
2.67459e-11
1.92464e-11
9.85352e-12
6.26527e-12
4.67965e-12
3.57834e-12
2.70144e-12
2.07591e-12
1.64804e-12
1.3455e-12
1.12355e-12
9.58502e-13
8.35838e-13
7.45307e-13
6.7949e-13
6.33059e-13
6.02153e-13
5.83983e-13
5.76593e-13
5.78814e-13
5.90192e-13
6.11093e-13
6.42588e-13
6.86754e-13
7.46468e-13
8.26111e-13
9.31311e-13
1.07028e-12
1.25388e-12
1.49733e-12
1.82246e-12
2.25749e-12
2.84792e-12
3.64597e-12
4.7472e-12
6.24797e-12
8.33859e-12
1.11907e-11
1.51268e-11
2.04186e-11
2.75293e-11
3.70297e-11
5.03801e-11
7.0236e-11
4.21506e-10
3.07796e-10
1.01744e-09
2.40367e-10
5.92819e-11
3.25328e-11
2.67854e-11
2.13694e-11
1.12021e-11
7.03928e-12
5.26546e-12
4.08222e-12
3.11663e-12
2.40821e-12
1.91995e-12
1.57512e-12
1.32201e-12
1.13339e-12
9.93158e-13
8.90007e-13
8.15621e-13
7.63962e-13
7.30619e-13
7.1239e-13
7.07015e-13
7.13154e-13
7.30328e-13
7.59048e-13
8.00718e-13
8.57954e-13
9.34423e-13
1.03554e-12
1.1684e-12
1.34302e-12
1.57289e-12
1.87638e-12
2.28003e-12
2.81768e-12
3.54294e-12
4.51837e-12
5.85198e-12
7.65858e-12
1.01437e-11
1.35071e-11
1.80892e-11
2.41964e-11
3.23654e-11
4.32251e-11
5.8464e-11
8.05431e-11
3.25204e-10
2.85116e-10
8.89002e-10
2.76708e-10
5.28273e-11
3.50168e-11
2.66568e-11
2.34624e-11
1.27469e-11
7.92054e-12
5.91967e-12
4.64897e-12
3.59361e-12
2.79444e-12
2.23765e-12
1.84483e-12
1.5566e-12
1.34143e-12
1.18143e-12
1.0642e-12
9.80477e-13
9.23431e-13
8.88036e-13
8.70608e-13
8.6854e-13
8.8029e-13
9.05355e-13
9.44432e-13
9.99346e-13
1.07338e-12
1.17119e-12
1.29948e-12
1.46712e-12
1.68633e-12
1.97376e-12
2.35155e-12
2.85171e-12
3.51476e-12
4.40334e-12
5.59176e-12
7.20155e-12
9.36685e-12
1.231e-11
1.62563e-11
2.15693e-11
2.85798e-11
3.79187e-11
5.02189e-11
6.73406e-11
9.14973e-11
2.46056e-10
2.69567e-10
7.61517e-10
3.12497e-10
4.76635e-11
3.73121e-11
2.64885e-11
2.54304e-11
1.44991e-11
8.92505e-12
6.65063e-12
5.28331e-12
4.13892e-12
3.24209e-12
2.60804e-12
2.16091e-12
1.8333e-12
1.58844e-12
1.40638e-12
1.2736e-12
1.17986e-12
1.11748e-12
1.08072e-12
1.06536e-12
1.06838e-12
1.08801e-12
1.12371e-12
1.17641e-12
1.24847e-12
1.34401e-12
1.46888e-12
1.63137e-12
1.84252e-12
2.11721e-12
2.4758e-12
2.94496e-12
3.56292e-12
4.37793e-12
5.46262e-12
6.90429e-12
8.83883e-12
1.142e-11
1.48877e-11
1.94902e-11
2.56148e-11
3.36142e-11
4.41957e-11
5.79722e-11
7.69492e-11
1.02965e-10
1.82678e-10
2.57881e-10
6.4224e-10
3.43592e-10
4.46433e-11
3.90757e-11
2.64183e-11
2.71791e-11
1.64571e-11
1.00704e-11
7.46801e-12
5.98997e-12
4.75877e-12
3.75901e-12
3.03872e-12
2.53032e-12
2.15876e-12
1.88099e-12
1.67455e-12
1.5248e-12
1.42055e-12
1.35318e-12
1.31618e-12
1.3047e-12
1.31522e-12
1.3457e-12
1.39559e-12
1.46611e-12
1.56024e-12
1.68313e-12
1.84214e-12
2.04744e-12
2.31269e-12
2.65597e-12
3.10195e-12
3.68261e-12
4.44319e-12
5.44074e-12
6.75872e-12
8.49832e-12
1.08105e-11
1.3868e-11
1.79286e-11
2.32592e-11
3.02713e-11
3.9331e-11
5.11894e-11
6.64672e-11
8.72219e-11
1.14793e-10
1.33262e-10
2.47235e-10
5.34915e-10
3.66339e-10
4.42525e-11
3.99951e-11
2.65656e-11
2.86338e-11
1.8601e-11
1.13747e-11
8.38273e-12
6.77394e-12
5.45884e-12
4.35323e-12
3.53787e-12
2.9607e-12
2.54034e-12
2.22641e-12
1.99334e-12
1.82536e-12
1.71037e-12
1.63879e-12
1.60324e-12
1.59811e-12
1.61937e-12
1.66461e-12
1.73325e-12
1.82685e-12
1.94921e-12
2.1067e-12
2.30846e-12
2.567e-12
2.89905e-12
3.32647e-12
3.8789e-12
4.59445e-12
5.52613e-12
6.74073e-12
8.33327e-12
1.04193e-11
1.31651e-11
1.6761e-11
2.14819e-11
2.76082e-11
3.55732e-11
4.57415e-11
5.89118e-11
7.56643e-11
9.80047e-11
1.26798e-10
9.57183e-11
2.35385e-10
4.41043e-10
3.7836e-10
4.67006e-11
3.99021e-11
2.70029e-11
2.97572e-11
2.08896e-11
1.28557e-11
9.40691e-12
7.64073e-12
6.2441e-12
5.03264e-12
4.11415e-12
3.46031e-12
2.98603e-12
2.63275e-12
2.37101e-12
2.18382e-12
2.05827e-12
1.98383e-12
1.95214e-12
1.95676e-12
1.99298e-12
2.05798e-12
2.15116e-12
2.27446e-12
2.43262e-12
2.63353e-12
2.88846e-12
3.21268e-12
3.62651e-12
4.15625e-12
4.83716e-12
5.71424e-12
6.84904e-12
8.31877e-12
1.02305e-11
1.27142e-11
1.5951e-11
2.01466e-11
2.55908e-11
3.25721e-11
4.15396e-11
5.2847e-11
6.73215e-11
8.54503e-11
1.09158e-10
1.38827e-10
6.78586e-11
2.2103e-10
3.61185e-10
3.78764e-10
5.20163e-11
3.88712e-11
2.7738e-11
3.0559e-11
2.32601e-11
1.45284e-11
1.05538e-11
8.59677e-12
7.11887e-12
5.80474e-12
4.77659e-12
4.03798e-12
3.50447e-12
3.10881e-12
2.81669e-12
2.60975e-12
2.47439e-12
2.39917e-12
2.37469e-12
2.39352e-12
2.45017e-12
2.54132e-12
2.66626e-12
2.8274e-12
3.03062e-12
3.28555e-12
3.60602e-12
4.01054e-12
4.52356e-12
5.17647e-12
6.01079e-12
7.07914e-12
8.4522e-12
1.0218e-11
1.2496e-11
1.54295e-11
1.92137e-11
2.40665e-11
3.02891e-11
3.81718e-11
4.81718e-11
6.06185e-11
7.63437e-11
9.5716e-11
1.20535e-10
1.50698e-10
4.7614e-11
2.03779e-10
2.9507e-10
3.68044e-10
5.9999e-11
3.7198e-11
2.87129e-11
3.10938e-11
2.56334e-11
1.64019e-11
1.18373e-11
9.64966e-12
8.08688e-12
6.67628e-12
5.53432e-12
4.70308e-12
4.10485e-12
3.66403e-12
3.34034e-12
3.11371e-12
2.97003e-12
2.89707e-12
2.8843e-12
2.92316e-12
3.00721e-12
3.13246e-12
3.29808e-12
3.507e-12
3.76636e-12
4.08789e-12
4.48836e-12
4.99002e-12
5.62207e-12
6.42156e-12
7.43693e-12
8.72892e-12
1.03778e-11
1.24824e-11
1.51741e-11
1.86087e-11
2.2993e-11
2.85533e-11
3.55976e-11
4.44103e-11
5.54491e-11
6.90044e-11
8.58867e-11
1.06325e-10
1.31966e-10
1.62243e-10
3.31674e-11
1.83959e-10
2.4164e-10
3.47847e-10
7.01099e-11
3.53127e-11
2.98136e-11
3.14512e-11
2.79224e-11
1.84749e-11
1.32718e-11
1.08082e-11
9.15161e-12
7.65294e-12
6.39625e-12
5.46531e-12
4.79688e-12
4.30843e-12
3.95266e-12
3.70723e-12
3.55771e-12
3.4912e-12
3.49604e-12
3.56235e-12
3.6825e-12
3.85169e-12
4.06885e-12
4.33743e-12
4.66605e-12
5.06882e-12
5.56589e-12
6.18377e-12
6.95696e-12
7.92875e-12
9.15496e-12
1.07049e-11
1.26683e-11
1.51548e-11
1.83065e-11
2.22897e-11
2.73199e-11
3.36273e-11
4.15203e-11
5.12724e-11
6.33221e-11
7.7934e-11
9.58489e-11
1.1712e-10
1.43268e-10
1.73292e-10
2.30091e-11
1.62444e-10
1.99258e-10
3.20612e-10
8.14432e-11
3.3688e-11
3.08942e-11
3.1738e-11
3.00466e-11
2.07319e-11
1.48707e-11
1.20823e-11
1.03167e-11
8.73926e-12
7.37078e-12
6.33459e-12
5.59068e-12
5.05254e-12
4.66501e-12
4.40276e-12
4.25106e-12
4.19662e-12
4.22662e-12
4.32967e-12
4.49667e-12
4.72176e-12
5.00347e-12
5.34576e-12
5.75887e-12
6.25962e-12
6.87195e-12
7.62716e-12
8.56554e-12
9.73711e-12
1.12054e-11
1.30483e-11
1.5365e-11
1.82747e-11
2.19291e-11
2.65018e-11
3.22137e-11
3.92937e-11
4.80442e-11
5.87188e-11
7.17305e-11
8.72996e-11
1.06063e-10
1.27946e-10
1.54292e-10
1.8371e-10
1.5938e-11
1.40471e-10
1.66005e-10
2.89108e-10
9.28182e-11
3.27614e-11
3.18203e-11
3.20561e-11
3.19465e-11
2.31404e-11
1.66455e-11
1.34828e-11
1.15864e-11
9.93857e-12
8.46542e-12
7.32079e-12
6.49668e-12
5.90728e-12
5.4893e-12
5.21349e-12
5.06476e-12
5.02969e-12
5.09434e-12
5.24558e-12
5.47247e-12
5.76776e-12
6.12935e-12
6.56166e-12
7.07664e-12
7.69413e-12
8.44226e-12
9.35759e-12
1.04866e-11
1.18864e-11
1.36284e-11
1.57988e-11
1.85056e-11
2.18762e-11
2.60695e-11
3.12636e-11
3.76802e-11
4.5541e-11
5.51367e-11
6.66907e-11
8.05897e-11
9.69625e-11
1.1639e-10
1.38675e-10
1.64893e-10
1.93379e-10
1.10446e-11
1.19195e-10
1.39962e-10
2.56084e-10
1.02975e-10
3.28644e-11
3.25184e-11
3.24847e-11
3.35953e-11
2.56519e-11
1.86039e-11
1.50213e-11
1.29662e-11
1.12534e-11
9.68657e-12
8.43354e-12
7.52556e-12
6.88391e-12
6.43791e-12
6.15334e-12
6.01447e-12
6.00801e-12
6.119e-12
6.33227e-12
6.63465e-12
7.01699e-12
7.47625e-12
8.01716e-12
8.65348e-12
9.40827e-12
1.03142e-11
1.14136e-11
1.27594e-11
1.4416e-11
1.64624e-11
1.89927e-11
2.21224e-11
2.59855e-11
3.07454e-11
3.65807e-11
4.37093e-11
5.23407e-11
6.27458e-11
7.51147e-11
8.97878e-11
1.06816e-10
1.26727e-10
1.49137e-10
1.7491e-10
2.02194e-10
7.67244e-12
9.93396e-11
1.19392e-10
2.23891e-10
1.10851e-10
3.41575e-11
3.29964e-11
3.30661e-11
3.50026e-11
2.82059e-11
2.07476e-11
1.67093e-11
1.44629e-11
1.26859e-11
1.10393e-11
9.6819e-12
8.68802e-12
7.99393e-12
7.52351e-12
7.2367e-12
7.11661e-12
7.15023e-12
7.32169e-12
7.61351e-12
8.00969e-12
8.49863e-12
9.07586e-12
9.74619e-12
1.05252e-11
1.14393e-11
1.25261e-11
1.38338e-11
1.54222e-11
1.73627e-11
1.97418e-11
2.26604e-11
2.62402e-11
3.06192e-11
3.59622e-11
4.24446e-11
5.02755e-11
5.96468e-11
7.0804e-11
8.38981e-11
9.92172e-11
1.16746e-10
1.36905e-10
1.5917e-10
1.84243e-10
2.10099e-10
5.35143e-12
8.13745e-11
1.02823e-10
1.94062e-10
1.158e-10
3.66175e-11
3.33412e-11
3.38009e-11
3.62097e-11
3.07378e-11
2.30689e-11
1.8557e-11
1.60845e-11
1.42382e-11
1.25273e-11
1.1074e-11
9.99461e-12
9.24893e-12
8.75895e-12
8.47831e-12
8.38819e-12
8.47586e-12
8.72461e-12
9.11433e-12
9.62552e-12
1.02434e-11
1.09613e-11
1.17839e-11
1.27284e-11
1.38247e-11
1.51156e-11
1.66555e-11
1.85108e-11
2.076e-11
2.3496e-11
2.68256e-11
3.08746e-11
3.57825e-11
4.17124e-11
4.88321e-11
5.73375e-11
6.73985e-11
7.92296e-11
9.29395e-11
1.0876e-10
1.26606e-10
1.4679e-10
1.68679e-10
1.92813e-10
2.17056e-10
3.74904e-12
6.5653e-11
8.91142e-11
1.67356e-10
1.17644e-10
4.0065e-11
3.37002e-11
3.46614e-11
3.72797e-11
3.3189e-11
2.55494e-11
2.05728e-11
1.78399e-11
1.5913e-11
1.41528e-11
1.26167e-11
1.14554e-11
1.06604e-11
1.01571e-11
9.89299e-12
9.84651e-12
1.00049e-11
1.03507e-11
1.08607e-11
1.1511e-11
1.22827e-11
1.31665e-11
1.41659e-11
1.52997e-11
1.66015e-11
1.81192e-11
1.99133e-11
2.20572e-11
2.46355e-11
2.77472e-11
3.15029e-11
3.60306e-11
4.14687e-11
4.79749e-11
5.57059e-11
6.48402e-11
7.5522e-11
8.79308e-11
1.02132e-10
1.18296e-10
1.36273e-10
1.56271e-10
1.77569e-10
2.0056e-10
2.23056e-10
2.6377e-12
5.23183e-11
7.74543e-11
1.44046e-10
1.16618e-10
4.41955e-11
3.42421e-11
3.56121e-11
3.82837e-11
3.55163e-11
2.81595e-11
2.27615e-11
1.97381e-11
1.77142e-11
1.59173e-11
1.43153e-11
1.30796e-11
1.22396e-11
1.17305e-11
1.14954e-11
1.15089e-11
1.17576e-11
1.22231e-11
1.28788e-11
1.36954e-11
1.46486e-11
1.57251e-11
1.69271e-11
1.82745e-11
1.98044e-11
2.15699e-11
2.36377e-11
2.60877e-11
2.90103e-11
3.25088e-11
3.66967e-11
4.17018e-11
4.76583e-11
5.47154e-11
6.30157e-11
7.27165e-11
8.39338e-11
9.68098e-11
1.11366e-10
1.27712e-10
1.45637e-10
1.65253e-10
1.8577e-10
2.07456e-10
2.28114e-10
1.86307e-12
4.12996e-11
6.73094e-11
1.24087e-10
1.13245e-10
4.86258e-11
3.51147e-11
3.66279e-11
3.92878e-11
3.76974e-11
3.08607e-11
2.51227e-11
2.1788e-11
1.96466e-11
1.78216e-11
1.61735e-11
1.48753e-11
1.3997e-11
1.34913e-11
1.32996e-11
1.33921e-11
1.37539e-11
1.43651e-11
1.51949e-11
1.62076e-11
1.73721e-11
1.86701e-11
2.01012e-11
2.16861e-11
2.34651e-11
2.54967e-11
2.78537e-11
3.06219e-11
3.38967e-11
3.77851e-11
4.2401e-11
4.78699e-11
5.43194e-11
6.18877e-11
7.06999e-11
8.089e-11
9.25443e-11
1.05766e-10
1.20534e-10
1.36906e-10
1.54604e-10
1.73653e-10
1.93235e-10
2.13491e-10
2.32264e-10
1.32038e-12
3.23834e-11
5.8355e-11
1.07211e-10
1.08177e-10
5.29601e-11
3.64156e-11
3.77049e-11
4.03432e-11
3.97333e-11
3.36094e-11
2.76494e-11
2.39967e-11
2.17159e-11
1.98662e-11
1.81932e-11
1.68489e-11
1.59423e-11
1.54512e-11
1.53193e-11
1.55124e-11
1.60131e-11
1.67989e-11
1.78341e-11
1.90754e-11
2.04831e-11
2.20321e-11
2.37187e-11
2.55637e-11
2.76105e-11
2.99228e-11
3.25791e-11
3.5671e-11
3.92982e-11
4.35695e-11
4.85981e-11
5.4505e-11
6.1409e-11
6.94346e-11
7.8688e-11
8.9278e-11
1.01261e-10
1.14702e-10
1.29539e-10
1.45774e-10
1.63085e-10
1.81427e-10
1.99943e-10
2.18681e-10
2.35555e-10
9.38421e-13
2.52841e-11
5.04077e-11
9.30361e-11
1.02058e-10
5.68554e-11
3.81761e-11
3.88641e-11
4.14839e-11
4.1645e-11
3.63631e-11
3.03275e-11
2.63689e-11
2.39283e-11
2.20522e-11
2.03747e-11
1.9005e-11
1.80837e-11
1.76205e-11
1.75667e-11
1.78847e-11
1.8553e-11
1.95455e-11
2.08204e-11
2.23248e-11
2.40087e-11
2.58388e-11
2.78065e-11
2.99321e-11
3.22618e-11
3.48643e-11
3.7824e-11
4.12374e-11
4.52079e-11
4.9845e-11
5.52597e-11
6.15666e-11
6.88739e-11
7.72908e-11
8.69031e-11
9.77945e-11
1.09991e-10
1.23522e-10
1.38289e-10
1.54238e-10
1.71024e-10
1.88533e-10
2.05885e-10
2.23059e-10
2.38056e-10
6.68558e-13
1.96987e-11
4.33643e-11
8.1142e-11
9.54478e-11
6.00678e-11
4.03612e-11
4.01459e-11
4.27291e-11
4.3467e-11
3.9086e-11
3.31354e-11
2.89054e-11
2.62895e-11
2.4381e-11
2.27172e-11
2.13459e-11
2.04278e-11
2.00082e-11
2.00527e-11
2.0522e-11
2.13896e-11
2.26239e-11
2.41749e-11
2.59787e-11
2.79729e-11
3.01135e-11
3.23862e-11
3.48097e-11
3.74329e-11
4.03294e-11
4.35892e-11
4.73137e-11
5.16088e-11
5.65843e-11
6.2347e-11
6.90044e-11
7.66525e-11
8.53841e-11
9.52649e-11
1.06353e-10
1.18646e-10
1.32141e-10
1.46704e-10
1.62241e-10
1.7838e-10
1.94943e-10
2.11066e-10
2.2666e-10
2.39836e-10
4.7733e-13
1.53419e-11
3.71588e-11
7.11318e-11
8.87703e-11
6.24732e-11
4.28789e-11
4.15964e-11
4.40885e-11
4.52397e-11
4.17535e-11
3.60458e-11
3.16024e-11
2.88037e-11
2.6854e-11
2.52186e-11
2.38715e-11
2.29785e-11
2.26213e-11
2.27863e-11
2.34356e-11
2.45366e-11
2.605e-11
2.79158e-11
3.00563e-11
3.23946e-11
3.48743e-11
3.74732e-11
4.0208e-11
4.31299e-11
4.63175e-11
4.98663e-11
5.38824e-11
5.84739e-11
6.37497e-11
6.98121e-11
7.676e-11
8.46768e-11
9.36386e-11
1.03691e-10
1.14868e-10
1.27142e-10
1.40478e-10
1.54716e-10
1.69727e-10
1.85112e-10
2.00658e-10
2.15518e-10
2.29543e-10
2.40974e-10
3.41542e-13
1.19618e-11
3.17405e-11
6.26598e-11
8.23102e-11
6.40571e-11
4.5598e-11
4.32491e-11
4.55672e-11
4.70024e-11
4.43537e-11
3.90278e-11
3.445e-11
3.14727e-11
2.94726e-11
2.78762e-11
2.65795e-11
2.5737e-11
2.54644e-11
2.57741e-11
2.66336e-11
2.80041e-11
2.98362e-11
3.20567e-11
3.4572e-11
3.72876e-11
4.01325e-11
4.30754e-11
4.613e-11
4.93497e-11
5.28182e-11
5.66368e-11
6.0916e-11
6.57661e-11
7.12946e-11
7.75989e-11
8.47685e-11
9.28744e-11
1.01976e-10
1.12101e-10
1.23259e-10
1.35402e-10
1.48466e-10
1.62272e-10
1.76654e-10
1.91206e-10
2.05685e-10
2.19272e-10
2.3177e-10
2.41553e-10
2.45016e-13
9.34502e-12
2.70619e-11
5.54431e-11
7.62367e-11
6.48855e-11
4.83736e-11
4.51165e-11
4.71701e-11
4.87887e-11
4.68873e-11
4.20503e-11
3.74329e-11
3.42946e-11
3.22371e-11
3.06861e-11
2.94648e-11
2.87015e-11
2.85389e-11
2.90195e-11
3.01209e-11
3.17986e-11
3.39903e-11
3.66066e-11
3.95343e-11
4.26588e-11
4.58923e-11
4.91927e-11
5.25701e-11
5.60801e-11
5.98117e-11
6.38725e-11
6.83777e-11
7.34397e-11
7.91647e-11
8.56446e-11
9.29604e-11
1.0117e-10
1.10319e-10
1.20415e-10
1.31451e-10
1.43356e-10
1.56046e-10
1.69324e-10
1.82999e-10
1.96661e-10
2.10043e-10
2.22362e-10
2.33396e-10
2.41651e-10
1.76364e-13
7.31889e-12
2.30629e-11
4.92591e-11
7.06363e-11
6.50714e-11
5.10712e-11
4.71873e-11
4.89036e-11
5.06251e-11
4.93643e-11
4.50854e-11
4.05303e-11
3.72636e-11
3.5146e-11