/*--------------------------------*- C++ -*----------------------------------*\
  =========                 |
  \\      /  F ield         | OpenFOAM: The Open Source CFD Toolbox
   \\    /   O peration     | Website:  https://openfoam.org
    \\  /    A nd           | Version:  7
     \\/     M anipulation  |
\*---------------------------------------------------------------------------*/
FoamFile
{
    version     2.0;
    format      ascii;
    class       volScalarField;
    location    "0.37";
    object      p;
}
// * * * * * * * * * * * * * * * * * * * * * * * * * * * * * * * * * * * * * //

dimensions      [0 2 -2 0 0 0 0];

internalField   nonuniform List<scalar> 
70000
(
0.11015
0.0326886
0.0201557
0.022584
0.0227328
0.0216503
0.0206812
0.0199377
0.0193094
0.0187487
0.0182423
0.0177823
0.0173611
0.0169721
0.0166096
0.0162693
0.0159472
0.0156402
0.0153456
0.0150612
0.0147849
0.014515
0.0142498
0.0139879
0.0137279
0.0134685
0.0132086
0.0129468
0.0126822
0.0124134
0.0121395
0.0118591
0.0115711
0.0112743
0.0109673
0.0106487
0.0103171
0.00997084
0.00960812
0.00922796
0.00882641
0.00840657
0.00795649
0.00749468
0.00698272
0.00648953
0.00589205
0.00542586
0.00467907
0.0044888
0.105782
0.0330556
0.0203586
0.0226795
0.0227873
0.0216863
0.0207093
0.0199609
0.0193288
0.0187653
0.0182567
0.017795
0.0173724
0.0169823
0.0166189
0.0162777
0.0159549
0.0156474
0.0153523
0.0150674
0.0147907
0.0145204
0.0142549
0.0139927
0.0137324
0.0134728
0.0132126
0.0129506
0.0126857
0.0124168
0.0121426
0.0118621
0.011574
0.0112769
0.0109698
0.010651
0.0103192
0.00997271
0.00960979
0.00922942
0.00882762
0.00840754
0.00795715
0.00749504
0.00698268
0.00648898
0.00589108
0.00542258
0.00468138
0.00451775
0.102202
0.0339956
0.0206991
0.0228086
0.0228616
0.021731
0.0207416
0.019987
0.0193506
0.0187837
0.0182726
0.0178089
0.0173848
0.0169934
0.016629
0.0162869
0.0159633
0.0156551
0.0153595
0.0150741
0.014797
0.0145263
0.0142604
0.0139979
0.0137373
0.0134774
0.0132169
0.0129547
0.0126897
0.0124205
0.0121462
0.0118654
0.0115771
0.0112799
0.0109726
0.0106536
0.0103217
0.00997507
0.00961196
0.00923142
0.0088294
0.00840913
0.00795842
0.0074961
0.0069832
0.00648927
0.00589078
0.00541934
0.00470125
0.00453295
0.0991077
0.0350977
0.0211688
0.0229828
0.0229626
0.0217886
0.0207799
0.020017
0.0193753
0.0188042
0.01829
0.0178241
0.0173982
0.0170053
0.0166397
0.0162967
0.0159723
0.0156633
0.0153671
0.0150812
0.0148036
0.0145325
0.0142662
0.0140034
0.0137425
0.0134823
0.0132216
0.0129592
0.0126939
0.0124246
0.0121501
0.0118692
0.0115807
0.0112834
0.0109759
0.0106568
0.0103248
0.00997803
0.00961481
0.00923416
0.00883201
0.00841163
0.00796077
0.00749826
0.00698519
0.0064907
0.00589306
0.00541612
0.00473474
0.00453551
0.0961486
0.0361945
0.0217351
0.0232036
0.0230973
0.0218667
0.0208291
0.0200543
0.0194054
0.018829
0.0183108
0.0178418
0.0174137
0.017019
0.016652
0.0163078
0.0159824
0.0156726
0.0153757
0.0150891
0.014811
0.0145394
0.0142728
0.0140095
0.0137484
0.0134879
0.013227
0.0129643
0.0126988
0.0124293
0.0121547
0.0118736
0.011585
0.0112876
0.0109801
0.0106609
0.0103288
0.009982
0.00961876
0.00923811
0.00883598
0.00841561
0.00796481
0.00750222
0.00698943
0.00649371
0.00589917
0.00541438
0.00477661
0.00453657
0.0932398
0.0372338
0.0223507
0.0234511
0.02326
0.0219669
0.0208918
0.020101
0.0194431
0.0188598
0.0183364
0.0178635
0.0174325
0.0170355
0.0166667
0.016321
0.0159944
0.0156836
0.0153857
0.0150985
0.0148197
0.0145476
0.0142805
0.0140168
0.0137553
0.0134945
0.0132333
0.0129704
0.0127047
0.012435
0.0121602
0.0118791
0.0115904
0.0112929
0.0109854
0.0106662
0.0103341
0.00998744
0.00962431
0.00924382
0.00884189
0.00842175
0.00797131
0.00750884
0.00699692
0.00650011
0.00591044
0.00541653
0.00482427
0.00454024
0.0903753
0.0381967
0.0229819
0.0237034
0.0234372
0.0220843
0.020967
0.0201571
0.0194887
0.0188973
0.0183675
0.01789
0.0174553
0.0170556
0.0166845
0.0163369
0.0160088
0.0156967
0.0153978
0.0151097
0.0148301
0.0145574
0.0142897
0.0140255
0.0137636
0.0135024
0.0132409
0.0129778
0.0127119
0.0124421
0.0121671
0.0118859
0.0115972
0.0112998
0.0109923
0.0106732
0.0103413
0.00999486
0.00963201
0.0092519
0.00885042
0.00843079
0.0079811
0.00751906
0.0070088
0.00651083
0.00592822
0.00542509
0.00487566
0.00454833
0.0875613
0.0390752
0.0236128
0.0239489
0.0236181
0.0222126
0.0210513
0.0202205
0.0195409
0.0189408
0.018404
0.0179211
0.0174824
0.0170794
0.0167056
0.0163559
0.016026
0.0157125
0.0154123
0.0151231
0.0148426
0.0145691
0.0143007
0.014036
0.0137736
0.0135121
0.0132502
0.0129868
0.0127208
0.0124508
0.0121758
0.0118945
0.0116059
0.0113085
0.0110012
0.0106824
0.0103508
0.0100048
0.00964241
0.00926294
0.00886223
0.00844348
0.00799503
0.00753382
0.00702617
0.00652727
0.00595373
0.00544229
0.00492959
0.00456233
0.0848034
0.0398665
0.0242382
0.0241834
0.0237966
0.0223469
0.0211412
0.0202885
0.0195977
0.0189889
0.0184448
0.0179563
0.0175132
0.0171067
0.0167301
0.016378
0.0160461
0.0157309
0.0154293
0.0151389
0.0148574
0.014583
0.0143139
0.0140486
0.0137856
0.0135236
0.0132615
0.0129978
0.0127315
0.0124614
0.0121864
0.0119052
0.0116166
0.0113195
0.0110124
0.010694
0.0103629
0.0100176
0.00965599
0.00927749
0.00887792
0.00846047
0.00801386
0.00755398
0.00704999
0.00655069
0.00598787
0.00547
0.00498579
0.0045835
0.0821062
0.0405704
0.024857
0.0244067
0.0239697
0.0224844
0.0212347
0.0203593
0.0196574
0.01904
0.0184887
0.0179945
0.0175469
0.0171368
0.0167573
0.0164027
0.0160688
0.0157518
0.0154487
0.015157
0.0148744
0.0145991
0.0143292
0.0140632
0.0137996
0.0135372
0.0132747
0.0130108
0.0127443
0.0124742
0.0121991
0.011918
0.0116297
0.0113329
0.0110263
0.0107085
0.0103781
0.0100336
0.0096731
0.00929592
0.00889793
0.00848226
0.00803815
0.00758018
0.00708095
0.00658207
0.0060312
0.00550944
0.00504472
0.00461264
0.0794732
0.0411872
0.0254683
0.0246196
0.024136
0.0226237
0.0213308
0.0204316
0.0197186
0.0190929
0.0185346
0.0180347
0.0175826
0.017169
0.0167865
0.0164295
0.0160935
0.0157747
0.0154701
0.0151771
0.0148934
0.0146171
0.0143464
0.0140797
0.0138156
0.0135528
0.0132899
0.0130257
0.0127592
0.012489
0.012214
0.0119332
0.0116452
0.0113488
0.0110428
0.0107258
0.0103963
0.010053
0.00969389
0.00931842
0.00892248
0.00850908
0.00806819
0.00761278
0.00711938
0.00662204
0.00608378
0.00556101
0.00510504
0.00465025
0.0769071
0.0417174
0.0260707
0.024823
0.0242946
0.0227638
0.0214291
0.020505
0.0197807
0.019147
0.0185817
0.0180762
0.0176197
0.0172026
0.0168172
0.0164578
0.0161197
0.0157991
0.015493
0.0151987
0.0149139
0.0146367
0.0143652
0.0140979
0.0138333
0.01357
0.0133068
0.0130425
0.0127759
0.0125057
0.012231
0.0119504
0.0116628
0.0113671
0.0110618
0.0107458
0.0104175
0.0100757
0.00971831
0.00934491
0.00895152
0.0085409
0.00810394
0.00765179
0.00716517
0.0066707
0.00614518
0.00562433
0.0051723
0.00469684
0.0744107
0.0421614
0.0266623
0.0250183
0.0244448
0.022904
0.0215295
0.0205794
0.0198435
0.019202
0.0186297
0.0181186
0.0176578
0.0172372
0.0168489
0.0164871
0.0161469
0.0158247
0.0155171
0.0152216
0.0149357
0.0146576
0.0143853
0.0141174
0.0138523
0.0135887
0.0133252
0.0130608
0.0127942
0.0125242
0.0122497
0.0119695
0.0116825
0.0113875
0.0110832
0.0107684
0.0104415
0.0101014
0.00974609
0.00937515
0.00898476
0.00857741
0.00814505
0.00769688
0.00721782
0.00672765
0.00621459
0.00569823
0.00524506
0.00475269
0.0719863
0.04252
0.0272406
0.0252068
0.0245861
0.0230435
0.0216318
0.0206547
0.0199069
0.0192576
0.0186786
0.0181618
0.0176967
0.0172726
0.0168814
0.0165172
0.016175
0.0158511
0.0155421
0.0152453
0.0149584
0.0146794
0.0144064
0.0141379
0.0138724
0.0136084
0.0133448
0.0130803
0.0128138
0.012544
0.0122699
0.0119902
0.0117039
0.0114098
0.0111066
0.0107932
0.0104679
0.0101298
0.00977687
0.0094087
0.00902176
0.00861814
0.00819096
0.00774747
0.00727656
0.00679206
0.00629095
0.0057811
0.00532385
0.00481788
0.0696364
0.0427946
0.0278027
0.0253899
0.0247181
0.0231813
0.0217359
0.0207309
0.0199707
0.0193139
0.0187281
0.0182057
0.0177362
0.0173086
0.0169146
0.016548
0.0162038
0.0158781
0.0155677
0.0152697
0.0149818
0.014702
0.0144283
0.0141593
0.0138933
0.0136291
0.0133654
0.0131009
0.0128345
0.012565
0.0122913
0.0120123
0.0117268
0.0114337
0.0111318
0.0108198
0.0104964
0.0101606
0.00981022
0.00944514
0.00906201
0.00866254
0.00824101
0.00780287
0.00734051
0.00686292
0.00637314
0.00587125
0.00540886
0.00489233
0.067363
0.0429869
0.0283455
0.0255693
0.0248406
0.0233165
0.0218416
0.0208081
0.0200349
0.0193707
0.0187784
0.0182503
0.0177763
0.0173452
0.0169484
0.0165793
0.0162332
0.0159058
0.0155939
0.0152948
0.0150059
0.0147252
0.0144509
0.0141813
0.013915
0.0136506
0.0133868
0.0131223
0.0128561
0.0125869
0.0123137
0.0120354
0.0117508
0.0114589
0.0111583
0.0108481
0.0105267
0.0101932
0.00984578
0.00948403
0.00910504
0.00871008
0.00829457
0.00786239
0.00740882
0.00693918
0.00646014
0.00596713
0.00550003
0.00497594
0.0651677
0.0430988
0.0288658
0.0257463
0.0249535
0.0234481
0.0219486
0.0208863
0.0200994
0.0194279
0.0188292
0.0182956
0.0178171
0.0173825
0.0169827
0.0166113
0.0162631
0.0159341
0.0156208
0.0153204
0.0150305
0.014749
0.0144741
0.014204
0.0139374
0.0136727
0.0134088
0.0131445
0.0128785
0.0126097
0.0123371
0.0120596
0.011776
0.0114852
0.0111862
0.0108777
0.0105585
0.0102276
0.00988326
0.00952507
0.00915048
0.00876034
0.00835115
0.00792544
0.00748079
0.00701991
0.00655113
0.00606755
0.00559718
0.0050686
0.0630519
0.0431328
0.0293607
0.0259222
0.0250569
0.0235751
0.0220565
0.0209654
0.0201641
0.0194856
0.0188807
0.0183414
0.0178584
0.0174203
0.0170177
0.0166438
0.0162936
0.0159629
0.0156482
0.0153466
0.0150558
0.0147735
0.0144979
0.0142273
0.0139603
0.0136955
0.0134316
0.0131673
0.0129016
0.0126333
0.0123613
0.0120846
0.0118021
0.0115127
0.0112152
0.0109087
0.0105918
0.0102636
0.00992248
0.00956803
0.00919806
0.00881303
0.00841038
0.00799159
0.00755594
0.00710442
0.00664559
0.00617174
0.00570017
0.00517032
0.0610163
0.0430919
0.0298273
0.0260977
0.0251511
0.0236966
0.022165
0.0210456
0.0202291
0.0195435
0.0189327
0.0183879
0.0179004
0.0174587
0.0170532
0.016677
0.0163247
0.0159923
0.0156762
0.0153734
0.0150816
0.0147985
0.0145222
0.0142512
0.0139839
0.013719
0.013455
0.0131909
0.0129255
0.0126577
0.0123864
0.0121106
0.0118292
0.0115412
0.0112454
0.0109409
0.0106264
0.010301
0.00996333
0.00961282
0.00924765
0.00886799
0.00847205
0.00806058
0.00763398
0.00719225
0.00674323
0.00627933
0.00580892
0.00528115
0.0590614
0.0429795
0.0302629
0.0262735
0.0252366
0.0238115
0.0222735
0.0211267
0.0202942
0.0196016
0.0189852
0.018435
0.0179429
0.0174977
0.0170893
0.0167107
0.0163564
0.0160223
0.0157047
0.0154008
0.0151079
0.0148241
0.0145472
0.0142758
0.0140082
0.0137431
0.0134791
0.0132152
0.0129502
0.0126829
0.0124123
0.0121375
0.0118572
0.0115707
0.0112767
0.0109743
0.0106623
0.0103399
0.0100058
0.00965939
0.00929919
0.00892514
0.00853607
0.00813225
0.00771476
0.00728313
0.00684396
0.00639024
0.00592347
0.00540115
0.057187
0.0427997
0.0306647
0.0264498
0.0253139
0.0239191
0.0223813
0.0212087
0.0203595
0.0196598
0.019038
0.0184826
0.017986
0.0175372
0.017126
0.0167449
0.0163887
0.0160528
0.0157339
0.0154287
0.0151349
0.0148503
0.0145728
0.0143009
0.0140331
0.0137678
0.0135039
0.0132402
0.0129756
0.0127089
0.0124391
0.0121652
0.0118863
0.0116013
0.0113091
0.0110089
0.0106996
0.0103803
0.0100499
0.00970776
0.00935269
0.00898447
0.00860243
0.00820654
0.00779826
0.00737697
0.00694782
0.00650459
0.00604389
0.00553034
0.0553928
0.0425568
0.0310302
0.0266264
0.0253839
0.0240188
0.0224878
0.0212915
0.020425
0.0197179
0.0190912
0.0185307
0.0180297
0.0175773
0.0171632
0.0167798
0.0164215
0.016084
0.0157636
0.0154573
0.0151625
0.0148771
0.0145991
0.0143268
0.0140586
0.0137933
0.0135295
0.013266
0.0130018
0.0127357
0.0124668
0.012194
0.0119164
0.0116329
0.0113427
0.0110449
0.0107383
0.0104223
0.0100957
0.00975796
0.00940819
0.00904602
0.00867116
0.00828347
0.00788451
0.00747376
0.00705493
0.00662261
0.0061703
0.00566869
0.053678
0.0422555
0.0313572
0.0268028
0.0254472
0.0241099
0.0225922
0.021375
0.0204905
0.019776
0.0191447
0.0185793
0.0180738
0.0176179
0.017201
0.0168152
0.0164549
0.0161157
0.0157939
0.0154865
0.0151908
0.0149046
0.014626
0.0143532
0.0140849
0.0138195
0.0135558
0.0132926
0.0130288
0.0127634
0.0124954
0.0122237
0.0119475
0.0116658
0.0113776
0.0110822
0.0107785
0.0104658
0.0101432
0.00981006
0.00946573
0.00910983
0.00874232
0.00836306
0.00797359
0.00757355
0.00716543
0.00674455
0.0063028
0.00581607
0.0520412
0.0419008
0.0316439
0.0269781
0.0255049
0.0241921
0.0226937
0.0214589
0.0205562
0.0198339
0.0191982
0.0186282
0.0181185
0.017659
0.0172393
0.0168512
0.0164889
0.0161481
0.0158249
0.0155163
0.0152196
0.0149327
0.0146535
0.0143804
0.0141118
0.0138464
0.0135828
0.01332
0.0130567
0.012792
0.0125249
0.0122545
0.0119797
0.0116998
0.0114137
0.0111208
0.0108201
0.0105109
0.0101924
0.0098641
0.00952539
0.00917596
0.00881597
0.00844537
0.00806557
0.00767645
0.00727948
0.00687066
0.00644146
0.00597228
0.0504811
0.0414981
0.0318884
0.0271511
0.025558
0.0242653
0.0227914
0.021543
0.0206221
0.0198915
0.0192517
0.0186776
0.0181636
0.0177006
0.0172781
0.0168877
0.0165235
0.016181
0.0158564
0.0155467
0.0152491
0.0149615
0.0146818
0.0144083
0.0141395
0.0138741
0.0136107
0.0133482
0.0130855
0.0128216
0.0125555
0.0122863
0.0120131
0.011735
0.0114512
0.0111609
0.0108633
0.0105578
0.0102435
0.00992016
0.00958722
0.00924448
0.00889219
0.00853046
0.00816055
0.00778254
0.00739722
0.00700118
0.00658631
0.00613701
0.0489955
0.0410528
0.0320896
0.02732
0.0256073
0.0243294
0.0228844
0.0216267
0.020688
0.0199488
0.0193052
0.0187271
0.0182091
0.0177426
0.0173174
0.0169247
0.0165586
0.0162145
0.0158886
0.0155777
0.0152793
0.0149909
0.0147107
0.0144369
0.014168
0.0139026
0.0136394
0.0133773
0.0131152
0.0128521
0.0125871
0.0123192
0.0120476
0.0117715
0.0114901
0.0112025
0.0109081
0.0106064
0.0102966
0.00997829
0.00965131
0.00931544
0.00897106
0.00861839
0.0082586
0.00789195
0.00751878
0.00713628
0.00673732
0.00630989
0.0475825
0.0405706
0.0322466
0.0274829
0.0256537
0.0243846
0.022972
0.0217097
0.020754
0.0200057
0.0193584
0.0187769
0.0182549
0.0177851
0.0173571
0.0169623
0.0165943
0.0162486
0.0159213
0.0156094
0.0153101
0.015021
0.0147403
0.0144663
0.0141972
0.0139319
0.0136689
0.0134073
0.0131459
0.0128837
0.0126198
0.0123533
0.0120834
0.0118094
0.0115303
0.0112456
0.0109546
0.0106568
0.0103515
0.0100386
0.0097177
0.00938891
0.00905262
0.00870922
0.00835979
0.00800477
0.00764427
0.00727609
0.00689443
0.00649053
0.0462394
0.040057
0.032359
0.0276375
0.0256982
0.0244314
0.0230534
0.0217915
0.02082
0.0200622
0.0194112
0.0188267
0.0183011
0.017828
0.0173974
0.0170003
0.0166305
0.0162833
0.0159547
0.0156417
0.0153415
0.0150519
0.0147707
0.0144964
0.0142272
0.013962
0.0136994
0.0134382
0.0131775
0.0129162
0.0126536
0.0123886
0.0121205
0.0118486
0.0115721
0.0112904
0.0110029
0.010709
0.0104085
0.010101
0.00978647
0.00946494
0.00913696
0.00880303
0.00846421
0.00812109
0.00777379
0.00742066
0.00705751
0.00667846
0.0449638
0.0395177
0.032427
0.0277814
0.0257413
0.0244703
0.0231279
0.0218713
0.0208859
0.0201182
0.0194636
0.0188764
0.0183476
0.0178712
0.017438
0.0170389
0.0166673
0.0163185
0.0159887
0.0156747
0.0153737
0.0150834
0.0148018
0.0145272
0.0142581
0.013993
0.0137307
0.0134701
0.0132101
0.0129499
0.0126885
0.0124251
0.0121589
0.0118892
0.0116153
0.0113367
0.0110528
0.0107632
0.0104676
0.0101657
0.00985767
0.0095436
0.00922412
0.00889987
0.00857191
0.00824099
0.00790739
0.00757003
0.00722639
0.00687318
0.0437527
0.0389581
0.0324512
0.0279121
0.0257833
0.0245019
0.023195
0.0219486
0.0209515
0.0201737
0.0195155
0.018926
0.0183942
0.0179148
0.017479
0.0170778
0.0167046
0.0163543
0.0160233
0.0157083
0.0154065
0.0151156
0.0148337
0.0145589
0.0142897
0.0140248
0.0137629
0.0135029
0.0132438
0.0129847
0.0127246
0.0124628
0.0121986
0.0119313
0.0116602
0.0113848
0.0111047
0.0108194
0.0105288
0.0102328
0.00993136
0.00962494
0.00931416
0.00899979
0.00868294
0.00836452
0.0080451
0.00772447
0.00740088
0.00707421
0.0426033
0.0383831
0.0324327
0.0280271
0.0258244
0.024527
0.0232543
0.0220227
0.0210165
0.0202287
0.0195667
0.0189753
0.0184409
0.0179586
0.0175203
0.0171172
0.0167423
0.0163907
0.0160585
0.0157425
0.01544
0.0151486
0.0148663
0.0145914
0.0143223
0.0140576
0.0137961
0.0135368
0.0132786
0.0130206
0.0127619
0.0125019
0.0122398
0.0119749
0.0117067
0.0114346
0.0111584
0.0108777
0.0105922
0.0103021
0.0100076
0.00970901
0.00940712
0.00910284
0.00879734
0.00849173
0.00818689
0.00788329
0.00758072
0.00728099
0.0415124
0.0377976
0.0323733
0.0281243
0.0258641
0.0245464
0.0233057
0.0220928
0.0210806
0.0202832
0.0196171
0.0190241
0.0184875
0.0180026
0.017562
0.017157
0.0167805
0.0164276
0.0160943
0.0157774
0.0154742
0.0151823
0.0148997
0.0146247
0.0143557
0.0140913
0.0138303
0.0135717
0.0133145
0.0130577
0.0128006
0.0125423
0.0122824
0.01202
0.0117548
0.0114863
0.0112141
0.010938
0.0106579
0.010374
0.0100864
0.00979585
0.00950305
0.00920905
0.00891515
0.00862263
0.00833275
0.00804668
0.00776558
0.00749296
0.0404771
0.0372058
0.0322749
0.0282019
0.0259018
0.0245607
0.023349
0.0221582
0.0211434
0.0203371
0.0196668
0.0190724
0.0185341
0.0180468
0.0176039
0.0171971
0.0168192
0.016465
0.0161307
0.015813
0.0155091
0.0152168
0.014934
0.0146588
0.01439
0.0141259
0.0138655
0.0136077
0.0133515
0.013096
0.0128405
0.0125842
0.0123265
0.0120668
0.0118047
0.0115397
0.0112717
0.0110004
0.0107259
0.0104482
0.0101679
0.00988551
0.00960198
0.00931845
0.00903636
0.00875719
0.00848261
0.00821447
0.00795513
0.00770954
0.0394943
0.0366115
0.0321403
0.0282584
0.0259366
0.0245707
0.0233845
0.0222184
0.0212045
0.0203902
0.0197156
0.01912
0.0185804
0.018091
0.017646
0.0172375
0.0168583
0.0165029
0.0161676
0.0158491
0.0155447
0.015252
0.014969
0.0146938
0.0144252
0.0141615
0.0139018
0.0136448
0.0133897
0.0131356
0.0128817
0.0126274
0.0123721
0.0121152
0.0118563
0.0115951
0.0113314
0.0110651
0.0107962
0.010525
0.0102521
0.00997801
0.00970392
0.00943105
0.00916097
0.0088954
0.00863637
0.00838645
0.00814899
0.00793013
0.038561
0.0360181
0.0319721
0.0282924
0.0259672
0.0245768
0.0234124
0.0222728
0.0212633
0.0204424
0.0197634
0.0191669
0.0186263
0.0181352
0.0176883
0.0172782
0.0168977
0.0165413
0.0162051
0.0158859
0.015581
0.0152879
0.0150048
0.0147297
0.0144613
0.0141981
0.013939
0.013683
0.0134291
0.0131764
0.0129244
0.0126722
0.0124193
0.0121653
0.0119098
0.0116525
0.0113932
0.011132
0.0108689
0.0106043
0.0103389
0.0100734
0.00980889
0.00954684
0.00928896
0.00903718
0.00879389
0.00856236
0.00834675
0.00815412
0.0376742
0.0354285
0.0317737
0.0283033
0.0259923
0.0245795
0.0234331
0.0223209
0.0213194
0.0204936
0.0198103
0.0192128
0.0186718
0.0181793
0.0177308
0.0173192
0.0169375
0.0165801
0.0162431
0.0159233
0.0156179
0.0153246
0.0150414
0.0147665
0.0144983
0.0142357
0.0139774
0.0137224
0.0134697
0.0132186
0.0129684
0.0127184
0.0124681
0.0122171
0.0119651
0.0117118
0.0114571
0.0112011
0.010944
0.0106863
0.0104285
0.0101716
0.00991689
0.00966581
0.00942027
0.00918245
0.00895501
0.00874193
0.00854796
0.00838091
0.036831
0.0348453
0.0315482
0.0282905
0.0260104
0.0245789
0.023447
0.0223624
0.0213721
0.0205434
0.0198562
0.0192577
0.0187165
0.0182232
0.0177732
0.0173603
0.0169775
0.0166194
0.0162817
0.0159613
0.0156555
0.015362
0.0150788
0.0148041
0.0145364
0.0142743
0.0140169
0.0137629
0.0135116
0.0132622
0.0130139
0.0127662
0.0125186
0.0122708
0.0120223
0.0117731
0.0115232
0.0112726
0.0110216
0.0107707
0.0105208
0.0102727
0.0100279
0.00978791
0.00955484
0.00933109
0.00911996
0.00892486
0.00875217
0.00860986
0.0360287
0.0342703
0.031299
0.028254
0.0260199
0.024575
0.0234547
0.0223972
0.0214209
0.0205916
0.0199009
0.0193015
0.0187606
0.0182667
0.0178156
0.0174015
0.0170179
0.016659
0.0163207
0.0159999
0.0156938
0.0154002
0.0151171
0.0148426
0.0145754
0.014314
0.0140575
0.0138047
0.0135548
0.0133071
0.0130609
0.0128156
0.0125708
0.0123262
0.0120815
0.0118366
0.0115915
0.0113464
0.0111016
0.0108579
0.0106159
0.0103767
0.0101419
0.0099131
0.00969257
0.00948292
0.00928765
0.00911079
0.00895892
0.00884036
0.0352647
0.0337054
0.0310294
0.0281942
0.0260195
0.0245677
0.0234567
0.0224252
0.0214654
0.0206378
0.0199444
0.0193442
0.0188037
0.0183098
0.0178579
0.0174428
0.0170584
0.0166989
0.0163602
0.016039
0.0157328
0.0154391
0.0151561
0.014882
0.0146153
0.0143547
0.0140992
0.0138477
0.0135993
0.0133534
0.0131094
0.0128666
0.0126248
0.0123835
0.0121426
0.0119021
0.011662
0.0114225
0.0111842
0.0109476
0.0107136
0.0104835
0.0102588
0.0100413
0.00983334
0.00963776
0.00945829
0.00929935
0.00916768
0.00907179
0.0345366
0.0331516
0.0307427
0.0281119
0.0260079
0.0245564
0.0234533
0.0224465
0.021505
0.0206817
0.0199865
0.0193856
0.0188458
0.0183523
0.0178999
0.0174841
0.0170991
0.0167391
0.0164
0.0160787
0.0157723
0.0154788
0.015196
0.0149223
0.0146563
0.0143965
0.0141421
0.0138919
0.0136452
0.0134012
0.0131594
0.0129193
0.0126804
0.0124426
0.0122058
0.0119697
0.0117347
0.0115011
0.0112692
0.0110399
0.0108142
0.0105932
0.0103786
0.0101724
0.00997701
0.00979543
0.00963157
0.00949014
0.00937796
0.00930354
0.033842
0.0326101
0.0304419
0.028008
0.0259841
0.0245407
0.0234451
0.0224612
0.0215394
0.0207227
0.020027
0.0194256
0.0188868
0.0183941
0.0179416
0.0175254
0.0171398
0.0167796
0.0164403
0.0161188
0.0158125
0.0155191
0.0152367
0.0149636
0.0146982
0.0144394
0.0141861
0.0139374
0.0136924
0.0134504
0.013211
0.0129736
0.0127379
0.0125037
0.0122709
0.0120395
0.0118098
0.011582
0.0113568
0.0111349
0.0109174
0.0107056
0.0105012
0.0103063
0.0101234
0.0099557
0.00980718
0.00968275
0.00958924
0.009535
0.0331788
0.0320815
0.0301297
0.0278839
0.0259474
0.0245198
0.0234321
0.0224695
0.0215684
0.0207605
0.0200657
0.0194643
0.0189266
0.018435
0.0179829
0.0175665
0.0171806
0.0168202
0.0164809
0.0161595
0.0158533
0.0155602
0.0152782
0.0150057
0.0147411
0.0144834
0.0142314
0.0139842
0.013741
0.0135011
0.0132642
0.0130296
0.0127972
0.0125667
0.0123381
0.0121115
0.0118871
0.0116653
0.0114468
0.0112324
0.0110232
0.0108206
0.0106265
0.0104428
0.0102724
0.0101183
0.00998479
0.00987677
0.00980102
0.00976561
0.032545
0.0315662
0.0298088
0.0277411
0.0258971
0.0244931
0.0234145
0.0224718
0.0215917
0.0207948
0.0201024
0.0195014
0.018965
0.0184749
0.0180236
0.0176073
0.0172214
0.016861
0.0165218
0.0162006
0.0158947
0.0156019
0.0153205
0.0150487
0.0147851
0.0145285
0.0142778
0.0140322
0.0137909
0.0135534
0.013319
0.0130874
0.0128583
0.0126316
0.0124074
0.0121856
0.0119666
0.011751
0.0115393
0.0113324
0.0111316
0.0109383
0.0107543
0.0105819
0.0104237
0.010283
0.010164
0.0100718
0.0100128
0.00999479
0.0319387
0.0310644
0.0294815
0.0275813
0.0258332
0.0244597
0.0233923
0.0224683
0.0216092
0.020825
0.0201367
0.0195369
0.019002
0.0185137
0.0180636
0.0176478
0.0172621
0.0169019
0.016563
0.0162421
0.0159366
0.0156443
0.0153636
0.0150926
0.01483
0.0145746
0.0143254
0.0140816
0.0138423
0.0136071
0.0133754
0.0131468
0.0129213
0.0126985
0.0124787
0.0122619
0.0120485
0.011839
0.0116342
0.0114349
0.0112425
0.0110585
0.0108846
0.0107232
0.0105771
0.0104495
0.0103446
0.0102673
0.010224
0.010222
0.0313582
0.0305764
0.0291497
0.0274061
0.0257555
0.0244191
0.0233654
0.0224592
0.021621
0.020851
0.0201684
0.0195706
0.0190376
0.0185514
0.0181028
0.0176879
0.0173026
0.0169428
0.0166043
0.0162839
0.015979
0.0156874
0.0154074
0.0151374
0.0148759
0.0146219
0.0143743
0.0141323
0.0138952
0.0136624
0.0134334
0.0132081
0.0129861
0.0127674
0.012552
0.0123403
0.0121325
0.0119293
0.0117314
0.0115399
0.0113559
0.011181
0.0110172
0.0108667
0.0107324
0.0106174
0.010526
0.0104629
0.0104342
0.0104468
0.030802
0.0301019
0.0288154
0.0272175
0.0256645
0.0243705
0.0233335
0.0224447
0.021627
0.0208724
0.0201972
0.0196023
0.0190715
0.0185877
0.0181411
0.0177274
0.0173429
0.0169837
0.0166458
0.0163261
0.0160218
0.0157311
0.015452
0.015183
0.0149228
0.0146702
0.0144243
0.0141843
0.0139494
0.0137191
0.0134931
0.013271
0.0130527
0.0128381
0.0126274
0.0124209
0.0122188
0.012022
0.011831
0.0116471
0.0114715
0.0113058
0.0111519
0.0110121
0.0108893
0.0107865
0.010708
0.0106582
0.010643
0.0106686
0.0302686
0.0296409
0.0284801
0.027017
0.0255606
0.0243135
0.0232965
0.0224252
0.0216275
0.020889
0.0202227
0.0196318
0.0191036
0.0186225
0.0181783
0.0177662
0.0173828
0.0170244
0.0166874
0.0163685
0.0160651
0.0157753
0.0154972
0.0152295
0.0149707
0.0147197
0.0144756
0.0142376
0.014005
0.0137774
0.0135544
0.0133357
0.0131212
0.0129109
0.0127049
0.0125035
0.0123073
0.0121168
0.0119329
0.0117566
0.0115894
0.0114327
0.0112886
0.0111592
0.0110475
0.0109564
0.0108901
0.0108528
0.0108499
0.0108871
0.0297567
0.0291933
0.0281451
0.0268065
0.0254444
0.0242478
0.023254
0.0224005
0.0216224
0.0209008
0.0202447
0.0196588
0.019134
0.0186559
0.0182144
0.0178043
0.0174222
0.017065
0.016729
0.0164111
0.0161088
0.0158201
0.0155432
0.0152768
0.0150195
0.0147702
0.014528
0.0142922
0.0140621
0.0138373
0.0136174
0.0134022
0.0131915
0.0129855
0.0127843
0.0125883
0.0123979
0.0122138
0.0120369
0.0118683
0.0117093
0.0115615
0.0114269
0.0113077
0.0112067
0.0111269
0.011072
0.0110461
0.0110543
0.0111018
0.0292649
0.0287587
0.0278116
0.0265875
0.0253167
0.0241732
0.0232058
0.0223709
0.021612
0.0209076
0.0202629
0.0196833
0.0191624
0.0186876
0.0182491
0.0178414
0.0174612
0.0171053
0.0167705
0.0164539
0.0161528
0.0158653
0.0155898
0.0153249
0.0150692
0.0148217
0.0145816
0.0143481
0.0141206
0.0138986
0.0136819
0.0134703
0.0132637
0.0130621
0.0128657
0.0126751
0.0124905
0.0123129
0.012143
0.0119819
0.0118311
0.0116921
0.0115668
0.0114574
0.0113666
0.0112974
0.0112532
0.0112379
0.0112561
0.0113123
0.0287922
0.0283369
0.0274805
0.0263616
0.0251785
0.0240898
0.0231515
0.0223362
0.0215964
0.0209094
0.0202772
0.019705
0.0191886
0.0187176
0.0182825
0.0178776
0.0174994
0.0171452
0.016812
0.0164967
0.0161971
0.015911
0.0156371
0.0153737
0.0151198
0.0148743
0.0146363
0.0144052
0.0141804
0.0139615
0.0137481
0.0135401
0.0133376
0.0131405
0.0129491
0.0127638
0.0125852
0.0124139
0.012251
0.0120974
0.0119546
0.0118242
0.0117079
0.011608
0.011527
0.0114677
0.0114335
0.0114278
0.0114548
0.0115185
0.0283375
0.0279275
0.0271526
0.0261301
0.0250307
0.0239976
0.0230909
0.0222965
0.0215757
0.0209063
0.0202874
0.0197235
0.0192125
0.0187458
0.0183144
0.0179126
0.0175369
0.0171847
0.0168532
0.0165396
0.0162416
0.0159572
0.0156848
0.0154233
0.0151713
0.0149279
0.0146922
0.0144636
0.0142416
0.0140258
0.0138158
0.0136116
0.0134132
0.0132207
0.0130343
0.0128544
0.0126817
0.0125169
0.0123608
0.0122147
0.0120797
0.0119576
0.0118501
0.0117593
0.0116875
0.0116375
0.0116124
0.0116153
0.01165
0.0117199
0.0278999
0.0275303
0.0268287
0.0258943
0.0248742
0.0238969
0.0230239
0.0222516
0.0215501
0.0208983
0.0202933
0.0197389
0.0192341
0.018772
0.0183447
0.0179464
0.0175736
0.0172237
0.0168942
0.0165824
0.0162862
0.0160036
0.0157332
0.0154735
0.0152236
0.0149824
0.0147492
0.0145232
0.0143041
0.0140915
0.0138851
0.0136847
0.0134905
0.0133026
0.0131212
0.0129469
0.0127801
0.0126216
0.0124724
0.0123335
0.0122062
0.0120921
0.011993
0.0119108
0.0118478
0.0118065
0.0117896
0.0118002
0.0118414
0.0119164
0.0274785
0.0271449
0.0265092
0.0256554
0.0247102
0.0237882
0.0229504
0.0222016
0.0215195
0.0208854
0.0202949
0.0197508
0.019253
0.0187961
0.0183733
0.0179788
0.0176092
0.017262
0.0169348
0.0166251
0.0163309
0.0160504
0.0157819
0.0155244
0.0152767
0.0150378
0.0148072
0.014584
0.0143679
0.0141586
0.0139558
0.0137594
0.0135695
0.0133862
0.0132099
0.013041
0.0128801
0.0127279
0.0125854
0.0124536
0.0123338
0.0122276
0.0121365
0.0120624
0.0120076
0.0119742
0.0119649
0.0119822
0.0120289
0.0121077
0.0270724
0.0267711
0.0261945
0.0254145
0.0245396
0.023672
0.0228705
0.0221463
0.0214841
0.0208678
0.0202922
0.0197592
0.0192691
0.0188181
0.0184001
0.0180098
0.0176438
0.0172996
0.0169749
0.0166676
0.0163757
0.0160973
0.0158311
0.0155758
0.0153305
0.0150942
0.0148662
0.0146459
0.014433
0.014227
0.0140279
0.0138355
0.01365
0.0134714
0.0133002
0.0131367
0.0129817
0.0128357
0.0126998
0.0125749
0.0124624
0.0123636
0.0122801
0.0122138
0.0121665
0.0121404
0.0121378
0.0121609
0.0122122
0.0122938
0.0266808
0.0264084
0.0258852
0.0251723
0.0243634
0.0235487
0.0227843
0.0220858
0.0214439
0.0208455
0.0202852
0.0197639
0.0192823
0.0188377
0.018425
0.0180393
0.0176772
0.0173363
0.0170145
0.0167099
0.0164204
0.0161444
0.0158806
0.0156278
0.015385
0.0151513
0.0149261
0.0147089
0.0144992
0.0142968
0.0141014
0.0139131
0.013732
0.0135581
0.013392
0.0132339
0.0130847
0.0129448
0.0128153
0.0126972
0.0125917
0.0125
0.0124238
0.0123646
0.0123243
0.0123048
0.012308
0.0123361
0.012391
0.0124745
0.0263032
0.0260566
0.0255815
0.0249299
0.0241825
0.0234189
0.0226919
0.0220201
0.021399
0.0208186
0.0202738
0.0197648
0.0192925
0.0188549
0.0184479
0.0180672
0.0177093
0.0173721
0.0170535
0.0167517
0.016465
0.0161916
0.0159304
0.0156802
0.0154401
0.0152092
0.014987
0.0147729
0.0145666
0.0143677
0.0141762
0.013992
0.0138153
0.0136462
0.0134851
0.0133325
0.0131889
0.0130551
0.0129319
0.0128203
0.0127214
0.0126366
0.0125671
0.0125146
0.0124807
0.012467
0.0124755
0.0125076
0.0125653
0.0126498
0.0259387
0.0257154
0.0252836
0.0246879
0.0239978
0.0232834
0.0225937
0.0219492
0.0213494
0.0207872
0.0202582
0.019762
0.0192995
0.0188695
0.0184687
0.0180933
0.0177401
0.0174068
0.0170917
0.0167931
0.0165093
0.0162388
0.0159804
0.015733
0.0154957
0.0152678
0.0150487
0.0148378
0.0146349
0.0144398
0.0142522
0.0140722
0.0138999
0.0137356
0.0135795
0.0134322
0.0132943
0.0131663
0.0130492
0.0129438
0.0128514
0.012773
0.0127099
0.0126635
0.0126354
0.0126269
0.0126398
0.0126753
0.0127348
0.0128195
0.0255869
0.0253844
0.0249917
0.024447
0.0238101
0.0231428
0.02249
0.0218732
0.0212952
0.0207514
0.0202383
0.0197554
0.0193034
0.0188815
0.0184874
0.0181176
0.0177693
0.0174404
0.0171291
0.016834
0.0165534
0.0162859
0.0160305
0.0157861
0.0155518
0.015327
0.0151111
0.0149036
0.0147043
0.0145128
0.0143292
0.0141535
0.0139857
0.0138261
0.0136751
0.013533
0.0134005
0.0132783
0.013167
0.0130677
0.0129813
0.012909
0.0128518
0.0128111
0.0127881
0.0127842
0.0128007
0.0128388
0.0128996
0.0129838
0.0252472
0.0250634
0.024706
0.0242077
0.0236202
0.0229977
0.0223812
0.0217924
0.0212365
0.0207114
0.0202143
0.019745
0.0193039
0.0188908
0.0185037
0.01814