/*--------------------------------*- C++ -*----------------------------------*\
  =========                 |
  \\      /  F ield         | OpenFOAM: The Open Source CFD Toolbox
   \\    /   O peration     | Website:  https://openfoam.org
    \\  /    A nd           | Version:  7
     \\/     M anipulation  |
\*---------------------------------------------------------------------------*/
FoamFile
{
    version     2.0;
    format      ascii;
    class       surfaceScalarField;
    location    "0.37";
    object      phi;
}
// * * * * * * * * * * * * * * * * * * * * * * * * * * * * * * * * * * * * * //

dimensions      [0 3 -1 0 0 0 0];

internalField   nonuniform List<scalar> 
139350
(
6.45133e-08
9.21182e-08
3.19679e-08
3.25454e-08
2.3065e-08
8.90287e-09
1.95827e-08
3.48233e-09
1.76332e-08
1.9495e-09
1.62054e-08
1.42782e-09
1.50748e-08
1.1306e-09
1.41648e-08
9.10033e-10
1.34166e-08
7.4812e-10
1.27871e-08
6.29508e-10
1.22475e-08
5.39662e-10
1.17784e-08
4.6912e-10
1.13661e-08
4.12286e-10
1.10004e-08
3.6564e-10
1.06736e-08
3.26777e-10
1.03797e-08
2.93979e-10
1.01137e-08
2.65978e-10
9.87187e-09
2.41825e-10
9.65107e-09
2.20797e-10
9.44873e-09
2.02334e-10
9.26274e-09
1.85995e-10
9.09131e-09
1.71429e-10
8.93296e-09
1.58355e-10
8.78642e-09
1.4654e-10
8.65062e-09
1.35794e-10
8.52466e-09
1.25957e-10
8.40777e-09
1.16894e-10
8.29928e-09
1.08489e-10
8.19864e-09
1.00637e-10
8.10539e-09
9.32589e-11
8.01913e-09
8.62579e-11
7.93954e-09
7.95872e-11
7.8664e-09
7.31381e-11
7.79949e-09
6.69117e-11
7.73875e-09
6.07454e-11
7.68402e-09
5.47255e-11
7.63544e-09
4.85774e-11
7.59293e-09
4.25145e-11
7.5568e-09
3.61249e-11
7.52713e-09
2.96724e-11
7.50426e-09
2.2867e-11
7.48893e-09
1.53305e-11
7.48054e-09
8.39197e-12
7.4826e-09
-2.05537e-12
7.48961e-09
-7.01039e-12
7.51587e-09
-2.62584e-11
7.53331e-09
-1.74395e-11
7.61739e-09
-8.40833e-11
7.45285e-09
1.64539e-10
-3.45789e-09
1.09107e-08
1.25945e-07
1.27617e-07
9.12959e-08
6.71943e-08
7.19495e-08
2.82493e-08
6.12409e-08
1.41909e-08
5.48114e-08
8.37897e-09
5.03233e-08
5.91592e-09
4.68456e-08
4.60834e-09
4.4039e-08
3.71659e-09
4.1723e-08
3.06415e-09
3.97721e-08
2.58037e-09
3.80993e-08
2.21245e-09
3.66447e-08
1.92378e-09
3.53655e-08
1.69141e-09
3.42304e-08
1.50075e-09
3.32153e-08
1.3419e-09
3.23014e-08
1.20784e-09
3.1474e-08
1.09339e-09
3.07212e-08
9.94668e-10
3.00333e-08
9.08735e-10
2.94023e-08
8.33301e-10
2.88217e-08
7.66571e-10
2.8286e-08
7.07114e-10
2.77906e-08
6.5378e-10
2.73315e-08
6.05624e-10
2.69054e-08
5.61871e-10
2.65095e-08
5.21868e-10
2.61414e-08
4.85065e-10
2.57989e-08
4.50993e-10
2.54803e-08
4.19235e-10
2.51841e-08
3.89449e-10
2.4909e-08
3.61285e-10
2.46541e-08
3.34507e-10
2.44185e-08
3.08755e-10
2.42015e-08
2.83935e-10
2.40027e-08
2.59543e-10
2.38217e-08
2.35758e-10
2.36586e-08
2.11678e-10
2.3513e-08
1.88043e-10
2.3386e-08
1.63106e-10
2.32771e-08
1.3865e-10
2.31884e-08
1.11498e-10
2.31189e-08
8.48288e-11
2.30731e-08
5.41794e-11
2.30488e-08
2.22534e-11
2.30529e-08
-1.10401e-11
2.30859e-08
-5.92446e-11
2.31407e-08
-7.23309e-11
2.32986e-08
-2.41896e-10
2.32619e-08
2.01168e-10
-4.26491e-09
2.40689e-08
1.58754e-07
1.35267e-07
1.36533e-07
8.94147e-08
1.17508e-07
4.72743e-08
1.03342e-07
2.83576e-08
9.33592e-08
1.83614e-08
8.60712e-08
1.32038e-08
8.03766e-08
1.03029e-08
7.5739e-08
8.35424e-09
7.18759e-08
6.9272e-09
6.85999e-08
5.85636e-09
6.57778e-08
5.03465e-09
6.33147e-08
4.38681e-09
6.11424e-08
3.86373e-09
5.92097e-08
3.43345e-09
5.74774e-08
3.0742e-09
5.59148e-08
2.77042e-09
5.44975e-08
2.51067e-09
5.32059e-08
2.28635e-09
5.20237e-08
2.09088e-09
5.09379e-08
1.91916e-09
4.99373e-08
1.76716e-09
4.90127e-08
1.63168e-09
4.81563e-08
1.51013e-09
4.73616e-08
1.40039e-09
4.66228e-08
1.3007e-09
4.5935e-08
1.2096e-09
4.52942e-08
1.12585e-09
4.46968e-08
1.04839e-09
4.41398e-08
9.76279e-10
4.36205e-08
9.08743e-10
4.31368e-08
8.45024e-10
4.26867e-08
7.84548e-10
4.22689e-08
7.2659e-10
4.1882e-08
6.70839e-10
4.15252e-08
6.16331e-10
4.11977e-08
5.63283e-10
4.08994e-08
5.09923e-10
4.06297e-08
4.57734e-10
4.039e-08
4.02861e-10
4.01788e-08
3.49786e-10
4.00004e-08
2.89886e-10
3.98512e-08
2.34127e-10
3.97409e-08
1.64425e-10
3.96601e-08
1.03036e-10
3.96298e-08
1.93002e-11
3.96321e-08
-6.15171e-11
3.9691e-08
-1.31252e-10
3.98449e-08
-3.95803e-10
3.99936e-08
5.24897e-11
-4.16803e-09
3.98967e-08
1.75612e-07
1.31171e-07
1.65628e-07
9.93984e-08
1.52748e-07
6.01544e-08
1.40151e-07
4.09552e-08
1.29484e-07
2.90279e-08
1.2086e-07
2.18276e-08
1.13765e-07
1.73988e-08
1.07801e-07
1.43176e-08
1.0272e-07
1.20084e-08
9.83385e-08
1.02379e-08
9.45169e-08
8.85628e-09
9.11497e-08
7.75398e-09
8.81573e-08
6.85618e-09
8.54782e-08
6.11257e-09
8.30642e-08
5.48817e-09
8.08769e-08
4.95769e-09
7.88853e-08
4.50231e-09
7.70639e-08
4.10772e-09
7.53919e-08
3.76292e-09
7.38517e-08
3.45929e-09
7.24289e-08
3.19002e-09
7.11109e-08
2.94963e-09
6.98874e-08
2.73368e-09
6.87493e-08
2.53851e-09
6.76888e-08
2.36111e-09
6.66995e-08
2.19891e-09
6.57756e-08
2.04978e-09
6.49121e-08
1.91186e-09
6.41049e-08
1.78355e-09
6.33502e-08
1.66345e-09
6.26449e-08
1.55029e-09
6.19864e-08
1.44302e-09
6.13725e-08
1.34046e-09
6.08014e-08
1.24198e-09
6.02717e-08
1.14604e-09
5.97821e-08
1.05286e-09
5.93324e-08
9.59629e-10
5.89215e-08
8.6866e-10
5.85508e-08
7.73559e-10
5.82185e-08
6.82099e-10
5.79295e-08
5.78879e-10
5.76789e-08
4.84708e-10
5.74791e-08
3.64199e-10
5.73176e-08
2.6458e-10
5.72205e-08
1.16428e-10
5.71648e-08
-5.81993e-12
5.71848e-08
-1.51334e-10
5.72946e-08
-5.0561e-10
5.7505e-08
-1.57846e-10
-3.90418e-09
5.72411e-08
1.8451e-07
1.23446e-07
1.82344e-07
1.01565e-07
1.76131e-07
6.63676e-08
1.67784e-07
4.93021e-08
1.59178e-07
3.76335e-08
1.51289e-07
2.9717e-08
1.44234e-07
2.44532e-08
1.37954e-07
2.05978e-08
1.32375e-07
1.75873e-08
1.27413e-07
1.51998e-08
1.22983e-07
1.32868e-08
1.19007e-07
1.17296e-08
1.15422e-07
1.04413e-08
1.12174e-07
9.36069e-09
1.09218e-07
8.44397e-09
1.06517e-07
7.6584e-09
1.04041e-07
6.97913e-09
1.01761e-07
6.38692e-09
9.96576e-08
5.8667e-09
9.77103e-08
5.40655e-09
9.59035e-08
4.99687e-09
9.42232e-08
4.62992e-09
9.26575e-08
4.29935e-09
9.11962e-08
3.99988e-09
8.98301e-08
3.72713e-09
8.85517e-08
3.47737e-09
8.7354e-08
3.24743e-09
8.62313e-08
3.03459e-09
8.51784e-08
2.83647e-09
8.41908e-08
2.65099e-09
8.32649e-08
2.47628e-09
8.23971e-08
2.31074e-09
8.15849e-08
2.15266e-09
8.08259e-08
2.00101e-09
8.01183e-08
1.85367e-09
7.94604e-08
1.71073e-09
7.88517e-08
1.56834e-09
7.82908e-08
1.42956e-09
7.77789e-08
1.28542e-09
7.73141e-08
1.1469e-09
7.69012e-08
9.9184e-10
7.65353e-08
8.50585e-10
7.62284e-08
6.71103e-10
7.59693e-08
5.23644e-10
7.57815e-08
3.04299e-10
7.56481e-08
1.27512e-10
7.55956e-08
-9.87889e-11
7.56408e-08
-5.50782e-10
7.58113e-08
-3.28397e-10
-3.60903e-09
7.55162e-08
1.90343e-07
1.15319e-07
1.91862e-07
1.00046e-07
1.9027e-07
6.79594e-08
1.86173e-07
5.33988e-08
1.80746e-07
4.30603e-08
1.7501e-07
3.54536e-08
1.69331e-07
3.01322e-08
1.63866e-07
2.60622e-08
1.58713e-07
2.27405e-08
1.53913e-07
1.99998e-08
1.49469e-07
1.77308e-08
1.45365e-07
1.5834e-08
1.41576e-07
1.423e-08
1.38077e-07
1.286e-08
1.34841e-07
1.16799e-08
1.31844e-07
1.06555e-08
1.29063e-07
9.75981e-09
1.26478e-07
8.97153e-09
1.24072e-07
8.27339e-09
1.21827e-07
7.65143e-09
1.19729e-07
7.09426e-09
1.17767e-07
6.59248e-09
1.15928e-07
6.1383e-09
1.14203e-07
5.72516e-09
1.12582e-07
5.34753e-09
1.11059e-07
5.00065e-09
1.09626e-07
4.68047e-09
1.08277e-07
4.38344e-09
1.07007e-07
4.10646e-09
1.05811e-07
3.84681e-09
1.04685e-07
3.60199e-09
1.03626e-07
3.36988e-09
1.02631e-07
3.14824e-09
1.01696e-07
2.9356e-09
1.00821e-07
2.72928e-09
1.00002e-07
2.52919e-09
9.92399e-08
2.33049e-09
9.85327e-08
2.1368e-09
9.78812e-08
1.93689e-09
9.72838e-08
1.74429e-09
9.67444e-08
1.53124e-09
9.62596e-08
1.3354e-09
9.58386e-08
1.0921e-09
9.54749e-08
8.87328e-10
9.51839e-08
5.95301e-10
9.49619e-08
3.49561e-10
9.48179e-08
4.52323e-11
9.47812e-08
-5.14076e-10
9.48743e-08
-4.21496e-10
-3.26579e-09
9.4531e-08
1.95505e-07
1.07629e-07
1.98249e-07
9.73018e-08
1.98991e-07
6.72173e-08
1.97803e-07
5.45867e-08
1.95179e-07
4.56851e-08
1.91852e-07
3.87806e-08
1.88135e-07
3.38486e-08
1.84202e-07
2.99954e-08
1.80202e-07
2.67402e-08
1.76246e-07
2.39562e-08
1.72401e-07
2.1576e-08
1.68705e-07
1.95292e-08
1.6518e-07
1.7755e-08
1.61834e-07
1.62064e-08
1.58667e-07
1.48469e-08
1.55675e-07
1.36472e-08
1.52852e-07
1.25831e-08
1.50189e-07
1.16347e-08
1.47677e-07
1.07854e-08
1.45307e-07
1.00213e-08
1.4307e-07
9.33086e-09
1.40958e-07
8.70425e-09
1.38963e-07
8.13319e-09
1.37078e-07
7.61056e-09
1.35295e-07
7.13027e-09
1.33609e-07
6.687e-09
1.32013e-07
6.27612e-09
1.30503e-07
5.89353e-09
1.29074e-07
5.53563e-09
1.27722e-07
5.19918e-09
1.26442e-07
4.88125e-09
1.25233e-07
4.57923e-09
1.24091e-07
4.29046e-09
1.23013e-07
4.01309e-09
1.21999e-07
3.74394e-09
1.21045e-07
3.48269e-09
1.20152e-07
3.22374e-09
1.19318e-07
2.97094e-09
1.18543e-07
2.71141e-09
1.17827e-07
2.46021e-09
1.17173e-07
2.18583e-09
1.16578e-07
1.93003e-09
1.16049e-07
1.62104e-09
1.15585e-07
1.35136e-09
1.15192e-07
9.88228e-10
1.1488e-07
6.61993e-10
1.14641e-07
2.83592e-10
1.14512e-07
-3.841e-10
1.14518e-07
-4.27641e-10
-2.87058e-09
1.14122e-07
2.0082e-07
1.00394e-07
2.03774e-07
9.43478e-08
2.0535e-07
6.56408e-08
2.05657e-07
5.42806e-08
2.04834e-07
4.65081e-08
2.03364e-07
4.02499e-08
2.01429e-07
3.57836e-08
1.99114e-07
3.23111e-08
1.96524e-07
2.93297e-08
1.93764e-07
2.67169e-08
1.90912e-07
2.44275e-08
1.8803e-07
2.24113e-08
1.85162e-07
2.06231e-08
1.8234e-07
1.90286e-08
1.79586e-07
1.7601e-08
1.76914e-07
1.63186e-08
1.74335e-07
1.51625e-08
1.71853e-07
1.4117e-08
1.6947e-07
1.31683e-08
1.67186e-07
1.23046e-08
1.65002e-07
1.15158e-08
1.62913e-07
1.07929e-08
1.60918e-07
1.01283e-08
1.59013e-07
9.51528e-09
1.57196e-07
8.94788e-09
1.55462e-07
8.42083e-09
1.53808e-07
7.92945e-09
1.52232e-07
7.4695e-09
1.50731e-07
7.03723e-09
1.49301e-07
6.62915e-09
1.4794e-07
6.24211e-09
1.46646e-07
5.87324e-09
1.45417e-07
5.5196e-09
1.44251e-07
5.17906e-09
1.43147e-07
4.84811e-09
1.42103e-07
4.52621e-09
1.4112e-07
4.20721e-09
1.40196e-07
3.895e-09
1.39331e-07
3.57564e-09
1.38527e-07
3.26475e-09
1.37784e-07
2.92897e-09
1.37103e-07
2.61102e-09
1.36486e-07
2.2374e-09
1.35939e-07
1.89865e-09
1.35459e-07
1.46782e-09
1.35066e-07
1.05517e-09
1.34744e-07
6.05401e-10
1.34523e-07
-1.62354e-10
1.34443e-07
-3.47907e-10
-2.43785e-09
1.3401e-07
2.06423e-07
9.35027e-08
2.09334e-07
9.14373e-08
2.11062e-07
6.39129e-08
2.11947e-07
5.33955e-08
2.12016e-07
4.64387e-08
2.1164e-07
4.06265e-08
2.10921e-07
3.65026e-08
2.09862e-07
3.33696e-08
2.08503e-07
3.0689e-08
2.06901e-07
2.83185e-08
2.05113e-07
2.62158e-08
2.03187e-07
2.43372e-08
2.01166e-07
2.26441e-08
1.99086e-07
2.11088e-08
1.96976e-07
1.9711e-08
1.9486e-07
1.84347e-08
1.92756e-07
1.72663e-08
1.90679e-07
1.61942e-08
1.88639e-07
1.5208e-08
1.86645e-07
1.42988e-08
1.84702e-07
1.34587e-08
1.82814e-07
1.26804e-08
1.80985e-07
1.19577e-08
1.79215e-07
1.12849e-08
1.77506e-07
1.06569e-08
1.75858e-07
1.0069e-08
1.74271e-07
9.51699e-09
1.72743e-07
8.99689e-09
1.71275e-07
8.50513e-09
1.69866e-07
8.03834e-09
1.68515e-07
7.59339e-09
1.67221e-07
7.16738e-09
1.65983e-07
6.75731e-09
1.64801e-07
6.36094e-09
1.63675e-07
5.97459e-09
1.62603e-07
5.59757e-09
1.61587e-07
5.22343e-09
1.60626e-07
4.85594e-09
1.59721e-07
4.48069e-09
1.58873e-07
4.11305e-09
1.58082e-07
3.71944e-09
1.57352e-07
3.34101e-09
1.56683e-07
2.90684e-09
1.56082e-07
2.49916e-09
1.55544e-07
2.00581e-09
1.55093e-07
1.50703e-09
1.54709e-07
9.88434e-10
1.54412e-07
1.35148e-10
1.54258e-07
-1.93464e-10
-1.98829e-09
1.53808e-07
2.12269e-07
8.68956e-08
2.15143e-07
8.85642e-08
2.16817e-07
6.22387e-08
2.17861e-07
5.23509e-08
2.18276e-07
4.60244e-08
2.184e-07
4.05019e-08
2.18333e-07
3.65693e-08
2.18044e-07
3.36591e-08
2.17526e-07
3.12072e-08
2.16797e-07
2.90468e-08
2.15883e-07
2.713e-08
2.14808e-07
2.54123e-08
2.13598e-07
2.38542e-08
2.12278e-07
2.24285e-08
2.10873e-07
2.11166e-08
2.09403e-07
1.99048e-08
2.07887e-07
1.87822e-08
2.06341e-07
1.77395e-08
2.0478e-07
1.67691e-08
2.03215e-07
1.5864e-08
2.01655e-07
1.50183e-08
2.00109e-07
1.42265e-08
1.98583e-07
1.34839e-08
1.97082e-07
1.27859e-08
1.95611e-07
1.21285e-08
1.94172e-07
1.15079e-08
1.92768e-07
1.09205e-08
1.91402e-07
1.0363e-08
1.90075e-07
9.83227e-09
1.88788e-07
9.3252e-09
1.87542e-07
8.83896e-09
1.86339e-07
8.3708e-09
1.85179e-07
7.91784e-09
1.84062e-07
7.47787e-09
1.82989e-07
7.0472e-09
1.81961e-07
6.62512e-09
1.8098e-07
6.20507e-09
1.80045e-07
5.79062e-09
1.79158e-07
5.36735e-09
1.78322e-07
4.94984e-09
1.77536e-07
4.50556e-09
1.76804e-07
4.0722e-09
1.76127e-07
3.5846e-09
1.75513e-07
3.11249e-09
1.74955e-07
2.56372e-09
1.74477e-07
1.98488e-09
1.74065e-07
1.40129e-09
1.73719e-07
4.80309e-10
1.73512e-07
1.41407e-11
-1.54595e-09
1.7307e-07
2.18315e-07
8.0561e-08
2.21192e-07
8.56875e-08
2.2279e-07
6.06411e-08
2.23863e-07
5.12777e-08
2.24386e-07
4.55016e-08
2.24687e-07
4.02001e-08
2.24896e-07
3.63603e-08
2.24984e-07
3.35714e-08
2.2493e-07
3.12613e-08
2.24735e-07
2.92423e-08
2.24402e-07
2.74624e-08
2.23939e-07
2.58754e-08
2.23354e-07
2.4439e-08
2.22659e-07
2.31234e-08
2.21867e-07
2.1909e-08
2.2099e-07
2.07814e-08
2.20043e-07
1.973e-08
2.19036e-07
1.87462e-08
2.17982e-07
1.78229e-08
2.16892e-07
1.69544e-08
2.15774e-07
1.61357e-08
2.14638e-07
1.53625e-08
2.13491e-07
1.46308e-08
2.1234e-07
1.39371e-08
2.1119e-07
1.32783e-08
2.10047e-07
1.26514e-08
2.08914e-07
1.20534e-08
2.07796e-07
1.14815e-08
2.06695e-07
1.09333e-08
2.05614e-07
1.04059e-08
2.04556e-07
9.89689e-09
2.03523e-07
9.40381e-09
2.02517e-07
8.92394e-09
2.01539e-07
8.45525e-09
2.00593e-07
7.99411e-09
1.99678e-07
7.53987e-09
1.98797e-07
7.086e-09
1.97952e-07
6.63584e-09
1.97144e-07
6.17534e-09
1.96376e-07
5.71783e-09
1.95648e-07
5.2328e-09
1.94967e-07
4.75324e-09
1.9433e-07
4.2218e-09
1.93749e-07
3.69347e-09
1.93215e-07
3.09816e-09
1.9275e-07
2.44995e-09
1.92344e-07
1.80721e-09
1.91986e-07
8.37622e-10
1.91755e-07
2.45663e-10
-1.13675e-09
1.91346e-07
2.24549e-07
7.45052e-08
2.27452e-07
8.27845e-08
2.28986e-07
5.91074e-08
2.30066e-07
5.01973e-08
2.3063e-07
4.49381e-08
2.3098e-07
3.98496e-08
2.31279e-07
3.60618e-08
2.31514e-07
3.33358e-08
2.31668e-07
3.11074e-08
2.31739e-07
2.91715e-08
2.31726e-07
2.74754e-08
2.31627e-07
2.5974e-08
2.31443e-07
2.46235e-08
2.31174e-07
2.3392e-08
2.30825e-07
2.22578e-08
2.30401e-07
2.12054e-08
2.29908e-07
2.0223e-08
2.29353e-07
1.93016e-08
2.28742e-07
1.84338e-08
2.28083e-07
1.76138e-08
2.27382e-07
1.68366e-08
2.26646e-07
1.60982e-08
2.25882e-07
1.53952e-08
2.25094e-07
1.47244e-08
2.2429e-07
1.4083e-08
2.23473e-07
1.34685e-08
2.22647e-07
1.28785e-08
2.21819e-07
1.23105e-08
2.20989e-07
1.17624e-08
2.20163e-07
1.12318e-08
2.19344e-07
1.07165e-08
2.18533e-07
1.02143e-08
2.17735e-07
9.72272e-09
2.1695e-07
9.23981e-09
2.16182e-07
8.76209e-09
2.15433e-07
8.28895e-09
2.14705e-07
7.81399e-09
2.14e-07
7.34028e-09
2.13321e-07
6.85436e-09
2.12671e-07
6.36805e-09
2.12051e-07
5.85352e-09
2.11466e-07
5.33825e-09
2.10913e-07
4.77382e-09
2.10407e-07
4.1999e-09
2.09937e-07
3.56793e-09
2.09523e-07
2.86404e-09
2.0916e-07
2.1699e-09
2.08828e-07
1.17018e-09
2.08605e-07
4.69068e-10
-7.85495e-10
2.08253e-07
2.30975e-07
6.87362e-08
2.33913e-07
7.98465e-08
2.3539e-07
5.76306e-08
2.36479e-07
4.91083e-08
2.37075e-07
4.43415e-08
2.37441e-07
3.9484e-08
2.37761e-07
3.57413e-08
2.38043e-07
3.30543e-08
2.38272e-07
3.08779e-08
2.38452e-07
2.89917e-08
2.38584e-07
2.73435e-08
2.38666e-07
2.58917e-08
2.38697e-07
2.45933e-08
2.38673e-07
2.34156e-08
2.38595e-07
2.23357e-08
2.38463e-07
2.13371e-08
2.38279e-07
2.04074e-08
2.38044e-07
1.95364e-08
2.37762e-07
1.87163e-08
2.37435e-07
1.79407e-08
2.37067e-07
1.72044e-08
2.36662e-07
1.6503e-08
2.36224e-07
1.5833e-08
2.35758e-07
1.51913e-08
2.35265e-07
1.45752e-08
2.34752e-07
1.39821e-08
2.3422e-07
1.34099e-08
2.33675e-07
1.28563e-08
2.33118e-07
1.23193e-08
2.32553e-07
1.17968e-08
2.31982e-07
1.12867e-08
2.3141e-07
1.07869e-08
2.30838e-07
1.0295e-08
2.30268e-07
9.80933e-09
2.29704e-07
9.32634e-09
2.29147e-07
8.84549e-09
2.28601e-07
8.36053e-09
2.28067e-07
7.87414e-09
2.27548e-07
7.37367e-09
2.27046e-07
6.86913e-09
2.26564e-07
6.33583e-09
2.26107e-07
5.79536e-09
2.25672e-07
5.20855e-09
2.25272e-07
4.60038e-09
2.24898e-07
3.94153e-09
2.24566e-07
3.19654e-09
2.24276e-07
2.45997e-09
2.24e-07
1.4463e-09
2.23813e-07
6.55425e-10
-5.12161e-10
2.2354e-07
2.37601e-07
6.32598e-08
2.40579e-07
7.68692e-08
2.41998e-07
5.62108e-08
2.43095e-07
4.8012e-08
2.43728e-07
4.37081e-08
2.44107e-07
3.91051e-08
2.44433e-07
3.5415e-08
2.44728e-07
3.27599e-08
2.4498e-07
3.06254e-08
2.45196e-07
2.87753e-08
2.45383e-07
2.71571e-08
2.4554e-07
2.57344e-08
2.45667e-07
2.44663e-08
2.45762e-07
2.33201e-08
2.45825e-07
2.22729e-08
2.45854e-07
2.1308e-08
2.45849e-07
2.04124e-08
2.4581e-07
1.95757e-08
2.45737e-07
1.87894e-08
2.45631e-07
1.80469e-08
2.45493e-07
1.73424e-08
2.45324e-07
1.66714e-08
2.45127e-07
1.60299e-08
2.44904e-07
1.54146e-08
2.44657e-07
1.48227e-08
2.44387e-07
1.42516e-08
2.44098e-07
1.36991e-08
2.43791e-07
1.31629e-08
2.4347e-07
1.2641e-08
2.43135e-07
1.21313e-08
2.4279e-07
1.16318e-08
2.42437e-07
1.11404e-08
2.42077e-07
1.06548e-08
2.41713e-07
1.01733e-08
2.41347e-07
9.69231e-09
2.40981e-07
9.21131e-09
2.40617e-07
8.72417e-09
2.40258e-07
8.2331e-09
2.39906e-07
7.72636e-09
2.39563e-07
7.21198e-09
2.3923e-07
6.66862e-09
2.38914e-07
6.11193e-09
2.38611e-07
5.51162e-09
2.38331e-07
4.87964e-09
2.3807e-07
4.20237e-09
2.37837e-07
3.42985e-09
2.37637e-07
2.65994e-09
2.37438e-07
1.64494e-09
2.3731e-07
7.84081e-10
-3.28373e-10
2.37126e-07
2.44436e-07
5.80796e-08
2.47452e-07
7.38534e-08
2.48817e-07
5.48462e-08
2.49916e-07
4.69128e-08
2.50588e-07
4.3036e-08
2.50984e-07
3.87096e-08
2.51315e-07
3.5084e-08
2.51615e-07
3.24596e-08
2.51875e-07
3.0365e-08
2.52103e-07
2.85478e-08
2.52307e-07
2.69535e-08
2.5249e-07
2.55512e-08
2.52654e-07
2.43025e-08
2.52798e-07
2.31757e-08
2.52923e-07
2.2148e-08
2.53028e-07
2.12031e-08
2.53112e-07
2.0328e-08
2.53176e-07
1.95122e-08
2.53218e-07
1.87473e-08
2.53239e-07
1.80261e-08
2.53238e-07
1.73429e-08
2.53217e-07
1.66928e-08
2.53175e-07
1.60717e-08
2.53113e-07
1.5476e-08
2.53033e-07
1.49028e-08
2.52936e-07
1.43493e-08
2.52822e-07
1.38132e-08
2.52692e-07
1.32922e-08
2.52549e-07
1.27842e-08
2.52393e-07
1.22871e-08
2.52226e-07
1.17987e-08
2.5205e-07
1.1317e-08
2.51865e-07
1.08396e-08
2.51674e-07
1.03648e-08
2.51477e-07
9.88899e-09
2.51277e-07
9.41148e-09
2.51075e-07
8.92634e-09
2.50872e-07
8.43515e-09
2.50672e-07
7.92721e-09
2.50475e-07
7.40844e-09
2.50283e-07
6.86084e-09
2.501e-07
6.29447e-09
2.49925e-07
5.68696e-09
2.49765e-07
5.03951e-09
2.49617e-07
4.35019e-09
2.49486e-07
3.5613e-09
2.4938e-07
2.76615e-09
2.49266e-07
1.75831e-09
2.49205e-07
8.45557e-10
-2.35594e-10
2.49112e-07
2.51489e-07
5.31975e-08
2.54533e-07
7.08092e-08
2.55853e-07
5.3526e-08
2.5695e-07
4.58161e-08
2.5766e-07
4.23261e-08
2.58075e-07
3.82944e-08
2.58412e-07
3.47469e-08
2.58718e-07
3.21537e-08
2.58984e-07
3.00991e-08
2.59216e-07
2.83154e-08
2.59425e-07
2.67442e-08
2.59617e-07
2.53596e-08
2.59793e-07
2.41266e-08
2.59955e-07
2.3014e-08
2.60103e-07
2.19997e-08
2.60238e-07
2.10676e-08
2.60361e-07
2.02052e-08
2.60471e-07
1.94022e-08
2.60568e-07
1.865e-08
2.60653e-07
1.79418e-08
2.60724e-07
1.72716e-08
2.60782e-07
1.66345e-08
2.60828e-07
1.60262e-08
2.60861e-07
1.54431e-08
2.60881e-07
1.48822e-08
2.6089e-07
1.43406e-08
2.60888e-07
1.38158e-08
2.60874e-07
1.33056e-08
2.6085e-07
1.28078e-08
2.60817e-07
1.23202e-08
2.60775e-07
1.18406e-08
2.60725e-07
1.13669e-08
2.60669e-07
1.08966e-08
2.60605e-07
1.0428e-08
2.60537e-07
9.9574e-09
2.60464e-07
9.48394e-09
2.60389e-07
9.00193e-09
2.60312e-07
8.51223e-09
2.60234e-07
8.00522e-09
2.60158e-07
7.48471e-09
2.60082e-07
6.93586e-09
2.60013e-07
6.36375e-09
2.59948e-07
5.75266e-09
2.59891e-07
5.09557e-09
2.59843e-07
4.39826e-09
2.59804e-07
3.60103e-09
2.59783e-07
2.78717e-09
2.5975e-07
1.79096e-09
2.59754e-07
8.41266e-10
-2.25751e-10
2.59744e-07
2.58766e-07
4.86141e-08
2.61828e-07
6.77472e-08
2.63115e-07
5.2239e-08
2.64205e-07
4.47269e-08
2.6495e-07
4.15806e-08
2.65387e-07
3.78578e-08
2.65731e-07
3.44027e-08
2.66043e-07
3.18418e-08
2.66315e-07
2.98273e-08
2.66551e-07
2.80788e-08
2.66764e-07
2.65316e-08
2.66959e-07
2.51647e-08
2.67139e-07
2.39464e-08
2.67306e-07
2.28465e-08
2.67463e-07
2.18434e-08
2.67609e-07
2.09214e-08
2.67746e-07
2.00682e-08
2.67874e-07
1.92738e-08
2.67994e-07
1.853e-08
2.68106e-07
1.78299e-08
2.6821e-07
1.71676e-08
2.68307e-07
1.65382e-08
2.68395e-07
1.59375e-08
2.68476e-07
1.53619e-08
2.6855e-07
1.48082e-08
2.68617e-07
1.42736e-08
2.68677e-07
1.37557e-08
2.68731e-07
1.3252e-08
2.68779e-07
1.27604e-08
2.6882e-07
1.22786e-08
2.68856e-07
1.18045e-08
2.68887e-07
1.1336e-08
2.68913e-07
1.08704e-08
2.68935e-07
1.04059e-08
2.68954e-07
9.93901e-09
2.68969e-07
9.46843e-09
2.68982e-07
8.98881e-09
2.68994e-07
8.50028e-09
2.69005e-07
7.99429e-09
2.69017e-07
7.47268e-09
2.6903e-07
6.92344e-09
2.69046e-07
6.34744e-09
2.69064e-07
5.73418e-09
2.69089e-07
5.07097e-09
2.69119e-07
4.36778e-09
2.69153e-07
3.56722e-09
2.69201e-07
2.73946e-09
2.69236e-07
1.75604e-09
2.69296e-07
7.80744e-10
-2.84096e-10
2.69355e-07
2.66278e-07
4.43278e-08
2.69348e-07
6.4678e-08
2.70612e-07
5.09747e-08
2.71689e-07
4.36495e-08
2.72467e-07
4.08027e-08
2.72927e-07
3.7398e-08
2.73279e-07
3.40507e-08
2.73597e-07
3.15238e-08
2.73875e-07
2.95493e-08
2.74116e-07
2.78375e-08
2.74332e-07
2.63158e-08
2.7453e-07
2.49671e-08
2.74713e-07
2.37637e-08
2.74883e-07
2.26765e-08
2.75042e-07
2.16841e-08
2.75192e-07
2.07713e-08
2.75334e-07
1.99261e-08
2.75469e-07
1.91389e-08
2.75597e-07
1.84016e-08
2.7572e-07
1.77074e-08
2.75837e-07
1.70505e-08
2.75949e-07
1.64261e-08
2.76056e-07
1.58301e-08
2.76159e-07
1.52589e-08
2.76258e-07
1.47093e-08
2.76353e-07
1.41785e-08
2.76445e-07
1.36641e-08
2.76533e-07
1.31638e-08
2.76618e-07
1.26753e-08
2.767e-07
1.21965e-08
2.7678e-07
1.17252e-08
2.76857e-07
1.12592e-08
2.76931e-07
1.07958e-08
2.77004e-07
1.03333e-08
2.77075e-07
9.868e-09
2.77145e-07
9.39857e-09
2.77214e-07
8.91988e-09
2.77283e-07
8.43136e-09
2.77351e-07
7.92549e-09
2.77422e-07
7.40234e-09
2.77493e-07
6.85232e-09
2.77567e-07
6.27297e-09
2.77644e-07
5.6576e-09
2.77725e-07
4.99008e-09
2.77811e-07
4.28178e-09
2.77897e-07
3.48051e-09
2.77995e-07
2.64223e-09
2.7808e-07
1.67045e-09
2.78183e-07
6.77551e-10
-3.93046e-10
2.78292e-07
2.74033e-07
4.03358e-08
2.77099e-07
6.16126e-08
2.78351e-07
4.97227e-08
2.79413e-07
4.25875e-08
2.80219e-07
3.99959e-08
2.80704e-07
3.69135e-08
2.81065e-07
3.369e-08
2.81389e-07
3.11997e-08
2.81673e-07
2.92648e-08
2.8192e-07
2.75911e-08
2.82139e-07
2.60964e-08
2.82339e-07
2.47668e-08
2.82524e-07
2.35788e-08
2.82696e-07
2.25045e-08
2.82857e-07
2.1523e-08
2.83009e-07
2.06194e-08
2.83153e-07
1.97821e-08
2.83291e-07
1.90016e-08
2.83422e-07
1.82701e-08
2.83548e-07
1.7581e-08
2.8367e-07
1.69286e-08
2.83789e-07
1.63081e-08
2.83903e-07
1.57154e-08
2.84015e-07
1.5147e-08
2.84125e-07
1.45998e-08
2.84232e-07
1.40712e-08
2.84337e-07
1.35585e-08
2.84442e-07
1.30597e-08
2.84544e-07
1.25724e-08
2.84646e-07
1.20947e-08
2.84747e-07
1.16241e-08
2.84848e-07
1.11587e-08
2.84948e-07
1.06958e-08
2.85048e-07
1.02335e-08
2.85147e-07
9.76823e-09
2.85247e-07
9.29841e-09
2.85348e-07
8.81927e-09
2.8545e-07
8.32955e-09
2.85553e-07
7.82268e-09
2.85658e-07
7.29724e-09
2.85765e-07
6.74558e-09
2.85875e-07
6.16282e-09
2.85988e-07
5.54476e-09
2.86104e-07
4.87374e-09
2.86225e-07
4.16049e-09
2.86346e-07
3.35952e-09
2.86475e-07
2.51306e-09
2.86595e-07
1.55057e-09
2.86727e-07
5.4543e-10
-5.35715e-10
2.8687e-07
2.8204e-07
3.66332e-08
2.85091e-07
5.85618e-08
2.8634e-07
4.84736e-08
2.87384e-07
4.15438e-08
2.88215e-07
3.91649e-08
2.88725e-07
3.6403e-08
2.89096e-07
3.33194e-08
2.89426e-07
3.08697e-08
2.89717e-07
2.89737e-08
2.89969e-07
2.73394e-08
2.90192e-07
2.58731e-08
2.90395e-07
2.45635e-08
2.90583e-07
2.33913e-08
2.90757e-07
2.23304e-08
2.9092e-07
2.13602e-08
2.91073e-07
2.0466e-08
2.91219e-07
1.96366e-08
2.91357e-07
1.88629e-08
2.9149e-07
1.81372e-08
2.91618e-07
1.7453e-08
2.91742e-07
1.68047e-08
2.91863e-07
1.61876e-08
2.9198e-07
1.55978e-08
2.92095e-07
1.50317e-08
2.92209e-07
1.44863e-08
2.92321e-07
1.39589e-08
2.92433e-07
1.34471e-08
2.92544e-07
1.29488e-08
2.92654e-07
1.24618e-08
2.92765e-07
1.1984e-08
2.92876e-07
1.15132e-08
2.92987e-07
1.10473e-08
2.93099e-07
1.05837e-08
2.93212e-07
1.01204e-08
2.93326e-07
9.65414e-09
2.93442e-07
9.18288e-09
2.93559e-07
8.70226e-09
2.93678e-07
8.21043e-09
2.93799e-07
7.70165e-09
2.93923e-07
7.17329e-09
2.94049e-07
6.61919e-09
2.94179e-07
6.03282e-09
2.94313e-07
5.41144e-09
2.94449e-07
4.73724e-09
2.94591e-07
4.01905e-09
2.94732e-07
3.2185e-09
2.94879e-07
2.36561e-09
2.9502e-07
1.40974e-09
2.9517e-07
3.95842e-10
-6.98168e-10
2.95332e-07
2.90308e-07
3.32136e-08
2.93333e-07
5.55369e-08
2.94588e-07
4.72184e-08
2.95612e-07
4.05204e-08
2.96462e-07
3.83145e-08
2.97e-07
3.58654e-08
2.97381e-07
3.29377e-08
2.97717e-07
3.05337e-08
2.98015e-07
2.8676e-08
2.98273e-07
2.70818e-08
2.985e-07
2.56456e-08
2.98707e-07
2.4357e-08
2.98897e-07
2.32012e-08
2.99073e-07
2.21541e-08
2.99238e-07
2.11955e-08
2.99393e-07
2.03109e-08
2.9954e-07
1.94897e-08
2.9968e-07
1.8723e-08
2.99814e-07
1.80031e-08
2.99943e-07
1.73238e-08
3.00068e-07
1.66797e-08
3.0019e-07
1.6066e-08
3.00308e-07
1.54789e-08
3.00425e-07
1.49148e-08
3.00541e-07
1.43709e-08
3.00655e-07
1.38445e-08
3.00769e-07
1.33333e-08
3.00883e-07
1.28351e-08
3.00997e-07
1.23478e-08
3.01111e-07
1.18695e-08
3.01227e-07
1.13979e-08
3.01343e-07
1.09309e-08
3.01461e-07
1.04661e-08
3.0158e-07
1.00013e-08
3.01701e-07
9.5333e-09
3.01824e-07
9.06001e-09
3.01949e-07
8.5773e-09
3.02076e-07
8.08284e-09
3.02206e-07
7.57154e-09
3.0234e-07
7.03989e-09
3.02476e-07
6.48278e-09
3.02616e-07
5.89272e-09
3.0276e-07
5.26757e-09
3.02907e-07
4.59032e-09
3.03059e-07
3.86732e-09
3.0321e-07
3.06696e-09
3.03367e-07
2.20905e-09
3.03519e-07
1.2574e-09
3.03678e-07
2.37084e-10
-8.70202e-10
3.0385e-07
2.98847e-07
3.00688e-08
3.01835e-07
5.25491e-08
3.03104e-07
4.59494e-08
3.04106e-07
3.95187e-08
3.0497e-07
3.74501e-08
3.05536e-07
3.53002e-08
3.0593e-07
3.25434e-08
3.06272e-07
3.01918e-08
3.06576e-07
2.83715e-08
3.0684e-07
2.68181e-08
3.07072e-07
2.54136e-08
3.07282e-07
2.41471e-08
3.07475e-07
2.30083e-08
3.07654e-07
2.19754e-08
3.0782e-07
2.10287e-08
3.07977e-07
2.01542e-08
3.08126e-07
1.93414e-08
3.08267e-07
1.85817e-08
3.08402e-07
1.78679e-08
3.08532e-07
1.71936e-08
3.08658e-07
1.65536e-08
3.08781e-07
1.59434e-08
3.08901e-07
1.5359e-08
3.09019e-07
1.47969e-08
3.09135e-07
1.42544e-08
3.09251e-07
1.37289e-08
3.09366e-07
1.3218e-08
3.09482e-07
1.27198e-08
3.09597e-07
1.22321e-08
3.09714e-07
1.1753e-08
3.09831e-07
1.12804e-08
3.0995e-07
1.08121e-08
3.1007e-07
1.03458e-08
3.10192e-07
9.87915e-09
3.10317e-07
9.40919e-09
3.10443e-07
8.93358e-09
3.10572e-07
8.44848e-09
3.10704e-07
7.95113e-09
3.10838e-07
7.43699e-09
3.10976e-07
6.90192e-09
3.11117e-07
6.34148e-09
3.11262e-07
5.74775e-09
3.11411e-07
5.11865e-09
3.11563e-07
4.43849e-09
3.11719e-07
3.711e-09
3.11876e-07
2.91051e-09
3.12036e-07
2.0488e-09
3.12194e-07
1.09955e-09
3.12357e-07
7.45144e-11
-1.04504e-09
3.12531e-07
3.07667e-07
2.71891e-08
3.10607e-07
4.96096e-08
3.11896e-07
4.46596e-08
3.12876e-07
3.8539e-08
3.13749e-07
3.65768e-08
3.14342e-07
3.47075e-08
3.1475e-07
3.21349e-08
3.15099e-07
2.98436e-08
3.1541e-07
2.80605e-08
3.1568e-07
2.65479e-08
3.15917e-07
2.51767e-08
3.1613e-07
2.39334e-08
3.16326e-07
2.28122e-08
3.16508e-07
2.1794e-08
3.16677e-07
2.08596e-08
3.16835e-07
1.99955e-08
3.16986e-07
1.91913e-08
3.17128e-07
1.8439e-08
3.17265e-07
1.77313e-08
3.17396e-07
1.70622e-08
3.17523e-07
1.64265e-08
3.17647e-07
1.58197e-08
3.17768e-07
1.5238e-08
3.17887e-07
1.4678e-08
3.18004e-07
1.41369e-08
3.18121e-07
1.36122e-08
3.18237e-07
1.31017e-08
3.18354e-07
1.26033e-08
3.18471e-07
1.21151e-08
3.18589e-07
1.16352e-08
3.18707e-07
1.11614e-08
3.18828e-07
1.06918e-08
3.1895e-07
1.02238e-08
3.19074e-07
9.75525e-09
3.192e-07
9.2832e-09
3.19328e-07
8.80516e-09
3.19459e-07
8.31751e-09
3.19593e-07
7.81721e-09
3.1973e-07
7.3001e-09
3.1987e-07
6.76161e-09
3.20014e-07
6.19772e-09
3.20161e-07
5.60045e-09
3.20312e-07
4.96743e-09
3.20466e-07
4.28452e-09
3.20624e-07
3.55302e-09
3.20783e-07
2.75216e-09
3.20944e-07
1.88773e-09
3.21104e-07
9.39705e-10
3.21267e-07
-8.86612e-11
-1.21845e-09
3.2144e-07
3.16777e-07
2.45631e-08
3.19657e-07
4.67294e-08
3.20973e-07
4.33435e-08
3.21931e-07
3.75811e-08
3.22808e-07
3.56997e-08
3.23428e-07
3.4088e-08
3.23852e-07
3.17108e-08
3.24207e-07
2.94889e-08
3.24524e-07
2.77429e-08
3.24801e-07
2.62711e-08
3.25043e-07
2.49346e-08
3.25261e-07
2.37158e-08
3.2546e-07
2.26129e-08
3.25644e-07
2.16097e-08
3.25816e-07
2.06882e-08
3.25977e-07
1.98347e-08
3.26129e-07
1.90395e-08
3.26273e-07
1.82946e-08
3.26411e-07
1.75933e-08
3.26544e-07
1.69295e-08
3.26672e-07
1.62982e-08
3.26797e-07
1.56949e-08
3.26919e-07
1.5116e-08
3.27039e-07
1.4558e-08
3.27157e-07
1.40183e-08
3.27275e-07
1.34945e-08
3.27393e-07
1.29842e-08
3.2751e-07
1.24858e-08
3.27628e-07
1.1997e-08
3.27747e-07
1.15162e-08
3.27867e-07
1.10413e-08
3.27989e-07
1.05702e-08
3.28112e-07
1.01005e-08
3.28238e-07
9.62998e-09
3.28365e-07
9.15577e-09
3.28495e-07
8.67527e-09
3.28627e-07
8.18505e-09
3.28763e-07
7.6818e-09
3.28901e-07
7.16167e-09
3.29043e-07
6.61986e-09
3.29188e-07
6.05254e-09
3.29337e-07
5.45191e-09
3.29489e-07
4.81515e-09
3.29644e-07
4.12968e-09
3.29802e-07
3.39477e-09
3.29961e-07
2.59343e-09
3.30121e-07
1.72725e-09
3.30281e-07
7.79891e-10
3.30443e-07
-2.50501e-10
-1.38786e-09
3.30612e-07
3.26187e-07
2.21784e-08
3.28997e-07
4.39196e-08
3.30344e-07
4.19969e-08
3.31281e-07
3.66436e-08
3.32157e-07
3.48235e-08
3.32802e-07
3.34432e-08
3.33243e-07
3.12696e-08
3.33605e-07
2.91271e-08
3.33929e-07
2.74188e-08
3.34213e-07
2.59874e-08
3.34461e-07
2.46869e-08
3.34683e-07
2.34939e-08
3.34886e-07
2.241e-08
3.35073e-07
2.14224e-08
3.35247e-07
2.0514e-08
3.3541e-07
1.96715e-08
3.35564e-07
1.88856e-08
3.3571e-07
1.81485e-08
3.3585e-07
1.74537e-08
3.35984e-07
1.67953e-08
3.36114e-07
1.61685e-08
3.3624e-07
1.55689e-08
3.36363e-07
1.49927e-08
3.36484e-07
1.44369e-08
3.36604e-07
1.38986e-08
3.36723e-07
1.33755e-08
3.36841e-07
1.28656e-08
3.3696e-07
1.2367e-08
3.37079e-07
1.18777e-08
3.372e-07
1.1396e-08
3.37321e-07
1.09199e-08