/*--------------------------------*- C++ -*----------------------------------*\
  =========                 |
  \\      /  F ield         | OpenFOAM: The Open Source CFD Toolbox
   \\    /   O peration     | Website:  https://openfoam.org
    \\  /    A nd           | Version:  7
     \\/     M anipulation  |
\*---------------------------------------------------------------------------*/
FoamFile
{
    version     2.0;
    format      ascii;
    class       volVectorField;
    location    "0.37";
    object      U;
}
// * * * * * * * * * * * * * * * * * * * * * * * * * * * * * * * * * * * * * //

dimensions      [0 1 -1 0 0 0 0];

internalField   nonuniform List<vector> 
70000
(
(0.553415 0.016978 0)
(0.251427 0.00340028 0)
(0.165948 0.000318829 0)
(0.132479 4.89102e-05 0)
(0.117389 4.39571e-05 0)
(0.107448 5.21133e-05 0)
(0.0994949 4.43034e-05 0)
(0.0930708 3.52139e-05 0)
(0.0878477 2.91615e-05 0)
(0.0835013 2.50079e-05 0)
(0.0798035 2.18284e-05 0)
(0.0766069 1.92743e-05 0)
(0.0738104 1.71857e-05 0)
(0.0713399 1.54543e-05 0)
(0.0691394 1.39993e-05 0)
(0.0671656 1.27613e-05 0)
(0.0653842 1.16957e-05 0)
(0.063768 1.07684e-05 0)
(0.0622952 9.95393e-06 0)
(0.0609478 9.23142e-06 0)
(0.0597108 8.58511e-06 0)
(0.0585721 8.00177e-06 0)
(0.0575212 7.47092e-06 0)
(0.0565495 6.98374e-06 0)
(0.0556496 6.53299e-06 0)
(0.0548152 6.11225e-06 0)
(0.0540409 5.71603e-06 0)
(0.0533222 5.33992e-06 0)
(0.0526553 4.97807e-06 0)
(0.0520368 4.62917e-06 0)
(0.0514642 4.28419e-06 0)
(0.0509351 3.9472e-06 0)
(0.0504479 3.60225e-06 0)
(0.0500009 3.26289e-06 0)
(0.0495935 2.89986e-06 0)
(0.0492249 2.54108e-06 0)
(0.0488947 2.14428e-06 0)
(0.0486044 1.73469e-06 0)
(0.0483514 1.30997e-06 0)
(0.0481444 7.60903e-07 0)
(0.0479689 4.05239e-07 0)
(0.0478598 -5.6486e-07 0)
(0.0477575 -4.6475e-07 0)
(0.0477821 -2.66377e-06 0)
(0.0477275 -5.38171e-07 0)
(0.0479725 -6.71044e-06 0)
(0.0478748 2.63514e-06 0)
(0.0485298 -1.66663e-05 0)
(0.0483276 3.52357e-05 0)
(0.0458189 -0.00184156 0)
(0.884863 0.0434928 0)
(0.650164 0.0201479 0)
(0.494023 0.00660324 0)
(0.403638 0.00275318 0)
(0.354966 0.00154624 0)
(0.323694 0.00112981 0)
(0.29984 0.000907232 0)
(0.280679 0.000742472 0)
(0.265018 0.000619581 0)
(0.251954 0.000528872 0)
(0.240834 0.000459922 0)
(0.23122 0.000405575 0)
(0.222805 0.000361582 0)
(0.215367 0.000325292 0)
(0.208737 0.000294904 0)
(0.202786 0.000269122 0)
(0.197411 0.000246991 0)
(0.192532 0.000227792 0)
(0.188082 0.000210976 0)
(0.184007 0.000196115 0)
(0.180263 0.000182873 0)
(0.176812 0.00017098 0)
(0.173625 0.000160217 0)
(0.170673 0.000150404 0)
(0.167936 0.000141389 0)
(0.165394 0.000133047 0)
(0.16303 0.000125266 0)
(0.160832 0.000117951 0)
(0.158786 0.000111012 0)
(0.156884 0.00010438 0)
(0.155116 9.79685e-05 0)
(0.153476 9.17297e-05 0)
(0.151957 8.55605e-05 0)
(0.150556 7.94538e-05 0)
(0.149268 7.32443e-05 0)
(0.148092 6.70099e-05 0)
(0.147026 6.04442e-05 0)
(0.146071 5.37884e-05 0)
(0.145222 4.64937e-05 0)
(0.1445 3.90163e-05 0)
(0.143866 3.05956e-05 0)
(0.143412 2.15685e-05 0)
(0.142981 1.18797e-05 0)
(0.142889 -3.90404e-07 0)
(0.142596 -9.91416e-06 0)
(0.143089 -3.19856e-05 0)
(0.142725 -2.95857e-05 0)
(0.144263 -0.000109691 0)
(0.143739 0.000180536 0)
(0.142849 -0.00303648 0)
(0.991208 0.0499546 0)
(0.890937 0.0305603 0)
(0.76254 0.014607 0)
(0.656631 0.00796663 0)
(0.585581 0.00487504 0)
(0.53627 0.00346957 0)
(0.498439 0.00273295 0)
(0.467874 0.0022382 0)
(0.442631 0.00187394 0)
(0.4214 0.00160172 0)
(0.403233 0.00139362 0)
(0.387463 0.00122958 0)
(0.373616 0.00109689 0)
(0.361342 0.000987455 0)
(0.350377 0.0008958 0)
(0.340514 0.000818025 0)
(0.331589 0.000751259 0)
(0.323474 0.00069334 0)
(0.31606 0.000642619 0)
(0.309261 0.000597812 0)
(0.303005 0.000557907 0)
(0.297231 0.000522094 0)
(0.29189 0.000489717 0)
(0.286936 0.000460233 0)
(0.282335 0.000433194 0)
(0.278054 0.000408214 0)
(0.274067 0.000384968 0)
(0.27035 0.000363169 0)
(0.266885 0.00034256 0)
(0.263654 0.000322921 0)
(0.260642 0.000304022 0)
(0.257838 0.000285699 0)
(0.255232 0.000267695 0)
(0.252815 0.000249936 0)
(0.250581 0.000232031 0)
(0.248525 0.000214108 0)
(0.246644 0.00019541 0)
(0.24494 0.000176561 0)
(0.243401 0.000155937 0)
(0.242059 0.000135295 0)
(0.240857 0.000111209 0)
(0.239926 8.76226e-05 0)
(0.239038 5.81669e-05 0)
(0.238644 2.94268e-05 0)
(0.237981 -6.19818e-06 0)
(0.238432 -5.02289e-05 0)
(0.237725 -7.57497e-05 0)
(0.23962 -0.000232497 0)
(0.238661 0.00011721 0)
(0.240375 -0.00314062 0)
(1.01554 0.0489525 0)
(1.0065 0.0357205 0)
(0.935925 0.0208133 0)
(0.8521 0.0134911 0)
(0.782386 0.00918974 0)
(0.727307 0.00677434 0)
(0.682291 0.00537732 0)
(0.644609 0.00443516 0)
(0.612681 0.00373945 0)
(0.58531 0.00321235 0)
(0.561561 0.00280477 0)
(0.540726 0.00248135 0)
(0.52228 0.00221861 0)
(0.505818 0.00200117 0)
(0.491027 0.00181852 0)
(0.477659 0.00166315 0)
(0.465513 0.0015295 0)
(0.454427 0.00141336 0)
(0.444268 0.00131152 0)
(0.434924 0.00122147 0)
(0.426303 0.00114121 0)
(0.418328 0.00106915 0)
(0.410931 0.001004 0)
(0.404057 0.000944676 0)
(0.397656 0.000890299 0)
(0.391688 0.000840105 0)
(0.386117 0.000793448 0)
(0.380912 0.00074976 0)
(0.376046 0.000708538 0)
(0.371497 0.000669342 0)
(0.367244 0.000631736 0)
(0.363271 0.000595377 0)
(0.359564 0.00055981 0)
(0.356111 0.000524834 0)
(0.352903 0.000489782 0)
(0.349932 0.000454802 0)
(0.347193 0.000418566 0)
(0.344687 0.000382189 0)
(0.342399 0.00034257 0)
(0.340365 0.000303373 0)
(0.338518 0.000257139 0)
(0.337005 0.00021367 0)
(0.335571 0.000155918 0)
(0.33472 0.000106064 0)
(0.3336 3.14989e-05 0)
(0.33374 -3.53503e-05 0)
(0.33267 -0.000110207 0)
(0.334413 -0.000331416 0)
(0.333142 -3.7711e-05 0)
(0.335791 -0.00293369 0)
(1.01435 0.0460967 0)
(1.04799 0.0373366 0)
(1.02459 0.0241787 0)
(0.974747 0.017547 0)
(0.923607 0.0130967 0)
(0.876949 0.0101916 0)
(0.834866 0.00833009 0)
(0.797209 0.00700571 0)
(0.76375 0.00599304 0)
(0.734048 0.0052034 0)
(0.70759 0.00457918 0)
(0.683905 0.00407598 0)
(0.662595 0.00366239 0)
(0.643331 0.00331695 0)
(0.625836 0.00302462 0)
(0.60988 0.00277439 0)
(0.595273 0.00255802 0)
(0.581851 0.00236919 0)
(0.56948 0.00220301 0)
(0.558044 0.0020556 0)
(0.547445 0.0019239 0)
(0.537597 0.00180541 0)
(0.52843 0.0016981 0)
(0.51988 0.00160027 0)
(0.511894 0.00151053 0)
(0.504423 0.00142765 0)
(0.497427 0.00135061 0)
(0.49087 0.00127849 0)
(0.484723 0.0012105 0)
(0.478956 0.00114591 0)
(0.473548 0.00108406 0)
(0.468478 0.00102436 0)
(0.463729 0.000966135 0)
(0.459287 0.000909008 0)
(0.455141 0.000852007 0)
(0.451279 0.000795266 0)
(0.447696 0.000736834 0)
(0.444391 0.000678325 0)
(0.441349 0.000615011 0)
(0.438601 0.00055265 0)
(0.436083 0.000479292 0)
(0.433939 0.000411217 0)
(0.431919 0.000319672 0)
(0.430511 0.000243637 0)
(0.428901 0.000123742 0)
(0.428534 2.67703e-05 0)
(0.427124 -0.000103119 0)
(0.42832 -0.000389078 0)
(0.426972 -0.000181112 0)
(0.429174 -0.00272157 0)
(1.00941 0.0430463 0)
(1.05564 0.0370915 0)
(1.05869 0.0253187 0)
(1.03635 0.0197492 0)
(1.00722 0.015781 0)
(0.976267 0.0129146 0)
(0.944815 0.0109409 0)
(0.914036 0.00945514 0)
(0.884784 0.0082611 0)
(0.857441 0.00729036 0)
(0.832084 0.00649729 0)
(0.808651 0.00584148 0)
(0.787021 0.00529154 0)
(0.767053 0.00482476 0)
(0.748602 0.00442447 0)
(0.731526 0.00407805 0)
(0.715697 0.00377571 0)
(0.700997 0.00350977 0)
(0.687321 0.00327414 0)
(0.674575 0.00306393 0)
(0.662675 0.00287519 0)
(0.651548 0.00270466 0)
(0.641129 0.00254967 0)
(0.631359 0.00240795 0)
(0.622188 0.0022776 0)
(0.61357 0.00215698 0)
(0.605465 0.00204469 0)
(0.597838 0.00193945 0)
(0.590657 0.00184017 0)
(0.583896 0.00174585 0)
(0.577529 0.00165554 0)
(0.571537 0.00156844 0)
(0.565902 0.00148361 0)
(0.560607 0.00140048 0)
(0.555642 0.00131777 0)
(0.550994 0.00123555 0)
(0.546657 0.00115128 0)
(0.542627 0.00106699 0)
(0.538892 0.000976411 0)
(0.535477 0.000887152 0)
(0.532328 0.000783194 0)
(0.529566 0.000686382 0)
(0.526981 0.000558015 0)
(0.524989 0.00045026 0)
(0.522904 0.000284121 0)
(0.521936 0.000146111 0)
(0.520218 -3.5432e-05 0)
(0.520665 -0.000393694 0)
(0.519316 -0.000278378 0)
(0.520643 -0.00249236 0)
(1.00635 0.0401782 0)
(1.05241 0.0361444 0)
(1.06607 0.0252412 0)
(1.05956 0.0205523 0)
(1.04696 0.0172051 0)
(1.03096 0.0146288 0)
(1.01212 0.0127946 0)
(0.991515 0.0113651 0)
(0.970197 0.0101637 0)
(0.948898 0.00914398 0)
(0.92806 0.0082796 0)
(0.907946 0.00754232 0)
(0.888703 0.00690771 0)
(0.870402 0.00635705 0)
(0.853061 0.00587591 0)
(0.836669 0.00545281 0)
(0.821196 0.00507848 0)
(0.806598 0.0047453 0)
(0.79283 0.00444707 0)
(0.779842 0.00417863 0)
(0.767588 0.00393571 0)
(0.75602 0.00371474 0)
(0.745095 0.00351268 0)
(0.734773 0.00332697 0)
(0.725014 0.00315539 0)
(0.715785 0.00299599 0)
(0.707053 0.00284708 0)
(0.69879 0.00270715 0)
(0.690969 0.00257484 0)
(0.683568 0.0024489 0)
(0.676566 0.00232817 0)
(0.669943 0.00221161 0)
(0.663685 0.00209808 0)
(0.657777 0.0019868 0)
(0.652209 0.00187622 0)
(0.64697 0.00176632 0)
(0.642054 0.00165402 0)
(0.637456 0.00154163 0)
(0.633168 0.00142163 0)
(0.629208 0.00130293 0)
(0.625537 0.00116647 0)
(0.622248 0.00103777 0)
(0.619179 0.000871571 0)
(0.616657 0.000727234 0)
(0.614156 0.000516366 0)
(0.612604 0.000329233 0)
(0.610607 9.87626e-05 0)
(0.610299 -0.00033459 0)
(0.608889 -0.000315612 0)
(0.609383 -0.00222242 0)
(1.00506 0.0375009 0)
(1.04763 0.0350458 0)
(1.06397 0.0246932 0)
(1.06421 0.0205822 0)
(1.06075 0.0177413 0)
(1.05488 0.0154667 0)
(1.04617 0.0138468 0)
(1.03504 0.0125815 0)
(1.02221 0.0114899 0)
(1.00827 0.0105322 0)
(0.993685 0.00969437 0)
(0.978811 0.00895854 0)
(0.96391 0.00830793 0)
(0.949178 0.0077295 0)
(0.93475 0.007213 0)
(0.92072 0.00675 0)
(0.907148 0.00633332 0)
(0.894068 0.00595682 0)
(0.881499 0.00561527 0)
(0.869446 0.00530415 0)
(0.857906 0.0050196 0)
(0.846869 0.00475829 0)
(0.836324 0.00451733 0)
(0.826253 0.00429417 0)
(0.816642 0.0040866 0)
(0.807472 0.0038926 0)
(0.798726 0.0037104 0)
(0.790388 0.00353837 0)
(0.782441 0.00337502 0)
(0.774872 0.00321898 0)
(0.767665 0.00306894 0)
(0.760809 0.00292371 0)
(0.754294 0.00278196 0)
(0.748108 0.00264277 0)
(0.742246 0.00250437 0)
(0.736699 0.00236662 0)
(0.731464 0.00222606 0)
(0.726536 0.00208507 0)
(0.721914 0.0019353 0)
(0.717608 0.00178628 0)
(0.713594 0.00161716 0)
(0.70994 0.00145496 0)
(0.706534 0.00125167 0)
(0.703613 0.00106763 0)
(0.700803 0.000814816 0)
(0.698774 0.000573738 0)
(0.696551 0.000296219 0)
(0.695607 -0.000207509 0)
(0.694079 -0.000289807 0)
(0.693892 -0.00191782 0)
(1.00451 0.0349649 0)
(1.0436 0.0339656 0)
(1.05994 0.0240418 0)
(1.06225 0.020292 0)
(1.06256 0.0178047 0)
(1.06192 0.0157439 0)
(1.05939 0.014297 0)
(1.05489 0.0131965 0)
(1.04874 0.0122461 0)
(1.04124 0.0113994 0)
(1.03269 0.0106449 0)
(1.02332 0.00996882 0)
(1.01339 0.00935818 0)
(1.00307 0.0088036 0)
(0.992535 0.00829816 0)
(0.981919 0.00783625 0)
(0.971324 0.00741305 0)
(0.960831 0.00702432 0)
(0.950502 0.00666628 0)
(0.940384 0.0063356 0)
(0.930511 0.00602931 0)
(0.920908 0.00574477 0)
(0.91159 0.00547958 0)
(0.902569 0.00523162 0)
(0.89385 0.00499893 0)
(0.885436 0.00477971 0)
(0.877327 0.00457232 0)
(0.869522 0.00437519 0)
(0.862016 0.00418689 0)
(0.854806 0.00400601 0)
(0.847889 0.00383124 0)
(0.84126 0.0036613 0)
(0.834915 0.0034948 0)
(0.828851 0.00333073 0)
(0.823067 0.00316716 0)
(0.817558 0.00300385 0)
(0.812327 0.0028371 0)
(0.807371 0.00266923 0)
(0.802692 0.00249142 0)
(0.7983 0.00231324 0)
(0.794182 0.0021132 0)
(0.790387 0.00191795 0)
(0.786841 0.00167993 0)
(0.783714 0.00145551 0)
(0.780752 0.00116438 0)
(0.77842 0.000868338 0)
(0.776069 0.000546578 0)
(0.77467 -1.92015e-05 0)
(0.773032 -0.00020441 0)
(0.772343 -0.00159378 0)
(1.00412 0.0325342 0)
(1.04027 0.0329119 0)
(1.05618 0.0234068 0)
(1.05889 0.0199068 0)
(1.06029 0.0176745 0)
(1.06169 0.0157448 0)
(1.06209 0.0143986 0)
(1.06124 0.0134127 0)
(1.05923 0.0125774 0)
(1.05617 0.0118355 0)
(1.05215 0.011173 0)
(1.04728 0.0105758 0)
(1.0417 0.0100309 0)
(1.03552 0.00952942 0)
(1.02887 0.00906567 0)
(1.02185 0.00863536 0)
(1.01457 0.00823504 0)
(1.00711 0.00786176 0)
(0.999545 0.00751294 0)
(0.991932 0.00718629 0)
(0.984324 0.00687974 0)
(0.976765 0.00659139 0)
(0.969288 0.00631953 0)
(0.961922 0.00606254 0)
(0.95469 0.00581892 0)
(0.947611 0.00558721 0)
(0.940697 0.00536605 0)
(0.933961 0.0051541 0)
(0.92741 0.00495008 0)
(0.921053 0.0047527 0)
(0.914895 0.00456072 0)
(0.908939 0.00437289 0)
(0.903191 0.00418782 0)
(0.897652 0.00400448 0)
(0.892328 0.00382087 0)
(0.887219 0.00363669 0)
(0.882334 0.0034481 0)
(0.877672 0.00325727 0)
(0.873242 0.00305526 0)
(0.869051 0.0028512 0)
(0.865097 0.0026239 0)
(0.861416 0.00239821 0)
(0.857964 0.00212946 0)
(0.85486 0.0018666 0)
(0.851938 0.00154156 0)
(0.849514 0.00119354 0)
(0.847173 0.000829705 0)
(0.845531 0.000214256 0)
(0.843856 -7.05099e-05 0)
(0.84286 -0.00126698 0)
(1.00374 0.0301998 0)
(1.03727 0.0318625 0)
(1.05284 0.0228028 0)
(1.05566 0.0195038 0)
(1.0572 0.017483 0)
(1.05915 0.0156415 0)
(1.06062 0.0143425 0)
(1.06135 0.0134195 0)
(1.06139 0.012657 0)
(1.0608 0.0119885 0)
(1.05955 0.0113975 0)
(1.05766 0.0108684 0)
(1.05518 0.0103868 0)
(1.05215 0.00994264 0)
(1.04863 0.0095297 0)
(1.04468 0.00914357 0)
(1.04036 0.008781 0)
(1.03574 0.0084394 0)
(1.03086 0.00811665 0)
(1.0258 0.00781096 0)
(1.02058 0.00752078 0)
(1.01525 0.00724474 0)
(1.00986 0.00698158 0)
(1.00443 0.00673012 0)
(0.998999 0.00648925 0)
(0.993584 0.00625787 0)
(0.98821 0.00603491 0)
(0.982895 0.00581927 0)
(0.977656 0.0056099 0)
(0.972507 0.00540566 0)
(0.96746 0.00520542 0)
(0.962525 0.00500803 0)
(0.957713 0.00481218 0)
(0.953032 0.00461682 0)
(0.948491 0.00441997 0)
(0.944097 0.0042213 0)
(0.939859 0.00401688 0)
(0.935785 0.00380876 0)
(0.931882 0.00358803 0)
(0.928164 0.00336314 0)
(0.92463 0.00311385 0)
(0.921312 0.00286221 0)
(0.918184 0.0025681 0)
(0.91533 0.00227108 0)
(0.912651 0.0019174 0)
(0.910349 0.00152351 0)
(0.908178 0.00112057 0)
(0.906507 0.000469521 0)
(0.90491 9.20967e-05 0)
(0.903802 -0.000954576 0)
(1.00337 0.0279642 0)
(1.03443 0.030805 0)
(1.04974 0.0222238 0)
(1.05269 0.0190981 0)
(1.0542 0.0172729 0)
(1.05621 0.0155091 0)
(1.05795 0.0142318 0)
(1.0592 0.0133391 0)
(1.06005 0.0126168 0)
(1.06056 0.0119909 0)
(1.06069 0.0114443 0)
(1.06044 0.0109611 0)
(1.05979 0.0105257 0)
(1.05875 0.0101271 0)
(1.05734 0.00975787 0)
(1.05556 0.0094129 0)
(1.05346 0.00908847 0)
(1.05105 0.00878167 0)
(1.04837 0.00849028 0)
(1.04546 0.00821246 0)
(1.04234 0.00794675 0)
(1.03905 0.00769189 0)
(1.03561 0.0074468 0)
(1.03205 0.00721051 0)
(1.0284 0.00698209 0)
(1.02468 0.00676067 0)
(1.02092 0.00654537 0)
(1.01713 0.00633529 0)
(1.01333 0.0061295 0)
(1.00954 0.00592703 0)
(1.00577 0.00572686 0)
(1.00204 0.00552793 0)
(0.998355 0.00532896 0)
(0.994728 0.00512898 0)
(0.991173 0.00492599 0)
(0.987698 0.00471963 0)
(0.984315 0.00450601 0)
(0.981034 0.00428694 0)
(0.977865 0.00405376 0)
(0.974821 0.00381398 0)
(0.971907 0.00354884 0)
(0.969149 0.00327694 0)
(0.966534 0.00296368 0)
(0.964122 0.0026384 0)
(0.961857 0.00226198 0)
(0.959864 0.00183043 0)
(0.958012 0.00139282 0)
(0.956503 0.000719141 0)
(0.955104 0.000259866 0)
(0.954062 -0.000676053 0)
(1.00301 0.0258308 0)
(1.03171 0.0297353 0)
(1.04674 0.0216659 0)
(1.0499 0.0186894 0)
(1.05138 0.017051 0)
(1.05335 0.0153697 0)
(1.05513 0.0141073 0)
(1.05649 0.0132304 0)
(1.05758 0.0125307 0)
(1.05847 0.0119282 0)
(1.05917 0.0114056 0)
(1.05965 0.0109485 0)
(1.0599 0.0105413 0)
(1.05991 0.0101721 0)
(1.05969 0.00983294 0)
(1.05922 0.00951819 0)
(1.05852 0.00922352 0)
(1.05759 0.00894561 0)
(1.05644 0.00868182 0)
(1.05508 0.00843008 0)
(1.05353 0.00818869 0)
(1.05182 0.00795628 0)
(1.04994 0.00773169 0)
(1.04793 0.00751391 0)
(1.04579 0.00730204 0)
(1.04356 0.00709524 0)
(1.04123 0.0068927 0)
(1.03884 0.00669357 0)
(1.03639 0.00649701 0)
(1.03389 0.0063021 0)
(1.03137 0.00610787 0)
(1.02883 0.00591332 0)
(1.02629 0.00571719 0)
(1.02375 0.00551852 0)
(1.02123 0.0053153 0)
(1.01874 0.00510716 0)
(1.01628 0.00489021 0)
(1.01388 0.00466599 0)
(1.01154 0.00442626 0)
(1.00927 0.00417736 0)
(1.00709 0.00390239 0)
(1.005 0.00361611 0)
(1.00301 0.00328986 0)
(1.00116 0.00294292 0)
(0.999423 0.0025496 0)
(0.997869 0.00208953 0)
(0.996439 0.00162262 0)
(0.995236 0.000937744 0)
(0.994136 0.000410989 0)
(0.993296 -0.000448273 0)
(1.00268 0.0238022 0)
(1.02911 0.0286518 0)
(1.04383 0.0211287 0)
(1.04721 0.0182777 0)
(1.04869 0.0168157 0)
(1.05063 0.0152258 0)
(1.0524 0.0139801 0)
(1.05377 0.0131142 0)
(1.05489 0.0124306 0)
(1.05588 0.0118427 0)
(1.05674 0.0113333 0)
(1.05749 0.0108901 0)
(1.0581 0.0104982 0)
(1.05858 0.0101456 0)
(1.05892 0.00982417 0)
(1.05912 0.0095281 0)
(1.05917 0.00925278 0)
(1.05908 0.00899457 0)
(1.05884 0.00875058 0)
(1.05845 0.00851844 0)
(1.05792 0.00829622 0)
(1.05726 0.00808233 0)
(1.05647 0.00787544 0)
(1.05557 0.00767441 0)
(1.05455 0.00747825 0)
(1.05343 0.00728603 0)
(1.05223 0.00709691 0)
(1.05094 0.00691 0)
(1.04959 0.00672446 0)
(1.04817 0.00653935 0)
(1.04671 0.0063537 0)
(1.0452 0.0061665 0)
(1.04366 0.00597645 0)
(1.0421 0.0057826 0)
(1.04052 0.0055829 0)
(1.03895 0.00537689 0)
(1.03737 0.00516074 0)
(1.03581 0.00493565 0)
(1.03428 0.00469387 0)
(1.03278 0.00444048 0)
(1.03132 0.00416057 0)
(1.02992 0.00386503 0)
(1.02858 0.00353102 0)
(1.02732 0.00316866 0)
(1.02615 0.00276358 0)
(1.02509 0.00228372 0)
(1.02413 0.00179322 0)
(1.0233 0.00110612 0)
(1.02256 0.000526262 0)
(1.022 -0.000282768 0)
(1.00238 0.0218802 0)
(1.02665 0.0275537 0)
(1.04101 0.020612 0)
(1.0446 0.0178643 0)
(1.0461 0.0165657 0)
(1.04801 0.015076 0)
(1.04977 0.0138512 0)
(1.05114 0.0129956 0)
(1.05225 0.0123264 0)
(1.05324 0.0117505 0)
(1.05414 0.0112502 0)
(1.05495 0.0108153 0)
(1.05567 0.0104318 0)
(1.05632 0.0100883 0)
(1.05688 0.00977659 0)
(1.05736 0.00949089 0)
(1.05776 0.00922661 0)
(1.05807 0.00898007 0)
(1.05829 0.00874821 0)
(1.05842 0.00852856 0)
(1.05846 0.00831902 0)
(1.05842 0.00811785 0)
(1.05828 0.00792357 0)
(1.05807 0.00773492 0)
(1.05777 0.00755078 0)
(1.0574 0.00737013 0)
(1.05696 0.00719204 0)
(1.05645 0.00701557 0)
(1.05587 0.00683981 0)
(1.05525 0.00666379 0)
(1.05457 0.00648646 0)
(1.05385 0.0063068 0)
(1.0531 0.00612344 0)
(1.05231 0.00593538 0)
(1.0515 0.00574053 0)
(1.05067 0.00553831 0)
(1.04982 0.00532496 0)
(1.04898 0.00510129 0)
(1.04813 0.00486009 0)
(1.0473 0.0046051 0)
(1.04649 0.00432349 0)
(1.0457 0.00402238 0)
(1.04495 0.0036843 0)
(1.04425 0.00331158 0)
(1.0436 0.0028986 0)
(1.04302 0.00240632 0)
(1.0425 0.00189737 0)
(1.04207 0.00121446 0)
(1.04168 0.000594465 0)
(1.04143 -0.000184568 0)
(1.0021 0.0200658 0)
(1.02431 0.0264429 0)
(1.03828 0.0201135 0)
(1.04208 0.0174514 0)
(1.04359 0.0163009 0)
(1.04548 0.0149189 0)
(1.04724 0.0137202 0)
(1.04861 0.0128749 0)
(1.04971 0.0122199 0)
(1.05069 0.011656 0)
(1.05157 0.0111639 0)
(1.05239 0.0107354 0)
(1.05313 0.0103578 0)
(1.05381 0.0100199 0)
(1.05444 0.00971381 0)
(1.05501 0.00943389 0)
(1.05554 0.00917567 0)
(1.05601 0.0089355 0)
(1.05643 0.00871037 0)
(1.0568 0.00849776 0)
(1.05711 0.00829554 0)
(1.05738 0.00810191 0)
(1.05759 0.0079153 0)
(1.05775 0.00773438 0)
(1.05786 0.00755795 0)
(1.05791 0.00738493 0)
(1.05793 0.00721431 0)
(1.05789 0.00704512 0)
(1.05782 0.00687636 0)
(1.0577 0.00670704 0)
(1.05755 0.00653604 0)
(1.05736 0.00636229 0)
(1.05715 0.00618436 0)
(1.0569 0.00600119 0)
(1.05663 0.00581065 0)
(1.05635 0.00561202 0)
(1.05605 0.00540162 0)
(1.05573 0.00517983 0)
(1.05542 0.00494005 0)
(1.0551 0.00468466 0)
(1.0548 0.00440283 0)
(1.0545 0.00409828 0)
(1.05423 0.00375812 0)
(1.05398 0.00337859 0)
(1.05376 0.00296006 0)
(1.05358 0.00246081 0)
(1.05345 0.00193764 0)
(1.05336 0.00126232 0)
(1.0533 0.000613169 0)
(1.05333 -0.00015062 0)
(1.00185 0.018359 0)
(1.02211 0.0253235 0)
(1.03564 0.0196294 0)
(1.03964 0.0170407 0)
(1.04118 0.016022 0)
(1.04303 0.0147537 0)
(1.0448 0.0135866 0)
(1.04616 0.0127518 0)
(1.04726 0.0121113 0)
(1.04822 0.0115599 0)
(1.0491 0.0110762 0)
(1.0499 0.0106537 0)
(1.05063 0.0102812 0)
(1.05131 0.00994787 0)
(1.05195 0.00964588 0)
(1.05254 0.00936976 0)
(1.0531 0.00911521 0)
(1.05362 0.00887869 0)
(1.05411 0.00865726 0)
(1.05456 0.00844844 0)
(1.05499 0.00825013 0)
(1.05538 0.0080605 0)
(1.05575 0.007878 0)
(1.05608 0.00770124 0)
(1.05638 0.00752901 0)
(1.05666 0.0073602 0)
(1.05691 0.00719377 0)
(1.05714 0.00702871 0)
(1.05733 0.00686401 0)
(1.05751 0.00669864 0)
(1.05766 0.00653144 0)
(1.05779 0.00636131 0)
(1.0579 0.00618675 0)
(1.058 0.00600668 0)
(1.05808 0.0058189 0)
(1.05814 0.00562258 0)
(1.0582 0.00541415 0)
(1.05825 0.00519352 0)
(1.05829 0.00495474 0)
(1.05834 0.00469888 0)
(1.05838 0.00441697 0)
(1.05844 0.00410977 0)
(1.05851 0.00376812 0)
(1.05859 0.00338383 0)
(1.05869 0.00296088 0)
(1.05882 0.00245806 0)
(1.05897 0.00192383 0)
(1.05915 0.00125709 0)
(1.05934 0.000587208 0)
(1.0596 -0.000171981 0)
(1.00162 0.0167598 0)
(1.02005 0.0241997 0)
(1.03311 0.0191556 0)
(1.03729 0.0166337 0)
(1.03886 0.0157301 0)
(1.04068 0.0145796 0)
(1.04244 0.0134501 0)
(1.04381 0.0126263 0)
(1.0449 0.0120001 0)
(1.04585 0.011462 0)
(1.04671 0.0109871 0)
(1.04749 0.0105709 0)
(1.04822 0.0102036 0)
(1.04889 0.00987454 0)
(1.04951 0.00957622 0)
(1.0501 0.00930325 0)
(1.05066 0.00905149 0)
(1.05119 0.00881751 0)
(1.05169 0.00859843 0)
(1.05217 0.00839184 0)
(1.05262 0.00819566 0)
(1.05306 0.0080081 0)
(1.05348 0.00782761 0)
(1.05388 0.00765283 0)
(1.05427 0.00748252 0)
(1.05464 0.0073156 0)
(1.05499 0.00715101 0)
(1.05534 0.00698775 0)
(1.05567 0.00682479 0)
(1.05598 0.00666111 0)
(1.05629 0.00649551 0)
(1.05659 0.00632689 0)
(1.05688 0.00615373 0)
(1.05716 0.00597488 0)
(1.05743 0.00578815 0)
(1.0577 0.00559256 0)
(1.05797 0.00538471 0)
(1.05823 0.00516405 0)
(1.05849 0.00492525 0)
(1.05876 0.0046682 0)
(1.05903 0.00438556 0)
(1.0593 0.00407569 0)
(1.05959 0.00373224 0)
(1.05989 0.00334418 0)
(1.06021 0.00291704 0)
(1.06054 0.00241242 0)
(1.06088 0.00186935 0)
(1.06124 0.00121041 0)
(1.06161 0.000525726 0)
(1.06203 -0.000236171 0)
(1.00142 0.0152673 0)
(1.01812 0.0230755 0)
(1.03069 0.0186883 0)
(1.03503 0.0162319 0)
(1.03664 0.0154266 0)
(1.03841 0.0143962 0)
(1.04017 0.0133103 0)
(1.04154 0.0124984 0)
(1.04262 0.0118864 0)
(1.04356 0.011362 0)
(1.04441 0.0108967 0)
(1.04519 0.0104871 0)
(1.0459 0.010125 0)
(1.04656 0.00980034 0)
(1.04717 0.0095057 0)
(1.04775 0.00923579 0)
(1.0483 0.0089866 0)
(1.04882 0.00875481 0)
(1.04931 0.00853761 0)
(1.04979 0.00833263 0)
(1.05025 0.00813784 0)
(1.05069 0.00795148 0)
(1.05112 0.00777202 0)
(1.05154 0.00759809 0)
(1.05195 0.0074285 0)
(1.05235 0.00726215 0)
(1.05275 0.00709803 0)
(1.05313 0.00693513 0)
(1.05352 0.00677243 0)
(1.0539 0.00660892 0)
(1.05427 0.00644342 0)
(1.05464 0.0062748 0)
(1.05502 0.00610153 0)
(1.05539 0.00592244 0)
(1.05575 0.00573536 0)
(1.05612 0.00553916 0)
(1.0565 0.00533062 0)
(1.05687 0.00510876 0)
(1.05725 0.00486886 0)
(1.05763 0.00460979 0)
(1.05803 0.00432553 0)
(1.05843 0.00401265 0)
(1.05884 0.00366671 0)
(1.05926 0.00327521 0)
(1.0597 0.0028437 0)
(1.06015 0.00233796 0)
(1.06061 0.00178758 0)
(1.06108 0.00113469 0)
(1.06155 0.000439158 0)
(1.06207 -0.000330143 0)
(1.00124 0.0138801 0)
(1.01633 0.0219551 0)
(1.02837 0.0182235 0)
(1.03285 0.0158365 0)
(1.03451 0.015113 0)
(1.03624 0.0142029 0)
(1.03798 0.0131668 0)
(1.03936 0.0123682 0)
(1.04044 0.01177 0)
(1.04137 0.0112599 0)
(1.04221 0.0108046 0)
(1.04297 0.010402 0)
(1.04367 0.0100453 0)
(1.04432 0.00972528 0)
(1.04492 0.00943443 0)
(1.04549 0.00916765 0)
(1.04602 0.00892105 0)
(1.04653 0.0086914 0)
(1.04702 0.00847597 0)
(1.04749 0.00827244 0)
(1.04794 0.0080788 0)
(1.04838 0.00789332 0)
(1.0488 0.00771448 0)
(1.04922 0.00754094 0)
(1.04963 0.00737151 0)
(1.05004 0.00720513 0)
(1.05044 0.00704078 0)
(1.05084 0.0068775 0)
(1.05124 0.00671427 0)
(1.05163 0.0065501 0)
(1.05203 0.0063838 0)
(1.05243 0.00621426 0)
(1.05283 0.00603997 0)
(1.05324 0.00585969 0)
(1.05365 0.00567132 0)
(1.05406 0.00547357 0)
(1.05448 0.00526343 0)
(1.0549 0.00503954 0)
(1.05533 0.00479768 0)
(1.05577 0.00453592 0)
(1.05622 0.00424924 0)
(1.05668 0.00393299 0)
(1.05715 0.0035839 0)
(1.05764 0.003189 0)
(1.05813 0.0027529 0)
(1.05864 0.00224607 0)
(1.05916 0.00168951 0)
(1.05968 0.00104065 0)
(1.06021 0.000336798 0)
(1.06078 -0.00044257 0)
(1.00107 0.0125962 0)
(1.01467 0.0208423 0)
(1.02616 0.017758 0)
(1.03076 0.0154485 0)
(1.03247 0.0147911 0)
(1.03417 0.0139992 0)
(1.03589 0.0130192 0)
(1.03727 0.0122356 0)
(1.03835 0.0116509 0)
(1.03927 0.0111554 0)
(1.0401 0.010711 0)
(1.04085 0.0103156 0)
(1.04154 0.00996459 0)
(1.04218 0.00964929 0)
(1.04277 0.00936237 0)
(1.04332 0.00909883 0)
(1.04385 0.00885489 0)
(1.04435 0.00862744 0)
(1.04482 0.0084138 0)
(1.04528 0.0082117 0)
(1.04572 0.00801916 0)
(1.04615 0.00783447 0)
(1.04657 0.00765612 0)
(1.04698 0.0074828 0)
(1.04739 0.00731334 0)
(1.04779 0.00714667 0)
(1.04818 0.00698181 0)
(1.04858 0.0068178 0)
(1.04898 0.00665367 0)
(1.04937 0.00648842 0)
(1.04977 0.00632089 0)
(1.05018 0.00614997 0)
(1.05059 0.00597414 0)
(1.051 0.00579216 0)
(1.05142 0.00560196 0)
(1.05184 0.00540213 0)
(1.05227 0.00518985 0)
(1.05271 0.0049634 0)
(1.05316 0.00471903 0)
(1.05362 0.00445415 0)
(1.05409 0.00416452 0)
(1.05457 0.00384467 0)
(1.05507 0.00349194 0)
(1.05557 0.00309365 0)
(1.05609 0.00265287 0)
(1.05662 0.00214474 0)
(1.05716 0.00158293 0)
(1.0577 0.000936196 0)
(1.05825 0.00022574 0)
(1.05883 -0.000564725 0)
(1.00093 0.011413 0)
(1.01314 0.0197413 0)
(1.02407 0.0172886 0)
(1.02876 0.0150684 0)
(1.03053 0.014463 0)
(1.03218 0.0137848 0)
(1.03388 0.0128668 0)
(1.03527 0.0121007 0)
(1.03635 0.0115291 0)
(1.03726 0.0110485 0)
(1.03808 0.0106155 0)
(1.03882 0.0102278 0)
(1.0395 0.00988268 0)
(1.04013 0.00957228 0)
(1.04071 0.00928945 0)
(1.04125 0.00902927 0)
(1.04177 0.00878809 0)
(1.04226 0.0085629 0)
(1.04272 0.00835111 0)
(1.04317 0.00815046 0)
(1.0436 0.00795904 0)
(1.04402 0.00777513 0)
(1.04443 0.00759726 0)
(1.04483 0.00742411 0)
(1.04523 0.00725454 0)
(1.04562 0.00708749 0)
(1.04601 0.006922 0)
(1.0464 0.00675714 0)
(1.04679 0.00659195 0)
(1.04718 0.00642544 0)
(1.04758 0.00625648 0)
(1.04798 0.00608395 0)
(1.04838 0.00590636 0)
(1.04879 0.00572242 0)
(1.04921 0.00553013 0)
(1.04963 0.00532795 0)
(1.05006 0.00511322 0)
(1.0505 0.00488397 0)
(1.05095 0.00463677 0)
(1.05141 0.00436858 0)
(1.05189 0.00407567 0)
(1.05237 0.00375216 0)
(1.05287 0.00339555 0)
(1.05337 0.00299387 0)
(1.05389 0.00254853 0)
(1.05442 0.00203885 0)
(1.05496 0.0014726 0)
(1.0555 0.000826499 0)
(1.05605 0.000110632 0)
(1.05662 -0.000690729 0)
(1.0008 0.0103271 0)
(1.01174 0.0186563 0)
(1.02208 0.0168125 0)
(1.02685 0.0146965 0)
(1.02868 0.0141307 0)
(1.03029 0.0135596 0)
(1.03197 0.0127091 0)
(1.03336 0.0119634 0)
(1.03443 0.0114047 0)
(1.03534 0.0109391 0)
(1.03615 0.010518 0)
(1.03688 0.0101385 0)
(1.03755 0.00979949 0)
(1.03817 0.00949417 0)
(1.03874 0.00921558 0)
(1.03928 0.00895889 0)
(1.03978 0.00872057 0)
(1.04026 0.00849773 0)
(1.04072 0.00828783 0)
(1.04116 0.0080887 0)
(1.04158 0.00789842 0)
(1.04199 0.00771532 0)
(1.04239 0.00753792 0)
(1.04278 0.00736494 0)
(1.04317 0.00719523 0)
(1.04356 0.00702777 0)
(1.04394 0.00686161 0)
(1.04432 0.00669584 0)
(1.0447 0.00652952 0)
(1.04509 0.00636168 0)
(1.04547 0.00619121 0)
(1.04587 0.00601697 0)
(1.04626 0.00583752 0)
(1.04667 0.0056515 0)
(1.04708 0.005457 0)
(1.04749 0.00525236 0)
(1.04792 0.00503505 0)
(1.04835 0.00480288 0)
(1.0488 0.00455271 0)
(1.04925 0.00428116 0)
(1.04972 0.00398483 0)
(1.0502 0.00365768 0)
(1.05068 0.00329712 0)
(1.05119 0.00289214 0)
(1.0517 0.00244249 0)
(1.05222 0.00193106 0)
(1.05274 0.00136111 0)
(1.05327 0.000714649 0)
(1.0538 -5.62266e-06 0)
(1.05436 -0.000816906 0)
(1.00069 0.00933479 0)
(1.01046 0.0175913 0)
(1.02021 0.0163276 0)
(1.02502 0.0143327 0)
(1.02692 0.0137962 0)
(1.0285 0.0133239 0)
(1.03014 0.0125454 0)
(1.03153 0.0118235 0)
(1.03261 0.0112776 0)
(1.03351 0.0108269 0)
(1.03431 0.0104184 0)
(1.03503 0.0100476 0)
(1.0357 0.00971495 0)
(1.0363 0.00941486 0)
(1.03687 0.00914068 0)
(1.03739 0.00888761 0)
(1.03789 0.00865226 0)
(1.03836 0.00843184 0)
(1.03881 0.00822392 0)
(1.03924 0.00802635 0)
(1.03965 0.00783725 0)
(1.04006 0.00765498 0)
(1.04045 0.00747807 0)
(1.04083 0.00730526 0)
(1.04121 0.00713541 0)
(1.04159 0.00696753 0)
(1.04196 0.00680067 0)
(1.04234 0.00663397 0)
(1.04271 0.00646648 0)
(1.04309 0.00629727 0)
(1.04347 0.00612524 0)
(1.04385 0.00594926 0)
(1.04424 0.00576789 0)
(1.04464 0.00557975 0)
(1.04504 0.00538298 0)
(1.04545 0.00517583 0)
(1.04587 0.00495588 0)
(1.04629 0.00472078 0)
(1.04673 0.00446758 0)
(1.04717 0.0041927 0)
(1.04763 0.0038929 0)
(1.0481 0.00356222 0)
(1.04858 0.00319777 0)
(1.04906 0.00278959 0)
(1.04956 0.002336 0)
(1.05007 0.00182271 0)
(1.05058 0.00124974 0)
(1.05109 0.000602351 0)
(1.0516 -0.000121395 0)
(1.05213 -0.000940933 0)
(1.0006 0.00843177 0)
(1.0093 0.0165504 0)
(1.01845 0.015832 0)
(1.02327 0.0139768 0)
(1.02525 0.0134614 0)
(1.02679 0.0130781 0)
(1.0284 0.0123752 0)
(1.02979 0.0116809 0)
(1.03087 0.011148 0)
(1.03176 0.0107119 0)
(1.03255 0.0103166 0)
(1.03327 0.00995494 0)
(1.03393 0.00962894 0)
(1.03453 0.00933428 0)
(1.03509 0.00906465 0)
(1.0356 0.00881535 0)
(1.03609 0.00858308 0)
(1.03655 0.00836518 0)
(1.03699 0.00815929 0)
(1.03742 0.00796334 0)
(1.03782 0.00777546 0)
(1.03822 0.00759405 0)
(1.0386 0.00741765 0)
(1.03898 0.00724502 0)
(1.03935 0.00707503 0)
(1.03972 0.00690671 0)
(1.04008 0.00673915 0)
(1.04045 0.00657149 0)
(1.04082 0.00640282 0)
(1.04119 0.00623222 0)
(1.04156 0.0060586 0)
(1.04194 0.00588084 0)
(1.04232 0.00569753 0)
(1.04271 0.00550725 0)
(1.0431 0.00530819 0)
(1.0435 0.00509851 0)
(1.04391 0.00487591 0)
(1.04433 0.00463789 0)
(1.04475 0.00438164 0)
(1.04519 0.0041035 0)
(1.04564 0.00380026 0)
(1.04609 0.00346616 0)
(1.04656 0.00309799 0)
(1.04703 0.00268675 0)
(1.04752 0.00222962 0)
(1.04801 0.00171447 0)
(1.0485 0.0011391 0)
(1.04899 0.000490603 0)
(1.04948 -0.000235766 0)
(1.04998 -0.00106139 0)
(1.00051 0.00761324 0)
(1.00825 0.0155375 0)
(1.01681 0.0153245 0)
(1.02161 0.013628 0)
(1.02366 0.0131279 0)
(1.02517 0.012823 0)
(1.02675 0.0121978 0)
(1.02813 0.0115354 0)
(1.02922 0.0110158 0)
(1.0301 0.0105941 0)
(1.03089 0.0102123 0)
(1.0316 0.00986041 0)
(1.03225 0.00954138 0)