/*--------------------------------*- C++ -*----------------------------------*\
  =========                 |
  \\      /  F ield         | OpenFOAM: The Open Source CFD Toolbox
   \\    /   O peration     | Website:  https://openfoam.org
    \\  /    A nd           | Version:  7
     \\/     M anipulation  |
\*---------------------------------------------------------------------------*/
FoamFile
{
    version     2.0;
    format      ascii;
    class       volVectorField;
    location    "0.37";
    object      U_0;
}
// * * * * * * * * * * * * * * * * * * * * * * * * * * * * * * * * * * * * * //

dimensions      [0 1 -1 0 0 0 0];

internalField   nonuniform List<vector> 
70000
(
(0.553415 0.016978 0)
(0.251427 0.00340028 0)
(0.165948 0.000318828 0)
(0.132479 4.89092e-05 0)
(0.117389 4.39562e-05 0)
(0.107448 5.21125e-05 0)
(0.0994952 4.43026e-05 0)
(0.0930711 3.52131e-05 0)
(0.0878481 2.91606e-05 0)
(0.0835017 2.5007e-05 0)
(0.0798039 2.18275e-05 0)
(0.0766074 1.92733e-05 0)
(0.0738109 1.71846e-05 0)
(0.0713405 1.54531e-05 0)
(0.0691401 1.39982e-05 0)
(0.0671663 1.27601e-05 0)
(0.0653849 1.16944e-05 0)
(0.0637689 1.07671e-05 0)
(0.0622961 9.95248e-06 0)
(0.0609487 9.22989e-06 0)
(0.0597119 8.58349e-06 0)
(0.0585732 8.00003e-06 0)
(0.0575224 7.46906e-06 0)
(0.0565508 6.98176e-06 0)
(0.0556509 6.53086e-06 0)
(0.0548165 6.10996e-06 0)
(0.0540424 5.71356e-06 0)
(0.0533238 5.33724e-06 0)
(0.0526569 4.97515e-06 0)
(0.0520386 4.62598e-06 0)
(0.0514661 4.28067e-06 0)
(0.0509371 3.9433e-06 0)
(0.05045 3.59789e-06 0)
(0.0500032 3.25797e-06 0)
(0.049596 2.89426e-06 0)
(0.0492275 2.53467e-06 0)
(0.0488976 2.13682e-06 0)
(0.0486076 1.72599e-06 0)
(0.0483548 1.29951e-06 0)
(0.0481482 7.48445e-07 0)
(0.0479731 3.89714e-07 0)
(0.0478646 -5.83896e-07 0)
(0.0477629 -4.9013e-07 0)
(0.0477883 -2.69716e-06 0)
(0.0477349 -5.7722e-07 0)
(0.0479814 -6.7638e-06 0)
(0.0478857 2.55563e-06 0)
(0.0485432 -1.67608e-05 0)
(0.0483466 3.51168e-05 0)
(0.0458373 -0.00184245 0)
(0.884863 0.0434928 0)
(0.650164 0.0201479 0)
(0.494023 0.00660323 0)
(0.403638 0.00275317 0)
(0.354967 0.00154623 0)
(0.323694 0.0011298 0)
(0.29984 0.000907228 0)
(0.28068 0.000742469 0)
(0.265019 0.000619577 0)
(0.251954 0.000528867 0)
(0.240835 0.000459917 0)
(0.231221 0.000405569 0)
(0.222806 0.000361575 0)
(0.215367 0.000325285 0)
(0.208738 0.000294897 0)
(0.202787 0.000269114 0)
(0.197413 0.000246983 0)
(0.192533 0.000227784 0)
(0.188083 0.000210968 0)
(0.184008 0.000196107 0)
(0.180264 0.000182864 0)
(0.176814 0.000170971 0)
(0.173627 0.000160207 0)
(0.170675 0.000150393 0)
(0.167938 0.000141378 0)
(0.165396 0.000133035 0)
(0.163032 0.000125252 0)
(0.160834 0.000117936 0)
(0.158789 0.000110997 0)
(0.156886 0.000104363 0)
(0.155119 9.79497e-05 0)
(0.153479 9.17089e-05 0)
(0.151961 8.55371e-05 0)
(0.150559 7.94274e-05 0)
(0.149272 7.32142e-05 0)
(0.148096 6.69753e-05 0)
(0.14703 6.04039e-05 0)
(0.146076 5.3741e-05 0)
(0.145227 4.64368e-05 0)
(0.144505 3.89476e-05 0)
(0.143872 3.05099e-05 0)
(0.143419 2.14616e-05 0)
(0.142989 1.17407e-05 0)
(0.142898 -5.7062e-07 0)
(0.142607 -1.01704e-05 0)
(0.143103 -3.23218e-05 0)
(0.142742 -3.00695e-05 0)
(0.144284 -0.000110434 0)
(0.14377 0.000179653 0)
(0.142882 -0.00303961 0)
(0.991208 0.0499546 0)
(0.890937 0.0305603 0)
(0.76254 0.014607 0)
(0.656632 0.00796662 0)
(0.585582 0.00487503 0)
(0.53627 0.00346957 0)
(0.498439 0.00273295 0)
(0.467875 0.0022382 0)
(0.442631 0.00187394 0)
(0.4214 0.00160171 0)
(0.403233 0.00139361 0)
(0.387464 0.00122957 0)
(0.373616 0.00109688 0)
(0.361343 0.000987442 0)
(0.350378 0.000895786 0)
(0.340515 0.000818011 0)
(0.331591 0.000751244 0)
(0.323475 0.000693325 0)
(0.316061 0.000642604 0)
(0.309262 0.000597796 0)
(0.303006 0.000557891 0)
(0.297233 0.000522077 0)
(0.291891 0.000489699 0)
(0.286938 0.000460214 0)
(0.282337 0.000433173 0)
(0.278056 0.000408192 0)
(0.274069 0.000384945 0)
(0.270353 0.000363144 0)
(0.266887 0.000342533 0)
(0.263656 0.000322891 0)
(0.260645 0.000303989 0)
(0.257841 0.000285661 0)
(0.255235 0.000267653 0)
(0.252818 0.000249887 0)
(0.250584 0.000231976 0)
(0.248529 0.000214045 0)
(0.246648 0.000195336 0)
(0.244944 0.000176473 0)
(0.243406 0.000155831 0)
(0.242064 0.000135166 0)
(0.240863 0.000111047 0)
(0.239932 8.74187e-05 0)
(0.239046 5.79004e-05 0)
(0.238653 2.90791e-05 0)
(0.237992 -6.6823e-06 0)
(0.238445 -5.09025e-05 0)
(0.237742 -7.67117e-05 0)
(0.239641 -0.000234052 0)
(0.238694 0.000115065 0)
(0.24041 -0.00314627 0)
(1.01554 0.0489525 0)
(1.0065 0.0357205 0)
(0.935925 0.0208133 0)
(0.8521 0.0134911 0)
(0.782387 0.00918973 0)
(0.727307 0.00677434 0)
(0.682292 0.00537732 0)
(0.64461 0.00443516 0)
(0.612681 0.00373944 0)
(0.585311 0.00321234 0)
(0.561561 0.00280475 0)
(0.540727 0.00248134 0)
(0.52228 0.00221859 0)
(0.505818 0.00200115 0)
(0.491028 0.0018185 0)
(0.477659 0.00166313 0)
(0.465514 0.00152948 0)
(0.454428 0.00141334 0)
(0.444269 0.0013115 0)
(0.434925 0.00122144 0)
(0.426305 0.00114119 0)
(0.418329 0.00106913 0)
(0.410932 0.00100397 0)
(0.404058 0.00094465 0)
(0.397658 0.000890271 0)
(0.39169 0.000840076 0)
(0.386119 0.000793417 0)
(0.380914 0.000749726 0)
(0.376048 0.000708501 0)
(0.371499 0.000669301 0)
(0.367246 0.00063169 0)
(0.363273 0.000595326 0)
(0.359566 0.000559752 0)
(0.356113 0.000524767 0)
(0.352905 0.000489705 0)
(0.349935 0.000454712 0)
(0.347196 0.000418461 0)
(0.34469 0.000382064 0)
(0.342403 0.000342417 0)
(0.340369 0.000303187 0)
(0.338522 0.000256903 0)
(0.337011 0.000213371 0)
(0.335577 0.000155523 0)
(0.334728 0.000105541 0)
(0.333609 3.07879e-05 0)
(0.333751 -3.64242e-05 0)
(0.332686 -0.000111654 0)
(0.334433 -0.000333833 0)
(0.333173 -4.10252e-05 0)
(0.335826 -0.00294171 0)
(1.01435 0.0460967 0)
(1.04799 0.0373366 0)
(1.02459 0.0241787 0)
(0.974747 0.0175469 0)
(0.923608 0.0130967 0)
(0.876949 0.0101916 0)
(0.834867 0.00833009 0)
(0.797209 0.00700571 0)
(0.76375 0.00599303 0)
(0.734048 0.00520339 0)
(0.70759 0.00457917 0)
(0.683905 0.00407596 0)
(0.662596 0.00366236 0)
(0.643332 0.00331693 0)
(0.625836 0.00302459 0)
(0.609881 0.00277436 0)
(0.595273 0.00255799 0)
(0.581852 0.00236916 0)
(0.569481 0.00220298 0)
(0.558045 0.00205557 0)
(0.547446 0.00192387 0)
(0.537599 0.00180538 0)
(0.528431 0.00169807 0)
(0.519882 0.00160024 0)
(0.511895 0.0015105 0)
(0.504424 0.00142762 0)
(0.497428 0.00135057 0)
(0.490872 0.00127845 0)
(0.484724 0.00121045 0)
(0.478957 0.00114586 0)
(0.47355 0.001084 0)
(0.468479 0.0010243 0)
(0.463731 0.000966063 0)
(0.459289 0.000908925 0)
(0.455143 0.000851911 0)
(0.451282 0.000795153 0)
(0.447699 0.0007367 0)
(0.444394 0.000678165 0)
(0.441352 0.000614816 0)
(0.438604 0.000552409 0)
(0.436087 0.000478986 0)
(0.433944 0.000410827 0)
(0.431924 0.000319153 0)
(0.430518 0.000242945 0)
(0.42891 0.000122782 0)
(0.428545 2.53526e-05 0)
(0.427139 -0.000105047 0)
(0.428339 -0.000392334 0)
(0.427 -0.000185586 0)
(0.429208 -0.00273172 0)
(1.00941 0.0430462 0)
(1.05564 0.0370914 0)
(1.05869 0.0253186 0)
(1.03635 0.0197492 0)
(1.00722 0.015781 0)
(0.976268 0.0129146 0)
(0.944816 0.0109409 0)
(0.914037 0.00945514 0)
(0.884785 0.0082611 0)
(0.857442 0.00729035 0)
(0.832085 0.00649728 0)
(0.808651 0.00584146 0)
(0.787022 0.00529151 0)
(0.767054 0.00482473 0)
(0.748602 0.00442444 0)
(0.731526 0.00407802 0)
(0.715698 0.00377567 0)
(0.700998 0.00350974 0)
(0.687322 0.00327411 0)
(0.674576 0.0030639 0)
(0.662676 0.00287515 0)
(0.651549 0.00270463 0)
(0.64113 0.00254963 0)
(0.631361 0.00240791 0)
(0.622189 0.00227756 0)
(0.613571 0.00215694 0)
(0.605466 0.00204464 0)
(0.597839 0.00193941 0)
(0.590659 0.00184012 0)
(0.583897 0.00174579 0)
(0.577531 0.00165548 0)
(0.571539 0.00156837 0)
(0.565904 0.00148353 0)
(0.560609 0.00140038 0)
(0.555644 0.00131765 0)
(0.550996 0.00123542 0)
(0.546659 0.00115113 0)
(0.54263 0.0010668 0)
(0.538895 0.000976175 0)
(0.53548 0.000886858 0)
(0.532332 0.00078282 0)
(0.529571 0.000685901 0)
(0.526986 0.000557374 0)
(0.524995 0.000449399 0)
(0.522912 0.000282926 0)
(0.521946 0.000144398 0)
(0.520232 -3.77995e-05 0)
(0.520683 -0.000397745 0)
(0.519343 -0.000284221 0)
(0.520677 -0.00250446 0)
(1.00635 0.0401782 0)
(1.05241 0.0361444 0)
(1.06607 0.0252411 0)
(1.05956 0.0205523 0)
(1.04696 0.017205 0)
(1.03096 0.0146288 0)
(1.01212 0.0127946 0)
(0.991515 0.0113651 0)
(0.970198 0.0101637 0)
(0.948898 0.00914398 0)
(0.92806 0.00827959 0)
(0.907946 0.0075423 0)
(0.888703 0.00690769 0)
(0.870402 0.00635702 0)
(0.853061 0.00587588 0)
(0.83667 0.00545278 0)
(0.821196 0.00507844 0)
(0.806598 0.00474526 0)
(0.79283 0.00444703 0)
(0.779843 0.00417859 0)
(0.767589 0.00393567 0)
(0.756021 0.00371469 0)
(0.745096 0.00351264 0)
(0.734774 0.00332693 0)
(0.725015 0.00315534 0)
(0.715786 0.00299594 0)
(0.707054 0.00284704 0)
(0.698791 0.0027071 0)
(0.690971 0.00257478 0)
(0.683569 0.00244883 0)
(0.676567 0.0023281 0)
(0.669944 0.00221153 0)
(0.663687 0.00209799 0)
(0.657779 0.00198669 0)
(0.652211 0.00187609 0)
(0.646972 0.00176616 0)
(0.642056 0.00165384 0)
(0.637458 0.0015414 0)
(0.633171 0.00142136 0)
(0.629212 0.00130259 0)
(0.625541 0.00116603 0)
(0.622252 0.0010372 0)
(0.619185 0.000870808 0)
(0.616664 0.000726203 0)
(0.614164 0.00051494 0)
(0.612614 0.000327164 0)
(0.61062 9.59044e-05 0)
(0.610317 -0.0003394 0)
(0.608915 -0.000322787 0)
(0.609416 -0.00223626 0)
(1.00506 0.0375009 0)
(1.04763 0.0350458 0)
(1.06397 0.0246931 0)
(1.06421 0.0205822 0)
(1.06075 0.0177413 0)
(1.05488 0.0154667 0)
(1.04617 0.0138468 0)
(1.03504 0.0125815 0)
(1.02221 0.0114899 0)
(1.00827 0.0105322 0)
(0.993686 0.00969437 0)
(0.978812 0.00895853 0)
(0.963911 0.00830791 0)
(0.949178 0.00772947 0)
(0.934751 0.00721297 0)
(0.920721 0.00674996 0)
(0.907148 0.00633328 0)
(0.894069 0.00595678 0)
(0.8815 0.00561522 0)
(0.869446 0.0053041 0)
(0.857906 0.00501955 0)
(0.84687 0.00475824 0)
(0.836325 0.00451728 0)
(0.826254 0.00429412 0)
(0.816643 0.00408655 0)
(0.807473 0.00389255 0)
(0.798727 0.00371035 0)
(0.790389 0.00353831 0)
(0.782443 0.00337496 0)
(0.774873 0.00321891 0)
(0.767667 0.00306886 0)
(0.760811 0.00292362 0)
(0.754296 0.00278185 0)
(0.74811 0.00264265 0)
(0.742248 0.00250422 0)
(0.736701 0.00236644 0)
(0.731466 0.00222585 0)
(0.726539 0.00208481 0)
(0.721917 0.00193499 0)
(0.717611 0.00178588 0)
(0.713598 0.00161665 0)
(0.709945 0.0014543 0)
(0.706539 0.00125078 0)
(0.703619 0.00106643 0)
(0.700811 0.000813157 0)
(0.698784 0.000571325 0)
(0.696564 0.000292823 0)
(0.695624 -0.000213042 0)
(0.694103 -0.000298222 0)
(0.693923 -0.00193325 0)
(1.00451 0.0349649 0)
(1.0436 0.0339656 0)
(1.05994 0.0240418 0)
(1.06225 0.0202919 0)
(1.06256 0.0178046 0)
(1.06192 0.0157438 0)
(1.05939 0.014297 0)
(1.05489 0.0131965 0)
(1.04874 0.0122462 0)
(1.04124 0.0113994 0)
(1.03269 0.0106449 0)
(1.02332 0.00996881 0)
(1.01339 0.00935817 0)
(1.00307 0.00880358 0)
(0.992536 0.00829813 0)
(0.98192 0.00783621 0)
(0.971325 0.00741301 0)
(0.960832 0.00702427 0)
(0.950503 0.00666623 0)
(0.940385 0.00633555 0)
(0.930512 0.00602925 0)
(0.920909 0.0057447 0)
(0.911591 0.00547952 0)
(0.90257 0.00523156 0)
(0.893851 0.00499887 0)
(0.885438 0.00477965 0)
(0.877329 0.00457226 0)
(0.869523 0.00437512 0)
(0.862017 0.00418681 0)
(0.854808 0.00400593 0)
(0.847891 0.00383115 0)
(0.841262 0.0036612 0)
(0.834917 0.00349469 0)
(0.828854 0.00333059 0)
(0.82307 0.003167 0)
(0.817561 0.00300366 0)
(0.81233 0.00283687 0)
(0.807374 0.00266894 0)
(0.802695 0.00249106 0)
(0.798304 0.00231279 0)
(0.794186 0.00211262 0)
(0.790391 0.00191719 0)
(0.786846 0.00167892 0)
(0.783721 0.00145414 0)
(0.78076 0.00116249 0)
(0.77843 0.000865593 0)
(0.776082 0.00054269 0)
(0.774687 -2.54607e-05 0)
(0.773055 -0.000213962 0)
(0.772373 -0.00161063 0)
(1.00412 0.0325342 0)
(1.04027 0.0329119 0)
(1.05618 0.0234067 0)
(1.05889 0.0199067 0)
(1.06029 0.0176744 0)
(1.06169 0.0157447 0)
(1.06209 0.0143986 0)
(1.06124 0.0134127 0)
(1.05923 0.0125774 0)
(1.05617 0.0118355 0)
(1.05215 0.011173 0)
(1.04729 0.0105758 0)
(1.0417 0.0100309 0)
(1.03552 0.0095294 0)
(1.02887 0.00906564 0)
(1.02185 0.00863533 0)
(1.01457 0.008235 0)
(1.00711 0.00786171 0)
(0.999546 0.00751289 0)
(0.991933 0.00718623 0)
(0.984325 0.00687967 0)
(0.976765 0.00659132 0)
(0.969289 0.00631946 0)
(0.961923 0.00606247 0)
(0.954692 0.00581884 0)
(0.947612 0.00558713 0)
(0.940698 0.00536597 0)
(0.933962 0.00515402 0)
(0.927412 0.00495 0)
(0.921055 0.00475262 0)
(0.914897 0.00456062 0)
(0.908941 0.00437277 0)
(0.903193 0.00418769 0)
(0.897654 0.00400433 0)
(0.89233 0.00382069 0)
(0.887222 0.00363647 0)
(0.882337 0.00344783 0)
(0.877676 0.00325695 0)
(0.873245 0.00305486 0)
(0.869055 0.00285069 0)
(0.865101 0.00262325 0)
(0.861421 0.00239736 0)
(0.857969 0.00212832 0)
(0.854867 0.00186506 0)
(0.851947 0.00153943 0)
(0.849524 0.00119048 0)
(0.847186 0.000825342 0)
(0.845547 0.00020733 0)
(0.843878 -8.13772e-05 0)
(0.842887 -0.00128501 0)
(1.00374 0.0301998 0)
(1.03727 0.0318624 0)
(1.05284 0.0228027 0)
(1.05566 0.0195037 0)
(1.0572 0.0174829 0)
(1.05915 0.0156414 0)
(1.06062 0.0143425 0)
(1.06135 0.0134195 0)
(1.06139 0.012657 0)
(1.0608 0.0119885 0)
(1.05955 0.0113975 0)
(1.05767 0.0108684 0)
(1.05518 0.0103868 0)
(1.05215 0.00994263 0)
(1.04863 0.00952968 0)
(1.04468 0.00914354 0)
(1.04036 0.00878097 0)
(1.03574 0.00843935 0)
(1.03087 0.00811659 0)
(1.0258 0.00781089 0)
(1.02058 0.00752071 0)
(1.01525 0.00724466 0)
(1.00986 0.00698149 0)
(1.00443 0.00673003 0)
(0.999 0.00648916 0)
(0.993585 0.00625777 0)
(0.988212 0.00603481 0)
(0.982897 0.00581918 0)
(0.977658 0.0056098 0)
(0.972509 0.00540555 0)
(0.967462 0.0052053 0)
(0.962527 0.00500791 0)
(0.957715 0.00481203 0)
(0.953034 0.00461665 0)
(0.948494 0.00441977 0)
(0.9441 0.00422105 0)
(0.939863 0.00401659 0)
(0.935788 0.0038084 0)
(0.931886 0.00358759 0)
(0.928168 0.00336257 0)
(0.924634 0.00311312 0)
(0.921317 0.00286127 0)
(0.91819 0.00256685 0)
(0.915337 0.00226937 0)
(0.912659 0.00191506 0)
(0.910359 0.00152014 0)
(0.908191 0.00111575 0)
(0.906523 0.000462019 0)
(0.90493 8.03449e-05 0)
(0.903827 -0.000973508 0)
(1.00337 0.0279641 0)
(1.03443 0.0308049 0)
(1.04974 0.0222237 0)
(1.05269 0.019098 0)
(1.0542 0.0172728 0)
(1.05621 0.0155091 0)
(1.05795 0.0142318 0)
(1.0592 0.0133391 0)
(1.06005 0.0126167 0)
(1.06056 0.0119909 0)
(1.06069 0.0114443 0)
(1.06044 0.0109611 0)
(1.05979 0.0105257 0)
(1.05875 0.0101271 0)
(1.05734 0.00975786 0)
(1.05556 0.00941288 0)
(1.05346 0.00908843 0)
(1.05105 0.00878163 0)
(1.04838 0.00849022 0)
(1.04546 0.00821239 0)
(1.04234 0.00794667 0)
(1.03905 0.0076918 0)
(1.03561 0.00744671 0)
(1.03205 0.0072104 0)
(1.0284 0.00698199 0)
(1.02469 0.00676056 0)
(1.02092 0.00654526 0)
(1.01713 0.00633517 0)
(1.01334 0.00612938 0)
(1.00955 0.00592691 0)
(1.00578 0.00572673 0)
(1.00204 0.00552778 0)
(0.998357 0.00532879 0)
(0.994731 0.00512879 0)
(0.991176 0.00492576 0)
(0.987701 0.00471937 0)
(0.984319 0.00450569 0)
(0.981038 0.00428654 0)
(0.977869 0.00405327 0)
(0.974826 0.00381336 0)
(0.971912 0.00354804 0)
(0.969154 0.0032759 0)
(0.96654 0.0029623 0)
(0.964129 0.00263654 0)
(0.961865 0.00225942 0)
(0.959874 0.00182676 0)
(0.958024 0.00138759 0)
(0.956518 0.000711109 0)
(0.955123 0.000247653 0)
(0.954084 -0.000695669 0)
(1.00301 0.0258308 0)
(1.03171 0.0297352 0)
(1.04674 0.0216658 0)
(1.0499 0.0186893 0)
(1.05138 0.0170509 0)
(1.05335 0.0153696 0)
(1.05513 0.0141073 0)
(1.05649 0.0132303 0)
(1.05758 0.0125307 0)
(1.05847 0.0119282 0)
(1.05917 0.0114056 0)
(1.05965 0.0109485 0)
(1.0599 0.0105413 0)
(1.05992 0.0101721 0)
(1.05969 0.00983293 0)
(1.05922 0.00951817 0)
(1.05852 0.0092235 0)
(1.05759 0.00894557 0)
(1.05644 0.00868177 0)
(1.05508 0.00843001 0)
(1.05354 0.00818861 0)
(1.05182 0.00795619 0)
(1.04994 0.00773158 0)
(1.04793 0.00751379 0)
(1.0458 0.00730192 0)
(1.04356 0.00709511 0)
(1.04124 0.00689257 0)
(1.03884 0.00669343 0)
(1.03639 0.00649687 0)
(1.0339 0.00630195 0)
(1.03137 0.00610771 0)
(1.02883 0.00591315 0)
(1.02629 0.005717 0)
(1.02375 0.0055183 0)
(1.02123 0.00531505 0)
(1.01874 0.00510686 0)
(1.01629 0.00488985 0)
(1.01389 0.00466556 0)
(1.01155 0.00442572 0)
(1.00928 0.00417669 0)
(1.00709 0.00390152 0)
(1.00501 0.00361498 0)
(1.00302 0.00328836 0)
(1.00117 0.0029409 0)
(0.999431 0.00254683 0)
(0.997879 0.00208559 0)
(0.996451 0.001617 0)
(0.995251 0.000929254 0)
(0.994153 0.000398181 0)
(0.993315 -0.000468325 0)
(1.00268 0.0238022 0)
(1.02911 0.0286517 0)
(1.04383 0.0211286 0)
(1.04721 0.0182775 0)
(1.04869 0.0168156 0)
(1.05063 0.0152257 0)
(1.0524 0.01398 0)
(1.05377 0.0131142 0)
(1.05489 0.0124306 0)
(1.05588 0.0118426 0)
(1.05675 0.0113333 0)
(1.05749 0.0108901 0)
(1.0581 0.0104982 0)
(1.05858 0.0101456 0)
(1.05892 0.00982417 0)
(1.05912 0.00952808 0)
(1.05918 0.00925275 0)
(1.05908 0.00899454 0)
(1.05884 0.00875053 0)
(1.05845 0.00851837 0)
(1.05792 0.00829613 0)
(1.05726 0.00808223 0)
(1.05647 0.00787532 0)
(1.05557 0.00767428 0)
(1.05455 0.00747811 0)
(1.05344 0.00728588 0)
(1.05223 0.00709675 0)
(1.05094 0.00690984 0)
(1.04959 0.00672429 0)
(1.04817 0.00653918 0)
(1.04671 0.00635351 0)
(1.0452 0.0061663 0)
(1.04366 0.00597623 0)
(1.0421 0.00578235 0)
(1.04053 0.00558261 0)
(1.03895 0.00537656 0)
(1.03738 0.00516034 0)
(1.03582 0.00493517 0)
(1.03428 0.00469328 0)
(1.03278 0.00443974 0)
(1.03132 0.00415963 0)
(1.02992 0.00386381 0)
(1.02859 0.00352941 0)
(1.02733 0.00316649 0)
(1.02616 0.00276062 0)
(1.0251 0.00227953 0)
(1.02414 0.00178727 0)
(1.02332 0.00109723 0)
(1.02258 0.000513024 0)
(1.02202 -0.00030301 0)
(1.00238 0.0218802 0)
(1.02665 0.0275537 0)
(1.04101 0.0206119 0)
(1.0446 0.0178642 0)
(1.0461 0.0165655 0)
(1.04801 0.0150758 0)
(1.04977 0.0138511 0)
(1.05114 0.0129956 0)
(1.05226 0.0123263 0)
(1.05325 0.0117505 0)
(1.05414 0.0112502 0)
(1.05495 0.0108153 0)
(1.05568 0.0104318 0)
(1.05632 0.0100883 0)
(1.05688 0.00977659 0)
(1.05736 0.00949088 0)
(1.05776 0.0092266 0)
(1.05807 0.00898003 0)
(1.05829 0.00874817 0)
(1.05842 0.00852849 0)
(1.05846 0.00831893 0)
(1.05842 0.00811774 0)
(1.05829 0.00792344 0)
(1.05807 0.00773477 0)
(1.05777 0.00755061 0)
(1.0574 0.00736995 0)
(1.05696 0.00719185 0)
(1.05645 0.00701538 0)
(1.05588 0.00683961 0)
(1.05525 0.00666358 0)
(1.05458 0.00648625 0)
(1.05386 0.00630657 0)
(1.0531 0.00612319 0)
(1.05231 0.0059351 0)
(1.0515 0.00574021 0)
(1.05067 0.00553794 0)
(1.04983 0.00532452 0)
(1.04898 0.00510076 0)
(1.04814 0.00485944 0)
(1.04731 0.00460429 0)
(1.04649 0.00432247 0)
(1.04571 0.00402107 0)
(1.04496 0.00368257 0)
(1.04426 0.00330926 0)
(1.04361 0.00289545 0)
(1.04303 0.0024019 0)
(1.04251 0.00189112 0)
(1.04208 0.00120525 0)
(1.0417 0.000580923 0)
(1.04145 -0.000204812 0)
(1.0021 0.0200657 0)
(1.02431 0.0264428 0)
(1.03828 0.0201133 0)
(1.04208 0.0174513 0)
(1.0436 0.0163007 0)
(1.04548 0.0149187 0)
(1.04724 0.0137201 0)
(1.04861 0.0128748 0)
(1.04971 0.0122199 0)
(1.05069 0.011656 0)
(1.05158 0.0111639 0)
(1.05239 0.0107354 0)
(1.05313 0.0103578 0)
(1.05381 0.0100199 0)
(1.05444 0.00971381 0)
(1.05502 0.00943389 0)
(1.05554 0.00917565 0)
(1.05601 0.00893547 0)
(1.05643 0.00871032 0)
(1.0568 0.00849769 0)
(1.05712 0.00829545 0)
(1.05738 0.00810179 0)
(1.05759 0.00791516 0)
(1.05775 0.00773422 0)
(1.05786 0.00755777 0)
(1.05792 0.00738473 0)
(1.05793 0.0072141 0)
(1.0579 0.0070449 0)
(1.05782 0.00687613 0)
(1.0577 0.0067068 0)
(1.05755 0.00653578 0)
(1.05737 0.00636202 0)
(1.05715 0.00618407 0)
(1.0569 0.00600088 0)
(1.05664 0.00581029 0)
(1.05635 0.00561161 0)
(1.05605 0.00540114 0)
(1.05574 0.00517925 0)
(1.05542 0.00493935 0)
(1.05511 0.00468379 0)
(1.0548 0.00440174 0)
(1.05451 0.00409687 0)
(1.05423 0.00375627 0)
(1.05398 0.00337613 0)
(1.05377 0.00295673 0)
(1.05359 0.00245617 0)
(1.05346 0.00193113 0)
(1.05337 0.00125285 0)
(1.05331 0.000599447 0)
(1.05334 -0.000170704 0)
(1.00185 0.018359 0)
(1.02211 0.0253234 0)
(1.03565 0.0196292 0)
(1.03964 0.0170405 0)
(1.04118 0.0160219 0)
(1.04303 0.0147535 0)
(1.0448 0.0135865 0)
(1.04616 0.0127517 0)
(1.04726 0.0121112 0)
(1.04822 0.0115599 0)
(1.0491 0.0110761 0)
(1.0499 0.0106537 0)
(1.05063 0.0102812 0)
(1.05131 0.00994788 0)
(1.05195 0.00964589 0)
(1.05254 0.00936976 0)
(1.0531 0.00911519 0)
(1.05362 0.00887866 0)
(1.05411 0.00865722 0)
(1.05456 0.00844838 0)
(1.05499 0.00825004 0)
(1.05538 0.00806038 0)
(1.05575 0.00787785 0)
(1.05608 0.00770106 0)
(1.05639 0.00752881 0)
(1.05666 0.00735997 0)
(1.05691 0.00719353 0)
(1.05714 0.00702846 0)
(1.05734 0.00686375 0)
(1.05751 0.00669836 0)
(1.05766 0.00653115 0)
(1.0578 0.006361 0)
(1.05791 0.00618643 0)
(1.058 0.00600632 0)
(1.05808 0.00581851 0)
(1.05815 0.00562213 0)
(1.0582 0.00541362 0)
(1.05825 0.0051929 0)
(1.0583 0.00495398 0)
(1.05834 0.00469795 0)
(1.05839 0.00441579 0)
(1.05844 0.00410826 0)
(1.05851 0.00376616 0)
(1.0586 0.00338123 0)
(1.0587 0.00295738 0)
(1.05883 0.00245323 0)
(1.05898 0.00191709 0)
(1.05916 0.00124742 0)
(1.05935 0.000573408 0)
(1.05961 -0.00019178 0)
(1.00162 0.0167598 0)
(1.02005 0.0241996 0)
(1.03311 0.0191555 0)
(1.03729 0.0166335 0)
(1.03886 0.0157299 0)
(1.04068 0.0145795 0)
(1.04244 0.0134499 0)
(1.04381 0.0126262 0)
(1.0449 0.0120001 0)
(1.04585 0.0114619 0)
(1.04671 0.0109871 0)
(1.0475 0.0105709 0)
(1.04822 0.0102036 0)
(1.04889 0.00987455 0)
(1.04952 0.00957623 0)
(1.0501 0.00930326 0)
(1.05066 0.00905149 0)
(1.05119 0.00881749 0)
(1.05169 0.00859839 0)
(1.05217 0.00839177 0)
(1.05263 0.00819556 0)
(1.05306 0.00800797 0)
(1.05348 0.00782745 0)
(1.05388 0.00765264 0)
(1.05427 0.0074823 0)
(1.05464 0.00731535 0)
(1.05499 0.00715074 0)
(1.05534 0.00698746 0)
(1.05567 0.00682449 0)
(1.05599 0.00666079 0)
(1.0563 0.00649518 0)
(1.05659 0.00632655 0)
(1.05688 0.00615336 0)
(1.05716 0.00597448 0)
(1.05744 0.00578771 0)
(1.05771 0.00559206 0)
(1.05797 0.00538413 0)
(1.05824 0.00516336 0)
(1.0585 0.00492443 0)
(1.05876 0.0046672 0)
(1.05903 0.0043843 0)
(1.05931 0.0040741 0)
(1.0596 0.00373017 0)
(1.0599 0.00334145 0)
(1.06022 0.00291338 0)
(1.06055 0.00240741 0)
(1.06089 0.00186243 0)
(1.06126 0.00120061 0)
(1.06162 0.000511933 0)
(1.06204 -0.000255576 0)
(1.00142 0.0152673 0)
(1.01812 0.0230754 0)
(1.03069 0.0186881 0)
(1.03503 0.0162317 0)
(1.03664 0.0154264 0)
(1.03841 0.0143961 0)
(1.04017 0.0133101 0)
(1.04154 0.0124983 0)
(1.04262 0.0118863 0)
(1.04356 0.011362 0)
(1.04441 0.0108966 0)
(1.04519 0.0104871 0)
(1.0459 0.010125 0)
(1.04656 0.00980036 0)
(1.04717 0.00950571 0)
(1.04775 0.0092358 0)
(1.0483 0.0089866 0)
(1.04882 0.00875479 0)
(1.04931 0.00853757 0)
(1.04979 0.00833256 0)
(1.05025 0.00813775 0)
(1.05069 0.00795135 0)
(1.05112 0.00777185 0)
(1.05154 0.00759788 0)
(1.05195 0.00742826 0)
(1.05235 0.00726188 0)
(1.05275 0.00709773 0)
(1.05314 0.00693481 0)
(1.05352 0.0067721 0)
(1.0539 0.00660857 0)
(1.05427 0.00644305 0)
(1.05465 0.00627441 0)
(1.05502 0.00610112 0)
(1.05539 0.00592199 0)
(1.05576 0.00573487 0)
(1.05613 0.00553861 0)
(1.0565 0.00532999 0)
(1.05688 0.00510802 0)
(1.05725 0.00486798 0)
(1.05764 0.00460872 0)
(1.05803 0.00432419 0)
(1.05843 0.00401096 0)
(1.05885 0.00366453 0)
(1.05927 0.00327236 0)
(1.05971 0.0028399 0)
(1.06016 0.00233279 0)
(1.06062 0.0017805 0)
(1.06109 0.0011248 0)
(1.06156 0.000425447 0)
(1.06208 -0.000349071 0)
(1.00124 0.0138801 0)
(1.01633 0.0219549 0)
(1.02837 0.0182233 0)
(1.03285 0.0158363 0)
(1.03451 0.0151128 0)
(1.03624 0.0142027 0)
(1.03798 0.0131666 0)
(1.03936 0.0123681 0)
(1.04044 0.0117699 0)
(1.04137 0.0112598 0)
(1.04221 0.0108046 0)
(1.04297 0.010402 0)
(1.04367 0.0100453 0)
(1.04432 0.0097253 0)
(1.04492 0.00943445 0)
(1.04549 0.00916766 0)
(1.04602 0.00892105 0)
(1.04653 0.00869139 0)
(1.04702 0.00847594 0)
(1.04749 0.00827237 0)
(1.04794 0.0080787 0)
(1.04838 0.00789318 0)
(1.04881 0.0077143 0)
(1.04922 0.00754072 0)
(1.04963 0.00737125 0)
(1.05004 0.00720484 0)
(1.05044 0.00704046 0)
(1.05084 0.00687715 0)
(1.05124 0.0067139 0)
(1.05164 0.00654971 0)
(1.05203 0.00638339 0)
(1.05243 0.00621383 0)
(1.05284 0.00603952 0)
(1.05324 0.0058592 0)
(1.05365 0.00567078 0)
(1.05406 0.00547297 0)
(1.05448 0.00526275 0)
(1.0549 0.00503874 0)
(1.05534 0.00479673 0)
(1.05578 0.00453477 0)
(1.05623 0.00424782 0)
(1.05669 0.00393121 0)
(1.05716 0.00358161 0)
(1.05764 0.00318602 0)
(1.05814 0.00274896 0)
(1.05865 0.00224076 0)
(1.05917 0.00168231 0)
(1.05969 0.00103072 0)
(1.06022 0.000323231 0)
(1.06079 -0.000460953 0)
(1.00107 0.0125962 0)
(1.01467 0.0208422 0)
(1.02616 0.0177578 0)
(1.03077 0.0154483 0)
(1.03247 0.0147909 0)
(1.03417 0.013999 0)
(1.03589 0.013019 0)
(1.03727 0.0122355 0)
(1.03835 0.0116508 0)
(1.03927 0.0111554 0)
(1.0401 0.0107109 0)
(1.04085 0.0103156 0)
(1.04154 0.0099646 0)
(1.04218 0.00964931 0)
(1.04277 0.0093624 0)
(1.04332 0.00909885 0)
(1.04385 0.0088549 0)
(1.04435 0.00862743 0)
(1.04482 0.00841377 0)
(1.04528 0.00821163 0)
(1.04572 0.00801905 0)
(1.04615 0.00783432 0)
(1.04657 0.00765593 0)
(1.04698 0.00748257 0)
(1.04739 0.00731306 0)
(1.04779 0.00714635 0)
(1.04818 0.00698145 0)
(1.04858 0.00681742 0)
(1.04898 0.00665326 0)
(1.04938 0.00648799 0)
(1.04978 0.00632044 0)
(1.05018 0.0061495 0)
(1.05059 0.00597365 0)
(1.051 0.00579162 0)
(1.05142 0.00560138 0)
(1.05185 0.00540149 0)
(1.05228 0.00518911 0)
(1.05272 0.00496255 0)
(1.05317 0.00471802 0)
(1.05363 0.00445293 0)
(1.0541 0.00416301 0)
(1.05458 0.00384279 0)
(1.05507 0.00348955 0)
(1.05558 0.00309055 0)
(1.0561 0.00264881 0)
(1.05663 0.00213931 0)
(1.05717 0.00157564 0)
(1.05771 0.000926268 0)
(1.05826 0.000212375 0)
(1.05884 -0.000582511 0)
(1.00093 0.0114129 0)
(1.01314 0.0197412 0)
(1.02407 0.0172884 0)
(1.02876 0.0150682 0)
(1.03053 0.0144628 0)
(1.03218 0.0137845 0)
(1.03389 0.0128666 0)
(1.03527 0.0121005 0)
(1.03635 0.011529 0)
(1.03726 0.0110485 0)
(1.03808 0.0106154 0)
(1.03882 0.0102278 0)
(1.0395 0.00988269 0)
(1.04013 0.0095723 0)
(1.04071 0.00928948 0)
(1.04125 0.00902929 0)
(1.04177 0.0087881 0)
(1.04226 0.00856289 0)
(1.04272 0.00835107 0)
(1.04317 0.0081504 0)
(1.0436 0.00795893 0)
(1.04402 0.00777498 0)
(1.04443 0.00759706 0)
(1.04484 0.00742386 0)
(1.04523 0.00725423 0)
(1.04562 0.00708714 0)
(1.04601 0.00692161 0)
(1.0464 0.00675672 0)
(1.04679 0.0065915 0)
(1.04719 0.00642497 0)
(1.04758 0.00625599 0)
(1.04798 0.00608343 0)
(1.04839 0.00590582 0)
(1.0488 0.00572184 0)
(1.04921 0.0055295 0)
(1.04964 0.00532726 0)
(1.05007 0.00511243 0)
(1.05051 0.00488306 0)
(1.05096 0.0046357 0)
(1.05142 0.00436729 0)
(1.05189 0.00407409 0)
(1.05238 0.00375019 0)
(1.05287 0.00339305 0)
(1.05338 0.00299067 0)
(1.0539 0.00254436 0)
(1.05443 0.00203332 0)
(1.05497 0.00146524 0)
(1.05551 0.000816614 0)
(1.05606 9.75212e-05 0)
(1.05663 -0.000707878 0)
(1.0008 0.010327 0)
(1.01174 0.0186562 0)
(1.02208 0.0168123 0)
(1.02685 0.0146963 0)
(1.02868 0.0141305 0)
(1.03029 0.0135594 0)
(1.03197 0.0127089 0)
(1.03336 0.0119632 0)
(1.03444 0.0114046 0)
(1.03534 0.010939 0)
(1.03615 0.010518 0)
(1.03688 0.0101385 0)
(1.03755 0.00979951 0)
(1.03817 0.00949419 0)
(1.03874 0.00921561 0)
(1.03928 0.00895891 0)
(1.03978 0.00872058 0)
(1.04026 0.00849772 0)
(1.04072 0.0082878 0)
(1.04116 0.00808863 0)
(1.04158 0.00789831 0)
(1.04199 0.00771516 0)
(1.04239 0.00753771 0)
(1.04279 0.00736467 0)
(1.04317 0.00719491 0)
(1.04356 0.0070274 0)
(1.04394 0.00686119 0)
(1.04432 0.00669539 0)
(1.0447 0.00652903 0)
(1.04509 0.00636117 0)
(1.04548 0.00619067 0)
(1.04587 0.00601641 0)
(1.04627 0.00583693 0)
(1.04667 0.00565088 0)
(1.04708 0.00545632 0)
(1.0475 0.00525161 0)
(1.04792 0.0050342 0)
(1.04836 0.00480191 0)
(1.0488 0.00455157 0)
(1.04926 0.0042798 0)
(1.04972 0.00398317 0)
(1.0502 0.00365563 0)
(1.05069 0.00329453 0)
(1.05119 0.00288883 0)
(1.0517 0.00243822 0)
(1.05222 0.00192545 0)
(1.05275 0.00135371 0)
(1.05328 0.000704846 0)
(1.05381 -1.84373e-05 0)
(1.05436 -0.000833388 0)
(1.00069 0.00933474 0)
(1.01046 0.0175912 0)
(1.02021 0.0163274 0)
(1.02502 0.0143325 0)
(1.02692 0.0137959 0)
(1.0285 0.0133236 0)
(1.03014 0.0125452 0)
(1.03153 0.0118233 0)
(1.03261 0.0112775 0)
(1.03351 0.0108268 0)
(1.03431 0.0104184 0)
(1.03504 0.0100476 0)
(1.0357 0.00971496 0)
(1.03631 0.00941489 0)
(1.03687 0.00914071 0)
(1.0374 0.00888764 0)
(1.03789 0.00865228 0)
(1.03836 0.00843184 0)
(1.03881 0.00822389 0)
(1.03924 0.00802628 0)
(1.03966 0.00783713 0)
(1.04006 0.00765481 0)
(1.04045 0.00747784 0)
(1.04083 0.00730497 0)
(1.04121 0.00713506 0)
(1.04159 0.00696712 0)
(1.04196 0.00680022 0)
(1.04234 0.00663347 0)
(1.04271 0.00646596 0)
(1.04309 0.00629672 0)
(1.04347 0.00612467 0)
(1.04386 0.00594865 0)
(1.04425 0.00576725 0)
(1.04464 0.00557908 0)
(1.04504 0.00538225 0)
(1.04545 0.00517503 0)
(1.04587 0.00495498 0)
(1.0463 0.00471975 0)
(1.04673 0.00446637 0)
(1.04718 0.00419126 0)
(1.04764 0.00389116 0)
(1.0481 0.00356007 0)
(1.04858 0.00319509 0)
(1.04907 0.00278619 0)
(1.04957 0.00233163 0)
(1.05007 0.00181703 0)
(1.05058 0.00124233 0)
(1.0511 0.000592666 0)
(1.05161 -0.000133876 0)
(1.05213 -0.000956723 0)
(1.0006 0.00843172 0)
(1.0093 0.0165503 0)
(1.01845 0.0158318 0)
(1.02327 0.0139765 0)
(1.02525 0.013461 0)
(1.02679 0.0130779 0)
(1.0284 0.0123749 0)
(1.02979 0.0116808 0)
(1.03087 0.0111479 0)
(1.03176 0.0107118 0)
(1.03256 0.0103165 0)
(1.03328 0.00995493 0)
(1.03393 0.00962896 0)
(1.03453 0.00933431 0)
(1.03509 0.00906469 0)
(1.0356 0.00881538 0)
(1.03609 0.0085831 0)
(1.03655 0.00836518 0)
(1.03699 0.00815927 0)
(1.03742 0.00796327 0)
(1.03782 0.00777534 0)
(1.03822 0.00759387 0)
(1.0386 0.00741741 0)
(1.03898 0.00724471 0)
(1.03935 0.00707465 0)
(1.03972 0.00690627 0)
(1.04009 0.00673866 0)
(1.04045 0.00657096 0)
(1.04082 0.00640225 0)
(1.04119 0.00623162 0)
(1.04156 0.00605798 0)
(1.04194 0.00588019 0)
(1.04232 0.00569685 0)
(1.04271 0.00550653 0)
(1.0431 0.00530741 0)
(1.04351 0.00509766 0)
(1.04392 0.00487495 0)
(1.04433 0.0046368 0)
(1.04476 0.00438037 0)
(1.0452 0.00410199 0)
(1.04564 0.00379845 0)
(1.0461 0.00346394 0)
(1.04657 0.00309523 0)
(1.04704 0.00268326 0)
(1.04752 0.00222518 0)
(1.04801 0.00170874 0)
(1.0485 0.00113172 0)
(1.049 0.000481068 0)
(1.04949 -0.000247881 0)
(1.04998 -0.00107646 0)
(1.00051 0.00761319 0)
(1.00825 0.0155373 0)
(1.01681 0.0153242 0)
(1.02161 0.0136277 0)
(1.02366 0.0131276 0)
(1.02518 0.0128227 0)
(1.02675 0.0121976 0)
(1.02813 0.0115352 0)
(1.02922 0.0110156 0)
(1.03011 0.010594 0)
(1.03089 0.0102123 0)