/*--------------------------------*- C++ -*----------------------------------*\
  =========                 |
  \\      /  F ield         | OpenFOAM: The Open Source CFD Toolbox
   \\    /   O peration     | Website:  https://openfoam.org
    \\  /    A nd           | Version:  7
     \\/     M anipulation  |
\*---------------------------------------------------------------------------*/
FoamFile
{
    version     2.0;
    format      ascii;
    class       volVectorField;
    location    "0.37";
    object      vorticity;
}
// * * * * * * * * * * * * * * * * * * * * * * * * * * * * * * * * * * * * * //

dimensions      [0 0 -1 0 0 0 0];

internalField   nonuniform List<vector> 
70000
(
(0 -0 -45716.1)
(0 -0 -28618.4)
(0 -0 -20915.4)
(0 -0 -16983.5)
(0 -0 -14963.8)
(0 -0 -13658.5)
(0 -0 -12650.9)
(0 -0 -11840.3)
(0 -0 -11178.7)
(0 -0 -10627.1)
(0 -0 -10157.7)
(0 -0 -9751.81)
(0 -0 -9396.62)
(0 -0 -9082.71)
(0 -0 -8802.97)
(0 -0 -8551.91)
(0 -0 -8325.22)
(0 -0 -8119.44)
(0 -0 -7931.81)
(0 -0 -7760.03)
(0 -0 -7602.24)
(0 -0 -7456.86)
(0 -0 -7322.59)
(0 -0 -7198.31)
(0 -0 -7083.09)
(0 -0 -6976.12)
(0 -0 -6876.72)
(0 -0 -6784.31)
(0 -0 -6698.39)
(0 -0 -6618.54)
(0 -0 -6544.41)
(0 -0 -6475.69)
(0 -0 -6412.17)
(0 -0 -6353.62)
(0 -0 -6299.95)
(0 -0 -6251.02)
(0 -0 -6206.79)
(0 -0 -6167.37)
(0 -0 -6132.47)
(0 -0 -6103.06)
(0 -0 -6077.45)
(0 -0 -6059.66)
(0 -0 -6042.79)
(0 -0 -6040.67)
(0 -0 -6029.72)
(0 -0 -6053.13)
(0 -0 -6038.56)
(0 -0 -6107.98)
(0 -0 -6091.61)
(0 -0 -5952.05)
(0 -0 -13549.6)
(0 -0 -19947.4)
(0 -0 -18536.9)
(0 -0 -16251.3)
(0 -0 -14506.5)
(0 -0 -13283.8)
(0 -0 -12357.1)
(0 -0 -11608.6)
(0 -0 -10988.1)
(0 -0 -10464.8)
(0 -0 -10016.4)
(0 -0 -9626.83)
(0 -0 -9284.46)
(0 -0 -8980.77)
(0 -0 -8709.25)
(0 -0 -8464.87)
(0 -0 -8243.61)
(0 -0 -8042.29)
(0 -0 -7858.28)
(0 -0 -7689.44)
(0 -0 -7533.99)
(0 -0 -7390.45)
(0 -0 -7257.56)
(0 -0 -7134.25)
(0 -0 -7019.62)
(0 -0 -6912.9)
(0 -0 -6813.41)
(0 -0 -6720.58)
(0 -0 -6633.93)
(0 -0 -6553.03)
(0 -0 -6477.52)
(0 -0 -6407.09)
(0 -0 -6341.49)
(0 -0 -6280.5)
(0 -0 -6223.97)
(0 -0 -6171.75)
(0 -0 -6123.74)
(0 -0 -6080)
(0 -0 -6040.23)
(0 -0 -6005.13)
(0 -0 -5973.4)
(0 -0 -5948)
(0 -0 -5923.75)
(0 -0 -5910.88)
(0 -0 -5892.13)
(0 -0 -5898.6)
(0 -0 -5879.97)
(0 -0 -5917.59)
(0 -0 -5905.46)
(0 -0 -6016.19)
(0 -0 -3818.73)
(0 -0 -10828.6)
(0 -0 -13363.1)
(0 -0 -13519.6)
(0 -0 -12866.8)
(0 -0 -12141.5)
(0 -0 -11500.8)
(0 -0 -10941.6)
(0 -0 -10451.1)
(0 -0 -10020)
(0 -0 -9639.63)
(0 -0 -9301.86)
(0 -0 -8999.94)
(0 -0 -8728.43)
(0 -0 -8482.92)
(0 -0 -8259.81)
(0 -0 -8056.16)
(0 -0 -7869.52)
(0 -0 -7697.85)
(0 -0 -7539.43)
(0 -0 -7392.82)
(0 -0 -7256.77)
(0 -0 -7130.24)
(0 -0 -7012.32)
(0 -0 -6902.22)
(0 -0 -6799.26)
(0 -0 -6702.86)
(0 -0 -6612.5)
(0 -0 -6527.74)
(0 -0 -6448.19)
(0 -0 -6373.52)
(0 -0 -6303.42)
(0 -0 -6237.67)
(0 -0 -6176.03)
(0 -0 -6118.34)
(0 -0 -6064.43)
(0 -0 -6014.21)
(0 -0 -5967.61)
(0 -0 -5924.44)
(0 -0 -5885.05)
(0 -0 -5848.63)
(0 -0 -5816.89)
(0 -0 -5786.79)
(0 -0 -5764.1)
(0 -0 -5739.33)
(0 -0 -5728.81)
(0 -0 -5708.02)
(0 -0 -5713.1)
(0 -0 -5701.72)
(0 -0 -5794.58)
(0 -0 -533.096)
(0 -0 -4662.44)
(0 -0 -7717.83)
(0 -0 -9327.6)
(0 -0 -9891.4)
(0 -0 -9957.04)
(0 -0 -9825.86)
(0 -0 -9614.6)
(0 -0 -9372.05)
(0 -0 -9122.87)
(0 -0 -8879.5)
(0 -0 -8647.5)
(0 -0 -8428.99)
(0 -0 -8224.43)
(0 -0 -8033.45)
(0 -0 -7855.35)
(0 -0 -7689.25)
(0 -0 -7534.24)
(0 -0 -7389.44)
(0 -0 -7254.01)
(0 -0 -7127.18)
(0 -0 -7008.25)
(0 -0 -6896.58)
(0 -0 -6791.6)
(0 -0 -6692.8)
(0 -0 -6599.71)
(0 -0 -6511.92)
(0 -0 -6429.05)
(0 -0 -6350.79)
(0 -0 -6276.83)
(0 -0 -6206.92)
(0 -0 -6140.82)
(0 -0 -6078.35)
(0 -0 -6019.29)
(0 -0 -5963.52)
(0 -0 -5910.89)
(0 -0 -5861.29)
(0 -0 -5814.63)
(0 -0 -5770.8)
(0 -0 -5729.85)
(0 -0 -5691.53)
(0 -0 -5656.24)
(0 -0 -5623.25)
(0 -0 -5593.79)
(0 -0 -5566.27)
(0 -0 -5542.52)
(0 -0 -5522.58)
(0 -0 -5501.09)
(0 -0 -5499.23)
(0 -0 -5502.46)
(0 -0 322.388)
(0 -0 -1444.47)
(0 -0 -3532.1)
(0 -0 -5258.09)
(0 -0 -6397.63)
(0 -0 -7072.08)
(0 -0 -7449.44)
(0 -0 -7640.13)
(0 -0 -7712.37)
(0 -0 -7710.4)
(0 -0 -7662.75)
(0 -0 -7587.5)
(0 -0 -7496.08)
(0 -0 -7395.79)
(0 -0 -7291.3)
(0 -0 -7185.67)
(0 -0 -7080.84)
(0 -0 -6978.07)
(0 -0 -6878.13)
(0 -0 -6781.5)
(0 -0 -6688.41)
(0 -0 -6598.98)
(0 -0 -6513.23)
(0 -0 -6431.11)
(0 -0 -6352.54)
(0 -0 -6277.41)
(0 -0 -6205.58)
(0 -0 -6136.94)
(0 -0 -6071.35)
(0 -0 -6008.68)
(0 -0 -5948.81)
(0 -0 -5891.63)
(0 -0 -5837.02)
(0 -0 -5784.88)
(0 -0 -5735.13)
(0 -0 -5687.66)
(0 -0 -5642.44)
(0 -0 -5599.32)
(0 -0 -5558.37)
(0 -0 -5519.34)
(0 -0 -5482.53)
(0 -0 -5447.26)
(0 -0 -5414.73)
(0 -0 -5382.57)
(0 -0 -5355.35)
(0 -0 -5324.12)
(0 -0 -5306.42)
(0 -0 -5268.68)
(0 -0 -5274.55)
(0 -0 -5227.49)
(0 -0 364.665)
(0 -0 -158.58)
(0 -0 -1181.3)
(0 -0 -2361.25)
(0 -0 -3416.04)
(0 -0 -4253.93)
(0 -0 -4888.4)
(0 -0 -5353.41)
(0 -0 -5684.04)
(0 -0 -5912.32)
(0 -0 -6064.53)
(0 -0 -6160.77)
(0 -0 -6215.98)
(0 -0 -6241.13)
(0 -0 -6244.27)
(0 -0 -6231.36)
(0 -0 -6206.78)
(0 -0 -6173.8)
(0 -0 -6134.84)
(0 -0 -6091.73)
(0 -0 -6045.85)
(0 -0 -5998.22)
(0 -0 -5949.62)
(0 -0 -5900.65)
(0 -0 -5851.74)
(0 -0 -5803.23)
(0 -0 -5755.36)
(0 -0 -5708.32)
(0 -0 -5662.24)
(0 -0 -5617.22)
(0 -0 -5573.32)
(0 -0 -5530.59)
(0 -0 -5489.06)
(0 -0 -5448.75)
(0 -0 -5409.66)
(0 -0 -5371.77)
(0 -0 -5335.12)
(0 -0 -5299.62)
(0 -0 -5265.42)
(0 -0 -5232.16)
(0 -0 -5200.49)
(0 -0 -5169.12)
(0 -0 -5140.37)
(0 -0 -5109.92)
(0 -0 -5085.54)
(0 -0 -5053.08)
(0 -0 -5037.73)
(0 -0 -4995.45)
(0 -0 -5000.48)
(0 -0 -4945.51)
(0 -0 253.996)
(0 -0 185.252)
(0 -0 -173.246)
(0 -0 -764.293)
(0 -0 -1446.72)
(0 -0 -2113.72)
(0 -0 -2718.05)
(0 -0 -3240.3)
(0 -0 -3676.38)
(0 -0 -4032.09)
(0 -0 -4317.7)
(0 -0 -4544.34)
(0 -0 -4722.33)
(0 -0 -4860.64)
(0 -0 -4966.8)
(0 -0 -5047)
(0 -0 -5106.28)
(0 -0 -5148.69)
(0 -0 -5177.5)
(0 -0 -5195.37)
(0 -0 -5204.41)
(0 -0 -5206.34)
(0 -0 -5202.55)
(0 -0 -5194.16)
(0 -0 -5182.09)
(0 -0 -5167.08)
(0 -0 -5149.74)
(0 -0 -5130.55)
(0 -0 -5109.93)
(0 -0 -5088.21)
(0 -0 -5065.65)
(0 -0 -5042.49)
(0 -0 -5018.9)
(0 -0 -4995.05)
(0 -0 -4971.05)
(0 -0 -4946.99)
(0 -0 -4923)
(0 -0 -4899.05)
(0 -0 -4875.38)
(0 -0 -4851.64)
(0 -0 -4828.6)
(0 -0 -4804.88)
(0 -0 -4783.03)
(0 -0 -4758.41)
(0 -0 -4739.22)
(0 -0 -4711.01)
(0 -0 -4698.43)
(0 -0 -4660.49)
(0 -0 -4661.06)
(0 -0 -4614.39)
(0 -0 178.725)
(0 -0 204.463)
(0 -0 130.628)
(0 -0 -85.1002)
(0 -0 -417.43)
(0 -0 -813.884)
(0 -0 -1234.63)
(0 -0 -1650.82)
(0 -0 -2042.64)
(0 -0 -2399.11)
(0 -0 -2716.01)
(0 -0 -2993.26)
(0 -0 -3233.03)
(0 -0 -3438.67)
(0 -0 -3613.9)
(0 -0 -3762.47)
(0 -0 -3887.89)
(0 -0 -3993.35)
(0 -0 -4081.65)
(0 -0 -4155.26)
(0 -0 -4216.3)
(0 -0 -4266.59)
(0 -0 -4307.69)
(0 -0 -4340.92)
(0 -0 -4367.43)
(0 -0 -4388.17)
(0 -0 -4403.96)
(0 -0 -4415.5)
(0 -0 -4423.37)
(0 -0 -4428.09)
(0 -0 -4430.09)
(0 -0 -4429.73)
(0 -0 -4427.32)
(0 -0 -4423.14)
(0 -0 -4417.41)
(0 -0 -4410.33)
(0 -0 -4402.08)
(0 -0 -4392.75)
(0 -0 -4382.58)
(0 -0 -4371.38)
(0 -0 -4359.81)
(0 -0 -4346.78)
(0 -0 -4334.46)
(0 -0 -4318.95)
(0 -0 -4307.2)
(0 -0 -4287.11)
(0 -0 -4278.85)
(0 -0 -4249.93)
(0 -0 -4248.11)
(0 -0 -4212.78)
(0 -0 147.996)
(0 -0 164.577)
(0 -0 169.942)
(0 -0 120.962)
(0 -0 1.17048)
(0 -0 -180.292)
(0 -0 -408.029)
(0 -0 -665.695)
(0 -0 -937.471)
(0 -0 -1210.45)
(0 -0 -1475.42)
(0 -0 -1726.37)
(0 -0 -1959.81)
(0 -0 -2174.06)
(0 -0 -2368.73)
(0 -0 -2544.29)
(0 -0 -2701.7)
(0 -0 -2842.22)
(0 -0 -2967.25)
(0 -0 -3078.19)
(0 -0 -3176.42)
(0 -0 -3263.23)
(0 -0 -3339.82)
(0 -0 -3407.3)
(0 -0 -3466.66)
(0 -0 -3518.76)
(0 -0 -3564.42)
(0 -0 -3604.32)
(0 -0 -3639.09)
(0 -0 -3669.27)
(0 -0 -3695.33)
(0 -0 -3717.7)
(0 -0 -3736.75)
(0 -0 -3752.82)
(0 -0 -3766.17)
(0 -0 -3777.07)
(0 -0 -3785.72)
(0 -0 -3792.31)
(0 -0 -3797.04)
(0 -0 -3799.91)
(0 -0 -3801.37)
(0 -0 -3800.75)
(0 -0 -3799.62)
(0 -0 -3795.14)
(0 -0 -3792.54)
(0 -0 -3782.68)
(0 -0 -3780.65)
(0 -0 -3762.61)
(0 -0 -3761.94)
(0 -0 -3738.17)
(0 -0 136.8)
(0 -0 137.044)
(0 -0 148.698)
(0 -0 149.635)
(0 -0 122.185)
(0 -0 60.23)
(0 -0 -36.016)
(0 -0 -162.877)
(0 -0 -313.989)
(0 -0 -482.04)
(0 -0 -660.113)
(0 -0 -842.298)
(0 -0 -1023.86)
(0 -0 -1201.2)
(0 -0 -1371.79)
(0 -0 -1533.91)
(0 -0 -1686.56)
(0 -0 -1829.25)
(0 -0 -1961.84)
(0 -0 -2084.49)
(0 -0 -2197.55)
(0 -0 -2301.45)
(0 -0 -2396.72)
(0 -0 -2483.93)
(0 -0 -2563.63)
(0 -0 -2636.38)
(0 -0 -2702.7)
(0 -0 -2763.11)
(0 -0 -2818.07)
(0 -0 -2868.01)
(0 -0 -2913.33)
(0 -0 -2954.39)
(0 -0 -2991.52)
(0 -0 -3025.03)
(0 -0 -3055.15)
(0 -0 -3082.17)
(0 -0 -3106.26)
(0 -0 -3127.65)
(0 -0 -3146.47)
(0 -0 -3162.84)
(0 -0 -3177.04)
(0 -0 -3188.7)
(0 -0 -3198.92)
(0 -0 -3205.69)
(0 -0 -3212.8)
(0 -0 -3213.6)
(0 -0 -3218.93)
(0 -0 -3211.98)
(0 -0 -3215.06)
(0 -0 -3202.44)
(0 -0 129.918)
(0 -0 123.971)
(0 -0 129.15)
(0 -0 136.342)
(0 -0 136.43)
(0 -0 123.194)
(0 -0 93.0113)
(0 -0 44.0528)
(0 -0 -23.4991)
(0 -0 -107.799)
(0 -0 -206.065)
(0 -0 -315.152)
(0 -0 -431.91)
(0 -0 -553.429)
(0 -0 -677.172)
(0 -0 -801.021)
(0 -0 -923.281)
(0 -0 -1042.64)
(0 -0 -1158.13)
(0 -0 -1269.06)
(0 -0 -1374.97)
(0 -0 -1475.6)
(0 -0 -1570.83)
(0 -0 -1660.65)
(0 -0 -1745.14)
(0 -0 -1824.43)
(0 -0 -1898.7)
(0 -0 -1968.15)
(0 -0 -2033)
(0 -0 -2093.46)
(0 -0 -2149.75)
(0 -0 -2202.1)
(0 -0 -2250.7)
(0 -0 -2295.76)
(0 -0 -2337.43)
(0 -0 -2375.92)
(0 -0 -2411.35)
(0 -0 -2443.9)
(0 -0 -2473.65)
(0 -0 -2500.73)
(0 -0 -2525.3)
(0 -0 -2547.15)
(0 -0 -2567.02)
(0 -0 -2583.49)
(0 -0 -2599.27)
(0 -0 -2609.59)
(0 -0 -2621.99)
(0 -0 -2625.04)
(0 -0 -2632.97)
(0 -0 -2630.26)
(0 -0 122.926)
(0 -0 116.617)
(0 -0 117.983)
(0 -0 122.453)
(0 -0 126.389)
(0 -0 126.858)
(0 -0 121.401)
(0 -0 107.728)
(0 -0 84.2141)
(0 -0 50.1651)
(0 -0 5.68701)
(0 -0 -48.4981)
(0 -0 -111.254)
(0 -0 -181.203)
(0 -0 -256.888)
(0 -0 -336.864)
(0 -0 -419.787)
(0 -0 -504.445)
(0 -0 -589.785)
(0 -0 -674.913)
(0 -0 -759.089)
(0 -0 -841.717)
(0 -0 -922.329)
(0 -0 -1000.57)
(0 -0 -1076.17)
(0 -0 -1148.96)
(0 -0 -1218.81)
(0 -0 -1285.66)
(0 -0 -1349.47)
(0 -0 -1410.25)
(0 -0 -1468.03)
(0 -0 -1522.84)
(0 -0 -1574.75)
(0 -0 -1623.81)
(0 -0 -1670.08)
(0 -0 -1713.65)
(0 -0 -1754.54)
(0 -0 -1792.88)
(0 -0 -1828.65)
(0 -0 -1861.94)
(0 -0 -1892.83)
(0 -0 -1921.15)
(0 -0 -1947.39)
(0 -0 -1970.53)
(0 -0 -1992.43)
(0 -0 -2009.77)
(0 -0 -2027.56)
(0 -0 -2038.34)
(0 -0 -2050.7)
(0 -0 -2055.8)
(0 -0 115.605)
(0 -0 110.383)
(0 -0 110.7)
(0 -0 113.135)
(0 -0 115.943)
(0 -0 118.196)
(0 -0 119.07)
(0 -0 117.368)
(0 -0 111.817)
(0 -0 101.372)
(0 -0 85.3208)
(0 -0 63.3001)
(0 -0 35.265)
(0 -0 1.44432)
(0 -0 -37.7258)
(0 -0 -81.6677)
(0 -0 -129.722)
(0 -0 -181.194)
(0 -0 -235.393)
(0 -0 -291.658)
(0 -0 -349.371)
(0 -0 -407.978)
(0 -0 -466.981)
(0 -0 -525.95)
(0 -0 -584.515)
(0 -0 -642.366)
(0 -0 -699.243)
(0 -0 -754.932)
(0 -0 -809.258)
(0 -0 -862.084)
(0 -0 -913.294)
(0 -0 -962.808)
(0 -0 -1010.55)
(0 -0 -1056.47)
(0 -0 -1100.53)
(0 -0 -1142.71)
(0 -0 -1182.96)
(0 -0 -1221.3)
(0 -0 -1257.67)
(0 -0 -1292.08)
(0 -0 -1324.53)
(0 -0 -1354.86)
(0 -0 -1383.39)
(0 -0 -1409.32)
(0 -0 -1433.94)
(0 -0 -1454.94)
(0 -0 -1475.49)
(0 -0 -1490.95)
(0 -0 -1506.16)
(0 -0 -1516.39)
(0 -0 108.359)
(0 -0 104.164)
(0 -0 104.373)
(0 -0 106.078)
(0 -0 107.942)
(0 -0 109.648)
(0 -0 111.179)
(0 -0 112.191)
(0 -0 112.106)
(0 -0 110.297)
(0 -0 106.183)
(0 -0 99.2683)
(0 -0 89.1838)
(0 -0 75.6984)
(0 -0 58.724)
(0 -0 38.2941)
(0 -0 14.5471)
(0 -0 -12.2969)
(0 -0 -41.9604)
(0 -0 -74.1261)
(0 -0 -108.461)
(0 -0 -144.617)
(0 -0 -182.267)
(0 -0 -221.086)
(0 -0 -260.772)
(0 -0 -301.049)
(0 -0 -341.661)
(0 -0 -382.383)
(0 -0 -423.009)
(0 -0 -463.359)
(0 -0 -503.269)
(0 -0 -542.601)
(0 -0 -581.22)
(0 -0 -619.028)
(0 -0 -655.908)
(0 -0 -691.792)
(0 -0 -726.576)
(0 -0 -760.212)
(0 -0 -792.61)
(0 -0 -823.707)
(0 -0 -853.476)
(0 -0 -881.726)
(0 -0 -908.657)
(0 -0 -933.669)
(0 -0 -957.552)
(0 -0 -978.806)
(0 -0 -999.27)
(0 -0 -1016.22)
(0 -0 -1032.16)
(0 -0 -1044.69)
(0 -0 101.38)
(0 -0 97.9715)
(0 -0 98.1939)
(0 -0 99.6653)
(0 -0 101.175)
(0 -0 102.443)
(0 -0 103.662)
(0 -0 104.843)
(0 -0 105.813)
(0 -0 106.327)
(0 -0 106.108)
(0 -0 104.858)
(0 -0 102.293)
(0 -0 98.1582)
(0 -0 92.2499)
(0 -0 84.4212)
(0 -0 74.5854)
(0 -0 62.7126)
(0 -0 48.8256)
(0 -0 32.9911)
(0 -0 15.3114)
(0 -0 -4.08202)
(0 -0 -25.0398)
(0 -0 -47.399)
(0 -0 -70.99)
(0 -0 -95.6426)
(0 -0 -121.188)
(0 -0 -147.462)
(0 -0 -174.309)
(0 -0 -201.579)
(0 -0 -229.131)
(0 -0 -256.834)
(0 -0 -284.56)
(0 -0 -312.199)
(0 -0 -339.632)
(0 -0 -366.768)
(0 -0 -393.498)
(0 -0 -419.739)
(0 -0 -445.401)
(0 -0 -470.384)
(0 -0 -494.647)
(0 -0 -518.003)
(0 -0 -540.557)
(0 -0 -561.875)
(0 -0 -582.399)
(0 -0 -601.198)
(0 -0 -619.236)
(0 -0 -635.008)
(0 -0 -649.67)
(0 -0 -662.069)
(0 -0 94.702)
(0 -0 91.9203)
(0 -0 92.1307)
(0 -0 93.453)
(0 -0 94.8306)
(0 -0 95.9257)
(0 -0 96.921)
(0 -0 97.9142)
(0 -0 98.8773)
(0 -0 99.7433)
(0 -0 100.424)
(0 -0 100.802)
(0 -0 100.743)
(0 -0 100.099)
(0 -0 98.7272)
(0 -0 96.4947)
(0 -0 93.2874)
(0 -0 89.0137)
(0 -0 83.608)
(0 -0 77.0288)
(0 -0 69.2637)
(0 -0 60.3145)
(0 -0 50.2164)
(0 -0 39.0115)
(0 -0 26.7584)
(0 -0 13.5269)
(0 -0 -0.605245)
(0 -0 -15.5552)
(0 -0 -31.2357)
(0 -0 -47.559)
(0 -0 -64.4343)
(0 -0 -81.7738)
(0 -0 -99.487)
(0 -0 -117.489)
(0 -0 -135.691)
(0 -0 -154.012)
(0 -0 -172.366)
(0 -0 -190.674)
(0 -0 -208.859)
(0 -0 -226.826)
(0 -0 -244.53)
(0 -0 -261.82)
(0 -0 -278.734)
(0 -0 -294.982)
(0 -0 -310.774)
(0 -0 -325.57)
(0 -0 -339.811)
(0 -0 -352.714)
(0 -0 -364.734)
(0 -0 -375.331)
(0 -0 88.3246)
(0 -0 86.0628)
(0 -0 86.2545)
(0 -0 87.427)
(0 -0 88.7063)
(0 -0 89.7223)
(0 -0 90.6115)
(0 -0 91.477)
(0 -0 92.3224)
(0 -0 93.1331)
(0 -0 93.8932)
(0 -0 94.5743)
(0 -0 95.1317)
(0 -0 95.5074)
(0 -0 95.6348)
(0 -0 95.4424)
(0 -0 94.8581)
(0 -0 93.8127)
(0 -0 92.2434)
(0 -0 90.0958)
(0 -0 87.3255)
(0 -0 83.9014)
(0 -0 79.7994)
(0 -0 75.0109)
(0 -0 69.5362)
(0 -0 63.3849)
(0 -0 56.5752)
(0 -0 49.132)
(0 -0 41.0872)
(0 -0 32.4767)
(0 -0 23.3418)
(0 -0 13.7263)
(0 -0 3.67832)
(0 -0 -6.75327)
(0 -0 -17.5159)
(0 -0 -28.557)
(0 -0 -39.8217)
(0 -0 -51.252)
(0 -0 -62.7962)
(0 -0 -74.3829)
(0 -0 -85.975)
(0 -0 -97.468)
(0 -0 -108.864)
(0 -0 -119.986)
(0 -0 -130.915)
(0 -0 -141.359)
(0 -0 -151.48)
(0 -0 -160.897)
(0 -0 -169.746)
(0 -0 -177.766)
(0 -0 82.2461)
(0 -0 80.4171)
(0 -0 80.5986)
(0 -0 81.6262)
(0 -0 82.802)
(0 -0 83.7526)
(0 -0 84.574)
(0 -0 85.3624)
(0 -0 86.1253)
(0 -0 86.856)
(0 -0 87.5557)
(0 -0 88.2241)
(0 -0 88.8531)
(0 -0 89.4271)
(0 -0 89.924)
(0 -0 90.3166)
(0 -0 90.5731)
(0 -0 90.659)
(0 -0 90.5387)
(0 -0 90.1771)
(0 -0 89.5403)
(0 -0 88.5984)
(0 -0 87.3243)
(0 -0 85.6961)
(0 -0 83.6969)
(0 -0 81.3146)
(0 -0 78.5423)
(0 -0 75.3776)
(0 -0 71.8227)
(0 -0 67.884)
(0 -0 63.572)
(0 -0 58.9004)
(0 -0 53.887)
(0 -0 48.5514)
(0 -0 42.918)
(0 -0 37.0128)
(0 -0 30.863)
(0 -0 24.5019)
(0 -0 17.9577)
(0 -0 11.2746)
(0 -0 4.4758)
(0 -0 -2.3753)
(0 -0 -9.26993)
(0 -0 -16.1111)
(0 -0 -22.9162)
(0 -0 -29.5412)
(0 -0 -36.0261)
(0 -0 -42.1926)
(0 -0 -48.0622)
(0 -0 -53.4957)
(0 -0 76.4671)
(0 -0 74.9947)
(0 -0 75.1751)
(0 -0 76.0705)
(0 -0 77.1404)
(0 -0 78.0245)
(0 -0 78.7845)
(0 -0 79.5105)
(0 -0 80.212)
(0 -0 80.8811)
(0 -0 81.5201)
(0 -0 82.1341)
(0 -0 82.7247)
(0 -0 83.2903)
(0 -0 83.8266)
(0 -0 84.3262)
(0 -0 84.7791)
(0 -0 85.1729)
(0 -0 85.4929)
(0 -0 85.723)
(0 -0 85.8461)
(0 -0 85.8449)
(0 -0 85.7025)
(0 -0 85.4028)
(0 -0 84.9312)
(0 -0 84.2747)
(0 -0 83.4224)
(0 -0 82.3651)
(0 -0 81.096)
(0 -0 79.6104)
(0 -0 77.9058)
(0 -0 75.9821)
(0 -0 73.8411)
(0 -0 71.4877)
(0 -0 68.9275)
(0 -0 66.1702)
(0 -0 63.2253)
(0 -0 60.1079)
(0 -0 56.8296)
(0 -0 53.4127)
(0 -0 49.8684)
(0 -0 46.23)
(0 -0 42.5049)
(0 -0 38.7407)
(0 -0 34.942)
(0 -0 31.173)
(0 -0 27.435)
(0 -0 23.8085)
(0 -0 20.299)
(0 -0 16.991)
(0 -0 70.9873)
(0 -0 69.8058)
(0 -0 69.9908)
(0 -0 70.7685)
(0 -0 71.7344)
(0 -0 72.5518)
(0 -0 73.252)
(0 -0 73.919)
(0 -0 74.5648)
(0 -0 75.1812)
(0 -0 75.7687)
(0 -0 76.3322)
(0 -0 76.8749)
(0 -0 77.3983)
(0 -0 77.9027)
(0 -0 78.3874)
(0 -0 78.8506)
(0 -0 79.2892)
(0 -0 79.6989)
(0 -0 80.0743)
(0 -0 80.4088)
(0 -0 80.6954)
(0 -0 80.9262)
(0 -0 81.0934)
(0 -0 81.1891)
(0 -0 81.2055)
(0 -0 81.1352)
(0 -0 80.9713)
(0 -0 80.7073)
(0 -0 80.3376)
(0 -0 79.8574)
(0 -0 79.2627)
(0 -0 78.5505)
(0 -0 77.7195)
(0 -0 76.7685)
(0 -0 75.699)
(0 -0 74.5121)
(0 -0 73.2124)
(0 -0 71.803)
(0 -0 70.2921)
(0 -0 68.6849)
(0 -0 66.9935)
(0 -0 65.225)
(0 -0 63.397)
(0 -0 61.517)
(0 -0 59.6112)
(0 -0 57.6861)
(0 -0 55.7812)
(0 -0 53.8942)
(0 -0 52.0885)
(0 -0 65.8052)
(0 -0 64.8589)
(0 -0 65.0516)
(0 -0 65.7252)
(0 -0 66.5909)
(0 -0 67.3429)
(0 -0 67.9857)
(0 -0 68.5956)
(0 -0 69.1879)
(0 -0 69.7545)
(0 -0 70.2947)
(0 -0 70.8124)
(0 -0 71.3107)
(0 -0 71.7914)
(0 -0 72.2554)
(0 -0 72.7036)
(0 -0 73.1364)
(0 -0 73.5536)
(0 -0 73.9546)
(0 -0 74.3383)
(0 -0 74.7028)
(0 -0 75.046)
(0 -0 75.3654)
(0 -0 75.6582)
(0 -0 75.9212)
(0 -0 76.1515)
(0 -0 76.3455)
(0 -0 76.4998)
(0 -0 76.6108)
(0 -0 76.6751)
(0 -0 76.689)
(0 -0 76.6496)
(0 -0 76.5535)
(0 -0 76.3986)
(0 -0 76.1822)
(0 -0 75.9034)
(0 -0 75.5605)
(0 -0 75.1537)
(0 -0 74.683)
(0 -0 74.1498)
(0 -0 73.5556)
(0 -0 72.9037)
(0 -0 72.197)
(0 -0 71.441)
(0 -0 70.6399)
(0 -0 69.804)
(0 -0 68.9337)
(0 -0 68.0534)
(0 -0 67.1471)
(0 -0 66.2703)
(0 -0 60.918)
(0 -0 60.1605)
(0 -0 60.3615)
(0 -0 60.9437)
(0 -0 61.7141)
(0 -0 62.4025)
(0 -0 62.9908)
(0 -0 63.5462)
(0 -0 64.087)
(0 -0 64.6058)
(0 -0 65.1008)
(0 -0 65.5752)
(0 -0 66.0319)
(0 -0 66.4723)
(0 -0 66.8976)
(0 -0 67.3085)
(0 -0 67.7057)
(0 -0 68.0899)
(0 -0 68.4613)
(0 -0 68.8199)
(0 -0 69.1657)
(0 -0 69.4983)
(0 -0 69.8172)
(0 -0 70.1219)
(0 -0 70.4119)
(0 -0 70.6864)
(0 -0 70.9443)
(0 -0 71.1847)
(0 -0 71.406)
(0 -0 71.6068)
(0 -0 71.7854)
(0 -0 71.9399)
(0 -0 72.0684)
(0 -0 72.1693)
(0 -0 72.2407)
(0 -0 72.2813)
(0 -0 72.2894)
(0 -0 72.2642)
(0 -0 72.2046)
(0 -0 72.11)
(0 -0 71.9803)
(0 -0 71.8153)
(0 -0 71.6159)
(0 -0 71.3829)
(0 -0 71.1165)
(0 -0 70.8223)
(0 -0 70.494)
(0 -0 70.1516)
(0 -0 69.7686)
(0 -0 69.398)
(0 -0 56.3219)
(0 -0 55.7146)
(0 -0 55.9232)
(0 -0 56.4254)
(0 -0 57.106)
(0 -0 57.7329)
(0 -0 58.2697)
(0 -0 58.7737)
(0 -0 59.2653)
(0 -0 59.7385)
(0 -0 60.1904)
(0 -0 60.6235)
(0 -0 61.0405)
(0 -0 61.4428)
(0 -0 61.8313)
(0 -0 62.2066)
(0 -0 62.5695)
(0 -0 62.9204)
(0 -0 63.2599)
(0 -0 63.5882)
(0 -0 63.9056)
(0 -0 64.2122)
(0 -0 64.5083)
(0 -0 64.7941)
(0 -0 65.07)
(0 -0 65.3361)
(0 -0 65.5925)
(0 -0 65.8393)
(0 -0 66.0762)
(0 -0 66.3026)
(0 -0 66.518)
(0 -0 66.7215)
(0 -0 66.9122)
(0 -0 67.0893)
(0 -0 67.2514)
(0 -0 67.3979)
(0 -0 67.5275)
(0 -0 67.6394)
(0 -0 67.7327)
(0 -0 67.8064)
(0 -0 67.8599)
(0 -0 67.8924)
(0 -0 67.9033)
(0 -0 67.8926)
(0 -0 67.8582)
(0 -0 67.8045)
(0 -0 67.7213)
(0 -0 67.6276)
(0 -0 67.4913)
(0 -0 67.365)
(0 -0 52.0117)
(0 -0 51.5233)
(0 -0 51.7371)
(0 -0 52.1697)
(0 -0 52.767)
(0 -0 53.3347)
(0 -0 53.8229)
(0 -0 54.2788)
(0 -0 54.7239)
(0 -0 55.1536)
(0 -0 55.5646)
(0 -0 55.9585)
(0 -0 56.3379)
(0 -0 56.704)
(0 -0 57.0575)
(0 -0 57.399)
(0 -0 57.7292)
(0 -0 58.0485)
(0 -0 58.3572)
(0 -0 58.6557)
(0 -0 58.9443)
(0 -0 59.2231)
(0 -0 59.4927)
(0 -0 59.7535)
(0 -0 60.0059)
(0 -0 60.2506)
(0 -0 60.4881)
(0 -0 60.7187)
(0 -0 60.9426)
(0 -0 61.1597)
(0 -0 61.3699)
(0 -0 61.5728)
(0 -0 61.7679)
(0 -0 61.9549)
(0 -0 62.133)
(0 -0 62.3017)
(0 -0 62.4603)
(0 -0 62.6082)
(0 -0 62.7446)
(0 -0 62.8689)
(0 -0 62.9804)
(0 -0 63.0783)
(0 -0 63.1614)
(0 -0 63.2302)
(0 -0 63.2809)
(0 -0 63.3187)
(0 -0 63.331)
(0 -0 63.3372)
(0 -0 63.3027)
(0 -0 63.2801)
(0 -0 47.9809)
(0 -0 47.5862)
(0 -0 47.8023)
(0 -0 48.1746)
(0 -0 48.6953)
(0 -0 49.2064)
(0 -0 49.649)
(0 -0 50.0599)
(0 -0 50.4613)
(0 -0 50.8501)
(0 -0 51.2224)
(0 -0 51.5794)
(0 -0 51.9232)
(0 -0 52.255)
(0 -0 52.5755)
(0 -0 52.8851)
(0 -0 53.1843)
(0 -0 53.4736)
(0 -0 53.7531)
(0 -0 54.0233)
(0 -0 54.2843)
(0 -0 54.5364)
(0 -0 54.78)
(0 -0 55.0156)
(0 -0 55.2439)
(0 -0 55.4654)
(0 -0 55.6808)
(0 -0 55.8905)
(0 -0 56.0949)
(0 -0 56.2939)
(0 -0 56.4876)
(0 -0 56.6758)
(0 -0 56.8582)
(0 -0 57.0345)
(0 -0 57.2043)
(0 -0 57.3673)
(0 -0 57.5228)
(0 -0 57.6706)
(0 -0 57.81)
(0 -0 57.9406)
(0 -0 58.0616)
(0 -0 58.1725)
(0 -0 58.2721)
(0 -0 58.3611)
(0 -0 58.4351)
(0 -0 58.4998)
(0 -0 58.5419)
(0 -0 58.581)
(0 -0 58.5822)
(0 -0 58.5974)
(0 -0 44.222)
(0 -0 43.901)
(0 -0 44.1159)
(0 -0 44.436)
(0 -0 44.8872)
(0 -0 45.3445)
(0 -0 45.7444)
(0 -0 46.1137)
(0 -0 46.4743)
(0 -0 46.8247)
(0 -0 47.1608)
(0 -0 47.4831)
(0 -0 47.7935)
(0 -0 48.0932)
(0 -0 48.3826)
(0 -0 48.6621)
(0 -0 48.9322)
(0 -0 49.1931)
(0 -0 49.4452)
(0 -0 49.6887)
(0 -0 49.9237)
(0 -0 50.1504)
(0 -0 50.3694)
(0 -0 50.5811)
(0 -0 50.7862)
(0 -0 50.9853)
(0 -0 51.1791)
(0 -0 51.3679)
(0 -0 51.5523)
(0 -0 51.7321)
(0 -0 51.9075)
(0 -0 52.0782)
(0 -0 52.2441)
(0 -0 52.4049)
(0 -0 52.5603)
(0 -0 52.7099)
(0 -0 52.8533)
(0 -0 52.9903)
(0 -0 53.1203)
(0 -0 53.2428)
(0 -0 53.3574)
(0 -0 53.4637)
(0 -0 53.5602)
(0 -0 53.6482)
(0 -0 53.7228)
(0 -0 53.7903)
(0 -0 53.8372)
(0 -0 53.883)
(0 -0 53.8933)
(0 -0 53.9193)
(0 -0 40.7264)
(0 -0 40.4634)
(0 -0 40.6734)
(0 -0 40.9485)
(0 -0 41.3371)
(0 -0 41.7438)
(0 -0 42.1039)
(0 -0 42.4349)
(0 -0 42.7576)
(0 -0 43.0723)
(0 -0 43.3746)
(0 -0 43.6646)
(0 -0 43.9439)
(0 -0 44.2134)
(0 -0 44.4738)
(0 -0 44.7252)
(0 -0 44.9679)
(0 -0 45.2024)
(0 -0 45.4287)
(0 -0 45.6471)
(0 -0 45.8577)
(0 -0 46.0607)
(0 -0 46.2565)
(0 -0 46.4458)
(0 -0 46.629)
(0 -0 46.807)
(0 -0 46.9804)
(0 -0 47.1496)
(0 -0 47.3149)
(0 -0 47.4763)
(0 -0 47.634)
(0 -0 47.7877)
(0 -0 47.9371)
(0 -0 48.0821)
(0 -0 48.2223)
(0 -0 48.3574)
(0 -0 48.4871)
(0 -0 48.611)
(0 -0 48.7287)
(0 -0 48.8399)
(0 -0 48.9439)
(0 -0 49.0407)
(0 -0 49.1286)
(0 -0 49.2092)
(0 -0 49.2776)
(0 -0 49.3401)
(0 -0 49.3837)
(0 -0 49.4273)
(0 -0 49.4377)
(0 -0 49.4649)
(0 -0 37.4842)
(0 -0 37.2672)
(0 -0 37.4685)
(0 -0 37.7049)
(0 -0 38.0378)
(0 -0 38.3972)
(0 -0 38.7204)
(0 -0 39.0164)
(0 -0 39.3043)
(0 -0 39.5857)
(0 -0 39.8568)
(0 -0 40.1169)
(0 -0 40.3673)
(0 -0 40.6089)
(0 -0 40.8423)
(0 -0 41.0675)
(0 -0 41.2849)
(0 -0 41.4947)
(0 -0 41.697)
(0 -0 41.892)
(0 -0 42.0798)
(0 -0 42.2606)
(0 -0 42.4348)
(0 -0 42.6031)
(0 -0 42.766)
(0 -0 42.9243)
(0 -0 43.0787)
(0 -0 43.2295)
(0 -0 43.377)
(0 -0 43.5214)
(0 -0 43.6625)
(0 -0 43.8001)
(0 -0 43.9341)
(0 -0 44.0642)
(0 -0 44.1899)
(0 -0 44.3112)
(0 -0 44.4275)
(0 -0 44.5386)
(0 -0 44.6441)
(0 -0 44.7437)
(0 -0 44.8368)
(0 -0 44.9234)
(0 -0 45.0019)
(0 -0 45.0738)
(0 -0 45.1346)
(0 -0 45.1903)
(0 -0 45.2286)
(0 -0 45.2676)
(0 -0 45.2756)
(0 -0 45.3009)
(0 -0 34.485)
(0 -0 34.305)
(0 -0 34.4937)
(0 -0 34.6967)
(0 -0 34.9806)
(0 -0 35.2963)
(0 -0 35.5853)
(0 -0 35.8494)
(0 -0 36.1055)
(0 -0 36.3565)
(0 -0 36.5988)
(0 -0 36.8313)
(0 -0 37.0551)
(0 -0 37.271)
(0 -0 37.4794)
(0 -0 37.6805)
(0 -0 37.8744)
(0 -0 38.0613)
(0 -0 38.2414)
(0 -0 38.4147)
(0 -0 38.5814)
(0 -0 38.7416)
(0 -0 38.8958)
(0 -0 39.0446)
(0 -0 39.1887)
(0 -0 39.3288)
(0 -0 39.4655)
(0 -0 39.5993)
(0 -0 39.7304)
(0 -0 39.8589)
(0 -0 39.9847)
(0 -0 40.1076)
(0 -0 40.2273)
(0 -0 40.3435)
(0 -0 40.4559)
(0 -0 40.5643)
(0 -0 40.6682)
(0 -0 40.7674)
(0 -0 40.8614)
(0 -0 40.9502)
(0 -0 41.033)
(0 -0 41.1099)
(0 -0 41.1793)
(0 -0 41.2429)
(0 -0 41.2963)
(0 -0 41.3452)
(0 -0 41.3781)
(0 -0 41.4121)
(0 -0 41.4175)
(0 -0 41.4401)
(0 -0 31.7172)
(0 -0 31.5672)
(0 -0 31.7403)
(0 -0 31.9148)
(0 -0 32.156)
(0 -0 32.4316)
(0 -0 32.6891)
(0 -0 32.9243)
(0 -0 33.1515)
(0 -0 33.3746)
(0 -0 33.5905)
(0 -0 33.7979)
(0 -0 33.9973)
(0 -0 34.1896)
(0 -0 34.3751)
(0 -0 34.554)
(0 -0 34.7263)
(0 -0 34.8923)
(0 -0 35.0519)
(0 -0 35.2053)
(0 -0 35.3524)
(0 -0 35.4937)
(0 -0 35.6294)
(0 -0 35.7602)
(0 -0 35.8869)
(0 -0 36.0102)
(0 -0 36.1306)
(0 -0 36.2488)
(0 -0 36.3648)
(0 -0 36.4788)
(0 -0 36.5906)
(0 -0 36.6999)
(0 -0 36.8065)
(0 -0 36.9101)
(0 -0 37.0103)
(0 -0 37.1068)
(0 -0 37.1993)
(0 -0 37.2876)
(0 -0 37.3712)
(0 -0 37.45)
(0 -0 37.5233)
(0 -0 37.5913)
(0 -0 37.6524)
(0 -0 37.7083)
(0 -0 37.7548)
(0 -0 37.7974)
(0 -0 37.8253)
(0 -0 37.8548)
(0 -0 37.8577)
(0 -0 37.8776)
(0 -0 29.1687)
(0 -0 29.0431)
(0 -0 29.1988)
(0 -0 29.3493)
(0 -0 29.5535)
(0 -0 29.7927)
(0 -0 30.0212)
(0 -0 30.2303)
(0 -0 30.4315)
(0 -0 30.6292)
(0 -0 30.8211)
(0 -0 31.0055)
(0 -0 31.1827)
(0 -0 31.3535)
(0 -0 31.5182)
(0 -0 31.6768)
(0 -0 31.8294)
(0 -0 31.9761)
(0 -0 32.117)
(0 -0 32.252)
(0 -0 32.3813)
(0 -0 32.5051)
(0 -0 32.6239)
(0 -0 32.7382)
(0 -0 32.849)
(0 -0 32.9568)
(0 -0 33.0625)
(0 -0 33.1663)
(0 -0 33.2686)
(0 -0 33.3693)
(0 -0 33.4683)
(0 -0 33.5653)
(0 -0 33.6599)
(0 -0 33.752)
(0 -0 33.8411)
(0 -0 33.9269)
(0 -0 34.009)
(0 -0 34.0874)
(0 -0 34.1615)
(0 -0 34.2312)
(0 -0 34.2959)
(0 -0 34.3558)
(0 -0 34.4094)
(0 -0 34.4583)
(0 -0 34.4986)
(0 -0 34.5354)
(0 -0 34.559)
(0 -0 34.5842)
(0 -0 34.585)
(0 -0 34.6024)
(0 -0 26.8272)
(0 -0 26.7213)
(0 -0 26.8587)
(0 -0 26.9889)
(0 -0 27.1613)
(0 -0 27.3678)
(0 -0 27.5698)
(0 -0 27.7554)
(0 -0 27.9333)
(0 -0 28.1082)
(0 -0 28.2783)
(0 -0 28.4419)
(0 -0 28.5991)
(0 -0 28.7504)
(0 -0 28.8961)
(0 -0 29.0363)
(0 -0 29.1709)
(0 -0 29.3002)
(0 -0 29.424)
(0 -0 29.5423)
(0 -0 29.6554)
(0 -0 29.7633)
(0 -0 29.8665)
(0 -0 29.9658)
(0 -0 30.062)
(0 -0 30.1558)
(0 -0 30.248)
(0 -0 30.3388)
(0 -0 30.4286)
(0 -0 30.5173)
(0 -0 30.6047)
(0 -0 30.6905)
(0 -0 30.7744)
(0 -0 30.8561)
(0 -0 30.9351)
(0 -0 31.0112)
(0 -0 31.0841)
(0 -0 31.1534)
(0 -0 31.219)
(0 -0 31.2805)
(0 -0 31.3374)
(0 -0 31.39)
(0 -0 31.4369)
(0 -0 31.4794)
(0 -0 31.5142)
(0 -0 31.5459)
(0 -0 31.5655)
(0 -0 31.5869)
(0 -0 31.586)
(0 -0 31.601)
(0 -0 24.6798)
(0 -0 24.5898)
(0 -0 24.7088)
(0 -0 24.8215)
(0 -0 24.9669)
(0 -0 25.1443)
(0 -0 25.3223)
(0 -0 25.487)
(0 -0 25.6442)
(0 -0 25.7986)
(0 -0 25.9491)
(0 -0 26.0941)
(0 -0 26.2332)
(0 -0 26.3669)
(0 -0 26.4955)
(0 -0 26.6191)
(0 -0 26.7375)
(0 -0 26.851)
(0 -0 26.9593)
(0 -0 27.0625)
(0 -0 27.1608)
(0 -0 27.2542)
(0 -0 27.3434)
(0 -0 27.4291)
(0 -0 27.5121)
(0 -0 27.5932)
(0 -0 27.6731)
(0 -0 27.7522)
(0 -0 27.8307)
(0 -0 27.9086)
(0 -0 27.9856)
(0 -0 28.0614)
(0 -0 28.1356)
(0 -0 28.2079)
(0 -0 28.2779)
(0 -0 28.3453)
(0 -0 28.4098)
(0 -0 28.4712)
(0 -0 28.529)
(0 -0 28.5832)
(0 -0 28.6333)
(0 -0 28.6793)
(0 -0 28.7202)
(0 -0 28.757)
(0 -0 28.7869)
(0 -0 28.814)
(0 -0 28.8302)
(0 -0 28.848)
(0 -0 28.8457)
(0 -0 28.8585)
(0 -0 22.7134)
(0 -0 22.6361)
(0 -0 22.7375)
(0 -0 22.835)
(0 -0 22.9574)
(0 -0 23.1094)
(0 -0 23.2657)
(0 -0 23.4117)
(0 -0 23.5506)
(0 -0 23.6868)
(0 -0 23.8198)
(0 -0 23.9481)
(0 -0 24.071)
(0 -0 24.1891)
(0 -0 24.3024)
(0 -0 24.411)
(0 -0 24.515)
(0 -0 24.6142)
(0 -0 24.7086)
(0 -0 24.7982)
(0 -0 24.8831)
(0 -0 24.9635)
(0 -0 25.04)
(0 -0 25.1134)
(0 -0 25.1845)
(0 -0 25.2541)
(0 -0 25.323)
(0 -0 25.3916)
(0 -0 25.46)
(0 -0 25.5282)
(0 -0 25.5959)
(0 -0 25.6627)
(0 -0 25.7283)
(0 -0 25.7923)
(0 -0 25.8543)
(0 -0 25.914)
(0 -0 25.9711)
(0 -0 26.0253)
(0 -0 26.0763)
(0 -0 26.124)
(0 -0 26.1678)
(0 -0 26.2081)
(0 -0 26.2436)
(0 -0 26.2754)
(0 -0 26.301)
(0 -0 26.3239)
(0 -0 26.3371)
(0 -0 26.3519)
(0 -0 26.3484)
(0 -0 26.3591)
(0 -0 20.9152)
(0 -0 20.8479)
(0 -0 20.9328)
(0 -0 21.017)
(0 -0 21.1199)
(0 -0 21.2497)
(0 -0 21.3866)
(0 -0 21.516)
(0 -0 21.6388)
(0 -0 21.759)
(0 -0 21.8765)
(0 -0 21.9899)
(0 -0 22.0986)
(0 -0 22.2026)
(0 -0 22.3023)
(0 -0 22.3977)
(0 -0 22.4886)
(0 -0 22.5751)
(0 -0 22.6571)
(0 -0 22.7345)
(0 -0 22.8074)
(0 -0 22.8762)
(0 -0 22.9412)
(0 -0 23.0035)
(0 -0 23.0639)
(0 -0 23.1233)
(0 -0 23.1824)
(0 -0 23.2416)
(0 -0 23.301)
(0 -0 23.3606)
(0 -0 23.42)
(0 -0 23.4789)
(0 -0 23.5369)
(0 -0 23.5935)
(0 -0 23.6484)
(0 -0 23.7013)
(0 -0 23.7517)
(0 -0 23.7996)
(0 -0 23.8446)
(0 -0 23.8865)
(0 -0 23.925)
(0 -0 23.9601)
(0 -0 23.9909)
(0 -0 24.0183)
(0 -0 24.04)
(0 -0 24.0593)
(0 -0 24.0699)
(0 -0 24.0819)
(0 -0 24.0776)
(0 -0 24.0863)
(0 -0 19.2722)
(0 -0 19.2129)
(0 -0 19.2826)
(0 -0 19.3549)
(0 -0 19.4416)
(0 -0 19.5521)
(0 -0 19.6718)
(0 -0 19.7865)
(0 -0 19.8953)
(0 -0 20.0014)
(0 -0 20.1052)
(0 -0 20.2055)
(0 -0 20.3015)
(0 -0 20.3932)
(0 -0 20.4809)
(0 -0 20.5644)
(0 -0 20.6438)
(0 -0 20.719)
(0 -0 20.7899)
(0 -0 20.8564)
(0 -0 20.9187)
(0 -0 20.9769)
(0 -0 21.0318)
(0 -0 21.0842)
(0 -0 21.1351)
(0 -0 21.1853)
(0 -0 21.2356)
(0 -0 21.2864)
(0 -0 21.3379)
(0 -0 21.3899)
(0 -0 21.442)
(0 -0 21.494)
(0 -0 21.5452)
(0 -0 21.5954)
(0 -0 21.6441)
(0 -0 21.691)
(0 -0 21.7357)
(0 -0 21.778)
(0 -0 21.8177)
(0 -0 21.8546)
(0 -0 21.8883)
(0 -0 21.9189)
(0 -0 21.9456)
(0 -0 21.9691)
(0 -0 21.9875)
(0 -0 22.0036)
(0 -0 22.0119)
(0 -0 22.0215)
(0 -0 22.0164)
(0 -0 22.0234)
(0 -0 17.7719)
(0 -0 17.7188)
(0 -0 17.7749)
(0 -0 17.8367)
(0 -0 17.9096)
(0 -0 18.0037)
(0 -0 18.1081)
(0 -0 18.2099)
(0 -0 18.3065)
(0 -0 18.4004)
(0 -0 18.4922)
(0 -0 18.581)
(0 -0 18.6658)
(0 -0 18.7467)
(0 -0 18.8237)
(0 -0 18.8969)
(0 -0 18.9661)
(0 -0 19.0313)
(0 -0 19.0923)
(0 -0 19.1492)
(0 -0 19.2019)
(0 -0 19.2508)
(0 -0 19.2966)
(0 -0 19.3402)
(0 -0 19.3826)
(0 -0 19.4247)
(0 -0 19.4672)
(0 -0 19.5107)
(0 -0 19.5552)
(0 -0 19.6005)
(0 -0 19.6463)
(0 -0 19.6921)
(0 -0 19.7375)
(0 -0 19.7821)
(0 -0 19.8253)
(0 -0 19.867)
(0 -0 19.9067)
(0 -0 19.9442)
(0 -0 19.9793)
(0 -0 20.0118)
(0 -0 20.0414)
(0 -0 20.068)
(0 -0 20.0911)
(0 -0 20.1112)
(0 -0 20.1267)
(0 -0 20.1401)
(0 -0 20.1465)
(0 -0 20.1539)
(0 -0 20.1483)
(0 -0 20.1536)
(0 -0 16.4022)
(0 -0 16.3538)
(0 -0 16.398)
(0 -0 16.4502)
(0 -0 16.5116)
(0 -0 16.5918)
(0 -0 16.6829)
(0 -0 16.7733)
(0 -0 16.8593)
(0 -0 16.9426)
(0 -0 17.024)
(0 -0 17.1027)
(0 -0 17.1778)
(0 -0 17.2492)
(0 -0 17.3169)
(0 -0 17.3809)
(0 -0 17.4412)
(0 -0 17.4975)
(0 -0 17.5499)
(0 -0 17.5982)
(0 -0 17.6425)
(0 -0 17.6832)
(0 -0 17.7209)
(0 -0 17.7566)
(0 -0 17.7915)
(0 -0 17.8264)
(0 -0 17.8621)
(0 -0 17.8991)
(0 -0 17.9375)
(0 -0 17.9769)
(0 -0 18.0172)
(0 -0 18.0577)
(0 -0 18.0981)
(0 -0 18.1378)
(0 -0 18.1763)
(0 -0 18.2135)
(0 -0 18.2489)
(0 -0 18.2823)
(0 -0 18.3134)
(0 -0 18.3421)
(0 -0 18.3681)
(0 -0 18.3913)
(0 -0 18.4113)
(0 -0 18.4285)
(0 -0 18.4415)
(0 -0 18.4524)
(0 -0 18.4571)
(0 -0 18.4626)
(0 -0 18.4566)
(0 -0 18.4604)
(0 -0 15.1515)
(0 -0 15.1067)
(0 -0 15.1405)
(0 -0 15.1841)
(0 -0 15.2359)
(0 -0 15.3042)
(0 -0 15.3838)
(0 -0 15.4642)
(0 -0 15.5412)
(0 -0 15.6154)
(0 -0 15.6877)
(0 -0 15.7577)
(0 -0 15.8243)
(0 -0 15.8875)
(0 -0 15.9471)
(0 -0 16.0031)
(0 -0 16.0555)
(0 -0 16.1041)
(0 -0 16.1489)
(0 -0 16.1896)
(0 -0 16.2265)
(0 -0 16.2598)