/*--------------------------------*- C++ -*----------------------------------*\
  =========                 |
  \\      /  F ield         | OpenFOAM: The Open Source CFD Toolbox
   \\    /   O peration     | Website:  https://openfoam.org
    \\  /    A nd           | Version:  7
     \\/     M anipulation  |
\*---------------------------------------------------------------------------*/
FoamFile
{
    version     2.0;
    format      ascii;
    class       volVectorField;
    location    "0.37";
    object      wallShearStress;
}
// * * * * * * * * * * * * * * * * * * * * * * * * * * * * * * * * * * * * * //

dimensions      [0 2 -2 0 0 0 0];

internalField   uniform (0 0 0);

boundaryField
{
    velocityInlet
    {
        type            calculated;
        value           uniform (0 0 0);
    }
    pressureOutlet
    {
        type            calculated;
        value           uniform (0 0 0);
    }
    fixedWalls
    {
        type            calculated;
        value           nonuniform List<vector> 
100
(
(-0.00975344 -0.00239446 0)
(-0.00364503 -0.000503073 0)
(-0.00252928 -0.00017719 0)
(-0.0015098 -0.000141947 0)
(-0.000773934 -0.000101839 0)
(-0.000285192 -6.55868e-05 0)
(9.13232e-06 -3.38508e-05 0)
(0.000128994 -8.3692e-06 0)
(8.21573e-05 1.47163e-05 0)
(-0.000109055 3.54631e-05 0)
(-0.000410658 4.96347e-05 0)
(-0.000804472 6.15774e-05 0)
(-0.00128933 7.37342e-05 0)
(-0.00177921 6.26442e-05 0)
(-0.00210399 2.93242e-05 0)
(-0.00255069 6.59321e-05 0)
(-0.00398055 0.000221165 0)
(-0.00642735 0.000336135 0)
(-0.00908666 0.000373629 0)
(-0.0112046 0.000396609 0)
(-0.010694 -8.31269e-05 0)
(-0.00462007 -0.00116599 0)
(0.00499046 -0.00144912 0)
(0.0118507 -0.00103282 0)
(0.0139723 -0.000277113 0)
(0.011784 0.000353501 0)
(0.00716338 0.000622713 0)
(0.00225958 0.000580796 0)
(-0.00159614 0.000410952 0)
(-0.00390292 0.000219508 0)
(-0.0049992 9.03085e-05 0)
(-0.00540149 2.85194e-05 0)
(-0.00559756 2.70774e-05 0)
(-0.00584374 4.95753e-05 0)
(-0.00606065 5.21681e-05 0)
(-0.00595406 1.45193e-06 0)
(-0.00533958 -7.12431e-05 0)
(-0.00436809 -0.000115983 0)
(-0.00339149 -0.000110709 0)
(-0.00267077 -7.48115e-05 0)
(-0.0022471 -3.96379e-05 0)
(-0.0020035 -2.126e-05 0)
(-0.00179911 -2.12068e-05 0)
(-0.00154293 -3.15886e-05 0)
(-0.00121266 -4.31009e-05 0)
(-0.000847165 -4.83332e-05 0)
(-0.000520167 -4.27966e-05 0)
(-0.000309101 -2.74469e-05 0)
(-0.000264151 -7.61601e-06 0)
(-0.000386515 1.22062e-05 0)
(-0.000633907 2.66056e-05 0)
(-0.000946105 3.34942e-05 0)
(-0.00126951 3.38812e-05 0)
(-0.00156973 3.06503e-05 0)
(-0.00183327 2.63933e-05 0)
(-0.00206257 2.28215e-05 0)
(-0.002268 2.08487e-05 0)
(-0.00246017 2.05318e-05 0)
(-0.00264079 2.06103e-05 0)
(-0.00279488 1.90611e-05 0)
(-0.00289072 1.44718e-05 0)
(-0.00288952 5.91445e-06 0)
(-0.00275946 -6.57036e-06 0)
(-0.00248196 -2.16929e-05 0)
(-0.00204784 -3.94971e-05 0)
(-0.001464 -5.79393e-05 0)
(-0.000789923 -6.90716e-05 0)
(-0.000165048 -6.3124e-05 0)
(0.000229095 -3.75831e-05 0)
(0.000270529 -1.4795e-06 0)
(-2.00092e-05 2.62545e-05 0)
(-0.000501236 4.27132e-05 0)
(-0.00101355 4.37599e-05 0)
(-0.00145494 3.56706e-05 0)
(-0.00178806 2.575e-05 0)
(-0.00202322 1.75875e-05 0)
(-0.00219187 1.24349e-05 0)
(-0.00232997 1.04331e-05 0)
(-0.00247268 1.16243e-05 0)
(-0.00265529 1.6444e-05 0)
(-0.0029101 2.4777e-05 0)
(-0.00323878 3.31624e-05 0)
(-0.00356726 3.40061e-05 0)
(-0.00373954 2.23974e-05 0)
(-0.00358057 -7.61052e-06 0)
(-0.00299835 -4.40893e-05 0)
(-0.00204956 -7.55675e-05 0)
(-0.000915055 -9.28811e-05 0)
(0.000190556 -9.16145e-05 0)
(0.00106281 -7.31007e-05 0)
(0.00153685 -4.02224e-05 0)
(0.00153013 -2.92255e-07 0)
(0.0010581 3.73924e-05 0)
(0.000305903 5.73411e-05 0)
(-0.000574674 6.24099e-05 0)
(-0.00131651 5.41711e-05 0)
(-0.00202852 4.63018e-05 0)
(-0.00241389 2.99601e-05 0)
(-0.00281829 2.57319e-05 0)
(-0.00312549 1.24623e-05 0)
)
;
    }
    bottomWall
    {
        type            calculated;
        value           nonuniform List<vector> 
800
(
(-0.0353512 0.00216563 0)
(-0.0160362 0.000524974 0)
(-0.01059 0.000100567 0)
(-0.00845481 3.46011e-05 0)
(-0.00749042 1.96951e-05 0)
(-0.0068544 1.60241e-05 0)
(-0.00634528 1.32239e-05 0)
(-0.00593374 1.07744e-05 0)
(-0.00559884 8.9738e-06 0)
(-0.00531982 7.67423e-06 0)
(-0.00508211 6.68971e-06 0)
(-0.00487629 5.91201e-06 0)
(-0.00469587 5.28219e-06 0)
(-0.00453613 4.76329e-06 0)
(-0.00439349 4.32967e-06 0)
(-0.00426516 3.96276e-06 0)
(-0.00414898 3.64887e-06 0)
(-0.00404319 3.37771e-06 0)
(-0.00394638 3.14147e-06 0)
(-0.0038574 2.93409e-06 0)
(-0.00377528 2.75082e-06 0)
(-0.00369923 2.58786e-06 0)
(-0.00362857 2.44217e-06 0)
(-0.00356272 2.31124e-06 0)
(-0.00350118 2.19304e-06 0)
(-0.00344353 2.08587e-06 0)
(-0.0033894 1.98831e-06 0)
(-0.00333847 1.89918e-06 0)
(-0.00329045 1.81747e-06 0)
(-0.0032451 1.74235e-06 0)
(-0.00320219 1.67307e-06 0)
(-0.00316153 1.60902e-06 0)
(-0.00312295 1.54964e-06 0)
(-0.00308628 1.49449e-06 0)
(-0.00305139 1.44313e-06 0)
(-0.00301814 1.39522e-06 0)
(-0.00298643 1.35043e-06 0)
(-0.00295615 1.30848e-06 0)
(-0.0029272 1.26911e-06 0)
(-0.0028995 1.23212e-06 0)
(-0.00287297 1.1973e-06 0)
(-0.00284754 1.16446e-06 0)
(-0.00282315 1.13349e-06 0)
(-0.00279972 1.10414e-06 0)
(-0.00277721 1.0765e-06 0)
(-0.00275556 1.05005e-06 0)
(-0.00273473 1.02543e-06 0)
(-0.00271468 1.00121e-06 0)
(-0.00269534 9.79431e-07 0)
(-0.00267671 9.56184e-07 0)
(-0.00266114 9.37111e-07 0)
(-0.00264829 9.26278e-07 0)
(-0.0026356 9.12422e-07 0)
(-0.00262311 8.97632e-07 0)
(-0.00261081 8.83767e-07 0)
(-0.0025987 8.70568e-07 0)
(-0.00258676 8.57677e-07 0)
(-0.00257501 8.45054e-07 0)
(-0.00256342 8.32724e-07 0)
(-0.002552 8.20684e-07 0)
(-0.00254075 8.08915e-07 0)
(-0.00252965 7.97406e-07 0)
(-0.00251872 7.86148e-07 0)
(-0.00250793 7.75132e-07 0)
(-0.0024973 7.64351e-07 0)
(-0.00248681 7.53797e-07 0)
(-0.00247647 7.43463e-07 0)
(-0.00246627 7.33342e-07 0)
(-0.0024562 7.23428e-07 0)
(-0.00244627 7.13716e-07 0)
(-0.00243647 7.042e-07 0)
(-0.00242681 6.94873e-07 0)
(-0.00241727 6.85731e-07 0)
(-0.00240785 6.7677e-07 0)
(-0.00239856 6.67985e-07 0)
(-0.00238938 6.59369e-07 0)
(-0.00238032 6.50921e-07 0)
(-0.00237138 6.42635e-07 0)
(-0.00236255 6.34507e-07 0)
(-0.00235383 6.26532e-07 0)
(-0.00234522 6.18708e-07 0)
(-0.00233672 6.1103e-07 0)
(-0.00232832 6.03495e-07 0)
(-0.00232003 5.96098e-07 0)
(-0.00231183 5.88838e-07 0)
(-0.00230374 5.81711e-07 0)
(-0.00229574 5.74713e-07 0)
(-0.00228783 5.67841e-07 0)
(-0.00228002 5.61093e-07 0)
(-0.00227231 5.54467e-07 0)
(-0.00226468 5.47959e-07 0)
(-0.00225714 5.41565e-07 0)
(-0.00224969 5.35285e-07 0)
(-0.00224233 5.29115e-07 0)
(-0.00223504 5.23055e-07 0)
(-0.00222785 5.17098e-07 0)
(-0.00222073 5.11246e-07 0)
(-0.00221369 5.05495e-07 0)
(-0.00220673 4.99843e-07 0)
(-0.00219985 4.94287e-07 0)
(-0.00219305 4.88827e-07 0)
(-0.00218632 4.8346e-07 0)
(-0.00217966 4.78184e-07 0)
(-0.00217307 4.72996e-07 0)
(-0.00216656 4.67895e-07 0)
(-0.00216012 4.62879e-07 0)
(-0.00215374 4.57947e-07 0)
(-0.00214743 4.53094e-07 0)
(-0.00214119 4.48321e-07 0)
(-0.00213501 4.43626e-07 0)
(-0.0021289 4.39007e-07 0)
(-0.00212285 4.34461e-07 0)
(-0.00211687 4.29989e-07 0)
(-0.00211094 4.25588e-07 0)
(-0.00210508 4.21258e-07 0)
(-0.00209927 4.16996e-07 0)
(-0.00209352 4.12801e-07 0)
(-0.00208783 4.08673e-07 0)
(-0.0020822 4.04611e-07 0)
(-0.00207662 4.00612e-07 0)
(-0.0020711 3.96677e-07 0)
(-0.00206563 3.92804e-07 0)
(-0.00206022 3.88992e-07 0)
(-0.00205485 3.8524e-07 0)
(-0.00204954 3.81547e-07 0)
(-0.00204428 3.77913e-07 0)
(-0.00203907 3.74337e-07 0)
(-0.00203391 3.70818e-07 0)
(-0.00202879 3.67354e-07 0)
(-0.00202373 3.63944e-07 0)
(-0.00201871 3.60588e-07 0)
(-0.00201373 3.57284e-07 0)
(-0.00200881 3.54034e-07 0)
(-0.00200392 3.50832e-07 0)
(-0.00199908 3.47682e-07 0)
(-0.00199429 3.4458e-07 0)
(-0.00198953 3.4153e-07 0)
(-0.00198482 3.38525e-07 0)
(-0.00198015 3.35573e-07 0)
(-0.00197552 3.32661e-07 0)
(-0.00197093 3.29807e-07 0)
(-0.00196638 3.26981e-07 0)
(-0.00196187 3.24227e-07 0)
(-0.0019574 3.21476e-07 0)
(-0.00195296 3.18829e-07 0)
(-0.00194856 3.16135e-07 0)
(-0.0019442 3.13609e-07 0)
(-0.00193987 3.10939e-07 0)
(-0.00193558 3.08523e-07 0)
(-0.00193133 3.05791e-07 0)
(-0.00192775 3.03367e-07 0)
(-0.00192484 3.02129e-07 0)
(-0.00192191 3.00623e-07 0)
(-0.00191898 2.9888e-07 0)
(-0.00191605 2.97159e-07 0)
(-0.00191311 2.95486e-07 0)
(-0.00191017 2.93845e-07 0)
(-0.00190723 2.92208e-07 0)
(-0.00190428 2.90577e-07 0)
(-0.00190133 2.88956e-07 0)
(-0.00189837 2.87343e-07 0)
(-0.00189541 2.85739e-07 0)
(-0.00189245 2.84147e-07 0)
(-0.00188948 2.82556e-07 0)
(-0.0018865 2.80979e-07 0)
(-0.00188353 2.79407e-07 0)
(-0.00188055 2.77844e-07 0)
(-0.00187756 2.76287e-07 0)
(-0.00187457 2.74739e-07 0)
(-0.00187158 2.732e-07 0)
(-0.00186859 2.71667e-07 0)
(-0.00186559 2.70143e-07 0)
(-0.00186258 2.6863e-07 0)
(-0.00185958 2.67119e-07 0)
(-0.00185656 2.65621e-07 0)
(-0.00185355 2.64128e-07 0)
(-0.00185053 2.62643e-07 0)
(-0.00184751 2.61165e-07 0)
(-0.00184448 2.59695e-07 0)
(-0.00184145 2.58232e-07 0)
(-0.00183841 2.56779e-07 0)
(-0.00183538 2.55331e-07 0)
(-0.00183233 2.53891e-07 0)
(-0.00182929 2.52458e-07 0)
(-0.00182624 2.51033e-07 0)
(-0.00182318 2.49616e-07 0)
(-0.00182013 2.48207e-07 0)
(-0.00181707 2.46805e-07 0)
(-0.001814 2.45411e-07 0)
(-0.00181093 2.44024e-07 0)
(-0.00180786 2.42646e-07 0)
(-0.00180478 2.41275e-07 0)
(-0.0018017 2.39912e-07 0)
(-0.00179862 2.38558e-07 0)
(-0.00179553 2.37213e-07 0)
(-0.00179244 2.35875e-07 0)
(-0.00178935 2.34548e-07 0)
(-0.00178625 2.33229e-07 0)
(-0.00178314 2.31918e-07 0)
(-0.00178004 2.30618e-07 0)
(-0.00177693 2.29324e-07 0)
(-0.00177381 2.28042e-07 0)
(-0.00177069 2.26771e-07 0)
(-0.00176757 2.25508e-07 0)
(-0.00176444 2.24258e-07 0)
(-0.00176131 2.23017e-07 0)
(-0.00175817 2.21786e-07 0)
(-0.00175503 2.20566e-07 0)
(-0.00175189 2.19356e-07 0)
(-0.00174874 2.18158e-07 0)
(-0.00174559 2.16974e-07 0)
(-0.00174243 2.15798e-07 0)
(-0.00173927 2.14639e-07 0)
(-0.0017361 2.13491e-07 0)
(-0.00173293 2.12358e-07 0)
(-0.00172975 2.11237e-07 0)
(-0.00172657 2.10127e-07 0)
(-0.00172338 2.09033e-07 0)
(-0.00172019 2.07957e-07 0)
(-0.00171699 2.06892e-07 0)
(-0.00171378 2.05844e-07 0)
(-0.00171057 2.0481e-07 0)
(-0.00170736 2.03796e-07 0)
(-0.00170414 2.02802e-07 0)
(-0.00170091 2.01811e-07 0)
(-0.00169767 2.00862e-07 0)
(-0.00169443 1.99883e-07 0)
(-0.00169118 1.98998e-07 0)
(-0.00168793 1.98014e-07 0)
(-0.00168466 1.97246e-07 0)
(-0.0016814 1.96175e-07 0)
(-0.00167811 1.95653e-07 0)
(-0.00167483 1.94309e-07 0)
(-0.00167152 1.94337e-07 0)
(-0.00166824 1.92256e-07 0)
(-0.00166489 1.9355e-07 0)
(-0.00166162 1.89669e-07 0)
(-0.0016582 1.93905e-07 0)
(-0.00165499 1.85733e-07 0)
(-0.00165144 1.96667e-07 0)
(-0.00164835 1.78675e-07 0)
(-0.00164455 2.0446e-07 0)
(-0.00164175 1.64912e-07 0)
(-0.00163748 2.22378e-07 0)
(-0.00163527 1.37745e-07 0)
(-0.00163013 2.58944e-07 0)
(-0.00162895 8.64103e-08 0)
(-0.00162248 3.23624e-07 0)
(-0.00162279 5.3564e-09 0)
(-0.00161458 3.5606e-07 0)
(-0.0353513 -0.00216561 0)
(-0.0160369 -0.000524941 0)
(-0.0105917 -0.000100526 0)
(-0.00845775 -3.45617e-05 0)
(-0.00749462 -1.96543e-05 0)
(-0.00685992 -1.59815e-05 0)
(-0.00635215 -1.31799e-05 0)
(-0.00594201 -1.07284e-05 0)
(-0.00560855 -8.92511e-06 0)
(-0.00533106 -7.62223e-06 0)
(-0.00509498 -6.63369e-06 0)
(-0.0048909 -5.85131e-06 0)
(-0.00471236 -5.21621e-06 0)
(-0.00455463 -4.6916e-06 0)
(-0.00441414 -4.25189e-06 0)
(-0.00428812 -3.87855e-06 0)
(-0.00417439 -3.55785e-06 0)
(-0.00407121 -3.27943e-06 0)
(-0.00397718 -3.03536e-06 0)
(-0.00389115 -2.81944e-06 0)
(-0.00381218 -2.62683e-06 0)
(-0.00373948 -2.45358e-06 0)
(-0.00367239 -2.29653e-06 0)
(-0.00361035 -2.15304e-06 0)
(-0.0035529 -2.02096e-06 0)
(-0.00349962 -1.89838e-06 0)
(-0.00345019 -1.78371e-06 0)
(-0.00340431 -1.67555e-06 0)
(-0.00336173 -1.57255e-06 0)
(-0.00332224 -1.47371e-06 0)
(-0.00328569 -1.37761e-06 0)
(-0.00325191 -1.28374e-06 0)
(-0.0032208 -1.19018e-06 0)
(-0.00319226 -1.09728e-06 0)
(-0.00316625 -1.00179e-06 0)
(-0.00314272 -9.0573e-07 0)
(-0.00312164 -8.03395e-07 0)
(-0.0031031 -6.99118e-07 0)
(-0.00308695 -5.84921e-07 0)
(-0.00307373 -4.64047e-07 0)
(-0.00306253 -3.35447e-07 0)
(-0.00305557 -1.79006e-07 0)
(-0.00304903 -4.4212e-08 0)
(-0.0030506 1.93022e-07 0)
(-0.00304712 2.61717e-07 0)
(-0.00306277 7.35891e-07 0)
(-0.00305651 4.24472e-07 0)
(-0.0030984 1.9413e-06 0)
(-0.00308216 -6.23484e-06 0)
(-0.00293715 0.000214694 0)
(-1.37886e-05 8.57632e-06 0)
(-5.72667e-06 2.38061e-05 0)
(1.89712e-06 1.76473e-05 0)
(4.14904e-06 4.56514e-06 0)
(5.44256e-06 -5.1234e-06 0)
(1.12721e-05 -1.36114e-05 0)
(2.07782e-05 -2.815e-05 0)
(2.86566e-05 -4.85925e-05 0)
(2.66361e-05 -6.3913e-05 0)
(8.23789e-08 -4.80982e-05 0)
(-5.2957e-05 2.48659e-05 0)
(-8.95809e-05 0.000139764 0)
(-9.28794e-05 0.000248025 0)
(-8.42796e-05 0.000336636 0)
(-7.10175e-05 0.000406452 0)
(-5.24923e-05 0.000453543 0)
(-2.99216e-05 0.000474078 0)
(-1.49557e-06 0.000462007 0)
(2.96219e-05 0.000415744 0)
(6.16824e-05 0.000336273 0)
(9.36744e-05 0.00022494 0)
(0.000119921 7.94562e-05 0)
(0.00013938 -8.84194e-05 0)
(0.000155381 -0.000272299 0)
(0.000165869 -0.000465625 0)
(0.000171652 -0.000663897 0)
(0.000172773 -0.000862813 0)
(0.000169567 -0.00105841 0)
(0.000162573 -0.0012468 0)
(0.000152541 -0.00142493 0)
(0.000140184 -0.00159065 0)
(0.000126126 -0.00174248 0)
(0.000110937 -0.00187947 0)
(9.51357e-05 -0.00200118 0)
(7.91737e-05 -0.00210761 0)
(6.34225e-05 -0.00219913 0)
(4.81737e-05 -0.00227637 0)
(3.36408e-05 -0.00234018 0)
(1.98797e-05 -0.0023916 0)
(6.68552e-06 -0.00243159 0)
(-5.92852e-06 -0.0024609 0)
(-1.83317e-05 -0.00248071 0)
(-3.14728e-05 -0.00249105 0)
(-4.56568e-05 -0.00249227 0)
(-6.17988e-05 -0.00248422 0)
(-8.2364e-05 -0.0024654 0)
(-0.000107054 -0.00243357 0)
(-0.000136372 -0.00238817 0)
(-0.000174763 -0.00232516 0)
(-0.000220033 -0.0022387 0)
(-0.000269043 -0.00212875 0)
(-0.000328182 -0.00198738 0)
(-0.000380735 -0.00180409 0)
(-0.000404851 -0.0015994 0)
(-0.000436402 -0.00138352 0)
(-0.000486589 -0.00111716 0)
(-0.000466863 -0.000794555 0)
(-0.000324342 -0.000489221 0)
(-0.000116346 -0.000268394 0)
(7.6521e-05 -0.000134979 0)
(0.000208691 -6.7599e-05 0)
(0.00027373 -4.35155e-05 0)
(0.000282016 -4.26635e-05 0)
(0.000245846 -5.09038e-05 0)
(0.000181179 -5.63306e-05 0)
(0.000106486 -4.99875e-05 0)
(4.1284e-05 -3.16954e-05 0)
(-1.26047e-06 -1.16664e-05 0)
(-1.938e-05 -5.09585e-06 0)
(-1.86677e-05 -1.91255e-05 0)
(-6.44487e-06 -4.90799e-05 0)
(1.59582e-05 -8.93166e-05 0)
(4.95283e-05 -0.000139566 0)
(9.16378e-05 -0.000205353 0)
(0.000131726 -0.000289824 0)
(0.000159731 -0.000386784 0)
(0.000174122 -0.000486538 0)
(0.000177708 -0.00058263 0)
(0.000173518 -0.000671767 0)
(0.000163364 -0.000752263 0)
(0.000148406 -0.000823056 0)
(0.000129789 -0.000883369 0)
(0.000109098 -0.000932665 0)
(8.83348e-05 -0.000971019 0)
(6.94234e-05 -0.00099934 0)
(5.38269e-05 -0.00101913 0)
(4.23497e-05 -0.00103224 0)
(3.47324e-05 -0.0010405 0)
(2.98157e-05 -0.0010451 0)
(2.63049e-05 -0.00104659 0)
(2.31121e-05 -0.0010456 0)
(1.9158e-05 -0.00104306 0)
(1.39996e-05 -0.00103983 0)
(8.34772e-06 -0.00103707 0)
(2.86083e-06 -0.00103628 0)
(-2.49634e-06 -0.00103793 0)
(-8.5082e-06 -0.00104177 0)
(-1.69175e-05 -0.00104596 0)
(-2.89882e-05 -0.00104716 0)
(-4.48368e-05 -0.00104197 0)
(-6.34636e-05 -0.00102771 0)
(-8.30474e-05 -0.00100285 0)
(-0.000101389 -0.000967426 0)
(-0.000116854 -0.000922822 0)
(-0.000128445 -0.000871156 0)
(-0.000135731 -0.00081504 0)
(-0.000138617 -0.000757322 0)
(-0.000136558 -0.000700297 0)
(-0.000127101 -0.000645824 0)
(-0.000106832 -0.00059655 0)
(-7.57477e-05 -0.000554797 0)
(-3.4419e-05 -0.000527638 0)
(2.49618e-05 -0.000474709 0)
(9.00701e-05 -0.000409209 0)
(0.000137172 -0.000398595 0)
(0.000104953 -0.000413813 0)
(-4.93564e-05 -0.000420797 0)
(-0.000301792 -0.000327744 0)
(-0.000537526 -9.46008e-05 0)
(-0.000664936 0.000200005 0)
(-0.000696833 0.000467061 0)
(-0.000678927 0.00068593 0)
(-0.000639675 0.000871597 0)
(-0.000589661 0.0010326 0)
(-0.000534093 0.00117184 0)
(-0.000476092 0.00129095 0)
(-0.000417645 0.00139119 0)
(-0.000360081 0.00147374 0)
(-0.000304323 0.00153973 0)
(-0.000251035 0.00159032 0)
(-0.000200732 0.00162668 0)
(-0.00015378 0.00165007 0)
(-0.000110312 0.0016618 0)
(-7.02557e-05 0.001663 0)
(-3.4133e-05 0.00165466 0)
(-1.56021e-06 0.00163877 0)
(2.81358e-05 0.00161577 0)
(5.49196e-05 0.00158673 0)
(7.9162e-05 0.00155232 0)
(0.000101073 0.00151327 0)
(0.000120945 0.00147019 0)
(0.000139031 0.00142363 0)
(0.000155592 0.00137403 0)
(0.000170872 0.00132178 0)
(0.000185106 0.0012672 0)
(0.00019851 0.00121053 0)
(0.000211284 0.00115196 0)
(0.000223607 0.00109165 0)
(0.000235634 0.00102968 0)
(0.000247495 0.000966104 0)
(0.000259294 0.00090096 0)
(0.000271103 0.000834245 0)
(0.000282963 0.000765939 0)
(0.00029488 0.000696011 0)
(0.000306821 0.000624419 0)
(0.00031871 0.000551116 0)
(0.000330425 0.00047606 0)
(0.000341793 0.00039922 0)
(0.00035258 0.000320593 0)
(0.000362499 0.00024023 0)
(0.000371203 0.000158258 0)
(0.000378315 7.49117e-05 0)
(0.000383432 -9.46295e-06 0)
(0.000386142 -9.43979e-05 0)
(0.000386067 -0.000179312 0)
(0.00038288 -0.000263551 0)
(0.000376304 -0.000346442 0)
(0.000366124 -0.000427224 0)
(0.000352282 -0.000505169 0)
(0.000334739 -0.000579648 0)
(0.000313524 -0.000650004 0)
(0.000288756 -0.000715615 0)
(0.000260628 -0.000775916 0)
(0.000229389 -0.000830402 0)
(0.000195347 -0.000878623 0)
(0.000158863 -0.000920187 0)
(0.000120343 -0.000954772 0)
(8.02405e-05 -0.000982194 0)
(3.89569e-05 -0.00100248 0)
(-2.98506e-06 -0.0010157 0)
(-4.57091e-05 -0.00102189 0)
(-8.91081e-05 -0.00102049 0)
(-0.000132197 -0.00101145 0)
(-0.000174283 -0.000994958 0)
(-0.000214827 -0.00097122 0)
(-0.000253282 -0.00094049 0)
(-0.000289064 -0.000903013 0)
(-0.000321511 -0.000859129 0)
(-0.000349968 -0.000809407 0)
(-0.000373867 -0.000754438 0)
(-0.000392615 -0.000694778 0)
(-0.00040561 -0.000631192 0)
(-0.000412377 -0.000564975 0)
(-0.00041291 -0.000498886 0)
(-0.000408595 -0.00043957 0)
(-0.000404596 -0.000402161 0)
(-0.000415683 -0.000416533 0)
(-0.000475452 -0.000529322 0)
(-0.000631419 -0.000785411 0)
(-0.000904415 -0.0011809 0)
(1.17583e-07 1.55598e-05 0)
(-1.43198e-05 1.72966e-05 0)
(-2.65532e-05 2.1143e-05 0)
(-4.33238e-05 2.77173e-05 0)
(-6.83237e-05 3.84604e-05 0)
(-0.000106054 5.30953e-05 0)
(-0.000158862 6.962e-05 0)
(-0.000226686 8.59517e-05 0)
(-0.000308046 0.000100377 0)
(-0.000399962 0.000111639 0)
(-0.000498757 0.000119709 0)
(-0.000601624 0.000125105 0)
(-0.00070747 0.000126611 0)
(-0.000813998 0.000120027 0)
(-0.000916108 0.000100548 0)
(-0.00100349 6.23254e-05 0)
(-0.00105965 3.96788e-06 0)
(-0.00106878 -6.83704e-05 0)
(-0.00101973 -0.000141592 0)
(-0.000912443 -0.000201965 0)
(-0.000752837 -0.000235327 0)
(-0.000561007 -0.000229435 0)
(-0.000367931 -0.000182253 0)
(-0.000206869 -0.000110693 0)
(-0.000100344 -7.76584e-05 0)
(9.35796e-06 -0.000109908 0)
(7.08283e-05 -9.1493e-05 0)
(2.07029e-05 1.74729e-05 0)
(-4.99454e-05 0.000220828 0)
(-0.000198588 0.000437059 0)
(-0.000428395 0.000408822 0)
(-0.000519556 2.23613e-05 0)
(-0.000189288 -0.000221975 0)
(-3.42518e-05 -0.000141669 0)
(1.44362e-05 -0.000110707 0)
(0.000108254 -0.000102074 0)
(0.000190271 -9.57859e-05 0)
(0.000289217 -0.000102183 0)
(0.000382394 -0.000107858 0)
(0.000480523 -0.00011845 0)
(0.000579483 -0.000125465 0)
(0.000681041 -0.000132192 0)
(0.000785424 -0.000136695 0)
(0.000891898 -0.000140411 0)
(0.00100075 -0.000143428 0)
(0.00111152 -0.00014645 0)
(0.00122454 -0.000149168 0)
(0.00133922 -0.000150526 0)
(0.00145469 -0.000149906 0)
(0.00156996 -0.000146795 0)
(0.00168386 -0.000141227 0)
(0.00179498 -0.000133675 0)
(0.0019017 -0.000124922 0)
(0.00200205 -0.000115584 0)
(0.00209348 -0.000105555 0)
(0.00217248 -9.36596e-05 0)
(0.00223465 -7.81959e-05 0)
(0.00227548 -5.78417e-05 0)
(0.00229029 -3.17659e-05 0)
(0.00227388 -7.72033e-07 0)
(0.00222538 3.50219e-05 0)
(0.00214292 7.52637e-05 0)
(0.00202481 0.000118663 0)
(0.0018707 0.00016448 0)
(0.00167993 0.000212232 0)
(0.00145238 0.000261471 0)
(0.00118886 0.000311962 0)
(0.000891759 0.000364336 0)
(0.000561271 0.000421623 0)
(0.00017925 0.00048454 0)
(-0.000264479 0.000520242 0)
(-0.00070231 0.000522046 0)
(-0.00112077 0.000513642 0)
(-0.00153811 0.000501057 0)
(-0.00194924 0.000479155 0)
(-0.00234058 0.000444708 0)
(-0.00269965 0.000401757 0)
(-0.00302147 0.000349609 0)
(-0.00329587 0.000291032 0)
(-0.00352298 0.000227528 0)
(-0.00369324 0.000161222 0)
(-0.00381577 0.000100415 0)
(-0.00388719 3.37051e-05 0)
(-0.00392117 -2.27396e-05 0)
(-0.0039146 -0.000122114 0)
(-0.00383487 -0.000214087 0)
(-0.00372576 -0.000412993 0)
(-0.00339055 -0.000632111 0)
(-0.00315176 -0.00094595 0)
(-0.0021487 -0.00158554 0)
(-0.000604101 -0.00093698 0)
(-0.000174839 0.000161142 0)
(-0.000275254 0.000364487 0)
(-0.000431226 0.000207079 0)
(-0.000379308 -2.51385e-05 0)
(-0.000208241 -0.000104728 0)
(-0.00010352 -3.16835e-05 0)
(-0.000163728 5.2896e-05 0)
(-0.000270927 -6.20512e-05 0)
(-9.00365e-05 -0.000248099 0)
(-0.000321065 -9.62228e-05 0)
(-0.000236227 -0.000443941 0)
(7.98094e-05 -0.000459809 0)
(0.000426198 4.8601e-05 0)
(0.000432511 0.000648669 0)
(0.000281868 0.00100683 0)
(0.000152663 0.00117849 0)
(6.32103e-05 0.00123483 0)
(1.10608e-05 0.00123006 0)
(-1.84393e-05 0.0011935 0)
(-3.71173e-05 0.00114177 0)
(-5.5264e-05 0.00107623 0)
(-7.19418e-05 0.000996146 0)
(-8.57608e-05 0.00090162 0)
(-8.95979e-05 0.000796501 0)
(-7.98394e-05 0.000695421 0)
(-5.54152e-05 0.000618678 0)
(-1.18996e-05 0.000591259 0)
(5.1261e-05 0.000627555 0)
(0.000107874 0.000726865 0)
(0.000121659 0.000861008 0)
(7.63882e-05 0.00096173 0)
(-5.52524e-06 0.000967739 0)
(-8.82383e-05 0.00086288 0)
(-0.000124608 0.000657093 0)
(-6.40662e-05 0.000453371 0)
(1.86499e-05 0.00037563 0)
(4.75337e-05 0.000415247 0)
(3.37652e-05 0.00049981 0)
(1.92311e-05 0.000571961 0)
(4.65841e-06 0.000623853 0)
(-3.29559e-05 0.000633646 0)
(-0.000102196 0.000579718 0)
(-0.000169997 0.000453073 0)
(-0.000216483 0.000272356 0)
(-0.000240964 6.64611e-05 0)
(-0.000219625 -0.000145693 0)
(-0.00018519 -0.000234518 0)
(-0.000149587 -0.000248581 0)
(1.77684e-06 -0.000275359 0)
(0.000229637 -0.000146204 0)
(0.000371919 -6.84444e-05 0)
(0.000619623 -5.08688e-05 0)
(0.000670672 0.000261639 0)
(4.42686e-07 0.000553994 0)
(-0.000890964 0.000345873 0)
(-0.00124353 -5.25796e-05 0)
(-0.00120746 -0.000404152 0)
(-0.00130408 -0.000954961 0)
(-0.000598378 -0.0010282 0)
(0.000149645 -0.000549031 0)
(0.000558872 -3.23188e-05 0)
(0.000509688 0.000485146 0)
(0.000407533 0.000767779 0)
(0.000381315 0.00106417 0)
(0.000255058 0.00134969 0)
(0.000173531 0.00153415 0)
(0.000182534 0.00170184 0)
(0.000276099 0.00188142 0)
(0.000440993 0.00210098 0)
(0.000639583 0.00238292 0)
(0.000781595 0.00274774 0)
(0.000736872 0.00314941 0)
(0.000484213 0.00344755 0)
(0.000200904 0.00353065 0)
(7.87976e-05 0.0035019 0)
(0.000101123 0.00350362 0)
(0.000125396 0.00356374 0)
(8.30452e-05 0.00362005 0)
(2.13757e-05 0.0036277 0)
(-4.27866e-06 0.00360702 0)
(-1.5477e-06 0.00359423 0)
(-4.27914e-06 0.00359325 0)
(-1.89787e-05 0.00358717 0)
(-2.94456e-05 0.00357194 0)
(-2.81984e-05 0.00355761 0)
(-2.11316e-05 0.00355092 0)
(-1.32218e-05 0.00355053 0)
(-2.42211e-06 0.0035542 0)
(1.43501e-05 0.00356355 0)
(3.64123e-05 0.00358106 0)
(6.09273e-05 0.00360684 0)
(8.54778e-05 0.0036394 0)
(0.000107432 0.00367702 0)
(0.000123025 0.00371736 0)
(0.000128541 0.00375667 0)
(0.000122056 0.0037903 0)
(0.000104288 0.00381385 0)
(7.83436e-05 0.00382425 0)
(4.90963e-05 0.00382025 0)
(2.14428e-05 0.00380372 0)
(-2.77612e-06 0.00377824 0)
(-2.38096e-05 0.00374595 0)
(-4.1696e-05 0.00370815 0)
(-5.63037e-05 0.00366621 0)
(-6.78727e-05 0.00362156 0)
(-7.69397e-05 0.00357524 0)
(-8.39937e-05 0.00352793 0)
(-8.93843e-05 0.00348011 0)
(-9.34049e-05 0.00343222 0)
(-9.63218e-05 0.00338457 0)
(-9.83489e-05 0.00333738 0)
(-9.96403e-05 0.00329082 0)
(-0.000100311 0.00324502 0)
(-0.00010045 0.00320007 0)
(-0.00010012 0.00315608 0)
(-9.93617e-05 0.00311308 0)
(-9.82031e-05 0.00307115 0)
(-9.66613e-05 0.00303033 0)
(-9.4747e-05 0.00299065 0)
(-9.24675e-05 0.00295214 0)
(-8.98311e-05 0.00291481 0)
(-8.6851e-05 0.00287868 0)
(-8.35494e-05 0.00284373 0)
(-7.99627e-05 0.00280995 0)
(-7.61469e-05 0.00277731 0)
(-7.21821e-05 0.00274575 0)
(-6.81787e-05 0.00271521 0)
(-6.42805e-05 0.00268559 0)
(-6.06665e-05 0.00265677 0)
(-5.75472e-05 0.00262861 0)
(-5.51547e-05 0.00260089 0)
(-5.37258e-05 0.00257339 0)
(-5.34788e-05 0.00254582 0)
(-5.45896e-05 0.00251785 0)
(-5.71694e-05 0.00248915 0)
(-6.12525e-05 0.00245936 0)
(-6.6793e-05 0.00242815 0)
(-7.36731e-05 0.00239525 0)
(-8.17165e-05 0.0023604 0)
(-9.07091e-05 0.00232346 0)
(-0.000100423 0.00228431 0)
(-0.000110643 0.00224295 0)
(-0.00012118 0.00219938 0)
(-0.000131883 0.00215368 0)
(-0.000142632 0.00210593 0)
(-0.000153327 0.00205623 0)
(-0.000163879 0.00200469 0)
(-0.000174207 0.00195143 0)
(-0.000184234 0.00189661 0)
(-0.000193888 0.00184037 0)
(-0.0002031 0.00178289 0)
(-0.000211807 0.00172435 0)
(-0.000219946 0.00166495 0)
(-0.000227458 0.00160488 0)
(-0.000234279 0.00154437 0)
(-0.000240342 0.00148361 0)
(-0.000245574 0.00142283 0)
(-0.000249884 0.00136226 0)
(-0.000253164 0.00130211 0)
(-0.000255284 0.00124264 0)
(-0.000256091 0.00118408 0)
(-0.000255409 0.00112671 0)
(-0.000253039 0.00107081 0)
(-0.00024876 0.00101667 0)
(-0.00024232 0.000964596 0)
(-0.000233426 0.000914864 0)
(-0.000221742 0.000867766 0)
(-0.000206884 0.000823585 0)
(-0.00018843 0.000782607 0)
(-0.000165958 0.000745211 0)
(-0.000139099 0.000711992 0)
(-0.000107612 0.000683958 0)
(-7.14667e-05 0.000662618 0)
(-3.09286e-05 0.000649326 0)
(1.26643e-05 0.00064386 0)
(5.61567e-05 0.000644369 0)
(9.53003e-05 0.000649792 0)
(0.000126769 0.000660277 0)
(0.000149474 0.000673793 0)
(0.00016486 0.000684407 0)
(0.000177164 0.000686404 0)
(0.000192882 0.000679929 0)
(0.00021905 0.000673382 0)
(0.000257229 0.000672329 0)
(0.000296686 0.000672852 0)
(0.000320869 0.000675557 0)
(0.000329856 0.000706448 0)
(0.000318195 0.000762072 0)
(0.00027674 0.000818328 0)
(0.000206006 0.000856831 0)
(0.000114227 0.000868899 0)
(1.12631e-05 0.000854429 0)
(-9.57046e-05 0.00081879 0)
(-0.00020366 0.000769346 0)
(-0.000313289 0.000712184 0)
(-0.000427558 0.000650433 0)
(-0.000550301 0.000584377 0)
(-0.00068523 0.000512251 0)
(-0.000835008 0.000431049 0)
(-0.0010002 0.000337502 0)
(-0.001185 0.000229336 0)
(-0.00138988 0.000102393 0)
(-0.00161069 -4.43532e-05 0)
(-0.00184952 -0.000210603 0)
(-0.00210747 -0.000397198 0)
(-0.00238171 -0.000604794 0)
(-0.00268003 -0.000801978 0)
(-0.002968 -0.0012795 0)
(-0.00304041 -0.000460092 0)
)
;
    }
    frontAndBack
    {
        type            empty;
    }
}


// ************************************************************************* //
