/*--------------------------------*- C++ -*----------------------------------*\
  =========                 |
  \\      /  F ield         | OpenFOAM: The Open Source CFD Toolbox
   \\    /   O peration     | Website:  https://openfoam.org
    \\  /    A nd           | Version:  7
     \\/     M anipulation  |
\*---------------------------------------------------------------------------*/
FoamFile
{
    version     2.0;
    format      ascii;
    class       surfaceScalarField;
    location    "0.21";
    object      ddtCorrDdt0(phi);
}
// * * * * * * * * * * * * * * * * * * * * * * * * * * * * * * * * * * * * * //

dimensions      [0 3 -2 0 0 0 0];

internalField   nonuniform List<scalar> 
139350
(
-7.95556e-10
7.94018e-10
-2.03207e-09
1.23212e-09
-3.35809e-09
1.32203e-09
-4.64062e-09
1.27826e-09
-5.8708e-09
1.22625e-09
-7.03688e-09
1.16211e-09
-8.10772e-09
1.06694e-09
-9.06435e-09
9.52469e-10
-9.90501e-09
8.36728e-10
-1.06411e-08
7.31661e-10
-1.12903e-08
6.4518e-10
-1.18737e-08
5.7913e-10
-1.24118e-08
5.34283e-10
-1.29255e-08
5.10088e-10
-1.34361e-08
5.06818e-10
-1.3964e-08
5.24302e-10
-1.4527e-08
5.58951e-10
-1.51419e-08
6.10853e-10
-1.58229e-08
6.768e-10
-1.65825e-08
7.55456e-10
-1.74314e-08
8.44623e-10
-1.83782e-08
9.4309e-10
-1.94331e-08
1.05073e-09
-2.0606e-08
1.16923e-09
-2.19091e-08
1.2985e-09
-2.33566e-08
1.44319e-09
-2.49659e-08
1.60425e-09
-2.67561e-08
1.78545e-09
-2.87512e-08
1.98982e-09
-3.09756e-08
2.21981e-09
-3.34623e-08
2.48129e-09
-3.62456e-08
2.77842e-09
-3.93722e-08
3.12058e-09
-4.2892e-08
3.51393e-09
-4.68754e-08
3.97686e-09
-5.13965e-08
4.5145e-09
-5.65648e-08
5.16169e-09
-6.25036e-08
5.93276e-09
-6.93742e-08
6.86429e-09
-7.74135e-08
8.03414e-09
-8.68323e-08
9.41303e-09
-9.81429e-08
1.13066e-08
-1.11592e-07
1.34433e-08
-1.28205e-07
1.6611e-08
-1.48656e-07
2.04463e-08
-1.74797e-07
2.61393e-08
-2.07255e-07
3.24507e-08
-2.5398e-07
4.67224e-08
-3.01158e-07
4.71713e-08
2.16015e-07
-5.17173e-07
-1.1575e-09
1.94965e-09
-3.60061e-09
3.67046e-09
-6.49939e-09
4.21649e-09
-9.30683e-09
4.08109e-09
-1.19449e-08
3.86004e-09
-1.43805e-08
3.59341e-09
-1.65034e-08
3.18564e-09
-1.82342e-08
2.67873e-09
-1.95603e-08
2.15849e-09
-2.0514e-08
1.68052e-09
-2.11487e-08
1.27556e-09
-2.15267e-08
9.52638e-10
-2.17114e-08
7.14801e-10
-2.17657e-08
5.6045e-10
-2.17518e-08
4.88777e-10
-2.17277e-08
4.96368e-10
-2.17427e-08
5.69546e-10
-2.18398e-08
7.03517e-10
-2.20535e-08
8.85945e-10
-2.24116e-08
1.10903e-09
-2.29358e-08
1.36426e-09
-2.36443e-08
1.6476e-09
-2.45564e-08
1.95829e-09
-2.56922e-08
2.30102e-09
-2.70752e-08
2.67652e-09
-2.87341e-08
3.09734e-09
-3.07022e-08
3.56691e-09
-3.30172e-08
4.09525e-09
-3.57239e-08
4.69087e-09
-3.88703e-08
5.36119e-09
-4.25172e-08
6.12232e-09
-4.67323e-08
6.98821e-09
-5.16027e-08
7.98455e-09
-5.7228e-08
9.13273e-09
-6.37379e-08
1.04797e-08
-7.12841e-08
1.20535e-08
-8.00677e-08
1.39382e-08
-9.03373e-08
1.61959e-08
-1.02404e-07
1.89242e-08
-1.16705e-07
2.23301e-08
-1.33729e-07
2.64301e-08
-1.54326e-07
3.19e-08
-1.79238e-07
3.83492e-08
-2.10392e-07
4.77625e-08
-2.48697e-07
5.87463e-08
-2.9965e-07
7.70907e-08
-3.60509e-07
9.33018e-08
-4.56522e-07
1.42733e-07
-5.61563e-07
1.52205e-07
4.38485e-07
-7.84033e-07
-9.71494e-10
2.91901e-09
-3.66424e-09
6.35812e-09
-7.32347e-09
7.87112e-09
-1.1121e-08
7.8737e-09
-1.47227e-08
7.45726e-09
-1.80078e-08
6.87387e-09
-2.08008e-08
5.9742e-09
-2.29456e-08
4.81866e-09
-2.4382e-08
3.59033e-09
-2.51352e-08
2.42854e-09
-2.5278e-08
1.41381e-09
-2.49071e-08
5.76954e-10
-2.41268e-08
-6.99151e-11
-2.30433e-08
-5.27251e-10
-2.17608e-08
-7.98054e-10
-2.0376e-08
-8.92641e-10
-1.8971e-08
-8.40137e-10
-1.76149e-08
-6.572e-10
-1.63622e-08
-3.7173e-10
-1.52539e-08
-3.90515e-12
-1.43216e-08
4.2705e-10
-1.35901e-08
9.11929e-10
-1.30851e-08
1.44842e-09
-1.28322e-08
2.04395e-09
-1.28618e-08
2.70079e-09
-1.3209e-08
3.43953e-09
-1.39147e-08
4.26683e-09
-1.5024e-08
5.19907e-09
-1.65899e-08
6.25081e-09
-1.86694e-08
7.4354e-09
-2.13336e-08
8.78034e-09
-2.46635e-08
1.03124e-08
-2.87604e-08
1.20747e-08
-3.37456e-08
1.4111e-08
-3.97671e-08
1.64938e-08
-4.70141e-08
1.92931e-08
-5.57123e-08
2.2629e-08
-6.61713e-08
2.6648e-08
-7.8749e-08
3.14949e-08
-9.39616e-08
3.7537e-08
-1.12426e-07
4.48878e-08
-1.35085e-07
5.45546e-08
-1.62933e-07
6.61911e-08
-1.98229e-07
8.30561e-08
-2.41838e-07
1.02349e-07
-3.01541e-07
1.36793e-07
-3.7175e-07
1.63502e-07
-4.84645e-07
2.55625e-07
-6.21515e-07
2.89068e-07
6.69957e-07
-8.52986e-07
-6.92855e-10
3.60955e-09
-3.06403e-09
8.72395e-09
-6.75481e-09
1.15571e-08
-1.10001e-08
1.21139e-08
-1.52566e-08
1.1709e-08
-1.92376e-08
1.08501e-08
-2.26772e-08
9.40914e-09
-2.53272e-08
7.46351e-09
-2.70357e-08
5.2941e-09
-2.77668e-08
3.15428e-09
-2.75706e-08
1.21281e-09
-2.6552e-08
-4.46702e-10
-2.48429e-08
-1.78353e-09
-2.25874e-08
-2.78714e-09
-1.99302e-08
-3.45983e-09
-1.7007e-08
-3.8202e-09
-1.39359e-08
-3.91614e-09
-1.08157e-08
-3.78226e-09
-7.72415e-09
-3.46837e-09
-4.72009e-09
-3.01289e-09
-1.8476e-09
-2.45047e-09
8.58817e-10
-1.79886e-09
3.3657e-09
-1.06355e-09
5.64094e-09
-2.357e-10
7.64778e-09
6.88411e-10
9.34583e-09
1.73625e-09
1.06891e-08
2.91754e-09
1.16284e-08
4.25413e-09
1.21068e-08
5.76618e-09
1.20637e-08
7.47297e-09
1.14247e-08
9.41292e-09
1.01042e-08
1.1627e-08
7.99721e-09
1.41746e-08
4.97387e-09
1.71272e-08
8.83748e-10
2.05762e-08
-4.47861e-09
2.46478e-08
-1.13409e-08
2.94835e-08
-2.00356e-08
3.53357e-08
-3.09358e-08
4.23878e-08
-4.45721e-08
5.11673e-08
-6.1622e-08
6.19309e-08
-8.30377e-08
7.59659e-08
-1.0987e-07
9.30169e-08
-1.44704e-07
1.17889e-07
-1.87765e-07
1.45404e-07
-2.48188e-07
1.97215e-07
-3.20575e-07
2.35881e-07
-4.33276e-07
3.68323e-07
-5.86026e-07
4.41812e-07
8.90144e-07
-8.06213e-07
-5.29222e-10
4.1363e-09
-2.43387e-09
1.06231e-08
-5.70458e-09
1.48228e-08
-9.85502e-09
1.62591e-08
-1.43419e-08
1.6191e-08
-1.87858e-08
1.5289e-08
-2.28494e-08
1.34679e-08
-2.61966e-08
1.08054e-08
-2.85544e-08
7.6469e-09
-2.97647e-08
4.35906e-09
-2.9788e-08
1.23117e-09
-2.86834e-08
-1.55644e-09
-2.65748e-08
-3.89693e-09
-2.36222e-08
-5.74417e-09
-1.99997e-08
-7.08708e-09
-1.58767e-08
-7.94769e-09
-1.14064e-08
-8.39153e-09
-6.71962e-09
-8.47405e-09
-1.92194e-09
-8.27132e-09
2.905e-09
-7.84487e-09
7.69847e-09
-7.24911e-09
1.24093e-08
-6.51421e-09
1.69916e-08
-5.651e-09
2.14025e-08
-4.65124e-09
2.55957e-08
-3.51045e-09
2.95226e-08
-2.19606e-09
3.31299e-08
-6.95986e-10
3.63626e-08
1.01568e-09
3.91587e-08
2.96361e-09
4.14535e-08
5.17259e-09
4.31694e-08
7.6904e-09
4.42172e-08
1.05731e-08
4.44911e-08
1.38934e-08
4.38553e-08
1.77556e-08
4.2161e-08
2.22625e-08
3.91945e-08
2.76064e-08
3.47293e-08
3.39409e-08
2.84275e-08
4.16303e-08
1.99038e-08
5.09042e-08
8.63698e-09
6.24281e-08
-6.08598e-09
7.6647e-08
-2.52067e-08
9.50822e-08
-4.97942e-08
1.17598e-07
-8.24887e-08
1.50581e-07
-1.23527e-07
1.86436e-07
-1.81537e-07
2.55223e-07
-2.54378e-07
3.08713e-07
-3.60707e-07
4.7465e-07
-5.19631e-07
6.00729e-07
1.09243e-06
-7.21919e-07
-4.90754e-10
4.62447e-09
-2.05904e-09
1.21856e-08
-4.82098e-09
1.75796e-08
-8.55768e-09
1.99903e-08
-1.28647e-08
2.04929e-08
-1.74039e-08
1.9823e-08
-2.18674e-08
1.79264e-08
-2.59076e-08
1.48402e-08
-2.91643e-08
1.08985e-08
-3.13374e-08
6.52639e-09
-3.22385e-08
2.12723e-09
-3.18113e-08
-1.98894e-09
-3.01105e-08
-5.60254e-09
-2.72683e-08
-8.591e-09
-2.34579e-08
-1.09023e-08
-1.88645e-08
-1.25458e-08
-1.36656e-08
-1.35956e-08
-8.01983e-09
-1.4125e-08
-2.06033e-09
-1.42362e-08
4.106e-09
-1.40163e-08
1.03938e-08
-1.35422e-08
1.67349e-08
-1.28598e-08
2.3066e-08
-1.19875e-08
2.93295e-08
-1.09193e-08
3.54641e-08
-9.6509e-09
4.14087e-08
-8.14617e-09
4.70979e-08
-6.39147e-09
5.2466e-08
-4.35833e-09
5.7442e-08
-2.01898e-09
6.19526e-08
6.56292e-10
6.5914e-08
3.72232e-09
6.92298e-08
7.25105e-09
7.17911e-08
1.13248e-08
7.34549e-08
1.60843e-08
7.40708e-08
2.16385e-08
7.34197e-08
2.82495e-08
7.12709e-08
3.60817e-08
6.72897e-08
4.56043e-08
6.10727e-08
5.71137e-08
5.21163e-08
7.13785e-08
3.96772e-08
8.90791e-08
2.28356e-08
1.11919e-07
4.61975e-10
1.39965e-07
-2.98671e-08
1.80908e-07
-6.92238e-08
2.25787e-07
-1.23828e-07
3.09827e-07
-1.96806e-07
3.81682e-07
-2.97017e-07
5.74858e-07
-4.54985e-07
7.58691e-07
1.28252e-06
-6.45075e-07
-5.13633e-10
5.13543e-09
-1.94073e-09
1.36068e-08
-4.34806e-09
1.99817e-08
-7.64785e-09
2.32846e-08
-1.15747e-08
2.44146e-08
-1.58971e-08
2.41403e-08
-2.04266e-08
2.24508e-08
-2.49143e-08
1.93224e-08
-2.90158e-08
1.49949e-08
-3.23473e-08
9.85197e-09
-3.45724e-08
4.34719e-09
-3.54768e-08
-1.08993e-09
-3.49861e-08
-6.09818e-09
-3.3146e-08
-1.04357e-08
-3.00823e-08
-1.3971e-08
-2.59604e-08
-1.66723e-08
-2.09583e-08
-1.86031e-08
-1.52459e-08
-1.98426e-08
-8.9747e-09
-2.05129e-08
-2.27207e-09
-2.07242e-08
4.756e-09
-2.05757e-08
1.20223e-08
-2.01308e-08
1.94459e-08
-1.94165e-08
2.69523e-08
-1.84304e-08
3.44633e-08
-1.71679e-08
4.19014e-08
-1.55898e-08
4.91845e-08
-1.3681e-08
5.62314e-08
-1.14112e-08
6.29566e-08
-8.7508e-09
6.92728e-08
-5.66564e-09
7.50848e-08
-2.0965e-09
8.02844e-08
2.04518e-09
8.47542e-08
6.84743e-09
8.8341e-08
1.249e-08
9.08862e-08
1.90851e-08
9.21651e-08
2.69626e-08
9.19344e-08
3.63043e-08
8.98665e-08
4.76649e-08
8.55334e-08
6.14394e-08
7.84529e-08
7.84528e-08
6.78504e-08
9.96746e-08
5.28447e-08
1.26921e-07
3.22122e-08
1.60591e-07
3.82931e-09
2.0929e-07
-3.41167e-08
2.63727e-07
-8.59638e-08
3.61673e-07
-1.58497e-07
4.54207e-07
-2.54233e-07
6.70592e-07
-4.06504e-07
9.10955e-07
1.46274e-06
-5.86721e-07
-5.48511e-10
5.68119e-09
-1.96801e-09
1.50203e-08
-4.22596e-09
2.22343e-08
-7.24885e-09
2.63018e-08
-1.08337e-08
2.79941e-08
-1.4829e-08
2.81302e-08
-1.91788e-08
2.67954e-08
-2.37971e-08
2.39351e-08
-2.84602e-08
1.96527e-08
-3.28078e-08
1.41936e-08
-3.64278e-08
7.96192e-09
-3.89694e-08
1.44623e-09
-4.021e-08
-4.86259e-09
-4.00684e-08
-1.05821e-08
-3.85767e-08
-1.54678e-08
-3.58389e-08
-1.94148e-08
-3.1998e-08
-2.24494e-08
-2.72082e-08
-2.46377e-08
-2.16193e-08
-2.61073e-08
-1.53651e-08
-2.69837e-08
-8.56222e-09
-2.73839e-08
-1.30955e-09
-2.73881e-08
6.30057e-09
-2.70321e-08
1.41816e-08
-2.63162e-08
2.22417e-08
-2.5234e-08
3.03881e-08
-2.37419e-08
3.85216e-08
-2.1821e-08
4.65428e-08
-1.94383e-08
5.4348e-08
-1.65627e-08
6.18317e-08
-1.31552e-08
6.88828e-08
-9.15447e-09
7.53769e-08
-4.45525e-09
8.11828e-08
1.03398e-09
8.61341e-08
7.53123e-09
9.00565e-08
1.51544e-08
9.27187e-08
2.42923e-08
9.38554e-08
3.51595e-08
9.31462e-08
4.83668e-08
9.01335e-08
6.44446e-08
8.43549e-08
8.42254e-08
7.50129e-08
1.0901e-07
6.12575e-08
1.40672e-07
4.18137e-08
1.80029e-07
1.48113e-08
2.36291e-07
-2.20879e-08
3.00621e-07
-7.19934e-08
4.11578e-07
-1.43328e-07
5.25533e-07
-2.35546e-07
7.62808e-07
-3.79425e-07
1.05483e-06
1.63173e-06
-5.48406e-07
-5.7656e-10
6.25492e-09
-2.04291e-09
1.64806e-08
-4.29734e-09
2.44832e-08
-7.23233e-09
2.9231e-08
-1.06345e-08
3.13909e-08
-1.43761e-08
3.18664e-08
-1.84845e-08
3.08985e-08
-2.30232e-08
2.8468e-08
-2.79333e-08
2.45574e-08
-3.29669e-08
1.92212e-08
-3.77338e-08
1.27234e-08
-4.18213e-08
5.52816e-09
-4.48957e-08
-1.79325e-09
-4.67529e-08
-8.72972e-09
-4.73138e-08
-1.4912e-08
-4.65934e-08
-2.01399e-08
-4.46689e-08
-2.43793e-08
-4.16496e-08
-2.76623e-08
-3.76586e-08
-3.01039e-08
-3.28157e-08
-3.18319e-08
-2.72322e-08
-3.2973e-08
-2.10047e-08
-3.36203e-08
-1.42248e-08
-3.38176e-08
-6.97927e-09
-3.35666e-08
6.37012e-10
-3.28563e-08
8.5248e-09
-3.16354e-08
1.65737e-08
-2.98765e-08
2.46694e-08
-2.75401e-08
3.26913e-08
-2.45913e-08
4.05149e-08
-2.09846e-08
4.80113e-08
-1.66578e-08
5.50387e-08
-1.1489e-08
6.14487e-08
-5.38362e-09
6.70612e-08
1.9111e-09
7.16814e-08
1.05259e-08
7.50706e-08
2.08951e-08
7.69353e-08
3.32867e-08
7.69587e-08
4.83363e-08
7.46546e-08
6.67412e-08
6.95654e-08
8.93085e-08
6.0899e-08
1.17669e-07
4.77996e-08
1.53767e-07
2.90267e-08
1.98796e-07
2.86202e-09
2.62454e-07
-3.32917e-08
3.36769e-07
-8.16294e-08
4.59916e-07
-1.51316e-07
5.95212e-07
-2.39955e-07
8.51445e-07
-3.736e-07
1.18847e-06
1.78704e-06
-5.28911e-07
-5.97426e-10
6.84945e-09
-2.12176e-09
1.79986e-08
-4.43664e-09
2.67925e-08
-7.40761e-09
3.21961e-08
-1.07868e-08
3.47647e-08
-1.44243e-08
3.54983e-08
-1.8372e-08
3.48409e-08
-2.27852e-08
3.28754e-08
-2.77451e-08
2.95118e-08
-3.31437e-08
2.46137e-08
-3.86805e-08
1.82547e-08
-4.39618e-08
1.08038e-08
-4.86118e-08
2.85168e-09
-5.23487e-08
-4.99769e-09
-5.50036e-08
-1.22622e-08
-5.65051e-08
-1.86433e-08
-5.68552e-08
-2.40348e-08
-5.61019e-08
-2.8421e-08
-5.4323e-08
-3.18885e-08
-5.16063e-08
-3.4554e-08
-4.80413e-08
-3.65436e-08
-4.37079e-08
-3.79584e-08
-3.86828e-08
-3.88483e-08
-3.30385e-08
-3.92158e-08
-2.68577e-08
-3.90432e-08
-2.02316e-08
-3.82671e-08
-1.32688e-08
-3.68459e-08
-6.08802e-09
-3.4727e-08
1.18038e-09
-3.18665e-08
8.39834e-09
-2.82084e-08
1.54219e-08
-2.36883e-08
2.20948e-08
-1.81683e-08
2.82523e-08
-1.15488e-08
3.37039e-08
-3.54812e-09
3.82344e-08
5.98717e-09
4.15994e-08
1.75221e-08
4.34789e-08
3.1399e-08
4.35526e-08
4.82554e-08
4.13176e-08
6.89688e-08
3.62985e-08
9.43217e-08
2.77406e-08
1.26221e-07
1.4751e-08
1.66753e-07
-3.82168e-09
2.17363e-07
-2.95789e-08
2.8821e-07
-6.51736e-08
3.72359e-07
-1.12186e-07
5.06928e-07
-1.79724e-07
6.62744e-07
-2.64138e-07
9.35858e-07
-3.86152e-07
1.31048e-06
1.92642e-06
-5.25528e-07
-6.15508e-10
7.46201e-09
-2.19623e-09
1.9573e-08
-4.58922e-09
2.91799e-08
-7.64936e-09
3.52503e-08
-1.11019e-08
3.82116e-08
-1.47647e-08
3.91555e-08
-1.86783e-08
3.8749e-08
-2.30304e-08
3.72216e-08
-2.79876e-08
3.44635e-08
-3.35549e-08
3.01748e-08
-3.95351e-08
2.42293e-08
-4.56003e-08
1.68634e-08
-5.1394e-08
8.64013e-09
-5.66143e-08
2.17757e-10
-6.10482e-08
-7.83358e-09
-6.45677e-08
-1.51287e-08
-6.71157e-08
-2.14923e-08
-6.8684e-08
-2.6858e-08
-6.93022e-08
-3.12761e-08
-6.90193e-08
-3.48423e-08
-6.78946e-08
-3.76739e-08
-6.5983e-08
-3.98747e-08
-6.33366e-08
-4.15004e-08
-6.00027e-08
-4.25545e-08
-5.60389e-08
-4.30131e-08
-5.15135e-08
-4.27983e-08
-4.65177e-08
-4.18483e-08
-4.116e-08
-4.00907e-08
-3.5568e-08
-3.74653e-08
-2.98827e-08
-3.38995e-08
-2.42555e-08
-2.93225e-08
-1.88497e-08
-2.35805e-08
-1.3841e-08
-1.65651e-08
-9.42385e-09
-7.97291e-09
-5.82722e-09
2.38225e-09
-3.29665e-09
1.49836e-08
-2.16794e-09
3.02622e-08
-2.76916e-09
4.88495e-08
-5.60215e-09
7.17945e-08
-1.1175e-08
9.98887e-08
-2.01845e-08
1.35223e-07
-3.35631e-08
1.80127e-07
-5.23629e-08
2.36157e-07
-7.80527e-08
3.13899e-07
-1.1326e-07
4.07561e-07
-1.58971e-07
5.5264e-07
-2.23478e-07
7.27245e-07
-3.03763e-07
1.01614e-06
-4.12776e-07
1.41949e-06
2.04796e-06
-5.34317e-07
-6.33356e-10
8.09235e-09
-2.26966e-09
2.12029e-08
-4.74217e-09
3.16466e-08
-7.90531e-09
3.84074e-08
-1.14702e-08
4.17708e-08
-1.52307e-08
4.29104e-08
-1.92091e-08
4.27218e-08
-2.3595e-08
4.16015e-08
-2.85883e-08
3.94513e-08
-3.42588e-08
3.58389e-08
-4.04877e-08
3.04526e-08
-4.70174e-08
2.33874e-08
-5.35392e-08
1.51567e-08
-5.97735e-08
6.44702e-09
-6.55062e-08
-2.10605e-09
-7.05922e-08
-1.00477e-08
-7.49456e-08
-1.71445e-08
-7.85236e-08
-2.32855e-08
-8.13208e-08
-2.84846e-08
-8.33548e-08
-3.28136e-08
-8.46583e-08
-3.6376e-08
-8.52622e-08
-3.92756e-08
-8.51941e-08
-4.15741e-08
-8.44739e-08
-4.32797e-08
-8.31289e-08
-4.43642e-08
-8.11959e-08
-4.47369e-08
-7.87377e-08
-4.43132e-08
-7.58397e-08
-4.29948e-08
-7.26135e-08
-4.06983e-08
-6.91908e-08
-3.7328e-08
-6.57199e-08
-3.28003e-08
-6.23616e-08
-2.69451e-08
-5.92943e-08
-1.964e-08
-5.67079e-08
-1.05669e-08
-5.48346e-08
5.00702e-10
-5.39145e-08
1.40556e-08
-5.42826e-08
3.06223e-08
-5.62728e-08
5.08327e-08
-6.03666e-08
7.5881e-08
-6.71025e-08
1.06619e-07
-7.71145e-08
1.45229e-07
-9.13466e-08
1.94356e-07
-1.10777e-07
2.55583e-07
-1.36684e-07
3.39806e-07
-1.71634e-07
4.42507e-07
-2.16096e-07
5.97103e-07
-2.77355e-07
7.88498e-07
-3.52411e-07
1.0912e-06
-4.48112e-07
1.51518e-06
2.15082e-06
-5.50962e-07
-6.51617e-10
8.7409e-09
-2.34517e-09
2.28899e-08
-4.89762e-09
3.41932e-08
-8.16517e-09
4.16688e-08
-1.18518e-08
4.54518e-08
-1.57381e-08
4.67908e-08
-1.98345e-08
4.68126e-08
-2.43248e-08
4.60857e-08
-2.94155e-08
4.45363e-08
-3.52013e-08
4.16184e-08
-4.16048e-08
3.68505e-08
-4.84173e-08
3.01941e-08
-5.53757e-08
2.21098e-08
-6.22367e-08
1.3303e-08
-6.88105e-08
4.46242e-09
-7.49632e-08
-3.89993e-09
-8.0609e-08
-1.15043e-08
-8.56961e-08
-1.82038e-08
-9.02048e-08
-2.39817e-08
-9.41376e-08
-2.88861e-08
-9.75123e-08
-3.3007e-08
-1.00345e-07
-3.64473e-08
-1.02649e-07
-3.9276e-08
-1.04423e-07
-4.15107e-08
-1.05668e-07
-4.3125e-08
-1.06392e-07
-4.40193e-08
-1.06625e-07
-4.40865e-08
-1.06425e-07
-4.32007e-08
-1.0588e-07
-4.12506e-08
-1.05102e-07
-3.81118e-08
-1.04228e-07
-3.36814e-08
-1.03407e-07
-2.77719e-08
-1.02813e-07
-2.02421e-08
-1.02623e-07
-1.07642e-08
-1.03062e-07
9.31651e-10
-1.04358e-07
1.53436e-08
-1.06828e-07
3.30851e-08
-1.10805e-07
5.48028e-08
-1.16734e-07
8.18025e-08
-1.25167e-07
1.15046e-07
-1.36676e-07
1.56732e-07
-1.52182e-07
2.09859e-07
-1.72603e-07
2.75999e-07
-1.99009e-07
3.66211e-07
-2.3384e-07
4.77335e-07
-2.77105e-07
6.4037e-07
-3.34953e-07
8.46341e-07
-4.04335e-07
1.16058e-06
-4.86942e-07
1.59779e-06
2.23511e-06
-5.71229e-07
-6.70325e-10
9.4081e-09
-2.42377e-09
2.46367e-08
-5.05832e-09
3.68219e-08
-8.43134e-09
4.50356e-08
-1.22411e-08
4.92558e-08
-1.62602e-08
5.0804e-08
-2.04954e-08
5.10421e-08
-2.51278e-08
5.07119e-08
-3.03621e-08
4.97648e-08
-3.62973e-08
4.75472e-08
-4.28695e-08
4.3417e-08
-4.98923e-08
3.72111e-08
-5.71314e-08
2.93436e-08
-6.43738e-08
2.05404e-08
-7.1458e-08
1.15414e-08
-7.82729e-08
2.90996e-09
-8.47488e-08
-5.03406e-09
-9.08427e-08
-1.21154e-08
-9.65379e-08
-1.82923e-08
-1.01839e-07
-2.35907e-08
-1.06759e-07
-2.80922e-08
-1.11317e-07
-3.18943e-08
-1.15523e-07
-3.50756e-08
-1.19365e-07
-3.76736e-08
-1.22829e-07
-3.96673e-08
-1.25901e-07
-4.09525e-08
-1.28591e-07
-4.14035e-08
-1.30927e-07
-4.08706e-08
-1.32974e-07
-3.92107e-08
-1.34823e-07
-3.6268e-08
-1.36596e-07
-3.19154e-08
-1.38427e-07
-2.59472e-08
-1.40477e-07
-1.81998e-08
-1.42909e-07
-8.33922e-09
-1.45933e-07
3.94721e-09
-1.49759e-07
1.91617e-08
-1.54677e-07
3.79954e-08
-1.61007e-07
6.11259e-08
-1.69147e-07
8.99362e-08
-1.79643e-07
1.25536e-07
-1.9301e-07
1.70093e-07
-2.10107e-07
2.26953e-07
-2.31803e-07
2.97691e-07
-2.58958e-07
3.93366e-07
-2.93795e-07
5.1217e-07
-3.36022e-07
6.82599e-07
-3.90527e-07
9.00842e-07
-4.55071e-07
1.22512e-06
-5.23534e-07
1.66625e-06
2.30303e-06
-5.91449e-07
-6.89523e-10
1.00945e-08
-2.50343e-09
2.64439e-08
-5.22517e-09
3.95376e-08
-8.70642e-09
4.85106e-08
-1.2641e-08
5.31845e-08
-1.67951e-08
5.49522e-08
-2.11756e-08
5.54168e-08
-2.59656e-08
5.54958e-08
-3.13689e-08
5.51623e-08
-3.74814e-08
5.36532e-08
-4.42382e-08
5.01681e-08
-5.14577e-08
4.44248e-08
-5.8917e-08
3.67975e-08
-6.64201e-08
2.80385e-08
-7.38261e-08
1.89421e-08
-8.10443e-08
1.01232e-08
-8.80241e-08
1.94008e-09
-9.47369e-08
-5.40793e-09
-1.01181e-07
-1.1854e-08
-1.07366e-07
-1.74109e-08
-1.13325e-07
-2.21385e-08
-1.1908e-07
-2.61444e-08
-1.24634e-07
-2.9527e-08
-1.29989e-07
-3.23237e-08
-1.35126e-07
-3.4537e-08
-1.40028e-07
-3.60561e-08
-1.44688e-07
-3.67501e-08
-1.49111e-07
-3.64532e-08
-1.5335e-07
-3.49786e-08
-1.5748e-07
-3.2143e-08
-1.61609e-07
-2.77937e-08
-1.65855e-07
-2.17071e-08
-1.70368e-07
-1.36945e-08
-1.75296e-07
-3.4187e-09
-1.8083e-07
9.47323e-09
-1.87163e-07
2.54876e-08
-1.94555e-07
4.53792e-08
-2.03305e-07
6.98692e-08
-2.13764e-07
1.00388e-07
-2.26449e-07
1.38217e-07
-2.41825e-07
1.85463e-07
-2.60665e-07
2.4579e-07
-2.83791e-07
3.20813e-07
-3.11848e-07
4.21425e-07
-3.46826e-07
5.47146e-07
-3.88153e-07
7.23929e-07
-4.39527e-07
9.52213e-07
-4.97738e-07
1.28334e-06
-5.56911e-07
1.72542e-06
2.35493e-06
-6.08804e-07
-7.0931e-10
1.08005e-08
-2.58512e-09
2.83129e-08
-5.39822e-09
4.23447e-08
-8.99124e-09
5.20973e-08
-1.30538e-08
5.72411e-08
-1.73458e-08
5.92382e-08
-2.18749e-08
5.99401e-08
-2.68293e-08
6.04439e-08
-3.24137e-08
6.07408e-08
-3.872e-08
5.99531e-08
-4.56775e-08
5.71198e-08
-5.31005e-08
5.1842e-08
-6.07669e-08
4.44585e-08
-6.84868e-08
3.57534e-08
-7.61299e-08
2.65798e-08
-8.36186e-08
1.76069e-08
-9.09161e-08
9.23192e-09
-9.80083e-08
1.67893e-09
-1.04905e-07
-4.96339e-09
-1.11632e-07
-1.06887e-08
-1.18226e-07
-1.55503e-08
-1.24723e-07
-1.96519e-08
-1.31153e-07
-2.31027e-08
-1.37509e-07
-2.59727e-08
-1.43788e-07
-2.82637e-08
-1.49956e-07
-2.98935e-08
-1.56005e-07
-3.07086e-08
-1.61962e-07
-3.05014e-08
-1.67859e-07
-2.90885e-08
-1.73756e-07
-2.62518e-08
-1.79749e-07
-2.18073e-08
-1.8595e-07
-1.55126e-08
-1.92497e-07
-7.15434e-09
-1.9953e-07
3.60702e-09
-2.07225e-07
1.71601e-08
-2.1576e-07
3.40157e-08
-2.25366e-07
5.49774e-08
-2.36322e-07
8.0819e-08
-2.48935e-07
1.12995e-07
-2.63684e-07
1.5296e-07
-2.8099e-07
2.02764e-07
-3.01524e-07
2.66322e-07
-3.26063e-07
3.45349e-07
-3.55057e-07
4.5042e-07
-3.90237e-07
5.82325e-07
-4.30813e-07
7.64509e-07
-4.79372e-07
1.00077e-06
-5.31786e-07
1.33575e-06
-5.82969e-07
1.7766e-06
2.3934e-06
-6.2144e-07
-7.29767e-10
1.1527e-08
-2.66938e-09
3.02457e-08
-5.57747e-09
4.52466e-08
-9.28592e-09
5.57994e-08
-1.34803e-08
6.14295e-08
-1.79141e-08
6.3666e-08
-2.25957e-08
6.46158e-08
-2.77193e-08
6.55612e-08
-3.34918e-08
6.65074e-08
-4.00016e-08
6.64564e-08
-4.71709e-08
6.42834e-08
-5.48073e-08
5.94725e-08
-6.26844e-08
5.23302e-08
-7.06126e-08
4.36765e-08
-7.8465e-08
3.4427e-08
-8.61705e-08
2.53075e-08
-9.37001e-08
1.67559e-08
-1.01049e-07
9.02235e-09
-1.08236e-07
2.21809e-09
-1.15298e-07
-3.63172e-09
-1.22284e-07
-8.56991e-09
-1.29239e-07
-1.27017e-08
-1.36198e-07
-1.61494e-08
-1.43172e-07
-1.90031e-08
-1.50156e-07
-2.12858e-08
-1.57141e-07
-2.29141e-08
-1.64119e-07
-2.3737e-08
-1.71091e-07
-2.35347e-08
-1.78103e-07
-2.20837e-08
-1.85217e-07
-1.9143e-08
-1.92529e-07
-1.45017e-08
-2.00145e-07
-7.90287e-09
-2.082e-07
8.92931e-10
-2.16827e-07
1.22272e-08
-2.26191e-07
2.65162e-08
-2.36461e-07
4.42792e-08
-2.47845e-07
6.63544e-08
-2.60605e-07
9.35729e-08
-2.75014e-07
1.27397e-07
-2.91506e-07
1.69448e-07
-3.10471e-07
2.21724e-07
-3.32477e-07
2.88325e-07
-3.58254e-07
3.71123e-07
-3.8808e-07
4.80248e-07
-4.23415e-07
6.1766e-07
-4.6331e-07
8.04408e-07
-5.09311e-07
1.04677e-06
-5.56724e-07
1.38317e-06
-6.01147e-07
1.82102e-06
2.42088e-06
-6.28618e-07
-7.50952e-10
1.22747e-08
-2.7563e-09
3.22442e-08
-5.76301e-09
4.82472e-08
-9.59054e-09
5.96205e-08
-1.39205e-08
6.57534e-08
-1.85007e-08
6.82402e-08
-2.33394e-08
6.94487e-08
-2.86373e-08
7.08527e-08
-3.46039e-08
7.24681e-08
-4.13244e-08
7.31703e-08
-4.87136e-08
7.16668e-08
-5.65715e-08
6.73246e-08
-6.46664e-08
6.04197e-08
-7.2806e-08
5.18112e-08
-8.08641e-08
4.24798e-08
-8.87713e-08
3.32098e-08
-9.65024e-08
2.44814e-08
-1.04057e-07
1.65721e-08
-1.11462e-07
9.61692e-09
-1.18759e-07
3.66033e-09
-1.26005e-07
-1.32934e-09
-1.33253e-07
-5.45832e-09
-1.40544e-07
-8.86407e-09
-1.47896e-07
-1.16558e-08
-1.55312e-07
-1.38752e-08
-1.62786e-07
-1.54462e-08
-1.70318e-07
-1.62107e-08
-1.77922e-07
-1.59363e-08
-1.8564e-07
-1.43724e-08
-1.93537e-07
-1.12512e-08
-2.01711e-07
-6.33488e-09
-2.10269e-07
6.49081e-10
-2.19345e-07
9.9619e-09
-2.29071e-07
2.19472e-08
-2.39609e-07
3.70459e-08
-2.51122e-07
5.57859e-08
-2.63803e-07
7.90285e-08
-2.77901e-07
1.07665e-07
-2.93663e-07
1.43154e-07
-3.11485e-07
1.87266e-07
-3.31736e-07
2.41971e-07
-3.54885e-07
3.11473e-07
-3.81611e-07
3.97847e-07
-4.12055e-07
5.10696e-07
-4.47389e-07
6.52994e-07
-4.86572e-07
8.43596e-07
-5.3023e-07
1.09043e-06
-5.73328e-07
1.42627e-06
-6.11658e-07
1.85935e-06
2.43955e-06
-6.30323e-07
-7.72909e-10
1.30443e-08
-2.84592e-09
3.43102e-08
-5.95497e-09
5.135e-08
-9.90528e-09
6.35643e-08
-1.43747e-08
7.02168e-08
-1.9106e-08
7.29654e-08
-2.41069e-08
7.44436e-08
-2.95844e-08
7.63239e-08
-3.57514e-08
7.86292e-08
-4.26892e-08
8.01016e-08
-5.03053e-08
7.92772e-08
-5.83918e-08
7.54052e-08
-6.67111e-08
6.87337e-08
-7.5068e-08
6.01632e-08
-8.33351e-08
5.07417e-08
-9.14436e-08
4.13135e-08
-9.93697e-08
3.2402e-08
-1.07116e-07
2.43131e-08
-1.14711e-07
1.72069e-08
-1.22204e-07
1.11478e-08
-1.29654e-07
6.11522e-09
-1.37118e-07
2.00169e-09
-1.44642e-07
-1.34538e-09
-1.52247e-07
-4.05524e-09
-1.59942e-07
-6.18634e-09
-1.67723e-07
-7.67086e-09
-1.75596e-07
-8.34351e-09
-1.83582e-07
-7.95566e-09
-1.91729e-07
-6.23228e-09
-2.00105e-07
-2.88005e-09
-2.08811e-07
2.36544e-09
-2.1796e-07
9.79136e-09
-2.27685e-07
1.96801e-08
-2.38121e-07
3.23775e-08
-2.49427e-07
4.83439e-08
-2.61765e-07
6.81181e-08
-2.7532e-07
9.25768e-08
-2.9033e-07
1.22669e-07
-3.0703e-07
1.59848e-07
-3.25778e-07
2.0601e-07
-3.46928e-07
2.63116e-07
-3.70865e-07
3.3541e-07
-3.98215e-07
4.25196e-07
-4.29014e-07
5.41497e-07
-4.64146e-07
6.88128e-07
-5.0249e-07
8.81946e-07
-5.43925e-07
1.13186e-06
-5.83355e-07
1.46571e-06
-6.16216e-07
1.89221e-06
2.45115e-06
-6.27801e-07
-7.95685e-10
1.38366e-08
-2.93828e-09
3.64459e-08
-6.15344e-09
5.4559e-08
-1.02304e-08
6.76348e-08
-1.4843e-08
7.48233e-08
-1.97302e-08
7.78465e-08
-2.48984e-08
7.96059e-08
-3.05613e-08
8.19805e-08
-3.6935e-08
8.4997e-08
-4.4097e-08
8.72571e-08
-5.19468e-08
8.71213e-08
-6.02686e-08
8.37212e-08
-6.88187e-08
7.72786e-08
-7.73987e-08
6.87383e-08
-8.588e-08
5.92179e-08
-9.41935e-08
4.96223e-08
-1.02316e-07
4.0519e-08
-1.10252e-07
3.22437e-08
-1.18032e-07
2.4982e-08
-1.25708e-07
1.8819e-08
-1.33343e-07
1.37448e-08
-1.40995e-07
9.64982e-09
-1.48712e-07
6.36604e-09
-1.56516e-07
3.74374e-09
-1.64416e-07
1.70854e-09
-1.72413e-07
3.21049e-10
-1.80517e-07
-2.45874e-10
-1.88752e-07
2.73793e-10
-1.9717e-07
2.18022e-09
-2.05847e-07
5.79161e-09
-2.14886e-07
1.13984e-08
-2.24402e-07
1.93022e-08
-2.34533e-07
2.98045e-08
-2.45417e-07
4.32547e-08
-2.57208e-07
6.01278e-08
-2.70072e-07
8.09759e-08
-2.84186e-07
1.06685e-07
-2.99781e-07
1.38259e-07
-3.17086e-07
1.77148e-07
-3.36425e-07
2.25346e-07
-3.58144e-07
2.84831e-07
-3.82557e-07
3.59822e-07
-4.10227e-07
4.52866e-07
-4.41108e-07
5.72382e-07
-4.7581e-07
7.22833e-07
-5.13165e-07
9.19308e-07
-5.52361e-07
1.17106e-06
-5.88496e-07
1.50185e-06
-6.16046e-07
1.91976e-06
2.45688e-06
-6.21771e-07
-8.1933e-10
1.46526e-08
-3.03341e-09
3.8653e-08
-6.35851e-09
5.78778e-08
-1.0566e-08
7.18358e-08
-1.53256e-08
7.95769e-08
-2.03736e-08
8.28883e-08
-2.57145e-08
8.4941e-08
-3.15686e-08
8.78282e-08
-3.81554e-08
9.15779e-08
-4.55484e-08
9.46437e-08
-5.3639e-08
9.52062e-08
-6.22027e-08
9.22792e-08
-7.09899e-08
8.60606e-08
-7.97988e-08
7.75425e-08
-8.84995e-08
6.79135e-08
-9.70225e-08
5.81407e-08
-1.05345e-07
4.88363e-08
-1.13473e-07
4.03664e-08
-1.21439e-07
3.29433e-08
-1.29298e-07
2.6673e-08
-1.37114e-07
2.15555e-08
-1.44947e-07
1.74784e-08
-1.52843e-07
1.42572e-08
-1.60825e-07
1.17214e-08
-1.68903e-07
9.78116e-09
-1.77078e-07
8.49103e-09
-1.85362e-07
8.03234e-09
-1.93783e-07
8.68955e-09
-2.02397e-07
1.07886e-08
-2.11283e-07
1.46726e-08
-2.20548e-07
2.06576e-08
-2.3031e-07
2.90594e-08
-2.40709e-07
4.0197e-08
-2.51884e-07
5.44239e-08
-2.6399e-07
7.22262e-08
-2.7719e-07
9.41706e-08
-2.9166e-07
1.21148e-07
-3.07622e-07
1.54216e-07
-3.253e-07
1.94822e-07
-3.44991e-07
2.45034e-07
-3.6703e-07
3.06867e-07
-3.91673e-07
3.84465e-07
-4.19414e-07
4.80608e-07
-4.50139e-07
6.03113e-07
-4.84196e-07
7.56894e-07
-5.20362e-07
9.55481e-07
-5.57243e-07
1.20795e-06
-5.90122e-07
1.53473e-06
-6.12916e-07
1.94256e-06
2.45722e-06
-6.13249e-07
-8.43893e-10
1.54931e-08
-3.13136e-09
4.09335e-08
-6.57021e-09
6.13105e-08
-1.09123e-08
7.61714e-08
-1.58229e-08
8.44815e-08
-2.10364e-08
8.80957e-08
-2.65556e-08
9.04543e-08
-3.26066e-08
9.38729e-08
-3.9413e-08
9.83784e-08
-4.70441e-08
1.02269e-07
-5.53825e-08
1.03539e-07
-6.41948e-08
1.01086e-07
-7.32255e-08
9.50862e-08
-8.22691e-08
8.65815e-08
-9.11944e-08
7.68339e-08
-9.99316e-08
6.68735e-08
-1.08458e-07
5.73579e-08
-1.16782e-07
4.86849e-08
-1.24937e-07
4.10938e-08
-1.32981e-07
3.47119e-08
-1.40978e-07
2.95486e-08
-1.48991e-07
2.5487e-08
-1.57064e-07
2.23256e-08
-1.6522e-07
1.98724e-08
-1.73466e-07
1.80224e-08
-1.81805e-07
1.68251e-08
-1.9025e-07
1.64715e-08
-1.98831e-07
1.72655e-08
-2.07607e-07
1.95594e-08
-2.16661e-07
2.37214e-08
-2.26101e-07
3.00926e-08
-2.3605e-07
3.90032e-08
-2.46646e-07
5.07873e-08
-2.58031e-07
6.58034e-08
-2.70357e-07
8.45455e-08
-2.83787e-07
1.07596e-07
-2.98493e-07
1.35848e-07
-3.14688e-07
1.70407e-07
-3.32593e-07
2.12723e-07
-3.52479e-07
2.64917e-07
-3.74667e-07
3.29053e-07
-3.99363e-07
4.09162e-07
-4.26985e-07
5.08231e-07
-4.5736e-07
6.33494e-07
-4.90591e-07
7.90129e-07
-5.25378e-07
9.90277e-07
-5.59889e-07
1.24246e-06
-5.89477e-07
1.56433e-06
-6.0779e-07
1.96088e-06
2.45256e-06
-6.03127e-07
-8.69426e-10
1.63591e-08
-3.23216e-09
4.32893e-08
-6.78858e-09
6.48607e-08
-1.12695e-08
8.06458e-08
-1.63356e-08
8.95416e-08
-2.17189e-08
9.3473e-08
-2.74219e-08
9.61514e-08
-3.36758e-08
1.00121e-07
-4.07082e-08
1.05405e-07
-4.85844e-08
1.10138e-07
-5.71777e-08
1.12127e-07
-6.62457e-08
1.10148e-07
-7.55262e-08
1.04362e-07
-8.48105e-08
9.58613e-08
-9.39658e-08
8.59845e-08
-1.02922e-07
7.58253e-08
-1.11657e-07
6.60881e-08
-1.20179e-07
5.72028e-08
-1.28527e-07
4.94369e-08
-1.36758e-07
4.29387e-08
-1.44941e-07
3.77265e-08
-1.53135e-07
3.36776e-08
-1.61387e-07
3.05721e-08
-1.69714e-07
2.81962e-08
-1.78127e-07
2.64299e-08
-1.86625e-07
2.53189e-08
-1.95224e-07
2.50646e-08
-2.03954e-07
2.59914e-08
-2.12879e-07
2.84786e-08
-2.22082e-07
3.29198e-08
-2.31675e-07
3.96806e-08
-2.41782e-07
4.91054e-08
-2.52541e-07
6.15412e-08
-2.64095e-07
7.7352e-08
-2.76593e-07
9.70368e-08
-2.90195e-07
1.21193e-07
-3.05068e-07
1.50717e-07
-3.21418e-07
1.86753e-07
-3.3946e-07
2.30762e-07
-3.5944e-07
2.84894e-07
-3.8166e-07
3.51271e-07
-4.06284e-07
4.33788e-07
-4.33646e-07
5.35594e-07
-4.63516e-07
6.63371e-07
-4.95769e-07
8.22388e-07
-5.29015e-07
1.02353e-06
-5.6109e-07
1.27454e-06
-5.87352e-07
1.5906e-06
-6.01351e-07
1.97488e-06
2.4432e-06
-5.91978e-07
-8.95977e-10
1.72517e-08
-3.33584e-09
4.57223e-08
-7.01361e-09
6.85323e-08
-1.16376e-08
8.52635e-08
-1.68634e-08
9.47614e-08
-2.24214e-08
9.9025e-08
-2.83138e-08
1.02038e-07
-3.47767e-08
1.06577e-07
-4.20416e-08
1.12664e-07
-5.01697e-08
1.1826e-07
-5.90251e-08
1.20977e-07
-6.83557e-08
1.19474e-07
-7.78927e-08
1.13894e-07
-8.74238e-08
1.05388e-07
-9.68144e-08
9.53706e-08
-1.05994e-07
8.50012e-08
-1.14942e-07
7.5031e-08
-1.23668e-07
6.59241e-08
-1.32211e-07
5.79759e-08
-1.40633e-07
5.13565e-08
-1.49003e-07
4.60919e-08
-1.57381e-07
4.20523e-08
-1.65812e-07
3.89982e-08
-1.74313e-07
3.66935e-08
-1.82891e-07
3.50035e-08
-1.91547e-07
3.39708e-08