/*--------------------------------*- C++ -*----------------------------------*\
  =========                 |
  \\      /  F ield         | OpenFOAM: The Open Source CFD Toolbox
   \\    /   O peration     | Website:  https://openfoam.org
    \\  /    A nd           | Version:  7
     \\/     M anipulation  |
\*---------------------------------------------------------------------------*/
FoamFile
{
    version     2.0;
    format      ascii;
    class       volScalarField;
    location    "0.21";
    object      p;
}
// * * * * * * * * * * * * * * * * * * * * * * * * * * * * * * * * * * * * * //

dimensions      [0 2 -2 0 0 0 0];

internalField   nonuniform List<scalar> 
70000
(
0.10327
0.0258082
0.0132738
0.0157004
0.0158476
0.0147639
0.0137943
0.013051
0.0124237
0.0118643
0.0113596
0.0109013
0.0104816
0.0100938
0.00973224
0.00939238
0.00907047
0.0087634
0.00846855
0.00818373
0.00790701
0.00763672
0.00737137
0.00710962
0.00685023
0.00659206
0.00633405
0.00607515
0.0058144
0.00555079
0.00528339
0.00501114
0.00473311
0.00444811
0.00415518
0.00385295
0.00354027
0.00321576
0.00287758
0.00252512
0.00215411
0.0017677
0.00135358
0.000928474
0.000454332
-6.48271e-06
-0.000576939
-0.00103479
-0.00180918
-0.00206564
0.0989024
0.0261751
0.0134768
0.015796
0.0159021
0.0147999
0.0138224
0.0130742
0.0124431
0.0118809
0.011374
0.010914
0.0104929
0.010104
0.00974153
0.00940088
0.00907828
0.00877062
0.00847526
0.00818999
0.00791286
0.00764221
0.00737653
0.00711448
0.00685482
0.0065964
0.00633816
0.00607904
0.00581808
0.00555428
0.00528668
0.00501425
0.00473604
0.00445087
0.00415775
0.00385533
0.00354246
0.00321775
0.00287936
0.00252667
0.0021554
0.00176872
0.00135427
0.000928821
0.000454216
-7.15636e-06
-0.000578113
-0.00103832
-0.00180783
-0.00203936
0.095322
0.0271152
0.0138172
0.0159251
0.0159764
0.0148446
0.0138547
0.0131003
0.0124648
0.0118993
0.0113898
0.0109279
0.0105053
0.0101151
0.00975157
0.00941004
0.0090867
0.0087784
0.00848248
0.00819671
0.00791916
0.00764812
0.0073821
0.00711973
0.00685979
0.00660111
0.00634262
0.00608328
0.00582211
0.00555811
0.00529033
0.00501772
0.00473933
0.00445399
0.00416071
0.00385813
0.00354509
0.0032202
0.00288162
0.00252875
0.00215725
0.00177037
0.00135559
0.00092992
0.000454864
-6.78509e-06
-0.000578216
-0.00104105
-0.00178611
-0.00202483
0.0922281
0.0282173
0.014287
0.0160993
0.0160774
0.0149023
0.0138929
0.0131303
0.0124894
0.0119198
0.0114073
0.010943
0.0105186
0.010127
0.0097623
0.0094198
0.00909564
0.00878664
0.00849012
0.00820382
0.0079258
0.00765436
0.00738798
0.00712529
0.00686505
0.00660611
0.00634738
0.00608782
0.00582645
0.00556226
0.00529431
0.00502154
0.004743
0.00445752
0.0041641
0.00386139
0.00354823
0.00322323
0.00288453
0.00253155
0.00215993
0.00177294
0.00135805
0.000932228
0.000457139
-4.91726e-06
-0.000575103
-0.00104268
-0.00174942
-0.00201908
0.0892689
0.0293141
0.0148534
0.0163202
0.0162123
0.0149804
0.0139422
0.0131676
0.0125196
0.0119446
0.011428
0.0109607
0.0105341
0.0101407
0.00977454
0.00943086
0.00910571
0.00879587
0.00849865
0.00821175
0.0079332
0.0076613
0.00739451
0.00713146
0.00687091
0.00661169
0.00635271
0.00609292
0.00583136
0.00556699
0.00529889
0.00502598
0.00474732
0.00446174
0.00416823
0.00386546
0.00355225
0.00322722
0.00288851
0.00253555
0.00216398
0.00177705
0.00136232
0.000936559
0.000462035
-5.82004e-07
-0.000567229
-0.00104116
-0.00170125
-0.00200796
0.0863602
0.0303535
0.0154691
0.0165678
0.016375
0.0150807
0.014005
0.0132144
0.0125573
0.0119754
0.0114535
0.0109824
0.0105528
0.0101571
0.00978913
0.00944395
0.00911757
0.00880671
0.00850861
0.00822097
0.00794179
0.00766934
0.00740207
0.00713862
0.00687771
0.00661817
0.00635892
0.00609891
0.00583714
0.00557261
0.00530437
0.00503135
0.00475262
0.00446699
0.00417346
0.00387071
0.00355755
0.00323263
0.00289407
0.00254131
0.00217003
0.00178343
0.00136925
0.000943892
0.000470666
7.7297e-06
-0.000552866
-0.00103348
-0.00164341
-0.00198564
0.0834958
0.0313165
0.0161004
0.0168202
0.0165524
0.0151983
0.0140804
0.0132706
0.012603
0.0120129
0.0114846
0.0110087
0.0105755
0.010177
0.00980673
0.0094597
0.00913179
0.00881965
0.00852048
0.00823194
0.00795198
0.00767887
0.00741104
0.0071471
0.00688577
0.00662588
0.00636633
0.00610607
0.0058441
0.00557941
0.00531106
0.00503798
0.00475922
0.00447361
0.00418016
0.00387755
0.00356458
0.00323994
0.00290173
0.00254944
0.00217875
0.00179286
0.00137974
0.000955285
0.000484379
2.1582e-05
-0.000530337
-0.00101658
-0.00157689
-0.0019487
0.0806818
0.0321951
0.0167314
0.0170659
0.0167335
0.0153268
0.0141648
0.0133341
0.0126553
0.0120564
0.0115211
0.0110397
0.0106024
0.0102006
0.00982766
0.00947844
0.00914872
0.00883506
0.00853462
0.00824499
0.00796412
0.00769022
0.00742173
0.00715721
0.00689541
0.00663511
0.00637523
0.0061147
0.00585253
0.0055877
0.00531927
0.00504617
0.00476745
0.00448197
0.00418871
0.00388637
0.00357378
0.00324963
0.00291203
0.00256053
0.00219084
0.00180613
0.00139472
0.0009718
0.000504472
4.2546e-05
-0.000497883
-0.00098758
-0.00150197
-0.00189438
0.0779239
0.0329865
0.0173569
0.0173005
0.0169122
0.0154613
0.0142549
0.0134023
0.0127122
0.0121045
0.0115619
0.0110748
0.010633
0.0102276
0.00985179
0.00950015
0.0091684
0.00885304
0.00855115
0.00826029
0.00797838
0.00770359
0.00743433
0.00716917
0.00690682
0.00664608
0.00638584
0.00612503
0.00586266
0.00559772
0.00532924
0.00505618
0.0047776
0.00449234
0.0041994
0.00389753
0.00358551
0.00326212
0.00292545
0.00257513
0.00220691
0.00182393
0.001415
0.000994391
0.000532056
7.21159e-05
-0.000454302
-0.000944173
-0.00141824
-0.00182086
0.0752268
0.0336904
0.0179758
0.017524
0.0170854
0.0155991
0.0143487
0.0134733
0.012772
0.0121557
0.0116057
0.0111129
0.0106665
0.0102575
0.0098786
0.00952443
0.00919055
0.00887337
0.00856994
0.00827776
0.00799471
0.00771895
0.00744886
0.00718301
0.00692008
0.00665886
0.00639825
0.00613717
0.00587462
0.00560959
0.00534112
0.00506818
0.00478982
0.00450492
0.00421247
0.00391125
0.00360004
0.00327771
0.00294232
0.0025936
0.0022274
0.00184677
0.0014412
0.00102378
0.000567934
0.000111441
-0.00039874
-0.000884784
-0.00132493
-0.00172748
0.0725939
0.0343073
0.0185872
0.017737
0.0172519
0.0157385
0.014445
0.0135458
0.0128333
0.0122086
0.0116515
0.0111529
0.010702
0.0102893
0.00990745
0.00955072
0.00921467
0.00889565
0.00859063
0.00829709
0.00801287
0.00773611
0.00746518
0.00719861
0.00693509
0.00667339
0.00641241
0.00615108
0.00588838
0.00562331
0.00535493
0.0050822
0.00480418
0.00451977
0.00422797
0.00392762
0.00361748
0.00329651
0.00296279
0.00261614
0.00225252
0.00187491
0.00147361
0.00106034
0.000612495
0.000161201
-0.000330984
-0.000808736
-0.00122113
-0.00161462
0.0700278
0.0348376
0.0191898
0.0179406
0.0174107
0.0158789
0.0145435
0.0136194
0.0128956
0.0122628
0.0116986
0.0111943
0.0107389
0.0103226
0.00993771
0.00957846
0.00924026
0.0089194
0.00861281
0.00831792
0.00803254
0.00775478
0.007483
0.00721572
0.00695162
0.00668947
0.00642816
0.0061666
0.00590381
0.00563877
0.00537054
0.00509811
0.00482055
0.00453679
0.00424582
0.00394655
0.00363775
0.00331847
0.0029868
0.00264266
0.00228223
0.00190829
0.00151218
0.00110407
0.000665614
0.000221472
-0.000251573
-0.000716749
-0.00110616
-0.00148351
0.0675315
0.0352816
0.0197815
0.018136
0.0175611
0.0160193
0.0146441
0.0136939
0.0129586
0.0123178
0.0117466
0.0112366
0.0107767
0.0103568
0.00996898
0.00960723
0.00926691
0.00894424
0.0086361
0.00833987
0.00805335
0.00777463
0.00750202
0.00723406
0.00696941
0.00670684
0.00644523
0.0061835
0.00592067
0.00565573
0.00538774
0.00511572
0.00483874
0.00455577
0.00426581
0.00396784
0.00366062
0.00334333
0.00301409
0.00267291
0.00231622
0.00194659
0.00155651
0.00115458
0.000726695
0.000291693
-0.000161585
-0.000610278
-0.000979871
-0.00133621
0.0651072
0.0356404
0.0203599
0.0183246
0.0177026
0.016159
0.0147466
0.0137694
0.013022
0.0123735
0.0117954
0.0112796
0.0108153
0.0103918
0.010001
0.00963678
0.00929436
0.00896989
0.00866022
0.00836268
0.00807505
0.00779537
0.00752198
0.00725337
0.0069882
0.00672524
0.00646338
0.00620153
0.00593872
0.00567394
0.00540628
0.00513477
0.00485848
0.00457644
0.00428766
0.00399117
0.00368578
0.00337075
0.00304428
0.00270645
0.00235402
0.00198927
0.00160598
0.00121116
0.000794801
0.000370793
-6.24545e-05
-0.000491484
-0.00084164
-0.00117532
0.0627574
0.0359151
0.0209221
0.018508
0.0178348
0.016297
0.0148509
0.0138458
0.013086
0.0124298
0.0118449
0.0113234
0.0108546
0.0104275
0.0100337
0.00966699
0.00932246
0.00899621
0.00868501
0.00838618
0.00809744
0.00781684
0.00754267
0.00727343
0.00700778
0.00674448
0.0064824
0.00622048
0.00595774
0.0056932
0.00542594
0.00515502
0.00487953
0.00459853
0.00431107
0.00401624
0.00371289
0.00340035
0.00307696
0.00274281
0.00239508
0.00203572
0.00165983
0.00127298
0.000868837
0.000457435
4.42035e-05
-0.000362927
-0.000695844
-0.00100349
0.060484
0.0361074
0.021465
0.0186875
0.0179575
0.0164324
0.0149568
0.0139232
0.0131502
0.0124867
0.0118951
0.0113678
0.0108944
0.0104638
0.010067
0.00969779
0.00935115
0.00902311
0.00871039
0.00841027
0.00812043
0.00783892
0.00756399
0.00729415
0.00702804
0.00676441
0.00650215
0.00624021
0.00597758
0.00571333
0.00544653
0.00517628
0.00490167
0.00462183
0.00433581
0.00404278
0.00374164
0.0034318
0.00311174
0.00278156
0.00243888
0.00208535
0.00171733
0.00133918
0.000947731
0.000550237
0.000156843
-0.000227074
-0.000542292
-0.000822974
0.0582889
0.0362194
0.0219855
0.0188647
0.0180706
0.0165643
0.015064
0.0140015
0.0132149
0.012544
0.0119459
0.0114129
0.0109349
0.0105006
0.0101009
0.00972916
0.0093804
0.00905057
0.00873633
0.00843491
0.00814399
0.00786156
0.00758589
0.00731546
0.0070489
0.00678498
0.00652256
0.00626061
0.00599815
0.00573422
0.00546794
0.00519842
0.00492478
0.00464618
0.0043617
0.0040706
0.00377181
0.00346484
0.00314832
0.00282235
0.00248501
0.00213767
0.00177788
0.00140905
0.00103057
0.00064796
0.000274161
-8.59769e-05
-0.000382478
-0.000635731
0.0561731
0.0362535
0.0224806
0.0190408
0.0181743
0.0166915
0.0151722
0.0140809
0.0132797
0.0126016
0.0119973
0.0114586
0.010976
0.010538
0.0101353
0.0097611
0.00941022
0.00907858
0.00876281
0.0084601
0.00816809
0.00788476
0.00760835
0.00733733
0.00707034
0.00680614
0.00654359
0.00628167
0.00601939
0.00575584
0.00549012
0.00522138
0.00494877
0.00467148
0.00438864
0.00409956
0.00380327
0.0034993
0.00318649
0.00286494
0.00253316
0.00219232
0.00184103
0.00148201
0.00111668
0.000749619
0.000395164
5.88646e-05
-0.00021774
-0.000443342
0.0541376
0.0362128
0.0229473
0.0192165
0.0182687
0.0168131
0.0152809
0.0141612
0.0133448
0.0126596
0.0120492
0.0115049
0.0110177
0.0105761
0.0101703
0.0097936
0.00944059
0.00910715
0.00878985
0.00848584
0.00819274
0.0079085
0.00763136
0.00735977
0.00709236
0.00682789
0.00656523
0.00630336
0.0060413
0.00577815
0.00551304
0.00524513
0.00497361
0.0046977
0.00441659
0.00412962
0.00383592
0.00353509
0.00322615
0.00290918
0.00258317
0.00224908
0.00190648
0.00155768
0.00120559
0.000854497
0.000519156
0.000206445
-4.911e-05
-0.000247029
0.0521828
0.0361006
0.023383
0.0193925
0.0183544
0.0169283
0.0153895
0.0142425
0.01341
0.0127177
0.0121016
0.0115518
0.0110599
0.0106146
0.0102059
0.00982667
0.00947153
0.00913627
0.00881744
0.00851213
0.00821794
0.0079328
0.00765494
0.00738278
0.00711496
0.00685024
0.00658749
0.00632569
0.00606389
0.00580118
0.00553671
0.00526968
0.0049993
0.00472484
0.00444552
0.00416076
0.00386976
0.00357218
0.00326723
0.00295502
0.00263492
0.00230783
0.00197407
0.0016358
0.001297
0.000962113
0.000645682
0.000356131
0.000122616
-4.77037e-05
0.0503086
0.0359209
0.023785
0.0195689
0.0184319
0.0170361
0.0154976
0.0143247
0.0134754
0.0127759
0.0121544
0.0115992
0.0111027
0.0106537
0.0102421
0.0098603
0.00950302
0.00916596
0.00884559
0.00853899
0.00824371
0.00795768
0.00767909
0.00740638
0.00713816
0.00687321
0.00661039
0.00634869
0.00608716
0.00582492
0.00556114
0.00529504
0.00502586
0.0047529
0.00447546
0.00419298
0.00390478
0.00361056
0.00330973
0.00300243
0.00268839
0.00236851
0.00204373
0.00171624
0.00139075
0.00107215
0.000774457
0.000507567
0.000296644
0.000153861
0.0485145
0.0356781
0.0241507
0.0197457
0.018502
0.017136
0.0156043
0.0144077
0.013541
0.0128341
0.0122075
0.0116471
0.0111461
0.0106934
0.0102787
0.00989447
0.00953508
0.0091962
0.0088743
0.00856641
0.00827005
0.00798313
0.00770383
0.00743057
0.00716198
0.00689681
0.00663394
0.00637236
0.00611114
0.00584941
0.00558636
0.00532124
0.00505331
0.00478193
0.00450643
0.00422632
0.00394102
0.00365027
0.00335368
0.00305142
0.00274358
0.00243108
0.0021154
0.00179888
0.00148674
0.0011844
0.000905284
0.000660543
0.000472534
0.000356985
0.0467998
0.0353769
0.0244779
0.0199224
0.0185656
0.0172273
0.0157089
0.0144913
0.0136066
0.0128922
0.0122609
0.0116955
0.0111899
0.0107336
0.0103159
0.0099292
0.00956769
0.00922701
0.00890358
0.00859441
0.00829698
0.00800917
0.00772917
0.00745539
0.00718643
0.00692106
0.00665816
0.00639674
0.00613586
0.00587467
0.0056124
0.0053483
0.00508168
0.00481194
0.00453846
0.00426081
0.00397849
0.00369133
0.00339909
0.00310202
0.0028005
0.00249556
0.00218908
0.00188368
0.00158488
0.00129872
0.001038
0.000814886
0.000649857
0.000561063
0.0451632
0.0350224
0.0247647
0.0200979
0.0186236
0.0173098
0.0158106
0.0145754
0.0136724
0.01295
0.0123143
0.0117443
0.0112342
0.0107742
0.0103537
0.00996446
0.00960085
0.00925839
0.00893344
0.00862299
0.00832449
0.00803582
0.00775513
0.00748083
0.00721153
0.00694598
0.00668308
0.00642184
0.00616133
0.00590073
0.00563927
0.00537625
0.005111
0.00484296
0.00457158
0.00429647
0.00401724
0.00373377
0.00344599
0.00315425
0.00285917
0.00256193
0.00226477
0.00197058
0.00168512
0.00141498
0.00117246
0.000970429
0.000828203
0.000765491
0.0436032
0.0346199
0.0250094
0.020271
0.0186768
0.0173832
0.0159085
0.0146596
0.0137384
0.0130076
0.0123678
0.0117933
0.0112789
0.0108153
0.0103919
0.0100002
0.00963456
0.00929033
0.00896388
0.00865216
0.00835261
0.00806308
0.00778171
0.00750692
0.00723729
0.00697159
0.00670871
0.00644768
0.00618758
0.00592761
0.00566701
0.00540512
0.0051413
0.00487504
0.00460583
0.00433335
0.00405729
0.00377762
0.00349442
0.00320813
0.00291961
0.00263021
0.00234243
0.00205952
0.00178737
0.00153306
0.00130848
0.00112698
0.00100716
0.000969659
0.0421178
0.0341748
0.0252108
0.0204401
0.0187263
0.0174475
0.0160017
0.0147435
0.0138044
0.0130649
0.0124211
0.0118427
0.0113241
0.0108569
0.0104305
0.0100365
0.00966881
0.00932283
0.00899489
0.00868192
0.00838134
0.00809096
0.00780894
0.00753367
0.00726373
0.0069979
0.00673508
0.00647429
0.00621464
0.00595534
0.00569565
0.00543494
0.00517262
0.0049082
0.00464124
0.00437147
0.00409869
0.00382292
0.0035444
0.00326369
0.00298183
0.00270038
0.00242207
0.00215045
0.00189156
0.00165284
0.0014459
0.00128434
0.00118632
0.00117295
0.040705
0.0336927
0.025368
0.0206033
0.0187731
0.017503
0.0160895
0.0148267
0.0138705
0.0131218
0.0124742
0.0118922
0.0113696
0.0108989
0.0104697
0.0100733
0.00970359
0.00935588
0.00902648
0.00871228
0.00841068
0.00811948
0.00783682
0.00756109
0.00729088
0.00702495
0.00676221
0.0065017
0.00624253
0.00598394
0.00572522
0.00546575
0.00520498
0.00494247
0.00467784
0.00441087
0.00414146
0.0038697
0.00359596
0.00332093
0.00304584
0.00277243
0.00250364
0.00224331
0.00199757
0.00177418
0.00158451
0.00144224
0.00136525
0.00137474
0.0393621
0.0331794
0.0254806
0.0207582
0.0188178
0.01755
0.0161711
0.0149085
0.0139366
0.0131783
0.0125269
0.0119417
0.0114154
0.0109412
0.0105092
0.0101106
0.00973889
0.00938948
0.00905864
0.00874323
0.00844064
0.00814864
0.00786537
0.00758921
0.00731874
0.00705273
0.00679012
0.00652992
0.00627128
0.00601344
0.00575574
0.00549756
0.00523842
0.00497789
0.00471567
0.00445159
0.00418563
0.00391798
0.00364913
0.00337988
0.00311164
0.00284635
0.00258711
0.00233802
0.00210531
0.00189693
0.00172408
0.00160041
0.00154352
0.00157443
0.0380867
0.0326403
0.0255488
0.0209023
0.0188611
0.0175891
0.0162458
0.0149885
0.0140025
0.0132342
0.0125791
0.0119912
0.0114614
0.0109839
0.0105492
0.0101483
0.00977468
0.00942363
0.00909138
0.00877479
0.00847122
0.00817846
0.0078946
0.00761802
0.00734733
0.00708129
0.00681882
0.00655897
0.00630091
0.00604388
0.00578724
0.00553042
0.00527296
0.0050145
0.00475476
0.00449365
0.00423123
0.00396779
0.00370391
0.00344055
0.00317924
0.0029221
0.00267242
0.0024345
0.00221464
0.00202092
0.00186439
0.00175854
0.0017207
0.00177142
0.0368758
0.0320808
0.0255733
0.0210332
0.0189034
0.0176209
0.0163131
0.015066
0.0140682
0.0132898
0.0126308
0.0120405
0.0115076
0.0110269
0.0105895
0.0101864
0.00981096
0.0094583
0.00912468
0.00880694
0.00850244
0.00820893
0.00792451
0.00764756
0.00737667
0.00711063
0.00684835
0.00658889
0.00633144
0.00607527
0.00581975
0.00556436
0.00530865
0.00505231
0.00479514
0.00453709
0.0042783
0.00401915
0.00376034
0.00350293
0.00324861
0.00299967
0.00275952
0.00253265
0.00232543
0.00214597
0.00200518
0.00191632
0.00189632
0.00196514
0.0357266
0.0315061
0.0255551
0.0211485
0.0189447
0.0176463
0.0163727
0.0151402
0.0141332
0.0133447
0.0126819
0.0120895
0.0115539
0.0110701
0.0106301
0.0102249
0.0098477
0.0094935
0.00915854
0.0088397
0.00853429
0.00824006
0.00795512
0.00767783
0.00740678
0.00714076
0.00687871
0.0066197
0.00636291
0.00610765
0.00585331
0.00559939
0.0053455
0.00509136
0.00483683
0.00458192
0.00432685
0.00407207
0.0038184
0.00356703
0.00331974
0.00307901
0.00284834
0.00263238
0.00243753
0.00227189
0.0021462
0.0020734
0.00206996
0.00215505
0.034636
0.0309208
0.0254959
0.021246
0.0189847
0.0176659
0.0164242
0.0152104
0.0141974
0.0133992
0.0127322
0.0121381
0.0116001
0.0111136
0.010671
0.0102638
0.00988487
0.00952919
0.00919296
0.00887304
0.00856677
0.00827187
0.00798643
0.00770883
0.00743767
0.00717172
0.00690994
0.00665141
0.00639533
0.00614103
0.00588793
0.00563556
0.00538355
0.00513169
0.00487987
0.00462818
0.0043769
0.00412658
0.00387812
0.00363283
0.00339261
0.00316006
0.0029388
0.00273356
0.00255076
0.00239846
0.00228715
0.00222942
0.00224116
0.00234064
0.033601
0.0303293
0.0253978
0.0213239
0.0190227
0.0176805
0.0164678
0.015276
0.0142603
0.013453
0.0127816
0.0121861
0.0116462
0.0111571
0.0107122
0.010303
0.00992245
0.00956536
0.00922792
0.00890698
0.00859988
0.00830434
0.00801846
0.00774059
0.00746935
0.00720351
0.00694205
0.00668405
0.00642874
0.00617545
0.00592364
0.00567288
0.00542283
0.00517331
0.00492428
0.00467588
0.00442847
0.00418268
0.00393949
0.00370032
0.00346718
0.00324277
0.0030308
0.00283606
0.00266496
0.00252545
0.00242775
0.00238403
0.00240951
0.00252143
0.0326184
0.0297352
0.0252634
0.0213806
0.0190578
0.0176907
0.0165034
0.0153363
0.0143214
0.013506
0.0128302
0.0122334
0.0116921
0.0112008
0.0107536
0.0103425
0.00996041
0.00960199
0.00926339
0.0089415
0.00863362
0.0083375
0.00805121
0.00777312
0.00750184
0.00723616
0.00697506
0.00671764
0.00646314
0.00621093
0.00596048
0.00571138
0.00546336
0.00521626
0.00497009
0.00472506
0.00448158
0.00424038
0.00400251
0.00376948
0.0035434
0.00332706
0.00312423
0.00293975
0.00277994
0.00265262
0.00256772
0.00253688
0.00257459
0.00269698
0.0316854
0.0291422
0.0250956
0.021415
0.0190887
0.0176971
0.0165315
0.0153909
0.0143803
0.0135582
0.0128779
0.0122798
0.0117375
0.0112443
0.0107951
0.0103823
0.00999871
0.00963905
0.00929938
0.00897658
0.00866798
0.00837132
0.00808468
0.00780641
0.00753514
0.00726968
0.00700899
0.0067522
0.00649858
0.0062475
0.00599846
0.0057511
0.00550517
0.00526055
0.00501731
0.00477571
0.00453624
0.00429967
0.00406716
0.00384028
0.00362123
0.00341287
0.003219
0.00304446
0.00289551
0.00277974
0.00270674
0.0026876
0.00273601
0.00286689
0.0307989
0.0285529
0.0248974
0.0214261
0.019114
0.0177
0.0165524
0.0154391
0.0144364
0.0136093
0.0129246
0.0123254
0.0117825
0.0112878
0.0108367
0.0104222
0.0100373
0.00967651
0.00933585
0.00901222
0.00870297
0.00840583
0.00811888
0.00784049
0.00756928
0.00730407
0.00704385
0.00678775
0.00653505
0.00628517
0.00603761
0.00579205
0.00554827
0.00530621
0.00506597
0.00482786
0.00459245
0.00436056
0.00413342
0.00391268
0.0037006
0.00350009
0.00331497
0.00315005
0.00301144
0.00290655
0.00284452
0.00283586
0.0028934
0.0030308
0.029956
0.02797
0.0246722
0.0214136
0.0191324
0.0176997
0.0165666
0.0154808
0.0144892
0.0136591
0.0129703
0.01237
0.0118268
0.011331
0.0108783
0.0104623
0.0100762
0.00971434
0.00937279
0.0090484
0.00873856
0.008441
0.0081538
0.00787535
0.00760426
0.00733936
0.00707966
0.00682431
0.0065726
0.00632397
0.00607796
0.00583426
0.0055927
0.00535325
0.00511607
0.00488152
0.0046502
0.00442302
0.00420127
0.00398664
0.00378145
0.00358864
0.00341202
0.00325633
0.00312754
0.00303278
0.00298075
0.00298133
0.00304641
0.00318841
0.0291541
0.0273954
0.0244234
0.0213775
0.0191422
0.0176961
0.0165745
0.0155158
0.0145381
0.0137072
0.0130148
0.0124134
0.0118703
0.0113738
0.0109198
0.0105025
0.0101152
0.0097525
0.00941016
0.00908511
0.00877475
0.00847683
0.00818946
0.00791099
0.00764008
0.00737556
0.00711644
0.00686189
0.00661123
0.00636391
0.00611951
0.00587774
0.00563846
0.00540169
0.00516763
0.00493668
0.0047095
0.00448705
0.00427067
0.0040621
0.0038637
0.0036784
0.00351
0.00336314
0.00324359
0.00315819
0.00311516
0.00312371
0.00319474
0.00333945
0.0283904
0.0268308
0.0241542
0.0213181
0.0191422
0.0176891
0.0165767
0.0155439
0.0145826
0.0137534
0.0130581
0.0124557
0.0119129
0.0114162
0.0109612
0.0105427
0.0101545
0.00979095
0.00944793
0.00912232
0.00881152
0.00851333
0.00822583
0.00794743
0.00767676
0.00741267
0.00715419
0.00690051
0.00665096
0.00640502
0.00616229
0.00592251
0.00568558
0.00545154
0.00522065
0.00499335
0.00477034
0.00455262
0.00434158
0.00413901
0.00394726
0.00376927
0.00360877
0.00347028
0.00335937
0.00328251
0.00324747
0.00326268
0.00333812
0.00348371
0.0276627
0.0262774
0.0238679
0.0212361
0.0191309
0.0176781
0.0165736
0.0155653
0.0146222
0.0137971
0.0130999
0.0124968
0.0119544
0.011458
0.0110023
0.0105829
0.0101939
0.00982964
0.00948607
0.00916
0.00884886
0.00855046
0.00826293
0.00798466
0.00771429
0.0074507
0.00719293
0.00694018
0.00669181
0.00644731
0.00620631
0.00596859
0.00573406
0.00550282
0.00527514
0.00505151
0.00483269
0.0046197
0.00441396
0.00421729
0.00403203
0.00386111
0.00370817
0.00357758
0.00347466
0.00340551
0.00337738
0.00339799
0.00347631
0.00362105
0.0269685
0.0257363
0.0235674
0.0211326
0.0191075
0.0176627
0.0165656
0.0155802
0.0146567
0.0138381
0.0131402
0.0125365
0.0119949
0.011499
0.0110431
0.010623
0.0102333
0.00986854
0.00952455
0.00919812
0.00888674
0.00858823
0.00830074
0.00802267
0.00775269
0.00748966
0.00723267
0.00698092
0.00673379
0.00649079
0.00625159
0.00601598
0.00578391
0.00555551
0.00533109
0.00511117
0.00489653
0.00468825
0.00448775
0.00429687
0.00411793
0.00395381
0.00380804
0.00368484
0.00358924
0.00352695
0.00350462
0.0035294
0.00360913
0.00375136
0.0263057
0.0252081
0.0232557
0.0210089
0.0190711
0.0176422
0.0165529
0.0155887
0.0146857
0.0138758
0.0131787
0.0125747
0.0120341
0.0115392
0.0110834
0.0106629
0.0102727
0.00990759
0.00956331
0.00923666
0.00892514
0.00862662
0.00833925
0.00806147
0.00779194
0.00752956
0.00727341
0.00702272
0.0067769
0.00653548
0.00629813
0.0060647
0.00583515
0.00560963
0.0053885
0.0051723
0.00496185
0.00475823
0.0045629
0.00437767
0.00420484
0.00404722
0.00390823
0.00379188
0.00370291
0.00364662
0.00362905
0.00365671
0.00373644
0.00387463
0.0256724
0.0246932
0.0229352
0.0208665
0.0190213
0.0176158
0.0165355
0.0155911
0.0147091
0.01391
0.0132152
0.0126115
0.0120719
0.0115783
0.0111232
0.0107026
0.0103121
0.00994674
0.00960231
0.00927558
0.00896404
0.00866561
0.00837846
0.00810104
0.00783205
0.00757038
0.00731515
0.00706561
0.00682116
0.00658137
0.00634595
0.00611474
0.00588776
0.00566517
0.00544735
0.00523488
0.0050286
0.0048296
0.00463932
0.00445959
0.00429265
0.00414122
0.00400857
0.00389851
0.00381547
0.00376429
0.00375047
0.00377978
0.00385816
0.00399087
0.0250666
0.024192
0.0226083
0.0207071
0.0189577
0.0175828
0.0165136
0.0155877
0.0147267
0.0139402
0.0132493
0.0126466
0.0121084
0.0116164
0.0111622
0.0107419
0.0103513
0.00998593
0.00964151
0.00931484
0.00900341
0.00870516
0.00841833
0.00814137
0.007873
0.00761214
0.0073579
0.00710957
0.00686657
0.00662849
0.00639504
0.00616612
0.00594174
0.00572212
0.00550763
0.00529889
0.00509674
0.00490228
0.00471696
0.00454256
0.00438125
0.00423566
0.00410891
0.00400455
0.00392671
0.00387979
0.00386871
0.00389852
0.00397425
0.00410019
0.0244867
0.0237044
0.0222771
0.0205325
0.0188805
0.0175425
0.016487
0.0155788
0.0147385
0.0139661
0.0132808
0.0126798
0.0121433
0.0116532
0.0112004
0.0107807
0.0103904
0.0100251
0.00968086
0.00935439
0.0090432
0.00874527
0.00845886
0.00818246
0.0079148
0.00765482
0.00740166
0.00715461
0.00691313
0.00667681
0.00644541
0.00621882
0.0059971
0.00578046
0.00556932
0.00536429
0.00516623
0.00497624
0.00479573
0.00462645
0.00447052
0.00433041
0.00420908
0.00410984
0.00403647
0.00399295
0.00398362
0.00401282
0.00408474
0.00420274
0.023931
0.0232305
0.0219433
0.0203443
0.01879
0.0174943
0.0164555
0.0155646
0.0147446
0.0139874
0.0133093
0.0127111
0.0121766
0.0116887
0.0112377
0.0108189
0.0104291
0.0100642
0.00972029
0.00939418
0.00908339
0.0087859
0.00850002
0.00822428
0.00795743
0.00769842
0.00744641
0.00720073
0.00696083
0.00672635
0.00649705
0.00627284
0.0060538
0.00584017
0.00563238
0.00543104
0.00523701
0.00505139
0.00487555
0.00471119
0.00456033
0.00442533
0.00430893
0.00421422
0.0041446
0.00410368
0.00409508
0.00412264
0.00418969
0.00429874
0.0233982
0.0227701
0.0216086
0.0201444
0.0186865
0.0174377
0.0164188
0.0155453
0.0147452
0.014004
0.0133346
0.0127402
0.0122082
0.0117228
0.0112738
0.0108565
0.0104675
0.0101031
0.00975976
0.00943418
0.00912392
0.00882701
0.00854179
0.00826681
0.00800087
0.00774292
0.00749216
0.00724792
0.00700968
0.00677709
0.00654994
0.00632817
0.00611185
0.00590124
0.00569678
0.0054991
0.00530904
0.00512767
0.00495634
0.00479666
0.00465057
0.00452027
0.00440833
0.00431753
0.00425096
0.00421184
0.00420308
0.00422802
0.00428925
0.00438848
0.0228869
0.0223231
0.0212742
0.0199344
0.0185708
0.0173725
0.0163767
0.0155209
0.0147402
0.0140157
0.0133564
0.0127669
0.0122379
0.0117553
0.0113088
0.0108933
0.0105054
0.0101419
0.0097992
0.00947432
0.00916476
0.00886857
0.00858413
0.00831004
0.0080451
0.00778832
0.00753889
0.00729616
0.00705966
0.00682903
0.00660409
0.00638478
0.00617121
0.00596363
0.0057625
0.00556842
0.00538224
0.005205
0.00503799
0.00488276
0.00474112
0.00461513
0.00450713
0.00441965
0.00435541
0.00431738
0.00430756
0.00432905
0.00438361
0.00447228
0.0223958
0.0218892
0.0209413
0.019716
0.0184437
0.0172984
0.0163288
0.0154915
0.01473
0.0140225
0.0133745
0.012791
0.0122657
0.0117862
0.0113425
0.0109291
0.0105427
0.0101803
0.00983855
0.00951456
0.00920586
0.00891055
0.00862702
0.00835393
0.00809011
0.00783458
0.00758657
0.00734545
0.00711075
0.00688215
0.00665947
0.00644266
0.00623185
0.00602731
0.00582947
0.00563895
0.00545656
0.00528331
0.00512043
0.00496938
0.00483186
0.00470977
0.00460523
0.00452049
0.00445788
0.00441959
0.00440852
0.00442581
0.00447301
0.00455055
0.0219238
0.021468
0.0206109
0.0194907
0.0183061
0.0172155
0.0162749
0.0154571
0.0147145
0.0140244
0.0133886
0.0128123
0.0122914
0.0118154
0.0113748
0.0109639
0.0105794
0.0102183
0.00987774
0.00955482
0.00924717
0.00895288
0.00867042
0.00839845
0.00813586
0.0078817
0.0076352
0.00739577
0.00716294
0.00693643
0.00671605
0.00650178
0.00629376
0.00609224
0.00589766
0.00571063
0.00553192
0.00536251
0.00520356
0.00505643
0.0049227
0.00480409
0.00470251
0.00461995
0.00455838
0.0045197
0.00450611
0.0045185
0.00455774
0.00462374
0.0214699
0.0210595
0.0202837
0.0192599
0.0181589
0.0171238
0.0162148
0.0154178
0.014694
0.0140213
0.0133986
0.0128305
0.0123148
0.0118428
0.0114057
0.0109976
0.0106152
0.0102559
0.00991669
0.00959506
0.00928862
0.00899554
0.00871428
0.00844357
0.00818233
0.00792964
0.00768475
0.00744709
0.00721621
0.00699184
0.00677381
0.00656212
0.00635688
0.00615837
0.00596702
0.0057834
0.00560826
0.00544252
0.00528728
0.0051438
0.00501352
0.00489799
0.0047989
0.00471796
0.00465685
0.00461715
0.00460045
0.00460733
0.00463814
0.00469233
0.0210331
0.0206631
0.0199605
0.0190249
0.0180031
0.0170238
0.0161483
0.0153733
0.0146686
0.0140133
0.0134044
0.0128455
0.0123357
0.0118682
0.0114349
0.0110301
0.0106502
0.0102928
0.00995534
0.00963519
0.00933017
0.00903846
0.00875856
0.00848925
0.00822949
0.00797837
0.00773519
0.00749938
0.00727053
0.00704835
0.00683272
0.00662362
0.00642118
0.00622566
0.00603748
0.00585719
0.0056855
0.00552327
0.00537152
0.00523141
0.00510424
0.00499138
0.00489432
0.00481449
0.00475331
0.004712
0.00469165
0.00469255
0.0047146
0.00475688
0.0206125
0.0202786
0.0196419
0.0187868
0.0178398
0.0169157
0.0160754
0.0153237
0.0146383
0.0140005
0.0134059
0.0128571
0.0123541
0.0118915
0.0114624
0.0110612
0.0106842
0.0103292
0.00999359
0.00967517
0.00937176
0.00908159
0.00880322
0.00853545
0.00827728
0.00802786
0.00778648
0.00755261
0.00732585
0.00710594
0.00689275
0.00668626
0.00648661
0.00629406
0.00610899
0.00593193
0.00576356
0.00560466
0.00545618
0.00531916
0.00519476
0.0050842
0.00498872
0.00490953
0.00484779
0.00480434
0.0047799
0.00477446
0.00478756
0.00481793
0.0202074
0.0199056
0.0193281
0.0185467
0.01767
0.0168001
0.0159961
0.0152688
0.0146032
0.013983
0.0134031
0.0128652
0.0123697
0.0119127
0.0114882
0.0110908
0.0107172
0.0103647
0.0100314
0.00971491
0.00941331
0.00912487
0.00884819
0.00858212
0.00832568
0.00807806
0.0078386
0.00760676
0.00738216
0.00716457
0.00695384
0.00674999
0.00655312
0.0063635
0.00618148
0.00600757
0.00584237
0.00568663
0.00554119
0.00540699
0.00528504
0.00517639
0.00508208
0.00500309
0.00494032
0.00489433
0.00486545
0.00485341
0.00485746
0.0048761
0.0198168
0.019544
0.0190198
0.0183054
0.0174946
0.0166776
0.0159105
0.0152088
0.0145633
0.0139608
0.013396
0.0128696
0.0123824
0.0119316
0.0115121
0.011119
0.0107489
0.0103995
0.0100686
0.00975434
0.00945477
0.00916825
0.00889344
0.00862921
0.00837464
0.00812895
0.00789149
0.00766176
0.00743941
0.00722418
0.00701596
0.00681475
0.00662066
0.00643393
0.0062549
0.00608402
0.00592186
0.00576909
0.00562647
0.00549481
0.00537499
0.00526791
0.00517441
0.00509521
0.00503095
0.00498211
0.00494854
0.00492977
0.00492481
0.00493198
0.0194403
0.0191932
0.0187171