/*--------------------------------*- C++ -*----------------------------------*\
  =========                 |
  \\      /  F ield         | OpenFOAM: The Open Source CFD Toolbox
   \\    /   O peration     | Website:  https://openfoam.org
    \\  /    A nd           | Version:  7
     \\/     M anipulation  |
\*---------------------------------------------------------------------------*/
FoamFile
{
    version     2.0;
    format      ascii;
    class       surfaceScalarField;
    location    "0.21";
    object      phi;
}
// * * * * * * * * * * * * * * * * * * * * * * * * * * * * * * * * * * * * * //

dimensions      [0 3 -1 0 0 0 0];

internalField   nonuniform List<scalar> 
139350
(
6.45135e-08
9.2118e-08
3.19684e-08
3.25451e-08
2.30661e-08
8.90235e-09
1.95845e-08
3.48157e-09
1.7636e-08
1.94851e-09
1.62094e-08
1.42661e-09
1.50801e-08
1.12924e-09
1.41715e-08
9.08631e-10
1.34247e-08
7.46772e-10
1.27964e-08
6.28306e-10
1.22577e-08
5.38681e-10
1.17893e-08
4.68415e-10
1.13774e-08
4.1189e-10
1.10119e-08
3.6557e-10
1.06848e-08
3.27039e-10
1.03903e-08
2.94564e-10
1.01234e-08
2.66876e-10
9.88036e-09
2.43021e-10
9.65809e-09
2.22275e-10
9.45401e-09
2.04077e-10
9.26602e-09
1.87988e-10
9.09236e-09
1.73658e-10
8.93156e-09
1.60806e-10
8.78236e-09
1.492e-10
8.64371e-09
1.38651e-10
8.51471e-09
1.29e-10
8.3946e-09
1.20109e-10
8.28273e-09
1.11864e-10
8.17857e-09
1.0416e-10
8.08166e-09
9.69132e-11
7.99163e-09
9.00295e-11
7.90817e-09
8.34569e-11
7.83109e-09
7.70879e-11
7.76017e-09
7.0912e-11
7.6954e-09
6.47737e-11
7.63667e-09
5.87283e-11
7.58414e-09
5.25307e-11
7.53783e-09
4.63137e-11
7.49808e-09
3.9748e-11
7.46516e-09
3.29229e-11
7.43945e-09
2.57053e-11
7.42201e-09
1.74384e-11
7.41244e-09
9.56941e-12
7.41464e-09
-2.19829e-12
7.42397e-09
-9.32765e-12
7.45499e-09
-3.10246e-11
7.48265e-09
-2.76595e-11
7.58172e-09
-9.90639e-11
7.45091e-09
1.30806e-10
-3.53254e-09
1.09835e-08
1.25945e-07
1.27617e-07
9.12968e-08
6.71933e-08
7.19517e-08
2.82475e-08
6.12452e-08
1.41881e-08
5.48186e-08
8.37511e-09
5.03341e-08
5.91108e-09
4.68605e-08
4.60281e-09
4.40584e-08
3.71081e-09
4.17466e-08
3.05856e-09
3.97995e-08
2.57536e-09
3.81298e-08
2.20835e-09
3.66774e-08
1.92081e-09
3.53996e-08
1.68971e-09
3.42648e-08
1.5004e-09
3.32489e-08
1.34292e-09
3.23333e-08
1.21018e-09
3.15032e-08
1.09701e-09
3.07467e-08
9.99514e-10
3.00542e-08
9.14733e-10
2.94179e-08
8.40382e-10
2.88312e-08
7.74669e-10
2.82887e-08
7.16167e-10
2.77858e-08
6.63728e-10
2.73186e-08
6.16411e-10
2.68838e-08
5.73443e-10
2.64786e-08
5.34172e-10
2.61007e-08
4.98047e-10
2.5748e-08
4.64597e-10
2.54187e-08
4.33406e-10
2.51115e-08
4.04125e-10
2.48251e-08
3.76401e-10
2.45586e-08
3.49985e-10
2.43112e-08
3.24513e-10
2.40822e-08
2.99859e-10
2.38715e-08
2.75522e-10
2.36786e-08
2.51607e-10
2.35039e-08
2.27246e-10
2.33472e-08
2.03002e-10
2.32097e-08
1.77263e-10
2.30912e-08
1.51395e-10
2.29943e-08
1.22574e-10
2.29187e-08
9.31198e-11
2.2869e-08
5.91794e-11
2.28448e-08
2.20716e-11
2.28536e-08
-1.81681e-11
2.28981e-08
-7.55331e-11
2.29768e-08
-1.06325e-10
2.31676e-08
-2.8983e-10
2.32057e-08
9.26763e-11
-4.42251e-09
2.40956e-08
1.58754e-07
1.35266e-07
1.36534e-07
8.9413e-08
1.17511e-07
4.72708e-08
1.03347e-07
2.8352e-08
9.33685e-08
1.83534e-08
8.60861e-08
1.31935e-08
8.03981e-08
1.02909e-08
7.57676e-08
8.34133e-09
7.19116e-08
6.91448e-09
6.86422e-08
5.84478e-09
6.58256e-08
5.02498e-09
6.33668e-08
4.37963e-09
6.11971e-08
3.8594e-09
5.92653e-08
3.43217e-09
5.75322e-08
3.07602e-09
5.59671e-08
2.7753e-09
5.45456e-08
2.51851e-09
5.32481e-08
2.29701e-09
5.20586e-08
2.10421e-09
5.0964e-08
1.935e-09
4.99533e-08
1.78537e-09
4.90174e-08
1.65211e-09
4.81485e-08
1.53264e-09
4.734e-08
1.42484e-09
4.65865e-08
1.32697e-09
4.58831e-08
1.23756e-09
4.52258e-08
1.15538e-09
4.4611e-08
1.07935e-09
4.40359e-08
1.00854e-09
4.34978e-08
9.42171e-10
4.29948e-08
8.79468e-10
4.25249e-08
8.19834e-10
4.20869e-08
7.62526e-10
4.16796e-08
7.0718e-10
4.13023e-08
6.5281e-10
4.09544e-08
5.99524e-10
4.06361e-08
5.45544e-10
4.0347e-08
4.92103e-10
4.00888e-08
4.35453e-10
3.98607e-08
3.79447e-10
3.96674e-08
3.15945e-10
3.95062e-08
2.54345e-10
3.93874e-08
1.77897e-10
3.9304e-08
1.05542e-10
3.92776e-08
8.20162e-12
3.92936e-08
-9.15004e-11
3.93828e-08
-1.95561e-10
3.958e-08
-4.87081e-10
3.98182e-08
-1.45521e-10
-4.4491e-09
3.98448e-08
1.75612e-07
1.3117e-07
1.65629e-07
9.93961e-08
1.5275e-07
6.01496e-08
1.40155e-07
4.09469e-08
1.29493e-07
2.90155e-08
1.20876e-07
2.1811e-08
1.13788e-07
1.73787e-08
1.07834e-07
1.42955e-08
1.02762e-07
1.19861e-08
9.83897e-08
1.02172e-08
9.45762e-08
8.83848e-09
9.12156e-08
7.74025e-09
8.82277e-08
6.84729e-09
8.55509e-08
6.10895e-09
8.31369e-08
5.49003e-09
8.09472e-08
4.96501e-09
7.89508e-08
4.51496e-09
7.71223e-08
4.12551e-09
7.54409e-08
3.7856e-09
7.38893e-08
3.48661e-09
7.24529e-08
3.2217e-09
7.11196e-08
2.98541e-09
6.9879e-08
2.77331e-09
6.87221e-08
2.58174e-09
6.76413e-08
2.40771e-09
6.66302e-08
2.24865e-09
6.56832e-08
2.10243e-09
6.47953e-08
1.96718e-09
6.39626e-08
1.84131e-09
6.31814e-08
1.7234e-09
6.24486e-08
1.61217e-09
6.1762e-08
1.50653e-09
6.11192e-08
1.40525e-09
6.05188e-08
1.30764e-09
5.99595e-08
1.2121e-09
5.94403e-08
1.11869e-09
5.89613e-08
1.02455e-09
5.85217e-08
9.31668e-10
5.81235e-08
8.33677e-10
5.77654e-08
7.37539e-10
5.7453e-08
6.28403e-10
5.71826e-08
5.24755e-10
5.69671e-08
3.93321e-10
5.67968e-08
2.75858e-10
5.6699e-08
1.06065e-10
5.6654e-08
-4.65291e-11
5.67033e-08
-2.4492e-10
5.68616e-08
-6.45291e-10
5.71581e-08
-4.42073e-10
-4.33673e-09
5.70457e-08
1.84511e-07
1.23445e-07
1.82344e-07
1.01562e-07
1.76132e-07
6.63618e-08
1.67787e-07
4.92917e-08
1.59185e-07
3.76173e-08
1.51302e-07
2.96945e-08
1.44255e-07
2.44251e-08
1.37985e-07
2.0566e-08
1.32417e-07
1.75542e-08
1.27466e-07
1.5168e-08
1.23046e-07
1.32586e-08
1.19079e-07
1.17069e-08
1.15501e-07
1.04254e-08
1.12258e-07
9.35257e-09
1.09304e-07
8.44406e-09
1.06602e-07
7.66687e-09
1.04121e-07
6.99591e-09
1.01834e-07
6.41179e-09
9.97207e-08
5.89937e-09
9.77607e-08
5.44664e-09
9.59383e-08
5.04402e-09
9.424e-08
4.68373e-09
9.26539e-08
4.35943e-09
9.11698e-08
4.06586e-09
8.97789e-08
3.79863e-09
8.84735e-08
3.55402e-09
8.72471e-08
3.32887e-09
8.60938e-08
3.12045e-09
8.50087e-08
2.92639e-09
8.39875e-08
2.74459e-09
8.30266e-08
2.57313e-09
8.21227e-08
2.4104e-09
8.12733e-08
2.2546e-09
8.04764e-08
2.10462e-09
7.97302e-08
1.95822e-09
7.90336e-08
1.81533e-09
7.83862e-08
1.67193e-09
7.77871e-08
1.53074e-09
7.72381e-08
1.38267e-09
7.67379e-08
1.23774e-09
7.6292e-08
1.07436e-09
7.58969e-08
9.19823e-10
7.55654e-08
7.24835e-10
7.52889e-08
5.52318e-10
7.50926e-08
3.02446e-10
7.49632e-08
8.28364e-11
7.49331e-08
-2.14782e-10
7.50253e-08
-7.37536e-10
7.52739e-08
-6.90684e-10
-4.19397e-09
7.51312e-08
1.90343e-07
1.15318e-07
1.91862e-07
1.00043e-07
1.90271e-07
6.7953e-08
1.86175e-07
5.33871e-08
1.80751e-07
4.30415e-08
1.75019e-07
3.54266e-08
1.69347e-07
3.00974e-08
1.63891e-07
2.60215e-08
1.58749e-07
2.26967e-08
1.5396e-07
1.99563e-08
1.49528e-07
1.76908e-08
1.45435e-07
1.58002e-08
1.41655e-07
1.42047e-08
1.38163e-07
1.28447e-08
1.34932e-07
1.16755e-08
1.31936e-07
1.06626e-08
1.29154e-07
9.77852e-09
1.26564e-07
9.00174e-09
1.24148e-07
8.31482e-09
1.21891e-07
7.70369e-09
1.19778e-07
7.15689e-09
1.17797e-07
6.665e-09
1.15936e-07
6.22019e-09
1.14186e-07
5.81589e-09
1.12538e-07
5.44657e-09
1.10985e-07
5.10749e-09
1.09519e-07
4.79459e-09
1.08135e-07
4.5043e-09
1.06828e-07
4.23355e-09
1.05593e-07
3.97956e-09
1.04426e-07
3.73984e-09
1.03325e-07
3.51218e-09
1.02285e-07
3.29426e-09
1.01305e-07
3.08451e-09
1.00383e-07
2.88007e-09
9.95179e-08
2.68067e-09
9.87086e-08
2.48118e-09
9.79545e-08
2.28488e-09
9.72569e-08
2.08025e-09
9.66149e-08
1.87972e-09
9.60332e-08
1.65605e-09
9.55098e-08
1.44329e-09
9.50548e-08
1.17976e-09
9.46643e-08
9.42876e-10
9.43557e-08
6.11053e-10
9.41288e-08
3.09691e-10
9.39976e-08
-8.35775e-11
9.40012e-08
-7.41168e-10
9.41639e-08
-8.53383e-10
-3.99015e-09
9.39601e-08
1.95505e-07
1.07628e-07
1.98249e-07
9.72987e-08
1.98992e-07
6.72105e-08
1.97805e-07
5.45743e-08
1.95182e-07
4.56648e-08
1.91857e-07
3.87508e-08
1.88146e-07
3.3809e-08
1.8422e-07
2.99478e-08
1.80229e-07
2.66874e-08
1.76283e-07
2.39019e-08
1.7245e-07
2.15242e-08
1.68767e-07
1.94835e-08
1.65253e-07
1.77185e-08
1.61916e-07
1.61814e-08
1.58757e-07
1.48351e-08
1.55769e-07
1.36497e-08
1.52948e-07
1.26004e-08
1.50282e-07
1.1667e-08
1.47765e-07
1.08325e-08
1.45385e-07
1.0083e-08
1.43136e-07
9.40669e-09
1.41007e-07
8.79371e-09
1.38991e-07
8.23568e-09
1.37082e-07
7.72545e-09
1.35271e-07
7.2569e-09
1.33554e-07
6.82468e-09
1.31925e-07
6.42417e-09
1.30378e-07
6.05126e-09
1.28909e-07
5.70233e-09
1.27514e-07
5.37411e-09
1.26191e-07
5.06363e-09
1.24935e-07
4.76823e-09
1.23744e-07
4.48512e-09
1.22616e-07
4.21234e-09
1.21549e-07
3.94645e-09
1.20543e-07
3.68696e-09
1.19596e-07
3.42785e-09
1.18709e-07
3.17263e-09
1.17881e-07
2.90794e-09
1.17113e-07
2.64765e-09
1.16409e-07
2.36062e-09
1.15767e-07
2.08462e-09
1.15196e-07
1.75084e-09
1.14697e-07
1.44238e-09
1.14277e-07
1.03031e-09
1.13951e-07
6.35778e-10
1.13716e-07
1.5165e-10
1.13617e-07
-6.4189e-10
1.13684e-07
-9.20282e-10
-3.71768e-09
1.13411e-07
2.0082e-07
1.00393e-07
2.03774e-07
9.43445e-08
2.05351e-07
6.56337e-08
2.05658e-07
5.42677e-08
2.04835e-07
4.6487e-08
2.03368e-07
4.02185e-08
2.01436e-07
3.57412e-08
1.99125e-07
3.22588e-08
1.96542e-07
2.92702e-08
1.9379e-07
2.66539e-08
1.90949e-07
2.43652e-08
1.88078e-07
2.2354e-08
1.85222e-07
2.05747e-08
1.82411e-07
1.89923e-08
1.79667e-07
1.75792e-08
1.77004e-07
1.6313e-08
1.7443e-07
1.51744e-08
1.7195e-07
1.41469e-08
1.69566e-07
1.32166e-08
1.67278e-07
1.23712e-08
1.65084e-07
1.16004e-08
1.62982e-07
1.08951e-08
1.60971e-07
1.02476e-08
1.59045e-07
9.65093e-09
1.57203e-07
9.09917e-09
1.55441e-07
8.58695e-09
1.53755e-07
8.10959e-09
1.52144e-07
7.66279e-09
1.50603e-07
7.24278e-09
1.49131e-07
6.84604e-09
1.47725e-07
6.46936e-09
1.46384e-07
6.10979e-09
1.45105e-07
5.76425e-09
1.43887e-07
5.43048e-09
1.42728e-07
5.10466e-09
1.41629e-07
4.78606e-09
1.40589e-07
4.468e-09
1.39608e-07
4.15399e-09
1.38686e-07
3.82947e-09
1.37825e-07
3.50878e-09
1.37027e-07
3.15873e-09
1.36294e-07
2.81779e-09
1.3563e-07
2.41515e-09
1.3504e-07
2.03155e-09
1.34528e-07
1.54308e-09
1.34113e-07
1.05007e-09
1.33786e-07
4.78732e-10
1.33585e-07
-4.40982e-10
1.33557e-07
-8.91667e-10
-3.39036e-09
1.33229e-07
2.06423e-07
9.35017e-08
2.09334e-07
9.14337e-08
2.11062e-07
6.39054e-08
2.11948e-07
5.33822e-08
2.12018e-07
4.64171e-08
2.11642e-07
4.05944e-08
2.10924e-07
3.64588e-08
2.09868e-07
3.33147e-08
2.08513e-07
3.06251e-08
2.06918e-07
2.82491e-08
2.05138e-07
2.61451e-08
2.03222e-07
2.42698e-08
2.01213e-07
2.25845e-08
1.99144e-07
2.10607e-08
1.97046e-07
1.96777e-08
1.9494e-07
1.84186e-08
1.92845e-07
1.72693e-08
1.90775e-07
1.62175e-08
1.88739e-07
1.52525e-08
1.86745e-07
1.43649e-08
1.84799e-07
1.35463e-08
1.82905e-07
1.27894e-08
1.81065e-07
1.20878e-08
1.7928e-07
1.14355e-08
1.77552e-07
1.08272e-08
1.75881e-07
1.02583e-08
1.74266e-07
9.72424e-09
1.72708e-07
9.22116e-09
1.71205e-07
8.74539e-09
1.69758e-07
8.29349e-09
1.68365e-07
7.86226e-09
1.67026e-07
7.44871e-09
1.6574e-07
7.04965e-09
1.64508e-07
6.66269e-09
1.63329e-07
6.2838e-09
1.62203e-07
5.91208e-09
1.61131e-07
5.54045e-09
1.60112e-07
5.17225e-09
1.5915e-07
4.79233e-09
1.58244e-07
4.41465e-09
1.57397e-07
4.00568e-09
1.56612e-07
3.60203e-09
1.55892e-07
3.13517e-09
1.55247e-07
2.67735e-09
1.54671e-07
2.11835e-09
1.54193e-07
1.52823e-09
1.53799e-07
8.73406e-10
1.53513e-07
-1.55667e-10
1.534e-07
-7.78349e-10
-3.02827e-09
1.53038e-07
2.1227e-07
8.68945e-08
2.15143e-07
8.85604e-08
2.16817e-07
6.2231e-08
2.17862e-07
5.23372e-08
2.18277e-07
4.60025e-08
2.18402e-07
4.04695e-08
2.18336e-07
3.65249e-08
2.18048e-07
3.36028e-08
2.17532e-07
3.11408e-08
2.16808e-07
2.89731e-08
2.159e-07
2.70532e-08
2.14833e-07
2.53368e-08
2.13633e-07
2.37847e-08
2.12324e-07
2.23693e-08
2.1093e-07
2.10714e-08
2.09472e-07
1.98768e-08
2.07968e-07
1.87738e-08
2.06433e-07
1.77527e-08
2.0488e-07
1.68053e-08
2.03321e-07
1.59241e-08
2.01764e-07
1.51028e-08
2.00218e-07
1.43357e-08
1.98688e-07
1.36177e-08
1.97179e-07
1.2944e-08
1.95696e-07
1.23103e-08
1.94242e-07
1.17127e-08
1.92819e-07
1.11474e-08
1.91429e-07
1.06109e-08
1.90074e-07
1.01001e-08
1.88756e-07
9.61175e-09
1.87475e-07
9.14289e-09
1.86233e-07
8.69065e-09
1.85031e-07
8.25195e-09
1.83869e-07
7.82441e-09
1.82749e-07
7.40392e-09
1.81672e-07
6.98954e-09
1.80638e-07
6.574e-09
1.7965e-07
6.16038e-09
1.78709e-07
5.73344e-09
1.77818e-07
5.30618e-09
1.76977e-07
4.846e-09
1.76193e-07
4.38587e-09
1.75466e-07
3.86259e-09
1.74807e-07
3.336e-09
1.74211e-07
2.71454e-09
1.73705e-07
2.03477e-09
1.73276e-07
1.30186e-09
1.72936e-07
1.84284e-10
1.7276e-07
-6.01956e-10
-2.6549e-09
1.72386e-07
2.18315e-07
8.05598e-08
2.21192e-07
8.56834e-08
2.2279e-07
6.0633e-08
2.23864e-07
5.12637e-08
2.24387e-07
4.54794e-08
2.24689e-07
4.01674e-08
2.24898e-07
3.63156e-08
2.24987e-07
3.35144e-08
2.24934e-07
3.11934e-08
2.24741e-07
2.91658e-08
2.24414e-07
2.73811e-08
2.23957e-07
2.57935e-08
2.2338e-07
2.43611e-08
2.22696e-07
2.30541e-08
2.21915e-07
2.18523e-08
2.2105e-07
2.0741e-08
2.20115e-07
1.97088e-08
2.19121e-07
1.87468e-08
2.18079e-07
1.78473e-08
2.16999e-07
1.70041e-08
2.1589e-07
1.62117e-08
2.14761e-07
1.54655e-08
2.13617e-07
1.47612e-08
2.12466e-07
1.4095e-08
2.11313e-07
1.34634e-08
2.10162e-07
1.28631e-08
2.09019e-07
1.22909e-08
2.07886e-07
1.1744e-08
2.06766e-07
1.12195e-08
2.05663e-07
1.07147e-08
2.0458e-07
1.02268e-08
2.03517e-07
9.75319e-09
2.02478e-07
9.29099e-09
2.01464e-07
8.83794e-09
2.00478e-07
8.38995e-09
1.99522e-07
7.94609e-09
1.98597e-07
7.49906e-09
1.97706e-07
7.05165e-09
1.9685e-07
6.5889e-09
1.96034e-07
6.12242e-09
1.95258e-07
5.62156e-09
1.9453e-07
5.1144e-09
1.93847e-07
4.54504e-09
1.93224e-07
3.95899e-09
1.92654e-07
3.28513e-09
1.9216e-07
2.52811e-09
1.91737e-07
1.72508e-09
1.9138e-07
5.41197e-10
1.9117e-07
-3.91984e-10
-2.29586e-09
1.90811e-07
2.24549e-07
7.45039e-08
2.27452e-07
8.27802e-08
2.28986e-07
5.9099e-08
2.30067e-07
5.01828e-08
2.30631e-07
4.49155e-08
2.30982e-07
3.98166e-08
2.31281e-07
3.60168e-08
2.31516e-07
3.32785e-08
2.31671e-07
3.10384e-08
2.31744e-07
2.9093e-08
2.31735e-07
2.73907e-08
2.31641e-07
2.58869e-08
2.31464e-07
2.45386e-08
2.31204e-07
2.33137e-08
2.30866e-07
2.21904e-08
2.30454e-07
2.11528e-08
2.29974e-07
2.01886e-08
2.29433e-07
1.92884e-08
2.28836e-07
1.84442e-08
2.2819e-07
1.76498e-08
2.27502e-07
1.68999e-08
2.26778e-07
1.619e-08
2.26023e-07
1.55162e-08
2.25243e-07
1.48751e-08
2.24442e-07
1.42636e-08
2.23627e-07
1.36787e-08
2.228e-07
1.31177e-08
2.21966e-07
1.25781e-08
2.21128e-07
1.20572e-08
2.2029e-07
1.15527e-08
2.19455e-07
1.1062e-08
2.18625e-07
1.05827e-08
2.17804e-07
1.01121e-08
2.16994e-07
9.64803e-09
2.16198e-07
9.18645e-09
2.15417e-07
8.72646e-09
2.14656e-07
8.26086e-09
2.13915e-07
7.79203e-09
2.13198e-07
7.30564e-09
2.12509e-07
6.81156e-09
2.11849e-07
6.28176e-09
2.11225e-07
5.73877e-09
2.10635e-07
5.13501e-09
2.10093e-07
4.50122e-09
2.09591e-07
3.78624e-09
2.09152e-07
2.96747e-09
2.08773e-07
2.1045e-09
2.08437e-07
8.7641e-10
2.08227e-07
-1.81177e-10
-1.97622e-09
2.07907e-07
2.30975e-07
6.87349e-08
2.33913e-07
7.9842e-08
2.3539e-07
5.76218e-08
2.3648e-07
4.90935e-08
2.37077e-07
4.43186e-08
2.37443e-07
3.94507e-08
2.37763e-07
3.56961e-08
2.38045e-07
3.29964e-08
2.38276e-07
3.0808e-08
2.38457e-07
2.89115e-08
2.38592e-07
2.72557e-08
2.38679e-07
2.58e-08
2.38716e-07
2.4502e-08
2.387e-07
2.33291e-08
2.38632e-07
2.22582e-08
2.38512e-07
2.12728e-08
2.38341e-07
2.03598e-08
2.38121e-07
1.95088e-08
2.37854e-07
1.87115e-08
2.37542e-07
1.79612e-08
2.3719e-07
1.72522e-08
2.368e-07
1.65798e-08
2.36376e-07
1.594e-08
2.35922e-07
1.53294e-08
2.35441e-07
1.47449e-08
2.34936e-07
1.41836e-08
2.34411e-07
1.36429e-08
2.33868e-07
1.31203e-08
2.33312e-07
1.26135e-08
2.32745e-07
1.212e-08
2.32169e-07
1.16375e-08
2.31588e-07
1.11637e-08
2.31005e-07
1.06958e-08
2.30421e-07
1.02319e-08
2.29839e-07
9.76783e-09
2.29263e-07
9.30279e-09
2.28694e-07
8.82965e-09
2.28136e-07
8.35034e-09
2.2759e-07
7.8513e-09
2.27061e-07
7.34049e-09
2.2655e-07
6.79288e-09
2.26064e-07
6.22517e-09
2.25601e-07
5.59836e-09
2.25173e-07
4.92923e-09
2.24774e-07
4.18434e-09
2.24422e-07
3.32026e-09
2.24117e-07
2.40893e-09
2.23837e-07
1.15667e-09
2.23655e-07
4.44513e-13
-1.71682e-09
2.23396e-07
2.37601e-07
6.32584e-08
2.40579e-07
7.68644e-08
2.41999e-07
5.62017e-08
2.43096e-07
4.79969e-08
2.43729e-07
4.36848e-08
2.44109e-07
3.90716e-08
2.44435e-07
3.53695e-08
2.4473e-07
3.27016e-08
2.44983e-07
3.05546e-08
2.45202e-07
2.86933e-08
2.45391e-07
2.70664e-08
2.45552e-07
2.56384e-08
2.45686e-07
2.43689e-08
2.45789e-07
2.32257e-08
2.45861e-07
2.21857e-08
2.45902e-07
2.12322e-08
2.4591e-07
2.03517e-08
2.45886e-07
1.95335e-08
2.45828e-07
1.87689e-08
2.45739e-07
1.80508e-08
2.45618e-07
1.73731e-08
2.45467e-07
1.67308e-08
2.45287e-07
1.61198e-08
2.4508e-07
1.55362e-08
2.44848e-07
1.49769e-08
2.44593e-07
1.44389e-08
2.44316e-07
1.39196e-08
2.4402e-07
1.34163e-08
2.43707e-07
1.29267e-08
2.43378e-07
1.24484e-08
2.43037e-07
1.19789e-08
2.42685e-07
1.15161e-08
2.42323e-07
1.1057e-08
2.41956e-07
1.05997e-08
2.41583e-07
1.01401e-08
2.41209e-07
9.67724e-09
2.40834e-07
9.2042e-09
2.40462e-07
8.72225e-09
2.40095e-07
8.21883e-09
2.39736e-07
7.69978e-09
2.39385e-07
7.14328e-09
2.3905e-07
6.56026e-09
2.38728e-07
5.91993e-09
2.38431e-07
5.22678e-09
2.38153e-07
4.46183e-09
2.37906e-07
3.56774e-09
2.37695e-07
2.61974e-09
2.37492e-07
1.35981e-09
2.37362e-07
1.30901e-10
-1.53071e-09
2.37175e-07
2.44437e-07
5.80781e-08
2.47453e-07
7.38484e-08
2.48817e-07
5.48368e-08
2.49917e-07
4.68973e-08
2.50589e-07
4.30124e-08
2.50985e-07
3.86757e-08
2.51317e-07
3.50382e-08
2.51618e-07
3.24008e-08
2.51879e-07
3.02932e-08
2.52108e-07
2.84639e-08
2.52315e-07
2.68598e-08
2.52503e-07
2.54506e-08
2.52673e-07
2.4199e-08
2.52825e-07
2.30734e-08
2.5296e-07
2.20512e-08
2.53076e-07
2.11158e-08
2.53173e-07
2.02541e-08
2.53252e-07
1.94553e-08
2.5331e-07
1.87106e-08
2.53348e-07
1.80127e-08
2.53366e-07
1.73554e-08
2.53363e-07
1.67335e-08
2.5334e-07
1.61425e-08
2.53298e-07
1.55786e-08
2.53236e-07
1.50384e-08
2.53157e-07
1.45187e-08
2.53059e-07
1.40168e-08
2.52946e-07
1.35301e-08
2.52817e-07
1.30558e-08
2.52673e-07
1.25917e-08
2.52517e-07
1.21352e-08
2.52349e-07
1.16839e-08
2.52171e-07
1.12349e-08
2.51985e-07
1.07863e-08
2.51791e-07
1.03339e-08
2.51592e-07
9.87645e-09
2.51389e-07
9.40729e-09
2.51184e-07
8.92701e-09
2.50979e-07
8.42408e-09
2.50776e-07
7.90217e-09
2.50577e-07
7.34266e-09
2.50386e-07
6.75113e-09
2.50202e-07
6.10405e-09
2.50033e-07
5.39592e-09
2.49876e-07
4.61847e-09
2.49737e-07
3.70701e-09
2.49624e-07
2.73291e-09
2.49506e-07
1.47745e-09
2.49437e-07
1.99423e-10
-1.42115e-09
2.49328e-07
2.51489e-07
5.3196e-08
2.54533e-07
7.0804e-08
2.55854e-07
5.35162e-08
2.56951e-07
4.58002e-08
2.57661e-07
4.23021e-08
2.58077e-07
3.82603e-08
2.58414e-07
3.47007e-08
2.58721e-07
3.20943e-08
2.58988e-07
3.00261e-08
2.59222e-07
2.82295e-08
2.59434e-07
2.66473e-08
2.59631e-07
2.52545e-08
2.59813e-07
2.40168e-08
2.59983e-07
2.29036e-08
2.60141e-07
2.18929e-08
2.60288e-07
2.09686e-08
2.60424e-07
2.01179e-08
2.60549e-07
1.93303e-08
2.60663e-07
1.8597e-08
2.60765e-07
1.79107e-08
2.60855e-07
1.72653e-08
2.60933e-07
1.66555e-08
2.60999e-07
1.60768e-08
2.61052e-07
1.55252e-08
2.61093e-07
1.49972e-08
2.61122e-07
1.44897e-08
2.61139e-07
1.39997e-08
2.61145e-07
1.35245e-08
2.61139e-07
1.30614e-08
2.61123e-07
1.2608e-08
2.61097e-07
1.21614e-08
2.61061e-07
1.17195e-08
2.61017e-07
1.12791e-08
2.60965e-07
1.08381e-08
2.60907e-07
1.03924e-08
2.60843e-07
9.94047e-09
2.60774e-07
9.47593e-09
2.60702e-07
8.99858e-09
2.60629e-07
8.49799e-09
2.60555e-07
7.9757e-09
2.60482e-07
7.41613e-09
2.60413e-07
6.8201e-09
2.60346e-07
6.17021e-09
2.60289e-07
5.45338e-09
2.60239e-07
4.66847e-09
2.60197e-07
3.7489e-09
2.60173e-07
2.75738e-09
2.60136e-07
1.51409e-09
2.60129e-07
2.06668e-10
-1.38206e-09
2.6009e-07
2.58767e-07
4.86124e-08
2.61829e-07
6.77417e-08
2.63116e-07
5.22289e-08
2.64206e-07
4.47106e-08
2.64952e-07
4.15563e-08
2.65389e-07
3.78233e-08
2.65733e-07
3.43562e-08
2.66046e-07
3.17818e-08
2.66319e-07
2.97532e-08
2.66557e-07
2.79908e-08
2.66773e-07
2.64313e-08
2.66973e-07
2.50547e-08
2.6716e-07
2.383e-08
2.67336e-07
2.27277e-08
2.67502e-07
2.17264e-08
2.67661e-07
2.08104e-08
2.67811e-07
1.99671e-08
2.67955e-07
1.91866e-08
2.68092e-07
1.84601e-08
2.68222e-07
1.77806e-08
2.68345e-07
1.7142e-08
2.68462e-07
1.6539e-08
2.68571e-07
1.59672e-08
2.68674e-07
1.54225e-08
2.6877e-07
1.49016e-08
2.68858e-07
1.44011e-08
2.6894e-07
1.39181e-08
2.69015e-07
1.34498e-08
2.69083e-07
1.29935e-08
2.69144e-07
1.25467e-08
2.69199e-07
1.21066e-08
2.69248e-07
1.16707e-08
2.69291e-07
1.1236e-08
2.69329e-07
1.08002e-08
2.69362e-07
1.03592e-08
2.69391e-07
9.91127e-09
2.69417e-07
9.45025e-09
2.6944e-07
8.97517e-09
2.69461e-07
8.47672e-09
2.69482e-07
7.95448e-09
2.69503e-07
7.39557e-09
2.69526e-07
6.79689e-09
2.69551e-07
6.14579e-09
2.6958e-07
5.4241e-09
2.69614e-07
4.63458e-09
2.6965e-07
3.71292e-09
2.69697e-07
2.71056e-09
2.69727e-07
1.48341e-09
2.69772e-07
1.61836e-10
-1.40048e-09
2.69791e-07
2.66279e-07
4.43261e-08
2.69348e-07
6.46723e-08
2.70613e-07
5.09642e-08
2.7169e-07
4.36328e-08
2.72469e-07
4.07779e-08
2.72929e-07
3.73632e-08
2.73281e-07
3.40037e-08
2.736e-07
3.1463e-08
2.73879e-07
2.94739e-08
2.74123e-07
2.77473e-08
2.74342e-07
2.62119e-08
2.74545e-07
2.4852e-08
2.74735e-07
2.36405e-08
2.74913e-07
2.2549e-08
2.75083e-07
2.15566e-08
2.75246e-07
2.06479e-08
2.75402e-07
1.9811e-08
2.75553e-07
1.90359e-08
2.75698e-07
1.83144e-08
2.7584e-07
1.76394e-08
2.75976e-07
1.7005e-08
2.76109e-07
1.64061e-08
2.76238e-07
1.58381e-08
2.76364e-07
1.52973e-08
2.76485e-07
1.47801e-08
2.76603e-07
1.42833e-08
2.76717e-07
1.38039e-08
2.76828e-07
1.33393e-08
2.76935e-07
1.28866e-08
2.77038e-07
1.24432e-08
2.77138e-07
1.20064e-08
2.77235e-07
1.15737e-08
2.77329e-07
1.1142e-08
2.77421e-07
1.07089e-08
2.77509e-07
1.02704e-08
2.77596e-07
9.82436e-09
2.77681e-07
9.3651e-09
2.77766e-07
8.89088e-09
2.77849e-07
8.39343e-09
2.77933e-07
7.87064e-09
2.78017e-07
7.31187e-09
2.78102e-07
6.71102e-09
2.78189e-07
6.05891e-09
2.78279e-07
5.33438e-09
2.78372e-07
4.5416e-09
2.78464e-07
3.6213e-09
2.78561e-07
2.61288e-09
2.78642e-07
1.40315e-09
2.78725e-07
7.86349e-11
-1.46022e-09
2.78785e-07
2.74033e-07
4.0334e-08
2.77099e-07
6.16065e-08
2.78351e-07
4.97119e-08
2.79414e-07
4.25704e-08
2.80221e-07
3.99708e-08
2.80706e-07
3.68783e-08
2.81067e-07
3.36426e-08
2.81392e-07
3.11382e-08
2.81678e-07
2.91879e-08
2.81926e-07
2.74985e-08
2.8215e-07
2.59888e-08
2.82355e-07
2.46463e-08
2.82547e-07
2.34483e-08
2.82728e-07
2.2368e-08
2.82901e-07
2.13845e-08
2.83065e-07
2.04831e-08
2.83224e-07
1.96522e-08
2.83378e-07
1.88822e-08
2.83527e-07
1.8165e-08
2.83673e-07
1.74938e-08
2.83815e-07
1.68626e-08
2.83955e-07
1.62665e-08
2.84092e-07
1.57011e-08
2.84226e-07
1.51626e-08
2.84359e-07
1.46474e-08
2.8449e-07
1.41525e-08
2.84619e-07
1.3675e-08
2.84746e-07
1.3212e-08
2.84872e-07
1.27608e-08
2.84996e-07
1.23189e-08
2.85119e-07
1.18834e-08
2.85241e-07
1.14519e-08
2.85362e-07
1.10212e-08
2.85482e-07
1.05889e-08
2.85601e-07
1.0151e-08
2.8572e-07
9.70516e-09
2.85839e-07
9.2461e-09
2.85959e-07
8.77136e-09
2.86079e-07
8.27364e-09
2.862e-07
7.74941e-09
2.86322e-07
7.18988e-09
2.86446e-07
6.58677e-09
2.86572e-07
5.93321e-09
2.867e-07
5.20681e-09
2.8683e-07
4.41141e-09
2.86957e-07
3.49421e-09
2.87087e-07
2.48319e-09
2.87199e-07
1.29068e-09
2.87307e-07
-2.89804e-11
-1.54552e-09
2.87392e-07
2.8204e-07
3.66313e-08
2.85091e-07
5.85555e-08
2.86341e-07
4.84624e-08
2.87385e-07
4.15263e-08
2.88216e-07
3.91394e-08
2.88727e-07
3.63673e-08
2.89098e-07
3.32715e-08
2.89429e-07
3.08073e-08
2.89722e-07
2.88953e-08
2.89976e-07
2.72442e-08
2.90203e-07
2.57615e-08
2.90412e-07
2.44373e-08
2.90607e-07
2.32534e-08
2.90791e-07
2.21844e-08
2.90965e-07
2.12102e-08
2.91132e-07
2.03164e-08
2.91292e-07
1.94916e-08
2.91448e-07
1.87266e-08
2.91599e-07
1.80137e-08
2.91747e-07
1.73459e-08
2.91892e-07
1.67177e-08
2.92035e-07
1.6124e-08
2.92175e-07
1.55607e-08
2.92314e-07
1.50238e-08
2.92451e-07
1.451e-08
2.92588e-07
1.40162e-08
2.92723e-07
1.35395e-08
2.92858e-07
1.30772e-08
2.92992e-07
1.26266e-08
2.93126e-07
1.2185e-08
2.9326e-07
1.17497e-08
2.93393e-07
1.13182e-08
2.93527e-07
1.08873e-08
2.93661e-07
1.04546e-08
2.93796e-07
1.00161e-08
2.93932e-07
9.56944e-09
2.94069e-07
9.10947e-09
2.94207e-07
8.63324e-09
2.94346e-07
8.13427e-09
2.94488e-07
7.60793e-09
2.94631e-07
7.04682e-09
2.94776e-07
6.44128e-09
2.94924e-07
5.78578e-09
2.95072e-07
5.05802e-09
2.95223e-07
4.26043e-09
2.9537e-07
3.34714e-09
2.95517e-07
2.33623e-09
2.95648e-07
1.16013e-09
2.95768e-07
-1.49153e-10
-1.64328e-09
2.95866e-07
2.90308e-07
3.32116e-08
2.93334e-07
5.55303e-08
2.94589e-07
4.72068e-08
2.95613e-07
4.05025e-08
2.96464e-07
3.82886e-08
2.97002e-07
3.58294e-08
2.97384e-07
3.28892e-08
2.97721e-07
3.04704e-08
2.9802e-07
2.85959e-08
2.98281e-07
2.69839e-08
2.98512e-07
2.55299e-08
2.98725e-07
2.42249e-08
2.98923e-07
2.30555e-08
2.99109e-07
2.19983e-08
2.99285e-07
2.10337e-08
2.99454e-07
2.01475e-08
2.99617e-07
1.9329e-08
2.99774e-07
1.85693e-08
2.99927e-07
1.78605e-08
3.00077e-07
1.71963e-08
3.00223e-07
1.6571e-08
3.00368e-07
1.59797e-08
3.0051e-07
1.54182e-08
3.00651e-07
1.48828e-08
3.00791e-07
1.43701e-08
3.0093e-07
1.38771e-08
3.01069e-07
1.3401e-08
3.01207e-07
1.29389e-08
3.01345e-07
1.24884e-08
3.01484e-07
1.20467e-08
3.01622e-07
1.1611e-08
3.01762e-07
1.11789e-08
3.01902e-07
1.07473e-08
3.02043e-07
1.03135e-08
3.02185e-07
9.87393e-09
3.02329e-07
9.42571e-09
3.02474e-07
8.9642e-09
3.02621e-07
8.48594e-09
3.0277e-07
7.98511e-09
3.02922e-07
7.45631e-09
3.03076e-07
6.89312e-09
3.03232e-07
6.28513e-09
3.0339e-07
5.62743e-09
3.03549e-07
4.8987e-09
3.0371e-07
4.09945e-09
3.03867e-07
3.19052e-09
3.04021e-07
2.18198e-09
3.0416e-07
1.02155e-09
3.04284e-07
-2.73391e-10
-1.74393e-09
3.04385e-07
2.98847e-07
3.00668e-08
3.01836e-07
5.25423e-08
3.03105e-07
4.59374e-08
3.04107e-07
3.95004e-08
3.04972e-07
3.74237e-08
3.05538e-07
3.52637e-08
3.05933e-07
3.24943e-08
3.06275e-07
3.01275e-08
3.06582e-07
2.82897e-08
3.06848e-07
2.67173e-08
3.07085e-07
2.52935e-08
3.07301e-07
2.40088e-08
3.07502e-07
2.28543e-08
3.07691e-07
2.18093e-08
3.0787e-07
2.08546e-08
3.08041e-07
1.99764e-08
3.08206e-07
1.91644e-08
3.08365e-07
1.841e-08
3.0852e-07
1.77056e-08
3.08671e-07
1.7045e-08
3.0882e-07
1.64226e-08
3.08966e-07
1.58336e-08
3.0911e-07
1.5274e-08
3.09253e-07
1.474e-08
3.09394e-07
1.42284e-08
3.09535e-07
1.37361e-08
3.09676e-07
1.32604e-08
3.09816e-07
1.27985e-08
3.09957e-07
1.23479e-08
3.10098e-07
1.19058e-08
3.10239e-07
1.14696e-08
3.10381e-07
1.10367e-08
3.10524e-07
1.06041e-08
3.10669e-07
1.0169e-08
3.10815e-07
9.72798e-09
3.10963e-07
9.27798e-09
3.11112e-07
8.81464e-09
3.11264e-07
8.33414e-09
3.11418e-07
7.83118e-09
3.11574e-07
7.29983e-09
3.11733e-07
6.73435e-09
3.11894e-07
6.12405e-09
3.12057e-07
5.46418e-09
3.12221e-07
4.73488e-09
3.12386e-07
3.93472e-09
3.12546e-07
3.03051e-09
3.12702e-07
2.02639e-09
3.12842e-07
8.81267e-10
3.12965e-07
-3.96324e-10
-1.84136e-09
3.13062e-07
3.07667e-07
2.71869e-08
3.10607e-07
4.96025e-08
3.11897e-07
4.46473e-08
3.12877e-07
3.85203e-08
3.13751e-07
3.655e-08
3.14344e-07
3.46705e-08
3.14753e-07
3.20852e-08
3.15102e-07
2.97783e-08
3.15415e-07
2.79768e-08
3.15689e-07
2.64441e-08
3.1593e-07
2.5052e-08
3.1615e-07
2.37887e-08
3.16355e-07
2.26498e-08
3.16547e-07
2.16173e-08
3.16729e-07
2.06728e-08
3.16902e-07
1.98029e-08
3.17069e-07
1.89976e-08
3.1723e-07
1.82486e-08
3.17387e-07
1.75487e-08
3.1754e-07
1.68918e-08
3.17691e-07
1.62724e-08
3.17838e-07
1.56859e-08
3.17984e-07
1.51281e-08
3.18129e-07
1.45956e-08
3.18272e-07
1.4085e-08
3.18415e-07
1.35935e-08
3.18557e-07
1.31181e-08
3.18699e-07
1.26564e-08
3.18841e-07
1.22055e-08
3.18984e-07
1.17631e-08
3.19128e-07
1.13263e-08
3.19272e-07
1.08925e-08
3.19417e-07
1.04587e-08
3.19564e-07
1.00223e-08
3.19712e-07
9.57973e-09
3.19862e-07
9.12788e-09
3.20014e-07
8.66261e-09
3.20168e-07
8.17985e-09
3.20325e-07
7.67469e-09
3.20484e-07
7.1409e-09
3.20645e-07
6.57314e-09
3.20808e-07
5.96082e-09
3.20973e-07
5.29904e-09
3.21139e-07
4.56965e-09
3.21304e-07
3.76947e-09
3.21464e-07
2.87046e-09
3.21618e-07
1.87261e-09
3.21756e-07
7.42914e-10
3.21875e-07
-5.14885e-10
-1.93202e-09
3.21965e-07
3.16777e-07
2.45609e-08
3.19658e-07
4.67221e-08
3.20974e-07
4.33308e-08
3.21932e-07
3.75619e-08
3.2281e-07
3.56725e-08
3.2343e-07
3.40505e-08
3.23855e-07
3.16604e-08
3.24211e-07
2.94224e-08
3.2453e-07
2.76572e-08
3.2481e-07
2.6164e-08
3.25057e-07
2.4805e-08
3.25282e-07
2.35643e-08
3.2549e-07
2.24415e-08
3.25685e-07
2.1422e-08
3.2587e-07
2.0488e-08
3.26046e-07
1.96267e-08
3.26216e-07
1.88283e-08
3.26379e-07
1.80849e-08
3.26538e-07
1.73897e-08
3.26693e-07
1.67366e-08
3.26846e-07
1.61203e-08
3.26995e-07
1.55362e-08
3.27143e-07
1.49804e-08
3.27289e-07
1.44494e-08
3.27434e-07
1.39399e-08
3.27579e-07
1.3449e-08
3.27723e-07
1.29741e-08
3.27867e-07
1.25124e-08
3.28011e-07
1.20615e-08
3.28155e-07
1.16186e-08
3.283e-07
1.11811e-08
3.28446e-07
1.07465e-08
3.28594e-07
1.03116e-08
3.28742e-07
9.87379e-09
3.28892e-07
9.42966e-09
3.29044e-07
8.97598e-09
3.29198e-07
8.5088e-09
3.29354e-07
8.02387e-09
3.29512e-07
7.51656e-09
3.29672e-07
6.98053e-09
3.29835e-07
6.41063e-09
3.29999e-07
5.79665e-09
3.30165e-07
5.1334e-09
3.3033e-07
4.40445e-09
3.30494e-07
3.60526e-09
3.30652e-07
2.71202e-09
3.30803e-07
1.72219e-09
3.30937e-07
6.08457e-10
3.3105e-07
-6.27436e-10
-2.01404e-09
3.31132e-07
3.26187e-07
2.21761e-08
3.28998e-07
4.3912e-08
3.30345e-07
4.19838e-08
3.31282e-07
3.66241e-08
3.32159e-07
3.47958e-08
3.32804e-07
3.34052e-08
3.33246e-07
3.12184e-08
3.33609e-07
2.90593e-08
3.33936e-07
2.7331e-08
3.34223e-07
2.58768e-08
3.34476e-07
2.45522e-08
3.34705e-07
2.33353e-08
3.34917e-07
2.22294e-08
3.35116e-07
2.12231e-08
3.35304e-07
2.03001e-08
3.35483e-07
1.94476e-08
3.35655e-07
1.86564e-08
3.35821e-07
1.79189e-08
3.35982e-07
1.72284e-08
3.36139e-07
1.65792e-08
3.36294e-07
1.5966e-08
3.36445e-07
1.53845e-08
3.36595e-07
1.48307e-08
3.36743e-07
1.43012e-08
3.3689e-07
1.37928e-08
3.37037e-07
1.33027e-08
3.37182e-07
1.28282e-08
3.37328e-07
1.23667e-08
3.37474e-07
1.19156e-08
3.3762e-07