/*--------------------------------*- C++ -*----------------------------------*\
  =========                 |
  \\      /  F ield         | OpenFOAM: The Open Source CFD Toolbox
   \\    /   O peration     | Website:  https://openfoam.org
    \\  /    A nd           | Version:  7
     \\/     M anipulation  |
\*---------------------------------------------------------------------------*/
FoamFile
{
    version     2.0;
    format      ascii;
    class       volVectorField;
    location    "0.21";
    object      U;
}
// * * * * * * * * * * * * * * * * * * * * * * * * * * * * * * * * * * * * * //

dimensions      [0 1 -1 0 0 0 0];

internalField   nonuniform List<vector> 
70000
(
(0.553415 0.016978 0)
(0.251428 0.00340025 0)
(0.165952 0.000318786 0)
(0.132488 4.8875e-05 0)
(0.117403 4.39223e-05 0)
(0.107469 5.20757e-05 0)
(0.0995244 4.42629e-05 0)
(0.0931093 3.517e-05 0)
(0.0878952 2.91158e-05 0)
(0.0835571 2.49634e-05 0)
(0.0798663 2.17885e-05 0)
(0.0766752 1.92417e-05 0)
(0.0738822 1.71631e-05 0)
(0.0714133 1.54435e-05 0)
(0.0692122 1.40019e-05 0)
(0.0672356 1.27779e-05 0)
(0.0654494 1.17266e-05 0)
(0.0638266 1.08139e-05 0)
(0.0623452 1.00139e-05 0)
(0.0609874 9.3059e-06 0)
(0.0597386 8.67397e-06 0)
(0.0585863 8.10497e-06 0)
(0.0575205 7.58854e-06 0)
(0.0565325 7.11581e-06 0)
(0.0556149 6.67958e-06 0)
(0.0547616 6.27354e-06 0)
(0.0539673 5.89197e-06 0)
(0.0532276 5.53064e-06 0)
(0.0525386 5.18348e-06 0)
(0.0518973 4.84916e-06 0)
(0.0513009 4.51877e-06 0)
(0.0507474 4.19587e-06 0)
(0.0502351 3.86544e-06 0)
(0.0497627 3.53882e-06 0)
(0.0493296 3.19058e-06 0)
(0.0489353 2.83981e-06 0)
(0.0485797 2.45784e-06 0)
(0.0482646 2.04431e-06 0)
(0.0479875 1.63143e-06 0)
(0.0477587 1.05594e-06 0)
(0.0475632 6.89977e-07 0)
(0.0474382 -3.34624e-07 0)
(0.0473252 -3.51064e-07 0)
(0.0473444 -2.60498e-06 0)
(0.0473003 -8.26066e-07 0)
(0.0475609 -7.16704e-06 0)
(0.0475148 1.3304e-06 0)
(0.0482508 -1.91176e-05 0)
(0.0481473 3.36119e-05 0)
(0.0460476 -0.00187941 0)
(0.884863 0.0434927 0)
(0.650166 0.0201476 0)
(0.494032 0.00660282 0)
(0.403657 0.00275257 0)
(0.355 0.00154542 0)
(0.323748 0.0011288 0)
(0.299919 0.0009061 0)
(0.280786 0.000741296 0)
(0.265152 0.000618444 0)
(0.252112 0.000527853 0)
(0.241015 0.000459087 0)
(0.231417 0.000404974 0)
(0.223014 0.00036125 0)
(0.21558 0.000325251 0)
(0.208949 0.000295163 0)
(0.20299 0.000269682 0)
(0.197602 0.00024785 0)
(0.192703 0.000228943 0)
(0.188227 0.000212412 0)
(0.184121 0.000197828 0)
(0.180342 0.000184854 0)
(0.176851 0.000173222 0)
(0.173619 0.000162713 0)
(0.170619 0.000153146 0)
(0.16783 0.000144373 0)
(0.165232 0.000136264 0)
(0.162809 0.000128709 0)
(0.160549 0.000121612 0)
(0.158439 0.000114883 0)
(0.156469 0.000108447 0)
(0.154632 0.00010222 0)
(0.15292 9.61474e-05 0)
(0.15133 9.01257e-05 0)
(0.149854 8.41352e-05 0)
(0.148493 7.80132e-05 0)
(0.147243 7.18067e-05 0)
(0.146103 6.52294e-05 0)
(0.145078 5.84434e-05 0)
(0.14416 5.09662e-05 0)
(0.143377 4.30739e-05 0)
(0.142686 3.41527e-05 0)
(0.142188 2.42086e-05 0)
(0.141726 1.33469e-05 0)
(0.141616 -6.92569e-07 0)
(0.141345 -1.31373e-05 0)
(0.14187 -3.86323e-05 0)
(0.141626 -4.36536e-05 0)
(0.143342 -0.000130114 0)
(0.143027 0.000132873 0)
(0.142971 -0.00311609 0)
(0.991208 0.0499545 0)
(0.890939 0.0305598 0)
(0.762548 0.014606 0)
(0.656653 0.00796505 0)
(0.585623 0.0048728 0)
(0.53634 0.00346669 0)
(0.498546 0.00272961 0)
(0.468024 0.00223466 0)
(0.442824 0.00187048 0)
(0.421635 0.00159858 0)
(0.403505 0.00139101 0)
(0.387765 0.00122768 0)
(0.373939 0.00109581 0)
(0.361676 0.00098725 0)
(0.350711 0.000896507 0)
(0.340838 0.000819651 0)
(0.331893 0.000753792 0)
(0.323747 0.000696763 0)
(0.316294 0.000646907 0)
(0.309447 0.000602939 0)
(0.303134 0.000563848 0)
(0.297296 0.000528823 0)
(0.291882 0.00049721 0)
(0.28685 0.000468468 0)
(0.282163 0.000442146 0)
(0.277791 0.000417861 0)
(0.273707 0.000395284 0)
(0.269888 0.000374127 0)
(0.266316 0.000354129 0)
(0.262974 0.000335065 0)
(0.259848 0.000316699 0)
(0.256926 0.000298855 0)
(0.2542 0.000281269 0)
(0.251661 0.000263836 0)
(0.249304 0.000246161 0)
(0.247125 0.00022831 0)
(0.245121 0.000209534 0)
(0.243298 0.000190318 0)
(0.241644 0.000169106 0)
(0.240197 0.000147323 0)
(0.238897 0.000121783 0)
(0.237884 9.56635e-05 0)
(0.236935 6.31609e-05 0)
(0.236499 2.94031e-05 0)
(0.23585 -1.27639e-05 0)
(0.236329 -6.64994e-05 0)
(0.235767 -0.000110006 0)
(0.237884 -0.000280929 0)
(0.237209 7.81236e-06 0)
(0.239825 -0.00329798 0)
(1.01554 0.0489523 0)
(1.0065 0.0357198 0)
(0.935931 0.0208117 0)
(0.852117 0.0134885 0)
(0.782424 0.00918581 0)
(0.727375 0.0067691 0)
(0.682402 0.00537102 0)
(0.644771 0.00442828 0)
(0.612898 0.00373253 0)
(0.585583 0.00320593 0)
(0.561885 0.00279931 0)
(0.541094 0.00247721 0)
(0.52268 0.00221605 0)
(0.506239 0.00200035 0)
(0.491455 0.00181954 0)
(0.478079 0.00166603 0)
(0.465912 0.00153423 0)
(0.454792 0.00141991 0)
(0.444584 0.00131986 0)
(0.435179 0.00123153 0)
(0.426486 0.00115295 0)
(0.418426 0.00108252 0)
(0.410935 0.00101895 0)
(0.403956 0.000961161 0)
(0.397441 0.000908266 0)
(0.39135 0.000859505 0)
(0.385648 0.000814228 0)
(0.380305 0.000771863 0)
(0.375293 0.000731903 0)
(0.370592 0.000693896 0)
(0.366182 0.000657398 0)
(0.362046 0.000622043 0)
(0.358173 0.000587355 0)
(0.354549 0.000553089 0)
(0.351169 0.00051855 0)
(0.348026 0.0004838 0)
(0.345114 0.000447479 0)
(0.342439 0.000410516 0)
(0.339986 0.000369831 0)
(0.337797 0.000328618 0)
(0.335803 0.00027971 0)
(0.334164 0.000231633 0)
(0.332625 0.0001684 0)
(0.331695 0.000109224 0)
(0.330557 2.34537e-05 0)
(0.3307 -6.133e-05 0)
(0.329761 -0.000166464 0)
(0.331718 -0.000413595 0)
(0.330784 -0.000207946 0)
(0.334199 -0.0031939 0)
(1.01435 0.0460965 0)
(1.04799 0.0373358 0)
(1.0246 0.0241768 0)
(0.974758 0.0175434 0)
(0.923635 0.0130912 0)
(0.877003 0.010184 0)
(0.83496 0.00832056 0)
(0.797353 0.00699495 0)
(0.763954 0.00598188 0)
(0.734315 0.00519272 0)
(0.707919 0.00456979 0)
(0.68429 0.00406853 0)
(0.663027 0.00365737 0)
(0.643795 0.00331471 0)
(0.626318 0.00302535 0)
(0.610365 0.0027782 0)
(0.595742 0.00256494 0)
(0.582289 0.00237919 0)
(0.569869 0.00221604 0)
(0.558369 0.00207161 0)
(0.547689 0.00194279 0)
(0.537747 0.00182712 0)
(0.528471 0.00172254 0)
(0.519799 0.00162736 0)
(0.511677 0.00154019 0)
(0.50406 0.00145979 0)
(0.496906 0.00138514 0)
(0.490182 0.00131533 0)
(0.483856 0.00124954 0)
(0.477904 0.00118704 0)
(0.472301 0.00112714 0)
(0.46703 0.00106923 0)
(0.462074 0.0010126 0)
(0.457419 0.000956801 0)
(0.453056 0.000900811 0)
(0.448976 0.000844654 0)
(0.445173 0.000786286 0)
(0.44165 0.000727105 0)
(0.438393 0.00066232 0)
(0.43544 0.000597096 0)
(0.432726 0.000519788 0)
(0.430406 0.000444885 0)
(0.428231 0.000345154 0)
(0.426698 0.000255163 0)
(0.425022 0.000118017 0)
(0.424619 -4.27312e-06 0)
(0.423299 -0.000178048 0)
(0.424662 -0.000505483 0)
(0.423669 -0.000413394 0)
(0.42647 -0.0030954 0)
(1.00941 0.043046 0)
(1.05564 0.0370905 0)
(1.05869 0.0253164 0)
(1.03636 0.019745 0)
(1.00724 0.0157742 0)
(0.976303 0.0129049 0)
(0.944882 0.0109284 0)
(0.914146 0.00944055 0)
(0.884949 0.00824546 0)
(0.857668 0.00727488 0)
(0.832377 0.00648314 0)
(0.809007 0.00582969 0)
(0.787435 0.00528294 0)
(0.767513 0.00481996 0)
(0.749094 0.00442387 0)
(0.732035 0.00408189 0)
(0.716204 0.00378412 0)
(0.701485 0.00352279 0)
(0.68777 0.00329174 0)
(0.674966 0.00308606 0)
(0.662991 0.00290175 0)
(0.65177 0.00273556 0)
(0.641239 0.00258479 0)
(0.631342 0.00244719 0)
(0.622027 0.00232084 0)
(0.61325 0.0022041 0)
(0.604973 0.00209555 0)
(0.59716 0.00199393 0)
(0.589781 0.00189811 0)
(0.582809 0.00180709 0)
(0.576223 0.00171989 0)
(0.570001 0.00163567 0)
(0.564128 0.00155343 0)
(0.558587 0.00147254 0)
(0.553371 0.00139161 0)
(0.548467 0.0013106 0)
(0.543871 0.00122678 0)
(0.539583 0.00114196 0)
(0.535591 0.0010497 0)
(0.531927 0.000956903 0)
(0.528536 0.000847828 0)
(0.525553 0.000742086 0)
(0.522766 0.000602751 0)
(0.520601 0.000476536 0)
(0.518398 0.000286978 0)
(0.51735 0.000115933 0)
(0.515668 -0.000122967 0)
(0.516222 -0.000541751 0)
(0.515203 -0.000563628 0)
(0.517011 -0.00297189 0)
(1.00635 0.0401779 0)
(1.05242 0.0361433 0)
(1.06607 0.0252387 0)
(1.05957 0.0205477 0)
(1.04697 0.0171975 0)
(1.03098 0.0146177 0)
(1.01216 0.0127798 0)
(0.991587 0.0113473 0)
(0.970312 0.010144 0)
(0.949066 0.00912375 0)
(0.928289 0.00826038 0)
(0.90824 0.00752553 0)
(0.88906 0.00689455 0)
(0.870815 0.00634848 0)
(0.853521 0.00587263 0)
(0.837163 0.0054553 0)
(0.821706 0.00508703 0)
(0.807107 0.00476009 0)
(0.793318 0.00446817 0)
(0.780291 0.00420603 0)
(0.767976 0.00396936 0)
(0.756328 0.00375455 0)
(0.745304 0.00355854 0)
(0.734862 0.00337874 0)
(0.724965 0.00321293 0)
(0.71558 0.00305913 0)
(0.706676 0.00291567 0)
(0.698224 0.00278099 0)
(0.6902 0.00265374 0)
(0.68258 0.00253264 0)
(0.675347 0.0024165 0)
(0.668481 0.00230424 0)
(0.661969 0.00219462 0)
(0.655797 0.0020868 0)
(0.649957 0.00197908 0)
(0.644439 0.00187129 0)
(0.639239 0.00176014 0)
(0.634357 0.00164764 0)
(0.629783 0.00152602 0)
(0.625544 0.00140338 0)
(0.621597 0.00126085 0)
(0.618051 0.00112139 0)
(0.614742 0.000941554 0)
(0.61201 0.000774516 0)
(0.609346 0.000534342 0)
(0.607671 0.00030512 0)
(0.605659 6.0336e-06 0)
(0.605402 -0.000507642 0)
(0.604264 -0.000647566 0)
(0.605155 -0.00279456 0)
(1.00506 0.0375006 0)
(1.04763 0.0350446 0)
(1.06397 0.0246906 0)
(1.06421 0.0205775 0)
(1.06075 0.0177334 0)
(1.05489 0.0154547 0)
(1.04619 0.0138306 0)
(1.03508 0.0125614 0)
(1.02228 0.011467 0)
(1.00838 0.0105079 0)
(0.993847 0.00967041 0)
(0.97903 0.00893665 0)
(0.964191 0.00828968 0)
(0.949519 0.00771621 0)
(0.935148 0.00720574 0)
(0.921165 0.00674956 0)
(0.907628 0.00634026 0)
(0.894568 0.00597154 0)
(0.882002 0.00563799 0)
(0.869934 0.00533502 0)
(0.858359 0.00505865 0)
(0.847267 0.00480551 0)
(0.836645 0.00457263 0)
(0.826478 0.00435744 0)
(0.816749 0.00415767 0)
(0.807441 0.00397131 0)
(0.798539 0.00379655 0)
(0.790026 0.00363173 0)
(0.781887 0.00347537 0)
(0.774108 0.00332603 0)
(0.766678 0.00318237 0)
(0.759583 0.00304315 0)
(0.752816 0.00290695 0)
(0.746365 0.00277275 0)
(0.740228 0.00263859 0)
(0.734397 0.00250419 0)
(0.728871 0.00236576 0)
(0.72365 0.00222539 0)
(0.718729 0.00207436 0)
(0.71413 0.0019213 0)
(0.709825 0.00174545 0)
(0.705895 0.00157102 0)
(0.702226 0.00135167 0)
(0.69907 0.00114113 0)
(0.696066 0.000853357 0)
(0.693883 0.000561742 0)
(0.691603 0.00020531 0)
(0.690665 -0.000397679 0)
(0.68934 -0.000661212 0)
(0.689479 -0.00257015 0)
(1.00451 0.0349645 0)
(1.0436 0.0339644 0)
(1.05995 0.0240391 0)
(1.06226 0.0202871 0)
(1.06257 0.0177965 0)
(1.06193 0.0157315 0)
(1.0594 0.01428 0)
(1.05491 0.013175 0)
(1.04878 0.012221 0)
(1.04131 0.011372 0)
(1.03279 0.010617 0)
(1.02347 0.00994229 0)
(1.01359 0.00933487 0)
(1.00333 0.00878517 0)
(0.992857 0.00828601 0)
(0.982297 0.00783153 0)
(0.971752 0.00741665 0)
(0.961298 0.0070369 0)
(0.950996 0.00668834 0)
(0.94089 0.00636747 0)
(0.931011 0.00607122 0)
(0.921383 0.00579682 0)
(0.912022 0.00554181 0)
(0.902936 0.00530397 0)
(0.894132 0.0050813 0)
(0.885613 0.00487193 0)
(0.877378 0.0046742 0)
(0.869426 0.00448648 0)
(0.861756 0.00430732 0)
(0.854363 0.00413527 0)
(0.847246 0.00396894 0)
(0.8404 0.00380701 0)
(0.833823 0.00364798 0)
(0.827514 0.0034907 0)
(0.821471 0.00333304 0)
(0.815693 0.00317459 0)
(0.810182 0.00301125 0)
(0.804942 0.00284503 0)
(0.799973 0.00266663 0)
(0.795292 0.00248464 0)
(0.790885 0.00227754 0)
(0.786813 0.00206896 0)
(0.783001 0.00181281 0)
(0.779632 0.00155863 0)
(0.776462 0.00122728 0)
(0.773959 0.000873403 0)
(0.77152 0.0004619 0)
(0.770095 -0.00021977 0)
(0.768598 -0.000607233 0)
(0.768166 -0.00231349 0)
(1.00412 0.0325338 0)
(1.04027 0.0329106 0)
(1.05618 0.0234039 0)
(1.0589 0.0199017 0)
(1.0603 0.0176662 0)
(1.0617 0.0157322 0)
(1.0621 0.0143813 0)
(1.06125 0.0133905 0)
(1.05925 0.0125509 0)
(1.05621 0.011806 0)
(1.05221 0.0111421 0)
(1.04738 0.0105454 0)
(1.04184 0.010003 0)
(1.03571 0.00950594 0)
(1.02912 0.00904826 0)
(1.02216 0.00862548 0)
(1.01494 0.0082339 0)
(1.00753 0.00787035 0)
(1.00001 0.00753205 0)
(0.992434 0.00721652 0)
(0.984849 0.00692154 0)
(0.977297 0.0066451 0)
(0.969811 0.00638535 0)
(0.962418 0.00614055 0)
(0.95514 0.00590911 0)
(0.947995 0.0056895 0)
(0.940996 0.00548029 0)
(0.934154 0.00528006 0)
(0.92748 0.00508748 0)
(0.920979 0.00490121 0)
(0.914659 0.00471991 0)
(0.908524 0.00454228 0)
(0.90258 0.00436679 0)
(0.896831 0.00419226 0)
(0.891282 0.00401645 0)
(0.885936 0.00383888 0)
(0.880802 0.00365523 0)
(0.875885 0.00346736 0)
(0.87119 0.00326571 0)
(0.866734 0.00305839 0)
(0.862513 0.00282404 0)
(0.858573 0.00258434 0)
(0.854868 0.00229579 0)
(0.851531 0.0020005 0)
(0.848406 0.00163063 0)
(0.845809 0.00121818 0)
(0.843365 0.000755458 0)
(0.841676 7.12813e-06 0)
(0.84009 -0.000498713 0)
(0.839282 -0.0020414 0)
(1.00374 0.0301994 0)
(1.03727 0.031861 0)
(1.05285 0.0227999 0)
(1.05566 0.0194986 0)
(1.0572 0.0174746 0)
(1.05916 0.0156289 0)
(1.06063 0.014325 0)
(1.06136 0.0133969 0)
(1.06141 0.0126298 0)
(1.06082 0.0119576 0)
(1.05959 0.0113645 0)
(1.05773 0.0108351 0)
(1.05528 0.0103551 0)
(1.0523 0.00991456 0)
(1.04882 0.00950712 0)
(1.04493 0.00912818 0)
(1.04067 0.00877429 0)
(1.03611 0.00844264 0)
(1.0313 0.00813092 0)
(1.02628 0.00783717 0)
(1.02111 0.00755966 0)
(1.01582 0.00729686 0)
(1.01045 0.00704738 0)
(1.00503 0.00680988 0)
(0.999589 0.00658314 0)
(0.99415 0.00636593 0)
(0.988735 0.00615709 0)
(0.98336 0.00595541 0)
(0.978044 0.00575976 0)
(0.972798 0.0055689 0)
(0.967637 0.00538164 0)
(0.962572 0.0051967 0)
(0.957612 0.00501262 0)
(0.952768 0.00482821 0)
(0.948049 0.00464119 0)
(0.943464 0.00445102 0)
(0.939023 0.00425328 0)
(0.934736 0.0040496 0)
(0.930612 0.00383045 0)
(0.926667 0.00360311 0)
(0.922903 0.00334711 0)
(0.919359 0.00308121 0)
(0.91601 0.00276609 0)
(0.912949 0.00243458 0)
(0.910084 0.00203224 0)
(0.907623 0.00156823 0)
(0.905347 0.00105871 0)
(0.90362 0.000260385 0)
(0.902068 -0.000354186 0)
(0.901084 -0.00177107 0)
(1.00337 0.0279637 0)
(1.03444 0.0308034 0)
(1.04974 0.0222207 0)
(1.0527 0.0190928 0)
(1.0542 0.0172644 0)
(1.05621 0.0154964 0)
(1.05796 0.0142142 0)
(1.0592 0.0133163 0)
(1.06006 0.0125891 0)
(1.06057 0.0119591 0)
(1.06072 0.0114097 0)
(1.06049 0.0109253 0)
(1.05987 0.0104908 0)
(1.05887 0.010095 0)
(1.0575 0.00973044 0)
(1.05577 0.00939203 0)
(1.05373 0.00907582 0)
(1.05138 0.00877877 0)
(1.04877 0.00849844 0)
(1.04592 0.00823286 0)
(1.04286 0.00798038 0)
(1.03962 0.0077396 0)
(1.03623 0.00750928 0)
(1.03271 0.00728827 0)
(1.02909 0.00707553 0)
(1.02539 0.00687 0)
(1.02163 0.00667069 0)
(1.01782 0.00647655 0)
(1.01399 0.00628656 0)
(1.01015 0.00609961 0)
(1.00632 0.00591456 0)
(1.00251 0.00573025 0)
(0.998729 0.00554518 0)
(0.994993 0.00535825 0)
(0.991314 0.00516712 0)
(0.987702 0.0049712 0)
(0.98417 0.00476605 0)
(0.980729 0.00455302 0)
(0.97739 0.00432281 0)
(0.974171 0.00408161 0)
(0.971076 0.00381039 0)
(0.968137 0.00352436 0)
(0.965343 0.00318933 0)
(0.962761 0.00282822 0)
(0.960341 0.00240006 0)
(0.958214 0.00189405 0)
(0.956265 0.00134309 0)
(0.9547 0.00051213 0)
(0.953315 -0.000197033 0)
(0.952337 -0.00152115 0)
(1.00301 0.0258303 0)
(1.03171 0.0297337 0)
(1.04675 0.0216627 0)
(1.0499 0.0186839 0)
(1.05138 0.0170424 0)
(1.05336 0.0153569 0)
(1.05513 0.0140896 0)
(1.0565 0.0132074 0)
(1.05759 0.0125026 0)
(1.05849 0.0118956 0)
(1.05919 0.0113697 0)
(1.05969 0.0109108 0)
(1.05997 0.0105035 0)
(1.06001 0.0101362 0)
(1.05983 0.00980099 0)
(1.05941 0.009492 0)
(1.05877 0.00920489 0)
(1.05789 0.00893619 0)
(1.05681 0.00868313 0)
(1.05552 0.00844349 0)
(1.05405 0.00821544 0)
(1.05239 0.00799744 0)
(1.05058 0.0077882 0)
(1.04863 0.00758653 0)
(1.04655 0.00739139 0)
(1.04436 0.00720175 0)
(1.04207 0.00701664 0)
(1.03969 0.00683506 0)
(1.03725 0.00665601 0)
(1.03476 0.00647843 0)
(1.03222 0.00630121 0)
(1.02964 0.00612319 0)
(1.02706 0.00594289 0)
(1.02446 0.0057592 0)
(1.02187 0.00556973 0)
(1.0193 0.00537385 0)
(1.01675 0.00516712 0)
(1.01425 0.00495054 0)
(1.01179 0.0047152 0)
(1.0094 0.00446605 0)
(1.00709 0.00418581 0)
(1.00487 0.00388586 0)
(1.00276 0.0035375 0)
(1.00078 0.00315403 0)
(0.998924 0.00270678 0)
(0.997268 0.00216904 0)
(0.99576 0.0015842 0)
(0.994505 0.000733807 0)
(0.993398 -5.30932e-05 0)
(0.992569 -0.00130957 0)
(1.00268 0.0238017 0)
(1.02912 0.0286501 0)
(1.04383 0.0211254 0)
(1.04721 0.018272 0)
(1.0487 0.0168069 0)
(1.05063 0.0152129 0)
(1.0524 0.0139623 0)
(1.05378 0.0130911 0)
(1.0549 0.0124022 0)
(1.0559 0.0118094 0)
(1.05677 0.0112962 0)
(1.05753 0.0108505 0)
(1.05817 0.0104578 0)
(1.05868 0.0101063 0)
(1.05906 0.00978791 0)
(1.0593 0.00949676 0)
(1.05941 0.0092282 0)
(1.05937 0.00897851 0)
(1.05919 0.00874467 0)
(1.05888 0.0085242 0)
(1.05842 0.00831505 0)
(1.05784 0.00811552 0)
(1.05712 0.00792412 0)
(1.05629 0.00773957 0)
(1.05534 0.00756071 0)
(1.05429 0.00738644 0)
(1.05314 0.00721572 0)
(1.05191 0.00704751 0)
(1.05059 0.00688077 0)
(1.04921 0.00671441 0)
(1.04776 0.00654726 0)
(1.04627 0.00637815 0)
(1.04473 0.00620554 0)
(1.04316 0.00602829 0)
(1.04156 0.00584396 0)
(1.03995 0.00565181 0)
(1.03833 0.00544744 0)
(1.03672 0.00523145 0)
(1.03513 0.00499542 0)
(1.03356 0.00474295 0)
(1.03203 0.00445868 0)
(1.03055 0.00415016 0)
(1.02913 0.00379407 0)
(1.02779 0.00339499 0)
(1.02654 0.00293467 0)
(1.02541 0.00237511 0)
(1.02439 0.00176368 0)
(1.02353 0.000905805 0)
(1.02277 5.93192e-05 0)
(1.02217 -0.00114877 0)
(1.00238 0.0218797 0)
(1.02665 0.0275519 0)
(1.04101 0.0206086 0)
(1.0446 0.0178585 0)
(1.0461 0.0165567 0)
(1.04801 0.0150629 0)
(1.04978 0.0138333 0)
(1.05115 0.0129723 0)
(1.05227 0.0122975 0)
(1.05326 0.0117165 0)
(1.05417 0.0112119 0)
(1.05499 0.0107738 0)
(1.05574 0.0103889 0)
(1.05641 0.0100456 0)
(1.05701 0.00973608 0)
(1.05754 0.00945446 0)
(1.05798 0.00919612 0)
(1.05835 0.0089573 0)
(1.05864 0.00873489 0)
(1.05884 0.0085263 0)
(1.05896 0.00832935 0)
(1.05899 0.0081422 0)
(1.05894 0.00796325 0)
(1.0588 0.00779108 0)
(1.05858 0.00762443 0)
(1.05829 0.0074621 0)
(1.05791 0.00730298 0)
(1.05747 0.00714592 0)
(1.05696 0.00698983 0)
(1.05639 0.00683353 0)
(1.05577 0.00667579 0)
(1.05509 0.00651538 0)
(1.05437 0.00635068 0)
(1.0536 0.00618047 0)
(1.05281 0.00600227 0)
(1.05198 0.00581519 0)
(1.05114 0.00561491 0)
(1.05029 0.00540155 0)
(1.04943 0.00516728 0)
(1.04857 0.00491429 0)
(1.04773 0.0046292 0)
(1.04691 0.00431591 0)
(1.04613 0.00395603 0)
(1.04538 0.00354684 0)
(1.0447 0.00307807 0)
(1.04408 0.00250507 0)
(1.04353 0.00187392 0)
(1.04307 0.00101746 0)
(1.04265 0.000129944 0)
(1.04233 -0.0010443 0)
(1.0021 0.0200652 0)
(1.02431 0.026441 0)
(1.03828 0.0201099 0)
(1.04208 0.0174455 0)
(1.0436 0.0162918 0)
(1.04548 0.0149057 0)
(1.04725 0.0137022 0)
(1.04862 0.0128513 0)
(1.04972 0.0121907 0)
(1.0507 0.0116212 0)
(1.0516 0.0111243 0)
(1.05243 0.010692 0)
(1.0532 0.0103121 0)
(1.05391 0.00997374 0)
(1.05457 0.00966901 0)
(1.05519 0.00939231 0)
(1.05576 0.00913918 0)
(1.05629 0.00890593 0)
(1.05678 0.00868948 0)
(1.05722 0.00848724 0)
(1.05761 0.00829701 0)
(1.05795 0.00811691 0)
(1.05824 0.00794525 0)
(1.05848 0.00778059 0)
(1.05867 0.00762157 0)
(1.05881 0.00746696 0)
(1.05891 0.00731554 0)
(1.05895 0.00716613 0)
(1.05895 0.00701754 0)
(1.05891 0.00686856 0)
(1.05882 0.00671785 0)
(1.0587 0.00656413 0)
(1.05853 0.0064057 0)
(1.05834 0.00624128 0)
(1.05811 0.00606832 0)
(1.05786 0.00588576 0)
(1.05759 0.00568939 0)
(1.05731 0.00547886 0)
(1.05701 0.00524696 0)
(1.05671 0.00499447 0)
(1.05641 0.00470994 0)
(1.05612 0.00439401 0)
(1.05585 0.00403249 0)
(1.05559 0.003617 0)
(1.05537 0.00314279 0)
(1.05518 0.00256261 0)
(1.05503 0.00191751 0)
(1.05492 0.00106807 0)
(1.05482 0.000155575 0)
(1.05476 -0.000994288 0)
(1.00185 0.0183584 0)
(1.02211 0.0253215 0)
(1.03565 0.0196257 0)
(1.03964 0.0170346 0)
(1.04119 0.0160128 0)
(1.04304 0.0147404 0)
(1.0448 0.0135684 0)
(1.04617 0.012728 0)
(1.04727 0.0120815 0)
(1.04824 0.0115243 0)
(1.04912 0.0110352 0)
(1.04994 0.0106083 0)
(1.0507 0.0102329 0)
(1.05141 0.00989817 0)
(1.05208 0.00959666 0)
(1.05272 0.0093229 0)
(1.05333 0.00907259 0)
(1.0539 0.00884216 0)
(1.05446 0.00862863 0)
(1.05498 0.00842946 0)
(1.05548 0.00824247 0)
(1.05595 0.0080658 0)
(1.0564 0.00789777 0)
(1.05681 0.00773691 0)
(1.0572 0.00758186 0)
(1.05757 0.00743135 0)
(1.0579 0.00728413 0)
(1.05821 0.00713901 0)
(1.05849 0.00699472 0)
(1.05874 0.00685003 0)
(1.05897 0.00670354 0)
(1.05918 0.00655392 0)
(1.05936 0.00639941 0)
(1.05952 0.00623865 0)
(1.05966 0.00606907 0)
(1.05978 0.00588945 0)
(1.05988 0.00569572 0)
(1.05998 0.00548702 0)
(1.06007 0.0052568 0)
(1.06015 0.00500456 0)
(1.06023 0.00472058 0)
(1.06032 0.00440275 0)
(1.06041 0.00404026 0)
(1.06051 0.00362072 0)
(1.06063 0.00314267 0)
(1.06077 0.00255942 0)
(1.06092 0.00190483 0)
(1.06108 0.00106533 0)
(1.06123 0.000139813 0)
(1.06137 -0.000991168 0)
(1.00162 0.0167592 0)
(1.02005 0.0241976 0)
(1.03312 0.0191518 0)
(1.03729 0.0166274 0)
(1.03887 0.0157207 0)
(1.04068 0.0145662 0)
(1.04245 0.0134317 0)
(1.04382 0.0126022 0)
(1.04491 0.0119699 0)
(1.04586 0.0114254 0)
(1.04674 0.0109447 0)
(1.04754 0.0105235 0)
(1.04829 0.0101523 0)
(1.04899 0.00982113 0)
(1.04965 0.00952243 0)
(1.05028 0.00925095 0)
(1.05089 0.00900256 0)
(1.05147 0.00877383 0)
(1.05204 0.00856185 0)
(1.05259 0.00836415 0)
(1.05312 0.00817862 0)
(1.05363 0.0080034 0)
(1.05413 0.00783688 0)
(1.05462 0.00767757 0)
(1.05509 0.00752413 0)
(1.05555 0.0073753 0)
(1.05599 0.00722982 0)
(1.05642 0.00708649 0)
(1.05683 0.00694404 0)
(1.05723 0.0068012 0)
(1.05762 0.00665655 0)
(1.058 0.00650872 0)
(1.05836 0.00635592 0)
(1.05872 0.00619672 0)
(1.05906 0.00602857 0)
(1.0594 0.00585008 0)
(1.05972 0.00565736 0)
(1.06005 0.00544908 0)
(1.06037 0.00521932 0)
(1.06068 0.00496643 0)
(1.061 0.00468222 0)
(1.06132 0.00436239 0)
(1.06165 0.00399868 0)
(1.06199 0.00357617 0)
(1.06234 0.00309491 0)
(1.06269 0.00251093 0)
(1.06304 0.00185008 0)
(1.06339 0.00102159 0)
(1.0637 9.1404e-05 0)
(1.06398 -0.00102373 0)
(1.00142 0.0152667 0)
(1.01812 0.0230734 0)
(1.03069 0.0186843 0)
(1.03503 0.0162255 0)
(1.03664 0.015417 0)
(1.03842 0.0143827 0)
(1.04017 0.0132917 0)
(1.04155 0.0124741 0)
(1.04264 0.0118556 0)
(1.04358 0.0113245 0)
(1.04444 0.0108527 0)
(1.04524 0.0104374 0)
(1.04597 0.0100707 0)
(1.04666 0.00974308 0)
(1.04731 0.00944716 0)
(1.04793 0.00917785 0)
(1.04853 0.00893115 0)
(1.04911 0.00870375 0)
(1.04967 0.00849283 0)
(1.05021 0.00829599 0)
(1.05074 0.00811115 0)
(1.05127 0.00793651 0)
(1.05178 0.00777046 0)
(1.05228 0.00761157 0)
(1.05278 0.0074585 0)
(1.05326 0.00730999 0)
(1.05374 0.00716483 0)
(1.05422 0.00702179 0)
(1.05469 0.00687962 0)
(1.05515 0.00673703 0)
(1.05561 0.00659259 0)
(1.05606 0.00644491 0)
(1.05651 0.0062922 0)
(1.05696 0.00613295 0)
(1.0574 0.00596469 0)
(1.05784 0.00578582 0)
(1.05828 0.00559268 0)
(1.05872 0.00538351 0)
(1.05917 0.00515298 0)
(1.05961 0.00489848 0)
(1.06006 0.00461308 0)
(1.06052 0.00429084 0)
(1.06098 0.00392527 0)
(1.06145 0.00350021 0)
(1.06192 0.00301589 0)
(1.0624 0.00243235 0)
(1.06287 0.00176759 0)
(1.06332 0.000950036 0)
(1.06374 2.10713e-05 0)
(1.0641 -0.00107991 0)
(1.00124 0.0138795 0)
(1.01633 0.0219528 0)
(1.02837 0.0182194 0)
(1.03286 0.01583 0)
(1.03451 0.0151033 0)
(1.03625 0.0141892 0)
(1.03799 0.0131481 0)
(1.03937 0.0123435 0)
(1.04045 0.0117386 0)
(1.04139 0.0112214 0)
(1.04224 0.0107591 0)
(1.04302 0.0103499 0)
(1.04374 0.00998794 0)
(1.04442 0.009664 0)
(1.04506 0.00937097 0)
(1.04567 0.00910387 0)
(1.04626 0.00885885 0)
(1.04683 0.00863272 0)
(1.04738 0.00842274 0)
(1.04791 0.00822657 0)
(1.04844 0.00804217 0)
(1.04896 0.00786777 0)
(1.04946 0.0077018 0)
(1.04996 0.00754284 0)
(1.05046 0.00738957 0)
(1.05095 0.00724076 0)
(1.05144 0.00709521 0)
(1.05193 0.0069517 0)
(1.05241 0.00680897 0)
(1.05289 0.00666575 0)
(1.05337 0.00652059 0)
(1.05385 0.0063721 0)
(1.05433 0.00621848 0)
(1.05481 0.00605818 0)
(1.0553 0.00588877 0)
(1.05578 0.00570852 0)
(1.05627 0.00551397 0)
(1.05676 0.00530298 0)
(1.05726 0.00507075 0)
(1.05777 0.0048139 0)
(1.05828 0.00452647 0)
(1.05879 0.00420145 0)
(1.05932 0.00383343 0)
(1.05985 0.00340598 0)
(1.06039 0.00291865 0)
(1.06092 0.00233606 0)
(1.06145 0.00166923 0)
(1.06195 0.000861956 0)
(1.06241 -6.16814e-05 0)
(1.0628 -0.00114879 0)
(1.00107 0.0125955 0)
(1.01467 0.0208399 0)
(1.02616 0.0177537 0)
(1.03077 0.0154419 0)
(1.03248 0.0147813 0)
(1.03417 0.0139853 0)
(1.0359 0.0130002 0)
(1.03728 0.0122106 0)
(1.03836 0.0116189 0)
(1.03929 0.0111159 0)
(1.04013 0.0106637 0)
(1.0409 0.0102611 0)
(1.04161 0.00990393 0)
(1.04228 0.00958383 0)
(1.04291 0.0092938 0)
(1.04351 0.00902899 0)
(1.04409 0.00878571 0)
(1.04464 0.00856089 0)
(1.04518 0.00835185 0)
(1.04571 0.00815631 0)
(1.04623 0.00797229 0)
(1.04673 0.00779804 0)
(1.04723 0.00763201 0)
(1.04773 0.0074728 0)
(1.04822 0.00731913 0)
(1.0487 0.00716977 0)
(1.04918 0.00702353 0)
(1.04967 0.00687921 0)
(1.05015 0.00673554 0)
(1.05063 0.00659127 0)
(1.05111 0.00644494 0)
(1.0516 0.00629515 0)
(1.05208 0.0061401 0)
(1.05257 0.00597821 0)
(1.05307 0.00580709 0)
(1.05357 0.00562488 0)
(1.05407 0.00542834 0)
(1.05458 0.00521498 0)
(1.05509 0.00498047 0)
(1.05562 0.00472084 0)
(1.05615 0.00443085 0)
(1.05669 0.00410285 0)
(1.05724 0.003732 0)
(1.05779 0.00330229 0)
(1.05835 0.00281216 0)
(1.0589 0.00223078 0)
(1.05944 0.00156343 0)
(1.05995 0.000765775 0)
(1.06042 -0.00015011 0)
(1.06081 -0.00122225 0)
(1.00093 0.0114122 0)
(1.01314 0.0197389 0)
(1.02407 0.0172842 0)
(1.02877 0.0150616 0)
(1.03054 0.014453 0)
(1.03219 0.0137707 0)
(1.03389 0.0128476 0)
(1.03528 0.0120753 0)
(1.03636 0.0114964 0)
(1.03728 0.0110078 0)
(1.03811 0.0105664 0)
(1.03887 0.0101708 0)
(1.03958 0.0098186 0)
(1.04023 0.00950247 0)
(1.04085 0.00921557 0)
(1.04144 0.00895315 0)
(1.04201 0.00871168 0)
(1.04256 0.0084882 0)
(1.04309 0.00828014 0)
(1.0436 0.00808526 0)
(1.04411 0.00790161 0)
(1.04461 0.00772749 0)
(1.0451 0.00756137 0)
(1.04558 0.00740188 0)
(1.04606 0.00724773 0)
(1.04654 0.00709773 0)
(1.04702 0.00695069 0)
(1.04749 0.00680543 0)
(1.04797 0.00666068 0)
(1.04844 0.00651518 0)
(1.04892 0.00636749 0)
(1.0494 0.00621617 0)
(1.04988 0.00605946 0)
(1.05037 0.00589571 0)
(1.05086 0.00572262 0)
(1.05135 0.0055382 0)
(1.05186 0.00533936 0)
(1.05237 0.0051234 0)
(1.05288 0.0048863 0)
(1.05341 0.00462372 0)
(1.05394 0.00433091 0)
(1.05448 0.00399992 0)
(1.05503 0.00362612 0)
(1.05558 0.00319435 0)
(1.05613 0.00270179 0)
(1.05668 0.00212185 0)
(1.05722 0.00145539 0)
(1.05772 0.000666951 0)
(1.05817 -0.00023897 0)
(1.05854 -0.00129482 0)
(1.0008 0.0103263 0)
(1.01174 0.0186538 0)
(1.02208 0.016808 0)
(1.02685 0.0146895 0)
(1.02869 0.0141206 0)
(1.0303 0.0135454 0)
(1.03198 0.0126897 0)
(1.03337 0.0119375 0)
(1.03445 0.0113713 0)
(1.03536 0.0108971 0)
(1.03618 0.0104671 0)
(1.03694 0.0100788 0)
(1.03763 0.00973185 0)
(1.03828 0.00941983 0)
(1.03889 0.00913618 0)
(1.03947 0.00887626 0)
(1.04003 0.00863668 0)
(1.04056 0.00841461 0)
(1.04109 0.00820756 0)
(1.04159 0.00801336 0)
(1.04209 0.00783011 0)
(1.04258 0.00765613 0)
(1.04306 0.00748992 0)
(1.04354 0.00733012 0)
(1.04401 0.00717549 0)
(1.04448 0.00702482 0)
(1.04494 0.00687694 0)
(1.04541 0.00673069 0)
(1.04588 0.0065848 0)
(1.04634 0.00643801 0)
(1.04681 0.00628888 0)
(1.04728 0.00613595 0)
(1.04776 0.00597749 0)
(1.04824 0.00581179 0)
(1.04872 0.00563661 0)
(1.04921 0.00544986 0)
(1.04971 0.00524862 0)
(1.05021 0.00502997 0)
(1.05072 0.00479018 0)
(1.05124 0.00452465 0)
(1.05176 0.00422894 0)
(1.05229 0.00389508 0)
(1.05283 0.00351843 0)
(1.05337 0.00308487 0)
(1.05391 0.00259043 0)
(1.05445 0.00201221 0)
(1.05496 0.00134796 0)
(1.05544 0.000568696 0)
(1.05587 -0.000325415 0)
(1.05621 -0.00136331 0)
(1.00069 0.00933401 0)
(1.01046 0.0175887 0)
(1.02021 0.016323 0)
(1.02502 0.0143256 0)
(1.02692 0.0137859 0)
(1.0285 0.0133095 0)
(1.03015 0.0125257 0)
(1.03154 0.0117972 0)
(1.03262 0.0112434 0)
(1.03353 0.0107836 0)
(1.03434 0.0103656 0)
(1.03509 0.00998512 0)
(1.03578 0.00964358 0)
(1.03642 0.00933582 0)
(1.03702 0.00905555 0)
(1.03759 0.00879823 0)
(1.03814 0.00856062 0)
(1.03867 0.00834001 0)
(1.03918 0.00813403 0)
(1.03968 0.00794055 0)
(1.04017 0.00775772 0)
(1.04065 0.0075839 0)
(1.04112 0.0074176 0)
(1.04159 0.00725751 0)
(1.04205 0.00710237 0)
(1.04251 0.00695102 0)
(1.04297 0.0068023 0)
(1.04343 0.00665504 0)
(1.04389 0.00650799 0)
(1.04435 0.00635988 0)
(1.04481 0.00620928 0)
(1.04527 0.00605472 0)
(1.04574 0.00589446 0)
(1.04621 0.00572678 0)
(1.04668 0.00554948 0)
(1.04716 0.0053604 0)
(1.04765 0.00515672 0)
(1.04814 0.0049354 0)
(1.04864 0.0046929 0)
(1.04915 0.00442451 0)
(1.04966 0.00412595 0)
(1.05018 0.00378943 0)
(1.05071 0.00341015 0)
(1.05123 0.00297514 0)
(1.05176 0.00247947 0)
(1.05227 0.00190335 0)
(1.05276 0.00124255 0)
(1.05321 0.000472752 0)
(1.05361 -0.000407945 0)
(1.05392 -0.001426 0)
(1.0006 0.00843096 0)
(1.0093 0.0165477 0)
(1.01845 0.0158272 0)
(1.02328 0.0139695 0)
(1.02525 0.0134509 0)
(1.0268 0.0130635 0)
(1.02841 0.0123552 0)
(1.0298 0.0116542 0)
(1.03089 0.0111129 0)
(1.03179 0.0106673 0)
(1.03259 0.0102616 0)
(1.03333 0.00988954 0)
(1.03401 0.00955369 0)
(1.03464 0.00925032 0)
(1.03524 0.00897357 0)
(1.0358 0.00871897 0)
(1.03634 0.00848341 0)
(1.03686 0.00826434 0)
(1.03737 0.00805947 0)
(1.03786 0.00786674 0)
(1.03834 0.00768436 0)
(1.03881 0.00751071 0)
(1.03928 0.00734435 0)
(1.03974 0.00718396 0)
(1.04019 0.00702833 0)
(1.04064 0.0068763 0)
(1.0411 0.00672672 0)
(1.04155 0.00657845 0)
(1.042 0.00643023 0)
(1.04245 0.00628079 0)
(1.0429 0.0061287 0)
(1.04335 0.0059725 0)
(1.04381 0.00581044 0)
(1.04427 0.00564077 0)
(1.04474 0.00546135 0)
(1.04521 0.00526995 0)
(1.04569 0.00506384 0)
(1.04617 0.00483992 0)
(1.04666 0.00459476 0)
(1.04715 0.00432364 0)
(1.04766 0.00402236 0)
(1.04816 0.00368341 0)
(1.04867 0.00330183 0)
(1.04918 0.00286574 0)
(1.04969 0.00236955 0)
(1.05018 0.00179601 0)
(1.05064 0.0011398 0)
(1.05107 0.000380034 0)
(1.05144 -0.000485779 0)
(1.05171 -0.00148203 0)
(1.00051 0.0076124 0)
(1.00825 0.0155347 0)
(1.01681 0.0153196 0)
(1.02162 0.0136205 0)
(1.02366 0.0131172 0)
(1.02518 0.0128082 0)
(1.02676 0.0121775 0)
(1.02814 0.0115081 0)
(1.02923 0.0109798 0)
(1.03013 0.010548 0)
(1.03093 0.0101552 0)
(1.03166 0.00979194 0)