/*--------------------------------*- C++ -*----------------------------------*\
  =========                 |
  \\      /  F ield         | OpenFOAM: The Open Source CFD Toolbox
   \\    /   O peration     | Website:  https://openfoam.org
    \\  /    A nd           | Version:  7
     \\/     M anipulation  |
\*---------------------------------------------------------------------------*/
FoamFile
{
    version     2.0;
    format      ascii;
    class       volVectorField;
    location    "0.21";
    object      vorticity;
}
// * * * * * * * * * * * * * * * * * * * * * * * * * * * * * * * * * * * * * //

dimensions      [0 0 -1 0 0 0 0];

internalField   nonuniform List<vector> 
70000
(
(0 -0 -45716.1)
(0 -0 -28618.6)
(0 -0 -20915.8)
(0 -0 -16984.4)
(0 -0 -14965.3)
(0 -0 -13660.9)
(0 -0 -12654.3)
(0 -0 -11844.9)
(0 -0 -11184.4)
(0 -0 -10633.9)
(0 -0 -10165.4)
(0 -0 -9760.23)
(0 -0 -9405.51)
(0 -0 -9091.8)
(0 -0 -8812)
(0 -0 -8560.6)
(0 -0 -8333.32)
(0 -0 -8126.7)
(0 -0 -7937.99)
(0 -0 -7764.92)
(0 -0 -7605.62)
(0 -0 -7458.55)
(0 -0 -7322.39)
(0 -0 -7196.06)
(0 -0 -7078.63)
(0 -0 -6969.29)
(0 -0 -6867.39)
(0 -0 -6772.35)
(0 -0 -6683.69)
(0 -0 -6600.98)
(0 -0 -6523.9)
(0 -0 -6452.15)
(0 -0 -6385.54)
(0 -0 -6323.85)
(0 -0 -6267.01)
(0 -0 -6214.93)
(0 -0 -6167.57)
(0 -0 -6125.14)
(0 -0 -6087.31)
(0 -0 -6055.25)
(0 -0 -6027.22)
(0 -0 -6007.5)
(0 -0 -5989.31)
(0 -0 -5986.47)
(0 -0 -5976.55)
(0 -0 -6001.47)
(0 -0 -5992.35)
(0 -0 -6069.99)
(0 -0 -6063.52)
(0 -0 -5961.16)
(0 -0 -13549.6)
(0 -0 -19947.4)
(0 -0 -18537)
(0 -0 -16251.7)
(0 -0 -14507.4)
(0 -0 -13285.3)
(0 -0 -12359.5)
(0 -0 -11612.1)
(0 -0 -10992.6)
(0 -0 -10470.3)
(0 -0 -10022.9)
(0 -0 -9634.09)
(0 -0 -9292.25)
(0 -0 -8988.85)
(0 -0 -8717.36)
(0 -0 -8472.75)
(0 -0 -8251.01)
(0 -0 -8048.96)
(0 -0 -7863.98)
(0 -0 -7693.96)
(0 -0 -7537.12)
(0 -0 -7392)
(0 -0 -7257.34)
(0 -0 -7132.09)
(0 -0 -7015.37)
(0 -0 -6906.4)
(0 -0 -6804.53)
(0 -0 -6709.2)
(0 -0 -6619.93)
(0 -0 -6536.3)
(0 -0 -6457.98)
(0 -0 -6384.66)
(0 -0 -6316.11)
(0 -0 -6252.12)
(0 -0 -6192.57)
(0 -0 -6137.34)
(0 -0 -6086.34)
(0 -0 -6039.69)
(0 -0 -5997.09)
(0 -0 -5959.41)
(0 -0 -5925.25)
(0 -0 -5897.83)
(0 -0 -5872.01)
(0 -0 -5858.03)
(0 -0 -5839.4)
(0 -0 -5846.29)
(0 -0 -5830.6)
(0 -0 -5872.66)
(0 -0 -5866.38)
(0 -0 -5991.52)
(0 -0 -3818.73)
(0 -0 -10828.5)
(0 -0 -13363)
(0 -0 -13519.5)
(0 -0 -12866.9)
(0 -0 -12141.9)
(0 -0 -11501.8)
(0 -0 -10943.3)
(0 -0 -10453.6)
(0 -0 -10023.5)
(0 -0 -9643.96)
(0 -0 -9306.98)
(0 -0 -9005.72)
(0 -0 -8734.67)
(0 -0 -8489.41)
(0 -0 -8266.32)
(0 -0 -8062.45)
(0 -0 -7875.35)
(0 -0 -7702.99)
(0 -0 -7543.66)
(0 -0 -7395.92)
(0 -0 -7258.55)
(0 -0 -7130.51)
(0 -0 -7010.89)
(0 -0 -6898.93)
(0 -0 -6793.95)
(0 -0 -6695.38)
(0 -0 -6602.72)
(0 -0 -6515.53)
(0 -0 -6433.43)
(0 -0 -6356.11)
(0 -0 -6283.28)
(0 -0 -6214.7)
(0 -0 -6150.17)
(0 -0 -6089.54)
(0 -0 -6032.66)
(0 -0 -5979.45)
(0 -0 -5929.9)
(0 -0 -5883.81)
(0 -0 -5841.63)
(0 -0 -5802.51)
(0 -0 -5768.32)
(0 -0 -5736.04)
(0 -0 -5711.5)
(0 -0 -5685.55)
(0 -0 -5674.22)
(0 -0 -5653.81)
(0 -0 -5660.11)
(0 -0 -5652.73)
(0 -0 -5743.08)
(0 -0 -533.099)
(0 -0 -4662.41)
(0 -0 -7717.7)
(0 -0 -9327.33)
(0 -0 -9890.99)
(0 -0 -9956.57)
(0 -0 -9825.46)
(0 -0 -9614.46)
(0 -0 -9372.37)
(0 -0 -9123.81)
(0 -0 -8881.16)
(0 -0 -8649.93)
(0 -0 -8432.15)
(0 -0 -8228.23)
(0 -0 -8037.77)
(0 -0 -7860.01)
(0 -0 -7694.07)
(0 -0 -7539.01)
(0 -0 -7393.95)
(0 -0 -7258.05)
(0 -0 -7130.54)
(0 -0 -7010.73)
(0 -0 -6897.98)
(0 -0 -6791.74)
(0 -0 -6691.48)
(0 -0 -6596.77)
(0 -0 -6507.2)
(0 -0 -6422.41)
(0 -0 -6342.08)
(0 -0 -6265.92)
(0 -0 -6193.68)
(0 -0 -6125.15)
(0 -0 -6060.12)
(0 -0 -5998.43)
(0 -0 -5939.94)
(0 -0 -5884.51)
(0 -0 -5832.07)
(0 -0 -5782.53)
(0 -0 -5735.8)
(0 -0 -5691.97)
(0 -0 -5650.79)
(0 -0 -5612.75)
(0 -0 -5577.09)
(0 -0 -5545.19)
(0 -0 -5515.38)
(0 -0 -5489.84)
(0 -0 -5468.29)
(0 -0 -5445.45)
(0 -0 -5445.94)
(0 -0 -5440.27)
(0 -0 322.383)
(0 -0 -1444.46)
(0 -0 -3532.01)
(0 -0 -5257.82)
(0 -0 -6397.07)
(0 -0 -7071.17)
(0 -0 -7448.19)
(0 -0 -7638.67)
(0 -0 -7710.89)
(0 -0 -7709.11)
(0 -0 -7661.86)
(0 -0 -7587.19)
(0 -0 -7496.45)
(0 -0 -7396.89)
(0 -0 -7293.13)
(0 -0 -7188.16)
(0 -0 -7083.9)
(0 -0 -6981.55)
(0 -0 -6881.88)
(0 -0 -6785.33)
(0 -0 -6692.15)
(0 -0 -6602.44)
(0 -0 -6516.22)
(0 -0 -6433.44)
(0 -0 -6354.03)
(0 -0 -6277.88)
(0 -0 -6204.87)
(0 -0 -6134.89)
(0 -0 -6067.8)
(0 -0 -6003.49)
(0 -0 -5941.85)
(0 -0 -5882.76)
(0 -0 -5826.12)
(0 -0 -5771.84)
(0 -0 -5719.84)
(0 -0 -5670.02)
(0 -0 -5622.35)
(0 -0 -5576.72)
(0 -0 -5533.18)
(0 -0 -5491.52)
(0 -0 -5452.01)
(0 -0 -5414.07)
(0 -0 -5378.8)
(0 -0 -5344.05)
(0 -0 -5314.04)
(0 -0 -5280.52)
(0 -0 -5260.22)
(0 -0 -5219.73)
(0 -0 -5225.75)
(0 -0 -5170.99)
(0 -0 364.661)
(0 -0 -158.582)
(0 -0 -1181.26)
(0 -0 -2361.08)
(0 -0 -3415.58)
(0 -0 -4253.04)
(0 -0 -4886.96)
(0 -0 -5351.42)
(0 -0 -5681.6)
(0 -0 -5909.62)
(0 -0 -6061.8)
(0 -0 -6158.28)
(0 -0 -6213.95)
(0 -0 -6239.74)
(0 -0 -6243.67)
(0 -0 -6231.6)
(0 -0 -6207.89)
(0 -0 -6175.74)
(0 -0 -6137.55)
(0 -0 -6095.11)
(0 -0 -6049.77)
(0 -0 -6002.53)
(0 -0 -5954.18)
(0 -0 -5905.28)
(0 -0 -5856.29)
(0 -0 -5807.52)
(0 -0 -5759.24)
(0 -0 -5711.63)
(0 -0 -5664.82)
(0 -0 -5618.92)
(0 -0 -5574.01)
(0 -0 -5530.13)
(0 -0 -5487.32)
(0 -0 -5445.59)
(0 -0 -5404.97)
(0 -0 -5365.44)
(0 -0 -5327.05)
(0 -0 -5289.69)
(0 -0 -5253.54)
(0 -0 -5218.23)
(0 -0 -5184.42)
(0 -0 -5150.85)
(0 -0 -5119.77)
(0 -0 -5087.04)
(0 -0 -5060.06)
(0 -0 -5025.32)
(0 -0 -5007.22)
(0 -0 -4962.03)
(0 -0 -4965.23)
(0 -0 -4905.43)
(0 -0 253.993)
(0 -0 185.247)
(0 -0 -173.242)
(0 -0 -764.224)
(0 -0 -1446.47)
(0 -0 -2113.11)
(0 -0 -2716.9)
(0 -0 -3238.49)
(0 -0 -3673.89)
(0 -0 -4029)
(0 -0 -4314.21)
(0 -0 -4540.68)
(0 -0 -4718.78)
(0 -0 -4857.48)
(0 -0 -4964.27)
(0 -0 -5045.29)
(0 -0 -5105.53)
(0 -0 -5149.01)
(0 -0 -5178.94)
(0 -0 -5197.92)
(0 -0 -5208.04)
(0 -0 -5210.99)
(0 -0 -5208.13)
(0 -0 -5200.56)
(0 -0 -5189.18)
(0 -0 -5174.73)
(0 -0 -5157.81)
(0 -0 -5138.91)
(0 -0 -5118.44)
(0 -0 -5096.73)
(0 -0 -5074.05)
(0 -0 -5050.64)
(0 -0 -5026.68)
(0 -0 -5002.32)
(0 -0 -4977.7)
(0 -0 -4952.91)
(0 -0 -4928.06)
(0 -0 -4903.14)
(0 -0 -4878.39)
(0 -0 -4853.45)
(0 -0 -4829.1)
(0 -0 -4803.96)
(0 -0 -4780.53)
(0 -0 -4754.29)
(0 -0 -4733.16)
(0 -0 -4703.13)
(0 -0 -4688.17)
(0 -0 -4647.87)
(0 -0 -4645.69)
(0 -0 -4595.9)
(0 -0 178.722)
(0 -0 204.46)
(0 -0 130.623)
(0 -0 -85.0869)
(0 -0 -417.33)
(0 -0 -813.57)
(0 -0 -1233.93)
(0 -0 -1649.56)
(0 -0 -2040.7)
(0 -0 -2396.46)
(0 -0 -2712.74)
(0 -0 -2989.51)
(0 -0 -3229.06)
(0 -0 -3434.75)
(0 -0 -3610.31)
(0 -0 -3759.48)
(0 -0 -3885.74)
(0 -0 -3992.24)
(0 -0 -4081.76)
(0 -0 -4156.7)
(0 -0 -4219.14)
(0 -0 -4270.87)
(0 -0 -4313.41)
(0 -0 -4348.06)
(0 -0 -4375.93)
(0 -0 -4397.96)
(0 -0 -4414.95)
(0 -0 -4427.6)
(0 -0 -4436.48)
(0 -0 -4442.09)
(0 -0 -4444.87)
(0 -0 -4445.19)
(0 -0 -4443.35)
(0 -0 -4439.63)
(0 -0 -4434.25)
(0 -0 -4427.41)
(0 -0 -4419.29)
(0 -0 -4409.97)
(0 -0 -4399.71)
(0 -0 -4388.28)
(0 -0 -4376.37)
(0 -0 -4362.84)
(0 -0 -4349.89)
(0 -0 -4333.6)
(0 -0 -4320.78)
(0 -0 -4299.6)
(0 -0 -4289.62)
(0 -0 -4259.09)
(0 -0 -4254.56)
(0 -0 -4216.83)
(0 -0 147.993)
(0 -0 164.574)
(0 -0 169.938)
(0 -0 120.957)
(0 -0 1.19077)
(0 -0 -180.178)
(0 -0 -407.702)
(0 -0 -665.003)
(0 -0 -936.266)
(0 -0 -1208.63)
(0 -0 -1472.95)
(0 -0 -1723.33)
(0 -0 -1956.32)
(0 -0 -2170.34)
(0 -0 -2365.03)
(0 -0 -2540.87)
(0 -0 -2698.84)
(0 -0 -2840.19)
(0 -0 -2966.28)
(0 -0 -3078.49)
(0 -0 -3178.16)
(0 -0 -3266.56)
(0 -0 -3344.84)
(0 -0 -3414.07)
(0 -0 -3475.2)
(0 -0 -3529.11)
(0 -0 -3576.54)
(0 -0 -3618.19)
(0 -0 -3654.65)
(0 -0 -3686.46)
(0 -0 -3714.09)
(0 -0 -3737.96)
(0 -0 -3758.44)
(0 -0 -3775.84)
(0 -0 -3790.44)
(0 -0 -3802.5)
(0 -0 -3812.22)
(0 -0 -3819.77)
(0 -0 -3825.37)
(0 -0 -3828.96)
(0 -0 -3831.05)
(0 -0 -3830.87)
(0 -0 -3830.06)
(0 -0 -3825.7)
(0 -0 -3822.93)
(0 -0 -3812.79)
(0 -0 -3809.81)
(0 -0 -3790.86)
(0 -0 -3788)
(0 -0 -3762.23)
(0 -0 136.797)
(0 -0 137.04)
(0 -0 148.695)
(0 -0 149.629)
(0 -0 122.18)
(0 -0 60.2506)
(0 -0 -35.9082)
(0 -0 -162.584)
(0 -0 -313.39)
(0 -0 -481.021)
(0 -0 -658.593)
(0 -0 -840.253)
(0 -0 -1021.33)
(0 -0 -1198.31)
(0 -0 -1368.69)
(0 -0 -1530.82)
(0 -0 -1683.73)
(0 -0 -1826.91)
(0 -0 -1960.27)
(0 -0 -2083.93)
(0 -0 -2198.22)
(0 -0 -2303.57)
(0 -0 -2400.48)
(0 -0 -2489.46)
(0 -0 -2571.06)
(0 -0 -2645.8)
(0 -0 -2714.18)
(0 -0 -2776.68)
(0 -0 -2833.75)
(0 -0 -2885.81)
(0 -0 -2933.23)
(0 -0 -2976.38)
(0 -0 -3015.55)
(0 -0 -3051.07)
(0 -0 -3083.16)
(0 -0 -3112.08)
(0 -0 -3138.01)
(0 -0 -3161.14)
(0 -0 -3181.65)
(0 -0 -3199.56)
(0 -0 -3215.23)
(0 -0 -3228.17)
(0 -0 -3239.53)
(0 -0 -3247.23)
(0 -0 -3254.98)
(0 -0 -3256.26)
(0 -0 -3261.38)
(0 -0 -3254.14)
(0 -0 -3255.69)
(0 -0 -3241.38)
(0 -0 129.914)
(0 -0 123.967)
(0 -0 129.146)
(0 -0 136.336)
(0 -0 136.42)
(0 -0 123.185)
(0 -0 93.0245)
(0 -0 44.1355)
(0 -0 -23.2738)
(0 -0 -107.344)
(0 -0 -205.297)
(0 -0 -314.012)
(0 -0 -430.379)
(0 -0 -551.537)
(0 -0 -674.998)
(0 -0 -798.694)
(0 -0 -920.968)
(0 -0 -1040.54)
(0 -0 -1156.46)
(0 -0 -1268.06)
(0 -0 -1374.87)
(0 -0 -1476.63)
(0 -0 -1573.2)
(0 -0 -1664.57)
(0 -0 -1750.78)
(0 -0 -1831.95)
(0 -0 -1908.23)
(0 -0 -1979.8)
(0 -0 -2046.85)
(0 -0 -2109.59)
(0 -0 -2168.2)
(0 -0 -2222.91)
(0 -0 -2273.88)
(0 -0 -2321.32)
(0 -0 -2365.38)
(0 -0 -2406.24)
(0 -0 -2444)
(0 -0 -2478.84)
(0 -0 -2510.84)
(0 -0 -2540.06)
(0 -0 -2566.7)
(0 -0 -2590.45)
(0 -0 -2612.1)
(0 -0 -2630.15)
(0 -0 -2647.2)
(0 -0 -2658.61)
(0 -0 -2671.46)
(0 -0 -2674.72)
(0 -0 -2681.74)
(0 -0 -2677.65)
(0 -0 122.923)
(0 -0 116.613)
(0 -0 117.978)
(0 -0 122.448)
(0 -0 126.381)
(0 -0 126.845)
(0 -0 121.386)
(0 -0 107.729)
(0 -0 84.2621)
(0 -0 50.3107)
(0 -0 5.98891)
(0 -0 -47.9837)
(0 -0 -110.486)
(0 -0 -180.167)
(0 -0 -255.6)
(0 -0 -335.381)
(0 -0 -418.2)
(0 -0 -502.879)
(0 -0 -588.394)
(0 -0 -673.875)
(0 -0 -758.598)
(0 -0 -841.978)
(0 -0 -923.55)
(0 -0 -1002.95)
(0 -0 -1079.92)
(0 -0 -1154.25)
(0 -0 -1225.82)
(0 -0 -1294.53)
(0 -0 -1360.34)
(0 -0 -1423.25)
(0 -0 -1483.24)
(0 -0 -1540.36)
(0 -0 -1594.64)
(0 -0 -1646.14)
(0 -0 -1694.88)
(0 -0 -1740.96)
(0 -0 -1784.38)
(0 -0 -1825.22)
(0 -0 -1863.49)
(0 -0 -1899.22)
(0 -0 -1932.5)
(0 -0 -1963.09)
(0 -0 -1991.49)
(0 -0 -2016.59)
(0 -0 -2040.2)
(0 -0 -2059.03)
(0 -0 -2077.75)
(0 -0 -2089.14)
(0 -0 -2101.12)
(0 -0 -2105.18)
(0 -0 115.601)
(0 -0 110.379)
(0 -0 110.695)
(0 -0 113.129)
(0 -0 115.934)
(0 -0 118.184)
(0 -0 119.051)
(0 -0 117.346)
(0 -0 111.802)
(0 -0 101.385)
(0 -0 85.3926)
(0 -0 63.4683)
(0 -0 35.5657)
(0 -0 1.90472)
(0 -0 -37.0942)
(0 -0 -80.8751)
(0 -0 -128.803)
(0 -0 -180.211)
(0 -0 -234.434)
(0 -0 -290.834)
(0 -0 -348.818)
(0 -0 -407.848)
(0 -0 -467.439)
(0 -0 -527.17)
(0 -0 -586.675)
(0 -0 -645.643)
(0 -0 -703.807)
(0 -0 -760.947)
(0 -0 -816.877)
(0 -0 -871.449)
(0 -0 -924.535)
(0 -0 -976.042)
(0 -0 -1025.88)
(0 -0 -1074)
(0 -0 -1120.33)
(0 -0 -1164.85)
(0 -0 -1207.49)
(0 -0 -1248.25)
(0 -0 -1287.07)
(0 -0 -1323.91)
(0 -0 -1358.78)
(0 -0 -1391.44)
(0 -0 -1422.22)
(0 -0 -1450.27)
(0 -0 -1476.76)
(0 -0 -1499.45)
(0 -0 -1521.22)
(0 -0 -1537.54)
(0 -0 -1552.8)
(0 -0 -1562.33)
(0 -0 108.355)
(0 -0 104.16)
(0 -0 104.368)
(0 -0 106.072)
(0 -0 107.934)
(0 -0 109.636)
(0 -0 111.161)
(0 -0 112.166)
(0 -0 112.074)
(0 -0 110.266)
(0 -0 106.165)
(0 -0 99.2815)
(0 -0 89.251)
(0 -0 75.8416)
(0 -0 58.9607)
(0 -0 38.6325)
(0 -0 14.9824)
(0 -0 -11.7854)
(0 -0 -41.4116)
(0 -0 -73.5981)
(0 -0 -108.031)
(0 -0 -144.38)
(0 -0 -182.334)
(0 -0 -221.583)
(0 -0 -261.833)
(0 -0 -302.816)
(0 -0 -344.28)
(0 -0 -385.998)
(0 -0 -427.764)
(0 -0 -469.391)
(0 -0 -510.711)
(0 -0 -551.579)
(0 -0 -591.854)
(0 -0 -631.424)
(0 -0 -670.17)
(0 -0 -708.006)
(0 -0 -744.825)
(0 -0 -780.551)
(0 -0 -815.096)
(0 -0 -848.355)
(0 -0 -880.304)
(0 -0 -910.698)
(0 -0 -939.722)
(0 -0 -966.735)
(0 -0 -992.452)
(0 -0 -1015.37)
(0 -0 -1037.14)
(0 -0 -1055.06)
(0 -0 -1071.34)
(0 -0 -1083.49)
(0 -0 101.375)
(0 -0 97.9668)
(0 -0 98.1886)
(0 -0 99.6587)
(0 -0 101.166)
(0 -0 102.43)
(0 -0 103.644)
(0 -0 104.818)
(0 -0 105.779)
(0 -0 106.286)
(0 -0 106.062)
(0 -0 104.815)
(0 -0 102.264)
(0 -0 98.1574)
(0 -0 92.2894)
(0 -0 84.512)
(0 -0 74.7334)
(0 -0 62.9162)
(0 -0 49.0736)
(0 -0 33.2606)
(0 -0 15.5668)
(0 -0 -3.89028)
(0 -0 -24.9746)
(0 -0 -47.5364)
(0 -0 -71.4172)
(0 -0 -96.4572)
(0 -0 -122.494)
(0 -0 -149.371)
(0 -0 -176.932)
(0 -0 -205.032)
(0 -0 -233.528)
(0 -0 -262.287)
(0 -0 -291.178)
(0 -0 -320.087)
(0 -0 -348.892)
(0 -0 -377.49)
(0 -0 -405.773)
(0 -0 -433.638)
(0 -0 -460.993)
(0 -0 -487.71)
(0 -0 -513.745)
(0 -0 -538.874)
(0 -0 -563.185)
(0 -0 -586.208)
(0 -0 -608.332)
(0 -0 -628.598)
(0 -0 -647.866)
(0 -0 -664.578)
(0 -0 -679.732)
(0 -0 -692.003)
(0 -0 94.6976)
(0 -0 91.9154)
(0 -0 92.1252)
(0 -0 93.4461)
(0 -0 94.8214)
(0 -0 95.9128)
(0 -0 96.9028)
(0 -0 97.8888)
(0 -0 98.8431)
(0 -0 99.6996)
(0 -0 100.371)
(0 -0 100.744)
(0 -0 100.683)
(0 -0 100.044)
(0 -0 98.6848)
(0 -0 96.4726)
(0 -0 93.2923)
(0 -0 89.05)
(0 -0 83.676)
(0 -0 77.1234)
(0 -0 69.3728)
(0 -0 60.4174)
(0 -0 50.2844)
(0 -0 39.0057)
(0 -0 26.6309)
(0 -0 13.2206)
(0 -0 -1.15523)
(0 -0 -16.4206)
(0 -0 -32.4937)
(0 -0 -49.2908)
(0 -0 -66.7242)
(0 -0 -84.7079)
(0 -0 -103.152)
(0 -0 -121.97)
(0 -0 -141.075)
(0 -0 -160.38)
(0 -0 -179.798)
(0 -0 -199.24)
(0 -0 -218.628)
(0 -0 -237.849)
(0 -0 -256.854)
(0 -0 -275.467)
(0 -0 -293.713)
(0 -0 -311.273)
(0 -0 -328.325)
(0 -0 -344.292)
(0 -0 -359.559)
(0 -0 -373.27)
(0 -0 -385.81)
(0 -0 -396.451)
(0 -0 88.32)
(0 -0 86.0577)
(0 -0 86.2487)
(0 -0 87.4199)
(0 -0 88.6967)
(0 -0 89.7088)
(0 -0 90.5926)
(0 -0 91.4507)
(0 -0 92.2873)
(0 -0 93.0882)
(0 -0 93.8387)
(0 -0 94.5114)
(0 -0 95.0626)
(0 -0 95.4353)
(0 -0 95.5637)
(0 -0 95.3768)
(0 -0 94.8028)
(0 -0 93.7722)
(0 -0 92.221)
(0 -0 90.093)
(0 -0 87.3408)
(0 -0 83.9295)
(0 -0 79.8298)
(0 -0 75.0281)
(0 -0 69.518)
(0 -0 63.3038)
(0 -0 56.3964)
(0 -0 48.8155)
(0 -0 40.5874)
(0 -0 31.7438)
(0 -0 22.3218)
(0 -0 12.3623)
(0 -0 1.91049)
(0 -0 -8.98584)
(0 -0 -20.2761)
(0 -0 -31.906)
(0 -0 -43.8223)
(0 -0 -55.9617)
(0 -0 -68.2729)
(0 -0 -80.6738)
(0 -0 -93.1261)
(0 -0 -105.508)
(0 -0 -117.816)
(0 -0 -129.851)
(0 -0 -141.675)
(0 -0 -152.962)
(0 -0 -163.852)
(0 -0 -173.89)
(0 -0 -183.193)
(0 -0 -191.338)
(0 -0 82.2413)
(0 -0 80.4117)
(0 -0 80.5926)
(0 -0 81.6188)
(0 -0 82.792)
(0 -0 83.7387)
(0 -0 84.5543)
(0 -0 85.3351)
(0 -0 86.0889)
(0 -0 86.8096)
(0 -0 87.4995)
(0 -0 88.159)
(0 -0 88.7807)
(0 -0 89.3494)
(0 -0 89.8436)
(0 -0 90.2361)
(0 -0 90.4956)
(0 -0 90.588)
(0 -0 90.4774)
(0 -0 90.1285)
(0 -0 89.5063)
(0 -0 88.5795)
(0 -0 87.3191)
(0 -0 85.7004)
(0 -0 83.7032)
(0 -0 81.3119)
(0 -0 78.5157)
(0 -0 75.308)
(0 -0 71.6872)
(0 -0 67.6561)
(0 -0 63.2214)
(0 -0 58.3946)
(0 -0 53.1896)
(0 -0 47.6255)
(0 -0 41.7231)
(0 -0 35.5085)
(0 -0 29.0068)
(0 -0 22.2533)
(0 -0 15.2747)
(0 -0 8.12049)
(0 -0 0.813693)
(0 -0 -6.5725)
(0 -0 -14.0271)
(0 -0 -21.4369)
(0 -0 -28.8143)
(0 -0 -35.9861)
(0 -0 -42.9876)
(0 -0 -49.5823)
(0 -0 -55.7959)
(0 -0 -61.3687)
(0 -0 76.4621)
(0 -0 74.9891)
(0 -0 75.1688)
(0 -0 76.0628)
(0 -0 77.1301)
(0 -0 78.0101)
(0 -0 78.7641)
(0 -0 79.4822)
(0 -0 80.1742)
(0 -0 80.833)
(0 -0 81.4619)
(0 -0 82.0668)
(0 -0 82.6499)
(0 -0 83.2099)
(0 -0 83.7423)
(0 -0 84.2402)
(0 -0 84.6937)
(0 -0 85.0906)
(0 -0 85.4164)
(0 -0 85.6551)
(0 -0 85.7895)
(0 -0 85.8019)
(0 -0 85.6746)
(0 -0 85.3907)
(0 -0 84.934)
(0 -0 84.2897)
(0 -0 83.4447)
(0 -0 82.3875)
(0 -0 81.1089)
(0 -0 79.6018)
(0 -0 77.8614)
(0 -0 75.8852)
(0 -0 73.6734)
(0 -0 71.2285)
(0 -0 68.5547)
(0 -0 65.6607)
(0 -0 62.554)
(0 -0 59.2499)
(0 -0 55.7584)
(0 -0 52.104)
(0 -0 48.2966)
(0 -0 44.3746)
(0 -0 40.3456)
(0 -0 36.2674)
(0 -0 32.1431)
(0 -0 28.0583)
(0 -0 24.0098)
(0 -0 20.1201)
(0 -0 16.3798)
(0 -0 12.9552)
(0 -0 70.982)
(0 -0 69.7999)
(0 -0 69.9844)
(0 -0 70.7606)
(0 -0 71.7238)
(0 -0 72.5369)
(0 -0 73.231)
(0 -0 73.8896)
(0 -0 74.5255)
(0 -0 75.1312)
(0 -0 75.7084)
(0 -0 76.2626)
(0 -0 76.7977)
(0 -0 77.3153)
(0 -0 77.8158)
(0 -0 78.2984)
(0 -0 78.7615)
(0 -0 79.2022)
(0 -0 79.6163)
(0 -0 79.9985)
(0 -0 80.3425)
(0 -0 80.6411)
(0 -0 80.8864)
(0 -0 81.0702)
(0 -0 81.184)
(0 -0 81.2191)
(0 -0 81.1671)
(0 -0 81.0198)
(0 -0 80.7693)
(0 -0 80.4089)
(0 -0 79.932)
(0 -0 79.3337)
(0 -0 78.6096)
(0 -0 77.7572)
(0 -0 76.7741)
(0 -0 75.661)
(0 -0 74.4177)
(0 -0 73.0484)
(0 -0 71.5547)
(0 -0 69.9459)
(0 -0 68.2251)
(0 -0 66.4077)
(0 -0 64.4979)
(0 -0 62.5209)
(0 -0 60.48)
(0 -0 58.4159)
(0 -0 56.3272)
(0 -0 54.2813)
(0 -0 52.259)
(0 -0 50.3767)
(0 -0 65.7997)
(0 -0 64.8528)
(0 -0 65.0449)
(0 -0 65.7171)
(0 -0 66.58)
(0 -0 67.3275)
(0 -0 67.9639)
(0 -0 68.5651)
(0 -0 69.1471)
(0 -0 69.7027)
(0 -0 70.2321)
(0 -0 70.7404)
(0 -0 71.231)
(0 -0 71.7059)
(0 -0 72.166)
(0 -0 72.6121)
(0 -0 73.0448)
(0 -0 73.4638)
(0 -0 73.8689)
(0 -0 74.2588)
(0 -0 74.632)
(0 -0 74.9864)
(0 -0 75.3196)
(0 -0 75.6286)
(0 -0 75.91)
(0 -0 76.1603)
(0 -0 76.3755)
(0 -0 76.5514)
(0 -0 76.6837)
(0 -0 76.7682)
(0 -0 76.8006)
(0 -0 76.7771)
(0 -0 76.694)
(0 -0 76.5483)
(0 -0 76.3369)
(0 -0 76.0582)
(0 -0 75.7099)
(0 -0 75.2919)
(0 -0 74.8028)
(0 -0 74.2447)
(0 -0 73.6171)
(0 -0 72.9252)
(0 -0 72.1691)
(0 -0 71.3588)
(0 -0 70.4937)
(0 -0 69.5936)
(0 -0 68.6512)
(0 -0 67.708)
(0 -0 66.7337)
(0 -0 65.8155)
(0 -0 60.9123)
(0 -0 60.1542)
(0 -0 60.3546)
(0 -0 60.9353)
(0 -0 61.7028)
(0 -0 62.3866)
(0 -0 62.9681)
(0 -0 63.5146)
(0 -0 64.0446)
(0 -0 64.552)
(0 -0 65.0359)
(0 -0 65.5007)
(0 -0 65.9496)
(0 -0 66.3843)
(0 -0 66.8057)
(0 -0 67.2147)
(0 -0 67.6119)
(0 -0 67.9979)
(0 -0 68.3733)
(0 -0 68.7381)
(0 -0 69.0923)
(0 -0 69.4358)
(0 -0 69.7681)
(0 -0 70.0887)
(0 -0 70.3968)
(0 -0 70.6913)
(0 -0 70.9707)
(0 -0 71.2336)
(0 -0 71.478)
(0 -0 71.7019)
(0 -0 71.9034)
(0 -0 72.0802)
(0 -0 72.2302)
(0 -0 72.3515)
(0 -0 72.4421)
(0 -0 72.5003)
(0 -0 72.5242)
(0 -0 72.5127)
(0 -0 72.4639)
(0 -0 72.3777)
(0 -0 72.2522)
(0 -0 72.0885)
(0 -0 71.8848)
(0 -0 71.6448)
(0 -0 71.3647)
(0 -0 71.0558)
(0 -0 70.7054)
(0 -0 70.3435)
(0 -0 69.9334)
(0 -0 69.5452)
(0 -0 56.316)
(0 -0 55.7081)
(0 -0 55.916)
(0 -0 56.4167)
(0 -0 57.0944)
(0 -0 57.7165)
(0 -0 58.2463)
(0 -0 58.7409)
(0 -0 59.2213)
(0 -0 59.6826)
(0 -0 60.1231)
(0 -0 60.5465)
(0 -0 60.9557)
(0 -0 61.3523)
(0 -0 61.7371)
(0 -0 62.1106)
(0 -0 62.4735)
(0 -0 62.8265)
(0 -0 63.1701)
(0 -0 63.5046)
(0 -0 63.8305)
(0 -0 64.148)
(0 -0 64.4574)
(0 -0 64.7589)
(0 -0 65.0526)
(0 -0 65.3384)
(0 -0 65.616)
(0 -0 65.885)
(0 -0 66.1448)
(0 -0 66.3946)
(0 -0 66.6334)
(0 -0 66.8604)
(0 -0 67.0745)
(0 -0 67.2749)
(0 -0 67.4603)
(0 -0 67.6298)
(0 -0 67.7822)
(0 -0 67.9167)
(0 -0 68.0316)
(0 -0 68.1264)
(0 -0 68.1991)
(0 -0 68.2497)
(0 -0 68.2755)
(0 -0 68.2784)
(0 -0 68.2528)
(0 -0 68.2069)
(0 -0 68.1255)
(0 -0 68.0333)
(0 -0 67.8919)
(0 -0 67.7613)
(0 -0 52.0055)
(0 -0 51.5165)
(0 -0 51.7298)
(0 -0 52.1608)
(0 -0 52.755)
(0 -0 53.3178)
(0 -0 53.7987)
(0 -0 54.2447)
(0 -0 54.6782)
(0 -0 55.0956)
(0 -0 55.4949)
(0 -0 55.8789)
(0 -0 56.2505)
(0 -0 56.611)
(0 -0 56.961)
(0 -0 57.3009)
(0 -0 57.6314)
(0 -0 57.9529)
(0 -0 58.2659)
(0 -0 58.5709)
(0 -0 58.868)
(0 -0 59.1579)
(0 -0 59.4408)
(0 -0 59.7171)
(0 -0 59.9873)
(0 -0 60.2515)
(0 -0 60.5098)
(0 -0 60.7621)
(0 -0 61.0083)
(0 -0 61.2481)
(0 -0 61.481)
(0 -0 61.7069)
(0 -0 61.925)
(0 -0 62.1352)
(0 -0 62.3368)
(0 -0 62.5293)
(0 -0 62.712)
(0 -0 62.8844)
(0 -0 63.0454)
(0 -0 63.1943)
(0 -0 63.3296)
(0 -0 63.451)
(0 -0 63.5556)
(0 -0 63.6451)
(0 -0 63.7131)
(0 -0 63.7671)
(0 -0 63.7912)
(0 -0 63.8074)
(0 -0 63.7783)
(0 -0 63.7572)
(0 -0 47.9745)
(0 -0 47.5792)
(0 -0 47.7947)
(0 -0 48.1654)
(0 -0 48.683)
(0 -0 49.1889)
(0 -0 49.6239)
(0 -0 50.0246)
(0 -0 50.4138)
(0 -0 50.7899)
(0 -0 51.1503)
(0 -0 51.4972)
(0 -0 51.8332)
(0 -0 52.1596)
(0 -0 52.4767)
(0 -0 52.785)
(0 -0 53.0848)
(0 -0 53.3766)
(0 -0 53.6608)
(0 -0 53.9376)
(0 -0 54.2074)
(0 -0 54.4707)
(0 -0 54.7278)
(0 -0 54.9791)
(0 -0 55.225)
(0 -0 55.4658)
(0 -0 55.7016)
(0 -0 55.9326)
(0 -0 56.1586)
(0 -0 56.3794)
(0 -0 56.595)
(0 -0 56.8051)
(0 -0 57.0095)
(0 -0 57.208)
(0 -0 57.4004)
(0 -0 57.5863)
(0 -0 57.7653)
(0 -0 57.9371)
(0 -0 58.1009)
(0 -0 58.2561)
(0 -0 58.4013)
(0 -0 58.5365)
(0 -0 58.6588)
(0 -0 58.7698)
(0 -0 58.8633)
(0 -0 58.9464)
(0 -0 59.0036)
(0 -0 59.0552)
(0 -0 59.0662)
(0 -0 59.085)
(0 -0 44.2154)
(0 -0 43.8937)
(0 -0 44.1081)
(0 -0 44.4265)
(0 -0 44.8744)
(0 -0 45.3264)
(0 -0 45.7184)
(0 -0 46.0771)
(0 -0 46.425)
(0 -0 46.7622)
(0 -0 47.0861)
(0 -0 47.3982)
(0 -0 47.7008)
(0 -0 47.9952)
(0 -0 48.2815)
(0 -0 48.56)
(0 -0 48.8311)
(0 -0 49.0949)
(0 -0 49.3519)
(0 -0 49.6024)
(0 -0 49.8465)
(0 -0 50.0847)
(0 -0 50.3174)
(0 -0 50.5449)
(0 -0 50.7677)
(0 -0 50.986)
(0 -0 51.1999)
(0 -0 51.4096)
(0 -0 51.615)
(0 -0 51.8159)
(0 -0 52.0122)
(0 -0 52.2038)
(0 -0 52.3905)
(0 -0 52.5722)
(0 -0 52.7488)
(0 -0 52.9201)
(0 -0 53.0858)
(0 -0 53.2455)
(0 -0 53.3987)
(0 -0 53.5448)
(0 -0 53.6827)
(0 -0 53.8122)
(0 -0 53.9308)
(0 -0 54.0401)
(0 -0 54.134)
(0 -0 54.2193)
(0 -0 54.282)
(0 -0 54.3401)
(0 -0 54.3622)
(0 -0 54.3918)
(0 -0 40.7195)
(0 -0 40.4559)
(0 -0 40.6653)
(0 -0 40.9388)
(0 -0 41.324)
(0 -0 41.7251)
(0 -0 42.077)
(0 -0 42.3968)
(0 -0 42.7064)
(0 -0 43.0074)
(0 -0 43.2972)
(0 -0 43.5768)
(0 -0 43.8484)
(0 -0 44.1129)
(0 -0 44.3704)
(0 -0 44.6212)
(0 -0 44.8653)
(0 -0 45.1031)
(0 -0 45.3347)
(0 -0 45.5605)
(0 -0 45.7806)
(0 -0 45.9954)
(0 -0 46.2053)
(0 -0 46.4106)
(0 -0 46.6117)
(0 -0 46.8088)
(0 -0 47.0022)
(0 -0 47.1918)
(0 -0 47.3775)
(0 -0 47.5593)
(0 -0 47.737)
(0 -0 47.9104)
(0 -0 48.0796)
(0 -0 48.2442)
(0 -0 48.4044)
(0 -0 48.5599)
(0 -0 48.7104)
(0 -0 48.8557)
(0 -0 48.9952)
(0 -0 49.1286)
(0 -0 49.2545)
(0 -0 49.3731)
(0 -0 49.4818)
(0 -0 49.5823)
(0 -0 49.669)
(0 -0 49.7481)
(0 -0 49.8069)
(0 -0 49.8619)
(0 -0 49.8849)
(0 -0 49.915)
(0 -0 37.4771)
(0 -0 37.2595)
(0 -0 37.4602)
(0 -0 37.6949)
(0 -0 38.0244)
(0 -0 38.378)
(0 -0 38.6925)
(0 -0 38.9768)
(0 -0 39.251)
(0 -0 39.5183)
(0 -0 39.7766)
(0 -0 40.0262)
(0 -0 40.2689)
(0 -0 40.5057)
(0 -0 40.7366)
(0 -0 40.9616)
(0 -0 41.1808)
(0 -0 41.3943)
(0 -0 41.6025)
(0 -0 41.8053)
(0 -0 42.0031)
(0 -0 42.1962)
(0 -0 42.3848)
(0 -0 42.5694)
(0 -0 42.7504)
(0 -0 42.9279)
(0 -0 43.1022)
(0 -0 43.273)
(0 -0 43.4405)
(0 -0 43.6045)
(0 -0 43.7647)
(0 -0 43.9212)
(0 -0 44.0737)
(0 -0 44.2223)
(0 -0 44.3667)
(0 -0 44.507)
(0 -0 44.6429)
(0 -0 44.774)
(0 -0 44.9)
(0 -0 45.0203)
(0 -0 45.1339)
(0 -0 45.2408)
(0 -0 45.3386)
(0 -0 45.4289)
(0 -0 45.5067)
(0 -0 45.5775)
(0 -0 45.6303)
(0 -0 45.6794)
(0 -0 45.7003)
(0 -0 45.7278)
(0 -0 34.4776)
(0 -0 34.297)
(0 -0 34.4852)
(0 -0 34.6864)
(0 -0 34.9668)
(0 -0 35.2765)
(0 -0 35.5564)
(0 -0 35.8083)
(0 -0 36.0501)
(0 -0 36.2865)
(0 -0 36.5156)
(0 -0 36.7375)
(0 -0 36.9537)
(0 -0 37.165)
(0 -0 37.3713)
(0 -0 37.5726)
(0 -0 37.7688)
(0 -0 37.96)
(0 -0 38.1464)
(0 -0 38.3282)
(0 -0 38.5054)
(0 -0 38.6784)
(0 -0 38.8474)
(0 -0 39.013)
(0 -0 39.1754)
(0 -0 39.3348)
(0 -0 39.4913)
(0 -0 39.645)
(0 -0 39.7956)
(0 -0 39.943)
(0 -0 40.0872)
(0 -0 40.2279)
(0 -0 40.3651)
(0 -0 40.4987)
(0 -0 40.6286)
(0 -0 40.7548)
(0 -0 40.877)
(0 -0 40.9949)
(0 -0 41.1082)
(0 -0 41.2162)
(0 -0 41.3182)
(0 -0 41.4138)
(0 -0 41.5012)
(0 -0 41.5815)
(0 -0 41.6506)
(0 -0 41.7131)
(0 -0 41.7596)
(0 -0 41.8026)
(0 -0 41.8208)
(0 -0 41.8449)
(0 -0 31.7095)
(0 -0 31.5589)
(0 -0 31.7316)
(0 -0 31.9043)
(0 -0 32.1418)
(0 -0 32.4111)
(0 -0 32.6591)
(0 -0 32.8816)
(0 -0 33.094)
(0 -0 33.3019)
(0 -0 33.5043)
(0 -0 33.7008)
(0 -0 33.8928)
(0 -0 34.0807)
(0 -0 34.2645)
(0 -0 34.444)
(0 -0 34.6192)
(0 -0 34.79)
(0 -0 34.9565)
(0 -0 35.1189)
(0 -0 35.2772)
(0 -0 35.4318)
(0 -0 35.5829)
(0 -0 35.731)
(0 -0 35.8763)
(0 -0 36.0191)
(0 -0 36.1595)
(0 -0 36.2973)
(0 -0 36.4324)
(0 -0 36.5648)
(0 -0 36.6942)
(0 -0 36.8204)
(0 -0 36.9435)
(0 -0 37.0634)
(0 -0 37.18)
(0 -0 37.2932)
(0 -0 37.4028)
(0 -0 37.5086)
(0 -0 37.6101)
(0 -0 37.7069)
(0 -0 37.7981)
(0 -0 37.8833)
(0 -0 37.9611)
(0 -0 38.0322)
(0 -0 38.0932)
(0 -0 38.1479)
(0 -0 38.1885)
(0 -0 38.2257)
(0 -0 38.2412)
(0 -0 38.2619)
(0 -0 29.1609)
(0 -0 29.0346)
(0 -0 29.1899)
(0 -0 29.3385)
(0 -0 29.5389)
(0 -0 29.7715)
(0 -0 29.9901)
(0 -0 30.1859)
(0 -0 30.3717)
(0 -0 30.5537)
(0 -0 30.7316)
(0 -0 30.9051)
(0 -0 31.0749)
(0 -0 31.2415)
(0 -0 31.4049)
(0 -0 31.5646)
(0 -0 31.7206)
(0 -0 31.8728)
(0 -0 32.0212)
(0 -0 32.1659)
(0 -0 32.307)
(0 -0 32.4448)
(0 -0 32.5796)
(0 -0 32.7117)
(0 -0 32.8415)
(0 -0 32.9692)
(0 -0 33.0948)
(0 -0 33.2182)
(0 -0 33.3393)
(0 -0 33.4579)
(0 -0 33.5738)
(0 -0 33.6869)
(0 -0 33.7972)
(0 -0 33.9045)
(0 -0 34.0089)
(0 -0 34.1103)
(0 -0 34.2085)
(0 -0 34.3032)
(0 -0 34.3941)
(0 -0 34.4805)
(0 -0 34.5618)
(0 -0 34.6376)
(0 -0 34.7066)
(0 -0 34.7692)
(0 -0 34.8228)
(0 -0 34.8703)
(0 -0 34.9055)
(0 -0 34.9374)
(0 -0 34.9506)
(0 -0 34.968)
(0 -0 26.8191)
(0 -0 26.7126)
(0 -0 26.8495)
(0 -0 26.9778)
(0 -0 27.1462)
(0 -0 27.3459)
(0 -0 27.5376)
(0 -0 27.7094)
(0 -0 27.8711)
(0 -0 28.0297)
(0 -0 28.1855)
(0 -0 28.338)
(0 -0 28.4878)
(0 -0 28.6352)
(0 -0 28.78)
(0 -0 28.9218)
(0 -0 29.0604)
(0 -0 29.1958)
(0 -0 29.3278)
(0 -0 29.4565)
(0 -0 29.5821)
(0 -0 29.7046)
(0 -0 29.8246)
(0 -0 29.9423)
(0 -0 30.0581)
(0 -0 30.172)
(0 -0 30.2843)
(0 -0 30.3946)
(0 -0 30.503)
(0 -0 30.6091)
(0 -0 30.7128)
(0 -0 30.814)
(0 -0 30.9127)
(0 -0 31.0087)
(0 -0 31.1021)
(0 -0 31.1928)
(0 -0 31.2806)
(0 -0 31.3654)
(0 -0 31.4465)
(0 -0 31.5237)
(0 -0 31.5961)
(0 -0 31.6633)
(0 -0 31.7242)
(0 -0 31.7791)
(0 -0 31.8259)
(0 -0 31.867)
(0 -0 31.8974)
(0 -0 31.9242)
(0 -0 31.9353)
(0 -0 31.9497)
(0 -0 24.6714)
(0 -0 24.5807)
(0 -0 24.6994)
(0 -0 24.8102)
(0 -0 24.9514)
(0 -0 25.1218)
(0 -0 25.289)
(0 -0 25.4391)
(0 -0 25.5795)
(0 -0 25.717)
(0 -0 25.8528)
(0 -0 25.9864)
(0 -0 26.1182)
(0 -0 26.2483)
(0 -0 26.3764)
(0 -0 26.5021)
(0 -0 26.6251)
(0 -0 26.7453)
(0 -0 26.8626)
(0 -0 26.9769)
(0 -0 27.0885)
(0 -0 27.1974)
(0 -0 27.304)
(0 -0 27.4087)
(0 -0 27.5119)
(0 -0 27.6135)
(0 -0 27.7138)
(0 -0 27.8124)
(0 -0 27.9093)
(0 -0 28.0042)
(0 -0 28.097)
(0 -0 28.1875)
(0 -0 28.2757)
(0 -0 28.3616)
(0 -0 28.4451)
(0 -0 28.5262)
(0 -0 28.6047)
(0 -0 28.6804)
(0 -0 28.7529)
(0 -0 28.8217)
(0 -0 28.886)
(0 -0 28.9455)
(0 -0 28.9992)
(0 -0 29.0471)
(0 -0 29.0879)
(0 -0 29.1231)
(0 -0 29.149)
(0 -0 29.1715)
(0 -0 29.1807)
(0 -0 29.1922)
(0 -0 22.7047)
(0 -0 22.6268)
(0 -0 22.7278)
(0 -0 22.8234)
(0 -0 22.9415)
(0 -0 23.086)
(0 -0 23.2311)
(0 -0 23.3619)
(0 -0 23.4833)
(0 -0 23.602)
(0 -0 23.7198)
(0 -0 23.8366)
(0 -0 23.9522)
(0 -0 24.0668)
(0 -0 24.18)
(0 -0 24.2914)
(0 -0 24.4005)
(0 -0 24.5071)
(0 -0 24.6112)
(0 -0 24.7127)
(0 -0 24.8117)
(0 -0 24.9084)
(0 -0 25.0032)
(0 -0 25.0963)
(0 -0 25.1881)
(0 -0 25.2788)
(0 -0 25.3684)
(0 -0 25.4566)
(0 -0 25.5433)
(0 -0 25.6282)
(0 -0 25.7112)
(0 -0 25.7922)
(0 -0 25.8711)
(0 -0 25.9478)
(0 -0 26.0225)
(0 -0 26.095)
(0 -0 26.1653)
(0 -0 26.233)
(0 -0 26.2977)
(0 -0 26.3589)
(0 -0 26.4161)
(0 -0 26.4686)
(0 -0 26.5159)
(0 -0 26.5576)
(0 -0 26.5929)
(0 -0 26.6228)
(0 -0 26.6448)
(0 -0 26.6632)
(0 -0 26.6707)
(0 -0 26.6796)
(0 -0 20.9062)
(0 -0 20.8384)
(0 -0 20.9228)
(0 -0 21.0051)
(0 -0 21.1036)
(0 -0 21.2256)
(0 -0 21.3507)
(0 -0 21.4643)
(0 -0 21.5688)
(0 -0 21.6708)
(0 -0 21.7726)
(0 -0 21.8743)
(0 -0 21.9757)
(0 -0 22.0766)
(0 -0 22.1765)
(0 -0 22.2751)
(0 -0 22.3718)
(0 -0 22.4665)
(0 -0 22.5589)
(0 -0 22.649)
(0 -0 22.7369)
(0 -0 22.8227)
(0 -0 22.9069)
(0 -0 22.9898)
(0 -0 23.0716)
(0 -0 23.1526)
(0 -0 23.2327)
(0 -0 23.3116)
(0 -0 23.3893)
(0 -0 23.4654)
(0 -0 23.5398)
(0 -0 23.6123)
(0 -0 23.6829)
(0 -0 23.7516)
(0 -0 23.8185)
(0 -0 23.8834)
(0 -0 23.9463)
(0 -0 24.0069)
(0 -0 24.0648)
(0 -0 24.1194)
(0 -0 24.1702)
(0 -0 24.2165)
(0 -0 24.258)
(0 -0 24.2942)
(0 -0 24.3245)
(0 -0 24.3497)
(0 -0 24.3681)
(0 -0 24.3829)
(0 -0 24.3888)
(0 -0 24.3953)
(0 -0 19.263)
(0 -0 19.203)
(0 -0 19.2724)
(0 -0 19.3427)
(0 -0 19.4247)
(0 -0 19.5272)
(0 -0 19.6346)
(0 -0 19.7328)
(0 -0 19.8225)
(0 -0 19.9097)
(0 -0 19.9973)
(0 -0 20.0856)
(0 -0 20.1743)
(0 -0 20.2631)
(0 -0 20.3514)
(0 -0 20.4387)
(0 -0 20.5246)
(0 -0 20.6086)
(0 -0 20.6907)
(0 -0 20.7708)
(0 -0 20.8489)
(0 -0 20.9252)
(0 -0 21)
(0 -0 21.0738)
(0 -0 21.1469)
(0 -0 21.2193)
(0 -0 21.291)
(0 -0 21.3619)
(0 -0 21.4316)
(0 -0 21.5)
(0 -0 21.5667)
(0 -0 21.6318)
(0 -0 21.6952)
(0 -0 21.7568)
(0 -0 21.8168)
(0 -0 21.8751)
(0 -0 21.9316)
(0 -0 21.9859)
(0 -0 22.0378)
(0 -0 22.0865)
(0 -0 22.1317)
(0 -0 22.1726)
(0 -0 22.2089)
(0 -0 22.2401)
(0 -0 22.2661)
(0 -0 22.2871)
(0 -0 22.3024)
(0 -0 22.3138)
(0 -0 22.3184)
(0 -0 22.3226)
(0 -0 17.7624)
(0 -0 17.7086)
(0 -0 17.7644)
(0 -0 17.8241)
(0 -0 17.8922)
(0 -0 17.978)
(0 -0 18.0695)
(0 -0 18.1541)
(0 -0 18.2308)
(0 -0 18.305)
(0 -0 18.3801)
(0 -0 18.4566)
(0 -0 18.5341)
(0 -0 18.6123)
(0 -0 18.6903)
(0 -0 18.7678)
(0 -0 18.8441)
(0 -0 18.9189)
(0 -0 18.992)
(0 -0 19.0632)
(0 -0 19.1327)
(0 -0 19.2006)
(0 -0 19.2673)
(0 -0 19.3332)
(0 -0 19.3986)
(0 -0 19.4635)
(0 -0 19.528)
(0 -0 19.5918)
(0 -0 19.6546)
(0 -0 19.7161)
(0 -0 19.7763)
(0 -0 19.8349)
(0 -0 19.8919)
(0 -0 19.9474)
(0 -0 20.0014)
(0 -0 20.0539)
(0 -0 20.1048)
(0 -0 20.1536)
(0 -0 20.2002)
(0 -0 20.2438)
(0 -0 20.2841)
(0 -0 20.3202)
(0 -0 20.352)
(0 -0 20.3789)
(0 -0 20.401)
(0 -0 20.4182)
(0 -0 20.4306)
(0 -0 20.4392)
(0 -0 20.4425)
(0 -0 20.4447)
(0 -0 16.3924)
(0 -0 16.3433)
(0 -0 16.3872)
(0 -0 16.4373)
(0 -0 16.4937)
(0 -0 16.5652)
(0 -0 16.6429)
(0 -0 16.7152)
(0 -0 16.7806)
(0 -0 16.8434)
(0 -0 16.9075)
(0 -0 16.9736)
(0 -0 17.0414)
(0 -0 17.1102)
(0 -0 17.1794)
(0 -0 17.2482)
(0 -0 17.3162)
(0 -0 17.3829)
(0 -0 17.4481)
(0 -0 17.5117)
(0 -0 17.5737)
(0 -0 17.6343)
(0 -0 17.6939)
(0 -0 17.753)
(0 -0 17.8117)
(0 -0 17.8701)
(0 -0 17.9283)
(0 -0 17.986)
(0 -0 18.0428)
(0 -0 18.0985)
(0 -0 18.1529)
(0 -0 18.2059)
(0 -0 18.2574)
(0 -0 18.3076)
(0 -0 18.3565)
(0 -0 18.4039)
(0 -0 18.4499)
(0 -0 18.4941)
(0 -0 18.5361)
(0 -0 18.5753)
(0 -0 18.6113)
(0 -0 18.6432)
(0 -0 18.671)
(0 -0 18.694)
(0 -0 18.7128)
(0 -0 18.7266)
(0 -0 18.7365)
(0 -0 18.7424)
(0 -0 18.7446)
(0 -0 18.7449)
(0 -0 15.1414)
(0 -0 15.0959)
(0 -0 15.1295)
(0 -0 15.1708)
(0 -0 15.2175)
(0 -0 15.2767)
(0 -0 15.3423)
(0 -0 15.4039)
(0 -0 15.4593)
(0 -0 15.5122)
(0 -0 15.5666)
(0 -0 15.6236)
(0 -0 15.6829)
(0 -0 15.7437)
(0 -0 15.8051)
(0 -0 15.8665)
(0 -0 15.9272)
(0 -0 15.987)
(0 -0 16.0454)
(0 -0 16.1023)
(0 -0 16.1579)