/*--------------------------------*- C++ -*----------------------------------*\
  =========                 |
  \\      /  F ield         | OpenFOAM: The Open Source CFD Toolbox
   \\    /   O peration     | Website:  https://openfoam.org
    \\  /    A nd           | Version:  7
     \\/     M anipulation  |
\*---------------------------------------------------------------------------*/
FoamFile
{
    version     2.0;
    format      ascii;
    class       volVectorField;
    location    "0.21";
    object      wallShearStress;
}
// * * * * * * * * * * * * * * * * * * * * * * * * * * * * * * * * * * * * * //

dimensions      [0 2 -2 0 0 0 0];

internalField   uniform (0 0 0);

boundaryField
{
    velocityInlet
    {
        type            calculated;
        value           uniform (0 0 0);
    }
    pressureOutlet
    {
        type            calculated;
        value           uniform (0 0 0);
    }
    fixedWalls
    {
        type            calculated;
        value           nonuniform List<vector> 
100
(
(-0.0120947 -0.00564203 0)
(0.00737879 -0.000963529 0)
(0.00161895 0.000230908 0)
(0.00278669 6.97744e-05 0)
(0.00111661 0.000192724 0)
(0.000148951 0.000137199 0)
(-0.00069101 0.000103987 0)
(-0.00129542 7.26639e-05 0)
(-0.00175798 5.64211e-05 0)
(-0.0021417 4.87297e-05 0)
(-0.00247774 4.44272e-05 0)
(-0.00277418 4.06307e-05 0)
(-0.00302802 3.62182e-05 0)
(-0.00323383 3.11309e-05 0)
(-0.00338898 2.57734e-05 0)
(-0.00349576 2.06641e-05 0)
(-0.0035609 1.59453e-05 0)
(-0.00359438 1.18303e-05 0)
(-0.00360988 9.08599e-06 0)
(-0.00362283 8.28466e-06 0)
(-0.00364366 8.63564e-06 0)
(-0.00367838 9.87247e-06 0)
(-0.00374201 1.34193e-05 0)
(-0.00387884 2.56529e-05 0)
(-0.00420478 6.17462e-05 0)
(-0.00490389 0.000125885 0)
(-0.00589431 0.000168165 0)
(-0.0064463 0.000106673 0)
(-0.00541858 -0.000167835 0)
(-0.0021154 -0.000519909 0)
(0.00235343 -0.000619201 0)
(0.00571691 -0.000441532 0)
(0.0066243 -9.05171e-05 0)
(0.00515461 0.000212885 0)
(0.00247842 0.000320743 0)
(-0.000194133 0.000283549 0)
(-0.00220508 0.000191092 0)
(-0.00343848 0.000106082 0)
(-0.00408058 4.82777e-05 0)
(-0.00437554 1.54815e-05 0)
(-0.00457894 1.43428e-05 0)
(-0.00494142 4.80409e-05 0)
(-0.00560651 9.66113e-05 0)
(-0.00650513 0.000132427 0)
(-0.00734936 0.000135308 0)
(-0.00767918 8.28474e-05 0)
(-0.00693716 -7.26898e-05 0)
(-0.00475448 -0.000284111 0)
(-0.00143441 -0.000432614 0)
(0.00186378 -0.000405115 0)
(0.0038075 -0.0002192 0)
(0.00381909 2.18319e-05 0)
(0.00236343 0.000176101 0)
(0.000392321 0.000210708 0)
(-0.00139323 0.000177863 0)
(-0.0026777 0.000119901 0)
(-0.00346262 7.0366e-05 0)
(-0.00389653 3.88982e-05 0)
(-0.00413128 2.28825e-05 0)
(-0.0042668 1.55569e-05 0)
(-0.00434742 1.12444e-05 0)
(-0.00438492 7.94001e-06 0)
(-0.00438591 5.84862e-06 0)
(-0.00436199 6.34435e-06 0)
(-0.00431348 7.72667e-06 0)
(-0.00420448 4.96851e-06 0)
(-0.00395797 -7.67591e-06 0)
(-0.00347786 -3.27879e-05 0)
(-0.00269305 -6.75134e-05 0)
(-0.00161304 -0.00010288 0)
(-0.000333073 -0.000128474 0)
(0.000961353 -0.000131319 0)
(0.00204445 -0.000114148 0)
(0.00275166 -7.7621e-05 0)
(0.00296542 -3.06838e-05 0)
(0.00263523 2.53134e-05 0)
(0.00181271 7.42033e-05 0)
(0.000676047 0.000101324 0)
(-0.00054991 0.000104266 0)
(-0.00165761 9.17077e-05 0)
(-0.00252244 6.88138e-05 0)
(-0.0031252 4.6328e-05 0)
(-0.00350999 2.88192e-05 0)
(-0.00374063 1.69652e-05 0)
(-0.00387859 1.01854e-05 0)
(-0.00397469 7.83736e-06 0)
(-0.00406668 8.85809e-06 0)
(-0.00416982 1.15574e-05 0)
(-0.00428703 1.5031e-05 0)
(-0.00439639 1.80577e-05 0)
(-0.00445897 1.94284e-05 0)
(-0.00434026 7.19005e-06 0)
(-0.00389164 -2.4477e-05 0)
(-0.00282857 -8.33058e-05 0)
(-0.00117238 -0.000149512 0)
(0.000927104 -0.000177559 0)
(0.00281229 -0.000154327 0)
(0.00356125 -6.704e-05 0)
(0.00378869 1.93373e-05 0)
(0.00131309 0.000153756 0)
)
;
    }
    bottomWall
    {
        type            calculated;
        value           nonuniform List<vector> 
800
(
(-0.0353512 0.00216563 0)
(-0.0160361 0.000524982 0)
(-0.0105896 0.000100576 0)
(-0.00845417 3.46106e-05 0)
(-0.00748945 1.9706e-05 0)
(-0.00685305 1.60364e-05 0)
(-0.00634348 1.32375e-05 0)
(-0.00593147 1.07889e-05 0)
(-0.00559607 8.98867e-06 0)
(-0.00531658 7.68902e-06 0)
(-0.00507841 6.70396e-06 0)
(-0.00487217 5.9254e-06 0)
(-0.00469137 5.2945e-06 0)
(-0.00453131 4.77443e-06 0)
(-0.00438838 4.33961e-06 0)
(-0.00425981 3.97157e-06 0)
(-0.00414342 3.65663e-06 0)
(-0.00403746 3.38454e-06 0)
(-0.00394051 3.14747e-06 0)
(-0.00385141 2.93939e-06 0)
(-0.0037692 2.7555e-06 0)
(-0.00369307 2.59202e-06 0)
(-0.00362235 2.44588e-06 0)
(-0.00355644 2.31458e-06 0)
(-0.00349486 2.19606e-06 0)
(-0.00343718 2.08864e-06 0)
(-0.00338302 1.99089e-06 0)
(-0.00333207 1.90163e-06 0)
(-0.00328403 1.81986e-06 0)
(-0.00323866 1.74471e-06 0)
(-0.00319573 1.67545e-06 0)
(-0.00315505 1.61146e-06 0)
(-0.00311645 1.55218e-06 0)
(-0.00307976 1.49715e-06 0)
(-0.00304484 1.44593e-06 0)
(-0.00301156 1.39816e-06 0)
(-0.00297982 1.35354e-06 0)
(-0.00294951 1.31177e-06 0)
(-0.00292052 1.2726e-06 0)
(-0.00289278 1.23581e-06 0)
(-0.00286621 1.20121e-06 0)
(-0.00284073 1.16862e-06 0)
(-0.00281627 1.1379e-06 0)
(-0.00279279 1.10883e-06 0)
(-0.00277021 1.08148e-06 0)
(-0.0027485 1.05532e-06 0)
(-0.00272758 1.03101e-06 0)
(-0.00270745 1.0071e-06 0)
(-0.00268803 9.85619e-07 0)
(-0.00266931 9.627e-07 0)
(-0.00265366 9.4391e-07 0)
(-0.00264073 9.33252e-07 0)
(-0.00262797 9.19604e-07 0)
(-0.0026154 9.05052e-07 0)
(-0.00260302 8.9141e-07 0)
(-0.00259083 8.78427e-07 0)
(-0.00257881 8.65751e-07 0)
(-0.00256696 8.5334e-07 0)
(-0.00255528 8.41221e-07 0)
(-0.00254377 8.2939e-07 0)
(-0.00253241 8.17829e-07 0)
(-0.00252122 8.06526e-07 0)
(-0.00251018 7.95472e-07 0)
(-0.00249928 7.8466e-07 0)
(-0.00248854 7.74081e-07 0)
(-0.00247794 7.6373e-07 0)
(-0.00246748 7.53598e-07 0)
(-0.00245716 7.43679e-07 0)
(-0.00244697 7.33965e-07 0)
(-0.00243691 7.24452e-07 0)
(-0.00242699 7.15131e-07 0)
(-0.00241719 7.06e-07 0)
(-0.00240751 6.9705e-07 0)
(-0.00239796 6.88279e-07 0)
(-0.00238853 6.79679e-07 0)
(-0.00237921 6.71248e-07 0)
(-0.00237001 6.6298e-07 0)
(-0.00236092 6.54871e-07 0)
(-0.00235194 6.46915e-07 0)
(-0.00234307 6.39111e-07 0)
(-0.0023343 6.31453e-07 0)
(-0.00232564 6.23936e-07 0)
(-0.00231709 6.16558e-07 0)
(-0.00230863 6.09315e-07 0)
(-0.00230027 6.02203e-07 0)
(-0.00229201 5.95217e-07 0)
(-0.00228384 5.88355e-07 0)
(-0.00227577 5.81615e-07 0)
(-0.00226778 5.7499e-07 0)
(-0.00225989 5.68479e-07 0)
(-0.00225209 5.62078e-07 0)
(-0.00224437 5.55786e-07 0)
(-0.00223674 5.49597e-07 0)
(-0.0022292 5.4351e-07 0)
(-0.00222174 5.37522e-07 0)
(-0.00221435 5.31631e-07 0)
(-0.00220705 5.25833e-07 0)
(-0.00219983 5.20127e-07 0)
(-0.00219269 5.1451e-07 0)
(-0.00218562 5.08981e-07 0)
(-0.00217863 5.03536e-07 0)
(-0.00217171 4.98175e-07 0)
(-0.00216487 4.92894e-07 0)
(-0.00215809 4.87693e-07 0)
(-0.00215139 4.82569e-07 0)
(-0.00214476 4.77521e-07 0)
(-0.0021382 4.72547e-07 0)
(-0.0021317 4.67646e-07 0)
(-0.00212527 4.62817e-07 0)
(-0.00211891 4.58058e-07 0)
(-0.00211261 4.53367e-07 0)
(-0.00210638 4.48744e-07 0)
(-0.00210021 4.44188e-07 0)
(-0.0020941 4.39697e-07 0)
(-0.00208805 4.3527e-07 0)
(-0.00208206 4.30907e-07 0)
(-0.00207613 4.26606e-07 0)
(-0.00207026 4.22367e-07 0)
(-0.00206445 4.18187e-07 0)
(-0.0020587 4.14068e-07 0)
(-0.002053 4.10007e-07 0)
(-0.00204735 4.06003e-07 0)
(-0.00204176 4.02056e-07 0)
(-0.00203623 3.98165e-07 0)
(-0.00203075 3.94329e-07 0)
(-0.00202531 3.90548e-07 0)
(-0.00201994 3.86818e-07 0)
(-0.00201461 3.83141e-07 0)
(-0.00200933 3.79514e-07 0)
(-0.0020041 3.75941e-07 0)
(-0.00199892 3.72415e-07 0)
(-0.00199379 3.68937e-07 0)
(-0.00198871 3.65506e-07 0)
(-0.00198367 3.62126e-07 0)
(-0.00197868 3.58791e-07 0)
(-0.00197373 3.55503e-07 0)
(-0.00196883 3.52259e-07 0)
(-0.00196397 3.49059e-07 0)
(-0.00195916 3.45906e-07 0)
(-0.00195439 3.42791e-07 0)
(-0.00194966 3.39731e-07 0)
(-0.00194498 3.36696e-07 0)
(-0.00194033 3.3373e-07 0)
(-0.00193573 3.30767e-07 0)
(-0.00193116 3.27905e-07 0)
(-0.00192664 3.24995e-07 0)
(-0.00192215 3.22253e-07 0)
(-0.00191771 3.19361e-07 0)
(-0.0019133 3.16731e-07 0)
(-0.00190893 3.1377e-07 0)
(-0.00190526 3.11139e-07 0)
(-0.00190227 3.09756e-07 0)
(-0.00189927 3.0809e-07 0)
(-0.00189626 3.06195e-07 0)
(-0.00189326 3.04292e-07 0)
(-0.00189025 3.02491e-07 0)
(-0.00188724 3.00685e-07 0)
(-0.00188422 2.98897e-07 0)
(-0.0018812 2.97106e-07 0)
(-0.00187818 2.95319e-07 0)
(-0.00187515 2.93533e-07 0)
(-0.00187213 2.91754e-07 0)
(-0.0018691 2.89967e-07 0)
(-0.00186606 2.88224e-07 0)
(-0.00186303 2.86468e-07 0)
(-0.00185999 2.84718e-07 0)
(-0.00185695 2.82968e-07 0)
(-0.0018539 2.81236e-07 0)
(-0.00185086 2.79509e-07 0)
(-0.00184781 2.77783e-07 0)
(-0.00184476 2.76063e-07 0)
(-0.0018417 2.74348e-07 0)
(-0.00183865 2.72631e-07 0)
(-0.00183559 2.70947e-07 0)
(-0.00183253 2.69251e-07 0)
(-0.00182946 2.67577e-07 0)
(-0.0018264 2.65909e-07 0)
(-0.00182333 2.64245e-07 0)
(-0.00182026 2.6259e-07 0)
(-0.00181719 2.60939e-07 0)
(-0.00181411 2.59292e-07 0)
(-0.00181104 2.57675e-07 0)
(-0.00180796 2.5606e-07 0)
(-0.00180488 2.54456e-07 0)
(-0.0018018 2.52861e-07 0)
(-0.00179871 2.5127e-07 0)
(-0.00179563 2.49692e-07 0)
(-0.00179254 2.48129e-07 0)
(-0.00178944 2.4656e-07 0)
(-0.00178635 2.45041e-07 0)
(-0.00178326 2.43503e-07 0)
(-0.00178016 2.42e-07 0)
(-0.00177706 2.40502e-07 0)
(-0.00177396 2.39008e-07 0)
(-0.00177085 2.37522e-07 0)
(-0.00176774 2.36057e-07 0)
(-0.00176464 2.34608e-07 0)
(-0.00176152 2.33156e-07 0)
(-0.00175841 2.31703e-07 0)
(-0.00175529 2.3031e-07 0)
(-0.00175217 2.28909e-07 0)
(-0.00174905 2.27524e-07 0)
(-0.00174593 2.26146e-07 0)
(-0.0017428 2.24775e-07 0)
(-0.00173967 2.23417e-07 0)
(-0.00173654 2.22072e-07 0)
(-0.00173341 2.20725e-07 0)
(-0.00173027 2.19435e-07 0)
(-0.00172713 2.1812e-07 0)
(-0.00172398 2.16857e-07 0)
(-0.00172084 2.15596e-07 0)
(-0.00171769 2.14348e-07 0)
(-0.00171453 2.13114e-07 0)
(-0.00171138 2.11863e-07 0)
(-0.00170822 2.10601e-07 0)
(-0.00170505 2.09477e-07 0)
(-0.00170188 2.08306e-07 0)
(-0.00169871 2.07164e-07 0)
(-0.00169554 2.06005e-07 0)
(-0.00169235 2.04921e-07 0)
(-0.00168917 2.03844e-07 0)
(-0.00168598 2.02782e-07 0)
(-0.00168278 2.01733e-07 0)
(-0.00167958 2.0069e-07 0)
(-0.00167637 1.9964e-07 0)
(-0.00167316 1.98733e-07 0)
(-0.00166994 1.9775e-07 0)
(-0.00166671 1.96911e-07 0)
(-0.00166348 1.95926e-07 0)
(-0.00166024 1.95206e-07 0)
(-0.001657 1.94198e-07 0)
(-0.00165373 1.93686e-07 0)
(-0.00165048 1.92301e-07 0)
(-0.00164719 1.92486e-07 0)
(-0.00164393 1.90473e-07 0)
(-0.0016406 1.91903e-07 0)
(-0.00163735 1.88051e-07 0)
(-0.00163395 1.92427e-07 0)
(-0.00163075 1.84246e-07 0)
(-0.00162722 1.95369e-07 0)
(-0.00162415 1.7729e-07 0)
(-0.00162037 2.03412e-07 0)
(-0.00161759 1.63688e-07 0)
(-0.00161332 2.2166e-07 0)
(-0.00161113 1.36793e-07 0)
(-0.001606 2.58545e-07 0)
(-0.00160483 8.56508e-08 0)
(-0.00159837 3.23399e-07 0)
(-0.00159868 4.96881e-09 0)
(-0.00159048 3.55409e-07 0)
(-0.0353513 -0.00216561 0)
(-0.0160371 -0.000524936 0)
(-0.010592 -0.000100519 0)
(-0.00845829 -3.45527e-05 0)
(-0.00749551 -1.96433e-05 0)
(-0.00686127 -1.59683e-05 0)
(-0.00635403 -1.3165e-05 0)
(-0.00594447 -1.07127e-05 0)
(-0.00561158 -8.90962e-06 0)
(-0.00533462 -7.60797e-06 0)
(-0.00509899 -6.62162e-06 0)
(-0.00489526 -5.84221e-06 0)
(-0.00471694 -5.21069e-06 0)
(-0.00455931 -4.69005e-06 0)
(-0.00441879 -4.25456e-06 0)
(-0.00429259 -3.88553e-06 0)
(-0.00417856 -3.56915e-06 0)
(-0.00407495 -3.29499e-06 0)
(-0.00398037 -3.05511e-06 0)
(-0.00389369 -2.84331e-06 0)
(-0.00381395 -2.65471e-06 0)
(-0.00374039 -2.48541e-06 0)
(-0.00367235 -2.33225e-06 0)
(-0.00360927 -2.19259e-06 0)
(-0.00355068 -2.06427e-06 0)
(-0.00349621 -1.9454e-06 0)
(-0.0034455 -1.83437e-06 0)
(-0.00339827 -1.72978e-06 0)
(-0.00335428 -1.63024e-06 0)
(-0.00331333 -1.53475e-06 0)
(-0.00327526 -1.44187e-06 0)
(-0.00323992 -1.35101e-06 0)
(-0.00320722 -1.26029e-06 0)
(-0.00317706 -1.16983e-06 0)
(-0.00314941 -1.07654e-06 0)
(-0.00312423 -9.81731e-07 0)
(-0.00310152 -8.80434e-07 0)
(-0.00308141 -7.74998e-07 0)
(-0.00306372 -6.59535e-07 0)
(-0.00304911 -5.32852e-07 0)
(-0.00303663 -3.97717e-07 0)
(-0.00302865 -2.27083e-07 0)
(-0.00302143 -7.12423e-08 0)
(-0.00302266 1.93731e-07 0)
(-0.00301984 3.15372e-07 0)
(-0.00303649 8.51477e-07 0)
(-0.00303352 6.88755e-07 0)
(-0.00308059 2.3603e-06 0)
(-0.00307059 -5.49172e-06 0)
(-0.00295282 0.000219101 0)
(-2.72489e-05 1.25742e-05 0)
(-2.84137e-05 5.1652e-05 0)
(-3.41776e-05 9.04371e-05 0)
(-4.17517e-05 0.000143977 0)
(-4.70103e-05 0.000211752 0)
(-4.83211e-05 0.000286213 0)
(-4.33646e-05 0.00035154 0)
(-3.01684e-05 0.000392514 0)
(-1.26509e-05 0.000403817 0)
(3.50862e-06 0.000389712 0)
(1.80626e-05 0.000357907 0)
(3.64149e-05 0.000309709 0)
(6.55609e-05 0.00023852 0)
(0.000109618 0.000129611 0)
(0.000162544 -4.22448e-05 0)
(0.00021369 -0.000278308 0)
(0.000255329 -0.000564546 0)
(0.00027071 -0.000890517 0)
(0.000200896 -0.00122978 0)
(-5.11743e-06 -0.00146618 0)
(-0.000207993 -0.00144506 0)
(-0.000218488 -0.00124059 0)
(-8.37569e-05 -0.00106157 0)
(3.14652e-05 -0.000989785 0)
(6.25683e-05 -0.000988869 0)
(3.03462e-05 -0.000992675 0)
(-2.62059e-05 -0.000956433 0)
(-8.07797e-05 -0.000869694 0)
(-0.000122747 -0.00074451 0)
(-0.000148872 -0.00059826 0)
(-0.000158944 -0.000446036 0)
(-0.000154358 -0.000300194 0)
(-0.000137069 -0.000171421 0)
(-0.000108687 -6.91309e-05 0)
(-7.23479e-05 -1.31275e-06 0)
(-3.1969e-05 2.84007e-05 0)
(9.81224e-06 1.84496e-05 0)
(4.86636e-05 -2.93787e-05 0)
(8.22137e-05 -0.000110903 0)
(0.00010773 -0.00021849 0)
(0.000123819 -0.000343289 0)
(0.000130121 -0.000476271 0)
(0.000127364 -0.000609255 0)
(0.000117154 -0.00073516 0)
(0.000101619 -0.000848476 0)
(8.29722e-05 -0.000945732 0)
(6.3148e-05 -0.00102538 0)
(4.36332e-05 -0.00108737 0)
(2.54058e-05 -0.00113274 0)
(9.0155e-06 -0.00116313 0)
(-5.48634e-06 -0.0011806 0)
(-1.83815e-05 -0.00118685 0)
(-2.99292e-05 -0.00118348 0)
(-4.03162e-05 -0.00117231 0)
(-5.00778e-05 -0.0011545 0)
(-5.97237e-05 -0.00113077 0)
(-6.96262e-05 -0.00110152 0)
(-8.00167e-05 -0.00106684 0)
(-9.09051e-05 -0.00102657 0)
(-0.000101999 -0.000980381 0)
(-0.000112687 -0.000928005 0)
(-0.000122105 -0.00086937 0)
(-0.000129266 -0.000804768 0)
(-0.000133226 -0.000734955 0)
(-0.000133317 -0.000661153 0)
(-0.000129332 -0.000584928 0)
(-0.000121597 -0.00050797 0)
(-0.000110903 -0.000431854 0)
(-9.82579e-05 -0.000357844 0)
(-8.44838e-05 -0.000286807 0)
(-6.97948e-05 -0.000219351 0)
(-5.37143e-05 -0.000156128 0)
(-3.52e-05 -9.76172e-05 0)
(-1.1857e-05 -4.39462e-05 0)
(2.10512e-05 2.83828e-06 0)
(6.51439e-05 3.60759e-05 0)
(0.000112497 4.94402e-05 0)
(0.000149551 4.20318e-05 0)
(0.000166896 2.0439e-05 0)
(0.000163907 -6.10821e-06 0)
(0.000149213 -3.19873e-05 0)
(0.000135359 -6.06495e-05 0)
(0.000128929 -0.000102627 0)
(0.000124462 -0.000161503 0)
(0.000115814 -0.000228333 0)
(0.000105678 -0.000294927 0)
(9.28187e-05 -0.000359255 0)
(6.99832e-05 -0.000414784 0)
(3.75909e-05 -0.00044873 0)
(5.82371e-06 -0.000455507 0)
(-1.81998e-05 -0.000441299 0)
(-3.68465e-05 -0.000414561 0)
(-5.58722e-05 -0.000379284 0)
(-7.90567e-05 -0.000335754 0)
(-0.000106925 -0.000281733 0)
(-0.000135081 -0.000215694 0)
(-0.000156428 -0.00014036 0)
(-0.000165184 -6.26675e-05 0)
(-0.000159633 1.00197e-05 0)
(-0.000141756 7.16544e-05 0)
(-0.000115163 0.000118544 0)
(-8.3841e-05 0.000149582 0)
(-5.12178e-05 0.000164908 0)
(-2.0194e-05 0.000165826 0)
(6.79465e-06 0.000154431 0)
(2.83496e-05 0.000133781 0)
(4.43535e-05 0.000107133 0)
(5.57625e-05 7.71346e-05 0)
(6.40193e-05 4.54986e-05 0)
(7.08152e-05 1.2869e-05 0)
(7.70481e-05 -2.13736e-05 0)
(8.26044e-05 -5.76673e-05 0)
(8.69887e-05 -9.55734e-05 0)
(8.99438e-05 -0.000134251 0)
(9.1417e-05 -0.000172349 0)
(9.16663e-05 -0.000208608 0)
(9.02906e-05 -0.000242079 0)
(8.54653e-05 -0.000270259 0)
(7.64749e-05 -0.000287253 0)
(6.83068e-05 -0.000292004 0)
(6.4127e-05 -0.000273426 0)
(6.70532e-05 -0.000251667 0)
(6.76932e-05 -0.000232014 0)
(5.03153e-05 -0.000222063 0)
(-3.45867e-06 -0.000218451 0)
(-0.000102707 -0.000196242 0)
(-0.000226072 -0.000117361 0)
(-0.000323911 2.22428e-05 0)
(-0.000367866 0.000178049 0)
(-0.000376591 0.00030928 0)
(-0.000381216 0.0004161 0)
(-0.00039531 0.000518146 0)
(-0.000416505 0.000626867 0)
(-0.000438052 0.000743782 0)
(-0.000453937 0.000865924 0)
(-0.000460253 0.000988847 0)
(-0.00045529 0.00110811 0)
(-0.000439008 0.00122 0)
(-0.000412351 0.00132179 0)
(-0.000376687 0.00141158 0)
(-0.000333497 0.0014881 0)
(-0.000284267 0.0015505 0)
(-0.000230454 0.00159821 0)
(-0.000173366 0.00163088 0)
(-0.000113949 0.00164844 0)
(-5.30745e-05 0.001651 0)
(8.2177e-06 0.00163878 0)
(6.92326e-05 0.00161248 0)
(0.000129815 0.00157245 0)
(0.000189469 0.00151908 0)
(0.000247817 0.00145292 0)
(0.0003044 0.00137457 0)
(0.000358754 0.00128472 0)
(0.000410387 0.00118413 0)
(0.000458796 0.00107366 0)
(0.000503458 0.000954175 0)
(0.000543832 0.000826638 0)
(0.000579352 0.000692051 0)
(0.000609418 0.000551506 0)
(0.000633398 0.000406212 0)
(0.000650678 0.000257534 0)
(0.000660721 0.000107039 0)
(0.000663163 -4.34504e-05 0)
(0.000657999 -0.000192146 0)
(0.000645216 -0.000337464 0)
(0.000624812 -0.000477671 0)
(0.0005971 -0.000611071 0)
(0.000562573 -0.000736507 0)
(0.000521619 -0.000852504 0)
(0.000475417 -0.000957964 0)
(0.000424786 -0.0010527 0)
(0.000370475 -0.00113632 0)
(0.000313348 -0.00120859 0)
(0.000254246 -0.00126948 0)
(0.000193932 -0.00131916 0)
(0.000133055 -0.00135798 0)
(7.20443e-05 -0.00138641 0)
(1.14473e-05 -0.00140475 0)
(-4.87773e-05 -0.00141337 0)
(-0.00010902 -0.0014119 0)
(-0.000168385 -0.00140014 0)
(-0.000225722 -0.00137854 0)
(-0.000280391 -0.00134758 0)
(-0.000331913 -0.00130783 0)
(-0.000379847 -0.00125989 0)
(-0.000423704 -0.0012043 0)
(-0.000462941 -0.00114156 0)
(-0.000496928 -0.00107215 0)
(-0.000524961 -0.000996932 0)
(-0.000546541 -0.000917022 0)
(-0.000561301 -0.000833294 0)
(-0.000568851 -0.000746601 0)
(-0.000568878 -0.000658161 0)
(-0.000561355 -0.000570257 0)
(-0.000547249 -0.000488528 0)
(-0.000530767 -0.00042708 0)
(-0.000525423 -0.000416257 0)
(-0.00056462 -0.000507092 0)
(-0.000695452 -0.000751543 0)
(-0.000942914 -0.00115163 0)
(-1.21568e-06 2.80331e-05 0)
(-3.19965e-05 3.09903e-05 0)
(-5.82706e-05 3.66548e-05 0)
(-9.64921e-05 4.576e-05 0)
(-0.000145326 5.03355e-05 0)
(-0.000195161 4.63722e-05 0)
(-0.000236951 3.57007e-05 0)
(-0.000265595 2.23943e-05 0)
(-0.000280499 9.75745e-06 0)
(-0.00028357 -7.89198e-07 0)
(-0.000277424 -9.1701e-06 0)
(-0.000264508 -1.57068e-05 0)
(-0.000246292 -2.09149e-05 0)
(-0.000223544 -2.52526e-05 0)
(-0.000196674 -2.92263e-05 0)
(-0.000165983 -3.3613e-05 0)
(-0.000131543 -3.93931e-05 0)
(-9.3153e-05 -4.69171e-05 0)
(-5.07195e-05 -5.39607e-05 0)
(-7.26467e-06 -5.43502e-05 0)
(2.74806e-05 -4.09067e-05 0)
(4.22128e-05 -1.50893e-05 0)
(2.42176e-05 1.39017e-05 0)
(-1.24331e-05 2.74425e-05 0)
(-4.92554e-05 2.09032e-05 0)
(-6.99775e-05 -1.38082e-06 0)
(-6.65129e-05 -2.66247e-05 0)
(-4.22324e-05 -3.74588e-05 0)
(-1.60368e-05 -2.41072e-05 0)
(-6.14692e-06 6.83964e-06 0)
(-1.82724e-05 3.66459e-05 0)
(-4.73041e-05 5.15241e-05 0)
(-8.44641e-05 6.21712e-05 0)
(-0.000126927 7.73197e-05 0)
(-0.00015321 9.36916e-05 0)
(-0.000153724 0.000121753 0)
(-0.000131819 0.000149179 0)
(-9.79091e-05 0.00013096 0)
(-1.67892e-05 2.39987e-05 0)
(0.00016508 -0.000191779 0)
(0.000466998 -0.000418989 0)
(0.000834941 -0.000531528 0)
(0.00116418 -0.000473089 0)
(0.0013479 -0.000266354 0)
(0.00135014 -6.94942e-05 0)
(0.00128865 9.91487e-06 0)
(0.00124339 2.18463e-05 0)
(0.00121207 2.14918e-05 0)
(0.00118271 2.38369e-05 0)
(0.00115047 2.885e-05 0)
(0.00111459 3.37468e-05 0)
(0.00107524 3.90089e-05 0)
(0.00103111 4.50896e-05 0)
(0.000981658 5.11067e-05 0)
(0.000927334 5.657e-05 0)
(0.000868909 6.12078e-05 0)
(0.000807379 6.49746e-05 0)
(0.00074354 6.82562e-05 0)
(0.000677597 7.16866e-05 0)
(0.000609052 7.59611e-05 0)
(0.000536759 8.16766e-05 0)
(0.000459095 8.92154e-05 0)
(0.000374195 9.87465e-05 0)
(0.000280202 0.000110324 0)
(0.000175366 0.000123889 0)
(5.78894e-05 0.000140445 0)
(-7.68957e-05 0.000157959 0)
(-0.000225871 0.000175868 0)
(-0.000384949 0.00019246 0)
(-0.000557378 0.000209619 0)
(-0.000744461 0.000226832 0)
(-0.000945207 0.000243155 0)
(-0.00115806 0.000257586 0)
(-0.00138127 0.000269391 0)
(-0.00161283 0.00027757 0)
(-0.00184969 0.000280366 0)
(-0.00208712 0.000276048 0)
(-0.00231962 0.000263359 0)
(-0.00254065 0.000239248 0)
(-0.0027402 0.000202808 0)
(-0.0029121 0.000150284 0)
(-0.00303937 7.84282e-05 0)
(-0.00311779 -1.40365e-05 0)
(-0.00312564 -0.000142272 0)
(-0.00304011 -0.000298539 0)
(-0.00284299 -0.000513835 0)
(-0.00248284 -0.000735558 0)
(-0.00199686 -0.0010438 0)
(-0.000932945 -0.00117151 0)
(-2.10943e-05 -0.000408145 0)
(0.000109216 0.00018564 0)
(0.000124817 2.78054e-06 0)
(0.000252093 -0.00017649 0)
(0.00044171 -0.000184702 0)
(0.000585413 -0.000136069 0)
(0.000646432 -2.71572e-05 0)
(0.000603607 8.77952e-05 0)
(0.000470436 0.000190727 0)
(0.000241135 0.000239921 0)
(-7.00416e-06 0.000156803 0)
(0.000150761 5.50625e-05 0)
(0.000223403 0.000370666 0)
(0.000209037 0.000688076 0)
(8.91426e-05 0.000852223 0)
(-4.45139e-05 0.000824705 0)
(-0.000155857 0.000641013 0)
(-0.000225035 0.000346276 0)
(-0.000224339 3.51207e-07 0)
(-0.000163788 -0.000294917 0)
(-7.67276e-05 -0.000495618 0)
(2.4184e-05 -0.00058649 0)
(0.000122167 -0.000557463 0)
(0.00019029 -0.000410025 0)
(0.000171482 -0.000180045 0)
(6.33076e-05 1.82982e-05 0)
(-1.99492e-05 0.000121388 0)
(-2.75274e-05 0.000158308 0)
(-1.13272e-05 0.000171887 0)
(1.37565e-06 0.000190083 0)
(1.15986e-05 0.000220725 0)
(1.19612e-05 0.000252935 0)
(-2.45091e-06 0.000268774 0)
(-2.76196e-05 0.000255898 0)
(-5.7782e-05 0.000207862 0)
(-8.69231e-05 0.000125635 0)
(-0.000114167 1.283e-05 0)
(-0.000139845 -0.000129541 0)
(-0.000166235 -0.000299565 0)
(-0.000191694 -0.000498847 0)
(-0.000208658 -0.000722769 0)
(-0.000209361 -0.000958246 0)
(-0.000185739 -0.00118338 0)
(-0.000139057 -0.00136988 0)
(-8.03321e-05 -0.00149995 0)
(-1.63197e-05 -0.00156766 0)
(4.97781e-05 -0.00156989 0)
(0.000106258 -0.00150863 0)
(0.000143015 -0.00140444 0)
(0.000163344 -0.00128332 0)
(0.000169309 -0.00116083 0)
(0.000154185 -0.00104733 0)
(0.000107441 -0.000955539 0)
(2.89191e-05 -0.000905331 0)
(-6.08451e-05 -0.000907661 0)
(-0.000133658 -0.000956748 0)
(-0.000176316 -0.00104183 0)
(-0.000183279 -0.00115169 0)
(-0.000148256 -0.00127968 0)
(-9.28338e-05 -0.0014155 0)
(-5.29255e-05 -0.0015577 0)
(-2.08665e-05 -0.00169405 0)
(1.31389e-05 -0.00178303 0)
(4.00832e-05 -0.00177489 0)
(1.07949e-05 -0.00164892 0)
(-8.95782e-05 -0.00143368 0)
(-0.000209186 -0.0012081 0)
(-0.000258776 -0.00101402 0)
(-0.000148553 -0.000765145 0)
(0.000141937 -0.000504316 0)
(0.000672061 -0.000304528 0)
(0.00102201 8.66748e-05 0)
(0.00115165 0.000708768 0)
(0.000446805 0.00154968 0)
(-0.000851597 0.00178186 0)
(-0.00137273 0.00136115 0)
(-0.00156627 0.00169414 0)
(0.0018573 0.00278211 0)
(0.00244383 0.00236886 0)
(0.00249216 0.00448604 0)
(0.00117342 0.0051734 0)
(0.000975097 0.00503187 0)
(0.00109851 0.0055387 0)
(0.000736208 0.00597694 0)
(0.0006108 0.00611098 0)
(0.000522857 0.00634258 0)
(0.000309811 0.00647606 0)
(0.000212719 0.00650692 0)
(0.000114417 0.00654577 0)
(2.34987e-05 0.00652787 0)
(-9.77005e-06 0.0064941 0)
(-4.3928e-05 0.00646701 0)
(-6.13173e-05 0.00642699 0)
(-6.26961e-05 0.00639372 0)
(-6.49666e-05 0.00636473 0)
(-6.09769e-05 0.0063365 0)
(-5.74164e-05 0.00631269 0)
(-5.57481e-05 0.00628899 0)
(-5.36102e-05 0.00626591 0)
(-5.29954e-05 0.00624397 0)
(-5.22899e-05 0.00622252 0)
(-5.11624e-05 0.00620292 0)
(-5.02425e-05 0.00618532 0)
(-4.92341e-05 0.00616983 0)
(-4.87078e-05 0.00615681 0)
(-4.90351e-05 0.00614623 0)
(-5.04975e-05 0.00613825 0)
(-5.35823e-05 0.00613298 0)
(-5.84349e-05 0.00613041 0)
(-6.5123e-05 0.00613064 0)
(-7.28796e-05 0.00613328 0)
(-7.96805e-05 0.0061382 0)
(-8.23132e-05 0.00614639 0)
(-7.69064e-05 0.00615971 0)
(-5.90136e-05 0.00618089 0)
(-2.3783e-05 0.00621339 0)
(3.3873e-05 0.00626131 0)
(0.000118887 0.00632951 0)
(0.00023505 0.00642393 0)
(0.000382991 0.00655167 0)
(0.000556953 0.00672026 0)
(0.00074125 0.00693605 0)
(0.000908953 0.00720244 0)
(0.00102614 0.00751476 0)
(0.00106257 0.00785011 0)
(0.00100639 0.00817012 0)
(0.000872536 0.00843686 0)
(0.000695722 0.00862569 0)
(0.000511795 0.00873879 0)
(0.000340324 0.00879432 0)
(0.000186277 0.00880633 0)
(5.03523e-05 0.00878022 0)
(-6.38739e-05 0.0087216 0)
(-0.000158102 0.00864253 0)
(-0.000240454 0.00854785 0)
(-0.000314377 0.0084359 0)
(-0.000378809 0.00830654 0)
(-0.000432945 0.00816394 0)
(-0.000478668 0.00801239 0)
(-0.000518394 0.00785328 0)
(-0.000552966 0.00768689 0)
(-0.000582347 0.00751448 0)
(-0.000606896 0.00733795 0)
(-0.000627442 0.00715873 0)
(-0.000644701 0.00697757 0)
(-0.000659043 0.00679506 0)
(-0.000670722 0.00661193 0)
(-0.000680057 0.00642893 0)
(-0.000687398 0.00624661 0)
(-0.000693048 0.00606538 0)
(-0.000697241 0.00588557 0)
(-0.000700184 0.0057075 0)
(-0.000702074 0.00553142 0)
(-0.000703102 0.00535756 0)
(-0.000703446 0.00518605 0)
(-0.000703269 0.00501702 0)
(-0.000702722 0.00485054 0)
(-0.000701946 0.00468665 0)
(-0.000701081 0.00452537 0)
(-0.000700259 0.00436667 0)
(-0.000699607 0.00421051 0)
(-0.000699248 0.00405682 0)
(-0.0006993 0.00390551 0)
(-0.000699874 0.00375646 0)
(-0.000701079 0.00360953 0)
(-0.000703017 0.00346458 0)
(-0.000705786 0.00332143 0)
(-0.000709478 0.00317991 0)
(-0.00071418 0.00303981 0)
(-0.000719974 0.00290095 0)
(-0.000726935 0.00276312 0)
(-0.000735137 0.00262611 0)
(-0.00074465 0.00248971 0)
(-0.000755541 0.00235372 0)
(-0.000767881 0.00221792 0)
(-0.000781741 0.00208212 0)
(-0.0007972 0.0019461 0)
(-0.000814343 0.00180966 0)
(-0.000833265 0.00167258 0)
(-0.000854066 0.0015346 0)
(-0.000876851 0.00139544 0)
(-0.000901715 0.00125475 0)
(-0.00092873 0.00111217 0)
(-0.000957931 0.000967271 0)
(-0.000989307 0.000819653 0)
(-0.00102281 0.000668977 0)
(-0.00105838 0.000515022 0)
(-0.00109586 0.000357726 0)
(-0.0011349 0.000197247 0)
(-0.00117665 3.39927e-05 0)
(-0.00122181 -0.000132349 0)
(-0.00126934 -0.000301681 0)
(-0.00131988 -0.000473464 0)
(-0.00137512 -0.000647889 0)
(-0.00143573 -0.000825248 0)
(-0.00150249 -0.00100595 0)
(-0.00157618 -0.00119052 0)
(-0.00165761 -0.00137946 0)
(-0.00174781 -0.00157322 0)
(-0.00184798 -0.00177242 0)
(-0.00195941 -0.00197736 0)
(-0.00208371 -0.00218965 0)
(-0.00222198 -0.00240745 0)
(-0.00237748 -0.00263841 0)
(-0.00254829 -0.00286679 0)
(-0.00274602 -0.00313225 0)
(-0.00295036 -0.00334998 0)
(-0.00321024 -0.00370359 0)
(-0.00341604 -0.00381392 0)
(-0.0037569 -0.00443836 0)
(-0.0036977 -0.00402008 0)
)
;
    }
    frontAndBack
    {
        type            empty;
    }
}


// ************************************************************************* //
