/*--------------------------------*- C++ -*----------------------------------*\
  =========                 |
  \\      /  F ield         | OpenFOAM: The Open Source CFD Toolbox
   \\    /   O peration     | Website:  https://openfoam.org
    \\  /    A nd           | Version:  7
     \\/     M anipulation  |
\*---------------------------------------------------------------------------*/
FoamFile
{
    version     2.0;
    format      ascii;
    class       volScalarField;
    location    "0.05";
    object      k;
}
// * * * * * * * * * * * * * * * * * * * * * * * * * * * * * * * * * * * * * //

dimensions      [0 2 -2 0 0 0 0];

internalField   nonuniform List<scalar> 
70000
(
1.08549e-05
4.21869e-06
2.82422e-06
2.31657e-06
1.99722e-06
1.75679e-06
1.56476e-06
1.40781e-06
1.27697e-06
1.16621e-06
1.07123e-06
9.89163e-07
9.17554e-07
8.54838e-07
7.99354e-07
7.50282e-07
7.06275e-07
6.67075e-07
6.31443e-07
5.99601e-07
5.70254e-07
5.44035e-07
5.195e-07
4.97646e-07
4.76852e-07
4.58432e-07
4.4059e-07
4.24901e-07
4.09422e-07
3.95936e-07
3.8237e-07
3.70698e-07
3.58682e-07
3.48541e-07
3.37755e-07
3.28956e-07
3.19109e-07
3.11528e-07
3.02367e-07
2.95891e-07
2.87245e-07
2.81731e-07
2.73489e-07
2.68851e-07
2.60776e-07
2.57215e-07
2.48586e-07
2.55659e-07
2.45605e-07
2.58446e-07
1.72795e-05
1.13671e-05
8.52019e-06
7.00978e-06
6.03641e-06
5.30988e-06
4.73027e-06
4.25626e-06
3.86108e-06
3.52655e-06
3.23971e-06
2.99187e-06
2.77558e-06
2.58615e-06
2.41851e-06
2.27027e-06
2.13726e-06
2.01881e-06
1.91108e-06
1.81485e-06
1.7261e-06
1.64685e-06
1.57264e-06
1.50658e-06
1.44368e-06
1.38798e-06
1.33402e-06
1.28655e-06
1.23974e-06
1.19894e-06
1.15791e-06
1.12259e-06
1.08623e-06
1.05557e-06
1.0229e-06
9.96328e-07
9.66463e-07
9.436e-07
9.15806e-07
8.96274e-07
8.70069e-07
8.5341e-07
8.28456e-07
8.14457e-07
7.89961e-07
7.793e-07
7.53126e-07
7.66664e-07
7.4404e-07
7.61494e-07
1.937e-05
1.61296e-05
1.32907e-05
1.12888e-05
9.8275e-06
8.6946e-06
7.77665e-06
7.0185e-06
6.38176e-06
5.84005e-06
5.37385e-06
4.96989e-06
4.61639e-06
4.3062e-06
4.03103e-06
3.78737e-06
3.5682e-06
3.37293e-06
3.19487e-06
3.03586e-06
2.88884e-06
2.75763e-06
2.63449e-06
2.5249e-06
2.4204e-06
2.32783e-06
2.23809e-06
2.15908e-06
2.08116e-06
2.01315e-06
1.94479e-06
1.88589e-06
1.82521e-06
1.77411e-06
1.71945e-06
1.67524e-06
1.62515e-06
1.58716e-06
1.54052e-06
1.50801e-06
1.46412e-06
1.43628e-06
1.39454e-06
1.37118e-06
1.33011e-06
1.31235e-06
1.26877e-06
1.27912e-06
1.25257e-06
1.25799e-06
1.9861e-05
1.826e-05
1.60856e-05
1.41998e-05
1.26395e-05
1.13476e-05
1.02594e-05
9.33662e-06
8.54487e-06
7.86114e-06
7.26616e-06
6.74616e-06
6.2875e-06
5.88269e-06
5.52124e-06
5.19978e-06
4.9089e-06
4.64904e-06
4.41084e-06
4.19785e-06
3.99997e-06
3.82326e-06
3.6567e-06
3.50838e-06
3.3665e-06
3.24066e-06
3.11842e-06
3.01059e-06
2.90417e-06
2.81108e-06
2.71744e-06
2.6367e-06
2.55327e-06
2.48323e-06
2.40776e-06
2.34723e-06
2.27784e-06
2.22579e-06
2.16117e-06
2.11641e-06
2.05577e-06
2.0172e-06
1.95959e-06
1.92719e-06
1.87049e-06
1.8454e-06
1.78644e-06
1.7856e-06
1.7664e-06
1.74506e-06
1.99706e-05
1.78459e-05
1.6075e-05
1.47667e-05
1.36028e-05
1.25376e-05
1.15691e-05
1.07011e-05
9.91981e-06
9.22377e-06
8.60335e-06
8.05039e-06
7.55403e-06
7.11012e-06
6.70811e-06
6.34693e-06
6.01619e-06
5.71883e-06
5.44355e-06
5.19643e-06
4.96485e-06
4.75745e-06
4.56051e-06
4.38467e-06
4.2155e-06
4.06499e-06
3.9182e-06
3.78827e-06
3.6597e-06
3.54692e-06
3.43311e-06
3.33498e-06
3.23292e-06
3.14766e-06
3.05475e-06
2.98096e-06
2.89521e-06
2.83147e-06
2.75164e-06
2.69631e-06
2.62166e-06
2.57348e-06
2.50268e-06
2.46192e-06
2.3923e-06
2.36036e-06
2.29179e-06
2.27452e-06
2.25547e-06
2.21128e-06
2.00095e-05
1.47037e-05
1.37485e-05
1.3212e-05
1.25929e-05
1.19286e-05
1.12794e-05
1.06587e-05
1.0082e-05
9.54781e-06
9.04708e-06
8.58082e-06
8.14657e-06
7.74708e-06
7.37434e-06
7.03229e-06
6.71208e-06
6.42051e-06
6.14582e-06
5.8971e-06
5.66039e-06
5.44695e-06
5.24162e-06
5.05724e-06
4.87804e-06
4.71763e-06
4.56001e-06
4.41977e-06
4.28018e-06
4.15731e-06
4.0324e-06
3.92479e-06
3.81157e-06
3.71763e-06
3.61365e-06
3.53186e-06
3.43546e-06
3.36405e-06
3.2744e-06
3.2114e-06
3.12792e-06
3.0721e-06
2.9933e-06
2.94505e-06
2.86813e-06
2.8293e-06
2.75795e-06
2.72159e-06
2.69907e-06
2.63963e-06
2.01332e-05
1.54663e-05
9.63469e-06
9.40003e-06
9.49555e-06
9.49536e-06
9.43753e-06
9.30026e-06
9.05999e-06
8.78633e-06
8.4917e-06
8.19476e-06
7.90242e-06
7.61995e-06
7.34168e-06
7.08239e-06
6.83315e-06
6.60057e-06
6.37414e-06
6.16521e-06
5.9605e-06
5.7732e-06
5.58882e-06
5.42138e-06
5.25554e-06
5.10551e-06
4.95613e-06
4.82228e-06
4.68739e-06
4.56822e-06
4.44527e-06
4.3396e-06
4.22628e-06
4.13301e-06
4.02764e-06
3.94531e-06
3.84709e-06
3.77376e-06
3.68249e-06
3.61615e-06
3.53166e-06
3.4712e-06
3.39233e-06
3.33781e-06
3.26276e-06
3.21449e-06
3.14988e-06
3.09819e-06
3.07252e-06
3.00312e-06
2.01713e-05
1.86752e-05
8.68789e-06
5.5409e-06
5.63212e-06
5.93764e-06
6.29728e-06
6.58354e-06
6.76487e-06
6.87441e-06
6.89535e-06
6.87647e-06
6.82487e-06
6.73765e-06
6.62664e-06
6.50553e-06
6.36623e-06
6.22577e-06
6.08041e-06
5.94076e-06
5.79683e-06
5.66178e-06
5.524e-06
5.39642e-06
5.26666e-06
5.14925e-06
5.02974e-06
4.92156e-06
4.80972e-06
4.7104e-06
4.60504e-06
4.51479e-06
4.41499e-06
4.33354e-06
4.23897e-06
4.16517e-06
4.07628e-06
4.00823e-06
3.92554e-06
3.86178e-06
3.78579e-06
3.72542e-06
3.65557e-06
3.5983e-06
3.53379e-06
3.47926e-06
3.42626e-06
3.36695e-06
3.3413e-06
3.27002e-06
2.01672e-05
1.97237e-05
1.61646e-05
4.85693e-06
3.04263e-06
3.10699e-06
3.37791e-06
3.80911e-06
4.17668e-06
4.49615e-06
4.74493e-06
4.93631e-06
5.07761e-06
5.17987e-06
5.23864e-06
5.27643e-06
5.2805e-06
5.27239e-06
5.24982e-06
5.21334e-06
5.16335e-06
5.11005e-06
5.04751e-06
4.98473e-06
4.91479e-06
4.84622e-06
4.77085e-06
4.70085e-06
4.6245e-06
4.55623e-06
4.48025e-06
4.41543e-06
4.34044e-06
4.27965e-06
4.20649e-06
4.14911e-06
4.07937e-06
4.02434e-06
3.96046e-06
3.90673e-06
3.84832e-06
3.79503e-06
3.74188e-06
3.68892e-06
3.64078e-06
3.58797e-06
3.5493e-06
3.49201e-06
3.46978e-06
3.40676e-06
2.01477e-05
1.99342e-05
1.90647e-05
1.44933e-05
5.23355e-06
2.15332e-06
1.915e-06
1.99541e-06
2.2109e-06
2.51136e-06
2.78853e-06
3.04412e-06
3.26999e-06
3.46929e-06
3.63368e-06
3.77444e-06
3.88646e-06
3.97732e-06
4.0481e-06
4.10316e-06
4.14119e-06
4.16716e-06
4.18206e-06
4.18608e-06
4.18315e-06
4.17592e-06
4.16048e-06
4.14334e-06
4.11776e-06
4.09416e-06
4.06201e-06
4.03442e-06
3.99784e-06
3.96783e-06
3.92842e-06
3.89691e-06
3.85714e-06
3.82275e-06
3.78347e-06
3.74627e-06
3.70941e-06
3.67019e-06
3.63616e-06
3.59552e-06
3.5645e-06
3.52248e-06
3.49771e-06
3.45136e-06
3.4351e-06
3.39121e-06
2.01217e-05
1.9966e-05
1.96419e-05
1.85442e-05
1.52043e-05
8.34035e-06
3.09285e-06
1.63147e-06
1.44252e-06
1.4507e-06
1.52942e-06
1.69323e-06
1.87647e-06
2.05585e-06
2.22695e-06
2.38909e-06
2.53704e-06
2.67102e-06
2.78989e-06
2.896e-06
2.98837e-06
3.06876e-06
3.13773e-06
3.19662e-06
3.24522e-06
3.28711e-06
3.32007e-06
3.34836e-06
3.36842e-06
3.38566e-06
3.39575e-06
3.40393e-06
3.40705e-06
3.40692e-06
3.40474e-06
3.40095e-06
3.39341e-06
3.3849e-06
3.37604e-06
3.36299e-06
3.35318e-06
3.33659e-06
3.32604e-06
3.30713e-06
3.29597e-06
3.27572e-06
3.26505e-06
3.2417e-06
3.23504e-06
3.21453e-06
2.00982e-05
1.99328e-05
1.9757e-05
1.93513e-05
1.85031e-05
1.65285e-05
1.23073e-05
6.83154e-06
2.96664e-06
1.48848e-06
1.24231e-06
1.14829e-06
1.15377e-06
1.1983e-06
1.29306e-06
1.40247e-06
1.51611e-06
1.62854e-06
1.73988e-06
1.84718e-06
1.94871e-06
2.0439e-06
2.13212e-06
2.21377e-06
2.2884e-06
2.35679e-06
2.41863e-06
2.47507e-06
2.52539e-06
2.57115e-06
2.61157e-06
2.64789e-06
2.68007e-06
2.70828e-06
2.73321e-06
2.75481e-06
2.77451e-06
2.7896e-06
2.80551e-06
2.81552e-06
2.82808e-06
2.83419e-06
2.84356e-06
2.84709e-06
2.85351e-06
2.85544e-06
2.85984e-06
2.86003e-06
2.86484e-06
2.86386e-06
2.00782e-05
1.98876e-05
1.97567e-05
1.94598e-05
1.91439e-05
1.86376e-05
1.75475e-05
1.54123e-05
1.17099e-05
7.40362e-06
3.94475e-06
1.89225e-06
1.20359e-06
1.05644e-06
9.80746e-07
9.45081e-07
9.57646e-07
9.94516e-07
1.05795e-06
1.1241e-06
1.19508e-06
1.26702e-06
1.33974e-06
1.41206e-06
1.48282e-06
1.55072e-06
1.61623e-06
1.67827e-06
1.73751e-06
1.79324e-06
1.84614e-06
1.89542e-06
1.94223e-06
1.98524e-06
2.02649e-06
2.06346e-06
2.10012e-06
2.1315e-06
2.16396e-06
2.19085e-06
2.21949e-06
2.24268e-06
2.26769e-06
2.28802e-06
2.31028e-06
2.32742e-06
2.34824e-06
2.36256e-06
2.38148e-06
2.39823e-06
2.00614e-05
1.98539e-05
1.97341e-05
1.94701e-05
1.92532e-05
1.90446e-05
1.8732e-05
1.81847e-05
1.70848e-05
1.52127e-05
1.25271e-05
9.17667e-06
5.90632e-06
3.42189e-06
1.8438e-06
1.15432e-06
9.62098e-07
8.89946e-07
8.34838e-07
7.98938e-07
8.02336e-07
8.1809e-07
8.50995e-07
8.91377e-07
9.33203e-07
9.77912e-07
1.0246e-06
1.07171e-06
1.11999e-06
1.16761e-06
1.2152e-06
1.26094e-06
1.30659e-06
1.34968e-06
1.39296e-06
1.43295e-06
1.47382e-06
1.51068e-06
1.54882e-06
1.58292e-06
1.61832e-06
1.6501e-06
1.68244e-06
1.7125e-06
1.74268e-06
1.77016e-06
1.7987e-06
1.82529e-06
1.85024e-06
1.879e-06
2.00476e-05
1.98304e-05
1.97074e-05
1.94479e-05
1.92701e-05
1.91125e-05
1.89621e-05
1.87465e-05
1.84571e-05
1.79038e-05
1.70643e-05
1.56723e-05
1.38418e-05
1.14646e-05
8.76356e-06
6.1429e-06
3.98261e-06
2.4275e-06
1.45793e-06
1.01138e-06
8.57424e-07
7.96629e-07
7.48592e-07
7.09718e-07
6.83901e-07
6.848e-07
6.92532e-07
7.09995e-07
7.33633e-07
7.59657e-07
7.86911e-07
8.15648e-07
8.46675e-07
8.77447e-07
9.10371e-07
9.42244e-07
9.7594e-07
1.00775e-06
1.04103e-06
1.07243e-06
1.1049e-06
1.13612e-06
1.1669e-06
1.19811e-06
1.22839e-06
1.25786e-06
1.28776e-06
1.31766e-06
1.34488e-06
1.3758e-06
2.00363e-05
1.98125e-05
1.96849e-05
1.94176e-05
1.9256e-05
1.9106e-05
1.89971e-05
1.88456e-05
1.87081e-05
1.84955e-05
1.82414e-05
1.78227e-05
1.72143e-05
1.63353e-05
1.51134e-05
1.35602e-05
1.17187e-05
9.60285e-06
7.43898e-06
5.4315e-06
3.76929e-06
2.51257e-06
1.62746e-06
1.1039e-06
8.5626e-07
7.55908e-07
7.07486e-07
6.70547e-07
6.34783e-07
6.08888e-07
5.91243e-07
5.90974e-07
5.94788e-07
6.03585e-07
6.18126e-07
6.33518e-07
6.51272e-07
6.69025e-07
6.88893e-07
7.09332e-07
7.31081e-07
7.53894e-07
7.76203e-07
8.00809e-07
8.24808e-07
8.48671e-07
8.73891e-07
8.99483e-07
9.23288e-07
9.50217e-07
2.00272e-05
1.97986e-05
1.96657e-05
1.93955e-05
1.923e-05
1.90784e-05
1.89786e-05
1.88492e-05
1.87317e-05
1.85924e-05
1.8454e-05
1.82843e-05
1.80715e-05
1.77844e-05
1.73896e-05
1.68389e-05
1.61142e-05
1.51745e-05
1.40026e-05
1.26362e-05
1.10942e-05
9.39628e-06
7.65737e-06
6.00784e-06
4.5218e-06
3.30896e-06
2.35606e-06
1.64158e-06
1.15748e-06
8.78074e-07
7.36553e-07
6.69401e-07
6.30828e-07
6.01608e-07
5.73849e-07
5.48233e-07
5.29982e-07
5.17838e-07
5.15253e-07
5.17017e-07
5.21576e-07
5.30058e-07
5.39172e-07
5.51174e-07
5.63398e-07
5.76135e-07
5.90876e-07
6.06818e-07
6.22027e-07
6.40626e-07
2.002e-05
1.979e-05
1.96456e-05
1.9379e-05
1.92056e-05
1.90492e-05
1.894e-05
1.88227e-05
1.87097e-05
1.85856e-05
1.84659e-05
1.83402e-05
1.82138e-05
1.80703e-05
1.79112e-05
1.77094e-05
1.74608e-05
1.71344e-05
1.67195e-05
1.61809e-05
1.55278e-05
1.4718e-05
1.3775e-05
1.26768e-05
1.14944e-05
1.01914e-05
8.81478e-06
7.42981e-06
6.09652e-06
4.87493e-06
3.79384e-06
2.90622e-06
2.18488e-06
1.61588e-06
1.19539e-06
9.14117e-07
7.45838e-07
6.52759e-07
6.01761e-07
5.70091e-07
5.45071e-07
5.23683e-07
5.02301e-07
4.84434e-07
4.70432e-07
4.61569e-07
4.57884e-07
4.58775e-07
4.6137e-07
4.67551e-07
2.00145e-05
1.97899e-05
1.96194e-05
1.93655e-05
1.91849e-05
1.9022e-05
1.89037e-05
1.87857e-05
1.86693e-05
1.8549e-05
1.84353e-05
1.83176e-05
1.82048e-05
1.80846e-05
1.79709e-05
1.78465e-05
1.77222e-05
1.75756e-05
1.7416e-05
1.72141e-05
1.69808e-05
1.66839e-05
1.63318e-05
1.5893e-05
1.53792e-05
1.47712e-05
1.40718e-05
1.32706e-05
1.23901e-05
1.14258e-05
1.04189e-05
9.33942e-06
8.2277e-06
7.12123e-06
6.04841e-06
5.04598e-06
4.12769e-06
3.32515e-06
2.64744e-06
2.08015e-06
1.61304e-06
1.24438e-06
9.70571e-07
7.84636e-07
6.65969e-07
5.96015e-07
5.52445e-07
5.27117e-07
5.04122e-07
4.91475e-07
2.00102e-05
1.9794e-05
1.95927e-05
1.93516e-05
1.9166e-05
1.8996e-05
1.887e-05
1.87489e-05
1.86291e-05
1.85052e-05
1.83891e-05
1.82704e-05
1.81594e-05
1.80456e-05
1.79382e-05
1.78271e-05
1.77201e-05
1.76091e-05
1.75025e-05
1.73874e-05
1.72709e-05
1.7139e-05
1.6995e-05
1.68255e-05
1.66313e-05
1.64005e-05
1.61336e-05
1.58158e-05
1.54501e-05
1.50245e-05
1.45439e-05
1.40013e-05
1.33947e-05
1.27265e-05
1.20025e-05
1.12275e-05
1.04161e-05
9.56947e-06
8.68082e-06
7.77881e-06
6.8763e-06
5.99957e-06
5.15533e-06
4.37467e-06
3.64736e-06
3.01667e-06
2.46917e-06
2.00792e-06
1.60554e-06
1.29082e-06
2.00071e-05
1.98014e-05
1.95681e-05
1.9338e-05
1.91483e-05
1.89716e-05
1.88376e-05
1.87138e-05
1.85895e-05
1.84629e-05
1.83417e-05
1.82213e-05
1.81057e-05
1.79904e-05
1.788e-05
1.77699e-05
1.76655e-05
1.75623e-05
1.74616e-05
1.73617e-05
1.72624e-05
1.71636e-05
1.70642e-05
1.69638e-05
1.68587e-05
1.67487e-05
1.66293e-05
1.64978e-05
1.63494e-05
1.61838e-05
1.59941e-05
1.57807e-05
1.55354e-05
1.52602e-05
1.49464e-05
1.45978e-05
1.42059e-05
1.37778e-05
1.33037e-05
1.27889e-05
1.22292e-05
1.16315e-05
1.09966e-05
1.03294e-05
9.63887e-06
8.92299e-06
8.16386e-06
7.41013e-06
6.6313e-06
5.87995e-06
2.00047e-05
1.981e-05
1.95451e-05
1.93248e-05
1.91309e-05
1.89489e-05
1.88062e-05
1.86801e-05
1.85512e-05
1.84224e-05
1.82956e-05
1.81731e-05
1.80524e-05
1.79352e-05
1.782e-05
1.77087e-05
1.75985e-05
1.74944e-05
1.73901e-05
1.7291e-05
1.71933e-05
1.71013e-05
1.70075e-05
1.69187e-05
1.68273e-05
1.67396e-05
1.66485e-05
1.65609e-05
1.64679e-05
1.63778e-05
1.628e-05
1.6181e-05
1.60697e-05
1.59553e-05
1.58232e-05
1.56848e-05
1.55239e-05
1.5353e-05
1.51561e-05
1.49445e-05
1.47016e-05
1.44418e-05
1.41452e-05
1.38303e-05
1.34728e-05
1.31002e-05
1.26781e-05
1.22378e-05
1.17472e-05
1.12343e-05
2.0003e-05
1.98192e-05
1.95236e-05
1.93111e-05
1.91135e-05
1.89278e-05
1.87759e-05
1.86475e-05
1.85144e-05
1.83835e-05
1.82515e-05
1.81267e-05
1.80012e-05
1.78817e-05
1.77619e-05
1.76483e-05
1.75337e-05
1.74275e-05
1.73191e-05
1.72174e-05
1.71151e-05
1.70204e-05
1.69229e-05
1.6833e-05
1.67399e-05
1.66559e-05
1.65696e-05
1.6489e-05
1.64039e-05
1.63269e-05
1.62454e-05
1.61682e-05
1.60844e-05
1.60087e-05
1.59246e-05
1.5848e-05
1.57602e-05
1.56781e-05
1.55842e-05
1.54921e-05
1.53853e-05
1.52788e-05
1.51541e-05
1.50265e-05
1.48776e-05
1.4724e-05
1.45462e-05
1.43582e-05
1.4142e-05
1.39146e-05
2.00018e-05
1.98278e-05
1.9504e-05
1.92965e-05
1.90958e-05
1.89081e-05
1.87472e-05
1.86159e-05
1.84793e-05
1.83463e-05
1.82099e-05
1.80823e-05
1.79529e-05
1.78305e-05
1.77069e-05
1.75904e-05
1.74721e-05
1.73632e-05
1.72514e-05
1.71467e-05
1.70412e-05
1.69436e-05
1.68424e-05
1.67494e-05
1.66526e-05
1.65644e-05
1.6474e-05
1.63898e-05
1.63016e-05
1.62226e-05
1.61411e-05
1.6066e-05
1.59879e-05
1.59181e-05
1.58421e-05
1.57754e-05
1.57015e-05
1.56357e-05
1.55637e-05
1.54956e-05
1.54224e-05
1.53558e-05
1.52826e-05
1.52126e-05
1.51359e-05
1.50613e-05
1.49786e-05
1.48948e-05
1.47972e-05
1.47063e-05
2.00009e-05
1.98305e-05
1.94879e-05
1.92814e-05
1.90783e-05
1.88901e-05
1.87207e-05
1.85858e-05
1.84466e-05
1.83113e-05
1.81713e-05
1.80408e-05
1.7908e-05
1.77827e-05
1.76558e-05
1.75363e-05
1.74147e-05
1.7303e-05
1.71882e-05
1.70804e-05
1.69722e-05
1.68719e-05
1.67676e-05
1.66718e-05
1.65718e-05
1.64807e-05
1.63867e-05
1.62992e-05
1.62066e-05
1.61247e-05
1.60389e-05
1.5959e-05
1.58759e-05
1.5802e-05
1.57223e-05
1.56531e-05
1.55766e-05
1.55109e-05
1.54411e-05
1.53783e-05
1.53113e-05
1.52518e-05
1.51876e-05
1.51281e-05
1.50652e-05
1.50067e-05
1.49436e-05
1.48828e-05
1.48113e-05
1.47561e-05
2.00003e-05
1.98289e-05
1.94748e-05
1.92655e-05
1.90608e-05
1.88738e-05
1.86966e-05
1.85576e-05
1.84164e-05
1.82791e-05
1.81361e-05
1.80027e-05
1.7867e-05
1.7739e-05
1.76091e-05
1.7487e-05
1.73622e-05
1.7248e-05
1.71304e-05
1.70199e-05
1.69089e-05
1.68064e-05
1.66991e-05
1.66009e-05
1.6498e-05
1.64046e-05
1.63075e-05
1.62174e-05
1.61212e-05
1.6037e-05
1.59474e-05
1.58644e-05
1.57773e-05
1.56998e-05
1.5616e-05
1.55426e-05
1.5462e-05
1.5392e-05
1.53169e-05
1.5249e-05
1.51761e-05
1.51135e-05
1.50444e-05
1.49832e-05
1.49166e-05
1.48585e-05
1.47963e-05
1.47402e-05
1.46751e-05
1.46274e-05
2e-05
1.98272e-05
1.94638e-05
1.92479e-05
1.90426e-05
1.88589e-05
1.8675e-05
1.85314e-05
1.83887e-05
1.825e-05
1.81044e-05
1.79686e-05
1.78304e-05
1.77002e-05
1.75675e-05
1.74431e-05
1.73156e-05
1.71992e-05
1.7079e-05
1.69662e-05
1.68525e-05
1.67482e-05
1.66381e-05
1.65378e-05
1.64323e-05
1.63367e-05
1.6237e-05
1.61445e-05
1.60455e-05
1.59592e-05
1.58663e-05
1.5781e-05
1.56907e-05
1.56104e-05
1.55233e-05
1.54468e-05
1.53627e-05
1.52896e-05
1.52102e-05
1.51389e-05
1.50611e-05
1.49949e-05
1.49204e-05
1.48557e-05
1.47832e-05
1.47211e-05
1.46523e-05
1.45905e-05
1.45192e-05
1.44647e-05
1.99999e-05
1.9826e-05
1.94557e-05
1.923e-05
1.90244e-05
1.88456e-05
1.86563e-05
1.85081e-05
1.83639e-05
1.82245e-05
1.80768e-05
1.79392e-05
1.77988e-05
1.76668e-05
1.75317e-05
1.74057e-05
1.72756e-05
1.71574e-05
1.70348e-05
1.69203e-05
1.68041e-05
1.66982e-05
1.65858e-05
1.64835e-05
1.63759e-05
1.62784e-05
1.61761e-05
1.60814e-05
1.59802e-05
1.58919e-05
1.5796e-05
1.57088e-05
1.56157e-05
1.55331e-05
1.5443e-05
1.53641e-05
1.52771e-05
1.52016e-05
1.51187e-05
1.50449e-05
1.49635e-05
1.48943e-05
1.4816e-05
1.47483e-05
1.4671e-05
1.46059e-05
1.45318e-05
1.44659e-05
1.43904e-05
1.43298e-05
1.99999e-05
1.98254e-05
1.94508e-05
1.92128e-05
1.90072e-05
1.88345e-05
1.86414e-05
1.84883e-05
1.83427e-05
1.82032e-05
1.80541e-05
1.79152e-05
1.77729e-05
1.76396e-05
1.75026e-05
1.73753e-05
1.72431e-05
1.71235e-05
1.69989e-05
1.68831e-05
1.67649e-05
1.66575e-05
1.65432e-05
1.64393e-05
1.633e-05
1.62307e-05
1.6126e-05
1.60297e-05
1.59265e-05
1.58361e-05
1.57377e-05
1.56486e-05
1.55533e-05
1.54682e-05
1.53756e-05
1.52946e-05
1.52051e-05
1.51275e-05
1.50415e-05
1.49654e-05
1.48812e-05
1.48094e-05
1.47281e-05
1.46577e-05
1.45771e-05
1.45091e-05
1.44308e-05
1.43618e-05
1.42834e-05
1.42187e-05
1.99999e-05
1.98252e-05
1.94486e-05
1.91973e-05
1.89914e-05
1.88253e-05
1.86305e-05
1.84728e-05
1.83257e-05
1.81868e-05
1.80368e-05
1.78971e-05
1.77535e-05
1.76193e-05
1.74809e-05
1.73527e-05
1.72189e-05
1.70983e-05
1.69721e-05
1.68554e-05
1.67357e-05
1.66272e-05
1.65115e-05
1.64062e-05
1.62956e-05
1.61947e-05
1.60878e-05
1.59903e-05
1.58855e-05
1.57932e-05
1.56925e-05
1.56017e-05
1.55045e-05
1.54171e-05
1.53221e-05
1.52394e-05
1.51475e-05
1.50677e-05
1.49791e-05
1.49009e-05
1.48141e-05
1.474e-05
1.4656e-05
1.45828e-05
1.44998e-05
1.44291e-05
1.43469e-05
1.42754e-05
1.41948e-05
1.41268e-05
1.99999e-05
1.98254e-05
1.94491e-05
1.91843e-05
1.89776e-05
1.88181e-05
1.86239e-05
1.84618e-05
1.83132e-05
1.81753e-05
1.80253e-05
1.78854e-05
1.77409e-05
1.76063e-05
1.7467e-05
1.73384e-05
1.72035e-05
1.70824e-05
1.69551e-05
1.6838e-05
1.67172e-05
1.66079e-05
1.64912e-05
1.63851e-05
1.62734e-05
1.61714e-05
1.60626e-05
1.59645e-05
1.58581e-05
1.57642e-05
1.56615e-05
1.55692e-05
1.54703e-05
1.53809e-05
1.52837e-05
1.51994e-05
1.51054e-05
1.50233e-05
1.49326e-05
1.48524e-05
1.47632e-05
1.4687e-05
1.46003e-05
1.45245e-05
1.44394e-05
1.4366e-05
1.42801e-05
1.42066e-05
1.41238e-05
1.40526e-05
1.99999e-05
1.98261e-05
1.94519e-05
1.91742e-05
1.8966e-05
1.88124e-05
1.86215e-05
1.84556e-05
1.83054e-05
1.81689e-05
1.80197e-05
1.788e-05
1.77354e-05
1.76009e-05
1.74613e-05
1.73328e-05
1.71973e-05
1.70762e-05
1.69483e-05
1.68312e-05
1.671e-05
1.66004e-05
1.64832e-05
1.63767e-05
1.62644e-05
1.61615e-05
1.60513e-05
1.59528e-05
1.58451e-05
1.57499e-05
1.56456e-05
1.55521e-05
1.54516e-05
1.53605e-05
1.52613e-05
1.51757e-05
1.50796e-05
1.49955e-05
1.49029e-05
1.48208e-05
1.47292e-05
1.46513e-05
1.4562e-05
1.44836e-05
1.43965e-05
1.43206e-05
1.42313e-05
1.4156e-05
1.40707e-05
1.39962e-05
1.99999e-05
1.98274e-05
1.94572e-05
1.9168e-05
1.8957e-05
1.88085e-05
1.86229e-05
1.84544e-05
1.83026e-05
1.81677e-05
1.80202e-05
1.78813e-05
1.7737e-05
1.7603e-05
1.74636e-05
1.73356e-05
1.72002e-05
1.70793e-05
1.69514e-05
1.68346e-05
1.67133e-05
1.66039e-05
1.64866e-05
1.638e-05
1.62674e-05
1.61643e-05
1.60533e-05
1.59546e-05
1.58461e-05
1.57502e-05
1.56448e-05
1.55506e-05
1.54486e-05
1.53564e-05
1.52555e-05
1.51688e-05
1.50708e-05
1.49849e-05
1.48905e-05
1.48068e-05
1.47129e-05
1.46334e-05
1.45414e-05
1.4461e-05
1.43717e-05
1.42933e-05
1.42011e-05
1.41242e-05
1.40359e-05
1.39584e-05
1.99999e-05
1.98291e-05
1.94647e-05
1.91654e-05
1.8951e-05
1.88059e-05
1.8628e-05
1.84577e-05
1.83044e-05
1.8171e-05
1.80255e-05
1.7888e-05
1.77444e-05
1.76115e-05
1.74726e-05
1.73457e-05
1.72107e-05
1.70906e-05
1.69631e-05
1.68473e-05
1.67263e-05
1.66177e-05
1.65006e-05
1.63945e-05
1.62819e-05
1.61788e-05
1.60673e-05
1.59686e-05
1.58595e-05
1.57628e-05
1.56564e-05
1.55616e-05
1.54585e-05
1.53654e-05
1.52633e-05
1.51756e-05
1.50763e-05
1.49891e-05
1.48934e-05
1.48084e-05
1.4713e-05
1.46323e-05
1.4538e-05
1.44561e-05
1.43647e-05
1.42841e-05
1.41897e-05
1.41109e-05
1.40194e-05
1.39395e-05
1.99999e-05
1.98313e-05
1.9474e-05
1.91667e-05
1.89481e-05
1.88049e-05
1.86359e-05
1.84658e-05
1.8311e-05
1.81789e-05
1.80364e-05
1.79008e-05
1.77584e-05
1.76272e-05
1.74893e-05
1.7364e-05
1.72302e-05
1.71111e-05
1.69847e-05
1.68704e-05
1.67502e-05
1.66429e-05
1.65266e-05
1.64215e-05
1.63093e-05
1.6207e-05
1.60957e-05
1.59973e-05
1.58881e-05
1.57912e-05
1.56842e-05
1.5589e-05
1.54849e-05
1.53909e-05
1.52878e-05
1.51989e-05
1.50979e-05
1.50093e-05
1.49121e-05
1.48256e-05
1.47283e-05
1.46459e-05
1.45495e-05
1.4466e-05
1.43725e-05
1.42902e-05
1.4194e-05
1.41136e-05
1.40198e-05
1.39385e-05
1.99999e-05
1.98341e-05
1.94851e-05
1.91718e-05
1.89485e-05
1.88055e-05
1.86463e-05
1.84779e-05
1.83221e-05
1.81911e-05
1.80518e-05
1.79187e-05
1.77779e-05
1.76488e-05
1.75122e-05
1.73888e-05
1.72565e-05
1.7139e-05
1.7014e-05
1.69016e-05
1.67825e-05
1.6677e-05
1.65619e-05
1.64583e-05
1.63468e-05
1.62457e-05
1.61349e-05
1.60371e-05
1.59284e-05
1.58317e-05
1.57246e-05
1.56295e-05
1.5525e-05
1.54306e-05
1.5327e-05
1.52374e-05
1.51355e-05
1.50462e-05
1.49479e-05
1.48605e-05
1.47619e-05
1.46781e-05
1.45798e-05
1.44948e-05
1.43989e-05
1.43148e-05
1.42164e-05
1.41338e-05
1.40373e-05
1.39544e-05
1.99999e-05
1.98373e-05
1.94971e-05
1.91809e-05
1.89523e-05
1.88081e-05
1.86585e-05
1.84935e-05
1.83372e-05
1.8207e-05
1.80709e-05
1.79409e-05
1.7802e-05
1.76753e-05
1.75403e-05
1.74191e-05
1.72887e-05
1.7173e-05
1.70499e-05
1.69397e-05
1.68221e-05
1.67188e-05
1.66052e-05
1.65035e-05
1.6393e-05
1.62937e-05
1.61838e-05
1.60868e-05
1.59788e-05
1.58826e-05
1.57758e-05
1.56808e-05
1.55763e-05
1.54818e-05
1.53781e-05
1.52878e-05
1.51854e-05
1.50956e-05
1.49963e-05
1.49082e-05
1.48086e-05
1.47238e-05
1.46242e-05
1.45381e-05
1.44405e-05
1.43555e-05
1.42555e-05
1.41715e-05
1.40735e-05
1.39896e-05
1.99999e-05
1.98409e-05
1.951e-05
1.91932e-05
1.89596e-05
1.88132e-05
1.86723e-05
1.85126e-05
1.8356e-05
1.82266e-05
1.80934e-05
1.79669e-05
1.78302e-05
1.77061e-05
1.7573e-05
1.74539e-05
1.73258e-05
1.72122e-05
1.70911e-05
1.69835e-05
1.68677e-05
1.67667e-05
1.66551e-05
1.65555e-05
1.64465e-05
1.63491e-05
1.62405e-05
1.61447e-05
1.60376e-05
1.59422e-05
1.58361e-05
1.57415e-05
1.56372e-05
1.55429e-05
1.54391e-05
1.53485e-05
1.52458e-05
1.51557e-05
1.50557e-05
1.49672e-05
1.48666e-05
1.47809e-05
1.46803e-05
1.45931e-05
1.44943e-05
1.44084e-05
1.43067e-05
1.42219e-05
1.41229e-05
1.40374e-05
1.99999e-05
1.98447e-05
1.95234e-05
1.92082e-05
1.89701e-05
1.88209e-05
1.8687e-05
1.85341e-05
1.8378e-05
1.82492e-05
1.81186e-05
1.79959e-05
1.78617e-05
1.77402e-05
1.76093e-05
1.74925e-05
1.73666e-05
1.72555e-05
1.71364e-05
1.70317e-05
1.6918e-05
1.68194e-05
1.67101e-05
1.6613e-05
1.65056e-05
1.64104e-05
1.63034e-05
1.62089e-05
1.61031e-05
1.60088e-05
1.59037e-05
1.58095e-05
1.57057e-05
1.56119e-05
1.55081e-05
1.54174e-05
1.53147e-05
1.52244e-05
1.5124e-05
1.50353e-05
1.49338e-05
1.48476e-05
1.47462e-05
1.4658e-05
1.45581e-05
1.44716e-05
1.43685e-05
1.42835e-05
1.41834e-05
1.40963e-05
1.99999e-05
1.98488e-05
1.9537e-05
1.92255e-05
1.89839e-05
1.88313e-05
1.87026e-05
1.85574e-05
1.84026e-05
1.82746e-05
1.81462e-05
1.80272e-05
1.78958e-05
1.77769e-05
1.76484e-05
1.75338e-05
1.74103e-05
1.73018e-05
1.71848e-05
1.7083e-05
1.69717e-05
1.68757e-05
1.67688e-05
1.66744e-05
1.65689e-05
1.64759e-05
1.63709e-05
1.62779e-05
1.61735e-05
1.60804e-05
1.59766e-05
1.58831e-05
1.57798e-05
1.56868e-05
1.55831e-05
1.54926e-05
1.53899e-05
1.52998e-05
1.5199e-05
1.51102e-05
1.50082e-05
1.49214e-05
1.48196e-05
1.47307e-05
1.46299e-05
1.45429e-05
1.44388e-05
1.43537e-05
1.42528e-05
1.41646e-05
1.99999e-05
1.9853e-05
1.95507e-05
1.92446e-05
1.90006e-05
1.88444e-05
1.8719e-05
1.8582e-05
1.84296e-05
1.83021e-05
1.81758e-05
1.80603e-05
1.79321e-05
1.78155e-05
1.76895e-05
1.75772e-05
1.74559e-05
1.73501e-05
1.72354e-05
1.71363e-05
1.70276e-05
1.69342e-05
1.68298e-05
1.67382e-05
1.6635e-05
1.65441e-05
1.64413e-05
1.63499e-05
1.62472e-05
1.61554e-05
1.6053e-05
1.59605e-05
1.58576e-05
1.57657e-05
1.56622e-05
1.55721e-05
1.54695e-05
1.53797e-05
1.52786e-05
1.519e-05
1.50875e-05
1.50003e-05
1.48982e-05
1.48088e-05
1.47071e-05
1.46201e-05
1.45154e-05
1.44301e-05
1.43288e-05
1.42404e-05
1.99999e-05
1.98573e-05
1.95644e-05
1.92652e-05
1.902e-05
1.88601e-05
1.87364e-05
1.86073e-05
1.84584e-05
1.83316e-05
1.8207e-05
1.80947e-05
1.79698e-05
1.78557e-05
1.77319e-05
1.7622e-05
1.75028e-05
1.73995e-05
1.72871e-05
1.71907e-05
1.70845e-05
1.6994e-05
1.68921e-05
1.68034e-05
1.67025e-05
1.66139e-05
1.65132e-05
1.64238e-05
1.63227e-05
1.62325e-05
1.61312e-05
1.60401e-05
1.59375e-05
1.58467e-05
1.57438e-05
1.56539e-05
1.55516e-05
1.54622e-05
1.5361e-05
1.52726e-05
1.51699e-05
1.50822e-05
1.49799e-05
1.48906e-05
1.47877e-05
1.47009e-05
1.45961e-05
1.45103e-05
1.44096e-05
1.43216e-05
1.99999e-05
1.98616e-05
1.95781e-05
1.92866e-05
1.90416e-05
1.88783e-05
1.87549e-05
1.86328e-05
1.84885e-05
1.83627e-05
1.82396e-05
1.81301e-05
1.80085e-05
1.78969e-05
1.77752e-05
1.76676e-05
1.75503e-05
1.74494e-05
1.73391e-05
1.72454e-05
1.71417e-05
1.70541e-05
1.69547e-05
1.68688e-05
1.67703e-05
1.66841e-05
1.65854e-05
1.64982e-05
1.63986e-05
1.63102e-05
1.621e-05
1.61205e-05
1.60184e-05
1.59284e-05
1.58262e-05
1.57365e-05
1.56348e-05
1.55457e-05
1.54444e-05
1.53561e-05
1.52536e-05
1.51653e-05
1.50629e-05
1.49739e-05
1.48701e-05
1.47834e-05
1.46793e-05
1.45924e-05
1.44929e-05
1.44062e-05
1.99999e-05
1.98659e-05
1.95916e-05
1.93086e-05
1.9065e-05
1.88986e-05
1.87744e-05
1.86584e-05
1.85194e-05
1.83951e-05
1.82733e-05
1.81663e-05
1.80477e-05
1.79387e-05
1.7819e-05
1.77134e-05
1.7598e-05
1.74991e-05
1.73909e-05
1.72998e-05
1.71985e-05
1.71136e-05
1.70168e-05
1.69337e-05
1.68375e-05
1.67537e-05
1.6657e-05
1.6572e-05
1.64741e-05
1.63874e-05
1.62884e-05
1.62001e-05
1.60991e-05
1.60095e-05
1.59082e-05
1.58188e-05
1.57174e-05
1.56288e-05
1.55274e-05
1.54393e-05
1.53371e-05
1.52484e-05
1.51457e-05
1.50569e-05
1.4953e-05
1.48657e-05
1.47629e-05
1.46756e-05
1.45765e-05
1.44925e-05
1.99999e-05
1.98702e-05
1.96049e-05
1.93309e-05
1.90898e-05
1.89209e-05
1.87952e-05
1.8684e-05
1.85507e-05
1.84284e-05
1.83079e-05
1.8203e-05
1.80874e-05
1.79807e-05
1.7863e-05
1.77591e-05
1.76454e-05
1.75483e-05
1.7442e-05
1.73533e-05
1.72543e-05
1.7172e-05
1.70777e-05
1.69973e-05
1.69035e-05
1.6822e-05
1.67274e-05
1.66443e-05
1.65482e-05
1.64632e-05
1.63654e-05
1.62782e-05
1.61783e-05
1.60892e-05
1.59884e-05
1.58996e-05
1.57986e-05
1.57103e-05
1.5609e-05
1.5521e-05
1.54189e-05
1.53301e-05
1.52272e-05
1.51385e-05
1.50348e-05
1.49472e-05
1.48449e-05
1.47591e-05
1.46588e-05
1.45787e-05
1.99999e-05
1.98744e-05
1.96179e-05
1.93532e-05
1.91156e-05
1.89447e-05
1.88171e-05
1.87094e-05
1.85819e-05
1.84624e-05
1.83432e-05
1.82401e-05
1.81272e-05
1.80229e-05
1.7907e-05
1.78045e-05
1.76923e-05
1.75968e-05
1.74921e-05
1.74055e-05
1.73087e-05
1.72289e-05
1.7137e-05
1.70593e-05
1.69677e-05
1.68886e-05
1.67959e-05
1.67148e-05
1.66204e-05
1.6537e-05
1.64405e-05
1.63542e-05
1.62553e-05
1.61668e-05
1.60665e-05
1.5978e-05
1.58776e-05
1.57893e-05
1.56883e-05
1.56003e-05
1.54982e-05
1.54095e-05
1.53064e-05
1.52179e-05
1.51144e-05
1.50268e-05
1.4925e-05
1.48405e-05
1.4741e-05
1.46618e-05
1.99999e-05
1.98784e-05
1.96306e-05
1.93752e-05
1.9142e-05
1.89699e-05
1.88403e-05
1.8735e-05
1.8613e-05
1.84968e-05
1.83792e-05
1.82777e-05
1.81672e-05
1.80652e-05
1.79509e-05
1.78496e-05
1.77387e-05
1.76444e-05
1.75411e-05
1.74564e-05
1.73616e-05
1.72841e-05
1.71945e-05
1.71193e-05
1.703e-05
1.6953e-05
1.68623e-05
1.67829e-05
1.66903e-05
1.66084e-05
1.65131e-05
1.64277e-05
1.63297e-05
1.62419e-05
1.61419e-05
1.60536e-05
1.59537e-05
1.58655e-05
1.57648e-05
1.56766e-05
1.55746e-05
1.5486e-05
1.53828e-05
1.52946e-05
1.51912e-05
1.51041e-05
1.50028e-05
1.49193e-05
1.48215e-05
1.47435e-05
1.99999e-05
1.98824e-05
1.9643e-05
1.93967e-05
1.91688e-05
1.89962e-05
1.88646e-05
1.87609e-05
1.86439e-05
1.85313e-05
1.84158e-05
1.83157e-05
1.82073e-05
1.81074e-05
1.79948e-05
1.78943e-05
1.77843e-05
1.7691e-05
1.75889e-05
1.75057e-05
1.74128e-05
1.73375e-05
1.72501e-05
1.71773e-05
1.70901e-05
1.70152e-05
1.69262e-05
1.68487e-05
1.67577e-05
1.66774e-05
1.65831e-05
1.64986e-05
1.64012e-05
1.6314e-05
1.62144e-05
1.61263e-05
1.60266e-05
1.59386e-05
1.58381e-05
1.57497e-05
1.5648e-05
1.55592e-05
1.54563e-05
1.5368e-05
1.5265e-05
1.51785e-05
1.50778e-05
1.49957e-05
1.48994e-05
1.48234e-05
1.99999e-05
1.98863e-05
1.96551e-05
1.94177e-05
1.91955e-05
1.90235e-05
1.889e-05
1.8787e-05
1.86746e-05
1.85658e-05
1.84527e-05
1.83542e-05
1.82477e-05
1.81496e-05
1.80386e-05
1.79387e-05
1.78294e-05
1.77368e-05
1.76356e-05
1.75535e-05
1.74624e-05
1.73891e-05
1.73038e-05
1.72331e-05
1.71479e-05
1.70751e-05
1.69879e-05
1.6912e-05
1.68227e-05
1.67437e-05
1.66505e-05
1.65666e-05
1.64699e-05
1.63832e-05
1.62839e-05
1.61959e-05
1.60963e-05
1.60085e-05
1.5908e-05
1.58197e-05
1.5718e-05
1.56291e-05
1.55265e-05
1.54382e-05
1.5336e-05
1.52499e-05
1.51502e-05
1.50694e-05
1.4975e-05
1.49013e-05
1.99999e-05
1.989e-05
1.96668e-05
1.94381e-05
1.9222e-05
1.90512e-05
1.89164e-05
1.88134e-05
1.87051e-05
1.86002e-05
1.849e-05
1.83931e-05
1.82885e-05
1.81919e-05
1.80822e-05
1.79829e-05
1.78741e-05
1.77816e-05