/*--------------------------------*- C++ -*----------------------------------*\
  =========                 |
  \\      /  F ield         | OpenFOAM: The Open Source CFD Toolbox
   \\    /   O peration     | Website:  https://openfoam.org
    \\  /    A nd           | Version:  7
     \\/     M anipulation  |
\*---------------------------------------------------------------------------*/
FoamFile
{
    version     2.0;
    format      ascii;
    class       volScalarField;
    location    "0.05";
    object      p;
}
// * * * * * * * * * * * * * * * * * * * * * * * * * * * * * * * * * * * * * //

dimensions      [0 2 -2 0 0 0 0];

internalField   nonuniform List<scalar> 
70000
(
0.102194
0.0253103
0.0121758
0.0146432
0.0149231
0.0138991
0.0129659
0.0122648
0.0116871
0.011183
0.0107388
0.0103468
0.00999957
0.00969073
0.00941502
0.0091682
0.00894688
0.00874832
0.00857031
0.00841106
0.00826909
0.00814322
0.00803248
0.00793609
0.00785345
0.00778406
0.00772758
0.00768372
0.00765235
0.00763336
0.00762676
0.00763253
0.00765088
0.00768176
0.00772556
0.00778215
0.00785206
0.00793504
0.00803147
0.00814148
0.00826385
0.00840153
0.0085464
0.00871326
0.00886965
0.00907174
0.00920642
0.00947086
0.00947903
0.00988547
0.0978935
0.0256722
0.0123783
0.0147378
0.0149775
0.0139349
0.0129939
0.012288
0.0117066
0.0111996
0.0107533
0.0103596
0.0100111
0.00970112
0.00942448
0.00917689
0.0089549
0.00875577
0.00857727
0.00841758
0.00827524
0.00814903
0.00803799
0.00794134
0.00785847
0.00778887
0.0077322
0.00768818
0.00765666
0.00763754
0.00763083
0.0076365
0.00765476
0.00768557
0.00772931
0.00778586
0.00785573
0.0079387
0.00803512
0.00814514
0.00826751
0.00840525
0.00855014
0.0087171
0.0088735
0.00907575
0.00921048
0.00947434
0.00948701
0.0099259
0.0942881
0.0265945
0.0127228
0.0148664
0.0150522
0.0139799
0.0130263
0.0123142
0.0117285
0.0112182
0.0107693
0.0103737
0.0100236
0.00971241
0.00943474
0.00918627
0.00896355
0.00876379
0.00858474
0.00842457
0.0082818
0.00815522
0.00804386
0.00794692
0.00786378
0.00779395
0.00773707
0.00769286
0.00766118
0.0076419
0.00763506
0.00764062
0.00765877
0.00768949
0.00773316
0.00778964
0.00785947
0.0079424
0.0080388
0.00814882
0.00827119
0.00840897
0.00855387
0.00872098
0.00887735
0.00907992
0.00921479
0.00947803
0.00950639
0.00996328
0.0911832
0.0276934
0.0131991
0.0150389
0.0151533
0.0140378
0.0130644
0.0123441
0.0117531
0.0112387
0.0107868
0.0103889
0.010037
0.00972437
0.00944553
0.0091961
0.00897256
0.0087721
0.00859245
0.00843176
0.00828853
0.00816155
0.00804983
0.00795257
0.00786914
0.00779905
0.00774194
0.00769752
0.00766565
0.0076462
0.0076392
0.00764461
0.00766264
0.00769325
0.00773681
0.0077932
0.00786295
0.00794581
0.00804216
0.00815215
0.00827449
0.00841229
0.0085572
0.00872439
0.00888089
0.00908353
0.00921952
0.00948083
0.00953633
0.00999726
0.0882268
0.028787
0.0137723
0.0152568
0.0152877
0.014116
0.0131133
0.012381
0.0117829
0.0112632
0.0108073
0.0104064
0.0100523
0.00973787
0.0094576
0.00920698
0.00898246
0.00878116
0.0086008
0.00843949
0.00829572
0.00816827
0.00805612
0.00795849
0.00787472
0.00780433
0.00774694
0.00770227
0.00767016
0.0076505
0.0076433
0.00764853
0.00766638
0.00769683
0.00774024
0.0077965
0.00786611
0.00794886
0.0080451
0.008155
0.00827727
0.00841502
0.00855995
0.00872711
0.00888393
0.0090863
0.00922474
0.00948276
0.00957415
0.0100342
0.0853194
0.0298188
0.0143958
0.015501
0.0154495
0.0142162
0.0131755
0.012427
0.01182
0.0112935
0.0108323
0.0104275
0.0100705
0.00975382
0.00947172
0.0092196
0.00899384
0.0087915
0.00861024
0.00844817
0.00830373
0.00817569
0.00806302
0.00796492
0.00788073
0.00780996
0.00775221
0.00770722
0.00767481
0.00765487
0.0076474
0.00765238
0.00766999
0.00770021
0.0077434
0.00779945
0.00786885
0.00795141
0.00804746
0.00815719
0.0082793
0.00841691
0.0085618
0.00872882
0.00888611
0.00908785
0.00923024
0.00948406
0.00961672
0.0100751
0.0824538
0.0307717
0.0150364
0.0157501
0.0156254
0.0143337
0.0132501
0.0124821
0.0118646
0.01133
0.0108626
0.010453
0.0100924
0.00977288
0.0094885
0.00923452
0.0090072
0.00880355
0.00862118
0.00845814
0.00831287
0.00818409
0.00807077
0.00797207
0.00788736
0.00781609
0.0077579
0.00771249
0.00767969
0.00765937
0.00765155
0.00765618
0.00767346
0.00770335
0.00774622
0.00780195
0.00787104
0.00795329
0.00804902
0.00815846
0.00828029
0.00841764
0.00856238
0.00872911
0.008887
0.00908774
0.00923554
0.00948487
0.00966084
0.0101178
0.0796391
0.0316393
0.0156777
0.0159925
0.0158047
0.0144618
0.0133336
0.0125444
0.0119157
0.0113724
0.0108978
0.0104829
0.0101181
0.0097953
0.00950824
0.00925204
0.00902286
0.00881764
0.00863392
0.00846971
0.00832342
0.00819373
0.00807959
0.00798017
0.00789478
0.00782291
0.00776414
0.00771819
0.00768488
0.00766408
0.00765578
0.00765996
0.00767678
0.00770623
0.00774864
0.00780392
0.00787254
0.00795435
0.00804959
0.0081586
0.00827995
0.00841688
0.00856134
0.00872755
0.00888618
0.00908552
0.00924008
0.00948518
0.00970335
0.01016
0.0768819
0.032419
0.0163145
0.0162243
0.0159811
0.0145958
0.0134227
0.0126111
0.0119711
0.0114191
0.0109372
0.0105165
0.0101472
0.00982085
0.00953082
0.00927214
0.00904087
0.00883385
0.00864857
0.00848301
0.00833551
0.00820475
0.00808965
0.00798935
0.00790315
0.00783052
0.00777106
0.00772444
0.00769049
0.00766907
0.00766017
0.00766375
0.00767997
0.00770882
0.00775062
0.0078053
0.00787327
0.00795446
0.00804902
0.00815739
0.00827807
0.00841434
0.00855835
0.00872377
0.00888322
0.00908079
0.00924316
0.0094848
0.00974131
0.010199
0.0741856
0.03311
0.0169451
0.0164454
0.0161517
0.0147329
0.0135154
0.0126805
0.0120292
0.0114686
0.0109794
0.0105529
0.010179
0.00984891
0.00955579
0.00929449
0.00906096
0.008852
0.00866503
0.00849796
0.00834913
0.00821716
0.00810096
0.00799965
0.00791252
0.00783901
0.00777871
0.0077313
0.00769658
0.0076744
0.00766475
0.00766759
0.00768306
0.00771116
0.00775217
0.00780606
0.0078732
0.00795355
0.00804721
0.00815472
0.00827447
0.00840984
0.00855318
0.00871749
0.00887781
0.0090733
0.00924404
0.00948337
0.00977231
0.010232
0.0715534
0.0337127
0.0175687
0.0166568
0.0163151
0.0148715
0.0136107
0.0127514
0.0120888
0.0115198
0.0110234
0.0105911
0.0102126
0.00987878
0.00958252
0.00931855
0.00908272
0.00887175
0.008683
0.00851435
0.00836408
0.00823081
0.00811342
0.008011
0.00792283
0.00784833
0.00778709
0.00773876
0.00770314
0.00768008
0.00766955
0.0076715
0.00768607
0.00771325
0.0077533
0.00780622
0.0078723
0.00795161
0.00804412
0.00815052
0.00826909
0.00840325
0.00854571
0.00870854
0.0088697
0.00906291
0.00924206
0.00948039
0.00979465
0.0102563
0.0689883
0.0342274
0.0181837
0.0168596
0.0164705
0.0150108
0.0137082
0.0128233
0.0121493
0.0115721
0.0110686
0.0106305
0.0102474
0.00990985
0.00961048
0.00934383
0.00910568
0.00889267
0.00870211
0.00853184
0.0083801
0.00824548
0.00812683
0.00802323
0.00793394
0.00785838
0.00779609
0.00774676
0.00771014
0.00768609
0.00767455
0.00767549
0.007689
0.00771511
0.00775403
0.00780579
0.00787062
0.00794867
0.0080398
0.00814482
0.00826195
0.00839459
0.00853593
0.00869694
0.00885881
0.00904965
0.00923669
0.00947526
0.00980738
0.0102698
0.0664931
0.0346549
0.0187878
0.0170554
0.0166172
0.0151499
0.0138077
0.0128962
0.0122103
0.0116252
0.0111147
0.0106707
0.010283
0.00994175
0.00963926
0.00936995
0.00912948
0.00891442
0.00872205
0.00855013
0.00839689
0.00826089
0.00814095
0.00803613
0.00794567
0.00786898
0.0078056
0.00775518
0.00771749
0.00769235
0.00767971
0.00767951
0.00769185
0.00771675
0.00775438
0.00780481
0.00786822
0.0079448
0.00803433
0.00813772
0.00825317
0.00838398
0.00852398
0.00868282
0.00884517
0.00903367
0.00922761
0.00946737
0.00981031
0.0102712
0.0640704
0.034996
0.0193783
0.0172454
0.0167546
0.015288
0.0139091
0.0129699
0.0122717
0.0116789
0.0111613
0.0107116
0.0103193
0.00997427
0.00966866
0.00939667
0.00915387
0.00893677
0.00874256
0.008569
0.00841425
0.00827684
0.00815559
0.00804952
0.00795786
0.00788
0.00781548
0.00776392
0.00772508
0.00769878
0.00768495
0.00768353
0.0076946
0.00771816
0.00775438
0.00780334
0.00786515
0.00794008
0.00802783
0.00812935
0.00824291
0.0083716
0.00851002
0.00866643
0.00882895
0.00901521
0.00921473
0.0094562
0.00980381
0.0102602
0.0617225
0.0352522
0.019952
0.0174313
0.0168825
0.0154241
0.0140124
0.0130446
0.0123335
0.011733
0.0112086
0.010753
0.0103561
0.0100073
0.00969854
0.00942386
0.00917873
0.00895956
0.00876351
0.00858828
0.008432
0.00829318
0.00817059
0.00806325
0.00797036
0.00789131
0.0078256
0.00777285
0.00773282
0.0077053
0.00769022
0.00768751
0.00769721
0.00771935
0.00775404
0.0078014
0.00786148
0.0079346
0.0080204
0.00811985
0.00823135
0.00835767
0.00849431
0.00864807
0.00881037
0.00899452
0.00919813
0.00944136
0.00978866
0.0102374
0.0594513
0.0354251
0.0205059
0.0176145
0.0170007
0.0155573
0.0141171
0.0131201
0.0123956
0.0117876
0.0112565
0.010795
0.0103933
0.0100408
0.00972887
0.00945148
0.00920398
0.00898273
0.00878482
0.0086079
0.00845008
0.00830982
0.00818587
0.00807723
0.00798309
0.0079028
0.00783587
0.00778191
0.00774064
0.00771186
0.00769547
0.0076914
0.00769966
0.0077203
0.00775338
0.00779903
0.00785728
0.00792844
0.00801216
0.00810938
0.00821864
0.0083424
0.00847704
0.00862802
0.00878968
0.00897184
0.00917803
0.00942263
0.00976582
0.0102037
0.0572586
0.0355171
0.0210366
0.0177964
0.0171092
0.0156865
0.0142231
0.0131966
0.0124579
0.0118424
0.0113048
0.0108375
0.0104311
0.0100747
0.00975962
0.00947949
0.0092296
0.00900625
0.00880645
0.00862782
0.00846843
0.0083267
0.00820137
0.00809141
0.00799598
0.00791444
0.00784626
0.00779104
0.0077485
0.00771841
0.00770066
0.00769517
0.00770194
0.007721
0.00775239
0.00779625
0.00785256
0.00792167
0.0080032
0.00809804
0.00820493
0.00832598
0.00845843
0.00860653
0.00876711
0.00894733
0.00915468
0.00939991
0.00973626
0.0101608
0.0551454
0.0355306
0.0215413
0.0179781
0.0172082
0.0158107
0.01433
0.0132741
0.0125203
0.0118976
0.0113536
0.0108804
0.0104693
0.0101091
0.00979076
0.00950788
0.00925558
0.00903009
0.00882839
0.00864802
0.00848703
0.00834381
0.00821707
0.00810575
0.00800902
0.00792619
0.00785672
0.00780021
0.00775635
0.00772491
0.00770576
0.0076988
0.00770402
0.00772143
0.00775107
0.00779306
0.00784736
0.0079143
0.00799355
0.00808589
0.00819031
0.00830852
0.00843859
0.00858376
0.00874283
0.00892109
0.00912831
0.00937317
0.00970086
0.01011
0.0531126
0.0354691
0.0220167
0.0181602
0.0172981
0.0159289
0.0144372
0.0133525
0.0125829
0.0119528
0.0114028
0.0109239
0.0105079
0.0101438
0.00982229
0.00953663
0.0092819
0.00905425
0.00885061
0.00866848
0.00850586
0.00836112
0.00823294
0.00812025
0.00802217
0.00793802
0.00786724
0.0078094
0.00776418
0.00773135
0.00771074
0.00770227
0.00770588
0.0077216
0.00774941
0.00778946
0.00784167
0.00790637
0.00798325
0.00807299
0.00817481
0.00829009
0.0084176
0.00855977
0.00871693
0.00889311
0.00909909
0.00934248
0.00966031
0.0100526
0.0511605
0.0353361
0.0224599
0.0183432
0.0173795
0.0160403
0.0145442
0.0134318
0.0126455
0.0120081
0.0114523
0.0109677
0.0105469
0.0101789
0.00985418
0.00956573
0.00930854
0.00907871
0.00887311
0.00868919
0.00852492
0.00837864
0.00824899
0.00813488
0.00803543
0.00794992
0.00787779
0.00781858
0.00777197
0.0077377
0.0077156
0.00770555
0.00770751
0.00772146
0.0077474
0.00778543
0.00783549
0.00789785
0.00797227
0.00805932
0.00815844
0.0082707
0.00839547
0.0085346
0.00868945
0.00886335
0.00906712
0.00930787
0.00961508
0.00998979
0.049289
0.0351357
0.0228682
0.0185272
0.017453
0.016144
0.0146503
0.013512
0.0127082
0.0120634
0.0115021
0.0110119
0.0105863
0.0102144
0.00988642
0.00959516
0.0093355
0.00910347
0.00889588
0.00871015
0.0085442
0.00839634
0.0082652
0.00814965
0.00804879
0.00796189
0.00788836
0.00782775
0.0077797
0.00774395
0.0077203
0.00770864
0.00770888
0.00772101
0.007745
0.00778095
0.00782878
0.00788873
0.00796061
0.00804489
0.00814118
0.00825034
0.00837221
0.0085082
0.00866037
0.0088317
0.00903243
0.00926941
0.00956553
0.00992221
0.0474976
0.0348726
0.023239
0.0187119
0.0175195
0.0162394
0.0147548
0.0135929
0.0127709
0.0121184
0.011552
0.0110565
0.010626
0.0102502
0.00991898
0.00962491
0.00936276
0.00912851
0.00891891
0.00873134
0.00856369
0.00841423
0.00828155
0.00816453
0.00806223
0.0079739
0.00789895
0.00783689
0.00778736
0.00775008
0.00772484
0.0077115
0.00770997
0.00772022
0.00774221
0.00777599
0.00782152
0.00787898
0.00794823
0.00802964
0.00812301
0.00822898
0.00834776
0.0084805
0.00862967
0.00879806
0.00899503
0.00922717
0.00951188
0.00985046
0.0457854
0.0345517
0.0235698
0.0188965
0.0175799
0.016326
0.0148569
0.0136744
0.0128337
0.0121732
0.0116019
0.0111013
0.0106661
0.0102863
0.00995183
0.00965494
0.0093903
0.00915381
0.00894218
0.00875275
0.00858337
0.00843228
0.00829805
0.00817952
0.00807574
0.00798595
0.00790953
0.00784599
0.00779493
0.00775608
0.00772919
0.00771413
0.00771077
0.00771907
0.00773898
0.00777054
0.00781368
0.00786857
0.00793509
0.00801355
0.00810387
0.00820656
0.00832207
0.00845143
0.00859725
0.0087623
0.00895485
0.00918119
0.00945425
0.0097749
0.0441512
0.0341782
0.0238586
0.01908
0.0176352
0.0164035
0.0149558
0.0137561
0.0128965
0.0122277
0.0116517
0.0111463
0.0107064
0.0103227
0.00998495
0.00968525
0.00941811
0.00917936
0.00896569
0.00877437
0.00860324
0.00845048
0.00831467
0.0081946
0.00808931
0.00799802
0.0079201
0.00785502
0.0078024
0.00776192
0.00773334
0.00771649
0.00771124
0.00771753
0.00773529
0.00776454
0.00780523
0.00785745
0.00792116
0.00799657
0.00808372
0.00818302
0.00829509
0.00842089
0.00856304
0.0087243
0.00891185
0.00913151
0.00939274
0.00969575
0.0425933
0.0337575
0.0241039
0.0192608
0.0176865
0.0164718
0.0150505
0.0138378
0.0129593
0.0122817
0.0117013
0.0111914
0.0107469
0.0103593
0.0100183
0.0097158
0.00944615
0.00920514
0.0089894
0.00879619
0.00862327
0.00846883
0.0083314
0.00820976
0.00810293
0.0080101
0.00793063
0.00786398
0.00780974
0.00776758
0.00773725
0.00771856
0.00771136
0.00771557
0.00773112
0.00775798
0.00779612
0.0078456
0.00790639
0.00797866
0.00806251
0.0081583
0.00826674
0.00838878
0.00852694
0.00868396
0.00886596
0.00907818
0.00932741
0.00961315
0.0411097
0.0332952
0.0243043
0.0194372
0.0177348
0.0165308
0.0151401
0.013919
0.0130221
0.0123351
0.0117506
0.0112366
0.0107876
0.0103961
0.0100518
0.00974656
0.00947441
0.00923113
0.00901331
0.00881817
0.00864345
0.0084873
0.00834822
0.00822498
0.00811657
0.00802217
0.00794111
0.00787285
0.00781694
0.00777306
0.00774092
0.00772032
0.0077111
0.00771317
0.00772642
0.00775082
0.00778633
0.00783297
0.00789074
0.00795975
0.00804017
0.00813233
0.00823695
0.00835502
0.00848887
0.00864118
0.0088171
0.00902124
0.00925829
0.00952716
0.0396983
0.0327971
0.024459
0.0196068
0.0177808
0.016581
0.0152239
0.0139993
0.0130849
0.012388
0.0117995
0.0112816
0.0108284
0.010433
0.0100855
0.00977749
0.00950286
0.0092573
0.00903739
0.00884031
0.00866377
0.00850588
0.00836513
0.00824025
0.00813023
0.00803421
0.00795152
0.00788159
0.00782397
0.00777831
0.0077443
0.00772174
0.00771044
0.00771029
0.00772117
0.00774303
0.00777581
0.00781952
0.00787415
0.00793981
0.00801666
0.00810503
0.00820565
0.00831951
0.00844873
0.00859587
0.00876522
0.00896069
0.00918543
0.00943778
0.0383565
0.0322689
0.0245677
0.0197674
0.0178254
0.0166228
0.0153011
0.014078
0.0131474
0.0124403
0.0118477
0.0113265
0.0108692
0.01047
0.0101194
0.00980855
0.00953145
0.00928363
0.00906162
0.00886259
0.0086842
0.00852455
0.0083821
0.00825555
0.00814388
0.00804621
0.00796184
0.0078902
0.00783082
0.00778332
0.00774739
0.0077228
0.00770935
0.0077069
0.00771532
0.00773455
0.00776452
0.00780519
0.00785659
0.00791877
0.00799192
0.00807635
0.00817277
0.00828215
0.00840643
0.00854795
0.00871027
0.00889658
0.00910885
0.009345
0.0370817
0.031716
0.0246308
0.0199163
0.0178692
0.0166568
0.015371
0.0141545
0.0132097
0.012492
0.0118952
0.011371
0.01091
0.0105071
0.0101532
0.00983971
0.00956016
0.00931008
0.00908597
0.00888497
0.00870472
0.00854329
0.0083991
0.00827086
0.00815749
0.00805813
0.00797205
0.00789865
0.00783745
0.00778806
0.00775014
0.00772346
0.00770778
0.00770296
0.00770886
0.00772537
0.00775241
0.00778996
0.00783799
0.00789657
0.00796588
0.0080462
0.00813822
0.00824287
0.00836187
0.00849734
0.00865218
0.0088289
0.00902857
0.0092488
0.0358709
0.0311439
0.0246491
0.0200508
0.0179122
0.0166837
0.0154332
0.0142281
0.0132714
0.0125429
0.0119419
0.011415
0.0109506
0.0105441
0.0101871
0.00987092
0.00958895
0.00933661
0.0091104
0.00890742
0.0087253
0.00856206
0.00841612
0.00828614
0.00817106
0.00806997
0.00798212
0.00790692
0.00784385
0.0077925
0.00775254
0.00772369
0.00770572
0.00769845
0.00770173
0.00771543
0.00773946
0.00777376
0.00781832
0.00787317
0.00793848
0.00801452
0.00810192
0.00820157
0.00831497
0.00844398
0.00859091
0.00875766
0.0089446
0.00914913
0.0347212
0.0305575
0.0246237
0.0201687
0.0179544
0.0167043
0.0154873
0.0142981
0.0133324
0.0125932
0.0119877
0.0114585
0.010991
0.0105811
0.010221
0.00990212
0.00961776
0.0093632
0.00913489
0.00892993
0.00874591
0.00858085
0.00843312
0.00830139
0.00818455
0.00808168
0.00799203
0.00791497
0.00784997
0.00779662
0.00775455
0.00772347
0.00770313
0.00769333
0.00769389
0.00770469
0.00772561
0.00775656
0.00779752
0.0078485
0.00790965
0.00798124
0.00806381
0.00815818
0.00826565
0.0083878
0.00852642
0.00868286
0.00885695
0.00904596
0.0336296
0.0299615
0.0245567
0.0202678
0.0179953
0.0167194
0.0155331
0.0143637
0.0133922
0.0126426
0.0120324
0.0115011
0.011031
0.0106178
0.0102547
0.00993325
0.00964655
0.00938979
0.00915939
0.00895245
0.00876653
0.00859962
0.00845009
0.00831656
0.00819793
0.00809325
0.00800174
0.00792278
0.00785581
0.00780038
0.00775614
0.00772275
0.00769996
0.00768755
0.00768532
0.00769311
0.00771081
0.00773829
0.00777553
0.0078225
0.00787934
0.00794628
0.0080238
0.00811262
0.00821383
0.00832874
0.00845869
0.00860451
0.00876562
0.00893923
0.032593
0.02936
0.0244502
0.0203461
0.018034
0.0167296
0.0155707
0.0144243
0.0134504
0.0126912
0.0120761
0.0115429
0.0110705
0.0106544
0.0102883
0.00996427
0.00967527
0.00941634
0.00918387
0.00897494
0.00878711
0.00861835
0.00846698
0.00833164
0.00821117
0.00810464
0.00801124
0.00793032
0.00786131
0.00780376
0.00775727
0.0077215
0.00769619
0.00768107
0.00767596
0.00768065
0.00769501
0.00771892
0.0077523
0.00779512
0.00784748
0.00790958
0.00798181
0.00806481
0.00815945
0.00826676
0.00838769
0.00852262
0.00867064
0.00882893
0.0316084
0.0287568
0.0243071
0.0204021
0.0180695
0.0167357
0.0156002
0.0144792
0.0135065
0.0127387
0.0121185
0.0115836
0.0111094
0.0106905
0.0103217
0.00999511
0.00970385
0.0094428
0.00920828
0.00899737
0.00880762
0.00863699
0.00848377
0.00834658
0.00822425
0.00811582
0.00802048
0.00793755
0.00786646
0.00780671
0.00775791
0.00771969
0.00769177
0.00767387
0.00766577
0.00766726
0.00767818
0.00769838
0.00772777
0.0077663
0.00781401
0.00787107
0.00793779
0.00801469
0.00810244
0.00820182
0.00831339
0.00843718
0.00857199
0.00871504
0.0306726
0.028155
0.0241303
0.0204347
0.0181003
0.016738
0.015622
0.0145278
0.01356
0.0127851
0.0121597
0.0116231
0.0111475
0.0107262
0.0103547
0.0100257
0.00973224
0.00946911
0.00923257
0.0090197
0.00882803
0.00865551
0.00850042
0.00836135
0.00823713
0.00812677
0.00802944
0.00794445
0.0078712
0.0078092
0.00775802
0.00771728
0.00768666
0.00766589
0.00765471
0.00765289
0.00766026
0.00767663
0.00770189
0.00773597
0.00777886
0.00783068
0.00789166
0.00796219
0.00804275
0.00813387
0.00823579
0.0083482
0.00846971
0.00859754
0.0297827
0.0275576
0.0239231
0.020443
0.018125
0.016737
0.0156365
0.0145697
0.0136102
0.0128301
0.0121996
0.0116613
0.0111846
0.0107613
0.0103873
0.010056
0.00976037
0.00949522
0.00925669
0.00904186
0.00884828
0.00867386
0.00851689
0.00837592
0.00824977
0.00813743
0.00803807
0.00795097
0.00787552
0.0078112
0.00775756
0.00771422
0.00768083
0.00765709
0.00764273
0.0076375
0.00764119
0.00765361
0.00767461
0.00770407
0.00774197
0.00778835
0.00784336
0.00790725
0.00798034
0.00806289
0.00815488
0.00825571
0.00836382
0.00847645
0.0289359
0.0269668
0.0236889
0.0204267
0.018142
0.0167328
0.0156442
0.0146047
0.0136567
0.0128733
0.0122381
0.0116981
0.0112206
0.0107957
0.0104194
0.0100858
0.00978816
0.00952104
0.00928058
0.00906382
0.00886832
0.008692
0.00853313
0.00839024
0.00826213
0.00814778
0.00804634
0.00795708
0.00787936
0.00781265
0.00775649
0.00771047
0.00767422
0.00764743
0.00762979
0.00762104
0.00762094
0.00762928
0.00764587
0.00767057
0.00770329
0.00774402
0.00779282
0.00784983
0.00791516
0.00798887
0.00807067
0.00815974
0.00825436
0.00835179
0.0281295
0.0263846
0.023431
0.0203859
0.0181497
0.0167251
0.0156455
0.0146326
0.0136989
0.0129146
0.0122751
0.0117334
0.0112553
0.0108292
0.0104509
0.0101152
0.00981554
0.00954652
0.00930416
0.00908551
0.00888811
0.00870989
0.0085491
0.00840427
0.00827417
0.00815777
0.00805421
0.00796273
0.00788269
0.00781353
0.00775478
0.00770599
0.0076668
0.00763686
0.00761584
0.00760346
0.00759945
0.00760357
0.00761561
0.00763538
0.00766275
0.00769764
0.00774002
0.00778988
0.00784719
0.00791179
0.00798317
0.00806031
0.00814136
0.00822362
0.0273608
0.0258125
0.0231529
0.020321
0.0181467
0.0167138
0.015641
0.0146533
0.0137362
0.0129534
0.0123104
0.011767
0.0112887
0.0108617
0.0104817
0.010144
0.00984243
0.00957157
0.00932739
0.00910687
0.00890759
0.00872747
0.00856475
0.00841796
0.00828584
0.00816736
0.00806163
0.00796788
0.00788546
0.00781379
0.00775237
0.00770074
0.00765852
0.00762533
0.00760083
0.00758471
0.00757667
0.00757645
0.00758379
0.00759848
0.00762032
0.00764916
0.00768489
0.00772737
0.00777641
0.00783166
0.00789242
0.00795748
0.00802491
0.00809201
0.0266274
0.0252517
0.0228576
0.0202328
0.0181317
0.0166982
0.015631
0.0146669
0.0137681
0.0129893
0.0123439
0.0117989
0.0113205
0.010893
0.0105117
0.0101721
0.00986874
0.00959613
0.00935017
0.00912783
0.00892669
0.00874468
0.00858003
0.00843126
0.0082971
0.0081765
0.00806856
0.00797249
0.00788763
0.00781338
0.00774922
0.00769468
0.00764933
0.0076128
0.00758472
0.00756474
0.00755256
0.00754786
0.00755036
0.0075598
0.00757593
0.00759854
0.0076274
0.00766228
0.00770282
0.0077485
0.00779845
0.00785132
0.00790508
0.00795705
0.025927
0.0247029
0.0225483
0.0201224
0.0181037
0.0166778
0.0156159
0.0146736
0.0137944
0.0130219
0.0123753
0.011829
0.0113506
0.010923
0.0105406
0.0101995
0.00989438
0.0096201
0.00937244
0.00914833
0.00894536
0.00876146
0.00859488
0.00844411
0.00830789
0.00818514
0.00807494
0.00797651
0.00788915
0.00781225
0.00774528
0.00768774
0.00763919
0.00759923
0.00756745
0.00754351
0.00752706
0.00751775
0.00751526
0.0075193
0.00752955
0.00754574
0.00756754
0.00759459
0.00762642
0.00766234
0.00770132
0.0077419
0.00778197
0.00781887
0.0252575
0.0241669
0.0222276
0.0199912
0.0180619
0.0166518
0.0155958
0.0146735
0.0138146
0.0130508
0.0124044
0.0118571
0.0113788
0.0109515
0.0105684
0.0102259
0.00991926
0.00964339
0.0093941
0.00916829
0.00896352
0.00877776
0.00860925
0.00845647
0.00831816
0.00819323
0.00808074
0.00797989
0.00788998
0.00781037
0.00774051
0.00767989
0.00762805
0.00758455
0.00754899
0.00752098
0.00750013
0.00748607
0.00747846
0.00747694
0.00748115
0.00749073
0.00750527
0.00752431
0.00754723
0.00757322
0.00760111
0.00762932
0.00765571
0.00767761
0.0246169
0.023644
0.0218981
0.0198408
0.0180059
0.0166193
0.0155709
0.0146671
0.0138287
0.0130755
0.0124309
0.0118831
0.0114052
0.0109783
0.0105949
0.0102513
0.00994327
0.00966592
0.00941508
0.00918762
0.0089811
0.00879349
0.00862306
0.00846827
0.00832785
0.00820071
0.00808589
0.00798258
0.00789005
0.00780767
0.00773486
0.00767108
0.00761586
0.00756874
0.00752929
0.00749708
0.00747172
0.0074528
0.00743993
0.0074327
0.00743069
0.00743349
0.00744059
0.00745143
0.00746528
0.00748119
0.00749789
0.0075137
0.00752644
0.00753345
0.0240034
0.0231344
0.021562
0.0196729
0.0179354
0.0165795
0.015541
0.0146544
0.0138365
0.0130956
0.0124545
0.0119069
0.0114294
0.0110033
0.01062
0.0102756
0.00996631
0.00968758
0.00943529
0.00920625
0.00899802
0.0088086
0.00863625
0.00847945
0.00833691
0.00820752
0.00809034
0.00798452
0.00788933
0.00780411
0.00772827
0.00766126
0.00760258
0.00755174
0.0075083
0.00747179
0.0074418
0.00741789
0.00739961
0.00738653
0.00737816
0.00737402
0.00737352
0.007376
0.00738063
0.00738634
0.00739177
0.00739518
0.00739433
0.00738658
0.0234151
0.0226381
0.0212214
0.0194893
0.0178505
0.0165318
0.0155059
0.0146358
0.013838
0.0131109
0.0124747
0.0119282
0.0114515
0.0110264
0.0106434
0.0102986
0.00998825
0.00970827
0.00945461
0.00922408
0.0090142
0.008823
0.00864875
0.00848993
0.00834526
0.00821361
0.00809403
0.00798566
0.00788775
0.00779964
0.00772071
0.00765039
0.00758815
0.00753351
0.00748597
0.00744507
0.00741034
0.0073813
0.0073575
0.00733842
0.00732355
0.00731231
0.00730406
0.00729805
0.00729332
0.00728876
0.00728289
0.00727391
0.00725957
0.00723725
0.0228506
0.022155
0.0208779
0.0192917
0.0177515
0.0164755
0.0154654
0.0146115
0.0138332
0.0131209
0.0124914
0.0119468
0.0114713
0.0110473
0.0106651
0.0103201
0.010009
0.00972788
0.00947297
0.00924101
0.00902956
0.00883662
0.00866048
0.00849966
0.00835284
0.00821892
0.0080969
0.00798594
0.00788527
0.0077942
0.00771211
0.0076384
0.00757254
0.007514
0.00746228
0.00741687
0.00737728
0.00734302
0.00731356
0.00728836
0.00726685
0.00724839
0.00723225
0.00721762
0.00720346
0.00718856
0.00717137
0.00715007
0.00712237
0.0070857
0.0223084
0.021685
0.0205331
0.0190818
0.0176389
0.0164101
0.0154192
0.0145814
0.0138223
0.0131255
0.0125042
0.0119626
0.0114885
0.0110661
0.0106848
0.01034
0.0100283
0.00974631
0.00949024
0.00925696
0.00904399
0.00884936
0.00867137
0.00850855
0.00835959
0.00822337
0.00809889
0.0079853
0.00788182
0.00778774
0.00770242
0.00762526
0.00755569
0.00749317
0.00743717
0.00738716
0.00734262
0.00730301
0.00726778
0.00723634
0.00720806
0.00718226
0.00715814
0.00713479
0.00711113
0.00708586
0.00705739
0.00702386
0.00698298
0.00693222
0.0217871
0.0212278
0.0201882
0.0188614
0.0175134
0.0163352
0.0153669
0.0145458
0.0138052
0.0131245
0.0125127
0.0119752
0.0115032
0.0110824
0.0107025
0.0103581
0.0100462
0.00976342
0.00950633
0.00927182
0.00905741
0.00886115
0.00868134
0.00851653
0.00836543
0.00822689
0.00809994
0.00798369
0.00787735
0.00778021
0.00769161
0.00761092
0.00753757
0.00747099
0.00741062
0.00735591
0.00730631
0.00726126
0.00722015
0.00718237
0.00714722
0.00711398
0.00708177
0.00704965
0.00701644
0.00698081
0.00694112
0.0068955
0.00684166
0.00677712
0.0212855
0.0207832
0.0198444
0.018632
0.0173757
0.0162507
0.0153081
0.0145046
0.0137823
0.0131179
0.0125166
0.0119844
0.011515
0.0110963
0.0107179
0.0103744
0.0100624
0.0097791
0.00952111
0.00928548
0.00906972
0.00887188
0.0086903
0.00852353
0.00837028
0.00822943
0.00809998
0.00798103
0.0078718
0.00777155
0.00767961
0.00759533
0.00751813
0.00744741
0.00738259
0.0073231
0.00726836
0.00721776
0.00717068
0.00712646
0.00708436
0.00704359
0.00700324
0.00696229
0.00691954
0.00687359
0.00682278
0.00676524
0.0066987
0.00662072
0.0208024
0.0203508
0.0195025
0.0183952
0.0172268
0.0161566
0.0152426
0.0144578
0.0137534
0.0131056
0.0125159
0.0119899
0.0115239
0.0111075
0.010731
0.0103885
0.0100769
0.00979321
0.00953448
0.00929783
0.00908081
0.00888147
0.00869816
0.00852945
0.00837408
0.00823091
0.00809894
0.00797727
0.00786511
0.00776171
0.00766637
0.00757845
0.00749733
0.0074224
0.00735306
0.00728871
0.00722874
0.00717252
0.00711939
0.00706864
0.00701951
0.00697115
0.00692262
0.00687284
0.00682056
0.00676437
0.00670259
0.00663334
0.0065544
0.00646338
0.0203367
0.0199304
0.0191633
0.0181523
0.0170675
0.016053
0.0151701
0.0144051
0.0137188
0.0130875
0.0125101
0.0119915
0.0115295
0.0111159
0.0107415
0.0104005
0.0100894
0.00980561
0.00954632
0.00930877
0.00909059
0.00888981
0.00870483
0.00853422
0.00837674
0.00823125
0.00809675
0.00797235
0.00785723
0.00775063
0.00765185
0.00756024
0.00747514
0.00739593
0.007322
0.00725272
0.00718745
0.00712553
0.00706628
0.00700895
0.00695274
0.00689676
0.00684003
0.00678143
0.00671969
0.00665338
0.0065808
0.0065001
0.0064091
0.00630548
0.0198875
0.0195215
0.0188275
0.0179044
0.016899
0.0159402
0.0150904
0.0143467
0.0136784
0.0130638
0.0124993
0.0119889
0.0115318
0.0111213
0.0107494
0.01041
0.0100998
0.00981617
0.00955649
0.00931818
0.00909893
0.00889681
0.00871021
0.00853775
0.00837818
0.00823038
0.00809336
0.0079662
0.00784809
0.00773826
0.00763601
0.00754065
0.00745152
0.00736798
0.0072894
0.00721512
0.00714449
0.00707683
0.0070114
0.00694744
0.00688411
0.0068205
0.00675558
0.00668822
0.00661712
0.00654082
0.00645766
0.00636581
0.00626313
0.00614739
0.0194538
0.0191238
0.0184954
0.0176528
0.0167222
0.0158185
0.0150034
0.0142823
0.0136324
0.0130343
0.0124833
0.011982
0.0115305
0.0111237
0.0107544
0.0104171
0.010108
0.00982475
0.00956487
0.00932594
0.00910574
0.00890236
0.00871422
0.00853995
0.00837832
0.00822823
0.00808867
0.00795876
0.00783764
0.00772456
0.00761879
0.00751964
0.00742644
0.00733853
0.00725524
0.00717593
0.00709989
0.00702643
0.00695479
0.00688418
0.00681373
0.00674249
0.00666943
0.00659339
0.00651304
0.00642696
0.00633347
0.00623079
0.00611686
0.00598955
0.0190347
0.0187369
0.0181677
0.0173985
0.016538
0.0156884
0.0149092
0.0142118
0.0135807
0.0129993
0.012462
0.0119705
0.0115253
0.0111227
0.0107566
0.0104215
0.0101138
0.0098312
0.00957133
0.00933194
0.0091109
0.00890636
0.00871675
0.00854072
0.00837707
0.00822471
0.00808264
0.00794996
0.00782583
0.00770947
0.00760016
0.0074972
0.00739989
0.00730756
0.00721954
0.00713514
0.00705366
0.00697437
0.00689651
0.00681924
0.00674168
0.00666287
0.00658173
0.00649712
0.0064077
0.00631205
0.00620853
0.00609541
0.0059707
0.00583237
0.0186296
0.0183606
0.0178445
0.0171423
0.0163474
0.0155504
0.0148077
0.0141352
0.0135234
0.0129587
0.0124354
0.0119543
0.0115162
0.0111183
0.0107556
0.010423
0.0101171
0.00983539
0.00957573
0.00933604
0.0091143
0.0089087
0.0087177
0.00853998
0.00837436
0.00821976
0.00807518
0.00793974
0.00781259
0.00769295
0.00758008
0.00747328
0.00737183
0.00727506
0.00718227
0.00709277
0.00700583
0.00692071
0.00683662
0.00675271
0.00666808
0.00658176
0.00649266
0.00639962
0.00630132
0.00619636
0.00608315
0.00596001
0.00582502
0.00567628
0.0182376
0.0179943
0.0175262
0.016885
0.0161514
0.0154052
0.0146993
0.0140525
0.0134604
0.0129125
0.0124035
0.0119334
0.0115029
0.0111103
0.0107514
0.0104217
0.0101177
0.00983716
0.00957795
0.00933814
0.00911583