/*--------------------------------*- C++ -*----------------------------------*\
  =========                 |
  \\      /  F ield         | OpenFOAM: The Open Source CFD Toolbox
   \\    /   O peration     | Website:  https://openfoam.org
    \\  /    A nd           | Version:  7
     \\/     M anipulation  |
\*---------------------------------------------------------------------------*/
FoamFile
{
    version     2.0;
    format      ascii;
    class       surfaceScalarField;
    location    "0.05";
    object      phi;
}
// * * * * * * * * * * * * * * * * * * * * * * * * * * * * * * * * * * * * * //

dimensions      [0 3 -1 0 0 0 0];

internalField   nonuniform List<scalar> 
139350
(
6.45917e-08
9.20398e-08
3.19489e-08
3.26428e-08
2.3056e-08
8.89285e-09
1.95598e-08
3.49624e-09
1.7606e-08
1.95384e-09
1.61761e-08
1.42984e-09
1.50406e-08
1.13549e-09
1.4124e-08
9.16648e-10
1.33686e-08
7.55376e-10
1.27314e-08
6.37242e-10
1.21834e-08
5.47931e-10
1.17055e-08
4.77968e-10
1.12837e-08
4.2174e-10
1.0908e-08
3.75724e-10
1.05705e-08
3.37517e-10
1.02651e-08
3.05401e-10
9.98697e-09
2.78114e-10
9.73226e-09
2.54714e-10
9.49777e-09
2.34484e-10
9.2809e-09
2.16872e-10
9.07946e-09
2.01446e-10
8.89159e-09
1.87866e-10
8.71573e-09
1.75858e-10
8.55053e-09
1.65204e-10
8.39481e-09
1.55722e-10
8.24754e-09
1.47267e-10
8.10782e-09
1.39715e-10
7.97486e-09
1.32968e-10
7.84792e-09
1.26937e-10
7.72636e-09
1.21558e-10
7.6096e-09
1.16758e-10
7.49709e-09
1.12513e-10
7.38835e-09
1.08735e-10
7.28289e-09
1.05462e-10
7.18034e-09
1.02549e-10
7.0802e-09
1.00143e-10
6.98223e-09
9.79679e-11
6.88588e-09
9.6354e-11
6.79106e-09
9.48184e-11
6.69717e-09
9.38916e-11
6.60418e-09
9.29918e-11
6.51177e-09
9.24045e-11
6.41925e-09
9.25171e-11
6.32829e-09
9.09633e-11
6.23437e-09
9.39241e-11
6.14793e-09
8.64397e-11
6.04695e-09
1.00975e-10
5.99004e-09
5.69116e-11
5.76264e-09
2.27398e-10
-2.62586e-09
8.3885e-09
1.26025e-07
1.27459e-07
9.12591e-08
6.74084e-08
7.19335e-08
2.82184e-08
6.12013e-08
1.42284e-08
5.47494e-08
8.40583e-09
5.02491e-08
5.93011e-09
4.67577e-08
4.62688e-09
4.39338e-08
3.7406e-09
4.15981e-08
3.09108e-09
3.96259e-08
2.60936e-09
3.79303e-08
2.24354e-09
3.64512e-08
1.9571e-09
3.51459e-08
1.72706e-09
3.39828e-08
1.53881e-09
3.29378e-08
1.38246e-09
3.19923e-08
1.25098e-09
3.11312e-08
1.13922e-09
3.03425e-08
1.04333e-09
2.96167e-08
9.60376e-10
2.89454e-08
8.88114e-10
2.83221e-08
8.24779e-10
2.7741e-08
7.68978e-10
2.71972e-08
7.19595e-10
2.66867e-08
6.7573e-10
2.62058e-08
6.36651e-10
2.57513e-08
6.01753e-10
2.53205e-08
5.70537e-10
2.49108e-08
5.4259e-10
2.45202e-08
5.1756e-10
2.41466e-08
4.9517e-10
2.37882e-08
4.75149e-10
2.34434e-08
4.57343e-10
2.31106e-08
4.41488e-10
2.27885e-08
4.27596e-10
2.24758e-08
4.15279e-10
2.21711e-08
4.04867e-10
2.18734e-08
3.95578e-10
2.15814e-08
3.88398e-10
2.12946e-08
3.81648e-10
2.10109e-08
3.7759e-10
2.0731e-08
3.72846e-10
2.04517e-08
3.71716e-10
2.01757e-08
3.68526e-10
1.98976e-08
3.69078e-10
1.96232e-08
3.6833e-10
1.93464e-08
3.63171e-10
1.90683e-08
3.79124e-10
1.88339e-08
2.91311e-10
1.8447e-08
6.14293e-10
-3.02479e-09
1.88459e-08
1.58806e-07
1.35056e-07
1.3649e-07
8.97245e-08
1.17483e-07
4.72254e-08
1.03298e-07
2.84136e-08
9.32826e-08
1.84212e-08
8.59709e-08
1.32418e-08
8.02538e-08
1.0344e-08
7.55899e-08
8.40448e-09
7.16972e-08
6.98382e-09
6.83888e-08
5.91776e-09
6.55316e-08
5.1007e-09
6.3031e-08
4.45774e-09
6.08183e-08
3.93974e-09
5.88424e-08
3.51472e-09
5.7064e-08
3.16087e-09
5.54523e-08
2.86268e-09
5.39828e-08
2.60873e-09
5.26356e-08
2.39047e-09
5.13946e-08
2.20138e-09
5.02463e-08
2.03642e-09
4.91795e-08
1.89163e-09
4.81845e-08
1.7639e-09
4.72534e-08
1.65071e-09
4.63791e-08
1.55003e-09
4.55556e-08
1.46021e-09
4.47774e-08
1.37987e-09
4.40401e-08
1.30789e-09
4.33394e-08
1.24333e-09
4.26715e-08
1.18539e-09
4.20333e-08
1.13342e-09
4.14216e-08
1.08685e-09
4.08337e-08
1.04526e-09
4.0267e-08
1.00815e-09
3.97192e-08
9.75403e-10
3.91881e-08
9.46341e-10
3.86716e-08
9.21426e-10
3.81679e-08
8.99266e-10
3.76746e-08
8.81664e-10
3.7191e-08
8.65234e-10
3.67136e-08
8.54967e-10
3.62438e-08
8.42638e-10
3.57752e-08
8.4035e-10
3.53143e-08
8.29434e-10
3.48475e-08
8.35908e-10
3.43929e-08
8.22882e-10
3.39234e-08
8.32659e-10
3.34723e-08
8.30254e-10
3.30355e-08
7.2809e-10
3.25766e-08
1.0732e-09
-2.40461e-09
3.19564e-08
1.75663e-07
1.30908e-07
1.65591e-07
9.97964e-08
1.52715e-07
6.01021e-08
1.40108e-07
4.10207e-08
1.29408e-07
2.91206e-08
1.20753e-07
2.18967e-08
1.13628e-07
1.74697e-08
1.07631e-07
1.4401e-08
1.02513e-07
1.21022e-08
9.80904e-08
1.03401e-08
9.42245e-08
8.96663e-09
9.08094e-08
7.87276e-09
8.77655e-08
6.98371e-09
8.50311e-08
6.24913e-09
8.25579e-08
5.63402e-09
8.03075e-08
5.11311e-09
7.82486e-08
4.66762e-09
7.63557e-08
4.28335e-09
7.46077e-08
3.94938e-09
7.29869e-08
3.65719e-09
7.14785e-08
3.40009e-09
7.00697e-08
3.17272e-09
6.87496e-08
2.97079e-09
6.75088e-08
2.79079e-09
6.63392e-08
2.62986e-09
6.52334e-08
2.48562e-09
6.41852e-08
2.35611e-09
6.31889e-08
2.23967e-09
6.22393e-08
2.13495e-09
6.1332e-08
2.04076e-09
6.04627e-08
1.95613e-09
5.96277e-08
1.88028e-09
5.88234e-08
1.8124e-09
5.80467e-08
1.75215e-09
5.72945e-08
1.69853e-09
5.65638e-08
1.65209e-09
5.58524e-08
1.61075e-09
5.51568e-08
1.5772e-09
5.4476e-08
1.54606e-09
5.38054e-08
1.52558e-09
5.31464e-08
1.5016e-09
5.24908e-08
1.49599e-09
5.18466e-08
1.47358e-09
5.11961e-08
1.48644e-09
5.05625e-08
1.45648e-09
4.99098e-08
1.48534e-09
4.92838e-08
1.45626e-09
4.86542e-08
1.35769e-09
4.80805e-08
1.64697e-09
-1.41497e-09
4.70908e-08
1.8456e-07
1.23134e-07
1.82319e-07
1.02038e-07
1.76096e-07
6.6325e-08
1.67745e-07
4.93712e-08
1.59112e-07
3.77539e-08
1.5119e-07
2.98187e-08
1.44102e-07
2.45576e-08
1.37785e-07
2.07184e-08
1.32164e-07
1.7723e-08
1.27156e-07
1.53483e-08
1.22675e-07
1.34477e-08
1.18644e-07
1.19033e-08
1.15e-07
1.06282e-08
1.11687e-07
9.56126e-09
1.08663e-07
8.65855e-09
1.05889e-07
7.88739e-09
1.03333e-07
7.223e-09
1.0097e-07
6.64626e-09
9.87775e-08
6.14223e-09
9.67356e-08
5.69912e-09
9.48282e-08
5.30752e-09
9.3041e-08
4.95988e-09
9.13618e-08
4.65002e-09
8.97797e-08
4.3729e-09
8.82852e-08
4.12436e-09
8.68698e-08
3.90094e-09
8.55262e-08
3.69976e-09
8.42475e-08
3.51837e-09
8.30277e-08
3.35474e-09
8.18613e-08
3.20714e-09
8.07433e-08
3.0741e-09
7.96692e-08
2.95443e-09
7.86346e-08
2.84695e-09
7.76357e-08
2.75108e-09
7.66688e-08
2.66548e-09
7.57302e-08
2.59068e-09
7.4817e-08
2.52395e-09
7.39253e-08
2.46882e-09
7.30535e-08
2.41792e-09
7.21963e-08
2.38273e-09
7.13548e-08
2.34312e-09
7.05201e-08
2.33075e-09
6.96996e-08
2.29408e-09
6.88755e-08
2.3105e-09
6.8069e-08
2.26295e-09
6.72476e-08
2.30674e-09
6.64495e-08
2.25435e-09
6.56508e-08
2.15639e-09
6.4912e-08
2.38582e-09
-2.60988e-10
6.3758e-08
1.90388e-07
1.14963e-07
1.9185e-07
1.00576e-07
1.90238e-07
6.79366e-08
1.86141e-07
5.3468e-08
1.80694e-07
4.32018e-08
1.74927e-07
3.55853e-08
1.69215e-07
3.02693e-08
1.63713e-07
2.62202e-08
1.58517e-07
2.2919e-08
1.53669e-07
2.01963e-08
1.49172e-07
1.79449e-08
1.4501e-07
1.6066e-08
1.41157e-07
1.44805e-08
1.37589e-07
1.31295e-08
1.34279e-07
1.19689e-08
1.31201e-07
1.09645e-08
1.28335e-07
1.00895e-08
1.25659e-07
9.32265e-09
1.23154e-07
8.64684e-09
1.20805e-07
8.04836e-09
1.18596e-07
7.51601e-09
1.16515e-07
7.04065e-09
1.14551e-07
6.61474e-09
1.12692e-07
6.23202e-09
1.10929e-07
5.88725e-09
1.09254e-07
5.57605e-09
1.07659e-07
5.29474e-09
1.06137e-07
5.04015e-09
1.04682e-07
4.80966e-09
1.03288e-07
4.60098e-09
1.0195e-07
4.41221e-09
1.00663e-07
4.24175e-09
9.94215e-08
4.08809e-09
9.82222e-08
3.95036e-09
9.70608e-08
3.8269e-09
9.59332e-08
3.71824e-09
9.48361e-08
3.62104e-09
9.37655e-08
3.5395e-09
9.27188e-08
3.46455e-09
9.16911e-08
3.41042e-09
9.06823e-08
3.35195e-09
8.96843e-08
3.32879e-09
8.8702e-08
3.27639e-09
8.77211e-08
3.29133e-09
8.67554e-08
3.2287e-09
8.57844e-08
3.27773e-09
8.48259e-08
3.21288e-09
8.38809e-08
3.10138e-09
8.29741e-08
3.2926e-09
1.03059e-09
8.16825e-08
1.9554e-07
1.07237e-07
1.98246e-07
9.78704e-08
1.98964e-07
6.72182e-08
1.97778e-07
5.46536e-08
1.95138e-07
4.58416e-08
1.91786e-07
3.89378e-08
1.88041e-07
3.40147e-08
1.84073e-07
3.01873e-08
1.80034e-07
2.69587e-08
1.76031e-07
2.41987e-08
1.72134e-07
2.18418e-08
1.68382e-07
1.98189e-08
1.64793e-07
1.80691e-08
1.61377e-07
1.65456e-08
1.58134e-07
1.52119e-08
1.5506e-07
1.40385e-08
1.52148e-07
1.30016e-08
1.49389e-07
1.20812e-08
1.46775e-07
1.12611e-08
1.44296e-07
1.05276e-08
1.41943e-07
9.86938e-09
1.39706e-07
9.27703e-09
1.37578e-07
8.74253e-09
1.35551e-07
8.25912e-09
1.33617e-07
7.8211e-09
1.3177e-07
7.42358e-09
1.30002e-07
7.06242e-09
1.28308e-07
6.73401e-09
1.26683e-07
6.43535e-09
1.2512e-07
6.16378e-09
1.23615e-07
5.91709e-09
1.22163e-07
5.69335e-09
1.20761e-07
5.49085e-09
1.19403e-07
5.30846e-09
1.18085e-07
5.14432e-09
1.16804e-07
4.99889e-09
1.15557e-07
4.86843e-09
1.14339e-07
4.7576e-09
1.13147e-07
4.65612e-09
1.11978e-07
4.5801e-09
1.10829e-07
4.50098e-09
1.09694e-07
4.46357e-09
1.08575e-07
4.39541e-09
1.07463e-07
4.40343e-09
1.06362e-07
4.32997e-09
1.05266e-07
4.37351e-09
1.04171e-07
4.3077e-09
1.031e-07
4.17226e-09
1.02053e-07
4.33989e-09
2.44462e-09
1.00639e-07
2.00848e-07
9.99743e-08
2.03774e-07
9.4944e-08
2.05323e-07
6.56696e-08
2.05634e-07
5.43422e-08
2.04801e-07
4.66744e-08
2.03311e-07
4.04276e-08
2.01352e-07
3.59738e-08
1.99008e-07
3.25314e-08
1.96384e-07
2.95826e-08
1.93583e-07
2.7e-08
1.90685e-07
2.47401e-08
1.8775e-07
2.27539e-08
1.84822e-07
2.09967e-08
1.81934e-07
1.94339e-08
1.79107e-07
1.80389e-08
1.76356e-07
1.67896e-08
1.73689e-07
1.56677e-08
1.71113e-07
1.46575e-08
1.68629e-07
1.37454e-08
1.66236e-07
1.292e-08
1.63934e-07
1.21715e-08
1.6172e-07
1.14913e-08
1.5959e-07
1.08722e-08
1.57542e-07
1.03078e-08
1.5557e-07
9.79263e-09
1.53672e-07
9.32198e-09
1.51842e-07
8.89173e-09
1.50078e-07
8.49826e-09
1.48375e-07
8.13849e-09
1.46729e-07
7.80968e-09
1.45137e-07
7.50955e-09
1.43594e-07
7.23605e-09
1.42097e-07
6.98739e-09
1.40644e-07
6.76235e-09
1.39229e-07
6.55898e-09
1.3785e-07
6.37774e-09
1.36504e-07
6.21465e-09
1.35187e-07
6.07469e-09
1.33896e-07
5.9469e-09
1.32628e-07
5.8484e-09
1.3138e-07
5.749e-09
1.30148e-07
5.69565e-09
1.2893e-07
5.61329e-09
1.27723e-07
5.61042e-09
1.26522e-07
5.5309e-09
1.25334e-07
5.56112e-09
1.24139e-07
5.50236e-09
1.2297e-07
5.34219e-09
1.21818e-07
5.49097e-09
3.94394e-09
1.20319e-07
2.06446e-07
9.30599e-08
2.09337e-07
9.20529e-08
2.11032e-07
6.39748e-08
2.11922e-07
5.3452e-08
2.11986e-07
4.66107e-08
2.11593e-07
4.0821e-08
2.10854e-07
3.67124e-08
2.09773e-07
3.3613e-08
2.08385e-07
3.097e-08
2.0675e-07
2.86355e-08
2.04922e-07
2.65681e-08
2.0295e-07
2.47257e-08
2.00877e-07
2.30701e-08
1.98737e-07
2.15732e-08
1.96561e-07
2.02148e-08
1.94372e-07
1.89789e-08
1.92188e-07
1.7852e-08
1.90023e-07
1.68226e-08
1.87887e-07
1.58809e-08
1.85789e-07
1.50181e-08
1.83734e-07
1.42267e-08
1.81725e-07
1.34999e-08
1.79765e-07
1.2832e-08
1.77856e-07
1.22176e-08
1.75996e-07
1.16523e-08
1.74186e-07
1.11318e-08
1.72425e-07
1.06527e-08
1.70712e-07
1.02117e-08
1.69044e-07
9.80602e-09
1.67421e-07
9.43312e-09
1.65839e-07
9.09092e-09
1.64298e-07
8.7775e-09
1.62794e-07
8.49118e-09
1.61326e-07
8.23082e-09
1.5989e-07
7.99454e-09
1.58485e-07
7.78287e-09
1.57108e-07
7.59185e-09
1.55756e-07
7.4266e-09
1.54427e-07
7.27604e-09
1.53117e-07
7.15755e-09
1.51826e-07
7.04086e-09
1.50549e-07
6.97252e-09
1.49283e-07
6.87933e-09
1.48029e-07
6.86433e-09
1.46776e-07
6.78365e-09
1.4554e-07
6.79731e-09
1.44292e-07
6.75019e-09
1.43062e-07
6.57237e-09
1.41849e-07
6.70345e-09
5.47877e-09
1.40315e-07
2.12288e-07
8.64339e-08
2.1515e-07
8.9191e-08
2.16786e-07
6.23385e-08
2.17835e-07
5.24038e-08
2.18245e-07
4.62004e-08
2.18355e-07
4.07111e-08
2.18271e-07
3.67959e-08
2.17963e-07
3.39215e-08
2.17422e-07
3.15114e-08
2.16666e-07
2.93915e-08
2.15719e-07
2.75151e-08
2.14605e-07
2.5839e-08
2.13351e-07
2.43242e-08
2.11981e-07
2.29432e-08
2.10519e-07
2.16773e-08
2.08985e-07
2.05128e-08
2.07398e-07
1.94388e-08
2.05774e-07
1.84464e-08
2.04127e-07
1.75282e-08
2.02467e-07
1.66776e-08
2.00805e-07
1.58891e-08
1.99147e-07
1.51577e-08
1.975e-07
1.44792e-08
1.95868e-07
1.38495e-08
1.94255e-07
1.32653e-08
1.92664e-07
1.27233e-08
1.91096e-07
1.22208e-08
1.89552e-07
1.17551e-08
1.88034e-07
1.1324e-08
1.86542e-07
1.09254e-08
1.85075e-07
1.05576e-08
1.83634e-07
1.0219e-08
1.82217e-07
9.90826e-09
1.80823e-07
9.62439e-09
1.79452e-07
9.36576e-09
1.78102e-07
9.13306e-09
1.76771e-07
8.92252e-09
1.75458e-07
8.73936e-09
1.74162e-07
8.57278e-09
1.72879e-07
8.43989e-09
1.71609e-07
8.31153e-09
1.70349e-07
8.23197e-09
1.69095e-07
8.13315e-09
1.67852e-07
8.10784e-09
1.66604e-07
8.03121e-09
1.65372e-07
8.02963e-09
1.64125e-07
7.99687e-09
1.62885e-07
7.81309e-09
1.6166e-07
7.92822e-09
6.99394e-09
1.60145e-07
2.18329e-07
8.00852e-08
2.21204e-07
8.63167e-08
2.22759e-07
6.07833e-08
2.23834e-07
5.13288e-08
2.24354e-07
4.56806e-08
2.24642e-07
4.04232e-08
2.24835e-07
3.66026e-08
2.24906e-07
3.38507e-08
2.24832e-07
3.15854e-08
2.24613e-07
2.96106e-08
2.24253e-07
2.7875e-08
2.23758e-07
2.63339e-08
2.23136e-07
2.49455e-08
2.224e-07
2.368e-08
2.2156e-07
2.25173e-08
2.20629e-07
2.14432e-08
2.19621e-07
2.0447e-08
2.18547e-07
1.95203e-08
2.17419e-07
1.86565e-08
2.16246e-07
1.78502e-08
2.15038e-07
1.70968e-08
2.13804e-07
1.63924e-08
2.12549e-07
1.57339e-08
2.1128e-07
1.51183e-08
2.10003e-07
1.45429e-08
2.08721e-07
1.40055e-08
2.07438e-07
1.35039e-08
2.06156e-07
1.30362e-08
2.0488e-07
1.26008e-08
2.03609e-07
1.21961e-08
2.02345e-07
1.18208e-08
2.01091e-07
1.14738e-08
1.99845e-07
1.11539e-08
1.98609e-07
1.08606e-08
1.97382e-07
1.05924e-08
1.96165e-07
1.03505e-08
1.94956e-07
1.01311e-08
1.93756e-07
9.93978e-09
1.92563e-07
9.76612e-09
1.91376e-07
9.62667e-09
1.90193e-07
9.4942e-09
1.89016e-07
9.40944e-09
1.87837e-07
9.3116e-09
1.86665e-07
9.28036e-09
1.85483e-07
9.2133e-09
1.84311e-07
9.20132e-09
1.83123e-07
9.18506e-09
1.81927e-07
9.00892e-09
1.80743e-07
9.11188e-09
8.43298e-09
1.79304e-07
2.24558e-07
7.40202e-08
2.27468e-07
8.34068e-08
2.28956e-07
5.92957e-08
2.30036e-07
5.02488e-08
2.30596e-07
4.51198e-08
2.30933e-07
4.00866e-08
2.31216e-07
3.63199e-08
2.31435e-07
3.36316e-08
2.3157e-07
3.145e-08
2.3162e-07
2.95612e-08
2.31582e-07
2.79124e-08
2.31456e-07
2.64602e-08
2.3124e-07
2.51615e-08
2.30936e-07
2.39841e-08
2.30547e-07
2.29063e-08
2.30078e-07
2.19124e-08
2.29534e-07
2.09908e-08
2.28922e-07
2.01325e-08
2.28248e-07
1.93305e-08
2.27518e-07
1.85794e-08
2.2674e-07
1.78747e-08
2.2592e-07
1.72131e-08
2.25062e-07
1.65915e-08
2.24173e-07
1.60075e-08
2.23257e-07
1.54591e-08
2.22318e-07
1.49443e-08
2.2136e-07
1.44616e-08
2.20387e-07
1.40095e-08
2.19401e-07
1.35868e-08
2.18405e-07
1.31923e-08
2.17401e-07
1.28251e-08
2.1639e-07
1.24844e-08
2.15375e-07
1.21694e-08
2.14355e-07
1.18799e-08
2.13333e-07
1.16147e-08
2.12308e-07
1.13751e-08
2.11282e-07
1.11578e-08
2.10253e-07
1.09684e-08
2.09222e-07
1.07971e-08
2.08189e-07
1.06596e-08
2.07152e-07
1.05312e-08
2.06113e-07
1.04482e-08
2.05067e-07
1.03583e-08
2.0402e-07
1.03269e-08
2.02959e-07
1.02748e-08
2.01901e-07
1.02594e-08
2.00824e-07
1.02615e-08
1.99727e-07
1.01063e-08
1.98636e-07
1.02029e-08
9.74369e-09
1.97325e-07
2.30979e-07
6.82472e-08
2.33932e-07
8.04533e-08
2.35361e-07
5.78673e-08
2.36447e-07
4.91627e-08
2.37041e-07
4.45255e-08
2.37393e-07
3.97349e-08
2.37697e-07
3.60157e-08
2.37962e-07
3.33667e-08
2.38173e-07
3.1239e-08
2.38332e-07
2.94022e-08
2.38441e-07
2.78036e-08
2.38497e-07
2.64035e-08
2.38499e-07
2.51597e-08
2.38444e-07
2.40393e-08
2.38331e-07
2.30194e-08
2.3816e-07
2.20835e-08
2.37932e-07
2.1219e-08
2.37648e-07
2.04159e-08
2.37312e-07
1.96669e-08
2.36925e-07
1.89658e-08
2.36492e-07
1.83081e-08
2.36015e-07
1.76901e-08
2.35498e-07
1.71087e-08
2.34944e-07
1.65616e-08
2.34356e-07
1.60468e-08
2.33738e-07
1.55626e-08
2.33092e-07
1.51075e-08
2.32421e-07
1.46804e-08
2.31727e-07
1.42802e-08
2.31014e-07
1.39059e-08
2.30282e-07
1.3557e-08
2.29534e-07
1.32328e-08
2.2877e-07
1.29327e-08
2.27993e-07
1.26568e-08
2.27204e-07
1.2404e-08
2.26403e-07
1.2176e-08
2.25591e-07
1.19697e-08
2.24769e-07
1.17904e-08
2.23937e-07
1.16295e-08
2.23095e-07
1.15013e-08
2.22242e-07
1.1384e-08
2.21381e-07
1.13091e-08
2.20506e-07
1.12334e-08
2.19625e-07
1.12077e-08
2.18725e-07
1.11749e-08
2.17821e-07
1.11635e-08
2.16897e-07
1.11855e-08
2.15941e-07
1.10624e-08
2.14985e-07
1.11594e-08
1.08852e-08
2.13843e-07
2.376e-07
6.2772e-08
2.406e-07
7.74534e-08
2.41971e-07
5.64962e-08
2.43062e-07
4.80719e-08
2.43693e-07
4.38943e-08
2.44058e-07
3.937e-08
2.44367e-07
3.57064e-08
2.44644e-07
3.30895e-08
2.44878e-07
3.10053e-08
2.45074e-07
2.92067e-08
2.45237e-07
2.76403e-08
2.45369e-07
2.62714e-08
2.45469e-07
2.50601e-08
2.45534e-07
2.39738e-08
2.45564e-07
2.29895e-08
2.45557e-07
2.20904e-08
2.45513e-07
2.12635e-08
2.4543e-07
2.04986e-08
2.45309e-07
1.97876e-08
2.45151e-07
1.91242e-08
2.44956e-07
1.85033e-08
2.44725e-07
1.7921e-08
2.44459e-07
1.7374e-08
2.44161e-07
1.68599e-08
2.43831e-07
1.63764e-08
2.43472e-07
1.5922e-08
2.43084e-07
1.54951e-08
2.4267e-07
1.50946e-08
2.42231e-07
1.47194e-08
2.41768e-07
1.43687e-08
2.41283e-07
1.40419e-08
2.40777e-07
1.37386e-08
2.40252e-07
1.34582e-08
2.39708e-07
1.32009e-08
2.39146e-07
1.29658e-08
2.38567e-07
1.27546e-08
2.37973e-07
1.25645e-08
2.37362e-07
1.24006e-08
2.36737e-07
1.22552e-08
2.36097e-07
1.21412e-08
2.35441e-07
1.20399e-08
2.34772e-07
1.19776e-08
2.34086e-07
1.19201e-08
2.33389e-07
1.19046e-08
2.3267e-07
1.18935e-08
2.31941e-07
1.18925e-08
2.31192e-07
1.1935e-08
2.30403e-07
1.18517e-08
2.29606e-07
1.19559e-08
1.18342e-08
2.28657e-07
2.4443e-07
5.75982e-08
2.4747e-07
7.44139e-08
2.48792e-07
5.51741e-08
2.49883e-07
4.69809e-08
2.50552e-07
4.32245e-08
2.50934e-07
3.89883e-08
2.51248e-07
3.5393e-08
2.5153e-07
3.28072e-08
2.51771e-07
3.07644e-08
2.51977e-07
2.90007e-08
2.52157e-07
2.74602e-08
2.52315e-07
2.61136e-08
2.52451e-07
2.49238e-08
2.52566e-07
2.38591e-08
2.52659e-07
2.28968e-08
2.52729e-07
2.20203e-08
2.52775e-07
2.12168e-08
2.52798e-07
2.0476e-08
2.52796e-07
1.97897e-08
2.52769e-07
1.91514e-08
2.52716e-07
1.85558e-08
2.52638e-07
1.79988e-08
2.52535e-07
1.7477e-08
2.52408e-07
1.69878e-08
2.52255e-07
1.6529e-08
2.52078e-07
1.60987e-08
2.51878e-07
1.56954e-08
2.51655e-07
1.53178e-08
2.51409e-07
1.4965e-08
2.51142e-07
1.46361e-08
2.50853e-07
1.43304e-08
2.50544e-07
1.40475e-08
2.50216e-07
1.37868e-08
2.49868e-07
1.35487e-08
2.49501e-07
1.33323e-08
2.49117e-07
1.31392e-08
2.48715e-07
1.29668e-08
2.48295e-07
1.28201e-08
2.47858e-07
1.2692e-08
2.47405e-07
1.2594e-08
2.46935e-07
1.25107e-08
2.46449e-07
1.2463e-08
2.45944e-07
1.24252e-08
2.45426e-07
1.24226e-08
2.44886e-07
1.24333e-08
2.44332e-07
1.24473e-08
2.43757e-07
1.25096e-08
2.43139e-07
1.24698e-08
2.42508e-07
1.25867e-08
1.2588e-08
2.41754e-07
2.51477e-07
5.27276e-08
2.54547e-07
7.13442e-08
2.5583e-07
5.38907e-08
2.56916e-07
4.58952e-08
2.57623e-07
4.25172e-08
2.58025e-07
3.85866e-08
2.58344e-07
3.50739e-08
2.58631e-07
3.252e-08
2.58877e-07
3.05185e-08
2.59087e-07
2.87905e-08
2.59272e-07
2.72751e-08
2.59438e-07
2.59482e-08
2.59585e-07
2.4776e-08
2.59717e-07
2.37277e-08
2.59833e-07
2.2781e-08
2.59933e-07
2.19198e-08
2.60019e-07
2.11316e-08
2.60088e-07
2.04062e-08
2.60142e-07
1.97356e-08
2.6018e-07
1.91133e-08
2.60202e-07
1.85341e-08
2.60207e-07
1.79937e-08
2.60195e-07
1.74888e-08
2.60167e-07
1.70167e-08
2.6012e-07
1.65751e-08
2.60057e-07
1.61621e-08
2.59976e-07
1.57762e-08
2.59878e-07
1.54161e-08
2.59762e-07
1.50807e-08
2.59629e-07
1.47691e-08
2.59479e-07
1.44806e-08
2.59312e-07
1.42148e-08
2.59127e-07
1.39711e-08
2.58926e-07
1.37498e-08
2.58709e-07
1.35501e-08
2.58474e-07
1.33734e-08
2.58224e-07
1.32175e-08
2.57957e-07
1.30868e-08
2.57674e-07
1.29753e-08
2.57375e-07
1.28928e-08
2.57059e-07
1.28267e-08
2.56728e-07
1.27934e-08
2.56379e-07
1.27745e-08
2.56016e-07
1.27853e-08
2.55633e-07
1.28163e-08
2.55233e-07
1.28472e-08
2.54815e-07
1.29277e-08
2.54354e-07
1.29313e-08
2.53876e-07
1.30648e-08
1.31626e-08
2.53301e-07
2.5875e-07
4.81602e-08
2.6184e-07
6.82544e-08
2.63095e-07
5.26354e-08
2.64171e-07
4.48201e-08
2.64913e-07
4.17749e-08
2.65336e-07
3.81631e-08
2.65662e-07
3.47483e-08
2.65955e-07
3.22275e-08
2.66206e-07
3.02675e-08
2.66419e-07
2.85768e-08
2.66607e-07
2.70875e-08
2.66775e-07
2.57803e-08
2.66926e-07
2.46248e-08
2.67062e-07
2.35914e-08
2.67185e-07
2.2658e-08
2.67296e-07
2.18092e-08
2.67395e-07
2.10326e-08
2.67483e-07
2.03185e-08
2.67559e-07
1.9659e-08
2.67625e-07
1.90476e-08
2.6768e-07
1.84793e-08
2.67723e-07
1.79499e-08
2.67756e-07
1.74562e-08
2.67777e-07
1.69954e-08
2.67787e-07
1.65653e-08
2.67785e-07
1.61641e-08
2.67771e-07
1.57902e-08
2.67745e-07
1.54423e-08
2.67706e-07
1.51193e-08
2.67655e-07
1.48204e-08
2.67591e-07
1.45447e-08
2.67514e-07
1.4292e-08
2.67423e-07
1.40614e-08
2.6732e-07
1.38535e-08
2.67203e-07
1.36671e-08
2.67072e-07
1.35039e-08
2.66928e-07
1.33617e-08
2.6677e-07
1.32445e-08
2.66598e-07
1.31472e-08
2.66413e-07
1.30779e-08
2.66213e-07
1.3027e-08
2.66e-07
1.30063e-08
2.65771e-07
1.30039e-08
2.65529e-07
1.30272e-08
2.65269e-07
1.30755e-08
2.64993e-07
1.31235e-08
2.64701e-07
1.32199e-08
2.64368e-07
1.32642e-08
2.64017e-07
1.34161e-08
1.35881e-08
2.63591e-07
2.66258e-07
4.38945e-08
2.69357e-07
6.51549e-08
2.70595e-07
5.13977e-08
2.71655e-07
4.37598e-08
2.72429e-07
4.10011e-08
2.72876e-07
3.7716e-08
2.73209e-07
3.44153e-08
2.73507e-07
3.19296e-08
2.73764e-07
3.00109e-08
2.73982e-07
2.83591e-08
2.74172e-07
2.68975e-08
2.74341e-07
2.56106e-08
2.74494e-07
2.44721e-08
2.74632e-07
2.34534e-08
2.74757e-07
2.25331e-08
2.7487e-07
2.16958e-08
2.74973e-07
2.09298e-08
2.75066e-07
2.02254e-08
2.7515e-07
1.95749e-08
2.75226e-07
1.89721e-08
2.75293e-07
1.84121e-08
2.75352e-07
1.78908e-08
2.75403e-07
1.74051e-08
2.75446e-07
1.69523e-08
2.75481e-07
1.65302e-08
2.75508e-07
1.61372e-08
2.75527e-07
1.57716e-08
2.75537e-07
1.54323e-08
2.75538e-07
1.5118e-08
2.75531e-07
1.48281e-08
2.75514e-07
1.45617e-08
2.75487e-07
1.43185e-08
2.75451e-07
1.40977e-08
2.75405e-07
1.38997e-08
2.75348e-07
1.37236e-08
2.75281e-07
1.35708e-08
2.75204e-07
1.34393e-08
2.75116e-07
1.33327e-08
2.75016e-07
1.32469e-08
2.74906e-07
1.31882e-08
2.74783e-07
1.31496e-08
2.7465e-07
1.31394e-08
2.74503e-07
1.31505e-08
2.74346e-07
1.31848e-08
2.74174e-07
1.3247e-08
2.73986e-07
1.33112e-08
2.73785e-07
1.34211e-08
2.73548e-07
1.35015e-08
2.73292e-07
1.36724e-08
1.39001e-08
2.7298e-07
2.74009e-07
3.9927e-08
2.77107e-07
6.20569e-08
2.78337e-07
5.01674e-08
2.79379e-07
4.27179e-08
2.8018e-07
4.01997e-08
2.80653e-07
3.72437e-08
2.80994e-07
3.40739e-08
2.81297e-07
3.16264e-08
2.8156e-07
2.97485e-08
2.81782e-07
2.8137e-08
2.81974e-07
2.67046e-08
2.82146e-07
2.5439e-08
2.823e-07
2.4318e-08
2.82439e-07
2.33145e-08
2.82565e-07
2.24074e-08
2.82679e-07
2.15818e-08
2.82782e-07
2.08261e-08
2.82877e-07
2.0131e-08
2.82963e-07
1.9489e-08
2.83041e-07
1.88941e-08
2.83111e-07
1.83414e-08
2.83175e-07
1.7827e-08
2.83233e-07
1.73478e-08
2.83283e-07
1.69014e-08
2.83328e-07
1.64856e-08
2.83366e-07
1.60988e-08
2.83398e-07
1.57395e-08
2.83424e-07
1.54066e-08
2.83443e-07
1.50989e-08
2.83456e-07
1.48157e-08
2.83461e-07
1.45563e-08
2.83459e-07
1.43201e-08
2.8345e-07
1.41067e-08
2.83434e-07
1.39163e-08
2.83409e-07
1.3748e-08
2.83377e-07
1.36032e-08
2.83336e-07
1.34801e-08
2.83287e-07
1.33818e-08
2.83229e-07
1.3305e-08
2.83163e-07
1.32546e-08
2.83086e-07
1.32259e-08
2.83002e-07
1.32242e-08
2.82906e-07
1.3246e-08
2.82801e-07
1.32898e-08
2.82685e-07
1.3363e-08
2.82555e-07
1.34418e-08
2.82413e-07
1.35633e-08
2.82239e-07
1.36749e-08
2.82047e-07
1.38645e-08
1.41335e-08
2.81814e-07
2.82012e-07
3.62523e-08
2.85097e-07
5.89718e-08
2.8633e-07
4.8935e-08
2.87351e-07
4.16971e-08
2.88175e-07
3.93755e-08
2.88673e-07
3.6745e-08
2.89024e-07
3.3723e-08
2.89333e-07
3.13181e-08
2.89601e-07
2.94803e-08
2.89828e-07
2.79103e-08
2.90024e-07
2.65088e-08
2.90197e-07
2.52654e-08
2.90353e-07
2.41625e-08
2.90493e-07
2.31746e-08
2.90619e-07
2.22812e-08
2.90733e-07
2.14674e-08
2.90837e-07
2.07222e-08
2.90932e-07
2.00366e-08
2.91018e-07
1.94031e-08
2.91096e-07
1.88159e-08
2.91167e-07
1.82702e-08
2.91232e-07
1.77623e-08
2.9129e-07
1.72893e-08
2.91343e-07
1.68486e-08
2.9139e-07
1.64385e-08
2.91432e-07
1.60571e-08
2.91468e-07
1.57032e-08
2.91499e-07
1.53757e-08
2.91524e-07
1.50734e-08
2.91544e-07
1.47958e-08
2.91559e-07
1.4542e-08
2.91567e-07
1.43116e-08
2.9157e-07
1.41042e-08
2.91566e-07
1.39199e-08
2.91556e-07
1.37579e-08
2.9154e-07
1.36195e-08
2.91517e-07
1.35033e-08
2.91487e-07
1.34116e-08
2.9145e-07
1.33422e-08
2.91406e-07
1.32986e-08
2.91354e-07
1.3278e-08
2.91295e-07
1.32833e-08
2.91227e-07
1.33136e-08
2.91151e-07
1.33657e-08
2.91066e-07
1.34478e-08
2.90968e-07
1.35398e-08
2.9086e-07
1.36716e-08
2.90725e-07
1.38098e-08
2.90572e-07
1.40173e-08
1.43168e-08
2.90389e-07
2.90278e-07
3.28633e-08
2.93338e-07
5.59113e-08
2.94582e-07
4.76915e-08
2.9558e-07
4.06993e-08
2.96421e-07
3.85337e-08
2.96947e-07
3.62189e-08
2.97309e-07
3.3361e-08
2.97623e-07
3.10046e-08
2.97897e-07
2.92062e-08
2.98129e-07
2.76785e-08
2.98328e-07
2.63095e-08
2.98504e-07
2.50894e-08
2.98661e-07
2.40052e-08
2.98802e-07
2.30335e-08
2.98929e-07
2.21541e-08
2.99044e-07
2.13527e-08
2.99148e-07
2.06183e-08
2.99242e-07
1.99423e-08
2.99328e-07
1.93175e-08
2.99406e-07
1.87381e-08
2.99476e-07
1.81995e-08
2.9954e-07
1.76982e-08
2.99598e-07
1.72312e-08
2.99651e-07
1.67962e-08
2.99698e-07
1.63914e-08
2.9974e-07
1.60153e-08
2.99777e-07
1.56664e-08
2.99808e-07
1.53439e-08
2.99835e-07
1.50467e-08
2.99857e-07
1.47741e-08
2.99873e-07
1.45254e-08
2.99885e-07
1.43002e-08
2.99891e-07
1.40981e-08
2.99892e-07
1.39192e-08
2.99887e-07
1.37628e-08
2.99876e-07
1.363e-08
2.9986e-07
1.35197e-08
2.99838e-07
1.34338e-08
2.99809e-07
1.33707e-08
2.99775e-07
1.33331e-08
2.99733e-07
1.33193e-08
2.99686e-07
1.33308e-08
2.99631e-07
1.33684e-08
2.99569e-07
1.3428e-08
2.99499e-07
1.35176e-08
2.99417e-07
1.36217e-08
2.99325e-07
1.37633e-08
2.99211e-07
1.39241e-08
2.99079e-07
1.41487e-08
1.4471e-08
2.98925e-07
2.98815e-07
2.97512e-08
3.01839e-07
5.28874e-08
3.03101e-07
4.6429e-08
3.04075e-07
3.97253e-08
3.04929e-07
3.76798e-08
3.05483e-07
3.5665e-08
3.05857e-07
3.29866e-08
3.06176e-07
3.0686e-08
3.06456e-07
2.89263e-08
3.06693e-07
2.74413e-08
3.06896e-07
2.61066e-08
3.07074e-07
2.4911e-08
3.07233e-07
2.38461e-08
3.07376e-07
2.28911e-08
3.07504e-07
2.20263e-08
3.07619e-07
2.12375e-08
3.07723e-07
2.05142e-08
3.07817e-07
1.98481e-08
3.07902e-07
1.92322e-08
3.0798e-07
1.86608e-08
3.0805e-07
1.81295e-08
3.08113e-07
1.76348e-08
3.0817e-07
1.71739e-08
3.08222e-07
1.67446e-08
3.08268e-07
1.63453e-08
3.08309e-07
1.59743e-08
3.08345e-07
1.56305e-08
3.08376e-07
1.53129e-08
3.08402e-07
1.50206e-08
3.08423e-07
1.47529e-08
3.08439e-07
1.45091e-08
3.08451e-07
1.4289e-08
3.08457e-07
1.40919e-08
3.08458e-07
1.39181e-08
3.08454e-07
1.3767e-08
3.08444e-07
1.36395e-08
3.08429e-07
1.35347e-08
3.08409e-07
1.34542e-08
3.08382e-07
1.3397e-08
3.08351e-07
1.33649e-08
3.08312e-07
1.33573e-08
3.08269e-07
1.33748e-08
3.08218e-07
1.34188e-08
3.08161e-07
1.34856e-08
3.08096e-07
1.35821e-08
3.0802e-07
1.36975e-08
3.07935e-07
1.38487e-08
3.0783e-07
1.4029e-08
3.07709e-07
1.42698e-08
1.46095e-08
3.07571e-07
3.07633e-07
2.69054e-08
3.10608e-07
4.99124e-08
3.11896e-07
4.51409e-08
3.12846e-07
3.87751e-08
3.13707e-07
3.68191e-08
3.14288e-07
3.50837e-08
3.14677e-07
3.25982e-08
3.15001e-07
3.03618e-08
3.15287e-07
2.86405e-08
3.1553e-07
2.71986e-08
3.15736e-07
2.58997e-08
3.15918e-07
2.47298e-08
3.16079e-07
2.3685e-08
3.16223e-07
2.27472e-08
3.16352e-07
2.18973e-08
3.16467e-07
2.11216e-08
3.16572e-07
2.04099e-08
3.16666e-07
1.9754e-08
3.16751e-07
1.91471e-08
3.16828e-07
1.85839e-08
3.16897e-07
1.806e-08
3.1696e-07
1.75721e-08
3.17016e-07
1.71175e-08
3.17067e-07
1.66941e-08
3.17112e-07
1.63002e-08
3.17152e-07
1.59345e-08
3.17187e-07
1.55958e-08
3.17216e-07
1.52832e-08
3.17241e-07
1.49959e-08
3.17261e-07
1.47331e-08
3.17276e-07
1.44942e-08
3.17286e-07
1.4279e-08
3.17291e-07
1.4087e-08
3.1729e-07
1.39183e-08
3.17285e-07
1.37724e-08
3.17274e-07
1.36501e-08
3.17258e-07
1.35507e-08
3.17237e-07
1.34755e-08
3.1721e-07
1.34239e-08
3.17178e-07
1.33973e-08
3.1714e-07
1.33955e-08
3.17096e-07
1.34188e-08
3.17046e-07
1.3469e-08
3.16988e-07
1.35428e-08
3.16924e-07
1.36461e-08
3.1685e-07
1.37721e-08
3.16765e-07
1.3933e-08
3.16664e-07
1.41304e-08
3.16547e-07
1.43864e-08
1.474e-08
3.16417e-07
3.16743e-07
2.4314e-08
3.19657e-07
4.6998e-08
3.20976e-07
4.38219e-08
3.21904e-07
3.78476e-08
3.22766e-07
3.59568e-08
3.23374e-07
3.4476e-08
3.23778e-07
3.21941e-08
3.24108e-07
3.00318e-08
3.24399e-07
2.83492e-08
3.24648e-07
2.695e-08
3.24859e-07
2.56885e-08
3.25043e-07
2.45457e-08
3.25206e-07
2.35217e-08
3.25352e-07
2.26015e-08
3.25482e-07
2.17672e-08
3.25599e-07
2.1005e-08
3.25704e-07
2.03051e-08
3.25798e-07
1.96597e-08
3.25883e-07
1.90622e-08
3.2596e-07
1.85074e-08
3.26028e-07
1.79911e-08
3.2609e-07
1.75101e-08
3.26146e-07
1.70619e-08
3.26196e-07
1.66444e-08
3.2624e-07
1.62562e-08
3.26278e-07
1.58959e-08
3.26312e-07
1.55624e-08
3.2634e-07
1.52549e-08
3.26363e-07
1.49725e-08
3.26382e-07
1.47148e-08
3.26395e-07
1.44809e-08
3.26403e-07
1.42708e-08
3.26406e-07
1.40838e-08
3.26405e-07
1.39202e-08
3.26397e-07
1.37795e-08
3.26385e-07
1.36624e-08
3.26367e-07
1.35684e-08
3.26344e-07
1.34986e-08
3.26316e-07
1.34526e-08
3.26282e-07
1.34314e-08
3.26242e-07
1.34354e-08
3.26196e-07
1.34646e-08
3.26144e-07
1.35207e-08
3.26085e-07
1.36016e-08
3.2602e-07
1.37117e-08
3.25944e-07
1.38478e-08
3.25858e-07
1.40188e-08
3.25757e-07
1.42313e-08
3.25642e-07
1.45015e-08
1.48664e-08
3.25516e-07
3.26153e-07
2.19635e-08
3.28995e-07
4.41562e-08
3.30349e-07
4.2468e-08
3.31256e-07
3.69408e-08
3.32115e-07
3.50976e-08
3.32747e-07
3.38435e-08
3.33168e-07
3.1773e-08
3.33505e-07
2.96952e-08
3.33802e-07
2.80522e-08
3.34056e-07
2.66953e-08
3.34272e-07
2.54725e-08
3.3446e-07
2.43582e-08
3.34626e-07
2.33559e-08
3.34773e-07
2.2454e-08
3.34905e-07
2.16356e-08
3.35022e-07
2.08873e-08
3.35128e-07
2.01997e-08
3.35222e-07
1.95651e-08
3.35307e-07
1.89772e-08
3.35384e-07
1.84311e-08
3.35452e-07
1.79226e-08
3.35514e-07
1.74487e-08
3.35568e-07
1.7007e-08
3.35617e-07
1.65957e-08
3.3566e-07
1.62132e-08
3.35698e-07
1.58583e-08
3.3573e-07
1.55302e-08
3.35757e-07
1.52279e-08
3.35779e-07
1.49506e-08
3.35796e-07
1.46979e-08
3.35807e-07
1.44692e-08
3.35814e-07
1.42641e-08
3.35815e-07