/*--------------------------------*- C++ -*----------------------------------*\
  =========                 |
  \\      /  F ield         | OpenFOAM: The Open Source CFD Toolbox
   \\    /   O peration     | Website:  https://openfoam.org
    \\  /    A nd           | Version:  7
     \\/     M anipulation  |
\*---------------------------------------------------------------------------*/
FoamFile
{
    version     2.0;
    format      ascii;
    class       volVectorField;
    location    "0.05";
    object      U;
}
// * * * * * * * * * * * * * * * * * * * * * * * * * * * * * * * * * * * * * //

dimensions      [0 1 -1 0 0 0 0];

internalField   nonuniform List<vector> 
70000
(
(0.553389 0.0167232 0)
(0.251251 0.00340119 0)
(0.166178 0.0003222 0)
(0.132415 5.44393e-05 0)
(0.117207 4.58776e-05 0)
(0.107264 5.40601e-05 0)
(0.0992957 4.64364e-05 0)
(0.0928335 3.71127e-05 0)
(0.0875652 3.08173e-05 0)
(0.0831709 2.65097e-05 0)
(0.0794221 2.32313e-05 0)
(0.0761709 2.0609e-05 0)
(0.073316 1.84738e-05 0)
(0.0707832 1.67132e-05 0)
(0.0685163 1.52438e-05 0)
(0.0664717 1.40038e-05 0)
(0.0646151 1.29472e-05 0)
(0.0629192 1.20392e-05 0)
(0.0613617 1.12535e-05 0)
(0.0599242 1.05695e-05 0)
(0.0585916 9.9713e-06 0)
(0.0573512 9.44607e-06 0)
(0.0561922 8.98376e-06 0)
(0.0551052 8.57621e-06 0)
(0.0540822 8.21691e-06 0)
(0.0531163 7.90057e-06 0)
(0.0522014 7.62252e-06 0)
(0.0513319 7.38008e-06 0)
(0.0505032 7.16847e-06 0)
(0.0497108 6.98868e-06 0)
(0.0489509 6.83295e-06 0)
(0.0482196 6.70911e-06 0)
(0.0475141 6.601e-06 0)
(0.0468308 6.53005e-06 0)
(0.0461676 6.46218e-06 0)
(0.0455209 6.443e-06 0)
(0.0448891 6.41113e-06 0)
(0.0442696 6.43481e-06 0)
(0.0436589 6.45292e-06 0)
(0.0430594 6.46698e-06 0)
(0.0424579 6.62812e-06 0)
(0.0418775 6.41423e-06 0)
(0.0412661 7.09611e-06 0)
(0.0407208 5.87551e-06 0)
(0.0400578 8.4084e-06 0)
(0.0396114 3.53589e-06 0)
(0.0387888 1.2551e-05 0)
(0.0386291 -5.24242e-06 0)
(0.0375223 2.69142e-05 0)
(0.0353841 -0.00138812 0)
(0.884898 0.0431679 0)
(0.6497 0.0201954 0)
(0.494273 0.00660016 0)
(0.403578 0.00276974 0)
(0.354609 0.00155442 0)
(0.323257 0.00113431 0)
(0.299344 0.000913415 0)
(0.280087 0.000749812 0)
(0.264308 0.000627266 0)
(0.251117 0.000536821 0)
(0.239861 0.000468237 0)
(0.2301 0.000414338 0)
(0.221528 0.000370859 0)
(0.213922 0.000335142 0)
(0.207114 0.000305381 0)
(0.200972 0.000280281 0)
(0.195396 0.000258891 0)
(0.190301 0.000240497 0)
(0.185623 0.000224557 0)
(0.181306 0.000210653 0)
(0.177305 0.000198457 0)
(0.173582 0.000187714 0)
(0.170104 0.000178215 0)
(0.166844 0.000169797 0)
(0.163778 0.000162324 0)
(0.160885 0.000155687 0)
(0.158147 0.000149797 0)
(0.155547 0.000144581 0)
(0.153071 0.000139975 0)
(0.150707 0.000135937 0)
(0.148442 0.000132414 0)
(0.146266 0.000129395 0)
(0.14417 0.000126818 0)
(0.142143 0.000124725 0)
(0.140179 0.000122998 0)
(0.138268 0.000121791 0)
(0.136405 0.000120837 0)
(0.134581 0.000120512 0)
(0.132787 0.000120263 0)
(0.131028 0.000120817 0)
(0.129269 0.000121233 0)
(0.127569 0.000122495 0)
(0.125791 0.000123761 0)
(0.124187 0.000124757 0)
(0.122275 0.000128157 0)
(0.120923 0.000124419 0)
(0.118597 0.000137806 0)
(0.117939 9.29845e-05 0)
(0.114853 0.000292048 0)
(0.112625 -0.00228227 0)
(0.991238 0.0499025 0)
(0.890336 0.0307218 0)
(0.762637 0.0146023 0)
(0.656575 0.00798526 0)
(0.58519 0.0048913 0)
(0.535717 0.00347846 0)
(0.497772 0.00274392 0)
(0.467065 0.00225256 0)
(0.441651 0.00189035 0)
(0.420233 0.00161966 0)
(0.401863 0.00141312 0)
(0.385876 0.00125076 0)
(0.371794 0.00111985 0)
(0.35927 0.0010123 0)
(0.348036 0.000922625 0)
(0.337887 0.000846944 0)
(0.328659 0.000782398 0)
(0.320219 0.000726847 0)
(0.312462 0.000678665 0)
(0.305299 0.000636594 0)
(0.298657 0.000599655 0)
(0.292473 0.000567071 0)
(0.286696 0.000538224 0)
(0.28128 0.000512614 0)
(0.276185 0.000489836 0)
(0.271379 0.00046956 0)
(0.266831 0.000451514 0)
(0.262515 0.000435475 0)
(0.258408 0.000421258 0)
(0.254487 0.00040872 0)
(0.250735 0.000397723 0)
(0.247134 0.000388199 0)
(0.243668 0.000380012 0)
(0.240322 0.000373207 0)
(0.237084 0.00036755 0)
(0.233938 0.000363331 0)
(0.230875 0.000359984 0)
(0.227883 0.00035837 0)
(0.224947 0.000357077 0)
(0.222072 0.000358261 0)
(0.219206 0.000358594 0)
(0.216433 0.000362885 0)
(0.213555 0.000364109 0)
(0.210932 0.00037142 0)
(0.207872 0.000372953 0)
(0.205607 0.000378961 0)
(0.201975 0.000389792 0)
(0.200643 0.00032494 0)
(0.195879 0.000596952 0)
(0.194573 -0.0020818 0)
(1.0156 0.0489217 0)
(1.00595 0.0358795 0)
(0.935915 0.0207993 0)
(0.852035 0.0135141 0)
(0.78203 0.00921925 0)
(0.726754 0.00679432 0)
(0.681583 0.0053984 0)
(0.643722 0.00446111 0)
(0.611587 0.00376926 0)
(0.583988 0.00324528 0)
(0.559991 0.00284079 0)
(0.538888 0.00252066 0)
(0.520152 0.00226139 0)
(0.503379 0.0020476 0)
(0.488254 0.00186879 0)
(0.47453 0.00171745 0)
(0.462004 0.00158805 0)
(0.450514 0.00147643 0)
(0.439925 0.00137941 0)
(0.430125 0.00129453 0)
(0.421021 0.00121987 0)
(0.412531 0.00115389 0)
(0.404589 0.00109536 0)
(0.397135 0.0010433 0)
(0.390117 0.00099689 0)
(0.383493 0.00095548 0)
(0.377221 0.000918527 0)
(0.371267 0.00088558 0)
(0.365601 0.000856272 0)
(0.360193 0.000830302 0)
(0.355019 0.000807414 0)
(0.350055 0.000787435 0)
(0.345281 0.000770141 0)
(0.340675 0.000755542 0)
(0.336223 0.000743286 0)
(0.331903 0.000733782 0)
(0.327702 0.000726128 0)
(0.323605 0.00072177 0)
(0.319592 0.000718185 0)
(0.315667 0.000719493 0)
(0.311768 0.000718918 0)
(0.307991 0.000727126 0)
(0.304104 0.000727216 0)
(0.300518 0.00074426 0)
(0.296445 0.000740857 0)
(0.293269 0.000764769 0)
(0.288581 0.000764663 0)
(0.286405 0.000702269 0)
(0.280445 0.000954266 0)
(0.279119 -0.001416 0)
(1.01434 0.0460053 0)
(1.04753 0.0374941 0)
(1.02455 0.0241619 0)
(0.97469 0.017573 0)
(0.923316 0.0131388 0)
(0.876468 0.0102251 0)
(0.834215 0.0083643 0)
(0.796363 0.0070461 0)
(0.76268 0.00603918 0)
(0.732728 0.00525452 0)
(0.705996 0.00463528 0)
(0.682013 0.00413732 0)
(0.660381 0.00372928 0)
(0.640768 0.00338967 0)
(0.622898 0.00310346 0)
(0.60654 0.00285965 0)
(0.591502 0.00265005 0)
(0.577622 0.0024684 0)
(0.564763 0.00230986 0)
(0.552808 0.00217064 0)
(0.541657 0.00204776 0)
(0.531223 0.00193882 0)
(0.521434 0.00184191 0)
(0.512222 0.00175544 0)
(0.503531 0.00167816 0)
(0.495311 0.00160899 0)
(0.487516 0.00154707 0)
(0.480107 0.00149168 0)
(0.473048 0.00144223 0)
(0.466305 0.00139822 0)
(0.45985 0.00135924 0)
(0.453655 0.001325 0)
(0.447697 0.00129517 0)
(0.441949 0.00126969 0)
(0.436395 0.00124809 0)
(0.431008 0.00123088 0)
(0.425776 0.00121682 0)
(0.420676 0.00120796 0)
(0.415688 0.00120058 0)
(0.410812 0.00120098 0)
(0.405987 0.00119853 0)
(0.4013 0.00121049 0)
(0.396524 0.00120885 0)
(0.392056 0.00123657 0)
(0.387128 0.00122794 0)
(0.38307 0.0012716 0)
(0.377589 0.00126012 0)
(0.374438 0.0012091 0)
(0.367848 0.00141766 0)
(0.36545 -0.000620961 0)
(1.00933 0.0429168 0)
(1.05527 0.0372701 0)
(1.05867 0.0253079 0)
(1.03632 0.0197759 0)
(1.007 0.0158325 0)
(0.975885 0.0129608 0)
(0.944276 0.0109887 0)
(0.913309 0.00951079 0)
(0.883837 0.0083247 0)
(0.856244 0.00736114 0)
(0.830609 0.00657526 0)
(0.80687 0.005927 0)
(0.784906 0.00538504 0)
(0.764575 0.00492666 0)
(0.74573 0.00453517 0)
(0.728231 0.00419797 0)
(0.711947 0.00390534 0)
(0.69676 0.00364968 0)
(0.682563 0.00342497 0)
(0.669263 0.00322644 0)
(0.656772 0.00305025 0)
(0.645017 0.00289328 0)
(0.633929 0.002753 0)
(0.623448 0.00262732 0)
(0.61352 0.00251454 0)
(0.604095 0.00241321 0)
(0.59513 0.00232216 0)
(0.586586 0.0022404 0)
(0.578425 0.0021671 0)
(0.570614 0.00210159 0)
(0.563124 0.0020433 0)
(0.555925 0.0019918 0)
(0.548992 0.00194665 0)
(0.5423 0.00190774 0)
(0.535828 0.00187447 0)
(0.52955 0.00184745 0)
(0.523451 0.00182511 0)
(0.517507 0.00181008 0)
(0.511699 0.00179753 0)
(0.506019 0.00179575 0)
(0.500415 0.00179062 0)
(0.494955 0.00180537 0)
(0.489441 0.00180215 0)
(0.484211 0.00183928 0)
(0.478603 0.0018278 0)
(0.473744 0.00188743 0)
(0.467711 0.00187211 0)
(0.463568 0.00182575 0)
(0.456749 0.0020076 0)
(0.45297 0.000265397 0)
(1.00625 0.0400355 0)
(1.05206 0.0363431 0)
(1.06607 0.0252384 0)
(1.05956 0.020578 0)
(1.0468 0.0172629 0)
(1.03067 0.0146856 0)
(1.0117 0.0128547 0)
(0.99093 0.0114353 0)
(0.969415 0.0102443 0)
(0.947887 0.00923432 0)
(0.926789 0.00837967 0)
(0.906384 0.00765259 0)
(0.886819 0.00702872 0)
(0.868163 0.00648933 0)
(0.850435 0.00602 0)
(0.833622 0.00560928 0)
(0.817694 0.00524796 0)
(0.802606 0.00492853 0)
(0.788313 0.00464488 0)
(0.774763 0.004392 0)
(0.761907 0.00416578 0)
(0.749697 0.0039628 0)
(0.738088 0.00378023 0)
(0.727035 0.00361571 0)
(0.716498 0.00346727 0)
(0.706438 0.00333323 0)
(0.696821 0.00321222 0)
(0.687612 0.00310305 0)
(0.678781 0.00300474 0)
(0.670298 0.00291646 0)
(0.662136 0.00283755 0)
(0.65427 0.00276746 0)
(0.646677 0.00270568 0)
(0.63933 0.00265203 0)
(0.632213 0.00260586 0)
(0.6253 0.00256783 0)
(0.618575 0.00253614 0)
(0.612015 0.00251386 0)
(0.605603 0.00249533 0)
(0.599326 0.00249039 0)
(0.593143 0.00248227 0)
(0.587099 0.00249861 0)
(0.581039 0.00249468 0)
(0.57522 0.0025388 0)
(0.569127 0.00252844 0)
(0.563618 0.0025976 0)
(0.557241 0.00258873 0)
(0.552244 0.00253804 0)
(0.545374 0.00270889 0)
(0.540447 0.00124934 0)
(1.00495 0.0373576 0)
(1.04727 0.0352615 0)
(1.06396 0.0246994 0)
(1.06422 0.020606 0)
(1.06062 0.0178034 0)
(1.05465 0.0155322 0)
(1.04584 0.0139174 0)
(1.03458 0.0126642 0)
(1.02158 0.0115858 0)
(1.00745 0.0106405 0)
(0.992641 0.0098152 0)
(0.977509 0.00909244 0)
(0.962317 0.00845558 0)
(0.94726 0.00789156 0)
(0.932474 0.00739016 0)
(0.918051 0.00694297 0)
(0.904048 0.00654288 0)
(0.890502 0.00618389 0)
(0.877428 0.00586088 0)
(0.864831 0.00556952 0)
(0.852707 0.00530613 0)
(0.841044 0.00506759 0)
(0.829827 0.00485123 0)
(0.819039 0.00465477 0)
(0.808659 0.00447628 0)
(0.798667 0.0043141 0)
(0.789043 0.00416681 0)
(0.779766 0.00403321 0)
(0.770814 0.00391228 0)
(0.762167 0.00380315 0)
(0.753807 0.00370512 0)
(0.745713 0.00361762 0)
(0.737868 0.00354013 0)
(0.73025 0.00347244 0)
(0.722846 0.0034139 0)
(0.715633 0.00336522 0)
(0.708599 0.00332449 0)
(0.701723 0.00329508 0)
(0.694991 0.00327084 0)
(0.688387 0.00326258 0)
(0.681883 0.00325202 0)
(0.675502 0.00326921 0)
(0.669135 0.00326615 0)
(0.662956 0.00331492 0)
(0.656598 0.00331 0)
(0.650664 0.00338295 0)
(0.644136 0.00338863 0)
(0.638541 0.00333099 0)
(0.631712 0.00349679 0)
(0.626023 0.00231047 0)
(1.0044 0.0348099 0)
(1.04323 0.0341888 0)
(1.05992 0.0240592 0)
(1.06226 0.0203136 0)
(1.06244 0.0178694 0)
(1.06172 0.0158164 0)
(1.05911 0.014376 0)
(1.05451 0.0132894 0)
(1.04823 0.0123546 0)
(1.04058 0.011523 0)
(1.03184 0.0107838 0)
(1.02226 0.0101238 0)
(1.01207 0.00952997 0)
(1.00148 0.00899308 0)
(0.990633 0.00850616 0)
(0.979669 0.00806365 0)
(0.968689 0.00766082 0)
(0.957775 0.00729354 0)
(0.946986 0.00695821 0)
(0.936368 0.00665169 0)
(0.925954 0.00637124 0)
(0.915766 0.00611445 0)
(0.905819 0.00587922 0)
(0.89612 0.00566371 0)
(0.886673 0.00546631 0)
(0.877478 0.0052856 0)
(0.86853 0.00512038 0)
(0.859825 0.00496957 0)
(0.851354 0.0048323 0)
(0.843109 0.00470778 0)
(0.83508 0.0045954 0)
(0.827256 0.00449463 0)
(0.819628 0.00440503 0)
(0.812182 0.00432645 0)
(0.804908 0.00425829 0)
(0.797791 0.00420134 0)
(0.790823 0.00415369 0)
(0.783985 0.00411891 0)
(0.777271 0.00409067 0)
(0.770663 0.00408025 0)
(0.764144 0.00406892 0)
(0.757723 0.00408727 0)
(0.751327 0.00408735 0)
(0.745068 0.0041396 0)
(0.738696 0.00414406 0)
(0.732613 0.00421773 0)
(0.72614 0.0042425 0)
(0.720261 0.00418179 0)
(0.71359 0.00434371 0)
(0.707522 0.00341499 0)
(1.00402 0.0323699 0)
(1.0399 0.0331392 0)
(1.05615 0.023437 0)
(1.0589 0.0199268 0)
(1.06017 0.0177409 0)
(1.06149 0.0158232 0)
(1.06183 0.0144846 0)
(1.0609 0.0135138 0)
(1.05879 0.0126961 0)
(1.0556 0.0119716 0)
(1.05144 0.011327 0)
(1.0464 0.0107484 0)
(1.04061 0.0102233 0)
(1.03421 0.00974268 0)
(1.02729 0.00930082 0)
(1.01999 0.00889348 0)
(1.01238 0.00851729 0)
(1.00456 0.00816944 0)
(0.996589 0.00784754 0)
(0.988537 0.0075495 0)
(0.980451 0.00727353 0)
(0.972371 0.00701802 0)
(0.964329 0.00678155 0)
(0.956352 0.00656285 0)
(0.948459 0.0063608 0)
(0.940665 0.00617439 0)
(0.932981 0.00600275 0)
(0.925415 0.00584509 0)
(0.917971 0.00570077 0)
(0.910653 0.00556919 0)
(0.903459 0.00544995 0)
(0.896389 0.00534265 0)
(0.88944 0.005247 0)
(0.882607 0.00516297 0)
(0.875887 0.00509007 0)
(0.869271 0.00502922 0)
(0.862757 0.00497861 0)
(0.85633 0.00494193 0)
(0.84999 0.00491297 0)
(0.843721 0.00490301 0)
(0.837515 0.00489378 0)
(0.831373 0.00491495 0)
(0.825249 0.00492115 0)
(0.819212 0.00497725 0)
(0.8131 0.00499463 0)
(0.807167 0.0050688 0)
(0.80098 0.00511482 0)
(0.795141 0.00505858 0)
(0.788794 0.00521757 0)
(0.782702 0.00452419 0)
(1.00364 0.0300297 0)
(1.03692 0.0320922 0)
(1.0528 0.0228482 0)
(1.05566 0.0195229 0)
(1.05708 0.0175507 0)
(1.05895 0.0157254 0)
(1.06036 0.0144348 0)
(1.06102 0.0135276 0)
(1.06098 0.0127842 0)
(1.06028 0.012135 0)
(1.05891 0.0115638 0)
(1.05689 0.0110557 0)
(1.05425 0.0105963 0)
(1.05103 0.0101758 0)
(1.0473 0.00978777 0)
(1.04311 0.00942791 0)
(1.03852 0.00909299 0)
(1.0336 0.00878059 0)
(1.02839 0.00848877 0)
(1.02295 0.00821599 0)
(1.01733 0.00796099 0)
(1.01156 0.00772271 0)
(1.00568 0.00750025 0)
(0.999723 0.00729281 0)
(0.993711 0.00709971 0)
(0.987669 0.0069203 0)
(0.981615 0.00675409 0)
(0.975564 0.00660058 0)
(0.969527 0.00645941 0)
(0.963516 0.00633022 0)
(0.957538 0.00621282 0)
(0.951597 0.00610702 0)
(0.945699 0.0060127 0)
(0.939844 0.00593001 0)
(0.934036 0.00585862 0)
(0.92827 0.00579958 0)
(0.92255 0.00575126 0)
(0.916867 0.00571742 0)
(0.911223 0.00569213 0)
(0.90561 0.00568644 0)
(0.900022 0.00568313 0)
(0.894461 0.00570994 0)
(0.888896 0.00572579 0)
(0.883372 0.00578754 0)
(0.877784 0.00582105 0)
(0.87229 0.00589782 0)
(0.866623 0.00596601 0)
(0.861128 0.00592316 0)
(0.855297 0.00608155 0)
(0.849503 0.00559727 0)
(1.00327 0.0277901 0)
(1.03409 0.031034 0)
(1.04969 0.0222858 0)
(1.05269 0.0191171 0)
(1.05408 0.0173417 0)
(1.05601 0.0155984 0)
(1.05769 0.0143302 0)
(1.05887 0.0134537 0)
(1.05965 0.0127516 0)
(1.06006 0.0121465 0)
(1.0601 0.0116212 0)
(1.05972 0.0111606 0)
(1.05894 0.0107496 0)
(1.05775 0.0103769 0)
(1.05616 0.0100351 0)
(1.05419 0.00971916 0)
(1.05187 0.00942545 0)
(1.04921 0.00915119 0)
(1.04626 0.00889433 0)
(1.04305 0.00865332 0)
(1.03959 0.00842699 0)
(1.03593 0.00821446 0)
(1.03208 0.00801502 0)
(1.02808 0.00782811 0)
(1.02394 0.0076533 0)
(1.01969 0.00749019 0)
(1.01535 0.00733852 0)
(1.01093 0.00719801 0)
(1.00644 0.00706853 0)
(1.0019 0.00694993 0)
(0.997322 0.0068422 0)
(0.992709 0.00674532 0)
(0.988072 0.00665938 0)
(0.983414 0.00658466 0)
(0.978742 0.006521 0)
(0.974056 0.0064696 0)
(0.969363 0.006429 0)
(0.964658 0.00640303 0)
(0.959946 0.00638615 0)
(0.955223 0.00638894 0)
(0.950487 0.00639566 0)
(0.94574 0.00643145 0)
(0.940964 0.00646058 0)
(0.936186 0.00653061 0)
(0.931342 0.00658303 0)
(0.926524 0.00666587 0)
(0.921578 0.0067566 0)
(0.91668 0.0067358 0)
(0.911543 0.00689731 0)
(0.906314 0.00659453 0)
(1.00292 0.0256545 0)
(1.03138 0.0299601 0)
(1.04669 0.0217456 0)
(1.0499 0.0187092 0)
(1.05126 0.0171207 0)
(1.05315 0.0154643 0)
(1.05487 0.014212 0)
(1.05617 0.0133516 0)
(1.05718 0.012673 0)
(1.05799 0.0120923 0)
(1.05858 0.0115922 0)
(1.05896 0.0111591 0)
(1.05909 0.0107777 0)
(1.05897 0.0104361 0)
(1.0586 0.0101265 0)
(1.05797 0.00984306 0)
(1.05708 0.00958165 0)
(1.05594 0.00933905 0)
(1.05456 0.00911285 0)
(1.05296 0.00890124 0)
(1.05113 0.00870288 0)
(1.04911 0.00851678 0)
(1.0469 0.00834221 0)
(1.04452 0.0081786 0)
(1.04198 0.00802559 0)
(1.0393 0.00788285 0)
(1.03649 0.0077502 0)
(1.03356 0.0076275 0)
(1.03053 0.0075147 0)
(1.02741 0.00741177 0)
(1.0242 0.00731883 0)
(1.02091 0.007236 0)
(1.01755 0.00716345 0)
(1.01413 0.00710163 0)
(1.01065 0.00705045 0)
(1.00712 0.00701129 0)
(1.00354 0.0069828 0)
(0.999909 0.00696885 0)
(0.996237 0.00696435 0)
(0.99252 0.00697922 0)
(0.988758 0.00699951 0)
(0.984954 0.0070473 0)
(0.981097 0.00709271 0)
(0.977205 0.00717369 0)
(0.973241 0.00724697 0)
(0.969252 0.00733973 0)
(0.965157 0.00745285 0)
(0.96103 0.0074613 0)
(0.956711 0.00763034 0)
(0.952234 0.00748189 0)
(1.0026 0.0236256 0)
(1.02879 0.0288693 0)
(1.04377 0.0212264 0)
(1.04721 0.0182993 0)
(1.04858 0.0168862 0)
(1.05043 0.0153258 0)
(1.05214 0.0140913 0)
(1.05345 0.0132422 0)
(1.0545 0.0125803 0)
(1.0554 0.0120152 0)
(1.05617 0.0115295 0)
(1.05681 0.0111114 0)
(1.05731 0.0107464 0)
(1.05766 0.0104228 0)
(1.05787 0.0101325 0)
(1.05792 0.00986955 0)
(1.05781 0.00962949 0)
(1.05754 0.00940884 0)
(1.0571 0.00920491 0)
(1.0565 0.00901564 0)
(1.05574 0.00883946 0)
(1.05482 0.00867522 0)
(1.05375 0.00852203 0)
(1.05253 0.00837927 0)
(1.05118 0.00824648 0)
(1.04969 0.00812332 0)
(1.04808 0.00800959 0)
(1.04636 0.00790515 0)
(1.04452 0.00780998 0)
(1.04257 0.00772409 0)
(1.04053 0.00764762 0)
(1.03839 0.00758077 0)
(1.03617 0.00752375 0)
(1.03387 0.00747709 0)
(1.03148 0.00744077 0)
(1.02903 0.00741624 0)
(1.0265 0.00740228 0)
(1.0239 0.0074027 0)
(1.02124 0.00741291 0)
(1.01851 0.00744202 0)
(1.01572 0.00747801 0)
(1.01287 0.00753968 0)
(1.00995 0.0076031 0)
(1.00697 0.00769697 0)
(1.00392 0.00779175 0)
(1.00081 0.00789768 0)
(0.997604 0.00803239 0)
(0.994318 0.00807493 0)
(0.990866 0.00825572 0)
(0.987227 0.00823587 0)
(1.0023 0.0217051 0)
(1.02633 0.0277623 0)
(1.04094 0.0207264 0)
(1.04461 0.0178887 0)
(1.04599 0.0166369 0)
(1.04781 0.0151813 0)
(1.04952 0.0139693 0)
(1.05082 0.0131306 0)
(1.05186 0.0124838 0)
(1.05277 0.0119318 0)
(1.05357 0.011456 0)
(1.05427 0.0110471 0)
(1.05489 0.0106918 0)
(1.05541 0.0103784 0)
(1.05585 0.0100991 0)
(1.05619 0.00984799 0)
(1.05643 0.00962062 0)
(1.05658 0.00941345 0)
(1.05662 0.00922367 0)
(1.05656 0.0090491 0)
(1.0564 0.00888806 0)
(1.05612 0.00873926 0)
(1.05575 0.00860173 0)
(1.05526 0.00847474 0)
(1.05468 0.00835776 0)
(1.05399 0.00825039 0)
(1.0532 0.00815238 0)
(1.05231 0.00806355 0)
(1.05133 0.00798386 0)
(1.05026 0.00791331 0)
(1.0491 0.00785203 0)
(1.04785 0.00780023 0)
(1.04652 0.0077581 0)
(1.0451 0.00772626 0)
(1.04361 0.00770465 0)
(1.04204 0.00769478 0)
(1.0404 0.00769554 0)
(1.03868 0.00771057 0)
(1.03689 0.00773585 0)
(1.03503 0.00777952 0)
(1.0331 0.00783158 0)
(1.0311 0.00790748 0)
(1.02903 0.00798898 0)
(1.0269 0.00809642 0)
(1.02468 0.00821186 0)
(1.0224 0.00833295 0)
(1.02003 0.00848765 0)
(1.01755 0.00856633 0)
(1.01493 0.00876214 0)
(1.01211 0.00884716 0)
(1.00203 0.0198939 0)
(1.02401 0.0266423 0)
(1.0382 0.0202428 0)
(1.04208 0.0174795 0)
(1.0435 0.016373 0)
(1.04529 0.0150295 0)
(1.04699 0.0138453 0)
(1.0483 0.0130171 0)
(1.04932 0.0123854 0)
(1.05021 0.0118462 0)
(1.051 0.0113796 0)
(1.05171 0.0109781 0)
(1.05235 0.0106296 0)
(1.05291 0.010323 0)
(1.05341 0.0100505 0)
(1.05385 0.00980646 0)
(1.05423 0.00958658 0)
(1.05454 0.00938734 0)
(1.05479 0.00920598 0)
(1.05498 0.00904032 0)
(1.0551 0.00888866 0)
(1.05516 0.00874966 0)
(1.05514 0.00862234 0)
(1.05506 0.00850591 0)
(1.05491 0.00839981 0)
(1.05469 0.00830362 0)
(1.0544 0.00821703 0)
(1.05403 0.00813986 0)
(1.0536 0.00807203 0)
(1.0531 0.00801352 0)
(1.05252 0.00796443 0)
(1.05188 0.00792498 0)
(1.05117 0.00789533 0)
(1.05038 0.00787611 0)
(1.04953 0.00786725 0)
(1.04862 0.00787027 0)
(1.04764 0.00788416 0)
(1.04659 0.00791233 0)
(1.04547 0.00795133 0)
(1.04429 0.00800828 0)
(1.04304 0.00807515 0)
(1.04173 0.00816421 0)
(1.04036 0.00826232 0)
(1.03891 0.00838273 0)
(1.0374 0.00851664 0)
(1.03581 0.00865339 0)
(1.03415 0.00882578 0)
(1.03238 0.00894 0)
(1.03047 0.00915276 0)
(1.02839 0.00932129 0)
(1.00179 0.0181922 0)
(1.02183 0.0255131 0)
(1.03557 0.0197715 0)
(1.03965 0.0170735 0)
(1.04109 0.0160952 0)
(1.04285 0.0148694 0)
(1.04455 0.0137189 0)
(1.04586 0.0129016 0)
(1.04687 0.012285 0)
(1.04775 0.0117594 0)
(1.04853 0.0113021 0)
(1.04923 0.0109076 0)
(1.04985 0.0105652 0)
(1.05042 0.0102643 0)
(1.05092 0.009997 0)
(1.05138 0.00975803 0)
(1.05179 0.00954316 0)
(1.05216 0.00934902 0)
(1.05248 0.00917292 0)
(1.05276 0.00901272 0)
(1.053 0.00886676 0)
(1.05319 0.00873376 0)
(1.05335 0.00861272 0)
(1.05345 0.0085029 0)
(1.05351 0.00840374 0)
(1.05353 0.00831481 0)
(1.0535 0.00823583 0)
(1.05342 0.00816658 0)
(1.05329 0.00810699 0)
(1.05312 0.00805704 0)
(1.05289 0.0080168 0)
(1.05261 0.00798651 0)
(1.05228 0.00796628 0)
(1.0519 0.00795678 0)
(1.05147 0.00795793 0)
(1.05098 0.0079712 0)
(1.05044 0.00799571 0)
(1.04985 0.00803459 0)
(1.0492 0.00808501 0)
(1.0485 0.00815299 0)
(1.04774 0.00823241 0)
(1.04692 0.00833261 0)
(1.04606 0.00844484 0)
(1.04513 0.00857671 0)
(1.04414 0.00872607 0)
(1.04309 0.00887774 0)
(1.04197 0.0090651 0)
(1.04075 0.00921224 0)
(1.03941 0.00944253 0)
(1.03791 0.00967598 0)
(1.00157 0.0165997 0)
(1.01978 0.0243788 0)
(1.03303 0.0193085 0)
(1.0373 0.0166724 0)
(1.03878 0.0158047 0)
(1.0405 0.0147004 0)
(1.0422 0.0135897 0)
(1.0435 0.012784 0)
(1.04452 0.0121823 0)
(1.04538 0.011671 0)
(1.04615 0.0112236 0)
(1.04683 0.0108364 0)
(1.04744 0.0105002 0)
(1.048 0.0102046 0)
(1.04849 0.00994222 0)
(1.04895 0.00970767 0)
(1.04936 0.00949692 0)
(1.04973 0.00930672 0)
(1.05007 0.00913446 0)
(1.05037 0.00897807 0)
(1.05065 0.00883595 0)
(1.05089 0.00870687 0)
(1.0511 0.00858988 0)
(1.05128 0.00848427 0)
(1.05143 0.00838953 0)
(1.05155 0.00830524 0)
(1.05163 0.00823116 0)
(1.05169 0.0081671 0)
(1.05171 0.00811298 0)
(1.0517 0.00806882 0)
(1.05165 0.00803466 0)
(1.05157 0.00801077 0)
(1.05145 0.00799727 0)
(1.05129 0.0079948 0)
(1.0511 0.00800331 0)
(1.05086 0.00802421 0)
(1.05059 0.00805678 0)
(1.05027 0.00810383 0)
(1.04991 0.00816316 0)
(1.04951 0.00823973 0)
(1.04907 0.00832914 0)
(1.04858 0.00843821 0)
(1.04805 0.00856174 0)
(1.04746 0.00870319 0)
(1.04684 0.00886479 0)
(1.04615 0.00902992 0)
(1.04541 0.00922961 0)
(1.04458 0.00940587 0)
(1.04364 0.00965324 0)
(1.04258 0.00993605 0)
(1.00137 0.0151154 0)
(1.01787 0.0232431 0)
(1.0306 0.0188501 0)
(1.03503 0.0162777 0)
(1.03656 0.015503 0)
(1.03824 0.0145217 0)
(1.03993 0.0134574 0)
(1.04124 0.0126643 0)
(1.04225 0.0120774 0)
(1.0431 0.0115808 0)
(1.04385 0.0111441 0)
(1.04453 0.0107645 0)
(1.04513 0.0104346 0)
(1.04567 0.0101446 0)
(1.04615 0.00988705 0)
(1.0466 0.00965684 0)
(1.047 0.00945002 0)
(1.04736 0.00926344 0)
(1.0477 0.00909455 0)
(1.048 0.00894136 0)
(1.04828 0.00880232 0)
(1.04852 0.00867624 0)
(1.04875 0.00856225 0)
(1.04895 0.00845966 0)
(1.04913 0.00836801 0)
(1.04928 0.00828694 0)
(1.04941 0.00821622 0)
(1.04952 0.00815571 0)
(1.0496 0.00810535 0)
(1.04966 0.00806517 0)
(1.04969 0.00803525 0)
(1.0497 0.00801585 0)
(1.04968 0.00800711 0)
(1.04963 0.00800967 0)
(1.04956 0.00802353 0)
(1.04945 0.00805001 0)
(1.04932 0.00808858 0)
(1.04915 0.00814172 0)
(1.04895 0.00820781 0)
(1.04872 0.00829088 0)
(1.04846 0.00838801 0)
(1.04816 0.00850397 0)
(1.04783 0.00863625 0)
(1.04746 0.00878553 0)
(1.04705 0.00895657 0)
(1.04659 0.00913349 0)
(1.04608 0.00934332 0)
(1.04551 0.00954459 0)
(1.04484 0.00980809 0)
(1.04407 0.0101278 0)
(1.0012 0.0137378 0)
(1.0161 0.0221103 0)
(1.02828 0.0183923 0)
(1.03285 0.0158905 0)
(1.03444 0.0151917 0)
(1.03607 0.014333 0)
(1.03775 0.0133216 0)
(1.03907 0.0125426 0)
(1.04007 0.0119701 0)
(1.04091 0.0114888 0)
(1.04165 0.0110633 0)
(1.04232 0.0106917 0)
(1.04291 0.0103684 0)
(1.04343 0.0100841 0)
(1.04391 0.00983163 0)
(1.04434 0.00960587 0)
(1.04473 0.00940303 0)
(1.04509 0.00922006 0)
(1.04541 0.00905448 0)
(1.0457 0.00890434 0)
(1.04597 0.00876816 0)
(1.04621 0.00864478 0)
(1.04644 0.00853339 0)
(1.04663 0.00843335 0)
(1.04681 0.00834424 0)
(1.04697 0.00826573 0)
(1.04711 0.00819765 0)
(1.04723 0.00813988 0)
(1.04734 0.00809238 0)
(1.04742 0.00805523 0)
(1.04748 0.00802851 0)
(1.04752 0.0080125 0)
(1.04754 0.00800736 0)
(1.04754 0.00801374 0)
(1.04751 0.00803167 0)
(1.04747 0.0080624 0)
(1.0474 0.00810559 0)
(1.0473 0.00816339 0)
(1.04718 0.00823474 0)
(1.04704 0.00832284 0)
(1.04686 0.00842599 0)
(1.04666 0.0085474 0)
(1.04644 0.00868649 0)
(1.04618 0.00884228 0)
(1.04589 0.00902066 0)
(1.04556 0.0092079 0)
(1.04519 0.00942636 0)
(1.04476 0.00964882 0)
(1.04425 0.00992733 0)
(1.04366 0.0102745 0)
(1.00104 0.0124646 0)
(1.01446 0.0209847 0)
(1.02607 0.0179319 0)
(1.03076 0.0155116 0)
(1.03241 0.0148728 0)
(1.034 0.0141337 0)
(1.03566 0.0131817 0)
(1.03698 0.0124188 0)
(1.03798 0.0118604 0)
(1.03881 0.0113948 0)
(1.03955 0.0109812 0)
(1.0402 0.010618 0)
(1.04078 0.0103015 0)
(1.04129 0.0100232 0)
(1.04176 0.00977592 0)
(1.04218 0.00955476 0)
(1.04256 0.00935602 0)
(1.0429 0.00917675 0)
(1.04322 0.00901453 0)
(1.0435 0.00886748 0)
(1.04376 0.00873415 0)
(1.04399 0.00861344 0)
(1.04421 0.00850456 0)
(1.0444 0.00840695 0)
(1.04457 0.0083202 0)
(1.04473 0.00824404 0)
(1.04486 0.00817832 0)
(1.04498 0.00812297 0)
(1.04508 0.00807797 0)
(1.04517 0.00804343 0)
(1.04524 0.00801943 0)
(1.04528 0.0080063 0)
(1.04531 0.00800419 0)
(1.04533 0.00801374 0)
(1.04532 0.00803508 0)
(1.04529 0.00806933 0)
(1.04525 0.00811635 0)
(1.04518 0.008178 0)
(1.04509 0.00825371 0)
(1.04498 0.00834598 0)
(1.04485 0.00845409 0)
(1.04469 0.00858009 0)
(1.04452 0.00872472 0)
(1.04431 0.00888621 0)
(1.04408 0.00907061 0)
(1.04382 0.00926706 0)
(1.04351 0.00949333 0)
(1.04316 0.00973377 0)
(1.04274 0.0100263 0)
(1.04225 0.0103939 0)
(1.0009 0.0112929 0)
(1.01295 0.0198706 0)
(1.02397 0.0174657 0)
(1.02876 0.0151416 0)
(1.03047 0.0145484 0)
(1.03203 0.0139237 0)
(1.03366 0.0130372 0)
(1.03498 0.0122931 0)
(1.03599 0.0117484 0)
(1.03681 0.0112986 0)
(1.03753 0.0108976 0)
(1.03817 0.0105433 0)
(1.03874 0.0102338 0)
(1.03925 0.00996169 0)
(1.0397 0.00971985 0)
(1.04011 0.00950346 0)
(1.04048 0.00930897 0)
(1.04082 0.00913351 0)
(1.04112 0.00897476 0)
(1.04139 0.00883087 0)
(1.04164 0.00870045 0)
(1.04187 0.00858245 0)
(1.04207 0.00847612 0)
(1.04225 0.00838093 0)
(1.04242 0.00829654 0)
(1.04257 0.0082227 0)
(1.0427 0.00815929 0)
(1.04281 0.00810628 0)
(1.04291 0.00806368 0)
(1.04299 0.0080316 0)
(1.04305 0.00801017 0)
(1.0431 0.00799972 0)
(1.04313 0.00800042 0)
(1.04314 0.00801291 0)
(1.04313 0.00803735 0)
(1.04311 0.0080748 0)
(1.04307 0.0081253 0)
(1.04301 0.00819043 0)
(1.04293 0.00827003 0)
(1.04283 0.00836607 0)
(1.04271 0.00847853 0)
(1.04257 0.00860874 0)
(1.04242 0.00875816 0)
(1.04223 0.00892495 0)
(1.04203 0.00911469 0)
(1.04179 0.00931961 0)
(1.04152 0.00955338 0)
(1.0412 0.0098093 0)
(1.04083 0.0101149 0)
(1.04039 0.0104983 0)
(1.00078 0.0102191 0)
(1.01157 0.0187725 0)
(1.02199 0.016991 0)
(1.02684 0.0147805 0)
(1.02862 0.0142206 0)
(1.03014 0.0137029 0)
(1.03175 0.0128873 0)
(1.03307 0.0121652 0)
(1.03408 0.011634 0)
(1.03489 0.0112002 0)
(1.03561 0.0108124 0)
(1.03624 0.0104675 0)
(1.0368 0.0101654 0)
(1.0373 0.00989958 0)
(1.03774 0.00966336 0)
(1.03814 0.00945191 0)
(1.0385 0.00926181 0)
(1.03883 0.00909029 0)
(1.03912 0.00893511 0)
(1.03938 0.00879449 0)
(1.03962 0.00866706 0)
(1.03984 0.00855184 0)
(1.04004 0.00844812 0)
(1.04021 0.00835542 0)
(1.04037 0.00827342 0)
(1.04051 0.00820194 0)
(1.04063 0.00814087 0)
(1.04073 0.00809022 0)
(1.04082 0.00805002 0)
(1.0409 0.00802041 0)
(1.04095 0.00800153 0)
(1.04099 0.00799372 0)
(1.04102 0.00799719 0)
(1.04103 0.00801254 0)
(1.04102 0.00804002 0)
(1.04099 0.00808058 0)
(1.04095 0.00813443 0)
(1.04089 0.00820292 0)
(1.04081 0.00828622 0)
(1.04071 0.00838589 0)
(1.0406 0.00850243 0)
(1.04046 0.00863673 0)
(1.04031 0.00879061 0)
(1.04013 0.00896254 0)
(1.03993 0.00915739 0)
(1.0397 0.00937027 0)
(1.03944 0.00961155 0)
(1.03914 0.00988102 0)
(1.03879 0.0101989 0)
(1.03839 0.0105948 0)
(1.00067 0.00923933 0)
(1.01031 0.0176948 0)
(1.02011 0.0165057 0)
(1.02501 0.014428 0)
(1.02687 0.0138914 0)
(1.02835 0.0134717 0)
(1.02993 0.0127314 0)
(1.03125 0.012035 0)
(1.03226 0.0115174 0)
(1.03307 0.0110994 0)
(1.03377 0.0107255 0)
(1.0344 0.0103905 0)
(1.03495 0.010096 0)
(1.03544 0.00983678 0)
(1.03587 0.00960638 0)
(1.03626 0.00940005 0)
(1.03662 0.00921448 0)
(1.03693 0.00904704 0)
(1.03722 0.00889555 0)
(1.03747 0.00875828 0)
(1.0377 0.00863394 0)
(1.03791 0.00852158 0)
(1.0381 0.00842055 0)
(1.03826 0.0083304 0)
(1.03841 0.00825086 0)
(1.03854 0.00818179 0)
(1.03866 0.00812312 0)
(1.03876 0.00807488 0)
(1.03884 0.00803712 0)
(1.03891 0.00801003 0)
(1.03896 0.00799374 0)
(1.03899 0.00798861 0)
(1.03901 0.00799487 0)
(1.03901 0.00801312 0)
(1.039 0.00804364 0)
(1.03897 0.00808732 0)
(1.03892 0.0081445 0)
(1.03885 0.00821635 0)
(1.03877 0.0083033 0)
(1.03867 0.00840662 0)
(1.03855 0.00852714 0)
(1.03842 0.00866555 0)
(1.03826 0.00882376 0)
(1.03809 0.00900083 0)
(1.03789 0.00920079 0)
(1.03766 0.00942132 0)
(1.03741 0.00967021 0)
(1.03711 0.00995178 0)
(1.03678 0.0102811 0)
(1.0364 0.0106873 0)
(1.00058 0.00834882 0)
(1.00916 0.0166418 0)
(1.01836 0.0160079 0)
(1.02326 0.0140836 0)
(1.0252 0.0135628 0)
(1.02665 0.0132305 0)
(1.02819 0.012569 0)
(1.02952 0.0119024 0)
(1.03052 0.0113986 0)
(1.03133 0.0109962 0)
(1.03202 0.0106366 0)
(1.03264 0.0103122 0)
(1.03319 0.0100256 0)
(1.03367 0.0097732 0)
(1.0341 0.00954881 0)
(1.03448 0.0093478 0)
(1.03482 0.00916693 0)
(1.03513 0.00900369 0)
(1.03541 0.00885601 0)
(1.03565 0.0087222 0)
(1.03588 0.00860104 0)
(1.03608 0.00849163 0)
(1.03626 0.00839336 0)
(1.03642 0.00830583 0)
(1.03656 0.00822882 0)
(1.03668 0.00816223 0)
(1.03679 0.00810602 0)
(1.03688 0.00806025 0)
(1.03696 0.00802501 0)
(1.03702 0.00800048 0)
(1.03706 0.00798684 0)
(1.03709 0.00798445 0)
(1.0371 0.00799356 0)
(1.0371 0.00801475 0)
(1.03708 0.00804836 0)
(1.03704 0.00809521 0)
(1.03699 0.00815575 0)
(1.03692 0.00823103 0)
(1.03683 0.00832163 0)
(1.03673 0.00842867 0)
(1.03661 0.00855315 0)
(1.03647 0.00869574 0)
(1.03631 0.0088583 0)
(1.03614 0.00904053 0)
(1.03594 0.00924571 0)
(1.03571 0.00947364 0)
(1.03546 0.00973025 0)
(1.03517 0.0100228 0)
(1.03484 0.0103629 0)
(1.03447 0.0107778 0)
(1.0005 0.00754257 0)
(1.00813 0.0156178 0)
(1.01671 0.0154968 0)
(1.02159 0.0137462 0)
(1.02361 0.0132364 0)
(1.02504 0.0129803 0)
(1.02655 0.0123995 0)
(1.02786 0.0117671 0)
(1.02887 0.0112775 0)
(1.02967 0.0108904 0)
(1.03036 0.0105457 0)
(1.03097 0.0102324 0)
(1.03151 0.00995417 0)
(1.03199 0.00970875 0)
(1.03241 0.00949058 0)
(1.03278 0.00929507 0)
(1.03312 0.00911907 0)
(1.03342 0.00896018 0)
(1.03369 0.00881642 0)
(1.03393 0.00868619 0)