/*--------------------------------*- C++ -*----------------------------------*\
  =========                 |
  \\      /  F ield         | OpenFOAM: The Open Source CFD Toolbox
   \\    /   O peration     | Website:  https://openfoam.org
    \\  /    A nd           | Version:  7
     \\/     M anipulation  |
\*---------------------------------------------------------------------------*/
FoamFile
{
    version     2.0;
    format      ascii;
    class       volVectorField;
    location    "0.05";
    object      U_0;
}
// * * * * * * * * * * * * * * * * * * * * * * * * * * * * * * * * * * * * * //

dimensions      [0 1 -1 0 0 0 0];

internalField   nonuniform List<vector> 
70000
(
(0.553389 0.0167232 0)
(0.251251 0.00340119 0)
(0.166178 0.000322201 0)
(0.132415 5.444e-05 0)
(0.117207 4.58783e-05 0)
(0.107264 5.40609e-05 0)
(0.0992954 4.64372e-05 0)
(0.0928331 3.71135e-05 0)
(0.0875648 3.08181e-05 0)
(0.0831704 2.65105e-05 0)
(0.0794216 2.32321e-05 0)
(0.0761703 2.06098e-05 0)
(0.0733154 1.84747e-05 0)
(0.0707825 1.67141e-05 0)
(0.0685156 1.52447e-05 0)
(0.0664709 1.40047e-05 0)
(0.0646144 1.29482e-05 0)
(0.0629184 1.20402e-05 0)
(0.0613608 1.12546e-05 0)
(0.0599232 1.05707e-05 0)
(0.0585906 9.97252e-06 0)
(0.0573502 9.44736e-06 0)
(0.056191 8.98513e-06 0)
(0.055104 8.57768e-06 0)
(0.054081 8.21848e-06 0)
(0.053115 7.90226e-06 0)
(0.0522 7.62436e-06 0)
(0.0513305 7.38207e-06 0)
(0.0505017 7.17064e-06 0)
(0.0497091 6.99105e-06 0)
(0.0489491 6.83555e-06 0)
(0.0482178 6.71197e-06 0)
(0.0475121 6.60416e-06 0)
(0.0468287 6.53356e-06 0)
(0.0461653 6.46609e-06 0)
(0.0455185 6.44739e-06 0)
(0.0448865 6.41605e-06 0)
(0.0442668 6.44043e-06 0)
(0.0436559 6.45925e-06 0)
(0.0430561 6.47436e-06 0)
(0.0424543 6.63656e-06 0)
(0.0418736 6.42418e-06 0)
(0.0412618 7.10794e-06 0)
(0.040716 5.88943e-06 0)
(0.0400524 8.42599e-06 0)
(0.0396054 3.55742e-06 0)
(0.0387819 1.25795e-05 0)
(0.0386211 -5.20421e-06 0)
(0.0375127 2.69823e-05 0)
(0.0353733 -0.00138773 0)
(0.884898 0.0431679 0)
(0.6497 0.0201954 0)
(0.494273 0.00660017 0)
(0.403577 0.00276975 0)
(0.354609 0.00155442 0)
(0.323257 0.00113432 0)
(0.299343 0.000913422 0)
(0.280086 0.000749819 0)
(0.264308 0.000627272 0)
(0.251116 0.000536827 0)
(0.23986 0.000468242 0)
(0.230099 0.000414344 0)
(0.221527 0.000370865 0)
(0.213921 0.000335148 0)
(0.207112 0.000305387 0)
(0.200971 0.000280288 0)
(0.195394 0.000258898 0)
(0.1903 0.000240504 0)
(0.185621 0.000224564 0)
(0.181304 0.00021066 0)
(0.177303 0.000198465 0)
(0.17358 0.000187722 0)
(0.170102 0.000178224 0)
(0.166842 0.000169806 0)
(0.163776 0.000162334 0)
(0.160883 0.000155698 0)
(0.158144 0.000149809 0)
(0.155544 0.000144593 0)
(0.153069 0.000139989 0)
(0.150704 0.000135952 0)
(0.148439 0.00013243 0)
(0.146263 0.000129413 0)
(0.144167 0.000126838 0)
(0.14214 0.000124748 0)
(0.140175 0.000123024 0)
(0.138264 0.00012182 0)
(0.1364 0.000120871 0)
(0.134576 0.000120551 0)
(0.132781 0.000120307 0)
(0.131022 0.000120868 0)
(0.129262 0.000121293 0)
(0.127562 0.000122566 0)
(0.125783 0.000123845 0)
(0.124178 0.000124858 0)
(0.122265 0.00012828 0)
(0.120912 0.000124572 0)
(0.118584 0.000138006 0)
(0.117924 9.32473e-05 0)
(0.114835 0.000292461 0)
(0.112604 -0.00228112 0)
(0.991238 0.0499025 0)
(0.890336 0.0307218 0)
(0.762637 0.0146023 0)
(0.656575 0.00798527 0)
(0.58519 0.00489131 0)
(0.535717 0.00347848 0)
(0.497771 0.00274394 0)
(0.467064 0.00225258 0)
(0.44165 0.00189037 0)
(0.420231 0.00161968 0)
(0.401862 0.00141313 0)
(0.385874 0.00125077 0)
(0.371793 0.00111987 0)
(0.359268 0.00101231 0)
(0.348035 0.000922638 0)
(0.337885 0.000846958 0)
(0.328657 0.000782413 0)
(0.320217 0.000726862 0)
(0.31246 0.00067868 0)
(0.305297 0.000636609 0)
(0.298655 0.000599671 0)
(0.292471 0.000567088 0)
(0.286693 0.000538241 0)
(0.281277 0.000512632 0)
(0.276183 0.000489856 0)
(0.271376 0.000469581 0)
(0.266828 0.000451537 0)
(0.262512 0.0004355 0)
(0.258404 0.000421286 0)
(0.254484 0.00040875 0)
(0.250732 0.000397757 0)
(0.24713 0.000388237 0)
(0.243664 0.000380054 0)
(0.240318 0.000373254 0)
(0.237079 0.000367604 0)
(0.233933 0.000363393 0)
(0.23087 0.000360054 0)
(0.227878 0.000358453 0)
(0.22494 0.000357172 0)
(0.222065 0.000358373 0)
(0.219198 0.000358725 0)
(0.216425 0.000363041 0)
(0.213546 0.000364294 0)
(0.210921 0.000371644 0)
(0.20786 0.000373225 0)
(0.205594 0.000379297 0)
(0.20196 0.000390232 0)
(0.200625 0.000325505 0)
(0.195858 0.000597861 0)
(0.194548 -0.00207977 0)
(1.0156 0.0489217 0)
(1.00595 0.0358795 0)
(0.935915 0.0207994 0)
(0.852035 0.0135141 0)
(0.78203 0.00921927 0)
(0.726754 0.00679435 0)
(0.681582 0.00539842 0)
(0.643721 0.00446114 0)
(0.611586 0.00376928 0)
(0.583987 0.0032453 0)
(0.559989 0.00284082 0)
(0.538887 0.00252068 0)
(0.52015 0.00226142 0)
(0.503377 0.00204763 0)
(0.488253 0.00186881 0)
(0.474528 0.00171747 0)
(0.462002 0.00158807 0)
(0.450512 0.00147645 0)
(0.439923 0.00137943 0)
(0.430123 0.00129456 0)
(0.421018 0.0012199 0)
(0.412528 0.00115391 0)
(0.404586 0.00109539 0)
(0.397132 0.00104332 0)
(0.390115 0.000996919 0)
(0.38349 0.000955512 0)
(0.377218 0.000918561 0)
(0.371264 0.000885617 0)
(0.365597 0.000856313 0)
(0.360189 0.000830348 0)
(0.355015 0.000807464 0)
(0.350051 0.000787491 0)
(0.345277 0.000770205 0)
(0.340671 0.000755615 0)
(0.336218 0.000743369 0)
(0.331898 0.000733878 0)
(0.327697 0.000726239 0)
(0.323599 0.000721899 0)
(0.319585 0.000718336 0)
(0.31566 0.000719672 0)
(0.311761 0.000719129 0)
(0.307983 0.000727377 0)
(0.304095 0.000727515 0)
(0.300507 0.000744625 0)
(0.296434 0.000741302 0)
(0.293255 0.000765317 0)
(0.288566 0.000765384 0)
(0.286387 0.000703184 0)
(0.280423 0.000955717 0)
(0.279093 -0.00141303 0)
(1.01434 0.0460053 0)
(1.04753 0.0374942 0)
(1.02455 0.0241619 0)
(0.97469 0.017573 0)
(0.923316 0.0131389 0)
(0.876467 0.0102252 0)
(0.834215 0.00836434 0)
(0.796362 0.00704614 0)
(0.762679 0.00603922 0)
(0.732727 0.00525456 0)
(0.705995 0.00463531 0)
(0.682012 0.00413736 0)
(0.66038 0.00372931 0)
(0.640766 0.00338971 0)
(0.622896 0.00310349 0)
(0.606538 0.00285968 0)
(0.5915 0.00265009 0)
(0.57762 0.00246843 0)
(0.564761 0.00230989 0)
(0.552805 0.00217067 0)
(0.541654 0.00204779 0)
(0.531221 0.00193885 0)
(0.521431 0.00184194 0)
(0.512219 0.00175548 0)
(0.503528 0.00167819 0)
(0.495308 0.00160903 0)
(0.487513 0.00154711 0)
(0.480104 0.00149173 0)
(0.473044 0.00144228 0)
(0.466301 0.00139828 0)
(0.459846 0.00135931 0)
(0.453651 0.00132508 0)
(0.447693 0.00129525 0)
(0.441945 0.00126978 0)
(0.43639 0.0012482 0)
(0.431004 0.00123101 0)
(0.425771 0.00121697 0)
(0.42067 0.00120813 0)
(0.415682 0.00120079 0)
(0.410806 0.00120122 0)
(0.40598 0.00119882 0)
(0.401292 0.00121084 0)
(0.396515 0.00120927 0)
(0.392046 0.00123708 0)
(0.387117 0.00122857 0)
(0.383057 0.00127238 0)
(0.377574 0.00126114 0)
(0.37442 0.00121039 0)
(0.367827 0.00141965 0)
(0.365425 -0.000617081 0)
(1.00933 0.0429168 0)
(1.05527 0.0372701 0)
(1.05867 0.025308 0)
(1.03632 0.019776 0)
(1.007 0.0158325 0)
(0.975885 0.0129608 0)
(0.944275 0.0109887 0)
(0.913309 0.00951084 0)
(0.883836 0.00832475 0)
(0.856243 0.00736119 0)
(0.830608 0.0065753 0)
(0.806869 0.00592704 0)
(0.784905 0.00538508 0)
(0.764573 0.0049267 0)
(0.745728 0.00453521 0)
(0.728228 0.00419801 0)
(0.711944 0.00390538 0)
(0.696757 0.00364972 0)
(0.682561 0.00342501 0)
(0.66926 0.00322648 0)
(0.65677 0.00305029 0)
(0.645014 0.00289332 0)
(0.633926 0.00275304 0)
(0.623445 0.00262737 0)
(0.613516 0.00251459 0)
(0.604092 0.00241326 0)
(0.595127 0.00232222 0)
(0.586582 0.00224045 0)
(0.578421 0.00216717 0)
(0.57061 0.00210166 0)
(0.56312 0.00204338 0)
(0.555921 0.00199189 0)
(0.548988 0.00194675 0)
(0.542296 0.00190785 0)
(0.535823 0.00187461 0)
(0.529546 0.0018476 0)
(0.523446 0.0018253 0)
(0.517502 0.0018103 0)
(0.511693 0.00179779 0)
(0.506013 0.00179606 0)
(0.500408 0.00179099 0)
(0.494947 0.00180582 0)
(0.489433 0.00180268 0)
(0.484201 0.00183993 0)
(0.478592 0.00182861 0)
(0.473731 0.00188843 0)
(0.467697 0.00187342 0)
(0.463551 0.00182744 0)
(0.456728 0.00201013 0)
(0.452946 0.000270085 0)
(1.00625 0.0400355 0)
(1.05206 0.0363432 0)
(1.06607 0.0252384 0)
(1.05956 0.020578 0)
(1.0468 0.0172629 0)
(1.03067 0.0146856 0)
(1.0117 0.0128547 0)
(0.99093 0.0114353 0)
(0.969415 0.0102444 0)
(0.947886 0.00923439 0)
(0.926788 0.00837974 0)
(0.906383 0.00765265 0)
(0.886817 0.00702878 0)
(0.868161 0.00648939 0)
(0.850433 0.00602005 0)
(0.83362 0.00560934 0)
(0.817691 0.00524801 0)
(0.802604 0.00492858 0)
(0.78831 0.00464493 0)
(0.77476 0.00439205 0)
(0.761904 0.00416583 0)
(0.749695 0.00396284 0)
(0.738085 0.00378028 0)
(0.727032 0.00361576 0)
(0.716495 0.00346732 0)
(0.706435 0.00333329 0)
(0.696818 0.00321229 0)
(0.687608 0.00310312 0)
(0.678777 0.00300482 0)
(0.670294 0.00291655 0)
(0.662133 0.00283765 0)
(0.654266 0.00276756 0)
(0.646673 0.00270579 0)
(0.639326 0.00265217 0)
(0.632209 0.00260602 0)
(0.625295 0.00256801 0)
(0.61857 0.00253636 0)
(0.61201 0.00251412 0)
(0.605597 0.00249564 0)
(0.59932 0.00249076 0)
(0.593136 0.00248272 0)
(0.587091 0.00249915 0)
(0.581031 0.00249533 0)
(0.575211 0.0025396 0)
(0.569116 0.00252943 0)
(0.563606 0.00259882 0)
(0.557228 0.00259034 0)
(0.552228 0.00254014 0)
(0.545354 0.00271194 0)
(0.540424 0.00125471 0)
(1.00495 0.0373577 0)
(1.04727 0.0352616 0)
(1.06396 0.0246994 0)
(1.06422 0.0206061 0)
(1.06062 0.0178034 0)
(1.05465 0.0155322 0)
(1.04584 0.0139174 0)
(1.03458 0.0126643 0)
(1.02158 0.0115858 0)
(1.00745 0.0106406 0)
(0.99264 0.00981528 0)
(0.977507 0.00909252 0)
(0.962316 0.00845566 0)
(0.947259 0.00789164 0)
(0.932472 0.00739023 0)
(0.918048 0.00694303 0)
(0.904046 0.00654295 0)
(0.890499 0.00618395 0)
(0.877425 0.00586094 0)
(0.864829 0.00556957 0)
(0.852704 0.00530619 0)
(0.841041 0.00506764 0)
(0.829824 0.00485128 0)
(0.819036 0.00465483 0)
(0.808656 0.00447635 0)
(0.798664 0.00431416 0)
(0.78904 0.00416689 0)
(0.779762 0.00403328 0)
(0.77081 0.00391236 0)
(0.762164 0.00380324 0)
(0.753804 0.00370523 0)
(0.745709 0.00361774 0)
(0.737863 0.00354026 0)
(0.730246 0.0034726 0)
(0.722841 0.00341409 0)
(0.715628 0.00336543 0)
(0.708594 0.00332475 0)
(0.701717 0.00329538 0)
(0.694985 0.0032712 0)
(0.688381 0.00326301 0)
(0.681877 0.00325254 0)
(0.675495 0.00326984 0)
(0.669127 0.00326691 0)
(0.662947 0.00331586 0)
(0.656588 0.00331117 0)
(0.650652 0.0033844 0)
(0.644122 0.00339052 0)
(0.638525 0.00333348 0)
(0.631693 0.00350034 0)
(0.626001 0.00231641 0)
(1.0044 0.0348099 0)
(1.04323 0.0341889 0)
(1.05992 0.0240593 0)
(1.06226 0.0203137 0)
(1.06244 0.0178695 0)
(1.06172 0.0158164 0)
(1.05911 0.0143761 0)
(1.05451 0.0132895 0)
(1.04822 0.0123547 0)
(1.04057 0.0115231 0)
(1.03183 0.0107839 0)
(1.02226 0.0101239 0)
(1.01207 0.00953006 0)
(1.00148 0.00899317 0)
(0.990631 0.00850625 0)
(0.979667 0.00806374 0)
(0.968687 0.0076609 0)
(0.957772 0.00729361 0)
(0.946983 0.00695828 0)
(0.936365 0.00665176 0)
(0.925951 0.00637131 0)
(0.915763 0.00611452 0)
(0.905816 0.00587929 0)
(0.896117 0.00566378 0)
(0.88667 0.00546638 0)
(0.877475 0.00528567 0)
(0.868527 0.00512046 0)
(0.859821 0.00496966 0)
(0.85135 0.0048324 0)
(0.843105 0.00470789 0)
(0.835076 0.00459552 0)
(0.827252 0.00449476 0)
(0.819624 0.00440518 0)
(0.812177 0.00432663 0)
(0.804904 0.0042585 0)
(0.797786 0.00420158 0)
(0.790818 0.00415398 0)
(0.78398 0.00411925 0)
(0.777265 0.00409108 0)
(0.770657 0.00408073 0)
(0.764138 0.00406951 0)
(0.757716 0.00408798 0)
(0.751319 0.00408822 0)
(0.745059 0.00414067 0)
(0.738686 0.0041454 0)
(0.732601 0.00421939 0)
(0.726127 0.00424467 0)
(0.720246 0.00418465 0)
(0.713572 0.00434775 0)
(0.707501 0.00342141 0)
(1.00402 0.0323699 0)
(1.0399 0.0331393 0)
(1.05615 0.0234371 0)
(1.0589 0.0199269 0)
(1.06017 0.017741 0)
(1.06149 0.0158232 0)
(1.06183 0.0144847 0)
(1.0609 0.0135139 0)
(1.05879 0.0126962 0)
(1.0556 0.0119717 0)
(1.05143 0.0113271 0)
(1.0464 0.0107486 0)
(1.04061 0.0102234 0)
(1.0342 0.00974279 0)
(1.02729 0.00930093 0)
(1.01998 0.00889359 0)
(1.01238 0.00851739 0)
(1.00455 0.00816953 0)
(0.996586 0.00784762 0)
(0.988535 0.00754958 0)
(0.980448 0.00727361 0)
(0.972368 0.00701809 0)
(0.964326 0.00678162 0)
(0.956349 0.00656293 0)
(0.948455 0.00636088 0)
(0.940661 0.00617448 0)
(0.932978 0.00600285 0)
(0.925411 0.00584519 0)
(0.917968 0.00570088 0)
(0.910649 0.00556932 0)
(0.903455 0.00545009 0)
(0.896384 0.0053428 0)
(0.889435 0.00524717 0)
(0.882602 0.00516317 0)
(0.875882 0.00509031 0)
(0.869266 0.00502949 0)
(0.862751 0.00497894 0)
(0.856324 0.00494231 0)
(0.849983 0.00491342 0)
(0.843714 0.00490355 0)
(0.837507 0.00489444 0)
(0.831365 0.00491575 0)
(0.82524 0.00492213 0)
(0.819203 0.00497846 0)
(0.813089 0.00499613 0)
(0.807155 0.00507068 0)
(0.800967 0.00511725 0)
(0.795126 0.00506179 0)
(0.788776 0.00522205 0)
(0.782682 0.004531 0)
(1.00364 0.0300297 0)
(1.03692 0.0320922 0)
(1.0528 0.0228482 0)
(1.05566 0.019523 0)
(1.05708 0.0175508 0)
(1.05895 0.0157254 0)
(1.06036 0.0144349 0)
(1.06102 0.0135277 0)
(1.06098 0.0127844 0)
(1.06028 0.0121351 0)
(1.05891 0.0115639 0)
(1.05689 0.0110558 0)
(1.05425 0.0105964 0)
(1.05103 0.0101759 0)
(1.0473 0.0097879 0)
(1.04311 0.00942803 0)
(1.03852 0.00909311 0)
(1.0336 0.0087807 0)
(1.02839 0.00848887 0)
(1.02295 0.00821608 0)
(1.01733 0.00796108 0)
(1.01156 0.0077228 0)
(1.00568 0.00750034 0)
(0.99972 0.0072929 0)
(0.993708 0.0070998 0)
(0.987666 0.00692041 0)
(0.981611 0.00675421 0)
(0.97556 0.0066007 0)
(0.969524 0.00645954 0)
(0.963512 0.00633037 0)
(0.957534 0.00621298 0)
(0.951593 0.00610719 0)
(0.945694 0.00601291 0)
(0.939839 0.00593024 0)
(0.934031 0.00585889 0)
(0.928265 0.00579989 0)
(0.922544 0.00575162 0)
(0.916861 0.00571784 0)
(0.911217 0.00569264 0)
(0.905603 0.00568705 0)
(0.900014 0.00568386 0)
(0.894453 0.00571083 0)
(0.888887 0.00572688 0)
(0.883362 0.00578888 0)
(0.877773 0.00582272 0)
(0.872278 0.0058999 0)
(0.86661 0.0059687 0)
(0.861113 0.0059267 0)
(0.855279 0.00608642 0)
(0.849484 0.00560442 0)
(1.00327 0.0277901 0)
(1.03409 0.0310341 0)
(1.04969 0.0222859 0)
(1.05269 0.0191172 0)
(1.05408 0.0173418 0)
(1.05601 0.0155984 0)
(1.05769 0.0143303 0)
(1.05887 0.0134538 0)
(1.05965 0.0127517 0)
(1.06006 0.0121466 0)
(1.06009 0.0116213 0)
(1.05972 0.0111608 0)
(1.05894 0.0107497 0)
(1.05775 0.010377 0)
(1.05616 0.0100352 0)
(1.05419 0.00971931 0)
(1.05186 0.00942559 0)
(1.04921 0.00915132 0)
(1.04626 0.00889445 0)
(1.04304 0.00865343 0)
(1.03959 0.0084271 0)
(1.03592 0.00821456 0)
(1.03208 0.00801512 0)
(1.02807 0.00782822 0)
(1.02394 0.00765341 0)
(1.01969 0.00749031 0)
(1.01535 0.00733865 0)
(1.01092 0.00719815 0)
(1.00644 0.00706869 0)
(1.0019 0.0069501 0)
(0.997318 0.00684238 0)
(0.992705 0.00674553 0)
(0.988067 0.00665961 0)
(0.983409 0.00658492 0)
(0.978736 0.0065213 0)
(0.974051 0.00646995 0)
(0.969356 0.0064294 0)
(0.964652 0.0064035 0)
(0.959939 0.00638671 0)
(0.955216 0.00638961 0)
(0.950479 0.00639647 0)
(0.945732 0.00643243 0)
(0.940954 0.00646177 0)
(0.936175 0.00653207 0)
(0.931331 0.00658486 0)
(0.926511 0.00666815 0)
(0.921564 0.00675953 0)
(0.916665 0.00673964 0)
(0.911525 0.00690253 0)
(0.906295 0.00660193 0)
(1.00292 0.0256545 0)
(1.03138 0.0299602 0)
(1.04669 0.0217457 0)
(1.0499 0.0187093 0)
(1.05126 0.0171208 0)
(1.05315 0.0154644 0)
(1.05487 0.0142121 0)
(1.05617 0.0133517 0)
(1.05718 0.0126731 0)
(1.05798 0.0120924 0)
(1.05858 0.0115924 0)
(1.05895 0.0111593 0)
(1.05909 0.0107779 0)
(1.05897 0.0104363 0)
(1.0586 0.0101267 0)
(1.05797 0.00984323 0)
(1.05708 0.00958181 0)
(1.05594 0.0093392 0)
(1.05456 0.00911299 0)
(1.05295 0.00890137 0)
(1.05113 0.008703 0)
(1.04911 0.0085169 0)
(1.0469 0.00834232 0)
(1.04451 0.00817872 0)
(1.04198 0.00802571 0)
(1.0393 0.00788298 0)
(1.03649 0.00775035 0)
(1.03356 0.00762766 0)
(1.03053 0.00751487 0)
(1.0274 0.00741196 0)
(1.02419 0.00731905 0)
(1.0209 0.00723624 0)
(1.01754 0.00716372 0)
(1.01412 0.00710193 0)
(1.01064 0.0070508 0)
(1.00711 0.00701168 0)
(1.00353 0.00698326 0)
(0.999903 0.00696938 0)
(0.996229 0.00696497 0)
(0.992512 0.00697997 0)
(0.988749 0.0070004 0)
(0.984945 0.00704837 0)
(0.981088 0.00709402 0)
(0.977195 0.00717529 0)
(0.97323 0.00724896 0)
(0.969239 0.00734219 0)
(0.965144 0.00745601 0)
(0.961015 0.00746541 0)
(0.956694 0.00763586 0)
(0.952216 0.00748949 0)
(1.0026 0.0236256 0)
(1.02879 0.0288693 0)
(1.04377 0.0212264 0)
(1.04721 0.0182993 0)
(1.04858 0.0168863 0)
(1.05043 0.0153259 0)
(1.05214 0.0140914 0)
(1.05345 0.0132423 0)
(1.0545 0.0125805 0)
(1.0554 0.0120154 0)
(1.05617 0.0115296 0)
(1.05681 0.0111115 0)
(1.05731 0.0107466 0)
(1.05766 0.010423 0)
(1.05787 0.0101327 0)
(1.05792 0.00986975 0)
(1.05781 0.00962968 0)
(1.05754 0.00940902 0)
(1.0571 0.00920508 0)
(1.0565 0.00901579 0)
(1.05574 0.0088396 0)
(1.05482 0.00867535 0)
(1.05375 0.00852217 0)
(1.05253 0.00837941 0)
(1.05118 0.00824663 0)
(1.04969 0.00812347 0)
(1.04808 0.00800976 0)
(1.04635 0.00790533 0)
(1.04451 0.00781018 0)
(1.04257 0.00772431 0)
(1.04053 0.00764787 0)
(1.03839 0.00758105 0)
(1.03617 0.00752405 0)
(1.03386 0.00747744 0)
(1.03148 0.00744116 0)
(1.02902 0.00741669 0)
(1.02649 0.0074028 0)
(1.0239 0.00740329 0)
(1.02123 0.0074136 0)
(1.01851 0.00744284 0)
(1.01572 0.00747899 0)
(1.01286 0.00754085 0)
(1.00994 0.00760452 0)
(1.00696 0.0076987 0)
(1.00391 0.00779389 0)
(1.0008 0.00790033 0)
(0.997591 0.00803577 0)
(0.994303 0.00807929 0)
(0.990849 0.00826148 0)
(0.987209 0.00824362 0)
(1.0023 0.0217052 0)
(1.02633 0.0277624 0)
(1.04094 0.0207265 0)
(1.04461 0.0178888 0)
(1.04599 0.016637 0)
(1.04781 0.0151814 0)
(1.04952 0.0139694 0)
(1.05082 0.0131307 0)
(1.05186 0.012484 0)
(1.05277 0.0119319 0)
(1.05357 0.0114562 0)
(1.05427 0.0110473 0)
(1.05489 0.010692 0)
(1.05541 0.0103786 0)
(1.05584 0.0100993 0)
(1.05619 0.00984821 0)
(1.05643 0.00962083 0)
(1.05658 0.00941365 0)
(1.05662 0.00922385 0)
(1.05656 0.00904927 0)
(1.05639 0.00888822 0)
(1.05612 0.00873941 0)
(1.05574 0.00860188 0)
(1.05526 0.00847489 0)
(1.05467 0.00835792 0)
(1.05398 0.00825056 0)
(1.0532 0.00815256 0)
(1.05231 0.00806375 0)
(1.05133 0.00798408 0)
(1.05026 0.00791356 0)
(1.0491 0.00785231 0)
(1.04785 0.00780054 0)
(1.04651 0.00775845 0)
(1.0451 0.00772665 0)
(1.04361 0.00770509 0)
(1.04204 0.00769529 0)
(1.04039 0.00769612 0)
(1.03867 0.00771124 0)
(1.03688 0.00773662 0)
(1.03502 0.00778043 0)
(1.03309 0.00783265 0)
(1.03109 0.00790876 0)
(1.02902 0.00799052 0)
(1.02688 0.00809828 0)
(1.02467 0.00821415 0)
(1.02238 0.00833577 0)
(1.02001 0.00849123 0)
(1.01754 0.00857091 0)
(1.01491 0.00876812 0)
(1.0121 0.00885501 0)
(1.00203 0.019894 0)
(1.02401 0.0266424 0)
(1.0382 0.0202428 0)
(1.04208 0.0174796 0)
(1.0435 0.0163731 0)
(1.04529 0.0150296 0)
(1.04699 0.0138454 0)
(1.04829 0.0130173 0)
(1.04932 0.0123856 0)
(1.05021 0.0118464 0)
(1.051 0.0113798 0)
(1.05171 0.0109783 0)
(1.05235 0.0106298 0)
(1.05291 0.0103232 0)
(1.05341 0.0100507 0)
(1.05385 0.0098067 0)
(1.05423 0.00958681 0)
(1.05454 0.00938757 0)
(1.05479 0.00920619 0)
(1.05498 0.00904052 0)
(1.0551 0.00888884 0)
(1.05515 0.00874983 0)
(1.05514 0.0086225 0)
(1.05506 0.00850608 0)
(1.05491 0.00839999 0)
(1.05468 0.00830381 0)
(1.05439 0.00821724 0)
(1.05403 0.00814009 0)
(1.0536 0.00807228 0)
(1.05309 0.00801381 0)
(1.05252 0.00796475 0)
(1.05187 0.00792533 0)
(1.05116 0.00789572 0)
(1.05038 0.00787655 0)
(1.04953 0.00786775 0)
(1.04861 0.00787084 0)
(1.04763 0.0078848 0)
(1.04658 0.00791306 0)
(1.04546 0.00795218 0)
(1.04428 0.00800928 0)
(1.04304 0.00807632 0)
(1.04172 0.00816559 0)
(1.04035 0.00826398 0)
(1.0389 0.00838472 0)
(1.03739 0.00851908 0)
(1.0358 0.00865639 0)
(1.03413 0.00882954 0)
(1.03236 0.00894479 0)
(1.03045 0.00915892 0)
(1.02837 0.00932921 0)
(1.00179 0.0181923 0)
(1.02183 0.0255132 0)
(1.03557 0.0197716 0)
(1.03965 0.0170736 0)
(1.04109 0.0160953 0)
(1.04285 0.0148695 0)
(1.04455 0.013719 0)
(1.04586 0.0129018 0)
(1.04687 0.0122851 0)
(1.04775 0.0117595 0)
(1.04853 0.0113023 0)
(1.04923 0.0109079 0)
(1.04985 0.0105655 0)
(1.05041 0.0102645 0)
(1.05092 0.00999727 0)
(1.05138 0.0097583 0)
(1.05179 0.00954343 0)
(1.05216 0.00934927 0)
(1.05248 0.00917315 0)
(1.05276 0.00901293 0)
(1.053 0.00886696 0)
(1.05319 0.00873395 0)
(1.05334 0.00861291 0)
(1.05345 0.00850309 0)
(1.05351 0.00840394 0)
(1.05353 0.00831503 0)
(1.05349 0.00823606 0)
(1.05342 0.00816684 0)
(1.05329 0.00810727 0)
(1.05311 0.00805735 0)
(1.05288 0.00801715 0)
(1.05261 0.0079869 0)
(1.05228 0.00796673 0)
(1.05189 0.00795727 0)
(1.05146 0.00795849 0)
(1.05097 0.00797183 0)
(1.05043 0.00799642 0)
(1.04984 0.0080354 0)
(1.04919 0.00808594 0)
(1.04849 0.00815408 0)
(1.04773 0.00823368 0)
(1.04692 0.00833411 0)
(1.04605 0.00844662 0)
(1.04512 0.00857884 0)
(1.04413 0.00872866 0)
(1.04308 0.00888091 0)
(1.04195 0.00906905 0)
(1.04073 0.00921722 0)
(1.03939 0.00944884 0)
(1.0379 0.00968396 0)
(1.00157 0.0165997 0)
(1.01978 0.0243788 0)
(1.03303 0.0193086 0)
(1.03729 0.0166725 0)
(1.03878 0.0158048 0)
(1.0405 0.0147005 0)
(1.0422 0.0135899 0)
(1.0435 0.0127842 0)
(1.04452 0.0121825 0)
(1.04538 0.0116711 0)
(1.04614 0.0112238 0)
(1.04683 0.0108367 0)
(1.04744 0.0105004 0)
(1.04799 0.0102049 0)
(1.04849 0.00994252 0)
(1.04895 0.00970796 0)
(1.04936 0.00949721 0)
(1.04973 0.009307 0)
(1.05007 0.00913472 0)
(1.05037 0.00897831 0)
(1.05064 0.00883617 0)
(1.05088 0.00870708 0)
(1.05109 0.00859009 0)
(1.05127 0.00848448 0)
(1.05142 0.00838974 0)
(1.05154 0.00830548 0)
(1.05163 0.00823142 0)
(1.05168 0.00816738 0)
(1.05171 0.0081133 0)
(1.05169 0.00806917 0)
(1.05165 0.00803505 0)
(1.05156 0.00801121 0)
(1.05144 0.00799776 0)
(1.05129 0.00799534 0)
(1.05109 0.00800392 0)
(1.05086 0.0080249 0)
(1.05058 0.00805756 0)
(1.05026 0.00810472 0)
(1.0499 0.00816418 0)
(1.0495 0.00824091 0)
(1.04906 0.00833051 0)
(1.04857 0.00843982 0)
(1.04804 0.00856365 0)
(1.04745 0.00870546 0)
(1.04683 0.00886753 0)
(1.04614 0.00903325 0)
(1.04539 0.00923372 0)
(1.04456 0.00941101 0)
(1.04363 0.00965969 0)
(1.04257 0.00994406 0)
(1.00137 0.0151155 0)
(1.01787 0.0232432 0)
(1.0306 0.0188502 0)
(1.03503 0.0162778 0)
(1.03656 0.0155031 0)
(1.03824 0.0145219 0)
(1.03993 0.0134576 0)
(1.04124 0.0126645 0)
(1.04225 0.0120776 0)
(1.0431 0.011581 0)
(1.04385 0.0111443 0)
(1.04453 0.0107647 0)
(1.04513 0.0104349 0)
(1.04567 0.0101449 0)
(1.04615 0.00988737 0)
(1.0466 0.00965716 0)
(1.047 0.00945034 0)
(1.04736 0.00926374 0)
(1.0477 0.00909484 0)
(1.048 0.00894163 0)
(1.04827 0.00880257 0)
(1.04852 0.00867648 0)
(1.04875 0.00856247 0)
(1.04895 0.00845989 0)
(1.04912 0.00836825 0)
(1.04928 0.00828719 0)
(1.04941 0.0082165 0)
(1.04951 0.00815602 0)
(1.0496 0.00810569 0)
(1.04965 0.00806555 0)
(1.04969 0.00803568 0)
(1.04969 0.00801633 0)
(1.04967 0.00800765 0)
(1.04963 0.00801027 0)
(1.04955 0.0080242 0)
(1.04945 0.00805077 0)
(1.04931 0.00808943 0)
(1.04914 0.00814269 0)
(1.04895 0.00820892 0)
(1.04871 0.00829215 0)
(1.04845 0.00838948 0)
(1.04815 0.00850569 0)
(1.04782 0.00863828 0)
(1.04744 0.00878793 0)
(1.04703 0.00895946 0)
(1.04658 0.00913698 0)
(1.04607 0.0093476 0)
(1.04549 0.00954989 0)
(1.04482 0.00981466 0)
(1.04405 0.0101359 0)
(1.0012 0.0137378 0)
(1.0161 0.0221104 0)
(1.02828 0.0183924 0)
(1.03285 0.0158906 0)
(1.03444 0.0151918 0)
(1.03607 0.0143332 0)
(1.03775 0.0133218 0)
(1.03907 0.0125428 0)
(1.04007 0.0119703 0)
(1.04091 0.011489 0)
(1.04165 0.0110635 0)
(1.04232 0.010692 0)
(1.0429 0.0103687 0)
(1.04343 0.0100844 0)
(1.04391 0.00983198 0)
(1.04434 0.00960622 0)
(1.04473 0.00940337 0)
(1.04508 0.00922039 0)
(1.04541 0.00905479 0)
(1.0457 0.00890463 0)
(1.04597 0.00876843 0)
(1.04621 0.00864504 0)
(1.04643 0.00853364 0)
(1.04663 0.0084336 0)
(1.04681 0.0083445 0)
(1.04697 0.00826601 0)
(1.04711 0.00819795 0)
(1.04723 0.00814021 0)
(1.04733 0.00809276 0)
(1.04741 0.00805565 0)
(1.04748 0.00802897 0)
(1.04752 0.00801303 0)
(1.04754 0.00800795 0)
(1.04753 0.00801439 0)
(1.04751 0.0080324 0)
(1.04746 0.00806322 0)
(1.04739 0.00810652 0)
(1.0473 0.00816444 0)
(1.04717 0.00823593 0)
(1.04703 0.00832421 0)
(1.04686 0.00842757 0)
(1.04666 0.00854923 0)
(1.04643 0.00868864 0)
(1.04617 0.00884482 0)
(1.04588 0.0090237 0)
(1.04555 0.00921155 0)
(1.04518 0.00943081 0)
(1.04475 0.00965427 0)
(1.04424 0.00993401 0)
(1.04365 0.0102826 0)
(1.00104 0.0124646 0)
(1.01446 0.0209848 0)
(1.02607 0.017932 0)
(1.03076 0.0155118 0)
(1.03241 0.014873 0)
(1.034 0.0141339 0)
(1.03566 0.0131819 0)
(1.03698 0.012419 0)
(1.03798 0.0118606 0)
(1.03881 0.011395 0)
(1.03955 0.0109814 0)
(1.0402 0.0106183 0)
(1.04078 0.0103018 0)
(1.04129 0.0100235 0)
(1.04176 0.00977629 0)
(1.04218 0.00955514 0)
(1.04256 0.0093564 0)
(1.0429 0.00917711 0)
(1.04321 0.00901487 0)
(1.0435 0.0088678 0)
(1.04375 0.00873444 0)
(1.04399 0.00861372 0)
(1.0442 0.00850483 0)
(1.04439 0.00840722 0)
(1.04457 0.00832048 0)
(1.04472 0.00824434 0)
(1.04486 0.00817865 0)
(1.04498 0.00812334 0)
(1.04508 0.00807838 0)
(1.04516 0.00804388 0)
(1.04523 0.00801994 0)
(1.04528 0.00800687 0)
(1.04531 0.00800483 0)
(1.04532 0.00801446 0)
(1.04531 0.00803587 0)
(1.04529 0.00807022 0)
(1.04524 0.00811736 0)
(1.04517 0.00817914 0)
(1.04508 0.008255 0)
(1.04497 0.00834745 0)
(1.04484 0.00845577 0)
(1.04468 0.00858205 0)
(1.04451 0.00872699 0)
(1.0443 0.00888888 0)
(1.04407 0.00907379 0)
(1.0438 0.00927087 0)
(1.0435 0.00949793 0)
(1.04315 0.00973936 0)
(1.04273 0.010033 0)
(1.04224 0.0104021 0)
(1.0009 0.0112929 0)
(1.01295 0.0198707 0)
(1.02397 0.0174658 0)
(1.02876 0.0151418 0)
(1.03047 0.0145486 0)
(1.03203 0.0139239 0)
(1.03366 0.0130373 0)
(1.03498 0.0122933 0)
(1.03598 0.0117486 0)
(1.03681 0.0112988 0)
(1.03753 0.0108979 0)
(1.03817 0.0105436 0)
(1.03874 0.0102342 0)
(1.03925 0.00996206 0)
(1.0397 0.00972025 0)
(1.04011 0.00950387 0)
(1.04048 0.00930937 0)
(1.04081 0.0091339 0)
(1.04112 0.00897513 0)
(1.04139 0.00883121 0)
(1.04164 0.00870077 0)
(1.04186 0.00858275 0)
(1.04207 0.00847641 0)
(1.04225 0.00838123 0)
(1.04242 0.00829684 0)
(1.04256 0.00822302 0)
(1.04269 0.00815965 0)
(1.04281 0.00810667 0)
(1.0429 0.00806412 0)
(1.04298 0.00803209 0)
(1.04304 0.00801073 0)
(1.04309 0.00800033 0)
(1.04312 0.00800111 0)
(1.04313 0.00801368 0)
(1.04313 0.00803821 0)
(1.0431 0.00807577 0)
(1.04306 0.00812638 0)
(1.043 0.00819165 0)
(1.04292 0.00827141 0)
(1.04282 0.00836764 0)
(1.0427 0.00848033 0)
(1.04256 0.00861081 0)
(1.04241 0.00876056 0)
(1.04222 0.00892776 0)
(1.04201 0.00911802 0)
(1.04178 0.00932357 0)
(1.0415 0.00955813 0)
(1.04119 0.00981502 0)
(1.04081 0.0101217 0)
(1.04038 0.0105065 0)
(1.00078 0.0102192 0)
(1.01157 0.0187726 0)
(1.02199 0.0169912 0)
(1.02684 0.0147807 0)
(1.02862 0.0142208 0)
(1.03014 0.0137031 0)
(1.03175 0.0128875 0)
(1.03307 0.0121654 0)
(1.03408 0.0116343 0)
(1.03489 0.0112004 0)
(1.03561 0.0108127 0)
(1.03624 0.0104679 0)
(1.0368 0.0101657 0)
(1.0373 0.00989999 0)
(1.03774 0.00966379 0)
(1.03814 0.00945235 0)
(1.0385 0.00926224 0)
(1.03882 0.00909071 0)
(1.03912 0.00893551 0)
(1.03938 0.00879486 0)
(1.03962 0.0086674 0)
(1.03984 0.00855217 0)
(1.04003 0.00844844 0)
(1.04021 0.00835573 0)
(1.04036 0.00827375 0)
(1.0405 0.00820228 0)
(1.04062 0.00814125 0)
(1.04073 0.00809064 0)
(1.04082 0.00805049 0)
(1.04089 0.00802094 0)
(1.04095 0.00800213 0)
(1.04099 0.00799439 0)
(1.04101 0.00799793 0)
(1.04102 0.00801338 0)
(1.04101 0.00804095 0)
(1.04099 0.00808162 0)
(1.04094 0.00813559 0)
(1.04088 0.00820422 0)
(1.0408 0.00828769 0)
(1.0407 0.00838756 0)
(1.04059 0.00850434 0)
(1.04045 0.00863892 0)
(1.0403 0.00879314 0)
(1.04012 0.00896549 0)
(1.03992 0.00916086 0)
(1.03969 0.00937438 0)
(1.03943 0.00961644 0)
(1.03913 0.00988688 0)
(1.03878 0.0102058 0)
(1.03838 0.010603 0)
(1.00067 0.00923937 0)
(1.01031 0.0176949 0)
(1.02011 0.0165058 0)
(1.02501 0.0144282 0)
(1.02687 0.0138916 0)
(1.02835 0.0134718 0)
(1.02993 0.0127316 0)
(1.03125 0.0120353 0)
(1.03226 0.0115177 0)
(1.03307 0.0110997 0)
(1.03377 0.0107258 0)
(1.0344 0.0103909 0)
(1.03495 0.0100964 0)
(1.03544 0.00983721 0)
(1.03587 0.00960683 0)
(1.03626 0.00940052 0)
(1.03661 0.00921495 0)
(1.03693 0.00904749 0)
(1.03721 0.00889598 0)
(1.03747 0.00875868 0)
(1.0377 0.00863431 0)
(1.03791 0.00852193 0)
(1.03809 0.00842089 0)
(1.03826 0.00833074 0)
(1.03841 0.00825121 0)
(1.03854 0.00818216 0)
(1.03866 0.00812353 0)
(1.03875 0.00807533 0)
(1.03884 0.00803763 0)
(1.0389 0.0080106 0)
(1.03895 0.00799438 0)
(1.03899 0.00798933 0)
(1.039 0.00799567 0)
(1.03901 0.00801401 0)
(1.03899 0.00804463 0)
(1.03896 0.00808844 0)
(1.03891 0.00814574 0)
(1.03885 0.00821775 0)
(1.03876 0.00830487 0)
(1.03866 0.0084084 0)
(1.03855 0.00852916 0)
(1.03841 0.00866785 0)
(1.03825 0.00882642 0)
(1.03808 0.00900392 0)
(1.03788 0.0092044 0)
(1.03765 0.00942557 0)
(1.0374 0.00967524 0)
(1.0371 0.00995776 0)
(1.03676 0.0102882 0)
(1.03638 0.0106956 0)
(1.00058 0.00834886 0)
(1.00916 0.0166419 0)
(1.01836 0.0160081 0)
(1.02326 0.0140838 0)
(1.0252 0.013563 0)
(1.02665 0.0132307 0)
(1.02819 0.0125692 0)
(1.02951 0.0119027 0)
(1.03052 0.0113988 0)
(1.03133 0.0109964 0)
(1.03202 0.010637 0)
(1.03264 0.0103126 0)
(1.03319 0.010026 0)
(1.03367 0.00977366 0)
(1.03409 0.0095493 0)
(1.03448 0.0093483 0)
(1.03482 0.00916743 0)
(1.03513 0.00900418 0)
(1.0354 0.00885646 0)
(1.03565 0.00872263 0)
(1.03587 0.00860144 0)
(1.03607 0.00849201 0)
(1.03625 0.00839372 0)
(1.03641 0.00830619 0)
(1.03655 0.0082292 0)
(1.03668 0.00816263 0)
(1.03679 0.00810646 0)
(1.03688 0.00806073 0)
(1.03695 0.00802555 0)
(1.03701 0.00800109 0)
(1.03706 0.00798753 0)
(1.03708 0.00798522 0)
(1.0371 0.00799442 0)
(1.03709 0.0080157 0)
(1.03707 0.00804942 0)
(1.03704 0.0080964 0)
(1.03698 0.00815708 0)
(1.03691 0.00823251 0)
(1.03683 0.0083233 0)
(1.03672 0.00843055 0)
(1.0366 0.00855528 0)
(1.03646 0.00869816 0)
(1.0363 0.00886109 0)
(1.03612 0.00904375 0)
(1.03592 0.00924946 0)
(1.0357 0.00947803 0)
(1.03544 0.00973542 0)
(1.03515 0.0100289 0)
(1.03482 0.01037 0)
(1.03446 0.0107861 0)
(1.0005 0.00754261 0)
(1.00813 0.0156179 0)
(1.01671 0.015497 0)
(1.02159 0.0137464 0)
(1.02361 0.0132366 0)
(1.02504 0.0129805 0)
(1.02654 0.0123997 0)
(1.02786 0.0117673 0)
(1.02887 0.0112778 0)
(1.02967 0.0108907 0)
(1.03036 0.0105461 0)
(1.03097 0.0102328 0)
(1.03151 0.00995461 0)
(1.03198 0.00970924 0)
(1.03241 0.0094911 0)
(1.03278 0.0092956 0)
(1.03312 0.0091196 0)
(1.03342 0.0089607 0)