/*--------------------------------*- C++ -*----------------------------------*\
  =========                 |
  \\      /  F ield         | OpenFOAM: The Open Source CFD Toolbox
   \\    /   O peration     | Website:  https://openfoam.org
    \\  /    A nd           | Version:  7
     \\/     M anipulation  |
\*---------------------------------------------------------------------------*/
FoamFile
{
    version     2.0;
    format      ascii;
    class       volScalarField;
    location    "0.05";
    object      yPlus;
}
// * * * * * * * * * * * * * * * * * * * * * * * * * * * * * * * * * * * * * //

dimensions      [0 0 0 0 0 0 0];

internalField   uniform 0;

boundaryField
{
    velocityInlet
    {
        type            calculated;
        value           uniform 0;
    }
    pressureOutlet
    {
        type            calculated;
        value           uniform 0;
    }
    fixedWalls
    {
        type            calculated;
        value           nonuniform List<scalar> 
100
(
2.41746
1.76337
1.44338
1.391
1.36621
1.3417
1.31773
1.29455
1.27102
1.24565
1.21793
1.18838
1.15763
1.12578
1.0945
1.07134
1.06912
1.08952
1.10121
1.0429
0.858684
0.543974
0.170061
0.245852
0.557943
0.770451
0.895869
0.956513
0.976553
0.973315
0.956595
0.931278
0.900068
0.86599
0.834277
0.811745
0.803883
0.814676
0.846991
0.892877
0.926627
0.917481
0.859971
0.801065
0.823345
0.946173
1.10228
1.24226
1.36127
1.45356
1.48411
1.4003
1.12006
0.38976
0.999578
1.33182
1.41324
1.30483
1.05688
0.696888
0.21743
0.643433
0.802356
0.877976
0.913226
0.928585
0.934771
0.936612
0.935302
0.930267
0.921121
0.909095
0.897323
0.889962
0.890719
0.901169
0.917983
0.929085
0.912175
0.838324
0.679653
0.388792
0.394737
0.621673
0.710427
0.709907
0.636562
0.497594
0.266898
0.303414
0.475903
0.569754
0.625813
0.657129
0.67331
0.681906
0.683141
0.688174
0.685407
0.694945
)
;
    }
    bottomWall
    {
        type            calculated;
        value           nonuniform List<scalar> 
800
(
2.94479
1.98391
1.61347
1.44039
1.3553
1.29672
1.24784
1.20679
1.17232
1.14283
1.11711
1.09436
1.07403
1.05572
1.03911
1.02395
1.01004
0.997215
0.985341
0.974309
0.964023
0.954406
0.945389
0.936914
0.928931
0.921395
0.914268
0.907515
0.901108
0.895018
0.889222
0.883699
0.878429
0.873395
0.868582
0.863975
0.859561
0.855328
0.851266
0.847365
0.843615
0.840008
0.836538
0.833194
0.829973
0.826868
0.823871
0.820981
0.818188
0.815493
0.813237
0.811372
0.809528
0.807711
0.805921
0.804156
0.802417
0.800701
0.79901
0.797342
0.795698
0.794077
0.792477
0.7909
0.789345
0.787812
0.786299
0.784808
0.783337
0.781886
0.780455
0.779045
0.777653
0.776282
0.774929
0.773595
0.77228
0.770983
0.769704
0.768444
0.767201
0.765975
0.764768
0.763578
0.762405
0.761248
0.760109
0.758986
0.757879
0.756789
0.755715
0.754657
0.753616
0.752589
0.751579
0.750584
0.749605
0.748641
0.747692
0.746758
0.74584
0.744936
0.744047
0.743173
0.742314
0.741469
0.740639
0.739822
0.73902
0.738232
0.737459
0.7367
0.735954
0.735222
0.734503
0.733799
0.733109
0.732431
0.731768
0.731117
0.730479
0.729855
0.729244
0.728646
0.72806
0.727487
0.726927
0.72638
0.725844
0.725321
0.72481
0.724312
0.723826
0.723351
0.722889
0.722438
0.721999
0.72157
0.721153
0.720748
0.720354
0.71997
0.719598
0.719235
0.718883
0.718542
0.718211
0.717889
0.717578
0.717277
0.71703
0.716832
0.716636
0.716443
0.716254
0.716067
0.715884
0.715705
0.715529
0.715355
0.715185
0.715019
0.714855
0.714694
0.714538
0.714384
0.714234
0.714087
0.713943
0.713803
0.713665
0.713531
0.7134
0.713273
0.713147
0.713026
0.712907
0.712792
0.71268
0.712571
0.712464
0.712361
0.71226
0.712162
0.712067
0.711975
0.711885
0.711798
0.711714
0.711633
0.711553
0.711476
0.711403
0.711331
0.711262
0.711194
0.711131
0.711069
0.711011
0.710954
0.710901
0.710851
0.710803
0.710759
0.710719
0.71068
0.710646
0.710615
0.710587
0.710564
0.710544
0.710528
0.710515
0.710506
0.7105
0.710498
0.710499
0.710504
0.710511
0.710522
0.710536
0.710551
0.710571
0.710592
0.710616
0.710643
0.710671
0.710703
0.710737
0.710774
0.710812
0.710853
0.710896
0.710941
0.710989
0.711039
0.71109
0.711144
0.711199
0.711257
0.711313
0.711376
0.71143
0.711501
0.711548
0.71163
0.711661
0.711767
0.711765
0.711902
2.94479
1.98387
1.61334
1.44015
1.35493
1.29618
1.24711
1.20585
1.17113
1.14137
1.11535
1.09228
1.07162
1.05294
1.03594
1.02037
1.00602
0.99273
0.980366
0.968815
0.957982
0.947787
0.938161
0.929043
0.920379
0.912123
0.904234
0.896671
0.889404
0.882399
0.875629
0.869063
0.862682
0.856457
0.850371
0.844394
0.838513
0.832707
0.826944
0.821247
0.81549
0.809897
0.803963
0.798634
0.792106
0.78768
0.779458
0.777852
0.766627
0.74475
0.306468
0.487259
0.589474
0.656217
0.707251
0.753301
0.797687
0.841943
0.886307
0.930758
0.975149
1.01933
1.06317
1.1064
1.14896
1.19055
1.23094
1.27
1.30744
1.34302
1.37649
1.40763
1.43622
1.46203
1.48478
1.50434
1.52054
1.533
1.54159
1.54627
1.54683
1.54321
1.53513
1.52257
1.50552
1.48382
1.4574
1.42624
1.3901
1.3489
1.30272
1.25119
1.1941
1.13126
1.06211
0.986003
0.902055
0.808313
0.702009
0.578369
0.427308
0.273299
0.400633
0.547393
0.662576
0.75736
0.837757
0.907124
0.967532
1.02036
1.0666
1.10697
1.14206
1.17234
1.19818
1.21992
1.23786
1.25228
1.2634
1.27145
1.27664
1.27914
1.27919
1.27707
1.27297
1.26709
1.25964
1.25086
1.24097
1.23022
1.21888
1.20721
1.19549
1.184
1.17303
1.16285
1.15374
1.14594
1.13969
1.13519
1.13259
1.13197
1.13352
1.13735
1.14337
1.15137
1.16083
1.17076
1.17976
1.1854
1.1852
1.17703
1.1595
1.13259
1.09836
1.06143
1.02923
1.01233
1.02286
1.07013
1.15423
1.26607
1.39255
1.52121
1.64186
1.74638
1.82873
1.88526
1.91455
1.91579
1.8909
1.84614
1.7852
1.71582
1.64583
1.57811
1.5093
1.4319
1.33294
1.19833
1.02241
0.828457
0.752703
0.899557
1.09423
1.26969
1.42088
1.55035
1.66083
1.75462
1.83358
1.89925
1.95296
1.99585
2.02895
2.05316
2.06933
2.07822
2.08053
2.07676
2.06755
2.05343
2.03489
2.01236
1.98622
1.95681
1.92445
1.88939
1.85187
1.81209
1.7702
1.72633
1.68058
1.63302
1.58368
1.53254
1.47958
1.42473
1.36788
1.30888
1.24756
1.18367
1.11751
1.04836
0.975937
0.900178
0.821668
0.742777
0.670482
0.620791
0.614869
0.654972
0.720767
0.794274
0.867134
0.936322
1.00092
1.06102
1.11661
1.16719
1.2125
1.25198
1.28457
1.3086
1.32231
1.323
1.319
1.35356
1.54
1.96332
0.271243
0.519279
0.653174
0.759973
0.851688
0.933196
1.00654
1.07288
1.13294
1.18725
1.23615
1.27986
1.31848
1.35201
1.3804
1.40354
1.42122
1.43321
1.43928
1.43899
1.43184
1.41722
1.39447
1.36272
1.32097
1.26785
1.20128
1.11829
1.01468
0.884019
0.71527
0.500811
0.510882
0.761299
0.981593
1.17547
1.35205
1.51621
1.67107
1.81829
1.95874
2.09316
2.22199
2.34548
2.46372
2.57678
2.68467
2.78734
2.88474
2.97682
3.06349
3.14467
3.22027
3.2902
3.35439
3.41276
3.46508
3.51133
3.55135
3.58494
3.61194
3.63212
3.64528
3.65108
3.64916
3.63913
3.62071
3.5937
3.55791
3.51309
3.45901
3.39559
3.32265
3.24013
3.148
3.04629
2.93518
2.81488
2.6858
2.54838
2.40315
2.25081
2.09206
1.92779
1.75881
1.58588
1.40961
1.23023
1.04726
0.858802
0.659487
0.434825
0.251063
0.434774
0.546247
0.60596
0.624216
0.595425
0.513349
0.296913
0.335472
0.511913
0.652732
0.778813
0.902548
1.02716
1.15518
1.28717
1.42335
1.56286
1.70454
1.84642
1.98607
2.12067
2.2465
2.35958
2.45554
2.52979
2.57799
2.59655
2.5826
2.5353
2.45669
2.35048
2.22217
2.07921
1.92999
1.78238
1.64235
1.51331
1.39602
1.28964
1.19374
1.1113
1.05268
1.01591
1.00877
1.04356
1.15961
1.29027
1.31328
1.4534
1.71863
1.87131
2.14308
2.32917
2.30664
2.4686
2.57818
2.4164
2.10039
2.01735
2.32452
2.36095
2.56437
2.82389
2.99741
3.15349
3.27901
3.38337
3.47428
3.55006
3.61696
3.67413
3.72425
3.76763
3.80511
3.83717
3.86394
3.88562
3.90202
3.91288
3.91769
3.91569
3.90572
3.88637
3.85601
3.81265
3.75408
3.67815
3.58325
3.46937
3.3397
3.20251
3.0722
2.96791
2.91057
2.91523
2.98384
3.05575
3.04913
3.02031
3.15082
3.52076
3.95951
4.25554
4.48293
4.9805
5.66818
6.06034
6.26207
6.42462
6.57911
6.70535
6.79213
6.86407
6.92662
6.97497
7.01819
7.05968
7.10063
7.14783
7.20432
7.27136
7.35107
7.44388
7.55025
7.67075
7.80528
7.95302
8.1105
8.2764
8.44901
8.62493
8.80034
8.97217
9.13821
9.29624
9.44368
9.57897
9.70211
9.81298
9.91089
9.99594
10.0687
10.1293
10.1778
10.2147
10.2403
10.2549
10.2597
10.2625
10.2557
10.2411
10.2185
10.1881
10.1502
10.1053
10.0535
9.99536
9.93116
9.86127
9.78605
9.70586
9.62108
9.53206
9.43918
9.34281
9.24334
9.14112
9.03655
8.93
8.82185
8.71247
8.60221
8.4914
8.38033
8.26925
8.15837
8.04782
7.93766
7.82787
7.71833
7.60887
7.49923
7.3891
7.2781
7.16582
7.05182
6.93561
6.81669
6.69453
6.56852
6.438
6.3298
6.2219
6.11243
6.00069
5.88552
5.7665
5.64403
5.51828
5.39583
5.28696
5.20576
5.16683
5.1829
5.26913
5.44198
5.48951
)
;
    }
    frontAndBack
    {
        type            empty;
    }
}


// ************************************************************************* //
