/*--------------------------------*- C++ -*----------------------------------*\
  =========                 |
  \\      /  F ield         | OpenFOAM: The Open Source CFD Toolbox
   \\    /   O peration     | Website:  https://openfoam.org
    \\  /    A nd           | Version:  7
     \\/     M anipulation  |
\*---------------------------------------------------------------------------*/
FoamFile
{
    version     2.0;
    format      ascii;
    class       volScalarField;
    location    "0.14";
    object      k;
}
// * * * * * * * * * * * * * * * * * * * * * * * * * * * * * * * * * * * * * //

dimensions      [0 2 -2 0 0 0 0];

internalField   nonuniform List<scalar> 
70000
(
1.08549e-05
4.21857e-06
2.82399e-06
2.31624e-06
1.99679e-06
1.75629e-06
1.56418e-06
1.40718e-06
1.27627e-06
1.16549e-06
1.07045e-06
9.88399e-07
9.16755e-07
8.54084e-07
7.9859e-07
7.49564e-07
7.05565e-07
6.66391e-07
6.30788e-07
5.98941e-07
5.69645e-07
5.43393e-07
5.1892e-07
4.97018e-07
4.76275e-07
4.57815e-07
4.39976e-07
4.24294e-07
4.08721e-07
3.95327e-07
3.81533e-07
3.70051e-07
3.57668e-07
3.4778e-07
3.36535e-07
3.27963e-07
3.1764e-07
3.10153e-07
3.00553e-07
2.93967e-07
2.84892e-07
2.79043e-07
2.70298e-07
2.65029e-07
2.56359e-07
2.51621e-07
2.41634e-07
2.3977e-07
2.32152e-07
2.6149e-07
1.72794e-05
1.13669e-05
8.51961e-06
7.00887e-06
6.0352e-06
5.30844e-06
4.72857e-06
4.25443e-06
3.85901e-06
3.52442e-06
3.23737e-06
2.98956e-06
2.77315e-06
2.58383e-06
2.41617e-06
2.26804e-06
2.13506e-06
2.01666e-06
1.90903e-06
1.81276e-06
1.72416e-06
1.6448e-06
1.57077e-06
1.50455e-06
1.44178e-06
1.38599e-06
1.33197e-06
1.28459e-06
1.2374e-06
1.19695e-06
1.15513e-06
1.12046e-06
1.08292e-06
1.05305e-06
1.01896e-06
9.93054e-07
9.61761e-07
9.39135e-07
9.10024e-07
8.9013e-07
8.62601e-07
8.44948e-07
8.18406e-07
8.02532e-07
7.76208e-07
7.61961e-07
7.3177e-07
7.26306e-07
7.02953e-07
7.31612e-07
1.937e-05
1.61294e-05
1.32901e-05
1.12877e-05
9.82591e-06
8.69265e-06
7.77424e-06
7.01587e-06
6.3787e-06
5.83687e-06
5.37028e-06
4.96633e-06
4.61258e-06
4.3025e-06
4.02727e-06
3.7837e-06
3.56461e-06
3.36932e-06
3.19146e-06
3.03229e-06
2.88555e-06
2.75408e-06
2.6312e-06
2.52137e-06
2.41695e-06
2.32433e-06
2.23428e-06
2.15561e-06
2.07677e-06
2.00961e-06
1.93962e-06
1.88202e-06
1.81914e-06
1.76946e-06
1.71235e-06
1.66923e-06
1.61676e-06
1.5791e-06
1.53024e-06
1.49716e-06
1.4509e-06
1.42161e-06
1.37694e-06
1.35071e-06
1.3064e-06
1.28287e-06
1.23285e-06
1.22369e-06
1.18596e-06
1.18818e-06
1.9861e-05
1.826e-05
1.60854e-05
1.41992e-05
1.26383e-05
1.1346e-05
1.02573e-05
9.33424e-06
8.54187e-06
7.85794e-06
7.26238e-06
6.74228e-06
6.28323e-06
5.87838e-06
5.51683e-06
5.1953e-06
4.90455e-06
4.64448e-06
4.40658e-06
4.19322e-06
3.99569e-06
3.81855e-06
3.65221e-06
3.50363e-06
3.36155e-06
3.2359e-06
3.11275e-06
3.00582e-06
2.89754e-06
2.80611e-06
2.70969e-06
2.63113e-06
2.54432e-06
2.4764e-06
2.39744e-06
2.3384e-06
2.26571e-06
2.21416e-06
2.1463e-06
2.10109e-06
2.03669e-06
1.99681e-06
1.93446e-06
1.89902e-06
1.83713e-06
1.80542e-06
1.73788e-06
1.72357e-06
1.67935e-06
1.6399e-06
1.99706e-05
1.7846e-05
1.60752e-05
1.4767e-05
1.36029e-05
1.25375e-05
1.15686e-05
1.07003e-05
9.91838e-06
9.22212e-06
8.601e-06
8.04779e-06
7.55092e-06
7.10672e-06
6.70457e-06
6.34299e-06
6.01242e-06
5.71452e-06
5.4396e-06
5.19182e-06
4.96056e-06
4.75258e-06
4.55558e-06
4.37961e-06
4.20961e-06
4.05981e-06
3.91107e-06
3.78295e-06
3.65118e-06
3.54116e-06
3.42318e-06
3.32821e-06
3.22157e-06
3.13914e-06
3.04175e-06
2.96994e-06
2.8799e-06
2.81719e-06
2.7328e-06
2.67789e-06
2.5975e-06
2.54933e-06
2.47109e-06
2.42885e-06
2.35104e-06
2.31441e-06
2.23373e-06
2.21242e-06
2.16768e-06
2.08875e-06
2.00096e-05
1.47036e-05
1.37495e-05
1.32136e-05
1.25945e-05
1.19305e-05
1.12811e-05
1.06604e-05
1.00835e-05
9.54923e-06
9.0479e-06
8.58131e-06
8.14655e-06
7.74651e-06
7.37361e-06
7.03074e-06
6.71073e-06
6.41822e-06
6.14388e-06
5.89422e-06
5.65761e-06
5.44356e-06
5.23759e-06
5.05346e-06
4.87235e-06
4.71351e-06
4.55247e-06
4.41522e-06
4.2708e-06
4.15188e-06
4.0214e-06
3.91788e-06
3.79902e-06
3.70859e-06
3.5992e-06
3.52012e-06
3.41827e-06
3.34909e-06
3.25302e-06
3.19248e-06
3.10043e-06
3.04761e-06
2.95747e-06
2.91222e-06
2.82268e-06
2.78401e-06
2.69744e-06
2.66522e-06
2.62452e-06
2.52444e-06
2.01333e-05
1.54634e-05
9.63457e-06
9.40258e-06
9.49875e-06
9.49981e-06
9.44245e-06
9.30609e-06
9.06533e-06
8.79166e-06
8.49663e-06
8.19935e-06
7.9066e-06
7.62342e-06
7.34493e-06
7.0849e-06
6.83593e-06
6.60217e-06
6.37599e-06
6.16599e-06
5.96098e-06
5.77323e-06
5.58739e-06
5.42081e-06
5.2517e-06
5.10428e-06
4.94984e-06
4.82014e-06
4.67891e-06
4.56463e-06
4.43503e-06
4.33411e-06
4.21435e-06
4.12524e-06
4.01358e-06
3.93506e-06
3.82996e-06
3.76089e-06
3.66078e-06
3.60021e-06
3.5036e-06
3.45079e-06
3.35605e-06
3.31095e-06
3.21859e-06
3.18001e-06
3.0957e-06
3.05283e-06
3.01738e-06
2.91397e-06
2.01715e-05
1.86736e-05
8.6796e-06
5.54142e-06
5.63406e-06
5.9419e-06
6.30301e-06
6.59064e-06
6.77305e-06
6.88339e-06
6.90478e-06
6.88596e-06
6.83448e-06
6.74672e-06
6.63596e-06
6.51353e-06
6.37413e-06
6.23246e-06
6.08715e-06
5.94644e-06
5.80179e-06
5.6665e-06
5.52658e-06
5.40024e-06
5.2664e-06
5.15244e-06
5.02666e-06
4.92336e-06
4.80425e-06
4.7102e-06
4.59775e-06
4.51246e-06
4.40587e-06
4.32912e-06
4.22756e-06
4.15889e-06
4.06163e-06
4.00037e-06
3.90638e-06
3.85231e-06
3.76075e-06
3.71359e-06
3.62449e-06
3.58314e-06
3.49826e-06
3.4626e-06
3.39021e-06
3.34154e-06
3.31322e-06
3.21929e-06
2.01674e-05
1.97233e-05
1.61595e-05
4.84943e-06
3.04272e-06
3.10866e-06
3.38211e-06
3.81498e-06
4.18417e-06
4.50514e-06
4.75512e-06
4.94729e-06
5.08945e-06
5.19189e-06
5.25111e-06
5.28892e-06
5.29304e-06
5.28471e-06
5.262e-06
5.22491e-06
5.1741e-06
5.12092e-06
5.05618e-06
4.99471e-06
4.92055e-06
4.85478e-06
4.77318e-06
4.70772e-06
4.62431e-06
4.56088e-06
4.47822e-06
4.41787e-06
4.3364e-06
4.28022e-06
4.19999e-06
4.1483e-06
4.06974e-06
4.02338e-06
3.94712e-06
3.90574e-06
3.83067e-06
3.7939e-06
3.72153e-06
3.68847e-06
3.62131e-06
3.59039e-06
3.53952e-06
3.4948e-06
3.47612e-06
3.40309e-06
2.01478e-05
1.9934e-05
1.9063e-05
1.44845e-05
5.21883e-06
2.15131e-06
1.91555e-06
1.99745e-06
2.21541e-06
2.51763e-06
2.79639e-06
3.05346e-06
3.28094e-06
3.48102e-06
3.64662e-06
3.78778e-06
3.90067e-06
3.99162e-06
4.06281e-06
4.11799e-06
4.1555e-06
4.18177e-06
4.1956e-06
4.19931e-06
4.19568e-06
4.1881e-06
4.16975e-06
4.15507e-06
4.12476e-06
4.10472e-06
4.06747e-06
4.04316e-06
4.00191e-06
3.97559e-06
3.93089e-06
3.90478e-06
3.85763e-06
3.83132e-06
3.78172e-06
3.75626e-06
3.70594e-06
3.68189e-06
3.63354e-06
3.61177e-06
3.56752e-06
3.5455e-06
3.51605e-06
3.48423e-06
3.47583e-06
3.43095e-06
2.01218e-05
1.9966e-05
1.96411e-05
1.85409e-05
1.51923e-05
8.31315e-06
3.07522e-06
1.62924e-06
1.44264e-06
1.45214e-06
1.53276e-06
1.69913e-06
1.88406e-06
2.06445e-06
2.23736e-06
2.4004e-06
2.54968e-06
2.68453e-06
2.80394e-06
2.91126e-06
3.00313e-06
3.08507e-06
3.15258e-06
3.21322e-06
3.25936e-06
3.30366e-06
3.33289e-06
3.36397e-06
3.38037e-06
3.39981e-06
3.40723e-06
3.41678e-06
3.41839e-06
3.41878e-06
3.4159e-06
3.41294e-06
3.40467e-06
3.39986e-06
3.38811e-06
3.38191e-06
3.36754e-06
3.3612e-06
3.34665e-06
3.34158e-06
3.32934e-06
3.32619e-06
3.32193e-06
3.31998e-06
3.33001e-06
3.31685e-06
2.00983e-05
1.99327e-05
1.97564e-05
1.93494e-05
1.84985e-05
1.65168e-05
1.22779e-05
6.79298e-06
2.94031e-06
1.48275e-06
1.24143e-06
1.14903e-06
1.15582e-06
1.20212e-06
1.29926e-06
1.40995e-06
1.52482e-06
1.63882e-06
1.75067e-06
1.86003e-06
1.96105e-06
2.05885e-06
2.14553e-06
2.23012e-06
2.30247e-06
2.37376e-06
2.43307e-06
2.49185e-06
2.54011e-06
2.58742e-06
2.62649e-06
2.66405e-06
2.69532e-06
2.7251e-06
2.74904e-06
2.77337e-06
2.79157e-06
2.81153e-06
2.82559e-06
2.84224e-06
2.8535e-06
2.86834e-06
2.87919e-06
2.89313e-06
2.90662e-06
2.92026e-06
2.94113e-06
2.95689e-06
2.99599e-06
3.01023e-06
2.00783e-05
1.98876e-05
1.97561e-05
1.9458e-05
1.91411e-05
1.86326e-05
1.75362e-05
1.53922e-05
1.16673e-05
7.3498e-06
3.89968e-06
1.86838e-06
1.19878e-06
1.0558e-06
9.80069e-07
9.47503e-07
9.61163e-07
1.00025e-06
1.0641e-06
1.13249e-06
1.2034e-06
1.27797e-06
1.34985e-06
1.42515e-06
1.49463e-06
1.56518e-06
1.62946e-06
1.69357e-06
1.75193e-06
1.80916e-06
1.86156e-06
1.91226e-06
1.95879e-06
2.0036e-06
2.04476e-06
2.08431e-06
2.12114e-06
2.15614e-06
2.18983e-06
2.22098e-06
2.25302e-06
2.28139e-06
2.31397e-06
2.34016e-06
2.37625e-06
2.40137e-06
2.44473e-06
2.47166e-06
2.52781e-06
2.56313e-06
2.00615e-05
1.98538e-05
1.97335e-05
1.94684e-05
1.92505e-05
1.90412e-05
1.87267e-05
1.81761e-05
1.70675e-05
1.51846e-05
1.24755e-05
9.10704e-06
5.83346e-06
3.36418e-06
1.80928e-06
1.14349e-06
9.60592e-07
8.89678e-07
8.34275e-07
8.01617e-07
8.05997e-07
8.23176e-07
8.57401e-07
8.99666e-07
9.41336e-07
9.8811e-07
1.03456e-06
1.0835e-06
1.13182e-06
1.18073e-06
1.22869e-06
1.27555e-06
1.32201e-06
1.3662e-06
1.41093e-06
1.45229e-06
1.49544e-06
1.534e-06
1.57614e-06
1.61215e-06
1.65415e-06
1.68831e-06
1.73177e-06
1.76456e-06
1.8116e-06
1.84502e-06
1.89769e-06
1.9355e-06
1.99599e-06
2.04866e-06
2.00477e-05
1.98303e-05
1.97068e-05
1.94461e-05
1.92673e-05
1.91093e-05
1.89578e-05
1.87414e-05
1.84496e-05
1.7892e-05
1.70454e-05
1.56367e-05
1.37923e-05
1.13898e-05
8.67176e-06
6.04662e-06
3.90143e-06
2.36601e-06
1.42308e-06
9.9928e-07
8.55161e-07
7.96119e-07
7.48131e-07
7.10211e-07
6.87455e-07
6.8936e-07
6.98256e-07
7.17507e-07
7.4169e-07
7.68466e-07
7.96847e-07
8.26382e-07
8.59012e-07
8.90229e-07
9.25623e-07
9.57878e-07
9.94863e-07
1.02721e-06
1.06545e-06
1.09768e-06
1.13725e-06
1.16986e-06
1.21172e-06
1.24502e-06
1.29019e-06
1.32679e-06
1.37591e-06
1.41923e-06
1.47518e-06
1.53183e-06
2.00364e-05
1.98124e-05
1.96842e-05
1.94154e-05
1.92531e-05
1.91026e-05
1.8993e-05
1.88408e-05
1.87027e-05
1.84885e-05
1.82328e-05
1.78095e-05
1.71935e-05
1.63048e-05
1.50639e-05
1.34953e-05
1.16282e-05
9.49072e-06
7.31673e-06
5.30949e-06
3.66577e-06
2.42998e-06
1.57083e-06
1.07532e-06
8.46498e-07
7.54117e-07
7.0784e-07
6.70828e-07
6.3591e-07
6.11302e-07
5.96939e-07
5.97792e-07
6.0282e-07
6.12868e-07
6.29522e-07
6.44924e-07
6.65576e-07
6.83887e-07
7.08108e-07
7.29524e-07
7.57082e-07
7.81325e-07
8.12412e-07
8.39465e-07
8.7409e-07
9.06227e-07
9.44548e-07
9.8353e-07
1.02962e-06
1.07885e-06
2.00273e-05
1.97985e-05
1.96649e-05
1.93932e-05
1.92269e-05
1.90747e-05
1.89742e-05
1.88443e-05
1.8726e-05
1.85865e-05
1.84468e-05
1.82773e-05
1.80611e-05
1.77727e-05
1.73704e-05
1.6813e-05
1.60748e-05
1.51202e-05
1.3926e-05
1.25428e-05
1.09737e-05
9.25393e-06
7.501e-06
5.85064e-06
4.37117e-06
3.18159e-06
2.25235e-06
1.56499e-06
1.11119e-06
8.56963e-07
7.31114e-07
6.70437e-07
6.33826e-07
6.04433e-07
5.77594e-07
5.53519e-07
5.38495e-07
5.29829e-07
5.30752e-07
5.34414e-07
5.42728e-07
5.52603e-07
5.67247e-07
5.81967e-07
6.01005e-07
6.21778e-07
6.45398e-07
6.72559e-07
7.04349e-07
7.39186e-07
2.00201e-05
1.97897e-05
1.96451e-05
1.93765e-05
1.92021e-05
1.90452e-05
1.89349e-05
1.88174e-05
1.87035e-05
1.85795e-05
1.84585e-05
1.83337e-05
1.82057e-05
1.80628e-05
1.79015e-05
1.76983e-05
1.74451e-05
1.71136e-05
1.66895e-05
1.61398e-05
1.54727e-05
1.46431e-05
1.36809e-05
1.25573e-05
1.13578e-05
1.00265e-05
8.62814e-06
7.2278e-06
5.89151e-06
4.67125e-06
3.61059e-06
2.74476e-06
2.04724e-06
1.50685e-06
1.12005e-06
8.73413e-07
7.31548e-07
6.55049e-07
6.12378e-07
5.83386e-07
5.6016e-07
5.4022e-07
5.23658e-07
5.11974e-07
5.07072e-07
5.08598e-07
5.13316e-07
5.23257e-07
5.3681e-07
5.53659e-07
2.00146e-05
1.97897e-05
1.96187e-05
1.9363e-05
1.91809e-05
1.90177e-05
1.88979e-05
1.87799e-05
1.86623e-05
1.85422e-05
1.84275e-05
1.83105e-05
1.81969e-05
1.80771e-05
1.79629e-05
1.78382e-05
1.77132e-05
1.75646e-05
1.74031e-05
1.71968e-05
1.69588e-05
1.66536e-05
1.62926e-05
1.58408e-05
1.53126e-05
1.46879e-05
1.39664e-05
1.31444e-05
1.22364e-05
1.12522e-05
1.02126e-05
9.10213e-06
7.96217e-06
6.8325e-06
5.74086e-06
4.7328e-06
3.80694e-06
3.02553e-06
2.37156e-06
1.83259e-06
1.4069e-06
1.09296e-06
8.86174e-07
7.6025e-07
6.88269e-07
6.47995e-07
6.20742e-07
6.038e-07
5.90729e-07
5.88001e-07
2.00103e-05
1.97939e-05
1.95918e-05
1.93488e-05
1.91616e-05
1.89911e-05
1.88635e-05
1.87422e-05
1.86214e-05
1.84972e-05
1.83805e-05
1.8262e-05
1.81507e-05
1.80373e-05
1.793e-05
1.78185e-05
1.77118e-05
1.75994e-05
1.74929e-05
1.73763e-05
1.72581e-05
1.7124e-05
1.69763e-05
1.68034e-05
1.66027e-05
1.6366e-05
1.60895e-05
1.57615e-05
1.53823e-05
1.49399e-05
1.44423e-05
1.38739e-05
1.32431e-05
1.25388e-05
1.17842e-05
1.09607e-05
1.01155e-05
9.20112e-06
8.24585e-06
7.26989e-06
6.30183e-06
5.35288e-06
4.46656e-06
3.63036e-06
2.92056e-06
2.32815e-06
1.85141e-06
1.49697e-06
1.25659e-06
1.10357e-06
2.00071e-05
1.98016e-05
1.95671e-05
1.93349e-05
1.91436e-05
1.8966e-05
1.88306e-05
1.87059e-05
1.85812e-05
1.84536e-05
1.83321e-05
1.82116e-05
1.80959e-05
1.79807e-05
1.78708e-05
1.77602e-05
1.76566e-05
1.75521e-05
1.74516e-05
1.73513e-05
1.72503e-05
1.71511e-05
1.70494e-05
1.69492e-05
1.68411e-05
1.673e-05
1.66077e-05
1.6473e-05
1.63214e-05
1.61479e-05
1.59539e-05
1.57283e-05
1.54736e-05
1.51799e-05
1.48489e-05
1.44744e-05
1.4053e-05
1.35887e-05
1.30635e-05
1.24936e-05
1.18538e-05
1.11778e-05
1.04219e-05
9.64845e-06
8.78004e-06
7.8521e-06
6.87425e-06
5.88855e-06
4.91626e-06
4.02358e-06
2.00048e-05
1.98103e-05
1.95442e-05
1.93211e-05
1.91261e-05
1.89425e-05
1.87988e-05
1.86709e-05
1.85421e-05
1.84115e-05
1.82849e-05
1.81619e-05
1.80412e-05
1.79242e-05
1.78094e-05
1.76976e-05
1.7588e-05
1.74827e-05
1.73785e-05
1.72794e-05
1.718e-05
1.7088e-05
1.69921e-05
1.69045e-05
1.68107e-05
1.67232e-05
1.66306e-05
1.65428e-05
1.645e-05
1.63564e-05
1.62595e-05
1.61564e-05
1.60423e-05
1.59223e-05
1.57824e-05
1.56366e-05
1.5462e-05
1.52769e-05
1.50572e-05
1.48209e-05
1.45414e-05
1.42383e-05
1.38804e-05
1.34897e-05
1.3035e-05
1.25287e-05
1.19306e-05
1.1269e-05
1.04841e-05
9.63622e-06
2.00031e-05
1.98194e-05
1.95228e-05
1.93069e-05
1.91085e-05
1.89204e-05
1.87679e-05
1.86368e-05
1.85043e-05
1.8371e-05
1.82394e-05
1.81138e-05
1.79883e-05
1.78691e-05
1.77496e-05
1.76355e-05
1.75216e-05
1.74139e-05
1.73055e-05
1.72038e-05
1.70997e-05
1.70045e-05
1.6905e-05
1.68165e-05
1.67208e-05
1.66383e-05
1.65504e-05
1.6471e-05
1.63866e-05
1.63073e-05
1.62277e-05
1.61489e-05
1.60632e-05
1.59873e-05
1.58983e-05
1.58213e-05
1.57281e-05
1.56406e-05
1.55391e-05
1.54366e-05
1.532e-05
1.51939e-05
1.50497e-05
1.48884e-05
1.47037e-05
1.44954e-05
1.42407e-05
1.39542e-05
1.3592e-05
1.31698e-05
2.00018e-05
1.98281e-05
1.95033e-05
1.92918e-05
1.90906e-05
1.88998e-05
1.87384e-05
1.86038e-05
1.8468e-05
1.83321e-05
1.81962e-05
1.80678e-05
1.7938e-05
1.78163e-05
1.76927e-05
1.75757e-05
1.7458e-05
1.73475e-05
1.72356e-05
1.71307e-05
1.70234e-05
1.69246e-05
1.68217e-05
1.67298e-05
1.66303e-05
1.65434e-05
1.64507e-05
1.63686e-05
1.62809e-05
1.62001e-05
1.61205e-05
1.60464e-05
1.59658e-05
1.58978e-05
1.58174e-05
1.57518e-05
1.56749e-05
1.56049e-05
1.55285e-05
1.54542e-05
1.53789e-05
1.53019e-05
1.52233e-05
1.51378e-05
1.50528e-05
1.49595e-05
1.48511e-05
1.47405e-05
1.45973e-05
1.44424e-05
2.0001e-05
1.98304e-05
1.94872e-05
1.92764e-05
1.9073e-05
1.88811e-05
1.87109e-05
1.85722e-05
1.84337e-05
1.82955e-05
1.81556e-05
1.80243e-05
1.7891e-05
1.77665e-05
1.76395e-05
1.75193e-05
1.73983e-05
1.72849e-05
1.71698e-05
1.70616e-05
1.69517e-05
1.68494e-05
1.67436e-05
1.66484e-05
1.65461e-05
1.64556e-05
1.63593e-05
1.62738e-05
1.61821e-05
1.60977e-05
1.60139e-05
1.59348e-05
1.58489e-05
1.57766e-05
1.56932e-05
1.56237e-05
1.55466e-05
1.54759e-05
1.54045e-05
1.53374e-05
1.52696e-05
1.52033e-05
1.51351e-05
1.5067e-05
1.50005e-05
1.49332e-05
1.48553e-05
1.47888e-05
1.47112e-05
1.46449e-05
2.00004e-05
1.98288e-05
1.9474e-05
1.92602e-05
1.90551e-05
1.88642e-05
1.86857e-05
1.85425e-05
1.84017e-05
1.82614e-05
1.81183e-05
1.79841e-05
1.78477e-05
1.77205e-05
1.75905e-05
1.74672e-05
1.73432e-05
1.72272e-05
1.71089e-05
1.69978e-05
1.68853e-05
1.67799e-05
1.66713e-05
1.65731e-05
1.64685e-05
1.63746e-05
1.62755e-05
1.61872e-05
1.60924e-05
1.6005e-05
1.59176e-05
1.58354e-05
1.57454e-05
1.56686e-05
1.55818e-05
1.55067e-05
1.5426e-05
1.53492e-05
1.52719e-05
1.51987e-05
1.51249e-05
1.50551e-05
1.49808e-05
1.49121e-05
1.48448e-05
1.47816e-05
1.47169e-05
1.4665e-05
1.46044e-05
1.45644e-05
2e-05
1.98271e-05
1.94629e-05
1.92425e-05
1.90365e-05
1.88484e-05
1.86629e-05
1.85147e-05
1.8372e-05
1.82303e-05
1.80843e-05
1.79476e-05
1.78086e-05
1.76789e-05
1.75463e-05
1.74204e-05
1.72936e-05
1.71753e-05
1.70539e-05
1.69404e-05
1.68253e-05
1.67172e-05
1.66058e-05
1.65051e-05
1.63983e-05
1.63013e-05
1.61998e-05
1.6109e-05
1.60115e-05
1.59218e-05
1.58311e-05
1.57465e-05
1.56535e-05
1.55729e-05
1.54836e-05
1.54043e-05
1.53199e-05
1.52394e-05
1.51571e-05
1.508e-05
1.50001e-05
1.49265e-05
1.48443e-05
1.47734e-05
1.46973e-05
1.46281e-05
1.45568e-05
1.44967e-05
1.44345e-05
1.4393e-05
1.99999e-05
1.9826e-05
1.94548e-05
1.92245e-05
1.90179e-05
1.88343e-05
1.8643e-05
1.84895e-05
1.83453e-05
1.82025e-05
1.80542e-05
1.79155e-05
1.77741e-05
1.76425e-05
1.75077e-05
1.73794e-05
1.72503e-05
1.71301e-05
1.70058e-05
1.68903e-05
1.67728e-05
1.66624e-05
1.65483e-05
1.64455e-05
1.63365e-05
1.62368e-05
1.6133e-05
1.604e-05
1.59401e-05
1.58484e-05
1.57547e-05
1.56679e-05
1.55726e-05
1.54886e-05
1.53972e-05
1.53146e-05
1.52266e-05
1.51436e-05
1.50572e-05
1.49771e-05
1.4893e-05
1.48154e-05
1.47285e-05
1.46546e-05
1.45724e-05
1.44998e-05
1.44236e-05
1.43589e-05
1.4292e-05
1.42484e-05
1.99999e-05
1.98255e-05
1.945e-05
1.92072e-05
1.90002e-05
1.88222e-05
1.86269e-05
1.84679e-05
1.83222e-05
1.81787e-05
1.80288e-05
1.78885e-05
1.77452e-05
1.7612e-05
1.74755e-05
1.73452e-05
1.72141e-05
1.70924e-05
1.69656e-05
1.68485e-05
1.67289e-05
1.66163e-05
1.64999e-05
1.63953e-05
1.62843e-05
1.61822e-05
1.60764e-05
1.59814e-05
1.58793e-05
1.57859e-05
1.56895e-05
1.56006e-05
1.55031e-05
1.54161e-05
1.53227e-05
1.52374e-05
1.51459e-05
1.50608e-05
1.49709e-05
1.48883e-05
1.48003e-05
1.47193e-05
1.46295e-05
1.45522e-05
1.44663e-05
1.43907e-05
1.43113e-05
1.42442e-05
1.41753e-05
1.41289e-05
1.99999e-05
1.98254e-05
1.94481e-05
1.91918e-05
1.8984e-05
1.88121e-05
1.8615e-05
1.84504e-05
1.83033e-05
1.81595e-05
1.80086e-05
1.78672e-05
1.77223e-05
1.75881e-05
1.74502e-05
1.73183e-05
1.71859e-05
1.7063e-05
1.6934e-05
1.68157e-05
1.66943e-05
1.65799e-05
1.64617e-05
1.63556e-05
1.62426e-05
1.61386e-05
1.60311e-05
1.59343e-05
1.58302e-05
1.57354e-05
1.56367e-05
1.55456e-05
1.54462e-05
1.53567e-05
1.52611e-05
1.51734e-05
1.50786e-05
1.49914e-05
1.48986e-05
1.48135e-05
1.47219e-05
1.46379e-05
1.45459e-05
1.44653e-05
1.43768e-05
1.42984e-05
1.42168e-05
1.41487e-05
1.40788e-05
1.40302e-05
1.99999e-05
1.98258e-05
1.94489e-05
1.91789e-05
1.89697e-05
1.88039e-05
1.86073e-05
1.84374e-05
1.82888e-05
1.81451e-05
1.79939e-05
1.78521e-05
1.77058e-05
1.75712e-05
1.74324e-05
1.72995e-05
1.71662e-05
1.70422e-05
1.69116e-05
1.67927e-05
1.66698e-05
1.65538e-05
1.64344e-05
1.6327e-05
1.62122e-05
1.61067e-05
1.5998e-05
1.58996e-05
1.57937e-05
1.56978e-05
1.55972e-05
1.5504e-05
1.54029e-05
1.53113e-05
1.52137e-05
1.51235e-05
1.50259e-05
1.49365e-05
1.48413e-05
1.47537e-05
1.46585e-05
1.4572e-05
1.44782e-05
1.43943e-05
1.43038e-05
1.4223e-05
1.414e-05
1.40716e-05
1.4001e-05
1.39508e-05
1.99999e-05
1.98267e-05
1.94522e-05
1.91691e-05
1.89577e-05
1.87974e-05
1.86039e-05
1.84294e-05
1.82789e-05
1.81356e-05
1.79849e-05
1.78432e-05
1.76961e-05
1.75616e-05
1.74223e-05
1.72888e-05
1.71552e-05
1.70305e-05
1.68989e-05
1.67796e-05
1.66556e-05
1.65386e-05
1.64184e-05
1.631e-05
1.61937e-05
1.60873e-05
1.59776e-05
1.58779e-05
1.57706e-05
1.5674e-05
1.55717e-05
1.54766e-05
1.53739e-05
1.52808e-05
1.51814e-05
1.50884e-05
1.49887e-05
1.48971e-05
1.47999e-05
1.47097e-05
1.46113e-05
1.45225e-05
1.44273e-05
1.43403e-05
1.42478e-05
1.41654e-05
1.40818e-05
1.4013e-05
1.39423e-05
1.38905e-05
1.99999e-05
1.98281e-05
1.94582e-05
1.91632e-05
1.89486e-05
1.87927e-05
1.86045e-05
1.84266e-05
1.82739e-05
1.81314e-05
1.79816e-05
1.78408e-05
1.76934e-05
1.75593e-05
1.74201e-05
1.72867e-05
1.71532e-05
1.70281e-05
1.68963e-05
1.6777e-05
1.66522e-05
1.65347e-05
1.64142e-05
1.6305e-05
1.61876e-05
1.60808e-05
1.59705e-05
1.58697e-05
1.57614e-05
1.56643e-05
1.55605e-05
1.54639e-05
1.53598e-05
1.52654e-05
1.51644e-05
1.50687e-05
1.49674e-05
1.48738e-05
1.47746e-05
1.46819e-05
1.45809e-05
1.44899e-05
1.43937e-05
1.4304e-05
1.42097e-05
1.41264e-05
1.40429e-05
1.39735e-05
1.39034e-05
1.385e-05
1.99999e-05
1.98301e-05
1.94663e-05
1.91613e-05
1.89423e-05
1.87898e-05
1.86085e-05
1.84286e-05
1.82733e-05
1.81321e-05
1.79837e-05
1.7844e-05
1.76968e-05
1.75634e-05
1.74245e-05
1.72916e-05
1.71585e-05
1.70334e-05
1.69017e-05
1.67826e-05
1.66575e-05
1.654e-05
1.64194e-05
1.63097e-05
1.61918e-05
1.60848e-05
1.59742e-05
1.58727e-05
1.5764e-05
1.56666e-05
1.55618e-05
1.54644e-05
1.53592e-05
1.52639e-05
1.51617e-05
1.50638e-05
1.49612e-05
1.4866e-05
1.47649e-05
1.46701e-05
1.4567e-05
1.44741e-05
1.43771e-05
1.42852e-05
1.41896e-05
1.41061e-05
1.40233e-05
1.39532e-05
1.38845e-05
1.38291e-05
1.99999e-05
1.98326e-05
1.94767e-05
1.91633e-05
1.89395e-05
1.87886e-05
1.86157e-05
1.84357e-05
1.82771e-05
1.81372e-05
1.79901e-05
1.78524e-05
1.77061e-05
1.75736e-05
1.74357e-05
1.7304e-05
1.71715e-05
1.7047e-05
1.6916e-05
1.67974e-05
1.66724e-05
1.65554e-05
1.6435e-05
1.63249e-05
1.62068e-05
1.61001e-05
1.59893e-05
1.58875e-05
1.57786e-05
1.5681e-05
1.55753e-05
1.54771e-05
1.53708e-05
1.52747e-05
1.51711e-05
1.50716e-05
1.49677e-05
1.48714e-05
1.47686e-05
1.46724e-05
1.45679e-05
1.44739e-05
1.43763e-05
1.42834e-05
1.41872e-05
1.41046e-05
1.40223e-05
1.39534e-05
1.38853e-05
1.38277e-05
1.99999e-05
1.98357e-05
1.94887e-05
1.91695e-05
1.894e-05
1.87896e-05
1.86251e-05
1.84474e-05
1.82856e-05
1.81473e-05
1.80016e-05
1.78662e-05
1.77213e-05
1.75897e-05
1.74533e-05
1.73232e-05
1.71915e-05
1.7068e-05
1.69384e-05
1.68204e-05
1.66961e-05
1.65801e-05
1.646e-05
1.63502e-05
1.62326e-05
1.61262e-05
1.60158e-05
1.59144e-05
1.58058e-05
1.5708e-05
1.56024e-05
1.55041e-05
1.53969e-05
1.53007e-05
1.51957e-05
1.50953e-05
1.49896e-05
1.48925e-05
1.47876e-05
1.46901e-05
1.45834e-05
1.44885e-05
1.43895e-05
1.42964e-05
1.41989e-05
1.41179e-05
1.40348e-05
1.39686e-05
1.38984e-05
1.38389e-05
1.99999e-05
1.98393e-05
1.95019e-05
1.91799e-05
1.89444e-05
1.87927e-05
1.86368e-05
1.84628e-05
1.82984e-05
1.8161e-05
1.80172e-05
1.78839e-05
1.77413e-05
1.76106e-05
1.7476e-05
1.73477e-05
1.72171e-05
1.7095e-05
1.6967e-05
1.68496e-05
1.67266e-05
1.6612e-05
1.64921e-05
1.63831e-05
1.62664e-05
1.61603e-05
1.60506e-05
1.59502e-05
1.58419e-05
1.5744e-05
1.56392e-05
1.5541e-05
1.54329e-05
1.53371e-05
1.52308e-05
1.51313e-05
1.50227e-05
1.49265e-05
1.48198e-05
1.47227e-05
1.46135e-05
1.45201e-05
1.4419e-05
1.43283e-05
1.42284e-05
1.41519e-05
1.40657e-05
1.40066e-05
1.39306e-05
1.38704e-05
1.99999e-05
1.98432e-05
1.95161e-05
1.91935e-05
1.89526e-05
1.87985e-05
1.86503e-05
1.84816e-05
1.83156e-05
1.81782e-05
1.80366e-05
1.79051e-05
1.77654e-05
1.76357e-05
1.75029e-05
1.73766e-05
1.72473e-05
1.71267e-05
1.70007e-05
1.68839e-05
1.67628e-05
1.66496e-05
1.65301e-05
1.64223e-05
1.63068e-05
1.6201e-05
1.60923e-05
1.59933e-05
1.58853e-05
1.57875e-05
1.56843e-05
1.55857e-05
1.54776e-05
1.53817e-05
1.52749e-05
1.51765e-05
1.50647e-05
1.49704e-05
1.48611e-05
1.47658e-05
1.46531e-05
1.45633e-05
1.44583e-05
1.43734e-05
1.42698e-05
1.41993e-05
1.41106e-05
1.40586e-05
1.39772e-05
1.39186e-05
1.99999e-05
1.98475e-05
1.95309e-05
1.92103e-05
1.89645e-05
1.8807e-05
1.86654e-05
1.8503e-05
1.83368e-05
1.81984e-05
1.80592e-05
1.79294e-05
1.77928e-05
1.76642e-05
1.75333e-05
1.74091e-05
1.72813e-05
1.71622e-05
1.70385e-05
1.69223e-05
1.68033e-05
1.66916e-05
1.65726e-05
1.64662e-05
1.6352e-05
1.62465e-05
1.61392e-05
1.60419e-05
1.59342e-05
1.58369e-05
1.57355e-05
1.56362e-05
1.55295e-05
1.5432e-05
1.53273e-05
1.52272e-05
1.51153e-05
1.50208e-05
1.49114e-05
1.4816e-05
1.47025e-05
1.46143e-05
1.45092e-05
1.44259e-05
1.43243e-05
1.42536e-05
1.41713e-05
1.41149e-05
1.40359e-05
1.39812e-05
1.99999e-05
1.98521e-05
1.9546e-05
1.92296e-05
1.898e-05
1.88184e-05
1.86818e-05
1.85267e-05
1.83612e-05
1.82216e-05
1.80842e-05
1.79564e-05
1.78226e-05
1.76958e-05
1.75663e-05
1.74443e-05
1.73181e-05
1.72003e-05
1.70792e-05
1.69636e-05
1.68469e-05
1.67365e-05
1.66184e-05
1.65133e-05
1.64005e-05
1.62956e-05
1.61897e-05
1.60941e-05
1.59868e-05
1.58906e-05
1.57905e-05
1.56909e-05
1.55864e-05
1.54862e-05
1.53862e-05
1.52802e-05
1.51743e-05
1.50736e-05
1.49706e-05
1.48686e-05
1.47625e-05
1.46681e-05
1.45721e-05
1.44809e-05
1.43915e-05
1.43123e-05
1.42445e-05
1.41779e-05
1.41042e-05
1.40532e-05
1.99999e-05
1.98568e-05
1.95614e-05
1.9251e-05
1.89989e-05
1.8833e-05
1.86995e-05
1.85521e-05
1.83882e-05
1.82476e-05
1.81112e-05
1.79859e-05
1.78541e-05
1.77298e-05
1.76012e-05
1.74814e-05
1.73569e-05
1.72403e-05
1.71218e-05
1.70069e-05
1.68923e-05
1.67834e-05
1.66664e-05
1.65621e-05
1.64509e-05
1.63468e-05
1.62422e-05
1.61482e-05
1.60414e-05
1.59474e-05
1.58468e-05
1.57492e-05
1.56443e-05
1.55449e-05
1.54465e-05
1.53364e-05
1.52371e-05
1.51289e-05
1.50347e-05
1.49235e-05
1.48279e-05
1.47264e-05
1.46394e-05
1.45422e-05
1.44624e-05
1.43808e-05
1.43196e-05
1.42537e-05
1.41867e-05
1.41393e-05
1.99999e-05
1.98616e-05
1.95768e-05
1.9274e-05
1.90209e-05
1.88507e-05
1.87186e-05
1.85788e-05
1.84174e-05
1.82762e-05
1.814e-05
1.80174e-05
1.78872e-05
1.77655e-05
1.76376e-05
1.75198e-05
1.73972e-05
1.72813e-05
1.71653e-05
1.70513e-05
1.69386e-05
1.68309e-05
1.67154e-05
1.66116e-05
1.65019e-05
1.63987e-05
1.62957e-05
1.62025e-05
1.60967e-05
1.60051e-05
1.5903e-05
1.58099e-05
1.57004e-05
1.56086e-05
1.55029e-05
1.53982e-05
1.52968e-05
1.51897e-05
1.50966e-05
1.49836e-05
1.4892e-05
1.47919e-05
1.47044e-05
1.46111e-05
1.45328e-05
1.44575e-05
1.43944e-05
1.43349e-05
1.42742e-05
1.42307e-05
1.99999e-05
1.98665e-05
1.95922e-05
1.92983e-05
1.90457e-05
1.88714e-05
1.87393e-05
1.86064e-05
1.84484e-05
1.8307e-05
1.81707e-05
1.80501e-05
1.79217e-05
1.78019e-05
1.76754e-05
1.75586e-05
1.74383e-05
1.7323e-05
1.72089e-05
1.70963e-05
1.69849e-05
1.68785e-05
1.67643e-05
1.66608e-05
1.65525e-05
1.645e-05
1.63489e-05
1.62557e-05
1.61522e-05
1.60608e-05
1.596e-05
1.58681e-05
1.5757e-05
1.56718e-05
1.55566e-05
1.54625e-05
1.53522e-05
1.52543e-05
1.5154e-05
1.50476e-05
1.49538e-05
1.486e-05
1.47685e-05
1.46823e-05
1.4604e-05
1.4536e-05
1.44707e-05
1.44152e-05
1.43595e-05
1.43202e-05
1.99999e-05
1.98714e-05
1.96075e-05
1.93233e-05
1.90727e-05
1.88949e-05
1.87616e-05
1.86344e-05
1.84808e-05
1.83396e-05
1.82032e-05
1.80839e-05
1.79573e-05
1.78389e-05
1.77142e-05
1.75979e-05
1.74796e-05
1.73649e-05
1.72522e-05
1.71411e-05
1.70307e-05
1.69253e-05
1.68124e-05
1.67088e-05
1.66018e-05
1.65e-05
1.64006e-05
1.63067e-05
1.62065e-05
1.61131e-05
1.60179e-05
1.59201e-05
1.58173e-05
1.57268e-05
1.56129e-05
1.55218e-05
1.5407e-05
1.53167e-05
1.52093e-05
1.51106e-05
1.50144e-05
1.49263e-05
1.48324e-05
1.47524e-05
1.46757e-05
1.46136e-05
1.45472e-05
1.44945e-05
1.44437e-05
1.44088e-05
1.99999e-05
1.98762e-05
1.96227e-05
1.93486e-05
1.91015e-05
1.89209e-05
1.87857e-05
1.86629e-05
1.85142e-05
1.83739e-05
1.82373e-05
1.81186e-05
1.79936e-05
1.78766e-05
1.77532e-05
1.76379e-05
1.75203e-05
1.7407e-05
1.72944e-05
1.71855e-05
1.70754e-05
1.69707e-05
1.6859e-05
1.67553e-05
1.66492e-05
1.65482e-05
1.64492e-05
1.63559e-05
1.6257e-05
1.6164e-05
1.60714e-05
1.59696e-05
1.58757e-05
1.57752e-05
1.56702e-05
1.55737e-05
1.54623e-05
1.53729e-05
1.5264e-05
1.51694e-05
1.50738e-05
1.49887e-05
1.48951e-05
1.482e-05
1.47469e-05
1.46872e-05
1.46219e-05
1.4573e-05
1.45266e-05
1.44941e-05
1.99999e-05
1.98811e-05
1.96377e-05
1.93741e-05
1.91318e-05
1.89492e-05
1.88117e-05
1.8692e-05
1.85485e-05
1.84097e-05
1.82729e-05
1.81544e-05
1.80304e-05
1.79151e-05
1.77924e-05
1.76785e-05
1.75604e-05
1.74492e-05
1.73356e-05
1.72292e-05
1.71186e-05
1.70147e-05
1.6904e-05
1.67997e-05
1.66943e-05
1.65939e-05
1.64944e-05
1.64029e-05
1.63025e-05
1.62146e-05
1.61163e-05
1.60215e-05
1.59243e-05
1.58228e-05
1.57231e-05
1.56201e-05
1.55153e-05
1.54239e-05
1.53153e-05
1.52237e-05
1.51317e-05
1.50454e-05
1.49553e-05
1.48855e-05
1.48154e-05
1.47556e-05
1.46934e-05
1.46491e-05
1.46056e-05
1.45743e-05
1.99999e-05
1.98858e-05
1.96525e-05
1.93995e-05
1.91631e-05
1.89796e-05
1.88397e-05
1.87218e-05
1.85835e-05
1.84468e-05
1.83099e-05
1.81911e-05
1.80679e-05
1.79542e-05
1.7832e-05
1.77193e-05
1.76003e-05
1.74908e-05
1.73763e-05
1.72717e-05
1.71606e-05
1.70569e-05
1.6947e-05
1.68419e-05
1.67372e-05
1.6636e-05
1.65375e-05
1.64446e-05
1.63467e-05
1.62589e-05
1.61587e-05
1.60696e-05
1.59654e-05
1.587e-05
1.57679e-05
1.56635e-05
1.5564e-05
1.54689e-05
1.53627e-05
1.52747e-05
1.5184e-05
1.50979e-05
1.50137e-05
1.49464e-05
1.48785e-05
1.48208e-05
1.4762e-05
1.47205e-05
1.46794e-05
1.46503e-05
1.99999e-05
1.98905e-05
1.9667e-05
1.94247e-05
1.91951e-05
1.90116e-05
1.88695e-05
1.87525e-05
1.86191e-05
1.8485e-05
1.83482e-05
1.8229e-05
1.81064e-05
1.7994e-05
1.78724e-05
1.776e-05
1.76405e-05
1.75316e-05
1.7417e-05
1.73126e-05
1.72016e-05
1.70974e-05
1.69881e-05
1.68819e-05
1.67778e-05
1.66746e-05
1.65781e-05
1.6481e-05
1.63901e-05
1.62939e-05
1.62034e-05
1.61066e-05
1.60058e-05
1.5912e-05
1.58049e-05
1.57053e-05
1.56062e-05
1.55084e-05
1.54062e-05
1.53219e-05
1.52303e-05
1.51467e-05
1.50682e-05
1.50034e-05
1.4937e-05
1.4881e-05
1.48259e-05
1.47887e-05
1.47498e-05
1.47215e-05
1.99999e-05
1.98951e-05
1.96812e-05
1.94495e-05
1.92273e-05
1.90451e-05
1.89012e-05
1.87844e-05
1.86554e-05
1.85241e-05
1.83879e-05
1.82682e-05
1.81461e-05
1.80345e-05
1.79135e-05
1.78009e-05
1.76813e-05
1.75718e-05
1.74576e-05
1.73523e-05
1.7242e-05
1.71364e-05
1.70276e-05
1.69201e-05
1.6815e-05
1.67116e-05
1.66133e-05
1.65171e-05
1.64258e-05
1.63283e-05
1.62417e-05
1.61383e-05
1.60445e-05
1.59452e-05
1.58393e-05
1.57421e-05
1.56416e-05
1.55439e-05
1.54455e-05
1.53639e-05
1.52714e-05
1.51925e-05
1.51181e-05
1.50557e-05
1.49904e-05
1.49368e-05
1.4886e-05
1.48522e-05
1.48143e-05
1.47861e-05
1.99999e-05
1.98996e-05
1.9695e-05
1.94739e-05
1.92596e-05
1.90795e-05
1.89346e-05
1.88175e-05
1.86924e-05
1.8564e-05
1.84289e-05
1.83088e-05
1.81871e-05
1.8076e-05
1.79555e-05
1.78426e-05