/*--------------------------------*- C++ -*----------------------------------*\
  =========                 |
  \\      /  F ield         | OpenFOAM: The Open Source CFD Toolbox
   \\    /   O peration     | Website:  https://openfoam.org
    \\  /    A nd           | Version:  7
     \\/     M anipulation  |
\*---------------------------------------------------------------------------*/
FoamFile
{
    version     2.0;
    format      ascii;
    class       volScalarField;
    location    "0.14";
    object      nut;
}
// * * * * * * * * * * * * * * * * * * * * * * * * * * * * * * * * * * * * * //

dimensions      [0 2 -1 0 0 0 0];

internalField   nonuniform List<scalar> 
70000
(
0
0
0
0
0
0
0
0
0
0
0
0
0
0
0
0
0
0
0
0
0
0
0
0
0
0
0
0
0
0
0
0
0
0
0
0
0
0
0
0
0
0
0
0
0
0
0
0
0
0
0
0
0
0
0
0
0
0
0
0
0
0
0
0
0
0
0
0
0
0
0
0
0
0
0
0
0
0
0
0
0
0
0
0
0
0
0
0
0
0
0
0
0
0
0
0
0
3.91514e-13
0
0
0
0
0
0
0
0
0
0
0
0
0
0
0
0
0
0
0
0
0
0
0
0
0
0
0
0
0
0
0
0
0
0
0
0
0
0
0
0
0
0
0
0
0
0
0
0
0
1.2113e-12
0
0
0
0
0
0
0
0
0
0
0
0
0
0
0
0
0
0
0
0
0
0
0
0
0
0
0
0
0
0
0
0
0
0
0
0
0
0
0
0
0
0
0
0
0
0
0
0
0
2.03887e-12
0
0
0
0
0
0
0
0
0
0
0
0
0
0
0
0
0
0
0
0
0
0
0
0
0
0
0
0
0
0
0
0
0
0
0
0
0
0
0
0
0
0
0
0
0
0
0
4.28991e-13
0
2.90201e-12
3.90037e-13
0
9.4478e-10
0
0
0
0
0
0
0
0
0
0
0
0
0
0
0
0
0
0
0
0
0
0
0
0
0
0
0
0
0
0
0
0
0
0
0
0
0
0
0
0
0
0
1.44197e-13
0
1.14935e-12
0
3.80917e-12
1.82712e-12
0
1.32082e-08
0
0
0
0
0
0
0
0
0
0
0
0
0
0
0
0
0
0
0
0
0
0
0
0
0
0
0
0
0
0
0
0
0
0
0
0
0
0
0
0
0
0
5.61791e-13
0
1.90344e-12
0
4.63331e-12
3.48681e-12
0
1.2102e-08
0
0
0
0
0
0
0
0
0
0
0
0
0
0
0
0
0
0
0
0
0
0
0
0
0
0
0
0
0
0
0
0
0
0
0
0
0
0
0
0
1.68408e-13
1.58235e-13
9.76549e-13
4.09867e-13
2.65468e-12
7.25629e-13
5.33401e-12
5.46934e-12
0
1.10813e-08
0
0
0
0
0
0
0
0
0
0
0
0
0
0
0
0
0
0
0
0
0
0
0
0
0
0
0
0
0
0
0
0
0
0
0
0
0
0
0
0
3.44437e-13
3.75667e-13
1.39716e-12
8.71532e-13
3.40041e-12
1.7913e-12
5.96561e-12
7.63905e-12
0
1.02326e-08
0
0
0
0
0
0
0
0
0
0
0
0
0
0
0
0
0
0
0
0
0
0
0
0
0
0
0
0
0
0
0
0
0
0
0
0
0
0
0
0
5.36623e-13
6.18666e-13
1.84836e-12
1.40973e-12
4.1672e-12
3.02832e-12
6.62801e-12
9.85881e-12
0
9.52287e-09
0
0
0
0
0
0
0
0
0
0
0
0
0
0
0
0
0
0
0
0
0
0
0
0
0
0
0
0
0
0
0
0
0
0
0
0
0
0
0
9.46761e-14
7.86635e-13
9.3203e-13
2.37281e-12
2.07356e-12
5.01498e-12
4.46522e-12
7.46356e-12
1.21702e-11
0
8.88118e-09
0
0
0
0
0
0
0
0
0
0
0
0
0
0
0
0
0
0
0
0
0
0
0
0
0
0
0
0
0
0
0
0
0
0
0
0
0
0
0
3.23833e-13
1.15972e-12
1.3848e-12
3.04088e-12
2.93761e-12
6.01757e-12
6.1562e-12
8.56143e-12
1.46012e-11
0
8.24129e-09
0
0
0
0
0
0
0
0
0
1.40545e-11
0
0
0
0
0
0
0
0
0
0
0
0
0
0
0
0
0
0
0
0
0
0
0
0
0
0
0
0
3.44724e-13
7.56745e-13
1.75889e-12
2.09435e-12
3.98366e-12
4.1503e-12
7.3557e-12
8.27799e-12
1.01781e-11
1.73783e-11
4.26183e-12
7.58327e-09
0
0
0
0
0
0
0
0
0
0
0
6.6229e-11
9.08811e-11
3.48448e-11
3.99107e-12
0
0
0
0
0
0
0
0
0
0
0
0
0
0
0
0
0
0
0
0
0
0
3.25851e-13
1.03495e-12
1.5514e-12
2.76493e-12
3.26726e-12
5.43787e-12
5.97654e-12
9.34363e-12
1.1152e-11
1.27109e-11
2.08945e-11
9.89575e-12
6.9133e-09
0
0
0
0
0
0
0
0
0
0
0
0
0
4.32849e-11
1.16048e-10
1.64217e-10
1.30373e-10
5.72467e-11
1.91086e-11
4.6709e-12
0
0
0
0
0
0
0
0
0
0
0
0
0
0
0
2.71066e-13
8.69578e-13
1.45828e-12
2.37005e-12
3.06106e-12
4.57893e-12
5.35175e-12
7.91528e-12
8.98089e-12
1.26317e-11
1.54651e-11
1.69094e-11
2.58885e-11
1.66933e-11
6.24251e-09
0
0
0
3.88443e-11
0
0
0
0
0
0
0
0
0
0
0
1.97622e-11
6.13638e-11
1.16537e-10
1.79415e-10
2.28846e-10
2.20723e-10
1.41998e-10
7.02512e-11
3.33199e-11
1.6423e-11
8.63831e-12
4.85237e-12
2.83182e-12
1.6954e-12
1.09452e-12
8.60037e-13
9.13443e-13
1.15062e-12
1.53449e-12
2.03105e-12
2.61549e-12
3.3897e-12
4.16985e-12
5.39667e-12
6.3796e-12
8.38069e-12
9.60316e-12
1.27923e-11
1.46337e-11
1.88248e-11
2.29031e-11
2.44542e-11
3.39499e-11
2.5641e-11
5.57948e-09
0
0
0
1.44081e-10
0
0
0
0
0
0
0
0
0
0
0
0
0
1.6116e-11
3.68312e-11
6.11874e-11
9.43476e-11
1.40018e-10
1.97559e-10
2.60684e-10
3.15798e-10
3.25647e-10
2.56921e-10
1.61553e-10
9.49064e-11
5.79249e-11
3.82772e-11
2.76815e-11
2.16448e-11
1.79935e-11
1.5773e-11
1.45343e-11
1.42245e-11
1.44064e-11
1.5588e-11
1.66587e-11
1.92371e-11
2.10083e-11
2.51439e-11
2.8032e-11
3.31123e-11
3.86505e-11
4.01736e-11
4.93199e-11
3.93438e-11
4.93054e-09
0
0
0
2.34881e-10
0
0
0
0
0
0
0
0
0
0
0
0
0
0
2.91714e-12
1.6319e-11
2.98695e-11
4.39582e-11
5.90245e-11
7.63488e-11
9.83546e-11
1.29384e-10
1.72401e-10
2.2836e-10
2.96725e-10
3.74987e-10
4.53763e-10
4.94591e-10
4.48033e-10
3.3934e-10
2.37554e-10
1.68516e-10
1.27314e-10
1.02981e-10
8.94971e-11
8.0657e-11
7.71229e-11
7.40692e-11
7.56779e-11
7.68101e-11
8.0836e-11
8.58797e-11
8.39508e-11
8.79514e-11
6.7181e-11
4.30124e-09
0
0
0
2.98889e-10
0
0
0
0
0
0
0
0
0
0
0
0
0
0
0
0
7.43246e-12
1.62917e-11
2.4952e-11
3.35775e-11
4.22234e-11
5.09923e-11
5.98981e-11
6.91991e-11
7.93324e-11
9.17938e-11
1.09253e-10
1.35629e-10
1.74334e-10
2.28155e-10
3.02777e-10
4.03507e-10
5.43085e-10
7.1113e-10
8.45433e-10
8.4632e-10
7.31169e-10
5.89084e-10
4.82401e-10
4.07636e-10
3.58821e-10
3.22347e-10
2.76205e-10
2.33481e-10
1.53447e-10
3.69671e-09
0
0
0
3.21324e-10
0
0
0
0
0
0
0
0
0
0
0
0
0
0
0
0
0
4.10947e-12
9.70779e-12
1.46552e-11
1.8961e-11
2.26352e-11
2.55327e-11
2.75411e-11
2.83106e-11
2.75282e-11
2.46073e-11
1.88417e-11
9.56253e-12
0
0
0
0
0
0
0
0
0
0
4.0434e-10
1.06756e-09
1.54994e-09
1.43289e-09
1.01718e-09
5.31496e-10
3.12127e-09
0
0
0
2.85171e-10
0
0
0
0
0
0
0
0
0
0
0
0
0
0
0
0
0
0
3.31665e-12
6.30708e-12
8.21313e-12
9.0104e-12
8.52393e-12
6.56819e-12
2.73914e-12
0
0
0
0
0
0
0
0
0
0
0
0
0
0
0
0
0
0
0
0
2.57787e-09
0
0
0
1.71788e-10
0
0
0
0
0
0
0
0
0
0
0
0
0
0
0
0
0
0
1.07898e-12
2.97747e-12
3.43054e-12
2.38677e-12
0
0
0
0
0
0
0
0
0
0
0
0
0
0
0
0
0
0
0
0
0
0
0
2.06782e-09
0
0
0
0
0
0
0
0
0
0
0
0
0
0
0
0
0
0
0
0
0
0
6.30472e-13
1.83565e-12
1.2647e-12
0
0
0
0
0
0
0
0
0
0
0
0
0
0
0
0
0
0
0
0
0
0
0
0
1.59067e-09
0
0
0
0
0
0
0
0
0
0
0
0
0
0
0
0
0
0
0
0
0
0
8.24948e-13
1.45538e-12
0
0
0
0
0
0
0
0
0
0
0
0
0
0
0
0
0
0
0
0
0
0
0
0
0
1.14438e-09
0
0
0
0
0
0
0
0
0
0
0
0
0
0
0
0
0
0
0
0
0
0
1.1538e-12
1.15995e-12
0
0
0
0
0
0
0
0
0
0
0
0
0
0
0
0
0
0
0
0
0
0
0
0
0
7.25717e-10
0
0
0
0
0
0
0
0
0
0
0
0
0
0
0
0
0
0
0
0
0
0
1.39537e-12
6.28043e-13
0
0
0
0
0
0
0
0
0
0
0
0
0
0
0
0
0
0
0
0
0
0
0
0
1.97679e-10
3.3086e-10
0
0
0
0
0
0
0
0
0
0
0
0
0
0
0
0
0
0
0
0
0
0
1.42488e-12
0
0
0
0
0
0
0
0
0
0
0
0
0
0
0
0
0
0
0
0
0
0
0
0
0
1.19224e-09
0
0
0
0
0
0
0
0
0
0
0
0
0
0
0
0
0
0
0
0
0
0
3.47763e-13
1.13017e-12
0
0
0
0
0
0
0
0
0
0
0
0
0
0
0
0
0
0
0
0
0
0
0
0
0
2.54443e-09
0
0
0
0
0
0
0
0
0
0
0
0
0
0
0
0
0
0
0
0
0
0
5.78893e-13
3.79765e-13
0
0
0
0
0
0
0
0
0
0
0
0
0
0
0
0
0
0
0
0
0
0
0
0
0
4.47316e-09
0
0
0
0
0
0
0
0
0
0
0
0
0
0
0
0
0
0
0
0
0
0
5.14096e-13
0
0
0
0
0
0
0
0
0
0
0
0
0
0
0
0
0
0
0
0
0
0
0
0
0
0
7.31346e-09
0
0
0
0
0
0
0
0
0
0
0
0
0
0
0
0
0
0
0
0
0
0
3.54408e-14
0
0
0
0
0
0
0
0
0
0
0
0
0
0
0
0
0
0
0
0
0
0
0
0
0
0
1.16161e-08
0
2.44331e-10
0
0
0
0
0
0
0
0
0
0
0
0
0
0
0
0
0
0
0
0
0
0
0
0
0
0
0
0
0
0
0
0
0
0
0
0
0
0
0
0
0
0
0
0
0
0
0
1.82981e-08
0
1.3361e-09
0
0
0
0
0
0
0
0
0
0
0
0
0
0
0
0
0
0
0
0
0
0
0
0
0
0
0
0
0
0
0
0
0
0
0
0
0
0
0
0
0
0
0
0
0
0
0
2.88106e-08
0
2.30418e-09
0
0
0
0
0
0
0
0
0
0
0
0
0
0
0
0
0
0
0
0
0
0
0
0
0
0
0
0
0
0
0
0
0
0
0
0
0
0
0
0
0
0
0
0
0
0
4.01023e-09
4.49674e-08
0
3.14646e-09
0
0
0
0
0
0
0
0
0
0
0
0
0
0
0
0
0
0
0
0
0
0
0
0
0
0
0
0
0
0
0
0
0
0
0
0
0
0
0
0
0
0
0
0
0
0
1.64012e-08
6.69548e-08
0
3.86394e-09
0
0
0
0
0
0
0
0
0
0
0
0
0
0
0
0
0
0
0
0
0
0
0
0
0
0
0
0
0
0
0
0
0
0
0
0
0
0
0
0
0
0
0
0
0
0
4.60977e-08
8.76463e-08
0
4.46106e-09
0
0
0
0
0
0
0
0
0
0
0
0
0
0
0
0
0
0
0
0
0
0
0
0
0
0
0
0
0
0
0
0
0
0
0
0
0
0
0
0
0
0
0
0
0
0
1.07825e-07
9.26917e-08
0
4.94476e-09
0
0
0
0
0
0
0
0
0
0
0
0
0
0
0
0
0
0
0
0
0
0
0
0
0
0
0
0
0
0
0
0
0
0
0
0
0
0
0
0
0
0
0
0
0
0
1.54932e-07
7.97303e-08
0
5.32276e-09
0
0
0
0
0
0
0
0
0
0
0
0
0
0
0
0
0
0
0
0
0
0
0
0
0
0
0
0
0
0
0
0
0
0
0
0
0
0
0
0
0
0
0
0
0
6.24373e-08
1.2064e-07
6.10279e-08
0
5.60336e-09
0
0
0
0
0
0
0
0
0
0
0
0
0
0
0
0
0
0
3.84232e-13
0
0
0
0
0
0
0
0
0
0
0
0
0
0
0
0
0
0
0
0
0
0
0
0
0
0
1.15047e-07
7.72098e-08
4.49455e-08
0
5.79618e-09
0
0
0
0
0
0
0
0
0
0
0
0
0
0
0
0
0
4.41505e-12
7.16726e-12
0
0
0
0
0
0
0
0
0
0
0
0
0
0
0
0
0
0
0
0
0
0
0
0
0
0
6.92562e-08
5.06255e-08
3.30402e-08
0
5.91198e-09
0
0
0
0
0
0
0
0
0
0
0
0
0
0
0
0
0
2.27467e-11
1.74628e-11
0
0
0
0
0
0
0
0
0
0
0
0
0
0
0
0
0
0
0
0
0
0
0
0
0
0
4.41742e-08
3.50154e-08
2.44995e-08
0
5.96165e-09
0
0
0
0
0
0
0
0
0
0
0
0
0
0
0
0
3.14824e-11
4.85156e-11
3.27616e-11
0
0
0
0
0
0
0
0
0
0
0
0
0
0
0
0
0
0
0
0
0
0
0
0
0
1.52112e-08
3.08624e-08
2.52497e-08
1.83099e-08
0
5.95529e-09
0
0
0
0
0
0
0
0
0
0
0
0
0
0
0
1.98327e-11
7.5652e-11
8.40739e-11
5.50427e-11
0
0
0
0
0
0
0
0
0
0
0
0
0
0
0
0
0
0
0
0
0
0
0
0
0
1.81647e-08
2.27899e-08
1.86951e-08
1.37185e-08
0
5.90189e-09
0
0
0
0
0
0
0
0
0
0
0
0
0
0
0
8.30445e-11
1.34901e-10
1.32393e-10
8.68999e-11
7.67579e-13
0
0
0
0
0
0
0
0
0
0
0
0
0
0
0
0
0
0
0
0
0
0
0
0
1.6522e-08
1.73493e-08
1.4018e-08
1.02194e-08
0
5.80914e-09
0
0
0
0
0
0
0
0
0
0
0
0
0
0
5.07086e-11
1.67784e-10
2.13292e-10
1.97215e-10
1.317e-10
2.02915e-11
0
0
0
0
0
0
0
0
0
0
0
0
0
0
0
0
0
0
0
0
0
0
0
6.50598e-09
1.41111e-08
1.33884e-08
1.05091e-08
7.4834e-09
0
5.68359e-09
0
0
0
0
0
0
0
0
0
0
0
0
0
1.12768e-11
1.69907e-10
2.79822e-10
3.15924e-10
2.83259e-10
1.93795e-10
5.22624e-11
0
0
0
0
0
0
0
0
0
0
0
0
0
0
0
0
0
0
0
0
0
0
0
9.17894e-09
1.17475e-08
1.03374e-08
7.77015e-09
5.29652e-09
0
5.53073e-09
0
0
0
0
0
0
0
0
0
0
0
0
3.2732e-11
1.86932e-10
3.28561e-10
4.26239e-10
4.49173e-10
3.96465e-10
2.78782e-10
1.01778e-10
0
0
0
0
0
0
0
0
0
0
0
0
0
0
0
0
0
0
0
0
0
0
2.21308e-09
9.32039e-09
9.60015e-09
7.88857e-09
5.56557e-09
3.51652e-09
0
5.35521e-09
0
0
0
0
0
0
0
0
0
0
0
1.74848e-11
2.70601e-10
4.14673e-10
5.35595e-10
6.15636e-10
6.20979e-10
5.44325e-10
3.93841e-10
1.75571e-10
0
0
0
0
0
0
0
0
0
0
0
0
0
0
0
0
0
0
0
0
0
0
5.84702e-09
8.50377e-09
7.68333e-09
5.86187e-09
3.74814e-09
2.04727e-09
0
5.16117e-09
3.09629e-10
0
0
0
0
0
0
0
0
0
0
2.83294e-10
5.65755e-10
7.03329e-10
8.01192e-10
8.58335e-10
8.41186e-10
7.36307e-10
5.48182e-10
2.82521e-10
0
0
0
0
0
0
0
0
0
0
0
0
0
0
0
0
0
0
0
0
0
1.40168e-09
6.85978e-09
7.33011e-09
5.97584e-09
4.14707e-09
2.2232e-09
8.22636e-10
0
4.95239e-09
8.5902e-10
0
0
0
0
0
0
0
0
0
0
6.1226e-10
9.26787e-10
1.06263e-09
1.13681e-09
1.16652e-09
1.12188e-09
9.84296e-10
7.53601e-10
4.3428e-10
2.49295e-11
0
0
0
0
0
0
0
0
0
0
0
0
0
0
0
0
0
0
0
0
4.77471e-09
6.68218e-09
6.04737e-09
4.4505e-09
2.67338e-09
9.28076e-10
0
0
4.73225e-09
1.32767e-09
0
0
0
0
0
0
0
0
0
3.68083e-10
1.01606e-09
1.36369e-09
1.50344e-09
1.55538e-09
1.55451e-09
1.47781e-09
1.30318e-09
1.0252e-09
6.4612e-10
1.63883e-10
0
0
0
0
0
0
0
0
0
0
0
0
0
0
0
0
0
0
0
2.14875e-09
5.86189e-09
5.95546e-09
4.76475e-09
3.08461e-09
1.39393e-09
0
0
0
4.50373e-09
1.7197e-09
0
0
0
0
0
0
0
0
1.39625e-10
8.50894e-10
1.50708e-09
1.8877e-09
2.03781e-09
2.07142e-09
2.03894e-09
1.92683e-09
1.71149e-09
1.38228e-09
9.37997e-10
3.75314e-10
0
0
0
0
0
0
0
0
0
0
0
0
0
0
0
0
0
0
0
4.82673e-09
5.82027e-09
4.98348e-09
3.53251e-09
1.8608e-09
2.77202e-10
0
0
0
4.26955e-09
2.03982e-09
0
0
0
0
0
4.00377e-10
6.41354e-10
5.26872e-10
7.96126e-10
1.44209e-09
2.09763e-09
2.51093e-09
2.67894e-09
2.70098e-09
2.63891e-09
2.49019e-09
2.23214e-09
1.84924e-09
1.33591e-09
6.86579e-10
0
0
0
0
0
0
0
0
0
0
0
0
0
0
0
0
0
0
3.68998e-09
5.62172e-09
5.21731e-09
3.91923e-09
2.37508e-09
7.65612e-10
0
0
0
0
4.03228e-09
2.29335e-09
0
0
0
0
0
8.88262e-10
1.34864e-09
1.32722e-09
1.55951e-09
2.14874e-09
2.79932e-09
3.24605e-09
3.44096e-09
3.46163e-09
3.37603e-09
3.19308e-09
2.89321e-09
2.45693e-09
1.87359e-09
1.1342e-09
2.2752e-10
0
0
0
0
0
0
0
0
0
0
0
0
0
0
0
0
2.51727e-09
5.48708e-09
5.45139e-09
4.34377e-09
2.84457e-09
1.30436e-09
0
0
0
0
0
3.79433e-09
2.48597e-09
0
0
0
0
0
1.40989e-09
2.08523e-09
2.19102e-09
2.4241e-09
2.97381e-09
3.62138e-09
4.10501e-09
4.33815e-09
4.37178e-09
4.27408e-09
4.06468e-09
3.72872e-09
3.2443e-09
2.59482e-09
1.76716e-09
7.46362e-10
0
0
0
0
0
0
0
0
0
0
0
0
0
0
0
1.53175e-09
5.5065e-09
5.79992e-09
4.78965e-09
3.35695e-09
1.80555e-09
3.25686e-10
0
0
0
0
0
3.55792e-09
2.62345e-09
0
0
0
0
9.51714e-12
1.96161e-09
2.84363e-09
3.10549e-09
3.37934e-09
3.91487e-09
4.56906e-09
5.0976e-09
5.38389e-09
5.44989e-09
5.35841e-09
5.1376e-09
4.77907e-09
4.25921e-09
3.55624e-09
2.65074e-09
1.52365e-09
1.54084e-10
0
0
0
0
0
0
0
0
0
0
0
0
0
1.08773e-09
5.90923e-09
6.3379e-09
5.35107e-09
3.89237e-09
2.34593e-09
8.27695e-10
0
0
0
0
0
0
3.32495e-09
2.7115e-09
0
0
0
0
5.29863e-10
2.53514e-09
3.61337e-09
4.05471e-09
4.40976e-09
4.96344e-09
5.64213e-09
6.22966e-09
6.58893e-09
6.71322e-09
6.6545e-09
6.44748e-09
6.09022e-09
5.55995e-09
4.82902e-09
3.87151e-09
2.66259e-09
1.17643e-09
0
0
0
0
0
0
0
0
0
0
0
0
1.94411e-09
7.01297e-09
7.24353e-09
6.07884e-09
4.52552e-09
2.90238e-09
1.36133e-09
0
0
0
0
0
0
0
3.09706e-09
2.75574e-09
0
0
0
0
1.07303e-09
3.11751e-09
4.38037e-09
5.01891e-09
5.49412e-09
6.10337e-09
6.83246e-09
7.49996e-09
7.95835e-09
8.17429e-09
8.18556e-09
8.02997e-09
7.713e-09
7.21403e-09
6.50128e-09
5.54172e-09
4.30387e-09
2.75751e-09
8.65695e-10
0
0
0
0
0
0
0
0
0
0
5.58763e-09
9.36945e-09
8.72637e-09
7.09698e-09
5.28428e-09
3.53242e-09
1.90031e-09
4.33395e-10
0
0
0
0
0
0
0
2.87559e-09
2.7617e-09
3.81778e-10
0
0
0
1.61705e-09
3.69114e-09
5.12615e-09
5.97376e-09
6.6045e-09
7.3094e-09
8.12152e-09
8.89706e-09
9.4875e-09
9.83696e-09
9.96724e-09
9.91643e-09
9.69794e-09
9.29581e-09
8.67681e-09
7.80226e-09
6.63564e-09
5.14532e-09
3.29772e-09
1.03689e-09
0
0
0
0
0
0
0
0
1.49057e-08
1.37816e-08
1.10942e-08
8.51989e-09
6.24583e-09
4.2446e-09
2.48888e-09
9.35734e-10
0
0
0
0
0
0
0
0
2.66162e-09
2.73475e-09
7.13343e-10
0
0
6.15018e-11
2.13857e-09
4.23483e-09
5.82812e-09
6.89022e-09
7.70601e-09
8.54612e-09
9.47807e-09
1.03955e-08
1.11571e-08
1.16901e-08
1.20005e-08
1.21251e-08
1.20863e-08
1.1877e-08
1.14674e-08
1.08189e-08
9.89673e-09
8.67886e-09
7.15793e-09
5.3315e-09
3.17737e-09
6.18601e-10
0
0
0
2.67377e-08
6.65295e-08
3.41083e-08
2.12397e-08
1.46689e-08
1.0497e-08
7.46778e-09
5.09048e-09
3.12637e-09
1.46844e-09
4.07767e-11
0
0
0
0
0
0
0
0
2.45602e-09
2.67994e-09
9.7292e-10
0
0
6.15598e-10
2.61456e-09
4.72534e-09
6.46045e-09
7.73498e-09
8.75686e-09
9.76709e-09
1.08558e-08
1.19518e-08
1.29271e-08
1.3699e-08
1.42605e-08
1.46473e-08
1.48934e-08
1.50066e-08
1.49706e-08
1.47593e-08
1.43572e-08
1.37811e-08
1.31059e-08
1.25e-08
1.23131e-08
1.33725e-08
1.81629e-08
3.68234e-08
1.17294e-07
1.55552e-07
6.39407e-08
3.22932e-08
1.97091e-08
1.31453e-08
9.02329e-09
6.09494e-09
3.84602e-09
2.02416e-09
5.13647e-10
0
0
0
0
0
0
0
0
0
2.25944e-09
2.60202e-09
1.16674e-09
0
0
1.09419e-09
3.0238e-09
5.13911e-09
6.99567e-09
8.47162e-09
9.70922e-09
1.09155e-08
1.21928e-08
1.3501e-08
1.47303e-08
1.57959e-08
1.66826e-08
1.74278e-08
1.80808e-08
1.86742e-08
1.92207e-08
1.97297e-08
2.02379e-08
2.08579e-08
2.1856e-08
2.38052e-08
2.79806e-08
3.7549e-08
6.14712e-08
1.20507e-07
1.61676e-07
9.08669e-08
4.54647e-08
2.60439e-08
1.64796e-08
1.09357e-08
7.28808e-09
4.65214e-09
2.62325e-09
9.89331e-10
0
0
0
0
0
0
0
0
0
0
2.07232e-09
2.50549e-09
1.30167e-09
3.36483e-10
3.67638e-10
1.48571e-09
3.34843e-09
5.45452e-09
7.4068e-09
9.06289e-09
1.05121e-08
1.19267e-08
1.34129e-08
1.49564e-08
1.64692e-08
1.78722e-08
1.91483e-08
2.03402e-08
2.15184e-08
2.2752e-08
2.41021e-08
2.56414e-08
2.75022e-08
2.99622e-08
3.35996e-08
3.96037e-08
5.04422e-08
7.09744e-08
1.059e-07
1.30152e-07
9.76226e-08
5.61847e-08
3.26438e-08
2.02382e-08
1.3139e-08
8.64672e-09
5.54785e-09
3.25681e-09
1.47999e-09
5.18058e-11
0
0
0
0
0
0
0
0
0
0
1.89499e-09
2.39455e-09
1.38501e-09
5.93663e-10
6.96419e-10
1.78312e-09
3.57521e-09
5.65369e-09
7.66987e-09
9.47419e-09
1.11154e-08
1.27327e-08
1.44294e-08
1.62124e-08
1.80169e-08
1.97755e-08
2.14747e-08
2.31662e-08
2.49462e-08
2.69272e-08
2.92298e-08
3.20036e-08
3.54866e-08
4.01102e-08
4.66601e-08
5.64614e-08
7.11878e-08
9.01919e-08
1.01822e-07
8.80694e-08
6.00252e-08
3.76585e-08
2.37956e-08
1.54119e-08
1.00939e-08
6.49787e-09
3.9183e-09
1.97188e-09
4.51382e-10
0
0
0
0
0
0
0
0
0
0
0
1.72762e-09
2.27301e-09
1.42398e-09
7.77147e-10
9.35327e-10
1.98396e-09
3.69631e-09
5.72439e-09
7.76716e-09
9.67776e-09
1.14752e-08
1.32687e-08
1.51544e-08
1.71548e-08
1.9227e-08
2.13179e-08
2.34203e-08
2.55953e-08
2.79607e-08
3.06639e-08
3.38667e-08
3.77555e-08
4.2578e-08
4.86857e-08
5.64939e-08
6.61021e-08
7.5975e-08
8.08259e-08
7.3929e-08
5.71131e-08
3.95534e-08
2.63027e-08
1.73853e-08
1.14696e-08
7.43692e-09
4.57273e-09
2.45509e-09
8.31624e-10
0
0
0
0
0
0
0
0
0
0
0
0
1.57029e-09
2.1443e-09
1.42559e-09
8.94984e-10
1.09036e-09
2.09038e-09
3.71003e-09
5.66188e-09
7.68993e-09
9.65651e-09
1.15598e-08
1.34825e-08
1.55107e-08
1.76764e-08
1.99538e-08
2.23022e-08
2.47185e-08
2.72662e-08
3.0067e-08
3.32705e-08
3.70205e-08
4.14336e-08
4.65733e-08
5.23726e-08
5.84057e-08
6.3434e-08
6.50526e-08
6.07227e-08
5.06057e-08
3.82301e-08
2.71289e-08
1.86361e-08
1.25545e-08
8.25386e-09
5.16905e-09
2.89845e-09
1.18239e-09
0
0
0
0
0
0
0
0
0
0
0
0
0
1.42295e-09
2.01143e-09
1.39657e-09
9.55944e-10
1.1699e-09
2.10884e-09
3.62086e-09
5.46954e-09
7.43993e-09
9.40702e-09
1.13548e-08
1.33434e-08
1.54462e-08
1.76977e-08
2.0082e-08
2.25645e-08
2.51391e-08
2.78569e-08
3.08165e-08
3.41219e-08
3.78273e-08
4.18796e-08
4.60528e-08
4.98597e-08
5.24599e-08
5.27081e-08
4.96119e-08
4.3174e-08
3.47509e-08
2.62235e-08
1.88813e-08
1.31274e-08
8.8181e-09
5.63253e-09
3.26491e-09
1.47849e-09
1.09285e-10
0
0
0
0
0
0
0
0
0
0
0
0
0
1.28547e-09
1.877e-09
1.34326e-09
9.69167e-10
1.18413e-09
2.04932e-09
3.43877e-09
5.15846e-09
7.02961e-09
8.94094e-09
1.08671e-08
1.28489e-08
1.49452e-08
1.71861e-08
1.95569e-08
2.20209e-08
2.456e-08
2.71983e-08
2.99875e-08
3.29548e-08
3.60359e-08
3.90167e-08
4.15018e-08
4.29369e-08
4.27206e-08
4.04316e-08
3.6101e-08
3.03241e-08
2.40402e-08
1.81158e-08
1.30605e-08
9.01385e-09
5.88759e-09
3.5066e-09
1.69517e-09
3.07707e-10
0
0
0
0
0
0
0
0
0
0
0
0
0
0
1.15762e-09
1.74326e-09
1.27149e-09
9.4373e-10
1.14415e-09
1.9242e-09
3.178e-09
4.74627e-09
6.48108e-09
8.28448e-09
1.01252e-08
1.20276e-08
1.40348e-08
1.61669e-08
1.8403e-08
2.06978e-08
2.30157e-08
2.53483e-08
2.76956e-08
3.00132e-08
3.21564e-08
3.38546e-08
3.47441e-08
3.44668e-08
3.28065e-08
2.98e-08
2.5758e-08
2.11762e-08
1.65791e-08
1.23757e-08
8.7904e-09
5.8777e-09
3.58304e-09
1.8038e-09
4.33077e-10
0
0
0
0
0
0
0
0
0
0
0
0
0
1.03859e-10
0
1.03914e-09
1.61207e-09
1.18651e-09
8.8827e-10
1.06132e-09
1.74726e-09
2.85564e-09
4.25528e-09
5.82386e-09
7.47563e-09
9.17587e-09
1.09354e-08
1.27814e-08
1.47206e-08
1.67219e-08
1.87299e-08
2.06931e-08
2.25771e-08
2.43448e-08
2.59146e-08
2.71269e-08
2.77542e-08
2.75645e-08
2.64145e-08
2.43182e-08
2.14529e-08
1.81061e-08
1.46e-08
1.1223e-08
8.18365e-09
5.59239e-09
3.47203e-09
1.78638e-09
4.70403e-10
0
0
0
0
0
0
0
0
0
0
0
0
0
0
9.11072e-10
0
9.29665e-10
1.48499e-09
1.09292e-09
8.10718e-10
9.46606e-10
1.5326e-09
2.49004e-09
3.71019e-09
5.09176e-09
6.55991e-09
8.07848e-09
9.64742e-09
1.12791e-08
1.29668e-08
1.46698e-08
1.63255e-08
1.7874e-08
1.9268e-08
2.0457e-08
2.13584e-08
2.18442e-08
2.17672e-08
2.10189e-08
1.95844e-08
1.7558e-08
1.51142e-08
1.24613e-08
9.80022e-09
7.29851e-09
5.07314e-09
3.18431e-09
1.64081e-09
4.16036e-10
0
0
0
0
0
0
0
0
0
0
0
0
0
0
0
1.78465e-09
0
8.28834e-10
1.36322e-09
9.94658e-10
7.18137e-10
8.10166e-10
1.29379e-09
2.09935e-09
3.136e-09
4.31961e-09
5.58523e-09
6.89692e-09
8.24653e-09
9.63416e-09
1.10422e-08
1.24235e-08
1.37145e-08
1.48553e-08
1.57993e-08
1.65016e-08
1.68994e-08
1.69097e-08
1.64559e-08
1.55072e-08
1.41008e-08
1.23363e-08
1.03487e-08
8.28044e-09
6.26173e-09
4.39812e-09
2.76198e-09
1.38861e-09
2.79474e-10
0
0
0
0
0
0
0
0
0
0
0
0
0
0
0
1.89562e-10
2.72069e-09
0
7.36225e-10
1.2477e-09
8.94985e-10
6.1662e-10
6.6105e-10
1.04318e-09
1.70032e-09
2.556e-09
3.54024e-09
4.59713e-09
5.69255e-09
6.81283e-09
7.94888e-09
9.07647e-09
1.01483e-08
1.11028e-08
1.18883e-08
1.24662e-08
1.2805e-08
1.2869e-08
1.26169e-08
1.20157e-08
1.1066e-08
9.81924e-09
8.35809e-09
6.78036e-09
5.18218e-09
3.6523e-09
2.2648e-09
1.06918e-09
8.67363e-11
0
0
0
0
0
0
0
0
0
0
0
0
0
0
0
1.81236e-10
1.10657e-09
3.71459e-09
0
6.51395e-10
1.13907e-09
7.96538e-10
5.1127e-10
5.06991e-10
7.91432e-10
1.30753e-09
1.99042e-09
2.78207e-09
3.63516e-09
4.51835e-09
5.41497e-09
6.31076e-09
7.17889e-09
7.97494e-09
8.64476e-09
9.1467e-09
9.45352e-09
9.54887e-09
9.41881e-09
9.04924e-09
8.43335e-09
7.5799e-09
6.53425e-09
5.35958e-09
4.12512e-09
2.9004e-09
1.75033e-09
7.29236e-10
0
0
0
0
0
0
0
0
0
0
0
0
0
0
0
2.06991e-10
6.28038e-10
1.1192e-09
2.08859e-09
4.76131e-09
0
5.73877e-10
1.03777e-09
7.01391e-10
4.062e-10
3.54312e-10
5.47298e-10
9.32744e-10
1.45554e-09
2.06798e-09
2.73063e-09
3.41568e-09
4.10603e-09
4.7857e-09
5.42828e-09
5.99411e-09
6.43824e-09
6.72923e-09
6.85106e-09
6.79984e-09
6.57605e-09
6.18033e-09
5.61659e-09
4.89624e-09
4.05132e-09
3.12874e-09
2.17867e-09
1.25355e-09
4.04038e-10
0
0
0
0
0
0
0
0
0
0
0
0
0
0
2.70356e-10
6.9675e-10
1.1482e-09
1.60523e-09
2.12595e-09
3.13081e-09
5.85551e-09
0
5.03196e-10
9.44017e-10
6.11081e-10
3.0461e-10
2.07957e-10
3.17507e-10
5.84919e-10
9.63485e-10
1.41456e-09
1.90589e-09
2.41374e-09
2.92254e-09
3.41706e-09
3.87332e-09
4.2571e-09
4.53236e-09
4.67643e-09
4.68222e-09
4.55459e-09
4.3023e-09
3.93269e-09
3.45259e-09
2.87181e-09
2.21156e-09
1.50577e-09
7.92091e-10
1.12035e-10
0
0
0
0
0
0
0
0
0
0
0
0
0
3.30535e-10
7.57508e-10
1.21196e-09
1.68167e-09
2.16876e-09
2.65446e-09
3.19715e-09
4.22852e-09
6.99192e-09
0
4.38872e-10
8.57878e-10
5.26695e-10
2.08885e-10
7.15511e-11
1.06896e-10
2.70331e-10
5.22481e-10
8.32608e-10
1.17497e-09
1.53028e-09
1.88571e-09
2.22837e-09
2.53756e-09
2.78444e-09
2.94033e-09
2.98924e-09
2.93052e-09
2.77438e-09
2.53364e-09
2.21774e-09
1.83287e-09
1.38588e-09
8.90423e-10
3.70837e-10
0
0
0
0
0
0
0
0
0
0
0
0
0
3.88207e-10
8.12442e-10
1.26596e-09
1.74297e-09
2.24233e-09
2.75119e-09
3.26674e-09
3.77323e-09
4.32957e-09
5.37773e-09
8.16597e-09
0
3.80427e-10
7.7928e-10
4.48968e-10
1.20658e-10
0
0
0
1.37241e-10
3.2788e-10
5.44939e-10
7.73681e-10
1.00465e-09
1.22789e-09
1.42615e-09
1.57523e-09
1.65222e-09
1.64587e-09
1.55974e-09
1.40678e-09
1.20114e-09
9.52146e-10
6.64176e-10
3.4106e-10
0
0
0
0
0
0
0
0
0
0
0
0
4.84064e-11
4.44662e-10
8.6837e-10
1.31903e-09
1.79452e-09
2.29477e-09
2.81463e-09
3.3526e-09
3.89724e-09
4.4407e-09
4.96031e-09
5.52147e-09
6.57597e-09
9.3745e-09
0
3.27397e-10
7.08074e-10
3.78315e-10
4.10058e-11
0
0
0
0
0
1.74364e-11
1.4531e-10
2.79555e-10
4.13188e-10
5.3213e-10
6.15921e-10
6.45882e-10
6.14278e-10
5.26851e-10
3.97579e-10
2.40507e-10
6.38851e-11
0
0
0
0
0
0
0
0
0
0
0
0
9.20319e-11
4.94272e-10
9.24962e-10
1.38026e-09
1.85581e-09
2.35318e-09
2.87133e-09
3.41062e-09
3.96647e-09
4.53695e-09
5.11077e-09
5.68113e-09
6.21159e-09
6.76918e-09
7.81964e-09
1.06136e-08
0
2.79333e-10
6.44033e-10
3.14916e-10
0
0
0
0
0
0
0
0
0
0
0
0
0
0
0
0
0
0
0
0
0
0
0
0
0
0
0
0
1.28126e-10
5.33254e-10
9.71816e-10
1.43657e-09
1.92341e-09
2.42959e-09
2.94888e-09
3.48466e-09
4.03797e-09
4.60953e-09
5.19522e-09
5.79248e-09
6.38974e-09
6.97931e-09
7.52004e-09
8.06501e-09
9.10005e-09
1.18728e-08
0
2.35814e-10
5.86894e-10
2.58802e-10
0
0
0
0
0
0
0
0
0
0
0
0
0
0
0
0
0
0
0
0
0
0
0
0
0
0
1.75364e-10
5.68681e-10
1.00929e-09
1.48385e-09
1.98266e-09
2.50048e-09
3.03488e-09
3.58398e-09
4.14016e-09
4.70704e-09
5.28907e-09
5.88722e-09
6.49756e-09
7.1167e-09
7.73249e-09
8.33541e-09
8.88167e-09
9.40479e-09
1.04112e-08
1.31436e-08
0
1.96445e-10
5.36387e-10
2.0992e-10
0
0
0
0
0
0
0
0
0
0
0
0
0
0
0
0
0
0
0
0
0
0
0
0
2.46779e-10
6.13991e-10
1.04171e-09
1.51812e-09
2.02939e-09
2.56385e-09
3.11401e-09
3.67674e-09
4.25118e-09
4.83615e-09
5.42264e-09
6.01445e-09
6.61971e-09
7.23949e-09
7.86982e-09
8.5063e-09
9.136e-09
9.74708e-09
1.02932e-08
1.07836e-08
1.1746e-08
1.44161e-08
0
1.60868e-10
4.9226e-10
1.68169e-10
0
0
0
0
0
0
0
0
0
0
0
0
0
0
0
0
0
0
0
0
0
2.53089e-11
3.16511e-10
6.63616e-10
1.07132e-09
1.53731e-09
2.05239e-09
2.60334e-09
3.17687e-09
3.76313e-09
4.35695e-09
4.9573e-09
5.56496e-09
6.17921e-09
6.78949e-09
7.40113e-09
8.02532e-09
8.6629e-09
9.30948e-09
9.95934e-09
1.05984e-08
1.12121e-08
1.17489e-08
1.21922e-08
1.30915e-08
1.56732e-08
0
1.28768e-10
4.54309e-10
1.33482e-10
0
0
0
0
0
0
0
0
0
0
0
0
0
0
0
0
0
0
0
4.66825e-11
3.46218e-10
6.89119e-10
1.08334e-09
1.53448e-09
2.04243e-09
2.60015e-09
3.19517e-09
3.81311e-09
4.4415e-09
5.07247e-09
5.70322e-09
6.33489e-09
6.96982e-09
7.60734e-09
8.23515e-09
8.86301e-09
9.50322e-09
1.01559e-08
1.08156e-08
1.14749e-08
1.21183e-08
1.2727e-08
1.3237e-08
1.36101e-08
1.44227e-08
1.68852e-08
0
9.98775e-11
4.22402e-10
1.05894e-10
0
0
0
0
0
0
0
0
0
0
0
0
0
0
0
0
0
2.92508e-11
3.31879e-10
6.76557e-10
1.06567e-09
1.50282e-09
1.99536e-09
2.54537e-09
3.14791e-09
3.79129e-09
4.45988e-09
5.13829e-09
5.815e-09
6.48427e-09
7.14582e-09
7.80306e-09
8.45967e-09
9.11457e-09
9.75463e-09
1.03971e-08
1.1052e-08
1.1718e-08
1.23882e-08
1.30528e-08
1.36939e-08
1.42859e-08
1.47349e-08
1.50025e-08
1.56978e-08
1.80039e-08
0
7.39917e-11
3.96514e-10
8.56e-11
0
0
0
0
0
0
0
0
0
0
0
0
0
0
0
2.58493e-11
3.13917e-10
6.46636e-10
1.02515e-09
1.45134e-09
1.92754e-09
2.45553e-09
3.04244e-09
3.68676e-09
4.37867e-09
5.10189e-09
5.83791e-09
6.57062e-09
7.28966e-09
7.99157e-09
8.67862e-09
9.35641e-09
1.00297e-08
1.06964e-08
1.13459e-08
1.20025e-08
1.26709e-08
1.33481e-08
1.40251e-08
1.46891e-08
1.53188e-08
1.58734e-08
1.62008e-08
1.63199e-08
1.68595e-08
1.89668e-08
0
5.09793e-11
3.76769e-10
7.30367e-11
0
0
0
0
0
0
0
0
0
0
0
0
0
5.3405e-11
3.29581e-10
6.42703e-10
9.99458e-10
1.40339e-09
1.85676e-09
2.3628e-09
2.92376e-09
3.53917e-09
4.21643e-09
4.95055e-09
5.72687e-09
6.52458e-09
7.3224e-09
8.10376e-09
8.85959e-09
9.58884e-09
1.02964e-08
1.099e-08
1.16752e-08
1.23483e-08
1.30086e-08
1.36792e-08
1.43601e-08
1.50458e-08
1.57241e-08
1.6379e-08
1.69809e-08
1.74509e-08
1.75576e-08
1.74947e-08
1.78489e-08
1.97296e-08
0
3.08011e-11
3.63495e-10
6.89878e-11
0
0
0
0
0
0
0
0
0
0
0
7.5239e-11
3.598e-10
6.70697e-10
1.01282e-09
1.39368e-09
1.81941e-09
2.29398e-09
2.82105e-09
3.40536e-09
4.04888e-09
4.74831e-09
5.51184e-09
6.33106e-09
7.18653e-09
8.05313e-09
8.90709e-09
9.73153e-09
1.0519e-08
1.12708e-08
1.19944e-08
1.26995e-08
1.33928e-08
1.40704e-08
1.47431e-08
1.54262e-08
1.61163e-08
1.68046e-08
1.74763e-08
1.811e-08
1.86542e-08
1.89298e-08
1.87619e-08
1.85063e-08
1.86739e-08
2.03474e-08
0
1.35383e-11
3.57297e-10
7.47201e-11
0
0
0
0
0
0
0
0
0
8.73436e-11
3.70794e-10
6.90812e-10
1.03995e-09
1.41725e-09
1.82729e-09
2.27688e-09
2.77169e-09
3.31621e-09
3.91562e-09
4.57622e-09
5.29962e-09
6.07914e-09
6.92439e-09
7.82371e-09
8.75293e-09
9.68281e-09
1.05873e-08
1.14494e-08
1.22633e-08
1.30331e-08
1.37683e-08
1.4481e-08
1.51791e-08
1.58622e-08
1.65465e-08
1.72386e-08
1.79323e-08
1.8616e-08
1.92716e-08
1.98648e-08
2.0291e-08
2.02316e-08
1.98329e-08
1.93987e-08
1.94138e-08
2.09343e-08
0
0
3.59174e-10
9.21837e-11
0
0
0
0
0
0
0
1.31786e-10
3.8621e-10
6.92776e-10
1.04471e-09
1.43244e-09
1.8495e-09
2.2955e-09
2.77475e-09
3.29333e-09
3.85662e-09
4.46986e-09
5.13991e-09
5.87466e-09
6.67513e-09
7.53032e-09
8.45197e-09
9.42548e-09
1.04222e-08
1.14091e-08
1.2358e-08
1.32523e-08
1.40878e-08
1.48711e-08
1.56142e-08
1.63312e-08
1.70325e-08
1.7722e-08
1.84138e-08
1.91087e-08
1.97988e-08
2.047e-08
2.10975e-08
2.1617e-08
2.17959e-08
2.1386e-08
2.08041e-08
2.02261e-08
2.01313e-08
2.15583e-08
0
0
3.70688e-10
1.24308e-10
0
0
0
0
1.17864e-11
1.92858e-10
4.24363e-10
7.0646e-10
1.04003e-09
1.42293e-09
1.84822e-09
2.30714e-09
2.79446e-09
3.31056e-09
3.85957e-09
4.4468e-09
5.07734e-09
5.75735e-09
6.49557e-09
7.30155e-09
8.17552e-09
9.10123e-09
1.00931e-08
1.11342e-08
1.21914e-08
1.32283e-08
1.42152e-08
1.51358e-08
1.59877e-08
1.67803e-08
1.75274e-08
1.82458e-08
1.89488e-08
1.96444e-08
2.03378e-08
2.10291e-08
2.17089e-08
2.23593e-08
2.29373e-08
2.33157e-08
2.30843e-08
2.24344e-08
2.16922e-08
2.10081e-08
2.08488e-08
2.22347e-08
0
0
3.94228e-10
1.7544e-10
1.09997e-12
0
5.51656e-11
2.14519e-10
4.35005e-10
7.09242e-10
1.03316e-09
1.40546e-09
1.8255e-09
2.29016e-09
2.79261e-09
3.3251e-09
3.88393e-09
4.47037e-09
5.08851e-09
5.74296e-09
6.43872e-09
7.18297e-09
7.98633e-09
8.85996e-09
9.80306e-09
1.07931e-08
1.18478e-08
1.29482e-08
1.40575e-08
1.51361e-08
1.61534e-08
1.70939e-08
1.79571e-08
1.87541e-08
1.95018e-08
2.02178e-08
2.09176e-08
2.16112e-08
2.23021e-08
2.29868e-08
2.3653e-08
2.42715e-08
2.47623e-08
2.48451e-08
2.4189e-08
2.33671e-08
2.25034e-08
2.17565e-08
2.15816e-08
2.2977e-08
0
0
4.33455e-10
2.52079e-10
1.38876e-10
1.94324e-10
3.74932e-10
6.40094e-10
9.68466e-10
1.34919e-09
1.77642e-09
2.24741e-09
2.76002e-09
3.31044e-09
3.89228e-09
4.49924e-09
5.12948e-09
5.78533e-09
6.47077e-09
7.18983e-09
7.94761e-09
8.75245e-09
9.61697e-09
1.05539e-08
1.1562e-08
1.26105e-08
1.37182e-08
1.48667e-08
1.6016e-08
1.71249e-08
1.81626e-08
1.91148e-08
1.9983e-08
2.07797e-08
2.15234e-08
2.22334e-08
2.29259e-08
2.36114e-08
2.42932e-08
2.49661e-08
2.56114e-08
2.6178e-08
2.65129e-08
2.61137e-08
2.51838e-08
2.42037e-08
2.32588e-08
2.24959e-08
2.23548e-08
2.3806e-08
0
0
4.93993e-10
3.63997e-10
3.31231e-10
4.92764e-10
7.94033e-10
1.18504e-09
1.6379e-09
2.13815e-09
2.67858e-09
3.25532e-09
3.86499e-09
4.50341e-09
5.16501e-09
5.8454e-09
6.54505e-09
7.26765e-09
8.01718e-09
8.79703e-09
9.61231e-09
1.04729e-08
1.13934e-08
1.23884e-08
1.34563e-08
1.45561e-08
1.57031e-08
1.68855e-08
1.80609e-08
1.91872e-08
2.02342e-08
2.11892e-08
2.20554e-08
2.28468e-08
2.35829e-08
2.42835e-08
2.49654e-08
2.56391e-08
2.63069e-08
2.69597e-08
2.75657e-08
2.80326e-08
2.80407e-08
2.71188e-08
2.60247e-08
2.49445e-08
2.39762e-08
2.32534e-08
2.31975e-08
2.4746e-08
0
1.1021e-11
5.84496e-10
5.25894e-10
5.99566e-10
8.9533e-10
1.34345e-09
1.8822e-09
2.47635e-09
3.10813e-09
3.7698e-09
4.4569e-09
5.16546e-09
5.89157e-09
6.63111e-09
7.38188e-09
8.14699e-09
8.93168e-09
9.74007e-09
1.05751e-08
1.14418e-08
1.23516e-08
1.33215e-08
1.43676e-08
1.54881e-08
1.66311e-08
1.78015e-08
1.90011e-08
2.01863e-08
2.13152e-08
2.2359e-08
2.33068e-08
2.41634e-08
2.49437e-08
2.56675e-08
2.63547e-08
2.70214e-08
2.76776e-08
2.83227e-08
2.89394e-08
2.94696e-08
2.9731e-08
2.91249e-08
2.79211e-08
2.67127e-08