/*--------------------------------*- C++ -*----------------------------------*\
  =========                 |
  \\      /  F ield         | OpenFOAM: The Open Source CFD Toolbox
   \\    /   O peration     | Website:  https://openfoam.org
    \\  /    A nd           | Version:  7
     \\/     M anipulation  |
\*---------------------------------------------------------------------------*/
FoamFile
{
    version     2.0;
    format      ascii;
    class       surfaceScalarField;
    location    "0.14";
    object      phi;
}
// * * * * * * * * * * * * * * * * * * * * * * * * * * * * * * * * * * * * * //

dimensions      [0 3 -1 0 0 0 0];

internalField   nonuniform List<scalar> 
139350
(
6.459e-08
9.20415e-08
3.19444e-08
3.26457e-08
2.3048e-08
8.89635e-09
1.95479e-08
3.50007e-09
1.759e-08
1.95794e-09
1.61558e-08
1.4342e-09
1.50158e-08
1.14004e-09
1.40944e-08
9.21366e-10
1.33341e-08
7.60249e-10
1.26919e-08
6.42262e-10
1.21388e-08
5.53092e-10
1.16555e-08
4.83263e-10
1.12284e-08
4.27166e-10
1.08471e-08
3.81285e-10
1.05039e-08
3.43225e-10
1.01926e-08
3.11279e-10
9.90838e-09
2.84197e-10
9.64733e-09
2.61044e-10
9.40622e-09
2.41115e-10
9.18235e-09
2.23865e-10
8.97348e-09
2.08872e-10
8.77768e-09
1.95804e-10
8.59328e-09
1.84399e-10
8.41883e-09
1.74448e-10
8.25305e-09
1.65783e-10
8.09477e-09
1.58274e-10
7.94296e-09
1.51815e-10
7.79663e-09
1.46327e-10
7.65489e-09
1.41744e-10
7.51686e-09
1.38032e-10
7.38171e-09
1.35148e-10
7.2486e-09
1.33106e-10
7.11674e-09
1.31863e-10
6.98523e-09
1.31509e-10
6.85327e-09
1.31962e-10
6.71982e-09
1.33446e-10
6.58405e-09
1.35767e-10
6.44467e-09
1.39381e-10
6.30078e-09
1.43895e-10
6.1507e-09
1.5008e-10
5.99331e-09
1.57384e-10
5.82667e-09
1.66642e-10
5.6487e-09
1.77975e-10
5.45824e-09
1.90455e-10
5.2494e-09
2.08846e-10
5.02669e-09
2.22711e-10
4.76902e-09
2.57665e-10
4.51302e-09
2.55998e-10
4.10078e-09
4.12244e-10
-1.64048e-09
5.74126e-09
1.26022e-07
1.27463e-07
9.12508e-08
6.74171e-08
7.19171e-08
2.82301e-08
6.11755e-08
1.42416e-08
5.47134e-08
8.4201e-09
5.02022e-08
5.9454e-09
4.66992e-08
4.64298e-09
4.38632e-08
3.75735e-09
4.15151e-08
3.10838e-09
3.95302e-08
2.62718e-09
3.78214e-08
2.26182e-09
3.63289e-08
1.97579e-09
3.501e-08
1.74612e-09
3.3833e-08
1.55823e-09
3.2774e-08
1.40227e-09
3.1814e-08
1.27125e-09
3.09381e-08
1.16006e-09
3.01343e-08
1.06488e-09
2.93926e-08
9.82825e-10
2.87048e-08
9.11672e-10
2.8064e-08
8.49693e-10
2.74642e-08
7.95527e-10
2.69005e-08
7.48095e-10
2.63685e-08
7.06537e-10
2.58641e-08
6.70166e-10
2.53839e-08
6.38431e-10
2.49248e-08
6.10892e-10
2.4484e-08
5.87206e-10
2.40586e-08
5.67104e-10
2.36462e-08
5.504e-10
2.32444e-08
5.36942e-10
2.28508e-08
5.26699e-10
2.24631e-08
5.19575e-10
2.20789e-08
5.15757e-10
2.16958e-08
5.15094e-10
2.1311e-08
5.18167e-10
2.09223e-08
5.24532e-10
2.05261e-08
5.35553e-10
2.012e-08
5.50016e-10
1.96993e-08
5.70791e-10
1.92615e-08
5.95116e-10
1.87998e-08
6.28368e-10
1.83122e-08
6.65623e-10
1.77878e-08
7.14865e-10
1.72251e-08
7.71464e-10
1.6609e-08
8.38892e-10
1.59307e-08
9.35944e-10
1.52016e-08
9.85102e-10
1.42446e-08
1.36919e-09
-1.16546e-09
1.37696e-08
1.58804e-07
1.35062e-07
1.36482e-07
8.97395e-08
1.17465e-07
4.72474e-08
1.03267e-07
2.84397e-08
9.32368e-08
1.845e-08
8.59092e-08
1.32729e-08
8.01752e-08
1.0377e-08
7.54936e-08
8.43897e-09
7.15824e-08
7.01956e-09
6.8255e-08
5.95459e-09
6.53784e-08
5.13846e-09
6.28579e-08
4.49629e-09
6.06251e-08
3.97895e-09
5.86288e-08
3.55452e-09
5.68297e-08
3.2013e-09
5.51972e-08
2.90383e-09
5.37064e-08
2.65081e-09
5.23375e-08
2.43375e-09
5.10741e-08
2.24622e-09
4.99026e-08
2.08325e-09
4.88113e-08
1.94094e-09
4.77906e-08
1.81626e-09
4.68319e-08
1.70675e-09
4.5928e-08
1.61049e-09
4.50723e-08
1.52589e-09
4.4259e-08
1.45171e-09
4.34829e-08
1.38694e-09
4.27394e-08
1.33077e-09
4.20239e-08
1.28259e-09
4.13324e-08
1.24192e-09
4.06609e-08
1.20842e-09
4.00056e-08
1.18194e-09
3.93629e-08
1.16231e-09
3.87289e-08
1.14976e-09
3.80999e-08
1.14413e-09
3.74717e-08
1.14637e-09
3.68404e-08
1.15582e-09
3.62009e-08
1.175e-09
3.55493e-08
1.20162e-09
3.48784e-08
1.24168e-09
3.41848e-08
1.28875e-09
3.34569e-08
1.35625e-09
3.26937e-08
1.42882e-09
3.18746e-08
1.53403e-09
3.10048e-08
1.64122e-09
3.00465e-08
1.79717e-09
2.90119e-08
1.97055e-09
2.78656e-08
2.13146e-09
2.65218e-08
2.71293e-09
5.27683e-10
2.48287e-08
1.75662e-07
1.30916e-07
1.65585e-07
9.98166e-08
1.52698e-07
6.01339e-08
1.40078e-07
4.10606e-08
1.29361e-07
2.9166e-08
1.20688e-07
2.19467e-08
1.13541e-07
1.75233e-08
1.07523e-07
1.44574e-08
1.02382e-07
1.21609e-08
9.79354e-08
1.04008e-08
9.4045e-08
9.0289e-09
9.06049e-08
7.93633e-09
8.75356e-08
7.04831e-09
8.47755e-08
6.31458e-09
8.22765e-08
5.7003e-09
8e-08
5.18033e-09
7.79148e-08
4.73606e-09
7.59951e-08
4.35341e-09
7.42197e-08
4.0216e-09
7.25707e-08
3.73223e-09
7.1033e-08
3.47873e-09
6.95934e-08
3.25586e-09
6.82406e-08
3.05946e-09
6.6965e-08
2.88616e-09
6.57576e-08
2.73326e-09
6.46108e-08
2.59855e-09
6.35174e-08
2.48028e-09
6.24712e-08
2.37701e-09
6.14661e-08
2.28765e-09
6.04967e-08
2.21132e-09
5.95577e-08
2.14744e-09
5.8644e-08
2.09561e-09
5.77507e-08
2.0556e-09
5.68729e-08
2.02763e-09
5.60055e-08
2.01153e-09
5.51432e-08
2.00862e-09
5.4281e-08
2.01809e-09
5.34123e-08
2.0437e-09
5.25318e-08
2.08204e-09
5.16308e-08
2.14276e-09
5.07044e-08
2.21513e-09
4.97382e-08
2.32242e-09
4.87307e-08
2.43629e-09
4.76556e-08
2.60921e-09
4.65196e-08
2.77715e-09
4.52739e-08
3.04292e-09
4.39355e-08
3.30895e-09
4.24444e-08
3.62251e-09
4.07744e-08
4.38292e-09
2.82752e-09
3.84746e-08
1.84559e-07
1.23142e-07
1.82314e-07
1.02062e-07
1.76083e-07
6.63648e-08
1.6772e-07
4.94235e-08
1.5907e-07
3.78156e-08
1.51129e-07
2.98882e-08
1.44019e-07
2.46334e-08
1.37677e-07
2.07991e-08
1.3203e-07
1.78077e-08
1.26995e-07
1.54362e-08
1.22486e-07
1.35383e-08
1.18426e-07
1.19959e-08
1.14752e-07
1.07223e-08
1.1141e-07
9.65666e-09
1.08355e-07
8.75504e-09
1.0555e-07
7.98506e-09
1.02964e-07
7.32214e-09
1.0057e-07
6.74737e-09
9.8346e-08
6.24601e-09
9.62718e-08
5.80645e-09
9.43311e-08
5.41947e-09
9.25092e-08
5.07768e-09
9.07936e-08
4.77512e-09
8.91728e-08
4.50697e-09
8.76367e-08
4.26928e-09
8.61764e-08
4.05885e-09
8.47836e-08
3.8731e-09
8.34508e-08
3.70989e-09
8.21708e-08
3.56759e-09
8.09373e-08
3.44487e-09
7.97439e-08
3.34084e-09
7.85846e-08
3.25486e-09
7.74536e-08
3.18659e-09
7.6345e-08
3.13621e-09
7.5253e-08
3.10358e-09
7.41712e-08
3.09037e-09
7.30937e-08
3.09564e-09
7.20129e-08
3.12445e-09
7.09226e-08
3.17235e-09
6.98127e-08
3.25272e-09
6.86771e-08
3.35065e-09
6.75002e-08
3.49941e-09
6.62783e-08
3.6581e-09
6.49837e-08
3.90381e-09
6.36197e-08
4.14123e-09
6.21371e-08
4.52542e-09
6.05433e-08
4.90282e-09
5.87797e-08
5.38608e-09
5.68172e-08
6.34547e-09
5.45676e-09
5.41879e-08
1.90387e-07
1.14972e-07
1.91846e-07
1.00603e-07
1.90228e-07
6.79824e-08
1.86122e-07
5.35302e-08
1.8066e-07
4.32776e-08
1.74875e-07
3.56728e-08
1.69142e-07
3.03666e-08
1.63616e-07
2.63254e-08
1.58393e-07
2.30305e-08
1.53516e-07
2.03131e-08
1.48988e-07
1.80658e-08
1.44794e-07
1.61902e-08
1.40909e-07
1.46072e-08
1.37308e-07
1.32582e-08
1.33964e-07
1.20991e-08
1.30852e-07
1.10963e-08
1.27951e-07
1.02231e-08
1.2524e-07
9.45864e-09
1.227e-07
8.78602e-09
1.20315e-07
8.19176e-09
1.18069e-07
7.66496e-09
1.1595e-07
7.1967e-09
1.13946e-07
6.77974e-09
1.12045e-07
6.40809e-09
1.10237e-07
6.07686e-09
1.08514e-07
5.782e-09
1.06867e-07
5.52022e-09
1.05288e-07
5.2888e-09
1.0377e-07
5.08563e-09
1.02306e-07
4.90898e-09
1.00889e-07
4.75768e-09
9.95128e-08
4.63088e-09
9.81712e-08
4.52814e-09
9.68578e-08
4.44963e-09
9.55661e-08
4.39528e-09
9.42894e-08
4.36708e-09
9.30209e-08
4.36411e-09
9.17528e-08
4.3926e-09
9.04778e-08
4.44738e-09
8.91853e-08
4.54513e-09
8.78682e-08
4.66777e-09
8.65105e-08
4.85709e-09
8.5106e-08
5.06259e-09
8.36287e-08
5.38116e-09
8.20743e-08
5.69561e-09
8.04024e-08
6.19734e-09
7.86005e-08
6.70471e-09
7.66278e-08
7.35877e-09
7.44276e-08
8.5457e-09
8.31363e-09
7.15707e-08
1.95539e-07
1.07247e-07
1.98242e-07
9.79e-08
1.98955e-07
6.72688e-08
1.97762e-07
5.47236e-08
1.95111e-07
4.59286e-08
1.91744e-07
3.90403e-08
1.87979e-07
3.41309e-08
1.8399e-07
3.03149e-08
1.79924e-07
2.70958e-08
1.75894e-07
2.43437e-08
1.71966e-07
2.19933e-08
1.68181e-07
1.99755e-08
1.64558e-07
1.82297e-08
1.61107e-07
1.67093e-08
1.57828e-07
1.53781e-08
1.54718e-07
1.42071e-08
1.51768e-07
1.31726e-08
1.48971e-07
1.22553e-08
1.46318e-07
1.1439e-08
1.438e-07
1.07106e-08
1.41406e-07
1.00589e-08
1.39127e-07
9.47489e-09
1.36956e-07
8.9509e-09
1.34884e-07
8.48057e-09
1.32902e-07
8.05861e-09
1.31003e-07
7.68059e-09
1.29181e-07
7.34288e-09
1.27427e-07
7.04245e-09
1.25736e-07
6.77693e-09
1.241e-07
6.54438e-09
1.22515e-07
6.3435e-09
1.20972e-07
6.17332e-09
1.19467e-07
6.03343e-09
1.17992e-07
5.92405e-09
1.16542e-07
5.84527e-09
1.1511e-07
5.79941e-09
1.13688e-07
5.78574e-09
1.1227e-07
5.81146e-09
1.10846e-07
5.87118e-09
1.09407e-07
5.98418e-09
1.07944e-07
6.13064e-09
1.06442e-07
6.3585e-09
1.04893e-07
6.61207e-09
1.03273e-07
7.00068e-09
1.01571e-07
7.39813e-09
9.97567e-08
8.01159e-09
9.77984e-08
8.66304e-09
9.56719e-08
9.48529e-09
9.33052e-08
1.09124e-08
1.13221e-08
9.02968e-08
2.00846e-07
9.99854e-08
2.0377e-07
9.49763e-08
2.05315e-07
6.57245e-08
2.0562e-07
5.44185e-08
2.04778e-07
4.67705e-08
2.03276e-07
4.05424e-08
2.01301e-07
3.61056e-08
1.98938e-07
3.26783e-08
1.96291e-07
2.97424e-08
1.93464e-07
2.71709e-08
1.90537e-07
2.49203e-08
1.87571e-07
2.29418e-08
1.8461e-07
2.11907e-08
1.81686e-07
1.96328e-08
1.78823e-07
1.82418e-08
1.76033e-07
1.69962e-08
1.73328e-07
1.5878e-08
1.70711e-07
1.48718e-08
1.68186e-07
1.39647e-08
1.65751e-07
1.31455e-08
1.63405e-07
1.24048e-08
1.61146e-07
1.17343e-08
1.58969e-07
1.11274e-08
1.56872e-07
1.0578e-08
1.54849e-07
1.00814e-08
1.52896e-07
9.63328e-09
1.51009e-07
9.23022e-09
1.49182e-07
8.86926e-09
1.47411e-07
8.54818e-09
1.4569e-07
8.26509e-09
1.44015e-07
8.0188e-09
1.4238e-07
7.80843e-09
1.40779e-07
7.63379e-09
1.39208e-07
7.49524e-09
1.3766e-07
7.39318e-09
1.36129e-07
7.33032e-09
1.34609e-07
7.30629e-09
1.33091e-07
7.32915e-09
1.31568e-07
7.39376e-09
1.30031e-07
7.52123e-09
1.28471e-07
7.69155e-09
1.26873e-07
7.95623e-09
1.25226e-07
8.25898e-09
1.23513e-07
8.71403e-09
1.21712e-07
9.19847e-09
1.19807e-07
9.91677e-09
1.17751e-07
1.07194e-08
1.15527e-07
1.17088e-08
1.13068e-07
1.33715e-08
1.43918e-08
1.09998e-07
2.06445e-07
9.30722e-08
2.09334e-07
9.2088e-08
2.11024e-07
6.40339e-08
2.11908e-07
5.35343e-08
2.11964e-07
4.67146e-08
2.11561e-07
4.09459e-08
2.10809e-07
3.68572e-08
2.09712e-07
3.37759e-08
2.08305e-07
3.11492e-08
2.06647e-07
2.88289e-08
2.04793e-07
2.6774e-08
2.02793e-07
2.49421e-08
2.00688e-07
2.32951e-08
1.98516e-07
2.18055e-08
1.96304e-07
2.04532e-08
1.94077e-07
1.92229e-08
1.91854e-07
1.81014e-08
1.89648e-07
1.70779e-08
1.8747e-07
1.61428e-08
1.85328e-07
1.52878e-08
1.83226e-07
1.45058e-08
1.8117e-07
1.37906e-08
1.79161e-07
1.31368e-08
1.77199e-07
1.25397e-08
1.75285e-07
1.19955e-08
1.73418e-07
1.15006e-08
1.71596e-07
1.10523e-08
1.69817e-07
1.06481e-08
1.68079e-07
1.02864e-08
1.66378e-07
9.96553e-09
1.64712e-07
9.6848e-09
1.63077e-07
9.44362e-09
1.61468e-07
9.24218e-09
1.59883e-07
9.08122e-09
1.58314e-07
8.96156e-09
1.56758e-07
8.88639e-09
1.55208e-07
8.8559e-09
1.53659e-07
8.87889e-09
1.52102e-07
8.95092e-09
1.50528e-07
9.09428e-09
1.4893e-07
9.29009e-09
1.47295e-07
9.59119e-09
1.45609e-07
9.94453e-09
1.4386e-07
1.0463e-08
1.42023e-07
1.10364e-08
1.40086e-07
1.18536e-08
1.37997e-07
1.28076e-08
1.35742e-07
1.39642e-08
1.33266e-07
1.58473e-08
1.74265e-08
1.30232e-07
2.12287e-07
8.64473e-08
2.15146e-07
8.92291e-08
2.16778e-07
6.2402e-08
2.1782e-07
5.24919e-08
2.18223e-07
4.63117e-08
2.18324e-07
4.08452e-08
2.18229e-07
3.69521e-08
2.17907e-07
3.40983e-08
2.17349e-07
3.17071e-08
2.16573e-07
2.96044e-08
2.15604e-07
2.77433e-08
2.14465e-07
2.60806e-08
2.13183e-07
2.45772e-08
2.11783e-07
2.3206e-08
2.10287e-07
2.19487e-08
2.08718e-07
2.07921e-08
2.07094e-07
1.97259e-08
2.0543e-07
1.87416e-08
2.03741e-07
1.78322e-08
2.02037e-07
1.69916e-08
2.00328e-07
1.62148e-08
1.98621e-07
1.54973e-08
1.96923e-07
1.48353e-08
1.95237e-07
1.42256e-08
1.93567e-07
1.36653e-08
1.91916e-07
1.3152e-08
1.90284e-07
1.26839e-08
1.88673e-07
1.22593e-08
1.87082e-07
1.18772e-08
1.85511e-07
1.15367e-08
1.83958e-07
1.12376e-08
1.82422e-07
1.09798e-08
1.809e-07
1.07641e-08
1.79389e-07
1.05918e-08
1.77887e-07
1.04642e-08
1.76388e-07
1.03851e-08
1.74888e-07
1.03553e-08
1.73383e-07
1.03845e-08
1.71865e-07
1.0469e-08
1.70327e-07
1.0632e-08
1.6876e-07
1.08566e-08
1.67156e-07
1.11954e-08
1.655e-07
1.16012e-08
1.63782e-07
1.21811e-08
1.61974e-07
1.28439e-08
1.60073e-07
1.37549e-08
1.58025e-07
1.48555e-08
1.55811e-07
1.61779e-08
1.53399e-07
1.82598e-08
2.03311e-08
1.50494e-07
2.18328e-07
8.00997e-08
2.212e-07
8.63577e-08
2.2275e-07
6.08514e-08
2.23819e-07
5.1423e-08
2.24331e-07
4.57995e-08
2.2461e-07
4.05663e-08
2.24793e-07
3.67696e-08
2.24851e-07
3.40402e-08
2.24762e-07
3.1796e-08
2.24526e-07
2.98407e-08
2.24146e-07
2.8123e-08
2.23629e-07
2.65978e-08
2.22983e-07
2.52234e-08
2.22218e-07
2.39703e-08
2.21348e-07
2.28187e-08
2.20385e-07
2.17551e-08
2.19342e-07
2.07692e-08
2.1823e-07
1.98532e-08
2.17062e-07
1.90008e-08
2.15846e-07
1.82072e-08
2.14593e-07
1.74682e-08
2.1331e-07
1.67805e-08
2.12003e-07
1.61415e-08
2.1068e-07
1.55488e-08
2.09345e-07
1.50006e-08
2.08002e-07
1.44954e-08
2.06653e-07
1.40321e-08
2.05303e-07
1.36099e-08
2.03951e-07
1.32285e-08
2.02601e-07
1.28876e-08
2.0125e-07
1.25878e-08
1.99901e-07
1.23295e-08
1.98551e-07
1.21142e-08
1.97199e-07
1.19436e-08
1.95843e-07
1.18199e-08
1.94481e-07
1.17473e-08
1.93109e-07
1.17275e-08
1.91723e-07
1.17707e-08
1.90317e-07
1.18746e-08
1.88887e-07
1.20625e-08
1.87423e-07
1.23203e-08
1.85919e-07
1.26991e-08
1.84361e-07
1.31594e-08
1.82742e-07
1.37997e-08
1.81036e-07
1.45505e-08
1.79239e-07
1.55513e-08
1.77306e-07
1.67894e-08
1.7521e-07
1.82731e-08
1.72942e-07
2.05284e-08
2.30152e-08
1.70258e-07
2.24557e-07
7.4036e-08
2.27464e-07
8.3451e-08
2.28947e-07
5.93684e-08
2.3002e-07
5.03493e-08
2.30573e-07
4.52464e-08
2.30901e-07
4.0239e-08
2.31173e-07
3.64975e-08
2.3138e-07
3.38334e-08
2.31501e-07
3.16748e-08
2.31534e-07
2.98075e-08
2.31478e-07
2.81786e-08
2.31332e-07
2.67445e-08
2.31093e-07
2.5462e-08
2.30764e-07
2.42994e-08
2.30348e-07
2.32351e-08
2.29849e-07
2.22542e-08
2.29272e-07
2.13454e-08
2.28625e-07
2.05004e-08
2.27913e-07
1.97127e-08
2.27143e-07
1.89771e-08
2.26322e-07
1.829e-08
2.25454e-07
1.76482e-08
2.24546e-07
1.70494e-08
2.23603e-07
1.64918e-08
2.22629e-07
1.59742e-08
2.21629e-07
1.54954e-08
2.20606e-07
1.50551e-08
2.19563e-07
1.4653e-08
2.18502e-07
1.42892e-08
2.17426e-07
1.39641e-08
2.16335e-07
1.36788e-08
2.1523e-07
1.34344e-08
2.14112e-07
1.32327e-08
2.12979e-07
1.30763e-08
2.11831e-07
1.29677e-08
2.10666e-07
1.29119e-08
2.09483e-07
1.29112e-08
2.08277e-07
1.29764e-08
2.07045e-07
1.31065e-08
2.05783e-07
1.33248e-08
2.04483e-07
1.36203e-08
2.0314e-07
1.40415e-08
2.01742e-07
1.45578e-08
2.00284e-07
1.52574e-08
1.98742e-07
1.60931e-08
1.97114e-07
1.71792e-08
1.95361e-07
1.85424e-08
1.93455e-07
2.01785e-08
1.91404e-07
2.25795e-08
2.54007e-08
1.89019e-07
2.30978e-07
6.82642e-08
2.33928e-07
8.05006e-08
2.35352e-07
5.7945e-08
2.36431e-07
4.92697e-08
2.37017e-07
4.46602e-08
2.3736e-07
3.98968e-08
2.37653e-07
3.62043e-08
2.37905e-07
3.35811e-08
2.38102e-07
3.14779e-08
2.38245e-07
2.96643e-08
2.38336e-07
2.80874e-08
2.38374e-07
2.67073e-08
2.38354e-07
2.54817e-08
2.38275e-07
2.43781e-08
2.38136e-07
2.33739e-08
2.37937e-07
2.24531e-08
2.37679e-07
2.16038e-08
2.37363e-07
2.08166e-08
2.36991e-07
2.00846e-08
2.36566e-07
1.94021e-08
2.36091e-07
1.8765e-08
2.35569e-07
1.81702e-08
2.35003e-07
1.76152e-08
2.34397e-07
1.70982e-08
2.33753e-07
1.6618e-08
2.33074e-07
1.61739e-08
2.32364e-07
1.57656e-08
2.31624e-07
1.53929e-08
2.30857e-07
1.50566e-08
2.30064e-07
1.47573e-08
2.29246e-07
1.44964e-08
2.28405e-07
1.42755e-08
2.27541e-07
1.40969e-08
2.26654e-07
1.39635e-08
2.25743e-07
1.38783e-08
2.24808e-07
1.38471e-08
2.23846e-07
1.38725e-08
2.22857e-07
1.39658e-08
2.21836e-07
1.41273e-08
2.20781e-07
1.43801e-08
2.19685e-07
1.47163e-08
2.18545e-07
1.51813e-08
2.17349e-07
1.57535e-08
2.16096e-07
1.65103e-08
2.14764e-07
1.74256e-08
2.13352e-07
1.85914e-08
2.11829e-07
2.00647e-08
2.10168e-07
2.18395e-08
2.08391e-07
2.43568e-08
2.7431e-08
2.06361e-07
2.37599e-07
6.27902e-08
2.40595e-07
7.7504e-08
2.41962e-07
5.65788e-08
2.43046e-07
4.81855e-08
2.43669e-07
4.40372e-08
2.44024e-07
3.95417e-08
2.44322e-07
3.59064e-08
2.44586e-07
3.33168e-08
2.44805e-07
3.12588e-08
2.44984e-07
2.9485e-08
2.4513e-07
2.79418e-08
2.45243e-07
2.65946e-08
2.45321e-07
2.54032e-08
2.45364e-07
2.43355e-08
2.45369e-07
2.33687e-08
2.45335e-07
2.24868e-08
2.45262e-07
2.16773e-08
2.45148e-07
2.09306e-08
2.44993e-07
2.02392e-08
2.44798e-07
1.95972e-08
2.44563e-07
1.90001e-08
2.44289e-07
1.84444e-08
2.43977e-07
1.79273e-08
2.43628e-07
1.74471e-08
2.43244e-07
1.70023e-08
2.42825e-07
1.65921e-08
2.42375e-07
1.62163e-08
2.41893e-07
1.58749e-08
2.41381e-07
1.55686e-08
2.4084e-07
1.52982e-08
2.40271e-07
1.50653e-08
2.39674e-07
1.4872e-08
2.39051e-07
1.47205e-08
2.384e-07
1.46144e-08
2.37721e-07
1.45568e-08
2.37014e-07
1.45539e-08
2.36278e-07
1.46089e-08
2.3551e-07
1.47335e-08
2.34709e-07
1.49289e-08
2.33871e-07
1.52176e-08
2.32992e-07
1.55951e-08
2.3207e-07
1.61033e-08
2.31095e-07
1.6729e-08
2.30066e-07
1.75394e-08
2.28965e-07
1.85267e-08
2.27791e-07
1.97648e-08
2.26525e-07
2.1331e-08
2.25138e-07
2.32261e-08
2.23665e-07
2.58299e-08
2.90795e-08
2.22017e-07
2.44429e-07
5.76176e-08
2.47465e-07
7.44679e-08
2.48782e-07
5.52619e-08
2.49866e-07
4.71014e-08
2.50527e-07
4.3376e-08
2.50899e-07
3.917e-08
2.51201e-07
3.56046e-08
2.5147e-07
3.30478e-08
2.51696e-07
3.10327e-08
2.51885e-07
2.92955e-08
2.52047e-07
2.77798e-08
2.52185e-07
2.64565e-08
2.523e-07
2.52883e-08
2.52392e-07
2.42438e-08
2.5246e-07
2.33007e-08
2.52503e-07
2.24433e-08
2.52521e-07
2.16591e-08
2.52513e-07
2.09388e-08
2.52478e-07
2.02745e-08
2.52415e-07
1.96603e-08
2.52324e-07
1.90914e-08
2.52204e-07
1.85642e-08
2.52055e-07
1.80759e-08
2.51878e-07
1.76244e-08
2.51672e-07
1.72082e-08
2.51438e-07
1.68263e-08
2.51176e-07
1.64785e-08
2.50886e-07
1.61647e-08
2.50569e-07
1.58856e-08
2.50225e-07
1.56422e-08
2.49854e-07
1.54361e-08
2.49456e-07
1.52694e-08
2.49032e-07
1.51447e-08
2.48581e-07
1.50657e-08
2.48102e-07
1.50357e-08
2.47595e-07
1.50612e-08
2.47058e-07
1.51458e-08
2.4649e-07
1.53013e-08
2.45889e-07
1.55299e-08
2.45253e-07
1.58534e-08
2.44578e-07
1.62703e-08
2.43863e-07
1.68186e-08
2.43098e-07
1.74933e-08
2.42286e-07
1.83518e-08
2.41411e-07
1.94016e-08
2.40473e-07
2.07028e-08
2.39461e-07
2.23435e-08
2.38349e-07
2.43374e-08
2.37181e-07
2.69983e-08
3.03527e-08
2.35908e-07
2.51476e-07
5.27483e-08
2.54542e-07
7.14018e-08
2.5582e-07
5.39838e-08
2.56899e-07
4.60229e-08
2.57597e-07
4.26775e-08
2.57988e-07
3.87789e-08
2.58295e-07
3.52977e-08
2.58569e-07
3.27744e-08
2.58799e-07
3.08023e-08
2.58992e-07
2.91023e-08
2.59159e-07
2.76135e-08
2.59304e-07
2.63114e-08
2.5943e-07
2.51624e-08
2.59538e-07
2.41359e-08
2.59628e-07
2.32101e-08
2.59702e-07
2.23696e-08
2.59758e-07
2.16027e-08
2.59797e-07
2.08998e-08
2.59818e-07
2.02536e-08
2.5982e-07
1.9658e-08
2.59804e-07
1.91084e-08
2.59767e-07
1.8601e-08
2.5971e-07
1.81329e-08
2.59632e-07
1.77021e-08
2.59533e-07
1.7307e-08
2.59413e-07
1.69467e-08
2.59271e-07
1.66206e-08
2.59107e-07
1.63287e-08
2.58921e-07
1.60718e-08
2.58712e-07
1.58508e-08
2.58481e-07
1.56674e-08
2.58226e-07
1.55237e-08
2.57949e-07
1.54225e-08
2.57647e-07
1.53676e-08
2.5732e-07
1.53625e-08
2.56967e-07
1.54138e-08
2.56588e-07
1.55254e-08
2.5618e-07
1.5709e-08
2.55742e-07
1.59679e-08
2.55273e-07
1.63228e-08
2.54768e-07
1.6775e-08
2.54228e-07
1.73589e-08
2.53645e-07
1.80762e-08
2.5302e-07
1.89763e-08
2.52344e-07
2.00777e-08
2.51615e-07
2.14317e-08
2.5083e-07
2.31288e-08
2.49969e-07
2.5198e-08
2.49079e-07
2.78889e-08
3.12867e-08
2.48145e-07
2.58749e-07
4.81823e-08
2.61835e-07
6.83156e-08
2.63085e-07
5.2734e-08
2.64153e-07
4.4955e-08
2.64886e-07
4.19444e-08
2.65299e-07
3.83661e-08
2.65612e-07
3.49846e-08
2.6589e-07
3.24961e-08
2.66125e-07
3.05672e-08
2.66321e-07
2.89062e-08
2.6649e-07
2.74452e-08
2.66637e-07
2.61645e-08
2.66765e-07
2.50338e-08
2.66877e-07
2.40237e-08
2.66975e-07
2.31129e-08
2.67058e-07
2.22866e-08
2.67127e-07
2.15332e-08
2.67183e-07
2.08436e-08
2.67226e-07
2.02107e-08
2.67256e-07
1.96286e-08
2.67271e-07
1.90927e-08
2.67273e-07
1.85993e-08
2.6726e-07
1.81458e-08
2.67232e-07
1.77299e-08
2.67189e-07
1.73502e-08
2.6713e-07
1.70056e-08
2.67055e-07
1.66958e-08
2.66963e-07
1.64207e-08
2.66854e-07
1.61808e-08
2.66727e-07
1.59775e-08
2.66583e-07
1.58121e-08
2.66419e-07
1.56872e-08
2.66236e-07
1.56054e-08
2.66033e-07
1.55706e-08
2.65809e-07
1.55864e-08
2.65564e-07
1.56597e-08
2.65294e-07
1.57945e-08
2.65001e-07
1.60024e-08
2.64682e-07
1.62875e-08
2.64335e-07
1.66694e-08
2.63958e-07
1.71519e-08
2.63551e-07
1.77661e-08
2.63108e-07
1.85191e-08
2.62631e-07
1.94538e-08
2.62112e-07
2.05961e-08
2.61552e-07
2.19921e-08
2.60952e-07
2.37289e-08
2.60299e-07
2.58505e-08
2.59641e-07
2.85472e-08
3.19384e-08
2.58989e-07
2.66257e-07
4.39179e-08
2.69352e-07
6.52199e-08
2.70584e-07
5.15019e-08
2.71637e-07
4.39023e-08
2.72402e-07
4.11799e-08
2.72838e-07
3.79302e-08
2.73158e-07
3.46645e-08
2.73441e-07
3.22128e-08
2.73681e-07
3.03271e-08
2.7388e-07
2.87067e-08
2.74051e-07
2.7275e-08
2.74199e-07
2.60164e-08
2.74328e-07
2.49044e-08
2.74441e-07
2.39107e-08
2.74539e-07
2.30146e-08
2.74624e-07
2.22016e-08
2.74697e-07
2.14605e-08
2.74758e-07
2.07828e-08
2.74807e-07
2.01612e-08
2.74846e-07
1.95902e-08
2.74873e-07
1.90654e-08
2.74889e-07
1.85832e-08
2.74894e-07
1.8141e-08
2.74887e-07
1.77366e-08
2.74869e-07
1.73688e-08
2.74838e-07
1.70364e-08
2.74794e-07
1.67391e-08
2.74738e-07
1.64769e-08
2.74669e-07
1.62505e-08
2.74585e-07
1.6061e-08
2.74487e-07
1.59101e-08
2.74374e-07
1.58002e-08
2.74245e-07
1.5734e-08
2.741e-07
1.57157e-08
2.73938e-07
1.5749e-08
2.73757e-07
1.58405e-08
2.73556e-07
1.59948e-08
2.73336e-07
1.62231e-08
2.73093e-07
1.65304e-08
2.72827e-07
1.6935e-08
2.72536e-07
1.7443e-08
2.7222e-07
1.80825e-08
2.71874e-07
1.88646e-08
2.71501e-07
1.98273e-08
2.71096e-07
2.10009e-08
2.70659e-07
2.2429e-08
2.70197e-07
2.41911e-08
2.69703e-07
2.63443e-08
2.69223e-07
2.90268e-08
3.23727e-08
2.68789e-07
2.74007e-07
3.99517e-08
2.77102e-07
6.21257e-08
2.78326e-07
5.02774e-08
2.7936e-07
4.28681e-08
2.80152e-07
4.03883e-08
2.80613e-07
3.74694e-08
2.80941e-07
3.43364e-08
2.81229e-07
3.19248e-08
2.81474e-07
3.00817e-08
2.81677e-07
2.85035e-08
2.8185e-07
2.71028e-08
2.81999e-07
2.58671e-08
2.82129e-07
2.47743e-08
2.82242e-07
2.37976e-08
2.8234e-07
2.29164e-08
2.82425e-07
2.21168e-08
2.82498e-07
2.1388e-08
2.82559e-07
2.07217e-08
2.82609e-07
2.0111e-08
2.82649e-07
1.95504e-08
2.82679e-07
1.90356e-08
2.82698e-07
1.85634e-08
2.82708e-07
1.81311e-08
2.82708e-07
1.77368e-08
2.82698e-07
1.7379e-08
2.82677e-07
1.70569e-08
2.82646e-07
1.67701e-08
2.82604e-07
1.65188e-08
2.82551e-07
1.63035e-08
2.82487e-07
1.61255e-08
2.8241e-07
1.59866e-08
2.82321e-07
1.58892e-08
2.82219e-07
1.58363e-08
2.82103e-07
1.58318e-08
2.81972e-07
1.58798e-08
2.81826e-07
1.59868e-08
2.81663e-07
1.61578e-08
2.81483e-07
1.64034e-08
2.81283e-07
1.67296e-08
2.81065e-07
1.71535e-08
2.80825e-07
1.76829e-08
2.80564e-07
1.83434e-08
2.8028e-07
1.91492e-08
2.79972e-07
2.01345e-08
2.79642e-07
2.13315e-08
2.79287e-07
2.27831e-08
2.78919e-07
2.4559e-08
2.78538e-07
2.67259e-08
2.78186e-07
2.93787e-08
3.26517e-08
2.77907e-07
2.82011e-07
3.62785e-08
2.85092e-07
5.90445e-08
2.86318e-07
4.9051e-08
2.87331e-07
4.18553e-08
2.88145e-07
3.95741e-08
2.88632e-07
3.69826e-08
2.88969e-07
3.39991e-08
2.89262e-07
3.16322e-08
2.89513e-07
2.9831e-08
2.8972e-07
2.82961e-08
2.89895e-07
2.69282e-08
2.90045e-07
2.57165e-08
2.90176e-07
2.46435e-08
2.9029e-07
2.36842e-08
2.90388e-07
2.28185e-08
2.90472e-07
2.20326e-08
2.90543e-07
2.13163e-08
2.90604e-07
2.06616e-08
2.90653e-07
2.00617e-08
2.90692e-07
1.95115e-08
2.90721e-07
1.90067e-08
2.9074e-07
1.85441e-08
2.9075e-07
1.81213e-08
2.9075e-07
1.77364e-08
2.90741e-07
1.73881e-08
2.90722e-07
1.70756e-08
2.90694e-07
1.67984e-08
2.90656e-07
1.65569e-08
2.90608e-07
1.63516e-08
2.90549e-07
1.6184e-08
2.9048e-07
1.60558e-08
2.904e-07
1.59696e-08
2.90308e-07
1.59283e-08
2.90203e-07
1.59362e-08
2.90086e-07
1.59972e-08
2.89955e-07
1.6118e-08
2.89809e-07
1.63036e-08
2.89648e-07
1.65646e-08
2.8947e-07
1.69074e-08
2.89275e-07
1.73481e-08
2.89062e-07
1.7896e-08
2.88831e-07
1.85746e-08
2.8858e-07
1.93999e-08
2.88311e-07
2.04037e-08
2.88025e-07
2.16182e-08
2.87722e-07
2.30863e-08
2.87413e-07
2.48672e-08
2.87106e-07
2.70334e-08
2.8684e-07
2.96449e-08
3.28265e-08
2.86665e-07
2.90276e-07
3.28909e-08
2.93333e-07
5.5988e-08
2.9457e-07
4.78137e-08
2.9556e-07
4.08658e-08
2.96391e-07
3.87427e-08
2.96905e-07
3.64688e-08
2.97253e-07
3.36514e-08
2.9755e-07
3.13348e-08
2.97806e-07
2.9575e-08
2.98018e-07
2.80844e-08
2.98195e-07
2.67508e-08
2.98347e-07
2.55643e-08
2.98479e-07
2.45119e-08
2.98593e-07
2.35705e-08
2.9869e-07
2.27207e-08
2.98774e-07
2.1949e-08
2.98845e-07
2.12456e-08
2.98904e-07
2.06027e-08
2.98951e-07
2.00139e-08
2.98989e-07
1.94742e-08
2.99016e-07
1.89794e-08
2.99033e-07
1.85266e-08
2.99041e-07
1.81134e-08
2.9904e-07
1.77379e-08
2.99029e-07
1.73989e-08
2.99009e-07
1.70956e-08
2.9898e-07
1.68279e-08
2.98941e-07
1.65958e-08
2.98892e-07
1.64002e-08
2.98834e-07
1.62425e-08
2.98765e-07
1.61244e-08
2.98686e-07
1.60488e-08
2.98596e-07
1.60185e-08
2.98494e-07
1.6038e-08
2.9838e-07
1.61111e-08
2.98253e-07
1.62447e-08
2.98113e-07
1.6444e-08
2.97958e-07
1.67191e-08
2.97789e-07
1.70771e-08
2.97604e-07
1.75331e-08
2.97402e-07
1.80975e-08
2.97185e-07
1.8792e-08
2.96951e-07
1.96339e-08
2.96701e-07
2.06533e-08
2.96439e-07
2.18807e-08
2.96165e-07
2.33597e-08
2.95893e-07
2.51392e-08
2.95633e-07
2.72935e-08
2.95423e-07
2.98554e-08
3.29347e-08
2.95314e-07
2.98813e-07
2.97803e-08
3.01833e-07
5.29684e-08
3.03089e-07
4.65576e-08
3.04054e-07
3.99003e-08
3.04898e-07
3.78994e-08
3.05439e-07
3.59276e-08
3.05799e-07
3.32917e-08
3.06101e-07
3.10328e-08
3.06362e-07
2.93137e-08
3.06578e-07
2.78679e-08
3.06759e-07
2.65706e-08
3.06913e-07
2.54104e-08
3.07045e-07
2.43792e-08
3.07159e-07
2.34563e-08
3.07257e-07
2.26229e-08
3.0734e-07
2.18658e-08
3.0741e-07
2.11757e-08
3.07468e-07
2.0545e-08
3.07514e-07
1.99676e-08
3.0755e-07
1.94386e-08
3.07575e-07
1.89542e-08
3.07591e-07
1.85113e-08
3.07596e-07
1.81077e-08
3.07592e-07
1.77417e-08
3.07579e-07
1.74122e-08
3.07556e-07
1.71183e-08
3.07524e-07
1.68599e-08
3.07483e-07
1.66373e-08
3.07432e-07
1.64513e-08
3.07371e-07
1.63034e-08
3.073e-07
1.61953e-08
3.07219e-07
1.61301e-08
3.07127e-07
1.61106e-08
3.07023e-07
1.61413e-08
3.06908e-07
1.62263e-08
3.06781e-07
1.63722e-08
3.0664e-07
1.65846e-08
3.06486e-07
1.68731e-08
3.06317e-07
1.72455e-08
3.06135e-07
1.77159e-08
3.05937e-07
1.82955e-08
3.05724e-07
1.90047e-08
3.05497e-07
1.98611e-08
3.05257e-07
2.08936e-08
3.05006e-07
2.21308e-08
3.0475e-07
2.36162e-08
3.045e-07
2.53894e-08
3.0427e-07
2.7523e-08
3.04096e-07
3.00295e-08
3.30007e-08
3.0403e-07
3.07632e-07
2.69361e-08
3.10602e-07
4.99976e-08
3.11884e-07
4.52761e-08
3.12825e-07
3.89588e-08
3.13675e-07
3.70496e-08
3.14243e-07
3.53594e-08
3.14617e-07
3.29183e-08
3.14924e-07
3.07258e-08
3.1519e-07
2.90473e-08
3.15411e-07
2.76465e-08
3.15595e-07
2.6387e-08
3.15751e-07
2.52546e-08
3.15885e-07
2.42453e-08
3.16e-07
2.33415e-08
3.16097e-07
2.2525e-08
3.1618e-07
2.1783e-08
3.16249e-07
2.11065e-08
3.16306e-07
2.04883e-08
3.16351e-07
1.99226e-08
3.16385e-07
1.94047e-08
3.16408e-07
1.89308e-08
3.16421e-07
1.84981e-08
3.16425e-07
1.81044e-08
3.16418e-07
1.77481e-08
3.16402e-07
1.74282e-08
3.16377e-07
1.71438e-08
3.16342e-07
1.6895e-08
3.16297e-07
1.6682e-08
3.16243e-07
1.65057e-08
3.16179e-07
1.63675e-08
3.16104e-07
1.62696e-08
3.1602e-07
1.62147e-08
3.15924e-07
1.6206e-08
3.15818e-07
1.62478e-08
3.157e-07
1.63445e-08
3.15569e-07
1.65026e-08
3.15426e-07
1.67278e-08
3.1527e-07
1.70295e-08
3.15099e-07
1.74157e-08
3.14915e-07
1.78999e-08
3.14717e-07
1.84938e-08
3.14505e-07
1.92166e-08
3.1428e-07
2.00861e-08
3.14044e-07
2.11298e-08
3.138e-07
2.23743e-08
3.13554e-07
2.38622e-08
3.13319e-07
2.56251e-08
3.1311e-07
2.77314e-08
3.12961e-07
3.01784e-08
3.30394e-08
3.12923e-07
3.16741e-07
2.43462e-08
3.19651e-07
4.70876e-08
3.20963e-07
4.39639e-08
3.21882e-07
3.80404e-08
3.22733e-07
3.61986e-08
3.23327e-07
3.47651e-08
3.23715e-07
3.25299e-08
3.24028e-07
3.04135e-08
3.24299e-07
2.87758e-08
3.24526e-07
2.74199e-08
3.24713e-07
2.61998e-08
3.24871e-07
2.50965e-08
3.25006e-07
2.41101e-08
3.25122e-07
2.32259e-08
3.2522e-07
2.24269e-08
3.25303e-07
2.17004e-08
3.25371e-07
2.1038e-08
3.25427e-07
2.04327e-08
3.2547e-07
1.9879e-08
3.25503e-07
1.93724e-08
3.25524e-07
1.89093e-08
3.25535e-07
1.8487e-08
3.25536e-07
1.81034e-08
3.25527e-07
1.77571e-08
3.25509e-07
1.74469e-08
3.2548e-07
1.71723e-08
3.25442e-07
1.69332e-08
3.25394e-07
1.67299e-08
3.25337e-07
1.65633e-08
3.25269e-07
1.64352e-08
3.25191e-07
1.63474e-08
3.25103e-07
1.63029e-08
3.25004e-07
1.6305e-08
3.24894e-07
1.6358e-08
3.24772e-07
1.64665e-08
3.24638e-07
1.66366e-08
3.24491e-07
1.68745e-08
3.24331e-07
1.71891e-08
3.24158e-07
1.75888e-08
3.23972e-07
1.80864e-08
3.23772e-07
1.86939e-08
3.23559e-07
1.94295e-08
3.23334e-07
2.03106e-08
3.231e-07
2.1364e-08
3.22861e-07
2.26136e-08
3.22622e-07
2.41006e-08
3.22398e-07
2.58498e-08
3.22206e-07
2.79234e-08
3.22076e-07
3.03078e-08
3.30586e-08
3.22057e-07
3.26151e-07
2.19974e-08
3.28989e-07
4.42503e-08
3.30336e-07
4.2617e-08
3.31233e-07
3.71429e-08
3.32081e-07
3.53511e-08
3.32699e-07
3.41466e-08
3.33104e-07
3.21248e-08
3.33422e-07
3.00953e-08
3.33699e-07
2.84994e-08
3.33931e-07
2.7188e-08
3.34122e-07
2.60087e-08
3.34282e-07
2.4936e-08
3.34419e-07
2.39732e-08
3.34536e-07
2.31093e-08
3.34634e-07
2.23283e-08
3.34717e-07
2.16179e-08
3.34785e-07
2.09699e-08
3.3484e-07
2.03779e-08
3.34882e-07
1.98366e-08
3.34913e-07
1.93416e-08
3.34933e-07
1.88896e-08
3.34942e-07
1.84779e-08
3.3494e-07
1.81047e-08
3.34929e-07
1.77685e-08
3.34908e-07
1.74683e-08
3.34876e-07
1.72036e-08
3.34835e-07
1.69744e-08
3.34784e-07
1.6781e-08
3.34723e-07
1.66244e-08
3.34652e-07
1.65063e-08
3.3457e-07
1.64288e-08
3.34479e-07
1.63948e-08
3.34376e-07