/*--------------------------------*- C++ -*----------------------------------*\
  =========                 |
  \\      /  F ield         | OpenFOAM: The Open Source CFD Toolbox
   \\    /   O peration     | Website:  https://openfoam.org
    \\  /    A nd           | Version:  7
     \\/     M anipulation  |
\*---------------------------------------------------------------------------*/
FoamFile
{
    version     2.0;
    format      ascii;
    class       surfaceScalarField;
    location    "0.14";
    object      phi_0;
}
// * * * * * * * * * * * * * * * * * * * * * * * * * * * * * * * * * * * * * //

dimensions      [0 3 -1 0 0 0 0];

internalField   nonuniform List<scalar> 
139350
(
6.459e-08
9.20415e-08
3.19444e-08
3.26457e-08
2.3048e-08
8.89635e-09
1.95479e-08
3.50007e-09
1.759e-08
1.95794e-09
1.61558e-08
1.4342e-09
1.50158e-08
1.14004e-09
1.40944e-08
9.21364e-10
1.33342e-08
7.60246e-10
1.26919e-08
6.42258e-10
1.21388e-08
5.53087e-10
1.16556e-08
4.83257e-10
1.12284e-08
4.27159e-10
1.08471e-08
3.81276e-10
1.05039e-08
3.43216e-10
1.01926e-08
3.11269e-10
9.90845e-09
2.84185e-10
9.64741e-09
2.61032e-10
9.40631e-09
2.41101e-10
9.18246e-09
2.2385e-10
8.97361e-09
2.08857e-10
8.77782e-09
1.95788e-10
8.59344e-09
1.84381e-10
8.41901e-09
1.74429e-10
8.25325e-09
1.65763e-10
8.09499e-09
1.58252e-10
7.9432e-09
1.51792e-10
7.7969e-09
1.46302e-10
7.65518e-09
1.41718e-10
7.51718e-09
1.38004e-10
7.38206e-09
1.35118e-10
7.24898e-09
1.33073e-10
7.11716e-09
1.31828e-10
6.98568e-09
1.31472e-10
6.85376e-09
1.31922e-10
6.72036e-09
1.33403e-10
6.58464e-09
1.3572e-10
6.44531e-09
1.39331e-10
6.30147e-09
1.43841e-10
6.15144e-09
1.50023e-10
5.99412e-09
1.57323e-10
5.82754e-09
1.66578e-10
5.64964e-09
1.77906e-10
5.45925e-09
1.90386e-10
5.25048e-09
2.08775e-10
5.02783e-09
2.22645e-10
4.77023e-09
2.57605e-10
4.51427e-09
2.55954e-10
4.102e-09
4.12272e-10
-1.64112e-09
5.74312e-09
1.26022e-07
1.27463e-07
9.12508e-08
6.74171e-08
7.19171e-08
2.82301e-08
6.11755e-08
1.42416e-08
5.47134e-08
8.4201e-09
5.02022e-08
5.94539e-09
4.66992e-08
4.64298e-09
4.38632e-08
3.75734e-09
4.15151e-08
3.10837e-09
3.95302e-08
2.62717e-09
3.78215e-08
2.2618e-09
3.6329e-08
1.97576e-09
3.50101e-08
1.74609e-09
3.38331e-08
1.5582e-09
3.27741e-08
1.40223e-09
3.18142e-08
1.27121e-09
3.09383e-08
1.16001e-09
3.01346e-08
1.06483e-09
2.93929e-08
9.8277e-10
2.87051e-08
9.11613e-10
2.80643e-08
8.4963e-10
2.74647e-08
7.95459e-10
2.6901e-08
7.48023e-10
2.6369e-08
7.06461e-10
2.58647e-08
6.70085e-10
2.53846e-08
6.38344e-10
2.49256e-08
6.108e-10
2.44848e-08
5.87109e-10
2.40595e-08
5.67e-10
2.36472e-08
5.50289e-10
2.32455e-08
5.36822e-10
2.2852e-08
5.26571e-10
2.24644e-08
5.19438e-10
2.20803e-08
5.15609e-10
2.16972e-08
5.14935e-10
2.13126e-08
5.17996e-10
2.0924e-08
5.24348e-10
2.0528e-08
5.35356e-10
2.0122e-08
5.49803e-10
1.97015e-08
5.70564e-10
1.92639e-08
5.94872e-10
1.88024e-08
6.28111e-10
1.8315e-08
6.65348e-10
1.77908e-08
7.14586e-10
1.72284e-08
7.71168e-10
1.66124e-08
8.38614e-10
1.59344e-08
9.35661e-10
1.52054e-08
9.84894e-10
1.42486e-08
1.3691e-09
-1.16595e-09
1.37734e-08
1.58804e-07
1.35062e-07
1.36482e-07
8.97395e-08
1.17465e-07
4.72474e-08
1.03267e-07
2.84397e-08
9.32368e-08
1.845e-08
8.59092e-08
1.32729e-08
8.01752e-08
1.0377e-08
7.54936e-08
8.43896e-09
7.15824e-08
7.01953e-09
6.82551e-08
5.95455e-09
6.53785e-08
5.13841e-09
6.2858e-08
4.49623e-09
6.06252e-08
3.97888e-09
5.86289e-08
3.55444e-09
5.683e-08
3.20121e-09
5.51974e-08
2.90373e-09
5.37068e-08
2.6507e-09
5.23379e-08
2.43364e-09
5.10746e-08
2.2461e-09
4.99031e-08
2.08311e-09
4.88119e-08
1.9408e-09
4.77913e-08
1.81611e-09
4.68327e-08
1.70659e-09
4.59289e-08
1.61032e-09
4.50732e-08
1.52571e-09
4.42601e-08
1.45152e-09
4.34841e-08
1.38674e-09
4.27407e-08
1.33056e-09
4.20253e-08
1.28236e-09
4.1334e-08
1.24167e-09
4.06626e-08
1.20815e-09
4.00075e-08
1.18165e-09
3.9365e-08
1.162e-09
3.87311e-08
1.14943e-09
3.81023e-08
1.14378e-09
3.74743e-08
1.14599e-09
3.68432e-08
1.15542e-09
3.6204e-08
1.17456e-09
3.55527e-08
1.20115e-09
3.48821e-08
1.24117e-09
3.41888e-08
1.28821e-09
3.34612e-08
1.35567e-09
3.26983e-08
1.4282e-09
3.18795e-08
1.53339e-09
3.10102e-08
1.64054e-09
3.00522e-08
1.79653e-09
2.9018e-08
1.96986e-09
2.7872e-08
2.13093e-09
2.65286e-08
2.71254e-09
5.27426e-10
2.48352e-08
1.75662e-07
1.30916e-07
1.65585e-07
9.98166e-08
1.52698e-07
6.01339e-08
1.40078e-07
4.10606e-08
1.29361e-07
2.9166e-08
1.20688e-07
2.19467e-08
1.13541e-07
1.75233e-08
1.07523e-07
1.44574e-08
1.02382e-07
1.21609e-08
9.79355e-08
1.04007e-08
9.40451e-08
9.02883e-09
9.0605e-08
7.93624e-09
8.75357e-08
7.0482e-09
8.47757e-08
6.31445e-09
8.22768e-08
5.70015e-09
8.00004e-08
5.18016e-09
7.79152e-08
4.73587e-09
7.59956e-08
4.35321e-09
7.42203e-08
4.02138e-09
7.25714e-08
3.732e-09
7.10338e-08
3.47848e-09
6.95943e-08
3.25559e-09
6.82417e-08
3.05917e-09
6.69662e-08
2.88586e-09
6.57589e-08
2.73294e-09
6.46122e-08
2.59822e-09
6.35191e-08
2.47992e-09
6.2473e-08
2.37663e-09
6.14681e-08
2.28724e-09
6.04989e-08
2.21089e-09
5.956e-08
2.14697e-09
5.86466e-08
2.09511e-09
5.77535e-08
2.05506e-09
5.68759e-08
2.02705e-09
5.60088e-08
2.01092e-09
5.51468e-08
2.00796e-09
5.42848e-08
2.01738e-09
5.34165e-08
2.04293e-09
5.25364e-08
2.08121e-09
5.16357e-08
2.14188e-09
5.07097e-08
2.21417e-09
4.9744e-08
2.32141e-09
4.8737e-08
2.43519e-09
4.76623e-08
2.60808e-09
4.65269e-08
2.77593e-09
4.52817e-08
3.04174e-09
4.39439e-08
3.30768e-09
4.24533e-08
3.62147e-09
4.07838e-08
4.38206e-09
2.82723e-09
3.8484e-08
1.84559e-07
1.23142e-07
1.82314e-07
1.02062e-07
1.76083e-07
6.63648e-08
1.6772e-07
4.94235e-08
1.5907e-07
3.78156e-08
1.51129e-07
2.98882e-08
1.44019e-07
2.46334e-08
1.37677e-07
2.07991e-08
1.3203e-07
1.78076e-08
1.26995e-07
1.54361e-08
1.22486e-07
1.35382e-08
1.18426e-07
1.19957e-08
1.14752e-07
1.07222e-08
1.1141e-07
9.65647e-09
1.08356e-07
8.75482e-09
1.05551e-07
7.98481e-09
1.02965e-07
7.32186e-09
1.00571e-07
6.74707e-09
9.83467e-08
6.24568e-09
9.62726e-08
5.8061e-09
9.4332e-08
5.41909e-09
9.25103e-08
5.07727e-09
9.07948e-08
4.77469e-09
8.91742e-08
4.50651e-09
8.76383e-08
4.26879e-09
8.61782e-08
4.05834e-09
8.47856e-08
3.87255e-09
8.34529e-08
3.7093e-09
8.21732e-08
3.56697e-09
8.09398e-08
3.44421e-09
7.97467e-08
3.34014e-09
7.85877e-08
3.25411e-09
7.7457e-08
3.18578e-09
7.63487e-08
3.13534e-09
7.52569e-08
3.10265e-09
7.41755e-08
3.08936e-09
7.30984e-08
3.09456e-09
7.2018e-08
3.12328e-09
7.09281e-08
3.17109e-09
6.98187e-08
3.25136e-09
6.86836e-08
3.34919e-09
6.75072e-08
3.49786e-09
6.6286e-08
3.65642e-09
6.4992e-08
3.90207e-09
6.36286e-08
4.13935e-09
6.21467e-08
4.52355e-09
6.05536e-08
4.90083e-09
5.87908e-08
5.38431e-09
5.68288e-08
6.34398e-09
5.45613e-09
5.41999e-08
1.90387e-07
1.14972e-07
1.91846e-07
1.00603e-07
1.90228e-07
6.79824e-08
1.86122e-07
5.35302e-08
1.8066e-07
4.32776e-08
1.74875e-07
3.56728e-08
1.69142e-07
3.03666e-08
1.63616e-07
2.63253e-08
1.58393e-07
2.30304e-08
1.53516e-07
2.0313e-08
1.48988e-07
1.80657e-08
1.44794e-07
1.619e-08
1.40909e-07
1.4607e-08
1.37308e-07
1.32579e-08
1.33964e-07
1.20988e-08
1.30853e-07
1.1096e-08
1.27952e-07
1.02228e-08
1.25241e-07
9.45823e-09
1.22701e-07
8.78557e-09
1.20316e-07
8.19128e-09
1.1807e-07
7.66443e-09
1.15951e-07
7.19614e-09
1.13947e-07
6.77914e-09
1.12046e-07
6.40745e-09
1.10239e-07
6.07618e-09
1.08516e-07
5.78128e-09
1.06869e-07
5.51945e-09
1.0529e-07
5.28799e-09
1.03772e-07
5.08477e-09
1.02308e-07
4.90806e-09
1.00892e-07
4.7567e-09
9.95162e-08
4.62982e-09
9.8175e-08
4.52701e-09
9.68619e-08
4.44841e-09
9.55706e-08
4.39397e-09
9.42942e-08
4.36567e-09
9.30262e-08
4.3626e-09
9.17585e-08
4.39097e-09
9.0484e-08
4.44562e-09
8.91921e-08
4.54324e-09
8.78756e-08
4.66573e-09
8.65185e-08
4.85491e-09
8.51147e-08
5.06024e-09
8.36381e-08
5.37869e-09
8.20845e-08
5.69294e-09
8.04134e-08
6.19464e-09
7.86124e-08
6.70185e-09
7.66406e-08
7.35611e-09
7.44411e-08
8.54342e-09
8.3124e-09
7.15848e-08
1.95539e-07
1.07247e-07
1.98242e-07
9.79e-08
1.98955e-07
6.72688e-08
1.97762e-07
5.47236e-08
1.95111e-07
4.59287e-08
1.91744e-07
3.90403e-08
1.87979e-07
3.41309e-08
1.8399e-07
3.03149e-08
1.79924e-07
2.70958e-08
1.75894e-07
2.43436e-08
1.71966e-07
2.19932e-08
1.68181e-07
1.99753e-08
1.64559e-07
1.82295e-08
1.61107e-07
1.6709e-08
1.57829e-07
1.53777e-08
1.54718e-07
1.42067e-08
1.51768e-07
1.31722e-08
1.48972e-07
1.22548e-08
1.46319e-07
1.14385e-08
1.438e-07
1.07099e-08
1.41407e-07
1.00582e-08
1.39129e-07
9.47417e-09
1.36958e-07
8.95012e-09
1.34885e-07
8.47974e-09
1.32904e-07
8.05772e-09
1.31005e-07
7.67965e-09
1.29183e-07
7.34188e-09
1.2743e-07
7.04139e-09
1.25738e-07
6.7758e-09
1.24103e-07
6.54318e-09
1.22518e-07
6.34222e-09
1.20976e-07
6.17194e-09
1.19471e-07
6.03196e-09
1.17997e-07
5.92247e-09
1.16547e-07
5.84357e-09
1.15115e-07
5.79758e-09
1.13694e-07
5.78376e-09
1.12276e-07
5.80933e-09
1.10852e-07
5.86888e-09
1.09414e-07
5.98171e-09
1.07952e-07
6.12797e-09
1.06451e-07
6.35563e-09
1.04902e-07
6.60897e-09
1.03284e-07
6.99741e-09
1.01582e-07
7.39461e-09
9.97686e-08
8.00797e-09
9.78112e-08
8.65922e-09
9.56857e-08
9.4816e-09
9.332e-08
1.09091e-08
1.132e-08
9.03124e-08
2.00846e-07
9.99854e-08
2.0377e-07
9.49763e-08
2.05315e-07
6.57245e-08
2.0562e-07
5.44185e-08
2.04778e-07
4.67705e-08
2.03276e-07
4.05423e-08
2.01301e-07
3.61055e-08
1.98938e-07
3.26782e-08
1.96291e-07
2.97423e-08
1.93464e-07
2.71708e-08
1.90537e-07
2.49201e-08
1.87571e-07
2.29416e-08
1.8461e-07
2.11904e-08
1.81686e-07
1.96324e-08
1.78823e-07
1.82413e-08
1.76034e-07
1.69957e-08
1.73328e-07
1.58774e-08
1.70712e-07
1.48712e-08
1.68186e-07
1.39641e-08
1.65752e-07
1.31448e-08
1.63406e-07
1.24039e-08
1.61147e-07
1.17334e-08
1.5897e-07
1.11264e-08
1.56873e-07
1.0577e-08
1.5485e-07
1.00803e-08
1.52898e-07
9.63212e-09
1.51011e-07
9.22898e-09
1.49184e-07
8.86794e-09
1.47413e-07
8.54678e-09
1.45693e-07
8.26359e-09
1.44018e-07
8.0172e-09
1.42383e-07
7.80672e-09
1.40783e-07
7.63195e-09
1.39212e-07
7.49327e-09
1.37665e-07
7.39106e-09
1.36134e-07
7.32804e-09
1.34614e-07
7.30383e-09
1.33097e-07
7.32649e-09
1.31575e-07
7.39089e-09
1.30039e-07
7.51814e-09
1.28478e-07
7.68821e-09
1.26881e-07
7.95265e-09
1.25235e-07
8.25511e-09
1.23523e-07
8.70992e-09
1.21723e-07
9.19404e-09
1.19819e-07
9.91216e-09
1.17764e-07
1.07145e-08
1.15542e-07
1.1704e-08
1.13083e-07
1.33672e-08
1.43887e-08
1.10015e-07
2.06445e-07
9.30722e-08
2.09334e-07
9.2088e-08
2.11024e-07
6.40339e-08
2.11908e-07
5.35343e-08
2.11964e-07
4.67146e-08
2.11561e-07
4.09459e-08
2.10809e-07
3.68571e-08
2.09712e-07
3.37759e-08
2.08305e-07
3.11491e-08
2.06647e-07
2.88288e-08
2.04793e-07
2.67738e-08
2.02793e-07
2.49418e-08
2.00688e-07
2.32948e-08
1.98516e-07
2.18051e-08
1.96304e-07
2.04528e-08
1.94078e-07
1.92223e-08
1.91854e-07
1.81008e-08
1.89648e-07
1.70772e-08
1.8747e-07
1.6142e-08
1.85328e-07
1.5287e-08
1.83227e-07
1.45049e-08
1.81171e-07
1.37896e-08
1.79162e-07
1.31357e-08
1.772e-07
1.25385e-08
1.75286e-07
1.19942e-08
1.73419e-07
1.14992e-08
1.71597e-07
1.10508e-08
1.69819e-07
1.06466e-08
1.68081e-07
1.02847e-08
1.66381e-07
9.96374e-09
1.64715e-07
9.68289e-09
1.6308e-07
9.44158e-09
1.61472e-07
9.23999e-09
1.59886e-07
9.07886e-09
1.58319e-07
8.95903e-09
1.56763e-07
8.88367e-09
1.55214e-07
8.85295e-09
1.53665e-07
8.87571e-09
1.52108e-07
8.94748e-09
1.50536e-07
9.09058e-09
1.48938e-07
9.28608e-09
1.47303e-07
9.58688e-09
1.45619e-07
9.93987e-09
1.43871e-07
1.0458e-08
1.42034e-07
1.10311e-08
1.40098e-07
1.18479e-08
1.38011e-07
1.28017e-08
1.35756e-07
1.39583e-08
1.33282e-07
1.58417e-08
1.74223e-08
1.30248e-07
2.12287e-07
8.64473e-08
2.15146e-07
8.92291e-08
2.16778e-07
6.2402e-08
2.1782e-07
5.24919e-08
2.18223e-07
4.63117e-08
2.18324e-07
4.08452e-08
2.18229e-07
3.6952e-08
2.17907e-07
3.40982e-08
2.17349e-07
3.1707e-08
2.16573e-07
2.96043e-08
2.15604e-07
2.77432e-08
2.14465e-07
2.60803e-08
2.13183e-07
2.45769e-08
2.11783e-07
2.32056e-08
2.10287e-07
2.19482e-08
2.08718e-07
2.07916e-08
2.07094e-07
1.97253e-08
2.0543e-07
1.87409e-08
2.03741e-07
1.78313e-08
2.02037e-07
1.69906e-08
2.00328e-07
1.62137e-08
1.98622e-07
1.54961e-08
1.96923e-07
1.4834e-08
1.95238e-07
1.42242e-08
1.93568e-07
1.36638e-08
1.91917e-07
1.31504e-08
1.90285e-07
1.26822e-08
1.88675e-07
1.22575e-08
1.87084e-07
1.18753e-08
1.85513e-07
1.15347e-08
1.8396e-07
1.12354e-08
1.82425e-07
1.09775e-08
1.80903e-07
1.07616e-08
1.79393e-07
1.05891e-08
1.77891e-07
1.04613e-08
1.76392e-07
1.03819e-08
1.74893e-07
1.03519e-08
1.73388e-07
1.03808e-08
1.71871e-07
1.0465e-08
1.70333e-07
1.06277e-08
1.68768e-07
1.0852e-08
1.67164e-07
1.11904e-08
1.65508e-07
1.15957e-08
1.63791e-07
1.21753e-08
1.61984e-07
1.28376e-08
1.60084e-07
1.37483e-08
1.58037e-07
1.48485e-08
1.55825e-07
1.61708e-08
1.53413e-07
1.8253e-08
2.03255e-08
1.5051e-07
2.18328e-07
8.00997e-08
2.212e-07
8.63577e-08
2.2275e-07
6.08514e-08
2.23819e-07
5.1423e-08
2.24331e-07
4.57995e-08
2.2461e-07
4.05663e-08
2.24793e-07
3.67695e-08
2.24851e-07
3.40401e-08
2.24762e-07
3.17959e-08
2.24526e-07
2.98406e-08
2.24146e-07
2.81228e-08
2.23629e-07
2.65975e-08
2.22983e-07
2.52231e-08
2.22218e-07
2.39699e-08
2.21348e-07
2.28182e-08
2.20385e-07
2.17545e-08
2.19342e-07
2.07685e-08
2.18231e-07
1.98524e-08
2.17062e-07
1.89999e-08
2.15846e-07
1.82062e-08
2.14593e-07
1.7467e-08
2.1331e-07
1.67793e-08
2.12004e-07
1.61401e-08
2.10681e-07
1.55473e-08
2.09346e-07
1.4999e-08
2.08002e-07
1.44936e-08
2.06654e-07
1.40302e-08
2.05304e-07
1.36079e-08
2.03953e-07
1.32263e-08
2.02602e-07
1.28853e-08
2.01252e-07
1.25853e-08
1.99903e-07
1.23269e-08
1.98553e-07
1.21113e-08
1.97202e-07
1.19406e-08
1.95846e-07
1.18166e-08
1.94485e-07
1.17438e-08
1.93113e-07
1.17237e-08
1.91727e-07
1.17665e-08
1.90322e-07
1.18701e-08
1.88892e-07
1.20576e-08
1.87429e-07
1.23151e-08
1.85926e-07
1.26934e-08
1.84369e-07
1.31532e-08
1.82751e-07
1.37931e-08
1.81045e-07
1.45433e-08
1.7925e-07
1.55437e-08
1.77317e-07
1.67814e-08
1.75223e-07
1.82648e-08
1.72955e-07
2.05204e-08
2.30082e-08
1.70273e-07
2.24557e-07
7.4036e-08
2.27464e-07
8.3451e-08
2.28947e-07
5.93684e-08
2.3002e-07
5.03493e-08
2.30573e-07
4.52464e-08
2.30901e-07
4.0239e-08
2.31173e-07
3.64975e-08
2.3138e-07
3.38334e-08
2.31501e-07
3.16747e-08
2.31534e-07
2.98073e-08
2.31478e-07
2.81784e-08
2.31332e-07
2.67442e-08
2.31093e-07
2.54617e-08
2.30764e-07
2.4299e-08
2.30348e-07
2.32346e-08
2.29849e-07
2.22536e-08
2.29272e-07
2.13447e-08
2.28625e-07
2.04996e-08
2.27913e-07
1.97117e-08
2.27143e-07
1.89761e-08
2.26322e-07
1.82888e-08
2.25454e-07
1.76469e-08
2.24546e-07
1.7048e-08
2.23603e-07
1.64903e-08
2.2263e-07
1.59725e-08
2.2163e-07
1.54936e-08
2.20607e-07
1.50531e-08
2.19564e-07
1.46508e-08
2.18504e-07
1.42868e-08
2.17427e-07
1.39616e-08
2.16336e-07
1.36761e-08
2.15232e-07
1.34315e-08
2.14114e-07
1.32296e-08
2.12981e-07
1.3073e-08
2.11834e-07
1.29641e-08
2.10669e-07
1.2908e-08
2.09486e-07
1.2907e-08
2.08281e-07
1.29719e-08
2.07049e-07
1.31015e-08
2.05788e-07
1.33194e-08
2.04488e-07
1.36145e-08
2.03146e-07
1.40352e-08
2.01749e-07
1.4551e-08
2.00292e-07
1.52501e-08
1.9875e-07
1.60852e-08
1.97123e-07
1.71708e-08
1.95371e-07
1.85335e-08
1.93466e-07
2.01692e-08
1.91416e-07
2.25703e-08
2.53923e-08
1.89032e-07
2.30978e-07
6.82642e-08
2.33928e-07
8.05006e-08
2.35352e-07
5.7945e-08
2.36431e-07
4.92697e-08
2.37017e-07
4.46602e-08
2.3736e-07
3.98968e-08
2.37653e-07
3.62043e-08
2.37905e-07
3.3581e-08
2.38102e-07
3.14779e-08
2.38245e-07
2.96642e-08
2.38336e-07
2.80872e-08
2.38373e-07
2.6707e-08
2.38354e-07
2.54814e-08
2.38275e-07
2.43777e-08
2.38136e-07
2.33734e-08
2.37937e-07
2.24525e-08
2.37679e-07
2.16031e-08
2.37363e-07
2.08158e-08
2.36991e-07
2.00836e-08
2.36566e-07
1.9401e-08
2.36091e-07
1.87638e-08
2.35569e-07
1.81689e-08
2.35003e-07
1.76137e-08
2.34397e-07
1.70966e-08
2.33753e-07
1.66163e-08
2.33075e-07
1.6172e-08
2.32365e-07
1.57634e-08
2.31625e-07
1.53906e-08
2.30857e-07
1.50541e-08
2.30064e-07
1.47546e-08
2.29247e-07
1.44935e-08
2.28406e-07
1.42724e-08
2.27542e-07
1.40935e-08
2.26655e-07
1.39599e-08
2.25745e-07
1.38745e-08
2.2481e-07
1.38429e-08
2.23849e-07
1.38679e-08
2.2286e-07
1.39609e-08
2.2184e-07
1.4122e-08
2.20785e-07
1.43743e-08
2.19689e-07
1.471e-08
2.1855e-07
1.51745e-08
2.17355e-07
1.57461e-08
2.16102e-07
1.65023e-08
2.14771e-07
1.7417e-08
2.13359e-07
1.85822e-08
2.11838e-07
2.0055e-08
2.10178e-07
2.18293e-08
2.08401e-07
2.43465e-08
2.74212e-08
2.06372e-07
2.37599e-07
6.27902e-08
2.40595e-07
7.75041e-08
2.41962e-07
5.65788e-08
2.43046e-07
4.81855e-08
2.43669e-07
4.40372e-08
2.44024e-07
3.95417e-08
2.44322e-07
3.59064e-08
2.44586e-07
3.33168e-08
2.44805e-07
3.12587e-08
2.44984e-07
2.94849e-08
2.4513e-07
2.79416e-08
2.45243e-07
2.65943e-08
2.45321e-07
2.54029e-08
2.45364e-07
2.43351e-08
2.45369e-07
2.33682e-08
2.45335e-07
2.24862e-08
2.45262e-07
2.16766e-08
2.45148e-07
2.09298e-08
2.44993e-07
2.02383e-08
2.44798e-07
1.95962e-08
2.44563e-07
1.89989e-08
2.44289e-07
1.8443e-08
2.43977e-07
1.79258e-08
2.43628e-07
1.74454e-08
2.43244e-07
1.70004e-08
2.42825e-07
1.65901e-08
2.42375e-07
1.62141e-08
2.41893e-07
1.58725e-08
2.41381e-07
1.5566e-08
2.4084e-07
1.52954e-08
2.40271e-07
1.50623e-08
2.39675e-07
1.48687e-08
2.39052e-07
1.4717e-08
2.38401e-07
1.46106e-08
2.37723e-07
1.45527e-08
2.37016e-07
1.45495e-08
2.3628e-07
1.46041e-08
2.35512e-07
1.47283e-08
2.34711e-07
1.49232e-08
2.33874e-07
1.52115e-08
2.32996e-07
1.55885e-08
2.32074e-07
1.60961e-08
2.31099e-07
1.67211e-08
2.3007e-07
1.75309e-08
2.2897e-07
1.85176e-08
2.27797e-07
1.9755e-08
2.26532e-07
2.13205e-08
2.25146e-07
2.32151e-08
2.23674e-07
2.58187e-08
2.90685e-08
2.22026e-07
2.44429e-07
5.76176e-08
2.47465e-07
7.44679e-08
2.48782e-07
5.52619e-08
2.49866e-07
4.71014e-08
2.50527e-07
4.3376e-08
2.50899e-07
3.917e-08
2.51201e-07
3.56046e-08
2.5147e-07
3.30478e-08
2.51696e-07
3.10326e-08
2.51885e-07
2.92954e-08
2.52047e-07
2.77797e-08
2.52185e-07
2.64563e-08
2.523e-07
2.5288e-08
2.52392e-07
2.42434e-08
2.5246e-07
2.33003e-08
2.52503e-07
2.24427e-08
2.52521e-07
2.16584e-08
2.52513e-07
2.0938e-08
2.52478e-07
2.02735e-08
2.52415e-07
1.96592e-08
2.52324e-07
1.90902e-08
2.52204e-07
1.85629e-08
2.52055e-07
1.80744e-08
2.51878e-07
1.76227e-08
2.51672e-07
1.72063e-08
2.51438e-07
1.68243e-08
2.51176e-07
1.64762e-08
2.50886e-07
1.61623e-08
2.50569e-07
1.58829e-08
2.50225e-07
1.56393e-08
2.49854e-07
1.5433e-08
2.49457e-07
1.5266e-08
2.49033e-07
1.5141e-08
2.48582e-07
1.50617e-08
2.48103e-07
1.50314e-08
2.47596e-07
1.50566e-08
2.47059e-07
1.51408e-08
2.46492e-07
1.52959e-08
2.45891e-07
1.55241e-08
2.45255e-07
1.5847e-08
2.44581e-07
1.62633e-08
2.43866e-07
1.68111e-08
2.43102e-07
1.74851e-08
2.4229e-07
1.8343e-08
2.41415e-07
1.9392e-08
2.40478e-07
2.06925e-08
2.39466e-07
2.23325e-08
2.38355e-07
2.43257e-08
2.37187e-07
2.69863e-08
3.03405e-08
2.35915e-07
2.51476e-07
5.27483e-08
2.54542e-07
7.14018e-08
2.5582e-07
5.39838e-08
2.56899e-07
4.60229e-08
2.57597e-07
4.26776e-08
2.57988e-07
3.87789e-08
2.58295e-07
3.52977e-08
2.58569e-07
3.27743e-08
2.58799e-07
3.08022e-08
2.58992e-07
2.91022e-08
2.59159e-07
2.76133e-08
2.59304e-07
2.63112e-08
2.5943e-07
2.51621e-08
2.59538e-07
2.41355e-08
2.59628e-07
2.32096e-08
2.59702e-07
2.2369e-08
2.59758e-07
2.1602e-08
2.59797e-07
2.0899e-08
2.59818e-07
2.02527e-08
2.5982e-07
1.9657e-08
2.59803e-07
1.91072e-08
2.59767e-07
1.85996e-08
2.5971e-07
1.81314e-08
2.59632e-07
1.77004e-08
2.59533e-07
1.73051e-08
2.59413e-07
1.69446e-08
2.59271e-07
1.66183e-08
2.59107e-07
1.63262e-08
2.58921e-07
1.60691e-08
2.58712e-07
1.58478e-08
2.58481e-07
1.56642e-08
2.58227e-07
1.55202e-08
2.57949e-07
1.54188e-08
2.57647e-07
1.53635e-08
2.57321e-07
1.53581e-08
2.56968e-07
1.5409e-08
2.56589e-07
1.55202e-08
2.56181e-07
1.57034e-08
2.55743e-07
1.59619e-08
2.55274e-07
1.63162e-08
2.5477e-07
1.67678e-08
2.5423e-07
1.73512e-08
2.53647e-07
1.80677e-08
2.53023e-07
1.89672e-08
2.52347e-07
2.00678e-08
2.51619e-07
2.14209e-08
2.50834e-07
2.31173e-08
2.49974e-07
2.51858e-08
2.49084e-07
2.78762e-08
3.12736e-08
2.48151e-07
2.58749e-07
4.81823e-08
2.61835e-07
6.83156e-08
2.63085e-07
5.2734e-08
2.64153e-07
4.49551e-08
2.64886e-07
4.19444e-08
2.65299e-07
3.83661e-08
2.65612e-07
3.49846e-08
2.6589e-07
3.2496e-08
2.66125e-07
3.05671e-08
2.66321e-07
2.89061e-08
2.6649e-07
2.7445e-08
2.66637e-07
2.61642e-08
2.66765e-07
2.50335e-08
2.66877e-07
2.40233e-08
2.66975e-07
2.31125e-08
2.67058e-07
2.2286e-08
2.67127e-07
2.15325e-08
2.67183e-07
2.08428e-08
2.67226e-07
2.02098e-08
2.67256e-07
1.96275e-08
2.67271e-07
1.90914e-08
2.67273e-07
1.85979e-08
2.6726e-07
1.81442e-08
2.67232e-07
1.77282e-08
2.67189e-07
1.73483e-08
2.6713e-07
1.70035e-08
2.67055e-07
1.66935e-08
2.66963e-07
1.64181e-08
2.66854e-07
1.61781e-08
2.66727e-07
1.59744e-08
2.66583e-07
1.58089e-08
2.66419e-07
1.56837e-08
2.66237e-07
1.56015e-08
2.66034e-07
1.55664e-08
2.6581e-07
1.55819e-08
2.65564e-07
1.56548e-08
2.65295e-07
1.57892e-08
2.65002e-07
1.59966e-08
2.64683e-07
1.62813e-08
2.64336e-07
1.66626e-08
2.63959e-07
1.71446e-08
2.63552e-07
1.77582e-08
2.6311e-07
1.85104e-08
2.62632e-07
1.94444e-08
2.62114e-07
2.05859e-08
2.61554e-07
2.1981e-08
2.60955e-07
2.3717e-08
2.60302e-07
2.58379e-08
2.59645e-07
2.85339e-08
3.19245e-08
2.58994e-07
2.66257e-07
4.39179e-08
2.69352e-07
6.52199e-08
2.70584e-07
5.15019e-08
2.71637e-07
4.39023e-08
2.72402e-07
4.118e-08
2.72838e-07
3.79302e-08
2.73158e-07
3.46644e-08
2.73441e-07
3.22128e-08
2.73681e-07
3.0327e-08
2.7388e-07
2.87066e-08
2.74051e-07
2.72749e-08
2.74199e-07
2.60162e-08
2.74328e-07
2.49041e-08
2.74441e-07
2.39104e-08
2.74539e-07
2.30142e-08
2.74624e-07
2.2201e-08
2.74697e-07
2.14599e-08
2.74758e-07
2.0782e-08
2.74807e-07
2.01603e-08
2.74846e-07
1.95892e-08
2.74873e-07
1.90642e-08
2.74889e-07
1.85818e-08
2.74894e-07
1.81394e-08
2.74887e-07
1.77349e-08
2.74868e-07
1.73669e-08
2.74838e-07
1.70343e-08
2.74794e-07
1.67368e-08
2.74738e-07
1.64744e-08
2.74669e-07
1.62477e-08
2.74585e-07
1.60579e-08
2.74487e-07
1.59067e-08
2.74374e-07
1.57966e-08
2.74246e-07
1.57301e-08
2.74101e-07
1.57115e-08
2.73938e-07
1.57444e-08
2.73757e-07
1.58355e-08
2.73557e-07
1.59895e-08
2.73336e-07
1.62173e-08
2.73094e-07
1.65241e-08
2.72828e-07
1.69282e-08
2.72537e-07
1.74356e-08
2.72221e-07
1.80744e-08
2.71876e-07
1.88557e-08
2.71502e-07
1.98177e-08
2.71098e-07
2.09905e-08
2.70661e-07
2.24177e-08
2.70199e-07
2.4179e-08
2.69706e-07
2.63313e-08
2.69226e-07
2.90131e-08
3.23581e-08
2.68793e-07
2.74007e-07
3.99518e-08
2.77102e-07
6.21257e-08
2.78326e-07
5.02775e-08
2.7936e-07
4.28681e-08
2.80152e-07
4.03883e-08
2.80613e-07
3.74694e-08
2.80941e-07
3.43364e-08
2.81229e-07
3.19248e-08
2.81474e-07
3.00816e-08
2.81677e-07
2.85034e-08
2.8185e-07
2.71027e-08
2.81999e-07
2.58669e-08
2.82129e-07
2.4774e-08
2.82242e-07
2.37972e-08
2.8234e-07
2.2916e-08
2.82425e-07
2.21162e-08
2.82497e-07
2.13874e-08
2.82559e-07
2.07209e-08
2.82609e-07
2.01101e-08
2.82649e-07
1.95493e-08
2.82678e-07
1.90344e-08
2.82698e-07
1.85621e-08
2.82708e-07
1.81296e-08
2.82708e-07
1.77351e-08
2.82698e-07
1.73771e-08
2.82677e-07
1.70548e-08
2.82646e-07
1.67678e-08
2.82604e-07
1.65162e-08
2.82551e-07
1.63006e-08
2.82487e-07
1.61224e-08
2.8241e-07
1.59832e-08
2.82321e-07
1.58856e-08
2.82219e-07
1.58323e-08
2.82103e-07
1.58275e-08
2.81973e-07
1.58751e-08
2.81826e-07
1.59818e-08
2.81663e-07
1.61523e-08
2.81483e-07
1.63975e-08
2.81284e-07
1.67232e-08
2.81066e-07
1.71465e-08
2.80826e-07
1.76754e-08
2.80565e-07
1.83352e-08
2.80281e-07
1.91402e-08
2.79974e-07
2.01248e-08
2.79643e-07
2.1321e-08
2.79289e-07
2.27718e-08
2.78921e-07
2.45467e-08
2.7854e-07
2.67128e-08
2.78188e-07
2.93646e-08
3.26365e-08
2.7791e-07
2.82011e-07
3.62785e-08
2.85092e-07
5.90445e-08
2.86318e-07
4.9051e-08
2.87331e-07
4.18554e-08
2.88145e-07
3.95741e-08
2.88632e-07
3.69826e-08
2.88969e-07
3.39991e-08
2.89262e-07
3.16321e-08
2.89513e-07
2.98309e-08
2.8972e-07
2.8296e-08
2.89895e-07
2.6928e-08
2.90045e-07
2.57163e-08
2.90176e-07
2.46433e-08
2.90289e-07
2.36838e-08
2.90387e-07
2.2818e-08
2.90472e-07
2.2032e-08
2.90543e-07
2.13157e-08
2.90603e-07
2.06608e-08
2.90653e-07
2.00608e-08
2.90692e-07
1.95104e-08
2.90721e-07
1.90055e-08
2.9074e-07
1.85428e-08
2.9075e-07
1.81198e-08
2.9075e-07
1.77347e-08
2.90741e-07
1.73862e-08
2.90722e-07
1.70734e-08
2.90694e-07
1.6796e-08
2.90656e-07
1.65542e-08
2.90608e-07
1.63487e-08
2.90549e-07
1.61808e-08
2.9048e-07
1.60523e-08
2.904e-07
1.59658e-08
2.90308e-07
1.59242e-08
2.90204e-07
1.59318e-08
2.90086e-07
1.59925e-08
2.89955e-07
1.61129e-08
2.89809e-07
1.62981e-08
2.89648e-07
1.65586e-08
2.89471e-07
1.69009e-08
2.89276e-07
1.7341e-08
2.89063e-07
1.78884e-08
2.88832e-07
1.85662e-08
2.88581e-07
1.93908e-08
2.88312e-07
2.03939e-08
2.88026e-07
2.16075e-08
2.87723e-07
2.30747e-08
2.87415e-07
2.48548e-08
2.87108e-07
2.702e-08
2.86842e-07
2.96305e-08
3.28108e-08
2.86667e-07
2.90276e-07
3.28909e-08
2.93333e-07
5.5988e-08
2.9457e-07
4.78137e-08
2.9556e-07
4.08658e-08
2.96391e-07
3.87427e-08
2.96905e-07
3.64688e-08
2.97253e-07
3.36514e-08
2.9755e-07
3.13348e-08
2.97806e-07
2.95749e-08
2.98018e-07
2.80843e-08
2.98195e-07
2.67507e-08
2.98347e-07
2.55641e-08
2.98479e-07
2.45116e-08
2.98592e-07
2.35702e-08
2.9869e-07
2.27202e-08
2.98774e-07
2.19484e-08
2.98845e-07
2.12449e-08
2.98904e-07
2.06019e-08
2.98951e-07
2.0013e-08
2.98989e-07
1.94731e-08
2.99016e-07
1.89783e-08
2.99033e-07
1.85253e-08
2.99041e-07
1.81118e-08
2.9904e-07
1.77361e-08
2.99029e-07
1.7397e-08
2.99009e-07
1.70935e-08
2.9898e-07
1.68255e-08
2.98941e-07
1.65932e-08
2.98892e-07
1.63973e-08
2.98834e-07
1.62392e-08
2.98765e-07
1.61209e-08
2.98686e-07
1.6045e-08
2.98596e-07
1.60144e-08
2.98494e-07
1.60335e-08
2.9838e-07
1.61063e-08
2.98254e-07
1.62395e-08
2.98113e-07
1.64384e-08
2.97959e-07
1.6713e-08
2.97789e-07
1.70705e-08
2.97604e-07
1.75259e-08
2.97403e-07
1.80898e-08
2.97186e-07
1.87836e-08
2.96952e-07
1.96248e-08
2.96702e-07
2.06434e-08
2.9644e-07
2.18699e-08
2.96166e-07
2.33481e-08
2.95895e-07
2.51266e-08
2.95635e-07
2.72799e-08
2.95425e-07
2.98407e-08
3.29186e-08
2.95317e-07
2.98813e-07
2.97803e-08
3.01833e-07
5.29684e-08
3.03089e-07
4.65577e-08
3.04054e-07
3.99003e-08
3.04898e-07
3.78994e-08
3.05439e-07
3.59276e-08
3.05799e-07
3.32917e-08
3.06101e-07
3.10328e-08
3.06362e-07
2.93137e-08
3.06578e-07
2.78678e-08
3.06759e-07
2.65705e-08
3.06913e-07
2.54103e-08
3.07045e-07
2.4379e-08
3.07159e-07
2.3456e-08
3.07257e-07
2.26225e-08
3.0734e-07
2.18653e-08
3.0741e-07
2.1175e-08
3.07468e-07
2.05442e-08
3.07514e-07
1.99667e-08
3.0755e-07
1.94376e-08
3.07575e-07
1.8953e-08
3.0759e-07
1.85099e-08
3.07596e-07
1.81062e-08
3.07592e-07
1.774e-08
3.07579e-07
1.74102e-08
3.07556e-07
1.71161e-08
3.07524e-07
1.68575e-08
3.07483e-07
1.66347e-08
3.07432e-07
1.64484e-08
3.07371e-07
1.63001e-08
3.073e-07
1.61918e-08
3.07219e-07
1.61262e-08
3.07127e-07
1.61064e-08
3.07023e-07
1.61368e-08
3.06908e-07
1.62214e-08
3.06781e-07
1.63669e-08
3.0664e-07
1.65789e-08
3.06486e-07
1.6867e-08
3.06318e-07
1.72388e-08
3.06135e-07
1.77087e-08
3.05937e-07
1.82877e-08
3.05725e-07
1.89962e-08
3.05498e-07
1.98519e-08
3.05258e-07
2.08836e-08
3.05008e-07
2.212e-08
3.04751e-07
2.36044e-08
3.04501e-07
2.53766e-08
3.04272e-07
2.75092e-08
3.04098e-07
3.00145e-08
3.29843e-08
3.04032e-07
3.07632e-07
2.69361e-08
3.10602e-07
4.99976e-08
3.11884e-07
4.52762e-08
3.12825e-07
3.89588e-08
3.13675e-07
3.70497e-08
3.14243e-07
3.53594e-08
3.14617e-07
3.29183e-08
3.14924e-07
3.07258e-08
3.1519e-07
2.90473e-08
3.15411e-07
2.76464e-08
3.15595e-07
2.63869e-08
3.15751e-07
2.52544e-08
3.15885e-07
2.42451e-08
3.15999e-07
2.33412e-08
3.16097e-07
2.25246e-08
3.1618e-07
2.17825e-08
3.16249e-07
2.11059e-08
3.16306e-07
2.04876e-08
3.16351e-07
1.99218e-08
3.16385e-07
1.94037e-08
3.16408e-07
1.89296e-08
3.16421e-07
1.84967e-08
3.16425e-07
1.81029e-08
3.16418e-07
1.77464e-08
3.16402e-07
1.74262e-08
3.16377e-07
1.71417e-08
3.16342e-07
1.68926e-08
3.16297e-07
1.66793e-08
3.16243e-07
1.65027e-08
3.16179e-07
1.63642e-08
3.16104e-07
1.6266e-08
3.1602e-07
1.62108e-08
3.15925e-07
1.62017e-08
3.15818e-07
1.62432e-08
3.157e-07
1.63396e-08
3.1557e-07
1.64973e-08
3.15426e-07
1.67221e-08
3.1527e-07
1.70233e-08
3.151e-07
1.7409e-08
3.14916e-07
1.78926e-08
3.14718e-07
1.84859e-08
3.14506e-07
1.92081e-08
3.14281e-07
2.00768e-08
3.14045e-07
2.11198e-08
3.13801e-07
2.23634e-08
3.13556e-07
2.38504e-08
3.1332e-07
2.56123e-08
3.13112e-07
2.77175e-08
3.12963e-07
3.01632e-08
3.30226e-08
3.12925e-07
3.16741e-07
2.43463e-08
3.19651e-07
4.70877e-08
3.20963e-07
4.39639e-08
3.21882e-07
3.80404e-08
3.22733e-07
3.61986e-08
3.23327e-07
3.47651e-08
3.23715e-07
3.25299e-08
3.24028e-07
3.04135e-08
3.24299e-07
2.87758e-08
3.24526e-07
2.74198e-08
3.24713e-07
2.61997e-08
3.24871e-07
2.50964e-08
3.25006e-07
2.41098e-08
3.25122e-07
2.32256e-08
3.2522e-07
2.24265e-08
3.25303e-07
2.17e-08
3.25371e-07
2.10374e-08
3.25427e-07
2.0432e-08
3.2547e-07
1.98781e-08
3.25503e-07
1.93714e-08
3.25524e-07
1.89081e-08
3.25535e-07
1.84856e-08
3.25536e-07
1.81019e-08
3.25527e-07
1.77553e-08
3.25509e-07
1.74449e-08
3.2548e-07
1.71701e-08
3.25442e-07
1.69307e-08
3.25394e-07
1.67271e-08
3.25336e-07
1.65603e-08
3.25269e-07
1.64318e-08
3.25191e-07
1.63437e-08
3.25103e-07
1.62989e-08
3.25004e-07
1.63007e-08
3.24894e-07
1.63534e-08
3.24772e-07
1.64614e-08
3.24638e-07
1.66312e-08
3.24491e-07
1.68687e-08
3.24332e-07
1.71828e-08
3.24159e-07
1.7582e-08
3.23972e-07
1.80791e-08
3.23772e-07
1.86859e-08
3.2356e-07
1.94209e-08
3.23335e-07
2.03012e-08
3.23101e-07
2.13538e-08
3.22862e-07
2.26025e-08
3.22624e-07
2.40886e-08
3.22399e-07
2.58369e-08
3.22207e-07
2.79093e-08
3.22078e-07
3.02923e-08
3.30415e-08
3.22059e-07
3.26151e-07
2.19974e-08
3.28989e-07
4.42503e-08
3.30336e-07
4.26171e-08
3.31233e-07
3.71429e-08
3.32081e-07
3.53511e-08
3.32699e-07
3.41466e-08
3.33104e-07
3.21248e-08
3.33422e-07
3.00953e-08
3.33699e-07
2.84994e-08
3.33931e-07
2.71879e-08
3.34122e-07
2.60086e-08
3.34282e-07
2.49359e-08
3.34419e-07
2.3973e-08
3.34536e-07
2.3109e-08
3.34634e-07
2.23279e-08
3.34717e-07
2.16175e-08
3.34785e-07
2.09694e-08
3.3484e-07
2.03772e-08
3.34882e-07
1.98357e-08
3.34913e-07
1.93406e-08
3.34933e-07
1.88884e-08
3.34942e-07
1.84766e-08
3.3494e-07
1.81032e-08
3.34929e-07
1.77668e-08
3.34907e-07
1.74663e-08
3.34876e-07
1.72014e-08
3.34835e-07
1.69719e-08
3.34784e-07
1.67782e-08
3.34723e-07
1.66213e-08
3.34652e-07
1.65029e-08
3.34571e-07
1.6425e-08
3.34479e-07
1.63908e-08
3.34376e-07
1.64034e-08