/*--------------------------------*- C++ -*----------------------------------*\
  =========                 |
  \\      /  F ield         | OpenFOAM: The Open Source CFD Toolbox
   \\    /   O peration     | Website:  https://openfoam.org
    \\  /    A nd           | Version:  7
     \\/     M anipulation  |
\*---------------------------------------------------------------------------*/
FoamFile
{
    version     2.0;
    format      ascii;
    class       volVectorField;
    location    "0.14";
    object      U;
}
// * * * * * * * * * * * * * * * * * * * * * * * * * * * * * * * * * * * * * //

dimensions      [0 1 -1 0 0 0 0];

internalField   nonuniform List<vector> 
70000
(
(0.553386 0.0167234 0)
(0.251233 0.00340151 0)
(0.166138 0.000322543 0)
(0.132352 5.47292e-05 0)
(0.117119 4.61649e-05 0)
(0.107149 5.43551e-05 0)
(0.0991518 4.67404e-05 0)
(0.0926599 3.74299e-05 0)
(0.0873611 3.11498e-05 0)
(0.0829351 2.68589e-05 0)
(0.0791538 2.35988e-05 0)
(0.0758692 2.09964e-05 0)
(0.07298 1.88828e-05 0)
(0.0704122 1.71457e-05 0)
(0.0681093 1.57018e-05 0)
(0.0660278 1.44901e-05 0)
(0.0641331 1.34653e-05 0)
(0.0623976 1.25936e-05 0)
(0.0607987 1.18494e-05 0)
(0.0593179 1.1213e-05 0)
(0.0579394 1.06693e-05 0)
(0.05665 1.02067e-05 0)
(0.0554385 9.81607e-06 0)
(0.0542949 9.4907e-06 0)
(0.0532105 9.22546e-06 0)
(0.0521775 9.01713e-06 0)
(0.051189 8.86292e-06 0)
(0.0502386 8.76291e-06 0)
(0.0493202 8.71506e-06 0)
(0.0484282 8.72402e-06 0)
(0.0475574 8.78575e-06 0)
(0.0467021 8.91348e-06 0)
(0.0458576 9.09544e-06 0)
(0.0450178 9.36177e-06 0)
(0.0441783 9.68265e-06 0)
(0.0433321 1.01186e-05 0)
(0.0424744 1.061e-05 0)
(0.0415977 1.12543e-05 0)
(0.0406947 1.19778e-05 0)
(0.03976 1.28536e-05 0)
(0.0387767 1.39578e-05 0)
(0.037754 1.49822e-05 0)
(0.0366392 1.68867e-05 0)
(0.0355005 1.75615e-05 0)
(0.0341689 2.15341e-05 0)
(0.0329063 1.99557e-05 0)
(0.0311907 2.99687e-05 0)
(0.0298614 1.95751e-05 0)
(0.0274959 4.93496e-05 0)
(0.0244332 -0.000974855 0)
(0.884897 0.0431689 0)
(0.649672 0.0201974 0)
(0.494199 0.0066028 0)
(0.403448 0.00277268 0)
(0.354419 0.0015576 0)
(0.323002 0.00113773 0)
(0.299018 0.00091703 0)
(0.279688 0.000753602 0)
(0.263834 0.000631228 0)
(0.250564 0.000540952 0)
(0.239228 0.000472533 0)
(0.229385 0.000418799 0)
(0.220729 0.000375484 0)
(0.213038 0.000339938 0)
(0.206143 0.000310363 0)
(0.199913 0.000285475 0)
(0.194246 0.000264332 0)
(0.189059 0.000246231 0)
(0.184285 0.000230641 0)
(0.179868 0.000217154 0)
(0.175762 0.000205454 0)
(0.171927 0.000195296 0)
(0.168331 0.000186487 0)
(0.164942 0.000178876 0)
(0.161737 0.000172349 0)
(0.158693 0.000166815 0)
(0.155788 0.000162209 0)
(0.153004 0.000158487 0)
(0.150325 0.000155618 0)
(0.147734 0.0001536 0)
(0.145216 0.000152426 0)
(0.142755 0.00015214 0)
(0.140339 0.000152746 0)
(0.137951 0.000154363 0)
(0.135579 0.000156969 0)
(0.133204 0.000160831 0)
(0.130813 0.000165817 0)
(0.128387 0.000172479 0)
(0.125905 0.000180441 0)
(0.123355 0.000190735 0)
(0.120691 0.000202616 0)
(0.117938 0.00021767 0)
(0.114957 0.000235141 0)
(0.111926 0.000256146 0)
(0.108403 0.00028279 0)
(0.105068 0.00030965 0)
(0.100566 0.000356204 0)
(0.0970398 0.000371266 0)
(0.0908621 0.000574667 0)
(0.0849416 -0.00127301 0)
(0.991238 0.0499043 0)
(0.890313 0.0307262 0)
(0.762562 0.0146085 0)
(0.656428 0.00799249 0)
(0.58496 0.00489932 0)
(0.535396 0.00348721 0)
(0.497352 0.00275329 0)
(0.46654 0.00226245 0)
(0.441018 0.00190071 0)
(0.419487 0.00163046 0)
(0.401002 0.00142434 0)
(0.384896 0.00126237 0)
(0.370694 0.00113184 0)
(0.358048 0.00102465 0)
(0.346691 0.000935381 0)
(0.336417 0.000860152 0)
(0.327062 0.00079614 0)
(0.318494 0.000741235 0)
(0.310605 0.000693838 0)
(0.303305 0.00065272 0)
(0.29652 0.000616931 0)
(0.290186 0.000585727 0)
(0.284249 0.000558524 0)
(0.278661 0.000534864 0)
(0.273382 0.000514387 0)
(0.268374 0.000496815 0)
(0.263605 0.000481941 0)
(0.259045 0.000469612 0)
(0.254667 0.00045973 0)
(0.250444 0.000452249 0)
(0.246354 0.000447156 0)
(0.242372 0.000444516 0)
(0.238478 0.000444374 0)
(0.234646 0.000446965 0)
(0.230858 0.000452318 0)
(0.227084 0.000460999 0)
(0.223307 0.00047283 0)
(0.219496 0.000489083 0)
(0.215622 0.000508913 0)
(0.211664 0.00053511 0)
(0.207556 0.000565206 0)
(0.203333 0.000605002 0)
(0.198794 0.000648882 0)
(0.194191 0.000707633 0)
(0.18889 0.00077171 0)
(0.183852 0.000855664 0)
(0.177164 0.000959397 0)
(0.171795 0.00104085 0)
(0.162709 0.00141289 0)
(0.155405 -0.000372396 0)
(1.0156 0.0489241 0)
(1.00594 0.035886 0)
(0.935856 0.0208094 0)
(0.851905 0.0135265 0)
(0.78181 0.00923334 0)
(0.72643 0.00680989 0)
(0.681142 0.00541524 0)
(0.643158 0.00447902 0)
(0.610891 0.0037881 0)
(0.583156 0.00326498 0)
(0.559017 0.00286128 0)
(0.53777 0.00254186 0)
(0.518886 0.00228324 0)
(0.501964 0.00207007 0)
(0.48669 0.00189189 0)
(0.472814 0.00174125 0)
(0.460135 0.00161268 0)
(0.44849 0.00150208 0)
(0.437744 0.00140631 0)
(0.427783 0.00132297 0)
(0.41851 0.00125019 0)
(0.409846 0.0011865 0)
(0.40172 0.00113073 0)
(0.394069 0.00108196 0)
(0.386841 0.00103949 0)
(0.379988 0.00100273 0)
(0.373466 0.000971263 0)
(0.367236 0.000944767 0)
(0.361264 0.00092303 0)
(0.355514 0.000905924 0)
(0.349958 0.000893413 0)
(0.344563 0.000885567 0)
(0.339303 0.000882487 0)
(0.334145 0.000884523 0)
(0.329066 0.000891806 0)
(0.324029 0.000905231 0)
(0.319011 0.000924628 0)
(0.313973 0.000952143 0)
(0.308881 0.000986383 0)
(0.303707 0.00103246 0)
(0.298372 0.0010855 0)
(0.292911 0.00115743 0)
(0.287091 0.00123498 0)
(0.281194 0.00134448 0)
(0.274495 0.00145587 0)
(0.268064 0.00161974 0)
(0.259761 0.00179357 0)
(0.252825 0.00198329 0)
(0.241741 0.00249921 0)
(0.233111 0.00116157 0)
(1.01434 0.0460081 0)
(1.04752 0.0375023 0)
(1.02451 0.0241753 0)
(0.974589 0.0175905 0)
(0.923133 0.0131594 0)
(0.876182 0.0102483 0)
(0.833811 0.00838969 0)
(0.795827 0.00707334 0)
(0.762001 0.00606803 0)
(0.731898 0.00528481 0)
(0.705009 0.00466685 0)
(0.680864 0.00417003 0)
(0.659066 0.00376298 0)
(0.639284 0.00342429 0)
(0.621243 0.00313897 0)
(0.604714 0.00289614 0)
(0.589503 0.00268767 0)
(0.575449 0.00250739 0)
(0.562413 0.00235054 0)
(0.550277 0.00221343 0)
(0.538941 0.00209315 0)
(0.528316 0.00198741 0)
(0.518325 0.00189438 0)
(0.508902 0.00181262 0)
(0.499985 0.00174098 0)
(0.491521 0.00167854 0)
(0.483462 0.00162461 0)
(0.475761 0.00157866 0)
(0.46838 0.00154033 0)
(0.461279 0.00150939 0)
(0.454423 0.00148577 0)
(0.447776 0.00146953 0)
(0.441306 0.00146083 0)
(0.434979 0.00146014 0)
(0.428764 0.00146771 0)
(0.422622 0.0014848 0)
(0.416526 0.00151129 0)
(0.41043 0.00155026 0)
(0.404299 0.00159981 0)
(0.398095 0.0016676 0)
(0.391739 0.00174619 0)
(0.385255 0.00185434 0)
(0.37841 0.00197041 0)
(0.371464 0.00213814 0)
(0.363705 0.002305 0)
(0.356148 0.00256106 0)
(0.346729 0.00281915 0)
(0.338459 0.00314052 0)
(0.326228 0.003804 0)
(0.316016 0.00297626 0)
(1.00933 0.0429199 0)
(1.05526 0.0372795 0)
(1.05864 0.0253239 0)
(1.03624 0.0197977 0)
(1.00686 0.015859 0)
(0.975655 0.0129914 0)
(0.943937 0.0110228 0)
(0.912844 0.00954791 0)
(0.88323 0.00836438 0)
(0.855484 0.00740306 0)
(0.829686 0.00661915 0)
(0.805776 0.00597261 0)
(0.783636 0.00543214 0)
(0.763124 0.00497507 0)
(0.744095 0.00458483 0)
(0.726409 0.00424893 0)
(0.709937 0.00395776 0)
(0.69456 0.00370384 0)
(0.680171 0.00348126 0)
(0.666675 0.00328538 0)
(0.653984 0.00311247 0)
(0.642023 0.00295956 0)
(0.630721 0.00282426 0)
(0.620016 0.00270465 0)
(0.60985 0.0025992 0)
(0.600172 0.00250667 0)
(0.590934 0.00242613 0)
(0.58209 0.00235685 0)
(0.573601 0.00229834 0)
(0.565426 0.00225026 0)
(0.557529 0.00221252 0)
(0.549872 0.00218517 0)
(0.542424 0.00216846 0)
(0.535146 0.00216295 0)
(0.528007 0.0021691 0)
(0.520966 0.00218847 0)
(0.513993 0.0022211 0)
(0.507042 0.00227097 0)
(0.500074 0.00233582 0)
(0.493047 0.00242578 0)
(0.485886 0.00253122 0)
(0.478597 0.00267732 0)
(0.47097 0.00283522 0)
(0.463212 0.00306428 0)
(0.454696 0.00329383 0)
(0.446264 0.00364572 0)
(0.436152 0.00400359 0)
(0.426794 0.00446256 0)
(0.414059 0.00529842 0)
(0.402407 0.00496879 0)
(1.00625 0.0400389 0)
(1.05205 0.0363535 0)
(1.06605 0.0252563 0)
(1.0595 0.020603 0)
(1.04669 0.0172942 0)
(1.03049 0.0147226 0)
(1.01143 0.0128969 0)
(0.990549 0.0114819 0)
(0.968906 0.0102948 0)
(0.947233 0.00928814 0)
(0.925978 0.00843642 0)
(0.905405 0.00771187 0)
(0.885663 0.00709018 0)
(0.866822 0.0065527 0)
(0.848905 0.00608513 0)
(0.831899 0.00567617 0)
(0.815772 0.00531675 0)
(0.800484 0.0049995 0)
(0.785985 0.00471848 0)
(0.772227 0.00446882 0)
(0.759158 0.00424657 0)
(0.746729 0.00404849 0)
(0.734894 0.00387195 0)
(0.723605 0.0037148 0)
(0.71282 0.00357531 0)
(0.702498 0.00345208 0)
(0.692599 0.00334403 0)
(0.683086 0.00325033 0)
(0.673922 0.00317042 0)
(0.665073 0.00310393 0)
(0.656505 0.00305077 0)
(0.648184 0.00301103 0)
(0.640078 0.00298508 0)
(0.632152 0.00297363 0)
(0.624376 0.00297731 0)
(0.616709 0.00299808 0)
(0.609123 0.00303614 0)
(0.601569 0.00309636 0)
(0.594013 0.00317634 0)
(0.586407 0.0032883 0)
(0.578686 0.00342129 0)
(0.570836 0.00360554 0)
(0.562684 0.00380764 0)
(0.554367 0.00409813 0)
(0.545381 0.00439643 0)
(0.536344 0.00484238 0)
(0.525883 0.00531356 0)
(0.515754 0.00590917 0)
(0.502921 0.00693394 0)
(0.49032 0.00709615 0)
(1.00495 0.0373615 0)
(1.04726 0.0352729 0)
(1.06393 0.024719 0)
(1.06417 0.0206337 0)
(1.06053 0.0178385 0)
(1.0545 0.0155745 0)
(1.04562 0.0139664 0)
(1.03427 0.0127192 0)
(1.02116 0.0116461 0)
(1.0069 0.0107056 0)
(0.991955 0.00988444 0)
(0.976668 0.00916532 0)
(0.961309 0.00853161 0)
(0.946075 0.00797035 0)
(0.931103 0.00747146 0)
(0.916486 0.0070267 0)
(0.902284 0.00662916 0)
(0.888533 0.00627298 0)
(0.875248 0.00595325 0)
(0.862435 0.0056658 0)
(0.850088 0.00540717 0)
(0.838196 0.00517442 0)
(0.826742 0.00496516 0)
(0.815707 0.00477735 0)
(0.805069 0.00460939 0)
(0.794806 0.00445993 0)
(0.784892 0.00432796 0)
(0.775304 0.00421271 0)
(0.766016 0.00411367 0)
(0.757003 0.00403055 0)
(0.748237 0.00396336 0)
(0.739692 0.00391231 0)
(0.731343 0.00387793 0)
(0.723156 0.00386114 0)
(0.715109 0.00386283 0)
(0.707163 0.00388529 0)
(0.699292 0.00392907 0)
(0.691452 0.00399977 0)
(0.683612 0.00409518 0)
(0.675721 0.00422913 0)
(0.667729 0.0043903 0)
(0.659602 0.00461234 0)
(0.651208 0.00486036 0)
(0.642617 0.00521082 0)
(0.633452 0.00558229 0)
(0.624117 0.00611838 0)
(0.613612 0.00671115 0)
(0.603088 0.00744301 0)
(0.590448 0.00865763 0)
(0.577461 0.00929945 0)
(1.0044 0.0348141 0)
(1.04322 0.0342012 0)
(1.0599 0.0240804 0)
(1.0622 0.0203435 0)
(1.06236 0.0179077 0)
(1.06159 0.0158629 0)
(1.05892 0.0144305 0)
(1.05425 0.0133514 0)
(1.04787 0.0124234 0)
(1.04012 0.0115981 0)
(1.03126 0.0108645 0)
(1.02155 0.0102093 0)
(1.01121 0.00961991 0)
(1.00045 0.00908689 0)
(0.989436 0.00860351 0)
(0.978289 0.0081644 0)
(0.967117 0.00776502 0)
(0.956001 0.00740144 0)
(0.945003 0.00707028 0)
(0.934168 0.0067686 0)
(0.923528 0.00649387 0)
(0.913106 0.00624394 0)
(0.902915 0.00601699 0)
(0.892963 0.00581149 0)
(0.88325 0.0056262 0)
(0.873775 0.00546012 0)
(0.864531 0.00531251 0)
(0.85551 0.00518282 0)
(0.846699 0.00507079 0)
(0.838085 0.00497632 0)
(0.829653 0.00489966 0)
(0.821385 0.00484121 0)
(0.813262 0.00480177 0)
(0.805261 0.00478251 0)
(0.797364 0.00478465 0)
(0.789539 0.00481088 0)
(0.781766 0.00486214 0)
(0.774005 0.00494468 0)
(0.766232 0.00505678 0)
(0.758397 0.00521341 0)
(0.750461 0.0054038 0)
(0.742382 0.00566338 0)
(0.734059 0.00595864 0)
(0.725516 0.00636724 0)
(0.716478 0.00681434 0)
(0.707183 0.0074365 0)
(0.696933 0.00815325 0)
(0.686419 0.00902211 0)
(0.674249 0.0104177 0)
(0.661403 0.01151 0)
(1.00402 0.0323745 0)
(1.03989 0.0331526 0)
(1.05612 0.0234598 0)
(1.05884 0.0199589 0)
(1.06008 0.0177821 0)
(1.06137 0.0158734 0)
(1.06166 0.0145438 0)
(1.06066 0.0135816 0)
(1.05848 0.0127721 0)
(1.0552 0.0120552 0)
(1.05094 0.0114175 0)
(1.04578 0.0108454 0)
(1.03987 0.0103259 0)
(1.03332 0.00985045 0)
(1.02625 0.00941337 0)
(1.01878 0.00901061 0)
(1.01099 0.00863904 0)
(1.00298 0.00829606 0)
(0.994816 0.00797949 0)
(0.986554 0.00768748 0)
(0.978247 0.00741847 0)
(0.969935 0.00717112 0)
(0.96165 0.00694433 0)
(0.953417 0.00673718 0)
(0.945255 0.00654896 0)
(0.937178 0.00637915 0)
(0.929195 0.00622741 0)
(0.92131 0.00609357 0)
(0.913525 0.00597773 0)
(0.905838 0.00588009 0)
(0.898245 0.00580122 0)
(0.890737 0.00574182 0)
(0.883305 0.00570302 0)
(0.875935 0.00568632 0)
(0.868615 0.00569334 0)
(0.861321 0.00572716 0)
(0.85404 0.00578923 0)
(0.846739 0.00588636 0)
(0.839398 0.00601753 0)
(0.831976 0.00619845 0)
(0.824441 0.00641967 0)
(0.816749 0.00671707 0)
(0.808827 0.00706063 0)
(0.800667 0.00752571 0)
(0.792074 0.00804909 0)
(0.783168 0.00875368 0)
(0.773478 0.009592 0)
(0.763376 0.0105978 0)
(0.751971 0.0121607 0)
(0.739746 0.0136595 0)
(1.00364 0.0300347 0)
(1.03691 0.0321067 0)
(1.05278 0.0228726 0)
(1.0556 0.0195573 0)
(1.05699 0.0175947 0)
(1.05883 0.0157791 0)
(1.06019 0.0144983 0)
(1.06079 0.0136006 0)
(1.06069 0.0128665 0)
(1.05991 0.012226 0)
(1.05846 0.0116631 0)
(1.05634 0.0111625 0)
(1.05358 0.0107102 0)
(1.05024 0.0102961 0)
(1.04638 0.00991419 0)
(1.04204 0.00956023 0)
(1.03729 0.00923128 0)
(1.0322 0.0089251 0)
(1.02681 0.00864002 0)
(1.02117 0.00837472 0)
(1.01534 0.00812818 0)
(1.00935 0.00789964 0)
(1.00323 0.00768852 0)
(0.997024 0.0074944 0)
(0.990748 0.00731704 0)
(0.984426 0.00715635 0)
(0.978074 0.00701243 0)
(0.971706 0.00688547 0)
(0.965331 0.00677594 0)
(0.958957 0.00668442 0)
(0.952586 0.00661183 0)
(0.946217 0.00655921 0)
(0.939851 0.00652806 0)
(0.933479 0.00652024 0)
(0.927097 0.00653777 0)
(0.920688 0.00658419 0)
(0.914244 0.00666145 0)
(0.907741 0.00677689 0)
(0.901165 0.0069303 0)
(0.894482 0.00713787 0)
(0.887666 0.00739189 0)
(0.880679 0.00772777 0)
(0.873466 0.00812042 0)
(0.866003 0.00864047 0)
(0.858155 0.00923915 0)
(0.849967 0.0100227 0)
(0.84113 0.0109766 0)
(0.831808 0.0121168 0)
(0.821456 0.0138306 0)
(0.810276 0.0156815 0)
(1.00327 0.0277956 0)
(1.03408 0.0310496 0)
(1.04966 0.022312 0)
(1.05264 0.0191537 0)
(1.05399 0.0173886 0)
(1.05588 0.0156556 0)
(1.05752 0.0143979 0)
(1.05865 0.0135317 0)
(1.05937 0.0128397 0)
(1.05971 0.0122442 0)
(1.05966 0.0117282 0)
(1.05921 0.0112764 0)
(1.05832 0.0108735 0)
(1.05702 0.0105085 0)
(1.05531 0.010174 0)
(1.05321 0.00986536 0)
(1.05075 0.00957898 0)
(1.04794 0.0093124 0)
(1.04482 0.00906381 0)
(1.04143 0.00883188 0)
(1.03778 0.00861572 0)
(1.03391 0.00841472 0)
(1.02984 0.00822851 0)
(1.0256 0.00805692 0)
(1.02121 0.00789999 0)
(1.01668 0.00775789 0)
(1.01205 0.00763101 0)
(1.00732 0.00751985 0)
(1.0025 0.00742519 0)
(0.997612 0.0073479 0)
(0.992651 0.00728922 0)
(0.987625 0.00725053 0)
(0.982538 0.00723365 0)
(0.977386 0.00724083 0)
(0.97217 0.00727444 0)
(0.966879 0.00733846 0)
(0.96151 0.00743533 0)
(0.956044 0.00757288 0)
(0.950472 0.00775173 0)
(0.944769 0.00798831 0)
(0.938915 0.00827695 0)
(0.932877 0.00865188 0)
(0.926614 0.00909374 0)
(0.9201 0.00966703 0)
(0.913239 0.0103384 0)
(0.906033 0.0111969 0)
(0.898286 0.0122577 0)
(0.890044 0.0135264 0)
(0.880987 0.0153719 0)
(0.871185 0.017515 0)
(1.00292 0.0256604 0)
(1.03137 0.0299769 0)
(1.04666 0.0217735 0)
(1.04985 0.0187482 0)
(1.05118 0.0171706 0)
(1.05303 0.0155252 0)
(1.0547 0.014284 0)
(1.05595 0.0134345 0)
(1.0569 0.0127667 0)
(1.05764 0.0121965 0)
(1.05816 0.0117066 0)
(1.05845 0.0112832 0)
(1.05849 0.010911 0)
(1.05828 0.0105782 0)
(1.05779 0.010277 0)
(1.05704 0.010002 0)
(1.05603 0.00974926 0)
(1.05475 0.00951576 0)
(1.05322 0.00929936 0)
(1.05145 0.0090985 0)
(1.04945 0.00891209 0)
(1.04723 0.00873943 0)
(1.04482 0.00858012 0)
(1.04221 0.008434 0)
(1.03943 0.00830117 0)
(1.03649 0.00818189 0)
(1.03341 0.00807668 0)
(1.03018 0.0079862 0)
(1.02684 0.0079114 0)
(1.02337 0.00785337 0)
(1.01979 0.00781357 0)
(1.01611 0.00779365 0)
(1.01232 0.00779569 0)
(1.00843 0.00782225 0)
(1.00444 0.00787603 0)
(1.00035 0.00796137 0)
(0.99614 0.00808115 0)
(0.991811 0.00824359 0)
(0.987353 0.00845014 0)
(0.982747 0.00871726 0)
(0.977978 0.00904143 0)
(0.973021 0.0094552 0)
(0.967845 0.00994524 0)
(0.962423 0.0105693 0)
(0.956692 0.0113089 0)
(0.950631 0.0122374 0)
(0.944122 0.0133938 0)
(0.937149 0.0147813 0)
(0.929541 0.0167373 0)
(0.921326 0.0191109 0)
(1.0026 0.0236319 0)
(1.02878 0.0288872 0)
(1.04374 0.0212561 0)
(1.04716 0.0183408 0)
(1.04849 0.0169392 0)
(1.05031 0.0153904 0)
(1.05197 0.0141676 0)
(1.05323 0.0133302 0)
(1.05422 0.0126799 0)
(1.05505 0.012126 0)
(1.05575 0.0116512 0)
(1.05631 0.0112436 0)
(1.05672 0.0108887 0)
(1.05698 0.0105748 0)
(1.05709 0.010294 0)
(1.05703 0.0100406 0)
(1.0568 0.0098104 0)
(1.05639 0.00960018 0)
(1.05582 0.00940751 0)
(1.05506 0.0092306 0)
(1.05414 0.00906814 0)
(1.05304 0.00891926 0)
(1.05177 0.00878342 0)
(1.05035 0.00866038 0)
(1.04877 0.00855016 0)
(1.04704 0.008453 0)
(1.04517 0.00836943 0)
(1.04316 0.00830014 0)
(1.04102 0.00824616 0)
(1.03875 0.00820868 0)
(1.03636 0.00818931 0)
(1.03384 0.00818986 0)
(1.03122 0.00821258 0)
(1.02847 0.00826031 0)
(1.02561 0.00833592 0)
(1.02263 0.00844413 0)
(1.01952 0.00858813 0)
(1.01628 0.00877642 0)
(1.0129 0.00901125 0)
(1.00938 0.00930887 0)
(1.00569 0.00966796 0)
(1.00181 0.010119 0)
(0.997733 0.0106546 0)
(0.993425 0.0113257 0)
(0.988847 0.0121273 0)
(0.98397 0.0131196 0)
(0.978728 0.0143583 0)
(0.973085 0.0158511 0)
(0.966958 0.017895 0)
(0.960392 0.0204388 0)
(1.0023 0.0217119 0)
(1.02632 0.0277815 0)
(1.04091 0.0207581 0)
(1.04455 0.0179328 0)
(1.04591 0.0166932 0)
(1.04769 0.0152498 0)
(1.04935 0.0140501 0)
(1.0506 0.0132238 0)
(1.05158 0.0125893 0)
(1.05242 0.0120492 0)
(1.05315 0.0115852 0)
(1.05377 0.0111876 0)
(1.0543 0.0108431 0)
(1.05473 0.0105403 0)
(1.05507 0.0102714 0)
(1.0553 0.0100309 0)
(1.05543 0.00981446 0)
(1.05545 0.00961894 0)
(1.05536 0.0094418 0)
(1.05516 0.00928113 0)
(1.05484 0.00913551 0)
(1.0544 0.00900395 0)
(1.05384 0.00888582 0)
(1.05316 0.00878077 0)
(1.05236 0.00868875 0)
(1.05144 0.00860994 0)
(1.0504 0.00854482 0)
(1.04924 0.00849407 0)
(1.04798 0.00845873 0)
(1.04659 0.00844005 0)
(1.0451 0.00843967 0)
(1.0435 0.00845953 0)
(1.04178 0.00850199 0)
(1.03995 0.00857006 0)
(1.03801 0.00866677 0)
(1.03595 0.00879707 0)
(1.03377 0.00896442 0)
(1.03146 0.0091775 0)
(1.02902 0.00943929 0)
(1.02644 0.00976562 0)
(1.0237 0.0101573 0)
(1.0208 0.0106426 0)
(1.01772 0.0112196 0)
(1.01443 0.0119328 0)
(1.01091 0.0127884 0)
(1.00714 0.0138368 0)
(1.00308 0.0151435 0)
(0.998693 0.0167249 0)
(0.993961 0.0188337 0)
(0.988958 0.0214912 0)
(1.00203 0.0199012 0)
(1.024 0.0266628 0)
(1.03818 0.0202763 0)
(1.04203 0.0175263 0)
(1.04341 0.0164326 0)
(1.04516 0.0151019 0)
(1.04682 0.0139308 0)
(1.04807 0.0131158 0)
(1.04904 0.012497 0)
(1.04986 0.0119706 0)
(1.05058 0.0115164 0)
(1.05121 0.011127 0)
(1.05176 0.0107902 0)
(1.05223 0.010495 0)
(1.05264 0.0102338 0)
(1.05297 0.0100012 0)
(1.05323 0.00979334 0)
(1.05343 0.00960692 0)
(1.05355 0.00943951 0)
(1.0536 0.0092892 0)
(1.05357 0.00915459 0)
(1.05346 0.00903466 0)
(1.05327 0.00892872 0)
(1.053 0.00883641 0)
(1.05264 0.00875763 0)
(1.0522 0.00869252 0)
(1.05166 0.00864153 0)
(1.05104 0.00860534 0)
(1.05033 0.00858496 0)
(1.04953 0.00858168 0)
(1.04864 0.00859715 0)
(1.04766 0.00863343 0)
(1.04658 0.0086929 0)
(1.04541 0.00877873 0)
(1.04413 0.00889405 0)
(1.04276 0.00904396 0)
(1.04127 0.00923217 0)
(1.03968 0.0094674 0)
(1.03797 0.0097533 0)
(1.03613 0.0101052 0)
(1.03416 0.0105257 0)
(1.03204 0.011041 0)
(1.02977 0.0116539 0)
(1.02733 0.0124034 0)
(1.0247 0.0133043 0)
(1.02186 0.0143999 0)
(1.0188 0.0157599 0)
(1.01551 0.0174117 0)
(1.01199 0.0195628 0)
(1.00835 0.0222839 0)
(1.00179 0.0182 0)
(1.02182 0.0255349 0)
(1.03554 0.019807 0)
(1.03959 0.017123 0)
(1.041 0.0161582 0)
(1.04272 0.014946 0)
(1.04438 0.0138092 0)
(1.04563 0.0130058 0)
(1.04659 0.0124029 0)
(1.0474 0.0118908 0)
(1.04811 0.0114468 0)
(1.04873 0.0110652 0)
(1.04927 0.0107353 0)
(1.04974 0.0104466 0)
(1.05015 0.0101915 0)
(1.0505 0.00996494 0)
(1.0508 0.00976308 0)
(1.05105 0.00958289 0)
(1.05124 0.00942199 0)
(1.05139 0.00927857 0)
(1.05147 0.00915126 0)
(1.05151 0.00903908 0)
(1.05149 0.00894138 0)
(1.05141 0.00885781 0)
(1.05127 0.00878827 0)
(1.05107 0.00873292 0)
(1.0508 0.00869219 0)
(1.05048 0.00866677 0)
(1.05008 0.00865767 0)
(1.04962 0.00866622 0)
(1.04909 0.0086941 0)
(1.04848 0.00874343 0)
(1.0478 0.00881664 0)
(1.04704 0.00891701 0)
(1.0462 0.00904775 0)
(1.04528 0.00921408 0)
(1.04427 0.0094199 0)
(1.04316 0.00967388 0)
(1.04196 0.00998033 0)
(1.04065 0.0103539 0)
(1.03923 0.010799 0)
(1.03769 0.0113396 0)
(1.03602 0.0119825 0)
(1.03422 0.0127621 0)
(1.03226 0.0136992 0)
(1.03015 0.0148331 0)
(1.02788 0.0162326 0)
(1.02545 0.0179363 0)
(1.02289 0.0201091 0)
(1.02034 0.022851 0)
(1.00157 0.0166079 0)
(1.01977 0.0244018 0)
(1.033 0.0193462 0)
(1.03724 0.0167246 0)
(1.03869 0.0158712 0)
(1.04037 0.0147812 0)
(1.04203 0.0136851 0)
(1.04328 0.012894 0)
(1.04423 0.0123068 0)
(1.04503 0.0118097 0)
(1.04572 0.0113765 0)
(1.04633 0.011003 0)
(1.04686 0.0106801 0)
(1.04732 0.0103976 0)
(1.04772 0.0101482 0)
(1.04807 0.00992705 0)
(1.04837 0.00973033 0)
(1.04862 0.00955521 0)
(1.04883 0.00939943 0)
(1.049 0.00926123 0)
(1.04912 0.00913934 0)
(1.04921 0.00903283 0)
(1.04925 0.00894111 0)
(1.04924 0.00886386 0)
(1.04919 0.00880103 0)
(1.0491 0.00875278 0)
(1.04896 0.00871958 0)
(1.04877 0.00870214 0)
(1.04853 0.00870152 0)
(1.04824 0.00871905 0)
(1.04789 0.00875648 0)
(1.04749 0.00881599 0)
(1.04703 0.00890005 0)
(1.04651 0.00901204 0)
(1.04592 0.00915525 0)
(1.04527 0.00933496 0)
(1.04454 0.00955529 0)
(1.04374 0.00982477 0)
(1.04286 0.0101483 0)
(1.04189 0.0105398 0)
(1.04083 0.0110054 0)
(1.03967 0.0115668 0)
(1.03841 0.0122341 0)
(1.03704 0.0130381 0)
(1.03556 0.0140034 0)
(1.03396 0.015167 0)
(1.03225 0.0165938 0)
(1.03046 0.0183321 0)
(1.02861 0.0205087 0)
(1.02688 0.0232375 0)
(1.00137 0.0151241 0)
(1.01786 0.0232676 0)
(1.03057 0.0188898 0)
(1.03498 0.0163328 0)
(1.03647 0.0155731 0)
(1.03811 0.014607 0)
(1.03976 0.013558 0)
(1.04102 0.0127802 0)
(1.04196 0.0122086 0)
(1.04275 0.0117272 0)
(1.04343 0.0113053 0)
(1.04402 0.0109403 0)
(1.04454 0.0106246 0)
(1.04499 0.0103485 0)
(1.04538 0.010105 0)
(1.04571 0.00988908 0)
(1.046 0.00969734 0)
(1.04625 0.00952699 0)
(1.04646 0.00937586 0)
(1.04662 0.0092423 0)
(1.04675 0.00912508 0)
(1.04684 0.00902334 0)
(1.0469 0.00893655 0)
(1.04692 0.00886444 0)
(1.0469 0.00880699 0)
(1.04684 0.00876441 0)
(1.04674 0.0087372 0)
(1.04661 0.00872611 0)
(1.04643 0.00873221 0)
(1.04622 0.00875691 0)
(1.04596 0.00880198 0)
(1.04565 0.00886967 0)
(1.0453 0.00896252 0)
(1.04489 0.00908398 0)
(1.04444 0.00923743 0)
(1.04393 0.00942818 0)
(1.04335 0.00966055 0)
(1.04272 0.00994291 0)
(1.04202 0.0102807 0)
(1.04125 0.0106872 0)
(1.0404 0.0111696 0)
(1.03947 0.0117482 0)
(1.03846 0.0124352 0)
(1.03737 0.0132589 0)
(1.03619 0.0142456 0)
(1.03493 0.0154316 0)
(1.0336 0.0168758 0)
(1.03224 0.018634 0)
(1.03088 0.0208 0)
(1.02971 0.02349 0)
(1.00119 0.013747 0)
(1.01609 0.0221362 0)
(1.02825 0.0184343 0)
(1.0328 0.0159486 0)
(1.03435 0.0152656 0)
(1.03595 0.0144228 0)
(1.03758 0.0134275 0)
(1.03884 0.0126646 0)
(1.03979 0.0121083 0)
(1.04056 0.011643 0)
(1.04123 0.0112333 0)
(1.04181 0.0108771 0)
(1.04232 0.0105688 0)
(1.04275 0.0102994 0)
(1.04313 0.0100618 0)
(1.04346 0.00985136 0)
(1.04373 0.00966468 0)
(1.04397 0.00949912 0)
(1.04417 0.00935261 0)
(1.04432 0.00922357 0)
(1.04445 0.00911083 0)
(1.04453 0.0090136 0)
(1.04458 0.00893139 0)
(1.0446 0.00886397 0)
(1.04459 0.00881137 0)
(1.04454 0.00877384 0)
(1.04445 0.0087519 0)
(1.04433 0.00874635 0)
(1.04418 0.00875829 0)
(1.04399 0.00878919 0)
(1.04376 0.00884085 0)
(1.04349 0.00891561 0)
(1.04318 0.00901604 0)
(1.04283 0.00914567 0)
(1.04243 0.00930797 0)
(1.04199 0.00950826 0)
(1.04149 0.00975105 0)
(1.04094 0.0100445 0)
(1.04033 0.0103946 0)
(1.03966 0.0108138 0)
(1.03893 0.0113107 0)
(1.03813 0.0119037 0)
(1.03727 0.012607 0)
(1.03634 0.0134466 0)
(1.03534 0.0144496 0)
(1.03429 0.0156521 0)
(1.03319 0.0171059 0)
(1.03211 0.0188717 0)
(1.03107 0.0210162 0)
(1.03028 0.0236498 0)
(1.00104 0.0124743 0)
(1.01445 0.0210121 0)
(1.02604 0.0179761 0)
(1.03071 0.0155728 0)
(1.03232 0.0149507 0)
(1.03388 0.0142282 0)
(1.03549 0.013293 0)
(1.03676 0.0125472 0)
(1.0377 0.0120058 0)
(1.03846 0.0115571 0)
(1.03912 0.0111601 0)
(1.0397 0.0108133 0)
(1.04019 0.0105127 0)
(1.04061 0.0102502 0)
(1.04098 0.0100188 0)
(1.04129 0.00981393 0)
(1.04156 0.00963244 0)
(1.04179 0.0094718 0)
(1.04197 0.00933001 0)
(1.04212 0.00920555 0)
(1.04223 0.00909733 0)
(1.04231 0.0090046 0)
(1.04235 0.00892692 0)
(1.04236 0.00886411 0)
(1.04234 0.00881623 0)
(1.04229 0.00878357 0)
(1.0422 0.00876668 0)
(1.04208 0.00876638 0)
(1.04193 0.00878382 0)
(1.04175 0.00882051 0)
(1.04152 0.00887831 0)
(1.04127 0.00895959 0)
(1.04097 0.00906702 0)
(1.04064 0.00920416 0)
(1.04026 0.00937458 0)
(1.03984 0.00958357 0)
(1.03938 0.00983586 0)
(1.03887 0.0101394 0)
(1.0383 0.0105006 0)
(1.03768 0.0109313 0)
(1.03701 0.0114408 0)
(1.03628 0.0120466 0)
(1.0355 0.0127636 0)
(1.03466 0.0136166 0)
(1.03377 0.0146321 0)
(1.03284 0.0158464 0)
(1.03189 0.0173043 0)
(1.03098 0.0190683 0)
(1.03015 0.0211833 0)
(1.02958 0.023749 0)
(1.0009 0.0113031 0)
(1.01294 0.0198995 0)
(1.02394 0.0175123 0)
(1.02871 0.0152059 0)
(1.03038 0.0146303 0)
(1.0319 0.014023 0)
(1.03349 0.0131541 0)
(1.03476 0.012428 0)
(1.0357 0.0119012 0)
(1.03646 0.0114692 0)
(1.03711 0.0110858 0)
(1.03767 0.0107488 0)
(1.03815 0.0104562 0)
(1.03857 0.0102008 0)
(1.03892 0.00997575 0)
(1.03923 0.00977673 0)
(1.03948 0.00960062 0)
(1.0397 0.00944504 0)
(1.03988 0.0093081 0)
(1.04001 0.00918835 0)
(1.04012 0.00908475 0)
(1.04018 0.00899662 0)
(1.04022 0.00892355 0)
(1.04022 0.0088654 0)
(1.04019 0.00882228 0)
(1.04013 0.0087945 0)
(1.04004 0.00878264 0)
(1.03992 0.00878756 0)
(1.03976 0.00881043 0)
(1.03957 0.00885282 0)
(1.03935 0.00891661 0)
(1.03909 0.00900426 0)
(1.0388 0.00911847 0)
(1.03847 0.00926285 0)
(1.0381 0.00944107 0)
(1.03769 0.0096584 0)
(1.03724 0.00991972 0)
(1.03674 0.0102328 0)
(1.03619 0.0106044 0)
(1.0356 0.0110458 0)
(1.03496 0.0115669 0)
(1.03426 0.0121844 0)
(1.03352 0.0129134 0)
(1.03273 0.013778 0)
(1.0319 0.0148033 0)
(1.03105 0.0160259 0)
(1.0302 0.0174837 0)
(1.0294 0.0192387 0)
(1.02871 0.0213189 0)
(1.02829 0.0238101 0)
(1.00078 0.0102299 0)
(1.01156 0.0188029 0)
(1.02196 0.01704 0)
(1.02679 0.0148481 0)
(1.02854 0.0143066 0)
(1.03002 0.0138072 0)
(1.03158 0.0130101 0)
(1.03285 0.0123068 0)
(1.03379 0.0117946 0)
(1.03454 0.0113794 0)
(1.03518 0.0110102 0)
(1.03574 0.0106835 0)
(1.03621 0.0103992 0)
(1.03662 0.0101511 0)
(1.03696 0.00993272 0)
(1.03726 0.00973972 0)
(1.0375 0.00956916 0)
(1.03771 0.00941881 0)
(1.03788 0.00928687 0)
(1.038 0.00917196 0)
(1.0381 0.00907311 0)
(1.03816 0.00898969 0)
(1.03818 0.00892134 0)
(1.03818 0.00886797 0)
(1.03814 0.0088297 0)
(1.03807 0.00880689 0)
(1.03797 0.00880013 0)
(1.03784 0.00881033 0)
(1.03768 0.00883868 0)
(1.03749 0.0088868 0)
(1.03726 0.00895661 0)
(1.037 0.00905061 0)
(1.0367 0.00917158 0)
(1.03637 0.00932315 0)
(1.03601 0.00950908 0)
(1.0356 0.0097346 0)
(1.03515 0.0100048 0)
(1.03466 0.0103271 0)
(1.03412 0.0107087 0)
(1.03354 0.0111605 0)
(1.03292 0.0116926 0)
(1.03225 0.0123209 0)
(1.03153 0.0130608 0)
(1.03078 0.0139355 0)
(1.02999 0.0149688 0)
(1.02919 0.0161967 0)
(1.0284 0.0176513 0)
(1.02768 0.0193917 0)
(1.02708 0.021433 0)
(1.02676 0.0238468 0)
(1.00067 0.00925068 0)
(1.0103 0.0177268 0)
(1.02009 0.0165571 0)
(1.02495 0.0144989 0)
(1.02678 0.0139817 0)
(1.02823 0.0135811 0)
(1.02976 0.0128603 0)
(1.03103 0.0121837 0)
(1.03197 0.0116858 0)
(1.03272 0.0112875 0)
(1.03335 0.0109331 0)
(1.03389 0.0106173 0)
(1.03436 0.0103417 0)
(1.03475 0.0101011 0)
(1.03509 0.00988961 0)
(1.03538 0.00970283 0)
(1.03562 0.00953801 0)
(1.03581 0.00939305 0)
(1.03597 0.00926626 0)
(1.03609 0.00915634 0)
(1.03618 0.00906238 0)
(1.03623 0.0089838 0)
(1.03625 0.0089203 0)
(1.03623 0.00887182 0)
(1.03619 0.00883852 0)
(1.03611 0.00882078 0)
(1.03601 0.00881923 0)
(1.03587 0.00883481 0)
(1.0357 0.00886873 0)
(1.0355 0.00892265 0)
(1.03527 0.00899855 0)
(1.03501 0.00909897 0)
(1.03471 0.00922674 0)
(1.03438 0.00938553 0)
(1.03401 0.00957917 0)
(1.0336 0.00981286 0)
(1.03316 0.0100918 0)
(1.03267 0.0104233 0)
(1.03214 0.0108147 0)
(1.03157 0.0112765 0)
(1.03095 0.0118191 0)
(1.0303 0.0124577 0)
(1.0296 0.0132076 0)
(1.02887 0.0140914 0)
(1.02812 0.015131 0)
(1.02737 0.0163618 0)
(1.02663 0.0178105 0)
(1.02597 0.019532 0)
(1.02544 0.0215317 0)
(1.02519 0.023867 0)
(1.00058 0.00836074 0)
(1.00915 0.0166755 0)
(1.01833 0.016062 0)
(1.0232 0.014158 0)
(1.02511 0.0136574 0)
(1.02653 0.0133452 0)
(1.02802 0.0127041 0)
(1.02929 0.0120582 0)
(1.03024 0.0115752 0)
(1.03098 0.0111935 0)
(1.0316 0.0108544 0)
(1.03214 0.0105502 0)
(1.0326 0.0102835 0)
(1.03298 0.0100508 0)
(1.03331 0.00984635 0)
(1.03359 0.00966601 0)
(1.03382 0.00950712 0)
(1.03401 0.00936773 0)
(1.03416 0.00924624 0)
(1.03427 0.00914146 0)
(1.03435 0.00905253 0)
(1.03439 0.00897892 0)
(1.03441 0.00892039 0)
(1.03439 0.00887693 0)
(1.03434 0.00884871 0)
(1.03425 0.00883617 0)
(1.03414 0.00883994 0)
(1.034 0.00886099 0)
(1.03383 0.00890059 0)
(1.03362 0.00896041 0)
(1.03339 0.00904249 0)
(1.03312 0.0091494 0)
(1.03282 0.00928404 0)
(1.03249 0.00945009 0)
(1.03212 0.00965148 0)
(1.03171 0.00989335 0)
(1.03126 0.010181 0)
(1.03078 0.0105217 0)
(1.03026 0.0109226 0)
(1.02969 0.0113943 0)
(1.02909 0.0119469 0)
(1.02845 0.0125953 0)
(1.02777 0.0133544 0)
(1.02707 0.0142461 0)
(1.02635 0.0152907 0)
(1.02563 0.0165221 0)
(1.02494 0.0179625 0)
(1.02434 0.0196618 0)
(1.02387 0.0216178 0)
(1.02368 0.0238749 0)
(1.0005 0.00755508 0)
(1.00812 0.0156531 0)
(1.01668 0.0155535 0)
(1.02154 0.0138241 0)
(1.02352 0.0133355 0)
(1.02492 0.0131005 0)
(1.02637 0.012541 0)
(1.02764 0.0119303 0)
(1.02859 0.0114625 0)
(1.02932 0.0110972 0)
(1.02994 0.010774 0)
(1.03047 0.0104819 0)
(1.03092 0.0102246 0)
(1.0313 0.00999998 0)
(1.03162 0.00980286 0)
(1.03189 0.00962918 0)
(1.03212 0.00947643 0)
(1.0323 0.00934277 0)
(1.03244 0.00922676 0)
(1.03255 0.00912726 0)
(1.03262 0.0090435 0)
(1.03266 0.008975 0)
(1.03266 0.00892158 0)
(1.03263 0.00888326 0)
(1.03258 0.00886025 0)
(1.03249 0.00885301 0)