/*--------------------------------*- C++ -*----------------------------------*\
  =========                 |
  \\      /  F ield         | OpenFOAM: The Open Source CFD Toolbox
   \\    /   O peration     | Website:  https://openfoam.org
    \\  /    A nd           | Version:  7
     \\/     M anipulation  |
\*---------------------------------------------------------------------------*/
FoamFile
{
    version     2.0;
    format      ascii;
    class       volVectorField;
    location    "0.14";
    object      U_0;
}
// * * * * * * * * * * * * * * * * * * * * * * * * * * * * * * * * * * * * * //

dimensions      [0 1 -1 0 0 0 0];

internalField   nonuniform List<vector> 
70000
(
(0.553386 0.0167234 0)
(0.251233 0.00340151 0)
(0.166138 0.000322543 0)
(0.132352 5.47292e-05 0)
(0.117119 4.61649e-05 0)
(0.107149 5.43551e-05 0)
(0.0991518 4.67404e-05 0)
(0.0926599 3.74299e-05 0)
(0.0873611 3.11497e-05 0)
(0.0829351 2.68588e-05 0)
(0.0791538 2.35986e-05 0)
(0.0758693 2.09962e-05 0)
(0.0729802 1.88826e-05 0)
(0.0704124 1.71453e-05 0)
(0.0681096 1.57014e-05 0)
(0.0660281 1.44896e-05 0)
(0.0641335 1.34647e-05 0)
(0.0623981 1.2593e-05 0)
(0.0607993 1.18487e-05 0)
(0.0593185 1.12123e-05 0)
(0.0579401 1.06686e-05 0)
(0.0566509 1.02059e-05 0)
(0.0554395 9.81515e-06 0)
(0.0542959 9.48968e-06 0)
(0.0532117 9.22434e-06 0)
(0.0521788 9.0159e-06 0)
(0.0511905 8.86158e-06 0)
(0.0502402 8.76144e-06 0)
(0.049322 8.71345e-06 0)
(0.0484302 8.72227e-06 0)
(0.0475595 8.78384e-06 0)
(0.0467044 8.91139e-06 0)
(0.0458601 9.09314e-06 0)
(0.0450206 9.35927e-06 0)
(0.0441813 9.6799e-06 0)
(0.0433354 1.01156e-05 0)
(0.042478 1.06067e-05 0)
(0.0416016 1.12508e-05 0)
(0.0406989 1.19739e-05 0)
(0.0397646 1.28496e-05 0)
(0.0387816 1.39533e-05 0)
(0.0377594 1.49776e-05 0)
(0.036645 1.68819e-05 0)
(0.0355067 1.75567e-05 0)
(0.0341756 2.15302e-05 0)
(0.0329135 1.99512e-05 0)
(0.0311981 2.99696e-05 0)
(0.0298695 1.95711e-05 0)
(0.0275035 4.93717e-05 0)
(0.0244414 -0.000975278 0)
(0.884897 0.0431689 0)
(0.649672 0.0201974 0)
(0.494199 0.0066028 0)
(0.403448 0.00277268 0)
(0.354419 0.0015576 0)
(0.323002 0.00113773 0)
(0.299018 0.000917029 0)
(0.279688 0.000753601 0)
(0.263834 0.000631226 0)
(0.250564 0.000540949 0)
(0.239228 0.000472529 0)
(0.229385 0.000418793 0)
(0.22073 0.000375477 0)
(0.213039 0.00033993 0)
(0.206144 0.000310354 0)
(0.199914 0.000285465 0)
(0.194247 0.000264321 0)
(0.189061 0.000246219 0)
(0.184287 0.000230628 0)
(0.17987 0.00021714 0)
(0.175764 0.000205439 0)
(0.17193 0.000195279 0)
(0.168333 0.000186469 0)
(0.164946 0.000178857 0)
(0.161741 0.000172327 0)
(0.158697 0.000166792 0)
(0.155792 0.000162184 0)
(0.153009 0.00015846 0)
(0.15033 0.000155589 0)
(0.14774 0.000153568 0)
(0.145222 0.000152392 0)
(0.142762 0.000152103 0)
(0.140347 0.000152705 0)
(0.13796 0.000154319 0)
(0.135588 0.000156921 0)
(0.133214 0.000160778 0)
(0.130824 0.000165759 0)
(0.128398 0.000172416 0)
(0.125918 0.000180372 0)
(0.123368 0.000190661 0)
(0.120706 0.000202536 0)
(0.117954 0.000217585 0)
(0.114974 0.000235049 0)
(0.111945 0.000256052 0)
(0.108422 0.000282691 0)
(0.105088 0.000309556 0)
(0.100587 0.000356113 0)
(0.0970636 0.000371203 0)
(0.0908853 0.000574683 0)
(0.0849678 -0.00127347 0)
(0.991238 0.0499043 0)
(0.890313 0.0307262 0)
(0.762562 0.0146085 0)
(0.656428 0.0079925 0)
(0.58496 0.00489932 0)
(0.535396 0.00348721 0)
(0.497352 0.00275329 0)
(0.46654 0.00226244 0)
(0.441018 0.0019007 0)
(0.419487 0.00163045 0)
(0.401002 0.00142432 0)
(0.384896 0.00126235 0)
(0.370695 0.00113182 0)
(0.358049 0.00102463 0)
(0.346692 0.000935355 0)
(0.336419 0.000860123 0)
(0.327064 0.000796108 0)
(0.318496 0.000741199 0)
(0.310607 0.000693798 0)
(0.303308 0.000652677 0)
(0.296523 0.000616885 0)
(0.29019 0.000585677 0)
(0.284253 0.000558471 0)
(0.278666 0.000534806 0)
(0.273388 0.000514324 0)
(0.26838 0.000496748 0)
(0.263612 0.000481868 0)
(0.259053 0.000469533 0)
(0.254675 0.000459645 0)
(0.250453 0.000452158 0)
(0.246364 0.000447056 0)
(0.242383 0.000444408 0)
(0.23849 0.000444256 0)
(0.234659 0.000446836 0)
(0.230872 0.000452178 0)
(0.2271 0.000460846 0)
(0.223324 0.000472662 0)
(0.219514 0.000488901 0)
(0.215641 0.000508714 0)
(0.211685 0.000534895 0)
(0.207579 0.000564971 0)
(0.203358 0.000604751 0)
(0.198821 0.000648609 0)
(0.19422 0.000707351 0)
(0.188921 0.000771405 0)
(0.183885 0.000855373 0)
(0.177199 0.00095909 0)
(0.171834 0.00104062 0)
(0.162748 0.00141276 0)
(0.155448 -0.000372636 0)
(1.0156 0.0489241 0)
(1.00594 0.035886 0)
(0.935856 0.0208094 0)
(0.851905 0.0135265 0)
(0.78181 0.00923334 0)
(0.72643 0.00680989 0)
(0.681142 0.00541523 0)
(0.643158 0.00447901 0)
(0.610891 0.00378809 0)
(0.583156 0.00326497 0)
(0.559017 0.00286126 0)
(0.53777 0.00254183 0)
(0.518887 0.0022832 0)
(0.501965 0.00207002 0)
(0.486691 0.00189184 0)
(0.472815 0.00174119 0)
(0.460138 0.00161262 0)
(0.448493 0.00150201 0)
(0.437747 0.00140623 0)
(0.427786 0.00132289 0)
(0.418515 0.0012501 0)
(0.409851 0.0011864 0)
(0.401725 0.00113062 0)
(0.394076 0.00108185 0)
(0.386848 0.00103936 0)
(0.379996 0.0010026 0)
(0.373475 0.00097112 0)
(0.367246 0.000944613 0)
(0.361275 0.000922863 0)
(0.355526 0.000905743 0)
(0.349971 0.000893217 0)
(0.344577 0.000885354 0)
(0.339318 0.000882255 0)
(0.334162 0.00088427 0)
(0.329084 0.00089153 0)
(0.324049 0.00090493 0)
(0.319033 0.0009243 0)
(0.313997 0.000951785 0)
(0.308907 0.000985992 0)
(0.303734 0.00103204 0)
(0.298402 0.00108504 0)
(0.292943 0.00115693 0)
(0.287126 0.00123444 0)
(0.281232 0.00134392 0)
(0.274536 0.00145525 0)
(0.268108 0.00161914 0)
(0.259807 0.00179292 0)
(0.252876 0.00198277 0)
(0.241794 0.0024988 0)
(0.233169 0.00116143 0)
(1.01434 0.0460081 0)
(1.04752 0.0375023 0)
(1.02451 0.0241753 0)
(0.974589 0.0175905 0)
(0.923133 0.0131594 0)
(0.876182 0.0102483 0)
(0.833811 0.00838968 0)
(0.795827 0.00707333 0)
(0.762001 0.00606801 0)
(0.731898 0.00528478 0)
(0.705009 0.00466681 0)
(0.680864 0.00416998 0)
(0.659066 0.00376292 0)
(0.639285 0.00342422 0)
(0.621245 0.00313889 0)
(0.604716 0.00289605 0)
(0.589506 0.00268757 0)
(0.575452 0.00250727 0)
(0.562416 0.00235041 0)
(0.550281 0.00221329 0)
(0.538946 0.002093 0)
(0.528321 0.00198725 0)
(0.518332 0.00189421 0)
(0.508909 0.00181243 0)
(0.499994 0.00174078 0)
(0.491531 0.00167832 0)
(0.483472 0.00162438 0)
(0.475773 0.00157841 0)
(0.468393 0.00154006 0)
(0.461293 0.0015091 0)
(0.454438 0.00148545 0)
(0.447792 0.00146918 0)
(0.441324 0.00146045 0)
(0.434998 0.00145973 0)
(0.428785 0.00146727 0)
(0.422646 0.00148431 0)
(0.416551 0.00151076 0)
(0.410458 0.00154968 0)
(0.404329 0.00159917 0)
(0.398128 0.0016669 0)
(0.391775 0.00174543 0)
(0.385294 0.00185353 0)
(0.378451 0.00196951 0)
(0.371509 0.0021372 0)
(0.363753 0.00230397 0)
(0.3562 0.00256003 0)
(0.346785 0.00281805 0)
(0.33852 0.00313956 0)
(0.326292 0.00380319 0)
(0.316085 0.00297596 0)
(1.00933 0.0429199 0)
(1.05526 0.0372795 0)
(1.05864 0.025324 0)
(1.03624 0.0197977 0)
(1.00686 0.015859 0)
(0.975655 0.0129914 0)
(0.943937 0.0110228 0)
(0.912844 0.0095479 0)
(0.88323 0.00836435 0)
(0.855484 0.00740303 0)
(0.829686 0.0066191 0)
(0.805777 0.00597254 0)
(0.783637 0.00543205 0)
(0.763125 0.00497497 0)
(0.744096 0.00458472 0)
(0.726411 0.0042488 0)
(0.709939 0.00395762 0)
(0.694563 0.00370367 0)
(0.680175 0.00348108 0)
(0.666679 0.00328518 0)
(0.653989 0.00311225 0)
(0.642029 0.00295933 0)
(0.630728 0.00282401 0)
(0.620024 0.00270438 0)
(0.609859 0.0025989 0)
(0.600182 0.00250635 0)
(0.590945 0.00242579 0)
(0.582103 0.00235649 0)
(0.573614 0.00229795 0)
(0.565441 0.00224984 0)
(0.557545 0.00221206 0)
(0.54989 0.00218467 0)
(0.542444 0.00216791 0)
(0.535167 0.00216236 0)
(0.52803 0.00216845 0)
(0.520992 0.00218776 0)
(0.514021 0.00222032 0)
(0.507072 0.00227012 0)
(0.500107 0.00233489 0)
(0.493082 0.00242477 0)
(0.485925 0.00253011 0)
(0.478639 0.00267612 0)
(0.471015 0.00283391 0)
(0.463262 0.00306289 0)
(0.45475 0.00329231 0)
(0.446322 0.00364417 0)
(0.436214 0.00400193 0)
(0.426862 0.00446102 0)
(0.41413 0.0052971 0)
(0.402485 0.00496813 0)
(1.00625 0.0400389 0)
(1.05205 0.0363535 0)
(1.06605 0.0252563 0)
(1.0595 0.020603 0)
(1.04669 0.0172942 0)
(1.03049 0.0147226 0)
(1.01143 0.0128969 0)
(0.990549 0.0114819 0)
(0.968906 0.0102948 0)
(0.947233 0.0092881 0)
(0.925978 0.00843636 0)
(0.905405 0.00771178 0)
(0.885663 0.00709008 0)
(0.866823 0.00655258 0)
(0.848906 0.00608499 0)
(0.8319 0.005676 0)
(0.815774 0.00531655 0)
(0.800486 0.00499929 0)
(0.785988 0.00471824 0)
(0.772231 0.00446856 0)
(0.759163 0.00424628 0)
(0.746735 0.00404818 0)
(0.7349 0.00387161 0)
(0.723612 0.00371443 0)
(0.712829 0.00357491 0)
(0.702508 0.00345165 0)
(0.69261 0.00334357 0)
(0.683098 0.00324984 0)
(0.673936 0.00316989 0)
(0.665088 0.00310335 0)
(0.656521 0.00305015 0)
(0.648202 0.00301035 0)
(0.640098 0.00298434 0)
(0.632174 0.00297282 0)
(0.6244 0.00297644 0)
(0.616735 0.00299712 0)
(0.609151 0.00303509 0)
(0.6016 0.00309521 0)
(0.594047 0.00317508 0)
(0.586444 0.00328694 0)
(0.578726 0.00341979 0)
(0.570879 0.00360391 0)
(0.562731 0.00380586 0)
(0.554418 0.00409622 0)
(0.545437 0.00439435 0)
(0.536405 0.00484023 0)
(0.525949 0.00531126 0)
(0.515825 0.00590695 0)
(0.502997 0.00693199 0)
(0.490402 0.00709496 0)
(1.00495 0.0373615 0)
(1.04726 0.0352729 0)
(1.06393 0.024719 0)
(1.06417 0.0206337 0)
(1.06053 0.0178385 0)
(1.0545 0.0155745 0)
(1.04562 0.0139663 0)
(1.03427 0.0127192 0)
(1.02116 0.011646 0)
(1.0069 0.0107055 0)
(0.991955 0.00988437 0)
(0.976668 0.00916523 0)
(0.961309 0.00853149 0)
(0.946076 0.0079702 0)
(0.931104 0.00747129 0)
(0.916487 0.0070265 0)
(0.902286 0.00662893 0)
(0.888535 0.00627272 0)
(0.875251 0.00595295 0)
(0.862438 0.00566548 0)
(0.850092 0.00540681 0)
(0.8382 0.00517403 0)
(0.826747 0.00496473 0)
(0.815713 0.00477689 0)
(0.805077 0.00460888 0)
(0.794814 0.00445939 0)
(0.784902 0.00432738 0)
(0.775315 0.00421208 0)
(0.766029 0.00411299 0)
(0.757016 0.00402981 0)
(0.748253 0.00396257 0)
(0.739709 0.00391145 0)
(0.731361 0.00387699 0)
(0.723177 0.00386011 0)
(0.715132 0.00386171 0)
(0.707188 0.00388407 0)
(0.699319 0.00392774 0)
(0.691482 0.00399831 0)
(0.683645 0.00409358 0)
(0.675757 0.00422739 0)
(0.667768 0.00438839 0)
(0.659644 0.00461026 0)
(0.651254 0.00485808 0)
(0.642668 0.00520837 0)
(0.633508 0.00557961 0)
(0.624177 0.00611557 0)
(0.613677 0.00670815 0)
(0.603159 0.00744003 0)
(0.590525 0.00865493 0)
(0.577544 0.00929759 0)
(1.0044 0.0348141 0)
(1.04322 0.0342012 0)
(1.0599 0.0240804 0)
(1.0622 0.0203435 0)
(1.06236 0.0179077 0)
(1.06159 0.0158629 0)
(1.05892 0.0144305 0)
(1.05425 0.0133514 0)
(1.04787 0.0124234 0)
(1.04012 0.011598 0)
(1.03126 0.0108644 0)
(1.02155 0.0102092 0)
(1.01121 0.00961978 0)
(1.00045 0.00908673 0)
(0.989437 0.00860331 0)
(0.978289 0.00816417 0)
(0.967118 0.00776475 0)
(0.956002 0.00740114 0)
(0.945005 0.00706993 0)
(0.93417 0.00676821 0)
(0.923531 0.00649344 0)
(0.91311 0.00624347 0)
(0.90292 0.00601648 0)
(0.892968 0.00581093 0)
(0.883256 0.00562559 0)
(0.873782 0.00545946 0)
(0.86454 0.0053118 0)
(0.855519 0.00518205 0)
(0.84671 0.00506997 0)
(0.838098 0.00497543 0)
(0.829667 0.00489869 0)
(0.8214 0.00484016 0)
(0.813279 0.00480063 0)
(0.80528 0.00478126 0)
(0.797385 0.00478329 0)
(0.789562 0.00480939 0)
(0.781792 0.00486051 0)
(0.774033 0.0049429 0)
(0.766263 0.00505483 0)
(0.758431 0.00521127 0)
(0.750498 0.00540146 0)
(0.742422 0.00566083 0)
(0.734103 0.00595584 0)
(0.725564 0.00636422 0)
(0.716531 0.00681104 0)
(0.70724 0.00743301 0)
(0.696995 0.00814951 0)
(0.686487 0.00901833 0)
(0.674324 0.0104142 0)
(0.661484 0.0115074 0)
(1.00402 0.0323745 0)
(1.03989 0.0331526 0)
(1.05612 0.0234598 0)
(1.05884 0.0199589 0)
(1.06008 0.0177821 0)
(1.06137 0.0158734 0)
(1.06166 0.0145438 0)
(1.06066 0.0135816 0)
(1.05848 0.0127721 0)
(1.0552 0.0120552 0)
(1.05094 0.0114175 0)
(1.04578 0.0108453 0)
(1.03987 0.0103258 0)
(1.03332 0.00985028 0)
(1.02625 0.00941315 0)
(1.01878 0.00901036 0)
(1.01099 0.00863875 0)
(1.00298 0.00829572 0)
(0.994817 0.0079791 0)
(0.986556 0.00768705 0)
(0.978249 0.00741799 0)
(0.969938 0.00717059 0)
(0.961653 0.00694374 0)
(0.953421 0.00673653 0)
(0.94526 0.00654826 0)
(0.937184 0.00637838 0)
(0.929201 0.00622658 0)
(0.921318 0.00609268 0)
(0.913534 0.00597676 0)
(0.905848 0.00587904 0)
(0.898256 0.00580008 0)
(0.89075 0.00574058 0)
(0.88332 0.00570168 0)
(0.875951 0.00568486 0)
(0.868633 0.00569174 0)
(0.861341 0.00572541 0)
(0.854062 0.00578732 0)
(0.846763 0.00588427 0)
(0.839425 0.00601523 0)
(0.832006 0.00619594 0)
(0.824474 0.00641691 0)
(0.816785 0.00671405 0)
(0.808867 0.00705733 0)
(0.80071 0.00752213 0)
(0.792122 0.00804517 0)
(0.783221 0.0087495 0)
(0.773536 0.00958752 0)
(0.763439 0.0105932 0)
(0.75204 0.0121563 0)
(0.739822 0.0136559 0)
(1.00364 0.0300347 0)
(1.03691 0.0321067 0)
(1.05278 0.0228726 0)
(1.0556 0.0195573 0)
(1.05699 0.0175947 0)
(1.05883 0.0157791 0)
(1.06019 0.0144983 0)
(1.06079 0.0136006 0)
(1.06069 0.0128665 0)
(1.05991 0.012226 0)
(1.05846 0.011663 0)
(1.05634 0.0111624 0)
(1.05358 0.01071 0)
(1.05024 0.010296 0)
(1.04638 0.00991398 0)
(1.04204 0.00955997 0)
(1.03729 0.00923097 0)
(1.0322 0.00892474 0)
(1.02681 0.00863961 0)
(1.02117 0.00837425 0)
(1.01534 0.00812766 0)
(1.00935 0.00789906 0)
(1.00323 0.00768787 0)
(0.997027 0.00749368 0)
(0.990752 0.00731626 0)
(0.98443 0.0071555 0)
(0.978079 0.0070115 0)
(0.971711 0.00688445 0)
(0.965338 0.00677485 0)
(0.958964 0.00668323 0)
(0.952594 0.00661053 0)
(0.946228 0.0065578 0)
(0.939863 0.00652653 0)
(0.933493 0.00651857 0)
(0.927111 0.00653595 0)
(0.920705 0.0065822 0)
(0.914263 0.00665927 0)
(0.907762 0.0067745 0)
(0.901188 0.00692768 0)
(0.894507 0.00713499 0)
(0.887694 0.00738873 0)
(0.88071 0.00772431 0)
(0.8735 0.00811662 0)
(0.866041 0.00863634 0)
(0.858197 0.00923464 0)
(0.850013 0.0100178 0)
(0.84118 0.0109714 0)
(0.831864 0.0121114 0)
(0.821517 0.0138253 0)
(0.810343 0.0156769 0)
(1.00327 0.0277956 0)
(1.03408 0.0310496 0)
(1.04966 0.022312 0)
(1.05264 0.0191537 0)
(1.05399 0.0173886 0)
(1.05588 0.0156556 0)
(1.05752 0.0143979 0)
(1.05865 0.0135317 0)
(1.05937 0.0128396 0)
(1.05971 0.0122442 0)
(1.05966 0.0117281 0)
(1.05921 0.0112763 0)
(1.05832 0.0108734 0)
(1.05702 0.0105083 0)
(1.05531 0.0101738 0)
(1.05321 0.00986509 0)
(1.05075 0.00957866 0)
(1.04794 0.00931203 0)
(1.04482 0.00906337 0)
(1.04143 0.00883139 0)
(1.03778 0.00861517 0)
(1.03391 0.00841409 0)
(1.02984 0.00822781 0)
(1.0256 0.00805615 0)
(1.02121 0.00789914 0)
(1.01669 0.00775696 0)
(1.01205 0.00762999 0)
(1.00732 0.00751874 0)
(1.00251 0.00742398 0)
(0.997617 0.00734658 0)
(0.992657 0.00728779 0)
(0.987633 0.00724897 0)
(0.982546 0.00723195 0)
(0.977396 0.00723897 0)
(0.972181 0.00727241 0)
(0.966892 0.00733625 0)
(0.961524 0.00743291 0)
(0.956061 0.00757022 0)
(0.950491 0.00774881 0)
(0.94479 0.0079851 0)
(0.938938 0.00827342 0)
(0.932903 0.00864802 0)
(0.926643 0.0090895 0)
(0.920131 0.00966239 0)
(0.913274 0.0103333 0)
(0.906072 0.0111914 0)
(0.898329 0.0122518 0)
(0.890091 0.0135202 0)
(0.881039 0.0153657 0)
(0.871243 0.0175094 0)
(1.00292 0.0256604 0)
(1.03137 0.0299769 0)
(1.04666 0.0217735 0)
(1.04985 0.0187482 0)
(1.05118 0.0171706 0)
(1.05303 0.0155252 0)
(1.0547 0.0142839 0)
(1.05595 0.0134345 0)
(1.0569 0.0127667 0)
(1.05764 0.0121965 0)
(1.05816 0.0117066 0)
(1.05845 0.0112831 0)
(1.05849 0.0109108 0)
(1.05828 0.010578 0)
(1.05779 0.0102768 0)
(1.05704 0.0100018 0)
(1.05603 0.00974894 0)
(1.05475 0.00951538 0)
(1.05322 0.00929892 0)
(1.05145 0.00909799 0)
(1.04945 0.00891152 0)
(1.04723 0.00873878 0)
(1.04482 0.00857939 0)
(1.04221 0.00843319 0)
(1.03943 0.00830027 0)
(1.03649 0.0081809 0)
(1.03341 0.0080756 0)
(1.03019 0.00798501 0)
(1.02684 0.0079101 0)
(1.02337 0.00785195 0)
(1.0198 0.00781202 0)
(1.01611 0.00779197 0)
(1.01233 0.00779385 0)
(1.00844 0.00782025 0)
(1.00445 0.00787383 0)
(1.00036 0.00795897 0)
(0.996151 0.00807851 0)
(0.991824 0.00824069 0)
(0.987367 0.00844696 0)
(0.982763 0.00871377 0)
(0.977996 0.00903759 0)
(0.973041 0.00945098 0)
(0.967867 0.0099406 0)
(0.962448 0.0105642 0)
(0.95672 0.0113033 0)
(0.950662 0.0122314 0)
(0.944157 0.0133873 0)
(0.937188 0.0147744 0)
(0.929584 0.0167303 0)
(0.921374 0.0191043 0)
(1.0026 0.0236319 0)
(1.02878 0.0288872 0)
(1.04374 0.0212561 0)
(1.04716 0.0183408 0)
(1.04849 0.0169392 0)
(1.05031 0.0153904 0)
(1.05197 0.0141676 0)
(1.05323 0.0133302 0)
(1.05422 0.0126798 0)
(1.05505 0.012126 0)
(1.05575 0.0116511 0)
(1.05631 0.0112435 0)
(1.05672 0.0108886 0)
(1.05698 0.0105747 0)
(1.05709 0.0102938 0)
(1.05703 0.0100403 0)
(1.0568 0.00981008 0)
(1.05639 0.0095998 0)
(1.05582 0.00940707 0)
(1.05506 0.00923009 0)
(1.05414 0.00906756 0)
(1.05304 0.0089186 0)
(1.05177 0.00878268 0)
(1.05035 0.00865955 0)
(1.04877 0.00854923 0)
(1.04704 0.00845197 0)
(1.04517 0.00836829 0)
(1.04316 0.00829889 0)
(1.04102 0.00824479 0)
(1.03875 0.00820718 0)
(1.03636 0.00818767 0)
(1.03385 0.00818807 0)
(1.03122 0.00821063 0)
(1.02848 0.00825817 0)
(1.02561 0.00833359 0)
(1.02263 0.00844157 0)
(1.01953 0.00858531 0)
(1.01629 0.00877333 0)
(1.01291 0.00900786 0)
(1.00939 0.00930514 0)
(1.0057 0.00966385 0)
(1.00183 0.0101145 0)
(0.99775 0.0106497 0)
(0.993444 0.0113203 0)
(0.988868 0.0121213 0)
(0.983993 0.0131131 0)
(0.978754 0.0143513 0)
(0.973115 0.0158436 0)
(0.966992 0.0178873 0)
(0.960431 0.0204313 0)
(1.0023 0.0217119 0)
(1.02632 0.0277815 0)
(1.04091 0.0207581 0)
(1.04455 0.0179328 0)
(1.04591 0.0166932 0)
(1.04769 0.0152498 0)
(1.04935 0.0140501 0)
(1.0506 0.0132238 0)
(1.05158 0.0125893 0)
(1.05242 0.0120492 0)
(1.05315 0.0115851 0)
(1.05377 0.0111875 0)
(1.0543 0.010843 0)
(1.05473 0.0105402 0)
(1.05507 0.0102712 0)
(1.0553 0.0100306 0)
(1.05543 0.00981414 0)
(1.05545 0.00961857 0)
(1.05536 0.00944136 0)
(1.05516 0.00928062 0)
(1.05484 0.00913492 0)
(1.0544 0.00900329 0)
(1.05384 0.00888507 0)
(1.05316 0.00877993 0)
(1.05236 0.00868781 0)
(1.05144 0.00860889 0)
(1.0504 0.00854365 0)
(1.04924 0.00849279 0)
(1.04798 0.00845732 0)
(1.0466 0.00843849 0)
(1.0451 0.00843796 0)
(1.0435 0.00845767 0)
(1.04178 0.00849995 0)
(1.03995 0.00856782 0)
(1.03801 0.00866432 0)
(1.03595 0.00879438 0)
(1.03377 0.00896147 0)
(1.03147 0.00917426 0)
(1.02903 0.00943572 0)
(1.02645 0.0097617 0)
(1.02371 0.010153 0)
(1.02081 0.0106378 0)
(1.01773 0.0112143 0)
(1.01444 0.011927 0)
(1.01093 0.0127821 0)
(1.00716 0.0138299 0)
(1.0031 0.015136 0)
(0.998716 0.0167169 0)
(0.993986 0.0188254 0)
(0.988988 0.0214828 0)
(1.00203 0.0199012 0)
(1.024 0.0266628 0)
(1.03818 0.0202763 0)
(1.04203 0.0175263 0)
(1.04341 0.0164326 0)
(1.04516 0.0151019 0)
(1.04682 0.0139308 0)
(1.04807 0.0131157 0)
(1.04904 0.012497 0)
(1.04986 0.0119705 0)
(1.05058 0.0115164 0)
(1.05121 0.0111269 0)
(1.05176 0.01079 0)
(1.05223 0.0104948 0)
(1.05264 0.0102336 0)
(1.05297 0.010001 0)
(1.05323 0.00979303 0)
(1.05343 0.00960655 0)
(1.05355 0.00943907 0)
(1.0536 0.0092887 0)
(1.05357 0.00915401 0)
(1.05346 0.00903399 0)
(1.05327 0.00892796 0)
(1.053 0.00883556 0)
(1.05264 0.00875667 0)
(1.0522 0.00869145 0)
(1.05166 0.00864035 0)
(1.05104 0.00860402 0)
(1.05034 0.00858351 0)
(1.04954 0.00858008 0)
(1.04864 0.0085954 0)
(1.04766 0.0086315 0)
(1.04658 0.00869079 0)
(1.04541 0.00877642 0)
(1.04414 0.00889151 0)
(1.04276 0.00904118 0)
(1.04128 0.00922912 0)
(1.03968 0.00946404 0)
(1.03797 0.0097496 0)
(1.03613 0.0101011 0)
(1.03416 0.0105212 0)
(1.03205 0.0110361 0)
(1.02978 0.0116485 0)
(1.02734 0.0123974 0)
(1.02471 0.0132977 0)
(1.02187 0.0143927 0)
(1.01882 0.0157521 0)
(1.01553 0.0174033 0)
(1.012 0.019554 0)
(1.00837 0.0222747 0)
(1.00179 0.0182 0)
(1.02182 0.0255349 0)
(1.03554 0.0198071 0)
(1.03959 0.017123 0)
(1.041 0.0161582 0)
(1.04272 0.014946 0)
(1.04438 0.0138092 0)
(1.04563 0.0130058 0)
(1.04659 0.0124029 0)
(1.0474 0.0118908 0)
(1.04811 0.0114467 0)
(1.04873 0.0110651 0)
(1.04927 0.0107352 0)
(1.04974 0.0104464 0)
(1.05015 0.0101913 0)
(1.0505 0.00996469 0)
(1.0508 0.00976277 0)
(1.05105 0.00958252 0)
(1.05124 0.00942156 0)
(1.05138 0.00927807 0)
(1.05147 0.00915068 0)
(1.05151 0.00903841 0)
(1.05149 0.00894062 0)
(1.05141 0.00885695 0)
(1.05127 0.00878731 0)
(1.05107 0.00873184 0)
(1.0508 0.00869099 0)
(1.05048 0.00866543 0)
(1.05008 0.00865619 0)
(1.04962 0.00866458 0)
(1.04909 0.0086923 0)
(1.04848 0.00874145 0)
(1.0478 0.00881448 0)
(1.04704 0.00891464 0)
(1.0462 0.00904515 0)
(1.04528 0.00921122 0)
(1.04427 0.00941677 0)
(1.04317 0.00967044 0)
(1.04196 0.00997654 0)
(1.04065 0.0103497 0)
(1.03923 0.0107944 0)
(1.0377 0.0113345 0)
(1.03603 0.0119769 0)
(1.03422 0.0127559 0)
(1.03227 0.0136925 0)
(1.03016 0.0148257 0)
(1.02789 0.0162245 0)
(1.02546 0.0179276 0)
(1.0229 0.0200998 0)
(1.02036 0.0228412 0)
(1.00157 0.0166079 0)
(1.01977 0.0244018 0)
(1.033 0.0193462 0)
(1.03724 0.0167246 0)
(1.03869 0.0158712 0)
(1.04037 0.0147812 0)
(1.04203 0.0136851 0)
(1.04328 0.012894 0)
(1.04423 0.0123068 0)
(1.04503 0.0118097 0)
(1.04572 0.0113764 0)
(1.04633 0.0110029 0)
(1.04686 0.01068 0)
(1.04732 0.0103975 0)
(1.04772 0.010148 0)
(1.04807 0.0099268 0)
(1.04837 0.00973003 0)
(1.04862 0.00955485 0)
(1.04883 0.009399 0)
(1.049 0.00926073 0)
(1.04912 0.00913876 0)
(1.0492 0.00903216 0)
(1.04925 0.00894035 0)
(1.04924 0.008863 0)
(1.04919 0.00880006 0)
(1.0491 0.00875169 0)
(1.04896 0.00871837 0)
(1.04877 0.00870079 0)
(1.04853 0.00870001 0)
(1.04824 0.00871739 0)
(1.04789 0.00875465 0)
(1.04749 0.00881397 0)
(1.04703 0.00889784 0)
(1.04651 0.00900962 0)
(1.04592 0.00915259 0)
(1.04527 0.00933204 0)
(1.04454 0.00955209 0)
(1.04374 0.00982125 0)
(1.04286 0.0101444 0)
(1.04189 0.0105355 0)
(1.04083 0.0110007 0)
(1.03967 0.0115616 0)
(1.03841 0.0122284 0)
(1.03704 0.0130318 0)
(1.03556 0.0139964 0)
(1.03397 0.0151594 0)
(1.03226 0.0165855 0)
(1.03047 0.0183232 0)
(1.02862 0.0204991 0)
(1.02689 0.0232272 0)
(1.00137 0.0151241 0)
(1.01786 0.0232676 0)
(1.03057 0.0188898 0)
(1.03498 0.0163328 0)
(1.03647 0.0155732 0)
(1.03811 0.014607 0)
(1.03976 0.013558 0)
(1.04102 0.0127802 0)
(1.04196 0.0122086 0)
(1.04275 0.0117272 0)
(1.04343 0.0113053 0)
(1.04402 0.0109402 0)
(1.04454 0.0106245 0)
(1.04499 0.0103484 0)
(1.04538 0.0101048 0)
(1.04571 0.00988883 0)
(1.046 0.00969704 0)
(1.04625 0.00952663 0)
(1.04646 0.00937544 0)
(1.04662 0.0092418 0)
(1.04675 0.0091245 0)
(1.04684 0.00902268 0)
(1.0469 0.0089358 0)
(1.04692 0.00886358 0)
(1.0469 0.00880602 0)
(1.04684 0.00876332 0)
(1.04674 0.00873598 0)
(1.04661 0.00872474 0)
(1.04643 0.00873068 0)
(1.04622 0.00875522 0)
(1.04596 0.00880011 0)
(1.04565 0.00886762 0)
(1.0453 0.00896027 0)
(1.04489 0.00908151 0)
(1.04444 0.00923473 0)
(1.04393 0.00942521 0)
(1.04336 0.0096573 0)
(1.04272 0.00993934 0)
(1.04202 0.0102768 0)
(1.04125 0.0106828 0)
(1.0404 0.0111648 0)
(1.03948 0.0117429 0)
(1.03847 0.0124294 0)
(1.03738 0.0132525 0)
(1.0362 0.0142385 0)
(1.03494 0.0154239 0)
(1.03361 0.0168673 0)
(1.03224 0.0186248 0)
(1.03089 0.02079 0)
(1.02972 0.0234792 0)
(1.00119 0.013747 0)
(1.01609 0.0221362 0)
(1.02825 0.0184343 0)
(1.0328 0.0159486 0)
(1.03435 0.0152656 0)
(1.03595 0.0144228 0)
(1.03758 0.0134275 0)
(1.03884 0.0126646 0)
(1.03979 0.0121083 0)
(1.04056 0.011643 0)
(1.04123 0.0112332 0)
(1.04181 0.010877 0)
(1.04232 0.0105687 0)
(1.04275 0.0102993 0)
(1.04313 0.0100616 0)
(1.04346 0.00985113 0)
(1.04373 0.00966438 0)
(1.04397 0.00949877 0)
(1.04417 0.00935219 0)
(1.04432 0.00922308 0)
(1.04445 0.00911026 0)
(1.04453 0.00901294 0)
(1.04458 0.00893063 0)
(1.0446 0.00886311 0)
(1.04459 0.00881039 0)
(1.04454 0.00877274 0)
(1.04445 0.00875067 0)
(1.04433 0.00874497 0)
(1.04418 0.00875675 0)
(1.04399 0.00878748 0)
(1.04376 0.00883896 0)
(1.04349 0.00891353 0)
(1.04318 0.00901376 0)
(1.04283 0.00914317 0)
(1.04243 0.00930523 0)
(1.04199 0.00950525 0)
(1.04149 0.00974775 0)
(1.04094 0.0100409 0)
(1.04033 0.0103906 0)
(1.03966 0.0108095 0)
(1.03893 0.0113058 0)
(1.03814 0.0118984 0)
(1.03727 0.0126011 0)
(1.03634 0.0134401 0)
(1.03535 0.0144424 0)
(1.0343 0.0156442 0)
(1.0332 0.0170973 0)
(1.03211 0.0188624 0)
(1.03108 0.0210061 0)
(1.03029 0.0236387 0)
(1.00104 0.0124743 0)
(1.01445 0.0210121 0)
(1.02604 0.0179761 0)
(1.03071 0.0155728 0)
(1.03232 0.0149507 0)
(1.03388 0.0142282 0)
(1.03549 0.013293 0)
(1.03676 0.0125472 0)
(1.0377 0.0120058 0)
(1.03846 0.011557 0)
(1.03912 0.0111601 0)
(1.0397 0.0108132 0)
(1.04019 0.0105126 0)
(1.04061 0.01025 0)
(1.04098 0.0100186 0)
(1.04129 0.00981369 0)
(1.04156 0.00963216 0)
(1.04179 0.00947146 0)
(1.04197 0.0093296 0)
(1.04212 0.00920507 0)
(1.04223 0.00909676 0)
(1.04231 0.00900394 0)
(1.04235 0.00892617 0)
(1.04236 0.00886325 0)
(1.04234 0.00881526 0)
(1.04229 0.00878247 0)
(1.0422 0.00876543 0)
(1.04208 0.00876499 0)
(1.04193 0.00878226 0)
(1.04175 0.00881878 0)
(1.04152 0.00887639 0)
(1.04127 0.00895748 0)
(1.04097 0.0090647 0)
(1.04064 0.00920162 0)
(1.04026 0.00937179 0)
(1.03985 0.00958052 0)
(1.03938 0.00983251 0)
(1.03887 0.0101357 0)
(1.0383 0.0104965 0)
(1.03769 0.0109269 0)
(1.03701 0.0114359 0)
(1.03629 0.0120412 0)
(1.0355 0.0127577 0)
(1.03466 0.0136101 0)
(1.03377 0.0146249 0)
(1.03284 0.0158385 0)
(1.03189 0.0172956 0)
(1.03098 0.0190588 0)
(1.03016 0.021173 0)
(1.02959 0.0237376 0)
(1.0009 0.0113031 0)
(1.01294 0.0198995 0)
(1.02394 0.0175123 0)
(1.02871 0.0152059 0)
(1.03038 0.0146303 0)
(1.0319 0.014023 0)
(1.03349 0.0131541 0)
(1.03476 0.012428 0)
(1.0357 0.0119012 0)
(1.03646 0.0114692 0)
(1.03711 0.0110857 0)
(1.03767 0.0107487 0)
(1.03815 0.0104561 0)
(1.03857 0.0102006 0)
(1.03892 0.00997557 0)
(1.03923 0.0097765 0)
(1.03948 0.00960034 0)
(1.0397 0.0094447 0)
(1.03987 0.00930769 0)
(1.04001 0.00918787 0)
(1.04012 0.00908419 0)
(1.04018 0.00899596 0)
(1.04022 0.00892279 0)
(1.04022 0.00886454 0)
(1.04019 0.0088213 0)
(1.04013 0.00879339 0)
(1.04004 0.00878138 0)
(1.03992 0.00878615 0)
(1.03976 0.00880885 0)
(1.03957 0.00885106 0)
(1.03935 0.00891467 0)
(1.03909 0.00900212 0)
(1.0388 0.00911611 0)
(1.03847 0.00926027 0)
(1.0381 0.00943825 0)
(1.03769 0.0096553 0)
(1.03724 0.00991633 0)
(1.03674 0.0102291 0)
(1.0362 0.0106003 0)
(1.0356 0.0110413 0)
(1.03496 0.011562 0)
(1.03427 0.0121789 0)
(1.03352 0.0129074 0)
(1.03274 0.0137714 0)
(1.03191 0.0147961 0)
(1.03106 0.0160179 0)
(1.0302 0.017475 0)
(1.0294 0.0192291 0)
(1.02871 0.0213083 0)
(1.02829 0.0237984 0)
(1.00078 0.0102299 0)
(1.01156 0.0188029 0)
(1.02196 0.01704 0)
(1.02679 0.0148481 0)
(1.02854 0.0143066 0)
(1.03002 0.0138072 0)
(1.03158 0.0130101 0)
(1.03285 0.0123068 0)
(1.03379 0.0117945 0)
(1.03454 0.0113794 0)
(1.03518 0.0110101 0)
(1.03574 0.0106834 0)
(1.03621 0.0103991 0)
(1.03661 0.010151 0)
(1.03696 0.00993255 0)
(1.03726 0.00973949 0)
(1.0375 0.00956888 0)
(1.03771 0.00941847 0)
(1.03787 0.00928646 0)
(1.038 0.00917148 0)
(1.0381 0.00907255 0)
(1.03816 0.00898903 0)
(1.03818 0.00892059 0)
(1.03818 0.00886711 0)
(1.03814 0.00882872 0)
(1.03807 0.00880577 0)
(1.03797 0.00879887 0)
(1.03784 0.0088089 0)
(1.03768 0.00883709 0)
(1.03749 0.00888502 0)
(1.03726 0.00895463 0)
(1.037 0.00904843 0)
(1.03671 0.00916919 0)
(1.03637 0.00932053 0)
(1.03601 0.00950621 0)
(1.0356 0.00973147 0)
(1.03515 0.0100013 0)
(1.03466 0.0103234 0)
(1.03413 0.0107046 0)
(1.03355 0.0111559 0)
(1.03292 0.0116876 0)
(1.03225 0.0123154 0)
(1.03153 0.0130547 0)
(1.03078 0.0139289 0)
(1.02999 0.0149615 0)
(1.0292 0.0161887 0)
(1.0284 0.0176425 0)
(1.02769 0.019382 0)
(1.02709 0.0214223 0)
(1.02677 0.0238348 0)
(1.00067 0.00925068 0)
(1.0103 0.0177268 0)
(1.02009 0.0165571 0)
(1.02495 0.014499 0)
(1.02678 0.0139817 0)
(1.02823 0.0135811 0)
(1.02976 0.0128603 0)
(1.03103 0.0121837 0)
(1.03197 0.0116858 0)
(1.03272 0.0112875 0)
(1.03335 0.0109331 0)
(1.03389 0.0106173 0)
(1.03436 0.0103416 0)
(1.03475 0.010101 0)
(1.03509 0.00988944 0)
(1.03538 0.00970261 0)
(1.03562 0.00953774 0)
(1.03581 0.00939272 0)
(1.03597 0.00926586 0)
(1.03609 0.00915587 0)
(1.03618 0.00906182 0)
(1.03623 0.00898315 0)
(1.03625 0.00891955 0)
(1.03623 0.00887096 0)
(1.03619 0.00883753 0)
(1.03611 0.00881966 0)
(1.03601 0.00881796 0)
(1.03587 0.00883337 0)
(1.0357 0.00886711 0)
(1.0355 0.00892085 0)
(1.03527 0.00899655 0)
(1.03501 0.00909676 0)
(1.03471 0.00922431 0)
(1.03438 0.00938287 0)
(1.03401 0.00957626 0)
(1.0336 0.00980968 0)
(1.03316 0.0100883 0)
(1.03267 0.0104195 0)
(1.03214 0.0108105 0)
(1.03157 0.0112719 0)
(1.03096 0.011814 0)
(1.0303 0.0124521 0)
(1.02961 0.0132015 0)
(1.02888 0.0140846 0)
(1.02812 0.0151237 0)
(1.02737 0.0163537 0)
(1.02663 0.0178015 0)
(1.02598 0.0195222 0)
(1.02545 0.0215208 0)
(1.0252 0.0238547 0)
(1.00058 0.00836074 0)
(1.00915 0.0166755 0)
(1.01833 0.016062 0)
(1.0232 0.014158 0)
(1.02511 0.0136574 0)
(1.02653 0.0133452 0)
(1.02802 0.0127041 0)
(1.02929 0.0120582 0)
(1.03024 0.0115752 0)
(1.03098 0.0111935 0)
(1.0316 0.0108544 0)
(1.03214 0.0105501 0)
(1.0326 0.0102834 0)
(1.03298 0.0100507 0)
(1.03331 0.00984618 0)
(1.03359 0.0096658 0)
(1.03382 0.00950686 0)
(1.03401 0.0093674 0)
(1.03416 0.00924585 0)
(1.03427 0.00914099 0)
(1.03435 0.00905197 0)
(1.03439 0.00897827 0)
(1.03441 0.00891964 0)
(1.03439 0.00887606 0)
(1.03434 0.00884772 0)
(1.03425 0.00883503 0)
(1.03414 0.00883865 0)
(1.034 0.00885954 0)
(1.03383 0.00889895 0)
(1.03362 0.00895858 0)
(1.03339 0.00904045 0)
(1.03312 0.00914715 0)
(1.03282 0.00928157 0)
(1.03249 0.00944739 0)
(1.03212 0.00964852 0)
(1.03171 0.00989012 0)
(1.03127 0.0101775 0)
(1.03078 0.0105178 0)
(1.03026 0.0109184 0)
(1.0297 0.0113896 0)
(1.02909 0.0119418 0)
(1.02845 0.0125897 0)
(1.02778 0.0133482 0)
(1.02707 0.0142393 0)
(1.02635 0.0152833 0)
(1.02563 0.0165139 0)
(1.02494 0.0179535 0)
(1.02434 0.0196518 0)
(1.02388 0.0216067 0)
(1.02368 0.0238625 0)
(1.0005 0.00755508 0)
(1.00812 0.0156531 0)
(1.01668 0.0155535 0)
(1.02154 0.0138242 0)
(1.02352 0.0133355 0)
(1.02492 0.0131005 0)
(1.02637 0.0125411 0)
(1.02764 0.0119303 0)
(1.02859 0.0114625 0)
(1.02932 0.0110972 0)
(1.02994 0.010774 0)
(1.03047 0.0104819 0)
(1.03092 0.0102245 0)
(1.0313 0.00999986 0)
(1.03162 0.0098027 0)
(1.03189 0.00962898 0)
(1.03212 0.00947617 0)
(1.0323 0.00934245 0)
(1.03244 0.00922637 0)
(1.03255 0.00912679 0)
(1.03262 0.00904294 0)
(1.03265 0.00897436 0)
(1.03266 0.00892083 0)
(1.03263 0.00888239 0)
(1.03258 0.00885926 0)
(1.03249 0.00885187 0)
(1.03237 0.00886092 0)