/*--------------------------------*- C++ -*----------------------------------*\
  =========                 |
  \\      /  F ield         | OpenFOAM: The Open Source CFD Toolbox
   \\    /   O peration     | Website:  https://openfoam.org
    \\  /    A nd           | Version:  7
     \\/     M anipulation  |
\*---------------------------------------------------------------------------*/
FoamFile
{
    version     2.0;
    format      ascii;
    class       volScalarField;
    location    "0.14";
    object      yPlus;
}
// * * * * * * * * * * * * * * * * * * * * * * * * * * * * * * * * * * * * * //

dimensions      [0 0 0 0 0 0 0];

internalField   uniform 0;

boundaryField
{
    velocityInlet
    {
        type            calculated;
        value           uniform 0;
    }
    pressureOutlet
    {
        type            calculated;
        value           uniform 0;
    }
    fixedWalls
    {
        type            calculated;
        value           nonuniform List<scalar> 
100
(
2.1305
1.50316
0.530134
0.633203
0.121987
0.36771
0.0731572
0.157626
0.453135
0.583711
0.694658
0.657893
0.239813
0.885823
1.08523
0.877418
0.642154
1.2399
1.4077
1.42661
1.52061
1.71666
1.83055
1.69662
0.841628
1.42177
2.05804
2.33036
2.35197
2.16878
1.81382
1.30536
0.557211
0.835828
1.13721
1.24724
1.2663
1.2423
1.20246
1.16169
1.12767
1.10205
1.08141
1.0606
1.0369
1.01136
0.987202
0.967443
0.953426
0.944108
0.935995
0.923738
0.901
0.861084
0.797211
0.702326
0.567389
0.370418
0.204325
0.436593
0.54413
0.595686
0.613341
0.615948
0.619248
0.626645
0.622687
0.58095
0.474198
0.251564
0.338832
0.527566
0.6408
0.712657
0.757681
0.784784
0.800128
0.80834
0.81316
0.817636
0.82418
0.834527
0.850031
0.871907
0.90121
0.936703
0.972909
0.999249
1.00435
0.978193
0.91697
0.812799
0.655602
0.375027
0.420149
0.684385
0.827855
0.810747
0.786473
0.204568
)
;
    }
    bottomWall
    {
        type            calculated;
        value           nonuniform List<scalar> 
800
(
2.9448
1.98393
1.61353
1.44049
1.35545
1.29693
1.2481
1.20712
1.17272
1.1433
1.11764
1.09497
1.07472
1.05648
1.03994
1.02485
1.011
0.99823
0.986411
0.97543
0.965191
0.955616
0.946638
0.938198
0.930246
0.922737
0.915634
0.908902
0.902512
0.896436
0.890652
0.885137
0.879874
0.874844
0.870031
0.865423
0.861005
0.856766
0.852695
0.848782
0.845019
0.841395
0.837904
0.83454
0.831293
0.828162
0.825135
0.822211
0.819382
0.816649
0.814356
0.812459
0.810581
0.808727
0.8069
0.805095
0.803312
0.801552
0.799814
0.798096
0.7964
0.794724
0.793068
0.791431
0.789813
0.788214
0.786634
0.785071
0.783527
0.782
0.780489
0.778996
0.777518
0.776057
0.774611
0.773181
0.771767
0.770366
0.768981
0.76761
0.766253
0.764911
0.763582
0.762266
0.760963
0.759674
0.758396
0.757132
0.75588
0.75464
0.753412
0.752195
0.75099
0.749796
0.748613
0.747441
0.746279
0.745129
0.743988
0.742858
0.741738
0.740628
0.739527
0.738436
0.737353
0.736281
0.735217
0.734162
0.733117
0.732079
0.73105
0.73003
0.729017
0.728013
0.727017
0.726028
0.725047
0.724074
0.723109
0.722149
0.721199
0.720255
0.719318
0.718387
0.717465
0.716548
0.715638
0.714735
0.713838
0.712948
0.712063
0.711185
0.710312
0.709446
0.708585
0.707731
0.706882
0.706039
0.705201
0.704368
0.703542
0.70272
0.701904
0.701092
0.700286
0.699485
0.698688
0.697898
0.697111
0.696329
0.695672
0.695135
0.694595
0.694054
0.693511
0.692966
0.69242
0.691874
0.691325
0.690774
0.690221
0.689669
0.689113
0.688557
0.687999
0.687439
0.686878
0.686315
0.685751
0.685186
0.684617
0.684049
0.683478
0.682906
0.682334
0.681758
0.681182
0.680604
0.680024
0.679443
0.678861
0.678277
0.677691
0.677105
0.676516
0.675927
0.675335
0.674743
0.674149
0.673553
0.672956
0.672358
0.671759
0.671157
0.670555
0.669951
0.669346
0.66874
0.668132
0.667523
0.666913
0.6663
0.665688
0.665073
0.664457
0.663841
0.663223
0.662603
0.661983
0.661361
0.660739
0.660115
0.65949
0.658863
0.658236
0.657607
0.656978
0.656347
0.655716
0.655082
0.654448
0.653814
0.653177
0.65254
0.651902
0.651262
0.650622
0.649981
0.649339
0.648695
0.648051
0.647404
0.64676
0.646109
0.645464
0.644808
0.644166
0.643497
0.642866
0.642175
0.64157
0.640832
0.640283
0.639457
0.639018
0.638031
0.637788
0.636548
0.636591
0.635014
2.94478
1.9838
1.61315
1.43981
1.35442
1.29549
1.24621
1.20472
1.16976
1.13975
1.11346
1.09011
1.06916
1.05018
1.03286
1.01696
1.00226
0.988607
0.975858
0.963901
0.952635
0.941975
0.931848
0.922187
0.912932
0.904027
0.895422
0.887071
0.878925
0.870941
0.863075
0.855279
0.847511
0.839715
0.831848
0.823843
0.815649
0.807187
0.798378
0.789156
0.779336
0.768991
0.757552
0.745687
0.731569
0.717925
0.69896
0.683903
0.656257
0.618874
1.00318
1.57481
1.84304
1.96131
1.96537
1.87319
1.68958
1.46802
1.28298
1.14388
1.09798
1.14192
1.19602
1.244
1.30292
1.34637
1.32467
1.23135
1.05048
0.710735
0.640612
1.2351
1.72935
2.19298
2.64101
3.06862
3.46982
3.83707
4.16235
4.43949
4.66428
4.8347
4.9509
5.0146
5.02892
4.99837
4.92977
4.82769
4.69744
4.54397
4.37151
4.18333
3.98139
3.7662
3.53665
3.28982
3.02063
2.72125
2.37942
1.97485
1.47381
0.997271
1.45887
1.98152
2.41057
2.77458
3.09136
3.3706
3.61803
3.83728
4.03085
4.20057
4.34785
4.47386
4.57958
4.66581
4.73317
4.78223
4.8134
4.82629
4.82035
4.79569
4.75133
4.68665
4.60098
4.49167
4.35605
4.1933
3.99957
3.76275
3.45928
3.0795
2.67554
2.34101
2.14008
2.07542
2.08406
2.10008
2.08462
2.03062
1.95134
1.86561
1.79331
1.74482
1.71084
1.66839
1.60325
1.51598
1.41205
1.29493
1.16886
1.04783
0.972061
0.996999
1.11249
1.26416
1.41975
1.56624
1.69812
1.81383
1.91333
1.99688
2.06487
2.11766
2.15556
2.17886
2.18791
2.18301
2.16604
2.13466
2.08903
2.02919
1.95526
1.86738
1.76569
1.65029
1.52095
1.37673
1.21589
1.03514
0.826686
0.577519
0.417781
0.638412
0.820901
0.955465
1.05958
1.14183
1.20851
1.26417
1.31223
1.35528
1.39516
1.43323
1.47054
1.50796
1.54602
1.58463
1.62279
1.65844
1.69054
1.71417
1.72585
1.72383
1.7079
1.67892
1.63837
1.58853
1.53208
1.47187
1.4107
1.35138
1.29678
1.24966
1.21134
1.17786
1.16806
1.18176
1.21526
1.26586
1.3297
1.40269
1.48122
1.56226
1.64341
1.72272
1.79862
1.86982
1.93524
1.99397
2.04524
2.08843
2.12301
2.14855
2.1647
2.17111
2.16766
2.15471
2.13211
2.09966
2.05722
2.00469
1.94193
1.86897
1.7865
1.69701
1.60754
1.53683
1.54009
1.73089
0.887875
1.69356
1.83882
1.54376
1.06108
1.48332
2.02595
2.42379
2.70477
2.8898
2.98504
2.99026
2.89557
2.68733
2.35121
1.87428
1.48119
1.95799
2.60835
3.01075
3.12181
3.07811
3.01313
2.95622
2.86857
2.70034
2.45726
2.19329
1.97932
1.85594
1.82029
1.85578
1.94266
2.05275
2.16682
2.26762
2.33645
2.35931
2.34478
2.32266
2.32137
2.35413
2.42572
2.56041
2.78354
3.08796
3.43697
3.78955
4.1177
4.40877
4.65839
4.86716
5.03779
5.17162
5.26909
5.33114
5.35973
5.35657
5.32397
5.26684
5.18562
5.08116
4.9536
4.80093
4.61968
4.40436
4.14658
3.83415
3.44891
2.96164
2.32433
1.59446
2.05277
2.92378
3.65488
4.28399
4.83287
5.30186
5.68777
5.97684
6.15822
6.22056
6.13202
5.87419
5.43533
4.81442
4.07652
3.31442
2.59931
1.96946
1.46058
1.0949
0.895723
0.844556
0.850678
0.832319
0.725789
0.535226
0.366921
0.20404
0.230538
0.435738
0.876329
1.1745
1.35575
1.43103
1.42436
1.35336
1.24081
1.12592
1.03738
0.97257
0.903081
0.804978
0.662184
0.468094
0.134843
0.543592
1.00967
1.53361
1.92171
2.04934
1.98699
1.73955
1.29042
0.699888
1.06628
1.31322
1.28104
0.935479
0.25425
0.700108
0.834709
1.26217
1.76827
2.17535
2.48992
2.74978
3.00354
3.30715
3.66114
4.02278
4.35013
4.61829
4.80931
4.91069
4.93141
4.83325
4.61751
4.24985
3.64509
2.76522
1.6895
1.20316
2.09008
2.61607
2.91127
3.1869
3.5759
3.94359
4.32582
4.90214
5.3807
5.64085
5.78124
5.93566
6.07196
6.15811
6.23791
6.31326
6.37116
6.42452
6.47519
6.51909
6.56049
6.6002
6.63719
6.67306
6.70816
6.74236
6.77629
6.81014
6.84395
6.87796
6.91223
6.94679
6.98168
7.01686
7.05229
7.0879
7.12359
7.15927
7.19481
7.23008
7.26492
7.29918
7.3327
7.3653
7.39681
7.42704
7.45583
7.48301
7.50839
7.53179
7.55313
7.57258
7.58966
7.60421
7.61612
7.62527
7.63157
7.63496
7.63527
7.63251
7.62688
7.61815
7.60643
7.59164
7.57386
7.55307
7.52931
7.50261
7.47301
7.44057
7.40533
7.36737
7.32673
7.2835
7.23775
7.18953
7.13894
7.08604
7.03091
6.97361
6.91421
6.85278
6.78939
6.72407
6.65688
6.58787
6.51707
6.4445
6.37019
6.29416
6.2164
6.13691
6.05567
5.97266
5.88784
5.80117
5.71258
5.622
5.52934
5.43449
5.33733
5.23774
5.13554
5.03056
4.92259
4.81138
4.69668
4.57818
4.45552
4.3283
4.1961
4.05839
3.91467
3.76434
3.60676
3.44133
3.26739
3.10247
2.93435
2.76043
2.58577
2.42532
2.31068
2.28407
2.36699
2.53654
2.75293
2.98882
3.23104
3.47513
3.73718
4.00294
4.26874
4.53536
4.80374
5.07471
5.34978
5.62911
5.91598
6.20707
6.51289
6.81591
7.15364
7.45517
7.8492
8.0739
)
;
    }
    frontAndBack
    {
        type            empty;
    }
}


// ************************************************************************* //
