/*--------------------------------*- C++ -*----------------------------------*\
  =========                 |
  \\      /  F ield         | OpenFOAM: The Open Source CFD Toolbox
   \\    /   O peration     | Website:  https://openfoam.org
    \\  /    A nd           | Version:  7
     \\/     M anipulation  |
\*---------------------------------------------------------------------------*/
FoamFile
{
    version     2.0;
    format      ascii;
    class       volScalarField;
    location    "0.35";
    object      k;
}
// * * * * * * * * * * * * * * * * * * * * * * * * * * * * * * * * * * * * * //

dimensions      [0 2 -2 0 0 0 0];

internalField   nonuniform List<scalar> 
70000
(
1.08549e-05
4.21872e-06
2.82427e-06
2.31667e-06
1.99728e-06
1.75689e-06
1.56482e-06
1.40791e-06
1.27703e-06
1.16632e-06
1.07128e-06
9.89291e-07
9.17601e-07
8.5497e-07
7.99398e-07
7.50421e-07
7.06332e-07
6.67229e-07
6.31523e-07
5.99773e-07
5.70351e-07
5.44225e-07
5.196e-07
4.9785e-07
4.76944e-07
4.58648e-07
4.40675e-07
4.25127e-07
4.09512e-07
3.96173e-07
3.82485e-07
3.70953e-07
3.58839e-07
3.48832e-07
3.37968e-07
3.29309e-07
3.19385e-07
3.11968e-07
3.02725e-07
2.96429e-07
2.87724e-07
2.82372e-07
2.74133e-07
2.69615e-07
2.61622e-07
2.58591e-07
2.49802e-07
2.57839e-07
2.48284e-07
3.19471e-07
1.72794e-05
1.13672e-05
8.52031e-06
7.01004e-06
6.03661e-06
5.31017e-06
4.73043e-06
4.25657e-06
3.86125e-06
3.52691e-06
3.23988e-06
2.99227e-06
2.77573e-06
2.58655e-06
2.41866e-06
2.27068e-06
2.13743e-06
2.01927e-06
1.91131e-06
1.81536e-06
1.72638e-06
1.64743e-06
1.57294e-06
1.5072e-06
1.44395e-06
1.38863e-06
1.33427e-06
1.28723e-06
1.24001e-06
1.19963e-06
1.15824e-06
1.12333e-06
1.08668e-06
1.05641e-06
1.02349e-06
9.97349e-07
9.67225e-07
9.44873e-07
9.16802e-07
8.9782e-07
8.71422e-07
8.55253e-07
8.30294e-07
8.16658e-07
7.92401e-07
7.82776e-07
7.56702e-07
7.71846e-07
7.51151e-07
8.20995e-07
1.937e-05
1.61296e-05
1.32908e-05
1.12892e-05
9.82775e-06
8.69504e-06
7.77688e-06
7.01898e-06
6.38201e-06
5.84064e-06
5.37412e-06
4.97055e-06
4.61664e-06
4.30686e-06
4.03126e-06
3.78802e-06
3.56847e-06
3.37363e-06
3.19523e-06
3.03666e-06
2.88926e-06
2.75856e-06
2.63492e-06
2.52593e-06
2.4208e-06
2.32891e-06
2.23847e-06
2.16017e-06
2.08158e-06
2.01424e-06
1.9453e-06
1.88703e-06
1.82586e-06
1.77539e-06
1.72027e-06
1.67682e-06
1.6262e-06
1.58912e-06
1.54192e-06
1.51036e-06
1.46608e-06
1.43909e-06
1.39726e-06
1.37452e-06
1.33387e-06
1.31712e-06
1.27428e-06
1.28552e-06
1.26247e-06
1.29536e-06
1.9861e-05
1.826e-05
1.60856e-05
1.42e-05
1.26396e-05
1.1348e-05
1.02595e-05
9.33717e-06
8.5451e-06
7.86187e-06
7.26645e-06
6.747e-06
6.28779e-06
5.88351e-06
5.5215e-06
5.20055e-06
4.90918e-06
4.64986e-06
4.41119e-06
4.19883e-06
4.00038e-06
3.82445e-06
3.65713e-06
3.50974e-06
3.36692e-06
3.24207e-06
3.11886e-06
3.01198e-06
2.90468e-06
2.81242e-06
2.71804e-06
2.63809e-06
2.55397e-06
2.48482e-06
2.40857e-06
2.3492e-06
2.27885e-06
2.2282e-06
2.1626e-06
2.11928e-06
2.05786e-06
2.02066e-06
1.96265e-06
1.93121e-06
1.87505e-06
1.85071e-06
1.79353e-06
1.79141e-06
1.77543e-06
1.77743e-06
1.99706e-05
1.78459e-05
1.60749e-05
1.47666e-05
1.36026e-05
1.25377e-05
1.1569e-05
1.07014e-05
9.91984e-06
9.22445e-06
8.60353e-06
8.05124e-06
7.55425e-06
7.11093e-06
6.7083e-06
6.34767e-06
6.01636e-06
5.71962e-06
5.44371e-06
5.19742e-06
4.96503e-06
4.75874e-06
4.56071e-06
4.38617e-06
4.21577e-06
4.06653e-06
3.91858e-06
3.78975e-06
3.66018e-06
3.54832e-06
3.43364e-06
3.33646e-06
3.23342e-06
3.1494e-06
3.0552e-06
2.98314e-06
2.89577e-06
2.83409e-06
2.75261e-06
2.69943e-06
2.62322e-06
2.57725e-06
2.50535e-06
2.46605e-06
2.39705e-06
2.36531e-06
2.30065e-06
2.27624e-06
2.26376e-06
2.23886e-06
2.00096e-05
1.47038e-05
1.37482e-05
1.32116e-05
1.25922e-05
1.19282e-05
1.12788e-05
1.06588e-05
1.00817e-05
9.54819e-06
9.047e-06
8.58145e-06
8.14657e-06
7.74768e-06
7.37433e-06
7.03281e-06
6.71196e-06
6.42108e-06
6.14557e-06
5.8979e-06
5.66008e-06
5.44808e-06
5.24135e-06
5.05859e-06
4.87796e-06
4.71898e-06
4.56016e-06
4.42106e-06
4.28045e-06
4.15854e-06
4.03261e-06
3.92619e-06
3.81155e-06
3.71939e-06
3.61337e-06
3.53406e-06
3.43516e-06
3.36666e-06
3.27433e-06
3.21458e-06
3.12823e-06
3.07587e-06
2.99486e-06
2.94861e-06
2.87273e-06
2.83144e-06
2.76842e-06
2.72121e-06
2.70429e-06
2.66194e-06
2.01332e-05
1.54663e-05
9.63447e-06
9.39921e-06
9.49451e-06
9.4943e-06
9.43644e-06
9.29952e-06
9.0591e-06
8.78619e-06
8.49129e-06
8.19496e-06
7.90211e-06
7.6202e-06
7.34138e-06
7.08254e-06
6.83261e-06
6.60077e-06
6.37329e-06
6.16562e-06
5.95952e-06
5.77389e-06
5.58791e-06
5.42222e-06
5.25494e-06
5.10632e-06
4.95585e-06
4.82305e-06
4.68721e-06
4.56906e-06
4.44487e-06
4.34078e-06
4.22542e-06
4.13464e-06
4.02631e-06
3.94734e-06
3.84553e-06
3.77621e-06
3.68082e-06
3.61921e-06
3.53015e-06
3.47452e-06
3.39235e-06
3.3399e-06
3.26683e-06
3.21342e-06
3.15949e-06
3.09649e-06
3.07465e-06
3.01895e-06
2.01714e-05
1.86753e-05
8.68852e-06
5.54041e-06
5.63137e-06
5.93657e-06
6.29584e-06
6.58252e-06
6.76363e-06
6.87367e-06
6.89466e-06
6.87591e-06
6.8242e-06
6.7374e-06
6.62587e-06
6.50517e-06
6.36523e-06
6.22541e-06
6.07895e-06
5.94063e-06
5.79521e-06
5.6618e-06
5.52247e-06
5.39649e-06
5.26545e-06
5.14922e-06
5.02883e-06
4.92159e-06
4.80883e-06
4.71066e-06
4.60375e-06
4.51555e-06
4.41309e-06
4.33482e-06
4.23643e-06
4.16683e-06
4.07322e-06
4.01035e-06
3.92202e-06
3.8643e-06
3.78244e-06
3.72743e-06
3.65422e-06
3.59789e-06
3.53686e-06
3.47524e-06
3.43263e-06
3.36363e-06
3.34024e-06
3.27881e-06
2.01672e-05
1.97237e-05
1.61652e-05
4.85814e-06
3.0424e-06
3.10647e-06
3.37684e-06
3.8082e-06
4.17551e-06
4.4953e-06
4.74402e-06
4.93569e-06
5.07669e-06
5.17927e-06
5.23762e-06
5.27561e-06
5.27923e-06
5.27115e-06
5.24792e-06
5.21255e-06
5.16115e-06
5.10911e-06
5.04538e-06
4.98364e-06
4.91293e-06
4.84522e-06
4.76918e-06
4.70004e-06
4.62279e-06
4.55579e-06
4.47807e-06
4.41551e-06
4.33764e-06
4.28025e-06
4.20294e-06
4.15011e-06
4.07493e-06
4.02575e-06
3.95536e-06
3.90797e-06
3.84372e-06
3.79484e-06
3.73949e-06
3.6858e-06
3.6417e-06
3.58236e-06
3.55038e-06
3.48656e-06
3.46537e-06
3.40841e-06
2.01477e-05
1.99342e-05
1.90649e-05
1.4495e-05
5.23699e-06
2.15371e-06
1.91491e-06
1.99512e-06
2.21022e-06
2.51078e-06
2.78777e-06
3.04356e-06
3.26911e-06
3.46866e-06
3.63254e-06
3.77361e-06
3.8849e-06
3.97624e-06
4.04596e-06
4.10186e-06
4.13886e-06
4.16547e-06
4.17978e-06
4.18403e-06
4.18103e-06
4.17383e-06
4.15812e-06
4.14167e-06
4.11522e-06
4.09283e-06
4.05904e-06
4.03339e-06
3.99446e-06
3.96708e-06
3.92429e-06
3.89641e-06
3.8519e-06
3.82277e-06
3.77753e-06
3.74562e-06
3.70421e-06
3.66764e-06
3.63257e-06
3.5905e-06
3.56213e-06
3.51641e-06
3.49296e-06
3.4438e-06
3.42754e-06
3.38438e-06
2.01217e-05
1.9966e-05
1.96421e-05
1.8545e-05
1.52074e-05
8.34745e-06
3.09716e-06
1.63209e-06
1.44268e-06
1.45069e-06
1.5292e-06
1.69285e-06
1.87583e-06
2.0554e-06
2.22594e-06
2.38848e-06
2.53557e-06
2.67011e-06
2.78797e-06
2.89461e-06
2.98617e-06
3.06688e-06
3.13539e-06
3.19441e-06
3.2427e-06
3.28488e-06
3.31733e-06
3.34621e-06
3.36551e-06
3.38368e-06
3.39262e-06
3.40174e-06
3.4041e-06
3.40414e-06
3.4014e-06
3.39788e-06
3.3889e-06
3.38282e-06
3.37023e-06
3.3603e-06
3.34782e-06
3.33191e-06
3.32095e-06
3.30071e-06
3.28995e-06
3.26814e-06
3.25673e-06
3.23118e-06
3.22317e-06
3.20183e-06
2.00982e-05
1.99327e-05
1.97571e-05
1.93518e-05
1.85044e-05
1.65318e-05
1.2315e-05
6.84025e-06
2.97166e-06
1.48955e-06
1.24259e-06
1.14836e-06
1.15369e-06
1.19807e-06
1.29244e-06
1.40214e-06
1.51505e-06
1.62793e-06
1.73842e-06
1.84607e-06
1.94692e-06
2.04228e-06
2.13006e-06
2.21179e-06
2.286e-06
2.35467e-06
2.41597e-06
2.47289e-06
2.52245e-06
2.56909e-06
2.60834e-06
2.6456e-06
2.67673e-06
2.70586e-06
2.7292e-06
2.75238e-06
2.7696e-06
2.78674e-06
2.80019e-06
2.81142e-06
2.82264e-06
2.82864e-06
2.83754e-06
2.84025e-06
2.846e-06
2.84694e-06
2.8493e-06
2.84783e-06
2.8501e-06
2.84687e-06
2.00782e-05
1.98876e-05
1.97567e-05
1.94602e-05
1.91449e-05
1.86392e-05
1.75507e-05
1.54176e-05
1.17183e-05
7.41224e-06
3.95071e-06
1.89495e-06
1.20416e-06
1.05659e-06
9.80799e-07
9.4493e-07
9.57343e-07
9.94169e-07
1.05708e-06
1.12338e-06
1.1939e-06
1.26587e-06
1.33823e-06
1.41056e-06
1.48091e-06
1.54903e-06
1.614e-06
1.67646e-06
1.73488e-06
1.79153e-06
1.84314e-06
1.89346e-06
1.93909e-06
1.98309e-06
2.02273e-06
2.06117e-06
2.09594e-06
2.1282e-06
2.15955e-06
2.18656e-06
2.21431e-06
2.2371e-06
2.26191e-06
2.28049e-06
2.30316e-06
2.31826e-06
2.33738e-06
2.35051e-06
2.36635e-06
2.37881e-06
2.00614e-05
1.98538e-05
1.97341e-05
1.94706e-05
1.92542e-05
1.90459e-05
1.87337e-05
1.81869e-05
1.70884e-05
1.52175e-05
1.25339e-05
9.18418e-06
5.91316e-06
3.42688e-06
1.84671e-06
1.15531e-06
9.62243e-07
8.9004e-07
8.34855e-07
7.98673e-07
8.01927e-07
8.17505e-07
8.50107e-07
8.90488e-07
9.31973e-07
9.76803e-07
1.02305e-06
1.07045e-06
1.11799e-06
1.16642e-06
1.21285e-06
1.25942e-06
1.3042e-06
1.34788e-06
1.39001e-06
1.43098e-06
1.47067e-06
1.50768e-06
1.54529e-06
1.57939e-06
1.6138e-06
1.64525e-06
1.6777e-06
1.70519e-06
1.73673e-06
1.76186e-06
1.788e-06
1.81386e-06
1.83724e-06
1.85982e-06
2.00476e-05
1.98303e-05
1.97075e-05
1.94484e-05
1.92711e-05
1.91139e-05
1.89636e-05
1.87479e-05
1.84586e-05
1.79055e-05
1.70666e-05
1.56757e-05
1.3846e-05
1.14705e-05
8.7707e-06
6.15063e-06
3.98944e-06
2.43304e-06
1.46135e-06
1.01273e-06
8.57733e-07
7.96747e-07
7.48648e-07
7.09745e-07
6.83512e-07
6.84305e-07
6.91874e-07
7.09253e-07
7.32423e-07
7.58939e-07
7.85446e-07
8.14597e-07
8.45167e-07
8.76164e-07
9.0834e-07
9.40884e-07
9.73753e-07
1.00557e-06
1.03837e-06
1.07004e-06
1.10141e-06
1.13234e-06
1.16371e-06
1.19179e-06
1.22389e-06
1.25176e-06
1.27796e-06
1.30781e-06
1.33554e-06
1.35902e-06
2.00363e-05
1.98124e-05
1.96849e-05
1.94181e-05
1.9257e-05
1.91074e-05
1.89987e-05
1.8847e-05
1.87092e-05
1.84963e-05
1.82421e-05
1.78234e-05
1.72153e-05
1.6337e-05
1.51166e-05
1.35647e-05
1.17257e-05
9.61231e-06
7.45013e-06
5.44342e-06
3.77997e-06
2.52156e-06
1.63403e-06
1.10754e-06
8.57727e-07
7.56374e-07
7.07619e-07
6.70727e-07
6.34824e-07
6.08885e-07
5.90899e-07
5.90398e-07
5.94129e-07
6.02883e-07
6.1697e-07
6.32833e-07
6.49974e-07
6.67809e-07
6.87185e-07
7.07949e-07
7.28909e-07
7.51175e-07
7.74593e-07
7.96108e-07
8.21622e-07
8.45202e-07
8.66033e-07
8.91936e-07
9.17514e-07
9.37596e-07
2.00272e-05
1.97986e-05
1.96657e-05
1.93961e-05
1.92312e-05
1.908e-05
1.89803e-05
1.88507e-05
1.87328e-05
1.85929e-05
1.84544e-05
1.82841e-05
1.80713e-05
1.77844e-05
1.73902e-05
1.684e-05
1.61167e-05
1.51786e-05
1.40092e-05
1.26448e-05
1.11061e-05
9.41119e-06
7.67442e-06
6.02543e-06
4.539e-06
3.32372e-06
2.36825e-06
1.65088e-06
1.16352e-06
8.81331e-07
7.3796e-07
6.69965e-07
6.31085e-07
6.01913e-07
5.74037e-07
5.48578e-07
5.29911e-07
5.17665e-07
5.14639e-07
5.16314e-07
5.20677e-07
5.28496e-07
5.38631e-07
5.48547e-07
5.61407e-07
5.74674e-07
5.85851e-07
6.01743e-07
6.1866e-07
6.32465e-07
2.00201e-05
1.979e-05
1.96455e-05
1.93797e-05
1.92069e-05
1.90511e-05
1.89418e-05
1.88243e-05
1.87108e-05
1.85861e-05
1.84663e-05
1.83397e-05
1.82132e-05
1.80699e-05
1.7911e-05
1.77094e-05
1.74611e-05
1.71358e-05
1.67221e-05
1.61845e-05
1.5533e-05
1.47259e-05
1.37852e-05
1.26898e-05
1.15097e-05
1.02099e-05
8.83542e-06
7.45187e-06
6.1186e-06
4.89648e-06
3.81284e-06
2.92283e-06
2.1992e-06
1.62768e-06
1.20446e-06
9.20341e-07
7.49639e-07
6.54878e-07
6.02877e-07
5.70848e-07
5.45701e-07
5.24254e-07
5.03261e-07
4.84738e-07
4.70405e-07
4.61447e-07
4.55798e-07
4.56204e-07
4.58197e-07
4.63227e-07
2.00145e-05
1.97898e-05
1.96192e-05
1.93663e-05
1.91862e-05
1.90242e-05
1.89057e-05
1.87877e-05
1.86706e-05
1.85496e-05
1.8436e-05
1.83169e-05
1.8204e-05
1.80842e-05
1.79704e-05
1.78462e-05
1.77218e-05
1.75762e-05
1.74172e-05
1.72154e-05
1.69825e-05
1.66872e-05
1.63362e-05
1.58982e-05
1.53867e-05
1.47803e-05
1.40829e-05
1.32837e-05
1.24059e-05
1.14432e-05
1.04386e-05
9.36152e-06
8.25165e-06
7.14611e-06
6.07453e-06
5.0723e-06
4.15464e-06
3.35058e-06
2.672e-06
2.10397e-06
1.6362e-06
1.26578e-06
9.89337e-07
7.99291e-07
6.76546e-07
6.03082e-07
5.56739e-07
5.30635e-07
5.08609e-07
5.00032e-07
2.00103e-05
1.97938e-05
1.95925e-05
1.93524e-05
1.91675e-05
1.89985e-05
1.88721e-05
1.87513e-05
1.86304e-05
1.85058e-05
1.83901e-05
1.82693e-05
1.81584e-05
1.80452e-05
1.79376e-05
1.78266e-05
1.77194e-05
1.76096e-05
1.75037e-05
1.7388e-05
1.72714e-05
1.7141e-05
1.69976e-05
1.68268e-05
1.66348e-05
1.64042e-05
1.61376e-05
1.58206e-05
1.54562e-05
1.50324e-05
1.45516e-05
1.40119e-05
1.3407e-05
1.27399e-05
1.20184e-05
1.12471e-05
1.04384e-05
9.59499e-06
8.71115e-06
7.81384e-06
6.91858e-06
6.04811e-06
5.21278e-06
4.44e-06
3.72597e-06
3.10686e-06
2.57526e-06
2.14012e-06
1.77146e-06
1.50851e-06
2.00071e-05
1.98011e-05
1.95679e-05
1.9339e-05
1.91498e-05
1.89745e-05
1.88399e-05
1.87165e-05
1.8591e-05
1.84635e-05
1.83432e-05
1.82199e-05
1.81045e-05
1.79901e-05
1.78793e-05
1.77694e-05
1.76645e-05
1.75627e-05
1.7463e-05
1.73622e-05
1.72625e-05
1.71655e-05
1.70668e-05
1.69633e-05
1.68616e-05
1.67504e-05
1.66305e-05
1.64988e-05
1.63509e-05
1.61872e-05
1.5994e-05
1.57842e-05
1.55393e-05
1.52624e-05
1.49508e-05
1.46048e-05
1.42158e-05
1.37875e-05
1.33158e-05
1.28041e-05
1.22515e-05
1.16599e-05
1.10321e-05
1.03755e-05
9.69654e-06
9.0057e-06
8.27865e-06
7.5762e-06
6.8616e-06
6.22366e-06
2.00047e-05
1.98095e-05
1.95449e-05
1.93259e-05
1.91326e-05
1.89522e-05
1.88086e-05
1.86832e-05
1.85528e-05
1.8423e-05
1.82977e-05
1.81712e-05
1.8051e-05
1.79353e-05
1.78192e-05
1.7708e-05
1.75974e-05
1.74948e-05
1.7392e-05
1.72913e-05
1.71931e-05
1.71032e-05
1.70108e-05
1.6917e-05
1.68308e-05
1.67408e-05
1.66492e-05
1.65606e-05
1.64682e-05
1.63803e-05
1.6276e-05
1.61819e-05
1.60707e-05
1.59515e-05
1.58225e-05
1.56852e-05
1.55277e-05
1.53535e-05
1.51562e-05
1.49454e-05
1.47098e-05
1.44507e-05
1.41588e-05
1.38442e-05
1.34952e-05
1.31321e-05
1.27236e-05
1.23152e-05
1.18384e-05
1.13847e-05
2.0003e-05
1.98184e-05
1.95235e-05
1.93124e-05
1.91153e-05
1.89316e-05
1.87786e-05
1.8651e-05
1.85161e-05
1.83841e-05
1.82543e-05
1.81243e-05
1.79995e-05
1.7882e-05
1.77609e-05
1.76474e-05
1.75327e-05
1.74276e-05
1.73216e-05
1.72175e-05
1.71149e-05
1.70225e-05
1.69272e-05
1.68304e-05
1.67442e-05
1.6657e-05
1.65702e-05
1.6488e-05
1.64041e-05
1.63295e-05
1.62397e-05
1.61686e-05
1.60849e-05
1.60021e-05
1.59225e-05
1.58456e-05
1.57622e-05
1.5676e-05
1.55778e-05
1.54869e-05
1.53888e-05
1.52799e-05
1.51569e-05
1.5026e-05
1.48809e-05
1.47323e-05
1.45556e-05
1.4384e-05
1.4159e-05
1.39378e-05
2.00018e-05
1.98269e-05
1.95039e-05
1.92979e-05
1.90978e-05
1.89122e-05
1.87502e-05
1.86199e-05
1.84812e-05
1.83471e-05
1.82132e-05
1.80796e-05
1.79508e-05
1.78312e-05
1.77057e-05
1.75891e-05
1.74712e-05
1.73631e-05
1.72543e-05
1.71467e-05
1.70411e-05
1.69459e-05
1.68474e-05
1.67466e-05
1.66574e-05
1.6566e-05
1.64745e-05
1.63884e-05
1.63023e-05
1.62253e-05
1.61345e-05
1.6066e-05
1.59882e-05
1.59103e-05
1.58394e-05
1.57722e-05
1.57024e-05
1.56335e-05
1.5554e-05
1.54881e-05
1.54258e-05
1.53554e-05
1.52803e-05
1.52077e-05
1.51326e-05
1.50633e-05
1.49746e-05
1.48999e-05
1.4792e-05
1.468e-05
2.00009e-05
1.98304e-05
1.94877e-05
1.92829e-05
1.90802e-05
1.88944e-05
1.87239e-05
1.85901e-05
1.84487e-05
1.83126e-05
1.81748e-05
1.80378e-05
1.79055e-05
1.77834e-05
1.76543e-05
1.75344e-05
1.7414e-05
1.73029e-05
1.71913e-05
1.70805e-05
1.69722e-05
1.68745e-05
1.67729e-05
1.66696e-05
1.65764e-05
1.64831e-05
1.6387e-05
1.62977e-05
1.6208e-05
1.61267e-05
1.60328e-05
1.5958e-05
1.58758e-05
1.57939e-05
1.57187e-05
1.56497e-05
1.55766e-05
1.55089e-05
1.54288e-05
1.53691e-05
1.53145e-05
1.52515e-05
1.51824e-05
1.51215e-05
1.50605e-05
1.50067e-05
1.49364e-05
1.48799e-05
1.47996e-05
1.47191e-05
2.00003e-05
1.98288e-05
1.94746e-05
1.92672e-05
1.90626e-05
1.88784e-05
1.87003e-05
1.85623e-05
1.84189e-05
1.82811e-05
1.81395e-05
1.79997e-05
1.78642e-05
1.77397e-05
1.76074e-05
1.74846e-05
1.73617e-05
1.72481e-05
1.71333e-05
1.70202e-05
1.69093e-05
1.68093e-05
1.67043e-05
1.65998e-05
1.65023e-05
1.64077e-05
1.63077e-05
1.6216e-05
1.61233e-05
1.60378e-05
1.59424e-05
1.58622e-05
1.57763e-05
1.56922e-05
1.56111e-05
1.55394e-05
1.54609e-05
1.5389e-05
1.53038e-05
1.52389e-05
1.51784e-05
1.51136e-05
1.50374e-05
1.49751e-05
1.49119e-05
1.48567e-05
1.47876e-05
1.47314e-05
1.4658e-05
1.4586e-05
2e-05
1.98271e-05
1.94635e-05
1.92498e-05
1.90445e-05
1.88638e-05
1.86792e-05
1.85365e-05
1.83916e-05
1.82529e-05
1.81076e-05
1.79658e-05
1.78274e-05
1.77005e-05
1.75655e-05
1.74406e-05
1.73151e-05
1.71996e-05
1.70813e-05
1.69667e-05
1.68536e-05
1.67514e-05
1.66431e-05
1.6538e-05
1.64365e-05
1.63403e-05
1.6237e-05
1.61435e-05
1.60479e-05
1.59591e-05
1.58619e-05
1.57778e-05
1.56883e-05
1.56035e-05
1.55175e-05
1.54428e-05
1.53609e-05
1.52845e-05
1.51966e-05
1.51291e-05
1.50617e-05
1.49935e-05
1.49134e-05
1.48461e-05
1.47773e-05
1.47175e-05
1.46432e-05
1.45779e-05
1.44973e-05
1.44213e-05
1.99999e-05
1.98259e-05
1.94553e-05
1.92319e-05
1.90263e-05
1.8851e-05
1.86612e-05
1.85136e-05
1.83674e-05
1.82283e-05
1.80794e-05
1.79367e-05
1.77956e-05
1.76668e-05
1.75293e-05
1.74031e-05
1.7275e-05
1.71582e-05
1.70367e-05
1.6921e-05
1.68059e-05
1.67019e-05
1.65906e-05
1.6485e-05
1.63804e-05
1.62821e-05
1.6176e-05
1.60813e-05
1.59824e-05
1.58914e-05
1.57916e-05
1.5705e-05
1.56118e-05
1.55264e-05
1.54369e-05
1.53585e-05
1.52746e-05
1.51943e-05
1.51042e-05
1.50359e-05
1.4962e-05
1.48899e-05
1.48092e-05
1.47383e-05
1.46627e-05
1.45993e-05
1.45222e-05
1.44499e-05
1.43616e-05
1.42831e-05
1.99999e-05
1.98252e-05
1.94503e-05
1.92146e-05
1.90091e-05
1.88403e-05
1.86468e-05
1.84944e-05
1.83468e-05
1.82081e-05
1.80559e-05
1.79131e-05
1.77696e-05
1.76393e-05
1.74997e-05
1.73729e-05
1.72425e-05
1.71244e-05
1.70003e-05
1.6884e-05
1.67674e-05
1.66617e-05
1.65479e-05
1.64418e-05
1.63349e-05
1.62344e-05
1.61259e-05
1.60304e-05
1.59283e-05
1.58353e-05
1.57328e-05
1.56444e-05
1.5548e-05
1.54614e-05
1.53692e-05
1.52875e-05
1.52011e-05
1.51182e-05
1.5026e-05
1.49568e-05
1.48777e-05
1.48015e-05
1.47205e-05
1.4648e-05
1.45658e-05
1.44986e-05
1.44192e-05
1.43428e-05
1.4248e-05
1.41658e-05
1.99999e-05
1.9825e-05
1.94481e-05
1.91986e-05
1.89934e-05
1.88318e-05
1.86365e-05
1.84795e-05
1.83305e-05
1.81927e-05
1.80378e-05
1.78956e-05
1.775e-05
1.76186e-05
1.74774e-05
1.73507e-05
1.72184e-05
1.70991e-05
1.69733e-05
1.68567e-05
1.67388e-05
1.66319e-05
1.65162e-05
1.64095e-05
1.63009e-05
1.61984e-05
1.6088e-05
1.59919e-05
1.5887e-05
1.57918e-05
1.5687e-05
1.55974e-05
1.54978e-05
1.54101e-05
1.53147e-05
1.52313e-05
1.51411e-05
1.50565e-05
1.49634e-05
1.48915e-05
1.48084e-05
1.47294e-05
1.46462e-05
1.45729e-05
1.4486e-05
1.44144e-05
1.43313e-05
1.42532e-05
1.41537e-05
1.40663e-05
1.99999e-05
1.98252e-05
1.94485e-05
1.91851e-05
1.89797e-05
1.88252e-05
1.86305e-05
1.84695e-05
1.83187e-05
1.81823e-05
1.80254e-05
1.78845e-05
1.77371e-05
1.76053e-05
1.7463e-05
1.73368e-05
1.7203e-05
1.70828e-05
1.6956e-05
1.68398e-05
1.67208e-05
1.66131e-05
1.64963e-05
1.63891e-05
1.62792e-05
1.61752e-05
1.60634e-05
1.59665e-05
1.58595e-05
1.57621e-05
1.56552e-05
1.5565e-05
1.54619e-05
1.53739e-05
1.52745e-05
1.51905e-05
1.50963e-05
1.50098e-05
1.49172e-05
1.48412e-05
1.47543e-05
1.46746e-05
1.45879e-05
1.45125e-05
1.44234e-05
1.43471e-05
1.4259e-05
1.41802e-05
1.4077e-05
1.39851e-05
1.99999e-05
1.98258e-05
1.94512e-05
1.91743e-05
1.89683e-05
1.882e-05
1.86285e-05
1.84643e-05
1.83119e-05
1.81768e-05
1.8019e-05
1.78799e-05
1.77311e-05
1.75995e-05
1.74568e-05
1.73315e-05
1.71969e-05
1.70761e-05
1.69489e-05
1.68339e-05
1.67138e-05
1.6606e-05
1.64889e-05
1.63813e-05
1.62704e-05
1.61657e-05
1.60528e-05
1.59552e-05
1.58465e-05
1.57471e-05
1.56384e-05
1.55479e-05
1.54416e-05
1.5353e-05
1.52503e-05
1.51656e-05
1.50681e-05
1.49795e-05
1.48875e-05
1.48074e-05
1.47166e-05
1.46371e-05
1.45468e-05
1.44679e-05
1.43782e-05
1.42975e-05
1.42039e-05
1.41238e-05
1.40178e-05
1.39231e-05
1.99999e-05
1.9827e-05
1.94564e-05
1.91672e-05
1.89596e-05
1.88166e-05
1.86304e-05
1.84641e-05
1.83103e-05
1.81763e-05
1.8019e-05
1.78818e-05
1.77323e-05
1.76013e-05
1.7459e-05
1.73344e-05
1.71996e-05
1.70789e-05
1.69518e-05
1.68381e-05
1.67172e-05
1.66098e-05
1.6493e-05
1.6385e-05
1.62735e-05
1.61689e-05
1.60554e-05
1.59572e-05
1.58474e-05
1.57467e-05
1.56368e-05
1.55459e-05
1.54377e-05
1.53474e-05
1.52428e-05
1.51567e-05
1.50567e-05
1.49669e-05
1.48737e-05
1.4791e-05
1.46964e-05
1.46165e-05
1.45235e-05
1.44404e-05
1.435e-05
1.42655e-05
1.41675e-05
1.40841e-05
1.39768e-05
1.38798e-05
1.99999e-05
1.98286e-05
1.94635e-05
1.91638e-05
1.89541e-05
1.88143e-05
1.86361e-05
1.84685e-05
1.83131e-05
1.81801e-05
1.8024e-05
1.78895e-05
1.77391e-05
1.76094e-05
1.74679e-05
1.73444e-05
1.72099e-05
1.70898e-05
1.69633e-05
1.6852e-05
1.67303e-05
1.66239e-05
1.65083e-05
1.64e-05
1.6288e-05
1.61842e-05
1.60704e-05
1.59713e-05
1.58605e-05
1.57585e-05
1.56478e-05
1.55561e-05
1.54471e-05
1.53545e-05
1.52492e-05
1.51619e-05
1.50598e-05
1.497e-05
1.48742e-05
1.47907e-05
1.46936e-05
1.46118e-05
1.4517e-05
1.44309e-05
1.43381e-05
1.42509e-05
1.41497e-05
1.40615e-05
1.39537e-05
1.38543e-05
1.99999e-05
1.98308e-05
1.94724e-05
1.91644e-05
1.89515e-05
1.88136e-05
1.86444e-05
1.84779e-05
1.83209e-05
1.81886e-05
1.80347e-05
1.79033e-05
1.77525e-05
1.76248e-05
1.74846e-05
1.73626e-05
1.72286e-05
1.71104e-05
1.69847e-05
1.6876e-05
1.67542e-05
1.66493e-05
1.65354e-05
1.64273e-05
1.63155e-05
1.62133e-05
1.60996e-05
1.59999e-05
1.58887e-05
1.57862e-05
1.5675e-05
1.55825e-05
1.54728e-05
1.53773e-05
1.52713e-05
1.51827e-05
1.50781e-05
1.49886e-05
1.48892e-05
1.48046e-05
1.47054e-05
1.46209e-05
1.45242e-05
1.44369e-05
1.43402e-05
1.42518e-05
1.4148e-05
1.40554e-05
1.39471e-05
1.38457e-05
1.99999e-05
1.98334e-05
1.94828e-05
1.91686e-05
1.89522e-05
1.88144e-05
1.86552e-05
1.84914e-05
1.8333e-05
1.82012e-05
1.80503e-05
1.7922e-05
1.77715e-05
1.76463e-05
1.75073e-05
1.73873e-05
1.72538e-05
1.71388e-05
1.70137e-05
1.69078e-05
1.67868e-05
1.66837e-05
1.65716e-05
1.64645e-05
1.63532e-05
1.6253e-05
1.61398e-05
1.60397e-05
1.59283e-05
1.58262e-05
1.5715e-05
1.56218e-05
1.55116e-05
1.54146e-05
1.53084e-05
1.5219e-05
1.51125e-05
1.50239e-05
1.49209e-05
1.48361e-05
1.47352e-05
1.46472e-05
1.45488e-05
1.44606e-05
1.43586e-05
1.4269e-05
1.41618e-05
1.40661e-05
1.39551e-05
1.38518e-05
1.99999e-05
1.98365e-05
1.9494e-05
1.91771e-05
1.8956e-05
1.88171e-05
1.86679e-05
1.85085e-05
1.83489e-05
1.82177e-05
1.80702e-05
1.79449e-05
1.77953e-05
1.76729e-05
1.7535e-05
1.74177e-05
1.72845e-05
1.71738e-05
1.70492e-05
1.6946e-05
1.68271e-05
1.67258e-05
1.66154e-05
1.65104e-05
1.64e-05
1.63016e-05
1.61894e-05
1.60892e-05
1.59777e-05
1.58769e-05
1.57658e-05
1.56721e-05
1.55608e-05
1.54639e-05
1.5357e-05
1.52668e-05
1.51593e-05
1.50707e-05
1.49654e-05
1.48802e-05
1.47769e-05
1.46875e-05
1.45875e-05
1.44985e-05
1.4392e-05
1.43027e-05
1.41917e-05
1.40947e-05
1.39794e-05
1.38759e-05
1.99999e-05
1.984e-05
1.95061e-05
1.91887e-05
1.89629e-05
1.88221e-05
1.86823e-05
1.85289e-05
1.83685e-05
1.82379e-05
1.80939e-05
1.79714e-05
1.78233e-05
1.7704e-05
1.75667e-05
1.74528e-05
1.73201e-05
1.72142e-05
1.709e-05
1.69898e-05
1.68733e-05
1.67742e-05
1.66656e-05
1.65633e-05
1.64544e-05
1.63577e-05
1.62467e-05
1.61468e-05
1.60357e-05
1.59365e-05
1.58255e-05
1.57316e-05
1.56189e-05
1.55235e-05
1.54152e-05
1.53245e-05
1.52167e-05
1.5127e-05
1.50213e-05
1.49345e-05
1.48285e-05
1.47395e-05
1.46374e-05
1.4546e-05
1.44377e-05
1.43475e-05
1.42322e-05
1.41353e-05
1.40152e-05
1.39146e-05
1.99999e-05
1.98437e-05
1.95186e-05
1.92032e-05
1.89726e-05
1.88294e-05
1.86979e-05
1.85516e-05
1.83913e-05
1.82615e-05
1.81204e-05
1.8001e-05
1.78545e-05
1.77387e-05
1.76017e-05
1.74913e-05
1.73599e-05
1.72581e-05
1.7135e-05
1.7038e-05
1.69239e-05
1.68278e-05
1.67206e-05
1.66215e-05
1.65148e-05
1.64196e-05
1.63098e-05
1.62109e-05
1.61006e-05
1.6003e-05
1.58923e-05
1.57981e-05
1.56847e-05
1.55908e-05
1.54814e-05
1.53902e-05
1.52824e-05
1.51915e-05
1.50859e-05
1.49969e-05
1.48887e-05
1.48009e-05
1.4696e-05
1.46023e-05
1.44935e-05
1.44008e-05
1.42825e-05
1.41847e-05
1.40628e-05
1.39635e-05
1.99999e-05
1.98477e-05
1.95314e-05
1.92199e-05
1.89851e-05
1.88393e-05
1.87144e-05
1.85759e-05
1.84168e-05
1.82883e-05
1.81494e-05
1.80331e-05
1.78884e-05
1.77763e-05
1.76392e-05
1.75324e-05
1.74031e-05
1.73046e-05
1.71831e-05
1.70894e-05
1.69775e-05
1.68851e-05
1.67792e-05
1.66837e-05
1.65796e-05
1.64856e-05
1.63771e-05
1.628e-05
1.61707e-05
1.60743e-05
1.59643e-05
1.58699e-05
1.57564e-05
1.56634e-05
1.55536e-05
1.54623e-05
1.53536e-05
1.52627e-05
1.51564e-05
1.50652e-05
1.49563e-05
1.48684e-05
1.47607e-05
1.46663e-05
1.45564e-05
1.44598e-05
1.43407e-05
1.42415e-05
1.41195e-05
1.40187e-05
1.99999e-05
1.98517e-05
1.95443e-05
1.92383e-05
1.90002e-05
1.88519e-05
1.87319e-05
1.86013e-05
1.8445e-05
1.83177e-05
1.81805e-05
1.80671e-05
1.79245e-05
1.78156e-05
1.76788e-05
1.75755e-05
1.74483e-05
1.73528e-05
1.72331e-05
1.71429e-05
1.70333e-05
1.69445e-05
1.68401e-05
1.67487e-05
1.66468e-05
1.65541e-05
1.64475e-05
1.63523e-05
1.62442e-05
1.61491e-05
1.60394e-05
1.59455e-05
1.5832e-05
1.57402e-05
1.56291e-05
1.55391e-05
1.54282e-05
1.53387e-05
1.52301e-05
1.51375e-05
1.50293e-05
1.49396e-05
1.48297e-05
1.47356e-05
1.46232e-05
1.45228e-05
1.44044e-05
1.43038e-05
1.41815e-05
1.40785e-05
1.99999e-05
1.98559e-05
1.95573e-05
1.92579e-05
1.90177e-05
1.88671e-05
1.87502e-05
1.86273e-05
1.84752e-05
1.83493e-05
1.82135e-05
1.81024e-05
1.79626e-05
1.78558e-05
1.77201e-05
1.76199e-05
1.74948e-05
1.74022e-05
1.72841e-05
1.71975e-05
1.70902e-05
1.70047e-05
1.69026e-05
1.68154e-05
1.67148e-05
1.66243e-05
1.65199e-05
1.64261e-05
1.63196e-05
1.6226e-05
1.61163e-05
1.60231e-05
1.59099e-05
1.58194e-05
1.57064e-05
1.56182e-05
1.55052e-05
1.54172e-05
1.5305e-05
1.52128e-05
1.51049e-05
1.50126e-05
1.49015e-05
1.48075e-05
1.4691e-05
1.45888e-05
1.44714e-05
1.43686e-05
1.42461e-05
1.41426e-05
1.99999e-05
1.986e-05
1.95701e-05
1.92782e-05
1.90374e-05
1.88847e-05
1.87693e-05
1.86537e-05
1.85071e-05
1.83826e-05
1.8248e-05
1.81389e-05
1.80018e-05
1.78966e-05
1.77624e-05
1.7665e-05
1.75418e-05
1.7452e-05
1.73352e-05
1.72526e-05
1.71473e-05
1.70649e-05
1.69656e-05
1.68823e-05
1.67827e-05
1.66951e-05
1.6593e-05
1.65002e-05
1.63958e-05
1.63031e-05
1.61938e-05
1.61012e-05
1.59893e-05
1.58981e-05
1.57853e-05
1.56969e-05
1.55839e-05
1.54953e-05
1.53798e-05
1.52901e-05
1.518e-05
1.50858e-05
1.49749e-05
1.48787e-05
1.47583e-05
1.46569e-05
1.45393e-05
1.44337e-05
1.4311e-05
1.42102e-05
1.99999e-05
1.98641e-05
1.95826e-05
1.92987e-05
1.90588e-05
1.89043e-05
1.87893e-05
1.86803e-05
1.854e-05
1.84174e-05
1.82836e-05
1.81765e-05
1.80414e-05
1.79381e-05
1.78052e-05
1.77105e-05
1.75888e-05
1.75014e-05
1.7386e-05
1.73073e-05
1.72033e-05
1.7125e-05
1.70283e-05
1.6948e-05
1.68501e-05
1.67658e-05
1.66651e-05
1.65742e-05
1.64718e-05
1.63792e-05
1.62711e-05
1.61791e-05
1.60684e-05
1.59754e-05
1.58648e-05
1.57742e-05
1.56627e-05
1.55708e-05
1.54547e-05
1.53674e-05
1.52526e-05
1.51587e-05
1.50478e-05
1.49468e-05
1.48249e-05
1.47256e-05
1.46052e-05
1.44969e-05
1.43759e-05
1.42795e-05
1.99999e-05
1.98682e-05
1.95949e-05
1.93193e-05
1.90815e-05
1.89256e-05
1.88104e-05
1.87072e-05
1.85734e-05
1.84533e-05
1.83203e-05
1.82148e-05
1.8081e-05
1.79803e-05
1.78479e-05
1.77562e-05
1.76354e-05
1.755e-05
1.74363e-05
1.7361e-05
1.7258e-05
1.71844e-05
1.70896e-05
1.70121e-05
1.69169e-05
1.68352e-05
1.67358e-05
1.66477e-05
1.6546e-05
1.64539e-05
1.63471e-05
1.62565e-05
1.61443e-05
1.60525e-05
1.59419e-05
1.58505e-05
1.57389e-05
1.56435e-05
1.55299e-05
1.54413e-05
1.53222e-05
1.52312e-05
1.51169e-05
1.50111e-05
1.48911e-05
1.47921e-05
1.4667e-05
1.45578e-05
1.44404e-05
1.43473e-05
1.99999e-05
1.98721e-05
1.96069e-05
1.93397e-05
1.9105e-05
1.89485e-05
1.88326e-05
1.87342e-05
1.86071e-05
1.84898e-05
1.83581e-05
1.82535e-05
1.81211e-05
1.80224e-05
1.78908e-05
1.78017e-05
1.7681e-05
1.7598e-05
1.74854e-05
1.74133e-05
1.73113e-05
1.72426e-05
1.71487e-05
1.70746e-05
1.69823e-05
1.69024e-05
1.68051e-05
1.67194e-05
1.66179e-05
1.6527e-05
1.64218e-05
1.63312e-05
1.62177e-05
1.61287e-05
1.60154e-05
1.59254e-05
1.58105e-05
1.5715e-05
1.56031e-05
1.55097e-05
1.53903e-05
1.53013e-05
1.51797e-05
1.5073e-05
1.49561e-05
1.48534e-05
1.47238e-05
1.46171e-05
1.45031e-05
1.44107e-05
1.99999e-05
1.9876e-05
1.96186e-05
1.93596e-05
1.91288e-05
1.89725e-05
1.8856e-05
1.87613e-05
1.86408e-05
1.85267e-05
1.83972e-05
1.82922e-05
1.81621e-05
1.80641e-05
1.79342e-05
1.78465e-05
1.77257e-05
1.76452e-05
1.75329e-05
1.74643e-05
1.7363e-05
1.72989e-05
1.72057e-05
1.7136e-05
1.70453e-05
1.69676e-05
1.68734e-05
1.67883e-05
1.66875e-05
1.65985e-05
1.64946e-05
1.64017e-05
1.62904e-05
1.62016e-05
1.60861e-05
1.5997e-05
1.5878e-05
1.57861e-05
1.5671e-05
1.55737e-05
1.54577e-05
1.53654e-05
1.52371e-05
1.5134e-05
1.50168e-05
1.49079e-05
1.47775e-05
1.46746e-05
1.45615e-05
1.4468e-05
1.99999e-05
1.98797e-05
1.96298e-05
1.93791e-05
1.91527e-05
1.89976e-05
1.88805e-05
1.87885e-05
1.86744e-05
1.85641e-05
1.84369e-05
1.83316e-05
1.82034e-05
1.81058e-05
1.79778e-05
1.78904e-05
1.777e-05
1.76912e-05
1.75791e-05
1.75138e-05
1.74131e-05
1.73533e-05
1.72607e-05
1.71956e-05
1.71058e-05
1.70312e-05
1.69394e-05
1.68542e-05
1.67553e-05
1.66684e-05
1.65633e-05
1.64706e-05
1.63609e-05
1.62706e-05
1.61546e-05
1.60637e-05
1.59447e-05
1.58532e-05
1.57329e-05
1.5637e-05
1.5521e-05
1.5422e-05
1.52925e-05
1.51929e-05
1.507e-05
1.49573e-05
1.48297e-05
1.47288e-05
1.46131e-05
1.45187e-05
1.99999e-05
1.98833e-05
1.96407e-05
1.9398e-05
1.91764e-05
1.90234e-05
1.89059e-05
1.88161e-05
1.87078e-05
1.86021e-05
1.84769e-05
1.8372e-05
1.82445e-05
1.81482e-05
1.80207e-05
1.7934e-05
1.78139e-05
1.77353e-05
1.76249e-05
1.75611e-05
1.74616e-05
1.74058e-05
1.73137e-05
1.7253e-05
1.71643e-05
1.70934e-05
1.70024e-05
1.69181e-05
1.6822e-05
1.67348e-05
1.66291e-05
1.65383e-05
1.64281e-05
1.63362e-05
1.622e-05
1.61278e-05
1.6009e-05
1.59146e-05
1.57923e-05
1.56984e-05
1.55774e-05
1.54743e-05
1.53468e-05
1.52464e-05
1.5117e-05
1.50043e-05
1.48792e-05
1.47773e-05
1.46583e-05
1.45643e-05
1.99999e-05
1.98868e-05
1.9651e-05
1.94162e-05
1.91997e-05
1.90496e-05
1.89321e-05
1.88441e-05
1.87412e-05
1.86401e-05
1.85174e-05
1.84131e-05
1.82863e-05
1.81908e-05
1.80635e-05
1.79772e-05
1.78571e-05