/*--------------------------------*- C++ -*----------------------------------*\
  =========                 |
  \\      /  F ield         | OpenFOAM: The Open Source CFD Toolbox
   \\    /   O peration     | Website:  https://openfoam.org
    \\  /    A nd           | Version:  7
     \\/     M anipulation  |
\*---------------------------------------------------------------------------*/
FoamFile
{
    version     2.0;
    format      ascii;
    class       volScalarField;
    location    "0.35";
    object      k_0;
}
// * * * * * * * * * * * * * * * * * * * * * * * * * * * * * * * * * * * * * //

dimensions      [0 2 -2 0 0 0 0];

internalField   nonuniform List<scalar> 
70000
(
1.08549e-05
4.21872e-06
2.82427e-06
2.31667e-06
1.99728e-06
1.75689e-06
1.56482e-06
1.40791e-06
1.27703e-06
1.16632e-06
1.07128e-06
9.8929e-07
9.17601e-07
8.54969e-07
7.99398e-07
7.5042e-07
7.06332e-07
6.67229e-07
6.31523e-07
5.99774e-07
5.70352e-07
5.44225e-07
5.19601e-07
4.97851e-07
4.76945e-07
4.58648e-07
4.40676e-07
4.25128e-07
4.09512e-07
3.96174e-07
3.82486e-07
3.70955e-07
3.58841e-07
3.48834e-07
3.3797e-07
3.29311e-07
3.19388e-07
3.1197e-07
3.02728e-07
2.96432e-07
2.87726e-07
2.82376e-07
2.74136e-07
2.69618e-07
2.61626e-07
2.58587e-07
2.49798e-07
2.57821e-07
2.48287e-07
3.19514e-07
1.72794e-05
1.13672e-05
8.52031e-06
7.01004e-06
6.03661e-06
5.31017e-06
4.73043e-06
4.25656e-06
3.86125e-06
3.52691e-06
3.23988e-06
2.99227e-06
2.77573e-06
2.58655e-06
2.41865e-06
2.27068e-06
2.13743e-06
2.01927e-06
1.91131e-06
1.81536e-06
1.72638e-06
1.64743e-06
1.57294e-06
1.5072e-06
1.44395e-06
1.38864e-06
1.33427e-06
1.28723e-06
1.24001e-06
1.19964e-06
1.15825e-06
1.12333e-06
1.08668e-06
1.05641e-06
1.0235e-06
9.97353e-07
9.67233e-07
9.44878e-07
9.16811e-07
8.97828e-07
8.7143e-07
8.55262e-07
8.30301e-07
8.16666e-07
7.92411e-07
7.82769e-07
7.56691e-07
7.71805e-07
7.51168e-07
8.21043e-07
1.937e-05
1.61296e-05
1.32908e-05
1.12892e-05
9.82775e-06
8.69503e-06
7.77688e-06
7.01898e-06
6.38201e-06
5.84064e-06
5.37412e-06
4.97055e-06
4.61663e-06
4.30685e-06
4.03126e-06
3.78802e-06
3.56847e-06
3.37362e-06
3.19523e-06
3.03666e-06
2.88926e-06
2.75856e-06
2.63492e-06
2.52593e-06
2.4208e-06
2.32892e-06
2.23847e-06
2.16018e-06
2.08158e-06
2.01424e-06
1.9453e-06
1.88703e-06
1.82587e-06
1.7754e-06
1.72028e-06
1.67682e-06
1.62621e-06
1.58913e-06
1.54193e-06
1.51037e-06
1.46609e-06
1.43911e-06
1.39727e-06
1.37453e-06
1.33388e-06
1.31711e-06
1.27426e-06
1.28548e-06
1.26253e-06
1.29542e-06
1.9861e-05
1.826e-05
1.60856e-05
1.42e-05
1.26396e-05
1.1348e-05
1.02595e-05
9.33716e-06
8.5451e-06
7.86187e-06
7.26645e-06
6.747e-06
6.28779e-06
5.88351e-06
5.5215e-06
5.20055e-06
4.90918e-06
4.64986e-06
4.41119e-06
4.19882e-06
4.00038e-06
3.82445e-06
3.65713e-06
3.50974e-06
3.36692e-06
3.24208e-06
3.11886e-06
3.01199e-06
2.90468e-06
2.81243e-06
2.71804e-06
2.63809e-06
2.55398e-06
2.48482e-06
2.40858e-06
2.3492e-06
2.27886e-06
2.22821e-06
2.16261e-06
2.1193e-06
2.05787e-06
2.02067e-06
1.96265e-06
1.93123e-06
1.87506e-06
1.85071e-06
1.7935e-06
1.79136e-06
1.77558e-06
1.77754e-06
1.99706e-05
1.78459e-05
1.60749e-05
1.47666e-05
1.36026e-05
1.25377e-05
1.1569e-05
1.07014e-05
9.91984e-06
9.22445e-06
8.60353e-06
8.05123e-06
7.55425e-06
7.11093e-06
6.7083e-06
6.34766e-06
6.01635e-06
5.71961e-06
5.44371e-06
5.19742e-06
4.96503e-06
4.75874e-06
4.56071e-06
4.38617e-06
4.21576e-06
4.06654e-06
3.91857e-06
3.78975e-06
3.66018e-06
3.54833e-06
3.43365e-06
3.33645e-06
3.23343e-06
3.1494e-06
3.05521e-06
2.98314e-06
2.89578e-06
2.83409e-06
2.75261e-06
2.69945e-06
2.62323e-06
2.57727e-06
2.50534e-06
2.46607e-06
2.39704e-06
2.36531e-06
2.30062e-06
2.27617e-06
2.2639e-06
2.23903e-06
2.00096e-05
1.47038e-05
1.37482e-05
1.32116e-05
1.25922e-05
1.19282e-05
1.12788e-05
1.06588e-05
1.00817e-05
9.5482e-06
9.047e-06
8.58145e-06
8.14657e-06
7.74768e-06
7.37432e-06
7.0328e-06
6.71196e-06
6.42107e-06
6.14556e-06
5.89789e-06
5.66007e-06
5.44808e-06
5.24135e-06
5.05859e-06
4.87795e-06
4.71899e-06
4.56016e-06
4.42106e-06
4.28045e-06
4.15854e-06
4.03262e-06
3.92618e-06
3.81157e-06
3.71938e-06
3.61338e-06
3.53405e-06
3.43517e-06
3.36667e-06
3.27432e-06
3.21459e-06
3.12822e-06
3.0759e-06
2.99483e-06
2.94866e-06
2.87267e-06
2.8315e-06
2.76838e-06
2.72113e-06
2.70441e-06
2.66214e-06
2.01332e-05
1.54663e-05
9.63446e-06
9.39921e-06
9.49451e-06
9.49431e-06
9.43646e-06
9.29953e-06
9.05912e-06
8.78621e-06
8.4913e-06
8.19497e-06
7.90212e-06
7.6202e-06
7.34138e-06
7.08253e-06
6.8326e-06
6.60075e-06
6.37329e-06
6.16561e-06
5.95951e-06
5.77389e-06
5.5879e-06
5.42222e-06
5.25493e-06
5.10633e-06
4.95585e-06
4.82305e-06
4.68722e-06
4.56905e-06
4.44488e-06
4.34075e-06
4.22543e-06
4.13462e-06
4.02632e-06
3.94734e-06
3.84552e-06
3.77622e-06
3.6808e-06
3.61922e-06
3.53012e-06
3.47455e-06
3.39229e-06
3.33996e-06
3.26673e-06
3.21349e-06
3.15947e-06
3.09642e-06
3.07475e-06
3.01916e-06
2.01714e-05
1.86753e-05
8.68855e-06
5.54041e-06
5.63138e-06
5.93658e-06
6.29586e-06
6.58254e-06
6.76365e-06
6.87369e-06
6.89469e-06
6.87593e-06
6.82421e-06
6.73741e-06
6.62587e-06
6.50516e-06
6.36523e-06
6.2254e-06
6.07894e-06
5.94063e-06
5.79519e-06
5.6618e-06
5.52246e-06
5.39649e-06
5.26544e-06
5.14922e-06
5.02883e-06
4.92158e-06
4.80884e-06
4.71064e-06
4.60377e-06
4.51552e-06
4.41309e-06
4.3348e-06
4.23642e-06
4.16681e-06
4.07319e-06
4.01035e-06
3.92198e-06
3.86432e-06
3.78238e-06
3.72748e-06
3.65412e-06
3.59796e-06
3.53676e-06
3.47527e-06
3.43263e-06
3.36357e-06
3.34032e-06
3.279e-06
2.01672e-05
1.97237e-05
1.61652e-05
4.85816e-06
3.04241e-06
3.10648e-06
3.37685e-06
3.80822e-06
4.17553e-06
4.49533e-06
4.74404e-06
4.93571e-06
5.07671e-06
5.17928e-06
5.23763e-06
5.27562e-06
5.27922e-06
5.27114e-06
5.24792e-06
5.21255e-06
5.16114e-06
5.10911e-06
5.04537e-06
4.98364e-06
4.91292e-06
4.84521e-06
4.76918e-06
4.70003e-06
4.6228e-06
4.55576e-06
4.47808e-06
4.41549e-06
4.33764e-06
4.28023e-06
4.20292e-06
4.1501e-06
4.0749e-06
4.02575e-06
3.9553e-06
3.90799e-06
3.84364e-06
3.79488e-06
3.73939e-06
3.68584e-06
3.64162e-06
3.58235e-06
3.55037e-06
3.48652e-06
3.46543e-06
3.4086e-06
2.01477e-05
1.99342e-05
1.90649e-05
1.4495e-05
5.23702e-06
2.15371e-06
1.91491e-06
1.99513e-06
2.21023e-06
2.5108e-06
2.78779e-06
3.04358e-06
3.26913e-06
3.46867e-06
3.63256e-06
3.77362e-06
3.88491e-06
3.97624e-06
4.04595e-06
4.10185e-06
4.13885e-06
4.16547e-06
4.17977e-06
4.18402e-06
4.18102e-06
4.17382e-06
4.15813e-06
4.14165e-06
4.11523e-06
4.09281e-06
4.05904e-06
4.03336e-06
3.99446e-06
3.96706e-06
3.92426e-06
3.89639e-06
3.85186e-06
3.82277e-06
3.77746e-06
3.74564e-06
3.70412e-06
3.66766e-06
3.63248e-06
3.59051e-06
3.56208e-06
3.51639e-06
3.49294e-06
3.44377e-06
3.42759e-06
3.38469e-06
2.01217e-05
1.9966e-05
1.96421e-05
1.8545e-05
1.52074e-05
8.34747e-06
3.09715e-06
1.6321e-06
1.44268e-06
1.45069e-06
1.52921e-06
1.69286e-06
1.87584e-06
2.05541e-06
2.22595e-06
2.38849e-06
2.53558e-06
2.67012e-06
2.78796e-06
2.89461e-06
2.98616e-06
3.06688e-06
3.13539e-06
3.1944e-06
3.2427e-06
3.28487e-06
3.31734e-06
3.3462e-06
3.36552e-06
3.38366e-06
3.39262e-06
3.40173e-06
3.40409e-06
3.40412e-06
3.40138e-06
3.39786e-06
3.38886e-06
3.38279e-06
3.37017e-06
3.3603e-06
3.34775e-06
3.3319e-06
3.32089e-06
3.30068e-06
3.28991e-06
3.26811e-06
3.2567e-06
3.23115e-06
3.2232e-06
3.2021e-06
2.00982e-05
1.99327e-05
1.97571e-05
1.93518e-05
1.85044e-05
1.65318e-05
1.2315e-05
6.8402e-06
2.97162e-06
1.48954e-06
1.24259e-06
1.14836e-06
1.1537e-06
1.19807e-06
1.29244e-06
1.40215e-06
1.51505e-06
1.62793e-06
1.73842e-06
1.84607e-06
1.94692e-06
2.04227e-06
2.13006e-06
2.21178e-06
2.286e-06
2.35466e-06
2.41597e-06
2.47288e-06
2.52245e-06
2.56907e-06
2.60833e-06
2.6456e-06
2.67672e-06
2.70584e-06
2.72918e-06
2.75236e-06
2.76956e-06
2.78672e-06
2.80014e-06
2.8114e-06
2.82259e-06
2.82861e-06
2.83749e-06
2.8402e-06
2.84596e-06
2.84691e-06
2.84928e-06
2.84783e-06
2.85014e-06
2.84699e-06
2.00782e-05
1.98876e-05
1.97567e-05
1.94603e-05
1.91449e-05
1.86392e-05
1.75507e-05
1.54176e-05
1.17183e-05
7.41213e-06
3.95062e-06
1.8949e-06
1.20415e-06
1.05659e-06
9.80796e-07
9.44931e-07
9.57344e-07
9.94173e-07
1.05708e-06
1.12338e-06
1.1939e-06
1.26587e-06
1.33823e-06
1.41055e-06
1.48091e-06
1.54902e-06
1.614e-06
1.67645e-06
1.73489e-06
1.79153e-06
1.84313e-06
1.89346e-06
1.93908e-06
1.98308e-06
2.02272e-06
2.06116e-06
2.0959e-06
2.12819e-06
2.15952e-06
2.18653e-06
2.21428e-06
2.23708e-06
2.26186e-06
2.28046e-06
2.30313e-06
2.3182e-06
2.33739e-06
2.35051e-06
2.36634e-06
2.37887e-06
2.00614e-05
1.98539e-05
1.97341e-05
1.94706e-05
1.92542e-05
1.90459e-05
1.87337e-05
1.81869e-05
1.70884e-05
1.52174e-05
1.25338e-05
9.18402e-06
5.91302e-06
3.42678e-06
1.84666e-06
1.1553e-06
9.62239e-07
8.90039e-07
8.34852e-07
7.98672e-07
8.01926e-07
8.17503e-07
8.50107e-07
8.90483e-07
9.31974e-07
9.768e-07
1.02305e-06
1.07045e-06
1.118e-06
1.16641e-06
1.21284e-06
1.25942e-06
1.30419e-06
1.34787e-06
1.39e-06
1.43098e-06
1.47064e-06
1.50766e-06
1.54528e-06
1.57936e-06
1.61377e-06
1.64524e-06
1.67764e-06
1.70519e-06
1.73673e-06
1.76177e-06
1.78802e-06
1.81394e-06
1.83723e-06
1.85971e-06
2.00476e-05
1.98303e-05
1.97075e-05
1.94484e-05
1.92711e-05
1.91139e-05
1.89636e-05
1.87479e-05
1.84586e-05
1.79055e-05
1.70666e-05
1.56756e-05
1.38459e-05
1.14703e-05
8.77055e-06
6.15051e-06
3.98936e-06
2.433e-06
1.46133e-06
1.01272e-06
8.5773e-07
7.96746e-07
7.48648e-07
7.09743e-07
6.83511e-07
6.84304e-07
6.91874e-07
7.09249e-07
7.32429e-07
7.58938e-07
7.85441e-07
8.14603e-07
8.45166e-07
8.76156e-07
9.08341e-07
9.40887e-07
9.73734e-07
1.00556e-06
1.03837e-06
1.07002e-06
1.10138e-06
1.13235e-06
1.16366e-06
1.1918e-06
1.22392e-06
1.25165e-06
1.27796e-06
1.30797e-06
1.33553e-06
1.35874e-06
2.00363e-05
1.98125e-05
1.96849e-05
1.94181e-05
1.9257e-05
1.91074e-05
1.89987e-05
1.8847e-05
1.87092e-05
1.84963e-05
1.82421e-05
1.78234e-05
1.72153e-05
1.6337e-05
1.51166e-05
1.35646e-05
1.17256e-05
9.61223e-06
7.45008e-06
5.44339e-06
3.77995e-06
2.52156e-06
1.63403e-06
1.10754e-06
8.57726e-07
7.56373e-07
7.07619e-07
6.70725e-07
6.34826e-07
6.08885e-07
5.90899e-07
5.904e-07
5.94131e-07
6.02881e-07
6.16975e-07
6.32838e-07
6.49964e-07
6.67804e-07
6.8719e-07
7.07942e-07
7.28892e-07
7.51195e-07
7.74551e-07
7.9611e-07
8.21682e-07
8.45102e-07
8.66013e-07
8.92126e-07
9.17528e-07
9.37279e-07
2.00272e-05
1.97986e-05
1.96657e-05
1.93961e-05
1.92312e-05
1.908e-05
1.89803e-05
1.88507e-05
1.87328e-05
1.85929e-05
1.84543e-05
1.82841e-05
1.80713e-05
1.77843e-05
1.73902e-05
1.684e-05
1.61167e-05
1.51786e-05
1.40092e-05
1.26448e-05
1.11061e-05
9.41119e-06
7.67443e-06
6.02545e-06
4.53902e-06
3.32373e-06
2.36826e-06
1.65088e-06
1.16352e-06
8.81331e-07
7.37961e-07
6.69967e-07
6.31087e-07
6.01914e-07
5.74041e-07
5.48583e-07
5.2991e-07
5.17668e-07
5.14644e-07
5.16319e-07
5.20675e-07
5.28513e-07
5.38614e-07
5.48549e-07
5.61462e-07
5.7462e-07
5.8583e-07
6.0189e-07
6.18703e-07
6.32241e-07
2.002e-05
1.979e-05
1.96455e-05
1.93797e-05
1.92069e-05
1.90511e-05
1.89418e-05
1.88243e-05
1.87108e-05
1.85861e-05
1.84663e-05
1.83396e-05
1.82131e-05
1.80699e-05
1.7911e-05
1.77094e-05
1.74611e-05
1.71358e-05
1.67221e-05
1.61845e-05
1.5533e-05
1.47259e-05
1.37852e-05
1.26899e-05
1.15097e-05
1.02099e-05
8.83543e-06
7.45187e-06
6.11859e-06
4.89648e-06
3.81284e-06
2.92283e-06
2.1992e-06
1.62768e-06
1.20447e-06
9.20353e-07
7.49647e-07
6.54886e-07
6.02884e-07
5.70856e-07
5.45706e-07
5.24265e-07
5.03263e-07
4.84747e-07
4.70429e-07
4.61444e-07
4.5582e-07
4.5624e-07
4.58242e-07
4.63214e-07
2.00145e-05
1.97898e-05
1.96192e-05
1.93663e-05
1.91862e-05
1.90242e-05
1.89057e-05
1.87877e-05
1.86705e-05
1.85496e-05
1.84359e-05
1.83169e-05
1.8204e-05
1.80842e-05
1.79704e-05
1.78461e-05
1.77219e-05
1.75762e-05
1.74172e-05
1.72154e-05
1.69826e-05
1.66872e-05
1.63362e-05
1.58982e-05
1.53867e-05
1.47803e-05
1.40829e-05
1.32837e-05
1.24059e-05
1.14431e-05
1.04386e-05
9.3615e-06
8.25162e-06
7.14609e-06
6.07454e-06
5.07232e-06
4.15466e-06
3.35059e-06
2.67202e-06
2.10399e-06
1.63621e-06
1.26577e-06
9.89313e-07
7.99265e-07
6.76527e-07
6.03068e-07
5.56733e-07
5.3064e-07
5.08629e-07
5.00026e-07
2.00103e-05
1.97938e-05
1.95925e-05
1.93525e-05
1.91675e-05
1.89985e-05
1.88721e-05
1.87512e-05
1.86304e-05
1.85058e-05
1.839e-05
1.82693e-05
1.81584e-05
1.80452e-05
1.79376e-05
1.78266e-05
1.77194e-05
1.76096e-05
1.75037e-05
1.7388e-05
1.72714e-05
1.71411e-05
1.69976e-05
1.68268e-05
1.66348e-05
1.64042e-05
1.61376e-05
1.58206e-05
1.54562e-05
1.50324e-05
1.45515e-05
1.40119e-05
1.34069e-05
1.27398e-05
1.20184e-05
1.12471e-05
1.04384e-05
9.59496e-06
8.71115e-06
7.81387e-06
6.9186e-06
6.04807e-06
5.21268e-06
4.43981e-06
3.7257e-06
3.10647e-06
2.57476e-06
2.13943e-06
1.77063e-06
1.50744e-06
2.00071e-05
1.98011e-05
1.9568e-05
1.9339e-05
1.91498e-05
1.89745e-05
1.88399e-05
1.87165e-05
1.8591e-05
1.84635e-05
1.83431e-05
1.82198e-05
1.81045e-05
1.79901e-05
1.78793e-05
1.77694e-05
1.76645e-05
1.75627e-05
1.7463e-05
1.73622e-05
1.72625e-05
1.71656e-05
1.70668e-05
1.69633e-05
1.68616e-05
1.67504e-05
1.66305e-05
1.64988e-05
1.63509e-05
1.61871e-05
1.5994e-05
1.57842e-05
1.55392e-05
1.52623e-05
1.49508e-05
1.46049e-05
1.42157e-05
1.37874e-05
1.33158e-05
1.28041e-05
1.22515e-05
1.16598e-05
1.10321e-05
1.03753e-05
9.6964e-06
9.00541e-06
8.27823e-06
7.57522e-06
6.86024e-06
6.22184e-06
2.00047e-05
1.98094e-05
1.9545e-05
1.93259e-05
1.91326e-05
1.89522e-05
1.88086e-05
1.86832e-05
1.85527e-05
1.8423e-05
1.82977e-05
1.81711e-05
1.8051e-05
1.79353e-05
1.78191e-05
1.7708e-05
1.75974e-05
1.74949e-05
1.7392e-05
1.72913e-05
1.71931e-05
1.71033e-05
1.70107e-05
1.6917e-05
1.68308e-05
1.67408e-05
1.66492e-05
1.65605e-05
1.64683e-05
1.63802e-05
1.6276e-05
1.6182e-05
1.60705e-05
1.59514e-05
1.58225e-05
1.56853e-05
1.55276e-05
1.53533e-05
1.51562e-05
1.49455e-05
1.47099e-05
1.44507e-05
1.41587e-05
1.38441e-05
1.34952e-05
1.3132e-05
1.27237e-05
1.23145e-05
1.18373e-05
1.13845e-05
2.0003e-05
1.98183e-05
1.95235e-05
1.93124e-05
1.91153e-05
1.89315e-05
1.87786e-05
1.8651e-05
1.8516e-05
1.83841e-05
1.82542e-05
1.81241e-05
1.79995e-05
1.7882e-05
1.77608e-05
1.76473e-05
1.75327e-05
1.74277e-05
1.73215e-05
1.72175e-05
1.7115e-05
1.70226e-05
1.69271e-05
1.68304e-05
1.67443e-05
1.6657e-05
1.65701e-05
1.6488e-05
1.64042e-05
1.63294e-05
1.62396e-05
1.61688e-05
1.60847e-05
1.6002e-05
1.59226e-05
1.58457e-05
1.57621e-05
1.56757e-05
1.55777e-05
1.54871e-05
1.5389e-05
1.52798e-05
1.51567e-05
1.50259e-05
1.4881e-05
1.47323e-05
1.45559e-05
1.43837e-05
1.41581e-05
1.39375e-05
2.00018e-05
1.98269e-05
1.95039e-05
1.9298e-05
1.90978e-05
1.89122e-05
1.87501e-05
1.86198e-05
1.84811e-05
1.83472e-05
1.82131e-05
1.80794e-05
1.79508e-05
1.78311e-05
1.77056e-05
1.7589e-05
1.74713e-05
1.73633e-05
1.72543e-05
1.71466e-05
1.70412e-05
1.6946e-05
1.68473e-05
1.67466e-05
1.66575e-05
1.6566e-05
1.64745e-05
1.63884e-05
1.63024e-05
1.62252e-05
1.61344e-05
1.60661e-05
1.59879e-05
1.59102e-05
1.58396e-05
1.57723e-05
1.57024e-05
1.56332e-05
1.55538e-05
1.54885e-05
1.5426e-05
1.53552e-05
1.52801e-05
1.52076e-05
1.51327e-05
1.50633e-05
1.49747e-05
1.48998e-05
1.47913e-05
1.46795e-05
2.00009e-05
1.98304e-05
1.94878e-05
1.92829e-05
1.90802e-05
1.88944e-05
1.87239e-05
1.85901e-05
1.84486e-05
1.83127e-05
1.81747e-05
1.80376e-05
1.79056e-05
1.77834e-05
1.76542e-05
1.75344e-05
1.7414e-05
1.7303e-05
1.71913e-05
1.70804e-05
1.69723e-05
1.68747e-05
1.67728e-05
1.66696e-05
1.65765e-05
1.6483e-05
1.63869e-05
1.62977e-05
1.62081e-05
1.61265e-05
1.60327e-05
1.59582e-05
1.58755e-05
1.57938e-05
1.57189e-05
1.56498e-05
1.55766e-05
1.55085e-05
1.54286e-05
1.53695e-05
1.53147e-05
1.52513e-05
1.51822e-05
1.51214e-05
1.50607e-05
1.50067e-05
1.49365e-05
1.48799e-05
1.47991e-05
1.47186e-05
2.00003e-05
1.98288e-05
1.94747e-05
1.92672e-05
1.90626e-05
1.88784e-05
1.87003e-05
1.85622e-05
1.84188e-05
1.82811e-05
1.81394e-05
1.79995e-05
1.78642e-05
1.77396e-05
1.76072e-05
1.74846e-05
1.73617e-05
1.72482e-05
1.71333e-05
1.70201e-05
1.69095e-05
1.68095e-05
1.67043e-05
1.65999e-05
1.65025e-05
1.64076e-05
1.63076e-05
1.6216e-05
1.61234e-05
1.60377e-05
1.59423e-05
1.58622e-05
1.57762e-05
1.5692e-05
1.56112e-05
1.55395e-05
1.54608e-05
1.53886e-05
1.53036e-05
1.52393e-05
1.51787e-05
1.51133e-05
1.5037e-05
1.49751e-05
1.49121e-05
1.48567e-05
1.47876e-05
1.47313e-05
1.46576e-05
1.45857e-05
2e-05
1.98271e-05
1.94635e-05
1.92499e-05
1.90445e-05
1.88638e-05
1.86792e-05
1.85365e-05
1.83915e-05
1.82528e-05
1.81074e-05
1.79656e-05
1.78274e-05
1.77005e-05
1.75654e-05
1.74405e-05
1.73151e-05
1.71997e-05
1.70813e-05
1.69667e-05
1.68537e-05
1.67516e-05
1.66431e-05
1.6538e-05
1.64367e-05
1.63402e-05
1.62369e-05
1.61435e-05
1.60479e-05
1.5959e-05
1.58618e-05
1.57778e-05
1.56881e-05
1.56034e-05
1.55175e-05
1.54429e-05
1.53608e-05
1.52841e-05
1.51964e-05
1.51295e-05
1.50619e-05
1.49933e-05
1.49131e-05
1.48461e-05
1.47775e-05
1.47176e-05
1.46431e-05
1.45778e-05
1.44971e-05
1.44213e-05
1.99999e-05
1.98259e-05
1.94554e-05
1.92319e-05
1.90264e-05
1.8851e-05
1.86612e-05
1.85135e-05
1.83673e-05
1.82282e-05
1.80792e-05
1.79365e-05
1.77956e-05
1.76667e-05
1.75292e-05
1.7403e-05
1.72751e-05
1.71582e-05
1.70366e-05
1.6921e-05
1.68061e-05
1.6702e-05
1.65905e-05
1.6485e-05
1.63805e-05
1.6282e-05
1.61759e-05
1.60813e-05
1.59824e-05
1.58912e-05
1.57915e-05
1.5705e-05
1.56117e-05
1.55263e-05
1.54369e-05
1.53586e-05
1.52745e-05
1.51939e-05
1.51041e-05
1.50363e-05
1.49621e-05
1.48897e-05
1.4809e-05
1.47382e-05
1.46628e-05
1.45994e-05
1.45221e-05
1.44496e-05
1.43615e-05
1.42834e-05
1.99999e-05
1.98252e-05
1.94504e-05
1.92146e-05
1.90091e-05
1.88404e-05
1.86468e-05
1.84943e-05
1.83467e-05
1.8208e-05
1.80557e-05
1.7913e-05
1.77696e-05
1.76392e-05
1.74996e-05
1.73729e-05
1.72426e-05
1.71245e-05
1.70003e-05
1.68841e-05
1.67676e-05
1.66618e-05
1.65479e-05
1.64418e-05
1.6335e-05
1.62343e-05
1.61259e-05
1.60304e-05
1.59283e-05
1.58351e-05
1.57326e-05
1.56444e-05
1.55479e-05
1.54613e-05
1.53691e-05
1.52875e-05
1.5201e-05
1.51178e-05
1.5026e-05
1.49572e-05
1.48777e-05
1.48014e-05
1.47204e-05
1.46478e-05
1.45658e-05
1.44988e-05
1.44191e-05
1.43425e-05
1.42479e-05
1.41663e-05
1.99999e-05
1.9825e-05
1.94481e-05
1.91987e-05
1.89934e-05
1.88318e-05
1.86365e-05
1.84795e-05
1.83304e-05
1.81926e-05
1.80375e-05
1.78955e-05
1.77499e-05
1.76185e-05
1.74773e-05
1.73507e-05
1.72184e-05
1.70991e-05
1.69732e-05
1.68567e-05
1.6739e-05
1.6632e-05
1.65162e-05
1.64096e-05
1.6301e-05
1.61984e-05
1.6088e-05
1.59919e-05
1.5887e-05
1.57917e-05
1.56868e-05
1.55973e-05
1.54976e-05
1.541e-05
1.53146e-05
1.52313e-05
1.51409e-05
1.50562e-05
1.49634e-05
1.48918e-05
1.48083e-05
1.47293e-05
1.46463e-05
1.45727e-05
1.4486e-05
1.44145e-05
1.43314e-05
1.4253e-05
1.41536e-05
1.40669e-05
1.99999e-05
1.98252e-05
1.94485e-05
1.91851e-05
1.89798e-05
1.88252e-05
1.86305e-05
1.84694e-05
1.83187e-05
1.81821e-05
1.80251e-05
1.78843e-05
1.7737e-05
1.76052e-05
1.74629e-05
1.73368e-05
1.7203e-05
1.70828e-05
1.6956e-05
1.68398e-05
1.67209e-05
1.66132e-05
1.64963e-05
1.63892e-05
1.62793e-05
1.61751e-05
1.60634e-05
1.59666e-05
1.58594e-05
1.57619e-05
1.56551e-05
1.55649e-05
1.54617e-05
1.53737e-05
1.52744e-05
1.51905e-05
1.50961e-05
1.50096e-05
1.49173e-05
1.48413e-05
1.47542e-05
1.46745e-05
1.45879e-05
1.45125e-05
1.44234e-05
1.43472e-05
1.42591e-05
1.41801e-05
1.4077e-05
1.39857e-05
1.99999e-05
1.98258e-05
1.94512e-05
1.91743e-05
1.89684e-05
1.882e-05
1.86285e-05
1.84642e-05
1.83119e-05
1.81766e-05
1.80187e-05
1.78798e-05
1.77309e-05
1.75993e-05
1.74567e-05
1.73315e-05
1.71968e-05
1.70761e-05
1.6949e-05
1.6834e-05
1.6714e-05
1.66062e-05
1.6489e-05
1.63814e-05
1.62704e-05
1.61656e-05
1.60528e-05
1.59552e-05
1.58463e-05
1.57468e-05
1.56383e-05
1.55478e-05
1.54414e-05
1.53529e-05
1.52501e-05
1.51655e-05
1.50678e-05
1.49793e-05
1.48875e-05
1.48074e-05
1.47165e-05
1.46371e-05
1.45468e-05
1.44679e-05
1.43782e-05
1.42974e-05
1.42041e-05
1.41239e-05
1.40179e-05
1.39238e-05
1.99999e-05
1.9827e-05
1.94564e-05
1.91673e-05
1.89597e-05
1.88166e-05
1.86304e-05
1.84641e-05
1.83102e-05
1.8176e-05
1.80188e-05
1.78817e-05
1.77321e-05
1.76012e-05
1.74589e-05
1.73344e-05
1.71996e-05
1.70789e-05
1.69519e-05
1.68383e-05
1.67174e-05
1.661e-05
1.64931e-05
1.63851e-05
1.62736e-05
1.61688e-05
1.60554e-05
1.59572e-05
1.58472e-05
1.57464e-05
1.56367e-05
1.55458e-05
1.54375e-05
1.53472e-05
1.52427e-05
1.51567e-05
1.50564e-05
1.49668e-05
1.48737e-05
1.4791e-05
1.46964e-05
1.46165e-05
1.45234e-05
1.44404e-05
1.43501e-05
1.42655e-05
1.41678e-05
1.40844e-05
1.39771e-05
1.38805e-05
1.99999e-05
1.98286e-05
1.94635e-05
1.91638e-05
1.89542e-05
1.88144e-05
1.86361e-05
1.84684e-05
1.8313e-05
1.81799e-05
1.80237e-05
1.78893e-05
1.77388e-05
1.76092e-05
1.74678e-05
1.73444e-05
1.72098e-05
1.70898e-05
1.69634e-05
1.68522e-05
1.67304e-05
1.66241e-05
1.65083e-05
1.64e-05
1.62881e-05
1.61842e-05
1.60703e-05
1.59712e-05
1.58603e-05
1.57582e-05
1.56477e-05
1.5556e-05
1.54468e-05
1.53543e-05
1.5249e-05
1.51617e-05
1.50595e-05
1.49699e-05
1.48742e-05
1.47906e-05
1.46936e-05
1.46118e-05
1.45168e-05
1.44309e-05
1.43382e-05
1.42509e-05
1.41499e-05
1.40619e-05
1.39543e-05
1.38551e-05
1.99999e-05
1.98308e-05
1.94723e-05
1.91644e-05
1.89517e-05
1.88136e-05
1.86444e-05
1.84779e-05
1.83208e-05
1.81883e-05
1.80344e-05
1.79031e-05
1.77522e-05
1.76246e-05
1.74845e-05
1.73625e-05
1.72286e-05
1.71104e-05
1.69848e-05
1.68762e-05
1.67543e-05
1.66496e-05
1.65355e-05
1.64274e-05
1.63156e-05
1.62133e-05
1.60995e-05
1.59999e-05
1.58885e-05
1.57859e-05
1.56749e-05
1.55823e-05
1.54725e-05
1.5377e-05
1.52712e-05
1.51825e-05
1.50779e-05
1.49885e-05
1.48892e-05
1.48045e-05
1.47053e-05
1.46208e-05
1.45241e-05
1.44369e-05
1.43403e-05
1.42518e-05
1.41482e-05
1.40559e-05
1.39479e-05
1.38466e-05
1.99999e-05
1.98334e-05
1.94827e-05
1.91687e-05
1.89523e-05
1.88145e-05
1.86552e-05
1.84913e-05
1.83328e-05
1.82009e-05
1.80501e-05
1.79218e-05
1.77712e-05
1.76461e-05
1.75072e-05
1.73872e-05
1.72538e-05
1.71388e-05
1.70139e-05
1.69079e-05
1.6787e-05
1.6684e-05
1.65717e-05
1.64646e-05
1.63534e-05
1.6253e-05
1.61397e-05
1.60396e-05
1.5928e-05
1.58259e-05
1.57149e-05
1.56217e-05
1.55113e-05
1.54143e-05
1.53083e-05
1.52189e-05
1.51123e-05
1.50238e-05
1.49208e-05
1.48361e-05
1.4735e-05
1.46472e-05
1.45488e-05
1.44606e-05
1.43587e-05
1.42692e-05
1.41621e-05
1.40667e-05
1.3956e-05
1.38528e-05
1.99999e-05
1.98365e-05
1.9494e-05
1.91772e-05
1.89561e-05
1.88171e-05
1.86679e-05
1.85085e-05
1.83488e-05
1.82173e-05
1.807e-05
1.79446e-05
1.7795e-05
1.76727e-05
1.75348e-05
1.74176e-05
1.72845e-05
1.71739e-05
1.70493e-05
1.69462e-05
1.68272e-05
1.67261e-05
1.66156e-05
1.65104e-05
1.64002e-05
1.63016e-05
1.61893e-05
1.6089e-05
1.59775e-05
1.58766e-05
1.57656e-05
1.56719e-05
1.55605e-05
1.54636e-05
1.53568e-05
1.52666e-05
1.5159e-05
1.50705e-05
1.49653e-05
1.48801e-05
1.47768e-05
1.46875e-05
1.45876e-05
1.44984e-05
1.43922e-05
1.4303e-05
1.4192e-05
1.40953e-05
1.39804e-05
1.38772e-05
1.99999e-05
1.984e-05
1.9506e-05
1.91888e-05
1.8963e-05
1.88221e-05
1.86824e-05
1.85289e-05
1.83684e-05
1.82375e-05
1.80936e-05
1.79711e-05
1.78229e-05
1.77038e-05
1.75665e-05
1.74526e-05
1.732e-05
1.72142e-05
1.70901e-05
1.699e-05
1.68735e-05
1.67745e-05
1.66657e-05
1.65634e-05
1.64545e-05
1.63577e-05
1.62466e-05
1.61466e-05
1.60355e-05
1.59362e-05
1.58253e-05
1.57313e-05
1.56186e-05
1.55232e-05
1.5415e-05
1.53243e-05
1.52165e-05
1.51268e-05
1.50212e-05
1.49344e-05
1.48284e-05
1.47395e-05
1.46375e-05
1.4546e-05
1.44379e-05
1.43477e-05
1.42326e-05
1.4136e-05
1.40163e-05
1.39161e-05
1.99999e-05
1.98437e-05
1.95185e-05
1.92033e-05
1.89727e-05
1.88295e-05
1.8698e-05
1.85515e-05
1.83911e-05
1.82612e-05
1.81202e-05
1.80006e-05
1.78542e-05
1.77385e-05
1.76015e-05
1.74911e-05
1.73599e-05
1.72582e-05
1.7135e-05
1.70382e-05
1.69241e-05
1.68281e-05
1.67208e-05
1.66216e-05
1.65149e-05
1.64196e-05
1.63097e-05
1.62107e-05
1.61003e-05
1.60027e-05
1.58921e-05
1.57978e-05
1.56843e-05
1.55904e-05
1.54812e-05
1.539e-05
1.52821e-05
1.51913e-05
1.50858e-05
1.49967e-05
1.48886e-05
1.4801e-05
1.4696e-05
1.46024e-05
1.44937e-05
1.44011e-05
1.42829e-05
1.41856e-05
1.4064e-05
1.3965e-05
1.99999e-05
1.98477e-05
1.95314e-05
1.922e-05
1.89852e-05
1.88394e-05
1.87145e-05
1.85759e-05
1.84167e-05
1.8288e-05
1.81492e-05
1.80327e-05
1.7888e-05
1.7776e-05
1.76389e-05
1.75322e-05
1.7403e-05
1.73046e-05
1.71831e-05
1.70896e-05
1.69777e-05
1.68854e-05
1.67794e-05
1.66839e-05
1.65797e-05
1.64855e-05
1.63769e-05
1.62798e-05
1.61704e-05
1.60741e-05
1.5964e-05
1.58695e-05
1.5756e-05
1.56631e-05
1.55533e-05
1.5462e-05
1.53533e-05
1.52625e-05
1.51562e-05
1.5065e-05
1.49562e-05
1.48685e-05
1.47607e-05
1.46663e-05
1.45567e-05
1.44601e-05
1.43413e-05
1.42424e-05
1.41209e-05
1.40203e-05
1.99999e-05
1.98517e-05
1.95443e-05
1.92384e-05
1.90004e-05
1.88521e-05
1.8732e-05
1.86012e-05
1.84448e-05
1.83174e-05
1.81803e-05
1.80667e-05
1.79242e-05
1.78152e-05
1.76785e-05
1.75753e-05
1.74483e-05
1.73528e-05
1.72332e-05
1.71431e-05
1.70335e-05
1.69448e-05
1.68403e-05
1.67489e-05
1.66469e-05
1.65541e-05
1.64473e-05
1.6352e-05
1.62439e-05
1.61488e-05
1.60391e-05
1.59451e-05
1.58316e-05
1.57399e-05
1.56287e-05
1.55387e-05
1.54278e-05
1.53385e-05
1.52298e-05
1.51373e-05
1.50293e-05
1.49396e-05
1.48297e-05
1.47358e-05
1.46234e-05
1.45231e-05
1.44051e-05
1.43048e-05
1.41829e-05
1.40803e-05
1.99999e-05
1.98558e-05
1.95572e-05
1.9258e-05
1.90179e-05
1.88673e-05
1.87503e-05
1.86272e-05
1.84751e-05
1.8349e-05
1.82132e-05
1.8102e-05
1.79622e-05
1.78554e-05
1.77197e-05
1.76197e-05
1.74947e-05
1.74022e-05
1.72842e-05
1.71977e-05
1.70905e-05
1.7005e-05
1.69028e-05
1.68157e-05
1.67149e-05
1.66242e-05
1.65198e-05
1.64259e-05
1.63193e-05
1.62256e-05
1.61159e-05
1.60227e-05
1.59095e-05
1.58189e-05
1.5706e-05
1.56178e-05
1.55048e-05
1.54169e-05
1.53046e-05
1.52126e-05
1.51048e-05
1.50125e-05
1.49016e-05
1.48076e-05
1.46912e-05
1.45893e-05
1.44722e-05
1.43697e-05
1.42474e-05
1.41446e-05
1.99999e-05
1.986e-05
1.957e-05
1.92782e-05
1.90376e-05
1.88849e-05
1.87695e-05
1.86536e-05
1.8507e-05
1.83824e-05
1.82477e-05
1.81384e-05
1.80014e-05
1.78961e-05
1.77621e-05
1.76648e-05
1.75416e-05
1.7452e-05
1.73352e-05
1.72528e-05
1.71475e-05
1.70652e-05
1.69659e-05
1.68825e-05
1.67828e-05
1.66951e-05
1.65928e-05
1.65e-05
1.63956e-05
1.63027e-05
1.61934e-05
1.61008e-05
1.59889e-05
1.58977e-05
1.57849e-05
1.56965e-05
1.55836e-05
1.54949e-05
1.53794e-05
1.529e-05
1.51799e-05
1.50857e-05
1.4975e-05
1.48788e-05
1.47585e-05
1.46576e-05
1.45401e-05
1.44347e-05
1.43125e-05
1.42125e-05
1.99999e-05
1.98641e-05
1.95826e-05
1.92988e-05
1.9059e-05
1.89046e-05
1.87895e-05
1.86804e-05
1.85399e-05
1.84172e-05
1.82833e-05
1.81759e-05
1.80409e-05
1.79376e-05
1.78048e-05
1.77102e-05
1.75887e-05
1.75013e-05
1.73861e-05
1.73076e-05
1.72035e-05
1.71253e-05
1.70286e-05
1.69483e-05
1.68502e-05
1.67658e-05
1.6665e-05
1.6574e-05
1.64715e-05
1.63788e-05
1.62707e-05
1.61786e-05
1.60678e-05
1.59749e-05
1.58644e-05
1.57737e-05
1.56623e-05
1.55703e-05
1.54544e-05
1.53673e-05
1.52523e-05
1.51588e-05
1.50479e-05
1.49467e-05
1.48252e-05
1.47263e-05
1.4606e-05
1.4498e-05
1.43775e-05
1.4282e-05
1.99999e-05
1.98681e-05
1.95949e-05
1.93194e-05
1.90817e-05
1.8926e-05
1.88106e-05
1.87073e-05
1.85734e-05
1.8453e-05
1.83199e-05
1.82142e-05
1.80805e-05
1.79797e-05
1.78475e-05
1.77559e-05
1.76352e-05
1.75499e-05
1.74364e-05
1.73612e-05
1.72582e-05
1.71848e-05
1.70899e-05
1.70123e-05
1.6917e-05
1.68352e-05
1.67356e-05
1.66474e-05
1.65457e-05
1.64535e-05
1.63467e-05
1.6256e-05
1.61437e-05
1.6052e-05
1.59414e-05
1.585e-05
1.57384e-05
1.5643e-05
1.55297e-05
1.5441e-05
1.5322e-05
1.52313e-05
1.51168e-05
1.5011e-05
1.48916e-05
1.47928e-05
1.46676e-05
1.45589e-05
1.44422e-05
1.43497e-05
1.99999e-05
1.98721e-05
1.96069e-05
1.93397e-05
1.91052e-05
1.89488e-05
1.88329e-05
1.87343e-05
1.86071e-05
1.84895e-05
1.83578e-05
1.82529e-05
1.81206e-05
1.80218e-05
1.78903e-05
1.78014e-05
1.76807e-05
1.75978e-05
1.74854e-05
1.74135e-05
1.73115e-05
1.72431e-05
1.7149e-05
1.7075e-05
1.69825e-05
1.69025e-05
1.6805e-05
1.67192e-05
1.66175e-05
1.65266e-05
1.64214e-05
1.63306e-05
1.62171e-05
1.61282e-05
1.60148e-05
1.59248e-05
1.58098e-05
1.57146e-05
1.56028e-05
1.55093e-05
1.53902e-05
1.53013e-05
1.51794e-05
1.50731e-05
1.49567e-05
1.48539e-05
1.47244e-05
1.46184e-05
1.4505e-05
1.44128e-05
1.99999e-05
1.98759e-05
1.96185e-05
1.93597e-05
1.91291e-05
1.89729e-05
1.88563e-05
1.87614e-05
1.86409e-05
1.85265e-05
1.83968e-05
1.82916e-05
1.81615e-05
1.80634e-05
1.79337e-05
1.78461e-05
1.77254e-05
1.7645e-05
1.75329e-05
1.74645e-05
1.73633e-05
1.72994e-05
1.7206e-05
1.71363e-05
1.70455e-05
1.69676e-05
1.68733e-05
1.6788e-05
1.66871e-05
1.65981e-05
1.64941e-05
1.64011e-05
1.62899e-05
1.62009e-05
1.60855e-05
1.59964e-05
1.58773e-05
1.57857e-05
1.56706e-05
1.55733e-05
1.54576e-05
1.53652e-05
1.52368e-05
1.51344e-05
1.50172e-05
1.49082e-05
1.47782e-05
1.46761e-05
1.45632e-05
1.44696e-05
1.99999e-05
1.98797e-05
1.96297e-05
1.93792e-05
1.9153e-05
1.89981e-05
1.88809e-05
1.87887e-05
1.86745e-05
1.85639e-05
1.84365e-05
1.83309e-05
1.82027e-05
1.81051e-05
1.79772e-05
1.78899e-05
1.77696e-05
1.76909e-05
1.75791e-05
1.7514e-05
1.74134e-05
1.73538e-05
1.7261e-05
1.7196e-05
1.71059e-05
1.70313e-05
1.69393e-05
1.68539e-05
1.6755e-05
1.66679e-05
1.65627e-05
1.647e-05
1.63603e-05
1.62699e-05
1.61539e-05
1.6063e-05
1.59441e-05
1.58527e-05
1.57323e-05
1.56367e-05
1.55208e-05
1.54216e-05
1.52924e-05
1.51933e-05
1.50702e-05
1.49576e-05
1.48306e-05
1.47301e-05
1.46144e-05
1.452e-05
1.99999e-05
1.98833e-05
1.96405e-05
1.93981e-05
1.91768e-05
1.90239e-05
1.89063e-05
1.88163e-05
1.87079e-05
1.86019e-05
1.84765e-05
1.83713e-05
1.82439e-05
1.81474e-05
1.80201e-05
1.79334e-05
1.78134e-05
1.7735e-05
1.76249e-05
1.75613e-05
1.74619e-05
1.74063e-05
1.73141e-05
1.72535e-05
1.71645e-05
1.70935e-05
1.70022e-05
1.69178e-05
1.68217e-05
1.67343e-05
1.66285e-05
1.65377e-05
1.64274e-05
1.63354e-05
1.62193e-05
1.61271e-05
1.60083e-05
1.5914e-05
1.57918e-05
1.56981e-05
1.5577e-05
1.54739e-05
1.53468e-05
1.52465e-05
1.5117e-05
1.50047e-05
1.48801e-05
1.47783e-05
1.46594e-05
1.45654e-05
1.99999e-05
1.98867e-05
1.96509e-05
1.94162e-05
1.92001e-05
1.90502e-05
1.89326e-05
1.88444e-05
1.87414e-05
1.864e-05
1.8517e-05
1.84124e-05
1.82856e-05
1.819e-05
1.80628e-05
1.79766e-05
1.78566e-05
1.77781e-05