/*--------------------------------*- C++ -*----------------------------------*\
  =========                 |
  \\      /  F ield         | OpenFOAM: The Open Source CFD Toolbox
   \\    /   O peration     | Website:  https://openfoam.org
    \\  /    A nd           | Version:  7
     \\/     M anipulation  |
\*---------------------------------------------------------------------------*/
FoamFile
{
    version     2.0;
    format      ascii;
    class       volScalarField;
    location    "0.35";
    object      p;
}
// * * * * * * * * * * * * * * * * * * * * * * * * * * * * * * * * * * * * * //

dimensions      [0 2 -2 0 0 0 0];

internalField   nonuniform List<scalar> 
70000
(
0.107708
0.0308267
0.0176978
0.020174
0.0204656
0.0194557
0.018539
0.0178567
0.0173002
0.0168199
0.0164021
0.0160392
0.0157237
0.0154494
0.0152109
0.015004
0.0148255
0.0146727
0.0145434
0.014436
0.014349
0.0142813
0.0142322
0.0142009
0.0141869
0.0141898
0.0142095
0.0142458
0.0142986
0.0143681
0.0144543
0.0145574
0.0146777
0.0148152
0.0149703
0.0151428
0.0153331
0.0155404
0.015765
0.0160059
0.0162611
0.016532
0.0168078
0.0171025
0.0173763
0.0176863
0.0179083
0.0182376
0.0182819
0.0187569
0.103408
0.0311886
0.0179004
0.0202687
0.0205201
0.0194915
0.0185669
0.0178798
0.0173196
0.0168365
0.0164166
0.016052
0.0157352
0.0154597
0.0152203
0.0150127
0.0148335
0.0146801
0.0145503
0.0144424
0.0143551
0.0142871
0.0142377
0.0142061
0.0141919
0.0141946
0.0142141
0.0142502
0.0143029
0.0143722
0.0144583
0.0145613
0.0146816
0.014819
0.014974
0.0151464
0.0153367
0.015544
0.0157686
0.0160095
0.0162646
0.0165356
0.0168114
0.0171061
0.0173799
0.0176899
0.0179118
0.01824
0.0182884
0.0187863
0.0998021
0.0321109
0.0182448
0.0203972
0.0205947
0.0195365
0.0185993
0.017906
0.0173415
0.016855
0.0164326
0.016066
0.0157477
0.015471
0.0152305
0.015022
0.0148421
0.0146881
0.0145577
0.0144494
0.0143616
0.0142933
0.0142435
0.0142116
0.0141971
0.0141996
0.0142189
0.0142548
0.0143073
0.0143765
0.0144625
0.0145654
0.0146855
0.0148228
0.0149778
0.0151501
0.0153403
0.0155476
0.0157721
0.016013
0.0162682
0.0165392
0.016815
0.0171099
0.0173837
0.017694
0.017916
0.0182431
0.0183072
0.0188056
0.0966972
0.0332099
0.0187211
0.0205697
0.0206958
0.0195944
0.0186374
0.0179359
0.0173661
0.0168755
0.01645
0.0160812
0.015761
0.0154829
0.0152413
0.0150318
0.0148511
0.0146963
0.0145654
0.0144565
0.0143682
0.0142995
0.0142494
0.0142172
0.0142024
0.0142046
0.0142236
0.0142593
0.0143117
0.0143807
0.0144665
0.0145692
0.0146892
0.0148264
0.0149813
0.0151535
0.0153436
0.0155508
0.0157754
0.0160163
0.0162714
0.0165426
0.0168184
0.0171136
0.0173876
0.0176982
0.0179215
0.0182463
0.0183375
0.0188156
0.0937407
0.0343034
0.0192943
0.0207877
0.0208301
0.0196726
0.0186863
0.0179727
0.0173959
0.0169
0.0164705
0.0160986
0.0157763
0.0154963
0.0152532
0.0150426
0.0148609
0.0147053
0.0145736
0.0144641
0.0143753
0.0143061
0.0142555
0.014223
0.0142078
0.0142097
0.0142285
0.0142639
0.014316
0.0143848
0.0144704
0.0145729
0.0146927
0.0148298
0.0149845
0.0151566
0.0153466
0.0155537
0.0157782
0.016019
0.0162742
0.0165454
0.0168215
0.0171169
0.0173916
0.0177024
0.017929
0.0182503
0.0183772
0.0188286
0.0908333
0.0353352
0.0199179
0.0210318
0.0209919
0.0197727
0.0187485
0.0180187
0.0174329
0.0169302
0.0164954
0.0161197
0.0157944
0.0155122
0.0152673
0.0150551
0.0148722
0.0147155
0.014583
0.0144727
0.0143832
0.0143134
0.0142623
0.0142292
0.0142137
0.0142152
0.0142336
0.0142686
0.0143204
0.0143889
0.0144742
0.0145765
0.0146961
0.0148329
0.0149874
0.0151593
0.0153491
0.0155561
0.0157804
0.0160212
0.0162764
0.0165477
0.016824
0.0171198
0.0173956
0.0177066
0.0179386
0.0182561
0.0184245
0.0188506
0.0879676
0.0362881
0.0205584
0.0212809
0.0211678
0.0198901
0.0188229
0.0180738
0.0174775
0.0169667
0.0165256
0.0161451
0.0158162
0.0155312
0.015284
0.0150699
0.0148854
0.0147275
0.0145938
0.0144825
0.0143922
0.0143216
0.0142698
0.0142362
0.0142201
0.0142211
0.014239
0.0142736
0.014325
0.0143931
0.0144781
0.01458
0.0146992
0.0148357
0.0149898
0.0151615
0.015351
0.0155577
0.0157819
0.0160226
0.0162777
0.0165491
0.0168258
0.017122
0.0173995
0.0177108
0.0179505
0.018265
0.0184776
0.0188851
0.0851529
0.0371556
0.0211998
0.0215232
0.0213471
0.0200182
0.0189064
0.0181359
0.0175284
0.0170089
0.0165608
0.0161749
0.0158419
0.0155535
0.0153036
0.0150873
0.0149009
0.0147414
0.0146064
0.0144939
0.0144025
0.014331
0.0142785
0.014244
0.0142272
0.0142276
0.0142449
0.014279
0.0143299
0.0143975
0.0144819
0.0145834
0.0147021
0.0148382
0.0149919
0.0151631
0.0153522
0.0155586
0.0157824
0.0160229
0.0162779
0.0165494
0.0168265
0.0171232
0.0174031
0.0177149
0.0179647
0.0182779
0.0185352
0.0189343
0.0823956
0.0379353
0.0218364
0.021755
0.0215234
0.0201522
0.0189954
0.0182026
0.0175838
0.0170555
0.0166001
0.0162085
0.0158709
0.0155789
0.0153261
0.0151073
0.0149188
0.0147574
0.0146208
0.014507
0.0144144
0.0143418
0.0142882
0.0142529
0.0142353
0.0142349
0.0142515
0.0142849
0.0143351
0.014402
0.0144859
0.0145867
0.0147049
0.0148403
0.0149934
0.0151641
0.0153526
0.0155586
0.0157818
0.016022
0.0162768
0.0165483
0.016826
0.0171233
0.0174062
0.0177188
0.017981
0.0182955
0.0185962
0.0189992
0.0796992
0.0386262
0.022467
0.021976
0.0216939
0.0202891
0.019088
0.0182718
0.0176418
0.017105
0.0166422
0.0162447
0.0159026
0.0156069
0.0153509
0.0151295
0.0149387
0.0147754
0.0146371
0.0145217
0.0144278
0.014354
0.0142993
0.0142629
0.0142443
0.014243
0.0142587
0.0142913
0.0143407
0.0144069
0.01449
0.0145901
0.0147074
0.0148421
0.0149945
0.0151644
0.0153522
0.0155575
0.0157802
0.0160199
0.0162743
0.0165458
0.0168241
0.0171219
0.0174086
0.0177226
0.0179988
0.0183182
0.0186598
0.0190794
0.0770669
0.0392288
0.0230906
0.0221873
0.0218573
0.0204276
0.0191832
0.0183426
0.0177013
0.0171561
0.0166861
0.0162828
0.015936
0.0156366
0.0153774
0.0151534
0.0149603
0.0147949
0.0146548
0.0145379
0.0144424
0.0143673
0.0143114
0.0142739
0.0142542
0.0142519
0.0142666
0.0142982
0.0143467
0.014412
0.0144942
0.0145934
0.0147098
0.0148436
0.0149951
0.0151641
0.015351
0.0155555
0.0157773
0.0160164
0.0162703
0.0165417
0.0168206
0.0171191
0.0174102
0.0177262
0.0180179
0.0183459
0.0187255
0.0191731
0.0745016
0.0397434
0.0237054
0.0223901
0.0220125
0.0205668
0.0192805
0.0184144
0.0177616
0.0172082
0.0167311
0.016322
0.0159706
0.0156674
0.0154052
0.0151784
0.014983
0.0148156
0.0146736
0.014555
0.0144581
0.0143816
0.0143244
0.0142856
0.0142648
0.0142614
0.0142751
0.0143056
0.0143531
0.0144173
0.0144985
0.0145966
0.0147121
0.0148448
0.0149952
0.0151631
0.0153489
0.0155524
0.0157732
0.0160115
0.0162648
0.0165359
0.0168157
0.0171149
0.0174107
0.0177298
0.0180377
0.0183781
0.0187928
0.0192775
0.0720063
0.0401707
0.0243094
0.0225857
0.022159
0.0207057
0.0193799
0.0184871
0.0178224
0.0172611
0.0167769
0.016362
0.016006
0.0156991
0.0154337
0.0152043
0.0150065
0.0148371
0.0146932
0.014573
0.0144745
0.0143966
0.014338
0.014298
0.014276
0.0142714
0.0142839
0.0143134
0.0143597
0.0144228
0.0145028
0.0145999
0.0147141
0.0148456
0.0149948
0.0151615
0.0153461
0.0155484
0.015768
0.0160054
0.016258
0.0165286
0.0168092
0.0171092
0.0174102
0.0177332
0.0180576
0.0184139
0.018861
0.0193893
0.0695834
0.0405117
0.0248997
0.0227756
0.0222963
0.0208436
0.0194811
0.0185606
0.0178836
0.0173145
0.0168234
0.0164026
0.016042
0.0157314
0.0154628
0.0152307
0.0150306
0.014859
0.0147134
0.0145914
0.0144914
0.014412
0.0143521
0.0143108
0.0142875
0.0142817
0.0142931
0.0143213
0.0143664
0.0144284
0.0145072
0.014603
0.0147159
0.0148462
0.014994
0.0151594
0.0153425
0.0155435
0.0157618
0.015998
0.0162498
0.0165199
0.0168014
0.0171022
0.0174085
0.0177365
0.0180771
0.018452
0.0189296
0.0195048
0.0672352
0.0407677
0.0254733
0.0229613
0.022424
0.0209795
0.0195841
0.018635
0.0179452
0.0173684
0.0168704
0.0164438
0.0160785
0.0157641
0.0154924
0.0152575
0.0150551
0.0148814
0.0147339
0.0146102
0.0145087
0.0144278
0.0143665
0.0143239
0.0142993
0.0142922
0.0143023
0.0143294
0.0143732
0.0144339
0.0145114
0.0146059
0.0147175
0.0148463
0.0149926
0.0151566
0.0153382
0.0155377
0.0157546
0.0159896
0.0162405
0.01651
0.0167922
0.017094
0.0174057
0.0177395
0.0180959
0.0184912
0.0189976
0.0196204
0.0649639
0.0409404
0.026027
0.0231443
0.0225419
0.0211124
0.0196886
0.0187103
0.018007
0.0174227
0.0169179
0.0164854
0.0161154
0.0157972
0.0155223
0.0152847
0.0150799
0.0149041
0.0147547
0.0146293
0.0145262
0.0144438
0.0143811
0.0143371
0.0143112
0.0143029
0.0143117
0.0143374
0.01438
0.0144393
0.0145155
0.0146086
0.0147187
0.0148461
0.0149908
0.0151532
0.0153332
0.0155311
0.0157465
0.0159801
0.0162301
0.0164988
0.0167818
0.0170847
0.0174017
0.0177421
0.0181136
0.0185302
0.019064
0.0197332
0.0627709
0.0410321
0.0265575
0.023326
0.0226502
0.0212414
0.0197943
0.0187865
0.018069
0.0174772
0.0169659
0.0165275
0.0161528
0.0158307
0.0155526
0.0153123
0.015105
0.0149271
0.0147758
0.0146486
0.0145439
0.01446
0.0143958
0.0143505
0.0143232
0.0143135
0.014321
0.0143454
0.0143867
0.0144446
0.0145194
0.014611
0.0147196
0.0148454
0.0149885
0.0151492
0.0153275
0.0155238
0.0157375
0.0159696
0.0162186
0.0164865
0.0167703
0.0170744
0.0173964
0.0177439
0.0181298
0.0185679
0.0191277
0.0198407
0.0606574
0.0410454
0.0270618
0.0235073
0.0227489
0.0213652
0.0199008
0.0188637
0.018131
0.017532
0.0170144
0.0165701
0.0161905
0.0158646
0.0155833
0.0153402
0.0151304
0.0149504
0.0147971
0.0146682
0.0145617
0.0144763
0.0144107
0.0143639
0.0143352
0.0143242
0.0143303
0.0143534
0.0143932
0.0144497
0.014523
0.0146131
0.0147201
0.0148443
0.0149857
0.0151447
0.0153212
0.0155157
0.0157277
0.0159583
0.0162061
0.0164732
0.0167576
0.017063
0.0173899
0.0177448
0.0181441
0.0186032
0.0191878
0.0199406
0.0586243
0.0409835
0.0275369
0.0236891
0.0228385
0.0214831
0.0200077
0.0189417
0.0181932
0.0175869
0.0170631
0.0166131
0.0162287
0.0158988
0.0156143
0.0153683
0.0151561
0.0149739
0.0148186
0.0146878
0.0145797
0.0144927
0.0144256
0.0143773
0.0143473
0.0143348
0.0143395
0.0143611
0.0143995
0.0144546
0.0145263
0.0146148
0.0147202
0.0148427
0.0149824
0.0151395
0.0153142
0.0155068
0.0157171
0.015946
0.0161926
0.0164588
0.0167438
0.0170506
0.0173821
0.0177443
0.0181563
0.0186353
0.0192432
0.0200314
0.0566718
0.0408501
0.0279799
0.0238718
0.0229194
0.0215941
0.0201142
0.0190206
0.0182554
0.0176417
0.0171121
0.0166564
0.0162672
0.0159334
0.0156456
0.0153968
0.0151821
0.0149976
0.0148403
0.0147077
0.0145979
0.0145092
0.0144405
0.0143908
0.0143593
0.0143453
0.0143486
0.0143688
0.0144057
0.0144592
0.0145294
0.0146162
0.0147199
0.0148406
0.0149784
0.0151336
0.0153064
0.015497
0.0157055
0.0159327
0.0161781
0.0164434
0.0167287
0.017037
0.0173726
0.0177422
0.0181659
0.0186634
0.0192928
0.0201117
0.0547998
0.0406494
0.0283877
0.0240554
0.0229925
0.0216974
0.0202199
0.0191003
0.0183176
0.0176964
0.0171613
0.0167001
0.0163059
0.0159682
0.0156771
0.0154255
0.0152083
0.0150216
0.0148622
0.0147277
0.0146161
0.0145258
0.0144555
0.0144043
0.0143712
0.0143558
0.0143576
0.0143762
0.0144116
0.0144635
0.014532
0.0146172
0.0147191
0.0148379
0.0149738
0.0151271
0.0152978
0.0154865
0.015693
0.0159183
0.0161624
0.0164267
0.0167123
0.0170219
0.0173615
0.0177381
0.0181726
0.0186869
0.0193357
0.0201802
0.053008
0.0403858
0.028758
0.0242396
0.0230585
0.0217923
0.0203239
0.0191807
0.0183798
0.0177509
0.0172106
0.016744
0.016345
0.0160033
0.0157089
0.0154545
0.0152347
0.0150457
0.0148842
0.0147479
0.0146345
0.0145425
0.0144706
0.0144177
0.0143831
0.0143662
0.0143664
0.0143835
0.0144172
0.0144675
0.0145343
0.0146177
0.0147178
0.0148347
0.0149686
0.0151198
0.0152884
0.015475
0.0156795
0.0159029
0.0161455
0.0164088
0.0166944
0.0170054
0.0173484
0.0177316
0.0181758
0.018705
0.0193708
0.0202359
0.0512953
0.0400644
0.0290883
0.0244237
0.0231184
0.0218783
0.0204255
0.0192615
0.0184419
0.017805
0.0172599
0.0167881
0.0163843
0.0160387
0.015741
0.0154836
0.0152613
0.01507
0.0149064
0.0147681
0.0146529
0.0145592
0.0144856
0.0144312
0.014395
0.0143764
0.0143751
0.0143905
0.0144226
0.0144712
0.0145362
0.0146178
0.0147159
0.0148308
0.0149626
0.0151117
0.0152781
0.0154625
0.0156649
0.0158863
0.0161273
0.0163895
0.0166749
0.016987
0.0173332
0.0177223
0.0181752
0.0187172
0.0193972
0.0202778
0.0496605
0.0396903
0.0293767
0.0246066
0.0231731
0.0219552
0.0205237
0.0193426
0.018504
0.0178588
0.017309
0.0168323
0.0164238
0.0160742
0.0157732
0.0155129
0.0152881
0.0150944
0.0149288
0.0147885
0.0146714
0.0145759
0.0145006
0.0144445
0.0144067
0.0143865
0.0143835
0.0143973
0.0144276
0.0144744
0.0145376
0.0146173
0.0147134
0.0148263
0.0149559
0.0151027
0.0152669
0.0154489
0.0156491
0.0158684
0.0161077
0.0163686
0.0166537
0.0169667
0.0173155
0.0177097
0.0181701
0.0187227
0.0194141
0.0203048
0.048102
0.039269
0.0296213
0.0247869
0.0232238
0.0220228
0.0206177
0.0194236
0.0185661
0.017912
0.0173578
0.0168766
0.0164634
0.0161098
0.0158055
0.0155424
0.015315
0.015119
0.0149512
0.0148089
0.0146899
0.0145926
0.0145156
0.0144578
0.0144183
0.0143964
0.0143917
0.0144037
0.0144323
0.0144773
0.0145386
0.0146162
0.0147103
0.0148209
0.0149483
0.0150928
0.0152546
0.0154342
0.0156321
0.0158492
0.0160866
0.016346
0.0166305
0.0169441
0.0172949
0.0176935
0.0181601
0.018721
0.0194204
0.0203161
0.0466178
0.0388061
0.029821
0.0249625
0.0232713
0.0220811
0.0207066
0.019504
0.0186281
0.0179646
0.0174062
0.0169208
0.0165031
0.0161455
0.0158379
0.015572
0.015342
0.0151436
0.0149736
0.0148293
0.0147085
0.0146093
0.0145305
0.014471
0.0144297
0.0144061
0.0143996
0.0144099
0.0144366
0.0144797
0.014539
0.0146145
0.0147064
0.0148148
0.0149399
0.0150819
0.0152412
0.0154183
0.0156137
0.0158284
0.0160638
0.0163216
0.0166052
0.016919
0.0172713
0.0176733
0.0181445
0.0187114
0.0194155
0.0203109
0.0452056
0.0383072
0.029975
0.0251314
0.0233166
0.0221305
0.0207895
0.0195834
0.0186899
0.0180166
0.017454
0.0169648
0.0165428
0.0161813
0.0158704
0.0156016
0.015369
0.0151683
0.0149961
0.0148498
0.014727
0.014626
0.0145454
0.014484
0.0144409
0.0144155
0.0144072
0.0144156
0.0144405
0.0144815
0.0145388
0.0146122
0.0147018
0.0148079
0.0149305
0.0150699
0.0152266
0.015401
0.0155939
0.0158061
0.0160392
0.0162951
0.0165776
0.0168911
0.0172443
0.0176485
0.0181229
0.0186932
0.0193985
0.0202885
0.043863
0.0377782
0.0300829
0.0252912
0.0233603
0.0221714
0.0208658
0.0196612
0.0187515
0.0180678
0.0175012
0.0170085
0.0165825
0.0162171
0.0159029
0.0156313
0.0153961
0.015193
0.0150187
0.0148702
0.0147454
0.0146425
0.01456
0.0144968
0.014452
0.0144247
0.0144145
0.014421
0.0144438
0.0144829
0.014538
0.0146091
0.0146964
0.0148
0.01492
0.0150568
0.0152108
0.0153824
0.0155725
0.015782
0.0160126
0.0162665
0.0165473
0.0168602
0.0172134
0.0176187
0.0180947
0.0186659
0.0193688
0.0202485
0.0425873
0.0372244
0.0301451
0.0254391
0.0234031
0.0222044
0.0209347
0.0197367
0.0188127
0.0181184
0.0175476
0.0170518
0.016622
0.0162528
0.0159353
0.0156609
0.0154232
0.0152177
0.0150411
0.0148906
0.0147638
0.0146589
0.0145746
0.0145095
0.0144627
0.0144336
0.0144214
0.0144259
0.0144467
0.0144836
0.0145365
0.0146053
0.0146902
0.0147912
0.0149085
0.0150425
0.0151936
0.0153623
0.0155494
0.015756
0.0159839
0.0162354
0.0165143
0.0168258
0.0171784
0.0175836
0.0180593
0.0186288
0.0193257
0.0201903
0.0413755
0.0366513
0.0301624
0.0255727
0.0234452
0.0222303
0.0209958
0.0198092
0.0188733
0.0181681
0.017593
0.0170945
0.0166612
0.0162883
0.0159677
0.0156904
0.0154502
0.0152424
0.0150635
0.0149108
0.014782
0.0146752
0.0145889
0.0145219
0.0144732
0.0144421
0.0144279
0.0144304
0.014449
0.0144837
0.0145342
0.0146006
0.0146829
0.0147813
0.0148958
0.0150269
0.0151749
0.0153405
0.0155245
0.0157281
0.015953
0.0162018
0.0164783
0.0167878
0.0171388
0.0175426
0.0180162
0.0185815
0.0192689
0.0201138
0.0402248
0.0360639
0.030136
0.0256895
0.0234863
0.0222497
0.0210487
0.0198779
0.018933
0.018217
0.0176374
0.0171365
0.0167
0.0163237
0.0159998
0.0157198
0.0154771
0.0152669
0.0150858
0.014931
0.0148001
0.0146913
0.014603
0.014534
0.0144833
0.0144501
0.0144339
0.0144342
0.0144507
0.014483
0.0145312
0.0145951
0.0146747
0.0147702
0.0148819
0.0150099
0.0151547
0.015317
0.0154977
0.015698
0.0159197
0.0161653
0.0164389
0.0167459
0.0170943
0.0174954
0.017965
0.0185233
0.0191979
0.0200189
0.0391321
0.0354668
0.0300678
0.0257874
0.0235259
0.0222635
0.0210932
0.0199422
0.0189914
0.018265
0.0176806
0.0171776
0.0167384
0.0163587
0.0160317
0.015749
0.0155038
0.0152912
0.0151079
0.0149509
0.014818
0.0147071
0.0146167
0.0145457
0.014493
0.0144578
0.0144395
0.0144375
0.0144517
0.0144817
0.0145273
0.0145885
0.0146654
0.014758
0.0148666
0.0149914
0.0151329
0.0152917
0.0154689
0.0156656
0.0158837
0.0161259
0.0163961
0.0166997
0.0170446
0.0174414
0.0179051
0.018454
0.0191123
0.0199056
0.0380943
0.034864
0.02996
0.0258644
0.0235634
0.0222724
0.0211294
0.0200013
0.0190481
0.018312
0.0177226
0.0172176
0.0167761
0.0163933
0.0160632
0.0157779
0.0155302
0.0153154
0.0151298
0.0149706
0.0148356
0.0147226
0.0146302
0.0145571
0.0145023
0.0144649
0.0144444
0.0144402
0.014452
0.0144794
0.0145225
0.014581
0.014655
0.0147445
0.0148499
0.0149713
0.0151093
0.0152645
0.0154378
0.0156307
0.0158449
0.0160832
0.0163494
0.0166488
0.0169892
0.0173804
0.0178362
0.0183732
0.0190121
0.0197741
0.0371082
0.0342594
0.0298155
0.0259191
0.0235974
0.022277
0.0211574
0.0200546
0.0191026
0.0183579
0.0177633
0.0172565
0.016813
0.0164274
0.0160944
0.0158064
0.0155563
0.0153392
0.0151514
0.0149901
0.0148528
0.0147378
0.0146433
0.0145681
0.0145111
0.0144715
0.0144487
0.0144421
0.0144515
0.0144764
0.0145167
0.0145723
0.0146433
0.0147297
0.0148316
0.0149495
0.0150838
0.0152352
0.0154045
0.0155932
0.0158031
0.016037
0.0162986
0.0165931
0.0169277
0.0173119
0.0177579
0.0182805
0.0188972
0.0196247
0.036171
0.0336562
0.0296372
0.0259501
0.0236267
0.0222778
0.0211776
0.0201016
0.0191543
0.0184024
0.0178026
0.017294
0.0168489
0.0164608
0.0161251
0.0158344
0.015582
0.0153626
0.0151726
0.0150091
0.0148698
0.0147526
0.0146559
0.0145785
0.0145193
0.0144775
0.0144523
0.0144433
0.0144501
0.0144723
0.0145098
0.0145625
0.0146303
0.0147133
0.0148118
0.014926
0.0150564
0.0152036
0.0153687
0.0155529
0.0157581
0.0159871
0.0162434
0.0165322
0.01686
0.0172355
0.0176699
0.0181757
0.0187676
0.019458
0.0352795
0.0330572
0.0294284
0.0259568
0.0236497
0.022275
0.0211903
0.0201417
0.0192027
0.0184454
0.0178404
0.01733
0.0168838
0.0164935
0.0161551
0.015862
0.0156073
0.0153857
0.0151935
0.0150278
0.0148862
0.0147669
0.014668
0.0145884
0.014527
0.0144828
0.0144552
0.0144437
0.0144478
0.0144672
0.0145018
0.0145514
0.0146159
0.0146955
0.0147903
0.0149006
0.0150268
0.0151697
0.0153302
0.0155096
0.0157097
0.0159333
0.0161837
0.0164657
0.0167856
0.0171511
0.0175719
0.0180588
0.0186234
0.0192745
0.0344311
0.0324647
0.0291925
0.0259388
0.0236648
0.0222689
0.021196
0.0201747
0.0192471
0.0184866
0.0178767
0.0173645
0.0169173
0.0165253
0.0161845
0.0158889
0.0156319
0.0154082
0.0152138
0.0150459
0.0149022
0.0147807
0.0146796
0.0145977
0.014534
0.0144874
0.0144573
0.0144432
0.0144445
0.0144611
0.0144926
0.0145389
0.0146
0.014676
0.0147669
0.0148731
0.014995
0.0151333
0.0152889
0.0154631
0.0156578
0.0158753
0.0161191
0.0163935
0.0167042
0.0170582
0.0174638
0.0179297
0.0184649
0.0190748
0.0336228
0.0318807
0.0289328
0.025896
0.0236706
0.0222593
0.0211953
0.0202004
0.0192871
0.0185255
0.0179112
0.0173972
0.0169494
0.016556
0.016213
0.0159151
0.0156559
0.01543
0.0152335
0.0150635
0.0149176
0.0147938
0.0146905
0.0146064
0.0145402
0.0144911
0.0144585
0.0144417
0.0144402
0.0144537
0.0144821
0.014525
0.0145826
0.0146547
0.0147416
0.0148435
0.0149609
0.0150943
0.0152447
0.0154134
0.015602
0.015813
0.0160494
0.0163152
0.0166157
0.0169567
0.0173453
0.0177885
0.0182925
0.0188598
0.0328521
0.0313066
0.0286526
0.025829
0.0236655
0.0222458
0.0211885
0.0202188
0.019322
0.0185618
0.0179439
0.0174281
0.0169799
0.0165855
0.0162406
0.0159405
0.0156792
0.0154512
0.0152526
0.0150805
0.0149324
0.0148064
0.0147008
0.0146142
0.0145456
0.014494
0.0144587
0.0144391
0.0144347
0.0144451
0.0144702
0.0145096
0.0145635
0.0146316
0.0147143
0.0148117
0.0149242
0.0150525
0.0151974
0.0153601
0.0155422
0.015746
0.0159743
0.0162307
0.0165197
0.0168465
0.0172166
0.0176353
0.0181065
0.0186302
0.0321166
0.0307436
0.0283552
0.0257386
0.0236483
0.0222279
0.0211761
0.0202299
0.0193513
0.0185951
0.0179746
0.0174571
0.0170085
0.0166135
0.0162671
0.015965
0.0157016
0.0154716
0.015271
0.0150967
0.0149464
0.0148182
0.0147102
0.0146213
0.0145502
0.014496
0.0144579
0.0144354
0.014428
0.0144352
0.0144568
0.0144926
0.0145426
0.0146066
0.0146848
0.0147775
0.0148849
0.0150078
0.0151468
0.0153031
0.0154783
0.0156743
0.0158937
0.0161397
0.0164161
0.0167273
0.0170775
0.0174703
0.0179076
0.0183871
0.0314139
0.0301925
0.0280434
0.0256258
0.0236178
0.022205
0.0211584
0.0202339
0.0193748
0.0186248
0.018003
0.017484
0.0170353
0.01664
0.0162923
0.0159884
0.0157231
0.0154911
0.0152885
0.0151121
0.0149596
0.0148291
0.0147188
0.0146275
0.0145538
0.0144969
0.014456
0.0144306
0.01442
0.0144238
0.0144419
0.0144739
0.0145198
0.0145795
0.0146531
0.0147408
0.0148429
0.01496
0.0150928
0.0152423
0.0154099
0.0155975
0.0158073
0.016042
0.0163049
0.0165992
0.0169282
0.0172939
0.0176963
0.0181314
0.0307419
0.029654
0.0277202
0.0254921
0.0235734
0.0221762
0.0211356
0.020231
0.0193921
0.0186506
0.0180289
0.0175087
0.01706
0.0166647
0.0163161
0.0160106
0.0157434
0.0155096
0.015305
0.0151266
0.0149719
0.0148391
0.0147265
0.0146326
0.0145563
0.0144967
0.0144529
0.0144244
0.0144105
0.0144109
0.0144253
0.0144534
0.014495
0.0145502
0.014619
0.0147015
0.014798
0.014909
0.0150351
0.0151774
0.015337
0.0155156
0.0157149
0.0159375
0.0161857
0.0164622
0.0167688
0.0171064
0.0174734
0.0178642
0.0300987
0.0291284
0.027388
0.025339
0.0235146
0.0221408
0.0211076
0.0202214
0.019403
0.0186719
0.0180519
0.0175311
0.0170825
0.0166874
0.0163383
0.0160314
0.0157626
0.015527
0.0153205
0.01514
0.0149832
0.0148481
0.0147331
0.0146367
0.0145578
0.0144953
0.0144486
0.0144168
0.0143996
0.0143964
0.0144069
0.0144309
0.0144682
0.0145187
0.0145824
0.0146594
0.01475
0.0148546
0.0149738
0.0151084
0.0152594
0.0154283
0.0156165
0.0158261
0.0160588
0.0163163
0.0165996
0.0169083
0.0172394
0.0175864
0.0294822
0.0286159
0.027049
0.0251681
0.0234411
0.022098
0.0210745
0.0202055
0.0194073
0.0186885
0.0180717
0.0175509
0.0171026
0.0167081
0.0163587
0.0160508
0.0157804
0.0155431
0.0153348
0.0151524
0.0149934
0.0148561
0.0147386
0.0146396
0.0145579
0.0144926
0.0144428
0.0144078
0.0143871
0.0143802
0.0143867
0.0144065
0.0144392
0.0144847
0.0145431
0.0146144
0.0146989
0.0147967
0.0149085
0.015035
0.0151769
0.0153355
0.015512
0.0157077
0.0159239
0.0161616
0.0164208
0.0167001
0.0169953
0.0172991
0.0288909
0.0281165
0.0267053
0.0249812
0.0233529
0.0220469
0.021036
0.0201833
0.0194051
0.0186999
0.018088
0.017568
0.0171203
0.0167265
0.0163772
0.0160685
0.0157968
0.0155579
0.0153478
0.0151635
0.0150024
0.0148628
0.0147428
0.0146412
0.0145568
0.0144885
0.0144355
0.0143972
0.0143729
0.0143621
0.0143646
0.0143799
0.0144078
0.0144483
0.0145011
0.0145665
0.0146444
0.0147352
0.0148393
0.0149571
0.0150895
0.0152372
0.0154011
0.0155823
0.0157813
0.0159985
0.0162329
0.0164823
0.0167418
0.0170034
0.0283231
0.0276301
0.0263584
0.0247802
0.0232504
0.021987
0.0209918
0.0201551
0.0193964
0.0187058
0.0181004
0.0175821
0.0171353
0.0167424
0.0163936
0.0160844
0.0158116
0.0155712
0.0153594
0.0151732
0.0150101
0.0148681
0.0147457
0.0146415
0.0145542
0.0144829
0.0144267
0.0143849
0.0143569
0.0143422
0.0143403
0.014351
0.0143741
0.0144092
0.0144563
0.0145154
0.0145866
0.01467
0.0147659
0.0148747
0.0149969
0.0151331
0.0152839
0.0154498
0.015631
0.0158269
0.0160362
0.0162557
0.0164799
0.0167005
0.0277774
0.0271566
0.02601
0.0245667
0.0231341
0.0219177
0.0209417
0.020121
0.0193812
0.018706
0.0181085
0.017593
0.0171475
0.0167558
0.0164077
0.0160983
0.0158246
0.0155828
0.0153695
0.0151814
0.0150163
0.0148721
0.0147472
0.0146403
0.0145501
0.0144757
0.0144162
0.0143708
0.014339
0.0143202
0.0143139
0.0143199
0.0143378
0.0143673
0.0144085
0.0144611
0.0145252
0.0146008
0.0146882
0.0147875
0.0148991
0.0150234
0.0151605
0.0153105
0.0154732
0.0156474
0.0158312
0.0160208
0.0162103
0.0163912
0.0272523
0.0266956
0.0256613
0.0243423
0.0230045
0.0218388
0.0208851
0.020081
0.0193596
0.0187003
0.018112
0.0176005
0.0171567
0.0167664
0.0164193
0.0161101
0.0158356
0.0155927
0.0153778
0.015188
0.0150209
0.0148744
0.0147471
0.0146375
0.0145444
0.0144668
0.0144039
0.0143549
0.0143191
0.014296
0.0142852
0.0142863
0.0142988
0.0143227
0.0143576
0.0144034
0.0144601
0.0145277
0.0146061
0.0146956
0.0147961
0.0149078
0.0150307
0.0151643
0.015308
0.0154603
0.0156185
0.0157785
0.015934
0.0160768
0.0267466
0.0262469
0.0253133
0.0241088
0.0228625
0.0217499
0.0208218
0.0200351
0.0193317
0.0186886
0.0181107
0.0176041
0.0171627
0.0167741
0.0164282
0.0161194
0.0158445
0.0156006
0.0153844
0.0151929
0.0150238
0.0148751
0.0147453
0.014633
0.0145369
0.0144561
0.0143897
0.0143369
0.0142971
0.0142697
0.0142541
0.0142501
0.0142572
0.014275
0.0143035
0.0143423
0.0143914
0.0144505
0.0145197
0.0145988
0.0146878
0.0147866
0.0148947
0.0150115
0.0151359
0.0152659
0.0153985
0.0155293
0.0156519
0.0157581
0.0262592
0.0258101
0.024967
0.0238674
0.022709
0.0216511
0.0207515
0.0199832
0.0192977
0.0186708
0.0181043
0.0176037
0.0171653
0.0167788
0.0164344
0.0161263
0.0158512
0.0156064
0.0153889
0.0151959
0.0150249
0.014874
0.0147417
0.0146266
0.0145275
0.0144435
0.0143735
0.0143169
0.0142729
0.0142409
0.0142205
0.0142112
0.0142126
0.0142244
0.0142461
0.0142777
0.0143187
0.0143692
0.0144287
0.0144972
0.0145743
0.0146597
0.0147526
0.0148523
0.0149571
0.0150647
0.015172
0.0152741
0.0153648
0.0154362
0.0257888
0.025385
0.0246231
0.0236197
0.0225448
0.0215424
0.0206738
0.0199253
0.0192575
0.018647
0.0180925
0.017599
0.0171643
0.0167802
0.0164375
0.0161304
0.0158554
0.01561
0.0153914
0.0151968
0.0150239
0.0148709
0.0147361
0.0146183
0.0145162
0.0144288
0.0143552
0.0142946
0.0142463
0.0142097
0.0141844
0.0141696
0.0141652
0.0141705
0.0141854
0.0142094
0.0142422
0.0142836
0.0143332
0.0143907
0.0144555
0.0145271
0.0146047
0.0146869
0.0147719
0.0148573
0.0149395
0.0150137
0.0150737
0.015112
0.0253346
0.0249711
0.0242822
0.0233667
0.0223711
0.0214242
0.0205885
0.0198611
0.0192112
0.0186171
0.0180753
0.0175896
0.0171595
0.0167782
0.0164375
0.0161316
0.015857
0.0156112
0.0153915
0.0151955
0.0150209
0.0148658
0.0147285
0.0146079
0.0145027
0.0144119
0.0143346
0.01427
0.0142173
0.014176
0.0141455
0.0141252
0.0141146
0.0141134
0.0141212
0.0141374
0.0141617
0.0141938
0.0142332
0.0142793
0.0143315
0.0143891
0.0144509
0.0145155
0.0145808
0.0146441
0.0147017
0.0147488
0.0147795
0.0147865
0.0248956
0.0245681
0.0239448
0.0231096
0.0221886
0.0212967
0.0204956
0.0197905
0.0191588
0.0185811
0.0180524
0.0175755
0.0171506
0.0167725
0.0164341
0.0161297
0.0158558
0.0156097
0.0153893
0.015192
0.0150156
0.0148584
0.0147187
0.0145953
0.014487
0.0143928
0.0143117
0.0142429
0.0141858
0.0141396
0.0141038
0.0140777
0.014061
0.014053
0.0140534
0.0140616
0.0140772
0.0140997
0.0141286
0.0141631
0.0142025
0.0142458
0.0142918
0.0143387
0.0143843
0.0144257
0.0144593
0.0144803
0.0144829
0.0144605
0.0244709
0.0241755
0.0236112
0.0228494
0.0219985
0.0211605
0.0203951
0.0197136
0.0191004
0.018539
0.0180238
0.0175564
0.0171374
0.0167631
0.0164273
0.0161246
0.0158515
0.0156055
0.0153844
0.0151859
0.0150079
0.0148486
0.0147066
0.0145804
0.0144689
0.0143712
0.0142863
0.0142133
0.0141516
0.0141004
0.0140592
0.0140272
0.0140041
0.0139892
0.013982
0.0139821
0.0139887
0.0140014
0.0140195
0.0140422
0.0140685
0.0140974
0.0141274
0.0141566
0.0141827
0.0142028
0.014213
0.0142089
0.0141848
0.0141348
0.0240597
0.0237931
0.0232819
0.0225869
0.0218015
0.021016
0.0202869
0.01963
0.0190359
0.0184909
0.0179894
0.017532
0.0171197
0.0167497
0.0164168
0.0161161
0.0158441
0.0155984
0.0153767
0.0151772
0.0149976
0.0148364
0.0146919
0.014563
0.0144484
0.0143471
0.0142583
0.0141811
0.0141147
0.0140584
0.0140116
0.0139736
0.013944
0.013922
0.0139071
0.0138987
0.0138962
0.0138989
0.013906
0.0139166
0.0139298
0.0139441
0.0139581
0.0139698
0.0139767
0.0139758
0.0139635
0.0139353
0.0138862
0.0138104
0.0236613
0.0234204
0.022957
0.022323
0.0215987
0.0208638
0.0201713
0.0195399
0.0189652
0.0184368
0.0179491
0.0175024
0.0170973
0.016732
0.0164025
0.016104
0.0158334
0.0155881
0.0153662
0.0151657
0.0149847
0.0148215
0.0146747
0.014543
0.0144252
0.0143204
0.0142276
0.014146
0.0140749
0.0140134
0.0139609
0.0139168
0.0138804
0.0138512
0.0138284
0.0138115
0.0137996
0.0137921
0.0137881
0.0137866
0.0137865
0.0137863
0.0137844
0.0137787
0.0137668
0.0137456
0.0137115
0.0136605
0.0135877
0.0134879
0.0232748
0.023057
0.0226367
0.0220582
0.0213907
0.0207044
0.0200484
0.0194432
0.0188884
0.0183767
0.0179031
0.0174673
0.01707
0.0167101
0.0163841
0.0160882
0.0158192
0.0155746
0.0153525
0.0151512
0.0149688
0.0148038
0.0146547
0.0145202
0.0143993
0.0142909
0.0141941
0.0141081
0.0140321
0.0139653
0.0139071
0.0138567
0.0138135
0.0137769
0.0137461
0.0137204
0.0136991
0.0136813
0.0136661
0.0136524
0.0136389
0.0136242
0.0136065
0.0135838
0.0135535
0.0135127
0.0134578
0.0133852
0.0132901
0.0131681
0.0228998
0.0227027
0.0223212
0.0217933
0.0211785
0.0205385
0.0199186
0.0193399
0.0188056
0.0183106
0.0178512
0.0174267
0.0170377
0.0166836
0.0163616
0.0160685
0.0158013
0.0155576
0.0153356
0.0151336
0.01495
0.0147832
0.0146318
0.0144946
0.0143705
0.0142585
0.0141577
0.0140672
0.0139863
0.0139142
0.0138501
0.0137933
0.0137432
0.0136991
0.0136601
0.0136256
0.0135947
0.0135665
0.01354
0.013514
0.0134873
0.0134582
0.013425
0.0133856
0.0133374
0.0132777
0.0132031
0.01311
0.0129943
0.0128517
0.0225356
0.022357
0.0220106
0.0215286
0.0209626
0.0203668
0.0197821
0.0192303
0.0187166
0.0182386
0.0177934
0.0173805
0.0170002
0.0166523
0.0163348
0.0160448
0.0157796
0.0155369
0.0153152
0.0151127
0.014928
0.0147595
0.0146059
0.014466
0.0143387
0.0142231
0.0141183
0.0140233
0.0139374
0.0138598
0.0137898
0.0137266
0.0136694
0.0136177
0.0135705
0.013527
0.0134865
0.0134478
0.01341
0.0133718
0.0133319
0.0132887
0.0132403
0.0131846
0.0131193
0.0130415
0.0129481
0.0128359
0.0127009
0.0125395
0.0221815
0.0220197
0.0217048
0.0212647
0.0207439
0.0201897
0.0196394
0.0191143
0.0186216
0.0181607
0.0177299
0.0173287
0.0169575
0.0166163