/*--------------------------------*- C++ -*----------------------------------*\
  =========                 |
  \\      /  F ield         | OpenFOAM: The Open Source CFD Toolbox
   \\    /   O peration     | Website:  https://openfoam.org
    \\  /    A nd           | Version:  7
     \\/     M anipulation  |
\*---------------------------------------------------------------------------*/
FoamFile
{
    version     2.0;
    format      ascii;
    class       volVectorField;
    location    "0.35";
    object      U;
}
// * * * * * * * * * * * * * * * * * * * * * * * * * * * * * * * * * * * * * //

dimensions      [0 1 -1 0 0 0 0];

internalField   nonuniform List<vector> 
70000
(
(0.553389 0.0167232 0)
(0.251251 0.00340119 0)
(0.166179 0.000322192 0)
(0.13242 5.44412e-05 0)
(0.117214 4.58808e-05 0)
(0.107274 5.40662e-05 0)
(0.0993068 4.64467e-05 0)
(0.0928463 3.71262e-05 0)
(0.0875797 3.08328e-05 0)
(0.083187 2.65264e-05 0)
(0.0794399 2.32489e-05 0)
(0.0761906 2.06274e-05 0)
(0.0733376 1.84936e-05 0)
(0.0708067 1.67347e-05 0)
(0.0685417 1.52677e-05 0)
(0.0664989 1.40306e-05 0)
(0.064644 1.2977e-05 0)
(0.0629497 1.20727e-05 0)
(0.0613937 1.12907e-05 0)
(0.0599576 1.0611e-05 0)
(0.0586264 1.00172e-05 0)
(0.0573871 9.4969e-06 0)
(0.056229 9.03996e-06 0)
(0.0551428 8.63864e-06 0)
(0.0541204 8.28575e-06 0)
(0.0531547 7.9771e-06 0)
(0.0522398 7.7066e-06 0)
(0.0513702 7.47279e-06 0)
(0.0505409 7.26938e-06 0)
(0.0497478 7.09832e-06 0)
(0.0489869 6.94995e-06 0)
(0.0482545 6.83418e-06 0)
(0.0475479 6.72935e-06 0)
(0.0468634 6.66424e-06 0)
(0.0461994 6.58988e-06 0)
(0.0455521 6.57067e-06 0)
(0.0449209 6.51151e-06 0)
(0.0443026 6.52182e-06 0)
(0.0436957 6.47431e-06 0)
(0.0431019 6.43735e-06 0)
(0.0425109 6.47931e-06 0)
(0.0419466 6.10028e-06 0)
(0.0413578 6.61422e-06 0)
(0.0408516 4.9473e-06 0)
(0.0402331 7.24167e-06 0)
(0.0398725 1.51302e-06 0)
(0.0391449 9.85085e-06 0)
(0.039138 -8.95585e-06 0)
(0.0382635 2.56523e-05 0)
(0.0361387 -0.00147258 0)
(0.884898 0.043168 0)
(0.6497 0.0201952 0)
(0.49428 0.00659983 0)
(0.403594 0.00276937 0)
(0.354635 0.00155408 0)
(0.323291 0.00113402 0)
(0.299385 0.000913159 0)
(0.280134 0.000749568 0)
(0.264362 0.000627015 0)
(0.251177 0.000536553 0)
(0.239929 0.000467952 0)
(0.230175 0.000414041 0)
(0.221611 0.000370554 0)
(0.214013 0.000334835 0)
(0.207212 0.000305075 0)
(0.201079 0.00027998 0)
(0.195509 0.000258595 0)
(0.190423 0.000240208 0)
(0.185752 0.000224276 0)
(0.181443 0.000210383 0)
(0.177449 0.000198203 0)
(0.173733 0.000187477 0)
(0.170262 0.000178002 0)
(0.167009 0.000169611 0)
(0.163949 0.00016217 0)
(0.161062 0.000155569 0)
(0.158329 0.000149716 0)
(0.155734 0.000144539 0)
(0.153263 0.00013997 0)
(0.150902 0.000135965 0)
(0.148641 0.000132467 0)
(0.146469 0.000129467 0)
(0.144377 0.000126884 0)
(0.142353 0.000124772 0)
(0.140394 0.000122972 0)
(0.138488 0.000121668 0)
(0.136633 0.0001205 0)
(0.134818 0.000119924 0)
(0.133039 0.000119174 0)
(0.131299 0.000119154 0)
(0.129568 0.000118515 0)
(0.127909 0.000118492 0)
(0.126183 0.000117655 0)
(0.124669 0.00011579 0)
(0.122852 0.000115042 0)
(0.121694 0.000104989 0)
(0.119569 0.000110867 0)
(0.119245 4.97167e-05 0)
(0.116728 0.000260636 0)
(0.114754 -0.00244986 0)
(0.991237 0.0499025 0)
(0.890335 0.0307214 0)
(0.762643 0.0146014 0)
(0.656596 0.00798409 0)
(0.585226 0.00489021 0)
(0.535767 0.00347752 0)
(0.497833 0.00274308 0)
(0.467136 0.00225175 0)
(0.441733 0.00188952 0)
(0.420325 0.00161877 0)
(0.401967 0.00141216 0)
(0.385991 0.00124975 0)
(0.371921 0.00111881 0)
(0.359409 0.00101123 0)
(0.348189 0.000921541 0)
(0.338052 0.000845853 0)
(0.328837 0.000781301 0)
(0.32041 0.000725748 0)
(0.312666 0.000677567 0)
(0.305516 0.000635505 0)
(0.298887 0.000598582 0)
(0.292716 0.000566026 0)
(0.286951 0.000537217 0)
(0.281547 0.000511656 0)
(0.276464 0.000488936 0)
(0.271669 0.000468725 0)
(0.267132 0.000450747 0)
(0.262826 0.000434778 0)
(0.258728 0.000420626 0)
(0.254816 0.000408141 0)
(0.251074 0.000397179 0)
(0.247481 0.000387666 0)
(0.244025 0.000379443 0)
(0.240688 0.000372557 0)
(0.23746 0.000366715 0)
(0.234326 0.00036223 0)
(0.231278 0.000358388 0)
(0.228302 0.00035615 0)
(0.225389 0.000353721 0)
(0.222542 0.000353559 0)
(0.219717 0.000351446 0)
(0.216999 0.000352899 0)
(0.21419 0.000349031 0)
(0.211683 0.000350215 0)
(0.208743 0.000341533 0)
(0.206723 0.000333087 0)
(0.20335 0.000326695 0)
(0.202423 0.000219942 0)
(0.198409 0.000499855 0)
(0.19761 -0.002334 0)
(1.0156 0.0489218 0)
(1.00595 0.0358789 0)
(0.935918 0.0207977 0)
(0.852052 0.0135119 0)
(0.782064 0.00921708 0)
(0.726807 0.0067924 0)
(0.681651 0.00539669 0)
(0.643804 0.00445951 0)
(0.611682 0.00376763 0)
(0.584096 0.00324355 0)
(0.560112 0.00283893 0)
(0.539023 0.00251868 0)
(0.520302 0.00225933 0)
(0.503544 0.00204547 0)
(0.488436 0.00186661 0)
(0.474727 0.00171522 0)
(0.462218 0.00158579 0)
(0.450745 0.00147414 0)
(0.440172 0.00137711 0)
(0.43039 0.00129222 0)
(0.421302 0.00121757 0)
(0.412829 0.00115162 0)
(0.404903 0.00109314 0)
(0.397465 0.00104114 0)
(0.390464 0.000994813 0)
(0.383854 0.000953497 0)
(0.377598 0.000916641 0)
(0.371658 0.00088379 0)
(0.366005 0.000854568 0)
(0.360611 0.000828663 0)
(0.35545 0.000805807 0)
(0.350499 0.000785814 0)
(0.345739 0.000768435 0)
(0.341148 0.000753664 0)
(0.336711 0.00074108 0)
(0.332407 0.000731088 0)
(0.328228 0.00072261 0)
(0.324152 0.000717163 0)
(0.32017 0.000711713 0)
(0.316279 0.000710765 0)
(0.31243 0.000706131 0)
(0.308715 0.00070975 0)
(0.304908 0.000701242 0)
(0.301451 0.000708476 0)
(0.297514 0.000688014 0)
(0.294597 0.00068745 0)
(0.290206 0.000660222 0)
(0.288447 0.000525461 0)
(0.283308 0.000769498 0)
(0.28268 -0.00176534 0)
(1.01434 0.0460055 0)
(1.04752 0.0374936 0)
(1.02455 0.0241597 0)
(0.974698 0.0175698 0)
(0.923341 0.0131354 0)
(0.876513 0.010222 0)
(0.834279 0.00836146 0)
(0.796444 0.00704347 0)
(0.762776 0.00603658 0)
(0.732839 0.00525181 0)
(0.706122 0.00463238 0)
(0.682154 0.00413423 0)
(0.660538 0.00372602 0)
(0.640941 0.00338628 0)
(0.623088 0.00309996 0)
(0.606749 0.00285606 0)
(0.591729 0.00264638 0)
(0.577868 0.00246466 0)
(0.565028 0.00230606 0)
(0.553093 0.0021668 0)
(0.541961 0.00204391 0)
(0.531548 0.00193499 0)
(0.521778 0.00183813 0)
(0.512585 0.00175174 0)
(0.503913 0.00167455 0)
(0.495711 0.0016055 0)
(0.487934 0.0015437 0)
(0.480543 0.00148843 0)
(0.4735 0.00143907 0)
(0.466774 0.00139512 0)
(0.460337 0.00135617 0)
(0.454158 0.00132186 0)
(0.448218 0.00129187 0)
(0.442488 0.00126609 0)
(0.436954 0.00124399 0)
(0.431588 0.00122602 0)
(0.426381 0.00121077 0)
(0.421308 0.00120029 0)
(0.416357 0.00119026 0)
(0.411521 0.00118739 0)
(0.406752 0.00117916 0)
(0.402134 0.00118462 0)
(0.397446 0.00117076 0)
(0.393112 0.00118451 0)
(0.388335 0.00115214 0)
(0.384533 0.00115981 0)
(0.379377 0.00111142 0)
(0.376644 0.00095795 0)
(0.370872 0.00113084 0)
(0.369325 -0.00109146 0)
(1.00933 0.0429172 0)
(1.05527 0.0372696 0)
(1.05867 0.0253055 0)
(1.03632 0.0197719 0)
(1.00701 0.0158279 0)
(0.975918 0.0129562 0)
(0.944328 0.0109844 0)
(0.913381 0.0095069 0)
(0.883926 0.00832094 0)
(0.856349 0.00735731 0)
(0.83073 0.00657123 0)
(0.807006 0.00592272 0)
(0.785059 0.00538052 0)
(0.764744 0.00492192 0)
(0.745917 0.00453023 0)
(0.728436 0.00419287 0)
(0.712171 0.00390008 0)
(0.697005 0.00364428 0)
(0.682829 0.00341946 0)
(0.66955 0.00322085 0)
(0.657081 0.00304461 0)
(0.645348 0.00288764 0)
(0.634281 0.0027474 0)
(0.623821 0.0026218 0)
(0.613914 0.00250913 0)
(0.60451 0.00240793 0)
(0.595566 0.00231702 0)
(0.58704 0.00223538 0)
(0.578899 0.00216218 0)
(0.571108 0.00209671 0)
(0.563637 0.0020384 0)
(0.556457 0.00198677 0)
(0.549546 0.00194136 0)
(0.542874 0.00190198 0)
(0.536426 0.00186801 0)
(0.530172 0.00183991 0)
(0.524103 0.00181597 0)
(0.51819 0.00179871 0)
(0.512423 0.00178266 0)
(0.506787 0.00177652 0)
(0.501244 0.00176384 0)
(0.495857 0.00176998 0)
(0.49044 0.00175099 0)
(0.485344 0.00176941 0)
(0.479901 0.00172797 0)
(0.47529 0.00173926 0)
(0.469597 0.00167615 0)
(0.465882 0.00150077 0)
(0.459835 0.00160915 0)
(0.457014 -0.000349564 0)
(1.00625 0.0400359 0)
(1.05206 0.0363428 0)
(1.06607 0.0252359 0)
(1.05956 0.0205735 0)
(1.04681 0.0172573 0)
(1.03069 0.0146797 0)
(1.01174 0.012849 0)
(0.990989 0.01143 0)
(0.969493 0.0102393 0)
(0.947982 0.00922926 0)
(0.9269 0.00837445 0)
(0.906511 0.00764711 0)
(0.886961 0.00702293 0)
(0.868321 0.00648323 0)
(0.85061 0.0060136 0)
(0.833815 0.00560261 0)
(0.817906 0.00524102 0)
(0.802839 0.00492135 0)
(0.788566 0.00463751 0)
(0.775039 0.00438448 0)
(0.762205 0.00415815 0)
(0.750019 0.00395513 0)
(0.738432 0.00377259 0)
(0.727402 0.00360815 0)
(0.716887 0.00345982 0)
(0.70685 0.00332593 0)
(0.697254 0.00320507 0)
(0.688066 0.00309602 0)
(0.679256 0.0029978 0)
(0.670794 0.00290953 0)
(0.662653 0.00283055 0)
(0.654808 0.00276023 0)
(0.647237 0.00269807 0)
(0.639914 0.00264377 0)
(0.632822 0.00259665 0)
(0.625935 0.00255718 0)
(0.619243 0.00252343 0)
(0.612716 0.00249828 0)
(0.606348 0.00247535 0)
(0.600118 0.00246486 0)
(0.594 0.00244743 0)
(0.58803 0.00245283 0)
(0.582072 0.00242975 0)
(0.576385 0.00244995 0)
(0.570463 0.00240361 0)
(0.565198 0.00241225 0)
(0.559157 0.00234266 0)
(0.5546 0.00214048 0)
(0.548449 0.00219395 0)
(0.544518 0.000471129 0)
(1.00495 0.0373582 0)
(1.04726 0.0352614 0)
(1.06396 0.024697 0)
(1.06422 0.0206013 0)
(1.06062 0.017797 0)
(1.05466 0.0155252 0)
(1.04586 0.0139103 0)
(1.03463 0.0126574 0)
(1.02165 0.0115792 0)
(1.00753 0.0106341 0)
(0.992741 0.00980873 0)
(0.977624 0.00908575 0)
(0.962447 0.00844856 0)
(0.947405 0.00788416 0)
(0.932634 0.00738236 0)
(0.918226 0.00693475 0)
(0.904242 0.00653427 0)
(0.890715 0.00617492 0)
(0.877661 0.00585159 0)
(0.865086 0.00555998 0)
(0.852984 0.00529641 0)
(0.841344 0.00505778 0)
(0.830151 0.0048414 0)
(0.819385 0.00464501 0)
(0.809029 0.00446664 0)
(0.79906 0.0043046 0)
(0.789458 0.00415747 0)
(0.780202 0.00402399 0)
(0.771272 0.00390314 0)
(0.762647 0.00379399 0)
(0.754308 0.00369584 0)
(0.746236 0.00360802 0)
(0.738413 0.00353001 0)
(0.730819 0.00346147 0)
(0.72344 0.00340172 0)
(0.716254 0.00335122 0)
(0.709254 0.00330794 0)
(0.702411 0.00327497 0)
(0.695724 0.00324542 0)
(0.689167 0.00323035 0)
(0.682728 0.00320873 0)
(0.676421 0.0032125 0)
(0.670154 0.00318705 0)
(0.664105 0.00320657 0)
(0.657916 0.00315955 0)
(0.652218 0.00316067 0)
(0.646008 0.00309086 0)
(0.640855 0.00286221 0)
(0.634693 0.0028645 0)
(0.62998 0.00135916 0)
(1.0044 0.0348105 0)
(1.04323 0.0341888 0)
(1.05992 0.0240569 0)
(1.06225 0.0203087 0)
(1.06244 0.0178626 0)
(1.06173 0.0158085 0)
(1.05913 0.0143677 0)
(1.05455 0.0132812 0)
(1.04828 0.0123467 0)
(1.04065 0.0115153 0)
(1.03192 0.0107761 0)
(1.02236 0.0101159 0)
(1.01219 0.00952179 0)
(1.00161 0.00898448 0)
(0.990777 0.00849706 0)
(0.979827 0.00805402 0)
(0.968863 0.00765065 0)
(0.957965 0.00728285 0)
(0.947194 0.00694706 0)
(0.936597 0.00664016 0)
(0.926204 0.00635942 0)
(0.916038 0.00610245 0)
(0.906113 0.00586716 0)
(0.896437 0.00565167 0)
(0.887013 0.00545437 0)
(0.87784 0.00527382 0)
(0.868915 0.00510876 0)
(0.860231 0.0049581 0)
(0.851781 0.00482091 0)
(0.843557 0.00469634 0)
(0.835549 0.00458379 0)
(0.827746 0.00448261 0)
(0.82014 0.00439237 0)
(0.812715 0.00431274 0)
(0.805466 0.00424311 0)
(0.798375 0.00418395 0)
(0.791438 0.00413327 0)
(0.784632 0.00409424 0)
(0.77796 0.00405978 0)
(0.771397 0.00404127 0)
(0.764939 0.00401719 0)
(0.758588 0.00401962 0)
(0.752287 0.00399417 0)
(0.746151 0.00401196 0)
(0.739938 0.00396812 0)
(0.734079 0.00395961 0)
(0.7279 0.00389354 0)
(0.722443 0.00364364 0)
(0.716384 0.00359755 0)
(0.711229 0.00228847 0)
(1.00402 0.0323706 0)
(1.0399 0.0331393 0)
(1.05614 0.0234348 0)
(1.05889 0.0199218 0)
(1.06017 0.0177336 0)
(1.0615 0.0158144 0)
(1.06185 0.0144752 0)
(1.06093 0.0135043 0)
(1.05884 0.0126867 0)
(1.05567 0.0119625 0)
(1.05152 0.011318 0)
(1.04649 0.0107394 0)
(1.04072 0.010214 0)
(1.03432 0.00973301 0)
(1.02742 0.00929061 0)
(1.02013 0.00888263 0)
(1.01253 0.00850575 0)
(1.00472 0.00815722 0)
(0.996773 0.00783468 0)
(0.988739 0.00753611 0)
(0.980672 0.00725971 0)
(0.972611 0.00700391 0)
(0.96459 0.00676728 0)
(0.956634 0.00654856 0)
(0.948762 0.00634659 0)
(0.94099 0.00616033 0)
(0.933327 0.00598887 0)
(0.925781 0.00583136 0)
(0.918358 0.00568714 0)
(0.911059 0.00555552 0)
(0.903884 0.00543608 0)
(0.896833 0.00532831 0)
(0.889904 0.00523191 0)
(0.883091 0.00514666 0)
(0.876393 0.00507206 0)
(0.869799 0.00500866 0)
(0.863312 0.00495455 0)
(0.856914 0.00491297 0)
(0.85061 0.00487691 0)
(0.844381 0.00485765 0)
(0.838229 0.00483404 0)
(0.832151 0.0048369 0)
(0.826112 0.00481457 0)
(0.820188 0.0048313 0)
(0.814217 0.00479432 0)
(0.808489 0.00477692 0)
(0.802566 0.00471701 0)
(0.797111 0.00445468 0)
(0.791311 0.00436399 0)
(0.786037 0.003229 0)
(1.00364 0.0300304 0)
(1.03691 0.0320925 0)
(1.0528 0.022846 0)
(1.05565 0.0195178 0)
(1.05708 0.017543 0)
(1.05896 0.0157159 0)
(1.06038 0.0144243 0)
(1.06105 0.0135168 0)
(1.06103 0.0127735 0)
(1.06034 0.0121246 0)
(1.05899 0.0115536 0)
(1.05698 0.0110455 0)
(1.05435 0.010586 0)
(1.05114 0.0101652 0)
(1.04742 0.00977661 0)
(1.04324 0.00941603 0)
(1.03866 0.00908031 0)
(1.03375 0.00876707 0)
(1.02856 0.00847445 0)
(1.02313 0.00820096 0)
(1.01752 0.00794538 0)
(1.01177 0.00770667 0)
(1.00591 0.00748394 0)
(0.999971 0.0072764 0)
(0.993979 0.00708332 0)
(0.987956 0.00690405 0)
(0.981921 0.00673803 0)
(0.975888 0.0065847 0)
(0.96987 0.00644366 0)
(0.963876 0.00631445 0)
(0.957915 0.00619687 0)
(0.951991 0.00609057 0)
(0.94611 0.00599545 0)
(0.940271 0.00591142 0)
(0.934481 0.00583813 0)
(0.928734 0.00577626 0)
(0.923035 0.00572402 0)
(0.917375 0.00568472 0)
(0.911761 0.00565153 0)
(0.906181 0.00563544 0)
(0.900638 0.00561625 0)
(0.895131 0.00562253 0)
(0.889638 0.00560708 0)
(0.88421 0.00562494 0)
(0.878745 0.00559844 0)
(0.873428 0.00557528 0)
(0.86799 0.00552337 0)
(0.862827 0.00525918 0)
(0.857466 0.00513006 0)
(0.85237 0.00414801 0)
(1.00327 0.027791 0)
(1.03408 0.0310344 0)
(1.04969 0.0222838 0)
(1.05269 0.0191118 0)
(1.05408 0.0173336 0)
(1.05601 0.0155881 0)
(1.05771 0.0143187 0)
(1.0589 0.0134417 0)
(1.05969 0.0127396 0)
(1.06012 0.0121347 0)
(1.06017 0.0116097 0)
(1.05981 0.0111494 0)
(1.05904 0.0107384 0)
(1.05786 0.0103654 0)
(1.05627 0.0100231 0)
(1.05431 0.00970645 0)
(1.052 0.00941185 0)
(1.04935 0.00913663 0)
(1.04641 0.00887881 0)
(1.04321 0.00863692 0)
(1.03976 0.00840985 0)
(1.03611 0.00819673 0)
(1.03228 0.0079969 0)
(1.0283 0.00780978 0)
(1.02418 0.00763493 0)
(1.01994 0.00747193 0)
(1.01562 0.00732044 0)
(1.01121 0.00718015 0)
(1.00674 0.00705084 0)
(1.00222 0.00693227 0)
(0.997652 0.0068244 0)
(0.993053 0.00672707 0)
(0.988429 0.00664031 0)
(0.983784 0.0065642 0)
(0.979125 0.00649852 0)
(0.974453 0.00644409 0)
(0.969776 0.00639924 0)
(0.965088 0.00636735 0)
(0.960398 0.00634187 0)
(0.9557 0.00633331 0)
(0.950998 0.00632284 0)
(0.946294 0.0063361 0)
(0.941575 0.00633152 0)
(0.936874 0.00635362 0)
(0.932132 0.00634097 0)
(0.927458 0.0063167 0)
(0.922701 0.00627452 0)
(0.918077 0.00601916 0)
(0.913323 0.00586053 0)
(0.908654 0.00501228 0)
(1.00292 0.0256555 0)
(1.03137 0.0299607 0)
(1.04669 0.0217436 0)
(1.0499 0.0187038 0)
(1.05126 0.0171121 0)
(1.05316 0.0154533 0)
(1.05489 0.0141995 0)
(1.0562 0.0133383 0)
(1.05723 0.0126596 0)
(1.05804 0.0120792 0)
(1.05866 0.0115796 0)
(1.05904 0.0111469 0)
(1.05918 0.0107656 0)
(1.05907 0.0104239 0)
(1.05871 0.0101138 0)
(1.05808 0.00982965 0)
(1.0572 0.0095673 0)
(1.05607 0.00932364 0)
(1.0547 0.00909636 0)
(1.0531 0.00888372 0)
(1.05129 0.00868447 0)
(1.04928 0.00849763 0)
(1.04708 0.00832253 0)
(1.04471 0.00815861 0)
(1.04219 0.00800548 0)
(1.03952 0.0078628 0)
(1.03673 0.00773034 0)
(1.03382 0.00760787 0)
(1.0308 0.0074953 0)
(1.02768 0.00739249 0)
(1.02449 0.00729949 0)
(1.02121 0.00721627 0)
(1.01786 0.00714296 0)
(1.01445 0.00707976 0)
(1.01098 0.00702653 0)
(1.00746 0.00698423 0)
(1.00389 0.00695126 0)
(1.00027 0.00693106 0)
(0.996609 0.00691741 0)
(0.992909 0.00692015 0)
(0.98917 0.00692218 0)
(0.985397 0.00694571 0)
(0.981582 0.00695541 0)
(0.977748 0.00698502 0)
(0.973862 0.00698884 0)
(0.969983 0.00696867 0)
(0.966036 0.00693779 0)
(0.962119 0.00670082 0)
(0.958094 0.00652338 0)
(0.954027 0.00579224 0)
(1.0026 0.0236267 0)
(1.02879 0.02887 0)
(1.04377 0.0212244 0)
(1.04721 0.0182937 0)
(1.04858 0.0168771 0)
(1.05044 0.015314 0)
(1.05216 0.0140777 0)
(1.05348 0.0132277 0)
(1.05454 0.0125657 0)
(1.05546 0.0120009 0)
(1.05624 0.0115157 0)
(1.05689 0.0110981 0)
(1.0574 0.0107334 0)
(1.05777 0.0104099 0)
(1.05798 0.0101192 0)
(1.05804 0.00985552 0)
(1.05793 0.0096145 0)
(1.05767 0.00939273 0)
(1.05723 0.00918762 0)
(1.05664 0.0089972 0)
(1.05589 0.00881999 0)
(1.05498 0.00865488 0)
(1.05392 0.00850104 0)
(1.05271 0.00835785 0)
(1.05137 0.00822486 0)
(1.0499 0.00810171 0)
(1.0483 0.00798816 0)
(1.04658 0.00788399 0)
(1.04476 0.00778912 0)
(1.04282 0.00770344 0)
(1.04079 0.00762703 0)
(1.03866 0.00755991 0)
(1.03645 0.00750223 0)
(1.03415 0.00745429 0)
(1.03177 0.00741594 0)
(1.02932 0.00738828 0)
(1.02679 0.00736972 0)
(1.0242 0.00736369 0)
(1.02155 0.00736437 0)
(1.01883 0.00738074 0)
(1.01605 0.00739769 0)
(1.01322 0.00743367 0)
(1.01033 0.00745982 0)
(1.00739 0.00749951 0)
(1.00439 0.00752122 0)
(1.00136 0.00750979 0)
(0.998256 0.00749141 0)
(0.995119 0.0072803 0)
(0.99187 0.00709518 0)
(0.988494 0.00646766 0)
(1.0023 0.0217063 0)
(1.02633 0.0277632 0)
(1.04094 0.0207246 0)
(1.0446 0.017883 0)
(1.04599 0.0166274 0)
(1.04782 0.0151687 0)
(1.04954 0.0139546 0)
(1.05085 0.0131148 0)
(1.05191 0.0124678 0)
(1.05283 0.0119161 0)
(1.05364 0.011441 0)
(1.05436 0.0110328 0)
(1.05498 0.0106779 0)
(1.05551 0.0103647 0)
(1.05595 0.0100851 0)
(1.0563 0.00983337 0)
(1.05655 0.00960505 0)
(1.0567 0.00939671 0)
(1.05675 0.00920568 0)
(1.0567 0.00902986 0)
(1.05654 0.00886768 0)
(1.05628 0.0087179 0)
(1.05591 0.0085796 0)
(1.05543 0.00845208 0)
(1.05486 0.00833483 0)
(1.05418 0.00822742 0)
(1.0534 0.00812959 0)
(1.05253 0.00804106 0)
(1.05156 0.00796175 0)
(1.05049 0.00789153 0)
(1.04934 0.00783044 0)
(1.04809 0.00777853 0)
(1.04677 0.00773591 0)
(1.04536 0.00770293 0)
(1.04386 0.00767941 0)
(1.0423 0.0076665 0)
(1.04065 0.00766265 0)
(1.03893 0.00767116 0)
(1.03715 0.0076867 0)
(1.03529 0.00771721 0)
(1.03336 0.00774969 0)
(1.03137 0.00779881 0)
(1.02932 0.0078419 0)
(1.0272 0.00789305 0)
(1.02502 0.00793259 0)
(1.02279 0.00793326 0)
(1.02048 0.00792793 0)
(1.0181 0.00774753 0)
(1.01559 0.00756509 0)
(1.01291 0.00703032 0)
(1.00203 0.0198952 0)
(1.02401 0.0266433 0)
(1.0382 0.020241 0)
(1.04208 0.0174736 0)
(1.0435 0.016363 0)
(1.04529 0.0150161 0)
(1.04701 0.0138295 0)
(1.04833 0.013 0)
(1.04937 0.012368 0)
(1.05027 0.0118292 0)
(1.05108 0.0113633 0)
(1.0518 0.0109626 0)
(1.05244 0.0106148 0)
(1.05301 0.0103085 0)
(1.05352 0.0100359 0)
(1.05396 0.00979126 0)
(1.05435 0.00957043 0)
(1.05467 0.00937001 0)
(1.05492 0.00918734 0)
(1.05512 0.00902035 0)
(1.05524 0.00886744 0)
(1.05531 0.00872737 0)
(1.0553 0.00859918 0)
(1.05523 0.00848214 0)
(1.05509 0.0083757 0)
(1.05487 0.00827944 0)
(1.05459 0.00819303 0)
(1.05424 0.00811622 0)
(1.05381 0.00804885 0)
(1.05331 0.0079908 0)
(1.05275 0.00794207 0)
(1.05211 0.0079027 0)
(1.0514 0.00787275 0)
(1.05062 0.0078526 0)
(1.04977 0.007842 0)
(1.04885 0.00784215 0)
(1.04786 0.00785152 0)
(1.04681 0.00787321 0)
(1.04569 0.00790243 0)
(1.04451 0.00794597 0)
(1.04326 0.00799298 0)
(1.04195 0.00805447 0)
(1.04057 0.00811341 0)
(1.03914 0.0081761 0)
(1.03764 0.00823206 0)
(1.03608 0.00824663 0)
(1.03445 0.00825423 0)
(1.03272 0.00810679 0)
(1.03085 0.00793582 0)
(1.02878 0.00748497 0)
(1.00179 0.0181936 0)
(1.02183 0.0255143 0)
(1.03556 0.0197698 0)
(1.03964 0.0170674 0)
(1.04109 0.0160847 0)
(1.04285 0.0148551 0)
(1.04457 0.0137019 0)
(1.04589 0.0128832 0)
(1.04692 0.0122661 0)
(1.04781 0.0117409 0)
(1.0486 0.0112845 0)
(1.04931 0.0108911 0)
(1.04995 0.0105495 0)
(1.05052 0.010249 0)
(1.05103 0.00998172 0)
(1.0515 0.00974224 0)
(1.05191 0.00952644 0)
(1.05228 0.00933109 0)
(1.05261 0.00915362 0)
(1.0529 0.00899202 0)
(1.05314 0.00884474 0)
(1.05334 0.00871057 0)
(1.0535 0.00858858 0)
(1.05362 0.00847808 0)
(1.05369 0.00837853 0)
(1.05371 0.00828951 0)
(1.05369 0.00821071 0)
(1.05362 0.00814188 0)
(1.0535 0.00808286 0)
(1.05333 0.00803351 0)
(1.0531 0.00799381 0)
(1.05283 0.00796381 0)
(1.0525 0.00794352 0)
(1.05212 0.00793334 0)
(1.05169 0.00793298 0)
(1.0512 0.0079436 0)
(1.05065 0.00796378 0)
(1.05005 0.00799631 0)
(1.04939 0.00803702 0)
(1.04868 0.0080915 0)
(1.04792 0.008151 0)
(1.0471 0.00822315 0)
(1.04623 0.0082958 0)
(1.0453 0.00836912 0)
(1.04431 0.00843921 0)
(1.04326 0.00846812 0)
(1.04214 0.00848803 0)
(1.04092 0.00837373 0)
(1.03956 0.00822119 0)
(1.03797 0.0078471 0)
(1.00157 0.0166012 0)
(1.01978 0.0243801 0)
(1.03303 0.0193069 0)
(1.03729 0.0166661 0)
(1.03878 0.0157936 0)
(1.0405 0.0146851 0)
(1.04222 0.0135715 0)
(1.04354 0.0127641 0)
(1.04456 0.012162 0)
(1.04544 0.0116511 0)
(1.04622 0.0112047 0)
(1.04691 0.0108187 0)
(1.04754 0.0104835 0)
(1.0481 0.0101886 0)
(1.0486 0.00992625 0)
(1.04906 0.00969126 0)
(1.04948 0.0094796 0)
(1.04986 0.00928817 0)
(1.0502 0.00911449 0)
(1.05051 0.00895664 0)
(1.05079 0.00881312 0)
(1.05104 0.00868278 0)
(1.05125 0.00856477 0)
(1.05144 0.00845841 0)
(1.0516 0.00836323 0)
(1.05173 0.00827884 0)
(1.05182 0.00820497 0)
(1.05188 0.00814139 0)
(1.05191 0.00808796 0)
(1.05191 0.00804455 0)
(1.05186 0.00801114 0)
(1.05178 0.00798778 0)
(1.05167 0.00797446 0)
(1.05151 0.00797159 0)
(1.05131 0.00797886 0)
(1.05107 0.00799739 0)
(1.05079 0.00802588 0)
(1.05046 0.00806679 0)
(1.0501 0.0081166 0)
(1.04968 0.00817971 0)
(1.04923 0.0082493 0)
(1.04873 0.00833011 0)
(1.04819 0.00841396 0)
(1.04759 0.00849658 0)
(1.04696 0.00857827 0)
(1.04625 0.00862108 0)
(1.04549 0.0086526 0)
(1.04463 0.0085703 0)
(1.04362 0.00844149 0)
(1.04238 0.0081384 0)
(1.00137 0.0151171 0)
(1.01787 0.0232447 0)
(1.0306 0.0188485 0)
(1.03503 0.0162712 0)
(1.03656 0.0154913 0)
(1.03825 0.0145056 0)
(1.03995 0.013438 0)
(1.04127 0.012643 0)
(1.04229 0.0120555 0)
(1.04316 0.0115594 0)
(1.04393 0.0111238 0)
(1.04461 0.0107456 0)
(1.04522 0.0104169 0)
(1.04577 0.0101277 0)
(1.04626 0.00987038 0)
(1.04671 0.00963979 0)
(1.04712 0.00943209 0)
(1.04749 0.00924425 0)
(1.04783 0.0090739 0)
(1.04814 0.00891917 0)
(1.04842 0.00877865 0)
(1.04867 0.00865124 0)
(1.0489 0.00853614 0)
(1.04911 0.00843275 0)
(1.0493 0.00834062 0)
(1.04946 0.00825944 0)
(1.0496 0.00818896 0)
(1.04971 0.00812901 0)
(1.0498 0.00807945 0)
(1.04987 0.00804021 0)
(1.0499 0.00801124 0)
(1.04991 0.00799263 0)
(1.04989 0.00798434 0)
(1.04985 0.00798681 0)
(1.04977 0.00799973 0)
(1.04966 0.00802416 0)
(1.04951 0.00805895 0)
(1.04934 0.00810621 0)
(1.04913 0.00816307 0)
(1.04889 0.00823282 0)
(1.04861 0.00831037 0)
(1.0483 0.00839809 0)
(1.04795 0.00849083 0)
(1.04756 0.00858148 0)
(1.04713 0.00867259 0)
(1.04664 0.00872857 0)
(1.0461 0.00877131 0)
(1.04546 0.00871936 0)
(1.04468 0.00861826 0)
(1.04366 0.00838188 0)
(1.00119 0.0137396 0)
(1.0161 0.0221121 0)
(1.02828 0.0183908 0)
(1.03285 0.0158838 0)
(1.03444 0.0151794 0)
(1.03608 0.0143159 0)
(1.03777 0.0133009 0)
(1.0391 0.0125198 0)
(1.04012 0.0119466 0)
(1.04097 0.0114659 0)
(1.04173 0.0110417 0)
(1.0424 0.0106716 0)
(1.043 0.0103497 0)
(1.04354 0.0100664 0)
(1.04402 0.00981422 0)
(1.04445 0.00958816 0)
(1.04485 0.00938445 0)
(1.04521 0.0092002 0)
(1.04554 0.0090331 0)
(1.04584 0.00888136 0)
(1.04611 0.00874361 0)
(1.04636 0.00861883 0)
(1.04659 0.00850626 0)
(1.0468 0.00840535 0)
(1.04699 0.00831572 0)
(1.04715 0.0082371 0)
(1.0473 0.0081693 0)
(1.04743 0.00811217 0)
(1.04754 0.00806562 0)
(1.04763 0.00802959 0)
(1.04769 0.00800404 0)
(1.04773 0.00798909 0)
(1.04775 0.0079847 0)
(1.04775 0.00799131 0)
(1.04772 0.00800863 0)
(1.04767 0.00803765 0)
(1.04759 0.0080774 0)
(1.04749 0.00812964 0)
(1.04735 0.00819211 0)
(1.04719 0.00826714 0)
(1.04701 0.00835106 0)
(1.04679 0.00844447 0)
(1.04654 0.00854436 0)
(1.04626 0.00864215 0)
(1.04595 0.00874115 0)
(1.04558 0.00880964 0)
(1.04516 0.00886371 0)
(1.04463 0.00884055 0)
(1.04398 0.00877024 0)
(1.04308 0.00859751 0)
(1.00104 0.0124665 0)
(1.01446 0.0209867 0)
(1.02607 0.0179305 0)
(1.03076 0.0155047 0)
(1.03241 0.0148599 0)
(1.03401 0.0141156 0)
(1.03568 0.0131596 0)
(1.03701 0.0123945 0)
(1.03803 0.0118354 0)
(1.03887 0.0113703 0)
(1.03962 0.0109581 0)
(1.04028 0.0105967 0)
(1.04087 0.0102817 0)
(1.0414 0.0100045 0)
(1.04187 0.00975775 0)
(1.04229 0.00953636 0)
(1.04268 0.00933678 0)
(1.04303 0.0091562 0)
(1.04335 0.0089924 0)
(1.04364 0.00884367 0)
(1.0439 0.00870869 0)
(1.04414 0.00858649 0)
(1.04436 0.00847636 0)
(1.04456 0.00837782 0)
(1.04474 0.00829052 0)
(1.04491 0.00821425 0)
(1.04505 0.00814886 0)
(1.04518 0.00809424 0)
(1.04529 0.00805033 0)
(1.04538 0.00801709 0)
(1.04545 0.00799451 0)
(1.0455 0.00798271 0)
(1.04553 0.00798166 0)
(1.04554 0.00799179 0)
(1.04553 0.00801288 0)
(1.04549 0.00804578 0)
(1.04544 0.00808975 0)
(1.04536 0.00814621 0)
(1.04526 0.00821343 0)
(1.04514 0.00829297 0)
(1.04499 0.0083823 0)
(1.04481 0.00848073 0)
(1.04461 0.00858672 0)
(1.04438 0.00869119 0)
(1.04412 0.00879731 0)
(1.0438 0.00887797 0)
(1.04343 0.00894401 0)
(1.04297 0.00894855 0)
(1.04237 0.00891145 0)
(1.04154 0.00880041 0)
(1.0009 0.0112949 0)
(1.01295 0.0198728 0)
(1.02397 0.0174644 0)
(1.02875 0.0151345 0)
(1.03047 0.0145349 0)
(1.03203 0.0139045 0)
(1.03368 0.0130137 0)
(1.03502 0.0122671 0)
(1.03603 0.0117217 0)
(1.03687 0.0112725 0)
(1.0376 0.0108731 0)
(1.03826 0.0105207 0)
(1.03884 0.010213 0)
(1.03935 0.00994215 0)
(1.03981 0.00970091 0)
(1.04023 0.00948435 0)
(1.0406 0.00928902 0)
(1.04094 0.00911223 0)
(1.04125 0.00895184 0)
(1.04153 0.0088062 0)
(1.04178 0.00867404 0)
(1.04202 0.00855446 0)
(1.04223 0.00844681 0)
(1.04242 0.00835063 0)
(1.04259 0.00826565 0)
(1.04275 0.0081917 0)
(1.04289 0.00812867 0)
(1.04301 0.0080765 0)
(1.04311 0.00803512 0)
(1.04319 0.00800457 0)
(1.04326 0.0079848 0)
(1.04331 0.00797597 0)
(1.04334 0.00797807 0)
(1.04335 0.00799148 0)
(1.04334 0.00801605 0)
(1.04331 0.00805256 0)
(1.04326 0.00810041 0)
(1.04319 0.00816075 0)
(1.0431 0.00823234 0)
(1.04298 0.00831607 0)
(1.04285 0.00841029 0)
(1.04269 0.00851353 0)
(1.0425 0.00862507 0)
(1.04229 0.00873618 0)
(1.04204 0.00884928 0)
(1.04175 0.00894207 0)
(1.0414 0.00902116 0)
(1.04095 0.0090528 0)
(1.04037 0.0090509 0)
(1.03957 0.00900036 0)
(1.00078 0.0102214 0)
(1.01156 0.0187749 0)
(1.02198 0.0169898 0)
(1.02684 0.0147731 0)
(1.02862 0.0142064 0)
(1.03015 0.0136826 0)
(1.03177 0.0128624 0)
(1.03311 0.0121376 0)
(1.03412 0.0116056 0)
(1.03495 0.0111725 0)
(1.03568 0.0107864 0)
(1.03632 0.0104436 0)
(1.03689 0.0101434 0)
(1.0374 0.00987912 0)
(1.03785 0.00964361 0)
(1.03826 0.00943207 0)
(1.03862 0.00924114 0)
(1.03895 0.00906825 0)
(1.03925 0.00891137 0)
(1.03952 0.00876891 0)
(1.03977 0.00863966 0)
(1.03999 0.00852278 0)
(1.04019 0.00841765 0)
(1.04038 0.00832389 0)
(1.04054 0.00824128 0)
(1.04069 0.00816969 0)
(1.04082 0.00810905 0)
(1.04093 0.00805934 0)
(1.04103 0.00802053 0)
(1.04111 0.00799266 0)
(1.04117 0.0079757 0)
(1.04121 0.00796983 0)
(1.04123 0.00797503 0)
(1.04124 0.00799169 0)
(1.04123 0.0080197 0)
(1.04119 0.00805973 0)
(1.04114 0.00811138 0)
(1.04107 0.00817553 0)
(1.04097 0.00825132 0)
(1.04086 0.0083392 0)
(1.04072 0.00843815 0)
(1.04057 0.00854625 0)
(1.04038 0.00866322 0)
(1.04017 0.00878115 0)
(1.03993 0.00890151 0)
(1.03964 0.00900665 0)
(1.03929 0.00910005 0)
(1.03884 0.00915863 0)
(1.03826 0.00919343 0)
(1.03747 0.00920251 0)
(1.00067 0.00924169 0)
(1.0103 0.0176974 0)
(1.02011 0.0165045 0)
(1.025 0.0144204 0)
(1.02687 0.0138765 0)
(1.02836 0.0134502 0)
(1.02995 0.0127051 0)
(1.03128 0.0120058 0)
(1.0323 0.0114872 0)
(1.03313 0.01107 0)
(1.03384 0.0106979 0)
(1.03448 0.0103653 0)
(1.03504 0.0100729 0)
(1.03554 0.00981536 0)
(1.03598 0.0095858 0)
(1.03638 0.00937944 0)
(1.03674 0.00919306 0)
(1.03706 0.00902421 0)
(1.03735 0.00887095 0)
(1.03761 0.00873176 0)
(1.03785 0.00860551 0)
(1.03806 0.00849139 0)
(1.03826 0.00838887 0)
(1.03843 0.0082976 0)
(1.03859 0.00821742 0)
(1.03873 0.00814825 0)
(1.03885 0.00809006 0)
(1.03896 0.00804288 0)
(1.03905 0.00800668 0)
(1.03912 0.00798154 0)
(1.03917 0.00796745 0)
(1.03921 0.00796458 0)
(1.03922 0.00797294 0)
(1.03922 0.00799288 0)
(1.03921 0.00802435 0)
(1.03917 0.00806795 0)
(1.03911 0.00812342 0)
(1.03903 0.00819142 0)
(1.03894 0.00827144 0)
(1.03882 0.00836357 0)
(1.03868 0.00846723 0)
(1.03852 0.00858039 0)
(1.03833 0.0087029 0)
(1.03812 0.00882795 0)
(1.03787 0.00895614 0)
(1.03757 0.00907398 0)
(1.03721 0.00918298 0)
(1.03676 0.00926862 0)
(1.03618 0.00934118 0)
(1.03538 0.009409 0)
(1.00058 0.00835134 0)
(1.00916 0.0166446 0)
(1.01835 0.0160068 0)
(1.02325 0.0140756 0)
(1.0252 0.0135471 0)
(1.02666 0.0132079 0)
(1.02821 0.0125411 0)
(1.02955 0.0118714 0)
(1.03057 0.0113666 0)
(1.03139 0.010965 0)
(1.0321 0.0106075 0)
(1.03273 0.0102855 0)
(1.03328 0.0100014 0)
(1.03377 0.00975079 0)
(1.0342 0.00952737 0)
(1.03459 0.00932639 0)
(1.03494 0.00914472 0)
(1.03525 0.00898004 0)
(1.03554 0.00883051 0)
(1.03579 0.0086947 0)
(1.03602 0.00857153 0)
(1.03623 0.00846027 0)
(1.03642 0.00836042 0)
(1.03658 0.00827171 0)
(1.03673 0.00819403 0)
(1.03687 0.00812735 0)
(1.03698 0.00807168 0)
(1.03708 0.00802709 0)
(1.03716 0.00799358 0)
(1.03723 0.00797125 0)
(1.03727 0.00796009 0)
(1.0373 0.00796029 0)
(1.03732 0.00797187 0)
(1.03731 0.00799517 0)
(1.03729 0.00803018 0)
(1.03724 0.00807742 0)
(1.03718 0.00813678 0)
(1.0371 0.00820874 0)
(1.037 0.00829304 0)
(1.03688 0.00838958 0)
(1.03673 0.00849806 0)
(1.03657 0.00861652 0)
(1.03637 0.00874481 0)
(1.03615 0.00887735 0)
(1.0359 0.009014 0)
(1.03559 0.00914499 0)
(1.03523 0.00927078 0)
(1.03477 0.00938371 0)
(1.03418 0.00949462 0)
(1.03339 0.00962005 0)
(1.0005 0.00754525 0)
(1.00813 0.0156209 0)
(1.01671 0.0154957 0)
(1.02159 0.013738 0)
(1.02361 0.01322 0)
(1.02505 0.0129565 0)
(1.02656 0.0123701 0)
(1.02789 0.0117343 0)
(1.02892 0.0112437 0)
(1.02973 0.0108575 0)
(1.03044 0.0105149 0)
(1.03106 0.0102043 0)
(1.03161 0.00992872 0)
(1.03209 0.00968532 0)
(1.03252 0.00946825 0)
(1.0329 0.00927284 0)
(1.03324 0.00909603 0)
(1.03354 0.00893566 0)