/*--------------------------------*- C++ -*----------------------------------*\
  =========                 |
  \\      /  F ield         | OpenFOAM: The Open Source CFD Toolbox
   \\    /   O peration     | Website:  https://openfoam.org
    \\  /    A nd           | Version:  7
     \\/     M anipulation  |
\*---------------------------------------------------------------------------*/
FoamFile
{
    version     2.0;
    format      ascii;
    class       volVectorField;
    location    "0.35";
    object      wallShearStress;
}
// * * * * * * * * * * * * * * * * * * * * * * * * * * * * * * * * * * * * * //

dimensions      [0 2 -2 0 0 0 0];

internalField   uniform (0 0 0);

boundaryField
{
    velocityInlet
    {
        type            calculated;
        value           uniform (0 0 0);
    }
    pressureOutlet
    {
        type            calculated;
        value           uniform (0 0 0);
    }
    fixedWalls
    {
        type            calculated;
        value           nonuniform List<vector> 
100
(
(-0.0136715 -0.00256863 0)
(-0.00872244 -0.000831195 0)
(-0.0053345 -0.000412806 0)
(-0.00382706 -0.00017757 0)
(-0.00321454 -9.54697e-05 0)
(-0.00289492 -5.33137e-05 0)
(-0.00280559 -2.03792e-05 0)
(-0.00286895 1.29827e-06 0)
(-0.00300957 1.3215e-05 0)
(-0.00317597 2.03653e-05 0)
(-0.0033397 2.54734e-05 0)
(-0.00348357 2.72641e-05 0)
(-0.00358972 2.17712e-05 0)
(-0.00368494 1.64494e-05 0)
(-0.00392901 4.94322e-05 0)
(-0.00460335 0.000136828 0)
(-0.00579215 0.000225059 0)
(-0.0068959 0.000220144 0)
(-0.00656584 -8.38105e-05 0)
(-0.00368803 -0.000542459 0)
(0.000729057 -0.000690506 0)
(0.00370981 -0.000396461 0)
(0.00342457 0.000111702 0)
(0.000909022 0.000351299 0)
(-0.00196728 0.000347153 0)
(-0.00404612 0.000222093 0)
(-0.00511265 0.000107235 0)
(-0.00547016 4.11791e-05 0)
(-0.00544509 3.30139e-06 0)
(-0.00522691 -1.74808e-05 0)
(-0.00490032 -3.11482e-05 0)
(-0.00449996 -4.20621e-05 0)
(-0.00404756 -5.04243e-05 0)
(-0.00357174 -5.45807e-05 0)
(-0.0031116 -5.29803e-05 0)
(-0.00270881 -4.56106e-05 0)
(-0.00239546 -3.42821e-05 0)
(-0.00218515 -2.16947e-05 0)
(-0.00207183 -1.04067e-05 0)
(-0.0020355 -2.55869e-06 0)
(-0.00205034 2.42071e-06 0)
(-0.0020926 4.26783e-06 0)
(-0.00214606 4.1625e-06 0)
(-0.00220366 3.35652e-06 0)
(-0.00226747 2.95382e-06 0)
(-0.0023467 3.80471e-06 0)
(-0.0024555 6.4876e-06 0)
(-0.00261167 1.15271e-05 0)
(-0.00283548 1.93628e-05 0)
(-0.00314588 2.98212e-05 0)
(-0.00355121 4.1382e-05 0)
(-0.00404095 5.16218e-05 0)
(-0.00458734 5.89647e-05 0)
(-0.00515761 6.36042e-05 0)
(-0.00572157 6.61538e-05 0)
(-0.00624571 6.58537e-05 0)
(-0.0066771 6.05388e-05 0)
(-0.00692364 4.9027e-05 0)
(-0.00684213 1.67435e-05 0)
(-0.00627049 -3.41203e-05 0)
(-0.00509009 -9.9538e-05 0)
(-0.00327867 -0.00018014 0)
(-0.000991537 -0.000231921 0)
(0.00146226 -0.000256334 0)
(0.00376736 -0.000254629 0)
(0.00559073 -0.000204877 0)
(0.00661728 -0.000114944 0)
(0.00668542 -8.78729e-06 0)
(0.00589513 8.06383e-05 0)
(0.00454427 0.000133792 0)
(0.00298244 0.000149544 0)
(0.00149317 0.000137965 0)
(0.000260746 0.00011241 0)
(-0.000617516 8.0619e-05 0)
(-0.00110046 4.50005e-05 0)
(-0.00117324 8.63428e-06 0)
(-0.000851014 -2.88796e-05 0)
(-0.000178016 -6.29148e-05 0)
(0.00072852 -8.3649e-05 0)
(0.00164044 -8.76843e-05 0)
(0.0022999 -6.50701e-05 0)
(0.00248478 -2.16696e-05 0)
(0.00210044 2.86819e-05 0)
(0.00123847 6.88499e-05 0)
(0.000113309 8.54991e-05 0)
(-0.00104824 8.7115e-05 0)
(-0.00207851 7.53653e-05 0)
(-0.00289036 5.83902e-05 0)
(-0.00346869 4.16504e-05 0)
(-0.00383521 2.71483e-05 0)
(-0.00402605 1.55557e-05 0)
(-0.00404938 4.69793e-06 0)
(-0.00392228 -6.95345e-06 0)
(-0.00362157 -2.0334e-05 0)
(-0.00318631 -3.34049e-05 0)
(-0.00260091 -4.66878e-05 0)
(-0.0019652 -5.41122e-05 0)
(-0.0014686 -4.32207e-05 0)
(-0.00103674 -2.38369e-05 0)
(-0.00150724 1.36888e-05 0)
)
;
    }
    bottomWall
    {
        type            calculated;
        value           nonuniform List<vector> 
800
(
(-0.0353488 0.00214397 0)
(-0.0160266 0.000524834 0)
(-0.0106077 0.000100716 0)
(-0.0084559 3.52569e-05 0)
(-0.0074863 1.98557e-05 0)
(-0.00685277 1.61157e-05 0)
(-0.00634544 1.33486e-05 0)
(-0.00593451 1.08916e-05 0)
(-0.00559995 9.06984e-06 0)
(-0.00532132 7.75362e-06 0)
(-0.00508403 6.75727e-06 0)
(-0.00487863 5.97051e-06 0)
(-0.00469864 5.33325e-06 0)
(-0.00453933 4.80798e-06 0)
(-0.00439713 4.36892e-06 0)
(-0.00426924 3.99737e-06 0)
(-0.0041535 3.67947e-06 0)
(-0.00404815 3.4049e-06 0)
(-0.00395178 3.16582e-06 0)
(-0.00386323 2.956e-06 0)
(-0.00378154 2.77051e-06 0)
(-0.00370591 2.60579e-06 0)
(-0.00363565 2.45868e-06 0)
(-0.00357019 2.32648e-06 0)
(-0.00350902 2.20717e-06 0)
(-0.00345174 2.09909e-06 0)
(-0.00339796 2.0008e-06 0)
(-0.00334735 1.91108e-06 0)
(-0.00329965 1.82887e-06 0)
(-0.00325459 1.75346e-06 0)
(-0.00321196 1.68388e-06 0)
(-0.00317156 1.61959e-06 0)
(-0.00313322 1.56025e-06 0)
(-0.00309677 1.50505e-06 0)
(-0.00306208 1.45371e-06 0)
(-0.00302903 1.40599e-06 0)
(-0.00299748 1.36133e-06 0)
(-0.00296735 1.31965e-06 0)
(-0.00293853 1.28058e-06 0)
(-0.00291095 1.24384e-06 0)
(-0.00288452 1.20936e-06 0)
(-0.00285918 1.17683e-06 0)
(-0.00283484 1.14625e-06 0)
(-0.00281147 1.11736e-06 0)
(-0.00278899 1.09007e-06 0)
(-0.00276737 1.06406e-06 0)
(-0.00274654 1.03987e-06 0)
(-0.00272649 1.01606e-06 0)
(-0.00270713 9.94783e-07 0)
(-0.00268848 9.72093e-07 0)
(-0.00267287 9.53259e-07 0)
(-0.00265998 9.42548e-07 0)
(-0.00264725 9.29186e-07 0)
(-0.0026347 9.148e-07 0)
(-0.00262235 9.0107e-07 0)
(-0.00261018 8.88249e-07 0)
(-0.00259817 8.75807e-07 0)
(-0.00258634 8.63433e-07 0)
(-0.00257468 8.51482e-07 0)
(-0.00256318 8.39784e-07 0)
(-0.00255183 8.28331e-07 0)
(-0.00254064 8.17118e-07 0)
(-0.0025296 8.06143e-07 0)
(-0.00251871 7.95404e-07 0)
(-0.00250796 7.84898e-07 0)
(-0.00249736 7.7479e-07 0)
(-0.00248689 7.64743e-07 0)
(-0.00247656 7.54923e-07 0)
(-0.00246636 7.45327e-07 0)
(-0.00245629 7.35952e-07 0)
(-0.00244634 7.26799e-07 0)
(-0.00243652 7.17532e-07 0)
(-0.00242683 7.0865e-07 0)
(-0.00241725 7.00151e-07 0)
(-0.00240779 6.91702e-07 0)
(-0.00239844 6.83302e-07 0)
(-0.00238921 6.74948e-07 0)
(-0.0023801 6.66973e-07 0)
(-0.00237108 6.59211e-07 0)
(-0.00236217 6.51491e-07 0)
(-0.00235337 6.43981e-07 0)
(-0.00234467 6.36511e-07 0)
(-0.00233607 6.29247e-07 0)
(-0.00232756 6.22022e-07 0)
(-0.00231916 6.15002e-07 0)
(-0.00231085 6.08183e-07 0)
(-0.00230263 6.014e-07 0)
(-0.00229451 5.94653e-07 0)
(-0.00228647 5.88104e-07 0)
(-0.00227853 5.81755e-07 0)
(-0.00227067 5.75437e-07 0)
(-0.00226289 5.69317e-07 0)
(-0.0022552 5.63228e-07 0)
(-0.00224759 5.57167e-07 0)
(-0.00224006 5.51302e-07 0)
(-0.00223261 5.45466e-07 0)
(-0.00222524 5.39658e-07 0)
(-0.00221795 5.34209e-07 0)
(-0.00221073 5.28619e-07 0)
(-0.00220359 5.23223e-07 0)
(-0.00219652 5.18019e-07 0)
(-0.00218952 5.12672e-07 0)
(-0.00218259 5.07518e-07 0)
(-0.00217574 5.02386e-07 0)
(-0.00216895 4.97445e-07 0)
(-0.00216223 4.92526e-07 0)
(-0.00215558 4.8763e-07 0)
(-0.00214899 4.82922e-07 0)
(-0.00214246 4.78069e-07 0)
(-0.00213601 4.7357e-07 0)
(-0.0021296 4.69092e-07 0)
(-0.00212327 4.64466e-07 0)
(-0.00211699 4.60027e-07 0)
(-0.00211078 4.55773e-07 0)
(-0.00210462 4.51537e-07 0)
(-0.00209852 4.47152e-07 0)
(-0.00209248 4.43117e-07 0)
(-0.0020865 4.38933e-07 0)
(-0.00208057 4.34764e-07 0)
(-0.0020747 4.30944e-07 0)
(-0.00206887 4.26972e-07 0)
(-0.00206311 4.23015e-07 0)
(-0.0020574 4.19239e-07 0)
(-0.00205173 4.15476e-07 0)
(-0.00204612 4.1156e-07 0)
(-0.00204057 4.07825e-07 0)
(-0.00203506 4.04436e-07 0)
(-0.00202959 4.00728e-07 0)
(-0.00202418 3.97198e-07 0)
(-0.00201881 3.93681e-07 0)
(-0.0020135 3.90177e-07 0)
(-0.00200823 3.86851e-07 0)
(-0.00200301 3.83371e-07 0)
(-0.00199783 3.8007e-07 0)
(-0.0019927 3.76781e-07 0)
(-0.00198761 3.73502e-07 0)
(-0.00198256 3.70405e-07 0)
(-0.00197756 3.6715e-07 0)
(-0.0019726 3.6408e-07 0)
(-0.00196768 3.61013e-07 0)
(-0.00196281 3.57973e-07 0)
(-0.00195797 3.55088e-07 0)
(-0.00195318 3.52083e-07 0)
(-0.00194842 3.49039e-07 0)
(-0.00194371 3.46247e-07 0)
(-0.00193903 3.4336e-07 0)
(-0.00193439 3.40632e-07 0)
(-0.00192979 3.3788e-07 0)
(-0.00192523 3.35213e-07 0)
(-0.0019207 3.32264e-07 0)
(-0.0019169 3.29579e-07 0)
(-0.0019138 3.28133e-07 0)
(-0.00191069 3.26485e-07 0)
(-0.00190757 3.24743e-07 0)
(-0.00190445 3.22816e-07 0)
(-0.00190133 3.2093e-07 0)
(-0.0018982 3.1929e-07 0)
(-0.00189507 3.17428e-07 0)
(-0.00189193 3.15568e-07 0)
(-0.00188879 3.13723e-07 0)
(-0.00188565 3.11881e-07 0)
(-0.0018825 3.10274e-07 0)
(-0.00187935 3.08454e-07 0)
(-0.00187619 3.06647e-07 0)
(-0.00187303 3.05068e-07 0)
(-0.00186987 3.03276e-07 0)
(-0.0018667 3.01489e-07 0)
(-0.00186353 2.99715e-07 0)
(-0.00186035 2.97948e-07 0)
(-0.00185717 2.96192e-07 0)
(-0.00185399 2.94437e-07 0)
(-0.00185081 2.92901e-07 0)
(-0.00184762 2.91168e-07 0)
(-0.00184442 2.89237e-07 0)
(-0.00184123 2.87521e-07 0)
(-0.00183803 2.86015e-07 0)
(-0.00183483 2.84314e-07 0)
(-0.00183162 2.82621e-07 0)
(-0.00182841 2.80932e-07 0)
(-0.0018252 2.79056e-07 0)
(-0.00182199 2.77388e-07 0)
(-0.00181877 2.75921e-07 0)
(-0.00181555 2.74084e-07 0)
(-0.00181233 2.72439e-07 0)
(-0.0018091 2.70994e-07 0)
(-0.00180587 2.69179e-07 0)
(-0.00180264 2.67557e-07 0)
(-0.0017994 2.6595e-07 0)
(-0.00179616 2.64162e-07 0)
(-0.00179293 2.62575e-07 0)
(-0.00178968 2.60992e-07 0)
(-0.00178644 2.59421e-07 0)
(-0.00178319 2.57856e-07 0)
(-0.00177994 2.56296e-07 0)
(-0.00177669 2.5457e-07 0)
(-0.00177344 2.53031e-07 0)
(-0.00177017 2.51501e-07 0)
(-0.00176692 2.49801e-07 0)
(-0.00176366 2.48455e-07 0)
(-0.00176039 2.46787e-07 0)
(-0.00175712 2.45292e-07 0)
(-0.00175385 2.43809e-07 0)
(-0.00175058 2.42161e-07 0)
(-0.0017473 2.40694e-07 0)
(-0.00174403 2.39232e-07 0)
(-0.00174075 2.37784e-07 0)
(-0.00173747 2.36173e-07 0)
(-0.00173418 2.34753e-07 0)
(-0.0017309 2.33324e-07 0)
(-0.00172761 2.31761e-07 0)
(-0.00172432 2.30358e-07 0)
(-0.00172103 2.28969e-07 0)
(-0.00171773 2.27586e-07 0)
(-0.00171443 2.26205e-07 0)
(-0.00171113 2.24667e-07 0)
(-0.00170783 2.2334e-07 0)
(-0.00170452 2.21984e-07 0)
(-0.00170122 2.20655e-07 0)
(-0.0016979 2.19319e-07 0)
(-0.00169459 2.17865e-07 0)
(-0.00169128 2.16558e-07 0)
(-0.00168796 2.15267e-07 0)
(-0.00168464 2.13976e-07 0)
(-0.00168131 2.12846e-07 0)
(-0.00167798 2.11549e-07 0)
(-0.00167464 2.10201e-07 0)
(-0.00167131 2.08901e-07 0)
(-0.00166797 2.07748e-07 0)
(-0.00166463 2.06551e-07 0)
(-0.00166128 2.05514e-07 0)
(-0.00165794 2.04056e-07 0)
(-0.00165458 2.03291e-07 0)
(-0.00165123 2.01672e-07 0)
(-0.00164785 2.01502e-07 0)
(-0.0016445 1.99185e-07 0)
(-0.00164109 2.00044e-07 0)
(-0.00163776 1.96037e-07 0)
(-0.00163429 2.00018e-07 0)
(-0.00163101 1.91615e-07 0)
(-0.00162742 2.02026e-07 0)
(-0.00162429 1.84054e-07 0)
(-0.00162046 2.09347e-07 0)
(-0.00161762 1.69932e-07 0)
(-0.00161332 2.26783e-07 0)
(-0.00161106 1.42529e-07 0)
(-0.00160592 2.62784e-07 0)
(-0.0016047 9.06163e-08 0)
(-0.00159824 3.27526e-07 0)
(-0.00159849 8.41891e-09 0)
(-0.00159031 3.59898e-07 0)
(-0.0353487 -0.002144 0)
(-0.016026 -0.000524859 0)
(-0.0106065 -0.000100744 0)
(-0.00845398 -3.52868e-05 0)
(-0.00748342 -1.98907e-05 0)
(-0.00684881 -1.61561e-05 0)
(-0.00634014 -1.33955e-05 0)
(-0.00592767 -1.09443e-05 0)
(-0.00559144 -9.12791e-06 0)
(-0.00531099 -7.81681e-06 0)
(-0.00507176 -6.82533e-06 0)
(-0.00486432 -6.04325e-06 0)
(-0.00468217 -5.41091e-06 0)
(-0.00452059 -4.89096e-06 0)
(-0.00437598 -4.45773e-06 0)
(-0.00424556 -4.09256e-06 0)
(-0.00412714 -3.78139e-06 0)
(-0.00401897 -3.51396e-06 0)
(-0.00391962 -3.28253e-06 0)
(-0.00382794 -3.08088e-06 0)
(-0.00374295 -2.90432e-06 0)
(-0.00366383 -2.74916e-06 0)
(-0.00358989 -2.61223e-06 0)
(-0.00352054 -2.49134e-06 0)
(-0.00345527 -2.38455e-06 0)
(-0.00339361 -2.29013e-06 0)
(-0.0033352 -2.20657e-06 0)
(-0.00327968 -2.13334e-06 0)
(-0.00322674 -2.06899e-06 0)
(-0.0031761 -2.01309e-06 0)
(-0.00312753 -1.96474e-06 0)
(-0.00308077 -1.92381e-06 0)
(-0.00303565 -1.88872e-06 0)
(-0.00299195 -1.86106e-06 0)
(-0.00294956 -1.83698e-06 0)
(-0.00290823 -1.82116e-06 0)
(-0.00286794 -1.80509e-06 0)
(-0.00282846 -1.79912e-06 0)
(-0.00278971 -1.78755e-06 0)
(-0.0027518 -1.78549e-06 0)
(-0.00271407 -1.77526e-06 0)
(-0.00267804 -1.75846e-06 0)
(-0.00264045 -1.75572e-06 0)
(-0.00260814 -1.66516e-06 0)
(-0.00256864 -1.71203e-06 0)
(-0.00254563 -1.36906e-06 0)
(-0.00249915 -1.67973e-06 0)
(-0.00249876 -2.75742e-07 0)
(-0.00244028 -5.75228e-06 0)
(-0.00231904 0.000171848 0)
(6.15783e-05 -3.47385e-05 0)
(4.36421e-05 -0.000168129 0)
(-3.06496e-05 -0.000220996 0)
(-5.73736e-05 -0.000173697 0)
(-1.26166e-05 -0.000106522 0)
(1.72976e-05 -6.81632e-05 0)
(1.01768e-05 -5.95623e-05 0)
(1.05294e-05 -7.37404e-05 0)
(2.09327e-05 -0.00010874 0)
(3.4474e-05 -0.000158386 0)
(4.85537e-05 -0.000222176 0)
(6.29019e-05 -0.000300407 0)
(7.72838e-05 -0.000393418 0)
(9.12935e-05 -0.000500905 0)
(0.000104555 -0.000622063 0)
(0.000116421 -0.000755724 0)
(0.000124775 -0.000899838 0)
(0.000125338 -0.00105083 0)
(0.000111464 -0.00119951 0)
(7.69531e-05 -0.00132777 0)
(1.71341e-05 -0.00141288 0)
(-4.15431e-05 -0.00143421 0)
(-4.54259e-05 -0.00144261 0)
(-1.73293e-05 -0.00149714 0)
(-5.90384e-05 -0.00155608 0)
(-0.000248707 -0.00140192 0)
(-0.000501747 -0.000843409 0)
(-0.000641457 -0.000125345 0)
(-0.000681588 0.000521568 0)
(-0.000647284 0.00110463 0)
(-0.000556391 0.00159788 0)
(-0.00043602 0.00197069 0)
(-0.000310006 0.0022185 0)
(-0.000192497 0.00236166 0)
(-8.75959e-05 0.0024202 0)
(-2.59192e-07 0.00239974 0)
(7.00522e-05 0.00232184 0)
(0.000127177 0.00219508 0)
(0.000170928 0.00203139 0)
(0.00020392 0.00183979 0)
(0.000227237 0.00162843 0)
(0.000242434 0.00140449 0)
(0.00025109 0.00117367 0)
(0.000254317 0.000940837 0)
(0.000253019 0.000709896 0)
(0.000248179 0.000483821 0)
(0.000240769 0.000264793 0)
(0.00023137 5.47769e-05 0)
(0.000220131 -0.00014449 0)
(0.000211864 -0.000338183 0)
(0.000200006 -0.000519336 0)
(0.000186118 -0.000685673 0)
(0.000171481 -0.000838808 0)
(0.000156511 -0.000980162 0)
(0.000141263 -0.00111039 0)
(0.000125819 -0.00122984 0)
(0.000110305 -0.00133989 0)
(9.43559e-05 -0.00143883 0)
(7.77146e-05 -0.00152666 0)
(6.02005e-05 -0.00160323 0)
(4.16517e-05 -0.00166846 0)
(2.14971e-05 -0.00172214 0)
(-8.04485e-07 -0.00176344 0)
(-2.51756e-05 -0.00179179 0)
(-5.24167e-05 -0.00180677 0)
(-8.37844e-05 -0.00180628 0)
(-0.00011881 -0.00178895 0)
(-0.000156096 -0.0017534 0)
(-0.000193863 -0.0016982 0)
(-0.000229946 -0.00162276 0)
(-0.000261833 -0.0015272 0)
(-0.000286363 -0.00141245 0)
(-0.000299855 -0.00128107 0)
(-0.000299259 -0.00113741 0)
(-0.000282996 -0.000987552 0)
(-0.000252213 -0.000838472 0)
(-0.000210553 -0.000696231 0)
(-0.000163455 -0.000566568 0)
(-0.000118318 -0.000450911 0)
(-7.86339e-05 -0.000354301 0)
(-6.33804e-05 -0.000286312 0)
(-0.000100863 -0.000217042 0)
(-0.000150468 -0.000103884 0)
(-0.000127298 3.6781e-05 0)
(-3.0478e-05 0.000141014 0)
(8.00275e-05 0.000187567 0)
(0.000169936 0.000194694 0)
(0.000224245 0.000177453 0)
(0.000238927 0.000147704 0)
(0.000214677 0.00011491 0)
(0.000156953 8.96948e-05 0)
(7.5922e-05 8.4209e-05 0)
(-5.47225e-06 0.000108135 0)
(-5.92776e-05 0.000151706 0)
(-7.1256e-05 0.000183527 0)
(-6.32631e-05 0.000186164 0)
(-5.95744e-05 0.000169627 0)
(-6.4872e-05 0.000156135 0)
(-6.9144e-05 0.00015681 0)
(-6.5347e-05 0.000170634 0)
(-5.31115e-05 0.000190252 0)
(-3.6425e-05 0.000210736 0)
(-2.28579e-05 0.0002286 0)
(-1.87401e-05 0.000245944 0)
(-2.4584e-05 0.000267202 0)
(-3.67671e-05 0.000293639 0)
(-5.16476e-05 0.000324045 0)
(-6.6779e-05 0.000356798 0)
(-8.05628e-05 0.000390694 0)
(-9.19582e-05 0.000424921 0)
(-0.000100288 0.000458849 0)
(-0.000105287 0.000491748 0)
(-0.000107263 0.000522836 0)
(-0.00010698 0.00055153 0)
(-0.000105413 0.000577586 0)
(-0.000103538 0.000601196 0)
(-0.000102095 0.000622756 0)
(-0.000101524 0.000642742 0)
(-0.000101988 0.00066176 0)
(-0.000103389 0.000680357 0)
(-0.000105433 0.000698997 0)
(-0.000107638 0.000718092 0)
(-0.000109279 0.000737985 0)
(-0.000109389 0.000758837 0)
(-0.000106872 0.00078047 0)
(-0.00010075 0.000802275 0)
(-9.04474e-05 0.000823241 0)
(-7.60029e-05 0.000842149 0)
(-5.81004e-05 0.000857887 0)
(-3.78657e-05 0.000869803 0)
(-1.65746e-05 0.00087775 0)
(4.65116e-06 0.000881384 0)
(2.49094e-05 0.000880909 0)
(4.37319e-05 0.000876758 0)
(6.11887e-05 0.000869252 0)
(7.75473e-05 0.000858401 0)
(9.29756e-05 0.000844058 0)
(0.000107395 0.000826026 0)
(0.000120399 0.000804889 0)
(0.000131102 0.000780354 0)
(0.000138549 0.000753191 0)
(0.000141821 0.000724715 0)
(0.000140447 0.000697309 0)
(0.000134246 0.000672917 0)
(0.000123334 0.000652682 0)
(0.000108168 0.000637368 0)
(8.92647e-05 0.000626943 0)
(6.68791e-05 0.000620957 0)
(4.07837e-05 0.000619481 0)
(1.11798e-05 0.000623598 0)
(-2.09302e-05 0.000634166 0)
(-5.38696e-05 0.000651736 0)
(-8.53718e-05 0.000676307 0)
(-0.000112982 0.00070693 0)
(-0.000134606 0.000741807 0)
(-0.000148916 0.000778662 0)
(-0.00015549 0.000815179 0)
(-0.000154656 0.000849347 0)
(-0.000147351 0.000880183 0)
(-0.000134661 0.000906659 0)
(-0.000117577 0.00092784 0)
(-9.70278e-05 0.000943432 0)
(-7.39074e-05 0.000953322 0)
(-4.8867e-05 0.000957506 0)
(-2.27525e-05 0.000955862 0)
(3.79057e-06 0.000948834 0)
(3.06004e-05 0.000936785 0)
(5.74143e-05 0.000919951 0)
(8.40358e-05 0.000898528 0)
(0.000110318 0.000872694 0)
(0.000136129 0.000842633 0)
(0.000161347 0.000808518 0)
(0.000185836 0.00077051 0)
(0.000209439 0.000728748 0)
(0.000231941 0.000683384 0)
(0.000253106 0.000634619 0)
(0.000272702 0.000582644 0)
(0.000290518 0.000527769 0)
(0.000307096 0.000471937 0)
(0.000321123 0.000413677 0)
(0.000332253 0.000353227 0)
(0.000339892 0.000290802 0)
(0.000343441 0.000226871 0)
(0.000342312 0.000162139 0)
(0.000335988 9.75537e-05 0)
(0.000324122 3.42903e-05 0)
(0.00030651 -2.63167e-05 0)
(0.000283307 -8.28469e-05 0)
(0.000255062 -0.000134 0)
(0.000222522 -0.000178759 0)
(0.000186457 -0.000216366 0)
(0.000148734 -0.000248001 0)
(0.000109148 -0.000273922 0)
(6.7148e-05 -0.00029559 0)
(2.1125e-05 -0.000318072 0)
(-3.3676e-05 -0.000351128 0)
(-0.000108324 -0.000411975 0)
(-0.000226165 -0.000526774 0)
(-0.000416053 -0.000722261 0)
(-0.000682965 -0.00100278 0)
(-4.23343e-06 -7.1793e-05 0)
(0.000109134 -8.79954e-05 0)
(0.000176937 -3.12476e-05 0)
(0.000132478 5.17982e-05 0)
(3.90447e-05 6.9462e-05 0)
(-3.07831e-05 3.38985e-05 0)
(-4.37209e-05 -9.75154e-06 0)
(-6.32316e-06 -3.01124e-05 0)
(4.88214e-05 -7.80865e-06 0)
(7.78265e-05 3.72611e-05 0)
(6.58294e-05 7.17493e-05 0)
(3.41039e-05 7.25696e-05 0)
(2.43159e-05 2.99275e-05 0)
(7.07552e-05 -6.70525e-05 0)
(0.000201034 -0.000197658 0)
(0.000390856 -0.000231588 0)
(0.000487042 -8.93745e-05 0)
(0.000403651 8.87179e-05 0)
(0.000233474 0.000173052 0)
(5.45375e-05 0.000186379 0)
(-0.000103829 0.000165617 0)
(-0.000227681 0.00012826 0)
(-0.000318425 9.05551e-05 0)
(-0.000381455 5.40194e-05 0)
(-0.000418521 1.65775e-05 0)
(-0.000427695 -2.4682e-05 0)
(-0.000408046 -6.96853e-05 0)
(-0.000352853 -0.000117476 0)
(-0.00025375 -0.000162214 0)
(-0.000113595 -0.000195336 0)
(5.29138e-05 -0.000212547 0)
(0.000233863 -0.000207995 0)
(0.000410436 -0.000171989 0)
(0.000552683 -0.000106102 0)
(0.00063438 -2.57237e-05 0)
(0.000648401 5.01597e-05 0)
(0.000602168 0.000107334 0)
(0.000517252 0.000138638 0)
(0.000447923 0.000154106 0)
(0.000410568 0.000165107 0)
(0.000403251 0.000159716 0)
(0.000423438 0.000104825 0)
(0.000487522 -1.68025e-05 0)
(0.000623721 -0.000174002 0)
(0.000834557 -0.000294332 0)
(0.00106665 -0.000321852 0)
(0.00125589 -0.000280699 0)
(0.00139294 -0.000229544 0)
(0.00149475 -0.000179677 0)
(0.00156161 -0.00012563 0)
(0.00159525 -8.23557e-05 0)
(0.00160993 -5.54603e-05 0)
(0.00161313 -3.55067e-05 0)
(0.00160507 -1.92619e-05 0)
(0.00158936 -7.03947e-06 0)
(0.00156728 2.37608e-06 0)
(0.00153985 1.08165e-05 0)
(0.00150627 2.02585e-05 0)
(0.00146502 3.12876e-05 0)
(0.0014147 4.42309e-05 0)
(0.00135363 5.95445e-05 0)
(0.00127981 7.73517e-05 0)
(0.00119132 9.75142e-05 0)
(0.00108632 0.00011987 0)
(0.000963045 0.000144269 0)
(0.000819829 0.000170492 0)
(0.000655247 0.00019815 0)
(0.000468248 0.000226432 0)
(0.000258704 0.000254051 0)
(2.76125e-05 0.000279223 0)
(-0.000224383 0.000302044 0)
(-0.000494013 0.0003209 0)
(-0.000775951 0.000333655 0)
(-0.00106486 0.00033961 0)
(-0.00135605 0.000338923 0)
(-0.00164508 0.000330856 0)
(-0.00192568 0.000315042 0)
(-0.00219228 0.000289959 0)
(-0.00243699 0.000253266 0)
(-0.00265178 0.000202239 0)
(-0.00282503 0.000132513 0)
(-0.00294215 4.32676e-05 0)
(-0.00299383 -7.04964e-05 0)
(-0.00295382 -0.000208284 0)
(-0.00280588 -0.000366094 0)
(-0.00253653 -0.000531429 0)
(-0.00213507 -0.000690419 0)
(-0.00157962 -0.000788131 0)
(-0.000940471 -0.000702988 0)
(-0.000415422 -0.000445741 0)
(-8.03305e-05 -0.000186155 0)
(8.59187e-05 -1.42173e-06 0)
(0.000147283 6.5783e-05 0)
(0.000172782 5.7324e-05 0)
(0.000172364 4.75974e-05 0)
(0.000145919 4.9706e-05 0)
(0.000106887 4.97934e-05 0)
(7.0128e-05 4.81603e-05 0)
(3.49803e-05 4.30567e-05 0)
(-2.20666e-06 3.31349e-05 0)
(2.80238e-05 1.76245e-05 0)
(1.66695e-05 5.85519e-05 0)
(-6.13074e-06 6.49616e-05 0)
(-3.73468e-05 2.64001e-05 0)
(-6.19966e-05 -6.17686e-05 0)
(-7.20737e-05 -0.000175001 0)
(-6.50584e-05 -0.000289819 0)
(-4.42235e-05 -0.000384444 0)
(-1.62094e-05 -0.000444109 0)
(1.27304e-05 -0.000464375 0)
(3.80711e-05 -0.000447194 0)
(5.50367e-05 -0.000399742 0)
(6.05162e-05 -0.000330622 0)
(4.96359e-05 -0.000251783 0)
(2.32844e-05 -0.000181479 0)
(2.46888e-07 -0.000132521 0)
(1.9327e-06 -9.98987e-05 0)
(2.78114e-05 -6.68296e-05 0)
(5.65987e-05 -1.96047e-05 0)
(7.12485e-05 4.20031e-05 0)
(6.63326e-05 0.000100919 0)
(4.55533e-05 0.000133325 0)
(2.29383e-05 0.000138413 0)
(5.3333e-06 0.000127074 0)
(-6.79092e-06 0.000101444 0)
(-9.75412e-06 6.82966e-05 0)
(-1.63515e-07 3.81869e-05 0)
(2.09831e-05 2.49768e-05 0)
(4.73498e-05 3.84186e-05 0)
(6.32071e-05 8.22508e-05 0)
(5.35068e-05 0.000148706 0)
(1.07105e-05 0.000210886 0)
(-3.87906e-05 0.000205556 0)
(-7.17367e-05 0.000170977 0)
(-9.46369e-05 0.000117788 0)
(-0.000111756 4.27735e-05 0)
(-0.000134586 -6.45243e-05 0)
(-0.000124444 -0.000195317 0)
(-9.60748e-05 -0.000272127 0)
(-8.02676e-05 -0.000307799 0)
(-3.6981e-05 -0.000331446 0)
(4.01632e-05 -0.000327738 0)
(0.000116456 -0.00031551 0)
(0.000181863 -0.000307631 0)
(0.00020456 -0.000275735 0)
(9.85154e-05 -0.000223619 0)
(-0.00012681 -0.000218696 0)
(-0.000348511 -0.000287036 0)
(-0.000468744 -0.000391444 0)
(-0.000466486 -0.000492497 0)
(-0.000346406 -0.00054368 0)
(-0.000154727 -0.000527218 0)
(7.02437e-05 -0.000413284 0)
(0.000257258 -0.000180025 0)
(0.000319306 9.53789e-05 0)
(0.000319061 0.000320961 0)
(0.00031815 0.000521288 0)
(0.000308928 0.000712822 0)
(0.000293969 0.000889191 0)
(0.000276244 0.00105204 0)
(0.000257414 0.00120086 0)
(0.000238764 0.00133698 0)
(0.000220738 0.00146138 0)
(0.000203675 0.00157443 0)
(0.00018762 0.00167715 0)
(0.000172677 0.00177032 0)
(0.000158776 0.00185481 0)
(0.000145826 0.00193125 0)
(0.000133686 0.00200021 0)
(0.00012219 0.00206212 0)
(0.000111142 0.00211728 0)
(0.000100314 0.00216585 0)
(8.94344e-05 0.0022078 0)
(7.81794e-05 0.00224296 0)
(6.61409e-05 0.00227094 0)
(5.28336e-05 0.00229106 0)
(3.77723e-05 0.00230243 0)
(2.04055e-05 0.00230386 0)
(6.43225e-07 0.00229353 0)
(-2.10715e-05 0.0022699 0)
(-4.40608e-05 0.00223171 0)
(-6.70033e-05 0.00217803 0)
(-8.71083e-05 0.00210912 0)
(-9.95902e-05 0.00202797 0)
(-9.82113e-05 0.00194214 0)
(-7.71347e-05 0.00186402 0)
(-3.326e-05 0.00180817 0)
(3.34899e-05 0.00178605 0)
(0.000123094 0.00180655 0)
(0.000219954 0.00187707 0)
(0.000291794 0.00199035 0)
(0.000314156 0.00212456 0)
(0.000282513 0.0023109 0)
(0.000152951 0.00261273 0)
(-9.86285e-05 0.00286877 0)
(-0.000103012 0.00280654 0)
(0.000692641 0.00267641 0)
(0.00205269 0.00332791 0)
(0.00262533 0.00496046 0)
(0.00171083 0.00619886 0)
(0.000727019 0.00618151 0)
(0.000606222 0.00600966 0)
(0.000452977 0.00627422 0)
(1.19526e-05 0.00629371 0)
(-0.000157194 0.00604341 0)
(-0.000193849 0.00594115 0)
(-0.000344992 0.00583045 0)
(-0.000427475 0.00559963 0)
(-0.000427505 0.00540889 0)
(-0.00045918 0.00524682 0)
(-0.000480498 0.00504828 0)
(-0.000465063 0.00486162 0)
(-0.000455408 0.00470107 0)
(-0.000449989 0.00453768 0)
(-0.000433179 0.0043796 0)
(-0.000416854 0.00423765 0)
(-0.000405942 0.00410162 0)
(-0.000394014 0.00396919 0)
(-0.000382436 0.00384489 0)
(-0.000374246 0.00372624 0)
(-0.000367477 0.00361046 0)
(-0.000361132 0.00349872 0)
(-0.000356128 0.00339104 0)
(-0.000352115 0.00328625 0)
(-0.000348306 0.00318448 0)
(-0.000344767 0.00308625 0)
(-0.000341624 0.00299148 0)
(-0.000338739 0.00290025 0)
(-0.000336194 0.0028129 0)
(-0.000334252 0.00272964 0)
(-0.000333128 0.00265055 0)
(-0.000333035 0.00257579 0)
(-0.000334248 0.00250547 0)
(-0.000336989 0.00243962 0)
(-0.000341602 0.00237963 0)
(-0.000348728 0.00233271 0)
(-0.000355942 0.00229033 0)
(-0.000361966 0.00225282 0)
(-0.00036571 0.00222 0)
(-0.000365773 0.00219088 0)
(-0.000359835 0.00216433 0)
(-0.000345113 0.00213915 0)
(-0.000319366 0.00211352 0)
(-0.000280607 0.00208503 0)
(-0.000227495 0.00205623 0)
(-0.000160141 0.002031 0)
(-7.76486e-05 0.00201395 0)
(2.0234e-05 0.00201156 0)
(0.000133883 0.00202877 0)
(0.000264765 0.00206663 0)
(0.00041683 0.00212174 0)
(0.000598295 0.00218892 0)
(0.000818627 0.00227184 0)
(0.0010736 0.00239612 0)
(0.00133088 0.0025982 0)
(0.00154426 0.00288445 0)
(0.00168924 0.00321963 0)
(0.00176974 0.00357348 0)
(0.00178852 0.00394738 0)
(0.00173851 0.00431611 0)
(0.00164287 0.00461872 0)
(0.00155064 0.00485032 0)
(0.00147058 0.00508076 0)
(0.00136329 0.00533191 0)
(0.00121445 0.00554488 0)
(0.0010542 0.00568419 0)
(0.000904146 0.00577893 0)
(0.00075641 0.00585655 0)
(0.000602043 0.00590822 0)
(0.000444989 0.00593126 0)
(0.000291475 0.00596943 0)
(0.00014039 0.00598515 0)
(-5.19919e-06 0.00598016 0)
(-0.000145393 0.00595712 0)
(-0.000285216 0.00591917 0)
(-0.000425773 0.00586487 0)
(-0.000565805 0.00579453 0)
(-0.000706497 0.00570926 0)
(-0.000848516 0.00560887 0)
(-0.000992087 0.00549353 0)
(-0.00113783 0.00536373 0)
(-0.00128639 0.00521966 0)
(-0.00143837 0.00506151 0)
(-0.00159449 0.00488958 0)
(-0.00175554 0.004704 0)
(-0.00192228 0.00450491 0)
(-0.00209564 0.00429246 0)
(-0.0022767 0.0040667 0)
(-0.0024667 0.00382767 0)
(-0.00266667 0.00357533 0)
(-0.00287734 0.00330979 0)
(-0.00310135 0.00303123 0)
(-0.00335317 0.00274591 0)
(-0.00376741 0.00254067 0)
(-0.00423292 0.00230614 0)
(-0.00474563 0.00203826 0)
(-0.00528597 0.00173458 0)
(-0.00583183 0.001423 0)
(-0.0063326 0.00121323 0)
(-0.00659407 0.00235053 0)
)
;
    }
    frontAndBack
    {
        type            empty;
    }
}


// ************************************************************************* //
