/*--------------------------------*- C++ -*----------------------------------*\
  =========                 |
  \\      /  F ield         | OpenFOAM: The Open Source CFD Toolbox
   \\    /   O peration     | Website:  https://openfoam.org
    \\  /    A nd           | Version:  7
     \\/     M anipulation  |
\*---------------------------------------------------------------------------*/
FoamFile
{
    version     2.0;
    format      ascii;
    class       volScalarField;
    location    "0.35";
    object      yPlus;
}
// * * * * * * * * * * * * * * * * * * * * * * * * * * * * * * * * * * * * * //

dimensions      [0 0 0 0 0 0 0];

internalField   uniform 0;

boundaryField
{
    velocityInlet
    {
        type            calculated;
        value           uniform 0;
    }
    pressureOutlet
    {
        type            calculated;
        value           uniform 0;
    }
    fixedWalls
    {
        type            calculated;
        value           nonuniform List<scalar> 
100
(
1.85787
1.46947
1.14613
0.969944
0.888441
0.843017
0.829843
0.839087
0.859358
0.882778
0.905231
0.924472
0.938378
0.950827
0.982128
1.06332
1.19264
1.3004
1.26739
0.949906
0.443617
0.952766
0.914245
0.473252
0.695276
0.995891
1.11963
1.15827
1.15568
1.13233
1.0964
1.05066
0.996458
0.936079
0.873737
0.81526
0.766679
0.732257
0.713004
0.706706
0.709257
0.716512
0.725595
0.735267
0.745841
0.758767
0.776168
0.800484
0.834093
0.878572
0.933455
0.995732
1.0609
1.12491
1.18481
1.23788
1.27991
1.30329
1.29552
1.24015
1.11722
0.896597
0.49373
0.599957
0.961601
1.17106
1.27389
1.28039
1.20237
1.05576
0.855441
0.605543
0.255374
0.389329
0.519448
0.53629
0.45665
0.209167
0.423166
0.634504
0.751097
0.780596
0.717635
0.551066
0.169021
0.50723
0.71408
0.842046
0.922453
0.969974
0.993821
0.996694
0.980918
0.942557
0.884095
0.798752
0.694374
0.600308
0.504525
0.608219
)
;
    }
    bottomWall
    {
        type            calculated;
        value           nonuniform List<scalar> 
800
(
2.94479
1.98391
1.61344
1.44034
1.35523
1.29662
1.2477
1.20662
1.17212
1.14259
1.11682
1.09403
1.07366
1.0553
1.03864
1.02342
1.00945
0.996569
0.984636
0.973542
0.963194
0.953513
0.944431
0.93589
0.927839
0.920234
0.913036
0.906212
0.899732
0.893568
0.887696
0.882096
0.876748
0.871633
0.866738
0.862046
0.857546
0.853225
0.849072
0.845078
0.841232
0.837528
0.833957
0.830512
0.827185
0.823973
0.820866
0.817864
0.814955
0.812142
0.809781
0.807826
0.805891
0.803979
0.802092
0.800229
0.798387
0.796567
0.794769
0.792991
0.791234
0.789497
0.78778
0.786082
0.784404
0.782744
0.781101
0.779477
0.77787
0.776281
0.774707
0.773151
0.771612
0.770088
0.768579
0.767086
0.765608
0.764146
0.762697
0.761264
0.759844
0.758438
0.757045
0.755666
0.754301
0.752948
0.751608
0.750281
0.748966
0.747663
0.746373
0.745094
0.743826
0.74257
0.741326
0.740092
0.738869
0.737658
0.736456
0.735266
0.734085
0.732915
0.731755
0.730604
0.729464
0.728333
0.727211
0.726099
0.724996
0.723903
0.722817
0.721742
0.720674
0.719616
0.718565
0.717523
0.71649
0.715464
0.714448
0.713438
0.712437
0.711443
0.710457
0.709479
0.708508
0.707546
0.70659
0.70564
0.7047
0.703764
0.702838
0.701917
0.701004
0.700097
0.699197
0.698304
0.697417
0.696536
0.695663
0.694795
0.693934
0.693078
0.692229
0.691386
0.690549
0.689717
0.688893
0.688073
0.687258
0.68645
0.685771
0.685215
0.684659
0.6841
0.68354
0.68298
0.682417
0.681854
0.68129
0.680724
0.680158
0.67959
0.67902
0.67845
0.677878
0.677305
0.676731
0.676156
0.67558
0.675003
0.674425
0.673845
0.673263
0.672682
0.672099
0.671515
0.67093
0.670343
0.669755
0.669167
0.668578
0.667987
0.667395
0.666803
0.666209
0.665614
0.665018
0.664421
0.663823
0.663224
0.662624
0.662024
0.661421
0.660818
0.660214
0.65961
0.659003
0.658396
0.657788
0.657178
0.656569
0.655957
0.655345
0.654732
0.654118
0.653502
0.652886
0.652269
0.65165
0.651031
0.650411
0.64979
0.649168
0.648544
0.647919
0.647294
0.646667
0.646039
0.64541
0.64478
0.644149
0.643516
0.642883
0.642248
0.641611
0.640974
0.640336
0.639696
0.639055
0.638412
0.637768
0.637122
0.636476
0.635825
0.635178
0.63452
0.633876
0.633204
0.632569
0.631873
0.631264
0.630519
0.629966
0.629129
0.628688
0.627684
0.627445
0.626182
0.626231
0.624625
2.94479
1.98387
1.61335
1.44018
1.35497
1.29624
1.24718
1.20593
1.17123
1.14148
1.11547
1.09242
1.07177
1.05312
1.03614
1.02058
1.00624
0.992971
0.980622
0.969085
0.958266
0.948084
0.938469
0.92936
0.920704
0.912453
0.904566
0.897006
0.889736
0.882727
0.87595
0.869378
0.862989
0.856755
0.850663
0.844683
0.83881
0.833018
0.827292
0.821652
0.815999
0.810565
0.804856
0.799915
0.793837
0.790272
0.783028
0.782959
0.774162
0.752672
0.710814
1.26076
1.45955
1.3494
1.08233
0.846935
0.752588
0.858115
1.0553
1.2732
1.50453
1.74631
1.99555
2.24905
2.50384
2.75698
3.00453
3.24134
3.45581
3.62698
3.73801
3.78115
3.81408
3.88183
3.91566
3.657
2.82194
1.79899
2.53363
3.38382
3.99772
4.4169
4.68013
4.82853
4.89063
4.87403
4.79825
4.66922
4.4955
4.28183
4.03214
3.74866
3.43151
3.07868
2.68399
2.23365
1.7001
1.09445
1.31156
1.86345
2.28604
2.61894
2.89327
3.12589
3.32623
3.50017
3.65319
3.78541
3.8989
3.99509
4.07499
4.13916
4.18755
4.22005
4.23604
4.23349
4.21199
4.17018
4.10577
4.01705
3.90283
3.76219
3.59504
3.40238
3.18677
2.95227
2.70363
2.44706
2.18582
1.92418
1.66428
1.37092
1.06362
0.729447
0.851894
1.20308
1.41659
1.51962
1.53293
1.4697
1.35773
1.26106
1.28144
1.37741
1.42091
1.39551
1.33482
1.28056
1.25463
1.27023
1.32049
1.39446
1.47769
1.56395
1.65432
1.74746
1.8402
1.92968
2.01434
2.09354
2.16727
2.23578
2.29905
2.35691
2.40946
2.45738
2.50141
2.54227
2.58087
2.61794
2.65398
2.6893
2.72397
2.7578
2.79036
2.82098
2.84892
2.87347
2.89407
2.91048
2.92281
2.93026
2.93242
2.92908
2.91996
2.90468
2.88303
2.855
2.82193
2.78344
2.74077
2.69595
2.65289
2.61486
2.58378
2.56148
2.54911
2.54705
2.55498
2.57337
2.60188
2.63931
2.6838
2.73279
2.78346
2.83323
2.87994
2.92194
2.95901
2.99022
3.01424
3.03078
3.03968
3.0409
3.03438
3.02053
2.99935
2.97085
2.93508
2.89207
2.8418
2.78426
2.71939
2.64711
2.56733
2.47993
2.3848
2.28233
2.17635
2.06259
1.94083
1.81132
1.67522
1.53569
1.39981
1.28173
1.20338
1.18274
1.21397
1.2725
1.33623
1.39748
1.44885
1.4852
1.50567
1.51145
1.51109
1.5384
1.6838
2.05421
0.629113
1.3647
1.60331
1.38429
0.91595
0.614813
0.770638
0.495566
0.762888
1.07752
1.12172
1.0324
0.97816
1.38282
2.07
2.57159
2.66835
2.40969
1.93583
1.31233
1.42626
1.91288
2.24563
2.45603
2.57096
2.59771
2.53868
2.3694
2.0429
1.53943
1.39676
2.00761
2.55267
2.93759
3.15089
3.20055
3.10121
2.88799
2.69863
2.61187
2.64478
2.76154
2.98085
3.34495
3.79101
4.20052
4.51573
4.74663
4.91186
5.01927
5.08001
5.10991
5.11756
5.10654
5.0834
5.04915
5.00479
4.94916
4.87988
4.79404
4.6879
4.55676
4.39499
4.19563
3.94963
3.64452
3.26192
2.77215
2.12803
1.47856
2.10538
2.91715
3.60007
4.19153
4.71516
5.18355
5.60084
5.96933
6.28702
6.55098
6.75376
6.88394
6.93613
6.88312
6.70646
6.38349
5.88942
5.16937
4.17897
2.99405
1.64751
1.04696
1.63486
1.77105
1.71932
1.5582
1.34066
1.10911
0.844478
0.448852
0.507143
0.750663
0.775567
0.512021
0.837399
1.33389
1.69759
1.94881
2.09355
2.14232
2.10613
1.9977
1.82694
1.60815
1.374
1.16397
0.974881
0.767933
0.57313
0.770256
1.02795
1.14694
1.16001
1.11086
0.99673
0.831313
0.652285
0.591984
0.723081
0.939493
1.18479
1.39357
1.3956
1.30193
1.12087
0.831798
0.968959
1.42129
1.65932
1.74557
1.75568
1.70861
1.70739
1.78171
1.82903
1.76921
1.83644
2.1098
2.32461
2.40863
2.33575
2.1397
1.78666
1.27184
1.39945
1.91152
2.34175
2.6986
2.99543
3.24864
3.46589
3.65445
3.81935
3.96372
4.09076
4.20288
4.30214
4.39007
4.46794
4.53671
4.59707
4.6495
4.6942
4.73116
4.7601
4.7804
4.79126
4.79162
4.77983
4.75436
4.71379
4.65713
4.58473
4.49999
4.41117
4.33208
4.2805
4.27306
4.31681
4.40623
4.51313
4.59482
4.67716
4.86929
5.20857
5.58433
5.96599
6.55089
7.15077
7.46816
7.61883
7.71932
7.79011
7.78594
7.73117
7.66527
7.57592
7.46488
7.34969
7.23023
7.10561
6.98261
6.86283
6.74499
6.63072
6.52081
6.41425
6.31075
6.21033
6.11239
6.0164
5.92223
5.82967
5.73857
5.64893
5.56089
5.47457
5.39015
5.30785
5.22789
5.1505
5.0759
5.00435
4.93609
4.87319
4.82414
4.78087
4.74371
4.71274
4.68771
4.66829
4.65424
4.64487
4.63703
4.63045
4.62761
4.63137
4.64532
4.6757
4.7309
4.81996
4.94872
5.11449
5.30613
5.51119
5.72229
5.93694
6.15202
6.36415
6.56801
6.75927
6.93286
7.08537
7.215
7.32306
7.41063
7.47648
7.52
7.54249
7.5524
7.57627
7.58545
7.58143
7.56674
7.54188
7.50612
7.45983
7.40309
7.33583
7.25807
7.1698
7.07099
6.96157
6.84154
6.71091
6.56982
6.41865
6.25806
6.08922
5.91413
5.73633
5.56167
5.40764
5.38191
5.39608
5.46126
5.58851
5.7889
6.05084
6.35288
)
;
    }
    frontAndBack
    {
        type            empty;
    }
}


// ************************************************************************* //
