/*--------------------------------*- C++ -*----------------------------------*\
  =========                 |
  \\      /  F ield         | OpenFOAM: The Open Source CFD Toolbox
   \\    /   O peration     | Website:  https://openfoam.org
    \\  /    A nd           | Version:  7
     \\/     M anipulation  |
\*---------------------------------------------------------------------------*/
FoamFile
{
    version     2.0;
    format      ascii;
    class       volVectorField;
    location    "0.36";
    object      ddt0(U);
}
// * * * * * * * * * * * * * * * * * * * * * * * * * * * * * * * * * * * * * //

dimensions      [0 1 -2 0 0 0 0];

internalField   nonuniform List<vector> 
70000
(
(-0.000592084 3.77995e-05 0)
(-0.00332686 4.42904e-05 0)
(-0.00567513 3.93316e-05 0)
(-0.00651401 3.60186e-05 0)
(-0.00620478 3.18586e-05 0)
(-0.00516523 2.75532e-05 0)
(-0.00374988 2.50291e-05 0)
(-0.00229789 2.38567e-05 0)
(-0.00100584 2.39538e-05 0)
(6.57322e-05 2.51896e-05 0)
(0.000946626 2.72271e-05 0)
(0.00172221 2.90371e-05 0)
(0.00250426 3.03428e-05 0)
(0.00339936 3.08689e-05 0)
(0.0044874 3.08282e-05 0)
(0.00581652 3.02782e-05 0)
(0.00741588 2.92691e-05 0)
(0.00929687 2.86439e-05 0)
(0.0114643 2.76279e-05 0)
(0.0139279 2.70075e-05 0)
(0.0167017 2.62163e-05 0)
(0.0198136 2.54382e-05 0)
(0.023297 2.45222e-05 0)
(0.0271978 2.34299e-05 0)
(0.0315742 2.18063e-05 0)
(0.0364833 2.04194e-05 0)
(0.0419923 1.82722e-05 0)
(0.0481745 1.64418e-05 0)
(0.0550994 1.45892e-05 0)
(0.0628491 1.31381e-05 0)
(0.0714992 1.27338e-05 0)
(0.0811351 1.35121e-05 0)
(0.0918148 1.74086e-05 0)
(0.103636 2.34498e-05 0)
(0.116582 3.69359e-05 0)
(0.130806 5.23656e-05 0)
(0.146018 8.74989e-05 0)
(0.162557 0.000122001 0)
(0.179392 0.000201801 0)
(0.197329 0.000275684 0)
(0.213664 0.000439407 0)
(0.229956 0.000558287 0)
(0.240413 0.000919869 0)
(0.247023 0.00144825 0)
(0.238041 0.00219137 0)
(0.218264 0.00280759 0)
(0.144152 0.00529025 0)
(0.0912555 0.00476571 0)
(-0.29197 0.0112347 0)
(-0.0352409 0.0206783 0)
(-0.000475821 0.000181608 0)
(-0.00522829 0.000259471 0)
(-0.00967293 0.000144123 0)
(-0.00974666 -1.67244e-05 0)
(-0.00590042 -0.000135176 0)
(0.000377606 -0.00020242 0)
(0.00786057 -0.000225992 0)
(0.0154756 -0.000217242 0)
(0.0225679 -0.000193126 0)
(0.0289365 -0.000167809 0)
(0.0346998 -0.000150599 0)
(0.0401515 -0.000147192 0)
(0.0456455 -0.00015901 0)
(0.0515047 -0.000184121 0)
(0.057962 -0.000218776 0)
(0.0651583 -0.000259574 0)
(0.0731695 -0.000304783 0)
(0.0820369 -0.000351948 0)
(0.091785 -0.000401908 0)
(0.102452 -0.000455345 0)
(0.114093 -0.000513377 0)
(0.126796 -0.000578201 0)
(0.140666 -0.000651365 0)
(0.155842 -0.000735013 0)
(0.172489 -0.000831237 0)
(0.190789 -0.000940502 0)
(0.210945 -0.00106537 0)
(0.233187 -0.00120689 0)
(0.257755 -0.0013658 0)
(0.28493 -0.00154506 0)
(0.315008 -0.00174481 0)
(0.348339 -0.00196739 0)
(0.385241 -0.0022109 0)
(0.426189 -0.00248057 0)
(0.471425 -0.00276301 0)
(0.521706 -0.00307179 0)
(0.576766 -0.00336454 0)
(0.638119 -0.00367777 0)
(0.703872 -0.00389434 0)
(0.777358 -0.00410558 0)
(0.852772 -0.00402589 0)
(0.936632 -0.00388385 0)
(1.01606 -0.00286207 0)
(1.10061 -0.00194137 0)
(1.16459 0.00122314 0)
(1.22716 0.00554823 0)
(1.19118 0.0139423 0)
(1.25126 0.028414 0)
(0.629045 0.0398947 0)
(1.22477 0.16323 0)
(-6.94311e-05 0.00035434 0)
(-0.00492271 0.000570211 0)
(-0.0107173 0.000296456 0)
(-0.0112087 -0.000201228 0)
(-0.00515719 -0.000611357 0)
(0.00568782 -0.000853894 0)
(0.0192488 -0.000949099 0)
(0.0336229 -0.000934089 0)
(0.0474954 -0.000863271 0)
(0.060296 -0.000785744 0)
(0.0720546 -0.000733825 0)
(0.0831646 -0.00072535 0)
(0.0941656 -0.000763551 0)
(0.105578 -0.000841927 0)
(0.117796 -0.000948904 0)
(0.131076 -0.0010744 0)
(0.145565 -0.00121266 0)
(0.161352 -0.00135833 0)
(0.178501 -0.00151334 0)
(0.197085 -0.00167949 0)
(0.217203 -0.00186078 0)
(0.23899 -0.00206226 0)
(0.262609 -0.00228871 0)
(0.288264 -0.00254572 0)
(0.316192 -0.00283904 0)
(0.346661 -0.00317128 0)
(0.37997 -0.00354989 0)
(0.41646 -0.00397884 0)
(0.456501 -0.00446356 0)
(0.500528 -0.00501281 0)
(0.549014 -0.0056321 0)
(0.602527 -0.00633046 0)
(0.661615 -0.00711238 0)
(0.727084 -0.00799212 0)
(0.799426 -0.00895959 0)
(0.879969 -0.0100372 0)
(0.968557 -0.0111773 0)
(1.06784 -0.0124242 0)
(1.17544 -0.0136231 0)
(1.2971 -0.0148777 0)
(1.42503 -0.0157532 0)
(1.57045 -0.0164932 0)
(1.71582 -0.0159189 0)
(1.8788 -0.0146842 0)
(2.02371 -0.0111819 0)
(2.18842 -0.00332748 0)
(2.2316 0.00842366 0)
(2.45413 0.0444133 0)
(1.82723 0.0668564 0)
(2.65315 0.285182 0)
(0.000173285 0.00049024 0)
(-0.00382278 0.000908892 0)
(-0.0103088 0.000544883 0)
(-0.0128668 -0.000338711 0)
(-0.00797267 -0.0011945 0)
(0.00397086 -0.00177722 0)
(0.0208847 -0.00206332 0)
(0.0402653 -0.00210481 0)
(0.060039 -0.00200166 0)
(0.0789844 -0.00185689 0)
(0.0967172 -0.00174583 0)
(0.113456 -0.00171228 0)
(0.129738 -0.00176904 0)
(0.146184 -0.00190647 0)
(0.163321 -0.0021037 0)
(0.181535 -0.00234112 0)
(0.201082 -0.00260648 0)
(0.222136 -0.00289037 0)
(0.244832 -0.00319446 0)
(0.269306 -0.00352235 0)
(0.295709 -0.00388048 0)
(0.324228 -0.0042777 0)
(0.355072 -0.00472221 0)
(0.388485 -0.00522394 0)
(0.424748 -0.00579277 0)
(0.46417 -0.00643526 0)
(0.507098 -0.00716407 0)
(0.553926 -0.00798887 0)
(0.605095 -0.00892098 0)
(0.661124 -0.00997803 0)
(0.722581 -0.011174 0)
(0.790172 -0.0125279 0)
(0.864579 -0.0140556 0)
(0.946828 -0.0157836 0)
(1.03755 -0.0177185 0)
(1.13849 -0.0198873 0)
(1.2495 -0.0222653 0)
(1.37409 -0.0248804 0)
(1.50949 -0.0276073 0)
(1.66322 -0.0304954 0)
(1.82614 -0.0330975 0)
(2.01294 -0.035568 0)
(2.20293 -0.0366862 0)
(2.42053 -0.0356996 0)
(2.62092 -0.0346007 0)
(2.86307 -0.0221279 0)
(2.96713 -0.0105803 0)
(3.30535 0.0500369 0)
(2.78717 0.0854 0)
(3.57592 0.391036 0)
(0.000163342 0.000583434 0)
(-0.00279218 0.00123133 0)
(-0.00914339 0.000886224 0)
(-0.0140947 -0.000310989 0)
(-0.0129103 -0.00166584 0)
(-0.00390885 -0.00273309 0)
(0.012094 -0.00337196 0)
(0.0328704 -0.00360155 0)
(0.0559501 -0.00354665 0)
(0.0794282 -0.00336591 0)
(0.102243 -0.00319222 0)
(0.124099 -0.00311239 0)
(0.145224 -0.0031627 0)
(0.166111 -0.00333949 0)
(0.187295 -0.00361684 0)
(0.20924 -0.0039665 0)
(0.232311 -0.00436884 0)
(0.256794 -0.00480946 0)
(0.282934 -0.00528864 0)
(0.31096 -0.00581113 0)
(0.341111 -0.00638521 0)
(0.373647 -0.00702296 0)
(0.408837 -0.00773549 0)
(0.446972 -0.00853652 0)
(0.488362 -0.00943983 0)
(0.533336 -0.0104561 0)
(0.582256 -0.0116035 0)
(0.635526 -0.0128985 0)
(0.6936 -0.0143596 0)
(0.757018 -0.0160146 0)
(0.826378 -0.0178889 0)
(0.90244 -0.0200131 0)
(0.98593 -0.0224194 0)
(1.07799 -0.0251463 0)
(1.17929 -0.0282262 0)
(1.29181 -0.0316853 0)
(1.41534 -0.0355443 0)
(1.55394 -0.0397951 0)
(1.70446 -0.0443866 0)
(1.87555 -0.0492717 0)
(2.05716 -0.0540669 0)
(2.26612 -0.0587721 0)
(2.47944 -0.0620348 0)
(2.72674 -0.0633604 0)
(2.95557 -0.0630022 0)
(3.24103 -0.0475319 0)
(3.38415 -0.0378007 0)
(3.76041 0.044 0)
(3.40726 0.0984662 0)
(4.00087 0.457662 0)
(2.82495e-05 0.000657446 0)
(-0.00221973 0.00151389 0)
(-0.00787415 0.0012859 0)
(-0.0143657 -7.35403e-05 0)
(-0.0173073 -0.0018553 0)
(-0.0135701 -0.00345797 0)
(-0.00219935 -0.00458826 0)
(0.0158053 -0.00517482 0)
(0.0383992 -0.00531834 0)
(0.0634487 -0.00520617 0)
(0.0893091 -0.00502341 0)
(0.115016 -0.00490844 0)
(0.140218 -0.00493541 0)
(0.164996 -0.00512128 0)
(0.189659 -0.00544649 0)
(0.214594 -0.00588119 0)
(0.240188 -0.00640182 0)
(0.266807 -0.00699056 0)
(0.294801 -0.0076463 0)
(0.324514 -0.00837469 0)
(0.356296 -0.00918528 0)
(0.390517 -0.0100925 0)
(0.427539 -0.0111091 0)
(0.46773 -0.0122512 0)
(0.511455 -0.0135347 0)
(0.55907 -0.0149736 0)
(0.610948 -0.0165902 0)
(0.667481 -0.0184077 0)
(0.729107 -0.0204521 0)
(0.796343 -0.0227621 0)
(0.86976 -0.0253756 0)
(0.950112 -0.0283361 0)
(1.0381 -0.0316952 0)
(1.13491 -0.0355025 0)
(1.24115 -0.039823 0)
(1.35894 -0.0446766 0)
(1.48793 -0.0501442 0)
(1.63248 -0.056168 0)
(1.78918 -0.0627964 0)
(1.96716 -0.069858 0)
(2.15592 -0.0770943 0)
(2.37328 -0.084226 0)
(2.59499 -0.0901526 0)
(2.85353 -0.0934013 0)
(3.09309 -0.0933911 0)
(3.39133 -0.078673 0)
(3.56354 -0.0683654 0)
(3.91831 0.0282418 0)
(3.73071 0.112019 0)
(4.12623 0.502163 0)
(-0.000101342 0.000727614 0)
(-0.00207574 0.00175938 0)
(-0.00700601 0.00169956 0)
(-0.0139491 0.000330956 0)
(-0.0198308 -0.00172249 0)
(-0.0212674 -0.00379359 0)
(-0.0160455 -0.00546128 0)
(-0.0036834 -0.00653583 0)
(0.0148707 -0.00704592 0)
(0.037951 -0.00716219 0)
(0.0638197 -0.00709258 0)
(0.0910647 -0.00701567 0)
(0.118744 -0.00704635 0)
(0.146377 -0.00723327 0)
(0.173832 -0.00757676 0)
(0.201213 -0.00805756 0)
(0.228761 -0.00865702 0)
(0.256803 -0.0093597 0)
(0.285721 -0.0101663 0)
(0.315933 -0.0110854 0)
(0.347892 -0.0121285 0)
(0.382079 -0.0133128 0)
(0.418983 -0.014652 0)
(0.459084 -0.0161628 0)
(0.502844 -0.0178616 0)
(0.550691 -0.0197627 0)
(0.603036 -0.0218905 0)
(0.660274 -0.0242727 0)
(0.722823 -0.0269416 0)
(0.791158 -0.0299459 0)
(0.865791 -0.033337 0)
(0.947428 -0.0371708 0)
(1.03669 -0.0415208 0)
(1.13475 -0.0464459 0)
(1.2421 -0.052049 0)
(1.36089 -0.0583398 0)
(1.49066 -0.0654661 0)
(1.63578 -0.0733149 0)
(1.79279 -0.0820433 0)
(1.9707 -0.0913431 0)
(2.15926 -0.10111 0)
(2.37577 -0.110728 0)
(2.59687 -0.119472 0)
(2.85351 -0.124404 0)
(3.09416 -0.127538 0)
(3.38433 -0.110415 0)
(3.579 -0.0984467 0)
(3.88815 0.00665766 0)
(3.82862 0.123522 0)
(4.09054 0.533366 0)
(-0.000166307 0.000802033 0)
(-0.00215906 0.00198729 0)
(-0.00662329 0.00210554 0)
(-0.0134096 0.000825428 0)
(-0.0206948 -0.0013428 0)
(-0.0257048 -0.00374384 0)
(-0.0258813 -0.00588879 0)
(-0.0197398 -0.00748669 0)
(-0.00706745 -0.00847556 0)
(0.011363 -0.00897164 0)
(0.0342561 -0.00916738 0)
(0.0602098 -0.00925354 0)
(0.087985 -0.00937146 0)
(0.116649 -0.00959972 0)
(0.145599 -0.00996516 0)
(0.174533 -0.0104696 0)
(0.203396 -0.0111098 0)
(0.232323 -0.011882 0)
(0.261601 -0.0127952 0)
(0.291621 -0.0138654 0)
(0.322863 -0.0151103 0)
(0.355877 -0.0165522 0)
(0.391257 -0.0182075 0)
(0.429607 -0.020094 0)
(0.47152 -0.0222267 0)
(0.517544 -0.0246185 0)
(0.568178 -0.0272917 0)
(0.62387 -0.0302754 0)
(0.685043 -0.0336052 0)
(0.752147 -0.0373365 0)
(0.825627 -0.0415335 0)
(0.906117 -0.0462629 0)
(0.994134 -0.0516214 0)
(1.09077 -0.0576757 0)
(1.19638 -0.0645689 0)
(1.31306 -0.0722989 0)
(1.44024 -0.0810814 0)
(1.58208 -0.0907507 0)
(1.73531 -0.101565 0)
(1.90824 -0.113091 0)
(2.09161 -0.125356 0)
(2.30073 -0.137461 0)
(2.51547 -0.148868 0)
(2.76101 -0.155863 0)
(2.99685 -0.161402 0)
(3.26773 -0.141287 0)
(3.47347 -0.126526 0)
(3.73756 -0.0174116 0)
(3.76258 0.130935 0)
(3.95118 0.553468 0)
(-0.000178811 0.000884981 0)
(-0.00227785 0.00221705 0)
(-0.0065952 0.00250304 0)
(-0.0130903 0.0013526 0)
(-0.0207287 -0.000824588 0)
(-0.0275197 -0.00341868 0)
(-0.0312076 -0.00592531 0)
(-0.0300141 -0.00799289 0)
(-0.0229899 -0.00948192 0)
(-0.0100713 -0.010442 0)
(0.00812037 -0.0110237 0)
(0.0305651 -0.0114008 0)
(0.0561036 -0.0117178 0)
(0.0836439 -0.0120688 0)
(0.112284 -0.0125023 0)
(0.14137 -0.0130434 0)
(0.170512 -0.0137106 0)
(0.199569 -0.0145194 0)
(0.228622 -0.0154944 0)
(0.257922 -0.0166658 0)
(0.287867 -0.0180623 0)
(0.318985 -0.0197169 0)
(0.351898 -0.0216533 0)
(0.387293 -0.0238938 0)
(0.425883 -0.0264537 0)
(0.468355 -0.029344 0)
(0.515342 -0.0325824 0)
(0.567399 -0.0361949 0)
(0.625008 -0.0402161 0)
(0.688639 -0.0447033 0)
(0.758689 -0.0497301 0)
(0.835729 -0.0553708 0)
(0.92016 -0.0617444 0)
(1.01295 -0.0689239 0)
(1.11434 -0.0770911 0)
(1.22621 -0.0862354 0)
(1.34799 -0.0966317 0)
(1.48338 -0.108076 0)
(1.62954 -0.1209 0)
(1.79355 -0.13459 0)
(1.9678 -0.149231 0)
(2.1645 -0.163746 0)
(2.36815 -0.177639 0)
(2.59644 -0.186709 0)
(2.8212 -0.193447 0)
(3.06755 -0.174283 0)
(3.27192 -0.154858 0)
(3.49856 -0.0417309 0)
(3.57455 0.13367 0)
(3.73 0.562675 0)
(-0.00017057 0.000974422 0)
(-0.00235553 0.00245774 0)
(-0.00670064 0.00290358 0)
(-0.0130359 0.00188957 0)
(-0.0206011 -0.000248741 0)
(-0.0279576 -0.00294449 0)
(-0.0333516 -0.005704 0)
(-0.0351589 -0.00814922 0)
(-0.0322253 -0.0100902 0)
(-0.0240136 -0.0115201 0)
(-0.0105832 -0.0125408 0)
(0.00752531 -0.0132928 0)
(0.0294617 -0.0139035 0)
(0.0542475 -0.014465 0)
(0.0809243 -0.0150352 0)
(0.108661 -0.0156555 0)
(0.136827 -0.0163655 0)
(0.165031 -0.0172021 0)
(0.193117 -0.0182101 0)
(0.221135 -0.019438 0)
(0.249318 -0.0209314 0)
(0.278073 -0.0227389 0)
(0.307956 -0.0248982 0)
(0.339647 -0.0274419 0)
(0.373917 -0.0303912 0)
(0.411562 -0.0337577 0)
(0.453351 -0.0375553 0)
(0.499981 -0.0418039 0)
(0.552044 -0.046533 0)
(0.610079 -0.0517958 0)
(0.674493 -0.0576699 0)
(0.745816 -0.0642322 0)
(0.824358 -0.0716199 0)
(0.910949 -0.0799102 0)
(1.00572 -0.089319 0)
(1.11025 -0.0998323 0)
(1.22403 -0.111769 0)
(1.35012 -0.124912 0)
(1.48624 -0.139621 0)
(1.63797 -0.155365 0)
(1.79957 -0.172193 0)
(1.97989 -0.188994 0)
(2.16799 -0.205092 0)
(2.37482 -0.216101 0)
(2.58214 -0.223984 0)
(2.80131 -0.205466 0)
(2.99394 -0.181342 0)
(3.18922 -0.0652092 0)
(3.29309 0.131362 0)
(3.43998 0.561428 0)
(-0.000161375 0.001068 0)
(-0.00239353 0.00271144 0)
(-0.00681253 0.00331664 0)
(-0.0131224 0.00243493 0)
(-0.0205658 0.000347294 0)
(-0.0279554 -0.00240897 0)
(-0.0338936 -0.00535164 0)
(-0.0370705 -0.00809368 0)
(-0.0364469 -0.0104164 0)
(-0.0313507 -0.0122731 0)
(-0.0215688 -0.0137253 0)
(-0.0072937 -0.0148777 0)
(0.0109465 -0.0158318 0)
(0.0324059 -0.0166651 0)
(0.0562412 -0.0174318 0)
(0.0816191 -0.0181804 0)
(0.107816 -0.0189643 0)
(0.134286 -0.0198396 0)
(0.160694 -0.0208706 0)
(0.186898 -0.0221255 0)
(0.212947 -0.0236687 0)
(0.239074 -0.0255684 0)
(0.265693 -0.0278809 0)
(0.293388 -0.0306563 0)
(0.322898 -0.0339283 0)
(0.355053 -0.0377161 0)
(0.390718 -0.0420333 0)
(0.430716 -0.0468948 0)
(0.475771 -0.0523226 0)
(0.526529 -0.0583609 0)
(0.583456 -0.0650848 0)
(0.647081 -0.0725679 0)
(0.717674 -0.0809583 0)
(0.795924 -0.0903354 0)
(0.881883 -0.100939 0)
(0.976817 -0.11276 0)
(1.08027 -0.12614 0)
(1.19459 -0.140874 0)
(1.31808 -0.157309 0)
(1.4548 -0.174951 0)
(1.60068 -0.193736 0)
(1.76165 -0.212619 0)
(1.93028 -0.230611 0)
(2.11279 -0.243428 0)
(2.29735 -0.252028 0)
(2.48781 -0.234207 0)
(2.66074 -0.204693 0)
(2.8284 -0.0868509 0)
(2.94488 0.124317 0)
(3.09708 0.55041 0)
(-0.000156526 0.00116487 0)
(-0.00241422 0.0029775 0)
(-0.00689752 0.0037462 0)
(-0.0132432 0.00299436 0)
(-0.0206257 0.000954669 0)
(-0.0279197 -0.00185256 0)
(-0.0339033 -0.00494938 0)
(-0.037495 -0.00794092 0)
(-0.037838 -0.0105888 0)
(-0.0343567 -0.0128203 0)
(-0.0267798 -0.0146671 0)
(-0.0151539 -0.0162044 0)
(0.000198701 -0.0175079 0)
(0.0187342 -0.018636 0)
(0.0397706 -0.0196318 0)
(0.0625647 -0.0205422 0)
(0.0864098 -0.0214276 0)
(0.110714 -0.0223576 0)
(0.135046 -0.0234124 0)
(0.159138 -0.0246781 0)
(0.182887 -0.0262366 0)
(0.206358 -0.0281758 0)
(0.229797 -0.030573 0)
(0.253638 -0.0335002 0)
(0.27851 -0.0370109 0)
(0.3052 -0.0411389 0)
(0.33459 -0.0459045 0)
(0.36758 -0.0513217 0)
(0.405 -0.0574062 0)
(0.447607 -0.0641904 0)
(0.495953 -0.0717418 0)
(0.550603 -0.0801249 0)
(0.611832 -0.0894899 0)
(0.680216 -0.0999153 0)
(0.75577 -0.111653 0)
(0.839434 -0.124704 0)
(0.930833 -0.139412 0)
(1.03163 -0.155605 0)
(1.14061 -0.173581 0)
(1.26048 -0.192922 0)
(1.38846 -0.213407 0)
(1.52824 -0.234098 0)
(1.67474 -0.253672 0)
(1.83129 -0.268007 0)
(1.98972 -0.276977 0)
(2.1507 -0.259761 0)
(2.29939 -0.225312 0)
(2.44199 -0.106608 0)
(2.56121 0.112995 0)
(2.72492 0.530254 0)
(-0.000154607 0.00126507 0)
(-0.00243218 0.00325521 0)
(-0.00696382 0.00419302 0)
(-0.0133555 0.00357168 0)
(-0.0207232 0.00157543 0)
(-0.0279361 -0.00128632 0)
(-0.0338309 -0.00453254 0)
(-0.0374375 -0.00775651 0)
(-0.0380391 -0.0107008 0)
(-0.0351761 -0.0132709 0)
(-0.0286433 -0.0154761 0)
(-0.0184735 -0.0173689 0)
(-0.00492001 -0.0190038 0)
(0.0115866 -0.0204212 0)
(0.0304771 -0.0216512 0)
(0.0511077 -0.0227349 0)
(0.0728308 -0.0237342 0)
(0.0950722 -0.0247278 0)
(0.117375 -0.0258076 0)
(0.139414 -0.0270738 0)
(0.160991 -0.0286229 0)
(0.182049 -0.0305598 0)
(0.202684 -0.0329822 0)
(0.223172 -0.0359854 0)
(0.244 -0.0396468 0)
(0.265849 -0.0440217 0)
(0.28955 -0.0491439 0)
(0.316009 -0.0550328 0)
(0.346112 -0.0617012 0)
(0.380691 -0.0691708 0)
(0.420386 -0.0774983 0)
(0.4658 -0.0867349 0)
(0.517252 -0.0970243 0)
(0.575227 -0.108441 0)
(0.639747 -0.121235 0)
(0.71146 -0.135422 0)
(0.790072 -0.151329 0)
(0.876641 -0.168831 0)
(0.970314 -0.18815 0)
(1.07273 -0.20896 0)
(1.18196 -0.230876 0)
(1.30013 -0.253063 0)
(1.42356 -0.27388 0)
(1.55405 -0.289423 0)
(1.68536 -0.298448 0)
(1.81753 -0.281512 0)
(1.94052 -0.24332 0)
(2.06066 -0.12471 0)
(2.17714 0.0988094 0)
(2.35366 0.502495 0)
(-0.000153576 0.00136886 0)
(-0.00245155 0.00354453 0)
(-0.0070235 0.00465703 0)
(-0.0134556 0.00416838 0)
(-0.0208236 0.00221247 0)
(-0.0279835 -0.000710077 0)
(-0.0337864 -0.00411086 0)
(-0.0373017 -0.00756762 0)
(-0.0378831 -0.0108011 0)
(-0.0351529 -0.0136945 0)
(-0.0289777 -0.016237 0)
(-0.0194343 -0.0184623 0)
(-0.00677935 -0.0204078 0)
(0.00858363 -0.0220983 0)
(0.0261415 -0.0235524 0)
(0.0453062 -0.0248041 0)
(0.0654827 -0.0259152 0)
(0.0861254 -0.0269706 0)
(0.106793 -0.0280711 0)
(0.127143 -0.0293275 0)
(0.146935 -0.0308481 0)
(0.166048 -0.0327507 0)
(0.184456 -0.0351507 0)
(0.202314 -0.0381657 0)
(0.219973 -0.0418984 0)
(0.237983 -0.0464291 0)
(0.257087 -0.0518114 0)
(0.278138 -0.0580756 0)
(0.30202 -0.0652368 0)
(0.329589 -0.0733086 0)
(0.361542 -0.0823364 0)
(0.398508 -0.0923562 0)
(0.440853 -0.103498 0)
(0.488998 -0.11583 0)
(0.54299 -0.129589 0)
(0.603239 -0.144806 0)
(0.669523 -0.161774 0)
(0.742417 -0.180421 0)
(0.821311 -0.200884 0)
(0.90704 -0.222923 0)
(0.998223 -0.246001 0)
(1.09592 -0.269355 0)
(1.19729 -0.29111 0)
(1.30336 -0.307516 0)
(1.40901 -0.316158 0)
(1.51466 -0.299964 0)
(1.61335 -0.259001 0)
(1.71483 -0.136928 0)
(1.82655 0.082764 0)
(2.01421 0.466575 0)
(-0.000152568 0.00147641 0)
(-0.00247193 0.00384592 0)
(-0.00708177 0.00513834 0)
(-0.0135493 0.00478489 0)
(-0.0209183 0.00286729 0)
(-0.0280373 -0.000121964 0)
(-0.0337647 -0.00368482 0)
(-0.0371827 -0.00738152 0)
(-0.0376735 -0.0109084 0)
(-0.0349016 -0.0141244 0)
(-0.0287793 -0.0169983 0)
(-0.0194237 -0.019546 0)
(-0.00711776 -0.0217892 0)
(0.00772681 -0.0237396 0)
(0.0246042 -0.025405 0)
(0.0429468 -0.0268138 0)
(0.0621832 -0.0280271 0)
(0.081792 -0.0291353 0)
(0.101345 -0.030247 0)
(0.120502 -0.0314823 0)
(0.139023 -0.0329574 0)
(0.156715 -0.0348016 0)
(0.173544 -0.0371436 0)
(0.189551 -0.0401212 0)
(0.204981 -0.0438613 0)
(0.220263 -0.0484707 0)
(0.236058 -0.0540263 0)
(0.253115 -0.0605737 0)
(0.272283 -0.0681342 0)
(0.294402 -0.0767178 0)
(0.320183 -0.0863585 0)
(0.350255 -0.0970778 0)
(0.385018 -0.108988 0)
(0.424837 -0.122147 0)
(0.469787 -0.136769 0)
(0.520097 -0.152902 0)
(0.5756 -0.170793 0)
(0.636512 -0.190423 0)
(0.702375 -0.211837 0)
(0.773465 -0.234873 0)
(0.84872 -0.25886 0)
(0.928525 -0.28308 0)
(1.01054 -0.305486 0)
(1.09548 -0.32237 0)
(1.17883 -0.330674 0)
(1.26202 -0.315152 0)
(1.34108 -0.269368 0)
(1.42779 -0.145913 0)
(1.53425 0.0599381 0)
(1.73182 0.424815 0)
(-0.000151479 0.00158784 0)
(-0.00249245 0.00416002 0)
(-0.00713936 0.00563739 0)
(-0.0136403 0.00542156 0)
(-0.0210086 0.00354052 0)
(-0.0280886 0.000479021 0)
(-0.0337487 -0.00325345 0)
(-0.0370788 -0.00719882 0)
(-0.0374748 -0.0110275 0)
(-0.0346209 -0.0145727 0)
(-0.0284518 -0.0177815 0)
(-0.0191073 -0.0206515 0)
(-0.00689064 -0.0231892 0)
(0.00777164 -0.0253934 0)
(0.024365 -0.0272623 0)
(0.0423209 -0.0288189 0)
(0.0610723 -0.0301246 0)
(0.0801065 -0.0312754 0)
(0.0990021 -0.0323875 0)
(0.11743 -0.0335894 0)
(0.135135 -0.0350052 0)
(0.151951 -0.0367714 0)
(0.167757 -0.0390305 0)
(0.182585 -0.0419358 0)
(0.196583 -0.0456379 0)
(0.210147 -0.0502686 0)
(0.223763 -0.0559299 0)
(0.238186 -0.0626848 0)
(0.254177 -0.0705647 0)
(0.272526 -0.0795778 0)
(0.293927 -0.0897484 0)
(0.31898 -0.101085 0)
(0.348099 -0.113677 0)
(0.381593 -0.127574 0)
(0.419557 -0.142961 0)
(0.462084 -0.159899 0)
(0.509048 -0.178585 0)
(0.560414 -0.199046 0)
(0.615812 -0.22124 0)
(0.675155 -0.245066 0)
(0.737568 -0.269743 0)
(0.803033 -0.294566 0)
(0.869539 -0.317367 0)
(0.937678 -0.334524 0)
(1.00358 -0.342454 0)
(1.06997 -0.326625 0)
(1.13447 -0.27867 0)
(1.21022 -0.161493 0)
(1.31505 0.0363578 0)
(1.52211 0.38024 0)
(-0.000150399 0.00170328 0)
(-0.00251272 0.00448726 0)
(-0.00719578 0.00615481 0)
(-0.0137292 0.00607887 0)
(-0.0210961 0.00423266 0)
(-0.0281369 0.00109329 0)
(-0.0337315 -0.00281631 0)
(-0.0369787 -0.00701922 0)
(-0.037285 -0.0111592 0)
(-0.0343469 -0.0150426 0)
(-0.0281102 -0.0185938 0)
(-0.0187244 -0.0217917 0)
(-0.00650243 -0.0246271 0)
(0.00811937 -0.0270855 0)
(0.0246174 -0.0291555 0)
(0.0424168 -0.0308553 0)
(0.0609474 -0.0322466 0)
(0.0796971 -0.0334317 0)
(0.0982459 -0.0345351 0)
(0.116268 -0.0356934 0)
(0.133511 -0.0370383 0)
(0.149797 -0.0387135 0)
(0.165012 -0.0408717 0)
(0.179145 -0.0436819 0)
(0.192332 -0.0473159 0)
(0.204873 -0.0519313 0)
(0.21728 -0.0576511 0)
(0.230157 -0.0645608 0)
(0.244237 -0.072701 0)
(0.260257 -0.0820807 0)
(0.27888 -0.0927146 0)
(0.300666 -0.104599 0)
(0.326021 -0.1178 0)
(0.355194 -0.132358 0)
(0.388298 -0.148424 0)
(0.425326 -0.166071 0)
(0.46617 -0.185445 0)
(0.510634 -0.206609 0)
(0.558399 -0.229443 0)
(0.609154 -0.253887 0)
(0.662164 -0.279082 0)
(0.717116 -0.304297 0)
(0.772368 -0.327332 0)
(0.828498 -0.344576 0)
(0.882228 -0.351949 0)
(0.937205 -0.336445 0)
(0.992569 -0.289718 0)
(1.06388 -0.176698 0)
(1.17054 0.0149573 0)
(1.3856 0.329415 0)
(-0.000149391 0.00182286 0)
(-0.00253269 0.00482805 0)
(-0.00725064 0.00669125 0)
(-0.0138157 0.00675739 0)
(-0.0211814 0.00494422 0)
(-0.0281828 0.00172108 0)
(-0.0337121 -0.00237333 0)
(-0.0368778 -0.00684272 0)
(-0.037097 -0.0113038 0)
(-0.0340772 -0.0155349 0)
(-0.0277719 -0.0194375 0)
(-0.0183346 -0.0229711 0)
(-0.00608189 -0.0261103 0)
(0.00854567 -0.028827 0)
(0.0250191 -0.0310997 0)
(0.0427583 -0.0329415 0)
(0.0611902 -0.0344151 0)
(0.079801 -0.0356294 0)
(0.0981712 -0.0367174 0)
(0.115974 -0.0378244 0)
(0.132961 -0.0390894 0)
(0.148949 -0.0406634 0)
(0.163826 -0.0427091 0)
(0.17757 -0.0454103 0)
(0.190307 -0.0489591 0)
(0.202315 -0.0535368 0)
(0.214056 -0.059291 0)
(0.226119 -0.0663243 0)
(0.239183 -0.0746883 0)
(0.253935 -0.0843936 0)
(0.271004 -0.0954455 0)
(0.290903 -0.107828 0)
(0.31402 -0.121585 0)
(0.340562 -0.136746 0)
(0.370628 -0.153427 0)
(0.404149 -0.171709 0)
(0.441021 -0.19169 0)
(0.480972 -0.213457 0)
(0.523665 -0.236831 0)
(0.568773 -0.261766 0)
(0.615444 -0.287356 0)
(0.663655 -0.312836 0)
(0.711573 -0.335981 0)
(0.760034 -0.353195 0)
(0.806404 -0.360284 0)
(0.85512 -0.345174 0)
(0.907065 -0.29892 0)
(0.978909 -0.191857 0)
(1.09057 -0.011735 0)
(1.31479 0.274722 0)
(-0.00014848 0.00194669 0)
(-0.00255233 0.00518275 0)
(-0.00730378 0.00724739 0)
(-0.0138994 0.00745772 0)
(-0.021264 0.00567578 0)
(-0.0282264 0.0023627 0)
(-0.033691 -0.00192457 0)
(-0.0367758 -0.00666961 0)
(-0.0369086 -0.0114617 0)
(-0.0338083 -0.0160504 0)
(-0.0274352 -0.0203137 0)
(-0.0179457 -0.0241917 0)
(-0.00565753 -0.0276419 0)
(0.00898688 -0.0306224 0)
(0.0254557 -0.0331009 0)
(0.0431661 -0.0350857 0)
(0.0615435 -0.0366405 0)
(0.0800738 -0.0378809 0)
(0.0983381 -0.038949 0)
(0.11601 -0.039999 0)
(0.13284 -0.0411775 0)
(0.148646 -0.0426428 0)
(0.163317 -0.0445676 0)
(0.176833 -0.0471511 0)
(0.189315 -0.0506053 0)
(0.20104 -0.0551351 0)
(0.212451 -0.0609111 0)
(0.224119 -0.0680537 0)
(0.236696 -0.0766243 0)
(0.250834 -0.0866352 0)
(0.267131 -0.0980814 0)
(0.286064 -0.110936 0)
(0.307995 -0.125216 0)
(0.333092 -0.140943 0)
(0.361447 -0.158199 0)
(0.392948 -0.177065 0)
(0.427491 -0.197601 0)
(0.46475 -0.219906 0)
(0.504433 -0.243755 0)
(0.546105 -0.2691 0)
(0.58914 -0.295011 0)
(0.633196 -0.320687 0)
(0.67705 -0.343897 0)
(0.721518 -0.361106 0)
(0.764617 -0.368042 0)
(0.811413 -0.353317 0)
(0.863822 -0.308557 0)
(0.940239 -0.209812 0)
(1.0603 -0.0415 0)
(1.29315 0.217259 0)
(-0.000147678 0.00207493 0)
(-0.00257163 0.00555173 0)
(-0.00735507 0.00782393 0)
(-0.0139799 0.00818045 0)
(-0.0213438 0.00642796 0)
(-0.0282677 0.00301846 0)
(-0.0336682 -0.00147006 0)
(-0.0366731 -0.00650017 0)
(-0.0367202 -0.0116335 0)
(-0.0335398 -0.0165901 0)
(-0.0270992 -0.0212237 0)
(-0.0175575 -0.0254548 0)
(-0.0052334 -0.0292238 0)
(0.00942957 -0.0324739 0)
(0.0258975 -0.0351622 0)
(0.0435862 -0.0372917 0)
(0.0619205 -0.0389274 0)
(0.0803879 -0.040192 0)
(0.0985704 -0.0412369 0)
(0.116142 -0.0422252 0)
(0.132855 -0.0433116 0)
(0.148526 -0.0446619 0)
(0.163047 -0.0464598 0)
(0.176402 -0.0489197 0)
(0.188717 -0.0522742 0)
(0.200273 -0.056752 0)
(0.211511 -0.0625462 0)
(0.222993 -0.0697947 0)
(0.235356 -0.0785681 0)
(0.24923 -0.0888791 0)
(0.265192 -0.100712 0)
(0.283686 -0.114027 0)
(0.305055 -0.128819 0)
(0.329438 -0.145093 0)
(0.356916 -0.162902 0)
(0.387352 -0.182328 0)
(0.420641 -0.203391 0)
(0.456443 -0.226197 0)
(0.494482 -0.250489 0)
(0.534333 -0.276204 0)
(0.575418 -0.302412 0)
(0.617519 -0.328251 0)
(0.659548 -0.351554 0)
(0.702544 -0.368829 0)
(0.745196 -0.375801 0)
(0.793041 -0.362103 0)
(0.849059 -0.319497 0)
(0.932657 -0.228012 0)
(1.06291 -0.074371 0)
(1.30488 0.15564 0)
(-0.000146994 0.00220772 0)
(-0.00259054 0.00593536 0)
(-0.00740442 0.00842158 0)
(-0.0140571 0.0089262 0)
(-0.0214202 0.00720139 0)
(-0.0283063 0.00368875 0)
(-0.0336438 -0.00100981 0)
(-0.0365702 -0.00633473 0)
(-0.0365327 -0.0118198 0)
(-0.0332727 -0.0171549 0)
(-0.0267649 -0.0221687 0)
(-0.0171712 -0.0267619 0)
(-0.0048111 -0.0308576 0)
(0.00987035 -0.0343834 0)
(0.0263373 -0.0372855 0)
(0.0440043 -0.0395615 0)
(0.0622966 -0.041278 0)
(0.0807034 -0.0425651 0)
(0.0988087 -0.0435837 0)
(0.116288 -0.0445062 0)
(0.132894 -0.0454955 0)
(0.148444 -0.0467252 0)
(0.162831 -0.0483905 0)
(0.176048 -0.0507222 0)
(0.188226 -0.053974 0)
(0.199653 -0.058399 0)
(0.210778 -0.0642125 0)
(0.222158 -0.0715697 0)
(0.234426 -0.0805496 0)
(0.248197 -0.0911645 0)
(0.264029 -0.103387 0)
(0.282346 -0.117164 0)
(0.303473 -0.132465 0)
(0.327529 -0.149284 0)
(0.354582 -0.167641 0)
(0.384488 -0.187615 0)
(0.41714 -0.209197 0)
(0.452205 -0.23249 0)
(0.489424 -0.257217 0)
(0.52841 -0.283294 0)
(0.568655 -0.309801 0)
(0.61003 -0.335836 0)
(0.651698 -0.359289 0)
(0.694866 -0.376758 0)
(0.738876 -0.384072 0)
(0.789703 -0.371774 0)
(0.851124 -0.332016 0)
(0.943143 -0.248773 0)
(1.08434 -0.110769 0)
(1.33516 0.0908141 0)
(-0.000146439 0.0023452 0)
(-0.002609 0.00633401 0)
(-0.00745172 0.00904102 0)
(-0.0141307 0.00969558 0)
(-0.0214932 0.00799665 0)
(-0.028342 0.004374 0)
(-0.0336178 -0.000543763 0)
(-0.0364674 -0.00617353 0)
(-0.0363468 -0.0120212 0)
(-0.0330083 -0.0177456 0)
(-0.026434 -0.02315 0)
(-0.0167887 -0.0281146 0)
(-0.00439313 -0.0325449 0)
(0.0103062 -0.0363527 0)
(0.0267713 -0.0394725 0)
(0.0444151 -0.0418968 0)
(0.0626636 -0.043694 0)
(0.0810081 -0.0450018 0)
(0.0990346 -0.0459912 0)
(0.116421 -0.0468437 0)
(0.132918 -0.0477306 0)
(0.148347 -0.0488341 0)
(0.162602 -0.0503615 0)
(0.175682 -0.0525606 0)
(0.187728 -0.0557076 0)
(0.199036 -0.06008 0)
(0.210062 -0.0659161 0)
(0.221367 -0.073388 0)
(0.23358 -0.0825822 0)
(0.247306 -0.0935095 0)
(0.263089 -0.10613 0)
(0.281338 -0.120377 0)
(0.302361 -0.136194 0)
(0.326263 -0.153561 0)
(0.353103 -0.172471 0)
(0.382737 -0.192994 0)
(0.415058 -0.215099 0)
(0.449751 -0.238879 0)
(0.486583 -0.26405 0)
(0.525209 -0.290501 0)
(0.565215 -0.317337 0)
(0.606558 -0.343624 0)
(0.648668 -0.367321 0)
(0.692921 -0.385172 0)
(0.739297 -0.393109 0)
(0.794064 -0.382673 0)
(0.861755 -0.34675 0)
(0.96262 -0.271946 0)
(1.11446 -0.150171 0)
(1.37306 0.0228419 0)
(-0.000146015 0.00248754 0)
(-0.00262697 0.00674805 0)
(-0.00749686 0.00968295 0)
(-0.0142005 0.0104893 0)
(-0.0215624 0.00881433 0)
(-0.0283748 0.00507473 0)
(-0.03359 -7.18537e-05 0)
(-0.0363649 -0.00601683 0)
(-0.0361633 -0.0122383 0)
(-0.0327478 -0.0183633 0)
(-0.0261083 -0.0241687 0)
(-0.0164126 -0.0295144 0)
(-0.00398241 -0.0342874 0)
(0.0107337 -0.0383833 0)
(0.0271953 -0.0417249 0)
(0.0448142 -0.0442992 0)
(0.0630166 -0.0461767 0)
(0.0812959 -0.0475033 0)
(0.0992405 -0.0484603 0)
(0.116529 -0.0492383 0)
(0.132915 -0.0500176 0)
(0.148218 -0.050989 0)
(0.162337 -0.0523728 0)
(0.175276 -0.054435 0)
(0.187184 -0.057475 0)
(0.198371 -0.0617958 0)
(0.209297 -0.0676588 0)
(0.220528 -0.0752526 0)
(0.232692 -0.0846705 0)
(0.246386 -0.0959212 0)
(0.262143 -0.108952 0)
(0.280357 -0.123678 0)
(0.30132 -0.140022 0)
(0.325131 -0.157945 0)
(0.35184 -0.177417 0)
(0.381304 -0.198497 0)
(0.413422 -0.221135 0)
(0.447902 -0.245414 0)
(0.48454 -0.271048 0)
(0.523042 -0.297899 0)
(0.563092 -0.325107 0)
(0.604738 -0.351722 0)
(0.647678 -0.375784 0)
(0.693454 -0.394212 0)
(0.742633 -0.403118 0)
(0.801717 -0.395053 0)
(0.875874 -0.363516 0)
(0.985229 -0.297908 0)
(1.14671 -0.193075 0)
(1.41164 -0.0482008 0)
(-0.000145726 0.00263489 0)
(-0.00264439 0.00717784 0)
(-0.00753976 0.010348 0)
(-0.0142662 0.0113079 0)
(-0.0216275 0.00965496 0)
(-0.0284045 0.00579147 0)
(-0.0335605 0.000406071 0)
(-0.036263 -0.00586483 0)
(-0.035983 -0.0124715 0)
(-0.0324926 -0.0190087 0)
(-0.0257896 -0.0252261 0)
(-0.0160451 -0.0309626 0)
(-0.00358201 -0.0360867 0)
(0.0111491 -0.0404772 0)
(0.0276054 -0.0440443 0)
(0.045197 -0.0467702 0)
(0.0633506 -0.0487278 0)
(0.0815618 -0.050071 0)
(0.0994209 -0.0509919 0)
(0.116608 -0.0516909 0)
(0.132877 -0.0523568 0)
(0.148049 -0.0531899 0)
(0.162026 -0.0544243 0)
(0.174817 -0.056345 0)
(0.186582 -0.0592759 0)
(0.19764 -0.0635461 0)
(0.208458 -0.0694405 0)
(0.21961 -0.077164 0)
(0.231719 -0.086816 0)
(0.245376 -0.098402 0)
(0.261105 -0.111855 0)
(0.279284 -0.127074 0)
(0.300196 -0.143956 0)
(0.323927 -0.162446 0)
(0.350522 -0.182491 0)
(0.379845 -0.204137 0)
(0.4118 -0.227323 0)
(0.44612 -0.252115 0)
(0.482636 -0.278236 0)
(0.521102 -0.305524 0)
(0.561309 -0.333157 0)
(0.603392 -0.360189 0)
(0.647314 -0.384748 0)
(0.694767 -0.403972 0)
(0.746862 -0.414196 0)
(0.810268 -0.408948 0)
(0.89062 -0.382454 0)
(1.00769 -0.326817 0)
(1.17749 -0.239146 0)
(1.44694 -0.121834 0)
(-0.000145567 0.00278744 0)
(-0.00266119 0.00762372 0)
(-0.00758032 0.011037 0)
(-0.0143278 0.0121523 0)
(-0.0216884 0.0105192 0)
(-0.0284309 0.0065248 0)
(-0.0335292 0.000890179 0)