/*--------------------------------*- C++ -*----------------------------------*\
  =========                 |
  \\      /  F ield         | OpenFOAM: The Open Source CFD Toolbox
   \\    /   O peration     | Website:  https://openfoam.org
    \\  /    A nd           | Version:  7
     \\/     M anipulation  |
\*---------------------------------------------------------------------------*/
FoamFile
{
    version     2.0;
    format      ascii;
    class       surfaceScalarField;
    location    "0.36";
    object      ddtCorrDdt0(phi);
}
// * * * * * * * * * * * * * * * * * * * * * * * * * * * * * * * * * * * * * //

dimensions      [0 3 -2 0 0 0 0];

internalField   nonuniform List<scalar> 
139350
(
-3.06599e-10
3.06318e-10
-7.00732e-10
3.93632e-10
-9.48809e-10
2.47467e-10
-9.96086e-10
4.68339e-11
-8.92829e-10
-1.0363e-10
-7.00265e-10
-1.92933e-10
-4.75206e-10
-2.25358e-10
-2.59204e-10
-2.16294e-10
-7.2496e-11
-1.87016e-10
8.20397e-11
-1.54769e-10
2.12446e-10
-1.30804e-10
3.3464e-10
-1.22488e-10
4.65747e-10
-1.31495e-10
6.20734e-10
-1.55345e-10
8.09953e-10
-1.89345e-10
1.03876e-09
-2.29329e-10
1.31237e-09
-2.73286e-10
1.62893e-09
-3.17559e-10
1.99282e-09
-3.63536e-10
2.4029e-09
-4.11268e-10
2.86464e-09
-4.61922e-10
3.38147e-09
-5.17549e-10
3.96044e-09
-5.79345e-10
4.60884e-09
-6.49054e-10
5.33754e-09
-7.28619e-10
6.15334e-09
-8.17239e-10
7.07099e-09
-9.17544e-10
8.09837e-09
-1.02919e-09
9.24989e-09
-1.15213e-09
1.05368e-08
-1.28828e-09
1.19722e-08
-1.4363e-09
1.35681e-08
-1.5974e-09
1.53353e-08
-1.76767e-09
1.72842e-08
-1.95167e-09
1.94176e-08
-2.1339e-09
2.17438e-08
-2.32943e-09
2.42326e-08
-2.49e-09
2.68921e-08
-2.66173e-09
2.96097e-08
-2.71913e-09
3.23835e-08
-2.77492e-09
3.49284e-08
-2.54599e-09
3.71805e-08
-2.2529e-09
3.85058e-08
-1.32567e-09
3.8646e-08
-1.41802e-10
3.61483e-08
2.49648e-09
3.03227e-08
5.82272e-09
1.72147e-08
1.31037e-08
-4.79509e-09
2.2005e-08
-4.2741e-08
3.79433e-08
1.23553e-07
-1.66295e-07
-4.59655e-10
7.65633e-10
-1.19955e-09
1.13299e-09
-1.56022e-09
6.07487e-10
-1.26214e-09
-2.51725e-10
-4.47116e-10
-9.19051e-10
6.6485e-10
-1.3053e-09
1.88447e-09
-1.4453e-09
3.0733e-09
-1.40543e-09
4.16213e-09
-1.27619e-09
5.14357e-09
-1.13646e-09
6.04968e-09
-1.03735e-09
6.93336e-09
-1.0065e-09
7.84943e-09
-1.04798e-09
8.84325e-09
-1.14955e-09
9.94535e-09
-1.29156e-09
1.11725e-08
-1.45709e-09
1.25364e-08
-1.6368e-09
1.40389e-08
-1.82119e-09
1.56885e-08
-2.01274e-09
1.74896e-08
-2.21364e-09
1.94559e-08
-2.42846e-09
2.16016e-08
-2.66399e-09
2.39473e-08
-2.92546e-09
2.65168e-08
-3.21929e-09
2.934e-08
-3.5517e-09
3.24449e-08
-3.92366e-09
3.58702e-08
-4.34283e-09
3.96507e-08
-4.81163e-09
4.3831e-08
-5.33315e-09
4.8457e-08
-5.91565e-09
5.35807e-08
-6.56102e-09
5.9258e-08
-7.27635e-09
6.55498e-08
-8.06003e-09
7.25217e-08
-8.92654e-09
8.02404e-08
-9.8531e-09
8.87763e-08
-1.08688e-08
9.81764e-08
-1.18915e-08
1.08508e-07
-1.29955e-08
1.19737e-07
-1.39501e-08
1.31898e-07
-1.4937e-08
1.44732e-07
-1.5381e-08
1.58158e-07
-1.56794e-08
1.71383e-07
-1.45512e-08
1.83872e-07
-1.26332e-08
1.93729e-07
-7.36166e-09
1.98182e-07
1.36714e-09
1.95463e-07
1.58176e-08
1.67626e-07
4.98367e-08
1.25868e-07
7.96993e-08
3.0951e-07
-6.00895e-08
-4.13914e-10
1.17916e-09
-1.29914e-09
2.01764e-09
-1.81699e-09
1.12466e-09
-1.35918e-09
-7.10042e-10
4.542e-11
-2.32407e-09
2.07815e-09
-3.33845e-09
4.40371e-09
-3.7712e-09
6.75557e-09
-3.75762e-09
8.97697e-09
-3.49795e-09
1.10223e-08
-3.18206e-09
1.29257e-08
-2.9412e-09
1.47654e-08
-2.84655e-09
1.66299e-08
-2.91286e-09
1.85957e-08
-3.11578e-09
2.07173e-08
-3.41329e-09
2.30275e-08
-3.76794e-09
2.55482e-08
-4.15711e-09
2.82887e-08
-4.56285e-09
3.12637e-08
-4.98739e-09
3.44845e-08
-5.43576e-09
3.79727e-08
-5.91692e-09
4.17517e-08
-6.44378e-09
4.58529e-08
-7.02702e-09
5.03122e-08
-7.67946e-09
5.51737e-08
-8.41305e-09
6.04813e-08
-9.23297e-09
6.62923e-08
-1.01538e-08
7.26626e-08
-1.11839e-08
7.96617e-08
-1.23331e-08
8.73644e-08
-1.36198e-08
9.58574e-08
-1.5055e-08
1.05235e-07
-1.66562e-08
1.15608e-07
-1.84331e-08
1.27091e-07
-2.0413e-08
1.39822e-07
-2.25844e-08
1.5393e-07
-2.49804e-08
1.69567e-07
-2.75296e-08
1.86856e-07
-3.02876e-08
2.05923e-07
-3.3019e-08
2.2684e-07
-3.58551e-08
2.49566e-07
-3.81081e-08
2.74028e-07
-4.0142e-08
2.99644e-07
-4.01676e-08
3.25834e-07
-3.88248e-08
3.51217e-07
-3.27464e-08
3.70902e-07
-1.83212e-08
3.88264e-07
-1.54977e-09
3.71499e-07
6.65958e-08
3.44704e-07
1.06493e-07
4.77396e-07
1.76817e-07
-3.10881e-10
1.48962e-09
-1.21035e-09
2.91651e-09
-1.9815e-09
1.8951e-09
-1.78486e-09
-9.07202e-10
-3.4093e-10
-3.76845e-09
2.13712e-09
-5.81694e-09
5.25193e-09
-6.88637e-09
8.612e-09
-7.11804e-09
1.19349e-08
-6.82119e-09
1.50822e-08
-6.32973e-09
1.8039e-08
-5.8984e-09
2.08706e-08
-5.67858e-09
2.36768e-08
-5.71947e-09
2.65563e-08
-5.99578e-09
2.95881e-08
-6.44518e-09
3.28263e-08
-7.00678e-09
3.63099e-08
-7.64031e-09
4.00623e-08
-8.31643e-09
4.41097e-08
-9.03444e-09
4.84738e-08
-9.80119e-09
5.31857e-08
-1.06291e-08
5.82779e-08
-1.15368e-08
6.37904e-08
-1.25398e-08
6.97672e-08
-1.36572e-08
7.62609e-08
-1.49066e-08
8.33247e-08
-1.62985e-08
9.10262e-08
-1.78552e-08
9.94336e-08
-1.95935e-08
1.08632e-07
-2.1532e-08
1.18713e-07
-2.37029e-08
1.29788e-07
-2.61303e-08
1.41975e-07
-2.8846e-08
1.5542e-07
-3.18785e-08
1.70273e-07
-3.52687e-08
1.86721e-07
-3.90331e-08
2.04935e-07
-4.31987e-08
2.25148e-07
-4.77437e-08
2.47525e-07
-5.26674e-08
2.72315e-07
-5.78105e-08
2.99628e-07
-6.31694e-08
3.29607e-07
-6.80876e-08
3.62185e-07
-7.27212e-08
3.97148e-07
-7.51307e-08
4.3352e-07
-7.5199e-08
4.71171e-07
-7.03989e-08
5.03221e-07
-5.03752e-08
5.36432e-07
-3.4766e-08
5.36365e-07
6.66579e-08
5.16037e-07
1.26819e-07
5.95699e-07
3.97733e-07
-2.29796e-10
1.71896e-09
-1.05355e-09
3.73963e-09
-2.0498e-09
2.89063e-09
-2.3866e-09
-5.70941e-10
-1.48575e-09
-4.66975e-09
7.28787e-10
-8.03193e-09
3.98345e-09
-1.01414e-08
7.86351e-09
-1.09984e-08
1.19821e-08
-1.09402e-08
1.60764e-08
-1.04243e-08
2.00255e-08
-9.84804e-09
2.38244e-08
-9.47783e-09
2.75372e-08
-9.43272e-09
3.12553e-08
-9.71433e-09
3.50675e-08
-1.02575e-08
3.90464e-08
-1.09863e-08
4.32516e-08
-1.18451e-08
4.77267e-08
-1.27929e-08
5.25169e-08
-1.38243e-08
5.76605e-08
-1.49462e-08
6.32037e-08
-1.61726e-08
6.91919e-08
-1.75258e-08
7.56754e-08
-1.90238e-08
8.27067e-08
-2.06894e-08
9.03441e-08
-2.25438e-08
9.86457e-08
-2.4602e-08
1.07683e-07
-2.68924e-08
1.17529e-07
-2.94414e-08
1.28273e-07
-3.22774e-08
1.40017e-07
-3.54478e-08
1.52879e-07
-3.89935e-08
1.66993e-07
-4.29624e-08
1.82522e-07
-4.74078e-08
1.99633e-07
-5.23831e-08
2.18545e-07
-5.79463e-08
2.39451e-07
-6.4108e-08
2.6263e-07
-7.09243e-08
2.88271e-07
-7.83106e-08
3.16696e-07
-8.62373e-08
3.48033e-07
-9.45075e-08
3.82549e-07
-1.02605e-07
4.20146e-07
-1.10319e-07
4.60893e-07
-1.15879e-07
5.03439e-07
-1.17746e-07
5.48752e-07
-1.15714e-07
5.88841e-07
-9.0467e-08
6.30126e-07
-7.60565e-08
6.45441e-07
5.13372e-08
6.25143e-07
1.47116e-07
6.73251e-07
5.4759e-07
-1.96512e-10
1.91501e-09
-9.17571e-10
4.46004e-09
-2.0229e-09
3.99522e-09
-2.88769e-09
2.93297e-10
-2.81517e-09
-4.74275e-09
-1.43409e-09
-9.41347e-09
1.24705e-09
-1.28229e-08
4.95093e-09
-1.47027e-08
9.29631e-09
-1.5286e-08
1.3938e-08
-1.50663e-08
1.86374e-08
-1.4548e-08
2.32754e-08
-1.41162e-08
2.7828e-08
-1.39858e-08
3.23315e-08
-1.42183e-08
3.685e-08
-1.4776e-08
4.14531e-08
-1.55902e-08
4.62117e-08
-1.66032e-08
5.11877e-08
-1.77702e-08
5.64475e-08
-1.90837e-08
6.20514e-08
-2.05515e-08
6.8067e-08
-2.21885e-08
7.45596e-08
-2.40192e-08
8.15967e-08
-2.60613e-08
8.92443e-08
-2.83378e-08
9.75697e-08
-3.08691e-08
1.06637e-07
-3.36709e-08
1.16519e-07
-3.67743e-08
1.27288e-07
-4.02129e-08
1.39034e-07
-4.40246e-08
1.51856e-07
-4.82711e-08
1.65874e-07
-5.30125e-08
1.81223e-07
-5.83133e-08
1.98071e-07
-6.42568e-08
2.16591e-07
-7.09061e-08
2.37015e-07
-7.83712e-08
2.59541e-07
-8.66376e-08
2.84472e-07
-9.58574e-08
3.12004e-07
-1.05845e-07
3.42495e-07
-1.16729e-07
3.7607e-07
-1.28085e-07
4.13071e-07
-1.39606e-07
4.53339e-07
-1.50588e-07
4.97141e-07
-1.59681e-07
5.42982e-07
-1.63589e-07
5.91837e-07
-1.6457e-07
6.36833e-07
-1.35466e-07
6.80245e-07
-1.19475e-07
7.06384e-07
2.51929e-08
6.87184e-07
1.66315e-07
7.258e-07
6.34636e-07
-2.00296e-10
2.11481e-09
-8.50182e-10
5.10926e-09
-1.96432e-09
5.1086e-09
-3.17619e-09
1.5046e-09
-3.86457e-09
-4.05484e-09
-3.50514e-09
-9.77338e-09
-1.84872e-09
-1.44797e-08
1.06071e-09
-1.76125e-08
4.97665e-09
-1.92023e-08
9.57807e-09
-1.9668e-08
1.45681e-08
-1.95385e-08
1.97263e-08
-1.92749e-08
2.49198e-08
-1.91798e-08
3.0092e-08
-1.93909e-08
3.52409e-08
-1.9925e-08
4.03983e-08
-2.07483e-08
4.56198e-08
-2.18242e-08
5.09688e-08
-2.31206e-08
5.65235e-08
-2.4638e-08
6.23628e-08
-2.63922e-08
6.85765e-08
-2.84026e-08
7.52543e-08
-3.06978e-08
8.24881e-08
-3.32955e-08
9.03655e-08
-3.62162e-08
9.8972e-08
-3.94755e-08
1.08383e-07
-4.30841e-08
1.18679e-07
-4.707e-08
1.29932e-07
-5.14683e-08
1.42229e-07
-5.63226e-08
1.55663e-07
-6.17059e-08
1.70346e-07
-6.76971e-08
1.86407e-07
-7.43762e-08
2.0401e-07
-8.18603e-08
2.2332e-07
-9.02195e-08
2.4457e-07
-9.96223e-08
2.67954e-07
-1.10025e-07
2.93778e-07
-1.21683e-07
3.22236e-07
-1.34306e-07
3.53689e-07
-1.48184e-07
3.88264e-07
-1.62661e-07
4.2631e-07
-1.77653e-07
4.67661e-07
-1.91941e-07
5.12592e-07
-2.04612e-07
5.59744e-07
-2.10744e-07
6.09392e-07
-2.14219e-07
6.57046e-07
-1.83123e-07
6.99704e-07
-1.62138e-07
7.31602e-07
-6.71096e-09
7.16837e-07
1.81081e-07
7.60932e-07
6.81705e-07
-2.2006e-10
2.33437e-09
-8.47529e-10
5.73605e-09
-1.93529e-09
6.19559e-09
-3.30617e-09
2.87488e-09
-4.49872e-09
-2.86277e-09
-4.99792e-09
-9.27467e-09
-4.41587e-09
-1.50622e-08
-2.58829e-09
-1.94404e-08
4.29395e-10
-2.22205e-08
4.43521e-09
-2.36741e-08
9.16669e-09
-2.42705e-08
1.43687e-08
-2.44772e-08
1.98315e-08
-2.46431e-08
2.54074e-08
-2.49672e-08
3.10096e-08
-2.55273e-08
3.66029e-08
-2.63423e-08
4.21973e-08
-2.74181e-08
4.78308e-08
-2.87555e-08
5.3572e-08
-3.03789e-08
5.95024e-08
-3.23239e-08
6.57238e-08
-3.46243e-08
7.23455e-08
-3.73203e-08
7.94843e-08
-4.04347e-08
8.72555e-08
-4.39884e-08
9.57711e-08
-4.79909e-08
1.0513e-07
-5.24446e-08
1.15426e-07
-5.73668e-08
1.26743e-07
-6.27867e-08
1.39165e-07
-6.87462e-08
1.5278e-07
-7.53225e-08
1.67692e-07
-8.26101e-08
1.84015e-07
-9.07007e-08
2.019e-07
-9.97456e-08
2.21497e-07
-1.0982e-07
2.43027e-07
-1.21153e-07
2.66673e-07
-1.33675e-07
2.92722e-07
-1.47734e-07
3.2137e-07
-1.62956e-07
3.52943e-07
-1.79759e-07
3.87588e-07
-1.97308e-07
4.25593e-07
-2.15658e-07
4.66864e-07
-2.33213e-07
5.11495e-07
-2.49244e-07
5.58516e-07
-2.57767e-07
6.07394e-07
-2.63098e-07
6.55418e-07
-2.3115e-07
6.96347e-07
-2.03072e-07
7.3034e-07
-4.07083e-08
7.22097e-07
1.89324e-07
7.80736e-07
7.02294e-07
-2.39536e-10
2.57339e-09
-8.83055e-10
6.37888e-09
-1.96041e-09
7.27216e-09
-3.3796e-09
4.29348e-09
-4.82261e-09
-1.42025e-09
-5.8663e-09
-8.23148e-09
-6.11135e-09
-1.48175e-08
-5.28529e-09
-2.02669e-08
-3.28821e-09
-2.4218e-08
-1.77746e-10
-2.67849e-08
3.88082e-09
-2.83296e-08
8.67029e-09
-2.92671e-08
1.39665e-08
-2.99398e-08
1.95713e-08
-3.05725e-08
2.53301e-08
-3.12862e-08
3.11384e-08
-3.21513e-08
3.69453e-08
-3.32246e-08
4.27422e-08
-3.45537e-08
4.85651e-08
-3.62014e-08
5.44761e-08
-3.82362e-08
6.05695e-08
-4.07182e-08
6.69589e-08
-4.37105e-08
7.37758e-08
-4.7252e-08
8.11592e-08
-5.13727e-08
8.92503e-08
-5.60819e-08
9.81782e-08
-6.13743e-08
1.08065e-07
-6.72534e-08
1.19011e-07
-7.37347e-08
1.31113e-07
-8.08495e-08
1.44458e-07
-8.86687e-08
1.59141e-07
-9.72949e-08
1.75263e-07
-1.06825e-07
1.92956e-07
-1.17439e-07
2.1235e-07
-1.29218e-07
2.33641e-07
-1.42445e-07
2.56994e-07
-1.57031e-07
2.82662e-07
-1.73404e-07
3.10836e-07
-1.91132e-07
3.41785e-07
-2.1071e-07
3.75685e-07
-2.31208e-07
4.12715e-07
-2.5269e-07
4.52887e-07
-2.73386e-07
4.96067e-07
-2.92424e-07
5.41676e-07
-3.03377e-07
5.8848e-07
-3.09903e-07
6.3515e-07
-2.77823e-07
6.73657e-07
-2.41583e-07
7.07641e-07
-7.46969e-08
7.06668e-07
1.90298e-07
7.85773e-07
7.01634e-07
-2.5368e-10
2.82655e-09
-9.29406e-10
7.05389e-09
-2.02608e-09
8.36804e-09
-3.46476e-09
5.73155e-09
-5.00313e-09
1.17615e-10
-6.31319e-09
-6.92192e-09
-7.05069e-09
-1.40804e-08
-6.92932e-09
-2.03886e-08
-5.77601e-09
-2.53717e-08
-3.54369e-09
-2.90176e-08
-2.95631e-10
-3.15782e-08
3.82521e-09
-3.33884e-08
8.63117e-09
-3.47463e-08
1.39236e-08
-3.58653e-08
1.95191e-08
-3.68817e-08
2.5267e-08
-3.78999e-08
3.10644e-08
-3.90215e-08
3.68522e-08
-4.03428e-08
4.26224e-08
-4.19714e-08
4.84015e-08
-4.40167e-08
5.42576e-08
-4.65747e-08
6.02883e-08
-4.97419e-08
6.66217e-08
-5.35858e-08
7.34064e-08
-5.81584e-08
8.0805e-08
-6.34803e-08
8.8976e-08
-6.95472e-08
9.80735e-08
-7.6351e-08
1.08227e-07
-8.38905e-08
1.19556e-07
-9.21789e-08
1.32155e-07
-1.0127e-07
1.46122e-07
-1.11263e-07
1.61546e-07
-1.2225e-07
1.78539e-07
-1.34433e-07
1.9721e-07
-1.47892e-07
2.17719e-07
-1.62955e-07
2.40211e-07
-1.79526e-07
2.64888e-07
-1.98083e-07
2.91935e-07
-2.18181e-07
3.21543e-07
-2.4032e-07
3.53908e-07
-2.63575e-07
3.89098e-07
-2.8788e-07
4.27197e-07
-3.11486e-07
4.67899e-07
-3.33126e-07
5.10876e-07
-3.46355e-07
5.54503e-07
-3.53531e-07
5.98286e-07
-3.21608e-07
6.33844e-07
-2.77146e-07
6.66408e-07
-1.07265e-07
6.72658e-07
1.8405e-07
7.76564e-07
6.8187e-07
-2.64085e-10
3.09009e-09
-9.74359e-10
7.76344e-09
-2.1094e-09
9.50227e-09
-3.57656e-09
7.19809e-09
-5.15293e-09
1.69348e-09
-6.56466e-09
-5.51071e-09
-7.52829e-09
-1.31172e-08
-7.79392e-09
-2.01234e-08
-7.18085e-09
-2.59852e-08
-5.59729e-09
-3.06015e-08
-3.04261e-09
-3.41334e-08
4.06852e-10
-3.68383e-08
4.61643e-09
-3.89563e-08
9.41806e-09
-4.06674e-08
1.46347e-08
-4.20984e-08
2.01008e-08
-4.33668e-08
2.56839e-08
-4.46041e-08
3.1288e-08
-4.59482e-08
3.68652e-08
-4.75483e-08
4.24033e-08
-4.95561e-08
4.79342e-08
-5.21059e-08
5.35251e-08
-5.53336e-08
5.9283e-08
-5.93441e-08
6.53474e-08
-6.42237e-08
7.18863e-08
-7.00191e-08
7.9077e-08
-7.67398e-08
8.71017e-08
-8.43758e-08
9.61214e-08
-9.29122e-08
1.06283e-07
-1.02342e-07
1.17705e-07
-1.12693e-07
1.30492e-07
-1.24051e-07
1.4473e-07
-1.36491e-07
1.60519e-07
-1.50222e-07
1.77945e-07
-1.65322e-07
1.97132e-07
-1.82143e-07
2.182e-07
-2.00598e-07
2.41294e-07
-2.21178e-07
2.66581e-07
-2.4347e-07
2.94173e-07
-2.67913e-07
3.24262e-07
-2.93666e-07
3.56822e-07
-3.2044e-07
3.91954e-07
-3.46619e-07
4.29257e-07
-3.70429e-07
4.68529e-07
-3.85628e-07
5.07995e-07
-3.92999e-07
5.47685e-07
-3.613e-07
5.7961e-07
-3.09075e-07
6.09893e-07
-1.37552e-07
6.22787e-07
1.71158e-07
7.53986e-07
6.45369e-07
-2.73396e-10
3.36294e-09
-1.01644e-09
8.50575e-09
-2.19686e-09
1.06819e-08
-3.70611e-09
8.7067e-09
-5.31389e-09
3.30075e-09
-6.76343e-09
-4.06169e-09
-7.8072e-09
-1.20738e-08
-8.23239e-09
-1.96986e-08
-7.88303e-09
-2.6335e-08
-6.66862e-09
-3.18162e-08
-4.56611e-09
-3.62364e-08
-1.61573e-09
-3.97891e-08
2.08828e-09
-4.26608e-08
6.41235e-09
-4.4992e-08
1.12014e-08
-4.68875e-08
1.62964e-08
-4.84626e-08
2.15575e-08
-4.98648e-08
2.68704e-08
-5.12623e-08
3.21614e-08
-5.2839e-08
3.73875e-08
-5.47835e-08
4.25466e-08
-5.72655e-08
4.76713e-08
-6.04591e-08
5.2837e-08
-6.45102e-08
5.81595e-08
-6.95471e-08
6.3795e-08
-7.56545e-08
6.99235e-08
-8.28701e-08
7.67429e-08
-9.11954e-08
8.44396e-08
-1.00611e-07
9.31888e-08
-1.11092e-07
1.03133e-07
-1.22639e-07
1.14394e-07
-1.35313e-07
1.27067e-07
-1.49165e-07
1.41239e-07
-1.64395e-07
1.56985e-07
-1.81071e-07
1.74393e-07
-1.99553e-07
1.93559e-07
-2.19767e-07
2.14569e-07
-2.42189e-07
2.37563e-07
-2.66467e-07
2.62579e-07
-2.92931e-07
2.89783e-07
-3.20871e-07
3.19078e-07
-3.49736e-07
3.50532e-07
-3.78074e-07
3.83714e-07
-4.03611e-07
4.18464e-07
-4.20378e-07
4.53004e-07
-4.2754e-07
4.87773e-07
-3.96071e-07
5.15548e-07
-3.36853e-07
5.43046e-07
-1.65053e-07
5.61664e-07
1.52542e-07
7.19335e-07
5.9632e-07
-2.82994e-10
3.64538e-09
-1.05784e-09
9.27985e-09
-2.28476e-09
1.1908e-08
-3.84352e-09
1.02648e-08
-5.49001e-09
4.94673e-09
-6.96474e-09
-2.58748e-09
-8.03226e-09
-1.10067e-08
-8.50161e-09
-1.92297e-08
-8.2406e-09
-2.65965e-08
-7.17642e-09
-3.28807e-08
-5.29117e-09
-3.81222e-08
-2.61698e-09
-4.24637e-08
7.69617e-10
-4.60479e-08
4.75636e-09
-4.89792e-08
9.20723e-09
-5.13384e-08
1.39763e-08
-5.32323e-08
1.89279e-08
-5.48159e-08
2.39432e-08
-5.62789e-08
2.8937e-08
-5.78325e-08
3.38478e-08
-5.96955e-08
3.86489e-08
-6.2067e-08
4.33434e-08
-6.51542e-08
4.79741e-08
-6.91413e-08
5.26266e-08
-7.42005e-08
5.7434e-08
-8.04618e-08
6.25643e-08
-8.80022e-08
6.82165e-08
-9.68478e-08
7.45897e-08
-1.06986e-07
8.18793e-08
-1.18383e-07
9.02506e-08
-1.31012e-07
9.98433e-08
-1.44907e-07
1.10763e-07
-1.60087e-07
1.23097e-07
-1.7673e-07
1.36912e-07
-1.94889e-07
1.52267e-07
-2.14908e-07
1.69233e-07
-2.36738e-07
1.87847e-07
-2.60805e-07
2.08216e-07
-2.86838e-07
2.30314e-07
-3.15031e-07
2.54261e-07
-3.44819e-07
2.79915e-07
-3.7539e-07
3.0728e-07
-4.0544e-07
3.35936e-07
-4.32266e-07
3.65716e-07
-4.5016e-07
3.9494e-07
-4.56764e-07
4.24432e-07
-4.25565e-07
4.47829e-07
-3.60253e-07
4.72442e-07
-1.89667e-07
4.95793e-07
1.29193e-07
6.74223e-07
5.40911e-07
-2.93148e-10
3.93796e-09
-1.10026e-09
1.00862e-08
-2.3739e-09
1.31807e-08
-3.98474e-09
1.1875e-08
-5.67589e-09
6.63735e-09
-7.17886e-09
-1.08504e-09
-8.25783e-09
-9.92818e-09
-8.72883e-09
-1.8759e-08
-8.47306e-09
-2.68527e-08
-7.4333e-09
-3.39208e-08
-5.60457e-09
-3.99514e-08
-3.02543e-09
-4.50433e-08
2.28013e-10
-4.93018e-08
4.04971e-09
-5.28013e-08
8.31241e-09
-5.56012e-08
1.28784e-08
-5.7799e-08
1.76168e-08
-5.95539e-08
2.24109e-08
-6.10742e-08
2.71723e-08
-6.25936e-08
3.18307e-08
-6.43551e-08
3.63461e-08
-6.65829e-08
4.07002e-08
-6.95091e-08
4.49091e-08
-7.33506e-08
4.90311e-08
-7.83234e-08
5.31724e-08
-8.4603e-08
5.74807e-08
-9.23122e-08
6.21447e-08
-1.01512e-07
6.73633e-08
-1.12207e-07
7.33405e-08
-1.24361e-07
8.02563e-08
-1.37929e-07
8.8264e-08
-1.52916e-07
9.74814e-08
-1.69306e-07
1.07996e-07
-1.87245e-07
1.19871e-07
-2.06768e-07
1.33144e-07
-2.28182e-07
1.47869e-07
-2.51465e-07
1.64037e-07
-2.76974e-07
1.81722e-07
-3.04524e-07
2.00851e-07
-3.34162e-07
2.21487e-07
-3.65456e-07
2.4346e-07
-3.97364e-07
2.66704e-07
-4.28683e-07
2.9083e-07
-4.56392e-07
3.15649e-07
-4.74979e-07
3.39649e-07
-4.80764e-07
3.6396e-07
-4.49877e-07
3.83248e-07
-3.79543e-07
4.05374e-07
-2.11794e-07
4.32505e-07
1.02065e-07
6.2042e-07
4.86315e-07
-3.03746e-10
4.24112e-09
-1.14487e-09
1.09266e-08
-2.46556e-09
1.45006e-08
-4.12952e-09
1.35383e-08
-5.86811e-09
8.37541e-09
-7.40307e-09
4.49396e-10
-8.49435e-09
-8.83733e-09
-8.95751e-09
-1.82963e-08
-8.67819e-09
-2.71324e-08
-7.60793e-09
-3.49915e-08
-5.75191e-09
-4.1808e-08
-3.1579e-09
-4.76377e-08
9.16042e-11
-5.25517e-08
3.88718e-09
-5.65973e-08
8.10097e-09
-5.98151e-08
1.25963e-08
-6.22949e-08
1.72441e-08
-6.42013e-08
2.19284e-08
-6.57597e-08
2.65598e-08
-6.72247e-08
3.10664e-08
-6.88628e-08
3.53984e-08
-7.09154e-08
3.95274e-08
-7.36387e-08
4.34549e-08
-7.72785e-08
4.72151e-08
-8.20844e-08
5.08902e-08
-8.8278e-08
5.46082e-08
-9.60319e-08
5.85412e-08
-1.05445e-07
6.2878e-08
-1.16545e-07
6.78222e-08
-1.29306e-07
7.35595e-08
-1.43668e-07
8.02496e-08
-1.59607e-07
8.80177e-08
-1.77076e-07
9.69515e-08
-1.96179e-07
1.07113e-07
-2.16932e-07
1.18523e-07
-2.39594e-07
1.31218e-07
-2.64163e-07
1.4516e-07
-2.90919e-07
1.60389e-07
-3.19755e-07
1.76798e-07
-3.50572e-07
1.94396e-07
-3.83055e-07
2.12999e-07
-4.15967e-07
2.32475e-07
-4.48159e-07
2.52481e-07
-4.76397e-07
2.72788e-07
-4.95285e-07
2.92164e-07
-5.0014e-07
3.11838e-07
-4.69551e-07
3.2805e-07
-3.95757e-07
3.48045e-07
-2.31789e-07
3.78259e-07
7.1855e-08
5.59263e-07
4.39424e-07
-3.14692e-10
4.55523e-09
-1.19116e-09
1.18022e-08
-2.56034e-09
1.58689e-08
-4.27851e-09
1.52558e-08
-6.06597e-09
1.01623e-08
-7.63473e-09
2.01762e-09
-8.74016e-09
-7.73233e-09
-9.19519e-09
-1.78417e-08
-8.88563e-09
-2.74424e-08
-7.76665e-09
-3.61108e-08
-5.84926e-09
-4.37258e-08
-3.18801e-09
-5.02994e-08
1.27789e-10
-5.5868e-08
3.98242e-09
-6.04524e-08
8.24287e-09
-6.40756e-08
1.27688e-08
-6.68214e-08
1.74285e-08
-6.88606e-08
2.21048e-08
-7.0437e-08
2.67074e-08
-7.18271e-08
3.11619e-08
-7.33183e-08
3.54182e-08
-7.51721e-08
3.94397e-08
-7.76608e-08
4.32164e-08
-8.10555e-08
4.67698e-08
-8.56388e-08
5.01689e-08
-9.1677e-08
5.35203e-08
-9.9385e-08
5.69804e-08
-1.08906e-07
6.07334e-08
-1.203e-07
6.49725e-08
-1.33546e-07
6.98805e-08
-1.48577e-07
7.56167e-08
-1.65344e-07
8.23079e-08
-1.83769e-07
9.00397e-08
-2.03912e-07
9.88705e-08
-2.25766e-07
1.0881e-07
-2.49534e-07
1.19879e-07
-2.75235e-07
1.32021e-07
-3.03062e-07
1.45242e-07
-3.32978e-07
1.5942e-07
-3.6475e-07
1.74512e-07
-3.98148e-07
1.90333e-07
-4.31788e-07
2.06701e-07
-4.64527e-07
2.23315e-07
-4.93011e-07
2.39948e-07
-5.11918e-07
2.55715e-07
-5.15907e-07
2.71634e-07
-4.8547e-07
2.8593e-07
-4.10054e-07
3.04674e-07
-2.50532e-07
3.37846e-07
3.86862e-08
4.91777e-07
4.0534e-07
-3.25966e-10
4.8806e-09
-1.23888e-09
1.27144e-08
-2.65836e-09
1.72875e-08
-4.43212e-09
1.70289e-08
-6.26973e-09
1.19994e-08
-7.87313e-09
3.62048e-09
-8.99335e-09
-6.61254e-09
-9.4406e-09
-1.73948e-08
-9.09963e-09
-2.77838e-08
-7.92701e-09
-3.72838e-08
-5.93687e-09
-4.57164e-08
-3.18798e-09
-5.30487e-08
2.25197e-10
-5.92816e-08
4.18097e-09
-6.44086e-08
8.54026e-09
-6.84349e-08
1.31572e-08
-7.14389e-08
1.78958e-08
-7.35988e-08
2.26355e-08
-7.51777e-08
2.72837e-08
-7.64752e-08
3.17647e-08
-7.78003e-08
3.60257e-08
-7.94335e-08
4.00281e-08
-8.16638e-08
4.37571e-08
-8.47848e-08
4.72283e-08
-8.91108e-08
5.04986e-08
-9.49472e-08
5.36691e-08
-1.02557e-07
5.68849e-08
-1.12122e-07
6.03136e-08
-1.2373e-07
6.41435e-08
-1.37377e-07
6.8553e-08
-1.52988e-07
7.36966e-08
-1.70489e-07
7.96992e-08
-1.89774e-07
8.66405e-08
-2.10854e-07
9.45746e-08
-2.33702e-07
1.03503e-07
-2.58463e-07
1.13432e-07
-2.85167e-07
1.24293e-07
-3.13925e-07
1.36066e-07
-3.44752e-07
1.48618e-07
-3.77304e-07
1.61873e-07
-4.11403e-07
1.75645e-07
-4.4556e-07
1.89724e-07
-4.78607e-07
2.03869e-07
-5.07154e-07
2.17869e-07
-5.25918e-07
2.3112e-07
-5.29157e-07
2.44544e-07
-4.98894e-07
2.58095e-07
-4.23604e-07
2.77108e-07
-2.69543e-07
3.13211e-07
2.58738e-09
4.18744e-07
3.86253e-07
-3.37583e-10
5.21758e-09
-1.288e-09
1.3664e-08
-2.75962e-09
1.87582e-08
-4.59048e-09
1.88591e-08
-6.4797e-09
1.38881e-08
-8.11842e-09
5.25866e-09
-9.25343e-09
-5.47796e-09
-9.69254e-09
-1.69561e-08
-9.31922e-09
-2.81576e-08
-8.09092e-09
-3.85124e-08
-6.0239e-09
-4.77839e-08
-3.17979e-09
-5.58932e-08
3.43028e-10
-6.28048e-08
4.41786e-09
-6.84838e-08
8.89994e-09
-7.2917e-08
1.36379e-08
-7.61775e-08
1.84909e-08
-7.84513e-08
2.33345e-08
-8.00223e-08
2.80734e-08
-8.12138e-08
3.26298e-08
-8.23577e-08
3.69489e-08
-8.3753e-08
4.09909e-08
-8.57064e-08
4.47392e-08
-8.85335e-08
4.82071e-08
-9.25795e-08
5.1449e-08
-9.81889e-08
5.45597e-08
-1.05669e-07
5.76802e-08
-1.15242e-07
6.09744e-08
-1.27026e-07
6.46226e-08
-1.41026e-07
6.87975e-08
-1.57164e-07
7.36481e-08
-1.7534e-07
7.92941e-08
-1.95422e-07
8.58104e-08
-2.17371e-07
9.32443e-08
-2.41139e-07
1.01589e-07
-2.66809e-07
1.10841e-07
-2.94421e-07
1.20925e-07
-3.2401e-07
1.31796e-07
-3.55625e-07
1.43331e-07
-3.88839e-07
1.5541e-07
-4.23483e-07
1.67884e-07
-4.58033e-07
1.80529e-07
-4.9125e-07
1.93116e-07
-5.19739e-07
2.05506e-07
-5.38307e-07
2.17357e-07
-5.41007e-07
2.29711e-07
-5.11246e-07
2.43668e-07
-4.37562e-07
2.64066e-07
-2.89939e-07
3.03873e-07
-3.72145e-08
3.4058e-07
3.82047e-07
-3.49562e-10
5.56653e-09
-1.33851e-09
1.46521e-08
-2.86413e-09
2.0283e-08
-4.75366e-09
2.0748e-08
-6.69603e-09
1.58299e-08
-8.37088e-09
6.93297e-09
-9.52057e-09
-4.3287e-09
-9.9508e-09
-1.65263e-08
-9.54378e-09
-2.8565e-08
-8.25777e-09
-3.97987e-08
-6.11101e-09
-4.99311e-08
-3.1677e-09
-5.88369e-08
4.70416e-10
-6.64433e-08
4.6721e-09
-7.26858e-08
9.28735e-09
-7.75323e-08
1.41597e-08
-8.10502e-08
1.91434e-08
-8.34346e-08
2.41107e-08
-8.49904e-08
2.8963e-08
-8.60659e-08
3.36204e-08
-8.7016e-08
3.80264e-08
-8.81594e-08
4.21402e-08
-8.98206e-08
4.59449e-08
-9.23385e-08
4.94541e-08
-9.60894e-08
5.27228e-08
-1.01458e-07
5.58465e-08
-1.08794e-07
5.89649e-08
-1.18361e-07
6.22411e-08
-1.30303e-07
6.58525e-08
-1.44639e-07
6.99684e-08
-1.61281e-07
7.47331e-08
-1.80106e-07
8.02614e-08
-2.00952e-07
8.66225e-08
-2.23732e-07
9.38574e-08
-2.48376e-07
1.01955e-07
-2.74907e-07
1.109e-07
-3.03369e-07
1.20617e-07
-3.33728e-07
1.31045e-07
-3.66055e-07
1.42063e-07
-3.99857e-07
1.53546e-07
-4.34966e-07
1.65343e-07
-4.69829e-07
1.77243e-07
-5.0315e-07
1.89099e-07
-5.31594e-07
2.00824e-07
-5.50031e-07
2.12305e-07
-5.52486e-07
2.24767e-07
-5.23706e-07
2.39941e-07
-4.52734e-07
2.63079e-07
-3.13074e-07
3.06988e-07
-8.1118e-08
2.57708e-07
3.8987e-07
-3.61924e-10
5.92784e-09
-1.39042e-09
1.56798e-08
-2.9719e-09
2.18636e-08
-4.92171e-09
2.26971e-08
-6.91882e-09
1.78265e-08
-8.63071e-09
8.64432e-09
-9.79506e-09
-3.16477e-09
-1.02156e-08
-1.61061e-08
-9.77341e-09
-2.90076e-08
-8.42741e-09
-4.11451e-08
-6.198e-09
-5.21609e-08
-3.152e-09
-6.18833e-08
6.05473e-10
-7.02011e-08
4.93873e-09
-7.70193e-08
9.6926e-09
-8.22862e-08
1.47056e-08
-8.60636e-08
1.98276e-08
-8.85562e-08
2.49273e-08
-9.00909e-08
2.99034e-08
-9.10417e-08
3.46736e-08
-9.1787e-08
3.91798e-08
-9.26659e-08
4.33802e-08
-9.40215e-08
4.72586e-08
-9.62171e-08
5.08299e-08
-9.96614e-08
5.41522e-08
-1.0478e-07
5.73242e-08
-1.11968e-07
6.04883e-08
-1.21525e-07
6.38094e-08
-1.33626e-07
6.74654e-08
-1.48295e-07
7.1624e-08
-1.65441e-07
7.64273e-08
-1.8491e-07
8.19857e-08
-2.06512e-07
8.83646e-08
-2.30112e-07
9.5599e-08
-2.55613e-07
1.03675e-07
-2.82984e-07
1.12569e-07
-3.12265e-07
1.22207e-07
-3.43367e-07
1.32518e-07
-3.76367e-07
1.4339e-07
-4.1073e-07
1.54689e-07
-4.46265e-07
1.66294e-07
-4.81433e-07
1.78011e-07
-5.14866e-07
1.89742e-07
-5.43322e-07
2.01503e-07
-5.61791e-07
2.13383e-07
-5.64364e-07
2.26857e-07
-5.37177e-07
2.44076e-07
-4.69951e-07
2.70726e-07
-3.3972e-07
3.19207e-07
-1.29593e-07
1.70192e-07
4.06733e-07
-3.74685e-10
6.3019e-09
-1.44374e-09
1.67481e-08
-3.08297e-09
2.35019e-08
-5.09469e-09
2.47082e-08
-7.14819e-09
1.98795e-08
-8.89808e-09
1.03937e-08
-1.00772e-08
-1.98612e-09
-1.04874e-08
-1.56963e-08
-1.00085e-08
-2.94869e-08
-8.60018e-09
-4.25537e-08
-6.2851e-09
-5.44764e-08
-3.13288e-09
-6.50358e-08
7.47839e-10
-7.40822e-08
5.21674e-09
-8.14885e-08
1.01134e-08
-8.71828e-08
1.52712e-08
-9.12218e-08
2.05359e-08
-9.38204e-08
2.57725e-08
-9.53282e-08
3.0877e-08
-9.6146e-08
3.57651e-08
-9.66759e-08
4.03769e-08
-9.72779e-08
4.46698e-08
-9.83148e-08
4.86283e-08
-1.00176e-07
5.22697e-08
-1.03303e-07
5.56561e-08
-1.08166e-07
5.88909e-08
-1.15204e-07
6.21213e-08
-1.24756e-07
6.55163e-08
-1.37022e-07
6.9256e-08
-1.52036e-07
7.35089e-08
-1.69694e-07
7.84157e-08
-1.89817e-07
8.40842e-08
-2.12182e-07
9.05772e-08
-2.36605e-07
9.79247e-08
-2.62963e-07
1.06112e-07
-2.91172e-07
1.15109e-07
-3.21264e-07
1.24846e-07
-3.53104e-07
1.35243e-07
-3.86766e-07
1.46205e-07
-4.21692e-07
1.57596e-07
-4.57655e-07
1.69319e-07
-4.93154e-07
1.81219e-07
-5.26765e-07
1.93251e-07
-5.55352e-07
2.05543e-07
-5.74082e-07
2.18386e-07
-5.77203e-07
2.33477e-07
-5.52265e-07
2.53268e-07
-4.89739e-07
2.8396e-07
-3.70407e-07
3.37206e-07
-1.82832e-07
7.81529e-08
4.29255e-07
-3.87866e-10
6.68914e-09
-1.49847e-09
1.78578e-08
-3.19732e-09
2.51999e-08
-5.27266e-09
2.67829e-08
-7.3841e-09
2.19904e-08
-9.17316e-09
1.21822e-08
-1.03671e-08
-7.92575e-10
-1.07664e-08
-1.52974e-08
-1.02494e-08
-3.00042e-08
-8.77656e-09
-4.40268e-08
-6.37281e-09
-5.68805e-08
-3.11082e-09
-6.82981e-08
8.97008e-10
-7.80903e-08
5.50557e-09
-8.60973e-08
1.05489e-08
-9.22262e-08
1.58554e-08
-9.65284e-08
2.12659e-08
-9.92305e-08
2.66426e-08
-1.00705e-07
3.18783e-08
-1.01381e-07
3.68868e-08
-1.01685e-07
4.16063e-08
-1.01998e-07
4.59936e-08
-1.02702e-07
5.00339e-08
-1.04216e-07
5.37474e-08
-1.07018e-07
5.72006e-08
-1.11619e-07
6.05026e-08
-1.18507e-07
6.38067e-08
-1.2806e-07
6.72867e-08
-1.40503e-07
7.11264e-08
-1.55876e-07
7.54959e-08
-1.74065e-07
8.05361e-08
-1.94858e-07
8.63527e-08
-2.18e-07
9.30069e-08
-2.43259e-07
1.00525e-07
-2.70483e-07
1.08892e-07
-2.9954e-07
1.18072e-07
-3.30446e-07
1.28004e-07
-3.63036e-07
1.38603e-07
-3.97366e-07
1.49786e-07
-4.32875e-07
1.61428e-07
-4.69297e-07
1.73457e-07
-5.05182e-07
1.85762e-07
-5.39068e-07
1.98359e-07
-5.67945e-07
2.11496e-07
-5.87216e-07
2.2565e-07
-5.91354e-07
2.42723e-07
-5.69334e-07
2.65456e-07
-5.12468e-07
3.00387e-07
-4.05333e-07
3.5838e-07
-2.40818e-07
-1.8157e-08
4.547e-07
-4.01485e-10
7.09e-09
-1.55462e-09
1.90102e-08
-3.31494e-09
2.69594e-08
-5.45567e-09
2.89229e-08
-7.6264e-09
2.41606e-08
-9.45613e-09
1.40114e-08
-1.06652e-08
4.16122e-10
-1.10529e-08
-1.49101e-08
-1.04966e-08
-3.05608e-08
-8.9571e-09
-4.55666e-08
-6.46176e-09
-5.93761e-08
-3.08653e-09
-7.16736e-08
1.05225e-09
-8.22293e-08
5.80443e-09
-9.08496e-08
1.09984e-08
-9.742e-08
1.6457e-08
-1.01987e-07
2.20168e-08
-1.0479e-07
2.75362e-08
-1.06225e-07
3.29054e-08
-1.0675e-07
3.80358e-08
-1.06816e-07
4.2864e-08
-1.06826e-07
4.73461e-08
-1.07185e-07
5.14681e-08
-1.08338e-07
5.52534e-08
-1.10803e-07
5.87731e-08
-1.15139e-07
6.21429e-08
-1.21877e-07
6.55219e-08
-1.31439e-07
6.90903e-08
-1.44073e-07
7.30356e-08
-1.59822e-07
7.75303e-08
-1.7856e-07
8.27158e-08
-2.00044e-07
8.86963e-08
-2.23981e-07
9.55318e-08
-2.50095e-07
1.03245e-07
-2.78198e-07
1.11823e-07
-3.08118e-07
1.21226e-07
-3.39851e-07
1.31397e-07
-3.73208e-07
1.42255e-07
-4.08224e-07
1.53728e-07
-4.44348e-07
1.65706e-07
-4.81274e-07
1.78141e-07
-5.17615e-07
1.90977e-07
-5.51901e-07
2.04291e-07
-5.81256e-07
2.18454e-07
-6.01376e-07
2.34123e-07
-6.07019e-07
2.53387e-07
-5.88594e-07
2.79221e-07
-5.38297e-07
3.18364e-07
-4.4447e-07
3.80937e-07
-3.03383e-07
-1.18374e-07
4.81164e-07
-4.15564e-10
7.50493e-09
-1.61219e-09
2.0206e-08
-3.43583e-09
2.87821e-08
-5.64378e-09
3.11302e-08
-7.87539e-09
2.63918e-08
-9.74717e-09
1.58827e-08
-1.09718e-08
1.64038e-09
-1.13474e-08
-1.45348e-08
-1.07506e-08
-3.11579e-08
-9.14241e-09
-4.71751e-08
-6.55266e-09
-6.19661e-08
-3.06079e-09
-7.51657e-08
1.21266e-09
-8.65029e-08
6.11236e-09
-9.57494e-08
1.14608e-08
-1.02768e-07
1.70752e-08
-1.07602e-07
2.27873e-08
-1.10501e-07
2.84521e-08
-1.1189e-07
3.39568e-08
-1.12255e-07
3.92106e-08
-1.1207e-07
4.41481e-08
-1.11763e-07
4.87249e-08
-1.11762e-07
5.2928e-08
-1.12541e-07
5.67839e-08
-1.1466e-07
6.03689e-08
-1.18723e-07
6.38051e-08
-1.25314e-07
6.72586e-08
-1.34893e-07
7.09153e-08
-1.4773e-07
7.49676e-08
-1.63874e-07