/*--------------------------------*- C++ -*----------------------------------*\
  =========                 |
  \\      /  F ield         | OpenFOAM: The Open Source CFD Toolbox
   \\    /   O peration     | Website:  https://openfoam.org
    \\  /    A nd           | Version:  7
     \\/     M anipulation  |
\*---------------------------------------------------------------------------*/
FoamFile
{
    version     2.0;
    format      ascii;
    class       volScalarField;
    location    "0.36";
    object      p;
}
// * * * * * * * * * * * * * * * * * * * * * * * * * * * * * * * * * * * * * //

dimensions      [0 2 -2 0 0 0 0];

internalField   nonuniform List<scalar> 
70000
(
0.104925
0.0274634
0.0149291
0.0173551
0.0175007
0.0164141
0.01544
0.0146905
0.0140553
0.0134866
0.0129712
0.012501
0.0120683
0.0116664
0.0112897
0.0109336
0.010594
0.0102678
0.0099521
0.00964448
0.00934273
0.00904487
0.00874906
0.00845356
0.00815669
0.00785678
0.00755219
0.00724121
0.00692208
0.00659295
0.00625185
0.00589661
0.00552494
0.00513422
0.0047216
0.00428389
0.00381729
0.00331811
0.00278065
0.00220154
0.00157067
0.000888047
0.000132611
-0.000683238
-0.00160821
-0.00259312
-0.00375766
-0.00494544
-0.00647125
-0.00794305
0.100557
0.0278303
0.0151321
0.0174507
0.0175552
0.0164501
0.0154681
0.0147138
0.0140748
0.0135033
0.0129857
0.0125138
0.0120797
0.0116767
0.0112991
0.0109421
0.0106019
0.0102751
0.00995886
0.00965078
0.00934863
0.00905041
0.00875427
0.00845848
0.00816133
0.00786118
0.00755635
0.00724515
0.00692583
0.0065965
0.00625522
0.0058998
0.00552796
0.00513706
0.00472427
0.00428637
0.00381959
0.00332021
0.00278253
0.00220319
0.00157205
0.000889144
0.000133379
-0.000682921
-0.00160839
-0.00259411
-0.00375908
-0.00495014
-0.00647212
-0.0078976
0.096977
0.0287704
0.0154725
0.0175798
0.0176295
0.0164948
0.0155005
0.01474
0.0140966
0.0135217
0.0130016
0.0125277
0.0120921
0.0116879
0.0113092
0.0109513
0.0106104
0.0102829
0.00996614
0.00965757
0.00935499
0.00905639
0.00875991
0.0084638
0.00816638
0.00786597
0.00756092
0.0072495
0.00692998
0.00660047
0.00625902
0.00590344
0.00553145
0.00514041
0.00472748
0.00428946
0.00382254
0.00332304
0.00278523
0.00220576
0.00157445
0.000891399
0.000135371
-0.000680986
-0.00160679
-0.00259281
-0.00375772
-0.00495195
-0.00644643
-0.00784354
0.093883
0.0298724
0.0159422
0.0177539
0.0177305
0.0165525
0.0155387
0.01477
0.0141213
0.0135423
0.0130191
0.0125429
0.0121055
0.0116999
0.01132
0.0109612
0.0106194
0.0102912
0.00997385
0.00966476
0.00936172
0.00906272
0.00876588
0.00846946
0.00817176
0.0078711
0.00756582
0.00725421
0.00693451
0.00660484
0.00626325
0.00590755
0.00553545
0.00514433
0.00473133
0.00429325
0.0038263
0.00332678
0.00278898
0.00220955
0.00157831
0.000895353
0.000139473
-0.000676816
-0.00160204
-0.00258818
-0.00375092
-0.00494909
-0.00640293
-0.00777679
0.0909239
0.0309692
0.0165084
0.0179747
0.0178652
0.0166305
0.0155879
0.0148072
0.0141514
0.0135671
0.0130398
0.0125607
0.012121
0.0117136
0.0113323
0.0109723
0.0106295
0.0103005
0.00998246
0.00967278
0.00936922
0.00906976
0.00877254
0.00847577
0.00817777
0.00787685
0.00757135
0.00725954
0.00693968
0.00660988
0.00626818
0.0059124
0.00554026
0.00514912
0.00473613
0.00429811
0.00383126
0.00333189
0.0027943
0.00221514
0.00158427
0.00090175
0.000146531
-0.000669148
-0.00159303
-0.00257871
-0.0037364
-0.00493838
-0.00634124
-0.00768871
0.0880151
0.0320085
0.017124
0.0182221
0.0180278
0.0167306
0.0156505
0.0148538
0.014189
0.0135978
0.0130653
0.0125823
0.0121398
0.01173
0.0113469
0.0109854
0.0106414
0.0103114
0.00999252
0.00968211
0.00937793
0.00907794
0.00878026
0.0084831
0.00818476
0.00788356
0.00757782
0.00726582
0.0069458
0.00661589
0.00627412
0.00591832
0.0055462
0.00515513
0.00474227
0.00430445
0.00383786
0.00333885
0.00280173
0.00222316
0.00159307
0.00091146
0.000157596
-0.000656824
-0.001578
-0.00256252
-0.00371162
-0.00491545
-0.00626192
-0.00757652
0.0851507
0.0329714
0.0177552
0.0184744
0.0182049
0.016848
0.0157256
0.0149098
0.0142345
0.0136351
0.0130963
0.0126086
0.0121625
0.0117499
0.0113646
0.0110013
0.0106557
0.0103245
0.0100045
0.0096932
0.00938827
0.00908764
0.00878941
0.00849179
0.00819307
0.00789155
0.00758555
0.00727335
0.00695319
0.00662319
0.0062814
0.00592564
0.00555362
0.00516273
0.00475014
0.00431269
0.00384659
0.00334821
0.00281189
0.00223431
0.00160553
0.000925432
0.000173804
-0.000638468
-0.00155529
-0.00253763
-0.00367409
-0.00487591
-0.00616452
-0.0074393
0.0823366
0.0338499
0.0183861
0.0187198
0.0183857
0.0169762
0.0158098
0.014973
0.0142865
0.0136784
0.0131326
0.0126395
0.0121893
0.0117735
0.0113855
0.0110201
0.0106727
0.01034
0.0100188
0.00970641
0.00940058
0.00909919
0.00880032
0.00850217
0.00820299
0.00790111
0.00759483
0.00728243
0.00696214
0.00663209
0.00629032
0.00593467
0.00556286
0.00517229
0.00476014
0.00432326
0.00385791
0.00336048
0.00282537
0.00224928
0.00162246
0.000944611
0.000196293
-0.000612729
-0.0015232
-0.00250152
-0.00362158
-0.00481586
-0.00604791
-0.00727656
0.0795787
0.0346412
0.0190115
0.0189543
0.0185641
0.0171103
0.0158996
0.0150409
0.0143432
0.0137263
0.0131732
0.0126744
0.0122198
0.0118005
0.0114097
0.0110418
0.0106925
0.0103581
0.0100355
0.00972189
0.00941504
0.00911279
0.00881319
0.00851443
0.00821476
0.00791248
0.0076059
0.00729329
0.00697289
0.00664283
0.00630115
0.0059457
0.00557422
0.00518412
0.00477259
0.00433655
0.00387225
0.00337615
0.00284271
0.00226869
0.00164456
0.000969841
0.000226068
-0.000578386
-0.00148029
-0.00245226
-0.00355217
-0.00473235
-0.00591068
-0.0070883
0.0768816
0.0353451
0.0196302
0.0191775
0.0187372
0.0172477
0.0159929
0.0151115
0.0144026
0.0137772
0.0132168
0.0127123
0.0122532
0.0118303
0.0114365
0.0110661
0.0107148
0.0103786
0.0100544
0.00973956
0.00943161
0.00912843
0.00882805
0.00852864
0.00822844
0.00792575
0.00761886
0.00730606
0.00698558
0.00665556
0.00631404
0.00595891
0.00558788
0.00519843
0.00478775
0.00435281
0.0038899
0.00339555
0.00286432
0.002293
0.00167239
0.00100176
0.000263887
-0.000534488
-0.0014255
-0.00238834
-0.00346446
-0.00462351
-0.00575159
-0.00687508
0.0742486
0.0359619
0.0202414
0.0193903
0.0189034
0.0173869
0.0160889
0.0151837
0.0144636
0.0138299
0.0132624
0.0127522
0.0122886
0.0118621
0.0114653
0.0110925
0.010739
0.010401
0.0100753
0.00975913
0.00945006
0.00914593
0.00884475
0.00854467
0.00824394
0.00794084
0.00763367
0.00732071
0.0070002
0.00667029
0.00632904
0.00597433
0.00560392
0.0052153
0.00480571
0.00437216
0.00391101
0.00341886
0.00289038
0.00232244
0.00170622
0.00104072
0.000310161
-0.000480481
-0.00135829
-0.0023088
-0.00335792
-0.00448891
-0.00557008
-0.00663802
0.0716825
0.0364921
0.0208439
0.0195937
0.0190619
0.0175269
0.0161871
0.0152569
0.0145256
0.0138838
0.0133092
0.0127934
0.0123254
0.0118954
0.0114956
0.0111203
0.0107647
0.0104249
0.0100977
0.00978022
0.00947004
0.00916497
0.008863
0.00856228
0.00826104
0.00795757
0.00765016
0.00733709
0.00701662
0.00668691
0.00634602
0.00599187
0.00562224
0.00523466
0.0048264
0.00439455
0.00393552
0.00344603
0.00292088
0.00235699
0.00174606
0.00108673
0.000364888
-0.000416301
-0.00127872
-0.00221354
-0.00323295
-0.00432963
-0.00536651
-0.00637892
0.0691861
0.0369361
0.0214355
0.019789
0.0192121
0.0176671
0.0162873
0.0153312
0.0145882
0.0139385
0.013357
0.0128355
0.0123631
0.0119296
0.0115269
0.0111491
0.0107915
0.0104499
0.0101212
0.00980248
0.00949122
0.00918523
0.00888251
0.00858119
0.00827948
0.00797568
0.00766808
0.00735498
0.00703463
0.0067052
0.00636479
0.00601134
0.00564265
0.00525632
0.00484963
0.00441978
0.00396324
0.00347684
0.00295558
0.00239642
0.00179162
0.00113949
0.00042768
-0.000342349
-0.0011874
-0.00210325
-0.00309077
-0.00414805
-0.0051423
-0.00610017
0.0667618
0.0372948
0.0220138
0.0199774
0.0193533
0.0178064
0.0163895
0.0154063
0.0146514
0.0139939
0.0134056
0.0128785
0.0124016
0.0119645
0.011559
0.0111788
0.0108191
0.0104758
0.0101456
0.00982563
0.00951332
0.00920646
0.00890302
0.00860113
0.008299
0.00799492
0.0076872
0.00737413
0.00705397
0.00672493
0.00638512
0.0060325
0.00566492
0.00528002
0.00487515
0.00444758
0.00399388
0.00351099
0.00299413
0.00244031
0.00184242
0.00119846
0.000497867
-0.000259381
-0.00108538
-0.00197929
-0.00293323
-0.00394738
-0.00489974
-0.00580454
0.0644119
0.0375694
0.0225759
0.0201606
0.0194853
0.0179442
0.0164935
0.0154824
0.014715
0.01405
0.0134549
0.0129221
0.0124408
0.0120002
0.0115917
0.0112091
0.0108474
0.0105024
0.0101707
0.0098495
0.00953616
0.00922845
0.00892433
0.00862191
0.00831941
0.00801511
0.00770731
0.00739434
0.00707446
0.0067459
0.00640678
0.00605513
0.0056888
0.00530552
0.00490268
0.00447765
0.00402711
0.0035481
0.00303612
0.00248821
0.00189794
0.00126301
0.000574653
-0.00016834
-0.000973937
-0.00184334
-0.00276249
-0.00373124
-0.00464162
-0.00549483
0.0621386
0.0377617
0.0231186
0.0203399
0.0196078
0.0180793
0.0165991
0.0155595
0.014779
0.0141066
0.0135049
0.0129664
0.0124806
0.0120364
0.0116251
0.0112401
0.0108763
0.0105295
0.0101965
0.00987402
0.00955967
0.00925113
0.00894635
0.00864343
0.00834058
0.0080361
0.00772829
0.00741547
0.00709594
0.00676794
0.00642963
0.00607905
0.00571412
0.00533262
0.00493201
0.00450976
0.00406266
0.00358788
0.00308118
0.00253968
0.00195764
0.00133254
0.000657266
-7.01752e-05
-0.000854292
-0.00169713
-0.00258072
-0.00350297
-0.00437072
-0.00517358
0.0599434
0.0378736
0.023639
0.020517
0.0197206
0.0182109
0.016706
0.0156375
0.0148434
0.0141637
0.0135556
0.0130113
0.0125211
0.0120733
0.0116591
0.0112716
0.0109058
0.0105573
0.0102228
0.00989914
0.00958379
0.00927443
0.00896901
0.00866562
0.00836247
0.00805784
0.00775006
0.00743745
0.00711834
0.00679097
0.00645355
0.00610416
0.00574076
0.00536118
0.00496299
0.00454372
0.00410033
0.00363008
0.00312905
0.00259442
0.00202113
0.00140654
0.00074507
3.42955e-05
-0.000727498
-0.00154221
-0.00238985
-0.00326528
-0.00408942
-0.00484292
0.0578276
0.0379077
0.0241339
0.0206928
0.019824
0.0183379
0.0168139
0.0157166
0.014908
0.0142211
0.0136068
0.013057
0.0125621
0.0121108
0.0116936
0.0113037
0.0109359
0.0105857
0.0102497
0.00992486
0.00960852
0.00929836
0.00899232
0.00868848
0.00838505
0.00808031
0.0077726
0.00746026
0.00714161
0.00681496
0.00647851
0.00613041
0.00576865
0.00539115
0.00499554
0.00457946
0.00414001
0.00367458
0.00317955
0.00265219
0.00208812
0.00148467
0.000837614
0.000144458
-0.000594335
-0.0013798
-0.00219127
-0.00302013
-0.00379969
-0.00450452
0.0557921
0.0378668
0.0246006
0.0208684
0.0199183
0.0184593
0.0169223
0.0157966
0.0149728
0.0142789
0.0136586
0.0131032
0.0126038
0.0121489
0.0117288
0.0113365
0.0109665
0.0106147
0.0102772
0.0099512
0.00963386
0.00932292
0.00901627
0.00871201
0.00840832
0.00810351
0.00779591
0.00748388
0.00716577
0.0068399
0.00650451
0.0061578
0.0057978
0.00542251
0.00502964
0.00461694
0.00418166
0.00372132
0.00323261
0.00271291
0.00215849
0.00156674
0.000934632
0.000259907
-0.000455326
-0.00121077
-0.00198592
-0.00276879
-0.00350307
-0.00415949
0.0538372
0.0377546
0.0250362
0.0210442
0.0200038
0.0185742
0.0170307
0.0158776
0.0150378
0.0143368
0.0137109
0.01315
0.0126461
0.0121876
0.0117646
0.0113698
0.0109978
0.0106443
0.0103054
0.00997815
0.00965984
0.00934812
0.00904089
0.00873622
0.00843231
0.00812746
0.00782001
0.00750835
0.00719083
0.00686581
0.00653157
0.00618634
0.00582823
0.00545528
0.00506532
0.00465618
0.0042253
0.00377031
0.00328822
0.00277656
0.00223218
0.00165267
0.001036
0.000380406
-0.000310773
-0.00103566
-0.0017744
-0.00251202
-0.00320057
-0.00380858
0.051963
0.0375749
0.025438
0.0212205
0.0200811
0.0186818
0.0171385
0.0159596
0.015103
0.0143948
0.0137636
0.0131974
0.0126889
0.0122269
0.011801
0.0114038
0.0110298
0.0106744
0.0103342
0.0100057
0.00968646
0.00937399
0.00906619
0.00876114
0.00845703
0.00815218
0.00784494
0.00753369
0.00721683
0.00689274
0.00655973
0.00621608
0.00585997
0.00548951
0.00510263
0.00469724
0.00427099
0.0038216
0.00334644
0.00284317
0.00230923
0.00174245
0.00114169
0.000505843
-0.000160836
-0.000854827
-0.00155706
-0.00225025
-0.00289283
-0.00345233
0.0501689
0.0373321
0.0258036
0.0213972
0.0201511
0.0187814
0.017245
0.0160424
0.0151684
0.0144529
0.0138166
0.0132453
0.0127323
0.0122667
0.0118379
0.0114383
0.0110623
0.0107053
0.0103635
0.010034
0.00971374
0.00940053
0.00909219
0.00878678
0.00848252
0.00817771
0.00787071
0.00755994
0.0072438
0.00692071
0.00658903
0.00624707
0.00589309
0.00552526
0.00514161
0.00474019
0.00431877
0.00387527
0.00340733
0.00291283
0.0023897
0.00183614
0.00125174
0.000636178
-5.58556e-06
-0.000668458
-0.00133415
-0.00198368
-0.00258027
-0.00309114
0.0484542
0.0370309
0.0261308
0.0215737
0.0202145
0.0188726
0.0173494
0.0161258
0.0152339
0.0145109
0.0138699
0.0132937
0.0127763
0.012307
0.0118754
0.0114734
0.0110954
0.0107367
0.0103936
0.0100628
0.00974169
0.00942776
0.00911891
0.00881318
0.0085088
0.00820407
0.00789737
0.00758713
0.00727179
0.00694978
0.00661951
0.00627936
0.00592763
0.00556258
0.00518235
0.00478508
0.00436875
0.0039314
0.00347098
0.0029856
0.00247367
0.00193379
0.0013662
0.000771404
0.00015494
-0.000476682
-0.00110583
-0.00171245
-0.00226316
-0.00272541
0.0468176
0.0366763
0.0264175
0.0217491
0.0202722
0.0189548
0.0174509
0.0162097
0.0152995
0.0145687
0.0139233
0.0133426
0.0128207
0.0123479
0.0119135
0.0115092
0.0111291
0.0107688
0.0104243
0.0100924
0.00977034
0.00945572
0.00914637
0.00884036
0.0085359
0.00823129
0.00792495
0.0076153
0.00730083
0.00697999
0.00665124
0.00631301
0.00596367
0.00560155
0.00522491
0.00483201
0.00442099
0.00399006
0.00353747
0.00306158
0.00256123
0.00203547
0.00148513
0.00091153
0.000320709
-0.000279598
-0.00087228
-0.00143665
-0.00194179
-0.00235558
0.0452576
0.0362737
0.0266622
0.0219221
0.0203253
0.0190281
0.0175486
0.0162937
0.0153653
0.0146262
0.0139768
0.0133918
0.0128657
0.0123894
0.0119521
0.0115455
0.0111635
0.0108015
0.0104556
0.0101226
0.00979969
0.0094844
0.0091746
0.00886834
0.00856384
0.00825941
0.00795348
0.0076445
0.00733096
0.00701139
0.00668426
0.00634807
0.00600125
0.00564223
0.00526937
0.00488104
0.00447557
0.00405136
0.00360691
0.00314086
0.00265246
0.00214126
0.00160857
0.00105656
0.000491682
-7.72957e-05
-0.000633642
-0.00115641
-0.0016164
-0.00198213
0.0437722
0.0358286
0.0268635
0.0220911
0.0203748
0.0190922
0.0176417
0.0163775
0.0154312
0.0146834
0.0140301
0.0134412
0.0129111
0.0124313
0.0119912
0.0115823
0.0111984
0.0108348
0.0104876
0.0101535
0.00982976
0.00951384
0.00920362
0.00889716
0.00859265
0.00828846
0.007983
0.00767475
0.00736224
0.00704402
0.00671863
0.0063846
0.00604045
0.0056847
0.0053158
0.00493227
0.0045326
0.00411538
0.00367937
0.00322353
0.00274746
0.0022512
0.00173658
0.00120648
0.000667804
0.000130121
-0.000390092
-0.000871882
-0.00128732
-0.00160558
0.0423593
0.0353466
0.0270207
0.0222542
0.0204214
0.0191476
0.0177294
0.0164605
0.0154973
0.0147403
0.0140833
0.0134909
0.0129568
0.0124736
0.0120309
0.0116198
0.011234
0.0108688
0.0105203
0.0101852
0.00986056
0.00954405
0.00923345
0.00892682
0.00862237
0.00831847
0.00801354
0.00770611
0.00739471
0.00707795
0.0067544
0.00642266
0.00608134
0.00572901
0.00536428
0.00498576
0.00459214
0.00418219
0.00375494
0.00330965
0.00284628
0.00236536
0.00186916
0.00136128
0.000849
0.00034253
-0.000141825
-0.00058328
-0.000954882
-0.00122651
0.0410165
0.0348332
0.0271333
0.022409
0.020466
0.0191945
0.0178109
0.0165423
0.0155633
0.0147968
0.0141361
0.0135407
0.013003
0.0125164
0.012071
0.0116577
0.0112701
0.0109034
0.0105536
0.0102175
0.00989212
0.00957505
0.00926411
0.00895736
0.00865303
0.00834947
0.00804515
0.0077386
0.00742842
0.00711321
0.00679162
0.00646232
0.00612396
0.00577524
0.00541487
0.00504159
0.00465427
0.00425189
0.00383371
0.0033993
0.002949
0.00248377
0.00200634
0.00152093
0.00103518
0.000559788
0.000110943
-0.000290857
-0.000619476
-0.000845525
0.0397411
0.0342942
0.0272015
0.0225531
0.0205092
0.0192335
0.0178855
0.0166223
0.0156293
0.0148529
0.0141886
0.0135904
0.0130494
0.0125596
0.0121116
0.0116962
0.0113069
0.0109386
0.0105877
0.0102505
0.00992443
0.00960686
0.00929563
0.00898881
0.00868465
0.0083815
0.00807786
0.00777229
0.0074634
0.00714986
0.00683036
0.00650362
0.0061684
0.00582347
0.00546765
0.00509985
0.00471909
0.00432454
0.00391574
0.00349256
0.00305566
0.00260646
0.00214811
0.00168536
0.00122621
0.000781729
0.000367966
5.07339e-06
-0.000281535
-0.000463261
0.0385303
0.0337348
0.0272259
0.022684
0.0205515
0.0192653
0.0179527
0.0166997
0.0156949
0.0149085
0.0142405
0.01364
0.013096
0.0126032
0.0121526
0.0117352
0.0113442
0.0109745
0.0106224
0.0102843
0.00995752
0.00963948
0.00932802
0.00902119
0.00871726
0.0084146
0.00811172
0.0078072
0.00749971
0.00718795
0.00687066
0.00654664
0.00621471
0.00587375
0.00552271
0.00516061
0.00478665
0.00440023
0.00400112
0.00358947
0.0031663
0.00273344
0.00229443
0.00185451
0.00142198
0.00100816
0.000629015
0.000304159
5.84681e-05
-8.03768e-05
0.0373811
0.0331601
0.0272078
0.0227992
0.0205927
0.0192906
0.0180123
0.0167739
0.0157601
0.0149636
0.0142917
0.0136894
0.0131428
0.012647
0.012194
0.0117746
0.011382
0.011011
0.0106577
0.0103188
0.0099914
0.00967295
0.0093613
0.00905453
0.00875089
0.00844879
0.00814675
0.00784339
0.0075374
0.00722753
0.00691259
0.00659143
0.00626296
0.00592617
0.0055801
0.00522393
0.00485704
0.00447903
0.00408989
0.00369009
0.00328095
0.00286471
0.00244526
0.00202827
0.0016223
0.00123884
0.000893675
0.000606015
0.000400023
0.000302446
0.0362906
0.0325749
0.0271486
0.0228967
0.0206327
0.0193102
0.0180638
0.0168442
0.0158243
0.0150182
0.0143423
0.0137384
0.0131896
0.0126912
0.0122358
0.0118145
0.0114204
0.0110481
0.0106938
0.0103541
0.0100261
0.00970727
0.00939551
0.00908885
0.00878558
0.00848411
0.008183
0.00788089
0.00757651
0.00726866
0.0069562
0.00663805
0.00631322
0.00598077
0.00563989
0.0052899
0.00493033
0.00456098
0.00418211
0.00379445
0.00339963
0.00300025
0.00260054
0.00220652
0.00182699
0.00147353
0.00116168
0.000910221
0.000742586
0.000684516
0.0352557
0.0319834
0.0270506
0.0229747
0.0206708
0.0193249
0.0181074
0.0169099
0.0158874
0.0150723
0.0143921
0.0137868
0.0132363
0.0127355
0.0122779
0.0118549
0.0114593
0.0110858
0.0107305
0.0103901
0.0100615
0.00974246
0.00943064
0.00912418
0.00882135
0.0085206
0.00822051
0.00791975
0.00761709
0.00731138
0.00700154
0.00668657
0.00636555
0.00603764
0.00570216
0.00535856
0.00500656
0.00464616
0.00427782
0.00390257
0.00352233
0.00314001
0.00276017
0.00238913
0.00203584
0.00171192
0.00143265
0.00121632
0.00108559
0.00106513
0.0342733
0.0313894
0.0269163
0.0230315
0.0207059
0.0193351
0.0181432
0.0169703
0.0159487
0.0151256
0.0144412
0.0138347
0.0132828
0.0127799
0.0123202
0.0118956
0.0114987
0.0111241
0.0107679
0.0104268
0.0100978
0.00977853
0.00946673
0.00916054
0.00885823
0.00855829
0.00825931
0.00796001
0.00765919
0.00735575
0.00704868
0.00673704
0.00642
0.00609683
0.00576696
0.00542999
0.00508581
0.0047346
0.00437706
0.00401448
0.00364903
0.00328395
0.00292405
0.00257591
0.0022486
0.00195369
0.00170619
0.00152384
0.00142844
0.00144358
0.0333403
0.0307965
0.0267485
0.0230659
0.0207368
0.0193416
0.0181714
0.017025
0.0160078
0.0151782
0.0144893
0.0138817
0.013329
0.0128245
0.0123629
0.0119366
0.0115385
0.011163
0.010806
0.0104643
0.0101349
0.00981549
0.0095038
0.00919794
0.00889625
0.00859721
0.00829945
0.00800171
0.00770285
0.00740182
0.00709767
0.00678952
0.00647664
0.0061584
0.00583436
0.00550424
0.00516811
0.00482634
0.00447985
0.00413015
0.00377969
0.00343197
0.00309205
0.00276668
0.002465
0.00219851
0.00198187
0.00183225
0.00177052
0.00181913
0.032454
0.0302074
0.0265505
0.0230772
0.0207623
0.0193447
0.0181925
0.0170735
0.0160642
0.0152297
0.0145365
0.013928
0.0133748
0.0128689
0.0124057
0.011978
0.0115788
0.0112024
0.0108447
0.0105025
0.0101729
0.00985336
0.00954185
0.00923643
0.00893544
0.00863739
0.00834095
0.0080449
0.00774813
0.00744964
0.00714855
0.00684407
0.00653553
0.00622241
0.0059044
0.00558136
0.00525351
0.00492141
0.00458618
0.00424958
0.00391426
0.00358399
0.003264
0.0029612
0.00268476
0.002446
0.00225923
0.00214098
0.00211118
0.00219107
0.0316113
0.0296246
0.0263255
0.0230648
0.0207808
0.0193445
0.0182068
0.0171155
0.0161174
0.0152799
0.0145828
0.0139733
0.01342
0.0129132
0.0124486
0.0120196
0.0116194
0.0112423
0.010884
0.0105414
0.0102116
0.00989214
0.0095809
0.00927601
0.00897582
0.00867887
0.00838386
0.00808961
0.00779506
0.00749926
0.00720138
0.00690072
0.00659671
0.00628891
0.00597713
0.00566138
0.00534203
0.00501982
0.00469607
0.00437272
0.00405267
0.00373987
0.00343973
0.00315924
0.00290755
0.00269577
0.00253779
0.00244948
0.00244977
0.00255868
0.0308095
0.0290502
0.0260768
0.0230289
0.0207908
0.0193412
0.018215
0.0171508
0.0161667
0.0153286
0.014628
0.0140176
0.0134645
0.0129573
0.0124915
0.0120615
0.0116604
0.0112827
0.010924
0.0105811
0.0102512
0.00993184
0.00962097
0.0093167
0.00901741
0.00872168
0.00842821
0.00813588
0.00784368
0.00755071
0.00725621
0.00695954
0.00666023
0.00635794
0.0060526
0.00574435
0.0054337
0.00512158
0.00480947
0.00449952
0.00419482
0.00389947
0.00361902
0.00336052
0.00313301
0.00294738
0.00281705
0.00275714
0.00278563
0.00292124
0.0300461
0.0284858
0.0258079
0.0229697
0.020791
0.0193343
0.0182175
0.0171793
0.0162116
0.0153753
0.014672
0.0140608
0.0135082
0.013001
0.0125345
0.0121035
0.0117018
0.0113235
0.0109645
0.0106214
0.0102916
0.00997246
0.00966206
0.00935852
0.00906025
0.00876583
0.00847403
0.00818376
0.00789404
0.00760404
0.00731308
0.00702057
0.00672613
0.00642955
0.00613083
0.00583027
0.00552853
0.00522667
0.00492636
0.00462992
0.00434058
0.00406262
0.00380166
0.00356473
0.00336078
0.00320039
0.00309647
0.00306339
0.0031181
0.00327805
0.0293186
0.0279327
0.0255218
0.0228879
0.02078
0.0193237
0.0182148
0.0172012
0.0162519
0.0154197
0.0147147
0.0141028
0.013551
0.0130442
0.0125773
0.0121457
0.0117434
0.0113648
0.0110056
0.0106625
0.0103327
0.010014
0.00970419
0.00940149
0.00910434
0.00881137
0.00852136
0.00823326
0.00794617
0.0076593
0.00737202
0.00708384
0.00679446
0.00650375
0.00621185
0.00591917
0.0056265
0.00533506
0.00504667
0.0047638
0.00448983
0.00422913
0.00398737
0.00377156
0.00359046
0.00345433
0.0033755
0.00336761
0.00344653
0.00362841
0.0286247
0.0273919
0.0252216
0.0227848
0.0207569
0.0193086
0.0182072
0.0172165
0.016287
0.0154614
0.0147559
0.0141436
0.0135927
0.0130867
0.0126198
0.0121878
0.0117852
0.0114065
0.0110472
0.0107042
0.0103748
0.0100565
0.00974736
0.00944562
0.00914971
0.0088583
0.00857021
0.00828443
0.00800011
0.00771651
0.00743308
0.0071494
0.00686524
0.00658059
0.00629568
0.00601105
0.0057276
0.00544672
0.00517033
0.00490106
0.00464239
0.00439877
0.00417588
0.00398065
0.00382162
0.00370869
0.00365359
0.00366918
0.00377027
0.00397169
0.0279622
0.026864
0.0249102
0.0226614
0.0207209
0.0192885
0.0181949
0.0172256
0.0163167
0.0155
0.0147954
0.0141831
0.0136333
0.0131285
0.0126621
0.01223
0.0118272
0.0114485
0.0110894
0.0107466
0.0104175
0.0100999
0.00979158
0.00949092
0.00919638
0.00890665
0.00862062
0.0083373
0.00805588
0.00777571
0.00749628
0.00721726
0.00693849
0.00666007
0.00638231
0.00610588
0.00583181
0.00556158
0.00529726
0.00504157
0.0047981
0.00457132
0.00436689
0.00419162
0.00405382
0.00396299
0.00393019
0.00396748
0.00408865
0.00430724
0.0273292
0.0263495
0.0245901
0.0225194
0.0206714
0.0192626
0.0181781
0.0172287
0.0163408
0.0155351
0.0148329
0.0142211
0.0136727
0.0131695
0.0127039
0.012272
0.0118693
0.0114908
0.011132
0.0107896
0.0104611
0.0101442
0.00983684
0.00953739
0.00924435
0.00895645
0.0086726
0.00839187
0.00811352
0.00783693
0.00756166
0.00728745
0.00701424
0.00674219
0.00647175
0.00620366
0.00593906
0.00567956
0.00542733
0.00518517
0.00495673
0.00474649
0.00456006
0.0044041
0.00428661
0.00421667
0.00420473
0.00426196
0.00440109
0.00463444
0.0267238
0.0258486
0.0242636
0.0223604
0.0206084
0.0192301
0.0181568
0.017226
0.0163592
0.0155662
0.0148682
0.0142576
0.0137108
0.0132094
0.0127451
0.0123139
0.0119115
0.0115333
0.011175
0.0108332
0.0105054
0.0101894
0.00988314
0.00958504
0.00929364
0.0090077
0.00872617
0.00844819
0.00817304
0.00790017
0.00762922
0.00735998
0.00709248
0.00682697
0.00656397
0.00630433
0.0060493
0.00580058
0.00556041
0.00533169
0.00511806
0.00492402
0.00475506
0.00461767
0.00451951
0.00446919
0.00447663
0.00455203
0.00470699
0.00495274
0.0261444
0.0253615
0.0239328
0.0221862
0.0205317
0.0191904
0.0181309
0.0172179
0.016372
0.0155932
0.0149009
0.0142923
0.0137475
0.0132483
0.0127857
0.0123554
0.0119536
0.011576
0.0112184
0.0108774
0.0105505
0.0102355
0.00993048
0.00963387
0.00934424
0.0090604
0.00878135
0.00850625
0.00823445
0.00796546
0.00769897
0.00743486
0.00717321
0.00691436
0.00665893
0.00640785
0.00616245
0.00592451
0.00569636
0.00548091
0.00528184
0.00510359
0.00495152
0.0048319
0.00475205
0.00472008
0.00474529
0.00483701
0.00500577
0.00526166
0.0255892
0.0248881
0.0235996
0.0219986
0.0204417
0.0191428
0.0181001
0.0172045
0.0163791
0.0156157
0.0149309
0.0143252
0.0137827
0.013286
0.0128255
0.0123966
0.0119957
0.0116189
0.0112622
0.0109221
0.0105963
0.0102824
0.00997884
0.00968387
0.00939617
0.00911458
0.00883814
0.00856607
0.00829778
0.00803281
0.00777093
0.00751208
0.00725642
0.00700436
0.0067566
0.00651415
0.00627841
0.00605124
0.00583499
0.00563264
0.00544781
0.00528488
0.00514906
0.00504636
0.00498373
0.00496882
0.00501013
0.00511634
0.00529687
0.00556069
0.0250569
0.0244282
0.0232654
0.0217993
0.0203389
0.0190869
0.0180642
0.0171861
0.0163807
0.0156336
0.0149577
0.0143561
0.0138163
0.0133224
0.0128644
0.0124372
0.0120376
0.0116619
0.0113062
0.0109673
0.0106427
0.0103303
0.0100282
0.00973504
0.00944942
0.00917022
0.00889655
0.00862766
0.00836301
0.00810221
0.00784508
0.00759163
0.00734208
0.00709692
0.00685691
0.00662313
0.00639706
0.00618059
0.00597613
0.00578662
0.00561567
0.00546754
0.00534727
0.0052606
0.00521407
0.00521483
0.00527072
0.00538958
0.00557983
0.00584939
0.0245461
0.0239818
0.0229316
0.02159
0.0202239
0.0190225
0.018023
0.0171628
0.016377
0.0156468
0.0149811
0.0143847
0.0138482
0.0133575
0.0129022
0.0124773
0.0120793
0.0117049
0.0113505
0.011013
0.0106898
0.0103789
0.0100786
0.00978737
0.00950397
0.00922733
0.00895657
0.00869101
0.00843014
0.00817366
0.00792141
0.00767348
0.00743015
0.00719198
0.00695978
0.00673471
0.00651828
0.00631242
0.00611955
0.0059426
0.00578511
0.00565122
0.00554576
0.00547416
0.00544258
0.00545762
0.00552645
0.00565621
0.00585429
0.00612746
0.0240556
0.0235485
0.0225994
0.0213723
0.0200976
0.0189493
0.0179761
0.0171345
0.0163681
0.0156551
0.0150009
0.0144108
0.0138783
0.013391
0.012939
0.0125166
0.0121206
0.0117478
0.011395
0.011059
0.0107375
0.0104283
0.0101299
0.00984082
0.00955982
0.00928588
0.00901819
0.0087561
0.00849917
0.00824713
0.00799989
0.0077576
0.00752059
0.00728948
0.00706513
0.00684876
0.0066419
0.00644652
0.00626503
0.00610031
0.00595582
0.00583555
0.0057441
0.0056866
0.00566877
0.00569668
0.00577684
0.00591578
0.00611981
0.00639455
0.0235843
0.023128
0.0222697
0.0211478
0.0199608
0.0188673
0.0179232
0.0171014
0.016354
0.0156585
0.0150169
0.0144342
0.0139064
0.0134231
0.0129745
0.0125551
0.0121614
0.0117906
0.0114396
0.0111054
0.0107857
0.0104785
0.0101822
0.00989539
0.00961694
0.00934587
0.00908139
0.00882292
0.00857006
0.00832259
0.00808049
0.00784393
0.00761332
0.00738932
0.00717285
0.00696514
0.00676777
0.0065827
0.00641232
0.00625946
0.00612746
0.00602015
0.00594187
0.00589745
0.00589216
0.00593154
0.00602147
0.00616782
0.00637593
0.00665043
0.0231312
0.0227202
0.0219433
0.0209178
0.0198145
0.0187766
0.0178643
0.0170633
0.016335
0.0156572
0.0150289
0.0144547
0.0139324
0.0134534
0.0130088
0.0125927
0.0122017
0.0118332
0.0114842
0.0111521
0.0108345
0.0105294
0.0102354
0.00995104
0.00967532
0.00940726
0.00914615
0.00889145
0.00864279
0.00840002
0.00816315
0.00793242
0.00770828
0.00749142
0.0072828
0.0070837
0.00689569
0.00672073
0.00656116
0.00641974
0.00629968
0.00620462
0.00613866
0.00610627
0.0061123
0.00616176
0.00625991
0.00641182
0.00662236
0.00689494
0.0226952
0.0223246
0.021621
0.0206837
0.0196597
0.0186777
0.017799
0.0170202
0.0163112
0.015651
0.0150368
0.0144722
0.0139562
0.013482
0.0130416
0.0126293
0.0122414
0.0118754
0.0115288
0.011199
0.0108837
0.010581
0.0102894
0.0100077
0.00973491
0.00947003
0.00921244
0.00896164
0.00871732
0.00847935
0.00824782
0.00802299
0.00780536
0.00759565
0.00739487
0.00720427
0.00702547
0.00686036
0.00671126
0.00658082
0.00647211
0.00638858
0.00633404
0.00631262
0.00632875
0.00638692
0.00649176
0.00664762
0.00685893
0.007128
0.0222755
0.021941
0.0213032
0.0204466
0.0194975
0.0185708
0.0177274
0.0169721
0.0162826
0.0156402
0.0150406
0.0144864
0.0139775
0.0135087
0.013073
0.0126647
0.0122803
0.0119173
0.0115734
0.0112461
0.0109333
0.0106331
0.0103443
0.0100654
0.00979567
0.00953414
0.00928022
0.00903345
0.00879358
0.00856054
0.00833442
0.00811555
0.00790446
0.00770189
0.00750887
0.00732667
0.00715687
0.00700136
0.00686234
0.00674239
0.00664441
0.00657163
0.00652759
0.00651608
0.00654108
0.0066066
0.00671666
0.00687494
0.00708496
0.00734941
0.0218712
0.021569
0.0209905
0.0202075
0.0193288
0.0184565
0.0176495
0.0169189
0.0162494
0.0156248
0.0150402
0.0144972
0.0139962
0.0135335
0.0131028
0.012699
0.0123184
0.0119588
0.0116178
0.0112933
0.0109832
0.0106859
0.0103999
0.0101241
0.00985756
0.00959953
0.00934942
0.00910683
0.00887153
0.00864349
0.00842287
0.00821
0.00800545
0.00781
0.00762465
0.0074507
0.00728968
0.00714344
0.0070141
0.00690411
0.0068162
0.00675338
0.00671892
0.00671624
0.00674891
0.00682045
0.00693434
0.00709362
0.00730113
0.00755914
0.0214817
0.0212083
0.0206832
0.0199674
0.0191547
0.0183353
0.0175655
0.0168606
0.0162115
0.015605
0.0150357
0.0145046
0.0140123
0.0135561
0.013131
0.0127319
0.0123556
0.0119996
0.0116619
0.0113405
0.0110334
0.0107391
0.0104562
0.0101836
0.00992052
0.00966616
0.00942
0.0091817
0.00895108
0.00872814
0.00851306
0.00830623
0.00810821
0.0079198
0.00774202
0.00757614
0.00742364
0.00728632
0.00716622
0.00706562
0.00698711
0.00693345
0.00690761
0.0069127
0.00695186
0.00702816
0.00714454
0.0073035
0.00750727
0.00775735
0.0211062
0.0208587
0.0203817
0.0197272
0.018976
0.0182079
0.0174755
0.0167973
0.0161691
0.0155807
0.015027
0.0145084
0.0140255
0.0135765
0.0131573
0.0127635
0.0123918
0.0120398
0.0117057
0.0113876