/*--------------------------------*- C++ -*----------------------------------*\
  =========                 |
  \\      /  F ield         | OpenFOAM: The Open Source CFD Toolbox
   \\    /   O peration     | Website:  https://openfoam.org
    \\  /    A nd           | Version:  7
     \\/     M anipulation  |
\*---------------------------------------------------------------------------*/
FoamFile
{
    version     2.0;
    format      ascii;
    class       surfaceScalarField;
    location    "0.36";
    object      phi;
}
// * * * * * * * * * * * * * * * * * * * * * * * * * * * * * * * * * * * * * //

dimensions      [0 3 -1 0 0 0 0];

internalField   nonuniform List<scalar> 
139350
(
6.45133e-08
9.21182e-08
3.19678e-08
3.25455e-08
2.30646e-08
8.90317e-09
1.95818e-08
3.48276e-09
1.76318e-08
1.95006e-09
1.62032e-08
1.42852e-09
1.50718e-08
1.13143e-09
1.41608e-08
9.11004e-10
1.34116e-08
7.49236e-10
1.27808e-08
6.30773e-10
1.22397e-08
5.41082e-10
1.1769e-08
4.70698e-10
1.1355e-08
4.14025e-10
1.09875e-08
3.67539e-10
1.06586e-08
3.28837e-10
1.03624e-08
2.96195e-10
1.00941e-08
2.68346e-10
9.84974e-09
2.44341e-10
9.62628e-09
2.23456e-10
9.42116e-09
2.05128e-10
9.23224e-09
1.88919e-10
9.05776e-09
1.74474e-10
8.89625e-09
1.61511e-10
8.74646e-09
1.49796e-10
8.60732e-09
1.39137e-10
8.47795e-09
1.2937e-10
8.35759e-09
1.20355e-10
8.24562e-09
1.11975e-10
8.1415e-09
1.04117e-10
8.04481e-09
9.66914e-11
7.95521e-09
8.95963e-11
7.87245e-09
8.2764e-11
7.79637e-09
7.60833e-11
7.72686e-09
6.95064e-11
7.66397e-09
6.28949e-11
7.60776e-09
5.62098e-11
7.55846e-09
4.92913e-11
7.51643e-09
4.20293e-11
7.48206e-09
3.43785e-11
7.45625e-09
2.58017e-11
7.43927e-09
1.69847e-11
7.43358e-09
5.69362e-12
7.43808e-09
-4.50065e-12
7.45973e-09
-2.16492e-11
7.49192e-09
-3.21906e-11
7.55573e-09
-6.38097e-11
7.62088e-09
-6.51515e-11
7.78194e-09
-1.61061e-10
7.6927e-09
8.92345e-11
-3.81927e-09
1.1512e-08
1.25945e-07
1.27617e-07
9.12955e-08
6.71948e-08
7.19482e-08
2.82505e-08
6.12383e-08
1.41927e-08
5.48071e-08
8.38126e-09
5.03169e-08
5.91875e-09
4.68366e-08
4.61173e-09
4.4027e-08
3.72056e-09
4.17075e-08
3.06872e-09
3.97527e-08
2.58556e-09
3.80755e-08
2.2183e-09
3.66159e-08
1.93029e-09
3.53314e-08
1.6986e-09
3.41903e-08
1.50862e-09
3.31687e-08
1.35046e-09
3.22478e-08
1.21707e-09
3.14128e-08
1.10328e-09
3.0652e-08
1.00521e-09
2.99555e-08
9.19909e-10
2.93156e-08
8.45088e-10
2.87255e-08
7.78951e-10
2.81799e-08
7.20066e-10
2.76742e-08
6.67277e-10
2.72043e-08
6.19636e-10
2.67671e-08
5.76361e-10
2.63597e-08
5.36793e-10
2.59797e-08
5.00371e-10
2.5625e-08
4.66613e-10
2.52941e-08
4.35083e-10
2.49853e-08
4.05414e-10
2.46977e-08
3.77227e-10
2.44302e-08
3.50236e-10
2.41823e-08
3.24046e-10
2.39533e-08
2.98453e-10
2.37433e-08
2.72954e-10
2.3552e-08
2.47448e-10
2.33801e-08
2.21206e-10
2.32279e-08
1.94222e-10
2.30968e-08
1.65498e-10
2.29878e-08
1.3482e-10
2.29033e-08
1.0143e-10
2.28458e-08
6.32454e-11
2.28186e-08
2.26949e-11
2.28281e-08
-3.11818e-11
2.28755e-08
-7.95516e-11
2.29844e-08
-1.72722e-10
2.31247e-08
-2.05406e-10
2.34541e-08
-4.9052e-10
2.35819e-08
-3.85922e-11
-5.08157e-09
2.48442e-08
1.58754e-07
1.35267e-07
1.36533e-07
8.94155e-08
1.17507e-07
4.72765e-08
1.03338e-07
2.83613e-08
9.33533e-08
1.83662e-08
8.60621e-08
1.32099e-08
8.03635e-08
1.03103e-08
7.57212e-08
8.36292e-09
7.18526e-08
6.93725e-09
6.85704e-08
5.86784e-09
6.5741e-08
5.04762e-09
6.327e-08
4.40132e-09
6.10888e-08
3.87981e-09
5.91463e-08
3.45112e-09
5.74033e-08
3.09345e-09
5.58291e-08
2.79125e-09
5.43994e-08
2.53306e-09
5.30943e-08
2.31026e-09
5.18979e-08
2.11629e-09
5.0797e-08
1.94604e-09
4.97805e-08
1.79547e-09
4.88391e-08
1.66139e-09
4.79652e-08
1.54118e-09
4.71521e-08
1.43274e-09
4.63942e-08
1.33429e-09
4.56866e-08
1.24436e-09
4.50253e-08
1.16169e-09
4.44067e-08
1.0852e-09
4.38279e-08
1.01392e-09
4.32863e-08
9.4702e-10
4.27798e-08
8.83694e-10
4.23068e-08
8.23285e-10
4.18658e-08
7.64974e-10
4.1456e-08
7.08289e-10
4.10768e-08
6.52184e-10
4.07277e-08
5.9648e-10
4.04094e-08
5.39519e-10
4.0122e-08
4.81684e-10
3.98674e-08
4.20079e-10
3.96462e-08
3.55998e-10
3.9463e-08
2.84682e-10
3.93184e-08
2.0777e-10
3.9221e-08
1.20108e-10
3.91732e-08
1.66526e-11
3.91862e-08
-9.25961e-11
3.92769e-08
-2.63432e-10
3.94314e-08
-3.59901e-10
3.97928e-08
-8.5185e-10
4.01717e-08
-4.17533e-10
-5.45385e-09
4.0544e-08
1.75612e-07
1.31171e-07
1.65628e-07
9.93994e-08
1.52747e-07
6.01576e-08
1.40148e-07
4.09607e-08
1.29478e-07
2.90356e-08
1.20851e-07
2.18376e-08
1.1375e-07
1.7411e-08
1.07781e-07
1.43321e-08
1.02693e-07
1.20253e-08
9.83033e-08
1.02574e-08
9.44725e-08
8.87841e-09
9.1095e-08
7.77886e-09
8.80909e-08
6.88387e-09
8.53989e-08
6.14311e-09
8.29708e-08
5.52158e-09
8.07681e-08
4.99395e-09
7.87598e-08
4.5414e-09
7.69204e-08
4.1496e-09
7.52292e-08
3.80756e-09
7.36686e-08
3.50664e-09
7.2224e-08
3.24002e-09
7.08832e-08
3.00222e-09
6.96356e-08
2.7888e-09
6.84722e-08
2.59609e-09
6.73854e-08
2.42106e-09
6.63687e-08
2.26115e-09
6.54162e-08
2.11419e-09
6.45231e-08
1.97829e-09
6.36852e-08
1.85179e-09
6.28989e-08
1.73327e-09
6.21613e-08
1.62131e-09
6.14698e-08
1.5148e-09
6.08224e-08
1.41236e-09
6.02175e-08
1.31317e-09
5.96542e-08
1.2155e-09
5.91316e-08
1.11907e-09
5.86501e-08
1.02105e-09
5.82094e-08
9.22366e-10
5.78118e-08
8.17653e-10
5.74575e-08
7.10381e-10
5.71518e-08
5.90332e-10
5.68948e-08
4.64806e-10
5.66973e-08
3.17618e-10
5.65597e-08
1.54228e-10
5.64985e-08
-3.1442e-11
5.65266e-08
-2.91481e-10
5.66444e-08
-4.77774e-10
5.69558e-08
-1.16325e-09
5.74418e-08
-9.03531e-10
-5.61869e-09
5.76067e-08
1.84511e-07
1.23445e-07
1.82344e-07
1.01566e-07
1.7613e-07
6.63713e-08
1.67782e-07
4.93091e-08
1.59174e-07
3.76439e-08
1.5128e-07
2.97306e-08
1.44221e-07
2.44703e-08
1.37935e-07
2.06185e-08
1.32348e-07
1.76117e-08
1.27378e-07
1.52282e-08
1.22937e-07
1.33193e-08
1.18949e-07
1.17663e-08
1.15351e-07
1.04823e-08
1.12088e-07
9.40616e-09
1.09115e-07
8.49391e-09
1.06397e-07
7.71282e-09
1.039e-07
7.038e-09
1.01599e-07
6.45021e-09
9.94725e-08
5.93437e-09
9.75007e-08
5.47853e-09
9.56676e-08
5.0731e-09
9.39595e-08
4.71032e-09
9.23645e-08
4.38382e-09
9.08722e-08
4.08834e-09
8.94738e-08
3.81947e-09
8.81615e-08
3.57347e-09
8.69285e-08
3.34716e-09
8.57691e-08
3.13776e-09
8.4678e-08
2.94283e-09
8.36511e-08
2.76023e-09
8.26844e-08
2.58793e-09
8.1775e-08
2.42422e-09
8.09202e-08
2.26713e-09
8.0118e-08
2.1154e-09
7.9367e-08
1.96657e-09
7.86659e-08
1.82018e-09
7.80148e-08
1.67215e-09
7.74132e-08
1.52394e-09
7.68633e-08
1.36754e-09
7.6365e-08
1.2087e-09
7.59239e-08
1.0314e-09
7.55399e-08
8.48842e-10
7.52242e-08
6.33319e-10
7.49774e-08
4.01039e-10
7.48166e-08
1.29341e-10
7.4754e-08
-2.28937e-10
7.47998e-08
-5.23543e-10
7.5024e-08
-1.38749e-09
7.54911e-08
-1.37058e-09
-5.71084e-09
7.55833e-08
1.90343e-07
1.15319e-07
1.91862e-07
1.00047e-07
1.9027e-07
6.79634e-08
1.86172e-07
5.34068e-08
1.80743e-07
4.30726e-08
1.75003e-07
3.54704e-08
1.6932e-07
3.01537e-08
1.6385e-07
2.60887e-08
1.5869e-07
2.27721e-08
1.53881e-07
2.00369e-08
1.49427e-07
1.77736e-08
1.4531e-07
1.58828e-08
1.41507e-07
1.42849e-08
1.37992e-07
1.29212e-08
1.34739e-07
1.17474e-08
1.31722e-07
1.07294e-08
1.2892e-07
9.84014e-09
1.26312e-07
9.05822e-09
1.2388e-07
8.36639e-09
1.21608e-07
7.75069e-09
1.19481e-07
7.19969e-09
1.17488e-07
6.704e-09
1.15616e-07
6.2558e-09
1.13855e-07
5.84851e-09
1.12198e-07
5.47661e-09
1.10636e-07
5.13532e-09
1.09163e-07
4.82055e-09
1.07772e-07
4.52872e-09
1.06458e-07
4.25665e-09
1.05217e-07
4.00151e-09
1.04044e-07
3.76065e-09
1.02937e-07
3.53179e-09
1.01891e-07
3.31234e-09
1.00906e-07
3.10061e-09
9.99794e-08
2.89337e-09
9.91096e-08
2.68998e-09
9.82967e-08
2.48511e-09
9.754e-08
2.28065e-09
9.68414e-08
2.06607e-09
9.62011e-08
1.84906e-09
9.56241e-08
1.60836e-09
9.5111e-08
1.36198e-09
9.46719e-08
1.07242e-09
9.43091e-08
7.6381e-10
9.40376e-08
4.00841e-10
9.38717e-08
-6.30783e-11
9.38247e-08
-4.76535e-10
9.39451e-08
-1.50782e-09
9.43325e-08
-1.75801e-09
-5.72468e-09
9.43463e-08
1.95505e-07
1.07629e-07
1.98249e-07
9.73027e-08
1.98991e-07
6.72213e-08
1.97803e-07
5.45952e-08
1.95177e-07
4.56986e-08
1.91848e-07
3.87996e-08
1.88128e-07
3.38735e-08
1.8419e-07
3.00266e-08
1.80184e-07
2.67781e-08
1.7622e-07
2.40011e-08
1.72365e-07
2.16283e-08
1.68659e-07
1.95893e-08
1.6512e-07
1.78232e-08
1.61759e-07
1.62828e-08
1.58574e-07
1.49318e-08
1.55563e-07
1.37406e-08
1.52718e-07
1.26851e-08
1.50031e-07
1.17452e-08
1.47493e-07
1.09044e-08
1.45095e-07
1.01488e-08
1.42828e-07
9.46669e-09
1.40684e-07
8.84837e-09
1.38654e-07
8.28548e-09
1.36732e-07
7.7709e-09
1.3491e-07
7.29849e-09
1.33182e-07
6.86294e-09
1.31543e-07
6.45956e-09
1.29988e-07
6.08423e-09
1.28511e-07
5.73324e-09
1.2711e-07
5.40325e-09
1.25779e-07
5.09109e-09
1.24517e-07
4.79402e-09
1.2332e-07
4.50894e-09
1.22187e-07
4.23373e-09
1.21116e-07
3.96451e-09
1.20106e-07
3.70041e-09
1.19156e-07
3.43501e-09
1.18266e-07
3.17041e-09
1.17438e-07
2.89402e-09
1.16672e-07
2.61476e-09
1.15973e-07
2.30729e-09
1.15343e-07
1.99256e-09
1.14789e-07
1.62636e-09
1.14317e-07
1.23606e-09
1.13937e-07
7.80222e-10
1.13668e-07
2.05711e-10
1.13523e-07
-3.31594e-10
1.13533e-07
-1.5178e-09
1.13817e-07
-2.04182e-09
-5.65863e-09
1.13751e-07
2.0082e-07
1.00394e-07
2.03774e-07
9.43486e-08
2.05351e-07
6.56447e-08
2.05657e-07
5.42893e-08
2.04833e-07
4.65223e-08
2.03362e-07
4.02703e-08
2.01425e-07
3.58108e-08
1.99106e-07
3.23457e-08
1.96511e-07
2.93723e-08
1.93745e-07
2.6768e-08
1.90885e-07
2.44877e-08
1.87994e-07
2.2481e-08
1.85114e-07
2.07028e-08
1.82278e-07
1.91186e-08
1.79508e-07
1.77016e-08
1.76819e-07
1.64299e-08
1.74219e-07
1.52846e-08
1.71715e-07
1.42499e-08
1.69307e-07
1.33121e-08
1.66996e-07
1.24593e-08
1.64782e-07
1.16812e-08
1.62661e-07
1.09691e-08
1.60631e-07
1.03151e-08
1.5869e-07
9.71257e-09
1.56833e-07
9.15547e-09
1.55057e-07
8.63852e-09
1.5336e-07
8.157e-09
1.51737e-07
7.70663e-09
1.50187e-07
7.28351e-09
1.48706e-07
6.88407e-09
1.47293e-07
6.50486e-09
1.45944e-07
6.14287e-09
1.44658e-07
5.79463e-09
1.43434e-07
5.45773e-09
1.42271e-07
5.12779e-09
1.41167e-07
4.8037e-09
1.40124e-07
4.4782e-09
1.39141e-07
4.15342e-09
1.3822e-07
3.81521e-09
1.37362e-07
3.47297e-09
1.3657e-07
3.09876e-09
1.35849e-07
2.71425e-09
1.35203e-07
2.2721e-09
1.34641e-07
1.79784e-09
1.3417e-07
1.25092e-09
1.33812e-07
5.64527e-10
1.33578e-07
-9.75864e-11
1.33482e-07
-1.42238e-09
1.33655e-07
-2.21512e-09
-5.52407e-09
1.33521e-07
2.06423e-07
9.35024e-08
2.09334e-07
9.1438e-08
2.11062e-07
6.39168e-08
2.11947e-07
5.34043e-08
2.12016e-07
4.64533e-08
2.11638e-07
4.06478e-08
2.10918e-07
3.65314e-08
2.09857e-07
3.34066e-08
2.08494e-07
3.07349e-08
2.06888e-07
2.83742e-08
2.05094e-07
2.62819e-08
2.0316e-07
2.44144e-08
2.0113e-07
2.27331e-08
1.99039e-07
2.121e-08
1.96916e-07
1.98248e-08
1.94784e-07
1.85613e-08
1.92663e-07
1.74059e-08
1.90566e-07
1.63469e-08
1.88504e-07
1.5374e-08
1.86485e-07
1.44781e-08
1.84515e-07
1.36513e-08
1.82598e-07
1.28863e-08
1.80736e-07
1.21768e-08
1.78932e-07
1.1517e-08
1.77185e-07
1.09019e-08
1.75497e-07
1.03267e-08
1.73867e-07
9.78706e-09
1.72295e-07
9.27903e-09
1.70779e-07
8.79886e-09
1.6932e-07
8.34307e-09
1.67917e-07
7.9082e-09
1.66569e-07
7.49118e-09
1.65275e-07
7.0884e-09
1.64035e-07
6.69732e-09
1.6285e-07
6.31322e-09
1.61719e-07
5.93485e-09
1.60643e-07
5.55436e-09
1.59622e-07
5.17373e-09
1.5866e-07
4.77786e-09
1.57757e-07
4.3759e-09
1.56917e-07
3.93877e-09
1.56144e-07
3.48677e-09
1.55443e-07
2.9729e-09
1.54825e-07
2.41637e-09
1.54293e-07
1.78328e-09
1.53868e-07
9.88741e-10
1.53566e-07
2.04476e-10
1.53383e-07
-1.2388e-09
1.53452e-07
-2.2841e-09
-5.33706e-09
1.53265e-07
2.1227e-07
8.68952e-08
2.15143e-07
8.85647e-08
2.16817e-07
6.22426e-08
2.17861e-07
5.23598e-08
2.18275e-07
4.60394e-08
2.18399e-07
4.0524e-08
2.18331e-07
3.65992e-08
2.1804e-07
3.36978e-08
2.1752e-07
3.12555e-08
2.16788e-07
2.91056e-08
2.1587e-07
2.72003e-08
2.14789e-07
2.5495e-08
2.13572e-07
2.39501e-08
2.12244e-07
2.25382e-08
2.10828e-07
2.12406e-08
2.09346e-07
2.00435e-08
2.07816e-07
1.89359e-08
2.06254e-07
1.79086e-08
2.04675e-07
1.69536e-08
2.03089e-07
1.60641e-08
2.01506e-07
1.52341e-08
1.99934e-07
1.44581e-08
1.9838e-07
1.37312e-08
1.96848e-07
1.30488e-08
1.95343e-07
1.24069e-08
1.93868e-07
1.18016e-08
1.92426e-07
1.12293e-08
1.91018e-07
1.06865e-08
1.89647e-07
1.01699e-08
1.88314e-07
9.67627e-09
1.8702e-07
9.20247e-09
1.85765e-07
8.74551e-09
1.84552e-07
8.30183e-09
1.8338e-07
7.86891e-09
1.82252e-07
7.44189e-09
1.81167e-07
7.01941e-09
1.80128e-07
6.59332e-09
1.79137e-07
6.16533e-09
1.78194e-07
5.71993e-09
1.77305e-07
5.26542e-09
1.76471e-07
4.77291e-09
1.75698e-07
4.25961e-09
1.74989e-07
3.68167e-09
1.74357e-07
3.04882e-09
1.73803e-07
2.33741e-09
1.73348e-07
1.44377e-09
1.73008e-07
5.44026e-10
1.72764e-07
-9.95097e-10
1.72747e-07
-2.26704e-09
-5.11679e-09
1.72527e-07
2.18315e-07
8.05605e-08
2.21192e-07
8.56879e-08
2.2279e-07
6.06449e-08
2.23863e-07
5.12867e-08
2.24385e-07
4.55169e-08
2.24687e-07
4.02227e-08
2.24895e-07
3.63912e-08
2.24981e-07
3.36113e-08
2.24925e-07
3.13114e-08
2.24728e-07
2.93034e-08
2.24392e-07
2.75357e-08
2.23925e-07
2.59619e-08
2.23336e-07
2.45397e-08
2.22635e-07
2.32392e-08
2.21835e-07
2.20405e-08
2.20949e-07
2.09292e-08
2.19991e-07
1.98944e-08
2.18971e-07
1.89277e-08
2.17903e-07
1.80218e-08
2.16796e-07
1.7171e-08
2.1566e-07
1.63701e-08
2.14504e-07
1.56149e-08
2.13334e-07
1.49013e-08
2.12157e-07
1.42257e-08
2.10979e-07
1.35849e-08
2.09805e-07
1.29758e-08
2.08638e-07
1.23954e-08
2.07484e-07
1.18408e-08
2.06345e-07
1.13092e-08
2.05223e-07
1.07977e-08
2.04122e-07
1.03035e-08
2.03044e-07
9.82388e-09
2.0199e-07
9.35533e-09
2.00964e-07
8.89547e-09
1.99966e-07
8.43943e-09
1.99e-07
7.98582e-09
1.98067e-07
7.52636e-09
1.9717e-07
7.06238e-09
1.96311e-07
6.5785e-09
1.95495e-07
6.08158e-09
1.94724e-07
5.5441e-09
1.94005e-07
4.97888e-09
1.93339e-07
4.34726e-09
1.9274e-07
3.6478e-09
1.92209e-07
2.86848e-09
1.91763e-07
1.8893e-09
1.91423e-07
8.84872e-10
1.91154e-07
-7.26378e-10
1.91078e-07
-2.19153e-09
-4.8852e-09
1.90847e-07
2.24549e-07
7.45047e-08
2.27452e-07
8.27849e-08
2.28986e-07
5.91111e-08
2.30066e-07
5.02063e-08
2.30629e-07
4.49538e-08
2.30979e-07
3.98728e-08
2.31277e-07
3.60935e-08
2.31511e-07
3.33769e-08
2.31664e-07
3.11588e-08
2.31733e-07
2.92344e-08
2.31718e-07
2.7551e-08
2.31616e-07
2.60634e-08
2.31428e-07
2.47278e-08
2.31155e-07
2.35122e-08
2.30801e-07
2.23947e-08
2.3037e-07
2.13596e-08
2.2987e-07
2.03952e-08
2.29305e-07
1.94922e-08
2.28684e-07
1.86433e-08
2.28012e-07
1.78425e-08
2.27297e-07
1.7085e-08
2.26546e-07
1.63665e-08
2.25763e-07
1.56836e-08
2.24956e-07
1.5033e-08
2.24129e-07
1.44118e-08
2.23287e-07
1.38175e-08
2.22435e-07
1.32473e-08
2.21577e-07
1.2699e-08
2.20717e-07
1.21698e-08
2.19857e-07
1.16575e-08
2.19001e-07
1.11592e-08
2.18152e-07
1.06726e-08
2.17313e-07
1.01943e-08
2.16487e-07
9.72189e-09
2.15676e-07
9.25068e-09
2.14882e-07
8.77916e-09
2.1411e-07
8.29913e-09
2.13361e-07
7.81141e-09
2.12638e-07
7.30108e-09
2.11946e-07
6.77324e-09
2.11288e-07
6.20252e-09
2.1067e-07
5.59657e-09
2.10094e-07
4.92309e-09
2.09573e-07
4.16923e-09
2.09108e-07
3.33398e-09
2.08711e-07
2.28571e-09
2.08405e-07
1.1908e-09
2.08148e-07
-4.69353e-10
2.08047e-07
-2.08985e-09
-4.66538e-09
2.07827e-07
2.30975e-07
6.87356e-08
2.33913e-07
7.98468e-08
2.3539e-07
5.76343e-08
2.36479e-07
4.91175e-08
2.37075e-07
4.43575e-08
2.3744e-07
3.95078e-08
2.3776e-07
3.57738e-08
2.3804e-07
3.30965e-08
2.38268e-07
3.09307e-08
2.38446e-07
2.90563e-08
2.38576e-07
2.7421e-08
2.38656e-07
2.59834e-08
2.38684e-07
2.47004e-08
2.38657e-07
2.35391e-08
2.38575e-07
2.24765e-08
2.38439e-07
2.14961e-08
2.38249e-07
2.05851e-08
2.38007e-07
1.97336e-08
2.37717e-07
1.89334e-08
2.37381e-07
1.81783e-08
2.37003e-07
1.74629e-08
2.36587e-07
1.67829e-08
2.36136e-07
1.61346e-08
2.35654e-07
1.55148e-08
2.35145e-07
1.49206e-08
2.34613e-07
1.43496e-08
2.34061e-07
1.37992e-08
2.33493e-07
1.32673e-08
2.32912e-07
1.27513e-08
2.3232e-07
1.2249e-08
2.31721e-07
1.17579e-08
2.31119e-07
1.12755e-08
2.30514e-07
1.07986e-08
2.29911e-07
1.0325e-08
2.29312e-07
9.8498e-09
2.2872e-07
9.37145e-09
2.28137e-07
8.88188e-09
2.27567e-07
8.38127e-09
2.27013e-07
7.8555e-09
2.26478e-07
7.30754e-09
2.25966e-07
6.71475e-09
2.25483e-07
6.07931e-09
2.25031e-07
5.37555e-09
2.2462e-07
4.5802e-09
2.24253e-07
3.7012e-09
2.23937e-07
2.60119e-09
2.23696e-07
1.43194e-09
2.23483e-07
-2.55998e-10
2.23386e-07
-1.99297e-09
-4.47833e-09
2.23199e-07
2.37601e-07
6.32591e-08
2.40579e-07
7.68693e-08
2.41999e-07
5.62144e-08
2.43095e-07
4.80213e-08
2.43728e-07
4.37244e-08
2.44106e-07
3.91296e-08
2.44431e-07
3.54485e-08
2.44725e-07
3.28032e-08
2.44976e-07
3.06796e-08
2.45191e-07
2.88415e-08
2.45375e-07
2.72365e-08
2.4553e-07
2.58283e-08
2.45655e-07
2.45758e-08
2.45747e-07
2.34464e-08
2.45807e-07
2.2417e-08
2.45832e-07
2.14707e-08
2.45823e-07
2.05945e-08
2.45779e-07
1.97778e-08
2.457e-07
1.90123e-08
2.45587e-07
1.8291e-08
2.45442e-07
1.76083e-08
2.45265e-07
1.69596e-08
2.45059e-07
1.63409e-08
2.44825e-07
1.57487e-08
2.44565e-07
1.51802e-08
2.44282e-07
1.46326e-08
2.43978e-07
1.41034e-08
2.43655e-07
1.35904e-08
2.43315e-07
1.30911e-08
2.42961e-07
1.26033e-08
2.42595e-07
1.21243e-08
2.42218e-07
1.16519e-08
2.41834e-07
1.11827e-08
2.41445e-07
1.07144e-08
2.41052e-07
1.02422e-08
2.4066e-07
9.76434e-09
2.40268e-07
9.27292e-09
2.39882e-07
8.76732e-09
2.39504e-07
8.23442e-09
2.39136e-07
7.67489e-09
2.38782e-07
7.06904e-09
2.38447e-07
6.41375e-09
2.38133e-07
5.68953e-09
2.37849e-07
4.86456e-09
2.37597e-07
3.95281e-09
2.37381e-07
2.81722e-09
2.37223e-07
1.58994e-09
2.37076e-07
-1.08161e-10
2.37008e-07
-1.92506e-09
-4.33932e-09
2.36869e-07
2.44437e-07
5.80788e-08
2.47452e-07
7.38534e-08
2.48817e-07
5.48498e-08
2.49916e-07
4.69222e-08
2.50588e-07
4.30527e-08
2.50983e-07
3.87346e-08
2.51313e-07
3.51183e-08
2.51612e-07
3.25041e-08
2.51871e-07
3.04206e-08
2.52097e-07
2.86156e-08
2.52299e-07
2.70347e-08
2.5248e-07
2.56471e-08
2.52641e-07
2.44144e-08
2.52783e-07
2.33046e-08
2.52905e-07
2.22951e-08
2.53007e-07
2.13691e-08
2.53087e-07
2.05138e-08
2.53147e-07
1.97184e-08
2.53184e-07
1.89746e-08
2.532e-07
1.82752e-08
2.53194e-07
1.76144e-08
2.53166e-07
1.69873e-08
2.53118e-07
1.63897e-08
2.53048e-07
1.58179e-08
2.5296e-07
1.5269e-08
2.52852e-07
1.474e-08
2.52727e-07
1.42284e-08
2.52586e-07
1.37317e-08
2.5243e-07
1.32474e-08
2.5226e-07
1.27733e-08
2.52077e-07
1.23066e-08
2.51884e-07
1.18449e-08
2.51682e-07
1.13849e-08
2.51472e-07
1.09242e-08
2.51257e-07
1.04578e-08
2.51037e-07
9.98379e-09
2.50816e-07
9.49443e-09
2.50595e-07
8.98824e-09
2.50376e-07
8.45317e-09
2.50163e-07
7.8876e-09
2.49958e-07
7.27471e-09
2.49765e-07
6.60661e-09
2.49585e-07
5.86907e-09
2.49426e-07
5.02401e-09
2.4929e-07
4.08834e-09
2.49177e-07
2.93059e-09
2.49107e-07
1.66023e-09
2.49033e-07
-3.47881e-11
2.49008e-07
-1.89992e-09
-4.25535e-09
2.48924e-07
2.51489e-07
5.31966e-08
2.54533e-07
7.08091e-08
2.55853e-07
5.35294e-08
2.5695e-07
4.58256e-08
2.5766e-07
4.23432e-08
2.58074e-07
3.83202e-08
2.5841e-07
3.47822e-08
2.58715e-07
3.21995e-08
2.58979e-07
3.01561e-08
2.5921e-07
2.83848e-08
2.59417e-07
2.68273e-08
2.59607e-07
2.54577e-08
2.5978e-07
2.42408e-08
2.5994e-07
2.31456e-08
2.60085e-07
2.21496e-08
2.60217e-07
2.12368e-08
2.60337e-07
2.03944e-08
2.60443e-07
1.96121e-08
2.60536e-07
1.88814e-08
2.60616e-07
1.81953e-08
2.60683e-07
1.75478e-08
2.60736e-07
1.6934e-08
2.60776e-07
1.63497e-08
2.60803e-07
1.57911e-08
2.60817e-07
1.52551e-08
2.60818e-07
1.47386e-08
2.60807e-07
1.42391e-08
2.60785e-07
1.37539e-08
2.60752e-07
1.32806e-08
2.60708e-07
1.28168e-08
2.60655e-07
1.23596e-08
2.60594e-07
1.19066e-08
2.60524e-07
1.14543e-08
2.60449e-07
1.10001e-08
2.60367e-07
1.05393e-08
2.60282e-07
1.00693e-08
2.60193e-07
9.58282e-09
2.60104e-07
9.07743e-09
2.60015e-07
8.54213e-09
2.59929e-07
7.97316e-09
2.59848e-07
7.35632e-09
2.59775e-07
6.67971e-09
2.59711e-07
5.93316e-09
2.5966e-07
5.07476e-09
2.59627e-07
4.1215e-09
2.59606e-07
2.95151e-09
2.59615e-07
1.65068e-09
2.59613e-07
-3.24976e-11
2.59634e-07
-1.92047e-09
-4.22463e-09
2.59603e-07
2.58767e-07
4.86131e-08
2.61829e-07
6.77469e-08
2.63116e-07
5.22424e-08
2.64205e-07
4.47365e-08
2.6495e-07
4.15981e-08
2.65386e-07
3.78842e-08
2.65729e-07
3.4439e-08
2.6604e-07
3.18888e-08
2.6631e-07
2.98859e-08
2.66545e-07
2.81499e-08
2.66756e-07
2.66167e-08
2.66948e-07
2.5265e-08
2.67126e-07
2.40631e-08
2.67291e-07
2.29808e-08
2.67444e-07
2.19963e-08
2.67587e-07
2.10938e-08
2.67721e-07
2.02608e-08
2.67846e-07
1.94874e-08
2.67962e-07
1.87653e-08
2.6807e-07
1.80875e-08
2.68169e-07
1.74481e-08
2.68261e-07
1.68424e-08
2.68345e-07
1.62659e-08
2.68421e-07
1.57151e-08
2.68489e-07
1.51867e-08
2.6855e-07
1.46777e-08
2.68603e-07
1.41854e-08
2.6865e-07
1.37072e-08
2.6869e-07
1.32406e-08
2.68724e-07
1.27831e-08
2.68752e-07
1.23319e-08
2.68774e-07
1.18843e-08
2.68791e-07
1.1437e-08
2.68804e-07
1.09871e-08
2.68814e-07
1.05298e-08
2.68821e-07
1.00624e-08
2.68826e-07
9.57779e-09
2.6883e-07
9.07264e-09
2.68835e-07
8.53701e-09
2.68843e-07
7.96524e-09
2.68854e-07
7.34531e-09
2.68872e-07
6.66228e-09
2.68896e-07
5.90871e-09
2.6893e-07
5.04117e-09
2.68977e-07
4.07442e-09
2.6903e-07
2.89871e-09
2.69103e-07
1.57737e-09
2.69159e-07
-8.89033e-11
2.6922e-07
-1.981e-09
-4.23848e-09
2.69234e-07
2.66279e-07
4.43267e-08
2.69348e-07
6.46776e-08
2.70612e-07
5.0978e-08
2.7169e-07
4.36592e-08
2.72467e-07
4.08205e-08
2.72926e-07
3.74251e-08
2.73277e-07
3.4088e-08
2.73594e-07
3.1572e-08
2.73871e-07
2.96094e-08
2.7411e-07
2.79105e-08
2.74324e-07
2.64029e-08
2.74519e-07
2.50697e-08
2.74699e-07
2.38829e-08
2.74867e-07
2.28136e-08
2.75023e-07
2.18401e-08
2.7517e-07
2.0947e-08
2.75308e-07
2.01223e-08
2.75439e-07
1.93563e-08
2.75564e-07
1.86408e-08
2.75682e-07
1.7969e-08
2.75795e-07
1.73353e-08
2.75903e-07
1.67348e-08
2.76005e-07
1.61632e-08
2.76103e-07
1.56171e-08
2.76197e-07
1.5093e-08
2.76287e-07
1.45881e-08
2.76372e-07
1.40996e-08
2.76455e-07
1.36251e-08
2.76533e-07
1.31619e-08
2.76609e-07
1.27076e-08
2.76681e-07
1.22593e-08
2.76751e-07
1.18143e-08
2.76819e-07
1.13692e-08
2.76885e-07
1.09211e-08
2.7695e-07
1.04653e-08
2.77013e-07
9.99845e-09
2.77077e-07
9.51399e-09
2.77142e-07
9.00775e-09
2.77208e-07
8.47072e-09
2.77278e-07
7.89565e-09
2.77351e-07
7.27226e-09
2.7743e-07
6.58352e-09
2.77515e-07
5.8235e-09
2.77607e-07
4.94911e-09
2.7771e-07
3.97141e-09
2.77815e-07
2.79384e-09
2.77933e-07
1.45959e-09
2.78031e-07
-1.8741e-10
2.78121e-07
-2.07053e-09
-4.28404e-09
2.78166e-07
2.74033e-07
4.03346e-08
2.77099e-07
6.16119e-08
2.78351e-07
4.97259e-08
2.79413e-07
4.25973e-08
2.80219e-07
4.00142e-08
2.80703e-07
3.69413e-08
2.81063e-07
3.37283e-08
2.81386e-07
3.12493e-08
2.81668e-07
2.93265e-08
2.81913e-07
2.76659e-08
2.8213e-07
2.61855e-08
2.82328e-07
2.48717e-08
2.82511e-07
2.37006e-08
2.8268e-07
2.26445e-08
2.82838e-07
2.16821e-08
2.82986e-07
2.07985e-08
2.83127e-07
1.99819e-08
2.8326e-07
1.92228e-08
2.83388e-07
1.85134e-08
2.8351e-07
1.78469e-08
2.83627e-07
1.72177e-08
2.83741e-07
1.66212e-08
2.83851e-07
1.60532e-08
2.83958e-07
1.55101e-08
2.84062e-07
1.49887e-08
2.84164e-07
1.44861e-08
2.84264e-07
1.39997e-08
2.84362e-07
1.35268e-08
2.84459e-07
1.30651e-08
2.84555e-07
1.26119e-08
2.8465e-07
1.21644e-08
2.84744e-07
1.172e-08
2.84838e-07
1.12753e-08
2.84932e-07
1.0827e-08
2.85027e-07
1.03707e-08
2.85122e-07
9.90283e-09
2.85219e-07
9.41698e-09
2.85319e-07
8.90833e-09
2.85421e-07
8.36867e-09
2.85527e-07
7.78952e-09
2.85637e-07
7.16189e-09
2.85753e-07
6.4675e-09
2.85876e-07
5.70097e-09
2.86004e-07
4.82094e-09
2.86141e-07
3.83396e-09
2.86279e-07
2.65665e-09
2.86423e-07
1.3152e-09
2.86547e-07
-3.1174e-10
2.86654e-07
-2.17735e-09
-4.34835e-09
2.86718e-07
2.8204e-07
3.66319e-08
2.85091e-07
5.8561e-08
2.8634e-07
4.84766e-08
2.87384e-07
4.15537e-08
2.88215e-07
3.91836e-08
2.88724e-07
3.64315e-08
2.89094e-07
3.33588e-08
2.89423e-07
3.09206e-08
2.89712e-07
2.9037e-08
2.89962e-07
2.7416e-08
2.90183e-07
2.59644e-08
2.90384e-07
2.46708e-08
2.90569e-07
2.35158e-08
2.9074e-07
2.24734e-08
2.90899e-07
2.15225e-08
2.91049e-07
2.06486e-08
2.91191e-07
1.98402e-08
2.91326e-07
1.90881e-08
2.91454e-07
1.83846e-08
2.91578e-07
1.77232e-08
2.91697e-07
1.70984e-08
2.91813e-07
1.65055e-08
2.91926e-07
1.59405e-08
2.92036e-07
1.53999e-08
2.92144e-07
1.48804e-08
2.92251e-07
1.43793e-08
2.92357e-07
1.38939e-08
2.92462e-07
1.34218e-08
2.92567e-07
1.29604e-08
2.92671e-07
1.25073e-08
2.92776e-07
1.20595e-08
2.92881e-07
1.16146e-08
2.92988e-07
1.11689e-08
2.93095e-07
1.07194e-08
2.93205e-07
1.02615e-08
2.93316e-07
9.79138e-09
2.9343e-07
9.30304e-09
2.93547e-07
8.79105e-09
2.93668e-07
8.24781e-09
2.93794e-07
7.664e-09
2.93924e-07
7.03143e-09
2.9406e-07
6.33136e-09
2.94203e-07
5.55818e-09
2.94351e-07
4.67322e-09
2.94506e-07
3.67836e-09
2.94661e-07
2.50252e-09
2.94817e-07
1.15841e-09
2.94954e-07
-4.48408e-10
2.95068e-07
-2.29089e-09
-4.41984e-09
2.95139e-07
2.90309e-07
3.32122e-08
2.93334e-07
5.55359e-08
2.94589e-07
4.72214e-08
2.95612e-07
4.05304e-08
2.96462e-07
3.83336e-08
2.96999e-07
3.58948e-08
2.9738e-07
3.29781e-08
2.97714e-07
3.0586e-08
2.9801e-07
2.87409e-08
2.98266e-07
2.71604e-08
2.98491e-07
2.57391e-08
2.98695e-07
2.44668e-08
2.98882e-07
2.33285e-08
2.99056e-07
2.23001e-08
2.99217e-07
2.13612e-08
2.99368e-07
2.04972e-08
2.99511e-07
1.96973e-08
2.99647e-07
1.89523e-08
2.99777e-07
1.82549e-08
2.99901e-07
1.75986e-08
3.00022e-07
1.69781e-08
3.00138e-07
1.63888e-08
3.00252e-07
1.58267e-08
3.00364e-07
1.52883e-08
3.00474e-07
1.47705e-08
3.00582e-07
1.42706e-08
3.0069e-07
1.3786e-08
3.00798e-07
1.33141e-08
3.00906e-07
1.28526e-08
3.01014e-07
1.2399e-08
3.01123e-07
1.19505e-08
3.01233e-07
1.15043e-08
3.01345e-07
1.10572e-08
3.01459e-07
1.06057e-08
3.01575e-07
1.01456e-08
3.01693e-07
9.67269e-09
3.01815e-07
9.18125e-09
3.01941e-07
8.66541e-09
3.02071e-07
8.11804e-09
3.02205e-07
7.52929e-09
3.02345e-07
6.8914e-09
3.02491e-07
6.18575e-09
3.02643e-07
5.40603e-09
3.028e-07
4.51673e-09
3.02963e-07
3.51541e-09
3.03123e-07
2.34189e-09
3.03283e-07
9.98882e-10
3.03422e-07
-5.87742e-10
3.03534e-07
-2.40331e-09
-4.48977e-09
3.03604e-07
2.98848e-07
3.00673e-08
3.01836e-07
5.25479e-08
3.03105e-07
4.59522e-08
3.04106e-07
3.95288e-08
3.0497e-07
3.74696e-08
3.05535e-07
3.53303e-08
3.05928e-07
3.25849e-08
3.06269e-07
3.02455e-08
3.06571e-07
2.84382e-08
3.06833e-07
2.68987e-08
3.07063e-07
2.55094e-08
3.0727e-07
2.42594e-08
3.0746e-07
2.31384e-08
3.07636e-07
2.21245e-08
3.07799e-07
2.11979e-08
3.07952e-07
2.03442e-08
3.08096e-07
1.95529e-08
3.08233e-07
1.88154e-08
3.08364e-07
1.81242e-08
3.0849e-07
1.74731e-08
3.08611e-07
1.6857e-08
3.08728e-07
1.62713e-08
3.08843e-07
1.57121e-08
3.08955e-07
1.51759e-08
3.09066e-07
1.46598e-08
3.09176e-07
1.4161e-08
3.09285e-07
1.36769e-08
3.09394e-07
1.32052e-08
3.09503e-07
1.27434e-08
3.09613e-07
1.22891e-08
3.09724e-07
1.18396e-08
3.09836e-07
1.1392e-08
3.0995e-07
1.09431e-08
3.10066e-07
1.04895e-08
3.10185e-07
1.00269e-08
3.10307e-07
9.55088e-09
3.10432e-07
9.05606e-09
3.10561e-07
8.53618e-09
3.10695e-07
7.98446e-09
3.10833e-07
7.39075e-09
3.10977e-07
6.74748e-09
3.11126e-07
6.03654e-09
3.11282e-07
5.25067e-09
3.11441e-07
4.35767e-09
3.11605e-07
3.35146e-09
3.11766e-07
2.18112e-09
3.11922e-07
8.425e-10
3.12058e-07
-7.23568e-10
3.12164e-07
-2.50946e-09
-4.55227e-09
3.12226e-07
3.07667e-07
2.71874e-08
3.10607e-07
4.96082e-08
3.11897e-07
4.46623e-08
3.12876e-07
3.85492e-08
3.13749e-07
3.65968e-08
3.14341e-07
3.47384e-08
3.14748e-07
3.21776e-08
3.15095e-07
2.98988e-08
3.15404e-07
2.81289e-08
3.15673e-07
2.66306e-08
3.15907e-07
2.52749e-08
3.16118e-07
2.40484e-08
3.16311e-07
2.29453e-08
3.16489e-07
2.19464e-08
3.16655e-07
2.10324e-08
3.16809e-07
2.01894e-08
3.16955e-07
1.94071e-08
3.17094e-07
1.86771e-08
3.17225e-07
1.79923e-08
3.17352e-07
1.73466e-08
3.17474e-07
1.6735e-08
3.17592e-07
1.61529e-08
3.17708e-07
1.55966e-08
3.17821e-07
1.50628e-08
3.17932e-07
1.45483e-08
3.18043e-07
1.40506e-08
3.18153e-07
1.35671e-08
3.18262e-07
1.30954e-08
3.18372e-07
1.26333e-08
3.18483e-07
1.21783e-08
3.18595e-07
1.17276e-08
3.18709e-07
1.12786e-08
3.18824e-07
1.08278e-08
3.18941e-07
1.0372e-08
3.19062e-07
9.90672e-09
3.19185e-07
9.42764e-09
3.19312e-07
8.92938e-09
3.19442e-07
8.40549e-09
3.19577e-07
7.84942e-09
3.19717e-07
7.25093e-09
3.19862e-07
6.60244e-09
3.20012e-07
5.88664e-09
3.20167e-07
5.09526e-09
3.20326e-07
4.19933e-09
3.20487e-07
3.1899e-09
3.20645e-07
2.02376e-09
3.20795e-07
6.92465e-10
3.20923e-07
-8.52264e-10
3.2102e-07
-2.60622e-09
-4.60367e-09
3.21072e-07
3.16777e-07
2.45613e-08
3.19658e-07
4.67278e-08
3.20974e-07
4.33461e-08
3.21932e-07
3.75914e-08
3.22808e-07
3.57201e-08
3.23427e-07
3.41197e-08
3.2385e-07
3.17547e-08
3.24203e-07
2.95455e-08
3.24519e-07
2.78131e-08
3.24794e-07
2.63559e-08
3.25033e-07
2.50352e-08
3.25248e-07
2.38335e-08
3.25445e-07
2.27491e-08
3.25625e-07
2.17656e-08
3.25793e-07
2.08647e-08
3.2595e-07
2.00327e-08
3.26097e-07
1.92596e-08
3.26237e-07
1.85374e-08
3.2637e-07
1.78591e-08
3.26498e-07
1.7219e-08
3.26621e-07
1.66119e-08
3.2674e-07
1.60337e-08
3.26857e-07
1.54804e-08
3.26971e-07
1.49488e-08
3.27083e-07
1.4436e-08
3.27194e-07
1.39394e-08
3.27305e-07
1.34564e-08
3.27415e-07
1.29849e-08
3.27526e-07
1.25224e-08
3.27638e-07
1.20666e-08
3.2775e-07
1.16149e-08
3.27865e-07
1.11643e-08
3.27981e-07
1.07117e-08
3.28099e-07
1.02536e-08
3.2822e-07
9.78577e-09
3.28344e-07
9.30363e-09
3.28472e-07
8.80196e-09
3.28603e-07
8.2742e-09
3.28738e-07
7.7139e-09
3.28878e-07
7.11093e-09
3.29023e-07
6.45757e-09
3.29173e-07
5.73743e-09
3.29326e-07
4.94137e-09
3.29482e-07
4.04337e-09
3.2964e-07
3.03247e-09
3.29792e-07
1.87172e-09
3.29934e-07
5.50423e-10
3.30053e-07
-9.71788e-10
3.30139e-07
-2.69179e-09
-4.64178e-09
3.30177e-07
3.26188e-07
2.21764e-08
3.28998e-07
4.39177e-08
3.30344e-07
4.19993e-08
3.31282e-07
3.6654e-08
3.32157e-07
3.48443e-08
3.32801e-07
3.34758e-08
3.33241e-07
3.13146e-08
3.33602e-07
2.91852e-08
3.33924e-07
2.74909e-08
3.34205e-07
2.60744e-08
3.34451e-07
2.479e-08
3.3467e-07
2.36145e-08
3.34869e-07
2.25493e-08
3.35053e-07
2.15818e-08
3.35224e-07
2.06944e-08
3.35383e-07
1.98737e-08
3.35532e-07
1.91102e-08
3.35673e-07
1.8396e-08
3.35808e-07
1.77246e-08
3.35937e-07
1.70901e-08
3.36061e-07
1.64878e-08
3.36181e-07
1.59133e-08
3.36299e-07
1.53631e-08
3.36413e-07
1.48339e-08
3.36527e-07
1.43228e-08
3.36639e-07
1.38273e-08
3.3675e-07
1.33449e-08
3.36862e-07
1.28735e-08
3.36973e-07