/*--------------------------------*- C++ -*----------------------------------*\
  =========                 |
  \\      /  F ield         | OpenFOAM: The Open Source CFD Toolbox
   \\    /   O peration     | Website:  https://openfoam.org
    \\  /    A nd           | Version:  7
     \\/     M anipulation  |
\*---------------------------------------------------------------------------*/
FoamFile
{
    version     2.0;
    format      ascii;
    class       surfaceScalarField;
    location    "0.36";
    object      phi_0;
}
// * * * * * * * * * * * * * * * * * * * * * * * * * * * * * * * * * * * * * //

dimensions      [0 3 -1 0 0 0 0];

internalField   nonuniform List<scalar> 
139350
(
6.45133e-08
9.21182e-08
3.19678e-08
3.25455e-08
2.30646e-08
8.90317e-09
1.95818e-08
3.48276e-09
1.76318e-08
1.95007e-09
1.62033e-08
1.42852e-09
1.50718e-08
1.13143e-09
1.41608e-08
9.11007e-10
1.34116e-08
7.49238e-10
1.27808e-08
6.30775e-10
1.22397e-08
5.41083e-10
1.1769e-08
4.70699e-10
1.1355e-08
4.14026e-10
1.09875e-08
3.67541e-10
1.06586e-08
3.28839e-10
1.03624e-08
2.96197e-10
1.00941e-08
2.68349e-10
9.84972e-09
2.44344e-10
9.62626e-09
2.23459e-10
9.42113e-09
2.05133e-10
9.23221e-09
1.88923e-10
9.05773e-09
1.74479e-10
8.89621e-09
1.61517e-10
8.74641e-09
1.49803e-10
8.60727e-09
1.39144e-10
8.47789e-09
1.29378e-10
8.35752e-09
1.20365e-10
8.24554e-09
1.11985e-10
8.14141e-09
1.04129e-10
8.04471e-09
9.67042e-11
7.9551e-09
8.96106e-11
7.87232e-09
8.27798e-11
7.79621e-09
7.61008e-11
7.72669e-09
6.95258e-11
7.66377e-09
6.2916e-11
7.60754e-09
5.62329e-11
7.55822e-09
4.9316e-11
7.51617e-09
4.20556e-11
7.48176e-09
3.44053e-11
7.45593e-09
2.5829e-11
7.43892e-09
1.70096e-11
7.43321e-09
5.71547e-12
7.4377e-09
-4.4882e-12
7.45935e-09
-2.16488e-11
7.49156e-09
-3.22167e-11
7.55543e-09
-6.38694e-11
7.62072e-09
-6.52842e-11
7.782e-09
-1.61284e-10
7.69315e-09
8.88544e-11
-3.82052e-09
1.15137e-08
1.25945e-07
1.27617e-07
9.12956e-08
6.71948e-08
7.19482e-08
2.82505e-08
6.12383e-08
1.41927e-08
5.48071e-08
8.38127e-09
5.03169e-08
5.91877e-09
4.68366e-08
4.61174e-09
4.4027e-08
3.72057e-09
4.17075e-08
3.06873e-09
3.97527e-08
2.58558e-09
3.80755e-08
2.21831e-09
3.66159e-08
1.9303e-09
3.53313e-08
1.69861e-09
3.41902e-08
1.50863e-09
3.31686e-08
1.35048e-09
3.22477e-08
1.21709e-09
3.14127e-08
1.1033e-09
3.06518e-08
1.00523e-09
2.99554e-08
9.19929e-10
2.93154e-08
8.4511e-10
2.87253e-08
7.78975e-10
2.81797e-08
7.20093e-10
2.76739e-08
6.67306e-10
2.72041e-08
6.19668e-10
2.67668e-08
5.76396e-10
2.63594e-08
5.36832e-10
2.59793e-08
5.00414e-10
2.56246e-08
4.66661e-10
2.52936e-08
4.35136e-10
2.49849e-08
4.05473e-10
2.46972e-08
3.77293e-10
2.44296e-08
3.50308e-10
2.41816e-08
3.24127e-10
2.39526e-08
2.98542e-10
2.37425e-08
2.73052e-10
2.35511e-08
2.47556e-10
2.33791e-08
2.21324e-10
2.32268e-08
1.94351e-10
2.30956e-08
1.65637e-10
2.29865e-08
1.34968e-10
2.29019e-08
1.01582e-10
2.28442e-08
6.34e-11
2.28169e-08
2.28377e-11
2.28263e-08
-3.10589e-11
2.28736e-08
-7.9482e-11
2.29824e-08
-1.72741e-10
2.31227e-08
-2.0557e-10
2.34525e-08
-4.91027e-10
2.35807e-08
-3.9395e-11
-5.08469e-09
2.48449e-08
1.58754e-07
1.35267e-07
1.36533e-07
8.94155e-08
1.17507e-07
4.72765e-08
1.03338e-07
2.83613e-08
9.33533e-08
1.83663e-08
8.60621e-08
1.321e-08
8.03635e-08
1.03103e-08
7.57211e-08
8.36296e-09
7.18525e-08
6.93728e-09
6.85702e-08
5.86788e-09
6.57409e-08
5.04765e-09
6.32699e-08
4.40135e-09
6.10886e-08
3.87984e-09
5.91461e-08
3.45115e-09
5.74031e-08
3.09349e-09
5.58289e-08
2.79129e-09
5.43991e-08
2.5331e-09
5.3094e-08
2.31031e-09
5.18976e-08
2.11634e-09
5.07966e-08
1.94609e-09
4.97801e-08
1.79553e-09
4.88387e-08
1.66145e-09
4.79648e-08
1.54125e-09
4.71516e-08
1.43281e-09
4.63936e-08
1.33437e-09
4.5686e-08
1.24445e-09
4.50246e-08
1.16179e-09
4.4406e-08
1.08531e-09
4.38271e-08
1.01404e-09
4.32854e-08
9.47155e-10
4.27789e-08
8.83844e-10
4.23057e-08
8.23451e-10
4.18647e-08
7.65157e-10
4.14547e-08
7.08492e-10
4.10754e-08
6.52409e-10
4.07262e-08
5.96729e-10
4.04077e-08
5.39793e-10
4.01201e-08
4.81985e-10
3.98653e-08
4.20407e-10
3.9644e-08
3.56354e-10
3.94605e-08
2.85059e-10
3.93157e-08
2.08167e-10
3.9218e-08
1.20504e-10
3.91699e-08
1.70344e-11
3.91827e-08
-9.22762e-11
3.92733e-08
-2.63259e-10
3.94276e-08
-3.59897e-10
3.97891e-08
-8.52533e-10
4.01683e-08
-4.18613e-10
-5.45866e-09
4.05423e-08
1.75612e-07
1.31171e-07
1.65628e-07
9.93994e-08
1.52747e-07
6.01576e-08
1.40148e-07
4.09607e-08
1.29478e-07
2.90357e-08
1.20851e-07
2.18376e-08
1.1375e-07
1.7411e-08
1.07781e-07
1.43321e-08
1.02693e-07
1.20254e-08
9.83032e-08
1.02575e-08
9.44724e-08
8.87847e-09
9.10948e-08
7.77892e-09
8.80907e-08
6.88393e-09
8.53987e-08
6.14317e-09
8.29705e-08
5.52164e-09
8.07678e-08
4.99402e-09
7.87594e-08
4.54147e-09
7.692e-08
4.14969e-09
7.52287e-08
3.80765e-09
7.36681e-08
3.50674e-09
7.22235e-08
3.24013e-09
7.08826e-08
3.00234e-09
6.96349e-08
2.78892e-09
6.84715e-08
2.59623e-09
6.73847e-08
2.42121e-09
6.63678e-08
2.26131e-09
6.54153e-08
2.11436e-09
6.45221e-08
1.97848e-09
6.36841e-08
1.85201e-09
6.28978e-08
1.7335e-09
6.216e-08
1.62157e-09
6.14684e-08
1.51509e-09
6.08209e-08
1.41268e-09
6.02158e-08
1.31352e-09
5.96524e-08
1.21589e-09
5.91296e-08
1.1195e-09
5.86478e-08
1.02153e-09
5.82069e-08
9.2289e-10
5.78091e-08
8.18227e-10
5.74545e-08
7.11009e-10
5.71485e-08
5.91008e-10
5.68912e-08
4.65527e-10
5.66933e-08
3.18362e-10
5.65554e-08
1.54971e-10
5.64938e-08
-3.07494e-11
5.65216e-08
-2.90992e-10
5.66391e-08
-4.77443e-10
5.69505e-08
-1.16394e-09
5.74367e-08
-9.04825e-10
-5.62469e-09
5.76028e-08
1.84511e-07
1.23445e-07
1.82344e-07
1.01566e-07
1.7613e-07
6.63713e-08
1.67782e-07
4.93091e-08
1.59174e-07
3.76439e-08
1.5128e-07
2.97307e-08
1.44221e-07
2.44704e-08
1.37935e-07
2.06186e-08
1.32348e-07
1.76119e-08
1.27377e-07
1.52283e-08
1.22936e-07
1.33194e-08
1.18949e-07
1.17664e-08
1.15351e-07
1.04824e-08
1.12087e-07
9.40626e-09
1.09115e-07
8.49401e-09
1.06396e-07
7.71293e-09
1.039e-07
7.03812e-09
1.01599e-07
6.45034e-09
9.9472e-08
5.93451e-09
9.75001e-08
5.47867e-09
9.5667e-08
5.07326e-09
9.39588e-08
4.71049e-09
9.23637e-08
4.38401e-09
9.08714e-08
4.08855e-09
8.94729e-08
3.81969e-09
8.81605e-08
3.57372e-09
8.69274e-08
3.34742e-09
8.57679e-08
3.13805e-09
8.46767e-08
2.94315e-09
8.36497e-08
2.76058e-09
8.26829e-08
2.58832e-09
8.17734e-08
2.42465e-09
8.09184e-08
2.2676e-09
8.0116e-08
2.11592e-09
7.93648e-08
1.96714e-09
7.86635e-08
1.82082e-09
7.80121e-08
1.67285e-09
7.74103e-08
1.52472e-09
7.68601e-08
1.3684e-09
7.63615e-08
1.20964e-09
7.59201e-08
1.03242e-09
7.55357e-08
8.49937e-10
7.52196e-08
6.34468e-10
7.49723e-08
4.02203e-10
7.48111e-08
1.30483e-10
7.47482e-08
-2.28053e-10
7.47935e-08
-5.22806e-10
7.50176e-08
-1.38804e-09
7.54849e-08
-1.37209e-09
-5.71763e-09
7.55778e-08
1.90343e-07
1.15319e-07
1.91862e-07
1.00047e-07
1.9027e-07
6.79633e-08
1.86172e-07
5.34068e-08
1.80743e-07
4.30726e-08
1.75003e-07
3.54705e-08
1.6932e-07
3.01538e-08
1.6385e-07
2.60888e-08
1.58689e-07
2.27723e-08
1.53881e-07
2.0037e-08
1.49426e-07
1.77738e-08
1.4531e-07
1.58829e-08
1.41507e-07
1.42851e-08
1.37992e-07
1.29214e-08
1.34738e-07
1.17476e-08
1.31722e-07
1.07296e-08
1.2892e-07
9.84031e-09
1.26312e-07
9.0584e-09
1.23879e-07
8.36658e-09
1.21607e-07
7.75089e-09
1.19481e-07
7.19991e-09
1.17487e-07
6.70424e-09
1.15615e-07
6.25606e-09
1.13855e-07
5.8488e-09
1.12197e-07
5.47691e-09
1.10635e-07
5.13565e-09
1.09162e-07
4.82092e-09
1.07771e-07
4.52912e-09
1.06457e-07
4.25709e-09
1.05215e-07
4.00199e-09
1.04043e-07
3.76118e-09
1.02935e-07
3.53237e-09
1.01889e-07
3.31298e-09
1.00904e-07
3.10131e-09
9.99771e-08
2.89415e-09
9.91071e-08
2.69084e-09
9.82938e-08
2.48606e-09
9.75369e-08
2.2817e-09
9.6838e-08
2.06724e-09
9.61973e-08
1.85034e-09
9.562e-08
1.60975e-09
9.51065e-08
1.36347e-09
9.46669e-08
1.07401e-09
9.43037e-08
7.65429e-10
9.40317e-08
4.02467e-10
9.38654e-08
-6.17497e-11
9.3818e-08
-4.75371e-10
9.3938e-08
-1.50812e-09
9.43257e-08
-1.75973e-09
-5.732e-09
9.43401e-08
1.95505e-07
1.07629e-07
1.98249e-07
9.73026e-08
1.98991e-07
6.72213e-08
1.97803e-07
5.45952e-08
1.95177e-07
4.56986e-08
1.91848e-07
3.87997e-08
1.88128e-07
3.38736e-08
1.8419e-07
3.00268e-08
1.80184e-07
2.67783e-08
1.7622e-07
2.40013e-08
1.72365e-07
2.16285e-08
1.68658e-07
1.95895e-08
1.6512e-07
1.78234e-08
1.61758e-07
1.6283e-08
1.58574e-07
1.4932e-08
1.55563e-07
1.37408e-08
1.52718e-07
1.26853e-08
1.50031e-07
1.17454e-08
1.47493e-07
1.09046e-08
1.45095e-07
1.0149e-08
1.42828e-07
9.46697e-09
1.40683e-07
8.84868e-09
1.38653e-07
8.28581e-09
1.36731e-07
7.77126e-09
1.34909e-07
7.29889e-09
1.33181e-07
6.86337e-09
1.31542e-07
6.46003e-09
1.29987e-07
6.08475e-09
1.2851e-07
5.7338e-09
1.27108e-07
5.40386e-09
1.25777e-07
5.09176e-09
1.24515e-07
4.79476e-09
1.23318e-07
4.50975e-09
1.22185e-07
4.23462e-09
1.21114e-07
3.96551e-09
1.20103e-07
3.7015e-09
1.19153e-07
3.43622e-09
1.18263e-07
3.17175e-09
1.17434e-07
2.8955e-09
1.16668e-07
2.61637e-09
1.15969e-07
2.30906e-09
1.15338e-07
1.99447e-09
1.14784e-07
1.62839e-09
1.14311e-07
1.23815e-09
1.13931e-07
7.82341e-10
1.13662e-07
2.07511e-10
1.13517e-07
-3.3001e-10
1.13526e-07
-1.51778e-09
1.1381e-07
-2.04369e-09
-5.66632e-09
1.13744e-07
2.0082e-07
1.00394e-07
2.03774e-07
9.43485e-08
2.05351e-07
6.56447e-08
2.05657e-07
5.42893e-08
2.04833e-07
4.65224e-08
2.03362e-07
4.02704e-08
2.01425e-07
3.5811e-08
1.99106e-07
3.23459e-08
1.96511e-07
2.93725e-08
1.93744e-07
2.67682e-08
1.90885e-07
2.44879e-08
1.87993e-07
2.24812e-08
1.85114e-07
2.07031e-08
1.82278e-07
1.91189e-08
1.79508e-07
1.77019e-08
1.76819e-07
1.64301e-08
1.74219e-07
1.52849e-08
1.71714e-07
1.42502e-08
1.69306e-07
1.33124e-08
1.66996e-07
1.24596e-08
1.64781e-07
1.16816e-08
1.6266e-07
1.09695e-08
1.60631e-07
1.03155e-08
1.58689e-07
9.71301e-09
1.56832e-07
9.15595e-09
1.55056e-07
8.63905e-09
1.53359e-07
8.15758e-09
1.51736e-07
7.70726e-09
1.50186e-07
7.2842e-09
1.48705e-07
6.88482e-09
1.47291e-07
6.50569e-09
1.45942e-07
6.14377e-09
1.44656e-07
5.79562e-09
1.43432e-07
5.45882e-09
1.42268e-07
5.12899e-09
1.41165e-07
4.80503e-09
1.40121e-07
4.47967e-09
1.39138e-07
4.15504e-09
1.38217e-07
3.817e-09
1.37358e-07
3.47494e-09
1.36566e-07
3.10091e-09
1.35844e-07
2.71656e-09
1.35198e-07
2.27457e-09
1.34636e-07
1.80039e-09
1.34164e-07
1.25352e-09
1.33805e-07
5.66802e-10
1.33571e-07
-9.56e-11
1.33475e-07
-1.42203e-09
1.33648e-07
-2.21708e-09
-5.53197e-09
1.33514e-07
2.06423e-07
9.35024e-08
2.09334e-07
9.14379e-08
2.11062e-07
6.39167e-08
2.11947e-07
5.34043e-08
2.12016e-07
4.64534e-08
2.11638e-07
4.06479e-08
2.10918e-07
3.65315e-08
2.09857e-07
3.34068e-08
2.08494e-07
3.07352e-08
2.06888e-07
2.83744e-08
2.05094e-07
2.62822e-08
2.0316e-07
2.44147e-08
2.0113e-07
2.27334e-08
1.99038e-07
2.12103e-08
1.96915e-07
1.98251e-08
1.94784e-07
1.85616e-08
1.92662e-07
1.74063e-08
1.90565e-07
1.63473e-08
1.88503e-07
1.53744e-08
1.86485e-07
1.44785e-08
1.84514e-07
1.36517e-08
1.82597e-07
1.28867e-08
1.80736e-07
1.21772e-08
1.78931e-07
1.15175e-08
1.77184e-07
1.09025e-08
1.75496e-07
1.03273e-08
1.73866e-07
9.78773e-09
1.72294e-07
9.27977e-09
1.70778e-07
8.79967e-09
1.69319e-07
8.34395e-09
1.67915e-07
7.90917e-09
1.66567e-07
7.49225e-09
1.65273e-07
7.08957e-09
1.64033e-07
6.6986e-09
1.62848e-07
6.31464e-09
1.61716e-07
5.93641e-09
1.6064e-07
5.55609e-09
1.59619e-07
5.17563e-09
1.58656e-07
4.77996e-09
1.57753e-07
4.3782e-09
1.56913e-07
3.94129e-09
1.5614e-07
3.48949e-09
1.55438e-07
2.97581e-09
1.54819e-07
2.41938e-09
1.54287e-07
1.78634e-09
1.53862e-07
9.91478e-10
1.5356e-07
2.06841e-10
1.53376e-07
-1.23813e-09
1.53445e-07
-2.28609e-09
-5.34502e-09
1.53258e-07
2.1227e-07
8.68951e-08
2.15143e-07
8.85647e-08
2.16817e-07
6.22425e-08
2.17862e-07
5.23597e-08
2.18275e-07
4.60394e-08
2.18399e-07
4.0524e-08
2.18331e-07
3.65994e-08
2.1804e-07
3.3698e-08
2.1752e-07
3.12558e-08
2.16788e-07
2.91059e-08
2.1587e-07
2.72007e-08
2.14789e-07
2.54953e-08
2.13572e-07
2.39504e-08
2.12244e-07
2.25385e-08
2.10828e-07
2.1241e-08
2.09346e-07
2.00439e-08
2.07816e-07
1.89363e-08
2.06254e-07
1.7909e-08
2.04674e-07
1.6954e-08
2.03088e-07
1.60646e-08
2.01505e-07
1.52346e-08
1.99933e-07
1.44586e-08
1.98379e-07
1.37317e-08
1.96847e-07
1.30494e-08
1.95342e-07
1.24076e-08
1.93867e-07
1.18023e-08
1.92425e-07
1.12301e-08
1.91017e-07
1.06873e-08
1.89646e-07
1.01708e-08
1.88313e-07
9.67728e-09
1.87018e-07
9.20358e-09
1.85764e-07
8.74673e-09
1.8455e-07
8.30318e-09
1.83378e-07
7.87038e-09
1.82249e-07
7.44351e-09
1.81165e-07
7.0212e-09
1.80125e-07
6.59529e-09
1.79134e-07
6.1675e-09
1.78191e-07
5.72233e-09
1.77301e-07
5.26804e-09
1.76467e-07
4.77578e-09
1.75694e-07
4.2627e-09
1.74985e-07
3.68498e-09
1.74352e-07
3.05225e-09
1.73797e-07
2.34091e-09
1.73342e-07
1.44694e-09
1.73002e-07
5.46741e-10
1.72758e-07
-9.94099e-10
1.72741e-07
-2.26897e-09
-5.12467e-09
1.7252e-07
2.18315e-07
8.05605e-08
2.21192e-07
8.56879e-08
2.2279e-07
6.06448e-08
2.23863e-07
5.12866e-08
2.24385e-07
4.55169e-08
2.24687e-07
4.02227e-08
2.24895e-07
3.63913e-08
2.24981e-07
3.36115e-08
2.24925e-07
3.13116e-08
2.24728e-07
2.93037e-08
2.24392e-07
2.75361e-08
2.23925e-07
2.59623e-08
2.23336e-07
2.45401e-08
2.22634e-07
2.32396e-08
2.21835e-07
2.20409e-08
2.20949e-07
2.09296e-08
2.1999e-07
1.98949e-08
2.18971e-07
1.89281e-08
2.17903e-07
1.80223e-08
2.16796e-07
1.71715e-08
2.1566e-07
1.63707e-08
2.14503e-07
1.56154e-08
2.13333e-07
1.49018e-08
2.12156e-07
1.42263e-08
2.10978e-07
1.35856e-08
2.09804e-07
1.29766e-08
2.08638e-07
1.23962e-08
2.07483e-07
1.18417e-08
2.06344e-07
1.13102e-08
2.05222e-07
1.07988e-08
2.04121e-07
1.03048e-08
2.03042e-07
9.82524e-09
2.01989e-07
9.35683e-09
2.00962e-07
8.89712e-09
1.99964e-07
8.44125e-09
1.98998e-07
7.98782e-09
1.98064e-07
7.52856e-09
1.97167e-07
7.06481e-09
1.96308e-07
6.58117e-09
1.95492e-07
6.0845e-09
1.9472e-07
5.54729e-09
1.94001e-07
4.98232e-09
1.93335e-07
4.35094e-09
1.92735e-07
3.65163e-09
1.92204e-07
2.87237e-09
1.91758e-07
1.89286e-09
1.91417e-07
8.879e-10
1.91148e-07
-7.25085e-10
1.91072e-07
-2.19335e-09
-4.89287e-09
1.9084e-07
2.24549e-07
7.45046e-08
2.27452e-07
8.27848e-08
2.28986e-07
5.9111e-08
2.30066e-07
5.02063e-08
2.30629e-07
4.49537e-08
2.30979e-07
3.98728e-08
2.31277e-07
3.60936e-08
2.31511e-07
3.33771e-08
2.31664e-07
3.11591e-08
2.31733e-07
2.92348e-08
2.31718e-07
2.75514e-08
2.31616e-07
2.60638e-08
2.31428e-07
2.47283e-08
2.31155e-07
2.35126e-08
2.30801e-07
2.23951e-08
2.3037e-07
2.13601e-08
2.29869e-07
2.03957e-08
2.29305e-07
1.94927e-08
2.28683e-07
1.86438e-08
2.28012e-07
1.78431e-08
2.27297e-07
1.70856e-08
2.26545e-07
1.63671e-08
2.25763e-07
1.56842e-08
2.24955e-07
1.50337e-08
2.24128e-07
1.44126e-08
2.23287e-07
1.38183e-08
2.22435e-07
1.32482e-08
2.21576e-07
1.27e-08
2.20716e-07
1.21709e-08
2.19856e-07
1.16587e-08
2.19e-07
1.11606e-08
2.18151e-07
1.06741e-08
2.17312e-07
1.01959e-08
2.16485e-07
9.72369e-09
2.15674e-07
9.25267e-09
2.14881e-07
8.78136e-09
2.14108e-07
8.30155e-09
2.13358e-07
7.81406e-09
2.12635e-07
7.304e-09
2.11944e-07
6.77643e-09
2.11285e-07
6.206e-09
2.10667e-07
5.60033e-09
2.10091e-07
4.9271e-09
2.09569e-07
4.1734e-09
2.09103e-07
3.33821e-09
2.08706e-07
2.28961e-09
2.084e-07
1.1941e-09
2.08143e-07
-4.67791e-10
2.08041e-07
-2.09149e-09
-4.67272e-09
2.07821e-07
2.30975e-07
6.87356e-08
2.33913e-07
7.98467e-08
2.3539e-07
5.76341e-08
2.36479e-07
4.91174e-08
2.37075e-07
4.43575e-08
2.3744e-07
3.95078e-08
2.3776e-07
3.57739e-08
2.3804e-07
3.30967e-08
2.38268e-07
3.0931e-08
2.38446e-07
2.90566e-08
2.38576e-07
2.74214e-08
2.38656e-07
2.59838e-08
2.38684e-07
2.47009e-08
2.38657e-07
2.35396e-08
2.38575e-07
2.2477e-08
2.38438e-07
2.14966e-08
2.38248e-07
2.05857e-08
2.38007e-07
1.97341e-08
2.37717e-07
1.8934e-08
2.37381e-07
1.81789e-08
2.37003e-07
1.74635e-08
2.36587e-07
1.67836e-08
2.36136e-07
1.61353e-08
2.35654e-07
1.55155e-08
2.35145e-07
1.49214e-08
2.34613e-07
1.43505e-08
2.34061e-07
1.38002e-08
2.33492e-07
1.32683e-08
2.32911e-07
1.27525e-08
2.32319e-07
1.22503e-08
2.3172e-07
1.17593e-08
2.31117e-07
1.12771e-08
2.30513e-07
1.08004e-08
2.2991e-07
1.03269e-08
2.2931e-07
9.85194e-09
2.28718e-07
9.37381e-09
2.28135e-07
8.88448e-09
2.27565e-07
8.38413e-09
2.2701e-07
7.85864e-09
2.26476e-07
7.31097e-09
2.25963e-07
6.71848e-09
2.2548e-07
6.08334e-09
2.25028e-07
5.37984e-09
2.24616e-07
4.58467e-09
2.24249e-07
3.70573e-09
2.23933e-07
2.60538e-09
2.23692e-07
1.43547e-09
2.23478e-07
-2.54196e-10
2.23381e-07
-1.99438e-09
-4.48522e-09
2.23193e-07
2.37601e-07
6.3259e-08
2.40579e-07
7.68692e-08
2.41999e-07
5.62143e-08
2.43095e-07
4.80212e-08
2.43728e-07
4.37244e-08
2.44106e-07
3.91296e-08
2.44432e-07
3.54486e-08
2.44725e-07
3.28034e-08
2.44976e-07
3.06799e-08
2.45191e-07
2.88418e-08
2.45375e-07
2.72369e-08
2.4553e-07
2.58287e-08
2.45655e-07
2.45763e-08
2.45747e-07
2.34469e-08
2.45807e-07
2.24176e-08
2.45832e-07
2.14713e-08
2.45823e-07
2.05951e-08
2.45779e-07
1.97784e-08
2.457e-07
1.90129e-08
2.45587e-07
1.82916e-08
2.45442e-07
1.7609e-08
2.45265e-07
1.69603e-08
2.45058e-07
1.63416e-08
2.44824e-07
1.57495e-08
2.44565e-07
1.5181e-08
2.44282e-07
1.46335e-08
2.43978e-07
1.41044e-08
2.43654e-07
1.35915e-08
2.43315e-07
1.30924e-08
2.4296e-07
1.26047e-08
2.42594e-07
1.21259e-08
2.42217e-07
1.16536e-08
2.41833e-07
1.11845e-08
2.41444e-07
1.07164e-08
2.41051e-07
1.02445e-08
2.40658e-07
9.76684e-09
2.40267e-07
9.27568e-09
2.39881e-07
8.77035e-09
2.39502e-07
8.23774e-09
2.39134e-07
7.67853e-09
2.38779e-07
7.073e-09
2.38445e-07
6.41801e-09
2.38131e-07
5.69406e-09
2.37846e-07
4.86927e-09
2.37594e-07
3.95757e-09
2.37378e-07
2.82165e-09
2.3722e-07
1.59366e-09
2.37072e-07
-1.06143e-10
2.37003e-07
-1.9262e-09
-4.34568e-09
2.36864e-07
2.44437e-07
5.80787e-08
2.47452e-07
7.38533e-08
2.48817e-07
5.48496e-08
2.49916e-07
4.69221e-08
2.50588e-07
4.30527e-08
2.50983e-07
3.87346e-08
2.51313e-07
3.51184e-08
2.51612e-07
3.25043e-08
2.51871e-07
3.04209e-08
2.52097e-07
2.86159e-08
2.52299e-07
2.70352e-08
2.5248e-07
2.56476e-08
2.52641e-07
2.44149e-08
2.52783e-07
2.33052e-08
2.52905e-07
2.22957e-08
2.53007e-07
2.13697e-08
2.53087e-07
2.05144e-08
2.53147e-07
1.97191e-08
2.53184e-07
1.89753e-08
2.532e-07
1.82759e-08
2.53194e-07
1.76151e-08
2.53166e-07
1.6988e-08
2.53117e-07
1.63904e-08
2.53048e-07
1.58188e-08
2.52959e-07
1.52699e-08
2.52852e-07
1.4741e-08
2.52727e-07
1.42294e-08
2.52585e-07
1.37328e-08
2.52429e-07
1.32487e-08
2.52259e-07
1.27747e-08
2.52077e-07
1.23082e-08
2.51883e-07
1.18467e-08
2.51681e-07
1.13869e-08
2.51471e-07
1.09263e-08
2.51255e-07
1.04602e-08
2.51036e-07
9.98642e-09
2.50814e-07
9.49733e-09
2.50593e-07
8.99143e-09
2.50374e-07
8.45666e-09
2.50161e-07
7.89141e-09
2.49955e-07
7.27885e-09
2.49762e-07
6.61106e-09
2.49583e-07
5.8738e-09
2.49423e-07
5.02892e-09
2.49287e-07
4.09329e-09
2.49174e-07
2.93522e-09
2.49103e-07
1.66411e-09
2.4903e-07
-3.25751e-11
2.49004e-07
-1.90076e-09
-4.2611e-09
2.4892e-07
2.51489e-07
5.31966e-08
2.54533e-07
7.0809e-08
2.55853e-07
5.35293e-08
2.5695e-07
4.58255e-08
2.5766e-07
4.23431e-08
2.58074e-07
3.83202e-08
2.5841e-07
3.47822e-08
2.58715e-07
3.21996e-08
2.58979e-07
3.01564e-08
2.5921e-07
2.83852e-08
2.59418e-07
2.68278e-08
2.59607e-07
2.54582e-08
2.5978e-07
2.42414e-08
2.59939e-07
2.31462e-08
2.60085e-07
2.21503e-08
2.60217e-07
2.12375e-08
2.60336e-07
2.03951e-08
2.60443e-07
1.96128e-08
2.60536e-07
1.88821e-08
2.60616e-07
1.8196e-08
2.60682e-07
1.75485e-08
2.60735e-07
1.69348e-08
2.60775e-07
1.63505e-08
2.60802e-07
1.5792e-08
2.60816e-07
1.5256e-08
2.60817e-07
1.47396e-08
2.60807e-07
1.42402e-08
2.60784e-07
1.37551e-08
2.60751e-07
1.3282e-08
2.60708e-07
1.28183e-08
2.60655e-07
1.23612e-08
2.60593e-07
1.19084e-08
2.60524e-07
1.14563e-08
2.60448e-07
1.10024e-08
2.60366e-07
1.05418e-08
2.6028e-07
1.0072e-08
2.60192e-07
9.58584e-09
2.60103e-07
9.08074e-09
2.60013e-07
8.54576e-09
2.59928e-07
7.97712e-09
2.59846e-07
7.36061e-09
2.59773e-07
6.68432e-09
2.59708e-07
5.93805e-09
2.59658e-07
5.07983e-09
2.59624e-07
4.1266e-09
2.59603e-07
2.95629e-09
2.59613e-07
1.6547e-09
2.5961e-07
-3.01007e-11
2.5963e-07
-1.92099e-09
-4.22972e-09
2.59599e-07
2.58767e-07
4.8613e-08
2.61829e-07
6.77468e-08
2.63116e-07
5.22422e-08
2.64205e-07
4.47363e-08
2.6495e-07
4.1598e-08
2.65386e-07
3.78842e-08
2.65729e-07
3.4439e-08
2.6604e-07
3.1889e-08
2.6631e-07
2.98862e-08
2.66545e-07
2.81503e-08
2.66756e-07
2.66171e-08
2.66948e-07
2.52655e-08
2.67126e-07
2.40636e-08
2.67291e-07
2.29814e-08
2.67444e-07
2.1997e-08
2.67587e-07
2.10945e-08
2.67721e-07
2.02616e-08
2.67845e-07
1.94882e-08
2.67961e-07
1.87661e-08
2.68069e-07
1.80882e-08
2.68169e-07
1.74489e-08
2.6826e-07
1.68432e-08
2.68344e-07
1.62668e-08
2.6842e-07
1.5716e-08
2.68488e-07
1.51877e-08
2.68549e-07
1.46787e-08
2.68603e-07
1.41865e-08
2.6865e-07
1.37085e-08
2.6869e-07
1.3242e-08
2.68723e-07
1.27846e-08
2.68751e-07
1.23336e-08
2.68773e-07
1.18862e-08
2.6879e-07
1.14391e-08
2.68803e-07
1.09894e-08
2.68813e-07
1.05324e-08
2.68819e-07
1.00653e-08
2.68824e-07
9.58092e-09
2.68829e-07
9.07607e-09
2.68834e-07
8.54077e-09
2.68842e-07
7.96933e-09
2.68853e-07
7.34974e-09
2.6887e-07
6.66703e-09
2.68894e-07
5.91375e-09
2.68928e-07
5.04638e-09
2.68975e-07
4.07966e-09
2.69027e-07
2.90363e-09
2.691e-07
1.58152e-09
2.69157e-07
-8.63191e-11
2.69217e-07
-1.98116e-09
-4.24284e-09
2.6923e-07
2.66279e-07
4.43267e-08
2.69348e-07
6.46775e-08
2.70612e-07
5.09778e-08
2.7169e-07
4.3659e-08
2.72467e-07
4.08204e-08
2.72926e-07
3.74251e-08
2.73277e-07
3.4088e-08
2.73594e-07
3.15722e-08
2.73871e-07
2.96097e-08
2.7411e-07
2.79108e-08
2.74324e-07
2.64033e-08
2.74519e-07
2.50702e-08
2.74699e-07
2.38835e-08
2.74867e-07
2.28143e-08
2.75023e-07
2.18408e-08
2.75169e-07
2.09477e-08
2.75308e-07
2.01231e-08
2.75439e-07
1.93571e-08
2.75563e-07
1.86416e-08
2.75682e-07
1.79699e-08
2.75795e-07
1.73361e-08
2.75902e-07
1.67356e-08
2.76005e-07
1.61641e-08
2.76103e-07
1.5618e-08
2.76197e-07
1.50939e-08
2.76286e-07
1.45891e-08
2.76372e-07
1.41008e-08
2.76454e-07
1.36264e-08
2.76533e-07
1.31633e-08
2.76608e-07
1.27092e-08
2.76681e-07
1.2261e-08
2.76751e-07
1.18163e-08
2.76818e-07
1.13714e-08
2.76884e-07
1.09235e-08
2.76949e-07
1.04679e-08
2.77012e-07
1.00014e-08
2.77076e-07
9.51722e-09
2.77141e-07
9.01129e-09
2.77207e-07
8.47459e-09
2.77277e-07
7.89986e-09
2.77349e-07
7.27682e-09
2.77428e-07
6.5884e-09
2.77513e-07
5.82866e-09
2.77605e-07
4.95445e-09
2.77708e-07
3.97676e-09
2.77813e-07
2.79888e-09
2.7793e-07
1.46387e-09
2.78029e-07
-1.84624e-10
2.78118e-07
-2.0703e-09
-4.28762e-09
2.78163e-07
2.74033e-07
4.03346e-08
2.77099e-07
6.16118e-08
2.78351e-07
4.97257e-08
2.79413e-07
4.25971e-08
2.80219e-07
4.0014e-08
2.80703e-07
3.69413e-08
2.81063e-07
3.37283e-08
2.81386e-07
3.12494e-08
2.81669e-07
2.93268e-08
2.81913e-07
2.76663e-08
2.8213e-07
2.6186e-08
2.82328e-07
2.48723e-08
2.82511e-07
2.37012e-08
2.8268e-07
2.26452e-08
2.82838e-07
2.16829e-08
2.82986e-07
2.07993e-08
2.83126e-07
1.99827e-08
2.8326e-07
1.92237e-08
2.83387e-07
1.85142e-08
2.83509e-07
1.78477e-08
2.83627e-07
1.72186e-08
2.8374e-07
1.66221e-08
2.8385e-07
1.60541e-08
2.83957e-07
1.55111e-08
2.84061e-07
1.49897e-08
2.84163e-07
1.44872e-08
2.84263e-07
1.40008e-08
2.84362e-07
1.35281e-08
2.84458e-07
1.30665e-08
2.84554e-07
1.26135e-08
2.84649e-07
1.21662e-08
2.84743e-07
1.1722e-08
2.84837e-07
1.12775e-08
2.84931e-07
1.08295e-08
2.85026e-07
1.03735e-08
2.85121e-07
9.90585e-09
2.85218e-07
9.4203e-09
2.85317e-07
8.91197e-09
2.85419e-07
8.37265e-09
2.85525e-07
7.79385e-09
2.85636e-07
7.16656e-09
2.85752e-07
6.4725e-09
2.85874e-07
5.70624e-09
2.86002e-07
4.82639e-09
2.86139e-07
3.83942e-09
2.86276e-07
2.66182e-09
2.86421e-07
1.31964e-09
2.86545e-07
-3.08725e-10
2.86651e-07
-2.17668e-09
-4.35111e-09
2.86715e-07
2.8204e-07
3.66319e-08
2.85091e-07
5.85608e-08
2.8634e-07
4.84764e-08
2.87384e-07
4.15535e-08
2.88215e-07
3.91834e-08
2.88724e-07
3.64315e-08
2.89094e-07
3.33588e-08
2.89423e-07
3.09207e-08
2.89712e-07
2.90373e-08
2.89962e-07
2.74164e-08
2.90183e-07
2.59649e-08
2.90384e-07
2.46714e-08
2.90569e-07
2.35165e-08
2.9074e-07
2.24741e-08
2.90899e-07
2.15233e-08
2.91049e-07
2.06494e-08
2.91191e-07
1.98411e-08
2.91326e-07
1.9089e-08
2.91454e-07
1.83856e-08
2.91578e-07
1.77241e-08
2.91697e-07
1.70993e-08
2.91813e-07
1.65065e-08
2.91925e-07
1.59415e-08
2.92036e-07
1.54009e-08
2.92144e-07
1.48815e-08
2.92251e-07
1.43804e-08
2.92356e-07
1.38952e-08
2.92461e-07
1.34232e-08
2.92566e-07
1.29619e-08
2.9267e-07
1.25089e-08
2.92775e-07
1.20614e-08
2.92881e-07
1.16166e-08
2.92987e-07
1.11712e-08
2.93094e-07
1.07219e-08
2.93204e-07
1.02643e-08
2.93315e-07
9.79449e-09
2.93429e-07
9.30646e-09
2.93546e-07
8.79479e-09
2.93667e-07
8.2519e-09
2.93792e-07
7.66844e-09
2.93923e-07
7.03622e-09
2.94059e-07
6.33648e-09
2.94201e-07
5.56357e-09
2.94349e-07
4.67879e-09
2.94504e-07
3.68394e-09
2.94658e-07
2.50781e-09
2.94815e-07
1.16301e-09
2.94951e-07
-4.45129e-10
2.95064e-07
-2.28974e-09
-4.42172e-09
2.95135e-07
2.90309e-07
3.32121e-08
2.93334e-07
5.55357e-08
2.94589e-07
4.72212e-08
2.95612e-07
4.05302e-08
2.96462e-07
3.83334e-08
2.96999e-07
3.58947e-08
2.9738e-07
3.29782e-08
2.97714e-07
3.05861e-08
2.9801e-07
2.87412e-08
2.98266e-07
2.71608e-08
2.98491e-07
2.57397e-08
2.98695e-07
2.44674e-08
2.98882e-07
2.33293e-08
2.99056e-07
2.23009e-08
2.99217e-07
2.1362e-08
2.99368e-07
2.04981e-08
2.99511e-07
1.96982e-08
2.99647e-07
1.89533e-08
2.99777e-07
1.82559e-08
2.99901e-07
1.75996e-08
3.00021e-07
1.69791e-08
3.00138e-07
1.63898e-08
3.00252e-07
1.58277e-08
3.00363e-07
1.52893e-08
3.00473e-07
1.47716e-08
3.00582e-07
1.42718e-08
3.0069e-07
1.37872e-08
3.00797e-07
1.33155e-08
3.00905e-07
1.28541e-08
3.01013e-07
1.24007e-08
3.01122e-07
1.19524e-08
3.01233e-07
1.15065e-08
3.01344e-07
1.10595e-08
3.01458e-07
1.06084e-08
3.01574e-07
1.01485e-08
3.01692e-07
9.67589e-09
3.01814e-07
9.18477e-09
3.0194e-07
8.66925e-09
3.02069e-07
8.12224e-09
3.02204e-07
7.53384e-09
3.02344e-07
6.8963e-09
3.02489e-07
6.19098e-09
3.02641e-07
5.41154e-09
3.02798e-07
4.52242e-09
3.0296e-07
3.52112e-09
3.03121e-07
2.34734e-09
3.0328e-07
1.00368e-09
3.03419e-07
-5.84157e-10
3.03531e-07
-2.40163e-09
-4.49074e-09
3.036e-07
2.98848e-07
3.00672e-08
3.01836e-07
5.25477e-08
3.03105e-07
4.5952e-08
3.04106e-07
3.95285e-08
3.0497e-07
3.74694e-08
3.05535e-07
3.53302e-08
3.05928e-07
3.25849e-08
3.06269e-07
3.02456e-08
3.06571e-07
2.84385e-08
3.06833e-07
2.68991e-08
3.07063e-07
2.551e-08
3.0727e-07
2.42601e-08
3.0746e-07
2.31392e-08
3.07636e-07
2.21254e-08
3.07799e-07
2.11988e-08
3.07952e-07
2.03452e-08
3.08096e-07
1.95539e-08
3.08233e-07
1.88164e-08
3.08364e-07
1.81252e-08
3.08489e-07
1.74742e-08
3.0861e-07
1.6858e-08
3.08728e-07
1.62723e-08
3.08842e-07
1.57131e-08
3.08955e-07
1.5177e-08
3.09065e-07
1.46609e-08
3.09175e-07
1.41622e-08
3.09284e-07
1.36782e-08
3.09393e-07
1.32066e-08
3.09502e-07
1.2745e-08
3.09612e-07
1.22908e-08
3.09723e-07
1.18415e-08
3.09835e-07
1.13942e-08
3.09949e-07
1.09455e-08
3.10065e-07
1.04922e-08
3.10184e-07
1.00298e-08
3.10306e-07
9.55417e-09
3.10431e-07
9.05967e-09
3.1056e-07
8.54013e-09
3.10693e-07
7.98877e-09
3.10832e-07
7.39542e-09
3.10976e-07
6.7525e-09
3.11125e-07
6.04189e-09
3.1128e-07
5.2563e-09
3.11439e-07
4.36349e-09
3.11603e-07
3.3573e-09
3.11763e-07
2.18674e-09
3.11919e-07
8.47527e-10
3.12055e-07
-7.19636e-10
3.1216e-07
-2.5072e-09
-4.55227e-09
3.12222e-07
3.07667e-07
2.71873e-08
3.10607e-07
4.9608e-08
3.11897e-07
4.46621e-08
3.12876e-07
3.85489e-08
3.13749e-07
3.65965e-08
3.14341e-07
3.47382e-08
3.14749e-07
3.21776e-08
3.15095e-07
2.98989e-08
3.15405e-07
2.81292e-08
3.15673e-07
2.6631e-08
3.15907e-07
2.52755e-08
3.16118e-07
2.40491e-08
3.16311e-07
2.29462e-08
3.16489e-07
2.19473e-08
3.16655e-07
2.10334e-08
3.16809e-07
2.01904e-08
3.16955e-07
1.94082e-08
3.17093e-07
1.86782e-08
3.17225e-07
1.79934e-08
3.17352e-07
1.73477e-08
3.17474e-07
1.67361e-08
3.17592e-07
1.6154e-08
3.17707e-07
1.55977e-08
3.1782e-07
1.50639e-08
3.17932e-07
1.45494e-08
3.18042e-07
1.40518e-08
3.18152e-07
1.35684e-08
3.18262e-07
1.30969e-08
3.18372e-07
1.26349e-08
3.18483e-07
1.21801e-08
3.18594e-07
1.17296e-08
3.18708e-07
1.12808e-08
3.18823e-07
1.08303e-08
3.1894e-07
1.03747e-08
3.1906e-07
9.90979e-09
3.19184e-07
9.43103e-09
3.1931e-07
8.93309e-09
3.19441e-07
8.40955e-09
3.19576e-07
7.85384e-09
3.19715e-07
7.25572e-09
3.1986e-07
6.60759e-09
3.2001e-07
5.89212e-09
3.20165e-07
5.10103e-09
3.20324e-07
4.20529e-09
3.20485e-07
3.1959e-09
3.20642e-07
2.02957e-09
3.20792e-07
6.97749e-10
3.2092e-07
-8.47943e-10
3.21016e-07
-2.60334e-09
-4.60267e-09
3.21067e-07
3.16777e-07
2.45613e-08
3.19658e-07
4.67276e-08
3.20974e-07
4.33458e-08
3.21932e-07
3.75911e-08
3.22808e-07
3.57198e-08
3.23427e-07
3.41195e-08
3.2385e-07
3.17546e-08
3.24203e-07
2.95457e-08
3.24519e-07
2.78134e-08
3.24794e-07
2.63564e-08
3.25033e-07
2.50358e-08
3.25248e-07
2.38343e-08
3.25445e-07
2.27499e-08
3.25625e-07
2.17666e-08
3.25793e-07
2.08657e-08
3.2595e-07
2.00337e-08
3.26097e-07
1.92607e-08
3.26237e-07
1.85385e-08
3.2637e-07
1.78603e-08
3.26498e-07
1.72201e-08
3.26621e-07
1.66131e-08
3.2674e-07
1.60348e-08
3.26856e-07
1.54815e-08
3.2697e-07
1.49499e-08
3.27082e-07
1.44372e-08
3.27193e-07
1.39406e-08
3.27304e-07
1.34578e-08
3.27415e-07
1.29864e-08
3.27525e-07
1.25241e-08
3.27637e-07
1.20685e-08
3.2775e-07
1.16169e-08
3.27864e-07
1.11666e-08
3.2798e-07
1.07143e-08
3.28098e-07
1.02565e-08
3.28219e-07
9.78892e-09
3.28343e-07
9.30711e-09
3.2847e-07
8.80578e-09
3.28601e-07
8.27837e-09
3.28737e-07
7.71843e-09
3.28877e-07
7.11584e-09
3.29021e-07
6.46284e-09
3.29171e-07
5.74304e-09
3.29324e-07
4.94728e-09
3.2948e-07
4.04947e-09
3.29637e-07
3.03864e-09
3.29789e-07
1.87774e-09
3.29931e-07
5.55996e-10
3.3005e-07
-9.67035e-10
3.30135e-07
-2.68824e-09
-4.63975e-09
3.30172e-07
3.26188e-07
2.21764e-08
3.28998e-07
4.39175e-08
3.30344e-07
4.1999e-08
3.31282e-07
3.66537e-08
3.32158e-07
3.48441e-08
3.32801e-07
3.34756e-08
3.33242e-07
3.13146e-08
3.33602e-07
2.91854e-08
3.33924e-07
2.74912e-08
3.34206e-07
2.60748e-08
3.34451e-07
2.47906e-08
3.3467e-07
2.36152e-08
3.34869e-07
2.25502e-08
3.35053e-07
2.15828e-08
3.35223e-07
2.06955e-08
3.35382e-07
1.98749e-08
3.35532e-07
1.91114e-08
3.35673e-07
1.83972e-08
3.35808e-07
1.77257e-08
3.35936e-07
1.70913e-08
3.36061e-07
1.64889e-08
3.36181e-07
1.59145e-08
3.36298e-07
1.53643e-08
3.36413e-07
1.48351e-08
3.36526e-07
1.4324e-08
3.36638e-07
1.38286e-08
3.3675e-07
1.33463e-08
3.36861e-07
1.2875e-08
3.36973e-07