/*--------------------------------*- C++ -*----------------------------------*\
  =========                 |
  \\      /  F ield         | OpenFOAM: The Open Source CFD Toolbox
   \\    /   O peration     | Website:  https://openfoam.org
    \\  /    A nd           | Version:  7
     \\/     M anipulation  |
\*---------------------------------------------------------------------------*/
FoamFile
{
    version     2.0;
    format      ascii;
    class       volVectorField;
    location    "0.36";
    object      U;
}
// * * * * * * * * * * * * * * * * * * * * * * * * * * * * * * * * * * * * * //

dimensions      [0 1 -1 0 0 0 0];

internalField   nonuniform List<vector> 
70000
(
(0.553415 0.016978 0)
(0.251426 0.00340029 0)
(0.165946 0.000318845 0)
(0.132475 4.89224e-05 0)
(0.117382 4.39716e-05 0)
(0.107437 5.21312e-05 0)
(0.0994788 4.43246e-05 0)
(0.0930489 3.52393e-05 0)
(0.0878192 2.91917e-05 0)
(0.0834652 2.5043e-05 0)
(0.0797589 2.18686e-05 0)
(0.0765527 1.93197e-05 0)
(0.0737456 1.72367e-05 0)
(0.0712635 1.55109e-05 0)
(0.0690504 1.40616e-05 0)
(0.0670629 1.2829e-05 0)
(0.0652668 1.17685e-05 0)
(0.0636351 1.08459e-05 0)
(0.0621458 1.00353e-05 0)
(0.0607809 9.31625e-06 0)
(0.0595258 8.67238e-06 0)
(0.058368 8.09047e-06 0)
(0.0572973 7.55961e-06 0)
(0.0563051 7.07071e-06 0)
(0.0553841 6.61592e-06 0)
(0.0545281 6.18856e-06 0)
(0.0537319 5.78214e-06 0)
(0.052991 5.39173e-06 0)
(0.0523018 5.01056e-06 0)
(0.0516613 4.63543e-06 0)
(0.051067 4.25755e-06 0)
(0.050517 3.87585e-06 0)
(0.0500101 3.4779e-06 0)
(0.0495454 3.06365e-06 0)
(0.0491226 2.61905e-06 0)
(0.0487424 2.13387e-06 0)
(0.0484047 1.615e-06 0)
(0.0481138 9.88672e-07 0)
(0.0478668 3.83458e-07 0)
(0.047678 -5.38995e-07 0)
(0.0475323 -1.1781e-06 0)
(0.0474716 -2.79467e-06 0)
(0.0474425 -3.1872e-06 0)
(0.0475605 -6.32393e-06 0)
(0.0476679 -5.39074e-06 0)
(0.04806 -1.24594e-05 0)
(0.0483379 -7.14178e-06 0)
(0.0491357 -2.52107e-05 0)
(0.0500384 2.37506e-05 0)
(0.0467283 -0.00194396 0)
(0.884863 0.0434928 0)
(0.650163 0.020148 0)
(0.494019 0.00660349 0)
(0.403627 0.00275354 0)
(0.354946 0.00154671 0)
(0.323661 0.00113039 0)
(0.299793 0.000907934 0)
(0.280615 0.0007433 0)
(0.264934 0.000620541 0)
(0.251847 0.000529974 0)
(0.240701 0.000461174 0)
(0.231058 0.000406983 0)
(0.222611 0.000363152 0)
(0.215137 0.000327031 0)
(0.208469 0.000296813 0)
(0.202476 0.000271204 0)
(0.197057 0.000249247 0)
(0.192129 0.000230223 0)
(0.187628 0.000213581 0)
(0.183499 0.000198894 0)
(0.179697 0.000185824 0)
(0.176187 0.000174099 0)
(0.172937 0.0001635 0)
(0.16992 0.000153845 0)
(0.167115 0.00014498 0)
(0.164502 0.000136774 0)
(0.162066 0.000129113 0)
(0.159793 0.000121897 0)
(0.157672 0.000115029 0)
(0.155692 0.000108426 0)
(0.153847 0.000101995 0)
(0.152128 9.56644e-05 0)
(0.150533 8.93212e-05 0)
(0.149056 8.29081e-05 0)
(0.147696 7.62666e-05 0)
(0.146454 6.93514e-05 0)
(0.145326 6.19371e-05 0)
(0.144325 5.39426e-05 0)
(0.143439 4.51388e-05 0)
(0.142705 3.51448e-05 0)
(0.14208 2.41808e-05 0)
(0.141674 1.04713e-05 0)
(0.141342 -3.22888e-06 0)
(0.141383 -2.47175e-05 0)
(0.141383 -4.16071e-05 0)
(0.142101 -8.1386e-05 0)
(0.14252 -9.10493e-05 0)
(0.144191 -0.000217971 0)
(0.146053 8.23452e-05 0)
(0.143831 -0.00346617 0)
(0.991208 0.0499547 0)
(0.890937 0.0305605 0)
(0.762536 0.0146076 0)
(0.656618 0.00796763 0)
(0.585555 0.00487638 0)
(0.536226 0.00347125 0)
(0.498373 0.002735 0)
(0.467783 0.00224064 0)
(0.442509 0.00187679 0)
(0.421242 0.001605 0)
(0.403035 0.00139736 0)
(0.38722 0.00123381 0)
(0.373322 0.00110162 0)
(0.360992 0.000992709 0)
(0.349966 0.000901589 0)
(0.340035 0.000824358 0)
(0.331039 0.000758142 0)
(0.322845 0.000700779 0)
(0.315348 0.000650618 0)
(0.308461 0.000606373 0)
(0.302112 0.000567032 0)
(0.29624 0.000531782 0)
(0.290795 0.000499965 0)
(0.285734 0.000471034 0)
(0.28102 0.000444537 0)
(0.276622 0.000420084 0)
(0.272514 0.000397339 0)
(0.268672 0.000376006 0)
(0.265078 0.00035581 0)
(0.261714 0.000336511 0)
(0.258567 0.00031785 0)
(0.255625 0.000299623 0)
(0.25288 0.000281533 0)
(0.250325 0.000263414 0)
(0.247954 0.000244849 0)
(0.245766 0.000225747 0)
(0.243758 0.000205424 0)
(0.241941 0.000183924 0)
(0.2403 0.000160113 0)
(0.238885 0.000134122 0)
(0.237633 0.000104417 0)
(0.236697 7.03611e-05 0)
(0.235869 3.18338e-05 0)
(0.235573 -1.78867e-05 0)
(0.235216 -6.92923e-05 0)
(0.235862 -0.000159055 0)
(0.236093 -0.00020256 0)
(0.238047 -0.000481925 0)
(0.239922 -0.000131223 0)
(0.240501 -0.00389853 0)
(1.01554 0.0489525 0)
(1.0065 0.0357208 0)
(0.935923 0.0208143 0)
(0.85209 0.0134928 0)
(0.782362 0.00919214 0)
(0.727263 0.00677743 0)
(0.682223 0.00538115 0)
(0.64451 0.00443976 0)
(0.612544 0.00374486 0)
(0.58513 0.00321864 0)
(0.561331 0.00281198 0)
(0.54044 0.00248955 0)
(0.521929 0.00222783 0)
(0.505396 0.00201146 0)
(0.490526 0.00182991 0)
(0.477072 0.00167565 0)
(0.464832 0.00154313 0)
(0.453645 0.00142814 0)
(0.443377 0.00132747 0)
(0.433918 0.00123858 0)
(0.425175 0.00115951 0)
(0.417069 0.00108864 0)
(0.409535 0.00102467 0)
(0.402517 0.000966545 0)
(0.395967 0.000913352 0)
(0.389842 0.000864331 0)
(0.384107 0.000818819 0)
(0.378733 0.000776237 0)
(0.373691 0.000736055 0)
(0.36896 0.000697798 0)
(0.364521 0.000660984 0)
(0.360357 0.000625211 0)
(0.356456 0.000589941 0)
(0.352807 0.000554852 0)
(0.349401 0.000519182 0)
(0.346237 0.000482792 0)
(0.343306 0.000444353 0)
(0.340622 0.00040418 0)
(0.338164 0.000359733 0)
(0.33599 0.00031228 0)
(0.334023 0.000257105 0)
(0.33244 0.000196646 0)
(0.330999 0.000124014 0)
(0.330184 3.91366e-05 0)
(0.329316 -5.77974e-05 0)
(0.3296 -0.00020611 0)
(0.329435 -0.000304439 0)
(0.331257 -0.000730433 0)
(0.332635 -0.000462407 0)
(0.334801 -0.00401809 0)
(1.01435 0.0460967 0)
(1.04799 0.037337 0)
(1.02459 0.0241801 0)
(0.974741 0.0175494 0)
(0.923591 0.0131002 0)
(0.876914 0.0101962 0)
(0.834807 0.00833587 0)
(0.797118 0.00701274 0)
(0.763621 0.00600141 0)
(0.733873 0.0052132 0)
(0.70736 0.00459052 0)
(0.683613 0.00408894 0)
(0.662233 0.00367705 0)
(0.642889 0.00333338 0)
(0.625305 0.00304288 0)
(0.609251 0.00279452 0)
(0.594536 0.00258006 0)
(0.580998 0.00239317 0)
(0.568501 0.00222896 0)
(0.55693 0.00208355 0)
(0.546187 0.00195386 0)
(0.536187 0.0018374 0)
(0.526858 0.00173214 0)
(0.518138 0.00163638 0)
(0.509973 0.0015487 0)
(0.502314 0.00146788 0)
(0.495123 0.00139288 0)
(0.488363 0.00132277 0)
(0.482003 0.00125671 0)
(0.476017 0.00119395 0)
(0.470382 0.00113373 0)
(0.465079 0.00107542 0)
(0.460092 0.00101818 0)
(0.455407 0.000961508 0)
(0.451015 0.000904246 0)
(0.446909 0.000846189 0)
(0.443081 0.000785267 0)
(0.439543 0.000722128 0)
(0.436272 0.000652579 0)
(0.433325 0.000579294 0)
(0.430626 0.000493782 0)
(0.42835 0.00040228 0)
(0.426253 0.00029009 0)
(0.424824 0.00016392 0)
(0.423383 1.41962e-05 0)
(0.423131 -0.00019727 0)
(0.422481 -0.000365616 0)
(0.423868 -0.000922034 0)
(0.424698 -0.000818981 0)
(0.427101 -0.0040989 0)
(1.00941 0.0430462 0)
(1.05564 0.0370918 0)
(1.05869 0.0253201 0)
(1.03635 0.0197521 0)
(1.00721 0.0157853 0)
(0.976244 0.0129206 0)
(0.944772 0.0109485 0)
(0.913965 0.00946459 0)
(0.884678 0.00827249 0)
(0.857291 0.00730383 0)
(0.831882 0.00651299 0)
(0.808387 0.00585954 0)
(0.786686 0.00531211 0)
(0.766637 0.00484794 0)
(0.748094 0.00445036 0)
(0.730916 0.00410671 0)
(0.714975 0.00380722 0)
(0.700152 0.00354419 0)
(0.686342 0.00331152 0)
(0.673452 0.00310432 0)
(0.661397 0.00291862 0)
(0.650105 0.00275117 0)
(0.639509 0.00259929 0)
(0.629553 0.0024607 0)
(0.620186 0.00233352 0)
(0.611361 0.00221607 0)
(0.603039 0.00210694 0)
(0.595186 0.00200485 0)
(0.587769 0.00190864 0)
(0.580763 0.00181727 0)
(0.574143 0.00172971 0)
(0.567889 0.00164504 0)
(0.561984 0.00156216 0)
(0.556414 0.00148034 0)
(0.551169 0.00139801 0)
(0.54624 0.00131488 0)
(0.54162 0.00122813 0)
(0.537317 0.00113869 0)
(0.533311 0.00104073 0)
(0.529653 0.000938227 0)
(0.526273 0.000819034 0)
(0.523334 0.000692858 0)
(0.520613 0.000537664 0)
(0.518559 0.0003665 0)
(0.516556 0.000158276 0)
(0.515696 -0.000118811 0)
(0.514561 -0.000366039 0)
(0.515326 -0.00104314 0)
(0.515682 -0.00113087 0)
(0.517672 -0.00413693 0)
(1.00635 0.0401781 0)
(1.05241 0.0361447 0)
(1.06607 0.0252427 0)
(1.05956 0.0205554 0)
(1.04696 0.01721 0)
(1.03095 0.0146358 0)
(1.0121 0.0128038 0)
(0.991466 0.0113767 0)
(0.970119 0.0101779 0)
(0.948783 0.00916088 0)
(0.927899 0.00829949 0)
(0.90773 0.00756539 0)
(0.888422 0.00693416 0)
(0.870045 0.00638704 0)
(0.852618 0.00590958 0)
(0.836128 0.00549028 0)
(0.820545 0.00511985 0)
(0.805827 0.00479068 0)
(0.791926 0.00449654 0)
(0.778795 0.00423227 0)
(0.766385 0.00399359 0)
(0.754649 0.00377691 0)
(0.743545 0.00357921 0)
(0.733032 0.0033979 0)
(0.72307 0.00323076 0)
(0.713627 0.00307583 0)
(0.70467 0.00293141 0)
(0.696171 0.00279595 0)
(0.688103 0.00266805 0)
(0.680444 0.0025464 0)
(0.673174 0.00242972 0)
(0.666274 0.00231688 0)
(0.65973 0.00220649 0)
(0.653529 0.00209761 0)
(0.647662 0.00198828 0)
(0.642121 0.00187811 0)
(0.6369 0.00176357 0)
(0.632006 0.00164579 0)
(0.627421 0.00151748 0)
(0.623192 0.00138358 0)
(0.619258 0.00122888 0)
(0.615763 0.00106551 0)
(0.612517 0.000865863 0)
(0.609907 0.000646444 0)
(0.607418 0.000379473 0)
(0.60597 3.14626e-05 0)
(0.604407 -0.000297497 0)
(0.604498 -0.00108606 0)
(0.604428 -0.00137269 0)
(0.605811 -0.004115 0)
(1.00506 0.0375008 0)
(1.04763 0.0350461 0)
(1.06397 0.0246946 0)
(1.06421 0.0205855 0)
(1.06074 0.0177466 0)
(1.05487 0.0154744 0)
(1.04615 0.0138572 0)
(1.03501 0.0125947 0)
(1.02215 0.0115063 0)
(1.00819 0.010552 0)
(0.993569 0.00971791 0)
(0.97865 0.00898609 0)
(0.963694 0.00833975 0)
(0.948897 0.00776581 0)
(0.934394 0.00725402 0)
(0.920278 0.0067959 0)
(0.906607 0.00638425 0)
(0.893417 0.00601294 0)
(0.880725 0.0056767 0)
(0.868538 0.00537102 0)
(0.856851 0.00509202 0)
(0.845655 0.00483636 0)
(0.834937 0.00460113 0)
(0.824683 0.00438379 0)
(0.814874 0.00418208 0)
(0.805495 0.00399401 0)
(0.796527 0.00381777 0)
(0.787955 0.00365171 0)
(0.779763 0.00349427 0)
(0.771936 0.00334402 0)
(0.764462 0.00319951 0)
(0.757328 0.00305943 0)
(0.750524 0.00292217 0)
(0.744043 0.00278663 0)
(0.737877 0.00265054 0)
(0.732023 0.00251335 0)
(0.726476 0.00237097 0)
(0.721245 0.00222457 0)
(0.716317 0.00206572 0)
(0.711731 0.00189985 0)
(0.707441 0.00170955 0)
(0.703567 0.001508 0)
(0.69996 0.00126433 0)
(0.696935 0.00099501 0)
(0.694092 0.000671124 0)
(0.69216 0.00024901 0)
(0.690266 -0.000162117 0)
(0.689745 -0.00104991 0)
(0.68929 -0.00153451 0)
(0.690058 -0.00403831 0)
(1.00451 0.0349648 0)
(1.0436 0.0339659 0)
(1.05995 0.0240433 0)
(1.06225 0.0202953 0)
(1.06256 0.0178102 0)
(1.06192 0.015752 0)
(1.05938 0.0143081 0)
(1.05487 0.0132109 0)
(1.0487 0.0122641 0)
(1.04119 0.0114214 0)
(1.03261 0.0106713 0)
(1.02321 0.01 0)
(1.01323 0.00939448 0)
(1.00286 0.00884533 0)
(0.992269 0.00834559 0)
(0.981582 0.00788963 0)
(0.970905 0.0074726 0)
(0.960318 0.00709024 0)
(0.949884 0.00673878 0)
(0.939649 0.00641485 0)
(0.929647 0.00611548 0)
(0.919901 0.00583799 0)
(0.910428 0.00558001 0)
(0.901239 0.00533936 0)
(0.892339 0.00511408 0)
(0.883732 0.00490235 0)
(0.875416 0.00470251 0)
(0.867391 0.00451295 0)
(0.859653 0.00433217 0)
(0.8522 0.0041587 0)
(0.845027 0.00399104 0)
(0.838132 0.00382782 0)
(0.831511 0.00366729 0)
(0.825162 0.00350823 0)
(0.819085 0.00334814 0)
(0.813279 0.00318636 0)
(0.807745 0.00301834 0)
(0.802492 0.00284519 0)
(0.797514 0.00265768 0)
(0.792846 0.00246123 0)
(0.788455 0.00223721 0)
(0.784439 0.00199841 0)
(0.780688 0.00171304 0)
(0.77745 0.00139445 0)
(0.774433 0.0010164 0)
(0.772183 0.000523269 0)
(0.770091 3.01588e-05 0)
(0.769103 -0.000943279 0)
(0.768333 -0.00161622 0)
(0.768561 -0.00391773 0)
(1.00412 0.0325341 0)
(1.04027 0.0329121 0)
(1.05618 0.0234082 0)
(1.0589 0.0199101 0)
(1.06029 0.0176802 0)
(1.06169 0.0157532 0)
(1.06209 0.0144102 0)
(1.06123 0.0134278 0)
(1.05921 0.0125965 0)
(1.05613 0.011859 0)
(1.0521 0.0112015 0)
(1.04721 0.0106097 0)
(1.04159 0.0100706 0)
(1.03538 0.0095754 0)
(1.02868 0.00911826 0)
(1.02161 0.00869488 0)
(1.01427 0.00830179 0)
(1.00673 0.00793602 0)
(0.99908 0.00759498 0)
(0.991372 0.00727635 0)
(0.983657 0.00697805 0)
(0.975979 0.00669818 0)
(0.968371 0.00643499 0)
(0.960862 0.00618683 0)
(0.953474 0.00595218 0)
(0.946225 0.00572958 0)
(0.939129 0.00551761 0)
(0.932198 0.0053149 0)
(0.925441 0.00512008 0)
(0.918865 0.00493179 0)
(0.912475 0.00474858 0)
(0.906277 0.00456908 0)
(0.900276 0.00439152 0)
(0.894476 0.00421464 0)
(0.888882 0.00403575 0)
(0.883499 0.00385413 0)
(0.878333 0.00366491 0)
(0.873396 0.00346905 0)
(0.868687 0.00325684 0)
(0.864238 0.00303329 0)
(0.860029 0.00277941 0)
(0.856138 0.00250637 0)
(0.852492 0.00218354 0)
(0.849277 0.0018186 0)
(0.846295 0.00139104 0)
(0.843939 0.000832364 0)
(0.841809 0.000260372 0)
(0.840541 -0.000784198 0)
(0.839567 -0.00162775 0)
(0.839384 -0.00376575 0)
(1.00374 0.0301997 0)
(1.03727 0.0318627 0)
(1.05285 0.0228042 0)
(1.05566 0.0195072 0)
(1.0572 0.0174888 0)
(1.05915 0.0156502 0)
(1.06061 0.0143545 0)
(1.06133 0.0134352 0)
(1.06138 0.012677 0)
(1.06077 0.0120132 0)
(1.05951 0.0114275 0)
(1.05761 0.0109042 0)
(1.05511 0.010429 0)
(1.05205 0.00999175 0)
(1.0485 0.00958615 0)
(1.04451 0.00920778 0)
(1.04014 0.00885335 0)
(1.03546 0.00852024 0)
(1.03053 0.00820633 0)
(1.02539 0.00790982 0)
(1.02009 0.00762913 0)
(1.01467 0.00736288 0)
(1.00917 0.00710977 0)
(1.00363 0.0068686 0)
(0.99807 0.00663823 0)
(0.992517 0.00641752 0)
(0.986992 0.00620537 0)
(0.981515 0.00600062 0)
(0.976101 0.00580211 0)
(0.970765 0.00560862 0)
(0.96552 0.00541881 0)
(0.960376 0.00523139 0)
(0.955345 0.00504458 0)
(0.950436 0.00485713 0)
(0.945659 0.00466628 0)
(0.941024 0.0044712 0)
(0.93654 0.00426688 0)
(0.932222 0.00405401 0)
(0.928074 0.00382273 0)
(0.924125 0.00357724 0)
(0.920366 0.00329903 0)
(0.91686 0.00299661 0)
(0.913562 0.00264214 0)
(0.910607 0.00223603 0)
(0.907874 0.00176511 0)
(0.905628 0.00114874 0)
(0.903633 0.000504205 0)
(0.90229 -0.000596233 0)
(0.901248 -0.00158686 0)
(0.90081 -0.00359751 0)
(1.00337 0.027964 0)
(1.03444 0.0308051 0)
(1.04974 0.0222252 0)
(1.0527 0.0191015 0)
(1.0542 0.0172789 0)
(1.0562 0.015518 0)
(1.05794 0.0142441 0)
(1.05919 0.0133553 0)
(1.06003 0.0126373 0)
(1.06053 0.0120164 0)
(1.06066 0.0114753 0)
(1.0604 0.0109983 0)
(1.05973 0.0105697 0)
(1.05868 0.0101784 0)
(1.05724 0.00981709 0)
(1.05544 0.00948051 0)
(1.0533 0.00916491 0)
(1.05085 0.00886741 0)
(1.04813 0.00858572 0)
(1.04517 0.00831803 0)
(1.04199 0.00806285 0)
(1.03863 0.00781891 0)
(1.03511 0.00758509 0)
(1.03146 0.00736038 0)
(1.02772 0.00714384 0)
(1.0239 0.00693453 0)
(1.02002 0.00673153 0)
(1.0161 0.00653387 0)
(1.01216 0.00634052 0)
(1.00822 0.00615039 0)
(1.00429 0.00596222 0)
(1.00039 0.00577479 0)
(0.996523 0.00558636 0)
(0.992709 0.00539566 0)
(0.988958 0.00519989 0)
(0.985283 0.00499815 0)
(0.981695 0.00478533 0)
(0.97821 0.0045618 0)
(0.974837 0.00431782 0)
(0.9716 0.00405647 0)
(0.968499 0.0037603 0)
(0.965583 0.00343459 0)
(0.96283 0.0030552 0)
(0.960333 0.00261481 0)
(0.958029 0.00210766 0)
(0.956088 0.0014436 0)
(0.954384 0.000735166 0)
(0.953152 -0.000405535 0)
(0.952183 -0.00151626 0)
(0.95165 -0.00343023 0)
(1.00301 0.0258306 0)
(1.03171 0.0297354 0)
(1.04675 0.0216673 0)
(1.0499 0.0186929 0)
(1.05138 0.0170571 0)
(1.05335 0.0153788 0)
(1.05512 0.01412 0)
(1.05648 0.013247 0)
(1.05756 0.0125518 0)
(1.05845 0.0119543 0)
(1.05914 0.0114375 0)
(1.05961 0.0109867 0)
(1.05985 0.0105865 0)
(1.05985 0.010225 0)
(1.05961 0.00989415 0)
(1.05912 0.00958822 0)
(1.0584 0.00930291 0)
(1.05744 0.00903485 0)
(1.05626 0.00878143 0)
(1.05486 0.00854053 0)
(1.05328 0.00831048 0)
(1.05151 0.00808987 0)
(1.04958 0.00787753 0)
(1.0475 0.0076724 0)
(1.0453 0.00747356 0)
(1.04299 0.0072801 0)
(1.04058 0.00709114 0)
(1.03809 0.00690578 0)
(1.03553 0.00672303 0)
(1.03292 0.00654186 0)
(1.03028 0.00636104 0)
(1.02761 0.00617937 0)
(1.02492 0.0059951 0)
(1.02224 0.00580695 0)
(1.01957 0.00561208 0)
(1.01692 0.00540944 0)
(1.01431 0.00519394 0)
(1.01175 0.00496551 0)
(1.00924 0.00471475 0)
(1.00683 0.0044434 0)
(1.00449 0.00413552 0)
(1.00229 0.00379277 0)
(1.00019 0.0033952 0)
(0.998283 0.0029281 0)
(0.996526 0.00239206 0)
(0.995024 0.00169127 0)
(0.993722 0.000929163 0)
(0.992746 -0.000236908 0)
(0.991968 -0.00143991 0)
(0.991477 -0.00328071 0)
(1.00268 0.023802 0)
(1.02912 0.0286519 0)
(1.04383 0.0211301 0)
(1.04721 0.0182811 0)
(1.04869 0.0168219 0)
(1.05063 0.0152351 0)
(1.05239 0.013993 0)
(1.05376 0.0131313 0)
(1.05488 0.0124522 0)
(1.05586 0.0118695 0)
(1.05672 0.011366 0)
(1.05745 0.0109293 0)
(1.05805 0.0105445 0)
(1.05852 0.0101998 0)
(1.05885 0.00988692 0)
(1.05904 0.00959996 0)
(1.05907 0.00933433 0)
(1.05896 0.00908638 0)
(1.05869 0.00885319 0)
(1.05828 0.0086324 0)
(1.05772 0.00842208 0)
(1.05703 0.00822064 0)
(1.0562 0.00802672 0)
(1.05525 0.00783915 0)
(1.05418 0.00765689 0)
(1.05301 0.00747898 0)
(1.05175 0.00730446 0)
(1.05039 0.0071324 0)
(1.04896 0.00696179 0)
(1.04747 0.00679158 0)
(1.04591 0.00662049 0)
(1.04431 0.00644732 0)
(1.04267 0.00627024 0)
(1.041 0.00608793 0)
(1.03932 0.00589748 0)
(1.03762 0.00569769 0)
(1.03593 0.00548351 0)
(1.03425 0.00525434 0)
(1.0326 0.00500128 0)
(1.03099 0.00472458 0)
(1.02943 0.00441004 0)
(1.02795 0.00405574 0)
(1.02654 0.00364575 0)
(1.02525 0.0031591 0)
(1.02408 0.00260088 0)
(1.02308 0.0018739 0)
(1.02223 0.00106892 0)
(1.02159 -0.000109697 0)
(1.02107 -0.00137852 0)
(1.02072 -0.00316249 0)
(1.00238 0.02188 0)
(1.02665 0.0275538 0)
(1.04101 0.0206134 0)
(1.0446 0.0178679 0)
(1.0461 0.016572 0)
(1.04801 0.0150856 0)
(1.04977 0.0138646 0)
(1.05113 0.0130131 0)
(1.05224 0.0123486 0)
(1.05322 0.0117779 0)
(1.05411 0.0112836 0)
(1.05491 0.0108553 0)
(1.05563 0.0104792 0)
(1.05626 0.0101437 0)
(1.05681 0.00984067 0)
(1.05728 0.00956428 0)
(1.05766 0.00930993 0)
(1.05796 0.00907388 0)
(1.05816 0.00885312 0)
(1.05827 0.00864514 0)
(1.05829 0.00844787 0)
(1.05822 0.00825958 0)
(1.05806 0.00807877 0)
(1.05781 0.00790413 0)
(1.05748 0.00773453 0)
(1.05707 0.00756887 0)
(1.05659 0.00740615 0)
(1.05603 0.00724533 0)
(1.05541 0.00708535 0)
(1.05472 0.00692508 0)
(1.05398 0.0067632 0)
(1.0532 0.00659842 0)
(1.05237 0.00642887 0)
(1.05151 0.0062531 0)
(1.05062 0.00606817 0)
(1.04971 0.00587265 0)
(1.04878 0.00566158 0)
(1.04786 0.00543378 0)
(1.04694 0.00518093 0)
(1.04603 0.00490178 0)
(1.04515 0.00458388 0)
(1.04432 0.004222 0)
(1.04354 0.00380379 0)
(1.04282 0.00330343 0)
(1.0422 0.00272851 0)
(1.04167 0.0019844 0)
(1.04126 0.00114625 0)
(1.04097 -3.44468e-05 0)
(1.04074 -0.00134515 0)
(1.04058 -0.00308344 0)
(1.0021 0.0200655 0)
(1.02431 0.0264429 0)
(1.03828 0.0201148 0)
(1.04208 0.017455 0)
(1.0436 0.0163073 0)
(1.04547 0.0149287 0)
(1.04724 0.0137339 0)
(1.0486 0.0128929 0)
(1.0497 0.0122427 0)
(1.05067 0.0116841 0)
(1.05155 0.0111981 0)
(1.05235 0.0107763 0)
(1.05308 0.0104061 0)
(1.05376 0.0100764 0)
(1.05437 0.00977916 0)
(1.05494 0.00950871 0)
(1.05545 0.00926056 0)
(1.0559 0.00903107 0)
(1.05631 0.00881721 0)
(1.05666 0.00861649 0)
(1.05696 0.00842678 0)
(1.0572 0.0082463 0)
(1.05739 0.00807348 0)
(1.05752 0.00790694 0)
(1.05761 0.00774547 0)
(1.05764 0.00758792 0)
(1.05762 0.00743318 0)
(1.05755 0.00728019 0)
(1.05744 0.00712779 0)
(1.05728 0.00697482 0)
(1.05709 0.00681986 0)
(1.05685 0.00666158 0)
(1.05659 0.00649801 0)
(1.05629 0.0063276 0)
(1.05597 0.00614738 0)
(1.05563 0.00595566 0)
(1.05528 0.00574762 0)
(1.05492 0.00552147 0)
(1.05455 0.00526951 0)
(1.0542 0.00498904 0)
(1.05386 0.00466927 0)
(1.05354 0.00430213 0)
(1.05326 0.00387812 0)
(1.05302 0.00336819 0)
(1.05285 0.00278052 0)
(1.05273 0.00202598 0)
(1.05269 0.00116312 0)
(1.05271 -1.08025e-05 0)
(1.05274 -0.00134518 0)
(1.05277 -0.0030454 0)
(1.00185 0.0183587 0)
(1.02211 0.0253234 0)
(1.03565 0.0196306 0)
(1.03964 0.0170443 0)
(1.04118 0.0160286 0)
(1.04303 0.0147638 0)
(1.04479 0.0136007 0)
(1.04615 0.0127703 0)
(1.04724 0.0121346 0)
(1.0482 0.0115887 0)
(1.04907 0.0111111 0)
(1.04986 0.0106955 0)
(1.05059 0.0103306 0)
(1.05126 0.0100055 0)
(1.05188 0.00971251 0)
(1.05246 0.00944599 0)
(1.05301 0.00920164 0)
(1.05351 0.00897594 0)
(1.05399 0.00876592 0)
(1.05443 0.00856914 0)
(1.05484 0.00838349 0)
(1.05521 0.00820719 0)
(1.05556 0.00803867 0)
(1.05587 0.00787654 0)
(1.05615 0.00771955 0)
(1.05641 0.00756651 0)
(1.05663 0.0074163 0)
(1.05683 0.00726781 0)
(1.057 0.00711984 0)
(1.05715 0.0069712 0)
(1.05727 0.00682042 0)
(1.05737 0.00666609 0)
(1.05744 0.0065062 0)
(1.0575 0.0063391 0)
(1.05755 0.0061618 0)
(1.05758 0.00597236 0)
(1.0576 0.00576613 0)
(1.05762 0.00554073 0)
(1.05764 0.00528906 0)
(1.05766 0.00500713 0)
(1.0577 0.00468559 0)
(1.05775 0.00431411 0)
(1.05783 0.00388523 0)
(1.05794 0.00336827 0)
(1.0581 0.00277032 0)
(1.05829 0.00200979 0)
(1.05852 0.0011296 0)
(1.05878 -3.26747e-05 0)
(1.05902 -0.00137768 0)
(1.05919 -0.00304385 0)
(1.00162 0.0167594 0)
(1.02005 0.0241996 0)
(1.03312 0.0191569 0)
(1.03729 0.0166373 0)
(1.03886 0.0157369 0)
(1.04067 0.01459 0)
(1.04243 0.0134645 0)
(1.0438 0.0126453 0)
(1.04488 0.0120241 0)
(1.04582 0.0114915 0)
(1.04668 0.0110229 0)
(1.04746 0.0106137 0)
(1.04817 0.010254 0)
(1.04883 0.0099334 0)
(1.04945 0.00964416 0)
(1.05002 0.00938093 0)
(1.05057 0.0091395 0)
(1.05108 0.00891645 0)
(1.05157 0.0087089 0)
(1.05203 0.00851445 0)
(1.05247 0.00833106 0)
(1.05289 0.00815696 0)
(1.05329 0.00799061 0)
(1.05368 0.00783062 0)
(1.05404 0.00767575 0)
(1.05439 0.0075248 0)
(1.05473 0.00737666 0)
(1.05505 0.0072302 0)
(1.05535 0.00708421 0)
(1.05565 0.00693748 0)
(1.05593 0.00678851 0)
(1.0562 0.00663585 0)
(1.05647 0.00647748 0)
(1.05672 0.00631163 0)
(1.05697 0.00613533 0)
(1.05721 0.00594642 0)
(1.05746 0.00574041 0)
(1.0577 0.00551439 0)
(1.05795 0.00526184 0)
(1.05821 0.00497765 0)
(1.05848 0.00465367 0)
(1.05877 0.00427793 0)
(1.05908 0.0038442 0)
(1.05942 0.00332151 0)
(1.05979 0.00271474 0)
(1.06018 0.00195099 0)
(1.0606 0.00105881 0)
(1.06101 -9.03931e-05 0)
(1.06138 -0.00143503 0)
(1.06166 -0.00306953 0)
(1.00142 0.0152669 0)
(1.01812 0.0230754 0)
(1.03069 0.0186895 0)
(1.03503 0.0162356 0)
(1.03664 0.0154335 0)
(1.03841 0.0144069 0)
(1.04016 0.0133251 0)
(1.04153 0.0125179 0)
(1.04261 0.011911 0)
(1.04354 0.0113923 0)
(1.04438 0.0109333 0)
(1.04515 0.0105308 0)
(1.04585 0.0101765 0)
(1.0465 0.00986043 0)
(1.0471 0.009575 0)
(1.04767 0.00931495 0)
(1.0482 0.00907623 0)
(1.04871 0.00885549 0)
(1.04919 0.00864993 0)
(1.04965 0.00845721 0)
(1.0501 0.00827532 0)
(1.05052 0.00810253 0)
(1.05094 0.00793732 0)
(1.05134 0.00777833 0)
(1.05173 0.00762432 0)
(1.05211 0.00747412 0)
(1.05248 0.00732661 0)
(1.05285 0.00718067 0)
(1.05321 0.0070351 0)
(1.05357 0.00688868 0)
(1.05392 0.0067399 0)
(1.05427 0.0065873 0)
(1.05462 0.00642883 0)
(1.05497 0.00626264 0)
(1.05532 0.0060858 0)
(1.05567 0.00589593 0)
(1.05603 0.00568875 0)
(1.05639 0.00546086 0)
(1.05676 0.00520624 0)
(1.05715 0.00491892 0)
(1.05755 0.00459161 0)
(1.05796 0.00421133 0)
(1.05841 0.00377238 0)
(1.05887 0.00324456 0)
(1.05936 0.00262989 0)
(1.05986 0.00186438 0)
(1.06038 0.000964209 0)
(1.06088 -0.000171679 0)
(1.06132 -0.00150831 0)
(1.06165 -0.00311281 0)
(1.00124 0.0138797 0)
(1.01633 0.0219548 0)
(1.02837 0.0182247 0)
(1.03285 0.0158403 0)
(1.03451 0.01512 0)
(1.03624 0.0142138 0)
(1.03798 0.013182 0)
(1.03935 0.0123882 0)
(1.04043 0.0117952 0)
(1.04135 0.0112909 0)
(1.04218 0.0108422 0)
(1.04294 0.0104467 0)
(1.04363 0.010098 0)
(1.04426 0.00978664 0)
(1.04485 0.00950515 0)
(1.04541 0.00924836 0)
(1.04593 0.00901236 0)
(1.04643 0.00879388 0)
(1.0469 0.00859022 0)
(1.04735 0.00839904 0)
(1.04779 0.00821841 0)
(1.04821 0.00804661 0)
(1.04862 0.00788214 0)
(1.04902 0.00772367 0)
(1.04941 0.00756996 0)
(1.0498 0.00741987 0)
(1.05018 0.00727229 0)
(1.05056 0.0071261 0)
(1.05093 0.00698012 0)
(1.05131 0.00683312 0)
(1.05169 0.00668362 0)
(1.05206 0.00653009 0)
(1.05244 0.00637053 0)
(1.05283 0.00620299 0)
(1.05322 0.0060246 0)
(1.05361 0.0058328 0)
(1.05402 0.00562346 0)
(1.05443 0.0053928 0)
(1.05486 0.00513521 0)
(1.0553 0.00484406 0)
(1.05576 0.00451269 0)
(1.05624 0.00412759 0)
(1.05674 0.00368307 0)
(1.05726 0.00315044 0)
(1.0578 0.00252863 0)
(1.05835 0.00176216 0)
(1.05891 0.00085734 0)
(1.05944 -0.000265757 0)
(1.0599 -0.00158938 0)
(1.06025 -0.00316448 0)
(1.00107 0.0125957 0)
(1.01467 0.020842 0)
(1.02616 0.0177591 0)
(1.03077 0.0154523 0)
(1.03248 0.0147983 0)
(1.03416 0.0140104 0)
(1.03588 0.0130348 0)
(1.03726 0.0122562 0)
(1.03833 0.0116768 0)
(1.03925 0.0111873 0)
(1.04007 0.0107494 0)
(1.04081 0.0103613 0)
(1.04149 0.0100184 0)
(1.04212 0.00971196 0)
(1.0427 0.00943455 0)
(1.04324 0.00918114 0)
(1.04376 0.00894794 0)
(1.04424 0.00873179 0)
(1.0447 0.00853004 0)
(1.04514 0.00834041 0)
(1.04557 0.00816098 0)
(1.04598 0.00799009 0)
(1.04638 0.00782625 0)
(1.04678 0.00766813 0)
(1.04716 0.00751452 0)
(1.04754 0.00736428 0)
(1.04792 0.00721633 0)
(1.0483 0.00706955 0)
(1.04867 0.00692278 0)
(1.04905 0.00677479 0)
(1.04943 0.00662409 0)
(1.04981 0.00646916 0)
(1.05019 0.00630798 0)
(1.05059 0.00613856 0)
(1.05099 0.00595806 0)
(1.0514 0.00576375 0)
(1.05181 0.00555168 0)
(1.05224 0.00531774 0)
(1.05269 0.00505663 0)
(1.05315 0.00476129 0)
(1.05363 0.00442541 0)
(1.05412 0.00403539 0)
(1.05464 0.00358517 0)
(1.05518 0.00304802 0)
(1.05573 0.00241989 0)
(1.0563 0.00165305 0)
(1.05685 0.00074625 0)
(1.05737 -0.000364238 0)
(1.05783 -0.00167146 0)
(1.05815 -0.00321711 0)
(1.00093 0.0114124 0)
(1.01314 0.0197409 0)
(1.02407 0.0172896 0)
(1.02877 0.0150722 0)
(1.03053 0.0144704 0)
(1.03218 0.0137963 0)
(1.03388 0.0128829 0)
(1.03526 0.0121218 0)
(1.03633 0.0115557 0)
(1.03724 0.0110812 0)
(1.03805 0.0106548 0)
(1.03878 0.0102746 0)
(1.03946 0.00993774 0)
(1.04007 0.00963631 0)
(1.04064 0.00936313 0)
(1.04117 0.00911324 0)
(1.04168 0.00888294 0)
(1.04215 0.00866919 0)
(1.0426 0.0084694 0)
(1.04303 0.00828136 0)
(1.04345 0.00810317 0)
(1.04385 0.00793318 0)
(1.04425 0.00776994 0)
(1.04463 0.00761213 0)
(1.04501 0.00745856 0)
(1.04538 0.0073081 0)
(1.04575 0.00715967 0)
(1.04612 0.00701218 0)
(1.04648 0.00686447 0)
(1.04685 0.0067153 0)
(1.04723 0.00656322 0)
(1.0476 0.00640667 0)
(1.04799 0.00624365 0)
(1.04838 0.00607209 0)
(1.04877 0.00588922 0)
(1.04918 0.00569215 0)
(1.0496 0.00547707 0)
(1.05003 0.00523962 0)
(1.05047 0.00497473 0)
(1.05093 0.00467508 0)
(1.05141 0.00433452 0)
(1.0519 0.00393967 0)
(1.05242 0.00348389 0)
(1.05295 0.00294258 0)
(1.05349 0.00230911 0)
(1.05404 0.00154244 0)
(1.05457 0.000636078 0)
(1.05507 -0.000461698 0)
(1.05549 -0.00175021 0)
(1.05578 -0.00326584 0)
(1.0008 0.0103265 0)
(1.01174 0.0186559 0)
(1.02208 0.0168136 0)
(1.02685 0.0147003 0)
(1.02868 0.0141383 0)
(1.03029 0.0135714 0)
(1.03197 0.0127256 0)
(1.03335 0.0119851 0)
(1.03442 0.011432 0)
(1.03532 0.0109725 0)
(1.03612 0.0105583 0)
(1.03685 0.0101864 0)
(1.03751 0.00985581 0)
(1.03811 0.0095596 0)
(1.03868 0.00929083 0)
(1.0392 0.00904458 0)
(1.03969 0.00881729 0)
(1.04016 0.00860603 0)
(1.0406 0.00840828 0)
(1.04102 0.00822187 0)
(1.04143 0.00804495 0)
(1.04182 0.0078759 0)
(1.0422 0.00771327 0)
(1.04258 0.00755578 0)
(1.04295 0.00740223 0)
(1.04331 0.00725153 0)
(1.04367 0.00710258 0)
(1.04403 0.00695433 0)
(1.04439 0.00680562 0)
(1.04475 0.00665523 0)
(1.04512 0.00650169 0)
(1.04549 0.00634343 0)
(1.04586 0.00617847 0)
(1.04624 0.0060047 0)
(1.04663 0.00581935 0)
(1.04703 0.00561945 0)
(1.04744 0.00540126 0)
(1.04786 0.00516026 0)
(1.0483 0.00489152 0)
(1.04875 0.00458762 0)
(1.04922 0.00424241 0)
(1.0497 0.00384294 0)
(1.0502 0.00338195 0)
(1.05071 0.00283694 0)
(1.05124 0.00219923 0)
(1.05176 0.00143343 0)
(1.05226 0.000529642 0)
(1.05272 -0.000554978 0)
(1.0531 -0.00182293 0)
(1.05335 -0.00330741 0)
(1.00069 0.00933417 0)
(1.01046 0.0175908 0)
(1.02021 0.0163286 0)
(1.02502 0.0143366 0)
(1.02692 0.0138039 0)
(1.0285 0.013336 0)
(1.03014 0.0125624 0)
(1.03152 0.0118458 0)
(1.0326 0.0113057 0)
(1.03349 0.0108612 0)
(1.03428 0.0104597 0)
(1.035 0.0100967 0)
(1.03565 0.00977255 0)
(1.03625 0.00948175 0)
(1.0368 0.00921754 0)
(1.03732 0.00897507 0)
(1.0378 0.00875091 0)
(1.03826 0.00854223 0)
(1.03869 0.00834658 0)
(1.0391 0.00816187 0)
(1.0395 0.00798627 0)
(1.03989 0.00781819 0)
(1.04026 0.0076562 0)
(1.04063 0.00749904 0)
(1.04099 0.00734552 0)
(1.04134 0.00719457 0)
(1.04169 0.0070451 0)
(1.04205 0.00689608 0)
(1.0424 0.00674636 0)
(1.04275 0.00659471 0)
(1.04311 0.00643969 0)
(1.04347 0.00627971 0)
(1.04384 0.00611279 0)
(1.04421 0.00593677 0)
(1.04459 0.00574893 0)
(1.04498 0.00554619 0)
(1.04538 0.00532489 0)
(1.04579 0.00508039 0)
(1.04621 0.00480785 0)
(1.04665 0.00449985 0)
(1.04711 0.00415016 0)
(1.04757 0.0037464 0)
(1.04805 0.00328069 0)
(1.04855 0.00273254 0)
(1.04904 0.00209177 0)
(1.04953 0.00132765 0)
(1.05 0.00042839 0)
(1.05042 -0.00064227 0)
(1.05076 -0.00188804 0)
(1.05096 -0.00333996 0)
(1.0006 0.0084311 0)
(1.0093 0.0165498 0)
(1.01845 0.015833 0)
(1.02328 0.0139807 0)
(1.02525 0.0134692 0)
(1.02679 0.0130906 0)
(1.0284 0.0123926 0)
(1.02978 0.0117038 0)
(1.03086 0.0111767 0)
(1.03174 0.0107471 0)
(1.03253 0.0103589 0)
(1.03324 0.0100052 0)
(1.03389 0.00968788 0)
(1.03448 0.00940266 0)
(1.03502 0.00914318 0)
(1.03553 0.00890465 0)
(1.036 0.00868373 0)
(1.03645 0.00847772 0)
(1.03687 0.00828426 0)
(1.03728 0.00810131 0)
(1.03767 0.00792707 0)
(1.03805 0.00775999 0)
(1.03841 0.00759867 0)
(1.03877 0.00744186 0)
(1.03912 0.00728839 0)
(1.03947 0.00713718 0)
(1.03981 0.00698721 0)
(1.04016 0.00683741 0)
(1.0405 0.00668667 0)
(1.04085 0.00653376 0)
(1.0412 0.00637725 0)
(1.04155 0.00621555 0)
(1.04191 0.00604667 0)
(1.04227 0.00586842 0)
(1.04264 0.0056781 0)
(1.04302 0.00547257 0)
(1.04341 0.0052482 0)
(1.04381 0.0050003 0)
(1.04422 0.00472407 0)
(1.04465 0.00441217 0)
(1.04509 0.00405828 0)
(1.04554 0.0036506 0)
(1.046 0.00318076 0)
(1.04647 0.0026301 0)
(1.04694 0.00198749 0)
(1.0474 0.00122598 0)
(1.04783 0.000333072 0)
(1.0482 -0.00072258 0)
(1.0485 -0.00194467 0)
(1.04865 -0.00336236 0)
(1.00051 0.00761252 0)
(1.00825 0.0155368 0)
(1.01681 0.0153254 0)
(1.02161 0.0136319 0)
(1.02366 0.0131359 0)
(1.02517 0.0128358 0)
(1.02675 0.0122158 0)
(1.02812 0.0115589 0)
(1.0292 0.0110453 0)
(1.03008 0.0106302 0)
(1.03086 0.0102557 0)
(1.03157 0.00991187 0)