/*--------------------------------*- C++ -*----------------------------------*\
  =========                 |
  \\      /  F ield         | OpenFOAM: The Open Source CFD Toolbox
   \\    /   O peration     | Website:  https://openfoam.org
    \\  /    A nd           | Version:  7
     \\/     M anipulation  |
\*---------------------------------------------------------------------------*/
FoamFile
{
    version     2.0;
    format      ascii;
    class       volVectorField;
    location    "0.36";
    object      U_0;
}
// * * * * * * * * * * * * * * * * * * * * * * * * * * * * * * * * * * * * * //

dimensions      [0 1 -1 0 0 0 0];

internalField   nonuniform List<vector> 
70000
(
(0.553415 0.016978 0)
(0.251426 0.00340029 0)
(0.165946 0.000318845 0)
(0.132475 4.8922e-05 0)
(0.117382 4.39712e-05 0)
(0.107437 5.2131e-05 0)
(0.0994788 4.43243e-05 0)
(0.0930489 3.52391e-05 0)
(0.0878192 2.91915e-05 0)
(0.0834652 2.50427e-05 0)
(0.0797589 2.18683e-05 0)
(0.0765527 1.93194e-05 0)
(0.0737456 1.72364e-05 0)
(0.0712635 1.55106e-05 0)
(0.0690504 1.40613e-05 0)
(0.0670628 1.28287e-05 0)
(0.0652668 1.17682e-05 0)
(0.063635 1.08456e-05 0)
(0.0621457 1.00351e-05 0)
(0.0607808 9.31598e-06 0)
(0.0595256 8.67212e-06 0)
(0.0583678 8.09021e-06 0)
(0.0572971 7.55937e-06 0)
(0.0563049 7.07048e-06 0)
(0.0553838 6.6157e-06 0)
(0.0545277 6.18835e-06 0)
(0.0537314 5.78195e-06 0)
(0.0529905 5.39156e-06 0)
(0.0523013 5.01041e-06 0)
(0.0516606 4.6353e-06 0)
(0.0510663 4.25742e-06 0)
(0.0505162 3.87571e-06 0)
(0.0500092 3.47771e-06 0)
(0.0495444 3.0634e-06 0)
(0.0491214 2.61866e-06 0)
(0.0487411 2.13333e-06 0)
(0.0484032 1.61409e-06 0)
(0.0481122 9.87417e-07 0)
(0.047865 3.81398e-07 0)
(0.047676 -5.41804e-07 0)
(0.0475302 -1.18255e-06 0)
(0.0474693 -2.80034e-06 0)
(0.0474401 -3.1965e-06 0)
(0.0475581 -6.33852e-06 0)
(0.0476655 -5.41278e-06 0)
(0.0480579 -1.24877e-05 0)
(0.0483365 -7.19483e-06 0)
(0.0491348 -2.52585e-05 0)
(0.0500414 2.36383e-05 0)
(0.0467287 -0.00194417 0)
(0.884863 0.0434928 0)
(0.650163 0.020148 0)
(0.494019 0.00660349 0)
(0.403627 0.00275354 0)
(0.354946 0.00154671 0)
(0.323661 0.00113039 0)
(0.299792 0.000907936 0)
(0.280615 0.000743302 0)
(0.264934 0.000620543 0)
(0.251846 0.000529976 0)
(0.240701 0.000461175 0)
(0.231058 0.000406985 0)
(0.222611 0.000363154 0)
(0.215137 0.000327032 0)
(0.208468 0.000296816 0)
(0.202475 0.000271207 0)
(0.197056 0.00024925 0)
(0.192128 0.000230227 0)
(0.187627 0.000213585 0)
(0.183498 0.000198899 0)
(0.179696 0.000185829 0)
(0.176186 0.000174105 0)
(0.172935 0.000163507 0)
(0.169918 0.000153852 0)
(0.167113 0.000144988 0)
(0.1645 0.000136783 0)
(0.162064 0.000129124 0)
(0.159791 0.000121909 0)
(0.157669 0.000115042 0)
(0.15569 0.000108442 0)
(0.153844 0.000102012 0)
(0.152125 9.5684e-05 0)
(0.150529 8.93431e-05 0)
(0.149052 8.29327e-05 0)
(0.147691 7.6294e-05 0)
(0.146448 6.93818e-05 0)
(0.145321 6.19704e-05 0)
(0.144318 5.3979e-05 0)
(0.143432 4.51773e-05 0)
(0.142697 3.51853e-05 0)
(0.142072 2.42204e-05 0)
(0.141664 1.05093e-05 0)
(0.141332 -3.20129e-06 0)
(0.141372 -2.46995e-05 0)
(0.141372 -4.16209e-05 0)
(0.142089 -8.14436e-05 0)
(0.142508 -9.11911e-05 0)
(0.144178 -0.000218259 0)
(0.146047 8.19455e-05 0)
(0.143819 -0.00346782 0)
(0.991208 0.0499546 0)
(0.890937 0.0305605 0)
(0.762536 0.0146076 0)
(0.656618 0.00796763 0)
(0.585555 0.00487638 0)
(0.536226 0.00347126 0)
(0.498373 0.00273501 0)
(0.467782 0.00224065 0)
(0.442508 0.0018768 0)
(0.421242 0.00160501 0)
(0.403034 0.00139736 0)
(0.387219 0.00123382 0)
(0.373321 0.00110163 0)
(0.360991 0.000992717 0)
(0.349964 0.000901598 0)
(0.340034 0.000824369 0)
(0.331037 0.000758154 0)
(0.322843 0.000700792 0)
(0.315346 0.000650633 0)
(0.308459 0.00060639 0)
(0.30211 0.00056705 0)
(0.296238 0.000531803 0)
(0.290793 0.000499987 0)
(0.285731 0.00047106 0)
(0.281017 0.000444565 0)
(0.276619 0.000420116 0)
(0.27251 0.000397374 0)
(0.268668 0.000376045 0)
(0.265073 0.000355855 0)
(0.261709 0.000336561 0)
(0.258562 0.000317906 0)
(0.255619 0.000299686 0)
(0.252874 0.000281604 0)
(0.250318 0.000263494 0)
(0.247946 0.000244938 0)
(0.245757 0.000225847 0)
(0.243748 0.000205535 0)
(0.24193 0.000184048 0)
(0.240288 0.000160248 0)
(0.238872 0.00013427 0)
(0.237619 0.000104572 0)
(0.236682 7.0524e-05 0)
(0.235852 3.19905e-05 0)
(0.235555 -1.77431e-05 0)
(0.235196 -6.91843e-05 0)
(0.23584 -0.000159027 0)
(0.236071 -0.00020265 0)
(0.238023 -0.000482379 0)
(0.239904 -0.000131898 0)
(0.240475 -0.00390139 0)
(1.01554 0.0489525 0)
(1.0065 0.0357208 0)
(0.935923 0.0208143 0)
(0.85209 0.0134928 0)
(0.782362 0.00919215 0)
(0.727263 0.00677745 0)
(0.682222 0.00538117 0)
(0.644509 0.00443978 0)
(0.612543 0.00374488 0)
(0.585129 0.00321866 0)
(0.56133 0.002812 0)
(0.540439 0.00248957 0)
(0.521928 0.00222785 0)
(0.505394 0.00201148 0)
(0.490524 0.00182993 0)
(0.47707 0.00167567 0)
(0.46483 0.00154316 0)
(0.453643 0.00142817 0)
(0.443375 0.0013275 0)
(0.433915 0.00123862 0)
(0.425172 0.00115955 0)
(0.417066 0.00108868 0)
(0.409532 0.00102472 0)
(0.402513 0.000966597 0)
(0.395962 0.00091341 0)
(0.389837 0.000864395 0)
(0.384102 0.000818891 0)
(0.378727 0.000776317 0)
(0.373685 0.000736143 0)
(0.368954 0.000697898 0)
(0.364514 0.000661096 0)
(0.360349 0.000625336 0)
(0.356447 0.000590081 0)
(0.352797 0.000555009 0)
(0.349391 0.000519359 0)
(0.346226 0.00048299 0)
(0.343294 0.000444574 0)
(0.340608 0.000404428 0)
(0.338149 0.000360007 0)
(0.335973 0.000312582 0)
(0.334005 0.000257434 0)
(0.33242 0.000196998 0)
(0.330977 0.000124377 0)
(0.330159 3.94883e-05 0)
(0.32929 -5.74581e-05 0)
(0.329572 -0.000205898 0)
(0.329406 -0.000304343 0)
(0.331224 -0.000730949 0)
(0.332608 -0.000463276 0)
(0.334766 -0.00402202 0)
(1.01435 0.0460967 0)
(1.04799 0.037337 0)
(1.02459 0.02418 0)
(0.974741 0.0175494 0)
(0.923591 0.0131002 0)
(0.876914 0.0101963 0)
(0.834807 0.0083359 0)
(0.797118 0.00701278 0)
(0.76362 0.00600145 0)
(0.733872 0.00521324 0)
(0.707359 0.00459055 0)
(0.683612 0.00408897 0)
(0.662231 0.00367708 0)
(0.642887 0.00333342 0)
(0.625303 0.00304291 0)
(0.609249 0.00279456 0)
(0.594534 0.0025801 0)
(0.580995 0.00239322 0)
(0.568498 0.00222901 0)
(0.556927 0.00208361 0)
(0.546184 0.00195392 0)
(0.536184 0.00183747 0)
(0.526854 0.00173222 0)
(0.518134 0.00163646 0)
(0.509968 0.00154879 0)
(0.502309 0.00146798 0)
(0.495117 0.00139299 0)
(0.488356 0.0013229 0)
(0.481996 0.00125685 0)
(0.476009 0.00119411 0)
(0.470374 0.00113391 0)
(0.46507 0.00107562 0)
(0.460082 0.0010184 0)
(0.455397 0.000961759 0)
(0.451003 0.000904527 0)
(0.446896 0.000846504 0)
(0.443067 0.000785621 0)
(0.439527 0.000722524 0)
(0.436255 0.00065302 0)
(0.433307 0.000579783 0)
(0.430605 0.000494319 0)
(0.428327 0.000402863 0)
(0.426229 0.000290704 0)
(0.424797 0.000164546 0)
(0.423354 1.48168e-05 0)
(0.423099 -0.000196808 0)
(0.422447 -0.000365252 0)
(0.42383 -0.000922495 0)
(0.424664 -0.000819989 0)
(0.427061 -0.00410351 0)
(1.00941 0.0430462 0)
(1.05564 0.0370918 0)
(1.05869 0.0253201 0)
(1.03635 0.0197521 0)
(1.00721 0.0157854 0)
(0.976244 0.0129206 0)
(0.944772 0.0109486 0)
(0.913965 0.00946464 0)
(0.884678 0.00827255 0)
(0.857291 0.00730388 0)
(0.831881 0.00651304 0)
(0.808386 0.00585959 0)
(0.786685 0.00531215 0)
(0.766635 0.00484799 0)
(0.748092 0.00445041 0)
(0.730914 0.00410677 0)
(0.714972 0.00380728 0)
(0.700149 0.00354426 0)
(0.686339 0.00331159 0)
(0.673448 0.0031044 0)
(0.661393 0.00291871 0)
(0.650101 0.00275127 0)
(0.639505 0.0025994 0)
(0.629549 0.00246083 0)
(0.620181 0.00233365 0)
(0.611355 0.00221622 0)
(0.603033 0.00210711 0)
(0.595179 0.00200503 0)
(0.587762 0.00190884 0)
(0.580755 0.0018175 0)
(0.574134 0.00172996 0)
(0.567879 0.00164532 0)
(0.561974 0.00156248 0)
(0.556403 0.0014807 0)
(0.551156 0.00139841 0)
(0.546227 0.00131533 0)
(0.541605 0.00122863 0)
(0.5373 0.00113925 0)
(0.533293 0.00104135 0)
(0.529633 0.000938921 0)
(0.526251 0.0008198 0)
(0.523311 0.000693694 0)
(0.520587 0.000538558 0)
(0.518531 0.000367424 0)
(0.516526 0.000159198 0)
(0.515662 -0.000118041 0)
(0.514526 -0.000365375 0)
(0.515287 -0.00104345 0)
(0.515645 -0.00113202 0)
(0.517632 -0.004142 0)
(1.00635 0.0401781 0)
(1.05241 0.0361447 0)
(1.06607 0.0252426 0)
(1.05956 0.0205554 0)
(1.04696 0.01721 0)
(1.03095 0.0146358 0)
(1.0121 0.0128038 0)
(0.991466 0.0113768 0)
(0.970119 0.0101779 0)
(0.948783 0.00916095 0)
(0.927899 0.00829956 0)
(0.907729 0.00756546 0)
(0.888421 0.00693423 0)
(0.870043 0.00638711 0)
(0.852616 0.00590965 0)
(0.836126 0.00549036 0)
(0.820543 0.00511994 0)
(0.805825 0.00479077 0)
(0.791924 0.00449664 0)
(0.778792 0.00423238 0)
(0.766381 0.00399371 0)
(0.754646 0.00377705 0)
(0.743541 0.00357936 0)
(0.733027 0.00339807 0)
(0.723065 0.00323094 0)
(0.713622 0.00307603 0)
(0.704664 0.00293163 0)
(0.696164 0.0027962 0)
(0.688096 0.00266832 0)
(0.680436 0.0025467 0)
(0.673165 0.00243005 0)
(0.666264 0.00231725 0)
(0.65972 0.0022069 0)
(0.653518 0.00209807 0)
(0.64765 0.0019888 0)
(0.642108 0.00187869 0)
(0.636885 0.00176422 0)
(0.631989 0.00164652 0)
(0.627404 0.00151829 0)
(0.623172 0.00138449 0)
(0.619237 0.00122988 0)
(0.615739 0.00106661 0)
(0.612491 0.000867049 0)
(0.609879 0.000647676 0)
(0.607387 0.000380734 0)
(0.605937 3.25466e-05 0)
(0.604372 -0.000296536 0)
(0.604459 -0.00108616 0)
(0.60439 -0.00137397 0)
(0.605771 -0.00412038 0)
(1.00506 0.0375008 0)
(1.04763 0.0350461 0)
(1.06397 0.0246946 0)
(1.06421 0.0205855 0)
(1.06074 0.0177466 0)
(1.05487 0.0154744 0)
(1.04615 0.0138572 0)
(1.03501 0.0125948 0)
(1.02215 0.0115064 0)
(1.00819 0.0105521 0)
(0.993569 0.009718 0)
(0.978649 0.00898618 0)
(0.963694 0.00833984 0)
(0.948896 0.00776591 0)
(0.934393 0.00725412 0)
(0.920276 0.006796 0)
(0.906605 0.00638436 0)
(0.893415 0.00601306 0)
(0.880723 0.00567683 0)
(0.868535 0.00537116 0)
(0.856848 0.00509217 0)
(0.845651 0.00483653 0)
(0.834934 0.00460132 0)
(0.824678 0.00438399 0)
(0.814869 0.00418231 0)
(0.805489 0.00399426 0)
(0.796521 0.00381805 0)
(0.787949 0.00365201 0)
(0.779756 0.00349461 0)
(0.771928 0.00334439 0)
(0.764453 0.00319992 0)
(0.757318 0.00305989 0)
(0.750514 0.00292269 0)
(0.744032 0.00278721 0)
(0.737865 0.00265118 0)
(0.73201 0.00251407 0)
(0.726462 0.00237178 0)
(0.721229 0.00222548 0)
(0.7163 0.00206673 0)
(0.711712 0.00190097 0)
(0.70742 0.0017108 0)
(0.703544 0.00150937 0)
(0.699934 0.0012658 0)
(0.696908 0.000996554 0)
(0.694062 0.000672721 0)
(0.692127 0.0002504 0)
(0.690231 -0.000160881 0)
(0.689708 -0.00104977 0)
(0.689252 -0.00153587 0)
(0.690018 -0.0040439 0)
(1.00451 0.0349648 0)
(1.0436 0.0339659 0)
(1.05995 0.0240433 0)
(1.06225 0.0202953 0)
(1.06256 0.0178102 0)
(1.06192 0.015752 0)
(1.05938 0.0143081 0)
(1.05487 0.013211 0)
(1.0487 0.0122642 0)
(1.04119 0.0114215 0)
(1.03261 0.0106714 0)
(1.02321 0.0100001 0)
(1.01323 0.0093946 0)
(1.00286 0.00884545 0)
(0.992268 0.00834571 0)
(0.981581 0.00788976 0)
(0.970903 0.00747274 0)
(0.960316 0.00709039 0)
(0.949882 0.00673893 0)
(0.939647 0.00641502 0)
(0.929644 0.00611566 0)
(0.919898 0.00583819 0)
(0.910425 0.00558022 0)
(0.901235 0.00533959 0)
(0.892335 0.00511434 0)
(0.883727 0.00490264 0)
(0.875411 0.00470283 0)
(0.867385 0.00451331 0)
(0.859647 0.00433257 0)
(0.852193 0.00415915 0)
(0.84502 0.00399154 0)
(0.838124 0.00382837 0)
(0.831502 0.0036679 0)
(0.825152 0.00350892 0)
(0.819073 0.00334891 0)
(0.813267 0.00318722 0)
(0.807731 0.0030193 0)
(0.802477 0.00284627 0)
(0.797498 0.00265888 0)
(0.792828 0.00246257 0)
(0.788435 0.0022387 0)
(0.784417 0.00200004 0)
(0.780664 0.00171481 0)
(0.777424 0.0013963 0)
(0.774404 0.00101831 0)
(0.772153 0.000524985 0)
(0.770058 3.16745e-05 0)
(0.769068 -0.000942907 0)
(0.768297 -0.00161762 0)
(0.768524 -0.00392342 0)
(1.00412 0.032534 0)
(1.04027 0.0329121 0)
(1.05618 0.0234082 0)
(1.0589 0.0199101 0)
(1.06029 0.0176802 0)
(1.06169 0.0157532 0)
(1.06209 0.0144103 0)
(1.06123 0.0134279 0)
(1.05921 0.0125966 0)
(1.05613 0.0118592 0)
(1.0521 0.0112017 0)
(1.04721 0.0106098 0)
(1.04159 0.0100707 0)
(1.03538 0.00957554 0)
(1.02868 0.00911841 0)
(1.02161 0.00869504 0)
(1.01426 0.00830195 0)
(1.00673 0.00793619 0)
(0.999078 0.00759516 0)
(0.991369 0.00727654 0)
(0.983655 0.00697826 0)
(0.975976 0.00669841 0)
(0.968368 0.00643523 0)
(0.960858 0.0061871 0)
(0.95347 0.00595249 0)
(0.946221 0.00572992 0)
(0.939125 0.00551799 0)
(0.932193 0.00531532 0)
(0.925436 0.00512055 0)
(0.918859 0.00493231 0)
(0.912468 0.00474915 0)
(0.90627 0.00456972 0)
(0.900268 0.00439224 0)
(0.894467 0.00421543 0)
(0.888872 0.00403664 0)
(0.883488 0.00385512 0)
(0.878321 0.00366602 0)
(0.873383 0.0034703 0)
(0.868673 0.00325823 0)
(0.864222 0.00303483 0)
(0.860011 0.00278113 0)
(0.856119 0.00250824 0)
(0.85247 0.00218558 0)
(0.849253 0.00182074 0)
(0.84627 0.00139325 0)
(0.843911 0.000834389 0)
(0.841779 0.000262148 0)
(0.84051 -0.000783596 0)
(0.839534 -0.00162913 0)
(0.83935 -0.00377145 0)
(1.00374 0.0301996 0)
(1.03727 0.0318626 0)
(1.05285 0.0228042 0)
(1.05566 0.0195072 0)
(1.0572 0.0174888 0)
(1.05915 0.0156502 0)
(1.06061 0.0143545 0)
(1.06134 0.0134353 0)
(1.06138 0.0126771 0)
(1.06077 0.0120133 0)
(1.05951 0.0114276 0)
(1.05761 0.0109044 0)
(1.05511 0.0104291 0)
(1.05205 0.00999191 0)
(1.04849 0.00958632 0)
(1.0445 0.00920796 0)
(1.04014 0.00885354 0)
(1.03546 0.00852044 0)
(1.03053 0.00820654 0)
(1.02539 0.00791004 0)
(1.02008 0.00762937 0)
(1.01467 0.00736313 0)
(1.00917 0.00711004 0)
(1.00363 0.0068689 0)
(0.998067 0.00663856 0)
(0.992513 0.0064179 0)
(0.986988 0.00620578 0)
(0.98151 0.00600109 0)
(0.976096 0.00580263 0)
(0.97076 0.0056092 0)
(0.965514 0.00541946 0)
(0.96037 0.00523211 0)
(0.955338 0.00504539 0)
(0.950428 0.00485803 0)
(0.94565 0.00466729 0)
(0.941015 0.00447233 0)
(0.93653 0.00426814 0)
(0.93221 0.00405541 0)
(0.928061 0.0038243 0)
(0.924111 0.00357898 0)
(0.920351 0.00330096 0)
(0.916843 0.00299873 0)
(0.913543 0.00264443 0)
(0.910586 0.00223845 0)
(0.907851 0.00176761 0)
(0.905603 0.00115105 0)
(0.903607 0.000506211 0)
(0.902262 -0.000595419 0)
(0.901219 -0.00158817 0)
(0.900779 -0.00360311 0)
(1.00337 0.027964 0)
(1.03444 0.0308051 0)
(1.04974 0.0222251 0)
(1.0527 0.0191015 0)
(1.0542 0.0172788 0)
(1.0562 0.015518 0)
(1.05794 0.0142442 0)
(1.05919 0.0133553 0)
(1.06004 0.0126374 0)
(1.06053 0.0120165 0)
(1.06066 0.0114754 0)
(1.0604 0.0109984 0)
(1.05973 0.0105699 0)
(1.05868 0.0101786 0)
(1.05724 0.00981728 0)
(1.05544 0.00948071 0)
(1.0533 0.00916513 0)
(1.05085 0.00886763 0)
(1.04813 0.00858595 0)
(1.04517 0.00831828 0)
(1.04199 0.00806311 0)
(1.03862 0.00781919 0)
(1.03511 0.00758539 0)
(1.03146 0.00736071 0)
(1.02772 0.00714421 0)
(1.02389 0.00693494 0)
(1.02001 0.00673199 0)
(1.0161 0.00653439 0)
(1.01216 0.00634109 0)
(1.00822 0.00615103 0)
(1.00429 0.00596294 0)
(1.00038 0.00577559 0)
(0.996517 0.00558725 0)
(0.992702 0.00539665 0)
(0.98895 0.00520101 0)
(0.985275 0.00499939 0)
(0.981686 0.00478672 0)
(0.9782 0.00456335 0)
(0.974825 0.00431955 0)
(0.971587 0.00405839 0)
(0.968485 0.00376243 0)
(0.965568 0.00343692 0)
(0.962813 0.00305772 0)
(0.960315 0.00261747 0)
(0.958009 0.0021104 0)
(0.956066 0.00144616 0)
(0.954361 0.000737374 0)
(0.953128 -0.000404529 0)
(0.952158 -0.00151746 0)
(0.951623 -0.00343563 0)
(1.00301 0.0258306 0)
(1.03171 0.0297354 0)
(1.04675 0.0216672 0)
(1.0499 0.0186929 0)
(1.05138 0.0170571 0)
(1.05335 0.0153788 0)
(1.05512 0.01412 0)
(1.05648 0.0132471 0)
(1.05756 0.0125519 0)
(1.05845 0.0119545 0)
(1.05914 0.0114376 0)
(1.05961 0.0109869 0)
(1.05985 0.0105867 0)
(1.05985 0.0102252 0)
(1.05961 0.00989437 0)
(1.05912 0.00958845 0)
(1.0584 0.00930314 0)
(1.05744 0.0090351 0)
(1.05626 0.00878168 0)
(1.05486 0.0085408 0)
(1.05327 0.00831077 0)
(1.05151 0.00809018 0)
(1.04958 0.00787786 0)
(1.0475 0.00767276 0)
(1.0453 0.00747395 0)
(1.04298 0.00728054 0)
(1.04057 0.00709163 0)
(1.03808 0.00690633 0)
(1.03553 0.00672364 0)
(1.03292 0.00654255 0)
(1.03027 0.00636181 0)
(1.0276 0.00618024 0)
(1.02492 0.00599607 0)
(1.02223 0.00580803 0)
(1.01956 0.00561329 0)
(1.01691 0.00541079 0)
(1.0143 0.00519545 0)
(1.01174 0.00496719 0)
(1.00924 0.00471663 0)
(1.00682 0.00444548 0)
(1.00448 0.00413781 0)
(1.00227 0.00379529 0)
(1.00018 0.00339792 0)
(0.998268 0.00293098 0)
(0.996509 0.00239501 0)
(0.995006 0.00169404 0)
(0.993703 0.000931547 0)
(0.992725 -0.000235725 0)
(0.991947 -0.00144098 0)
(0.991454 -0.00328584 0)
(1.00268 0.023802 0)
(1.02912 0.0286519 0)
(1.04383 0.0211301 0)
(1.04721 0.0182811 0)
(1.04869 0.0168219 0)
(1.05063 0.0152352 0)
(1.05239 0.0139931 0)
(1.05376 0.0131314 0)
(1.05488 0.0124523 0)
(1.05586 0.0118696 0)
(1.05672 0.0113661 0)
(1.05745 0.0109295 0)
(1.05805 0.0105447 0)
(1.05852 0.0102 0)
(1.05885 0.00988715 0)
(1.05904 0.00960021 0)
(1.05907 0.00933459 0)
(1.05896 0.00908665 0)
(1.05869 0.00885347 0)
(1.05828 0.00863269 0)
(1.05772 0.00842239 0)
(1.05702 0.00822096 0)
(1.0562 0.00802707 0)
(1.05525 0.00783953 0)
(1.05418 0.00765731 0)
(1.05301 0.00747944 0)
(1.05174 0.00730498 0)
(1.05039 0.00713298 0)
(1.04896 0.00696244 0)
(1.04746 0.00679231 0)
(1.04591 0.00662131 0)
(1.04431 0.00644824 0)
(1.04267 0.00627127 0)
(1.041 0.00608908 0)
(1.03931 0.00589877 0)
(1.03762 0.00569913 0)
(1.03592 0.00548512 0)
(1.03425 0.00525614 0)
(1.03259 0.00500328 0)
(1.03098 0.0047268 0)
(1.02942 0.00441249 0)
(1.02794 0.00405841 0)
(1.02653 0.00364864 0)
(1.02524 0.00316215 0)
(1.02407 0.00260401 0)
(1.02306 0.00187686 0)
(1.02221 0.00107145 0)
(1.02157 -0.000108393 0)
(1.02105 -0.00137943 0)
(1.0207 -0.00316726 0)
(1.00238 0.0218799 0)
(1.02665 0.0275537 0)
(1.04101 0.0206133 0)
(1.0446 0.0178678 0)
(1.0461 0.0165719 0)
(1.04801 0.0150856 0)
(1.04977 0.0138646 0)
(1.05113 0.0130132 0)
(1.05224 0.0123487 0)
(1.05322 0.0117781 0)
(1.05411 0.0112838 0)
(1.05491 0.0108555 0)
(1.05563 0.0104794 0)
(1.05626 0.0101439 0)
(1.05681 0.00984092 0)
(1.05728 0.00956455 0)
(1.05766 0.00931021 0)
(1.05796 0.00907417 0)
(1.05816 0.00885342 0)
(1.05827 0.00864545 0)
(1.05829 0.0084482 0)
(1.05822 0.00825993 0)
(1.05806 0.00807914 0)
(1.05781 0.00790453 0)
(1.05748 0.00773497 0)
(1.05707 0.00756936 0)
(1.05658 0.00740669 0)
(1.05603 0.00724594 0)
(1.0554 0.00708603 0)
(1.05472 0.00692585 0)
(1.05398 0.00676406 0)
(1.0532 0.00659939 0)
(1.05237 0.00642995 0)
(1.0515 0.00625432 0)
(1.05061 0.00606953 0)
(1.0497 0.00587417 0)
(1.04878 0.00566328 0)
(1.04785 0.00543568 0)
(1.04693 0.00518304 0)
(1.04602 0.00490412 0)
(1.04515 0.00458645 0)
(1.04431 0.00422481 0)
(1.04353 0.00380682 0)
(1.04281 0.00330663 0)
(1.04218 0.00273178 0)
(1.04166 0.00198751 0)
(1.04125 0.00114889 0)
(1.04096 -3.30534e-05 0)
(1.04073 -0.00134584 0)
(1.04056 -0.0030878 0)
(1.0021 0.0200654 0)
(1.02431 0.0264429 0)
(1.03828 0.0201147 0)
(1.04208 0.0174549 0)
(1.0436 0.0163073 0)
(1.04547 0.0149287 0)
(1.04724 0.0137339 0)
(1.0486 0.0128929 0)
(1.0497 0.0122428 0)
(1.05067 0.0116843 0)
(1.05155 0.0111983 0)
(1.05235 0.0107765 0)
(1.05308 0.0104064 0)
(1.05376 0.0100767 0)
(1.05437 0.00977943 0)
(1.05494 0.009509 0)
(1.05545 0.00926086 0)
(1.0559 0.00903138 0)
(1.05631 0.00881754 0)
(1.05666 0.00861682 0)
(1.05696 0.00842713 0)
(1.0572 0.00824666 0)
(1.05739 0.00807386 0)
(1.05752 0.00790736 0)
(1.0576 0.00774593 0)
(1.05764 0.00758842 0)
(1.05762 0.00743374 0)
(1.05755 0.00728081 0)
(1.05744 0.00712849 0)
(1.05728 0.00697561 0)
(1.05708 0.00682076 0)
(1.05685 0.00666259 0)
(1.05658 0.00649914 0)
(1.05629 0.00632887 0)
(1.05597 0.0061488 0)
(1.05563 0.00595725 0)
(1.05527 0.00574939 0)
(1.05491 0.00552345 0)
(1.05455 0.00527171 0)
(1.05419 0.00499148 0)
(1.05385 0.00467195 0)
(1.05353 0.00430506 0)
(1.05325 0.00388127 0)
(1.05301 0.00337151 0)
(1.05284 0.00278391 0)
(1.05272 0.0020292 0)
(1.05268 0.00116585 0)
(1.0527 -9.25769e-06 0)
(1.05273 -0.00134564 0)
(1.05275 -0.00304932 0)
(1.00185 0.0183587 0)
(1.02211 0.0253234 0)
(1.03565 0.0196306 0)
(1.03964 0.0170442 0)
(1.04118 0.0160286 0)
(1.04303 0.0147637 0)
(1.04479 0.0136007 0)
(1.04615 0.0127703 0)
(1.04724 0.0121347 0)
(1.0482 0.0115889 0)
(1.04907 0.0111113 0)
(1.04986 0.0106957 0)
(1.05059 0.0103309 0)
(1.05126 0.0100058 0)
(1.05188 0.0097128 0)
(1.05246 0.00944629 0)
(1.05301 0.00920197 0)
(1.05351 0.00897627 0)
(1.05399 0.00876627 0)
(1.05443 0.00856949 0)
(1.05483 0.00838386 0)
(1.05521 0.00820758 0)
(1.05556 0.00803908 0)
(1.05587 0.00787698 0)
(1.05615 0.00772002 0)
(1.05641 0.00756703 0)
(1.05663 0.00741688 0)
(1.05683 0.00726845 0)
(1.057 0.00712057 0)
(1.05714 0.00697202 0)
(1.05726 0.00682134 0)
(1.05736 0.00666713 0)
(1.05744 0.00650737 0)
(1.0575 0.00634042 0)
(1.05754 0.00616328 0)
(1.05757 0.00597402 0)
(1.0576 0.00576798 0)
(1.05761 0.00554279 0)
(1.05763 0.00529135 0)
(1.05765 0.00500965 0)
(1.05769 0.00468836 0)
(1.05774 0.00431713 0)
(1.05782 0.00388848 0)
(1.05793 0.00337168 0)
(1.05809 0.0027738 0)
(1.05828 0.00201311 0)
(1.05851 0.00113244 0)
(1.05877 -3.09817e-05 0)
(1.05901 -0.00137792 0)
(1.05918 -0.00304726 0)
(1.00162 0.0167594 0)
(1.02005 0.0241995 0)
(1.03312 0.0191568 0)
(1.03729 0.0166372 0)
(1.03887 0.0157368 0)
(1.04067 0.01459 0)
(1.04243 0.0134645 0)
(1.0438 0.0126453 0)
(1.04488 0.0120242 0)
(1.04582 0.0114917 0)
(1.04668 0.0110231 0)
(1.04746 0.0106139 0)
(1.04817 0.0102543 0)
(1.04883 0.00993369 0)
(1.04945 0.00964447 0)
(1.05002 0.00938125 0)
(1.05057 0.00913984 0)
(1.05108 0.0089168 0)
(1.05157 0.00870927 0)
(1.05203 0.00851483 0)
(1.05247 0.00833145 0)
(1.05289 0.00815737 0)
(1.05329 0.00799104 0)
(1.05368 0.00783108 0)
(1.05404 0.00767623 0)
(1.05439 0.00752534 0)
(1.05473 0.00737725 0)
(1.05505 0.00723086 0)
(1.05535 0.00708496 0)
(1.05565 0.00693832 0)
(1.05593 0.00678946 0)
(1.0562 0.00663693 0)
(1.05646 0.00647869 0)
(1.05672 0.00631299 0)
(1.05697 0.00613686 0)
(1.05721 0.00594813 0)
(1.05745 0.00574232 0)
(1.0577 0.00551652 0)
(1.05795 0.0052642 0)
(1.0582 0.00498026 0)
(1.05848 0.00465653 0)
(1.05876 0.00428104 0)
(1.05907 0.00384754 0)
(1.05941 0.00332501 0)
(1.05978 0.0027183 0)
(1.06017 0.0019544 0)
(1.06059 0.00106174 0)
(1.061 -8.85518e-05 0)
(1.06137 -0.00143501 0)
(1.06165 -0.0030724 0)
(1.00142 0.0152669 0)
(1.01812 0.0230753 0)
(1.03069 0.0186894 0)
(1.03503 0.0162355 0)
(1.03664 0.0154334 0)
(1.03841 0.0144069 0)
(1.04016 0.0133251 0)
(1.04153 0.012518 0)
(1.04261 0.0119111 0)
(1.04354 0.0113924 0)
(1.04438 0.0109335 0)
(1.04515 0.010531 0)
(1.04585 0.0101768 0)
(1.0465 0.00986073 0)
(1.0471 0.00957533 0)
(1.04767 0.0093153 0)
(1.0482 0.0090766 0)
(1.04871 0.00885587 0)
(1.04919 0.00865032 0)
(1.04965 0.00845761 0)
(1.0501 0.00827573 0)
(1.05052 0.00810295 0)
(1.05094 0.00793776 0)
(1.05134 0.0077788 0)
(1.05173 0.00762482 0)
(1.05211 0.00747467 0)
(1.05248 0.00732721 0)
(1.05285 0.00718135 0)
(1.05321 0.00703587 0)
(1.05357 0.00688954 0)
(1.05392 0.00674088 0)
(1.05427 0.0065884 0)
(1.05462 0.00643007 0)
(1.05497 0.00626404 0)
(1.05531 0.00608737 0)
(1.05567 0.0058977 0)
(1.05602 0.00569072 0)
(1.05638 0.00546305 0)
(1.05676 0.00520867 0)
(1.05714 0.00492159 0)
(1.05754 0.00459454 0)
(1.05796 0.00421451 0)
(1.0584 0.00377579 0)
(1.05886 0.00324814 0)
(1.05935 0.00263353 0)
(1.05985 0.00186786 0)
(1.06037 0.000967232 0)
(1.06087 -0.000169661 0)
(1.06131 -0.001508 0)
(1.06164 -0.00311511 0)
(1.00124 0.0138797 0)
(1.01633 0.0219548 0)
(1.02837 0.0182246 0)
(1.03285 0.0158402 0)
(1.03451 0.01512 0)
(1.03624 0.0142138 0)
(1.03798 0.0131821 0)
(1.03935 0.0123883 0)
(1.04043 0.0117953 0)
(1.04135 0.0112911 0)
(1.04218 0.0108424 0)
(1.04294 0.0104469 0)
(1.04363 0.0100983 0)
(1.04426 0.00978696 0)
(1.04485 0.0095055 0)
(1.04541 0.00924873 0)
(1.04593 0.00901274 0)
(1.04643 0.00879429 0)
(1.0469 0.00859063 0)
(1.04735 0.00839947 0)
(1.04779 0.00821884 0)
(1.04821 0.00804705 0)
(1.04862 0.00788261 0)
(1.04902 0.00772416 0)
(1.04941 0.00757048 0)
(1.0498 0.00742044 0)
(1.05018 0.00727291 0)
(1.05055 0.0071268 0)
(1.05093 0.00698091 0)
(1.05131 0.00683401 0)
(1.05168 0.00668462 0)
(1.05206 0.00653123 0)
(1.05244 0.00637181 0)
(1.05282 0.00620444 0)
(1.05321 0.00602623 0)
(1.05361 0.00583461 0)
(1.05401 0.00562548 0)
(1.05443 0.00539505 0)
(1.05486 0.0051377 0)
(1.0553 0.00484681 0)
(1.05576 0.0045157 0)
(1.05623 0.00413085 0)
(1.05673 0.00368656 0)
(1.05725 0.0031541 0)
(1.05779 0.00253235 0)
(1.05835 0.00176572 0)
(1.0589 0.000860471 0)
(1.05943 -0.000263558 0)
(1.05989 -0.00158874 0)
(1.06023 -0.00316616 0)
(1.00107 0.0125957 0)
(1.01467 0.0208419 0)
(1.02616 0.017759 0)
(1.03077 0.0154522 0)
(1.03248 0.0147983 0)
(1.03416 0.0140103 0)
(1.03589 0.0130348 0)
(1.03726 0.0122562 0)
(1.03834 0.0116769 0)
(1.03925 0.0111874 0)
(1.04007 0.0107496 0)
(1.04081 0.0103616 0)
(1.04149 0.0100188 0)
(1.04212 0.0097123 0)
(1.0427 0.00943492 0)
(1.04324 0.00918154 0)
(1.04375 0.00894835 0)
(1.04424 0.00873222 0)
(1.0447 0.00853047 0)
(1.04514 0.00834085 0)
(1.04557 0.00816144 0)
(1.04598 0.00799056 0)
(1.04638 0.00782673 0)
(1.04677 0.00766863 0)
(1.04716 0.00751505 0)
(1.04754 0.00736487 0)
(1.04792 0.00721697 0)
(1.04829 0.00707027 0)
(1.04867 0.00692359 0)
(1.04904 0.0067757 0)
(1.04942 0.00662512 0)
(1.0498 0.00647033 0)
(1.05019 0.0063093 0)
(1.05058 0.00614005 0)
(1.05098 0.00595973 0)
(1.05139 0.00576562 0)
(1.05181 0.00555376 0)
(1.05224 0.00532005 0)
(1.05268 0.00505918 0)
(1.05314 0.00476411 0)
(1.05362 0.00442849 0)
(1.05412 0.00403872 0)
(1.05464 0.00358874 0)
(1.05517 0.00305176 0)
(1.05573 0.00242369 0)
(1.05629 0.00165671 0)
(1.05684 0.000749505 0)
(1.05736 -0.000361834 0)
(1.05782 -0.00167046 0)
(1.05814 -0.00321815 0)
(1.00093 0.0114124 0)
(1.01314 0.0197409 0)
(1.02407 0.0172895 0)
(1.02877 0.0150721 0)
(1.03053 0.0144703 0)
(1.03218 0.0137962 0)
(1.03388 0.0128829 0)
(1.03526 0.0121219 0)
(1.03633 0.0115558 0)
(1.03724 0.0110813 0)
(1.03805 0.0106551 0)
(1.03879 0.0102749 0)
(1.03946 0.00993807 0)
(1.04007 0.00963667 0)
(1.04064 0.00936353 0)
(1.04117 0.00911366 0)
(1.04167 0.00888338 0)
(1.04215 0.00866964 0)
(1.0426 0.00846986 0)
(1.04303 0.00828183 0)
(1.04345 0.00810365 0)
(1.04385 0.00793367 0)
(1.04424 0.00777044 0)
(1.04463 0.00761266 0)
(1.045 0.00745912 0)
(1.04538 0.0073087 0)
(1.04574 0.00716033 0)
(1.04611 0.00701291 0)
(1.04648 0.00686529 0)
(1.04685 0.00671623 0)
(1.04722 0.00656428 0)
(1.0476 0.00640787 0)
(1.04798 0.006245 0)
(1.04837 0.00607362 0)
(1.04877 0.00589093 0)
(1.04918 0.00569408 0)
(1.04959 0.00547921 0)
(1.05002 0.005242 0)
(1.05047 0.00497736 0)
(1.05093 0.00467797 0)
(1.0514 0.00433768 0)
(1.0519 0.00394308 0)
(1.05241 0.00348753 0)
(1.05294 0.00294639 0)
(1.05348 0.00231299 0)
(1.05403 0.00154621 0)
(1.05457 0.000639478 0)
(1.05506 -0.000459063 0)
(1.05548 -0.00174882 0)
(1.05577 -0.0032662 0)
(1.0008 0.0103265 0)
(1.01174 0.0186558 0)
(1.02208 0.0168135 0)
(1.02685 0.0147002 0)
(1.02868 0.0141382 0)
(1.03029 0.0135714 0)
(1.03197 0.0127256 0)
(1.03335 0.0119851 0)
(1.03442 0.0114321 0)
(1.03532 0.0109727 0)
(1.03612 0.0105586 0)
(1.03685 0.0101867 0)
(1.03751 0.00985615 0)
(1.03811 0.00955998 0)
(1.03868 0.00929124 0)
(1.0392 0.00904502 0)
(1.03969 0.00881775 0)
(1.04015 0.0086065 0)
(1.0406 0.00840876 0)
(1.04102 0.00822236 0)
(1.04143 0.00804545 0)
(1.04182 0.00787641 0)
(1.0422 0.00771379 0)
(1.04258 0.00755632 0)
(1.04294 0.0074028 0)
(1.04331 0.00725214 0)
(1.04367 0.00710326 0)
(1.04403 0.00695508 0)
(1.04439 0.00680646 0)
(1.04475 0.00665618 0)
(1.04512 0.00650277 0)
(1.04549 0.00634466 0)
(1.04586 0.00617987 0)
(1.04624 0.00600627 0)
(1.04663 0.00582112 0)
(1.04703 0.00562143 0)
(1.04744 0.00540346 0)
(1.04786 0.0051627 0)
(1.0483 0.00489421 0)
(1.04875 0.00459058 0)
(1.04921 0.00424564 0)
(1.04969 0.00384644 0)
(1.05019 0.00338568 0)
(1.05071 0.00284085 0)
(1.05123 0.00220322 0)
(1.05175 0.00143732 0)
(1.05226 0.000533209 0)
(1.05271 -0.000552084 0)
(1.05309 -0.0018211 0)
(1.05334 -0.00330706 0)
(1.00069 0.00933415 0)
(1.01046 0.0175907 0)
(1.02021 0.0163285 0)
(1.02502 0.0143365 0)
(1.02692 0.0138038 0)
(1.0285 0.013336 0)
(1.03014 0.0125624 0)
(1.03152 0.0118458 0)
(1.0326 0.0113058 0)
(1.03349 0.0108614 0)
(1.03428 0.01046 0)
(1.035 0.010097 0)
(1.03565 0.00977291 0)
(1.03625 0.00948215 0)
(1.0368 0.00921798 0)
(1.03732 0.00897554 0)
(1.0378 0.0087514 0)
(1.03825 0.00854273 0)
(1.03869 0.00834709 0)
(1.0391 0.00816239 0)
(1.0395 0.00798679 0)
(1.03988 0.00781872 0)
(1.04026 0.00765674 0)
(1.04062 0.0074996 0)
(1.04098 0.00734611 0)
(1.04134 0.0071952 0)
(1.04169 0.0070458 0)
(1.04204 0.00689685 0)
(1.0424 0.00674722 0)
(1.04275 0.00659569 0)
(1.04311 0.0064408 0)
(1.04347 0.00628097 0)
(1.04383 0.00611422 0)
(1.04421 0.00593839 0)
(1.04459 0.00575074 0)
(1.04498 0.00554822 0)
(1.04537 0.00532715 0)
(1.04579 0.0050829 0)
(1.04621 0.00481061 0)
(1.04665 0.00450288 0)
(1.0471 0.00415347 0)
(1.04757 0.00374998 0)
(1.04805 0.00328451 0)
(1.04854 0.00273654 0)
(1.04904 0.00209587 0)
(1.04953 0.00133168 0)
(1.05 0.000432145 0)
(1.05041 -0.000639088 0)
(1.05075 -0.00188575 0)
(1.05095 -0.00333887 0)
(1.0006 0.00843107 0)
(1.0093 0.0165497 0)
(1.01845 0.0158329 0)
(1.02328 0.0139805 0)
(1.02525 0.0134691 0)
(1.02679 0.0130905 0)
(1.0284 0.0123926 0)
(1.02978 0.0117039 0)
(1.03086 0.0111769 0)
(1.03174 0.0107473 0)
(1.03253 0.0103592 0)
(1.03324 0.0100055 0)
(1.03389 0.00968826 0)
(1.03448 0.00940309 0)
(1.03502 0.00914364 0)
(1.03552 0.00890514 0)
(1.036 0.00868424 0)
(1.03645 0.00847824 0)
(1.03687 0.0082848 0)
(1.03728 0.00810185 0)
(1.03767 0.00792762 0)
(1.03804 0.00776054 0)
(1.03841 0.00759924 0)
(1.03877 0.00744244 0)
(1.03912 0.00728899 0)
(1.03947 0.00713784 0)
(1.03981 0.00698792 0)
(1.04016 0.0068382 0)
(1.0405 0.00668755 0)
(1.04085 0.00653476 0)
(1.04119 0.0063784 0)
(1.04155 0.00621684 0)
(1.0419 0.00604815 0)
(1.04227 0.00587008 0)
(1.04264 0.00567997 0)
(1.04302 0.00547466 0)
(1.04341 0.00525052 0)
(1.04381 0.00500288 0)
(1.04422 0.00472691 0)
(1.04464 0.00441529 0)
(1.04508 0.00406167 0)
(1.04553 0.00365426 0)
(1.04599 0.00318468 0)
(1.04646 0.0026342 0)
(1.04693 0.00199171 0)
(1.04739 0.00123017 0)
(1.04782 0.000337038 0)
(1.04819 -0.000719083 0)
(1.04848 -0.00194189 0)
(1.04863 -0.00336051 0)
(1.00051 0.00761249 0)
(1.00825 0.0155367 0)
(1.01681 0.0153252 0)
(1.02161 0.0136318 0)
(1.02366 0.0131358 0)
(1.02517 0.0128357 0)
(1.02675 0.0122157 0)
(1.02812 0.0115589 0)
(1.0292 0.0110454 0)
(1.03008 0.0106304 0)
(1.03086 0.010256 0)