/*--------------------------------*- C++ -*----------------------------------*\
  =========                 |
  \\      /  F ield         | OpenFOAM: The Open Source CFD Toolbox
   \\    /   O peration     | Website:  https://openfoam.org
    \\  /    A nd           | Version:  7
     \\/     M anipulation  |
\*---------------------------------------------------------------------------*/
FoamFile
{
    version     2.0;
    format      ascii;
    class       volScalarField;
    location    "0.42";
    object      k;
}
// * * * * * * * * * * * * * * * * * * * * * * * * * * * * * * * * * * * * * //

dimensions      [0 2 -2 0 0 0 0];

internalField   nonuniform List<scalar> 
70000
(
1.08549e-05
4.21884e-06
2.82449e-06
2.31705e-06
1.99778e-06
1.75756e-06
1.5656e-06
1.40887e-06
1.27809e-06
1.16754e-06
1.07261e-06
9.90738e-07
9.19165e-07
8.56624e-07
8.01191e-07
7.52262e-07
7.08333e-07
6.69243e-07
6.33724e-07
6.01951e-07
5.72759e-07
5.46577e-07
5.22238e-07
5.00407e-07
4.79843e-07
4.61457e-07
4.43868e-07
4.28254e-07
4.13031e-07
3.99689e-07
3.86373e-07
3.74928e-07
3.63162e-07
3.53329e-07
3.42827e-07
3.34399e-07
3.2491e-07
3.17776e-07
3.09196e-07
3.03733e-07
2.95518e-07
2.91887e-07
2.83557e-07
2.81542e-07
2.7257e-07
2.74547e-07
2.65519e-07
2.83592e-07
2.68501e-07
3.06666e-07
1.72794e-05
1.13674e-05
8.52086e-06
7.01106e-06
6.03799e-06
5.31207e-06
4.73267e-06
4.25932e-06
3.86431e-06
3.53044e-06
3.24375e-06
2.9965e-06
2.78034e-06
2.59142e-06
2.42397e-06
2.27613e-06
2.14339e-06
2.02526e-06
1.9179e-06
1.82187e-06
1.73361e-06
1.65447e-06
1.58087e-06
1.51487e-06
1.45267e-06
1.39708e-06
1.34388e-06
1.29666e-06
1.25061e-06
1.21026e-06
1.16997e-06
1.13535e-06
1.09975e-06
1.07e-06
1.03823e-06
1.01272e-06
9.84007e-07
9.62458e-07
9.36366e-07
9.19569e-07
8.94491e-07
8.82907e-07
8.58022e-07
8.50268e-07
8.25178e-07
8.25681e-07
8.03517e-07
8.38829e-07
8.1156e-07
8.4814e-07
1.93701e-05
1.61298e-05
1.32914e-05
1.12904e-05
9.82948e-06
8.69756e-06
7.77993e-06
7.02283e-06
6.38639e-06
5.84575e-06
5.37983e-06
4.97683e-06
4.6236e-06
4.31422e-06
4.03942e-06
3.79639e-06
3.57777e-06
3.38295e-06
3.20564e-06
3.04689e-06
2.9008e-06
2.76972e-06
2.64766e-06
2.53817e-06
2.43486e-06
2.34251e-06
2.254e-06
2.17545e-06
2.09876e-06
2.03155e-06
1.96441e-06
1.90665e-06
1.84732e-06
1.79761e-06
1.74463e-06
1.70196e-06
1.65404e-06
1.61792e-06
1.57402e-06
1.5453e-06
1.5032e-06
1.4827e-06
1.44135e-06
1.42639e-06
1.38685e-06
1.38132e-06
1.34752e-06
1.38121e-06
1.35808e-06
1.37312e-06
1.9861e-05
1.82601e-05
1.60857e-05
1.42008e-05
1.26408e-05
1.135e-05
1.02621e-05
9.34063e-06
8.54925e-06
7.86687e-06
7.2723e-06
6.7535e-06
6.29531e-06
5.89148e-06
5.53066e-06
5.20995e-06
4.92e-06
4.66065e-06
4.42365e-06
4.21094e-06
4.01449e-06
3.83791e-06
3.67295e-06
3.52476e-06
3.38453e-06
3.25905e-06
3.13846e-06
3.03135e-06
2.92656e-06
2.83458e-06
2.74267e-06
2.66336e-06
2.58201e-06
2.5135e-06
2.44079e-06
2.38179e-06
2.31594e-06
2.26575e-06
2.20501e-06
2.16395e-06
2.10619e-06
2.07534e-06
2.01929e-06
1.99631e-06
1.94388e-06
1.93021e-06
1.88397e-06
1.90331e-06
1.89631e-06
1.8859e-06
1.99707e-05
1.78458e-05
1.60747e-05
1.47665e-05
1.36023e-05
1.25379e-05
1.15695e-05
1.07026e-05
9.92161e-06
9.22692e-06
8.60692e-06
8.05518e-06
7.55944e-06
7.1165e-06
6.71539e-06
6.35493e-06
6.02553e-06
5.72859e-06
5.45499e-06
5.20809e-06
4.97844e-06
4.77115e-06
4.57626e-06
4.40062e-06
4.23348e-06
4.0835e-06
3.93868e-06
3.80968e-06
3.68311e-06
3.57158e-06
3.46011e-06
3.36328e-06
3.26432e-06
3.18013e-06
3.09143e-06
3.01846e-06
2.93797e-06
2.87536e-06
2.8012e-06
2.74863e-06
2.67901e-06
2.6366e-06
2.57009e-06
2.53812e-06
2.47391e-06
2.45231e-06
2.39483e-06
2.39439e-06
2.38724e-06
2.3604e-06
2.00095e-05
1.4704e-05
1.37472e-05
1.32102e-05
1.25902e-05
1.19261e-05
1.12766e-05
1.06567e-05
1.00793e-05
9.54597e-06
9.04534e-06
8.57996e-06
8.14627e-06
7.74744e-06
7.3757e-06
7.03418e-06
6.71552e-06
6.42409e-06
6.15141e-06
5.90272e-06
5.66829e-06
5.4549e-06
5.2519e-06
5.06778e-06
4.89082e-06
4.73108e-06
4.57563e-06
4.43636e-06
4.29914e-06
4.17725e-06
4.05547e-06
3.94841e-06
3.83964e-06
3.74552e-06
3.64752e-06
3.56502e-06
3.47586e-06
3.40393e-06
3.32211e-06
3.25987e-06
3.18415e-06
3.13114e-06
3.06013e-06
3.01676e-06
2.94806e-06
2.91806e-06
2.8568e-06
2.83212e-06
2.81666e-06
2.77455e-06
2.01331e-05
1.54691e-05
9.63467e-06
9.39663e-06
9.49062e-06
9.48962e-06
9.43059e-06
9.29195e-06
9.05133e-06
8.77824e-06
8.48325e-06
8.18671e-06
7.89466e-06
7.61238e-06
7.33509e-06
7.07519e-06
6.8271e-06
6.59412e-06
6.36966e-06
6.16038e-06
5.9579e-06
5.7705e-06
5.58833e-06
5.42114e-06
5.25752e-06
5.10812e-06
4.96092e-06
4.82769e-06
4.69556e-06
4.57652e-06
4.45765e-06
4.35106e-06
4.24365e-06
4.14825e-06
4.05061e-06
3.96538e-06
3.87622e-06
3.80002e-06
3.71861e-06
3.65019e-06
3.57598e-06
3.51456e-06
3.44671e-06
3.39224e-06
3.32923e-06
3.28335e-06
3.23117e-06
3.18465e-06
3.16291e-06
3.10732e-06
2.01712e-05
1.86769e-05
8.6968e-06
5.53992e-06
5.62925e-06
5.93187e-06
6.28888e-06
6.57365e-06
6.75217e-06
6.8607e-06
6.87964e-06
6.86024e-06
6.80769e-06
6.71974e-06
6.60809e-06
6.48716e-06
6.34861e-06
6.20756e-06
6.06374e-06
5.92329e-06
5.78116e-06
5.64579e-06
5.50973e-06
5.38252e-06
5.25392e-06
5.13637e-06
5.01872e-06
4.91034e-06
4.80146e-06
4.70095e-06
4.60034e-06
4.50729e-06
4.41443e-06
4.3286e-06
4.24284e-06
4.16378e-06
4.08487e-06
4.01159e-06
3.93976e-06
3.87102e-06
3.80633e-06
3.74155e-06
3.6839e-06
3.62252e-06
3.57167e-06
3.51352e-06
3.47322e-06
3.41381e-06
3.38947e-06
3.32712e-06
2.01671e-05
1.97241e-05
1.61703e-05
4.86609e-06
3.04242e-06
3.10468e-06
3.37185e-06
3.80098e-06
4.16536e-06
4.48247e-06
4.72862e-06
4.91771e-06
5.05699e-06
5.15709e-06
5.21427e-06
5.2501e-06
5.25214e-06
5.24327e-06
5.22009e-06
5.18171e-06
5.13222e-06
5.07759e-06
5.01566e-06
4.95203e-06
4.88285e-06
4.8147e-06
4.74096e-06
4.66996e-06
4.59633e-06
4.52574e-06
4.45434e-06
4.38541e-06
4.31718e-06
4.25056e-06
4.18599e-06
4.12186e-06
4.06166e-06
3.99945e-06
3.94454e-06
3.88388e-06
3.83495e-06
3.77553e-06
3.73207e-06
3.6734e-06
3.63562e-06
3.577e-06
3.54657e-06
3.48659e-06
3.46289e-06
3.40312e-06
2.01476e-05
1.99343e-05
1.90666e-05
1.4504e-05
5.25289e-06
2.15617e-06
1.9143e-06
1.99261e-06
2.20434e-06
2.50194e-06
2.77632e-06
3.0285e-06
3.25152e-06
3.4475e-06
3.60934e-06
3.74685e-06
3.85643e-06
3.94404e-06
4.01333e-06
4.06526e-06
4.10214e-06
4.12556e-06
4.1397e-06
4.14134e-06
4.13774e-06
4.12929e-06
4.11269e-06
4.09305e-06
4.06848e-06
4.04139e-06
4.01146e-06
3.97916e-06
3.94615e-06
3.90984e-06
3.87579e-06
3.83657e-06
3.80277e-06
3.76109e-06
3.72851e-06
3.68472e-06
3.65333e-06
3.60807e-06
3.57843e-06
3.53247e-06
3.50501e-06
3.45816e-06
3.43406e-06
3.38586e-06
3.36478e-06
3.317e-06
2.01215e-05
1.99661e-05
1.96429e-05
1.85483e-05
1.52201e-05
8.37759e-06
3.11804e-06
1.63501e-06
1.44263e-06
1.44878e-06
1.52443e-06
1.68364e-06
1.86421e-06
2.04011e-06
2.20823e-06
2.3662e-06
2.51129e-06
2.64103e-06
2.75713e-06
2.85935e-06
2.94897e-06
3.02594e-06
3.09231e-06
3.14813e-06
3.19425e-06
3.23322e-06
3.26421e-06
3.28895e-06
3.30748e-06
3.3211e-06
3.32957e-06
3.33467e-06
3.33457e-06
3.33257e-06
3.3284e-06
3.31914e-06
3.31181e-06
3.29674e-06
3.28701e-06
3.26755e-06
3.25588e-06
3.23343e-06
3.21938e-06
3.19478e-06
3.17886e-06
3.15246e-06
3.13549e-06
3.10657e-06
3.08998e-06
3.05999e-06
2.00981e-05
1.99327e-05
1.97576e-05
1.93536e-05
1.85092e-05
1.65446e-05
1.23485e-05
6.88773e-06
3.00673e-06
1.49817e-06
1.24419e-06
1.14757e-06
1.15082e-06
1.19196e-06
1.2825e-06
1.38793e-06
1.49887e-06
1.60702e-06
1.71506e-06
1.81834e-06
1.91623e-06
2.00758e-06
2.09209e-06
2.16985e-06
2.24096e-06
2.30522e-06
2.36385e-06
2.41592e-06
2.46293e-06
2.50419e-06
2.54125e-06
2.57271e-06
2.60147e-06
2.62417e-06
2.64595e-06
2.66134e-06
2.6772e-06
2.68621e-06
2.69664e-06
2.70081e-06
2.70593e-06
2.70634e-06
2.70584e-06
2.70336e-06
2.69999e-06
2.693e-06
2.68623e-06
2.67589e-06
2.66682e-06
2.6535e-06
2.00781e-05
1.98876e-05
1.97572e-05
1.9462e-05
1.91477e-05
1.86445e-05
1.75636e-05
1.5441e-05
1.17726e-05
7.48622e-06
4.01703e-06
1.93354e-06
1.21339e-06
1.05828e-06
9.83234e-07
9.41346e-07
9.51526e-07
9.83556e-07
1.04443e-06
1.10675e-06
1.17407e-06
1.2424e-06
1.311e-06
1.37907e-06
1.44611e-06
1.50942e-06
1.57112e-06
1.62837e-06
1.68334e-06
1.73401e-06
1.78258e-06
1.82609e-06
1.86832e-06
1.90538e-06
1.94086e-06
1.97201e-06
2.00172e-06
2.02697e-06
2.051e-06
2.07155e-06
2.09002e-06
2.10577e-06
2.11942e-06
2.13053e-06
2.13967e-06
2.14636e-06
2.15128e-06
2.1539e-06
2.15485e-06
2.15431e-06
2.00613e-05
1.98539e-05
1.97346e-05
1.94722e-05
1.9257e-05
1.90493e-05
1.87396e-05
1.81969e-05
1.711e-05
1.52544e-05
1.26065e-05
9.28913e-06
6.03079e-06
3.52627e-06
1.91217e-06
1.17935e-06
9.67355e-07
8.92101e-07
8.3812e-07
7.95232e-07
7.95854e-07
8.0772e-07
8.35223e-07
8.72278e-07
9.11316e-07
9.51384e-07
9.94417e-07
1.03679e-06
1.08065e-06
1.1235e-06
1.16646e-06
1.20684e-06
1.24702e-06
1.28478e-06
1.32092e-06
1.35552e-06
1.3883e-06
1.41891e-06
1.44757e-06
1.47502e-06
1.49932e-06
1.52253e-06
1.54313e-06
1.56215e-06
1.57869e-06
1.59318e-06
1.60599e-06
1.61663e-06
1.625e-06
1.63327e-06
2.00475e-05
1.98304e-05
1.97081e-05
1.94501e-05
1.92739e-05
1.91171e-05
1.89682e-05
1.87539e-05
1.84676e-05
1.79212e-05
1.70921e-05
1.57281e-05
1.39223e-05
1.15927e-05
8.93024e-06
6.32952e-06
4.14998e-06
2.56422e-06
1.54508e-06
1.04822e-06
8.68458e-07
8.01861e-07
7.53992e-07
7.12781e-07
6.82166e-07
6.7525e-07
6.79991e-07
6.92002e-07
7.1253e-07
7.34473e-07
7.58276e-07
7.81848e-07
8.07401e-07
8.33577e-07
8.59491e-07
8.8652e-07
9.12686e-07
9.38754e-07
9.6312e-07
9.88369e-07
1.01026e-06
1.03295e-06
1.05299e-06
1.07272e-06
1.09053e-06
1.10652e-06
1.12197e-06
1.13499e-06
1.14695e-06
1.15786e-06
2.00362e-05
1.98125e-05
1.96856e-05
1.94199e-05
1.926e-05
1.91109e-05
1.90031e-05
1.88525e-05
1.87159e-05
1.85055e-05
1.82541e-05
1.78423e-05
1.72475e-05
1.63851e-05
1.52001e-05
1.36791e-05
1.18943e-05
9.83322e-06
7.70507e-06
5.71427e-06
4.02447e-06
2.73104e-06
1.79446e-06
1.2044e-06
9.03349e-07
7.74387e-07
7.16673e-07
6.78985e-07
6.4424e-07
6.12745e-07
5.91265e-07
5.79009e-07
5.79637e-07
5.83521e-07
5.91743e-07
6.03611e-07
6.1596e-07
6.29107e-07
6.41696e-07
6.56216e-07
6.68936e-07
6.839e-07
6.97264e-07
7.11634e-07
7.25168e-07
7.37724e-07
7.50536e-07
7.61597e-07
7.7237e-07
7.82059e-07
2.00271e-05
1.97987e-05
1.96664e-05
1.9398e-05
1.92344e-05
1.90836e-05
1.89852e-05
1.88559e-05
1.87401e-05
1.86003e-05
1.84648e-05
1.82942e-05
1.8088e-05
1.78027e-05
1.74226e-05
1.68848e-05
1.61886e-05
1.5281e-05
1.41614e-05
1.28386e-05
1.1368e-05
9.73509e-06
8.04991e-06
6.42492e-06
4.94633e-06
3.69247e-06
2.69393e-06
1.92077e-06
1.36218e-06
1.00366e-06
8.038e-07
7.02249e-07
6.50419e-07
6.17229e-07
5.90439e-07
5.645e-07
5.40668e-07
5.20998e-07
5.07545e-07
4.99475e-07
4.97206e-07
4.98204e-07
5.00722e-07
5.05774e-07
5.10864e-07
5.16521e-07
5.21973e-07
5.27691e-07
5.32293e-07
5.38168e-07
2.002e-05
1.97902e-05
1.96462e-05
1.93817e-05
1.92106e-05
1.90548e-05
1.89475e-05
1.88299e-05
1.87187e-05
1.8594e-05
1.84763e-05
1.83499e-05
1.82258e-05
1.80826e-05
1.79271e-05
1.773e-05
1.74894e-05
1.71756e-05
1.67788e-05
1.62683e-05
1.56456e-05
1.48877e-05
1.39935e-05
1.29687e-05
1.1841e-05
1.06284e-05
9.33301e-06
8.01707e-06
6.73139e-06
5.53027e-06
4.44437e-06
3.50921e-06
2.73591e-06
2.10441e-06
1.60254e-06
1.22476e-06
9.59488e-07
7.88584e-07
6.84822e-07
6.23911e-07
5.86806e-07
5.61583e-07
5.41352e-07
5.2353e-07
5.07171e-07
4.91821e-07
4.7806e-07
4.67237e-07
4.58367e-07
4.54979e-07
2.00144e-05
1.97902e-05
1.962e-05
1.93683e-05
1.91902e-05
1.90284e-05
1.89118e-05
1.87942e-05
1.86788e-05
1.8559e-05
1.84458e-05
1.83288e-05
1.82158e-05
1.80978e-05
1.7983e-05
1.78633e-05
1.77381e-05
1.75989e-05
1.74403e-05
1.72521e-05
1.70251e-05
1.675e-05
1.64159e-05
1.60128e-05
1.5534e-05
1.49767e-05
1.43361e-05
1.36094e-05
1.28068e-05
1.19357e-05
1.10157e-05
1.00558e-05
9.05747e-06
8.0534e-06
7.06767e-06
6.12764e-06
5.24766e-06
4.45145e-06
3.73528e-06
3.12137e-06
2.59798e-06
2.15582e-06
1.78716e-06
1.48436e-06
1.24467e-06
1.05734e-06
9.1879e-07
8.19296e-07
7.54302e-07
7.31534e-07
2.00102e-05
1.97943e-05
1.95932e-05
1.93545e-05
1.91716e-05
1.90033e-05
1.88786e-05
1.87589e-05
1.86391e-05
1.85173e-05
1.84001e-05
1.82838e-05
1.81709e-05
1.80602e-05
1.79502e-05
1.78445e-05
1.77348e-05
1.76299e-05
1.75206e-05
1.7413e-05
1.72958e-05
1.71715e-05
1.70318e-05
1.68735e-05
1.66914e-05
1.64791e-05
1.62342e-05
1.59493e-05
1.56203e-05
1.52476e-05
1.48225e-05
1.4352e-05
1.38332e-05
1.32651e-05
1.2654e-05
1.2006e-05
1.13295e-05
1.06289e-05
9.92486e-06
9.2091e-06
8.49135e-06
7.79164e-06
7.11712e-06
6.47676e-06
5.88385e-06
5.33685e-06
4.83893e-06
4.40448e-06
4.0018e-06
3.70874e-06
2.0007e-05
1.98019e-05
1.95686e-05
1.93412e-05
1.91542e-05
1.89799e-05
1.88471e-05
1.87251e-05
1.86006e-05
1.84767e-05
1.8354e-05
1.82365e-05
1.81188e-05
1.80069e-05
1.78936e-05
1.77897e-05
1.76815e-05
1.75841e-05
1.74801e-05
1.73866e-05
1.72858e-05
1.71903e-05
1.70921e-05
1.69944e-05
1.68935e-05
1.6787e-05
1.66747e-05
1.65525e-05
1.64155e-05
1.62704e-05
1.60991e-05
1.59134e-05
1.57062e-05
1.54746e-05
1.52146e-05
1.49348e-05
1.46214e-05
1.42864e-05
1.39254e-05
1.35455e-05
1.3136e-05
1.27193e-05
1.22814e-05
1.18334e-05
1.13921e-05
1.09395e-05
1.05042e-05
1.00713e-05
9.65582e-06
9.27099e-06
2.00046e-05
1.98105e-05
1.95456e-05
1.93279e-05
1.91374e-05
1.89581e-05
1.88169e-05
1.86926e-05
1.85637e-05
1.84376e-05
1.83099e-05
1.819e-05
1.80677e-05
1.79537e-05
1.78358e-05
1.77311e-05
1.76172e-05
1.75193e-05
1.74115e-05
1.73191e-05
1.72191e-05
1.71291e-05
1.70364e-05
1.6948e-05
1.686e-05
1.6772e-05
1.6685e-05
1.65985e-05
1.6509e-05
1.64279e-05
1.63318e-05
1.62406e-05
1.61448e-05
1.60424e-05
1.59283e-05
1.58154e-05
1.56828e-05
1.5546e-05
1.53972e-05
1.52412e-05
1.50624e-05
1.48871e-05
1.46917e-05
1.44824e-05
1.42794e-05
1.40553e-05
1.38346e-05
1.35987e-05
1.33728e-05
1.31504e-05
2.00029e-05
1.98195e-05
1.95244e-05
1.93141e-05
1.91209e-05
1.89377e-05
1.87882e-05
1.86611e-05
1.85287e-05
1.84003e-05
1.82682e-05
1.81454e-05
1.80189e-05
1.79024e-05
1.77802e-05
1.76738e-05
1.75554e-05
1.74559e-05
1.73439e-05
1.72498e-05
1.71457e-05
1.70526e-05
1.69569e-05
1.68669e-05
1.67774e-05
1.66907e-05
1.66083e-05
1.65266e-05
1.64442e-05
1.63735e-05
1.62896e-05
1.62161e-05
1.61428e-05
1.60685e-05
1.59917e-05
1.59234e-05
1.58454e-05
1.57713e-05
1.56953e-05
1.56223e-05
1.55336e-05
1.54576e-05
1.53709e-05
1.52746e-05
1.51898e-05
1.5097e-05
1.49966e-05
1.48907e-05
1.47977e-05
1.47048e-05
2.00017e-05
1.98279e-05
1.9505e-05
1.92992e-05
1.91041e-05
1.89189e-05
1.87611e-05
1.86308e-05
1.84957e-05
1.83649e-05
1.82293e-05
1.81033e-05
1.79732e-05
1.78537e-05
1.77283e-05
1.76193e-05
1.74975e-05
1.73954e-05
1.72806e-05
1.71836e-05
1.70772e-05
1.69807e-05
1.68822e-05
1.67895e-05
1.66964e-05
1.66064e-05
1.65203e-05
1.64344e-05
1.63504e-05
1.62771e-05
1.61921e-05
1.61187e-05
1.60495e-05
1.59795e-05
1.59083e-05
1.58462e-05
1.57774e-05
1.57156e-05
1.5652e-05
1.55977e-05
1.55292e-05
1.54757e-05
1.54185e-05
1.53554e-05
1.53049e-05
1.5258e-05
1.51971e-05
1.51407e-05
1.50993e-05
1.50603e-05
2.00009e-05
1.98306e-05
1.9489e-05
1.92842e-05
1.90875e-05
1.89019e-05
1.87361e-05
1.86021e-05
1.84651e-05
1.8332e-05
1.81937e-05
1.80642e-05
1.79313e-05
1.78087e-05
1.76808e-05
1.75687e-05
1.74445e-05
1.73392e-05
1.72228e-05
1.71221e-05
1.70146e-05
1.69147e-05
1.68138e-05
1.67191e-05
1.66225e-05
1.65306e-05
1.64411e-05
1.6352e-05
1.62658e-05
1.61883e-05
1.61009e-05
1.60237e-05
1.59503e-05
1.58777e-05
1.58034e-05
1.57381e-05
1.56678e-05
1.56059e-05
1.554e-05
1.54885e-05
1.54238e-05
1.53719e-05
1.53197e-05
1.52628e-05
1.52178e-05
1.51795e-05
1.51265e-05
1.50823e-05
1.50518e-05
1.50254e-05
2.00003e-05
1.98289e-05
1.94759e-05
1.92683e-05
1.90708e-05
1.88867e-05
1.87136e-05
1.85755e-05
1.8437e-05
1.83021e-05
1.81616e-05
1.80289e-05
1.78936e-05
1.77682e-05
1.76383e-05
1.7523e-05
1.73973e-05
1.72886e-05
1.71713e-05
1.70667e-05
1.69587e-05
1.68557e-05
1.67525e-05
1.66564e-05
1.65566e-05
1.64633e-05
1.63709e-05
1.62799e-05
1.61915e-05
1.61109e-05
1.60217e-05
1.59419e-05
1.58651e-05
1.57914e-05
1.57134e-05
1.56452e-05
1.55718e-05
1.55089e-05
1.54378e-05
1.53851e-05
1.53182e-05
1.5262e-05
1.52079e-05
1.51503e-05
1.51043e-05
1.50654e-05
1.5012e-05
1.49697e-05
1.49413e-05
1.4914e-05
2e-05
1.98271e-05
1.94647e-05
1.9251e-05
1.90532e-05
1.88729e-05
1.86934e-05
1.85512e-05
1.84116e-05
1.82755e-05
1.81334e-05
1.7998e-05
1.78605e-05
1.7733e-05
1.76013e-05
1.74834e-05
1.73564e-05
1.72447e-05
1.71269e-05
1.70188e-05
1.69104e-05
1.68051e-05
1.66995e-05
1.66024e-05
1.65e-05
1.64053e-05
1.63105e-05
1.62183e-05
1.61275e-05
1.6045e-05
1.59542e-05
1.58725e-05
1.57933e-05
1.57192e-05
1.56384e-05
1.55682e-05
1.54928e-05
1.54293e-05
1.53544e-05
1.53012e-05
1.52324e-05
1.51738e-05
1.51175e-05
1.50583e-05
1.5012e-05
1.4971e-05
1.49149e-05
1.48736e-05
1.48455e-05
1.48125e-05
1.99999e-05
1.98258e-05
1.94564e-05
1.92333e-05
1.90355e-05
1.88608e-05
1.86763e-05
1.85299e-05
1.83893e-05
1.82528e-05
1.81094e-05
1.7972e-05
1.78327e-05
1.77037e-05
1.75704e-05
1.74505e-05
1.73226e-05
1.72087e-05
1.70904e-05
1.69797e-05
1.68707e-05
1.6764e-05
1.66562e-05
1.65582e-05
1.64539e-05
1.63576e-05
1.62612e-05
1.61682e-05
1.6075e-05
1.59911e-05
1.58991e-05
1.5816e-05
1.5735e-05
1.56605e-05
1.55779e-05
1.5506e-05
1.54296e-05
1.53657e-05
1.52885e-05
1.52351e-05
1.51646e-05
1.51057e-05
1.50474e-05
1.49872e-05
1.49422e-05
1.48989e-05
1.48407e-05
1.48018e-05
1.47727e-05
1.47332e-05
1.99999e-05
1.98251e-05
1.94511e-05
1.92164e-05
1.90185e-05
1.88507e-05
1.8663e-05
1.85122e-05
1.83708e-05
1.82346e-05
1.80903e-05
1.79517e-05
1.7811e-05
1.76811e-05
1.75467e-05
1.74252e-05
1.7297e-05
1.71812e-05
1.70627e-05
1.69503e-05
1.68407e-05
1.67334e-05
1.66236e-05
1.65249e-05
1.64197e-05
1.63218e-05
1.62242e-05
1.61308e-05
1.60355e-05
1.59504e-05
1.58577e-05
1.57735e-05
1.56911e-05
1.56164e-05
1.55326e-05
1.54594e-05
1.53823e-05
1.53182e-05
1.52399e-05
1.5186e-05
1.51142e-05
1.50562e-05
1.49958e-05
1.49356e-05
1.48923e-05
1.48464e-05
1.47877e-05
1.47516e-05
1.47203e-05
1.46746e-05
1.99999e-05
1.98247e-05
1.94484e-05
1.9201e-05
1.9003e-05
1.88424e-05
1.86537e-05
1.84989e-05
1.83565e-05
1.82213e-05
1.80767e-05
1.79376e-05
1.77961e-05
1.76656e-05
1.75307e-05
1.7408e-05
1.72802e-05
1.71631e-05
1.70447e-05
1.69317e-05
1.68214e-05
1.67142e-05
1.66031e-05
1.65036e-05
1.63983e-05
1.62992e-05
1.62007e-05
1.61073e-05
1.60105e-05
1.59242e-05
1.58313e-05
1.57467e-05
1.5663e-05
1.55881e-05
1.55036e-05
1.54296e-05
1.53519e-05
1.5288e-05
1.52094e-05
1.51548e-05
1.50817e-05
1.50256e-05
1.49631e-05
1.49037e-05
1.48616e-05
1.48131e-05
1.47553e-05
1.47219e-05
1.46865e-05
1.46354e-05
1.99999e-05
1.98247e-05
1.94483e-05
1.91879e-05
1.89893e-05
1.88358e-05
1.86487e-05
1.84901e-05
1.83469e-05
1.82131e-05
1.8069e-05
1.79301e-05
1.77885e-05
1.76576e-05
1.75231e-05
1.73995e-05
1.72729e-05
1.71551e-05
1.70371e-05
1.69246e-05
1.68137e-05
1.67072e-05
1.65955e-05
1.64956e-05
1.63908e-05
1.6291e-05
1.61918e-05
1.60989e-05
1.60011e-05
1.59137e-05
1.58212e-05
1.57367e-05
1.56519e-05
1.55771e-05
1.54923e-05
1.54179e-05
1.53398e-05
1.52765e-05
1.5198e-05
1.51425e-05
1.50684e-05
1.50148e-05
1.49502e-05
1.48925e-05
1.48507e-05
1.47996e-05
1.47438e-05
1.47122e-05
1.46716e-05
1.46167e-05
1.99999e-05
1.98252e-05
1.94504e-05
1.91775e-05
1.89777e-05
1.88307e-05
1.86477e-05
1.84861e-05
1.8342e-05
1.82101e-05
1.80674e-05
1.79294e-05
1.77884e-05
1.76577e-05
1.7524e-05
1.74005e-05
1.72752e-05
1.71574e-05
1.70401e-05
1.69286e-05
1.68176e-05
1.67119e-05
1.66005e-05
1.65004e-05
1.63962e-05
1.62966e-05
1.61972e-05
1.61049e-05
1.60068e-05
1.59187e-05
1.58268e-05
1.5743e-05
1.56576e-05
1.55829e-05
1.54984e-05
1.54242e-05
1.53459e-05
1.52832e-05
1.52055e-05
1.51492e-05
1.50747e-05
1.50234e-05
1.49572e-05
1.49016e-05
1.48592e-05
1.48062e-05
1.47532e-05
1.47219e-05
1.46759e-05
1.46188e-05
1.99999e-05
1.98262e-05
1.94549e-05
1.91707e-05
1.89685e-05
1.88272e-05
1.86503e-05
1.84867e-05
1.83421e-05
1.82122e-05
1.80714e-05
1.79347e-05
1.77947e-05
1.76644e-05
1.75322e-05
1.74091e-05
1.72857e-05
1.71684e-05
1.70524e-05
1.69428e-05
1.68323e-05
1.67279e-05
1.66176e-05
1.65177e-05
1.64148e-05
1.63159e-05
1.62166e-05
1.61252e-05
1.60273e-05
1.59389e-05
1.58479e-05
1.57654e-05
1.56797e-05
1.56052e-05
1.55213e-05
1.54479e-05
1.53698e-05
1.53077e-05
1.52312e-05
1.51741e-05
1.50995e-05
1.50506e-05
1.49833e-05
1.49303e-05
1.48863e-05
1.4832e-05
1.47823e-05
1.47501e-05
1.46986e-05
1.46408e-05
1.99999e-05
1.98276e-05
1.94615e-05
1.91672e-05
1.89621e-05
1.88248e-05
1.86565e-05
1.84919e-05
1.83464e-05
1.82187e-05
1.80806e-05
1.79464e-05
1.7808e-05
1.76788e-05
1.75485e-05
1.74271e-05
1.73058e-05
1.719e-05
1.70759e-05
1.69686e-05
1.68595e-05
1.67565e-05
1.66483e-05
1.65495e-05
1.64477e-05
1.63506e-05
1.62521e-05
1.61616e-05
1.60648e-05
1.59768e-05
1.58868e-05
1.58061e-05
1.57209e-05
1.56465e-05
1.55637e-05
1.54917e-05
1.54143e-05
1.53525e-05
1.52776e-05
1.52202e-05
1.5146e-05
1.5099e-05
1.50312e-05
1.49806e-05
1.49345e-05
1.48794e-05
1.48324e-05
1.47984e-05
1.47417e-05
1.4684e-05
1.99999e-05
1.98295e-05
1.94697e-05
1.91674e-05
1.89584e-05
1.88241e-05
1.86651e-05
1.85015e-05
1.83557e-05
1.82302e-05
1.80952e-05
1.79639e-05
1.78276e-05
1.77001e-05
1.75719e-05
1.7453e-05
1.73337e-05
1.72204e-05
1.71084e-05
1.70041e-05
1.68971e-05
1.67959e-05
1.66902e-05
1.65932e-05
1.64928e-05
1.63981e-05
1.63011e-05
1.62114e-05
1.61164e-05
1.60296e-05
1.59406e-05
1.58621e-05
1.57782e-05
1.57041e-05
1.56226e-05
1.55527e-05
1.54765e-05
1.54148e-05
1.53417e-05
1.52846e-05
1.52115e-05
1.51656e-05
1.50979e-05
1.50496e-05
1.50015e-05
1.49458e-05
1.49011e-05
1.48646e-05
1.48033e-05
1.47468e-05
1.99999e-05
1.98318e-05
1.94795e-05
1.91708e-05
1.89575e-05
1.88247e-05
1.86757e-05
1.85147e-05
1.83688e-05
1.82456e-05
1.81141e-05
1.79864e-05
1.78523e-05
1.77271e-05
1.76012e-05
1.74856e-05
1.73683e-05
1.72585e-05
1.71488e-05
1.70482e-05
1.69434e-05
1.68448e-05
1.67422e-05
1.66475e-05
1.6549e-05
1.64569e-05
1.63621e-05
1.62737e-05
1.61806e-05
1.60958e-05
1.60084e-05
1.5932e-05
1.58498e-05
1.57766e-05
1.56966e-05
1.5629e-05
1.55546e-05
1.54932e-05
1.54216e-05
1.53655e-05
1.52939e-05
1.52488e-05
1.51814e-05
1.51354e-05
1.50852e-05
1.50291e-05
1.49859e-05
1.49467e-05
1.48815e-05
1.4827e-05
1.99999e-05
1.98346e-05
1.949e-05
1.9178e-05
1.89596e-05
1.88272e-05
1.86877e-05
1.85312e-05
1.83855e-05
1.82644e-05
1.81365e-05
1.80129e-05
1.78815e-05
1.77591e-05
1.76356e-05
1.75238e-05
1.74086e-05
1.73029e-05
1.71957e-05
1.70996e-05
1.69971e-05
1.6902e-05
1.68026e-05
1.67106e-05
1.66149e-05
1.65254e-05
1.64332e-05
1.63468e-05
1.62556e-05
1.61733e-05
1.60882e-05
1.60139e-05
1.59337e-05
1.58622e-05
1.57839e-05
1.57186e-05
1.56464e-05
1.55856e-05
1.55154e-05
1.54606e-05
1.53911e-05
1.53466e-05
1.52793e-05
1.52353e-05
1.51836e-05
1.51272e-05
1.50847e-05
1.50422e-05
1.49737e-05
1.49223e-05
1.99999e-05
1.98377e-05
1.95012e-05
1.91879e-05
1.89647e-05
1.88318e-05
1.87009e-05
1.85504e-05
1.84056e-05
1.82866e-05
1.81622e-05
1.80429e-05
1.79143e-05
1.77951e-05
1.76743e-05
1.75664e-05
1.74536e-05
1.73523e-05
1.72482e-05
1.71566e-05
1.70569e-05
1.69657e-05
1.68699e-05
1.67809e-05
1.66885e-05
1.66019e-05
1.65125e-05
1.64289e-05
1.63396e-05
1.62602e-05
1.61781e-05
1.61057e-05
1.60277e-05
1.59587e-05
1.58822e-05
1.58192e-05
1.57494e-05
1.56898e-05
1.56207e-05
1.55675e-05
1.55005e-05
1.54561e-05
1.5389e-05
1.53467e-05
1.52935e-05
1.52374e-05
1.51951e-05
1.51479e-05
1.50773e-05
1.50303e-05
1.99999e-05
1.9841e-05
1.95128e-05
1.92002e-05
1.89728e-05
1.88384e-05
1.87145e-05
1.85716e-05
1.84283e-05
1.83113e-05
1.81902e-05
1.80755e-05
1.795e-05
1.78342e-05
1.77163e-05
1.76122e-05
1.75024e-05
1.74051e-05
1.7305e-05
1.72174e-05
1.71218e-05
1.70342e-05
1.69426e-05
1.68568e-05
1.67679e-05
1.66847e-05
1.65981e-05
1.65176e-05
1.64308e-05
1.63542e-05
1.62756e-05
1.62055e-05
1.61294e-05
1.60636e-05
1.59894e-05
1.59285e-05
1.58608e-05
1.58033e-05
1.57352e-05
1.56834e-05
1.56193e-05
1.55743e-05
1.55086e-05
1.54664e-05
1.54126e-05
1.53568e-05
1.53138e-05
1.52613e-05
1.51903e-05
1.5148e-05
1.99999e-05
1.98445e-05
1.95243e-05
1.92145e-05
1.89835e-05
1.8847e-05
1.87286e-05
1.85942e-05
1.84532e-05
1.83381e-05
1.82202e-05
1.81101e-05
1.79878e-05
1.78755e-05
1.77606e-05
1.76602e-05
1.75537e-05
1.74603e-05
1.73649e-05
1.72808e-05
1.719e-05
1.7106e-05
1.70188e-05
1.69368e-05
1.68512e-05
1.67723e-05
1.66883e-05
1.66108e-05
1.65275e-05
1.64536e-05
1.63785e-05
1.63111e-05
1.62369e-05
1.61743e-05
1.6103e-05
1.60443e-05
1.5978e-05
1.59234e-05
1.58566e-05
1.5806e-05
1.57442e-05
1.56988e-05
1.56352e-05
1.55915e-05
1.55384e-05
1.54819e-05
1.54381e-05
1.53806e-05
1.53104e-05
1.52712e-05
1.99999e-05
1.98481e-05
1.95358e-05
1.92304e-05
1.89967e-05
1.88576e-05
1.87431e-05
1.86176e-05
1.84798e-05
1.83666e-05
1.82516e-05
1.81459e-05
1.80269e-05
1.79183e-05
1.78066e-05
1.77094e-05
1.76064e-05
1.75171e-05
1.74263e-05
1.7346e-05
1.72599e-05
1.71803e-05
1.70968e-05
1.70194e-05
1.69371e-05
1.68626e-05
1.67816e-05
1.67068e-05
1.66276e-05
1.65567e-05
1.64845e-05
1.64204e-05
1.63484e-05
1.62886e-05
1.62208e-05
1.61644e-05
1.60991e-05
1.60475e-05
1.59826e-05
1.59331e-05
1.58725e-05
1.58273e-05
1.57657e-05
1.57203e-05
1.56676e-05
1.56102e-05
1.55656e-05
1.55036e-05
1.54345e-05
1.53965e-05
1.99999e-05
1.98517e-05
1.95471e-05
1.92475e-05
1.90119e-05
1.88699e-05
1.87579e-05
1.86412e-05
1.85074e-05
1.83963e-05
1.82841e-05
1.81826e-05
1.80668e-05
1.7962e-05
1.78533e-05
1.77592e-05
1.76596e-05
1.75746e-05
1.74879e-05
1.7412e-05
1.73301e-05
1.72557e-05
1.71755e-05
1.7103e-05
1.70245e-05
1.69539e-05
1.68764e-05
1.68042e-05
1.67292e-05
1.6662e-05
1.6592e-05
1.65311e-05
1.64622e-05
1.64048e-05
1.63402e-05
1.62866e-05
1.62223e-05
1.61732e-05
1.61108e-05
1.60623e-05
1.60019e-05
1.59576e-05
1.58975e-05
1.58513e-05
1.57972e-05
1.57396e-05
1.56942e-05
1.5628e-05
1.55606e-05
1.55221e-05
1.99999e-05
1.98553e-05
1.95581e-05
1.92652e-05
1.90288e-05
1.88839e-05
1.87732e-05
1.86647e-05
1.85353e-05
1.84267e-05
1.83173e-05
1.82195e-05
1.81069e-05
1.8006e-05
1.79001e-05
1.78088e-05
1.77124e-05
1.76319e-05
1.7549e-05
1.74777e-05
1.74001e-05
1.73307e-05
1.72543e-05
1.71861e-05
1.71122e-05
1.70448e-05
1.6971e-05
1.6902e-05
1.68306e-05
1.67675e-05
1.66998e-05
1.66416e-05
1.65765e-05
1.65215e-05
1.64593e-05
1.64089e-05
1.63462e-05
1.62988e-05
1.62389e-05
1.61918e-05
1.6131e-05
1.60871e-05
1.60284e-05
1.59825e-05
1.59255e-05
1.58683e-05
1.58212e-05
1.57523e-05
1.56866e-05
1.56463e-05
1.99999e-05
1.98589e-05
1.95688e-05
1.92831e-05
1.90469e-05
1.88993e-05
1.87889e-05
1.86875e-05
1.85631e-05
1.84577e-05
1.83507e-05
1.82562e-05
1.81469e-05
1.805e-05
1.79463e-05
1.78577e-05
1.77644e-05
1.76881e-05
1.76088e-05
1.75421e-05
1.7469e-05
1.74041e-05
1.73321e-05
1.72679e-05
1.71988e-05
1.71346e-05
1.70642e-05
1.69992e-05
1.69308e-05
1.68715e-05
1.68067e-05
1.67506e-05
1.66894e-05
1.66371e-05
1.65767e-05
1.65294e-05
1.64692e-05
1.64232e-05
1.63647e-05
1.63194e-05
1.62586e-05
1.62143e-05
1.61572e-05
1.61111e-05
1.60523e-05
1.59939e-05
1.59451e-05
1.58751e-05
1.58103e-05
1.57674e-05
1.99999e-05
1.98623e-05
1.95791e-05
1.93007e-05
1.90656e-05
1.8916e-05
1.8805e-05
1.87094e-05
1.85904e-05
1.84888e-05
1.83841e-05
1.82927e-05
1.81865e-05
1.80934e-05
1.79914e-05
1.79053e-05
1.78149e-05
1.77426e-05
1.76667e-05
1.76046e-05
1.75359e-05
1.74757e-05
1.74078e-05
1.73482e-05
1.72828e-05
1.72228e-05
1.71551e-05
1.70943e-05
1.70292e-05
1.69728e-05
1.69116e-05
1.68577e-05
1.67993e-05
1.67503e-05
1.66917e-05
1.66468e-05
1.65897e-05
1.65453e-05
1.64871e-05
1.64433e-05
1.63834e-05
1.63384e-05
1.62821e-05
1.62351e-05
1.61764e-05
1.6115e-05
1.60652e-05
1.59941e-05
1.59302e-05
1.5884e-05
1.99999e-05
1.98656e-05
1.95891e-05
1.93177e-05
1.90846e-05
1.89337e-05
1.88213e-05
1.87303e-05
1.8617e-05
1.85197e-05
1.84172e-05
1.83288e-05
1.82257e-05
1.81356e-05
1.80351e-05
1.79514e-05
1.78635e-05
1.77949e-05
1.77223e-05
1.76648e-05
1.76002e-05
1.7545e-05
1.74807e-05
1.74263e-05
1.7364e-05
1.73083e-05
1.72436e-05
1.71863e-05
1.71248e-05
1.70708e-05
1.7013e-05
1.69621e-05
1.69057e-05
1.68595e-05
1.68037e-05
1.67606e-05
1.67062e-05
1.66636e-05
1.66052e-05
1.65627e-05
1.6504e-05
1.6459e-05
1.6402e-05
1.63541e-05
1.62954e-05
1.62318e-05
1.61812e-05
1.61079e-05
1.60447e-05
1.5995e-05
1.99999e-05
1.98687e-05
1.95987e-05
1.93341e-05
1.91034e-05
1.89521e-05
1.88377e-05
1.87503e-05
1.86428e-05
1.85501e-05
1.84496e-05
1.83644e-05
1.8264e-05
1.81765e-05
1.80772e-05
1.79958e-05
1.791e-05
1.78446e-05
1.77752e-05
1.77223e-05
1.76617e-05
1.76109e-05
1.75511e-05
1.75009e-05
1.74425e-05
1.739e-05
1.73292e-05
1.72747e-05
1.72165e-05
1.71657e-05
1.71102e-05
1.70625e-05
1.70083e-05
1.69639e-05
1.69116e-05
1.68708e-05
1.68175e-05
1.67769e-05
1.67191e-05
1.66771e-05
1.66191e-05
1.65753e-05
1.65164e-05
1.64676e-05
1.64078e-05
1.63446e-05
1.62921e-05
1.62153e-05
1.61537e-05
1.60985e-05
1.99999e-05
1.98717e-05
1.96078e-05
1.93497e-05
1.91219e-05
1.89707e-05
1.88542e-05
1.87696e-05
1.86676e-05
1.85796e-05
1.84814e-05
1.83996e-05
1.83014e-05
1.82159e-05
1.81175e-05
1.80383e-05
1.79539e-05
1.78913e-05
1.78254e-05
1.77768e-05
1.772e-05
1.76733e-05
1.76182e-05
1.75722e-05
1.75175e-05
1.74683e-05
1.74107e-05
1.73598e-05
1.73038e-05
1.72566e-05
1.72034e-05
1.71578e-05
1.71066e-05
1.7064e-05
1.70145e-05
1.69764e-05
1.69238e-05
1.68842e-05
1.68279e-05
1.6787e-05
1.67282e-05
1.66858e-05
1.66249e-05
1.6576e-05
1.65129e-05
1.64534e-05
1.63955e-05
1.63179e-05
1.62566e-05
1.6193e-05
1.99999e-05
1.98745e-05
1.96161e-05
1.93647e-05
1.91397e-05
1.89891e-05
1.88708e-05
1.87883e-05
1.8691e-05
1.86079e-05
1.85125e-05
1.84341e-05
1.83375e-05
1.82536e-05
1.81562e-05
1.80787e-05
1.79951e-05
1.79352e-05
1.78725e-05
1.7828e-05
1.77747e-05
1.77326e-05
1.76817e-05
1.764e-05
1.75886e-05
1.75432e-05
1.74878e-05
1.74407e-05
1.73872e-05
1.73426e-05
1.72923e-05
1.72479e-05
1.71998e-05
1.71599e-05
1.71122e-05
1.7076e-05
1.70247e-05
1.69859e-05
1.69312e-05
1.68915e-05
1.68317e-05
1.67893e-05
1.67276e-05
1.66791e-05
1.66118e-05
1.65558e-05
1.64909e-05
1.64168e-05
1.63512e-05
1.62806e-05
1.99999e-05
1.98772e-05
1.96238e-05
1.93789e-05
1.91567e-05
1.90071e-05
1.88873e-05
1.88065e-05
1.8713e-05
1.86348e-05
1.85428e-05
1.84676e-05
1.83721e-05
1.82899e-05