/*--------------------------------*- C++ -*----------------------------------*\
  =========                 |
  \\      /  F ield         | OpenFOAM: The Open Source CFD Toolbox
   \\    /   O peration     | Website:  https://openfoam.org
    \\  /    A nd           | Version:  7
     \\/     M anipulation  |
\*---------------------------------------------------------------------------*/
FoamFile
{
    version     2.0;
    format      ascii;
    class       volScalarField;
    location    "0.42";
    object      k_0;
}
// * * * * * * * * * * * * * * * * * * * * * * * * * * * * * * * * * * * * * //

dimensions      [0 2 -2 0 0 0 0];

internalField   nonuniform List<scalar> 
70000
(
1.08549e-05
4.21884e-06
2.82449e-06
2.31705e-06
1.99778e-06
1.75756e-06
1.5656e-06
1.40887e-06
1.27809e-06
1.16754e-06
1.07261e-06
9.90737e-07
9.19165e-07
8.56624e-07
8.0119e-07
7.52261e-07
7.08332e-07
6.69241e-07
6.33723e-07
6.0195e-07
5.72757e-07
5.46575e-07
5.22236e-07
5.00405e-07
4.79841e-07
4.61455e-07
4.43866e-07
4.28251e-07
4.13029e-07
3.99686e-07
3.8637e-07
3.74925e-07
3.63158e-07
3.53326e-07
3.42823e-07
3.34396e-07
3.24905e-07
3.17771e-07
3.0919e-07
3.03726e-07
2.95512e-07
2.91879e-07
2.83548e-07
2.81534e-07
2.72563e-07
2.74543e-07
2.65507e-07
2.8359e-07
2.68504e-07
3.06646e-07
1.72794e-05
1.13674e-05
8.52086e-06
7.01106e-06
6.03798e-06
5.31207e-06
4.73267e-06
4.25931e-06
3.86431e-06
3.53044e-06
3.24375e-06
2.9965e-06
2.78033e-06
2.59142e-06
2.42396e-06
2.27613e-06
2.14339e-06
2.02526e-06
1.9179e-06
1.82186e-06
1.73361e-06
1.65446e-06
1.58086e-06
1.51486e-06
1.45267e-06
1.39708e-06
1.34387e-06
1.29665e-06
1.2506e-06
1.21025e-06
1.16996e-06
1.13534e-06
1.09974e-06
1.06999e-06
1.03822e-06
1.01271e-06
9.83993e-07
9.62443e-07
9.36349e-07
9.19546e-07
8.94471e-07
8.82882e-07
8.57993e-07
8.50239e-07
8.25152e-07
8.25657e-07
8.03481e-07
8.38801e-07
8.11579e-07
8.48156e-07
1.93701e-05
1.61298e-05
1.32914e-05
1.12904e-05
9.82948e-06
8.69756e-06
7.77993e-06
7.02283e-06
6.38639e-06
5.84575e-06
5.37983e-06
4.97682e-06
4.62359e-06
4.31421e-06
4.03941e-06
3.79638e-06
3.57777e-06
3.38295e-06
3.20563e-06
3.04689e-06
2.90079e-06
2.76971e-06
2.64766e-06
2.53816e-06
2.43485e-06
2.3425e-06
2.25399e-06
2.17544e-06
2.09875e-06
2.03153e-06
1.96439e-06
1.90664e-06
1.8473e-06
1.79759e-06
1.74461e-06
1.70194e-06
1.65402e-06
1.6179e-06
1.57399e-06
1.54527e-06
1.50317e-06
1.48266e-06
1.44131e-06
1.42634e-06
1.3868e-06
1.38127e-06
1.34746e-06
1.38114e-06
1.35817e-06
1.3732e-06
1.9861e-05
1.82601e-05
1.60857e-05
1.42008e-05
1.26408e-05
1.135e-05
1.02621e-05
9.34063e-06
8.54925e-06
7.86687e-06
7.27229e-06
6.7535e-06
6.2953e-06
5.89148e-06
5.53066e-06
5.20994e-06
4.91999e-06
4.66065e-06
4.42364e-06
4.21093e-06
4.01448e-06
3.8379e-06
3.67294e-06
3.52476e-06
3.38452e-06
3.25904e-06
3.13845e-06
3.03134e-06
2.92654e-06
2.83457e-06
2.74265e-06
2.66334e-06
2.58199e-06
2.51348e-06
2.44076e-06
2.38177e-06
2.31591e-06
2.26572e-06
2.20498e-06
2.16391e-06
2.10615e-06
2.07529e-06
2.01924e-06
1.99625e-06
1.94382e-06
1.93015e-06
1.88391e-06
1.90322e-06
1.89636e-06
1.88602e-06
1.99707e-05
1.78458e-05
1.60747e-05
1.47665e-05
1.36023e-05
1.25379e-05
1.15695e-05
1.07026e-05
9.92161e-06
9.22692e-06
8.60692e-06
8.05518e-06
7.55944e-06
7.1165e-06
6.71538e-06
6.35492e-06
6.02552e-06
5.72858e-06
5.45498e-06
5.20808e-06
4.97843e-06
4.77114e-06
4.57625e-06
4.40061e-06
4.23347e-06
4.08349e-06
3.93867e-06
3.80967e-06
3.6831e-06
3.57157e-06
3.46009e-06
3.36326e-06
3.2643e-06
3.1801e-06
3.0914e-06
3.01843e-06
2.93794e-06
2.87533e-06
2.80116e-06
2.74859e-06
2.67897e-06
2.63655e-06
2.57004e-06
2.53806e-06
2.47386e-06
2.45224e-06
2.39478e-06
2.39429e-06
2.38721e-06
2.36051e-06
2.00095e-05
1.4704e-05
1.37472e-05
1.32102e-05
1.25902e-05
1.19261e-05
1.12766e-05
1.06568e-05
1.00793e-05
9.54597e-06
9.04535e-06
8.57996e-06
8.14627e-06
7.74744e-06
7.3757e-06
7.03417e-06
6.71552e-06
6.42408e-06
6.1514e-06
5.90271e-06
5.66828e-06
5.45489e-06
5.2519e-06
5.06777e-06
4.89081e-06
4.73107e-06
4.57562e-06
4.43636e-06
4.29913e-06
4.17724e-06
4.05546e-06
3.9484e-06
3.83962e-06
3.7455e-06
3.6475e-06
3.56499e-06
3.47583e-06
3.40391e-06
3.32208e-06
3.25984e-06
3.18411e-06
3.1311e-06
3.06008e-06
3.01671e-06
2.94802e-06
2.918e-06
2.85678e-06
2.83198e-06
2.81662e-06
2.77466e-06
2.01331e-05
1.54691e-05
9.63467e-06
9.39662e-06
9.49062e-06
9.48962e-06
9.4306e-06
9.29196e-06
9.05134e-06
8.77825e-06
8.48326e-06
8.18672e-06
7.89466e-06
7.61238e-06
7.33509e-06
7.07518e-06
6.8271e-06
6.59412e-06
6.36966e-06
6.16038e-06
5.9579e-06
5.7705e-06
5.58833e-06
5.42114e-06
5.25752e-06
5.10812e-06
4.96091e-06
4.82769e-06
4.69555e-06
4.57652e-06
4.45765e-06
4.35105e-06
4.24365e-06
4.14824e-06
4.0506e-06
3.96537e-06
3.8762e-06
3.80001e-06
3.71859e-06
3.65017e-06
3.57595e-06
3.51453e-06
3.44668e-06
3.3922e-06
3.32921e-06
3.28327e-06
3.23118e-06
3.18454e-06
3.16288e-06
3.10741e-06
2.01712e-05
1.86769e-05
8.69682e-06
5.53992e-06
5.62925e-06
5.93187e-06
6.28888e-06
6.57366e-06
6.75218e-06
6.86072e-06
6.87966e-06
6.86025e-06
6.8077e-06
6.71975e-06
6.60809e-06
6.48716e-06
6.34861e-06
6.20756e-06
6.06374e-06
5.92329e-06
5.78116e-06
5.64579e-06
5.50974e-06
5.38253e-06
5.25393e-06
5.13638e-06
5.01873e-06
4.91036e-06
4.80146e-06
4.70096e-06
4.60035e-06
4.5073e-06
4.41444e-06
4.32861e-06
4.24285e-06
4.16379e-06
4.08487e-06
4.0116e-06
3.93974e-06
3.87103e-06
3.80632e-06
3.74154e-06
3.68389e-06
3.6225e-06
3.57168e-06
3.51347e-06
3.47323e-06
3.41375e-06
3.38945e-06
3.32719e-06
2.01671e-05
1.97241e-05
1.61703e-05
4.8661e-06
3.04242e-06
3.10468e-06
3.37185e-06
3.80099e-06
4.16537e-06
4.48248e-06
4.72864e-06
4.91773e-06
5.057e-06
5.15711e-06
5.21428e-06
5.25011e-06
5.25215e-06
5.24327e-06
5.22009e-06
5.18171e-06
5.13223e-06
5.0776e-06
5.01567e-06
4.95205e-06
4.88287e-06
4.81473e-06
4.74098e-06
4.66998e-06
4.59635e-06
4.52577e-06
4.45436e-06
4.38544e-06
4.31721e-06
4.25059e-06
4.18601e-06
4.12189e-06
4.06168e-06
3.99948e-06
3.94455e-06
3.8839e-06
3.83497e-06
3.77555e-06
3.73209e-06
3.67341e-06
3.63565e-06
3.57701e-06
3.54659e-06
3.48659e-06
3.46291e-06
3.4032e-06
2.01476e-05
1.99343e-05
1.90666e-05
1.4504e-05
5.25291e-06
2.15617e-06
1.9143e-06
1.99262e-06
2.20435e-06
2.50195e-06
2.77634e-06
3.02851e-06
3.25153e-06
3.44751e-06
3.60935e-06
3.74686e-06
3.85643e-06
3.94404e-06
4.01333e-06
4.06527e-06
4.10215e-06
4.12558e-06
4.13972e-06
4.14136e-06
4.13776e-06
4.12932e-06
4.11272e-06
4.09309e-06
4.06851e-06
4.04143e-06
4.0115e-06
3.9792e-06
3.94619e-06
3.90988e-06
3.87584e-06
3.83662e-06
3.80281e-06
3.76115e-06
3.72856e-06
3.68477e-06
3.65339e-06
3.60812e-06
3.57849e-06
3.53253e-06
3.50506e-06
3.45822e-06
3.43411e-06
3.38589e-06
3.36482e-06
3.31717e-06
2.01215e-05
1.99661e-05
1.96429e-05
1.85483e-05
1.52202e-05
8.37762e-06
3.11805e-06
1.63502e-06
1.44264e-06
1.44878e-06
1.52444e-06
1.68365e-06
1.86422e-06
2.04012e-06
2.20824e-06
2.36621e-06
2.51129e-06
2.64104e-06
2.75714e-06
2.85936e-06
2.94898e-06
3.02595e-06
3.09233e-06
3.14816e-06
3.19427e-06
3.23325e-06
3.26425e-06
3.28899e-06
3.30752e-06
3.32115e-06
3.32962e-06
3.33472e-06
3.33463e-06
3.33263e-06
3.32846e-06
3.31921e-06
3.31187e-06
3.29681e-06
3.28709e-06
3.26763e-06
3.25597e-06
3.23351e-06
3.21947e-06
3.19487e-06
3.17894e-06
3.15257e-06
3.13553e-06
3.1067e-06
3.08997e-06
3.06016e-06
2.00981e-05
1.99327e-05
1.97576e-05
1.93536e-05
1.85092e-05
1.65446e-05
1.23485e-05
6.88772e-06
3.00671e-06
1.49816e-06
1.24419e-06
1.14758e-06
1.15082e-06
1.19197e-06
1.2825e-06
1.38794e-06
1.49888e-06
1.60702e-06
1.71507e-06
1.81835e-06
1.91623e-06
2.00759e-06
2.09211e-06
2.16988e-06
2.24098e-06
2.30525e-06
2.36388e-06
2.41596e-06
2.46298e-06
2.50424e-06
2.5413e-06
2.57277e-06
2.60154e-06
2.62423e-06
2.64602e-06
2.66142e-06
2.67728e-06
2.6863e-06
2.69673e-06
2.7009e-06
2.70602e-06
2.70644e-06
2.70594e-06
2.70346e-06
2.70009e-06
2.69311e-06
2.6863e-06
2.67604e-06
2.66683e-06
2.65363e-06
2.00781e-05
1.98876e-05
1.97572e-05
1.9462e-05
1.91477e-05
1.86445e-05
1.75636e-05
1.5441e-05
1.17725e-05
7.48617e-06
4.01698e-06
1.9335e-06
1.21338e-06
1.05827e-06
9.8323e-07
9.41346e-07
9.51526e-07
9.83557e-07
1.04443e-06
1.10675e-06
1.17407e-06
1.24241e-06
1.31101e-06
1.37909e-06
1.44613e-06
1.50944e-06
1.57115e-06
1.6284e-06
1.68337e-06
1.73405e-06
1.78262e-06
1.82614e-06
1.86838e-06
1.90543e-06
1.94092e-06
1.97208e-06
2.00179e-06
2.02705e-06
2.0511e-06
2.07165e-06
2.09012e-06
2.10587e-06
2.11953e-06
2.13064e-06
2.13978e-06
2.14648e-06
2.15139e-06
2.15401e-06
2.15492e-06
2.15436e-06
2.00613e-05
1.98539e-05
1.97346e-05
1.94722e-05
1.9257e-05
1.90493e-05
1.87396e-05
1.81969e-05
1.71099e-05
1.52544e-05
1.26064e-05
9.28903e-06
6.03069e-06
3.52619e-06
1.91213e-06
1.17934e-06
9.6735e-07
8.92098e-07
8.38116e-07
7.95232e-07
7.95854e-07
8.07722e-07
8.35227e-07
8.72288e-07
9.11326e-07
9.51395e-07
9.94438e-07
1.03681e-06
1.08068e-06
1.12353e-06
1.16649e-06
1.20687e-06
1.24707e-06
1.28482e-06
1.32097e-06
1.35559e-06
1.38836e-06
1.41897e-06
1.44766e-06
1.4751e-06
1.4994e-06
1.52262e-06
1.54323e-06
1.56226e-06
1.57879e-06
1.59329e-06
1.60609e-06
1.61673e-06
1.62507e-06
1.63332e-06
2.00475e-05
1.98304e-05
1.97081e-05
1.94501e-05
1.92739e-05
1.91172e-05
1.89682e-05
1.87539e-05
1.84676e-05
1.79212e-05
1.70921e-05
1.5728e-05
1.39222e-05
1.15926e-05
8.93012e-06
6.32941e-06
4.14989e-06
2.56417e-06
1.54504e-06
1.0482e-06
8.68453e-07
8.01859e-07
7.53988e-07
7.12779e-07
6.82165e-07
6.75254e-07
6.79998e-07
6.9201e-07
7.12542e-07
7.34493e-07
7.58291e-07
7.81866e-07
8.07435e-07
8.33601e-07
8.59522e-07
8.86569e-07
9.12729e-07
9.38791e-07
9.63186e-07
9.88434e-07
1.01032e-06
1.03303e-06
1.05307e-06
1.07282e-06
1.0906e-06
1.10661e-06
1.12206e-06
1.13507e-06
1.14702e-06
1.15789e-06
2.00362e-05
1.98125e-05
1.96856e-05
1.94199e-05
1.926e-05
1.91109e-05
1.90031e-05
1.88525e-05
1.87159e-05
1.85055e-05
1.82541e-05
1.78422e-05
1.72475e-05
1.6385e-05
1.52001e-05
1.3679e-05
1.18942e-05
9.83313e-06
7.70499e-06
5.71419e-06
4.02439e-06
2.73097e-06
1.7944e-06
1.20435e-06
9.03323e-07
7.74375e-07
7.16667e-07
6.78979e-07
6.44233e-07
6.12742e-07
5.9126e-07
5.79013e-07
5.79644e-07
5.83531e-07
5.91757e-07
6.03635e-07
6.15981e-07
6.29121e-07
6.41734e-07
6.56253e-07
6.68964e-07
6.83953e-07
6.97303e-07
7.11701e-07
7.25208e-07
7.37783e-07
7.50599e-07
7.61643e-07
7.72418e-07
7.82083e-07
2.00271e-05
1.97987e-05
1.96664e-05
1.9398e-05
1.92344e-05
1.90836e-05
1.89852e-05
1.88559e-05
1.87401e-05
1.86003e-05
1.84647e-05
1.82942e-05
1.8088e-05
1.78027e-05
1.74226e-05
1.68848e-05
1.61886e-05
1.52809e-05
1.41613e-05
1.28385e-05
1.13679e-05
9.735e-06
8.04978e-06
6.42476e-06
4.94614e-06
3.69228e-06
2.69374e-06
1.92061e-06
1.36205e-06
1.00357e-06
8.03745e-07
7.02218e-07
6.50401e-07
6.17214e-07
5.90423e-07
5.64484e-07
5.40651e-07
5.2098e-07
5.07542e-07
4.99473e-07
4.97212e-07
4.98213e-07
5.00735e-07
5.058e-07
5.10874e-07
5.16541e-07
5.21996e-07
5.27705e-07
5.32306e-07
5.38177e-07
2.002e-05
1.97902e-05
1.96462e-05
1.93817e-05
1.92106e-05
1.90548e-05
1.89475e-05
1.88298e-05
1.87187e-05
1.85939e-05
1.84762e-05
1.83498e-05
1.82257e-05
1.80826e-05
1.79271e-05
1.773e-05
1.74894e-05
1.71756e-05
1.67788e-05
1.62683e-05
1.56456e-05
1.48876e-05
1.39934e-05
1.29686e-05
1.18409e-05
1.06282e-05
9.33275e-06
8.01675e-06
6.73102e-06
5.52987e-06
4.44394e-06
3.50881e-06
2.73553e-06
2.10406e-06
1.60223e-06
1.22451e-06
9.59302e-07
7.88458e-07
6.84741e-07
6.23858e-07
5.86768e-07
5.61557e-07
5.41322e-07
5.23513e-07
5.07148e-07
4.91809e-07
4.78057e-07
4.67241e-07
4.58385e-07
4.54994e-07
2.00144e-05
1.97902e-05
1.962e-05
1.93683e-05
1.91902e-05
1.90284e-05
1.89118e-05
1.87942e-05
1.86788e-05
1.8559e-05
1.84457e-05
1.83288e-05
1.82157e-05
1.80977e-05
1.7983e-05
1.78633e-05
1.77381e-05
1.75989e-05
1.74403e-05
1.72521e-05
1.70251e-05
1.67501e-05
1.64159e-05
1.60127e-05
1.55339e-05
1.49766e-05
1.4336e-05
1.36092e-05
1.28066e-05
1.19354e-05
1.10153e-05
1.00553e-05
9.05695e-06
8.05278e-06
7.06699e-06
6.12691e-06
5.24688e-06
4.45068e-06
3.73451e-06
3.12065e-06
2.59733e-06
2.15527e-06
1.78671e-06
1.48406e-06
1.24453e-06
1.05735e-06
9.18991e-07
8.19619e-07
7.54751e-07
7.31979e-07
2.00102e-05
1.97943e-05
1.95932e-05
1.93545e-05
1.91716e-05
1.90033e-05
1.88786e-05
1.87589e-05
1.86391e-05
1.85172e-05
1.84e-05
1.82838e-05
1.81708e-05
1.80602e-05
1.79502e-05
1.78445e-05
1.77348e-05
1.76299e-05
1.75206e-05
1.74131e-05
1.72958e-05
1.71715e-05
1.70318e-05
1.68735e-05
1.66914e-05
1.6479e-05
1.62342e-05
1.59492e-05
1.56202e-05
1.52475e-05
1.48222e-05
1.43519e-05
1.38329e-05
1.32647e-05
1.26536e-05
1.20055e-05
1.13289e-05
1.06282e-05
9.92407e-06
9.20817e-06
8.49033e-06
7.79061e-06
7.11597e-06
6.47573e-06
5.88295e-06
5.33607e-06
4.83864e-06
4.4045e-06
4.00269e-06
3.71019e-06
2.0007e-05
1.98019e-05
1.95686e-05
1.93412e-05
1.91542e-05
1.89799e-05
1.88471e-05
1.87251e-05
1.86005e-05
1.84766e-05
1.8354e-05
1.82365e-05
1.81187e-05
1.80069e-05
1.78936e-05
1.77897e-05
1.76815e-05
1.75841e-05
1.74801e-05
1.73867e-05
1.72858e-05
1.71903e-05
1.70921e-05
1.69944e-05
1.68935e-05
1.6787e-05
1.66747e-05
1.65524e-05
1.64155e-05
1.62703e-05
1.60989e-05
1.59134e-05
1.57061e-05
1.54744e-05
1.52145e-05
1.49346e-05
1.4621e-05
1.42861e-05
1.3925e-05
1.3545e-05
1.31354e-05
1.27187e-05
1.22805e-05
1.18327e-05
1.13912e-05
1.09385e-05
1.05034e-05
1.00705e-05
9.65594e-06
9.27111e-06
2.00046e-05
1.98105e-05
1.95456e-05
1.93279e-05
1.91374e-05
1.89581e-05
1.88169e-05
1.86926e-05
1.85637e-05
1.84376e-05
1.83099e-05
1.81899e-05
1.80676e-05
1.79537e-05
1.78358e-05
1.77311e-05
1.76172e-05
1.75193e-05
1.74115e-05
1.73192e-05
1.72191e-05
1.71292e-05
1.70364e-05
1.69481e-05
1.68599e-05
1.67719e-05
1.6685e-05
1.65984e-05
1.65091e-05
1.64279e-05
1.63316e-05
1.62406e-05
1.61448e-05
1.60422e-05
1.59283e-05
1.58153e-05
1.56826e-05
1.55459e-05
1.53972e-05
1.52409e-05
1.50621e-05
1.4887e-05
1.46911e-05
1.44821e-05
1.42791e-05
1.40548e-05
1.38339e-05
1.35981e-05
1.33731e-05
1.315e-05
2.00029e-05
1.98195e-05
1.95244e-05
1.93141e-05
1.91209e-05
1.89377e-05
1.87882e-05
1.86611e-05
1.85287e-05
1.84003e-05
1.82682e-05
1.81454e-05
1.80188e-05
1.79023e-05
1.77802e-05
1.76738e-05
1.75554e-05
1.74559e-05
1.73439e-05
1.72499e-05
1.71456e-05
1.70527e-05
1.69569e-05
1.6867e-05
1.67774e-05
1.66907e-05
1.66083e-05
1.65265e-05
1.64443e-05
1.63734e-05
1.62894e-05
1.62162e-05
1.61429e-05
1.60683e-05
1.59917e-05
1.59233e-05
1.58452e-05
1.57713e-05
1.56954e-05
1.5622e-05
1.55334e-05
1.54577e-05
1.53704e-05
1.52744e-05
1.519e-05
1.50967e-05
1.4996e-05
1.48905e-05
1.47983e-05
1.47045e-05
2.00017e-05
1.98279e-05
1.9505e-05
1.92993e-05
1.91041e-05
1.89189e-05
1.87611e-05
1.86307e-05
1.84957e-05
1.83649e-05
1.82293e-05
1.81032e-05
1.79732e-05
1.78536e-05
1.77283e-05
1.76193e-05
1.74975e-05
1.73954e-05
1.72806e-05
1.71837e-05
1.70772e-05
1.69808e-05
1.68822e-05
1.67896e-05
1.66964e-05
1.66064e-05
1.65202e-05
1.64342e-05
1.63505e-05
1.6277e-05
1.61919e-05
1.61188e-05
1.60495e-05
1.59794e-05
1.59083e-05
1.58462e-05
1.57772e-05
1.57155e-05
1.5652e-05
1.55975e-05
1.5529e-05
1.54758e-05
1.54182e-05
1.53552e-05
1.53052e-05
1.52578e-05
1.51964e-05
1.51407e-05
1.50999e-05
1.50599e-05
2.00009e-05
1.98306e-05
1.9489e-05
1.92842e-05
1.90876e-05
1.89019e-05
1.87361e-05
1.8602e-05
1.84651e-05
1.8332e-05
1.81936e-05
1.80641e-05
1.79313e-05
1.78086e-05
1.76808e-05
1.75686e-05
1.74445e-05
1.73392e-05
1.72228e-05
1.71222e-05
1.70146e-05
1.69147e-05
1.68138e-05
1.67191e-05
1.66224e-05
1.65306e-05
1.64411e-05
1.63518e-05
1.62659e-05
1.61882e-05
1.61007e-05
1.60238e-05
1.59503e-05
1.58776e-05
1.58034e-05
1.57381e-05
1.56677e-05
1.56058e-05
1.554e-05
1.54884e-05
1.54236e-05
1.5372e-05
1.53194e-05
1.52627e-05
1.52181e-05
1.51793e-05
1.51259e-05
1.50823e-05
1.50523e-05
1.50251e-05
2.00003e-05
1.98289e-05
1.94759e-05
1.92684e-05
1.90708e-05
1.88867e-05
1.87136e-05
1.85755e-05
1.8437e-05
1.83021e-05
1.81616e-05
1.80288e-05
1.78935e-05
1.77681e-05
1.76383e-05
1.7523e-05
1.73973e-05
1.72886e-05
1.71713e-05
1.70668e-05
1.69587e-05
1.68557e-05
1.67526e-05
1.66564e-05
1.65565e-05
1.64633e-05
1.63708e-05
1.62798e-05
1.61915e-05
1.61108e-05
1.60215e-05
1.59419e-05
1.58652e-05
1.57913e-05
1.57133e-05
1.56451e-05
1.55717e-05
1.55088e-05
1.54378e-05
1.53851e-05
1.53179e-05
1.5262e-05
1.52077e-05
1.51501e-05
1.51045e-05
1.50652e-05
1.50114e-05
1.49697e-05
1.49418e-05
1.49134e-05
2e-05
1.98271e-05
1.94647e-05
1.9251e-05
1.90532e-05
1.88729e-05
1.86934e-05
1.85512e-05
1.84116e-05
1.82755e-05
1.81333e-05
1.79979e-05
1.78604e-05
1.77329e-05
1.76013e-05
1.74834e-05
1.73564e-05
1.72448e-05
1.71269e-05
1.70189e-05
1.69104e-05
1.68051e-05
1.66996e-05
1.66024e-05
1.64999e-05
1.64053e-05
1.63104e-05
1.62182e-05
1.61275e-05
1.60449e-05
1.5954e-05
1.58725e-05
1.57933e-05
1.57191e-05
1.56382e-05
1.5568e-05
1.54927e-05
1.54291e-05
1.53543e-05
1.53012e-05
1.52321e-05
1.51737e-05
1.51172e-05
1.50581e-05
1.50122e-05
1.49707e-05
1.49143e-05
1.48737e-05
1.48457e-05
1.48115e-05
1.99999e-05
1.98258e-05
1.94564e-05
1.92334e-05
1.90355e-05
1.88608e-05
1.86763e-05
1.85298e-05
1.83893e-05
1.82528e-05
1.81093e-05
1.79719e-05
1.78326e-05
1.77036e-05
1.75704e-05
1.74505e-05
1.73226e-05
1.72087e-05
1.70904e-05
1.69798e-05
1.68708e-05
1.6764e-05
1.66562e-05
1.65582e-05
1.64538e-05
1.63576e-05
1.62611e-05
1.61681e-05
1.6075e-05
1.5991e-05
1.58989e-05
1.58159e-05
1.5735e-05
1.56604e-05
1.55777e-05
1.55059e-05
1.54295e-05
1.53655e-05
1.52884e-05
1.5235e-05
1.51642e-05
1.51055e-05
1.5047e-05
1.4987e-05
1.49424e-05
1.48983e-05
1.48401e-05
1.48019e-05
1.47728e-05
1.4732e-05
1.99999e-05
1.98251e-05
1.94511e-05
1.92164e-05
1.90186e-05
1.88507e-05
1.8663e-05
1.85122e-05
1.83708e-05
1.82346e-05
1.80902e-05
1.79516e-05
1.78108e-05
1.7681e-05
1.75466e-05
1.74251e-05
1.7297e-05
1.71813e-05
1.70628e-05
1.69504e-05
1.68408e-05
1.67333e-05
1.66237e-05
1.65249e-05
1.64196e-05
1.63218e-05
1.62241e-05
1.61307e-05
1.60355e-05
1.59503e-05
1.58575e-05
1.57735e-05
1.56912e-05
1.56163e-05
1.55323e-05
1.54592e-05
1.53822e-05
1.53179e-05
1.52398e-05
1.51859e-05
1.51138e-05
1.5056e-05
1.49953e-05
1.49355e-05
1.48924e-05
1.48457e-05
1.47872e-05
1.47518e-05
1.472e-05
1.46733e-05
1.99999e-05
1.98247e-05
1.94484e-05
1.9201e-05
1.9003e-05
1.88424e-05
1.86537e-05
1.84988e-05
1.83565e-05
1.82213e-05
1.80766e-05
1.79375e-05
1.7796e-05
1.76655e-05
1.75307e-05
1.7408e-05
1.72802e-05
1.71632e-05
1.70447e-05
1.69318e-05
1.68215e-05
1.67141e-05
1.66031e-05
1.65037e-05
1.63982e-05
1.62992e-05
1.62007e-05
1.61072e-05
1.60104e-05
1.5924e-05
1.58311e-05
1.57466e-05
1.56631e-05
1.5588e-05
1.55033e-05
1.54294e-05
1.53518e-05
1.52878e-05
1.52092e-05
1.51546e-05
1.50813e-05
1.50254e-05
1.49625e-05
1.49036e-05
1.48616e-05
1.48123e-05
1.47548e-05
1.4722e-05
1.46859e-05
1.4634e-05
1.99999e-05
1.98247e-05
1.94483e-05
1.9188e-05
1.89893e-05
1.88359e-05
1.86487e-05
1.84901e-05
1.83469e-05
1.82131e-05
1.80689e-05
1.79299e-05
1.77883e-05
1.76575e-05
1.7523e-05
1.73995e-05
1.72729e-05
1.71552e-05
1.70371e-05
1.69247e-05
1.68138e-05
1.67072e-05
1.65955e-05
1.64956e-05
1.63907e-05
1.62909e-05
1.61918e-05
1.60988e-05
1.6001e-05
1.59135e-05
1.5821e-05
1.57366e-05
1.56519e-05
1.55769e-05
1.5492e-05
1.54177e-05
1.53397e-05
1.52762e-05
1.51978e-05
1.51422e-05
1.5068e-05
1.50145e-05
1.49495e-05
1.48924e-05
1.48505e-05
1.47987e-05
1.47434e-05
1.47121e-05
1.46707e-05
1.46154e-05
1.99999e-05
1.98252e-05
1.94504e-05
1.91775e-05
1.89777e-05
1.88307e-05
1.86477e-05
1.84861e-05
1.8342e-05
1.82101e-05
1.80672e-05
1.79292e-05
1.77882e-05
1.76575e-05
1.75239e-05
1.74005e-05
1.72752e-05
1.71575e-05
1.70402e-05
1.69287e-05
1.68177e-05
1.67119e-05
1.66005e-05
1.65004e-05
1.63962e-05
1.62965e-05
1.61971e-05
1.61047e-05
1.60066e-05
1.59186e-05
1.58266e-05
1.57428e-05
1.56576e-05
1.55828e-05
1.54981e-05
1.54239e-05
1.53458e-05
1.52829e-05
1.52052e-05
1.51489e-05
1.50743e-05
1.50231e-05
1.49565e-05
1.49015e-05
1.48589e-05
1.48053e-05
1.47529e-05
1.47216e-05
1.46747e-05
1.46177e-05
1.99999e-05
1.98262e-05
1.94549e-05
1.91707e-05
1.89685e-05
1.88272e-05
1.86503e-05
1.84866e-05
1.83421e-05
1.82122e-05
1.80712e-05
1.79345e-05
1.77945e-05
1.76642e-05
1.75321e-05
1.74091e-05
1.72858e-05
1.71685e-05
1.70525e-05
1.69429e-05
1.68324e-05
1.67279e-05
1.66176e-05
1.65178e-05
1.64147e-05
1.63158e-05
1.62166e-05
1.61251e-05
1.60271e-05
1.59388e-05
1.58478e-05
1.57653e-05
1.56796e-05
1.5605e-05
1.5521e-05
1.54476e-05
1.53697e-05
1.53074e-05
1.52309e-05
1.51737e-05
1.50991e-05
1.50503e-05
1.49826e-05
1.49302e-05
1.48858e-05
1.48311e-05
1.4782e-05
1.47496e-05
1.46972e-05
1.46398e-05
1.99999e-05
1.98276e-05
1.94615e-05
1.91672e-05
1.89621e-05
1.88249e-05
1.86565e-05
1.84919e-05
1.83464e-05
1.82187e-05
1.80804e-05
1.79462e-05
1.78078e-05
1.76786e-05
1.75484e-05
1.74271e-05
1.73059e-05
1.71901e-05
1.7076e-05
1.69688e-05
1.68597e-05
1.67566e-05
1.66483e-05
1.65495e-05
1.64476e-05
1.63505e-05
1.62521e-05
1.61614e-05
1.60646e-05
1.59767e-05
1.58866e-05
1.5806e-05
1.57208e-05
1.56463e-05
1.55634e-05
1.54914e-05
1.54142e-05
1.53522e-05
1.52773e-05
1.52197e-05
1.51456e-05
1.50986e-05
1.50305e-05
1.49803e-05
1.49339e-05
1.48785e-05
1.48321e-05
1.47977e-05
1.47401e-05
1.46833e-05
1.99999e-05
1.98295e-05
1.94697e-05
1.91674e-05
1.89584e-05
1.88241e-05
1.86651e-05
1.85015e-05
1.83557e-05
1.82302e-05
1.80951e-05
1.79637e-05
1.78273e-05
1.76999e-05
1.75718e-05
1.7453e-05
1.73337e-05
1.72205e-05
1.71086e-05
1.70043e-05
1.68972e-05
1.67959e-05
1.66903e-05
1.65933e-05
1.64927e-05
1.6398e-05
1.6301e-05
1.62112e-05
1.61162e-05
1.60294e-05
1.59405e-05
1.5862e-05
1.5778e-05
1.57038e-05
1.56223e-05
1.55524e-05
1.54763e-05
1.54145e-05
1.53413e-05
1.5284e-05
1.5211e-05
1.51651e-05
1.50972e-05
1.50493e-05
1.50007e-05
1.4945e-05
1.49007e-05
1.48637e-05
1.48017e-05
1.47463e-05
1.99999e-05
1.98318e-05
1.94795e-05
1.91708e-05
1.89576e-05
1.88248e-05
1.86757e-05
1.85147e-05
1.83688e-05
1.82455e-05
1.81139e-05
1.79861e-05
1.78521e-05
1.77269e-05
1.76011e-05
1.74856e-05
1.73683e-05
1.72585e-05
1.7149e-05
1.70484e-05
1.69435e-05
1.68449e-05
1.67422e-05
1.66475e-05
1.65489e-05
1.64569e-05
1.6362e-05
1.62735e-05
1.61803e-05
1.60956e-05
1.60082e-05
1.59319e-05
1.58496e-05
1.57763e-05
1.56963e-05
1.56287e-05
1.55543e-05
1.54928e-05
1.54212e-05
1.53649e-05
1.52935e-05
1.52483e-05
1.51806e-05
1.51349e-05
1.50843e-05
1.50283e-05
1.49856e-05
1.49456e-05
1.48799e-05
1.48266e-05
1.99999e-05
1.98346e-05
1.949e-05
1.9178e-05
1.89597e-05
1.88273e-05
1.86877e-05
1.85311e-05
1.83855e-05
1.82644e-05
1.81364e-05
1.80127e-05
1.78812e-05
1.77588e-05
1.76355e-05
1.75238e-05
1.74086e-05
1.7303e-05
1.71959e-05
1.70998e-05
1.69972e-05
1.69021e-05
1.68027e-05
1.67106e-05
1.66148e-05
1.65253e-05
1.64331e-05
1.63466e-05
1.62553e-05
1.61731e-05
1.60881e-05
1.60137e-05
1.59335e-05
1.58619e-05
1.57836e-05
1.57183e-05
1.56461e-05
1.55852e-05
1.55149e-05
1.546e-05
1.53906e-05
1.53459e-05
1.52784e-05
1.52348e-05
1.51825e-05
1.51263e-05
1.50842e-05
1.50408e-05
1.49722e-05
1.4922e-05
1.99999e-05
1.98377e-05
1.95012e-05
1.91879e-05
1.89648e-05
1.88319e-05
1.87009e-05
1.85504e-05
1.84056e-05
1.82865e-05
1.8162e-05
1.80426e-05
1.7914e-05
1.77948e-05
1.76742e-05
1.75664e-05
1.74536e-05
1.73523e-05
1.72484e-05
1.71568e-05
1.70571e-05
1.69659e-05
1.687e-05
1.67809e-05
1.66885e-05
1.66018e-05
1.65124e-05
1.64286e-05
1.63393e-05
1.62599e-05
1.61779e-05
1.61055e-05
1.60274e-05
1.59583e-05
1.58819e-05
1.58189e-05
1.5749e-05
1.56893e-05
1.56202e-05
1.55668e-05
1.54999e-05
1.54554e-05
1.53881e-05
1.53462e-05
1.52923e-05
1.52365e-05
1.51945e-05
1.51463e-05
1.50759e-05
1.50302e-05
1.99999e-05
1.9841e-05
1.95127e-05
1.92002e-05
1.89729e-05
1.88385e-05
1.87145e-05
1.85716e-05
1.84283e-05
1.83113e-05
1.81901e-05
1.80753e-05
1.79496e-05
1.78339e-05
1.77161e-05
1.76121e-05
1.75024e-05
1.74052e-05
1.73053e-05
1.72176e-05
1.71219e-05
1.70343e-05
1.69426e-05
1.68568e-05
1.67679e-05
1.66847e-05
1.6598e-05
1.65173e-05
1.64305e-05
1.6354e-05
1.62755e-05
1.62052e-05
1.61291e-05
1.60632e-05
1.5989e-05
1.59281e-05
1.58604e-05
1.58027e-05
1.57346e-05
1.56827e-05
1.56187e-05
1.55735e-05
1.55077e-05
1.54657e-05
1.54113e-05
1.53559e-05
1.5313e-05
1.52596e-05
1.51891e-05
1.51479e-05
1.99999e-05
1.98445e-05
1.95243e-05
1.92145e-05
1.89836e-05
1.88471e-05
1.87286e-05
1.85942e-05
1.84533e-05
1.83381e-05
1.822e-05
1.81098e-05
1.79874e-05
1.78752e-05
1.77604e-05
1.76601e-05
1.75536e-05
1.74605e-05
1.73652e-05
1.7281e-05
1.71902e-05
1.71062e-05
1.70189e-05
1.69368e-05
1.68512e-05
1.67722e-05
1.66882e-05
1.66106e-05
1.65272e-05
1.64534e-05
1.63783e-05
1.63108e-05
1.62366e-05
1.61739e-05
1.61026e-05
1.60439e-05
1.59776e-05
1.59228e-05
1.58559e-05
1.58053e-05
1.57436e-05
1.56979e-05
1.56342e-05
1.55907e-05
1.55371e-05
1.5481e-05
1.54371e-05
1.53788e-05
1.53094e-05
1.5271e-05
1.99999e-05
1.98481e-05
1.95358e-05
1.92304e-05
1.89968e-05
1.88577e-05
1.87431e-05
1.86176e-05
1.84799e-05
1.83666e-05
1.82515e-05
1.81456e-05
1.80265e-05
1.79179e-05
1.78063e-05
1.77093e-05
1.76063e-05
1.75172e-05
1.74265e-05
1.73462e-05
1.72601e-05
1.71804e-05
1.70969e-05
1.70194e-05
1.69371e-05
1.68625e-05
1.67814e-05
1.67065e-05
1.66273e-05
1.65565e-05
1.64843e-05
1.64201e-05
1.63481e-05
1.62882e-05
1.62204e-05
1.61639e-05
1.60986e-05
1.60468e-05
1.59818e-05
1.59323e-05
1.58718e-05
1.58264e-05
1.57647e-05
1.57195e-05
1.56663e-05
1.56092e-05
1.55645e-05
1.55018e-05
1.54338e-05
1.5396e-05
1.99999e-05
1.98517e-05
1.9547e-05
1.92475e-05
1.90121e-05
1.88701e-05
1.87579e-05
1.86413e-05
1.85074e-05
1.83963e-05
1.8284e-05
1.81823e-05
1.80664e-05
1.79616e-05
1.78531e-05
1.77591e-05
1.76595e-05
1.75747e-05
1.74882e-05
1.74123e-05
1.73304e-05
1.72559e-05
1.71756e-05
1.7103e-05
1.70245e-05
1.69538e-05
1.68761e-05
1.68039e-05
1.67289e-05
1.66617e-05
1.65918e-05
1.65308e-05
1.64619e-05
1.64044e-05
1.63399e-05
1.62861e-05
1.62218e-05
1.61726e-05
1.61101e-05
1.60615e-05
1.60011e-05
1.59567e-05
1.58964e-05
1.58504e-05
1.57959e-05
1.57387e-05
1.5693e-05
1.56262e-05
1.556e-05
1.55214e-05
1.99999e-05
1.98553e-05
1.9558e-05
1.92652e-05
1.9029e-05
1.88841e-05
1.87732e-05
1.86647e-05
1.85354e-05
1.84267e-05
1.83171e-05
1.82191e-05
1.81065e-05
1.80056e-05
1.78998e-05
1.78086e-05
1.77124e-05
1.7632e-05
1.75493e-05
1.7478e-05
1.74003e-05
1.73308e-05
1.72544e-05
1.71862e-05
1.71122e-05
1.70447e-05
1.69707e-05
1.69017e-05
1.68304e-05
1.67672e-05
1.66996e-05
1.66412e-05
1.65762e-05
1.65211e-05
1.64589e-05
1.64083e-05
1.63456e-05
1.62982e-05
1.62381e-05
1.61909e-05
1.61301e-05
1.60862e-05
1.60274e-05
1.59815e-05
1.59242e-05
1.58673e-05
1.58199e-05
1.57506e-05
1.56861e-05
1.56454e-05
1.99999e-05
1.98588e-05
1.95687e-05
1.92831e-05
1.9047e-05
1.88995e-05
1.8789e-05
1.86876e-05
1.85632e-05
1.84577e-05
1.83506e-05
1.82559e-05
1.81464e-05
1.80496e-05
1.7946e-05
1.78574e-05
1.77643e-05
1.76882e-05
1.76091e-05
1.75424e-05
1.74693e-05
1.74043e-05
1.73323e-05
1.7268e-05
1.71988e-05
1.71345e-05
1.70639e-05
1.69989e-05
1.69306e-05
1.68713e-05
1.68065e-05
1.67503e-05
1.66891e-05
1.66367e-05
1.65763e-05
1.65289e-05
1.64686e-05
1.64226e-05
1.6364e-05
1.63185e-05
1.62576e-05
1.62134e-05
1.61562e-05
1.611e-05
1.60508e-05
1.59929e-05
1.59438e-05
1.58734e-05
1.58099e-05
1.57663e-05
1.99999e-05
1.98623e-05
1.95791e-05
1.93007e-05
1.90658e-05
1.89162e-05
1.88051e-05
1.87095e-05
1.85905e-05
1.84889e-05
1.8384e-05
1.82923e-05
1.81861e-05
1.80929e-05
1.7991e-05
1.7905e-05
1.78148e-05
1.77428e-05
1.7667e-05
1.76049e-05
1.75362e-05
1.7476e-05
1.7408e-05
1.73483e-05
1.72828e-05
1.72227e-05
1.71549e-05
1.7094e-05
1.7029e-05
1.69725e-05
1.69113e-05
1.68574e-05
1.6799e-05
1.67498e-05
1.66913e-05
1.66463e-05
1.65892e-05
1.65445e-05
1.64863e-05
1.64424e-05
1.63824e-05
1.63375e-05
1.62811e-05
1.62341e-05
1.61749e-05
1.61139e-05
1.6064e-05
1.59926e-05
1.59297e-05
1.58826e-05
1.99999e-05
1.98656e-05
1.95891e-05
1.93177e-05
1.90848e-05
1.89339e-05
1.88215e-05
1.87304e-05
1.86172e-05
1.85198e-05
1.84171e-05
1.83284e-05
1.82252e-05
1.81351e-05
1.80346e-05
1.7951e-05
1.78634e-05
1.77951e-05
1.77226e-05
1.76652e-05
1.76005e-05
1.75452e-05
1.74809e-05
1.74264e-05
1.7364e-05
1.73082e-05
1.72434e-05
1.7186e-05
1.71246e-05
1.70705e-05
1.70127e-05
1.69618e-05
1.69053e-05
1.6859e-05
1.68033e-05
1.67602e-05
1.67056e-05
1.66629e-05
1.66044e-05
1.65618e-05
1.6503e-05
1.64581e-05
1.64009e-05
1.6353e-05
1.62939e-05
1.62306e-05
1.61799e-05
1.61064e-05
1.60443e-05
1.59933e-05
1.99999e-05
1.98687e-05
1.95986e-05
1.93341e-05
1.91036e-05
1.89523e-05
1.88379e-05
1.87504e-05
1.8643e-05
1.85502e-05
1.84496e-05
1.83641e-05
1.82635e-05
1.8176e-05
1.80766e-05
1.79954e-05
1.79098e-05
1.78447e-05
1.77755e-05
1.77227e-05
1.76621e-05
1.76112e-05
1.75513e-05
1.75011e-05
1.74426e-05
1.73899e-05
1.73289e-05
1.72744e-05
1.72162e-05
1.71654e-05
1.71099e-05
1.70622e-05
1.7008e-05
1.69635e-05
1.69112e-05
1.68703e-05
1.6817e-05
1.67761e-05
1.67182e-05
1.66762e-05
1.66181e-05
1.65743e-05
1.65152e-05
1.64665e-05
1.64063e-05
1.63436e-05
1.62908e-05
1.62138e-05
1.61533e-05
1.60965e-05
1.99999e-05
1.98717e-05
1.96076e-05
1.93497e-05
1.91221e-05
1.8971e-05
1.88544e-05
1.87697e-05
1.86678e-05
1.85797e-05
1.84814e-05
1.83993e-05
1.83008e-05
1.82152e-05
1.81169e-05
1.80379e-05
1.79537e-05
1.78914e-05
1.78257e-05
1.77772e-05
1.77204e-05
1.76737e-05
1.76185e-05
1.75724e-05
1.75176e-05
1.74682e-05
1.74104e-05
1.73595e-05
1.73035e-05
1.72563e-05
1.72031e-05
1.71574e-05
1.71063e-05
1.70636e-05
1.70142e-05
1.69759e-05
1.69232e-05
1.68834e-05
1.68271e-05
1.6786e-05
1.67273e-05
1.66848e-05
1.66237e-05
1.65748e-05
1.65115e-05
1.64524e-05
1.6394e-05
1.63165e-05
1.6256e-05
1.6191e-05
1.99999e-05
1.98745e-05
1.9616e-05
1.93647e-05
1.91399e-05
1.89894e-05
1.8871e-05
1.87884e-05
1.86913e-05
1.86081e-05
1.85125e-05
1.84338e-05
1.83369e-05
1.82528e-05
1.81555e-05
1.80781e-05
1.79949e-05
1.79353e-05
1.78728e-05
1.78284e-05
1.77751e-05
1.7733e-05
1.7682e-05
1.76403e-05
1.75886e-05
1.75431e-05
1.74876e-05
1.74404e-05
1.73869e-05
1.73424e-05
1.7292e-05
1.72475e-05
1.71995e-05
1.71596e-05
1.71119e-05
1.70756e-05
1.70241e-05
1.69852e-05
1.69304e-05
1.68906e-05
1.68307e-05
1.67883e-05
1.67264e-05
1.66779e-05
1.66105e-05
1.65547e-05
1.64894e-05
1.64156e-05
1.63503e-05
1.62786e-05
1.99999e-05
1.98771e-05
1.96237e-05
1.93788e-05
1.91569e-05
1.90074e-05
1.88875e-05
1.88068e-05
1.87133e-05
1.86351e-05
1.85429e-05
1.84673e-05
1.83715e-05