/*--------------------------------*- C++ -*----------------------------------*\
  =========                 |
  \\      /  F ield         | OpenFOAM: The Open Source CFD Toolbox
   \\    /   O peration     | Website:  https://openfoam.org
    \\  /    A nd           | Version:  7
     \\/     M anipulation  |
\*---------------------------------------------------------------------------*/
FoamFile
{
    version     2.0;
    format      ascii;
    class       volScalarField;
    location    "0.42";
    object      p;
}
// * * * * * * * * * * * * * * * * * * * * * * * * * * * * * * * * * * * * * //

dimensions      [0 2 -2 0 0 0 0];

internalField   nonuniform List<scalar> 
70000
(
0.114677
0.0377854
0.0246357
0.0270827
0.0273367
0.0262809
0.0253099
0.0245653
0.0239383
0.0233791
0.0228738
0.0224144
0.0219934
0.0216038
0.0212402
0.0208977
0.0205725
0.0202614
0.0199613
0.01967
0.0193851
0.0191048
0.0188271
0.0185504
0.0182731
0.0179936
0.0177105
0.0174222
0.0171274
0.0168244
0.0165117
0.0161877
0.0158509
0.0154993
0.0151314
0.0147451
0.0143389
0.0139105
0.0134582
0.0129808
0.012475
0.0119443
0.0113784
0.0107976
0.0101667
0.00956044
0.00885818
0.00831845
0.00750587
0.00739026
0.110377
0.0381474
0.0248382
0.0271772
0.0273911
0.0263166
0.0253378
0.0245883
0.0239576
0.0233955
0.0228881
0.022427
0.0220046
0.021614
0.0212494
0.0209061
0.0205803
0.0202685
0.019968
0.0196762
0.0193909
0.0191102
0.0188322
0.0185552
0.0182776
0.0179979
0.0177145
0.0174261
0.017131
0.0168278
0.016515
0.0161908
0.0158538
0.015502
0.0151339
0.0147474
0.014341
0.0139124
0.0134599
0.0129823
0.0124763
0.0119453
0.0113791
0.0107979
0.0101668
0.00956007
0.00885748
0.00831605
0.00751007
0.0074136
0.106771
0.0390699
0.0251829
0.0273059
0.0274658
0.0263616
0.0253701
0.0246145
0.0239794
0.023414
0.022904
0.022441
0.022017
0.0216251
0.0212595
0.0209153
0.0205887
0.0202763
0.0199752
0.019683
0.0193972
0.0191161
0.0188378
0.0185604
0.0182826
0.0180026
0.017719
0.0174303
0.0171351
0.0168317
0.0165186
0.0161943
0.0158571
0.0155052
0.0151369
0.0147503
0.0143437
0.0139149
0.0134622
0.0129845
0.0124782
0.0119469
0.0113804
0.010799
0.010167
0.00956023
0.00885686
0.00831261
0.00752843
0.00741302
0.103667
0.0401691
0.0256594
0.0274786
0.0275671
0.0264196
0.0254084
0.0246445
0.0240041
0.0234346
0.0229215
0.0224562
0.0220304
0.0216371
0.0212702
0.0209251
0.0205977
0.0202846
0.0199829
0.0196901
0.0194039
0.0191224
0.0188437
0.018566
0.0182879
0.0180076
0.0177238
0.0174349
0.0171395
0.0168359
0.0165227
0.0161982
0.0158609
0.0155089
0.0151405
0.0147538
0.014347
0.0139182
0.0134654
0.0129874
0.012481
0.0119496
0.0113828
0.0108011
0.0101688
0.00956085
0.00885789
0.00830729
0.007556
0.00738523
0.100711
0.0412631
0.0262331
0.027697
0.0277018
0.0264982
0.0254576
0.0246816
0.0240342
0.0234593
0.0229422
0.0224739
0.0220459
0.0216508
0.0212825
0.0209362
0.0206078
0.0202939
0.0199915
0.0196981
0.0194114
0.0191294
0.0188503
0.0185723
0.0182938
0.0180133
0.0177293
0.0174402
0.0171446
0.0168408
0.0165275
0.0162029
0.0158655
0.0155134
0.015145
0.0147582
0.0143514
0.0139225
0.0134697
0.0129918
0.0124853
0.0119538
0.0113869
0.0108048
0.0101723
0.00956273
0.00886116
0.00830055
0.00758594
0.00733771
0.0978036
0.0422954
0.0268573
0.0279417
0.0278642
0.026599
0.0255204
0.0247282
0.0240718
0.0234901
0.0229678
0.0224956
0.0220647
0.0216673
0.0212972
0.0209494
0.0206198
0.0203048
0.0200016
0.0197074
0.0194201
0.0191376
0.018858
0.0185796
0.0183008
0.01802
0.0177357
0.0174464
0.0171506
0.0168467
0.0165333
0.0162086
0.0158712
0.015519
0.0151506
0.0147639
0.0143572
0.0139284
0.0134757
0.0129979
0.0124916
0.0119602
0.0113934
0.010811
0.0101786
0.00956662
0.00886759
0.00829355
0.00761322
0.00727284
0.0949384
0.0432489
0.0274985
0.0281915
0.0280409
0.0267172
0.0255958
0.0247842
0.0241173
0.0235275
0.0229989
0.022522
0.0220874
0.0216872
0.0213149
0.0209653
0.0206341
0.0203179
0.0200136
0.0197186
0.0194305
0.0191473
0.0188672
0.0185883
0.0183091
0.018028
0.0177434
0.0174539
0.0171579
0.016854
0.0165405
0.0162158
0.0158783
0.0155263
0.015158
0.0147714
0.0143649
0.0139364
0.013484
0.0130066
0.0125006
0.0119695
0.011403
0.0108204
0.0101884
0.00957351
0.00887795
0.0082872
0.00763411
0.0071919
0.0921242
0.044117
0.0281406
0.0284347
0.028221
0.0268463
0.0256802
0.0248474
0.0241694
0.023571
0.0230353
0.0225531
0.0221144
0.0217109
0.021336
0.0209842
0.0206513
0.0203336
0.020028
0.0197319
0.0194429
0.019159
0.0188782
0.0185988
0.0183191
0.0180377
0.0177528
0.017463
0.0171669
0.0168628
0.0165493
0.0162247
0.0158873
0.0155354
0.0151674
0.0147811
0.014375
0.013947
0.0134951
0.0130183
0.012513
0.0119825
0.0114167
0.010834
0.010203
0.00958446
0.00889299
0.00828363
0.00764607
0.00709713
0.0893675
0.0448973
0.028778
0.0286673
0.0283983
0.0269813
0.0257704
0.0249153
0.0242261
0.023619
0.0230761
0.0225881
0.0221451
0.0217381
0.0213603
0.0210061
0.0206712
0.0203518
0.0200448
0.0197475
0.0194575
0.0191727
0.0188912
0.0186112
0.0183311
0.0180492
0.017764
0.017474
0.0171777
0.0168736
0.0165601
0.0162356
0.0158984
0.0155468
0.0151792
0.0147934
0.0143879
0.0139606
0.0135095
0.0130336
0.0125293
0.0119997
0.011435
0.0108525
0.010223
0.0096005
0.00891326
0.00828375
0.00764801
0.00699132
0.0866717
0.0455891
0.0294095
0.0288893
0.0285699
0.0271194
0.0258643
0.0249859
0.0242856
0.02367
0.0231199
0.0226262
0.0221787
0.0217681
0.0213873
0.0210306
0.0206936
0.0203725
0.020064
0.0197654
0.0194743
0.0191886
0.0189063
0.0186256
0.0183449
0.0180626
0.0177771
0.0174869
0.0171906
0.0168864
0.016573
0.0162487
0.0159118
0.0155607
0.0151936
0.0148085
0.0144038
0.0139776
0.0135276
0.013053
0.0125499
0.0120218
0.0114587
0.0108767
0.0102492
0.00962254
0.00893909
0.00828862
0.00764055
0.00687964
0.0840401
0.0461924
0.030034
0.0291016
0.0287343
0.0272592
0.0259608
0.0250582
0.0243466
0.0237228
0.0231656
0.0226663
0.0222143
0.0218001
0.0214163
0.0210572
0.0207181
0.0203951
0.0200851
0.0197852
0.019493
0.0192063
0.0189232
0.0186419
0.0183607
0.018078
0.0177922
0.0175018
0.0172054
0.0169013
0.016588
0.016264
0.0159276
0.0155771
0.0152107
0.0148266
0.0144229
0.013998
0.0135494
0.0130765
0.0125753
0.0120489
0.011488
0.0109068
0.0102819
0.0096512
0.00897058
0.00829897
0.00762605
0.00676643
0.0814756
0.046708
0.0306499
0.0293055
0.0288908
0.0273996
0.0260596
0.0251316
0.0244086
0.0237768
0.0232127
0.0227077
0.0222512
0.0218335
0.0214468
0.0210852
0.020744
0.0204193
0.0201078
0.0198066
0.0195133
0.0192257
0.0189418
0.0186598
0.0183781
0.018095
0.017809
0.0175185
0.017222
0.0169181
0.0166051
0.0162815
0.0159457
0.0155959
0.0152304
0.0148475
0.0144452
0.0140218
0.013575
0.0131042
0.0126052
0.0120811
0.011523
0.0109429
0.0103211
0.00968677
0.00900761
0.00831527
0.00760771
0.00665669
0.0789812
0.0471363
0.0312549
0.0295023
0.0290386
0.02754
0.0261605
0.0252059
0.0244713
0.0238317
0.0232606
0.02275
0.0222892
0.0218679
0.0214783
0.0211143
0.0207711
0.0204446
0.0201316
0.0198291
0.0195347
0.0192462
0.0189616
0.0186791
0.0183969
0.0181134
0.0178272
0.0175367
0.0172403
0.0169366
0.016624
0.0163009
0.0159658
0.0156169
0.0152526
0.014871
0.0144703
0.0140488
0.0136042
0.0131358
0.0126396
0.0121181
0.0115632
0.0109849
0.0103665
0.00972912
0.0090499
0.00833772
0.00758912
0.00655576
0.0765592
0.0474783
0.0318465
0.0296934
0.0291772
0.0276794
0.0262634
0.0252813
0.0245345
0.0238872
0.0233094
0.0227931
0.0223279
0.0219031
0.0215106
0.0211442
0.0207989
0.0204707
0.0201563
0.0198526
0.0195572
0.0192678
0.0189825
0.0186993
0.0184167
0.018133
0.0178467
0.0175561
0.0172599
0.0169565
0.0166444
0.016322
0.0159877
0.0156399
0.0152769
0.0148969
0.0144981
0.0140788
0.0136366
0.013171
0.0126779
0.0121596
0.0116084
0.0110323
0.0104175
0.00977786
0.00909711
0.00836631
0.00757389
0.00646872
0.0742121
0.0477354
0.0324213
0.0298805
0.0293064
0.027817
0.0263682
0.0253576
0.0245981
0.0239434
0.0233589
0.0228369
0.0223672
0.021939
0.0215436
0.0211748
0.0208275
0.0204976
0.0201817
0.0198767
0.0195803
0.0192901
0.0190041
0.0187205
0.0184375
0.0181536
0.0178671
0.0175766
0.0172806
0.0169776
0.0166661
0.0163445
0.0160112
0.0156646
0.0153031
0.0149249
0.0145281
0.0141113
0.0136719
0.0132093
0.0127198
0.0122049
0.011658
0.0110845
0.0104736
0.00983239
0.00914894
0.008401
0.00756531
0.00639986
0.0719419
0.0479094
0.0329764
0.030065
0.029426
0.0279516
0.0264746
0.025435
0.0246621
0.0240001
0.023409
0.0228814
0.0224072
0.0219754
0.0215772
0.0212059
0.0208566
0.020525
0.0202077
0.0199016
0.0196041
0.0193131
0.0190264
0.0187423
0.018459
0.0181749
0.0178884
0.0175981
0.0173024
0.0169998
0.016689
0.0163682
0.016036
0.0156908
0.0153309
0.0149547
0.0145602
0.014146
0.0137096
0.0132504
0.0127648
0.0122537
0.0117113
0.0111409
0.010534
0.0098921
0.00920518
0.00844181
0.00756611
0.00635241
0.0697502
0.0480024
0.0335084
0.0302483
0.0295359
0.0280824
0.0265824
0.0255134
0.0247265
0.0240572
0.0234598
0.0229265
0.0224479
0.0220125
0.0216114
0.0212377
0.0208864
0.0205531
0.0202343
0.019927
0.0196285
0.0193367
0.0190494
0.0187648
0.0184812
0.0181969
0.0179105
0.0176203
0.017325
0.017023
0.0167128
0.0163931
0.0160621
0.0157184
0.0153602
0.0149861
0.014594
0.0141827
0.0137496
0.013294
0.0128125
0.0123055
0.0117679
0.0112012
0.0105983
0.0099565
0.00926581
0.00848896
0.00757845
0.0063286
0.0676381
0.0480172
0.0340144
0.0304314
0.0296365
0.0282083
0.0266911
0.0255929
0.0247911
0.0241147
0.0235112
0.0229723
0.0224891
0.0220502
0.0216461
0.0212701
0.0209167
0.0205817
0.0202615
0.019953
0.0196536
0.019361
0.0190731
0.018788
0.0185041
0.0182197
0.0179333
0.0176434
0.0173484
0.017047
0.0167377
0.016419
0.0160893
0.0157472
0.0153909
0.015019
0.0146296
0.0142212
0.0137917
0.0133399
0.0128628
0.0123602
0.0118277
0.0112651
0.0106662
0.0100253
0.009331
0.00854285
0.00760395
0.00632987
0.0656065
0.0479569
0.0344912
0.030615
0.029728
0.0283284
0.0268002
0.0256734
0.024856
0.0241725
0.0235631
0.0230187
0.0225309
0.0220884
0.0216815
0.021303
0.0209476
0.0206109
0.0202893
0.0199796
0.0196792
0.0193858
0.0190973
0.0188118
0.0185277
0.0182432
0.0179569
0.0176672
0.0173727
0.017072
0.0167635
0.0164459
0.0161177
0.0157772
0.015423
0.0150535
0.0146668
0.0142616
0.0138357
0.013388
0.0129155
0.0124176
0.0118904
0.0113323
0.0107377
0.0100983
0.00940112
0.00860408
0.00764382
0.0063573
0.0636557
0.0478252
0.034936
0.0307997
0.0298111
0.0284416
0.0269093
0.025755
0.0249211
0.0242304
0.0236155
0.0230657
0.0225734
0.0221273
0.0217174
0.0213366
0.0209791
0.0206407
0.0203176
0.0200068
0.0197055
0.0194113
0.0191222
0.0188363
0.018552
0.0182674
0.0179812
0.0176918
0.0173979
0.0170978
0.0167904
0.016474
0.0161472
0.0158085
0.0154564
0.0150894
0.0147057
0.0143038
0.0138818
0.0134383
0.0129707
0.0124777
0.011956
0.0114028
0.0108127
0.0101757
0.00947664
0.00867334
0.0076991
0.00641084
0.0617856
0.0476263
0.0353459
0.0309855
0.0298865
0.0285474
0.0270176
0.0258376
0.0249863
0.0242885
0.0236683
0.0231132
0.0226164
0.0221667
0.021754
0.0213707
0.0210112
0.0206711
0.0203466
0.0200346
0.0197323
0.0194374
0.0191478
0.0188615
0.0185769
0.0182924
0.0180063
0.0177173
0.0174239
0.0171247
0.0168182
0.0165031
0.0161779
0.0158411
0.0154913
0.0151269
0.0147462
0.0143479
0.0139299
0.0134908
0.0130283
0.0125406
0.0120246
0.0114768
0.0108915
0.0102577
0.00955813
0.00875146
0.00777044
0.0064896
0.0599957
0.0473648
0.0357184
0.031172
0.0299549
0.0286449
0.0271245
0.025921
0.0250518
0.0243465
0.0237214
0.0231613
0.0226599
0.0222067
0.0217911
0.0214054
0.0210439
0.0207021
0.0203762
0.0200631
0.0197599
0.0194642
0.019174
0.0188874
0.0186027
0.0183181
0.0180323
0.0177437
0.0174509
0.0171525
0.0168471
0.0165334
0.0162098
0.0158751
0.0155276
0.015166
0.0147886
0.0143939
0.0139801
0.0135457
0.0130885
0.0126064
0.0120963
0.0115544
0.0109744
0.0103446
0.00964619
0.00883929
0.00785818
0.00659496
0.0582851
0.0470456
0.0360511
0.0313586
0.0300174
0.0287338
0.0272291
0.0260051
0.0251175
0.0244044
0.0237747
0.0232098
0.022704
0.0222472
0.0218287
0.0214407
0.0210772
0.0207338
0.0204065
0.0200922
0.019788
0.0194917
0.019201
0.0189141
0.0186292
0.0183447
0.0180591
0.0177709
0.0174788
0.0171813
0.0168771
0.0165649
0.0162431
0.0159105
0.0155655
0.0152068
0.0148327
0.0144419
0.0140326
0.0136031
0.0131513
0.0126751
0.0121714
0.0116357
0.0110616
0.0104368
0.00974143
0.00893759
0.00796264
0.00672395
0.0566527
0.0466738
0.0363419
0.0315442
0.030075
0.0288136
0.0273305
0.0260897
0.0251833
0.0244622
0.0238281
0.0232587
0.0227485
0.0222882
0.0218669
0.0214765
0.0211111
0.020766
0.0204374
0.0201219
0.0198169
0.0195198
0.0192287
0.0189415
0.0186564
0.0183721
0.0180868
0.0177991
0.0175077
0.0172113
0.0169083
0.0165976
0.0162777
0.0159473
0.015605
0.0152493
0.0148788
0.0144921
0.0140873
0.013663
0.013217
0.012747
0.0122499
0.011721
0.0111534
0.0105347
0.00984445
0.00904703
0.00808413
0.0068773
0.0550966
0.0462551
0.0365892
0.0317273
0.0301287
0.0288844
0.027428
0.0261744
0.0252494
0.0245197
0.0238816
0.023308
0.0227936
0.0223297
0.0219056
0.021513
0.0211456
0.0207989
0.0204689
0.0201523
0.0198464
0.0195487
0.0192571
0.0189696
0.0186845
0.0184003
0.0181153
0.0178283
0.0175377
0.0172423
0.0169407
0.0166316
0.0163137
0.0159857
0.0156461
0.0152937
0.0149269
0.0145444
0.0141445
0.0137256
0.0132856
0.0128222
0.0123321
0.0118105
0.0112502
0.0106389
0.00995582
0.00916813
0.00822292
0.00705444
0.0536151
0.0457949
0.0367918
0.0319061
0.0301794
0.0289462
0.0275206
0.0262588
0.0253156
0.0245768
0.0239349
0.0233575
0.022839
0.0223717
0.0219448
0.0215499
0.0211807
0.0208323
0.020501
0.0201834
0.0198767
0.0195783
0.0192863
0.0189986
0.0187135
0.0184294
0.0181449
0.0178585
0.0175688
0.0172745
0.0169743
0.016667
0.0163512
0.0160256
0.015689
0.01534
0.0149771
0.0145991
0.0142042
0.013791
0.0133574
0.0129009
0.0124182
0.0119046
0.0113524
0.0107496
0.010076
0.00930139
0.00837894
0.00725448
0.0522059
0.045299
0.0369489
0.0320783
0.0302282
0.0289992
0.0276075
0.0263425
0.025382
0.0246337
0.023988
0.0234072
0.0228849
0.0224141
0.0219846
0.0215874
0.0212163
0.0208664
0.0205338
0.0202152
0.0199076
0.0196087
0.0193162
0.0190284
0.0187433
0.0184595
0.0181754
0.0178897
0.0176009
0.0173079
0.0170093
0.0167038
0.0163902
0.0160673
0.0157337
0.0153882
0.0150295
0.0146561
0.0142666
0.0138593
0.0134323
0.0129831
0.0125084
0.0120033
0.0114602
0.0108673
0.0102056
0.00944729
0.00855209
0.00747639
0.0508664
0.0447731
0.0370602
0.0322416
0.0302757
0.0290441
0.0276879
0.0264247
0.0254484
0.0246901
0.0240407
0.0234569
0.022931
0.0224569
0.0220247
0.0216255
0.0212525
0.0209011
0.0205673
0.0202476
0.0199393
0.0196398
0.019347
0.019059
0.018774
0.0184905
0.018207
0.017922
0.0176343
0.0173426
0.0170456
0.0167421
0.0164308
0.0161107
0.0157803
0.0154386
0.0150841
0.0147156
0.0143317
0.0139307
0.0135106
0.0130692
0.0126029
0.012107
0.011574
0.0109925
0.0103447
0.0096062
0.00874223
0.00771922
0.0495941
0.0442228
0.037126
0.0323934
0.0303224
0.0290813
0.0277613
0.026505
0.0255148
0.0247462
0.024093
0.0235066
0.0229775
0.0225001
0.0220653
0.021664
0.0212893
0.0209364
0.0206014
0.0202807
0.0199717
0.0196717
0.0193786
0.0190905
0.0188057
0.0185225
0.0182395
0.0179554
0.0176688
0.0173785
0.0170833
0.0167819
0.0164731
0.0161559
0.0158289
0.0154911
0.0151411
0.0147778
0.0143997
0.0140052
0.0135925
0.0131592
0.0127019
0.0122159
0.011694
0.0111254
0.0104939
0.00977802
0.00894908
0.00798192
0.048386
0.0436534
0.0371471
0.032531
0.0303687
0.0291116
0.0278272
0.0265826
0.0255809
0.0248018
0.0241448
0.0235562
0.0230241
0.0225437
0.0221063
0.021703
0.0213266
0.0209723
0.0206361
0.0203146
0.0200048
0.0197044
0.019411
0.0191229
0.0188383
0.0185555
0.0182732
0.01799
0.0177047
0.0174159
0.0171224
0.0168233
0.0165171
0.0162029
0.0158796
0.0155458
0.0152006
0.0148426
0.0144706
0.014083
0.013678
0.0132533
0.0128056
0.0123303
0.0118206
0.0112665
0.0106533
0.00996291
0.00917218
0.00826338
0.0472392
0.04307
0.0371248
0.0326521
0.0304144
0.0291358
0.0278852
0.0266569
0.0256464
0.024857
0.0241959
0.0236054
0.0230708
0.0225875
0.0221477
0.0217424
0.0213645
0.0210088
0.0206715
0.0203491
0.0200387
0.0197379
0.0194443
0.0191562
0.0188718
0.0185896
0.018308
0.0180259
0.0177418
0.0174546
0.0171631
0.0168663
0.0165629
0.016252
0.0159323
0.0156029
0.0152627
0.0149103
0.0145447
0.0141643
0.0137674
0.0133517
0.0129142
0.0124504
0.011954
0.0114159
0.0108232
0.0101608
0.00941101
0.00856248
0.0461507
0.0424771
0.037061
0.0327547
0.030459
0.0291547
0.0279351
0.026727
0.025711
0.0249117
0.0242463
0.0236542
0.0231175
0.0226316
0.0221894
0.0217822
0.0214028
0.0210459
0.0207076
0.0203843
0.0200734
0.0197722
0.0194785
0.0191905
0.0189064
0.0186247
0.018344
0.0180629
0.0177803
0.0174948
0.0172054
0.0169111
0.0166106
0.016303
0.0159873
0.0156625
0.0153273
0.0149809
0.0146219
0.0142491
0.0138607
0.0134546
0.0130279
0.0125765
0.0120944
0.0115738
0.0110038
0.0103716
0.00966503
0.00887806
0.0451174
0.0418789
0.036958
0.0328367
0.0305016
0.0291691
0.0279771
0.0267923
0.0257744
0.0249658
0.0242959
0.0237025
0.0231641
0.0226758
0.0222314
0.0218225
0.0214416
0.0210836
0.0207442
0.0204203
0.0201088
0.0198073
0.0195136
0.0192257
0.018942
0.018661
0.0183812
0.0181013
0.0178201
0.0175365
0.0172493
0.0169576
0.0166602
0.0163562
0.0160446
0.0157245
0.0153948
0.0150545
0.0147025
0.0143376
0.0139581
0.0135621
0.0131469
0.0127086
0.0122421
0.0117405
0.0111948
0.0105951
0.00993355
0.00920893
0.0441362
0.0412793
0.0368186
0.0328966
0.0305412
0.0291796
0.0280113
0.0268522
0.0258359
0.0250192
0.0243448
0.0237501
0.0232104
0.0227202
0.0222737
0.0218631
0.0214809
0.0211217
0.0207815
0.0204569
0.020145
0.0198433
0.0195495
0.0192619
0.0189787
0.0186984
0.0184196
0.018141
0.0178614
0.0175798
0.0172949
0.017006
0.0167118
0.0164116
0.0161043
0.0157891
0.0154651
0.0151312
0.0147866
0.0144299
0.0140598
0.0136744
0.0132713
0.0128471
0.0123972
0.0119159
0.0113962
0.010831
0.0102158
0.00955386
0.0432042
0.0406814
0.0366457
0.0329334
0.0305765
0.0291866
0.0280381
0.0269061
0.0258952
0.0250718
0.0243927
0.0237969
0.0232564
0.0227645
0.0223161
0.021904
0.0215206
0.0211605
0.0208195
0.0204942
0.020182
0.0198801
0.0195864
0.0192991
0.0190165
0.018737
0.0184592
0.0181821
0.0179042
0.0176246
0.0173423
0.0170562
0.0167655
0.0164692
0.0161664
0.0158564
0.0155383
0.0152112
0.0148741
0.0145261
0.0141658
0.0137916
0.0134013
0.012992
0.0125598
0.0121002
0.011608
0.0110786
0.010511
0.00991159
0.0423184
0.040088
0.0364427
0.0329461
0.0306058
0.0291905
0.0280578
0.0269537
0.0259515
0.0251234
0.0244397
0.0238428
0.0233019
0.0228087
0.0223587
0.0219451
0.0215606
0.0211997
0.020858
0.0205323
0.0202197
0.0199177
0.0196243
0.0193373
0.0190553
0.0187767
0.0185002
0.0182245
0.0179485
0.0176712
0.0173915
0.0171084
0.0168213
0.0165291
0.0162311
0.0159265
0.0156145
0.0152944
0.0149653
0.0146263
0.0142763
0.0139138
0.0135369
0.0131434
0.01273
0.0122933
0.0118299
0.0113376
0.0108183
0.0102808
0.0414759
0.0395016
0.036213
0.0329345
0.0306278
0.0291915
0.028071
0.0269947
0.0260045
0.0251736
0.0244857
0.0238878
0.0233468
0.0228528
0.0224014
0.0219865
0.0216011
0.0212393
0.0208971
0.020571
0.0202582
0.0199563
0.019663
0.0193766
0.0190953
0.0188178
0.0185425
0.0182685
0.0179944
0.0177194
0.0174425
0.0171627
0.0168793
0.0165914
0.0162983
0.0159994
0.0156939
0.0153811
0.0150603
0.0147307
0.0143914
0.0140411
0.0136784
0.0133014
0.0129078
0.0124951
0.0120616
0.0116073
0.0111365
0.0106602
0.040674
0.038924
0.0359599
0.0328987
0.0306408
0.0291895
0.0280783
0.0270289
0.0260535
0.0252222
0.0245307
0.0239317
0.0233909
0.0228965
0.0224441
0.022028
0.0216418
0.0212794
0.0209367
0.0206103
0.0202975
0.0199957
0.0197028
0.0194169
0.0191365
0.01886
0.0185862
0.0183139
0.0180419
0.0177694
0.0174954
0.017219
0.0169395
0.0166561
0.0163683
0.0160752
0.0157764
0.0154712
0.0151591
0.0148393
0.0145111
0.0141737
0.0138257
0.013466
0.013093
0.0127054
0.0123028
0.0118872
0.0114648
0.0110484
0.0399102
0.0383568
0.0356868
0.0328391
0.0306434
0.0291841
0.02808
0.0270563
0.026098
0.0252688
0.0245744
0.0239744
0.0234342
0.0229398
0.0224866
0.0220697
0.0216827
0.0213199
0.0209769
0.0206504
0.0203375
0.0200359
0.0197435
0.0194583
0.0191788
0.0189036
0.0186313
0.0183608
0.0180911
0.0178212
0.0175503
0.0172775
0.0170021
0.0167234
0.0164409
0.016154
0.0158622
0.0155649
0.0152617
0.0149522
0.0146356
0.0143115
0.0139789
0.0136372
0.0132856
0.0129238
0.0125529
0.0121763
0.0118021
0.0114441
0.039182
0.0378013
0.035397
0.0327565
0.0306344
0.0291748
0.0280767
0.027077
0.0261376
0.025313
0.0246168
0.024016
0.0234765
0.0229825
0.022529
0.0221114
0.0217239
0.0213608
0.0210176
0.020691
0.0203783
0.020077
0.0197851
0.0195008
0.0192223
0.0189484
0.0186778
0.0184093
0.018142
0.0178749
0.0176072
0.0173381
0.017067
0.0167933
0.0165164
0.0162358
0.0159512
0.0156622
0.0153684
0.0150694
0.0147649
0.0144545
0.014138
0.0138149
0.0134854
0.0131502
0.0128114
0.012474
0.0121472
0.0118458
0.0384872
0.0372582
0.0350934
0.0326521
0.0306127
0.0291611
0.0280687
0.0270912
0.026172
0.0253544
0.0246577
0.0240563
0.0235176
0.0230245
0.0225711
0.0221531
0.0217653
0.0214019
0.0210587
0.0207323
0.0204198
0.020119
0.0198278
0.0195443
0.0192671
0.0189946
0.0187258
0.0184594
0.0181946
0.0179304
0.0176661
0.017401
0.0171343
0.0168658
0.0165947
0.0163208
0.0160437
0.0157632
0.015479
0.0151909
0.0148989
0.0146029
0.0143028
0.013999
0.0136921
0.013384
0.0130777
0.0127792
0.012499
0.0122521
0.0378237
0.0367282
0.0347788
0.0325273
0.0305776
0.0291421
0.0280561
0.0270991
0.0262008
0.0253925
0.0246968
0.0240952
0.0235576
0.0230658
0.0226128
0.0221947
0.0218067
0.0214434
0.0211003
0.0207741
0.020462
0.0201618
0.0198714
0.019589
0.019313
0.0190422
0.0187752
0.0185111
0.018249
0.0179879
0.0177271
0.0174661
0.0172042
0.0169409
0.0166759
0.0164089
0.0161396
0.0158678
0.0155936
0.0153169
0.0150378
0.0147564
0.0144734
0.0141893
0.0139056
0.0136247
0.013351
0.0130911
0.0128562
0.0126616
0.0371894
0.0362116
0.0344558
0.0323837
0.0305287
0.0291171
0.0280391
0.0271011
0.0262239
0.025427
0.0247338
0.0241326
0.0235963
0.023106
0.0226539
0.0222361
0.0218482
0.0214851
0.0211423
0.0208165
0.020505
0.0202055
0.019916
0.0196347
0.0193602
0.0190911
0.0188262
0.0185645
0.0183052
0.0180473
0.0177903
0.0175335
0.0172765
0.0170188
0.0167601
0.0165002
0.0162389
0.0159763
0.0157123
0.0154472
0.0151814
0.0149152
0.0146495
0.0143856
0.0141254
0.013872
0.0136306
0.0134086
0.0132176
0.0130728
0.0365825
0.0357088
0.0341267
0.032223
0.0304657
0.0290853
0.0280176
0.0270974
0.0262413
0.0254575
0.0247685
0.0241684
0.0236337
0.0231452
0.0226944
0.0222773
0.0218897
0.0215269
0.0211846
0.0208594
0.0205486
0.0202499
0.0199615
0.0196815
0.0194086
0.0191413
0.0188787
0.0186195
0.0183631
0.0181087
0.0178556
0.0176033
0.0173513
0.0170994
0.0168472
0.0165946
0.0163417
0.0160884
0.015835
0.0155819
0.0153296
0.0150789
0.014831
0.0145875
0.014351
0.0141251
0.0139157
0.0137308
0.013582
0.0134844
0.0360015
0.0352197
0.0337934
0.0320469
0.0303888
0.029046
0.0279914
0.0270883
0.0262529
0.0254836
0.0248006
0.0242025
0.0236695
0.0231833
0.0227342
0.022318
0.021931
0.0215688
0.0212272
0.0209028
0.0205928
0.0202952
0.020008
0.0197295
0.0194582
0.019193
0.0189327
0.0186763
0.018423
0.0181721
0.0179231
0.0176755
0.0174288
0.0171828
0.0169373
0.0166923
0.0164479
0.0162042
0.0159617
0.0157208
0.0154824
0.0152475
0.0150175
0.0147947
0.0145819
0.0143834
0.0142055
0.0140565
0.013948
0.0138948
0.0354445
0.0347443
0.0334578
0.0318574
0.0302983
0.0289986
0.0279604
0.027074
0.0262589
0.0255051
0.0248297
0.0242346
0.0237038
0.02322
0.0227731
0.0223583
0.0219722
0.0216108
0.0212701
0.0209466
0.0206377
0.0203412
0.0200554
0.0197785
0.0195091
0.019246
0.0189882
0.0187347
0.0184847
0.0182376
0.0179928
0.01775
0.0175088
0.0172689
0.0170304
0.0167932
0.0165575
0.0163238
0.0160923
0.015864
0.0156396
0.0154207
0.0152089
0.0150068
0.0148177
0.0146462
0.014499
0.0143845
0.0143144
0.0143027
0.0349104
0.0342824
0.0331213
0.0316561
0.0301947
0.0289426
0.0279242
0.0270546
0.0262593
0.0255219
0.0248556
0.0242645
0.0237365
0.0232554
0.0228109
0.0223979
0.0220131
0.0216528
0.0213131
0.0209908
0.0206831
0.020388
0.0201037
0.0198286
0.0195612
0.0193005
0.0190453
0.0187948
0.0185482
0.0183051
0.0180647
0.0178269
0.0175913
0.0173578
0.0171264
0.0168973
0.0166706
0.0164469
0.0162268
0.0160111
0.0158011
0.0155983
0.0154048
0.0152233
0.0150577
0.0149127
0.0147953
0.0147139
0.0146799
0.0147067
0.0343977
0.0338339
0.0327853
0.0314448
0.0300786
0.0288778
0.0278824
0.0270302
0.0262542
0.0255338
0.0248779
0.024292
0.0237673
0.0232893
0.0228477
0.0224369
0.0220537
0.0216947
0.0213563
0.0210353
0.0207291
0.0204356
0.020153
0.0198797
0.0196146
0.0193563
0.0191039
0.0188566
0.0186137
0.0183746
0.0181389
0.0179062
0.0176765
0.0174495
0.0172255
0.0170045
0.016787
0.0165735
0.0163649
0.0161621
0.0159666
0.01578
0.0156047
0.0154438
0.0153013
0.0151821
0.0150934
0.0150434
0.0150433
0.0151055
0.0339051
0.0333984
0.0324508
0.0312251
0.029951
0.0288039
0.0278348
0.0270008
0.0262439
0.0255408
0.0248965
0.024317
0.0237962
0.0233217
0.0228832
0.022475
0.0220938
0.0217364
0.0213996
0.0210802
0.0207756
0.0204838
0.0202031
0.0199319
0.0196691
0.0194134
0.019164
0.0189201
0.018681
0.0184461
0.0182152
0.0179879
0.0177642
0.0175439
0.0173274
0.0171148
0.0169066
0.0167036
0.0165066
0.0163168
0.0161358
0.0159654
0.0158083
0.0156676
0.0155477
0.0154535
0.0153922
0.0153719
0.0154032
0.0154977
0.0334316
0.0329758
0.0321188
0.0309985
0.0298127
0.0287209
0.0277811
0.0269665
0.0262284
0.0255427
0.0249111
0.0243391
0.023823
0.0233524
0.0229174
0.0225121
0.0221333
0.0217779
0.0214428
0.0211252
0.0208225
0.0205326
0.020254
0.0199851
0.0197248
0.019472
0.0192257
0.0189853
0.0187501
0.0185197
0.0182937
0.0180719
0.0178544
0.017641
0.0174321
0.0172281
0.0170294
0.016837
0.0166517
0.016475
0.0163085
0.0161542
0.0160151
0.0158943
0.0157962
0.0157261
0.0156908
0.0156982
0.0157584
0.0158821
0.0329762
0.0325656
0.0317902
0.0307664
0.0296647
0.0286291
0.0277211
0.0269271
0.0262079
0.0255398
0.0249216
0.0243582
0.0238476
0.0233812
0.0229501
0.0225482
0.0221721
0.021819
0.021486
0.0211704
0.0208697
0.020582
0.0203057
0.0200393
0.0197817
0.0195318
0.0192888
0.0190521
0.018821
0.0185952
0.0183743
0.0181583
0.017947
0.0177407
0.0175396
0.0173443
0.0171552
0.0169734
0.0168
0.0166363
0.0164842
0.016346
0.0162244
0.016123
0.016046
0.0159989
0.0159881
0.0160213
0.0161078
0.0162576
0.0325377
0.0321677
0.0314654
0.03053
0.0295081
0.0285288
0.0276546
0.0268826
0.0261824
0.0255319
0.0249279
0.0243741
0.0238697
0.0234082
0.0229813
0.0225832
0.0222102
0.0218597
0.0215291
0.0212157
0.0209173
0.020632
0.0203581
0.0200944
0.0198396
0.0195929
0.0193534
0.0191206
0.0188938
0.0186727
0.0184571
0.0182469
0.0180421
0.0178429
0.0176498
0.0174632
0.0172838
0.0171127
0.0169511
0.0168004
0.0166627
0.0165401
0.0164358
0.0163531
0.0162964
0.016271
0.0162831
0.01634
0.0164502
0.0166229
0.0321155
0.0317815
0.0311452
0.0302906
0.0293439
0.0284203
0.0275815
0.026833
0.026152
0.0255193
0.0249299
0.0243865
0.0238893
0.0234332
0.0230109
0.0226169
0.0222473
0.0218998
0.0215719
0.0212611
0.0209652
0.0206824
0.0204112
0.0201503
0.0198986
0.0196553
0.0194195
0.0191906
0.0189682
0.018752
0.0185418
0.0183376
0.0181394
0.0179476
0.0177625
0.0175847
0.0174151
0.0172547
0.0171048
0.0169671
0.0168434
0.0167363
0.0166486
0.0165839
0.0165465
0.0165415
0.0165748
0.0166532
0.0167846
0.0169772
0.0317086
0.0314069
0.0308299
0.030049
0.029173
0.0283041
0.0275019
0.026778
0.0261169
0.0255019
0.0249275
0.0243954
0.0239062
0.023456
0.0230388
0.0226492
0.0222835
0.0219393
0.0216143
0.0213063
0.0210132
0.0207333
0.020465
0.0202071
0.0199587
0.0197188
0.0194868
0.0192621
0.0190444
0.0188332
0.0186286
0.0184305
0.018239
0.0180545
0.0178775
0.0177087
0.0175488
0.0173991
0.0172609
0.0171358
0.017026
0.0169338
0.0168622
0.0168147
0.0167955
0.0168095
0.0168622
0.01696
0.0171099
0.0173194
0.0313162
0.0310435
0.0305199
0.0298064
0.0289965
0.0281809
0.027416
0.0267178
0.0260769
0.0254799
0.0249209
0.0244007
0.0239201
0.0234766
0.0230648
0.02268
0.0223186
0.0219781
0.0216564
0.0213515
0.0210614
0.0207844
0.0205192
0.0202646
0.0200196
0.0197835
0.0195555
0.0193351
0.0191221
0.0189161
0.0187172
0.0185253
0.0183406
0.0181636
0.0179948
0.0178349
0.0176847
0.0175456
0.0174189
0.0173063
0.0172098
0.0171321
0.0170759
0.0170447
0.0170426
0.017074
0.0171443
0.0172592
0.0174252
0.0176487
0.0309378
0.0306909
0.0302155
0.0295634
0.0288153
0.0280511
0.0273238
0.0266523
0.0260323
0.0254533
0.0249099
0.0244022
0.0239311
0.0234947
0.0230889
0.0227093
0.0223525
0.022016
0.0216979
0.0213964
0.0211096
0.0208359
0.020574
0.0203229
0.0200815
0.0198492
0.0196254
0.0194095
0.0192014
0.0190007
0.0188075
0.0186219
0.0184442
0.0182747
0.018114
0.017963
0.0178225
0.0176938
0.0175784
0.0174779
0.0173945
0.0173307
0.0172891
0.0172732
0.0172868
0.0173342
0.0174203
0.0175502
0.0177297
0.0179644
0.0305725
0.0303489
0.0299169
0.0293208
0.0286303
0.0279155
0.0272257
0.0265816
0.0259829
0.0254222
0.0248946
0.0244
0.0239389
0.0235103
0.023111
0.0227369
0.022385
0.0220529
0.0217388
0.0214409
0.0211577
0.0208875
0.0206292
0.0203817
0.0201441
0.0199159
0.0196964
0.0194852
0.019282
0.0190868
0.0188995
0.0187203
0.0185495
0.0183876
0.0182351
0.0180928
0.0179619
0.0178435
0.0177391
0.0176504
0.0175795
0.0175288
0.0175011
0.0174994
0.0175275
0.0175893
0.0176892
0.0178319
0.0180225
0.0182657
0.0302199
0.0300172
0.0296243
0.0290794
0.0284422
0.0277747
0.0271221
0.0265059
0.025929
0.0253867
0.0248752
0.0243939
0.0239435
0.0235233
0.0231309
0.0227628
0.0224162
0.0220888
0.021779
0.0214851
0.0212056
0.0209392
0.0206847
0.020441
0.0202075
0.0199834
0.0197684
0.019562
0.019364
0.0191743
0.018993
0.0188202
0.0186564
0.018502
0.0183576
0.0182241
0.0181026
0.0179942
0.0179004
0.0178231
0.0177641
0.0177259
0.0177111
0.0177226
0.0177637
0.0178383
0.0179502
0.0181036
0.0183029
0.0185522
0.0298794
0.0296954
0.0293379
0.0288395
0.028252
0.0276294
0.0270133
0.0264251
0.0258705
0.0253469
0.0248516
0.0243841
0.0239448
0.0235336
0.0231485
0.0227868
0.0224459
0.0221236
0.0218184
0.0215287
0.0212533
0.0209909
0.0207403
0.0205007
0.0202714
0.0200518
0.0198413
0.0196398
0.0194471
0.019263
0.0190877
0.0189215
0.0187646
0.0186177
0.0184814
0.0183565
0.0182441
0.0181455
0.018062
0.0179955
0.0179479
0.0179214
0.0179184
0.0179419
0.0179948
0.0180805
0.0182026
0.0183646
0.0185704
0.0188234
0.0295504
0.0293832