/*--------------------------------*- C++ -*----------------------------------*\
  =========                 |
  \\      /  F ield         | OpenFOAM: The Open Source CFD Toolbox
   \\    /   O peration     | Website:  https://openfoam.org
    \\  /    A nd           | Version:  7
     \\/     M anipulation  |
\*---------------------------------------------------------------------------*/
FoamFile
{
    version     2.0;
    format      ascii;
    class       surfaceScalarField;
    location    "0.42";
    object      phi;
}
// * * * * * * * * * * * * * * * * * * * * * * * * * * * * * * * * * * * * * //

dimensions      [0 3 -1 0 0 0 0];

internalField   nonuniform List<scalar> 
139350
(
6.45933e-08
9.20382e-08
3.19534e-08
3.26399e-08
2.30645e-08
8.8889e-09
1.95728e-08
3.4917e-09
1.7624e-08
1.9488e-09
1.61997e-08
1.4243e-09
1.50702e-08
1.12948e-09
1.416e-08
9.10175e-10
1.34116e-08
7.48426e-10
1.27818e-08
6.29804e-10
1.22418e-08
5.40003e-10
1.17723e-08
4.69546e-10
1.13595e-08
4.12815e-10
1.09932e-08
3.66279e-10
1.06656e-08
3.27529e-10
1.03708e-08
2.94841e-10
1.01039e-08
2.66943e-10
9.86097e-09
2.42888e-10
9.63902e-09
2.21951e-10
9.43545e-09
2.0357e-10
9.24814e-09
1.87306e-10
9.07534e-09
1.72806e-10
8.91555e-09
1.59786e-10
8.76754e-09
1.48013e-10
8.63024e-09
1.37295e-10
8.50277e-09
1.2747e-10
8.38437e-09
1.184e-10
8.2744e-09
1.09969e-10
8.17234e-09
1.02068e-10
8.07772e-09
9.46151e-11
7.99021e-09
8.7512e-11
7.9095e-09
8.07116e-11
7.8354e-09
7.40987e-11
7.76772e-09
6.7681e-11
7.70643e-09
6.12841e-11
7.65142e-09
5.50158e-11
7.60284e-09
4.85775e-11
7.56059e-09
4.22452e-11
7.52505e-09
3.55485e-11
7.49613e-09
2.89178e-11
7.4742e-09
2.19264e-11
7.45961e-09
1.45941e-11
7.45164e-09
7.96617e-12
7.45281e-09
-1.16624e-12
7.45712e-09
-4.31672e-12
7.47638e-09
-1.92532e-11
7.48079e-09
-4.41707e-12
7.53746e-09
-5.66647e-11
7.34e-09
1.97462e-10
-3.27042e-09
1.06104e-08
1.26027e-07
1.27455e-07
9.12676e-08
6.73991e-08
7.19519e-08
2.82046e-08
6.12315e-08
1.42121e-08
5.47928e-08
8.38753e-09
5.03073e-08
5.90979e-09
4.68321e-08
4.60465e-09
4.40257e-08
3.71652e-09
4.17091e-08
3.06512e-09
3.97573e-08
2.58152e-09
3.80835e-08
2.21381e-09
3.66276e-08
1.92548e-09
3.53469e-08
1.69354e-09
3.42098e-08
1.50335e-09
3.31923e-08
1.345e-09
3.22757e-08
1.21142e-09
3.14452e-08
1.09744e-09
3.0689e-08
9.99173e-10
2.99972e-08
9.13673e-10
2.93622e-08
8.38649e-10
2.87772e-08
7.72301e-10
2.82368e-08
7.13196e-10
2.77364e-08
6.60176e-10
2.72721e-08
6.12295e-10
2.68406e-08
5.68769e-10
2.64392e-08
5.28944e-10
2.60653e-08
4.9226e-10
2.5717e-08
4.58244e-10
2.53926e-08
4.26472e-10
2.50906e-08
3.96591e-10
2.48099e-08
3.68245e-10
2.45494e-08
3.41191e-10
2.43085e-08
3.15055e-10
2.40864e-08
2.89745e-10
2.3883e-08
2.64737e-10
2.36977e-08
2.40242e-10
2.3531e-08
2.15316e-10
2.33824e-08
1.90831e-10
2.3253e-08
1.64925e-10
2.31422e-08
1.39788e-10
2.30522e-08
1.11928e-10
2.29811e-08
8.56502e-11
2.29335e-08
5.56085e-11
2.29047e-08
2.76414e-11
2.29014e-08
-1.04538e-12
2.29167e-08
-3.45379e-11
2.29451e-08
-3.28277e-11
2.30371e-08
-1.48682e-10
2.29128e-08
3.21764e-10
-3.80447e-09
2.34468e-08
1.58808e-07
1.35051e-07
1.36499e-07
8.97084e-08
1.17504e-07
4.71994e-08
1.03335e-07
2.83808e-08
9.3339e-08
1.83837e-08
8.6049e-08
1.31998e-08
8.03561e-08
1.02976e-08
7.57188e-08
8.35387e-09
7.18549e-08
6.92903e-09
6.85776e-08
5.85879e-09
6.57538e-08
5.03757e-09
6.32888e-08
4.39049e-09
6.1114e-08
3.86836e-09
5.91782e-08
3.43916e-09
5.74422e-08
3.08102e-09
5.58752e-08
2.77838e-09
5.44529e-08
2.51975e-09
5.31555e-08
2.29654e-09
5.19671e-08
2.10214e-09
5.08743e-08
1.93144e-09
4.98661e-08
1.78043e-09
4.89335e-08
1.64587e-09
4.80685e-08
1.52517e-09
4.72646e-08
1.4162e-09
4.65162e-08
1.31719e-09
4.58184e-08
1.22668e-09
4.51673e-08
1.14341e-09
4.45592e-08
1.06631e-09
4.39912e-08
9.94443e-10
4.34608e-08
9.26995e-10
4.29659e-08
8.63208e-10
4.25046e-08
8.02483e-10
4.20755e-08
7.4408e-10
4.16776e-08
6.8767e-10
4.13101e-08
6.32269e-10
4.09722e-08
5.78116e-10
4.06641e-08
5.23396e-10
4.03852e-08
4.69766e-10
4.01369e-08
4.13231e-10
3.99178e-08
3.58908e-10
3.9732e-08
2.97687e-10
3.95751e-08
2.42551e-10
3.94571e-08
1.73645e-10
3.93651e-08
1.19605e-10
3.93208e-08
4.32267e-11
3.92951e-08
-8.83911e-12
3.93177e-08
-5.5372e-11
3.93838e-08
-2.14791e-10
3.94021e-08
3.03506e-10
-3.38818e-09
3.89858e-08
1.75664e-07
1.30902e-07
1.65598e-07
9.97751e-08
1.52733e-07
6.00645e-08
1.40143e-07
4.09706e-08
1.29465e-07
2.9061e-08
1.20837e-07
2.18287e-08
1.1374e-07
1.73938e-08
1.07777e-07
1.43176e-08
1.02694e-07
1.20114e-08
9.83109e-08
1.0242e-08
9.44872e-08
8.86125e-09
9.11175e-08
7.76018e-09
8.81219e-08
6.86397e-09
8.54389e-08
6.12217e-09
8.30202e-08
5.49973e-09
8.08273e-08
4.97126e-09
7.88292e-08
4.5179e-09
7.70003e-08
4.12535e-09
7.53199e-08
3.78255e-09
7.37705e-08
3.48089e-09
7.23374e-08
3.2135e-09
7.10084e-08
2.97491e-09
6.97729e-08
2.76065e-09
6.8622e-08
2.56705e-09
6.75481e-08
2.39108e-09
6.65446e-08
2.23018e-09
6.56059e-08
2.08219e-09
6.47269e-08
1.94523e-09
6.39037e-08
1.81769e-09
6.31325e-08
1.69815e-09
6.24104e-08
1.58531e-09
6.17348e-08
1.47811e-09
6.11036e-08
1.37532e-09
6.0515e-08
1.27628e-09
5.99678e-08
1.17944e-09
5.94609e-08
1.08501e-09
5.89941e-08
9.90151e-10
5.85665e-08
8.97372e-10
5.81796e-08
8.00127e-10
5.78315e-08
7.07046e-10
5.75271e-08
6.0205e-10
5.72607e-08
5.08967e-10
5.70448e-08
3.89519e-10
5.68633e-08
3.01186e-10
5.67434e-08
1.63057e-10
5.66495e-08
8.51404e-11
5.66218e-08
-2.77589e-11
5.66328e-08
-2.25748e-10
5.66805e-08
2.5577e-10
-2.80042e-09
5.60928e-08
1.8456e-07
1.23127e-07
1.82323e-07
1.02013e-07
1.76109e-07
6.62786e-08
1.67773e-07
4.93058e-08
1.59161e-07
3.7673e-08
1.51266e-07
2.97241e-08
1.4421e-07
2.44504e-08
1.37928e-07
2.05992e-08
1.32347e-07
1.75923e-08
1.27383e-07
1.52062e-08
1.2295e-07
1.32943e-08
1.18971e-07
1.17388e-08
1.15383e-07
1.04527e-08
1.1213e-07
9.37471e-09
1.09169e-07
8.46084e-09
1.06462e-07
7.67829e-09
1.03978e-07
7.00212e-09
1.0169e-07
6.41307e-09
9.95764e-08
5.89604e-09
9.76183e-08
5.43904e-09
9.57993e-08
5.03245e-09
9.41057e-08
4.66849e-09
9.25256e-08
4.34076e-09
9.10487e-08
4.04397e-09
8.96661e-08
3.77371e-09
8.837e-08
3.52625e-09
8.71538e-08
3.2984e-09
8.60116e-08
3.08741e-09
8.49384e-08
2.89091e-09
8.39298e-08
2.70676e-09
8.2982e-08
2.53307e-09
8.20919e-08
2.3682e-09
8.12568e-08
2.21043e-09
8.04745e-08
2.05863e-09
7.97432e-08
1.9107e-09
7.90615e-08
1.76669e-09
7.8429e-08
1.62272e-09
7.78443e-08
1.48207e-09
7.73088e-08
1.33562e-09
7.68204e-08
1.19542e-09
7.6384e-08
1.03842e-09
7.5994e-08
8.99036e-10
7.56623e-08
7.2116e-10
7.53743e-08
5.89215e-10
7.51543e-08
3.8304e-10
7.49737e-08
2.65787e-10
7.48612e-08
8.46637e-11
7.48015e-08
-1.66043e-10
7.47882e-08
2.6912e-10
-2.19209e-09
7.41799e-08
1.90389e-07
1.14955e-07
1.91853e-07
1.00548e-07
1.90248e-07
6.78839e-08
1.86162e-07
5.33909e-08
1.80732e-07
4.31031e-08
1.74989e-07
3.54669e-08
1.69307e-07
3.01324e-08
1.63841e-07
2.60659e-08
1.58685e-07
2.27479e-08
1.53882e-07
2.00088e-08
1.49435e-07
1.77413e-08
1.45328e-07
1.58465e-08
1.41535e-07
1.42453e-08
1.38031e-07
1.28787e-08
1.3479e-07
1.17023e-08
1.31786e-07
1.06819e-08
1.28998e-07
9.79047e-09
1.26404e-07
9.00656e-09
1.23987e-07
8.31291e-09
1.21731e-07
7.69548e-09
1.1962e-07
7.14282e-09
1.17643e-07
6.64547e-09
1.15789e-07
6.19556e-09
1.14046e-07
5.78649e-09
1.12407e-07
5.4127e-09
1.10864e-07
5.06942e-09
1.0941e-07
4.75257e-09
1.08039e-07
4.45856e-09
1.06745e-07
4.18432e-09
1.05525e-07
3.92703e-09
1.04374e-07
3.68422e-09
1.03288e-07
3.45367e-09
1.02266e-07
3.23314e-09
1.01303e-07
3.02106e-09
1.00399e-07
2.81475e-09
9.95518e-08
2.61405e-09
9.87604e-08
2.41413e-09
9.80236e-08
2.21881e-09
9.73425e-08
2.01673e-09
9.67153e-08
1.82267e-09
9.61459e-08
1.60784e-09
9.563e-08
1.41488e-09
9.51771e-08
1.17409e-09
9.47773e-08
9.89026e-10
9.44462e-08
7.14162e-10
9.41704e-08
5.41573e-10
9.39562e-08
2.98852e-10
9.38117e-08
-2.15954e-11
9.3712e-08
3.68853e-10
-1.55092e-09
9.30708e-08
1.95541e-07
1.07229e-07
1.98248e-07
9.78409e-08
1.98971e-07
6.71611e-08
1.97794e-07
5.4568e-08
1.95168e-07
4.57293e-08
1.91835e-07
3.88e-08
1.88115e-07
3.38525e-08
1.84179e-07
3.00017e-08
1.80176e-07
2.67505e-08
1.76217e-07
2.39683e-08
1.72368e-07
2.15898e-08
1.6867e-07
1.95454e-08
1.65141e-07
1.77744e-08
1.61789e-07
1.62298e-08
1.58617e-07
1.48749e-08
1.55619e-07
1.368e-08
1.52788e-07
1.26212e-08
1.50116e-07
1.16783e-08
1.47594e-07
1.08348e-08
1.45213e-07
1.00766e-08
1.42964e-07
9.39222e-09
1.40838e-07
8.77162e-09
1.38827e-07
8.20645e-09
1.36924e-07
7.68952e-09
1.35122e-07
7.21467e-09
1.33415e-07
6.77654e-09
1.31797e-07
6.37047e-09
1.30263e-07
5.99233e-09
1.28809e-07
5.63851e-09
1.2743e-07
5.30571e-09
1.26123e-07
4.99099e-09
1.24885e-07
4.69165e-09
1.23713e-07
4.40503e-09
1.22605e-07
4.12915e-09
1.21559e-07
3.86083e-09
1.20574e-07
3.59967e-09
1.19648e-07
3.34007e-09
1.1878e-07
3.08611e-09
1.17972e-07
2.82476e-09
1.17223e-07
2.57253e-09
1.16534e-07
2.29674e-09
1.15904e-07
2.04494e-09
1.15338e-07
1.73971e-09
1.14833e-07
1.49355e-09
1.14395e-07
1.15239e-09
1.14026e-07
9.10928e-10
1.13712e-07
6.13189e-10
1.13474e-07
2.15989e-10
1.13291e-07
5.52059e-10
-8.81797e-10
1.12622e-07
2.00848e-07
9.99652e-08
2.03777e-07
9.49123e-08
2.05329e-07
6.56086e-08
2.05647e-07
5.42499e-08
2.04825e-07
4.65517e-08
2.0335e-07
4.02748e-08
2.01412e-07
3.57912e-08
1.99093e-07
3.23199e-08
1.96501e-07
2.93427e-08
1.93737e-07
2.67321e-08
1.90883e-07
2.44445e-08
1.87997e-07
2.2431e-08
1.85125e-07
2.06466e-08
1.82298e-07
1.90566e-08
1.79539e-07
1.76342e-08
1.76861e-07
1.63573e-08
1.74275e-07
1.52073e-08
1.71785e-07
1.41683e-08
1.69394e-07
1.32265e-08
1.671e-07
1.23701e-08
1.64904e-07
1.15887e-08
1.62802e-07
1.08735e-08
1.60792e-07
1.02165e-08
1.5887e-07
9.6109e-09
1.57034e-07
9.05069e-09
1.5528e-07
8.53051e-09
1.53605e-07
8.04562e-09
1.52006e-07
7.59175e-09
1.50479e-07
7.1651e-09
1.49023e-07
6.76213e-09
1.47634e-07
6.37968e-09
1.46311e-07
6.01477e-09
1.45052e-07
5.66447e-09
1.43854e-07
5.3265e-09
1.42718e-07
4.99736e-09
1.41641e-07
4.67638e-09
1.40624e-07
4.35746e-09
1.39665e-07
4.04468e-09
1.38766e-07
3.724e-09
1.37926e-07
3.4126e-09
1.37147e-07
3.07592e-09
1.36428e-07
2.763e-09
1.35774e-07
2.39458e-09
1.35185e-07
2.08258e-09
1.34658e-07
1.67903e-09
1.34208e-07
1.36067e-09
1.3381e-07
1.0116e-09
1.33485e-07
5.41025e-10
1.3323e-07
8.0701e-10
-2.11206e-10
1.32559e-07
2.06447e-07
9.30501e-08
2.09341e-07
9.2019e-08
2.11039e-07
6.39099e-08
2.11935e-07
5.33539e-08
2.12008e-07
4.64794e-08
2.11626e-07
4.0656e-08
2.10904e-07
3.65136e-08
2.09843e-07
3.33806e-08
2.08482e-07
3.07042e-08
2.06877e-07
2.83364e-08
2.05086e-07
2.62358e-08
2.03157e-07
2.43602e-08
2.01132e-07
2.26713e-08
1.99048e-07
2.1141e-08
1.96933e-07
1.97488e-08
1.94812e-07
1.84787e-08
1.92702e-07
1.7317e-08
1.90618e-07
1.62521e-08
1.88571e-07
1.52737e-08
1.86569e-07
1.43728e-08
1.84616e-07
1.35413e-08
1.82717e-07
1.27721e-08
1.80875e-07
1.20586e-08
1.79091e-07
1.1395e-08
1.77366e-07
1.0776e-08
1.757e-07
1.01968e-08
1.74092e-07
9.65304e-09
1.72543e-07
9.14074e-09
1.71052e-07
8.65627e-09
1.69618e-07
8.19616e-09
1.6824e-07
7.75729e-09
1.66918e-07
7.33664e-09
1.65652e-07
6.9312e-09
1.6444e-07
6.53856e-09
1.63282e-07
6.15506e-09
1.62178e-07
5.77987e-09
1.61129e-07
5.40659e-09
1.60135e-07
5.03918e-09
1.59196e-07
4.66314e-09
1.58313e-07
4.2955e-09
1.57487e-07
3.90153e-09
1.56721e-07
3.52899e-09
1.56014e-07
3.10145e-09
1.55374e-07
2.72308e-09
1.54791e-07
2.26226e-09
1.54286e-07
1.86531e-09
1.53831e-07
1.46683e-09
1.53439e-07
9.32483e-10
1.53133e-07
1.11359e-09
4.28917e-10
1.52493e-07
2.12289e-07
8.64232e-08
2.15153e-07
8.91548e-08
2.16794e-07
6.22697e-08
2.17848e-07
5.22998e-08
2.18266e-07
4.6061e-08
2.18387e-07
4.05354e-08
2.18317e-07
3.65833e-08
2.18026e-07
3.36718e-08
2.17506e-07
3.12244e-08
2.16775e-07
2.90668e-08
2.15858e-07
2.71525e-08
2.1478e-07
2.54381e-08
2.13567e-07
2.38846e-08
2.12244e-07
2.24643e-08
2.10834e-07
2.11585e-08
2.0936e-07
1.99533e-08
2.07839e-07
1.88377e-08
2.06288e-07
1.78027e-08
2.04721e-07
1.68406e-08
2.0315e-07
1.59445e-08
2.01583e-07
1.51084e-08
2.00028e-07
1.43268e-08
1.98492e-07
1.35947e-08
1.9698e-07
1.29074e-08
1.95495e-07
1.22606e-08
1.94041e-07
1.16505e-08
1.92621e-07
1.10732e-08
1.91237e-07
1.05252e-08
1.89889e-07
1.00035e-08
1.88581e-07
9.50472e-09
1.87312e-07
9.02608e-09
1.86084e-07
8.56469e-09
1.84898e-07
8.11765e-09
1.83753e-07
7.68259e-09
1.82653e-07
7.25582e-09
1.81596e-07
6.83647e-09
1.80585e-07
6.41804e-09
1.7962e-07
6.00429e-09
1.78702e-07
5.58074e-09
1.77834e-07
5.16366e-09
1.77016e-07
4.71945e-09
1.76252e-07
4.2926e-09
1.75541e-07
3.81287e-09
1.74892e-07
3.37191e-09
1.74294e-07
2.86046e-09
1.7377e-07
2.389e-09
1.73294e-07
1.94291e-09
1.72869e-07
1.35734e-09
1.7254e-07
1.44281e-09
1.00602e-09
1.71963e-07
2.1833e-07
8.00737e-08
2.21207e-07
8.62779e-08
2.22766e-07
6.07104e-08
2.23847e-07
5.12188e-08
2.24375e-07
4.55332e-08
2.24673e-07
4.02372e-08
2.24879e-07
3.63774e-08
2.24966e-07
3.35856e-08
2.2491e-07
3.12799e-08
2.24713e-07
2.92642e-08
2.24378e-07
2.7487e-08
2.23913e-07
2.59035e-08
2.23325e-07
2.44719e-08
2.22627e-07
2.31622e-08
2.21832e-07
2.19541e-08
2.20952e-07
2.08335e-08
2.2e-07
1.97894e-08
2.18989e-07
1.88134e-08
2.17931e-07
1.78987e-08
2.16836e-07
1.70395e-08
2.15714e-07
1.62309e-08
2.14572e-07
1.54685e-08
2.13418e-07
1.47483e-08
2.12259e-07
1.40666e-08
2.111e-07
1.34198e-08
2.09946e-07
1.28048e-08
2.088e-07
1.22185e-08
2.07668e-07
1.16579e-08
2.06551e-07
1.11202e-08
2.05453e-07
1.06027e-08
2.04376e-07
1.01028e-08
2.03323e-07
9.61786e-09
2.02295e-07
9.14515e-09
2.01296e-07
8.68247e-09
2.00325e-07
8.2262e-09
1.99386e-07
7.77551e-09
1.9848e-07
7.32391e-09
1.9761e-07
6.87499e-09
1.96776e-07
6.41455e-09
1.95982e-07
5.95776e-09
1.95228e-07
5.47307e-09
1.9452e-07
5.00034e-09
1.93855e-07
4.47767e-09
1.93246e-07
3.98156e-09
1.92679e-07
3.42753e-09
1.92177e-07
2.89027e-09
1.91721e-07
2.39932e-09
1.91303e-07
1.77576e-09
1.90985e-07
1.7602e-09
1.48842e-09
1.90503e-07
2.24559e-07
7.40079e-08
2.27471e-07
8.33656e-08
2.28963e-07
5.92185e-08
2.30049e-07
5.01325e-08
2.30619e-07
4.4964e-08
2.30966e-07
3.98903e-08
2.31261e-07
3.6082e-08
2.31495e-07
3.33516e-08
2.31648e-07
3.11273e-08
2.31717e-07
2.9195e-08
2.31702e-07
2.75019e-08
2.31601e-07
2.60042e-08
2.31415e-07
2.46587e-08
2.31144e-07
2.34332e-08
2.30792e-07
2.23057e-08
2.30365e-07
2.12603e-08
2.29869e-07
2.02854e-08
2.29311e-07
1.93718e-08
2.28697e-07
1.85125e-08
2.28035e-07
1.77017e-08
2.27331e-07
1.69347e-08
2.26592e-07
1.62076e-08
2.25823e-07
1.55165e-08
2.25032e-07
1.48584e-08
2.24221e-07
1.42301e-08
2.23398e-07
1.36287e-08
2.22564e-07
1.30517e-08
2.21726e-07
1.24964e-08
2.20886e-07
1.19603e-08
2.20048e-07
1.1441e-08
2.19214e-07
1.09361e-08
2.18389e-07
1.04432e-08
2.17574e-07
9.95986e-09
2.16773e-07
9.48391e-09
2.15987e-07
9.01184e-09
2.1522e-07
8.54292e-09
2.14473e-07
8.07072e-09
2.13749e-07
7.59859e-09
2.13051e-07
7.11291e-09
2.12381e-07
6.62739e-09
2.11741e-07
6.1132e-09
2.11137e-07
5.6047e-09
2.10565e-07
5.04952e-09
2.10038e-07
4.50807e-09
2.09546e-07
3.9203e-09
2.09107e-07
3.32889e-09
2.08709e-07
2.79699e-09
2.08337e-07
2.14769e-09
2.08067e-07
2.03052e-09
1.8493e-09
2.07706e-07
2.3098e-07
6.82341e-08
2.33936e-07
8.04094e-08
2.35369e-07
5.77858e-08
2.36461e-07
4.904e-08
2.37064e-07
4.43611e-08
2.37426e-07
3.95279e-08
2.37743e-07
3.57649e-08
2.38023e-07
3.30716e-08
2.38252e-07
3.08992e-08
2.3843e-07
2.90169e-08
2.3856e-07
2.73716e-08
2.3864e-07
2.59237e-08
2.38669e-07
2.46305e-08
2.38643e-07
2.34589e-08
2.38563e-07
2.23859e-08
2.38429e-07
2.13945e-08
2.38242e-07
2.04721e-08
2.38005e-07
1.96088e-08
2.3772e-07
1.87969e-08
2.37392e-07
1.80303e-08
2.37023e-07
1.73039e-08
2.36617e-07
1.66136e-08
2.36177e-07
1.59557e-08
2.35709e-07
1.5327e-08
2.35214e-07
1.47245e-08
2.34698e-07
1.41454e-08
2.34162e-07
1.35872e-08
2.33611e-07
1.30473e-08
2.33048e-07
1.25235e-08
2.32476e-07
1.20134e-08
2.31897e-07
1.15147e-08
2.31315e-07
1.10252e-08
2.30733e-07
1.05424e-08
2.30152e-07
1.00643e-08
2.29577e-07
9.58758e-09
2.29008e-07
9.11136e-09
2.28449e-07
8.62938e-09
2.27903e-07
8.14466e-09
2.27372e-07
7.64434e-09
2.26859e-07
7.14037e-09
2.26365e-07
6.60711e-09
2.25897e-07
6.07294e-09
2.25451e-07
5.49532e-09
2.2504e-07
4.91904e-09
2.24654e-07
4.30605e-09
2.2431e-07
3.67311e-09
2.24002e-07
3.1049e-09
2.2371e-07
2.43967e-09
2.23517e-07
2.22408e-09
2.0707e-09
2.23295e-07
2.37601e-07
6.2758e-08
2.40603e-07
7.74068e-08
2.41979e-07
5.64102e-08
2.43077e-07
4.79425e-08
2.43717e-07
4.37209e-08
2.44093e-07
3.91518e-08
2.44415e-07
3.54424e-08
2.44708e-07
3.27791e-08
2.44959e-07
3.06482e-08
2.45174e-07
2.88021e-08
2.45358e-07
2.7187e-08
2.45514e-07
2.57682e-08
2.45639e-07
2.45053e-08
2.45732e-07
2.33655e-08
2.45793e-07
2.23252e-08
2.4582e-07
2.13675e-08
2.45813e-07
2.04792e-08
2.45772e-07
1.96498e-08
2.45697e-07
1.88714e-08
2.4559e-07
1.81373e-08
2.45452e-07
1.74423e-08
2.45284e-07
1.67819e-08
2.45087e-07
1.61522e-08
2.44865e-07
1.55498e-08
2.44617e-07
1.49717e-08
2.44348e-07
1.4415e-08
2.44058e-07
1.3877e-08
2.4375e-07
1.33552e-08
2.43426e-07
1.28473e-08
2.43089e-07
1.23508e-08
2.4274e-07
1.18634e-08
2.42382e-07
1.1383e-08
2.42018e-07
1.0907e-08
2.41648e-07
1.04336e-08
2.41277e-07
9.95909e-09
2.40905e-07
9.48283e-09
2.40536e-07
8.9986e-09
2.40172e-07
8.50899e-09
2.39814e-07
8.00198e-09
2.39467e-07
7.48761e-09
2.3913e-07
6.9436e-09
2.38811e-07
6.39227e-09
2.38506e-07
5.80054e-09
2.38226e-07
5.19902e-09
2.37964e-07
4.56794e-09
2.37732e-07
3.90512e-09
2.37532e-07
3.30523e-09
2.37341e-07
2.63042e-09
2.37243e-07
2.32191e-09
2.14646e-09
2.37167e-07
2.44431e-07
5.75833e-08
2.47473e-07
7.43646e-08
2.488e-07
5.50835e-08
2.49898e-07
4.68446e-08
2.50577e-07
4.30419e-08
2.5097e-07
3.87586e-08
2.51297e-07
3.51152e-08
2.51595e-07
3.24809e-08
2.51854e-07
3.03893e-08
2.5208e-07
2.85762e-08
2.52282e-07
2.69852e-08
2.52463e-07
2.55868e-08
2.52625e-07
2.43435e-08
2.52768e-07
2.32231e-08
2.5289e-07
2.22024e-08
2.52993e-07
2.12647e-08
2.53076e-07
2.03966e-08
2.53138e-07
1.95879e-08
2.53179e-07
1.88302e-08
2.532e-07
1.81168e-08
2.53199e-07
1.74424e-08
2.53179e-07
1.68022e-08
2.53139e-07
1.61924e-08
2.53079e-07
1.56093e-08
2.53001e-07
1.50497e-08
2.52906e-07
1.45106e-08
2.52793e-07
1.39893e-08
2.52665e-07
1.34831e-08
2.52523e-07
1.29894e-08
2.52368e-07
1.25059e-08
2.52201e-07
1.20301e-08
2.52025e-07
1.15598e-08
2.51839e-07
1.10922e-08
2.51647e-07
1.06256e-08
2.5145e-07
1.01562e-08
2.5125e-07
9.68322e-09
2.51048e-07
9.20059e-09
2.50847e-07
8.71029e-09
2.50647e-07
8.20133e-09
2.50453e-07
7.68161e-09
2.50265e-07
7.13229e-09
2.50087e-07
6.56984e-09
2.49918e-07
5.96969e-09
2.49766e-07
5.35046e-09
2.49628e-07
4.70629e-09
2.4951e-07
4.02291e-09
2.4942e-07
3.39514e-09
2.49338e-07
2.71329e-09
2.49341e-07
2.31814e-09
2.08315e-09
2.49405e-07
2.51478e-07
5.27118e-08
2.54551e-07
7.12921e-08
2.55839e-07
5.37953e-08
2.56932e-07
4.57519e-08
2.57648e-07
4.23251e-08
2.58062e-07
3.83451e-08
2.58395e-07
3.4782e-08
2.58699e-07
3.21773e-08
2.58963e-07
3.0125e-08
2.59194e-07
2.83456e-08
2.59401e-07
2.67778e-08
2.59591e-07
2.53972e-08
2.59765e-07
2.41695e-08
2.59924e-07
2.30634e-08
2.6007e-07
2.20562e-08
2.60204e-07
2.11312e-08
2.60325e-07
2.02757e-08
2.60433e-07
1.94793e-08
2.6053e-07
1.87338e-08
2.60614e-07
1.80326e-08
2.60686e-07
1.73704e-08
2.60746e-07
1.67424e-08
2.60794e-07
1.61447e-08
2.60829e-07
1.55736e-08
2.60853e-07
1.50259e-08
2.60865e-07
1.44985e-08
2.60866e-07
1.39885e-08
2.60856e-07
1.34932e-08
2.60836e-07
1.30099e-08
2.60806e-07
1.2536e-08
2.60767e-07
1.20691e-08
2.6072e-07
1.16068e-08
2.60665e-07
1.11463e-08
2.60605e-07
1.06856e-08
2.60541e-07
1.02211e-08
2.60472e-07
9.75162e-09
2.60401e-07
9.27138e-09
2.6033e-07
8.78168e-09
2.60259e-07
8.27253e-09
2.60191e-07
7.74975e-09
2.60125e-07
7.1977e-09
2.60068e-07
6.62758e-09
2.60015e-07
6.02202e-09
2.59976e-07
5.39013e-09
2.59946e-07
4.73561e-09
2.59931e-07
4.03792e-09
2.59941e-07
3.38486e-09
2.5996e-07
2.69498e-09
2.60059e-07
2.21902e-09
1.89817e-09
2.60244e-07
2.58751e-07
4.81436e-08
2.61844e-07
6.81994e-08
2.63104e-07
5.25351e-08
2.64187e-07
4.46695e-08
2.64939e-07
4.15731e-08
2.65374e-07
3.79093e-08
2.65715e-07
3.44418e-08
2.66024e-07
3.18679e-08
2.66294e-07
2.98549e-08
2.66529e-07
2.81107e-08
2.6674e-07
2.65671e-08
2.66933e-07
2.52042e-08
2.67111e-07
2.39913e-08
2.67276e-07
2.28981e-08
2.6743e-07
2.1902e-08
2.67574e-07
2.0987e-08
2.6771e-07
2.01405e-08
2.67837e-07
1.93523e-08
2.67956e-07
1.86146e-08
2.68068e-07
1.79207e-08
2.68173e-07
1.72655e-08
2.68271e-07
1.66444e-08
2.68362e-07
1.60534e-08
2.68446e-07
1.54891e-08
2.68524e-07
1.49481e-08
2.68595e-07
1.44274e-08
2.6866e-07
1.3924e-08
2.68718e-07
1.3435e-08
2.6877e-07
1.29578e-08
2.68816e-07
1.24899e-08
2.68857e-07
1.20284e-08
2.68893e-07
1.1571e-08
2.68924e-07
1.11149e-08
2.68952e-07
1.06579e-08
2.68976e-07
1.01964e-08
2.68999e-07
9.72899e-09
2.6902e-07
9.25012e-09
2.69042e-07
8.76038e-09
2.69063e-07
8.25083e-09
2.69088e-07
7.72526e-09
2.69114e-07
7.17097e-09
2.69147e-07
6.59458e-09
2.69185e-07
5.98445e-09
2.69233e-07
5.34267e-09
2.6929e-07
4.67862e-09
2.69357e-07
3.97002e-09
2.69449e-07
3.29296e-09
2.69553e-07
2.59133e-09
2.69733e-07
2.03934e-09
1.61558e-09
2.70015e-07
2.66259e-07
4.38771e-08
2.69361e-07
6.5097e-08
2.70604e-07
5.12924e-08
2.71672e-07
4.36017e-08
2.72456e-07
4.07891e-08
2.72915e-07
3.74496e-08
2.73264e-07
3.40937e-08
2.73579e-07
3.15525e-08
2.73855e-07
2.95786e-08
2.74095e-07
2.78713e-08
2.74308e-07
2.63533e-08
2.74504e-07
2.50087e-08
2.74685e-07
2.38108e-08
2.74852e-07
2.27302e-08
2.75009e-07
2.1745e-08
2.75157e-07
2.08391e-08
2.75297e-07
2.00003e-08
2.75431e-07
1.92189e-08
2.75559e-07
1.84869e-08
2.75681e-07
1.77981e-08
2.75799e-07
1.71474e-08
2.75913e-07
1.65304e-08
2.76023e-07
1.59433e-08
2.7613e-07
1.53826e-08
2.76233e-07
1.48451e-08
2.76333e-07
1.43277e-08
2.76429e-07
1.38275e-08
2.76523e-07
1.33417e-08
2.76613e-07
1.28675e-08
2.767e-07
1.24022e-08
2.76786e-07
1.19432e-08
2.76869e-07
1.14881e-08
2.7695e-07
1.10337e-08
2.7703e-07
1.0578e-08
2.77109e-07
1.01173e-08
2.77188e-07
9.65001e-09
2.77267e-07
9.17083e-09
2.77348e-07
8.67964e-09
2.7743e-07
8.16852e-09
2.77516e-07
7.63943e-09
2.77605e-07
7.08216e-09
2.777e-07
6.49961e-09
2.778e-07
5.88442e-09
2.77909e-07
5.2339e-09
2.78027e-07
4.55994e-09
2.78156e-07
3.84148e-09
2.78308e-07
3.14072e-09
2.78477e-07
2.42205e-09
2.78719e-07
1.79757e-09
1.26111e-09
2.79074e-07
2.7401e-07
3.99086e-08
2.77111e-07
6.19959e-08
2.78346e-07
5.00569e-08
2.79396e-07
4.25521e-08
2.80208e-07
3.99773e-08
2.80693e-07
3.69643e-08
2.8105e-07
3.37367e-08
2.81371e-07
3.12314e-08
2.81654e-07
2.92959e-08
2.81898e-07
2.76267e-08
2.82116e-07
2.61359e-08
2.82314e-07
2.48105e-08
2.82496e-07
2.3628e-08
2.82666e-07
2.25605e-08
2.82825e-07
2.15862e-08
2.82975e-07
2.06894e-08
2.83117e-07
1.98582e-08
2.83253e-07
1.9083e-08
2.83384e-07
1.83562e-08
2.8351e-07
1.76716e-08
2.83633e-07
1.70244e-08
2.83753e-07
1.64103e-08
2.83871e-07
1.58256e-08
2.83986e-07
1.5267e-08
2.841e-07
1.47313e-08
2.84212e-07
1.42156e-08
2.84323e-07
1.37168e-08
2.84432e-07
1.32321e-08
2.84541e-07
1.27589e-08
2.84649e-07
1.22944e-08
2.84756e-07
1.18359e-08
2.84863e-07
1.13809e-08
2.84971e-07
1.09263e-08
2.85079e-07
1.04701e-08
2.85188e-07
1.00084e-08
2.85298e-07
9.53954e-09
2.8541e-07
9.05849e-09
2.85526e-07
8.56445e-09
2.85644e-07
8.05044e-09
2.85766e-07
7.51682e-09
2.85893e-07
6.95545e-09
2.86026e-07
6.36634e-09
2.86166e-07
5.74503e-09
2.86314e-07
5.08594e-09
2.86472e-07
4.4011e-09
2.86642e-07
3.67237e-09
2.86835e-07
2.94757e-09
2.87051e-07
2.20611e-09
2.87336e-07
1.51183e-09
8.58254e-10
2.87739e-07
2.82013e-07
3.6233e-08
2.85101e-07
5.89077e-08
2.86339e-07
4.88191e-08
2.87368e-07
4.15234e-08
2.88203e-07
3.91424e-08
2.88715e-07
3.64521e-08
2.89082e-07
3.33697e-08
2.89409e-07
3.09045e-08
2.89698e-07
2.90068e-08
2.89948e-07
2.73768e-08
2.90169e-07
2.59147e-08
2.9037e-07
2.46094e-08
2.90555e-07
2.34428e-08
2.90727e-07
2.23887e-08
2.90888e-07
2.14257e-08
2.91039e-07
2.05382e-08
2.91182e-07
1.97147e-08
2.9132e-07
1.89458e-08
2.91452e-07
1.8224e-08
2.9158e-07
1.75435e-08
2.91705e-07
1.68995e-08
2.91827e-07
1.62879e-08
2.91948e-07
1.57051e-08
2.92067e-07
1.5148e-08
2.92185e-07
1.46134e-08
2.92302e-07
1.40983e-08
2.92419e-07
1.36e-08
2.92535e-07
1.31156e-08
2.92652e-07
1.26423e-08
2.92769e-07
1.21775e-08
2.92886e-07
1.17183e-08
2.93005e-07
1.12623e-08
2.93125e-07
1.08064e-08
2.93247e-07
1.03484e-08
2.9337e-07
9.88457e-09
2.93497e-07
9.413e-09
2.93626e-07
8.92895e-09
2.9376e-07
8.43102e-09
2.93897e-07
7.91306e-09
2.9404e-07
7.37409e-09
2.94188e-07
6.80757e-09
2.94343e-07
6.2114e-09
2.94505e-07
5.58289e-09
2.94676e-07
4.91497e-09
2.94859e-07
4.21825e-09
2.95053e-07
3.47802e-09
2.95272e-07
2.72859e-09
2.95519e-07
1.95904e-09
2.95834e-07
1.19693e-09
4.2614e-10
2.96266e-07
2.90279e-07
3.28431e-08
2.93342e-07
5.5844e-08
2.94591e-07
4.75701e-08
2.95597e-07
4.05175e-08
2.9645e-07
3.82896e-08
2.9699e-07
3.59122e-08
2.97369e-07
3.29913e-08
2.97701e-07
3.0572e-08
2.97997e-07
2.87111e-08
2.98253e-07
2.71211e-08
2.98478e-07
2.56893e-08
2.98682e-07
2.44051e-08
2.9887e-07
2.3255e-08
2.99044e-07
2.22148e-08
2.99206e-07
2.12633e-08
2.99359e-07
2.03855e-08
2.99504e-07
1.95698e-08
2.99642e-07
1.88073e-08
2.99776e-07
1.80907e-08
2.99905e-07
1.74142e-08
3.00031e-07
1.67733e-08
3.00155e-07
1.61641e-08
3.00277e-07
1.55831e-08
3.00397e-07
1.50272e-08
3.00517e-07
1.44935e-08
3.00637e-07
1.39789e-08
3.00756e-07
1.34807e-08
3.00876e-07
1.29961e-08
3.00996e-07
1.25223e-08
3.01116e-07
1.20566e-08
3.01239e-07
1.15962e-08
3.01362e-07
1.11386e-08
3.01488e-07
1.06808e-08
3.01616e-07
1.02203e-08
3.01747e-07
9.75369e-09
3.01881e-07
9.27874e-09
3.02019e-07
8.79101e-09
3.02162e-07
8.28855e-09
3.02309e-07
7.76592e-09
3.02462e-07
7.22108e-09
3.02621e-07
6.64864e-09
3.02787e-07
6.04504e-09
3.02961e-07
5.40847e-09
3.03145e-07
4.73134e-09
3.03341e-07
4.02192e-09
3.03551e-07
3.26867e-09
3.03785e-07
2.49405e-09
3.04052e-07
1.69197e-09
3.04385e-07
8.63741e-10
-2.17344e-11
3.04833e-07
2.98816e-07
2.973e-08
3.01843e-07
5.28169e-08
3.03111e-07
4.63019e-08
3.04093e-07
3.95351e-08
3.04959e-07
3.74243e-08
3.05527e-07
3.5344e-08
3.05918e-07
3.25998e-08
3.06257e-07
3.02336e-08
3.06559e-07
2.84089e-08
3.06821e-07
2.68593e-08
3.0705e-07
2.54595e-08
3.07258e-07
2.41975e-08
3.07449e-07
2.30644e-08
3.07625e-07
2.20385e-08
3.07789e-07
2.1099e-08
3.07944e-07
2.02311e-08
3.0809e-07
1.94235e-08
3.0823e-07
1.86676e-08
3.08364e-07
1.79562e-08
3.08495e-07
1.72839e-08
3.08622e-07
1.66461e-08
3.08747e-07
1.60393e-08
3.0887e-07
1.54601e-08
3.08992e-07
1.49054e-08
3.09113e-07
1.43724e-08
3.09233e-07
1.38582e-08
3.09354e-07
1.336e-08
3.09475e-07
1.2875e-08
3.09597e-07
1.24005e-08
3.0972e-07
1.19337e-08
3.09844e-07
1.14719e-08
3.0997e-07
1.10124e-08
3.10099e-07
1.05523e-08
3.1023e-07
1.00891e-08
3.10364e-07
9.61936e-09
3.10503e-07
9.14069e-09
3.10645e-07
8.6489e-09
3.10792e-07
8.1416e-09
3.10944e-07
7.61389e-09
3.11102e-07
7.0629e-09
3.11266e-07
6.48405e-09
3.11439e-07
5.87281e-09
3.11619e-07
5.22762e-09
3.1181e-07
4.54087e-09
3.12014e-07
3.81821e-09
3.12232e-07
3.05044e-09
3.12476e-07
2.25024e-09
3.12755e-07
1.41223e-09
3.131e-07
5.19618e-10
-4.75091e-10
3.13553e-07
3.07634e-07
2.68833e-08
3.10612e-07
4.98385e-08
3.11906e-07
4.50079e-08
3.12865e-07
3.85763e-08
3.13738e-07
3.65519e-08
3.14334e-07
3.4748e-08
3.1474e-07
3.21938e-08
3.15084e-07
2.98891e-08
3.15393e-07
2.81003e-08
3.15661e-07
2.65911e-08
3.15896e-07
2.52248e-08
3.16107e-07
2.39862e-08
3.16301e-07
2.28708e-08
3.16479e-07
2.18596e-08
3.16646e-07
2.09325e-08
3.16802e-07
2.00748e-08
3.1695e-07
1.92756e-08
3.17091e-07
1.85264e-08
3.17227e-07
1.78204e-08
3.17359e-07
1.71523e-08
3.17487e-07
1.65178e-08
3.17613e-07
1.59134e-08
3.17737e-07
1.53359e-08
3.1786e-07
1.47825e-08
3.17982e-07
1.42502e-08
3.18104e-07
1.37363e-08
3.18226e-07
1.32381e-08
3.18348e-07
1.27527e-08
3.18472e-07
1.22774e-08
3.18596e-07
1.18094e-08
3.18722e-07
1.13461e-08
3.18849e-07
1.08846e-08
3.1898e-07
1.04221e-08
3.19113e-07
9.95604e-09
3.19249e-07
9.48301e-09
3.19389e-07
9.00047e-09
3.19534e-07
8.50445e-09
3.19683e-07
7.99216e-09
3.19838e-07
7.45915e-09
3.19999e-07
6.90192e-09
3.20167e-07
6.31637e-09
3.20342e-07
5.69739e-09
3.20526e-07
5.04324e-09
3.20721e-07
4.34653e-09
3.20929e-07
3.61031e-09
3.21152e-07
2.82667e-09
3.21402e-07
2.00069e-09
3.2169e-07
1.12454e-09
3.2204e-07
1.69496e-10
-9.26888e-10
3.22492e-07
3.16744e-07
2.42909e-08
3.19661e-07
4.69207e-08
3.20987e-07
4.36828e-08
3.21923e-07
3.76399e-08
3.22797e-07
3.56775e-08
3.2342e-07
3.4125e-08
3.23842e-07
3.17716e-08
3.24193e-07
2.95381e-08
3.24508e-07
2.77853e-08
3.24783e-07
2.63164e-08
3.25023e-07
2.49849e-08
3.25238e-07
2.3771e-08
3.25435e-07
2.2674e-08
3.25617e-07
2.16779e-08
3.25786e-07
2.07637e-08
3.25944e-07
1.99165e-08
3.26094e-07
1.91259e-08
3.26236e-07
1.83836e-08
3.26374e-07
1.76831e-08
3.26507e-07
1.70193e-08
3.26636e-07
1.63881e-08
3.26763e-07
1.57862e-08
3.26889e-07
1.52106e-08
3.27013e-07
1.46583e-08
3.27136e-07
1.41268e-08
3.27259e-07
1.36133e-08
3.27382e-07
1.3115e-08
3.27506e-07
1.26292e-08
3.2763e-07
1.21531e-08
3.27756e-07
1.16839e-08
3.27883e-07
1.12189e-08
3.28012e-07
1.07555e-08
3.28144e-07
1.02905e-08
3.28278e-07
9.82151e-09
3.28416e-07
9.34513e-09
3.28558e-07
8.85866e-09
3.28704e-07
8.35832e-09
3.28855e-07
7.84102e-09
3.29012e-07
7.30259e-09
3.29174e-07
6.73911e-09
3.29344e-07
6.1467e-09
3.29522e-07
5.51996e-09
3.29708e-07
4.85668e-09
3.29905e-07
4.14972e-09
3.30115e-07
3.39978e-09
3.30343e-07
2.59921e-09
3.30596e-07
1.74738e-09
3.30889e-07
8.32121e-10
3.31241e-07
-1.83146e-10
-1.3723e-09
3.31687e-07
3.26154e-07
2.19394e-08
3.28999e-07
4.40754e-08
3.3036e-07
4.23227e-08
3.31275e-07
3.6724e-08
3.32147e-07
3.4806e-08
3.32795e-07
3.34769e-08
3.33235e-07
3.13318e-08
3.33593e-07
2.91801e-08
3.33914e-07
2.7464e-08
3.34196e-07
2.60348e-08
3.34441e-07
2.47394e-08
3.34661e-07
2.35516e-08
3.34861e-07
2.24737e-08
3.35046e-07
2.14933e-08
3.35217e-07
2.05922e-08
3.35378e-07
1.97559e-08
3.35529e-07
1.89742e-08
3.35674e-07
1.8239e-08
3.35813e-07
1.75442e-08
3.35947e-07
1.68848e-08
3.36078e-07
1.62571e-08
3.36207e-07
1.56577e-08
3.36334e-07
1.50839e-08
3.36459e-07
1.4533e-08
3.36584e-07
1.40022e-08
3.36708e-07
1.3489e-08
3.36832e-07
1.29907e-08
3.36957e-07
1.25044e-08
3.37083e-07
1.20275e-08
3.37209e-07
1.15571e-08
3.37338e-07
1.10905e-08
3.37468e-07
1.0625e-08