/*--------------------------------*- C++ -*----------------------------------*\
  =========                 |
  \\      /  F ield         | OpenFOAM: The Open Source CFD Toolbox
   \\    /   O peration     | Website:  https://openfoam.org
    \\  /    A nd           | Version:  7
     \\/     M anipulation  |
\*---------------------------------------------------------------------------*/
FoamFile
{
    version     2.0;
    format      ascii;
    class       surfaceScalarField;
    location    "0.42";
    object      phi_0;
}
// * * * * * * * * * * * * * * * * * * * * * * * * * * * * * * * * * * * * * //

dimensions      [0 3 -1 0 0 0 0];

internalField   nonuniform List<scalar> 
139350
(
6.45933e-08
9.20382e-08
3.19534e-08
3.26399e-08
2.30645e-08
8.8889e-09
1.95728e-08
3.49169e-09
1.7624e-08
1.9488e-09
1.61997e-08
1.4243e-09
1.50702e-08
1.12948e-09
1.41601e-08
9.10173e-10
1.34117e-08
7.48423e-10
1.27819e-08
6.29801e-10
1.22419e-08
5.39999e-10
1.17723e-08
4.69542e-10
1.13595e-08
4.12811e-10
1.09932e-08
3.66276e-10
1.06657e-08
3.27527e-10
1.03709e-08
2.94838e-10
1.01039e-08
2.66941e-10
9.86103e-09
2.42886e-10
9.63908e-09
2.21949e-10
9.43551e-09
2.03568e-10
9.24821e-09
1.87304e-10
9.0754e-09
1.72804e-10
8.91562e-09
1.59784e-10
8.76761e-09
1.48011e-10
8.63032e-09
1.37293e-10
8.50285e-09
1.27468e-10
8.38445e-09
1.18397e-10
8.27449e-09
1.09965e-10
8.17242e-09
1.02064e-10
8.07781e-09
9.461e-11
7.99031e-09
8.75055e-11
7.9096e-09
8.07035e-11
7.83551e-09
7.40884e-11
7.76785e-09
6.76678e-11
7.70658e-09
6.12671e-11
7.65159e-09
5.49941e-11
7.60304e-09
4.85494e-11
7.56083e-09
4.22091e-11
7.52533e-09
3.55016e-11
7.49647e-09
2.88573e-11
7.47462e-09
2.18476e-11
7.46013e-09
1.44921e-11
7.45229e-09
7.83419e-12
7.45363e-09
-1.33938e-12
7.45817e-09
-4.53645e-12
7.47772e-09
-1.95468e-11
7.4825e-09
-4.78184e-12
7.53968e-09
-5.7177e-11
7.34265e-09
1.97027e-10
-3.27243e-09
1.06151e-08
1.26027e-07
1.27455e-07
9.12676e-08
6.73991e-08
7.19519e-08
2.82046e-08
6.12315e-08
1.42121e-08
5.47928e-08
8.38752e-09
5.03073e-08
5.90979e-09
4.68321e-08
4.60465e-09
4.40258e-08
3.71651e-09
4.17091e-08
3.06512e-09
3.97574e-08
2.58151e-09
3.80836e-08
2.2138e-09
3.66277e-08
1.92547e-09
3.53469e-08
1.69354e-09
3.42099e-08
1.50335e-09
3.31924e-08
1.345e-09
3.22758e-08
1.21142e-09
3.14453e-08
1.09744e-09
3.0689e-08
9.99174e-10
2.99973e-08
9.13675e-10
2.93622e-08
8.38652e-10
2.87772e-08
7.72305e-10
2.82368e-08
7.132e-10
2.77364e-08
6.60181e-10
2.72721e-08
6.12301e-10
2.68407e-08
5.68776e-10
2.64392e-08
5.28951e-10
2.60653e-08
4.92267e-10
2.5717e-08
4.5825e-10
2.53926e-08
4.26477e-10
2.50906e-08
3.96596e-10
2.48099e-08
3.68248e-10
2.45494e-08
3.41191e-10
2.43084e-08
3.15051e-10
2.40864e-08
2.89735e-10
2.38829e-08
2.64719e-10
2.36977e-08
2.40213e-10
2.3531e-08
2.15272e-10
2.33824e-08
1.90766e-10
2.32531e-08
1.64833e-10
2.31423e-08
1.39659e-10
2.30524e-08
1.11748e-10
2.29815e-08
8.54047e-11
2.2934e-08
5.52754e-11
2.29055e-08
2.71856e-11
2.29026e-08
-1.64513e-12
2.29184e-08
-3.53732e-11
2.29475e-08
-3.38809e-11
2.30406e-08
-1.50277e-10
2.29174e-08
3.20205e-10
-3.80866e-09
2.34537e-08
1.58808e-07
1.35051e-07
1.36499e-07
8.97084e-08
1.17504e-07
4.71993e-08
1.03335e-07
2.83808e-08
9.3339e-08
1.83837e-08
8.60491e-08
1.31998e-08
8.03562e-08
1.02976e-08
7.57188e-08
8.35387e-09
7.18549e-08
6.92903e-09
6.85776e-08
5.85878e-09
6.57539e-08
5.03756e-09
6.32889e-08
4.39048e-09
6.1114e-08
3.86836e-09
5.91782e-08
3.43915e-09
5.74422e-08
3.08102e-09
5.58752e-08
2.77838e-09
5.44529e-08
2.51976e-09
5.31555e-08
2.29655e-09
5.19671e-08
2.10215e-09
5.08743e-08
1.93146e-09
4.98661e-08
1.78045e-09
4.89334e-08
1.64589e-09
4.80684e-08
1.52519e-09
4.72645e-08
1.41622e-09
4.6516e-08
1.31722e-09
4.58183e-08
1.22672e-09
4.51671e-08
1.14345e-09
4.4559e-08
1.06635e-09
4.3991e-08
9.9448e-10
4.34606e-08
9.27033e-10
4.29656e-08
8.63245e-10
4.25042e-08
8.02518e-10
4.20752e-08
7.44111e-10
4.16772e-08
6.87695e-10
4.13096e-08
6.32284e-10
4.09717e-08
5.78116e-10
4.06636e-08
5.23374e-10
4.03847e-08
4.69713e-10
4.01364e-08
4.13134e-10
3.99173e-08
3.58751e-10
3.97316e-08
2.97447e-10
3.95748e-08
2.42197e-10
3.94569e-08
1.7314e-10
3.93652e-08
1.18885e-10
3.93214e-08
4.22413e-11
3.92962e-08
-1.02564e-11
3.93195e-08
-5.71824e-11
3.93869e-08
-2.17646e-10
3.94067e-08
3.00434e-10
-3.39472e-09
3.89927e-08
1.75664e-07
1.30902e-07
1.65598e-07
9.9775e-08
1.52733e-07
6.00645e-08
1.40143e-07
4.09705e-08
1.29466e-07
2.9061e-08
1.20837e-07
2.18287e-08
1.1374e-07
1.73938e-08
1.07777e-07
1.43176e-08
1.02694e-07
1.20114e-08
9.83109e-08
1.0242e-08
9.44872e-08
8.86124e-09
9.11175e-08
7.76018e-09
8.81219e-08
6.86397e-09
8.54389e-08
6.12218e-09
8.30202e-08
5.49973e-09
8.08273e-08
4.97128e-09
7.88291e-08
4.51793e-09
7.70003e-08
4.12538e-09
7.53199e-08
3.78259e-09
7.37704e-08
3.48093e-09
7.23373e-08
3.21355e-09
7.10082e-08
2.97497e-09
6.97727e-08
2.76071e-09
6.86218e-08
2.56712e-09
6.75479e-08
2.39115e-09
6.65443e-08
2.23026e-09
6.56055e-08
2.08227e-09
6.47265e-08
1.94531e-09
6.39033e-08
1.81778e-09
6.3132e-08
1.69824e-09
6.24099e-08
1.58541e-09
6.17342e-08
1.4782e-09
6.11029e-08
1.37542e-09
6.05142e-08
1.27637e-09
5.9967e-08
1.17952e-09
5.946e-08
1.08508e-09
5.89932e-08
9.9019e-10
5.85655e-08
8.97373e-10
5.81786e-08
8.00071e-10
5.78304e-08
7.06909e-10
5.75261e-08
6.01801e-10
5.72597e-08
5.0856e-10
5.7044e-08
3.88897e-10
5.68626e-08
3.00255e-10
5.67431e-08
1.61741e-10
5.66497e-08
8.31803e-11
5.66228e-08
-3.03003e-11
5.6635e-08
-2.29823e-10
5.66844e-08
2.50991e-10
-2.80926e-09
5.60989e-08
1.8456e-07
1.23127e-07
1.82323e-07
1.02013e-07
1.76109e-07
6.62785e-08
1.67774e-07
4.93057e-08
1.59162e-07
3.7673e-08
1.51266e-07
2.97241e-08
1.4421e-07
2.44504e-08
1.37928e-07
2.05992e-08
1.32347e-07
1.75923e-08
1.27383e-07
1.52062e-08
1.2295e-07
1.32943e-08
1.18971e-07
1.17388e-08
1.15383e-07
1.04527e-08
1.1213e-07
9.37472e-09
1.09169e-07
8.46086e-09
1.06462e-07
7.67832e-09
1.03978e-07
7.00216e-09
1.0169e-07
6.41313e-09
9.95763e-08
5.8961e-09
9.76181e-08
5.43911e-09
9.57992e-08
5.03254e-09
9.41055e-08
4.66858e-09
9.25254e-08
4.34086e-09
9.10484e-08
4.04408e-09
8.96657e-08
3.77384e-09
8.83696e-08
3.52638e-09
8.71533e-08
3.29854e-09
8.60111e-08
3.08756e-09
8.49378e-08
2.89106e-09
8.39291e-08
2.70692e-09
8.29813e-08
2.53324e-09
8.20911e-08
2.36838e-09
8.12559e-08
2.21061e-09
8.04735e-08
2.05881e-09
7.97421e-08
1.91087e-09
7.90604e-08
1.76684e-09
7.84277e-08
1.62285e-09
7.78429e-08
1.48216e-09
7.73073e-08
1.33564e-09
7.68189e-08
1.19534e-09
7.63825e-08
1.03821e-09
7.59925e-08
8.98616e-10
7.56609e-08
7.20466e-10
7.5373e-08
5.8812e-10
7.51533e-08
3.81442e-10
7.49732e-08
2.6334e-10
7.48614e-08
8.14187e-11
7.48029e-08
-1.71238e-10
7.47913e-08
2.6256e-10
-2.2032e-09
7.41852e-08
1.90389e-07
1.14955e-07
1.91853e-07
1.00548e-07
1.90248e-07
6.78839e-08
1.86162e-07
5.33908e-08
1.80732e-07
4.31031e-08
1.7499e-07
3.54669e-08
1.69307e-07
3.01325e-08
1.63841e-07
2.60659e-08
1.58685e-07
2.27479e-08
1.53882e-07
2.00089e-08
1.49436e-07
1.77413e-08
1.45328e-07
1.58465e-08
1.41535e-07
1.42454e-08
1.38031e-07
1.28787e-08
1.3479e-07
1.17024e-08
1.31786e-07
1.06819e-08
1.28998e-07
9.79052e-09
1.26404e-07
9.00664e-09
1.23987e-07
8.313e-09
1.21731e-07
7.69559e-09
1.1962e-07
7.14295e-09
1.17643e-07
6.64561e-09
1.15788e-07
6.19571e-09
1.14046e-07
5.78666e-09
1.12407e-07
5.41288e-09
1.10864e-07
5.06961e-09
1.09409e-07
4.75278e-09
1.08038e-07
4.45879e-09
1.06745e-07
4.18455e-09
1.05524e-07
3.92728e-09
1.04373e-07
3.68448e-09
1.03287e-07
3.45394e-09
1.02265e-07
3.23342e-09
1.01302e-07
3.02135e-09
1.00398e-07
2.81503e-09
9.95504e-08
2.61431e-09
9.87589e-08
2.41437e-09
9.80221e-08
2.219e-09
9.73409e-08
2.01684e-09
9.67135e-08
1.82267e-09
9.61441e-08
1.60767e-09
9.56282e-08
1.41448e-09
9.51753e-08
1.17336e-09
9.47757e-08
9.87797e-10
9.44448e-08
7.12311e-10
9.41694e-08
5.3868e-10
9.39559e-08
2.94918e-10
9.38125e-08
-2.78352e-11
9.37146e-08
3.60528e-10
-1.56431e-09
9.30757e-08
1.95541e-07
1.07229e-07
1.98248e-07
9.78408e-08
1.98971e-07
6.7161e-08
1.97794e-07
5.45679e-08
1.95168e-07
4.57293e-08
1.91835e-07
3.88e-08
1.88115e-07
3.38525e-08
1.84179e-07
3.00017e-08
1.80177e-07
2.67505e-08
1.76217e-07
2.39684e-08
1.72369e-07
2.15898e-08
1.6867e-07
1.95454e-08
1.65141e-07
1.77745e-08
1.61789e-07
1.62299e-08
1.58617e-07
1.48749e-08
1.55619e-07
1.36801e-08
1.52788e-07
1.26213e-08
1.50116e-07
1.16784e-08
1.47594e-07
1.08349e-08
1.45213e-07
1.00768e-08
1.42964e-07
9.39238e-09
1.40837e-07
8.7718e-09
1.38827e-07
8.20665e-09
1.36923e-07
7.68974e-09
1.35121e-07
7.21491e-09
1.33414e-07
6.7768e-09
1.31796e-07
6.37075e-09
1.30262e-07
5.99263e-09
1.28808e-07
5.63883e-09
1.27429e-07
5.30605e-09
1.26122e-07
4.99134e-09
1.24884e-07
4.69202e-09
1.23712e-07
4.40542e-09
1.22604e-07
4.12954e-09
1.21558e-07
3.86122e-09
1.20572e-07
3.60005e-09
1.19646e-07
3.34042e-09
1.18779e-07
3.08641e-09
1.17971e-07
2.82498e-09
1.17221e-07
2.57262e-09
1.16532e-07
2.29664e-09
1.15902e-07
2.04456e-09
1.15336e-07
1.73894e-09
1.14832e-07
1.4922e-09
1.14394e-07
1.1503e-09
1.14025e-07
9.07614e-10
1.13711e-07
6.08576e-10
1.13475e-07
2.0874e-10
1.13293e-07
5.42033e-10
-8.97439e-10
1.12626e-07
2.00848e-07
9.99652e-08
2.03777e-07
9.49123e-08
2.05329e-07
6.56085e-08
2.05647e-07
5.42498e-08
2.04825e-07
4.65516e-08
2.0335e-07
4.02747e-08
2.01412e-07
3.57912e-08
1.99093e-07
3.23199e-08
1.96501e-07
2.93427e-08
1.93737e-07
2.67321e-08
1.90883e-07
2.44446e-08
1.87997e-07
2.24311e-08
1.85125e-07
2.06466e-08
1.82298e-07
1.90567e-08
1.79539e-07
1.76343e-08
1.76861e-07
1.63574e-08
1.74275e-07
1.52074e-08
1.71785e-07
1.41684e-08
1.69394e-07
1.32267e-08
1.671e-07
1.23703e-08
1.64904e-07
1.15889e-08
1.62802e-07
1.08737e-08
1.60792e-07
1.02167e-08
1.5887e-07
9.61117e-09
1.57034e-07
9.05099e-09
1.5528e-07
8.53083e-09
1.53605e-07
8.04598e-09
1.52005e-07
7.59213e-09
1.50479e-07
7.1655e-09
1.49022e-07
6.76256e-09
1.47633e-07
6.38013e-09
1.4631e-07
6.01524e-09
1.45051e-07
5.66496e-09
1.43853e-07
5.327e-09
1.42716e-07
4.99786e-09
1.4164e-07
4.67688e-09
1.40622e-07
4.35793e-09
1.39663e-07
4.0451e-09
1.38764e-07
3.72433e-09
1.37924e-07
3.41278e-09
1.37145e-07
3.07588e-09
1.36427e-07
2.76265e-09
1.35772e-07
2.39377e-09
1.35183e-07
2.08111e-09
1.34656e-07
1.6767e-09
1.34207e-07
1.35695e-09
1.33809e-07
1.00631e-09
1.33485e-07
5.32798e-10
1.33232e-07
7.95368e-10
-2.29012e-10
1.32564e-07
2.06447e-07
9.305e-08
2.09341e-07
9.2019e-08
2.11039e-07
6.39098e-08
2.11935e-07
5.33537e-08
2.12008e-07
4.64792e-08
2.11626e-07
4.0656e-08
2.10904e-07
3.65135e-08
2.09843e-07
3.33806e-08
2.08482e-07
3.07043e-08
2.06878e-07
2.83364e-08
2.05086e-07
2.62358e-08
2.03157e-07
2.43603e-08
2.01132e-07
2.26714e-08
1.99048e-07
2.11411e-08
1.96933e-07
1.97489e-08
1.94812e-07
1.84788e-08
1.92702e-07
1.73171e-08
1.90618e-07
1.62522e-08
1.88571e-07
1.52738e-08
1.86569e-07
1.4373e-08
1.84616e-07
1.35416e-08
1.82717e-07
1.27724e-08
1.80875e-07
1.20589e-08
1.79091e-07
1.13953e-08
1.77366e-07
1.07763e-08
1.75699e-07
1.01972e-08
1.74092e-07
9.65345e-09
1.72543e-07
9.14119e-09
1.71051e-07
8.65675e-09
1.69617e-07
8.19668e-09
1.6824e-07
7.75784e-09
1.66918e-07
7.33721e-09
1.65651e-07
6.93179e-09
1.64439e-07
6.53917e-09
1.63281e-07
6.15568e-09
1.62177e-07
5.78048e-09
1.61128e-07
5.40718e-09
1.60133e-07
5.03971e-09
1.59194e-07
4.66357e-09
1.58311e-07
4.29576e-09
1.57486e-07
3.90155e-09
1.5672e-07
3.52865e-09
1.56013e-07
3.1006e-09
1.55372e-07
2.72149e-09
1.54789e-07
2.25969e-09
1.54285e-07
1.86119e-09
1.5383e-07
1.46088e-09
1.5344e-07
9.23309e-10
1.53135e-07
1.10044e-09
4.09088e-10
1.52497e-07
2.12289e-07
8.64232e-08
2.15153e-07
8.91547e-08
2.16794e-07
6.22696e-08
2.17848e-07
5.22996e-08
2.18266e-07
4.60608e-08
2.18387e-07
4.05353e-08
2.18317e-07
3.65833e-08
2.18026e-07
3.36718e-08
2.17506e-07
3.12244e-08
2.16775e-07
2.90669e-08
2.15859e-07
2.71526e-08
2.14781e-07
2.54382e-08
2.13567e-07
2.38847e-08
2.12244e-07
2.24644e-08
2.10834e-07
2.11586e-08
2.0936e-07
1.99534e-08
2.07839e-07
1.88378e-08
2.06288e-07
1.78029e-08
2.04721e-07
1.68407e-08
2.0315e-07
1.59447e-08
2.01583e-07
1.51086e-08
2.00028e-07
1.4327e-08
1.98492e-07
1.3595e-08
1.9698e-07
1.29077e-08
1.95495e-07
1.2261e-08
1.94041e-07
1.16509e-08
1.92621e-07
1.10736e-08
1.91236e-07
1.05258e-08
1.89889e-07
1.0004e-08
1.8858e-07
9.50531e-09
1.87312e-07
9.02671e-09
1.86083e-07
8.56535e-09
1.84897e-07
8.11834e-09
1.83753e-07
7.6833e-09
1.82652e-07
7.25654e-09
1.81595e-07
6.83719e-09
1.80584e-07
6.41873e-09
1.79618e-07
6.00491e-09
1.78701e-07
5.58125e-09
1.77832e-07
5.16399e-09
1.77015e-07
4.71951e-09
1.76251e-07
4.29227e-09
1.7554e-07
3.81197e-09
1.74891e-07
3.3702e-09
1.74293e-07
2.85765e-09
1.7377e-07
2.38448e-09
1.73294e-07
1.93632e-09
1.7287e-07
1.34726e-09
1.72542e-07
1.42827e-09
9.84393e-10
1.71967e-07
2.1833e-07
8.00736e-08
2.21207e-07
8.62778e-08
2.22766e-07
6.07102e-08
2.23847e-07
5.12186e-08
2.24375e-07
4.5533e-08
2.24673e-07
4.02371e-08
2.24879e-07
3.63773e-08
2.24966e-07
3.35855e-08
2.2491e-07
3.128e-08
2.24713e-07
2.92642e-08
2.24378e-07
2.74871e-08
2.23913e-07
2.59037e-08
2.23325e-07
2.44721e-08
2.22628e-07
2.31623e-08
2.21832e-07
2.19543e-08
2.20952e-07
2.08336e-08
2.2e-07
1.97895e-08
2.18989e-07
1.88135e-08
2.17931e-07
1.78988e-08
2.16836e-07
1.70397e-08
2.15714e-07
1.62311e-08
2.14572e-07
1.54688e-08
2.13418e-07
1.47486e-08
2.12259e-07
1.40669e-08
2.111e-07
1.34203e-08
2.09946e-07
1.28053e-08
2.088e-07
1.2219e-08
2.07667e-07
1.16585e-08
2.06551e-07
1.11208e-08
2.05453e-07
1.06034e-08
2.04376e-07
1.01035e-08
2.03323e-07
9.61859e-09
2.02295e-07
9.14591e-09
2.01295e-07
8.68325e-09
2.00325e-07
8.227e-09
1.99385e-07
7.77631e-09
1.98479e-07
7.32468e-09
1.97609e-07
6.87568e-09
1.96775e-07
6.41513e-09
1.95981e-07
5.95815e-09
1.95227e-07
5.47317e-09
1.94519e-07
5e-09
1.93855e-07
4.47671e-09
1.93245e-07
3.97971e-09
1.92678e-07
3.42447e-09
1.92177e-07
2.88537e-09
1.91721e-07
2.39211e-09
1.91304e-07
1.76484e-09
1.90988e-07
1.74442e-09
1.46522e-09
1.90507e-07
2.24559e-07
7.40079e-08
2.27471e-07
8.33655e-08
2.28963e-07
5.92183e-08
2.3005e-07
5.01323e-08
2.30619e-07
4.49638e-08
2.30966e-07
3.98901e-08
2.31261e-07
3.60819e-08
2.31495e-07
3.33515e-08
2.31648e-07
3.11273e-08
2.31717e-07
2.91951e-08
2.31702e-07
2.75019e-08
2.31601e-07
2.60043e-08
2.31415e-07
2.46588e-08
2.31144e-07
2.34334e-08
2.30792e-07
2.23058e-08
2.30365e-07
2.12605e-08
2.29869e-07
2.02855e-08
2.29311e-07
1.93719e-08
2.28697e-07
1.85126e-08
2.28035e-07
1.77019e-08
2.27331e-07
1.6935e-08
2.26592e-07
1.62078e-08
2.25824e-07
1.55169e-08
2.25032e-07
1.48588e-08
2.24221e-07
1.42305e-08
2.23398e-07
1.36292e-08
2.22564e-07
1.30523e-08
2.21726e-07
1.2497e-08
2.20886e-07
1.1961e-08
2.20047e-07
1.14417e-08
2.19214e-07
1.09368e-08
2.18389e-07
1.0444e-08
2.17574e-07
9.96068e-09
2.16772e-07
9.48476e-09
2.15987e-07
9.01271e-09
2.15219e-07
8.54378e-09
2.14472e-07
8.07155e-09
2.13749e-07
7.59934e-09
2.1305e-07
7.11354e-09
2.12381e-07
6.6278e-09
2.1174e-07
6.1133e-09
2.11136e-07
5.60433e-09
2.10564e-07
5.04848e-09
2.10038e-07
4.50607e-09
2.09546e-07
3.91698e-09
2.09107e-07
3.32361e-09
2.0871e-07
2.7892e-09
2.08339e-07
2.13599e-09
2.0807e-07
2.01365e-09
1.82481e-09
2.0771e-07
2.3098e-07
6.82341e-08
2.33936e-07
8.04093e-08
2.35369e-07
5.77856e-08
2.36461e-07
4.90398e-08
2.37064e-07
4.43609e-08
2.37427e-07
3.95277e-08
2.37744e-07
3.57648e-08
2.38024e-07
3.30716e-08
2.38252e-07
3.08992e-08
2.3843e-07
2.90169e-08
2.3856e-07
2.73717e-08
2.38641e-07
2.59238e-08
2.38669e-07
2.46306e-08
2.38643e-07
2.34591e-08
2.38563e-07
2.2386e-08
2.38429e-07
2.13947e-08
2.38242e-07
2.04723e-08
2.38005e-07
1.9609e-08
2.3772e-07
1.87971e-08
2.37392e-07
1.80304e-08
2.37023e-07
1.73041e-08
2.36617e-07
1.66139e-08
2.36177e-07
1.5956e-08
2.35709e-07
1.53274e-08
2.35214e-07
1.47249e-08
2.34698e-07
1.41459e-08
2.34162e-07
1.35877e-08
2.33611e-07
1.30479e-08
2.33048e-07
1.25242e-08
2.32476e-07
1.20141e-08
2.31897e-07
1.15154e-08
2.31315e-07
1.1026e-08
2.30733e-07
1.05432e-08
2.30152e-07
1.00652e-08
2.29576e-07
9.58848e-09
2.29008e-07
9.11226e-09
2.28449e-07
8.63024e-09
2.27903e-07
8.14545e-09
2.27372e-07
7.64498e-09
2.26859e-07
7.14078e-09
2.26365e-07
6.60719e-09
2.25897e-07
6.07251e-09
2.25451e-07
5.49418e-09
2.2504e-07
4.91687e-09
2.24655e-07
4.30247e-09
2.24311e-07
3.66746e-09
2.24003e-07
3.09657e-09
2.23712e-07
2.42726e-09
2.2352e-07
2.20628e-09
2.04514e-09
2.23299e-07
2.37601e-07
6.2758e-08
2.40603e-07
7.74067e-08
2.41979e-07
5.641e-08
2.43077e-07
4.79422e-08
2.43717e-07
4.37207e-08
2.44093e-07
3.91516e-08
2.44415e-07
3.54422e-08
2.44708e-07
3.2779e-08
2.44959e-07
3.06482e-08
2.45174e-07
2.88021e-08
2.45358e-07
2.71871e-08
2.45514e-07
2.57683e-08
2.45639e-07
2.45055e-08
2.45732e-07
2.33657e-08
2.45793e-07
2.23254e-08
2.4582e-07
2.13677e-08
2.45813e-07
2.04793e-08
2.45772e-07
1.965e-08
2.45698e-07
1.88715e-08
2.45591e-07
1.81375e-08
2.45452e-07
1.74425e-08
2.45284e-07
1.67821e-08
2.45088e-07
1.61524e-08
2.44865e-07
1.55502e-08
2.44618e-07
1.49721e-08
2.44348e-07
1.44155e-08
2.44058e-07
1.38776e-08
2.4375e-07
1.33558e-08
2.43426e-07
1.28479e-08
2.43089e-07
1.23515e-08
2.4274e-07
1.18642e-08
2.42382e-07
1.13839e-08
2.42018e-07
1.09079e-08
2.41648e-07
1.04345e-08
2.41277e-07
9.96001e-09
2.40905e-07
9.48374e-09
2.40536e-07
8.99948e-09
2.40172e-07
8.50977e-09
2.39814e-07
8.00262e-09
2.39467e-07
7.488e-09
2.39131e-07
6.94363e-09
2.38811e-07
6.39176e-09
2.38506e-07
5.79926e-09
2.38226e-07
5.19665e-09
2.37965e-07
4.5641e-09
2.37733e-07
3.89911e-09
2.37533e-07
3.29639e-09
2.37343e-07
2.61738e-09
2.37246e-07
2.30333e-09
2.12008e-09
2.37171e-07
2.44431e-07
5.75833e-08
2.47473e-07
7.43644e-08
2.488e-07
5.50833e-08
2.49898e-07
4.68444e-08
2.50577e-07
4.30417e-08
2.5097e-07
3.87583e-08
2.51297e-07
3.5115e-08
2.51596e-07
3.24808e-08
2.51854e-07
3.03892e-08
2.5208e-07
2.85763e-08
2.52282e-07
2.69853e-08
2.52464e-07
2.55869e-08
2.52625e-07
2.43436e-08
2.52768e-07
2.32233e-08
2.52891e-07
2.22026e-08
2.52993e-07
2.12648e-08
2.53076e-07
2.03968e-08
2.53138e-07
1.9588e-08
2.53179e-07
1.88303e-08
2.532e-07
1.8117e-08
2.532e-07
1.74426e-08
2.53179e-07
1.68024e-08
2.53139e-07
1.61926e-08
2.5308e-07
1.56096e-08
2.53002e-07
1.50501e-08
2.52906e-07
1.45111e-08
2.52794e-07
1.39899e-08
2.52666e-07
1.34837e-08
2.52524e-07
1.29901e-08
2.52368e-07
1.25067e-08
2.52202e-07
1.20309e-08
2.52025e-07
1.15606e-08
2.5184e-07
1.10931e-08
2.51648e-07
1.06265e-08
2.51451e-07
1.01571e-08
2.5125e-07
9.68413e-09
2.51048e-07
9.20145e-09
2.50847e-07
8.71106e-09
2.50648e-07
8.20193e-09
2.50454e-07
7.68195e-09
2.50265e-07
7.13224e-09
2.50088e-07
6.56922e-09
2.49919e-07
5.96826e-09
2.49767e-07
5.34789e-09
2.49629e-07
4.70218e-09
2.49512e-07
4.01654e-09
2.49422e-07
3.38582e-09
2.4934e-07
2.69969e-09
2.49345e-07
2.2989e-09
2.05614e-09
2.49409e-07
2.51478e-07
5.27118e-08
2.54551e-07
7.12919e-08
2.55839e-07
5.37951e-08
2.56932e-07
4.57516e-08
2.57648e-07
4.23248e-08
2.58062e-07
3.83448e-08
2.58395e-07
3.47818e-08
2.58699e-07
3.21772e-08
2.58963e-07
3.01249e-08
2.59194e-07
2.83456e-08
2.59401e-07
2.67779e-08
2.59591e-07
2.53973e-08
2.59765e-07
2.41697e-08
2.59924e-07
2.30636e-08
2.60071e-07
2.20564e-08
2.60204e-07
2.11314e-08
2.60325e-07
2.02759e-08
2.60434e-07
1.94794e-08
2.6053e-07
1.87339e-08
2.60614e-07
1.80328e-08
2.60686e-07
1.73705e-08
2.60746e-07
1.67425e-08
2.60794e-07
1.61449e-08
2.6083e-07
1.55739e-08
2.60853e-07
1.50263e-08
2.60866e-07
1.44989e-08
2.60866e-07
1.3989e-08
2.60856e-07
1.34938e-08
2.60836e-07
1.30105e-08
2.60806e-07
1.25367e-08
2.60767e-07
1.20699e-08
2.6072e-07
1.16076e-08
2.60666e-07
1.11472e-08
2.60606e-07
1.06865e-08
2.60541e-07
1.0222e-08
2.60473e-07
9.75251e-09
2.60402e-07
9.27221e-09
2.60331e-07
8.7824e-09
2.60259e-07
8.27307e-09
2.60191e-07
7.75001e-09
2.60126e-07
7.19755e-09
2.60068e-07
6.62684e-09
2.60016e-07
6.02043e-09
2.59977e-07
5.38734e-09
2.59948e-07
4.73121e-09
2.59933e-07
4.03121e-09
2.59944e-07
3.3751e-09
2.59963e-07
2.68088e-09
2.60062e-07
2.19925e-09
1.87072e-09
2.60248e-07
2.58751e-07
4.81436e-08
2.61844e-07
6.81992e-08
2.63104e-07
5.25349e-08
2.64187e-07
4.46692e-08
2.64939e-07
4.15727e-08
2.65374e-07
3.7909e-08
2.65715e-07
3.44415e-08
2.66024e-07
3.18677e-08
2.66294e-07
2.98548e-08
2.66529e-07
2.81107e-08
2.6674e-07
2.65672e-08
2.66933e-07
2.52044e-08
2.67111e-07
2.39915e-08
2.67276e-07
2.28983e-08
2.6743e-07
2.19023e-08
2.67574e-07
2.09873e-08
2.6771e-07
2.01406e-08
2.67837e-07
1.93525e-08
2.67956e-07
1.86147e-08
2.68068e-07
1.79208e-08
2.68173e-07
1.72656e-08
2.68271e-07
1.66445e-08
2.68362e-07
1.60536e-08
2.68447e-07
1.54894e-08
2.68524e-07
1.49485e-08
2.68596e-07
1.44278e-08
2.6866e-07
1.39245e-08
2.68718e-07
1.34356e-08
2.6877e-07
1.29585e-08
2.68817e-07
1.24906e-08
2.68857e-07
1.20291e-08
2.68893e-07
1.15718e-08
2.68924e-07
1.11157e-08
2.68952e-07
1.06588e-08
2.68977e-07
1.01973e-08
2.69e-07
9.72984e-09
2.69021e-07
9.2509e-09
2.69042e-07
8.76105e-09
2.69064e-07
8.2513e-09
2.69089e-07
7.72544e-09
2.69115e-07
7.17071e-09
2.69149e-07
6.59369e-09
2.69186e-07
5.98268e-09
2.69234e-07
5.33966e-09
2.69291e-07
4.67395e-09
2.69359e-07
3.96297e-09
2.69452e-07
3.2828e-09
2.69556e-07
2.57679e-09
2.69736e-07
2.01913e-09
1.58781e-09
2.70019e-07
2.66259e-07
4.3877e-08
2.69361e-07
6.50968e-08
2.70604e-07
5.12921e-08
2.71672e-07
4.36014e-08
2.72456e-07
4.07887e-08
2.72916e-07
3.74492e-08
2.73264e-07
3.40934e-08
2.73579e-07
3.15524e-08
2.73855e-07
2.95785e-08
2.74095e-07
2.78713e-08
2.74309e-07
2.63533e-08
2.74504e-07
2.50089e-08
2.74685e-07
2.3811e-08
2.74852e-07
2.27305e-08
2.7501e-07
2.17452e-08
2.75157e-07
2.08393e-08
2.75298e-07
2.00005e-08
2.75431e-07
1.9219e-08
2.75559e-07
1.8487e-08
2.75681e-07
1.77982e-08
2.75799e-07
1.71475e-08
2.75913e-07
1.65305e-08
2.76024e-07
1.59434e-08
2.7613e-07
1.53828e-08
2.76233e-07
1.48454e-08
2.76333e-07
1.43281e-08
2.7643e-07
1.3828e-08
2.76523e-07
1.33422e-08
2.76613e-07
1.28681e-08
2.76701e-07
1.24029e-08
2.76786e-07
1.1944e-08
2.76869e-07
1.14888e-08
2.7695e-07
1.10345e-08
2.7703e-07
1.05788e-08
2.77109e-07
1.01181e-08
2.77188e-07
9.65081e-09
2.77268e-07
9.17156e-09
2.77349e-07
8.68024e-09
2.77431e-07
8.16892e-09
2.77517e-07
7.63951e-09
2.77606e-07
7.08178e-09
2.77701e-07
6.49858e-09
2.77801e-07
5.88247e-09
2.7791e-07
5.23067e-09
2.78029e-07
4.55498e-09
2.78158e-07
3.83411e-09
2.78311e-07
3.13018e-09
2.7848e-07
2.40712e-09
2.78722e-07
1.77702e-09
1.23313e-09
2.79077e-07
2.7401e-07
3.99085e-08
2.77111e-07
6.19958e-08
2.78346e-07
5.00566e-08
2.79396e-07
4.25518e-08
2.80208e-07
3.99769e-08
2.80693e-07
3.69639e-08
2.8105e-07
3.37364e-08
2.81371e-07
3.12312e-08
2.81654e-07
2.92958e-08
2.81898e-07
2.76267e-08
2.82116e-07
2.6136e-08
2.82314e-07
2.48107e-08
2.82497e-07
2.36282e-08
2.82666e-07
2.25608e-08
2.82825e-07
2.15864e-08
2.82975e-07
2.06896e-08
2.83117e-07
1.98584e-08
2.83253e-07
1.90831e-08
2.83384e-07
1.83563e-08
2.8351e-07
1.76717e-08
2.83633e-07
1.70245e-08
2.83753e-07
1.64104e-08
2.83871e-07
1.58258e-08
2.83987e-07
1.52672e-08
2.841e-07
1.47316e-08
2.84212e-07
1.42159e-08
2.84323e-07
1.37172e-08
2.84433e-07
1.32326e-08
2.84541e-07
1.27595e-08
2.84649e-07
1.22951e-08
2.84757e-07
1.18366e-08
2.84864e-07
1.13816e-08
2.84971e-07
1.09271e-08
2.85079e-07
1.04709e-08
2.85188e-07
1.00092e-08
2.85299e-07
9.54029e-09
2.85411e-07
9.05916e-09
2.85526e-07
8.56498e-09
2.85645e-07
8.05075e-09
2.85767e-07
7.5168e-09
2.85894e-07
6.95494e-09
2.86028e-07
6.36514e-09
2.86167e-07
5.74289e-09
2.86315e-07
5.08248e-09
2.86474e-07
4.39588e-09
2.86644e-07
3.66469e-09
2.86837e-07
2.93669e-09
2.87054e-07
2.19085e-09
2.8734e-07
1.49101e-09
8.30141e-10
2.87743e-07
2.82013e-07
3.62329e-08
2.85101e-07
5.89075e-08
2.86339e-07
4.88188e-08
2.87368e-07
4.1523e-08
2.88203e-07
3.9142e-08
2.88715e-07
3.64517e-08
2.89082e-07
3.33694e-08
2.89409e-07
3.09043e-08
2.89698e-07
2.90066e-08
2.89948e-07
2.73768e-08
2.90169e-07
2.59148e-08
2.9037e-07
2.46096e-08
2.90556e-07
2.34431e-08
2.90727e-07
2.2389e-08
2.90888e-07
2.1426e-08
2.91039e-07
2.05385e-08
2.91182e-07
1.97149e-08
2.9132e-07
1.89459e-08
2.91452e-07
1.82241e-08
2.9158e-07
1.75435e-08
2.91705e-07
1.68995e-08
2.91828e-07
1.62879e-08
2.91948e-07
1.57052e-08
2.92067e-07
1.51481e-08
2.92185e-07
1.46136e-08
2.92303e-07
1.40987e-08
2.92419e-07
1.36004e-08
2.92536e-07
1.31161e-08
2.92652e-07
1.26429e-08
2.92769e-07
1.21781e-08
2.92887e-07
1.1719e-08
2.93005e-07
1.1263e-08
2.93125e-07
1.08072e-08
2.93247e-07
1.03492e-08
2.93371e-07
9.88531e-09
2.93498e-07
9.41371e-09
2.93627e-07
8.92956e-09
2.93761e-07
8.43148e-09
2.93898e-07
7.91328e-09
2.94041e-07
7.37396e-09
2.94189e-07
6.80693e-09
2.94344e-07
6.21005e-09
2.94506e-07
5.58056e-09
2.94678e-07
4.9113e-09
2.94861e-07
4.21277e-09
2.95055e-07
3.47006e-09
2.95275e-07
2.7174e-09
2.95522e-07
1.94351e-09
2.95837e-07
1.17591e-09
3.97953e-10
2.96269e-07
2.90279e-07
3.2843e-08
2.93342e-07
5.58438e-08
2.94591e-07
4.75697e-08
2.95597e-07
4.0517e-08
2.9645e-07
3.82891e-08
2.9699e-07
3.59118e-08
2.97369e-07
3.29909e-08
2.97701e-07
3.05717e-08
2.97997e-07
2.87109e-08
2.98253e-07
2.71211e-08
2.98478e-07
2.56894e-08
2.98682e-07
2.44053e-08
2.9887e-07
2.32553e-08
2.99044e-07
2.22151e-08
2.99206e-07
2.12637e-08
2.99359e-07
2.03858e-08
2.99504e-07
1.957e-08
2.99642e-07
1.88074e-08
2.99776e-07
1.80907e-08
2.99905e-07
1.74142e-08
3.00031e-07
1.67733e-08
3.00155e-07
1.61641e-08
3.00277e-07
1.55832e-08
3.00398e-07
1.50274e-08
3.00518e-07
1.44937e-08
3.00637e-07
1.39792e-08
3.00756e-07
1.34811e-08
3.00876e-07
1.29966e-08
3.00996e-07
1.25229e-08
3.01117e-07
1.20572e-08
3.01239e-07
1.15969e-08
3.01363e-07
1.11393e-08
3.01488e-07
1.06815e-08
3.01617e-07
1.0221e-08
3.01747e-07
9.7544e-09
3.01882e-07
9.27939e-09
3.0202e-07
8.79155e-09
3.02162e-07
8.28893e-09
3.0231e-07
7.76606e-09
3.02463e-07
7.22084e-09
3.02622e-07
6.64788e-09
3.02788e-07
6.04354e-09
3.02963e-07
5.40597e-09
3.03147e-07
4.72745e-09
3.03343e-07
4.0162e-09
3.03553e-07
3.26046e-09
3.03788e-07
2.4826e-09
3.04055e-07
1.67621e-09
3.04388e-07
8.42588e-10
-4.99231e-11
3.04836e-07
2.98816e-07
2.97299e-08
3.01843e-07
5.28167e-08
3.03111e-07
4.63016e-08
3.04093e-07
3.95347e-08
3.04959e-07
3.74238e-08
3.05527e-07
3.53436e-08
3.05918e-07
3.25994e-08
3.06257e-07
3.02333e-08
3.06559e-07
2.84087e-08
3.06821e-07
2.68593e-08
3.07051e-07
2.54596e-08
3.07258e-07
2.41977e-08
3.07449e-07
2.30647e-08
3.07625e-07
2.20388e-08
3.07789e-07
2.10994e-08
3.07944e-07
2.02314e-08
3.0809e-07
1.94237e-08
3.0823e-07
1.86677e-08
3.08364e-07
1.79562e-08
3.08495e-07
1.72838e-08
3.08622e-07
1.66461e-08
3.08747e-07
1.60393e-08
3.0887e-07
1.54601e-08
3.08992e-07
1.49055e-08
3.09113e-07
1.43725e-08
3.09234e-07
1.38584e-08
3.09354e-07
1.33603e-08
3.09476e-07
1.28755e-08
3.09597e-07
1.2401e-08
3.0972e-07
1.19343e-08
3.09845e-07
1.14725e-08
3.09971e-07
1.10131e-08
3.101e-07
1.0553e-08
3.10231e-07
1.00898e-08
3.10365e-07
9.62002e-09
3.10503e-07
9.14129e-09
3.10645e-07
8.64939e-09
3.10792e-07
8.14191e-09
3.10945e-07
7.61394e-09
3.11103e-07
7.06256e-09
3.11268e-07
6.48316e-09
3.1144e-07
5.87116e-09
3.11621e-07
5.22495e-09
3.11812e-07
4.53679e-09
3.12016e-07
3.81228e-09
3.12234e-07
3.042e-09
3.12478e-07
2.23857e-09
3.12758e-07
1.39629e-09
3.13102e-07
4.9838e-10
-5.03161e-10
3.13555e-07
3.07634e-07
2.68832e-08
3.10612e-07
4.98382e-08
3.11906e-07
4.50076e-08
3.12865e-07
3.85758e-08
3.13738e-07
3.65513e-08
3.14334e-07
3.47474e-08
3.1474e-07
3.21934e-08
3.15084e-07
2.98888e-08
3.15393e-07
2.81001e-08
3.15661e-07
2.65911e-08
3.15896e-07
2.52249e-08
3.16107e-07
2.39864e-08
3.16301e-07
2.28711e-08
3.1648e-07
2.186e-08
3.16646e-07
2.09329e-08
3.16802e-07
2.00751e-08
3.1695e-07
1.92758e-08
3.17092e-07
1.85265e-08
3.17227e-07
1.78204e-08
3.17359e-07
1.71522e-08
3.17487e-07
1.65177e-08
3.17613e-07
1.59133e-08
3.17737e-07
1.53359e-08
3.1786e-07
1.47825e-08
3.17983e-07
1.42503e-08
3.18105e-07
1.37366e-08
3.18227e-07
1.32384e-08
3.18349e-07
1.27531e-08
3.18472e-07
1.22779e-08
3.18596e-07
1.181e-08
3.18722e-07
1.13467e-08
3.1885e-07
1.08852e-08
3.1898e-07
1.04228e-08
3.19113e-07
9.95669e-09
3.1925e-07
9.48363e-09
3.1939e-07
9.00102e-09
3.19535e-07
8.50487e-09
3.19684e-07
7.9924e-09
3.19839e-07
7.45911e-09
3.2e-07
6.90148e-09
3.20168e-07
6.31536e-09
3.20343e-07
5.69561e-09
3.20528e-07
5.04041e-09
3.20722e-07
4.34227e-09
3.2093e-07
3.60418e-09
3.21154e-07
2.81803e-09
3.21404e-07
1.98884e-09
3.21692e-07
1.10849e-09
3.22042e-07
1.48241e-10
-9.54765e-10
3.22494e-07
3.16744e-07
2.42908e-08
3.19661e-07
4.69205e-08
3.20987e-07
4.36824e-08
3.21923e-07
3.76393e-08
3.22797e-07
3.56769e-08
3.2342e-07
3.41245e-08
3.23843e-07
3.17712e-08
3.24194e-07
2.95378e-08
3.24509e-07
2.77851e-08
3.24783e-07
2.63163e-08
3.25023e-07
2.4985e-08
3.25238e-07
2.37712e-08
3.25435e-07
2.26743e-08
3.25617e-07
2.16783e-08
3.25786e-07
2.0764e-08
3.25944e-07
1.99168e-08
3.26094e-07
1.91261e-08
3.26237e-07
1.83837e-08
3.26374e-07
1.76831e-08
3.26507e-07
1.70192e-08
3.26637e-07
1.6388e-08
3.26764e-07
1.57861e-08
3.26889e-07
1.52105e-08
3.27013e-07
1.46584e-08
3.27137e-07
1.41269e-08
3.2726e-07
1.36135e-08
3.27383e-07
1.31153e-08
3.27506e-07
1.26296e-08
3.27631e-07
1.21535e-08
3.27756e-07
1.16844e-08
3.27883e-07
1.12195e-08
3.28013e-07
1.07561e-08
3.28144e-07
1.02911e-08
3.28279e-07
9.82212e-09
3.28417e-07
9.3457e-09
3.28559e-07
8.85916e-09
3.28705e-07
8.35869e-09
3.28856e-07
7.84119e-09
3.29013e-07
7.30246e-09
3.29175e-07
6.73857e-09
3.29345e-07
6.14559e-09
3.29523e-07
5.51806e-09
3.2971e-07
4.85371e-09
3.29907e-07
4.1453e-09
3.30117e-07
3.39348e-09
3.30345e-07
2.59041e-09
3.30598e-07
1.73539e-09
3.30891e-07
8.16008e-10
3.31243e-07
-2.0435e-10
-1.3999e-09
3.31688e-07
3.26154e-07
2.19393e-08
3.28999e-07
4.40751e-08
3.3036e-07
4.23223e-08
3.31275e-07
3.67234e-08
3.32147e-07
3.48054e-08
3.32795e-07
3.34763e-08
3.33235e-07
3.13313e-08
3.33593e-07
2.91797e-08
3.33914e-07
2.74638e-08
3.34196e-07
2.60347e-08
3.34442e-07
2.47395e-08
3.34661e-07
2.35518e-08
3.34861e-07
2.2474e-08
3.35046e-07
2.14937e-08
3.35217e-07
2.05926e-08
3.35378e-07
1.97563e-08
3.3553e-07
1.89744e-08
3.35674e-07
1.82391e-08
3.35813e-07
1.75442e-08
3.35948e-07
1.68847e-08
3.36079e-07
1.62569e-08
3.36207e-07
1.56576e-08
3.36334e-07
1.50838e-08
3.36459e-07
1.45329e-08
3.36584e-07
1.40023e-08
3.36708e-07
1.34892e-08
3.36833e-07
1.2991e-08
3.36957e-07
1.25048e-08
3.37083e-07
1.20279e-08
3.3721e-07
1.15576e-08
3.37338e-07
1.10911e-08
3.37469e-07