/*--------------------------------*- C++ -*----------------------------------*\
  =========                 |
  \\      /  F ield         | OpenFOAM: The Open Source CFD Toolbox
   \\    /   O peration     | Website:  https://openfoam.org
    \\  /    A nd           | Version:  7
     \\/     M anipulation  |
\*---------------------------------------------------------------------------*/
FoamFile
{
    version     2.0;
    format      ascii;
    class       volScalarField;
    location    "0.42";
    object      yPlus;
}
// * * * * * * * * * * * * * * * * * * * * * * * * * * * * * * * * * * * * * //

dimensions      [0 0 0 0 0 0 0];

internalField   uniform 0;

boundaryField
{
    velocityInlet
    {
        type            calculated;
        value           uniform 0;
    }
    pressureOutlet
    {
        type            calculated;
        value           uniform 0;
    }
    fixedWalls
    {
        type            calculated;
        value           nonuniform List<scalar> 
100
(
1.85242
1.20799
0.248039
0.212413
0.38549
0.312998
0.149374
0.396194
0.514514
0.567487
0.566215
0.51929
0.45773
0.458636
0.580323
0.738242
0.826617
0.792494
0.619104
0.243209
0.49656
0.691183
0.794851
0.85177
0.882307
0.897757
0.90456
0.906303
0.905112
0.902467
0.899478
0.896608
0.893143
0.886858
0.874114
0.85035
0.810932
0.752461
0.674688
0.583036
0.491526
0.425257
0.411464
0.450249
0.510771
0.561148
0.580961
0.562413
0.516124
0.475537
0.48341
0.549563
0.642322
0.730067
0.798681
0.846589
0.878205
0.899298
0.913908
0.922654
0.922681
0.909184
0.877682
0.825777
0.753406
0.661991
0.554504
0.438271
0.332489
0.277825
0.307569
0.389033
0.47725
0.552498
0.609522
0.649315
0.675556
0.692752
0.705419
0.717498
0.731758
0.74923
0.770289
0.797005
0.834628
0.887129
0.9522
1.01962
1.07797
1.11162
1.1047
1.02747
0.854407
0.485531
0.561062
0.869368
1.00386
0.938812
0.855252
0.153343
)
;
    }
    bottomWall
    {
        type            calculated;
        value           nonuniform List<scalar> 
800
(
2.94479
1.98391
1.61344
1.44033
1.3552
1.29657
1.24763
1.20652
1.17198
1.14241
1.1166
1.09376
1.07335
1.05494
1.03823
1.02297
1.00895
0.996021
0.98404
0.9729
0.962506
0.952781
0.943657
0.935074
0.926984
0.919343
0.91211
0.905254
0.898743
0.892551
0.886653
0.881029
0.875659
0.870525
0.865613
0.860906
0.856393
0.852062
0.847902
0.843901
0.840052
0.836347
0.832776
0.829333
0.82601
0.822803
0.819704
0.816711
0.813813
0.811012
0.808664
0.806719
0.804795
0.802896
0.801023
0.799173
0.797346
0.795542
0.79376
0.792
0.790262
0.788543
0.786846
0.785168
0.783511
0.781872
0.780252
0.778652
0.777069
0.775504
0.773958
0.772427
0.770915
0.769418
0.767939
0.766475
0.765027
0.763594
0.762178
0.760775
0.759388
0.758014
0.756655
0.755311
0.75398
0.752662
0.751358
0.750067
0.748789
0.747522
0.746269
0.745028
0.743799
0.742582
0.741376
0.740183
0.739
0.737828
0.736668
0.735518
0.734379
0.733251
0.732133
0.731025
0.729926
0.728838
0.72776
0.726691
0.725632
0.724582
0.723542
0.722511
0.721489
0.720475
0.71947
0.718475
0.717486
0.716508
0.715536
0.714574
0.713618
0.712672
0.711732
0.7108
0.709876
0.70896
0.708051
0.707149
0.706255
0.705367
0.704486
0.703613
0.702746
0.701886
0.701032
0.700184
0.699344
0.69851
0.697682
0.69686
0.696044
0.695234
0.694431
0.693633
0.69284
0.692054
0.691272
0.690497
0.689727
0.688963
0.688321
0.687796
0.687268
0.686741
0.686211
0.685682
0.68515
0.684619
0.684085
0.68355
0.683014
0.682477
0.68194
0.681401
0.680861
0.68032
0.679777
0.679233
0.678689
0.678144
0.677598
0.67705
0.676501
0.675951
0.6754
0.674848
0.674296
0.673741
0.673186
0.672629
0.672072
0.671514
0.670955
0.670395
0.669833
0.669271
0.668707
0.668142
0.667577
0.66701
0.666442
0.665872
0.665303
0.664732
0.664159
0.663586
0.663011
0.662435
0.661858
0.66128
0.660701
0.660121
0.659539
0.658956
0.658372
0.657787
0.6572
0.656612
0.656022
0.655432
0.654841
0.654247
0.653652
0.653056
0.652459
0.65186
0.651259
0.650656
0.650053
0.649447
0.648841
0.648232
0.647622
0.647009
0.646395
0.64578
0.645162
0.644541
0.64392
0.643296
0.64267
0.642041
0.641411
0.640776
0.640145
0.639499
0.638869
0.638209
0.637587
0.6369
0.636301
0.635564
0.63502
0.634187
0.633759
0.632755
0.632527
0.63126
0.631323
0.629716
2.9448
1.98394
1.61354
1.44052
1.35549
1.29698
1.24817
1.2072
1.17281
1.14341
1.11778
1.09514
1.07493
1.05675
1.04028
1.02527
1.01153
0.998887
0.987216
0.976407
0.966369
0.957026
0.948313
0.940177
0.93257
0.925454
0.918797
0.912569
0.906746
0.901312
0.896249
0.891546
0.887197
0.883193
0.879536
0.876223
0.87326
0.870658
0.868405
0.866572
0.865037
0.864099
0.863205
0.863435
0.862813
0.864871
0.863217
0.868659
0.863313
0.842528
0.631371
1.0844
1.12338
1.05817
1.15551
0.762929
1.46692
2.35831
2.7018
2.83933
2.92485
2.97576
3.01099
3.01275
2.9616
2.82776
2.58199
2.18739
1.57975
1.13735
1.98078
2.65487
3.19524
3.6422
4.01498
4.32581
4.58345
4.79491
4.96612
5.10224
5.20782
5.28686
5.34275
5.37842
5.3963
5.39835
5.38555
5.35947
5.32129
5.27194
5.21211
5.14234
5.06305
4.97456
4.87717
4.7712
4.65707
4.53531
4.40661
4.27165
4.13112
3.98559
3.83543
3.68064
3.52074
3.35468
3.18064
2.99584
2.79623
2.57701
2.33066
2.04442
1.69628
1.2539
0.891504
1.31465
1.68025
1.91118
2.04885
2.12033
2.13977
2.13419
2.14167
2.19034
2.26822
2.32884
2.34769
2.33666
2.31517
2.28832
2.2505
2.1891
2.09585
1.97496
1.83929
1.69273
1.53026
1.3524
1.16529
0.97178
0.777166
0.623626
0.623439
0.729941
0.839808
0.936147
1.02347
1.10719
1.19014
1.27245
1.35226
1.42656
1.49255
1.54792
1.5908
1.61981
1.6346
1.6375
1.63398
1.62017
1.5977
1.56393
1.50999
1.42834
1.32155
1.20091
1.07505
0.935947
0.745585
0.466496
0.767725
1.14145
1.45099
1.72035
1.96688
2.19932
2.4199
2.62793
2.82221
3.00211
3.16762
3.31914
3.45725
3.58245
3.69526
3.79614
3.88544
3.96351
4.03066
4.08707
4.13294
4.16842
4.19371
4.20893
4.21398
4.20853
4.1934
4.16822
4.13306
4.08778
4.03231
3.9665
3.89019
3.80314
3.70513
3.59583
3.47493
3.34204
3.1967
3.03836
2.87477
2.69907
2.50973
2.30666
2.09325
1.88315
1.71418
1.65162
1.72496
1.88093
2.05863
2.22922
2.3841
2.53216
2.6633
2.77631
2.87195
2.95097
3.01408
3.06202
3.09545
3.11503
3.12159
3.1151
3.0966
3.06858
3.02969
2.9792
2.9175
2.84498
2.76197
2.66876
2.56675
2.45684
2.33828
2.21377
2.09258
2.00279
2.02635
2.31869
0.5588
1.20002
1.60818
1.84452
1.92016
1.91245
1.83836
1.73418
1.64709
1.67698
1.79263
1.92787
2.09285
2.23302
2.30892
2.32108
2.27278
2.14778
1.91634
1.55237
1.16875
1.6171
2.29902
2.91666
3.47499
3.95805
4.3599
4.69761
4.9986
5.24531
5.38356
5.4357
5.37386
5.21551
4.97918
4.64157
4.11643
3.25854
2.13128
2.22775
2.96755
3.4312
3.78026
4.07447
4.32562
4.52863
4.67682
4.76431
4.78801
4.74571
4.64336
4.48489
4.26936
3.99404
3.65274
3.23315
2.7114
2.04377
1.38548
2.00138
2.74494
3.354
3.87084
4.31792
4.70551
5.03775
5.31532
5.53653
5.69929
5.79932
5.8375
5.80467
5.7021
5.53381
5.30005
5.00629
4.66108
4.27322
3.85242
3.40167
2.91976
2.39864
1.82184
1.18873
1.38308
2.05873
2.72832
3.23866
3.38175
3.27479
3.13839
3.28359
3.50343
3.65766
3.72029
3.61451
3.30697
2.799
2.01576
0.691533
0.781341
1.85388
2.66608
2.69531
2.29004
1.85655
1.1795
0.934059
1.47735
1.77485
1.94613
2.05802
2.12664
2.15065
2.13173
2.06647
1.94163
1.78622
1.6865
1.68396
1.70267
1.64974
1.50194
1.31879
1.16393
1.06099
1.01651
1.03852
1.11829
1.22563
1.30869
1.32328
1.27066
1.1575
1.01149
0.911117
0.885984
1.02429
1.32135
1.61146
1.78125
1.80666
1.8405
1.98287
2.11409
2.13807
1.99447
1.66844
1.18493
1.24256
1.60291
1.80891
1.99989
2.22622
2.38021
2.38663
2.25808
2.04041
1.75555
1.40368
1.12091
1.35453
1.73818
2.08198
2.33849
2.48743
2.57056
2.62436
2.62652
2.55504
2.65191
3.12868
3.76927
4.33891
4.83004
5.52472
6.55121
7.31667
7.62303
7.7214
7.80398
7.85435
7.80703
7.74471
7.68729
7.59979
7.50966
7.4272
7.33917
7.2527
7.17262
7.09443
7.0192
6.9484
6.88036
6.8149
6.75223
6.69166
6.63286
6.57579
6.5201
6.46555
6.41204
6.3594
6.30747
6.25614
6.20532
6.15489
6.10477
6.05486
6.00509
5.95538
5.90566
5.85585
5.80588
5.75571
5.70526
5.65448
5.60332
5.55174
5.49969
5.44712
5.39401
5.3403
5.28597
5.23097
5.17526
5.1188
5.06155
5.00347
4.9445
4.88459
4.82369
4.76173
4.69867
4.63442
4.56891
4.50207
4.43382
4.36407
4.29274
4.21973
4.14492
4.06821
3.98947
3.90861
3.82544
3.73982
3.65159
3.56056
3.4665
3.36917
3.26832
3.16364
3.05479
2.94141
2.82311
2.69945
2.57003
2.43449
2.29273
2.14532
1.9939
1.85656
1.72912
1.63213
1.59665
1.64234
1.75586
1.90629
2.07045
2.23677
2.4007
2.56085
2.72057
2.8842
3.04489
3.2033
3.36007
3.51591
3.67149
3.82762
3.98505
4.1446
4.30713
4.47353
4.64471
4.82162
5.00517
5.19626
5.39588
5.60453
5.82384
6.05237
6.29567
6.54323
6.81862
7.07237
7.39771
7.58985
)
;
    }
    frontAndBack
    {
        type            empty;
    }
}


// ************************************************************************* //
