/*--------------------------------*- C++ -*----------------------------------*\
  =========                 |
  \\      /  F ield         | OpenFOAM: The Open Source CFD Toolbox
   \\    /   O peration     | Website:  https://openfoam.org
    \\  /    A nd           | Version:  7
     \\/     M anipulation  |
\*---------------------------------------------------------------------------*/
FoamFile
{
    version     2.0;
    format      ascii;
    class       surfaceScalarField;
    location    "0.06";
    object      ddtCorrDdt0(phi);
}
// * * * * * * * * * * * * * * * * * * * * * * * * * * * * * * * * * * * * * //

dimensions      [0 3 -2 0 0 0 0];

internalField   nonuniform List<scalar> 
139350
(
-2.98183e-12
-7.69906e-13
2.08902e-10
-2.22815e-10
7.83137e-10
-5.84026e-10
1.66327e-09
-8.89529e-10
2.76329e-09
-1.10931e-09
4.02413e-09
-1.26944e-09
5.39957e-09
-1.38467e-09
6.87358e-09
-1.48529e-09
8.45166e-09
-1.58955e-09
1.01315e-08
-1.69415e-09
1.19087e-08
-1.7904e-09
1.37674e-08
-1.87226e-09
1.5691e-08
-1.93606e-09
1.76622e-08
-1.98268e-09
1.96629e-08
-2.01414e-09
2.16863e-08
-2.03551e-09
2.37196e-08
-2.05075e-09
2.57709e-08
-2.06521e-09
2.78333e-08
-2.08072e-09
2.99188e-08
-2.0985e-09
3.20219e-08
-2.11746e-09
3.4147e-08
-2.13528e-09
3.62809e-08
-2.14744e-09
3.84249e-08
-2.15241e-09
4.05499e-08
-2.14331e-09
4.26618e-08
-2.11925e-09
4.47141e-08
-2.07258e-09
4.67061e-08
-1.99838e-09
4.85816e-08
-1.89088e-09
5.03149e-08
-1.73913e-09
5.18373e-08
-1.53615e-09
5.31029e-08
-1.26922e-09
5.40057e-08
-9.22512e-10
5.44851e-08
-4.77691e-10
5.43836e-08
7.99437e-11
5.35961e-08
7.92346e-10
5.19223e-08
1.66056e-09
4.91495e-08
2.77584e-09
4.50368e-08
4.10835e-09
3.92043e-08
5.83506e-09
3.13265e-08
7.87266e-09
2.08536e-08
1.04841e-08
7.13783e-09
1.37045e-08
-1.0563e-08
1.77296e-08
-3.33872e-08
2.28157e-08
-6.30351e-08
2.96857e-08
-1.00836e-07
3.7803e-08
-1.5355e-07
5.27418e-08
-2.09566e-07
5.59937e-08
2.51308e-07
-4.60898e-07
-1.08559e-11
5.53205e-12
5.99691e-10
-8.45186e-10
2.34918e-09
-2.34414e-09
5.13656e-09
-3.68699e-09
8.6422e-09
-4.62498e-09
1.26572e-08
-5.29383e-09
1.70604e-08
-5.79803e-09
2.18096e-08
-6.24698e-09
2.69146e-08
-6.70712e-09
3.23758e-08
-7.17098e-09
3.81733e-08
-7.60208e-09
4.42588e-08
-7.97244e-09
5.05777e-08
-8.26836e-09
5.7077e-08
-8.49445e-09
6.37126e-08
-8.66453e-09
7.04648e-08
-8.80095e-09
7.73203e-08
-8.9254e-09
8.42967e-08
-9.05666e-09
9.14012e-08
-9.20488e-09
9.86618e-08
-9.37306e-09
1.06087e-07
-9.55806e-09
1.13692e-07
-9.75157e-09
1.21472e-07
-9.94165e-09
1.2943e-07
-1.012e-08
1.37538e-07
-1.02715e-08
1.45799e-07
-1.03877e-08
1.54157e-07
-1.04521e-08
1.62597e-07
-1.04459e-08
1.71043e-07
-1.03527e-08
1.79436e-07
-1.01383e-08
1.87664e-07
-9.77941e-09
1.95623e-07
-9.23175e-09
2.03132e-07
-8.45303e-09
2.1003e-07
-7.37412e-09
2.16037e-07
-5.94956e-09
2.20884e-07
-4.05017e-09
2.24171e-07
-1.63977e-09
2.25434e-07
1.51627e-09
2.24109e-07
5.42891e-09
2.19389e-07
1.05575e-08
2.10522e-07
1.67339e-08
1.96169e-07
2.48502e-08
1.75143e-07
3.47178e-08
1.45244e-07
4.76612e-08
1.0463e-07
6.34209e-08
4.87437e-08
8.5612e-08
-2.35628e-08
1.10112e-07
-1.32338e-07
1.61545e-07
-2.56329e-07
1.79956e-07
5.20169e-07
-5.25215e-07
-9.76337e-11
9.79715e-11
4.56617e-10
-1.412e-09
2.6208e-09
-4.51964e-09
6.5951e-09
-7.67195e-09
1.1963e-08
-1.00035e-08
1.83133e-08
-1.16542e-08
2.54012e-08
-1.28968e-08
3.31242e-08
-1.39834e-08
4.14735e-08
-1.50699e-08
5.04495e-08
-1.61635e-08
6.00259e-08
-1.71937e-08
7.01328e-08
-1.80947e-08
8.06814e-08
-1.88313e-08
9.15835e-08
-1.94097e-08
1.02766e-07
-1.98626e-08
1.14192e-07
-2.02414e-08
1.25845e-07
-2.0599e-08
1.3775e-07
-2.09774e-08
1.49926e-07
-2.14022e-08
1.62419e-07
-2.18804e-08
1.75252e-07
-2.24074e-08
1.88457e-07
-2.29676e-08
2.02041e-07
-2.35412e-08
2.16022e-07
-2.41112e-08
2.30385e-07
-2.46555e-08
2.45144e-07
-2.51549e-08
2.60254e-07
-2.55851e-08
2.7571e-07
-2.59092e-08
2.91439e-07
-2.60989e-08
3.07385e-07
-2.60908e-08
3.2343e-07
-2.58406e-08
3.39456e-07
-2.52617e-08
3.55259e-07
-2.42791e-08
3.70643e-07
-2.27561e-08
3.85271e-07
-2.06012e-08
3.98807e-07
-1.7581e-08
4.1074e-07
-1.35866e-08
4.20483e-07
-8.22384e-09
4.27303e-07
-1.39518e-09
4.30158e-07
7.7051e-09
4.28029e-07
1.88563e-08
4.19138e-07
3.37561e-08
4.02033e-07
5.1809e-08
3.73565e-07
7.6164e-08
3.31666e-07
1.05311e-07
2.69989e-07
1.47331e-07
1.87947e-07
1.92157e-07
5.9848e-08
2.89673e-07
-9.85915e-08
3.38363e-07
7.9617e-07
-3.74618e-07
-1.54002e-10
2.46292e-10
5.68353e-11
-1.63602e-09
1.78725e-09
-6.26192e-09
5.75066e-09
-1.16465e-08
1.1818e-08
-1.6082e-08
1.95253e-08
-1.93722e-08
2.84681e-08
-2.18509e-08
3.84115e-08
-2.39409e-08
4.92723e-08
-2.5945e-08
6.1026e-08
-2.79347e-08
7.36449e-08
-2.98284e-08
8.70554e-08
-3.15213e-08
1.01153e-07
-3.29443e-08
1.15824e-07
-3.40944e-08
1.30966e-07
-3.50207e-08
1.46517e-07
-3.58076e-08
1.62445e-07
-3.65489e-08
1.7877e-07
-3.73192e-08
1.95514e-07
-3.81676e-08
2.12728e-07
-3.91096e-08
2.30446e-07
-4.01419e-08
2.48709e-07
-4.12426e-08
2.67536e-07
-4.23855e-08
2.86961e-07
-4.35456e-08
3.06978e-07
-4.46959e-08
3.27622e-07
-4.58068e-08
3.48862e-07
-4.68487e-08
3.70711e-07
-4.77661e-08
3.93114e-07
-4.85193e-08
4.1603e-07
-4.9014e-08
4.39356e-07
-4.91835e-08
4.62985e-07
-4.88942e-08
4.86715e-07
-4.80335e-08
5.10353e-07
-4.63915e-08
5.33543e-07
-4.38162e-08
5.55937e-07
-3.99692e-08
5.7697e-07
-3.46344e-08
5.96017e-07
-2.72676e-08
6.12237e-07
-1.76196e-08
6.24532e-07
-4.58677e-09
6.31673e-07
1.1708e-08
6.3172e-07
3.37241e-08
6.23003e-07
6.05124e-08
6.02051e-07
9.71523e-08
5.66364e-07
1.4099e-07
5.09171e-07
2.04566e-07
4.2917e-07
2.72161e-07
3.02327e-07
4.16544e-07
1.29043e-07
5.11609e-07
1.05241e-06
-1.27228e-07
-1.44312e-10
3.84551e-10
-2.49251e-10
-1.54477e-09
6.568e-10
-7.1803e-09
3.62411e-09
-1.46253e-08
9.0481e-09
-2.15175e-08
1.67402e-08
-2.70753e-08
2.62946e-08
-3.14172e-08
3.73455e-08
-3.50065e-08
4.9675e-08
-3.82893e-08
6.31791e-08
-4.14568e-08
7.78057e-08
-4.44715e-08
9.34857e-08
-4.72179e-08
1.10122e-07
-4.95962e-08
1.27596e-07
-5.15825e-08
1.45787e-07
-5.32289e-08
1.64609e-07
-5.46452e-08
1.84004e-07
-5.59658e-08
2.0397e-07
-5.73025e-08
2.24515e-07
-5.87351e-08
2.45682e-07
-6.02929e-08
2.67502e-07
-6.19785e-08
2.90013e-07
-6.37666e-08
3.13238e-07
-6.56274e-08
3.37212e-07
-6.753e-08
3.61939e-07
-6.9446e-08
3.87461e-07
-7.13375e-08
4.13761e-07
-7.31734e-08
4.40868e-07
-7.48814e-08
4.68744e-07
-7.64126e-08
4.97366e-07
-7.76439e-08
5.26651e-07
-7.84853e-08
5.5651e-07
-7.87576e-08
5.86757e-07
-7.83049e-08
6.17215e-07
-7.68473e-08
6.4753e-07
-7.41564e-08
6.77365e-07
-6.97983e-08
7.06134e-07
-6.3418e-08
7.33213e-07
-5.43432e-08
7.57696e-07
-4.21081e-08
7.78478e-07
-2.53654e-08
7.94241e-07
-4.06236e-09
8.02966e-07
2.50149e-08
8.02789e-07
6.06755e-08
7.90315e-07
1.09662e-07
7.62457e-07
1.6884e-07
7.1282e-07
2.54246e-07
6.383e-07
3.46684e-07
5.20503e-07
5.34368e-07
3.43607e-07
6.88466e-07
1.2855e-06
1.10495e-07
-1.09444e-10
4.87648e-10
-3.53666e-10
-1.31468e-09
-1.627e-10
-7.38399e-09
1.48395e-09
-1.62838e-08
5.38905e-09
-2.54345e-08
1.18142e-08
-3.35119e-08
2.06e-08
-4.02151e-08
3.14044e-08
-4.58261e-08
4.39146e-08
-5.08148e-08
5.79213e-08
-5.5482e-08
7.33136e-08
-5.98806e-08
9.00129e-08
-6.39343e-08
1.0794e-07
-6.75393e-08
1.26996e-07
-7.06529e-08
1.47065e-07
-7.33162e-08
1.6805e-07
-7.56463e-08
1.89868e-07
-7.78057e-08
2.12486e-07
-7.9939e-08
2.35886e-07
-8.21581e-08
2.60088e-07
-8.45106e-08
2.851e-07
-8.70088e-08
3.10949e-07
-8.96275e-08
3.37639e-07
-9.2336e-08
3.65199e-07
-9.51005e-08
3.93624e-07
-9.78947e-08
4.22954e-07
-1.00676e-07
4.53171e-07
-1.03416e-07
4.84311e-07
-1.0603e-07
5.16342e-07
-1.08462e-07
5.49256e-07
-1.10565e-07
5.8298e-07
-1.12227e-07
6.17447e-07
-1.13228e-07
6.52481e-07
-1.13365e-07
6.87931e-07
-1.12294e-07
7.23449e-07
-1.09699e-07
7.58717e-07
-1.05062e-07
7.93148e-07
-9.78631e-08
8.26129e-07
-8.7322e-08
8.56727e-07
-7.27109e-08
8.83861e-07
-5.24956e-08
9.06099e-07
-2.63081e-08
9.2154e-07
9.58999e-09
9.28018e-07
5.41834e-08
9.22436e-07
1.15281e-07
9.01136e-07
1.90131e-07
8.58428e-07
2.96996e-07
7.88962e-07
4.16153e-07
6.80664e-07
6.42691e-07
5.07416e-07
8.61672e-07
1.50037e-06
2.92515e-07
-9.11719e-11
5.72223e-10
-3.40163e-10
-1.08021e-09
-5.38539e-10
-7.19869e-09
4.57373e-11
-1.68802e-08
2.31239e-09
-2.77133e-08
6.87125e-09
-3.80825e-08
1.39067e-08
-4.72631e-08
2.32692e-08
-5.52043e-08
3.46805e-08
-6.22417e-08
4.78821e-08
-6.87027e-08
6.2709e-08
-7.47248e-08
7.90636e-08
-8.03063e-08
9.68859e-08
-8.53779e-08
1.16114e-07
-8.98964e-08
1.36667e-07
-9.38871e-08
1.5846e-07
-9.74555e-08
1.81401e-07
-1.0077e-07
2.05437e-07
-1.03994e-07
2.30519e-07
-1.07263e-07
2.56635e-07
-1.10644e-07
2.83767e-07
-1.14159e-07
3.11911e-07
-1.17784e-07
3.41047e-07
-1.2149e-07
3.71177e-07
-1.25241e-07
4.02272e-07
-1.29014e-07
4.34352e-07
-1.32766e-07
4.67386e-07
-1.36475e-07
5.01395e-07
-1.40048e-07
5.36342e-07
-1.43427e-07
5.72218e-07
-1.46448e-07
6.0895e-07
-1.48977e-07
6.46479e-07
-1.50762e-07
6.84638e-07
-1.51549e-07
7.23292e-07
-1.50946e-07
7.62103e-07
-1.48536e-07
8.00776e-07
-1.43729e-07
8.3873e-07
-1.35831e-07
8.75372e-07
-1.23961e-07
9.09766e-07
-1.0711e-07
9.40847e-07
-8.35729e-08
9.67154e-07
-5.2623e-08
9.86847e-07
-1.00873e-08
9.9761e-07
4.34071e-08
9.96579e-07
1.16348e-07
9.79702e-07
2.07e-07
9.42072e-07
3.34667e-07
8.76363e-07
4.81863e-07
7.75423e-07
7.43654e-07
6.10158e-07
1.02689e-06
1.69906e-06
4.11423e-07
-9.76322e-11
6.63034e-10
-3.08893e-10
-8.83832e-10
-6.2591e-10
-6.89508e-09
-6.38882e-10
-1.68797e-08
4.12758e-10
-2.87774e-08
3.24401e-09
-4.09257e-08
8.28323e-09
-5.23151e-08
1.561e-08
-6.25471e-08
2.50775e-08
-7.17252e-08
3.64639e-08
-8.01086e-08
4.95963e-08
-8.78749e-08
6.43732e-08
-9.51011e-08
8.07597e-08
-1.01781e-07
9.87455e-08
-1.07898e-07
1.18308e-07
-1.13468e-07
1.39409e-07
-1.18573e-07
1.6198e-07
-1.23365e-07
1.85968e-07
-1.28e-07
2.11307e-07
-1.32626e-07
2.37966e-07
-1.37319e-07
2.65899e-07
-1.4211e-07
2.95076e-07
-1.46974e-07
3.25444e-07
-1.51877e-07
3.56973e-07
-1.5678e-07
3.89597e-07
-1.61663e-07
4.23304e-07
-1.66482e-07
4.58028e-07
-1.71224e-07
4.93764e-07
-1.75792e-07
5.30448e-07
-1.80131e-07
5.68053e-07
-1.84062e-07
6.06491e-07
-1.87433e-07
6.45696e-07
-1.8997e-07
6.85493e-07
-1.91372e-07
7.25754e-07
-1.91204e-07
7.66149e-07
-1.88956e-07
8.06397e-07
-1.83973e-07
8.45938e-07
-1.75386e-07
8.84196e-07
-1.62217e-07
9.20263e-07
-1.43183e-07
9.5309e-07
-1.16396e-07
9.81229e-07
-8.07709e-08
1.00292e-06
-3.17578e-08
1.01576e-06
3.05526e-08
1.01712e-06
1.15021e-07
1.00271e-06
2.21404e-07
9.68336e-07
3.6908e-07
9.0551e-07
5.44691e-07
8.10126e-07
8.39058e-07
6.5527e-07
1.1817e-06
1.8807e-06
4.7359e-07
-1.14982e-10
7.70983e-10
-3.08714e-10
-7.05336e-10
-6.2024e-10
-6.59729e-09
-8.48978e-10
-1.66637e-08
-4.55395e-10
-2.91838e-08
1.20326e-09
-4.25967e-08
4.62338e-09
-5.57484e-08
1.00234e-08
-6.79636e-08
1.73851e-08
-7.91033e-08
2.65612e-08
-8.93045e-08
3.74085e-08
-9.87404e-08
4.98417e-08
-1.07552e-07
6.3857e-08
-1.15813e-07
7.95016e-08
-1.23558e-07
9.6828e-08
-1.30813e-07
1.15872e-07
-1.37635e-07
1.36623e-07
-1.44139e-07
1.59058e-07
-1.50455e-07
1.83128e-07
-1.5672e-07
2.08799e-07
-1.63008e-07
2.3602e-07
-1.69349e-07
2.64747e-07
-1.75715e-07
2.94909e-07
-1.82059e-07
3.26448e-07
-1.8833e-07
3.59264e-07
-1.94504e-07
3.93303e-07
-2.00531e-07
4.28458e-07
-2.06405e-07
4.64685e-07
-2.12029e-07
5.01882e-07
-2.17346e-07
5.39986e-07
-2.22174e-07
5.78877e-07
-2.26343e-07
6.18463e-07
-2.2956e-07
6.58549e-07
-2.31484e-07
6.98993e-07
-2.31647e-07
7.39466e-07
-2.29455e-07
7.79691e-07
-2.24194e-07
8.19131e-07
-2.1484e-07
8.57228e-07
-2.00311e-07
8.93126e-07
-1.79086e-07
9.25801e-07
-1.49067e-07
9.53857e-07
-1.08836e-07
9.75645e-07
-5.35299e-08
9.8873e-07
1.74548e-08
9.90776e-07
1.1301e-07
9.77373e-07
2.348e-07
9.44908e-07
4.01583e-07
8.84689e-07
6.0491e-07
7.9433e-07
9.29435e-07
6.51606e-07
1.32437e-06
2.04348e-06
4.88784e-07
-1.31521e-10
8.95266e-10
-3.32409e-10
-5.20024e-10
-6.24169e-10
-6.31959e-09
-8.83542e-10
-1.64173e-08
-7.30477e-10
-2.93499e-08
3.37426e-10
-4.36772e-08
2.76368e-09
-5.81881e-08
6.79181e-09
-7.20085e-08
1.24556e-08
-8.47839e-08
1.96569e-08
-9.6526e-08
2.82816e-08
-1.07384e-07
3.82592e-08
-1.17549e-07
4.96085e-08
-1.2718e-07
6.24233e-08
-1.36389e-07
7.68263e-08
-1.45236e-07
9.2936e-08
-1.53762e-07
1.10816e-07
-1.62044e-07
1.30507e-07
-1.70165e-07
1.51998e-07
-1.78235e-07
1.75285e-07
-1.86312e-07
2.00335e-07
-1.94419e-07
2.27119e-07
-2.02512e-07
2.5557e-07
-2.10529e-07
2.85622e-07
-2.18394e-07
3.17157e-07
-2.26064e-07
3.50091e-07
-2.33475e-07
3.8428e-07
-2.40619e-07
4.19637e-07
-2.47395e-07
4.56018e-07
-2.53746e-07
4.9332e-07
-2.59484e-07
5.31379e-07
-2.64422e-07
5.70067e-07
-2.68252e-07
6.09153e-07
-2.70596e-07
6.48465e-07
-2.70958e-07
6.87661e-07
-2.68675e-07
7.26451e-07
-2.6298e-07
7.64323e-07
-2.52726e-07
8.00729e-07
-2.36715e-07
8.34881e-07
-2.13243e-07
8.65799e-07
-1.79982e-07
8.92166e-07
-1.35212e-07
9.12481e-07
-7.38287e-08
9.24345e-07
5.57716e-09
9.25721e-07
1.11668e-07
9.12318e-07
2.48197e-07
8.80916e-07
4.33021e-07
8.23411e-07
6.62415e-07
7.38505e-07
1.01435e-06
6.09435e-07
1.45339e-06
2.18568e-06
4.67173e-07
-1.43814e-10
1.03164e-09
-3.63695e-10
-3.16057e-10
-6.5412e-10
-6.04355e-09
-8.9636e-10
-1.61883e-08
-7.79994e-10
-2.94796e-08
9.2942e-11
-4.45631e-08
2.07534e-09
-6.01843e-08
5.35633e-09
-7.53066e-08
9.95912e-09
-8.94038e-08
1.57881e-08
-1.02376e-07
2.27232e-08
-1.14337e-07
3.06862e-08
-1.2553e-07
3.96939e-08
-1.36205e-07
4.98575e-08
-1.46569e-07
6.13438e-08
-1.56742e-07
7.43353e-08
-1.66772e-07
8.89671e-08
-1.76701e-07
1.05345e-07
-1.86563e-07
1.23513e-07
-1.96428e-07
1.43511e-07
-2.06328e-07
1.65347e-07
-2.16274e-07
1.89028e-07
-2.26207e-07
2.14518e-07
-2.36039e-07
2.41771e-07
-2.45658e-07
2.70674e-07
-2.54993e-07
3.01136e-07
-2.63948e-07
3.32991e-07
-2.725e-07
3.66123e-07
-2.80537e-07
4.00355e-07
-2.87997e-07
4.35546e-07
-2.94683e-07
4.71494e-07
-3.00389e-07
5.08027e-07
-3.04791e-07
5.44879e-07
-3.07474e-07
5.81835e-07
-3.07913e-07
6.18529e-07
-3.05394e-07
6.54646e-07
-2.99094e-07
6.89687e-07
-2.87781e-07
7.23112e-07
-2.70139e-07
7.54195e-07
-2.44332e-07
7.82025e-07
-2.07808e-07
8.05379e-07
-1.58575e-07
8.22929e-07
-9.13633e-08
8.32423e-07
-3.92998e-09
8.32006e-07
1.12118e-07
8.17874e-07
2.62323e-07
7.87034e-07
4.63895e-07
7.32456e-07
7.1699e-07
6.53762e-07
1.09306e-06
5.39483e-07
1.56761e-06
2.30627e-06
4.18833e-07
-1.53425e-10
1.17741e-09
-3.93636e-10
-9.2094e-11
-6.98721e-10
-5.75319e-09
-9.29913e-10
-1.59707e-08
-7.87951e-10
-2.96351e-08
7.39645e-11
-4.54382e-08
1.94242e-09
-6.20668e-08
4.948e-09
-7.83296e-08
9.0639e-09
-9.35373e-08
1.41576e-08
-1.0749e-07
2.00805e-08
-1.2028e-07
2.67223e-08
-1.32192e-07
3.40711e-08
-1.43572e-07
4.22227e-08
-1.54738e-07
5.13508e-08
-1.6589e-07
6.16672e-08
-1.77107e-07
7.33508e-08
-1.8841e-07
8.65558e-08
-1.99788e-07
1.01372e-07
-2.11269e-07
1.17883e-07
-2.22857e-07
1.3614e-07
-2.3455e-07
1.56192e-07
-2.46274e-07
1.78049e-07
-2.57916e-07
2.01706e-07
-2.69327e-07
2.27078e-07
-2.80391e-07
2.54088e-07
-2.90969e-07
2.82571e-07
-3.01009e-07
3.12402e-07
-3.10378e-07
3.43386e-07
-3.19e-07
3.75358e-07
-3.26664e-07
4.08093e-07
-3.33143e-07
4.41386e-07
-3.38089e-07
4.74937e-07
-3.41052e-07
5.08495e-07
-3.4147e-07
5.41664e-07
-3.38587e-07
5.74098e-07
-3.31526e-07
6.053e-07
-3.18997e-07
6.34736e-07
-2.99573e-07
6.61729e-07
-2.71331e-07
6.85449e-07
-2.31525e-07
7.04776e-07
-1.7791e-07
7.1856e-07
-1.05132e-07
7.24767e-07
-1.01506e-08
7.21767e-07
1.1515e-07
7.06283e-07
2.778e-07
6.75641e-07
4.94569e-07
6.24091e-07
7.68535e-07
5.52185e-07
1.16497e-06
4.53103e-07
1.66664e-06
2.40527e-06
3.54037e-07
-1.62417e-10
1.33197e-09
-4.21121e-10
1.50027e-10
-7.46855e-10
-5.44251e-09
-9.79819e-10
-1.57516e-08
-8.08736e-10
-2.98201e-08
9.97168e-11
-4.63602e-08
2.00057e-09
-6.39821e-08
4.98328e-09
-8.13302e-08
8.97798e-09
-9.755e-08
1.38099e-08
-1.12344e-07
1.92891e-08
-1.25779e-07
2.52633e-08
-1.38185e-07
3.16785e-08
-1.50006e-07
3.85946e-08
-1.61671e-07
4.61628e-08
-1.73479e-07
5.45906e-08
-1.85553e-07
6.40676e-08
-1.97913e-07
7.47666e-08
-2.10508e-07
8.67992e-08
-2.23327e-07
1.00275e-07
-2.36352e-07
1.15273e-07
-2.49568e-07
1.31877e-07
-2.62893e-07
1.50142e-07
-2.762e-07
1.70101e-07
-2.89299e-07
1.9171e-07
-3.02026e-07
2.14918e-07
-3.14189e-07
2.39581e-07
-3.25697e-07
2.65578e-07
-3.36385e-07
2.92713e-07
-3.46155e-07
3.20818e-07
-3.54779e-07
3.49658e-07
-3.62002e-07
3.79011e-07
-3.67448e-07
4.08562e-07
-3.70628e-07
4.38029e-07
-3.70937e-07
4.66998e-07
-3.6758e-07
4.95094e-07
-3.5962e-07
5.21815e-07
-3.45731e-07
5.46631e-07
-3.24388e-07
5.68902e-07
-2.93608e-07
5.87881e-07
-2.50501e-07
6.02549e-07
-1.92586e-07
6.11934e-07
-1.14503e-07
6.14265e-07
-1.24944e-08
6.08113e-07
1.21333e-07
5.90814e-07
2.95092e-07
5.60065e-07
5.25347e-07
5.11442e-07
8.17151e-07
4.46446e-07
1.22997e-06
3.62041e-07
1.75098e-06
2.48399e-06
2.83242e-07
-1.71728e-10
1.49562e-09
-4.476e-10
4.08982e-10
-7.94916e-10
-5.1106e-09
-1.0359e-09
-1.55248e-08
-8.43277e-10
-3.0027e-08
1.18969e-10
-4.73364e-08
2.09646e-09
-6.59743e-08
5.15994e-09
-8.44119e-08
9.21242e-09
-1.01621e-07
1.40476e-08
-1.17201e-07
1.94413e-08
-1.31193e-07
2.52044e-08
-1.43969e-07
3.12432e-08
-1.56063e-07
3.75791e-08
-1.68024e-07
4.43304e-08
-1.80251e-07
5.16804e-08
-1.92923e-07
5.98031e-08
-2.06062e-07
6.88656e-08
-2.19592e-07
7.89787e-08
-2.33466e-07
9.02547e-08
-2.47647e-07
1.02771e-07
-2.62104e-07
1.16636e-07
-2.76773e-07
1.31935e-07
-2.91519e-07
1.48722e-07
-3.061e-07
1.66986e-07
-3.20315e-07
1.86705e-07
-3.33921e-07
2.07757e-07
-3.46774e-07
2.30035e-07
-3.58675e-07
2.53356e-07
-3.69495e-07
2.77554e-07
-3.78986e-07
3.02399e-07
-3.86866e-07
3.2767e-07
-3.92724e-07
3.53048e-07
-3.96032e-07
3.78241e-07
-3.96131e-07
4.02822e-07
-3.92186e-07
4.26402e-07
-3.83198e-07
4.48473e-07
-3.67816e-07
4.68511e-07
-3.44425e-07
4.85906e-07
-3.11009e-07
4.99982e-07
-2.64574e-07
5.09825e-07
-2.02438e-07
5.14614e-07
-1.19279e-07
5.12856e-07
-1.0749e-08
5.03317e-07
1.30901e-07
4.83939e-07
3.14464e-07
4.52855e-07
5.56457e-07
4.06877e-07
8.63119e-07
3.48422e-07
1.28842e-06
2.77318e-07
1.82202e-06
2.54493e-06
2.16295e-07
-1.81477e-10
1.6688e-09
-4.76701e-10
6.86953e-10
-8.43125e-10
-4.75994e-09
-1.09353e-09
-1.52889e-08
-8.83587e-10
-3.02515e-08
1.29704e-10
-4.83639e-08
2.19118e-09
-6.80509e-08
5.36581e-09
-8.76052e-08
9.54315e-09
-1.05817e-07
1.44977e-08
-1.22177e-07
1.99831e-08
-1.36699e-07
2.57855e-08
-1.49792e-07
3.17838e-08
-1.62081e-07
3.79703e-08
-1.74229e-07
4.44342e-08
-1.86736e-07
5.1332e-08
-1.9984e-07
5.88166e-08
-2.13573e-07
6.70328e-08
-2.27829e-07
7.60769e-08
-2.42536e-07
8.60376e-08
-2.57627e-07
9.70119e-08
-2.73099e-07
1.09087e-07
-2.88863e-07
1.22318e-07
-3.04771e-07
1.36808e-07
-3.20602e-07
1.5256e-07
-3.36094e-07
1.6957e-07
-3.50944e-07
1.87729e-07
-3.6496e-07
2.06943e-07
-3.779e-07
2.27037e-07
-3.89608e-07
2.47856e-07
-3.99814e-07
2.69177e-07
-4.08207e-07
2.90787e-07
-4.14341e-07
3.12376e-07
-4.17646e-07
3.33651e-07
-4.17407e-07
3.54187e-07
-4.12745e-07
3.73588e-07
-4.02597e-07
3.91347e-07
-3.85589e-07
4.0695e-07
-3.60029e-07
4.19811e-07
-3.23876e-07
4.29315e-07
-2.74076e-07
4.34645e-07
-2.07778e-07
4.35105e-07
-1.19726e-07
4.2947e-07
-5.12623e-09
4.1668e-07
1.43718e-07
3.95223e-07
3.35914e-07
3.6372e-07
5.87984e-07
3.20043e-07
9.06782e-07
2.67416e-07
1.34103e-06
2.07667e-07
1.8817e-06
2.59135e-06
1.61169e-07
-1.91552e-10
1.85183e-09
-5.07357e-10
9.85168e-10
-8.92241e-10
-4.39119e-09
-1.15195e-09
-1.5044e-08
-9.25495e-10
-3.04928e-08
1.37933e-10
-4.94419e-08
2.28394e-09
-7.02125e-08
5.57636e-09
-9.09166e-08
9.8982e-09
-1.10158e-07
1.50125e-08
-1.27314e-07
2.06596e-08
-1.42367e-07
2.66114e-08
-1.55764e-07
3.27318e-08
-1.68221e-07
3.89966e-08
-1.80512e-07
4.54772e-08
-1.93239e-07
5.23114e-08
-2.06694e-07
5.96315e-08
-2.2092e-07
6.75641e-08
-2.35784e-07
7.61825e-08
-2.5118e-07
8.55655e-08
-2.67029e-07
9.57647e-08
-2.83319e-07
1.06872e-07
-2.99986e-07
1.18967e-07
-3.16887e-07
1.32114e-07
-3.33763e-07
1.46319e-07
-3.50325e-07
1.61581e-07
-3.66219e-07
1.77797e-07
-3.81202e-07
1.94879e-07
-3.94994e-07
2.12657e-07
-4.07406e-07
2.30978e-07
-4.18145e-07
2.4963e-07
-4.26878e-07
2.68407e-07
-4.33124e-07
2.87006e-07
-4.36271e-07
3.05143e-07
-4.35546e-07
3.22398e-07
-4.30023e-07
3.38376e-07
-4.18575e-07
3.52578e-07
-3.99804e-07
3.64503e-07
-3.71954e-07
3.73585e-07
-3.32966e-07
3.79262e-07
-2.79751e-07
3.80801e-07
-2.09326e-07
3.77596e-07
-1.16509e-07
3.68681e-07
3.7775e-09
3.53134e-07
1.5929e-07
3.29893e-07
3.59146e-07
2.98083e-07
6.19813e-07
2.56439e-07
9.4841e-07
2.08817e-07
1.38864e-06
1.58302e-07
1.93214e-06
2.62669e-06
1.22872e-07
-2.01865e-10
2.04494e-09
-5.38923e-10
1.3043e-09
-9.42597e-10
-4.00403e-09
-1.21141e-09
-1.47903e-08
-9.6809e-10
-3.07513e-08
1.46819e-10
-5.05718e-08
2.37915e-09
-7.24607e-08
5.7922e-09
-9.43491e-08
1.02648e-08
-1.1465e-07
1.55515e-08
-1.32624e-07
2.13835e-08
-1.4822e-07
2.75246e-08
-1.61927e-07
3.38317e-08
-1.74548e-07
4.02738e-08
-1.86973e-07
4.6915e-08
-1.99902e-07
5.38834e-08
-2.13684e-07
6.12999e-08
-2.28364e-07
6.92771e-08
-2.43784e-07
7.78735e-08
-2.59804e-07
8.71506e-08
-2.76326e-07
9.71514e-08
-2.93341e-07
1.07945e-07
-3.10796e-07
1.19593e-07
-3.28556e-07
1.32158e-07
-3.46343e-07
1.45637e-07
-3.6383e-07
1.60022e-07
-3.80617e-07
1.75205e-07
-3.96411e-07
1.9109e-07
-4.10891e-07
2.07505e-07
-4.2384e-07
2.24297e-07
-4.34948e-07
2.41254e-07
-4.43855e-07
2.58175e-07
-4.50052e-07
2.74763e-07
-4.52885e-07
2.90737e-07
-4.51522e-07
3.05687e-07
-4.44996e-07
3.19222e-07
-4.32111e-07
3.30852e-07
-4.11448e-07
3.4009e-07
-3.81193e-07
3.46389e-07
-3.39272e-07
3.49226e-07
-2.82587e-07
3.4795e-07
-2.0806e-07
3.42009e-07
-1.10557e-07
3.30659e-07
1.51156e-08
3.13118e-07
1.76854e-07
2.88648e-07
3.83607e-07
2.56859e-07
6.51618e-07
2.17155e-07
9.88094e-07
1.73818e-07
1.43196e-06
1.30637e-07
1.97525e-06
2.65405e-06
1.03181e-07
-2.12383e-10
2.24833e-09
-5.71324e-10
1.64497e-09
-9.94229e-10
-3.59802e-09
-1.2721e-09
-1.45279e-08
-1.01147e-09
-3.10275e-08
1.57091e-10
-5.17557e-08
2.47892e-09
-7.47988e-08
6.01627e-09
-9.79063e-08
1.06442e-08
-1.19299e-07
1.61095e-08
-1.38113e-07
2.21351e-08
-1.54268e-07
2.84793e-08
-1.68293e-07
3.49956e-08
-1.81085e-07
4.16519e-08
-1.93649e-07
4.85114e-08
-2.06784e-07
5.56995e-08
-2.20893e-07
6.33325e-08
-2.36025e-07
7.15158e-08
-2.5199e-07
8.03e-08
-2.68615e-07
8.97363e-08
-2.85783e-07
9.98592e-08
-3.03486e-07
1.10728e-07
-3.21681e-07
1.2239e-07
-3.40239e-07
1.34898e-07
-3.58866e-07
1.48238e-07
-3.77198e-07
1.62391e-07
-3.94784e-07
1.77239e-07
-4.11285e-07
1.92677e-07
-4.26342e-07
2.08526e-07
-4.39709e-07
2.24627e-07
-4.51059e-07
2.40763e-07
-4.60012e-07
2.56729e-07
-4.66025e-07
2.72232e-07
-4.68412e-07
2.86991e-07
-4.66284e-07
3.00601e-07
-4.58629e-07
3.12677e-07
-4.44188e-07
3.22733e-07
-4.21518e-07
3.303e-07
-3.8876e-07
3.34847e-07
-3.43827e-07
3.35882e-07
-2.8362e-07
3.32822e-07
-2.0501e-07
3.25163e-07
-1.02888e-07
3.12308e-07
2.79579e-08
2.93635e-07
1.95548e-07
2.68639e-07
4.08593e-07
2.37367e-07
6.82903e-07
1.99733e-07
1.0257e-06
1.60255e-07
1.47141e-06
1.22988e-07
2.01244e-06
2.67583e-06
1.01107e-07
-2.23092e-10
2.46218e-09
-6.04508e-10
2.00777e-09
-1.04708e-09
-3.17275e-09
-1.33401e-09
-1.42568e-08
-1.05578e-09
-3.13217e-08
1.68709e-10
-5.2996e-08
2.58376e-09
-7.72305e-08
6.2498e-09
-1.01593e-07
1.10382e-08
-1.24108e-07
1.66877e-08
-1.43786e-07
2.2913e-08
-1.60515e-07
2.94671e-08
-1.74869e-07
3.62021e-08
-1.87841e-07
4.30867e-08
-2.00554e-07
5.01863e-08
-2.13907e-07
5.76275e-08
-2.28356e-07
6.55262e-08
-2.43951e-07
7.39849e-08
-2.60472e-07
8.30514e-08
-2.77708e-07
9.27727e-08
-2.95525e-07
1.0318e-07
-3.13915e-07
1.14327e-07
-3.32845e-07
1.26255e-07
-3.52189e-07
1.39008e-07
-3.71634e-07
1.52564e-07
-3.9078e-07
1.66891e-07
-4.09125e-07
1.81861e-07
-4.26281e-07
1.9736e-07
-4.41854e-07
2.132e-07
-4.5557e-07
2.29213e-07
-4.67083e-07
2.45179e-07
-4.75997e-07
2.60885e-07
-4.81739e-07
2.76034e-07
-4.83586e-07
2.90343e-07
-4.80597e-07
3.03408e-07
-4.71717e-07
3.14847e-07
-4.55628e-07
3.24179e-07
-4.30865e-07
3.30947e-07
-3.95529e-07
3.34637e-07
-3.47526e-07
3.34786e-07
-2.83768e-07
3.30857e-07
-2.01092e-07
3.22416e-07
-9.44384e-08
3.08955e-07
4.14068e-08
2.89991e-07
2.1453e-07
2.65258e-07
4.33313e-07
2.35027e-07
7.13143e-07
1.99656e-07
1.06104e-06
1.63705e-07
1.50733e-06
1.31178e-07
2.04488e-06
2.69383e-06
1.13083e-07
-2.33983e-10
2.68667e-09
-6.38433e-10
2.39327e-09
-1.1011e-09
-2.72778e-09
-1.39706e-09
-1.39771e-08
-1.10105e-09
-3.16339e-08
1.81562e-10
-5.42948e-08
2.69368e-09
-7.97598e-08
6.49305e-09
-1.05413e-07
1.14473e-08
-1.29083e-07
1.72871e-08
-1.4965e-07
2.37182e-08
-1.66969e-07
3.04885e-08
-1.81662e-07
3.74486e-08
-1.94823e-07
4.45695e-08
-2.07695e-07
5.19198e-08
-2.21281e-07
5.96289e-08
-2.36087e-07
6.78139e-08
-2.52165e-07
7.6577e-08
-2.69259e-07
8.59656e-08
-2.87125e-07
9.60264e-08
-3.05607e-07
1.06791e-07
-3.24701e-07
1.18312e-07
-3.44384e-07
1.30629e-07
-3.64528e-07
1.43781e-07
-3.84802e-07
1.57738e-07
-4.04763e-07
1.72459e-07
-4.23862e-07
1.87811e-07
-4.41659e-07
2.03667e-07
-4.57724e-07
2.19835e-07
-4.71758e-07
2.36139e-07
-4.83398e-07
2.52351e-07
-4.9223e-07
2.68254e-07
-4.9765e-07
2.83545e-07
-4.98902e-07
2.97936e-07
-4.94993e-07
3.11021e-07
-4.84824e-07
3.22418e-07
-4.67027e-07
3.31652e-07
-4.40114e-07
3.38276e-07
-4.02155e-07
3.41793e-07
-3.51053e-07
3.41767e-07
-2.83741e-07
3.37694e-07
-1.9703e-07
3.29224e-07
-8.59613e-08
3.15892e-07
5.47262e-08
2.97338e-07
2.331e-07
2.73517e-07
4.5712e-07
2.44895e-07
7.41769e-07
2.12161e-07
1.09374e-06
1.79778e-07
1.53968e-06
1.51553e-07
2.07303e-06
2.70884e-06
1.36439e-07
-2.45046e-10
2.92196e-09
-6.73065e-10
2.80198e-09
-1.15622e-09
-2.26275e-09
-1.46116e-09
-1.36887e-08
-1.14728e-09
-3.19645e-08
1.95573e-10
-5.56543e-08
2.80862e-09
-8.23904e-08
6.74602e-09
-1.09371e-07
1.18716e-08
-1.3423e-07
1.79079e-08
-1.55711e-07
2.45513e-08
-1.73636e-07
3.1544e-08
-1.88678e-07
3.87358e-08
-2.02037e-07
4.61e-08
-2.1508e-07
5.37091e-08
-2.28914e-07
6.16956e-08
-2.44097e-07
7.01788e-08
-2.60677e-07
7.92611e-08
-2.78366e-07
8.8991e-08
-2.96882e-07
9.94165e-08
-3.16055e-07
1.10571e-07
-3.35878e-07
1.22511e-07
-3.56341e-07
1.35274e-07
-3.77314e-07
1.48897e-07
-3.98441e-07
1.63345e-07
-4.19239e-07
1.78572e-07
-4.39104e-07
1.94436e-07
-4.57549e-07
2.10805e-07
-4.74107e-07
2.27482e-07
-4.88455e-07
2.44285e-07
-5.00213e-07
2.60983e-07
-5.08948e-07
2.7735e-07
-5.14026e-07
2.93081e-07
-5.14657e-07
3.07879e-07
-5.09796e-07
3.21338e-07
-4.98306e-07
3.33075e-07
-4.78768e-07
3.42619e-07
-4.49673e-07
3.49537e-07
-4.09075e-07
3.53345e-07
-3.54872e-07
3.53638e-07
-2.84034e-07
3.49946e-07
-1.93351e-07
3.41981e-07
-7.79904e-08
3.29338e-07
6.73561e-08
3.11785e-07
2.50665e-07
2.89427e-07
4.79463e-07
2.62901e-07
7.68294e-07
2.33138e-07
1.12347e-06
2.04426e-07
1.56835e-06
1.80286e-07
2.09708e-06
2.72121e-06
1.67812e-07
-2.56271e-10
3.1682e-09
-7.08368e-10
3.23443e-09
-1.21236e-09
-1.7773e-09
-1.52621e-09
-1.33918e-08
-1.19428e-09
-3.23134e-08
2.1069e-10
-5.70763e-08
2.92848e-09
-8.51262e-08
7.00865e-09
-1.13473e-07
1.23111e-08
-1.39555e-07
1.855e-08
-1.61975e-07
2.54121e-08
-1.80522e-07
3.26339e-08
-1.95923e-07
4.00641e-08
-2.09489e-07
4.76785e-08
-2.22717e-07
5.55542e-08
-2.36814e-07
6.38269e-08
-2.52393e-07
7.26182e-08
-2.69497e-07
8.20309e-08
-2.87804e-07
9.21151e-08
-3.06995e-07
1.02921e-07
-3.26882e-07
1.14485e-07
-3.47465e-07
1.26866e-07
-3.68741e-07
1.40105e-07
-3.90575e-07
1.54236e-07
-4.12588e-07
1.69221e-07
-4.3425e-07
1.85007e-07
-4.54907e-07
2.01449e-07
-4.74017e-07
2.1841e-07
-4.91083e-07
2.35689e-07
-5.05754e-07
2.53101e-07
-5.17637e-07
2.7041e-07
-5.26277e-07
2.87387e-07
-5.31012e-07
3.03721e-07
-5.31015e-07
3.19111e-07
-5.25192e-07
3.33148e-07
-5.12365e-07
3.45451e-07
-4.91074e-07
3.55553e-07
-4.5979e-07
3.63033e-07
-4.16558e-07
3.67427e-07
-3.59278e-07
3.6836e-07
-2.84968e-07
3.65398e-07
-1.90401e-07
3.58307e-07
-7.08945e-08
3.46766e-07
7.88822e-08
3.30642e-07
2.66799e-07
3.10164e-07
4.99923e-07
2.86149e-07
7.92305e-07
2.59693e-07
1.14988e-06
2.34837e-07
1.59316e-06
2.14791e-07
2.11704e-06
2.73087e-06
2.05029e-07
-2.67651e-10
3.42555e-09
-7.44305e-10
3.69109e-09
-1.26945e-09
-1.27114e-09
-1.59214e-09
-1.30865e-08
-1.24162e-09
-3.26814e-08
2.26858e-10
-5.85623e-08
3.05307e-09
-8.7971e-08
7.2809e-09
-1.17723e-07
1.27655e-08
-1.45062e-07
1.92132e-08
-1.68449e-07
2.63007e-08
-1.87634e-07
3.37582e-08
-2.03404e-07
4.14336e-08
-2.17187e-07
4.93056e-08
-2.30611e-07
5.74558e-08
-2.44989e-07
6.60233e-08
-2.60984e-07
7.51321e-08
-2.78635e-07
8.48857e-08
-2.97583e-07
9.53358e-08
-3.17473e-07
1.06535e-07
-3.38104e-07
1.18523e-07
-3.59478e-07
1.31364e-07
-3.816e-07
1.45099e-07
-4.04332e-07
1.59761e-07
-4.27268e-07
1.7531e-07
-4.49827e-07
1.91688e-07
-4.71302e-07
2.08746e-07
-4.91102e-07
2.26343e-07
-5.08694e-07
2.44275e-07
-5.23707e-07
2.62354e-07
-5.35729e-07
2.80344e-07
-5.44287e-07
2.9801e-07
-5.48689e-07
3.15039e-07
-5.48067e-07
3.31124e-07
-5.41285e-07
3.45857e-07
-5.2712e-07
3.58856e-07
-5.04078e-07
3.69663e-07
-4.70613e-07
3.77871e-07
-4.24769e-07
3.83036e-07
-3.64455e-07
3.84817e-07
-2.86751e-07
3.82818e-07
-1.88417e-07
3.76873e-07
-6.49462e-08
3.6671e-07
8.90296e-08
3.52353e-07
2.81162e-07
3.34091e-07
5.18165e-07
3.12926e-07
8.13461e-07
2.90077e-07
1.17269e-06
2.69299e-07
1.61388e-06
2.53498e-07
2.13275e-06
2.73747e-06
2.46786e-07
-2.79178e-10
3.69414e-09
-7.80838e-10
4.1724e-09
-1.32741e-09
-7.43985e-10
-1.65885e-09
-1.27728e-08
-1.28936e-09
-3.30688e-08
2.4404e-10
-6.01137e-08
3.18232e-09
-9.09283e-08
7.56267e-09
-1.22126e-07
1.32349e-08
-1.50758e-07
1.98975e-08
-1.75137e-07
2.72168e-08
-1.94978e-07
3.49168e-08
-2.11129e-07
4.28443e-08
-2.25138e-07
5.09813e-08
-2.3877e-07
5.94139e-08
-2.53447e-07
6.82849e-08
-2.6988e-07
7.77208e-08
-2.881e-07
8.78256e-08
-3.07714e-07
9.86529e-08
-3.28329e-07
1.10258e-07
-3.49731e-07
1.22685e-07
-3.71929e-07
1.36001e-07
-3.94935e-07
1.50249e-07
-4.18604e-07
1.65463e-07
-4.42499e-07
1.81599e-07
-4.6599e-07
1.98593e-07
-4.88313e-07
2.16295e-07
-5.08829e-07
2.34557e-07
-5.26972e-07
2.53177e-07
-5.42347e-07
2.71963e-07
-5.54529e-07
2.90678e-07
-5.63023e-07
3.09084e-07
-5.67105e-07
3.26865e-07
-5.65872e-07
3.43712e-07
-5.58139e-07
3.59214e-07
-5.42644e-07
3.72994e-07
-5.17865e-07
3.84603e-07
-4.82238e-07