/*--------------------------------*- C++ -*----------------------------------*\
  =========                 |
  \\      /  F ield         | OpenFOAM: The Open Source CFD Toolbox
   \\    /   O peration     | Website:  https://openfoam.org
    \\  /    A nd           | Version:  7
     \\/     M anipulation  |
\*---------------------------------------------------------------------------*/
FoamFile
{
    version     2.0;
    format      ascii;
    class       volScalarField;
    location    "0.06";
    object      nut;
}
// * * * * * * * * * * * * * * * * * * * * * * * * * * * * * * * * * * * * * //

dimensions      [0 2 -1 0 0 0 0];

internalField   nonuniform List<scalar> 
70000
(
9.96195e-12
6.87436e-14
2.58417e-16
8.77308e-17
4.66173e-17
7.68598e-17
2.67311e-17
1.2355e-17
8.30089e-18
6.00408e-18
4.35454e-18
3.20933e-18
2.41754e-18
1.85622e-18
1.44752e-18
1.14311e-18
9.11963e-19
7.33509e-19
5.93682e-19
4.82674e-19
3.93505e-19
3.21112e-19
2.6177e-19
2.12736e-19
1.7187e-19
1.37717e-19
1.08907e-19
8.48363e-20
6.44238e-20
4.772e-20
3.36349e-20
2.2707e-20
1.38516e-20
7.68743e-21
3.38898e-21
1.02799e-21
1.45334e-22
1.39338e-23
6.31352e-23
5.42278e-21
2.93177e-21
8.69633e-20
2.53838e-21
1.00141e-18
1.63993e-20
1.34209e-17
5.93849e-18
2.14414e-16
8.7864e-15
7.05002e-14
1.04261e-10
5.99061e-12
6.4519e-14
2.14119e-14
2.89429e-16
1.69514e-17
2.50418e-17
2.09685e-17
1.21264e-17
7.17284e-18
4.67055e-18
3.23413e-18
2.32382e-18
1.717e-18
1.29841e-18
1.00134e-18
7.85133e-19
6.24248e-19
5.02173e-19
4.07946e-19
3.34103e-19
2.75451e-19
2.28318e-19
1.89997e-19
1.58625e-19
1.32589e-19
1.11063e-19
9.27741e-20
7.76597e-20
6.43712e-20
5.36687e-20
4.386e-20
3.63257e-20
2.92749e-20
2.39351e-20
1.97536e-20
1.56107e-20
1.47677e-20
1.50829e-20
2.20629e-20
4.32464e-20
5.51719e-20
3.02405e-19
3.60502e-19
4.75345e-18
8.86449e-18
1.02151e-16
3.04583e-16
4.2499e-14
3.47759e-14
3.19036e-10
3.40383e-12
1.91726e-13
1.99952e-14
7.83613e-16
6.13287e-17
7.92322e-18
4.51829e-18
2.32937e-18
1.17499e-18
6.59948e-19
4.09284e-19
2.70528e-19
1.8693e-19
1.33982e-19
9.92441e-20
7.5768e-20
5.94899e-20
4.79648e-20
3.96796e-20
3.36793e-20
2.93475e-20
2.62896e-20
2.42422e-20
2.3071e-20
2.26721e-20
2.30967e-20
2.43291e-20
2.66631e-20
3.01533e-20
3.54969e-20
4.29206e-20
5.3731e-20
6.89015e-20
9.02248e-20
1.21792e-19
1.63254e-19
2.28673e-19
3.13621e-19
4.85693e-19
7.44649e-19
1.17143e-18
1.91728e-18
4.20965e-18
1.10559e-17
3.40736e-17
1.8272e-16
5.27446e-16
6.86867e-14
1.69544e-13
6.15214e-09
1.93158e-11
7.88732e-13
6.16403e-14
5.60999e-15
9.62297e-16
1.18441e-16
3.25922e-17
1.39771e-17
6.39684e-18
3.10713e-18
1.66856e-18
9.83316e-19
6.22389e-19
4.17308e-19
2.9437e-19
2.17575e-19
1.68005e-19
1.35238e-19
1.13321e-19
9.87705e-20
8.95158e-20
8.43434e-20
8.25916e-20
8.40079e-20
8.86721e-20
9.699e-20
1.0978e-19
1.28266e-19
1.54522e-19
1.91179e-19
2.43098e-19
3.15287e-19
4.19786e-19
5.64773e-19
7.8294e-19
1.08062e-18
1.56195e-18
2.15991e-18
3.33565e-18
4.86363e-18
7.81535e-18
1.16732e-17
2.18384e-17
4.23133e-17
8.98997e-17
4.0391e-16
5.45039e-16
7.60127e-14
2.62743e-13
2.31482e-09
2.23811e-10
4.48699e-12
3.25059e-13
2.3594e-14
4.56773e-15
7.6794e-16
2.21408e-16
9.25627e-17
4.21962e-17
2.03909e-17
1.07621e-17
6.1928e-18
3.8225e-18
2.50019e-18
1.72101e-18
1.24138e-18
9.35334e-19
7.34481e-19
6.00205e-19
5.10039e-19
4.5059e-19
4.13846e-19
3.95133e-19
3.92101e-19
4.04159e-19
4.32253e-19
4.79195e-19
5.49399e-19
6.50913e-19
7.93696e-19
9.97202e-19
1.28062e-18
1.69284e-18
2.26552e-18
3.13216e-18
4.32155e-18
6.23608e-18
8.77296e-18
1.32595e-17
1.89381e-17
3.10844e-17
4.63583e-17
8.05939e-17
1.47091e-16
2.49376e-16
9.98903e-16
9.23604e-16
8.85043e-14
2.71506e-13
2.99632e-09
5.28123e-09
4.39664e-11
1.96846e-12
1.10921e-13
1.8732e-14
3.45192e-15
1.02922e-15
4.276e-16
1.9543e-16
9.47406e-17
4.97693e-17
2.83169e-17
1.72212e-17
1.10765e-17
7.48772e-18
5.29858e-18
3.91326e-18
3.00984e-18
2.40747e-18
2.00125e-18
1.72861e-18
1.55175e-18
1.44789e-18
1.40428e-18
1.41532e-18
1.48123e-18
1.60851e-18
1.80898e-18
2.10551e-18
2.52681e-18
3.13005e-18
3.9714e-18
5.19602e-18
6.89762e-18
9.47393e-18
1.30165e-17
1.87216e-17
2.63369e-17
3.97628e-17
5.65151e-17
9.18438e-17
1.37624e-16
2.32724e-16
4.14557e-16
6.49692e-16
2.32974e-15
2.34318e-15
1.03023e-13
2.84324e-13
1.07664e-09
4.7733e-09
3.73516e-09
1.87832e-11
6.91727e-13
9.58028e-14
1.62007e-14
4.50644e-15
1.77241e-15
7.8774e-16
3.76203e-16
1.95112e-16
1.09529e-16
6.56709e-17
4.1611e-17
2.76876e-17
1.92686e-17
1.39838e-17
1.05603e-17
8.28731e-18
6.754e-18
5.71583e-18
5.02443e-18
4.58895e-18
4.35581e-18
4.2967e-18
4.40276e-18
4.68393e-18
5.16547e-18
5.90187e-18
6.96273e-18
8.48996e-18
1.06229e-17
1.37232e-17
1.80276e-17
2.45222e-17
3.34636e-17
4.77844e-17
6.70449e-17
1.00695e-16
1.43814e-16
2.29048e-16
3.43194e-16
5.70461e-16
1.01006e-15
1.53438e-15
5.00829e-15
5.95791e-15
1.2192e-13
3.08365e-13
2.43189e-09
3.8778e-09
8.29316e-10
2.48243e-09
8.94162e-12
7.49309e-13
9.71141e-14
2.26175e-14
7.90639e-15
3.25582e-15
1.47584e-15
7.36182e-16
4.00726e-16
2.34215e-16
1.45149e-16
9.46461e-17
6.46167e-17
4.60275e-17
3.41218e-17
2.62835e-17
2.10196e-17
1.74491e-17
1.50394e-17
1.34631e-17
1.25222e-17
1.21026e-17
1.21521e-17
1.26722e-17
1.37064e-17
1.53702e-17
1.78161e-17
2.13638e-17
2.63288e-17
3.35286e-17
4.35104e-17
5.84784e-17
7.90943e-17
1.11789e-16
1.56103e-16
2.32025e-16
3.32853e-16
5.20436e-16
7.80337e-16
1.26993e-15
2.24632e-15
3.38251e-15
1.01133e-14
1.39244e-14
1.50051e-13
3.46208e-13
3.37408e-09
4.3789e-09
5.96831e-10
3.02877e-10
5.5589e-10
1.97819e-11
1.03758e-12
1.60836e-13
4.47312e-14
1.59219e-14
6.51095e-15
3.00655e-15
1.54191e-15
8.59673e-16
5.12618e-16
3.2357e-16
2.14749e-16
1.49146e-16
1.08024e-16
8.14075e-17
6.37484e-17
5.18434e-17
4.37856e-17
3.84123e-17
3.50143e-17
3.31674e-17
3.26451e-17
3.33776e-17
3.54129e-17
3.8973e-17
4.4372e-17
5.22957e-17
6.3427e-17
7.95307e-17
1.01818e-16
1.34984e-16
1.80633e-16
2.52158e-16
3.49609e-16
5.13327e-16
7.34795e-16
1.13268e-15
1.70415e-15
2.70738e-15
4.75809e-15
7.2094e-15
1.97939e-14
3.0284e-14
1.9624e-13
4.1157e-13
3.41613e-09
4.61637e-09
6.79463e-10
1.96033e-10
4.84752e-11
6.91065e-11
3.68095e-10
3.19379e-12
4.48848e-13
1.14298e-13
3.79509e-14
1.51574e-14
6.9846e-15
3.58717e-15
2.00406e-15
1.19944e-15
7.61385e-16
5.09019e-16
3.56593e-16
2.6085e-16
1.988e-16
1.5765e-16
1.30014e-16
1.11486e-16
9.94073e-17
9.21642e-17
8.8833e-17
8.89862e-17
9.25517e-17
9.99006e-17
1.11642e-16
1.29224e-16
1.54099e-16
1.90054e-16
2.39731e-16
3.1306e-16
4.13811e-16
5.69582e-16
7.82574e-16
1.13285e-15
1.61426e-15
2.44795e-15
3.69466e-15
5.75042e-15
9.97219e-15
1.52696e-14
3.86969e-14
6.33109e-14
2.77131e-13
5.29565e-13
3.21744e-09
4.40067e-09
7.81853e-10
2.05038e-10
3.78141e-11
2.27868e-11
1.42912e-11
2.22508e-11
2.22598e-10
2.76702e-12
4.42696e-13
1.22427e-13
4.48696e-14
1.96604e-14
9.76312e-15
5.33223e-15
3.14487e-15
1.97877e-15
1.31712e-15
9.22021e-16
6.76116e-16
5.18031e-16
4.14085e-16
3.45009e-16
2.99483e-16
2.70725e-16
2.54743e-16
2.49384e-16
2.53727e-16
2.68128e-16
2.93627e-16
3.33276e-16
3.90155e-16
4.72588e-16
5.8638e-16
7.53098e-16
9.81524e-16
1.32989e-15
1.80702e-15
2.57478e-15
3.64319e-15
5.43123e-15
8.17264e-15
1.25071e-14
2.14076e-14
3.29909e-14
7.76075e-14
1.31788e-13
4.28001e-13
7.49937e-13
3.02341e-09
3.98311e-09
8.55529e-10
2.16435e-10
4.03054e-11
2.1152e-11
9.26996e-12
5.07024e-12
4.68276e-12
7.56851e-12
7.3566e-11
7.24588e-12
7.93828e-13
2.08507e-13
7.69218e-14
3.44367e-14
1.75793e-14
9.90211e-15
6.03503e-15
3.93012e-15
2.71219e-15
1.97264e-15
1.50673e-15
1.20574e-15
1.00929e-15
8.82647e-16
8.05573e-16
7.6655e-16
7.59424e-16
7.82631e-16
8.36973e-16
9.28754e-16
1.06437e-15
1.26302e-15
1.53771e-15
1.9379e-15
2.4844e-15
3.30662e-15
4.43256e-15
6.20535e-15
8.69354e-15
1.27313e-14
1.89932e-14
2.86399e-14
4.83423e-14
7.46355e-14
1.63794e-13
2.8261e-13
7.32504e-13
1.18654e-12
2.85237e-09
3.52401e-09
9.18137e-10
2.14305e-10
4.40899e-11
2.28824e-11
9.77972e-12
4.36648e-12
2.81133e-12
2.22633e-12
2.06064e-12
2.45927e-12
4.91975e-12
7.22855e-11
5.12756e-12
7.03816e-13
2.12423e-13
8.76759e-14
4.33172e-14
2.42002e-14
1.48421e-14
9.82277e-15
6.94134e-15
5.20174e-15
4.11494e-15
3.42492e-15
2.99149e-15
2.7363e-15
2.61521e-15
2.60766e-15
2.70495e-15
2.91732e-15
3.25594e-15
3.76774e-15
4.48217e-15
5.52216e-15
6.93889e-15
9.04324e-15
1.19213e-14
1.63528e-14
2.26146e-14
3.2454e-14
4.78898e-14
7.1131e-14
1.17873e-13
1.81705e-13
3.7393e-13
6.45918e-13
1.41278e-12
2.13492e-12
2.68271e-09
3.06938e-09
9.88136e-10
2.03559e-10
4.75336e-11
2.4571e-11
1.11955e-11
4.74954e-12
2.78226e-12
1.91197e-12
1.39702e-12
1.10595e-12
9.83325e-13
1.00917e-12
1.25547e-12
2.15559e-12
8.3161e-12
5.30048e-11
1.8086e-12
4.49743e-13
1.7927e-13
9.00697e-14
5.23977e-14
3.3924e-14
2.39219e-14
1.81345e-14
1.46518e-14
1.25407e-14
1.13146e-14
1.07237e-14
1.06315e-14
1.1007e-14
1.18376e-14
1.32376e-14
1.52658e-14
1.82601e-14
2.23506e-14
2.83696e-14
3.65922e-14
4.89781e-14
6.65597e-14
9.3336e-14
1.35678e-13
1.98005e-13
3.21131e-13
4.92881e-13
9.55674e-13
1.6363e-12
3.15079e-12
4.48584e-12
2.5046e-09
2.63543e-09
1.06906e-09
1.89901e-10
5.11364e-11
2.57051e-11
1.27863e-11
5.37789e-12
3.06711e-12
2.04334e-12
1.41138e-12
1.01369e-12
7.7683e-13
6.38897e-13
5.64097e-13
5.37806e-13
5.61208e-13
6.56849e-13
9.03362e-13
1.62153e-12
5.2824e-12
1.04914e-10
3.9019e-12
9.03e-13
3.7863e-13
2.07357e-13
1.3359e-13
9.66048e-14
7.64226e-14
6.51373e-14
5.91356e-14
5.68196e-14
5.73026e-14
6.05617e-14
6.64631e-14
7.59997e-14
8.9431e-14
1.09333e-13
1.36645e-13
1.77037e-13
2.34639e-13
3.19806e-13
4.55195e-13
6.50094e-13
1.0283e-12
1.56638e-12
2.87622e-12
4.85589e-12
8.50951e-12
1.15442e-11
2.3186e-09
2.23613e-09
1.15558e-09
1.75989e-10
5.53865e-11
2.64245e-11
1.44529e-11
6.09514e-12
3.43748e-12
2.28981e-12
1.57371e-12
1.10535e-12
8.13361e-13
6.2971e-13
5.1053e-13
4.32601e-13
3.83698e-13
3.57394e-13
3.51216e-13
3.66554e-13
4.10215e-13
4.99706e-13
6.78982e-13
1.07585e-12
2.18516e-12
7.4193e-12
8.48414e-11
8.9392e-12
2.62281e-12
1.29314e-12
8.28156e-13
6.22868e-13
5.23183e-13
4.79315e-13
4.68992e-13
4.87472e-13
5.29917e-13
6.04411e-13
7.13164e-13
8.75888e-13
1.1124e-12
1.45403e-12
2.00314e-12
2.77673e-12
4.25963e-12
6.41296e-12
1.12276e-11
1.87313e-11
3.07832e-11
4.04287e-11
2.12701e-09
1.87769e-09
1.24037e-09
1.62876e-10
6.03358e-11
2.68646e-11
1.62289e-11
6.90384e-12
3.85298e-12
2.58134e-12
1.79143e-12
1.25983e-12
9.2047e-13
7.02487e-13
5.56556e-13
4.5586e-13
3.85771e-13
3.37563e-13
3.05825e-13
2.87346e-13
2.80591e-13
2.85525e-13
3.03807e-13
3.39445e-13
4.00363e-13
5.01815e-13
6.74267e-13
9.83289e-13
1.58539e-12
2.91743e-12
6.49174e-12
1.96864e-11
9.37564e-11
9.88712e-13
1.15856e-11
1.09087e-11
9.12887e-12
8.32981e-12
8.26071e-12
8.79753e-12
1.00202e-11
1.19244e-11
1.53316e-11
2.00695e-11
2.94161e-11
4.3511e-11
7.36017e-11
1.24607e-10
2.00913e-10
2.65867e-10
1.93145e-09
1.56049e-09
1.31683e-09
1.51344e-10
6.57407e-11
2.70967e-11
1.81241e-11
7.8368e-12
4.32132e-12
2.90927e-12
2.04545e-12
1.44995e-12
1.06261e-12
8.11421e-13
6.41391e-13
5.21978e-13
4.36642e-13
3.7545e-13
3.32003e-13
3.02131e-13
2.83223e-13
2.73816e-13
2.73422e-13
2.8249e-13
3.02519e-13
3.36413e-13
3.89052e-13
4.68574e-13
5.8821e-13
7.70563e-13
1.05368e-12
1.50665e-12
2.25237e-12
3.53143e-12
5.80178e-12
1.00356e-11
1.82195e-11
3.47785e-11
6.85879e-11
1.34742e-10
2.35835e-10
2.9113e-10
1.63293e-10
1.6724e-11
5.04779e-13
5.5621e-11
2.8394e-10
1.12449e-09
2.6166e-09
4.70128e-09
1.73415e-09
1.28437e-09
1.37928e-09
1.42307e-10
7.11971e-11
2.71921e-11
2.01082e-11
8.92407e-12
4.85769e-12
3.28009e-12
2.33752e-12
1.67352e-12
1.23344e-12
9.46297e-13
7.5112e-13
6.12985e-13
5.13179e-13
4.40573e-13
3.87929e-13
3.50426e-13
3.24907e-13
3.09417e-13
3.02949e-13
3.0531e-13
3.17092e-13
3.39781e-13
3.75912e-13
4.29591e-13
5.06937e-13
6.17593e-13
7.75685e-13
1.00404e-12
1.33598e-12
1.82722e-12
2.55882e-12
3.66996e-12
5.36264e-12
7.98398e-12
1.20426e-11
1.8355e-11
2.81849e-11
4.31218e-11
6.61465e-11
9.88674e-11
1.474e-10
2.08049e-10
2.87415e-10
3.6364e-10
4.29473e-10
4.52554e-10
1.53785e-09
1.049e-09
1.42284e-09
1.36746e-10
7.6183e-11
2.72546e-11
2.21244e-11
1.0192e-11
5.47709e-12
3.70231e-12
2.67417e-12
1.93586e-12
1.43611e-12
1.10802e-12
8.84638e-13
7.25929e-13
6.10612e-13
5.26227e-13
4.64646e-13
4.20392e-13
3.89822e-13
3.70629e-13
3.61546e-13
3.62183e-13
3.72949e-13
3.95112e-13
4.30867e-13
4.83744e-13
5.58831e-13
6.63943e-13
8.09997e-13
1.01401e-12
1.29939e-12
1.70351e-12
2.27717e-12
3.10266e-12
4.29188e-12
6.02309e-12
8.54852e-12
1.22325e-11
1.76662e-11
2.54934e-11
3.71574e-11
5.34541e-11
7.77753e-11
1.0958e-10
1.53173e-10
2.00401e-10
2.43648e-10
2.6194e-10
1.3455e-09
8.5317e-10
1.44349e-09
1.35602e-10
8.01005e-11
2.74206e-11
2.40994e-11
1.16652e-11
6.1957e-12
4.18485e-12
3.06267e-12
2.24436e-12
1.67698e-12
1.30153e-12
1.04568e-12
8.63456e-13
7.30554e-13
6.33018e-13
5.61757e-13
5.10583e-13
4.75343e-13
4.53402e-13
4.43306e-13
4.44619e-13
4.57809e-13
4.84312e-13
5.2657e-13
5.8844e-13
6.75388e-13
7.95653e-13
9.60545e-13
1.18727e-12
1.49908e-12
1.93193e-12
2.53396e-12
3.37968e-12
4.57006e-12
6.25586e-12
8.65454e-12
1.20538e-11
1.69424e-11
2.38074e-11
3.37844e-11
4.75077e-11
6.74512e-11
9.34443e-11
1.28035e-10
1.65844e-10
1.99982e-10
2.15129e-10
1.16003e-09
6.946e-10
1.43834e-09
1.39722e-10
8.23911e-11
2.78439e-11
2.59519e-11
1.33657e-11
7.03249e-12
4.7379e-12
3.51077e-12
2.60734e-12
1.96385e-12
1.53361e-12
1.24012e-12
1.03075e-12
8.77551e-13
7.64895e-13
6.82648e-13
6.2385e-13
5.83799e-13
5.59517e-13
5.49405e-13
5.53066e-13
5.71187e-13
6.05607e-13
6.59358e-13
7.37126e-13
8.45483e-13
9.9416e-13
1.19644e-12
1.47212e-12
1.84793e-12
2.36393e-12
3.07406e-12
4.05826e-12
5.42624e-12
7.33292e-12
1.00062e-11
1.3729e-11
1.89905e-11
2.62552e-11
3.65885e-11
5.05957e-11
7.03364e-11
9.57209e-11
1.28249e-10
1.63345e-10
1.94506e-10
2.09059e-10
9.84333e-10
5.69975e-10
1.40603e-09
1.49833e-10
8.26785e-11
2.86701e-11
2.76051e-11
1.53092e-11
8.01013e-12
5.37372e-12
4.02721e-12
3.03422e-12
2.30593e-12
1.81244e-12
1.47534e-12
1.2346e-12
1.05794e-12
9.27794e-13
8.32926e-13
7.65539e-13
7.20328e-13
6.93956e-13
6.84706e-13
6.92301e-13
7.17786e-13
7.63618e-13
8.33719e-13
9.34027e-13
1.0728e-12
1.26208e-12
1.5183e-12
1.86545e-12
2.33612e-12
2.97783e-12
3.8551e-12
5.06011e-12
6.72095e-12
9.01034e-12
1.21854e-11
1.65513e-11
2.26313e-11
3.09148e-11
4.24624e-11
5.78854e-11
7.89779e-11
1.05638e-10
1.38591e-10
1.73482e-10
2.04138e-10
2.19464e-10
8.21113e-10
4.75185e-10
1.3469e-09
1.66495e-10
8.08372e-11
3.00129e-11
2.89994e-11
1.75009e-11
9.15539e-12
6.10715e-12
4.62203e-12
3.53565e-12
2.71408e-12
2.14792e-12
1.7603e-12
1.48339e-12
1.27967e-12
1.12936e-12
1.02001e-12
9.42948e-13
8.92213e-13
8.64086e-13
8.5676e-13
8.70171e-13
9.0588e-13
9.67193e-13
1.05925e-12
1.18967e-12
1.369e-12
1.61235e-12
1.94042e-12
2.38289e-12
2.98026e-12
3.7902e-12
4.89163e-12
6.39382e-12
8.4497e-12
1.12581e-11
1.51153e-11
2.03629e-11
2.75708e-11
3.72714e-11
5.05287e-11
6.79745e-11
9.11716e-11
1.19931e-10
1.54353e-10
1.9012e-10
2.21445e-10
2.38425e-10
6.72665e-10
4.05626e-10
1.26321e-09
1.89957e-10
7.70272e-11
3.19364e-11
3.01043e-11
1.99291e-11
1.04993e-11
6.956e-12
5.30696e-12
4.12368e-12
3.20103e-12
2.55188e-12
2.10587e-12
1.78734e-12
1.55258e-12
1.37911e-12
1.25325e-12
1.1654e-12
1.10888e-12
1.07958e-12
1.07565e-12
1.09734e-12
1.14694e-12
1.22888e-12
1.34989e-12
1.51978e-12
1.75204e-12
2.06575e-12
2.48702e-12
3.05276e-12
3.81346e-12
4.83959e-12
6.22789e-12
8.1089e-12
1.06653e-11
1.41284e-11
1.88388e-11
2.51796e-11
3.37815e-11
4.52068e-11
6.05111e-11
8.0355e-11
1.06061e-10
1.37291e-10
1.73646e-10
2.10795e-10
2.43433e-10
2.62701e-10
5.40712e-10
3.56507e-10
1.15893e-09
2.19928e-10
7.17247e-11
3.44289e-11
3.09313e-11
2.25613e-11
1.20762e-11
7.94156e-12
6.09585e-12
4.81183e-12
3.78158e-12
3.03851e-12
2.52517e-12
2.15892e-12
1.88872e-12
1.68885e-12
1.54432e-12
1.44459e-12
1.38224e-12
1.35276e-12
1.35429e-12
1.38758e-12
1.45588e-12
1.56509e-12
1.72402e-12
1.94526e-12
2.24604e-12
2.65042e-12
3.19127e-12
3.91441e-12
4.88259e-12
6.18179e-12
7.92998e-12
1.02828e-11
1.34571e-11
1.77205e-11
2.34618e-11
3.11079e-11
4.13416e-11
5.47507e-11
7.23885e-11
9.48824e-11
1.23316e-10
1.57173e-10
1.95668e-10
2.34461e-10
2.68818e-10
2.90863e-10
4.26274e-10
3.23076e-10
1.03964e-09
2.55292e-10
6.57052e-11
3.73707e-11
3.15406e-11
2.53409e-11
1.39227e-11
9.08897e-12
7.00513e-12
5.61524e-12
4.47277e-12
3.62467e-12
3.03402e-12
2.6132e-12
2.30279e-12
2.07309e-12
1.90768e-12
1.79512e-12
1.72723e-12
1.6991e-12
1.70898e-12
1.75831e-12
1.8516e-12
1.99669e-12
2.20505e-12
2.49277e-12
2.88177e-12
3.40227e-12
4.09545e-12
5.01801e-12
6.24737e-12
7.88795e-12
1.00823e-11
1.30151e-11
1.69402e-11
2.21655e-11
2.91278e-11
3.82989e-11
5.03905e-11
6.60312e-11
8.62434e-11
1.11558e-10
1.42839e-10
1.79372e-10
2.20086e-10
2.60672e-10
2.9704e-10
3.22248e-10
3.29587e-10
3.00789e-10
9.12624e-10
2.93771e-10
5.99931e-11
4.05246e-11
3.20376e-11
2.81916e-11
1.60739e-11
1.04276e-11
8.05441e-12
6.55085e-12
5.29397e-12
4.33019e-12
3.65129e-12
3.16835e-12
2.81264e-12
2.54958e-12
2.36114e-12
2.23504e-12
2.16241e-12
2.13795e-12
2.16015e-12
2.23137e-12
2.35784e-12
2.54986e-12
2.82228e-12
3.1956e-12
3.69752e-12
4.36582e-12
5.25177e-12
6.42504e-12
7.98042e-12
1.00438e-11
1.27858e-11
1.6423e-11
2.12496e-11
2.7614e-11
3.60001e-11
4.69199e-11
6.11068e-11
7.9202e-11
1.02158e-10
1.30414e-10
1.64605e-10
2.03793e-10
2.46734e-10
2.89205e-10
3.27806e-10
3.56472e-10
2.50014e-10
2.85655e-10
7.86529e-10
3.31806e-10
5.57075e-11
4.35773e-11
3.25618e-11
3.10235e-11
1.856e-11
1.19916e-11
9.26704e-12
7.63771e-12
6.26691e-12
5.17816e-12
4.39942e-12
3.84605e-12
3.43975e-12
3.13984e-12
2.92643e-12
2.78654e-12
2.71066e-12
2.69319e-12
2.73304e-12
2.83383e-12
3.00399e-12
3.257e-12
3.61192e-12
4.09471e-12
4.74019e-12
5.59522e-12
6.72312e-12
8.20892e-12
1.01675e-11
1.27493e-11
1.61557e-11
2.06386e-11
2.65325e-11
3.42286e-11
4.42467e-11
5.7139e-11
7.36448e-11
9.43743e-11
1.20211e-10
1.51476e-10
1.88564e-10
2.30334e-10
2.75465e-10
3.19874e-10
3.60869e-10
3.93198e-10
1.86191e-10
2.7438e-10
6.68558e-10
3.65213e-10
5.37737e-11
4.61911e-11
3.32667e-11
3.37462e-11
2.13987e-11
1.38196e-11
1.06705e-11
8.89725e-12
7.41557e-12
6.19506e-12
5.3047e-12
4.67199e-12
4.20969e-12
3.8697e-12
3.62983e-12
3.47654e-12
3.39988e-12
3.39406e-12
3.45861e-12
3.59886e-12
3.82604e-12
4.15765e-12
4.61798e-12
5.23968e-12
6.06611e-12
7.15498e-12
8.58373e-12
1.04552e-11
1.29069e-11
1.61169e-11
2.03197e-11
2.58039e-11
3.2944e-11
4.21709e-11
5.40321e-11
6.9108e-11
8.81171e-11
1.11632e-10
1.40438e-10
1.74702e-10
2.14614e-10
2.58851e-10
3.06094e-10
3.5245e-10
3.95939e-10
4.32037e-10
1.36328e-10
2.641e-10
5.62404e-10
3.90304e-10
5.47616e-11
4.8058e-11
3.42913e-11
3.62875e-11
2.45886e-11
1.59538e-11
1.22965e-11
1.03537e-11
8.76612e-12
7.41079e-12
6.39763e-12
5.67626e-12
5.15257e-12
4.76979e-12
4.5027e-12
4.33738e-12
4.26366e-12
4.27579e-12
4.37421e-12
4.56644e-12
4.86732e-12
5.29928e-12
5.89307e-12
6.68936e-12
7.74164e-12
9.12031e-12
1.0919e-11
1.32607e-11
1.63082e-11
2.02692e-11
2.5413e-11
3.20648e-11
4.0637e-11
5.15926e-11
6.55027e-11
8.2945e-11
1.04601e-10
1.31005e-10
1.62806e-10
1.99997e-10
2.42598e-10
2.89137e-10
3.38372e-10
3.86637e-10
4.32654e-10
4.72527e-10
9.83543e-11
2.52529e-10
4.69536e-10
4.04684e-10
5.8956e-11
4.90173e-11
3.57292e-11
3.86131e-11
2.81047e-11
1.84384e-11
1.41815e-11
1.20348e-11
1.03468e-11
8.85849e-12
7.71305e-12
6.89364e-12
6.30345e-12
5.87597e-12
5.58199e-12
5.4073e-12
5.34187e-12
5.38028e-12
5.52423e-12
5.78407e-12
6.17909e-12
6.73782e-12
7.49876e-12
8.51207e-12
9.84303e-12
1.15765e-11
1.38245e-11
1.6732e-11
2.04892e-11
2.53347e-11
3.15728e-11
3.95636e-11
4.97521e-11
6.2622e-11
7.87649e-11
9.8722e-11
1.23128e-10
1.52453e-10
1.87193e-10
2.27168e-10
2.72268e-10
3.20909e-10
3.71982e-10
4.22076e-10
4.70585e-10
5.14138e-10
7.00953e-11
2.38334e-10
3.90495e-10
4.07446e-10
6.6432e-11
4.91568e-11
3.76082e-11
4.07376e-11
3.18983e-11
2.1317e-11
1.63662e-11
1.39721e-11
1.21879e-11
1.05744e-11
9.29027e-12
8.36397e-12
7.70263e-12
7.22965e-12
6.91062e-12
6.73091e-12
6.6811e-12
6.75648e-12
6.96051e-12
7.30702e-12
7.82081e-12
8.53775e-12
9.50548e-12
1.07852e-11
1.24556e-11
1.46177e-11
1.74034e-11
2.09817e-11
2.55709e-11
3.14411e-11
3.89299e-11
4.8428e-11
6.04069e-11
7.53561e-11
9.38714e-11
1.16443e-10
1.43648e-10
1.75841e-10
2.13392e-10
2.55961e-10
3.03327e-10
3.53831e-10
4.06555e-10
4.58355e-10
5.09254e-10
5.56299e-10
4.94914e-11
2.21096e-10
3.2501e-10
3.99067e-10
7.6992e-11
4.87951e-11
3.98877e-11
4.27242e-11
3.59003e-11
2.46279e-11
1.88955e-11
1.62018e-11
1.43223e-11
1.25971e-11
1.11728e-11
1.01321e-11
9.39577e-12
8.87796e-12
8.53762e-12
8.35936e-12
8.33483e-12
8.4606e-12
8.7424e-12
9.19837e-12
9.85992e-12
1.07716e-11
1.19917e-11
1.35939e-11
1.56718e-11
1.83439e-11
2.17632e-11
2.61236e-11
3.16716e-11
3.87077e-11
4.75992e-11
5.8761e-11
7.26827e-11
8.98469e-11
1.10824e-10
1.36047e-10
1.66034e-10
2.00989e-10
2.41162e-10
2.86068e-10
3.35415e-10
3.87523e-10
4.41691e-10
4.9504e-10
5.48166e-10
5.98434e-10
3.47301e-11
2.01124e-10
2.72042e-10
3.81167e-10
9.00531e-11
4.83965e-11
4.2468e-11
4.46761e-11
4.00308e-11
2.83983e-11
2.18176e-11
1.87645e-11
1.67851e-11
1.49675e-11
1.34078e-11
1.22478e-11
1.14338e-11
1.08736e-11
1.0518e-11
1.03502e-11
1.03633e-11
1.05558e-11
1.09363e-11
1.15283e-11
1.23709e-11
1.35188e-11
1.50423e-11
1.70289e-11
1.95881e-11
2.28572e-11
2.70105e-11
3.22666e-11
3.88993e-11
4.72365e-11
5.76699e-11
7.06315e-11
8.66103e-11
1.0609e-10
1.29573e-10
1.57416e-10
1.9008e-10
2.27625e-10
2.70175e-10
3.17125e-10
3.68155e-10
4.21594e-10
4.76977e-10
5.31685e-10
5.86825e-10
6.3999e-10
2.43025e-11
1.79287e-10
2.29983e-10
3.56157e-10
1.04631e-10
4.84842e-11
4.52143e-11
4.6719e-11
4.42138e-11
3.26381e-11
2.51816e-11
2.1705e-11
1.96141e-11
1.77276e-11
1.60454e-11
1.47653e-11
1.38727e-11
1.32744e-11
1.29122e-11
1.27667e-11
1.28327e-11
1.31113e-11
1.36149e-11
1.4373e-11
1.54339e-11
1.68636e-11
1.87458e-11
2.1183e-11
2.43013e-11
2.82566e-11
3.32446e-11
3.95073e-11
4.73432e-11
5.71033e-11
6.91965e-11
8.40632e-11
1.02175e-10
1.24006e-10
1.49967e-10
1.80353e-10
2.15533e-10
2.55437e-10
3.00076e-10
3.48752e-10
4.01154e-10
4.55648e-10
5.12014e-10
5.67871e-10
6.24776e-10
6.80464e-10
1.7005e-11
1.56832e-10
1.96945e-10
3.26771e-10
1.19453e-10
4.95643e-11
4.80046e-11
4.89786e-11
4.83936e-11
3.73361e-11
2.90356e-11
2.50719e-11
2.28504e-11
2.09203e-11
1.91374e-11
1.77419e-11
1.67723e-11
1.61426e-11
1.57855e-11
1.56772e-11
1.58143e-11
1.62013e-11
1.68552e-11
1.78126e-11
1.9132e-11
2.08921e-11
2.31912e-11
2.61471e-11
2.99029e-11
3.46324e-11
4.05513e-11
4.79229e-11
5.70661e-11
6.83497e-11
8.21912e-11
9.90306e-11
1.19309e-10
1.4346e-10
1.71823e-10
2.04634e-10
2.42106e-10
2.84081e-10
3.30494e-10
3.80572e-10
4.34031e-10
4.89306e-10
5.46421e-10
6.0321e-10
6.61608e-10
7.19427e-10
1.19234e-11
1.34937e-10
1.71037e-10
2.95722e-10
1.33168e-10
5.20468e-11
5.07831e-11
5.15616e-11
5.25482e-11
4.24598e-11
3.34235e-11
2.89167e-11
2.65384e-11
2.4589e-11
2.27364e-11
2.12377e-11
2.01962e-11
1.95439e-11
1.92062e-11
1.91534e-11
1.93827e-11
1.99029e-11
2.07366e-11
2.19285e-11
2.35484e-11
2.5689e-11
2.84634e-11
3.20054e-11
3.64739e-11
4.20598e-11
4.89962e-11
5.75639e-11
6.80981e-11
8.0977e-11
9.66208e-11
1.15449e-10
1.37898e-10
1.64294e-10
1.94907e-10
2.29936e-10
2.6945e-10
3.13198e-10
3.61062e-10
4.1222e-10
4.66433e-10
5.2223e-10
5.79865e-10
6.37363e-10
6.9697e-10
7.56522e-10
8.39636e-12
1.14342e-10
1.50534e-10
2.65333e-10
1.4464e-10
5.61558e-11
5.35827e-11
5.45374e-11
5.66949e-11
4.7959e-11
3.838e-11
3.32916e-11
3.07254e-11
2.87776e-11
2.68939e-11
2.53133e-11
2.42093e-11
2.35459e-11
2.32446e-11
2.32681e-11
2.36135e-11
2.42937e-11
2.5338e-11
2.68004e-11
2.87629e-11
3.13328e-11
3.46387e-11
3.88297e-11
4.40794e-11
5.05931e-11
5.86184e-11
6.84491e-11
8.04307e-11
9.49456e-11
1.12403e-10
1.33198e-10
1.57745e-10
1.86243e-10
2.18942e-10
2.5595e-10
2.97238e-10
3.42453e-10
3.91434e-10
4.43349e-10
4.98039e-10
5.54127e-10
6.12074e-10
6.70062e-10
7.3059e-10
7.91482e-10
5.94881e-12
9.55326e-11
1.33962e-10
2.37119e-10
1.53166e-10
6.18934e-11
5.65223e-11
5.7931e-11
6.08864e-11
5.37741e-11
4.39259e-11
3.82472e-11
3.54607e-11
3.35297e-11
3.16595e-11
3.00278e-11
2.88766e-11
2.82161e-11
2.79704e-11
2.80937e-11
2.85808e-11
2.94487e-11
3.07345e-11
3.25023e-11
3.48474e-11
3.78921e-11
4.17803e-11
4.66752e-11
5.27631e-11
6.02609e-11
6.94264e-11
8.0562e-11
9.40171e-11
1.10169e-10
1.2942e-10
1.52111e-10
1.78615e-10
2.09085e-10
2.43698e-10
2.8239e-10
3.25131e-10
3.715e-10
4.21289e-10
4.73681e-10
5.28598e-10
5.84761e-10
6.42813e-10
7.0108e-10
7.62252e-10
8.24116e-10
4.24316e-12
7.88945e-11
1.2017e-10
2.11836e-10
1.58527e-10
6.90614e-11
5.97888e-11
6.17357e-11
6.52014e-11
5.98486e-11
5.00644e-11
4.38294e-11
4.07937e-11
3.88883e-11
3.70788e-11
3.54368e-11
3.42605e-11
3.36197e-11
3.34504e-11
3.36983e-11
3.43535e-11
3.54369e-11
3.69934e-11
3.90988e-11
4.1862e-11
4.54205e-11
4.9933e-11
5.5575e-11
6.25432e-11
7.10621e-11
8.13958e-11
9.38492e-11
1.08772e-10
1.26527e-10
1.47494e-10
1.72012e-10
2.00327e-10
2.32527e-10
2.68785e-10
3.08912e-10
3.52819e-10
4.00039e-10
4.50354e-10
5.02972e-10
5.57889e-10
6.13931e-10
6.71905e-10
7.30256e-10
7.91807e-10
8.54293e-10
3.0475e-12
6.46066e-11
1.08333e-10
1.89769e-10
1.60927e-10
7.72989e-11
6.35938e-11
6.59359e-11
6.97307e-11
6.61393e-11
5.67797e-11
5.00757e-11
4.67724e-11
4.48953e-11
4.31928e-11
4.15897e-11
4.04179e-11
3.98167e-11
3.97454e-11
4.0143e-11
4.09928e-11
4.23175e-11
4.41708e-11
4.66407e-11
4.98505e-11
5.39528e-11
5.91198e-11
6.55375e-11
7.34095e-11
8.29644e-11
9.44677e-11
1.08223e-10
1.24572e-10
1.43864e-10
1.6644e-10
1.92636e-10
2.22549e-10
2.56279e-10
2.93931e-10
3.3524e-10
3.80033e-10
4.27824e-10
4.78407e-10
5.31024e-10
5.85743e-10
6.41498e-10
6.99226e-10
7.57471e-10
8.19151e-10
8.81937e-10
2.20394e-12
5.26323e-11
9.79097e-11
1.70891e-10
1.60869e-10
8.6143e-11
6.81243e-11
7.0526e-11
7.45611e-11
7.26239e-11
6.4038e-11
5.70112e-11
5.34397e-11
5.15898e-11
5.00364e-11
4.85277e-11
4.73977e-11
4.68594e-11
4.69076e-11
4.74791e-11
4.85479e-11
5.01366e-11
5.23075e-11
5.51616e-11
5.88372e-11
6.35016e-11
6.9339e-11
7.65435e-11
8.53223e-11
9.59041e-11
1.08552e-10
1.23563e-10
1.41269e-10
1.62001e-10
1.86057e-10
2.13726e-10
2.45064e-10
2.80156e-10
3.18931e-10
3.6114e-10
4.06555e-10
4.54664e-10
5.05278e-10
5.57686e-10
6.12035e-10
6.67356e-10
7.24688e-10
7.82659e-10
8.44234e-10
9.07027e-10
1.60476e-12
4.27862e-11
8.85758e-11
1.5496e-10
1.58994e-10
9.51106e-11
7.35036e-11
7.55218e-11
7.97646e-11
7.93038e-11
7.17931e-11
6.46457e-11
6.0831e-11
5.90069e-11
5.76379e-11
5.62814e-11
5.52378e-11
5.47889e-11
5.49776e-11
5.57445e-11
5.70533e-11
5.89238e-11
6.14262e-11
6.46751e-11
6.88243e-11
7.40552e-11
8.05626e-11
8.85459e-11
9.82127e-11
1.09788e-10
1.23529e-10
1.39724e-10
1.58687e-10
1.80724e-10
2.06148e-10
2.35111e-10
2.67645e-10
3.03839e-10
3.43513e-10
3.86371e-10
4.32151e-10
4.80345e-10
5.30795e-10
5.82839e-10
6.36681e-10
6.91441e-10
7.48238e-10
8.0577e-10
8.67021e-10
9.29551e-10
1.17642e-12
3.48042e-11
8.01555e-11
1.41619e-10
1.55941e-10
1.03778e-10
7.97685e-11
8.09637e-11
8.53924e-11
8.62018e-11
7.99931e-11
7.29706e-11
6.89706e-11
6.71748e-11
6.60176e-11
6.48701e-11
6.39624e-11
6.36329e-11
6.39817e-11
6.49615e-11
6.6526e-11
6.86895e-11
7.15287e-11
7.51723e-11
7.97899e-11
8.55768e-11
9.27363e-11
1.01471e-10
1.11985e-10
1.24499e-10
1.39257e-10
1.5654e-10
1.76641e-10
1.99834e-10
2.2646e-10
2.56489e-10
2.90029e-10
3.27089e-10
3.67432e-10
4.10705e-10
4.56638e-10
5.04743e-10
5.54875e-10
6.06415e-10
6.59617e-10
7.13694e-10
7.69826e-10
8.26776e-10
8.87509e-10
9.49537e-10
8.68416e-13
2.83982e-11
7.25611e-11
1.30469e-10
1.52271e-10
1.11834e-10
8.68653e-11
8.69089e-11
9.14772e-11
9.33541e-11
8.85873e-11
8.19588e-11
7.78679e-11
7.61121e-11
7.51868e-11
7.42995e-11
7.358e-11
7.34025e-11
7.39293e-11
7.51344e-11
7.69634e-11
7.94231e-11
8.25947e-11
8.66211e-11
9.16882e-11
9.80045e-11
1.05781e-10
1.1522e-10
1.26522e-10
1.39895e-10
1.55576e-10
1.73827e-10
1.94944e-10
2.19166e-10
2.4672e-10
2.77641e-10
3.12068e-10
3.49747e-10
3.90524e-10
4.34024e-10
4.79945e-10
5.27798e-10
5.77452e-10
6.28346e-10
6.80796e-10
7.34098e-10
7.89461e-10
8.45696e-10
9.05725e-10
9.67025e-10
6.45777e-13
2.32913e-11
6.57473e-11
1.21133e-10
1.48417e-10
1.19104e-10
9.46615e-11
9.34132e-11
9.80364e-11
1.00802e-10
9.75326e-11
9.15657e-11
8.75151e-11
8.5825e-11
8.5146e-11
8.45618e-11
8.40818e-11
8.40903e-11
8.48108e-11
8.62475e-11
8.83421e-11
9.10919e-11
9.45809e-11
9.89658e-11
1.04449e-10
1.11253e-10
1.19594e-10
1.29674e-10
1.41684e-10
1.55823e-10
1.72315e-10
1.91408e-10
2.13366e-10
2.38476e-10
2.66811e-10
2.98427e-10
3.33461e-10
3.71639e-10
4.12693e-10
4.56216e-10
5.01929e-10
5.49373e-10
5.9843e-10
6.48599e-10
7.00227e-10
7.52671e-10
8.07148e-10
8.62523e-10
9.21668e-10
9.82041e-10
4.84108e-13
1.92354e-11
5.96886e-11
1.13284e-10
1.44677e-10
1.25538e-10
1.02967e-10
1.00508e-10
1.05077e-10
1.08583e-10
1.06796e-10
1.01733e-10
9.7885e-11
9.63045e-11
9.58836e-11
9.56346e-11
9.54408e-11
9.56691e-11
9.65967e-11
9.82648e-11
1.00617e-10
1.03641e-10
1.07421e-10
1.12128e-10
1.17982e-10
1.25217e-10
1.34055e-10
1.44695e-10
1.5732e-10
1.72117e-10
1.89293e-10
2.09096e-10
2.31734e-10
2.57534e-10
2.86489e-10
3.1868e-10
3.54132e-10
3.92593e-10
4.33722e-10
4.7713e-10
5.2253e-10
5.69462e-10
6.17828e-10
6.67177e-10
7.17881e-10
7.69366e-10
8.22855e-10
8.77267e-10
9.35386e-10
9.94655e-10
3.66271e-13
1.60162e-11
5.4367e-11
1.06654e-10
1.41236e-10
1.31176e-10
1.11571e-10
1.08189e-10
1.12599e-10
1.16724e-10
1.16352e-10
1.12391e-10
1.0893e-10
1.07524e-10
1.07374e-10
1.07481e-10
1.07612e-10
1.08091e-10
1.09237e-10
1.1113e-10
1.13722e-10
1.16994e-10
1.2103e-10
1.26011e-10
1.32175e-10
1.39772e-10
1.49027e-10
1.60135e-10
1.73269e-10
1.88606e-10
2.06336e-10
2.26702e-10
2.49916e-10
2.76191e-10
3.05575e-10
3.38233e-10
3.73963e-10
4.12502e-10
4.53558e-10
4.96728e-10
5.41688e-10
5.87997e-10
6.35579e-10
6.84035e-10
7.33753e-10
7.84221e-10
8.36642e-10
8.89971e-10
9.46906e-10
1.0049e-09
2.801e-13
1.34574e-11
4.97493e-11
1.01042e-10
1.382e-10
1.36118e-10
1.20269e-10
1.16413e-10
1.20595e-10
1.25239e-10
1.26186e-10
1.23469e-10
1.20586e-10
1.19438e-10