/*--------------------------------*- C++ -*----------------------------------*\
  =========                 |
  \\      /  F ield         | OpenFOAM: The Open Source CFD Toolbox
   \\    /   O peration     | Website:  https://openfoam.org
    \\  /    A nd           | Version:  7
     \\/     M anipulation  |
\*---------------------------------------------------------------------------*/
FoamFile
{
    version     2.0;
    format      ascii;
    class       volScalarField;
    location    "0.06";
    object      p;
}
// * * * * * * * * * * * * * * * * * * * * * * * * * * * * * * * * * * * * * //

dimensions      [0 2 -2 0 0 0 0];

internalField   nonuniform List<scalar> 
70000
(
0.0788825
0.0014024
-0.0111683
-0.00879351
-0.00871419
-0.00988249
-0.0109532
-0.0118137
-0.0125744
-0.0132832
-0.0139535
-0.0145938
-0.0152117
-0.0158145
-0.016408
-0.016997
-0.0175857
-0.0181777
-0.0187761
-0.0193838
-0.0200036
-0.0206379
-0.0212891
-0.0219596
-0.0226517
-0.0233677
-0.0241099
-0.0248808
-0.0256828
-0.0265185
-0.0273905
-0.0283018
-0.0292551
-0.0302538
-0.031301
-0.0324005
-0.0335559
-0.0347711
-0.0360512
-0.0373992
-0.0388235
-0.0403232
-0.0419171
-0.0435885
-0.0453891
-0.0472507
-0.0493257
-0.0513835
-0.0538884
-0.0561539
0.0745147
0.0017694
-0.0109653
-0.008698
-0.00865975
-0.00984661
-0.0109252
-0.0117906
-0.0125551
-0.0132667
-0.0139392
-0.0145811
-0.0152005
-0.0158044
-0.0163988
-0.0169886
-0.017578
-0.0181706
-0.0187695
-0.0193778
-0.0199979
-0.0206326
-0.0212841
-0.021955
-0.0226473
-0.0233636
-0.0241061
-0.0248773
-0.0256795
-0.0265155
-0.0273878
-0.0282992
-0.0292528
-0.0302517
-0.0312992
-0.032399
-0.0335547
-0.0347702
-0.0360506
-0.037399
-0.0388238
-0.040324
-0.0419185
-0.0435906
-0.045392
-0.0472546
-0.0493305
-0.051392
-0.0538932
-0.0561006
0.0709346
0.00270982
-0.0106246
-0.00856877
-0.00858544
-0.00980184
-0.0108929
-0.0117645
-0.0125333
-0.0132483
-0.0139233
-0.0145672
-0.0151881
-0.0157933
-0.0163887
-0.0169794
-0.0175696
-0.0181628
-0.0187623
-0.019371
-0.0199916
-0.0206267
-0.0212786
-0.0219497
-0.0226424
-0.023359
-0.0241017
-0.0248731
-0.0256756
-0.0265117
-0.0273842
-0.0282959
-0.0292497
-0.0302488
-0.0312965
-0.0323965
-0.0335524
-0.0347683
-0.0360489
-0.0373975
-0.0388227
-0.0403233
-0.0419182
-0.0435906
-0.0453927
-0.0472558
-0.0493319
-0.0513971
-0.0538633
-0.05603
0.0678412
0.00381242
-0.0101544
-0.00839425
-0.00848411
-0.00974396
-0.0108544
-0.0117343
-0.0125085
-0.0132276
-0.0139057
-0.0145519
-0.0151746
-0.0157812
-0.0163778
-0.0169695
-0.0175604
-0.0181543
-0.0187544
-0.0193637
-0.0199847
-0.0206202
-0.0212724
-0.0219439
-0.0226368
-0.0233536
-0.0240966
-0.0248682
-0.0256709
-0.0265072
-0.0273798
-0.0282916
-0.0292455
-0.0302448
-0.0312926
-0.0323926
-0.0335487
-0.0347646
-0.0360454
-0.0373942
-0.0388193
-0.0403199
-0.041915
-0.0435875
-0.0453894
-0.0472529
-0.0493267
-0.0513963
-0.0538098
-0.0559367
0.0648826
0.00490994
-0.0095874
-0.00817277
-0.0083488
-0.00966538
-0.0108048
-0.0116967
-0.012478
-0.0132025
-0.0138846
-0.0145338
-0.0151587
-0.0157671
-0.0163651
-0.016958
-0.0175499
-0.0181446
-0.0187454
-0.0193552
-0.0199768
-0.0206126
-0.0212653
-0.021937
-0.0226302
-0.0233472
-0.0240904
-0.0248622
-0.0256649
-0.0265014
-0.0273741
-0.0282859
-0.0292398
-0.0302391
-0.0312869
-0.0323868
-0.0335428
-0.0347586
-0.0360392
-0.0373878
-0.0388127
-0.0403129
-0.0419076
-0.0435797
-0.0453804
-0.0472439
-0.049312
-0.0513856
-0.0537331
-0.0558125
0.0619746
0.00595009
-0.00897089
-0.00792451
-0.00818539
-0.00956451
-0.0107414
-0.0116493
-0.0124397
-0.0131711
-0.0138585
-0.0145115
-0.0151394
-0.01575
-0.0163499
-0.0169441
-0.0175373
-0.018133
-0.0187346
-0.0193451
-0.0199672
-0.0206036
-0.0212566
-0.0219286
-0.0226221
-0.0233394
-0.0240827
-0.0248545
-0.0256574
-0.0264938
-0.0273665
-0.0282782
-0.029232
-0.0302311
-0.0312786
-0.0323783
-0.0335339
-0.0347492
-0.0360294
-0.0373773
-0.0388015
-0.0403009
-0.0418943
-0.0435653
-0.0453635
-0.0472262
-0.0492845
-0.0513597
-0.0536331
-0.0556558
0.0591109
0.00691398
-0.00833863
-0.00767115
-0.0080072
-0.00944607
-0.0106652
-0.0115924
-0.0123933
-0.0131329
-0.0138266
-0.0144844
-0.0151158
-0.0157292
-0.0163313
-0.0169274
-0.0175219
-0.0181188
-0.0187214
-0.0193327
-0.0199556
-0.0205925
-0.0212459
-0.0219184
-0.0226121
-0.0233295
-0.024073
-0.0248449
-0.0256477
-0.026484
-0.0273565
-0.028268
-0.0292215
-0.0302202
-0.0312672
-0.0323663
-0.0335212
-0.0347357
-0.0360148
-0.0373616
-0.0387844
-0.0402822
-0.0418733
-0.0435422
-0.0453361
-0.0471969
-0.049241
-0.0513133
-0.0535089
-0.0554673
0.0562977
0.00779356
-0.00770657
-0.00742456
-0.00782516
-0.00931662
-0.0105799
-0.0115279
-0.0123401
-0.0130883
-0.0137891
-0.0144523
-0.0150878
-0.0157044
-0.0163091
-0.0169072
-0.0175035
-0.0181018
-0.0187056
-0.0193178
-0.0199414
-0.020579
-0.0212329
-0.0219057
-0.0225997
-0.0233173
-0.0240609
-0.0248327
-0.0256354
-0.0264715
-0.0273437
-0.0282548
-0.0292077
-0.0302057
-0.031252
-0.0323501
-0.0335038
-0.034717
-0.0359945
-0.0373394
-0.03876
-0.0402553
-0.0418431
-0.0435085
-0.045296
-0.0471529
-0.0491783
-0.0512417
-0.0533594
-0.055248
0.0535408
0.00858602
-0.00707989
-0.00718876
-0.00764542
-0.00918103
-0.0104886
-0.0114586
-0.012282
-0.013039
-0.0137471
-0.0144159
-0.0150558
-0.0156759
-0.0162833
-0.0168838
-0.0174819
-0.0180818
-0.0186868
-0.0193002
-0.0199246
-0.0205628
-0.0212173
-0.0218905
-0.0225848
-0.0233025
-0.024046
-0.0248178
-0.0256202
-0.026456
-0.0273276
-0.0282381
-0.0291902
-0.0301872
-0.0312322
-0.0323289
-0.033481
-0.0346922
-0.0359675
-0.0373098
-0.0387272
-0.0402188
-0.0418018
-0.0434624
-0.0452408
-0.0470915
-0.0490939
-0.0511414
-0.0531834
-0.0549998
0.0508448
0.00929118
-0.00645976
-0.0069641
-0.00747092
-0.00904208
-0.0103937
-0.0113864
-0.0122209
-0.0129865
-0.0137018
-0.0143763
-0.0150206
-0.0156442
-0.0162545
-0.0168574
-0.0174575
-0.018059
-0.0186654
-0.0192798
-0.0199052
-0.0205441
-0.0211991
-0.0218727
-0.0225671
-0.0232849
-0.0240284
-0.0247999
-0.0256019
-0.0264371
-0.0273081
-0.0282176
-0.0291686
-0.0301642
-0.0312077
-0.0323025
-0.0334524
-0.0346609
-0.0359332
-0.0372719
-0.038685
-0.0401717
-0.0417483
-0.0434024
-0.0451693
-0.0470108
-0.048986
-0.0510102
-0.0529808
-0.0547255
0.0482131
0.00990943
-0.00584693
-0.00674974
-0.00730308
-0.00890123
-0.010296
-0.0113124
-0.0121581
-0.012932
-0.0136544
-0.0143345
-0.0149832
-0.0156103
-0.0162235
-0.0168287
-0.0174308
-0.0180339
-0.0186416
-0.0192571
-0.0198833
-0.0205229
-0.0211784
-0.0218523
-0.0225469
-0.0232647
-0.0240079
-0.024779
-0.0255805
-0.026415
-0.0272849
-0.0281933
-0.0291428
-0.0301367
-0.0311781
-0.0322705
-0.0334176
-0.0346228
-0.0358912
-0.0372253
-0.038633
-0.0401136
-0.0416819
-0.0433276
-0.0450807
-0.0469097
-0.048854
-0.0508478
-0.0527524
-0.0544289
0.0456484
0.0104411
-0.0052428
-0.00654461
-0.00714279
-0.00875936
-0.0101959
-0.0112372
-0.0120941
-0.0128761
-0.0136054
-0.0142911
-0.0149442
-0.0155747
-0.0161907
-0.0167982
-0.0174022
-0.0180069
-0.0186159
-0.0192324
-0.0198595
-0.0204997
-0.0211556
-0.0218297
-0.0225243
-0.023242
-0.0239849
-0.0247555
-0.0255562
-0.0263897
-0.0272584
-0.0281653
-0.029113
-0.0301048
-0.0311437
-0.0322331
-0.0333767
-0.0345779
-0.0358416
-0.0371702
-0.0385713
-0.0400444
-0.0416028
-0.0432382
-0.0449748
-0.046788
-0.0486988
-0.050656
-0.0525002
-0.0541145
0.0431536
0.0108868
-0.00464938
-0.00634751
-0.00699071
-0.00861724
-0.0100936
-0.0111609
-0.0120293
-0.0128191
-0.0135554
-0.0142466
-0.014904
-0.0155379
-0.0161566
-0.0167664
-0.0173722
-0.0179784
-0.0185886
-0.0192062
-0.0198339
-0.0204747
-0.0211309
-0.0218052
-0.0224998
-0.0232171
-0.0239595
-0.0247294
-0.0255293
-0.0263615
-0.0272288
-0.0281339
-0.0290795
-0.0300687
-0.0311047
-0.0321906
-0.0333302
-0.0345267
-0.0357848
-0.037107
-0.0385004
-0.0399646
-0.0415117
-0.0431348
-0.0448528
-0.0466469
-0.0485222
-0.0504381
-0.0522275
-0.0537873
0.040731
0.0112473
-0.00406911
-0.00615705
-0.00684738
-0.00847569
-0.00998914
-0.0110834
-0.0119638
-0.0127613
-0.0135043
-0.0142011
-0.0148628
-0.0155001
-0.0161215
-0.0167335
-0.0173411
-0.0179488
-0.0185602
-0.0191786
-0.0198071
-0.0204482
-0.0211047
-0.021779
-0.0224734
-0.0231904
-0.0239322
-0.0247013
-0.0255
-0.0263308
-0.0271964
-0.0280994
-0.0290426
-0.030029
-0.0310616
-0.0321436
-0.0332786
-0.0344697
-0.0357215
-0.0370364
-0.038421
-0.0398753
-0.0414095
-0.0430187
-0.0447162
-0.0464883
-0.0483269
-0.0501984
-0.0519383
-0.0534519
0.038383
0.0115239
-0.00350485
-0.00597172
-0.00671316
-0.00833559
-0.0098827
-0.0110048
-0.0118976
-0.0127026
-0.0134522
-0.0141546
-0.0148206
-0.0154613
-0.0160854
-0.0166996
-0.017309
-0.0179181
-0.0185306
-0.0191499
-0.019779
-0.0204205
-0.0210772
-0.0217514
-0.0224456
-0.023162
-0.0239031
-0.0246712
-0.0254686
-0.0262979
-0.0271616
-0.0280623
-0.0290028
-0.0299859
-0.0310148
-0.0320924
-0.0332223
-0.0344075
-0.0356523
-0.0369592
-0.0383341
-0.0397774
-0.0412976
-0.0428912
-0.0445669
-0.0463144
-0.0481159
-0.0499414
-0.0516366
-0.0531124
0.0361117
0.0117184
-0.00295974
-0.00578994
-0.00658827
-0.00819789
-0.00977446
-0.0109251
-0.0118308
-0.0126431
-0.0133993
-0.0141072
-0.0147775
-0.0154216
-0.0160484
-0.0166647
-0.0172759
-0.0178864
-0.0185
-0.0191202
-0.0197498
-0.0203917
-0.0210485
-0.0217225
-0.0224163
-0.0231322
-0.0238724
-0.0246394
-0.0254354
-0.0262629
-0.0271245
-0.0280227
-0.0289602
-0.0299399
-0.0309646
-0.0320375
-0.0331619
-0.0343406
-0.0355779
-0.0368761
-0.0382406
-0.039672
-0.0411772
-0.0427539
-0.0444066
-0.0461274
-0.047892
-0.0496716
-0.051326
-0.0527716
0.0339187
0.0118327
-0.00243685
-0.00561032
-0.00647275
-0.00806358
-0.00966468
-0.0108441
-0.0117635
-0.0125829
-0.0133454
-0.0140589
-0.0147336
-0.015381
-0.0160105
-0.016629
-0.0172419
-0.0178538
-0.0184684
-0.0190893
-0.0197195
-0.0203617
-0.0210185
-0.0216924
-0.0223858
-0.0231009
-0.0238402
-0.0246059
-0.0254003
-0.026226
-0.0270853
-0.0279807
-0.0289151
-0.029891
-0.0309114
-0.0319791
-0.0330976
-0.0342695
-0.0354987
-0.0367877
-0.038141
-0.0395597
-0.0410491
-0.0426078
-0.0442369
-0.0459295
-0.0476575
-0.0493922
-0.0510096
-0.0524313
0.0318054
0.0118693
-0.00193914
-0.00543164
-0.00636648
-0.00793364
-0.0095537
-0.0107618
-0.0116956
-0.0125221
-0.0132907
-0.0140096
-0.0146886
-0.0153394
-0.0159716
-0.0165922
-0.0172069
-0.0178201
-0.0184358
-0.0190575
-0.0196881
-0.0203305
-0.0209873
-0.0216609
-0.0223538
-0.0230682
-0.0238064
-0.0245707
-0.0253635
-0.0261871
-0.0270439
-0.0279365
-0.0288674
-0.0298393
-0.0308551
-0.0319175
-0.0330296
-0.0341942
-0.035415
-0.0366941
-0.0380358
-0.0394412
-0.0409141
-0.0424538
-0.0440587
-0.0457221
-0.0474142
-0.0491057
-0.0506891
-0.0520923
0.0297726
0.0118313
-0.0014695
-0.00525303
-0.00626916
-0.00780902
-0.00944194
-0.0106784
-0.0116272
-0.0124607
-0.0132351
-0.0139594
-0.0146428
-0.0152969
-0.0159317
-0.0165545
-0.0171708
-0.0177854
-0.0184021
-0.0190245
-0.0196555
-0.0202981
-0.0209548
-0.0216282
-0.0223204
-0.0230339
-0.023771
-0.0245338
-0.0253248
-0.0261462
-0.0270004
-0.0278899
-0.0288172
-0.0297849
-0.0307957
-0.0318524
-0.032958
-0.034115
-0.0353268
-0.0365957
-0.0379251
-0.0393165
-0.0407724
-0.0422923
-0.0438727
-0.0455063
-0.0471633
-0.0488138
-0.0503659
-0.0517545
0.0278207
0.0117221
-0.0010307
-0.00507391
-0.00618033
-0.00769063
-0.00932992
-0.0105936
-0.0115583
-0.0123988
-0.0131786
-0.0139083
-0.014596
-0.0152535
-0.0158909
-0.0165157
-0.0171337
-0.0177496
-0.0183673
-0.0189903
-0.0196218
-0.0202645
-0.0209211
-0.021594
-0.0222856
-0.0229981
-0.0237339
-0.0244952
-0.0252842
-0.0261032
-0.0269547
-0.0278409
-0.0287644
-0.0297276
-0.0307333
-0.031784
-0.0328826
-0.0340316
-0.0352341
-0.0364923
-0.0378091
-0.0391859
-0.0406242
-0.0421237
-0.0436791
-0.0452826
-0.0469054
-0.0485171
-0.0500402
-0.051417
0.0259497
0.0115456
-0.000625396
-0.00489403
-0.00609936
-0.00757925
-0.00921822
-0.0105076
-0.011489
-0.0123364
-0.0131215
-0.0138562
-0.0145482
-0.015209
-0.015849
-0.0164759
-0.0170956
-0.0177127
-0.0183313
-0.0189549
-0.0195867
-0.0202295
-0.0208859
-0.0215583
-0.0222492
-0.0229607
-0.0236951
-0.0244547
-0.0252416
-0.0260581
-0.0269066
-0.0277894
-0.0287088
-0.0296674
-0.0306676
-0.031712
-0.0328034
-0.033944
-0.0351368
-0.0363838
-0.0376874
-0.0390491
-0.0404695
-0.0419478
-0.043478
-0.0450515
-0.0466407
-0.0482159
-0.0497119
-0.0510789
0.0241591
0.0113064
-0.000256039
-0.00471351
-0.00602549
-0.00747557
-0.00910753
-0.0104205
-0.0114192
-0.0122737
-0.0130636
-0.0138033
-0.0144995
-0.0151636
-0.0158061
-0.0164351
-0.0170563
-0.0176746
-0.0182941
-0.0189183
-0.0195504
-0.0201932
-0.0208493
-0.0215212
-0.0222111
-0.0229215
-0.0236544
-0.0244121
-0.0251968
-0.0260107
-0.0268561
-0.0277352
-0.0286504
-0.029604
-0.0305985
-0.0316364
-0.0327201
-0.033852
-0.0350346
-0.03627
-0.0375601
-0.0389061
-0.040308
-0.0417647
-0.0432694
-0.0448129
-0.0463695
-0.0479101
-0.0493807
-0.0507389
0.0224482
0.011009
7.51432e-05
-0.00453287
-0.00595786
-0.00738008
-0.00899861
-0.0103323
-0.0113488
-0.0122107
-0.0130051
-0.0137494
-0.0144498
-0.0151172
-0.0157622
-0.0163931
-0.0170159
-0.0176354
-0.0182557
-0.0188804
-0.0195127
-0.0201554
-0.0208112
-0.0214824
-0.0221714
-0.0228805
-0.0236118
-0.0243676
-0.0251499
-0.025961
-0.026803
-0.0276782
-0.0285889
-0.0295373
-0.0305259
-0.0315568
-0.0326326
-0.0337554
-0.0349275
-0.0361507
-0.0374268
-0.0387566
-0.0401396
-0.0415742
-0.0430532
-0.0445669
-0.0460915
-0.0475995
-0.0490459
-0.0503959
0.0208157
0.0106586
0.000366208
-0.00435297
-0.00589552
-0.00729313
-0.00889224
-0.0102434
-0.011278
-0.0121475
-0.0129461
-0.0136947
-0.0143992
-0.0150697
-0.0157172
-0.01635
-0.0169743
-0.0175949
-0.0182159
-0.0188411
-0.0194736
-0.0201161
-0.0207714
-0.0214419
-0.0221299
-0.0228376
-0.0235672
-0.0243208
-0.0251006
-0.0259086
-0.0267472
-0.0276183
-0.0285242
-0.0294672
-0.0304494
-0.0314732
-0.0325407
-0.0336539
-0.0348151
-0.0360258
-0.0372873
-0.0386004
-0.0399639
-0.041376
-0.0428291
-0.0443133
-0.0458066
-0.0472835
-0.0487069
-0.0500486
0.0192601
0.0102605
0.000615544
-0.00417509
-0.00583749
-0.00721486
-0.00878926
-0.0101539
-0.0112065
-0.0120842
-0.0128865
-0.0136391
-0.0143476
-0.0150213
-0.0156711
-0.0163057
-0.0169314
-0.0175531
-0.0181749
-0.0188004
-0.0194329
-0.0200753
-0.02073
-0.0213997
-0.0220865
-0.0227927
-0.0235204
-0.0242717
-0.0250488
-0.0258537
-0.0266885
-0.0275553
-0.0284562
-0.0293934
-0.0303691
-0.0313853
-0.0324441
-0.0335474
-0.0346972
-0.0358948
-0.0371414
-0.0384372
-0.0397809
-0.04117
-0.0425971
-0.0440519
-0.0455146
-0.0469617
-0.0483628
-0.0496959
0.0177796
0.00982026
0.000821914
-0.00400085
-0.00578279
-0.00714524
-0.0086905
-0.0100643
-0.0111345
-0.0120206
-0.0128266
-0.0135828
-0.014295
-0.0149717
-0.0156239
-0.0162603
-0.0168873
-0.0175099
-0.0181324
-0.0187582
-0.0193907
-0.0200327
-0.0206869
-0.0213556
-0.0220411
-0.0227456
-0.0234713
-0.0242202
-0.0249944
-0.0257959
-0.0266267
-0.027489
-0.0283847
-0.0293159
-0.0302846
-0.0312929
-0.0323426
-0.0334356
-0.0345736
-0.0357577
-0.0369887
-0.0382667
-0.0395901
-0.0409559
-0.0423568
-0.0437825
-0.0452151
-0.0466336
-0.0480129
-0.0493367
0.0163719
0.00934346
0.0009845
-0.00383218
-0.00573047
-0.00708403
-0.00859675
-0.00997492
-0.011062
-0.011957
-0.0127664
-0.0135257
-0.0142414
-0.0149212
-0.0155756
-0.0162136
-0.0168419
-0.0174654
-0.0180884
-0.0187145
-0.0193469
-0.0199885
-0.0206419
-0.0213095
-0.0219936
-0.0226964
-0.0234199
-0.0241662
-0.0249373
-0.0257352
-0.0265619
-0.0274193
-0.0283094
-0.0292343
-0.0301958
-0.0311958
-0.0322361
-0.0333183
-0.0344439
-0.035614
-0.036829
-0.0380888
-0.0393914
-0.0407335
-0.042108
-0.0435048
-0.0449079
-0.0462985
-0.0476565
-0.04897
0.0150347
0.00883577
0.00110295
-0.00367132
-0.0056797
-0.00703083
-0.00850873
-0.00988632
-0.0109889
-0.0118932
-0.0127059
-0.013468
-0.0141869
-0.0148695
-0.0155261
-0.0161657
-0.0167952
-0.0174195
-0.0180429
-0.0186691
-0.0193013
-0.0199424
-0.020595
-0.0212614
-0.0219439
-0.0226448
-0.0233659
-0.0241095
-0.0248773
-0.0256714
-0.0264936
-0.027346
-0.0282303
-0.0291485
-0.0301024
-0.0310937
-0.0321241
-0.0331952
-0.034308
-0.0354636
-0.0366621
-0.037903
-0.0391844
-0.0405025
-0.0418505
-0.0432186
-0.0445925
-0.0459559
-0.0472925
-0.0485946
0.0137654
0.00830281
0.00117743
-0.00352073
-0.00562983
-0.00698504
-0.00842709
-0.00979908
-0.0109154
-0.0118293
-0.0126453
-0.0134097
-0.0141315
-0.0148168
-0.0154754
-0.0161165
-0.016747
-0.0173721
-0.0179959
-0.0186221
-0.019254
-0.0198944
-0.020546
-0.0212111
-0.021892
-0.0225907
-0.0233094
-0.0240499
-0.0248142
-0.0256043
-0.0264219
-0.0272689
-0.0281471
-0.0290583
-0.0300042
-0.0309865
-0.0320066
-0.033066
-0.0341656
-0.0353061
-0.0364876
-0.0377093
-0.0389689
-0.0402627
-0.041584
-0.0429235
-0.0442686
-0.0456051
-0.0469203
-0.0482096
0.0125611
0.00774998
0.00120861
-0.0033829
-0.00558046
-0.00694595
-0.0083523
-0.00971383
-0.0108416
-0.0117652
-0.0125846
-0.0133508
-0.0140752
-0.0147631
-0.0154236
-0.0160661
-0.0166975
-0.0173231
-0.0179472
-0.0185733
-0.0192048
-0.0198445
-0.0204949
-0.0211586
-0.0218376
-0.0225341
-0.02325
-0.0239874
-0.024748
-0.0255338
-0.0263464
-0.0271878
-0.0280596
-0.0289634
-0.029901
-0.0308738
-0.0318833
-0.0329305
-0.0340164
-0.0351414
-0.0363053
-0.0375072
-0.0387447
-0.0400138
-0.0413082
-0.0426193
-0.0439357
-0.0452455
-0.046539
-0.0478139
0.011419
0.0071824
0.00119768
-0.00326015
-0.00553151
-0.0069128
-0.0082847
-0.00963121
-0.0107677
-0.011701
-0.0125239
-0.0132916
-0.014018
-0.0147082
-0.0153706
-0.0160142
-0.0166465
-0.0172726
-0.0178968
-0.0185227
-0.0191537
-0.0197925
-0.0204417
-0.0211037
-0.0217807
-0.0224747
-0.0231878
-0.0239218
-0.0246785
-0.0254597
-0.0262671
-0.0271025
-0.0279675
-0.0288637
-0.0297926
-0.0307555
-0.0317538
-0.0327884
-0.03386
-0.034969
-0.0361148
-0.0372965
-0.0385113
-0.0397555
-0.0410229
-0.0423055
-0.0435934
-0.0448766
-0.0461477
-0.0474067
0.0103361
0.00660481
0.00114631
-0.0031546
-0.00548329
-0.00688477
-0.00822446
-0.0095519
-0.0106941
-0.0116366
-0.0124631
-0.0132319
-0.01396
-0.0146523
-0.0153163
-0.0159611
-0.016594
-0.0172204
-0.0178446
-0.0184703
-0.0191005
-0.0197383
-0.0203861
-0.0210463
-0.0217211
-0.0224126
-0.0231225
-0.0238529
-0.0246054
-0.0253818
-0.0261837
-0.0270129
-0.0278708
-0.0287589
-0.0296787
-0.0306313
-0.031618
-0.0326395
-0.0336963
-0.0347887
-0.035916
-0.0370768
-0.0382687
-0.0394875
-0.0407277
-0.0419818
-0.0432412
-0.0444975
-0.0457456
-0.0469869
0.00930937
0.00602154
0.00105666
-0.00306805
-0.00543641
-0.00686112
-0.00817154
-0.00947654
-0.010621
-0.0115722
-0.0124024
-0.013172
-0.0139013
-0.0145953
-0.0152608
-0.0159065
-0.01654
-0.0171666
-0.0177907
-0.0184158
-0.0190452
-0.0196818
-0.0203281
-0.0209864
-0.0216588
-0.0223474
-0.023054
-0.0237805
-0.0245286
-0.0252999
-0.0260961
-0.0269187
-0.0277691
-0.0286488
-0.029559
-0.0305009
-0.0314755
-0.0324834
-0.033525
-0.0346002
-0.0357084
-0.036848
-0.0380163
-0.0392095
-0.0404223
-0.0416477
-0.0428785
-0.0441077
-0.0453319
-0.0465536
0.00833576
0.00543645
0.000931328
-0.00300202
-0.00539182
-0.00684114
-0.00812578
-0.00940571
-0.0105489
-0.0115076
-0.0123417
-0.013112
-0.0138419
-0.0145372
-0.015204
-0.0158506
-0.0164844
-0.017111
-0.0177348
-0.0183593
-0.0189878
-0.019623
-0.0202675
-0.0209237
-0.0215935
-0.0222791
-0.0229822
-0.0237046
-0.024448
-0.0252139
-0.026004
-0.0268196
-0.0276622
-0.0285331
-0.0294333
-0.0303641
-0.031326
-0.0323198
-0.0333456
-0.0344032
-0.0354918
-0.0366096
-0.037754
-0.0389213
-0.0401063
-0.0413029
-0.0425049
-0.0437065
-0.0449057
-0.046106
0.00741231
0.00485298
0.000773233
-0.00295768
-0.00535066
-0.00682424
-0.00808685
-0.0093399
-0.0104782
-0.011443
-0.012281
-0.0130517
-0.0137818
-0.0144781
-0.015146
-0.0157932
-0.0164271
-0.0170536
-0.0176769
-0.0183007
-0.018928
-0.0195617
-0.0202043
-0.0208582
-0.0215253
-0.0222076
-0.0229069
-0.0236249
-0.0243633
-0.0251236
-0.0259072
-0.0267156
-0.0275499
-0.0284116
-0.0293014
-0.0302205
-0.0311694
-0.0321486
-0.033158
-0.0341975
-0.0352658
-0.0363614
-0.0374815
-0.0386223
-0.0397793
-0.040947
-0.0421198
-0.0432933
-0.0444664
-0.0456431
0.00653611
0.00427408
0.000585557
-0.0029358
-0.00531427
-0.00681
-0.00805429
-0.0092795
-0.0104094
-0.0113786
-0.0122203
-0.0129914
-0.0137212
-0.014418
-0.0150867
-0.0157343
-0.0163682
-0.0169944
-0.0176171
-0.0182398
-0.0188658
-0.0194978
-0.0201384
-0.0207897
-0.0214538
-0.0221326
-0.0228279
-0.0235413
-0.0242744
-0.0250287
-0.0258055
-0.0266062
-0.027432
-0.028284
-0.029163
-0.0300699
-0.0310052
-0.0319693
-0.0329619
-0.0339826
-0.0350303
-0.0361031
-0.0371983
-0.0383125
-0.0394411
-0.0405794
-0.0417226
-0.0428673
-0.0440131
-0.0451642
0.00570434
0.00370227
0.000371644
-0.00293677
-0.00528409
-0.00679817
-0.0080276
-0.00922478
-0.010343
-0.0113145
-0.0121596
-0.012931
-0.0136601
-0.014357
-0.015026
-0.0156739
-0.0163077
-0.0169333
-0.0175551
-0.0181767
-0.0188012
-0.0194313
-0.0200695
-0.0207181
-0.0213789
-0.022054
-0.022745
-0.0234535
-0.0241811
-0.024929
-0.0256987
-0.0264914
-0.0273082
-0.02815
-0.0290178
-0.0299121
-0.0308333
-0.0317816
-0.0327569
-0.0337583
-0.0347848
-0.0358343
-0.0369043
-0.0379913
-0.0390913
-0.0401999
-0.041313
-0.042428
-0.0435451
-0.0446685
0.00491431
0.00313963
0.000134898
-0.00296054
-0.00526153
-0.00678871
-0.00800621
-0.00917584
-0.0102795
-0.0112511
-0.012099
-0.0128705
-0.0135986
-0.014295
-0.0149641
-0.0156119
-0.0162453
-0.0168702
-0.017491
-0.0181112
-0.018734
-0.019362
-0.0199977
-0.0206432
-0.0213006
-0.0219717
-0.0226581
-0.0233614
-0.0240831
-0.0248244
-0.0255866
-0.0263709
-0.0271782
-0.0280095
-0.0288655
-0.0297466
-0.0306533
-0.0315854
-0.0325427
-0.0335244
-0.0345291
-0.0355548
-0.0365991
-0.0376585
-0.0387294
-0.0398078
-0.0408903
-0.0419748
-0.0430617
-0.0441553
0.00416348
0.00258786
-0.000121307
-0.00300669
-0.00524798
-0.00678177
-0.00798957
-0.00913269
-0.0102193
-0.0111885
-0.0120384
-0.01281
-0.0135367
-0.0142321
-0.0149009
-0.0155484
-0.0161812
-0.0168051
-0.0174246
-0.0180432
-0.018664
-0.0192897
-0.0199226
-0.020565
-0.0212187
-0.0218855
-0.022567
-0.0232648
-0.0239802
-0.0247145
-0.0254689
-0.0262444
-0.0270418
-0.0278621
-0.0287058
-0.0295734
-0.0304649
-0.0313803
-0.0323191
-0.0332804
-0.0342628
-0.0352643
-0.0362823
-0.0373137
-0.0383551
-0.0394029
-0.0404541
-0.041507
-0.0425624
-0.0436241
0.00344946
0.0020483
-0.000393709
-0.00307444
-0.00524461
-0.0067777
-0.00797717
-0.00909518
-0.0101628
-0.0111271
-0.011978
-0.0127494
-0.0134745
-0.0141684
-0.0148365
-0.0154834
-0.0161152
-0.0167379
-0.0173559
-0.0179727
-0.0185913
-0.0192144
-0.0198444
-0.0204832
-0.0211329
-0.0217952
-0.0224716
-0.0231635
-0.0238724
-0.0245993
-0.0253454
-0.0261116
-0.0268988
-0.0277076
-0.0285386
-0.029392
-0.0302678
-0.0311659
-0.0320857
-0.0330262
-0.0339857
-0.0349624
-0.0359537
-0.0369567
-0.0379681
-0.0389846
-0.0400038
-0.0410242
-0.0420465
-0.0430743
0.00276999
0.00152197
-0.000679216
-0.00316269
-0.0052524
-0.006777
-0.0079686
-0.0090631
-0.0101103
-0.0110673
-0.0119179
-0.0126888
-0.013412
-0.014104
-0.0147707
-0.0154167
-0.0160474
-0.0166686
-0.0172848
-0.0178995
-0.0185157
-0.019136
-0.0197627
-0.0203978
-0.0210432
-0.0217006
-0.0223715
-0.0230573
-0.0237592
-0.0244784
-0.0252158
-0.0259724
-0.0267488
-0.0275457
-0.0283634
-0.0292022
-0.0300618
-0.0309421
-0.0318423
-0.0327613
-0.0336975
-0.0346489
-0.035613
-0.036587
-0.0375679
-0.0385527
-0.039539
-0.0405258
-0.0415136
-0.0425054
0.002123
0.00100962
-0.000974943
-0.00327005
-0.00527203
-0.00678028
-0.00796354
-0.00903612
-0.010062
-0.0110093
-0.0118582
-0.0126282
-0.0133491
-0.0140387
-0.0147037
-0.0153483
-0.0159776
-0.016597
-0.0172112
-0.0178236
-0.0184371
-0.0190543
-0.0196774
-0.0203085
-0.0209494
-0.0216016
-0.0222667
-0.022946
-0.0236406
-0.0243516
-0.02508
-0.0258265
-0.0265917
-0.0273762
-0.0281801
-0.0290037
-0.0298466
-0.0307085
-0.0315886
-0.0324856
-0.0333978
-0.0343234
-0.0352598
-0.0362044
-0.0371543
-0.0381066
-0.0390594
-0.0400115
-0.0409633
-0.0419173
0.00150656
0.000511752
-0.00127825
-0.00339493
-0.00530395
-0.00678821
-0.00796181
-0.00901391
-0.010018
-0.0109536
-0.011799
-0.0125675
-0.0132859
-0.0139727
-0.0146355
-0.0152783
-0.0159058
-0.0165232
-0.017135
-0.0177448
-0.0183554
-0.0189692
-0.0195885
-0.0202152
-0.0208512
-0.021498
-0.0221569
-0.0228293
-0.0235163
-0.0242187
-0.0249376
-0.0256735
-0.0264271
-0.0271986
-0.0279884
-0.0287962
-0.0296218
-0.0304649
-0.0313242
-0.0321986
-0.0330865
-0.0339857
-0.034894
-0.0358086
-0.0367268
-0.0376462
-0.0385645
-0.0394809
-0.0403953
-0.0413096
0.000918882
2.86862e-05
-0.00158674
-0.00353562
-0.00534829
-0.00680146
-0.00796332
-0.00899611
-0.00997836
-0.0109003
-0.0117406
-0.0125068
-0.0132225
-0.0139061
-0.0145661
-0.0152066
-0.015832
-0.0164471
-0.0170563
-0.0176631
-0.0182704
-0.0188805
-0.0194957
-0.0201178
-0.0207486
-0.0213896
-0.022042
-0.0227071
-0.023386
-0.0240795
-0.0247884
-0.0255134
-0.0262548
-0.0270129
-0.0277878
-0.0285794
-0.0293873
-0.0302108
-0.031049
-0.0319003
-0.0327632
-0.0336356
-0.0345151
-0.0353993
-0.0362854
-0.037171
-0.0380541
-0.0389336
-0.0398093
-0.0406822
0.000358334
-0.00043941
-0.00189828
-0.00369026
-0.00540495
-0.00682063
-0.0079681
-0.00898238
-0.00994293
-0.0108497
-0.0116832
-0.0124463
-0.0131587
-0.0138387
-0.0144954
-0.0151333
-0.0157561
-0.0163685
-0.0169748
-0.0175783
-0.018182
-0.0187882
-0.0193989
-0.0200161
-0.0206413
-0.0212761
-0.0219217
-0.0225792
-0.0232496
-0.0239337
-0.0246323
-0.0253457
-0.0260745
-0.0268187
-0.0275783
-0.0283531
-0.0291427
-0.0299462
-0.0307625
-0.0315903
-0.0324277
-0.0332727
-0.0341231
-0.0349762
-0.0358296
-0.0366808
-0.0375279
-0.0383695
-0.0392051
-0.0400351
-0.000176582
-0.000892486
-0.00221099
-0.00385702
-0.00547357
-0.00684623
-0.00797627
-0.00897239
-0.00991159
-0.010802
-0.011627
-0.0123858
-0.0130946
-0.0137706
-0.0144235
-0.0150582
-0.0156781
-0.0162875
-0.0168905
-0.0174904
-0.0180902
-0.0186921
-0.019298
-0.0199099
-0.0205293
-0.0211575
-0.0217958
-0.0224453
-0.0231068
-0.0237811
-0.0244688
-0.0251703
-0.0258859
-0.0266157
-0.0273596
-0.028117
-0.0288878
-0.0296707
-0.0304647
-0.0312683
-0.0320798
-0.0328969
-0.0337176
-0.0345392
-0.0353593
-0.0361754
-0.0369857
-0.0377885
-0.0385829
-0.0393686
-0.000687238
-0.00133058
-0.00252321
-0.00403404
-0.00555357
-0.00687865
-0.00798801
-0.0089659
-0.00988414
-0.0107572
-0.0115721
-0.0123256
-0.0130302
-0.0137017
-0.0143505
-0.0149814
-0.015598
-0.0162039
-0.0168033
-0.0173993
-0.0179948
-0.018592
-0.0191929
-0.0197991
-0.0204122
-0.0210335
-0.0216642
-0.0223052
-0.0229574
-0.0236214
-0.0242978
-0.0249869
-0.0256889
-0.0264038
-0.0271312
-0.027871
-0.0286222
-0.0293841
-0.0301553
-0.0309342
-0.0317192
-0.032508
-0.0332984
-0.034088
-0.0348742
-0.0356547
-0.0364274
-0.0371905
-0.0379426
-0.0386828
-0.00117489
-0.00175381
-0.00283353
-0.00421952
-0.0056442
-0.00691812
-0.00800351
-0.00896268
-0.00986033
-0.0107154
-0.0115188
-0.0122657
-0.0129654
-0.0136321
-0.0142762
-0.0149029
-0.0155156
-0.0161177
-0.0167131
-0.0173048
-0.0178957
-0.0184879
-0.0190832
-0.0196834
-0.0202899
-0.0209039
-0.0215265
-0.0221587
-0.0228011
-0.0234545
-0.0241191
-0.0247953
-0.0254832
-0.0261826
-0.0268932
-0.0276146
-0.0283459
-0.0290862
-0.029834
-0.0305878
-0.0313457
-0.0321058
-0.0328655
-0.0336225
-0.0343744
-0.0351186
-0.035853
-0.0365755
-0.0372844
-0.0379781
-0.00164066
-0.00216231
-0.0031407
-0.00441176
-0.00574456
-0.0069647
-0.00802297
-0.0089626
-0.00983993
-0.0106766
-0.0114671
-0.0122062
-0.0129003
-0.0135618
-0.0142007
-0.0148226
-0.0154309
-0.0160289
-0.0166198
-0.0172069
-0.0177928
-0.0183795
-0.018969
-0.0195628
-0.0201622
-0.0207685
-0.0213827
-0.0220056
-0.0226378
-0.02328
-0.0239324
-0.0245952
-0.0252685
-0.0259519
-0.0266451
-0.0273477
-0.0280586
-0.0287767
-0.0295006
-0.0302288
-0.0309593
-0.03169
-0.0324186
-0.0331427
-0.0338597
-0.0345671
-0.0352625
-0.0359438
-0.0366087
-0.0372552
-0.00208561
-0.00255627
-0.00344367
-0.00460913
-0.00585365
-0.00701827
-0.00804655
-0.00896555
-0.00982267
-0.0106406
-0.0114172
-0.0121473
-0.012835
-0.0134906
-0.0141239
-0.0147405
-0.015344
-0.0159372
-0.0165233
-0.0171054
-0.0176858
-0.0182668
-0.01885
-0.019437
-0.020029
-0.0206272
-0.0212325
-0.0218456
-0.0224672
-0.0230978
-0.0237375
-0.0243864
-0.0250445
-0.0257115
-0.0263869
-0.0270701
-0.02776
-0.0284555
-0.0291551
-0.0298572
-0.0305598
-0.0312608
-0.0319578
-0.0326484
-0.0333301
-0.0340002
-0.0346562
-0.0352957
-0.035916
-0.0365146
-0.00251068
-0.00293588
-0.00374152
-0.00481015
-0.00597039
-0.00707859
-0.00807435
-0.00897144
-0.00980832
-0.0106073
-0.011369
-0.012089
-0.0127693
-0.0134186
-0.0140457
-0.0146566
-0.0152547
-0.0158427
-0.0164236
-0.0170002
-0.0175748
-0.0181496
-0.0187262
-0.0193059
-0.0198901
-0.0204797
-0.0210757
-0.0216787
-0.0222892
-0.0229076
-0.0235341
-0.0241687
-0.0248112
-0.0254612
-0.0261182
-0.0267815
-0.02745
-0.0281224
-0.0287973
-0.0294728
-0.0301471
-0.0308179
-0.031483
-0.0321398
-0.0327857
-0.0334181
-0.0340342
-0.0346314
-0.0352068
-0.0357573
-0.00291671
-0.00330135
-0.00403347
-0.00501341
-0.00609367
-0.00714526
-0.0081064
-0.00898023
-0.00979664
-0.0105765
-0.0113226
-0.0120313
-0.0127034
-0.0133457
-0.0139662
-0.0145708
-0.015163
-0.0157453
-0.0163205
-0.0168912
-0.0174596
-0.0180278
-0.0185972
-0.0191693
-0.0197452
-0.0203259
-0.0209121
-0.0215044
-0.0221034
-0.0227092
-0.0233221
-0.0239418
-0.0245681
-0.0252007
-0.025839
-0.0264819
-0.0271285
-0.0277773
-0.0284269
-0.0290755
-0.0297211
-0.0303615
-0.0309942
-0.0316169
-0.0322267
-0.032821
-0.0333969
-0.0339516
-0.0344817
-0.0349839
-0.00330449
-0.00365289
-0.00431884
-0.00521765
-0.00622236
-0.00721776
-0.00814264
-0.00899183
-0.00978743
-0.010548
-0.0112779
-0.0119743
-0.0126372
-0.0132719
-0.0138853
-0.0144831
-0.0150688
-0.0156449
-0.016214
-0.0167783
-0.01734
-0.0179011
-0.0184631
-0.0190271
-0.0195943
-0.0201655
-0.0207415
-0.0213228
-0.0219097
-0.0225025
-0.0231012
-0.0237055
-0.0243153
-0.02493
-0.0255489
-0.0261711
-0.0267952
-0.0274201
-0.0280441
-0.0286654
-0.0292819
-0.0298914
-0.0304916
-0.0310798
-0.0316533
-0.0322093
-0.0327448
-0.0332568
-0.0337416
-0.0341958
-0.00367472
-0.0039907
-0.00459705
-0.0054217
-0.00635532
-0.00729548
-0.00818289
-0.00900618
-0.00978048
-0.0105217
-0.0112348
-0.011918
-0.0125708
-0.0131971
-0.0138028
-0.0143933
-0.014972