/*--------------------------------*- C++ -*----------------------------------*\
  =========                 |
  \\      /  F ield         | OpenFOAM: The Open Source CFD Toolbox
   \\    /   O peration     | Website:  https://openfoam.org
    \\  /    A nd           | Version:  7
     \\/     M anipulation  |
\*---------------------------------------------------------------------------*/
FoamFile
{
    version     2.0;
    format      ascii;
    class       surfaceScalarField;
    location    "0.06";
    object      phi;
}
// * * * * * * * * * * * * * * * * * * * * * * * * * * * * * * * * * * * * * //

dimensions      [0 3 -1 0 0 0 0];

internalField   nonuniform List<scalar> 
139350
(
6.45162e-08
9.21153e-08
3.19756e-08
3.25406e-08
2.30784e-08
8.89715e-09
1.96022e-08
3.47626e-09
1.7659e-08
1.94318e-09
1.62377e-08
1.42126e-09
1.51139e-08
1.12388e-09
1.42106e-08
9.03226e-10
1.34694e-08
7.41274e-10
1.28467e-08
6.22666e-10
1.23138e-08
5.32852e-10
1.18515e-08
4.62347e-10
1.1446e-08
4.05533e-10
1.10871e-08
3.58866e-10
1.07672e-08
3.19929e-10
1.04802e-08
2.86992e-10
1.02214e-08
2.58781e-10
9.98705e-09
2.34347e-10
9.77408e-09
2.12964e-10
9.58001e-09
1.94072e-10
9.40278e-09
1.77229e-10
9.2407e-09
1.62079e-10
9.09237e-09
1.48333e-10
8.95662e-09
1.35754e-10
8.83248e-09
1.24139e-10
8.71916e-09
1.13317e-10
8.61602e-09
1.03141e-10
8.52254e-09
9.34807e-11
8.43832e-09
8.42154e-11
8.36308e-09
7.52464e-11
8.29662e-09
6.64583e-11
8.23884e-09
5.77781e-11
8.18977e-09
4.90745e-11
8.14946e-09
4.03083e-11
8.11816e-09
3.12984e-11
8.0961e-09
2.20564e-11
8.08379e-09
1.23167e-11
8.08165e-09
2.13344e-12
8.09047e-09
-8.81864e-12
8.1111e-09
-2.06321e-11
8.14439e-09
-3.32894e-11
8.19239e-09
-4.80012e-11
8.255e-09
-6.26059e-11
8.33833e-09
-8.33329e-11
8.43713e-09
-9.87997e-11
8.5723e-09
-1.35163e-10
8.71381e-09
-1.41518e-10
8.96446e-09
-2.50645e-10
8.95262e-09
1.18341e-11
-4.2724e-09
1.3225e-08
1.25949e-07
1.2761e-07
9.13099e-08
6.71796e-08
7.19768e-08
2.82303e-08
6.12827e-08
1.41703e-08
5.48686e-08
8.35733e-09
5.03965e-08
5.89329e-09
4.69354e-08
4.58504e-09
4.41456e-08
3.69299e-09
4.18464e-08
3.04052e-09
3.99121e-08
2.55692e-09
3.82557e-08
2.18932e-09
3.6817e-08
1.90102e-09
3.55536e-08
1.66896e-09
3.44339e-08
1.47848e-09
3.34343e-08
1.31961e-09
3.2536e-08
1.18528e-09
3.17244e-08
1.07031e-09
3.0988e-08
9.70809e-10
3.03171e-08
8.83832e-10
2.97041e-08
8.0709e-10
2.91425e-08
7.38781e-10
2.86272e-08
6.77459e-10
2.81535e-08
6.21951e-10
2.7718e-08
5.71284e-10
2.73175e-08
5.24648e-10
2.69495e-08
4.8135e-10
2.66118e-08
4.40795e-10
2.63028e-08
4.02462e-10
2.60212e-08
3.65876e-10
2.57658e-08
3.3063e-10
2.5536e-08
2.96295e-10
2.53312e-08
2.62548e-10
2.51513e-08
2.28925e-10
2.49964e-08
1.95218e-10
2.48669e-08
1.60791e-10
2.47633e-08
1.2565e-10
2.46869e-08
8.87486e-11
2.46385e-08
5.05244e-11
2.46206e-08
9.0991e-12
2.46343e-08
-3.43448e-11
2.46839e-08
-8.28244e-11
2.47706e-08
-1.348e-10
2.49016e-08
-1.9359e-10
2.50793e-08
-2.60998e-10
2.53134e-08
-3.32945e-10
2.56164e-08
-4.38119e-10
2.59801e-08
-5.0523e-10
2.65404e-08
-8.10894e-10
2.69715e-08
-4.1927e-10
-5.88853e-09
2.85876e-08
1.58757e-07
1.35257e-07
1.36547e-07
8.93894e-08
1.17539e-07
4.72385e-08
1.03392e-07
2.83169e-08
9.34317e-08
1.8318e-08
8.61667e-08
1.31582e-08
8.04961e-08
1.02557e-08
7.58828e-08
8.30625e-09
7.20442e-08
6.87915e-09
6.87922e-08
5.80883e-09
6.59936e-08
4.98802e-09
6.35533e-08
4.34126e-09
6.14031e-08
3.81921e-09
5.94918e-08
3.3897e-09
5.77806e-08
3.03082e-09
5.6239e-08
2.72693e-09
5.48428e-08
2.46653e-09
5.35725e-08
2.24102e-09
5.24126e-08
2.04382e-09
5.13498e-08
1.86982e-09
5.03736e-08
1.71498e-09
4.9475e-08
1.57607e-09
4.86465e-08
1.45045e-09
4.78819e-08
1.33594e-09
4.71758e-08
1.23073e-09
4.65239e-08
1.13325e-09
4.59225e-08
1.04219e-09
4.53686e-08
9.56368e-10
4.48597e-08
8.74747e-10
4.43939e-08
7.96402e-10
4.39698e-08
7.20413e-10
4.35863e-08
6.46037e-10
4.3243e-08
5.72309e-10
4.29395e-08
4.98714e-10
4.26763e-08
4.23944e-10
4.2454e-08
3.47971e-10
4.22742e-08
2.68535e-10
4.2138e-08
1.86769e-10
4.20489e-08
9.81958e-11
4.2008e-08
6.49507e-12
4.20225e-08
-9.72691e-11
4.2092e-08
-2.04304e-10
4.22305e-08
-3.32143e-10
4.24341e-08
-4.64629e-10
4.27293e-08
-6.281e-10
4.31116e-08
-8.20369e-10
4.36078e-08
-1.00143e-09
4.43091e-08
-1.51223e-09
4.51477e-08
-1.25784e-09
-6.72535e-09
4.59845e-08
1.75614e-07
1.31158e-07
1.6564e-07
9.93641e-08
1.52776e-07
6.01024e-08
1.402e-07
4.08927e-08
1.29558e-07
2.89594e-08
1.20962e-07
2.17545e-08
1.13895e-07
1.73225e-08
1.07962e-07
1.42395e-08
1.02911e-07
1.193e-08
9.85599e-08
1.01603e-08
9.47676e-08
8.78027e-09
9.14288e-08
7.68005e-09
8.84637e-08
6.78437e-09
8.58108e-08
6.04256e-09
8.34222e-08
5.4194e-09
8.12598e-08
4.88939e-09
7.92927e-08
4.43363e-09
7.74959e-08
4.0378e-09
7.58488e-08
3.69086e-09
7.43345e-08
3.3842e-09
7.29385e-08
3.11097e-09
7.16489e-08
2.86564e-09
7.04557e-08
2.6437e-09
6.93502e-08
2.4414e-09
6.83253e-08
2.25561e-09
6.73749e-08
2.08365e-09
6.64939e-08
1.92323e-09
6.56779e-08
1.77233e-09
6.49235e-08
1.62915e-09
6.42278e-08
1.49209e-09
6.35886e-08
1.3596e-09
6.30043e-08
1.23036e-09
6.24739e-08
1.10278e-09
6.19967e-08
9.7592e-10
6.1573e-08
8.47645e-10
6.12031e-08
7.17844e-10
6.08889e-08
5.82762e-10
6.06312e-08
4.4438e-10
6.04345e-08
2.9494e-10
6.02995e-08
1.41516e-10
6.0235e-08
-3.27845e-11
6.02399e-08
-2.09206e-10
6.03317e-08
-4.23972e-10
6.0504e-08
-6.36937e-10
6.07901e-08
-9.14145e-10
6.11805e-08
-1.21078e-09
6.17171e-08
-1.53805e-09
6.24563e-08
-2.25147e-09
6.34717e-08
-2.2732e-09
-7.46747e-09
6.42138e-08
1.84512e-07
1.23431e-07
1.82352e-07
1.01524e-07
1.76152e-07
6.63021e-08
1.67825e-07
4.92197e-08
1.59245e-07
3.754e-08
1.51384e-07
2.9615e-08
1.44362e-07
2.43452e-08
1.38115e-07
2.04861e-08
1.32571e-07
1.74744e-08
1.27643e-07
1.50875e-08
1.23247e-07
1.31765e-08
1.19305e-07
1.16223e-08
1.15752e-07
1.03373e-08
1.12535e-07
9.25985e-09
1.09609e-07
8.34559e-09
1.06936e-07
7.56154e-09
1.04487e-07
6.88265e-09
1.02236e-07
6.28961e-09
1.00159e-07
5.76732e-09
9.82395e-08
5.3038e-09
9.64611e-08
4.88943e-09
9.48103e-08
4.51637e-09
9.32759e-08
4.17816e-09
9.18479e-08
3.86939e-09
9.0518e-08
3.58552e-09
8.9279e-08
3.32265e-09
8.81248e-08
3.07742e-09
8.70503e-08
2.84685e-09
8.60511e-08
2.62831e-09
8.51238e-08
2.41941e-09
8.42655e-08
2.21789e-09
8.34741e-08
2.02178e-09
8.27481e-08
1.82878e-09
8.20865e-08
1.63745e-09
8.14894e-08
1.44473e-09
8.09569e-08
1.25035e-09
8.04907e-08
1.04899e-09
8.00917e-08
8.43394e-10
7.97642e-08
6.22429e-10
7.95093e-08
3.9644e-10
7.93358e-08
1.40662e-10
7.92434e-08
-1.16767e-10
7.92494e-08
-4.29961e-10
7.93492e-08
-7.3673e-10
7.95739e-08
-1.13889e-09
7.99204e-08
-1.55731e-09
8.04259e-08
-2.04355e-09
8.11408e-08
-2.96634e-09
8.21629e-08
-3.29524e-09
-8.18958e-09
8.2885e-08
1.90344e-07
1.15303e-07
1.91868e-07
1e-07
1.90287e-07
6.78836e-08
1.86207e-07
5.33e-08
1.80802e-07
4.29446e-08
1.75092e-07
3.53245e-08
1.69445e-07
2.99929e-08
1.64014e-07
2.59163e-08
1.58898e-07
2.25911e-08
1.54135e-07
1.98498e-08
1.49729e-07
1.75826e-08
1.45662e-07
1.56892e-08
1.4191e-07
1.40894e-08
1.38446e-07
1.27237e-08
1.35245e-07
1.15474e-08
1.3228e-07
1.05257e-08
1.29532e-07
9.63156e-09
1.26978e-07
8.84331e-09
1.24602e-07
8.14364e-09
1.22387e-07
7.5185e-09
1.2032e-07
6.9564e-09
1.18388e-07
6.44783e-09
1.16582e-07
5.98483e-09
1.14891e-07
5.56064e-09
1.13307e-07
5.16952e-09
1.11823e-07
4.80651e-09
1.10433e-07
4.46726e-09
1.09132e-07
4.14794e-09
1.07915e-07
3.84509e-09
1.06779e-07
3.55561e-09
1.0572e-07
3.27648e-09
1.04737e-07
3.00511e-09
1.03827e-07
2.73846e-09
1.0299e-07
2.47458e-09
1.02225e-07
2.20951e-09
1.01533e-07
1.94272e-09
1.00914e-07
1.6674e-09
1.00371e-07
1.38681e-09
9.99067e-08
1.08682e-09
9.95228e-08
7.80283e-10
9.92277e-08
4.35824e-10
9.90223e-08
8.86212e-11
9.89216e-08
-3.29295e-10
9.89258e-08
-7.40953e-10
9.90583e-08
-1.27137e-09
9.93284e-08
-1.8274e-09
9.97583e-08
-2.47346e-09
1.00404e-07
-3.61209e-09
1.01354e-07
-4.24504e-09
-8.84072e-09
1.02005e-07
1.95506e-07
1.07612e-07
1.98256e-07
9.72511e-08
1.99006e-07
6.71331e-08
1.97831e-07
5.44747e-08
1.95225e-07
4.5551e-08
1.91921e-07
3.86281e-08
1.88233e-07
3.36812e-08
1.84332e-07
2.98173e-08
1.80368e-07
2.65555e-08
1.76449e-07
2.37684e-08
1.72643e-07
2.13885e-08
1.68988e-07
1.93444e-08
1.65503e-07
1.75743e-08
1.62196e-07
1.60305e-08
1.59068e-07
1.46757e-08
1.56114e-07
1.34799e-08
1.53327e-07
1.24184e-08
1.50699e-07
1.14711e-08
1.48222e-07
1.0621e-08
1.45886e-07
9.85434e-09
1.43683e-07
9.1592e-09
1.41605e-07
8.52561e-09
1.39645e-07
7.94506e-09
1.37796e-07
7.41017e-09
1.36051e-07
6.91455e-09
1.34404e-07
6.45258e-09
1.32852e-07
6.0193e-09
1.3139e-07
5.61024e-09
1.30014e-07
5.22137e-09
1.28721e-07
4.84896e-09
1.27508e-07
4.48945e-09
1.26373e-07
4.13968e-09
1.25315e-07
3.79598e-09
1.24334e-07
3.4559e-09
1.23429e-07
3.11469e-09
1.226e-07
2.7715e-09
1.21849e-07
2.41827e-09
1.21178e-07
2.05843e-09
1.20589e-07
1.6755e-09
1.20086e-07
1.28375e-09
1.19674e-07
8.47149e-10
1.19358e-07
4.04667e-10
1.19149e-07
-1.19927e-10
1.19052e-07
-6.44237e-10
1.19082e-07
-1.30135e-09
1.1926e-07
-2.00582e-09
1.19596e-07
-2.80861e-09
1.20142e-07
-4.15894e-09
1.20984e-07
-5.08671e-09
-9.39182e-09
1.21535e-07
2.00822e-07
1.00375e-07
2.0378e-07
9.42924e-08
2.05365e-07
6.5549e-08
2.05682e-07
5.41575e-08
2.04874e-07
4.63588e-08
2.03424e-07
4.00777e-08
2.01514e-07
3.5592e-08
1.99226e-07
3.21045e-08
1.96669e-07
2.91126e-08
1.93944e-07
2.64935e-08
1.91131e-07
2.42016e-08
1.88289e-07
2.21861e-08
1.85463e-07
2.04009e-08
1.82683e-07
1.88106e-08
1.79971e-07
1.73877e-08
1.77341e-07
1.61094e-08
1.74803e-07
1.49566e-08
1.72361e-07
1.39128e-08
1.70018e-07
1.29642e-08
1.67774e-07
1.20986e-08
1.65627e-07
1.13055e-08
1.63577e-07
1.05758e-08
1.61621e-07
9.9015e-09
1.59756e-07
9.27547e-09
1.57979e-07
8.6914e-09
1.56288e-07
8.14363e-09
1.5468e-07
7.62705e-09
1.53153e-07
7.13698e-09
1.51705e-07
6.66911e-09
1.50335e-07
6.21942e-09
1.4904e-07
5.78397e-09
1.47821e-07
5.35925e-09
1.46676e-07
4.94113e-09
1.45605e-07
4.52678e-09
1.44609e-07
4.11083e-09
1.43688e-07
3.69208e-09
1.42845e-07
3.26155e-09
1.42081e-07
2.8225e-09
1.41399e-07
2.35691e-09
1.40804e-07
1.87929e-09
1.403e-07
1.35111e-09
1.39893e-07
8.11699e-10
1.3959e-07
1.82475e-10
1.39404e-07
-4.57717e-10
1.39339e-07
-1.23679e-09
1.39427e-07
-2.09334e-09
1.39667e-07
-3.04849e-09
1.40103e-07
-4.59517e-09
1.40819e-07
-5.80311e-09
-9.83588e-09
1.41263e-07
2.06425e-07
9.34816e-08
2.09341e-07
9.1377e-08
2.11076e-07
6.38135e-08
2.11971e-07
5.3262e-08
2.12054e-07
4.62758e-08
2.11695e-07
4.04373e-08
2.10996e-07
3.62904e-08
2.09963e-07
3.31385e-08
2.08632e-07
3.04434e-08
2.07062e-07
2.8063e-08
2.05309e-07
2.59544e-08
2.03422e-07
2.40737e-08
2.01442e-07
2.23812e-08
1.99404e-07
2.08483e-08
1.97338e-07
1.94538e-08
1.95266e-07
1.81809e-08
1.93207e-07
1.70155e-08
1.91175e-07
1.59451e-08
1.8918e-07
1.49592e-08
1.8723e-07
1.40484e-08
1.85331e-07
1.32043e-08
1.83488e-07
1.24194e-08
1.81703e-07
1.16869e-08
1.79977e-07
1.10006e-08
1.78314e-07
1.0355e-08
1.76713e-07
9.74484e-09
1.75174e-07
9.16532e-09
1.73699e-07
8.61197e-09
1.72288e-07
8.08056e-09
1.7094e-07
7.56706e-09
1.69657e-07
7.06744e-09
1.68438e-07
6.57805e-09
1.67285e-07
6.09454e-09
1.66198e-07
5.61382e-09
1.65178e-07
5.13013e-09
1.64228e-07
4.64198e-09
1.6335e-07
4.13976e-09
1.62546e-07
3.62636e-09
1.6182e-07
3.08293e-09
1.61176e-07
2.52329e-09
1.60619e-07
1.90833e-09
1.60156e-07
1.2749e-09
1.59791e-07
5.46841e-10
1.59541e-07
-2.07086e-10
1.59405e-07
-1.10058e-09
1.59416e-07
-2.10519e-09
1.59574e-07
-3.20618e-09
1.59905e-07
-4.92565e-09
1.60493e-07
-6.39136e-09
-1.01768e-08
1.60834e-07
2.12271e-07
8.68725e-08
2.1515e-07
8.84987e-08
2.16832e-07
6.21316e-08
2.17887e-07
5.22069e-08
2.18314e-07
4.58486e-08
2.18454e-07
4.02971e-08
2.18406e-07
3.63385e-08
2.18138e-07
3.34061e-08
2.17645e-07
3.09365e-08
2.16946e-07
2.87626e-08
2.16063e-07
2.68366e-08
2.15024e-07
2.51133e-08
2.13852e-07
2.35528e-08
2.12574e-07
2.21267e-08
2.11212e-07
2.08159e-08
2.09787e-07
1.96056e-08
2.08318e-07
1.84845e-08
2.0682e-07
1.74426e-08
2.05308e-07
1.64718e-08
2.03792e-07
1.55646e-08
2.02281e-07
1.47147e-08
2.00785e-07
1.39161e-08
1.99308e-07
1.31633e-08
1.97857e-07
1.24514e-08
1.96437e-07
1.17755e-08
1.9505e-07
1.11313e-08
1.93701e-07
1.05146e-08
1.92392e-07
9.92115e-09
1.91125e-07
9.34721e-09
1.89903e-07
8.78891e-09
1.88729e-07
8.24237e-09
1.87603e-07
7.70395e-09
1.86528e-07
7.16928e-09
1.85507e-07
6.63516e-09
1.84541e-07
6.09566e-09
1.83634e-07
5.54901e-09
1.82788e-07
4.98531e-09
1.82008e-07
4.40693e-09
1.81296e-07
3.79482e-09
1.80658e-07
3.16141e-09
1.80098e-07
2.46853e-09
1.79624e-07
1.74856e-09
1.7924e-07
9.31124e-10
1.78962e-07
7.0878e-11
1.78788e-07
-9.26498e-10
1.78751e-07
-2.06819e-09
1.7885e-07
-3.30503e-09
1.79092e-07
-5.16834e-09
1.79562e-07
-6.86148e-09
-1.04264e-08
1.79812e-07
2.18317e-07
8.05359e-08
2.21199e-07
8.56167e-08
2.22805e-07
6.05259e-08
2.23889e-07
5.1123e-08
2.24425e-07
4.53126e-08
2.24742e-07
3.99798e-08
2.24969e-07
3.61117e-08
2.25077e-07
3.32981e-08
2.25046e-07
3.09675e-08
2.24877e-07
2.8932e-08
2.24574e-07
2.71397e-08
2.24143e-07
2.55439e-08
2.23594e-07
2.41016e-08
2.22938e-07
2.27826e-08
2.22188e-07
2.15661e-08
2.21356e-07
2.04374e-08
2.20456e-07
1.93851e-08
2.19498e-07
1.84001e-08
2.18495e-07
1.74748e-08
2.17457e-07
1.66029e-08
2.16393e-07
1.5779e-08
2.15311e-07
1.49979e-08
2.14219e-07
1.42553e-08
2.13123e-07
1.35469e-08
2.1203e-07
1.28687e-08
2.10945e-07
1.22168e-08
2.09872e-07
1.15876e-08
2.08815e-07
1.09774e-08
2.0778e-07
1.03828e-08
2.06768e-07
9.8002e-09
2.05785e-07
9.22586e-09
2.04832e-07
8.65632e-09
2.03915e-07
8.08725e-09
2.03034e-07
7.51546e-09
2.02195e-07
6.93494e-09
2.014e-07
6.34374e-09
2.00654e-07
5.73187e-09
1.9996e-07
5.10109e-09
1.99322e-07
4.43265e-09
1.98746e-07
3.73711e-09
1.98236e-07
2.97838e-09
1.97802e-07
2.18307e-09
1.97444e-07
1.28884e-09
1.97181e-07
3.33969e-10
1.97008e-07
-7.53898e-10
1.96956e-07
-2.01609e-09
1.97026e-07
-3.37496e-09
1.97208e-07
-5.35023e-09
1.97581e-07
-7.23412e-09
-1.06038e-08
1.97758e-07
2.24551e-07
7.44782e-08
2.27459e-07
8.27083e-08
2.29002e-07
5.89838e-08
2.30093e-07
5.00314e-08
2.3067e-07
4.47355e-08
2.31036e-07
3.96136e-08
2.31353e-07
3.57952e-08
2.31608e-07
3.30424e-08
2.31785e-07
3.07911e-08
2.3188e-07
2.88363e-08
2.31895e-07
2.71251e-08
2.31827e-07
2.56118e-08
2.31676e-07
2.42524e-08
2.31445e-07
2.3014e-08
2.31136e-07
2.18746e-08
2.30756e-07
2.08179e-08
2.30309e-07
1.98316e-08
2.29803e-07
1.89063e-08
2.29244e-07
1.80341e-08
2.28638e-07
1.72085e-08
2.27993e-07
1.64242e-08
2.27315e-07
1.56765e-08
2.26609e-07
1.4961e-08
2.25882e-07
1.4274e-08
2.25139e-07
1.36118e-08
2.24385e-07
1.29708e-08
2.23625e-07
1.23476e-08
2.22863e-07
1.1739e-08
2.22104e-07
1.11416e-08
2.21353e-07
1.05521e-08
2.20611e-07
9.96692e-09
2.19885e-07
9.38267e-09
2.19177e-07
8.79508e-09
2.18492e-07
8.20098e-09
2.17832e-07
7.59432e-09
2.17203e-07
6.97298e-09
2.16608e-07
6.32702e-09
2.16052e-07
5.65751e-09
2.15538e-07
4.94636e-09
2.15073e-07
4.20194e-09
2.1466e-07
3.39105e-09
2.1431e-07
2.53375e-09
2.14022e-07
1.57698e-09
2.13813e-07
5.42263e-10
2.13681e-07
-6.21195e-10
2.13648e-07
-1.98351e-09
2.1372e-07
-3.44746e-09
2.13873e-07
-5.5024e-09
2.14175e-07
-7.53665e-09
-1.07332e-08
2.14305e-07
2.30977e-07
6.87071e-08
2.33921e-07
7.97647e-08
2.35406e-07
5.74984e-08
2.36506e-07
4.8931e-08
2.37117e-07
4.41249e-08
2.37499e-07
3.92317e-08
2.37838e-07
3.54564e-08
2.3814e-07
3.27405e-08
2.38392e-07
3.05391e-08
2.38596e-07
2.86318e-08
2.38755e-07
2.6966e-08
2.38868e-07
2.54997e-08
2.3893e-07
2.41894e-08
2.38943e-07
2.30017e-08
2.38904e-07
2.19133e-08
2.38815e-07
2.09072e-08
2.38676e-07
1.99703e-08
2.3849e-07
1.90924e-08
2.38259e-07
1.82649e-08
2.37987e-07
1.7481e-08
2.37676e-07
1.67351e-08
2.3733e-07
1.6022e-08
2.36954e-07
1.53375e-08
2.3655e-07
1.46777e-08
2.36123e-07
1.40387e-08
2.35677e-07
1.34172e-08
2.35215e-07
1.28097e-08
2.34741e-07
1.2213e-08
2.34258e-07
1.16238e-08
2.33772e-07
1.10389e-08
2.33284e-07
1.04546e-08
2.32799e-07
9.86758e-09
2.32321e-07
9.27359e-09
2.31852e-07
8.66938e-09
2.31398e-07
8.04886e-09
2.30961e-07
7.40969e-09
2.30546e-07
6.74207e-09
2.30157e-07
6.04627e-09
2.29798e-07
5.30513e-09
2.29476e-07
4.52457e-09
2.29192e-07
3.67482e-09
2.28957e-07
2.76909e-09
2.2877e-07
1.76398e-09
2.28647e-07
6.65174e-10
2.28584e-07
-5.58881e-10
2.28601e-07
-1.99959e-09
2.28703e-07
-3.55001e-09
2.28855e-07
-5.65444e-09
2.29117e-07
-7.7983e-09
-1.08405e-08
2.29224e-07
2.37603e-07
6.32285e-08
2.40586e-07
7.67816e-08
2.42015e-07
5.60697e-08
2.43123e-07
4.78229e-08
2.43771e-07
4.3477e-08
2.44167e-07
3.88361e-08
2.44512e-07
3.51112e-08
2.44827e-07
3.24251e-08
2.45103e-07
3.02636e-08
2.45345e-07
2.83903e-08
2.45558e-07
2.67522e-08
2.45746e-07
2.53125e-08
2.45905e-07
2.40297e-08
2.46036e-07
2.28706e-08
2.46138e-07
2.18118e-08
2.46209e-07
2.08361e-08
2.46249e-07
1.99301e-08
2.46258e-07
1.90832e-08
2.46237e-07
1.82864e-08
2.46185e-07
1.75326e-08
2.46105e-07
1.68156e-08
2.45997e-07
1.61301e-08
2.45863e-07
1.54715e-08
2.45705e-07
1.48355e-08
2.45525e-07
1.42184e-08
2.45326e-07
1.36165e-08
2.45109e-07
1.30263e-08
2.44878e-07
1.24443e-08
2.44635e-07
1.18672e-08
2.44382e-07
1.12915e-08
2.44123e-07
1.07137e-08
2.4386e-07
1.01304e-08
2.43597e-07
9.53697e-09
2.43336e-07
8.93021e-09
2.43081e-07
8.30394e-09
2.42835e-07
7.6555e-09
2.42602e-07
6.97529e-09
2.42385e-07
6.26266e-09
2.42189e-07
5.50159e-09
2.42018e-07
4.69536e-09
2.41875e-07
3.81793e-09
2.41768e-07
2.87573e-09
2.41698e-07
1.83466e-09
2.41676e-07
6.86546e-10
2.41702e-07
-5.84546e-10
2.41785e-07
-2.083e-09
2.41937e-07
-3.70147e-09
2.42112e-07
-5.82952e-09
2.42359e-07
-8.04511e-09
-1.09491e-08
2.42467e-07
2.44439e-07
5.80461e-08
2.4746e-07
7.37597e-08
2.48834e-07
5.4696e-08
2.49946e-07
4.67114e-08
2.50633e-07
4.279e-08
2.51046e-07
3.84232e-08
2.51396e-07
3.47606e-08
2.51718e-07
3.21031e-08
2.52002e-07
2.99794e-08
2.52256e-07
2.81368e-08
2.52487e-07
2.65204e-08
2.52701e-07
2.50987e-08
2.52898e-07
2.38327e-08
2.53079e-07
2.26901e-08
2.53243e-07
2.16478e-08
2.5339e-07
2.0689e-08
2.5352e-07
1.98003e-08
2.53632e-07
1.8971e-08
2.53726e-07
1.81923e-08
2.53802e-07
1.74567e-08
2.5386e-07
1.67579e-08
2.53899e-07
1.60903e-08
2.53922e-07
1.54491e-08
2.53927e-07
1.483e-08
2.53917e-07
1.42289e-08
2.53891e-07
1.36419e-08
2.53852e-07
1.30654e-08
2.53801e-07
1.24957e-08
2.53739e-07
1.19293e-08
2.53668e-07
1.13626e-08
2.53589e-07
1.07919e-08
2.53506e-07
1.02136e-08
2.5342e-07
9.62303e-09
2.53334e-07
9.01675e-09
2.53249e-07
8.3885e-09
2.53169e-07
7.73525e-09
2.53097e-07
7.04763e-09
2.53036e-07
6.32401e-09
2.52988e-07
5.54959e-09
2.52958e-07
4.725e-09
2.52948e-07
3.82789e-09
2.52965e-07
2.85844e-09
2.53009e-07
1.79087e-09
2.5309e-07
6.05757e-10
2.53207e-07
-7.01356e-10
2.53364e-07
-2.23996e-09
2.53572e-07
-3.90978e-09
2.53784e-07
-6.04131e-09
2.54035e-07
-8.29618e-09
-1.10763e-08
2.54162e-07
2.51491e-07
5.31619e-08
2.54541e-07
7.07094e-08
2.55871e-07
5.33663e-08
2.5698e-07
4.56021e-08
2.57706e-07
4.20646e-08
2.58139e-07
3.79901e-08
2.58496e-07
3.44033e-08
2.58824e-07
3.17748e-08
2.59115e-07
2.9689e-08
2.59374e-07
2.78777e-08
2.59612e-07
2.62821e-08
2.59835e-07
2.48757e-08
2.60045e-07
2.36227e-08
2.60244e-07
2.24915e-08
2.60432e-07
2.14596e-08
2.60611e-07
2.05105e-08
2.6078e-07
1.96313e-08
2.60939e-07
1.88116e-08
2.61089e-07
1.80424e-08
2.61229e-07
1.73165e-08
2.61359e-07
1.66275e-08
2.6148e-07
1.59697e-08
2.61591e-07
1.53384e-08
2.61692e-07
1.47289e-08
2.61784e-07
1.41372e-08
2.61866e-07
1.35592e-08
2.61941e-07
1.2991e-08
2.62007e-07
1.24291e-08
2.62067e-07
1.18696e-08
2.62121e-07
1.13088e-08
2.6217e-07
1.07428e-08
2.62216e-07
1.01678e-08
2.6226e-07
9.5792e-09
2.62303e-07
8.97316e-09
2.62348e-07
8.34342e-09
2.62397e-07
7.68651e-09
2.62451e-07
6.99339e-09
2.62514e-07
6.26136e-09
2.62587e-07
5.47691e-09
2.62674e-07
4.63812e-09
2.62775e-07
3.72611e-09
2.62898e-07
2.73559e-09
2.63041e-07
1.64772e-09
2.63212e-07
4.34781e-10
2.63411e-07
-9.00306e-10
2.63637e-07
-2.46554e-09
2.639e-07
-4.17279e-09
2.64152e-07
-6.29377e-09
2.64418e-07
-8.56236e-09
-1.12321e-08
2.64574e-07
2.58769e-07
4.85761e-08
2.61837e-07
6.7641e-08
2.63134e-07
5.20696e-08
2.64236e-07
4.44999e-08
2.64998e-07
4.13032e-08
2.65453e-07
3.7535e-08
2.65818e-07
3.40382e-08
2.66153e-07
3.14398e-08
2.6645e-07
2.93918e-08
2.66714e-07
2.76135e-08
2.66957e-07
2.60396e-08
2.67184e-07
2.46483e-08
2.67399e-07
2.34073e-08
2.67605e-07
2.2286e-08
2.67802e-07
2.12623e-08
2.67993e-07
2.032e-08
2.68177e-07
1.94469e-08
2.68356e-07
1.86326e-08
2.6853e-07
1.78686e-08
2.68699e-07
1.71475e-08
2.68863e-07
1.64632e-08
2.69023e-07
1.581e-08
2.69178e-07
1.51832e-08
2.69329e-07
1.45781e-08
2.69475e-07
1.39905e-08
2.69618e-07
1.34165e-08
2.69757e-07
1.28521e-08
2.69893e-07
1.22935e-08
2.70025e-07
1.17367e-08
2.70156e-07
1.11782e-08
2.70285e-07
1.06136e-08
2.70414e-07
1.00392e-08
2.70543e-07
9.45017e-09
2.70674e-07
8.8425e-09
2.70807e-07
8.20994e-09
2.70945e-07
7.54859e-09
2.71089e-07
6.84973e-09
2.7124e-07
6.10967e-09
2.71401e-07
5.31612e-09
2.71574e-07
4.46488e-09
2.7176e-07
3.54012e-09
2.71964e-07
2.5321e-09
2.72184e-07
1.42734e-09
2.72426e-07
1.92737e-10
2.72691e-07
-1.165e-09
2.72973e-07
-2.74747e-09
2.73281e-07
-4.48128e-09
2.73571e-07
-6.58328e-09
2.73856e-07
-8.84708e-09
-1.14194e-08
2.74043e-07
2.66281e-07
4.42875e-08
2.69357e-07
6.45652e-08
2.70631e-07
5.07952e-08
2.71722e-07
4.34091e-08
2.72516e-07
4.05087e-08
2.72995e-07
3.70561e-08
2.73369e-07
3.36647e-08
2.73711e-07
3.10978e-08
2.74015e-07
2.90876e-08
2.74285e-07
2.73437e-08
2.74531e-07
2.57928e-08
2.74763e-07
2.44172e-08
2.74981e-07
2.31884e-08
2.75191e-07
2.20768e-08
2.75392e-07
2.10607e-08
2.75588e-07
2.01245e-08
2.75778e-07
1.92562e-08
2.75965e-07
1.84458e-08
2.76149e-07
1.76849e-08
2.7633e-07
1.69665e-08
2.76509e-07
1.62843e-08
2.76686e-07
1.5633e-08
2.76862e-07
1.50076e-08
2.77036e-07
1.44038e-08
2.77209e-07
1.38172e-08
2.77382e-07
1.32439e-08
2.77554e-07
1.268e-08
2.77726e-07
1.21214e-08
2.77898e-07
1.15644e-08
2.78072e-07
1.10049e-08
2.78246e-07
1.0439e-08
2.78423e-07
9.86249e-09
2.78603e-07
9.2706e-09
2.78786e-07
8.65916e-09
2.78974e-07
8.02194e-09
2.79168e-07
7.35461e-09
2.79369e-07
6.64886e-09
2.79578e-07
5.90003e-09
2.79797e-07
5.09702e-09
2.80029e-07
4.23365e-09
2.80272e-07
3.29662e-09
2.80531e-07
2.27288e-09
2.80806e-07
1.15265e-09
2.81099e-07
-9.98826e-11
2.81411e-07
-1.47696e-09
2.81734e-07
-3.07077e-09
2.82076e-07
-4.82301e-09
2.82394e-07
-6.90196e-09
2.82696e-07
-9.14862e-09
-1.16359e-08
2.82912e-07
2.74036e-07
4.02931e-08
2.77108e-07
6.14929e-08
2.7837e-07
4.95328e-08
2.79446e-07
4.23333e-08
2.8027e-07
3.9685e-08
2.80774e-07
3.65518e-08
2.81157e-07
3.32817e-08
2.81506e-07
3.07491e-08
2.81817e-07
2.8776e-08
2.82093e-07
2.70679e-08
2.82344e-07
2.55414e-08
2.82579e-07
2.41823e-08
2.82802e-07
2.2966e-08
2.83014e-07
2.18644e-08
2.83219e-07
2.0856e-08
2.83418e-07
1.99257e-08
2.83612e-07
1.90619e-08
2.83803e-07
1.82549e-08
2.83991e-07
1.74966e-08
2.84178e-07
1.67799e-08
2.84363e-07
1.60989e-08
2.84548e-07
1.54481e-08
2.84733e-07
1.48229e-08
2.84918e-07
1.42188e-08
2.85103e-07
1.36316e-08
2.8529e-07
1.30572e-08
2.85478e-07
1.24918e-08
2.85668e-07
1.19314e-08
2.8586e-07
1.13721e-08
2.86056e-07
1.08098e-08
2.86254e-07
1.02405e-08
2.86457e-07
9.66e-09
2.86664e-07
9.06344e-09
2.86876e-07
8.44647e-09
2.87095e-07
7.80298e-09
2.87322e-07
7.12824e-09
2.87556e-07
6.41433e-09
2.878e-07
5.65576e-09
2.88055e-07
4.84246e-09
2.88322e-07
3.96665e-09
2.88602e-07
3.01704e-09
2.88896e-07
1.97831e-09
2.89206e-07
8.42999e-10
2.89531e-07
-4.25337e-10
2.89874e-07
-1.81971e-09
2.90225e-07
-3.42146e-09
2.90588e-07
-5.18625e-09
2.90927e-07
-7.2412e-09
2.91242e-07
-9.46365e-09
-1.18775e-08
2.91484e-07
2.82043e-07
3.65881e-08
2.851e-07
5.84352e-08
2.8636e-07
4.82729e-08
2.87418e-07
4.12753e-08
2.88267e-07
3.88365e-08
2.88798e-07
3.60209e-08
2.89191e-07
3.28882e-08
2.89547e-07
3.03935e-08
2.89866e-07
2.8457e-08
2.90148e-07
2.67856e-08
2.90404e-07
2.52851e-08
2.90643e-07
2.39433e-08
2.90869e-07
2.27399e-08
2.91085e-07
2.16486e-08
2.91293e-07
2.06482e-08
2.91495e-07
1.9724e-08
2.91692e-07
1.88647e-08
2.91886e-07
1.80611e-08
2.92077e-07
1.73051e-08
2.92267e-07
1.65899e-08
2.92456e-07
1.59097e-08
2.92645e-07
1.52591e-08
2.92835e-07
1.46335e-08
2.93025e-07
1.40284e-08
2.93217e-07
1.34398e-08
2.93411e-07
1.28636e-08
2.93607e-07
1.22958e-08
2.93806e-07
1.17326e-08
2.94008e-07
1.11698e-08
2.94214e-07
1.06037e-08
2.94425e-07
1.00298e-08
2.9464e-07
9.44416e-09
2.94862e-07
8.84176e-09
2.9509e-07
8.21813e-09
2.95326e-07
7.56726e-09
2.9557e-07
6.88407e-09
2.95824e-07
6.16101e-09
2.96088e-07
5.3919e-09
2.96362e-07
4.56751e-09
2.9665e-07
3.67887e-09
2.96951e-07
2.71616e-09
2.97267e-07
1.66275e-09
2.97597e-07
5.12312e-10
2.97943e-07
-7.70558e-10
2.98304e-07
-2.1809e-09
2.98671e-07
-3.7887e-09
2.99046e-07
-5.56171e-09
2.99399e-07
-7.59343e-09
2.99723e-07
-9.78809e-09
-1.2139e-08
2.99985e-07
2.90311e-07
3.31659e-08
2.93343e-07
5.54031e-08
2.94609e-07
4.70067e-08
2.95647e-07
4.02372e-08
2.96516e-07
3.7968e-08
2.97074e-07
3.54623e-08
2.9748e-07
3.24828e-08
2.97842e-07
3.00313e-08
2.98169e-07
2.81304e-08
2.98458e-07
2.64966e-08
2.98719e-07
2.50236e-08
2.98963e-07
2.36999e-08
2.99193e-07
2.251e-08
2.99412e-07
2.14292e-08
2.99623e-07
2.04371e-08
2.99828e-07
1.95191e-08
3.00028e-07
1.86646e-08
3.00225e-07
1.78643e-08
3.00419e-07
1.71107e-08
3.00612e-07
1.63971e-08
3.00804e-07
1.57175e-08
3.00996e-07
1.50669e-08
3.01189e-07
1.44407e-08
3.01383e-07
1.38344e-08
3.01579e-07
1.32441e-08
3.01777e-07
1.26656e-08
3.01977e-07
1.20951e-08
3.02181e-07
1.15286e-08
3.02389e-07
1.0962e-08
3.02602e-07
1.03913e-08
3.02819e-07
9.81239e-09
3.03042e-07
9.22093e-09
3.03272e-07
8.61205e-09
3.03509e-07
7.9811e-09
3.03754e-07
7.32219e-09
3.04008e-07
6.62992e-09
3.04272e-07
5.89708e-09
3.04547e-07
5.1169e-09
3.04834e-07
4.28087e-09
3.05134e-07
3.37915e-09
3.05447e-07
2.40292e-09
3.05775e-07
1.33501e-09
3.06117e-07
1.694e-10
3.06474e-07
-1.12718e-09
3.06846e-07
-2.55236e-09
3.07222e-07
-4.16518e-09
3.07603e-07
-5.94314e-09
3.07963e-07
-7.95326e-09
3.08294e-07
-1.0119e-08
-1.24162e-08
3.08571e-07
2.9885e-07
3.00185e-08
3.01845e-07
5.24078e-08
3.03126e-07
4.57262e-08
3.04143e-07
3.92203e-08
3.05026e-07
3.70849e-08
3.05613e-07
3.48754e-08
3.06031e-07
3.20639e-08
3.06401e-07
2.96622e-08
3.06735e-07
2.77961e-08
3.07031e-07
2.62005e-08
3.07298e-07
2.47565e-08
3.07546e-07
2.34519e-08
3.0778e-07
2.22759e-08
3.08003e-07
2.12061e-08
3.08218e-07
2.02225e-08
3.08426e-07
1.9311e-08
3.08629e-07
1.84613e-08
3.08829e-07
1.76646e-08
3.09026e-07
1.69134e-08
3.09222e-07
1.62012e-08
3.09417e-07
1.55224e-08
3.09613e-07
1.48718e-08
3.09808e-07
1.42448e-08
3.10006e-07
1.36373e-08
3.10204e-07
1.30451e-08
3.10406e-07
1.24643e-08
3.1061e-07
1.18908e-08
3.10818e-07
1.13207e-08
3.1103e-07
1.075e-08
3.11246e-07
1.01747e-08
3.11469e-07
9.59035e-09
3.11697e-07
8.99278e-09
3.11932e-07
8.37708e-09
3.12174e-07
7.73848e-09
3.12425e-07
7.07116e-09
3.12686e-07
6.36948e-09
3.12956e-07
5.62648e-09
3.13238e-07
4.83498e-09
3.13532e-07
3.98695e-09
3.13839e-07
3.07206e-09
3.1416e-07
2.08207e-09
3.14495e-07
9.99869e-10
3.14845e-07
-1.80797e-10
3.15209e-07
-1.49044e-09
3.15586e-07
-2.92937e-09
3.15967e-07
-4.54658e-09
3.16351e-07
-6.32697e-09
3.16715e-07
-8.31733e-09
3.17051e-07
-1.04546e-08
-1.27061e-08
3.1734e-07
3.0767e-07
2.71361e-08
3.10617e-07
4.94607e-08
3.11918e-07
4.44246e-08
3.12914e-07
3.8225e-08
3.13806e-07
3.61924e-08
3.14421e-07
3.42602e-08
3.14855e-07
3.16302e-08
3.15231e-07
2.9286e-08
3.15573e-07
2.74543e-08
3.15877e-07
2.58969e-08
3.1615e-07
2.44833e-08
3.16403e-07
2.3199e-08
3.16641e-07
2.20374e-08
3.16869e-07
2.09789e-08
3.17087e-07
2.00041e-08
3.17298e-07
1.90994e-08
3.17505e-07
1.82547e-08
3.17708e-07
1.74616e-08
3.17909e-07
1.67129e-08
3.18107e-07
1.60023e-08
3.18306e-07
1.53242e-08
3.18504e-07
1.46735e-08
3.18703e-07
1.40459e-08
3.18903e-07
1.3437e-08
3.19105e-07
1.2843e-08
3.1931e-07
1.22597e-08
3.19518e-07
1.16831e-08
3.19729e-07
1.11095e-08
3.19944e-07
1.05345e-08
3.20165e-07
9.9543e-09
3.20391e-07
9.36442e-09
3.20623e-07
8.76058e-09
3.20862e-07
8.13789e-09
3.21109e-07
7.49144e-09
3.21365e-07
6.81552e-09
3.2163e-07
6.10426e-09
3.21906e-07
5.3509e-09
3.22193e-07
4.54796e-09
3.22492e-07
3.68776e-09
3.22804e-07
2.75972e-09
3.2313e-07
1.75592e-09
3.2347e-07
6.5968e-10
3.23825e-07
-5.35762e-10
3.24193e-07
-1.85789e-09
3.24573e-07
-3.30942e-09
3.24957e-07
-4.93056e-09
3.25341e-07
-6.7114e-09
3.25708e-07
-8.6838e-09
3.26047e-07
-1.0794e-08
-1.30066e-08
3.26348e-07
3.1678e-07
2.45075e-08
3.19668e-07
4.65727e-08
3.20996e-07
4.30963e-08
3.2197e-07
3.7251e-08
3.22867e-07
3.52954e-08
3.2351e-07
3.36175e-08
3.2396e-07
3.118e-08
3.24344e-07
2.89023e-08
3.24693e-07
2.7105e-08
3.25004e-07
2.55855e-08
3.25284e-07
2.42038e-08
3.25542e-07
2.29409e-08
3.25785e-07
2.17943e-08
3.26017e-07
2.07474e-08
3.26239e-07
1.97818e-08
3.26454e-07
1.88841e-08
3.26664e-07
1.80445e-08
3.26871e-07
1.72552e-08
3.27075e-07
1.65091e-08
3.27277e-07
1.58001e-08
3.27478e-07
1.51227e-08
3.2768e-07
1.4472e-08
3.27882e-07
1.38437e-08
3.28086e-07
1.32335e-08
3.28291e-07
1.26375e-08
3.28499e-07
1.20517e-08
3.2871e-07
1.14721e-08
3.28925e-07
1.08947e-08
3.29144e-07
1.03155e-08
3.29368e-07
9.73027e-09
3.29598e-07
9.13476e-09
3.29834e-07
8.52454e-09
3.30077e-07
7.89474e-09
3.30328e-07
7.24036e-09
3.30588e-07
6.55572e-09
3.30857e-07
5.83479e-09
3.31137e-07
5.07097e-09
3.31428e-07
4.25657e-09
3.31732e-07
3.38415e-09
3.32049e-07
2.44306e-09
3.32379e-07
1.42551e-09
3.32723e-07
3.15542e-10
3.33082e-07
-8.94248e-10
3.33452e-07
-2.22829e-09
3.33834e-07
-3.69124e-09
3.34219e-07
-5.31588e-09
3.34604e-07
-7.09566e-09
3.34971e-07
-9.05172e-09
3.35314e-07
-1.11368e-08
-1.33162e-08
3.35624e-07
3.2619e-07
2.21199e-08
3.29008e-07
4.37547e-08
3.30367e-07
4.1737e-08
3.31321e-07
3.62969e-08
3.32218e-07
3.43988e-08
3.32887e-07
3.29489e-08
3.33355e-07
3.07118e-08
3.33747e-07
2.85106e-08
3.34103e-07
2.67482e-08
3.34423e-07
2.52662e-08
3.34709e-07
2.39174e-08
3.34973e-07
2.26772e-08
3.35221e-07
2.15463e-08
3.35457e-07
2.05114e-08
3.35683e-07
1.95553e-08
3.35903e-07
1.86648e-08
3.36117e-07
1.78306e-08
3.36327e-07
1.70452e-08
3.36534e-07
1.63018e-08
3.3674e-07
1.55945e-08
3.36945e-07
1.49178e-08
3.37149e-07
1.42671e-08
3.37355e-07
1.36381e-08
3.37562e-07
1.30266e-08
3.37771e-07
1.24286e-08