/*--------------------------------*- C++ -*----------------------------------*\
  =========                 |
  \\      /  F ield         | OpenFOAM: The Open Source CFD Toolbox
   \\    /   O peration     | Website:  https://openfoam.org
    \\  /    A nd           | Version:  7
     \\/     M anipulation  |
\*---------------------------------------------------------------------------*/
FoamFile
{
    version     2.0;
    format      ascii;
    class       surfaceScalarField;
    location    "0.06";
    object      phi_0;
}
// * * * * * * * * * * * * * * * * * * * * * * * * * * * * * * * * * * * * * //

dimensions      [0 3 -1 0 0 0 0];

internalField   nonuniform List<scalar> 
139350
(
6.45162e-08
9.21153e-08
3.19756e-08
3.25406e-08
2.30784e-08
8.89716e-09
1.96022e-08
3.47627e-09
1.7659e-08
1.94319e-09
1.62377e-08
1.42127e-09
1.51138e-08
1.12389e-09
1.42106e-08
9.03241e-10
1.34693e-08
7.4129e-10
1.28466e-08
6.22682e-10
1.23137e-08
5.3287e-10
1.18514e-08
4.62366e-10
1.14458e-08
4.05552e-10
1.10869e-08
3.58886e-10
1.0767e-08
3.19949e-10
1.048e-08
2.87012e-10
1.02212e-08
2.58802e-10
9.98679e-09
2.34367e-10
9.77381e-09
2.12985e-10
9.57971e-09
1.94093e-10
9.40246e-09
1.7725e-10
9.24036e-09
1.621e-10
9.09201e-09
1.48355e-10
8.95623e-09
1.35775e-10
8.83207e-09
1.2416e-10
8.71873e-09
1.13338e-10
8.61557e-09
1.03161e-10
8.52207e-09
9.35005e-11
8.43784e-09
8.42341e-11
8.36257e-09
7.52636e-11
8.2961e-09
6.64734e-11
8.23831e-09
5.77906e-11
8.18923e-09
4.90835e-11
8.14891e-09
4.03128e-11
8.11762e-09
3.12974e-11
8.09557e-09
2.20483e-11
8.08327e-09
1.22999e-11
8.08116e-09
2.10542e-12
8.09002e-09
-8.86e-12
8.11071e-09
-2.06907e-11
8.14408e-09
-3.33684e-11
8.19219e-09
-4.81063e-11
8.25493e-09
-6.27431e-11
8.33844e-09
-8.35104e-11
8.43747e-09
-9.9028e-11
8.57293e-09
-1.3546e-10
8.71483e-09
-1.41896e-10
8.966e-09
-2.51172e-10
8.95472e-09
1.1277e-11
-4.27491e-09
1.32296e-08
1.25949e-07
1.2761e-07
9.13099e-08
6.71796e-08
7.19767e-08
2.82303e-08
6.12827e-08
1.41703e-08
5.48685e-08
8.35738e-09
5.03964e-08
5.89334e-09
4.69352e-08
4.5851e-09
4.41454e-08
3.69305e-09
4.18461e-08
3.04058e-09
3.99118e-08
2.55699e-09
3.82553e-08
2.1894e-09
3.68165e-08
1.9011e-09
3.5553e-08
1.66905e-09
3.44334e-08
1.47856e-09
3.34336e-08
1.3197e-09
3.25353e-08
1.18537e-09
3.17237e-08
1.0704e-09
3.09871e-08
9.70899e-10
3.03162e-08
8.83923e-10
2.97031e-08
8.07183e-10
2.91415e-08
7.38876e-10
2.8626e-08
6.77556e-10
2.81523e-08
6.2205e-10
2.77167e-08
5.71385e-10
2.73161e-08
5.2475e-10
2.6948e-08
4.81454e-10
2.66103e-08
4.40899e-10
2.63012e-08
4.02565e-10
2.60195e-08
3.65979e-10
2.5764e-08
3.3073e-10
2.55341e-08
2.96392e-10
2.53292e-08
2.62639e-10
2.51493e-08
2.29009e-10
2.49943e-08
1.95291e-10
2.48648e-08
1.60849e-10
2.47611e-08
1.25689e-10
2.46847e-08
8.87639e-11
2.46363e-08
5.05081e-11
2.46184e-08
9.04356e-12
2.46321e-08
-3.44517e-11
2.46818e-08
-8.29931e-11
2.47687e-08
-1.3505e-10
2.48999e-08
-1.93939e-10
2.50779e-08
-2.61476e-10
2.53124e-08
-3.33581e-10
2.56159e-08
-4.38977e-10
2.59804e-08
-5.06331e-10
2.65417e-08
-8.1251e-10
2.6974e-08
-4.21066e-10
-5.89372e-09
2.85929e-08
1.58757e-07
1.35257e-07
1.36547e-07
8.93894e-08
1.17539e-07
4.72385e-08
1.03392e-07
2.8317e-08
9.34316e-08
1.83181e-08
8.61666e-08
1.31583e-08
8.04958e-08
1.02558e-08
7.58825e-08
8.30639e-09
7.20437e-08
6.8793e-09
6.87917e-08
5.80899e-09
6.5993e-08
4.98819e-09
6.35526e-08
4.34144e-09
6.14023e-08
3.8194e-09
5.94909e-08
3.3899e-09
5.77796e-08
3.03102e-09
5.62378e-08
2.72713e-09
5.48415e-08
2.46674e-09
5.35712e-08
2.24123e-09
5.24111e-08
2.04403e-09
5.13482e-08
1.87004e-09
5.03719e-08
1.7152e-09
4.94731e-08
1.5763e-09
4.86445e-08
1.45068e-09
4.78797e-08
1.33618e-09
4.71735e-08
1.23097e-09
4.65214e-08
1.1335e-09
4.59199e-08
1.04244e-09
4.53658e-08
9.56626e-10
4.48568e-08
8.75006e-10
4.43909e-08
7.96661e-10
4.39666e-08
7.2067e-10
4.3583e-08
6.46288e-10
4.32394e-08
5.7255e-10
4.29358e-08
4.9894e-10
4.26725e-08
4.24148e-10
4.245e-08
3.48145e-10
4.22701e-08
2.68668e-10
4.21338e-08
1.86848e-10
4.20446e-08
9.82071e-11
4.20037e-08
6.41512e-12
4.20182e-08
-9.74607e-11
4.20878e-08
-2.04645e-10
4.22265e-08
-3.32664e-10
4.24304e-08
-4.65394e-10
4.2726e-08
-6.29156e-10
4.31089e-08
-8.21846e-10
4.36059e-08
-1.00336e-09
4.43085e-08
-1.51513e-09
4.51487e-08
-1.26122e-09
-6.7333e-09
4.59883e-08
1.75614e-07
1.31158e-07
1.6564e-07
9.93641e-08
1.52776e-07
6.01024e-08
1.402e-07
4.08929e-08
1.29558e-07
2.89596e-08
1.20962e-07
2.17547e-08
1.13895e-07
1.73227e-08
1.07962e-07
1.42397e-08
1.02911e-07
1.19302e-08
9.85593e-08
1.01606e-08
9.47669e-08
8.78057e-09
9.1428e-08
7.68036e-09
8.84627e-08
6.7847e-09
8.58096e-08
6.0429e-09
8.34209e-08
5.41975e-09
8.12583e-08
4.88975e-09
7.9291e-08
4.434e-09
7.74941e-08
4.03817e-09
7.58469e-08
3.69124e-09
7.43323e-08
3.38459e-09
7.29362e-08
3.11137e-09
7.16464e-08
2.86605e-09
7.0453e-08
2.64412e-09
6.93473e-08
2.44183e-09
6.83223e-08
2.25605e-09
6.73717e-08
2.08411e-09
6.64904e-08
1.9237e-09
6.56742e-08
1.7728e-09
6.49196e-08
1.62963e-09
6.42237e-08
1.49258e-09
6.35843e-08
1.36009e-09
6.29997e-08
1.23084e-09
6.2469e-08
1.10325e-09
6.19916e-08
9.7638e-10
6.15676e-08
8.4808e-10
6.11975e-08
7.1824e-10
6.08831e-08
5.83105e-10
6.06253e-08
4.44648e-10
6.04284e-08
2.95112e-10
6.02933e-08
1.41557e-10
6.02287e-08
-3.29067e-11
6.02336e-08
-2.09549e-10
6.03255e-08
-4.24583e-10
6.0498e-08
-6.37914e-10
6.07844e-08
-9.15561e-10
6.11754e-08
-1.21284e-09
6.17129e-08
-1.54078e-09
6.24534e-08
-2.25564e-09
6.34705e-08
-2.27831e-09
-7.47798e-09
6.42151e-08
1.84512e-07
1.23431e-07
1.82352e-07
1.01524e-07
1.76152e-07
6.63022e-08
1.67825e-07
4.92199e-08
1.59245e-07
3.75402e-08
1.51384e-07
2.96152e-08
1.44361e-07
2.43455e-08
1.38115e-07
2.04865e-08
1.3257e-07
1.74748e-08
1.27643e-07
1.50879e-08
1.23246e-07
1.3177e-08
1.19304e-07
1.16228e-08
1.15751e-07
1.03378e-08
1.12534e-07
9.26037e-09
1.09607e-07
8.34612e-09
1.06935e-07
7.56208e-09
1.04486e-07
6.88321e-09
1.02234e-07
6.29019e-09
1.00157e-07
5.76791e-09
9.82371e-08
5.3044e-09
9.64584e-08
4.89005e-09
9.48074e-08
4.51701e-09
9.32728e-08
4.17881e-09
9.18445e-08
3.87006e-09
9.05144e-08
3.58622e-09
8.92751e-08
3.32337e-09
8.81206e-08
3.07815e-09
8.70459e-08
2.8476e-09
8.60464e-08
2.62907e-09
8.51188e-08
2.42019e-09
8.42602e-08
2.21867e-09
8.34685e-08
2.02257e-09
8.27422e-08
1.82956e-09
8.20804e-08
1.63821e-09
8.1483e-08
1.44547e-09
8.09502e-08
1.25105e-09
8.04837e-08
1.04962e-09
8.00844e-08
8.43932e-10
7.97566e-08
6.22844e-10
7.95015e-08
3.96687e-10
7.93279e-08
1.40695e-10
7.92354e-08
-1.17025e-10
7.92414e-08
-4.30576e-10
7.93413e-08
-7.37836e-10
7.95663e-08
-1.14059e-09
7.99134e-08
-1.55986e-09
8.04196e-08
-2.04702e-09
8.11357e-08
-2.9717e-09
8.21595e-08
-3.30213e-09
-8.20242e-09
8.28839e-08
1.90344e-07
1.15303e-07
1.91868e-07
1e-07
1.90287e-07
6.78836e-08
1.86207e-07
5.33002e-08
1.80802e-07
4.29449e-08
1.75092e-07
3.53248e-08
1.69444e-07
2.99933e-08
1.64014e-07
2.59168e-08
1.58897e-07
2.25916e-08
1.54135e-07
1.98504e-08
1.49728e-07
1.75832e-08
1.45661e-07
1.56898e-08
1.41909e-07
1.409e-08
1.38445e-07
1.27244e-08
1.35243e-07
1.15481e-08
1.32279e-07
1.05265e-08
1.2953e-07
9.63234e-09
1.26976e-07
8.84411e-09
1.24599e-07
8.14446e-09
1.22384e-07
7.51934e-09
1.20317e-07
6.95727e-09
1.18385e-07
6.44873e-09
1.16578e-07
5.98575e-09
1.14887e-07
5.56159e-09
1.13303e-07
5.1705e-09
1.11818e-07
4.80751e-09
1.10428e-07
4.46829e-09
1.09127e-07
4.149e-09
1.0791e-07
3.84618e-09
1.06773e-07
3.55671e-09
1.05714e-07
3.27759e-09
1.04731e-07
3.00624e-09
1.03821e-07
2.73959e-09
1.02983e-07
2.4757e-09
1.02218e-07
2.2106e-09
1.01525e-07
1.94376e-09
1.00907e-07
1.66837e-09
1.00363e-07
1.38768e-09
9.98981e-08
1.08753e-09
9.9514e-08
7.80799e-10
9.92186e-08
4.36077e-10
9.90131e-08
8.85147e-11
9.89124e-08
-3.29848e-10
9.89166e-08
-7.42118e-10
9.90493e-08
-1.27328e-09
9.93198e-08
-1.83038e-09
9.97505e-08
-2.47763e-09
1.00397e-07
-3.61853e-09
1.01349e-07
-4.25366e-09
-8.85572e-09
1.02002e-07
1.95506e-07
1.07612e-07
1.98256e-07
9.72511e-08
1.99006e-07
6.71332e-08
1.97831e-07
5.44749e-08
1.95225e-07
4.55513e-08
1.91921e-07
3.86284e-08
1.88233e-07
3.36817e-08
1.84332e-07
2.98179e-08
1.80367e-07
2.65561e-08
1.76449e-07
2.37691e-08
1.72643e-07
2.13892e-08
1.68987e-07
1.93452e-08
1.65502e-07
1.75752e-08
1.62195e-07
1.60314e-08
1.59067e-07
1.46767e-08
1.56112e-07
1.34808e-08
1.53325e-07
1.24194e-08
1.50697e-07
1.14721e-08
1.48219e-07
1.06221e-08
1.45883e-07
9.85545e-09
1.4368e-07
9.16034e-09
1.41602e-07
8.52679e-09
1.39642e-07
7.94627e-09
1.37792e-07
7.41142e-09
1.36047e-07
6.91584e-09
1.344e-07
6.4539e-09
1.32848e-07
6.02066e-09
1.31385e-07
5.61164e-09
1.30009e-07
5.2228e-09
1.28715e-07
4.85042e-09
1.27501e-07
4.49094e-09
1.26367e-07
4.14118e-09
1.25309e-07
3.79749e-09
1.24327e-07
3.4574e-09
1.23421e-07
3.11617e-09
1.22592e-07
2.77293e-09
1.21841e-07
2.41962e-09
1.21169e-07
2.05966e-09
1.2058e-07
1.67656e-09
1.20076e-07
1.28457e-09
1.19665e-07
8.47663e-10
1.19348e-07
4.04754e-10
1.19139e-07
-1.20375e-10
1.19042e-07
-6.45415e-10
1.19072e-07
-1.30343e-09
1.19251e-07
-2.00919e-09
1.19587e-07
-2.81345e-09
1.20135e-07
-4.16639e-09
1.20978e-07
-5.09699e-09
-9.4088e-09
1.21531e-07
2.00822e-07
1.00375e-07
2.0378e-07
9.42924e-08
2.05365e-07
6.5549e-08
2.05682e-07
5.41576e-08
2.04874e-07
4.63591e-08
2.03424e-07
4.00781e-08
2.01514e-07
3.55926e-08
1.99226e-07
3.21051e-08
1.96669e-07
2.91133e-08
1.93944e-07
2.64943e-08
1.91131e-07
2.42025e-08
1.88289e-07
2.21871e-08
1.85462e-07
2.04019e-08
1.82682e-07
1.88117e-08
1.79969e-07
1.73888e-08
1.7734e-07
1.61106e-08
1.74801e-07
1.49578e-08
1.72359e-07
1.39141e-08
1.70016e-07
1.29655e-08
1.67771e-07
1.20999e-08
1.65625e-07
1.13069e-08
1.63574e-07
1.05773e-08
1.61618e-07
9.90301e-09
1.59752e-07
9.27703e-09
1.57975e-07
8.69302e-09
1.56283e-07
8.14529e-09
1.54675e-07
7.62876e-09
1.53148e-07
7.13874e-09
1.517e-07
6.67091e-09
1.50329e-07
6.22126e-09
1.49034e-07
5.78584e-09
1.47814e-07
5.36114e-09
1.46669e-07
4.94304e-09
1.45598e-07
4.52868e-09
1.44601e-07
4.11271e-09
1.4368e-07
3.69391e-09
1.42836e-07
3.2633e-09
1.42072e-07
2.82411e-09
1.4139e-07
2.35833e-09
1.40794e-07
1.88044e-09
1.4029e-07
1.35191e-09
1.39883e-07
8.12001e-10
1.3958e-07
1.82152e-10
1.39394e-07
-4.58885e-10
1.39329e-07
-1.23903e-09
1.39417e-07
-2.09705e-09
1.39658e-07
-3.05396e-09
1.40095e-07
-4.60358e-09
1.40813e-07
-5.81495e-09
-9.85469e-09
1.41259e-07
2.06425e-07
9.34816e-08
2.09341e-07
9.1377e-08
2.11076e-07
6.38136e-08
2.11971e-07
5.32622e-08
2.12054e-07
4.62761e-08
2.11695e-07
4.04377e-08
2.10996e-07
3.62909e-08
2.09962e-07
3.31392e-08
2.08632e-07
3.04442e-08
2.07062e-07
2.80639e-08
2.05309e-07
2.59554e-08
2.03421e-07
2.40747e-08
2.01441e-07
2.23823e-08
1.99403e-07
2.08495e-08
1.97337e-07
1.94551e-08
1.95265e-07
1.81823e-08
1.93206e-07
1.70169e-08
1.91174e-07
1.59466e-08
1.89178e-07
1.49608e-08
1.87228e-07
1.405e-08
1.85329e-07
1.3206e-08
1.83485e-07
1.24211e-08
1.817e-07
1.16887e-08
1.79974e-07
1.10025e-08
1.7831e-07
1.0357e-08
1.76709e-07
9.74684e-09
1.7517e-07
9.16738e-09
1.73695e-07
8.61409e-09
1.72283e-07
8.08273e-09
1.70935e-07
7.56927e-09
1.69651e-07
7.0697e-09
1.68432e-07
6.58034e-09
1.67278e-07
6.09684e-09
1.66191e-07
5.61612e-09
1.65171e-07
5.13242e-09
1.64221e-07
4.64421e-09
1.63342e-07
4.1419e-09
1.62538e-07
3.62835e-09
1.61811e-07
3.08471e-09
1.61167e-07
2.52477e-09
1.60609e-07
1.9094e-09
1.60146e-07
1.27542e-09
1.59782e-07
5.46647e-10
1.59531e-07
-2.08237e-10
1.59395e-07
-1.10295e-09
1.59407e-07
-2.10923e-09
1.59565e-07
-3.21225e-09
1.59897e-07
-4.93497e-09
1.60486e-07
-6.40462e-09
-1.01972e-08
1.60829e-07
2.12271e-07
8.68725e-08
2.1515e-07
8.84987e-08
2.16832e-07
6.21317e-08
2.17887e-07
5.22071e-08
2.18314e-07
4.58488e-08
2.18454e-07
4.02975e-08
2.18406e-07
3.63391e-08
2.18138e-07
3.34069e-08
2.17645e-07
3.09374e-08
2.16945e-07
2.87636e-08
2.16063e-07
2.68377e-08
2.15023e-07
2.51145e-08
2.13852e-07
2.35541e-08
2.12573e-07
2.21281e-08
2.11211e-07
2.08173e-08
2.09786e-07
1.96072e-08
2.08317e-07
1.84861e-08
2.06819e-07
1.74443e-08
2.05306e-07
1.64735e-08
2.0379e-07
1.55665e-08
2.02279e-07
1.47166e-08
2.00782e-07
1.39181e-08
1.99306e-07
1.31654e-08
1.97855e-07
1.24535e-08
1.96434e-07
1.17778e-08
1.95047e-07
1.11337e-08
1.93697e-07
1.0517e-08
1.92388e-07
9.92362e-09
1.91121e-07
9.34974e-09
1.89899e-07
8.7915e-09
1.88723e-07
8.24501e-09
1.87597e-07
7.70663e-09
1.86522e-07
7.17198e-09
1.855e-07
6.63786e-09
1.84534e-07
6.09833e-09
1.83627e-07
5.55163e-09
1.82781e-07
4.98783e-09
1.82e-07
4.40928e-09
1.81288e-07
3.79694e-09
1.80649e-07
3.1632e-09
1.80089e-07
2.46987e-09
1.79615e-07
1.74928e-09
1.7923e-07
9.31046e-10
1.78953e-07
6.97378e-11
1.78779e-07
-9.29005e-10
1.78742e-07
-2.07255e-09
1.78841e-07
-3.31168e-09
1.79085e-07
-5.17851e-09
1.79556e-07
-6.87604e-09
-1.04482e-08
1.79807e-07
2.18317e-07
8.05359e-08
2.21199e-07
8.56168e-08
2.22805e-07
6.0526e-08
2.23889e-07
5.11232e-08
2.24425e-07
4.53129e-08
2.24742e-07
3.99802e-08
2.24969e-07
3.61123e-08
2.25077e-07
3.32988e-08
2.25046e-07
3.09684e-08
2.24877e-07
2.8933e-08
2.24573e-07
2.71409e-08
2.24143e-07
2.55451e-08
2.23594e-07
2.4103e-08
2.22938e-07
2.2784e-08
2.22188e-07
2.15677e-08
2.21356e-07
2.04391e-08
2.20455e-07
1.93869e-08
2.19497e-07
1.84019e-08
2.18494e-07
1.74768e-08
2.17455e-07
1.6605e-08
2.16391e-07
1.57811e-08
2.15309e-07
1.50002e-08
2.14217e-07
1.42577e-08
2.13121e-07
1.35494e-08
2.12027e-07
1.28712e-08
2.10942e-07
1.22194e-08
2.09868e-07
1.15903e-08
2.08812e-07
1.09802e-08
2.07776e-07
1.03857e-08
2.06764e-07
9.80314e-09
2.0578e-07
9.22885e-09
2.04827e-07
8.65936e-09
2.03909e-07
8.09031e-09
2.03028e-07
7.51853e-09
2.02189e-07
6.93798e-09
2.01394e-07
6.34671e-09
2.00647e-07
5.73473e-09
1.99952e-07
5.10377e-09
1.99314e-07
4.43508e-09
1.98738e-07
3.73917e-09
1.98228e-07
2.97995e-09
1.97793e-07
2.18396e-09
1.97436e-07
1.28886e-09
1.97173e-07
3.32821e-10
1.97e-07
-7.56549e-10
1.96948e-07
-2.02076e-09
1.97019e-07
-3.38215e-09
1.97201e-07
-5.36119e-09
1.97575e-07
-7.24982e-09
-1.06268e-08
1.97754e-07
2.24551e-07
7.44781e-08
2.27459e-07
8.27083e-08
2.29002e-07
5.89839e-08
2.30093e-07
5.00316e-08
2.3067e-07
4.47358e-08
2.31036e-07
3.9614e-08
2.31353e-07
3.57958e-08
2.31608e-07
3.30432e-08
2.31785e-07
3.07921e-08
2.3188e-07
2.88374e-08
2.31895e-07
2.71263e-08
2.31827e-07
2.56132e-08
2.31676e-07
2.42538e-08
2.31444e-07
2.30156e-08
2.31136e-07
2.18762e-08
2.30755e-07
2.08196e-08
2.30309e-07
1.98335e-08
2.29802e-07
1.89083e-08
2.29243e-07
1.80362e-08
2.28637e-07
1.72107e-08
2.27992e-07
1.64265e-08
2.27313e-07
1.56789e-08
2.26607e-07
1.49636e-08
2.2588e-07
1.42767e-08
2.25137e-07
1.36146e-08
2.24382e-07
1.29737e-08
2.23622e-07
1.23506e-08
2.2286e-07
1.17421e-08
2.22101e-07
1.11448e-08
2.21349e-07
1.05554e-08
2.20607e-07
9.97024e-09
2.19881e-07
9.38604e-09
2.19173e-07
8.79848e-09
2.18487e-07
8.20438e-09
2.17827e-07
7.59769e-09
2.17197e-07
6.97628e-09
2.16602e-07
6.33019e-09
2.16045e-07
5.66049e-09
2.15531e-07
4.94906e-09
2.15066e-07
4.20424e-09
2.14653e-07
3.3928e-09
2.14303e-07
2.53477e-09
2.14014e-07
1.57706e-09
2.13806e-07
5.41083e-10
2.13673e-07
-6.24003e-10
2.13641e-07
-1.98849e-09
2.13714e-07
-3.45517e-09
2.13867e-07
-5.51408e-09
2.14171e-07
-7.55334e-09
-1.07573e-08
2.14301e-07
2.30977e-07
6.87071e-08
2.33921e-07
7.97647e-08
2.35406e-07
5.74985e-08
2.36506e-07
4.89312e-08
2.37117e-07
4.41252e-08
2.37499e-07
3.92322e-08
2.37838e-07
3.5457e-08
2.3814e-07
3.27413e-08
2.38392e-07
3.05401e-08
2.38596e-07
2.8633e-08
2.38755e-07
2.69672e-08
2.38867e-07
2.5501e-08
2.3893e-07
2.41909e-08
2.38942e-07
2.30033e-08
2.38904e-07
2.1915e-08
2.38814e-07
2.0909e-08
2.38675e-07
1.99723e-08
2.38489e-07
1.90945e-08
2.38258e-07
1.82671e-08
2.37986e-07
1.74834e-08
2.37675e-07
1.67376e-08
2.37329e-07
1.60246e-08
2.36952e-07
1.53403e-08
2.36548e-07
1.46805e-08
2.36121e-07
1.40417e-08
2.35675e-07
1.34203e-08
2.35212e-07
1.28129e-08
2.34738e-07
1.22164e-08
2.34256e-07
1.16273e-08
2.33769e-07
1.10424e-08
2.33281e-07
1.04582e-08
2.32795e-07
9.87124e-09
2.32317e-07
9.27728e-09
2.31848e-07
8.67307e-09
2.31393e-07
8.05252e-09
2.30956e-07
7.41327e-09
2.30541e-07
6.74551e-09
2.30152e-07
6.04949e-09
2.29793e-07
5.30805e-09
2.2947e-07
4.52705e-09
2.29186e-07
3.67672e-09
2.28951e-07
2.7702e-09
2.28764e-07
1.76407e-09
2.28641e-07
6.6393e-10
2.28579e-07
-5.61864e-10
2.28595e-07
-2.00487e-09
2.28698e-07
-3.55822e-09
2.28851e-07
-5.66678e-09
2.29113e-07
-7.81584e-09
-1.08654e-08
2.29221e-07
2.37603e-07
6.32285e-08
2.40586e-07
7.67816e-08
2.42015e-07
5.60698e-08
2.43123e-07
4.7823e-08
2.43771e-07
4.34773e-08
2.44167e-07
3.88365e-08
2.44512e-07
3.51118e-08
2.44827e-07
3.24259e-08
2.45103e-07
3.02646e-08
2.45344e-07
2.83914e-08
2.45558e-07
2.67535e-08
2.45745e-07
2.53139e-08
2.45905e-07
2.40313e-08
2.46036e-07
2.28723e-08
2.46137e-07
2.18136e-08
2.46208e-07
2.0838e-08
2.46249e-07
1.99322e-08
2.46258e-07
1.90854e-08
2.46236e-07
1.82887e-08
2.46184e-07
1.75351e-08
2.46104e-07
1.68182e-08
2.45996e-07
1.61328e-08
2.45861e-07
1.54744e-08
2.45703e-07
1.48386e-08
2.45524e-07
1.42216e-08
2.45324e-07
1.36198e-08
2.45107e-07
1.30297e-08
2.44876e-07
1.24479e-08
2.44632e-07
1.18709e-08
2.44379e-07
1.12953e-08
2.4412e-07
1.07176e-08
2.43857e-07
1.01343e-08
2.43593e-07
9.54092e-09
2.43332e-07
8.93416e-09
2.43077e-07
8.30785e-09
2.42831e-07
7.65932e-09
2.42597e-07
6.97895e-09
2.42381e-07
6.26609e-09
2.42184e-07
5.50468e-09
2.42013e-07
4.69799e-09
2.4187e-07
3.81993e-09
2.41763e-07
2.87689e-09
2.41692e-07
1.83474e-09
2.41671e-07
6.85205e-10
2.41697e-07
-5.87725e-10
2.41781e-07
-2.0886e-09
2.41933e-07
-3.71014e-09
2.42108e-07
-5.84244e-09
2.42356e-07
-8.06336e-09
-1.09746e-08
2.42465e-07
2.44439e-07
5.80461e-08
2.4746e-07
7.37597e-08
2.48834e-07
5.4696e-08
2.49946e-07
4.67116e-08
2.50633e-07
4.27903e-08
2.51046e-07
3.84236e-08
2.51396e-07
3.47613e-08
2.51718e-07
3.2104e-08
2.52002e-07
2.99805e-08
2.52256e-07
2.8138e-08
2.52487e-07
2.65218e-08
2.52701e-07
2.51001e-08
2.52898e-07
2.38343e-08
2.53078e-07
2.26919e-08
2.53242e-07
2.16497e-08
2.53389e-07
2.06909e-08
2.53519e-07
1.98024e-08
2.53631e-07
1.89733e-08
2.53725e-07
1.81947e-08
2.53801e-07
1.74593e-08
2.53859e-07
1.67606e-08
2.53898e-07
1.60932e-08
2.5392e-07
1.54522e-08
2.53926e-07
1.48332e-08
2.53915e-07
1.42323e-08
2.53889e-07
1.36454e-08
2.5385e-07
1.3069e-08
2.53799e-07
1.24995e-08
2.53736e-07
1.19332e-08
2.53665e-07
1.13666e-08
2.53587e-07
1.0796e-08
2.53503e-07
1.02177e-08
2.53417e-07
9.62719e-09
2.5333e-07
9.02091e-09
2.53245e-07
8.39261e-09
2.53166e-07
7.73926e-09
2.53093e-07
7.05147e-09
2.53031e-07
6.32759e-09
2.52983e-07
5.55281e-09
2.52954e-07
4.72772e-09
2.52944e-07
3.82994e-09
2.52961e-07
2.85961e-09
2.53005e-07
1.79089e-09
2.53086e-07
6.04286e-10
2.53203e-07
-7.04751e-10
2.5336e-07
-2.24587e-09
2.53569e-07
-3.91889e-09
2.53781e-07
-6.05476e-09
2.54033e-07
-8.31503e-09
-1.11022e-08
2.5416e-07
2.51491e-07
5.31619e-08
2.54541e-07
7.07094e-08
2.55871e-07
5.33663e-08
2.5698e-07
4.56023e-08
2.57706e-07
4.20649e-08
2.58139e-07
3.79906e-08
2.58496e-07
3.4404e-08
2.58824e-07
3.17757e-08
2.59115e-07
2.969e-08
2.59374e-07
2.7879e-08
2.59612e-07
2.62835e-08
2.59835e-07
2.48772e-08
2.60045e-07
2.36243e-08
2.60244e-07
2.24933e-08
2.60432e-07
2.14615e-08
2.6061e-07
2.05125e-08
2.60779e-07
1.96335e-08
2.60938e-07
1.88139e-08
2.61088e-07
1.80449e-08
2.61228e-07
1.73192e-08
2.61359e-07
1.66303e-08
2.61479e-07
1.59727e-08
2.6159e-07
1.53416e-08
2.61691e-07
1.47323e-08
2.61782e-07
1.41407e-08
2.61865e-07
1.35628e-08
2.61939e-07
1.29948e-08
2.62005e-07
1.2433e-08
2.62065e-07
1.18736e-08
2.62119e-07
1.1313e-08
2.62168e-07
1.0747e-08
2.62213e-07
1.01721e-08
2.62257e-07
9.58355e-09
2.623e-07
8.9775e-09
2.62345e-07
8.3477e-09
2.62394e-07
7.69068e-09
2.62448e-07
6.99736e-09
2.6251e-07
6.26506e-09
2.62583e-07
5.48021e-09
2.6267e-07
4.64089e-09
2.62772e-07
3.72817e-09
2.62894e-07
2.73672e-09
2.63038e-07
1.64765e-09
2.63209e-07
4.33153e-10
2.63408e-07
-9.03935e-10
2.63634e-07
-2.47178e-09
2.63897e-07
-4.18232e-09
2.6415e-07
-6.3077e-09
2.64417e-07
-8.58172e-09
-1.12583e-08
2.64573e-07
2.58769e-07
4.85761e-08
2.61837e-07
6.7641e-08
2.63134e-07
5.20696e-08
2.64236e-07
4.45e-08
2.64998e-07
4.13035e-08
2.65453e-07
3.75355e-08
2.65818e-07
3.4039e-08
2.66153e-07
3.14407e-08
2.6645e-07
2.9393e-08
2.66714e-07
2.76148e-08
2.66956e-07
2.6041e-08
2.67184e-07
2.46499e-08
2.67399e-07
2.34091e-08
2.67604e-07
2.22879e-08
2.67802e-07
2.12643e-08
2.67992e-07
2.03222e-08
2.68176e-07
1.94492e-08
2.68355e-07
1.8635e-08
2.68529e-07
1.78712e-08
2.68698e-07
1.71503e-08
2.68862e-07
1.64661e-08
2.69022e-07
1.58131e-08
2.69177e-07
1.51865e-08
2.69328e-07
1.45815e-08
2.69474e-07
1.39942e-08
2.69617e-07
1.34203e-08
2.69755e-07
1.28561e-08
2.69891e-07
1.22976e-08
2.70023e-07
1.1741e-08
2.70154e-07
1.11825e-08
2.70283e-07
1.0618e-08
2.70411e-07
1.00437e-08
2.7054e-07
9.45468e-09
2.70671e-07
8.847e-09
2.70804e-07
8.21437e-09
2.70942e-07
7.55289e-09
2.71085e-07
6.85382e-09
2.71237e-07
6.11345e-09
2.71398e-07
5.31948e-09
2.71571e-07
4.46768e-09
2.71757e-07
3.54217e-09
2.7196e-07
2.53318e-09
2.72181e-07
1.42715e-09
2.72423e-07
1.90932e-10
2.72688e-07
-1.16887e-09
2.7297e-07
-2.75403e-09
2.73279e-07
-4.49121e-09
2.73569e-07
-6.59764e-09
2.73854e-07
-8.86687e-09
-1.14459e-08
2.74042e-07
2.66281e-07
4.42875e-08
2.69357e-07
6.45652e-08
2.70631e-07
5.07952e-08
2.71722e-07
4.34092e-08
2.72516e-07
4.0509e-08
2.72995e-07
3.70566e-08
2.73369e-07
3.36654e-08
2.73711e-07
3.10988e-08
2.74015e-07
2.90888e-08
2.74284e-07
2.7345e-08
2.74531e-07
2.57943e-08
2.74762e-07
2.44189e-08
2.74981e-07
2.31902e-08
2.7519e-07
2.20788e-08
2.75392e-07
2.10628e-08
2.75587e-07
2.01267e-08
2.75778e-07
1.92585e-08
2.75965e-07
1.84483e-08
2.76148e-07
1.76876e-08
2.76329e-07
1.69693e-08
2.76508e-07
1.62873e-08
2.76685e-07
1.56362e-08
2.7686e-07
1.5011e-08
2.77035e-07
1.44074e-08
2.77208e-07
1.3821e-08
2.7738e-07
1.32479e-08
2.77552e-07
1.26841e-08
2.77724e-07
1.21257e-08
2.77896e-07
1.15687e-08
2.78069e-07
1.10094e-08
2.78244e-07
1.04436e-08
2.7842e-07
9.86714e-09
2.786e-07
9.27527e-09
2.78783e-07
8.66381e-09
2.78971e-07
8.02651e-09
2.79165e-07
7.35903e-09
2.79366e-07
6.65305e-09
2.79575e-07
5.9039e-09
2.79794e-07
5.10044e-09
2.80025e-07
4.23646e-09
2.80269e-07
3.29864e-09
2.80528e-07
2.27387e-09
2.80803e-07
1.15233e-09
2.81096e-07
-1.01876e-10
2.81408e-07
-1.48109e-09
2.81732e-07
-3.07764e-09
2.82074e-07
-4.83331e-09
2.82393e-07
-6.91671e-09
2.82695e-07
-9.16878e-09
-1.16627e-08
2.82911e-07
2.74036e-07
4.02931e-08
2.77108e-07
6.14929e-08
2.7837e-07
4.95329e-08
2.79446e-07
4.23334e-08
2.8027e-07
3.96853e-08
2.80774e-07
3.65523e-08
2.81157e-07
3.32825e-08
2.81506e-07
3.07501e-08
2.81817e-07
2.87773e-08
2.82093e-07
2.70693e-08
2.82344e-07
2.5543e-08
2.82579e-07
2.4184e-08
2.82801e-07
2.29679e-08
2.83014e-07
2.18664e-08
2.83218e-07
2.08581e-08
2.83417e-07
1.9928e-08
2.83611e-07
1.90643e-08
2.83802e-07
1.82575e-08
2.8399e-07
1.74993e-08
2.84177e-07
1.67828e-08
2.84362e-07
1.6102e-08
2.84547e-07
1.54515e-08
2.84731e-07
1.48264e-08
2.84916e-07
1.42225e-08
2.85102e-07
1.36355e-08
2.85288e-07
1.30613e-08
2.85476e-07
1.24961e-08
2.85666e-07
1.19358e-08
2.85858e-07
1.13766e-08
2.86053e-07
1.08145e-08
2.86252e-07
1.02452e-08
2.86454e-07
9.66481e-09
2.86661e-07
9.06826e-09
2.86873e-07
8.45126e-09
2.87092e-07
7.80768e-09
2.87319e-07
7.13278e-09
2.87553e-07
6.41862e-09
2.87797e-07
5.6597e-09
2.88052e-07
4.84591e-09
2.88319e-07
3.96946e-09
2.88598e-07
3.01902e-09
2.88893e-07
1.97922e-09
2.89203e-07
8.42548e-10
2.89528e-07
-4.27521e-10
2.89871e-07
-1.82409e-09
2.90222e-07
-3.42863e-09
2.90586e-07
-5.19691e-09
2.90926e-07
-7.25632e-09
2.91241e-07
-9.48414e-09
-1.19045e-08
2.91483e-07
2.82043e-07
3.6588e-08
2.851e-07
5.84352e-08
2.8636e-07
4.8273e-08
2.87418e-07
4.12754e-08
2.88267e-07
3.88368e-08
2.88798e-07
3.60214e-08
2.89191e-07
3.2889e-08
2.89547e-07
3.03946e-08
2.89866e-07
2.84583e-08
2.90148e-07
2.67871e-08
2.90404e-07
2.52868e-08
2.90643e-07
2.39451e-08
2.90869e-07
2.27419e-08
2.91085e-07
2.16507e-08
2.91292e-07
2.06504e-08
2.91494e-07
1.97263e-08
2.91691e-07
1.88672e-08
2.91885e-07
1.80638e-08
2.92076e-07
1.7308e-08
2.92266e-07
1.6593e-08
2.92455e-07
1.59129e-08
2.92644e-07
1.52625e-08
2.92833e-07
1.46371e-08
2.93024e-07
1.40323e-08
2.93215e-07
1.34438e-08
2.93409e-07
1.28678e-08
2.93605e-07
1.23002e-08
2.93803e-07
1.17371e-08
2.94006e-07
1.11745e-08
2.94212e-07
1.06085e-08
2.94422e-07
1.00347e-08
2.94638e-07
9.44912e-09
2.94859e-07
8.84673e-09
2.95087e-07
8.22306e-09
2.95323e-07
7.57209e-09
2.95567e-07
6.88872e-09
2.9582e-07
6.16539e-09
2.96084e-07
5.39589e-09
2.96359e-07
4.57099e-09
2.96647e-07
3.68168e-09
2.96948e-07
2.7181e-09
2.97263e-07
1.66358e-09
2.97594e-07
5.11726e-10
2.9794e-07
-7.72929e-10
2.98301e-07
-2.18551e-09
2.98669e-07
-3.79616e-09
2.99044e-07
-5.57269e-09
2.99397e-07
-7.60887e-09
2.99722e-07
-9.80886e-09
-1.21662e-08
2.99983e-07
2.90311e-07
3.31659e-08
2.93343e-07
5.5403e-08
2.94609e-07
4.70067e-08
2.95647e-07
4.02374e-08
2.96516e-07
3.79683e-08
2.97074e-07
3.54629e-08
2.9748e-07
3.24836e-08
2.97842e-07
3.00324e-08
2.98169e-07
2.81317e-08
2.98458e-07
2.64982e-08
2.98719e-07
2.50253e-08
2.98962e-07
2.37018e-08
2.99192e-07
2.2512e-08
2.99412e-07
2.14314e-08
2.99623e-07
2.04394e-08
2.99827e-07
1.95216e-08
3.00027e-07
1.86672e-08
3.00224e-07
1.78671e-08
3.00418e-07
1.71137e-08
3.00611e-07
1.64002e-08
3.00803e-07
1.57209e-08
3.00995e-07
1.50705e-08
3.01188e-07
1.44444e-08
3.01382e-07
1.38384e-08
3.01577e-07
1.32483e-08
3.01775e-07
1.267e-08
3.01976e-07
1.20997e-08
3.02179e-07
1.15333e-08
3.02387e-07
1.09668e-08
3.02599e-07
1.03963e-08
3.02817e-07
9.81746e-09
3.0304e-07
9.22605e-09
3.03269e-07
8.61717e-09
3.03506e-07
7.98618e-09
3.03751e-07
7.32715e-09
3.04005e-07
6.63469e-09
3.04269e-07
5.90155e-09
3.04544e-07
5.12097e-09
3.0483e-07
4.28439e-09
3.0513e-07
3.38196e-09
3.05443e-07
2.40482e-09
3.05771e-07
1.33576e-09
3.06114e-07
1.68687e-10
3.06471e-07
-1.12972e-09
3.06843e-07
-2.5572e-09
3.07219e-07
-4.17291e-09
3.07601e-07
-5.95442e-09
3.07961e-07
-7.96899e-09
3.08292e-07
-1.014e-08
-1.24435e-08
3.0857e-07
2.9885e-07
3.00185e-08
3.01845e-07
5.24078e-08
3.03126e-07
4.57262e-08
3.04143e-07
3.92205e-08
3.05026e-07
3.70852e-08
3.05613e-07
3.48759e-08
3.06031e-07
3.20648e-08
3.06401e-07
2.96633e-08
3.06735e-07
2.77975e-08
3.07031e-07
2.62021e-08
3.07298e-07
2.47583e-08
3.07546e-07
2.34539e-08
3.0778e-07
2.2278e-08
3.08003e-07
2.12083e-08
3.08217e-07
2.02248e-08
3.08425e-07
1.93135e-08
3.08629e-07
1.8464e-08
3.08828e-07
1.76675e-08
3.09026e-07
1.69165e-08
3.09221e-07
1.62045e-08
3.09416e-07
1.55258e-08
3.09611e-07
1.48755e-08
3.09807e-07
1.42487e-08
3.10004e-07
1.36414e-08
3.10203e-07
1.30495e-08
3.10404e-07
1.24688e-08
3.10608e-07
1.18955e-08
3.10816e-07
1.13256e-08
3.11027e-07
1.07551e-08
3.11244e-07
1.01798e-08
3.11466e-07
9.5956e-09
3.11694e-07
8.99807e-09
3.11929e-07
8.38237e-09
3.12171e-07
7.74371e-09
3.12422e-07
7.07626e-09
3.12682e-07
6.37437e-09
3.12953e-07
5.63105e-09
3.13235e-07
4.83912e-09
3.13529e-07
3.99051e-09
3.13836e-07
3.07488e-09
3.14156e-07
2.08394e-09
3.14492e-07
1.00054e-09
3.14842e-07
-1.81627e-10
3.15205e-07
-1.49315e-09
3.15583e-07
-2.93442e-09
3.15964e-07
-4.55455e-09
3.16348e-07
-6.33852e-09
3.16713e-07
-8.33331e-09
3.17049e-07
-1.04758e-08
-1.27335e-08
3.17338e-07
3.0767e-07
2.71361e-08
3.10617e-07
4.94606e-08
3.11918e-07
4.44246e-08
3.12914e-07
3.82252e-08
3.13806e-07
3.61927e-08
3.14421e-07
3.42608e-08
3.14855e-07
3.16311e-08
3.15231e-07
2.92871e-08
3.15573e-07
2.74558e-08
3.15877e-07
2.58986e-08
3.1615e-07
2.44852e-08
3.16403e-07
2.3201e-08
3.16641e-07
2.20396e-08
3.16868e-07
2.09812e-08
3.17086e-07
2.00066e-08
3.17298e-07
1.9102e-08
3.17504e-07
1.82575e-08
3.17707e-07
1.74646e-08
3.17908e-07
1.67161e-08
3.18106e-07
1.60057e-08
3.18304e-07
1.53278e-08
3.18503e-07
1.46773e-08
3.18701e-07
1.40499e-08
3.18902e-07
1.34413e-08
3.19104e-07
1.28474e-08
3.19308e-07
1.22644e-08
3.19516e-07
1.1688e-08
3.19727e-07
1.11145e-08
3.19942e-07
1.05398e-08
3.20162e-07
9.95964e-09
3.20388e-07
9.36985e-09
3.2062e-07
8.76605e-09
3.20859e-07
8.14335e-09
3.21106e-07
7.49683e-09
3.21361e-07
6.82077e-09
3.21626e-07
6.10927e-09
3.21902e-07
5.35558e-09
3.22189e-07
4.55217e-09
3.22488e-07
3.69137e-09
3.228e-07
2.76256e-09
3.23126e-07
1.75777e-09
3.23467e-07
6.6029e-10
3.23822e-07
-5.36694e-10
3.24189e-07
-1.86075e-09
3.2457e-07
-3.31465e-09
3.24954e-07
-4.93874e-09
3.25338e-07
-6.72317e-09
3.25705e-07
-8.69999e-09
3.26045e-07
-1.08154e-08
-1.3034e-08
3.26345e-07
3.1678e-07
2.45074e-08
3.19668e-07
4.65726e-08
3.20996e-07
4.30963e-08
3.2197e-07
3.72511e-08
3.22867e-07
3.52958e-08
3.2351e-07
3.36181e-08
3.2396e-07
3.11809e-08
3.24344e-07
2.89035e-08
3.24693e-07
2.71065e-08
3.25004e-07
2.55873e-08
3.25284e-07
2.42057e-08
3.25542e-07
2.2943e-08
3.25785e-07
2.17965e-08
3.26016e-07
2.07498e-08
3.26238e-07
1.97843e-08
3.26454e-07
1.88868e-08
3.26664e-07
1.80474e-08
3.2687e-07
1.72583e-08
3.27074e-07
1.65124e-08
3.27276e-07
1.58036e-08
3.27477e-07
1.51264e-08
3.27678e-07
1.4476e-08
3.27881e-07
1.38479e-08
3.28084e-07
1.32379e-08
3.28289e-07
1.26421e-08
3.28497e-07
1.20565e-08
3.28708e-07
1.14772e-08
3.28922e-07
1.09e-08
3.29141e-07
1.03209e-08
3.29365e-07
9.7358e-09
3.29595e-07
9.14037e-09
3.29831e-07
8.53019e-09
3.30073e-07
7.90038e-09
3.30324e-07
7.24592e-09
3.30584e-07
6.56112e-09
3.30853e-07
5.83994e-09
3.31133e-07
5.07576e-09
3.31424e-07
4.26088e-09
3.31728e-07
3.38782e-09
3.32045e-07
2.44592e-09
3.32375e-07
1.42735e-09
3.32719e-07
3.16105e-10
3.33078e-07
-8.95267e-10
3.33448e-07
-2.23128e-09
3.3383e-07
-3.69663e-09
3.34216e-07
-5.32425e-09
3.346e-07
-7.10763e-09
3.34968e-07
-9.06807e-09
3.35311e-07
-1.11583e-08
-1.33436e-08
3.35621e-07
3.2619e-07
2.21198e-08
3.29008e-07
4.37547e-08
3.30367e-07
4.1737e-08
3.31321e-07
3.6297e-08
3.32218e-07
3.43991e-08
3.32887e-07
3.29495e-08
3.33355e-07
3.07127e-08
3.33747e-07
2.85119e-08
3.34103e-07
2.67497e-08
3.34423e-07
2.5268e-08
3.34709e-07
2.39194e-08
3.34972e-07
2.26794e-08
3.3522e-07
2.15486e-08
3.35456e-07
2.05139e-08
3.35683e-07
1.95579e-08
3.35902e-07
1.86676e-08
3.36116e-07
1.78336e-08
3.36326e-07
1.70484e-08
3.36533e-07
1.63052e-08
3.36738e-07
1.55981e-08
3.36943e-07
1.49217e-08
3.37148e-07
1.42712e-08
3.37353e-07
1.36424e-08
3.3756e-07
1.30311e-08
3.37769e-07
1.24334e-08