/*--------------------------------*- C++ -*----------------------------------*\
  =========                 |
  \\      /  F ield         | OpenFOAM: The Open Source CFD Toolbox
   \\    /   O peration     | Website:  https://openfoam.org
    \\  /    A nd           | Version:  7
     \\/     M anipulation  |
\*---------------------------------------------------------------------------*/
FoamFile
{
    version     2.0;
    format      ascii;
    class       volVectorField;
    location    "0.06";
    object      U;
}
// * * * * * * * * * * * * * * * * * * * * * * * * * * * * * * * * * * * * * //

dimensions      [0 1 -1 0 0 0 0];

internalField   nonuniform List<vector> 
70000
(
(0.55342 0.0169777 0)
(0.251458 0.00339976 0)
(0.166015 0.000318283 0)
(0.132584 4.84463e-05 0)
(0.117533 4.35032e-05 0)
(0.107633 5.16549e-05 0)
(0.0997226 4.38364e-05 0)
(0.0933418 3.4731e-05 0)
(0.0881625 2.866e-05 0)
(0.0838598 2.44879e-05 0)
(0.0802056 2.12901e-05 0)
(0.0770524 1.87169e-05 0)
(0.074299 1.66076e-05 0)
(0.0718716 1.48533e-05 0)
(0.0697145 1.33723e-05 0)
(0.0677847 1.21037e-05 0)
(0.0660485 1.1002e-05 0)
(0.0644791 1.0033e-05 0)
(0.0630551 9.16995e-06 0)
(0.0617589 8.39232e-06 0)
(0.0605762 7.68353e-06 0)
(0.0594952 7.03008e-06 0)
(0.0585061 6.42068e-06 0)
(0.0576006 5.8457e-06 0)
(0.0567722 5.29656e-06 0)
(0.0560151 4.76596e-06 0)
(0.0553249 4.24651e-06 0)
(0.0546978 3.73257e-06 0)
(0.054131 3.21607e-06 0)
(0.0536222 2.69362e-06 0)
(0.0531699 2.15433e-06 0)
(0.0527733 1.5982e-06 0)
(0.0524321 1.00882e-06 0)
(0.0521464 3.90233e-07 0)
(0.0519173 -2.81e-07 0)
(0.0517466 -1.00324e-06 0)
(0.0516354 -1.7989e-06 0)
(0.0515896 -2.73021e-06 0)
(0.051607 -3.68942e-06 0)
(0.0517045 -4.7609e-06 0)
(0.0518655 -5.65791e-06 0)
(0.0521393 -7.46466e-06 0)
(0.0524598 -8.02923e-06 0)
(0.0529737 -1.1613e-05 0)
(0.0534609 -1.03767e-05 0)
(0.0543506 -1.92006e-05 0)
(0.0549842 -1.14239e-05 0)
(0.0565186 -3.58802e-05 0)
(0.0575966 3.54617e-05 0)
(0.0552535 -0.00215266 0)
(0.884866 0.0434911 0)
(0.650212 0.0201445 0)
(0.494148 0.00659899 0)
(0.403851 0.0027486 0)
(0.355272 0.0015414 0)
(0.324096 0.00112472 0)
(0.300344 0.000901965 0)
(0.281287 0.00073708 0)
(0.265731 0.000614102 0)
(0.25277 0.000523339 0)
(0.241752 0.000454358 0)
(0.232238 0.000399982 0)
(0.223921 0.000355943 0)
(0.216579 0.000319572 0)
(0.210045 0.000289051 0)
(0.20419 0.000263075 0)
(0.198913 0.000240681 0)
(0.194133 0.000221146 0)
(0.189786 0.000203918 0)
(0.185819 0.000188565 0)
(0.182189 0.000174745 0)
(0.178861 0.000162182 0)
(0.175803 0.000150646 0)
(0.172992 0.000139946 0)
(0.170406 0.000129915 0)
(0.168029 0.00012041 0)
(0.165846 0.000111301 0)
(0.163845 0.000102472 0)
(0.162017 9.38094e-05 0)
(0.160354 8.52146e-05 0)
(0.158852 7.65704e-05 0)
(0.157506 6.77918e-05 0)
(0.156315 5.8735e-05 0)
(0.155277 4.93394e-05 0)
(0.154395 3.93937e-05 0)
(0.153672 2.88911e-05 0)
(0.153111 1.74908e-05 0)
(0.152725 5.27506e-06 0)
(0.152509 -8.03605e-06 0)
(0.152506 -2.32867e-05 0)
(0.152671 -4.01464e-05 0)
(0.153134 -5.94066e-05 0)
(0.153718 -8.04782e-05 0)
(0.154808 -0.000107683 0)
(0.155825 -0.000133385 0)
(0.157879 -0.000179572 0)
(0.159278 -0.000201155 0)
(0.162913 -0.000343081 0)
(0.165307 -2.95248e-05 0)
(0.166576 -0.00391069 0)
(0.991208 0.0499515 0)
(0.890977 0.0305529 0)
(0.762667 0.014597 0)
(0.656873 0.00795536 0)
(0.585949 0.00486295 0)
(0.536772 0.00345671 0)
(0.499083 0.00271951 0)
(0.468665 0.0022244 0)
(0.443568 0.00185996 0)
(0.422483 0.00158769 0)
(0.40446 0.00137963 0)
(0.388829 0.00121568 0)
(0.375117 0.00108304 0)
(0.362974 0.000973568 0)
(0.352136 0.000881744 0)
(0.342399 0.000803639 0)
(0.3336 0.000736363 0)
(0.325612 0.000677747 0)
(0.318329 0.000626131 0)
(0.311666 0.000580223 0)
(0.305552 0.000538997 0)
(0.299929 0.000501624 0)
(0.294748 0.000467422 0)
(0.289969 0.000435817 0)
(0.285556 0.000406322 0)
(0.28148 0.00037851 0)
(0.277718 0.000352005 0)
(0.27425 0.000326465 0)
(0.271059 0.000301569 0)
(0.268132 0.000277023 0)
(0.26546 0.000252509 0)
(0.263033 0.000227767 0)
(0.260849 0.000202423 0)
(0.258905 0.000176274 0)
(0.2572 0.000148769 0)
(0.255741 0.000119873 0)
(0.254527 8.86269e-05 0)
(0.253579 5.54342e-05 0)
(0.252886 1.86819e-05 0)
(0.252511 -2.09635e-05 0)
(0.252386 -6.81611e-05 0)
(0.252698 -0.00011851 0)
(0.253192 -0.000178413 0)
(0.254414 -0.000245181 0)
(0.255543 -0.00032416 0)
(0.258133 -0.000428043 0)
(0.259835 -0.000514952 0)
(0.264597 -0.000812616 0)
(0.267385 -0.000544526 0)
(0.272859 -0.00462691 0)
(1.01554 0.0489483 0)
(1.00653 0.0357095 0)
(0.936027 0.0207969 0)
(0.852317 0.0134717 0)
(0.782741 0.00916853 0)
(0.727816 0.00675157 0)
(0.682967 0.00535332 0)
(0.645459 0.00441037 0)
(0.613707 0.00371427 0)
(0.586513 0.00318711 0)
(0.562938 0.0027797 0)
(0.542272 0.00245659 0)
(0.523988 0.00219415 0)
(0.507682 0.00197688 0)
(0.493041 0.00179419 0)
(0.479819 0.0016385 0)
(0.467817 0.0015042 0)
(0.456874 0.00138709 0)
(0.446858 0.00128392 0)
(0.437662 0.00119217 0)
(0.429194 0.00110981 0)
(0.421379 0.00103523 0)
(0.414153 0.000967079 0)
(0.407461 0.000904228 0)
(0.401259 0.000845722 0)
(0.395507 0.000790725 0)
(0.390174 0.000738502 0)
(0.385231 0.000688387 0)
(0.380657 0.000639758 0)
(0.376432 0.000592042 0)
(0.372543 0.000544641 0)
(0.368977 0.000497042 0)
(0.365727 0.000448554 0)
(0.362789 0.000398766 0)
(0.360161 0.000346666 0)
(0.357847 0.000292158 0)
(0.355846 0.000233403 0)
(0.354181 0.000171223 0)
(0.352839 0.000101745 0)
(0.351889 2.8846e-05 0)
(0.351255 -5.76382e-05 0)
(0.35115 -0.000149208 0)
(0.351282 -0.000262039 0)
(0.352271 -0.000378957 0)
(0.353194 -0.00053114 0)
(0.355776 -0.000703973 0)
(0.357451 -0.000887941 0)
(0.362479 -0.0013357 0)
(0.365282 -0.00124453 0)
(0.372465 -0.00512696 0)
(1.01434 0.0460919 0)
(1.048 0.0373228 0)
(1.02467 0.0241567 0)
(0.974918 0.0175195 0)
(0.923907 0.0130657 0)
(0.877402 0.0101577 0)
(0.835493 0.00829395 0)
(0.798021 0.00696808 0)
(0.764756 0.00595459 0)
(0.735252 0.00516474 0)
(0.708989 0.00454079 0)
(0.685496 0.00403814 0)
(0.664373 0.00362519 0)
(0.645287 0.00328029 0)
(0.627962 0.00298822 0)
(0.612171 0.00273788 0)
(0.597722 0.00252094 0)
(0.584456 0.00233104 0)
(0.57224 0.00216326 0)
(0.560958 0.00201371 0)
(0.550517 0.00187927 0)
(0.540833 0.00175739 0)
(0.531837 0.00164597 0)
(0.523469 0.00154323 0)
(0.515678 0.00144767 0)
(0.50842 0.00135796 0)
(0.501658 0.00127293 0)
(0.495359 0.00119153 0)
(0.489499 0.00111278 0)
(0.484053 0.00103577 0)
(0.479005 0.000959573 0)
(0.47434 0.000883356 0)
(0.470049 0.000806066 0)
(0.466125 0.000727032 0)
(0.462563 0.000644716 0)
(0.459368 0.000558926 0)
(0.456537 0.000466843 0)
(0.454092 0.000369718 0)
(0.452019 0.000261593 0)
(0.450388 0.00014755 0)
(0.449125 1.48187e-05 0)
(0.448439 -0.000124241 0)
(0.448048 -0.000298756 0)
(0.448557 -0.000474515 0)
(0.44908 -0.000710166 0)
(0.451264 -0.000962966 0)
(0.452719 -0.00125887 0)
(0.457354 -0.00185492 0)
(0.460141 -0.00199224 0)
(0.4671 -0.00565354 0)
(1.00941 0.0430409 0)
(1.05566 0.0370755 0)
(1.05874 0.0252922 0)
(1.03648 0.0197148 0)
(1.00746 0.0157407 0)
(0.976641 0.0128696 0)
(0.94535 0.0108922 0)
(0.914752 0.00940375 0)
(0.885696 0.00820811 0)
(0.858557 0.00723669 0)
(0.833408 0.00644374 0)
(0.810182 0.00578858 0)
(0.788757 0.00523957 0)
(0.768987 0.00477371 0)
(0.750726 0.00437409 0)
(0.733835 0.0040279 0)
(0.718183 0.00372525 0)
(0.703655 0.00345837 0)
(0.690146 0.00322112 0)
(0.677566 0.00300855 0)
(0.665832 0.00281664 0)
(0.654873 0.00264206 0)
(0.644627 0.00248203 0)
(0.635039 0.00233418 0)
(0.62606 0.00219647 0)
(0.617649 0.0020671 0)
(0.60977 0.00194447 0)
(0.602391 0.00182715 0)
(0.595486 0.00171377 0)
(0.589032 0.00160307 0)
(0.583012 0.00149378 0)
(0.577411 0.00138474 0)
(0.572217 0.00127451 0)
(0.567424 0.00116212 0)
(0.563026 0.0010455 0)
(0.559027 0.00092431 0)
(0.555425 0.000794757 0)
(0.552238 0.000658441 0)
(0.549456 0.000507276 0)
(0.547142 0.000348169 0)
(0.545233 0.000162927 0)
(0.543915 -2.83596e-05 0)
(0.542947 -0.000268759 0)
(0.542859 -0.000510623 0)
(0.542899 -0.000833031 0)
(0.544468 -0.0011768 0)
(0.545604 -0.00158665 0)
(0.549472 -0.00233709 0)
(0.552164 -0.00270353 0)
(0.558175 -0.0061561 0)
(1.00635 0.0401722 0)
(1.05243 0.0361266 0)
(1.06612 0.0252113 0)
(1.05967 0.0205124 0)
(1.04715 0.017157 0)
(1.03126 0.0145739 0)
(1.01256 0.012734 0)
(0.992116 0.0113003 0)
(0.97098 0.010096 0)
(0.949876 0.00907461 0)
(0.929245 0.00820975 0)
(0.909343 0.00747286 0)
(0.890315 0.00683917 0)
(0.872226 0.00628962 0)
(0.855094 0.00580945 0)
(0.838905 0.00538694 0)
(0.823629 0.00501262 0)
(0.809223 0.00467877 0)
(0.795641 0.00437906 0)
(0.782836 0.00410825 0)
(0.770762 0.00386198 0)
(0.759374 0.00363655 0)
(0.748631 0.0034288 0)
(0.738496 0.00323599 0)
(0.728932 0.00305572 0)
(0.719909 0.00288586 0)
(0.7114 0.00272448 0)
(0.703379 0.00256981 0)
(0.695825 0.00242019 0)
(0.68872 0.00227404 0)
(0.68205 0.00212978 0)
(0.675801 0.00198593 0)
(0.669965 0.0018407 0)
(0.664537 0.00169281 0)
(0.659513 0.0015397 0)
(0.654895 0.00138083 0)
(0.650685 0.00121153 0)
(0.646898 0.00103355 0)
(0.643529 0.000837046 0)
(0.64063 0.000630071 0)
(0.638157 0.000390447 0)
(0.636263 0.00014204 0)
(0.634762 -0.00016488 0)
(0.634081 -0.000478101 0)
(0.633642 -0.000886246 0)
(0.634541 -0.0013296 0)
(0.63531 -0.00185044 0)
(0.638305 -0.0027555 0)
(0.640743 -0.00334464 0)
(0.645682 -0.00659109 0)
(1.00507 0.0374943 0)
(1.04765 0.0350264 0)
(1.06402 0.0246605 0)
(1.06431 0.0205378 0)
(1.06091 0.017687 0)
(1.05513 0.0154035 0)
(1.04654 0.013776 0)
(1.03554 0.0125045 0)
(1.02287 0.0114083 0)
(1.0091 0.0104476 0)
(0.994714 0.00960814 0)
(0.980044 0.0088719 0)
(0.965355 0.00822171 0)
(0.950839 0.00764414 0)
(0.93663 0.00712858 0)
(0.922817 0.00666628 0)
(0.90946 0.00624981 0)
(0.896591 0.00587285 0)
(0.884229 0.00552999 0)
(0.872379 0.00521661 0)
(0.861039 0.00492868 0)
(0.850202 0.00466271 0)
(0.839855 0.00441561 0)
(0.829985 0.00418464 0)
(0.82058 0.00396732 0)
(0.811625 0.00376141 0)
(0.803106 0.00356485 0)
(0.795012 0.00337568 0)
(0.78733 0.00319207 0)
(0.780052 0.00301221 0)
(0.773169 0.00283429 0)
(0.766675 0.0026566 0)
(0.760567 0.00247702 0)
(0.754842 0.00229405 0)
(0.749501 0.00210466 0)
(0.744548 0.0019081 0)
(0.739988 0.00169899 0)
(0.735834 0.00147902 0)
(0.73209 0.00123705 0)
(0.728796 0.000981484 0)
(0.725927 0.000687876 0)
(0.723601 0.000380458 0)
(0.721692 7.67422e-06 0)
(0.720522 -0.000379299 0)
(0.719681 -0.000869566 0)
(0.719979 -0.00141645 0)
(0.720386 -0.00204472 0)
(0.722565 -0.00309537 0)
(0.72463 -0.00389844 0)
(0.728549 -0.00694777 0)
(1.00451 0.0349576 0)
(1.04362 0.0339444 0)
(1.05999 0.0240063 0)
(1.06235 0.0202436 0)
(1.06272 0.017745 0)
(1.06215 0.0156737 0)
(1.05971 0.0142174 0)
(1.05533 0.013109 0)
(1.04931 0.0121522 0)
(1.04196 0.0113008 0)
(1.03358 0.0105432 0)
(1.0244 0.00986542 0)
(1.01466 0.00925416 0)
(1.00455 0.00869965 0)
(0.994238 0.0081946 0)
(0.983844 0.00773304 0)
(0.973474 0.00730988 0)
(0.963206 0.00692061 0)
(0.953102 0.00656127 0)
(0.943208 0.00622832 0)
(0.933556 0.00591861 0)
(0.924173 0.00562925 0)
(0.915076 0.00535762 0)
(0.906276 0.00510129 0)
(0.897781 0.00485803 0)
(0.889598 0.0046257 0)
(0.88173 0.00440232 0)
(0.874177 0.00418594 0)
(0.866943 0.00397468 0)
(0.860028 0.00376666 0)
(0.853433 0.00355994 0)
(0.847161 0.00335265 0)
(0.841215 0.00314249 0)
(0.835598 0.00292773 0)
(0.830317 0.00270504 0)
(0.825379 0.00247339 0)
(0.820793 0.00222692 0)
(0.816575 0.00196705 0)
(0.812732 0.00168183 0)
(0.8093 0.00137939 0)
(0.806267 0.00103417 0)
(0.803726 0.000669519 0)
(0.801596 0.000233436 0)
(0.800116 -0.000227063 0)
(0.799008 -0.000794186 0)
(0.798853 -0.00144314 0)
(0.798963 -0.00217486 0)
(0.800465 -0.00335577 0)
(0.80212 -0.00435842 0)
(0.80513 -0.00722706 0)
(1.00413 0.0325262 0)
(1.04029 0.0328889 0)
(1.05623 0.0233684 0)
(1.05899 0.0198545 0)
(1.06044 0.0176098 0)
(1.06191 0.0156683 0)
(1.0624 0.0143114 0)
(1.06164 0.013316 0)
(1.05975 0.0124728 0)
(1.05681 0.0117245 0)
(1.05294 0.0110573 0)
(1.04824 0.0104568 0)
(1.04284 0.00990979 0)
(1.03685 0.00940714 0)
(1.03041 0.0089427 0)
(1.02361 0.00851186 0)
(1.01655 0.00811089 0)
(1.00932 0.00773655 0)
(1.00199 0.00738604 0)
(0.994616 0.00705681 0)
(0.987247 0.00674656 0)
(0.979927 0.00645312 0)
(0.972692 0.00617445 0)
(0.965569 0.00590858 0)
(0.958583 0.00565364 0)
(0.951754 0.00540779 0)
(0.945099 0.00516922 0)
(0.938632 0.00493615 0)
(0.932366 0.00470675 0)
(0.926313 0.0044792 0)
(0.920483 0.00425152 0)
(0.914886 0.0040218 0)
(0.909532 0.00378759 0)
(0.904433 0.00354705 0)
(0.899599 0.00329659 0)
(0.895042 0.003035 0)
(0.890776 0.00275604 0)
(0.886818 0.00246077 0)
(0.883181 0.00213686 0)
(0.879898 0.0017916 0)
(0.876967 0.00139948 0)
(0.874462 0.000981281 0)
(0.872334 0.00048779 0)
(0.870762 -4.38136e-05 0)
(0.869565 -0.000681106 0)
(0.869149 -0.00142566 0)
(0.869077 -0.00225492 0)
(0.870078 -0.00354698 0)
(0.871366 -0.00472846 0)
(0.873614 -0.0074355 0)
(1.00374 0.0301911 0)
(1.03729 0.0318376 0)
(1.05289 0.0227615 0)
(1.05575 0.0194476 0)
(1.05735 0.0174133 0)
(1.05937 0.0155591 0)
(1.06092 0.0142483 0)
(1.06173 0.0133145 0)
(1.06188 0.0125428 0)
(1.0614 0.0118664 0)
(1.06028 0.0112691 0)
(1.05855 0.0107352 0)
(1.05623 0.0102498 0)
(1.05337 0.0098029 0)
(1.05004 0.00938779 0)
(1.04629 0.00899981 0)
(1.04219 0.00863541 0)
(1.0378 0.00829173 0)
(1.03316 0.00796642 0)
(1.02834 0.00765741 0)
(1.02337 0.00736289 0)
(1.0183 0.00708116 0)
(1.01316 0.00681058 0)
(1.00799 0.00654958 0)
(1.00282 0.0062966 0)
(0.99768 0.00605004 0)
(0.992583 0.00580835 0)
(0.987556 0.00556987 0)
(0.982617 0.00533292 0)
(0.977784 0.00509573 0)
(0.973075 0.00485637 0)
(0.968505 0.0046129 0)
(0.964089 0.00436283 0)
(0.959843 0.0041042 0)
(0.955783 0.00383331 0)
(0.951924 0.0035487 0)
(0.948283 0.00324395 0)
(0.94488 0.00291968 0)
(0.94173 0.00256347 0)
(0.938865 0.00218145 0)
(0.93629 0.00174899 0)
(0.934066 0.00128322 0)
(0.932167 0.000739521 0)
(0.930723 0.000143898 0)
(0.929629 -0.000556206 0)
(0.929153 -0.0013865 0)
(0.929041 -0.0023049 0)
(0.929733 -0.0036865 0)
(0.930746 -0.00502087 0)
(0.932405 -0.00758501 0)
(1.00337 0.0279548 0)
(1.03445 0.0307781 0)
(1.04979 0.0221794 0)
(1.05279 0.0190378 0)
(1.05435 0.0171982 0)
(1.05642 0.0154207 0)
(1.05824 0.0141306 0)
(1.05958 0.0132261 0)
(1.06053 0.0124934 0)
(1.06114 0.0118585 0)
(1.0614 0.0113042 0)
(1.06128 0.0108146 0)
(1.06078 0.010374 0)
(1.0599 0.00997092 0)
(1.05866 0.00959785 0)
(1.05708 0.00924941 0)
(1.05518 0.00892161 0)
(1.053 0.00861132 0)
(1.05055 0.00831606 0)
(1.04788 0.00803374 0)
(1.04501 0.00776261 0)
(1.04197 0.00750106 0)
(1.0388 0.00724762 0)
(1.03551 0.00700083 0)
(1.03214 0.00675929 0)
(1.02871 0.00652155 0)
(1.02524 0.00628615 0)
(1.02176 0.00605153 0)
(1.01827 0.00581608 0)
(1.01481 0.00557809 0)
(1.01139 0.00533562 0)
(1.00803 0.00508673 0)
(1.00474 0.00482888 0)
(1.00155 0.00456003 0)
(0.998466 0.00427635 0)
(0.995512 0.00397619 0)
(0.992705 0.00365304 0)
(0.990065 0.00330699 0)
(0.987609 0.00292583 0)
(0.985365 0.00251425 0)
(0.983346 0.00204908 0)
(0.981598 0.00154332 0)
(0.980115 0.000957632 0)
(0.978988 0.000307708 0)
(0.978163 -0.000446744 0)
(0.977811 -0.00135033 0)
(0.977797 -0.00234723 0)
(0.978363 -0.00379592 0)
(0.979217 -0.00525412 0)
(0.980467 -0.00769203 0)
(1.00301 0.0258206 0)
(1.03173 0.0297064 0)
(1.04679 0.0216184 0)
(1.05 0.0186248 0)
(1.05153 0.016971 0)
(1.05357 0.0152751 0)
(1.05542 0.013999 0)
(1.05687 0.0131094 0)
(1.05806 0.0123983 0)
(1.05905 0.0117856 0)
(1.05986 0.0112542 0)
(1.06047 0.0107894 0)
(1.06086 0.0103753 0)
(1.06103 0.0100001 0)
(1.06097 0.0096555 0)
(1.06069 0.00933556 0)
(1.06018 0.00903583 0)
(1.05946 0.00875275 0)
(1.05853 0.0084835 0)
(1.05741 0.00822573 0)
(1.05611 0.00797748 0)
(1.05465 0.007737 0)
(1.05304 0.00750274 0)
(1.0513 0.0072732 0)
(1.04946 0.00704691 0)
(1.04751 0.00682243 0)
(1.04549 0.00659825 0)
(1.04341 0.00637284 0)
(1.04128 0.00614453 0)
(1.03913 0.00591161 0)
(1.03696 0.00567208 0)
(1.0348 0.00542396 0)
(1.03266 0.00516462 0)
(1.03055 0.00489193 0)
(1.0285 0.00460194 0)
(1.02651 0.00429279 0)
(1.02462 0.00395792 0)
(1.02283 0.00359686 0)
(1.02116 0.00319779 0)
(1.01964 0.0027638 0)
(1.01829 0.00227362 0)
(1.01713 0.00173571 0)
(1.01618 0.00111686 0)
(1.01549 0.000421827 0)
(1.01506 -0.000377297 0)
(1.01496 -0.0013401 0)
(1.01515 -0.00240336 0)
(1.01574 -0.00389756 0)
(1.01655 -0.00544962 0)
(1.01756 -0.00777537 0)
(1.00268 0.0237913 0)
(1.02913 0.0286208 0)
(1.04388 0.021078 0)
(1.0473 0.0182086 0)
(1.04884 0.0167302 0)
(1.05085 0.0151248 0)
(1.05269 0.0138644 0)
(1.05415 0.012985 0)
(1.05537 0.012289 0)
(1.05646 0.0116899 0)
(1.05744 0.0111706 0)
(1.05831 0.0107185 0)
(1.05905 0.0103183 0)
(1.05968 0.00995818 0)
(1.06018 0.00962967 0)
(1.06056 0.00932671 0)
(1.0608 0.00904457 0)
(1.0609 0.00877944 0)
(1.06088 0.00852822 0)
(1.06072 0.00828832 0)
(1.06043 0.00805753 0)
(1.06003 0.00783393 0)
(1.0595 0.00761577 0)
(1.05887 0.0074014 0)
(1.05814 0.00718925 0)
(1.05732 0.00697773 0)
(1.05643 0.00676525 0)
(1.05546 0.00655017 0)
(1.05443 0.00633074 0)
(1.05336 0.00610513 0)
(1.05226 0.00587126 0)
(1.05113 0.00562706 0)
(1.04999 0.00536976 0)
(1.04886 0.0050971 0)
(1.04775 0.00480502 0)
(1.04666 0.00449142 0)
(1.04563 0.00414974 0)
(1.04466 0.00377888 0)
(1.04376 0.00336756 0)
(1.04297 0.00291714 0)
(1.04228 0.00240853 0)
(1.04174 0.00184564 0)
(1.04135 0.00120135 0)
(1.04115 0.000470455 0)
(1.04114 -0.000363986 0)
(1.04137 -0.0013724 0)
(1.04183 -0.00248973 0)
(1.04255 -0.00401043 0)
(1.04339 -0.00562785 0)
(1.0443 -0.0078532 0)
(1.00238 0.0218685 0)
(1.02666 0.0275205 0)
(1.04106 0.020558 0)
(1.0447 0.0177908 0)
(1.04625 0.0164745 0)
(1.04823 0.0149684 0)
(1.05007 0.013728 0)
(1.05152 0.0128579 0)
(1.05273 0.0121753 0)
(1.05383 0.0115873 0)
(1.05484 0.011076 0)
(1.05577 0.0106309 0)
(1.05662 0.010238 0)
(1.05741 0.00988542 0)
(1.05813 0.00956503 0)
(1.05878 0.00927078 0)
(1.05936 0.00899796 0)
(1.05987 0.0087427 0)
(1.0603 0.0085018 0)
(1.06066 0.00827255 0)
(1.06094 0.00805261 0)
(1.06114 0.0078399 0)
(1.06127 0.00763255 0)
(1.06133 0.00742877 0)
(1.06131 0.00722685 0)
(1.06124 0.00702508 0)
(1.0611 0.00682174 0)
(1.06091 0.00661506 0)
(1.06067 0.00640316 0)
(1.06039 0.00618411 0)
(1.06008 0.00595567 0)
(1.05974 0.00571566 0)
(1.05938 0.00546118 0)
(1.05902 0.00518982 0)
(1.05866 0.00489739 0)
(1.05832 0.00458152 0)
(1.05799 0.00423569 0)
(1.05771 0.00385814 0)
(1.05748 0.00343822 0)
(1.05731 0.00297556 0)
(1.05723 0.00245329 0)
(1.05724 0.00187103 0)
(1.05736 0.00120726 0)
(1.05761 0.00044849 0)
(1.05802 -0.000413478 0)
(1.05858 -0.00145556 0)
(1.05931 -0.00261547 0)
(1.0602 -0.00414732 0)
(1.06114 -0.00580497 0)
(1.06203 -0.00794017 0)
(1.0021 0.0200533 0)
(1.02433 0.0264075 0)
(1.03833 0.0200559 0)
(1.04217 0.0173732 0)
(1.04375 0.0162039 0)
(1.0457 0.0148044 0)
(1.04754 0.0135892 0)
(1.04899 0.0127283 0)
(1.05019 0.0120591 0)
(1.05127 0.0114821 0)
(1.05227 0.0109778 0)
(1.05321 0.0105379 0)
(1.05408 0.0101495 0)
(1.05491 0.00980121 0)
(1.05569 0.00948491 0)
(1.05643 0.0091948 0)
(1.05714 0.00892631 0)
(1.0578 0.00867565 0)
(1.05843 0.00843965 0)
(1.05902 0.00821558 0)
(1.05957 0.00800107 0)
(1.06008 0.007794 0)
(1.06055 0.00759241 0)
(1.06098 0.00739445 0)
(1.06137 0.00719831 0)
(1.06172 0.00700221 0)
(1.06204 0.0068043 0)
(1.06232 0.00660273 0)
(1.06258 0.00639549 0)
(1.06281 0.00618053 0)
(1.06302 0.00595551 0)
(1.06321 0.00571811 0)
(1.06339 0.00546531 0)
(1.06356 0.00519452 0)
(1.06374 0.00490149 0)
(1.06393 0.00458353 0)
(1.06414 0.00423424 0)
(1.06437 0.00385115 0)
(1.06464 0.00342432 0)
(1.06496 0.00295167 0)
(1.06534 0.00241852 0)
(1.06579 0.00182067 0)
(1.06633 0.00114136 0)
(1.06696 0.000360766 0)
(1.0677 -0.000523102 0)
(1.06856 -0.00158924 0)
(1.06953 -0.00278181 0)
(1.07057 -0.0043136 0)
(1.07162 -0.00599108 0)
(1.07255 -0.00804556 0)
(1.00185 0.0183457 0)
(1.02213 0.0252858 0)
(1.03569 0.0195683 0)
(1.03974 0.0169576 0)
(1.04134 0.0159191 0)
(1.04325 0.0146322 0)
(1.04509 0.0134475 0)
(1.04655 0.0125962 0)
(1.04774 0.0119404 0)
(1.0488 0.0113748 0)
(1.04979 0.0108778 0)
(1.05072 0.0104428 0)
(1.05158 0.0100582 0)
(1.05241 0.00971296 0)
(1.0532 0.00939919 0)
(1.05396 0.00911124 0)
(1.0547 0.0088447 0)
(1.05541 0.00859591 0)
(1.0561 0.00836178 0)
(1.05678 0.00813963 0)
(1.05743 0.00792711 0)
(1.05807 0.0077221 0)
(1.05869 0.00752264 0)
(1.05929 0.00732686 0)
(1.05988 0.00713292 0)
(1.06045 0.00693897 0)
(1.061 0.00674312 0)
(1.06154 0.00654343 0)
(1.06207 0.00633783 0)
(1.06259 0.00612417 0)
(1.0631 0.0059 0)
(1.0636 0.00566292 0)
(1.06411 0.0054098 0)
(1.06462 0.00513789 0)
(1.06514 0.00484291 0)
(1.06567 0.00452185 0)
(1.06622 0.00416847 0)
(1.0668 0.00377962 0)
(1.06741 0.00334609 0)
(1.06807 0.00286421 0)
(1.06877 0.00232128 0)
(1.06954 0.00170994 0)
(1.07037 0.00101727 0)
(1.07127 0.00021886 0)
(1.07226 -0.000683422 0)
(1.07333 -0.0017666 0)
(1.07448 -0.00298374 0)
(1.07566 -0.00450822 0)
(1.0768 -0.00619032 0)
(1.07778 -0.00817324 0)
(1.00162 0.0167457 0)
(1.02006 0.0241596 0)
(1.03316 0.0190909 0)
(1.03739 0.0165457 0)
(1.03902 0.015621 0)
(1.0409 0.0144509 0)
(1.04274 0.0133026 0)
(1.04419 0.0124613 0)
(1.04538 0.0118188 0)
(1.04643 0.0112653 0)
(1.04741 0.0107761 0)
(1.04832 0.0103461 0)
(1.04917 0.00996524 0)
(1.04999 0.00962288 0)
(1.05077 0.0093112 0)
(1.05152 0.00902474 0)
(1.05226 0.00875925 0)
(1.05298 0.0085112 0)
(1.05369 0.00827756 0)
(1.05438 0.00805574 0)
(1.05507 0.00784342 0)
(1.05575 0.00763851 0)
(1.05642 0.00743908 0)
(1.05709 0.00724324 0)
(1.05775 0.00704917 0)
(1.05841 0.006855 0)
(1.05907 0.00665881 0)
(1.05973 0.0064586 0)
(1.06038 0.00625226 0)
(1.06104 0.00603758 0)
(1.06171 0.00581204 0)
(1.06238 0.00557316 0)
(1.06305 0.00531774 0)
(1.06375 0.0050429 0)
(1.06445 0.00474433 0)
(1.06518 0.00441876 0)
(1.06593 0.00406012 0)
(1.06672 0.00366465 0)
(1.06753 0.00322381 0)
(1.06839 0.00273257 0)
(1.0693 0.00217994 0)
(1.07025 0.00155601 0)
(1.07127 0.000850789 0)
(1.07235 3.72133e-05 0)
(1.0735 -0.000881601 0)
(1.0747 -0.00197732 0)
(1.07596 -0.0032129 0)
(1.07723 -0.00472607 0)
(1.07843 -0.00640222 0)
(1.07946 -0.00832212 0)
(1.00142 0.0152523 0)
(1.01814 0.023033 0)
(1.03074 0.0186197 0)
(1.03512 0.0161387 0)
(1.03679 0.0153111 0)
(1.03863 0.0142599 0)
(1.04046 0.0131542 0)
(1.04193 0.0123237 0)
(1.0431 0.0116943 0)
(1.04415 0.0111535 0)
(1.04511 0.0106726 0)
(1.04601 0.0102478 0)
(1.04685 0.00987087 0)
(1.04766 0.00953141 0)
(1.04843 0.00922179 0)
(1.04917 0.00893667 0)
(1.0499 0.00867198 0)
(1.05061 0.00842428 0)
(1.05131 0.00819064 0)
(1.052 0.00796851 0)
(1.05269 0.00775561 0)
(1.05338 0.0075499 0)
(1.05406 0.00734946 0)
(1.05475 0.00715244 0)
(1.05543 0.00695699 0)
(1.05612 0.00676126 0)
(1.05681 0.00656329 0)
(1.05751 0.00636109 0)
(1.05822 0.00615248 0)
(1.05894 0.00593523 0)
(1.05967 0.00570677 0)
(1.06041 0.00546453 0)
(1.06117 0.0052053 0)
(1.06194 0.00492607 0)
(1.06274 0.00462255 0)
(1.06357 0.00429119 0)
(1.06442 0.00392615 0)
(1.0653 0.00352308 0)
(1.06623 0.00307409 0)
(1.06719 0.002573 0)
(1.0682 0.0020102 0)
(1.06926 0.00137403 0)
(1.07038 0.000656211 0)
(1.07155 -0.000170768 0)
(1.07279 -0.00110507 0)
(1.07406 -0.00221066 0)
(1.07538 -0.00346017 0)
(1.07668 -0.00496056 0)
(1.07792 -0.00662433 0)
(1.07899 -0.00848971 0)
(1.00124 0.0138643 0)
(1.01635 0.02191 0)
(1.02842 0.018151 0)
(1.03295 0.0157381 0)
(1.03466 0.0149908 0)
(1.03646 0.0140588 0)
(1.03828 0.0130019 0)
(1.03975 0.0121835 0)
(1.04092 0.0115667 0)
(1.04196 0.0110391 0)
(1.04291 0.010567 0)
(1.0438 0.0101479 0)
(1.04463 0.00977497 0)
(1.04542 0.00943852 0)
(1.04618 0.00913103 0)
(1.04691 0.0088473 0)
(1.04763 0.00858337 0)
(1.04833 0.00833593 0)
(1.04902 0.00810214 0)
(1.0497 0.00787948 0)
(1.05039 0.00766573 0)
(1.05106 0.00745887 0)
(1.05174 0.00725699 0)
(1.05243 0.00705826 0)
(1.05311 0.00686086 0)
(1.0538 0.00666291 0)
(1.0545 0.00646246 0)
(1.05521 0.00625748 0)
(1.05593 0.00604577 0)
(1.05667 0.00582506 0)
(1.05741 0.00559275 0)
(1.05818 0.00534621 0)
(1.05896 0.00508221 0)
(1.05977 0.00479761 0)
(1.06061 0.00448818 0)
(1.06147 0.00415013 0)
(1.06236 0.00377779 0)
(1.06329 0.00336636 0)
(1.06425 0.00290846 0)
(1.06526 0.00239706 0)
(1.06632 0.00182352 0)
(1.06743 0.00117514 0)
(1.06859 0.000444529 0)
(1.0698 -0.000395112 0)
(1.07106 -0.00134406 0)
(1.07237 -0.00245792 0)
(1.0737 -0.00371802 0)
(1.07501 -0.00520573 0)
(1.07625 -0.00685378 0)
(1.07733 -0.00867286 0)
(1.00108 0.0125795 0)
(1.01469 0.0207946 0)
(1.02621 0.0176814 0)
(1.03086 0.0153446 0)
(1.03263 0.0146622 0)
(1.03439 0.0138471 0)
(1.03619 0.0128451 0)
(1.03766 0.0120406 0)
(1.03883 0.0114362 0)
(1.03986 0.010922 0)
(1.0408 0.0104594 0)
(1.04168 0.0100462 0)
(1.0425 0.00967745 0)
(1.04328 0.00934414 0)
(1.04403 0.00903888 0)
(1.04475 0.00875658 0)
(1.04545 0.00849345 0)
(1.04614 0.00824628 0)
(1.04682 0.00801231 0)
(1.0475 0.00778906 0)
(1.04817 0.00757436 0)
(1.04884 0.00736621 0)
(1.04951 0.00716273 0)
(1.05018 0.00696211 0)
(1.05086 0.0067625 0)
(1.05155 0.00656205 0)
(1.05224 0.00635879 0)
(1.05295 0.00615066 0)
(1.05366 0.00593543 0)
(1.0544 0.00571081 0)
(1.05514 0.00547416 0)
(1.05591 0.0052228 0)
(1.0567 0.00495347 0)
(1.05751 0.00466295 0)
(1.05835 0.00434704 0)
(1.05922 0.00400172 0)
(1.06012 0.00362152 0)
(1.06106 0.00320122 0)
(1.06204 0.00273389 0)
(1.06306 0.00221183 0)
(1.06413 0.00162715 0)
(1.06524 0.000966533 0)
(1.06641 0.000222984 0)
(1.06763 -0.00062907 0)
(1.06889 -0.00159185 0)
(1.07019 -0.00271315 0)
(1.07151 -0.00398133 0)
(1.07281 -0.00545719 0)
(1.07404 -0.00708806 0)
(1.07513 -0.00886793 0)
(1.00093 0.0113953 0)
(1.01316 0.019691 0)
(1.02412 0.0172078 0)
(1.02886 0.0149589 0)
(1.03068 0.0143271 0)
(1.0324 0.0136244 0)
(1.03418 0.0126832 0)
(1.03566 0.011895 0)
(1.03683 0.0113026 0)
(1.03785 0.010802 0)
(1.03878 0.0103495 0)
(1.03965 0.00994263 0)
(1.04046 0.00957821 0)
(1.04123 0.00924816 0)
(1.04197 0.00894523 0)
(1.04268 0.00866445 0)
(1.04337 0.00840215 0)
(1.04406 0.00815528 0)
(1.04473 0.00792112 0)
(1.04539 0.00769728 0)
(1.04605 0.0074816 0)
(1.04671 0.00727212 0)
(1.04737 0.00706697 0)
(1.04803 0.00686435 0)
(1.0487 0.00666244 0)
(1.04938 0.00645937 0)
(1.05007 0.00625313 0)
(1.05076 0.00604167 0)
(1.05147 0.00582273 0)
(1.0522 0.00559397 0)
(1.05294 0.00535273 0)
(1.0537 0.00509628 0)
(1.05448 0.00482135 0)
(1.05529 0.0045246 0)
(1.05612 0.00420187 0)
(1.05698 0.00384898 0)
(1.05788 0.00346058 0)
(1.05881 0.00303112 0)
(1.05979 0.00255402 0)
(1.0608 0.00202115 0)
(1.06186 0.00142504 0)
(1.06297 0.000752244 0)
(1.06413 -4.273e-06 0)
(1.06533 -0.000868476 0)
(1.06658 -0.00184437 0)
(1.06786 -0.00297256 0)
(1.06916 -0.00424687 0)
(1.07043 -0.00571202 0)
(1.07163 -0.00732573 0)
(1.07271 -0.00907273 0)
(1.0008 0.0103085 0)
(1.01176 0.0186032 0)
(1.02213 0.0167275 0)
(1.02694 0.0145812 0)
(1.02883 0.0139876 0)
(1.03051 0.0133907 0)
(1.03227 0.0125157 0)
(1.03375 0.0117467 0)
(1.03492 0.0111659 0)
(1.03593 0.010679 0)
(1.03685 0.0102372 0)
(1.03771 0.00983704 0)
(1.03851 0.00947715 0)
(1.03928 0.00915048 0)
(1.04 0.00884999 0)
(1.04071 0.0085708 0)
(1.04139 0.0083094 0)
(1.04206 0.00806285 0)
(1.04272 0.00782852 0)
(1.04338 0.00760408 0)
(1.04403 0.00738741 0)
(1.04468 0.00717656 0)
(1.04533 0.00696971 0)
(1.04598 0.00676506 0)
(1.04664 0.00656078 0)
(1.04731 0.006355 0)
(1.04799 0.00614572 0)
(1.04867 0.00593083 0)
(1.04937 0.00570807 0)
(1.05009 0.00547505 0)
(1.05082 0.00522909 0)
(1.05157 0.0049674 0)
(1.05234 0.00468669 0)
(1.05314 0.00438355 0)
(1.05396 0.00405383 0)
(1.05482 0.00369318 0)
(1.0557 0.00329638 0)
(1.05663 0.00285763 0)
(1.05759 0.00237057 0)
(1.05859 0.00182682 0)
(1.05964 0.00121914 0)
(1.06073 0.000534284 0)
(1.06187 -0.000235094 0)
(1.06305 -0.00111114 0)
(1.06427 -0.00209938 0)
(1.06552 -0.00323411 0)
(1.06679 -0.00451304 0)
(1.06802 -0.00596874 0)
(1.0692 -0.00756609 0)
(1.07027 -0.00928566 0)
(1.00069 0.00931519 0)
(1.01048 0.0175354 0)
(1.02026 0.0162381 0)
(1.02511 0.0142114 0)
(1.02707 0.0136456 0)
(1.02872 0.0131461 0)
(1.03044 0.012342 0)
(1.03192 0.0115955 0)
(1.03309 0.0110262 0)
(1.0341 0.0105529 0)
(1.03501 0.0101223 0)
(1.03586 0.00972932 0)
(1.03666 0.00937417 0)
(1.03741 0.009051 0)
(1.03813 0.00875306 0)
(1.03883 0.00847555 0)
(1.0395 0.00821509 0)
(1.04016 0.00796889 0)
(1.04081 0.00773441 0)
(1.04146 0.00750937 0)
(1.0421 0.0072917 0)
(1.04274 0.00707947 0)
(1.04338 0.00687089 0)
(1.04403 0.00666416 0)
(1.04468 0.00645748 0)
(1.04534 0.00624894 0)
(1.046 0.00603655 0)
(1.04668 0.00581818 0)
(1.04737 0.00559152 0)
(1.04808 0.00535415 0)
(1.0488 0.00510338 0)
(1.04954 0.00483635 0)
(1.0503 0.00454977 0)
(1.05109 0.00424013 0)
(1.0519 0.0039033 0)
(1.05274 0.0035348 0)
(1.05361 0.00312948 0)
(1.05452 0.00268137 0)
(1.05547 0.00218425 0)
(1.05646 0.00162963 0)
(1.05748 0.00101034 0)
(1.05856 0.000313527 0)
(1.05967 -0.000468446 0)
(1.06083 -0.00135595 0)
(1.06203 -0.00235578 0)
(1.06325 -0.00349678 0)
(1.06447 -0.00477917 0)
(1.06568 -0.00622658 0)
(1.06683 -0.00780885 0)
(1.06788 -0.00950565 0)
(1.0006 0.00841116 0)
(1.00932 0.0164916 0)
(1.0185 0.0157379 0)
(1.02337 0.0138493 0)
(1.0254 0.013303 0)
(1.02701 0.0128912 0)
(1.0287 0.0121613 0)
(1.03018 0.0114412 0)
(1.03136 0.0108835 0)
(1.03235 0.0104235 0)
(1.03326 0.0100047 0)
(1.0341 0.00961932 0)
(1.03489 0.00926915 0)
(1.03564 0.00894961 0)
(1.03635 0.00865432 0)
(1.03704 0.00837857 0)
(1.0377 0.00811913 0)
(1.03836 0.00787332 0)
(1.039 0.00763871 0)
(1.03964 0.00741308 0)
(1.04027 0.00719439 0)
(1.0409 0.00698077 0)
(1.04154 0.00677043 0)
(1.04217 0.0065616 0)
(1.04281 0.00635247 0)
(1.04346 0.00614114 0)
(1.04412 0.00592559 0)
(1.04479 0.00570366 0)
(1.04547 0.00547304 0)
(1.04616 0.00523127 0)
(1.04687 0.00497562 0)
(1.04761 0.00470318 0)
(1.04836 0.00441065 0)
(1.04913 0.00409443 0)
(1.04993 0.00375041 0)
(1.05076 0.00337399 0)
(1.05162 0.00296008 0)
(1.05251 0.00250258 0)
(1.05345 0.00199535 0)
(1.05441 0.00142991 0)
(1.05542 0.000799119 0)
(1.05648 9.03658e-05 0)
(1.05757 -0.000703913 0)
(1.0587 -0.00160247 0)
(1.05987 -0.00261307 0)
(1.06105 -0.00376006 0)
(1.06224 -0.005045 0)
(1.06341 -0.00648515 0)
(1.06453 -0.00805385 0)
(1.06557 -0.00973188 0)
(1.00051 0.0075916 0)
(1.00827 0.0154756 0)
(1.01686 0.0152256 0)
(1.02171 0.0134942 0)
(1.02381 0.0129616 0)
(1.0254 0.0126267 0)