/*--------------------------------*- C++ -*----------------------------------*\
  =========                 |
  \\      /  F ield         | OpenFOAM: The Open Source CFD Toolbox
   \\    /   O peration     | Website:  https://openfoam.org
    \\  /    A nd           | Version:  7
     \\/     M anipulation  |
\*---------------------------------------------------------------------------*/
FoamFile
{
    version     2.0;
    format      ascii;
    class       volVectorField;
    location    "0.06";
    object      wallShearStress;
}
// * * * * * * * * * * * * * * * * * * * * * * * * * * * * * * * * * * * * * //

dimensions      [0 2 -2 0 0 0 0];

internalField   uniform (0 0 0);

boundaryField
{
    velocityInlet
    {
        type            calculated;
        value           uniform (0 0 0);
    }
    pressureOutlet
    {
        type            calculated;
        value           uniform (0 0 0);
    }
    fixedWalls
    {
        type            calculated;
        value           nonuniform List<vector> 
100
(
(-0.0131094 -8.27588e-05 0)
(-0.0148838 -0.000409514 0)
(-0.0128615 -0.000396646 0)
(-0.0109413 -0.00022412 0)
(-0.00978659 -0.000107111 0)
(-0.00890019 -8.81484e-05 0)
(-0.00809461 -8.73808e-05 0)
(-0.00735023 -8.12987e-05 0)
(-0.00668019 -7.27306e-05 0)
(-0.00608778 -6.57212e-05 0)
(-0.005558 -6.2301e-05 0)
(-0.00507786 -6.01374e-05 0)
(-0.00466292 -5.27515e-05 0)
(-0.00435801 -3.70271e-05 0)
(-0.00420341 -1.66224e-05 0)
(-0.00419568 3.07796e-06 0)
(-0.00428474 1.55789e-05 0)
(-0.00440393 1.83337e-05 0)
(-0.00449996 1.52271e-05 0)
(-0.00454503 1.03309e-05 0)
(-0.00453342 3.6213e-06 0)
(-0.004472 -2.3581e-06 0)
(-0.00437325 -6.81953e-06 0)
(-0.00425069 -9.57767e-06 0)
(-0.00411445 -1.11691e-05 0)
(-0.00396514 -1.34684e-05 0)
(-0.00379417 -1.80228e-05 0)
(-0.0036021 -2.24556e-05 0)
(-0.00342475 -2.05299e-05 0)
(-0.00333737 -8.82751e-06 0)
(-0.00342695 1.9415e-05 0)
(-0.00373259 5.21191e-05 0)
(-0.00416353 6.99139e-05 0)
(-0.00448045 5.79099e-05 0)
(-0.00437182 -5.36036e-06 0)
(-0.00359275 -0.000104786 0)
(-0.00219254 -0.000189253 0)
(-0.000642437 -0.000197162 0)
(0.000402823 -0.000120916 0)
(0.000567363 -8.42722e-06 0)
(-1.29316e-05 6.69357e-05 0)
(-0.000908679 9.91331e-05 0)
(-0.00175576 8.87194e-05 0)
(-0.00239122 6.35502e-05 0)
(-0.00279427 3.96567e-05 0)
(-0.00301335 2.18425e-05 0)
(-0.0031064 1.03774e-05 0)
(-0.00311964 3.03373e-06 0)
(-0.00308417 -1.96749e-06 0)
(-0.00301892 -5.36792e-06 0)
(-0.00293529 -7.86134e-06 0)
(-0.00284258 -9.37569e-06 0)
(-0.00275244 -9.32922e-06 0)
(-0.00267995 -7.13859e-06 0)
(-0.00264017 -3.03622e-06 0)
(-0.00263813 1.81427e-06 0)
(-0.00265917 4.60404e-06 0)
(-0.0026755 3.93338e-06 0)
(-0.00267336 2.62383e-06 0)
(-0.00267287 4.99469e-06 0)
(-0.00270889 1.16685e-05 0)
(-0.00278331 1.77186e-05 0)
(-0.00284158 1.78363e-05 0)
(-0.0027933 5.08063e-06 0)
(-0.00254782 -1.85515e-05 0)
(-0.00204656 -4.97661e-05 0)
(-0.00129864 -8.04157e-05 0)
(-0.000406068 -9.75245e-05 0)
(0.000451805 -9.39132e-05 0)
(0.00106933 -6.73989e-05 0)
(0.00129031 -2.58919e-05 0)
(0.00107376 2.12569e-05 0)
(0.000517066 5.41188e-05 0)
(-0.000212551 6.61992e-05 0)
(-0.00094286 6.63331e-05 0)
(-0.00155046 5.36318e-05 0)
(-0.0019828 3.71742e-05 0)
(-0.0022378 2.14116e-05 0)
(-0.00234274 8.91676e-06 0)
(-0.00233482 -5.8526e-07 0)
(-0.00225208 -6.86574e-06 0)
(-0.00212805 -1.03054e-05 0)
(-0.00199033 -1.15019e-05 0)
(-0.00185846 -1.10985e-05 0)
(-0.0017474 -9.49486e-06 0)
(-0.00166138 -7.72024e-06 0)
(-0.0016 -6.53023e-06 0)
(-0.00155215 -6.58531e-06 0)
(-0.00153388 -5.60694e-06 0)
(-0.00157225 -6.60108e-08 0)
(-0.0017414 1.18979e-05 0)
(-0.00205073 2.57786e-05 0)
(-0.00249385 3.76691e-05 0)
(-0.00297995 4.37047e-05 0)
(-0.00339606 4.37591e-05 0)
(-0.00375307 3.75179e-05 0)
(-0.00349686 1.0114e-05 0)
(-0.00321117 -3.46349e-05 0)
(-0.00124462 -0.000149374 0)
(0.000694151 -6.43317e-05 0)
)
;
    }
    bottomWall
    {
        type            calculated;
        value           nonuniform List<vector> 
800
(
(-0.0353511 0.00216565 0)
(-0.0160355 0.000525003 0)
(-0.0105885 0.000100598 0)
(-0.00845254 3.46303e-05 0)
(-0.00748734 1.97245e-05 0)
(-0.00685049 1.6054e-05 0)
(-0.0063405 1.32542e-05 0)
(-0.0059281 1.08049e-05 0)
(-0.00559235 9.00429e-06 0)
(-0.0053125 7.70437e-06 0)
(-0.005074 6.71911e-06 0)
(-0.00486742 5.94039e-06 0)
(-0.0046863 5.30934e-06 0)
(-0.00452592 4.78912e-06 0)
(-0.00438268 4.3542e-06 0)
(-0.00425381 3.98606e-06 0)
(-0.00413712 3.67106e-06 0)
(-0.00403086 3.39892e-06 0)
(-0.00393362 3.16181e-06 0)
(-0.00384424 2.95364e-06 0)
(-0.00376175 2.76962e-06 0)
(-0.00368534 2.60593e-06 0)
(-0.00361435 2.45952e-06 0)
(-0.00354819 2.32788e-06 0)
(-0.00348637 2.20897e-06 0)
(-0.00342846 2.10112e-06 0)
(-0.00337409 2.0029e-06 0)
(-0.00332293 1.91313e-06 0)
(-0.00327471 1.83081e-06 0)
(-0.00322916 1.7551e-06 0)
(-0.00318608 1.68526e-06 0)
(-0.00314526 1.62066e-06 0)
(-0.00310652 1.56076e-06 0)
(-0.00306972 1.50509e-06 0)
(-0.0030347 1.45323e-06 0)
(-0.00300135 1.40483e-06 0)
(-0.00296953 1.35955e-06 0)
(-0.00293916 1.31712e-06 0)
(-0.00291014 1.27727e-06 0)
(-0.00288237 1.2398e-06 0)
(-0.00285578 1.2045e-06 0)
(-0.00283031 1.17117e-06 0)
(-0.00280587 1.13971e-06 0)
(-0.00278241 1.10986e-06 0)
(-0.00275988 1.08171e-06 0)
(-0.00273823 1.05473e-06 0)
(-0.00271739 1.02959e-06 0)
(-0.00269734 1.00481e-06 0)
(-0.00267802 9.82493e-07 0)
(-0.00265942 9.58658e-07 0)
(-0.00264388 9.39058e-07 0)
(-0.00263105 9.27854e-07 0)
(-0.00261839 9.13594e-07 0)
(-0.00260594 8.98354e-07 0)
(-0.00259368 8.84029e-07 0)
(-0.00258162 8.70373e-07 0)
(-0.00256974 8.57021e-07 0)
(-0.00255804 8.43928e-07 0)
(-0.00254652 8.31121e-07 0)
(-0.00253517 8.18595e-07 0)
(-0.00252399 8.06335e-07 0)
(-0.00251297 7.94326e-07 0)
(-0.00250212 7.8256e-07 0)
(-0.00249143 7.71028e-07 0)
(-0.0024809 7.59722e-07 0)
(-0.00247051 7.48635e-07 0)
(-0.00246028 7.37758e-07 0)
(-0.00245019 7.27084e-07 0)
(-0.00244025 7.16609e-07 0)
(-0.00243045 7.06324e-07 0)
(-0.00242079 6.96224e-07 0)
(-0.00241127 6.86301e-07 0)
(-0.00240188 6.76551e-07 0)
(-0.00239262 6.66968e-07 0)
(-0.00238349 6.57547e-07 0)
(-0.00237449 6.48282e-07 0)
(-0.00236562 6.39168e-07 0)
(-0.00235687 6.30201e-07 0)
(-0.00234823 6.21378e-07 0)
(-0.00233972 6.12692e-07 0)
(-0.00233133 6.04141e-07 0)
(-0.00232305 5.9572e-07 0)
(-0.00231489 5.87428e-07 0)
(-0.00230683 5.79258e-07 0)
(-0.00229889 5.71209e-07 0)
(-0.00229106 5.63277e-07 0)
(-0.00228333 5.5546e-07 0)
(-0.00227571 5.47753e-07 0)
(-0.0022682 5.40153e-07 0)
(-0.00226078 5.32659e-07 0)
(-0.00225347 5.25268e-07 0)
(-0.00224626 5.17974e-07 0)
(-0.00223914 5.10778e-07 0)
(-0.00223213 5.03675e-07 0)
(-0.00222521 4.96665e-07 0)
(-0.00221838 4.89741e-07 0)
(-0.00221165 4.82905e-07 0)
(-0.00220501 4.76152e-07 0)
(-0.00219847 4.6948e-07 0)
(-0.00219201 4.62888e-07 0)
(-0.00218564 4.56372e-07 0)
(-0.00217936 4.49932e-07 0)
(-0.00217317 4.43565e-07 0)
(-0.00216706 4.37269e-07 0)
(-0.00216104 4.31042e-07 0)
(-0.00215511 4.24882e-07 0)
(-0.00214925 4.18789e-07 0)
(-0.00214348 4.12758e-07 0)
(-0.00213779 4.06791e-07 0)
(-0.00213219 4.00884e-07 0)
(-0.00212666 3.95037e-07 0)
(-0.00212121 3.89248e-07 0)
(-0.00211584 3.83516e-07 0)
(-0.00211055 3.77839e-07 0)
(-0.00210533 3.72216e-07 0)
(-0.00210019 3.66646e-07 0)
(-0.00209513 3.61129e-07 0)
(-0.00209014 3.55662e-07 0)
(-0.00208523 3.50246e-07 0)
(-0.00208039 3.44878e-07 0)
(-0.00207562 3.3956e-07 0)
(-0.00207092 3.34289e-07 0)
(-0.0020663 3.29066e-07 0)
(-0.00206175 3.23889e-07 0)
(-0.00205726 3.1876e-07 0)
(-0.00205285 3.13675e-07 0)
(-0.00204851 3.0864e-07 0)
(-0.00204423 3.03649e-07 0)
(-0.00204002 2.98704e-07 0)
(-0.00203588 2.938e-07 0)
(-0.00203181 2.88942e-07 0)
(-0.0020278 2.84129e-07 0)
(-0.00202386 2.7936e-07 0)
(-0.00201998 2.74629e-07 0)
(-0.00201617 2.69941e-07 0)
(-0.00201242 2.65293e-07 0)
(-0.00200873 2.60691e-07 0)
(-0.00200511 2.56126e-07 0)
(-0.00200155 2.5161e-07 0)
(-0.00199805 2.47122e-07 0)
(-0.00199461 2.42694e-07 0)
(-0.00199123 2.38276e-07 0)
(-0.00198791 2.33943e-07 0)
(-0.00198466 2.29581e-07 0)
(-0.00198146 2.25357e-07 0)
(-0.00197832 2.21028e-07 0)
(-0.00197523 2.16938e-07 0)
(-0.00197221 2.12595e-07 0)
(-0.00196924 2.08624e-07 0)
(-0.00196633 2.04128e-07 0)
(-0.00196392 2.00273e-07 0)
(-0.00196196 1.98243e-07 0)
(-0.00196002 1.95716e-07 0)
(-0.00195808 1.92794e-07 0)
(-0.00195616 1.8991e-07 0)
(-0.00195426 1.87054e-07 0)
(-0.00195237 1.84269e-07 0)
(-0.00195049 1.81463e-07 0)
(-0.00194863 1.78657e-07 0)
(-0.00194678 1.75862e-07 0)
(-0.00194495 1.73067e-07 0)
(-0.00194314 1.70276e-07 0)
(-0.00194134 1.67519e-07 0)
(-0.00193956 1.64718e-07 0)
(-0.0019378 1.61959e-07 0)
(-0.00193605 1.59182e-07 0)
(-0.00193432 1.56415e-07 0)
(-0.00193261 1.53648e-07 0)
(-0.00193091 1.50889e-07 0)
(-0.00192923 1.48142e-07 0)
(-0.00192758 1.45394e-07 0)
(-0.00192594 1.42656e-07 0)
(-0.00192432 1.39952e-07 0)
(-0.00192271 1.37211e-07 0)
(-0.00192113 1.34519e-07 0)
(-0.00191957 1.31811e-07 0)
(-0.00191803 1.29111e-07 0)
(-0.0019165 1.26435e-07 0)
(-0.001915 1.23759e-07 0)
(-0.00191352 1.21103e-07 0)
(-0.00191206 1.18487e-07 0)
(-0.00191062 1.15842e-07 0)
(-0.0019092 1.13248e-07 0)
(-0.0019078 1.10652e-07 0)
(-0.00190643 1.08075e-07 0)
(-0.00190507 1.05534e-07 0)
(-0.00190374 1.02996e-07 0)
(-0.00190243 1.00484e-07 0)
(-0.00190114 9.80203e-08 0)
(-0.00189987 9.55302e-08 0)
(-0.00189863 9.31141e-08 0)
(-0.00189741 9.06881e-08 0)
(-0.00189621 8.8292e-08 0)
(-0.00189503 8.59362e-08 0)
(-0.00189387 8.36128e-08 0)
(-0.00189274 8.1328e-08 0)
(-0.00189163 7.90483e-08 0)
(-0.00189054 7.68259e-08 0)
(-0.00188947 7.46678e-08 0)
(-0.00188842 7.24842e-08 0)
(-0.0018874 7.03859e-08 0)
(-0.0018864 6.83022e-08 0)
(-0.00188541 6.62619e-08 0)
(-0.00188445 6.42882e-08 0)
(-0.00188352 6.23345e-08 0)
(-0.0018826 6.0443e-08 0)
(-0.0018817 5.86223e-08 0)
(-0.00188082 5.67948e-08 0)
(-0.00187996 5.50759e-08 0)
(-0.00187912 5.33613e-08 0)
(-0.0018783 5.1703e-08 0)
(-0.0018775 5.01206e-08 0)
(-0.00187671 4.85655e-08 0)
(-0.00187594 4.71126e-08 0)
(-0.00187519 4.57507e-08 0)
(-0.00187446 4.43411e-08 0)
(-0.00187374 4.3053e-08 0)
(-0.00187304 4.18006e-08 0)
(-0.00187235 4.06336e-08 0)
(-0.00187167 3.95067e-08 0)
(-0.00187101 3.84402e-08 0)
(-0.00187037 3.74659e-08 0)
(-0.00186973 3.6519e-08 0)
(-0.0018691 3.56922e-08 0)
(-0.00186849 3.49476e-08 0)
(-0.00186788 3.41951e-08 0)
(-0.00186729 3.3553e-08 0)
(-0.0018667 3.29693e-08 0)
(-0.00186612 3.24234e-08 0)
(-0.00186555 3.20488e-08 0)
(-0.00186498 3.1552e-08 0)
(-0.00186442 3.1418e-08 0)
(-0.00186386 3.10721e-08 0)
(-0.0018633 3.11376e-08 0)
(-0.00186275 3.05779e-08 0)
(-0.00186219 3.12059e-08 0)
(-0.00186165 3.01386e-08 0)
(-0.00186108 3.18458e-08 0)
(-0.00186056 2.95218e-08 0)
(-0.00185996 3.33418e-08 0)
(-0.00185948 2.82146e-08 0)
(-0.00185882 3.63655e-08 0)
(-0.0018584 2.52245e-08 0)
(-0.00185763 4.21628e-08 0)
(-0.00185733 1.90903e-08 0)
(-0.00185639 5.25242e-08 0)
(-0.00185625 8.21001e-09 0)
(-0.00185508 6.84337e-08 0)
(-0.00185514 -6.02512e-09 0)
(-0.00185367 7.11956e-08 0)
(-0.0353516 -0.00216556 0)
(-0.0160389 -0.000524859 0)
(-0.010596 -0.000100435 0)
(-0.00846443 -3.44738e-05 0)
(-0.0075038 -1.95645e-05 0)
(-0.00687173 -1.58883e-05 0)
(-0.00636669 -1.30838e-05 0)
(-0.00595931 -1.06295e-05 0)
(-0.00562864 -8.8235e-06 0)
(-0.00535395 -7.51826e-06 0)
(-0.00512065 -6.52759e-06 0)
(-0.00491934 -5.74307e-06 0)
(-0.00474355 -5.10552e-06 0)
(-0.00458858 -4.57789e-06 0)
(-0.00445086 -4.13436e-06 0)
(-0.00432765 -3.75618e-06 0)
(-0.00421681 -3.42945e-06 0)
(-0.00411661 -3.14372e-06 0)
(-0.0040257 -2.89096e-06 0)
(-0.00394294 -2.66494e-06 0)
(-0.00386743 -2.46068e-06 0)
(-0.00379842 -2.27414e-06 0)
(-0.00373527 -2.10199e-06 0)
(-0.00367746 -1.94139e-06 0)
(-0.00362457 -1.78991e-06 0)
(-0.00357623 -1.64541e-06 0)
(-0.00353217 -1.50592e-06 0)
(-0.00349213 -1.36972e-06 0)
(-0.00345594 -1.235e-06 0)
(-0.00342346 -1.10031e-06 0)
(-0.00339459 -9.63677e-07 0)
(-0.00336926 -8.23942e-07 0)
(-0.00334748 -6.78553e-07 0)
(-0.00332924 -5.26766e-07 0)
(-0.00331461 -3.64778e-07 0)
(-0.00330371 -1.92394e-07 0)
(-0.00329662 -3.56851e-09 0)
(-0.00329369 2.04022e-07 0)
(-0.0032948 4.32994e-07 0)
(-0.00330103 6.75687e-07 0)
(-0.0033113 9.43104e-07 0)
(-0.00332879 1.27442e-06 0)
(-0.00334924 1.59425e-06 0)
(-0.00338205 2.09481e-06 0)
(-0.00341315 2.4301e-06 0)
(-0.00346996 3.36452e-06 0)
(-0.00351039 3.47998e-06 0)
(-0.00360846 6.10609e-06 0)
(-0.00367341 -4.54812e-06 0)
(-0.00352929 0.00025303 0)
(-3.44032e-08 6.09629e-07 0)
(2.7546e-06 -3.09791e-06 0)
(5.43872e-06 -1.25034e-05 0)
(7.65711e-06 -2.59603e-05 0)
(9.20319e-06 -4.25513e-05 0)
(1.00868e-05 -6.07444e-05 0)
(1.0522e-05 -7.96441e-05 0)
(1.06849e-05 -9.86772e-05 0)
(1.06999e-05 -0.000117545 0)
(1.06452e-05 -0.000136101 0)
(1.05524e-05 -0.000154273 0)
(1.04421e-05 -0.000172033 0)
(1.03211e-05 -0.000189369 0)
(1.01886e-05 -0.000206271 0)
(1.00476e-05 -0.000222729 0)
(9.89898e-06 -0.000238732 0)
(9.7369e-06 -0.000254275 0)
(9.56677e-06 -0.000269346 0)
(9.38416e-06 -0.000283932 0)
(9.19188e-06 -0.000298025 0)
(8.98659e-06 -0.000311615 0)
(8.77145e-06 -0.000324694 0)
(8.54643e-06 -0.000337246 0)
(8.30954e-06 -0.000349267 0)
(8.06444e-06 -0.00036075 0)
(7.8081e-06 -0.000371685 0)
(7.54061e-06 -0.000382068 0)
(7.26517e-06 -0.000391885 0)
(6.97853e-06 -0.000401131 0)
(6.68559e-06 -0.000409807 0)
(6.38243e-06 -0.000417901 0)
(6.07037e-06 -0.000425412 0)
(5.74903e-06 -0.000432333 0)
(5.42211e-06 -0.000438661 0)
(5.08876e-06 -0.000444395 0)
(4.74914e-06 -0.000449532 0)
(4.40421e-06 -0.000454076 0)
(4.05638e-06 -0.000458027 0)
(3.70962e-06 -0.000461376 0)
(3.36663e-06 -0.000464126 0)
(3.02706e-06 -0.000466286 0)
(2.6901e-06 -0.00046786 0)
(2.35305e-06 -0.000468849 0)
(2.01657e-06 -0.000469254 0)
(1.67839e-06 -0.000469086 0)
(1.34787e-06 -0.000468365 0)
(1.01997e-06 -0.000467095 0)
(6.94864e-07 -0.000465282 0)
(3.75734e-07 -0.000462937 0)
(5.61173e-08 -0.00046007 0)
(-2.58975e-07 -0.000456686 0)
(-5.6994e-07 -0.000452795 0)
(-8.75186e-07 -0.000448412 0)
(-1.17548e-06 -0.00044354 0)
(-1.47464e-06 -0.000438196 0)
(-1.76849e-06 -0.000432399 0)
(-2.05399e-06 -0.000426145 0)
(-2.32888e-06 -0.000419464 0)
(-2.58768e-06 -0.000412381 0)
(-2.83634e-06 -0.000404898 0)
(-3.07232e-06 -0.00039705 0)
(-3.29941e-06 -0.000388855 0)
(-3.50646e-06 -0.000380333 0)
(-3.68943e-06 -0.00037152 0)
(-3.85475e-06 -0.00036244 0)
(-4.00428e-06 -0.000353133 0)
(-4.12879e-06 -0.000343625 0)
(-4.23655e-06 -0.000333947 0)
(-4.32083e-06 -0.000324138 0)
(-4.3971e-06 -0.000314247 0)
(-4.46398e-06 -0.000304304 0)
(-4.52109e-06 -0.000294344 0)
(-4.56667e-06 -0.000284416 0)
(-4.62198e-06 -0.000274548 0)
(-4.68931e-06 -0.000264793 0)
(-4.76366e-06 -0.000255175 0)
(-4.85672e-06 -0.000245747 0)
(-4.96878e-06 -0.000236525 0)
(-5.10534e-06 -0.00022753 0)
(-5.23786e-06 -0.000218824 0)
(-5.36582e-06 -0.000210444 0)
(-5.45855e-06 -0.000202423 0)
(-5.47028e-06 -0.000194813 0)
(-5.35023e-06 -0.000187681 0)
(-5.05515e-06 -0.0001811 0)
(-4.57875e-06 -0.00017514 0)
(-3.99257e-06 -0.000169829 0)
(-3.48714e-06 -0.000165095 0)
(-3.38432e-06 -0.000160699 0)
(-4.10497e-06 -0.000156182 0)
(-6.11142e-06 -0.000150908 0)
(-9.75325e-06 -0.000144104 0)
(-1.51955e-05 -0.000135049 0)
(-2.2301e-05 -0.000123094 0)
(-3.05479e-05 -0.000107922 0)
(-3.89501e-05 -8.97982e-05 0)
(-4.60254e-05 -6.94901e-05 0)
(-4.99286e-05 -4.84086e-05 0)
(-4.88781e-05 -2.8751e-05 0)
(-4.17617e-05 -1.31976e-05 0)
(-2.86221e-05 -4.41672e-06 0)
(-1.02968e-05 -4.47394e-06 0)
(1.12621e-05 -1.4953e-05 0)
(3.3228e-05 -3.61337e-05 0)
(5.24074e-05 -6.69001e-05 0)
(6.57215e-05 -0.000104695 0)
(7.07969e-05 -0.00014569 0)
(6.65263e-05 -0.000185068 0)
(5.38396e-05 -0.000217982 0)
(3.52709e-05 -0.000241023 0)
(1.38657e-05 -0.000252222 0)
(-6.47495e-06 -0.000251099 0)
(-2.20531e-05 -0.000239631 0)
(-3.0685e-05 -0.000221509 0)
(-3.20725e-05 -0.000200619 0)
(-2.71241e-05 -0.000180307 0)
(-1.80881e-05 -0.000162927 0)
(-7.93582e-06 -0.00014931 0)
(3.15131e-07 -0.000138683 0)
(4.42888e-06 -0.000128935 0)
(3.00572e-06 -0.000118214 0)
(-4.61064e-06 -0.00010521 0)
(-1.84169e-05 -8.85929e-05 0)
(-3.7477e-05 -6.69326e-05 0)
(-5.97078e-05 -3.92599e-05 0)
(-8.23704e-05 -5.6126e-06 0)
(-0.000102907 3.2911e-05 0)
(-0.00011957 7.45436e-05 0)
(-0.000131603 0.000117412 0)
(-0.000139049 0.00015996 0)
(-0.000142383 0.000201081 0)
(-0.000142234 0.000240035 0)
(-0.000139233 0.000276333 0)
(-0.000133956 0.000309652 0)
(-0.000126909 0.000339785 0)
(-0.00011852 0.000366618 0)
(-0.000109146 0.000390106 0)
(-9.90812e-05 0.000410255 0)
(-8.85675e-05 0.000427112 0)
(-7.78017e-05 0.000440751 0)
(-6.69494e-05 0.000451272 0)
(-5.6151e-05 0.000458795 0)
(-4.5524e-05 0.000463459 0)
(-3.51458e-05 0.000465416 0)
(-2.5095e-05 0.000464801 0)
(-1.54521e-05 0.000461797 0)
(-6.25137e-06 0.000456587 0)
(2.48371e-06 0.000449341 0)
(1.07417e-05 0.000440226 0)
(1.85173e-05 0.000429406 0)
(2.58109e-05 0.000417038 0)
(3.26279e-05 0.000403274 0)
(3.89784e-05 0.000388258 0)
(4.48763e-05 0.000372127 0)
(5.03381e-05 0.000355008 0)
(5.53828e-05 0.00033702 0)
(6.00303e-05 0.000318274 0)
(6.43012e-05 0.000298871 0)
(6.82158e-05 0.000278904 0)
(7.17936e-05 0.00025846 0)
(7.50527e-05 0.000237617 0)
(7.80092e-05 0.000216446 0)
(8.06763e-05 0.000195012 0)
(8.30645e-05 0.000173374 0)
(8.51807e-05 0.000151589 0)
(8.70277e-05 0.000129706 0)
(8.86041e-05 0.000107773 0)
(8.99039e-05 8.58374e-05 0)
(9.09164e-05 6.39468e-05 0)
(9.16272e-05 4.21519e-05 0)
(9.20188e-05 2.05087e-05 0)
(9.20718e-05 -9.2032e-07 0)
(9.17669e-05 -2.2067e-05 0)
(9.10857e-05 -4.28584e-05 0)
(9.00119e-05 -6.32181e-05 0)
(8.85323e-05 -8.30681e-05 0)
(8.6637e-05 -0.000102329 0)
(8.43196e-05 -0.00012092 0)
(8.15795e-05 -0.000138755 0)
(7.84226e-05 -0.000155748 0)
(7.48641e-05 -0.000171807 0)
(7.09297e-05 -0.00018684 0)
(6.66568e-05 -0.000200756 0)
(6.20951e-05 -0.000213466 0)
(5.73055e-05 -0.000224893 0)
(5.23579e-05 -0.000234968 0)
(4.73257e-05 -0.000243647 0)
(4.22765e-05 -0.000250915 0)
(3.72541e-05 -0.000256808 0)
(3.22426e-05 -0.000261461 0)
(2.70977e-05 -0.000265194 0)
(2.14249e-05 -0.000268717 0)
(1.43266e-05 -0.000273621 0)
(3.82574e-06 -0.000283432 0)
(-1.44166e-05 -0.000305908 0)
(-4.95103e-05 -0.000356647 0)
(-0.000120643 -0.000464448 0)
(-0.000267928 -0.000676017 0)
(-0.000555126 -0.0010372 0)
(-0.000981776 -0.00151153 0)
(-1.77619e-07 1.60387e-07 0)
(1.86077e-06 -1.4896e-06 0)
(5.57707e-06 -1.92619e-06 0)
(9.29686e-06 -1.92132e-06 0)
(1.30098e-05 -1.80725e-06 0)
(1.66297e-05 -1.65889e-06 0)
(2.01621e-05 -1.52219e-06 0)
(2.36335e-05 -1.40063e-06 0)
(2.70612e-05 -1.28728e-06 0)
(3.04551e-05 -1.17654e-06 0)
(3.38226e-05 -1.06324e-06 0)
(3.71695e-05 -9.48377e-07 0)
(4.05011e-05 -8.33012e-07 0)
(4.38255e-05 -7.1644e-07 0)
(4.71507e-05 -5.97731e-07 0)
(5.04831e-05 -4.78315e-07 0)
(5.38297e-05 -3.59959e-07 0)
(5.72075e-05 -2.47228e-07 0)
(6.06297e-05 -1.40893e-07 0)
(6.41081e-05 -4.06481e-08 0)
(6.76616e-05 4.77754e-08 0)
(7.13149e-05 1.21887e-07 0)
(7.50869e-05 1.80719e-07 0)
(7.90014e-05 2.22929e-07 0)
(8.30876e-05 2.42259e-07 0)
(8.73762e-05 2.35571e-07 0)
(9.19008e-05 2.02828e-07 0)
(9.66958e-05 1.39704e-07 0)
(0.0001018 4.08071e-08 0)
(0.000107253 -9.85341e-08 0)
(0.000113104 -2.87197e-07 0)
(0.000119403 -5.33666e-07 0)
(0.000126201 -8.44343e-07 0)
(0.000133557 -1.22954e-06 0)
(0.000141534 -1.70393e-06 0)
(0.000150207 -2.2834e-06 0)
(0.000159654 -2.98366e-06 0)
(0.000169965 -3.82506e-06 0)
(0.00018124 -4.83168e-06 0)
(0.000193591 -6.02722e-06 0)
(0.000207139 -7.43727e-06 0)
(0.000222014 -9.08899e-06 0)
(0.000238354 -1.10054e-05 0)
(0.000256296 -1.32063e-05 0)
(0.000275976 -1.57056e-05 0)
(0.000297516 -1.85062e-05 0)
(0.00032102 -2.15981e-05 0)
(0.000346558 -2.49533e-05 0)
(0.000374156 -2.85211e-05 0)
(0.000403779 -3.22248e-05 0)
(0.000435325 -3.596e-05 0)
(0.000468606 -3.95932e-05 0)
(0.000503348 -4.29714e-05 0)
(0.000539187 -4.59393e-05 0)
(0.000575679 -4.8363e-05 0)
(0.000612313 -5.0153e-05 0)
(0.000648535 -5.12617e-05 0)
(0.000683748 -5.16074e-05 0)
(0.000717238 -5.10054e-05 0)
(0.00074817 -4.92443e-05 0)
(0.000775586 -4.6108e-05 0)
(0.000798393 -4.13787e-05 0)
(0.000815362 -3.48623e-05 0)
(0.000825124 -2.64457e-05 0)
(0.000826146 -1.60534e-05 0)
(0.000817156 -3.71452e-06 0)
(0.000796722 1.07566e-05 0)
(0.000763246 2.74703e-05 0)
(0.000715146 4.64253e-05 0)
(0.000650901 6.75086e-05 0)
(0.000569156 9.04493e-05 0)
(0.00046899 0.000114793 0)
(0.000350175 0.000140169 0)
(0.000212225 0.000166338 0)
(5.1959e-05 0.000192154 0)
(-0.000130922 0.000210273 0)
(-0.00032109 0.000218175 0)
(-0.000513182 0.000217871 0)
(-0.000704255 0.000207343 0)
(-0.000883942 0.000183477 0)
(-0.00103958 0.000145887 0)
(-0.00115952 9.65104e-05 0)
(-0.0012345 4.07548e-05 0)
(-0.00126267 -1.6603e-05 0)
(-0.00124164 -6.9114e-05 0)
(-0.00117973 -0.000109428 0)
(-0.00108858 -0.000134563 0)
(-0.000980672 -0.000145102 0)
(-0.000866885 -0.000144093 0)
(-0.000754853 -0.00013527 0)
(-0.000649117 -0.00012232 0)
(-0.000551839 -0.000108168 0)
(-0.000463486 -9.47661e-05 0)
(-0.000383445 -8.31793e-05 0)
(-0.000310548 -7.37458e-05 0)
(-0.000243516 -6.63089e-05 0)
(-0.000181154 -6.04087e-05 0)
(-0.0001226 -5.56774e-05 0)
(-6.57096e-05 -5.10436e-05 0)
(-3.9124e-06 -4.02138e-05 0)
(-4.53611e-05 -1.1143e-05 0)
(-7.11996e-05 -0.000114743 0)
(-7.45373e-05 -0.000237071 0)
(-6.80796e-05 -0.000347691 0)
(-5.96768e-05 -0.000447199 0)
(-4.99962e-05 -0.000533945 0)
(-3.91586e-05 -0.000606879 0)
(-2.72631e-05 -0.000664881 0)
(-1.47256e-05 -0.000707013 0)
(-2.26108e-06 -0.000732988 0)
(9.35841e-06 -0.000743492 0)
(1.92608e-05 -0.000739902 0)
(2.6666e-05 -0.000724584 0)
(3.10421e-05 -0.000700747 0)
(3.22928e-05 -0.000671855 0)
(3.06083e-05 -0.000641373 0)
(2.6389e-05 -0.000612399 0)
(2.01948e-05 -0.000587451 0)
(1.25947e-05 -0.000568433 0)
(4.05235e-06 -0.000556709 0)
(-5.16368e-06 -0.000553214 0)
(-1.50098e-05 -0.000558681 0)
(-2.5633e-05 -0.000573882 0)
(-3.71903e-05 -0.000599581 0)
(-4.98355e-05 -0.000636621 0)
(-6.35791e-05 -0.000685944 0)
(-7.81134e-05 -0.000748437 0)
(-9.26012e-05 -0.000824545 0)
(-0.000105713 -0.000913739 0)
(-0.000115502 -0.00101414 0)
(-0.000119921 -0.00112171 0)
(-0.00011707 -0.00123156 0)
(-0.000104745 -0.00133543 0)
(-8.33977e-05 -0.00142632 0)
(-4.95428e-05 -0.00149598 0)
(-4.86953e-06 -0.00152893 0)
(3.69755e-05 -0.00152422 0)
(8.37752e-05 -0.00149103 0)
(0.000142081 -0.00141482 0)
(0.000189309 -0.00128488 0)
(0.000214029 -0.00112727 0)
(0.000237185 -0.00096143 0)
(0.000261964 -0.000771917 0)
(0.00026399 -0.000557708 0)
(0.000249319 -0.000349348 0)
(0.00024731 -0.000152019 0)
(0.000243466 4.97591e-05 0)
(0.000211516 0.000232456 0)
(0.00015778 0.000372442 0)
(5.86174e-05 0.000475743 0)
(-0.000105223 0.000509738 0)
(-0.000255107 0.000435991 0)
(-0.000305805 0.000305699 0)
(-0.000274596 0.000186903 0)
(-0.000212098 0.000106683 0)
(-0.000177273 6.6198e-05 0)
(-0.000201171 2.79011e-05 0)
(-0.000256296 6.58172e-06 0)
(-0.000310077 6.69277e-05 0)
(-0.000333148 0.000160305 0)
(-0.00024147 0.000222292 0)
(7.1511e-05 0.000325575 0)
(0.000635945 0.000584183 0)
(0.00103037 0.00114305 0)
(0.00085821 0.00183883 0)
(0.000407623 0.0020479 0)
(0.000349494 0.00207354 0)
(0.000362317 0.00226269 0)
(0.000242475 0.00241534 0)
(0.000207721 0.00248167 0)
(0.000197866 0.00257775 0)
(0.000151176 0.00265625 0)
(0.000135897 0.00270697 0)
(0.000122985 0.00276376 0)
(0.000101922 0.00280846 0)
(9.28837e-05 0.00284362 0)
(8.2137e-05 0.00287804 0)
(7.07204e-05 0.00290497 0)
(6.32016e-05 0.00292752 0)
(5.43015e-05 0.00294727 0)
(4.57581e-05 0.00296208 0)
(3.7953e-05 0.00297342 0)
(2.92459e-05 0.00298106 0)
(2.04239e-05 0.00298423 0)
(1.11046e-05 0.00298304 0)
(8.74302e-07 0.00297684 0)
(-1.06255e-05 0.00296502 0)
(-2.4583e-05 0.00294629 0)
(-4.22235e-05 0.00291865 0)
(-6.52171e-05 0.0028795 0)
(-9.56852e-05 0.00282524 0)
(-0.00013549 0.00275111 0)
(-0.000185295 0.00265147 0)
(-0.000242888 0.00252079 0)
(-0.000301702 0.0023564 0)
(-0.000352032 0.00216288 0)
(-0.000386784 0.00195451 0)
(-0.000405731 0.00175 0)
(-0.000407371 0.0015671 0)
(-0.000380289 0.00144091 0)
(-0.000330933 0.00144029 0)
(-0.000325966 0.00161026 0)
(-0.000410932 0.00187154 0)
(-0.000492169 0.00204634 0)
(-0.000332386 0.00205002 0)
(0.000873017 0.00338709 0)
(0.00373077 0.00399176 0)
(0.00334339 0.0038835 0)
(0.00318488 0.00637061 0)
(0.00184594 0.00675077 0)
(0.00142246 0.00635894 0)
(0.00128255 0.00680823 0)
(0.00082766 0.00713743 0)
(0.000564683 0.00711327 0)
(0.000407075 0.00721098 0)
(0.000176753 0.00725526 0)
(3.14599e-05 0.00718666 0)
(-7.2369e-05 0.00713818 0)
(-0.000183598 0.00706103 0)
(-0.000257682 0.00694857 0)
(-0.000317033 0.00683721 0)
(-0.000370294 0.00670977 0)
(-0.000405622 0.00657162 0)
(-0.00043318 0.00643286 0)
(-0.000453578 0.00628874 0)
(-0.000464616 0.00614374 0)
(-0.000470086 0.00600088 0)
(-0.000469729 0.00585974 0)
(-0.000463552 0.00572299 0)
(-0.000453002 0.00559204 0)
(-0.000438168 0.00546755 0)
(-0.000419538 0.00535103 0)
(-0.000397936 0.00524329 0)
(-0.000373753 0.00514487 0)
(-0.00034752 0.0050564 0)
(-0.000319784 0.00497817 0)
(-0.000290892 0.00491032 0)
(-0.000261153 0.00485297 0)
(-0.000230793 0.00480604 0)
(-0.000199931 0.00476938 0)
(-0.000168356 0.00474255 0)
(-0.000135045 0.00472497 0)
(-9.95454e-05 0.0047161 0)
(-6.06286e-05 0.00471488 0)
(-1.57996e-05 0.0047223 0)
(3.55462e-05 0.00474075 0)
(9.20335e-05 0.0047711 0)
(0.000152475 0.00481358 0)
(0.000215531 0.00486844 0)
(0.000279479 0.00493582 0)
(0.000342385 0.00501536 0)
(0.000402464 0.00510608 0)
(0.000458332 0.00520644 0)
(0.000508986 0.00531475 0)
(0.000553503 0.00542948 0)
(0.000590728 0.00554933 0)
(0.000619238 0.00567289 0)
(0.00063776 0.00579797 0)
(0.000645897 0.00592136 0)
(0.000644771 0.00603941 0)
(0.000636889 0.00614936 0)
(0.000625172 0.00625048 0)
(0.000611776 0.00634409 0)
(0.000597389 0.00643254 0)
(0.000581351 0.0065177 0)
(0.000562318 0.00660027 0)
(0.000538858 0.00668013 0)
(0.00050961 0.00675696 0)
(0.000473203 0.00683058 0)
(0.000428119 0.00690087 0)
(0.00037248 0.00696745 0)
(0.000304093 0.00702913 0)
(0.000221374 0.00708364 0)
(0.000124511 0.00712774 0)
(1.54161e-05 0.00715849 0)
(-0.000102998 0.00717398 0)
(-0.000230375 0.00717384 0)
(-0.000365325 0.0071559 0)
(-0.000504763 0.00712049 0)
(-0.000647115 0.0070678 0)
(-0.000790733 0.00699896 0)
(-0.000934994 0.00691507 0)
(-0.00107966 0.0068173 0)
(-0.00122508 0.00670668 0)
(-0.00137198 0.00658416 0)
(-0.0015214 0.00645063 0)
(-0.00167471 0.00630701 0)
(-0.00183367 0.00615426 0)
(-0.00200058 0.00599334 0)
(-0.0021783 0.0058251 0)
(-0.00237001 0.00565017 0)
(-0.00257845 0.00546881 0)
(-0.00280533 0.00528108 0)
(-0.00305262 0.00508725 0)
(-0.00332752 0.00488789 0)
(-0.00364875 0.00468203 0)
(-0.00404369 0.00446604 0)
(-0.0045118 0.00423473 0)
(-0.0049073 0.0039749 0)
(-0.00516061 0.00389854 0)
)
;
    }
    frontAndBack
    {
        type            empty;
    }
}


// ************************************************************************* //
