/*--------------------------------*- C++ -*----------------------------------*\
  =========                 |
  \\      /  F ield         | OpenFOAM: The Open Source CFD Toolbox
   \\    /   O peration     | Website:  https://openfoam.org
    \\  /    A nd           | Version:  7
     \\/     M anipulation  |
\*---------------------------------------------------------------------------*/
FoamFile
{
    version     2.0;
    format      ascii;
    class       volScalarField;
    location    "0.1";
    object      k;
}
// * * * * * * * * * * * * * * * * * * * * * * * * * * * * * * * * * * * * * //

dimensions      [0 2 -2 0 0 0 0];

internalField   nonuniform List<scalar> 
70000
(
1.08549e-05
4.21882e-06
2.82445e-06
2.31697e-06
1.99772e-06
1.75749e-06
1.56557e-06
1.40882e-06
1.27811e-06
1.16752e-06
1.07266e-06
9.90717e-07
9.19239e-07
8.56595e-07
8.01283e-07
7.52224e-07
7.0845e-07
6.69203e-07
6.33868e-07
6.01915e-07
5.72924e-07
5.46537e-07
5.22408e-07
5.00347e-07
4.8e-07
4.61357e-07
4.44002e-07
4.28092e-07
4.1314e-07
3.99451e-07
3.86458e-07
3.74614e-07
3.63215e-07
3.52965e-07
3.42815e-07
3.34035e-07
3.24778e-07
3.17457e-07
3.08746e-07
3.02901e-07
2.94445e-07
2.90406e-07
2.82188e-07
2.79785e-07
2.71845e-07
2.72657e-07
2.64958e-07
2.80588e-07
2.70084e-07
2.83801e-07
1.72795e-05
1.13674e-05
8.52077e-06
7.01085e-06
6.0378e-06
5.31182e-06
4.73256e-06
4.25915e-06
3.86435e-06
3.53034e-06
3.24388e-06
2.9964e-06
2.78054e-06
2.5913e-06
2.42422e-06
2.27598e-06
2.14372e-06
2.0251e-06
1.9183e-06
1.82172e-06
1.73408e-06
1.65432e-06
1.58136e-06
1.51467e-06
1.45314e-06
1.39676e-06
1.34428e-06
1.29615e-06
1.25095e-06
1.20952e-06
1.17023e-06
1.13438e-06
1.0999e-06
1.06888e-06
1.03814e-06
1.01161e-06
9.83536e-07
9.61427e-07
9.35012e-07
9.17338e-07
8.91692e-07
8.79395e-07
8.54473e-07
8.46126e-07
8.22941e-07
8.21603e-07
8.01396e-07
8.3217e-07
8.16766e-07
8.38895e-07
1.93701e-05
1.61298e-05
1.32913e-05
1.12901e-05
9.82924e-06
8.69718e-06
7.77977e-06
7.02253e-06
6.38642e-06
5.84551e-06
5.38001e-06
4.97658e-06
4.62387e-06
4.31392e-06
4.03979e-06
3.79604e-06
3.57824e-06
3.3826e-06
3.20623e-06
3.04656e-06
2.9015e-06
2.7694e-06
2.64843e-06
2.53779e-06
2.43563e-06
2.34194e-06
2.25472e-06
2.17458e-06
2.09939e-06
2.03029e-06
1.9649e-06
1.90504e-06
1.84755e-06
1.79578e-06
1.7444e-06
1.70014e-06
1.65315e-06
1.61619e-06
1.57205e-06
1.54233e-06
1.49964e-06
1.4782e-06
1.43684e-06
1.42119e-06
1.38335e-06
1.37626e-06
1.34383e-06
1.37211e-06
1.37167e-06
1.38307e-06
1.9861e-05
1.826e-05
1.60857e-05
1.42006e-05
1.26407e-05
1.13496e-05
1.0262e-05
9.34025e-06
8.54931e-06
7.86649e-06
7.2725e-06
6.75304e-06
6.2956e-06
5.89092e-06
5.53106e-06
5.20931e-06
4.92052e-06
4.66e-06
4.42431e-06
4.21033e-06
4.01531e-06
3.83734e-06
3.67391e-06
3.52414e-06
3.38559e-06
3.25819e-06
3.13955e-06
3.0301e-06
2.92758e-06
2.83286e-06
2.74348e-06
2.66121e-06
2.58239e-06
2.51112e-06
2.44046e-06
2.3794e-06
2.31469e-06
2.26342e-06
2.20282e-06
2.16102e-06
2.10297e-06
2.07067e-06
2.01512e-06
1.99112e-06
1.93924e-06
1.92453e-06
1.87922e-06
1.89093e-06
1.91246e-06
1.90685e-06
1.99707e-05
1.78458e-05
1.60748e-05
1.47665e-05
1.36025e-05
1.25377e-05
1.15696e-05
1.07023e-05
9.92182e-06
9.22648e-06
8.60716e-06
8.05448e-06
7.5597e-06
7.1156e-06
6.71571e-06
6.3539e-06
6.02597e-06
5.72754e-06
5.45557e-06
5.2071e-06
4.97924e-06
4.77022e-06
4.57732e-06
4.39963e-06
4.23479e-06
4.08227e-06
3.94016e-06
3.80806e-06
3.68459e-06
3.56951e-06
3.46131e-06
3.36083e-06
3.26492e-06
3.17747e-06
3.09115e-06
3.01573e-06
2.93663e-06
2.87258e-06
2.79879e-06
2.74553e-06
2.67557e-06
2.63248e-06
2.56574e-06
2.53308e-06
2.46873e-06
2.44627e-06
2.38996e-06
2.38565e-06
2.39915e-06
2.38411e-06
2.00095e-05
1.47039e-05
1.37474e-05
1.32104e-05
1.25906e-05
1.19264e-05
1.12771e-05
1.06568e-05
1.00798e-05
9.54567e-06
9.04568e-06
8.5791e-06
8.14647e-06
7.74619e-06
7.37582e-06
7.03271e-06
6.71571e-06
6.42257e-06
6.15175e-06
5.90126e-06
5.66889e-06
5.45347e-06
5.25291e-06
5.06627e-06
4.89227e-06
4.72938e-06
4.57742e-06
4.43438e-06
4.30099e-06
4.17499e-06
4.05703e-06
3.94594e-06
3.84054e-06
3.74289e-06
3.64751e-06
3.56226e-06
3.47477e-06
3.4011e-06
3.31977e-06
3.25691e-06
3.18059e-06
3.12753e-06
3.05556e-06
3.01228e-06
2.94286e-06
2.912e-06
2.85206e-06
2.82259e-06
2.82405e-06
2.79956e-06
2.01331e-05
1.54687e-05
9.63468e-06
9.39715e-06
9.49138e-06
9.49043e-06
9.4315e-06
9.29264e-06
9.05225e-06
8.77833e-06
8.48368e-06
8.18598e-06
7.89484e-06
7.61093e-06
7.33495e-06
7.07336e-06
6.82687e-06
6.59213e-06
6.3696e-06
6.15841e-06
5.95815e-06
5.76849e-06
5.58911e-06
5.41901e-06
5.25894e-06
5.10589e-06
4.96277e-06
4.82542e-06
4.69756e-06
4.57427e-06
4.45943e-06
4.34883e-06
4.24489e-06
4.14596e-06
4.05109e-06
3.963e-06
3.87565e-06
3.79769e-06
3.71669e-06
3.64792e-06
3.57278e-06
3.51188e-06
3.44251e-06
3.3888e-06
3.32447e-06
3.27808e-06
3.22711e-06
3.17702e-06
3.16796e-06
3.12911e-06
2.01712e-05
1.86766e-05
8.69558e-06
5.54012e-06
5.62972e-06
5.9327e-06
6.2901e-06
6.57458e-06
6.75335e-06
6.86136e-06
6.87997e-06
6.8602e-06
6.80775e-06
6.71825e-06
6.60757e-06
6.48524e-06
6.34787e-06
6.2054e-06
6.06329e-06
5.92096e-06
5.78098e-06
5.64335e-06
5.51012e-06
5.37991e-06
5.25504e-06
5.13366e-06
5.02028e-06
4.9079e-06
4.80326e-06
4.69886e-06
4.6021e-06
4.50548e-06
4.41593e-06
4.3269e-06
4.24385e-06
4.16218e-06
4.08499e-06
4.0103e-06
3.93863e-06
3.86996e-06
3.80418e-06
3.74021e-06
3.68101e-06
3.62062e-06
3.56839e-06
3.51035e-06
3.47037e-06
3.40946e-06
3.39443e-06
3.34647e-06
2.01671e-05
1.97241e-05
1.61695e-05
4.8649e-06
3.04254e-06
3.10507e-06
3.37278e-06
3.80179e-06
4.16653e-06
4.48312e-06
4.72941e-06
4.91748e-06
5.05724e-06
5.15595e-06
5.2136e-06
5.24845e-06
5.25069e-06
5.2416e-06
5.21902e-06
5.17908e-06
5.13145e-06
5.07496e-06
5.01536e-06
4.94939e-06
4.88333e-06
4.81188e-06
4.74214e-06
4.66774e-06
4.59783e-06
4.52413e-06
4.45599e-06
4.38429e-06
4.31888e-06
4.24976e-06
4.18749e-06
4.1214e-06
4.06251e-06
3.99946e-06
3.94451e-06
3.8842e-06
3.83445e-06
3.77567e-06
3.73143e-06
3.67322e-06
3.63498e-06
3.57648e-06
3.54604e-06
3.48574e-06
3.4684e-06
3.42835e-06
2.01476e-05
1.99343e-05
1.90663e-05
1.45026e-05
5.2503e-06
2.15587e-06
1.91444e-06
1.99293e-06
2.20509e-06
2.50233e-06
2.7771e-06
3.02835e-06
3.25184e-06
3.4467e-06
3.60887e-06
3.7454e-06
3.85536e-06
3.94201e-06
4.01227e-06
4.0629e-06
4.10099e-06
4.12324e-06
4.13849e-06
4.1396e-06
4.13638e-06
4.1269e-06
4.11326e-06
4.09121e-06
4.06935e-06
4.04034e-06
4.01275e-06
3.97893e-06
3.9479e-06
3.91034e-06
3.87788e-06
3.83781e-06
3.80491e-06
3.76317e-06
3.73069e-06
3.68736e-06
3.6558e-06
3.61084e-06
3.58161e-06
3.53535e-06
3.50887e-06
3.46161e-06
3.43774e-06
3.38956e-06
3.36891e-06
3.34227e-06
2.01216e-05
1.99661e-05
1.96427e-05
1.85477e-05
1.5218e-05
8.37247e-06
3.11473e-06
1.63457e-06
1.44256e-06
1.4488e-06
1.5246e-06
1.68363e-06
1.86451e-06
2.03961e-06
2.20807e-06
2.36508e-06
2.51065e-06
2.63933e-06
2.75623e-06
2.85733e-06
2.94794e-06
3.02377e-06
3.0913e-06
3.14599e-06
3.1936e-06
3.23096e-06
3.26397e-06
3.28745e-06
3.30769e-06
3.32048e-06
3.33028e-06
3.33512e-06
3.33587e-06
3.33405e-06
3.33028e-06
3.32149e-06
3.31449e-06
3.29997e-06
3.29054e-06
3.27165e-06
3.26046e-06
3.2383e-06
3.22558e-06
3.20047e-06
3.18669e-06
3.15922e-06
3.14445e-06
3.11459e-06
3.09794e-06
3.08039e-06
2.00981e-05
1.99327e-05
1.97576e-05
1.93533e-05
1.85083e-05
1.65423e-05
1.23428e-05
6.88068e-06
3.00229e-06
1.49715e-06
1.2439e-06
1.14734e-06
1.15067e-06
1.19178e-06
1.28244e-06
1.38721e-06
1.49854e-06
1.60582e-06
1.71451e-06
1.81678e-06
1.91557e-06
2.00577e-06
2.09141e-06
2.16801e-06
2.24033e-06
2.3036e-06
2.36333e-06
2.41476e-06
2.46288e-06
2.50377e-06
2.54174e-06
2.5733e-06
2.60277e-06
2.62569e-06
2.64833e-06
2.66392e-06
2.68054e-06
2.69006e-06
2.70115e-06
2.70593e-06
2.7117e-06
2.71321e-06
2.71337e-06
2.71167e-06
2.70926e-06
2.70291e-06
2.69813e-06
2.68666e-06
2.68021e-06
2.6707e-06
2.00781e-05
1.98876e-05
1.97571e-05
1.94617e-05
1.91471e-05
1.86434e-05
1.75613e-05
1.54369e-05
1.17651e-05
7.47814e-06
4.01128e-06
1.93097e-06
1.21277e-06
1.05793e-06
9.83085e-07
9.41052e-07
9.51223e-07
9.82933e-07
1.0442e-06
1.10581e-06
1.17373e-06
1.24121e-06
1.31062e-06
1.37784e-06
1.44558e-06
1.50834e-06
1.57071e-06
1.62746e-06
1.68336e-06
1.73363e-06
1.78305e-06
1.82658e-06
1.86963e-06
1.90664e-06
1.94339e-06
1.97441e-06
2.00526e-06
2.03079e-06
2.0561e-06
2.07663e-06
2.09686e-06
2.11262e-06
2.12849e-06
2.13928e-06
2.15136e-06
2.15742e-06
2.16562e-06
2.16716e-06
2.17035e-06
2.16913e-06
2.00613e-05
1.98539e-05
1.97346e-05
1.94719e-05
1.92564e-05
1.90485e-05
1.87383e-05
1.8195e-05
1.71066e-05
1.52496e-05
1.25995e-05
9.2819e-06
6.02526e-06
3.52326e-06
1.91118e-06
1.17913e-06
9.67198e-07
8.91857e-07
8.38083e-07
7.94986e-07
7.956e-07
8.07373e-07
8.35e-07
8.71573e-07
9.10992e-07
9.50737e-07
9.94238e-07
1.03611e-06
1.08085e-06
1.12314e-06
1.16693e-06
1.20715e-06
1.24824e-06
1.28562e-06
1.3233e-06
1.35743e-06
1.39157e-06
1.42211e-06
1.45259e-06
1.47931e-06
1.50615e-06
1.52875e-06
1.55207e-06
1.57064e-06
1.59006e-06
1.60467e-06
1.62e-06
1.63071e-06
1.64067e-06
1.64859e-06
2.00475e-05
1.98304e-05
1.9708e-05
1.94498e-05
1.92733e-05
1.91163e-05
1.8967e-05
1.87526e-05
1.84658e-05
1.79191e-05
1.7089e-05
1.57241e-05
1.39181e-05
1.15889e-05
8.92787e-06
6.32897e-06
4.1506e-06
2.56543e-06
1.54612e-06
1.04864e-06
8.68505e-07
8.0176e-07
7.5402e-07
7.12642e-07
6.8211e-07
6.75068e-07
6.7983e-07
6.91617e-07
7.12749e-07
7.34193e-07
7.5861e-07
7.82003e-07
8.0833e-07
8.34037e-07
8.61381e-07
8.87789e-07
9.15238e-07
9.41014e-07
9.6729e-07
9.91475e-07
1.01598e-06
1.03793e-06
1.06041e-06
1.08009e-06
1.09986e-06
1.11696e-06
1.13373e-06
1.14801e-06
1.16064e-06
1.17192e-06
2.00362e-05
1.98125e-05
1.96855e-05
1.94196e-05
1.92593e-05
1.911e-05
1.90019e-05
1.88512e-05
1.87144e-05
1.85039e-05
1.82525e-05
1.78403e-05
1.72459e-05
1.63834e-05
1.51993e-05
1.36791e-05
1.18957e-05
9.83609e-06
7.70886e-06
5.71836e-06
4.02784e-06
2.73357e-06
1.79608e-06
1.20504e-06
9.03438e-07
7.74223e-07
7.16487e-07
6.78662e-07
6.44066e-07
6.12408e-07
5.91087e-07
5.79027e-07
5.79778e-07
5.83793e-07
5.92603e-07
6.04007e-07
6.17209e-07
6.30112e-07
6.44121e-07
6.57859e-07
6.72543e-07
6.87106e-07
7.0215e-07
7.16886e-07
7.31365e-07
7.45412e-07
7.58686e-07
7.71277e-07
7.8223e-07
7.92606e-07
2.00271e-05
1.97987e-05
1.96663e-05
1.93977e-05
1.92337e-05
1.90826e-05
1.8984e-05
1.88544e-05
1.87388e-05
1.85986e-05
1.84635e-05
1.82928e-05
1.80874e-05
1.78021e-05
1.74228e-05
1.68852e-05
1.619e-05
1.52831e-05
1.41648e-05
1.28427e-05
1.13732e-05
9.74075e-06
8.05524e-06
6.4291e-06
4.94881e-06
3.69291e-06
2.69267e-06
1.91813e-06
1.3588e-06
1.00035e-06
8.01172e-07
7.00331e-07
6.48924e-07
6.15733e-07
5.88959e-07
5.62563e-07
5.38863e-07
5.1918e-07
5.06491e-07
4.98512e-07
4.97311e-07
4.98538e-07
5.01473e-07
5.06989e-07
5.12034e-07
5.18712e-07
5.23848e-07
5.30316e-07
5.34758e-07
5.4038e-07
2.002e-05
1.97901e-05
1.96462e-05
1.93813e-05
1.92098e-05
1.90536e-05
1.89462e-05
1.88281e-05
1.87173e-05
1.8592e-05
1.8475e-05
1.83485e-05
1.82253e-05
1.80824e-05
1.79278e-05
1.77306e-05
1.74908e-05
1.71771e-05
1.6781e-05
1.62707e-05
1.56488e-05
1.48917e-05
1.39979e-05
1.29737e-05
1.18457e-05
1.06324e-05
9.33504e-06
8.0161e-06
6.72631e-06
5.52057e-06
4.42965e-06
3.49062e-06
2.71412e-06
2.08019e-06
1.57729e-06
1.20021e-06
9.37808e-07
7.70779e-07
6.70793e-07
6.12637e-07
5.76987e-07
5.52197e-07
5.31024e-07
5.12847e-07
4.94009e-07
4.78333e-07
4.61777e-07
4.51309e-07
4.38972e-07
4.34246e-07
2.00144e-05
1.97901e-05
1.962e-05
1.9368e-05
1.91894e-05
1.90271e-05
1.89103e-05
1.87922e-05
1.86773e-05
1.85568e-05
1.84443e-05
1.83273e-05
1.82153e-05
1.80976e-05
1.7984e-05
1.78637e-05
1.77398e-05
1.76e-05
1.74423e-05
1.72534e-05
1.7027e-05
1.67523e-05
1.64182e-05
1.60157e-05
1.55369e-05
1.498e-05
1.43391e-05
1.36117e-05
1.28074e-05
1.19327e-05
1.10095e-05
1.00431e-05
9.0361e-06
8.02165e-06
7.02431e-06
6.07107e-06
5.17876e-06
4.36945e-06
3.64152e-06
3.01932e-06
2.48795e-06
2.03913e-06
1.66452e-06
1.35997e-06
1.11956e-06
9.37738e-07
8.0288e-07
7.10131e-07
6.37871e-07
5.97826e-07
2.00102e-05
1.97942e-05
1.95932e-05
1.93543e-05
1.91706e-05
1.90019e-05
1.88769e-05
1.87567e-05
1.86374e-05
1.85147e-05
1.83984e-05
1.8282e-05
1.81703e-05
1.80599e-05
1.79516e-05
1.78446e-05
1.7737e-05
1.76306e-05
1.7523e-05
1.74137e-05
1.72975e-05
1.71731e-05
1.70331e-05
1.68753e-05
1.66928e-05
1.6481e-05
1.62358e-05
1.59512e-05
1.56219e-05
1.52467e-05
1.48217e-05
1.43482e-05
1.38249e-05
1.32514e-05
1.26334e-05
1.19746e-05
1.12882e-05
1.05727e-05
9.85145e-06
9.11296e-06
8.36847e-06
7.63948e-06
6.92876e-06
6.25735e-06
5.62054e-06
5.04143e-06
4.50458e-06
4.04029e-06
3.60041e-06
3.23153e-06
2.0007e-05
1.98017e-05
1.95685e-05
1.93411e-05
1.9153e-05
1.89784e-05
1.8845e-05
1.87227e-05
1.85987e-05
1.84737e-05
1.83522e-05
1.82343e-05
1.81183e-05
1.80064e-05
1.78956e-05
1.77892e-05
1.76845e-05
1.75845e-05
1.74834e-05
1.73869e-05
1.72878e-05
1.71918e-05
1.70931e-05
1.69958e-05
1.68942e-05
1.67883e-05
1.66752e-05
1.65539e-05
1.64168e-05
1.62683e-05
1.60998e-05
1.59119e-05
1.57021e-05
1.54687e-05
1.52066e-05
1.49195e-05
1.46054e-05
1.42615e-05
1.38916e-05
1.3501e-05
1.30793e-05
1.26449e-05
1.2182e-05
1.17202e-05
1.12348e-05
1.07609e-05
1.02792e-05
9.82085e-06
9.3562e-06
8.92283e-06
2.00047e-05
1.98103e-05
1.95455e-05
1.9328e-05
1.9136e-05
1.89564e-05
1.88144e-05
1.86898e-05
1.85618e-05
1.84341e-05
1.83078e-05
1.81875e-05
1.80671e-05
1.7953e-05
1.78384e-05
1.77301e-05
1.76211e-05
1.75193e-05
1.74157e-05
1.73191e-05
1.72214e-05
1.7131e-05
1.70375e-05
1.69497e-05
1.68606e-05
1.67733e-05
1.66848e-05
1.66001e-05
1.651e-05
1.64244e-05
1.63328e-05
1.62392e-05
1.61405e-05
1.60382e-05
1.59229e-05
1.58043e-05
1.56757e-05
1.55331e-05
1.53806e-05
1.52195e-05
1.50402e-05
1.48542e-05
1.46479e-05
1.44414e-05
1.42098e-05
1.39778e-05
1.37365e-05
1.3489e-05
1.32335e-05
1.29826e-05
2.0003e-05
1.98193e-05
1.95242e-05
1.93144e-05
1.91192e-05
1.8936e-05
1.87852e-05
1.8658e-05
1.85266e-05
1.83963e-05
1.82656e-05
1.81426e-05
1.80182e-05
1.79016e-05
1.77832e-05
1.76725e-05
1.756e-05
1.74559e-05
1.73486e-05
1.72499e-05
1.71482e-05
1.7055e-05
1.69581e-05
1.68688e-05
1.67783e-05
1.66922e-05
1.66079e-05
1.65287e-05
1.64449e-05
1.63694e-05
1.62906e-05
1.62146e-05
1.61375e-05
1.60644e-05
1.59849e-05
1.59124e-05
1.58389e-05
1.576e-05
1.56819e-05
1.56049e-05
1.55204e-05
1.54356e-05
1.53443e-05
1.52563e-05
1.51529e-05
1.50531e-05
1.49501e-05
1.48393e-05
1.47233e-05
1.46094e-05
2.00017e-05
1.98278e-05
1.95048e-05
1.92997e-05
1.91021e-05
1.89169e-05
1.87577e-05
1.86275e-05
1.84933e-05
1.83604e-05
1.82261e-05
1.81002e-05
1.79723e-05
1.78531e-05
1.77313e-05
1.76179e-05
1.75024e-05
1.73959e-05
1.72854e-05
1.71844e-05
1.70797e-05
1.69838e-05
1.68836e-05
1.67915e-05
1.66978e-05
1.66081e-05
1.65198e-05
1.64374e-05
1.63507e-05
1.62728e-05
1.61928e-05
1.61173e-05
1.60432e-05
1.59748e-05
1.58999e-05
1.58349e-05
1.57698e-05
1.57029e-05
1.56381e-05
1.55792e-05
1.55146e-05
1.54538e-05
1.53926e-05
1.53373e-05
1.52722e-05
1.52155e-05
1.51577e-05
1.50974e-05
1.50316e-05
1.49719e-05
2.00009e-05
1.98305e-05
1.94887e-05
1.92846e-05
1.90853e-05
1.88997e-05
1.87322e-05
1.85986e-05
1.84623e-05
1.83271e-05
1.81896e-05
1.80609e-05
1.79301e-05
1.78083e-05
1.76837e-05
1.75677e-05
1.74496e-05
1.73406e-05
1.72274e-05
1.71241e-05
1.70168e-05
1.69186e-05
1.68156e-05
1.67212e-05
1.66246e-05
1.65323e-05
1.6441e-05
1.63556e-05
1.62657e-05
1.61845e-05
1.6101e-05
1.60225e-05
1.59436e-05
1.58715e-05
1.57934e-05
1.57259e-05
1.56581e-05
1.55906e-05
1.55242e-05
1.54672e-05
1.5405e-05
1.53483e-05
1.52915e-05
1.5241e-05
1.5182e-05
1.51334e-05
1.5083e-05
1.50334e-05
1.49769e-05
1.4929e-05
2.00003e-05
1.98289e-05
1.94755e-05
1.92688e-05
1.90683e-05
1.88842e-05
1.87093e-05
1.85718e-05
1.84338e-05
1.82968e-05
1.81567e-05
1.80254e-05
1.7892e-05
1.7768e-05
1.7641e-05
1.75226e-05
1.74022e-05
1.72912e-05
1.71755e-05
1.70701e-05
1.69607e-05
1.68603e-05
1.67549e-05
1.66586e-05
1.65594e-05
1.64652e-05
1.63712e-05
1.62838e-05
1.61914e-05
1.61076e-05
1.60211e-05
1.59409e-05
1.58583e-05
1.57833e-05
1.57023e-05
1.56317e-05
1.55601e-05
1.54908e-05
1.54202e-05
1.53604e-05
1.52944e-05
1.52351e-05
1.51751e-05
1.51222e-05
1.50614e-05
1.5012e-05
1.49598e-05
1.49101e-05
1.48526e-05
1.48054e-05
2e-05
1.98271e-05
1.94644e-05
1.92514e-05
1.90506e-05
1.88701e-05
1.86887e-05
1.85473e-05
1.84079e-05
1.82697e-05
1.81275e-05
1.79941e-05
1.78587e-05
1.77328e-05
1.76038e-05
1.74836e-05
1.73612e-05
1.72485e-05
1.71307e-05
1.70236e-05
1.69125e-05
1.68101e-05
1.67027e-05
1.66048e-05
1.65033e-05
1.64077e-05
1.63113e-05
1.62223e-05
1.61279e-05
1.6042e-05
1.59531e-05
1.58718e-05
1.57862e-05
1.57092e-05
1.56263e-05
1.55534e-05
1.5479e-05
1.54084e-05
1.5335e-05
1.52728e-05
1.52046e-05
1.51433e-05
1.50805e-05
1.5025e-05
1.49622e-05
1.4911e-05
1.48559e-05
1.48043e-05
1.47446e-05
1.46958e-05
1.99999e-05
1.98259e-05
1.94562e-05
1.92336e-05
1.90329e-05
1.88577e-05
1.86711e-05
1.85255e-05
1.8385e-05
1.82463e-05
1.81026e-05
1.79677e-05
1.78306e-05
1.77035e-05
1.75728e-05
1.74515e-05
1.73274e-05
1.72134e-05
1.70941e-05
1.69856e-05
1.68732e-05
1.67693e-05
1.66603e-05
1.6561e-05
1.64577e-05
1.6361e-05
1.62625e-05
1.61722e-05
1.6076e-05
1.59884e-05
1.58978e-05
1.58154e-05
1.57274e-05
1.56489e-05
1.55646e-05
1.549e-05
1.54135e-05
1.53421e-05
1.52668e-05
1.5203e-05
1.51333e-05
1.50708e-05
1.50064e-05
1.49493e-05
1.48852e-05
1.48331e-05
1.47762e-05
1.47231e-05
1.46622e-05
1.46128e-05
1.99999e-05
1.98251e-05
1.94509e-05
1.92166e-05
1.90161e-05
1.88473e-05
1.86573e-05
1.85074e-05
1.83658e-05
1.82274e-05
1.80827e-05
1.79467e-05
1.78087e-05
1.76807e-05
1.75489e-05
1.74269e-05
1.73017e-05
1.71869e-05
1.70666e-05
1.69571e-05
1.68438e-05
1.6739e-05
1.66287e-05
1.65284e-05
1.64237e-05
1.63262e-05
1.62261e-05
1.61347e-05
1.60372e-05
1.59482e-05
1.58563e-05
1.57728e-05
1.56829e-05
1.56035e-05
1.55178e-05
1.5442e-05
1.53637e-05
1.52917e-05
1.52155e-05
1.51503e-05
1.50794e-05
1.50164e-05
1.49511e-05
1.48929e-05
1.48282e-05
1.47758e-05
1.47178e-05
1.4664e-05
1.46027e-05
1.45537e-05
1.99999e-05
1.98247e-05
1.94483e-05
1.92011e-05
1.90006e-05
1.88388e-05
1.86477e-05
1.84935e-05
1.83509e-05
1.82132e-05
1.80683e-05
1.79319e-05
1.77934e-05
1.7665e-05
1.75327e-05
1.74107e-05
1.72848e-05
1.71698e-05
1.7049e-05
1.69392e-05
1.68254e-05
1.67201e-05
1.66092e-05
1.65082e-05
1.64027e-05
1.63046e-05
1.62035e-05
1.61113e-05
1.60128e-05
1.59228e-05
1.583e-05
1.57455e-05
1.5654e-05
1.5574e-05
1.54872e-05
1.54105e-05
1.53309e-05
1.52584e-05
1.51817e-05
1.51154e-05
1.50436e-05
1.49804e-05
1.49147e-05
1.48559e-05
1.47907e-05
1.47384e-05
1.46801e-05
1.46259e-05
1.45646e-05
1.45168e-05
1.99999e-05
1.98248e-05
1.94483e-05
1.9188e-05
1.89871e-05
1.8832e-05
1.86423e-05
1.84841e-05
1.83405e-05
1.82042e-05
1.80598e-05
1.79236e-05
1.77851e-05
1.7657e-05
1.75247e-05
1.74032e-05
1.72774e-05
1.71626e-05
1.70421e-05
1.69325e-05
1.68188e-05
1.67137e-05
1.66026e-05
1.65014e-05
1.63956e-05
1.62974e-05
1.61957e-05
1.61031e-05
1.6004e-05
1.59134e-05
1.58201e-05
1.57349e-05
1.56423e-05
1.55619e-05
1.54744e-05
1.5397e-05
1.53163e-05
1.52437e-05
1.51668e-05
1.50996e-05
1.50271e-05
1.49641e-05
1.48984e-05
1.4839e-05
1.47737e-05
1.47219e-05
1.46635e-05
1.46092e-05
1.45484e-05
1.45022e-05
1.99999e-05
1.98253e-05
1.94504e-05
1.91775e-05
1.89757e-05
1.88267e-05
1.86411e-05
1.84795e-05
1.83349e-05
1.82002e-05
1.80572e-05
1.7922e-05
1.77841e-05
1.7657e-05
1.75255e-05
1.74049e-05
1.72797e-05
1.71656e-05
1.70458e-05
1.69368e-05
1.68235e-05
1.6719e-05
1.66082e-05
1.65072e-05
1.64015e-05
1.63036e-05
1.62018e-05
1.61092e-05
1.601e-05
1.59193e-05
1.58259e-05
1.57404e-05
1.56472e-05
1.55667e-05
1.5479e-05
1.54013e-05
1.53201e-05
1.52476e-05
1.51707e-05
1.51031e-05
1.50303e-05
1.49676e-05
1.49024e-05
1.48426e-05
1.47775e-05
1.47264e-05
1.46681e-05
1.46138e-05
1.4554e-05
1.45098e-05
1.99999e-05
1.98263e-05
1.9455e-05
1.91708e-05
1.89667e-05
1.88231e-05
1.86434e-05
1.84796e-05
1.83341e-05
1.82015e-05
1.80604e-05
1.79266e-05
1.77896e-05
1.76637e-05
1.75333e-05
1.74143e-05
1.72902e-05
1.71774e-05
1.70591e-05
1.69515e-05
1.68393e-05
1.67361e-05
1.66262e-05
1.65261e-05
1.6421e-05
1.6324e-05
1.62224e-05
1.61303e-05
1.60313e-05
1.59408e-05
1.58476e-05
1.57622e-05
1.56687e-05
1.55881e-05
1.55006e-05
1.54226e-05
1.53411e-05
1.5269e-05
1.51924e-05
1.51247e-05
1.50516e-05
1.49897e-05
1.49252e-05
1.48652e-05
1.48006e-05
1.47507e-05
1.46929e-05
1.4639e-05
1.45807e-05
1.45391e-05
1.99999e-05
1.98278e-05
1.94617e-05
1.91674e-05
1.89607e-05
1.88206e-05
1.86494e-05
1.84842e-05
1.83375e-05
1.8207e-05
1.80685e-05
1.7937e-05
1.78018e-05
1.7678e-05
1.75495e-05
1.74327e-05
1.73107e-05
1.71998e-05
1.70834e-05
1.6978e-05
1.68674e-05
1.67662e-05
1.66578e-05
1.6559e-05
1.64552e-05
1.63596e-05
1.62589e-05
1.61677e-05
1.60696e-05
1.59799e-05
1.58872e-05
1.58024e-05
1.57092e-05
1.56287e-05
1.55419e-05
1.54642e-05
1.53828e-05
1.53113e-05
1.52353e-05
1.51679e-05
1.50949e-05
1.50339e-05
1.49705e-05
1.49105e-05
1.48467e-05
1.47983e-05
1.47411e-05
1.46876e-05
1.46314e-05
1.45925e-05
1.99999e-05
1.98297e-05
1.947e-05
1.91678e-05
1.89573e-05
1.88198e-05
1.86578e-05
1.84934e-05
1.83459e-05
1.82174e-05
1.8082e-05
1.79534e-05
1.78203e-05
1.76989e-05
1.75729e-05
1.74587e-05
1.73392e-05
1.72308e-05
1.71169e-05
1.70142e-05
1.69057e-05
1.6807e-05
1.67007e-05
1.66037e-05
1.65017e-05
1.64082e-05
1.63086e-05
1.62188e-05
1.61223e-05
1.60337e-05
1.5942e-05
1.58582e-05
1.57658e-05
1.56857e-05
1.56001e-05
1.5523e-05
1.54422e-05
1.53713e-05
1.52962e-05
1.52298e-05
1.51571e-05
1.50972e-05
1.50353e-05
1.49754e-05
1.49128e-05
1.48662e-05
1.48096e-05
1.4757e-05
1.47035e-05
1.46676e-05
1.99999e-05
1.98322e-05
1.94799e-05
1.91716e-05
1.89569e-05
1.88204e-05
1.86683e-05
1.85063e-05
1.83582e-05
1.82317e-05
1.80997e-05
1.79745e-05
1.7844e-05
1.77253e-05
1.76023e-05
1.74911e-05
1.73747e-05
1.72693e-05
1.71582e-05
1.70588e-05
1.69531e-05
1.68573e-05
1.67536e-05
1.66591e-05
1.65592e-05
1.64682e-05
1.63704e-05
1.62824e-05
1.61879e-05
1.6101e-05
1.60104e-05
1.59282e-05
1.58371e-05
1.57575e-05
1.56736e-05
1.55974e-05
1.55176e-05
1.54476e-05
1.53737e-05
1.53088e-05
1.52364e-05
1.51779e-05
1.51179e-05
1.50582e-05
1.49973e-05
1.49526e-05
1.4897e-05
1.48454e-05
1.47951e-05
1.47623e-05
1.99999e-05
1.9835e-05
1.94905e-05
1.91792e-05
1.89595e-05
1.88228e-05
1.86804e-05
1.85226e-05
1.83742e-05
1.82495e-05
1.81209e-05
1.79995e-05
1.78721e-05
1.77564e-05
1.76367e-05
1.7529e-05
1.7416e-05
1.73141e-05
1.72063e-05
1.71106e-05
1.70082e-05
1.69156e-05
1.68151e-05
1.67236e-05
1.66262e-05
1.65381e-05
1.64426e-05
1.63567e-05
1.62648e-05
1.618e-05
1.60908e-05
1.60104e-05
1.59214e-05
1.58424e-05
1.57604e-05
1.56855e-05
1.56071e-05
1.55381e-05
1.54656e-05
1.54028e-05
1.53309e-05
1.5274e-05
1.52161e-05
1.51569e-05
1.5098e-05
1.50553e-05
1.50007e-05
1.49508e-05
1.49041e-05
1.48739e-05
1.99999e-05
1.98382e-05
1.9502e-05
1.91897e-05
1.89653e-05
1.88274e-05
1.86936e-05
1.85417e-05
1.83937e-05
1.82704e-05
1.81452e-05
1.80278e-05
1.79038e-05
1.77914e-05
1.76751e-05
1.75713e-05
1.74618e-05
1.73639e-05
1.72598e-05
1.71681e-05
1.70694e-05
1.69805e-05
1.68834e-05
1.67955e-05
1.67008e-05
1.6616e-05
1.65234e-05
1.64399e-05
1.63508e-05
1.62686e-05
1.61812e-05
1.61027e-05
1.60163e-05
1.59383e-05
1.58583e-05
1.57851e-05
1.57084e-05
1.56407e-05
1.55697e-05
1.55093e-05
1.54383e-05
1.53828e-05
1.53273e-05
1.52689e-05
1.52126e-05
1.51714e-05
1.51182e-05
1.50707e-05
1.50274e-05
1.49992e-05
1.99999e-05
1.98416e-05
1.95138e-05
1.92027e-05
1.89739e-05
1.88341e-05
1.87075e-05
1.85629e-05
1.84159e-05
1.8294e-05
1.81719e-05
1.80587e-05
1.79383e-05
1.78294e-05
1.77167e-05
1.76168e-05
1.75112e-05
1.74174e-05
1.73173e-05
1.72298e-05
1.71352e-05
1.70503e-05
1.69569e-05
1.6873e-05
1.67814e-05
1.67e-05
1.66108e-05
1.65301e-05
1.64439e-05
1.63649e-05
1.62796e-05
1.62032e-05
1.61197e-05
1.60431e-05
1.5965e-05
1.58939e-05
1.5819e-05
1.5753e-05
1.56834e-05
1.56258e-05
1.55559e-05
1.5502e-05
1.54487e-05
1.53917e-05
1.5338e-05
1.52981e-05
1.52469e-05
1.52021e-05
1.5162e-05
1.51353e-05
1.99999e-05
1.98452e-05
1.95258e-05
1.92177e-05
1.89853e-05
1.88431e-05
1.8722e-05
1.85854e-05
1.84404e-05
1.83197e-05
1.82005e-05
1.80913e-05
1.79747e-05
1.78694e-05
1.77604e-05
1.76644e-05
1.7563e-05
1.74734e-05
1.73777e-05
1.72944e-05
1.7204e-05
1.71236e-05
1.70341e-05
1.69544e-05
1.68664e-05
1.67884e-05
1.67029e-05
1.66255e-05
1.65422e-05
1.64667e-05
1.63838e-05
1.63096e-05
1.62291e-05
1.61547e-05
1.60781e-05
1.60095e-05
1.59366e-05
1.58727e-05
1.58041e-05
1.57497e-05
1.56814e-05
1.56287e-05
1.55776e-05
1.55227e-05
1.54712e-05
1.54327e-05
1.53839e-05
1.53419e-05
1.53047e-05
1.52798e-05
1.99999e-05
1.98488e-05
1.95377e-05
1.92342e-05
1.89993e-05
1.88543e-05
1.87369e-05
1.86087e-05
1.84666e-05
1.83471e-05
1.82304e-05
1.81251e-05
1.80124e-05
1.79107e-05
1.78055e-05
1.77133e-05
1.7616e-05
1.75308e-05
1.74395e-05
1.73608e-05
1.72747e-05
1.7199e-05
1.71136e-05
1.70381e-05
1.6954e-05
1.68796e-05
1.67978e-05
1.67243e-05
1.66439e-05
1.6572e-05
1.64921e-05
1.64202e-05
1.63425e-05
1.62708e-05
1.61957e-05
1.61297e-05
1.60589e-05
1.59975e-05
1.59296e-05
1.58783e-05
1.58123e-05
1.57604e-05
1.57115e-05
1.56592e-05
1.56096e-05
1.55725e-05
1.55265e-05
1.54869e-05
1.54526e-05
1.54296e-05
1.99999e-05
1.98526e-05
1.95496e-05
1.92519e-05
1.90155e-05
1.88675e-05
1.87524e-05
1.86322e-05
1.84939e-05
1.83759e-05
1.82614e-05
1.81595e-05
1.80507e-05
1.79526e-05
1.78511e-05
1.77627e-05
1.76694e-05
1.75886e-05
1.75018e-05
1.74276e-05
1.73461e-05
1.72751e-05
1.71942e-05
1.71228e-05
1.70428e-05
1.69723e-05
1.68941e-05
1.68248e-05
1.67475e-05
1.6679e-05
1.66026e-05
1.65331e-05
1.64581e-05
1.63895e-05
1.6316e-05
1.62523e-05
1.61837e-05
1.6125e-05
1.60583e-05
1.6009e-05
1.59465e-05
1.58949e-05
1.5848e-05
1.57985e-05
1.57507e-05
1.57152e-05
1.56718e-05
1.56347e-05
1.56029e-05
1.55821e-05
1.99999e-05
1.98563e-05
1.95612e-05
1.92702e-05
1.90334e-05
1.88827e-05
1.87684e-05
1.86556e-05
1.85218e-05
1.84055e-05
1.82929e-05
1.81941e-05
1.80889e-05
1.79945e-05
1.78965e-05
1.78117e-05
1.77225e-05
1.7646e-05
1.75637e-05
1.7494e-05
1.74171e-05
1.73508e-05
1.72745e-05
1.72074e-05
1.71314e-05
1.70651e-05
1.69904e-05
1.69253e-05
1.68517e-05
1.67865e-05
1.67135e-05
1.6647e-05
1.65741e-05
1.65088e-05
1.64375e-05
1.63756e-05
1.63094e-05
1.6253e-05
1.61885e-05
1.61395e-05
1.6082e-05
1.60302e-05
1.59848e-05
1.59384e-05
1.58922e-05
1.58584e-05
1.58179e-05
1.57827e-05
1.57529e-05
1.57346e-05
1.99999e-05
1.98599e-05
1.95725e-05
1.92889e-05
1.90527e-05
1.88994e-05
1.87849e-05
1.86784e-05
1.85498e-05
1.84356e-05
1.83245e-05
1.82286e-05
1.81267e-05
1.80359e-05
1.79413e-05
1.78599e-05
1.77744e-05
1.77022e-05
1.76243e-05
1.75591e-05
1.74869e-05
1.74253e-05
1.73535e-05
1.72909e-05
1.72188e-05
1.71567e-05
1.70858e-05
1.70247e-05
1.69551e-05
1.68932e-05
1.68234e-05
1.67604e-05
1.66896e-05
1.6627e-05
1.65583e-05
1.64982e-05
1.64343e-05
1.63798e-05
1.63186e-05
1.62686e-05
1.62163e-05
1.61647e-05
1.61205e-05
1.6077e-05
1.60322e-05
1.6e-05
1.59625e-05
1.59289e-05
1.59008e-05
1.58853e-05
1.99999e-05
1.98635e-05
1.95836e-05
1.93074e-05
1.90729e-05
1.89175e-05
1.8802e-05
1.87007e-05
1.85775e-05
1.84658e-05
1.83561e-05
1.82625e-05
1.81638e-05
1.80762e-05
1.79848e-05
1.79067e-05
1.78248e-05
1.77565e-05
1.76829e-05
1.76223e-05
1.75547e-05
1.74979e-05
1.74305e-05
1.73724e-05
1.73043e-05
1.72463e-05
1.71793e-05
1.71221e-05
1.70563e-05
1.69983e-05
1.69313e-05
1.68717e-05
1.68036e-05
1.67432e-05
1.66771e-05
1.66191e-05
1.65572e-05
1.65041e-05
1.64468e-05
1.63956e-05
1.63474e-05
1.6297e-05
1.62535e-05
1.62124e-05
1.61691e-05
1.61384e-05
1.61039e-05
1.60714e-05
1.60449e-05
1.60318e-05
1.99999e-05
1.98669e-05
1.95942e-05
1.93257e-05
1.90936e-05
1.89366e-05
1.88196e-05
1.87223e-05
1.86046e-05
1.84957e-05
1.83874e-05
1.82957e-05
1.81997e-05
1.81151e-05
1.80268e-05
1.79517e-05
1.78732e-05
1.78086e-05
1.77392e-05
1.7683e-05
1.762e-05
1.75678e-05
1.75049e-05
1.74512e-05
1.73872e-05
1.73331e-05
1.72701e-05
1.7217e-05
1.71548e-05
1.71007e-05
1.70367e-05
1.69801e-05
1.6915e-05
1.68568e-05
1.67927e-05
1.67372e-05
1.6677e-05
1.66252e-05
1.6571e-05
1.65204e-05
1.64736e-05
1.6426e-05
1.63827e-05
1.63435e-05
1.63016e-05
1.6272e-05
1.62406e-05
1.62092e-05
1.61839e-05
1.61722e-05
1.99999e-05
1.98703e-05
1.96044e-05
1.93434e-05
1.91144e-05
1.89565e-05
1.88377e-05
1.87433e-05
1.86307e-05
1.85251e-05
1.84181e-05
1.8328e-05
1.82343e-05
1.81525e-05
1.80669e-05
1.79946e-05
1.79192e-05
1.7858e-05
1.77926e-05
1.77408e-05
1.76823e-05
1.76348e-05
1.75762e-05
1.75269e-05
1.74668e-05
1.74168e-05
1.73575e-05
1.73085e-05
1.725e-05
1.71997e-05
1.71391e-05
1.70852e-05
1.70227e-05
1.69671e-05
1.69047e-05
1.68513e-05
1.67931e-05
1.67428e-05
1.669e-05
1.66422e-05
1.65941e-05
1.6551e-05
1.65064e-05
1.64698e-05
1.64292e-05
1.63991e-05
1.63716e-05
1.63417e-05
1.63164e-05
1.63055e-05
1.99999e-05
1.98734e-05
1.9614e-05
1.93604e-05
1.91351e-05
1.89769e-05
1.88561e-05
1.87638e-05
1.86558e-05
1.85538e-05
1.84481e-05
1.83594e-05
1.82675e-05
1.81881e-05
1.8105e-05
1.80353e-05
1.79627e-05
1.79046e-05
1.7843e-05
1.77953e-05
1.77413e-05
1.76983e-05
1.76442e-05
1.7599e-05
1.75429e-05
1.74969e-05
1.74414e-05
1.73962e-05
1.73417e-05
1.7295e-05
1.72376e-05
1.71867e-05
1.71263e-05
1.70735e-05
1.70128e-05
1.6961e-05
1.69046e-05
1.68562e-05
1.68038e-05
1.67591e-05
1.67099e-05
1.66701e-05
1.66246e-05
1.65903e-05
1.65511e-05
1.65194e-05
1.64954e-05
1.64682e-05
1.64419e-05
1.6431e-05
1.99999e-05
1.98764e-05
1.96232e-05
1.93767e-05
1.91553e-05
1.89974e-05
1.88749e-05
1.87837e-05
1.86799e-05
1.85814e-05
1.84773e-05
1.83896e-05
1.82992e-05
1.82218e-05
1.81409e-05
1.80734e-05
1.80034e-05
1.79482e-05
1.78901e-05
1.78464e-05
1.77968e-05
1.77582e-05
1.77085e-05
1.76674e-05
1.76151e-05
1.7573e-05
1.75213e-05
1.74801e-05
1.74292e-05
1.73865e-05
1.7332e-05
1.72842e-05
1.7226e-05
1.71752e-05
1.71166e-05
1.70661e-05
1.7011e-05
1.69647e-05
1.69129e-05
1.68696e-05
1.68212e-05
1.67824e-05
1.67372e-05
1.67037e-05
1.66663e-05
1.6634e-05
1.66104e-05
1.65873e-05
1.65605e-05
1.65479e-05
1.99999e-05
1.98792e-05
1.96319e-05
1.93921e-05
1.91749e-05
1.90179e-05
1.88937e-05
1.88033e-05
1.87027e-05
1.86079e-05
1.85054e-05
1.84186e-05
1.83292e-05
1.82534e-05
1.81744e-05
1.8109e-05
1.80411e-05