/*--------------------------------*- C++ -*----------------------------------*\
  =========                 |
  \\      /  F ield         | OpenFOAM: The Open Source CFD Toolbox
   \\    /   O peration     | Website:  https://openfoam.org
    \\  /    A nd           | Version:  7
     \\/     M anipulation  |
\*---------------------------------------------------------------------------*/
FoamFile
{
    version     2.0;
    format      ascii;
    class       surfaceScalarField;
    location    "0.1";
    object      phi;
}
// * * * * * * * * * * * * * * * * * * * * * * * * * * * * * * * * * * * * * //

dimensions      [0 3 -1 0 0 0 0];

internalField   nonuniform List<scalar> 
139350
(
6.4593e-08
9.20385e-08
3.19527e-08
3.26403e-08
2.30632e-08
8.88949e-09
1.95709e-08
3.49234e-09
1.76214e-08
1.94944e-09
1.61965e-08
1.4249e-09
1.50665e-08
1.13001e-09
1.41559e-08
9.10651e-10
1.3407e-08
7.48866e-10
1.27768e-08
6.3024e-10
1.22363e-08
5.40463e-10
1.17662e-08
4.70057e-10
1.13528e-08
4.13399e-10
1.09859e-08
3.66955e-10
1.06576e-08
3.28312e-10
1.03618e-08
2.95742e-10
1.00939e-08
2.67978e-10
9.8498e-09
2.44067e-10
9.62651e-09
2.23288e-10
9.42142e-09
2.05083e-10
9.23241e-09
1.89015e-10
9.05767e-09
1.74736e-10
8.8957e-09
1.61967e-10
8.74523e-09
1.50479e-10
8.60514e-09
1.40085e-10
8.47451e-09
1.30629e-10
8.35254e-09
1.21976e-10
8.23852e-09
1.14019e-10
8.13186e-09
1.06655e-10
8.03205e-09
9.98117e-11
7.93865e-09
9.33995e-11
7.85127e-09
8.73819e-11
7.76961e-09
8.16582e-11
7.69336e-09
7.62464e-11
7.62237e-09
7.09915e-11
7.55636e-09
6.60112e-11
7.49533e-09
6.1027e-11
7.43901e-09
5.63244e-11
7.38757e-09
5.14353e-11
7.34077e-09
4.68076e-11
7.29883e-09
4.19336e-11
7.26194e-09
3.68916e-11
7.22956e-09
3.23851e-11
7.20421e-09
2.53429e-11
7.18098e-09
2.32281e-11
7.17256e-09
8.42598e-12
7.15342e-09
1.91413e-11
7.19426e-09
-4.0842e-11
7.01996e-09
1.74298e-10
-3.18806e-09
1.0208e-08
1.26027e-07
1.27456e-07
9.12663e-08
6.74005e-08
7.19492e-08
2.82067e-08
6.12271e-08
1.42144e-08
5.47867e-08
8.38981e-09
5.02997e-08
5.91187e-09
4.68233e-08
4.60643e-09
4.4016e-08
3.71801e-09
4.16984e-08
3.06642e-09
3.97459e-08
2.58274e-09
3.80713e-08
2.21508e-09
3.66145e-08
1.92691e-09
3.53326e-08
1.69521e-09
3.41943e-08
1.50532e-09
3.31753e-08
1.34732e-09
3.22569e-08
1.21414e-09
3.14243e-08
1.10059e-09
3.06655e-08
1.00279e-09
2.9971e-08
9.178e-10
2.93328e-08
8.4334e-10
2.87442e-08
7.77626e-10
2.81997e-08
7.19237e-10
2.76946e-08
6.67033e-10
2.7225e-08
6.2008e-10
2.67875e-08
5.77611e-10
2.63791e-08
5.38984e-10
2.59974e-08
5.03661e-10
2.56403e-08
4.71186e-10
2.53058e-08
4.41159e-10
2.49923e-08
4.13258e-10
2.46986e-08
3.87155e-10
2.44233e-08
3.62647e-10
2.41656e-08
3.39401e-10
2.39244e-08
3.17375e-10
2.36993e-08
2.96095e-10
2.34895e-08
2.75834e-10
2.32948e-08
2.55698e-10
2.31145e-08
2.36618e-10
2.29492e-08
2.16766e-10
2.27977e-08
1.98353e-10
2.26618e-08
1.77803e-10
2.25393e-08
1.59352e-10
2.24346e-08
1.37127e-10
2.23433e-08
1.16622e-10
2.22734e-08
9.31806e-11
2.22207e-08
6.10825e-11
2.21857e-08
5.41236e-11
2.22332e-08
-8.83269e-11
2.21209e-08
2.8661e-10
-3.93859e-09
2.28714e-08
1.58808e-07
1.35051e-07
1.36497e-07
8.97108e-08
1.17501e-07
4.72032e-08
1.0333e-07
2.83855e-08
9.33311e-08
1.83884e-08
8.60389e-08
1.32041e-08
8.03442e-08
1.03012e-08
7.57054e-08
8.35679e-09
7.18404e-08
6.93142e-09
6.85622e-08
5.8609e-09
6.57376e-08
5.03968e-09
6.32717e-08
4.39283e-09
6.10958e-08
3.87113e-09
5.91586e-08
3.4425e-09
5.74209e-08
3.08505e-09
5.58518e-08
2.78317e-09
5.44271e-08
2.52537e-09
5.31268e-08
2.30305e-09
5.1935e-08
2.10963e-09
5.08383e-08
1.94002e-09
4.98257e-08
1.79022e-09
4.88879e-08
1.65703e-09
4.8017e-08
1.5379e-09
4.72064e-08
1.43072e-09
4.64502e-08
1.33375e-09
4.57437e-08
1.24555e-09
4.50824e-08
1.16489e-09
4.44629e-08
1.09075e-09
4.38818e-08
1.02222e-09
4.33365e-08
9.58567e-10
4.28246e-08
8.99067e-10
4.2344e-08
8.43212e-10
4.18931e-08
7.90328e-10
4.14703e-08
7.40202e-10
4.10744e-08
6.91928e-10
4.07044e-08
6.45895e-10
4.03597e-08
6.0037e-10
4.00392e-08
5.57151e-10
3.97436e-08
5.12332e-10
3.94709e-08
4.71036e-10
3.92246e-08
4.24179e-10
3.89995e-08
3.84359e-10
3.88054e-08
3.31282e-10
3.86298e-08
2.9225e-10
3.84952e-08
2.27718e-10
3.83765e-08
1.79798e-10
3.83093e-08
1.21301e-10
3.83085e-08
-8.75305e-11
3.83276e-08
2.67544e-10
-3.78569e-09
3.81747e-08
1.75664e-07
1.30903e-07
1.65597e-07
9.97782e-08
1.5273e-07
6.00701e-08
1.40138e-07
4.09778e-08
1.29457e-07
2.90687e-08
1.20826e-07
2.18359e-08
1.13727e-07
1.73999e-08
1.07761e-07
1.43225e-08
1.02677e-07
1.20152e-08
9.8293e-08
1.02452e-08
9.44686e-08
8.86415e-09
9.10981e-08
7.76328e-09
8.81016e-08
6.86762e-09
8.54174e-08
6.12665e-09
8.29973e-08
5.50523e-09
8.08025e-08
4.97794e-09
7.8802e-08
4.52587e-09
7.69703e-08
4.13471e-09
7.52865e-08
3.79343e-09
7.37331e-08
3.49343e-09
7.22954e-08
3.22792e-09
7.0961e-08
2.99146e-09
6.97193e-08
2.77963e-09
6.85612e-08
2.58881e-09
6.74789e-08
2.41599e-09
6.64658e-08
2.25867e-09
6.5516e-08
2.11473e-09
6.46244e-08
1.98234e-09
6.37866e-08
1.85997e-09
6.29989e-08
1.74627e-09
6.2258e-08
1.64003e-09
6.15609e-08
1.54032e-09
6.09052e-08
1.446e-09
6.02888e-08
1.35661e-09
5.971e-08
1.27072e-09
5.91671e-08
1.18876e-09
5.86595e-08
1.10803e-09
5.81853e-08
1.03127e-09
5.77456e-08
9.5211e-10
5.73375e-08
8.79139e-10
5.69651e-08
7.96494e-10
5.66223e-08
7.272e-10
5.63208e-08
6.32771e-10
5.60449e-08
5.6818e-10
5.58228e-08
4.49766e-10
5.56226e-08
3.8003e-10
5.54919e-08
2.52035e-10
5.54207e-08
-1.63509e-11
5.54672e-08
2.21032e-10
-3.42536e-09
5.51069e-08
1.8456e-07
1.23128e-07
1.82322e-07
1.02016e-07
1.76107e-07
6.62855e-08
1.67769e-07
4.93152e-08
1.59154e-07
3.76836e-08
1.51256e-07
2.97346e-08
1.44196e-07
2.44596e-08
1.37912e-07
2.06067e-08
1.32329e-07
1.75981e-08
1.27364e-07
1.52107e-08
1.22929e-07
1.32982e-08
1.1895e-07
1.17426e-08
1.15361e-07
1.0457e-08
1.12107e-07
9.38005e-09
1.09145e-07
8.46749e-09
1.06436e-07
7.68649e-09
1.0395e-07
7.01207e-09
1.0166e-07
6.42493e-09
9.95435e-08
5.90998e-09
9.75816e-08
5.45528e-09
9.57583e-08
5.05128e-09
9.40595e-08
4.69026e-09
9.24732e-08
4.36589e-09
9.09891e-08
4.07294e-09
8.9598e-08
3.80705e-09
8.82922e-08
3.56454e-09
8.70646e-08
3.34229e-09
8.59093e-08
3.13762e-09
8.48211e-08
2.94822e-09
8.37952e-08
2.77211e-09
8.28278e-08
2.60748e-09
8.19152e-08
2.45289e-09
8.10545e-08
2.30671e-09
8.0243e-08
2.16812e-09
7.94786e-08
2.03515e-09
7.87591e-08
1.90819e-09
7.80836e-08
1.78355e-09
7.74501e-08
1.66481e-09
7.68591e-08
1.54312e-09
7.63078e-08
1.43046e-09
7.58e-08
1.30421e-09
7.53297e-08
1.19754e-09
7.49081e-08
1.05436e-09
7.45208e-08
9.55493e-10
7.41931e-08
7.77433e-10
7.38999e-08
6.73281e-10
7.36784e-08
4.73467e-10
7.35282e-08
1.33903e-10
7.35082e-08
2.41019e-10
-3.00787e-09
7.30907e-08
1.90388e-07
1.14956e-07
1.91852e-07
1.00552e-07
1.90246e-07
6.78917e-08
1.86159e-07
5.3402e-08
1.80727e-07
4.31163e-08
1.74981e-07
3.54805e-08
1.69295e-07
3.0145e-08
1.63825e-07
2.60766e-08
1.58667e-07
2.27564e-08
1.53862e-07
2.00155e-08
1.49414e-07
1.77467e-08
1.45305e-07
1.58515e-08
1.41511e-07
1.42506e-08
1.38007e-07
1.28848e-08
1.34764e-07
1.17099e-08
1.31759e-07
1.06913e-08
1.28969e-07
9.80201e-09
1.26374e-07
9.0205e-09
1.23954e-07
8.32949e-09
1.21695e-07
7.71501e-09
1.1958e-07
7.16568e-09
1.17598e-07
6.67211e-09
1.15738e-07
6.22652e-09
1.13988e-07
5.82241e-09
1.12341e-07
5.45425e-09
1.10788e-07
5.11736e-09
1.09323e-07
4.80773e-09
1.07939e-07
4.52187e-09
1.0663e-07
4.25678e-09
1.05392e-07
4.00982e-09
1.04221e-07
3.77863e-09
1.03113e-07
3.56124e-09
1.02064e-07
3.35554e-09
1.01072e-07
3.16035e-09
1.00134e-07
2.97312e-09
9.92478e-08
2.79418e-09
9.84124e-08
2.61891e-09
9.76257e-08
2.45153e-09
9.68877e-08
2.28106e-09
9.61961e-08
2.12214e-09
9.55536e-08
1.94663e-09
9.49556e-08
1.79556e-09
9.44106e-08
1.59936e-09
9.39091e-08
1.45705e-09
9.34675e-08
1.21899e-09
9.30757e-08
1.06507e-09
9.27491e-08
8.00108e-10
9.25101e-08
3.72924e-10
9.239e-08
3.61065e-10
-2.51814e-09
9.19003e-08
1.95541e-07
1.0723e-07
1.98248e-07
9.78452e-08
1.9897e-07
6.71694e-08
1.97792e-07
5.45803e-08
1.95164e-07
4.57445e-08
1.91828e-07
3.88164e-08
1.88104e-07
3.38684e-08
1.84165e-07
3.00158e-08
1.80159e-07
2.67623e-08
1.76197e-07
2.39779e-08
1.72346e-07
2.15976e-08
1.68645e-07
1.95522e-08
1.65115e-07
1.7781e-08
1.61763e-07
1.6237e-08
1.58589e-07
1.48834e-08
1.5559e-07
1.36905e-08
1.52758e-07
1.26341e-08
1.50084e-07
1.1694e-08
1.4756e-07
1.08536e-08
1.45176e-07
1.00991e-08
1.42923e-07
9.41869e-09
1.40792e-07
8.80271e-09
1.38776e-07
8.24285e-09
1.36866e-07
7.732e-09
1.35057e-07
7.26408e-09
1.3334e-07
6.83382e-09
1.31711e-07
6.43664e-09
1.30165e-07
6.06853e-09
1.28695e-07
5.72598e-09
1.27299e-07
5.40587e-09
1.25972e-07
5.10541e-09
1.24712e-07
4.82219e-09
1.23513e-07
4.55373e-09
1.22375e-07
4.29848e-09
1.21295e-07
4.05347e-09
1.2027e-07
3.81884e-09
1.193e-07
3.58931e-09
1.18382e-07
3.3694e-09
1.17516e-07
3.14661e-09
1.16701e-07
2.93723e-09
1.15938e-07
2.70944e-09
1.15225e-07
2.50886e-09
1.14566e-07
2.25826e-09
1.13958e-07
2.06482e-09
1.13408e-07
1.76948e-09
1.1292e-07
1.55278e-09
1.1249e-07
1.23039e-09
1.12155e-07
7.08213e-10
1.11932e-07
5.84151e-10
-1.94619e-09
1.1136e-07
2.00848e-07
9.99668e-08
2.03776e-07
9.4917e-08
2.05328e-07
6.56174e-08
2.05645e-07
5.42632e-08
2.04822e-07
4.65685e-08
2.03344e-07
4.02935e-08
2.01403e-07
3.58102e-08
1.99081e-07
3.23376e-08
1.96485e-07
2.93582e-08
1.93718e-07
2.67453e-08
1.9086e-07
2.44556e-08
1.87971e-07
2.24405e-08
1.85097e-07
2.06553e-08
1.82268e-07
1.90655e-08
1.79508e-07
1.76442e-08
1.76829e-07
1.63691e-08
1.74242e-07
1.52216e-08
1.7175e-07
1.41857e-08
1.69356e-07
1.32475e-08
1.6706e-07
1.23951e-08
1.6486e-07
1.16185e-08
1.62754e-07
1.09087e-08
1.60739e-07
1.02579e-08
1.58812e-07
9.65953e-09
1.56968e-07
9.10755e-09
1.55205e-07
8.59672e-09
1.5352e-07
8.12241e-09
1.51908e-07
7.68047e-09
1.50366e-07
7.26724e-09
1.48893e-07
6.87937e-09
1.47484e-07
6.51388e-09
1.46138e-07
6.16812e-09
1.44853e-07
5.83936e-09
1.43625e-07
5.52582e-09
1.42455e-07
5.22427e-09
1.41339e-07
4.93466e-09
1.40277e-07
4.65128e-09
1.39268e-07
4.37871e-09
1.38311e-07
4.10358e-09
1.37405e-07
3.84281e-09
1.36552e-07
3.56285e-09
1.3575e-07
3.31063e-09
1.35001e-07
3.00696e-09
1.34308e-07
2.75796e-09
1.33668e-07
2.40962e-09
1.33098e-07
2.12277e-09
1.3258e-07
1.74846e-09
1.32152e-07
1.13555e-09
1.31834e-07
9.02273e-10
-1.30461e-09
1.31193e-07
2.06447e-07
9.30517e-08
2.0934e-07
9.20241e-08
2.11038e-07
6.39193e-08
2.11933e-07
5.3368e-08
2.12004e-07
4.64975e-08
2.11621e-07
4.06768e-08
2.10896e-07
3.65353e-08
2.09832e-07
3.34017e-08
2.08467e-07
3.07237e-08
2.06858e-07
2.83536e-08
2.05063e-07
2.62507e-08
2.0313e-07
2.43733e-08
2.01103e-07
2.26831e-08
1.99016e-07
2.11525e-08
1.96899e-07
1.97609e-08
1.94776e-07
1.84923e-08
1.92664e-07
1.7333e-08
1.90579e-07
1.62712e-08
1.88529e-07
1.52967e-08
1.86524e-07
1.44004e-08
1.84568e-07
1.35742e-08
1.82666e-07
1.28112e-08
1.80819e-07
1.21048e-08
1.79029e-07
1.14494e-08
1.77297e-07
1.08399e-08
1.75622e-07
1.02714e-08
1.74005e-07
9.73993e-09
1.72444e-07
9.24146e-09
1.70938e-07
8.77255e-09
1.69488e-07
8.32997e-09
1.68091e-07
7.91078e-09
1.66747e-07
7.51233e-09
1.65454e-07
7.13185e-09
1.64212e-07
6.76747e-09
1.63021e-07
6.41588e-09
1.61879e-07
6.07691e-09
1.60785e-07
5.74466e-09
1.5974e-07
5.42361e-09
1.58744e-07
5.10011e-09
1.57796e-07
4.79089e-09
1.56896e-07
4.46234e-09
1.56047e-07
4.16004e-09
1.55246e-07
3.80743e-09
1.54502e-07
3.5026e-09
1.53804e-07
3.10681e-09
1.53178e-07
2.74891e-09
1.526e-07
2.32686e-09
1.521e-07
1.6359e-09
1.51704e-07
1.29794e-09
-6.17562e-10
1.51017e-07
2.12289e-07
8.64251e-08
2.15153e-07
8.91602e-08
2.16793e-07
6.22797e-08
2.17846e-07
5.23147e-08
2.18263e-07
4.60803e-08
2.18382e-07
4.0558e-08
2.18309e-07
3.66076e-08
2.18015e-07
3.36961e-08
2.17491e-07
3.12476e-08
2.16756e-07
2.90882e-08
2.15835e-07
2.71718e-08
2.14753e-07
2.54554e-08
2.13536e-07
2.39003e-08
2.12209e-07
2.24792e-08
2.10797e-07
2.11735e-08
2.0932e-07
1.99694e-08
2.07797e-07
1.8856e-08
2.06244e-07
1.78241e-08
2.04675e-07
1.6866e-08
2.031e-07
1.59747e-08
2.0153e-07
1.51444e-08
1.99972e-07
1.43696e-08
1.98431e-07
1.36454e-08
1.96913e-07
1.29673e-08
1.95422e-07
1.23312e-08
1.9396e-07
1.17331e-08
1.9253e-07
1.11696e-08
1.91134e-07
1.06374e-08
1.89774e-07
1.01332e-08
1.88449e-07
9.65439e-09
1.87162e-07
9.19811e-09
1.85912e-07
8.76196e-09
1.84701e-07
8.34329e-09
1.83528e-07
7.94031e-09
1.82394e-07
7.54976e-09
1.813e-07
7.17145e-09
1.80245e-07
6.79949e-09
1.7923e-07
6.43822e-09
1.78256e-07
6.0741e-09
1.77324e-07
5.72317e-09
1.76433e-07
5.35298e-09
1.75588e-07
5.00589e-09
1.74784e-07
4.61124e-09
1.74032e-07
4.25455e-09
1.7332e-07
3.81838e-09
1.72675e-07
3.39435e-09
1.72073e-07
2.92909e-09
1.71531e-07
2.17786e-09
1.71085e-07
1.74373e-09
8.39948e-11
1.70383e-07
2.1833e-07
8.00757e-08
2.21207e-07
8.62837e-08
2.22765e-07
6.07209e-08
2.23845e-07
5.12346e-08
2.24372e-07
4.55537e-08
2.24668e-07
4.02616e-08
2.24872e-07
3.6404e-08
2.24955e-07
3.3613e-08
2.24896e-07
3.13069e-08
2.24694e-07
2.92898e-08
2.24355e-07
2.75108e-08
2.23885e-07
2.59254e-08
2.23293e-07
2.44921e-08
2.22591e-07
2.31812e-08
2.21792e-07
2.19728e-08
2.20909e-07
2.08529e-08
2.19954e-07
1.98106e-08
2.18941e-07
1.88376e-08
2.1788e-07
1.79268e-08
2.16782e-07
1.70727e-08
2.15656e-07
1.62703e-08
2.1451e-07
1.55152e-08
2.13352e-07
1.48036e-08
2.12188e-07
1.41319e-08
2.11022e-07
1.34968e-08
2.0986e-07
1.28951e-08
2.08705e-07
1.23241e-08
2.07562e-07
1.17808e-08
2.06433e-07
1.12627e-08
2.05319e-07
1.07674e-08
2.04225e-07
1.02925e-08
2.03151e-07
9.8357e-09
2.021e-07
9.39471e-09
2.01072e-07
8.96788e-09
2.0007e-07
8.55206e-09
1.99094e-07
8.14716e-09
1.98146e-07
7.74739e-09
1.97228e-07
7.35694e-09
1.96339e-07
6.96269e-09
1.95483e-07
6.57963e-09
1.94658e-07
6.17736e-09
1.9387e-07
5.79377e-09
1.93115e-07
5.36621e-09
1.92405e-07
4.96514e-09
1.91726e-07
4.49711e-09
1.91104e-07
4.01654e-09
1.90519e-07
3.51387e-09
1.89974e-07
2.72257e-09
1.89513e-07
2.20544e-09
7.64784e-10
1.88832e-07
2.24559e-07
7.40101e-08
2.27471e-07
8.33718e-08
2.28962e-07
5.92296e-08
2.30047e-07
5.01492e-08
2.30615e-07
4.49858e-08
2.30961e-07
3.99164e-08
2.31253e-07
3.61111e-08
2.31484e-07
3.33821e-08
2.31633e-07
3.1158e-08
2.31698e-07
2.92249e-08
2.31679e-07
2.75303e-08
2.31573e-07
2.60308e-08
2.31382e-07
2.46836e-08
2.31106e-07
2.34567e-08
2.3075e-07
2.23285e-08
2.3032e-07
2.12835e-08
2.2982e-07
2.03101e-08
2.29258e-07
1.93993e-08
2.28641e-07
1.85439e-08
2.27976e-07
1.77383e-08
2.27268e-07
1.69778e-08
2.26525e-07
1.62584e-08
2.25752e-07
1.55766e-08
2.24955e-07
1.49292e-08
2.24138e-07
1.43134e-08
2.23307e-07
1.37265e-08
2.22465e-07
1.3166e-08
2.21616e-07
1.26295e-08
2.20764e-07
1.21149e-08
2.19912e-07
1.16199e-08
2.19062e-07
1.11424e-08
2.18217e-07
1.06806e-08
2.1738e-07
1.02321e-08
2.16552e-07
9.79567e-09
2.15736e-07
9.36818e-09
2.14933e-07
8.94966e-09
2.14146e-07
8.5345e-09
2.13376e-07
8.12666e-09
2.12625e-07
7.71372e-09
2.11896e-07
7.30928e-09
2.11187e-07
6.88565e-09
2.10506e-07
6.47544e-09
2.09847e-07
6.02521e-09
2.09222e-07
5.5895e-09
2.08621e-07
5.09886e-09
2.08063e-07
4.57429e-09
2.07535e-07
4.04138e-09
2.07028e-07
3.23024e-09
2.06586e-07
2.64675e-09
1.3911e-09
2.0596e-07
2.3098e-07
6.82364e-08
2.33935e-07
8.0416e-08
2.35367e-07
5.77975e-08
2.36459e-07
4.90576e-08
2.37061e-07
4.43843e-08
2.37421e-07
3.95559e-08
2.37736e-07
3.57965e-08
2.38012e-07
3.31053e-08
2.38237e-07
3.09337e-08
2.38411e-07
2.90511e-08
2.38536e-07
2.74048e-08
2.38612e-07
2.59553e-08
2.38635e-07
2.46604e-08
2.38604e-07
2.34873e-08
2.3852e-07
2.24133e-08
2.38381e-07
2.1422e-08
2.38191e-07
2.05008e-08
2.3795e-07
1.964e-08
2.37662e-07
1.88321e-08
2.37329e-07
1.80707e-08
2.36956e-07
1.7351e-08
2.36546e-07
1.66689e-08
2.36101e-07
1.60207e-08
2.35627e-07
1.54034e-08
2.35126e-07
1.48142e-08
2.34602e-07
1.42505e-08
2.34059e-07
1.37099e-08
2.33498e-07
1.31903e-08
2.32923e-07
1.26896e-08
2.32337e-07
1.22057e-08
2.31743e-07
1.17368e-08
2.31142e-07
1.12809e-08
2.30538e-07
1.08361e-08
2.29933e-07
1.04011e-08
2.29328e-07
9.97285e-09
2.28726e-07
9.55148e-09
2.28129e-07
9.13155e-09
2.27539e-07
8.71675e-09
2.26958e-07
8.29544e-09
2.26387e-07
7.87964e-09
2.25828e-07
7.44476e-09
2.25286e-07
7.01769e-09
2.24756e-07
6.55466e-09
2.24251e-07
6.09463e-09
2.2376e-07
5.59029e-09
2.23299e-07
5.03529e-09
2.2286e-07
4.48006e-09
2.22423e-07
3.66731e-09
2.22034e-07
3.03586e-09
1.93469e-09
2.2149e-07
2.37601e-07
6.27605e-08
2.40603e-07
7.74138e-08
2.41978e-07
5.64225e-08
2.43074e-07
4.7961e-08
2.43713e-07
4.37455e-08
2.44087e-07
3.91818e-08
2.44407e-07
3.54765e-08
2.44697e-07
3.2816e-08
2.44944e-07
3.06865e-08
2.45154e-07
2.88407e-08
2.45334e-07
2.7225e-08
2.45484e-07
2.58049e-08
2.45604e-07
2.45404e-08
2.45693e-07
2.33989e-08
2.45749e-07
2.23575e-08
2.45771e-07
2.13995e-08
2.4576e-07
2.05121e-08
2.45715e-07
1.96851e-08
2.45636e-07
1.89106e-08
2.45525e-07
1.81819e-08
2.45382e-07
1.74938e-08
2.45209e-07
1.68418e-08
2.45008e-07
1.62223e-08
2.44779e-07
1.5632e-08
2.44525e-07
1.50679e-08
2.44248e-07
1.45274e-08
2.4395e-07
1.40082e-08
2.43632e-07
1.3508e-08
2.43297e-07
1.30246e-08
2.42947e-07
1.25562e-08
2.42583e-07
1.21007e-08
2.42208e-07
1.16564e-08
2.41822e-07
1.12213e-08
2.41429e-07
1.07941e-08
2.4103e-07
1.03719e-08
2.40627e-07
9.95473e-09
2.40221e-07
9.53736e-09
2.39815e-07
9.12304e-09
2.39409e-07
8.70107e-09
2.39007e-07
8.28164e-09
2.38609e-07
7.84351e-09
2.38219e-07
7.40775e-09
2.37833e-07
6.93999e-09
2.37463e-07
6.46501e-09
2.37099e-07
5.95444e-09
2.36752e-07
5.38171e-09
2.36421e-07
4.81185e-09
2.36076e-07
4.0122e-09
2.35761e-07
3.35091e-09
2.37755e-09
2.35318e-07
2.44431e-07
5.7586e-08
2.47473e-07
7.4372e-08
2.48799e-07
5.50965e-08
2.49895e-07
4.68641e-08
2.50573e-07
4.3068e-08
2.50964e-07
3.87905e-08
2.51289e-07
3.5152e-08
2.51584e-07
3.25212e-08
2.51839e-07
3.04316e-08
2.5206e-07
2.86193e-08
2.52257e-07
2.70281e-08
2.52433e-07
2.56286e-08
2.5259e-07
2.43837e-08
2.52727e-07
2.32616e-08
2.52845e-07
2.22396e-08
2.52943e-07
2.13013e-08
2.53021e-07
2.0434e-08
2.53079e-07
1.96275e-08
2.53116e-07
1.88736e-08
2.53132e-07
1.81658e-08
2.53127e-07
1.74985e-08
2.53102e-07
1.68672e-08
2.53056e-07
1.6268e-08
2.5299e-07
1.56975e-08
2.52906e-07
1.51526e-08
2.52802e-07
1.46306e-08
2.52682e-07
1.41291e-08
2.52544e-07
1.36455e-08
2.52391e-07
1.31779e-08
2.52223e-07
1.27241e-08
2.52041e-07
1.22821e-08
2.51848e-07
1.18502e-08
2.51643e-07
1.14263e-08
2.51428e-07
1.1009e-08
2.51204e-07
1.05955e-08
2.50973e-07
1.01856e-08
2.50736e-07
9.77443e-09
2.50495e-07
9.36459e-09
2.50249e-07
8.94641e-09
2.50003e-07
8.52812e-09
2.49754e-07
8.09189e-09
2.49509e-07
7.65313e-09
2.49263e-07
7.18612e-09
2.49024e-07
6.70355e-09
2.48787e-07
6.19204e-09
2.48557e-07
5.61203e-09
2.48334e-07
5.03419e-09
2.48088e-07
4.25798e-09
2.47856e-07
3.58291e-09
2.71431e-09
2.4752e-07
2.51478e-07
5.27147e-08
2.5455e-07
7.13e-08
2.55838e-07
5.3809e-08
2.56929e-07
4.57725e-08
2.57644e-07
4.23527e-08
2.58056e-07
3.83792e-08
2.58386e-07
3.48216e-08
2.58686e-07
3.2221e-08
2.58947e-07
3.01713e-08
2.59173e-07
2.83933e-08
2.59375e-07
2.68257e-08
2.59559e-07
2.54443e-08
2.59728e-07
2.42152e-08
2.59882e-07
2.31073e-08
2.60023e-07
2.20985e-08
2.60152e-07
2.11728e-08
2.60268e-07
2.03177e-08
2.60372e-07
1.95234e-08
2.60464e-07
1.87817e-08
2.60544e-07
1.80862e-08
2.60611e-07
1.74313e-08
2.60666e-07
1.68125e-08
2.60708e-07
1.62259e-08
2.60737e-07
1.5668e-08
2.60754e-07
1.51357e-08
2.60759e-07
1.46262e-08
2.60751e-07
1.41369e-08
2.60731e-07
1.36654e-08
2.60699e-07
1.32094e-08
2.60657e-07
1.27669e-08
2.60603e-07
1.23357e-08
2.60539e-07
1.1914e-08
2.60466e-07
1.14997e-08
2.60384e-07
1.10913e-08
2.60293e-07
1.06861e-08
2.60195e-07
1.02837e-08
2.6009e-07
9.87927e-09
2.5998e-07
9.47497e-09
2.59864e-07
9.06215e-09
2.59745e-07
8.64704e-09
2.59622e-07
8.21505e-09
2.59498e-07
7.77647e-09
2.59372e-07
7.31305e-09
2.59247e-07
6.82786e-09
2.59121e-07
6.31843e-09
2.58994e-07
5.73871e-09
2.5887e-07
5.15798e-09
2.58717e-07
4.41117e-09
2.58565e-07
3.73516e-09
2.95164e-09
2.58328e-07
2.58751e-07
4.81466e-08
2.61843e-07
6.82077e-08
2.63103e-07
5.25496e-08
2.64184e-07
4.46911e-08
2.64935e-07
4.16022e-08
2.65368e-07
3.79456e-08
2.65706e-07
3.44842e-08
2.66011e-07
3.19151e-08
2.66277e-07
2.99054e-08
2.66507e-07
2.81632e-08
2.66713e-07
2.66202e-08
2.669e-07
2.52569e-08
2.67073e-07
2.40425e-08
2.67233e-07
2.29474e-08
2.67382e-07
2.19496e-08
2.67521e-07
2.10335e-08
2.67651e-07
2.01872e-08
2.67774e-07
1.9401e-08
2.67888e-07
1.86671e-08
2.67996e-07
1.7979e-08
2.68096e-07
1.73314e-08
2.68188e-07
1.67199e-08
2.68274e-07
1.61406e-08
2.68352e-07
1.559e-08
2.68422e-07
1.50651e-08
2.68485e-07
1.4563e-08
2.68541e-07
1.40812e-08
2.68589e-07
1.36172e-08
2.6863e-07
1.31687e-08
2.68663e-07
1.27335e-08
2.6869e-07
1.23096e-08
2.68709e-07
1.1895e-08
2.68721e-07
1.14875e-08
2.68726e-07
1.10858e-08
2.68726e-07
1.06868e-08
2.68719e-07
1.02903e-08
2.68707e-07
9.89151e-09
2.6869e-07
9.49199e-09
2.68668e-07
9.08415e-09
2.68642e-07
8.67231e-09
2.68613e-07
8.24489e-09
2.68581e-07
7.8077e-09
2.68546e-07
7.34861e-09
2.6851e-07
6.86365e-09
2.68471e-07
6.35746e-09
2.68427e-07
5.7828e-09
2.68382e-07
5.20275e-09
2.68306e-07
4.48755e-09
2.68221e-07
3.81988e-09
3.10487e-09
2.68068e-07
2.66259e-07
4.38802e-08
2.69361e-07
6.51058e-08
2.70603e-07
5.13075e-08
2.71669e-07
4.36245e-08
2.72452e-07
4.08199e-08
2.72909e-07
3.74881e-08
2.73254e-07
3.41391e-08
2.73566e-07
3.16035e-08
2.73838e-07
2.96335e-08
2.74072e-07
2.79287e-08
2.74281e-07
2.64117e-08
2.74471e-07
2.50669e-08
2.74646e-07
2.38676e-08
2.74808e-07
2.27851e-08
2.7496e-07
2.17979e-08
2.75102e-07
2.08907e-08
2.75238e-07
2.0052e-08
2.75366e-07
1.92723e-08
2.75489e-07
1.85441e-08
2.75607e-07
1.78612e-08
2.7572e-07
1.72185e-08
2.75829e-07
1.66114e-08
2.75933e-07
1.60364e-08
2.76033e-07
1.549e-08
2.76128e-07
1.49693e-08
2.7622e-07
1.44714e-08
2.76307e-07
1.39938e-08
2.76391e-07
1.35341e-08
2.76469e-07
1.30898e-08
2.76544e-07
1.26589e-08
2.76614e-07
1.22392e-08
2.7668e-07
1.18289e-08
2.76742e-07
1.14257e-08
2.768e-07
1.10281e-08
2.76854e-07
1.06332e-08
2.76903e-07
1.02405e-08
2.76949e-07
9.84559e-09
2.76992e-07
9.44936e-09
2.77031e-07
9.04526e-09
2.77067e-07
8.63585e-09
2.771e-07
8.21218e-09
2.77131e-07
7.77644e-09
2.77159e-07
7.3212e-09
2.77185e-07
6.83781e-09
2.77207e-07
6.33488e-09
2.77222e-07
5.76781e-09
2.77234e-07
5.19085e-09
2.77215e-07
4.50672e-09
2.77181e-07
3.85348e-09
3.19325e-09
2.77093e-07
2.74009e-07
3.99119e-08
2.7711e-07
6.20052e-08
2.78345e-07
5.00728e-08
2.79393e-07
4.2576e-08
2.80203e-07
4.00098e-08
2.80686e-07
3.70051e-08
2.8104e-07
3.37852e-08
2.81358e-07
3.12861e-08
2.81636e-07
2.93553e-08
2.81875e-07
2.76892e-08
2.82087e-07
2.61998e-08
2.8228e-07
2.48745e-08
2.82456e-07
2.36907e-08
2.82621e-07
2.26211e-08
2.82774e-07
2.16445e-08
2.82918e-07
2.07462e-08
2.83056e-07
1.99148e-08
2.83187e-07
1.91413e-08
2.83312e-07
1.84183e-08
2.83434e-07
1.77397e-08
2.83552e-07
1.71007e-08
2.83666e-07
1.6497e-08
2.83778e-07
1.59249e-08
2.83886e-07
1.53813e-08
2.83993e-07
1.48631e-08
2.84096e-07
1.43676e-08
2.84198e-07
1.38923e-08
2.84297e-07
1.34349e-08
2.84394e-07
1.29929e-08
2.84489e-07
1.25643e-08
2.84581e-07
1.21469e-08
2.84671e-07
1.17389e-08
2.84759e-07
1.13379e-08
2.84844e-07
1.09426e-08
2.84927e-07
1.055e-08
2.85008e-07
1.01594e-08
2.85087e-07
9.76685e-09
2.85164e-07
9.37247e-09
2.85239e-07
8.97076e-09
2.85312e-07
8.56276e-09
2.85382e-07
8.1417e-09
2.85452e-07
7.70702e-09
2.85518e-07
7.25465e-09
2.85582e-07
6.77337e-09
2.85644e-07
6.27325e-09
2.85697e-07
5.71484e-09
2.85745e-07
5.14259e-09
2.85765e-07
4.48742e-09
2.85766e-07
3.85211e-09
3.23558e-09
2.85724e-07
2.82013e-07
3.62365e-08
2.85101e-07
5.89174e-08
2.86338e-07
4.88358e-08
2.87365e-07
4.15485e-08
2.88198e-07
3.91766e-08
2.88708e-07
3.64954e-08
2.89072e-07
3.34214e-08
2.89395e-07
3.09632e-08
2.89679e-07
2.90708e-08
2.89924e-07
2.74444e-08
2.9014e-07
2.59843e-08
2.90335e-07
2.46793e-08
2.90514e-07
2.35114e-08
2.9068e-07
2.24551e-08
2.90835e-07
2.14896e-08
2.90981e-07
2.06003e-08
2.91119e-07
1.97764e-08
2.91252e-07
1.9009e-08
2.91379e-07
1.8291e-08
2.91502e-07
1.76167e-08
2.91621e-07
1.69812e-08
2.91738e-07
1.63803e-08
2.91852e-07
1.58107e-08
2.91965e-07
1.52691e-08
2.92075e-07
1.47527e-08
2.92184e-07
1.42589e-08
2.92291e-07
1.37851e-08
2.92397e-07
1.3329e-08
2.92501e-07
1.28883e-08
2.92605e-07
1.24609e-08
2.92707e-07
1.20447e-08
2.92808e-07
1.16378e-08
2.92908e-07
1.1238e-08
2.93007e-07
1.08437e-08
2.93105e-07
1.04523e-08
2.93201e-07
1.00627e-08
2.93297e-07
9.67134e-09
2.93391e-07
9.27779e-09
2.93485e-07
8.87742e-09
2.93578e-07
8.47003e-09
2.93669e-07
8.05058e-09
2.93759e-07
7.61659e-09
2.93848e-07
7.16618e-09
2.93934e-07
6.68716e-09
2.94018e-07
6.18943e-09
2.94092e-07
5.63992e-09
2.94161e-07
5.07363e-09
2.94204e-07
4.44461e-09
2.94227e-07
3.82891e-09
3.24735e-09
2.94216e-07
2.90279e-07
3.28468e-08
2.93342e-07
5.58543e-08
2.9459e-07
4.75876e-08
2.95595e-07
4.05438e-08
2.96446e-07
3.83256e-08
2.96983e-07
3.5958e-08
2.97358e-07
3.30462e-08
2.97687e-07
3.06346e-08
2.97978e-07
2.87798e-08
2.98228e-07
2.71941e-08
2.98448e-07
2.57647e-08
2.98646e-07
2.4481e-08
2.98828e-07
2.33297e-08
2.98996e-07
2.22872e-08
2.99152e-07
2.1333e-08
2.99299e-07
2.04531e-08
2.99439e-07
1.96367e-08
2.99572e-07
1.88756e-08
2.99701e-07
1.81628e-08
2.99825e-07
1.74926e-08
2.99945e-07
1.68605e-08
3.00063e-07
1.62625e-08
3.00179e-07
1.56952e-08
3.00292e-07
1.51555e-08
3.00405e-07
1.46406e-08
3.00515e-07
1.41481e-08
3.00625e-07
1.36754e-08
3.00734e-07
1.32203e-08
3.00841e-07
1.27805e-08
3.00949e-07
1.23538e-08
3.01055e-07
1.19383e-08
3.01161e-07
1.15319e-08
3.01266e-07
1.11327e-08
3.01371e-07
1.07389e-08
3.01475e-07
1.0348e-08
3.01579e-07
9.95874e-09
3.01683e-07
9.56794e-09
3.01786e-07
9.17464e-09
3.01888e-07
8.77494e-09
3.01991e-07
8.3677e-09
3.02092e-07
7.94919e-09
3.02193e-07
7.51567e-09
3.02293e-07
7.06657e-09
3.0239e-07
6.58992e-09
3.02485e-07
6.09441e-09
3.02571e-07
5.55366e-09
3.0265e-07
4.99434e-09
3.02706e-07
4.38863e-09
3.02742e-07
3.79296e-09
3.2397e-09
3.0275e-07
2.98815e-07
2.97339e-08
3.01842e-07
5.28277e-08
3.03109e-07
4.63203e-08
3.0409e-07
3.95627e-08
3.04954e-07
3.74622e-08
3.05519e-07
3.53924e-08
3.05907e-07
3.26581e-08
3.06242e-07
3.03004e-08
3.06539e-07
2.84825e-08
3.06795e-07
2.69378e-08
3.07019e-07
2.55408e-08
3.07221e-07
2.42796e-08
3.07405e-07
2.31454e-08
3.07575e-07
2.2117e-08
3.07734e-07
2.11746e-08
3.07882e-07
2.03042e-08
3.08023e-07
1.94957e-08
3.08158e-07
1.8741e-08
3.08287e-07
1.80334e-08
3.08412e-07
1.73676e-08
3.08534e-07
1.67389e-08
3.08653e-07
1.61437e-08
3.08769e-07
1.55787e-08
3.08884e-07
1.50408e-08
3.08997e-07
1.45275e-08
3.09109e-07
1.40362e-08
3.0922e-07
1.35645e-08
3.0933e-07
1.31102e-08
3.09439e-07
1.26711e-08
3.09548e-07
1.2245e-08
3.09657e-07
1.18299e-08
3.09765e-07
1.14239e-08
3.09872e-07
1.10249e-08
3.0998e-07
1.06313e-08
3.10087e-07
1.02407e-08
3.10194e-07
9.85152e-09
3.10301e-07
9.46095e-09
3.10408e-07
9.06763e-09
3.10515e-07
8.66825e-09
3.10622e-07
8.26099e-09
3.10728e-07
7.84302e-09
3.10834e-07
7.40996e-09
3.10939e-07
6.96182e-09
3.11041e-07
6.48766e-09
3.11141e-07
5.99446e-09
3.11232e-07
5.4622e-09
3.11316e-07
4.91072e-09
3.11379e-07
4.32572e-09
3.11422e-07
3.74971e-09
3.21972e-09
3.11442e-07
3.07634e-07
2.68874e-08
3.10612e-07
4.98498e-08
3.11905e-07
4.50272e-08
3.12862e-07
3.86051e-08
3.13733e-07
3.65917e-08
3.14326e-07
3.4799e-08
3.14729e-07
3.22556e-08
3.15069e-07
2.99602e-08
3.15372e-07
2.81789e-08
3.15635e-07
2.66753e-08
3.15864e-07
2.53122e-08
3.16068e-07
2.40747e-08
3.16256e-07
2.29582e-08
3.16428e-07
2.19444e-08
3.16589e-07
2.10141e-08
3.16739e-07
2.01536e-08
3.16882e-07
1.93532e-08
3.17018e-07
1.86051e-08
3.17148e-07
1.79029e-08
3.17275e-07
1.72414e-08
3.17397e-07
1.66163e-08
3.17517e-07
1.6024e-08
3.17634e-07
1.54612e-08
3.1775e-07
1.49252e-08
3.17864e-07
1.44134e-08
3.17977e-07
1.39233e-08
3.18089e-07
1.34527e-08
3.182e-07
1.29992e-08
3.1831e-07
1.25606e-08
3.1842e-07
1.2135e-08
3.1853e-07
1.17203e-08
3.18639e-07
1.13146e-08
3.18748e-07
1.09158e-08
3.18857e-07
1.05223e-08
3.18966e-07
1.01318e-08
3.19075e-07
9.74265e-09
3.19184e-07
9.35218e-09
3.19293e-07
8.95876e-09
3.19401e-07
8.55955e-09
3.1951e-07
8.15224e-09
3.19619e-07
7.73463e-09
3.19726e-07
7.30212e-09
3.19833e-07
6.85485e-09
3.19938e-07
6.38331e-09
3.20039e-07
5.89271e-09
3.20133e-07
5.36864e-09
3.20218e-07
4.82571e-09
3.20285e-07
4.25919e-09
3.20332e-07
3.70199e-09
3.19147e-09
3.20361e-07
3.16743e-07
2.42952e-08
3.19661e-07
4.69326e-08
3.20985e-07
4.37029e-08
3.2192e-07
3.76701e-08
3.22792e-07
3.57194e-08
3.23412e-07
3.41789e-08
3.23831e-07
3.1837e-08
3.24178e-07
2.96137e-08
3.24487e-07
2.78691e-08
3.24756e-07
2.64064e-08
3.2499e-07
2.50786e-08
3.25199e-07
2.3866e-08
3.25389e-07
2.27679e-08
3.25564e-07
2.17691e-08
3.25727e-07
2.08513e-08
3.25879e-07
2.00011e-08
3.26024e-07
1.9209e-08
3.26161e-07
1.84676e-08
3.26293e-07
1.7771e-08
3.2642e-07
1.7114e-08
3.26544e-07
1.64925e-08
3.26665e-07
1.59031e-08
3.26784e-07
1.53427e-08
3.269e-07
1.48086e-08
3.27015e-07
1.42983e-08
3.27129e-07
1.38095e-08
3.27242e-07
1.33398e-08
3.27354e-07
1.28871e-08
3.27466e-07
1.24492e-08
3.27576e-07
1.2024e-08
3.27687e-07
1.16097e-08
3.27797e-07
1.12042e-08
3.27908e-07
1.08056e-08
3.28018e-07
1.04123e-08
3.28128e-07
1.00219e-08
3.28238e-07
9.63267e-09
3.28348e-07
9.24227e-09
3.28458e-07
8.84877e-09
3.28567e-07
8.44966e-09
3.28677e-07
8.04239e-09
3.28787e-07
7.62509e-09
3.28896e-07
7.19327e-09
3.29004e-07
6.74693e-09
3.29109e-07
6.27814e-09
3.29211e-07
5.79054e-09
3.29305e-07
5.27437e-09
3.2939e-07
4.74049e-09
3.29459e-07
4.19059e-09
3.2951e-07
3.65101e-09
3.15708e-09
3.29544e-07
3.26154e-07
2.19439e-08
3.28999e-07
4.40878e-08
3.30358e-07
4.23438e-08
3.31272e-07
3.67556e-08
3.32142e-07
3.48499e-08
3.32787e-07
3.35336e-08
3.33223e-07
3.14009e-08
3.33577e-07
2.92602e-08
3.33893e-07
2.75532e-08
3.34168e-07
2.61307e-08
3.34407e-07
2.48396e-08
3.3462e-07
2.36533e-08
3.34814e-07
2.25744e-08
3.34992e-07
2.1591e-08
3.35157e-07
2.06861e-08
3.35312e-07
1.98464e-08
3.35458e-07
1.90629e-08
3.35597e-07
1.83285e-08
3.3573e-07
1.76375e-08
3.35859e-07
1.69851e-08
3.35984e-07
1.63674e-08
3.36106e-07
1.5781e-08
3.36226e-07
1.5223e-08
3.36344e-07
1.46908e-08
3.3646e-07
1.41821e-08
3.36575e-07
1.36945e-08
3.36689e-07
1.32258e-08
3.36802e-07
1.27739e-08
3.36914e-07
1.23366e-08
3.37026e-07
1.1912e-08
3.37138e-07
1.1498e-08