/*--------------------------------*- C++ -*----------------------------------*\
  =========                 |
  \\      /  F ield         | OpenFOAM: The Open Source CFD Toolbox
   \\    /   O peration     | Website:  https://openfoam.org
    \\  /    A nd           | Version:  7
     \\/     M anipulation  |
\*---------------------------------------------------------------------------*/
FoamFile
{
    version     2.0;
    format      ascii;
    class       surfaceScalarField;
    location    "0.1";
    object      phi_0;
}
// * * * * * * * * * * * * * * * * * * * * * * * * * * * * * * * * * * * * * //

dimensions      [0 3 -1 0 0 0 0];

internalField   nonuniform List<scalar> 
139350
(
6.4593e-08
9.20385e-08
3.19527e-08
3.26403e-08
2.30632e-08
8.88948e-09
1.95709e-08
3.49233e-09
1.76215e-08
1.94943e-09
1.61966e-08
1.42489e-09
1.50666e-08
1.13001e-09
1.41559e-08
9.10644e-10
1.34071e-08
7.48859e-10
1.27768e-08
6.30232e-10
1.22364e-08
5.40456e-10
1.17663e-08
4.7005e-10
1.13529e-08
4.13393e-10
1.0986e-08
3.66949e-10
1.06577e-08
3.28305e-10
1.03619e-08
2.95736e-10
1.0094e-08
2.67971e-10
9.84991e-09
2.4406e-10
9.62663e-09
2.23281e-10
9.42155e-09
2.05076e-10
9.23254e-09
1.89007e-10
9.05782e-09
1.74727e-10
8.89586e-09
1.61957e-10
8.74539e-09
1.50468e-10
8.60532e-09
1.40073e-10
8.4747e-09
1.30615e-10
8.35274e-09
1.21962e-10
8.23874e-09
1.14003e-10
8.1321e-09
1.06637e-10
8.03231e-09
9.97914e-11
7.93893e-09
9.33767e-11
7.85158e-09
8.73562e-11
7.76995e-09
8.16292e-11
7.69374e-09
7.62134e-11
7.62278e-09
7.0954e-11
7.55681e-09
6.59684e-11
7.49583e-09
6.0978e-11
7.43957e-09
5.62681e-11
7.3882e-09
5.13703e-11
7.34146e-09
4.67322e-11
7.29962e-09
4.18454e-11
7.26283e-09
3.67881e-11
7.23057e-09
3.22617e-11
7.20537e-09
2.51947e-11
7.18233e-09
2.30468e-11
7.17413e-09
8.1989e-12
7.15528e-09
1.88501e-11
7.19652e-09
-4.12375e-11
7.0227e-09
1.73812e-10
-3.1901e-09
1.02128e-08
1.26027e-07
1.27456e-07
9.12664e-08
6.74005e-08
7.19492e-08
2.82067e-08
6.12271e-08
1.42144e-08
5.47868e-08
8.38979e-09
5.02998e-08
5.91186e-09
4.68234e-08
4.60641e-09
4.40161e-08
3.71799e-09
4.16985e-08
3.0664e-09
3.9746e-08
2.58272e-09
3.80714e-08
2.21506e-09
3.66146e-08
1.92689e-09
3.53328e-08
1.69519e-09
3.41944e-08
1.5053e-09
3.31754e-08
1.3473e-09
3.22571e-08
1.21412e-09
3.14245e-08
1.10057e-09
3.06657e-08
1.00277e-09
2.99712e-08
9.17782e-10
2.9333e-08
8.43321e-10
2.87444e-08
7.77605e-10
2.81999e-08
7.19215e-10
2.76949e-08
6.67008e-10
2.72253e-08
6.20052e-10
2.67878e-08
5.7758e-10
2.63794e-08
5.38951e-10
2.59978e-08
5.03623e-10
2.56406e-08
4.71143e-10
2.53062e-08
4.41111e-10
2.49927e-08
4.13203e-10
2.4699e-08
3.87092e-10
2.44238e-08
3.62575e-10
2.41661e-08
3.39318e-10
2.39251e-08
3.17281e-10
2.37e-08
2.95987e-10
2.34903e-08
2.75708e-10
2.32957e-08
2.55553e-10
2.31155e-08
2.36451e-10
2.29503e-08
2.16572e-10
2.27989e-08
1.98127e-10
2.26632e-08
1.77537e-10
2.2541e-08
1.59038e-10
2.24365e-08
1.36752e-10
2.23455e-08
1.16173e-10
2.22759e-08
9.263e-11
2.22237e-08
6.03969e-11
2.21893e-08
5.32514e-11
2.22376e-08
-8.95364e-11
2.21264e-08
2.85086e-10
-3.94282e-09
2.28791e-08
1.58808e-07
1.35051e-07
1.36497e-07
8.97108e-08
1.17501e-07
4.72032e-08
1.0333e-07
2.83855e-08
9.33312e-08
1.83884e-08
8.6039e-08
1.32041e-08
8.03442e-08
1.03012e-08
7.57055e-08
8.35676e-09
7.18405e-08
6.93138e-09
6.85623e-08
5.86086e-09
6.57378e-08
5.03964e-09
6.32719e-08
4.39279e-09
6.1096e-08
3.8711e-09
5.91588e-08
3.44247e-09
5.74211e-08
3.08502e-09
5.58521e-08
2.78314e-09
5.44273e-08
2.52535e-09
5.3127e-08
2.30303e-09
5.19352e-08
2.10961e-09
5.08385e-08
1.93999e-09
4.98259e-08
1.79019e-09
4.88881e-08
1.657e-09
4.80173e-08
1.53786e-09
4.72067e-08
1.43068e-09
4.64505e-08
1.3337e-09
4.5744e-08
1.24549e-09
4.50828e-08
1.16483e-09
4.44633e-08
1.09068e-09
4.38822e-08
1.02214e-09
4.3337e-08
9.58475e-10
4.28251e-08
8.98961e-10
4.23446e-08
8.43089e-10
4.18937e-08
7.90185e-10
4.14709e-08
7.40036e-10
4.10752e-08
6.91736e-10
4.07052e-08
6.45671e-10
4.03607e-08
6.0011e-10
4.00403e-08
5.56849e-10
3.97449e-08
5.11978e-10
3.94724e-08
4.70622e-10
3.92262e-08
4.23691e-10
3.90015e-08
3.8378e-10
3.88076e-08
3.30591e-10
3.86324e-08
2.91419e-10
3.84983e-08
2.267e-10
3.83802e-08
1.78532e-10
3.83137e-08
1.19705e-10
3.8314e-08
-8.97623e-11
3.83344e-08
2.64692e-10
-3.79225e-09
3.81838e-08
1.75664e-07
1.30903e-07
1.65597e-07
9.97782e-08
1.5273e-07
6.007e-08
1.40138e-07
4.09777e-08
1.29457e-07
2.90686e-08
1.20826e-07
2.18359e-08
1.13727e-07
1.73999e-08
1.07761e-07
1.43224e-08
1.02677e-07
1.20152e-08
9.82932e-08
1.02451e-08
9.44687e-08
8.86409e-09
9.10983e-08
7.76323e-09
8.81018e-08
6.86757e-09
8.54177e-08
6.12661e-09
8.29975e-08
5.5052e-09
8.08027e-08
4.97791e-09
7.88022e-08
4.52584e-09
7.69706e-08
4.13468e-09
7.52868e-08
3.79339e-09
7.37334e-08
3.4934e-09
7.22957e-08
3.22789e-09
7.09613e-08
2.99142e-09
6.97195e-08
2.77958e-09
6.85615e-08
2.58876e-09
6.74792e-08
2.41594e-09
6.64661e-08
2.25861e-09
6.55163e-08
2.11465e-09
6.46247e-08
1.98225e-09
6.3787e-08
1.85986e-09
6.29993e-08
1.74614e-09
6.22584e-08
1.63989e-09
6.15614e-08
1.54014e-09
6.09057e-08
1.4458e-09
6.02894e-08
1.35638e-09
5.97107e-08
1.27044e-09
5.91679e-08
1.18843e-09
5.86604e-08
1.10765e-09
5.81864e-08
1.03083e-09
5.77468e-08
9.51585e-10
5.73389e-08
8.78521e-10
5.69668e-08
7.95762e-10
5.66243e-08
7.26331e-10
5.63232e-08
6.31732e-10
5.60476e-08
5.66928e-10
5.58261e-08
4.48233e-10
5.56265e-08
3.7812e-10
5.54966e-08
2.49642e-10
5.54265e-08
-1.96988e-11
5.54745e-08
2.16702e-10
-3.43423e-09
5.51165e-08
1.8456e-07
1.23128e-07
1.82322e-07
1.02016e-07
1.76107e-07
6.62854e-08
1.67769e-07
4.93151e-08
1.59154e-07
3.76836e-08
1.51256e-07
2.97345e-08
1.44196e-07
2.44595e-08
1.37912e-07
2.06066e-08
1.32329e-07
1.7598e-08
1.27364e-07
1.52106e-08
1.2293e-07
1.32982e-08
1.1895e-07
1.17426e-08
1.15361e-07
1.0457e-08
1.12107e-07
9.37999e-09
1.09145e-07
8.46744e-09
1.06437e-07
7.68645e-09
1.03951e-07
7.01203e-09
1.0166e-07
6.42489e-09
9.95437e-08
5.90994e-09
9.75819e-08
5.45524e-09
9.57585e-08
5.05124e-09
9.40597e-08
4.69021e-09
9.24735e-08
4.36584e-09
9.09894e-08
4.07288e-09
8.95983e-08
3.80699e-09
8.82925e-08
3.56446e-09
8.70649e-08
3.3422e-09
8.59096e-08
3.13751e-09
8.48214e-08
2.94809e-09
8.37956e-08
2.77196e-09
8.28282e-08
2.6073e-09
8.19157e-08
2.45267e-09
8.1055e-08
2.30645e-09
8.02436e-08
2.16782e-09
7.94792e-08
2.03479e-09
7.87599e-08
1.90776e-09
7.80845e-08
1.78305e-09
7.74511e-08
1.66422e-09
7.68603e-08
1.54243e-09
7.63092e-08
1.42963e-09
7.58017e-08
1.30323e-09
7.53316e-08
1.19637e-09
7.49104e-08
1.05296e-09
7.45235e-08
9.53802e-10
7.41964e-08
7.75362e-10
7.39038e-08
6.70697e-10
7.36832e-08
4.70245e-10
7.35341e-08
1.29402e-10
7.35157e-08
2.35125e-10
-3.01891e-09
7.31004e-08
1.90388e-07
1.14956e-07
1.91852e-07
1.00552e-07
1.90246e-07
6.78916e-08
1.86159e-07
5.34019e-08
1.80727e-07
4.31163e-08
1.74981e-07
3.54805e-08
1.69295e-07
3.01449e-08
1.63825e-07
2.60765e-08
1.58667e-07
2.27563e-08
1.53862e-07
2.00154e-08
1.49414e-07
1.77466e-08
1.45305e-07
1.58514e-08
1.41512e-07
1.42505e-08
1.38007e-07
1.28848e-08
1.34764e-07
1.17098e-08
1.3176e-07
1.06912e-08
1.2897e-07
9.80195e-09
1.26374e-07
9.02045e-09
1.23955e-07
8.32945e-09
1.21695e-07
7.71497e-09
1.19581e-07
7.16563e-09
1.17599e-07
6.67206e-09
1.15738e-07
6.22647e-09
1.13989e-07
5.82235e-09
1.12341e-07
5.45419e-09
1.10789e-07
5.11728e-09
1.09323e-07
4.80763e-09
1.07939e-07
4.52175e-09
1.0663e-07
4.25664e-09
1.05393e-07
4.00964e-09
1.04222e-07
3.77842e-09
1.03113e-07
3.56098e-09
1.02064e-07
3.35524e-09
1.01072e-07
3.15998e-09
1.00134e-07
2.97269e-09
9.92485e-08
2.79366e-09
9.84132e-08
2.61829e-09
9.76266e-08
2.45079e-09
9.68889e-08
2.28019e-09
9.61974e-08
2.12111e-09
9.55552e-08
1.9454e-09
9.49575e-08
1.79409e-09
9.44129e-08
1.5976e-09
9.39118e-08
1.45492e-09
9.34707e-08
1.21638e-09
9.30796e-08
1.0618e-09
9.27539e-08
7.96039e-10
9.2516e-08
3.67282e-10
9.23975e-08
3.53574e-10
-2.53117e-09
9.19098e-08
1.95541e-07
1.0723e-07
1.98248e-07
9.78452e-08
1.9897e-07
6.71693e-08
1.97792e-07
5.45803e-08
1.95164e-07
4.57445e-08
1.91828e-07
3.88163e-08
1.88104e-07
3.38683e-08
1.84165e-07
3.00158e-08
1.80159e-07
2.67622e-08
1.76197e-07
2.39778e-08
1.72346e-07
2.15975e-08
1.68645e-07
1.95521e-08
1.65115e-07
1.77809e-08
1.61763e-07
1.62369e-08
1.58589e-07
1.48833e-08
1.5559e-07
1.36904e-08
1.52758e-07
1.2634e-08
1.50084e-07
1.1694e-08
1.4756e-07
1.08536e-08
1.45176e-07
1.0099e-08
1.42923e-07
9.41864e-09
1.40793e-07
8.80266e-09
1.38776e-07
8.2428e-09
1.36867e-07
7.73194e-09
1.35057e-07
7.26402e-09
1.3334e-07
6.83374e-09
1.31712e-07
6.43654e-09
1.30165e-07
6.06841e-09
1.28696e-07
5.72583e-09
1.273e-07
5.40568e-09
1.25973e-07
5.10517e-09
1.24712e-07
4.82191e-09
1.23514e-07
4.55338e-09
1.22376e-07
4.29805e-09
1.21295e-07
4.05296e-09
1.20271e-07
3.81823e-09
1.19301e-07
3.58858e-09
1.18383e-07
3.36853e-09
1.17517e-07
3.14557e-09
1.16703e-07
2.936e-09
1.1594e-07
2.70797e-09
1.15227e-07
2.50709e-09
1.14568e-07
2.25613e-09
1.13961e-07
2.06224e-09
1.13411e-07
1.76633e-09
1.12924e-07
1.54883e-09
1.12495e-07
1.22547e-09
1.12161e-07
7.01459e-10
1.11939e-07
5.75093e-10
-1.96105e-09
1.11369e-07
2.00848e-07
9.99667e-08
2.03776e-07
9.49169e-08
2.05328e-07
6.56173e-08
2.05646e-07
5.42631e-08
2.04822e-07
4.65684e-08
2.03344e-07
4.02935e-08
2.01403e-07
3.58101e-08
1.99081e-07
3.23375e-08
1.96485e-07
2.93581e-08
1.93718e-07
2.67451e-08
1.9086e-07
2.44554e-08
1.87971e-07
2.24404e-08
1.85097e-07
2.06552e-08
1.82269e-07
1.90654e-08
1.79508e-07
1.7644e-08
1.76829e-07
1.6369e-08
1.74242e-07
1.52215e-08
1.7175e-07
1.41856e-08
1.69356e-07
1.32474e-08
1.6706e-07
1.23951e-08
1.64861e-07
1.16184e-08
1.62755e-07
1.09086e-08
1.6074e-07
1.02579e-08
1.58812e-07
9.65947e-09
1.56969e-07
9.10748e-09
1.55206e-07
8.59663e-09
1.5352e-07
8.12231e-09
1.51908e-07
7.68034e-09
1.50367e-07
7.26707e-09
1.48893e-07
6.87917e-09
1.47485e-07
6.51362e-09
1.46139e-07
6.1678e-09
1.44853e-07
5.83897e-09
1.43626e-07
5.52535e-09
1.42455e-07
5.22369e-09
1.4134e-07
4.93397e-09
1.40278e-07
4.65045e-09
1.39269e-07
4.37771e-09
1.38312e-07
4.10238e-09
1.37406e-07
3.84138e-09
1.36553e-07
3.56114e-09
1.35752e-07
3.30857e-09
1.35003e-07
3.00448e-09
1.34311e-07
2.75495e-09
1.33671e-07
2.40593e-09
1.33102e-07
2.11816e-09
1.32584e-07
1.7427e-09
1.32158e-07
1.12772e-09
1.31842e-07
8.91721e-10
-1.32112e-09
1.31202e-07
2.06447e-07
9.30517e-08
2.0934e-07
9.2024e-08
2.11038e-07
6.39192e-08
2.11933e-07
5.33679e-08
2.12005e-07
4.64973e-08
2.11621e-07
4.06767e-08
2.10896e-07
3.65352e-08
2.09832e-07
3.34016e-08
2.08467e-07
3.07235e-08
2.06858e-07
2.83534e-08
2.05063e-07
2.62506e-08
2.0313e-07
2.43731e-08
2.01103e-07
2.2683e-08
1.99016e-07
2.11523e-08
1.96899e-07
1.97608e-08
1.94776e-07
1.84922e-08
1.92665e-07
1.73329e-08
1.90579e-07
1.62711e-08
1.8853e-07
1.52966e-08
1.86525e-07
1.44003e-08
1.84569e-07
1.35741e-08
1.82666e-07
1.28111e-08
1.80819e-07
1.21047e-08
1.7903e-07
1.14494e-08
1.77297e-07
1.08398e-08
1.75623e-07
1.02713e-08
1.74005e-07
9.73982e-09
1.72444e-07
9.24132e-09
1.70939e-07
8.77238e-09
1.69488e-07
8.32975e-09
1.68091e-07
7.91051e-09
1.66747e-07
7.51198e-09
1.65455e-07
7.13142e-09
1.64213e-07
6.76695e-09
1.63022e-07
6.41524e-09
1.61879e-07
6.07613e-09
1.60786e-07
5.74372e-09
1.59741e-07
5.42248e-09
1.58745e-07
5.09875e-09
1.57797e-07
4.78927e-09
1.56898e-07
4.4604e-09
1.56049e-07
4.15769e-09
1.55249e-07
3.8046e-09
1.54504e-07
3.49917e-09
1.53808e-07
3.10261e-09
1.53182e-07
2.74365e-09
1.52605e-07
2.32028e-09
1.52105e-07
1.62705e-09
1.51711e-07
1.286e-09
-6.35535e-10
1.51025e-07
2.12289e-07
8.6425e-08
2.15153e-07
8.91601e-08
2.16793e-07
6.22795e-08
2.17846e-07
5.23146e-08
2.18263e-07
4.60802e-08
2.18382e-07
4.05579e-08
2.1831e-07
3.66075e-08
2.18015e-07
3.3696e-08
2.17491e-07
3.12475e-08
2.16757e-07
2.90881e-08
2.15836e-07
2.71716e-08
2.14753e-07
2.54552e-08
2.13536e-07
2.39001e-08
2.1221e-07
2.2479e-08
2.10797e-07
2.11733e-08
2.0932e-07
1.99693e-08
2.07797e-07
1.88559e-08
2.06244e-07
1.7824e-08
2.04675e-07
1.68658e-08
2.03101e-07
1.59746e-08
2.0153e-07
1.51443e-08
1.99972e-07
1.43695e-08
1.98431e-07
1.36453e-08
1.96914e-07
1.29672e-08
1.95422e-07
1.23311e-08
1.93961e-07
1.1733e-08
1.92531e-07
1.11695e-08
1.91135e-07
1.06372e-08
1.89774e-07
1.0133e-08
1.8845e-07
9.65415e-09
1.87163e-07
9.19782e-09
1.85913e-07
8.76158e-09
1.84702e-07
8.34282e-09
1.83529e-07
7.93974e-09
1.82395e-07
7.54906e-09
1.81301e-07
7.17059e-09
1.80246e-07
6.79845e-09
1.79231e-07
6.43696e-09
1.78258e-07
6.07259e-09
1.77325e-07
5.72136e-09
1.76435e-07
5.3508e-09
1.75589e-07
5.00327e-09
1.74786e-07
4.60807e-09
1.74034e-07
4.2507e-09
1.73323e-07
3.81367e-09
1.72679e-07
3.38848e-09
1.72077e-07
2.92173e-09
1.71536e-07
2.16805e-09
1.71092e-07
1.73054e-09
6.47731e-11
1.70391e-07
2.1833e-07
8.00756e-08
2.21207e-07
8.62836e-08
2.22765e-07
6.07208e-08
2.23845e-07
5.12344e-08
2.24372e-07
4.55536e-08
2.24668e-07
4.02614e-08
2.24872e-07
3.64039e-08
2.24955e-07
3.36129e-08
2.24896e-07
3.13068e-08
2.24694e-07
2.92897e-08
2.24355e-07
2.75106e-08
2.23885e-07
2.59252e-08
2.23294e-07
2.44919e-08
2.22592e-07
2.3181e-08
2.21792e-07
2.19726e-08
2.20909e-07
2.08527e-08
2.19954e-07
1.98104e-08
2.18941e-07
1.88373e-08
2.1788e-07
1.79266e-08
2.16782e-07
1.70725e-08
2.15656e-07
1.62701e-08
2.14511e-07
1.55151e-08
2.13353e-07
1.48035e-08
2.12188e-07
1.41318e-08
2.11023e-07
1.34967e-08
2.09861e-07
1.2895e-08
2.08706e-07
1.23239e-08
2.07563e-07
1.17806e-08
2.06433e-07
1.12625e-08
2.0532e-07
1.07672e-08
2.04226e-07
1.02921e-08
2.03152e-07
9.83529e-09
2.02101e-07
9.39421e-09
2.01073e-07
8.96726e-09
2.00071e-07
8.5513e-09
1.99095e-07
8.14622e-09
1.98148e-07
7.74626e-09
1.97229e-07
7.35556e-09
1.96341e-07
6.96104e-09
1.95484e-07
6.57764e-09
1.9466e-07
6.17497e-09
1.93872e-07
5.79089e-09
1.93118e-07
5.36272e-09
1.92408e-07
4.96091e-09
1.91729e-07
4.49193e-09
1.91108e-07
4.01008e-09
1.90524e-07
3.50578e-09
1.8998e-07
2.71188e-09
1.89519e-07
2.19115e-09
7.44511e-10
1.8884e-07
2.24559e-07
7.401e-08
2.27471e-07
8.33716e-08
2.28962e-07
5.92294e-08
2.30047e-07
5.0149e-08
2.30615e-07
4.49857e-08
2.30961e-07
3.99163e-08
2.31254e-07
3.61109e-08
2.31484e-07
3.3382e-08
2.31633e-07
3.11579e-08
2.31698e-07
2.92248e-08
2.31679e-07
2.75301e-08
2.31573e-07
2.60306e-08
2.31382e-07
2.46834e-08
2.31106e-07
2.34565e-08
2.30751e-07
2.23283e-08
2.3032e-07
2.12833e-08
2.2982e-07
2.03099e-08
2.29259e-07
1.9399e-08
2.28642e-07
1.85437e-08
2.27976e-07
1.77381e-08
2.27269e-07
1.69776e-08
2.26526e-07
1.62582e-08
2.25753e-07
1.55764e-08
2.24955e-07
1.4929e-08
2.24139e-07
1.43132e-08
2.23308e-07
1.37263e-08
2.22466e-07
1.31658e-08
2.21617e-07
1.26293e-08
2.20765e-07
1.21146e-08
2.19913e-07
1.16196e-08
2.19063e-07
1.1142e-08
2.18218e-07
1.06801e-08
2.17381e-07
1.02316e-08
2.16553e-07
9.79499e-09
2.15737e-07
9.36735e-09
2.14934e-07
8.94864e-09
2.14147e-07
8.53326e-09
2.13378e-07
8.12517e-09
2.12627e-07
7.71192e-09
2.11897e-07
7.30711e-09
2.11189e-07
6.88304e-09
2.10508e-07
6.4723e-09
2.09849e-07
6.02141e-09
2.09225e-07
5.58489e-09
2.08624e-07
5.09323e-09
2.08067e-07
4.56728e-09
2.0754e-07
4.03262e-09
2.07033e-07
3.21876e-09
2.06593e-07
2.63152e-09
1.36999e-09
2.05967e-07
2.3098e-07
6.82364e-08
2.33935e-07
8.04158e-08
2.35367e-07
5.77974e-08
2.36459e-07
4.90574e-08
2.37061e-07
4.43841e-08
2.37421e-07
3.95557e-08
2.37736e-07
3.57964e-08
2.38013e-07
3.31052e-08
2.38237e-07
3.09335e-08
2.38411e-07
2.90509e-08
2.38536e-07
2.74046e-08
2.38612e-07
2.59551e-08
2.38635e-07
2.46602e-08
2.38605e-07
2.34871e-08
2.3852e-07
2.24131e-08
2.38381e-07
2.14217e-08
2.38191e-07
2.05005e-08
2.3795e-07
1.96397e-08
2.37662e-07
1.88318e-08
2.3733e-07
1.80704e-08
2.36957e-07
1.73507e-08
2.36546e-07
1.66686e-08
2.36102e-07
1.60204e-08
2.35628e-07
1.54031e-08
2.35127e-07
1.48139e-08
2.34603e-07
1.42502e-08
2.34059e-07
1.37097e-08
2.33499e-07
1.31901e-08
2.32924e-07
1.26893e-08
2.32338e-07
1.22054e-08
2.31744e-07
1.17364e-08
2.31143e-07
1.12804e-08
2.30539e-07
1.08355e-08
2.29934e-07
1.04004e-08
2.2933e-07
9.97195e-09
2.28728e-07
9.55038e-09
2.28131e-07
9.13022e-09
2.27541e-07
8.71514e-09
2.26959e-07
8.2935e-09
2.26389e-07
7.8773e-09
2.2583e-07
7.44194e-09
2.25288e-07
7.01431e-09
2.24759e-07
6.55057e-09
2.24254e-07
6.08967e-09
2.23763e-07
5.58424e-09
2.23303e-07
5.02778e-09
2.22865e-07
4.47068e-09
2.22428e-07
3.65513e-09
2.2204e-07
3.01984e-09
1.91296e-09
2.21497e-07
2.37601e-07
6.27604e-08
2.40603e-07
7.74137e-08
2.41978e-07
5.64224e-08
2.43074e-07
4.79608e-08
2.43713e-07
4.37453e-08
2.44087e-07
3.91816e-08
2.44407e-07
3.54763e-08
2.44697e-07
3.28159e-08
2.44944e-07
3.06863e-08
2.45154e-07
2.88405e-08
2.45334e-07
2.72248e-08
2.45484e-07
2.58047e-08
2.45604e-07
2.45401e-08
2.45693e-07
2.33986e-08
2.45749e-07
2.23572e-08
2.45771e-07
2.13992e-08
2.4576e-07
2.05118e-08
2.45715e-07
1.96848e-08
2.45636e-07
1.89102e-08
2.45525e-07
1.81815e-08
2.45383e-07
1.74934e-08
2.4521e-07
1.68415e-08
2.45008e-07
1.6222e-08
2.4478e-07
1.56317e-08
2.44526e-07
1.50676e-08
2.44249e-07
1.45271e-08
2.43951e-07
1.40079e-08
2.43633e-07
1.35077e-08
2.43298e-07
1.30243e-08
2.42948e-07
1.25558e-08
2.42584e-07
1.21002e-08
2.42209e-07
1.16559e-08
2.41824e-07
1.12206e-08
2.41431e-07
1.07933e-08
2.41032e-07
1.03709e-08
2.40629e-07
9.95355e-09
2.40223e-07
9.53593e-09
2.39817e-07
9.12132e-09
2.39411e-07
8.69899e-09
2.39009e-07
8.27914e-09
2.38611e-07
7.84051e-09
2.38221e-07
7.40414e-09
2.37836e-07
6.93562e-09
2.37466e-07
6.45973e-09
2.37102e-07
5.948e-09
2.36756e-07
5.37373e-09
2.36425e-07
4.80192e-09
2.36081e-07
3.99941e-09
2.35766e-07
3.33427e-09
2.35539e-09
2.35324e-07
2.44431e-07
5.75859e-08
2.47473e-07
7.43718e-08
2.48799e-07
5.50963e-08
2.49895e-07
4.68639e-08
2.50573e-07
4.30678e-08
2.50964e-07
3.87903e-08
2.51289e-07
3.51518e-08
2.51584e-07
3.2521e-08
2.51839e-07
3.04314e-08
2.5206e-07
2.86191e-08
2.52257e-07
2.70279e-08
2.52433e-07
2.56284e-08
2.5259e-07
2.43835e-08
2.52727e-07
2.32614e-08
2.52845e-07
2.22393e-08
2.52943e-07
2.1301e-08
2.53021e-07
2.04337e-08
2.53079e-07
1.96271e-08
2.53116e-07
1.88732e-08
2.53132e-07
1.81654e-08
2.53127e-07
1.74981e-08
2.53102e-07
1.68668e-08
2.53056e-07
1.62676e-08
2.52991e-07
1.56971e-08
2.52906e-07
1.51522e-08
2.52803e-07
1.46303e-08
2.52683e-07
1.41287e-08
2.52545e-07
1.36451e-08
2.52392e-07
1.31775e-08
2.52224e-07
1.27236e-08
2.52043e-07
1.22816e-08
2.51849e-07
1.18496e-08
2.51644e-07
1.14255e-08
2.51429e-07
1.10081e-08
2.51206e-07
1.05944e-08
2.50975e-07
1.01844e-08
2.50738e-07
9.77289e-09
2.50496e-07
9.36274e-09
2.50251e-07
8.94419e-09
2.50005e-07
8.52546e-09
2.49757e-07
8.08869e-09
2.49512e-07
7.64929e-09
2.49266e-07
7.18149e-09
2.49028e-07
6.69796e-09
2.4879e-07
6.18524e-09
2.4856e-07
5.60364e-09
2.48339e-07
5.02376e-09
2.48093e-07
4.24467e-09
2.47862e-07
3.56577e-09
2.69189e-09
2.47525e-07
2.51478e-07
5.27146e-08
2.5455e-07
7.12998e-08
2.55838e-07
5.38088e-08
2.56929e-07
4.57722e-08
2.57645e-07
4.23525e-08
2.58056e-07
3.83789e-08
2.58386e-07
3.48213e-08
2.58687e-07
3.22208e-08
2.58947e-07
3.01711e-08
2.59173e-07
2.83931e-08
2.59375e-07
2.68255e-08
2.5956e-07
2.54441e-08
2.59728e-07
2.42149e-08
2.59882e-07
2.3107e-08
2.60024e-07
2.20982e-08
2.60152e-07
2.11724e-08
2.60269e-07
2.03173e-08
2.60373e-07
1.95229e-08
2.60465e-07
1.87813e-08
2.60544e-07
1.80857e-08
2.60612e-07
1.74308e-08
2.60666e-07
1.6812e-08
2.60709e-07
1.62254e-08
2.60738e-07
1.56675e-08
2.60755e-07
1.51353e-08
2.6076e-07
1.46258e-08
2.60752e-07
1.41365e-08
2.60732e-07
1.36649e-08
2.60701e-07
1.32089e-08
2.60658e-07
1.27663e-08
2.60604e-07
1.23351e-08
2.60541e-07
1.19133e-08
2.60467e-07
1.14988e-08
2.60385e-07
1.10904e-08
2.60294e-07
1.06849e-08
2.60197e-07
1.02823e-08
2.60092e-07
9.87763e-09
2.59982e-07
9.47301e-09
2.59866e-07
9.0598e-09
2.59747e-07
8.64421e-09
2.59624e-07
8.21167e-09
2.59501e-07
7.77242e-09
2.59374e-07
7.30817e-09
2.5925e-07
6.82198e-09
2.59124e-07
6.31129e-09
2.58998e-07
5.72993e-09
2.58875e-07
5.14711e-09
2.58722e-07
4.39741e-09
2.5857e-07
3.71763e-09
2.92909e-09
2.58333e-07
2.58751e-07
4.81466e-08
2.61843e-07
6.82076e-08
2.63103e-07
5.25493e-08
2.64184e-07
4.46909e-08
2.64935e-07
4.16019e-08
2.65368e-07
3.79453e-08
2.65706e-07
3.4484e-08
2.66012e-07
3.19149e-08
2.66277e-07
2.99052e-08
2.66508e-07
2.8163e-08
2.66713e-07
2.662e-08
2.669e-07
2.52566e-08
2.67073e-07
2.40423e-08
2.67233e-07
2.29471e-08
2.67382e-07
2.19492e-08
2.67521e-07
2.10332e-08
2.67652e-07
2.01868e-08
2.67774e-07
1.94006e-08
2.67889e-07
1.86666e-08
2.67996e-07
1.79784e-08
2.68096e-07
1.73309e-08
2.68189e-07
1.67193e-08
2.68274e-07
1.614e-08
2.68352e-07
1.55894e-08
2.68423e-07
1.50645e-08
2.68486e-07
1.45625e-08
2.68542e-07
1.40807e-08
2.6859e-07
1.36167e-08
2.68631e-07
1.31681e-08
2.68665e-07
1.27329e-08
2.68691e-07
1.23089e-08
2.6871e-07
1.18942e-08
2.68722e-07
1.14866e-08
2.68728e-07
1.10847e-08
2.68727e-07
1.06856e-08
2.68721e-07
1.02888e-08
2.68709e-07
9.88976e-09
2.68692e-07
9.4899e-09
2.6867e-07
9.08166e-09
2.68645e-07
8.66933e-09
2.68615e-07
8.24132e-09
2.68584e-07
7.80343e-09
2.68549e-07
7.34349e-09
2.68513e-07
6.85749e-09
2.68474e-07
6.35e-09
2.68431e-07
5.77366e-09
2.68386e-07
5.19149e-09
2.6831e-07
4.47341e-09
2.68226e-07
3.80207e-09
3.0823e-09
2.68073e-07
2.66259e-07
4.38801e-08
2.69361e-07
6.51056e-08
2.70603e-07
5.13073e-08
2.71669e-07
4.36242e-08
2.72452e-07
4.08196e-08
2.72909e-07
3.74878e-08
2.73254e-07
3.41388e-08
2.73566e-07
3.16032e-08
2.73838e-07
2.96333e-08
2.74072e-07
2.79285e-08
2.74281e-07
2.64115e-08
2.74471e-07
2.50667e-08
2.74646e-07
2.38674e-08
2.74808e-07
2.27848e-08
2.7496e-07
2.17975e-08
2.75103e-07
2.08903e-08
2.75238e-07
2.00515e-08
2.75367e-07
1.92718e-08
2.7549e-07
1.85436e-08
2.75608e-07
1.78606e-08
2.75721e-07
1.72178e-08
2.75829e-07
1.66108e-08
2.75933e-07
1.60358e-08
2.76033e-07
1.54894e-08
2.76129e-07
1.49687e-08
2.76221e-07
1.44708e-08
2.76308e-07
1.39932e-08
2.76392e-07
1.35334e-08
2.76471e-07
1.30891e-08
2.76545e-07
1.26582e-08
2.76616e-07
1.22385e-08
2.76682e-07
1.1828e-08
2.76744e-07
1.14247e-08
2.76802e-07
1.10269e-08
2.76855e-07
1.06319e-08
2.76905e-07
1.02389e-08
2.76951e-07
9.84373e-09
2.76994e-07
9.44715e-09
2.77033e-07
9.04262e-09
2.7707e-07
8.63271e-09
2.77103e-07
8.20843e-09
2.77134e-07
7.77196e-09
2.77162e-07
7.31584e-09
2.77188e-07
6.83138e-09
2.77211e-07
6.32711e-09
2.77226e-07
5.75834e-09
2.77238e-07
5.17923e-09
2.77219e-07
4.49225e-09
2.77186e-07
3.83544e-09
3.17072e-09
2.77098e-07
2.74009e-07
3.99119e-08
2.7711e-07
6.2005e-08
2.78345e-07
5.00725e-08
2.79393e-07
4.25757e-08
2.80203e-07
4.00094e-08
2.80686e-07
3.70048e-08
2.8104e-07
3.37849e-08
2.81358e-07
3.12859e-08
2.81636e-07
2.93551e-08
2.81875e-07
2.7689e-08
2.82087e-07
2.61996e-08
2.8228e-07
2.48743e-08
2.82457e-07
2.36904e-08
2.82621e-07
2.26207e-08
2.82774e-07
2.16441e-08
2.82919e-07
2.07457e-08
2.83056e-07
1.99143e-08
2.83187e-07
1.91407e-08
2.83313e-07
1.84176e-08
2.83434e-07
1.77391e-08
2.83552e-07
1.71e-08
2.83667e-07
1.64963e-08
2.83778e-07
1.59242e-08
2.83887e-07
1.53806e-08
2.83993e-07
1.48624e-08
2.84097e-07
1.43669e-08
2.84199e-07
1.38916e-08
2.84298e-07
1.34342e-08
2.84395e-07
1.29922e-08
2.8449e-07
1.25635e-08
2.84582e-07
1.21461e-08
2.84672e-07
1.17379e-08
2.8476e-07
1.13368e-08
2.84846e-07
1.09413e-08
2.84929e-07
1.05486e-08
2.8501e-07
1.01577e-08
2.85089e-07
9.76487e-09
2.85166e-07
9.37013e-09
2.85241e-07
8.96798e-09
2.85314e-07
8.55945e-09
2.85385e-07
8.13776e-09
2.85454e-07
7.70233e-09
2.85521e-07
7.24906e-09
2.85586e-07
6.76666e-09
2.85648e-07
6.26518e-09
2.85701e-07
5.70505e-09
2.8575e-07
5.13065e-09
2.85769e-07
4.47267e-09
2.85771e-07
3.8339e-09
3.21315e-09
2.85728e-07
2.82013e-07
3.62364e-08
2.85101e-07
5.89172e-08
2.86338e-07
4.88355e-08
2.87365e-07
4.15482e-08
2.88199e-07
3.91763e-08
2.88708e-07
3.64951e-08
2.89072e-07
3.34211e-08
2.89395e-07
3.09629e-08
2.8968e-07
2.90705e-08
2.89924e-07
2.74442e-08
2.9014e-07
2.5984e-08
2.90335e-07
2.4679e-08
2.90514e-07
2.35112e-08
2.9068e-07
2.24548e-08
2.90835e-07
2.14892e-08
2.90981e-07
2.05999e-08
2.9112e-07
1.97758e-08
2.91252e-07
1.90083e-08
2.91379e-07
1.82903e-08
2.91502e-07
1.7616e-08
2.91622e-07
1.69804e-08
2.91739e-07
1.63796e-08
2.91853e-07
1.58099e-08
2.91965e-07
1.52683e-08
2.92076e-07
1.47519e-08
2.92185e-07
1.42581e-08
2.92292e-07
1.37843e-08
2.92398e-07
1.33282e-08
2.92503e-07
1.28875e-08
2.92606e-07
1.24601e-08
2.92708e-07
1.20438e-08
2.9281e-07
1.16368e-08
2.9291e-07
1.12368e-08
2.93009e-07
1.08424e-08
2.93106e-07
1.04508e-08
2.93203e-07
1.00609e-08
2.93299e-07
9.66924e-09
2.93394e-07
9.27532e-09
2.93487e-07
8.87449e-09
2.9358e-07
8.46656e-09
2.93671e-07
8.04647e-09
2.93762e-07
7.61169e-09
2.93851e-07
7.16035e-09
2.93937e-07
6.6802e-09
2.94021e-07
6.18108e-09
2.94096e-07
5.62983e-09
2.94166e-07
5.06138e-09
2.94209e-07
4.42961e-09
2.94232e-07
3.81057e-09
3.22506e-09
2.9422e-07
2.90279e-07
3.28467e-08
2.93342e-07
5.5854e-08
2.9459e-07
4.75873e-08
2.95595e-07
4.05434e-08
2.96446e-07
3.83252e-08
2.96983e-07
3.59577e-08
2.97358e-07
3.30459e-08
2.97687e-07
3.06344e-08
2.97978e-07
2.87796e-08
2.98228e-07
2.71939e-08
2.98448e-07
2.57645e-08
2.98646e-07
2.44808e-08
2.98828e-07
2.33295e-08
2.98996e-07
2.22868e-08
2.99152e-07
2.13326e-08
2.993e-07
2.04525e-08
2.99439e-07
1.96361e-08
2.99573e-07
1.88749e-08
2.99701e-07
1.8162e-08
2.99825e-07
1.74918e-08
2.99946e-07
1.68597e-08
3.00064e-07
1.62616e-08
3.0018e-07
1.56943e-08
3.00293e-07
1.51546e-08
3.00405e-07
1.46398e-08
3.00516e-07
1.41472e-08
3.00626e-07
1.36746e-08
3.00735e-07
1.32194e-08
3.00843e-07
1.27795e-08
3.0095e-07
1.23529e-08
3.01056e-07
1.19372e-08
3.01162e-07
1.15308e-08
3.01268e-07
1.11314e-08
3.01373e-07
1.07374e-08
3.01477e-07
1.03463e-08
3.01581e-07
9.95684e-09
3.01685e-07
9.56572e-09
3.01788e-07
9.17203e-09
3.01891e-07
8.77187e-09
3.01993e-07
8.36407e-09
3.02095e-07
7.94489e-09
3.02196e-07
7.51057e-09
3.02296e-07
7.06051e-09
3.02393e-07
6.5827e-09
3.02488e-07
6.08578e-09
3.02575e-07
5.54328e-09
3.02655e-07
4.98181e-09
3.02711e-07
4.3734e-09
3.02747e-07
3.77453e-09
3.21756e-09
3.02754e-07
2.98815e-07
2.97338e-08
3.01842e-07
5.28274e-08
3.03109e-07
4.63199e-08
3.0409e-07
3.95623e-08
3.04954e-07
3.74618e-08
3.0552e-07
3.53921e-08
3.05908e-07
3.26578e-08
3.06242e-07
3.03001e-08
3.06539e-07
2.84823e-08
3.06795e-07
2.69376e-08
3.07019e-07
2.55406e-08
3.07221e-07
2.42793e-08
3.07405e-07
2.31451e-08
3.07575e-07
2.21166e-08
3.07734e-07
2.11741e-08
3.07883e-07
2.03037e-08
3.08024e-07
1.94951e-08
3.08158e-07
1.87403e-08
3.08288e-07
1.80326e-08
3.08413e-07
1.73667e-08
3.08535e-07
1.6738e-08
3.08653e-07
1.61428e-08
3.0877e-07
1.55777e-08
3.08885e-07
1.50398e-08
3.08998e-07
1.45265e-08
3.0911e-07
1.40352e-08
3.09221e-07
1.35636e-08
3.09331e-07
1.31093e-08
3.09441e-07
1.26701e-08
3.0955e-07
1.22439e-08
3.09658e-07
1.18287e-08
3.09766e-07
1.14227e-08
3.09874e-07
1.10236e-08
3.09982e-07
1.06298e-08
3.10089e-07
1.02389e-08
3.10196e-07
9.84951e-09
3.10304e-07
9.45861e-09
3.10411e-07
9.06489e-09
3.10518e-07
8.66503e-09
3.10624e-07
8.25719e-09
3.10731e-07
7.83853e-09
3.10837e-07
7.40465e-09
3.10942e-07
6.95553e-09
3.11044e-07
6.48019e-09
3.11144e-07
5.98556e-09
3.11236e-07
5.45154e-09
3.1132e-07
4.89792e-09
3.11383e-07
4.31029e-09
3.11426e-07
3.73121e-09
3.19774e-09
3.11446e-07
3.07634e-07
2.68873e-08
3.10612e-07
4.98495e-08
3.11905e-07
4.50268e-08
3.12862e-07
3.86047e-08
3.13733e-07
3.65913e-08
3.14326e-07
3.47987e-08
3.14729e-07
3.22552e-08
3.15069e-07
2.99599e-08
3.15373e-07
2.81787e-08
3.15635e-07
2.66751e-08
3.15864e-07
2.5312e-08
3.16069e-07
2.40744e-08
3.16256e-07
2.29579e-08
3.16429e-07
2.1944e-08
3.16589e-07
2.10136e-08
3.1674e-07
2.0153e-08
3.16882e-07
1.93525e-08
3.17018e-07
1.86043e-08
3.17149e-07
1.7902e-08
3.17275e-07
1.72404e-08
3.17398e-07
1.66153e-08
3.17518e-07
1.60229e-08
3.17635e-07
1.54602e-08
3.17751e-07
1.49242e-08
3.17865e-07
1.44124e-08
3.17978e-07
1.39223e-08
3.1809e-07
1.34516e-08
3.18201e-07
1.29981e-08
3.18312e-07
1.25595e-08
3.18422e-07
1.21339e-08
3.18531e-07
1.1719e-08
3.18641e-07
1.13132e-08
3.1875e-07
1.09143e-08
3.18859e-07
1.05207e-08
3.18968e-07
1.013e-08
3.19077e-07
9.74052e-09
3.19186e-07
9.34972e-09
3.19295e-07
8.95588e-09
3.19404e-07
8.55618e-09
3.19513e-07
8.14828e-09
3.19621e-07
7.72996e-09
3.19729e-07
7.2966e-09
3.19837e-07
6.84834e-09
3.19941e-07
6.37559e-09
3.20043e-07
5.88355e-09
3.20137e-07
5.35772e-09
3.20222e-07
4.81267e-09
3.20289e-07
4.24359e-09
3.20337e-07
3.68344e-09
3.16965e-09
3.20365e-07
3.16743e-07
2.42951e-08
3.19661e-07
4.69323e-08
3.20985e-07
4.37025e-08
3.2192e-07
3.76697e-08
3.22792e-07
3.57189e-08
3.23413e-07
3.41785e-08
3.23831e-07
3.18366e-08
3.24178e-07
2.96134e-08
3.24487e-07
2.78689e-08
3.24756e-07
2.64061e-08
3.2499e-07
2.50784e-08
3.25199e-07
2.38657e-08
3.25389e-07
2.27676e-08
3.25564e-07
2.17687e-08
3.25727e-07
2.08508e-08
3.2588e-07
2.00005e-08
3.26024e-07
1.92083e-08
3.26161e-07
1.84668e-08
3.26293e-07
1.777e-08
3.26421e-07
1.71129e-08
3.26545e-07
1.64914e-08
3.26666e-07
1.5902e-08
3.26784e-07
1.53415e-08
3.26901e-07
1.48075e-08
3.27016e-07
1.42972e-08
3.2713e-07
1.38083e-08
3.27243e-07
1.33387e-08
3.27355e-07
1.28859e-08
3.27467e-07
1.2448e-08
3.27578e-07
1.20228e-08
3.27689e-07
1.16083e-08
3.27799e-07
1.12028e-08
3.27909e-07
1.08041e-08
3.2802e-07
1.04105e-08
3.2813e-07
1.00199e-08
3.2824e-07
9.63043e-09
3.2835e-07
9.23969e-09
3.2846e-07
8.84576e-09
3.2857e-07
8.44614e-09
3.2868e-07
8.03826e-09
3.2879e-07
7.62023e-09
3.28899e-07
7.18755e-09
3.29007e-07
6.74019e-09
3.29112e-07
6.27018e-09
3.29215e-07
5.78113e-09
3.29309e-07
5.2632e-09
3.29395e-07
4.72721e-09
3.29463e-07
4.17483e-09
3.29514e-07
3.63243e-09
3.13543e-09
3.29549e-07
3.26154e-07
2.19438e-08
3.28999e-07
4.40875e-08
3.30358e-07
4.23433e-08
3.31272e-07
3.67552e-08
3.32142e-07
3.48495e-08
3.32787e-07
3.35332e-08
3.33223e-07
3.14005e-08
3.33577e-07
2.92598e-08
3.33893e-07
2.75529e-08
3.34168e-07
2.61305e-08
3.34407e-07
2.48393e-08
3.3462e-07
2.3653e-08
3.34814e-07
2.2574e-08
3.34992e-07
2.15906e-08
3.35157e-07
2.06855e-08
3.35312e-07
1.98458e-08
3.35458e-07
1.90621e-08
3.35597e-07
1.83276e-08
3.35731e-07
1.76365e-08
3.35859e-07
1.6984e-08
3.35985e-07
1.63662e-08
3.36107e-07
1.57798e-08
3.36227e-07
1.52217e-08
3.36345e-07
1.46896e-08
3.36461e-07
1.41809e-08
3.36576e-07
1.36933e-08
3.3669e-07
1.32246e-08
3.36803e-07
1.27727e-08
3.36916e-07
1.23354e-08
3.37028e-07
1.19107e-08
3.3714e-07
1.14966e-08