/*--------------------------------*- C++ -*----------------------------------*\
  =========                 |
  \\      /  F ield         | OpenFOAM: The Open Source CFD Toolbox
   \\    /   O peration     | Website:  https://openfoam.org
    \\  /    A nd           | Version:  7
     \\/     M anipulation  |
\*---------------------------------------------------------------------------*/
FoamFile
{
    version     2.0;
    format      ascii;
    class       volVectorField;
    location    "0.1";
    object      U;
}
// * * * * * * * * * * * * * * * * * * * * * * * * * * * * * * * * * * * * * //

dimensions      [0 1 -1 0 0 0 0];

internalField   nonuniform List<vector> 
70000
(
(0.553391 0.016723 0)
(0.251266 0.00340092 0)
(0.166212 0.000321899 0)
(0.132473 5.41883e-05 0)
(0.117291 4.56237e-05 0)
(0.107378 5.37922e-05 0)
(0.0994425 4.6153e-05 0)
(0.093017 3.68067e-05 0)
(0.0877887 3.04844e-05 0)
(0.0834375 2.61484e-05 0)
(0.079735 2.28402e-05 0)
(0.0765329 2.01875e-05 0)
(0.0737299 1.80212e-05 0)
(0.0712517 1.62283e-05 0)
(0.0690421 1.4725e-05 0)
(0.0670577 1.3449e-05 0)
(0.0652643 1.23536e-05 0)
(0.0636347 1.14038e-05 0)
(0.0621468 1.05726e-05 0)
(0.0607826 9.83879e-06 0)
(0.0595273 9.1861e-06 0)
(0.0583684 8.60123e-06 0)
(0.0572954 8.07356e-06 0)
(0.0562997 7.59443e-06 0)
(0.0553735 7.15652e-06 0)
(0.0545105 6.75393e-06 0)
(0.0537051 6.38107e-06 0)
(0.0529526 6.03433e-06 0)
(0.0522489 5.70807e-06 0)
(0.0515904 5.40201e-06 0)
(0.0509741 5.10778e-06 0)
(0.0503974 4.83104e-06 0)
(0.0498582 4.55658e-06 0)
(0.0493543 4.30091e-06 0)
(0.0488845 4.03509e-06 0)
(0.0484474 3.79337e-06 0)
(0.0480417 3.52894e-06 0)
(0.0476677 3.28584e-06 0)
(0.047322 3.03709e-06 0)
(0.0470117 2.73014e-06 0)
(0.0467213 2.60148e-06 0)
(0.0464826 1.98585e-06 0)
(0.0462358 2.41089e-06 0)
(0.0460968 6.19896e-07 0)
(0.0458578 3.1012e-06 0)
(0.045901 -2.74674e-06 0)
(0.0455622 6.67698e-06 0)
(0.0459974 -1.26653e-05 0)
(0.0454661 3.07312e-05 0)
(0.0432275 -0.00166765 0)
(0.884899 0.0431672 0)
(0.649723 0.0201935 0)
(0.494341 0.00659757 0)
(0.403704 0.00276668 0)
(0.354802 0.00155092 0)
(0.323527 0.00113033 0)
(0.299701 0.000908948 0)
(0.280542 0.000744858 0)
(0.264871 0.000621823 0)
(0.251796 0.000530895 0)
(0.240667 0.000461839 0)
(0.23104 0.000407477 0)
(0.22261 0.000363532 0)
(0.215154 0.000327339 0)
(0.208502 0.000297082 0)
(0.202525 0.000271457 0)
(0.19712 0.000249506 0)
(0.192207 0.000230506 0)
(0.187718 0.000213908 0)
(0.1836 0.000199287 0)
(0.179809 0.000186308 0)
(0.176306 0.000174704 0)
(0.173061 0.00016426 0)
(0.170048 0.0001548 0)
(0.167242 0.000146175 0)
(0.164626 0.000138263 0)
(0.162182 0.000130958 0)
(0.159896 0.000124171 0)
(0.157757 0.00011782 0)
(0.155752 0.000111841 0)
(0.153873 0.000106159 0)
(0.152112 0.000100741 0)
(0.150462 9.54965e-05 0)
(0.148918 9.04392e-05 0)
(0.147474 8.54184e-05 0)
(0.146128 8.05513e-05 0)
(0.144875 7.55379e-05 0)
(0.143715 7.07026e-05 0)
(0.14264 6.54581e-05 0)
(0.141668 6.046e-05 0)
(0.140758 5.47509e-05 0)
(0.139994 4.91687e-05 0)
(0.139219 4.29848e-05 0)
(0.138738 3.54421e-05 0)
(0.138006 3.00334e-05 0)
(0.138022 1.50575e-05 0)
(0.137073 2.02887e-05 0)
(0.138094 -4.86886e-05 0)
(0.136714 0.000199517 0)
(0.135861 -0.00281293 0)
(0.991237 0.0499011 0)
(0.890353 0.0307178 0)
(0.762705 0.0145961 0)
(0.656719 0.00797748 0)
(0.585427 0.00488217 0)
(0.536063 0.00346787 0)
(0.498243 0.00273182 0)
(0.467678 0.00223898 0)
(0.442424 0.00187531 0)
(0.42118 0.0016032 0)
(0.402999 0.00139528 0)
(0.387214 0.00123158 0)
(0.373348 0.00109934 0)
(0.36105 0.000990439 0)
(0.350055 0.000899377 0)
(0.340156 0.000822236 0)
(0.33119 0.000756137 0)
(0.323026 0.000698916 0)
(0.315557 0.000648928 0)
(0.308697 0.000604895 0)
(0.302372 0.000565814 0)
(0.296523 0.000530883 0)
(0.291098 0.000499456 0)
(0.286053 0.000471 0)
(0.281352 0.000445075 0)
(0.276963 0.000421309 0)
(0.272858 0.000399386 0)
(0.269014 0.000379035 0)
(0.26541 0.000360015 0)
(0.262029 0.000342127 0)
(0.258855 0.000325165 0)
(0.255874 0.000308998 0)
(0.253078 0.000293401 0)
(0.250453 0.000278349 0)
(0.247995 0.000263489 0)
(0.245694 0.000249036 0)
(0.243546 0.000234264 0)
(0.24155 0.000219966 0)
(0.239692 0.000204495 0)
(0.237999 0.000189968 0)
(0.23641 0.000172698 0)
(0.235046 0.000157537 0)
(0.233683 0.000136875 0)
(0.232754 0.000120007 0)
(0.231488 9.44919e-05 0)
(0.23129 6.91121e-05 0)
(0.229776 5.14461e-05 0)
(0.230977 -7.4774e-05 0)
(0.22883 0.000220904 0)
(0.230315 -0.00288884 0)
(1.0156 0.0489199 0)
(1.00596 0.0358736 0)
(0.935966 0.0207892 0)
(0.85216 0.0135007 0)
(0.782255 0.00920313 0)
(0.727102 0.00677534 0)
(0.682076 0.00537643 0)
(0.644384 0.00443616 0)
(0.612439 0.00374136 0)
(0.585053 0.00321451 0)
(0.561287 0.00280725 0)
(0.540436 0.00248443 0)
(0.521968 0.00222253 0)
(0.50548 0.0020061 0)
(0.490657 0.00182458 0)
(0.477249 0.00167043 0)
(0.465055 0.00153807 0)
(0.453914 0.00142328 0)
(0.44369 0.00132286 0)
(0.434274 0.00123429 0)
(0.425571 0.00115561 0)
(0.417504 0.00108524 0)
(0.410007 0.00102189 0)
(0.403021 0.000964514 0)
(0.396499 0.000912234 0)
(0.390398 0.000864311 0)
(0.384683 0.000820116 0)
(0.37932 0.000779109 0)
(0.374284 0.000740816 0)
(0.369549 0.000704829 0)
(0.365097 0.000670756 0)
(0.360907 0.000638309 0)
(0.356966 0.000607082 0)
(0.353259 0.000576962 0)
(0.349777 0.000547346 0)
(0.346508 0.000518528 0)
(0.343446 0.000489245 0)
(0.340587 0.000460869 0)
(0.337915 0.000430325 0)
(0.335459 0.00040178 0)
(0.333151 0.000367538 0)
(0.331127 0.000338664 0)
(0.32913 0.000296504 0)
(0.327653 0.000267418 0)
(0.325828 0.000210903 0)
(0.325216 0.000175172 0)
(0.32321 0.000114346 0)
(0.324151 -5.14889e-05 0)
(0.321522 0.000172493 0)
(0.323761 -0.00262259 0)
(1.01434 0.0460033 0)
(1.04753 0.0374869 0)
(1.02459 0.0241484 0)
(0.974782 0.0175542 0)
(0.923497 0.0131154 0)
(0.876766 0.010197 0)
(0.83466 0.00833131 0)
(0.796981 0.00700819 0)
(0.7635 0.00599638 0)
(0.733776 0.00520694 0)
(0.707298 0.00458304 0)
(0.683593 0.00408059 0)
(0.662262 0.00366815 0)
(0.642971 0.00332419 0)
(0.625443 0.00303355 0)
(0.609447 0.0027852 0)
(0.594791 0.00257084 0)
(0.581312 0.00238414 0)
(0.568873 0.00222021 0)
(0.55736 0.00207517 0)
(0.546673 0.00194599 0)
(0.536727 0.00183018 0)
(0.527449 0.00172574 0)
(0.518777 0.001631 0)
(0.510655 0.00154456 0)
(0.503036 0.00146526 0)
(0.495878 0.00139207 0)
(0.489145 0.00132414 0)
(0.482806 0.00126069 0)
(0.476831 0.00120108 0)
(0.471198 0.00114467 0)
(0.465884 0.00109098 0)
(0.460872 0.00103938 0)
(0.456144 0.000989647 0)
(0.451689 0.000940883 0)
(0.447494 0.000893432 0)
(0.443549 0.000845451 0)
(0.43985 0.000798892 0)
(0.43638 0.000749127 0)
(0.433164 0.000702539 0)
(0.430136 0.000646983 0)
(0.427428 0.000600413 0)
(0.424792 0.000531913 0)
(0.4227 0.000486501 0)
(0.420325 0.000393682 0)
(0.419143 0.000342127 0)
(0.416734 0.000232382 0)
(0.417044 2.586e-05 0)
(0.414293 0.000151756 0)
(0.415868 -0.00232856 0)
(1.00933 0.0429146 0)
(1.05528 0.0372619 0)
(1.05869 0.0252921 0)
(1.03638 0.0197528 0)
(1.00713 0.0158025 0)
(0.976115 0.0129239 0)
(0.944635 0.0109447 0)
(0.913828 0.0094597 0)
(0.884547 0.0082664 0)
(0.857175 0.00729571 0)
(0.831793 0.00650286 0)
(0.808335 0.00584783 0)
(0.786681 0.00529925 0)
(0.766685 0.00483433 0)
(0.748201 0.00443627 0)
(0.731087 0.00409238 0)
(0.715212 0.00379281 0)
(0.700457 0.00352985 0)
(0.686715 0.0032974 0)
(0.673893 0.00309058 0)
(0.661907 0.00290545 0)
(0.65068 0.00273877 0)
(0.640149 0.00258789 0)
(0.630254 0.00245058 0)
(0.620943 0.00232496 0)
(0.61217 0.00220943 0)
(0.603895 0.00210261 0)
(0.596082 0.00200329 0)
(0.588699 0.00191042 0)
(0.581717 0.00182308 0)
(0.575111 0.00174039 0)
(0.56886 0.00166166 0)
(0.562944 0.00158604 0)
(0.557345 0.00151313 0)
(0.552051 0.00144178 0)
(0.547048 0.00137231 0)
(0.542325 0.00130234 0)
(0.537877 0.00123431 0)
(0.533688 0.00116215 0)
(0.529777 0.00109419 0)
(0.52609 0.00101427 0)
(0.522734 0.000946346 0)
(0.519502 0.000848939 0)
(0.516794 0.000782194 0)
(0.513913 0.000652567 0)
(0.512091 0.00057584 0)
(0.509356 0.000421727 0)
(0.508846 0.000159866 0)
(0.506129 0.000200205 0)
(0.506587 -0.00200191 0)
(1.00625 0.0400331 0)
(1.05206 0.0363343 0)
(1.06609 0.0252209 0)
(1.05961 0.0205516 0)
(1.0469 0.0172278 0)
(1.03084 0.0146415 0)
(1.01197 0.0128012 0)
(0.991335 0.0113721 0)
(0.969984 0.0101714 0)
(0.948652 0.0091516 0)
(0.927783 0.0082873 0)
(0.90764 0.00755075 0)
(0.888368 0.0069176 0)
(0.870037 0.00636903 0)
(0.852664 0.00589052 0)
(0.836236 0.00547051 0)
(0.820719 0.00509964 0)
(0.806071 0.00477027 0)
(0.792243 0.00447617 0)
(0.779186 0.00421219 0)
(0.766851 0.00397405 0)
(0.75519 0.00375821 0)
(0.744158 0.00356165 0)
(0.733714 0.00338183 0)
(0.723819 0.00321656 0)
(0.714438 0.00306393 0)
(0.705538 0.0029223 0)
(0.697089 0.00279021 0)
(0.689065 0.00266637 0)
(0.681441 0.00254962 0)
(0.674196 0.00243889 0)
(0.667309 0.00233328 0)
(0.660766 0.00223176 0)
(0.654547 0.00213377 0)
(0.648644 0.00203791 0)
(0.643041 0.00194445 0)
(0.637731 0.00185058 0)
(0.632705 0.00175902 0)
(0.627954 0.00166259 0)
(0.623488 0.00157101 0)
(0.619268 0.00146513 0)
(0.615373 0.00137297 0)
(0.611648 0.00124604 0)
(0.608397 0.00115318 0)
(0.605095 0.00098914 0)
(0.602669 0.000877768 0)
(0.599667 0.000686792 0)
(0.598354 0.000361229 0)
(0.595638 0.000323342 0)
(0.59507 -0.00161645 0)
(1.00495 0.037355 0)
(1.04727 0.035252 0)
(1.06398 0.0246806 0)
(1.06426 0.0205773 0)
(1.0607 0.0177644 0)
(1.05478 0.0154824 0)
(1.04604 0.0138561 0)
(1.03489 0.012591 0)
(1.02202 0.0115002 0)
(1.00805 0.0105425 0)
(0.993431 0.00970466 0)
(0.978523 0.00896948 0)
(0.96359 0.00832032 0)
(0.948826 0.00774409 0)
(0.934365 0.00723047 0)
(0.9203 0.00677094 0)
(0.906688 0.00635827 0)
(0.893563 0.00598629 0)
(0.880942 0.00564972 0)
(0.868828 0.00534407 0)
(0.857217 0.00506548 0)
(0.846098 0.0048106 0)
(0.835456 0.00457658 0)
(0.825276 0.00436088 0)
(0.815539 0.0041613 0)
(0.806227 0.00397588 0)
(0.797323 0.0038029 0)
(0.788808 0.00364077 0)
(0.780667 0.0034881 0)
(0.772882 0.00334361 0)
(0.765441 0.00320611 0)
(0.758328 0.00307456 0)
(0.751534 0.00294779 0)
(0.745044 0.00282511 0)
(0.738852 0.00270494 0)
(0.732945 0.00258751 0)
(0.727322 0.00246965 0)
(0.721972 0.00235425 0)
(0.716892 0.00223337 0)
(0.712085 0.00211745 0)
(0.707529 0.00198563 0)
(0.703277 0.00186775 0)
(0.699222 0.00171233 0)
(0.695581 0.00159008 0)
(0.691984 0.00139517 0)
(0.689088 0.00124296 0)
(0.685889 0.00102041 0)
(0.683927 0.00063295 0)
(0.681156 0.000518247 0)
(0.67979 -0.00117348 0)
(1.0044 0.034807 0)
(1.04324 0.0341786 0)
(1.05994 0.0240392 0)
(1.0623 0.0202829 0)
(1.06251 0.0178275 0)
(1.06183 0.0157623 0)
(1.05928 0.0143088 0)
(1.05476 0.0132083 0)
(1.04857 0.012259 0)
(1.04104 0.0114125 0)
(1.03245 0.010658 0)
(1.02306 0.00998258 0)
(1.01308 0.00937339 0)
(1.00273 0.00882104 0)
(0.992167 0.00831859 0)
(0.981516 0.00786038 0)
(0.970884 0.00744155 0)
(0.960352 0.00705784 0)
(0.949978 0.00670548 0)
(0.93981 0.00638113 0)
(0.929877 0.00608183 0)
(0.920204 0.00580494 0)
(0.910806 0.0055481 0)
(0.90169 0.00530915 0)
(0.892863 0.00508617 0)
(0.884324 0.00487739 0)
(0.876074 0.0046812 0)
(0.868109 0.00449612 0)
(0.860426 0.00432078 0)
(0.853019 0.00415391 0)
(0.845884 0.00399431 0)
(0.839015 0.00384088 0)
(0.832408 0.00369241 0)
(0.826058 0.00354815 0)
(0.819961 0.00340643 0)
(0.814112 0.00326738 0)
(0.80851 0.00312769 0)
(0.803151 0.00299021 0)
(0.798034 0.00284668 0)
(0.793162 0.00270762 0)
(0.788524 0.00255167 0)
(0.784155 0.00240848 0)
(0.779987 0.00222704 0)
(0.776169 0.00207447 0)
(0.772453 0.0018527 0)
(0.769285 0.00165778 0)
(0.766003 0.00140699 0)
(0.763608 0.000965974 0)
(0.760793 0.000776155 0)
(0.758872 -0.000688843 0)
(1.00402 0.0323668 0)
(1.03991 0.0331283 0)
(1.05617 0.0234158 0)
(1.05894 0.0198942 0)
(1.06024 0.0176963 0)
(1.0616 0.0157655 0)
(1.06199 0.0144127 0)
(1.06111 0.0134265 0)
(1.05908 0.0125926 0)
(1.05599 0.0118512 0)
(1.05193 0.011189 0)
(1.04704 0.0105925 0)
(1.04142 0.0100491 0)
(1.0352 0.00954986 0)
(1.02852 0.00908915 0)
(1.02147 0.00866263 0)
(1.01415 0.00826686 0)
(1.00666 0.00789892 0)
(0.999053 0.00755624 0)
(0.991398 0.00723656 0)
(0.983742 0.00693784 0)
(0.976128 0.00665819 0)
(0.968586 0.00639591 0)
(0.961145 0.00614938 0)
(0.953824 0.0059171 0)
(0.946641 0.00569763 0)
(0.939609 0.00548965 0)
(0.932737 0.00529188 0)
(0.926033 0.00510312 0)
(0.919503 0.00492221 0)
(0.913152 0.00474804 0)
(0.906983 0.00457956 0)
(0.900999 0.0044156 0)
(0.895201 0.00425538 0)
(0.889592 0.00409723 0)
(0.884172 0.00394125 0)
(0.878947 0.00378405 0)
(0.873913 0.0036284 0)
(0.869078 0.00346598 0)
(0.864442 0.003307 0)
(0.860005 0.00313049 0)
(0.85579 0.00296445 0)
(0.851757 0.00276088 0)
(0.848008 0.00257958 0)
(0.844382 0.00233542 0)
(0.841174 0.00209992 0)
(0.837965 0.00182369 0)
(0.835376 0.00134073 0)
(0.8326 0.00108164 0)
(0.830369 -0.000185981 0)
(1.00364 0.0300264 0)
(1.03692 0.0320805 0)
(1.05282 0.0228257 0)
(1.0557 0.0194884 0)
(1.05714 0.0175035 0)
(1.05905 0.0156644 0)
(1.06051 0.0143587 0)
(1.06122 0.0134352 0)
(1.06125 0.0126745 0)
(1.06062 0.0120068 0)
(1.05934 0.0114163 0)
(1.05743 0.0108881 0)
(1.05491 0.010408 0)
(1.05185 0.00996616 0)
(1.04829 0.00955625 0)
(1.04431 0.00917394 0)
(1.03996 0.00881597 0)
(1.0353 0.00847983 0)
(1.0304 0.00816347 0)
(1.0253 0.00786515 0)
(1.02004 0.00758339 0)
(1.01467 0.00731684 0)
(1.00923 0.00706427 0)
(1.00375 0.0068245 0)
(0.998244 0.00659642 0)
(0.992749 0.00637892 0)
(0.987281 0.00617098 0)
(0.981857 0.00597155 0)
(0.976492 0.00577964 0)
(0.9712 0.00559424 0)
(0.96599 0.00541439 0)
(0.960874 0.00523914 0)
(0.955859 0.00506738 0)
(0.950953 0.00489839 0)
(0.946164 0.00473053 0)
(0.941495 0.00456389 0)
(0.936957 0.0043951 0)
(0.932551 0.00422679 0)
(0.928287 0.00405082 0)
(0.924169 0.00387677 0)
(0.9202 0.00368472 0)
(0.9164 0.00350005 0)
(0.912746 0.00327945 0)
(0.909308 0.0030732 0)
(0.905987 0.00281176 0)
(0.902972 0.00254086 0)
(0.900009 0.00224254 0)
(0.897463 0.00173089 0)
(0.894851 0.00141136 0)
(0.892544 0.000318501 0)
(1.00327 0.0277866 0)
(1.03409 0.0310216 0)
(1.04971 0.022262 0)
(1.05274 0.0190806 0)
(1.05414 0.0172919 0)
(1.05611 0.0155341 0)
(1.05784 0.0142501 0)
(1.05907 0.0133566 0)
(1.0599 0.0126362 0)
(1.06038 0.0120116 0)
(1.06049 0.0114658 0)
(1.06021 0.0109836 0)
(1.05953 0.01055 0)
(1.05846 0.0101537 0)
(1.05701 0.00978749 0)
(1.0552 0.0094463 0)
(1.05307 0.00912644 0)
(1.05063 0.0088251 0)
(1.04793 0.00854016 0)
(1.04499 0.00826989 0)
(1.04184 0.00801293 0)
(1.03851 0.00776808 0)
(1.03504 0.00753432 0)
(1.03144 0.00731066 0)
(1.02774 0.00709622 0)
(1.02396 0.00689009 0)
(1.02013 0.00669142 0)
(1.01626 0.00649936 0)
(1.01236 0.00631305 0)
(1.00846 0.00613164 0)
(1.00456 0.00595426 0)
(1.00068 0.00578007 0)
(0.996823 0.00560803 0)
(0.99301 0.00543749 0)
(0.989246 0.00526684 0)
(0.985539 0.00509617 0)
(0.9819 0.00492218 0)
(0.978334 0.00474734 0)
(0.974852 0.0045638 0)
(0.971461 0.00438034 0)
(0.968167 0.00417853 0)
(0.964987 0.0039805 0)
(0.961909 0.00374864 0)
(0.958981 0.00352273 0)
(0.956148 0.00324943 0)
(0.953522 0.0029505 0)
(0.950965 0.00263401 0)
(0.948666 0.00210774 0)
(0.946349 0.00173837 0)
(0.944173 0.000798316 0)
(1.00292 0.0256507 0)
(1.03138 0.0299469 0)
(1.04671 0.0217204 0)
(1.04994 0.0186706 0)
(1.05133 0.0170681 0)
(1.05326 0.0153967 0)
(1.05502 0.0141279 0)
(1.05637 0.0132498 0)
(1.05743 0.0125522 0)
(1.0583 0.0119513 0)
(1.05897 0.0114298 0)
(1.05942 0.0109739 0)
(1.05964 0.0105685 0)
(1.05962 0.0102017 0)
(1.05937 0.00986561 0)
(1.05887 0.00955458 0)
(1.05814 0.0092644 0)
(1.05718 0.00899185 0)
(1.056 0.00873445 0)
(1.05462 0.00849026 0)
(1.05305 0.00825773 0)
(1.05131 0.0080356 0)
(1.04941 0.00782278 0)
(1.04737 0.0076183 0)
(1.0452 0.00742129 0)
(1.04292 0.0072309 0)
(1.04055 0.00704632 0)
(1.03809 0.00686676 0)
(1.03557 0.00669142 0)
(1.03299 0.00651953 0)
(1.03036 0.00635024 0)
(1.02771 0.0061828 0)
(1.02503 0.00601618 0)
(1.02234 0.00584978 0)
(1.01966 0.00568199 0)
(1.01697 0.00551291 0)
(1.01431 0.0053393 0)
(1.01167 0.00516342 0)
(1.00907 0.00497784 0)
(1.00651 0.00479034 0)
(1.004 0.00458433 0)
(1.00155 0.00437829 0)
(0.999166 0.00414079 0)
(0.996872 0.00390106 0)
(0.994643 0.00362112 0)
(0.99254 0.00330247 0)
(0.990496 0.00297222 0)
(0.988592 0.00244415 0)
(0.986675 0.00203828 0)
(0.984787 0.00122296 0)
(1.0026 0.0236216 0)
(1.0288 0.0288552 0)
(1.04379 0.0211997 0)
(1.04725 0.0182586 0)
(1.04865 0.0168308 0)
(1.05053 0.0152547 0)
(1.05229 0.0140031 0)
(1.05365 0.0131356 0)
(1.05475 0.0124542 0)
(1.05571 0.0118682 0)
(1.05655 0.0113602 0)
(1.05726 0.0109184 0)
(1.05785 0.0105283 0)
(1.0583 0.0101782 0)
(1.05861 0.00985987 0)
(1.05878 0.00956745 0)
(1.0588 0.0092965 0)
(1.05868 0.00904352 0)
(1.05841 0.00880576 0)
(1.058 0.00858105 0)
(1.05746 0.00836764 0)
(1.05678 0.0081641 0)
(1.05597 0.0079692 0)
(1.05504 0.00778188 0)
(1.054 0.00760117 0)
(1.05285 0.00742618 0)
(1.05161 0.00725606 0)
(1.05028 0.00708996 0)
(1.04888 0.0069271 0)
(1.0474 0.00676666 0)
(1.04586 0.00660781 0)
(1.04426 0.00644977 0)
(1.04262 0.00629152 0)
(1.04095 0.00613245 0)
(1.03924 0.00597093 0)
(1.03751 0.00580703 0)
(1.03576 0.00563756 0)
(1.03401 0.00546453 0)
(1.03226 0.005281 0)
(1.03052 0.00509361 0)
(1.02879 0.0048878 0)
(1.02709 0.00467825 0)
(1.02542 0.00443973 0)
(1.02379 0.00419161 0)
(1.0222 0.00390937 0)
(1.02067 0.00357895 0)
(1.01918 0.00323959 0)
(1.01775 0.00271984 0)
(1.01628 0.00229094 0)
(1.01477 0.00157884 0)
(1.0023 0.0217009 0)
(1.02634 0.0277474 0)
(1.04096 0.0206984 0)
(1.04465 0.0178459 0)
(1.04606 0.0165786 0)
(1.04792 0.0151066 0)
(1.04967 0.0138767 0)
(1.05102 0.013019 0)
(1.05211 0.0123521 0)
(1.05308 0.0117785 0)
(1.05395 0.0112798 0)
(1.05473 0.0108465 0)
(1.05542 0.010465 0)
(1.05604 0.010124 0)
(1.05657 0.00981535 0)
(1.05702 0.00953323 0)
(1.05739 0.00927319 0)
(1.05767 0.00903168 0)
(1.05787 0.00880586 0)
(1.05798 0.00859343 0)
(1.05801 0.00839255 0)
(1.05794 0.00820165 0)
(1.05779 0.00801942 0)
(1.05756 0.00784467 0)
(1.05725 0.00767637 0)
(1.05685 0.00751351 0)
(1.05639 0.0073552 0)
(1.05584 0.00720052 0)
(1.05524 0.0070486 0)
(1.05456 0.00689861 0)
(1.05383 0.00674963 0)
(1.05305 0.00660088 0)
(1.05221 0.00645127 0)
(1.05133 0.00630016 0)
(1.05042 0.0061459 0)
(1.04947 0.00598847 0)
(1.04849 0.00582475 0)
(1.04749 0.00565643 0)
(1.04647 0.00547713 0)
(1.04544 0.00529225 0)
(1.0444 0.00508935 0)
(1.04337 0.00487935 0)
(1.04234 0.00464285 0)
(1.04132 0.00439062 0)
(1.04032 0.00410909 0)
(1.03934 0.00377359 0)
(1.03838 0.0034291 0)
(1.03742 0.00292524 0)
(1.0364 0.00248505 0)
(1.0353 0.00185756 0)
(1.00203 0.0198894 0)
(1.02402 0.0266266 0)
(1.03822 0.0202132 0)
(1.04212 0.0174344 0)
(1.04356 0.0163117 0)
(1.04539 0.014951 0)
(1.04714 0.0137483 0)
(1.04849 0.0129005 0)
(1.04957 0.012248 0)
(1.05052 0.0116866 0)
(1.05138 0.0111964 0)
(1.05217 0.0107696 0)
(1.05288 0.0103941 0)
(1.05353 0.0100588 0)
(1.05413 0.0097557 0)
(1.05468 0.00947928 0)
(1.05517 0.00922513 0)
(1.05562 0.0089898 0)
(1.05602 0.00877046 0)
(1.05637 0.00856484 0)
(1.05666 0.00837107 0)
(1.05691 0.00818754 0)
(1.05711 0.00801292 0)
(1.05725 0.00784597 0)
(1.05735 0.0076856 0)
(1.05739 0.00753077 0)
(1.05738 0.0073805 0)
(1.05733 0.00723384 0)
(1.05722 0.00708986 0)
(1.05707 0.00694767 0)
(1.05688 0.0068063 0)
(1.05664 0.00666492 0)
(1.05636 0.00652239 0)
(1.05604 0.00637804 0)
(1.05569 0.00623016 0)
(1.05531 0.00607864 0)
(1.0549 0.00592047 0)
(1.05446 0.00575693 0)
(1.054 0.00558226 0)
(1.05352 0.00540061 0)
(1.05303 0.00520159 0)
(1.05253 0.00499266 0)
(1.05202 0.00475956 0)
(1.05151 0.00450604 0)
(1.051 0.00422678 0)
(1.05048 0.00389111 0)
(1.04996 0.00354456 0)
(1.04941 0.00306111 0)
(1.04879 0.00261902 0)
(1.04806 0.00206074 0)
(1.00179 0.0181875 0)
(1.02183 0.0254965 0)
(1.03559 0.0197404 0)
(1.03969 0.0170261 0)
(1.04116 0.0160308 0)
(1.04295 0.0147871 0)
(1.0447 0.0136174 0)
(1.04605 0.0127798 0)
(1.04713 0.0121416 0)
(1.04806 0.0115932 0)
(1.04891 0.0111115 0)
(1.04968 0.010691 0)
(1.05039 0.0103207 0)
(1.05104 0.00998999 0)
(1.05164 0.00969098 0)
(1.05221 0.00941825 0)
(1.05274 0.00916762 0)
(1.05324 0.00893572 0)
(1.0537 0.00871983 0)
(1.05414 0.00851774 0)
(1.05454 0.00832761 0)
(1.05492 0.0081479 0)
(1.05527 0.00797724 0)
(1.05559 0.00781445 0)
(1.05589 0.0076584 0)
(1.05615 0.00750806 0)
(1.05638 0.00736242 0)
(1.05659 0.0072205 0)
(1.05676 0.00708134 0)
(1.05691 0.00694402 0)
(1.05703 0.00680753 0)
(1.05712 0.00667102 0)
(1.05718 0.00653328 0)
(1.05721 0.00639362 0)
(1.05722 0.00625032 0)
(1.05721 0.00610313 0)
(1.05717 0.00594919 0)
(1.05711 0.00578937 0)
(1.05703 0.00561855 0)
(1.05694 0.00543963 0)
(1.05683 0.00524419 0)
(1.05671 0.00503662 0)
(1.05658 0.00480695 0)
(1.05643 0.00455363 0)
(1.05629 0.00427697 0)
(1.05612 0.00394421 0)
(1.05594 0.00359776 0)
(1.05571 0.00313652 0)
(1.0554 0.00269948 0)
(1.05497 0.00219721 0)
(1.00157 0.0165947 0)
(1.01979 0.0243612 0)
(1.03305 0.0192759 0)
(1.03733 0.0166226 0)
(1.03885 0.0157371 0)
(1.0406 0.0146141 0)
(1.04234 0.0134835 0)
(1.0437 0.0126568 0)
(1.04477 0.0120329 0)
(1.04569 0.0114979 0)
(1.04653 0.0110255 0)
(1.04728 0.0106114 0)
(1.04798 0.0102464 0)
(1.04862 0.00991997 0)
(1.04921 0.0096246 0)
(1.04978 0.00935493 0)
(1.0503 0.00910692 0)
(1.05081 0.00887733 0)
(1.05129 0.00866353 0)
(1.05175 0.00846338 0)
(1.05219 0.00827512 0)
(1.05261 0.00809725 0)
(1.05301 0.00792846 0)
(1.0534 0.00776759 0)
(1.05378 0.00761355 0)
(1.05413 0.00746531 0)
(1.05448 0.00732187 0)
(1.0548 0.00718227 0)
(1.05511 0.00704551 0)
(1.0554 0.00691068 0)
(1.05568 0.00677675 0)
(1.05594 0.00664284 0)
(1.05619 0.00650775 0)
(1.05641 0.00637073 0)
(1.05663 0.00623009 0)
(1.05682 0.00608544 0)
(1.05701 0.00593411 0)
(1.05717 0.00577654 0)
(1.05733 0.00560827 0)
(1.05747 0.00543104 0)
(1.05761 0.00523819 0)
(1.05773 0.00503155 0)
(1.05784 0.00480455 0)
(1.05794 0.00455197 0)
(1.05803 0.0042775 0)
(1.0581 0.00394925 0)
(1.05815 0.00360431 0)
(1.05814 0.00316504 0)
(1.05805 0.00273768 0)
(1.05785 0.00228028 0)
(1.00137 0.0151101 0)
(1.01788 0.0232246 0)
(1.03062 0.0188157 0)
(1.03507 0.0162255 0)
(1.03663 0.0154321 0)
(1.03834 0.0144314 0)
(1.04008 0.0133464 0)
(1.04144 0.0125315 0)
(1.0425 0.0119216 0)
(1.04341 0.0114008 0)
(1.04423 0.0109381 0)
(1.04498 0.0105308 0)
(1.04566 0.0101711 0)
(1.04629 0.00984918 0)
(1.04688 0.00955745 0)
(1.04743 0.00929073 0)
(1.04795 0.00904512 0)
(1.04844 0.00881748 0)
(1.04892 0.00860528 0)
(1.04937 0.00840646 0)
(1.04982 0.00821931 0)
(1.05025 0.0080424 0)
(1.05066 0.00787447 0)
(1.05107 0.00771439 0)
(1.05147 0.00756112 0)
(1.05186 0.00741366 0)
(1.05224 0.00727102 0)
(1.05261 0.00713226 0)
(1.05297 0.00699638 0)
(1.05333 0.00686248 0)
(1.05367 0.00672952 0)
(1.05401 0.00659662 0)
(1.05434 0.00646258 0)
(1.05466 0.00632663 0)
(1.05497 0.00618711 0)
(1.05528 0.00604353 0)
(1.05557 0.00589337 0)
(1.05586 0.00573672 0)
(1.05614 0.00556972 0)
(1.05641 0.00539311 0)
(1.05668 0.00520171 0)
(1.05694 0.00499537 0)
(1.05719 0.00477002 0)
(1.05743 0.00451824 0)
(1.05766 0.00424529 0)
(1.05787 0.00392217 0)
(1.05806 0.00357966 0)
(1.05819 0.00316091 0)
(1.05824 0.00274594 0)
(1.05819 0.00232419 0)
(1.0012 0.0137323 0)
(1.0161 0.0220909 0)
(1.0283 0.0183563 0)
(1.03289 0.0158358 0)
(1.0345 0.0151174 0)
(1.03618 0.0142384 0)
(1.0379 0.0132057 0)
(1.03926 0.012404 0)
(1.04032 0.0118078 0)
(1.04122 0.0113015 0)
(1.04203 0.0108493 0)
(1.04277 0.0104491 0)
(1.04344 0.010095 0)
(1.04406 0.00977761 0)
(1.04463 0.00948964 0)
(1.04517 0.00922593 0)
(1.04568 0.00898273 0)
(1.04616 0.00875699 0)
(1.04663 0.00854628 0)
(1.04708 0.0083486 0)
(1.04751 0.00816231 0)
(1.04794 0.00798603 0)
(1.04835 0.00781856 0)
(1.04876 0.0076588 0)
(1.04916 0.00750576 0)
(1.04955 0.00735845 0)
(1.04994 0.00721592 0)
(1.05032 0.00707724 0)
(1.0507 0.00694143 0)
(1.05107 0.00680759 0)
(1.05144 0.00667469 0)
(1.05181 0.00654186 0)
(1.05217 0.00640791 0)
(1.05253 0.00627203 0)
(1.05288 0.00613264 0)
(1.05323 0.00598911 0)
(1.05357 0.00583914 0)
(1.05391 0.00568245 0)
(1.05425 0.00551575 0)
(1.05459 0.00533894 0)
(1.05492 0.00514804 0)
(1.05524 0.00494146 0)
(1.05556 0.00471686 0)
(1.05588 0.00446576 0)
(1.05618 0.00419375 0)
(1.05647 0.00387583 0)
(1.05672 0.00353646 0)
(1.05693 0.00313626 0)
(1.05706 0.00273495 0)
(1.0571 0.00234147 0)
(1.00104 0.0124588 0)
(1.01446 0.0209643 0)
(1.02609 0.0178942 0)
(1.0308 0.0154544 0)
(1.03247 0.0147951 0)
(1.03411 0.0140348 0)
(1.03581 0.0130606 0)
(1.03718 0.0122744 0)
(1.03823 0.0116915 0)
(1.03913 0.0112 0)
(1.03993 0.0107588 0)
(1.04065 0.0103661 0)
(1.04131 0.0100178 0)
(1.04192 0.0097052 0)
(1.04248 0.00942112 0)
(1.04301 0.00916054 0)
(1.04351 0.0089198 0)
(1.04398 0.00869601 0)
(1.04444 0.00848679 0)
(1.04488 0.00829023 0)
(1.0453 0.00810475 0)
(1.04572 0.00792901 0)
(1.04612 0.00776186 0)
(1.04652 0.00760226 0)
(1.04692 0.00744923 0)
(1.0473 0.00730183 0)
(1.04769 0.00715913 0)
(1.04807 0.0070202 0)
(1.04845 0.0068841 0)
(1.04882 0.00674991 0)
(1.04919 0.00661663 0)
(1.04956 0.00648339 0)
(1.04993 0.00634902 0)
(1.0503 0.00621268 0)
(1.05066 0.00607286 0)
(1.05102 0.00592881 0)
(1.05139 0.00577845 0)
(1.05175 0.00562115 0)
(1.0521 0.00545414 0)
(1.05246 0.00527663 0)
(1.05282 0.00508559 0)
(1.05317 0.00487846 0)
(1.05352 0.00465394 0)
(1.05386 0.00440346 0)
(1.05419 0.00413205 0)
(1.05451 0.0038192 0)
(1.0548 0.00348359 0)
(1.05504 0.00309984 0)
(1.05521 0.00271254 0)
(1.0553 0.00234165 0)
(1.0009 0.0112868 0)
(1.01296 0.0198493 0)
(1.02399 0.0174262 0)
(1.0288 0.0150817 0)
(1.03054 0.0144671 0)
(1.03213 0.0138203 0)
(1.03381 0.0129108 0)
(1.03518 0.0121425 0)
(1.03624 0.0115725 0)
(1.03712 0.0110961 0)
(1.03791 0.0106667 0)
(1.03863 0.0102819 0)
(1.03928 0.0099395 0)
(1.03987 0.00963186 0)
(1.04043 0.00935182 0)
(1.04095 0.00909447 0)
(1.04143 0.0088563 0)
(1.0419 0.0086345 0)
(1.04234 0.00842683 0)
(1.04277 0.00823141 0)
(1.04319 0.00804674 0)
(1.0436 0.00787153 0)
(1.04399 0.00770469 0)
(1.04438 0.00754519 0)
(1.04477 0.00739212 0)
(1.04515 0.00724455 0)
(1.04552 0.00710156 0)
(1.0459 0.00696227 0)
(1.04627 0.00682572 0)
(1.04664 0.00669102 0)
(1.04701 0.00655718 0)
(1.04737 0.00642332 0)
(1.04774 0.0062883 0)
(1.0481 0.00615126 0)
(1.04846 0.00601075 0)
(1.04883 0.00586591 0)
(1.04919 0.00571484 0)
(1.04955 0.00555667 0)
(1.04991 0.005389 0)
(1.05027 0.00521057 0)
(1.05063 0.005019 0)
(1.05099 0.0048112 0)
(1.05135 0.00458641 0)
(1.05169 0.00433654 0)
(1.05204 0.00406567 0)
(1.05236 0.00375766 0)
(1.05266 0.0034264 0)
(1.05291 0.00305719 0)
(1.0531 0.00268367 0)
(1.05322 0.00233106 0)
(1.00078 0.0102128 0)
(1.01157 0.0187501 0)
(1.022 0.0169497 0)
(1.02688 0.0147179 0)
(1.02869 0.0141356 0)
(1.03025 0.013595 0)
(1.03189 0.0127554 0)
(1.03327 0.0120083 0)
(1.03433 0.0114511 0)
(1.0352 0.0109897 0)
(1.03599 0.0105726 0)
(1.03669 0.0101962 0)
(1.03734 0.00986006 0)
(1.03792 0.00955751 0)
(1.03847 0.00928166 0)
(1.03897 0.00902767 0)
(1.03945 0.00879214 0)
(1.03991 0.00857242 0)
(1.04035 0.00836633 0)
(1.04077 0.00817209 0)
(1.04117 0.00798826 0)
(1.04157 0.0078136 0)
(1.04196 0.00764705 0)
(1.04234 0.00748767 0)
(1.04272 0.00733453 0)
(1.04309 0.00718676 0)
(1.04346 0.00704347 0)
(1.04382 0.00690377 0)
(1.04419 0.00676673 0)
(1.04455 0.00663146 0)
(1.04491 0.00649699 0)
(1.04527 0.00636243 0)
(1.04563 0.00622668 0)
(1.04598 0.00608883 0)
(1.04634 0.00594752 0)
(1.0467 0.00580179 0)
(1.04706 0.00564989 0)
(1.04741 0.00549073 0)
(1.04777 0.00532225 0)
(1.04813 0.00514283 0)
(1.04848 0.00495055 0)
(1.04884 0.00474208 0)
(1.04919 0.00451687 0)
(1.04953 0.00426768 0)
(1.04987 0.00399747 0)
(1.05019 0.0036941 0)
(1.05049 0.00336769 0)
(1.05074 0.00301135 0)
(1.05094 0.00265101 0)
(1.05107 0.00231343 0)
(1.00067 0.00923268 0)
(1.01031 0.0176714 0)
(1.02013 0.0164625 0)
(1.02504 0.0143626 0)
(1.02693 0.0138027 0)
(1.02846 0.013359 0)
(1.03007 0.0125939 0)
(1.03145 0.0118717 0)
(1.03251 0.0113271 0)
(1.03338 0.0108807 0)
(1.03415 0.0104765 0)
(1.03485 0.0101091 0)
(1.03548 0.00977935 0)
(1.03606 0.00948206 0)
(1.0366 0.00921056 0)
(1.0371 0.00896005 0)
(1.03757 0.00872727 0)
(1.03802 0.00850969 0)
(1.03844 0.00830524 0)
(1.03885 0.00811223 0)
(1.03925 0.00792925 0)
(1.03964 0.00775516 0)
(1.04002 0.00758893 0)
(1.0404 0.00742965 0)
(1.04077 0.00727646 0)
(1.04113 0.00712849 0)
(1.04149 0.00698489 0)
(1.04185 0.00684476 0)
(1.0422 0.00670721 0)
(1.04256 0.00657136 0)
(1.04291 0.00643623 0)
(1.04326 0.00630094 0)
(1.04361 0.00616443 0)
(1.04396 0.00602575 0)
(1.04431 0.0058836 0)
(1.04466 0.00573694 0)
(1.04501 0.00558416 0)
(1.04536 0.005424 0)
(1.04571 0.00525464 0)
(1.04606 0.00507425 0)
(1.04641 0.00488119 0)
(1.04676 0.00467212 0)
(1.0471 0.00444649 0)
(1.04744 0.00419805 0)
(1.04777 0.00392874 0)
(1.04808 0.00362982 0)
(1.04837 0.00330865 0)
(1.04862 0.00296379 0)
(1.04882 0.00261581 0)
(1.04897 0.00229082 0)
(1.00058 0.00834188 0)
(1.00917 0.0166173 0)
(1.01837 0.0159628 0)
(1.0233 0.0140153 0)
(1.02526 0.0134701 0)
(1.02676 0.0131129 0)
(1.02834 0.0124258 0)
(1.02971 0.0117324 0)
(1.03077 0.0112007 0)
(1.03164 0.010769 0)
(1.0324 0.0103783 0)
(1.03309 0.0100202 0)
(1.03372 0.00969728 0)
(1.03429 0.00940543 0)
(1.03482 0.00913841 0)
(1.03531 0.00889152 0)
(1.03577 0.00866159 0)
(1.03621 0.00844623 0)
(1.03663 0.00824348 0)
(1.03704 0.00805173 0)
(1.03743 0.00786965 0)
(1.03781 0.00769614 0)
(1.03818 0.00753025 0)
(1.03855 0.00737109 0)
(1.03891 0.00721785 0)
(1.03927 0.00706969 0)
(1.03962 0.00692576 0)
(1.03997 0.00678522 0)
(1.04032 0.00664716 0)
(1.04067 0.0065107 0)
(1.04101 0.00637491 0)
(1.04136 0.0062389 0)
(1.0417 0.00610161 0)
(1.04204 0.0059621 0)
(1.04238 0.0058191 0)
(1.04273 0.00567152 0)
(1.04307 0.00551784 0)
(1.04341 0.0053567 0)
(1.04375 0.00518644 0)
(1.0441 0.00500513 0)
(1.04444 0.00481128 0)
(1.04478 0.00460171 0)
(1.04511 0.00437573 0)
(1.04544 0.00412813 0)
(1.04576 0.00385998 0)
(1.04607 0.00356534 0)
(1.04635 0.00324968 0)
(1.04659 0.00291512 0)
(1.04679 0.00257856 0)
(1.04694 0.00226423 0)
(1.0005 0.00753534 0)
(1.00814 0.0155922 0)
(1.01673 0.0154496 0)
(1.02163 0.013675 0)
(1.02368 0.0131398 0)
(1.02515 0.0128577 0)
(1.02669 0.0122503 0)
(1.02805 0.0115902 0)
(1.02912 0.0110718 0)
(1.02998 0.0106545 0)
(1.03074 0.0102776 0)
(1.03143 0.00992961 0)
(1.03205 0.00961374 0)
(1.03261 0.0093275 0)
(1.03313 0.00906513 0)
(1.03362 0.00882199 0)