/*--------------------------------*- C++ -*----------------------------------*\
  =========                 |
  \\      /  F ield         | OpenFOAM: The Open Source CFD Toolbox
   \\    /   O peration     | Website:  https://openfoam.org
    \\  /    A nd           | Version:  7
     \\/     M anipulation  |
\*---------------------------------------------------------------------------*/
FoamFile
{
    version     2.0;
    format      ascii;
    class       volVectorField;
    location    "0.1";
    object      U_0;
}
// * * * * * * * * * * * * * * * * * * * * * * * * * * * * * * * * * * * * * //

dimensions      [0 1 -1 0 0 0 0];

internalField   nonuniform List<vector> 
70000
(
(0.553391 0.016723 0)
(0.251266 0.00340092 0)
(0.166212 0.000321898 0)
(0.132473 5.41876e-05 0)
(0.117291 4.5623e-05 0)
(0.107378 5.37915e-05 0)
(0.0994428 4.61524e-05 0)
(0.0930173 3.6806e-05 0)
(0.087789 3.04837e-05 0)
(0.0834379 2.61476e-05 0)
(0.0797354 2.28394e-05 0)
(0.0765334 2.01867e-05 0)
(0.0737304 1.80203e-05 0)
(0.0712522 1.62274e-05 0)
(0.0690427 1.47241e-05 0)
(0.0670583 1.3448e-05 0)
(0.065265 1.23526e-05 0)
(0.0636354 1.14027e-05 0)
(0.0621475 1.05714e-05 0)
(0.0607834 9.8375e-06 0)
(0.0595281 9.1847e-06 0)
(0.0583693 8.59971e-06 0)
(0.0572964 8.0719e-06 0)
(0.0563007 7.59262e-06 0)
(0.0553746 7.15454e-06 0)
(0.0545117 6.75176e-06 0)
(0.0537064 6.37868e-06 0)
(0.0529539 6.03169e-06 0)
(0.0522503 5.70514e-06 0)
(0.051592 5.39875e-06 0)
(0.0509759 5.10413e-06 0)
(0.0503993 4.82696e-06 0)
(0.0498603 4.55198e-06 0)
(0.0493566 4.29571e-06 0)
(0.048887 4.02919e-06 0)
(0.0484501 3.78664e-06 0)
(0.0480447 3.52125e-06 0)
(0.0476711 3.27699e-06 0)
(0.0473258 3.02684e-06 0)
(0.0470159 2.71821e-06 0)
(0.046726 2.58733e-06 0)
(0.0464879 1.96918e-06 0)
(0.0462419 2.39056e-06 0)
(0.0461037 5.95227e-07 0)
(0.0458657 3.07007e-06 0)
(0.0459103 -2.78652e-06 0)
(0.045573 6.6187e-06 0)
(0.0460103 -1.27294e-05 0)
(0.0454826 3.06472e-05 0)
(0.0432443 -0.0016684 0)
(0.884899 0.0431672 0)
(0.649723 0.0201935 0)
(0.494341 0.00659757 0)
(0.403704 0.00276668 0)
(0.354802 0.00155091 0)
(0.323527 0.00113033 0)
(0.299701 0.000908943 0)
(0.280542 0.000744853 0)
(0.264872 0.000621817 0)
(0.251797 0.000530889 0)
(0.240668 0.000461834 0)
(0.231041 0.000407472 0)
(0.222611 0.000363527 0)
(0.215155 0.000327334 0)
(0.208503 0.000297077 0)
(0.202526 0.000271452 0)
(0.197121 0.0002495 0)
(0.192208 0.0002305 0)
(0.187719 0.000213902 0)
(0.183601 0.00019928 0)
(0.17981 0.0001863 0)
(0.176308 0.000174696 0)
(0.173063 0.000164251 0)
(0.170049 0.00015479 0)
(0.167244 0.000146164 0)
(0.164628 0.000138251 0)
(0.162184 0.000130944 0)
(0.159899 0.000124156 0)
(0.157759 0.000117802 0)
(0.155754 0.00011182 0)
(0.153875 0.000106136 0)
(0.152115 0.000100715 0)
(0.150465 9.54656e-05 0)
(0.148921 9.04036e-05 0)
(0.147479 8.53772e-05 0)
(0.146132 8.05035e-05 0)
(0.14488 7.54822e-05 0)
(0.143721 7.06376e-05 0)
(0.142647 6.53817e-05 0)
(0.141675 6.03701e-05 0)
(0.140766 5.46442e-05 0)
(0.140004 4.90415e-05 0)
(0.13923 4.28312e-05 0)
(0.138751 3.52548e-05 0)
(0.138021 2.98018e-05 0)
(0.138039 1.47615e-05 0)
(0.137094 1.99125e-05 0)
(0.138119 -4.92247e-05 0)
(0.136745 0.000198874 0)
(0.135896 -0.00281517 0)
(0.991237 0.049901 0)
(0.890354 0.0307178 0)
(0.762705 0.0145961 0)
(0.65672 0.00797748 0)
(0.585427 0.00488216 0)
(0.536063 0.00346786 0)
(0.498244 0.00273181 0)
(0.467679 0.00223897 0)
(0.442424 0.0018753 0)
(0.42118 0.00160319 0)
(0.403 0.00139527 0)
(0.387215 0.00123157 0)
(0.373349 0.00109933 0)
(0.361051 0.000990429 0)
(0.350056 0.000899368 0)
(0.340158 0.000822227 0)
(0.331191 0.000756127 0)
(0.323027 0.000698907 0)
(0.315559 0.000648918 0)
(0.308698 0.000604884 0)
(0.302374 0.000565801 0)
(0.296525 0.000530869 0)
(0.2911 0.00049944 0)
(0.286055 0.000470982 0)
(0.281354 0.000445055 0)
(0.276965 0.000421286 0)
(0.27286 0.000399359 0)
(0.269016 0.000379004 0)
(0.265412 0.000359979 0)
(0.262031 0.000342086 0)
(0.258857 0.000325118 0)
(0.255877 0.000308943 0)
(0.253081 0.000293337 0)
(0.250457 0.000278273 0)
(0.247999 0.000263401 0)
(0.245699 0.000248933 0)
(0.243552 0.000234143 0)
(0.241557 0.000219824 0)
(0.239699 0.000204326 0)
(0.238007 0.000189769 0)
(0.236419 0.00017246 0)
(0.235057 0.000157253 0)
(0.233695 0.000136531 0)
(0.232769 0.000119587 0)
(0.231505 9.39729e-05 0)
(0.23131 6.84544e-05 0)
(0.2298 5.06154e-05 0)
(0.231006 -7.59744e-05 0)
(0.228868 0.000219346 0)
(0.230356 -0.00289266 0)
(1.0156 0.0489199 0)
(1.00596 0.0358736 0)
(0.935966 0.0207892 0)
(0.85216 0.0135007 0)
(0.782255 0.00920312 0)
(0.727102 0.00677533 0)
(0.682076 0.00537641 0)
(0.644384 0.00443614 0)
(0.61244 0.00374134 0)
(0.585053 0.00321449 0)
(0.561288 0.00280723 0)
(0.540437 0.00248441 0)
(0.521969 0.00222251 0)
(0.505481 0.00200608 0)
(0.490658 0.00182457 0)
(0.47725 0.00167042 0)
(0.465057 0.00153805 0)
(0.453915 0.00142327 0)
(0.443692 0.00132284 0)
(0.434275 0.00123428 0)
(0.425573 0.0011556 0)
(0.417506 0.00108522 0)
(0.410008 0.00102187 0)
(0.403023 0.00096449 0)
(0.396501 0.000912207 0)
(0.3904 0.000864279 0)
(0.384684 0.000820079 0)
(0.379322 0.000779066 0)
(0.374286 0.000740764 0)
(0.369551 0.000704769 0)
(0.365099 0.000670685 0)
(0.36091 0.000638225 0)
(0.356969 0.000606983 0)
(0.353263 0.000576845 0)
(0.349781 0.000547208 0)
(0.346513 0.000518365 0)
(0.343451 0.000489052 0)
(0.340593 0.00046064 0)
(0.337922 0.000430053 0)
(0.335467 0.000401455 0)
(0.33316 0.000367149 0)
(0.331137 0.000338197 0)
(0.329142 0.000295938 0)
(0.327667 0.000266727 0)
(0.325845 0.000210046 0)
(0.325237 0.000174091 0)
(0.323235 0.000112973 0)
(0.324181 -5.35473e-05 0)
(0.32156 0.000169908 0)
(0.323805 -0.0026282 0)
(1.01434 0.0460033 0)
(1.04753 0.0374868 0)
(1.02459 0.0241484 0)
(0.974782 0.0175542 0)
(0.923497 0.0131154 0)
(0.876766 0.010197 0)
(0.83466 0.00833129 0)
(0.796982 0.00700817 0)
(0.7635 0.00599636 0)
(0.733777 0.00520691 0)
(0.707299 0.00458301 0)
(0.683594 0.00408056 0)
(0.662263 0.00366813 0)
(0.642972 0.00332416 0)
(0.625444 0.00303354 0)
(0.609448 0.00278519 0)
(0.594792 0.00257083 0)
(0.581313 0.00238413 0)
(0.568875 0.00222019 0)
(0.557362 0.00207516 0)
(0.546674 0.00194597 0)
(0.536728 0.00183016 0)
(0.527451 0.00172572 0)
(0.518778 0.00163097 0)
(0.510657 0.00154453 0)
(0.503038 0.00146522 0)
(0.49588 0.00139203 0)
(0.489147 0.00132408 0)
(0.482808 0.00126063 0)
(0.476833 0.001201 0)
(0.4712 0.00114458 0)
(0.465886 0.00109087 0)
(0.460875 0.00103925 0)
(0.456147 0.000989489 0)
(0.451693 0.000940696 0)
(0.447498 0.000893208 0)
(0.443554 0.000845184 0)
(0.439855 0.000798574 0)
(0.436386 0.000748747 0)
(0.433171 0.000702084 0)
(0.430145 0.000646436 0)
(0.427438 0.000599753 0)
(0.424804 0.000531111 0)
(0.422715 0.000485522 0)
(0.420342 0.000392466 0)
(0.419163 0.000340591 0)
(0.416759 0.000230438 0)
(0.417074 2.30349e-05 0)
(0.414331 0.000148073 0)
(0.415913 -0.00233576 0)
(1.00933 0.0429146 0)
(1.05528 0.0372619 0)
(1.05869 0.0252921 0)
(1.03638 0.0197527 0)
(1.00713 0.0158025 0)
(0.976116 0.0129239 0)
(0.944635 0.0109447 0)
(0.913829 0.00945967 0)
(0.884547 0.00826636 0)
(0.857176 0.00729567 0)
(0.831793 0.00650282 0)
(0.808336 0.00584779 0)
(0.786682 0.00529922 0)
(0.766686 0.0048343 0)
(0.748202 0.00443625 0)
(0.731088 0.00409235 0)
(0.715213 0.00379278 0)
(0.700458 0.00352983 0)
(0.686717 0.00329738 0)
(0.673895 0.00309056 0)
(0.661908 0.00290543 0)
(0.650682 0.00273875 0)
(0.640151 0.00258787 0)
(0.630255 0.00245055 0)
(0.620944 0.00232493 0)
(0.612172 0.00220939 0)
(0.603897 0.00210256 0)
(0.596084 0.00200323 0)
(0.588701 0.00191035 0)
(0.581719 0.00182299 0)
(0.575113 0.00174028 0)
(0.568862 0.00166153 0)
(0.562946 0.00158588 0)
(0.557348 0.00151294 0)
(0.552055 0.00144154 0)
(0.547051 0.00137203 0)
(0.542329 0.00130201 0)
(0.537881 0.00123391 0)
(0.533694 0.00116166 0)
(0.529784 0.00109361 0)
(0.526098 0.00101357 0)
(0.522744 0.000945492 0)
(0.519513 0.000847899 0)
(0.516807 0.00078092 0)
(0.51393 0.000650985 0)
(0.51211 0.000573836 0)
(0.509379 0.000419192 0)
(0.508874 0.000156334 0)
(0.506166 0.000195403 0)
(0.50663 -0.00201059 0)
(1.00625 0.0400331 0)
(1.05206 0.0363342 0)
(1.06609 0.0252208 0)
(1.05961 0.0205516 0)
(1.0469 0.0172277 0)
(1.03084 0.0146415 0)
(1.01197 0.0128011 0)
(0.991336 0.0113721 0)
(0.969985 0.0101714 0)
(0.948653 0.00915156 0)
(0.927784 0.00828726 0)
(0.907641 0.0075507 0)
(0.888369 0.00691755 0)
(0.870038 0.00636899 0)
(0.852666 0.00589048 0)
(0.836237 0.00547048 0)
(0.820721 0.00509961 0)
(0.806073 0.00477025 0)
(0.792245 0.00447615 0)
(0.779188 0.00421216 0)
(0.766853 0.00397403 0)
(0.755192 0.00375818 0)
(0.74416 0.00356163 0)
(0.733716 0.0033818 0)
(0.723821 0.00321652 0)
(0.71444 0.00306389 0)
(0.705539 0.00292225 0)
(0.697091 0.00279014 0)
(0.689066 0.00266629 0)
(0.681442 0.00254952 0)
(0.674198 0.00243877 0)
(0.667311 0.00233313 0)
(0.660768 0.00223158 0)
(0.65455 0.00213354 0)
(0.648647 0.00203763 0)
(0.643044 0.00194412 0)
(0.637735 0.00185017 0)
(0.632709 0.00175853 0)
(0.627959 0.001662 0)
(0.623494 0.0015703 0)
(0.619275 0.00146427 0)
(0.615382 0.00137192 0)
(0.611659 0.00124477 0)
(0.60841 0.00115162 0)
(0.60511 0.000987193 0)
(0.602688 0.000875298 0)
(0.599689 0.000683673 0)
(0.598382 0.000356871 0)
(0.595673 0.000317414 0)
(0.595112 -0.00162651 0)
(1.00495 0.037355 0)
(1.04727 0.035252 0)
(1.06398 0.0246806 0)
(1.06426 0.0205772 0)
(1.0607 0.0177644 0)
(1.05478 0.0154824 0)
(1.04605 0.0138561 0)
(1.03489 0.0125909 0)
(1.02202 0.0115002 0)
(1.00805 0.0105424 0)
(0.993432 0.0097046 0)
(0.978524 0.00896942 0)
(0.963591 0.00832027 0)
(0.948827 0.00774404 0)
(0.934366 0.00723042 0)
(0.920301 0.0067709 0)
(0.90669 0.00635824 0)
(0.893565 0.00598626 0)
(0.880944 0.00564969 0)
(0.86883 0.00534404 0)
(0.857219 0.00506545 0)
(0.8461 0.00481058 0)
(0.835458 0.00457655 0)
(0.825278 0.00436085 0)
(0.815541 0.00416127 0)
(0.806229 0.00397584 0)
(0.797325 0.00380284 0)
(0.78881 0.0036407 0)
(0.780669 0.00348802 0)
(0.772884 0.00334351 0)
(0.765443 0.00320598 0)
(0.758331 0.00307439 0)
(0.751536 0.00294758 0)
(0.745046 0.00282485 0)
(0.738855 0.00270462 0)
(0.732949 0.00258712 0)
(0.727326 0.00246918 0)
(0.721976 0.00235367 0)
(0.716897 0.00223268 0)
(0.712091 0.00211661 0)
(0.707536 0.00198462 0)
(0.703285 0.00186651 0)
(0.699232 0.00171082 0)
(0.695593 0.00158822 0)
(0.691999 0.00139286 0)
(0.689106 0.00124003 0)
(0.685911 0.0010167 0)
(0.683954 0.000627821 0)
(0.681189 0.000511246 0)
(0.67983 -0.00118481 0)
(1.0044 0.034807 0)
(1.04324 0.0341786 0)
(1.05994 0.0240392 0)
(1.0623 0.0202829 0)
(1.06251 0.0178274 0)
(1.06183 0.0157623 0)
(1.05928 0.0143088 0)
(1.05476 0.0132082 0)
(1.04857 0.012259 0)
(1.04104 0.0114124 0)
(1.03245 0.010658 0)
(1.02306 0.00998252 0)
(1.01309 0.00937332 0)
(1.00273 0.00882098 0)
(0.992168 0.00831853 0)
(0.981517 0.00786032 0)
(0.970886 0.0074415 0)
(0.960353 0.00705779 0)
(0.94998 0.00670543 0)
(0.939811 0.00638109 0)
(0.929879 0.0060818 0)
(0.920206 0.00580491 0)
(0.910808 0.00554806 0)
(0.901692 0.00530912 0)
(0.892865 0.00508613 0)
(0.884327 0.00487734 0)
(0.876076 0.00468115 0)
(0.868111 0.00449605 0)
(0.860428 0.00432069 0)
(0.853021 0.0041538 0)
(0.845886 0.00399416 0)
(0.839018 0.00384069 0)
(0.832411 0.00369218 0)
(0.826061 0.00354786 0)
(0.819964 0.00340607 0)
(0.814115 0.00326694 0)
(0.808514 0.00312716 0)
(0.803155 0.00298956 0)
(0.79804 0.00284589 0)
(0.793169 0.00270666 0)
(0.788532 0.00255051 0)
(0.784164 0.00240706 0)
(0.779998 0.0022253 0)
(0.776181 0.00207233 0)
(0.772467 0.00185004 0)
(0.769302 0.00165441 0)
(0.766024 0.00140271 0)
(0.763634 0.000960112 0)
(0.760824 0.000768149 0)
(0.75891 -0.00070128 0)
(1.00402 0.0323668 0)
(1.03991 0.0331283 0)
(1.05617 0.0234157 0)
(1.05894 0.0198942 0)
(1.06024 0.0176963 0)
(1.0616 0.0157655 0)
(1.06199 0.0144126 0)
(1.06111 0.0134265 0)
(1.05908 0.0125926 0)
(1.05599 0.0118512 0)
(1.05193 0.011189 0)
(1.04704 0.0105925 0)
(1.04142 0.010049 0)
(1.0352 0.00954979 0)
(1.02852 0.00908907 0)
(1.02147 0.00866256 0)
(1.01415 0.00826679 0)
(1.00666 0.00789885 0)
(0.999054 0.00755618 0)
(0.991399 0.0072365 0)
(0.983744 0.00693778 0)
(0.97613 0.00665815 0)
(0.968589 0.00639587 0)
(0.961147 0.00614934 0)
(0.953827 0.00591705 0)
(0.946644 0.00569758 0)
(0.939611 0.00548959 0)
(0.932739 0.0052918 0)
(0.926036 0.00510302 0)
(0.919506 0.00492209 0)
(0.913155 0.00474788 0)
(0.906986 0.00457936 0)
(0.901002 0.00441534 0)
(0.895204 0.00425506 0)
(0.889596 0.00409684 0)
(0.884177 0.00394076 0)
(0.878951 0.00378346 0)
(0.873918 0.00362767 0)
(0.869084 0.0034651 0)
(0.864449 0.00330593 0)
(0.860012 0.00312918 0)
(0.855799 0.00296285 0)
(0.851768 0.00275892 0)
(0.84802 0.00257716 0)
(0.844396 0.00233242 0)
(0.841191 0.00209612 0)
(0.837986 0.00181886 0)
(0.835401 0.00133419 0)
(0.83263 0.00107267 0)
(0.830404 -0.000199515 0)
(1.00364 0.0300264 0)
(1.03692 0.0320805 0)
(1.05282 0.0228256 0)
(1.0557 0.0194884 0)
(1.05715 0.0175035 0)
(1.05905 0.0156643 0)
(1.06051 0.0143586 0)
(1.06122 0.0134351 0)
(1.06125 0.0126744 0)
(1.06062 0.0120068 0)
(1.05934 0.0114162 0)
(1.05743 0.010888 0)
(1.05491 0.0104079 0)
(1.05185 0.00996608 0)
(1.04829 0.00955617 0)
(1.04431 0.00917385 0)
(1.03996 0.00881589 0)
(1.0353 0.00847975 0)
(1.0304 0.00816339 0)
(1.0253 0.00786507 0)
(1.02004 0.00758332 0)
(1.01468 0.00731678 0)
(1.00923 0.00706421 0)
(1.00375 0.00682444 0)
(0.998247 0.00659636 0)
(0.992752 0.00637886 0)
(0.987284 0.00617091 0)
(0.98186 0.00597146 0)
(0.976495 0.00577953 0)
(0.971203 0.00559411 0)
(0.965994 0.00541422 0)
(0.960877 0.00523892 0)
(0.955863 0.0050671 0)
(0.950957 0.00489805 0)
(0.946168 0.00473011 0)
(0.9415 0.00456336 0)
(0.936962 0.00439445 0)
(0.932557 0.00422599 0)
(0.928293 0.00404984 0)
(0.924176 0.00387558 0)
(0.920208 0.00368326 0)
(0.916409 0.00349827 0)
(0.912756 0.00327727 0)
(0.90932 0.00307052 0)
(0.906001 0.00280843 0)
(0.902988 0.00253665 0)
(0.900029 0.00223719 0)
(0.897486 0.00172369 0)
(0.894878 0.00140157 0)
(0.892576 0.000304105 0)
(1.00327 0.0277865 0)
(1.03409 0.0310215 0)
(1.04971 0.0222619 0)
(1.05274 0.0190805 0)
(1.05414 0.0172918 0)
(1.05611 0.015534 0)
(1.05784 0.0142501 0)
(1.05907 0.0133565 0)
(1.0599 0.0126362 0)
(1.06038 0.0120116 0)
(1.06049 0.0114657 0)
(1.06021 0.0109835 0)
(1.05953 0.0105499 0)
(1.05846 0.0101536 0)
(1.05701 0.0097874 0)
(1.0552 0.0094462 0)
(1.05307 0.00912633 0)
(1.05063 0.008825 0)
(1.04793 0.00854005 0)
(1.04499 0.00826979 0)
(1.04184 0.00801283 0)
(1.03851 0.00776799 0)
(1.03504 0.00753423 0)
(1.03144 0.00731058 0)
(1.02774 0.00709614 0)
(1.02397 0.00689 0)
(1.02013 0.00669133 0)
(1.01626 0.00649925 0)
(1.01236 0.00631293 0)
(1.00846 0.00613149 0)
(1.00456 0.00595407 0)
(1.00068 0.00577983 0)
(0.996828 0.00560773 0)
(0.993014 0.00543712 0)
(0.989251 0.00526638 0)
(0.985544 0.0050956 0)
(0.981905 0.00492147 0)
(0.97834 0.00474647 0)
(0.974859 0.00456273 0)
(0.971469 0.00437903 0)
(0.968175 0.00417694 0)
(0.964996 0.00397856 0)
(0.961919 0.00374626 0)
(0.958993 0.00351979 0)
(0.956162 0.00324579 0)
(0.953539 0.00294591 0)
(0.950984 0.00262818 0)
(0.948688 0.00209996 0)
(0.946375 0.00172789 0)
(0.944203 0.000783348 0)
(1.00292 0.0256507 0)
(1.03138 0.0299468 0)
(1.04671 0.0217203 0)
(1.04994 0.0186706 0)
(1.05133 0.017068 0)
(1.05326 0.0153966 0)
(1.05502 0.0141279 0)
(1.05637 0.0132497 0)
(1.05743 0.0125522 0)
(1.0583 0.0119512 0)
(1.05897 0.0114297 0)
(1.05942 0.0109738 0)
(1.05964 0.0105684 0)
(1.05963 0.0102016 0)
(1.05937 0.0098655 0)
(1.05887 0.00955447 0)
(1.05814 0.00926428 0)
(1.05718 0.00899172 0)
(1.05601 0.00873432 0)
(1.05463 0.00849013 0)
(1.05306 0.00825761 0)
(1.05131 0.00803548 0)
(1.04941 0.00782267 0)
(1.04737 0.00761819 0)
(1.0452 0.00742118 0)
(1.04292 0.00723079 0)
(1.04055 0.00704621 0)
(1.03809 0.00686663 0)
(1.03557 0.00669128 0)
(1.03299 0.00651935 0)
(1.03037 0.00635003 0)
(1.02771 0.00618254 0)
(1.02504 0.00601585 0)
(1.02235 0.00584937 0)
(1.01966 0.00568149 0)
(1.01698 0.00551229 0)
(1.01432 0.00533853 0)
(1.01168 0.00516247 0)
(1.00908 0.00497668 0)
(1.00652 0.00478893 0)
(1.00401 0.00458261 0)
(1.00156 0.00437619 0)
(0.999176 0.00413821 0)
(0.996884 0.00389789 0)
(0.994657 0.00361719 0)
(0.992556 0.00329752 0)
(0.990514 0.00296594 0)
(0.988614 0.00243585 0)
(0.986699 0.00202716 0)
(0.984814 0.00120748 0)
(1.0026 0.0236215 0)
(1.0288 0.0288552 0)
(1.04379 0.0211997 0)
(1.04725 0.0182585 0)
(1.04865 0.0168307 0)
(1.05054 0.0152546 0)
(1.05229 0.014003 0)
(1.05365 0.0131355 0)
(1.05475 0.0124541 0)
(1.05571 0.0118681 0)
(1.05655 0.0113601 0)
(1.05726 0.0109183 0)
(1.05785 0.0105282 0)
(1.0583 0.0101781 0)
(1.05861 0.00985976 0)
(1.05878 0.00956733 0)
(1.0588 0.00929637 0)
(1.05868 0.00904337 0)
(1.05842 0.00880561 0)
(1.05801 0.00858089 0)
(1.05746 0.00836749 0)
(1.05678 0.00816395 0)
(1.05597 0.00796905 0)
(1.05504 0.00778173 0)
(1.054 0.00760103 0)
(1.05286 0.00742604 0)
(1.05162 0.00725591 0)
(1.05029 0.00708981 0)
(1.04888 0.00692693 0)
(1.0474 0.00676646 0)
(1.04586 0.00660757 0)
(1.04427 0.00644948 0)
(1.04263 0.00629116 0)
(1.04095 0.006132 0)
(1.03924 0.00597038 0)
(1.03751 0.00580636 0)
(1.03577 0.00563673 0)
(1.03402 0.00546351 0)
(1.03227 0.00527975 0)
(1.03053 0.00509209 0)
(1.0288 0.00488595 0)
(1.0271 0.004676 0)
(1.02543 0.00443696 0)
(1.0238 0.00418821 0)
(1.02221 0.00390517 0)
(1.02068 0.00357367 0)
(1.0192 0.00323291 0)
(1.01777 0.00271107 0)
(1.0163 0.00227932 0)
(1.0148 0.00156298 0)
(1.0023 0.0217008 0)
(1.02634 0.0277474 0)
(1.04096 0.0206983 0)
(1.04465 0.0178458 0)
(1.04606 0.0165786 0)
(1.04792 0.0151065 0)
(1.04967 0.0138767 0)
(1.05102 0.013019 0)
(1.05212 0.0123521 0)
(1.05308 0.0117785 0)
(1.05395 0.0112798 0)
(1.05473 0.0108464 0)
(1.05542 0.010465 0)
(1.05604 0.0101239 0)
(1.05657 0.00981523 0)
(1.05702 0.0095331 0)
(1.05739 0.00927304 0)
(1.05767 0.00903151 0)
(1.05787 0.00880568 0)
(1.05798 0.00859325 0)
(1.05801 0.00839237 0)
(1.05795 0.00820147 0)
(1.0578 0.00801924 0)
(1.05756 0.00784449 0)
(1.05725 0.00767619 0)
(1.05686 0.00751334 0)
(1.05639 0.00735502 0)
(1.05585 0.00720033 0)
(1.05524 0.0070484 0)
(1.05457 0.00689837 0)
(1.05384 0.00674936 0)
(1.05305 0.00660055 0)
(1.05222 0.00645087 0)
(1.05134 0.00629967 0)
(1.05042 0.00614531 0)
(1.04947 0.00598774 0)
(1.04849 0.00582386 0)
(1.04749 0.00565534 0)
(1.04647 0.0054758 0)
(1.04545 0.00529063 0)
(1.04441 0.00508737 0)
(1.04338 0.00487695 0)
(1.04235 0.00463991 0)
(1.04134 0.00438701 0)
(1.04034 0.00410464 0)
(1.03936 0.00376801 0)
(1.0384 0.00342205 0)
(1.03744 0.00291608 0)
(1.03642 0.00247302 0)
(1.03532 0.00184146 0)
(1.00203 0.0198894 0)
(1.02402 0.0266265 0)
(1.03822 0.0202131 0)
(1.04212 0.0174344 0)
(1.04356 0.0163116 0)
(1.04539 0.0149509 0)
(1.04714 0.0137483 0)
(1.04849 0.0129005 0)
(1.04957 0.0122479 0)
(1.05052 0.0116866 0)
(1.05139 0.0111963 0)
(1.05217 0.0107695 0)
(1.05288 0.010394 0)
(1.05353 0.0100586 0)
(1.05413 0.00975557 0)
(1.05468 0.00947913 0)
(1.05518 0.00922497 0)
(1.05562 0.00898961 0)
(1.05602 0.00877026 0)
(1.05637 0.00856463 0)
(1.05667 0.00837085 0)
(1.05691 0.00818733 0)
(1.05711 0.0080127 0)
(1.05726 0.00784575 0)
(1.05735 0.00768539 0)
(1.05739 0.00753055 0)
(1.05739 0.00738028 0)
(1.05733 0.00723361 0)
(1.05723 0.00708961 0)
(1.05708 0.00694739 0)
(1.05688 0.00680598 0)
(1.05664 0.00666455 0)
(1.05636 0.00652195 0)
(1.05605 0.00637751 0)
(1.0557 0.00622952 0)
(1.05531 0.00607786 0)
(1.0549 0.00591951 0)
(1.05447 0.00575577 0)
(1.05401 0.00558085 0)
(1.05353 0.00539889 0)
(1.05304 0.0051995 0)
(1.05254 0.00499012 0)
(1.05203 0.00475645 0)
(1.05152 0.00450223 0)
(1.05101 0.00422209 0)
(1.0505 0.00388525 0)
(1.04998 0.00353719 0)
(1.04943 0.00305161 0)
(1.04881 0.00260668 0)
(1.04808 0.00204449 0)
(1.00179 0.0181874 0)
(1.02183 0.0254964 0)
(1.03559 0.0197403 0)
(1.03969 0.017026 0)
(1.04116 0.0160307 0)
(1.04295 0.014787 0)
(1.0447 0.0136173 0)
(1.04605 0.0127797 0)
(1.04713 0.0121415 0)
(1.04806 0.0115931 0)
(1.04891 0.0111115 0)
(1.04968 0.0106909 0)
(1.05039 0.0103206 0)
(1.05104 0.00998987 0)
(1.05164 0.00969084 0)
(1.05221 0.00941809 0)
(1.05274 0.00916743 0)
(1.05324 0.00893551 0)
(1.0537 0.00871961 0)
(1.05414 0.0085175 0)
(1.05455 0.00832737 0)
(1.05493 0.00814764 0)
(1.05528 0.00797699 0)
(1.0556 0.0078142 0)
(1.05589 0.00765815 0)
(1.05615 0.00750781 0)
(1.05639 0.00736216 0)
(1.05659 0.00722023 0)
(1.05677 0.00708106 0)
(1.05691 0.0069437 0)
(1.05703 0.00680717 0)
(1.05712 0.0066706 0)
(1.05718 0.00653279 0)
(1.05722 0.00639304 0)
(1.05723 0.00624962 0)
(1.05721 0.00610229 0)
(1.05718 0.00594817 0)
(1.05712 0.00578813 0)
(1.05704 0.00561706 0)
(1.05695 0.00543781 0)
(1.05684 0.00524199 0)
(1.05672 0.00503394 0)
(1.05659 0.00480368 0)
(1.05645 0.00454963 0)
(1.0563 0.00427206 0)
(1.05613 0.0039381 0)
(1.05595 0.00359011 0)
(1.05573 0.00312673 0)
(1.05542 0.0026869 0)
(1.05499 0.00218091 0)
(1.00157 0.0165946 0)
(1.01979 0.0243611 0)
(1.03305 0.0192758 0)
(1.03733 0.0166225 0)
(1.03885 0.015737 0)
(1.0406 0.014614 0)
(1.04234 0.0134835 0)
(1.0437 0.0126567 0)
(1.04477 0.0120328 0)
(1.04569 0.0114979 0)
(1.04653 0.0110254 0)
(1.04728 0.0106113 0)
(1.04798 0.0102463 0)
(1.04862 0.00991985 0)
(1.04922 0.00962445 0)
(1.04978 0.00935476 0)
(1.05031 0.00910672 0)
(1.05081 0.0088771 0)
(1.05129 0.00866328 0)
(1.05175 0.00846311 0)
(1.05219 0.00827484 0)
(1.05261 0.00809696 0)
(1.05302 0.00792817 0)
(1.05341 0.00776729 0)
(1.05378 0.00761325 0)
(1.05414 0.00746501 0)
(1.05448 0.00732157 0)
(1.05481 0.00718196 0)
(1.05512 0.00704518 0)
(1.05541 0.00691032 0)
(1.05569 0.00677635 0)
(1.05595 0.00664238 0)
(1.05619 0.00650722 0)
(1.05642 0.0063701 0)
(1.05663 0.00622934 0)
(1.05683 0.00608454 0)
(1.05701 0.00593302 0)
(1.05718 0.00577522 0)
(1.05734 0.00560668 0)
(1.05748 0.00542912 0)
(1.05761 0.00523586 0)
(1.05774 0.00502873 0)
(1.05785 0.00480112 0)
(1.05795 0.00454779 0)
(1.05804 0.00427238 0)
(1.05811 0.0039429 0)
(1.05816 0.0035964 0)
(1.05816 0.003155 0)
(1.05807 0.00272491 0)
(1.05787 0.00226399 0)
(1.00137 0.0151101 0)
(1.01788 0.0232246 0)
(1.03062 0.0188156 0)
(1.03507 0.0162253 0)
(1.03663 0.015432 0)
(1.03834 0.0144313 0)
(1.04008 0.0133464 0)
(1.04144 0.0125314 0)
(1.0425 0.0119216 0)
(1.04341 0.0114007 0)
(1.04423 0.010938 0)
(1.04498 0.0105307 0)
(1.04566 0.010171 0)
(1.04629 0.00984905 0)
(1.04688 0.00955729 0)
(1.04743 0.00929054 0)
(1.04795 0.0090449 0)
(1.04844 0.00881723 0)
(1.04892 0.008605 0)
(1.04937 0.00840616 0)
(1.04982 0.008219 0)
(1.05025 0.00804207 0)
(1.05067 0.00787414 0)
(1.05107 0.00771406 0)
(1.05147 0.00756079 0)
(1.05186 0.00741332 0)
(1.05224 0.00727068 0)
(1.05261 0.0071319 0)
(1.05298 0.00699601 0)
(1.05333 0.00686207 0)
(1.05368 0.00672906 0)
(1.05402 0.00659611 0)
(1.05435 0.006462 0)
(1.05467 0.00632595 0)
(1.05498 0.00618631 0)
(1.05528 0.00604256 0)
(1.05558 0.00589222 0)
(1.05587 0.00573533 0)
(1.05615 0.00556805 0)
(1.05642 0.00539109 0)
(1.05669 0.00519927 0)
(1.05695 0.00499242 0)
(1.0572 0.00476644 0)
(1.05744 0.00451388 0)
(1.05768 0.00423996 0)
(1.05789 0.0039156 0)
(1.05807 0.00357151 0)
(1.05821 0.00315066 0)
(1.05826 0.00273303 0)
(1.05821 0.00230795 0)
(1.0012 0.0137322 0)
(1.0161 0.0220908 0)
(1.0283 0.0183562 0)
(1.03289 0.0158357 0)
(1.0345 0.0151173 0)
(1.03618 0.0142383 0)
(1.0379 0.0132055 0)
(1.03926 0.012404 0)
(1.04032 0.0118077 0)
(1.04122 0.0113014 0)
(1.04203 0.0108492 0)
(1.04277 0.010449 0)
(1.04344 0.0100948 0)
(1.04406 0.00977747 0)
(1.04463 0.00948947 0)
(1.04517 0.00922573 0)
(1.04568 0.00898249 0)
(1.04617 0.00875672 0)
(1.04663 0.00854597 0)
(1.04708 0.00834827 0)
(1.04752 0.00816196 0)
(1.04794 0.00798567 0)
(1.04835 0.00781819 0)
(1.04876 0.00765843 0)
(1.04916 0.00750538 0)
(1.04955 0.00735807 0)
(1.04994 0.00721553 0)
(1.05033 0.00707684 0)
(1.0507 0.00694101 0)
(1.05108 0.00680713 0)
(1.05145 0.00667419 0)
(1.05181 0.0065413 0)
(1.05217 0.00640727 0)
(1.05253 0.00627129 0)
(1.05289 0.00613177 0)
(1.05323 0.00598808 0)
(1.05358 0.00583792 0)
(1.05392 0.00568098 0)
(1.05426 0.00551399 0)
(1.05459 0.00533682 0)
(1.05493 0.00514548 0)
(1.05525 0.00493838 0)
(1.05557 0.00471312 0)
(1.05589 0.00446123 0)
(1.05619 0.00418823 0)
(1.05648 0.00386905 0)
(1.05674 0.00352809 0)
(1.05694 0.00312581 0)
(1.05708 0.00272193 0)
(1.05712 0.00232531 0)
(1.00104 0.0124587 0)
(1.01446 0.0209643 0)
(1.02609 0.0178941 0)
(1.0308 0.0154542 0)
(1.03247 0.0147949 0)
(1.03411 0.0140347 0)
(1.03581 0.0130605 0)
(1.03718 0.0122743 0)
(1.03823 0.0116914 0)
(1.03913 0.0111999 0)
(1.03993 0.0107588 0)
(1.04065 0.010366 0)
(1.04131 0.0100176 0)
(1.04192 0.00970505 0)
(1.04248 0.00942094 0)
(1.04301 0.00916032 0)
(1.04351 0.00891954 0)
(1.04398 0.00869571 0)
(1.04444 0.00848646 0)
(1.04488 0.00828987 0)
(1.0453 0.00810436 0)
(1.04572 0.00792861 0)
(1.04613 0.00776145 0)
(1.04653 0.00760185 0)
(1.04692 0.00744881 0)
(1.04731 0.00730141 0)
(1.04769 0.0071587 0)
(1.04807 0.00701976 0)
(1.04845 0.00688363 0)
(1.04883 0.00674941 0)
(1.0492 0.00661608 0)
(1.04957 0.00648278 0)
(1.04994 0.00634833 0)
(1.0503 0.00621189 0)
(1.05067 0.00607194 0)
(1.05103 0.00592772 0)
(1.05139 0.00577715 0)
(1.05175 0.0056196 0)
(1.05211 0.00545228 0)
(1.05247 0.00527441 0)
(1.05282 0.00508291 0)
(1.05318 0.00487523 0)
(1.05353 0.00465006 0)
(1.05387 0.00439876 0)
(1.05421 0.00412634 0)
(1.05452 0.00381221 0)
(1.05481 0.00347501 0)
(1.05505 0.00308923 0)
(1.05523 0.00269945 0)
(1.05532 0.0023256 0)
(1.0009 0.0112867 0)
(1.01296 0.0198492 0)
(1.02399 0.0174261 0)
(1.0288 0.0150816 0)
(1.03054 0.014467 0)
(1.03213 0.0138202 0)
(1.03381 0.0129106 0)
(1.03518 0.0121424 0)
(1.03624 0.0115724 0)
(1.03712 0.011096 0)
(1.03791 0.0106666 0)
(1.03863 0.0102818 0)
(1.03928 0.00993938 0)
(1.03988 0.00963171 0)
(1.04043 0.00935163 0)
(1.04095 0.00909424 0)
(1.04143 0.00885601 0)
(1.0419 0.00863418 0)
(1.04235 0.00842646 0)
(1.04277 0.00823101 0)
(1.04319 0.00804631 0)
(1.0436 0.00787109 0)
(1.044 0.00770423 0)
(1.04439 0.00754473 0)
(1.04477 0.00739165 0)
(1.04515 0.00724408 0)
(1.04553 0.00710109 0)
(1.0459 0.00696178 0)
(1.04627 0.0068252 0)
(1.04664 0.00669047 0)
(1.04701 0.00655658 0)
(1.04738 0.00642266 0)
(1.04774 0.00628756 0)
(1.04811 0.00615041 0)
(1.04847 0.00600976 0)
(1.04883 0.00586475 0)
(1.0492 0.00571347 0)
(1.04956 0.00555504 0)
(1.04992 0.00538706 0)
(1.05028 0.00520824 0)
(1.05064 0.00501621 0)
(1.051 0.00480784 0)
(1.05136 0.00458238 0)
(1.05171 0.00433167 0)
(1.05205 0.00405978 0)
(1.05237 0.00375049 0)
(1.05267 0.00341763 0)
(1.05292 0.00304643 0)
(1.05312 0.00267052 0)
(1.05324 0.00231512 0)
(1.00078 0.0102127 0)
(1.01157 0.01875 0)
(1.022 0.0169496 0)
(1.02688 0.0147177 0)
(1.02869 0.0141355 0)
(1.03025 0.0135948 0)
(1.0319 0.0127553 0)
(1.03327 0.0120082 0)
(1.03433 0.011451 0)
(1.03521 0.0109896 0)
(1.03599 0.0105725 0)
(1.03669 0.0101961 0)
(1.03734 0.00985993 0)
(1.03792 0.00955735 0)
(1.03847 0.00928146 0)
(1.03898 0.00902742 0)
(1.03946 0.00879184 0)
(1.03991 0.00857207 0)
(1.04035 0.00836594 0)
(1.04077 0.00817166 0)
(1.04118 0.00798779 0)
(1.04157 0.00781311 0)
(1.04196 0.00764655 0)
(1.04234 0.00748716 0)
(1.04272 0.00733402 0)
(1.04309 0.00718625 0)
(1.04346 0.00704295 0)
(1.04383 0.00690323 0)
(1.04419 0.00676616 0)
(1.04455 0.00663086 0)
(1.04491 0.00649634 0)
(1.04527 0.00636171 0)
(1.04563 0.00622588 0)
(1.04599 0.00608792 0)
(1.04635 0.00594647 0)
(1.0467 0.00580056 0)
(1.04706 0.00564844 0)
(1.04742 0.00548902 0)
(1.04778 0.00532021 0)
(1.04813 0.00514039 0)
(1.04849 0.00494764 0)
(1.04885 0.00473859 0)
(1.0492 0.00451269 0)
(1.04955 0.00426264 0)
(1.04988 0.00399139 0)
(1.0502 0.00368673 0)
(1.0505 0.00335874 0)
(1.05075 0.00300046 0)
(1.05095 0.00263782 0)
(1.05109 0.00229762 0)
(1.00067 0.00923264 0)
(1.01031 0.0176713 0)
(1.02013 0.0164623 0)
(1.02504 0.0143625 0)
(1.02693 0.0138025 0)
(1.02846 0.0133588 0)
(1.03007 0.0125938 0)
(1.03145 0.0118716 0)
(1.03251 0.011327 0)
(1.03338 0.0108806 0)
(1.03415 0.0104764 0)
(1.03485 0.0101089 0)
(1.03548 0.00977921 0)
(1.03606 0.00948189 0)
(1.0366 0.00921034 0)
(1.0371 0.00895978 0)
(1.03757 0.00872694 0)
(1.03802 0.00850931 0)
(1.03844 0.00830481 0)
(1.03886 0.00811175 0)
(1.03926 0.00792875 0)
(1.03964 0.00775463 0)
(1.04003 0.00758838 0)
(1.0404 0.0074291 0)
(1.04077 0.0072759 0)
(1.04113 0.00712793 0)
(1.04149 0.00698431 0)
(1.04185 0.00684417 0)
(1.04221 0.0067066 0)
(1.04256 0.00657071 0)
(1.04292 0.00643553 0)
(1.04327 0.00630018 0)
(1.04362 0.00616357 0)
(1.04397 0.00602478 0)
(1.04432 0.00588249 0)
(1.04467 0.00573565 0)
(1.04502 0.00558264 0)
(1.04537 0.00542221 0)
(1.04572 0.00525251 0)
(1.04607 0.00507171 0)
(1.04642 0.00487816 0)
(1.04677 0.0046685 0)
(1.04711 0.00444216 0)
(1.04745 0.00419285 0)
(1.04778 0.00392249 0)
(1.0481 0.00362228 0)
(1.04839 0.00329955 0)
(1.04864 0.00295278 0)
(1.04884 0.00260259 0)
(1.04898 0.00227512 0)
(1.00058 0.00834184 0)
(1.00917 0.0166172 0)
(1.01837 0.0159626 0)
(1.0233 0.0140151 0)
(1.02526 0.01347 0)
(1.02676 0.0131128 0)
(1.02834 0.0124256 0)
(1.02971 0.0117323 0)
(1.03077 0.0112006 0)
(1.03164 0.0107689 0)
(1.0324 0.0103782 0)
(1.0331 0.0100201 0)
(1.03372 0.00969713 0)
(1.03429 0.00940524 0)
(1.03482 0.00913818 0)
(1.03531 0.00889123 0)
(1.03578 0.00866124 0)
(1.03621 0.00844583 0)
(1.03663 0.00824302 0)
(1.03704 0.00805122 0)
(1.03743 0.00786911 0)
(1.03781 0.00769557 0)
(1.03819 0.00752966 0)
(1.03855 0.00737049 0)
(1.03891 0.00721724 0)
(1.03927 0.00706907 0)
(1.03962 0.00692514 0)
(1.03997 0.00678458 0)
(1.04032 0.00664649 0)
(1.04067 0.00651 0)
(1.04102 0.00637416 0)
(1.04136 0.00623808 0)
(1.0417 0.0061007 0)
(1.04205 0.00596107 0)
(1.04239 0.00581793 0)
(1.04273 0.00567016 0)
(1.04308 0.00551625 0)
(1.04342 0.00535483 0)
(1.04376 0.00518422 0)
(1.0441 0.00500249 0)
(1.04445 0.00480813 0)
(1.04479 0.00459795 0)
(1.04512 0.00437124 0)
(1.04545 0.00412277 0)
(1.04577 0.00385356 0)
(1.04608 0.00355763 0)
(1.04636 0.00324042 0)
(1.0466 0.002904 0)
(1.0468 0.00256532 0)
(1.04695 0.00224866 0)
(1.0005 0.0075353 0)
(1.00814 0.0155921 0)
(1.01673 0.0154495 0)
(1.02163 0.0136748 0)
(1.02368 0.0131396 0)
(1.02515 0.0128575 0)
(1.02669 0.0122501 0)
(1.02806 0.0115901 0)
(1.02912 0.0110717 0)
(1.02999 0.0106544 0)
(1.03074 0.0102775 0)
(1.03143 0.00992949 0)
(1.03205 0.00961359 0)
(1.03261 0.00932731 0)
(1.03313 0.00906489 0)