/*--------------------------------*- C++ -*----------------------------------*\
  =========                 |
  \\      /  F ield         | OpenFOAM: The Open Source CFD Toolbox
   \\    /   O peration     | Website:  https://openfoam.org
    \\  /    A nd           | Version:  7
     \\/     M anipulation  |
\*---------------------------------------------------------------------------*/
FoamFile
{
    version     2.0;
    format      ascii;
    class       volScalarField;
    location    "0.41";
    object      nut;
}
// * * * * * * * * * * * * * * * * * * * * * * * * * * * * * * * * * * * * * //

dimensions      [0 2 -1 0 0 0 0];

internalField   nonuniform List<scalar> 
70000
(
9.96273e-12
6.88062e-14
2.56389e-16
8.616e-17
4.7935e-17
7.88107e-17
2.77055e-17
1.29578e-17
8.78259e-18
6.40513e-18
4.68797e-18
3.48955e-18
2.6569e-18
2.06404e-18
1.63064e-18
1.30669e-18
1.05962e-18
8.68333e-19
7.17685e-19
5.9764e-19
5.00649e-19
4.21438e-19
3.55988e-19
3.01487e-19
2.55436e-19
2.16488e-19
1.8285e-19
1.54062e-19
1.28608e-19
1.06792e-19
8.69519e-20
7.01979e-20
5.46272e-20
4.17551e-20
3.02447e-20
2.0324e-20
1.35692e-20
5.96394e-21
4.54421e-21
1.33971e-22
1.52298e-21
4.68578e-21
8.44407e-21
2.70767e-19
2.22369e-19
5.93143e-18
9.11179e-18
9.16283e-17
8.67917e-15
1.02924e-13
1.04276e-10
5.98739e-12
6.44395e-14
2.14301e-14
2.88982e-16
1.69681e-17
2.52368e-17
2.12041e-17
1.233e-17
7.34437e-18
4.817e-18
3.35993e-18
2.43298e-18
1.81223e-18
1.38216e-18
1.07562e-18
8.51886e-19
6.84645e-19
5.57442e-19
4.58856e-19
3.81343e-19
3.19546e-19
2.69708e-19
2.28938e-19
1.95473e-19
1.67409e-19
1.441e-19
1.24042e-19
1.07384e-19
9.25055e-20
8.04593e-20
6.91023e-20
6.02946e-20
5.16462e-20
4.45119e-20
3.91217e-20
3.11312e-20
3.21134e-20
1.84158e-20
3.40055e-20
9.96574e-21
6.08805e-20
1.12289e-19
4.75619e-19
2.14944e-18
9.0889e-18
5.18636e-17
2.06355e-16
3.60001e-14
4.71745e-14
3.19175e-10
3.39786e-12
1.90878e-13
1.99012e-14
7.67053e-16
5.85561e-17
7.37461e-18
4.24468e-18
2.17677e-18
1.09205e-18
6.1229e-19
3.79375e-19
2.50066e-19
1.71905e-19
1.2226e-19
8.95936e-20
6.74938e-20
5.2086e-20
4.11383e-20
3.31742e-20
2.73026e-20
2.29191e-20
1.96349e-20
1.71628e-20
1.53661e-20
1.4063e-20
1.32695e-20
1.28454e-20
1.29431e-20
1.34148e-20
1.46341e-20
1.64182e-20
1.94793e-20
2.38513e-20
3.0352e-20
4.08078e-20
5.3708e-20
7.99999e-20
1.03591e-19
1.75221e-19
2.18117e-19
4.49996e-19
6.85951e-19
1.63726e-18
4.92185e-18
1.98878e-17
8.57555e-17
3.22731e-16
5.03304e-14
1.73137e-13
6.15372e-09
1.92769e-11
7.84008e-13
6.10639e-14
5.48507e-15
9.29251e-16
1.11116e-16
2.99065e-17
1.26423e-17
5.69491e-18
2.71562e-18
1.42903e-18
8.2295e-19
5.06733e-19
3.28686e-19
2.22985e-19
1.57581e-19
1.1568e-19
8.80475e-20
6.93914e-20
5.6599e-20
4.77802e-20
4.17743e-20
3.78747e-20
3.56538e-20
3.48903e-20
3.55361e-20
3.76903e-20
4.16158e-20
4.78511e-20
5.71014e-20
7.08494e-20
9.05808e-20
1.20329e-19
1.62659e-19
2.29259e-19
3.22118e-19
4.78068e-19
6.84563e-19
1.06987e-18
1.53259e-18
2.58926e-18
3.6968e-18
6.91758e-18
1.60873e-17
3.30124e-17
1.57598e-16
2.07857e-16
4.89283e-14
2.29463e-13
2.3213e-09
2.23373e-10
4.45499e-12
3.21616e-13
2.30182e-14
4.4069e-15
7.24771e-16
2.051e-16
8.46825e-17
3.81258e-17
1.81669e-17
9.44064e-18
5.33612e-18
3.22313e-18
2.053e-18
1.36902e-18
9.51492e-19
6.87102e-19
5.14374e-19
3.98548e-19
3.19368e-19
2.64624e-19
2.26834e-19
2.0139e-19
1.85414e-19
1.77276e-19
1.76242e-19
1.82387e-19
1.96449e-19
2.20488e-19
2.57001e-19
3.12051e-19
3.9098e-19
5.10441e-19
6.79485e-19
9.46104e-19
1.31697e-18
1.93985e-18
2.77278e-18
4.29744e-18
6.20123e-18
1.01325e-17
1.46488e-17
2.64915e-17
5.09722e-17
7.1099e-17
3.31518e-16
1.54712e-16
4.82453e-14
2.00897e-13
3.0091e-09
5.28626e-09
4.35982e-11
1.94466e-12
1.07915e-13
1.80006e-14
3.25393e-15
9.54678e-16
3.92282e-16
1.7741e-16
8.50244e-17
4.41147e-17
2.47468e-17
1.47931e-17
9.31378e-18
6.13463e-18
4.20904e-18
2.999e-18
2.21401e-18
1.6907e-18
1.33431e-18
1.08796e-18
9.16857e-19
7.99409e-19
7.22012e-19
6.76484e-19
6.58462e-19
6.66678e-19
7.02329e-19
7.70893e-19
8.79276e-19
1.04538e-18
1.28446e-18
1.64662e-18
2.15708e-18
2.96087e-18
4.07386e-18
5.94088e-18
8.43677e-18
1.2977e-17
1.87312e-17
3.01384e-17
4.46643e-17
7.38248e-17
1.32732e-16
1.69119e-16
7.03446e-16
2.84688e-16
4.64862e-14
1.68875e-13
1.07674e-09
4.76591e-09
3.71593e-09
1.85035e-11
6.70347e-13
9.16498e-14
1.5211e-14
4.16631e-15
1.62147e-15
7.1379e-16
3.37476e-16
1.73184e-16
9.60796e-17
5.67967e-17
3.53604e-17
2.30254e-17
1.56124e-17
1.09883e-17
8.00886e-18
6.0346e-18
4.69618e-18
3.77305e-18
3.13051e-18
2.6848e-18
2.38285e-18
2.19176e-18
2.09247e-18
2.07638e-18
2.14282e-18
2.30338e-18
2.57358e-18
2.99813e-18
3.61379e-18
4.54768e-18
5.86066e-18
7.91846e-18
1.07595e-17
1.5491e-17
2.18285e-17
3.32107e-17
4.78653e-17
7.58888e-17
1.13286e-16
1.77183e-16
3.10138e-16
3.90176e-16
1.4343e-15
7.89355e-16
4.48988e-14
1.40932e-13
2.42892e-09
3.87064e-09
8.22852e-10
2.42124e-09
8.60321e-12
7.12651e-13
9.06354e-14
2.07751e-14
7.18404e-15
2.93024e-15
1.3154e-15
6.4968e-16
3.49905e-16
2.01998e-16
1.23305e-16
7.89264e-17
5.2689e-17
3.65429e-17
2.62579e-17
1.95077e-17
1.49666e-17
1.18512e-17
9.68674e-18
8.17882e-18
7.14129e-18
6.45697e-18
6.05495e-18
5.89736e-18
5.97056e-18
6.29347e-18
6.89599e-18
7.87843e-18
9.32153e-18
1.15168e-17
1.46009e-17
1.94045e-17
2.60248e-17
3.69298e-17
5.15877e-17
7.74404e-17
1.11285e-16
1.73679e-16
2.59988e-16
3.98952e-16
6.90519e-16
8.57871e-16
2.79433e-15
2.12729e-15
4.46139e-14
1.16636e-13
3.37057e-09
4.37147e-09
5.91345e-10
2.99725e-10
5.48466e-10
1.85359e-11
9.58642e-13
1.46205e-13
4.02065e-14
1.41702e-14
5.73645e-15
2.62229e-15
1.33091e-15
7.33464e-16
4.31394e-16
2.67828e-16
1.7424e-16
1.18162e-16
8.32131e-17
6.06868e-17
4.57539e-17
3.56262e-17
2.86433e-17
2.37896e-17
2.04291e-17
1.81602e-17
1.67352e-17
1.60101e-17
1.59151e-17
1.64657e-17
1.77094e-17
1.98567e-17
2.30753e-17
2.79997e-17
3.49257e-17
4.56431e-17
6.03987e-17
8.43896e-17
1.1677e-16
1.72665e-16
2.47068e-16
3.7916e-16
5.68145e-16
8.55308e-16
1.47467e-15
1.85144e-15
5.30873e-15
5.11769e-15
4.713e-14
9.82513e-14
3.41215e-09
4.60866e-09
6.72974e-10
1.93382e-10
4.69846e-11
6.69861e-11
3.09668e-10
2.83414e-12
3.95943e-13
9.99588e-14
3.28563e-14
1.29853e-14
5.91985e-15
3.00548e-15
1.65717e-15
9.76641e-16
6.08675e-16
3.98124e-16
2.71787e-16
1.9287e-16
1.41892e-16
1.08036e-16
8.50671e-17
6.9267e-17
5.83564e-17
5.09132e-17
4.60557e-17
4.32507e-17
4.22036e-17
4.28566e-17
4.52496e-17
4.98046e-17
5.68542e-17
6.77591e-17
8.31475e-17
1.06826e-16
1.39404e-16
1.91642e-16
2.62428e-16
3.818e-16
5.43214e-16
8.19162e-16
1.2248e-15
1.81424e-15
3.09181e-15
3.97885e-15
1.0107e-14
1.1295e-14
5.45961e-14
8.84065e-14
3.21309e-09
4.39236e-09
7.74212e-10
2.01978e-10
3.64568e-11
2.17248e-11
1.34095e-11
2.10299e-11
1.56937e-10
2.30806e-12
3.70965e-13
1.01907e-13
3.69959e-14
1.60337e-14
7.86294e-15
4.23238e-15
2.45371e-15
1.5127e-15
9.82812e-16
6.68621e-16
4.74201e-16
3.49567e-16
2.6738e-16
2.12041e-16
1.74328e-16
1.4864e-16
1.3155e-16
1.20959e-16
1.15636e-16
1.1509e-16
1.1916e-16
1.28643e-16
1.44149e-16
1.68641e-16
2.03434e-16
2.56782e-16
3.30153e-16
4.46172e-16
6.03916e-16
8.63573e-16
1.21957e-15
1.80605e-15
2.68719e-15
3.92571e-15
6.56735e-15
8.69353e-15
1.97695e-14
2.40273e-14
7.09458e-14
8.90739e-14
3.01879e-09
3.97401e-09
8.46917e-10
2.12871e-10
3.87322e-11
2.00474e-11
8.60032e-12
4.61136e-12
4.2381e-12
6.97222e-12
8.37551e-11
5.29911e-12
6.13577e-13
1.61899e-13
5.93646e-14
2.62879e-14
1.32253e-14
7.31486e-15
4.35997e-15
2.76428e-15
1.84821e-15
1.29561e-15
9.48693e-16
7.23989e-16
5.75142e-16
4.75384e-16
4.08883e-16
3.66116e-16
3.41376e-16
3.318e-16
3.35855e-16
3.54762e-16
3.89367e-16
4.46346e-16
5.28385e-16
6.54246e-16
8.27414e-16
1.09759e-15
1.46587e-15
2.05731e-15
2.87763e-15
4.1811e-15
6.17304e-15
8.89545e-15
1.45737e-14
1.96604e-14
4.04847e-14
5.17486e-14
1.05318e-13
1.04588e-13
2.84751e-09
3.51409e-09
9.08623e-10
2.10311e-10
4.22516e-11
2.15792e-11
9.01773e-12
3.92419e-12
2.48984e-12
1.9536e-12
1.79861e-12
2.16002e-12
4.53676e-12
8.81925e-11
3.20994e-12
4.85306e-13
1.48678e-13
6.10702e-14
2.97349e-14
1.62544e-14
9.69331e-15
6.20074e-15
4.21096e-15
3.0162e-15
2.26936e-15
1.789e-15
1.47562e-15
1.27259e-15
1.14681e-15
1.08026e-15
1.06218e-15
1.09186e-15
1.1683e-15
1.30704e-15
1.51293e-15
1.83181e-15
2.27186e-15
2.95025e-15
3.87694e-15
5.32818e-15
7.35997e-15
1.04758e-14
1.52946e-14
2.17201e-14
3.47904e-14
4.73002e-14
8.92355e-14
1.17101e-13
1.81609e-13
1.48053e-13
2.67761e-09
3.05863e-09
9.77676e-10
1.99175e-10
4.54346e-11
2.30434e-11
1.02687e-11
4.22982e-12
2.43186e-12
1.64727e-12
1.18617e-12
9.26421e-13
8.15726e-13
8.34426e-13
1.04724e-12
1.8723e-12
8.84076e-12
1.63907e-11
1.02077e-12
2.69926e-13
1.07915e-13
5.32372e-14
3.00461e-14
1.87125e-14
1.26098e-14
9.08849e-15
6.95635e-15
5.62918e-15
4.80044e-15
4.30746e-15
4.0558e-15
4.00897e-15
4.13982e-15
4.48104e-15
5.03378e-15
5.92094e-15
7.1593e-15
9.05486e-15
1.16512e-14
1.56173e-14
2.12094e-14
2.94893e-14
4.23887e-14
5.91976e-14
9.23538e-14
1.25923e-13
2.19374e-13
2.88902e-13
3.70521e-13
2.59898e-13
2.49925e-09
2.62382e-09
1.05758e-09
1.85111e-10
4.87646e-11
2.39497e-11
1.16638e-11
4.74747e-12
2.64918e-12
1.73497e-12
1.17661e-12
8.28969e-13
6.23906e-13
5.04944e-13
4.39623e-13
4.14183e-13
4.28133e-13
4.98158e-13
6.86614e-13
1.26543e-12
4.73848e-12
6.74328e-11
1.75358e-12
4.41308e-13
1.84242e-13
9.78381e-14
6.03929e-14
4.15915e-14
3.12569e-14
2.53173e-14
2.18926e-14
2.01287e-14
1.95277e-14
2.00041e-14
2.14106e-14
2.40897e-14
2.8024e-14
3.41338e-14
4.25761e-14
5.52039e-14
7.31104e-14
9.87341e-14
1.38743e-13
1.89803e-13
2.86867e-13
3.8953e-13
6.3047e-13
8.21578e-13
9.24089e-13
5.84201e-13
2.31302e-09
2.22365e-09
1.14301e-09
1.70745e-10
5.27092e-11
2.44308e-11
1.3106e-11
5.33146e-12
2.93293e-12
1.91655e-12
1.29017e-12
8.8586e-13
6.37462e-13
4.83242e-13
3.84028e-13
3.19142e-13
2.77515e-13
2.53031e-13
2.42753e-13
2.46451e-13
2.67251e-13
3.14286e-13
4.11197e-13
6.27656e-13
1.24048e-12
4.36579e-12
2.91242e-10
4.42228e-12
1.10353e-12
5.09648e-13
3.09237e-13
2.21824e-13
1.78789e-13
1.58406e-13
1.50869e-13
1.53965e-13
1.65172e-13
1.87258e-13
2.20109e-13
2.69851e-13
3.41629e-13
4.4134e-13
5.97516e-13
7.92256e-13
1.14934e-12
1.53769e-12
2.31815e-12
2.95507e-12
3.03038e-12
1.79338e-12
2.12121e-09
1.86437e-09
1.22665e-09
1.57118e-10
5.73118e-11
2.46151e-11
1.46208e-11
5.98052e-12
3.24465e-12
2.12802e-12
1.44371e-12
9.8979e-13
7.04945e-13
5.25067e-13
4.0641e-13
3.25341e-13
2.68907e-13
2.29346e-13
2.01811e-13
1.83303e-13
1.721e-13
1.67427e-13
1.69351e-13
1.78903e-13
1.98507e-13
2.33008e-13
2.92141e-13
3.96476e-13
5.94143e-13
1.01774e-12
2.1271e-12
6.38285e-12
4.39159e-11
8.27279e-11
1.21872e-11
5.62647e-12
3.78208e-12
3.12117e-12
2.91801e-12
2.99417e-12
3.30554e-12
3.81162e-12
4.70859e-12
5.80156e-12
7.82751e-12
1.00338e-11
1.39436e-11
1.70796e-11
1.61538e-11
9.03328e-12
1.92545e-09
1.54641e-09
1.3019e-09
1.44999e-10
6.23269e-11
2.45706e-11
1.62106e-11
6.71977e-12
3.58817e-12
2.35945e-12
1.61869e-12
1.11577e-12
7.94787e-13
5.90696e-13
4.55041e-13
3.61124e-13
2.94417e-13
2.46206e-13
2.10952e-13
1.85082e-13
1.66323e-13
1.5325e-13
1.45026e-13
1.4127e-13
1.41994e-13
1.47661e-13
1.5928e-13
1.7874e-13
2.09157e-13
2.5606e-13
3.2857e-13
4.43737e-13
6.31282e-13
9.51755e-13
1.52095e-12
2.60099e-12
4.77001e-12
9.52565e-12
2.09097e-11
5.07326e-11
1.16536e-10
1.88616e-12
1.13046e-09
8.01276e-10
6.2431e-10
5.5656e-10
5.71319e-10
5.84451e-10
4.3901e-10
1.93172e-10
1.72798e-09
1.26959e-09
1.36309e-09
1.35283e-10
6.73504e-11
2.4366e-11
1.78395e-11
7.57066e-12
3.97312e-12
2.61362e-12
1.8141e-12
1.25981e-12
8.999e-13
6.70202e-13
5.17312e-13
4.10952e-13
3.34795e-13
2.79137e-13
2.37797e-13
2.0676e-13
1.83445e-13
1.66186e-13
1.53922e-13
1.46019e-13
1.42164e-13
1.42353e-13
1.46884e-13
1.56496e-13
1.724e-13
1.96744e-13
2.32645e-13
2.85554e-13
3.63219e-13
4.7959e-13
6.54708e-13
9.25397e-13
1.34636e-12
2.01602e-12
3.09183e-12
4.82654e-12
7.68746e-12
1.22347e-11
1.98237e-11
3.12363e-11
4.9775e-11
7.44163e-11
1.08412e-10
1.41189e-10
1.57754e-10
1.42957e-10
1.53157e-09
1.03362e-09
1.40534e-09
1.28915e-10
7.18604e-11
2.41009e-11
1.94463e-11
8.55008e-12
4.40803e-12
2.89436e-12
2.03236e-12
1.42364e-12
1.02057e-12
7.62331e-13
5.90626e-13
4.71012e-13
3.85049e-13
3.21913e-13
2.7471e-13
2.38956e-13
2.11763e-13
1.91269e-13
1.76274e-13
1.66034e-13
1.6013e-13
1.5844e-13
1.61115e-13
1.68685e-13
1.82047e-13
2.02843e-13
2.33365e-13
2.77582e-13
3.40833e-13
4.32396e-13
5.64796e-13
7.5969e-13
1.04745e-12
1.47754e-12
2.12662e-12
3.09927e-12
4.59439e-12
6.79444e-12
1.02101e-11
1.50169e-11
2.2337e-11
3.17463e-11
4.39494e-11
5.54421e-11
5.90365e-11
4.92481e-11
1.33914e-09
8.37295e-10
1.42461e-09
1.26795e-10
7.52583e-11
2.39045e-11
2.09546e-11
9.67208e-12
4.90125e-12
3.205e-12
2.2758e-12
1.60997e-12
1.159e-12
8.68498e-13
6.75687e-13
5.41383e-13
4.44655e-13
3.73416e-13
3.19984e-13
2.79353e-13
2.48299e-13
2.2476e-13
2.07411e-13
1.95433e-13
1.88358e-13
1.86038e-13
1.88608e-13
1.96605e-13
2.10938e-13
2.33266e-13
2.65902e-13
3.12759e-13
3.79075e-13
4.7362e-13
6.08241e-13
8.02278e-13
1.08319e-12
1.49228e-12
2.09521e-12
2.973e-12
4.2852e-12
6.16377e-12
8.98405e-12
1.28726e-11
1.85427e-11
2.57423e-11
3.45715e-11
4.27956e-11
4.54694e-11
3.94089e-11
1.15366e-09
6.7832e-10
1.41804e-09
1.29719e-10
7.69832e-11
2.39199e-11
2.22809e-11
1.09466e-11
5.46224e-12
3.54905e-12
2.5463e-12
1.82145e-12
1.31782e-12
9.90832e-13
7.74218e-13
6.23472e-13
5.14726e-13
4.34457e-13
3.74121e-13
3.28138e-13
2.92921e-13
2.66192e-13
2.46508e-13
2.32987e-13
2.25141e-13
2.22837e-13
2.26261e-13
2.36051e-13
2.53274e-13
2.79835e-13
3.18402e-13
3.73367e-13
4.50696e-13
5.59974e-13
7.14432e-13
9.34544e-13
1.25018e-12
1.70351e-12
2.36336e-12
3.30981e-12
4.70114e-12
6.66676e-12
9.54956e-12
1.34871e-11
1.9042e-11
2.60452e-11
3.4326e-11
4.20965e-11
4.53809e-11
4.1883e-11
9.78026e-10
5.53366e-10
1.38423e-09
1.38364e-10
7.6653e-11
2.42793e-11
2.33475e-11
1.23762e-11
6.10195e-12
3.93052e-12
2.84552e-12
2.06061e-12
1.49981e-12
1.13173e-12
8.88297e-13
7.19172e-13
5.97006e-13
5.06628e-13
4.38559e-13
3.86593e-13
3.46749e-13
3.16521e-13
2.94349e-13
2.79307e-13
2.70904e-13
2.69057e-13
2.74048e-13
2.86686e-13
3.08301e-13
3.41194e-13
3.88624e-13
4.558e-13
5.49931e-13
6.82187e-13
8.68343e-13
1.13178e-12
1.50741e-12
2.04241e-12
2.81469e-12
3.91265e-12
5.50689e-12
7.74172e-12
1.09596e-11
1.53285e-11
2.13353e-11
2.8865e-11
3.75979e-11
4.59627e-11
5.06416e-11
4.99897e-11
8.14947e-10
4.58289e-10
1.32353e-09
1.53253e-10
7.41357e-11
2.50817e-11
2.40942e-11
1.39522e-11
6.83295e-12
4.35415e-12
3.17505e-12
2.3298e-12
1.70788e-12
1.29381e-12
1.02024e-12
8.30648e-13
6.93574e-13
5.91932e-13
5.15218e-13
4.5656e-13
4.11547e-13
3.77439e-13
3.52564e-13
3.35966e-13
3.27177e-13
3.26195e-13
3.33446e-13
3.49974e-13
3.7747e-13
4.18768e-13
4.77926e-13
5.61264e-13
6.77674e-13
8.40527e-13
1.06906e-12
1.39088e-12
1.84776e-12
2.4947e-12
3.42228e-12
4.73289e-12
6.6162e-12
9.24111e-12
1.29634e-11
1.7989e-11
2.47641e-11
3.32149e-11
4.29469e-11
5.25519e-11
5.9352e-11
6.24292e-11
6.66722e-10
3.88443e-10
1.23821e-09
1.74618e-10
6.95842e-11
2.63765e-11
2.44905e-11
1.56494e-11
7.66916e-12
4.82538e-12
3.53643e-12
2.63105e-12
1.94504e-12
1.47993e-12
1.17258e-12
9.60314e-13
8.06802e-13
6.92699e-13
6.06389e-13
5.40289e-13
4.89534e-13
4.51142e-13
4.23341e-13
4.05165e-13
3.96202e-13
3.9657e-13
4.06888e-13
4.28509e-13
4.63591e-13
5.15647e-13
5.89755e-13
6.93644e-13
8.38337e-13
1.04001e-12
1.32222e-12
1.718e-12
2.27759e-12
3.06613e-12
4.18954e-12
5.76856e-12
8.01597e-12
1.11316e-11
1.54915e-11
2.13425e-11
2.91125e-11
3.87624e-11
4.98929e-11
6.12729e-11
7.09473e-11
7.89109e-11
5.35073e-10
3.39002e-10
1.13224e-09
2.02178e-10
6.34663e-11
2.8139e-11
2.45469e-11
1.74222e-11
8.62504e-12
5.35044e-12
3.93133e-12
2.96599e-12
2.21428e-12
1.69314e-12
1.34811e-12
1.11084e-12
9.39357e-13
8.11603e-13
7.14736e-13
6.40433e-13
5.83359e-13
5.40288e-13
5.09365e-13
4.89649e-13
4.80822e-13
4.83168e-13
4.9757e-13
5.25769e-13
5.70516e-13
6.36174e-13
7.29091e-13
8.58747e-13
1.03878e-12
1.28884e-12
1.6377e-12
2.12505e-12
2.81114e-12
3.77351e-12
5.13576e-12
7.04048e-12
9.72686e-12
1.34295e-11
1.85496e-11
2.53751e-11
3.43341e-11
4.5415e-11
5.83014e-11
7.19729e-11
8.5299e-11
9.93868e-11
4.21012e-10
3.05192e-10
1.01121e-09
2.34855e-10
5.65445e-11
3.02406e-11
2.43196e-11
1.92033e-11
9.71395e-12
5.93622e-12
4.36158e-12
3.33569e-12
2.51837e-12
1.93666e-12
1.54982e-12
1.28514e-12
1.09421e-12
9.51672e-13
8.43323e-13
7.60084e-13
6.9614e-13
6.48031e-13
6.13851e-13
5.92727e-13
5.84488e-13
5.89647e-13
6.0943e-13
6.46072e-13
7.03064e-13
7.85825e-13
9.02264e-13
1.06402e-12
1.28789e-12
1.59775e-12
2.02858e-12
2.62809e-12
3.46814e-12
4.64088e-12
6.28989e-12
8.58273e-12
1.17879e-11
1.61767e-11
2.21808e-11
3.01259e-11
4.04586e-11
5.32005e-11
6.81907e-11
8.46609e-11
1.02421e-10
1.23814e-10
3.2476e-10
2.82474e-10
8.82464e-10
2.70431e-10
4.98119e-11
3.24388e-11
2.39059e-11
2.09078e-11
1.09458e-11
6.5903e-12
4.8294e-12
3.74056e-12
2.85972e-12
2.21373e-12
1.78091e-12
1.48636e-12
1.27461e-12
1.1163e-12
9.95645e-13
9.02805e-13
8.31508e-13
7.78078e-13
7.40604e-13
7.18338e-13
7.11329e-13
7.20401e-13
7.47217e-13
7.94638e-13
8.67073e-13
9.71242e-13
1.11696e-12
1.31848e-12
1.59643e-12
1.97976e-12
2.51074e-12
3.24658e-12
4.27243e-12
5.69736e-12
7.68716e-12
1.04371e-11
1.42476e-11
1.94276e-11
2.64443e-11
3.56562e-11
4.75501e-11
6.2187e-11
7.96244e-11
9.93964e-11
1.22342e-10
1.52046e-10
2.45664e-10
2.66878e-10
7.54684e-10
3.05422e-10
4.43215e-11
3.44158e-11
2.34305e-11
2.24407e-11
1.23232e-11
7.32091e-12
5.33739e-12
4.1804e-12
3.24007e-12
2.52754e-12
2.04467e-12
1.71782e-12
1.48408e-12
1.30924e-12
1.17563e-12
1.07267e-12
9.9365e-13
9.34739e-13
8.94077e-13
8.71122e-13
8.66233e-13
8.80645e-13
9.16583e-13
9.77688e-13
1.0695e-12
1.20033e-12
1.3823e-12
1.63284e-12
1.9771e-12
2.4501e-12
3.1026e-12
4.0029e-12
5.2512e-12
6.97575e-12
9.36678e-12
1.26495e-11
1.71585e-11
2.32406e-11
3.14021e-11
4.20321e-11
5.56773e-11
7.24421e-11
9.26624e-11
1.1622e-10
1.45016e-10
1.83762e-10
1.8234e-10
2.55146e-10
6.35146e-10
3.35706e-10
4.0896e-11
3.58287e-11
2.30249e-11
2.37091e-11
1.38368e-11
8.13667e-12
5.88857e-12
4.65446e-12
3.66026e-12
2.88094e-12
2.34444e-12
1.98295e-12
1.72634e-12
1.53457e-12
1.38765e-12
1.27425e-12
1.18734e-12
1.12297e-12
1.07943e-12
1.05649e-12
1.05492e-12
1.0765e-12
1.12417e-12
1.20253e-12
1.31851e-12
1.48234e-12
1.70893e-12
2.01949e-12
2.44452e-12
3.02618e-12
3.82499e-12
4.92202e-12
6.4343e-12
8.51136e-12
1.137e-11
1.52668e-11
2.05729e-11
2.76711e-11
3.71115e-11
4.93082e-11
6.48969e-11
8.40147e-11
1.07325e-10
1.35096e-10
1.70267e-10
2.18428e-10
1.32973e-10
2.44459e-10
5.27603e-10
3.57643e-10
3.99845e-11
3.63655e-11
2.28003e-11
2.46404e-11
1.54594e-11
9.04574e-12
6.48616e-12
5.1615e-12
4.11996e-12
3.27625e-12
2.68345e-12
2.28525e-12
2.00525e-12
1.79662e-12
1.63647e-12
1.51266e-12
1.41795e-12
1.34841e-12
1.30257e-12
1.28065e-12
1.28399e-12
1.31506e-12
1.37768e-12
1.47765e-12
1.62356e-12
1.82796e-12
2.10905e-12
2.49255e-12
3.01519e-12
3.72739e-12
4.70081e-12
6.03091e-12
7.85332e-12
1.03407e-11
1.37381e-11
1.83345e-11
2.45385e-11
3.27671e-11
4.36167e-11
5.75246e-11
7.52192e-11
9.68998e-11
1.23594e-10
1.55906e-10
1.9777e-10
2.55329e-10
9.54765e-11
2.32581e-10
4.33566e-10
3.68864e-10
4.17628e-11
3.58577e-11
2.28207e-11
2.52004e-11
1.71443e-11
1.00548e-11
7.13343e-12
5.70009e-12
4.61757e-12
3.71493e-12
3.06464e-12
2.62812e-12
2.32472e-12
2.09994e-12
1.92719e-12
1.79345e-12
1.69142e-12
1.61735e-12
1.57016e-12
1.55066e-12
1.56096e-12
1.6044e-12
1.68591e-12
1.81272e-12
1.99539e-12
2.24927e-12
2.5964e-12
3.06777e-12
3.70727e-12
4.57481e-12
5.75451e-12
7.35779e-12
9.54044e-12
1.24997e-11
1.65101e-11
2.1893e-11
2.90947e-11
3.85636e-11
5.09428e-11
6.66927e-11
8.66341e-11
1.11059e-10
1.41363e-10
1.78421e-10
2.27064e-10
2.93611e-10
6.76588e-11
2.1822e-10
3.53598e-10
3.68489e-10
4.62376e-11
3.43766e-11
2.30863e-11
2.54005e-11
1.88256e-11
1.11673e-11
7.83359e-12
6.26893e-12
5.15025e-12
4.19734e-12
3.49053e-12
3.01483e-12
2.68861e-12
2.44915e-12
2.26521e-12
2.12264e-12
2.01428e-12
1.93675e-12
1.8896e-12
1.87442e-12
1.89428e-12
1.95364e-12
2.05875e-12
2.21856e-12
2.44601e-12
2.75967e-12
3.18606e-12
3.76225e-12
4.54026e-12
5.59066e-12
7.01131e-12
8.93096e-12
1.15269e-11
1.50217e-11
1.97201e-11
2.59745e-11
3.42685e-11
4.50775e-11
5.90916e-11
7.6789e-11
9.91066e-11
1.26401e-10
1.60422e-10
2.02298e-10
2.57568e-10
3.32346e-10
4.74508e-11
2.00987e-10
2.87428e-10
3.57019e-10
5.32064e-11
3.22118e-11
2.35334e-11
2.52957e-11
2.04235e-11
1.23809e-11
8.58948e-12
6.86691e-12
5.71405e-12
4.72246e-12
3.96295e-12
3.44836e-12
3.10064e-12
2.8489e-12
2.65609e-12
2.50658e-12
2.39351e-12
2.3142e-12
2.26902e-12
2.26062e-12
2.29329e-12
2.37283e-12
2.50711e-12
2.70712e-12
2.98855e-12
3.3737e-12
3.89423e-12
4.5941e-12
5.5344e-12
6.7975e-12
8.49609e-12
1.07774e-11
1.38409e-11
1.7935e-11
2.33938e-11
3.05996e-11
4.00699e-11
5.2304e-11
6.80359e-11
8.77596e-11
1.12523e-10
1.42751e-10
1.80526e-10
2.27127e-10
2.8863e-10
3.70615e-10
3.30352e-11
1.81212e-10
2.33988e-10
3.36111e-10
6.21502e-11
2.97815e-11
2.40453e-11
2.49731e-11
2.18529e-11
1.36836e-11
9.40314e-12
7.49321e-12
6.30425e-12
5.28773e-12
4.48278e-12
3.93127e-12
3.5643e-12
3.3037e-12
3.10549e-12
2.95189e-12
2.83654e-12
2.75778e-12
2.71717e-12
2.71868e-12
2.7681e-12
2.87288e-12
3.04281e-12
3.29125e-12
3.63703e-12
4.10674e-12
4.73779e-12
5.58184e-12
6.70996e-12
8.21726e-12
1.02322e-11
1.2921e-11
1.65058e-11
2.12602e-11
2.75465e-11
3.57735e-11
4.64896e-11
6.02128e-11
7.7717e-11
9.95092e-11
1.26741e-10
1.59897e-10
2.01349e-10
2.52431e-10
3.19565e-10
4.07552e-10
2.29026e-11
1.59773e-10
1.91635e-10
3.08216e-10
7.21994e-11
2.75389e-11
2.44753e-11
2.4534e-11
2.30372e-11
1.50513e-11
1.02752e-11
8.14712e-12
6.91573e-12
5.88894e-12
5.0497e-12
4.46552e-12
4.08272e-12
3.81783e-12
3.61896e-12
3.46534e-12
3.35109e-12
3.27605e-12
3.24335e-12
3.25864e-12
3.32952e-12
3.46543e-12
3.67839e-12
3.98447e-12
4.40609e-12
4.97459e-12
5.73379e-12
6.74375e-12
8.0863e-12
9.87005e-12
1.22397e-11
1.5381e-11
1.95379e-11
2.5008e-11
3.21794e-11
4.1484e-11
5.34958e-11
6.87473e-11
8.80439e-11
1.11906e-10
1.41579e-10
1.77576e-10
2.22515e-10
2.77702e-10
3.49713e-10
4.42406e-10
1.58525e-11
1.37902e-10
1.58437e-10
2.76118e-10
8.22178e-11
2.5891e-11
2.46885e-11
2.4072e-11
2.3922e-11
1.64453e-11
1.12038e-11
8.82785e-12
7.54339e-12
6.52038e-12
5.66195e-12
5.05228e-12
4.65855e-12
4.39522e-12
4.20187e-12
4.05364e-12
3.94504e-12
3.87784e-12
3.85723e-12
3.89096e-12
3.98883e-12
4.16258e-12
4.42681e-12
4.80066e-12
5.31049e-12
5.99293e-12
6.8987e-12
8.09694e-12
9.68079e-12
1.17728e-11
1.45342e-11
1.81697e-11
2.2944e-11
2.91767e-11
3.72782e-11
4.76993e-11
6.10331e-11
7.78229e-11
9.88978e-11
1.24784e-10
1.56807e-10
1.95494e-10
2.43637e-10
3.0243e-10
3.78455e-10
4.74556e-10
1.09761e-11
1.16751e-10
1.32469e-10
2.42577e-10
9.09897e-11
2.51306e-11
2.46083e-11
2.3656e-11
2.4485e-11
1.78148e-11
1.21839e-11
9.53438e-12
8.18265e-12
7.17524e-12
6.31622e-12
5.69176e-12
5.29392e-12
5.03937e-12
4.85926e-12
4.72339e-12
4.6263e-12
4.57211e-12
4.5687e-12
4.6264e-12
4.75759e-12
4.97668e-12
5.30118e-12
5.75364e-12
6.36471e-12
7.17671e-12
8.24775e-12
9.65648e-12
1.15077e-11
1.39382e-11
1.7125e-11
2.12912e-11
2.67202e-11
3.37511e-11
4.28115e-11
5.43674e-11
6.90247e-11
8.73302e-11
1.10131e-10
1.37956e-10
1.7218e-10
2.13333e-10
2.64316e-10
3.26146e-10
4.05275e-10
5.03537e-10
7.6176e-12
9.70399e-11
1.1199e-10
2.09953e-10
9.74923e-11
2.53835e-11
2.4236e-11
2.33177e-11
2.47388e-11
1.90997e-11
1.32052e-11
1.02649e-11
8.82951e-12
7.84603e-12
7.00756e-12
6.383e-12
5.99026e-12
5.75327e-12
5.59572e-12
5.48087e-12
5.40261e-12
5.3678e-12
5.38768e-12
5.47572e-12
5.64732e-12
5.91995e-12
6.31432e-12
6.85668e-12
7.58229e-12
8.53945e-12
9.794e-12
1.14344e-11
1.35771e-11
1.63728e-11
2.00139e-11
2.47397e-11
3.08504e-11
3.87005e-11
4.87313e-11
6.14173e-11
7.73712e-11
9.71407e-11
1.21574e-10
1.51207e-10
1.87438e-10
2.30779e-10
2.84171e-10
3.48408e-10
4.29733e-10
5.29034e-10
5.30743e-12
7.92355e-11
9.553e-11
1.79785e-10
1.01109e-10
2.66085e-11
2.36474e-11
2.30492e-11
2.47254e-11
2.02395e-11
1.42503e-11
1.10163e-11
9.48042e-12
8.52505e-12
7.72944e-12
7.12369e-12
6.74818e-12
6.5393e-12
6.41528e-12
6.33186e-12
6.28137e-12
6.2736e-12
6.32385e-12
6.44944e-12
6.66925e-12
7.00414e-12
7.47833e-12
8.12201e-12
8.97523e-12
1.00925e-11
1.15475e-11
1.34385e-11
1.58936e-11
1.90766e-11
2.31937e-11
2.8499e-11
3.53057e-11
4.39803e-11
5.49722e-11
6.87604e-11
8.59568e-11
1.07105e-10
1.3305e-10
1.6432e-10
2.02314e-10
2.47524e-10
3.0286e-10
3.68863e-10
4.51498e-10
5.50814e-10
3.71367e-12
6.36854e-11
8.19513e-11
1.52831e-10
1.01684e-10
2.86307e-11
2.29735e-11
2.28157e-11
2.45051e-11
2.11812e-11
1.52937e-11
1.17835e-11
1.01321e-11
9.2049e-12
8.47402e-12
7.90992e-12
7.56724e-12
7.39909e-12
7.32125e-12
7.28149e-12
7.2694e-12
7.29767e-12
7.38641e-12
7.55749e-12
7.83384e-12
8.24006e-12
8.80406e-12
9.56014e-12
1.05533e-11
1.18442e-11
1.35144e-11
1.56719e-11
1.84555e-11
2.20414e-11
2.66479e-11
3.25411e-11
4.00438e-11
4.9531e-11
6.14541e-11
7.62928e-11
9.46522e-11
1.17065e-10
1.44367e-10
1.77073e-10
2.16555e-10
2.63282e-10
3.20068e-10
3.87215e-10
4.70356e-10
5.68799e-10
2.6092e-12
5.05262e-11
7.04464e-11
1.29361e-10
9.94719e-11
3.11716e-11
2.23619e-11
2.25758e-11
2.41429e-11
2.18883e-11
1.63029e-11
1.25588e-11
1.07811e-11
9.87884e-12
9.23252e-12
8.7362e-12
8.4458e-12
8.33341e-12
8.31615e-12
8.33401e-12
8.37269e-12
8.44741e-12
8.58371e-12
8.80889e-12
9.15047e-12
9.63709e-12
1.03006e-11
1.11793e-11
1.23232e-11
1.37991e-11
1.56962e-11
1.81315e-11
2.1254e-11
2.52507e-11
3.03498e-11
3.68269e-11
4.50107e-11
5.52799e-11
6.80845e-11
8.38992e-11
1.03316e-10
1.26859e-10
1.55336e-10
1.89248e-10
2.29928e-10
2.77799e-10
3.35535e-10
4.03229e-10
4.86154e-10
5.83006e-10
1.84005e-12
3.96813e-11
6.0485e-11
1.09319e-10
9.50077e-11
3.38887e-11
2.19379e-11
2.22976e-11
2.36962e-11
2.23446e-11
1.72394e-11
1.33309e-11
1.14234e-11
1.05409e-11
9.9957e-12
9.59542e-12
9.3808e-12
9.34204e-12
9.40157e-12
9.49271e-12
9.59619e-12
9.72913e-12
9.923e-12
1.02113e-11
1.06269e-11
1.12027e-11
1.19745e-11
1.29848e-11
1.42881e-11
1.59573e-11
1.80887e-11
2.08077e-11
2.42724e-11
2.86788e-11
3.42628e-11
4.13063e-11
5.01401e-11
6.11438e-11
7.47595e-11
9.14557e-11
1.11806e-10
1.36318e-10
1.65772e-10
2.00648e-10
2.42212e-10
2.90852e-10
3.49065e-10
4.16752e-10
4.98811e-10
5.93451e-10
1.30175e-12
3.09322e-11
5.17435e-11
9.2429e-11
8.89508e-11
3.64329e-11
2.17798e-11
2.19689e-11
2.32067e-11
2.25554e-11
1.80637e-11
1.40847e-11
1.20538e-11
1.11857e-11
1.07544e-11
1.04791e-11
1.03676e-11
1.04236e-11
1.05781e-11
1.07597e-11
1.09436e-11
1.11478e-11
1.141e-11
1.17709e-11
1.2269e-11
1.2942e-11
1.38296e-11
1.49783e-11
1.64469e-11
1.83138e-11
2.06818e-11
2.3684e-11
2.7486e-11
3.22911e-11
3.83403e-11
4.59191e-11
5.53565e-11
6.70296e-11
8.13688e-11
9.88341e-11
1.19973e-10
1.45283e-10
1.755e-10
2.11083e-10
2.53218e-10
3.02264e-10
3.60503e-10
4.27661e-10
5.08295e-10
6.00264e-10
9.23312e-13
2.399e-11
4.40369e-11
7.8299e-11
8.19505e-11
3.85065e-11
2.19077e-11
2.16005e-11
2.26984e-11
2.25435e-11
1.87397e-11
1.48008e-11
1.26655e-11
1.18083e-11
1.14998e-11
1.13776e-11
1.14e-11
1.15752e-11
1.1845e-11
1.21358e-11
1.2417e-11
1.27067e-11
1.30487e-11
1.34914e-11
1.408e-11
1.48571e-11
1.58663e-11
1.71574e-11
1.87935e-11
2.08578e-11
2.34589e-11
2.67363e-11
3.08619e-11
3.60443e-11
4.25271e-11
5.05962e-11
6.05761e-11
7.28379e-11
8.77978e-11
1.05904e-10
1.27677e-10
1.536e-10
1.84356e-10
2.20393e-10
2.62784e-10
3.11874e-10
3.69739e-10
4.35936e-10
5.1464e-10
6.03535e-10
6.56278e-13
1.85495e-11
3.72584e-11
6.65013e-11
7.45642e-11
3.99051e-11
2.22872e-11
2.12204e-11
2.2181e-11
2.23425e-11
1.92398e-11
1.54563e-11
1.32498e-11
1.24037e-11
1.22239e-11
1.22807e-11
1.24699e-11
1.27925e-11
1.32003e-11
1.36205e-11
1.4017e-11
1.44072e-11
1.48407e-11
1.53743e-11
1.60604e-11
1.69469e-11
1.80807e-11
1.95152e-11
2.13167e-11
2.35726e-11
2.63965e-11
2.99334e-11
3.43596e-11
3.98871e-11
4.67596e-11
5.52613e-11
6.57088e-11
7.84655e-11
9.39297e-11
1.12538e-10
1.34779e-10
1.61121e-10
1.92198e-10
2.28433e-10
2.7077e-10
3.19568e-10
3.76676e-10
4.4152e-10
5.17961e-10
6.03463e-10
4.67326e-13
1.43242e-11
3.13367e-11
5.66319e-11
6.72141e-11
4.05353e-11
2.28403e-11
2.08621e-11
2.16557e-11
2.19898e-11
1.95477e-11
1.60262e-11
1.37953e-11
1.29661e-11
1.29193e-11
1.31776e-11
1.3568e-11
1.40693e-11
1.46404e-11
1.52113e-11
1.5742e-11
1.62484e-11
1.67853e-11
1.74181e-11
1.82074e-11
1.92061e-11
2.04649e-11
2.20396e-11
2.39995e-11
2.64353e-11
2.94646e-11
3.32366e-11
3.79308e-11
4.37608e-11
5.0968e-11
5.98324e-11
7.06608e-11
8.38064e-11
9.96493e-11
1.18611e-10
1.4115e-10
1.67716e-10
1.98892e-10
2.35083e-10
2.7726e-10
3.25309e-10
3.81121e-10
4.44401e-10
5.18284e-10
6.00256e-10
3.33371e-13
1.10621e-11
2.62144e-11
4.83399e-11
6.01787e-11
4.04054e-11
2.34611e-11
2.05506e-11
2.11202e-11
2.152e-11
1.96596e-11
1.64857e-11
1.42886e-11
1.34889e-11
1.35789e-11
1.40579e-11
1.46832e-11
1.53975e-11
1.61599e-11
1.69043e-11
1.75883e-11
1.82267e-11
1.88785e-11
1.96181e-11
2.05142e-11
2.16255e-11
2.30059e-11
2.47134e-11
2.68191e-11
2.94165e-11
3.26263e-11
3.66008e-11
4.15211e-11
4.76006e-11
5.50769e-11
6.42236e-11
7.5336e-11
8.87562e-11
1.04843e-10
1.24007e-10
1.46669e-10
1.73269e-10
2.04322e-10
2.40223e-10
2.81845e-10
3.29035e-10
3.83399e-10
4.4477e-10
5.15738e-10
5.93939e-10
2.38322e-13
8.55035e-12
2.18366e-11
4.13374e-11
5.36197e-11
3.95969e-11
2.40379e-11
2.0295e-11
2.05733e-11
2.09616e-11
1.95825e-11
1.6813e-11
1.47139e-11
1.3964e-11
1.41958e-11
1.49112e-11
1.58037e-11
1.67672e-11
1.77513e-11
1.86932e-11
1.95502e-11
2.03359e-11
2.11136e-11
2.19659e-11
2.29702e-11
2.41913e-11
2.5686e-11
2.75137e-11
2.97468e-11
3.24808e-11
3.58386e-11
3.99745e-11
4.50701e-11
5.1337e-11
5.90073e-11
6.8347e-11
7.96385e-11
9.32118e-11
1.09406e-10
1.28615e-10
1.5123e-10
1.77671e-10
2.08397e-10
2.43771e-10
2.84402e-10
3.30643e-10
3.83529e-10
4.42589e-10
5.10495e-10
5.84812e-10
1.70858e-13
6.61722e-12
1.81363e-11
3.53963e-11
4.76151e-11
3.82328e-11
2.44721e-11
2.0088e-11
2.00163e-11
2.03362e-11
1.93323e-11
1.69914e-11
1.50545e-11
1.43816e-11
1.47629e-11
1.57275e-11