/*--------------------------------*- C++ -*----------------------------------*\
  =========                 |
  \\      /  F ield         | OpenFOAM: The Open Source CFD Toolbox
   \\    /   O peration     | Website:  https://openfoam.org
    \\  /    A nd           | Version:  7
     \\/     M anipulation  |
\*---------------------------------------------------------------------------*/
FoamFile
{
    version     2.0;
    format      ascii;
    class       volScalarField;
    location    "0.41";
    object      p;
}
// * * * * * * * * * * * * * * * * * * * * * * * * * * * * * * * * * * * * * //

dimensions      [0 2 -2 0 0 0 0];

internalField   nonuniform List<scalar> 
70000
(
0.106398
0.028938
0.0164077
0.0188386
0.0189898
0.0179097
0.0169433
0.0162026
0.0155774
0.0150202
0.0145178
0.014062
0.0136453
0.0132608
0.0129028
0.0125666
0.0122485
0.0119451
0.0116536
0.0113717
0.011097
0.0108278
0.0105622
0.0102986
0.0100354
0.00977113
0.00950432
0.00923355
0.00895743
0.00867452
0.00838345
0.00808276
0.00777107
0.00744688
0.00710888
0.00675566
0.00638591
0.00599885
0.00559278
0.00516905
0.00472395
0.00426527
0.00378179
0.00329935
0.002782
0.00230634
0.00175835
0.00135605
0.000754488
0.000452523
0.10203
0.0293049
0.0166107
0.0189342
0.0190444
0.0179458
0.0169715
0.0162258
0.0155969
0.0150369
0.0145323
0.0140749
0.0136568
0.0132711
0.0129121
0.0125752
0.0122564
0.0119524
0.0116604
0.011378
0.0111029
0.0108333
0.0105674
0.0103035
0.01004
0.00977548
0.00950843
0.00923743
0.00896109
0.00867797
0.0083867
0.0080858
0.00777391
0.00744951
0.00711129
0.00675785
0.00638786
0.00600054
0.00559418
0.00517014
0.0047247
0.00426566
0.00378174
0.0032987
0.00278076
0.00230431
0.00175589
0.00135073
0.000754714
0.00050322
0.0984491
0.0302449
0.0169511
0.0190633
0.0191187
0.0179906
0.0170038
0.0162521
0.0156188
0.0150554
0.0145482
0.0140889
0.0136692
0.0132823
0.0129223
0.0125845
0.0122649
0.0119602
0.0116677
0.0113847
0.0111093
0.0108393
0.010573
0.0103088
0.010045
0.00978022
0.00951292
0.00924169
0.00896514
0.00868182
0.00839035
0.00808926
0.00777718
0.0074526
0.00711418
0.00676054
0.00639033
0.00600277
0.00559614
0.00517182
0.00472601
0.0042666
0.00378206
0.00329868
0.00277999
0.00230285
0.00175394
0.00134544
0.000776511
0.000562965
0.0953551
0.0313468
0.0174207
0.0192374
0.0192196
0.0180482
0.0170421
0.0162821
0.0156434
0.015076
0.0145657
0.014104
0.0136826
0.0132942
0.0129331
0.0125943
0.0122739
0.0119685
0.0116754
0.0113919
0.011116
0.0108456
0.010579
0.0103144
0.0100504
0.00978529
0.00951776
0.00924631
0.00896956
0.00868606
0.00839442
0.00809316
0.00778093
0.0074562
0.00711764
0.00676385
0.00639348
0.00600576
0.00559894
0.0051744
0.00472834
0.00426861
0.00378372
0.0032999
0.0027807
0.00230243
0.00175451
0.00134075
0.000813368
0.000633571
0.0923958
0.0324434
0.0179867
0.019458
0.0193542
0.0181261
0.0170911
0.0163192
0.0156736
0.0151007
0.0145865
0.0141218
0.0136981
0.013308
0.0129454
0.0126054
0.012284
0.0119779
0.011684
0.0113999
0.0111235
0.0108526
0.0105856
0.0103207
0.0100563
0.009791
0.00952323
0.00925158
0.00897465
0.00869098
0.00839921
0.00809784
0.0077855
0.00746069
0.00712206
0.0067682
0.00639778
0.00601001
0.00560313
0.00517851
0.00473236
0.00427245
0.00378742
0.00330323
0.00278404
0.00230422
0.00175929
0.00133891
0.000862879
0.000718931
0.0894869
0.0334825
0.0186021
0.0197052
0.0195166
0.018226
0.0171537
0.0163658
0.0157111
0.0151314
0.0146119
0.0141434
0.0137168
0.0133244
0.01296
0.0126186
0.012296
0.0119888
0.0116941
0.0114093
0.0111322
0.0108608
0.0105933
0.010328
0.0100633
0.00979771
0.0095297
0.00925784
0.00898074
0.00869695
0.00840508
0.00810365
0.00779129
0.00746647
0.00712788
0.00677409
0.00640376
0.0060161
0.00560936
0.00518488
0.0047389
0.00427907
0.00379427
0.00330989
0.00279141
0.00230989
0.00177022
0.00134324
0.00092268
0.000817304
0.0866224
0.0344452
0.019233
0.0199572
0.0196934
0.0183432
0.0172286
0.0164216
0.0157564
0.0151686
0.0146429
0.0141697
0.0137395
0.0133443
0.0129776
0.0126344
0.0123103
0.0120018
0.0117061
0.0114204
0.0111426
0.0108706
0.0106025
0.0103368
0.0100717
0.00980576
0.00953749
0.00926544
0.00898819
0.00870431
0.0084124
0.00811098
0.00779868
0.00747399
0.00713557
0.00678202
0.00641197
0.00602467
0.00561835
0.00519432
0.00474888
0.00428951
0.00380547
0.00332119
0.00280437
0.00232127
0.00178928
0.00135708
0.000991233
0.000924955
0.0838081
0.0353235
0.0198636
0.0202023
0.019874
0.0184711
0.0173125
0.0164847
0.0158083
0.0152119
0.0146791
0.0142005
0.0137663
0.0133678
0.0129986
0.0126532
0.0123273
0.0120174
0.0117204
0.0114337
0.011155
0.0108822
0.0106136
0.0103473
0.0100818
0.00981548
0.00954694
0.00927469
0.00899733
0.0087134
0.00842152
0.00812021
0.00780809
0.00748367
0.0071456
0.0067925
0.006423
0.00603635
0.00563079
0.00520762
0.0047632
0.00430481
0.00382221
0.00333857
0.00282452
0.00234019
0.00181827
0.00138334
0.00106749
0.00103819
0.0810501
0.0361146
0.0204887
0.0204365
0.0200521
0.018605
0.017402
0.0165523
0.0158648
0.0152596
0.0147196
0.0142354
0.0137967
0.0133948
0.0130227
0.012675
0.0123471
0.0120356
0.0117372
0.0114493
0.0111696
0.010896
0.0106266
0.0103597
0.0100938
0.0098271
0.00955829
0.00928587
0.00900842
0.00872451
0.00843274
0.00813164
0.00781985
0.00749587
0.00715836
0.00680597
0.00643732
0.00605169
0.0056473
0.00522548
0.00478266
0.00432585
0.00384551
0.00336323
0.00285317
0.00236846
0.00185851
0.00142415
0.00115075
0.00115349
0.0783528
0.0368182
0.0211071
0.0206594
0.0202248
0.0187421
0.0174951
0.0166227
0.015924
0.0153103
0.0147631
0.0142732
0.0138301
0.0134246
0.0130495
0.0126993
0.0123694
0.0120561
0.0117562
0.0114671
0.0111863
0.0109118
0.0106417
0.0103742
0.0101077
0.0098407
0.00957164
0.00929908
0.0090216
0.00873778
0.00844622
0.00814547
0.00783416
0.00751083
0.00717412
0.00682273
0.00645526
0.00607106
0.00566833
0.00524839
0.00480782
0.0043533
0.00387614
0.00339605
0.00289131
0.00240742
0.00191083
0.00148058
0.00124048
0.00126757
0.0757196
0.0374348
0.0217181
0.0208719
0.0203907
0.0188809
0.0175908
0.0166946
0.0159848
0.0153628
0.0148085
0.0143129
0.0138654
0.0134564
0.0130784
0.0127257
0.0123937
0.0120786
0.0117772
0.0114868
0.0112049
0.0109295
0.0106587
0.0103906
0.0101236
0.00985623
0.00958694
0.00931429
0.00903685
0.00875321
0.00846198
0.00816173
0.00785108
0.00752861
0.00719296
0.00684288
0.00647696
0.0060946
0.00569403
0.00527656
0.00483895
0.00438746
0.00391444
0.00343747
0.00293936
0.00245786
0.00197621
0.00155245
0.00133601
0.00137762
0.0731534
0.0379647
0.0223202
0.021075
0.0205489
0.0190206
0.0176887
0.0167676
0.0160466
0.0154165
0.0148552
0.014354
0.0139021
0.0134895
0.0131086
0.0127535
0.0124195
0.0121026
0.0117998
0.0115081
0.0112251
0.0109488
0.0106772
0.0104085
0.0101411
0.00987344
0.00960399
0.00933131
0.00905401
0.00877066
0.00847988
0.00818027
0.00787047
0.00754908
0.00721475
0.00686629
0.0065023
0.00612221
0.00572432
0.00530989
0.00487594
0.00442822
0.0039603
0.00348744
0.00299711
0.00251974
0.00205236
0.00163842
0.00143638
0.00148156
0.0706567
0.0384085
0.0229115
0.0212699
0.0206987
0.0191604
0.0177886
0.0168415
0.016109
0.015471
0.0149028
0.014396
0.0139397
0.0135236
0.0131399
0.0127823
0.0124463
0.0121277
0.0118234
0.0115305
0.0112465
0.0109694
0.010697
0.0104278
0.01016
0.00989207
0.00962252
0.0093499
0.00907281
0.00878986
0.00849967
0.00820086
0.00789208
0.00757199
0.00723925
0.0068927
0.00653098
0.00615358
0.00575885
0.005348
0.00491837
0.00447515
0.00401317
0.00354541
0.00306378
0.00259219
0.00213887
0.0017364
0.00154044
0.00157809
0.0682322
0.0387669
0.0234894
0.021458
0.0208396
0.0192994
0.0178904
0.0169164
0.0161719
0.0155262
0.0149512
0.0144388
0.0139781
0.0135585
0.0131719
0.012812
0.0124739
0.0121537
0.0118479
0.0115538
0.0112688
0.0109908
0.0107179
0.0104481
0.01018
0.00991185
0.00964226
0.00936977
0.00909299
0.00881054
0.00852106
0.00822319
0.00791561
0.00759702
0.00726608
0.00692173
0.0065626
0.00618825
0.00579712
0.00539034
0.0049656
0.00452751
0.0040722
0.00361044
0.00313819
0.00267382
0.00223399
0.00184364
0.00164684
0.00166668
0.0658821
0.0390412
0.0240512
0.0216407
0.0209712
0.0194368
0.0179941
0.0169922
0.0162352
0.0155821
0.0150003
0.0144822
0.0140171
0.013594
0.0132046
0.0128423
0.0125022
0.0121803
0.0118731
0.0115778
0.0112919
0.0110131
0.0107395
0.0104693
0.0102008
0.00993255
0.00966299
0.0093907
0.00911431
0.00883245
0.00854379
0.008247
0.00794076
0.00762383
0.00729491
0.00695298
0.00659672
0.00622574
0.00583857
0.00543627
0.00501692
0.0045845
0.00413644
0.00368147
0.00321901
0.00276305
0.00233576
0.00195714
0.0017542
0.00174748
0.0636084
0.0392331
0.0245936
0.0218197
0.0210932
0.0195715
0.0180993
0.0170689
0.0162989
0.0156384
0.0150501
0.0145263
0.0140567
0.0136302
0.0132378
0.0128731
0.0125311
0.0122075
0.0118989
0.0116024
0.0113155
0.011036
0.0107618
0.0104911
0.0102224
0.00995405
0.00968456
0.00941253
0.0091366
0.00885542
0.00856767
0.00827205
0.00796729
0.00765218
0.00732545
0.00698613
0.00663298
0.00626561
0.00588272
0.00548524
0.00507166
0.00464536
0.00420495
0.00375741
0.00330492
0.00285823
0.00244235
0.00207426
0.00186134
0.00182122
0.0614129
0.0393447
0.0251135
0.0219963
0.0212057
0.0197027
0.0182058
0.0171465
0.016363
0.0156952
0.0151004
0.014571
0.014097
0.0136669
0.0132717
0.0129046
0.0125605
0.0122353
0.0119253
0.0116277
0.0113398
0.0110595
0.0107847
0.0105136
0.0102447
0.00997626
0.00970689
0.00943517
0.00915976
0.00887932
0.00859256
0.00829822
0.00799505
0.00768187
0.00735748
0.00702094
0.00667109
0.00630755
0.00592919
0.00553679
0.00512927
0.00470946
0.00427697
0.00383738
0.00339486
0.00295794
0.00255227
0.00219296
0.00196742
0.00188911
0.0592968
0.0393784
0.0256081
0.0221717
0.0213087
0.0198292
0.0183133
0.0172252
0.0164272
0.0157523
0.0151514
0.0146164
0.0141379
0.0137042
0.0133061
0.0129366
0.0125906
0.0122636
0.0119523
0.0116535
0.0113646
0.0110836
0.0108082
0.0105368
0.0102676
0.00999916
0.00972995
0.00945859
0.00918374
0.00890411
0.00861842
0.00832544
0.00802394
0.00771282
0.00739089
0.00705727
0.00671088
0.00635136
0.00597772
0.00559063
0.0051894
0.00477635
0.00435197
0.0039207
0.00348804
0.0030611
0.00266446
0.00231197
0.00207205
0.00195268
0.057261
0.0393372
0.0260743
0.0223468
0.0214024
0.0199502
0.0184212
0.0173048
0.0164917
0.0158097
0.0152029
0.0146624
0.0141793
0.0137421
0.0133411
0.0129693
0.0126212
0.0122925
0.0119798
0.0116798
0.0113901
0.0111083
0.0108324
0.0105606
0.0102912
0.0100227
0.00975373
0.00948277
0.00920854
0.00892978
0.00864522
0.00835367
0.00805395
0.00774498
0.00742562
0.00709506
0.00675227
0.00639692
0.00602817
0.00564659
0.00525182
0.00484578
0.0044296
0.00400694
0.00358398
0.00316695
0.0027783
0.00243068
0.00217524
0.00201365
0.0553057
0.0392246
0.0265094
0.0225222
0.0214874
0.0200646
0.0185292
0.0173854
0.0165563
0.0158673
0.0152548
0.0147089
0.0142213
0.0137805
0.0133767
0.0130024
0.0126524
0.012322
0.0120079
0.0117068
0.0114161
0.0111336
0.0108571
0.010585
0.0103155
0.010047
0.00977824
0.00950773
0.00923418
0.00895633
0.00867298
0.00838294
0.00808508
0.00777835
0.00746169
0.0071343
0.00679525
0.00644421
0.00608051
0.00570461
0.00531644
0.00491762
0.00450972
0.00409583
0.00368239
0.00327505
0.00289348
0.00254892
0.00227737
0.00207381
0.0534311
0.0390444
0.0269108
0.022698
0.0215643
0.0201717
0.0186365
0.0174669
0.0166211
0.015925
0.0153072
0.014756
0.0142638
0.0138195
0.0134128
0.0130362
0.0126841
0.0123521
0.0120366
0.0117343
0.0114427
0.0111595
0.0108825
0.0106101
0.0103404
0.010072
0.00980352
0.00953349
0.00926066
0.00898381
0.00870172
0.00841327
0.00811736
0.00781297
0.00749911
0.007175
0.00683983
0.00649324
0.00613474
0.00576468
0.00538325
0.00499181
0.00459225
0.00418728
0.00378317
0.0033852
0.00300994
0.00266686
0.0023791
0.00213495
0.0516366
0.0388012
0.0272759
0.0228741
0.0216337
0.0202709
0.0187425
0.0175492
0.016686
0.0159826
0.0153598
0.0148035
0.0143069
0.0138591
0.0134495
0.0130705
0.0127164
0.0123828
0.0120659
0.0117625
0.01147
0.011186
0.0109086
0.0106358
0.0103661
0.0100978
0.00982958
0.00956009
0.00928804
0.00901222
0.00873148
0.0084447
0.00815082
0.00784888
0.00753792
0.00721723
0.00688605
0.00654406
0.00619089
0.00582683
0.00545226
0.00506838
0.00467722
0.00428124
0.00388632
0.00349736
0.00312776
0.00278492
0.00248131
0.00219885
0.0499214
0.0384995
0.0276025
0.02305
0.0216965
0.0203614
0.0188463
0.0176321
0.016751
0.0160401
0.0154127
0.0148515
0.0143505
0.0138991
0.0134867
0.0131054
0.0127493
0.012414
0.0120957
0.0117912
0.0114979
0.0112132
0.0109353
0.0106623
0.0103925
0.0101243
0.00985646
0.00958754
0.00931633
0.00904162
0.00876229
0.00847726
0.00818551
0.00788611
0.00757818
0.00726102
0.00693397
0.00659673
0.00624902
0.00589113
0.00552355
0.00514738
0.00476468
0.00437775
0.00399188
0.00361157
0.00324715
0.0029037
0.00258494
0.00226716
0.0482843
0.0381444
0.0278887
0.0232248
0.0217537
0.0204431
0.0189472
0.0177155
0.0168161
0.0160974
0.0154657
0.0148999
0.0143946
0.0139396
0.0135244
0.0131408
0.0127828
0.0124459
0.0121262
0.0118206
0.0115264
0.0112411
0.0109627
0.0106895
0.0104196
0.0101516
0.00988417
0.00961589
0.00934557
0.00907204
0.0087942
0.00851101
0.00822148
0.00792473
0.00761993
0.00730644
0.00698365
0.00665129
0.0063092
0.00595763
0.00559717
0.00522885
0.00485469
0.00447686
0.00409995
0.00372796
0.00336838
0.00302383
0.00269102
0.00234149
0.0467237
0.0377413
0.0281327
0.0233972
0.0218062
0.0205157
0.0190444
0.0177989
0.0168814
0.0161545
0.0155186
0.0149487
0.0144391
0.0139807
0.0135627
0.0131768
0.0128168
0.0124783
0.0121573
0.0118507
0.0115556
0.0112697
0.0109909
0.0107174
0.0104475
0.0101798
0.00991275
0.00964516
0.0093758
0.00910352
0.00882725
0.00854598
0.00825877
0.00796478
0.00766324
0.00735353
0.00703515
0.00670783
0.00637149
0.0060264
0.0056732
0.00531288
0.00494734
0.00457864
0.00421063
0.00384672
0.00349177
0.00314603
0.0028006
0.00242333
0.0452378
0.0372956
0.0283334
0.0235656
0.021855
0.0205793
0.0191368
0.0178821
0.0169467
0.0162111
0.0155715
0.0149976
0.014484
0.0140221
0.0136014
0.0132132
0.0128514
0.0125113
0.012189
0.0118813
0.0115854
0.0112989
0.0110197
0.0107461
0.0104762
0.0102087
0.00994223
0.00967539
0.00940705
0.00913609
0.00886147
0.00858222
0.00829744
0.00800632
0.00770815
0.00740237
0.00708853
0.00676639
0.00643597
0.00609752
0.00575172
0.00539953
0.00504271
0.00468317
0.00432406
0.00396805
0.00361774
0.00327101
0.00291474
0.00251409
0.0438243
0.0368129
0.0284899
0.0237279
0.0219009
0.020634
0.0192238
0.0179645
0.0170121
0.0162674
0.0156241
0.0150468
0.0145293
0.014064
0.0136406
0.0132502
0.0128866
0.0125449
0.0122214
0.0119126
0.0116159
0.0113288
0.0110493
0.0107755
0.0105058
0.0102386
0.00997263
0.0097066
0.00943936
0.0091698
0.00889691
0.00861978
0.00833752
0.0080494
0.00775473
0.00745301
0.00714385
0.00682706
0.00650269
0.00617104
0.00583279
0.00548888
0.00514089
0.00479057
0.00444036
0.0040922
0.00374668
0.00339953
0.00303447
0.00261509
0.0424809
0.0362989
0.0286019
0.023882
0.0219448
0.0206802
0.0193046
0.0180456
0.0170775
0.0163233
0.0156763
0.0150959
0.0145748
0.0141062
0.0136802
0.0132877
0.0129223
0.0125791
0.0122543
0.0119446
0.0116471
0.0113595
0.0110797
0.0108058
0.0105362
0.0102693
0.010004
0.00973884
0.00947276
0.00920468
0.00893362
0.0086587
0.00837908
0.00809406
0.00780303
0.00750551
0.00720117
0.00688988
0.00657174
0.00624705
0.0059165
0.00558101
0.00524198
0.00490095
0.00455971
0.00421943
0.00387902
0.0035323
0.0031608
0.00272753
0.0412048
0.0357592
0.0286693
0.0240254
0.0219873
0.0207184
0.0193785
0.0181248
0.0171427
0.0163787
0.0157281
0.0151451
0.0146206
0.0141488
0.0137202
0.0133256
0.0129585
0.0126138
0.0122878
0.0119772
0.011679
0.0113909
0.0111108
0.0108368
0.0105674
0.010301
0.0100363
0.00977213
0.00950729
0.00924077
0.00897164
0.00869903
0.00842216
0.00814037
0.00785311
0.00755993
0.00726057
0.00695494
0.00664317
0.00632561
0.00600293
0.00567599
0.00534605
0.00501441
0.00468228
0.00435003
0.00401519
0.00367002
0.00329468
0.00285247
0.0399932
0.035199
0.028693
0.0241554
0.0220287
0.0207494
0.019445
0.0182015
0.0172076
0.0164336
0.0157793
0.015194
0.0146666
0.0141918
0.0137606
0.013364
0.0129952
0.0126492
0.012322
0.0120104
0.0117116
0.011423
0.0111427
0.0108688
0.0105996
0.0103336
0.0100697
0.0098065
0.00954298
0.00927812
0.009011
0.00874081
0.00846682
0.00818838
0.00790501
0.00761632
0.0073221
0.00702228
0.00671706
0.00640679
0.00609213
0.00577392
0.00545321
0.0051311
0.00480825
0.00448429
0.00415565
0.0038134
0.003437
0.00299086
0.0388432
0.0346235
0.028674
0.0242698
0.0220691
0.0207739
0.0195037
0.0182749
0.017272
0.0164879
0.0158298
0.0152426
0.0147126
0.0142349
0.0138013
0.0134028
0.0130324
0.012685
0.0123568
0.0120443
0.0117449
0.0114559
0.0111754
0.0109015
0.0106326
0.0103672
0.0101041
0.009842
0.00957988
0.00931676
0.00905176
0.0087841
0.00851309
0.00823815
0.00795881
0.00767476
0.00738582
0.00709199
0.00679347
0.00649067
0.0061842
0.00587486
0.00556357
0.00525115
0.0049378
0.0046225
0.00430084
0.00396307
0.00358856
0.00314348
0.0377519
0.0340375
0.028614
0.0243664
0.0221082
0.0207926
0.0195544
0.0183443
0.0173354
0.0165417
0.0158796
0.0152908
0.0147586
0.0142783
0.0138423
0.013442
0.0130701
0.0127214
0.0123921
0.0120789
0.0117789
0.0114896
0.011209
0.0109352
0.0106666
0.0104018
0.0101396
0.00987864
0.00961801
0.00935673
0.00909396
0.00882894
0.00856104
0.00828971
0.00801456
0.00773529
0.00745179
0.0071641
0.00687247
0.0065773
0.0062792
0.00597892
0.00567721
0.00537469
0.00507115
0.00476498
0.00445123
0.00411963
0.00375005
0.00331094
0.036716
0.0334451
0.028515
0.0244434
0.0221452
0.0208063
0.019597
0.018409
0.0173975
0.0165948
0.0159285
0.0153384
0.0148045
0.0143218
0.0138836
0.0134815
0.0131082
0.0127584
0.0124281
0.0121141
0.0118136
0.011524
0.0112433
0.0109697
0.0107016
0.0104375
0.0101761
0.00991647
0.00965742
0.00939808
0.00913763
0.00887538
0.00861071
0.00834313
0.0080723
0.00779797
0.00752007
0.0072387
0.00695412
0.00666675
0.0063772
0.00608615
0.00579425
0.00550186
0.00520847
0.00491201
0.00460721
0.00428362
0.00392205
0.00349367
0.0357326
0.0328502
0.0283797
0.0244992
0.0221793
0.0208156
0.0196318
0.0184685
0.0174579
0.0166472
0.0159766
0.0153853
0.0148501
0.0143653
0.0139251
0.0135213
0.0131467
0.0127958
0.0124646
0.01215
0.011849
0.0115592
0.0112785
0.0110051
0.0107375
0.0104741
0.0102139
0.00995552
0.00969814
0.00944084
0.00918283
0.00892345
0.00866214
0.00839846
0.00813209
0.00786285
0.00759072
0.00731583
0.00703847
0.00675909
0.00647828
0.00619666
0.00591477
0.0056328
0.00534998
0.00506406
0.00476918
0.0044555
0.00410502
0.0036919
0.0347987
0.0322562
0.028211
0.0245325
0.0222092
0.020821
0.019659
0.0185221
0.0175159
0.0166987
0.0160237
0.0154314
0.0148953
0.0144088
0.0139667
0.0135614
0.0131855
0.0128337
0.0125017
0.0121865
0.0118851
0.0115951
0.0113145
0.0110415
0.0107744
0.0105119
0.0102527
0.00999581
0.0097402
0.00948504
0.00922959
0.00897321
0.00871539
0.00845574
0.00819398
0.00792999
0.00766379
0.00739554
0.00712558
0.00685437
0.00658248
0.0063105
0.00603888
0.00576764
0.00549585
0.00522104
0.00493745
0.00463565
0.00429926
0.00390568
0.0339112
0.031666
0.0280118
0.0245427
0.0222335
0.0208229
0.0196789
0.0185695
0.0175712
0.0167491
0.0160699
0.0154766
0.01494
0.0144522
0.0140085
0.0136017
0.0132247
0.012872
0.0125394
0.0122236
0.0119219
0.0116319
0.0113514
0.0110788
0.0108123
0.0105507
0.0102928
0.0100374
0.00978364
0.00953073
0.00927794
0.00902469
0.00877049
0.00851501
0.00825802
0.00799943
0.00773932
0.00747789
0.00721551
0.00695265
0.00668988
0.00642776
0.00616665
0.00590649
0.00564623
0.00538333
0.0051123
0.00482434
0.00450494
0.00413482
0.0330674
0.031082
0.0277857
0.0245292
0.0222508
0.0208216
0.0196921
0.0186103
0.0176232
0.0167982
0.0161149
0.0155207
0.0149841
0.0144954
0.0140502
0.0136422
0.0132642
0.0129107
0.0125775
0.0122613
0.0119594
0.0116694
0.0113892
0.011117
0.0108513
0.0105907
0.010334
0.0100802
0.00982848
0.00957794
0.00932793
0.00907793
0.0088275
0.00857632
0.00832424
0.00807122
0.00781736
0.00756291
0.00730829
0.00705396
0.00680052
0.00654848
0.00629817
0.00604946
0.00580128
0.00555113
0.00529392
0.00502175
0.00472207
0.00437895
0.0322644
0.0305064
0.0275358
0.0244919
0.0222596
0.0208169
0.019699
0.0186443
0.0176712
0.0168456
0.0161589
0.0155637
0.0150273
0.0145382
0.0140919
0.0136828
0.013304
0.0129498
0.0126161
0.0122996
0.0119976
0.0117077
0.0114278
0.0111561
0.0108912
0.0106317
0.0103765
0.0101244
0.00987476
0.00962669
0.0093796
0.00913297
0.00888643
0.00863971
0.0083927
0.00814539
0.00789794
0.00765066
0.00740396
0.00715835
0.00691444
0.00667271
0.00643351
0.00619664
0.00596111
0.00572456
0.00548246
0.00522792
0.00495047
0.00463747
0.0314997
0.0299407
0.0272655
0.0244314
0.0222584
0.0208087
0.0197002
0.0186715
0.0177148
0.016891
0.0162015
0.0156056
0.0150697
0.0145805
0.0141335
0.0137234
0.0133439
0.0129893
0.0126552
0.0123385
0.0120365
0.0117468
0.0114673
0.0111963
0.0109323
0.0106739
0.0104202
0.01017
0.0099225
0.00967702
0.00943296
0.00918984
0.00894733
0.00870521
0.00846341
0.00822197
0.00798111
0.00774114
0.00750254
0.00726585
0.00703167
0.00680051
0.0065727
0.00634809
0.0061258
0.00590371
0.00567796
0.00544278
0.00518982
0.0049096
0.0307707
0.0293862
0.026978
0.0243482
0.0222459
0.0207966
0.019696
0.0186919
0.0177536
0.0169339
0.0162428
0.0156462
0.015111
0.0146222
0.0141748
0.013764
0.013384
0.013029
0.0126947
0.012378
0.012076
0.0117866
0.0115076
0.0112373
0.0109743
0.0107173
0.0104652
0.0102169
0.00997171
0.00972895
0.00948805
0.00924857
0.00901023
0.00877285
0.00853641
0.008301
0.00806687
0.00783439
0.00760407
0.00737648
0.00715223
0.00693187
0.00671577
0.00650384
0.00629537
0.00608858
0.00588036
0.00566612
0.00543962
0.00519434
0.0300753
0.0288439
0.0266763
0.0242435
0.0222213
0.02078
0.0196869
0.0187058
0.0177872
0.0169741
0.0162824
0.0156854
0.0151512
0.0146632
0.0142158
0.0138046
0.0134241
0.0130689
0.0127346
0.0124179
0.0121162
0.0118271
0.0115488
0.0112794
0.0110175
0.0107619
0.0105114
0.0102652
0.0100224
0.00978251
0.00954489
0.00930919
0.00907515
0.00884266
0.00861172
0.00838249
0.00815525
0.00793042
0.00770855
0.00749023
0.00727613
0.00706681
0.00686272
0.00666388
0.00646981
0.00627913
0.00608953
0.00589762
0.00569921
0.00549051
0.0294113
0.0283144
0.0263633
0.0241186
0.0221836
0.0207583
0.019673
0.0187132
0.0178152
0.017011
0.0163203
0.0157232
0.0151901
0.0147033
0.0142563
0.013845
0.0134644
0.0131091
0.0127749
0.0124584
0.012157
0.0118684
0.0115908
0.0113224
0.0110617
0.0108076
0.0105589
0.0103149
0.0100747
0.00983771
0.0096035
0.0093717
0.00914211
0.00891464
0.00868935
0.00846645
0.00824625
0.00802923
0.00781596
0.0076071
0.00740333
0.0072053
0.00701353
0.00682818
0.00664905
0.00647522
0.0063052
0.00613682
0.00596778
0.0057968
0.0287766
0.0277982
0.0260415
0.0239749
0.0221325
0.0207306
0.0196544
0.0187145
0.0178376
0.0170443
0.016356
0.0157594
0.0152277
0.0147424
0.0142962
0.0138851
0.0135045
0.0131494
0.0128154
0.0124993
0.0121984
0.0119104
0.0116337
0.0113663
0.011107
0.0108545
0.0106078
0.010366
0.0101285
0.00989457
0.00966389
0.00943613
0.00921112
0.00898881
0.00876932
0.00855288
0.00833988
0.00813081
0.0079263
0.00772705
0.00753382
0.0073473
0.00716813
0.00699664
0.00683295
0.00667663
0.00652701
0.0063831
0.00624437
0.00611173
0.0281694
0.0272955
0.0257132
0.0238141
0.0220675
0.0206962
0.0196313
0.01871
0.0178542
0.0170736
0.0163894
0.015794
0.0152638
0.0147804
0.0143355
0.0139249
0.0135446
0.0131898
0.0128562
0.0125406
0.0122403
0.0119532
0.0116773
0.0114112
0.0111533
0.0109025
0.0106579
0.0104185
0.0101838
0.00995309
0.00972608
0.00950249
0.00928218
0.00906517
0.00885161
0.00864177
0.0084361
0.00823512
0.00803953
0.00785005
0.00766753
0.00749272
0.00732641
0.00716912
0.00702131
0.00688307
0.00675451
0.00663575
0.00652788
0.00643368
0.027588
0.0268064
0.0253805
0.023638
0.0219889
0.0206545
0.0196033
0.0187
0.017865
0.0170986
0.0164201
0.0158267
0.0152984
0.0148172
0.0143738
0.0139642
0.0135844
0.0132302
0.0128972
0.0125822
0.0122827
0.0119965
0.0117218
0.011457
0.0112007
0.0109518
0.0107093
0.0104725
0.0102406
0.0100133
0.00979006
0.00957077
0.0093553
0.00914372
0.00893621
0.00873311
0.00853489
0.00834214
0.00815559
0.00797603
0.00780436
0.00764146
0.00748824
0.00734544
0.00721387
0.00709414
0.00698711
0.00689392
0.00681708
0.00676095
0.0270307
0.026331
0.0250452
0.0234483
0.0218969
0.0206049
0.0195705
0.0186845
0.01787
0.017119
0.0164478
0.0158574
0.0153314
0.0148526
0.0144113
0.014003
0.013624
0.0132705
0.0129383
0.0126242
0.0123257
0.0120405
0.011767
0.0115037
0.0112491
0.0110022
0.010762
0.0105278
0.010299
0.0100751
0.00985583
0.00964096
0.00943046
0.00922442
0.0090231
0.00882685
0.00863621
0.0084518
0.00827441
0.00810489
0.00794422
0.00779337
0.00765342
0.00752534
0.00741027
0.00730937
0.00722416
0.00715666
0.00711064
0.00709173
0.0264962
0.0258689
0.0247088
0.0232467
0.0217918
0.0205468
0.0195324
0.0186638
0.0178694
0.0171345
0.0164723
0.0158859
0.0153626
0.0148865
0.0144476
0.014041
0.0136633
0.0133107
0.0129795
0.0126665
0.012369
0.0120851
0.011813
0.0115512
0.0112985
0.0110537
0.010816
0.0105846
0.0103589
0.0101386
0.00992337
0.00971304
0.00950763
0.00930726
0.00911223
0.00892295
0.00873999
0.00856402
0.00839589
0.00823651
0.00808694
0.00794827
0.00782173
0.00770853
0.00761014
0.00752819
0.00746482
0.00742289
0.00740716
0.0074242
0.0259831
0.0254202
0.0243727
0.0230351
0.0216745
0.02048
0.0194887
0.0186381
0.0178632
0.0171452
0.0164932
0.0159119
0.0153919
0.0149189
0.0144828
0.0140783
0.013702
0.0133507
0.0130207
0.0127089
0.0124128
0.0121302
0.0118597
0.0115997
0.0113489
0.0111064
0.0108712
0.0106427
0.0104203
0.0102037
0.00999267
0.009787
0.00958678
0.00939219
0.00920356
0.00902134
0.00884615
0.00867871
0.00851991
0.00837075
0.00823235
0.00810593
0.00799287
0.00789464
0.00781301
0.00774992
0.0077082
0.00769149
0.00770515
0.00775648
0.0254902
0.0249844
0.024038
0.0228149
0.0215457
0.0204042
0.0194393
0.0186072
0.0178517
0.0171509
0.0165103
0.0159353
0.0154192
0.0149496
0.0145166
0.0141146
0.0137402
0.0133904
0.0130619
0.0127515
0.0124568
0.0121759
0.0119071
0.0116489
0.0114003
0.0111601
0.0109277
0.0107022
0.0104832
0.0102705
0.0100637
0.00986278
0.00966787
0.00947916
0.00929702
0.00912195
0.00895459
0.00879574
0.00864634
0.00850743
0.00838024
0.00826609
0.00816652
0.00808321
0.00801825
0.0079739
0.00795352
0.00796129
0.00800309
0.00808666
0.0250163
0.0245613
0.0237057
0.0225878
0.0214062
0.0203195
0.0193837
0.0185714
0.0178348
0.0171515
0.0165235
0.0159558
0.0154443
0.0149786
0.014549
0.0141499
0.0137777
0.0134298
0.0131029
0.0127942
0.0125012
0.012222
0.011955
0.0116989
0.0114526
0.011215
0.0109853
0.010763
0.0105476
0.0103388
0.0101364
0.00994034
0.00975084
0.00956809
0.00939252
0.00922466
0.0090652
0.00891498
0.00877499
0.00864634
0.00853035
0.00842843
0.00834228
0.00827378
0.00822524
0.00819935
0.00819977
0.00823102
0.00829944
0.00841293
0.0245603
0.0241507
0.0233765
0.022355
0.0212571
0.0202261
0.0193219
0.0185304
0.0178129
0.0171472
0.0165324
0.0159732
0.0154671
0.0150057
0.0145799
0.014184
0.0138145
0.0134686
0.0131437
0.0128368
0.0125457
0.0122685
0.0120036
0.0117497
0.0115057
0.0112708
0.0110441
0.0108251
0.0106133
0.0104086
0.0102107
0.0100196
0.00983561
0.00965891
0.00948997
0.00932936
0.00917784
0.00903626
0.00890567
0.00878725
0.00868238
0.0085926
0.00851972
0.00846579
0.00843336
0.00842537
0.00844581
0.0084994
0.00859266
0.00873355
0.0241213
0.0237521
0.0230512
0.0221179
0.0210993
0.0201241
0.0192535
0.0184842
0.0177859
0.0171379
0.0165371
0.0159873
0.0154875
0.0150308
0.0146092
0.0142168
0.0138503
0.0135069
0.0131841
0.0128794
0.0125904
0.0123153
0.0120526
0.0118011
0.0115597
0.0113276
0.011104
0.0108884
0.0106804
0.0104798
0.0102865
0.0101005
0.00992209
0.0097515
0.00958923
0.00943592
0.00929233
0.00915937
0.00903814
0.00892987
0.00883602
0.0087582
0.00869836
0.00865867
0.00864187
0.00865108
0.00869053
0.00876504
0.00888119
0.00904677
0.0236985
0.0233653
0.0227302
0.0218776
0.0209339
0.020014
0.0191787
0.0184328
0.017754
0.0171236
0.0165374
0.0159979
0.0155051
0.0150537
0.0146366
0.0142483
0.0138851
0.0135445
0.0132242
0.0129218
0.0126351
0.0123624
0.0121021
0.0118531
0.0116145
0.0113853
0.0111649
0.0109529
0.0107488
0.0105525
0.0103638
0.010183
0.0100102
0.00984575
0.00969019
0.00954416
0.00940848
0.0092841
0.00917214
0.0090739
0.00899089
0.0089248
0.00887767
0.00885178
0.00884998
0.00887557
0.00893281
0.00902662
0.00916353
0.00935086
0.0232908
0.02299
0.0224141
0.0216351
0.0207618
0.0198962
0.0190973
0.018376
0.0177171
0.0171046
0.0165333
0.0160049
0.0155199
0.0150744
0.0146623
0.0142782
0.0139187
0.0135813
0.0132638
0.012964
0.0126798
0.0124096
0.012152
0.0119057
0.0116699
0.0114439
0.0112269
0.0110185
0.0108184
0.0106264
0.0104426
0.0102669
0.0100998
0.00994152
0.00979267
0.00965391
0.00952609
0.0094102
0.00930739
0.009219
0.00914659
0.00909191
0.00905707
0.00904442
0.0090569
0.00909785
0.00917152
0.00928289
0.00943825
0.00964432
0.0228977
0.0226257
0.0221032
0.0213914
0.020584
0.0197714
0.0190095
0.018314
0.0176754
0.0170808
0.0165248
0.0160082
0.0155318
0.0150928
0.014686
0.0143066
0.0139512
0.0136172
0.0133028
0.0130058
0.0127244
0.012457
0.0122021
0.0119588
0.011726
0.0115032
0.0112897
0.0110851
0.0108891
0.0107015
0.0105225
0.0103522
0.0101907
0.0100387
0.00989649
0.00976496
0.00964492
0.00953739
0.00944356
0.00936479
0.00930267
0.00925902
0.00923595
0.0092359
0.00926178
0.00931696
0.00940562
0.00953254
0.00970382
0.00992575
0.0225184
0.0222722
0.0217979
0.0211474
0.0204015
0.01964
0.0189156
0.0182466
0.0176289
0.0170524
0.0165119
0.0160077
0.0155405
0.0151086
0.0147076
0.0143333
0.0139822
0.0136521
0.0133411
0.0130473
0.0127688
0.0125043
0.0122525
0.0120122
0.0117826
0.0115632
0.0113533
0.0111526
0.0109607
0.0107778
0.0106036
0.0104386
0.0102829
0.010137
0.0100015
0.00987707
0.0097647
0.00966537
0.00958029
0.00951086
0.00945868
0.00942557
0.00941369
0.00942546
0.00946378
0.00953195
0.00963402
0.00977446
0.00995893
0.0101936
0.0221522
0.0219293
0.0214982
0.0209036
0.0202151
0.0195028
0.0188157
0.018174
0.0175777
0.0170193
0.0164946
0.0160033
0.0155461
0.0151218
0.0147271
0.0143581
0.0140118
0.0136859
0.0133786
0.0130881
0.012813
0.0125516
0.0123029
0.0120659
0.0118397
0.0116238
0.0114176
0.0112209
0.0110333
0.0108549
0.0106858
0.010526
0.010376
0.0102363
0.0101073
0.00999