/*--------------------------------*- C++ -*----------------------------------*\
  =========                 |
  \\      /  F ield         | OpenFOAM: The Open Source CFD Toolbox
   \\    /   O peration     | Website:  https://openfoam.org
    \\  /    A nd           | Version:  7
     \\/     M anipulation  |
\*---------------------------------------------------------------------------*/
FoamFile
{
    version     2.0;
    format      ascii;
    class       surfaceScalarField;
    location    "0.41";
    object      phi;
}
// * * * * * * * * * * * * * * * * * * * * * * * * * * * * * * * * * * * * * //

dimensions      [0 3 -1 0 0 0 0];

internalField   nonuniform List<scalar> 
139350
(
6.45127e-08
9.21188e-08
3.19661e-08
3.25466e-08
2.30613e-08
8.90476e-09
1.95767e-08
3.48464e-09
1.76246e-08
1.9521e-09
1.6194e-08
1.43063e-09
1.50604e-08
1.13352e-09
1.41474e-08
9.13005e-10
1.33963e-08
7.51105e-10
1.27638e-08
6.32495e-10
1.22212e-08
5.42656e-10
1.17491e-08
4.72132e-10
1.13337e-08
4.15329e-10
1.0965e-08
3.6872e-10
1.06351e-08
3.29896e-10
1.0338e-08
2.97133e-10
1.00688e-08
2.69157e-10
9.8238e-09
2.45021e-10
9.5998e-09
2.23997e-10
9.39428e-09
2.05524e-10
9.20512e-09
1.8916e-10
9.03056e-09
1.74554e-10
8.86915e-09
1.61418e-10
8.71963e-09
1.49519e-10
8.58097e-09
1.38659e-10
8.45229e-09
1.28677e-10
8.33287e-09
1.19426e-10
8.22208e-09
1.10786e-10
8.11944e-09
1.02643e-10
8.02453e-09
9.49051e-11
7.93706e-09
8.74681e-11
7.8568e-09
8.02685e-11
7.7836e-09
7.31917e-11
7.7174e-09
6.62072e-11
7.65823e-09
5.91694e-11
7.60614e-09
5.20857e-11
7.56137e-09
4.47754e-11
7.52412e-09
3.72491e-11
7.49472e-09
2.93932e-11
7.47376e-09
2.09635e-11
7.4613e-09
1.24637e-11
7.45899e-09
2.30501e-12
7.46529e-09
-6.3006e-12
7.48553e-09
-2.02336e-11
7.51173e-09
-2.62023e-11
7.56215e-09
-5.04236e-11
7.60309e-09
-4.09406e-11
7.72324e-09
-1.20151e-10
7.58485e-09
1.38396e-10
-3.63173e-09
1.12166e-08
1.25944e-07
1.27618e-07
9.12923e-08
6.71984e-08
7.19409e-08
2.82562e-08
6.12259e-08
1.41997e-08
5.4789e-08
8.38896e-09
5.02928e-08
5.92681e-09
4.68066e-08
4.61974e-09
4.39914e-08
3.72819e-09
4.16667e-08
3.07581e-09
3.97072e-08
2.59204e-09
3.80257e-08
2.22416e-09
3.65622e-08
1.93558e-09
3.52742e-08
1.70335e-09
3.41301e-08
1.51286e-09
3.31058e-08
1.3542e-09
3.21826e-08
1.22031e-09
3.13457e-08
1.10599e-09
3.05834e-08
1.00738e-09
2.98859e-08
9.21514e-10
2.92453e-08
8.46099e-10
2.86551e-08
7.79337e-10
2.81099e-08
7.19791e-10
2.7605e-08
6.66298e-10
2.71366e-08
6.17904e-10
2.67015e-08
5.73811e-10
2.62968e-08
5.33352e-10
2.59203e-08
4.95947e-10
2.55699e-08
4.61101e-10
2.52442e-08
4.28363e-10
2.49418e-08
3.97352e-10
2.46616e-08
3.67675e-10
2.44028e-08
3.3904e-10
2.4165e-08
3.11038e-10
2.39477e-08
2.83489e-10
2.3751e-08
2.55858e-10
2.35749e-08
2.28153e-10
2.34201e-08
1.99557e-10
2.3287e-08
1.70406e-10
2.31769e-08
1.39424e-10
2.30906e-08
1.07325e-10
2.30305e-08
7.25682e-11
2.29974e-08
3.53919e-11
2.29949e-08
-3.82948e-12
2.30251e-08
-5.04188e-11
2.30898e-08
-9.08691e-11
2.32011e-08
-1.61722e-10
2.33331e-08
-1.72998e-10
2.36123e-08
-3.99324e-10
2.36738e-08
7.69509e-11
-4.77336e-09
2.48154e-08
1.58753e-07
1.35269e-07
1.3653e-07
8.94217e-08
1.17499e-07
4.72874e-08
1.03323e-07
2.83754e-08
9.33294e-08
1.83824e-08
8.60291e-08
1.32271e-08
8.03213e-08
1.03275e-08
7.56701e-08
8.37946e-09
7.17933e-08
6.95261e-09
6.85035e-08
5.88183e-09
6.56674e-08
5.06021e-09
6.31904e-08
4.41258e-09
6.10039e-08
3.88982e-09
5.90569e-08
3.45994e-09
5.731e-08
3.1011e-09
5.57325e-08
2.79773e-09
5.43002e-08
2.53834e-09
5.29933e-08
2.31432e-09
5.17957e-08
2.11906e-09
5.06944e-08
1.94746e-09
4.96782e-08
1.79549e-09
4.87381e-08
1.65992e-09
4.78662e-08
1.53815e-09
4.70561e-08
1.42802e-09
4.63022e-08
1.32775e-09
4.55997e-08
1.23584e-09
4.49446e-08
1.15098e-09
4.43337e-08
1.07205e-09
4.3764e-08
9.98074e-10
4.32332e-08
9.28166e-10
4.27394e-08
8.61482e-10
4.22811e-08
7.9734e-10
4.18572e-08
7.34881e-10
4.14671e-08
6.73648e-10
4.11104e-08
6.12519e-10
4.07871e-08
5.51481e-10
4.0498e-08
4.88667e-10
4.02433e-08
4.25072e-10
4.00255e-08
3.57179e-10
3.98448e-08
2.88051e-10
3.97062e-08
2.11159e-10
3.96087e-08
1.32923e-10
3.95619e-08
4.30017e-11
3.9562e-08
-5.05255e-11
3.96243e-08
-1.53183e-10
3.9747e-08
-2.84489e-10
3.993e-08
-3.55968e-10
4.02675e-08
-7.36841e-10
4.06008e-08
-2.56324e-10
-5.05269e-09
4.08801e-08
1.75612e-07
1.31173e-07
1.65626e-07
9.94075e-08
1.5274e-07
6.01731e-08
1.40133e-07
4.09824e-08
1.29454e-07
2.90615e-08
1.20815e-07
2.18658e-08
1.13703e-07
1.74399e-08
1.07722e-07
1.43602e-08
1.02623e-07
1.20517e-08
9.82235e-08
1.02815e-08
9.43837e-08
8.90009e-09
9.09981e-08
7.79815e-09
8.7987e-08
6.90087e-09
8.52891e-08
6.15791e-09
8.28559e-08
5.53424e-09
8.06492e-08
5.00449e-09
7.86378e-08
4.54976e-09
7.67963e-08
4.15575e-09
7.5104e-08
3.81141e-09
7.35433e-08
3.50811e-09
7.20998e-08
3.23902e-09
7.07611e-08
2.99862e-09
6.95168e-08
2.78244e-09
6.8358e-08
2.58681e-09
6.72772e-08
2.40861e-09
6.62677e-08
2.24526e-09
6.53242e-08
2.09451e-09
6.44419e-08
1.95441e-09
6.36167e-08
1.82326e-09
6.28453e-08
1.69954e-09
6.2125e-08
1.58179e-09
6.14535e-08
1.46881e-09
6.08292e-08
1.35918e-09
6.02508e-08
1.25204e-09
5.97178e-08
1.14555e-09
5.92297e-08
1.03962e-09
5.87872e-08
9.31078e-10
5.83906e-08
8.21727e-10
5.80426e-08
7.05174e-10
5.77431e-08
5.87568e-10
5.74985e-08
4.55738e-10
5.73069e-08
3.24557e-10
5.7181e-08
1.68905e-10
5.71146e-08
1.58841e-11
5.71293e-08
-1.67979e-10
5.72179e-08
-3.73068e-10
5.73955e-08
-5.33539e-10
5.772e-08
-1.0613e-09
5.81819e-08
-7.1825e-10
-5.14822e-09
5.82774e-08
1.8451e-07
1.23448e-07
1.82343e-07
1.01575e-07
1.76125e-07
6.63904e-08
1.67771e-07
4.93373e-08
1.59153e-07
3.7679e-08
1.51248e-07
2.97704e-08
1.44176e-07
2.45122e-08
1.37876e-07
2.06601e-08
1.32277e-07
1.76514e-08
1.27293e-07
1.52648e-08
1.22841e-07
1.33524e-08
1.18843e-07
1.17958e-08
1.15236e-07
1.05082e-08
1.11965e-07
9.42859e-09
1.08987e-07
8.51291e-09
1.06263e-07
7.7284e-09
1.03762e-07
7.05014e-09
1.01459e-07
6.45885e-09
9.93314e-08
5.93943e-09
9.73596e-08
5.47989e-09
9.5528e-08
5.07063e-09
9.38227e-08
4.70385e-09
9.2232e-08
4.37316e-09
9.07456e-08
4.07321e-09
8.93547e-08
3.79953e-09
8.80516e-08
3.54832e-09
8.68298e-08
3.3163e-09
8.56837e-08
3.10059e-09
8.46083e-08
2.89867e-09
8.35995e-08
2.70829e-09
8.2654e-08
2.52732e-09
8.17688e-08
2.35394e-09
8.09419e-08
2.18608e-09
8.01716e-08
2.02244e-09
7.94568e-08
1.86033e-09
7.87968e-08
1.69958e-09
7.81923e-08
1.53556e-09
7.76432e-08
1.37089e-09
7.71522e-08
1.19612e-09
7.67193e-08
1.02052e-09
7.6351e-08
8.24004e-10
7.60455e-08
6.30025e-10
7.58161e-08
3.98333e-10
7.5657e-08
1.75029e-10
7.559e-08
-1.0102e-10
7.56098e-08
-3.92875e-10
7.57341e-08
-6.57819e-10
7.6003e-08
-1.33018e-09
7.64606e-08
-1.17592e-09
-5.18208e-09
7.64945e-08
1.90343e-07
1.15321e-07
1.91861e-07
1.00057e-07
1.90266e-07
6.79846e-08
1.86164e-07
5.34397e-08
1.80728e-07
4.31153e-08
1.74978e-07
3.55204e-08
1.69282e-07
3.0208e-08
1.63798e-07
2.61442e-08
1.58623e-07
2.28261e-08
1.538e-07
2.00877e-08
1.49332e-07
1.78203e-08
1.45203e-07
1.59247e-08
1.4139e-07
1.4322e-08
1.37865e-07
1.29533e-08
1.34603e-07
1.17746e-08
1.3158e-07
1.07516e-08
1.28773e-07
9.85729e-09
1.26161e-07
9.0703e-09
1.23728e-07
8.37332e-09
1.21455e-07
7.75234e-09
1.1933e-07
7.19592e-09
1.17339e-07
6.6946e-09
1.15472e-07
6.24049e-09
1.13718e-07
5.82696e-09
1.12069e-07
5.44836e-09
1.10518e-07
5.09983e-09
1.09057e-07
4.77717e-09
1.07681e-07
4.47664e-09
1.06384e-07
4.19495e-09
1.05164e-07
3.92913e-09
1.04015e-07
3.67639e-09
1.02934e-07
3.43431e-09
1.0192e-07
3.20014e-09
1.0097e-07
2.97212e-09
1.00084e-07
2.74675e-09
9.926e-08
2.52366e-09
9.84987e-08
2.29686e-09
9.78e-08
2.06957e-09
9.71666e-08
1.82955e-09
9.65984e-08
1.58865e-09
9.61017e-08
1.32072e-09
9.56756e-08
1.05616e-09
9.53315e-08
7.42386e-10
9.5067e-08
4.39526e-10
9.4899e-08
6.69588e-11
9.48301e-08
-3.23886e-10
9.48705e-08
-6.9822e-10
9.50555e-08
-1.51522e-09
9.54435e-08
-1.56388e-09
-5.13637e-09
9.53977e-08
1.95505e-07
1.07631e-07
1.98248e-07
9.73134e-08
1.98989e-07
6.72441e-08
1.97798e-07
5.46312e-08
1.95166e-07
4.57468e-08
1.91829e-07
3.88578e-08
1.88098e-07
3.39386e-08
1.84147e-07
3.00949e-08
1.80127e-07
2.68463e-08
1.76148e-07
2.40668e-08
1.72278e-07
2.16898e-08
1.68558e-07
1.96455e-08
1.65006e-07
1.78734e-08
1.61633e-07
1.63268e-08
1.58438e-07
1.49692e-08
1.55418e-07
1.37714e-08
1.52567e-07
1.27091e-08
1.49874e-07
1.17624e-08
1.47333e-07
1.09146e-08
1.44934e-07
1.01519e-08
1.42667e-07
9.46261e-09
1.40525e-07
8.83682e-09
1.38499e-07
8.26614e-09
1.36583e-07
7.74335e-09
1.34769e-07
7.26218e-09
1.33052e-07
6.81717e-09
1.31425e-07
6.4035e-09
1.29885e-07
6.01688e-09
1.28426e-07
5.65344e-09
1.27046e-07
5.30965e-09
1.2574e-07
4.98219e-09
1.24506e-07
4.66812e-09
1.23342e-07
4.36413e-09
1.22246e-07
4.06801e-09
1.21218e-07
3.77555e-09
1.20255e-07
3.48613e-09
1.19359e-07
3.19261e-09
1.18531e-07
2.89851e-09
1.17771e-07
2.58936e-09
1.17081e-07
2.27869e-09
1.16465e-07
1.9359e-09
1.15926e-07
1.59558e-09
1.15471e-07
1.19747e-09
1.15102e-07
8.0813e-10
1.1483e-07
3.39505e-10
1.14666e-07
-1.5959e-10
1.14611e-07
-6.43411e-10
1.14694e-07
-1.59895e-09
1.14985e-07
-1.85433e-09
-5.00441e-09
1.14853e-07
2.0082e-07
1.00397e-07
2.03773e-07
9.43599e-08
2.05349e-07
6.56687e-08
2.05652e-07
5.43276e-08
2.04824e-07
4.65746e-08
2.03348e-07
4.03347e-08
2.01402e-07
3.58845e-08
1.99072e-07
3.24249e-08
1.96465e-07
2.94534e-08
1.93683e-07
2.6848e-08
1.90809e-07
2.45641e-08
1.87902e-07
2.25523e-08
1.85008e-07
2.07678e-08
1.82158e-07
1.91763e-08
1.79376e-07
1.77515e-08
1.76676e-07
1.64715e-08
1.74067e-07
1.53178e-08
1.71555e-07
1.42744e-08
1.69142e-07
1.33278e-08
1.66828e-07
1.2466e-08
1.64612e-07
1.16787e-08
1.62491e-07
1.09572e-08
1.60464e-07
1.02934e-08
1.58527e-07
9.68057e-09
1.56677e-07
9.11253e-09
1.5491e-07
8.58381e-09
1.53224e-07
8.08951e-09
1.51616e-07
7.62515e-09
1.50082e-07
7.18664e-09
1.48622e-07
6.77018e-09
1.47232e-07
6.37214e-09
1.45911e-07
5.98925e-09
1.44657e-07
5.61781e-09
1.4347e-07
5.25529e-09
1.42348e-07
4.8969e-09
1.41293e-07
4.54178e-09
1.40304e-07
4.18193e-09
1.39381e-07
3.82088e-09
1.38528e-07
3.44265e-09
1.37745e-07
3.06138e-09
1.37037e-07
2.64395e-09
1.36407e-07
2.22616e-09
1.35859e-07
1.74506e-09
1.35401e-07
1.26606e-09
1.35036e-07
7.04795e-10
1.34782e-07
9.38365e-11
1.34637e-07
-4.97897e-10
1.34616e-07
-1.57817e-09
1.34798e-07
-2.03659e-09
-4.79674e-09
1.34591e-07
2.06423e-07
9.35055e-08
2.09333e-07
9.145e-08
2.1106e-07
6.39419e-08
2.11943e-07
5.34447e-08
2.12009e-07
4.65087e-08
2.11626e-07
4.0717e-08
2.10899e-07
3.66118e-08
2.09829e-07
3.34947e-08
2.08456e-07
3.08271e-08
2.06837e-07
2.84669e-08
2.05028e-07
2.63725e-08
2.0308e-07
2.45007e-08
2.01034e-07
2.28133e-08
1.98928e-07
2.12827e-08
1.96791e-07
1.98888e-08
1.94646e-07
1.86159e-08
1.92513e-07
1.74506e-08
1.90407e-07
1.63812e-08
1.88337e-07
1.53976e-08
1.86312e-07
1.44909e-08
1.84338e-07
1.36529e-08
1.82418e-07
1.28765e-08
1.80557e-07
1.21552e-08
1.78754e-07
1.14831e-08
1.77012e-07
1.08549e-08
1.7533e-07
1.02656e-08
1.73709e-07
9.71071e-09
1.72148e-07
9.18601e-09
1.70647e-07
8.68754e-09
1.69206e-07
8.21153e-09
1.67823e-07
7.75432e-09
1.665e-07
7.31255e-09
1.65236e-07
6.88234e-09
1.6403e-07
6.46097e-09
1.62884e-07
6.04331e-09
1.61797e-07
5.62831e-09
1.60772e-07
5.20737e-09
1.59809e-07
4.78386e-09
1.5891e-07
4.34095e-09
1.58079e-07
3.89251e-09
1.57318e-07
3.40471e-09
1.56633e-07
2.91185e-09
1.56025e-07
2.35276e-09
1.55506e-07
1.78551e-09
1.55073e-07
1.13765e-09
1.54749e-07
4.17684e-10
1.54529e-07
-2.78504e-10
1.54416e-07
-1.46425e-09
1.54493e-07
-2.11358e-09
-4.53072e-09
1.54227e-07
2.12269e-07
8.68985e-08
2.15142e-07
8.85775e-08
2.16815e-07
6.2269e-08
2.17857e-07
5.2402e-08
2.18268e-07
4.60976e-08
2.18388e-07
4.05972e-08
2.18315e-07
3.66852e-08
2.18016e-07
3.37933e-08
2.17486e-07
3.1357e-08
2.16744e-07
2.92096e-08
2.15812e-07
2.73039e-08
2.14717e-07
2.55955e-08
2.13485e-07
2.40453e-08
2.12142e-07
2.26262e-08
2.10711e-07
2.13198e-08
2.09214e-07
2.01126e-08
2.07671e-07
1.89939e-08
2.06097e-07
1.79548e-08
2.04507e-07
1.69876e-08
2.02913e-07
1.60855e-08
2.01323e-07
1.52426e-08
1.99746e-07
1.44534e-08
1.98188e-07
1.37128e-08
1.96655e-07
1.30161e-08
1.95151e-07
1.23591e-08
1.93679e-07
1.17376e-08
1.92242e-07
1.11477e-08
1.90843e-07
1.05857e-08
1.89482e-07
1.0048e-08
1.88162e-07
9.53117e-09
1.86885e-07
9.0317e-09
1.85651e-07
8.54635e-09
1.84462e-07
8.07121e-09
1.8332e-07
7.60358e-09
1.82225e-07
7.13815e-09
1.81179e-07
6.67375e-09
1.80185e-07
6.20147e-09
1.79245e-07
5.72437e-09
1.7836e-07
5.22541e-09
1.77536e-07
4.71741e-09
1.76773e-07
4.16742e-09
1.76079e-07
3.60614e-09
1.75454e-07
2.97754e-09
1.74911e-07
2.32826e-09
1.74446e-07
1.60255e-09
1.74081e-07
7.82377e-10
1.73815e-07
-1.17717e-11
1.73631e-07
-1.28066e-09
1.73618e-07
-2.10097e-09
-4.22792e-09
1.73316e-07
2.18315e-07
8.05641e-08
2.21191e-07
8.57015e-08
2.22788e-07
6.06727e-08
2.23859e-07
5.1331e-08
2.24378e-07
4.5578e-08
2.24676e-07
4.02998e-08
2.24879e-07
3.64823e-08
2.24958e-07
3.37135e-08
2.24894e-07
3.14211e-08
2.24686e-07
2.94174e-08
2.24339e-07
2.7651e-08
2.23859e-07
2.60756e-08
2.23255e-07
2.46492e-08
2.22539e-07
2.33423e-08
2.21724e-07
2.2135e-08
2.20823e-07
2.10134e-08
2.1985e-07
1.9967e-08
2.18817e-07
1.89875e-08
2.17737e-07
1.80682e-08
2.16619e-07
1.72034e-08
2.15473e-07
1.63881e-08
2.14309e-07
1.5618e-08
2.13132e-07
1.48891e-08
2.11951e-07
1.41975e-08
2.1077e-07
1.35398e-08
2.09595e-07
1.29126e-08
2.0843e-07
1.23126e-08
2.07279e-07
1.17366e-08
2.06146e-07
1.11815e-08
2.05033e-07
1.06441e-08
2.03943e-07
1.01213e-08
2.0288e-07
9.60991e-09
2.01845e-07
9.10628e-09
2.00841e-07
8.60771e-09
1.9987e-07
8.10889e-09
1.98935e-07
7.60854e-09
1.98039e-07
7.09772e-09
1.97184e-07
6.57902e-09
1.96374e-07
6.03572e-09
1.95612e-07
5.47906e-09
1.94902e-07
4.87811e-09
1.94249e-07
4.25859e-09
1.93655e-07
3.57181e-09
1.93132e-07
2.85085e-09
1.92676e-07
2.05844e-09
1.92307e-07
1.15178e-09
1.92026e-07
2.69449e-10
1.91804e-07
-1.05897e-09
1.91728e-07
-2.02452e-09
-3.91353e-09
1.91413e-07
2.24549e-07
7.45085e-08
2.27451e-07
8.27992e-08
2.28984e-07
5.91403e-08
2.30062e-07
5.02527e-08
2.30622e-07
4.50178e-08
2.30968e-07
3.99539e-08
2.3126e-07
3.61897e-08
2.31488e-07
3.34855e-08
2.31633e-07
3.12765e-08
2.31693e-07
2.93579e-08
2.31666e-07
2.76772e-08
2.31553e-07
2.61895e-08
2.31351e-07
2.4851e-08
2.31063e-07
2.36298e-08
2.30694e-07
2.25044e-08
2.30248e-07
2.14592e-08
2.29732e-07
2.0483e-08
2.29153e-07
1.95667e-08
2.28518e-07
1.87035e-08
2.27833e-07
1.78877e-08
2.27107e-07
1.71146e-08
2.26345e-07
1.638e-08
2.25554e-07
1.56804e-08
2.24739e-07
1.50124e-08
2.23906e-07
1.43728e-08
2.2306e-07
1.37588e-08
2.22205e-07
1.31674e-08
2.21346e-07
1.25958e-08
2.20486e-07
1.20412e-08
2.19629e-07
1.15007e-08
2.18779e-07
1.09713e-08
2.17939e-07
1.04501e-08
2.17112e-07
9.93361e-09
2.163e-07
9.41911e-09
2.15508e-07
8.90136e-09
2.14738e-07
8.37899e-09
2.13992e-07
7.84316e-09
2.13275e-07
7.29589e-09
2.1259e-07
6.72117e-09
2.11941e-07
6.12827e-09
2.1133e-07
5.4891e-09
2.10765e-07
4.82356e-09
2.10245e-07
4.0915e-09
2.09784e-07
3.31194e-09
2.09377e-07
2.46549e-09
2.09039e-07
1.48929e-09
2.08778e-07
5.31156e-10
2.08552e-07
-8.33612e-10
2.08443e-07
-1.91534e-09
-3.61422e-09
2.08144e-07
2.30975e-07
6.87397e-08
2.33912e-07
7.98619e-08
2.35388e-07
5.76648e-08
2.36474e-07
4.91661e-08
2.37067e-07
4.44247e-08
2.37428e-07
3.95929e-08
2.37743e-07
3.58753e-08
2.38017e-07
3.32116e-08
2.38237e-07
3.10562e-08
2.38406e-07
2.9189e-08
2.38525e-07
2.75579e-08
2.38593e-07
2.61215e-08
2.38607e-07
2.48368e-08
2.38566e-07
2.3671e-08
2.38469e-07
2.26012e-08
2.38317e-07
2.16111e-08
2.38112e-07
2.06884e-08
2.37855e-07
1.98233e-08
2.37551e-07
1.90083e-08
2.37201e-07
1.82374e-08
2.3681e-07
1.75055e-08
2.36382e-07
1.68084e-08
2.35919e-07
1.61424e-08
2.35428e-07
1.55041e-08
2.3491e-07
1.48905e-08
2.3437e-07
1.42986e-08
2.33812e-07
1.37257e-08
2.33239e-07
1.31692e-08
2.32654e-07
1.26261e-08
2.3206e-07
1.2094e-08
2.31462e-07
1.15697e-08
2.30861e-07
1.10507e-08
2.30262e-07
1.05331e-08
2.29666e-07
1.00146e-08
2.29078e-07
9.48985e-09
2.28499e-07
8.95732e-09
2.27934e-07
8.40837e-09
2.27386e-07
7.84434e-09
2.26857e-07
7.2502e-09
2.26352e-07
6.63294e-09
2.25873e-07
5.96788e-09
2.25428e-07
5.26871e-09
2.25015e-07
4.50411e-09
2.24648e-07
3.67989e-09
2.24321e-07
2.79221e-09
2.24046e-07
1.76434e-09
2.23832e-07
7.44529e-10
2.23635e-07
-6.35997e-10
2.23524e-07
-1.80421e-09
-3.35454e-09
2.23264e-07
2.37601e-07
6.32634e-08
2.40578e-07
7.68853e-08
2.41996e-07
5.62464e-08
2.4309e-07
4.80722e-08
2.4372e-07
4.37948e-08
2.44094e-07
3.9219e-08
2.44414e-07
3.55554e-08
2.447e-07
3.2925e-08
2.44943e-07
3.08132e-08
2.45149e-07
2.89836e-08
2.45323e-07
2.73841e-08
2.45466e-07
2.59784e-08
2.45577e-07
2.47254e-08
2.45656e-07
2.35925e-08
2.457e-07
2.25566e-08
2.4571e-07
2.16012e-08
2.45685e-07
2.07133e-08
2.45625e-07
1.9883e-08
2.45531e-07
1.91023e-08
2.45404e-07
1.83647e-08
2.45245e-07
1.76649e-08
2.45055e-07
1.69984e-08
2.44836e-07
1.63612e-08
2.4459e-07
1.57498e-08
2.4432e-07
1.5161e-08
2.44027e-07
1.45917e-08
2.43713e-07
1.40392e-08
2.43382e-07
1.35006e-08
2.43035e-07
1.29732e-08
2.42675e-07
1.24542e-08
2.42304e-07
1.19407e-08
2.41924e-07
1.143e-08
2.41539e-07
1.09183e-08
2.41151e-07
1.04031e-08
2.40761e-07
9.87909e-09
2.40374e-07
9.34453e-09
2.39991e-07
8.79103e-09
2.39617e-07
8.21911e-09
2.39252e-07
7.61491e-09
2.38902e-07
6.98298e-09
2.38568e-07
6.30221e-09
2.38256e-07
5.58025e-09
2.37966e-07
4.79408e-09
2.37708e-07
3.93816e-09
2.37479e-07
3.02076e-09
2.37286e-07
1.95793e-09
2.3714e-07
8.90634e-10
2.36993e-07
-4.89101e-10
2.36905e-07
-1.7162e-09
-3.153e-09
2.36703e-07
2.44436e-07
5.80833e-08
2.47451e-07
7.38702e-08
2.48815e-07
5.48832e-08
2.49911e-07
4.69754e-08
2.5058e-07
4.31265e-08
2.5097e-07
3.88285e-08
2.51295e-07
3.52309e-08
2.51587e-07
3.26329e-08
2.51837e-07
3.05625e-08
2.52054e-07
2.87673e-08
2.52244e-07
2.71933e-08
2.52413e-07
2.58094e-08
2.52561e-07
2.45774e-08
2.52689e-07
2.34651e-08
2.52796e-07
2.24498e-08
2.52882e-07
2.15152e-08
2.52947e-07
2.06484e-08
2.5299e-07
1.98394e-08
2.53012e-07
1.90802e-08
2.53013e-07
1.83641e-08
2.52992e-07
1.76856e-08
2.52951e-07
1.70401e-08
2.52888e-07
1.64235e-08
2.52806e-07
1.58319e-08
2.52705e-07
1.52622e-08
2.52586e-07
1.4711e-08
2.52449e-07
1.41754e-08
2.52298e-07
1.36525e-08
2.52131e-07
1.31394e-08
2.51952e-07
1.26334e-08
2.51762e-07
1.21313e-08
2.51561e-07
1.16303e-08
2.51353e-07
1.11266e-08
2.51139e-07
1.06175e-08
2.5092e-07
1.00977e-08
2.50699e-07
9.56524e-09
2.50478e-07
9.01197e-09
2.5026e-07
8.43746e-09
2.50046e-07
7.82916e-09
2.4984e-07
7.18913e-09
2.49642e-07
6.49978e-09
2.49459e-07
5.76322e-09
2.4929e-07
4.96366e-09
2.49141e-07
4.08663e-09
2.49013e-07
3.14866e-09
2.48906e-07
2.06474e-09
2.48834e-07
9.62791e-10
2.4875e-07
-4.04494e-10
2.48701e-07
-1.66733e-09
-3.0194e-09
2.48567e-07
2.51489e-07
5.32014e-08
2.54532e-07
7.08267e-08
2.55851e-07
5.35644e-08
2.56945e-07
4.58812e-08
2.57651e-07
4.24204e-08
2.58061e-07
3.84187e-08
2.58391e-07
3.49006e-08
2.58689e-07
3.23354e-08
2.58945e-07
3.03066e-08
2.59165e-07
2.85466e-08
2.59361e-07
2.69973e-08
2.59538e-07
2.56327e-08
2.59698e-07
2.44176e-08
2.59842e-07
2.33207e-08
2.59972e-07
2.23198e-08
2.60089e-07
2.13988e-08
2.60192e-07
2.05452e-08
2.60282e-07
1.97492e-08
2.60359e-07
1.90029e-08
2.60424e-07
1.82997e-08
2.60475e-07
1.76341e-08
2.60514e-07
1.70015e-08
2.6054e-07
1.63977e-08
2.60553e-07
1.58189e-08
2.60553e-07
1.52616e-08
2.60542e-07
1.47225e-08
2.60519e-07
1.41987e-08
2.60484e-07
1.3687e-08
2.60439e-07
1.31845e-08
2.60384e-07
1.26883e-08
2.6032e-07
1.21952e-08
2.60248e-07
1.17021e-08
2.60169e-07
1.12054e-08
2.60085e-07
1.07021e-08
2.59996e-07
1.01868e-08
2.59904e-07
9.65733e-09
2.5981e-07
9.10581e-09
2.59716e-07
8.53089e-09
2.59624e-07
7.92128e-09
2.59537e-07
7.27671e-09
2.59454e-07
6.5828e-09
2.5938e-07
5.83692e-09
2.59315e-07
5.02912e-09
2.59263e-07
4.13862e-09
2.59225e-07
3.18652e-09
2.59198e-07
2.09176e-09
2.59195e-07
9.65571e-10
2.59173e-07
-3.82493e-10
2.59169e-07
-1.66362e-09
-2.95465e-09
2.59104e-07
2.58766e-07
4.86181e-08
2.61828e-07
6.77655e-08
2.63113e-07
5.22789e-08
2.642e-07
4.47946e-08
2.64941e-07
4.16789e-08
2.65372e-07
3.79875e-08
2.65709e-07
3.45635e-08
2.66013e-07
3.20322e-08
2.66274e-07
3.00452e-08
2.66499e-07
2.83221e-08
2.66697e-07
2.67984e-08
2.66877e-07
2.5453e-08
2.67041e-07
2.4254e-08
2.6719e-07
2.31711e-08
2.67328e-07
2.21823e-08
2.67455e-07
2.1272e-08
2.67572e-07
2.04281e-08
2.6768e-07
1.9641e-08
2.6778e-07
1.8903e-08
2.67872e-07
1.82078e-08
2.67956e-07
1.755e-08
2.68032e-07
1.6925e-08
2.68101e-07
1.63286e-08
2.68163e-07
1.57572e-08
2.68217e-07
1.52072e-08
2.68264e-07
1.46754e-08
2.68305e-07
1.41585e-08
2.68338e-07
1.36537e-08
2.68365e-07
1.31577e-08
2.68386e-07
1.26676e-08
2.68401e-07
1.21801e-08
2.6841e-07
1.16922e-08
2.68416e-07
1.12e-08
2.68417e-07
1.07005e-08
2.68416e-07
1.01883e-08
2.68412e-07
9.66078e-09
2.68408e-07
9.11054e-09
2.68403e-07
8.53525e-09
2.684e-07
7.92488e-09
2.68399e-07
7.27705e-09
2.68402e-07
6.58018e-09
2.68411e-07
5.82781e-09
2.68426e-07
5.01432e-09
2.68449e-07
4.11523e-09
2.68483e-07
3.15294e-09
2.68521e-07
2.05394e-09
2.68575e-07
9.11352e-10
2.68608e-07
-4.15096e-10
2.68647e-07
-1.70285e-09
-2.95259e-09
2.68645e-07
2.66278e-07
4.4332e-08
2.69347e-07
6.4697e-08
2.7061e-07
5.10161e-08
2.71684e-07
4.37199e-08
2.72458e-07
4.09051e-08
2.72912e-07
3.75333e-08
2.73257e-07
3.42188e-08
2.73566e-07
3.17232e-08
2.73833e-07
2.9778e-08
2.74062e-07
2.80933e-08
2.74264e-07
2.65967e-08
2.74446e-07
2.52711e-08
2.74611e-07
2.40885e-08
2.74763e-07
2.30195e-08
2.74903e-07
2.20424e-08
2.75032e-07
2.1142e-08
2.75154e-07
2.03066e-08
2.75268e-07
1.95268e-08
2.75376e-07
1.87953e-08
2.75478e-07
1.81058e-08
2.75575e-07
1.74531e-08
2.75667e-07
1.68329e-08
2.75754e-07
1.62411e-08
2.75838e-07
1.56739e-08
2.75917e-07
1.5128e-08
2.75992e-07
1.46001e-08
2.76064e-07
1.4087e-08
2.76132e-07
1.35857e-08
2.76196e-07
1.3093e-08
2.76258e-07
1.2606e-08
2.76317e-07
1.21214e-08
2.76373e-07
1.1636e-08
2.76427e-07
1.11459e-08
2.7648e-07
1.06479e-08
2.76531e-07
1.01368e-08
2.76582e-07
9.60963e-09
2.76634e-07
9.05935e-09
2.76686e-07
8.48278e-09
2.7674e-07
7.87103e-09
2.76797e-07
7.21993e-09
2.76857e-07
6.52018e-09
2.76922e-07
5.76252e-09
2.76992e-07
4.94425e-09
2.77068e-07
4.03923e-09
2.77152e-07
3.06886e-09
2.77237e-07
1.96923e-09
2.77333e-07
8.15659e-10
2.77408e-07
-4.89981e-10
2.77483e-07
-1.77792e-09
-3.00303e-09
2.77533e-07
2.74033e-07
4.03401e-08
2.77098e-07
6.16323e-08
2.78348e-07
4.97658e-08
2.79407e-07
4.26607e-08
2.8021e-07
4.01026e-08
2.80688e-07
3.70547e-08
2.81042e-07
3.38656e-08
2.81356e-07
3.14085e-08
2.8163e-07
2.95046e-08
2.81863e-07
2.78598e-08
2.82068e-07
2.63919e-08
2.82252e-07
2.50871e-08
2.82419e-07
2.39213e-08
2.82572e-07
2.28665e-08
2.82713e-07
2.19013e-08
2.82845e-07
2.10108e-08
2.82967e-07
2.01836e-08
2.83083e-07
1.94108e-08
2.83194e-07
1.86851e-08
2.83299e-07
1.80005e-08
2.834e-07
1.7352e-08
2.83498e-07
1.67354e-08
2.83592e-07
1.61467e-08
2.83684e-07
1.55823e-08
2.83773e-07
1.50388e-08
2.8386e-07
1.4513e-08
2.83945e-07
1.40018e-08
2.84029e-07
1.35021e-08
2.84111e-07
1.30108e-08
2.84192e-07
1.2525e-08
2.84272e-07
1.20412e-08
2.84352e-07
1.15563e-08
2.84431e-07
1.10665e-08
2.84511e-07
1.05683e-08
2.84591e-07
1.00568e-08
2.84672e-07
9.52843e-09
2.84755e-07
8.97677e-09
2.8484e-07
8.39785e-09
2.84927e-07
7.78375e-09
2.85018e-07
7.12889e-09
2.85112e-07
6.42572e-09
2.85212e-07
5.66311e-09
2.85316e-07
4.83997e-09
2.85425e-07
3.93035e-09
2.85541e-07
2.95294e-09
2.85656e-07
1.85422e-09
2.85778e-07
6.93208e-10
2.85883e-07
-5.94532e-10
2.85985e-07
-1.88013e-09
-3.09471e-09
2.86077e-07
2.8204e-07
3.66376e-08
2.8509e-07
5.85823e-08
2.86337e-07
4.85182e-08
2.87378e-07
4.16199e-08
2.88205e-07
3.9276e-08
2.88709e-07
3.65503e-08
2.89072e-07
3.35029e-08
2.89392e-07
3.10881e-08
2.89672e-07
2.92251e-08
2.8991e-07
2.76214e-08
2.90119e-07
2.61838e-08
2.90305e-07
2.49006e-08
2.90474e-07
2.37522e-08
2.90629e-07
2.2712e-08
2.90771e-07
2.17591e-08
2.90903e-07
2.08788e-08
2.91027e-07
2.006e-08
2.91143e-07
1.92941e-08
2.91254e-07
1.8574e-08
2.91361e-07
1.78942e-08
2.91463e-07
1.72496e-08
2.91562e-07
1.66362e-08
2.91659e-07
1.605e-08
2.91753e-07
1.54878e-08
2.91846e-07
1.4946e-08
2.91938e-07
1.44216e-08
2.92028e-07
1.39114e-08
2.92118e-07
1.34124e-08
2.92207e-07
1.29215e-08
2.92296e-07
1.24357e-08
2.92386e-07
1.19517e-08
2.92476e-07
1.14662e-08
2.92567e-07
1.09755e-08
2.92659e-07
1.0476e-08
2.92753e-07
9.96296e-09
2.92849e-07
9.43246e-09
2.92947e-07
8.87846e-09
2.93049e-07
8.29636e-09
2.93153e-07
7.6791e-09
2.93262e-07
7.02001e-09
2.93375e-07
6.3128e-09
2.93493e-07
5.54528e-09
2.93616e-07
4.71697e-09
2.93743e-07
3.80329e-09
2.93877e-07
2.81939e-09
2.94009e-07
1.72185e-09
2.94147e-07
5.5565e-10
2.9427e-07
-7.18129e-10
2.94392e-07
-2.00158e-09
-3.21756e-09
2.94515e-07
2.90308e-07
3.32181e-08
2.93332e-07
5.55582e-08
2.94586e-07
4.72648e-08
2.95606e-07
4.05995e-08
2.96452e-07
3.84302e-08
2.96983e-07
3.60191e-08
2.97357e-07
3.31293e-08
2.97683e-07
3.07622e-08
2.97969e-07
2.89392e-08
2.98212e-07
2.73777e-08
2.98424e-07
2.59719e-08
2.98613e-07
2.47114e-08
2.98785e-07
2.3581e-08
2.98941e-07
2.2556e-08
2.99084e-07
2.16157e-08
2.99217e-07
2.07458e-08
2.99341e-07
1.99356e-08
2.99459e-07
1.91768e-08
2.9957e-07
1.84626e-08
2.99677e-07
1.77874e-08
2.9978e-07
1.71467e-08
2.99879e-07
1.65364e-08
2.99977e-07
1.59528e-08
3.00072e-07
1.53924e-08
3.00166e-07
1.48521e-08
3.00259e-07
1.43287e-08
3.00351e-07
1.38192e-08
3.00443e-07
1.33204e-08
3.00535e-07
1.28295e-08
3.00627e-07
1.23433e-08
3.0072e-07
1.18585e-08
3.00815e-07
1.1372e-08
3.0091e-07
1.08798e-08
3.01008e-07
1.03785e-08
3.01108e-07
9.86325e-09
3.0121e-07
9.33005e-09
3.01315e-07
8.77313e-09
3.01424e-07
8.18742e-09
3.01537e-07
7.56646e-09
3.01654e-07
6.90289e-09
3.01776e-07
6.19119e-09
3.01902e-07
5.41878e-09
3.02034e-07
4.58509e-09
3.0217e-07
3.66758e-09
3.02312e-07
2.67761e-09
3.02453e-07
1.58091e-09
3.02597e-07
4.10897e-10
3.02732e-07
-8.5309e-10
3.02867e-07
-2.13626e-09
-3.36358e-09
3.03013e-07
2.98847e-07
3.00735e-08
3.01834e-07
5.25711e-08
3.03102e-07
4.59975e-08
3.041e-07
3.96008e-08
3.0496e-07
3.75705e-08
3.05519e-07
3.54604e-08
3.05905e-07
3.27435e-08
3.06236e-07
3.04306e-08
3.06528e-07
2.86472e-08
3.06778e-07
2.71283e-08
3.06993e-07
2.57561e-08
3.07185e-07
2.45194e-08
3.07359e-07
2.34076e-08
3.07517e-07
2.23981e-08
3.07661e-07
2.14709e-08
3.07795e-07
2.06118e-08
3.07921e-07
1.98104e-08
3.08038e-07
1.90589e-08
3.0815e-07
1.83506e-08
3.08258e-07
1.76803e-08
3.08361e-07
1.70435e-08
3.08461e-07
1.64363e-08
3.08558e-07
1.58552e-08
3.08654e-07
1.52968e-08
3.08748e-07
1.47579e-08
3.08842e-07
1.42354e-08
3.08934e-07
1.37264e-08
3.09027e-07
1.32278e-08
3.0912e-07
1.27367e-08
3.09213e-07
1.22498e-08
3.09308e-07
1.17641e-08
3.09403e-07
1.12763e-08
3.09501e-07
1.07824e-08
3.096e-07
1.0279e-08
3.09702e-07
9.76132e-09
3.09807e-07
9.22519e-09
3.09915e-07
8.66509e-09
3.10027e-07
8.07558e-09
3.10143e-07
7.45068e-09
3.10263e-07
6.78257e-09
3.10388e-07
6.06618e-09
3.10518e-07
5.28899e-09
3.10653e-07
4.44988e-09
3.10792e-07
3.52866e-09
3.10936e-07
2.53312e-09
3.11081e-07
1.43667e-09
3.11228e-07
2.63656e-10
3.11369e-07
-9.94485e-10
3.11513e-07
-2.28013e-09
-3.52689e-09
3.11677e-07
3.07667e-07
2.71938e-08
3.10606e-07
4.96324e-08
3.11894e-07
4.47095e-08
3.1287e-07
3.86243e-08
3.13738e-07
3.67022e-08
3.14324e-07
3.48745e-08
3.14724e-07
3.23437e-08
3.15062e-07
3.00932e-08
3.1536e-07
2.83489e-08
3.15615e-07
2.68729e-08
3.15835e-07
2.5536e-08
3.1603e-07
2.43244e-08
3.16206e-07
2.32317e-08
3.16366e-07
2.22383e-08
3.16512e-07
2.13246e-08
3.16648e-07
2.04765e-08
3.16774e-07
1.96843e-08
3.16892e-07
1.89402e-08
3.17005e-07
1.82381e-08
3.17112e-07
1.75727e-08
3.17216e-07
1.694e-08
3.17316e-07
1.6336e-08
3.17414e-07
1.57574e-08
3.1751e-07
1.52009e-08
3.17604e-07
1.46634e-08
3.17698e-07
1.41419e-08
3.17791e-07
1.36334e-08
3.17884e-07
1.3135e-08
3.17977e-07
1.26435e-08
3.18071e-07
1.2156e-08
3.18166e-07
1.16693e-08
3.18262e-07
1.118e-08
3.1836e-07
1.06844e-08
3.1846e-07
1.01788e-08
3.18563e-07
9.65868e-09
3.18668e-07
9.11956e-09
3.18777e-07
8.5562e-09
3.1889e-07
7.9629e-09
3.19007e-07
7.334e-09
3.19128e-07
6.66146e-09
3.19253e-07
5.94035e-09
3.19384e-07
5.15858e-09
3.1952e-07
4.31422e-09
3.19659e-07
3.38941e-09
3.19803e-07
2.38883e-09
3.19948e-07
1.292e-09
3.20095e-07
1.16425e-10
3.2024e-07
-1.13936e-09
3.2039e-07
-2.4306e-09
-3.70319e-09
3.20567e-07
3.16777e-07
2.4568e-08
3.19656e-07
4.67531e-08
3.20971e-07
4.33953e-08
3.21925e-07
3.76696e-08
3.22797e-07
3.58301e-08
3.2341e-07
3.4262e-08
3.23825e-07
3.19287e-08
3.24168e-07
2.97496e-08
3.24473e-07
2.80445e-08
3.24734e-07
2.66114e-08
3.24959e-07
2.53112e-08
3.25158e-07
2.41259e-08
3.25336e-07
2.30532e-08
3.25498e-07
2.20764e-08
3.25646e-07
2.11765e-08
3.25783e-07
2.034e-08
3.2591e-07
1.95571e-08
3.26029e-07
1.88207e-08
3.26142e-07
1.81249e-08
3.26251e-07
1.74646e-08
3.26355e-07
1.68359e-08
3.26455e-07
1.62352e-08
3.26554e-07
1.56592e-08
3.2665e-07
1.51047e-08
3.26744e-07
1.45687e-08
3.26838e-07
1.40482e-08
3.26931e-07
1.35402e-08
3.27024e-07
1.30419e-08
3.27118e-07
1.25501e-08
3.27212e-07
1.2062e-08
3.27307e-07
1.15743e-08
3.27403e-07
1.10836e-08
3.27501e-07
1.05863e-08
3.27602e-07
1.00785e-08
3.27705e-07
9.55588e-09
3.2781e-07
9.01381e-09
3.27919e-07
8.44723e-09
3.28032e-07
7.85025e-09
3.28149e-07
7.21739e-09
3.28269e-07
6.5406e-09
3.28395e-07
5.81491e-09
3.28525e-07
5.02881e-09
3.28659e-07
4.17948e-09
3.28797e-07
3.25125e-09
3.2894e-07
2.24622e-09
3.29084e-07
1.14843e-09
3.2923e-07
-2.95306e-11
3.29376e-07
-1.28593e-09
3.29531e-07
-2.58583e-09
-3.88912e-09
3.29717e-07
3.26187e-07
2.21834e-08
3.28996e-07
4.39441e-08
3.30341e-07
4.20506e-08
3.31275e-07
3.67356e-08
3.32146e-07
3.49592e-08
3.32783e-07
3.36246e-08
3.33215e-07
3.14968e-08
3.33566e-07
2.93993e-08
3.33876e-07
2.77342e-08
3.34144e-07
2.63435e-08
3.34374e-07
2.50814e-08
3.34576e-07
2.39238e-08
3.34757e-07
2.28719e-08
3.34921e-07
2.19121e-08
3.35071e-07
2.10266e-08
3.3521e-07
2.02018e-08
3.35338e-07
1.94287e-08
3.35458e-07
1.87002e-08
3.35573e-07
1.80108e-08
3.35681e-07
1.73558e-08
3.35786e-07
1.67313e-08
3.35887e-07
1.6134e-08
3.35986e-07
1.55606e-08
3.36082e-07
1.50082e-08
3.36177e-07
1.44737e-08
3.36271e-07
1.39542e-08
3.36365e-07
1.34468e-08
3.36458e-07
1.29486e-08
3.36552e-07