/*--------------------------------*- C++ -*----------------------------------*\
  =========                 |
  \\      /  F ield         | OpenFOAM: The Open Source CFD Toolbox
   \\    /   O peration     | Website:  https://openfoam.org
    \\  /    A nd           | Version:  7
     \\/     M anipulation  |
\*---------------------------------------------------------------------------*/
FoamFile
{
    version     2.0;
    format      ascii;
    class       surfaceScalarField;
    location    "0.41";
    object      phi_0;
}
// * * * * * * * * * * * * * * * * * * * * * * * * * * * * * * * * * * * * * //

dimensions      [0 3 -1 0 0 0 0];

internalField   nonuniform List<scalar> 
139350
(
6.45127e-08
9.21188e-08
3.19661e-08
3.25466e-08
2.30613e-08
8.90477e-09
1.95767e-08
3.48464e-09
1.76246e-08
1.95211e-09
1.61939e-08
1.43064e-09
1.50604e-08
1.13353e-09
1.41474e-08
9.1301e-10
1.33963e-08
7.51109e-10
1.27638e-08
6.32498e-10
1.22211e-08
5.42658e-10
1.1749e-08
4.72135e-10
1.13337e-08
4.15332e-10
1.09649e-08
3.68723e-10
1.0635e-08
3.29899e-10
1.03379e-08
2.97136e-10
1.00687e-08
2.6916e-10
9.82372e-09
2.45024e-10
9.59972e-09
2.23999e-10
9.39419e-09
2.05526e-10
9.20503e-09
1.89163e-10
9.03047e-09
1.74555e-10
8.86905e-09
1.61419e-10
8.71954e-09
1.49519e-10
8.58088e-09
1.38659e-10
8.4522e-09
1.28675e-10
8.33278e-09
1.19422e-10
8.222e-09
1.1078e-10
8.11937e-09
1.02634e-10
8.02447e-09
9.48932e-11
7.93702e-09
8.7452e-11
7.85677e-09
8.02471e-11
7.78361e-09
7.31638e-11
7.71744e-09
6.61711e-11
7.65832e-09
5.9123e-11
7.60629e-09
5.20264e-11
7.56159e-09
4.47003e-11
7.52443e-09
3.7154e-11
7.49516e-09
2.92735e-11
7.47435e-09
2.0813e-11
7.46207e-09
1.2276e-11
7.46e-09
2.06928e-12
7.46659e-09
-6.58851e-12
7.48719e-09
-2.05975e-11
7.51383e-09
-2.66368e-11
7.56478e-09
-5.09582e-11
7.60632e-09
-4.15405e-11
7.72721e-09
-1.2089e-10
7.58916e-09
1.38051e-10
-3.63393e-09
1.12231e-08
1.25944e-07
1.27618e-07
9.12923e-08
6.71984e-08
7.19409e-08
2.82562e-08
6.12258e-08
1.41997e-08
5.47889e-08
8.38899e-09
5.02927e-08
5.92684e-09
4.68065e-08
4.61976e-09
4.39913e-08
3.72821e-09
4.16666e-08
3.07582e-09
3.9707e-08
2.59205e-09
3.80255e-08
2.22417e-09
3.65621e-08
1.93559e-09
3.5274e-08
1.70336e-09
3.41299e-08
1.51287e-09
3.31056e-08
1.35421e-09
3.21824e-08
1.22032e-09
3.13455e-08
1.10601e-09
3.05832e-08
1.0074e-09
2.98856e-08
9.21527e-10
2.92451e-08
8.46112e-10
2.86549e-08
7.7935e-10
2.81096e-08
7.19803e-10
2.76047e-08
6.6631e-10
2.71363e-08
6.17915e-10
2.67012e-08
5.7382e-10
2.62965e-08
5.33358e-10
2.592e-08
4.95949e-10
2.55696e-08
4.61099e-10
2.52439e-08
4.28355e-10
2.49415e-08
3.97336e-10
2.46613e-08
3.67648e-10
2.44025e-08
3.39001e-10
2.41647e-08
3.10982e-10
2.39475e-08
2.83411e-10
2.37508e-08
2.55752e-10
2.35749e-08
2.28012e-10
2.34202e-08
1.9937e-10
2.32872e-08
1.70162e-10
2.31773e-08
1.39108e-10
2.30912e-08
1.06917e-10
2.30315e-08
7.2046e-11
2.29988e-08
3.47215e-11
2.29969e-08
-4.66989e-12
2.30278e-08
-5.15012e-11
2.30934e-08
-9.21978e-11
2.32058e-08
-1.63401e-10
2.33392e-08
-1.74955e-10
2.36201e-08
-4.01812e-10
2.36832e-08
7.50207e-11
-4.77674e-09
2.4826e-08
1.58753e-07
1.35269e-07
1.3653e-07
8.94217e-08
1.17499e-07
4.72874e-08
1.03323e-07
2.83755e-08
9.33293e-08
1.83824e-08
8.6029e-08
1.32272e-08
8.03211e-08
1.03276e-08
7.56699e-08
8.37949e-09
7.1793e-08
6.95264e-09
6.85032e-08
5.88185e-09
6.56672e-08
5.06023e-09
6.31902e-08
4.41259e-09
6.10037e-08
3.88983e-09
5.90566e-08
3.45995e-09
5.73097e-08
3.10112e-09
5.57323e-08
2.79776e-09
5.42999e-08
2.53837e-09
5.2993e-08
2.31434e-09
5.17954e-08
2.11909e-09
5.0694e-08
1.94749e-09
4.96779e-08
1.79552e-09
4.87377e-08
1.65995e-09
4.78658e-08
1.53818e-09
4.70557e-08
1.42805e-09
4.63017e-08
1.32778e-09
4.55992e-08
1.23586e-09
4.49442e-08
1.151e-09
4.43332e-08
1.07207e-09
4.37635e-08
9.98081e-10
4.32327e-08
9.28162e-10
4.27389e-08
8.61463e-10
4.22806e-08
7.973e-10
4.18567e-08
7.34814e-10
4.14666e-08
6.73546e-10
4.111e-08
6.12371e-10
4.07867e-08
5.51274e-10
4.04977e-08
4.88384e-10
4.02432e-08
4.2469e-10
4.00256e-08
3.56671e-10
3.98451e-08
2.8738e-10
3.97069e-08
2.10282e-10
3.96098e-08
1.31779e-10
3.95636e-08
4.15372e-11
3.95646e-08
-5.24365e-11
3.96279e-08
-1.55568e-10
3.97521e-08
-2.87553e-10
3.99368e-08
-3.59619e-10
4.02765e-08
-7.41513e-10
4.06121e-08
-2.60666e-10
-5.05749e-09
4.08929e-08
1.75612e-07
1.31173e-07
1.65626e-07
9.94075e-08
1.5274e-07
6.01732e-08
1.40133e-07
4.09825e-08
1.29454e-07
2.90616e-08
1.20815e-07
2.18659e-08
1.13703e-07
1.744e-08
1.07722e-07
1.43603e-08
1.02623e-07
1.20517e-08
9.82233e-08
1.02815e-08
9.43834e-08
8.90011e-09
9.09978e-08
7.79817e-09
8.79868e-08
6.90089e-09
8.52888e-08
6.15794e-09
8.28556e-08
5.53427e-09
8.06489e-08
5.00452e-09
7.86374e-08
4.54979e-09
7.6796e-08
4.15579e-09
7.51036e-08
3.81145e-09
7.3543e-08
3.50816e-09
7.20994e-08
3.23906e-09
7.07607e-08
2.99867e-09
6.95164e-08
2.7825e-09
6.83576e-08
2.58686e-09
6.72767e-08
2.40866e-09
6.62673e-08
2.24531e-09
6.53237e-08
2.09455e-09
6.44413e-08
1.95445e-09
6.36161e-08
1.82329e-09
6.28447e-08
1.69955e-09
6.21244e-08
1.58179e-09
6.14529e-08
1.46879e-09
6.08286e-08
1.35912e-09
6.02502e-08
1.25194e-09
5.97172e-08
1.14538e-09
5.92291e-08
1.03937e-09
5.87868e-08
9.30722e-10
5.83902e-08
8.21231e-10
5.80424e-08
7.04498e-10
5.77431e-08
5.86657e-10
5.74989e-08
4.54528e-10
5.73077e-08
3.22954e-10
5.71824e-08
1.66828e-10
5.71168e-08
1.31407e-11
5.71327e-08
-1.71445e-10
5.72227e-08
-3.77566e-10
5.74021e-08
-5.38993e-10
5.77288e-08
-1.06827e-09
5.81935e-08
-7.25332e-10
-5.15503e-09
5.82911e-08
1.8451e-07
1.23448e-07
1.82343e-07
1.01575e-07
1.76125e-07
6.63905e-08
1.6777e-07
4.93374e-08
1.59153e-07
3.76792e-08
1.51248e-07
2.97706e-08
1.44176e-07
2.45123e-08
1.37876e-07
2.06602e-08
1.32276e-07
1.76514e-08
1.27293e-07
1.52648e-08
1.22841e-07
1.33524e-08
1.18843e-07
1.17958e-08
1.15236e-07
1.05082e-08
1.11965e-07
9.42862e-09
1.08986e-07
8.51293e-09
1.06263e-07
7.72844e-09
1.03762e-07
7.05018e-09
1.01459e-07
6.4589e-09
9.9331e-08
5.93948e-09
9.73592e-08
5.47995e-09
9.55276e-08
5.0707e-09
9.38224e-08
4.70392e-09
9.22316e-08
4.37323e-09
9.07452e-08
4.07329e-09
8.93543e-08
3.79961e-09
8.80512e-08
3.5484e-09
8.68293e-08
3.31637e-09
8.56831e-08
3.10066e-09
8.46077e-08
2.89874e-09
8.35989e-08
2.70834e-09
8.26534e-08
2.52734e-09
8.17682e-08
2.35394e-09
8.09413e-08
2.18603e-09
8.01709e-08
2.02233e-09
7.94561e-08
1.86015e-09
7.87962e-08
1.6993e-09
7.81918e-08
1.53515e-09
7.76427e-08
1.3703e-09
7.71519e-08
1.19529e-09
7.67192e-08
1.01939e-09
7.63512e-08
8.22481e-10
7.60462e-08
6.27984e-10
7.58174e-08
3.9566e-10
7.5659e-08
1.71477e-10
7.55932e-08
-1.05559e-10
7.56144e-08
-3.98792e-10
7.57405e-08
-6.65101e-10
7.60116e-08
-1.33942e-09
7.64721e-08
-1.18583e-09
-5.19144e-09
7.65086e-08
1.90343e-07
1.15321e-07
1.91861e-07
1.00057e-07
1.90266e-07
6.79847e-08
1.86164e-07
5.34398e-08
1.80728e-07
4.31155e-08
1.74978e-07
3.55206e-08
1.69282e-07
3.02082e-08
1.63798e-07
2.61443e-08
1.58623e-07
2.28262e-08
1.538e-07
2.00878e-08
1.49332e-07
1.78203e-08
1.45203e-07
1.59247e-08
1.41389e-07
1.4322e-08
1.37865e-07
1.29533e-08
1.34603e-07
1.17746e-08
1.3158e-07
1.07516e-08
1.28773e-07
9.85733e-09
1.26161e-07
9.07035e-09
1.23727e-07
8.37338e-09
1.21455e-07
7.75241e-09
1.19329e-07
7.196e-09
1.17339e-07
6.69468e-09
1.15471e-07
6.24058e-09
1.13718e-07
5.82706e-09
1.12069e-07
5.44846e-09
1.10517e-07
5.09994e-09
1.09056e-07
4.77727e-09
1.0768e-07
4.47673e-09
1.06384e-07
4.19504e-09
1.05163e-07
3.9292e-09
1.04014e-07
3.67644e-09
1.02934e-07
3.43432e-09
1.0192e-07
3.20011e-09
1.0097e-07
2.97202e-09
1.00083e-07
2.74656e-09
9.92594e-08
2.52335e-09
9.84981e-08
2.29639e-09
9.77996e-08
2.06888e-09
9.71663e-08
1.82857e-09
9.65984e-08
1.5873e-09
9.61019e-08
1.31889e-09
9.56762e-08
1.05369e-09
9.53328e-08
7.39121e-10
9.50691e-08
4.35178e-10
9.49022e-08
6.135e-11
9.48346e-08
-3.31206e-10
9.48768e-08
-7.07337e-10
9.50641e-08
-1.52674e-09
9.5455e-08
-1.57664e-09
-5.14868e-09
9.54122e-08
1.95505e-07
1.07631e-07
1.98248e-07
9.73134e-08
1.98989e-07
6.72442e-08
1.97797e-07
5.46314e-08
1.95166e-07
4.57471e-08
1.91828e-07
3.88581e-08
1.88098e-07
3.39388e-08
1.84147e-07
3.00951e-08
1.80127e-07
2.68465e-08
1.76148e-07
2.40669e-08
1.72278e-07
2.16899e-08
1.68557e-07
1.96456e-08
1.65006e-07
1.78734e-08
1.61632e-07
1.63268e-08
1.58438e-07
1.49692e-08
1.55418e-07
1.37714e-08
1.52566e-07
1.27091e-08
1.49874e-07
1.17624e-08
1.47333e-07
1.09147e-08
1.44933e-07
1.0152e-08
1.42667e-07
9.46269e-09
1.40524e-07
8.83691e-09
1.38499e-07
8.26624e-09
1.36582e-07
7.74346e-09
1.34768e-07
7.26229e-09
1.33051e-07
6.81729e-09
1.31425e-07
6.40363e-09
1.29884e-07
6.017e-09
1.28426e-07
5.65355e-09
1.27045e-07
5.30975e-09
1.2574e-07
4.98226e-09
1.24506e-07
4.66815e-09
1.23342e-07
4.3641e-09
1.22246e-07
4.06791e-09
1.21217e-07
3.77535e-09
1.20255e-07
3.48578e-09
1.19359e-07
3.19207e-09
1.1853e-07
2.89772e-09
1.1777e-07
2.58824e-09
1.17081e-07
2.27712e-09
1.16466e-07
1.93376e-09
1.15927e-07
1.59268e-09
1.15472e-07
1.19361e-09
1.15104e-07
8.02982e-10
1.14833e-07
3.32829e-10
1.1467e-07
-1.68309e-10
1.14617e-07
-6.54362e-10
1.14703e-07
-1.61275e-09
1.14996e-07
-1.86997e-09
-5.01999e-09
1.14868e-07
2.0082e-07
1.00397e-07
2.03773e-07
9.436e-08
2.05349e-07
6.56688e-08
2.05652e-07
5.43278e-08
2.04824e-07
4.65748e-08
2.03348e-07
4.03349e-08
2.01402e-07
3.58847e-08
1.99072e-07
3.24252e-08
1.96464e-07
2.94536e-08
1.93683e-07
2.68481e-08
1.90809e-07
2.45643e-08
1.87902e-07
2.25524e-08
1.85008e-07
2.07678e-08
1.82158e-07
1.91764e-08
1.79376e-07
1.77516e-08
1.76675e-07
1.64716e-08
1.74067e-07
1.53178e-08
1.71555e-07
1.42745e-08
1.69142e-07
1.33278e-08
1.66827e-07
1.2466e-08
1.64611e-07
1.16788e-08
1.62491e-07
1.09573e-08
1.60464e-07
1.02935e-08
1.58526e-07
9.68069e-09
1.56676e-07
9.11266e-09
1.54909e-07
8.58395e-09
1.53223e-07
8.08965e-09
1.51615e-07
7.62529e-09
1.50082e-07
7.18677e-09
1.48621e-07
6.7703e-09
1.47231e-07
6.37223e-09
1.4591e-07
5.9893e-09
1.44657e-07
5.6178e-09
1.43469e-07
5.25518e-09
1.42348e-07
4.89667e-09
1.41292e-07
4.5414e-09
1.40303e-07
4.18133e-09
1.39381e-07
3.81999e-09
1.38528e-07
3.44137e-09
1.37745e-07
3.05958e-09
1.37038e-07
2.64149e-09
1.36407e-07
2.22282e-09
1.3586e-07
1.7406e-09
1.35403e-07
1.26011e-09
1.35039e-07
6.97054e-10
1.34787e-07
8.37249e-11
1.34643e-07
-5.10668e-10
1.34625e-07
-1.59424e-09
1.3481e-07
-2.05511e-09
-4.81584e-09
1.34606e-07
2.06423e-07
9.35055e-08
2.09333e-07
9.14501e-08
2.1106e-07
6.39421e-08
2.11943e-07
5.34448e-08
2.12009e-07
4.6509e-08
2.11626e-07
4.07173e-08
2.10899e-07
3.66121e-08
2.09829e-07
3.3495e-08
2.08455e-07
3.08273e-08
2.06836e-07
2.84672e-08
2.05028e-07
2.63727e-08
2.03079e-07
2.45009e-08
2.01034e-07
2.28134e-08
1.98927e-07
2.12827e-08
1.9679e-07
1.98889e-08
1.94646e-07
1.8616e-08
1.92513e-07
1.74506e-08
1.90406e-07
1.63812e-08
1.88336e-07
1.53977e-08
1.86311e-07
1.44909e-08
1.84337e-07
1.3653e-08
1.82418e-07
1.28766e-08
1.80556e-07
1.21553e-08
1.78754e-07
1.14832e-08
1.77011e-07
1.0855e-08
1.75329e-07
1.02657e-08
1.73708e-07
9.71086e-09
1.72147e-07
9.18617e-09
1.70646e-07
8.68768e-09
1.69205e-07
8.21166e-09
1.67823e-07
7.75442e-09
1.665e-07
7.31261e-09
1.65235e-07
6.88232e-09
1.64029e-07
6.46085e-09
1.62883e-07
6.04306e-09
1.61797e-07
5.62788e-09
1.60771e-07
5.20669e-09
1.59808e-07
4.78285e-09
1.5891e-07
4.3395e-09
1.58079e-07
3.89047e-09
1.57319e-07
3.40192e-09
1.56634e-07
2.90806e-09
1.56027e-07
2.3477e-09
1.55508e-07
1.77876e-09
1.55076e-07
1.12885e-09
1.54754e-07
4.062e-10
1.54536e-07
-2.93066e-10
1.54424e-07
-1.48255e-09
1.54504e-07
-2.13496e-09
-4.55352e-09
1.54242e-07
2.12269e-07
8.68985e-08
2.15142e-07
8.85776e-08
2.16815e-07
6.22692e-08
2.17857e-07
5.24022e-08
2.18268e-07
4.60979e-08
2.18388e-07
4.05975e-08
2.18315e-07
3.66856e-08
2.18016e-07
3.37936e-08
2.17486e-07
3.13573e-08
2.16743e-07
2.92099e-08
2.15812e-07
2.73041e-08
2.14717e-07
2.55957e-08
2.13485e-07
2.40454e-08
2.12141e-07
2.26263e-08
2.1071e-07
2.13199e-08
2.09214e-07
2.01127e-08
2.0767e-07
1.8994e-08
2.06097e-07
1.79549e-08
2.04507e-07
1.69876e-08
2.02912e-07
1.60856e-08
2.01322e-07
1.52427e-08
1.99746e-07
1.44535e-08
1.98188e-07
1.37129e-08
1.96655e-07
1.30163e-08
1.95151e-07
1.23592e-08
1.93679e-07
1.17377e-08
1.92242e-07
1.11478e-08
1.90842e-07
1.05858e-08
1.89482e-07
1.00482e-08
1.88162e-07
9.53131e-09
1.86885e-07
9.03181e-09
1.85651e-07
8.5464e-09
1.84462e-07
8.07119e-09
1.83319e-07
7.60345e-09
1.82224e-07
7.13787e-09
1.81179e-07
6.67326e-09
1.80185e-07
6.20071e-09
1.79245e-07
5.72324e-09
1.7836e-07
5.22378e-09
1.77536e-07
4.71514e-09
1.76773e-07
4.1643e-09
1.76079e-07
3.60191e-09
1.75455e-07
2.97188e-09
1.74913e-07
2.32072e-09
1.7445e-07
1.59271e-09
1.74086e-07
7.69557e-10
1.73821e-07
-2.8068e-11
1.7364e-07
-1.30114e-09
1.7363e-07
-2.12517e-09
-4.2545e-09
1.73331e-07
2.18315e-07
8.05641e-08
2.21191e-07
8.57016e-08
2.22787e-07
6.06728e-08
2.23859e-07
5.13312e-08
2.24378e-07
4.55783e-08
2.24676e-07
4.03001e-08
2.24878e-07
3.64827e-08
2.24958e-07
3.37139e-08
2.24894e-07
3.14215e-08
2.24686e-07
2.94178e-08
2.24339e-07
2.76513e-08
2.23859e-07
2.60759e-08
2.23255e-07
2.46495e-08
2.22539e-07
2.33424e-08
2.21723e-07
2.21351e-08
2.20823e-07
2.10135e-08
2.19849e-07
1.99671e-08
2.18817e-07
1.89876e-08
2.17736e-07
1.80683e-08
2.16618e-07
1.72034e-08
2.15473e-07
1.63882e-08
2.14308e-07
1.56181e-08
2.13132e-07
1.48892e-08
2.1195e-07
1.41977e-08
2.1077e-07
1.354e-08
2.09595e-07
1.29128e-08
2.0843e-07
1.23128e-08
2.07279e-07
1.17367e-08
2.06145e-07
1.11816e-08
2.05032e-07
1.06442e-08
2.03943e-07
1.01214e-08
2.02879e-07
9.60997e-09
2.01844e-07
9.10625e-09
2.0084e-07
8.60756e-09
1.99869e-07
8.10857e-09
1.98935e-07
7.608e-09
1.98039e-07
7.09687e-09
1.97184e-07
6.57776e-09
1.96374e-07
6.03391e-09
1.95612e-07
5.47654e-09
1.94902e-07
4.87465e-09
1.9425e-07
4.25391e-09
1.93656e-07
3.56556e-09
1.93135e-07
2.84254e-09
1.9268e-07
2.04759e-09
1.92312e-07
1.13767e-09
1.92032e-07
2.51514e-10
1.91812e-07
-1.08155e-09
1.91739e-07
-2.05144e-09
-3.94388e-09
1.91428e-07
2.24549e-07
7.45085e-08
2.27451e-07
8.27993e-08
2.28984e-07
5.91404e-08
2.30062e-07
5.0253e-08
2.30622e-07
4.50181e-08
2.30968e-07
3.99542e-08
2.3126e-07
3.61901e-08
2.31488e-07
3.3486e-08
2.31633e-07
3.12769e-08
2.31692e-07
2.93583e-08
2.31666e-07
2.76776e-08
2.31552e-07
2.61898e-08
2.3135e-07
2.48513e-08
2.31063e-07
2.36301e-08
2.30693e-07
2.25045e-08
2.30247e-07
2.14594e-08
2.29731e-07
2.0483e-08
2.29152e-07
1.95668e-08
2.28517e-07
1.87035e-08
2.27833e-07
1.78877e-08
2.27106e-07
1.71146e-08
2.26344e-07
1.63801e-08
2.25553e-07
1.56805e-08
2.24738e-07
1.50125e-08
2.23905e-07
1.43729e-08
2.23059e-07
1.37589e-08
2.22204e-07
1.31676e-08
2.21345e-07
1.2596e-08
2.20485e-07
1.20413e-08
2.19629e-07
1.15008e-08
2.18779e-07
1.09714e-08
2.17939e-07
1.04502e-08
2.17111e-07
9.93356e-09
2.163e-07
9.41893e-09
2.15507e-07
8.901e-09
2.14737e-07
8.37838e-09
2.13992e-07
7.84221e-09
2.13275e-07
7.2945e-09
2.1259e-07
6.71919e-09
2.11941e-07
6.1255e-09
2.1133e-07
5.48532e-09
2.10766e-07
4.81844e-09
2.10246e-07
4.08468e-09
2.09786e-07
3.30289e-09
2.0938e-07
2.45368e-09
2.09044e-07
1.47395e-09
2.08784e-07
5.11668e-10
2.0856e-07
-8.58178e-10
2.08454e-07
-1.94488e-09
-3.64827e-09
2.08158e-07
2.30975e-07
6.87397e-08
2.33912e-07
7.9862e-08
2.35388e-07
5.76649e-08
2.36474e-07
4.91664e-08
2.37067e-07
4.4425e-08
2.37428e-07
3.95933e-08
2.37743e-07
3.58757e-08
2.38016e-07
3.3212e-08
2.38237e-07
3.10567e-08
2.38405e-07
2.91895e-08
2.38525e-07
2.75583e-08
2.38593e-07
2.61219e-08
2.38607e-07
2.48372e-08
2.38566e-07
2.36713e-08
2.38469e-07
2.26014e-08
2.38317e-07
2.16113e-08
2.38111e-07
2.06885e-08
2.37855e-07
1.98233e-08
2.3755e-07
1.90084e-08
2.372e-07
1.82374e-08
2.36809e-07
1.75056e-08
2.36381e-07
1.68085e-08
2.35919e-07
1.61425e-08
2.35427e-07
1.55042e-08
2.34909e-07
1.48906e-08
2.3437e-07
1.42988e-08
2.33811e-07
1.37259e-08
2.33238e-07
1.31693e-08
2.32653e-07
1.26263e-08
2.3206e-07
1.20941e-08
2.31461e-07
1.15698e-08
2.30861e-07
1.10507e-08
2.30261e-07
1.05331e-08
2.29666e-07
1.00144e-08
2.29077e-07
9.48944e-09
2.28499e-07
8.95663e-09
2.27934e-07
8.40732e-09
2.27386e-07
7.84281e-09
2.26857e-07
7.24803e-09
2.26352e-07
6.62993e-09
2.25874e-07
5.96377e-09
2.25429e-07
5.26316e-09
2.25017e-07
4.49673e-09
2.2465e-07
3.67013e-09
2.24324e-07
2.77949e-09
2.2405e-07
1.74786e-09
2.23838e-07
7.23585e-10
2.23642e-07
-6.62414e-10
2.23534e-07
-1.83621e-09
-3.39215e-09
2.23278e-07
2.37601e-07
6.32634e-08
2.40578e-07
7.68854e-08
2.41996e-07
5.62465e-08
2.4309e-07
4.80724e-08
2.4372e-07
4.37952e-08
2.44094e-07
3.92194e-08
2.44414e-07
3.55559e-08
2.447e-07
3.29255e-08
2.44943e-07
3.08137e-08
2.45149e-07
2.89841e-08
2.45322e-07
2.73846e-08
2.45465e-07
2.59788e-08
2.45577e-07
2.47258e-08
2.45655e-07
2.35929e-08
2.457e-07
2.25569e-08
2.45709e-07
2.16014e-08
2.45685e-07
2.07134e-08
2.45625e-07
1.98831e-08
2.45531e-07
1.91024e-08
2.45403e-07
1.83648e-08
2.45244e-07
1.7665e-08
2.45054e-07
1.69985e-08
2.44835e-07
1.63613e-08
2.4459e-07
1.57499e-08
2.44319e-07
1.51611e-08
2.44026e-07
1.45918e-08
2.43713e-07
1.40393e-08
2.43381e-07
1.35007e-08
2.43034e-07
1.29733e-08
2.42674e-07
1.24543e-08
2.42303e-07
1.19408e-08
2.41924e-07
1.143e-08
2.41538e-07
1.09182e-08
2.4115e-07
1.04029e-08
2.40761e-07
9.87862e-09
2.40374e-07
9.34377e-09
2.39991e-07
8.78989e-09
2.39616e-07
8.21744e-09
2.39252e-07
7.61255e-09
2.38902e-07
6.97972e-09
2.38568e-07
6.29778e-09
2.38257e-07
5.57429e-09
2.37968e-07
4.78617e-09
2.3771e-07
3.92772e-09
2.37482e-07
3.00718e-09
2.3729e-07
1.94037e-09
2.37145e-07
8.68332e-10
2.37e-07
-5.17234e-10
2.36914e-07
-1.75054e-09
-3.19402e-09
2.36716e-07
2.44436e-07
5.80833e-08
2.47451e-07
7.38703e-08
2.48815e-07
5.48834e-08
2.49911e-07
4.69757e-08
2.5058e-07
4.31268e-08
2.5097e-07
3.88289e-08
2.51295e-07
3.52314e-08
2.51587e-07
3.26334e-08
2.51837e-07
3.0563e-08
2.52053e-07
2.87679e-08
2.52244e-07
2.71939e-08
2.52413e-07
2.581e-08
2.52561e-07
2.45779e-08
2.52688e-07
2.34655e-08
2.52795e-07
2.24502e-08
2.52881e-07
2.15154e-08
2.52946e-07
2.06485e-08
2.5299e-07
1.98395e-08
2.53012e-07
1.90803e-08
2.53012e-07
1.83641e-08
2.52992e-07
1.76857e-08
2.5295e-07
1.70402e-08
2.52888e-07
1.64236e-08
2.52805e-07
1.5832e-08
2.52704e-07
1.52623e-08
2.52585e-07
1.47111e-08
2.52449e-07
1.41755e-08
2.52297e-07
1.36526e-08
2.52131e-07
1.31396e-08
2.51951e-07
1.26335e-08
2.51761e-07
1.21313e-08
2.51561e-07
1.16303e-08
2.51352e-07
1.11264e-08
2.51138e-07
1.06172e-08
2.5092e-07
1.00972e-08
2.50699e-07
9.56441e-09
2.50478e-07
9.01071e-09
2.5026e-07
8.43565e-09
2.50046e-07
7.82661e-09
2.4984e-07
7.18562e-09
2.49643e-07
6.49503e-09
2.4946e-07
5.75685e-09
2.49291e-07
4.95523e-09
2.49143e-07
4.07555e-09
2.49016e-07
3.13427e-09
2.4891e-07
2.04618e-09
2.48839e-07
9.39225e-10
2.48756e-07
-4.34219e-10
2.4871e-07
-1.70384e-09
-3.06366e-09
2.48579e-07
2.51489e-07
5.32014e-08
2.54532e-07
7.08268e-08
2.55851e-07
5.35646e-08
2.56945e-07
4.58815e-08
2.57651e-07
4.24208e-08
2.58061e-07
3.84191e-08
2.58391e-07
3.49011e-08
2.58689e-07
3.2336e-08
2.58944e-07
3.03072e-08
2.59165e-07
2.85472e-08
2.59361e-07
2.69979e-08
2.59538e-07
2.56333e-08
2.59697e-07
2.44181e-08
2.59842e-07
2.33212e-08
2.59972e-07
2.23202e-08
2.60088e-07
2.13991e-08
2.60191e-07
2.05454e-08
2.60281e-07
1.97494e-08
2.60359e-07
1.9003e-08
2.60423e-07
1.82997e-08
2.60475e-07
1.76342e-08
2.60513e-07
1.70016e-08
2.60539e-07
1.63978e-08
2.60552e-07
1.58189e-08
2.60553e-07
1.52617e-08
2.60541e-07
1.47227e-08
2.60518e-07
1.41988e-08
2.60483e-07
1.36871e-08
2.60438e-07
1.31846e-08
2.60383e-07
1.26884e-08
2.60319e-07
1.21952e-08
2.60248e-07
1.17021e-08
2.60169e-07
1.12052e-08
2.60084e-07
1.07017e-08
2.59995e-07
1.01863e-08
2.59903e-07
9.65641e-09
2.59809e-07
9.10445e-09
2.59716e-07
8.52893e-09
2.59624e-07
7.91854e-09
2.59537e-07
7.27295e-09
2.59454e-07
6.57774e-09
2.59381e-07
5.83016e-09
2.59316e-07
5.0202e-09
2.59265e-07
4.12693e-09
2.59227e-07
3.17136e-09
2.59201e-07
2.07226e-09
2.592e-07
9.40822e-10
2.59179e-07
-4.13705e-10
2.59178e-07
-1.70219e-09
-3.00196e-09
2.59116e-07
2.58766e-07
4.86181e-08
2.61828e-07
6.77656e-08
2.63113e-07
5.22791e-08
2.642e-07
4.47949e-08
2.64941e-07
4.16793e-08
2.65372e-07
3.7988e-08
2.65709e-07
3.45641e-08
2.66012e-07
3.20329e-08
2.66274e-07
3.00459e-08
2.66498e-07
2.83228e-08
2.66697e-07
2.67991e-08
2.66877e-07
2.54536e-08
2.6704e-07
2.42546e-08
2.6719e-07
2.31716e-08
2.67327e-07
2.21828e-08
2.67454e-07
2.12724e-08
2.67571e-07
2.04283e-08
2.67679e-07
1.96412e-08
2.67779e-07
1.89032e-08
2.67871e-07
1.82079e-08
2.67955e-07
1.75501e-08
2.68032e-07
1.6925e-08
2.68101e-07
1.63287e-08
2.68162e-07
1.57573e-08
2.68217e-07
1.52073e-08
2.68264e-07
1.46755e-08
2.68304e-07
1.41587e-08
2.68337e-07
1.36538e-08
2.68364e-07
1.31578e-08
2.68385e-07
1.26677e-08
2.684e-07
1.21801e-08
2.6841e-07
1.16922e-08
2.68415e-07
1.11998e-08
2.68417e-07
1.07001e-08
2.68415e-07
1.01877e-08
2.68412e-07
9.65978e-09
2.68407e-07
9.10906e-09
2.68403e-07
8.53315e-09
2.684e-07
7.92196e-09
2.684e-07
7.27306e-09
2.68403e-07
6.57482e-09
2.68412e-07
5.82066e-09
2.68427e-07
5.00493e-09
2.68451e-07
4.10295e-09
2.68486e-07
3.13707e-09
2.68524e-07
2.03354e-09
2.6858e-07
8.85486e-10
2.68614e-07
-4.47715e-10
2.68655e-07
-1.74338e-09
-3.0028e-09
2.68656e-07
2.66278e-07
4.4332e-08
2.69347e-07
6.46971e-08
2.7061e-07
5.10163e-08
2.71684e-07
4.37202e-08
2.72458e-07
4.09055e-08
2.72912e-07
3.75339e-08
2.73257e-07
3.42194e-08
2.73566e-07
3.17239e-08
2.73833e-07
2.97787e-08
2.74062e-07
2.8094e-08
2.74263e-07
2.65975e-08
2.74445e-07
2.52719e-08
2.7461e-07
2.40892e-08
2.74762e-07
2.30201e-08
2.74902e-07
2.2043e-08
2.75032e-07
2.11424e-08
2.75153e-07
2.03069e-08
2.75267e-07
1.9527e-08
2.75375e-07
1.87954e-08
2.75477e-07
1.81059e-08
2.75574e-07
1.74532e-08
2.75666e-07
1.6833e-08
2.75754e-07
1.62411e-08
2.75837e-07
1.5674e-08
2.75916e-07
1.51281e-08
2.75991e-07
1.46002e-08
2.76063e-07
1.40871e-08
2.76131e-07
1.35858e-08
2.76196e-07
1.30931e-08
2.76257e-07
1.26061e-08
2.76316e-07
1.21214e-08
2.76372e-07
1.16359e-08
2.76426e-07
1.11456e-08
2.76479e-07
1.06474e-08
2.76531e-07
1.01361e-08
2.76582e-07
9.60855e-09
2.76633e-07
9.05776e-09
2.76686e-07
8.48053e-09
2.7674e-07
7.86791e-09
2.76797e-07
7.2157e-09
2.76857e-07
6.51451e-09
2.76923e-07
5.75501e-09
2.76994e-07
4.93439e-09
2.7707e-07
4.02638e-09
2.77155e-07
3.05229e-09
2.77241e-07
1.94799e-09
2.77337e-07
7.88732e-10
2.77414e-07
-5.23943e-10
2.7749e-07
-1.82029e-09
-3.05597e-09
2.77544e-07
2.74033e-07
4.03401e-08
2.77098e-07
6.16324e-08
2.78348e-07
4.9766e-08
2.79407e-07
4.2661e-08
2.8021e-07
4.01031e-08
2.80688e-07
3.70553e-08
2.81042e-07
3.38663e-08
2.81356e-07
3.14092e-08
2.81629e-07
2.95054e-08
2.81863e-07
2.78607e-08
2.82068e-07
2.63928e-08
2.82252e-07
2.50879e-08
2.82419e-07
2.3922e-08
2.82572e-07
2.28672e-08
2.82713e-07
2.19019e-08
2.82844e-07
2.10113e-08
2.82967e-07
2.0184e-08
2.83083e-07
1.9411e-08
2.83193e-07
1.86852e-08
2.83298e-07
1.80006e-08
2.83399e-07
1.73521e-08
2.83497e-07
1.67355e-08
2.83591e-07
1.61467e-08
2.83683e-07
1.55823e-08
2.83772e-07
1.50389e-08
2.83859e-07
1.45131e-08
2.83944e-07
1.40019e-08
2.84028e-07
1.35022e-08
2.8411e-07
1.30109e-08
2.84191e-07
1.2525e-08
2.84272e-07
1.20412e-08
2.84351e-07
1.15562e-08
2.84431e-07
1.10662e-08
2.8451e-07
1.05678e-08
2.8459e-07
1.0056e-08
2.84672e-07
9.52726e-09
2.84754e-07
8.97507e-09
2.84839e-07
8.39545e-09
2.84927e-07
7.78045e-09
2.85018e-07
7.12442e-09
2.85113e-07
6.41976e-09
2.85213e-07
5.65523e-09
2.85317e-07
4.82966e-09
2.85427e-07
3.91695e-09
2.85543e-07
2.9357e-09
2.85659e-07
1.83216e-09
2.85783e-07
6.65265e-10
2.85889e-07
-6.29786e-10
2.85993e-07
-1.92427e-09
-3.15024e-09
2.86087e-07
2.8204e-07
3.66376e-08
2.8509e-07
5.85824e-08
2.86337e-07
4.85185e-08
2.87378e-07
4.16202e-08
2.88205e-07
3.92765e-08
2.88709e-07
3.65509e-08
2.89072e-07
3.35036e-08
2.89392e-07
3.10889e-08
2.89672e-07
2.92259e-08
2.8991e-07
2.76223e-08
2.90118e-07
2.61847e-08
2.90305e-07
2.49015e-08
2.90474e-07
2.3753e-08
2.90628e-07
2.27128e-08
2.9077e-07
2.17598e-08
2.90902e-07
2.08793e-08
2.91026e-07
2.00604e-08
2.91142e-07
1.92943e-08
2.91253e-07
1.85742e-08
2.9136e-07
1.78943e-08
2.91462e-07
1.72497e-08
2.91561e-07
1.66362e-08
2.91658e-07
1.60501e-08
2.91753e-07
1.54879e-08
2.91845e-07
1.49461e-08
2.91937e-07
1.44217e-08
2.92027e-07
1.39115e-08
2.92117e-07
1.34125e-08
2.92206e-07
1.29216e-08
2.92296e-07
1.24357e-08
2.92385e-07
1.19516e-08
2.92475e-07
1.14661e-08
2.92566e-07
1.09752e-08
2.92659e-07
1.04755e-08
2.92752e-07
9.96212e-09
2.92849e-07
9.4312e-09
2.92947e-07
8.87664e-09
2.93049e-07
8.29382e-09
2.93153e-07
7.67562e-09
2.93262e-07
7.01532e-09
2.93376e-07
6.30655e-09
2.93494e-07
5.53704e-09
2.93617e-07
4.70623e-09
2.93745e-07
3.78936e-09
2.93879e-07
2.8015e-09
2.94012e-07
1.699e-09
2.94151e-07
5.26732e-10
2.94276e-07
-7.54625e-10
2.94399e-07
-2.04741e-09
-3.27552e-09
2.94524e-07
2.90308e-07
3.32182e-08
2.93332e-07
5.55583e-08
2.94586e-07
4.7265e-08
2.95606e-07
4.05998e-08
2.96452e-07
3.84307e-08
2.96983e-07
3.60197e-08
2.97357e-07
3.31301e-08
2.97683e-07
3.0763e-08
2.97968e-07
2.89402e-08
2.98212e-07
2.73786e-08
2.98424e-07
2.59729e-08
2.98613e-07
2.47124e-08
2.98784e-07
2.35819e-08
2.9894e-07
2.25568e-08
2.99083e-07
2.16164e-08
2.99216e-07
2.07464e-08
2.99341e-07
1.9936e-08
2.99458e-07
1.91771e-08
2.99569e-07
1.84628e-08
2.99676e-07
1.77876e-08
2.99779e-07
1.71468e-08
2.99879e-07
1.65365e-08
2.99976e-07
1.59528e-08
3.00071e-07
1.53925e-08
3.00165e-07
1.48522e-08
3.00258e-07
1.43288e-08
3.0035e-07
1.38193e-08
3.00442e-07
1.33205e-08
3.00534e-07
1.28296e-08
3.00626e-07
1.23433e-08
3.0072e-07
1.18585e-08
3.00814e-07
1.13718e-08
3.0091e-07
1.08795e-08
3.01007e-07
1.03779e-08
3.01107e-07
9.86235e-09
3.01209e-07
9.32871e-09
3.01315e-07
8.77121e-09
3.01424e-07
8.18474e-09
3.01537e-07
7.5628e-09
3.01654e-07
6.89797e-09
3.01776e-07
6.18466e-09
3.01903e-07
5.4102e-09
3.02035e-07
4.57392e-09
3.02171e-07
3.65314e-09
3.02314e-07
2.65911e-09
3.02456e-07
1.55732e-09
3.02601e-07
3.81046e-10
3.02737e-07
-8.90775e-10
3.02874e-07
-2.1837e-09
-3.4238e-09
3.03022e-07
2.98847e-07
3.00735e-08
3.01834e-07
5.25712e-08
3.03102e-07
4.59977e-08
3.041e-07
3.96012e-08
3.0496e-07
3.75711e-08
3.05519e-07
3.54611e-08
3.05904e-07
3.27442e-08
3.06236e-07
3.04315e-08
3.06528e-07
2.86482e-08
3.06777e-07
2.71293e-08
3.06993e-07
2.57572e-08
3.07185e-07
2.45205e-08
3.07358e-07
2.34086e-08
3.07516e-07
2.2399e-08
3.07661e-07
2.14717e-08
3.07795e-07
2.06124e-08
3.0792e-07
1.98109e-08
3.08038e-07
1.90592e-08
3.0815e-07
1.83508e-08
3.08257e-07
1.76805e-08
3.0836e-07
1.70436e-08
3.0846e-07
1.64364e-08
3.08557e-07
1.58553e-08
3.08653e-07
1.52968e-08
3.08747e-07
1.4758e-08
3.08841e-07
1.42355e-08
3.08933e-07
1.37265e-08
3.09026e-07
1.32279e-08
3.09119e-07
1.27367e-08
3.09212e-07
1.22499e-08
3.09307e-07
1.17641e-08
3.09403e-07
1.12761e-08
3.095e-07
1.0782e-08
3.096e-07
1.02784e-08
3.09702e-07
9.76036e-09
3.09806e-07
9.22376e-09
3.09915e-07
8.66306e-09
3.10027e-07
8.07276e-09
3.10143e-07
7.44685e-09
3.10263e-07
6.77744e-09
3.10388e-07
6.05937e-09
3.10518e-07
5.28008e-09
3.10654e-07
4.43831e-09
3.10793e-07
3.51374e-09
3.10939e-07
2.51402e-09
3.11084e-07
1.41235e-09
3.11232e-07
2.3292e-10
3.11374e-07
-1.0333e-09
3.1152e-07
-2.32907e-09
-3.58918e-09
3.11685e-07
3.07667e-07
2.71939e-08
3.10606e-07
4.96325e-08
3.11894e-07
4.47098e-08
3.1287e-07
3.86247e-08
3.13738e-07
3.67027e-08
3.14324e-07
3.48751e-08
3.14724e-07
3.23446e-08
3.15061e-07
3.00941e-08
3.1536e-07
2.835e-08
3.15615e-07
2.68741e-08
3.15835e-07
2.55372e-08
3.1603e-07
2.43255e-08
3.16206e-07
2.32328e-08
3.16365e-07
2.22393e-08
3.16512e-07
2.13254e-08
3.16647e-07
2.04772e-08
3.16773e-07
1.96849e-08
3.16891e-07
1.89406e-08
3.17004e-07
1.82383e-08
3.17111e-07
1.75729e-08
3.17215e-07
1.69401e-08
3.17315e-07
1.63361e-08
3.17413e-07
1.57574e-08
3.17509e-07
1.5201e-08
3.17604e-07
1.46635e-08
3.17697e-07
1.4142e-08
3.1779e-07
1.36335e-08
3.17883e-07
1.3135e-08
3.17976e-07
1.26436e-08
3.1807e-07
1.2156e-08
3.18165e-07
1.16692e-08
3.18261e-07
1.11798e-08
3.18359e-07
1.0684e-08
3.18459e-07
1.01782e-08
3.18562e-07
9.65766e-09
3.18668e-07
9.11806e-09
3.18777e-07
8.55408e-09
3.18889e-07
7.95996e-09
3.19006e-07
7.33e-09
3.19128e-07
6.65611e-09
3.19254e-07
5.93329e-09
3.19384e-07
5.14935e-09
3.1952e-07
4.30225e-09
3.1966e-07
3.37402e-09
3.19805e-07
2.36918e-09
3.1995e-07
1.26701e-09
3.20098e-07
8.48583e-11
3.20244e-07
-1.17922e-09
3.20396e-07
-2.48092e-09
-3.76734e-09
3.20574e-07
3.16777e-07
2.45681e-08
3.19656e-07
4.67532e-08
3.20971e-07
4.33955e-08
3.21925e-07
3.767e-08
3.22797e-07
3.58307e-08
3.2341e-07
3.42627e-08
3.23825e-07
3.19295e-08
3.24168e-07
2.97506e-08
3.24473e-07
2.80457e-08
3.24734e-07
2.66126e-08
3.24959e-07
2.53125e-08
3.25157e-07
2.41272e-08
3.25335e-07
2.30544e-08
3.25497e-07
2.20775e-08
3.25645e-07
2.11775e-08
3.25782e-07
2.03407e-08
3.25909e-07
1.95577e-08
3.26028e-07
1.88212e-08
3.26142e-07
1.81251e-08
3.2625e-07
1.74648e-08
3.26354e-07
1.68361e-08
3.26454e-07
1.62353e-08
3.26553e-07
1.56593e-08
3.26649e-07
1.51048e-08
3.26743e-07
1.45688e-08
3.26837e-07
1.40483e-08
3.2693e-07
1.35403e-08
3.27024e-07
1.3042e-08
3.27117e-07
1.25502e-08
3.27211e-07
1.2062e-08
3.27306e-07
1.15742e-08
3.27402e-07
1.10834e-08
3.27501e-07
1.05858e-08
3.27601e-07
1.00778e-08
3.27704e-07
9.5548e-09
3.2781e-07
9.01224e-09
3.27919e-07
8.44501e-09
3.28031e-07
7.84718e-09
3.28148e-07
7.21323e-09
3.28269e-07
6.53506e-09
3.28395e-07
5.80761e-09
3.28525e-07
5.01927e-09
3.2866e-07
4.16715e-09
3.28799e-07
3.23541e-09
3.28942e-07
2.22604e-09
3.29086e-07
1.12281e-09
3.29233e-07
-6.18651e-11
3.2938e-07
-1.32675e-09
3.29537e-07
-2.63739e-09
-3.9549e-09
3.29724e-07
3.26187e-07
2.21834e-08
3.28996e-07
4.39442e-08
3.30341e-07
4.20509e-08
3.31275e-07
3.6736e-08
3.32146e-07
3.49597e-08
3.32783e-07
3.36253e-08
3.33215e-07
3.14977e-08
3.33565e-07
2.94003e-08
3.33876e-07
2.77354e-08
3.34144e-07
2.63448e-08
3.34373e-07
2.50827e-08
3.34575e-07
2.39252e-08
3.34757e-07
2.28732e-08
3.34921e-07
2.19133e-08
3.35071e-07
2.10276e-08
3.35209e-07
2.02027e-08
3.35337e-07
1.94293e-08
3.35458e-07
1.87007e-08
3.35572e-07
1.80111e-08
3.3568e-07
1.7356e-08
3.35785e-07
1.67315e-08
3.35886e-07
1.61341e-08
3.35985e-07
1.55607e-08
3.36081e-07
1.50083e-08
3.36176e-07
1.44737e-08
3.3627e-07
1.39543e-08
3.36364e-07
1.34469e-08
3.36457e-07
1.29486e-08
3.36551e-07
1.24566e-08