/*--------------------------------*- C++ -*----------------------------------*\
  =========                 |
  \\      /  F ield         | OpenFOAM: The Open Source CFD Toolbox
   \\    /   O peration     | Website:  https://openfoam.org
    \\  /    A nd           | Version:  7
     \\/     M anipulation  |
\*---------------------------------------------------------------------------*/
FoamFile
{
    version     2.0;
    format      ascii;
    class       volVectorField;
    location    "0.41";
    object      U_0;
}
// * * * * * * * * * * * * * * * * * * * * * * * * * * * * * * * * * * * * * //

dimensions      [0 1 -1 0 0 0 0];

internalField   nonuniform List<vector> 
70000
(
(0.553414 0.0169781 0)
(0.25142 0.00340041 0)
(0.165931 0.000318971 0)
(0.132448 4.90216e-05 0)
(0.117343 4.40687e-05 0)
(0.107384 5.22303e-05 0)
(0.0994125 4.44244e-05 0)
(0.0929695 3.53399e-05 0)
(0.0877274 2.92912e-05 0)
(0.0833619 2.51391e-05 0)
(0.079645 2.19605e-05 0)
(0.0764292 1.94072e-05 0)
(0.0736134 1.73202e-05 0)
(0.0711233 1.55906e-05 0)
(0.068903 1.41377e-05 0)
(0.0669091 1.29015e-05 0)
(0.0651075 1.18368e-05 0)
(0.063471 1.09102e-05 0)
(0.0619777 1.00948e-05 0)
(0.0606098 9.37078e-06 0)
(0.0593526 8.72123e-06 0)
(0.0581937 8.13333e-06 0)
(0.0571231 7.59602e-06 0)
(0.056132 7.10059e-06 0)
(0.0552134 6.63866e-06 0)
(0.0543611 6.20453e-06 0)
(0.05357 5.79071e-06 0)
(0.0528358 5.39358e-06 0)
(0.0521551 5.00565e-06 0)
(0.051525 4.62534e-06 0)
(0.0509432 4.24351e-06 0)
(0.050408 3.86212e-06 0)
(0.0499184 3.46792e-06 0)
(0.0494735 3.067e-06 0)
(0.0490733 2.64377e-06 0)
(0.0487183 2.20017e-06 0)
(0.0484085 1.74043e-06 0)
(0.0481478 1.21409e-06 0)
(0.0479323 7.42691e-07 0)
(0.0477763 3.08363e-08 0)
(0.0476605 -3.46895e-07 0)
(0.0476289 -1.46975e-06 0)
(0.0476144 -1.19174e-06 0)
(0.0477451 -3.51389e-06 0)
(0.0478168 -1.04613e-06 0)
(0.0481855 -7.20182e-06 0)
(0.0482891 1.89218e-06 0)
(0.0490128 -1.57895e-05 0)
(0.0493773 3.30759e-05 0)
(0.0461526 -0.00185214 0)
(0.884863 0.0434931 0)
(0.650154 0.0201488 0)
(0.493988 0.00660473 0)
(0.403566 0.00275503 0)
(0.354851 0.00154834 0)
(0.32353 0.0011321 0)
(0.299624 0.000909632 0)
(0.280411 0.000744934 0)
(0.264696 0.000622081 0)
(0.251577 0.000531406 0)
(0.240404 0.000462497 0)
(0.230736 0.000408202 0)
(0.222266 0.000364273 0)
(0.214772 0.000328056 0)
(0.208086 0.000297743 0)
(0.202078 0.000272034 0)
(0.196645 0.000249969 0)
(0.191707 0.000230829 0)
(0.187197 0.000214061 0)
(0.183063 0.000199237 0)
(0.179259 0.000186018 0)
(0.17575 0.000174132 0)
(0.172503 0.000163355 0)
(0.169493 0.000153504 0)
(0.166699 0.000144421 0)
(0.164101 0.000135972 0)
(0.161684 0.000128037 0)
(0.159435 0.000120512 0)
(0.157343 0.000113294 0)
(0.155399 0.000106298 0)
(0.153596 9.9423e-05 0)
(0.151927 9.25998e-05 0)
(0.15039 8.57091e-05 0)
(0.14898 7.8707e-05 0)
(0.147698 7.14257e-05 0)
(0.146544 6.38639e-05 0)
(0.145517 5.57732e-05 0)
(0.144628 4.72039e-05 0)
(0.143866 3.78509e-05 0)
(0.14327 2.76797e-05 0)
(0.14279 1.66773e-05 0)
(0.142543 4.03946e-06 0)
(0.142355 -8.32451e-06 0)
(0.142567 -2.63213e-05 0)
(0.142647 -3.82195e-05 0)
(0.143528 -6.8066e-05 0)
(0.143774 -6.52352e-05 0)
(0.145616 -0.000166847 0)
(0.146539 0.000141799 0)
(0.144703 -0.00328082 0)
(0.991209 0.0499552 0)
(0.89093 0.0305623 0)
(0.762505 0.0146107 0)
(0.656549 0.00797154 0)
(0.585437 0.00488082 0)
(0.536055 0.00347598 0)
(0.498146 0.00273976 0)
(0.4675 0.00224522 0)
(0.442174 0.00188109 0)
(0.42086 0.00160896 0)
(0.40261 0.00140098 0)
(0.386757 0.00123711 0)
(0.372825 0.00110462 0)
(0.360466 0.000995408 0)
(0.349414 0.000903988 0)
(0.339462 0.000826446 0)
(0.330448 0.000759898 0)
(0.322241 0.000702181 0)
(0.314735 0.000651636 0)
(0.307843 0.000606978 0)
(0.301493 0.000567189 0)
(0.295626 0.000531453 0)
(0.290191 0.000499103 0)
(0.285144 0.000469587 0)
(0.280451 0.000442436 0)
(0.27608 0.000417252 0)
(0.272006 0.000393681 0)
(0.268205 0.000371412 0)
(0.264661 0.000350154 0)
(0.261356 0.000329646 0)
(0.258279 0.000309612 0)
(0.25542 0.000289833 0)
(0.25277 0.000269991 0)
(0.250324 0.000249929 0)
(0.24808 0.000229191 0)
(0.246037 0.000207762 0)
(0.244193 0.00018487 0)
(0.242563 0.000160837 0)
(0.24113 0.000134281 0)
(0.23995 0.000106147 0)
(0.238951 7.42099e-05 0)
(0.238302 3.99955e-05 0)
(0.237753 1.39328e-06 0)
(0.237794 -4.41604e-05 0)
(0.237671 -8.99884e-05 0)
(0.238706 -0.000158765 0)
(0.238895 -0.000185265 0)
(0.241338 -0.000404336 0)
(0.242289 -2.7087e-05 0)
(0.243516 -0.00363037 0)
(1.01554 0.0489532 0)
(1.0065 0.0357235 0)
(0.935901 0.0208193 0)
(0.852031 0.0134996 0)
(0.782251 0.00920017 0)
(0.72709 0.00678617 0)
(0.681982 0.0053901 0)
(0.6442 0.0044485 0)
(0.612167 0.0037531 0)
(0.584692 0.00322623 0)
(0.560836 0.0028189 0)
(0.539895 0.0024958 0)
(0.521341 0.00223344 0)
(0.504769 0.00201644 0)
(0.489868 0.00183426 0)
(0.476387 0.00167936 0)
(0.464127 0.00154616 0)
(0.452924 0.00143045 0)
(0.442647 0.001329 0)
(0.433184 0.00123929 0)
(0.424444 0.00115932 0)
(0.416347 0.00108748 0)
(0.408829 0.00102247 0)
(0.401834 0.000963184 0)
(0.395313 0.000908707 0)
(0.389227 0.000858252 0)
(0.38354 0.000811126 0)
(0.378222 0.000766714 0)
(0.373248 0.000724454 0)
(0.368597 0.000683832 0)
(0.364251 0.000644328 0)
(0.360195 0.000605501 0)
(0.356419 0.000566768 0)
(0.352914 0.000527794 0)
(0.349673 0.000487738 0)
(0.346697 0.000446556 0)
(0.34398 0.000402736 0)
(0.341538 0.000357026 0)
(0.339352 0.000306381 0)
(0.337484 0.000253438 0)
(0.335851 0.000192055 0)
(0.334649 0.000128544 0)
(0.33359 5.20228e-05 0)
(0.333236 -2.68674e-05 0)
(0.332731 -0.0001239 0)
(0.333569 -0.00023994 0)
(0.333517 -0.000321358 0)
(0.336026 -0.000651201 0)
(0.33672 -0.000337981 0)
(0.339546 -0.00369482 0)
(1.01435 0.0460975 0)
(1.04798 0.0373403 0)
(1.02458 0.0241866 0)
(0.9747 0.0175589 0)
(0.923504 0.013112 0)
(0.876767 0.0102095 0)
(0.83459 0.0083498 0)
(0.796825 0.00702659 0)
(0.763251 0.00601462 0)
(0.73343 0.00522547 0)
(0.706849 0.0046017 0)
(0.68304 0.00409902 0)
(0.661606 0.00368603 0)
(0.642215 0.00334128 0)
(0.624591 0.00304969 0)
(0.608506 0.00280022 0)
(0.593765 0.0025846 0)
(0.58021 0.0023965 0)
(0.567702 0.00223099 0)
(0.556128 0.0020842 0)
(0.545389 0.00195303 0)
(0.535401 0.00183499 0)
(0.526093 0.001728 0)
(0.517401 0.00163035 0)
(0.509273 0.00154059 0)
(0.501661 0.00145745 0)
(0.494527 0.00137984 0)
(0.487836 0.00130679 0)
(0.481557 0.0012374 0)
(0.475666 0.00117084 0)
(0.470142 0.00110632 0)
(0.464967 0.00104311 0)
(0.460126 0.000980314 0)
(0.45561 0.000917386 0)
(0.451409 0.000853034 0)
(0.447521 0.000787164 0)
(0.443941 0.000717409 0)
(0.440682 0.000644996 0)
(0.437725 0.000564953 0)
(0.435131 0.000481866 0)
(0.432818 0.00038503 0)
(0.430981 0.000286441 0)
(0.429335 0.000164457 0)
(0.428439 4.44717e-05 0)
(0.427451 -0.000111234 0)
(0.427836 -0.000282633 0)
(0.427442 -0.000434062 0)
(0.429562 -0.00086671 0)
(0.430018 -0.000685236 0)
(0.432918 -0.00373586 0)
(1.00941 0.043047 0)
(1.05564 0.0370954 0)
(1.05868 0.0253277 0)
(1.03632 0.0197637 0)
(1.00715 0.0158004 0)
(0.976135 0.0129382 0)
(0.944599 0.0109676 0)
(0.913718 0.00948403 0)
(0.884352 0.00829143 0)
(0.856885 0.00732168 0)
(0.831399 0.00652943 0)
(0.807832 0.00587442 0)
(0.786067 0.00532537 0)
(0.765961 0.00485956 0)
(0.747368 0.00446031 0)
(0.730151 0.00411496 0)
(0.714177 0.00381369 0)
(0.699331 0.00354881 0)
(0.685507 0.0033142 0)
(0.67261 0.00310494 0)
(0.660558 0.00291705 0)
(0.649278 0.00274727 0)
(0.638703 0.00259285 0)
(0.628777 0.00245152 0)
(0.61945 0.0023213 0)
(0.610676 0.0022005 0)
(0.602416 0.00208761 0)
(0.594638 0.00198128 0)
(0.58731 0.00188029 0)
(0.580406 0.0017835 0)
(0.573907 0.00168978 0)
(0.567791 0.00159813 0)
(0.562046 0.00150732 0)
(0.556658 0.00141657 0)
(0.55162 0.00132412 0)
(0.546927 0.00122978 0)
(0.542573 0.00113034 0)
(0.53857 0.00102741 0)
(0.534901 0.000914161 0)
(0.531621 0.000796933 0)
(0.528656 0.000660702 0)
(0.526185 0.000522499 0)
(0.523951 0.000351277 0)
(0.52246 0.000182314 0)
(0.520967 -3.30933e-05 0)
(0.520761 -0.000268249 0)
(0.519997 -0.000494951 0)
(0.521448 -0.00103038 0)
(0.521691 -0.000996488 0)
(0.523995 -0.00373703 0)
(1.00635 0.040179 0)
(1.05241 0.0361485 0)
(1.06606 0.0252509 0)
(1.05955 0.0205685 0)
(1.04692 0.0172276 0)
(1.03087 0.014657 0)
(1.01197 0.0128275 0)
(0.991273 0.0114016 0)
(0.969854 0.0102027 0)
(0.948439 0.00918485 0)
(0.927475 0.00832195 0)
(0.907228 0.00758599 0)
(0.887846 0.00695268 0)
(0.869402 0.00640334 0)
(0.851915 0.00592357 0)
(0.835375 0.00550188 0)
(0.819751 0.00512896 0)
(0.805001 0.0047972 0)
(0.791078 0.00450035 0)
(0.777934 0.00423324 0)
(0.76552 0.00399156 0)
(0.753791 0.00377169 0)
(0.742704 0.00357055 0)
(0.732216 0.00338552 0)
(0.722292 0.00321429 0)
(0.712897 0.00305484 0)
(0.704001 0.00290538 0)
(0.695575 0.00276427 0)
(0.687596 0.00262999 0)
(0.680041 0.00250113 0)
(0.672892 0.00237629 0)
(0.666133 0.0022542 0)
(0.659751 0.00213333 0)
(0.653735 0.00201265 0)
(0.648079 0.00188995 0)
(0.642778 0.00176495 0)
(0.637827 0.00163362 0)
(0.633238 0.00149787 0)
(0.628997 0.00134923 0)
(0.62515 0.00119532 0)
(0.62164 0.00101765 0)
(0.618615 0.000836743 0)
(0.615869 0.000614859 0)
(0.613819 0.000393458 0)
(0.611866 0.00011594 0)
(0.611049 -0.00018846 0)
(0.60993 -0.000489984 0)
(0.610629 -0.0011257 0)
(0.610613 -0.00124407 0)
(0.61217 -0.00367543 0)
(1.00506 0.0375018 0)
(1.04763 0.0350502 0)
(1.06396 0.0247034 0)
(1.0642 0.0205996 0)
(1.06071 0.017766 0)
(1.05482 0.0154984 0)
(1.04606 0.0138847 0)
(1.03486 0.0126244 0)
(1.02195 0.0115368 0)
(1.00791 0.0105821 0)
(0.993214 0.00974671 0)
(0.978216 0.00901301 0)
(0.963183 0.00836434 0)
(0.948311 0.00778776 0)
(0.93374 0.00727307 0)
(0.919562 0.00681187 0)
(0.905839 0.00639698 0)
(0.892607 0.00602228 0)
(0.879883 0.0056825 0)
(0.867672 0.00537312 0)
(0.855972 0.00509023 0)
(0.844773 0.00483045 0)
(0.834062 0.00459081 0)
(0.823825 0.0043687 0)
(0.814045 0.00416179 0)
(0.804705 0.00396797 0)
(0.79579 0.00378534 0)
(0.787283 0.00361212 0)
(0.779171 0.00344664 0)
(0.77144 0.0032873 0)
(0.764079 0.00313253 0)
(0.757077 0.00298085 0)
(0.750428 0.00283047 0)
(0.744123 0.00268016 0)
(0.738159 0.00252735 0)
(0.732536 0.00237159 0)
(0.727251 0.00220825 0)
(0.722314 0.00203928 0)
(0.717718 0.001855 0)
(0.713502 0.00166368 0)
(0.709623 0.00144454 0)
(0.706202 0.00121967 0)
(0.703082 0.000947867 0)
(0.700591 0.000672016 0)
(0.69828 0.000332954 0)
(0.696933 -4.30682e-05 0)
(0.695507 -0.000417597 0)
(0.695516 -0.00114473 0)
(0.695199 -0.00141539 0)
(0.696043 -0.0035532 0)
(1.00451 0.0349659 0)
(1.0436 0.0339702 0)
(1.05994 0.0240525 0)
(1.06224 0.0203102 0)
(1.06254 0.0178309 0)
(1.06187 0.0157781 0)
(1.05931 0.0143386 0)
(1.05476 0.0132445 0)
(1.04854 0.0122995 0)
(1.04096 0.0114571 0)
(1.03231 0.0107063 0)
(1.02284 0.0100334 0)
(1.01279 0.0094256 0)
(1.00234 0.00887362 0)
(0.991675 0.0083706 0)
(0.980919 0.00791101 0)
(0.97018 0.00749005 0)
(0.95954 0.00710353 0)
(0.949062 0.0067477 0)
(0.938791 0.0064192 0)
(0.928763 0.00611503 0)
(0.919002 0.00583247 0)
(0.909523 0.00556909 0)
(0.900338 0.00532262 0)
(0.891454 0.005091 0)
(0.882872 0.00487229 0)
(0.874594 0.0046647 0)
(0.86662 0.00446647 0)
(0.858947 0.00427597 0)
(0.851573 0.00409154 0)
(0.844498 0.00391151 0)
(0.837717 0.00373433 0)
(0.831232 0.00355803 0)
(0.82504 0.00338123 0)
(0.819145 0.0032011 0)
(0.813548 0.00301703 0)
(0.808252 0.00282392 0)
(0.803269 0.00262363 0)
(0.798596 0.00240571 0)
(0.794268 0.00217844 0)
(0.790257 0.00191995 0)
(0.786658 0.00165203 0)
(0.78336 0.0013332 0)
(0.78061 0.00100298 0)
(0.778091 0.000607798 0)
(0.776367 0.000159017 0)
(0.774723 -0.000286271 0)
(0.774188 -0.00109137 0)
(0.773583 -0.0015073 0)
(0.773817 -0.00338253 0)
(1.00412 0.0325352 0)
(1.04027 0.0329167 0)
(1.05617 0.0234178 0)
(1.05888 0.0199257 0)
(1.06026 0.017702 0)
(1.06165 0.0157809 0)
(1.06202 0.0144431 0)
(1.06113 0.0134647 0)
(1.05907 0.0126359 0)
(1.05594 0.0118997 0)
(1.05185 0.0112422 0)
(1.04689 0.0106493 0)
(1.04121 0.0101083 0)
(1.03492 0.00961036 0)
(1.02814 0.00914981 0)
(1.021 0.00872247 0)
(1.01359 0.00832494 0)
(1.00599 0.00795437 0)
(0.998287 0.00760821 0)
(0.990532 0.00728421 0)
(0.98278 0.00698026 0)
(0.975072 0.00669442 0)
(0.967444 0.00642488 0)
(0.959924 0.00616991 0)
(0.952535 0.00592784 0)
(0.945295 0.00569708 0)
(0.938219 0.00547607 0)
(0.93132 0.00526326 0)
(0.924607 0.00505711 0)
(0.918088 0.00485606 0)
(0.911772 0.00465846 0)
(0.905665 0.00446274 0)
(0.899773 0.00426686 0)
(0.894102 0.00406938 0)
(0.88866 0.00386727 0)
(0.883454 0.0036598 0)
(0.878492 0.00344156 0)
(0.873787 0.00321419 0)
(0.869343 0.00296687 0)
(0.86519 0.00270736 0)
(0.861313 0.00241379 0)
(0.857787 0.00210607 0)
(0.85454 0.00174507 0)
(0.85175 0.0013635 0)
(0.849209 0.000917888 0)
(0.847304 0.000400294 0)
(0.845573 -0.000112706 0)
(0.844678 -0.000979748 0)
(0.843858 -0.00152712 0)
(0.84363 -0.00317746 0)
(1.00374 0.0302009 0)
(1.03727 0.0318675 0)
(1.05284 0.0228143 0)
(1.05564 0.0195236 0)
(1.05717 0.0175117 0)
(1.05911 0.0156794 0)
(1.06055 0.0143895 0)
(1.06124 0.0134748 0)
(1.06125 0.0127199 0)
(1.0606 0.0120581 0)
(1.05929 0.0114732 0)
(1.05733 0.0109496 0)
(1.05476 0.010473 0)
(1.05163 0.0100334 0)
(1.04801 0.00962447 0)
(1.04394 0.00924205 0)
(1.03951 0.0088829 0)
(1.03477 0.00854454 0)
(1.02977 0.00822495 0)
(1.02457 0.00792239 0)
(1.01922 0.00763531 0)
(1.01376 0.0073623 0)
(1.00823 0.00710202 0)
(1.00267 0.00685314 0)
(0.997089 0.0066144 0)
(0.991526 0.00638449 0)
(0.986002 0.00616214 0)
(0.980535 0.00594601 0)
(0.975143 0.00573473 0)
(0.969841 0.00552685 0)
(0.964642 0.00532083 0)
(0.95956 0.00511511 0)
(0.954607 0.00490765 0)
(0.949794 0.00469699 0)
(0.945132 0.00447999 0)
(0.940635 0.0042558 0)
(0.936312 0.00401884 0)
(0.932179 0.00377047 0)
(0.928246 0.0034998 0)
(0.924539 0.00321367 0)
(0.921053 0.00289109 0)
(0.917847 0.00254894 0)
(0.914878 0.00215225 0)
(0.912274 0.00172497 0)
(0.909904 0.00123552 0)
(0.908027 0.000658345 0)
(0.906361 8.12106e-05 0)
(0.905304 -0.000831302 0)
(0.904384 -0.00149088 0)
(0.903864 -0.00295454 0)
(1.00337 0.0279653 0)
(1.03443 0.0308103 0)
(1.04973 0.0222358 0)
(1.05268 0.0191187 0)
(1.05417 0.0173029 0)
(1.05616 0.0155488 0)
(1.05788 0.0142811 0)
(1.0591 0.0133974 0)
(1.05991 0.0126835 0)
(1.06037 0.0120653 0)
(1.06045 0.0115257 0)
(1.06013 0.011049 0)
(1.05941 0.0106197 0)
(1.05829 0.0102265 0)
(1.05678 0.00986217 0)
(1.05491 0.00952164 0)
(1.0527 0.00920126 0)
(1.05019 0.00889826 0)
(1.0474 0.00861051 0)
(1.04437 0.00833628 0)
(1.04114 0.00807414 0)
(1.03773 0.00782281 0)
(1.03417 0.00758114 0)
(1.03048 0.007348 0)
(1.02671 0.0071223 0)
(1.02286 0.00690295 0)
(1.01896 0.00668881 0)
(1.01504 0.00647869 0)
(1.0111 0.00627135 0)
(1.00717 0.00606546 0)
(1.00326 0.00585951 0)
(0.999386 0.00565201 0)
(0.995567 0.00544091 0)
(0.991813 0.00522472 0)
(0.988139 0.00500026 0)
(0.984559 0.00476655 0)
(0.981086 0.00451796 0)
(0.977737 0.00425543 0)
(0.974522 0.00396835 0)
(0.971467 0.00366229 0)
(0.968573 0.00331778 0)
(0.965887 0.002948 0)
(0.963386 0.00252312 0)
(0.961158 0.0020577 0)
(0.959132 0.00153215 0)
(0.957468 0.000906105 0)
(0.95601 0.000273919 0)
(0.95498 -0.000669591 0)
(0.954086 -0.00142028 0)
(0.953447 -0.00273269 0)
(1.00301 0.025832 0)
(1.03171 0.0297408 0)
(1.04674 0.0216784 0)
(1.04989 0.0187109 0)
(1.05135 0.0170823 0)
(1.05331 0.0154112 0)
(1.05506 0.014159 0)
(1.05639 0.0132917 0)
(1.05744 0.0126011 0)
(1.05829 0.012007 0)
(1.05893 0.0114924 0)
(1.05935 0.0110426 0)
(1.05954 0.0106422 0)
(1.05948 0.0102793 0)
(1.05917 0.00994588 0)
(1.05862 0.00963625 0)
(1.05782 0.00934622 0)
(1.0568 0.00907259 0)
(1.05555 0.00881289 0)
(1.05409 0.00856514 0)
(1.05244 0.00832772 0)
(1.05062 0.00809927 0)
(1.04864 0.00787857 0)
(1.04652 0.00766447 0)
(1.04427 0.00745589 0)
(1.04192 0.00725174 0)
(1.03948 0.00705092 0)
(1.03696 0.00685229 0)
(1.03439 0.00665463 0)
(1.03177 0.00645662 0)
(1.02912 0.00625678 0)
(1.02645 0.00605361 0)
(1.02379 0.00584505 0)
(1.02113 0.00562957 0)
(1.0185 0.00540391 0)
(1.0159 0.00516695 0)
(1.01336 0.0049131 0)
(1.01089 0.00464281 0)
(1.00849 0.00434592 0)
(1.00619 0.00402654 0)
(1.004 0.00366713 0)
(1.00195 0.00327683 0)
(1.00004 0.0028314 0)
(0.99831 0.00233626 0)
(0.996744 0.00178261 0)
(0.995429 0.00111888 0)
(0.994289 0.000442917 0)
(0.993432 -0.000517778 0)
(0.99268 -0.00133844 0)
(0.992072 -0.00253126 0)
(1.00268 0.0238035 0)
(1.02911 0.0286576 0)
(1.04383 0.0211418 0)
(1.0472 0.0183 0)
(1.04866 0.0168483 0)
(1.05058 0.0152691 0)
(1.05233 0.0140342 0)
(1.05367 0.0131787 0)
(1.05476 0.0125048 0)
(1.0557 0.011926 0)
(1.05651 0.0114253 0)
(1.0572 0.0109902 0)
(1.05775 0.0106059 0)
(1.05816 0.0102603 0)
(1.05842 0.00994523 0)
(1.05854 0.00965486 0)
(1.05851 0.00938468 0)
(1.05833 0.00913118 0)
(1.05799 0.00889162 0)
(1.05752 0.00866378 0)
(1.0569 0.00844584 0)
(1.05614 0.00823624 0)
(1.05526 0.00803362 0)
(1.05426 0.00783671 0)
(1.05315 0.00764431 0)
(1.05193 0.00745527 0)
(1.05062 0.00726841 0)
(1.04923 0.00708253 0)
(1.04777 0.00689636 0)
(1.04624 0.00670856 0)
(1.04466 0.00651755 0)
(1.04305 0.00632184 0)
(1.0414 0.00611926 0)
(1.03973 0.00590821 0)
(1.03805 0.00568539 0)
(1.03637 0.00544949 0)
(1.03471 0.00519496 0)
(1.03308 0.00492174 0)
(1.03148 0.00462025 0)
(1.02994 0.00429302 0)
(1.02846 0.00392464 0)
(1.02707 0.00352021 0)
(1.02577 0.00306094 0)
(1.02459 0.00254407 0)
(1.02353 0.00196979 0)
(1.02263 0.00127956 0)
(1.02186 0.00056853 0)
(1.02127 -0.000396185 0)
(1.02074 -0.00126597 0)
(1.02027 -0.0023663 0)
(1.00238 0.0218816 0)
(1.02664 0.0275598 0)
(1.041 0.0206256 0)
(1.04459 0.0178875 0)
(1.04607 0.0165996 0)
(1.04796 0.0151212 0)
(1.04971 0.0139079 0)
(1.05104 0.0130633 0)
(1.05212 0.0124044 0)
(1.05306 0.0118384 0)
(1.05391 0.0113475 0)
(1.05466 0.0109214 0)
(1.05532 0.0105463 0)
(1.0559 0.0102104 0)
(1.05639 0.0099056 0)
(1.05679 0.00962611 0)
(1.0571 0.00936738 0)
(1.05733 0.00912587 0)
(1.05747 0.00889871 0)
(1.05752 0.00868357 0)
(1.05748 0.00847851 0)
(1.05734 0.00828186 0)
(1.05713 0.00809212 0)
(1.05682 0.0079079 0)
(1.05644 0.00772791 0)
(1.05598 0.00755087 0)
(1.05544 0.00737552 0)
(1.05484 0.00720055 0)
(1.05418 0.00702462 0)
(1.05345 0.00684629 0)
(1.05268 0.00666392 0)
(1.05186 0.00647591 0)
(1.051 0.00628003 0)
(1.05012 0.00607457 0)
(1.04921 0.00585616 0)
(1.04829 0.00562327 0)
(1.04737 0.00537047 0)
(1.04645 0.00509708 0)
(1.04554 0.00479423 0)
(1.04466 0.00446283 0)
(1.04382 0.00408963 0)
(1.04302 0.00367593 0)
(1.04228 0.00320787 0)
(1.04161 0.00267606 0)
(1.04103 0.00208699 0)
(1.04054 0.00138004 0)
(1.04015 0.000642312 0)
(1.03985 -0.000316871 0)
(1.03957 -0.00121811 0)
(1.0393 -0.00224831 0)
(1.0021 0.0200671 0)
(1.02431 0.0264492 0)
(1.03827 0.0201275 0)
(1.04206 0.0174756 0)
(1.04357 0.0163363 0)
(1.04543 0.0149661 0)
(1.04717 0.0137795 0)
(1.04851 0.0129458 0)
(1.04957 0.012302 0)
(1.0505 0.0117487 0)
(1.05134 0.0112666 0)
(1.0521 0.0108476 0)
(1.05278 0.010479 0)
(1.05339 0.0101494 0)
(1.05395 0.00985082 0)
(1.05444 0.00957756 0)
(1.05489 0.00932525 0)
(1.05528 0.00909038 0)
(1.05562 0.00887012 0)
(1.05591 0.00866217 0)
(1.05614 0.00846456 0)
(1.05633 0.00827557 0)
(1.05646 0.00809366 0)
(1.05654 0.0079174 0)
(1.05656 0.0077454 0)
(1.05654 0.00757633 0)
(1.05647 0.00740883 0)
(1.05635 0.00724154 0)
(1.05619 0.007073 0)
(1.05599 0.00690172 0)
(1.05575 0.00672597 0)
(1.05547 0.00654406 0)
(1.05516 0.00635368 0)
(1.05483 0.006153 0)
(1.05448 0.00593861 0)
(1.05411 0.00570874 0)
(1.05373 0.00545811 0)
(1.05335 0.00518542 0)
(1.05297 0.00488253 0)
(1.05261 0.00454879 0)
(1.05226 0.00417301 0)
(1.05194 0.00375315 0)
(1.05166 0.00327946 0)
(1.05142 0.00273765 0)
(1.05123 0.00213804 0)
(1.0511 0.00142155 0)
(1.05103 0.000664404 0)
(1.051 -0.000283155 0)
(1.05097 -0.00120216 0)
(1.05091 -0.00218072 0)
(1.00185 0.0183605 0)
(1.02211 0.0253301 0)
(1.03564 0.019644 0)
(1.03963 0.0170658 0)
(1.04116 0.0160589 0)
(1.04299 0.014803 0)
(1.04473 0.0136486 0)
(1.04606 0.0128262 0)
(1.04712 0.0121975 0)
(1.04804 0.0116574 0)
(1.04886 0.0111845 0)
(1.0496 0.0107723 0)
(1.05028 0.0104095 0)
(1.05089 0.010085 0)
(1.05145 0.00979107 0)
(1.05197 0.00952205 0)
(1.05245 0.00927373 0)
(1.05289 0.00904273 0)
(1.0533 0.00882633 0)
(1.05368 0.00862225 0)
(1.05402 0.0084286 0)
(1.05434 0.00824369 0)
(1.05463 0.00806598 0)
(1.05488 0.00789402 0)
(1.05511 0.00772643 0)
(1.05531 0.00756182 0)
(1.05548 0.00739881 0)
(1.05563 0.00723598 0)
(1.05574 0.00707182 0)
(1.05584 0.00690479 0)
(1.05591 0.00673309 0)
(1.05596 0.00655498 0)
(1.05599 0.00636806 0)
(1.056 0.00617039 0)
(1.056 0.00595857 0)
(1.05599 0.00573057 0)
(1.05597 0.00548131 0)
(1.05595 0.00520888 0)
(1.05594 0.00490587 0)
(1.05593 0.0045702 0)
(1.05593 0.00419255 0)
(1.05596 0.00376811 0)
(1.056 0.00329026 0)
(1.05608 0.00274158 0)
(1.05619 0.00213403 0)
(1.05633 0.00141273 0)
(1.0565 0.000641831 0)
(1.0567 -0.000291597 0)
(1.05686 -0.00121874 0)
(1.057 -0.00216112 0)
(1.00162 0.0167613 0)
(1.02005 0.0242065 0)
(1.03311 0.0191708 0)
(1.03728 0.0166598 0)
(1.03884 0.0157686 0)
(1.04063 0.0146312 0)
(1.04237 0.0135149 0)
(1.04371 0.0127042 0)
(1.04476 0.0120906 0)
(1.04566 0.0115646 0)
(1.04647 0.0111013 0)
(1.0472 0.0106961 0)
(1.04786 0.0103391 0)
(1.04846 0.0100196 0)
(1.04902 0.00972983 0)
(1.04953 0.00946439 0)
(1.05001 0.00921918 0)
(1.05046 0.00899093 0)
(1.05088 0.008777 0)
(1.05128 0.00857521 0)
(1.05166 0.00838372 0)
(1.05202 0.00820091 0)
(1.05236 0.00802527 0)
(1.05269 0.00785539 0)
(1.053 0.00768987 0)
(1.05329 0.00752735 0)
(1.05357 0.00736642 0)
(1.05384 0.00720565 0)
(1.05409 0.00704351 0)
(1.05433 0.00687842 0)
(1.05456 0.00670854 0)
(1.05478 0.00653208 0)
(1.05499 0.00634662 0)
(1.0552 0.00615011 0)
(1.05539 0.00593918 0)
(1.05559 0.00571155 0)
(1.05579 0.00546238 0)
(1.05598 0.00518918 0)
(1.05619 0.00488525 0)
(1.0564 0.00454729 0)
(1.05662 0.0041675 0)
(1.05686 0.003739 0)
(1.05712 0.00325736 0)
(1.0574 0.00270356 0)
(1.0577 0.00208935 0)
(1.05803 0.00136599 0)
(1.05837 0.000585434 0)
(1.05871 -0.000334253 0)
(1.05902 -0.00126375 0)
(1.05932 -0.00218311 0)
(1.00142 0.0152688 0)
(1.01812 0.0230827 0)
(1.03068 0.018704 0)
(1.03501 0.016259 0)
(1.03661 0.0154667 0)
(1.03837 0.01445 0)
(1.0401 0.013378 0)
(1.04144 0.01258 0)
(1.04248 0.0119814 0)
(1.04338 0.0114698 0)
(1.04418 0.0110168 0)
(1.04489 0.010619 0)
(1.04554 0.010268 0)
(1.04613 0.00995354 0)
(1.04667 0.009668 0)
(1.04718 0.00940605 0)
(1.04764 0.00916373 0)
(1.04809 0.00893788 0)
(1.0485 0.00872594 0)
(1.0489 0.00852582 0)
(1.04928 0.00833574 0)
(1.04965 0.00815413 0)
(1.05001 0.00797955 0)
(1.05035 0.00781061 0)
(1.05068 0.00764594 0)
(1.05101 0.00748418 0)
(1.05133 0.00732393 0)
(1.05164 0.00716376 0)
(1.05195 0.00700212 0)
(1.05225 0.00683743 0)
(1.05255 0.00666783 0)
(1.05284 0.00649149 0)
(1.05314 0.00630598 0)
(1.05343 0.00610916 0)
(1.05373 0.00589772 0)
(1.05403 0.00566916 0)
(1.05433 0.00541888 0)
(1.05464 0.00514387 0)
(1.05496 0.00483808 0)
(1.05529 0.00449719 0)
(1.05563 0.00411463 0)
(1.05599 0.00368205 0)
(1.05637 0.0031964 0)
(1.05676 0.00263827 0)
(1.05718 0.00201803 0)
(1.05761 0.00129372 0)
(1.05805 0.000506181 0)
(1.05849 -0.000401542 0)
(1.0589 -0.00133064 0)
(1.0593 -0.00223826 0)
(1.00124 0.0138817 0)
(1.01633 0.0219625 0)
(1.02837 0.0182399 0)
(1.03284 0.0158648 0)
(1.03448 0.0151547 0)
(1.0362 0.014259 0)
(1.03791 0.0132376 0)
(1.03926 0.0124536 0)
(1.0403 0.0118696 0)
(1.04118 0.0113731 0)
(1.04197 0.0109311 0)
(1.04268 0.0105409 0)
(1.04331 0.0101961 0)
(1.04389 0.00988689 0)
(1.04442 0.0096057 0)
(1.04491 0.00934733 0)
(1.04537 0.00910792 0)
(1.0458 0.00888442 0)
(1.04621 0.00867437 0)
(1.0466 0.00847573 0)
(1.04697 0.00828682 0)
(1.04733 0.0081061 0)
(1.04769 0.00793218 0)
(1.04803 0.0077637 0)
(1.04836 0.00759932 0)
(1.0487 0.0074377 0)
(1.04902 0.00727744 0)
(1.04935 0.00711711 0)
(1.04967 0.00695518 0)
(1.04999 0.00679004 0)
(1.05031 0.00661983 0)
(1.05063 0.00644268 0)
(1.05096 0.00625619 0)
(1.05129 0.00605813 0)
(1.05162 0.00584526 0)
(1.05196 0.00561487 0)
(1.05231 0.0053626 0)
(1.05267 0.00508501 0)
(1.05304 0.00477657 0)
(1.05342 0.00443223 0)
(1.05382 0.00404626 0)
(1.05424 0.00360948 0)
(1.05467 0.0031194 0)
(1.05512 0.00255724 0)
(1.05559 0.00193119 0)
(1.05607 0.00120629 0)
(1.05655 0.000413346 0)
(1.05704 -0.000485056 0)
(1.05751 -0.00141335 0)
(1.05798 -0.00231889 0)
(1.00107 0.0125978 0)
(1.01467 0.02085 0)
(1.02616 0.017775 0)
(1.03075 0.0154779 0)
(1.03245 0.0148346 0)
(1.03412 0.0140577 0)
(1.03582 0.0130931 0)
(1.03717 0.012325 0)
(1.03821 0.0117553 0)
(1.03908 0.0112743 0)
(1.03986 0.0108438 0)
(1.04056 0.0104618 0)
(1.04118 0.0101234 0)
(1.04175 0.00981957 0)
(1.04227 0.0095429 0)
(1.04275 0.00928822 0)
(1.04319 0.00905181 0)
(1.04361 0.00883072 0)
(1.04401 0.00862257 0)
(1.04439 0.00842542 0)
(1.04475 0.00823762 0)
(1.04511 0.00805771 0)
(1.04545 0.00788432 0)
(1.04578 0.00771615 0)
(1.04611 0.00755186 0)
(1.04644 0.00739013 0)
(1.04676 0.00722957 0)
(1.04708 0.00706877 0)
(1.0474 0.00690617 0)
(1.04772 0.00674018 0)
(1.04805 0.00656892 0)
(1.04837 0.00639052 0)
(1.0487 0.00620256 0)
(1.04904 0.00600275 0)
(1.04938 0.00578792 0)
(1.04974 0.0055552 0)
(1.0501 0.00530041 0)
(1.05047 0.00501979 0)
(1.05086 0.00470822 0)
(1.05126 0.00436009 0)
(1.05167 0.00397029 0)
(1.05211 0.00352919 0)
(1.05256 0.0030344 0)
(1.05303 0.00246834 0)
(1.05351 0.0018367 0)
(1.05401 0.00111099 0)
(1.05451 0.000313677 0)
(1.05501 -0.000578162 0)
(1.0555 -0.00150673 0)
(1.05603 -0.00241832 0)
(1.00093 0.0114146 0)
(1.01314 0.0197493 0)
(1.02406 0.0173062 0)
(1.02875 0.0150989 0)
(1.03051 0.0145083 0)
(1.03214 0.0138458 0)
(1.03381 0.0129441 0)
(1.03517 0.0121941 0)
(1.03621 0.0116384 0)
(1.03707 0.0111732 0)
(1.03784 0.0107549 0)
(1.03852 0.0103815 0)
(1.03914 0.0100497 0)
(1.0397 0.00975153 0)
(1.04021 0.00947954 0)
(1.04067 0.00922869 0)
(1.04111 0.00899537 0)
(1.04152 0.00877676 0)
(1.04191 0.00857057 0)
(1.04228 0.00837493 0)
(1.04263 0.00818827 0)
(1.04298 0.00800916 0)
(1.04331 0.0078363 0)
(1.04364 0.00766839 0)
(1.04396 0.00750414 0)
(1.04427 0.00734223 0)
(1.04459 0.00718128 0)
(1.0449 0.00701988 0)
(1.04521 0.00685648 0)
(1.04553 0.00668947 0)
(1.04585 0.00651699 0)
(1.04617 0.00633712 0)
(1.04649 0.00614748 0)
(1.04683 0.00594571 0)
(1.04717 0.00572868 0)
(1.04752 0.0054934 0)
(1.04788 0.00523585 0)
(1.04825 0.00495199 0)
(1.04863 0.00463702 0)
(1.04903 0.00428499 0)
(1.04945 0.00389112 0)
(1.04988 0.00344571 0)
(1.05033 0.00294611 0)
(1.05079 0.00237619 0)
(1.05127 0.00173925 0)
(1.05176 0.00101233 0)
(1.05226 0.000211314 0)
(1.05276 -0.000676731 0)
(1.05327 -0.00160748 0)
(1.05381 -0.00253175 0)
(1.0008 0.0103288 0)
(1.01174 0.0186646 0)
(1.02208 0.0168308 0)
(1.02684 0.0147282 0)
(1.02865 0.0141779 0)
(1.03025 0.0136232 0)
(1.0319 0.0127897 0)
(1.03326 0.0120611 0)
(1.03429 0.0115191 0)
(1.03515 0.0110697 0)
(1.03591 0.0106644 0)
(1.03658 0.0102999 0)
(1.03719 0.00997507 0)
(1.03774 0.00968267 0)
(1.03824 0.00941553 0)
(1.0387 0.00916865 0)
(1.03912 0.00893853 0)
(1.03952 0.00872249 0)
(1.0399 0.00851833 0)
(1.04026 0.00832426 0)
(1.04061 0.00813876 0)
(1.04094 0.00796049 0)
(1.04127 0.00778817 0)
(1.04158 0.00762053 0)
(1.0419 0.00745631 0)
(1.0422 0.0072942 0)
(1.04251 0.00713284 0)
(1.04281 0.00697081 0)
(1.04312 0.00680656 0)
(1.04343 0.00663849 0)
(1.04373 0.00646472 0)
(1.04405 0.00628333 0)
(1.04437 0.00609193 0)
(1.04469 0.00588811 0)
(1.04502 0.0056688 0)
(1.04537 0.00543088 0)
(1.04572 0.00517047 0)
(1.04608 0.00488333 0)
(1.04646 0.00456488 0)
(1.04685 0.00420897 0)
(1.04725 0.00381096 0)
(1.04767 0.00336133 0)
(1.04811 0.00285697 0)
(1.04856 0.00228326 0)
(1.04903 0.00164138 0)
(1.04951 0.000912852 0)
(1.04999 0.000108512 0)
(1.05048 -0.000778297 0)
(1.05098 -0.00171345 0)
(1.05154 -0.00265571 0)
(1.00069 0.00933655 0)
(1.01046 0.0175999 0)
(1.02021 0.0163466 0)
(1.02501 0.0143656 0)
(1.02689 0.0138453 0)
(1.02845 0.0133902 0)
(1.03007 0.0126296 0)
(1.03143 0.0119256 0)
(1.03247 0.0113973 0)
(1.03332 0.0109637 0)
(1.03407 0.0105719 0)
(1.03474 0.010217 0)
(1.03533 0.00989935 0)
(1.03587 0.00961293 0)
(1.03636 0.00935081 0)
(1.03681 0.00910804 0)
(1.03723 0.00888125 0)
(1.03762 0.00866786 0)
(1.03799 0.00846579 0)
(1.03834 0.00827334 0)
(1.03868 0.00808907 0)
(1.03901 0.00791166 0)
(1.03932 0.0077399 0)
(1.03963 0.00757255 0)
(1.03993 0.00740837 0)
(1.04023 0.00724607 0)
(1.04053 0.0070843 0)
(1.04083 0.00692163 0)
(1.04112 0.00675654 0)
(1.04142 0.00658739 0)
(1.04172 0.00641233 0)
(1.04203 0.00622939 0)
(1.04234 0.00603623 0)
(1.04265 0.00583035 0)
(1.04297 0.00560875 0)
(1.04331 0.0053682 0)
(1.04365 0.00510492 0)
(1.044 0.00481455 0)
(1.04437 0.00449263 0)
(1.04474 0.00413293 0)
(1.04514 0.00373083 0)
(1.04554 0.00327713 0)
(1.04596 0.00276818 0)
(1.0464 0.0021908 0)
(1.04685 0.00154436 0)
(1.04731 0.000813857 0)
(1.04777 6.34101e-06 0)
(1.04825 -0.000881363 0)
(1.04875 -0.00182318 0)
(1.04931 -0.00278754 0)
(1.0006 0.00843357 0)
(1.0093 0.0165593 0)
(1.01845 0.0158517 0)
(1.02326 0.0140109 0)
(1.02522 0.0135124 0)
(1.02675 0.0131473 0)
(1.02833 0.012463 0)
(1.02969 0.0117875 0)
(1.03073 0.0112732 0)
(1.03157 0.0108552 0)
(1.03231 0.0104774 0)
(1.03298 0.0101326 0)
(1.03357 0.00982245 0)
(1.0341 0.00954222 0)
(1.03458 0.00928529 0)
(1.03502 0.00904679 0)
(1.03543 0.00882343 0)
(1.03581 0.00861279 0)
(1.03617 0.0084129 0)
(1.03652 0.00822213 0)
(1.03685 0.00803911 0)
(1.03716 0.00786261 0)
(1.03747 0.00769144 0)
(1.03777 0.00752441 0)
(1.03807 0.0073603 0)
(1.03836 0.00719782 0)
(1.03865 0.00703564 0)
(1.03894 0.00687235 0)
(1.03923 0.00670641 0)
(1.03951 0.0065362 0)
(1.03981 0.00635985 0)
(1.0401 0.00617539 0)
(1.0404 0.00598047 0)
(1.04071 0.00577256 0)
(1.04102 0.0055487 0)
(1.04134 0.00530556 0)
(1.04168 0.00503946 0)
(1.04202 0.00474593 0)
(1.04237 0.00442061 0)
(1.04273 0.00405726 0)
(1.04311 0.00365121 0)
(1.0435 0.00319363 0)
(1.04391 0.00268032 0)
(1.04433 0.00209941 0)
(1.04475 0.00144883 0)
(1.04519 0.000716065 0)
(1.04564 -9.45986e-05 0)
(1.0461 -0.000984993 0)
(1.04658 -0.00193556 0)
(1.04714 -0.00292506 0)
(1.00051 0.00761508 0)
(1.00825 0.0155467 0)
(1.0168 0.0153449 0)
(1.0216 0.0136634 0)
(1.02363 0.0131809 0)
(1.02513 0.012895 0)
(1.02668 0.0122894 0)
(1.02803 0.0116467 0)
(1.02907 0.0111466 0)
(1.02992 0.010744 0)
(1.03065 0.0103807 0)