/*--------------------------------*- C++ -*----------------------------------*\
  =========                 |
  \\      /  F ield         | OpenFOAM: The Open Source CFD Toolbox
   \\    /   O peration     | Website:  https://openfoam.org
    \\  /    A nd           | Version:  7
     \\/     M anipulation  |
\*---------------------------------------------------------------------------*/
FoamFile
{
    version     2.0;
    format      ascii;
    class       volVectorField;
    location    "0.41";
    object      vorticity;
}
// * * * * * * * * * * * * * * * * * * * * * * * * * * * * * * * * * * * * * //

dimensions      [0 0 -1 0 0 0 0];

internalField   nonuniform List<vector> 
70000
(
(0 -0 -45716.1)
(0 -0 -28617.9)
(0 -0 -20913.7)
(0 -0 -16980.3)
(0 -0 -14958.7)
(0 -0 -13651.3)
(0 -0 -12641.5)
(0 -0 -11828.6)
(0 -0 -11164.7)
(0 -0 -10610.8)
(0 -0 -10139.1)
(0 -0 -9730.87)
(0 -0 -9373.34)
(0 -0 -9057.05)
(0 -0 -8774.9)
(0 -0 -8521.39)
(0 -0 -8292.21)
(0 -0 -8083.93)
(0 -0 -7893.77)
(0 -0 -7719.47)
(0 -0 -7559.14)
(0 -0 -7411.25)
(0 -0 -7274.48)
(0 -0 -7147.75)
(0 -0 -7030.13)
(0 -0 -6920.84)
(0 -0 -6819.22)
(0 -0 -6724.73)
(0 -0 -6636.9)
(0 -0 -6555.36)
(0 -0 -6479.81)
(0 -0 -6409.99)
(0 -0 -6345.78)
(0 -0 -6287.04)
(0 -0 -6233.73)
(0 -0 -6185.92)
(0 -0 -6143.56)
(0 -0 -6107.12)
(0 -0 -6076.13)
(0 -0 -6052.27)
(0 -0 -6033.33)
(0 -0 -6024.43)
(0 -0 -6017.91)
(0 -0 -6028.6)
(0 -0 -6033.23)
(0 -0 -6072.54)
(0 -0 -6083.31)
(0 -0 -6164.13)
(0 -0 -6211.12)
(0 -0 -6038.11)
(0 -0 -13549.7)
(0 -0 -19947.4)
(0 -0 -18536.3)
(0 -0 -16249.7)
(0 -0 -14503.5)
(0 -0 -13279.1)
(0 -0 -12350.6)
(0 -0 -11600.2)
(0 -0 -10977.6)
(0 -0 -10452.4)
(0 -0 -10002)
(0 -0 -9610.46)
(0 -0 -9266.08)
(0 -0 -8960.33)
(0 -0 -8686.73)
(0 -0 -8440.22)
(0 -0 -8216.81)
(0 -0 -8013.29)
(0 -0 -7827.05)
(0 -0 -7655.96)
(0 -0 -7498.25)
(0 -0 -7352.43)
(0 -0 -7217.25)
(0 -0 -7091.67)
(0 -0 -6974.78)
(0 -0 -6865.82)
(0 -0 -6764.15)
(0 -0 -6669.21)
(0 -0 -6580.53)
(0 -0 -6497.73)
(0 -0 -6420.49)
(0 -0 -6348.53)
(0 -0 -6281.66)
(0 -0 -6219.73)
(0 -0 -6162.66)
(0 -0 -6110.42)
(0 -0 -6062.96)
(0 -0 -6020.6)
(0 -0 -5982.96)
(0 -0 -5951.31)
(0 -0 -5924.01)
(0 -0 -5904.95)
(0 -0 -5888.46)
(0 -0 -5885.72)
(0 -0 -5879.74)
(0 -0 -5900.34)
(0 -0 -5903.17)
(0 -0 -5955.36)
(0 -0 -5985.37)
(0 -0 -6117.35)
(0 -0 -3818.75)
(0 -0 -10828.8)
(0 -0 -13363.4)
(0 -0 -13519.6)
(0 -0 -12866.2)
(0 -0 -12139.9)
(0 -0 -11498)
(0 -0 -10937.4)
(0 -0 -10445.3)
(0 -0 -10012.7)
(0 -0 -9630.75)
(0 -0 -9291.39)
(0 -0 -8987.88)
(0 -0 -8714.76)
(0 -0 -8467.61)
(0 -0 -8242.83)
(0 -0 -8037.49)
(0 -0 -7849.11)
(0 -0 -7675.68)
(0 -0 -7515.47)
(0 -0 -7367.03)
(0 -0 -7229.14)
(0 -0 -7100.74)
(0 -0 -6980.93)
(0 -0 -6868.93)
(0 -0 -6764.08)
(0 -0 -6665.78)
(0 -0 -6573.55)
(0 -0 -6486.95)
(0 -0 -6405.61)
(0 -0 -6329.22)
(0 -0 -6257.51)
(0 -0 -6190.26)
(0 -0 -6127.3)
(0 -0 -6068.49)
(0 -0 -6013.77)
(0 -0 -5963.03)
(0 -0 -5916.43)
(0 -0 -5873.68)
(0 -0 -5835.55)
(0 -0 -5800.99)
(0 -0 -5772.38)
(0 -0 -5746.31)
(0 -0 -5729.43)
(0 -0 -5711.99)
(0 -0 -5710.78)
(0 -0 -5702.4)
(0 -0 -5721.18)
(0 -0 -5726.48)
(0 -0 -5866.31)
(0 -0 -533.073)
(0 -0 -4662.6)
(0 -0 -7718.42)
(0 -0 -9328.62)
(0 -0 -9892.55)
(0 -0 -9958)
(0 -0 -9826.31)
(0 -0 -9614.29)
(0 -0 -9370.78)
(0 -0 -9120.54)
(0 -0 -8876.02)
(0 -0 -8642.85)
(0 -0 -8423.15)
(0 -0 -8217.38)
(0 -0 -8025.2)
(0 -0 -7845.88)
(0 -0 -7678.54)
(0 -0 -7522.27)
(0 -0 -7376.18)
(0 -0 -7239.43)
(0 -0 -7111.26)
(0 -0 -6990.96)
(0 -0 -6877.89)
(0 -0 -6771.48)
(0 -0 -6671.23)
(0 -0 -6576.67)
(0 -0 -6487.39)
(0 -0 -6403.03)
(0 -0 -6323.28)
(0 -0 -6247.83)
(0 -0 -6176.45)
(0 -0 -6108.91)
(0 -0 -6045.03)
(0 -0 -5984.64)
(0 -0 -5927.62)
(0 -0 -5873.85)
(0 -0 -5823.24)
(0 -0 -5775.81)
(0 -0 -5731.4)
(0 -0 -5690.26)
(0 -0 -5652.02)
(0 -0 -5617.5)
(0 -0 -5585.6)
(0 -0 -5558.44)
(0 -0 -5533.41)
(0 -0 -5514.56)
(0 -0 -5498.35)
(0 -0 -5487.76)
(0 -0 -5484.2)
(0 -0 -5533.54)
(0 -0 322.42)
(0 -0 -1444.52)
(0 -0 -3532.55)
(0 -0 -5259.23)
(0 -0 -6399.46)
(0 -0 -7074.43)
(0 -0 -7452.03)
(0 -0 -7642.69)
(0 -0 -7714.63)
(0 -0 -7712.15)
(0 -0 -7663.83)
(0 -0 -7587.83)
(0 -0 -7495.61)
(0 -0 -7394.49)
(0 -0 -7289.17)
(0 -0 -7182.7)
(0 -0 -7077.03)
(0 -0 -6973.41)
(0 -0 -6872.6)
(0 -0 -6775.08)
(0 -0 -6681.08)
(0 -0 -6590.71)
(0 -0 -6503.99)
(0 -0 -6420.87)
(0 -0 -6341.27)
(0 -0 -6265.08)
(0 -0 -6192.18)
(0 -0 -6122.44)
(0 -0 -6055.73)
(0 -0 -5991.93)
(0 -0 -5930.92)
(0 -0 -5872.59)
(0 -0 -5816.84)
(0 -0 -5763.56)
(0 -0 -5712.67)
(0 -0 -5664.1)
(0 -0 -5617.79)
(0 -0 -5573.65)
(0 -0 -5531.71)
(0 -0 -5491.83)
(0 -0 -5454.2)
(0 -0 -5418.41)
(0 -0 -5385.28)
(0 -0 -5353.29)
(0 -0 -5325.54)
(0 -0 -5296.08)
(0 -0 -5276.89)
(0 -0 -5245.93)
(0 -0 -5242.65)
(0 -0 -5227.96)
(0 -0 364.685)
(0 -0 -158.552)
(0 -0 -1181.49)
(0 -0 -2362.02)
(0 -0 -3417.63)
(0 -0 -4256.41)
(0 -0 -4891.68)
(0 -0 -5357.3)
(0 -0 -5688.29)
(0 -0 -5916.68)
(0 -0 -6068.78)
(0 -0 -6164.76)
(0 -0 -6219.59)
(0 -0 -6244.29)
(0 -0 -6246.96)
(0 -0 -6233.55)
(0 -0 -6208.47)
(0 -0 -6174.98)
(0 -0 -6135.52)
(0 -0 -6091.89)
(0 -0 -6045.46)
(0 -0 -5997.27)
(0 -0 -5948.08)
(0 -0 -5898.48)
(0 -0 -5848.91)
(0 -0 -5799.71)
(0 -0 -5751.12)
(0 -0 -5703.33)
(0 -0 -5656.47)
(0 -0 -5610.64)
(0 -0 -5565.92)
(0 -0 -5522.34)
(0 -0 -5479.93)
(0 -0 -5438.71)
(0 -0 -5398.69)
(0 -0 -5359.85)
(0 -0 -5322.23)
(0 -0 -5285.7)
(0 -0 -5250.46)
(0 -0 -5216.11)
(0 -0 -5183.29)
(0 -0 -5150.78)
(0 -0 -5120.69)
(0 -0 -5089.18)
(0 -0 -5062.94)
(0 -0 -5030.03)
(0 -0 -5011.22)
(0 -0 -4971.35)
(0 -0 -4966.44)
(0 -0 -4929.41)
(0 -0 254.004)
(0 -0 185.29)
(0 -0 -173.272)
(0 -0 -764.647)
(0 -0 -1447.7)
(0 -0 -2115.56)
(0 -0 -2720.86)
(0 -0 -3244.06)
(0 -0 -3680.97)
(0 -0 -4037.33)
(0 -0 -4323.38)
(0 -0 -4550.27)
(0 -0 -4728.36)
(0 -0 -4866.65)
(0 -0 -4972.71)
(0 -0 -5052.77)
(0 -0 -5111.88)
(0 -0 -5154.11)
(0 -0 -5182.74)
(0 -0 -5200.41)
(0 -0 -5209.24)
(0 -0 -5210.94)
(0 -0 -5206.89)
(0 -0 -5198.21)
(0 -0 -5185.81)
(0 -0 -5170.43)
(0 -0 -5152.68)
(0 -0 -5133.04)
(0 -0 -5111.94)
(0 -0 -5089.69)
(0 -0 -5066.58)
(0 -0 -5042.82)
(0 -0 -5018.59)
(0 -0 -4994.05)
(0 -0 -4969.32)
(0 -0 -4944.47)
(0 -0 -4919.62)
(0 -0 -4894.72)
(0 -0 -4870.03)
(0 -0 -4845.13)
(0 -0 -4820.82)
(0 -0 -4795.63)
(0 -0 -4772.14)
(0 -0 -4745.68)
(0 -0 -4724.18)
(0 -0 -4693.87)
(0 -0 -4677.43)
(0 -0 -4638.44)
(0 -0 -4630.05)
(0 -0 -4590.97)
(0 -0 178.73)
(0 -0 204.489)
(0 -0 130.662)
(0 -0 -85.1878)
(0 -0 -417.864)
(0 -0 -814.912)
(0 -0 -1236.46)
(0 -0 -1653.6)
(0 -0 -2046.38)
(0 -0 -2403.78)
(0 -0 -2721.49)
(0 -0 -2999.4)
(0 -0 -3239.7)
(0 -0 -3445.74)
(0 -0 -3621.26)
(0 -0 -3770.05)
(0 -0 -3895.64)
(0 -0 -4001.24)
(0 -0 -4089.66)
(0 -0 -4163.39)
(0 -0 -4224.53)
(0 -0 -4274.9)
(0 -0 -4316.05)
(0 -0 -4349.31)
(0 -0 -4375.8)
(0 -0 -4396.48)
(0 -0 -4412.16)
(0 -0 -4423.54)
(0 -0 -4431.21)
(0 -0 -4435.67)
(0 -0 -4437.35)
(0 -0 -4436.62)
(0 -0 -4433.78)
(0 -0 -4429.1)
(0 -0 -4422.81)
(0 -0 -4415.07)
(0 -0 -4406.08)
(0 -0 -4395.86)
(0 -0 -4384.71)
(0 -0 -4372.29)
(0 -0 -4359.4)
(0 -0 -4344.65)
(0 -0 -4330.53)
(0 -0 -4312.62)
(0 -0 -4298.31)
(0 -0 -4274.99)
(0 -0 -4262.69)
(0 -0 -4230.44)
(0 -0 -4220.37)
(0 -0 -4185.95)
(0 -0 148.003)
(0 -0 164.593)
(0 -0 169.978)
(0 -0 120.982)
(0 -0 1.05628)
(0 -0 -180.715)
(0 -0 -408.962)
(0 -0 -667.32)
(0 -0 -939.92)
(0 -0 -1213.79)
(0 -0 -1479.65)
(0 -0 -1731.46)
(0 -0 -1965.67)
(0 -0 -2180.61)
(0 -0 -2375.89)
(0 -0 -2551.97)
(0 -0 -2709.84)
(0 -0 -2850.8)
(0 -0 -2976.23)
(0 -0 -3087.56)
(0 -0 -3186.17)
(0 -0 -3273.35)
(0 -0 -3350.29)
(0 -0 -3418.09)
(0 -0 -3477.72)
(0 -0 -3530.07)
(0 -0 -3575.91)
(0 -0 -3615.94)
(0 -0 -3650.78)
(0 -0 -3680.96)
(0 -0 -3706.96)
(0 -0 -3729.2)
(0 -0 -3748.03)
(0 -0 -3763.79)
(0 -0 -3776.75)
(0 -0 -3787.13)
(0 -0 -3795.15)
(0 -0 -3800.92)
(0 -0 -3804.72)
(0 -0 -3806.34)
(0 -0 -3806.44)
(0 -0 -3803.93)
(0 -0 -3800.87)
(0 -0 -3793.59)
(0 -0 -3788.18)
(0 -0 -3774.37)
(0 -0 -3768)
(0 -0 -3745.21)
(0 -0 -3736.54)
(0 -0 -3709.36)
(0 -0 136.81)
(0 -0 137.057)
(0 -0 148.724)
(0 -0 149.674)
(0 -0 122.198)
(0 -0 60.1275)
(0 -0 -36.3638)
(0 -0 -163.622)
(0 -0 -315.28)
(0 -0 -483.998)
(0 -0 -662.822)
(0 -0 -845.798)
(0 -0 -1028.15)
(0 -0 -1206.27)
(0 -0 -1377.59)
(0 -0 -1540.41)
(0 -0 -1693.71)
(0 -0 -1837.02)
(0 -0 -1970.21)
(0 -0 -2093.46)
(0 -0 -2207.11)
(0 -0 -2311.6)
(0 -0 -2407.45)
(0 -0 -2495.22)
(0 -0 -2575.45)
(0 -0 -2648.7)
(0 -0 -2715.48)
(0 -0 -2776.29)
(0 -0 -2831.59)
(0 -0 -2881.8)
(0 -0 -2927.31)
(0 -0 -2968.48)
(0 -0 -3005.62)
(0 -0 -3039.04)
(0 -0 -3068.97)
(0 -0 -3095.64)
(0 -0 -3119.25)
(0 -0 -3139.93)
(0 -0 -3157.91)
(0 -0 -3173.07)
(0 -0 -3185.93)
(0 -0 -3195.65)
(0 -0 -3203.83)
(0 -0 -3207.62)
(0 -0 -3211.69)
(0 -0 -3208.17)
(0 -0 -3208.85)
(0 -0 -3196.31)
(0 -0 -3191.53)
(0 -0 -3172.78)
(0 -0 129.929)
(0 -0 123.986)
(0 -0 129.172)
(0 -0 136.376)
(0 -0 136.471)
(0 -0 123.212)
(0 -0 92.9443)
(0 -0 43.8098)
(0 -0 -24.0276)
(0 -0 -108.726)
(0 -0 -207.492)
(0 -0 -317.162)
(0 -0 -434.561)
(0 -0 -556.756)
(0 -0 -681.187)
(0 -0 -805.724)
(0 -0 -928.666)
(0 -0 -1048.7)
(0 -0 -1164.86)
(0 -0 -1276.47)
(0 -0 -1383.07)
(0 -0 -1484.4)
(0 -0 -1580.33)
(0 -0 -1670.86)
(0 -0 -1756.05)
(0 -0 -1836.02)
(0 -0 -1910.94)
(0 -0 -1981.01)
(0 -0 -2046.41)
(0 -0 -2107.37)
(0 -0 -2164.09)
(0 -0 -2216.78)
(0 -0 -2265.63)
(0 -0 -2310.82)
(0 -0 -2352.51)
(0 -0 -2390.86)
(0 -0 -2426)
(0 -0 -2458.03)
(0 -0 -2487.09)
(0 -0 -2513.1)
(0 -0 -2536.42)
(0 -0 -2556.43)
(0 -0 -2574.27)
(0 -0 -2587.81)
(0 -0 -2600.47)
(0 -0 -2606.44)
(0 -0 -2614.06)
(0 -0 -2611.2)
(0 -0 -2611.51)
(0 -0 -2601.27)
(0 -0 122.938)
(0 -0 116.634)
(0 -0 118.005)
(0 -0 122.484)
(0 -0 126.43)
(0 -0 126.904)
(0 -0 121.43)
(0 -0 107.703)
(0 -0 84.0743)
(0 -0 49.8364)
(0 -0 5.08868)
(0 -0 -49.4456)
(0 -0 -112.622)
(0 -0 -183.05)
(0 -0 -259.258)
(0 -0 -339.79)
(0 -0 -423.291)
(0 -0 -508.547)
(0 -0 -594.503)
(0 -0 -680.267)
(0 -0 -765.104)
(0 -0 -848.418)
(0 -0 -929.741)
(0 -0 -1008.71)
(0 -0 -1085.06)
(0 -0 -1158.59)
(0 -0 -1229.18)
(0 -0 -1296.75)
(0 -0 -1361.25)
(0 -0 -1422.68)
(0 -0 -1481.04)
(0 -0 -1536.37)
(0 -0 -1588.71)
(0 -0 -1638.11)
(0 -0 -1684.6)
(0 -0 -1728.24)
(0 -0 -1769.06)
(0 -0 -1807.09)
(0 -0 -1842.37)
(0 -0 -1874.83)
(0 -0 -1904.66)
(0 -0 -1931.37)
(0 -0 -1955.76)
(0 -0 -1976.22)
(0 -0 -1995.16)
(0 -0 -2008.41)
(0 -0 -2021.6)
(0 -0 -2026.63)
(0 -0 -2031.89)
(0 -0 -2029.17)
(0 -0 115.617)
(0 -0 110.401)
(0 -0 110.724)
(0 -0 113.165)
(0 -0 115.98)
(0 -0 118.243)
(0 -0 119.121)
(0 -0 117.412)
(0 -0 111.83)
(0 -0 101.317)
(0 -0 85.15)
(0 -0 62.9598)
(0 -0 34.6983)
(0 -0 0.596387)
(0 -0 -38.9045)
(0 -0 -83.2203)
(0 -0 -131.685)
(0 -0 -183.601)
(0 -0 -238.274)
(0 -0 -295.045)
(0 -0 -353.298)
(0 -0 -412.479)
(0 -0 -472.092)
(0 -0 -531.705)
(0 -0 -590.944)
(0 -0 -649.49)
(0 -0 -707.075)
(0 -0 -763.475)
(0 -0 -818.504)
(0 -0 -872.012)
(0 -0 -923.871)
(0 -0 -973.985)
(0 -0 -1022.27)
(0 -0 -1068.65)
(0 -0 -1113.08)
(0 -0 -1155.5)
(0 -0 -1195.86)
(0 -0 -1234.1)
(0 -0 -1270.22)
(0 -0 -1304.05)
(0 -0 -1335.71)
(0 -0 -1364.77)
(0 -0 -1391.75)
(0 -0 -1415.45)
(0 -0 -1437.45)
(0 -0 -1454.9)
(0 -0 -1471.33)
(0 -0 -1481.64)
(0 -0 -1490.6)
(0 -0 -1493.56)
(0 -0 108.372)
(0 -0 104.183)
(0 -0 104.398)
(0 -0 106.11)
(0 -0 107.981)
(0 -0 109.693)
(0 -0 111.232)
(0 -0 112.249)
(0 -0 112.162)
(0 -0 110.339)
(0 -0 106.189)
(0 -0 99.2093)
(0 -0 89.026)
(0 -0 75.4041)
(0 -0 58.2551)
(0 -0 37.6136)
(0 -0 13.62)
(0 -0 -13.5037)
(0 -0 -43.4788)
(0 -0 -75.9895)
(0 -0 -110.702)
(0 -0 -147.276)
(0 -0 -185.378)
(0 -0 -224.688)
(0 -0 -264.901)
(0 -0 -305.737)
(0 -0 -346.937)
(0 -0 -388.264)
(0 -0 -429.506)
(0 -0 -470.473)
(0 -0 -510.99)
(0 -0 -550.906)
(0 -0 -590.076)
(0 -0 -628.378)
(0 -0 -665.691)
(0 -0 -701.911)
(0 -0 -736.932)
(0 -0 -770.645)
(0 -0 -802.979)
(0 -0 -833.757)
(0 -0 -863.013)
(0 -0 -890.363)
(0 -0 -916.126)
(0 -0 -939.412)
(0 -0 -961.197)
(0 -0 -979.603)
(0 -0 -996.669)
(0 -0 -1009.35)
(0 -0 -1020.13)
(0 -0 -1026.54)
(0 -0 101.393)
(0 -0 97.9915)
(0 -0 98.2212)
(0 -0 99.6993)
(0 -0 101.215)
(0 -0 102.489)
(0 -0 103.715)
(0 -0 104.902)
(0 -0 105.878)
(0 -0 106.395)
(0 -0 106.17)
(0 -0 104.904)
(0 -0 102.305)
(0 -0 98.1176)
(0 -0 92.1328)
(0 -0 84.2034)
(0 -0 74.242)
(0 -0 62.2188)
(0 -0 48.1563)
(0 -0 32.12)
(0 -0 14.211)
(0 -0 -5.44213)
(0 -0 -26.6913)
(0 -0 -49.3759)
(0 -0 -73.3258)
(0 -0 -98.3718)
(0 -0 -124.338)
(0 -0 -151.063)
(0 -0 -178.381)
(0 -0 -206.138)
(0 -0 -234.182)
(0 -0 -262.375)
(0 -0 -290.579)
(0 -0 -318.668)
(0 -0 -346.515)
(0 -0 -374.003)
(0 -0 -401.018)
(0 -0 -427.433)
(0 -0 -453.161)
(0 -0 -478.027)
(0 -0 -502.014)
(0 -0 -524.809)
(0 -0 -546.572)
(0 -0 -566.683)
(0 -0 -585.669)
(0 -0 -602.369)
(0 -0 -617.829)
(0 -0 -630.341)
(0 -0 -641.057)
(0 -0 -648.744)
(0 -0 94.7156)
(0 -0 91.9414)
(0 -0 92.1596)
(0 -0 93.4891)
(0 -0 94.8734)
(0 -0 95.9745)
(0 -0 96.9756)
(0 -0 97.9748)
(0 -0 98.9441)
(0 -0 99.816)
(0 -0 100.5)
(0 -0 100.879)
(0 -0 100.813)
(0 -0 100.154)
(0 -0 98.755)
(0 -0 96.4825)
(0 -0 93.2211)
(0 -0 88.8785)
(0 -0 83.388)
(0 -0 76.7081)
(0 -0 68.8226)
(0 -0 59.7361)
(0 -0 49.4759)
(0 -0 38.0841)
(0 -0 25.6183)
(0 -0 12.1469)
(0 -0 -2.2516)
(0 -0 -17.4935)
(0 -0 -33.4892)
(0 -0 -50.1469)
(0 -0 -67.3719)
(0 -0 -85.0695)
(0 -0 -103.144)
(0 -0 -121.498)
(0 -0 -140.038)
(0 -0 -158.665)
(0 -0 -177.287)
(0 -0 -195.793)
(0 -0 -214.107)
(0 -0 -232.082)
(0 -0 -249.68)
(0 -0 -266.669)
(0 -0 -283.111)
(0 -0 -298.599)
(0 -0 -313.371)
(0 -0 -326.754)
(0 -0 -339.207)
(0 -0 -349.826)
(0 -0 -359.062)
(0 -0 -366.334)
(0 -0 88.3389)
(0 -0 86.085)
(0 -0 86.285)
(0 -0 87.4653)
(0 -0 88.7515)
(0 -0 89.7738)
(0 -0 90.6687)
(0 -0 91.5398)
(0 -0 92.391)
(0 -0 93.2075)
(0 -0 93.973)
(0 -0 94.6584)
(0 -0 95.2175)
(0 -0 95.5912)
(0 -0 95.7117)
(0 -0 95.5063)
(0 -0 94.9022)
(0 -0 93.8299)
(0 -0 92.2259)
(0 -0 90.0351)
(0 -0 87.2126)
(0 -0 83.7242)
(0 -0 79.5463)
(0 -0 74.6673)
(0 -0 69.0849)
(0 -0 62.8091)
(0 -0 55.8526)
(0 -0 48.2457)
(0 -0 40.0179)
(0 -0 31.2068)
(0 -0 21.8552)
(0 -0 12.0108)
(0 -0 1.72441)
(0 -0 -8.94808)
(0 -0 -19.9506)
(0 -0 -31.2186)
(0 -0 -42.6936)
(0 -0 -54.2977)
(0 -0 -65.9764)
(0 -0 -77.627)
(0 -0 -89.2103)
(0 -0 -100.578)
(0 -0 -111.727)
(0 -0 -122.422)
(0 -0 -132.74)
(0 -0 -142.321)
(0 -0 -151.313)
(0 -0 -159.272)
(0 -0 -166.311)
(0 -0 -172.198)
(0 -0 82.261)
(0 -0 80.4405)
(0 -0 80.6308)
(0 -0 81.6666)
(0 -0 82.8497)
(0 -0 83.8068)
(0 -0 84.634)
(0 -0 85.4279)
(0 -0 86.1963)
(0 -0 86.9324)
(0 -0 87.6375)
(0 -0 88.3105)
(0 -0 88.9429)
(0 -0 89.5183)
(0 -0 90.0144)
(0 -0 90.4033)
(0 -0 90.6534)
(0 -0 90.7301)
(0 -0 90.5977)
(0 -0 90.2209)
(0 -0 89.5656)
(0 -0 88.6005)
(0 -0 87.2979)
(0 -0 85.6342)
(0 -0 83.5911)
(0 -0 81.1545)
(0 -0 78.3175)
(0 -0 75.0747)
(0 -0 71.4289)
(0 -0 67.3865)
(0 -0 62.9583)
(0 -0 58.1597)
(0 -0 53.009)
(0 -0 47.53)
(0 -0 41.7483)
(0 -0 35.6969)
(0 -0 29.4049)
(0 -0 22.9174)
(0 -0 16.2646)
(0 -0 9.50902)
(0 -0 2.6768)
(0 -0 -4.14265)
(0 -0 -10.935)
(0 -0 -17.5706)
(0 -0 -24.0545)
(0 -0 -30.2118)
(0 -0 -36.0543)
(0 -0 -41.39)
(0 -0 -46.1825)
(0 -0 -50.3902)
(0 -0 76.4826)
(0 -0 75.0192)
(0 -0 75.209)
(0 -0 76.1131)
(0 -0 77.1907)
(0 -0 78.0814)
(0 -0 78.8472)
(0 -0 79.5788)
(0 -0 80.2856)
(0 -0 80.96)
(0 -0 81.6041)
(0 -0 82.2224)
(0 -0 82.8162)
(0 -0 83.3836)
(0 -0 83.92)
(0 -0 84.4183)
(0 -0 84.8686)
(0 -0 85.259)
(0 -0 85.5752)
(0 -0 85.8013)
(0 -0 85.9201)
(0 -0 85.9141)
(0 -0 85.7656)
(0 -0 85.4576)
(0 -0 84.9746)
(0 -0 84.3021)
(0 -0 83.4283)
(0 -0 82.3429)
(0 -0 81.0382)
(0 -0 79.5092)
(0 -0 77.753)
(0 -0 75.7698)
(0 -0 73.5618)
(0 -0 71.135)
(0 -0 68.4957)
(0 -0 65.6569)
(0 -0 62.6288)
(0 -0 59.4328)
(0 -0 56.0811)
(0 -0 52.6066)
(0 -0 49.0209)
(0 -0 45.3745)
(0 -0 41.6735)
(0 -0 37.9856)
(0 -0 34.3283)
(0 -0 30.7756)
(0 -0 27.3583)
(0 -0 24.1418)
(0 -0 21.2083)
(0 -0 18.5156)
(0 -0 71.0034)
(0 -0 69.8315)
(0 -0 70.0266)
(0 -0 70.8134)
(0 -0 71.7873)
(0 -0 72.6115)
(0 -0 73.3176)
(0 -0 73.99)
(0 -0 74.6411)
(0 -0 75.2626)
(0 -0 75.8549)
(0 -0 76.4225)
(0 -0 76.968)
(0 -0 77.4927)
(0 -0 77.9969)
(0 -0 78.4802)
(0 -0 78.9413)
(0 -0 79.3778)
(0 -0 79.7859)
(0 -0 80.1607)
(0 -0 80.496)
(0 -0 80.7845)
(0 -0 81.0182)
(0 -0 81.1886)
(0 -0 81.2871)
(0 -0 81.305)
(0 -0 81.234)
(0 -0 81.0665)
(0 -0 80.7952)
(0 -0 80.414)
(0 -0 79.9176)
(0 -0 79.3021)
(0 -0 78.5641)
(0 -0 77.7026)
(0 -0 76.7166)
(0 -0 75.6087)
(0 -0 74.3802)
(0 -0 73.0383)
(0 -0 71.5867)
(0 -0 70.0376)
(0 -0 68.3982)
(0 -0 66.6852)
(0 -0 64.9119)
(0 -0 63.1001)
(0 -0 61.2663)
(0 -0 59.4381)
(0 -0 57.6473)
(0 -0 55.9055)
(0 -0 54.2898)
(0 -0 52.7332)
(0 -0 65.8219)
(0 -0 64.8858)
(0 -0 65.0892)
(0 -0 65.7725)
(0 -0 66.6465)
(0 -0 67.4054)
(0 -0 68.0542)
(0 -0 68.6694)
(0 -0 69.2669)
(0 -0 69.8385)
(0 -0 70.3832)
(0 -0 70.9046)
(0 -0 71.4053)
(0 -0 71.8867)
(0 -0 72.35)
(0 -0 72.7962)
(0 -0 73.2264)
(0 -0 73.6412)
(0 -0 74.0408)
(0 -0 74.4245)
(0 -0 74.791)
(0 -0 75.1382)
(0 -0 75.4635)
(0 -0 75.7636)
(0 -0 76.0348)
(0 -0 76.2734)
(0 -0 76.4753)
(0 -0 76.6363)
(0 -0 76.7525)
(0 -0 76.8198)
(0 -0 76.8344)
(0 -0 76.793)
(0 -0 76.6921)
(0 -0 76.5293)
(0 -0 76.302)
(0 -0 76.0093)
(0 -0 75.6495)
(0 -0 75.2238)
(0 -0 74.7317)
(0 -0 74.1768)
(0 -0 73.5605)
(0 -0 72.8888)
(0 -0 72.1658)
(0 -0 71.3998)
(0 -0 70.5997)
(0 -0 69.7729)
(0 -0 68.9398)
(0 -0 68.0935)
(0 -0 67.2899)
(0 -0 66.4661)
(0 -0 60.9353)
(0 -0 60.1886)
(0 -0 60.401)
(0 -0 60.9933)
(0 -0 61.7723)
(0 -0 62.4678)
(0 -0 63.0621)
(0 -0 63.6228)
(0 -0 64.1686)
(0 -0 64.6922)
(0 -0 65.1915)
(0 -0 65.6693)
(0 -0 66.1278)
(0 -0 66.5685)
(0 -0 66.9922)
(0 -0 67.4004)
(0 -0 67.7944)
(0 -0 68.1756)
(0 -0 68.5451)
(0 -0 68.9036)
(0 -0 69.2515)
(0 -0 69.5885)
(0 -0 69.9141)
(0 -0 70.2274)
(0 -0 70.5273)
(0 -0 70.8124)
(0 -0 71.0812)
(0 -0 71.3321)
(0 -0 71.5632)
(0 -0 71.7728)
(0 -0 71.9587)
(0 -0 72.1192)
(0 -0 72.252)
(0 -0 72.3554)
(0 -0 72.4271)
(0 -0 72.4659)
(0 -0 72.4697)
(0 -0 72.438)
(0 -0 72.369)
(0 -0 72.2632)
(0 -0 72.1193)
(0 -0 71.9391)
(0 -0 71.722)
(0 -0 71.4708)
(0 -0 71.1873)
(0 -0 70.8734)
(0 -0 70.537)
(0 -0 70.1702)
(0 -0 69.8061)
(0 -0 69.3947)
(0 -0 56.3398)
(0 -0 55.744)
(0 -0 55.9645)
(0 -0 56.4774)
(0 -0 57.1671)
(0 -0 57.8012)
(0 -0 58.344)
(0 -0 58.8532)
(0 -0 59.3497)
(0 -0 59.8274)
(0 -0 60.2832)
(0 -0 60.7193)
(0 -0 61.1378)
(0 -0 61.5396)
(0 -0 61.9259)
(0 -0 62.2977)
(0 -0 62.6565)
(0 -0 63.0038)
(0 -0 63.3409)
(0 -0 63.6687)
(0 -0 63.988)
(0 -0 64.2991)
(0 -0 64.6021)
(0 -0 64.8968)
(0 -0 65.183)
(0 -0 65.4605)
(0 -0 65.7286)
(0 -0 65.987)
(0 -0 66.235)
(0 -0 66.4721)
(0 -0 66.6971)
(0 -0 66.9095)
(0 -0 67.1078)
(0 -0 67.2913)
(0 -0 67.4583)
(0 -0 67.608)
(0 -0 67.7388)
(0 -0 67.8501)
(0 -0 67.9398)
(0 -0 68.0079)
(0 -0 68.0521)
(0 -0 68.073)
(0 -0 68.0677)
(0 -0 68.0381)
(0 -0 67.9807)
(0 -0 67.8982)
(0 -0 67.7886)
(0 -0 67.6494)
(0 -0 67.495)
(0 -0 67.2901)
(0 -0 52.0302)
(0 -0 51.554)
(0 -0 51.7804)
(0 -0 52.2243)
(0 -0 52.8309)
(0 -0 53.4061)
(0 -0 53.9002)
(0 -0 54.3612)
(0 -0 54.8109)
(0 -0 55.245)
(0 -0 55.6596)
(0 -0 56.0561)
(0 -0 56.4363)
(0 -0 56.8013)
(0 -0 57.1518)
(0 -0 57.489)
(0 -0 57.8143)
(0 -0 58.1292)
(0 -0 58.435)
(0 -0 58.7327)
(0 -0 59.0229)
(0 -0 59.3062)
(0 -0 59.5827)
(0 -0 59.8524)
(0 -0 60.1155)
(0 -0 60.3717)
(0 -0 60.6211)
(0 -0 60.8635)
(0 -0 61.0988)
(0 -0 61.3269)
(0 -0 61.5473)
(0 -0 61.7597)
(0 -0 61.9634)
(0 -0 62.1579)
(0 -0 62.3424)
(0 -0 62.5161)
(0 -0 62.678)
(0 -0 62.8275)
(0 -0 62.9629)
(0 -0 63.0844)
(0 -0 63.1889)
(0 -0 63.2778)
(0 -0 63.3463)
(0 -0 63.3977)
(0 -0 63.4245)
(0 -0 63.4326)
(0 -0 63.4126)
(0 -0 63.3688)
(0 -0 63.3022)
(0 -0 63.191)
(0 -0 48)
(0 -0 47.6182)
(0 -0 47.8476)
(0 -0 48.2317)
(0 -0 48.7621)
(0 -0 49.2808)
(0 -0 49.7294)
(0 -0 50.1453)
(0 -0 50.5511)
(0 -0 50.944)
(0 -0 51.3197)
(0 -0 51.6787)
(0 -0 52.0228)
(0 -0 52.3527)
(0 -0 52.6694)
(0 -0 52.9738)
(0 -0 53.2673)
(0 -0 53.5515)
(0 -0 53.8275)
(0 -0 54.0965)
(0 -0 54.359)
(0 -0 54.6154)
(0 -0 54.8659)
(0 -0 55.1107)
(0 -0 55.3496)
(0 -0 55.5826)
(0 -0 55.8099)
(0 -0 56.0314)
(0 -0 56.2471)
(0 -0 56.457)
(0 -0 56.6609)
(0 -0 56.8585)
(0 -0 57.0496)
(0 -0 57.2337)
(0 -0 57.4101)
(0 -0 57.5785)
(0 -0 57.7379)
(0 -0 57.8882)
(0 -0 58.0275)
(0 -0 58.1564)
(0 -0 58.2717)
(0 -0 58.3753)
(0 -0 58.4613)
(0 -0 58.5348)
(0 -0 58.5854)
(0 -0 58.6225)
(0 -0 58.6313)
(0 -0 58.6228)
(0 -0 58.5872)
(0 -0 58.5167)
(0 -0 44.2418)
(0 -0 43.9344)
(0 -0 44.1633)
(0 -0 44.4958)
(0 -0 44.957)
(0 -0 45.4221)
(0 -0 45.828)
(0 -0 46.2022)
(0 -0 46.567)
(0 -0 46.9212)
(0 -0 47.2603)
(0 -0 47.5842)
(0 -0 47.8942)
(0 -0 48.1912)
(0 -0 48.4759)
(0 -0 48.7493)
(0 -0 49.0129)
(0 -0 49.268)
(0 -0 49.516)
(0 -0 49.7578)
(0 -0 49.9941)
(0 -0 50.2252)
(0 -0 50.4511)
(0 -0 50.672)
(0 -0 50.8878)
(0 -0 51.0985)
(0 -0 51.3041)
(0 -0 51.5047)
(0 -0 51.7002)
(0 -0 51.8906)
(0 -0 52.0759)
(0 -0 52.2559)
(0 -0 52.4302)
(0 -0 52.5986)
(0 -0 52.7604)
(0 -0 52.9155)
(0 -0 53.0628)
(0 -0 53.2025)
(0 -0 53.3326)
(0 -0 53.4542)
(0 -0 53.5636)
(0 -0 53.6636)
(0 -0 53.7475)
(0 -0 53.8216)
(0 -0 53.8739)
(0 -0 53.9165)
(0 -0 53.9307)
(0 -0 53.9335)
(0 -0 53.906)
(0 -0 53.8541)
(0 -0 40.7468)
(0 -0 40.4981)
(0 -0 40.7228)
(0 -0 41.011)
(0 -0 41.41)
(0 -0 41.8246)
(0 -0 42.1908)
(0 -0 42.5265)
(0 -0 42.8533)
(0 -0 43.1714)
(0 -0 43.4764)
(0 -0 43.7675)
(0 -0 44.0457)
(0 -0 44.3118)
(0 -0 44.5665)
(0 -0 44.8108)
(0 -0 45.0462)
(0 -0 45.2741)
(0 -0 45.4958)
(0 -0 45.7121)
(0 -0 45.9238)
(0 -0 46.1311)
(0 -0 46.334)
(0 -0 46.5325)
(0 -0 46.7266)
(0 -0 46.9163)
(0 -0 47.1014)
(0 -0 47.2821)
(0 -0 47.4584)
(0 -0 47.6302)
(0 -0 47.7975)
(0 -0 47.96)
(0 -0 48.1176)
(0 -0 48.2698)
(0 -0 48.4162)
(0 -0 48.5565)
(0 -0 48.6899)
(0 -0 48.8165)
(0 -0 48.9345)
(0 -0 49.0449)
(0 -0 49.1442)
(0 -0 49.2354)
(0 -0 49.3115)
(0 -0 49.3797)
(0 -0 49.4269)
(0 -0 49.4674)
(0 -0 49.4793)
(0 -0 49.4851)
(0 -0 49.4578)
(0 -0 49.4162)
(0 -0 37.5053)
(0 -0 37.3034)
(0 -0 37.5201)
(0 -0 37.7702)
(0 -0 38.114)
(0 -0 38.4815)
(0 -0 38.8107)
(0 -0 39.1113)
(0 -0 39.403)
(0 -0 39.6876)
(0 -0 39.961)
(0 -0 40.2216)
(0 -0 40.4702)
(0 -0 40.7076)
(0 -0 40.9344)
(0 -0 41.1516)
(0 -0 41.3607)
(0 -0 41.5631)
(0 -0 41.7602)
(0 -0 41.9528)
(0 -0 42.1415)
(0 -0 42.3266)
(0 -0 42.508)
(0 -0 42.6857)
(0 -0 42.8596)
(0 -0 43.0296)
(0 -0 43.1956)
(0 -0 43.3578)
(0 -0 43.5161)
(0 -0 43.6705)
(0 -0 43.8208)
(0 -0 43.967)
(0 -0 44.1087)
(0 -0 44.2457)
(0 -0 44.3773)
(0 -0 44.5035)
(0 -0 44.6233)
(0 -0 44.737)
(0 -0 44.8427)
(0 -0 44.9417)
(0 -0 45.0303)
(0 -0 45.112)
(0 -0 45.1792)
(0 -0 45.2402)
(0 -0 45.2807)
(0 -0 45.3171)
(0 -0 45.3249)
(0 -0 45.3312)
(0 -0 45.3019)
(0 -0 45.2679)
(0 -0 34.5067)
(0 -0 34.3426)
(0 -0 34.5476)
(0 -0 34.7648)
(0 -0 35.0601)
(0 -0 35.3841)
(0 -0 35.6791)
(0 -0 35.9477)
(0 -0 36.2074)
(0 -0 36.4613)
(0 -0 36.7054)
(0 -0 36.9379)
(0 -0 37.1592)
(0 -0 37.37)
(0 -0 37.5709)
(0 -0 37.7629)
(0 -0 37.9476)
(0 -0 38.1264)
(0 -0 38.3007)
(0 -0 38.4713)
(0 -0 38.6387)
(0 -0 38.8032)
(0 -0 38.9647)
(0 -0 39.1231)
(0 -0 39.2783)
(0 -0 39.43)
(0 -0 39.5784)
(0 -0 39.7234)
(0 -0 39.8651)
(0 -0 40.0033)
(0 -0 40.1381)
(0 -0 40.2691)
(0 -0 40.3961)
(0 -0 40.5188)
(0 -0 40.6367)
(0 -0 40.7497)
(0 -0 40.8568)
(0 -0 40.9584)
(0 -0 41.0527)
(0 -0 41.1409)
(0 -0 41.2194)
(0 -0 41.2919)
(0 -0 41.3507)
(0 -0 41.4044)
(0 -0 41.4385)
(0 -0 41.4705)
(0 -0 41.4742)
(0 -0 41.4802)
(0 -0 41.4489)
(0 -0 41.4212)
(0 -0 31.7396)
(0 -0 31.6063)
(0 -0 31.7965)
(0 -0 31.986)
(0 -0 32.2389)
(0 -0 32.523)
(0 -0 32.7865)
(0 -0 33.0261)
(0 -0 33.2567)
(0 -0 33.4824)
(0 -0 33.6997)
(0 -0 33.9065)
(0 -0 34.1028)
(0 -0 34.289)
(0 -0 34.466)
(0 -0 34.6349)
(0 -0 34.797)
(0 -0 34.954)
(0 -0 35.1072)
(0 -0 35.2575)
(0 -0 35.4054)
(0 -0 35.5509)
(0 -0 35.6941)
(0 -0 35.8347)
(0 -0 35.9726)
(0 -0 36.1076)
(0 -0 36.2397)
(0 -0 36.369)
(0 -0 36.4953)
(0 -0 36.6187)
(0 -0 36.7391)
(0 -0 36.8561)
(0 -0 36.9696)
(0 -0 37.0792)
(0 -0 37.1845)
(0 -0 37.2853)
(0 -0 37.3808)
(0 -0 37.4712)
(0 -0 37.555)
(0 -0 37.6332)
(0 -0 37.7024)
(0 -0 37.7663)
(0 -0 37.8174)
(0 -0 37.8644)
(0 -0 37.8926)
(0 -0 37.9204)
(0 -0 37.9204)
(0 -0 37.9262)
(0 -0 37.893)
(0 -0 37.8711)
(0 -0 29.1918)
(0 -0 29.0838)
(0 -0 29.2573)
(0 -0 29.4235)
(0 -0 29.6399)
(0 -0 29.8878)
(0 -0 30.1223)
(0 -0 30.3357)
(0 -0 30.5401)
(0 -0 30.7402)
(0 -0 30.9331)
(0 -0 31.1163)
(0 -0 31.2896)
(0 -0 31.4535)
(0 -0 31.6086)
(0 -0 31.7561)
(0 -0 31.8976)
(0 -0 32.0345)
(0 -0 32.1684)
(0 -0 32.3)
(0 -0 32.4299)
(0 -0 32.5581)
(0 -0 32.6844)
(0 -0 32.8088)
(0 -0 32.9309)
(0 -0 33.0506)
(0 -0 33.1679)
(0 -0 33.2827)
(0 -0 33.395)
(0 -0 33.5049)
(0 -0 33.6121)
(0 -0 33.7164)
(0 -0 33.8175)
(0 -0 33.9152)
(0 -0 34.009)
(0 -0 34.0987)
(0 -0 34.1835)
(0 -0 34.2637)
(0 -0 34.3378)
(0 -0 34.4069)
(0 -0 34.4677)
(0 -0 34.5237)
(0 -0 34.5678)
(0 -0 34.6086)
(0 -0 34.6316)
(0 -0 34.6556)
(0 -0 34.6523)
(0 -0 34.6578)
(0 -0 34.6233)
(0 -0 34.6066)
(0 -0 26.851)
(0 -0 26.7635)
(0 -0 26.9197)
(0 -0 27.0662)
(0 -0 27.2513)
(0 -0 27.4668)
(0 -0 27.6749)
(0 -0 27.8647)
(0 -0 28.0456)
(0 -0 28.2225)
(0 -0 28.3932)
(0 -0 28.5551)
(0 -0 28.7076)
(0 -0 28.851)
(0 -0 28.9861)
(0 -0 29.1142)
(0 -0 29.2367)
(0 -0 29.3554)
(0 -0 29.4716)
(0 -0 29.5862)
(0 -0 29.6997)
(0 -0 29.812)
(0 -0 29.9231)
(0 -0 30.0326)
(0 -0 30.1403)
(0 -0 30.2461)
(0 -0 30.3499)
(0 -0 30.4516)
(0 -0 30.5512)
(0 -0 30.6488)
(0 -0 30.744)
(0 -0 30.8368)
(0 -0 30.9267)
(0 -0 31.0136)
(0 -0 31.0969)
(0 -0 31.1765)
(0 -0 31.2517)
(0 -0 31.3226)
(0 -0 31.388)
(0 -0 31.4488)
(0 -0 31.5019)
(0 -0 31.5508)
(0 -0 31.5886)
(0 -0 31.6238)
(0 -0 31.6421)
(0 -0 31.6625)
(0 -0 31.6566)
(0 -0 31.6617)
(0 -0 31.6264)
(0 -0 31.6144)
(0 -0 24.7043)
(0 -0 24.6336)
(0 -0 24.7723)
(0 -0 24.9021)
(0 -0 25.0606)
(0 -0 25.2473)
(0 -0 25.4314)
(0 -0 25.6002)
(0 -0 25.7602)
(0 -0 25.9164)
(0 -0 26.0671)
(0 -0 26.2097)
(0 -0 26.3434)
(0 -0 26.4683)
(0 -0 26.5853)
(0 -0 26.6956)
(0 -0 26.801)
(0 -0 26.903)
(0 -0 27.0032)
(0 -0 27.1024)
(0 -0 27.201)
(0 -0 27.299)
(0 -0 27.3962)
(0 -0 27.4923)
(0 -0 27.5871)
(0 -0 27.6803)
(0 -0 27.7718)
(0 -0 27.8617)
(0 -0 27.9499)
(0 -0 28.0363)
(0 -0 28.1208)
(0 -0 28.2031)
(0 -0 28.283)
(0 -0 28.36)
(0 -0 28.4339)
(0 -0 28.5044)
(0 -0 28.5709)
(0 -0 28.6335)
(0 -0 28.691)
(0 -0 28.7443)
(0 -0 28.7906)
(0 -0 28.833)
(0 -0 28.8651)
(0 -0 28.8952)
(0 -0 28.9094)
(0 -0 28.9267)
(0 -0 28.9185)
(0 -0 28.9232)
(0 -0 28.8874)
(0 -0 28.8795)
(0 -0 22.7387)
(0 -0 22.6816)
(0 -0 22.8035)
(0 -0 22.919)
(0 -0 23.0551)
(0 -0 23.2165)
(0 -0 23.379)
(0 -0 23.529)
(0 -0 23.6705)
(0 -0 23.8082)
(0 -0 23.941)
(0 -0 24.0664)
(0 -0 24.1832)
(0 -0 24.2914)
(0 -0 24.3921)
(0 -0 24.4864)
(0 -0 24.5762)
(0 -0 24.6632)
(0 -0 24.7489)
(0 -0 24.8341)
(0 -0 24.9193)
(0 -0 25.0044)
(0 -0 25.0892)
(0 -0 25.1732)
(0 -0 25.2563)
(0 -0 25.3382)
(0 -0 25.4188)
(0 -0 25.4981)
(0 -0 25.576)
(0 -0 25.6525)
(0 -0 25.7273)
(0 -0 25.8003)
(0 -0 25.8711)
(0 -0 25.9394)
(0 -0 26.0049)
(0 -0 26.0672)
(0 -0 26.1259)
(0 -0 26.1811)
(0 -0 26.2315)
(0 -0 26.2781)
(0 -0 26.3182)
(0 -0 26.3549)
(0 -0 26.3819)
(0 -0 26.4074)
(0 -0 26.418)
(0 -0 26.4323)
(0 -0 26.4223)
(0 -0 26.4265)
(0 -0 26.3906)
(0 -0 26.3864)
(0 -0 20.9412)
(0 -0 20.8951)
(0 -0 21.0015)
(0 -0 21.1044)
(0 -0 21.2216)
(0 -0 21.3611)
(0 -0 21.5043)
(0 -0 21.6376)
(0 -0 21.7629)
(0 -0 21.8843)
(0 -0 22.0012)
(0 -0 22.1112)
(0 -0 22.2128)
(0 -0 22.3062)
(0 -0 22.3921)
(0 -0 22.472)
(0 -0 22.5478)
(0 -0 22.6213)
(0 -0 22.6939)
(0 -0 22.7666)
(0 -0 22.8398)
(0 -0 22.9133)
(0 -0 22.987)
(0 -0 23.0603)
(0 -0 23.133)
(0 -0 23.2048)
(0 -0 23.2756)
(0 -0 23.3454)
(0 -0 23.4142)
(0 -0 23.4818)
(0 -0 23.5481)
(0 -0 23.6128)
(0 -0 23.6755)
(0 -0 23.7361)
(0 -0 23.794)
(0 -0 23.8491)
(0 -0 23.9008)
(0 -0 23.9493)
(0 -0 23.9935)
(0 -0 24.0341)
(0 -0 24.0688)
(0 -0 24.1002)
(0 -0 24.1228)
(0 -0 24.1442)
(0 -0 24.1516)
(0 -0 24.1632)
(0 -0 24.1517)
(0 -0 24.1554)
(0 -0 24.1197)
(0 -0 24.1185)
(0 -0 19.299)
(0 -0 19.2618)
(0 -0 19.354)
(0 -0 19.4459)
(0 -0 19.5474)
(0 -0 19.668)
(0 -0 19.794)
(0 -0 19.9126)
(0 -0 20.0237)
(0 -0 20.1308)
(0 -0 20.2336)
(0 -0 20.3299)
(0 -0 20.4181)
(0 -0 20.4981)
(0 -0 20.5709)
(0 -0 20.6379)
(0 -0 20.7012)
(0 -0 20.7625)
(0 -0 20.8235)
(0 -0 20.885)
(0 -0 20.9474)
(0 -0 21.0107)
(0 -0 21.0744)
(0 -0 21.1381)
(0 -0 21.2016)
(0 -0 21.2644)
(0 -0 21.3266)
(0 -0 21.3881)
(0 -0 21.4487)
(0 -0 21.5085)
(0 -0 21.5672)
(0 -0 21.6246)
(0 -0 21.6802)
(0 -0 21.7339)
(0 -0 21.7852)
(0 -0 21.8339)
(0 -0 21.8795)
(0 -0 21.9221)
(0 -0 21.9607)
(0 -0 21.996)
(0 -0 22.0259)
(0 -0 22.0527)
(0 -0 22.0714)
(0 -0 22.089)
(0 -0 22.0938)
(0 -0 22.1028)
(0 -0 22.0902)
(0 -0 22.0932)
(0 -0 22.058)
(0 -0 22.0593)
(0 -0 17.7995)
(0 -0 17.7695)
(0 -0 17.8491)
(0 -0 17.9313)
(0 -0 18.0196)
(0 -0 18.1242)
(0 -0 18.2351)
(0 -0 18.3407)
(0 -0 18.4395)
(0 -0 18.534)
(0 -0 18.6245)
(0 -0 18.7086)
(0 -0 18.785)
(0 -0 18.8532)
(0 -0 18.9142)
(0 -0 18.9697)
(0 -0 19.0217)
(0 -0 19.0722)
(0 -0 19.1227)
(0 -0 19.1743)
(0 -0 19.2272)
(0 -0 19.2813)
(0 -0 19.3363)
(0 -0 19.3916)
(0 -0 19.4468)
(0 -0 19.5018)
(0 -0 19.5564)
(0 -0 19.6105)
(0 -0 19.664)
(0 -0 19.7169)
(0 -0 19.769)
(0 -0 19.8199)
(0 -0 19.8694)
(0 -0 19.917)
(0 -0 19.9624)
(0 -0 20.0055)
(0 -0 20.0458)
(0 -0 20.0832)
(0 -0 20.1169)
(0 -0 20.1476)
(0 -0 20.1731)
(0 -0 20.1958)
(0 -0 20.2111)
(0 -0 20.2253)
(0 -0 20.2278)
(0 -0 20.2346)
(0 -0 20.221)
(0 -0 20.2234)
(0 -0 20.1889)
(0 -0 20.1921)
(0 -0 16.4306)
(0 -0 16.4063)
(0 -0 16.4751)
(0 -0 16.5486)
(0 -0 16.6261)
(0 -0 16.717)
(0 -0 16.8147)
(0 -0 16.9089)
(0 -0 16.997)
(0 -0 17.0808)
(0 -0 17.1604)
(0 -0 17.2339)
(0 -0 17.2997)
(0 -0 17.3575)
(0 -0 17.4081)
(0 -0 17.4533)
(0 -0 17.4953)
(0 -0 17.5361)
(0 -0 17.5774)
(0 -0 17.6201)
(0 -0 17.6646)
(0 -0 17.7106)
(0 -0 17.7578)
(0 -0 17.8057)
(0 -0 17.8538)
(0 -0 17.9019)
(0 -0 17.9497)
(0 -0 17.9974)
(0 -0 18.0447)
(0 -0 18.0916)
(0 -0 18.1379)
(0 -0 18.1832)
(0 -0 18.2273)
(0 -0 18.2696)
(0 -0 18.31)
(0 -0 18.3481)
(0 -0 18.3837)
(0 -0 18.4166)
(0 -0 18.4461)
(0 -0 18.4726)
(0 -0 18.4945)
(0 -0 18.5135)
(0 -0 18.5258)
(0 -0 18.537)
(0 -0 18.5375)
(0 -0 18.5421)
(0 -0 18.528)
(0 -0 18.5295)
(0 -0 18.496)
(0 -0 18.5004)
(0 -0 15.1807)
(0 -0 15.1611)
(0 -0 15.2206)
(0 -0 15.2864)
(0 -0 15.3549)
(0 -0 15.4344)
(0 -0 15.5207)
(0 -0 15.605)
(0 -0 15.6838)
(0 -0 15.7583)
(0 -0 15.8284)
(0 -0 15.8927)
(0 -0 15.9493)
(0 -0 15.9978)
(0 -0 16.0391)
(0 -0 16.0752)
(0 -0 16.1083)
(0 -0 16.1405)
(0 -0 16.1736)
(0 -0 16.2085)
(0 -0 16.2455)