/*--------------------------------*- C++ -*----------------------------------*\
  =========                 |
  \\      /  F ield         | OpenFOAM: The Open Source CFD Toolbox
   \\    /   O peration     | Website:  https://openfoam.org
    \\  /    A nd           | Version:  7
     \\/     M anipulation  |
\*---------------------------------------------------------------------------*/
FoamFile
{
    version     2.0;
    format      ascii;
    class       volVectorField;
    location    "0.41";
    object      wallShearStress;
}
// * * * * * * * * * * * * * * * * * * * * * * * * * * * * * * * * * * * * * //

dimensions      [0 2 -2 0 0 0 0];

internalField   uniform (0 0 0);

boundaryField
{
    velocityInlet
    {
        type            calculated;
        value           uniform (0 0 0);
    }
    pressureOutlet
    {
        type            calculated;
        value           uniform (0 0 0);
    }
    fixedWalls
    {
        type            calculated;
        value           nonuniform List<vector> 
100
(
(-0.0175548 -0.00677542 0)
(0.00608324 -0.00110393 0)
(-0.00190604 0.000538196 0)
(0.000114818 -7.56055e-06 0)
(-0.00143054 6.33855e-05 0)
(-0.00105436 3.19638e-05 0)
(-0.00174464 4.05396e-05 0)
(-0.00210789 9.32114e-05 0)
(-0.00313552 0.00014033 0)
(-0.00432845 0.00019206 0)
(-0.00569939 0.000206902 0)
(-0.00701225 0.000200315 0)
(-0.00807845 0.000153648 0)
(-0.00832321 7.3086e-05 0)
(-0.0067494 -0.000186981 0)
(-0.00219403 -0.000712901 0)
(0.00518646 -0.00119172 0)
(0.0129095 -0.00131387 0)
(0.0184864 -0.000980104 0)
(0.0208188 -0.000441282 0)
(0.0196044 0.000169408 0)
(0.0153178 0.000654634 0)
(0.00932635 0.000829436 0)
(0.0031125 0.000742754 0)
(-0.00246668 0.000573836 0)
(-0.00636671 0.000324938 0)
(-0.00810615 0.000113482 0)
(-0.00843903 4.22108e-05 0)
(-0.00834202 3.71157e-05 0)
(-0.00806917 7.81691e-06 0)
(-0.00744302 -4.86831e-05 0)
(-0.00642186 -0.00010314 0)
(-0.00512397 -0.000143655 0)
(-0.00370282 -0.000165899 0)
(-0.00229651 -0.000169909 0)
(-0.00100688 -0.000160364 0)
(0.000107261 -0.000144059 0)
(0.00101729 -0.000122845 0)
(0.00170634 -9.88678e-05 0)
(0.00215691 -7.14323e-05 0)
(0.00235051 -4.16181e-05 0)
(0.00227904 -6.29437e-06 0)
(0.00196541 2.60501e-05 0)
(0.00145324 5.24146e-05 0)
(0.000817764 6.68075e-05 0)
(0.000139039 7.2028e-05 0)
(-0.000521345 6.98773e-05 0)
(-0.0011228 6.2771e-05 0)
(-0.00165199 5.44733e-05 0)
(-0.00211642 4.75989e-05 0)
(-0.00253586 4.37774e-05 0)
(-0.0029314 4.31397e-05 0)
(-0.00331178 4.37695e-05 0)
(-0.0036601 4.20034e-05 0)
(-0.00393485 3.48717e-05 0)
(-0.00409088 2.37365e-05 0)
(-0.0041063 1.11368e-05 0)
(-0.00398823 -6.47093e-07 0)
(-0.00374647 -1.22072e-05 0)
(-0.00336293 -2.86812e-05 0)
(-0.00279233 -5.34744e-05 0)
(-0.00200783 -8.23867e-05 0)
(-0.00106921 -0.000102441 0)
(-0.000147205 -0.000100056 0)
(0.00053613 -7.10577e-05 0)
(0.000809951 -2.6839e-05 0)
(0.000655988 1.78733e-05 0)
(0.00019562 4.4539e-05 0)
(-0.000406632 5.61302e-05 0)
(-0.00101603 5.53528e-05 0)
(-0.00155625 4.79803e-05 0)
(-0.00199939 3.93348e-05 0)
(-0.00234335 3.12691e-05 0)
(-0.00259122 2.36948e-05 0)
(-0.00274015 1.5784e-05 0)
(-0.00278083 7.6068e-06 0)
(-0.00270278 -2.29812e-06 0)
(-0.0024972 -1.3066e-05 0)
(-0.00215932 -2.45475e-05 0)
(-0.00168879 -3.67383e-05 0)
(-0.00108625 -5.05219e-05 0)
(-0.000367376 -6.41257e-05 0)
(0.000381758 -6.5761e-05 0)
(0.000969738 -5.07922e-05 0)
(0.0011896 -1.80774e-05 0)
(0.000985011 1.84364e-05 0)
(0.000485656 4.03858e-05 0)
(-0.0001006 4.31597e-05 0)
(-0.000613715 3.53992e-05 0)
(-0.000987439 2.38111e-05 0)
(-0.00123954 1.47388e-05 0)
(-0.00141424 1.02341e-05 0)
(-0.00157046 1.03704e-05 0)
(-0.00172333 1.17181e-05 0)
(-0.00189964 1.39879e-05 0)
(-0.00204377 1.24885e-05 0)
(-0.00220731 1.25463e-05 0)
(-0.00226075 6.52317e-06 0)
(-0.00237246 7.41698e-06 0)
(-0.00232744 -1.60101e-06 0)
)
;
    }
    bottomWall
    {
        type            calculated;
        value           nonuniform List<vector> 
800
(
(-0.0353512 0.00216562 0)
(-0.0160364 0.000524963 0)
(-0.0105906 0.000100552 0)
(-0.00845588 3.45863e-05 0)
(-0.00749201 1.96795e-05 0)
(-0.00685655 1.60077e-05 0)
(-0.00634798 1.32073e-05 0)
(-0.00593701 1.07578e-05 0)
(-0.00560265 8.95721e-06 0)
(-0.00532417 7.65772e-06 0)
(-0.00508699 6.6732e-06 0)
(-0.00488168 5.89537e-06 0)
(-0.00470179 5.26529e-06 0)
(-0.00454259 4.74607e-06 0)
(-0.00440047 4.31212e-06 0)
(-0.00427269 3.94492e-06 0)
(-0.00415704 3.63081e-06 0)
(-0.00405178 3.35951e-06 0)
(-0.0039555 3.1232e-06 0)
(-0.00386705 2.91581e-06 0)
(-0.00378545 2.73257e-06 0)
(-0.00370991 2.56967e-06 0)
(-0.00363974 2.42404e-06 0)
(-0.00357438 2.29321e-06 0)
(-0.00351332 2.17511e-06 0)
(-0.00345614 2.06804e-06 0)
(-0.00340247 1.97061e-06 0)
(-0.00335199 1.88164e-06 0)
(-0.00330441 1.80011e-06 0)
(-0.00325948 1.72518e-06 0)
(-0.00321699 1.65611e-06 0)
(-0.00317674 1.59229e-06 0)
(-0.00313855 1.53316e-06 0)
(-0.00310226 1.47826e-06 0)
(-0.00306774 1.42714e-06 0)
(-0.00303486 1.37948e-06 0)
(-0.0030035 1.33494e-06 0)
(-0.00297355 1.29324e-06 0)
(-0.00294494 1.25413e-06 0)
(-0.00291756 1.21739e-06 0)
(-0.00289135 1.18283e-06 0)
(-0.00286622 1.15027e-06 0)
(-0.00284211 1.11956e-06 0)
(-0.00281897 1.09049e-06 0)
(-0.00279674 1.06314e-06 0)
(-0.00277536 1.03697e-06 0)
(-0.00275478 1.01264e-06 0)
(-0.00273498 9.88699e-07 0)
(-0.00271588 9.67187e-07 0)
(-0.00269749 9.44222e-07 0)
(-0.00268212 9.25415e-07 0)
(-0.00266942 9.1475e-07 0)
(-0.00265689 9.01035e-07 0)
(-0.00264456 8.86431e-07 0)
(-0.00263241 8.72748e-07 0)
(-0.00262046 8.59727e-07 0)
(-0.00260867 8.4701e-07 0)
(-0.00259707 8.34559e-07 0)
(-0.00258563 8.22402e-07 0)
(-0.00257436 8.10534e-07 0)
(-0.00256325 7.98938e-07 0)
(-0.00255229 7.87603e-07 0)
(-0.0025415 7.76521e-07 0)
(-0.00253085 7.65684e-07 0)
(-0.00252035 7.55085e-07 0)
(-0.00251 7.44717e-07 0)
(-0.00249978 7.34574e-07 0)
(-0.00248971 7.24649e-07 0)
(-0.00247977 7.14936e-07 0)
(-0.00246996 7.05429e-07 0)
(-0.00246029 6.96121e-07 0)
(-0.00245074 6.8701e-07 0)
(-0.00244131 6.78088e-07 0)
(-0.00243201 6.69351e-07 0)
(-0.00242282 6.60793e-07 0)
(-0.00241375 6.52412e-07 0)
(-0.0024048 6.44202e-07 0)
(-0.00239596 6.36159e-07 0)
(-0.00238723 6.28277e-07 0)
(-0.00237861 6.20555e-07 0)
(-0.00237009 6.12987e-07 0)
(-0.00236167 6.0557e-07 0)
(-0.00235336 5.98299e-07 0)
(-0.00234515 5.91172e-07 0)
(-0.00233703 5.84185e-07 0)
(-0.00232901 5.77335e-07 0)
(-0.00232108 5.70617e-07 0)
(-0.00231325 5.6403e-07 0)
(-0.00230551 5.5757e-07 0)
(-0.00229785 5.51232e-07 0)
(-0.00229028 5.45014e-07 0)
(-0.0022828 5.38915e-07 0)
(-0.0022754 5.32928e-07 0)
(-0.00226808 5.27053e-07 0)
(-0.00226084 5.21284e-07 0)
(-0.00225368 5.15622e-07 0)
(-0.0022466 5.10061e-07 0)
(-0.0022396 5.04599e-07 0)
(-0.00223267 4.99235e-07 0)
(-0.00222581 4.93965e-07 0)
(-0.00221903 4.88786e-07 0)
(-0.00221232 4.83698e-07 0)
(-0.00220568 4.78697e-07 0)
(-0.0021991 4.73782e-07 0)
(-0.0021926 4.68951e-07 0)
(-0.00218616 4.64203e-07 0)
(-0.00217978 4.59535e-07 0)
(-0.00217347 4.54947e-07 0)
(-0.00216722 4.50436e-07 0)
(-0.00216104 4.46001e-07 0)
(-0.00215492 4.41641e-07 0)
(-0.00214885 4.37356e-07 0)
(-0.00214285 4.33141e-07 0)
(-0.0021369 4.28999e-07 0)
(-0.00213101 4.24925e-07 0)
(-0.00212517 4.2092e-07 0)
(-0.00211939 4.16982e-07 0)
(-0.00211367 4.1311e-07 0)
(-0.002108 4.09302e-07 0)
(-0.00210238 4.05558e-07 0)
(-0.00209681 4.01875e-07 0)
(-0.00209129 3.98253e-07 0)
(-0.00208582 3.94691e-07 0)
(-0.0020804 3.91187e-07 0)
(-0.00207503 3.8774e-07 0)
(-0.00206971 3.8435e-07 0)
(-0.00206443 3.81014e-07 0)
(-0.0020592 3.77732e-07 0)
(-0.00205402 3.74504e-07 0)
(-0.00204888 3.71331e-07 0)
(-0.00204378 3.68208e-07 0)
(-0.00203873 3.65135e-07 0)
(-0.00203372 3.62112e-07 0)
(-0.00202875 3.5914e-07 0)
(-0.00202382 3.56217e-07 0)
(-0.00201893 3.5334e-07 0)
(-0.00201408 3.50509e-07 0)
(-0.00200927 3.47722e-07 0)
(-0.0020045 3.44981e-07 0)
(-0.00199977 3.42278e-07 0)
(-0.00199507 3.39626e-07 0)
(-0.00199041 3.36998e-07 0)
(-0.00198579 3.34435e-07 0)
(-0.0019812 3.31871e-07 0)
(-0.00197665 3.29402e-07 0)
(-0.00197213 3.26883e-07 0)
(-0.00196765 3.24518e-07 0)
(-0.0019632 3.22008e-07 0)
(-0.00195879 3.19736e-07 0)
(-0.0019544 3.17152e-07 0)
(-0.00195072 3.14853e-07 0)
(-0.00194772 3.13689e-07 0)
(-0.0019447 3.12258e-07 0)
(-0.00194168 3.10597e-07 0)
(-0.00193865 3.0894e-07 0)
(-0.00193562 3.07354e-07 0)
(-0.00193258 3.05775e-07 0)
(-0.00192954 3.04207e-07 0)
(-0.00192649 3.02643e-07 0)
(-0.00192344 3.01079e-07 0)
(-0.00192038 2.99524e-07 0)
(-0.00191731 2.97972e-07 0)
(-0.00191425 2.96415e-07 0)
(-0.00191117 2.94877e-07 0)
(-0.00190809 2.93329e-07 0)
(-0.00190501 2.91793e-07 0)
(-0.00190192 2.9026e-07 0)
(-0.00189882 2.88732e-07 0)
(-0.00189572 2.87207e-07 0)
(-0.00189262 2.85682e-07 0)
(-0.00188951 2.84166e-07 0)
(-0.00188639 2.82651e-07 0)
(-0.00188327 2.81133e-07 0)
(-0.00188015 2.79632e-07 0)
(-0.00187702 2.78123e-07 0)
(-0.00187388 2.76625e-07 0)
(-0.00187074 2.75134e-07 0)
(-0.0018676 2.73642e-07 0)
(-0.00186445 2.72158e-07 0)
(-0.0018613 2.70676e-07 0)
(-0.00185814 2.69193e-07 0)
(-0.00185498 2.67724e-07 0)
(-0.00185181 2.66252e-07 0)
(-0.00184864 2.64788e-07 0)
(-0.00184546 2.6333e-07 0)
(-0.00184228 2.61872e-07 0)
(-0.00183909 2.60424e-07 0)
(-0.00183591 2.58979e-07 0)
(-0.00183271 2.57534e-07 0)
(-0.00182951 2.56104e-07 0)
(-0.00182631 2.54668e-07 0)
(-0.0018231 2.53246e-07 0)
(-0.00181989 2.51828e-07 0)
(-0.00181668 2.50414e-07 0)
(-0.00181346 2.49005e-07 0)
(-0.00181024 2.47599e-07 0)
(-0.00180701 2.46205e-07 0)
(-0.00180378 2.44812e-07 0)
(-0.00180054 2.4342e-07 0)
(-0.0017973 2.42041e-07 0)
(-0.00179406 2.40661e-07 0)
(-0.00179081 2.3929e-07 0)
(-0.00178756 2.37923e-07 0)
(-0.0017843 2.36559e-07 0)
(-0.00178104 2.35201e-07 0)
(-0.00177778 2.33848e-07 0)
(-0.00177451 2.32494e-07 0)
(-0.00177124 2.31154e-07 0)
(-0.00176797 2.29808e-07 0)
(-0.00176469 2.28474e-07 0)
(-0.0017614 2.27144e-07 0)
(-0.00175812 2.25817e-07 0)
(-0.00175483 2.24496e-07 0)
(-0.00175154 2.23179e-07 0)
(-0.00174824 2.21863e-07 0)
(-0.00174494 2.20564e-07 0)
(-0.00174164 2.19264e-07 0)
(-0.00173833 2.17976e-07 0)
(-0.00173502 2.16693e-07 0)
(-0.00173171 2.15421e-07 0)
(-0.00172839 2.14156e-07 0)
(-0.00172507 2.12903e-07 0)
(-0.00172174 2.11655e-07 0)
(-0.00171841 2.10427e-07 0)
(-0.00171508 2.09192e-07 0)
(-0.00171175 2.08005e-07 0)
(-0.00170841 2.06779e-07 0)
(-0.00170506 2.0565e-07 0)
(-0.00170171 2.04407e-07 0)
(-0.00169836 2.0339e-07 0)
(-0.001695 2.02059e-07 0)
(-0.00169164 2.01283e-07 0)
(-0.00168828 1.99676e-07 0)
(-0.00168489 1.99454e-07 0)
(-0.00168153 1.97126e-07 0)
(-0.00167811 1.98173e-07 0)
(-0.00167478 1.94042e-07 0)
(-0.00167129 1.98032e-07 0)
(-0.00166801 1.89618e-07 0)
(-0.00166441 2.00309e-07 0)
(-0.00166127 1.82103e-07 0)
(-0.00165742 2.07641e-07 0)
(-0.00165457 1.67927e-07 0)
(-0.00165025 2.25134e-07 0)
(-0.001648 1.40397e-07 0)
(-0.00164283 2.61323e-07 0)
(-0.00164161 8.87063e-08 0)
(-0.00163511 3.2574e-07 0)
(-0.00163539 7.26353e-09 0)
(-0.00162714 3.57897e-07 0)
(-0.0353512 -0.00216562 0)
(-0.0160365 -0.000524962 0)
(-0.0105906 -0.000100553 0)
(-0.0084558 -3.45897e-05 0)
(-0.00749167 -1.96849e-05 0)
(-0.00685585 -1.60146e-05 0)
(-0.00634691 -1.32146e-05 0)
(-0.00593556 -1.07643e-05 0)
(-0.00560089 -8.96178e-06 0)
(-0.00532218 -7.65943e-06 0)
(-0.00508488 -6.6714e-06 0)
(-0.00487958 -5.88964e-06 0)
(-0.0046998 -5.25535e-06 0)
(-0.00454083 -4.73163e-06 0)
(-0.00439908 -4.29287e-06 0)
(-0.00427178 -3.92043e-06 0)
(-0.00415676 -3.6005e-06 0)
(-0.00405228 -3.32272e-06 0)
(-0.00395694 -3.07906e-06 0)
(-0.00386961 -2.86338e-06 0)
(-0.00378935 -2.6707e-06 0)
(-0.00371536 -2.49711e-06 0)
(-0.00364701 -2.33934e-06 0)
(-0.00358374 -2.19473e-06 0)
(-0.00352509 -2.06094e-06 0)
(-0.00347067 -1.93608e-06 0)
(-0.00342016 -1.8183e-06 0)
(-0.00337329 -1.70614e-06 0)
(-0.00332983 -1.598e-06 0)
(-0.00328959 -1.49272e-06 0)
(-0.00325245 -1.38869e-06 0)
(-0.00321827 -1.28508e-06 0)
(-0.003187 -1.17989e-06 0)
(-0.00315858 -1.0728e-06 0)
(-0.00313301 -9.61069e-07 0)
(-0.00311033 -8.44936e-07 0)
(-0.00309052 -7.21197e-07 0)
(-0.00307384 -5.89261e-07 0)
(-0.00306004 -4.48861e-07 0)
(-0.00305003 -2.90579e-07 0)
(-0.00304257 -1.31422e-07 0)
(-0.00304046 6.98772e-08 0)
(-0.00303943 2.21692e-07 0)
(-0.00304765 5.12486e-07 0)
(-0.00305206 5.73446e-07 0)
(-0.00307542 1.13398e-06 0)
(-0.00308177 7.82894e-07 0)
(-0.00312779 2.59697e-06 0)
(-0.00314742 -6.23445e-06 0)
(-0.00294682 0.00021772 0)
(7.18325e-05 -3.24951e-05 0)
(7.4618e-05 -0.000160848 0)
(5.63661e-05 -0.00026792 0)
(1.93499e-05 -0.000341501 0)
(-3.09909e-05 -0.00033014 0)
(2.48019e-05 -0.000282507 0)
(-4.15622e-06 -0.00016986 0)
(-0.000583367 0.000326153 0)
(-0.000842539 0.00148202 0)
(-0.000446642 0.00208962 0)
(-0.000205863 0.00224274 0)
(-8.73805e-05 0.00231536 0)
(-8.16879e-06 0.00227593 0)
(9.60501e-06 0.00223112 0)
(2.34934e-05 0.00217185 0)
(3.46054e-05 0.00211108 0)
(6.163e-05 0.00202828 0)
(0.000102205 0.00190899 0)
(0.000152839 0.00173931 0)
(0.000205042 0.0015136 0)
(0.000250034 0.00123766 0)
(0.000284804 0.000925934 0)
(0.000310885 0.000595665 0)
(0.000327668 0.000241459 0)
(0.000318874 -0.000125541 0)
(0.000299421 -0.000463424 0)
(0.000278223 -0.000778317 0)
(0.000254589 -0.00107034 0)
(0.000229292 -0.00133675 0)
(0.000203495 -0.00157641 0)
(0.000178186 -0.00178958 0)
(0.000154064 -0.00197745 0)
(0.000131572 -0.00214173 0)
(0.000110944 -0.0022844 0)
(9.22583e-05 -0.00240755 0)
(7.54687e-05 -0.00251325 0)
(6.04513e-05 -0.00260346 0)
(4.70236e-05 -0.00267997 0)
(3.49386e-05 -0.00274436 0)
(2.39605e-05 -0.00279797 0)
(1.38177e-05 -0.00284197 0)
(4.23855e-06 -0.00287718 0)
(-5.04603e-06 -0.00290434 0)
(-1.43457e-05 -0.0029238 0)
(-2.39325e-05 -0.00293586 0)
(-3.42314e-05 -0.00294054 0)
(-4.57745e-05 -0.0029374 0)
(-5.85467e-05 -0.00292621 0)
(-7.31152e-05 -0.00290623 0)
(-8.96512e-05 -0.00287658 0)
(-0.000108505 -0.00283643 0)
(-0.000130087 -0.00278476 0)
(-0.000154886 -0.00272024 0)
(-0.000183383 -0.00264136 0)
(-0.000216202 -0.00254654 0)
(-0.000254229 -0.00243363 0)
(-0.000297739 -0.00230049 0)
(-0.000347981 -0.00214498 0)
(-0.000406004 -0.00196246 0)
(-0.000469056 -0.00175165 0)
(-0.000542933 -0.00150859 0)
(-0.000621711 -0.00120414 0)
(-0.000631803 -0.00082684 0)
(-0.000500886 -0.000440501 0)
(-0.000262494 -0.000129846 0)
(-1.21747e-06 8.15698e-05 0)
(0.000224293 0.000204251 0)
(0.000382653 0.000249008 0)
(0.000470445 0.000241658 0)
(0.00048329 0.000199999 0)
(0.000432119 0.000146982 0)
(0.000331199 9.4779e-05 0)
(0.000192487 5.57457e-05 0)
(4.22769e-05 4.22986e-05 0)
(-8.34651e-05 6.01316e-05 0)
(-0.000155167 9.44993e-05 0)
(-0.000170516 0.000121254 0)
(-0.000150547 0.000127174 0)
(-0.000117569 0.000115932 0)
(-8.05943e-05 0.000101221 0)
(-3.8599e-05 8.74304e-05 0)
(5.15302e-06 7.10422e-05 0)
(4.43678e-05 4.76267e-05 0)
(7.29879e-05 1.49777e-05 0)
(8.55848e-05 -2.21168e-05 0)
(8.53921e-05 -5.66413e-05 0)
(7.98375e-05 -8.73082e-05 0)
(7.34273e-05 -0.000116637 0)
(6.7096e-05 -0.000146263 0)
(6.04197e-05 -0.00017553 0)
(5.32815e-05 -0.000202688 0)
(4.65783e-05 -0.000226536 0)
(4.09771e-05 -0.000246936 0)
(3.67653e-05 -0.000264359 0)
(3.39985e-05 -0.000279618 0)
(3.24804e-05 -0.000293705 0)
(3.18101e-05 -0.000307521 0)
(3.14538e-05 -0.000321698 0)
(3.08133e-05 -0.000336497 0)
(2.92958e-05 -0.000351747 0)
(2.64425e-05 -0.00036686 0)
(2.20721e-05 -0.000380983 0)
(1.63227e-05 -0.000393226 0)
(9.57659e-06 -0.000402863 0)
(2.34809e-06 -0.000409432 0)
(-4.87975e-06 -0.000412753 0)
(-1.16544e-05 -0.000412785 0)
(-1.75437e-05 -0.000409729 0)
(-2.2263e-05 -0.000403958 0)
(-2.55959e-05 -0.000395927 0)
(-2.7473e-05 -0.000386217 0)
(-2.79637e-05 -0.000375377 0)
(-2.7185e-05 -0.00036389 0)
(-2.52158e-05 -0.000352131 0)
(-2.20264e-05 -0.000340399 0)
(-1.75377e-05 -0.000328942 0)
(-1.17683e-05 -0.000317855 0)
(-4.90138e-06 -0.000306916 0)
(2.76268e-06 -0.000295627 0)
(1.06576e-05 -0.000283545 0)
(1.7451e-05 -0.000270531 0)
(2.06352e-05 -0.000256612 0)
(1.68156e-05 -0.000241386 0)
(2.70362e-06 -0.000221929 0)
(-2.37988e-05 -0.00019483 0)
(-6.34203e-05 -0.000159215 0)
(-0.000115747 -0.000113612 0)
(-0.000178503 -5.43457e-05 0)
(-0.000244293 2.40836e-05 0)
(-0.000299965 0.000122877 0)
(-0.000333153 0.00023387 0)
(-0.000339783 0.000343652 0)
(-0.000324198 0.000441269 0)
(-0.000294382 0.000522603 0)
(-0.000257058 0.000588571 0)
(-0.000216112 0.000641282 0)
(-0.000173364 0.000682025 0)
(-0.000129737 0.000711173 0)
(-8.58384e-05 0.000728735 0)
(-4.21208e-05 0.000734774 0)
(1.07225e-06 0.000729504 0)
(4.31285e-05 0.00071322 0)
(8.36562e-05 0.00068662 0)
(0.000122523 0.000650223 0)
(0.000159498 0.000604719 0)
(0.000194372 0.000550829 0)
(0.000226941 0.000489302 0)
(0.000257013 0.000420891 0)
(0.000284398 0.00034634 0)
(0.000308882 0.00026639 0)
(0.000330239 0.000181797 0)
(0.000348347 9.33577e-05 0)
(0.000362963 1.84883e-06 0)
(0.000373709 -9.17857e-05 0)
(0.000380404 -0.000186482 0)
(0.000382981 -0.000281137 0)
(0.000381495 -0.000374628 0)
(0.000376108 -0.0004661 0)
(0.000366921 -0.000554873 0)
(0.000353994 -0.000640187 0)
(0.000337617 -0.000721421 0)
(0.000317999 -0.00079821 0)
(0.000295322 -0.000870142 0)
(0.000269801 -0.000936833 0)
(0.00024165 -0.000997939 0)
(0.000211082 -0.00105315 0)
(0.000178322 -0.00110217 0)
(0.000143608 -0.00114477 0)
(0.000107186 -0.00118074 0)
(6.93375e-05 -0.00120993 0)
(3.03118e-05 -0.00123227 0)
(-9.50317e-06 -0.00124774 0)
(-5.00271e-05 -0.00125652 0)
(-9.15546e-05 -0.00125827 0)
(-0.00013354 -0.00125248 0)
(-0.000175086 -0.00123923 0)
(-0.000215636 -0.0012187 0)
(-0.000254655 -0.00119103 0)
(-0.000291598 -0.00115649 0)
(-0.000325874 -0.00111539 0)
(-0.000356835 -0.00106808 0)
(-0.000383796 -0.00101488 0)
(-0.000405977 -0.000956164 0)
(-0.000422527 -0.000892671 0)
(-0.000432797 -0.000825342 0)
(-0.000436216 -0.000755023 0)
(-0.000432255 -0.000682763 0)
(-0.00042059 -0.000609896 0)
(-0.00040126 -0.000538009 0)
(-0.000374734 -0.000468914 0)
(-0.000341938 -0.000404579 0)
(-0.000304327 -0.00034713 0)
(-0.000264061 -0.000299211 0)
(-0.000224451 -0.00026507 0)
(-0.000191043 -0.000252763 0)
(-0.00017402 -0.000277864 0)
(-0.000193015 -0.000367332 0)
(-0.000284792 -0.000556472 0)
(-0.000504737 -0.000874727 0)
(-0.000852365 -0.00128481 0)
(1.25347e-06 -7.48896e-05 0)
(9.86873e-05 -8.91755e-05 0)
(0.000181522 -8.21466e-05 0)
(0.000237473 -4.2157e-05 0)
(0.000232693 1.676e-05 0)
(0.000170713 6.40804e-05 0)
(8.06112e-05 7.78985e-05 0)
(-1.96054e-06 6.21918e-05 0)
(-5.4792e-05 3.03283e-05 0)
(-7.12582e-05 -5.05519e-06 0)
(-5.67472e-05 -3.63888e-05 0)
(-1.92488e-05 -5.94606e-05 0)
(3.49431e-05 -6.9939e-05 0)
(9.67197e-05 -6.50075e-05 0)
(0.000154171 -5.05266e-05 0)
(0.000200779 -3.70851e-05 0)
(0.000239109 -2.98781e-05 0)
(0.000271775 -2.72368e-05 0)
(0.00030079 -2.68504e-05 0)
(0.000327793 -2.632e-05 0)
(0.000351315 -2.27548e-05 0)
(0.000367572 -1.51503e-05 0)
(0.000373126 -6.65235e-06 0)
(0.000369417 -2.35558e-06 0)
(0.000366029 -5.14904e-06 0)
(0.000370918 -1.08523e-05 0)
(0.000389054 -1.75608e-05 0)
(0.000415228 -3.87543e-05 0)
(0.000448432 -9.34983e-05 0)
(0.00049283 -8.79275e-05 0)
(0.000505987 6.87778e-05 0)
(0.000471705 0.000306776 0)
(0.000385758 0.000481951 0)
(0.000359901 0.000346814 0)
(0.000588065 -0.000322439 0)
(0.00114924 -0.000885506 0)
(0.00197058 -0.000906616 0)
(0.00241823 -0.000497709 0)
(0.00247907 -0.000207098 0)
(0.00247783 -0.000100765 0)
(0.0024539 -1.98118e-05 0)
(0.00237753 5.69177e-05 0)
(0.00226998 9.09058e-05 0)
(0.00216175 0.000112219 0)
(0.00203961 0.000136692 0)
(0.00190016 0.000164954 0)
(0.00173321 0.000207695 0)
(0.00152541 0.000261384 0)
(0.00127216 0.000322026 0)
(0.000972074 0.000382902 0)
(0.000631698 0.000435422 0)
(0.000259913 0.00047435 0)
(-0.000139817 0.000497995 0)
(-0.000562022 0.000499935 0)
(-0.000951139 0.000459967 0)
(-0.00126054 0.000388672 0)
(-0.00151297 0.000298064 0)
(-0.00171584 0.000193073 0)
(-0.00184972 7.26891e-05 0)
(-0.00190448 -6.48492e-05 0)
(-0.00185235 -0.000213186 0)
(-0.00168193 -0.000347605 0)
(-0.00140983 -0.000436666 0)
(-0.00107383 -0.000438944 0)
(-0.000764062 -0.000326836 0)
(-0.00061371 -0.000136615 0)
(-0.000593395 5.25926e-05 0)
(-0.000652506 0.000159016 0)
(-0.000783528 0.000205968 0)
(-0.000936046 0.000217044 0)
(-0.00109292 0.000208072 0)
(-0.00124295 0.000187548 0)
(-0.00137842 0.000160374 0)
(-0.00149423 0.000129649 0)
(-0.00158736 9.85744e-05 0)
(-0.00165811 6.90655e-05 0)
(-0.00170735 4.32858e-05 0)
(-0.00173933 2.14138e-05 0)
(-0.00175571 3.54832e-06 0)
(-0.00176219 -1.14056e-05 0)
(-0.00175789 -2.72585e-05 0)
(-0.00174531 -4.43427e-05 0)
(-0.00171877 -7.21691e-05 0)
(-0.00167411 -0.00010497 0)
(-0.0016039 -0.000163305 0)
(-0.00148938 -0.000223829 0)
(-0.00133753 -0.00033059 0)
(-0.00109059 -0.000420936 0)
(-0.000810192 -0.000583475 0)
(-0.00018138 -0.000619078 0)
(0.000253409 -2.80441e-05 0)
(0.000200307 0.000197235 0)
(0.000189853 0.000101327 0)
(0.000174484 1.69592e-05 0)
(0.000218395 6.67739e-06 0)
(0.000201048 5.07909e-05 0)
(0.000127853 7.44942e-05 0)
(4.80491e-05 5.46343e-05 0)
(7.05753e-06 2.12004e-05 0)
(8.33347e-08 6.37775e-06 0)
(8.72601e-06 -4.14212e-07 0)
(2.91991e-05 1.88703e-05 0)
(6.5729e-05 9.62385e-05 0)
(0.000103797 0.000235472 0)
(0.000127441 0.000410045 0)
(0.000111122 0.000573025 0)
(5.74274e-05 0.000664323 0)
(-6.83907e-06 0.000667582 0)
(-5.92778e-05 0.000593417 0)
(-8.95686e-05 0.000473507 0)
(-0.000101132 0.000347102 0)
(-0.000110818 0.000238476 0)
(-0.000108694 0.000146409 0)
(-4.42933e-05 0.000107902 0)
(0.000103388 0.000207257 0)
(0.000222412 0.00046292 0)
(0.000198426 0.000720658 0)
(7.06061e-05 0.000832666 0)
(-6.75749e-05 0.000779135 0)
(-0.000171722 0.000594284 0)
(-0.000210361 0.000340881 0)
(-0.000177343 0.00010126 0)
(-0.000106792 -4.71245e-05 0)
(-4.49694e-05 -0.000107799 0)
(-4.54806e-06 -0.000131548 0)
(1.31133e-05 -0.00013926 0)
(1.39803e-05 -0.000145684 0)
(6.2616e-06 -0.000159446 0)
(-2.20566e-06 -0.000184745 0)
(3.49097e-06 -0.000217571 0)
(3.28207e-05 -0.000231425 0)
(6.77826e-05 -0.000205841 0)
(8.06673e-05 -0.000150416 0)
(6.24152e-05 -9.12707e-05 0)
(1.85384e-05 -4.12599e-05 0)
(-4.4944e-05 -3.54455e-06 0)
(-7.90329e-05 -2.49839e-07 0)
(-4.24799e-05 -2.4374e-05 0)
(4.25447e-05 -4.33601e-05 0)
(0.00010611 -0.000105227 0)
(0.000177878 -0.000216863 0)
(0.000256823 -0.000234743 0)
(0.000153512 -0.000185294 0)
(-0.00022811 -0.000155643 0)
(-0.000552089 -0.000318692 0)
(-0.000701864 -0.000520937 0)
(-0.000697493 -0.00069219 0)
(-0.000608529 -0.000832651 0)
(-0.00041927 -0.000867575 0)
(-0.000164876 -0.000736015 0)
(8.27885e-05 -0.000493113 0)
(0.000253246 -0.000162379 0)
(0.00040003 0.00017499 0)
(0.00059774 0.000557632 0)
(0.00072409 0.00102616 0)
(0.000711046 0.00148464 0)
(0.000617806 0.00186397 0)
(0.000521552 0.00216066 0)
(0.000449475 0.00240985 0)
(0.000395967 0.00263124 0)
(0.000351991 0.00283114 0)
(0.000313299 0.00301102 0)
(0.000280624 0.00317269 0)
(0.000255335 0.00331941 0)
(0.000237633 0.00345475 0)
(0.000227119 0.00358155 0)
(0.000223093 0.00370221 0)
(0.000224454 0.00381866 0)
(0.000229679 0.00393227 0)
(0.000236869 0.00404381 0)
(0.000243917 0.00415336 0)
(0.000248707 0.00426031 0)
(0.000249402 0.0043634 0)
(0.000244807 0.00446088 0)
(0.000234642 0.00455088 0)
(0.000219519 0.00463174 0)
(0.000200607 0.00470236 0)
(0.000179221 0.00476222 0)
(0.000156544 0.0048113 0)
(0.000133505 0.00484991 0)
(0.000110827 0.0048785 0)
(8.92108e-05 0.00489768 0)
(6.92649e-05 0.00490828 0)
(5.13866e-05 0.00491131 0)
(3.60088e-05 0.0049077 0)
(2.3222e-05 0.00489887 0)
(1.21174e-05 0.00488605 0)
(2.21041e-06 0.0048693 0)
(-6.38359e-06 0.00484915 0)
(-1.39818e-05 0.00482621 0)
(-2.08112e-05 0.00480074 0)
(-2.68524e-05 0.00477305 0)
(-3.2193e-05 0.00474352 0)
(-3.69183e-05 0.0047124 0)
(-4.10261e-05 0.00467995 0)
(-4.45421e-05 0.00464646 0)
(-4.75018e-05 0.00461217 0)
(-4.99159e-05 0.0045773 0)
(-5.18068e-05 0.00454208 0)
(-5.32049e-05 0.00450671 0)
(-5.41371e-05 0.00447138 0)
(-5.46364e-05 0.00443627 0)
(-5.47399e-05 0.00440151 0)
(-5.44846e-05 0.00436723 0)
(-5.39091e-05 0.00433355 0)
(-5.30516e-05 0.00430056 0)
(-5.19488e-05 0.00426832 0)
(-5.06352e-05 0.00423689 0)
(-4.91428e-05 0.00420632 0)
(-4.75003e-05 0.00417664 0)
(-4.57336e-05 0.00414787 0)
(-4.38652e-05 0.00412003 0)
(-4.19147e-05 0.00409311 0)
(-3.98991e-05 0.00406712 0)
(-3.78334e-05 0.00404206 0)
(-3.57306e-05 0.00401792 0)
(-3.36026e-05 0.00399469 0)
(-3.14603e-05 0.00397235 0)
(-2.93147e-05 0.00395089 0)
(-2.71765e-05 0.00393029 0)
(-2.50571e-05 0.00391053 0)
(-2.29685e-05 0.00389159 0)
(-2.0924e-05 0.00387345 0)
(-1.89378e-05 0.00385607 0)
(-1.70256e-05 0.00383943 0)
(-1.52044e-05 0.00382349 0)
(-1.34929e-05 0.00380821 0)
(-1.19109e-05 0.00379356 0)
(-1.048e-05 0.00377948 0)
(-9.22281e-06 0.00376593 0)
(-8.16363e-06 0.00375285 0)
(-7.32772e-06 0.00374019 0)
(-6.7417e-06 0.00372787 0)
(-6.43326e-06 0.00371584 0)
(-6.43117e-06 0.003704 0)
(-6.76504e-06 0.0036923 0)
(-7.46544e-06 0.00368063 0)
(-8.56366e-06 0.00366891 0)
(-1.00918e-05 0.00365704 0)
(-1.20826e-05 0.00364493 0)
(-1.45692e-05 0.00363246 0)
(-1.75854e-05 0.00361952 0)
(-2.11652e-05 0.003606 0)
(-2.5343e-05 0.00359179 0)
(-3.01534e-05 0.00357674 0)
(-3.56313e-05 0.00356074 0)
(-4.18119e-05 0.00354366 0)
(-4.87309e-05 0.00352536 0)
(-5.64245e-05 0.0035057 0)
(-6.49297e-05 0.00348454 0)
(-7.42842e-05 0.00346174 0)
(-8.45269e-05 0.00343717 0)
(-9.56979e-05 0.00341067 0)
(-0.000107839 0.0033821 0)
(-0.000120993 0.00335132 0)
(-0.000135206 0.00331818 0)
(-0.000150526 0.00328254 0)
(-0.000167003 0.00324425 0)
(-0.00018469 0.00320316 0)
(-0.000203645 0.00315914 0)
(-0.000223928 0.00311204 0)
(-0.000245607 0.00306171 0)
(-0.000268755 0.00300803 0)
(-0.00029345 0.00295084 0)
(-0.00031978 0.00289002 0)
(-0.00034784 0.00282543 0)
(-0.000377737 0.00275693 0)
(-0.000409589 0.0026844 0)
(-0.000443532 0.00260771 0)
(-0.000479717 0.00252675 0)
(-0.000518319 0.00244139 0)
(-0.000559544 0.00235153 0)
(-0.000603634 0.00225708 0)
(-0.000650875 0.00215792 0)
(-0.000701604 0.00205393 0)
(-0.000756236 0.00194496 0)
(-0.000815255 0.0018308 0)
(-0.000879194 0.00171112 0)
(-0.00094863 0.00158549 0)
(-0.00102421 0.00145333 0)
(-0.00110659 0.00131392 0)
(-0.00119637 0.00116643 0)
(-0.00129391 0.00101002 0)
(-0.00139966 0.000844024 0)
(-0.00151519 0.000667991 0)
(-0.00164244 0.000481159 0)
(-0.00178041 0.000282509 0)
(-0.00192826 7.24136e-05 0)
(-0.00208923 -0.000148683 0)
(-0.00226637 -0.000381264 0)
(-0.00246144 -0.000626547 0)
(-0.0026765 -0.000883443 0)
(-0.00291618 -0.00115861 0)
(-0.00317964 -0.00143813 0)
(-0.00348242 -0.00176244 0)
(-0.00379942 -0.00203802 0)
(-0.00420059 -0.00248379 0)
(-0.00452299 -0.00261823 0)
(-0.00506985 -0.00345123 0)
(-0.0049544 -0.00282883 0)
)
;
    }
    frontAndBack
    {
        type            empty;
    }
}


// ************************************************************************* //
