/*--------------------------------*- C++ -*----------------------------------*\
  =========                 |
  \\      /  F ield         | OpenFOAM: The Open Source CFD Toolbox
   \\    /   O peration     | Website:  https://openfoam.org
    \\  /    A nd           | Version:  7
     \\/     M anipulation  |
\*---------------------------------------------------------------------------*/
FoamFile
{
    version     2.0;
    format      ascii;
    class       volScalarField;
    location    "0.46";
    object      k_0;
}
// * * * * * * * * * * * * * * * * * * * * * * * * * * * * * * * * * * * * * //

dimensions      [0 2 -2 0 0 0 0];

internalField   nonuniform List<scalar> 
70000
(
1.08549e-05
4.21884e-06
2.82452e-06
2.31698e-06
1.99778e-06
1.75743e-06
1.56557e-06
1.40866e-06
1.278e-06
1.16726e-06
1.07248e-06
9.90406e-07
9.19032e-07
8.56267e-07
8.01065e-07
7.51887e-07
7.08221e-07
6.68855e-07
6.33633e-07
6.01561e-07
5.72706e-07
5.46197e-07
5.22239e-07
5.00047e-07
4.79909e-07
4.61124e-07
4.44009e-07
4.27951e-07
4.13254e-07
3.99428e-07
3.86678e-07
3.74734e-07
3.63539e-07
3.53247e-07
3.43257e-07
3.34486e-07
3.25375e-07
3.18101e-07
3.09679e-07
3.04341e-07
2.96225e-07
2.92852e-07
2.84802e-07
2.83288e-07
2.75366e-07
2.77548e-07
2.68798e-07
2.83982e-07
2.81238e-07
3.37761e-07
1.72795e-05
1.13674e-05
8.52098e-06
7.01089e-06
6.038e-06
5.31169e-06
4.73259e-06
4.25874e-06
3.8641e-06
3.52963e-06
3.24341e-06
2.99552e-06
2.77996e-06
2.59036e-06
2.4236e-06
2.27502e-06
2.14307e-06
2.0241e-06
1.91764e-06
1.82068e-06
1.73345e-06
1.6533e-06
1.58086e-06
1.51375e-06
1.45285e-06
1.39603e-06
1.34427e-06
1.29569e-06
1.25124e-06
1.20941e-06
1.17083e-06
1.1347e-06
1.10081e-06
1.06969e-06
1.03942e-06
1.01291e-06
9.85295e-07
9.63337e-07
9.3771e-07
9.21069e-07
8.96403e-07
8.85282e-07
8.61256e-07
8.54491e-07
8.31777e-07
8.3291e-07
8.11688e-07
8.37757e-07
8.52879e-07
9.08129e-07
1.93701e-05
1.61298e-05
1.32916e-05
1.12902e-05
9.82958e-06
8.69703e-06
7.77991e-06
7.022e-06
6.38617e-06
5.84455e-06
5.3794e-06
4.97532e-06
4.62308e-06
4.31255e-06
4.03893e-06
3.79462e-06
3.57734e-06
3.38109e-06
3.20528e-06
3.04496e-06
2.90058e-06
2.76777e-06
2.64766e-06
2.53625e-06
2.43514e-06
2.34066e-06
2.25461e-06
2.17372e-06
2.09972e-06
2.03e-06
1.96569e-06
1.90544e-06
1.84885e-06
1.79692e-06
1.74634e-06
1.70203e-06
1.65593e-06
1.61894e-06
1.57616e-06
1.54711e-06
1.50617e-06
1.48578e-06
1.44594e-06
1.432e-06
1.39508e-06
1.39046e-06
1.35898e-06
1.37746e-06
1.43836e-06
1.45858e-06
1.9861e-05
1.82599e-05
1.6086e-05
1.42005e-05
1.26411e-05
1.13494e-05
1.02623e-05
9.33976e-06
8.54925e-06
7.86556e-06
7.27204e-06
6.75176e-06
6.29491e-06
5.88949e-06
5.53031e-06
5.20779e-06
4.91972e-06
4.65833e-06
4.42345e-06
4.20846e-06
4.01442e-06
3.83532e-06
3.67309e-06
3.52213e-06
3.38499e-06
3.25643e-06
3.1393e-06
3.02882e-06
2.92778e-06
2.83228e-06
2.74421e-06
2.66148e-06
2.58378e-06
2.51229e-06
2.44275e-06
2.38142e-06
2.31822e-06
2.26628e-06
2.20795e-06
2.16524e-06
2.11027e-06
2.07795e-06
2.02504e-06
2.00224e-06
1.95287e-06
1.93949e-06
1.8978e-06
1.90282e-06
1.98437e-06
1.9833e-06
1.99707e-05
1.78456e-05
1.60749e-05
1.47662e-05
1.36028e-05
1.25375e-05
1.15701e-05
1.0702e-05
9.92211e-06
9.2259e-06
8.60722e-06
8.05367e-06
7.55961e-06
7.11467e-06
6.7156e-06
6.35287e-06
6.02585e-06
5.72629e-06
5.45538e-06
5.20552e-06
4.97891e-06
4.7683e-06
4.57689e-06
4.39756e-06
4.23436e-06
4.08031e-06
3.93988e-06
3.80651e-06
3.68461e-06
3.56863e-06
3.46181e-06
3.36077e-06
3.26616e-06
3.17825e-06
3.09348e-06
3.01727e-06
2.94053e-06
2.87478e-06
2.80472e-06
2.74861e-06
2.68397e-06
2.63748e-06
2.57702e-06
2.54135e-06
2.48459e-06
2.45967e-06
2.41229e-06
2.39269e-06
2.46653e-06
2.45761e-06
2.00095e-05
1.47038e-05
1.37473e-05
1.321e-05
1.25907e-05
1.19261e-05
1.12775e-05
1.06565e-05
1.00805e-05
9.54566e-06
9.0465e-06
8.57919e-06
8.14744e-06
7.74635e-06
7.37696e-06
7.03281e-06
6.71696e-06
6.42244e-06
6.15296e-06
5.90073e-06
5.66986e-06
5.45243e-06
5.25351e-06
5.06484e-06
4.89252e-06
4.72781e-06
4.57743e-06
4.43297e-06
4.30101e-06
4.17398e-06
4.05734e-06
3.94547e-06
3.8415e-06
3.74297e-06
3.64961e-06
3.56276e-06
3.47857e-06
3.40185e-06
3.32585e-06
3.258e-06
3.18939e-06
3.12959e-06
3.06779e-06
3.0155e-06
2.96123e-06
2.9154e-06
2.87649e-06
2.82603e-06
2.87855e-06
2.86838e-06
2.01331e-05
1.54695e-05
9.63466e-06
9.39668e-06
9.49104e-06
9.49012e-06
9.43145e-06
9.29264e-06
9.05322e-06
8.77889e-06
8.4852e-06
8.18711e-06
7.89695e-06
7.61239e-06
7.3375e-06
7.07508e-06
6.82997e-06
6.59379e-06
6.37287e-06
6.15969e-06
5.96108e-06
5.76917e-06
5.59141e-06
5.41908e-06
5.26049e-06
5.10548e-06
4.96363e-06
4.82474e-06
4.69801e-06
4.57351e-06
4.45981e-06
4.34809e-06
4.24565e-06
4.14523e-06
4.05276e-06
3.96214e-06
3.87885e-06
3.79653e-06
3.72194e-06
3.64658e-06
3.58039e-06
3.51081e-06
3.45314e-06
3.38797e-06
3.34016e-06
3.27713e-06
3.24423e-06
3.17437e-06
3.20249e-06
3.18925e-06
2.01712e-05
1.86771e-05
8.69797e-06
5.54012e-06
5.62955e-06
5.93226e-06
6.29015e-06
6.57446e-06
6.75432e-06
6.86234e-06
6.88209e-06
6.86254e-06
6.81099e-06
6.72122e-06
6.61192e-06
6.48882e-06
6.35274e-06
6.20908e-06
6.06863e-06
5.92431e-06
5.786e-06
5.64618e-06
5.51438e-06
5.38205e-06
5.25829e-06
5.1351e-06
5.0226e-06
4.90864e-06
4.80472e-06
4.69892e-06
4.60302e-06
4.50489e-06
4.41673e-06
4.32563e-06
4.24502e-06
4.16013e-06
4.08706e-06
4.00739e-06
3.94191e-06
3.86647e-06
3.80863e-06
3.73665e-06
3.68677e-06
3.61733e-06
3.57593e-06
3.50827e-06
3.47558e-06
3.40017e-06
3.40671e-06
3.38844e-06
2.01671e-05
1.97242e-05
1.6171e-05
4.86663e-06
3.04258e-06
3.10495e-06
3.37272e-06
3.80163e-06
4.16719e-06
4.48398e-06
4.73133e-06
4.91975e-06
5.06077e-06
5.15958e-06
5.21854e-06
5.25341e-06
5.25678e-06
5.24769e-06
5.22614e-06
5.18471e-06
5.13865e-06
5.08041e-06
5.02188e-06
4.95416e-06
4.88872e-06
4.81546e-06
4.7461e-06
4.67013e-06
4.60052e-06
4.52528e-06
4.45764e-06
4.38421e-06
4.31982e-06
4.24837e-06
4.1881e-06
4.1187e-06
4.06312e-06
3.99554e-06
3.94509e-06
3.87931e-06
3.8346e-06
3.77028e-06
3.73082e-06
3.66767e-06
3.6332e-06
3.57154e-06
3.54128e-06
3.47175e-06
3.46476e-06
3.44095e-06
2.01475e-05
1.99343e-05
1.90668e-05
1.45046e-05
5.25308e-06
2.15619e-06
1.91455e-06
1.99301e-06
2.20539e-06
2.50283e-06
2.77843e-06
3.03002e-06
3.25477e-06
3.44989e-06
3.61353e-06
3.75013e-06
3.86168e-06
3.94802e-06
4.02e-06
4.06971e-06
4.1091e-06
4.13035e-06
4.14627e-06
4.14641e-06
4.14302e-06
4.13272e-06
4.11905e-06
4.09563e-06
4.07361e-06
4.0431e-06
4.01542e-06
3.9799e-06
3.94903e-06
3.90929e-06
3.87768e-06
3.83475e-06
3.80333e-06
3.75804e-06
3.72751e-06
3.68035e-06
3.6507e-06
3.60205e-06
3.57398e-06
3.5245e-06
3.498e-06
3.44808e-06
3.42266e-06
3.36609e-06
3.35313e-06
3.32682e-06
2.01215e-05
1.99661e-05
1.9643e-05
1.85485e-05
1.52202e-05
8.37635e-06
3.11649e-06
1.63482e-06
1.44273e-06
1.44905e-06
1.52513e-06
1.68456e-06
1.8664e-06
2.04171e-06
2.21158e-06
2.36868e-06
2.51589e-06
2.64448e-06
2.76296e-06
2.86385e-06
2.95558e-06
3.03113e-06
3.09917e-06
3.15346e-06
3.20107e-06
3.23774e-06
3.27054e-06
3.29314e-06
3.31292e-06
3.3246e-06
3.33381e-06
3.33742e-06
3.33717e-06
3.33434e-06
3.32984e-06
3.31937e-06
3.31167e-06
3.29537e-06
3.28513e-06
3.26425e-06
3.25195e-06
3.22734e-06
3.21323e-06
3.18514e-06
3.1694e-06
3.13793e-06
3.12028e-06
3.08167e-06
3.06647e-06
3.04361e-06
2.00981e-05
1.99327e-05
1.97577e-05
1.93538e-05
1.85092e-05
1.65439e-05
1.23457e-05
6.88255e-06
3.00238e-06
1.49701e-06
1.24398e-06
1.1476e-06
1.15122e-06
1.19278e-06
1.28436e-06
1.38937e-06
1.50191e-06
1.60941e-06
1.71933e-06
1.82186e-06
1.92155e-06
2.01199e-06
2.09808e-06
2.17479e-06
2.24714e-06
2.31029e-06
2.36966e-06
2.42075e-06
2.46827e-06
2.5085e-06
2.54568e-06
2.57637e-06
2.60486e-06
2.62657e-06
2.64828e-06
2.66238e-06
2.67781e-06
2.68573e-06
2.69522e-06
2.69836e-06
2.70176e-06
2.70098e-06
2.69921e-06
2.69398e-06
2.68886e-06
2.67754e-06
2.6688e-06
2.64896e-06
2.63756e-06
2.62067e-06
2.00781e-05
1.98876e-05
1.97573e-05
1.94622e-05
1.91477e-05
1.86442e-05
1.75623e-05
1.54383e-05
1.17655e-05
7.47614e-06
4.00788e-06
1.92811e-06
1.21206e-06
1.05799e-06
9.83037e-07
9.41797e-07
9.52389e-07
9.84806e-07
1.04679e-06
1.10887e-06
1.17745e-06
1.24541e-06
1.3152e-06
1.38296e-06
1.45069e-06
1.51383e-06
1.5758e-06
1.63273e-06
1.68804e-06
1.73809e-06
1.78676e-06
1.82979e-06
1.87191e-06
1.90797e-06
1.94376e-06
1.97347e-06
2.0031e-06
2.02706e-06
2.05077e-06
2.06944e-06
2.08752e-06
2.10095e-06
2.1137e-06
2.122e-06
2.12899e-06
2.13246e-06
2.13212e-06
2.12857e-06
2.12374e-06
2.11366e-06
2.00613e-05
1.9854e-05
1.97348e-05
1.94725e-05
1.9257e-05
1.9049e-05
1.87388e-05
1.81956e-05
1.71069e-05
1.52491e-05
1.25961e-05
9.27443e-06
6.01461e-06
3.51273e-06
1.90321e-06
1.17594e-06
9.66674e-07
8.91771e-07
8.37788e-07
7.9569e-07
7.96726e-07
8.09084e-07
8.37422e-07
8.74594e-07
9.13909e-07
9.54289e-07
9.97501e-07
1.03988e-06
1.08416e-06
1.12661e-06
1.16978e-06
1.20987e-06
1.25019e-06
1.28696e-06
1.32388e-06
1.35694e-06
1.3901e-06
1.41924e-06
1.4484e-06
1.4733e-06
1.49831e-06
1.5186e-06
1.53921e-06
1.55482e-06
1.57027e-06
1.5808e-06
1.59033e-06
1.59474e-06
1.59535e-06
1.59212e-06
2.00474e-05
1.98304e-05
1.97082e-05
1.94504e-05
1.9274e-05
1.91169e-05
1.89675e-05
1.87529e-05
1.84661e-05
1.79188e-05
1.70883e-05
1.57206e-05
1.39117e-05
1.15763e-05
8.90909e-06
6.30567e-06
4.12842e-06
2.54622e-06
1.53321e-06
1.04296e-06
8.66837e-07
8.01098e-07
7.53261e-07
7.12293e-07
6.8207e-07
6.76156e-07
6.81121e-07
6.93472e-07
7.14384e-07
7.36138e-07
7.6016e-07
7.83663e-07
8.09527e-07
8.34927e-07
8.6182e-07
8.87501e-07
9.14306e-07
9.39021e-07
9.64352e-07
9.87044e-07
1.01017e-06
1.03009e-06
1.05053e-06
1.06732e-06
1.08429e-06
1.09701e-06
1.11004e-06
1.11704e-06
1.12435e-06
1.12389e-06
2.00361e-05
1.98126e-05
1.96857e-05
1.94202e-05
1.926e-05
1.91106e-05
1.90024e-05
1.88515e-05
1.87146e-05
1.85039e-05
1.82521e-05
1.78396e-05
1.72432e-05
1.63789e-05
1.51894e-05
1.36644e-05
1.18721e-05
9.80366e-06
7.67037e-06
5.67695e-06
3.99071e-06
2.7022e-06
1.77241e-06
1.19094e-06
8.96886e-07
7.71747e-07
7.15336e-07
6.77763e-07
6.43058e-07
6.11795e-07
5.90702e-07
5.7914e-07
5.79932e-07
5.83939e-07
5.92681e-07
6.03781e-07
6.16635e-07
6.28969e-07
6.42324e-07
6.55127e-07
6.68755e-07
6.81904e-07
6.95431e-07
7.081e-07
7.20434e-07
7.31448e-07
7.41578e-07
7.49172e-07
7.55291e-07
7.56988e-07
2.00271e-05
1.97987e-05
1.96666e-05
1.93984e-05
1.92344e-05
1.90833e-05
1.89844e-05
1.8855e-05
1.87388e-05
1.8599e-05
1.8463e-05
1.82928e-05
1.8086e-05
1.78007e-05
1.74189e-05
1.68796e-05
1.61796e-05
1.52675e-05
1.41406e-05
1.28116e-05
1.13314e-05
9.69041e-06
7.99925e-06
6.37268e-06
4.89531e-06
3.64839e-06
2.65699e-06
1.89166e-06
1.34147e-06
9.90952e-07
7.96847e-07
6.98584e-07
6.48132e-07
6.15339e-07
5.88716e-07
5.62597e-07
5.39007e-07
5.19437e-07
5.06253e-07
4.98049e-07
4.95617e-07
4.96409e-07
4.9859e-07
5.03038e-07
5.0715e-07
5.12367e-07
5.15982e-07
5.20277e-07
5.22443e-07
5.2523e-07
2.00199e-05
1.97902e-05
1.96464e-05
1.93822e-05
1.92106e-05
1.90546e-05
1.89465e-05
1.88289e-05
1.87172e-05
1.85925e-05
1.84745e-05
1.83485e-05
1.82245e-05
1.80814e-05
1.79257e-05
1.77281e-05
1.74863e-05
1.71705e-05
1.67709e-05
1.62561e-05
1.5629e-05
1.48643e-05
1.39637e-05
1.29309e-05
1.17978e-05
1.05775e-05
9.27645e-06
7.95776e-06
6.67181e-06
5.47356e-06
4.39213e-06
3.46483e-06
2.69895e-06
2.07463e-06
1.57985e-06
1.20869e-06
9.49043e-07
7.8219e-07
6.80763e-07
6.20982e-07
5.84347e-07
5.59503e-07
5.39504e-07
5.22635e-07
5.06725e-07
4.93525e-07
4.8042e-07
4.72696e-07
4.66855e-07
4.68024e-07
2.00144e-05
1.97902e-05
1.96202e-05
1.93689e-05
1.91902e-05
1.90282e-05
1.89107e-05
1.87931e-05
1.86773e-05
1.85572e-05
1.84439e-05
1.83271e-05
1.82148e-05
1.80964e-05
1.79824e-05
1.78618e-05
1.7737e-05
1.75957e-05
1.74371e-05
1.7246e-05
1.7018e-05
1.674e-05
1.64029e-05
1.59961e-05
1.5513e-05
1.49518e-05
1.43055e-05
1.35738e-05
1.2767e-05
1.18895e-05
1.0968e-05
1.00037e-05
9.00296e-06
7.99872e-06
7.01492e-06
6.07882e-06
5.20487e-06
4.41689e-06
3.71014e-06
3.10754e-06
2.59675e-06
2.16903e-06
1.81598e-06
1.53238e-06
1.31216e-06
1.14977e-06
1.03393e-06
9.66116e-07
9.27868e-07
9.25553e-07
2.00102e-05
1.97943e-05
1.95934e-05
1.93553e-05
1.91717e-05
1.90031e-05
1.88774e-05
1.87577e-05
1.86375e-05
1.85151e-05
1.83982e-05
1.82816e-05
1.81702e-05
1.80584e-05
1.795e-05
1.78426e-05
1.77343e-05
1.76265e-05
1.75187e-05
1.7408e-05
1.72912e-05
1.71657e-05
1.70247e-05
1.68658e-05
1.66814e-05
1.64695e-05
1.62207e-05
1.59347e-05
1.56042e-05
1.52248e-05
1.48004e-05
1.43253e-05
1.38027e-05
1.32315e-05
1.26183e-05
1.19683e-05
1.12912e-05
1.05929e-05
9.89188e-06
9.18169e-06
8.47434e-06
7.792e-06
7.13675e-06
6.53358e-06
5.97912e-06
5.50062e-06
5.08282e-06
4.76153e-06
4.49444e-06
4.32536e-06
2.0007e-05
1.98018e-05
1.95689e-05
1.93421e-05
1.91544e-05
1.89797e-05
1.88458e-05
1.87237e-05
1.8599e-05
1.8474e-05
1.83521e-05
1.82337e-05
1.81184e-05
1.80044e-05
1.78937e-05
1.77871e-05
1.76815e-05
1.758e-05
1.74786e-05
1.73811e-05
1.72814e-05
1.7185e-05
1.70858e-05
1.69888e-05
1.6886e-05
1.6783e-05
1.66662e-05
1.65466e-05
1.64102e-05
1.6258e-05
1.60925e-05
1.59027e-05
1.5693e-05
1.54598e-05
1.51991e-05
1.49165e-05
1.46009e-05
1.42678e-05
1.39052e-05
1.3524e-05
1.31203e-05
1.27096e-05
1.22768e-05
1.18511e-05
1.14218e-05
1.10147e-05
1.06176e-05
1.02694e-05
9.95384e-06
9.70556e-06
2.00046e-05
1.98103e-05
1.95459e-05
1.93289e-05
1.91377e-05
1.89578e-05
1.88155e-05
1.86909e-05
1.85621e-05
1.84345e-05
1.83077e-05
1.81867e-05
1.80675e-05
1.79506e-05
1.78362e-05
1.77279e-05
1.76176e-05
1.75142e-05
1.74101e-05
1.73127e-05
1.72141e-05
1.71235e-05
1.70297e-05
1.69423e-05
1.68522e-05
1.67693e-05
1.66762e-05
1.65952e-05
1.65065e-05
1.64175e-05
1.63307e-05
1.62358e-05
1.61375e-05
1.60352e-05
1.59222e-05
1.58063e-05
1.56721e-05
1.5539e-05
1.53875e-05
1.52265e-05
1.50547e-05
1.48788e-05
1.46817e-05
1.44846e-05
1.42785e-05
1.40723e-05
1.3859e-05
1.36597e-05
1.34629e-05
1.32918e-05
2.00029e-05
1.98192e-05
1.95247e-05
1.93152e-05
1.91213e-05
1.89374e-05
1.87866e-05
1.86592e-05
1.8527e-05
1.83968e-05
1.82656e-05
1.81418e-05
1.80186e-05
1.78988e-05
1.77805e-05
1.76702e-05
1.75558e-05
1.74501e-05
1.73418e-05
1.72428e-05
1.71395e-05
1.70461e-05
1.69493e-05
1.68597e-05
1.67689e-05
1.66876e-05
1.65983e-05
1.65239e-05
1.64412e-05
1.63628e-05
1.62893e-05
1.62128e-05
1.61356e-05
1.60629e-05
1.59879e-05
1.59161e-05
1.58376e-05
1.57679e-05
1.56895e-05
1.56096e-05
1.55296e-05
1.54513e-05
1.53605e-05
1.52731e-05
1.51818e-05
1.50903e-05
1.49901e-05
1.48967e-05
1.47947e-05
1.47022e-05
2.00017e-05
1.98276e-05
1.95054e-05
1.93006e-05
1.91046e-05
1.89184e-05
1.87593e-05
1.86288e-05
1.84938e-05
1.83611e-05
1.8226e-05
1.80995e-05
1.79726e-05
1.785e-05
1.77282e-05
1.76156e-05
1.74974e-05
1.73894e-05
1.72772e-05
1.71764e-05
1.70693e-05
1.69733e-05
1.68737e-05
1.67801e-05
1.66875e-05
1.66015e-05
1.65089e-05
1.64313e-05
1.63455e-05
1.62655e-05
1.61909e-05
1.61154e-05
1.60409e-05
1.59735e-05
1.59041e-05
1.58383e-05
1.577e-05
1.57115e-05
1.56466e-05
1.55847e-05
1.55246e-05
1.547e-05
1.54073e-05
1.53519e-05
1.52953e-05
1.52425e-05
1.51814e-05
1.51279e-05
1.50666e-05
1.50101e-05
2.00009e-05
1.98306e-05
1.94893e-05
1.92856e-05
1.90879e-05
1.89012e-05
1.8734e-05
1.86e-05
1.8463e-05
1.83281e-05
1.81895e-05
1.80605e-05
1.79302e-05
1.7805e-05
1.768e-05
1.75651e-05
1.74437e-05
1.73333e-05
1.72175e-05
1.7115e-05
1.70046e-05
1.69062e-05
1.68044e-05
1.67072e-05
1.66131e-05
1.65232e-05
1.64289e-05
1.63478e-05
1.62585e-05
1.61763e-05
1.60979e-05
1.60195e-05
1.594e-05
1.58702e-05
1.57974e-05
1.57285e-05
1.56596e-05
1.55994e-05
1.55335e-05
1.54739e-05
1.54164e-05
1.53653e-05
1.53066e-05
1.52566e-05
1.52053e-05
1.51595e-05
1.51051e-05
1.50595e-05
1.50087e-05
1.49615e-05
2.00003e-05
1.9829e-05
1.94763e-05
1.927e-05
1.90712e-05
1.88859e-05
1.87113e-05
1.85733e-05
1.84347e-05
1.82979e-05
1.81566e-05
1.80253e-05
1.78918e-05
1.77646e-05
1.76367e-05
1.75196e-05
1.73955e-05
1.72828e-05
1.71638e-05
1.70597e-05
1.69463e-05
1.6846e-05
1.67419e-05
1.6642e-05
1.65463e-05
1.64534e-05
1.63579e-05
1.6274e-05
1.61818e-05
1.60983e-05
1.60168e-05
1.5936e-05
1.58535e-05
1.57819e-05
1.57051e-05
1.56337e-05
1.55625e-05
1.54991e-05
1.54295e-05
1.53684e-05
1.53076e-05
1.52533e-05
1.5192e-05
1.51411e-05
1.5088e-05
1.50409e-05
1.49857e-05
1.49399e-05
1.48892e-05
1.48417e-05
2e-05
1.98272e-05
1.94651e-05
1.92528e-05
1.90537e-05
1.8872e-05
1.8691e-05
1.85489e-05
1.8409e-05
1.8271e-05
1.81275e-05
1.79942e-05
1.78581e-05
1.77293e-05
1.7599e-05
1.74801e-05
1.73536e-05
1.72389e-05
1.71172e-05
1.70116e-05
1.68957e-05
1.67937e-05
1.66874e-05
1.65855e-05
1.64881e-05
1.63928e-05
1.62964e-05
1.62101e-05
1.61156e-05
1.60314e-05
1.59473e-05
1.58645e-05
1.57804e-05
1.57074e-05
1.56275e-05
1.55548e-05
1.5482e-05
1.5416e-05
1.53439e-05
1.52818e-05
1.52189e-05
1.51617e-05
1.50981e-05
1.50461e-05
1.49905e-05
1.49408e-05
1.48834e-05
1.48365e-05
1.47833e-05
1.4734e-05
1.99999e-05
1.98259e-05
1.9457e-05
1.92352e-05
1.90361e-05
1.88599e-05
1.86738e-05
1.85275e-05
1.83865e-05
1.82478e-05
1.81028e-05
1.79679e-05
1.78296e-05
1.76998e-05
1.75676e-05
1.74472e-05
1.73188e-05
1.72026e-05
1.70786e-05
1.69718e-05
1.68539e-05
1.67506e-05
1.66421e-05
1.65389e-05
1.64399e-05
1.63429e-05
1.62456e-05
1.61572e-05
1.60609e-05
1.59763e-05
1.589e-05
1.58055e-05
1.57205e-05
1.56461e-05
1.5564e-05
1.54906e-05
1.54167e-05
1.53487e-05
1.5275e-05
1.52125e-05
1.51485e-05
1.50889e-05
1.50241e-05
1.49717e-05
1.4914e-05
1.48624e-05
1.48035e-05
1.4756e-05
1.47003e-05
1.46492e-05
1.99999e-05
1.98251e-05
1.94518e-05
1.92182e-05
1.90194e-05
1.88497e-05
1.86603e-05
1.85097e-05
1.83677e-05
1.8229e-05
1.80832e-05
1.79471e-05
1.78073e-05
1.76768e-05
1.75434e-05
1.74217e-05
1.7292e-05
1.71746e-05
1.70491e-05
1.69412e-05
1.68218e-05
1.67176e-05
1.66072e-05
1.65033e-05
1.64029e-05
1.63046e-05
1.62067e-05
1.61167e-05
1.60191e-05
1.59341e-05
1.5846e-05
1.576e-05
1.56748e-05
1.5599e-05
1.55153e-05
1.54415e-05
1.53668e-05
1.52972e-05
1.52226e-05
1.516e-05
1.50952e-05
1.50336e-05
1.49685e-05
1.49158e-05
1.48565e-05
1.48037e-05
1.47437e-05
1.46957e-05
1.46381e-05
1.45854e-05
1.99999e-05
1.98247e-05
1.94492e-05
1.92028e-05
1.90041e-05
1.88415e-05
1.8651e-05
1.84962e-05
1.83532e-05
1.8215e-05
1.80692e-05
1.79324e-05
1.77916e-05
1.7661e-05
1.75268e-05
1.74046e-05
1.72739e-05
1.71559e-05
1.70294e-05
1.69207e-05
1.68004e-05
1.66957e-05
1.65839e-05
1.64798e-05
1.63784e-05
1.62792e-05
1.61809e-05
1.60898e-05
1.59913e-05
1.59061e-05
1.58165e-05
1.57297e-05
1.56445e-05
1.55675e-05
1.54827e-05
1.54088e-05
1.53333e-05
1.52625e-05
1.51874e-05
1.5125e-05
1.50592e-05
1.49963e-05
1.49314e-05
1.48782e-05
1.48176e-05
1.47639e-05
1.47031e-05
1.46547e-05
1.45953e-05
1.45412e-05
1.99999e-05
1.98248e-05
1.94492e-05
1.91898e-05
1.89908e-05
1.88351e-05
1.8646e-05
1.84872e-05
1.83433e-05
1.82061e-05
1.8061e-05
1.79241e-05
1.77831e-05
1.76528e-05
1.75185e-05
1.73961e-05
1.72651e-05
1.71471e-05
1.70202e-05
1.69112e-05
1.67905e-05
1.66857e-05
1.6573e-05
1.64692e-05
1.63673e-05
1.62677e-05
1.61694e-05
1.60776e-05
1.59787e-05
1.58937e-05
1.58028e-05
1.57157e-05
1.56306e-05
1.55529e-05
1.54673e-05
1.53936e-05
1.53175e-05
1.52459e-05
1.51707e-05
1.51086e-05
1.50416e-05
1.49782e-05
1.49134e-05
1.48598e-05
1.47981e-05
1.47435e-05
1.46822e-05
1.46334e-05
1.45723e-05
1.45171e-05
1.99999e-05
1.98252e-05
1.94513e-05
1.91795e-05
1.89796e-05
1.88302e-05
1.86451e-05
1.84831e-05
1.83381e-05
1.82025e-05
1.80588e-05
1.79226e-05
1.77821e-05
1.76526e-05
1.75189e-05
1.73968e-05
1.72661e-05
1.71486e-05
1.7022e-05
1.6913e-05
1.67924e-05
1.6688e-05
1.6575e-05
1.64717e-05
1.63699e-05
1.62703e-05
1.61722e-05
1.60802e-05
1.59815e-05
1.58968e-05
1.58053e-05
1.57182e-05
1.56336e-05
1.55555e-05
1.54696e-05
1.53963e-05
1.53199e-05
1.5248e-05
1.5173e-05
1.51112e-05
1.50431e-05
1.49799e-05
1.49152e-05
1.48612e-05
1.47984e-05
1.4743e-05
1.46814e-05
1.46319e-05
1.45689e-05
1.45126e-05
1.99999e-05
1.98262e-05
1.94557e-05
1.91728e-05
1.89709e-05
1.88269e-05
1.86478e-05
1.84836e-05
1.83378e-05
1.8204e-05
1.80623e-05
1.79274e-05
1.77875e-05
1.76593e-05
1.75264e-05
1.74052e-05
1.72751e-05
1.71586e-05
1.70328e-05
1.69244e-05
1.68042e-05
1.67007e-05
1.65879e-05
1.64858e-05
1.63845e-05
1.62854e-05
1.61878e-05
1.60962e-05
1.5998e-05
1.5914e-05
1.58221e-05
1.57356e-05
1.56518e-05
1.55735e-05
1.54875e-05
1.5415e-05
1.53385e-05
1.52665e-05
1.5192e-05
1.51306e-05
1.50616e-05
1.49989e-05
1.49344e-05
1.48803e-05
1.48163e-05
1.47606e-05
1.46989e-05
1.46487e-05
1.45837e-05
1.45268e-05
1.99999e-05
1.98276e-05
1.94621e-05
1.91696e-05
1.89651e-05
1.88248e-05
1.86541e-05
1.84887e-05
1.83419e-05
1.82099e-05
1.80709e-05
1.79381e-05
1.77997e-05
1.76734e-05
1.75422e-05
1.74225e-05
1.72939e-05
1.71793e-05
1.70547e-05
1.69475e-05
1.68285e-05
1.67265e-05
1.66144e-05
1.6514e-05
1.64139e-05
1.63158e-05
1.62193e-05
1.61286e-05
1.60316e-05
1.59487e-05
1.58567e-05
1.57715e-05
1.56888e-05
1.56105e-05
1.5525e-05
1.54535e-05
1.53772e-05
1.53055e-05
1.52317e-05
1.51707e-05
1.51009e-05
1.50392e-05
1.49747e-05
1.49204e-05
1.48551e-05
1.47992e-05
1.47374e-05
1.46859e-05
1.46191e-05
1.45614e-05
1.99999e-05
1.98294e-05
1.94701e-05
1.91701e-05
1.8962e-05
1.88244e-05
1.86629e-05
1.84984e-05
1.83508e-05
1.82208e-05
1.80848e-05
1.79548e-05
1.78184e-05
1.76944e-05
1.75652e-05
1.74475e-05
1.73209e-05
1.72086e-05
1.70857e-05
1.69802e-05
1.68628e-05
1.67628e-05
1.66519e-05
1.65539e-05
1.64553e-05
1.63586e-05
1.62637e-05
1.61745e-05
1.60791e-05
1.59977e-05
1.59061e-05
1.58226e-05
1.57414e-05
1.56634e-05
1.55788e-05
1.55088e-05
1.5433e-05
1.53619e-05
1.5289e-05
1.52285e-05
1.51585e-05
1.50979e-05
1.50336e-05
1.4979e-05
1.49126e-05
1.48569e-05
1.47948e-05
1.47418e-05
1.46734e-05
1.46148e-05
1.99999e-05
1.98317e-05
1.94796e-05
1.9174e-05
1.89619e-05
1.88254e-05
1.86738e-05
1.85118e-05
1.83638e-05
1.82356e-05
1.81029e-05
1.79763e-05
1.78423e-05
1.7721e-05
1.75942e-05
1.74791e-05
1.73549e-05
1.72454e-05
1.71246e-05
1.70214e-05
1.69062e-05
1.68085e-05
1.66993e-05
1.66041e-05
1.65075e-05
1.64127e-05
1.63198e-05
1.62325e-05
1.61392e-05
1.60595e-05
1.59689e-05
1.58877e-05
1.5808e-05
1.57307e-05
1.56475e-05
1.55793e-05
1.55041e-05
1.54339e-05
1.53622e-05
1.53023e-05
1.52324e-05
1.5173e-05
1.5109e-05
1.50539e-05
1.49867e-05
1.49315e-05
1.48688e-05
1.48142e-05
1.47443e-05
1.46848e-05
1.99999e-05
1.98345e-05
1.94897e-05
1.91817e-05
1.89647e-05
1.88283e-05
1.86862e-05
1.85285e-05
1.83806e-05
1.82539e-05
1.81246e-05
1.80019e-05
1.78707e-05
1.77524e-05
1.76283e-05
1.75162e-05
1.73949e-05
1.72885e-05
1.717e-05
1.70697e-05
1.69571e-05
1.68621e-05
1.6755e-05
1.66632e-05
1.65688e-05
1.64763e-05
1.63859e-05
1.6301e-05
1.62101e-05
1.61325e-05
1.60433e-05
1.59648e-05
1.58868e-05
1.58103e-05
1.57291e-05
1.5663e-05
1.55885e-05
1.55194e-05
1.54491e-05
1.53899e-05
1.53206e-05
1.52624e-05
1.51986e-05
1.51429e-05
1.50753e-05
1.50206e-05
1.4957e-05
1.49009e-05
1.48297e-05
1.47695e-05
1.99999e-05
1.98375e-05
1.95006e-05
1.91922e-05
1.89706e-05
1.88334e-05
1.86997e-05
1.85481e-05
1.84009e-05
1.82755e-05
1.81495e-05
1.80309e-05
1.79028e-05
1.77878e-05
1.76666e-05
1.75578e-05
1.74397e-05
1.73368e-05
1.72209e-05
1.71238e-05
1.70142e-05
1.69223e-05
1.68174e-05
1.67294e-05
1.66374e-05
1.65478e-05
1.64603e-05
1.6378e-05
1.62899e-05
1.62147e-05
1.61272e-05
1.60519e-05
1.59756e-05
1.59003e-05
1.58215e-05
1.57576e-05
1.56839e-05
1.56161e-05
1.55474e-05
1.5489e-05
1.54205e-05
1.53635e-05
1.52998e-05
1.52435e-05
1.51758e-05
1.51218e-05
1.5057e-05
1.49995e-05
1.4927e-05
1.48663e-05
1.99999e-05
1.98408e-05
1.95117e-05
1.92053e-05
1.89793e-05
1.88407e-05
1.8714e-05
1.85698e-05
1.8424e-05
1.82996e-05
1.81768e-05
1.80626e-05
1.79378e-05
1.78263e-05
1.77081e-05
1.76028e-05
1.74883e-05
1.7389e-05
1.72758e-05
1.71824e-05
1.70759e-05
1.69873e-05
1.6885e-05
1.68011e-05
1.67117e-05
1.66252e-05
1.6541e-05
1.64616e-05
1.63765e-05
1.63041e-05
1.62187e-05
1.61467e-05
1.60722e-05
1.59984e-05
1.59225e-05
1.58608e-05
1.57879e-05
1.57216e-05
1.56546e-05
1.55972e-05
1.55297e-05
1.54739e-05
1.54099e-05
1.53534e-05
1.52858e-05
1.52321e-05
1.5166e-05
1.51072e-05
1.50336e-05
1.49724e-05
1.99999e-05
1.98442e-05
1.95229e-05
1.92203e-05
1.89907e-05
1.88502e-05
1.87289e-05
1.85929e-05
1.84494e-05
1.8326e-05
1.82061e-05
1.80961e-05
1.79749e-05
1.78671e-05
1.77519e-05
1.76503e-05
1.75395e-05
1.7444e-05
1.73335e-05
1.72441e-05
1.71409e-05
1.70558e-05
1.69561e-05
1.68766e-05
1.67899e-05
1.67069e-05
1.66264e-05
1.65501e-05
1.64681e-05
1.63985e-05
1.63157e-05
1.62472e-05
1.61743e-05
1.61024e-05
1.60297e-05
1.59701e-05
1.5898e-05
1.58335e-05
1.57683e-05
1.5712e-05
1.56456e-05
1.55908e-05
1.55264e-05
1.54697e-05
1.54025e-05
1.53489e-05
1.52815e-05
1.52216e-05
1.51469e-05
1.50853e-05
1.99999e-05
1.98477e-05
1.9534e-05
1.92368e-05
1.90044e-05
1.8862e-05
1.87443e-05
1.86168e-05
1.84764e-05
1.83541e-05
1.82369e-05
1.8131e-05
1.80133e-05
1.79093e-05
1.77973e-05
1.76995e-05
1.75923e-05
1.75006e-05
1.7393e-05
1.73078e-05
1.72078e-05
1.71263e-05
1.70295e-05
1.69546e-05
1.68705e-05
1.67914e-05
1.67146e-05
1.66414e-05
1.65627e-05
1.64962e-05
1.64161e-05
1.63513e-05
1.62801e-05
1.62104e-05
1.6141e-05
1.60832e-05
1.6012e-05
1.59495e-05
1.58863e-05
1.5831e-05
1.57657e-05
1.57116e-05
1.56469e-05
1.55903e-05
1.55235e-05
1.54698e-05
1.54008e-05
1.534e-05
1.52647e-05
1.52024e-05
1.99999e-05
1.98512e-05
1.9545e-05
1.92545e-05
1.90202e-05
1.88759e-05
1.87602e-05
1.86411e-05
1.85046e-05
1.83835e-05
1.82689e-05
1.81666e-05
1.80525e-05
1.79523e-05
1.78434e-05
1.77495e-05
1.76459e-05
1.75579e-05
1.74534e-05
1.73724e-05
1.72754e-05
1.71976e-05
1.71039e-05
1.70337e-05
1.69519e-05
1.68773e-05
1.68043e-05
1.67341e-05
1.66589e-05
1.65955e-05
1.65183e-05
1.64573e-05
1.63876e-05
1.63204e-05
1.62544e-05
1.61982e-05
1.61279e-05
1.60677e-05
1.60064e-05
1.5952e-05
1.58876e-05
1.5834e-05
1.57691e-05
1.57128e-05
1.56463e-05
1.55923e-05
1.55218e-05
1.54603e-05
1.53846e-05
1.53214e-05
1.99999e-05
1.98547e-05
1.95557e-05
1.92728e-05
1.90378e-05
1.88915e-05
1.87766e-05
1.86652e-05
1.85334e-05
1.84139e-05
1.83016e-05
1.82024e-05
1.80919e-05
1.79956e-05
1.78898e-05
1.77997e-05
1.76995e-05
1.76152e-05
1.75137e-05
1.7437e-05
1.73428e-05
1.72686e-05
1.71782e-05
1.71127e-05
1.7033e-05
1.69632e-05
1.68937e-05
1.68266e-05
1.67551e-05
1.66949e-05
1.66209e-05
1.65635e-05
1.64951e-05
1.64309e-05
1.6368e-05
1.6313e-05
1.62439e-05
1.61864e-05
1.61267e-05
1.6073e-05
1.60095e-05
1.59562e-05
1.58912e-05
1.58354e-05
1.57692e-05
1.57144e-05
1.56424e-05
1.55806e-05
1.55043e-05
1.544e-05
1.99999e-05
1.98581e-05
1.9566e-05
1.92912e-05
1.90566e-05
1.89087e-05
1.87936e-05
1.8689e-05
1.85622e-05
1.84449e-05
1.83346e-05
1.82382e-05
1.8131e-05
1.80386e-05
1.79359e-05
1.78494e-05
1.77525e-05
1.76717e-05
1.75734e-05
1.75007e-05
1.7409e-05
1.73386e-05
1.72516e-05
1.71905e-05
1.71129e-05
1.70482e-05
1.69818e-05
1.69179e-05
1.68502e-05
1.67931e-05
1.67226e-05
1.66684e-05
1.66013e-05
1.65405e-05
1.64804e-05
1.64261e-05
1.63586e-05
1.63041e-05
1.62455e-05
1.61923e-05
1.61295e-05
1.60766e-05
1.60116e-05
1.59564e-05
1.58902e-05
1.58343e-05
1.5761e-05
1.56994e-05
1.56221e-05
1.55563e-05
1.99999e-05
1.98615e-05
1.95761e-05
1.93094e-05
1.90764e-05
1.89271e-05
1.88111e-05
1.87121e-05
1.85907e-05
1.84763e-05
1.83676e-05
1.82735e-05
1.81697e-05
1.8081e-05
1.79813e-05
1.78983e-05
1.78042e-05
1.77269e-05
1.76319e-05
1.75629e-05
1.74734e-05
1.74069e-05
1.73234e-05
1.72662e-05
1.71908e-05
1.71312e-05
1.70675e-05
1.70071e-05
1.69432e-05
1.68893e-05
1.68223e-05
1.67708e-05
1.6705e-05
1.66481e-05
1.659e-05
1.65363e-05
1.64711e-05
1.64193e-05
1.63613e-05
1.63084e-05
1.62465e-05
1.61938e-05
1.6129e-05
1.60744e-05
1.60078e-05
1.59507e-05
1.58765e-05
1.58153e-05
1.57368e-05
1.56692e-05
1.99999e-05
1.98646e-05
1.95858e-05
1.93271e-05
1.90968e-05
1.89464e-05
1.88292e-05
1.87347e-05
1.86185e-05
1.85076e-05
1.84003e-05
1.83083e-05
1.82077e-05
1.81224e-05
1.80256e-05
1.79459e-05
1.78545e-05
1.77805e-05
1.76887e-05
1.7623e-05
1.75357e-05
1.74728e-05
1.73929e-05
1.73392e-05
1.7266e-05
1.72116e-05
1.71499e-05
1.70937e-05
1.70332e-05
1.69825e-05
1.69191e-05
1.68698e-05
1.68056e-05
1.67528e-05
1.66959e-05
1.66429e-05
1.65805e-05
1.65309e-05
1.64729e-05
1.64206e-05
1.63595e-05
1.63069e-05
1.62424e-05
1.61884e-05
1.61208e-05
1.60627e-05
1.59881e-05
1.59265e-05
1.58466e-05
1.57779e-05
1.99999e-05
1.98676e-05
1.95951e-05
1.93439e-05
1.91173e-05
1.89664e-05
1.88478e-05
1.87567e-05
1.86454e-05
1.85385e-05
1.84325e-05
1.83423e-05
1.82449e-05
1.81627e-05
1.80686e-05
1.79921e-05
1.79031e-05
1.78322e-05
1.77437e-05
1.76806e-05
1.75955e-05
1.75362e-05
1.74597e-05
1.7409e-05
1.73381e-05
1.72889e-05
1.72287e-05
1.71773e-05
1.71198e-05
1.70723e-05
1.70123e-05
1.69646e-05
1.69027e-05
1.68537e-05
1.67972e-05
1.67456e-05
1.66861e-05
1.66378e-05
1.65796e-05
1.65283e-05
1.64678e-05
1.64151e-05
1.63511e-05
1.62974e-05
1.62286e-05
1.61697e-05
1.60949e-05
1.60325e-05
1.59507e-05
1.58813e-05
1.99999e-05
1.98705e-05
1.9604e-05
1.93599e-05
1.91376e-05
1.89868e-05
1.88668e-05
1.87782e-05
1.86713e-05
1.85687e-05
1.84642e-05
1.83757e-05
1.82812e-05
1.82016e-05
1.81101e-05
1.80366e-05
1.79499e-05
1.78819e-05
1.77964e-05
1.77356e-05
1.76529e-05
1.75967e-05
1.75234e-05
1.74751e-05
1.74069e-05
1.73626e-05
1.73036e-05
1.72575e-05
1.72024e-05
1.7158e-05
1.71013e-05
1.7055e-05
1.6996e-05
1.69502e-05
1.68935e-05
1.6844e-05
1.67872e-05
1.67392e-05
1.66811e-05
1.66311e-05
1.65708e-05
1.6518e-05
1.64546e-05
1.64007e-05
1.63308e-05
1.62711e-05
1.6196e-05
1.6133e-05
1.60489e-05
1.59789e-05
1.99999e-05
1.98731e-05
1.96124e-05
1.93749e-05
1.91575e-05
1.90073e-05
1.8886e-05
1.87992e-05
1.86961e-05
1.85981e-05
1.84952e-05
1.84082e-05
1.83164e-05
1.8239e-05
1.81501e-05
1.80794e-05
1.79948e-05
1.79295e-05
1.78466e-05
1.77879e-05
1.77075e-05
1.76541e-05
1.75836e-05
1.75373e-05
1.74722e-05
1.74324e-05
1.73745e-05
1.73339e-05
1.72807e-05
1.72395e-05
1.71854e-05
1.71408e-05
1.70851e-05
1.70416e-05
1.69847e-05
1.69381e-05
1.68831e-05
1.68349e-05
1.67774e-05
1.67286e-05
1.66679e-05
1.66152e-05
1.65525e-05
1.6498e-05
1.6427e-05
1.6367e-05
1.62911e-05
1.62268e-05
1.61414e-05
1.60712e-05
1.99999e-05
1.98756e-05
1.96203e-05
1.93888e-05
1.91767e-05
1.90276e-05
1.89055e-05
1.88197e-05
1.87198e-05
1.86264e-05
1.85255e-05
1.84399e-05
1.83503e-05
1.82748e-05
1.81884e-05