/*--------------------------------*- C++ -*----------------------------------*\
  =========                 |
  \\      /  F ield         | OpenFOAM: The Open Source CFD Toolbox
   \\    /   O peration     | Website:  https://openfoam.org
    \\  /    A nd           | Version:  7
     \\/     M anipulation  |
\*---------------------------------------------------------------------------*/
FoamFile
{
    version     2.0;
    format      ascii;
    class       volScalarField;
    location    "0.46";
    object      nut;
}
// * * * * * * * * * * * * * * * * * * * * * * * * * * * * * * * * * * * * * //

dimensions      [0 2 -1 0 0 0 0];

internalField   nonuniform List<scalar> 
70000
(
0
0
0
0
0
0
0
0
0
0
0
0
0
0
0
0
0
0
0
0
0
0
0
0
0
0
0
0
0
0
0
0
0
0
0
0
0
1.87339e-15
1.7539e-14
4.90903e-14
5.7593e-14
1.19595e-13
8.3607e-14
2.47892e-13
1.33735e-13
5.23367e-13
1.03798e-13
1.40825e-12
0
0
0
0
0
0
0
0
0
0
0
0
0
0
0
0
0
0
0
0
0
0
0
0
0
0
0
0
0
0
0
0
0
0
0
0
0
0
0
2.26308e-14
4.77903e-14
1.02958e-13
1.12513e-13
2.27387e-13
1.57914e-13
4.48974e-13
2.02433e-13
9.65809e-13
1.02737e-13
2.75165e-12
9.50941e-13
0
0
0
0
0
0
0
0
0
0
0
0
0
0
0
0
0
0
0
0
0
0
0
0
0
0
0
0
0
0
0
0
0
0
0
0
0
0
2.13865e-14
4.50466e-14
1.09172e-13
1.06785e-13
2.55365e-13
1.5335e-13
5.17498e-13
8.82595e-14
1.16368e-12
0
3.48076e-12
6.15254e-12
0
0
0
0
0
0
0
0
0
0
0
0
0
0
0
0
0
0
0
0
0
0
0
0
0
0
0
0
0
0
0
0
0
0
0
0
0
0
0
0
0
0
1.33794e-13
0
4.25923e-13
0
1.09163e-12
0
3.25928e-12
1.07332e-11
0
0
0
0
0
0
0
0
0
0
0
0
0
0
0
0
0
0
0
0
0
0
0
0
0
0
0
0
0
0
0
0
0
0
0
0
0
0
0
0
0
0
0
0
2.30517e-13
0
8.50944e-13
0
2.46453e-12
1.28335e-11
0
9.44583e-10
0
0
0
0
0
0
0
0
0
0
0
0
0
0
0
0
0
0
0
0
0
0
0
0
0
0
0
0
0
0
0
0
0
0
0
0
0
0
0
0
0
0
0
0
5.3878e-13
0
1.53946e-12
1.33457e-11
0
1.31816e-08
0
0
0
0
0
0
0
0
0
0
0
0
0
0
0
0
0
0
0
0
0
0
0
0
0
0
0
0
0
0
0
0
0
0
0
0
0
0
0
0
0
0
0
0
1.79854e-13
0
5.48605e-13
1.32337e-11
0
1.20751e-08
0
0
0
0
0
0
0
0
0
0
0
0
0
0
0
0
0
0
0
0
0
0
0
0
0
0
0
0
0
0
0
0
0
0
0
0
0
0
0
0
0
0
0
0
0
0
0
1.2744e-11
0
1.10564e-08
0
0
0
0
0
0
0
0
0
0
0
0
0
0
0
0
0
0
0
0
0
0
0
0
0
0
0
0
0
0
0
0
0
0
0
0
0
0
0
0
0
0
0
0
0
0
0
1.19426e-11
0
1.02085e-08
0
0
0
0
0
0
0
0
0
0
0
0
0
0
0
0
0
0
0
0
0
0
0
0
0
0
0
0
0
0
0
0
0
0
0
0
0
0
0
0
0
0
0
0
0
0
0
1.08945e-11
0
9.49782e-09
0
0
0
0
0
0
0
0
0
0
0
0
0
0
0
0
0
0
0
0
0
0
0
0
0
0
0
0
0
0
0
0
0
0
0
0
0
0
0
0
0
0
0
0
0
0
0
9.70619e-12
0
8.85414e-09
0
0
0
0
0
0
0
0
0
0
0
0
0
0
0
0
0
0
0
0
0
0
0
0
0
0
0
0
0
0
0
0
0
0
0
0
0
0
0
0
0
0
0
0
0
0
0
8.51553e-12
0
8.21181e-09
0
0
0
0
0
0
0
0
0
0
0
0
0
0
0
0
0
0
0
0
0
0
0
0
0
0
0
0
0
0
0
0
0
0
0
0
0
0
0
0
0
0
0
0
0
3.54487e-14
0
7.47033e-12
0
7.55105e-09
0
0
0
0
0
0
0
0
0
0
0
0
0
0
0
0
0
0
0
0
0
0
0
0
0
0
0
0
0
0
0
0
0
0
0
0
0
0
0
0
0
0
0
0
0
8.61143e-13
0
6.76687e-12
0
6.878e-09
0
0
0
0
0
0
0
0
0
0
0
0
0
0
0
0
4.27851e-12
0
0
0
0
0
0
0
0
0
0
0
0
0
0
0
0
0
0
0
0
0
0
0
0
0
0
0
0
2.22516e-12
0
6.78101e-12
0
6.2037e-09
0
0
0
0
0
0
0
0
0
0
0
0
0
0
0
0
0
0
0
0
5.66758e-12
1.38283e-12
0
0
0
0
0
0
0
0
0
0
0
0
0
0
0
0
0
0
0
0
0
0
0
4.81655e-12
0
8.38963e-12
0
5.53667e-09
0
0
0
2.89802e-11
0
0
0
0
0
0
0
0
0
0
0
0
0
0
0
0
0
0
0
0
0
0
0
0
0
0
0
0
0
0
0
0
0
0
0
0
0
0
0
1.99329e-12
1.85113e-12
1.09914e-11
3.76946e-12
1.44144e-11
0
4.88315e-09
0
0
0
1.0665e-10
0
0
0
0
0
0
0
0
0
0
0
0
0
0
0
0
0
0
0
0
0
0
0
0
0
0
0
0
0
0
0
0
0
0
0
0
0
0
0
4.40272e-12
7.31636e-12
2.64559e-11
1.9139e-11
3.47266e-11
6.79269e-12
4.24864e-09
0
0
0
1.54962e-10
0
0
0
0
0
0
0
0
0
0
0
0
0
0
0
0
0
0
0
0
0
0
0
0
0
0
0
0
0
0
0
0
0
0
0
0
0
0
0
0
0
0
0
0
0
3.63823e-09
0
0
0
1.58581e-10
0
0
0
0
0
0
0
0
0
0
0
0
0
0
0
0
0
0
0
0
0
0
0
0
0
0
0
0
0
0
0
0
0
0
0
0
0
0
0
0
0
0
0
0
0
3.05619e-09
0
0
0
9.98342e-11
0
0
0
0
0
0
0
0
0
0
0
0
0
0
0
0
0
0
0
0
0
0
0
0
0
0
0
0
0
0
0
0
0
0
0
0
0
0
0
0
0
0
0
0
0
2.50546e-09
0
0
0
0
0
0
0
0
0
0
0
0
0
0
0
0
0
0
0
0
0
0
0
0
0
0
0
0
0
0
0
0
0
0
0
0
0
0
0
0
0
0
0
0
0
0
0
0
0
1.98735e-09
0
0
0
0
0
0
0
0
0
0
0
0
0
0
0
0
0
0
0
0
0
0
0
0
0
0
0
0
0
0
0
0
0
0
0
0
0
0
0
0
0
0
0
0
0
0
0
0
0
1.50144e-09
0
0
0
0
0
0
0
0
0
0
0
0
0
0
0
0
0
0
0
0
0
0
0
0
0
0
0
0
0
0
0
0
0
0
0
0
0
0
0
0
0
0
0
0
0
0
0
0
0
1.04576e-09
0
0
0
0
0
0
0
0
0
0
0
0
0
0
0
0
0
0
0
0
0
0
0
0
0
0
0
0
0
0
0
0
0
0
0
0
0
0
0
0
0
0
0
0
0
0
0
0
0
6.17142e-10
0
0
0
0
0
0
0
0
0
0
0
0
0
0
0
0
0
0
0
0
0
0
0
0
0
0
0
0
0
0
0
0
0
0
0
0
0
0
0
0
0
0
0
0
0
0
0
0
1.93941e-11
2.11814e-10
0
0
0
0
0
0
0
0
0
0
0
0
0
0
0
0
0
0
0
0
0
0
0
0
0
0
0
0
0
0
0
0
0
0
0
0
0
0
0
0
0
0
0
0
0
0
0
0
1.48025e-10
0
0
0
0
0
0
0
0
0
0
0
0
0
0
0
0
0
0
0
0
0
0
0
0
0
0
0
0
0
0
0
0
0
0
0
0
0
0
0
0
0
0
0
0
0
0
0
0
0
2.92013e-10
0
0
0
0
0
0
0
0
0
0
0
0
0
0
0
0
0
0
0
0
0
0
0
0
0
0
0
0
0
0
0
0
0
0
0
0
0
0
0
0
0
0
0
0
0
0
0
0
5.18101e-11
4.51668e-10
0
0
0
0
0
0
0
0
0
0
0
0
0
0
0
0
0
0
0
0
0
0
0
0
0
0
0
0
0
0
0
0
0
0
0
0
0
0
0
0
0
0
0
0
0
0
0
0
2.0168e-10
6.26767e-10
0
0
0
0
0
0
0
0
0
0
0
0
0
0
0
0
0
0
0
0
0
0
0
0
0
0
0
0
0
0
0
0
0
0
0
0
0
0
0
0
0
0
0
0
0
0
0
0
3.69072e-10
8.16711e-10
0
0
0
0
0
0
0
0
0
0
0
0
0
0
0
0
0
0
0
0
0
0
0
0
0
0
0
0
0
0
0
0
0
0
0
0
0
0
0
0
0
0
0
0
0
0
0
1.08641e-11
5.53752e-10
1.02061e-09
0
5.41346e-10
0
0
0
0
0
0
0
0
0
0
0
0
0
0
0
0
0
0
0
0
0
0
0
0
0
0
0
0
0
0
0
0
0
0
0
0
0
0
0
0
0
0
0
0
0
1.62723e-10
7.54932e-10
1.2371e-09
0
1.43902e-09
0
0
0
0
0
0
0
0
0
0
0
0
0
0
0
0
0
0
0
0
0
0
0
0
0
0
0
0
0
0
0
0
0
0
0
0
0
0
0
0
0
0
0
0
0
3.31935e-10
9.71231e-10
1.46424e-09
0
2.21067e-09
0
0
0
0
0
0
0
0
0
0
0
0
0
0
0
0
0
0
0
0
0
0
0
0
0
0
0
0
0
0
0
0
0
0
0
0
0
0
0
0
0
0
0
0
0
5.1765e-10
1.20086e-09
1.6996e-09
0
2.85914e-09
0
0
0
0
0
0
0
0
0
0
0
0
0
0
0
0
0
0
0
0
0
0
0
0
0
0
0
0
0
0
0
0
0
0
0
0
0
0
0
0
0
0
0
0
1.44836e-10
7.18401e-10
1.44176e-09
1.94067e-09
0
3.39024e-09
0
0
0
0
0
0
0
0
0
0
0
0
0
0
0
0
0
0
0
0
0
0
0
0
0
0
0
0
0
0
0
0
0
0
0
0
0
0
0
0
0
0
0
0
3.13556e-10
9.32004e-10
1.69118e-09
2.18436e-09
0
3.81191e-09
0
0
0
0
0
0
0
0
0
0
0
0
0
0
0
0
0
0
0
0
0
0
0
0
0
0
0
0
0
0
0
0
0
0
0
0
0
0
0
0
0
0
0
0
4.95809e-10
1.15567e-09
1.94533e-09
2.42678e-09
0
4.13283e-09
0
0
0
0
0
0
0
0
0
0
0
0
0
0
0
0
0
0
0
0
0
0
0
0
0
0
0
0
0
0
0
0
0
0
0
0
0
0
0
0
0
0
0
9.50255e-11
6.89726e-10
1.3864e-09
2.20008e-09
2.66393e-09
0
4.36229e-09
0
0
0
0
0
0
0
0
0
0
0
0
0
0
0
0
0
0
0
0
0
0
0
0
0
0
0
0
0
0
0
0
0
0
0
0
0
0
0
0
0
0
0
2.59371e-10
8.92755e-10
1.62119e-09
2.45215e-09
2.89254e-09
0
4.51071e-09
0
0
0
0
0
0
0
0
0
0
0
0
0
0
0
0
0
0
0
0
0
0
0
0
0
0
0
0
0
0
0
0
0
0
0
0
0
0
0
0
0
0
0
4.33846e-10
1.10135e-09
1.85597e-09
2.69777e-09
3.10894e-09
0
4.58951e-09
0
0
0
0
0
0
0
0
0
0
0
0
0
0
0
0
0
0
0
0
0
0
0
0
0
0
0
0
0
0
0
0
0
0
0
0
0
0
0
0
0
0
5.11538e-11
6.15634e-10
1.31182e-09
2.08594e-09
2.93129e-09
3.30787e-09
0
4.60999e-09
0
0
0
0
0
0
0
0
0
0
0
0
0
0
0
0
0
0
0
0
0
0
0
0
0
0
0
0
0
0
0
0
0
0
0
0
0
0
0
0
0
0
2.06415e-10
8.01352e-10
1.52061e-09
2.30798e-09
3.1484e-09
3.48425e-09
0
4.58255e-09
0
0
0
0
0
0
0
0
0
0
0
0
0
0
0
0
0
0
0
0
0
0
0
0
0
0
0
0
0
0
0
0
0
0
0
0
0
0
0
0
0
0
3.67347e-10
9.87686e-10
1.72266e-09
2.51833e-09
3.34747e-09
3.63668e-09
0
4.51622e-09
0
0
0
0
0
0
0
0
0
0
0
0
0
0
0
0
0
0
0
0
0
0
0
0
0
0
0
0
0
0
0
0
0
0
0
0
0
0
0
0
0
0
5.31047e-10
1.17141e-09
1.91365e-09
2.71136e-09
3.52485e-09
3.76464e-09
0
4.41865e-09
0
0
0
0
0
0
0
0
0
0
0
0
0
0
0
0
0
0
0
0
0
0
0
0
0
0
0
0
0
0
0
0
0
0
0
0
0
0
0
0
0
1.10822e-10
6.94326e-10
1.34898e-09
2.09437e-09
2.88625e-09
3.67535e-09
3.86377e-09
0
4.2962e-09
0
0
0
0
0
0
0
0
0
0
0
0
0
0
0
0
0
0
0
0
0
0
0
0
0
0
0
0
0
0
0
0
0
0
0
0
0
0
0
0
0
2.53547e-10
8.53848e-10
1.51693e-09
2.26214e-09
3.04085e-09
3.79583e-09
3.92945e-09
0
4.15407e-09
0
0
0
0
0
0
0
0
0
0
0
0
0
0
0
0
0
0
0
0
0
0
0
0
0
0
0
0
0
0
0
0
0
0
0
0
0
0
0
0
0
3.94708e-10
1.00664e-09
1.6735e-09
2.41211e-09
3.16863e-09
3.88328e-09
3.95883e-09
0
3.99655e-09
0
0
0
0
0
0
0
0
0
0
0
0
0
0
0
0
0
0
0
0
0
0
0
0
0
0
0
0
0
0
0
0
0
0
0
0
0
0
0
0
0
5.31159e-10
1.14916e-09
1.81683e-09
2.54545e-09
3.26898e-09
3.93677e-09
3.95346e-09
0
3.82725e-09
0
0
0
0
0
0
0
0
0
0
0
0
0
0
0
0
0
0
0
0
0
0
0
0
0
0
0
0
0
0
0
0
0
0
0
0
0
0
0
0
1.01974e-10
6.60189e-10
1.27878e-09
1.94069e-09
2.65105e-09
3.33613e-09
3.95423e-09
3.91364e-09
0
3.64929e-09
0
0
0
0
0
0
0
0
0
0
0
0
0
0
0
0
0
0
0
0
0
0
0
0
0
0
0
0
0
0
0
0
0
0
0
0
0
0
0
0
2.16884e-10
7.7902e-10
1.39261e-09
2.03982e-09
2.71972e-09
3.36862e-09
3.93337e-09
3.83264e-09
0
3.46534e-09
0
0
0
0
0
0
0
0
0
0
0
0
0
0
0
0
0
0
0
0
0
0
0
0
0
0
0
0
0
0
0
0
0
0
0
0
0
0
0
0
3.24063e-10
8.84922e-10
1.48782e-09
2.11437e-09
2.76189e-09
3.3785e-09
3.87934e-09
3.71095e-09
0
3.27768e-09
0
0
0
0
0
0
0
0
0
0
0
0
0
0
0
0
0
0
0
0
0
0
0
0
0
0
0
0
0
0
0
0
0
0
0
0
0
0
0
0
4.21087e-10
9.75603e-10
1.56251e-09
2.16412e-09
2.78071e-09
3.36264e-09
3.79659e-09
3.56362e-09
0
3.08833e-09
0
0
0
0
0
0
0
0
0
0
0
0
0
0
0
0
0
0
0
0
0
0
0
0
0
0
0
0
0
0
0
0
0
0
0
0
0
0
0
0
5.05828e-10
1.04926e-09
1.61556e-09
2.18748e-09
2.76629e-09
3.30767e-09
3.69652e-09
3.41747e-09
0
2.89914e-09
0
0
0
0
0
0
0
0
0
0
0
0
0
0
0
0
0
0
0
0
0
0
0
0
0
0
0
0
0
0
0
0
0
0
0
0
0
0
0
6.67217e-11
5.76444e-10
1.10432e-09
1.64564e-09
2.18318e-09
2.7172e-09
3.21692e-09
3.58433e-09
3.27908e-09
0
2.71183e-09
0
0
0
0
0
0
0
0
0
0
0
0
0
0
0
0
0
0
0
0
0
0
0
0
0
0
0
0
0
0
0
0
0
0
0
0
0
0
0
1.33707e-10
6.31448e-10
1.13965e-09
1.65236e-09
2.15295e-09
2.63952e-09
3.08805e-09
3.41577e-09
3.09764e-09
0
2.52791e-09
0
0
0
0
0
0
0
0
0
0
0
0
0
0
0
0
0
0
0
0
0
0
0
0
0
0
0
0
0
0
0
0
0
0
0
0
0
0
0
1.87903e-10
6.69738e-10
1.15454e-09
1.63552e-09
2.09718e-09
2.53505e-09
2.92325e-09
3.18123e-09
2.84063e-09
0
2.34865e-09
0
0
0
0
0
0
0
0
0
0
0
0
0
0
0
0
0
0
0
0
0
0
0
0
0
0
0
0
0
0
0
0
0
0
0
0
0
0
0
2.2826e-10
6.90613e-10
1.14874e-09
1.59543e-09
2.01636e-09
2.40526e-09
2.73583e-09
2.92357e-09
2.54442e-09
0
2.17502e-09
0
0
0
0
0
0
0
0
0
0
0
0
0
0
0
0
0
0
0
0
0
0
0
0
0
0
0
0
0
0
0
0
0
0
0
0
0
0
0
2.54127e-10
6.93811e-10
1.12253e-09
1.53297e-09
1.91185e-09
2.25188e-09
2.52941e-09
2.66045e-09
2.24937e-09
0
2.00776e-09
0
0
0
0
0
0
0
0
0
0
0
0
0
0
0
0
0
0
0
0
0
0
0
0
0
0
0
0
0
0
0
0
0
0
0
0
0
0
0
2.65275e-10
6.79577e-10
1.07677e-09
1.44958e-09
1.78584e-09
2.0779e-09
2.30559e-09
2.38862e-09
1.96191e-09
0
1.84735e-09
0
0
0
0
0
0
0
0
0
0
0
0
0
0
0
0
0
0
0
0
0
0
0
0
0
0
0
0
0
0
0
0
0
0
0
0
0
0
0
2.61927e-10
6.48664e-10
1.0128e-09
1.34727e-09
1.64111e-09
1.88695e-09
2.06817e-09
2.10905e-09
1.67878e-09
0
1.69411e-09
0
0
0
0
0
0
0
0
0
0
0
0
0
0
0
0
0
0
0
0
0
0
0
0
0
0
0
0
0
0
0
0
0
0
0
0
0
0
0
2.44781e-10
6.02317e-10
9.32474e-10
1.22856e-09
1.48098e-09
1.68306e-09
1.82161e-09
1.82636e-09
1.40194e-09
0
1.54818e-09
0
0
0
0
0
0
0
0
0
0
0
0
0
0
0
0
0
0
0
0
0
0
0
0
0
0
0
0
0
0
0
0
0
0
0
0
0
0
0
2.15001e-10
5.4227e-10
8.38145e-10
1.09647e-09
1.30919e-09
1.47061e-09
1.57079e-09
1.54583e-09
1.13609e-09
0
1.40956e-09
0
0
0
0
0
0
0
0
0
0
0
0
0
0
0
0
0
0
0
0
0
0
0
0
0
0
0
0
0
0
0
0
0
0
0
0
0
0
0
1.74226e-10
4.70723e-10
7.32597e-10
9.54433e-10
1.12983e-09
1.25423e-09
1.32082e-09
1.27288e-09
8.86146e-10
0
1.27817e-09
0
0
0
0
0
0
0
0
0
0
0
0
0
0
0
0
0
0
0
0
0
0
0
0
0
0
0
0
0
0
0
0
0
0
0
0
0
0
0
1.24527e-10
3.90293e-10
6.19031e-10
8.06274e-10
9.47257e-10
1.03872e-09
1.07692e-09
1.01281e-09
6.56776e-10
0
1.15381e-09
0
0
0
0
0
0
0
0
0
0
0
0
0
0
0
0
0
0
0
0
0
0
0
0
0
0
0
0
0
0
0
0
0
0
0
0
0
0
0
6.83744e-11
3.03979e-10
5.01e-10
6.56063e-10
7.66e-10
8.29002e-10
8.44244e-10
7.70668e-10
4.52163e-10
0
1.03626e-09
0
0
0
0
0
0
0
0
0
0
0
0
0
0
0
0
0
0
0
0
0
0
0
0
0
0
0
0
0
0
0
0
0
0
0
0
0
0
0
8.58994e-12
2.15102e-10
3.82307e-10
5.08046e-10
5.90693e-10
6.29953e-10
6.27722e-10
5.51068e-10
2.75861e-10
0
9.2516e-10
0
0
0
0
0
0
0
0
0
0
0
0
0
0
0
0
0
0
0
0
0
0
0
0
0
0
0
0
0
0
0
0
0
0
0
0
0
0
0
0
1.27218e-10
2.66927e-10
3.66553e-10
4.25918e-10
4.4627e-10
4.31946e-10
3.58086e-10
1.30623e-10
0
8.2013e-10
0
0
0
0
0
0
0
0
0
0
0
0
0
0
0
0
0
0
0
0
0
0
0
0
0
0
0
0
0
0
0
0
0
0
0
0
0
0
0
0
4.40246e-11
1.58887e-10
2.35832e-10
2.7606e-10
2.82313e-10
2.60994e-10
1.95086e-10
1.83303e-11
0
7.20718e-10
0
0
0
0
0
0
0
0
0
0
0
0
0
0
0
0
0
0
0
0
0
0
0
0
0
0
0
0
0
0
0
0
0
0
0
0
0
0
0
0
0
6.21117e-11
1.1993e-10
1.45147e-10
1.41879e-10
1.18221e-10
6.45422e-11
0
0
6.26442e-10
0
0
0
0
0
0
0
0
0
0
0
0
0
0
0
0
0
0
0
0
0
0
0
0
0
0
0
0
0
0
0
0
0
0
0
0
0
0
0
0
0
0
2.2445e-11
3.65958e-11
2.79957e-11
6.03422e-12
0
0
0
5.36787e-10
0
0
0
0
0
0
0
0
0
0
0
0
0
0
0
0
0
0
0
0
0
0
0
0
0
0
0
0
0
0
0
0
0
0
0
0
0
0
0
0
0
0
0
0
0
0
0
0
0
4.51192e-10
0
0
0
0
0
0
0
0
0
0
0
0
0
0
0
0
0
0
0
0
0
0
0
0
0
0
0
0
0
0
0
0
0
0
0
0
0
0
0
0
0
0
0
0
0
0
0
0
0
3.69052e-10
0
0
0
0
0
0
0
0
0
0
0
0
0
0
0
0
0
0
0
0
0
0
0
0
0
0
0
0
0
0
0
0
0
0
0
0
0
0
0
0
0
0
0
0
0
0
0
0
0
2.89708e-10
0
0
0
0
0
0
0
0
0
0
0
0
0
0
0
0
0
0
0
0
0
0
0
0
0
0
0
0
0
0
0
0
0
0
0
0
0
0
0
0
0
0
0
0
0
0
0
0
0
2.12455e-10
0
0
0
0
0
0
0
0
0
0
0
0
0
0
0
0
0
0
0
0
0
0
0
0
0
0
0
0
0
0
0
0
0
0
0
0
0
0
0
0
0
0
0
0
0
0
0
1.6147e-12
0
1.36532e-10
0
0
0
0
0
0
0
0
0
0
0
0
0
0
0
0
0
0
0
0
0
0
0
0
0
0
0
0
0
0
0
0
0
0
0
0
0
0
0
0
0
0
0
0
0
0
0
2.91962e-12
0
6.10786e-11
0
0
0
0
0
0
0
0
0
0
0
0
0
0
0
0
0
0
0
0
0
0
0
0
0
0
0
0
0
0
0
0
0
0
0
0
0
0
0
0
0
0
0
0
0
0
0
0
0
0
0
0
0
0
0
0
0
0
0
0
0
0
0
0
0
0
0
0
0
0
0
0
0
0
0
0
0
0
0
0
0
0
0
0
0
0
3.20668e-11
6.53634e-11
6.8767e-11
4.73893e-11
7.1323e-12
0
0
0
0
0
0
0
0
0
0
0
0
0
0
0
0
0
0
0
0
0
0
0
0
0
0
0
0
0
0
0
0
0
0
0
0
0
0
0
0
0
0
2.66133e-11
1.37665e-10
2.08055e-10
2.39639e-10
2.3577e-10
2.00386e-10
1.38755e-10
5.67329e-11
0
0
0
0
0
0
0
0
0
0
0
0
0
0
0
0
0
0
0
0
0
0
0
0
0
0
0
0
0
0
0
0
0
0
0
0
0
0
0
0
1.05032e-10
2.69246e-10
3.8846e-10
4.63004e-10
4.93995e-10
4.82957e-10
4.3306e-10
3.47957e-10
2.32739e-10
9.30294e-11
0
0
0
0
0
0
0
0
0
0
0
0
0
0
0
0
0
0
0
0
0
0
0
0
0
0
0
0
0
0
0
0
0
0
0
0
0
0
1.99271e-10
4.23992e-10
6.02312e-10
7.32521e-10
8.14061e-10
8.46987e-10
8.3197e-10
7.69919e-10
6.63359e-10
5.15393e-10
3.30553e-10
1.14076e-10
0
0
0
0
0
0
0
0
0
0
0
0
0
0
0
0
0
0
0
0
0
0
0
0
0
0
0
0
0
0
0
0
0
0
0
0
3.08262e-10
5.94387e-10
8.39251e-10
1.03698e-09
1.18351e-09
1.27706e-09
1.31712e-09
1.3032e-09
1.23531e-09
1.11341e-09
9.38945e-10
7.14185e-10
4.4288e-10
1.29812e-10
0
0
0
0
0
0
0
0
0
0
0
0
0
0
0
0
0
0
0
0
0
0
0
0
0
0
0
0
0
0
0
0
0
8.03627e-11
4.39445e-10
7.77192e-10
1.08537e-09
1.35507e-09
1.57887e-09
1.7504e-09
1.86486e-09
1.91988e-09
1.91507e-09
1.84966e-09
1.72274e-09
1.53319e-09
1.28094e-09
9.67351e-10
5.95434e-10
1.69857e-10
0
0
0
0
0
0
0
0
0
0
0
0
0
0
0
0
0
0
0
0
0
0
0
0
0
0
0
0
0
0
0
2.19657e-10
6.09131e-10
9.8366e-10
1.33894e-09
1.67151e-09
1.97139e-09
2.2279e-09
2.43328e-09
2.58074e-09
2.66462e-09
2.68135e-09
2.6301e-09
2.51048e-09
2.32072e-09
2.05872e-09
1.72282e-09
1.31374e-09
8.34379e-10
2.90359e-10
0
0
0
0
0
0
0
0
0
0
0
0
0
0
0
0
0
0
0
0
0
0
0
0
0
0
0
0
0
3.75967e-10
8.0553e-10
1.22003e-09
1.61773e-09
1.99556e-09
2.35074e-09
2.68254e-09
2.97952e-09
3.2277e-09
3.41871e-09
3.54562e-09
3.60233e-09
3.58397e-09
3.48824e-09
3.31505e-09
3.06305e-09
2.7294e-09
2.31163e-09
1.81007e-09
1.2291e-09
5.7703e-10
0
0
0
0
0
0
0
0
0
0
0
0
0
0
0
0
0
0
0
0
0
0
0
0
0
0
0
4.95456e-10
9.79161e-10
1.44673e-09
1.89763e-09
2.32969e-09
2.73978e-09
3.12491e-09
3.48403e-09
3.81975e-09
4.12091e-09
4.36801e-09
4.55155e-09
4.66409e-09
4.69959e-09
4.65263e-09
4.51921e-09
4.29821e-09
3.99012e-09
3.593e-09
3.10503e-09
2.52672e-09
1.86596e-09
1.13596e-09
3.62028e-10
0
0
0
0
0
0
0
0
0
0
0
0
0
0
0
0
0
0
0
0
0
0
0
2.97246e-11
5.69128e-10
1.10525e-09
1.62602e-09
2.13323e-09
2.62623e-09
3.10184e-09
3.55518e-09
3.98156e-09
4.37794e-09
4.74508e-09
5.08916e-09
5.40318e-09
5.65889e-09
5.84502e-09
5.95305e-09
5.97685e-09
5.9115e-09
5.75259e-09
5.49751e-09
5.14705e-09
4.70325e-09
4.16694e-09
3.54114e-09
2.83744e-09
2.07632e-09
1.29117e-09
5.28237e-10
0
0
0
0
0
0
0
0
0
0
0
0
0
0
0
0
0
0
0
0
8.52561e-11
6.34571e-10
1.19504e-09
1.76455e-09
2.32832e-09
2.87027e-09
3.40123e-09
3.9204e-09
4.42214e-09
4.89889e-09
5.34447e-09
5.75564e-09
6.13483e-09
6.49103e-09
6.82826e-09
7.10517e-09
7.30727e-09
7.4247e-09
7.45074e-09
7.38117e-09
7.21302e-09
6.94407e-09
6.57465e-09
6.10928e-09
5.55534e-09
4.92106e-09
4.22194e-09
3.48542e-09
2.75239e-09
2.07497e-09
1.52089e-09
1.16049e-09
1.06956e-09
1.32581e-09
2.04254e-09
0
0
0
0
0
0
0
0
0
0
0
0
0
1.81359e-10
7.40383e-10
1.30652e-09
1.88443e-09
2.47681e-09
3.08113e-09
3.6761e-09
4.23676e-09
4.78794e-09
5.3302e-09
5.85622e-09
6.35605e-09
6.82219e-09
7.25094e-09
7.64564e-09
8.0171e-09
8.38539e-09
8.70074e-09
8.93625e-09
9.0815e-09
9.12924e-09
9.07545e-09
8.91884e-09
8.65985e-09
8.30072e-09
7.84716e-09
7.31086e-09
6.7086e-09
6.06235e-09
5.40298e-09
4.77665e-09
4.23766e-09
3.85187e-09
3.68287e-09
3.80029e-09
4.31687e-09
5.46464e-09
0
0
0
0
0
0
0
0
0
0
0
3.10568e-10
8.90391e-10
1.46995e-09
2.05446e-09
2.6498e-09
3.26054e-09
3.88884e-09
4.53112e-09
5.15837e-09
5.73037e-09
6.29227e-09
6.84856e-09
7.39159e-09
7.9099e-09
8.39491e-09
8.84242e-09
9.25497e-09
9.64494e-09
1.00459e-08
1.0422e-08
1.07139e-08
1.09101e-08
1.10036e-08
1.0991e-08
1.08723e-08
1.06507e-08
1.0332e-08
9.92557e-09
9.4456e-09
8.91309e-09
8.3575e-09
7.81459e-09
7.33047e-09
6.95816e-09
6.7587e-09
6.7865e-09
7.10466e-09
7.87053e-09
9.41333e-09
0
8.66141e-10
0
0
0
0
0
0
0
4.93474e-10
1.09329e-09
1.6897e-09
2.28677e-09
2.88864e-09
3.50008e-09
4.12644e-09
4.77305e-09
5.44133e-09
6.12464e-09
6.78271e-09
7.35018e-09
7.90386e-09
8.45575e-09
9.00014e-09
9.52551e-09
1.00227e-08
1.04868e-08
1.09176e-08
1.1328e-08
1.17576e-08
1.22186e-08
1.25969e-08
1.28741e-08
1.30429e-08
1.3101e-08
1.30504e-08
1.28966e-08
1.26486e-08
1.23195e-08
1.19275e-08
1.14964e-08
1.10578e-08
1.06504e-08
1.03213e-08
1.01198e-08
1.00998e-08
1.03059e-08
1.07955e-08
1.17725e-08
1.3657e-08
7.42094e-09
1.69864e-09
0
0
0
0
2.65967e-10
8.23143e-10
1.40879e-09
2.00064e-09
2.60078e-09
3.20906e-09
3.82442e-09
4.44971e-09
5.0888e-09
5.74624e-09
6.42828e-09
7.13686e-09
7.86134e-09
8.54695e-09
9.08489e-09
9.59649e-09
1.01116e-08
1.0629e-08
1.11394e-08
1.16342e-08
1.21075e-08
1.25545e-08
1.29851e-08
1.34398e-08
1.39988e-08
1.45068e-08
1.4904e-08
1.51849e-08
1.53487e-08
1.53994e-08
1.5345e-08
1.51971e-08
1.49719e-08
1.46903e-08
1.43784e-08
1.40693e-08
1.38015e-08
1.362e-08
1.3572e-08
1.37051e-08
1.40546e-08
1.46721e-08
1.58012e-08
1.79331e-08
9.13447e-09
2.29032e-09
8.5967e-10
6.85202e-10
8.26242e-10
1.16764e-09
1.73944e-09
2.41177e-09
3.03871e-09
3.64091e-09
4.24895e-09
4.86958e-09
5.50388e-09
6.15448e-09
6.82269e-09
7.51105e-09
8.2264e-09
8.97234e-09
9.73291e-09
1.04343e-08
1.09051e-08
1.13197e-08
1.17462e-08
1.21908e-08
1.26499e-08
1.31164e-08
1.35828e-08
1.40385e-08
1.4485e-08
1.4966e-08
1.56161e-08
1.6314e-08
1.68854e-08
1.73264e-08
1.76388e-08
1.78289e-08
1.7907e-08
1.78874e-08
1.77881e-08
1.76322e-08
1.74474e-08
1.7267e-08
1.71289e-08
1.70761e-08
1.71527e-08
1.74023e-08
1.78513e-08
1.85427e-08
1.97397e-08
2.19445e-08
3.21483e-09
3.42397e-09
2.90189e-09
2.51712e-09
2.44831e-09
2.61358e-09
3.00592e-09
3.76168e-09
4.57878e-09
5.31625e-09
6.00151e-09
6.65852e-09
7.31599e-09
7.99202e-09
8.68854e-09
9.40482e-09
1.01477e-08
1.09242e-08
1.17103e-08
1.24032e-08
1.27481e-08
1.29886e-08
1.32526e-08
1.35583e-08
1.39126e-08
1.43122e-08
1.47464e-08
1.51964e-08
1.56488e-08
1.61504e-08
1.68767e-08
1.78304e-08
1.8648e-08
1.93133e-08
1.983e-08
2.0207e-08
2.04566e-08
2.05949e-08
2.06417e-08
2.06215e-08
2.05634e-08
2.05016e-08
2.0474e-08
2.05228e-08
2.06905e-08
2.10174e-08
2.15187e-08
2.22178e-08
2.33463e-08
2.53458e-08
0
4.14601e-09
4.71864e-09
4.41709e-09
4.17645e-09
4.24288e-09
4.46469e-09
4.95366e-09
5.96714e-09
6.91292e-09
7.73269e-09
8.4821e-09
9.20268e-09
9.92278e-09
1.06523e-08
1.13927e-08
1.21527e-08
1.29445e-08
1.37324e-08
1.43607e-08
1.44785e-08
1.44647e-08
1.44869e-08
1.4581e-08
1.4769e-08
1.50549e-08
1.54248e-08
1.58486e-08
1.62924e-08
1.67982e-08
1.75583e-08
1.88138e-08
1.99709e-08
2.09432e-08
2.17363e-08
2.236e-08
2.28285e-08
2.31591e-08
2.33732e-08
2.34972e-08
2.35624e-08
2.3605e-08
2.36649e-08
2.37857e-08
2.40113e-08
2.43763e-08
2.48755e-08
2.54836e-08
2.62535e-08
2.78576e-08
0
3.83945e-09
5.57576e-09
5.94867e-09
5.85768e-09
5.82179e-09
6.00612e-09
6.29333e-09
7.02957e-09
8.29194e-09
9.32519e-09
1.02234e-08
1.10607e-08
1.18638e-08
1.26409e-08
1.34004e-08
1.41626e-08
1.49463e-08
1.56851e-08
1.61019e-08
1.5869e-08
1.55786e-08
1.53344e-08
1.51912e-08
1.51852e-08
1.53284e-08
1.56075e-08
1.59843e-08
1.64044e-08
1.68871e-08
1.76085e-08
1.90295e-08
2.0633e-08
2.19985e-08
2.31442e-08
2.40806e-08
2.48219e-08
2.53848e-08
2.57907e-08
2.60694e-08
2.62561e-08
2.63892e-08
2.65131e-08
2.66771e-08
2.69297e-08
2.72912e-08
2.77158e-08
2.80525e-08
2.81485e-08
2.94888e-08
0
3.18313e-09
5.50587e-09
6.81898e-09
7.30695e-09
7.36352e-09
7.48578e-09
7.77943e-09
8.16728e-09
9.17296e-09
1.05793e-08
1.17399e-08
1.27576e-08
1.36702e-08
1.4494e-08
1.5254e-08
1.59938e-08
1.67297e-08
1.73133e-08
1.7255e-08
1.67329e-08
1.62489e-08
1.58484e-08
1.55763e-08
1.54633e-08
1.55174e-08
1.57247e-08
1.60505e-08
1.64408e-08
1.68754e-08
1.74601e-08
1.85547e-08
2.05024e-08
2.23011e-08
2.38526e-08
2.51584e-08
2.62233e-08
2.70569e-08
2.76778e-08
2.81189e-08
2.84209e-08
2.86282e-08
2.87926e-08
2.8974e-08
2.92259e-08
2.9539e-08
2.97896e-08
2.95477e-08
2.92125e-08
3.04393e-08
0
2.55633e-09
4.99673e-09
6.8339e-09
8.25822e-09
8.8243e-09
8.97118e-09
9.1956e-09
9.53972e-09
9.99622e-09
1.1167e-08
1.27161e-08
1.39753e-08
1.50072e-08
1.58537e-08
1.65748e-08
1.72561e-08
1.78694e-08
1.80688e-08
1.75152e-08
1.69935e-08
1.66008e-08
1.63548e-08
1.62511e-08
1.62768e-08
1.64168e-08
1.66554e-08
1.69757e-08
1.73544e-08
1.77593e-08
1.81911e-08
1.87243e-08
1.96234e-08
2.14997e-08
2.35328e-08
2.52769e-08
2.67214e-08
2.78634e-08
2.87204e-08
2.93259e-08
2.9729e-08
2.99902e-08
3.01759e-08
3.03565e-08
3.05831e-08
3.0801e-08
3.07483e-08
2.99519e-08
2.96038e-08
3.08969e-08
0
2.02873e-09
4.32624e-09
6.21729e-09
8.32501e-09
9.70314e-09
1.02038e-08
1.03232e-08
1.05568e-08
1.09256e-08
1.14181e-08
1.25862e-08
1.40604e-08
1.51698e-08
1.59925e-08
1.66355e-08
1.72148e-08
1.76005e-08
1.73138e-08
1.693e-08
1.68294e-08
1.69676e-08
1.72559e-08
1.76013e-08
1.79463e-08
1.82831e-08
1.86295e-08
1.89915e-08
1.93125e-08
1.96241e-08
1.99952e-08
2.03836e-08
2.07531e-08
2.11687e-08
2.18689e-08
2.35205e-08
2.54834e-08
2.7022e-08
2.81659e-08
2.89637e-08
2.94817e-08
2.97999e-08
3.00027e-08
3.01733e-08
3.03567e-08
3.0449e-08
3.00245e-08
2.92413e-08
2.91445e-08
3.06965e-08
0
0
0
9.94227e-12
8.67564e-11
7.97408e-11
7.14843e-11
7.08968e-11
8.0327e-11
9.53887e-11
9.90243e-11
7.62768e-11
3.05618e-11
0
0
0
6.92491e-11
2.37562e-10
4.80715e-10
6.43188e-10
4.51743e-10
0
0
0
0
0
0
3.69935e-10
1.85739e-09
6.26382e-09
1.21702e-08
1.56925e-08
1.48443e-08
1.04363e-08
4.8419e-09
1.35746e-09
0
0
0
0
0
1.40666e-11
1.77923e-10
3.18975e-10
4.11478e-10
4.86522e-10
5.32254e-10
4.49824e-10
3.29384e-10
3.59189e-10
4.94647e-10
0
0
0
0
0
0
0
0
0
0
0
0
0
2.09061e-09
5.11999e-09
6.42093e-09
0
0
0
0
0
6.38765e-08
1.15965e-07
4.40983e-08
5.85312e-10
0
0
0
0
0
0
0
0
0
2.66482e-09
4.9882e-09
2.70534e-09
0
0
0
0
0
0
0
0
0
4.86687e-09
1.86874e-08
0
0
0
0
0
3.2271e-11
4.58923e-11
5.08564e-11
5.45687e-11
6.35183e-11
7.73029e-11
8.37839e-11
6.9103e-11
3.30582e-11
0
0
2.39953e-12
7.63423e-11
2.24692e-10
4.66327e-10
7.05526e-10
7.40837e-10
2.5969e-10
0
0
0
0
0
0
1.47072e-09
6.30736e-09
1.25198e-08
1.5955e-08
1.4993e-08
1.015e-08
4.58208e-09
1.22212e-09
0
0
0
0
0
4.11162e-11
2.06967e-10
3.32986e-10
4.30902e-10
4.86803e-10
5.59514e-10
4.88182e-10
3.60721e-10
4.11779e-10
7.37558e-10
4.41699e-10
0
0
0
0
0
0
0
0
0
0
0
0
1.7502e-09
4.82696e-09
5.58742e-09
0
0
0
0
0
1.79028e-08
9.73316e-08
4.33116e-08
2.88164e-09
0
0
0
0
0
0
0
0
0
1.68593e-09
4.77137e-09
3.19148e-09
0
0
0
0
0
0
0
0
0
0
1.86795e-08
9.96004e-09
0
1.66152e-11
0
0
5.46711e-12
2.18291e-11
3.19841e-11
3.83901e-11
4.69196e-11
5.89159e-11
6.60814e-11
5.66925e-11
2.86789e-11
0
0
1.56382e-11
8.86512e-11
2.21484e-10
4.48055e-10
7.17344e-10
8.83292e-10
7.51176e-10
3.43508e-11
0
0
0
0
0
1.27412e-09
6.47317e-09
1.28566e-08
1.61229e-08
1.50363e-08
9.77512e-09
4.30688e-09
1.08917e-09
0
0
0
0
0
7.40323e-11
2.50097e-10
3.65386e-10
4.59442e-10
5.10235e-10
5.71644e-10
5.32556e-10
4.07351e-10
4.68559e-10
8.74188e-10
1.09047e-09
0
0
0
0
0
0
0
0
0
0
0
0
1.31487e-09
4.48972e-09
4.81161e-09
0
0
0
0
0
0
7.66988e-08
4.03521e-08
4.70366e-09
0
0
0
0
0
0
0
0
0
5.76358e-10
4.45848e-09
3.62922e-09
7.78904e-11
0
0
0
0
0
0
0
0
0
1.28917e-08
5.31133e-08
0
3.0539e-11
0
0
0
8.73854e-12
1.89937e-11
2.60408e-11
3.37635e-11
4.3716e-11
5.00909e-11
4.34999e-11
2.12759e-11
0
0
2.7571e-11
1.0473e-10
2.29083e-10
4.33662e-10
6.96569e-10
9.31918e-10
9.73663e-10
6.76079e-10
0
0
0
0
0
1.22436e-09
6.6885e-09
1.30378e-08
1.61058e-08
1.48704e-08
9.26787e-09
3.98836e-09
9.52711e-10
0
0
0
0
0
1.20188e-10
3.06424e-10
4.23344e-10
5.0288e-10
5.55542e-10
5.7466e-10
5.71708e-10
4.64301e-10
5.36793e-10
9.58421e-10
1.34609e-09
4.6328e-10
0
0
0
0
0
0
0
0
0
0
0
7.47714e-10
4.06149e-09
4.05439e-09
0
0
0
0
0
0
5.54815e-08
3.52377e-08
5.85301e-09
0
0
0
0
0
0
0
0
0
0
3.97573e-09
3.9673e-09
7.45738e-10
0
0
0
0
0
0
0
0
0
3.68957e-09
8.41115e-08
0
4.16885e-11
0
0
0
3.75207e-12
1.24918e-11
1.89548e-11
2.55777e-11
3.34104e-11
3.79514e-11
3.18407e-11
1.30647e-11
0
0
3.88136e-11
1.2308e-10
2.45727e-10
4.27745e-10
6.68439e-10
9.12494e-10
1.04973e-09
9.5674e-10
5.00284e-10
0
0
0
0
1.29227e-09
6.86688e-09
1.2999e-08
1.59259e-08
1.44327e-08
8.61583e-09
3.61177e-09
8.10049e-10
0
0
0
0
7.05706e-11
1.9208e-10
3.70838e-10
5.02088e-10
5.64435e-10
6.12865e-10
6.00532e-10
5.84717e-10
5.25017e-10
6.17275e-10
1.02233e-09
1.42852e-09
1.05377e-09
0
0
0
0
0
0
0
0
0
0
0
3.17553e-11
3.51822e-09
3.33991e-09
0
0
0
0
0
0
3.51302e-08
2.83634e-08
6.11745e-09
0
0
0
0
0
0
0
0
0
0
3.27564e-09
4.16382e-09
1.44944e-09
0
0
0
0
0
0
0
0
0
0
7.9808e-08
0
5.02016e-11
0
0
0
3.21784e-12
1.06131e-11
1.62851e-11
2.17611e-11
2.75852e-11
2.98116e-11
2.24841e-11
5.05055e-12
0
6.65491e-13
5.1333e-11
1.43589e-10
2.68595e-10
4.30328e-10
6.4699e-10
8.6314e-10
1.03692e-09
1.03675e-09
7.71331e-10
1.66724e-10
0
0
0
1.44842e-09
6.96495e-09
1.28293e-08
1.55772e-08
1.36311e-08
7.88624e-09
3.17776e-09
6.6412e-10
0
0
0
1.57871e-10
2.63003e-10
3.13916e-10
4.48917e-10
5.98853e-10
6.52278e-10
6.767e-10
6.51042e-10
5.80835e-10
5.77747e-10
7.0649e-10
1.08842e-09
1.43155e-09
1.16492e-09
0
0
0
0
0
0
0
0
0
0
0
0
2.85103e-09
2.68496e-09
0
0
0
0
0
0
1.62215e-08
2.02773e-08
5.46685e-09
0
0
0
0
0
0
0
0
0
0
2.32679e-09
4.19552e-09
2.12635e-09
0
0
0
0
0
0
0
0
0
0
6.79759e-08
0
5.32468e-11
0
0
0
4.58529e-12
1.1239e-11
1.62609e-11
2.0653e-11
2.44353e-11
2.40042e-11
1.44687e-11
0
0
6.02678e-12
6.72223e-11
1.67468e-10
2.95113e-10
4.41177e-10
6.30813e-10
8.17242e-10
9.61335e-10
1.01238e-09
8.37185e-10
3.63558e-10
0
0
0
1.66077e-09
7.0259e-09
1.24639e-08
1.49324e-08
1.25606e-08
7.04859e-09
2.68764e-09
5.22499e-10
0
6.77635e-11
2.76164e-10
4.48735e-10
5.42774e-10
5.19572e-10
5.53877e-10
7.08254e-10
7.75139e-10
7.53749e-10
7.15244e-10
6.06225e-10
5.99703e-10
7.95148e-10
1.15967e-09
1.39872e-09
1.09257e-09
0
0
0
0
0
0
0
0
0
0
0
0
2.05563e-09
2.08602e-09
0
0
0
0
0
0
0
1.14926e-08
3.99032e-09
0
0
0
0
0
0
0
0
0
0
1.12574e-09
4.03288e-09
2.71142e-09
0
0
0
0
0
0
0
0
0
0
5.67402e-08
0
5.20261e-11
1.33333e-12
0
0
6.04486e-12
1.26505e-11
1.72332e-11
2.06e-11
2.23021e-11
1.8839e-11
6.46983e-12
0
0
1.40944e-11
8.81925e-11
1.96602e-10
3.24336e-10
4.57946e-10
6.18765e-10
7.74525e-10
8.79441e-10
9.11698e-10
7.96635e-10
4.19e-10
0
0
0
1.91735e-09
7.03055e-09
1.18591e-08
1.40091e-08
1.1277e-08
6.10191e-09
2.14851e-09
4.00803e-10
1.55875e-10
4.24133e-10
6.9549e-10
8.50995e-10
9.39278e-10
8.4092e-10
7.14691e-10
8.22551e-10
9.2531e-10
8.69382e-10
7.83031e-10
6.58108e-10
6.06998e-10
8.6322e-10
1.23229e-09
1.36202e-09
9.6623e-10
1.10484e-10
0
0
0
0
0
0
0
0
0
0
0
1.12158e-09
1.52763e-09
0
0
0
0
0
0
0
2.44263e-09
1.8734e-09
0
0
0
0
0
0
0
0
0
0
0
3.63087e-09
3.15034e-09
0
0
0
0
0
0
0
0
0
0
4.68511e-08
0
4.87903e-11
7.57447e-12
0
0
6.61127e-12
1.37141e-11
1.79697e-11
2.02705e-11
1.96872e-11
1.27349e-11
0
0
0
2.65148e-11
1.15906e-10
2.32859e-10
3.57392e-10
4.75971e-10
6.0823e-10
7.30464e-10
8.01239e-10
7.95463e-10
6.81924e-10
3.92261e-10
0
0
0
2.2129e-09
6.80924e-09
1.1064e-08
1.28244e-08
9.84075e-09
5.06329e-09
1.57377e-09
3.31278e-10
4.67832e-10
9.40253e-10
1.25553e-09
1.42416e-09
1.47571e-09
1.30026e-09
9.77132e-10
9.32349e-10
1.08879e-09
1.03684e-09
8.47587e-10
7.20224e-10
6.50972e-10
8.83785e-10
1.29307e-09
1.33512e-09
8.37054e-10
6.27446e-11
0
0
0
0
0
0
0
0
0
0
0
3.51282e-11
9.78621e-10
0
0
0
0
0
0
0
0
0
0
0
0
0
0
0
0
0
0
0
0
2.94392e-09
3.40486e-09
2.17224e-10
0
0
0
0
0
0
0
0
0
3.84101e-08
0
4.47394e-11
1.32466e-11
0
0
6.14507e-12
1.39662e-11
1.78256e-11
1.87541e-11
1.54167e-11
4.49928e-12
0
0
0
4.57198e-11
1.52816e-10
2.77761e-10
3.95688e-10
4.94598e-10
5.94582e-10
6.81579e-10
7.22581e-10
6.84799e-10
5.56858e-10
3.17657e-10
0
0
1.27358e-10
2.41904e-09
6.40591e-09
1.00591e-08
1.1415e-08
8.35636e-09
3.94339e-09
9.86955e-10
3.82093e-10
9.89317e-10
1.62965e-09
1.98642e-09
2.23075e-09
2.16447e-09
1.89195e-09
1.38535e-09
1.03808e-09
1.22059e-09
1.26041e-09
9.50183e-10
7.36199e-10
7.23993e-10
8.80574e-10
1.32278e-09
1.31503e-09
7.29286e-10
7.01714e-14
0
0
0
0
0
0
0
0
0
0
0
0
3.96688e-10
0
0
0
0
0
0
0
0
0
0
0
0
0
0
0
0
0
0
0
0
1.92456e-09
3.44588e-09
1.07442e-09
0
0
0
0
0
0
0
0
0
3.15062e-08
0
4.04975e-11
1.85746e-11
0
0
4.7839e-12
1.32687e-11
1.64627e-11
1.54191e-11
8.48278e-12
0
0
0
0
7.56122e-11
2.02921e-10
3.33306e-10
4.40753e-10
5.16829e-10
5.74378e-10
6.24068e-10
6.38411e-10
5.78665e-10
4.40285e-10
2.33759e-10
0
0
3.53658e-10
2.43779e-09
5.80377e-09
8.8971e-09
9.88011e-09
6.87489e-09
2.73541e-09
4.44794e-10
6.86999e-10
1.77509e-09
2.48175e-09
2.99803e-09
3.2514e-09
2.97694e-09
2.57173e-09
1.94607e-09
1.1968e-09
1.23089e-09
1.48809e-09
1.16361e-09
6.53737e-10
7.71142e-10
9.24382e-10
1.28573e-09
1.28771e-09
6.51612e-10
0
0
0
0
0
0
0
0
0
0
0
0
0
0
0
0
0
0
0
0
0
0
0
0
0
0
0
0
0
0
0
0
0
0
5.5327e-10
3.23716e-09
1.78192e-09
0
0
0
0
0
0
0
0
0
2.61294e-08
0
3.64645e-11
2.35828e-11
0
0
2.40783e-12
1.12e-11
1.32146e-11
9.20187e-12
0
0
0
0
4.76035e-12
1.22814e-10
2.72227e-10
4.02747e-10
4.91899e-10
5.39965e-10
5.46284e-10
5.52939e-10
5.43094e-10
4.72236e-10
3.33537e-10
1.54208e-10
0
0
4.47625e-10
2.29413e-09
5.09564e-09
7.71837e-09
8.38793e-09
5.35454e-09
1.42501e-09
9.31829e-11
1.41848e-09
2.75563e-09
3.55739e-09
4.31249e-09
4.40769e-09
3.86181e-09
3.26592e-09
2.60447e-09
1.51553e-09
1.06157e-09
1.58166e-09
1.47949e-09
6.41837e-10