/*--------------------------------*- C++ -*----------------------------------*\
  =========                 |
  \\      /  F ield         | OpenFOAM: The Open Source CFD Toolbox
   \\    /   O peration     | Website:  https://openfoam.org
    \\  /    A nd           | Version:  7
     \\/     M anipulation  |
\*---------------------------------------------------------------------------*/
FoamFile
{
    version     2.0;
    format      ascii;
    class       volScalarField;
    location    "0.46";
    object      p;
}
// * * * * * * * * * * * * * * * * * * * * * * * * * * * * * * * * * * * * * //

dimensions      [0 2 -2 0 0 0 0];

internalField   nonuniform List<scalar> 
70000
(
0.0996487
0.0227551
0.00960091
0.012041
0.0122857
0.0112181
0.0102331
0.00947234
0.00882698
0.0082472
0.00771916
0.00723488
0.00678678
0.00636813
0.0059733
0.00559764
0.00523727
0.00488891
0.0045497
0.00421719
0.00388915
0.00356356
0.00323854
0.00291229
0.00258307
0.00224913
0.00190873
0.00156004
0.00120119
0.000830133
0.000444735
4.25858e-05
-0.000378884
-0.00082266
-0.00129199
-0.00179065
-0.00232303
-0.00289378
-0.00350952
-0.00417516
-0.00490235
-0.00569346
-0.00657249
-0.0075303
-0.0086213
-0.00980136
-0.0111983
-0.012672
-0.0145219
-0.016473
0.0953484
0.0231171
0.00980348
0.0121356
0.0123401
0.0112538
0.010261
0.00949534
0.00884628
0.0082637
0.0077335
0.00724754
0.00679809
0.00637832
0.00598255
0.0056061
0.00524505
0.00489609
0.00455637
0.00422341
0.00389496
0.00356901
0.00324366
0.00291712
0.00258762
0.00225344
0.0019128
0.0015639
0.00120484
0.000833586
0.000448001
4.56702e-05
-0.000375978
-0.000819931
-0.00128944
-0.00178828
-0.00232085
-0.00289179
-0.00350775
-0.00417362
-0.00490106
-0.00569245
-0.00657172
-0.00753004
-0.00862153
-0.00980235
-0.0111998
-0.0126768
-0.014523
-0.0164192
0.0917432
0.0240396
0.0101481
0.0122643
0.0124148
0.0112988
0.0102933
0.00952155
0.00886813
0.00828218
0.00774944
0.00726153
0.00681052
0.00638949
0.00599268
0.00561534
0.00525354
0.00490394
0.00456366
0.0042302
0.00390132
0.00357498
0.00324929
0.00292243
0.00259265
0.00225821
0.00191734
0.00156822
0.00120896
0.000837524
0.000451767
4.92755e-05
-0.000372524
-0.000816618
-0.00128626
-0.00178523
-0.00231792
-0.00288898
-0.00350506
-0.00417103
-0.00489861
-0.00569011
-0.00656958
-0.00752784
-0.0086196
-0.00980056
-0.0111977
-0.0126777
-0.014496
-0.0163503
0.0886387
0.0251389
0.0106247
0.012437
0.0125161
0.0113569
0.0103316
0.00955156
0.00889282
0.00830278
0.00776697
0.00727675
0.00682395
0.00640149
0.0060035
0.0056252
0.00526258
0.00491227
0.00457139
0.00423741
0.00390807
0.00358133
0.00325528
0.0029281
0.00259804
0.00226335
0.00192226
0.00157293
0.0012135
0.000841904
0.000456009
5.33988e-05
-0.000368501
-0.000812675
-0.00128238
-0.00178138
-0.00231409
-0.00288513
-0.00350117
-0.00416704
-0.0048945
-0.00568579
-0.00656495
-0.00752287
-0.00861397
-0.00979469
-0.0111893
-0.0126724
-0.0144484
-0.0162628
0.0856826
0.0262329
0.0111984
0.0126554
0.0126509
0.0114355
0.0103809
0.00958873
0.00892298
0.00832759
0.00778775
0.00729455
0.00683949
0.00641525
0.00601584
0.00563636
0.00527276
0.00492163
0.00458005
0.00424547
0.00391561
0.00358842
0.00326198
0.00293447
0.00260411
0.00226916
0.00192784
0.00157833
0.00121874
0.000847017
0.000461023
5.83451e-05
-0.00036359
-0.000807765
-0.00127743
-0.00177635
-0.00230893
-0.00287977
-0.00349553
-0.00416105
-0.00488801
-0.00567871
-0.00655701
-0.00751408
-0.00860321
-0.00978309
-0.0111718
-0.0126573
-0.0143799
-0.0161486
0.0827756
0.0272653
0.0118226
0.0129002
0.0128133
0.0115363
0.0104437
0.00963532
0.00896059
0.00835836
0.00781331
0.00731625
0.00685828
0.00643178
0.00603055
0.00564959
0.00528477
0.00493263
0.0045902
0.00425489
0.00392442
0.0035967
0.00326981
0.00294191
0.00261122
0.002276
0.00193445
0.00158476
0.00122502
0.000853202
0.000467154
6.44705e-05
-0.000357421
-0.000801496
-0.001271
-0.00176968
-0.00230193
-0.00287234
-0.00348754
-0.00415234
-0.00487836
-0.00566792
-0.00654458
-0.00749998
-0.00858578
-0.0097637
-0.0111427
-0.0126277
-0.0142907
-0.0160059
0.0799105
0.0282188
0.0124639
0.01315
0.01299
0.0116545
0.010519
0.00969125
0.00900605
0.00839577
0.00784441
0.00734261
0.00688107
0.00645177
0.0060483
0.00566552
0.0052992
0.00494581
0.00460233
0.00426614
0.00393492
0.00360658
0.00327915
0.0029508
0.00261974
0.00228421
0.00194242
0.00159254
0.00123269
0.000860806
0.000474759
7.21432e-05
-0.000349608
-0.000793457
-0.00126264
-0.00176089
-0.00229258
-0.00286226
-0.00347653
-0.00414017
-0.00486466
-0.0056524
-0.00652643
-0.00747914
-0.00855972
-0.00973427
-0.0110992
-0.0125789
-0.0141799
-0.0158347
0.0770964
0.0290871
0.013106
0.0133932
0.0131701
0.0117836
0.0106034
0.00975447
0.00905813
0.00843919
0.00788083
0.00737369
0.00690803
0.00647549
0.00606941
0.00568448
0.00531639
0.00496153
0.00461681
0.00427958
0.00394748
0.00361839
0.00329034
0.00296147
0.00262999
0.00229412
0.00195207
0.00160202
0.00124206
0.000870163
0.000484181
8.17237e-05
-0.00033977
-0.000783243
-0.00125192
-0.0017495
-0.00228034
-0.00284894
-0.00346183
-0.00412376
-0.00484602
-0.00563112
-0.00650133
-0.00745007
-0.00852328
-0.00969249
-0.0110387
-0.0125067
-0.014046
-0.0156353
0.0743397
0.0298675
0.0137436
0.0136258
0.0133474
0.0119186
0.0106937
0.00982238
0.00911481
0.00848718
0.00792158
0.00740877
0.00693873
0.00650269
0.00609375
0.00570646
0.0053364
0.00497988
0.00463377
0.00429536
0.00396227
0.00363234
0.00330359
0.00297415
0.0026422
0.00230596
0.00196365
0.00161343
0.00125341
0.000881546
0.000495708
9.35156e-05
-0.000327583
-0.000770504
-0.00123846
-0.0017351
-0.00226475
-0.00283185
-0.00344286
-0.00410245
-0.00482167
-0.00560317
-0.0064682
-0.00741149
-0.00847488
-0.00963603
-0.0109593
-0.012408
-0.0138877
-0.0154083
0.0716441
0.0305593
0.0143751
0.0138479
0.013519
0.0120567
0.0107875
0.00989301
0.00917428
0.00853817
0.00796536
0.00744684
0.00697233
0.0065327
0.0061208
0.00573105
0.00535892
0.00500065
0.00465306
0.0043134
0.00397925
0.00364843
0.00331893
0.00298887
0.00265644
0.00231983
0.00197727
0.00162692
0.00126687
0.000895113
0.000509513
0.00010771
-0.000312836
-0.000755006
-0.001222
-0.00171739
-0.00224549
-0.00281062
-0.00341918
-0.00407573
-0.00479102
-0.00556784
-0.00642621
-0.00736238
-0.00841335
-0.00956322
-0.0108597
-0.012281
-0.0137035
-0.0151544
0.0690126
0.0311628
0.0149997
0.0140602
0.0136835
0.0121965
0.0108841
0.00996527
0.00923535
0.00859101
0.00801111
0.00748691
0.00700796
0.00656476
0.00614992
0.0057577
0.00538348
0.00502344
0.00467435
0.00433341
0.00399817
0.00366644
0.00333619
0.00300552
0.00267261
0.00233566
0.00199288
0.00164243
0.00128244
0.000910872
0.000525623
0.00012435
-0.000295468
-0.000736671
-0.00120243
-0.00169625
-0.00222239
-0.00278507
-0.00339057
-0.00404335
-0.00475374
-0.00552477
-0.00637492
-0.00730214
-0.0083381
-0.00947306
-0.0107374
-0.0121254
-0.0134932
-0.0148749
0.0664483
0.0316785
0.0156157
0.0142642
0.01384
0.0123371
0.0109829
0.0100387
0.00929738
0.00864505
0.00805817
0.00752833
0.00704497
0.00659824
0.00618049
0.00578583
0.00540955
0.00504777
0.00469719
0.00435499
0.0040187
0.00368608
0.0033551
0.00302385
0.00269049
0.00235324
0.00201029
0.00165982
0.00129996
0.000928689
0.000543917
0.00014333
-0.000275573
-0.000715582
-0.00117983
-0.00167174
-0.00219552
-0.00275525
-0.00335706
-0.00400532
-0.00470985
-0.00547393
-0.00631432
-0.00723068
-0.00824918
-0.00936552
-0.010596
-0.0119424
-0.0132574
-0.0145715
0.063954
0.032107
0.0162209
0.0144611
0.0139879
0.0124775
0.0110839
0.0101131
0.00936009
0.00869995
0.00810619
0.00757072
0.00708297
0.00663274
0.0062121
0.00581504
0.00543673
0.00507324
0.00472121
0.00437779
0.00404047
0.003707
0.00337533
0.00304354
0.00270979
0.00237229
0.00202925
0.00167884
0.0013192
0.000948339
0.000564177
0.000164433
-0.000253365
-0.000691949
-0.00115441
-0.00164408
-0.00216508
-0.00272138
-0.00331889
-0.0039619
-0.00465964
-0.00541564
-0.00624481
-0.00714843
-0.00814724
-0.00924136
-0.0104352
-0.0117345
-0.0129978
-0.0142465
0.0615323
0.0324492
0.0168126
0.0146524
0.0141267
0.012617
0.011187
0.0101886
0.00942336
0.00875557
0.00815502
0.00761391
0.00712175
0.00666802
0.00624453
0.00584508
0.00546477
0.00509958
0.00474613
0.00440152
0.0040632
0.00372892
0.00339661
0.00306433
0.00273025
0.00239256
0.00204949
0.00169923
0.00133991
0.000969567
0.000586145
0.0001874
-0.000229108
-0.000666049
-0.00112646
-0.00161358
-0.00213142
-0.00268382
-0.00327646
-0.00391353
-0.0046036
-0.00535046
-0.00616709
-0.00705615
-0.00803337
-0.00910194
-0.0102571
-0.0115052
-0.012717
-0.0139023
0.0591854
0.0327065
0.0173877
0.0148396
0.014256
0.0127547
0.0112919
0.010265
0.0094871
0.00881182
0.0082046
0.00765783
0.00716124
0.00670401
0.00627765
0.00587582
0.00549351
0.00512665
0.0047718
0.00442602
0.00408674
0.00375168
0.00341875
0.00308603
0.00275166
0.00241385
0.00207082
0.00172077
0.00136186
0.000992147
0.000609589
0.000211988
-0.000203057
-0.000638152
-0.00109627
-0.00158054
-0.00209487
-0.00264295
-0.0032302
-0.0038607
-0.00454232
-0.00527905
-0.00608198
-0.00695482
-0.00790885
-0.00894901
-0.010064
-0.0112583
-0.012418
-0.0135418
0.0569154
0.0328807
0.0179429
0.0150244
0.0143757
0.0128895
0.0113984
0.0103425
0.00955125
0.00886862
0.00825487
0.00770245
0.0072014
0.00674065
0.00631142
0.0059072
0.00552291
0.00515438
0.00479813
0.00445119
0.00411097
0.00377515
0.00344165
0.00310852
0.0027739
0.00243602
0.00209309
0.00174333
0.00138491
0.00101592
0.000634336
0.000238011
-0.000175413
-0.000608475
-0.00106407
-0.00154523
-0.00205572
-0.0025991
-0.00318048
-0.00380384
-0.00447632
-0.00520203
-0.00599028
-0.00684543
-0.00777497
-0.00878437
-0.00985808
-0.0109972
-0.012104
-0.0131672
0.054724
0.032974
0.0184752
0.0152078
0.0144859
0.0130205
0.0115063
0.0104211
0.00961576
0.00892591
0.00830582
0.00774776
0.00724221
0.00677793
0.00634584
0.00593923
0.00555293
0.00518274
0.0048251
0.00447702
0.00413586
0.00379931
0.00346525
0.00313174
0.00279692
0.00245901
0.00211623
0.00176682
0.00140897
0.00104078
0.000660284
0.000265358
-0.000146301
-0.000577158
-0.00103003
-0.00150784
-0.00201419
-0.00255251
-0.00312759
-0.00374331
-0.00440602
-0.00511992
-0.00589262
-0.00672879
-0.00763279
-0.0086096
-0.00964128
-0.0107248
-0.0117776
-0.0127806
0.0526122
0.032989
0.0189814
0.0153912
0.0145867
0.0131466
0.0116152
0.0105007
0.00968058
0.0089836
0.00835739
0.00779374
0.00728368
0.00681585
0.00638088
0.00597189
0.00558359
0.00521173
0.00485271
0.00450349
0.00416142
0.00382414
0.00348955
0.00315569
0.0028207
0.00248279
0.00214022
0.00179122
0.001434
0.00106671
0.00068739
0.000293979
-0.000115775
-0.000544265
-0.000994215
-0.00146844
-0.00197038
-0.00250333
-0.00307172
-0.0036793
-0.00433169
-0.00503305
-0.00578947
-0.00660553
-0.00748311
-0.00842595
-0.00941504
-0.0104431
-0.0114408
-0.0123835
0.0505809
0.032929
0.0194586
0.0155751
0.0146785
0.0132669
0.0117246
0.0105815
0.00974567
0.00904159
0.00840954
0.00784038
0.00732578
0.0068544
0.00641656
0.00600518
0.00561489
0.00524136
0.00488097
0.00453062
0.00418763
0.00384966
0.00351456
0.00318037
0.00284524
0.00250739
0.00216507
0.00181653
0.00146002
0.0010937
0.000715658
0.000323875
-8.38409e-05
-0.000509807
-0.000956647
-0.00142707
-0.00192433
-0.00245158
-0.00301291
-0.0036119
-0.00425348
-0.00494161
-0.00568107
-0.00647603
-0.00732642
-0.00823428
-0.00918036
-0.0101534
-0.0110952
-0.011977
0.0486304
0.0327977
0.0199037
0.0157601
0.0147619
0.0133805
0.011834
0.0106634
0.00981101
0.00909981
0.0084622
0.00788764
0.00736852
0.00689357
0.00645286
0.00603911
0.00564683
0.00527165
0.00490988
0.00455841
0.00421454
0.00387588
0.00354029
0.0032058
0.00287057
0.00253281
0.00219079
0.00184279
0.00148705
0.00112178
0.000745115
0.000355074
-5.04671e-05
-0.00047375
-0.000917292
-0.00138369
-0.00187602
-0.00239726
-0.00295117
-0.00354113
-0.00417139
-0.00484566
-0.00556754
-0.00634053
-0.00716304
-0.00803515
-0.00893787
-0.00985658
-0.0107416
-0.0115618
0.0467607
0.0325992
0.020314
0.0159462
0.0148375
0.0134865
0.0119426
0.0107462
0.00987658
0.00915815
0.00851531
0.0079355
0.00741186
0.00693336
0.0064898
0.00607367
0.00567942
0.00530259
0.00493946
0.00458689
0.00424214
0.00390281
0.00356677
0.00323201
0.00289671
0.00255909
0.00221743
0.00187001
0.00151512
0.001151
0.000775806
0.000387626
-1.56028e-05
-0.00043604
-0.000876095
-0.00133825
-0.00182537
-0.0023403
-0.00288643
-0.00346691
-0.00408539
-0.00474518
-0.00544887
-0.0061991
-0.00699309
-0.0078289
-0.00868797
-0.00955294
-0.0103806
-0.0111383
0.0449712
0.0323381
0.0206869
0.0161331
0.0149064
0.0135844
0.0120498
0.01083
0.00994239
0.00921653
0.00856877
0.00798393
0.00745581
0.00697375
0.00652735
0.00610888
0.00571267
0.0053342
0.00496973
0.00461606
0.00427046
0.0039305
0.00359401
0.00325903
0.0029237
0.00258627
0.00224501
0.00189825
0.00154429
0.0011814
0.000807782
0.000421586
2.08139e-05
-0.000396611
-0.000832981
-0.00129066
-0.00177231
-0.00228061
-0.00281859
-0.00338917
-0.00399538
-0.0046401
-0.005325
-0.00605177
-0.00681664
-0.00761572
-0.0084309
-0.00924274
-0.0100127
-0.0107071
0.0432612
0.0320193
0.02102
0.0163202
0.0149693
0.0136737
0.0121548
0.0109145
0.0100084
0.00927485
0.00862251
0.00803288
0.00750033
0.00701473
0.00656552
0.00614473
0.00574657
0.00536648
0.00500069
0.00464596
0.00429952
0.00395894
0.00362206
0.00328688
0.00295157
0.00261437
0.00227358
0.00192755
0.00157459
0.00121303
0.000841102
0.000457016
5.88506e-05
-0.000355388
-0.000787871
-0.00124083
-0.00171675
-0.00221809
-0.00274757
-0.0033078
-0.00390126
-0.00453034
-0.00519587
-0.00589853
-0.00663371
-0.00739572
-0.00816669
-0.0089261
-0.0096382
-0.0102687
0.0416292
0.0316481
0.0213113
0.0165063
0.0150273
0.013754
0.0122567
0.0109996
0.0100747
0.00933305
0.00867641
0.00808228
0.00754542
0.00705629
0.00660429
0.00618122
0.00578114
0.00539946
0.00503236
0.00467658
0.00432934
0.00398818
0.00365092
0.00331559
0.00298034
0.00264343
0.00230318
0.00195795
0.00160608
0.00124594
0.000875823
0.000493982
9.85782e-05
-0.000312293
-0.00074068
-0.00118868
-0.00165858
-0.00215264
-0.00267324
-0.00322268
-0.00380293
-0.00441579
-0.0050614
-0.00573935
-0.00644431
-0.00716902
-0.00789583
-0.00860315
-0.00925733
-0.00982362
0.0400737
0.0312299
0.0215592
0.0166899
0.0150815
0.0138253
0.0123547
0.0110848
0.0101413
0.00939105
0.00873037
0.00813209
0.00759102
0.00709841
0.00664366
0.00621833
0.00581637
0.00543313
0.00506474
0.00470795
0.00435993
0.00401822
0.00368064
0.0033452
0.00301007
0.0026735
0.00233385
0.00198949
0.00163881
0.0012802
0.000912007
0.000532551
0.00014007
-0.000267248
-0.000691324
-0.00113412
-0.00159771
-0.00208415
-0.0025955
-0.00313371
-0.00370027
-0.00429638
-0.0049215
-0.00557421
-0.00624849
-0.0069357
-0.00761833
-0.00827403
-0.00887046
-0.00937257
0.0385928
0.0307703
0.0217624
0.0168692
0.0151328
0.0138876
0.0124478
0.0111697
0.0102081
0.00944881
0.00878428
0.00818222
0.00763712
0.00714107
0.0066836
0.00625607
0.00585227
0.00546749
0.00509786
0.00474009
0.00439132
0.0040491
0.00371124
0.00337573
0.00304076
0.00270461
0.00236564
0.00202223
0.00167283
0.00131586
0.000949717
0.000572791
0.0001834
-0.00022017
-0.000639713
-0.00107704
-0.00153403
-0.00201252
-0.00251424
-0.00304079
-0.00359318
-0.00417203
-0.00477613
-0.00540311
-0.0060463
-0.00669591
-0.00733439
-0.00793893
-0.00847801
-0.0089163
0.0371842
0.0302751
0.0219201
0.0170421
0.0151822
0.0139413
0.0125353
0.011254
0.0102751
0.00950628
0.00883803
0.00823259
0.00768367
0.00718424
0.0067241
0.00629442
0.00588883
0.00550256
0.00513172
0.004773
0.00442353
0.00408084
0.00374273
0.00340722
0.00307248
0.0027368
0.00239857
0.00205622
0.00170819
0.00135297
0.000989017
0.000614772
0.000228645
-0.000170979
-0.000585759
-0.00101736
-0.00146745
-0.00193764
-0.00242935
-0.00294381
-0.00348158
-0.00404266
-0.00462524
-0.00522607
-0.00583781
-0.00644977
-0.00704423
-0.00759816
-0.00808047
-0.0084557
0.0358455
0.0297499
0.0220321
0.0172061
0.0152304
0.0139868
0.0126165
0.0113369
0.0103422
0.00956345
0.00889151
0.0082831
0.00773063
0.00722791
0.00676515
0.00633338
0.00592605
0.00553834
0.00516633
0.0048067
0.00445658
0.00411346
0.00377516
0.00343969
0.00310524
0.00277012
0.00243271
0.0020915
0.00174495
0.00139161
0.00102997
0.000658565
0.000275882
-0.00011959
-0.000529375
-0.000954985
-0.00139788
-0.00185942
-0.00234074
-0.00284269
-0.00336538
-0.00390822
-0.00446883
-0.00504311
-0.00562315
-0.00619746
-0.00674815
-0.00725206
-0.00767841
-0.00799168
0.0345739
0.0292004
0.0220987
0.0173586
0.0152779
0.0140247
0.0126906
0.011418
0.0104093
0.00962028
0.00894461
0.00833363
0.00777792
0.00727203
0.00680672
0.00637292
0.00596392
0.00557482
0.0052017
0.00484121
0.00449047
0.00414699
0.00380855
0.00347318
0.00313909
0.00280459
0.0024681
0.00212812
0.00178317
0.00143182
0.00107265
0.000704242
0.000325187
-6.59213e-05
-0.000470473
-0.000889817
-0.00132521
-0.00177777
-0.00224832
-0.00273735
-0.00324451
-0.00376868
-0.00430689
-0.00485431
-0.00540245
-0.00593919
-0.00644645
-0.00690106
-0.00727247
-0.00752523
0.0333667
0.0286318
0.0221206
0.0174971
0.015325
0.0140559
0.0127573
0.0114964
0.0104763
0.00967676
0.00899724
0.00838408
0.00782549
0.00731658
0.00684878
0.00641303
0.00600243
0.00561201
0.00523783
0.00487653
0.00452524
0.00418143
0.00384292
0.00350773
0.00317406
0.00284026
0.00250478
0.00216613
0.00182289
0.00147367
0.00111711
0.000751876
0.000376639
-9.89058e-06
-0.000408965
-0.000821769
-0.00124935
-0.00169259
-0.00215201
-0.0026277
-0.00311893
-0.00362402
-0.00413945
-0.00465974
-0.00517587
-0.00567521
-0.00613951
-0.00654565
-0.00686334
-0.00705739
0.0322208
0.0280493
0.0220992
0.0176191
0.0153716
0.014081
0.0128162
0.0115716
0.0105427
0.00973288
0.00904932
0.00843433
0.00787324
0.00736152
0.00689132
0.00645369
0.00604158
0.00564991
0.00527473
0.00491268
0.00456089
0.00421683
0.00387831
0.00354335
0.00321019
0.00287719
0.0025428
0.0022056
0.00186419
0.00151723
0.00116343
0.000801539
0.000430316
4.85842e-05
-0.000344767
-0.000750754
-0.00117022
-0.0016038
-0.00205171
-0.0025137
-0.0029886
-0.00347423
-0.00396657
-0.00445953
-0.00494363
-0.00540582
-0.00582774
-0.00618638
-0.00645179
-0.00658923
0.0311333
0.0274574
0.0220364
0.0177226
0.0154171
0.0141009
0.0128672
0.0116427
0.0106084
0.00978859
0.00910079
0.00848425
0.00792109
0.00740679
0.0069343
0.00649488
0.00608135
0.00568851
0.0053124
0.00494967
0.00459745
0.0042532
0.00391473
0.0035801
0.00324752
0.0029154
0.00258221
0.00224656
0.0019071
0.00156255
0.00121168
0.000853303
0.000486292
0.000109583
-0.000277795
-0.000676689
-0.00108774
-0.00151133
-0.00194738
-0.00239529
-0.0028535
-0.00331934
-0.00378832
-0.00425382
-0.00470595
-0.00513135
-0.00551158
-0.00582386
-0.00603866
-0.00612185
0.0301011
0.0268603
0.0219345
0.0178057
0.0154609
0.0141164
0.0129102
0.0117091
0.0106728
0.00984383
0.00915159
0.00853372
0.00796893
0.00745234
0.00697769
0.00653657
0.00612171
0.0057278
0.00535084
0.00498751
0.00463492
0.00429056
0.00395223
0.00361799
0.00328609
0.00295493
0.00262306
0.00228908
0.0019517
0.0016097
0.00126191
0.000907239
0.000544645
0.000173185
-0.00020797
-0.000599495
-0.00100183
-0.0014151
-0.00183896
-0.00227244
-0.00271362
-0.00315939
-0.00360481
-0.0040428
-0.00446312
-0.00485219
-0.00519156
-0.00545876
-0.00562479
-0.00565637
0.0291211
0.0262618
0.0217962
0.0178668
0.0155016
0.014128
0.0129456
0.0117702
0.0107356
0.0098985
0.00920167
0.00858263
0.00801666
0.0074981
0.00702145
0.00657874
0.00616266
0.00576777
0.00539006
0.0050262
0.00467333
0.00432893
0.00399081
0.00365705
0.00332592
0.00299585
0.00266538
0.0023332
0.00199804
0.00165874
0.00131421
0.000963419
0.000605448
0.000239464
-0.000135217
-0.000519098
-0.000912414
-0.00131506
-0.0017264
-0.00214514
-0.002569
-0.00299446
-0.00341617
-0.00382667
-0.00421543
-0.00456874
-0.00486822
-0.00509178
-0.00521111
-0.00519393
0.0281903
0.0256651
0.0216246
0.0179048
0.0155381
0.0141363
0.0129736
0.0118254
0.0107961
0.00995245
0.009251
0.00863087
0.00806414
0.00754399
0.00706554
0.00662136
0.00620416
0.00580841
0.00543005
0.00506575
0.00471268
0.00436833
0.00403052
0.00369733
0.00336706
0.00303817
0.00270924
0.00237897
0.00204617
0.00170973
0.00136862
0.00102191
0.000668771
0.000308493
-5.94629e-05
-0.000435431
-0.000819446
-0.00121116
-0.00160968
-0.0020134
-0.00241967
-0.00282463
-0.00322257
-0.00360569
-0.00396324
-0.00428148
-0.00454216
-0.00472368
-0.00479853
-0.00473565
0.0273058
0.0250731
0.021423
0.0179189
0.0155689
0.0141416
0.0129948
0.0118744
0.0108539
0.0100055
0.00929952
0.00867836
0.00811126
0.00758993
0.0071099
0.00666438
0.0062462
0.00584971
0.0054708
0.00510616
0.00475298
0.00440877
0.00407136
0.00373885
0.00340955
0.00308195
0.00275467
0.00242646
0.00209616
0.00176273
0.00142522
0.00108278
0.000734682
0.00038034
1.93558e-05
-0.000348434
-0.00072287
-0.00110338
-0.00148879
-0.00187722
-0.0022657
-0.00265004
-0.0030242
-0.00338013
-0.00370694
-0.00399086
-0.00421401
-0.00435525
-0.00438803
-0.00428266
0.0264648
0.0244882
0.0211947
0.0179088
0.0155923
0.0141441
0.0130095
0.0119169
0.0109085
0.0100573
0.00934719
0.008725
0.0081579
0.0076358
0.00715449
0.00670778
0.00628874
0.00589164
0.0055123
0.00514744
0.00479425
0.00445028
0.00411337
0.00378164
0.00345342
0.00312723
0.00280172
0.0024757
0.00214806
0.00181781
0.00148407
0.00114609
0.000803246
0.000455067
0.000101298
-0.000258058
-0.000622649
-0.000991678
-0.00136374
-0.00173665
-0.00210719
-0.00247082
-0.00282129
-0.00315032
-0.00344693
-0.00369739
-0.00388444
-0.00398731
-0.00398056
-0.00383605
0.0256646
0.0239122
0.0209432
0.0178746
0.0156069
0.0141437
0.0130184
0.0119528
0.0109591
0.0101077
0.00939391
0.00877074
0.00820394
0.00768152
0.00719922
0.00675152
0.00633175
0.00593418
0.00555455
0.00518958
0.00483649
0.00449287
0.00415657
0.00382572
0.00349869
0.00317404
0.00285044
0.00252675
0.00220191
0.001875
0.00154523
0.00121191
0.000874523
0.000532731
0.000186415
-0.00016426
-0.000518756
-0.000876065
-0.00123454
-0.00159177
-0.00194423
-0.00228717
-0.0026141
-0.00291661
-0.0031837
-0.00340185
-0.00355417
-0.00362069
-0.00357711
-0.00339691
0.0249025
0.0233467
0.0206718
0.0178167
0.0156112
0.01414
0.0130219
0.011982
0.0110055
0.0101562
0.00943959
0.0088155
0.00824926
0.00772696
0.00724403
0.00679555
0.00637521
0.00597731
0.00559752
0.00523257
0.00487971
0.00453655
0.00420096
0.00387112
0.00354542
0.00322242
0.00290087
0.00257965
0.00225778
0.00193438
0.00160875
0.00128028
0.000948565
0.000613381
0.000274748
-6.70111e-05
-0.000411179
-0.000756547
-0.00110126
-0.00144264
-0.00177699
-0.0020993
-0.00240292
-0.00267938
-0.00291773
-0.00310471
-0.00322392
-0.00325623
-0.00317862
-0.00296628
0.0241761
0.022793
0.0203838
0.017736
0.0156041
0.0141326
0.0130205
0.0120047
0.0110471
0.0102024
0.00948408
0.00885923
0.00829376
0.00777201
0.00728884
0.00683981
0.00641907
0.00602099
0.00564121
0.00527641
0.00492391
0.00458133
0.00424659
0.00391788
0.00359361
0.00327241
0.00295305
0.00263445
0.0023157
0.00199599
0.00167468
0.00135126
0.00102542
0.000697059
0.00036633
3.37077e-05
-0.000299919
-0.000633154
-0.000963937
-0.0012894
-0.00160562
-0.00190744
-0.00218808
-0.00243905
-0.00264954
-0.00280661
-0.00289444
-0.0028948
-0.00278604
-0.00254512
0.0234833
0.0222519
0.0200822
0.0176336
0.0155844
0.0141209
0.0130146
0.012021
0.0110836
0.010246
0.0095272
0.00890184
0.00833735
0.00781655
0.00733354
0.00688425
0.0064633
0.00606521
0.00568558
0.0053211
0.00496908
0.00462721
0.00429345
0.003966
0.00364331
0.00332404
0.00300701
0.0026912
0.00237573
0.00205988
0.00174307
0.00142489
0.00110513
0.000783799
0.000461182
0.000137901
-0.000184994
-0.000505934
-0.000822675
-0.00113217
-0.00143033
-0.00171185
-0.00196993
-0.00219607
-0.00237968
-0.0025082
-0.00256647
-0.00253725
-0.00240028
-0.00213437
0.0228219
0.021724
0.0197698
0.017511
0.0155516
0.0141042
0.0130042
0.0120312
0.0111148
0.0102865
0.00956873
0.00894327
0.00837994
0.00786047
0.00737805
0.0069288
0.00650785
0.00610992
0.00573062
0.00536661
0.00501523
0.00467422
0.00434156
0.00401551
0.00369454
0.00337734
0.0030628
0.00274992
0.0024379
0.00212608
0.00181396
0.00150121
0.00118773
0.000873623
0.000559314
0.00024556
-6.64389e-05
-0.000374953
-0.000677579
-0.000971112
-0.00125133
-0.00151285
-0.00174884
-0.00195091
-0.00210872
-0.00221015
-0.00224078
-0.00218441
-0.00202223
-0.00173488
0.0221899
0.0212098
0.0194491
0.0173697
0.015505
0.0140816
0.0129896
0.0120357
0.0111404
0.0103235
0.0096084
0.00898342
0.00842146
0.00790365
0.00742224
0.00697339
0.00655267
0.0061551
0.0057763
0.00541293
0.00506235
0.00472234
0.00439094
0.00406642
0.00374732
0.00343235
0.00312044
0.00281066
0.00250226
0.00219464
0.00188739
0.00158026
0.00127323
0.000966544
0.000660723
0.000356661
5.56952e-05
-0.0002403
-0.000528781
-0.000806415
-0.00106888
-0.00131076
-0.00152524
-0.00170407
-0.00183725
-0.00191317
-0.00191814
-0.00183709
-0.00165269
-0.00134743
0.0215856
0.0207094
0.0191225
0.0172115
0.0154446
0.0140523
0.0129707
0.0120346
0.0111605
0.0103567
0.00964595
0.00902216
0.00846182
0.007946
0.00746602
0.00701794
0.00659772
0.0062007
0.00582259
0.00546004
0.00511043
0.00477158
0.00444158
0.00411876
0.00380167
0.00348908
0.00317996
0.00287344
0.00256883
0.00226559
0.00196338
0.00166204
0.00136166
0.00106256
0.000765391
0.000471162
0.000181337
-0.000102083
-0.000376437
-0.00063829
-0.000883265
-0.00110592
-0.00129954
-0.00145608
-0.00156587
-0.00161789
-0.0015993
-0.00149609
-0.00129244
-0.000972686
0.0210072
0.020223
0.0187919
0.0170381
0.0153704
0.0140158
0.0129474
0.0120283
0.011175
0.0103858
0.00968108
0.00905935
0.00850094
0.00798741
0.00750929
0.00706235
0.00664292
0.00624667
0.00586945
0.00550791
0.00515945
0.00482193
0.0044935
0.00417252
0.0038576
0.00354756
0.00324139
0.0029383
0.00263764
0.00233895
0.00204195
0.00174659
0.00145301
0.00116166
0.000873287
0.000589006
0.000310397
3.95681e-05
-0.000220724
-0.000466975
-0.000694776
-0.000898721
-0.00107222
-0.00120746
-0.00129521
-0.00132502
-0.00128495
-0.00116216
-0.000942202
-0.00061126
0.0204531
0.0197505
0.0184592
0.0168515
0.0152828
0.0139714
0.0129193
0.0120171
0.0111841
0.0104106
0.00971349
0.00909482
0.00853874
0.0080278
0.00755192
0.00710654
0.00668822
0.00629299
0.00591686
0.00555653
0.0052094
0.00487339
0.00454669
0.00422773
0.00391514
0.0036078
0.00330475
0.00300525
0.0027087
0.00241473
0.00212312
0.00183389
0.00154728
0.00126383
0.000984363
0.000710119
0.000442765
0.0001845
-6.1847e-05
-0.000292728
-0.000503742
-0.000689552
-0.000843733
-0.000958771
-0.00102588
-0.00103524
-0.000975829
-0.000835927
-0.000602583
-0.000263674
0.019922
0.0192917
0.0181258
0.0166533
0.0151823
0.0139186
0.0128864
0.012001
0.0111879
0.0104308
0.0097429
0.00912839
0.00857513
0.00806708
0.00759382
0.00715041
0.00673353
0.00633958
0.00596477
0.00560585
0.00526026
0.00492594
0.00460115
0.00428437
0.00397429
0.00366981
0.00337005
0.0030743
0.00278204
0.00249295
0.00220689
0.00192394
0.00164445
0.00136901
0.00109855
0.000834405
0.00057831
0.00033254
9.99704e-05
-0.000115835
-0.000310512
-0.000478833
-0.00061458
-0.000710567
-0.000758494
-0.000749223
-0.000672594
-0.000518046
-0.000274127
6.9682e-05
0.0194126
0.0188465
0.0177931
0.0164454
0.0150697
0.0138572
0.0128481
0.0119801
0.0111864
0.0104464
0.00976904
0.00915985
0.00861
0.00810517
0.0076349
0.00719386
0.0067788
0.0063864
0.00601314
0.00565586
0.00531201
0.00497958
0.00465688
0.00434245
0.00403504
0.0037336
0.00343729
0.00314546
0.00285766
0.00257361
0.00229324
0.00201673
0.00174447
0.00147715
0.00121578
0.000961752
0.000716882
0.000483492
0.000264481
6.34001e-05
-0.000115455
-0.000266998
-0.000385256
-0.000463404
-0.000493666
-0.000467567
-0.000375834
-0.000209121
4.26672e-05
0.000388526
0.0189236
0.0184146
0.0174622
0.0162293
0.0149457
0.0137869
0.0128043
0.0119546
0.01118
0.0104573
0.0097917
0.009189
0.00864323
0.00814199
0.00767506
0.00723679
0.00682392
0.00643339
0.00606193
0.0057065
0.0053646
0.00503427
0.00471386
0.00440197
0.0040974
0.00379917
0.00350648
0.00321874
0.00293554
0.00265668
0.00238217
0.00211221
0.0018473
0.00158818
0.00133594
0.00109203
0.000858311
0.000637139
0.000431415
0.000244652
8.10446e-05
-5.4494e-05
-0.000156265
-0.000217835
-0.000231977
-0.000190913
-8.61448e-05
9.03786e-05
0.000347425
0.000692643
0.0184539
0.0179957
0.017134
0.0160065
0.0148113
0.013708
0.0127546
0.0119243
0.0111687
0.0104636
0.00981069
0.00921562
0.00867468
0.00817745
0.00771422
0.00727912
0.00686882
0.00648048
0.00611109
0.00575775
0.00541803
0.00508999
0.00477206
0.0044629
0.00416137
0.00386651
0.00357761
0.00329412
0.00301569
0.00274217
0.00247363
0.00221035
0.00195287
0.00170202
0.00145893
0.00122509
0.0010024
0.000793245
0.000600487
0.000427578
0.000278587
0.000158225
7.18876e-05
2.55936e-05
2.60078e-05
8.02149e-05
0.00019589
0.000379937
0.00063983
0.000981954
0.0180025
0.0175897
0.0168094
0.0157786
0.0146675
0.0136204
0.0126988
0.0118893
0.0111526
0.0104652
0.00982588
0.00923952
0.00870421
0.00821147
0.0077523
0.00732075
0.00691341
0.0065276
0.00616055
0.00580955
0.00547223
0.00514672
0.00483148
0.00452524
0.00422691
0.00393562
0.00365067
0.00337158
0.00309806
0.00283002
0.00256758
0.00231108
0.00206111
0.00181856
0.00158459
0.00136075
0.00114895
0.000951553
0.00077139
0.00061182
0.000476762
0.000370699
0.000298701
0.000266355
0.000279755
0.0003453
0.000469651
0.000659172
0.000919712
0.00125648
0.0175685
0.0171961
0.0164891
0.0155466
0.0145154
0.0135246
0.0126369
0.0118495
0.0111319
0.0104622
0.00983718
0.00926053
0.00873168
0.00824394
0.0077892
0.00736159
0.0069576
0.00657467
0.00621027
0.00586186
0.00552719
0.00520441
0.00489207
0.00458895
0.00429402
0.00400645
0.00372563
0.0034511
0.00318264
0.0029202
0.00266397
0.00241433
0.00217192
0.00193767
0.00171279
0.00149884
0.00129773
0.00111179
0.000943804
0.00079701
0.000675153
0.000582468
0.000523684
0.00050394
0.000528764
0.000603859
0.00073505
0.000927888
0.001187
0.00151638
0.0171509
0.0168146
0.0161736
0.0153119
0.0143559
0.013421
0.0125688
0.0118049
0.0111067
0.0104548
0.00984453
0.0092785
0.00875695
0.00827477
0.00782487
0.00740157
0.00700131
0.00662162
0.00626018
0.00591463
0.00558284
0.00526304
0.00495381
0.004654
0.00436265
0.004079
0.00380245
0.00353264
0.00326937
0.00301266
0.00276272
0.00252
0.00228519
0.00205923
0.00184336
0.00163914
0.00144848
0.00127367
0.0011174
0.000982768
0.00087334