/*--------------------------------*- C++ -*----------------------------------*\
  =========                 |
  \\      /  F ield         | OpenFOAM: The Open Source CFD Toolbox
   \\    /   O peration     | Website:  https://openfoam.org
    \\  /    A nd           | Version:  7
     \\/     M anipulation  |
\*---------------------------------------------------------------------------*/
FoamFile
{
    version     2.0;
    format      ascii;
    class       surfaceScalarField;
    location    "0.46";
    object      phi_0;
}
// * * * * * * * * * * * * * * * * * * * * * * * * * * * * * * * * * * * * * //

dimensions      [0 3 -1 0 0 0 0];

internalField   nonuniform List<scalar> 
139350
(
6.45935e-08
9.2038e-08
3.19541e-08
3.26395e-08
2.30654e-08
8.88865e-09
1.95738e-08
3.49161e-09
1.76249e-08
1.94884e-09
1.62005e-08
1.42443e-09
1.50708e-08
1.12968e-09
1.41604e-08
9.10441e-10
1.34116e-08
7.48758e-10
1.27814e-08
6.302e-10
1.2241e-08
5.40452e-10
1.1771e-08
4.70032e-10
1.13576e-08
4.13321e-10
1.09908e-08
3.66789e-10
1.06628e-08
3.28031e-10
1.03675e-08
2.95324e-10
1.01001e-08
2.67402e-10
9.85677e-09
2.43315e-10
9.63443e-09
2.2234e-10
9.43051e-09
2.03917e-10
9.24291e-09
1.87604e-10
9.06986e-09
1.7305e-10
8.90989e-09
1.5997e-10
8.76176e-09
1.48133e-10
8.62441e-09
1.37344e-10
8.49697e-09
1.27442e-10
8.37869e-09
1.18284e-10
8.26893e-09
1.09753e-10
8.1672e-09
1.01736e-10
8.07306e-09
9.41426e-11
7.98619e-09
8.68682e-11
7.90634e-09
7.9847e-11
7.83338e-09
7.29608e-11
7.76721e-09
6.61684e-11
7.7079e-09
5.93138e-11
7.65552e-09
5.2376e-11
7.61037e-09
4.51529e-11
7.57279e-09
3.7581e-11
7.54327e-09
2.95146e-11
7.52275e-09
2.05244e-11
7.51166e-09
1.10861e-11
7.51251e-09
-8.45622e-13
7.52458e-09
-1.2068e-11
7.55491e-09
-3.03378e-11
7.59761e-09
-4.27007e-11
7.67423e-09
-7.66174e-11
7.75563e-09
-8.13982e-11
7.93805e-09
-1.82423e-10
7.87694e-09
6.11136e-11
-3.91494e-09
1.17919e-08
1.26027e-07
1.27454e-07
9.12688e-08
6.7398e-08
7.19534e-08
2.8204e-08
6.12328e-08
1.42122e-08
5.47935e-08
8.38812e-09
5.03072e-08
5.91076e-09
4.6831e-08
4.60592e-09
4.40233e-08
3.71807e-09
4.17051e-08
3.06696e-09
3.97517e-08
2.58363e-09
3.8076e-08
2.21615e-09
3.66181e-08
1.92798e-09
3.53353e-08
1.69613e-09
3.41961e-08
1.50597e-09
3.31765e-08
1.34759e-09
3.22579e-08
1.21394e-09
3.14255e-08
1.09986e-09
3.06673e-08
1.00147e-09
2.99738e-08
9.15815e-10
2.93371e-08
8.40617e-10
2.87507e-08
7.74076e-10
2.82089e-08
7.14762e-10
2.77074e-08
6.61518e-10
2.72421e-08
6.13401e-10
2.68099e-08
5.69625e-10
2.64078e-08
5.29532e-10
2.60335e-08
4.9256e-10
2.5685e-08
4.58225e-10
2.53607e-08
4.2609e-10
2.5059e-08
3.95788e-10
2.47789e-08
3.66932e-10
2.45196e-08
3.39243e-10
2.42802e-08
3.12309e-10
2.40604e-08
2.85945e-10
2.38601e-08
2.59606e-10
2.36793e-08
2.33242e-10
2.35184e-08
2.06015e-10
2.33779e-08
1.78051e-10
2.32594e-08
1.48086e-10
2.31637e-08
1.16218e-10
2.30937e-08
8.10837e-11
2.30516e-08
4.12758e-11
2.30416e-08
-2.14379e-12
2.30699e-08
-5.8633e-11
2.31392e-08
-1.11983e-10
2.32736e-08
-2.10999e-10
2.34439e-08
-2.51699e-10
2.38173e-08
-5.55838e-10
2.39944e-08
-1.15942e-10
-5.29077e-09
2.53702e-08
1.58808e-07
1.3505e-07
1.365e-07
8.97065e-08
1.17506e-07
4.71982e-08
1.03337e-07
2.83812e-08
9.33394e-08
1.83853e-08
8.60479e-08
1.32023e-08
8.03531e-08
1.03008e-08
7.57134e-08
8.35777e-09
7.18467e-08
6.93361e-09
6.85663e-08
5.864e-09
6.57392e-08
5.04332e-09
6.32705e-08
4.39663e-09
6.10919e-08
3.87475e-09
5.91522e-08
3.44563e-09
5.74123e-08
3.08747e-09
5.58416e-08
2.78469e-09
5.44156e-08
2.52585e-09
5.31147e-08
2.30234e-09
5.19229e-08
2.10759e-09
5.08271e-08
1.9365e-09
4.98161e-08
1.78503e-09
4.88809e-08
1.64999e-09
4.80136e-08
1.52877e-09
4.72078e-08
1.41927e-09
4.64577e-08
1.3197e-09
4.57586e-08
1.22861e-09
4.51065e-08
1.14471e-09
4.44978e-08
1.06694e-09
4.39295e-08
9.94317e-10
4.33993e-08
9.26022e-10
4.2905e-08
8.61223e-10
4.2445e-08
7.99283e-10
4.20179e-08
7.39353e-10
4.16229e-08
6.81001e-10
4.12594e-08
6.23108e-10
4.0927e-08
5.65588e-10
4.06264e-08
5.06608e-10
4.03577e-08
4.46777e-10
4.0123e-08
3.82763e-10
3.99228e-08
3.16412e-10
3.9762e-08
2.41895e-10
3.96411e-08
1.62163e-10
3.95695e-08
6.95149e-11
3.9549e-08
-3.81379e-11
3.95928e-08
-1.55835e-10
3.97181e-08
-3.36308e-10
3.99111e-08
-4.44638e-10
4.03285e-08
-9.73272e-10
4.07685e-08
-5.55891e-10
-5.77991e-09
4.12576e-08
1.75665e-07
1.30901e-07
1.65599e-07
9.97724e-08
1.52734e-07
6.00627e-08
1.40145e-07
4.0971e-08
1.29466e-07
2.90636e-08
1.20835e-07
2.18331e-08
1.13737e-07
1.73996e-08
1.0777e-07
1.43246e-08
1.02684e-07
1.20197e-08
9.82961e-08
1.02515e-08
9.44678e-08
8.87167e-09
9.10931e-08
7.77137e-09
8.80921e-08
6.87566e-09
8.54037e-08
6.13411e-09
8.29794e-08
5.51169e-09
8.07811e-08
4.98305e-09
7.87776e-08
4.52936e-09
7.69436e-08
4.13632e-09
7.52583e-08
3.79291e-09
7.37043e-08
3.49051e-09
7.2267e-08
3.22232e-09
7.09341e-08
2.98284e-09
6.96953e-08
2.76764e-09
6.85415e-08
2.57306e-09
6.74651e-08
2.39607e-09
6.64596e-08
2.2341e-09
6.55194e-08
2.08498e-09
6.46395e-08
1.94683e-09
6.38158e-08
1.81798e-09
6.30448e-08
1.69699e-09
6.23236e-08
1.58245e-09
6.16496e-08
1.47325e-09
6.1021e-08
1.36798e-09
6.04361e-08
1.26588e-09
5.98941e-08
1.16512e-09
5.93942e-08
1.06554e-09
5.89367e-08
9.64092e-10
5.85214e-08
8.62016e-10
5.81509e-08
7.53352e-10
5.78249e-08
6.42367e-10
5.75495e-08
5.17312e-10
5.73242e-08
3.87475e-10
5.71608e-08
2.32903e-10
5.70592e-08
6.34893e-11
5.70374e-08
-1.34058e-10
5.7109e-08
-4.07944e-10
5.72737e-08
-6.09371e-10
5.76488e-08
-1.34833e-09
5.82101e-08
-1.11722e-09
-6.04849e-09
5.84787e-08
1.84561e-07
1.23125e-07
1.82324e-07
1.02009e-07
1.76111e-07
6.62758e-08
1.67776e-07
4.93058e-08
1.59163e-07
3.76763e-08
1.51266e-07
2.97302e-08
1.44207e-07
2.44588e-08
1.37922e-07
2.06097e-08
1.32337e-07
1.76047e-08
1.27368e-07
1.52205e-08
1.22929e-07
1.33102e-08
1.18945e-07
1.17559e-08
1.1535e-07
1.04707e-08
1.1209e-07
9.39332e-09
1.09122e-07
8.47965e-09
1.06409e-07
7.69698e-09
1.03917e-07
7.02043e-09
1.01623e-07
6.43073e-09
9.95031e-08
5.9128e-09
9.75389e-08
5.45471e-09
9.57144e-08
5.04687e-09
9.40157e-08
4.68152e-09
9.2431e-08
4.3523e-09
9.09501e-08
4.05395e-09
8.95641e-08
3.78206e-09
8.82653e-08
3.5329e-09
8.70471e-08
3.30328e-09
8.59035e-08
3.09041e-09
8.48296e-08
2.89185e-09
8.38212e-08
2.70545e-09
8.28744e-08
2.52917e-09
8.19864e-08
2.36132e-09
8.11545e-08
2.19988e-09
8.03767e-08
2.04367e-09
7.96517e-08
1.8901e-09
7.89784e-08
1.73888e-09
7.83568e-08
1.58566e-09
7.77865e-08
1.43229e-09
7.72698e-08
1.27004e-09
7.68065e-08
1.10564e-09
7.64027e-08
9.21182e-10
7.60578e-08
7.32404e-10
7.57838e-08
5.06867e-10
7.5581e-08
2.66295e-10
7.54677e-08
-2.07485e-11
7.54572e-08
-3.9751e-10
7.55588e-08
-7.10943e-10
7.58525e-08
-1.64201e-09
7.6408e-08
-1.67268e-09
-6.23606e-09
7.65955e-08
1.90389e-07
1.14953e-07
1.91854e-07
1.00544e-07
1.90249e-07
6.78801e-08
1.86165e-07
5.33901e-08
1.80735e-07
4.31064e-08
1.74991e-07
3.54741e-08
1.69307e-07
3.0143e-08
1.63837e-07
2.60795e-08
1.58677e-07
2.27644e-08
1.5387e-07
2.0028e-08
1.49417e-07
1.77628e-08
1.45303e-07
1.587e-08
1.41504e-07
1.42703e-08
1.37992e-07
1.29046e-08
1.34743e-07
1.17288e-08
1.31732e-07
1.07085e-08
1.28935e-07
9.81676e-09
1.26334e-07
9.03216e-09
1.23909e-07
8.33744e-09
1.21645e-07
7.7186e-09
1.19528e-07
7.16424e-09
1.17545e-07
6.66497e-09
1.15684e-07
6.21296e-09
1.13936e-07
5.80165e-09
1.12293e-07
5.42552e-09
1.10746e-07
5.07979e-09
1.09289e-07
4.76036e-09
1.07916e-07
4.46365e-09
1.06621e-07
4.18646e-09
1.054e-07
3.92598e-09
1.0425e-07
3.6795e-09
1.03167e-07
3.4448e-09
1.02147e-07
3.21923e-09
1.0119e-07
3.00118e-09
1.00293e-07
2.78729e-09
9.94543e-08
2.57709e-09
9.8675e-08
2.36498e-09
9.7954e-08
2.15325e-09
9.72934e-08
1.93061e-09
9.66932e-08
1.70584e-09
9.61589e-08
1.45555e-09
9.56907e-08
1.20061e-09
9.52993e-08
8.98256e-10
9.49871e-08
5.7843e-10
9.47695e-08
1.96896e-10
9.46627e-08
-2.90672e-10
9.46794e-08
-7.27685e-10
9.48737e-08
-1.83627e-09
9.53573e-08
-2.15633e-09
-6.3442e-09
9.54655e-08
1.95541e-07
1.07227e-07
1.98249e-07
9.78361e-08
1.98973e-07
6.71562e-08
1.97797e-07
5.45662e-08
1.95171e-07
4.5732e-08
1.91838e-07
3.88074e-08
1.88117e-07
3.38644e-08
1.84179e-07
3.00177e-08
1.80173e-07
2.67704e-08
1.76209e-07
2.39919e-08
1.72355e-07
2.16165e-08
1.6865e-07
1.95748e-08
1.65114e-07
1.7806e-08
1.61756e-07
1.6263e-08
1.58576e-07
1.49091e-08
1.55569e-07
1.37149e-08
1.5273e-07
1.26561e-08
1.50049e-07
1.17127e-08
1.47519e-07
1.08681e-08
1.45129e-07
1.01084e-08
1.42871e-07
9.42194e-09
1.40737e-07
8.79895e-09
1.38719e-07
8.23109e-09
1.3681e-07
7.71125e-09
1.35002e-07
7.2333e-09
1.3329e-07
6.7919e-09
1.31668e-07
6.3824e-09
1.30131e-07
6.00064e-09
1.28674e-07
5.64289e-09
1.27294e-07
5.30584e-09
1.25988e-07
4.98628e-09
1.24751e-07
4.6815e-09
1.23582e-07
4.38834e-09
1.22478e-07
4.10477e-09
1.21439e-07
3.82679e-09
1.20462e-07
3.55369e-09
1.19548e-07
3.27878e-09
1.18697e-07
3.00458e-09
1.1791e-07
2.71771e-09
1.17187e-07
2.4282e-09
1.16534e-07
2.10854e-09
1.15953e-07
1.78254e-09
1.1545e-07
1.40067e-09
1.15033e-07
9.95814e-10
1.14711e-07
5.18181e-10
1.14506e-07
-8.52991e-11
1.1443e-07
-6.51922e-10
1.14517e-07
-1.92307e-09
1.14899e-07
-2.53828e-09
-6.37258e-09
1.14927e-07
2.00849e-07
9.9963e-08
2.03778e-07
9.49069e-08
2.05331e-07
6.56027e-08
2.0565e-07
5.42469e-08
2.04829e-07
4.65534e-08
2.03355e-07
4.02818e-08
2.01415e-07
3.58036e-08
1.99096e-07
3.23374e-08
1.96501e-07
2.93651e-08
1.93734e-07
2.67591e-08
1.90875e-07
2.44756e-08
1.87984e-07
2.24656e-08
1.85106e-07
2.0684e-08
1.82273e-07
1.90964e-08
1.79506e-07
1.76757e-08
1.76821e-07
1.64e-08
1.74226e-07
1.52507e-08
1.71727e-07
1.42116e-08
1.69326e-07
1.32691e-08
1.67024e-07
1.24112e-08
1.64818e-07
1.16277e-08
1.62707e-07
1.09098e-08
1.60688e-07
1.02497e-08
1.58759e-07
9.64061e-09
1.56916e-07
9.07661e-09
1.55155e-07
8.55238e-09
1.53474e-07
8.0632e-09
1.5187e-07
7.60478e-09
1.5034e-07
7.1732e-09
1.48881e-07
6.76491e-09
1.47491e-07
6.37642e-09
1.46167e-07
6.00474e-09
1.44909e-07
5.64636e-09
1.43715e-07
5.29896e-09
1.42584e-07
4.95803e-09
1.41515e-07
4.62263e-09
1.40509e-07
4.28525e-09
1.39565e-07
3.94838e-09
1.38685e-07
3.59715e-09
1.37872e-07
3.24201e-09
1.37127e-07
2.85291e-09
1.36456e-07
2.4542e-09
1.35863e-07
1.99346e-09
1.35357e-07
1.50109e-09
1.34947e-07
9.28924e-10
1.34653e-07
2.08667e-10
1.3449e-07
-4.89443e-10
1.34472e-07
-1.90517e-09
1.34741e-07
-2.80699e-09
-6.3299e-09
1.34698e-07
2.06448e-07
9.30476e-08
2.09341e-07
9.2013e-08
2.11041e-07
6.39031e-08
2.11938e-07
5.33496e-08
2.12012e-07
4.64798e-08
2.11632e-07
4.06623e-08
2.10909e-07
3.65258e-08
2.09848e-07
3.33988e-08
2.08485e-07
3.07283e-08
2.06878e-07
2.83658e-08
2.05084e-07
2.62701e-08
2.0315e-07
2.43988e-08
2.01121e-07
2.27135e-08
1.99031e-07
2.11862e-08
1.9691e-07
1.97965e-08
1.94782e-07
1.85283e-08
1.92665e-07
1.7368e-08
1.90573e-07
1.63037e-08
1.88516e-07
1.53252e-08
1.86504e-07
1.44233e-08
1.84542e-07
1.359e-08
1.82634e-07
1.28182e-08
1.80782e-07
1.21014e-08
1.78989e-07
1.14339e-08
1.77255e-07
1.08106e-08
1.7558e-07
1.02267e-08
1.73966e-07
9.67789e-09
1.7241e-07
9.16021e-09
1.70914e-07
8.66989e-09
1.69475e-07
8.20344e-09
1.68094e-07
7.7574e-09
1.6677e-07
7.32871e-09
1.65503e-07
6.91372e-09
1.64292e-07
6.50996e-09
1.63137e-07
6.11263e-09
1.62039e-07
5.7206e-09
1.60999e-07
5.32582e-09
1.60016e-07
4.93058e-09
1.59094e-07
4.51913e-09
1.58235e-07
4.10156e-09
1.57441e-07
3.64683e-09
1.56718e-07
3.17763e-09
1.56069e-07
2.64224e-09
1.55506e-07
2.06399e-09
1.55033e-07
1.4021e-09
1.54672e-07
5.69104e-10
1.54441e-07
-2.58043e-10
1.54333e-07
-1.79731e-09
1.54491e-07
-2.96531e-09
-6.22897e-09
1.5439e-07
2.12289e-07
8.64206e-08
2.15154e-07
8.91481e-08
2.16796e-07
6.22618e-08
2.17851e-07
5.22942e-08
2.18271e-07
4.60601e-08
2.18392e-07
4.05406e-08
2.18323e-07
3.6595e-08
2.18032e-07
3.36901e-08
2.17511e-07
3.12492e-08
2.16779e-07
2.90978e-08
2.1586e-07
2.71891e-08
2.14779e-07
2.54796e-08
2.13562e-07
2.39302e-08
2.12235e-07
2.25136e-08
2.1082e-07
2.12109e-08
2.0934e-07
2.00084e-08
2.07813e-07
1.8895e-08
2.06255e-07
1.78616e-08
2.0468e-07
1.69002e-08
2.031e-07
1.60038e-08
2.01523e-07
1.51665e-08
1.99959e-07
1.43827e-08
1.98413e-07
1.36474e-08
1.96891e-07
1.29562e-08
1.95396e-07
1.23049e-08
1.93933e-07
1.16897e-08
1.92504e-07
1.11068e-08
1.91112e-07
1.05528e-08
1.89757e-07
1.00244e-08
1.88442e-07
9.51848e-09
1.87168e-07
9.03169e-09
1.85935e-07
8.56115e-09
1.84746e-07
8.10326e-09
1.836e-07
7.65555e-09
1.825e-07
7.21311e-09
1.81446e-07
6.77469e-09
1.8044e-07
6.33196e-09
1.79483e-07
5.88689e-09
1.78579e-07
5.42342e-09
1.7773e-07
4.95064e-09
1.76939e-07
4.43785e-09
1.76212e-07
3.9044e-09
1.75552e-07
3.30206e-09
1.74972e-07
2.64394e-09
1.74474e-07
1.90021e-09
1.7408e-07
9.63773e-10
1.73807e-07
1.44446e-11
1.73635e-07
-1.62504e-09
1.73699e-07
-3.02909e-09
-6.08623e-09
1.73556e-07
2.18331e-07
8.00708e-08
2.21208e-07
8.62706e-08
2.22768e-07
6.07015e-08
2.23851e-07
5.12119e-08
2.2438e-07
4.5531e-08
2.24679e-07
4.02413e-08
2.24886e-07
3.63884e-08
2.24972e-07
3.36037e-08
2.24916e-07
3.13051e-08
2.24718e-07
2.92961e-08
2.24382e-07
2.7525e-08
2.23915e-07
2.5947e-08
2.23325e-07
2.452e-08
2.22624e-07
2.32144e-08
2.21825e-07
2.201e-08
2.20941e-07
2.08927e-08
2.19984e-07
1.98515e-08
2.18968e-07
1.8878e-08
2.17903e-07
1.7965e-08
2.168e-07
1.71066e-08
2.15669e-07
1.62976e-08
2.14518e-07
1.55337e-08
2.13355e-07
1.48109e-08
2.12185e-07
1.41256e-08
2.11016e-07
1.34744e-08
2.09851e-07
1.28542e-08
2.08696e-07
1.2262e-08
2.07554e-07
1.16949e-08
2.06429e-07
1.11501e-08
2.05322e-07
1.06248e-08
2.04238e-07
1.01159e-08
2.03178e-07
9.62097e-09
2.02145e-07
9.13636e-09
2.01141e-07
8.65977e-09
2.00168e-07
8.18628e-09
1.99228e-07
7.71458e-09
1.98323e-07
7.23627e-09
1.97457e-07
6.75291e-09
1.96632e-07
6.24858e-09
1.95852e-07
5.73088e-09
1.95119e-07
5.17058e-09
1.94441e-07
4.58238e-09
1.9382e-07
3.9236e-09
1.93268e-07
3.19547e-09
1.92788e-07
2.3804e-09
1.92397e-07
1.35441e-09
1.92118e-07
2.93938e-10
1.91914e-07
-1.42124e-09
1.91909e-07
-3.02437e-09
-5.92183e-09
1.91745e-07
2.24559e-07
7.40048e-08
2.27472e-07
8.33575e-08
2.28965e-07
5.92084e-08
2.30053e-07
5.01243e-08
2.30623e-07
4.49605e-08
2.30972e-07
3.98932e-08
2.31268e-07
3.60922e-08
2.31502e-07
3.33693e-08
2.31655e-07
3.11526e-08
2.31723e-07
2.92275e-08
2.31707e-07
2.75408e-08
2.31605e-07
2.60489e-08
2.31417e-07
2.47085e-08
2.31144e-07
2.34874e-08
2.3079e-07
2.23639e-08
2.3036e-07
2.13224e-08
2.29861e-07
2.0351e-08
2.29298e-07
1.94407e-08
2.28679e-07
1.85841e-08
2.2801e-07
1.77751e-08
2.27299e-07
1.70089e-08
2.26552e-07
1.62812e-08
2.25774e-07
1.55884e-08
2.24972e-07
1.49272e-08
2.24152e-07
1.42948e-08
2.23318e-07
1.36885e-08
2.22474e-07
1.31056e-08
2.21625e-07
1.25437e-08
2.20775e-07
1.20002e-08
2.19927e-07
1.14727e-08
2.19085e-07
1.09584e-08
2.18251e-07
1.0455e-08
2.17428e-07
9.95894e-09
2.1662e-07
9.46812e-09
2.15829e-07
8.97767e-09
2.15057e-07
8.48617e-09
2.14308e-07
7.98531e-09
2.13585e-07
7.47611e-09
2.1289e-07
6.94318e-09
2.12229e-07
6.39226e-09
2.11603e-07
5.79638e-09
2.1102e-07
5.16484e-09
2.10482e-07
4.46162e-09
2.10002e-07
3.67588e-09
2.09581e-07
2.80163e-09
2.09232e-07
1.70282e-09
2.0898e-07
5.46038e-10
2.0878e-07
-1.22103e-09
2.08738e-07
-2.98258e-09
-5.75795e-09
2.08574e-07
2.3098e-07
6.82307e-08
2.33937e-07
8.04006e-08
2.35371e-07
5.77746e-08
2.36465e-07
4.90304e-08
2.37069e-07
4.43562e-08
2.37433e-07
3.95296e-08
2.3775e-07
3.57743e-08
2.38031e-07
3.3089e-08
2.38259e-07
3.09245e-08
2.38437e-07
2.90497e-08
2.38566e-07
2.74114e-08
2.38646e-07
2.59695e-08
2.38673e-07
2.46815e-08
2.38645e-07
2.35146e-08
2.38564e-07
2.24458e-08
2.38427e-07
2.14585e-08
2.38238e-07
2.05402e-08
2.37998e-07
1.96809e-08
2.37709e-07
1.88726e-08
2.37376e-07
1.81089e-08
2.37e-07
1.73843e-08
2.36587e-07
1.66946e-08
2.36139e-07
1.60359e-08
2.35662e-07
1.5405e-08
2.35157e-07
1.47991e-08
2.3463e-07
1.42154e-08
2.34084e-07
1.36516e-08
2.33523e-07
1.31053e-08
2.32949e-07
1.25741e-08
2.32366e-07
1.20556e-08
2.31777e-07
1.15474e-08
2.31185e-07
1.10469e-08
2.30593e-07
1.05511e-08
2.30003e-07
1.00576e-08
2.2942e-07
9.56165e-09
2.28844e-07
9.06171e-09
2.2828e-07
8.54963e-09
2.2773e-07
8.02576e-09
2.27198e-07
7.47551e-09
2.26687e-07
6.90246e-09
2.26201e-07
6.28243e-09
2.25747e-07
5.61904e-09
2.25326e-07
4.88321e-09
2.24948e-07
4.05304e-09
2.24618e-07
3.13203e-09
2.24343e-07
1.97808e-09
2.24147e-07
7.41833e-10
2.23981e-07
-1.05542e-09
2.23933e-07
-2.93458e-09
-5.61556e-09
2.23791e-07
2.37601e-07
6.27543e-08
2.40604e-07
7.73973e-08
2.41981e-07
5.63978e-08
2.4308e-07
4.79314e-08
2.43722e-07
4.37146e-08
2.44099e-07
3.91523e-08
2.44422e-07
3.54509e-08
2.44715e-07
3.27961e-08
2.44966e-07
3.06735e-08
2.45181e-07
2.88353e-08
2.45365e-07
2.72274e-08
2.45519e-07
2.58149e-08
2.45643e-07
2.45574e-08
2.45736e-07
2.34223e-08
2.45795e-07
2.23864e-08
2.45821e-07
2.1433e-08
2.45812e-07
2.05491e-08
2.45768e-07
1.97244e-08
2.45691e-07
1.89503e-08
2.45579e-07
1.82201e-08
2.45436e-07
1.7528e-08
2.45261e-07
1.68692e-08
2.45057e-07
1.62398e-08
2.44826e-07
1.56362e-08
2.44569e-07
1.50555e-08
2.4429e-07
1.44949e-08
2.4399e-07
1.39518e-08
2.43671e-07
1.34239e-08
2.43336e-07
1.29087e-08
2.42988e-07
1.2404e-08
2.42628e-07
1.19072e-08
2.42259e-07
1.14158e-08
2.41884e-07
1.09266e-08
2.41504e-07
1.04374e-08
2.41122e-07
9.94333e-09
2.40741e-07
9.44261e-09
2.40364e-07
8.92732e-09
2.39992e-07
8.39701e-09
2.3963e-07
7.83808e-09
2.39281e-07
7.25178e-09
2.38946e-07
6.61694e-09
2.38633e-07
5.93164e-09
2.38343e-07
5.1733e-09
2.38085e-07
4.31088e-09
2.37863e-07
3.35439e-09
2.37679e-07
2.16179e-09
2.37558e-07
8.6316e-10
2.37449e-07
-9.46041e-10
2.37419e-07
-2.90509e-09
-5.51064e-09
2.37314e-07
2.44431e-07
5.75793e-08
2.47474e-07
7.43542e-08
2.48802e-07
5.50699e-08
2.49901e-07
4.68321e-08
2.50582e-07
4.30341e-08
2.50976e-07
3.87578e-08
2.51305e-07
3.51228e-08
2.51603e-07
3.24975e-08
2.51862e-07
3.04146e-08
2.52088e-07
2.86098e-08
2.52289e-07
2.70263e-08
2.52469e-07
2.56344e-08
2.5263e-07
2.43966e-08
2.52771e-07
2.32809e-08
2.52893e-07
2.22647e-08
2.52995e-07
2.13314e-08
2.53076e-07
2.04681e-08
2.53136e-07
1.96645e-08
2.53174e-07
1.89119e-08
2.53191e-07
1.82033e-08
2.53186e-07
1.75328e-08
2.5316e-07
1.68954e-08
2.53113e-07
1.62869e-08
2.53046e-07
1.57036e-08
2.52959e-07
1.51422e-08
2.52854e-07
1.46e-08
2.52731e-07
1.40742e-08
2.52593e-07
1.35623e-08
2.5244e-07
1.30618e-08
2.52274e-07
1.25704e-08
2.52095e-07
1.20853e-08
2.51907e-07
1.16041e-08
2.5171e-07
1.11235e-08
2.51507e-07
1.06411e-08
2.51298e-07
1.0152e-08
2.51087e-07
9.65414e-09
2.50874e-07
9.13988e-09
2.50663e-07
8.60787e-09
2.50456e-07
8.04556e-09
2.50256e-07
7.45187e-09
2.50064e-07
6.80857e-09
2.49887e-07
6.10872e-09
2.49725e-07
5.33534e-09
2.49585e-07
4.45056e-09
2.49472e-07
3.46772e-09
2.49383e-07
2.25025e-09
2.49342e-07
9.04916e-10
2.49298e-07
-9.0231e-10
2.49302e-07
-2.90902e-09
-5.45144e-09
2.49243e-07
2.51478e-07
5.27076e-08
2.54552e-07
7.12809e-08
2.55841e-07
5.37805e-08
2.56935e-07
4.57378e-08
2.57654e-07
4.23158e-08
2.58069e-07
3.83431e-08
2.58403e-07
3.47888e-08
2.58707e-07
3.21934e-08
2.58971e-07
3.01503e-08
2.59201e-07
2.83796e-08
2.59408e-07
2.68196e-08
2.59597e-07
2.54457e-08
2.5977e-07
2.42236e-08
2.59928e-07
2.31223e-08
2.60073e-07
2.21195e-08
2.60206e-07
2.11991e-08
2.60325e-07
2.03486e-08
2.60432e-07
1.95577e-08
2.60526e-07
1.8818e-08
2.60607e-07
1.81224e-08
2.60674e-07
1.74651e-08
2.60729e-07
1.6841e-08
2.6077e-07
1.62456e-08
2.60798e-07
1.56754e-08
2.60813e-07
1.51269e-08
2.60816e-07
1.45971e-08
2.60807e-07
1.40832e-08
2.60787e-07
1.35828e-08
2.60756e-07
1.30931e-08
2.60714e-07
1.26117e-08
2.60664e-07
1.21358e-08
2.60605e-07
1.1663e-08
2.60539e-07
1.11897e-08
2.60466e-07
1.07134e-08
2.60389e-07
1.02292e-08
2.60309e-07
9.73483e-09
2.60226e-07
9.22276e-09
2.60143e-07
8.69074e-09
2.60061e-07
8.12732e-09
2.59984e-07
7.5292e-09
2.59911e-07
6.88084e-09
2.59849e-07
6.17109e-09
2.59797e-07
5.38725e-09
2.5976e-07
4.4872e-09
2.59744e-07
3.48468e-09
2.59741e-07
2.25263e-09
2.59772e-07
8.7386e-10
2.59792e-07
-9.2189e-10
2.59833e-07
-2.95074e-09
-5.43779e-09
2.5982e-07
2.58752e-07
4.8139e-08
2.61845e-07
6.81873e-08
2.63107e-07
5.25189e-08
2.64191e-07
4.46538e-08
2.64944e-07
4.15621e-08
2.65381e-07
3.7906e-08
2.65722e-07
3.44477e-08
2.66032e-07
3.18836e-08
2.66302e-07
2.98802e-08
2.66537e-07
2.81451e-08
2.66747e-07
2.66097e-08
2.66939e-07
2.52537e-08
2.67116e-07
2.40465e-08
2.6728e-07
2.29581e-08
2.67433e-07
2.19665e-08
2.67576e-07
2.10561e-08
2.6771e-07
2.02148e-08
2.67835e-07
1.94326e-08
2.67952e-07
1.87012e-08
2.6806e-07
1.80138e-08
2.68161e-07
1.73645e-08
2.68254e-07
1.67483e-08
2.68338e-07
1.61608e-08
2.68416e-07
1.55983e-08
2.68485e-07
1.50574e-08
2.68547e-07
1.4535e-08
2.68602e-07
1.40284e-08
2.6865e-07
1.35349e-08
2.68691e-07
1.30519e-08
2.68726e-07
1.25768e-08
2.68755e-07
1.21068e-08
2.68778e-07
1.16393e-08
2.68797e-07
1.11707e-08
2.68812e-07
1.06984e-08
2.68824e-07
1.02175e-08
2.68834e-07
9.72531e-09
2.68842e-07
9.21463e-09
2.6885e-07
8.68233e-09
2.6886e-07
8.11796e-09
2.68872e-07
7.51627e-09
2.68889e-07
6.864e-09
2.68914e-07
6.14672e-09
2.68946e-07
5.3547e-09
2.68989e-07
4.44391e-09
2.69048e-07
3.4261e-09
2.69114e-07
2.18641e-09
2.69203e-07
7.84749e-10
2.69275e-07
-9.93895e-10
2.69351e-07
-3.02602e-09
-5.46264e-09
2.69376e-07
2.66259e-07
4.38721e-08
2.69362e-07
6.5084e-08
2.70607e-07
5.12748e-08
2.71676e-07
4.35844e-08
2.72462e-07
4.07765e-08
2.72923e-07
3.74449e-08
2.73272e-07
3.40987e-08
2.73587e-07
3.15678e-08
2.73864e-07
2.9604e-08
2.74103e-07
2.79061e-08
2.74316e-07
2.63966e-08
2.7451e-07
2.50592e-08
2.7469e-07
2.38671e-08
2.74856e-07
2.27914e-08
2.75012e-07
2.18106e-08
2.75159e-07
2.09094e-08
2.75298e-07
2.00761e-08
2.75429e-07
1.93011e-08
2.75554e-07
1.85761e-08
2.75674e-07
1.78946e-08
2.75787e-07
1.72508e-08
2.75896e-07
1.66398e-08
2.75999e-07
1.60571e-08
2.76099e-07
1.54992e-08
2.76193e-07
1.49627e-08
2.76284e-07
1.44445e-08
2.7637e-07
1.39418e-08
2.76453e-07
1.3452e-08
2.76533e-07
1.29725e-08
2.76609e-07
1.25006e-08
2.76682e-07
1.20335e-08
2.76753e-07
1.15685e-08
2.76821e-07
1.11022e-08
2.76888e-07
1.06315e-08
2.76954e-07
1.01519e-08
2.77019e-07
9.66007e-09
2.77085e-07
9.14928e-09
2.77151e-07
8.61555e-09
2.7722e-07
8.04937e-09
2.77292e-07
7.44382e-09
2.77369e-07
6.78749e-09
2.77452e-07
6.06361e-09
2.77542e-07
5.2642e-09
2.77641e-07
4.34526e-09
2.77752e-07
3.31497e-09
2.77867e-07
2.07188e-09
2.77996e-07
6.55452e-10
2.78106e-07
-1.10335e-09
2.78205e-07
-3.12559e-09
-5.51489e-09
2.78257e-07
2.7401e-07
3.99034e-08
2.77112e-07
6.1982e-08
2.78349e-07
5.00379e-08
2.794e-07
4.25331e-08
2.80214e-07
3.99631e-08
2.807e-07
3.69582e-08
2.81058e-07
3.37408e-08
2.8138e-07
3.12462e-08
2.81662e-07
2.93214e-08
2.81906e-07
2.76621e-08
2.82123e-07
2.618e-08
2.8232e-07
2.4862e-08
2.82502e-07
2.36854e-08
2.8267e-07
2.26228e-08
2.82828e-07
2.16529e-08
2.82976e-07
2.0761e-08
2.83117e-07
1.99355e-08
2.83251e-07
1.91672e-08
2.83379e-07
1.84481e-08
2.83502e-07
1.77717e-08
2.8362e-07
1.71324e-08
2.83735e-07
1.65253e-08
2.83846e-07
1.59462e-08
2.83954e-07
1.53914e-08
2.84059e-07
1.48575e-08
2.84162e-07
1.43417e-08
2.84262e-07
1.38411e-08
2.84361e-07
1.33531e-08
2.84459e-07
1.28751e-08
2.84555e-07
1.24044e-08
2.8465e-07
1.19383e-08
2.84745e-07
1.14739e-08
2.84839e-07
1.10079e-08
2.84934e-07
1.05371e-08
2.85029e-07
1.00569e-08
2.85125e-07
9.56393e-09
2.85222e-07
9.0516e-09
2.85323e-07
8.51524e-09
2.85426e-07
7.94616e-09
2.85534e-07
7.33615e-09
2.85646e-07
6.67511e-09
2.85765e-07
5.94489e-09
2.85891e-07
5.13818e-09
2.86023e-07
4.21255e-09
2.86167e-07
3.1717e-09
2.86311e-07
1.92768e-09
2.86464e-07
5.02746e-10
2.86595e-07
-1.23522e-09
2.86709e-07
-3.23873e-09
-5.58251e-09
2.86776e-07
2.82013e-07
3.62274e-08
2.85103e-07
5.88928e-08
2.86342e-07
4.87987e-08
2.87372e-07
4.15027e-08
2.88209e-07
3.91264e-08
2.88723e-07
3.64447e-08
2.89091e-07
3.33728e-08
2.89418e-07
3.09189e-08
2.89707e-07
2.90322e-08
2.89956e-07
2.74126e-08
2.90177e-07
2.59596e-08
2.90377e-07
2.46619e-08
2.90561e-07
2.35014e-08
2.90731e-07
2.24522e-08
2.90891e-07
2.14937e-08
2.9104e-07
2.06112e-08
2.91182e-07
1.97937e-08
2.91317e-07
1.90321e-08
2.91447e-07
1.83187e-08
2.91571e-07
1.76473e-08
2.91692e-07
1.70121e-08
2.91808e-07
1.64086e-08
2.91922e-07
1.58325e-08
2.92033e-07
1.52802e-08
2.92142e-07
1.47484e-08
2.9225e-07
1.42341e-08
2.92356e-07
1.37347e-08
2.92462e-07
1.32475e-08
2.92567e-07
1.277e-08
2.92672e-07
1.22994e-08
2.92777e-07
1.18331e-08
2.92883e-07
1.13683e-08
2.92989e-07
1.09014e-08
2.93097e-07
1.04293e-08
2.93206e-07
9.9476e-09
2.93318e-07
9.45234e-09
2.93432e-07
8.93744e-09
2.9355e-07
8.39759e-09
2.93671e-07
7.82475e-09
2.93797e-07
7.20977e-09
2.93929e-07
6.54344e-09
2.94067e-07
5.80699e-09
2.94212e-07
4.99299e-09
2.94363e-07
4.06156e-09
2.94523e-07
3.01177e-09
2.94682e-07
1.76833e-09
2.94845e-07
3.3987e-10
2.94987e-07
-1.37698e-09
2.95104e-07
-3.35591e-09
-5.65476e-09
2.95176e-07
2.90279e-07
3.28371e-08
2.93344e-07
5.58281e-08
2.94594e-07
4.75481e-08
2.95602e-07
4.04949e-08
2.96457e-07
3.82719e-08
2.96998e-07
3.59033e-08
2.97377e-07
3.29934e-08
2.97711e-07
3.05859e-08
2.98006e-07
2.87366e-08
2.98261e-07
2.71574e-08
2.98486e-07
2.57351e-08
2.98689e-07
2.44588e-08
2.98876e-07
2.33148e-08
2.99048e-07
2.22796e-08
2.99209e-07
2.13327e-08
2.99361e-07
2.04599e-08
2.99504e-07
1.96505e-08
2.9964e-07
1.88958e-08
2.9977e-07
1.81884e-08
2.99896e-07
1.75219e-08
3.00017e-07
1.68909e-08
3.00135e-07
1.62909e-08
3.00249e-07
1.57177e-08
3.00362e-07
1.51676e-08
3.00473e-07
1.46376e-08
3.00582e-07
1.41246e-08
3.00691e-07
1.3626e-08
3.00799e-07
1.31393e-08
3.00907e-07
1.26617e-08
3.01016e-07
1.21909e-08
3.01125e-07
1.17239e-08
3.01236e-07
1.12579e-08
3.01347e-07
1.07896e-08
3.01461e-07
1.03157e-08
3.01577e-07
9.83175e-09
3.01695e-07
9.33368e-09
3.01817e-07
8.81564e-09
3.01943e-07
8.27183e-09
3.02073e-07
7.69473e-09
3.02208e-07
7.07455e-09
3.02349e-07
6.40262e-09
3.02496e-07
5.66012e-09
3.0265e-07
4.83903e-09
3.02809e-07
3.90255e-09
3.02975e-07
2.84545e-09
3.0314e-07
1.6037e-09
3.03304e-07
1.75904e-10
3.03446e-07
-1.51961e-09
3.0356e-07
-3.4699e-09
-5.72339e-09
3.03629e-07
2.98816e-07
2.97237e-08
3.01844e-07
5.28e-08
3.03114e-07
4.62784e-08
3.04098e-07
3.95107e-08
3.04965e-07
3.74048e-08
3.05535e-07
3.53336e-08
3.05927e-07
3.26009e-08
3.06266e-07
3.0247e-08
3.06568e-07
2.84345e-08
3.0683e-07
2.68962e-08
3.07058e-07
2.55061e-08
3.07265e-07
2.42523e-08
3.07454e-07
2.31255e-08
3.07629e-07
2.21046e-08
3.07792e-07
2.11697e-08
3.07945e-07
2.0307e-08
3.0809e-07
1.9506e-08
3.08227e-07
1.87584e-08
3.08358e-07
1.8057e-08
3.08485e-07
1.73955e-08
3.08607e-07
1.67689e-08
3.08725e-07
1.61724e-08
3.08841e-07
1.5602e-08
3.08954e-07
1.50543e-08
3.09066e-07
1.45259e-08
3.09177e-07
1.40141e-08
3.09286e-07
1.35163e-08
3.09396e-07
1.30298e-08
3.09505e-07
1.25521e-08
3.09616e-07
1.20807e-08
3.09727e-07
1.16128e-08
3.09839e-07
1.11455e-08
3.09953e-07
1.06755e-08
3.10069e-07
1.01995e-08
3.10188e-07
9.71307e-09
3.1031e-07
9.21195e-09
3.10435e-07
8.6905e-09
3.10564e-07
8.14258e-09
3.10698e-07
7.56101e-09
3.10837e-07
6.93568e-09
3.10981e-07
6.25811e-09
3.11132e-07
5.50992e-09
3.11288e-07
4.68221e-09
3.11449e-07
3.74146e-09
3.11616e-07
2.67879e-09
3.1178e-07
1.43985e-09
3.1194e-07
1.63636e-11
3.12077e-07
-1.65729e-09
3.12183e-07
-3.57587e-09
-5.78266e-09
3.12242e-07
3.07634e-07
2.68766e-08
3.10614e-07
4.98205e-08
3.11909e-07
4.49828e-08
3.1287e-07
3.85499e-08
3.13745e-07
3.65305e-08
3.14342e-07
3.4736e-08
3.14749e-07
3.21939e-08
3.15094e-07
2.99021e-08
3.15403e-07
2.81259e-08
3.1567e-07
2.66286e-08
3.15904e-07
2.52724e-08
3.16114e-07
2.40422e-08
3.16306e-07
2.29332e-08
3.16484e-07
2.19271e-08
3.16649e-07
2.10047e-08
3.16804e-07
2.01523e-08
3.1695e-07
1.936e-08
3.17088e-07
1.86197e-08
3.17221e-07
1.79244e-08
3.17348e-07
1.72682e-08
3.17471e-07
1.66459e-08
3.17591e-07
1.6053e-08
3.17707e-07
1.54856e-08
3.17821e-07
1.49401e-08
3.17934e-07
1.44135e-08
3.18045e-07
1.39029e-08
3.18156e-07
1.34057e-08
3.18266e-07
1.29194e-08
3.18377e-07
1.24415e-08
3.18488e-07
1.19695e-08
3.186e-07
1.15006e-08
3.18713e-07
1.1032e-08
3.18829e-07
1.05603e-08
3.18946e-07
1.0082e-08
3.19066e-07
9.59304e-09
3.19189e-07
9.08882e-09
3.19316e-07
8.5639e-09
3.19446e-07
8.01191e-09
3.19582e-07
7.42589e-09
3.19722e-07
6.7956e-09
3.19867e-07
6.1126e-09
3.20018e-07
5.3592e-09
3.20175e-07
4.52559e-09
3.20335e-07
3.58145e-09
3.20498e-07
2.51508e-09
3.20658e-07
1.28018e-09
3.2081e-07
-1.35726e-10
3.20939e-07
-1.78654e-09
3.21034e-07
-3.67083e-09
-5.82887e-09
3.2108e-07
3.16744e-07
2.42839e-08
3.19663e-07
4.69016e-08
3.2099e-07
4.3656e-08
3.21928e-07
3.76115e-08
3.22804e-07
3.56542e-08
3.23429e-07
3.41115e-08
3.23852e-07
3.17706e-08
3.24204e-07
2.95506e-08
3.24518e-07
2.7811e-08
3.24793e-07
2.63544e-08
3.25032e-07
2.50335e-08
3.25246e-07
2.38282e-08
3.25441e-07
2.27378e-08
3.25621e-07
2.17468e-08
3.25789e-07
2.08373e-08
3.25945e-07
1.99956e-08
3.26093e-07
1.92123e-08
3.26233e-07
1.84795e-08
3.26367e-07
1.77905e-08
3.26496e-07
1.71397e-08
3.2662e-07
1.65218e-08
3.2674e-07
1.59327e-08
3.26857e-07
1.53682e-08
3.26972e-07
1.48251e-08
3.27086e-07
1.43002e-08
3.27198e-07
1.37909e-08
3.27309e-07
1.32944e-08
3.2742e-07
1.28083e-08
3.27532e-07
1.23302e-08
3.27643e-07
1.18576e-08
3.27756e-07
1.13877e-08
3.27871e-07
1.09177e-08
3.27987e-07
1.04442e-08
3.28105e-07
9.96375e-09
3.28226e-07
9.47218e-09
3.2835e-07
8.96491e-09
3.28477e-07
8.43658e-09
3.28608e-07
7.88066e-09
3.28744e-07
7.29032e-09
3.28884e-07
6.65539e-09
3.2903e-07
5.96732e-09
3.29179e-07
5.20931e-09
3.29334e-07
4.3707e-09
3.29492e-07
3.42415e-09
3.29651e-07
2.35601e-09
3.29804e-07
1.12657e-09
3.29947e-07
-2.788e-10
3.30066e-07
-1.90535e-09
3.30148e-07
-3.75296e-09
-5.85971e-09
3.30179e-07
3.26154e-07
2.1932e-08
3.29001e-07
4.40551e-08
3.30363e-07
4.22941e-08
3.31281e-07
3.66936e-08
3.32154e-07
3.47807e-08
3.32804e-07
3.34617e-08
3.33245e-07
3.13297e-08
3.33604e-07
2.91921e-08
3.33925e-07
2.74899e-08
3.34206e-07
2.60734e-08
3.3445e-07
2.4789e-08
3.34668e-07
2.361e-08
3.34867e-07
2.25389e-08
3.3505e-07
2.15637e-08
3.3522e-07
2.06673e-08
3.35379e-07
1.98368e-08
3.35529e-07
1.90627e-08
3.35671e-07
1.83376e-08
3.35806e-07
1.76552e-08
3.35936e-07
1.70099e-08
3.36061e-07
1.63966e-08
3.36182e-07
1.58112e-08
3.36301e-07
1.52499e-08
3.36417e-07
1.47092e-08
3.36531e-07
1.41861e-08
3.36644e-07
1.36779e-08
3.36756e-07
1.31821e-08
3.36868e-07
1.26963e-08
3.3698e-07
1.2218e-08