/*--------------------------------*- C++ -*----------------------------------*\
  =========                 |
  \\      /  F ield         | OpenFOAM: The Open Source CFD Toolbox
   \\    /   O peration     | Website:  https://openfoam.org
    \\  /    A nd           | Version:  7
     \\/     M anipulation  |
\*---------------------------------------------------------------------------*/
FoamFile
{
    version     2.0;
    format      ascii;
    class       volVectorField;
    location    "0.46";
    object      U;
}
// * * * * * * * * * * * * * * * * * * * * * * * * * * * * * * * * * * * * * //

dimensions      [0 1 -1 0 0 0 0];

internalField   nonuniform List<vector> 
70000
(
(0.553392 0.0167229 0)
(0.251271 0.00340083 0)
(0.166224 0.000321809 0)
(0.132489 5.41118e-05 0)
(0.117312 4.55515e-05 0)
(0.107402 5.37227e-05 0)
(0.0994693 4.60847e-05 0)
(0.0930455 3.67386e-05 0)
(0.0878182 3.04166e-05 0)
(0.0834675 2.60803e-05 0)
(0.079765 2.27704e-05 0)
(0.076563 2.01141e-05 0)
(0.0737603 1.79418e-05 0)
(0.0712829 1.61404e-05 0)
(0.0690747 1.46261e-05 0)
(0.0670926 1.33367e-05 0)
(0.0653024 1.2226e-05 0)
(0.063677 1.12584e-05 0)
(0.0621945 1.04071e-05 0)
(0.0608371 9.65045e-06 0)
(0.05959 8.97167e-06 0)
(0.058441 8.35681e-06 0)
(0.0573799 7.79452e-06 0)
(0.0563979 7.2753e-06 0)
(0.055488 6.79089e-06 0)
(0.054644 6.33418e-06 0)
(0.0538606 5.89848e-06 0)
(0.0531335 5.47837e-06 0)
(0.0524591 5.0667e-06 0)
(0.0518344 4.66004e-06 0)
(0.0512571 4.24852e-06 0)
(0.0507253 3.83112e-06 0)
(0.0502379 3.39349e-06 0)
(0.049794 2.93648e-06 0)
(0.0493935 2.44171e-06 0)
(0.0490372 1.90241e-06 0)
(0.0487252 1.31429e-06 0)
(0.0484621 6.14322e-07 0)
(0.0482452 -9.44607e-08 0)
(0.0480893 -1.12726e-06 0)
(0.0479795 -1.9311e-06 0)
(0.0479594 -3.66167e-06 0)
(0.0479749 -4.53495e-06 0)
(0.0481472 -7.84611e-06 0)
(0.0483128 -7.32296e-06 0)
(0.0487841 -1.50646e-05 0)
(0.0491513 -1.07156e-05 0)
(0.0500555 -2.9055e-05 0)
(0.0511888 1.62653e-05 0)
(0.047711 -0.00196475 0)
(0.8849 0.0431668 0)
(0.649731 0.020193 0)
(0.494361 0.00659697 0)
(0.403735 0.00276616 0)
(0.354841 0.0015505 0)
(0.323572 0.00113002 0)
(0.299749 0.000908744 0)
(0.28059 0.000744759 0)
(0.264916 0.000621809 0)
(0.251836 0.00053094 0)
(0.2407 0.000461909 0)
(0.231067 0.000407536 0)
(0.22263 0.000363545 0)
(0.215168 0.000327276 0)
(0.208512 0.000296917 0)
(0.202533 0.000271168 0)
(0.197128 0.000249071 0)
(0.192217 0.000229905 0)
(0.187733 0.000213119 0)
(0.183623 0.000198283 0)
(0.179843 0.000185059 0)
(0.176356 0.000173175 0)
(0.173131 0.000162409 0)
(0.170141 0.000152579 0)
(0.167366 0.000143531 0)
(0.164785 0.000135134 0)
(0.162384 0.00012727 0)
(0.160148 0.00011984 0)
(0.158067 0.000112744 0)
(0.15613 0.000105901 0)
(0.15433 9.92108e-05 0)
(0.15266 9.26054e-05 0)
(0.151117 8.59627e-05 0)
(0.149696 7.92318e-05 0)
(0.148395 7.22342e-05 0)
(0.147216 6.49421e-05 0)
(0.146156 5.7086e-05 0)
(0.145225 4.86303e-05 0)
(0.144416 3.92381e-05 0)
(0.143763 2.86418e-05 0)
(0.143226 1.68249e-05 0)
(0.142914 2.34144e-06 0)
(0.142682 -1.23915e-05 0)
(0.142843 -3.59691e-05 0)
(0.142961 -5.5348e-05 0)
(0.143839 -9.82258e-05 0)
(0.144423 -0.00011242 0)
(0.146289 -0.000247872 0)
(0.148589 5.05507e-05 0)
(0.146132 -0.0035664 0)
(0.991237 0.0499005 0)
(0.890361 0.0307166 0)
(0.762726 0.0145947 0)
(0.656755 0.00797629 0)
(0.585474 0.00488128 0)
(0.536116 0.00346733 0)
(0.498299 0.00273164 0)
(0.467731 0.00223916 0)
(0.442469 0.0018758 0)
(0.421213 0.00160391 0)
(0.403018 0.00139612 0)
(0.387217 0.00123244 0)
(0.373334 0.00110013 0)
(0.361021 0.000991059 0)
(0.350012 0.000899761 0)
(0.340101 0.000822323 0)
(0.331126 0.000755873 0)
(0.322957 0.000698248 0)
(0.315486 0.000647799 0)
(0.308629 0.000603239 0)
(0.302312 0.000563556 0)
(0.296475 0.000527937 0)
(0.291069 0.000495721 0)
(0.286049 0.000466366 0)
(0.281381 0.000439414 0)
(0.277033 0.000414475 0)
(0.272978 0.000391212 0)
(0.269194 0.000369326 0)
(0.265661 0.00034854 0)
(0.262363 0.000328612 0)
(0.259288 0.000309277 0)
(0.256422 0.000290333 0)
(0.253759 0.000271471 0)
(0.25129 0.000252538 0)
(0.249011 0.00023308 0)
(0.246922 0.000213046 0)
(0.245018 0.000191666 0)
(0.243312 0.000169085 0)
(0.241789 0.000143954 0)
(0.240499 0.000116662 0)
(0.239379 8.51622e-05 0)
(0.238585 4.94158e-05 0)
(0.237904 8.72214e-06 0)
(0.237778 -4.46964e-05 0)
(0.237586 -0.000101062 0)
(0.238447 -0.000196457 0)
(0.238891 -0.000247874 0)
(0.241083 -0.000547462 0)
(0.243479 -0.000203111 0)
(0.2439 -0.00409265 0)
(1.0156 0.0489191 0)
(1.00597 0.0358717 0)
(0.935985 0.0207869 0)
(0.852194 0.0134987 0)
(0.782302 0.00920159 0)
(0.727158 0.00677448 0)
(0.682135 0.0053763 0)
(0.64444 0.00443679 0)
(0.612485 0.00374268 0)
(0.585083 0.00321638 0)
(0.561297 0.00280948 0)
(0.540421 0.00248681 0)
(0.521928 0.00222486 0)
(0.505414 0.00200821 0)
(0.490567 0.00182633 0)
(0.477136 0.00167169 0)
(0.464924 0.00153872 0)
(0.453767 0.00142324 0)
(0.443532 0.00132201 0)
(0.434109 0.00123252 0)
(0.425406 0.00115278 0)
(0.417345 0.00108119 0)
(0.409861 0.00101646 0)
(0.402896 0.000957499 0)
(0.396404 0.000903418 0)
(0.390343 0.000853447 0)
(0.384678 0.000806922 0)
(0.379377 0.000763259 0)
(0.374416 0.00072192 0)
(0.369772 0.000682434 0)
(0.365425 0.000644304 0)
(0.361361 0.000607135 0)
(0.357566 0.000570366 0)
(0.354031 0.000533701 0)
(0.350747 0.000496324 0)
(0.347712 0.000458157 0)
(0.344918 0.000417746 0)
(0.34238 0.000375564 0)
(0.340077 0.000328749 0)
(0.338066 0.000278977 0)
(0.336272 0.000220715 0)
(0.334874 0.000157438 0)
(0.333623 8.01577e-05 0)
(0.333023 -8.73042e-06 0)
(0.332367 -0.000114321 0)
(0.33291 -0.00027093 0)
(0.333009 -0.000379602 0)
(0.335103 -0.000838945 0)
(0.337027 -0.000586011 0)
(0.3392 -0.0042874 0)
(1.01434 0.0460023 0)
(1.04754 0.0374845 0)
(1.0246 0.0241452 0)
(0.974811 0.0175511 0)
(0.92354 0.013113 0)
(0.876822 0.0101956 0)
(0.834722 0.00833111 0)
(0.797043 0.00700925 0)
(0.763553 0.00599865 0)
(0.733813 0.00521023 0)
(0.707312 0.00458708 0)
(0.68358 0.00408505 0)
(0.662218 0.0036727 0)
(0.642894 0.00332855 0)
(0.625333 0.00303748 0)
(0.609306 0.00278848 0)
(0.594621 0.00257329 0)
(0.581116 0.00238559 0)
(0.568657 0.00222047 0)
(0.557127 0.00207407 0)
(0.54643 0.0019433 0)
(0.536481 0.00182566 0)
(0.527209 0.00171913 0)
(0.51855 0.00162201 0)
(0.510452 0.00153287 0)
(0.502867 0.0014505 0)
(0.495756 0.00137383 0)
(0.489083 0.00130195 0)
(0.482817 0.00123399 0)
(0.476932 0.00116922 0)
(0.471407 0.00110684 0)
(0.466221 0.00104623 0)
(0.46136 0.000986546 0)
(0.45681 0.000927295 0)
(0.452561 0.000867255 0)
(0.448609 0.000806304 0)
(0.444944 0.000742213 0)
(0.441579 0.000675835 0)
(0.438493 0.000602567 0)
(0.435741 0.000525628 0)
(0.433247 0.000435433 0)
(0.431192 0.000339649 0)
(0.429324 0.000220776 0)
(0.428146 8.90595e-05 0)
(0.42696 -7.08271e-05 0)
(0.427001 -0.000295617 0)
(0.426662 -0.000476871 0)
(0.428359 -0.00107814 0)
(0.429729 -0.00100194 0)
(0.432319 -0.00443677 0)
(1.00933 0.0429136 0)
(1.05528 0.0372591 0)
(1.0587 0.0252882 0)
(1.03641 0.0197487 0)
(1.00717 0.0157992 0)
(0.976168 0.0129218 0)
(0.944697 0.0109442 0)
(0.913895 0.00946091 0)
(0.88461 0.0082694 0)
(0.857227 0.00730031 0)
(0.831826 0.00650873 0)
(0.808343 0.00585455 0)
(0.786658 0.00530638 0)
(0.766628 0.00484144 0)
(0.748107 0.00444301 0)
(0.730956 0.00409841 0)
(0.715045 0.00379785 0)
(0.700256 0.00353363 0)
(0.686485 0.00329965 0)
(0.673637 0.00309101 0)
(0.661631 0.00290373 0)
(0.650392 0.00273458 0)
(0.639856 0.00258084 0)
(0.629966 0.00244028 0)
(0.62067 0.00231096 0)
(0.611924 0.00219123 0)
(0.603689 0.00207967 0)
(0.595929 0.00197497 0)
(0.588614 0.00187599 0)
(0.581718 0.00178166 0)
(0.575217 0.00169092 0)
(0.569091 0.0016029 0)
(0.563324 0.00151643 0)
(0.557902 0.00143083 0)
(0.552815 0.00134443 0)
(0.548055 0.00125706 0)
(0.543615 0.0011657 0)
(0.539504 0.00107153 0)
(0.535702 0.000968237 0)
(0.53226 0.000860451 0)
(0.52911 0.00073472 0)
(0.526414 0.000602465 0)
(0.52395 0.000438386 0)
(0.522171 0.000259104 0)
(0.520456 3.94392e-05 0)
(0.519911 -0.000256673 0)
(0.519122 -0.000519804 0)
(0.520232 -0.00125014 0)
(0.521106 -0.00138077 0)
(0.523417 -0.00454366 0)
(1.00625 0.040032 0)
(1.05207 0.0363311 0)
(1.0661 0.0252163 0)
(1.05963 0.0205467 0)
(1.04693 0.0172234 0)
(1.03089 0.0146384 0)
(1.01203 0.0127999 0)
(0.991406 0.011373 0)
(0.970058 0.0101747 0)
(0.948722 0.00915708 0)
(0.927842 0.00829465 0)
(0.90768 0.0075595 0)
(0.888384 0.00692721 0)
(0.870022 0.00637899 0)
(0.852614 0.00590033 0)
(0.836149 0.00547972 0)
(0.820594 0.00510785 0)
(0.805908 0.00477708 0)
(0.792044 0.00448118 0)
(0.778954 0.00421498 0)
(0.766591 0.00397419 0)
(0.754908 0.00375522 0)
(0.743863 0.00355504 0)
(0.733414 0.00337105 0)
(0.723525 0.00320103 0)
(0.71416 0.00304303 0)
(0.70529 0.00289531 0)
(0.696886 0.00275632 0)
(0.688921 0.00262465 0)
(0.681375 0.00249898 0)
(0.674226 0.00237801 0)
(0.667458 0.00226061 0)
(0.661056 0.00214534 0)
(0.655008 0.00203131 0)
(0.649304 0.00191649 0)
(0.643939 0.00180055 0)
(0.638905 0.00167979 0)
(0.63421 0.00155558 0)
(0.62984 0.00142014 0)
(0.625836 0.00127908 0)
(0.622143 0.0011158 0)
(0.618901 0.000944259 0)
(0.615925 0.000733349 0)
(0.613602 0.000503331 0)
(0.611417 0.000220595 0)
(0.610296 -0.000148394 0)
(0.609094 -0.000498054 0)
(0.609553 -0.00134639 0)
(0.60997 -0.00169287 0)
(0.611747 -0.00459206 0)
(1.00495 0.0373538 0)
(1.04728 0.0352485 0)
(1.06399 0.0246754 0)
(1.06428 0.0205715 0)
(1.06073 0.0177591 0)
(1.05482 0.0154783 0)
(1.04611 0.013854 0)
(1.03496 0.0125913 0)
(1.0221 0.0115032 0)
(1.00813 0.0105482 0)
(0.993515 0.00971282 0)
(0.978598 0.00897963 0)
(0.96365 0.0083319 0)
(0.948863 0.0077565 0)
(0.934375 0.00724314 0)
(0.920278 0.00678331 0)
(0.906631 0.00636981 0)
(0.893469 0.00599647 0)
(0.88081 0.005658 0)
(0.86866 0.00534989 0)
(0.857016 0.00506823 0)
(0.845869 0.00480967 0)
(0.835205 0.0045713 0)
(0.825011 0.00435057 0)
(0.81527 0.00414521 0)
(0.805965 0.00395321 0)
(0.79708 0.00377277 0)
(0.788598 0.00360219 0)
(0.780505 0.00343994 0)
(0.772787 0.00328454 0)
(0.76543 0.00313453 0)
(0.758424 0.00298861 0)
(0.751759 0.00284511 0)
(0.745426 0.00270298 0)
(0.739421 0.00255984 0)
(0.73374 0.00241525 0)
(0.728378 0.00226493 0)
(0.723344 0.00211028 0)
(0.718627 0.00194238 0)
(0.714265 0.00176732 0)
(0.710215 0.00156631 0)
(0.706593 0.00135427 0)
(0.703256 0.00109692 0)
(0.700516 0.000814111 0)
(0.697979 0.0004713 0)
(0.69637 2.55996e-05 0)
(0.694834 -0.000411963 0)
(0.694687 -0.00136482 0)
(0.694686 -0.00192451 0)
(0.69587 -0.0045849 0)
(1.0044 0.0348056 0)
(1.04324 0.0341748 0)
(1.05995 0.0240335 0)
(1.06232 0.0202763 0)
(1.06254 0.0178211 0)
(1.06187 0.0157571 0)
(1.05934 0.0143055 0)
(1.05483 0.0132076 0)
(1.04866 0.0122613 0)
(1.04114 0.0114178 0)
(1.03256 0.0106663 0)
(1.02316 0.00999331 0)
(1.01318 0.0093861 0)
(1.00282 0.00883514 0)
(0.992238 0.00833346 0)
(0.981564 0.0078754 0)
(0.970905 0.0074561 0)
(0.960341 0.00707127 0)
(0.949934 0.00671711 0)
(0.939731 0.00639025 0)
(0.929765 0.00608768 0)
(0.920061 0.00580671 0)
(0.910635 0.00554494 0)
(0.901499 0.00530019 0)
(0.892659 0.00507049 0)
(0.884117 0.004854 0)
(0.875875 0.00464904 0)
(0.867931 0.00445399 0)
(0.860283 0.00426733 0)
(0.852929 0.00408757 0)
(0.845864 0.00391319 0)
(0.839086 0.00374281 0)
(0.832593 0.00357465 0)
(0.826383 0.00340751 0)
(0.820455 0.0032388 0)
(0.81481 0.00306794 0)
(0.80945 0.00289022 0)
(0.804383 0.00270696 0)
(0.799605 0.00250844 0)
(0.795148 0.0023007 0)
(0.790985 0.0020638 0)
(0.787208 0.00181211 0)
(0.783715 0.00151064 0)
(0.780748 0.00117554 0)
(0.778024 0.000775921 0)
(0.776085 0.000254337 0)
(0.774332 -0.00027043 0)
(0.773705 -0.00131281 0)
(0.77335 -0.00207291 0)
(0.773985 -0.00453061 0)
(1.00402 0.0323653 0)
(1.03991 0.0331241 0)
(1.05618 0.0234095 0)
(1.05895 0.0198869 0)
(1.06027 0.0176891 0)
(1.06164 0.0157592 0)
(1.06204 0.0144082 0)
(1.06119 0.0134247 0)
(1.05917 0.0125938 0)
(1.05609 0.0118556 0)
(1.05205 0.0111966 0)
(1.04716 0.010603 0)
(1.04154 0.010062 0)
(1.03533 0.0095647 0)
(1.02864 0.00910529 0)
(1.02158 0.00867944 0)
(1.01425 0.00828369 0)
(1.00673 0.00791503 0)
(0.999099 0.00757086 0)
(0.991415 0.00724884 0)
(0.983729 0.00694684 0)
(0.976084 0.00666294 0)
(0.968515 0.00639536 0)
(0.961049 0.00614245 0)
(0.95371 0.00590267 0)
(0.946517 0.00567451 0)
(0.939483 0.00545656 0)
(0.932621 0.00524743 0)
(0.92594 0.0050457 0)
(0.919448 0.00485002 0)
(0.913152 0.00465889 0)
(0.907056 0.00447096 0)
(0.901167 0.00428441 0)
(0.895489 0.00409797 0)
(0.890027 0.00390893 0)
(0.884788 0.00371658 0)
(0.879778 0.00351594 0)
(0.875007 0.00330811 0)
(0.870478 0.00308298 0)
(0.86622 0.00284606 0)
(0.862217 0.00257716 0)
(0.858544 0.00228884 0)
(0.855133 0.00194751 0)
(0.852166 0.00156316 0)
(0.849453 0.00111099 0)
(0.847381 0.000520152 0)
(0.845563 -9.06118e-05 0)
(0.84463 -0.00120611 0)
(0.844025 -0.0021458 0)
(0.844216 -0.00443953 0)
(1.00364 0.0300247 0)
(1.03693 0.0320759 0)
(1.05283 0.0228187 0)
(1.05572 0.0194803 0)
(1.05718 0.0174953 0)
(1.0591 0.015657 0)
(1.06057 0.014353 0)
(1.06129 0.013432 0)
(1.06134 0.0126743 0)
(1.06073 0.0120099 0)
(1.05946 0.0114228 0)
(1.05756 0.0108977 0)
(1.05506 0.0104204 0)
(1.052 0.00998082 0)
(1.04845 0.00957268 0)
(1.04446 0.00919155 0)
(1.04011 0.00883412 0)
(1.03544 0.00849777 0)
(1.03052 0.00818034 0)
(1.0254 0.00788002 0)
(1.02012 0.00759519 0)
(1.01473 0.00732443 0)
(1.00926 0.00706642 0)
(1.00375 0.00681993 0)
(0.998229 0.00658379 0)
(0.992719 0.00635684 0)
(0.987243 0.00613793 0)
(0.98182 0.00592591 0)
(0.976468 0.00571957 0)
(0.9712 0.00551768 0)
(0.966031 0.00531886 0)
(0.960971 0.00512182 0)
(0.956032 0.00492474 0)
(0.951225 0.00472637 0)
(0.946559 0.00452391 0)
(0.942045 0.00431655 0)
(0.937692 0.00409917 0)
(0.933516 0.00387257 0)
(0.929522 0.00362654 0)
(0.925737 0.00336571 0)
(0.922157 0.00307043 0)
(0.91884 0.00275044 0)
(0.915746 0.00237516 0)
(0.913008 0.00194684 0)
(0.910511 0.00144843 0)
(0.908518 0.000796426 0)
(0.906798 0.000107648 0)
(0.905753 -0.00106614 0)
(0.905031 -0.00215947 0)
(0.904919 -0.00432511 0)
(1.00327 0.0277847 0)
(1.0341 0.0310166 0)
(1.04972 0.0222545 0)
(1.05275 0.0190716 0)
(1.05417 0.0172826 0)
(1.05615 0.0155256 0)
(1.0579 0.0142432 0)
(1.05914 0.0133521 0)
(1.05999 0.0126346 0)
(1.06049 0.0120133 0)
(1.06062 0.0114708 0)
(1.06035 0.0109919 0)
(1.05969 0.0105612 0)
(1.05863 0.0101675 0)
(1.05719 0.00980339 0)
(1.05539 0.0094638 0)
(1.05326 0.00914494 0)
(1.05082 0.00884389 0)
(1.04811 0.00855838 0)
(1.04515 0.00828655 0)
(1.04199 0.00802687 0)
(1.03865 0.00777804 0)
(1.03515 0.0075389 0)
(1.03153 0.00730841 0)
(1.02781 0.00708558 0)
(1.02402 0.00686945 0)
(1.02018 0.00665907 0)
(1.0163 0.00645342 0)
(1.01241 0.00625145 0)
(1.00852 0.00605204 0)
(1.00465 0.00585391 0)
(1.00081 0.00565581 0)
(0.997016 0.00545598 0)
(0.993282 0.00525314 0)
(0.989618 0.00504446 0)
(0.986039 0.00482903 0)
(0.982557 0.00460167 0)
(0.979186 0.00436281 0)
(0.975938 0.0041024 0)
(0.972835 0.00382389 0)
(0.969881 0.00350877 0)
(0.967121 0.00316336 0)
(0.964538 0.00276101 0)
(0.962223 0.00229579 0)
(0.960118 0.0017584 0)
(0.95839 0.0010555 0)
(0.956919 0.000299615 0)
(0.955942 -0.000918018 0)
(0.955242 -0.00213605 0)
(0.954981 -0.00420361 0)
(1.00292 0.0256487 0)
(1.03139 0.0299415 0)
(1.04672 0.0217122 0)
(1.04996 0.0186608 0)
(1.05136 0.0170578 0)
(1.0533 0.015387 0)
(1.05508 0.0141197 0)
(1.05644 0.0132438 0)
(1.05752 0.0125491 0)
(1.05841 0.0119514 0)
(1.05909 0.0114332 0)
(1.05956 0.0109805 0)
(1.0598 0.0105781 0)
(1.0598 0.0102141 0)
(1.05956 0.00988037 0)
(1.05908 0.00957126 0)
(1.05835 0.00928247 0)
(1.0574 0.00901065 0)
(1.05622 0.00875316 0)
(1.05484 0.00850787 0)
(1.05326 0.00827305 0)
(1.0515 0.00804726 0)
(1.04959 0.00782928 0)
(1.04753 0.00761803 0)
(1.04535 0.00741251 0)
(1.04305 0.0072118 0)
(1.04067 0.00701496 0)
(1.03821 0.00682106 0)
(1.03568 0.00662907 0)
(1.03311 0.00643792 0)
(1.03051 0.00624636 0)
(1.02788 0.00605317 0)
(1.02525 0.00585656 0)
(1.02263 0.00565524 0)
(1.02002 0.00544634 0)
(1.01744 0.00522882 0)
(1.01491 0.00499748 0)
(1.01243 0.00475235 0)
(1.01003 0.00448368 0)
(1.00771 0.00419357 0)
(1.0055 0.00386505 0)
(1.00341 0.0035007 0)
(1.00145 0.00307822 0)
(0.999686 0.00258388 0)
(0.998089 0.00201507 0)
(0.996759 0.00127266 0)
(0.995648 0.000458983 0)
(0.99488 -0.000786034 0)
(0.994321 -0.00209907 0)
(0.994048 -0.0040914 0)
(1.0026 0.0236194 0)
(1.0288 0.0288494 0)
(1.0438 0.0211909 0)
(1.04727 0.0182479 0)
(1.04868 0.0168194 0)
(1.05058 0.0152438 0)
(1.05235 0.0139935 0)
(1.05372 0.0131282 0)
(1.05484 0.0124496 0)
(1.05582 0.0118667 0)
(1.05667 0.0113619 0)
(1.0574 0.0109233 0)
(1.05801 0.0105363 0)
(1.05847 0.010189 0)
(1.0588 0.00987316 0)
(1.05899 0.00958288 0)
(1.05902 0.00931362 0)
(1.05891 0.00906172 0)
(1.05865 0.00882428 0)
(1.05824 0.00859891 0)
(1.05769 0.00838363 0)
(1.05701 0.00817681 0)
(1.05619 0.00797704 0)
(1.05525 0.00778311 0)
(1.0542 0.00759391 0)
(1.05304 0.00740845 0)
(1.05179 0.00722571 0)
(1.05046 0.00704472 0)
(1.04905 0.00686442 0)
(1.04757 0.00668373 0)
(1.04605 0.00650132 0)
(1.04448 0.00631596 0)
(1.04287 0.00612581 0)
(1.04124 0.00592953 0)
(1.0396 0.00572417 0)
(1.03796 0.00550852 0)
(1.03632 0.00527745 0)
(1.0347 0.00503043 0)
(1.03312 0.00475823 0)
(1.03159 0.00446142 0)
(1.03011 0.00412481 0)
(1.02872 0.00374723 0)
(1.02741 0.00331065 0)
(1.02623 0.00279462 0)
(1.02518 0.00220138 0)
(1.02431 0.00143024 0)
(1.02361 0.000569952 0)
(1.02313 -0.000688719 0)
(1.02279 -0.00206917 0)
(1.02261 -0.0040025 0)
(1.0023 0.0216986 0)
(1.02634 0.0277412 0)
(1.04097 0.0206888 0)
(1.04467 0.0178343 0)
(1.04609 0.0165662 0)
(1.04796 0.0150944 0)
(1.04973 0.0138659 0)
(1.05109 0.0130102 0)
(1.0522 0.0123459 0)
(1.05319 0.0117753 0)
(1.05407 0.0112798 0)
(1.05487 0.0108496 0)
(1.05558 0.0104712 0)
(1.05621 0.010133 0)
(1.05676 0.00982697 0)
(1.05723 0.00954715 0)
(1.05761 0.00928903 0)
(1.05791 0.00904891 0)
(1.05812 0.00882375 0)
(1.05823 0.00861105 0)
(1.05826 0.00840869 0)
(1.05819 0.00821489 0)
(1.05804 0.00802809 0)
(1.0578 0.00784695 0)
(1.05748 0.00767025 0)
(1.05708 0.00749687 0)
(1.0566 0.00732571 0)
(1.05606 0.00715572 0)
(1.05545 0.00698576 0)
(1.05478 0.00681467 0)
(1.05406 0.00664108 0)
(1.05329 0.00646367 0)
(1.05248 0.00628052 0)
(1.05165 0.00609019 0)
(1.05078 0.00588969 0)
(1.0499 0.00567758 0)
(1.04902 0.00544881 0)
(1.04813 0.00520228 0)
(1.04725 0.00492932 0)
(1.0464 0.00462896 0)
(1.04558 0.00428783 0)
(1.04481 0.00390127 0)
(1.0441 0.00345503 0)
(1.04346 0.00292344 0)
(1.04293 0.00231153 0)
(1.0425 0.00152094 0)
(1.0422 0.000624578 0)
(1.04204 -0.000636829 0)
(1.04194 -0.00206054 0)
(1.0419 -0.00394569 0)
(1.00203 0.0198869 0)
(1.02402 0.0266198 0)
(1.03823 0.020203 0)
(1.04214 0.0174219 0)
(1.04359 0.0162981 0)
(1.04543 0.0149376 0)
(1.0472 0.013736 0)
(1.04857 0.0128902 0)
(1.04966 0.0122401 0)
(1.05063 0.0116817 0)
(1.05151 0.0111945 0)
(1.05231 0.0107708 0)
(1.05304 0.0103984 0)
(1.05371 0.0100659 0)
(1.05433 0.00976556 0)
(1.05489 0.00949156 0)
(1.0554 0.00923953 0)
(1.05586 0.00900584 0)
(1.05627 0.00878748 0)
(1.05662 0.00858193 0)
(1.05692 0.00838703 0)
(1.05717 0.00820095 0)
(1.05737 0.00802207 0)
(1.05751 0.00784895 0)
(1.05759 0.0076803 0)
(1.05763 0.00751493 0)
(1.05762 0.00735166 0)
(1.05756 0.00718937 0)
(1.05745 0.00702684 0)
(1.05731 0.00686285 0)
(1.05712 0.00669595 0)
(1.0569 0.00652475 0)
(1.05664 0.00634726 0)
(1.05636 0.0061619 0)
(1.05606 0.00596565 0)
(1.05574 0.00575684 0)
(1.05541 0.00553053 0)
(1.05507 0.005285 0)
(1.05474 0.0050122 0)
(1.05441 0.00470969 0)
(1.05411 0.00436578 0)
(1.05383 0.00397284 0)
(1.0536 0.00351961 0)
(1.05342 0.00297691 0)
(1.0533 0.00235051 0)
(1.05326 0.00154758 0)
(1.0533 0.000624273 0)
(1.05341 -0.000632156 0)
(1.05354 -0.00207952 0)
(1.05365 -0.00392346 0)
(1.00179 0.0181848 0)
(1.02184 0.0254893 0)
(1.0356 0.0197294 0)
(1.03971 0.0170126 0)
(1.04119 0.0160161 0)
(1.04299 0.0147723 0)
(1.04476 0.0136036 0)
(1.04613 0.0127679 0)
(1.04722 0.0121321 0)
(1.04817 0.0115864 0)
(1.04903 0.0111078 0)
(1.04982 0.0106903 0)
(1.05055 0.0103231 0)
(1.05122 0.00999527 0)
(1.05184 0.00969901 0)
(1.05242 0.00942885 0)
(1.05296 0.00918051 0)
(1.05347 0.00895049 0)
(1.05395 0.00873587 0)
(1.05439 0.00853416 0)
(1.0548 0.00834325 0)
(1.05518 0.0081613 0)
(1.05553 0.00798667 0)
(1.05585 0.00781792 0)
(1.05614 0.00765372 0)
(1.0564 0.00749284 0)
(1.05663 0.00733407 0)
(1.05683 0.00717623 0)
(1.05701 0.00701807 0)
(1.05716 0.00685833 0)
(1.05728 0.00669548 0)
(1.05739 0.00652809 0)
(1.05747 0.0063541 0)
(1.05754 0.00617182 0)
(1.05759 0.00597822 0)
(1.05763 0.00577136 0)
(1.05767 0.00554647 0)
(1.0577 0.00530124 0)
(1.05773 0.00502823 0)
(1.05778 0.00472363 0)
(1.05783 0.00437727 0)
(1.05791 0.00397911 0)
(1.05803 0.00352008 0)
(1.05817 0.00296906 0)
(1.05837 0.00233095 0)
(1.05861 0.00152048 0)
(1.05891 0.000577751 0)
(1.05923 -0.000669061 0)
(1.05953 -0.00212534 0)
(1.05977 -0.00393255 0)
(1.00157 0.0165919 0)
(1.01979 0.0243535 0)
(1.03306 0.0192641 0)
(1.03735 0.0166081 0)
(1.03888 0.0157211 0)
(1.04064 0.0145979 0)
(1.0424 0.0134683 0)
(1.04377 0.0126432 0)
(1.04486 0.0120216 0)
(1.0458 0.0114894 0)
(1.04665 0.0110199 0)
(1.04743 0.0106088 0)
(1.04814 0.0102468 0)
(1.0488 0.00992333 0)
(1.04941 0.00963078 0)
(1.04999 0.0093638 0)
(1.05053 0.00911826 0)
(1.05104 0.00889079 0)
(1.05153 0.00867853 0)
(1.052 0.00847908 0)
(1.05244 0.00829037 0)
(1.05287 0.00811057 0)
(1.05327 0.00793808 0)
(1.05366 0.00777146 0)
(1.05403 0.00760938 0)
(1.05438 0.0074506 0)
(1.05472 0.0072939 0)
(1.05505 0.0071381 0)
(1.05536 0.00698192 0)
(1.05565 0.00682408 0)
(1.05594 0.00666301 0)
(1.05621 0.00649724 0)
(1.05648 0.00632467 0)
(1.05674 0.00614353 0)
(1.05699 0.00595078 0)
(1.05724 0.00574425 0)
(1.05749 0.00551936 0)
(1.05774 0.00527322 0)
(1.058 0.00499898 0)
(1.05827 0.00469169 0)
(1.05855 0.00434239 0)
(1.05886 0.00393928 0)
(1.05919 0.00347464 0)
(1.05955 0.00291686 0)
(1.05995 0.00226873 0)
(1.06037 0.0014537 0)
(1.06083 0.000497409 0)
(1.06129 -0.000737552 0)
(1.06171 -0.00219211 0)
(1.06203 -0.00396542 0)
(1.00137 0.0151071 0)
(1.01788 0.0232165 0)
(1.03063 0.0188032 0)
(1.03509 0.0162098 0)
(1.03666 0.0154148 0)
(1.03839 0.0144138 0)
(1.04013 0.0133296 0)
(1.04151 0.0125163 0)
(1.04259 0.0119086 0)
(1.04352 0.0113903 0)
(1.04436 0.0109306 0)
(1.04512 0.0105262 0)
(1.04582 0.0101695 0)
(1.04647 0.00985057 0)
(1.04707 0.00956174 0)
(1.04764 0.00929784 0)
(1.04817 0.00905489 0)
(1.04868 0.00882962 0)
(1.04916 0.00861925 0)
(1.04963 0.00842145 0)
(1.05007 0.00823417 0)
(1.0505 0.00805564 0)
(1.05092 0.00788428 0)
(1.05133 0.00771866 0)
(1.05172 0.00755746 0)
(1.0521 0.00739945 0)
(1.05248 0.00724341 0)
(1.05285 0.00708817 0)
(1.05322 0.00693245 0)
(1.05357 0.00677494 0)
(1.05393 0.00661409 0)
(1.05428 0.00644836 0)
(1.05463 0.00627567 0)
(1.05498 0.00609415 0)
(1.05533 0.00590078 0)
(1.05569 0.00569321 0)
(1.05604 0.005467 0)
(1.05641 0.00521881 0)
(1.05679 0.00494227 0)
(1.05718 0.00463153 0)
(1.05759 0.00427854 0)
(1.05801 0.00387035 0)
(1.05847 0.00339989 0)
(1.05894 0.00283615 0)
(1.05945 0.0021791 0)
(1.05998 0.00136129 0)
(1.06053 0.000395873 0)
(1.06106 -0.000826382 0)
(1.06153 -0.00227178 0)
(1.06189 -0.00401291 0)
(1.0012 0.0137291 0)
(1.01611 0.0220822 0)
(1.02831 0.018343 0)
(1.03291 0.0158191 0)
(1.03454 0.0150989 0)
(1.03622 0.0142194 0)
(1.03796 0.0131872 0)
(1.03934 0.0123871 0)
(1.04041 0.011793 0)
(1.04133 0.0112891 0)
(1.04216 0.0108397 0)
(1.04291 0.0104425 0)
(1.0436 0.0100913 0)
(1.04423 0.00977699 0)
(1.04483 0.00949201 0)
(1.04538 0.00923126 0)
(1.0459 0.00899092 0)
(1.0464 0.0087678 0)
(1.04687 0.00855922 0)
(1.04733 0.00836289 0)
(1.04777 0.00817681 0)
(1.04819 0.00799923 0)
(1.04861 0.0078286 0)
(1.04901 0.0076635 0)
(1.04941 0.00750262 0)
(1.04979 0.00734476 0)
(1.05018 0.00718869 0)
(1.05056 0.00703325 0)
(1.05094 0.00687717 0)
(1.05132 0.00671913 0)
(1.05169 0.00655758 0)
(1.05207 0.00639097 0)
(1.05245 0.0062172 0)
(1.05284 0.00603433 0)
(1.05323 0.00583939 0)
(1.05363 0.00562982 0)
(1.05403 0.00540137 0)
(1.05445 0.00515029 0)
(1.05488 0.00487063 0)
(1.05532 0.00455584 0)
(1.05579 0.00419851 0)
(1.05627 0.00378508 0)
(1.05678 0.00330856 0)
(1.05731 0.00273934 0)
(1.05787 0.0020743 0)
(1.05844 0.00125477 0)
(1.05902 0.000283787 0)
(1.05957 -0.000925481 0)
(1.06005 -0.0023568 0)
(1.06041 -0.00406666 0)
(1.00104 0.0124554 0)
(1.01447 0.0209551 0)
(1.0261 0.01788 0)
(1.03082 0.0154366 0)
(1.03251 0.0147752 0)
(1.03415 0.0140143 0)
(1.03587 0.0130406 0)
(1.03725 0.0122556 0)
(1.03832 0.0116747 0)
(1.03923 0.0111857 0)
(1.04005 0.0107472 0)
(1.04079 0.0103574 0)
(1.04147 0.0100121 0)
(1.0421 0.00970254 0)
(1.04268 0.00942154 0)
(1.04322 0.00916406 0)
(1.04373 0.0089264 0)
(1.04422 0.00870549 0)
(1.04468 0.00849872 0)
(1.04512 0.00830384 0)
(1.04555 0.00811892 0)
(1.04597 0.00794221 0)
(1.04638 0.00777219 0)
(1.04677 0.00760745 0)
(1.04716 0.00744669 0)
(1.04754 0.00728872 0)
(1.04792 0.00713234 0)
(1.0483 0.00697637 0)
(1.04868 0.00681954 0)
(1.04906 0.00666057 0)
(1.04944 0.00649789 0)
(1.04982 0.00632991 0)
(1.05021 0.00615456 0)
(1.0506 0.00596981 0)
(1.051 0.00577276 0)
(1.05141 0.00556067 0)
(1.05183 0.00532944 0)
(1.05226 0.00507499 0)
(1.05271 0.0047917 0)
(1.05317 0.00447253 0)
(1.05365 0.00411048 0)
(1.05415 0.00369177 0)
(1.05468 0.00320914 0)
(1.05522 0.00263484 0)
(1.05579 0.0019628 0)
(1.05636 0.00114228 0)
(1.05694 0.000168805 0)
(1.05747 -0.00102735 0)
(1.05794 -0.00244129 0)
(1.05827 -0.00411996 0)
(1.0009 0.0112832 0)
(1.01296 0.0198395 0)
(1.024 0.0174112 0)
(1.02882 0.0150627 0)
(1.03057 0.0144458 0)
(1.03217 0.0137983 0)
(1.03387 0.012889 0)
(1.03525 0.0121219 0)
(1.03633 0.0115538 0)
(1.03723 0.0110797 0)
(1.03804 0.010653 0)
(1.03877 0.0102711 0)
(1.03944 0.00993166 0)
(1.04005 0.00962711 0)
(1.04062 0.00935025 0)
(1.04115 0.00909617 0)
(1.04165 0.00886128 0)
(1.04213 0.00864266 0)
(1.04258 0.00843775 0)
(1.04302 0.00824438 0)
(1.04344 0.00806062 0)
(1.04384 0.00788479 0)
(1.04424 0.00771536 0)
(1.04463 0.00755094 0)
(1.04501 0.00739025 0)
(1.04538 0.00723209 0)
(1.04576 0.00707528 0)
(1.04613 0.00691865 0)
(1.0465 0.00676095 0)
(1.04687 0.00660087 0)
(1.04724 0.00643685 0)
(1.04762 0.0062673 0)
(1.048 0.00609014 0)
(1.04839 0.00590328 0)
(1.04879 0.00570387 0)
(1.0492 0.00548901 0)
(1.04962 0.00525474 0)
(1.05005 0.00499672 0)
(1.05049 0.00470957 0)
(1.05095 0.00438593 0)
(1.05143 0.00401901 0)
(1.05193 0.00359517 0)
(1.05245 0.00310661 0)
(1.05299 0.0025277 0)
(1.05354 0.00184976 0)
(1.0541 0.001029 0)
(1.05465 5.56319e-05 0)
(1.05515 -0.00112708 0)
(1.05558 -0.00252113 0)
(1.05587 -0.00416791 0)
(1.00078 0.010209 0)
(1.01158 0.0187397 0)
(1.02201 0.0169338 0)
(1.0269 0.0146977 0)
(1.02872 0.0141129 0)
(1.03029 0.0135712 0)
(1.03195 0.0127319 0)
(1.03334 0.0119859 0)
(1.03442 0.0114304 0)
(1.03531 0.0109713 0)
(1.03611 0.0105568 0)
(1.03684 0.0101832 0)
(1.03749 0.00985004 0)
(1.0381 0.00955064 0)
(1.03866 0.00927807 0)
(1.03918 0.00902751 0)
(1.03967 0.00879551 0)
(1.04014 0.00857925 0)
(1.04058 0.00837628 0)
(1.04101 0.00818446 0)
(1.04142 0.00800191 0)
(1.04182 0.00782698 0)
(1.0422 0.00765815 0)
(1.04258 0.00749405 0)
(1.04295 0.00733342 0)
(1.04332 0.00717505 0)
(1.04368 0.00701779 0)
(1.04405 0.00686046 0)
(1.04441 0.00670182 0)
(1.04477 0.00654057 0)
(1.04514 0.00637516 0)
(1.04551 0.00620395 0)
(1.04588 0.0060249 0)
(1.04627 0.00583584 0)
(1.04666 0.00563396 0)
(1.04706 0.00541626 0)
(1.04747 0.00517886 0)
(1.04789 0.00491724 0)
(1.04832 0.00462616 0)
(1.04878 0.00429813 0)
(1.04924 0.0039264 0)
(1.04973 0.00349769 0)
(1.05023 0.00300361 0)
(1.05075 0.00242062 0)
(1.05128 0.00173801 0)
(1.05181 0.000917874 0)
(1.05233 -5.30869e-05 0)
(1.05279 -0.00122168 0)
(1.05318 -0.00259373 0)
(1.05342 -0.00420735 0)
(1.00067 0.00922871 0)
(1.01032 0.0176604 0)
(1.02014 0.0164456 0)
(1.02506 0.0143412 0)
(1.02697 0.0137785 0)
(1.0285 0.0133336 0)
(1.03013 0.0125686 0)
(1.03152 0.0118473 0)
(1.0326 0.0113044 0)
(1.03349 0.0108601 0)
(1.03428 0.0104585 0)
(1.03499 0.0100938 0)
(1.03564 0.00976711 0)
(1.03624 0.00947302 0)
(1.03679 0.00920491 0)
(1.0373 0.00895802 0)
(1.03779 0.00872901 0)
(1.03824 0.0085152 0)
(1.03868 0.00831423 0)
(1.0391 0.00812402 0)
(1.0395 0.00794273 0)
(1.03989 0.00776873 0)
(1.04026 0.00760052 0)
(1.04063 0.00743677 0)
(1.041 0.00727619 0)
(1.04135 0.00711762 0)
(1.04171 0.0069599 0)
(1.04206 0.00680186 0)
(1.04242 0.00664228 0)
(1.04277 0.00647983 0)
(1.04313 0.006313 0)
(1.04349 0.00614011 0)
(1.04386 0.00595914 0)
(1.04423 0.00576787 0)
(1.04461 0.00556351 0)
(1.045 0.00534297 0)
(1.0454 0.00510243 0)
(1.04582 0.00483726 0)
(1.04624 0.00454231 0)
(1.04668 0.00421006 0)
(1.04714 0.00383371 0)
(1.04761 0.00340049 0)
(1.04809 0.00290143 0)
(1.04859 0.002315 0)
(1.04909 0.00162902 0)
(1.04959 0.000810479 0)
(1.05006 -0.000155815 0)
(1.05048 -0.00130942 0)
(1.05082 -0.00265762 0)
(1.05101 -0.00423634 0)
(1.00058 0.0083377 0)
(1.00917 0.0166057 0)
(1.01838 0.0159449 0)
(1.02332 0.0139926 0)
(1.02529 0.0134444 0)
(1.0268 0.0130858 0)
(1.0284 0.0123986 0)
(1.02978 0.0117061 0)
(1.03086 0.0111758 0)
(1.03175 0.0107462 0)
(1.03253 0.010358 0)
(1.03324 0.0100027 0)
(1.03388 0.00968277 0)
(1.03447 0.00939418 0)
(1.03501 0.00913069 0)
(1.03552 0.0088876 0)
(1.03599 0.0086617 0)
(1.03644 0.00845044 0)
(1.03687 0.00825154 0)
(1.03728 0.008063 0)
(1.03767 0.00788301 0)
(1.03805 0.00770998 0)
(1.03842 0.00754243 0)
(1.03878 0.00737904 0)
(1.03914 0.00721854 0)
(1.03949 0.00705977 0)
(1.03983 0.00690158 0)
(1.04018 0.00674283 0)
(1.04053 0.0065823 0)
(1.04087 0.00641866 0)
(1.04122 0.0062504 0)
(1.04158 0.00607584 0)
(1.04194 0.00589295 0)
(1.0423 0.00569947 0)
(1.04267 0.00549265 0)
(1.04305 0.00526931 0)
(1.04344 0.00502569 0)
(1.04384 0.00475708 0)
(1.04426 0.00445837 0)
(1.04468 0.00412212 0)
(1.04512 0.00374142 0)
(1.04557 0.0033041 0)
(1.04604 0.0028007 0)
(1.04651 0.00221155 0)
(1.04698 0.00152354 0)
(1.04745 0.000707673 0)
(1.04788 -0.000251796 0)
(1.04826 -0.00138925 0)
(1.04854 -0.00271187 0)
(1.04868 -0.00425363 0)
(1.0005 0.00753094 0)
(1.00814 0.01558 0)
(1.01674 0.0154308 0)
(1.02165 0.013651 0)
(1.02371 0.0131125 0)
(1.02519 0.0128288 0)
(1.02675 0.0122212 0)
(1.02813 0.0115618 0)
(1.02921 0.0110448 0)
(1.03009 0.0106295 0)
(1.03087 0.010255 0)