/*--------------------------------*- C++ -*----------------------------------*\
  =========                 |
  \\      /  F ield         | OpenFOAM: The Open Source CFD Toolbox
   \\    /   O peration     | Website:  https://openfoam.org
    \\  /    A nd           | Version:  7
     \\/     M anipulation  |
\*---------------------------------------------------------------------------*/
FoamFile
{
    version     2.0;
    format      ascii;
    class       volVectorField;
    location    "0.46";
    object      U_0;
}
// * * * * * * * * * * * * * * * * * * * * * * * * * * * * * * * * * * * * * //

dimensions      [0 1 -1 0 0 0 0];

internalField   nonuniform List<vector> 
70000
(
(0.553392 0.0167229 0)
(0.251271 0.00340083 0)
(0.166224 0.000321808 0)
(0.132489 5.41116e-05 0)
(0.117312 4.55514e-05 0)
(0.107402 5.37226e-05 0)
(0.0994693 4.60846e-05 0)
(0.0930454 3.67385e-05 0)
(0.0878181 3.04165e-05 0)
(0.0834673 2.60802e-05 0)
(0.0797648 2.27703e-05 0)
(0.0765628 2.0114e-05 0)
(0.0737601 1.79417e-05 0)
(0.0712826 1.61403e-05 0)
(0.0690745 1.4626e-05 0)
(0.0670923 1.33367e-05 0)
(0.065302 1.2226e-05 0)
(0.0636766 1.12584e-05 0)
(0.0621941 1.04072e-05 0)
(0.0608367 9.65055e-06 0)
(0.0595895 8.97182e-06 0)
(0.0584405 8.35701e-06 0)
(0.0573793 7.79479e-06 0)
(0.0563973 7.27565e-06 0)
(0.0554873 6.79133e-06 0)
(0.0546431 6.33473e-06 0)
(0.0538597 5.89917e-06 0)
(0.0531325 5.47921e-06 0)
(0.052458 5.06772e-06 0)
(0.0518332 4.66126e-06 0)
(0.0512557 4.24997e-06 0)
(0.0507238 3.83284e-06 0)
(0.0502361 3.39552e-06 0)
(0.0497921 2.93885e-06 0)
(0.0493913 2.44444e-06 0)
(0.0490348 1.90558e-06 0)
(0.0487225 1.31785e-06 0)
(0.048459 6.18425e-07 0)
(0.0482417 -9.00735e-08 0)
(0.0480853 -1.12224e-06 0)
(0.047975 -1.92606e-06 0)
(0.0479545 -3.65318e-06 0)
(0.0479693 -4.52915e-06 0)
(0.0481409 -7.84346e-06 0)
(0.0483059 -7.32781e-06 0)
(0.0487765 -1.50727e-05 0)
(0.0491432 -1.07467e-05 0)
(0.0500471 -2.90854e-05 0)
(0.0511818 1.61391e-05 0)
(0.0477042 -0.00196451 0)
(0.8849 0.0431668 0)
(0.649731 0.020193 0)
(0.494361 0.00659697 0)
(0.403735 0.00276617 0)
(0.354841 0.0015505 0)
(0.323572 0.00113002 0)
(0.299748 0.000908748 0)
(0.280589 0.000744762 0)
(0.264915 0.000621812 0)
(0.251836 0.000530943 0)
(0.2407 0.000461912 0)
(0.231066 0.000407539 0)
(0.222629 0.000363549 0)
(0.215167 0.00032728 0)
(0.208511 0.000296921 0)
(0.202532 0.000271173 0)
(0.197127 0.000249076 0)
(0.192215 0.000229911 0)
(0.187731 0.000213125 0)
(0.183622 0.00019829 0)
(0.179841 0.000185067 0)
(0.176354 0.000173183 0)
(0.173129 0.000162419 0)
(0.170139 0.00015259 0)
(0.167363 0.000143544 0)
(0.164783 0.000135148 0)
(0.162381 0.000127286 0)
(0.160145 0.000119858 0)
(0.158063 0.000112765 0)
(0.156126 0.000105925 0)
(0.154326 9.9238e-05 0)
(0.152656 9.26365e-05 0)
(0.151112 8.59986e-05 0)
(0.14969 7.92731e-05 0)
(0.148389 7.22819e-05 0)
(0.147209 6.49973e-05 0)
(0.146148 5.71496e-05 0)
(0.145217 4.8704e-05 0)
(0.144406 3.93227e-05 0)
(0.143752 2.87397e-05 0)
(0.143213 1.69355e-05 0)
(0.1429 2.47089e-06 0)
(0.142667 -1.2217e-05 0)
(0.142825 -3.58102e-05 0)
(0.142941 -5.51947e-05 0)
(0.143817 -9.80621e-05 0)
(0.144398 -0.000112321 0)
(0.146262 -0.000247805 0)
(0.148562 5.02281e-05 0)
(0.146101 -0.00356708 0)
(0.991237 0.0499005 0)
(0.890361 0.0307166 0)
(0.762727 0.0145947 0)
(0.656755 0.0079763 0)
(0.585474 0.0048813 0)
(0.536116 0.00346734 0)
(0.498299 0.00273165 0)
(0.467731 0.00223917 0)
(0.442468 0.00187581 0)
(0.421212 0.00160393 0)
(0.403017 0.00139613 0)
(0.387215 0.00123245 0)
(0.373332 0.00110014 0)
(0.361019 0.000991072 0)
(0.35001 0.000899774 0)
(0.340099 0.000822338 0)
(0.331124 0.000755889 0)
(0.322954 0.000698266 0)
(0.315484 0.000647818 0)
(0.308626 0.000603261 0)
(0.302309 0.000563579 0)
(0.296472 0.000527962 0)
(0.291065 0.00049575 0)
(0.286046 0.000466398 0)
(0.281377 0.000439449 0)
(0.277028 0.000414515 0)
(0.272973 0.000391256 0)
(0.269188 0.000369376 0)
(0.265655 0.000348596 0)
(0.262357 0.000328676 0)
(0.259281 0.00030935 0)
(0.256415 0.000290417 0)
(0.253751 0.000271567 0)
(0.251282 0.000252648 0)
(0.249002 0.000233207 0)
(0.246912 0.000213193 0)
(0.245007 0.000191835 0)
(0.2433 0.000169282 0)
(0.241775 0.000144182 0)
(0.240483 0.000116926 0)
(0.239361 8.54649e-05 0)
(0.238565 4.97677e-05 0)
(0.237882 9.14734e-06 0)
(0.237752 -4.42232e-05 0)
(0.237557 -0.000100575 0)
(0.238414 -0.000195913 0)
(0.238855 -0.000247405 0)
(0.241042 -0.000547038 0)
(0.243437 -0.00020327 0)
(0.24385 -0.00409433 0)
(1.0156 0.0489191 0)
(1.00597 0.0358717 0)
(0.935985 0.0207869 0)
(0.852194 0.0134987 0)
(0.782302 0.00920162 0)
(0.727158 0.0067745 0)
(0.682135 0.00537633 0)
(0.644439 0.00443682 0)
(0.612484 0.00374271 0)
(0.585082 0.00321641 0)
(0.561295 0.0028095 0)
(0.54042 0.00248684 0)
(0.521926 0.00222488 0)
(0.505412 0.00200823 0)
(0.490564 0.00182635 0)
(0.477134 0.00167172 0)
(0.464921 0.00153876 0)
(0.453764 0.00142327 0)
(0.443529 0.00132205 0)
(0.434106 0.00123256 0)
(0.425403 0.00115283 0)
(0.417342 0.00108124 0)
(0.409857 0.00101651 0)
(0.402892 0.000957558 0)
(0.396399 0.000903483 0)
(0.390338 0.00085352 0)
(0.384672 0.000807003 0)
(0.379371 0.00076335 0)
(0.374409 0.000722023 0)
(0.369764 0.000682551 0)
(0.365418 0.000644436 0)
(0.361353 0.000607286 0)
(0.357557 0.000570538 0)
(0.354021 0.000533899 0)
(0.350736 0.000496551 0)
(0.347699 0.000458418 0)
(0.344905 0.000418048 0)
(0.342365 0.000375915 0)
(0.34006 0.000329156 0)
(0.338047 0.000279452 0)
(0.336251 0.000221263 0)
(0.334851 0.000158077 0)
(0.333597 8.08816e-05 0)
(0.332993 -7.87945e-06 0)
(0.332334 -0.000113393 0)
(0.332872 -0.00026988 0)
(0.332967 -0.000378601 0)
(0.335056 -0.000838029 0)
(0.336977 -0.000585718 0)
(0.339141 -0.00428964 0)
(1.01434 0.0460023 0)
(1.04754 0.0374845 0)
(1.0246 0.0241452 0)
(0.974811 0.0175511 0)
(0.92354 0.0131131 0)
(0.876821 0.0101957 0)
(0.834721 0.00833115 0)
(0.797042 0.00700929 0)
(0.763552 0.00599869 0)
(0.733812 0.00521027 0)
(0.707311 0.00458712 0)
(0.683578 0.00408508 0)
(0.662216 0.00367274 0)
(0.642892 0.00332859 0)
(0.625331 0.00303752 0)
(0.609304 0.00278853 0)
(0.594618 0.00257334 0)
(0.581113 0.00238564 0)
(0.568654 0.00222053 0)
(0.557124 0.00207413 0)
(0.546426 0.00194336 0)
(0.536477 0.00182574 0)
(0.527204 0.00171922 0)
(0.518545 0.0016221 0)
(0.510447 0.00153297 0)
(0.502862 0.00145061 0)
(0.49575 0.00137396 0)
(0.489076 0.00130209 0)
(0.48281 0.00123415 0)
(0.476925 0.00116939 0)
(0.471399 0.00110704 0)
(0.466212 0.00104646 0)
(0.46135 0.000986803 0)
(0.456799 0.000927589 0)
(0.452549 0.000867593 0)
(0.448596 0.000806693 0)
(0.44493 0.000742663 0)
(0.441563 0.000676357 0)
(0.438475 0.000603172 0)
(0.435721 0.000526334 0)
(0.433225 0.000436251 0)
(0.431167 0.000340606 0)
(0.429296 0.000221869 0)
(0.428115 9.03268e-05 0)
(0.426925 -6.93505e-05 0)
(0.426961 -0.000294011 0)
(0.426617 -0.000475249 0)
(0.428309 -0.00107665 0)
(0.429676 -0.0010011 0)
(0.432257 -0.00443915 0)
(1.00933 0.0429136 0)
(1.05528 0.0372591 0)
(1.0587 0.0252882 0)
(1.03641 0.0197487 0)
(1.00717 0.0157992 0)
(0.976168 0.0129219 0)
(0.944697 0.0109442 0)
(0.913894 0.00946097 0)
(0.884609 0.00826946 0)
(0.857226 0.00730037 0)
(0.831825 0.00650879 0)
(0.808341 0.0058546 0)
(0.786656 0.00530644 0)
(0.766626 0.0048415 0)
(0.748105 0.00444307 0)
(0.730953 0.00409848 0)
(0.715042 0.00379792 0)
(0.700253 0.00353371 0)
(0.686481 0.00329973 0)
(0.673633 0.0030911 0)
(0.661627 0.00290383 0)
(0.650388 0.00273468 0)
(0.639852 0.00258096 0)
(0.629961 0.0024404 0)
(0.620665 0.0023111 0)
(0.611918 0.00219139 0)
(0.603683 0.00207984 0)
(0.595922 0.00197516 0)
(0.588607 0.0018762 0)
(0.58171 0.0017819 0)
(0.575208 0.00169119 0)
(0.569081 0.00160321 0)
(0.563314 0.00151678 0)
(0.557891 0.00143122 0)
(0.552802 0.00134489 0)
(0.548042 0.00125758 0)
(0.5436 0.00116631 0)
(0.539488 0.00107223 0)
(0.535684 0.00096905 0)
(0.53224 0.000861398 0)
(0.529087 0.00073582 0)
(0.526389 0.000603751 0)
(0.523922 0.000439861 0)
(0.52214 0.000260832 0)
(0.52042 4.14196e-05 0)
(0.519871 -0.000254492 0)
(0.519077 -0.000517525 0)
(0.520182 -0.00124802 0)
(0.521052 -0.00137938 0)
(0.523354 -0.00454586 0)
(1.00625 0.040032 0)
(1.05207 0.0363311 0)
(1.0661 0.0252163 0)
(1.05963 0.0205467 0)
(1.04693 0.0172235 0)
(1.03089 0.0146385 0)
(1.01203 0.0128 0)
(0.991406 0.0113731 0)
(0.970058 0.0101748 0)
(0.948721 0.00915716 0)
(0.927841 0.00829473 0)
(0.907679 0.00755957 0)
(0.888382 0.00692729 0)
(0.87002 0.00637906 0)
(0.852612 0.00590041 0)
(0.836146 0.00547981 0)
(0.820591 0.00510794 0)
(0.805905 0.00477718 0)
(0.79204 0.00448129 0)
(0.778951 0.00421509 0)
(0.766587 0.00397431 0)
(0.754904 0.00375536 0)
(0.743858 0.00355519 0)
(0.733409 0.00337121 0)
(0.723519 0.00320121 0)
(0.714155 0.00304322 0)
(0.705284 0.00289552 0)
(0.696879 0.00275657 0)
(0.688914 0.00262492 0)
(0.681367 0.00249928 0)
(0.674218 0.00237835 0)
(0.667449 0.002261 0)
(0.661046 0.00214578 0)
(0.654997 0.00203182 0)
(0.649292 0.00191706 0)
(0.643926 0.00180121 0)
(0.638891 0.00168055 0)
(0.634194 0.00155646 0)
(0.629822 0.00142116 0)
(0.625816 0.00128027 0)
(0.622121 0.00111719 0)
(0.618876 0.000945879 0)
(0.615898 0.000735214 0)
(0.613571 0.000505508 0)
(0.611382 0.000223035 0)
(0.610256 -0.000145588 0)
(0.60905 -0.000495118 0)
(0.609503 -0.00134361 0)
(0.609917 -0.00169092 0)
(0.611686 -0.00459383 0)
(1.00495 0.0373538 0)
(1.04728 0.0352485 0)
(1.06399 0.0246754 0)
(1.06428 0.0205715 0)
(1.06073 0.0177591 0)
(1.05482 0.0154784 0)
(1.04611 0.0138541 0)
(1.03496 0.0125914 0)
(1.0221 0.0115033 0)
(1.00813 0.0105483 0)
(0.993514 0.00971292 0)
(0.978597 0.00897973 0)
(0.963648 0.008332 0)
(0.948861 0.0077566 0)
(0.934373 0.00724324 0)
(0.920275 0.00678342 0)
(0.906628 0.00636993 0)
(0.893466 0.00599659 0)
(0.880807 0.00565813 0)
(0.868657 0.00535003 0)
(0.857012 0.00506838 0)
(0.845864 0.00480984 0)
(0.835201 0.00457148 0)
(0.825006 0.00435076 0)
(0.815265 0.00414542 0)
(0.805959 0.00395345 0)
(0.797074 0.00377303 0)
(0.788592 0.00360249 0)
(0.780498 0.00344027 0)
(0.772779 0.00328491 0)
(0.765422 0.00313495 0)
(0.758414 0.00298908 0)
(0.751749 0.00284565 0)
(0.745415 0.00270359 0)
(0.739409 0.00256053 0)
(0.733727 0.00241605 0)
(0.728364 0.00226585 0)
(0.723328 0.00211135 0)
(0.71861 0.00194362 0)
(0.714245 0.00176876 0)
(0.710193 0.00156799 0)
(0.706569 0.00135623 0)
(0.703229 0.00109918 0)
(0.700485 0.000816736 0)
(0.697945 0.000474271 0)
(0.696332 2.89781e-05 0)
(0.694792 -0.000408395 0)
(0.694639 -0.00136137 0)
(0.694633 -0.00192197 0)
(0.695811 -0.00458607 0)
(1.0044 0.0348056 0)
(1.04324 0.0341747 0)
(1.05995 0.0240335 0)
(1.06232 0.0202764 0)
(1.06254 0.0178212 0)
(1.06187 0.0157572 0)
(1.05934 0.0143056 0)
(1.05483 0.0132077 0)
(1.04866 0.0122614 0)
(1.04114 0.0114179 0)
(1.03256 0.0106664 0)
(1.02316 0.00999343 0)
(1.01318 0.00938622 0)
(1.00282 0.00883527 0)
(0.992236 0.00833359 0)
(0.981562 0.00787553 0)
(0.970903 0.00745624 0)
(0.960339 0.00707142 0)
(0.949931 0.00671727 0)
(0.939728 0.00639042 0)
(0.929761 0.00608786 0)
(0.920057 0.0058069 0)
(0.910631 0.00554515 0)
(0.901494 0.00530042 0)
(0.892654 0.00507074 0)
(0.884112 0.00485428 0)
(0.875869 0.00464935 0)
(0.867925 0.00445434 0)
(0.860277 0.00426772 0)
(0.852921 0.00408801 0)
(0.845856 0.00391368 0)
(0.839077 0.00374337 0)
(0.832583 0.00357528 0)
(0.826372 0.00340823 0)
(0.820443 0.00323962 0)
(0.814798 0.00306888 0)
(0.809436 0.00289131 0)
(0.804367 0.00270821 0)
(0.799588 0.00250989 0)
(0.795129 0.00230239 0)
(0.790964 0.00206576 0)
(0.787185 0.00181439 0)
(0.78369 0.00151328 0)
(0.780719 0.00117861 0)
(0.777991 0.000779401 0)
(0.776048 0.000258257 0)
(0.774291 -0.000266254 0)
(0.77366 -0.0013087 0)
(0.773299 -0.00206976 0)
(0.773928 -0.00453103 0)
(1.00402 0.0323653 0)
(1.03991 0.0331241 0)
(1.05618 0.0234095 0)
(1.05895 0.0198869 0)
(1.06027 0.0176891 0)
(1.06164 0.0157593 0)
(1.06204 0.0144083 0)
(1.06119 0.0134248 0)
(1.05917 0.0125939 0)
(1.05609 0.0118558 0)
(1.05205 0.0111967 0)
(1.04716 0.0106031 0)
(1.04154 0.0100621 0)
(1.03533 0.00956485 0)
(1.02864 0.00910544 0)
(1.02158 0.00867961 0)
(1.01425 0.00828386 0)
(1.00673 0.00791521 0)
(0.999096 0.00757105 0)
(0.991412 0.00724903 0)
(0.983726 0.00694705 0)
(0.976081 0.00666316 0)
(0.968511 0.0063956 0)
(0.961045 0.00614272 0)
(0.953706 0.00590296 0)
(0.946512 0.00567484 0)
(0.939478 0.00545693 0)
(0.932615 0.00524783 0)
(0.925934 0.00504615 0)
(0.919441 0.00485052 0)
(0.913144 0.00465946 0)
(0.907048 0.0044716 0)
(0.901158 0.00428513 0)
(0.895479 0.0040988 0)
(0.890017 0.00390988 0)
(0.884777 0.00371766 0)
(0.879765 0.00351718 0)
(0.874992 0.00330954 0)
(0.870462 0.00308464 0)
(0.866202 0.00284798 0)
(0.862197 0.0025794 0)
(0.858522 0.00229144 0)
(0.855109 0.00195052 0)
(0.852138 0.00156665 0)
(0.849422 0.00111496 0)
(0.847347 0.00052462 0)
(0.845524 -8.55811e-05 0)
(0.844588 -0.00120132 0)
(0.843978 -0.00214201 0)
(0.844162 -0.00443908 0)
(1.00364 0.0300247 0)
(1.03693 0.0320759 0)
(1.05283 0.0228187 0)
(1.05572 0.0194803 0)
(1.05718 0.0174953 0)
(1.0591 0.0156571 0)
(1.06057 0.0143531 0)
(1.06129 0.0134321 0)
(1.06134 0.0126744 0)
(1.06073 0.0120101 0)
(1.05946 0.0114229 0)
(1.05756 0.0108978 0)
(1.05506 0.0104205 0)
(1.052 0.00998099 0)
(1.04845 0.00957286 0)
(1.04446 0.00919174 0)
(1.04011 0.00883431 0)
(1.03544 0.00849797 0)
(1.03052 0.00818056 0)
(1.0254 0.00788025 0)
(1.02012 0.00759543 0)
(1.01472 0.00732469 0)
(1.00926 0.0070667 0)
(1.00375 0.00682023 0)
(0.998225 0.00658412 0)
(0.992714 0.0063572 0)
(0.987238 0.00613834 0)
(0.981815 0.00592637 0)
(0.976462 0.00572008 0)
(0.971194 0.00551825 0)
(0.966024 0.00531951 0)
(0.960963 0.00512254 0)
(0.956024 0.00492556 0)
(0.951216 0.0047273 0)
(0.946549 0.00452497 0)
(0.942034 0.00431777 0)
(0.93768 0.00410057 0)
(0.933502 0.00387418 0)
(0.929507 0.0036284 0)
(0.925721 0.00336787 0)
(0.922139 0.00307293 0)
(0.918819 0.00275336 0)
(0.915724 0.00237853 0)
(0.912983 0.00195074 0)
(0.910483 0.00145287 0)
(0.908486 0.00080141 0)
(0.906762 0.000113285 0)
(0.905713 -0.00106072 0)
(0.904987 -0.00215502 0)
(0.904869 -0.00432373 0)
(1.00327 0.0277847 0)
(1.0341 0.0310166 0)
(1.04972 0.0222544 0)
(1.05275 0.0190716 0)
(1.05417 0.0172827 0)
(1.05615 0.0155257 0)
(1.0579 0.0142433 0)
(1.05914 0.0133522 0)
(1.05999 0.0126348 0)
(1.06049 0.0120135 0)
(1.06062 0.0114709 0)
(1.06035 0.010992 0)
(1.05968 0.0105614 0)
(1.05863 0.0101677 0)
(1.05719 0.00980359 0)
(1.05539 0.00946401 0)
(1.05326 0.00914516 0)
(1.05082 0.00884412 0)
(1.04811 0.00855862 0)
(1.04515 0.00828681 0)
(1.04199 0.00802714 0)
(1.03864 0.00777833 0)
(1.03515 0.00753921 0)
(1.03153 0.00730874 0)
(1.02781 0.00708595 0)
(1.02402 0.00686986 0)
(1.02017 0.00665952 0)
(1.0163 0.00645392 0)
(1.0124 0.00625201 0)
(1.00851 0.00605268 0)
(1.00464 0.00585462 0)
(1.0008 0.00565662 0)
(0.997009 0.00545689 0)
(0.993273 0.00525418 0)
(0.989609 0.00504564 0)
(0.986029 0.00483038 0)
(0.982546 0.00460321 0)
(0.979174 0.00436459 0)
(0.975924 0.00410445 0)
(0.97282 0.00382627 0)
(0.969864 0.00351153 0)
(0.967102 0.00316656 0)
(0.964517 0.00276471 0)
(0.9622 0.00230007 0)
(0.960092 0.00176327 0)
(0.958361 0.00106098 0)
(0.956887 0.000305558 0)
(0.955906 -0.000912038 0)
(0.955202 -0.00213094 0)
(0.954936 -0.00420121 0)
(1.00292 0.0256487 0)
(1.03139 0.0299415 0)
(1.04672 0.0217122 0)
(1.04996 0.0186608 0)
(1.05136 0.0170579 0)
(1.0533 0.0153871 0)
(1.05508 0.0141198 0)
(1.05644 0.013244 0)
(1.05752 0.0125493 0)
(1.05841 0.0119515 0)
(1.05909 0.0114333 0)
(1.05956 0.0109807 0)
(1.0598 0.0105783 0)
(1.0598 0.0102143 0)
(1.05956 0.0098806 0)
(1.05907 0.0095715 0)
(1.05835 0.00928272 0)
(1.05739 0.00901091 0)
(1.05622 0.00875343 0)
(1.05483 0.00850815 0)
(1.05326 0.00827335 0)
(1.0515 0.00804758 0)
(1.04959 0.00782962 0)
(1.04753 0.00761839 0)
(1.04534 0.00741291 0)
(1.04305 0.00721224 0)
(1.04066 0.00701546 0)
(1.0382 0.00682161 0)
(1.03568 0.00662968 0)
(1.03311 0.00643862 0)
(1.0305 0.00624714 0)
(1.02788 0.00605405 0)
(1.02524 0.00585755 0)
(1.02262 0.00565637 0)
(1.02001 0.00544763 0)
(1.01743 0.00523029 0)
(1.0149 0.00499917 0)
(1.01242 0.00475429 0)
(1.01002 0.00448592 0)
(1.0077 0.00419616 0)
(1.00548 0.00386805 0)
(1.00339 0.00350417 0)
(1.00143 0.00308223 0)
(0.999665 0.00258852 0)
(0.998065 0.00202034 0)
(0.996733 0.00127858 0)
(0.995619 0.000465415 0)
(0.994848 -0.000779499 0)
(0.994284 -0.00209328 0)
(0.994006 -0.00408797 0)
(1.0026 0.0236194 0)
(1.0288 0.0288494 0)
(1.0438 0.0211909 0)
(1.04727 0.0182479 0)
(1.04868 0.0168195 0)
(1.05058 0.0152439 0)
(1.05235 0.0139937 0)
(1.05372 0.0131284 0)
(1.05484 0.0124497 0)
(1.05582 0.0118668 0)
(1.05667 0.0113621 0)
(1.0574 0.0109235 0)
(1.05801 0.0105365 0)
(1.05847 0.0101892 0)
(1.0588 0.0098734 0)
(1.05898 0.00958314 0)
(1.05902 0.00931388 0)
(1.05891 0.009062 0)
(1.05865 0.00882458 0)
(1.05824 0.00859921 0)
(1.05769 0.00838395 0)
(1.057 0.00817715 0)
(1.05619 0.00797741 0)
(1.05525 0.0077835 0)
(1.05419 0.00759435 0)
(1.05304 0.00740892 0)
(1.05179 0.00722624 0)
(1.05045 0.00704532 0)
(1.04904 0.00686509 0)
(1.04757 0.00668447 0)
(1.04604 0.00650216 0)
(1.04447 0.00631691 0)
(1.04286 0.00612689 0)
(1.04123 0.00593075 0)
(1.03959 0.00572556 0)
(1.03795 0.00551011 0)
(1.03631 0.00527927 0)
(1.03469 0.00503253 0)
(1.03311 0.00476064 0)
(1.03157 0.00446421 0)
(1.0301 0.00412803 0)
(1.0287 0.00375096 0)
(1.02739 0.00331495 0)
(1.02621 0.00279957 0)
(1.02516 0.00220702 0)
(1.02429 0.00143656 0)
(1.02358 0.000576831 0)
(1.0231 -0.000681675 0)
(1.02276 -0.00206273 0)
(1.02257 -0.00399801 0)
(1.0023 0.0216985 0)
(1.02634 0.0277411 0)
(1.04097 0.0206888 0)
(1.04467 0.0178343 0)
(1.04609 0.0165663 0)
(1.04796 0.0150945 0)
(1.04973 0.013866 0)
(1.05109 0.0130104 0)
(1.0522 0.0123461 0)
(1.05319 0.0117755 0)
(1.05407 0.01128 0)
(1.05487 0.0108498 0)
(1.05558 0.0104715 0)
(1.05621 0.0101333 0)
(1.05676 0.00982724 0)
(1.05723 0.00954743 0)
(1.05761 0.00928932 0)
(1.05791 0.00904921 0)
(1.05811 0.00882407 0)
(1.05823 0.00861138 0)
(1.05826 0.00840904 0)
(1.05819 0.00821526 0)
(1.05804 0.00802849 0)
(1.0578 0.00784738 0)
(1.05748 0.00767071 0)
(1.05707 0.00749738 0)
(1.0566 0.00732628 0)
(1.05605 0.00715635 0)
(1.05544 0.00698647 0)
(1.05477 0.00681547 0)
(1.05405 0.00664198 0)
(1.05328 0.00646468 0)
(1.05248 0.00628167 0)
(1.05164 0.0060915 0)
(1.05078 0.00589118 0)
(1.0499 0.00567928 0)
(1.04901 0.00545076 0)
(1.04812 0.00520452 0)
(1.04724 0.00493189 0)
(1.04639 0.00463193 0)
(1.04557 0.00429125 0)
(1.04479 0.00390524 0)
(1.04408 0.00345959 0)
(1.04345 0.00292869 0)
(1.04291 0.00231749 0)
(1.04248 0.00152763 0)
(1.04218 0.000631861 0)
(1.04201 -0.000629308 0)
(1.04191 -0.00205345 0)
(1.04186 -0.00394014 0)
(1.00203 0.0198869 0)
(1.02402 0.0266198 0)
(1.03823 0.0202029 0)
(1.04214 0.0174219 0)
(1.04359 0.0162982 0)
(1.04543 0.0149377 0)
(1.0472 0.0137362 0)
(1.04857 0.0128903 0)
(1.04966 0.0122403 0)
(1.05063 0.0116819 0)
(1.05151 0.0111947 0)
(1.05231 0.0107711 0)
(1.05304 0.0103986 0)
(1.05371 0.0100662 0)
(1.05433 0.00976584 0)
(1.05489 0.00949187 0)
(1.0554 0.00923985 0)
(1.05586 0.00900617 0)
(1.05626 0.00878783 0)
(1.05662 0.00858229 0)
(1.05692 0.00838741 0)
(1.05717 0.00820135 0)
(1.05736 0.00802249 0)
(1.0575 0.00784941 0)
(1.05759 0.0076808 0)
(1.05763 0.00751547 0)
(1.05762 0.00735226 0)
(1.05756 0.00719004 0)
(1.05745 0.00702759 0)
(1.0573 0.0068637 0)
(1.05712 0.0066969 0)
(1.05689 0.00652583 0)
(1.05664 0.00634848 0)
(1.05636 0.00616329 0)
(1.05605 0.00596723 0)
(1.05573 0.00575865 0)
(1.0554 0.00553259 0)
(1.05506 0.00528737 0)
(1.05473 0.00501492 0)
(1.0544 0.00471283 0)
(1.0541 0.00436939 0)
(1.05382 0.00397701 0)
(1.05359 0.00352441 0)
(1.0534 0.00298242 0)
(1.05329 0.00235677 0)
(1.05324 0.00155459 0)
(1.05328 0.000631925 0)
(1.05339 -0.000624178 0)
(1.05351 -0.00207179 0)
(1.05362 -0.00391687 0)
(1.00179 0.0181848 0)
(1.02184 0.0254893 0)
(1.0356 0.0197294 0)
(1.03971 0.0170126 0)
(1.04119 0.0160161 0)
(1.04299 0.0147724 0)
(1.04476 0.0136038 0)
(1.04613 0.012768 0)
(1.04722 0.0121323 0)
(1.04817 0.0115867 0)
(1.04903 0.0111081 0)
(1.04982 0.0106906 0)
(1.05055 0.0103234 0)
(1.05121 0.00999557 0)
(1.05184 0.00969932 0)
(1.05242 0.00942917 0)
(1.05296 0.00918085 0)
(1.05347 0.00895084 0)
(1.05395 0.00873624 0)
(1.05439 0.00853455 0)
(1.0548 0.00834366 0)
(1.05518 0.00816173 0)
(1.05553 0.00798713 0)
(1.05585 0.00781841 0)
(1.05614 0.00765425 0)
(1.0564 0.00749341 0)
(1.05663 0.0073347 0)
(1.05683 0.00717693 0)
(1.057 0.00701886 0)
(1.05715 0.00685922 0)
(1.05728 0.00669649 0)
(1.05738 0.00652923 0)
(1.05746 0.00635539 0)
(1.05753 0.00617329 0)
(1.05758 0.00597989 0)
(1.05762 0.00577327 0)
(1.05766 0.00554865 0)
(1.05769 0.00530374 0)
(1.05772 0.00503109 0)
(1.05776 0.00472693 0)
(1.05782 0.00438107 0)
(1.0579 0.00398349 0)
(1.05801 0.00352511 0)
(1.05816 0.00297482 0)
(1.05835 0.00233748 0)
(1.05859 0.00152779 0)
(1.05889 0.000585752 0)
(1.05921 -0.000660641 0)
(1.0595 -0.00211697 0)
(1.05974 -0.00392492 0)
(1.00157 0.0165918 0)
(1.01979 0.0243535 0)
(1.03306 0.0192641 0)
(1.03735 0.0166081 0)
(1.03888 0.0157212 0)
(1.04064 0.014598 0)
(1.0424 0.0134684 0)
(1.04377 0.0126434 0)
(1.04486 0.0120218 0)
(1.0458 0.0114896 0)
(1.04665 0.0110201 0)
(1.04743 0.0106091 0)
(1.04814 0.0102471 0)
(1.0488 0.00992364 0)
(1.04941 0.00963111 0)
(1.04998 0.00936415 0)
(1.05053 0.00911863 0)
(1.05104 0.00889117 0)
(1.05153 0.00867893 0)
(1.052 0.0084795 0)
(1.05244 0.0082908 0)
(1.05287 0.00811103 0)
(1.05327 0.00793857 0)
(1.05366 0.00777198 0)
(1.05403 0.00760994 0)
(1.05438 0.00745121 0)
(1.05472 0.00729457 0)
(1.05504 0.00713885 0)
(1.05535 0.00698275 0)
(1.05565 0.00682501 0)
(1.05593 0.00666407 0)
(1.05621 0.00649844 0)
(1.05647 0.00632603 0)
(1.05673 0.00614507 0)
(1.05698 0.00595253 0)
(1.05723 0.00574626 0)
(1.05748 0.00552164 0)
(1.05773 0.00527584 0)
(1.05799 0.00500198 0)
(1.05826 0.00469514 0)
(1.05854 0.00434636 0)
(1.05885 0.00394385 0)
(1.05918 0.00347988 0)
(1.05953 0.00292285 0)
(1.05993 0.00227552 0)
(1.06036 0.0014613 0)
(1.06081 0.000505749 0)
(1.06127 -0.000728697 0)
(1.06169 -0.00218311 0)
(1.062 -0.00395676 0)
(1.00137 0.0151071 0)
(1.01788 0.0232164 0)
(1.03063 0.0188032 0)
(1.03509 0.0162098 0)
(1.03666 0.0154149 0)
(1.03839 0.0144139 0)
(1.04013 0.0133298 0)
(1.04151 0.0125165 0)
(1.04259 0.0119088 0)
(1.04352 0.0113906 0)
(1.04436 0.0109308 0)
(1.04512 0.0105265 0)
(1.04582 0.0101699 0)
(1.04647 0.00985091 0)
(1.04707 0.0095621 0)
(1.04763 0.00929821 0)
(1.04817 0.00905528 0)
(1.04867 0.00883002 0)
(1.04916 0.00861968 0)
(1.04962 0.00842189 0)
(1.05007 0.00823463 0)
(1.0505 0.00805613 0)
(1.05092 0.0078848 0)
(1.05132 0.00771921 0)
(1.05172 0.00755805 0)
(1.0521 0.00740008 0)
(1.05248 0.00724412 0)
(1.05285 0.00708895 0)
(1.05321 0.00693332 0)
(1.05357 0.00677592 0)
(1.05392 0.00661519 0)
(1.05427 0.00644962 0)
(1.05462 0.0062771 0)
(1.05497 0.00609577 0)
(1.05532 0.00590263 0)
(1.05568 0.00569531 0)
(1.05604 0.0054694 0)
(1.0564 0.00522155 0)
(1.05678 0.00494541 0)
(1.05717 0.00463513 0)
(1.05758 0.00428268 0)
(1.058 0.0038751 0)
(1.05845 0.00340533 0)
(1.05893 0.00284237 0)
(1.05944 0.00218614 0)
(1.05997 0.00136918 0)
(1.06051 0.000404547 0)
(1.06104 -0.000817087 0)
(1.06151 -0.00226214 0)
(1.06187 -0.00400322 0)
(1.0012 0.0137291 0)
(1.01611 0.0220822 0)
(1.02831 0.018343 0)
(1.03291 0.0158191 0)
(1.03454 0.0150989 0)
(1.03622 0.0142195 0)
(1.03796 0.0131874 0)
(1.03934 0.0123873 0)
(1.04041 0.0117932 0)
(1.04133 0.0112894 0)
(1.04216 0.01084 0)
(1.04291 0.0104428 0)
(1.0436 0.0100917 0)
(1.04423 0.00977736 0)
(1.04482 0.00949239 0)
(1.04538 0.00923166 0)
(1.0459 0.00899133 0)
(1.0464 0.00876823 0)
(1.04687 0.00855967 0)
(1.04733 0.00836336 0)
(1.04776 0.0081773 0)
(1.04819 0.00799975 0)
(1.0486 0.00782915 0)
(1.04901 0.00766408 0)
(1.0494 0.00750324 0)
(1.04979 0.00734543 0)
(1.05018 0.00718943 0)
(1.05056 0.00703407 0)
(1.05093 0.00687808 0)
(1.05131 0.00672016 0)
(1.05169 0.00655874 0)
(1.05207 0.00639229 0)
(1.05245 0.00621869 0)
(1.05283 0.00603602 0)
(1.05322 0.00584132 0)
(1.05362 0.00563202 0)
(1.05402 0.00540388 0)
(1.05444 0.00515316 0)
(1.05487 0.00487391 0)
(1.05531 0.00455959 0)
(1.05578 0.00420282 0)
(1.05626 0.00379001 0)
(1.05677 0.0033142 0)
(1.0573 0.00274578 0)
(1.05785 0.00208159 0)
(1.05842 0.00126294 0)
(1.059 0.000292799 0)
(1.05955 -0.000915735 0)
(1.06003 -0.00234651 0)
(1.06039 -0.00405595 0)
(1.00104 0.0124554 0)
(1.01447 0.020955 0)
(1.0261 0.01788 0)
(1.03082 0.0154366 0)
(1.03251 0.0147752 0)
(1.03415 0.0140144 0)
(1.03587 0.0130407 0)
(1.03725 0.0122558 0)
(1.03832 0.011675 0)
(1.03923 0.0111859 0)
(1.04005 0.0107476 0)
(1.04079 0.0103578 0)
(1.04147 0.0100124 0)
(1.0421 0.00970292 0)
(1.04267 0.00942194 0)
(1.04322 0.00916448 0)
(1.04373 0.00892684 0)
(1.04421 0.00870595 0)
(1.04468 0.0084992 0)
(1.04512 0.00830434 0)
(1.04555 0.00811944 0)
(1.04597 0.00794276 0)
(1.04637 0.00777276 0)
(1.04677 0.00760806 0)
(1.04716 0.00744735 0)
(1.04754 0.00728943 0)
(1.04792 0.00713311 0)
(1.0483 0.00697722 0)
(1.04868 0.0068205 0)
(1.04905 0.00666164 0)
(1.04943 0.0064991 0)
(1.04981 0.00633128 0)
(1.0502 0.00615612 0)
(1.05059 0.00597158 0)
(1.05099 0.00577477 0)
(1.0514 0.00556296 0)
(1.05182 0.00533206 0)
(1.05225 0.00507798 0)
(1.0527 0.00479512 0)
(1.05316 0.00447644 0)
(1.05364 0.00411495 0)
(1.05414 0.00369689 0)
(1.05466 0.00321499 0)
(1.05521 0.0026415 0)
(1.05577 0.00197034 0)
(1.05635 0.00115074 0)
(1.05692 0.000178168 0)
(1.05745 -0.00101715 0)
(1.05792 -0.00243033 0)
(1.05825 -0.00410823 0)
(1.0009 0.0112832 0)
(1.01296 0.0198394 0)
(1.024 0.0174111 0)
(1.02882 0.0150627 0)
(1.03057 0.0144459 0)
(1.03217 0.0137984 0)
(1.03387 0.0128892 0)
(1.03525 0.0121221 0)
(1.03633 0.0115541 0)
(1.03723 0.01108 0)
(1.03804 0.0106533 0)
(1.03877 0.0102714 0)
(1.03944 0.00993205 0)
(1.04005 0.00962752 0)
(1.04062 0.00935068 0)
(1.04115 0.00909662 0)
(1.04165 0.00886175 0)
(1.04213 0.00864314 0)
(1.04258 0.00843826 0)
(1.04302 0.00824491 0)
(1.04344 0.00806118 0)
(1.04384 0.00788537 0)
(1.04424 0.00771596 0)
(1.04462 0.00755158 0)
(1.045 0.00739093 0)
(1.04538 0.00723283 0)
(1.04575 0.00707609 0)
(1.04612 0.00691955 0)
(1.04649 0.00676195 0)
(1.04686 0.00660199 0)
(1.04724 0.00643812 0)
(1.04762 0.00626874 0)
(1.048 0.00609177 0)
(1.04839 0.00590513 0)
(1.04878 0.00570597 0)
(1.04919 0.00549141 0)
(1.04961 0.00525747 0)
(1.05004 0.00499984 0)
(1.05048 0.00471312 0)
(1.05094 0.00438999 0)
(1.05142 0.00402365 0)
(1.05192 0.00360047 0)
(1.05244 0.00311267 0)
(1.05297 0.00253458 0)
(1.05352 0.00185755 0)
(1.05408 0.00103776 0)
(1.05463 6.53775e-05 0)
(1.05513 -0.0011164 0)
(1.05556 -0.00250949 0)
(1.05585 -0.00415516 0)
(1.00078 0.010209 0)
(1.01158 0.0187397 0)
(1.02201 0.0169337 0)
(1.0269 0.0146977 0)
(1.02872 0.014113 0)
(1.03029 0.0135714 0)
(1.03195 0.0127321 0)
(1.03334 0.0119861 0)
(1.03442 0.0114307 0)
(1.03531 0.0109716 0)
(1.03611 0.0105571 0)
(1.03684 0.0101836 0)
(1.03749 0.00985046 0)
(1.0381 0.00955107 0)
(1.03866 0.00927853 0)
(1.03918 0.00902799 0)
(1.03967 0.00879601 0)
(1.04014 0.00857977 0)
(1.04058 0.00837682 0)
(1.04101 0.00818502 0)
(1.04142 0.0080025 0)
(1.04181 0.00782759 0)
(1.0422 0.00765879 0)
(1.04258 0.00749473 0)
(1.04295 0.00733414 0)
(1.04332 0.00717583 0)
(1.04368 0.00701863 0)
(1.04404 0.0068614 0)
(1.0444 0.00670287 0)
(1.04477 0.00654175 0)
(1.04513 0.00637648 0)
(1.0455 0.00620545 0)
(1.04588 0.0060266 0)
(1.04626 0.00583777 0)
(1.04665 0.00563616 0)
(1.04705 0.00541876 0)
(1.04746 0.0051817 0)
(1.04788 0.00492048 0)
(1.04831 0.00462985 0)
(1.04877 0.00430235 0)
(1.04923 0.00393121 0)
(1.04972 0.00350318 0)
(1.05022 0.00300987 0)
(1.05074 0.00242774 0)
(1.05127 0.00174606 0)
(1.0518 0.000926932 0)
(1.05231 -4.29741e-05 0)
(1.05277 -0.00121051 0)
(1.05315 -0.0025814 0)
(1.05339 -0.00419359 0)
(1.00067 0.00922869 0)
(1.01032 0.0176603 0)
(1.02014 0.0164455 0)
(1.02506 0.0143412 0)
(1.02697 0.0137785 0)
(1.0285 0.0133337 0)
(1.03013 0.0125688 0)
(1.03152 0.0118476 0)
(1.0326 0.0113047 0)
(1.03349 0.0108604 0)
(1.03428 0.0104589 0)
(1.03499 0.0100942 0)
(1.03564 0.00976755 0)
(1.03624 0.00947348 0)
(1.03679 0.0092054 0)
(1.0373 0.00895852 0)
(1.03778 0.00872954 0)
(1.03824 0.00851575 0)
(1.03868 0.0083148 0)
(1.03909 0.00812461 0)
(1.0395 0.00794335 0)
(1.03988 0.00776937 0)
(1.04026 0.0076012 0)
(1.04063 0.00743748 0)
(1.04099 0.00727695 0)
(1.04135 0.00711844 0)
(1.04171 0.00696078 0)
(1.04206 0.00680284 0)
(1.04241 0.00664337 0)
(1.04277 0.00648106 0)
(1.04313 0.00631438 0)
(1.04349 0.00614168 0)
(1.04386 0.00596092 0)
(1.04423 0.00576988 0)
(1.04461 0.0055658 0)
(1.045 0.00534557 0)
(1.0454 0.00510539 0)
(1.04581 0.00484063 0)
(1.04623 0.00454614 0)
(1.04667 0.00421443 0)
(1.04713 0.00383869 0)
(1.04759 0.00340617 0)
(1.04808 0.00290789 0)
(1.04857 0.00232235 0)
(1.04908 0.00163734 0)
(1.04957 0.000819847 0)
(1.05005 -0.000145345 0)
(1.05046 -0.00129774 0)
(1.0508 -0.00264459 0)
(1.05098 -0.00422158 0)
(1.00058 0.00833767 0)
(1.00917 0.0166057 0)
(1.01838 0.0159449 0)
(1.02332 0.0139926 0)
(1.0253 0.0134444 0)
(1.0268 0.013086 0)
(1.0284 0.0123987 0)
(1.02978 0.0117063 0)
(1.03086 0.0111761 0)
(1.03175 0.0107466 0)
(1.03253 0.0103584 0)
(1.03324 0.0100031 0)
(1.03388 0.00968323 0)
(1.03447 0.00939466 0)
(1.03501 0.00913119 0)
(1.03551 0.00888813 0)
(1.03599 0.00866226 0)
(1.03644 0.00845102 0)
(1.03687 0.00825214 0)
(1.03727 0.00806362 0)
(1.03767 0.00788366 0)
(1.03805 0.00771066 0)
(1.03842 0.00754314 0)
(1.03878 0.00737978 0)
(1.03913 0.00721933 0)
(1.03948 0.00706062 0)
(1.03983 0.00690251 0)
(1.04018 0.00674385 0)
(1.04052 0.00658343 0)
(1.04087 0.00641994 0)
(1.04122 0.00625184 0)
(1.04157 0.00607747 0)
(1.04193 0.0058948 0)
(1.04229 0.00570157 0)
(1.04267 0.00549503 0)
(1.04305 0.00527201 0)
(1.04343 0.00502876 0)
(1.04383 0.00476057 0)
(1.04425 0.00446234 0)
(1.04467 0.00412664 0)
(1.04511 0.00374658 0)
(1.04556 0.00330997 0)
(1.04603 0.00280738 0)
(1.0465 0.00221914 0)
(1.04697 0.00153213 0)
(1.04743 0.000717359 0)
(1.04787 -0.00024093 0)
(1.04824 -0.00137706 0)
(1.04852 -0.00269815 0)
(1.04865 -0.0042379 0)
(1.0005 0.00753091 0)
(1.00814 0.0155799 0)
(1.01674 0.0154307 0)
(1.02165 0.0136509 0)
(1.02371 0.0131125 0)
(1.02519 0.0128289 0)
(1.02675 0.0122214 0)
(1.02813 0.011562 0)
(1.02921 0.0110452 0)