/*--------------------------------*- C++ -*----------------------------------*\
  =========                 |
  \\      /  F ield         | OpenFOAM: The Open Source CFD Toolbox
   \\    /   O peration     | Website:  https://openfoam.org
    \\  /    A nd           | Version:  7
     \\/     M anipulation  |
\*---------------------------------------------------------------------------*/
FoamFile
{
    version     2.0;
    format      ascii;
    class       volVectorField;
    location    "0.46";
    object      wallShearStress;
}
// * * * * * * * * * * * * * * * * * * * * * * * * * * * * * * * * * * * * * //

dimensions      [0 2 -2 0 0 0 0];

internalField   uniform (0 0 0);

boundaryField
{
    velocityInlet
    {
        type            calculated;
        value           uniform (0 0 0);
    }
    pressureOutlet
    {
        type            calculated;
        value           uniform (0 0 0);
    }
    fixedWalls
    {
        type            calculated;
        value           nonuniform List<vector> 
100
(
(-0.0223443 -0.00474733 0)
(-0.0114149 -0.00117307 0)
(-0.0082908 -0.000203712 0)
(-0.00727281 -3.27015e-05 0)
(-0.00647244 -4.79686e-05 0)
(-0.00577437 -4.82412e-05 0)
(-0.00517927 -4.03154e-05 0)
(-0.00468587 -3.04212e-05 0)
(-0.00432429 -1.61362e-05 0)
(-0.00411687 5.76546e-07 0)
(-0.00404866 1.45799e-05 0)
(-0.00407679 2.49261e-05 0)
(-0.00410011 1.32123e-05 0)
(-0.00399334 -2.04951e-05 0)
(-0.00401806 1.29395e-05 0)
(-0.00497149 0.000186053 0)
(-0.00704429 0.00034919 0)
(-0.00890764 0.000320397 0)
(-0.00831303 -0.000154334 0)
(-0.0031925 -0.000999283 0)
(0.00463098 -0.00121382 0)
(0.0101173 -0.00082241 0)
(0.01118 -9.64921e-05 0)
(0.00820023 0.000465685 0)
(0.00336658 0.000615101 0)
(-0.00109867 0.000495491 0)
(-0.00406562 0.000282428 0)
(-0.00550957 0.000118523 0)
(-0.00594104 3.04621e-05 0)
(-0.00586869 -1.01808e-05 0)
(-0.00560722 -2.31092e-05 0)
(-0.0053013 -2.403e-05 0)
(-0.00498667 -2.5502e-05 0)
(-0.00463485 -3.40344e-05 0)
(-0.00421809 -4.65332e-05 0)
(-0.00376653 -5.34239e-05 0)
(-0.00338347 -4.4515e-05 0)
(-0.00322629 -1.51246e-05 0)
(-0.00342998 3.81048e-05 0)
(-0.0039402 7.85802e-05 0)
(-0.00443007 7.64276e-05 0)
(-0.00442803 8.16403e-06 0)
(-0.00359362 -0.000107245 0)
(-0.00206311 -0.000192678 0)
(-0.000467723 -0.000188953 0)
(0.000530562 -0.000108781 0)
(0.000684303 -1.00086e-05 0)
(0.00021981 5.09347e-05 0)
(-0.000486015 7.20761e-05 0)
(-0.00116323 6.60991e-05 0)
(-0.00169442 4.97523e-05 0)
(-0.00206441 3.39855e-05 0)
(-0.00230153 2.18004e-05 0)
(-0.0024407 1.30586e-05 0)
(-0.00251049 6.89714e-06 0)
(-0.00253342 2.98441e-06 0)
(-0.00252886 5.7047e-07 0)
(-0.00251517 7.022e-08 0)
(-0.00250995 1.25159e-06 0)
(-0.00252666 3.89364e-06 0)
(-0.0025709 7.13158e-06 0)
(-0.00263632 9.69414e-06 0)
(-0.00270062 9.89074e-06 0)
(-0.00272621 6.62419e-06 0)
(-0.00267084 -1.95908e-06 0)
(-0.00250488 -1.32578e-05 0)
(-0.00222556 -2.45687e-05 0)
(-0.00185688 -3.3567e-05 0)
(-0.00143873 -3.91183e-05 0)
(-0.00101966 -4.03298e-05 0)
(-0.000658978 -3.53774e-05 0)
(-0.000423772 -2.30346e-05 0)
(-0.000372377 -6.01502e-06 0)
(-0.000524034 1.29038e-05 0)
(-0.000840336 2.76962e-05 0)
(-0.00124383 3.50325e-05 0)
(-0.00165432 3.50083e-05 0)
(-0.0020141 3.03689e-05 0)
(-0.00229262 2.37085e-05 0)
(-0.00247508 1.59243e-05 0)
(-0.00255011 7.81586e-06 0)
(-0.00250572 -2.7847e-06 0)
(-0.00234241 -1.34488e-05 0)
(-0.00208852 -2.13889e-05 0)
(-0.00180668 -2.36223e-05 0)
(-0.00156847 -1.9171e-05 0)
(-0.00143107 -1.03496e-05 0)
(-0.00140697 -1.2719e-06 0)
(-0.00148067 6.24959e-06 0)
(-0.00160609 1.04083e-05 0)
(-0.00175036 1.14064e-05 0)
(-0.00186655 9.45041e-06 0)
(-0.00193981 5.62402e-06 0)
(-0.00194275 4.63528e-07 0)
(-0.00187643 -4.94838e-06 0)
(-0.00176393 -9.40271e-06 0)
(-0.00159422 -1.2145e-05 0)
(-0.00148118 -1.08365e-05 0)
(-0.0013152 -1.02025e-05 0)
(-0.0013164 -1.32765e-06 0)
)
;
    }
    bottomWall
    {
        type            calculated;
        value           nonuniform List<vector> 
800
(
(-0.0353488 0.00214398 0)
(-0.0160263 0.000524843 0)
(-0.0106072 0.000100725 0)
(-0.00845519 3.52667e-05 0)
(-0.00748528 1.98661e-05 0)
(-0.0068515 1.61261e-05 0)
(-0.00634385 1.336e-05 0)
(-0.00593258 1.09033e-05 0)
(-0.00559769 9.08189e-06 0)
(-0.00531872 7.76583e-06 0)
(-0.0050811 6.76968e-06 0)
(-0.00487536 5.98301e-06 0)
(-0.00469504 5.34563e-06 0)
(-0.00453541 4.82051e-06 0)
(-0.00439286 4.38161e-06 0)
(-0.00426464 4.01011e-06 0)
(-0.00414857 3.69231e-06 0)
(-0.00404289 3.41785e-06 0)
(-0.00394619 3.17878e-06 0)
(-0.00385731 2.96895e-06 0)
(-0.0037753 2.78344e-06 0)
(-0.00369935 2.6186e-06 0)
(-0.00362878 2.47136e-06 0)
(-0.00356301 2.33903e-06 0)
(-0.00350154 2.21949e-06 0)
(-0.00344397 2.11126e-06 0)
(-0.0033899 2.01291e-06 0)
(-0.00333901 1.92294e-06 0)
(-0.00329104 1.84057e-06 0)
(-0.00324572 1.7648e-06 0)
(-0.00320284 1.69494e-06 0)
(-0.0031622 1.63045e-06 0)
(-0.00312362 1.57071e-06 0)
(-0.00308695 1.51518e-06 0)
(-0.00305205 1.4635e-06 0)
(-0.00301879 1.41533e-06 0)
(-0.00298706 1.3703e-06 0)
(-0.00295675 1.32814e-06 0)
(-0.00292777 1.28858e-06 0)
(-0.00290003 1.25143e-06 0)
(-0.00287346 1.21643e-06 0)
(-0.00284798 1.18346e-06 0)
(-0.00282352 1.15231e-06 0)
(-0.00280004 1.12284e-06 0)
(-0.00277747 1.09508e-06 0)
(-0.00275576 1.06857e-06 0)
(-0.00273485 1.04378e-06 0)
(-0.00271473 1.01945e-06 0)
(-0.00269532 9.97664e-07 0)
(-0.00267662 9.74255e-07 0)
(-0.00266098 9.55069e-07 0)
(-0.00264807 9.44203e-07 0)
(-0.00263532 9.30189e-07 0)
(-0.00262277 9.15322e-07 0)
(-0.00261041 9.0145e-07 0)
(-0.00259823 8.88151e-07 0)
(-0.00258624 8.75233e-07 0)
(-0.00257441 8.62716e-07 0)
(-0.00256275 8.50292e-07 0)
(-0.00255127 8.37954e-07 0)
(-0.00253995 8.26196e-07 0)
(-0.00252878 8.14845e-07 0)
(-0.00251777 8.034e-07 0)
(-0.00250692 7.9236e-07 0)
(-0.0024962 7.81553e-07 0)
(-0.00248564 7.7098e-07 0)
(-0.00247522 7.60636e-07 0)
(-0.00246494 7.50354e-07 0)
(-0.00245479 7.40465e-07 0)
(-0.00244478 7.30633e-07 0)
(-0.00243491 7.21191e-07 0)
(-0.00242515 7.11805e-07 0)
(-0.00241553 7.02471e-07 0)
(-0.00240603 6.93689e-07 0)
(-0.00239664 6.84792e-07 0)
(-0.00238739 6.76111e-07 0)
(-0.00237824 6.67644e-07 0)
(-0.00236921 6.59224e-07 0)
(-0.00236029 6.51183e-07 0)
(-0.00235148 6.43186e-07 0)
(-0.00234278 6.35232e-07 0)
(-0.00233419 6.27486e-07 0)
(-0.00232569 6.20114e-07 0)
(-0.0023173 6.12616e-07 0)
(-0.00230901 6.05155e-07 0)
(-0.00230082 5.98065e-07 0)
(-0.00229273 5.91013e-07 0)
(-0.00228473 5.84163e-07 0)
(-0.00227682 5.77348e-07 0)
(-0.002269 5.70567e-07 0)
(-0.00226128 5.64153e-07 0)
(-0.00225363 5.57606e-07 0)
(-0.00224609 5.51257e-07 0)
(-0.00223862 5.45107e-07 0)
(-0.00223124 5.3899e-07 0)
(-0.00222393 5.32901e-07 0)
(-0.00221672 5.2701e-07 0)
(-0.00220957 5.21316e-07 0)
(-0.00220251 5.15483e-07 0)
(-0.00219553 5.09846e-07 0)
(-0.00218862 5.04404e-07 0)
(-0.00218178 4.98989e-07 0)
(-0.00217502 4.93435e-07 0)
(-0.00216834 4.88239e-07 0)
(-0.00216172 4.83236e-07 0)
(-0.00215517 4.78091e-07 0)
(-0.00214869 4.73137e-07 0)
(-0.00214227 4.68206e-07 0)
(-0.00213592 4.63298e-07 0)
(-0.00212964 4.58579e-07 0)
(-0.00212342 4.53715e-07 0)
(-0.00211728 4.49203e-07 0)
(-0.00211118 4.44712e-07 0)
(-0.00210515 4.40073e-07 0)
(-0.00209918 4.35787e-07 0)
(-0.00209327 4.31352e-07 0)
(-0.00208742 4.26936e-07 0)
(-0.00208163 4.22869e-07 0)
(-0.00207589 4.18653e-07 0)
(-0.00207022 4.14453e-07 0)
(-0.00206459 4.10437e-07 0)
(-0.00205902 4.06435e-07 0)
(-0.00205351 4.0245e-07 0)
(-0.00204805 3.98648e-07 0)
(-0.00204264 3.9486e-07 0)
(-0.00203728 3.90922e-07 0)
(-0.00203197 3.87165e-07 0)
(-0.00202672 3.83423e-07 0)
(-0.00202152 3.79863e-07 0)
(-0.00201636 3.76316e-07 0)
(-0.00201125 3.72785e-07 0)
(-0.00200619 3.69434e-07 0)
(-0.00200117 3.65931e-07 0)
(-0.0019962 3.6244e-07 0)
(-0.00199128 3.59131e-07 0)
(-0.0019864 3.55834e-07 0)
(-0.00198157 3.52554e-07 0)
(-0.00197678 3.49449e-07 0)
(-0.00197203 3.46365e-07 0)
(-0.00196732 3.43117e-07 0)
(-0.00196266 3.40065e-07 0)
(-0.00195804 3.37003e-07 0)
(-0.00195346 3.33989e-07 0)
(-0.00194892 3.31103e-07 0)
(-0.00194442 3.28305e-07 0)
(-0.00193996 3.25412e-07 0)
(-0.00193554 3.2268e-07 0)
(-0.00193115 3.19757e-07 0)
(-0.0019268 3.17089e-07 0)
(-0.00192249 3.14092e-07 0)
(-0.00191888 3.11568e-07 0)
(-0.00191592 3.10128e-07 0)
(-0.00191297 3.08327e-07 0)
(-0.00191001 3.06666e-07 0)
(-0.00190704 3.04824e-07 0)
(-0.00190407 3.02782e-07 0)
(-0.0019011 3.00992e-07 0)
(-0.00189812 2.99437e-07 0)
(-0.00189514 2.97434e-07 0)
(-0.00189217 2.95667e-07 0)
(-0.00188918 2.93913e-07 0)
(-0.0018862 2.92165e-07 0)
(-0.0018832 2.90431e-07 0)
(-0.00188022 2.88479e-07 0)
(-0.00187722 2.86979e-07 0)
(-0.00187422 2.85268e-07 0)
(-0.00187122 2.8335e-07 0)
(-0.00186822 2.81656e-07 0)
(-0.00186521 2.79972e-07 0)
(-0.00186221 2.78085e-07 0)
(-0.0018592 2.76417e-07 0)
(-0.00185618 2.74968e-07 0)
(-0.00185316 2.73113e-07 0)
(-0.00185015 2.71264e-07 0)
(-0.00184713 2.69635e-07 0)
(-0.00184411 2.6801e-07 0)
(-0.00184109 2.66396e-07 0)
(-0.00183806 2.64592e-07 0)
(-0.00183503 2.62994e-07 0)
(-0.001832 2.61408e-07 0)
(-0.00182897 2.59635e-07 0)
(-0.00182594 2.58066e-07 0)
(-0.0018229 2.56508e-07 0)
(-0.00181986 2.54766e-07 0)
(-0.00181682 2.53225e-07 0)
(-0.00181377 2.51695e-07 0)
(-0.00181073 2.49987e-07 0)
(-0.00180768 2.48477e-07 0)
(-0.00180463 2.46976e-07 0)
(-0.00180158 2.45301e-07 0)
(-0.00179853 2.43638e-07 0)
(-0.00179548 2.42167e-07 0)
(-0.00179242 2.40707e-07 0)
(-0.00178936 2.39255e-07 0)
(-0.00178629 2.37815e-07 0)
(-0.00178323 2.36208e-07 0)
(-0.00178017 2.34612e-07 0)
(-0.0017771 2.33203e-07 0)
(-0.00177403 2.31974e-07 0)
(-0.00177095 2.30415e-07 0)
(-0.00176788 2.28862e-07 0)
(-0.0017648 2.27662e-07 0)
(-0.00176172 2.26302e-07 0)
(-0.00175864 2.24785e-07 0)
(-0.00175555 2.23282e-07 0)
(-0.00175247 2.22119e-07 0)
(-0.00174937 2.20801e-07 0)
(-0.00174628 2.19334e-07 0)
(-0.00174319 2.18196e-07 0)
(-0.00174008 2.16911e-07 0)
(-0.00173698 2.15478e-07 0)
(-0.00173388 2.14371e-07 0)
(-0.00173076 2.13121e-07 0)
(-0.00172765 2.1188e-07 0)
(-0.00172453 2.10802e-07 0)
(-0.00172141 2.09434e-07 0)
(-0.00171829 2.08222e-07 0)
(-0.00171516 2.07181e-07 0)
(-0.00171202 2.06146e-07 0)
(-0.00170888 2.05123e-07 0)
(-0.00170574 2.03959e-07 0)
(-0.00170259 2.02812e-07 0)
(-0.00169943 2.01813e-07 0)
(-0.00169627 2.00844e-07 0)
(-0.00169311 1.9985e-07 0)
(-0.00168993 1.9892e-07 0)
(-0.00168676 1.97921e-07 0)
(-0.00168357 1.96909e-07 0)
(-0.00168038 1.96009e-07 0)
(-0.00167718 1.95264e-07 0)
(-0.00167398 1.94214e-07 0)
(-0.00167076 1.93763e-07 0)
(-0.00166754 1.9244e-07 0)
(-0.00166429 1.92543e-07 0)
(-0.00166108 1.90357e-07 0)
(-0.0016578 1.91787e-07 0)
(-0.00165458 1.8802e-07 0)
(-0.00165123 1.92214e-07 0)
(-0.00164807 1.84259e-07 0)
(-0.00164459 1.95067e-07 0)
(-0.00164156 1.77212e-07 0)
(-0.00163782 2.02971e-07 0)
(-0.00163509 1.63664e-07 0)
(-0.00163087 2.21112e-07 0)
(-0.00162871 1.36629e-07 0)
(-0.00162364 2.5776e-07 0)
(-0.0016225 8.50562e-08 0)
(-0.00161613 3.22753e-07 0)
(-0.00161644 3.41939e-09 0)
(-0.00160837 3.55933e-07 0)
(-0.0353489 -0.00214396 0)
(-0.0160272 -0.000524803 0)
(-0.0106093 -0.000100681 0)
(-0.00845838 -3.52255e-05 0)
(-0.00748968 -1.98251e-05 0)
(-0.00685699 -1.60852e-05 0)
(-0.00635051 -1.33181e-05 0)
(-0.00594039 -1.08608e-05 0)
(-0.00560666 -9.0377e-06 0)
(-0.0053289 -7.71965e-06 0)
(-0.00509252 -6.72089e-06 0)
(-0.00488809 -5.93094e-06 0)
(-0.00470916 -5.28992e-06 0)
(-0.00455099 -4.7606e-06 0)
(-0.00441001 -4.31693e-06 0)
(-0.00428347 -3.94019e-06 0)
(-0.00416917 -3.61665e-06 0)
(-0.0040654 -3.33566e-06 0)
(-0.00397075 -3.08917e-06 0)
(-0.00388409 -2.87094e-06 0)
(-0.00380447 -2.67605e-06 0)
(-0.00373111 -2.50041e-06 0)
(-0.00366337 -2.34093e-06 0)
(-0.00360067 -2.19473e-06 0)
(-0.00354258 -2.05939e-06 0)
(-0.0034887 -1.93326e-06 0)
(-0.00343868 -1.81447e-06 0)
(-0.00339226 -1.70135e-06 0)
(-0.0033492 -1.59237e-06 0)
(-0.00330932 -1.48627e-06 0)
(-0.00327246 -1.38134e-06 0)
(-0.00323851 -1.27649e-06 0)
(-0.00320739 -1.16962e-06 0)
(-0.00317905 -1.05989e-06 0)
(-0.00315348 -9.4405e-07 0)
(-0.00313074 -8.21276e-07 0)
(-0.00311082 -6.8727e-07 0)
(-0.00309402 -5.39339e-07 0)
(-0.00308017 -3.75437e-07 0)
(-0.00307022 -1.81226e-07 0)
(-0.00306321 2.74438e-08 0)
(-0.00306192 3.07029e-07 0)
(-0.00306291 5.9191e-07 0)
(-0.00307391 1.04134e-06 0)
(-0.00308448 1.3398e-06 0)
(-0.00311458 2.23495e-06 0)
(-0.003138 2.38276e-06 0)
(-0.00319581 4.85841e-06 0)
(-0.00326463 -4.20461e-06 0)
(-0.00304778 0.000232759 0)
(-3.59239e-05 4.94872e-05 0)
(4.47001e-05 2.70728e-05 0)
(9.62301e-05 -0.00011307 0)
(0.000115957 -0.000297883 0)
(8.16959e-05 -0.000486003 0)
(-2.75751e-05 -0.000602402 0)
(-9.953e-05 -0.000530556 0)
(-2.59711e-05 -0.000370785 0)
(0.000113127 -0.000399533 0)
(0.000197825 -0.000579599 0)
(4.67321e-05 -0.000670094 0)
(-0.000331651 -0.000313366 0)
(-0.00048795 0.000297583 0)
(-0.00043015 0.000798549 0)
(-0.000326193 0.0011631 0)
(-0.000211068 0.00139106 0)
(-0.000100257 0.00149803 0)
(-3.38538e-06 0.00149378 0)
(7.42243e-05 0.00140175 0)
(0.000132943 0.00124174 0)
(0.000172858 0.00103507 0)
(0.000196126 0.000801454 0)
(0.000206475 0.000555868 0)
(0.000207464 0.000309269 0)
(0.000202132 6.88393e-05 0)
(0.00019338 -0.000160535 0)
(0.000182209 -0.000376755 0)
(0.000169856 -0.00057897 0)
(0.000156897 -0.00076665 0)
(0.000143742 -0.000939802 0)
(0.000130604 -0.00109866 0)
(0.000117592 -0.00124359 0)
(0.000104788 -0.00137504 0)
(9.22598e-05 -0.00149349 0)
(8.00583e-05 -0.0015995 0)
(6.82039e-05 -0.00169365 0)
(5.66964e-05 -0.00177648 0)
(4.55181e-05 -0.00184855 0)
(3.46219e-05 -0.00191036 0)
(2.39602e-05 -0.00196235 0)
(1.34628e-05 -0.00200494 0)
(3.06132e-06 -0.00203842 0)
(-7.34582e-06 -0.00206312 0)
(-1.78516e-05 -0.00207916 0)
(-2.86329e-05 -0.00208677 0)
(-3.99284e-05 -0.00208584 0)
(-5.17208e-05 -0.00207615 0)
(-6.38964e-05 -0.00205777 0)
(-7.64299e-05 -0.00203067 0)
(-8.92911e-05 -0.00199477 0)
(-0.000102474 -0.00195004 0)
(-0.000115981 -0.00189645 0)
(-0.000129765 -0.00183394 0)
(-0.000143747 -0.00176251 0)
(-0.000157785 -0.00168214 0)
(-0.000171689 -0.00159294 0)
(-0.000185184 -0.00149506 0)
(-0.000197863 -0.00138874 0)
(-0.0002092 -0.00127436 0)
(-0.00021857 -0.00115254 0)
(-0.000225267 -0.00102413 0)
(-0.000228577 -0.00089069 0)
(-0.000227559 -0.000753307 0)
(-0.000221349 -0.000613635 0)
(-0.000208865 -0.000473511 0)
(-0.000188359 -0.000335321 0)
(-0.000158043 -0.000203098 0)
(-0.000119718 -8.29036e-05 0)
(-8.04541e-05 2.36603e-05 0)
(-3.95354e-05 0.000122315 0)
(1.47013e-05 0.00020769 0)
(8.09554e-05 0.00026603 0)
(0.000145598 0.000294814 0)
(0.00019404 0.00029686 0)
(0.000214701 0.000277804 0)
(0.000202461 0.000248043 0)
(0.000160957 0.000218465 0)
(9.82679e-05 0.00019802 0)
(3.11909e-05 0.000195249 0)
(-1.49824e-05 0.000206858 0)
(-2.56883e-05 0.000211345 0)
(-1.74859e-05 0.0001912 0)
(-1.3834e-05 0.000155933 0)
(-1.64552e-05 0.00012606 0)
(-1.39467e-05 0.000108908 0)
(-2.35711e-06 9.85547e-05 0)
(1.19585e-05 8.81983e-05 0)
(1.90406e-05 7.76763e-05 0)
(1.44252e-05 7.23112e-05 0)
(8.81865e-07 7.6042e-05 0)
(-1.60448e-05 8.82775e-05 0)
(-3.21516e-05 0.000106596 0)
(-4.43135e-05 0.000128434 0)
(-5.04523e-05 0.000151393 0)
(-4.89129e-05 0.000172903 0)
(-3.87182e-05 0.000189663 0)
(-2.01028e-05 0.000198065 0)
(5.33144e-06 0.000194706 0)
(3.46384e-05 0.000177053 0)
(6.38665e-05 0.000143872 0)
(8.82175e-05 9.60631e-05 0)
(0.000103232 3.74249e-05 0)
(0.000106122 -2.58217e-05 0)
(9.66187e-05 -8.6034e-05 0)
(7.81273e-05 -0.000137368 0)
(5.44507e-05 -0.000176844 0)
(2.89999e-05 -0.000202939 0)
(4.57545e-06 -0.00021592 0)
(-1.67442e-05 -0.000216963 0)
(-3.34754e-05 -0.000207867 0)
(-4.47006e-05 -0.000191245 0)
(-4.95302e-05 -0.000169208 0)
(-4.65953e-05 -0.000144418 0)
(-3.39693e-05 -0.00011956 0)
(-1.20145e-05 -9.91579e-05 0)
(1.53533e-05 -8.57047e-05 0)
(4.40906e-05 -7.42465e-05 0)
(7.27127e-05 -6.21642e-05 0)
(9.46019e-05 -5.67709e-05 0)
(8.86557e-05 -6.53392e-05 0)
(3.05209e-05 -7.49601e-05 0)
(-8.1792e-05 -5.11885e-05 0)
(-0.000214502 3.34511e-05 0)
(-0.000322019 0.000170258 0)
(-0.000381898 0.000324928 0)
(-0.000399896 0.000469633 0)
(-0.000391507 0.000595369 0)
(-0.000368756 0.000703505 0)
(-0.000338037 0.000796931 0)
(-0.000302257 0.000877183 0)
(-0.000262863 0.000944614 0)
(-0.000220846 0.000999108 0)
(-0.000177134 0.00104052 0)
(-0.000132661 0.00106887 0)
(-8.82148e-05 0.00108446 0)
(-4.42293e-05 0.00108786 0)
(-9.83886e-07 0.00107946 0)
(4.09914e-05 0.0010598 0)
(8.16326e-05 0.00102962 0)
(0.000120949 0.000989301 0)
(0.000158974 0.000940909 0)
(0.000195547 0.000884048 0)
(0.000230625 0.000819204 0)
(0.000264043 0.000746773 0)
(0.000295595 0.000667134 0)
(0.000324992 0.000580607 0)
(0.000351827 0.000487566 0)
(0.000375561 0.000388556 0)
(0.000395542 0.000284475 0)
(0.000411102 0.000176706 0)
(0.0004219 6.71085e-05 0)
(0.000427841 -4.26321e-05 0)
(0.000431682 -0.000151933 0)
(0.00043382 -0.000261184 0)
(0.000432021 -0.000368832 0)
(0.000426564 -0.000474101 0)
(0.000417619 -0.000576416 0)
(0.000405344 -0.000675176 0)
(0.000389917 -0.000769751 0)
(0.000371575 -0.000859628 0)
(0.000350522 -0.000944404 0)
(0.000326952 -0.00102368 0)
(0.000301099 -0.00109711 0)
(0.000273195 -0.00116444 0)
(0.000243457 -0.00122546 0)
(0.000212092 -0.00128004 0)
(0.000179272 -0.0013281 0)
(0.000145176 -0.00136958 0)
(0.000109946 -0.00140449 0)
(7.37061e-05 -0.00143281 0)
(3.65863e-05 -0.00145459 0)
(-1.24432e-06 -0.00146986 0)
(-3.96646e-05 -0.00147871 0)
(-7.91501e-05 -0.00148109 0)
(-0.000119508 -0.00147642 0)
(-0.00015993 -0.00146488 0)
(-0.000200325 -0.00144746 0)
(-0.000240695 -0.00142589 0)
(-0.000280166 -0.00139693 0)
(-0.00031836 -0.00136087 0)
(-0.000354808 -0.00131795 0)
(-0.00038897 -0.00126839 0)
(-0.000420258 -0.00121253 0)
(-0.000448103 -0.00115072 0)
(-0.000471863 -0.00108339 0)
(-0.000490861 -0.00101109 0)
(-0.000504421 -0.000934408 0)
(-0.000511848 -0.000854105 0)
(-0.00051252 -0.000771051 0)
(-0.000505912 -0.000686146 0)
(-0.000491608 -0.000600431 0)
(-0.000469626 -0.000515724 0)
(-0.000440394 -0.0004351 0)
(-0.000404228 -0.000363205 0)
(-0.000365168 -0.000311264 0)
(-0.000333107 -0.000299728 0)
(-0.000330036 -0.000361765 0)
(-0.000399506 -0.000541161 0)
(-0.000601659 -0.000869234 0)
(-0.000939164 -0.00130126 0)
(7.63724e-06 6.12326e-05 0)
(-3.488e-05 4.3045e-05 0)
(-1.69967e-05 -8.94045e-06 0)
(5.25193e-05 -6.83608e-05 0)
(0.000156317 -0.000119192 0)
(0.000283952 -0.00016079 0)
(0.000427912 -0.000191053 0)
(0.000580417 -0.000200639 0)
(0.000720608 -0.000180721 0)
(0.000822329 -0.000129719 0)
(0.000865897 -5.5996e-05 0)
(0.000841381 2.46131e-05 0)
(0.000755293 9.58852e-05 0)
(0.000619238 0.000150834 0)
(0.000448871 0.000183171 0)
(0.000267223 0.00018893 0)
(9.69441e-05 0.000171224 0)
(-4.7229e-05 0.000138452 0)
(-0.00015382 9.34926e-05 0)
(-0.000215028 4.10327e-05 0)
(-0.000230346 -5.32913e-06 0)
(-0.000208816 -2.90775e-05 0)
(-0.000176375 -2.10567e-05 0)
(-0.000160826 7.1295e-06 0)
(-0.000174611 3.97937e-05 0)
(-0.000217143 6.55227e-05 0)
(-0.00028229 7.44811e-05 0)
(-0.000352212 6.36586e-05 0)
(-0.00041751 5.79789e-05 0)
(-0.000483584 6.80902e-05 0)
(-0.000548134 8.48552e-05 0)
(-0.000604423 0.000111279 0)
(-0.000657468 0.000143593 0)
(-0.000716933 0.000165528 0)
(-0.000786104 0.000166406 0)
(-0.000860226 0.000146296 0)
(-0.000932309 0.000111641 0)
(-0.000996273 7.227e-05 0)
(-0.00105108 3.89822e-05 0)
(-0.00110094 1.74449e-05 0)
(-0.00114883 5.83409e-06 0)
(-0.00119323 -3.5672e-06 0)
(-0.00122765 -1.87432e-05 0)
(-0.00124291 -4.57598e-05 0)
(-0.00122772 -8.63952e-05 0)
(-0.00118589 -0.000141663 0)
(-0.00109471 -0.000207473 0)
(-0.000946207 -0.000278963 0)
(-0.000733297 -0.000349012 0)
(-0.000452902 -0.000406029 0)
(-0.000119475 -0.000434835 0)
(0.000233527 -0.000436712 0)
(0.000589379 -0.000401598 0)
(0.00091816 -0.000324168 0)
(0.0011754 -0.000223247 0)
(0.00132614 -0.000136884 0)
(0.00139762 -9.05958e-05 0)
(0.00143361 -6.74544e-05 0)
(0.0014565 -3.5497e-05 0)
(0.00144214 1.41443e-05 0)
(0.00138727 5.99111e-05 0)
(0.00131266 8.56212e-05 0)
(0.00123413 9.54903e-05 0)
(0.00115554 9.96345e-05 0)
(0.0010745 0.000103547 0)
(0.000988051 0.000108659 0)
(0.000893513 0.000116174 0)
(0.000787629 0.00012768 0)
(0.000667002 0.000143898 0)
(0.000529358 0.000163653 0)
(0.00037468 0.000183999 0)
(0.000205468 0.000201435 0)
(2.61341e-05 0.000213224 0)
(-0.000158015 0.000217763 0)
(-0.000341086 0.000214231 0)
(-0.000516919 0.000202696 0)
(-0.000678823 0.000183244 0)
(-0.000820086 0.000156359 0)
(-0.000934875 0.00012351 0)
(-0.00101919 8.63531e-05 0)
(-0.00107099 4.64806e-05 0)
(-0.00109089 2.2954e-06 0)
(-0.00107547 -4.57237e-05 0)
(-0.00102253 -9.0689e-05 0)
(-0.000937197 -0.000125741 0)
(-0.00082834 -0.000148513 0)
(-0.000705219 -0.000159813 0)
(-0.000575386 -0.000161791 0)
(-0.000445039 -0.000157155 0)
(-0.000320145 -0.000146889 0)
(-0.000206706 -0.000130166 0)
(-0.000111293 -0.000107192 0)
(-3.97144e-05 -7.96268e-05 0)
(5.49348e-06 -5.10349e-05 0)
(2.65506e-05 -2.56005e-05 0)
(2.89017e-05 -6.50834e-06 0)
(1.91991e-05 5.04021e-06 0)
(3.9933e-06 6.33064e-06 0)
(-3.66685e-06 -4.24034e-07 0)
(6.51804e-07 -2.54741e-06 0)
(-8.06602e-07 -2.41593e-06 0)
(6.13567e-06 -3.92319e-06 0)
(1.598e-05 1.27347e-05 0)
(1.97436e-05 3.93658e-05 0)
(1.2299e-05 5.88353e-05 0)
(-1.00969e-05 5.52965e-05 0)
(-4.30099e-05 8.67038e-06 0)
(-7.63673e-05 -8.79048e-05 0)
(-9.99146e-05 -0.000226032 0)
(-0.000108026 -0.000385206 0)
(-9.95565e-05 -0.000546496 0)
(-7.69476e-05 -0.000691206 0)
(-4.4118e-05 -0.000805629 0)
(-3.21575e-06 -0.000881415 0)
(4.12183e-05 -0.000908849 0)
(7.78339e-05 -0.000885547 0)
(9.70184e-05 -0.000822655 0)
(9.52931e-05 -0.000738467 0)
(7.71772e-05 -0.000651571 0)
(4.8027e-05 -0.000574861 0)
(8.80063e-06 -0.000517418 0)
(-3.76232e-05 -0.000488905 0)
(-7.34942e-05 -0.000491314 0)
(-8.02031e-05 -0.000510604 0)
(-5.12753e-05 -0.000528149 0)
(1.03427e-05 -0.0005239 0)
(8.20269e-05 -0.000479426 0)
(0.000138446 -0.000391052 0)
(0.000167906 -0.00027252 0)
(0.000172377 -0.000138024 0)
(0.000155823 -2.80882e-06 0)
(0.000126017 0.000121186 0)
(9.28658e-05 0.000224427 0)
(6.82663e-05 0.000301976 0)
(4.88761e-05 0.00034982 0)
(2.98182e-05 0.000363856 0)
(9.48381e-06 0.00035206 0)
(-1.59722e-05 0.000325645 0)
(-5.59218e-05 0.000307906 0)
(-0.000111852 0.000304575 0)
(-0.00015904 0.000267737 0)
(-0.000139412 0.000223208 0)
(-4.57925e-05 0.00015486 0)
(9.13862e-05 1.15156e-05 0)
(0.00033101 -9.78739e-05 0)
(0.00036273 -3.55461e-05 0)
(1.23171e-05 1.87376e-05 0)
(-0.000460876 -7.97216e-05 0)
(-0.000775552 -0.000268673 0)
(-0.000871529 -0.000474878 0)
(-0.000762418 -0.000671586 0)
(-0.000469329 -0.000778189 0)
(-8.88222e-05 -0.000775934 0)
(0.000322491 -0.000549867 0)
(0.000455194 -5.98691e-05 0)
(0.00021423 0.000299313 0)
(2.60709e-05 0.000442683 0)
(-1.83456e-05 0.000548266 0)
(3.72117e-05 0.000680353 0)
(0.000193924 0.00085189 0)
(0.000435561 0.00109146 0)
(0.000724699 0.00144243 0)
(0.00089338 0.00191611 0)
(0.000747971 0.00238628 0)
(0.000370782 0.00264126 0)
(0.000113727 0.00266659 0)
(0.000123267 0.00267916 0)
(0.000203264 0.00280724 0)
(0.000196068 0.00296788 0)
(0.000171893 0.00307288 0)
(0.000217412 0.00316096 0)
(0.000285276 0.00328593 0)
(0.000311824 0.00342497 0)
(0.000307023 0.00354369 0)
(0.000287935 0.0036461 0)
(0.000241731 0.00373454 0)
(0.000171488 0.00379274 0)
(0.000103061 0.00381743 0)
(4.9105e-05 0.00382186 0)
(7.67603e-06 0.00381448 0)
(-2.19303e-05 0.0037986 0)
(-4.32619e-05 0.00378013 0)
(-6.39154e-05 0.00376079 0)
(-8.69079e-05 0.00373783 0)
(-0.000110367 0.0037113 0)
(-0.000132883 0.00368416 0)
(-0.0001537 0.00365962 0)
(-0.000170781 0.00364084 0)
(-0.000181059 0.00363094 0)
(-0.000178893 0.00363091 0)
(-0.000154484 0.00364069 0)
(-9.40251e-05 0.00366026 0)
(1.75847e-05 0.00369256 0)
(0.00018832 0.00375157 0)
(0.00040229 0.00386507 0)
(0.000605932 0.00407265 0)
(0.00071444 0.00435071 0)
(0.000672715 0.00462838 0)
(0.000515617 0.0048181 0)
(0.000343637 0.00489537 0)
(0.000224573 0.00491176 0)
(0.000148375 0.00492105 0)
(8.08853e-05 0.00492669 0)
(1.91205e-05 0.00491028 0)
(-2.09947e-05 0.00487551 0)
(-4.09051e-05 0.00484119 0)
(-5.56245e-05 0.00481203 0)
(-7.08922e-05 0.00478023 0)
(-8.21774e-05 0.00474296 0)
(-8.72374e-05 0.00470511 0)
(-8.92493e-05 0.00466998 0)
(-9.07501e-05 0.00463631 0)
(-9.12912e-05 0.00460287 0)
(-9.01914e-05 0.00457047 0)
(-8.79817e-05 0.00454006 0)
(-8.53485e-05 0.00451162 0)
(-8.24545e-05 0.00448487 0)
(-7.93448e-05 0.00445984 0)
(-7.63004e-05 0.00443659 0)
(-7.36745e-05 0.00441491 0)
(-7.17282e-05 0.00439447 0)
(-7.07008e-05 0.00437489 0)
(-7.07981e-05 0.00435572 0)
(-7.21536e-05 0.00433647 0)
(-7.47985e-05 0.00431665 0)
(-7.86212e-05 0.0042958 0)
(-8.3384e-05 0.00427361 0)
(-8.8745e-05 0.00424991 0)
(-9.4244e-05 0.00422471 0)
(-9.93438e-05 0.00419823 0)
(-0.000103457 0.00417089 0)
(-0.000105993 0.00414332 0)
(-0.000106352 0.00411627 0)
(-0.000103997 0.00409067 0)
(-9.84844e-05 0.0040674 0)
(-8.91171e-05 0.00405086 0)
(-7.46587e-05 0.00404134 0)
(-5.47443e-05 0.00403843 0)
(-2.89041e-05 0.00404247 0)
(4.28226e-06 0.00405464 0)
(4.53956e-05 0.00407668 0)
(9.43927e-05 0.00410919 0)
(0.000151463 0.00415287 0)
(0.000216197 0.00420855 0)
(0.00028751 0.00427687 0)
(0.000363505 0.00435871 0)
(0.000441315 0.004455 0)
(0.000517298 0.00456647 0)
(0.000587477 0.00469318 0)
(0.000648243 0.00483397 0)
(0.000697182 0.00498628 0)
(0.000733707 0.00514659 0)
(0.000758856 0.00531131 0)
(0.000774292 0.00547743 0)
(0.000780959 0.00564107 0)
(0.000778548 0.00579842 0)
(0.000766263 0.00594976 0)
(0.000742768 0.00609144 0)
(0.000707423 0.00621908 0)
(0.000660734 0.00633017 0)
(0.000603926 0.00642425 0)
(0.000538373 0.00650188 0)
(0.000465504 0.00656337 0)
(0.000386453 0.00660828 0)
(0.000301099 0.00663573 0)
(0.000209358 0.006659 0)
(0.000113137 0.00668383 0)
(1.47876e-05 0.00669079 0)
(-8.49907e-05 0.0066818 0)
(-0.000188687 0.00665795 0)
(-0.000296624 0.00661773 0)
(-0.000407378 0.00656188 0)
(-0.000521482 0.00649048 0)
(-0.000638624 0.00640337 0)
(-0.000758769 0.00630103 0)
(-0.000882203 0.00618355 0)
(-0.00100902 0.00605109 0)
(-0.00113952 0.00590389 0)
(-0.00127405 0.00574207 0)
(-0.00141297 0.00556577 0)
(-0.00155672 0.00537509 0)
(-0.00170578 0.00517013 0)
(-0.00186073 0.00495095 0)
(-0.00202223 0.00471755 0)
(-0.0021908 0.00446985 0)
(-0.00236689 0.00420785 0)
(-0.00255151 0.0039315 0)
(-0.00274661 0.00364028 0)
(-0.00296264 0.00334278 0)
(-0.00328061 0.00311364 0)
(-0.00364332 0.00286509 0)
(-0.00404955 0.00258166 0)
(-0.0044871 0.00224825 0)
(-0.00493233 0.00185581 0)
(-0.00535192 0.00140516 0)
(-0.00573631 0.000909804 0)
(-0.00609676 0.000380317 0)
(-0.00644536 -0.000110557 0)
(-0.00664836 -0.00121015 0)
(-0.00625594 0.000116271 0)
)
;
    }
    frontAndBack
    {
        type            empty;
    }
}


// ************************************************************************* //
