/*--------------------------------*- C++ -*----------------------------------*\
  =========                 |
  \\      /  F ield         | OpenFOAM: The Open Source CFD Toolbox
   \\    /   O peration     | Website:  https://openfoam.org
    \\  /    A nd           | Version:  7
     \\/     M anipulation  |
\*---------------------------------------------------------------------------*/
FoamFile
{
    version     2.0;
    format      ascii;
    class       volScalarField;
    location    "0.46";
    object      yPlus;
}
// * * * * * * * * * * * * * * * * * * * * * * * * * * * * * * * * * * * * * //

dimensions      [0 0 0 0 0 0 0];

internalField   uniform 0;

boundaryField
{
    velocityInlet
    {
        type            calculated;
        value           uniform 0;
    }
    pressureOutlet
    {
        type            calculated;
        value           uniform 0;
    }
    fixedWalls
    {
        type            calculated;
        value           nonuniform List<scalar> 
100
(
2.39237
1.68672
1.42855
1.33596
1.25998
1.1902
1.12724
1.07222
1.03005
1.00505
0.996696
1.00009
1.00275
0.989626
0.993342
1.10544
1.31548
1.47795
1.42546
0.884457
1.07045
1.57451
1.65397
1.41702
0.909745
0.521785
0.998021
1.16218
1.20708
1.19982
1.17286
1.14044
1.10605
1.06628
1.0172
0.961253
0.911151
0.889886
0.917621
0.983396
1.04248
1.0419
0.938405
0.711292
0.342014
0.360816
0.40889
0.231615
0.345712
0.534211
0.644678
0.711604
0.751382
0.773779
0.784776
0.788359
0.787657
0.785529
0.784723
0.787337
0.794204
0.804241
0.813979
0.817805
0.809433
0.78387
0.738869
0.674906
0.594089
0.500179
0.402188
0.322636
0.302469
0.358731
0.454164
0.552458
0.63708
0.70293
0.749952
0.779222
0.790936
0.784008
0.758028
0.715781
0.665763
0.620352
0.592575
0.587563
0.602744
0.627736
0.655307
0.676697
0.68984
0.690358
0.67847
0.657818
0.625389
0.602813
0.568055
0.568319
)
;
    }
    bottomWall
    {
        type            calculated;
        value           nonuniform List<scalar> 
800
(
2.94479
1.98389
1.61341
1.44028
1.35514
1.2965
1.24754
1.20643
1.17188
1.14231
1.1165
1.09366
1.07325
1.05484
1.03813
1.02287
1.00885
0.995921
0.983939
0.972796
0.962398
0.952669
0.943538
0.934948
0.926849
0.919197
0.911953
0.905083
0.898558
0.892349
0.886435
0.880793
0.875404
0.87025
0.865317
0.860589
0.856054
0.851699
0.847515
0.843491
0.839618
0.835887
0.832291
0.828822
0.825474
0.822242
0.819117
0.816099
0.813175
0.81035
0.807979
0.806016
0.804073
0.802156
0.800264
0.798396
0.79655
0.794727
0.792926
0.791147
0.78939
0.787653
0.785936
0.78424
0.782563
0.780906
0.779266
0.777646
0.776044
0.77446
0.772895
0.771345
0.769813
0.768298
0.766798
0.765316
0.763848
0.762397
0.76096
0.759539
0.758132
0.75674
0.755363
0.753998
0.752648
0.751312
0.749989
0.74868
0.747383
0.746099
0.744828
0.743568
0.742322
0.741087
0.739864
0.738652
0.737453
0.736264
0.735086
0.73392
0.732764
0.731619
0.730484
0.729361
0.728247
0.727143
0.726049
0.724964
0.723889
0.722824
0.721768
0.720722
0.719684
0.718656
0.717636
0.716625
0.715623
0.71463
0.713644
0.712667
0.711699
0.710738
0.709786
0.708842
0.707904
0.706975
0.706054
0.705141
0.704235
0.703336
0.702445
0.70156
0.700682
0.699812
0.698948
0.698092
0.697242
0.696399
0.695562
0.694732
0.693908
0.693091
0.69228
0.691475
0.690676
0.689883
0.689096
0.688315
0.68754
0.68677
0.686125
0.685596
0.685067
0.684536
0.684004
0.683471
0.682938
0.682404
0.681868
0.681332
0.680794
0.680257
0.679716
0.679177
0.678636
0.678093
0.67755
0.677007
0.676462
0.675916
0.67537
0.674823
0.674274
0.673725
0.673175
0.672625
0.672072
0.67152
0.670967
0.670412
0.669857
0.669302
0.668744
0.668187
0.667629
0.667069
0.666508
0.665948
0.665385
0.664823
0.664259
0.663695
0.66313
0.662564
0.661996
0.661428
0.66086
0.660291
0.65972
0.659147
0.658576
0.658002
0.657427
0.656852
0.656275
0.655699
0.655119
0.65454
0.65396
0.653378
0.652795
0.652211
0.651625
0.65104
0.650451
0.649862
0.649273
0.648681
0.648088
0.647493
0.646897
0.6463
0.645701
0.6451
0.644498
0.643894
0.643288
0.64268
0.642071
0.641459
0.640847
0.640229
0.639614
0.63899
0.638372
0.637741
0.637123
0.636478
0.635868
0.635196
0.634611
0.633888
0.633358
0.632542
0.632122
0.631139
0.630916
0.629676
0.629737
0.628162
2.9448
1.98395
1.61357
1.44055
1.35554
1.29702
1.2482
1.20722
1.17282
1.1434
1.11775
1.09509
1.07486
1.05665
1.04016
1.02513
1.01136
0.99869
0.986996
0.976166
0.966109
0.95675
0.948024
0.939877
0.932264
0.925147
0.918492
0.912271
0.906463
0.901049
0.896018
0.891357
0.887065
0.883137
0.879578
0.8764
0.873608
0.871246
0.869294
0.867888
0.866897
0.866715
0.866855
0.868411
0.869903
0.874136
0.877419
0.885454
0.895421
0.864834
0.736759
0.472208
1.12632
1.73325
2.16991
2.41887
2.31899
1.99331
2.0821
2.43611
2.47192
1.66929
2.01561
2.85596
3.39421
3.70085
3.83973
3.83755
3.72203
3.50834
3.20936
2.83207
2.37113
1.79919
1.07373
1.3429
1.9556
2.40938
2.76812
3.0632
3.31137
3.52281
3.70429
3.86065
3.99546
4.11153
4.21103
4.29575
4.3671
4.42623
4.47408
4.51133
4.53858
4.55614
4.56434
4.56313
4.55236
4.53206
4.50204
4.462
4.41165
4.35059
4.27835
4.19438
4.09798
3.98842
3.8649
3.72641
3.57184
3.39997
3.20938
2.99917
2.76672
2.50911
2.22193
1.89791
1.52248
1.05973
0.415059
0.986105
1.34151
1.56286
1.7038
1.77965
1.7916
1.74848
1.67151
1.58951
1.54008
1.52227
1.48242
1.38736
1.25383
1.1183
1.00545
0.92356
0.877067
0.863769
0.879608
0.926674
1.00036
1.08773
1.17552
1.25453
1.31729
1.35635
1.36507
1.3371
1.26547
1.14179
0.958337
0.734011
0.710829
0.933726
1.13241
1.27669
1.37115
1.42258
1.43669
1.41866
1.37527
1.31124
1.23461
1.15589
1.097
1.07946
1.09134
1.11112
1.11625
1.05238
0.835017
0.847811
1.34062
1.74052
2.04611
2.28983
2.49278
2.6652
2.81149
2.93379
3.03355
3.11201
3.17039
3.20994
3.2318
3.23653
3.224
3.19446
3.14862
3.08671
3.01119
2.92043
2.81406
2.69138
2.5513
2.39233
2.21298
2.01281
1.79597
1.58254
1.43473
1.44555
1.60695
1.82596
2.04696
2.25459
2.44543
2.61953
2.77784
2.92146
3.05136
3.16842
3.27335
3.36684
3.44945
3.5217
3.58405
3.63688
3.68057
3.71541
3.74172
3.75973
3.76976
3.77199
3.76585
3.7514
3.72998
3.70417
3.66974
3.62679
3.57545
3.51577
3.44789
3.37194
3.28803
3.19635
3.09706
2.99034
2.87645
2.75554
2.62765
2.49372
2.35518
2.21043
2.06197
1.91651
1.7906
1.73354
1.88281
2.36308
0.652075
0.839239
0.384151
1.11434
1.7213
2.24203
2.7014
3.10285
3.42067
3.62595
3.70422
3.64781
3.46226
3.14863
2.70784
2.14545
1.46272
1.1001
1.54033
1.80612
1.89211
1.84042
1.72834
1.66954
1.73684
1.91156
2.14354
2.38251
2.61292
2.83039
3.0256
3.18739
3.3209
3.44681
3.58181
3.72477
3.86643
3.99733
4.11471
4.2223
4.32047
4.40409
4.46275
4.48341
4.44874
4.36697
4.19484
3.90735
3.46656
2.81666
2.01391
2.26624
3.12666
3.82576
4.32646
4.62017
4.76491
4.82792
4.85323
4.81997
4.73207
4.61418
4.48176
4.33951
4.18518
4.01311
3.81501
3.57945
3.2919
2.93445
2.48299
1.90266
1.3095
1.7617
2.40403
2.91604
3.32359
3.64369
3.88516
4.0535
4.15221
4.18731
4.15714
4.05831
3.89396
3.67097
3.39758
3.07931
2.72047
2.32674
1.903
1.45867
1.01678
0.671038
0.632477
0.632088
0.526547
0.280338
0.21719
0.121122
0.136852
0.19479
0.403023
0.638904
0.753995
0.707644
0.415972
0.995346
1.5271
1.96884
2.3329
2.61772
2.82313
2.95205
3.00032
2.96846
2.87049
2.72859
2.56979
2.41996
2.30308
2.24189
2.2379
2.25826
2.26799
2.24024
2.14742
1.96525
1.6867
1.3042
0.911798
1.12678
1.48148
1.7236
1.85711
1.89584
1.86214
1.76973
1.69461
1.70142
1.6937
1.65913
1.48837
1.2386
1.69499
1.78617
1.37255
2.04543
2.57357
2.7904
2.82068
2.67852
2.4699
2.10783
1.53535
1.49024
1.97151
2.34947
2.7038
3.08778
3.53262
4.02581
4.47674
4.79461
4.98204
5.10027
5.20178
5.3189
5.4405
5.55151
5.65681
5.76382
5.86606
5.95516
6.02932
6.08732
6.12704
6.14958
6.15903
6.15879
6.15082
6.1378
6.12113
6.10095
6.07841
6.0555
6.03508
6.02076
6.01691
6.0267
6.05253
6.09616
6.1587
6.24281
6.35163
6.49282
6.63941
6.76746
6.862
6.92308
6.95912
6.97825
6.98418
6.97882
6.96562
6.9483
6.92829
6.90591
6.8818
6.85706
6.83242
6.80808
6.78424
6.76117
6.73913
6.71822
6.69849
6.6799
6.66243
6.64592
6.63014
6.61484
6.59967
6.58432
6.56845
6.55179
6.53418
6.51555
6.49598
6.4757
6.45507
6.43461
6.41494
6.3968
6.38093
6.37094
6.36737
6.3702
6.37943
6.39554
6.41996
6.45313
6.49523
6.54631
6.60602
6.67379
6.74891
6.83064
6.91832
7.01133
7.10892
7.21016
7.31386
7.41845
7.5208
7.61747
7.7081
7.79046
7.86252
7.92357
7.97392
8.01421
8.04473
8.06532
8.07545
8.08336
8.09269
8.09168
8.08134
8.06225
8.03356
7.99539
7.94759
7.88999
7.82252
7.74503
7.65738
7.55941
7.45094
7.33178
7.20173
7.06062
6.9083
6.74472
6.56999
6.38462
6.18978
5.98725
5.78973
5.67227
5.5715
5.49299
5.44846
5.45317
5.52246
5.66175
5.87055
6.14979
6.4827
6.53524
)
;
    }
    frontAndBack
    {
        type            empty;
    }
}


// ************************************************************************* //
