/*--------------------------------*- C++ -*----------------------------------*\
  =========                 |
  \\      /  F ield         | OpenFOAM: The Open Source CFD Toolbox
   \\    /   O peration     | Website:  https://openfoam.org
    \\  /    A nd           | Version:  7
     \\/     M anipulation  |
\*---------------------------------------------------------------------------*/
FoamFile
{
    version     2.0;
    format      ascii;
    class       volVectorField;
    location    "0.31";
    object      ddt0(U);
}
// * * * * * * * * * * * * * * * * * * * * * * * * * * * * * * * * * * * * * //

dimensions      [0 1 -2 0 0 0 0];

internalField   nonuniform List<vector> 
70000
(
(0.00161472 -0.000111749 0)
(0.00970734 -0.000154898 0)
(0.0197165 -0.000157254 0)
(0.0293665 -0.000134919 0)
(0.0384172 -0.000129858 0)
(0.0470613 -0.0001278 0)
(0.055214 -0.000127343 0)
(0.0628996 -0.000128439 0)
(0.0702562 -0.000130188 0)
(0.077432 -0.000132606 0)
(0.0845662 -0.000136007 0)
(0.0917834 -0.000140895 0)
(0.0991844 -0.000147359 0)
(0.106836 -0.000155293 0)
(0.114771 -0.000164453 0)
(0.123001 -0.000174517 0)
(0.13153 -0.000185393 0)
(0.140375 -0.00019716 0)
(0.149567 -0.000210029 0)
(0.159162 -0.000224363 0)
(0.169239 -0.00024068 0)
(0.179899 -0.000259306 0)
(0.191263 -0.000280921 0)
(0.203469 -0.000305802 0)
(0.216673 -0.000334496 0)
(0.231046 -0.000367355 0)
(0.246781 -0.000405298 0)
(0.264101 -0.000448658 0)
(0.283265 -0.000499044 0)
(0.304578 -0.000557239 0)
(0.328407 -0.000624999 0)
(0.355195 -0.000704104 0)
(0.385456 -0.000797269 0)
(0.419848 -0.000906957 0)
(0.459125 -0.00103749 0)
(0.504255 -0.00119275 0)
(0.55636 -0.00137833 0)
(0.616908 -0.00160405 0)
(0.687573 -0.00187148 0)
(0.770712 -0.00220867 0)
(0.868762 -0.00259892 0)
(0.985753 -0.0031186 0)
(1.12532 -0.00370214 0)
(1.29416 -0.00452521 0)
(1.49986 -0.00546003 0)
(1.74886 -0.00674988 0)
(2.07306 -0.00858415 0)
(2.43455 -0.0102603 0)
(3.07868 -0.0135541 0)
(3.17872 -0.138885 0)
(0.00113702 -0.000528671 0)
(0.0148422 -0.000981311 0)
(0.0359912 -0.00111125 0)
(0.0572595 -0.0010757 0)
(0.0764554 -0.00102103 0)
(0.0940767 -0.000969982 0)
(0.110111 -0.000918886 0)
(0.124563 -0.000878737 0)
(0.137767 -0.000856174 0)
(0.150167 -0.000851893 0)
(0.162191 -0.000864736 0)
(0.174196 -0.000892434 0)
(0.186432 -0.000931492 0)
(0.199031 -0.000977538 0)
(0.212022 -0.00102713 0)
(0.22538 -0.00107827 0)
(0.23907 -0.0011315 0)
(0.253089 -0.00118888 0)
(0.267483 -0.00125363 0)
(0.282354 -0.00132943 0)
(0.297857 -0.00142028 0)
(0.314194 -0.00152946 0)
(0.331605 -0.00166084 0)
(0.350363 -0.00181749 0)
(0.370775 -0.00200301 0)
(0.393181 -0.00222121 0)
(0.417963 -0.00247778 0)
(0.445565 -0.0027787 0)
(0.476507 -0.00313362 0)
(0.511405 -0.00355267 0)
(0.551002 -0.00404984 0)
(0.596203 -0.00464101 0)
(0.648063 -0.00534829 0)
(0.707932 -0.00619675 0)
(0.777364 -0.00721975 0)
(0.858375 -0.00845814 0)
(0.953296 -0.00996168 0)
(1.06522 -0.011806 0)
(1.19765 -0.0140558 0)
(1.35563 -0.0168677 0)
(1.54431 -0.020301 0)
(1.77249 -0.0247127 0)
(2.0478 -0.0300803 0)
(2.38509 -0.0372843 0)
(2.80099 -0.0459701 0)
(3.30815 -0.0585185 0)
(3.98248 -0.0730946 0)
(4.72241 -0.100951 0)
(6.08335 -0.110871 0)
(6.67584 -0.390586 0)
(6.64629e-05 -0.00099811 0)
(0.0127745 -0.00212394 0)
(0.0371407 -0.00258855 0)
(0.064992 -0.00254809 0)
(0.0909782 -0.00237312 0)
(0.114267 -0.00220009 0)
(0.134761 -0.00202615 0)
(0.152453 -0.00187314 0)
(0.167748 -0.00176706 0)
(0.181305 -0.00171583 0)
(0.193824 -0.00171583 0)
(0.205908 -0.00175737 0)
(0.217979 -0.00182698 0)
(0.230253 -0.00191025 0)
(0.242768 -0.00199669 0)
(0.255467 -0.00208124 0)
(0.268275 -0.00216576 0)
(0.281158 -0.0022559 0)
(0.294153 -0.00236014 0)
(0.307366 -0.00248734 0)
(0.320977 -0.00264695 0)
(0.33522 -0.00284657 0)
(0.350378 -0.00309458 0)
(0.366775 -0.00339795 0)
(0.384775 -0.0037649 0)
(0.404785 -0.0042038 0)
(0.427267 -0.0047279 0)
(0.452756 -0.00535093 0)
(0.481887 -0.00609478 0)
(0.515416 -0.00698321 0)
(0.554253 -0.00804872 0)
(0.599519 -0.00932798 0)
(0.652521 -0.0108725 0)
(0.714933 -0.01274 0)
(0.788695 -0.0150092 0)
(0.876316 -0.0177749 0)
(0.980725 -0.0211571 0)
(1.10581 -0.0253276 0)
(1.25598 -0.0304574 0)
(1.43769 -0.036885 0)
(1.65733 -0.0448215 0)
(1.92643 -0.0550113 0)
(2.25441 -0.0675692 0)
(2.66072 -0.0844259 0)
(3.16703 -0.10482 0)
(3.78782 -0.134934 0)
(4.62751 -0.168298 0)
(5.54241 -0.236809 0)
(7.22369 -0.281159 0)
(8.26141 -0.666331 0)
(-0.000325591 -0.00133481 0)
(0.00903282 -0.00321145 0)
(0.0308763 -0.00426482 0)
(0.0599296 -0.00439579 0)
(0.0898289 -0.00412291 0)
(0.117582 -0.00376755 0)
(0.141982 -0.00339205 0)
(0.162587 -0.00304252 0)
(0.179628 -0.00277149 0)
(0.193782 -0.00260403 0)
(0.205904 -0.00253909 0)
(0.216812 -0.00255874 0)
(0.227131 -0.00263451 0)
(0.237221 -0.00273593 0)
(0.247198 -0.00284059 0)
(0.257032 -0.00293766 0)
(0.266649 -0.00302956 0)
(0.276007 -0.00312605 0)
(0.285141 -0.00324178 0)
(0.294156 -0.00339179 0)
(0.303232 -0.00359171 0)
(0.312602 -0.00385428 0)
(0.322548 -0.0041929 0)
(0.333387 -0.00461911 0)
(0.345489 -0.00514648 0)
(0.359261 -0.00578898 0)
(0.375181 -0.00656843 0)
(0.393805 -0.00750802 0)
(0.415801 -0.00864373 0)
(0.44197 -0.0100154 0)
(0.473284 -0.0116772 0)
(0.51094 -0.0136906 0)
(0.55635 -0.0161409 0)
(0.611304 -0.0191252 0)
(0.67791 -0.0227747 0)
(0.758864 -0.0272491 0)
(0.857352 -0.0327515 0)
(0.977597 -0.0395653 0)
(1.12436 -0.0479971 0)
(1.3048 -0.0585859 0)
(1.52568 -0.0717536 0)
(1.8 -0.0886745 0)
(2.1377 -0.109661 0)
(2.56066 -0.137933 0)
(3.09272 -0.172031 0)
(3.7494 -0.223388 0)
(4.64669 -0.278427 0)
(5.63507 -0.394377 0)
(7.39234 -0.488074 0)
(8.72891 -0.961207 0)
(-0.000103246 -0.00155734 0)
(0.00649801 -0.00408964 0)
(0.0236623 -0.00581819 0)
(0.0496616 -0.00634501 0)
(0.0797091 -0.00614334 0)
(0.109944 -0.00565955 0)
(0.137858 -0.00505897 0)
(0.162026 -0.0044495 0)
(0.182026 -0.0039307 0)
(0.198174 -0.00356029 0)
(0.211202 -0.00335151 0)
(0.22198 -0.00328384 0)
(0.231276 -0.00331439 0)
(0.239621 -0.00339328 0)
(0.247276 -0.00348172 0)
(0.254308 -0.00355957 0)
(0.26071 -0.00362784 0)
(0.266482 -0.00369969 0)
(0.271694 -0.00379579 0)
(0.27648 -0.00393707 0)
(0.281037 -0.00414481 0)
(0.285599 -0.00443635 0)
(0.290432 -0.00482965 0)
(0.295825 -0.00534077 0)
(0.30211 -0.0059888 0)
(0.30966 -0.00679396 0)
(0.318921 -0.00778731 0)
(0.330424 -0.00900268 0)
(0.344825 -0.0104911 0)
(0.362916 -0.0123101 0)
(0.385674 -0.0145369 0)
(0.414301 -0.0172599 0)
(0.450241 -0.0206002 0)
(0.495297 -0.0246979 0)
(0.551637 -0.0297403 0)
(0.621992 -0.0359564 0)
(0.709628 -0.0436404 0)
(0.818879 -0.0531922 0)
(0.95456 -0.0650723 0)
(1.12414 -0.0800246 0)
(1.33436 -0.0987186 0)
(1.59893 -0.122773 0)
(1.92763 -0.152743 0)
(2.34368 -0.193224 0)
(2.87068 -0.242056 0)
(3.52738 -0.316131 0)
(4.42419 -0.395559 0)
(5.4414 -0.558693 0)
(7.14811 -0.714811 0)
(8.67674 -1.25885 0)
(0.000232395 -0.00175093 0)
(0.00560965 -0.00477841 0)
(0.0188202 -0.00710783 0)
(0.0402015 -0.0081418 0)
(0.0674014 -0.00820687 0)
(0.0973165 -0.00775679 0)
(0.127074 -0.00701907 0)
(0.154459 -0.00616881 0)
(0.178197 -0.00536915 0)
(0.197894 -0.0047294 0)
(0.213793 -0.0042951 0)
(0.226512 -0.00405775 0)
(0.236768 -0.00396909 0)
(0.245169 -0.00396312 0)
(0.252113 -0.0039835 0)
(0.257795 -0.00399802 0)
(0.262312 -0.00400404 0)
(0.265749 -0.00401706 0)
(0.268253 -0.00406331 0)
(0.270034 -0.00416892 0)
(0.271356 -0.00435932 0)
(0.272495 -0.00465458 0)
(0.273732 -0.00507511 0)
(0.275334 -0.00563997 0)
(0.277588 -0.00637293 0)
(0.280809 -0.00730045 0)
(0.28538 -0.00846329 0)
(0.291771 -0.00990685 0)
(0.300587 -0.0116981 0)
(0.312572 -0.0139137 0)
(0.328674 -0.0166546 0)
(0.350056 -0.0200382 0)
(0.378152 -0.0242223 0)
(0.414726 -0.0293919 0)
(0.461942 -0.0357921 0)
(0.522503 -0.0437234 0)
(0.59965 -0.0535763 0)
(0.697724 -0.065867 0)
(0.821449 -0.0812225 0)
(0.978394 -0.10059 0)
(1.17506 -0.124908 0)
(1.42544 -0.156244 0)
(1.73879 -0.19543 0)
(2.13924 -0.248422 0)
(2.64806 -0.312576 0)
(3.29015 -0.409615 0)
(4.15761 -0.515966 0)
(5.18084 -0.723648 0)
(6.78532 -0.948789 0)
(8.41047 -1.56963 0)
(0.000423309 -0.0019516 0)
(0.00563611 -0.00536256 0)
(0.016706 -0.00816419 0)
(0.0342392 -0.00969507 0)
(0.0576157 -0.0101347 0)
(0.0851488 -0.00987993 0)
(0.114563 -0.00915789 0)
(0.143583 -0.00817483 0)
(0.170441 -0.0071454 0)
(0.194063 -0.00623409 0)
(0.214034 -0.00553162 0)
(0.230458 -0.00505807 0)
(0.243744 -0.00477561 0)
(0.254388 -0.00461302 0)
(0.262807 -0.00450129 0)
(0.269275 -0.00439659 0)
(0.273966 -0.00429152 0)
(0.277039 -0.00420367 0)
(0.278716 -0.0041655 0)
(0.279306 -0.00420907 0)
(0.279182 -0.00436328 0)
(0.278728 -0.0046487 0)
(0.278301 -0.00508478 0)
(0.278203 -0.00569004 0)
(0.27871 -0.00649001 0)
(0.280084 -0.00751576 0)
(0.282634 -0.00881702 0)
(0.286742 -0.0104513 0)
(0.29293 -0.0125023 0)
(0.301859 -0.0150669 0)
(0.31441 -0.018271 0)
(0.331674 -0.0222625 0)
(0.355034 -0.0272364 0)
(0.386184 -0.033424 0)
(0.427236 -0.0411297 0)
(0.480821 -0.0507258 0)
(0.550092 -0.0627023 0)
(0.639326 -0.0776909 0)
(0.753079 -0.096491 0)
(0.898853 -0.120252 0)
(1.08285 -0.15019 0)
(1.319 -0.188813 0)
(1.61585 -0.237282 0)
(1.99816 -0.302783 0)
(2.48356 -0.382618 0)
(3.10428 -0.502158 0)
(3.92922 -0.637398 0)
(4.93991 -0.886597 0)
(6.42491 -1.18206 0)
(8.07055 -1.87616 0)
(0.000463413 -0.00216515 0)
(0.00587815 -0.00592133 0)
(0.0162629 -0.00909593 0)
(0.0315902 -0.0110487 0)
(0.0518829 -0.0118746 0)
(0.0765274 -0.011905 0)
(0.10417 -0.0113332 0)
(0.13306 -0.0103566 0)
(0.161495 -0.00921008 0)
(0.188105 -0.00809619 0)
(0.211978 -0.00714753 0)
(0.232681 -0.0064203 0)
(0.250177 -0.00590057 0)
(0.26468 -0.005526 0)
(0.276477 -0.00522461 0)
(0.285808 -0.00494511 0)
(0.292848 -0.00467621 0)
(0.297752 -0.00443822 0)
(0.300757 -0.0042723 0)
(0.30222 -0.00421984 0)
(0.302614 -0.0043159 0)
(0.302463 -0.00458178 0)
(0.302268 -0.00503329 0)
(0.302446 -0.00568378 0)
(0.303331 -0.00655539 0)
(0.305188 -0.00767955 0)
(0.308274 -0.00911192 0)
(0.312885 -0.010921 0)
(0.319439 -0.0132068 0)
(0.328483 -0.0160875 0)
(0.340796 -0.0197148 0)
(0.357359 -0.0242682 0)
(0.379464 -0.0299813 0)
(0.408703 -0.0371319 0)
(0.447081 -0.0460848 0)
(0.497123 -0.0572836 0)
(0.561837 -0.0713195 0)
(0.645361 -0.0889379 0)
(0.752033 -0.111112 0)
(0.889131 -0.139191 0)
(1.06252 -0.174673 0)
(1.28577 -0.220482 0)
(1.56663 -0.278172 0)
(1.92998 -0.355957 0)
(2.38972 -0.451587 0)
(2.9837 -0.592809 0)
(3.76 -0.757886 0)
(4.73825 -1.04588 0)
(6.10195 -1.4109 0)
(7.69596 -2.15469 0)
(0.00044113 -0.00239327 0)
(0.00602812 -0.00649918 0)
(0.0164027 -0.0100008 0)
(0.0309342 -0.0123017 0)
(0.0494655 -0.0134726 0)
(0.0718768 -0.0138048 0)
(0.0975044 -0.0134568 0)
(0.125235 -0.0125973 0)
(0.153789 -0.0114545 0)
(0.181904 -0.0102441 0)
(0.208512 -0.00912452 0)
(0.232846 -0.00818234 0)
(0.25449 -0.00743195 0)
(0.273337 -0.00682981 0)
(0.289464 -0.00631088 0)
(0.302991 -0.00582225 0)
(0.314009 -0.00535026 0)
(0.322593 -0.0049185 0)
(0.328891 -0.0045792 0)
(0.333207 -0.00438862 0)
(0.336033 -0.00439457 0)
(0.337989 -0.00462413 0)
(0.339735 -0.00509086 0)
(0.34186 -0.00580033 0)
(0.344841 -0.0067657 0)
(0.349027 -0.00801238 0)
(0.354687 -0.00959597 0)
(0.362068 -0.011592 0)
(0.371494 -0.0141142 0)
(0.383392 -0.0173017 0)
(0.398404 -0.0213318 0)
(0.417377 -0.0264169 0)
(0.441463 -0.0328292 0)
(0.472117 -0.0408939 0)
(0.511192 -0.0510363 0)
(0.561056 -0.0637702 0)
(0.624521 -0.0797878 0)
(0.705503 -0.0999453 0)
(0.80807 -0.125388 0)
(0.93912 -0.157657 0)
(1.10414 -0.198536 0)
(1.31602 -0.25133 0)
(1.58176 -0.318043 0)
(1.92547 -0.407702 0)
(2.35819 -0.518933 0)
(2.91982 -0.680773 0)
(3.64339 -0.875606 0)
(4.56971 -1.19986 0)
(5.80956 -1.62778 0)
(7.29667 -2.41715 0)
(0.000416964 -0.00263006 0)
(0.00606931 -0.0071054 0)
(0.0165822 -0.0109249 0)
(0.0310101 -0.0135412 0)
(0.0488698 -0.0150118 0)
(0.0700562 -0.0156231 0)
(0.0941992 -0.0155161 0)
(0.120644 -0.0148318 0)
(0.148545 -0.0137802 0)
(0.176953 -0.0125724 0)
(0.204921 -0.0113746 0)
(0.231618 -0.010291 0)
(0.256436 -0.00935938 0)
(0.279046 -0.00855783 0)
(0.299338 -0.00783427 0)
(0.317308 -0.0071386 0)
(0.332941 -0.00645551 0)
(0.346192 -0.00581042 0)
(0.357055 -0.00526671 0)
(0.365686 -0.00489977 0)
(0.372473 -0.00477844 0)
(0.378035 -0.00494503 0)
(0.383127 -0.00541789 0)
(0.388507 -0.00619716 0)
(0.394838 -0.00728441 0)
(0.402626 -0.00869301 0)
(0.412233 -0.010471 0)
(0.423926 -0.0126939 0)
(0.437978 -0.0154841 0)
(0.454714 -0.018998 0)
(0.47464 -0.0234374 0)
(0.49845 -0.0290467 0)
(0.527126 -0.036137 0)
(0.561953 -0.0450804 0)
(0.604587 -0.056362 0)
(0.657192 -0.0705646 0)
(0.722335 -0.088478 0)
(0.803628 -0.111067 0)
(0.904823 -0.139641 0)
(1.03227 -0.175926 0)
(1.19106 -0.221983 0)
(1.39302 -0.281463 0)
(1.64462 -0.35685 0)
(1.96803 -0.457804 0)
(2.37269 -0.584095 0)
(2.89667 -0.765276 0)
(3.56359 -0.988769 0)
(4.42103 -1.34625 0)
(5.53167 -1.82937 0)
(6.8706 -2.65689 0)
(0.000405511 -0.00287284 0)
(0.00606461 -0.00773731 0)
(0.0166715 -0.0118846 0)
(0.0312041 -0.0148086 0)
(0.0489485 -0.0165575 0)
(0.0696695 -0.0174226 0)
(0.0930403 -0.0175459 0)
(0.118577 -0.0170526 0)
(0.145715 -0.0161362 0)
(0.173815 -0.0149972 0)
(0.202147 -0.0137984 0)
(0.229991 -0.0126499 0)
(0.256732 -0.0116045 0)
(0.28196 -0.0106589 0)
(0.305477 -0.00977593 0)
(0.327207 -0.00891022 0)
(0.347075 -0.00804391 0)
(0.364943 -0.00720048 0)
(0.380658 -0.00645076 0)
(0.394184 -0.0058897 0)
(0.405729 -0.00561318 0)
(0.415798 -0.00568913 0)
(0.425142 -0.00615164 0)
(0.434618 -0.00700337 0)
(0.445058 -0.00823685 0)
(0.457149 -0.00985076 0)
(0.471408 -0.011879 0)
(0.488189 -0.0143895 0)
(0.507777 -0.0175054 0)
(0.530445 -0.0213945 0)
(0.556586 -0.0262791 0)
(0.586751 -0.0324331 0)
(0.621743 -0.0402051 0)
(0.662655 -0.0500124 0)
(0.710925 -0.0623984 0)
(0.768468 -0.0780124 0)
(0.837576 -0.0977368 0)
(0.921485 -0.12264 0)
(1.02359 -0.154184 0)
(1.14956 -0.194274 0)
(1.30406 -0.245224 0)
(1.49754 -0.311007 0)
(1.73607 -0.394573 0)
(2.03895 -0.506082 0)
(2.41494 -0.646563 0)
(2.89733 -0.845548 0)
(3.50421 -1.09573 0)
(4.27985 -1.48291 0)
(5.25581 -2.01251 0)
(6.41813 -2.86896 0)
(0.000401726 -0.00312173 0)
(0.00605528 -0.00839216 0)
(0.0167028 -0.0128805 0)
(0.031341 -0.0161207 0)
(0.049149 -0.0181441 0)
(0.0697854 -0.0192503 0)
(0.0928745 -0.0195913 0)
(0.117954 -0.0192851 0)
(0.144572 -0.018516 0)
(0.172257 -0.0174775 0)
(0.20048 -0.0163256 0)
(0.228671 -0.0151697 0)
(0.256307 -0.0140707 0)
(0.283004 -0.0130404 0)
(0.308566 -0.0120551 0)
(0.332921 -0.0110751 0)
(0.355998 -0.0100781 0)
(0.377634 -0.00908079 0)
(0.397588 -0.00815489 0)
(0.415665 -0.00741088 0)
(0.431883 -0.00697319 0)
(0.446576 -0.00694287 0)
(0.460401 -0.00738096 0)
(0.474226 -0.0083035 0)
(0.488983 -0.0097013 0)
(0.505521 -0.0115604 0)
(0.524518 -0.0138974 0)
(0.546457 -0.0167659 0)
(0.571695 -0.0202824 0)
(0.600505 -0.0246185 0)
(0.633215 -0.0300106 0)
(0.670262 -0.0367575 0)
(0.71229 -0.045242 0)
(0.760203 -0.0559239 0)
(0.815215 -0.0694014 0)
(0.878976 -0.0863872 0)
(0.953486 -0.107849 0)
(1.04156 -0.134954 0)
(1.14623 -0.169299 0)
(1.27236 -0.212961 0)
(1.42423 -0.268473 0)
(1.61062 -0.340109 0)
(1.83734 -0.43124 0)
(2.1202 -0.552423 0)
(2.46771 -0.705946 0)
(2.90668 -0.920937 0)
(3.45177 -1.19513 0)
(4.1379 -1.60797 0)
(4.97671 -2.17454 0)
(5.94765 -3.05016 0)
(0.000399811 -0.00337731 0)
(0.00605211 -0.0090695 0)
(0.0167186 -0.0139108 0)
(0.0314281 -0.0174796 0)
(0.0493163 -0.0197844 0)
(0.0699893 -0.0211304 0)
(0.0930312 -0.021683 0)
(0.117951 -0.021558 0)
(0.144308 -0.020936 0)
(0.171702 -0.0200073 0)
(0.19971 -0.018924 0)
(0.227886 -0.0177934 0)
(0.255799 -0.0166815 0)
(0.283142 -0.015612 0)
(0.309758 -0.0145747 0)
(0.335628 -0.0135354 0)
(0.360735 -0.0124662 0)
(0.384951 -0.0113726 0)
(0.408022 -0.0103203 0)
(0.429668 -0.00942854 0)
(0.449763 -0.00884763 0)
(0.468477 -0.00871471 0)
(0.48634 -0.00912588 0)
(0.504163 -0.0101211 0)
(0.522907 -0.0116986 0)
(0.543522 -0.0138374 0)
(0.566819 -0.0165377 0)
(0.593418 -0.0198353 0)
(0.623768 -0.0238336 0)
(0.658191 -0.0287007 0)
(0.696995 -0.0346805 0)
(0.740549 -0.0420904 0)
(0.789373 -0.0513424 0)
(0.844208 -0.0629349 0)
(0.906065 -0.0775156 0)
(0.976337 -0.0958566 0)
(1.05674 -0.119001 0)
(1.14967 -0.14821 0)
(1.25777 -0.185196 0)
(1.38511 -0.232196 0)
(1.53555 -0.291923 0)
(1.71615 -0.368929 0)
(1.93243 -0.466943 0)
(2.19656 -0.596824 0)
(2.5168 -0.762041 0)
(2.91292 -0.991059 0)
(3.397 -1.28606 0)
(3.9918 -1.72008 0)
(4.69613 -2.31392 0)
(5.47493 -3.19834 0)
(0.000397677 -0.00363996 0)
(0.00605346 -0.00977026 0)
(0.016736 -0.014975 0)
(0.0314985 -0.0188846 0)
(0.0494498 -0.021481 0)
(0.0701731 -0.0230716 0)
(0.0932389 -0.0238365 0)
(0.118131 -0.0238908 0)
(0.144392 -0.0234135 0)
(0.171633 -0.0225954 0)
(0.199478 -0.0215878 0)
(0.227542 -0.0204966 0)
(0.255465 -0.0193927 0)
(0.282991 -0.0183115 0)
(0.310027 -0.0172561 0)
(0.336606 -0.0161987 0)
(0.362776 -0.0151061 0)
(0.388475 -0.0139697 0)
(0.413483 -0.0128436 0)
(0.437507 -0.0118497 0)
(0.460345 -0.0111589 0)
(0.482059 -0.0109437 0)
(0.503062 -0.0113395 0)
(0.524087 -0.0124175 0)
(0.546077 -0.014192 0)
(0.570021 -0.0166415 0)
(0.59682 -0.0197533 0)
(0.627197 -0.023545 0)
(0.661699 -0.0281033 0)
(0.700711 -0.033587 0)
(0.744558 -0.0402413 0)
(0.79358 -0.0483961 0)
(0.848217 -0.0584867 0)
(0.909088 -0.071045 0)
(0.977037 -0.0867626 0)
(1.05323 -0.106466 0)
(1.13914 -0.131263 0)
(1.23675 -0.162503 0)
(1.34837 -0.20199 0)
(1.47729 -0.252112 0)
(1.62699 -0.315721 0)
(1.80284 -0.397615 0)
(2.01005 -0.501816 0)
(2.25733 -0.639393 0)
(2.55248 -0.814864 0)
(2.90851 -1.05584 0)
(3.33509 -1.36815 0)
(3.8424 -1.81864 0)
(4.42091 -2.4304 0)
(5.01949 -3.31335 0)
(0.000395237 -0.00390992 0)
(0.00605696 -0.0104952 0)
(0.0167567 -0.0160744 0)
(0.0315674 -0.0203361 0)
(0.0495715 -0.0232346 0)
(0.0703361 -0.0250765 0)
(0.0934332 -0.0260579 0)
(0.118335 -0.0262932 0)
(0.144569 -0.0259603 0)
(0.17174 -0.0252523 0)
(0.199488 -0.0243214 0)
(0.227452 -0.0232741 0)
(0.255306 -0.0221865 0)
(0.28283 -0.0211063 0)
(0.309966 -0.020051 0)
(0.336789 -0.0190004 0)
(0.363401 -0.0179165 0)
(0.389795 -0.0167762 0)
(0.415805 -0.0156191 0)
(0.44116 -0.0145647 0)
(0.465647 -0.0138001 0)
(0.489274 -0.0135309 0)
(0.512383 -0.0139322 0)
(0.535641 -0.0151108 0)
(0.559952 -0.0171029 0)
(0.58631 -0.0198924 0)
(0.615657 -0.0234574 0)
(0.648785 -0.0277991 0)
(0.686311 -0.0329861 0)
(0.728682 -0.0391647 0)
(0.776256 -0.0465763 0)
(0.829372 -0.0555583 0)
(0.888429 -0.0665639 0)
(0.953959 -0.0801534 0)
(1.02669 -0.0970559 0)
(1.1076 -0.118147 0)
(1.19797 -0.14459 0)
(1.29942 -0.177813 0)
(1.414 -0.219691 0)
(1.54427 -0.272752 0)
(1.69336 -0.339945 0)
(1.86518 -0.426281 0)
(2.06452 -0.536012 0)
(2.2971 -0.680319 0)
(2.56998 -0.864616 0)
(2.89023 -1.11551 0)
(3.26508 -1.44161 0)
(3.69324 -1.90383 0)
(4.1597 -2.52503 0)
(4.59962 -3.39739 0)
(0.000392767 -0.00418745 0)
(0.00606183 -0.0112449 0)
(0.0167794 -0.0172108 0)
(0.0316373 -0.0218352 0)
(0.049692 -0.0250463 0)
(0.0704919 -0.0271468 0)
(0.0936147 -0.0283494 0)
(0.118531 -0.0287693 0)
(0.144755 -0.0285826 0)
(0.17189 -0.0279851 0)
(0.199578 -0.0271311 0)
(0.227468 -0.0261284 0)
(0.255248 -0.0250595 0)
(0.282714 -0.0239848 0)
(0.309827 -0.0229371 0)
(0.336685 -0.0219051 0)
(0.363415 -0.0208471 0)
(0.39005 -0.0197258 0)
(0.416463 -0.0185652 0)
(0.44242 -0.0174801 0)
(0.467723 -0.0166712 0)
(0.492373 -0.0163746 0)
(0.516682 -0.0168047 0)
(0.541281 -0.0181053 0)
(0.56704 -0.0203372 0)
(0.59494 -0.0234941 0)
(0.625932 -0.0275481 0)
(0.660842 -0.0324857 0)
(0.700329 -0.0383578 0)
(0.744884 -0.0452966 0)
(0.794898 -0.053537 0)
(0.85072 -0.06342 0)
(0.912729 -0.0754125 0)
(0.981412 -0.0900986 0)
(1.05742 -0.108239 0)
(1.14158 -0.130754 0)
(1.23504 -0.158851 0)
(1.33913 -0.194031 0)
(1.45566 -0.238223 0)
(1.58663 -0.294076 0)
(1.73481 -0.364607 0)
(1.90296 -0.454995 0)
(2.09535 -0.569674 0)
(2.3153 -0.719835 0)
(2.5689 -0.911626 0)
(2.85839 -1.17054 0)
(3.1885 -1.50711 0)
(3.54855 -1.97658 0)
(3.91983 -2.59996 0)
(4.22803 -3.45418 0)
(0.000390414 -0.00447281 0)
(0.006068 -0.0120197 0)
(0.0168032 -0.0183856 0)
(0.0317072 -0.0233835 0)
(0.0498127 -0.0269177 0)
(0.0706462 -0.0292841 0)
(0.0937908 -0.030713 0)
(0.118717 -0.0313215 0)
(0.144934 -0.0312836 0)
(0.172042 -0.0307979 0)
(0.199684 -0.0300212 0)
(0.227514 -0.0290634 0)
(0.255227 -0.0280135 0)
(0.282627 -0.0269453 0)
(0.309682 -0.0259077 0)
(0.336499 -0.0248989 0)
(0.363215 -0.0238741 0)
(0.389876 -0.0227821 0)
(0.416378 -0.0216318 0)
(0.442515 -0.0205328 0)
(0.468112 -0.0196985 0)
(0.493188 -0.0193943 0)
(0.518053 -0.0198733 0)
(0.543324 -0.0213161 0)
(0.569853 -0.0238098 0)
(0.598605 -0.0273589 0)
(0.630525 -0.0319319 0)
(0.666445 -0.0375021 0)
(0.707043 -0.0441034 0)
(0.752832 -0.0518536 0)
(0.804226 -0.0609793 0)
(0.861578 -0.0718235 0)
(0.925275 -0.0848627 0)
(0.995758 -0.100703 0)
(1.07363 -0.120131 0)
(1.15964 -0.144107 0)
(1.25481 -0.173876 0)
(1.36025 -0.211004 0)
(1.47761 -0.257456 0)
(1.6084 -0.315989 0)
(1.75514 -0.389664 0)
(1.91965 -0.48378 0)
(2.10569 -0.602913 0)
(2.31475 -0.75817 0)
(2.55182 -0.956278 0)
(2.81544 -1.2215 0)
(3.10792 -1.56558 0)
(3.41153 -2.03835 0)
(3.70512 -2.65796 0)
(3.90951 -3.48822 0)
(0.000388229 -0.00476627 0)
(0.00607546 -0.0128206 0)
(0.0168277 -0.0196004 0)
(0.0317759 -0.0249824 0)
(0.0499326 -0.0288505 0)
(0.0707994 -0.0314906 0)
(0.0939636 -0.0331506 0)
(0.118898 -0.0339518 0)
(0.145107 -0.0340657 0)
(0.172188 -0.0336934 0)
(0.199787 -0.0329947 0)
(0.227562 -0.0320819 0)
(0.255211 -0.0310508 0)
(0.282545 -0.0299894 0)
(0.309536 -0.0289627 0)
(0.336291 -0.0279785 0)
(0.362949 -0.026989 0)
(0.389555 -0.0259297 0)
(0.41601 -0.0247943 0)
(0.442122 -0.0236882 0)
(0.467741 -0.0228378 0)
(0.492904 -0.0225383 0)
(0.517937 -0.0230809 0)
(0.54346 -0.0246831 0)
(0.570316 -0.0274578 0)
(0.599458 -0.0314209 0)
(0.631816 -0.0365381 0)
(0.668217 -0.04277 0)
(0.709337 -0.0501341 0)
(0.755695 -0.0587338 0)
(0.80771 -0.0687873 0)
(0.865742 -0.0806378 0)
(0.930166 -0.0947704 0)
(1.00141 -0.11181 0)
(1.08005 -0.132566 0)
(1.16675 -0.158037 0)
(1.26246 -0.189496 0)
(1.36815 -0.228567 0)
(1.48528 -0.277246 0)
(1.61507 -0.338371 0)
(1.75974 -0.415037 0)
(1.92046 -0.512619 0)
(2.10043 -0.635801 0)
(2.29987 -0.795518 0)
(2.52261 -0.998932 0)
(2.76453 -1.269 0)
(3.02564 -1.61805 0)
(3.28345 -2.09074 0)
(3.5153 -2.702 0)
(3.64111 -3.50416 0)
(0.000386227 -0.0050681 0)
(0.00608417 -0.0136483 0)
(0.0168526 -0.0208567 0)
(0.0318428 -0.0266335 0)
(0.0500506 -0.0308465 0)
(0.0709505 -0.0337684 0)
(0.0941328 -0.0356646 0)
(0.119074 -0.0366625 0)
(0.145273 -0.0369311 0)
(0.172327 -0.036674 0)
(0.199884 -0.0360542 0)
(0.227603 -0.0351865 0)
(0.255188 -0.0341741 0)
(0.282454 -0.0331194 0)
(0.309379 -0.0321039 0)
(0.33607 -0.0311448 0)
(0.362658 -0.030191 0)
(0.389183 -0.029164 0)
(0.41554 -0.0280433 0)
(0.441546 -0.026931 0)
(0.467064 -0.0260677 0)
(0.492151 -0.0257792 0)
(0.517154 -0.0263955 0)
(0.542701 -0.0281706 0)
(0.569635 -0.0312428 0)
(0.598898 -0.0356391 0)
(0.631407 -0.0413217 0)
(0.667971 -0.048239 0)
(0.709256 -0.0563919 0)
(0.755774 -0.0658697 0)
(0.807937 -0.0768818 0)
(0.8661 -0.0897714 0)
(0.930634 -0.105031 0)
(1.00195 -0.123303 0)
(1.08059 -0.145418 0)
(1.16716 -0.172408 0)
(1.26256 -0.20557 0)
(1.36763 -0.246582 0)
(1.48371 -0.29746 0)
(1.61177 -0.361108 0)
(1.75378 -0.440645 0)
(1.91045 -0.541476 0)
(2.08445 -0.668372 0)
(2.27506 -0.83202 0)
(2.48504 -1.03988 0)
(2.70835 -1.31354 0)
(2.94305 -1.66543 0)
(3.16371 -2.13531 0)
(3.34693 -2.73478 0)
(3.41466 -3.50625 0)
(0.000384428 -0.00537864 0)
(0.00609402 -0.0145036 0)
(0.016878 -0.0221559 0)
(0.0319074 -0.0283382 0)
(0.0501655 -0.0329073 0)
(0.0710981 -0.0361199 0)
(0.0942968 -0.0382573 0)
(0.119243 -0.0394558 0)
(0.145432 -0.0398823 0)
(0.172458 -0.0397422 0)
(0.199971 -0.0392019 0)
(0.227634 -0.0383793 0)
(0.255153 -0.0373854 0)
(0.282349 -0.0363375 0)
(0.309206 -0.0353335 0)
(0.335831 -0.0344 0)
(0.362346 -0.0334814 0)
(0.388781 -0.0324852 0)
(0.415026 -0.0313768 0)
(0.440894 -0.0302561 0)
(0.466262 -0.0293796 0)
(0.491207 -0.029105 0)
(0.51609 -0.0298021 0)
(0.541554 -0.0317611 0)
(0.568444 -0.0351454 0)
(0.597693 -0.0399919 0)
(0.630202 -0.0462589 0)
(0.666762 -0.0538817 0)
(0.70802 -0.0628447 0)
(0.754472 -0.0732227 0)
(0.806519 -0.0852164 0)
(0.864503 -0.0991688 0)
(0.928782 -0.115579 0)
(0.999742 -0.135107 0)
(1.07791 -0.158602 0)
(1.16384 -0.187126 0)
(1.25837 -0.222 0)
(1.36224 -0.264945 0)
(1.47669 -0.317997 0)
(1.6025 -0.384105 0)
(1.74138 -0.466411 0)
(1.89372 -0.570304 0)
(2.06167 -0.700627 0)
(2.24387 -0.867751 0)
(2.44202 -1.07931 0)
(2.64882 -1.35551 0)
(2.8606 -1.70846 0)
(3.05042 -2.17333 0)
(3.19473 -2.75856 0)
(3.21945 -3.49792 0)
(0.000382841 -0.0056982 0)
(0.00610488 -0.0153871 0)
(0.0169034 -0.0234997 0)
(0.031969 -0.0300983 0)
(0.0502764 -0.0350347 0)
(0.0712411 -0.0385473 0)
(0.0944545 -0.0409311 0)
(0.119404 -0.0423341 0)
(0.145582 -0.0429217 0)
(0.172579 -0.0429005 0)
(0.200047 -0.0424404 0)
(0.227652 -0.0416628 0)
(0.255103 -0.0406871 0)
(0.282228 -0.0396458 0)
(0.309015 -0.0386537 0)
(0.33557 -0.0377461 0)
(0.36201 -0.0368622 0)
(0.388352 -0.0358948 0)
(0.414476 -0.0347953 0)
(0.440197 -0.0336627 0)
(0.465397 -0.0327711 0)
(0.490171 -0.0325119 0)
(0.514899 -0.0332951 0)
(0.540235 -0.0354479 0)
(0.567026 -0.0391577 0)
(0.596197 -0.0444705 0)
(0.628635 -0.0513395 0)
(0.66511 -0.0596861 0)
(0.706246 -0.0694776 0)
(0.75252 -0.0807742 0)
(0.804315 -0.0937676 0)
(0.861956 -0.108801 0)
(0.925783 -0.126379 0)
(0.99616 -0.147179 0)
(1.07358 -0.172065 0)
(1.15857 -0.202132 0)
(1.25188 -0.238719 0)
(1.3542 -0.283585 0)
(1.46663 -0.338781 0)
(1.58982 -0.407287 0)
(1.72522 -0.492261 0)
(1.87296 -0.599046 0)
(2.03473 -0.732532 0)
(2.20865 -0.902722 0)
(2.39547 -1.11733 0)
(2.587 -1.39511 0)
(2.77818 -1.74764 0)
(2.94147 -2.20575 0)
(3.05377 -2.77501 0)
(3.04577 -3.48176 0)
(0.000381476 -0.00602716 0)
(0.00611658 -0.0162996 0)
(0.0169286 -0.0248895 0)
(0.0320272 -0.0319155 0)
(0.0503823 -0.0372304 0)
(0.0713782 -0.0410528 0)
(0.0946043 -0.0436884 0)
(0.119556 -0.0452999 0)
(0.14572 -0.0460517 0)
(0.172687 -0.0461513 0)
(0.20011 -0.0457721 0)
(0.227655 -0.0450394 0)
(0.255037 -0.0440813 0)
(0.282088 -0.0430466 0)
(0.308802 -0.0420668 0)
(0.335285 -0.0411853 0)
(0.361647 -0.0403355 0)
(0.387892 -0.0393944 0)
(0.413891 -0.0383 0)
(0.439457 -0.0371515 0)
(0.464481 -0.0362421 0)
(0.489073 -0.0359989 0)
(0.51363 -0.0368733 0)
(0.538817 -0.0392291 0)
(0.565485 -0.0432775 0)
(0.594551 -0.0490723 0)
(0.626884 -0.0565604 0)
(0.663233 -0.0656483 0)
(0.7042 -0.0762853 0)
(0.750239 -0.0885168 0)
(0.801713 -0.102525 0)
(0.858926 -0.118653 0)
(0.922197 -0.137413 0)
(0.991866 -0.159494 0)
(1.06839 -0.185781 0)
(1.15225 -0.217392 0)
(1.24416 -0.255687 0)
(1.3447 -0.302453 0)
(1.45486 -0.359758 0)
(1.57516 -0.430595 0)
(1.70682 -0.518134 0)
(1.84975 -0.627641 0)
(2.00514 -0.764032 0)
(2.17075 -0.9369 0)
(2.34645 -1.15393 0)
(2.5234 -1.43243 0)
(2.69542 -1.78326 0)
(2.83505 -2.23318 0)
(2.91991 -2.78527 0)
(2.88603 -3.45949 0)
(0.000380328 -0.00636588 0)
(0.00612894 -0.0172419 0)
(0.0169536 -0.026327 0)
(0.0320815 -0.0337914 0)
(0.0504823 -0.0394962 0)
(0.0715083 -0.0436386 0)
(0.0947448 -0.0465318 0)
(0.119695 -0.0483555 0)
(0.145845 -0.0492749 0)
(0.172781 -0.0494972 0)
(0.200156 -0.0491994 0)
(0.227641 -0.0485113 0)
(0.254951 -0.0475705 0)
(0.281927 -0.0465421 0)
(0.308565 -0.0455749 0)
(0.334973 -0.0447198 0)
(0.361253 -0.0439031 0)
(0.387397 -0.0429859 0)
(0.413267 -0.0418925 0)
(0.438673 -0.0407234 0)
(0.463515 -0.0397935 0)
(0.487918 -0.0395666 0)
(0.512295 -0.0405368 0)
(0.537323 -0.043105 0)
(0.563854 -0.047505 0)
(0.592797 -0.0537976 0)
(0.625006 -0.0619216 0)
(0.661207 -0.0717679 0)
(0.701977 -0.0832668 0)
(0.747749 -0.0964483 0)
(0.79886 -0.111486 0)
(0.855595 -0.128721 0)
(0.918249 -0.148671 0)
(0.987133 -0.172041 0)
(1.06267 -0.199731 0)
(1.1453 -0.232883 0)
(1.23566 -0.272874 0)
(1.33427 -0.321515 0)
(1.44199 -0.380886 0)
(1.55921 -0.453978 0)
(1.68693 -0.543971 0)
(1.82482 -0.656023 0)
(1.97367 -0.795054 0)
(2.13085 -0.97021 0)
(2.29547 -1.18906 0)
(2.45821 -1.46748 0)
(2.61199 -1.81545 0)
(2.72988 -2.25601 0)
(2.79046 -2.79006 0)
(2.73507 -3.43219 0)
(0.000379394 -0.00671475 0)
(0.00614175 -0.0182146 0)
(0.0169778 -0.0278136 0)
(0.0321314 -0.0357278 0)
(0.0505752 -0.041834 0)
(0.07163 -0.0463068 0)
(0.0948747 -0.0494638 0)
(0.119821 -0.0515037 0)
(0.145955 -0.0525936 0)
(0.172858 -0.0529408 0)
(0.200185 -0.052725 0)
(0.227606 -0.0520811 0)
(0.254844 -0.0511569 0)
(0.281742 -0.0501346 0)
(0.308302 -0.0491803 0)
(0.334632 -0.0483517 0)
(0.360826 -0.0475672 0)
(0.386865 -0.0466708 0)
(0.412601 -0.0455739 0)
(0.437842 -0.0443797 0)
(0.462497 -0.0434259 0)
(0.486705 -0.0432156 0)
(0.510895 -0.0442864 0)
(0.535756 -0.0470763 0)
(0.56214 -0.0518412 0)
(0.590949 -0.0586472 0)
(0.623018 -0.0674242 0)
(0.659051 -0.0780456 0)
(0.699604 -0.0904221 0)
(0.745081 -0.104568 0)
(0.7958 -0.120647 0)
(0.852019 -0.138999 0)
(0.914008 -0.160147 0)
(0.982051 -0.184811 0)
(1.05653 -0.213903 0)
(1.13785 -0.248588 0)
(1.22656 -0.290258 0)
(1.32312 -0.34074 0)
(1.42826 -0.402126 0)
(1.54225 -0.477388 0)
(1.66584 -0.56971 0)
(1.79853 -0.684118 0)
(1.94064 -0.825508 0)
(2.08927 -1.00256 0)
(2.24277 -1.22263 0)
(2.39153 -1.50018 0)
(2.52775 -1.84426 0)
(2.62528 -2.27445 0)
(2.66388 -2.78984 0)
(2.58996 -3.40052 0)
(0.000378654 -0.00707418 0)
(0.00615476 -0.0192186 0)
(0.0170012 -0.0293509 0)
(0.0321766 -0.0377266 0)
(0.0506601 -0.0442454 0)
(0.0717421 -0.0490594 0)
(0.0949925 -0.052487 0)
(0.119932 -0.0547468 0)
(0.146047 -0.0560106 0)
(0.172916 -0.0564846 0)
(0.200192 -0.0563514 0)
(0.227549 -0.0557513 0)
(0.254712 -0.054843 0)
(0.28153 -0.0538266 0)
(0.30801 -0.0528852 0)
(0.334258 -0.0520831 0)
(0.360362 -0.0513296 0)
(0.386292 -0.0504511 0)
(0.41189 -0.0493458 0)
(0.436962 -0.0481213 0)
(0.461425 -0.0471402 0)
(0.485433 -0.0469466 0)
(0.50943 -0.0481228 0)
(0.534115 -0.0511438 0)
(0.560343 -0.056287 0)
(0.589004 -0.0636222 0)
(0.620919 -0.0730689 0)
(0.656768 -0.0844821 0)
(0.697081 -0.0977517 0)
(0.742239 -0.112875 0)
(0.792535 -0.130007 0)
(0.848202 -0.149484 0)
(0.909484 -0.171836 0)
(0.976635 -0.197794 0)
(1.05 -0.228285 0)
(1.12992 -0.26449 0)
(1.2169 -0.307816 0)