/*--------------------------------*- C++ -*----------------------------------*\
  =========                 |
  \\      /  F ield         | OpenFOAM: The Open Source CFD Toolbox
   \\    /   O peration     | Website:  https://openfoam.org
    \\  /    A nd           | Version:  7
     \\/     M anipulation  |
\*---------------------------------------------------------------------------*/
FoamFile
{
    version     2.0;
    format      ascii;
    class       surfaceScalarField;
    location    "0.31";
    object      ddtCorrDdt0(phi);
}
// * * * * * * * * * * * * * * * * * * * * * * * * * * * * * * * * * * * * * //

dimensions      [0 3 -2 0 0 0 0];

internalField   nonuniform List<scalar> 
139350
(
8.92292e-10
-8.93375e-10
2.30268e-09
-1.41206e-09
3.83431e-09
-1.53415e-09
5.30526e-09
-1.4728e-09
6.69603e-09
-1.3928e-09
8.0107e-09
-1.31663e-09
9.24964e-09
-1.24104e-09
1.04277e-08
-1.17997e-09
1.15657e-08
-1.14018e-09
1.26862e-08
-1.12222e-09
1.38087e-08
-1.12465e-09
1.49522e-08
-1.14497e-09
1.61293e-08
-1.17882e-09
1.73487e-08
-1.22077e-09
1.86136e-08
-1.26655e-09
1.99255e-08
-1.31345e-09
2.12853e-08
-1.36174e-09
2.26973e-08
-1.41348e-09
2.41673e-08
-1.47189e-09
2.57067e-08
-1.54063e-09
2.73291e-08
-1.62366e-09
2.90518e-08
-1.7238e-09
3.08955e-08
-1.84463e-09
3.28832e-08
-1.98837e-09
3.50399e-08
-2.15768e-09
3.73952e-08
-2.35535e-09
3.99801e-08
-2.58575e-09
4.28336e-08
-2.85313e-09
4.59988e-08
-3.16539e-09
4.9529e-08
-3.52988e-09
5.34865e-08
-3.95736e-09
5.79468e-08
-4.45974e-09
6.30004e-08
-5.05375e-09
6.87598e-08
-5.75775e-09
7.53559e-08
-6.59618e-09
8.29567e-08
-7.59863e-09
9.17572e-08
-8.79972e-09
1.02015e-07
-1.02563e-08
1.14022e-07
-1.20056e-08
1.28195e-07
-1.41727e-08
1.44962e-07
-1.67663e-08
1.65048e-07
-2.00846e-08
1.89071e-07
-2.40222e-08
2.18379e-07
-2.93066e-08
2.53891e-07
-3.55101e-08
2.98328e-07
-4.44336e-08
3.53038e-07
-5.47071e-08
4.2649e-07
-7.34485e-08
5.05842e-07
-7.93536e-08
-3.69618e-07
8.75456e-07
1.29695e-09
-2.19164e-09
4.11527e-09
-4.23219e-09
7.52379e-09
-4.94537e-09
1.07919e-08
-4.74289e-09
1.37704e-08
-4.3735e-09
1.64862e-08
-4.0346e-09
1.89448e-08
-3.70188e-09
2.11768e-08
-3.41409e-09
2.32431e-08
-3.20887e-09
2.52139e-08
-3.0949e-09
2.71514e-08
-3.06433e-09
2.91059e-08
-3.10107e-09
3.1108e-08
-3.18284e-09
3.31718e-08
-3.2861e-09
3.52973e-08
-3.39381e-09
3.74795e-08
-3.49739e-09
3.9715e-08
-3.59926e-09
4.20074e-08
-3.70757e-09
4.43679e-08
-3.83434e-09
4.68178e-08
-3.99188e-09
4.93855e-08
-4.19273e-09
5.21066e-08
-4.44608e-09
5.5023e-08
-4.76196e-09
5.81813e-08
-5.14747e-09
6.16335e-08
-5.61094e-09
6.54387e-08
-6.16049e-09
6.9662e-08
-6.80997e-09
7.43824e-08
-7.5731e-09
7.96904e-08
-8.4735e-09
8.56963e-08
-9.53552e-09
9.25322e-08
-1.07931e-08
1.00356e-07
-1.22834e-08
1.09362e-07
-1.40594e-08
1.19785e-07
-1.61789e-08
1.31909e-07
-1.87205e-08
1.46091e-07
-2.17776e-08
1.62756e-07
-2.54648e-08
1.82456e-07
-2.9954e-08
2.05845e-07
-3.53933e-08
2.33805e-07
-4.21325e-08
2.6735e-07
-5.03097e-08
3.07985e-07
-6.07187e-08
3.57249e-07
-7.32852e-08
4.18008e-07
-9.00643e-08
4.92397e-07
-1.09896e-07
5.87039e-07
-1.39073e-07
7.02907e-07
-1.70571e-07
8.64795e-07
-2.35334e-07
1.05647e-06
-2.71028e-07
-7.23235e-07
1.41008e-06
1.07405e-09
-3.26719e-09
4.17206e-09
-7.33214e-09
8.49962e-09
-9.27576e-09
1.29786e-08
-9.22403e-09
1.70845e-08
-8.48176e-09
2.0726e-08
-7.67837e-09
2.39e-08
-6.87824e-09
2.66435e-08
-6.15979e-09
2.9043e-08
-5.61093e-09
3.12114e-08
-5.26527e-09
3.32559e-08
-5.11116e-09
3.52631e-08
-5.11004e-09
3.72859e-08
-5.20759e-09
3.93463e-08
-5.34808e-09
4.14424e-08
-5.49184e-09
4.35633e-08
-5.62012e-09
4.56994e-08
-5.73759e-09
4.78513e-08
-5.8611e-09
5.00297e-08
-6.01488e-09
5.22593e-08
-6.22289e-09
5.4574e-08
-6.50881e-09
5.70169e-08
-6.89021e-09
5.96388e-08
-7.38493e-09
6.2497e-08
-8.00642e-09
6.56552e-08
-8.77028e-09
6.91865e-08
-9.69173e-09
7.31723e-08
-1.07967e-08
7.77113e-08
-1.21116e-08
8.29178e-08
-1.36801e-08
8.89312e-08
-1.55487e-08
9.59197e-08
-1.77813e-08
1.04085e-07
-2.04482e-08
1.13674e-07
-2.36488e-08
1.2499e-07
-2.74926e-08
1.38398e-07
-3.21283e-08
1.54355e-07
-3.77329e-08
1.73419e-07
-4.45279e-08
1.96297e-07
-5.28299e-08
2.23856e-07
-6.29514e-08
2.5723e-07
-7.55054e-08
2.97789e-07
-9.08671e-08
3.47465e-07
-1.10395e-07
4.08371e-07
-1.34189e-07
4.8427e-07
-1.65961e-07
5.77932e-07
-2.03557e-07
6.98652e-07
-2.59789e-07
8.46652e-07
-3.18568e-07
1.05503e-06
-4.43706e-07
1.31796e-06
-5.33963e-07
-1.12134e-06
1.71607e-06
7.50668e-10
-4.0195e-09
3.44174e-09
-1.00253e-08
7.78998e-09
-1.3627e-08
1.28468e-08
-1.42831e-08
1.77977e-08
-1.34352e-08
2.22686e-08
-1.21517e-08
2.61243e-08
-1.07364e-08
2.93509e-08
-9.38875e-09
3.20244e-08
-8.28704e-09
3.42759e-08
-7.51884e-09
3.62478e-08
-7.08552e-09
3.80653e-08
-6.92926e-09
3.98123e-08
-6.95668e-09
4.15308e-08
-7.06827e-09
4.32277e-08
-7.19081e-09
4.48943e-08
-7.28851e-09
4.65198e-08
-7.36548e-09
4.81041e-08
-7.4472e-09
4.96581e-08
-7.57102e-09
5.1207e-08
-7.77328e-09
5.27858e-08
-8.08899e-09
5.44385e-08
-8.54422e-09
5.62172e-08
-9.16464e-09
5.81805e-08
-9.97052e-09
6.03946e-08
-1.09856e-08
6.29364e-08
-1.22335e-08
6.58929e-08
-1.37541e-08
6.93704e-08
-1.55887e-08
7.34936e-08
-1.78034e-08
7.84153e-08
-2.04701e-08
8.43203e-08
-2.36862e-08
9.14327e-08
-2.75599e-08
1.00026e-07
-3.22418e-08
1.10436e-07
-3.79006e-08
1.2307e-07
-4.47624e-08
1.38438e-07
-5.30988e-08
1.57165e-07
-6.32539e-08
1.80039e-07
-7.57018e-08
2.08043e-07
-9.09544e-08
2.42441e-07
-1.09902e-07
2.84799e-07
-1.33224e-07
3.37288e-07
-1.62882e-07
4.02323e-07
-1.99224e-07
4.84198e-07
-2.47833e-07
5.86027e-07
-3.05383e-07
7.18462e-07
-3.92221e-07
8.82487e-07
-4.82589e-07
1.11095e-06
-6.72171e-07
1.41401e-06
-8.37022e-07
-1.54394e-06
1.8366e-06
5.68394e-10
-4.58963e-09
2.68281e-09
-1.21418e-08
6.48125e-09
-1.74284e-08
1.14392e-08
-1.92433e-08
1.67764e-08
-1.87749e-08
2.19153e-08
-1.7293e-08
2.65149e-08
-1.53387e-08
3.04168e-08
-1.3293e-08
3.36096e-08
-1.14826e-08
3.61861e-08
-1.00974e-08
3.82865e-08
-9.18848e-09
4.00572e-08
-8.70179e-09
4.16128e-08
-8.51438e-09
4.30241e-08
-8.48139e-09
4.432e-08
-8.48877e-09
4.55057e-08
-8.47608e-09
4.65797e-08
-8.4419e-09
4.75487e-08
-8.41807e-09
4.84297e-08
-8.45426e-09
4.92528e-08
-8.59785e-09
5.00554e-08
-8.89307e-09
5.08818e-08
-9.37193e-09
5.17815e-08
-1.00654e-08
5.28092e-08
-1.09991e-08
5.40269e-08
-1.22044e-08
5.55078e-08
-1.37145e-08
5.73368e-08
-1.5584e-08
5.962e-08
-1.78715e-08
6.24841e-08
-2.06675e-08
6.60861e-08
-2.40718e-08
7.06178e-08
-2.82176e-08
7.63132e-08
-3.32545e-08
8.34577e-08
-3.93865e-08
9.24049e-08
-4.68456e-08
1.03582e-07
-5.59398e-08
1.17526e-07
-6.70404e-08
1.34897e-07
-8.06235e-08
1.56522e-07
-9.73249e-08
1.83448e-07
-1.17879e-07
2.17e-07
-1.43454e-07
2.58854e-07
-1.75077e-07
3.113e-07
-2.15327e-07
3.76925e-07
-2.64849e-07
4.60261e-07
-3.31167e-07
5.64782e-07
-4.09902e-07
7.0125e-07
-5.28686e-07
8.73069e-07
-6.54404e-07
1.10795e-06
-9.07051e-07
1.43111e-06
-1.16018e-06
-1.96935e-06
1.85651e-06
5.34402e-10
-5.12585e-09
2.24087e-09
-1.38505e-08
5.37329e-09
-2.0564e-08
9.80509e-09
-2.36775e-08
1.50199e-08
-2.39924e-08
2.04568e-08
-2.27324e-08
2.56594e-08
-2.05441e-08
3.03152e-08
-1.79512e-08
3.42699e-08
-1.54402e-08
3.75101e-08
-1.33397e-08
4.0113e-08
-1.1794e-08
4.22017e-08
-1.07924e-08
4.38971e-08
-1.02119e-08
4.52915e-08
-9.87773e-09
4.6439e-08
-9.63831e-09
4.7366e-08
-9.40506e-09
4.80882e-08
-9.16662e-09
4.86273e-08
-8.95903e-09
4.90147e-08
-8.84391e-09
4.92943e-08
-8.87906e-09
4.95149e-08
-9.11508e-09
4.9727e-08
-9.5854e-09
4.99811e-08
-1.03205e-08
5.03276e-08
-1.13464e-08
5.08208e-08
-1.26988e-08
5.15253e-08
-1.44189e-08
5.2517e-08
-1.65766e-08
5.38954e-08
-1.92495e-08
5.57819e-08
-2.25541e-08
5.83315e-08
-2.66212e-08
6.17355e-08
-3.16213e-08
6.62307e-08
-3.77488e-08
7.21066e-08
-4.52627e-08
7.97242e-08
-5.44609e-08
8.95209e-08
-6.57365e-08
1.02045e-07
-7.95618e-08
1.17975e-07
-9.65524e-08
1.38156e-07
-1.17504e-07
1.63667e-07
-1.43388e-07
1.95865e-07
-1.75651e-07
2.36477e-07
-2.15688e-07
2.87842e-07
-2.66691e-07
3.52667e-07
-3.29672e-07
4.35482e-07
-4.13979e-07
5.40253e-07
-5.14671e-07
6.76928e-07
-6.65357e-07
8.52159e-07
-8.29631e-07
1.08696e-06
-1.14185e-06
1.41751e-06
-1.49073e-06
-2.38501e-06
1.83316e-06
5.68617e-10
-5.69634e-09
2.11334e-09
-1.53974e-08
4.7771e-09
-2.3231e-08
8.62422e-09
-2.75271e-08
1.34183e-08
-2.87891e-08
1.87675e-08
-2.80843e-08
2.42525e-08
-2.60318e-08
2.94987e-08
-2.31999e-08
3.42371e-08
-2.01815e-08
3.83278e-08
-1.74326e-08
4.17408e-08
-1.52095e-08
4.45258e-08
-1.35793e-08
4.67678e-08
-1.24561e-08
4.85538e-08
-1.16656e-08
4.99484e-08
-1.1035e-08
5.09935e-08
-1.04523e-08
5.17197e-08
-9.89533e-09
5.21632e-08
-9.40444e-09
5.23728e-08
-9.05575e-09
5.24132e-08
-8.92102e-09
5.23549e-08
-9.05831e-09
5.22676e-08
-9.49946e-09
5.22136e-08
-1.02676e-08
5.22471e-08
-1.13807e-08
5.24178e-08
-1.28707e-08
5.27805e-08
-1.47815e-08
5.33982e-08
-1.71953e-08
5.43576e-08
-2.02083e-08
5.5768e-08
-2.39645e-08
5.77752e-08
-2.86281e-08
6.05631e-08
-3.4409e-08
6.43645e-08
-4.15494e-08
6.94665e-08
-5.03648e-08
7.62294e-08
-6.12216e-08
8.50926e-08
-7.45996e-08
9.66062e-08
-9.10729e-08
1.11455e-07
-1.114e-07
1.30489e-07
-1.36537e-07
1.54799e-07
-1.67696e-07
1.85746e-07
-2.06597e-07
2.25081e-07
-2.55022e-07
2.75137e-07
-3.16746e-07
3.38708e-07
-3.93243e-07
4.20157e-07
-4.95426e-07
5.23989e-07
-6.185e-07
6.58907e-07
-8.00272e-07
8.34598e-07
-1.00532e-06
1.06602e-06
-1.37327e-06
1.39328e-06
-1.818e-06
-2.78742e-06
1.79569e-06
6.11215e-10
-6.30949e-09
2.15967e-09
-1.69482e-08
4.62315e-09
-2.56977e-08
8.0749e-09
-3.09814e-08
1.24391e-08
-3.3156e-08
1.75026e-08
-3.31504e-08
2.29729e-08
-3.15049e-08
2.85214e-08
-2.87509e-08
3.38482e-08
-2.55112e-08
3.87321e-08
-2.23188e-08
4.3042e-08
-1.95221e-08
4.67342e-08
-1.72735e-08
4.9826e-08
-1.55501e-08
5.2367e-08
-1.42085e-08
5.44081e-08
-1.30783e-08
5.59895e-08
-1.20357e-08
5.71422e-08
-1.10506e-08
5.79047e-08
-1.01689e-08
5.83333e-08
-9.48667e-09
5.85093e-08
-9.09867e-09
5.85287e-08
-9.07916e-09
5.84905e-08
-9.46262e-09
5.84839e-08
-1.02622e-08
5.85818e-08
-1.14794e-08
5.88412e-08
-1.31313e-08
5.93137e-08
-1.5254e-08
6.0051e-08
-1.79335e-08
6.11238e-08
-2.12807e-08
6.2624e-08
-2.54647e-08
6.46806e-08
-3.06844e-08
6.7463e-08
-3.71911e-08
7.11916e-08
-4.52771e-08
7.61434e-08
-5.53167e-08
8.26698e-08
-6.77458e-08
9.12033e-08
-8.3133e-08
1.02286e-07
-1.02153e-07
1.16598e-07
-1.25711e-07
1.34978e-07
-1.54915e-07
1.58509e-07
-1.91226e-07
1.88539e-07
-2.36627e-07
2.26811e-07
-2.93292e-07
2.75604e-07
-3.65538e-07
3.37762e-07
-4.554e-07
4.17381e-07
-5.75042e-07
5.19399e-07
-7.20516e-07
6.5125e-07
-9.3212e-07
8.24685e-07
-1.17875e-06
1.0501e-06
-1.59868e-06
1.36598e-06
-2.13389e-06
-3.16894e-06
1.74749e-06
6.41517e-10
-6.95299e-09
2.25627e-09
-1.85653e-08
4.7123e-09
-2.81571e-08
8.01395e-09
-3.42856e-08
1.21143e-08
-3.72592e-08
1.691e-08
-3.79487e-08
2.2232e-08
-3.68299e-08
2.78479e-08
-3.43694e-08
3.35013e-08
-3.11677e-08
3.89592e-08
-2.77789e-08
4.40371e-08
-2.46027e-08
4.86192e-08
-2.18576e-08
5.26535e-08
-1.95866e-08
5.61379e-08
-1.76949e-08
5.90921e-08
-1.60348e-08
6.15374e-08
-1.44831e-08
6.34894e-08
-1.30051e-08
6.49706e-08
-1.16521e-08
6.60253e-08
-1.05437e-08
6.67337e-08
-9.80873e-09
6.72062e-08
-9.55319e-09
6.75706e-08
-9.82832e-09
6.79517e-08
-1.06444e-08
6.8456e-08
-1.19846e-08
6.91648e-08
-1.38414e-08
7.01412e-08
-1.62303e-08
7.14345e-08
-1.92276e-08
7.31033e-08
-2.2949e-08
7.52208e-08
-2.75821e-08
7.78945e-08
-3.33578e-08
8.12719e-08
-4.05682e-08
8.55529e-08
-4.95573e-08
9.09955e-08
-6.07594e-08
9.79328e-08
-7.4681e-08
1.0678e-07
-9.19799e-08
1.18061e-07
-1.13431e-07
1.32433e-07
-1.40082e-07
1.50714e-07
-1.73195e-07
1.73957e-07
-2.14467e-07
2.0347e-07
-2.66139e-07
2.40953e-07
-3.30774e-07
2.88597e-07
-4.13181e-07
3.49221e-07
-5.16023e-07
4.26614e-07
-6.52433e-07
5.25927e-07
-8.19827e-07
6.53469e-07
-1.05966e-06
8.21907e-07
-1.34719e-06
1.03834e-06
-1.81511e-06
1.33607e-06
-2.43162e-06
-3.52152e-06
1.68865e-06
6.61686e-10
-7.61671e-09
2.35004e-09
-2.02561e-08
4.88264e-09
-3.0693e-08
8.20482e-09
-3.76104e-08
1.22369e-08
-4.12941e-08
1.69014e-08
-4.26159e-08
2.21019e-08
-4.20333e-08
2.76912e-08
-3.99613e-08
3.3482e-08
-3.69615e-08
3.92782e-08
-3.35775e-08
4.48958e-08
-3.0223e-08
5.01886e-08
-2.71524e-08
5.50606e-08
-2.44608e-08
5.94676e-08
-2.21039e-08
6.3398e-08
-1.99674e-08
6.68499e-08
-1.79371e-08
6.98163e-08
-1.5974e-08
7.22923e-08
-1.41302e-08
7.42924e-08
-1.2546e-08
7.58732e-08
-1.13912e-08
7.71381e-08
-1.08196e-08
7.82284e-08
-1.09199e-08
7.92999e-08
-1.1717e-08
8.0499e-08
-1.31845e-08
8.19446e-08
-1.52883e-08
8.37276e-08
-1.80132e-08
8.59102e-08
-2.1411e-08
8.85495e-08
-2.55878e-08
9.17055e-08
-3.07381e-08
9.54643e-08
-3.71162e-08
9.99481e-08
-4.50517e-08
1.0533e-07
-5.49382e-08
1.11841e-07
-6.72702e-08
1.19786e-07
-8.26241e-08
1.29553e-07
-1.01746e-07
1.41634e-07
-1.2551e-07
1.56653e-07
-1.551e-07
1.75386e-07
-1.91927e-07
1.98833e-07
-2.37912e-07
2.2824e-07
-2.95545e-07
2.65223e-07
-3.67756e-07
3.11848e-07
-4.59805e-07
3.70824e-07
-5.74998e-07
4.45608e-07
-7.27215e-07
5.41306e-07
-9.15523e-07
6.6324e-07
-1.18159e-06
8.23976e-07
-1.50792e-06
1.02808e-06
-2.01922e-06
1.30181e-06
-2.70535e-06
-3.83788e-06
1.61816e-06
6.78805e-10
-8.29758e-09
2.4333e-09
-2.2013e-08
5.06298e-09
-3.33261e-08
8.48415e-09
-4.10342e-08
1.25794e-08
-4.53922e-08
1.72563e-08
-4.72956e-08
2.2438e-08
-4.72179e-08
2.80219e-08
-4.55479e-08
3.38775e-08
-4.28201e-08
3.98581e-08
-3.95605e-08
4.5809e-08
-3.61767e-08
5.15904e-08
-3.29358e-08
5.70938e-08
-2.99665e-08
6.2256e-08
-2.72681e-08
6.70479e-08
-2.47615e-08
7.14536e-08
-2.2345e-08
7.54496e-08
-1.99725e-08
7.90055e-08
-1.76881e-08
8.21e-08
-1.56429e-08
8.47523e-08
-1.40453e-08
8.70379e-08
-1.31067e-08
8.90898e-08
-1.29732e-08
9.10789e-08
-1.37073e-08
9.31844e-08
-1.52907e-08
9.55663e-08
-1.76713e-08
9.83535e-08
-2.08003e-08
1.01636e-07
-2.46941e-08
1.05482e-07
-2.94341e-08
1.09951e-07
-3.52067e-08
1.15113e-07
-4.22779e-08
1.21067e-07
-5.10055e-08
1.27958e-07
-6.18276e-08
1.35983e-07
-7.52954e-08
1.45415e-07
-9.20535e-08
1.56602e-07
-1.12934e-07
1.69998e-07
-1.38903e-07
1.86176e-07
-1.71277e-07
2.05858e-07
-2.11607e-07
2.29967e-07
-2.62019e-07
2.59665e-07
-3.25242e-07
2.96441e-07
-4.04531e-07
3.42205e-07
-5.05568e-07
3.99469e-07
-6.32261e-07
4.71328e-07
-7.99072e-07
5.62615e-07
-1.00681e-06
6.77727e-07
-1.2967e-06
8.28314e-07
-1.6585e-06
1.01684e-06
-2.20774e-06
1.26179e-06
-2.95031e-06
-4.1121e-06
1.536e-06
6.96542e-10
-8.99623e-09
2.5129e-09
-2.38318e-08
5.2375e-09
-3.60542e-08
8.78e-09
-4.45794e-08
1.29999e-08
-4.9615e-08
1.7781e-08
-5.20795e-08
2.30407e-08
-5.24806e-08
2.8689e-08
-5.1199e-08
3.46223e-08
-4.87565e-08
4.07296e-08
-4.56702e-08
4.68897e-08
-4.23395e-08
5.29847e-08
-3.9033e-08
5.89159e-08
-3.58999e-08
6.46211e-08
-3.29753e-08
7.00709e-08
-3.02136e-08
7.52497e-08
-2.75259e-08
8.0131e-08
-2.48564e-08
8.4671e-08
-2.22302e-08
8.88211e-08
-1.97953e-08
9.25627e-08
-1.77886e-08
9.5934e-08
-1.64795e-08
9.90435e-08
-1.60841e-08
1.02058e-07
-1.67231e-08
1.05175e-07
-1.84085e-08
1.08588e-07
-2.10851e-08
1.12464e-07
-2.46765e-08
1.16929e-07
-2.91594e-08
1.22075e-07
-3.45797e-08
1.27969e-07
-4.11012e-08
1.34679e-07
-4.89871e-08
1.42286e-07
-5.8612e-08
1.50909e-07
-7.04493e-08
1.60714e-07
-8.51009e-08
1.71937e-07
-1.03274e-07
1.84885e-07
-1.25881e-07
1.99962e-07
-1.53978e-07
2.17683e-07
-1.88997e-07
2.38705e-07
-2.32627e-07
2.63855e-07
-2.87168e-07
2.94193e-07
-3.55579e-07
3.31049e-07
-4.41386e-07
3.76147e-07
-5.50665e-07
4.31732e-07
-6.87845e-07
5.00501e-07
-8.67839e-07
5.86833e-07
-1.09314e-06
6.94215e-07
-1.40408e-06
8.32783e-07
-1.79707e-06
1.00307e-06
-2.37803e-06
1.21605e-06
-3.1633e-06
-4.34038e-06
1.44433e-06
7.15519e-10
-9.71389e-09
2.59439e-09
-2.57132e-08
5.41092e-09
-3.88743e-08
9.07668e-09
-4.82479e-08
1.34404e-08
-5.39816e-08
1.8368e-08
-5.701e-08
2.37656e-08
-5.78812e-08
2.95396e-08
-5.69758e-08
3.5593e-08
-5.4813e-08
4.1831e-08
-5.19106e-08
4.81545e-08
-4.86657e-08
5.44665e-08
-4.53471e-08
6.06841e-08
-4.21198e-08
6.67562e-08
-3.90494e-08
7.2663e-08
-3.61227e-08
7.84005e-08
-3.32656e-08
8.39513e-08
-3.04098e-08
8.92727e-08
-2.75537e-08
9.43034e-08
-2.48283e-08
9.89985e-08
-2.24854e-08
1.03363e-07
-2.08453e-08
1.07475e-07
-2.0198e-08
1.11487e-07
-2.07363e-08
1.15599e-07
-2.25211e-08
1.20025e-07
-2.55118e-08
1.24964e-07
-2.96152e-08
1.30575e-07
-3.4771e-08
1.36979e-07
-4.0984e-08
1.44263e-07
-4.83848e-08
1.52498e-07
-5.7221e-08
1.61758e-07
-6.78716e-08
1.72144e-07
-8.08343e-08
1.83795e-07
-9.67527e-08
1.96914e-07
-1.1639e-07
2.11763e-07
-1.4073e-07
2.28701e-07
-1.70913e-07
2.48178e-07
-2.08473e-07
2.70779e-07
-2.55227e-07
2.97229e-07
-3.13616e-07
3.28472e-07
-3.86821e-07
3.65662e-07
-4.78575e-07
4.10312e-07
-5.95313e-07
4.64362e-07
-7.41895e-07
5.30077e-07
-9.33552e-07
6.11256e-07
-1.17432e-06
7.10478e-07
-1.5033e-06
8.35985e-07
-1.92258e-06
9.86482e-07
-2.52853e-06
1.16621e-06
-3.34304e-06
-4.52167e-06
1.34748e-06
7.35404e-10
-1.04515e-08
2.67961e-09
-2.766e-08
5.5886e-09
-4.17868e-08
9.37738e-09
-5.20395e-08
1.38892e-08
-5.84964e-08
1.8978e-08
-6.21016e-08
2.45406e-08
-6.34469e-08
3.04772e-08
-6.29151e-08
3.66875e-08
-6.10265e-08
4.30805e-08
-5.8306e-08
4.95663e-08
-5.51544e-08
5.60605e-08
-5.18433e-08
6.24917e-08
-4.85532e-08
6.88205e-08
-4.53802e-08
7.50399e-08
-4.23444e-08
8.11597e-08
-3.93875e-08
8.71768e-08
-3.64295e-08
9.30589e-08
-3.34378e-08
9.87451e-08
-3.05169e-08
1.04179e-07
-2.7921e-08
1.09344e-07
-2.60119e-08
1.14296e-07
-2.51508e-08
1.19167e-07
-2.56089e-08
1.24154e-07
-2.75084e-08
1.29478e-07
-3.08375e-08
1.35362e-07
-3.54985e-08
1.4199e-07
-4.14002e-08
1.49512e-07
-4.85058e-08
1.58035e-07
-5.6907e-08
1.6764e-07
-6.68261e-08
1.78405e-07
-7.86359e-08
1.9042e-07
-9.28482e-08
2.03806e-07
-1.10138e-07
2.18735e-07
-1.31317e-07
2.35436e-07
-1.5743e-07
2.5422e-07
-1.89695e-07
2.75479e-07
-2.2973e-07
2.99728e-07
-2.79474e-07
3.27588e-07
-3.41475e-07
3.59887e-07
-4.19119e-07
3.97599e-07
-5.16286e-07
4.42014e-07
-6.39728e-07
4.9476e-07
-7.94641e-07
5.57651e-07
-9.96441e-07
6.33843e-07
-1.25051e-06
7.25017e-07
-1.59447e-06
8.37353e-07
-2.03491e-06
9.67834e-07
-2.65901e-06
1.11509e-06
-3.49031e-06
-4.65774e-06
1.25116e-06
7.55968e-10
-1.12096e-08
2.76659e-09
-2.96733e-08
5.77267e-09
-4.47964e-08
9.68644e-09
-5.59561e-08
1.43489e-08
-6.31618e-08
1.96041e-08
-6.73597e-08
2.53422e-08
-6.91881e-08
3.14585e-08
-6.90343e-08
3.7848e-08
-6.74191e-08
4.44174e-08
-6.48779e-08
5.10787e-08
-6.18186e-08
5.77522e-08
-5.85189e-08
6.43726e-08
-5.51759e-08
7.09077e-08
-5.19174e-08
7.73595e-08
-4.87985e-08
8.37493e-08
-4.57795e-08
9.00873e-08
-4.27701e-08
9.63532e-08
-3.97058e-08
1.02494e-07
-3.66595e-08
1.08451e-07
-3.38802e-08
1.14201e-07
-3.17633e-08
1.19785e-07
-3.07366e-08
1.25326e-07
-3.11501e-08
1.3101e-07
-3.31936e-08
1.37065e-07
-3.68934e-08
1.43723e-07
-4.21563e-08
1.51189e-07
-4.8867e-08
1.59633e-07
-5.69496e-08
1.69182e-07
-6.64548e-08
1.7993e-07
-7.75744e-08
1.91962e-07
-9.0667e-08
2.05365e-07
-1.0625e-07
2.20248e-07
-1.25021e-07
2.36766e-07
-1.47833e-07
2.55118e-07
-1.75781e-07
2.75578e-07
-2.10152e-07
2.98486e-07
-2.52637e-07
3.24294e-07
-3.0528e-07
3.53531e-07
-3.70711e-07
3.8691e-07
-4.52498e-07
4.25244e-07
-5.54619e-07
4.69602e-07
-6.84085e-07
5.21313e-07
-8.46351e-07
5.81749e-07
-1.05688e-06
6.53414e-07
-1.32217e-06
7.37131e-07
-1.67819e-06
8.37041e-07
-2.13482e-06
9.48555e-07
-2.77053e-06
1.06594e-06
-3.6077e-06
-4.75293e-06
1.16111e-06
7.77194e-10
-1.19891e-08
2.85595e-09
-3.17547e-08
5.96354e-09
-4.79076e-08
1.00058e-08
-6.00012e-08
1.48223e-08
-6.79814e-08
2.02482e-08
-7.27885e-08
2.61672e-08
-7.51102e-08
3.24714e-08
-7.53413e-08
3.90515e-08
-7.40024e-08
4.58109e-08
-7.16397e-08
5.26604e-08
-6.86709e-08
5.95205e-08
-6.53811e-08
6.6328e-08
-6.19857e-08
7.3054e-08
-5.86454e-08
7.97054e-08
-5.54522e-08
8.63103e-08
-5.23866e-08
9.28874e-08
-4.93498e-08
9.94252e-08
-4.62457e-08
1.05878e-07
-4.31147e-08
1.12193e-07
-4.01972e-08
1.18347e-07
-3.79182e-08
1.24377e-07
-3.67683e-08
1.30401e-07
-3.71751e-08
1.36604e-07
-3.93973e-08
1.43214e-07
-4.35038e-08
1.50469e-07
-4.94115e-08
1.58587e-07
-5.69857e-08
1.67753e-07
-6.61144e-08
1.78106e-07
-7.68074e-08
1.89755e-07
-8.92234e-08
2.02791e-07
-1.03702e-07
2.17304e-07
-1.20762e-07
2.33398e-07
-1.41115e-07
2.51217e-07
-1.65649e-07
2.70938e-07
-1.95502e-07
2.9281e-07
-2.32022e-07
3.1713e-07
-2.76955e-07
3.44298e-07
-3.32446e-07
3.74767e-07
-4.01179e-07
4.09149e-07
-4.86878e-07
4.48114e-07
-5.93584e-07
4.9253e-07
-7.285e-07
5.43459e-07
-8.9728e-07
6.01867e-07
-1.11528e-06
6.69632e-07
-1.38993e-06
7.46797e-07
-1.75535e-06
8.35626e-07
-2.22365e-06
9.30168e-07
-2.86507e-06
1.02153e-06
-3.69907e-06
-4.81328e-06
1.08186e-06
7.99139e-10
-1.27905e-08
2.94811e-09
-3.39063e-08
6.16122e-09
-5.11244e-08
1.03358e-08
-6.41786e-08
1.53109e-08
-7.29595e-08
2.09125e-08
-7.83931e-08
2.70174e-08
-8.12183e-08
3.3515e-08
-8.18417e-08
4.02926e-08
-8.07832e-08
4.72503e-08
-7.85999e-08
5.42968e-08
-7.57202e-08
6.13515e-08
-7.24379e-08
6.83512e-08
-6.89876e-08
7.5268e-08
-6.55643e-08
8.21112e-08
-6.22977e-08
8.8912e-08
-5.91896e-08
9.56926e-08
-5.61329e-08
1.02446e-07
-5.30011e-08
1.09131e-07
-4.98023e-08
1.15701e-07
-4.67686e-08
1.22135e-07
-4.43537e-08
1.28475e-07
-4.31099e-08
1.3484e-07
-4.35411e-08
1.41417e-07
-4.59749e-08
1.48436e-07
-5.05235e-08
1.56141e-07
-5.71158e-08
1.64755e-07
-6.56002e-08
1.74471e-07
-7.58303e-08
1.8544e-07
-8.7776e-08
1.9778e-07
-1.01562e-07
2.11587e-07
-1.17509e-07
2.26955e-07
-1.36128e-07
2.43987e-07
-1.58148e-07
2.62821e-07
-1.84481e-07
2.83621e-07
-2.16301e-07
3.06618e-07
-2.55017e-07
3.32077e-07
-3.02413e-07
3.60359e-07
-3.60726e-07
3.91855e-07
-4.32673e-07
4.27091e-07
-5.22114e-07
4.66627e-07
-6.3312e-07
5.11149e-07
-7.73021e-07
5.61495e-07
-9.47625e-07
6.18269e-07
-1.17206e-06
6.82785e-07
-1.45445e-06
7.54404e-07
-1.82697e-06
8.3376e-07
-2.30301e-06
9.13789e-07
-2.94511e-06
9.83528e-07
-3.76882e-06
-4.84551e-06
1.01575e-06
8.21864e-10
-1.36146e-08
3.04308e-09
-3.61302e-08
6.36575e-09
-5.44507e-08
1.06768e-08
-6.84926e-08
1.5815e-08
-7.81007e-08
2.15978e-08
-8.41788e-08
2.78941e-08
-8.75178e-08
3.45905e-08
-8.8541e-08
4.15715e-08
-8.77674e-08
4.87339e-08
-8.57648e-08
5.59841e-08
-8.29731e-08
6.32398e-08
-7.96957e-08
7.04374e-08
-7.61874e-08
7.75495e-08
-7.26785e-08
8.45866e-08
-6.93371e-08
9.15807e-08
-6.61859e-08
9.85547e-08
-6.31094e-08
1.05502e-07
-5.99504e-08
1.12383e-07
-5.66858e-08
1.19154e-07
-5.35413e-08
1.258e-07
-5.1001e-08
1.32369e-07
-4.96797e-08
1.38984e-07
-5.01577e-08
1.45839e-07
-5.28304e-08
1.53167e-07
-5.78527e-08
1.61217e-07
-6.51653e-08
1.70216e-07
-7.45998e-08
1.80363e-07
-8.59761e-08
1.91812e-07
-9.92247e-08
2.04687e-07
-1.14437e-07
2.19088e-07
-1.3191e-07
2.35113e-07
-1.52152e-07
2.52865e-07
-1.75899e-07
2.72478e-07
-2.04091e-07
2.94111e-07
-2.37932e-07
3.17978e-07
-2.78881e-07
3.44325e-07
-3.2876e-07
3.7348e-07
-3.89879e-07
4.05792e-07
-4.64984e-07
4.41713e-07
-5.58034e-07
4.81716e-07
-6.73121e-07
5.26331e-07
-8.17636e-07
5.76211e-07
-9.97504e-07
6.31654e-07
-1.2275e-06
6.93479e-07
-1.51627e-06
7.60465e-07
-1.89396e-06
8.31898e-07
-2.37444e-06
8.99863e-07
-3.01308e-06
9.52211e-07
-3.82118e-06
-4.85607e-06
9.62757e-07
8.45423e-10
-1.44623e-08
3.14092e-09
-3.84285e-08
6.57723e-09
-5.78907e-08
1.10289e-08
-7.29471e-08
1.63346e-08
-8.34095e-08
2.23045e-08
-9.01517e-08
2.8798e-08
-9.40145e-08
3.56989e-08
-9.54447e-08
4.28891e-08
-9.49607e-08
5.02621e-08
-9.31403e-08
5.77217e-08
-9.04355e-08
6.51842e-08
-8.71603e-08
7.25851e-08
-8.35906e-08
7.98978e-08
-7.99932e-08
8.71334e-08
-7.65749e-08
9.43242e-08
-7.33788e-08
1.01492e-07
-7.02797e-08
1.08628e-07
-6.70888e-08
1.15693e-07
-6.37529e-08
1.22644e-07
-6.04937e-08
1.2947e-07
-5.78285e-08
1.36226e-07
-5.64371e-08
1.43044e-07
-5.69765e-08
1.50124e-07
-5.99102e-08
1.57704e-07
-6.5434e-08
1.66038e-07
-7.34988e-08
1.75356e-07
-8.39182e-08
1.85859e-07
-9.64781e-08
1.97703e-07
-1.11069e-07
2.11015e-07
-1.27748e-07
2.25898e-07
-1.46791e-07
2.42448e-07
-1.68701e-07
2.6077e-07
-1.94221e-07
2.80995e-07
-2.24314e-07
3.03276e-07
-2.60213e-07
3.2782e-07
-3.03422e-07
3.54856e-07
-3.55794e-07
3.84685e-07
-4.19706e-07
4.17623e-07
-4.97921e-07
4.54062e-07
-5.94472e-07
4.94408e-07
-7.13467e-07
5.3906e-07
-8.62288e-07
5.88514e-07
-1.04696e-06
6.42811e-07
-1.2818e-06
7.02336e-07
-1.5758e-06
7.65384e-07
-1.95701e-06
8.30171e-07
-2.43923e-06
8.88177e-07
-3.07109e-06
9.26738e-07
-3.85975e-06
-4.85041e-06
9.21058e-07
8.69868e-10
-1.53345e-08
3.24166e-09
-4.0803e-08
6.79578e-09
-6.14485e-08
1.13922e-08
-7.75465e-08
1.68701e-08
-8.88905e-08
2.30329e-08
-9.63174e-08
2.97296e-08
-1.00714e-07
3.68408e-08
-1.02559e-07
4.42462e-08
-1.02369e-07
5.18358e-08
-1.00732e-07
5.95107e-08
-9.81131e-08
6.71853e-08
-9.4837e-08
7.47948e-08
-9.12022e-08
8.2313e-08
-8.75134e-08
8.97522e-08
-8.40162e-08
9.71444e-08
-8.07732e-08
1.0451e-07
-7.76475e-08
1.11837e-07
-7.4418e-08
1.19084e-07
-7.10021e-08
1.26208e-07
-6.76197e-08
1.33203e-07
-6.48248e-08
1.40131e-07
-6.33653e-08
1.4713e-07
-6.39767e-08
1.54409e-07
-6.71898e-08
1.62214e-07
-7.324e-08
1.70802e-07
-8.20863e-08
1.80406e-07
-9.35224e-08
1.91227e-07
-1.07298e-07
2.03423e-07
-1.23264e-07
2.17119e-07
-1.41443e-07
2.32418e-07
-1.62089e-07
2.49416e-07
-1.85699e-07
2.68217e-07
-2.13021e-07
2.8895e-07
-2.45045e-07
3.11762e-07
-2.83024e-07
3.36851e-07
-3.28509e-07
3.64435e-07
-3.83377e-07
3.94791e-07
-4.50061e-07
4.2821e-07
-5.31338e-07
4.65029e-07
-6.3129e-07
5.05597e-07
-7.54035e-07
5.502e-07
-9.06891e-07
5.99198e-07
-1.09596e-06
6.5241e-07
-1.33501e-06
7.09844e-07
-1.63323e-06
7.69391e-07
-2.01655e-06
8.28421e-07
-2.49826e-06
8.78033e-07
-3.12071e-06
9.05519e-07
-3.88725e-06
-4.83264e-06
8.87739e-07
8.95255e-10
-1.62321e-08
3.34537e-09
-4.32559e-08
7.02149e-09
-6.51282e-08
1.17671e-08
-8.22951e-08
1.74216e-08
-9.4548e-08
2.37831e-08
-1.02682e-07
3.06892e-08
-1.07624e-07
3.80169e-08
-1.09889e-07
4.56434e-08
-1.09999e-07
5.34558e-08
-1.08547e-07
6.13518e-08
-1.06012e-07
6.92442e-08
-1.02731e-07
7.70675e-08
-9.90277e-08
8.47963e-08
-9.52442e-08
9.24439e-08
-9.16659e-08
1.00042e-07
-8.83738e-08
1.0761e-07
-8.52173e-08
1.15131e-07
-8.19416e-08
1.22562e-07
-7.84352e-08
1.2986e-07
-7.4919e-08
1.37022e-07
-7.19875e-08
1.44115e-07
-7.04595e-08
1.51289e-07
-7.11512e-08
1.58759e-07
-7.46604e-08
1.66779e-07
-8.12606e-08
1.75609e-07
-9.09164e-08
1.85486e-07
-1.03399e-07
1.9661e-07
-1.18422e-07
2.09137e-07
-1.35791e-07
2.23193e-07
-1.55498e-07
2.38876e-07
-1.77772e-07
2.56284e-07
-2.03105e-07
2.75515e-07
-2.32252e-07
2.96696e-07
-2.66223e-07
3.19968e-07
-3.06296e-07
3.45521e-07
-3.5406e-07
3.73561e-07
-4.11415e-07
4.04342e-07
-4.80841e-07
4.38131e-07
-5.65126e-07
4.75215e-07
-6.68374e-07
5.15893e-07
-7.94712e-07
5.60347e-07
-9.51344e-07
6.08809e-07
-1.14442e-06
6.60903e-07
-1.3871e-06
7.16299e-07
-1.68863e-06
7.72546e-07
-2.0728e-06
8.26359e-07
-2.55208e-06
8.68641e-07
-3.16299e-06
8.86938e-07
-3.90556e-06
-4.80561e-06
8.59891e-07
9.21637e-10
-1.71561e-08
3.45206e-09
-4.57891e-08
7.25439e-09
-6.89342e-08
1.21537e-08
-8.71973e-08
1.79893e-08
-1.00387e-07
2.45553e-08
-1.09251e-07
3.16772e-08
-1.14749e-07
3.92274e-08
-1.17442e-07
4.70812e-08
-1.17856e-07
5.51224e-08
-1.16591e-07
6.32456e-08
-1.14138e-07
7.13613e-08
-1.10849e-07
7.94038e-08
-1.07072e-07
8.73484e-08
-1.03191e-07
9.52095e-08
-9.95291e-08
1.03019e-07
-9.61854e-08
1.10793e-07
-9.29934e-08
1.18513e-07
-8.96633e-08
1.26131e-07
-8.6055e-08
1.33604e-07
-8.23934e-08
1.40932e-07
-7.9317e-08
1.48191e-07
-7.77194e-08
1.55538e-07
-7.84988e-08
1.63197e-07
-8.23203e-08
1.7143e-07
-8.94937e-08
1.805e-07
-9.99866e-08
1.90647e-07
-1.13545e-07
2.02069e-07
-1.29843e-07
2.14922e-07
-1.48644e-07
2.29327e-07
-1.69902e-07
2.45383e-07
-1.93826e-07
2.6318e-07
-2.20901e-07
2.82817e-07
-2.51887e-07
3.04412e-07
-2.87816e-07
3.28104e-07
-3.29986e-07
3.54069e-07
-3.80023e-07
3.82503e-07
-4.39848e-07
4.13637e-07
-5.11974e-07
4.47713e-07
-5.99201e-07
4.84969e-07
-7.05629e-07
5.25651e-07
-8.35393e-07
5.69845e-07
-9.95539e-07
6.17656e-07
-1.19223e-06
6.68532e-07
-1.43798e-06
7.21828e-07
-1.74193e-06
7.74803e-07
-2.12578e-06
8.23664e-07
-2.60095e-06
8.59257e-07
-3.1986e-06
8.69579e-07
-3.91589e-06
-4.77114e-06
8.35086e-07
9.49071e-10
-1.81075e-08
3.56177e-09
-4.84045e-08
7.49453e-09
-7.28705e-08
1.25522e-08
-9.22579e-08
1.85738e-08
-1.06411e-07
2.53497e-08
-1.16029e-07
3.26938e-08
-1.22096e-07
4.04727e-08
-1.25224e-07
4.85601e-08
-1.25946e-07
5.68364e-08
-1.24869e-07
6.51928e-08
-1.22497e-07
7.35377e-08
-1.19196e-07
8.18049e-08
-1.15341e-07
8.99705e-08
-1.11358e-07
9.80502e-08
-1.07611e-07
1.06076e-07
-1.04213e-07
1.1406e-07
-1.0098e-07
1.21982e-07
-9.75869e-08
1.2979e-07
-9.38647e-08
1.3744e-07
-9.00451e-08
1.44937e-07
-8.6815e-08
1.52363e-07
-8.5146e-08
1.59884e-07
-8.60205e-08
1.67734e-07
-9.01704e-08
1.7618e-07
-9.79403e-08
1.85492e-07
-1.09298e-07
1.95908e-07
-1.23962e-07
2.07629e-07
-1.41563e-07
2.20806e-07
-1.61821e-07
2.35559e-07
-1.84654e-07
2.5198e-07
-2.10246e-07
2.70158e-07
-2.39078e-07
2.90185e-07
-2.71914e-07
3.12176e-07
-3.09804e-07
3.3626e-07
-3.54069e-07
3.62603e-07
-4.06364e-07
3.91386e-07
-4.6863e-07
4.22817e-07
-5.43402e-07
4.57109e-07
-6.33493e-07
4.94453e-07
-7.42972e-07
5.35036e-07
-8.75977e-07
5.78853e-07
-1.03936e-06
6.25879e-07
-1.23926e-06
6.75391e-07
-1.48749e-06
7.26456e-07
-1.79299e-06
7.76077e-07
-2.17541e-06
8.2007e-07
-2.64494e-06
8.49342e-07
-3.22788e-06
8.52432e-07
-3.919e-06
-4.7303e-06
8.1158e-07
9.77607e-10
-1.90874e-08
3.67456e-09
-5.11042e-08
7.74191e-09
-7.69414e-08
1.29626e-08
-9.74815e-08
1.9175e-08
-1.12627e-07
2.61663e-08
-1.23024e-07
3.37391e-08
-1.29672e-07
4.17532e-08
-1.33241e-07
5.00804e-08
-1.34277e-07
5.85981e-08
-1.33389e-07
6.71939e-08
-1.31095e-07
7.57739e-08
-1.27778e-07
8.42714e-08
-1.23841e-07
9.26635e-08
-1.19752e-07
1.00967e-07
-1.15916e-07
1.09213e-07
-1.12461e-07
1.17413e-07
-1.09182e-07
1.2554e-07
-1.05716e-07
1.33541e-07
-1.01867e-07
1.41371e-07
-9.78764e-08
1.49038e-07
-9.44831e-08
1.56632e-07
-9.27407e-08
1.64329e-07
-9.37175e-08
1.7237e-07
-9.82124e-08
1.81032e-07
-1.06602e-07
1.90587e-07
-1.18852e-07
2.01276e-07
-1.3465e-07
2.13296e-07
-1.53582e-07
2.26799e-07
-1.75322e-07
2.41897e-07
-1.99751e-07
2.5868e-07
-2.27029e-07
2.77233e-07