/*--------------------------------*- C++ -*----------------------------------*\
  =========                 |
  \\      /  F ield         | OpenFOAM: The Open Source CFD Toolbox
   \\    /   O peration     | Website:  https://openfoam.org
    \\  /    A nd           | Version:  7
     \\/     M anipulation  |
\*---------------------------------------------------------------------------*/
FoamFile
{
    version     2.0;
    format      ascii;
    class       volScalarField;
    location    "0.31";
    object      nut;
}
// * * * * * * * * * * * * * * * * * * * * * * * * * * * * * * * * * * * * * //

dimensions      [0 2 -1 0 0 0 0];

internalField   nonuniform List<scalar> 
70000
(
9.96301e-12
6.88325e-14
2.55534e-16
8.54852e-17
4.85313e-17
7.97314e-17
2.81961e-17
1.32847e-17
9.06525e-18
6.66112e-18
4.91923e-18
3.69976e-18
2.85021e-18
2.24406e-18
1.80008e-18
1.46763e-18
1.21391e-18
1.01734e-18
8.62723e-19
7.39794e-19
6.40929e-19
5.60802e-19
4.95296e-19
4.41577e-19
3.97117e-19
3.60595e-19
3.30082e-19
3.05383e-19
2.84508e-19
2.68575e-19
2.54542e-19
2.45941e-19
2.36806e-19
2.3506e-19
2.29818e-19
2.34392e-19
2.34707e-19
2.40334e-19
2.60088e-19
2.37456e-19
3.45627e-19
1.76422e-19
7.04086e-19
2.46907e-20
3.08768e-18
2.77156e-19
2.89955e-17
2.79526e-17
5.68705e-15
6.43551e-14
1.04281e-10
5.98602e-12
6.44052e-14
2.14374e-14
2.88689e-16
1.69495e-17
2.52748e-17
2.12501e-17
1.23742e-17
7.38846e-18
4.86177e-18
3.40638e-18
2.48091e-18
1.86068e-18
1.43056e-18
1.12373e-18
8.99455e-19
7.31747e-19
6.0406e-19
5.05096e-19
4.27333e-19
3.6539e-19
3.15574e-19
2.74996e-19
2.4188e-19
2.14341e-19
1.91775e-19
1.72548e-19
1.57072e-19
1.43229e-19
1.32946e-19
1.22454e-19
1.16425e-19
1.07932e-19
1.05477e-19
9.88058e-20
9.76899e-20
9.69207e-20
8.64858e-20
1.13972e-19
5.49564e-20
2.17491e-19
4.26425e-21
1.04556e-18
2.7684e-19
1.27875e-17
2.53342e-17
2.11062e-16
2.56775e-14
2.18325e-14
3.1923e-10
3.39534e-12
1.90513e-13
1.98595e-14
7.59431e-16
5.71834e-17
7.06441e-18
4.05812e-18
2.05163e-18
1.01034e-18
5.5643e-19
3.38547e-19
2.18759e-19
1.47112e-19
1.02116e-19
7.28395e-20
5.32196e-20
3.96774e-20
3.01156e-20
2.31962e-20
1.81011e-20
1.42793e-20
1.13827e-20
9.15015e-21
7.44178e-21
6.098e-21
5.09472e-21
4.29499e-21
3.7684e-21
3.33743e-21
3.2127e-21
3.07766e-21
3.4171e-21
3.63342e-21
4.6738e-21
5.54625e-21
7.65541e-21
1.013e-20
1.31881e-20
2.04364e-20
2.32817e-20
5.28466e-20
9.203e-20
4.11296e-19
1.98903e-18
1.0092e-17
5.66428e-17
2.68224e-16
3.03316e-14
9.21788e-14
6.15442e-09
1.92604e-11
7.81965e-13
6.081e-14
5.42782e-15
9.12839e-16
1.07017e-16
2.81588e-17
1.16193e-17
5.06892e-18
2.31902e-18
1.16126e-18
6.31048e-19
3.62922e-19
2.17098e-19
1.33738e-19
8.42185e-20
5.38369e-20
3.46776e-20
2.2319e-20
1.42137e-20
8.84674e-21
5.29314e-21
2.97191e-21
1.5061e-21
6.41688e-22
1.96615e-22
2.67766e-23
4.24437e-26
2.65827e-23
2.31536e-22
8.60551e-22
2.26775e-21
4.91961e-21
9.66014e-21
1.70552e-20
2.96714e-20
4.59558e-20
7.62549e-20
1.03363e-19
1.77757e-19
2.05932e-19
4.74972e-19
6.43323e-19
3.16159e-18
9.8305e-18
5.31262e-17
2.15053e-16
2.43513e-14
1.12671e-13
2.32377e-09
2.23188e-10
4.44113e-12
3.20098e-13
2.27551e-14
4.32763e-15
7.00834e-16
1.94565e-16
7.86459e-17
3.44476e-17
1.58429e-17
7.88712e-18
4.23826e-18
2.4121e-18
1.43203e-18
8.784e-19
5.52672e-19
3.54304e-19
2.29841e-19
1.4976e-19
9.71982e-20
6.22125e-20
3.8773e-20
2.31264e-20
1.28615e-20
6.39143e-21
2.61757e-21
7.34713e-22
7.42146e-23
1.25023e-24
2.23646e-22
1.53731e-21
5.31213e-21
1.3268e-20
2.87874e-20
5.38826e-20
9.89382e-20
1.58602e-19
2.71077e-19
3.81589e-19
6.42776e-19
7.88555e-19
1.43951e-18
1.81962e-18
4.67867e-18
1.30356e-17
3.67381e-17
1.47005e-16
1.86491e-14
8.83568e-14
3.01384e-09
5.28823e-09
4.34382e-11
1.93416e-12
1.06545e-13
1.76437e-14
3.14599e-15
9.07605e-16
3.65909e-16
1.61483e-16
7.49973e-17
3.74519e-17
2.00794e-17
1.13796e-17
6.72774e-18
4.11331e-18
2.58341e-18
1.65651e-18
1.0776e-18
7.06443e-19
4.63312e-19
3.01404e-19
1.92478e-19
1.19033e-19
6.992e-20
3.78641e-20
1.79607e-20
6.73789e-21
1.54157e-21
6.86784e-23
5.67982e-23
1.68298e-21
8.79332e-21
2.63679e-20
6.40149e-20
1.28036e-19
2.47595e-19
4.10985e-19
7.22931e-19
1.04564e-18
1.77409e-18
2.24163e-18
3.8125e-18
4.68245e-18
8.16535e-18
1.91737e-17
2.16852e-17
9.1569e-17
1.39642e-14
6.83014e-14
1.07675e-09
4.7628e-09
3.70618e-09
1.838e-11
6.60626e-13
8.96413e-14
1.46813e-14
3.9576e-15
1.51296e-15
6.51188e-16
2.99164e-16
1.48249e-16
7.89059e-17
4.44199e-17
2.61078e-17
1.58843e-17
9.93923e-18
6.35867e-18
4.1347e-18
2.71579e-18
1.78997e-18
1.175e-18
7.61391e-19
4.81578e-19
2.92782e-19
1.67263e-19
8.65772e-20
3.79945e-20
1.2234e-20
1.88697e-21
3.27045e-24
1.03465e-21
1.11049e-20
4.28929e-20
1.18633e-19
2.56182e-19
5.21603e-19
8.97691e-19
1.6214e-18
2.40094e-18
4.11965e-18
5.31905e-18
8.81236e-18
1.07486e-17
1.51645e-17
2.99912e-17
1.09442e-17
5.23822e-17
1.00234e-14
5.11881e-14
2.42787e-09
3.86771e-09
8.20116e-10
2.39378e-09
8.4502e-12
6.95106e-13
8.72357e-14
1.96801e-14
6.68741e-15
2.66935e-15
1.16608e-15
5.57211e-16
2.88593e-16
1.59109e-16
9.20108e-17
5.52686e-17
3.42365e-17
2.17349e-17
1.40564e-17
9.20426e-18
6.06396e-18
3.99169e-18
2.6045e-18
1.66806e-18
1.03521e-18
6.11218e-19
3.33793e-19
1.60648e-19
6.19294e-20
1.51615e-20
8.86146e-22
2.11602e-22
1.12874e-20
6.17997e-20
1.99006e-19
4.67131e-19
1.00079e-18
1.78585e-18
3.29727e-18
4.99781e-18
8.62231e-18
1.14057e-17
1.84662e-17
2.28709e-17
2.82663e-17
4.92015e-17
5.15304e-18
2.94019e-17
6.89757e-15
3.52304e-14
3.36934e-09
4.36848e-09
5.89025e-10
2.98334e-10
5.44942e-10
1.79513e-11
9.18218e-13
1.3782e-13
3.72478e-14
1.2852e-14
5.06617e-15
2.24251e-15
1.09568e-15
5.77454e-16
3.22316e-16
1.8822e-16
1.1398e-16
7.1052e-17
4.52889e-17
2.93253e-17
1.91646e-17
1.25538e-17
8.18028e-18
5.25504e-18
3.29035e-18
1.97652e-18
1.11281e-18
5.6505e-19
2.40984e-19
7.39101e-20
9.88478e-21
1.05201e-24
9.77456e-21
8.53712e-20
3.24754e-19
8.28648e-19
1.85976e-18
3.43013e-18
6.43527e-18
9.9649e-18
1.71729e-17
2.32702e-17
3.67512e-17
4.65445e-17
5.28741e-17
8.36852e-17
4.33093e-18
1.97715e-17
4.57643e-15
2.29113e-14
3.41073e-09
4.60559e-09
6.70239e-10
1.92216e-10
4.63042e-11
6.59497e-11
2.82965e-10
2.63908e-12
3.63404e-13
8.99169e-14
2.87949e-14
1.10231e-14
4.83903e-15
2.35006e-15
1.23014e-15
6.82306e-16
3.96239e-16
2.3866e-16
1.47875e-16
9.35462e-17
5.99841e-17
3.87036e-17
2.49352e-17
1.59001e-17
9.92786e-18
5.98297e-18
3.40916e-18
1.77704e-18
7.99334e-19
2.75259e-19
5.18295e-20
8.07184e-22
7.87099e-21
1.23218e-19
5.51294e-19
1.51377e-18
3.52353e-18
6.66918e-18
1.26166e-17
1.98642e-17
3.39841e-17
4.69904e-17
7.22976e-17
9.33866e-17
1.00825e-16
1.47914e-16
1.09166e-17
2.17463e-17
2.88773e-15
1.41189e-14
3.21152e-09
4.38905e-09
7.70999e-10
2.00635e-10
3.58405e-11
2.12182e-11
1.29547e-11
2.02864e-11
1.27814e-10
2.02314e-12
3.19539e-13
8.52398e-14
2.98219e-14
1.23637e-14
5.75372e-15
2.91302e-15
1.57278e-15
8.92663e-16
5.26586e-16
3.19732e-16
1.98075e-16
1.24149e-16
7.80632e-17
4.87906e-17
2.99883e-17
1.78743e-17
1.01343e-17
5.3024e-18
2.43071e-18
8.80716e-19
1.9268e-19
7.71553e-21
7.18359e-21
2.05105e-19
1.03967e-18
3.00113e-18
7.12553e-18
1.36828e-17
2.58472e-17
4.10783e-17
6.93097e-17
9.71839e-17
1.45433e-16
1.90404e-16
1.99601e-16
2.74825e-16
3.80397e-17
3.99998e-17
1.70806e-15
8.32399e-15
3.01712e-09
3.97039e-09
8.43298e-10
2.1131e-10
3.80204e-11
1.95247e-11
8.26296e-12
4.35809e-12
3.95889e-12
6.50861e-12
8.98541e-11
4.09025e-12
4.74926e-13
1.20997e-13
4.2224e-14
1.75938e-14
8.23695e-15
4.18915e-15
2.26428e-15
1.28004e-15
7.47207e-16
4.45378e-16
2.68263e-16
1.61564e-16
9.61661e-17
5.57605e-17
3.08944e-17
1.5879e-17
7.20357e-18
2.61731e-18
5.9526e-19
3.07418e-20
1.07166e-20
4.34405e-19
2.3133e-18
6.77204e-18
1.6035e-17
3.07698e-17
5.7356e-17
9.11663e-17
1.50584e-16
2.12465e-16
3.08504e-16
4.06237e-16
4.18603e-16
5.45476e-16
1.25204e-16
9.80181e-17
9.48491e-16
4.89378e-15
2.84576e-09
3.51015e-09
9.04624e-10
2.08567e-10
4.1423e-11
2.09665e-11
8.63929e-12
3.68733e-12
2.30001e-12
1.77357e-12
1.60246e-12
1.89616e-12
4.04728e-12
7.22533e-11
1.93708e-12
2.97556e-13
8.65205e-14
3.29033e-14
1.4559e-14
7.09665e-15
3.6913e-15
2.00467e-15
1.11761e-15
6.30185e-16
3.54196e-16
1.95174e-16
1.03254e-16
5.08437e-17
2.21363e-17
7.7114e-18
1.66661e-18
7.61775e-20
3.63713e-20
1.25889e-18
6.3842e-18
1.81529e-17
4.1757e-17
7.86772e-17
1.42776e-16
2.2453e-16
3.60062e-16
5.06641e-16
7.11481e-16
9.34065e-16
9.52024e-16
1.18004e-15
3.91913e-16
2.76769e-16
5.56128e-16
3.28403e-15
2.67577e-09
3.05438e-09
9.73279e-10
1.97263e-10
4.44922e-11
2.233e-11
9.81395e-12
3.95781e-12
2.23256e-12
1.48223e-12
1.04165e-12
7.90481e-13
6.74273e-13
6.67716e-13
8.16488e-13
1.47204e-12
8.92941e-12
3.93294e-12
3.83839e-13
9.88967e-14
3.55943e-14
1.51095e-14
7.03621e-15
3.44974e-15
1.72983e-15
8.64853e-16
4.19542e-16
1.90408e-16
7.62811e-17
2.40961e-17
4.45374e-18
1.11261e-19
2.66811e-19
5.21294e-18
2.29017e-17
6.04945e-17
1.31439e-16
2.38432e-16
4.14874e-16
6.37359e-16
9.8293e-16
1.36472e-15
1.84559e-15
2.39141e-15
2.41596e-15
2.85515e-15
1.24418e-15
8.70517e-16
5.89082e-16
3.53277e-15
2.49734e-09
2.61924e-09
1.05276e-09
1.83026e-10
4.77042e-11
2.31357e-11
1.11195e-11
4.42432e-12
2.41889e-12
1.55093e-12
1.0247e-12
6.99129e-13
5.06658e-13
3.92476e-13
3.25019e-13
2.8969e-13
2.82552e-13
3.1138e-13
4.14576e-13
7.9424e-13
4.5759e-12
6.21465e-13
1.91109e-13
5.08712e-14
1.74174e-14
6.65461e-15
2.61855e-15
9.93311e-16
3.34436e-16
8.60132e-17
1.10425e-17
2.15588e-20
3.55688e-18
3.32242e-17
1.15917e-16
2.70602e-16
5.36617e-16
9.13529e-16
1.49392e-15
2.20357e-15
3.2265e-15
4.35776e-15
5.63707e-15
7.11811e-15
7.11476e-15
8.01316e-15
4.2781e-15
3.10076e-15
1.84786e-15
8.08897e-15
2.31102e-09
2.21875e-09
1.13773e-09
1.68467e-10
5.15179e-11
2.35134e-11
1.24605e-11
4.94774e-12
2.66309e-12
1.70241e-12
1.11553e-12
7.40502e-13
5.11679e-13
3.69694e-13
2.77618e-13
2.16016e-13
1.74289e-13
1.46187e-13
1.2797e-13
1.17626e-13
1.14702e-13
1.20924e-13
1.43156e-13
2.07454e-13
4.69291e-13
4.82905e-12
9.08284e-14
4.63805e-15
1.49681e-15
2.16876e-16
4.4753e-18
7.05689e-18
1.24479e-16
4.58053e-16
1.08261e-15
2.0167e-15
3.39797e-15
5.14681e-15
7.5937e-15
1.03935e-14
1.40843e-14
1.80415e-14
2.19864e-14
2.65225e-14
2.59909e-14
2.77469e-14
1.72074e-14
1.31403e-14
1.01616e-14
3.20083e-14
2.11913e-09
1.85916e-09
1.22088e-09
1.54624e-10
5.5973e-11
2.35885e-11
1.38591e-11
5.52555e-12
2.92854e-12
1.87754e-12
1.23916e-12
8.20351e-13
5.59958e-13
3.96414e-13
2.88802e-13
2.15281e-13
1.63864e-13
1.27264e-13
1.00771e-13
8.12575e-14
6.66245e-14
5.54462e-14
4.67581e-14
3.99178e-14
3.45236e-14
3.03724e-14
2.74888e-14
2.63277e-14
2.86577e-14
4.32246e-14
1.61629e-13
8.8801e-12
9.12328e-12
3.43988e-13
1.17563e-13
8.16305e-14
7.5855e-14
7.80193e-14
8.6621e-14
9.65005e-14
1.10165e-13
1.23937e-13
1.34905e-13
1.47966e-13
1.37577e-13
1.36108e-13
9.27908e-14
7.42389e-14
7.09803e-14
1.75982e-13
1.92331e-09
1.54091e-09
1.29563e-09
1.4226e-10
6.08239e-11
2.34281e-11
1.53147e-11
6.17969e-12
3.21778e-12
2.06654e-12
1.37848e-12
9.16555e-13
6.24626e-13
4.40177e-13
3.1814e-13
2.341e-13
1.74801e-13
1.32214e-13
1.01104e-13
7.79654e-14
6.04222e-14
4.68536e-14
3.61567e-14
2.75856e-14
2.0642e-14
1.4994e-14
1.04211e-14
6.78108e-15
3.97894e-15
1.96582e-15
6.95417e-16
1.07362e-16
1.13888e-22
1.56284e-16
1.57561e-15
5.80071e-15
9.57605e-15
1.47821e-17
1.87967e-11
7.2803e-11
1.51223e-11
6.26337e-12
3.73318e-12
2.70237e-12
1.9449e-12
1.55172e-12
1.02549e-12
8.05432e-13
8.09394e-13
1.56116e-12
1.72579e-09
1.26385e-09
1.3563e-09
1.32261e-10
6.56673e-11
2.31003e-11
1.67898e-11
6.92833e-12
3.53836e-12
2.27098e-12
1.5318e-12
1.02505e-12
6.9928e-13
4.92626e-13
3.55645e-13
2.60913e-13
1.93724e-13
1.45244e-13
1.09701e-13
8.32033e-14
6.31074e-14
4.76087e-14
3.54843e-14
2.59133e-14
1.83488e-14
1.24237e-14
7.88154e-15
4.53562e-15
2.23016e-15
8.27069e-16
1.60701e-16
1.53595e-18
4.65691e-17
7.00667e-16
3.32869e-15
1.03495e-14
2.66125e-14
6.0013e-14
1.26731e-13
2.53225e-13
4.83842e-13
9.10947e-13
1.54795e-12
2.50172e-12
2.2367e-12
7.37584e-15
6.748e-11
1.65878e-10
9.2249e-11
7.26483e-11
1.52934e-09
1.02766e-09
1.398e-09
1.25558e-10
6.99818e-11
2.27037e-11
1.82224e-11
7.78491e-12
3.89656e-12
2.49319e-12
1.70032e-12
1.14653e-12
7.83506e-13
5.52211e-13
3.98865e-13
2.92566e-13
2.16907e-13
1.62151e-13
1.21917e-13
9.18768e-14
6.90765e-14
5.1501e-14
3.77882e-14
2.70297e-14
1.86223e-14
1.21586e-14
7.34268e-15
3.9421e-15
1.74296e-15
5.33897e-16
6.24611e-17
8.5608e-20
1.41682e-16
1.11933e-15
4.17873e-15
1.12223e-14
2.55557e-14
5.17791e-14
9.78547e-14
1.7468e-13
2.9608e-13
4.88756e-13
7.489e-13
1.13559e-12
1.50775e-12
1.92333e-12
2.09224e-12
2.01981e-12
2.59076e-12
4.63433e-12
1.33689e-09
8.31169e-10
1.41671e-09
1.23033e-10
7.31695e-11
2.23647e-11
1.95355e-11
8.7597e-12
4.29814e-12
2.73488e-12
1.88494e-12
1.28235e-12
8.78318e-13
6.19342e-13
4.4769e-13
3.28528e-13
2.43472e-13
1.81774e-13
1.36375e-13
1.02449e-13
7.66844e-14
5.68187e-14
4.13272e-14
2.92007e-14
1.97745e-14
1.26008e-14
7.34726e-15
3.74038e-15
1.51314e-15
3.86341e-16
2.37875e-17
5.59065e-18
3.08217e-16
1.76717e-15
5.74092e-15
1.41764e-14
3.01969e-14
5.79269e-14
1.03711e-13
1.75913e-13
2.82844e-13
4.41077e-13
6.41787e-13
9.12141e-13
1.16771e-12
1.43091e-12
1.61135e-12
1.79043e-12
2.67103e-12
5.69355e-12
1.15141e-09
6.72066e-10
1.40955e-09
1.25461e-10
7.46691e-11
2.22228e-11
2.06463e-11
9.8586e-12
4.74945e-12
2.99762e-12
2.08598e-12
1.43361e-12
9.8488e-13
6.94823e-13
5.02613e-13
3.69047e-13
2.73457e-13
2.03965e-13
1.52774e-13
1.14502e-13
8.54284e-14
6.3006e-14
4.55233e-14
3.18554e-14
2.12693e-14
1.32739e-14
7.49963e-15
3.62996e-15
1.3408e-15
2.77371e-16
5.84311e-18
3.17445e-17
6.05417e-16
2.80667e-15
8.25909e-15
1.92302e-14
3.91741e-14
7.26163e-14
1.25934e-13
2.07622e-13
3.24912e-13
4.92323e-13
7.0096e-13
9.67916e-13
1.23099e-12
1.49518e-12
1.73829e-12
2.04339e-12
3.08483e-12
6.19398e-12
9.75812e-10
5.47015e-10
1.37514e-09
1.33497e-10
7.40973e-11
2.24052e-11
2.14783e-11
1.10801e-11
5.25774e-12
3.28316e-12
2.30335e-12
1.60108e-12
1.10427e-12
7.79474e-13
5.64204e-13
4.14531e-13
3.07131e-13
2.28873e-13
1.7116e-13
1.27996e-13
9.52014e-14
6.99062e-14
5.01869e-14
3.47897e-14
2.2906e-14
1.3998e-14
7.65436e-15
3.50845e-15
1.16756e-15
1.83804e-16
2.30035e-19
1.05298e-16
1.12299e-15
4.43989e-15
1.20807e-14
2.68486e-14
5.28626e-14
9.55622e-14
1.62169e-13
2.62428e-13
4.04226e-13
6.02315e-13
8.49514e-13
1.15735e-12
1.47852e-12
1.80661e-12
2.16816e-12
2.66326e-12
4.03209e-12
7.6853e-12
8.12791e-10
4.5186e-10
1.31382e-09
1.47649e-10
7.13202e-11
2.30058e-11
2.19732e-11
1.24113e-11
5.83117e-12
3.59352e-12
2.53662e-12
1.78509e-12
1.23743e-12
8.74063e-13
6.32994e-13
4.65369e-13
3.44784e-13
2.56697e-13
1.91654e-13
1.4299e-13
1.06012e-13
7.74879e-14
5.52573e-14
3.79244e-14
2.45994e-14
1.4694e-14
7.74932e-15
3.33721e-15
9.78168e-16
1.04586e-16
4.22709e-19
2.73993e-16
1.99826e-15
6.95871e-15
1.77292e-14
3.7867e-14
7.24669e-14
1.28325e-13
2.14153e-13
3.41731e-13
5.20872e-13
7.67706e-13
1.07857e-12
1.46124e-12
1.88311e-12
2.33113e-12
2.88093e-12
3.6714e-12
5.56748e-12
1.01824e-11
6.64654e-10
3.81938e-10
1.22784e-09
1.68142e-10
6.64892e-11
2.40692e-11
2.2103e-11
1.38237e-11
6.47856e-12
3.93098e-12
2.78508e-12
1.98549e-12
1.38511e-12
9.79276e-13
7.09444e-13
5.21889e-13
3.86661e-13
2.87608e-13
2.14364e-13
1.59542e-13
1.17879e-13
8.57395e-14
6.06999e-14
4.12103e-14
2.62957e-14
1.53137e-14
7.75062e-15
3.10126e-15
7.74119e-16
4.5159e-17
1.26091e-17
6.19097e-16
3.44134e-15
1.07925e-14
2.59754e-14
5.35555e-14
9.99536e-14
1.73794e-13
2.85961e-13
4.51017e-13
6.81999e-13
9.97395e-13
1.39925e-12
1.89339e-12
2.46464e-12
3.10008e-12
3.9325e-12
5.16716e-12
7.84856e-12
1.38918e-11
5.33119e-10
3.32409e-10
1.12121e-09
1.94701e-10
6.00709e-11
2.55677e-11
2.18801e-11
1.5269e-11
7.20856e-12
4.29795e-12
3.04784e-12
2.20142e-12
1.5477e-12
1.09566e-12
7.93907e-13
5.84322e-13
4.32927e-13
3.21719e-13
2.39353e-13
1.77674e-13
1.30796e-13
9.46311e-14
6.64684e-14
4.45928e-14
2.79409e-14
1.58136e-14
7.6329e-15
2.79592e-15
5.65119e-16
1.06942e-17
7.16076e-17
1.27452e-15
5.7721e-15
1.6573e-14
3.79388e-14
7.5762e-14
1.38226e-13
2.3635e-13
3.84013e-13
5.9944e-13
9.00417e-13
1.30905e-12
1.83576e-12
2.48725e-12
3.2705e-12
4.1827e-12
5.42816e-12
7.31335e-12
1.11284e-11
1.91926e-11
4.19198e-10
2.98492e-10
9.99522e-10
2.26267e-10
5.28251e-11
2.73719e-11
2.13623e-11
1.66791e-11
8.0282e-12
4.69695e-12
3.32384e-12
2.43129e-12
1.72512e-12
1.22356e-12
8.86582e-13
6.52762e-13
4.83641e-13
3.59056e-13
2.66616e-13
1.97356e-13
1.44711e-13
1.04098e-13
7.24896e-14
4.79978e-14
2.94697e-14
1.61465e-14
7.37405e-15
2.42373e-15
3.66278e-16
2.22266e-19
2.45476e-16
2.45606e-15
9.47414e-15
2.52247e-14
5.52305e-14
1.07124e-13
1.91419e-13
3.22264e-13
5.17584e-13
8.00435e-13
1.19528e-12
1.72969e-12
2.42598e-12
3.29606e-12
4.37621e-12
5.68791e-12
7.52936e-12
1.0353e-11
1.57845e-11
2.66754e-11
3.23106e-10
2.75649e-10
8.70121e-10
2.60649e-10
4.57357e-11
2.92407e-11
2.06469e-11
1.79699e-11
8.94074e-12
5.13044e-12
3.612e-12
2.6727e-12
1.91664e-12
1.363e-12
9.8746e-13
7.27121e-13
5.38708e-13
3.99532e-13
2.96058e-13
2.18484e-13
1.59516e-13
1.14029e-13
7.86556e-14
5.1327e-14
3.08025e-14
1.62613e-14
6.95612e-15
1.99532e-15
1.96349e-16
2.03334e-18
6.56936e-16
4.50532e-15
1.52729e-14
3.80938e-14
8.01532e-14
1.51369e-13
2.65344e-13
4.40319e-13
6.99676e-13
1.07291e-12
1.59371e-12
2.29795e-12
3.22453e-12
4.39729e-12
5.89244e-12
7.77536e-12
1.04724e-11
1.46413e-11
2.23715e-11
3.72256e-11
2.44183e-10
2.5992e-10
7.41729e-10
2.944e-10
3.98325e-11
3.08582e-11
1.98559e-11
1.90491e-11
9.94255e-12
5.60091e-12
3.91128e-12
2.92248e-12
2.12065e-12
1.51354e-12
1.09626e-12
8.07078e-13
5.97839e-13
4.42904e-13
3.27467e-13
2.40863e-13
1.7503e-13
1.24258e-13
8.48175e-14
5.44547e-14
3.18459e-14
1.61049e-14
6.36856e-15
1.53128e-15
7.43161e-17
4.11821e-17
1.5174e-15
7.95501e-15
2.42486e-14
5.71305e-14
1.15984e-13
2.13739e-13
3.68101e-13
6.02717e-13
9.48303e-13
1.44309e-12
2.13341e-12
3.06773e-12
4.30821e-12
5.90049e-12
7.97675e-12
1.06738e-11
1.45974e-11
2.06927e-11
3.16984e-11
5.21502e-11
1.81037e-10
2.48058e-10
6.21644e-10
3.23428e-10
3.58983e-11
3.18841e-11
1.91158e-11
1.98289e-11
1.10186e-11
6.11052e-12
4.22056e-12
3.17679e-12
2.33458e-12
1.67421e-12
1.21234e-12
8.92025e-13
6.60504e-13
4.88742e-13
3.60485e-13
2.64184e-13
1.90985e-13
1.34554e-13
9.07807e-14
5.72271e-14
3.24946e-14
1.56271e-14
5.613e-15
1.06355e-15
1.20384e-17
2.15709e-16
3.17905e-15
1.36249e-14
3.79978e-14
8.51474e-14
1.67372e-13
3.01588e-13
5.10967e-13
8.26349e-13
1.28834e-12
1.94714e-12
2.86653e-12
4.1138e-12
5.78405e-12
7.95922e-12
1.08517e-11
1.47084e-11
2.03919e-11
2.92506e-11
4.49434e-11
7.3369e-11
1.31847e-10
2.37264e-10
5.13649e-10
3.44116e-10
3.43325e-11
3.2009e-11
1.85309e-11
2.02437e-11
1.21382e-11
6.66057e-12
4.5385e-12
3.4313e-12
2.55468e-12
1.84324e-12
1.33464e-12
9.81016e-13
7.25885e-13
5.36385e-13
3.94579e-13
2.88009e-13
2.07016e-13
1.44616e-13
9.63027e-14
5.94644e-14
3.26371e-14
1.4787e-14
4.70862e-15
6.34688e-16
5.18451e-23
7.16149e-16
6.21332e-15
2.27617e-14
5.88645e-14
1.26183e-13
2.40894e-13
4.2521e-13
7.09613e-13
1.13459e-12
1.75413e-12
2.63498e-12
3.86509e-12
5.53974e-12
7.80113e-12
1.07886e-11
1.48311e-11
2.0342e-11
2.85543e-11
4.139e-11
6.38239e-11
1.03699e-10
9.45187e-11
2.25322e-10
4.19274e-10
3.54114e-10
3.52637e-11
3.10673e-11
1.81576e-11
2.02667e-11
1.32535e-11
7.25073e-12
4.86347e-12
3.68145e-12
2.77612e-12
2.01802e-12
1.46157e-12
1.07273e-12
7.92845e-13
5.84918e-13
4.29024e-13
3.11754e-13
2.22649e-13
1.54065e-13
1.01095e-13
6.09659e-14
3.21638e-14
1.35624e-14
3.6975e-15
2.92972e-16
1.80905e-17
1.8857e-15
1.15276e-14
3.72407e-14
9.02679e-14
1.86013e-13
3.45825e-13
5.9899e-13
9.85796e-13
1.55976e-12
2.39307e-12
3.57551e-12
5.22872e-12
7.48931e-12
1.05674e-11
1.46906e-11
2.03587e-11
2.82341e-11
4.00887e-11
5.86698e-11
9.08488e-11
1.47272e-10
6.68555e-11
2.10955e-10
3.39092e-10
3.52555e-10
3.86686e-11
2.91301e-11
1.79914e-11
1.99169e-11
1.43011e-11
7.87778e-12
5.19337e-12
3.92273e-12
2.99313e-12
2.19492e-12
1.59096e-12
1.16546e-12
8.59922e-13
6.33154e-13
4.62888e-13
3.34685e-13
2.37307e-13
1.62454e-13
1.0483e-13
6.15215e-14
3.09793e-14
1.19601e-14
2.64824e-15
7.96854e-17
1.88096e-16
4.31321e-15
2.05368e-14
5.98553e-14
1.37165e-13
2.72863e-13
4.95219e-13
8.43002e-13
1.36972e-12
2.14658e-12
3.27067e-12
4.86403e-12
7.09555e-12
1.01625e-11
1.43737e-11
2.00902e-11
2.80642e-11
3.93279e-11
5.64431e-11
8.33556e-11
1.29685e-10
2.10124e-10
4.6785e-11
1.93786e-10
2.7283e-10
3.39958e-10
4.43443e-11
2.64839e-11
1.7967e-11
1.9255e-11
1.5207e-11
8.53358e-12
5.52559e-12
4.15089e-12
3.19926e-12
2.36933e-12
1.72004e-12
1.25709e-12
9.25328e-13
6.7964e-13
4.95037e-13
3.55924e-13
2.50311e-13
1.69277e-13
1.07156e-13
6.09276e-14
2.90187e-14
1.00279e-14
1.65512e-15
3.5588e-18
8.14621e-16
8.97316e-15
3.54123e-14
9.473e-14
2.06702e-13
3.98408e-13
7.07405e-13
1.18523e-12
1.90329e-12
2.95697e-12
4.47758e-12
6.63253e-12
9.65749e-12
1.38386e-11
1.96283e-11
2.75883e-11
3.88435e-11
5.49773e-11
7.9711e-11
1.18744e-10
1.85674e-10
3.00977e-10
3.24885e-11
1.74155e-10
2.19413e-10
3.18001e-10
5.18036e-11
2.35394e-11
1.79703e-11
1.83716e-11
1.58957e-11
9.20261e-12
5.85675e-12
4.36194e-12
3.3878e-12
2.53566e-12
1.84532e-12
1.34511e-12
9.8698e-13
7.22675e-13
5.24147e-13
3.74464e-13
2.60909e-13
1.7399e-13
1.07722e-13
5.90096e-14
2.62667e-14
7.86421e-15
8.28639e-16
5.3173e-18
2.4693e-15
1.74332e-14
5.94417e-14
1.47905e-13
3.09129e-13
5.79165e-13
1.00807e-12
1.66467e-12
2.64468e-12
4.07674e-12
6.13949e-12
9.06436e-12
1.3182e-11
1.89083e-11
2.6906e-11
3.80364e-11
5.39763e-11
7.71299e-11
1.12922e-10
1.69616e-10
2.66525e-10
4.32123e-10
2.24568e-11
1.52937e-10
1.77177e-10
2.89161e-10
6.0234e-11
2.07336e-11
1.78606e-11
1.73684e-11
1.63032e-11
9.85986e-12
6.18242e-12
4.55212e-12
3.55224e-12
2.68754e-12
1.96267e-12
1.42665e-12
1.04256e-12
7.60365e-13
5.48751e-13
3.89208e-13
2.683e-13
1.76046e-13
1.06203e-13
5.56491e-14
2.27781e-14
5.62353e-15
2.70967e-16
1.72989e-16
6.15616e-15
3.2158e-14
9.75426e-14
2.28161e-13
4.59087e-13
8.38442e-13
1.43318e-12
2.33563e-12
3.67472e-12
5.625e-12
8.43102e-12
1.24149e-11
1.80431e-11
2.59208e-11
3.70195e-11
5.26465e-11
7.52953e-11
1.08591e-10
1.60452e-10
2.42849e-10
3.83109e-10
6.20015e-10
1.54907e-11
1.31361e-10
1.44174e-10
2.56246e-10
6.85677e-11
1.84435e-11
1.751e-11
1.63365e-11
1.63896e-11
1.04703e-11
6.49682e-12
4.71782e-12
3.68671e-12
2.81816e-12
2.06736e-12
1.49851e-12
1.08958e-12
7.90695e-13
5.67294e-13
3.99015e-13
2.71687e-13
1.74934e-13
1.02344e-13
5.0816e-14
1.86967e-14
3.51153e-15
2.71195e-17
1.00593e-15
1.35591e-14
5.69491e-14
1.56995e-13
3.48187e-13
6.77398e-13
1.20906e-12
2.03306e-12
3.27379e-12
5.10584e-12
7.76749e-12
1.15955e-11
1.70412e-11
2.47655e-11
3.5651e-11
5.11214e-11
7.31473e-11
1.05427e-10
1.53389e-10
2.28559e-10
3.48129e-10
5.50077e-10
8.84521e-10
1.06834e-11
1.10566e-10
1.18463e-10
2.22046e-10
7.56579e-11
1.69193e-11
1.68467e-11
1.53407e-11
1.61478e-11
1.09907e-11
6.79228e-12
4.85557e-12
3.78639e-12
2.92078e-12
2.15423e-12
1.55729e-12
1.12551e-12
8.11644e-13
5.78224e-13
4.02778e-13
2.70337e-13
1.70235e-13
9.60011e-14
4.46012e-14
1.42685e-14
1.7618e-15
1.23737e-18
3.48366e-15
2.74064e-14
9.7578e-14
2.48478e-13
5.26221e-13
9.93605e-13
1.73719e-12
2.87811e-12
4.58477e-12
7.09481e-12
1.07354e-11
1.59733e-11
2.34439e-11
3.40889e-11
4.91957e-11
7.08517e-11
1.02008e-10
1.4813e-10
2.17268e-10
3.26038e-10
4.98552e-10
7.85467e-10
1.24464e-09
7.38106e-12
9.12635e-11
9.82934e-11
1.8894e-10
8.05418e-11
1.62464e-11
1.58738e-11
1.44095e-11
1.56043e-11
1.13738e-11
7.05828e-12
4.96178e-12
3.84763e-12
2.98925e-12
2.21793e-12
1.59947e-12
1.14786e-12
8.21301e-13
5.80104e-13
3.99506e-13
2.6365e-13
1.61683e-13
8.71912e-14
3.72457e-14
9.84028e-15
5.83257e-16
1.97727e-16
9.34982e-15
5.2002e-14
1.62689e-13
3.87541e-13
7.88358e-13
1.44952e-12
2.48773e-12
4.06692e-12
6.4162e-12
9.86076e-12
1.48526e-11
2.20421e-11
3.23287e-11
4.70592e-11
6.81126e-11
9.85463e-11
1.4275e-10
2.08739e-10
3.08267e-10
4.64768e-10
7.10443e-10
1.10753e-09
1.70786e-09
5.1163e-12
7.39099e-11
8.21945e-11
1.58482e-10
8.2652e-11
1.63632e-11
1.4665e-11
1.35345e-11
1.48129e-11
1.15758e-11
7.28056e-12
5.03262e-12
3.8679e-12
3.0185e-12
2.25328e-12
1.62156e-12
1.15434e-12
8.18002e-13
5.71729e-13
3.88428e-13
2.51246e-13
1.49226e-13
7.61363e-14
2.91596e-14
5.83589e-15
6.2375e-17
1.45446e-15
2.15435e-14
9.39903e-14
2.65086e-13
5.96681e-13
1.17182e-12
2.10426e-12
3.55195e-12
5.73775e-12
8.97496e-12
1.3711e-11
2.05739e-11
3.0475e-11
4.46933e-11
6.51606e-11
9.46176e-11
1.37528e-10
2.00358e-10
2.94698e-10
4.3724e-10
6.59642e-10
1.00097e-09
1.52625e-09
2.25341e-09
3.55917e-12
5.88366e-11
6.90345e-11
1.31433e-10
8.18718e-11
1.71052e-11
1.3344e-11
1.26844e-11
1.38426e-11
1.1564e-11
7.44123e-12
5.06403e-12
3.84572e-12
3.00502e-12
2.25569e-12
1.62031e-12
1.14299e-12
8.00476e-13
5.52266e-13
3.69103e-13
2.33044e-13
1.33092e-13
6.33006e-14
2.09211e-14
2.69449e-15
1.58362e-18
5.51186e-15
4.4829e-14
1.63452e-13
4.23555e-13
9.08273e-13
1.72955e-12
3.04131e-12
5.05827e-12
8.08487e-12
1.25518e-11
1.90782e-11
2.85412e-11
4.22247e-11
6.19532e-11
9.05023e-11
1.31857e-10
1.92492e-10
2.81771e-10
4.16045e-10
6.17851e-10
9.26655e-10
1.38132e-09
2.02886e-09
2.82022e-09
2.48424e-12
4.61624e-11
5.80107e-11
1.08058e-10
7.84865e-11
1.82337e-11
1.20459e-11
1.1823e-11
1.2764e-11
1.13232e-11
7.51965e-12
5.05156e-12
3.78047e-12
2.94711e-12
2.22166e-12
1.59299e-12
1.11232e-12
7.67982e-13
5.21392e-13
3.41534e-13
2.0935e-13
1.1384e-13
4.94079e-14
1.3243e-14
7.52372e-16
3.58378e-16
1.5464e-14
8.67049e-14
2.75465e-13
6.65443e-13
1.36872e-12
2.53673e-12
4.37865e-12
7.18772e-12
1.13819e-11
1.75566e-11
2.65732e-11
3.96632e-11
5.86427e-11
8.61196e-11
1.26078e-10
1.84273e-10
2.69963e-10
3.96341e-10
5.85441e-10
8.65019e-10
1.27725e-09
1.8444e-09
2.56682e-09
3.31997e-09
1.73895e-12
3.57945e-11
4.85953e-11
8.8286e-11
7.30569e-11
1.94677e-11
1.08815e-11
1.09242e-11
1.16376e-11
1.0859e-11
7.49474e-12
4.9903e-12
3.67227e-12
2.845e-12
2.14925e-12
1.53772e-12
1.06151e-12
7.20455e-13
4.79417e-13
3.06274e-13
1.80928e-13
9.2396e-14
3.54282e-14
6.88807e-15
4.18863e-17
2.70672e-15
3.64963e-14
1.58704e-13
4.52309e-13
1.0303e-12
2.04431e-12
3.70003e-12
6.28303e-12
1.01958e-11
1.60155e-11
2.45692e-11
3.70621e-11
5.52305e-11
8.16503e-11
1.20047e-10
1.7611e-10
2.58035e-10
3.78733e-10
5.55893e-10
8.16862e-10
1.19016e-09
1.70765e-09
2.35183e-09
3.06166e-09
3.67875e-09
1.21992e-12
2.75016e-11
4.04627e-11
7.18243e-11
6.62594e-11
2.05278e-11
9.91594e-12
9.98101e-12
1.05075e-11
1.01971e-11
7.34851e-12
4.87506e-12
3.52191e-12
2.70073e-12
2.03845e-12
1.45379e-12
9.90623e-13
6.58629e-13
4.27398e-13
2.64514e-13
1.49047e-13
7.00497e-14
2.25145e-14
2.50968e-15
2.79713e-17
1.0288e-14
7.69477e-14
2.78237e-13
7.26595e-13
1.57504e-12
3.02951e-12
5.37073e-12
8.99048e-12
1.44443e-11
2.2533e-11
3.44125e-11
5.17757e-11
7.70781e-11
1.13974e-10
1.67761e-10
2.46464e-10
3.61457e-10
5.29942e-10
7.73612e-10
1.12148e-09
1.59192e-09
2.18675e-09
2.83504e-09
3.43855e-09
3.87285e-09
8.57079e-13
2.09853e-11
3.34206e-11
5.82604e-11
5.8753e-11
2.11844e-11
9.16457e-12
9.00706e-12
9.4003e-12
9.37806e-12
7.06995e-12
4.70071e-12
3.33089e-12
2.51795e-12
1.89145e-12
1.34206e-12
9.00766e-13
5.84146e-13
3.67205e-13
2.18124e-13
1.15488e-13
4.84032e-14
1.18652e-14
3.85136e-16
1.15653e-15
2.8749e-14
1.49823e-13
4.71201e-13
1.14565e-12
2.38118e-12
4.45873e-12
7.76336e-12
1.28355e-11
2.04459e-11
3.17123e-11
4.82565e-11
7.2465e-11
1.07812e-10
1.59462e-10
2.34857e-10
3.4505e-10
5.05106e-10
7.36116e-10
1.06044e-09
1.4995e-09
2.0449e-09
2.65437e-09
3.22125e-09
3.66329e-09
3.92684e-09
6.02671e-13
1.5935e-11
2.73506e-11
4.71479e-11
5.10975e-11
2.12921e-11
8.60079e-12
8.03127e-12
8.32952e-12
8.45046e-12
6.65828e-12
4.46312e-12
3.10148e-12
2.30175e-12
1.71261e-12
1.20518e-12
7.94316e-13
4.99632e-13
3.01533e-13
1.69629e-13
8.24731e-14
2.92329e-14
4.48141e-15
6.04542e-21
6.86427e-15
6.73731e-14
2.74919e-13
7.75627e-13
1.77771e-12
3.5651e-12
6.52299e-12
1.11823e-11
1.82927e-11
2.89295e-11
4.46595e-11
6.77665e-11
1.01617e-10
1.5111e-10
2.23462e-10
3.28886e-10
4.81946e-10
7.00953e-10
1.00795e-09
1.41777e-09
1.92967e-09
2.49621e-09
3.04159e-09
3.4691e-09
3.74912e-09
3.88553e-09
4.23944e-13
1.20612e-11
2.21668e-11
3.80655e-11
4.37104e-11
2.08047e-11
8.16954e-12
7.08719e-12
7.30136e-12
7.46339e-12
6.12447e-12
4.16045e-12
2.83696e-12
2.05836e-12
1.50833e-12
1.04782e-12
6.75045e-13
4.08719e-13
2.3385e-13
1.22105e-13
5.25001e-14
1.42387e-14
7.78919e-16
5.71282e-16
2.35144e-14
1.40811e-13
4.818e-13
1.24678e-12
2.72054e-12
5.29243e-12
9.49338e-12
1.60596e-11
2.60365e-11
4.09314e-11
6.29486e-11
9.5307e-11
1.42741e-10
2.12083e-10
3.13199e-10
4.59491e-10
6.68644e-10
9.59474e-10
1.34766e-09
1.8277e-09
2.36495e-09
2.88117e-09
3.30353e-09
3.58189e-09
3.73487e-09
3.78988e-09
2.98266e-13
9.11167e-12
1.77952e-11
3.06457e-11
3.68597e-11
1.97647e-11
7.80246e-12
6.20185e-12
6.31984e-12
6.46094e-12
5.49055e-12
3.79465e-12
2.5418e-12
1.79511e-12
1.28674e-12
8.76561e-13
5.48163e-13
3.15988e-13
1.68227e-13
7.894e-14
2.80395e-14
4.63299e-15
7.14475e-19
5.5572e-15
6.17456e-14
2.71478e-13
8.13897e-13
1.9642e-12
4.11344e-12
7.79821e-12
1.37543e-11
2.30081e-11
3.70247e-11
5.79246e-11
8.88122e-11
1.34211e-10
2.00713e-10
2.9764e-10
4.3791e-10
6.3773e-10
9.15398e-10
1.28356e-09
1.73991e-09
2.24806e-09
2.74485e-09
3.15302e-09
3.4361e-09
3.59191e-09
3.66044e-09
3.66748e-09
2.09906e-13
6.87528e-12
1.41635e-11
2.45845e-11
3.06907e-11
1.82767e-11
7.43397e-12
5.39094e-12
5.39056e-12
5.47928e-12
4.78712e-12
3.37287e-12
2.2221e-12
1.52027e-12
1.05723e-12
6.99662e-13
4.20191e-13
2.26781e-13
1.09051e-13
4.34387e-14
1.10436e-14
5.18578e-16
6.30795e-16
2.27374e-14
1.38442e-13
4.92834e-13
1.33412e-12
3.04141e-12
6.15394e-12
1.1415e-11
1.98497e-11
3.28962e-11
5.26152e-11
8.19937e-11
1.25392e-10
1.89105e-10
2.82116e-10
4.16617e-10
6.08233e-10
8.73633e-10
1.22559e-09
1.65998e-09
2.14649e-09
2.62219e-09
3.02216e-09
3.30176e-09
3.46561e-09
3.53706e-09
3.55487e-09
3.53309e-09
1.4784e-13
5.18311e-12
1.11894e-11
1.9637e-11
2.52615e-11
1.64763e-11
7.01364e-12
4.65892e-12
4.52164e-12
4.5462e-12
4.04943e-12
2.90814e-12
1.88593e-12
1.243e-12