/*--------------------------------*- C++ -*----------------------------------*\
  =========                 |
  \\      /  F ield         | OpenFOAM: The Open Source CFD Toolbox
   \\    /   O peration     | Website:  https://openfoam.org
    \\  /    A nd           | Version:  7
     \\/     M anipulation  |
\*---------------------------------------------------------------------------*/
FoamFile
{
    version     2.0;
    format      ascii;
    class       volScalarField;
    location    "0.31";
    object      p;
}
// * * * * * * * * * * * * * * * * * * * * * * * * * * * * * * * * * * * * * //

dimensions      [0 2 -2 0 0 0 0];

internalField   nonuniform List<scalar> 
70000
(
0.101289
0.0238365
0.0113197
0.0137689
0.0139437
0.012893
0.0119616
0.0112616
0.0106826
0.0101772
0.00973221
0.00933977
0.00899242
0.00868366
0.0084082
0.00816179
0.00794105
0.00774323
0.00756614
0.00740799
0.00726731
0.0071429
0.00703379
0.00693917
0.00685837
0.00679086
0.00673621
0.00669402
0.00666403
0.00664594
0.00663953
0.00664448
0.00666057
0.00668728
0.0067243
0.00677072
0.00682587
0.00688831
0.00695637
0.00702825
0.00709936
0.00716935
0.00722477
0.00727402
0.00727713
0.00727545
0.0071516
0.00705157
0.00664544
0.00627245
0.0969213
0.0242034
0.0115227
0.0138646
0.0139983
0.0129291
0.0119899
0.011285
0.0107023
0.010194
0.00974689
0.00935275
0.00900404
0.00869417
0.00841778
0.00817059
0.00794917
0.00775078
0.00757319
0.0074146
0.00727354
0.0071488
0.00703939
0.0069445
0.00686348
0.00679576
0.00674092
0.00669857
0.00666844
0.00665023
0.00664371
0.00664857
0.00666459
0.00669126
0.00672823
0.00677464
0.00682979
0.00689224
0.00696034
0.00703228
0.00710346
0.00717357
0.00722908
0.00727851
0.00728176
0.0072803
0.00715671
0.00705608
0.00665414
0.00632531
0.0933406
0.0251433
0.011863
0.0139937
0.0140726
0.0129739
0.0120223
0.0113112
0.0107241
0.0102126
0.0097629
0.00936682
0.00901657
0.00870545
0.00842803
0.00817997
0.00795782
0.0077588
0.00758066
0.00742159
0.00728011
0.007155
0.00704527
0.00695009
0.00686881
0.00680086
0.00674582
0.00670329
0.006673
0.00665465
0.00664801
0.00665277
0.00666871
0.00669531
0.00673224
0.00677861
0.00683375
0.00689623
0.00696437
0.00703639
0.00710767
0.00717796
0.00723365
0.00728343
0.00728693
0.00728612
0.0071632
0.00706251
0.00667695
0.00638759
0.0902463
0.0262449
0.0123323
0.0141675
0.0141734
0.0130314
0.0120604
0.0113411
0.0107487
0.0102331
0.00978035
0.00938198
0.00902996
0.00871742
0.00843883
0.0081898
0.00796683
0.00776711
0.00758838
0.00742879
0.00728685
0.00716133
0.00705124
0.00695575
0.00687418
0.00680598
0.00675071
0.00670798
0.00667751
0.00665899
0.00665221
0.00665684
0.00667267
0.00669918
0.00673604
0.00678237
0.00683749
0.00689998
0.00696815
0.00704026
0.00711168
0.00718217
0.00723814
0.00728837
0.00729248
0.00729241
0.00717151
0.00707054
0.00671364
0.00646037
0.0872868
0.0273411
0.012898
0.0143878
0.0143077
0.0131091
0.0121092
0.0113781
0.0107786
0.0102576
0.00980085
0.00939951
0.00904524
0.00873092
0.0084509
0.00820069
0.00797674
0.00777619
0.00759674
0.00743653
0.00729405
0.00716806
0.00705755
0.00696168
0.00687977
0.00681127
0.00675572
0.00671274
0.00668204
0.00666331
0.00665635
0.00666081
0.00667648
0.00670286
0.00673961
0.00678585
0.0068409
0.00690335
0.00697153
0.0070437
0.00711525
0.00718597
0.00724233
0.00729305
0.00729818
0.0072989
0.00718186
0.00708052
0.00676272
0.00654795
0.0843776
0.0283798
0.0135128
0.0146345
0.0144696
0.0132085
0.0121713
0.0114241
0.0108157
0.0102878
0.00982584
0.00942065
0.00906346
0.00874687
0.00846502
0.00821332
0.00798813
0.00778653
0.00760619
0.00744521
0.00730206
0.00717548
0.00706445
0.00696811
0.00688578
0.00681689
0.00676098
0.00671768
0.00668668
0.00666767
0.00666045
0.00666466
0.00668011
0.00670628
0.00674283
0.00678891
0.00684381
0.00690616
0.00697427
0.00704644
0.00711808
0.007189
0.0072458
0.00729705
0.00730363
0.00730517
0.00719411
0.00709294
0.00682185
0.00665002
0.0815127
0.0293421
0.0141432
0.014886
0.0146459
0.013325
0.0122456
0.0114793
0.0108603
0.0103243
0.00985605
0.00944612
0.00908534
0.00876592
0.0084818
0.00822823
0.00800149
0.00779858
0.00761713
0.00745519
0.0073112
0.00718388
0.00707218
0.00697525
0.00689238
0.006823
0.00676664
0.00672291
0.0066915
0.00667212
0.00666453
0.0066684
0.00668351
0.00670937
0.00674561
0.0067914
0.00684604
0.00690817
0.00697609
0.00704816
0.00711979
0.00719083
0.00724808
0.00729986
0.0073083
0.0073107
0.00720784
0.00710822
0.00688822
0.00676303
0.0786981
0.03022
0.0147733
0.0151305
0.0148258
0.0134523
0.0123287
0.0115416
0.0109114
0.0103666
0.0098913
0.00947597
0.00911103
0.00878832
0.00850152
0.00824575
0.00801715
0.00781267
0.00762986
0.00746675
0.00732173
0.0071935
0.00708099
0.00698331
0.00689977
0.00682975
0.00677281
0.00672853
0.0066966
0.00667671
0.00666863
0.00667203
0.00668667
0.00671206
0.00674785
0.00679321
0.00684742
0.00690916
0.00697673
0.00704853
0.00712
0.00719103
0.0072487
0.00730093
0.00731166
0.00731498
0.00722246
0.00712648
0.00695878
0.00688237
0.0759397
0.0310105
0.0153978
0.015364
0.0150032
0.0135854
0.0124174
0.0116083
0.0109669
0.0104133
0.0099306
0.00950955
0.00914014
0.00881384
0.00852409
0.00826583
0.00803514
0.00782887
0.00764451
0.00748004
0.00733381
0.0072045
0.00709101
0.00699245
0.00690808
0.0068373
0.00677963
0.00673465
0.00670205
0.00668152
0.0066728
0.00667556
0.00668957
0.00671434
0.0067495
0.00679424
0.00684782
0.00690898
0.00697597
0.0070473
0.00711841
0.00718925
0.00724724
0.0072998
0.0073132
0.00731757
0.00723726
0.00714758
0.00703057
0.00700365
0.0732419
0.0317136
0.0160155
0.0155862
0.0151751
0.0137216
0.0125096
0.0116776
0.011025
0.0104627
0.00997274
0.00954586
0.00917188
0.00884187
0.00854903
0.00828816
0.00805522
0.00784701
0.00766095
0.00749498
0.00734741
0.00721689
0.00710229
0.00700269
0.00691736
0.00684568
0.00678715
0.00674134
0.00670793
0.00668659
0.00667708
0.00667905
0.00669226
0.00671622
0.00675054
0.00679445
0.00684718
0.00690752
0.00697369
0.0070443
0.00711481
0.00718522
0.00724342
0.00729614
0.00731254
0.0073182
0.0072515
0.00717107
0.00710097
0.00712234
0.0706082
0.0323296
0.0166258
0.015798
0.0153402
0.0138596
0.0126043
0.0117484
0.0110845
0.0105139
0.0100167
0.009584
0.00920543
0.0088717
0.00857573
0.0083122
0.00807696
0.00786674
0.0076789
0.00751134
0.00736234
0.00723051
0.0071147
0.00701397
0.00692758
0.00685487
0.00679536
0.00674859
0.00671424
0.00669196
0.0066815
0.00668251
0.00669474
0.0067177
0.00675099
0.00679385
0.00684549
0.00690476
0.00696985
0.00703948
0.00710913
0.00717884
0.00723711
0.00728978
0.00730943
0.00731674
0.0072645
0.00719625
0.00716787
0.00723443
0.0680414
0.0328589
0.0172272
0.0160003
0.0154976
0.0139983
0.0127011
0.0118203
0.011145
0.0105662
0.0100618
0.00962331
0.00924018
0.00890273
0.00860365
0.00833745
0.00809989
0.00788764
0.007698
0.00752881
0.00737833
0.00724513
0.00712804
0.00702612
0.00693857
0.00686477
0.00680417
0.00675635
0.00672093
0.00669759
0.00668604
0.00668595
0.00669703
0.00671882
0.00675088
0.00679249
0.00684281
0.00690078
0.00696453
0.0070329
0.00710144
0.00717017
0.00722835
0.00728079
0.00730384
0.00731329
0.00727577
0.00722224
0.0072298
0.00733684
0.0655441
0.0333019
0.0178176
0.0161943
0.0156465
0.0141371
0.0127999
0.011893
0.011206
0.0106192
0.0101077
0.00966344
0.00927573
0.00893458
0.00863239
0.00836353
0.00812366
0.00790937
0.00771791
0.00754707
0.00739509
0.00726049
0.00714209
0.00703892
0.00695018
0.00687521
0.00681346
0.0067645
0.00672793
0.00670343
0.00669068
0.00668936
0.00669916
0.00671962
0.00675027
0.00679044
0.00683924
0.00689568
0.00695786
0.00702472
0.00709193
0.00715942
0.00721735
0.00726943
0.00729591
0.00730808
0.00728505
0.00724814
0.00728589
0.00742764
0.0631189
0.0336595
0.0183947
0.0163815
0.0157864
0.014275
0.0129005
0.0119665
0.0112674
0.0106728
0.0101543
0.00970422
0.00931191
0.00896704
0.00866174
0.00839021
0.00814802
0.00793168
0.00773839
0.0075659
0.0074124
0.00727638
0.00715665
0.0070522
0.00696223
0.00688604
0.0068231
0.00677293
0.00673515
0.0067094
0.00669537
0.00669272
0.00670111
0.00672011
0.00674923
0.00678779
0.0068349
0.00688961
0.00695004
0.00701516
0.00708085
0.00714688
0.00720445
0.00725609
0.00728595
0.00730147
0.0072923
0.00727315
0.00733586
0.00750613
0.0607681
0.033933
0.0189555
0.0165632
0.0159169
0.0144112
0.0130029
0.0120409
0.0113292
0.0107268
0.0102015
0.00974556
0.00934862
0.00900001
0.00869158
0.00841737
0.00817284
0.00795444
0.00775931
0.00758515
0.00743011
0.00729266
0.00717157
0.00706582
0.00697458
0.00689715
0.00683296
0.00678155
0.0067425
0.00671544
0.00670006
0.00669599
0.0067029
0.00672034
0.0067478
0.00678463
0.00682991
0.00688275
0.00694126
0.00700448
0.0070685
0.00713292
0.00719002
0.00724122
0.00727437
0.00729383
0.00729766
0.00729664
0.00737985
0.00757266
0.0584936
0.0341241
0.0194969
0.0167412
0.0160378
0.0145447
0.0131067
0.0121161
0.0113913
0.0107814
0.0102492
0.00978744
0.00938582
0.00903344
0.00872186
0.00844494
0.00819806
0.00797758
0.00778058
0.00760473
0.00744813
0.00730922
0.00718675
0.00707968
0.00698714
0.00690844
0.00684298
0.00679028
0.00674991
0.0067215
0.0067047
0.00669916
0.00670451
0.00672031
0.00674602
0.00678103
0.00682438
0.00687523
0.00693172
0.00699291
0.00705517
0.00711787
0.00717443
0.00722528
0.00726158
0.0072855
0.00730137
0.00731817
0.00741831
0.00762833
0.0562972
0.0342347
0.0200158
0.0169166
0.0161491
0.0146746
0.0132118
0.0121921
0.0114536
0.0108362
0.0102975
0.00982983
0.00942348
0.00906731
0.00875255
0.0084729
0.00822364
0.00800105
0.00780217
0.00762461
0.00746642
0.00732604
0.00720216
0.00709373
0.00699988
0.00691987
0.0068531
0.00679908
0.00675735
0.00672754
0.00670928
0.00670221
0.00670595
0.00672004
0.00674394
0.00677704
0.00681839
0.00686716
0.00692157
0.00698064
0.00704108
0.00710203
0.00715799
0.00720864
0.00724793
0.00727675
0.00730368
0.00733748
0.00745179
0.00767459
0.0541802
0.0342674
0.0205092
0.0170908
0.0162508
0.0147997
0.0133177
0.0122691
0.011516
0.0108913
0.0103462
0.0098727
0.00946159
0.0091016
0.00878364
0.00850124
0.00824957
0.00802485
0.00782406
0.00764475
0.00748496
0.00734307
0.00721776
0.00710795
0.00701275
0.0069314
0.00686329
0.00680791
0.00676479
0.00673354
0.00671378
0.00670513
0.0067072
0.00671953
0.00674157
0.00677271
0.006812
0.00685863
0.00691089
0.00696781
0.00702639
0.00708561
0.00714095
0.00719155
0.0072337
0.0072677
0.0073048
0.00735443
0.00748082
0.00771292
0.0521433
0.0342251
0.0209742
0.0172646
0.0163432
0.0149191
0.013424
0.0123469
0.0115784
0.0109465
0.0103953
0.00991602
0.00950013
0.00913628
0.00881511
0.00852994
0.00827584
0.00804897
0.00784624
0.00766516
0.00750373
0.00736031
0.00723354
0.00712232
0.00702573
0.00694301
0.00687354
0.00681676
0.00677221
0.00673948
0.00671817
0.0067079
0.00670826
0.00671878
0.00673891
0.00676803
0.00680522
0.00684967
0.00689976
0.00695449
0.0070112
0.00706873
0.00712344
0.00717418
0.00721906
0.00725839
0.00730484
0.00736896
0.00750581
0.00774463
0.0501869
0.0341113
0.021408
0.0174386
0.0164267
0.015032
0.0135302
0.0124256
0.011641
0.0110018
0.0104447
0.00995976
0.00953905
0.00917133
0.00884694
0.00855899
0.00830244
0.00807338
0.00786869
0.00768582
0.00752273
0.00737774
0.00724948
0.00713682
0.00703882
0.0069547
0.00688381
0.0068256
0.00677959
0.00674534
0.00672244
0.00671051
0.00670911
0.00671779
0.00673595
0.00676302
0.00679807
0.0068403
0.0068882
0.00694073
0.00699558
0.00705146
0.00710555
0.00715657
0.00720408
0.00724877
0.00730382
0.007381
0.00752707
0.00777072
0.048311
0.0339299
0.021808
0.0176129
0.016502
0.0151374
0.0136356
0.0125051
0.0117035
0.011057
0.0104943
0.0100039
0.00957835
0.00920674
0.00887911
0.00858836
0.00832934
0.00809809
0.0078914
0.00770672
0.00754194
0.00739535
0.00726558
0.00715144
0.007052
0.00696645
0.00689412
0.00683444
0.00678692
0.00675111
0.00672659
0.00671295
0.00670975
0.00671653
0.0067327
0.00675767
0.00679054
0.00683052
0.00687621
0.00692655
0.00697952
0.00703382
0.0070873
0.00713874
0.00718877
0.00723873
0.00730171
0.00739052
0.00754475
0.00779192
0.0465152
0.0336852
0.0221716
0.0177874
0.0165697
0.0152347
0.0137396
0.0125852
0.011766
0.011112
0.0105441
0.0100483
0.00961798
0.00924246
0.0089116
0.00861804
0.00835654
0.00812307
0.00791437
0.00772784
0.00756135
0.00741315
0.00728182
0.00716618
0.00706526
0.00697824
0.00690443
0.00684325
0.00679418
0.00675677
0.00673058
0.00671519
0.00671015
0.00671499
0.00672912
0.00675195
0.00678261
0.00682032
0.00686377
0.00691192
0.00696303
0.0070158
0.00706867
0.00712063
0.00717308
0.0072281
0.00729839
0.00739745
0.00755892
0.00780864
0.0447986
0.0333821
0.0224966
0.0179616
0.0166308
0.0153234
0.0138414
0.0126658
0.0118285
0.0111668
0.010594
0.010093
0.00965792
0.00927848
0.00894438
0.00864802
0.00838403
0.00814831
0.00793759
0.00774919
0.00758095
0.00743111
0.0072982
0.00718103
0.0070786
0.00699007
0.00691475
0.00685202
0.00680137
0.00676231
0.00673441
0.00671722
0.00671029
0.00671315
0.0067252
0.00674585
0.00677427
0.00680967
0.00685087
0.00689683
0.00694607
0.00699737
0.00704964
0.00710216
0.00715691
0.00721673
0.00729371
0.00740173
0.00756956
0.00782111
0.04316
0.0330254
0.0227811
0.0181346
0.0166861
0.015403
0.01394
0.0127467
0.011891
0.0112212
0.0106437
0.0101379
0.00969811
0.00931476
0.00897742
0.00867825
0.00841177
0.0081738
0.00796103
0.00777074
0.00760074
0.00744922
0.0073147
0.00719596
0.00709199
0.00700192
0.00692504
0.00686074
0.00680845
0.00676771
0.00673805
0.00671903
0.00671017
0.00671099
0.00672091
0.00673935
0.00676549
0.00679856
0.00683748
0.00688126
0.00692862
0.00697848
0.00703013
0.00708324
0.00714015
0.00720443
0.00728749
0.00740326
0.0075766
0.00782936
0.0415978
0.0326206
0.0230233
0.0183051
0.0167365
0.0154734
0.0140348
0.0128275
0.0119534
0.0112751
0.0106933
0.0101829
0.00973851
0.00935126
0.00901069
0.00870873
0.00843974
0.00819951
0.00798467
0.00779248
0.00762068
0.00746746
0.00733131
0.00721098
0.00710543
0.00701378
0.00693531
0.00686938
0.00681543
0.00677296
0.0067415
0.00672058
0.00670974
0.00670849
0.00671625
0.00673242
0.00675624
0.00678696
0.00682358
0.00686516
0.00691064
0.00695908
0.00701011
0.00706376
0.00712269
0.00719104
0.00727956
0.00740195
0.00757991
0.00783334
0.0401101
0.0321731
0.0232221
0.0184714
0.0167831
0.0155347
0.0141247
0.0129079
0.0120157
0.0113285
0.0107425
0.0102279
0.00977908
0.00938794
0.00904415
0.00873941
0.00846793
0.00822543
0.00800851
0.00781439
0.00764078
0.00748583
0.00734801
0.00722605
0.00711889
0.00702564
0.00694554
0.00687794
0.00682228
0.00677803
0.00674472
0.00672187
0.00670901
0.00670563
0.00671117
0.00672503
0.0067465
0.00677483
0.00680912
0.0068485
0.00689208
0.00693911
0.00698948
0.00704362
0.00710437
0.00717636
0.00726971
0.00739766
0.00757938
0.00783288
0.0386947
0.0316885
0.0233765
0.0186315
0.0168267
0.0155869
0.014209
0.0129873
0.0120779
0.0113813
0.0107913
0.0102728
0.00981975
0.00942476
0.00907776
0.00877026
0.00849629
0.00825152
0.00803251
0.00783644
0.00766101
0.00750431
0.00736479
0.00724117
0.00713237
0.00703746
0.00695569
0.00688639
0.00682898
0.00678291
0.0067477
0.00672287
0.00670793
0.00670238
0.00670565
0.00671717
0.00673624
0.00676215
0.00679408
0.00683124
0.00687291
0.00691851
0.00696817
0.00702268
0.00708506
0.00716023
0.00725775
0.00739025
0.00757484
0.00782779
0.0373491
0.0311724
0.0234862
0.0187832
0.0168681
0.0156304
0.0142869
0.0130653
0.0121399
0.0114335
0.0108395
0.0103176
0.00986044
0.00946166
0.00911148
0.00880124
0.00852481
0.00827777
0.00805666
0.00785863
0.00768134
0.00752287
0.00738163
0.00725632
0.00714583
0.00704924
0.00696577
0.00689472
0.0068355
0.00678757
0.00675042
0.00672355
0.00670649
0.00669871
0.00669968
0.0067088
0.00672543
0.00674888
0.00677842
0.00681334
0.00685306
0.0068972
0.00694609
0.00700085
0.00706459
0.00714246
0.00724348
0.00737956
0.0075661
0.00781783
0.0360708
0.0306304
0.0235513
0.018924
0.0169079
0.0156658
0.0143578
0.0131412
0.0122015
0.0114849
0.010887
0.010362
0.00990108
0.0094986
0.00914526
0.00883231
0.00855343
0.00830413
0.00808092
0.00788092
0.00770176
0.00754149
0.0073985
0.00727147
0.00715927
0.00706096
0.00697574
0.0069029
0.00684183
0.00679199
0.00675284
0.0067239
0.00670465
0.0066946
0.0066932
0.00669989
0.00671403
0.00673498
0.00676209
0.00679474
0.00683247
0.0068751
0.00692315
0.00697798
0.00704281
0.00712287
0.00722669
0.00736543
0.007553
0.00780273
0.0348569
0.0300678
0.0235724
0.0190514
0.0169464
0.0156938
0.014421
0.0132143
0.0122626
0.0115356
0.0109336
0.0104059
0.00994157
0.00953551
0.00917905
0.00886342
0.00858213
0.00833058
0.00810526
0.00790328
0.00772223
0.00756015
0.00741539
0.0072866
0.00717266
0.00707259
0.00698558
0.00691091
0.00684795
0.00679614
0.00675495
0.00672387
0.0067024
0.00669002
0.00668621
0.0066904
0.006702
0.00672042
0.00674506
0.00677539
0.00681109
0.00685214
0.00689923
0.00695393
0.00701954
0.00710128
0.00720718
0.00734766
0.00753532
0.00778221
0.0337043
0.0294897
0.0235507
0.0191629
0.0169838
0.0157151
0.0144762
0.0132839
0.0123228
0.0115855
0.0109793
0.0104492
0.00998181
0.00957231
0.00921279
0.00889452
0.00861085
0.00835707
0.00812966
0.00792569
0.00774274
0.00757882
0.00743226
0.0073017
0.00718597
0.00708411
0.00699526
0.00691872
0.00685382
0.0068
0.00675672
0.00672345
0.00669969
0.00668494
0.00667865
0.0066803
0.00668932
0.00670515
0.00672727
0.00675523
0.00678884
0.00682823
0.00687423
0.00692859
0.00699462
0.00707749
0.00718476
0.00732607
0.00751285
0.00775602
0.0326102
0.0289009
0.0234878
0.0192564
0.0170197
0.0157304
0.0145232
0.0133494
0.0123819
0.0116346
0.0110239
0.0104918
0.0100217
0.00960895
0.00924642
0.00892556
0.00863954
0.00838357
0.00815406
0.0079481
0.00776325
0.00759747
0.00744909
0.00731672
0.00719918
0.00709548
0.00700477
0.0069263
0.00685942
0.00680354
0.00675811
0.0067226
0.0066965
0.00667931
0.00667051
0.00666956
0.00667594
0.00668913
0.00670867
0.00673421
0.00676566
0.00680328
0.00684803
0.00690179
0.00696788
0.00705131
0.00715921
0.00730044
0.00748539
0.00772389
0.0315714
0.0283055
0.0233858
0.0193301
0.0170533
0.0157404
0.014562
0.0134099
0.0124394
0.0116828
0.0110675
0.0105335
0.0100611
0.00964532
0.00927988
0.00895647
0.00866816
0.00841002
0.00817844
0.00797049
0.00778372
0.00761607
0.00746585
0.00733164
0.00721226
0.00710669
0.00701407
0.00693363
0.00686472
0.00680673
0.0067591
0.00672129
0.0066928
0.00667312
0.00666173
0.00665813
0.00666181
0.0066723
0.00668921
0.00671226
0.00674145
0.00677718
0.0068205
0.00687339
0.00693913
0.00702255
0.00713033
0.00727059
0.00745272
0.00768556
0.0305849
0.0277074
0.0232472
0.0193824
0.0170837
0.0157458
0.0145926
0.0134649
0.0124949
0.0117298
0.0111098
0.0105741
0.0100998
0.00968133
0.00931309
0.00898719
0.00869663
0.00843637
0.00820274
0.00799281
0.00780411
0.00763458
0.0074825
0.00734643
0.00722517
0.0071177
0.00702312
0.00694068
0.00686969
0.00680954
0.00675965
0.00671949
0.00668855
0.00666631
0.00665228
0.00664597
0.00664689
0.00665462
0.00666882
0.0066893
0.00671614
0.00674984
0.00679153
0.00684325
0.0069082
0.00699102
0.00709791
0.00723631
0.00741464
0.0076408
0.0296476
0.02711
0.0230749
0.0194121
0.0171096
0.0157471
0.0146154
0.0135137
0.0125478
0.0117757
0.0111508
0.0106135
0.0101377
0.00971688
0.00934597
0.00901765
0.00872491
0.00846257
0.00822692
0.00801502
0.00782439
0.00765297
0.007499
0.00736105
0.00723789
0.00712847
0.00703191
0.00694741
0.00687429
0.00681192
0.00675973
0.00671716
0.00668371
0.00665886
0.00664213
0.00663303
0.00663113
0.00663604
0.00664745
0.00666527
0.00668964
0.00672114
0.00676098
0.0068112
0.00687493
0.00695654
0.00706178
0.0071974
0.00737095
0.00758941
0.0287565
0.0265162
0.0228721
0.0194183
0.0171298
0.0157446
0.0146306
0.013556
0.0125976
0.0118202
0.0111905
0.0106516
0.0101747
0.00975183
0.00937845
0.00904779
0.00875292
0.00848855
0.00825092
0.00803706
0.00784451
0.00767119
0.00751533
0.00737547
0.00725037
0.00713897
0.00704038
0.00695379
0.00687849
0.00681386
0.0067593
0.00671426
0.00667824
0.00665072
0.00663122
0.00661928
0.00661449
0.00661649
0.00662504
0.00664008
0.00666185
0.00669099
0.00672873
0.0067771
0.00683912
0.0069189
0.00702173
0.00715368
0.00732147
0.0075312
0.0279088
0.0259283
0.0226419
0.0194006
0.0171426
0.0157385
0.0146388
0.0135915
0.0126437
0.0118629
0.0112287
0.0106883
0.0102106
0.00978606
0.00941042
0.00907751
0.00878058
0.00851426
0.00827468
0.00805889
0.00786443
0.0076892
0.00753143
0.00738964
0.00726258
0.00714917
0.00704851
0.00695977
0.00688225
0.0068153
0.00675832
0.00671076
0.0066721
0.00664184
0.00661951
0.00660466
0.0065969
0.00659591
0.0066015
0.00661367
0.00663269
0.00665925
0.00669463
0.00674079
0.00680062
0.00687794
0.00697758
0.00710498
0.00726604
0.00746604
0.0271017
0.0253485
0.0223877
0.0193589
0.0171466
0.0157289
0.0146404
0.0136198
0.0126855
0.0119036
0.0112653
0.0107235
0.0102452
0.00981942
0.00944177
0.00910674
0.00880783
0.00853961
0.00829814
0.00808045
0.00788408
0.00770695
0.00754726
0.00740352
0.00727447
0.00715902
0.00705625
0.00696533
0.00688553
0.00681621
0.00675675
0.00670661
0.00666525
0.00663219
0.00660695
0.00658912
0.00657831
0.00657425
0.00657678
0.00658594
0.00660205
0.00662583
0.00665855
0.00670212
0.00675925
0.00683348
0.00692917
0.00705114
0.00720453
0.0073938
0.0263326
0.0247784
0.0221128
0.0192936
0.0171404
0.0157154
0.0146359
0.0136409
0.0127226
0.0119419
0.0113003
0.0107569
0.0102784
0.00985176
0.0094724
0.00913539
0.00883458
0.00856453
0.00832122
0.00810167
0.00790342
0.00772438
0.00756277
0.00741706
0.007286
0.00716848
0.00706356
0.00697041
0.00688829
0.00681654
0.00675455
0.00670176
0.00665765
0.00662171
0.0065935
0.00657261
0.00655867
0.00655144
0.00655079
0.0065568
0.00656983
0.00659061
0.00662036
0.00666094
0.00671486
0.00678536
0.00687634
0.00699202
0.00713682
0.00731443
0.025599
0.0242191
0.0218205
0.0192054
0.0171226
0.0156976
0.0146258
0.0136549
0.0127545
0.0119773
0.0113334
0.0107887
0.0103101
0.00988292
0.00950216
0.00916336
0.00886075
0.00858895
0.00834387
0.00812249
0.00792238
0.00774145
0.0075779
0.00743022
0.00729712
0.00717749
0.00707039
0.00697497
0.00689048
0.00681625
0.00675168
0.00669618
0.00664924
0.00661037
0.00657911
0.00655507
0.00653791
0.00652741
0.00652346
0.00652618
0.00653593
0.00655346
0.00657993
0.0066171
0.00666729
0.00673342
0.00681894
0.00692752
0.00706283
0.00722788
0.0248985
0.0236717
0.0215136
0.0190953
0.0170923
0.015675
0.0146102
0.0136619
0.0127807
0.0120095
0.0113644
0.0108185
0.0103401
0.00991274
0.00953093
0.00919054
0.00888624
0.00861277
0.00836599
0.00814285
0.0079409
0.00775809
0.00759261
0.00744294
0.00730778
0.00718602
0.0070767
0.00697896
0.00689206
0.0068153
0.00674808
0.00668981
0.00663998
0.00659809
0.00656371
0.00653644
0.00651597
0.00650209
0.00649472
0.00649399
0.00650026
0.00651427
0.00653714
0.00657048
0.00661641
0.00667754
0.00675688
0.00685753
0.00698253
0.00713418
0.0242291
0.0231368
0.0211951
0.0189646
0.0170486
0.0156469
0.0145895
0.0136621
0.0128009
0.012038
0.0113931
0.0108464
0.0103682
0.00994107
0.00955856
0.00921681
0.00891095
0.00863591
0.00838751
0.00816265
0.00795891
0.00777423
0.00760682
0.00745516
0.00731793
0.00719401
0.00708243
0.00698234
0.00689297
0.00681364
0.00674371
0.00668261
0.00662982
0.00658485
0.00654726
0.00651667
0.00649279
0.00647542
0.00646448
0.00646012
0.00646271
0.00647294
0.00649185
0.00652094
0.00656209
0.0066176
0.00669004
0.00678201
0.0068959
0.0070334
0.0235887
0.0226149
0.0208674
0.0188148
0.016991
0.0156124
0.0145638
0.0136558
0.012815
0.0120624
0.0114192
0.0108722
0.0103944
0.00996773
0.0095849
0.00924205
0.0089348
0.00865827
0.00840833
0.00818183
0.00797634
0.00778981
0.00762049
0.00746682
0.0073275
0.0072014
0.00708754
0.00698506
0.00689318
0.00681121
0.00673852
0.00667453
0.00661871
0.00657057
0.0065297
0.00649571
0.00646831
0.00644731
0.00643267
0.00642451
0.00642319
0.00642936
0.00644397
0.00646836
0.00650421
0.00655349
0.00661837
0.00670092
0.00680298
0.00692564
0.0229755
0.0221061
0.0205328
0.0186475
0.0169193
0.0155709
0.014533
0.0136431
0.0128229
0.0120823
0.0114424
0.0108956
0.0104185
0.00999259
0.00960978
0.00926613
0.00895765
0.00867976
0.00842837
0.00820029
0.0079931
0.00780476
0.00763353
0.00747786
0.00733644
0.00720814
0.00709196
0.00698705
0.00689261
0.00680796
0.00673245
0.0066655
0.00660659
0.00655522
0.00651097
0.00647348
0.00644245
0.00641771
0.00639921
0.00638706
0.0063816
0.00638341
0.00639337
0.00641264
0.00644268
0.00648515
0.00654181
0.00661428
0.00670385
0.00681105
0.0223876
0.0216105
0.0201935
0.0184644
0.0168335
0.0155215
0.014497
0.0136244
0.0128244
0.0120973
0.0114623
0.0109166
0.0104403
0.0100155
0.00963304
0.00928891
0.0089794
0.00870028
0.00844752
0.00821795
0.00800911
0.007819
0.00764587
0.00748821
0.00734468
0.00721416
0.00709564
0.00698826
0.00689123
0.00680384
0.00672545
0.00665549
0.0065934
0.00653872
0.00649102
0.00644992
0.00641516
0.00638654
0.00636402
0.00634769
0.00633785
0.00633503
0.00633997
0.0063537
0.00637743
0.00641253
0.00646037
0.00652214
0.00659862
0.00668986
0.0218235
0.0211281
0.0198511
0.0182674
0.0167337
0.0154638
0.0144556
0.0135998
0.0128196
0.0121071
0.0114786
0.010935
0.0104599
0.0100363
0.00965453
0.00931022
0.00899993
0.0087197
0.00846569
0.00823471
0.00802429
0.00783245
0.00765745
0.0074978
0.00735216
0.0072194
0.00709852
0.00698864
0.00688896
0.00679879
0.00671747
0.00664442
0.0065791
0.00652103
0.00646978
0.00642499
0.00638637
0.00635374
0.00632703
0.00630632
0.00629187
0.0062841
0.00628368
0.00629145
0.00630839
0.0063356
0.00637406
0.00642457
0.00648745
0.00656232
0.0212817
0.0206587
0.0195072
0.0180581
0.0166206
0.0153971
0.0144084
0.0135695
0.0128087
0.0121115
0.011491
0.0109504
0.0104769
0.0100548
0.00967409
0.00932993
0.00901909
0.00873793
0.00848277
0.00825047
0.00803854
0.00784502
0.00766819
0.00750655
0.0073588
0.00722379
0.00710052
0.00698811
0.00688576
0.00679276
0.00670845
0.00663226
0.00656363
0.00650209
0.0064472
0.00639861
0.00635602
0.00631923
0.00628817
0.00626289
0.00624357
0.00623058
0.00622445
0.00622585
0.00623556
0.00625437
0.00628294
0.00632169
0.00637054
0.00642873
0.0207608
0.0202021
0.019163
0.0178382
0.0164946
0.0153212
0.0143551
0.0135335
0.0127915
0.0121104
0.0114992
0.0109627
0.0104913
0.010071
0.00969155
0.00934788
0.00903675
0.00875484
0.00849866
0.00826513
0.00805178
0.00785662
0.00767799
0.0075144
0.00736454
0.00722727
0.0071016
0.00698662
0.00688155
0.00678568
0.00669834
0.00661893
0.00654693
0.00648184
0.00642323
0.00637073
0.00632404
0.00628296
0.00624738
0.00621731
0.00619289
0.00617439
0.00616221
0.00615687
0.00615891
0.00616888
0.00618711
0.00621369
0.00624817
0.00628945
0.0202597
0.0197579
0.0188198
0.0176092
0.0163566
0.0152358
0.0142955
0.0134918
0.0127684
0.0121037
0.0115029
0.0109715
0.0105029
0.0100846
0.00970678
0.0093639
0.00905277
0.0087703
0.00851324
0.00827859
0.00806389
0.00786717
0.00768678
0.00752125
0.00736929
0.00722976
0.00710166
0.0069841
0.00687629
0.00677749
0.00668706
0.00660439
0.00652894
0.00646023
0.0063978
0.00634129
0.00629039
0.00624487
0.0062046
0.00616954
0.00613978
0.00611548
0.00609694
0.0060845
0.00607849
0.0060792
0.0060867
0.00610076
0.0061206
0.00614487
0.019777
0.019326
0.0184785
0.0173728
0.0162075
0.015141
0.0142292
0.0134445
0.0127394
0.0120912
0.0115019
0.0109767
0.0105114
0.0100956
0.00971961
0.00937785
0.00906699
0.00878418
0.00852639
0.00829073
0.00807477
0.00787656
0.00769446
0.00752702
0.00737298
0.00723119
0.00710066
0.00698049
0.00686989
0.00676814
0.00667457
0.00658857
0.00650962
0.00643719
0.00637086
0.00631024
0.006255
0.0062049
0.00615977
0.00611953
0.00608419
0.00605384
0.00602863
0.00600875
0.00599433
0.00598544
0.00598188
0.00598314
0.00598819
0.00599544
0.0193117
0.018906
0.0181398
0.0171301
0.0160481
0.0150367
0.0141559
0.0133914
0.0127045
0.012073
0.0114959
0.010978
0.0105168
0.0101037
0.00972992
0.00938956
0.00907927
0.00879635
0.00853799
0.00830144
0.00808433
0.0078847
0.00770094
0.00753163
0.00737552
0.00723148
0.00709851
0.00697572
0.00686231
0.00675755
0.0066608
0.00657143
0.00648889
0.00641269
0.00634236
0.00627752
0.00621783
0.00616301
0.00611286
0.00606725
0.00602611
0.00598946
0.0059573
0.00592967
0.00590654
0.00588774
0.00587285
0.00586113
0.00585132
0.00584163
0.0188629
0.0184975
0.0178043
0.0168826
0.0158794
0.0149233
0.0140755
0.0133324
0.0126639
0.012049
0.0114849
0.0109751
0.0105188
0.0101089
0.00973755
0.00939888
0.00908945
0.00880667
0.00854792
0.00831062
0.00809244
0.00789148
0.00770613
0.00753499
0.00737684
0.00723055
0.00709513
0.00696971
0.00685346
0.00674568
0.00664569
0.00655289
0.00646672
0.00638666
0.00631226
0.0062431
0.00617883
0.00611916
0.00606383
0.00601267
0.00596553
0.00592233
0.00588297
0.00584734
0.00581522
0.00578627
0.00575986
0.00573506
0.0057104
0.00568397
0.0184296
0.0181002
0.0174726
0.0166312
0.0157025
0.0148012
0.0139879
0.0132675
0.0126176
0.0120194
0.0114686
0.0109679
0.0105171
0.010111
0.00974236
0.00940567
0.00909739
0.00881498
0.00855604
0.00831812
0.00809901
0.0078968
0.00770992
0.00753701
0.00737684
0.00722832
0.00709047
0.00696239
0.0068433
0.00673245
0.0066292
0.00653292
0.00644304
0.00635906
0.0062805
0.00620693
0.00613798
0.00607332
0.00601266
0.00595578
0.00590245
0.0058525
0.00580571
0.00576184
0.00572053
0.00568125
0.00564321
0.00560529
0.0055659
0.00552301
0.0180109
0.0177136
0.0171451
0.016377
0.0155183
0.0146707
0.0138931
0.0131966
0.0125656
0.0119841
0.0114471
0.0109562
0.0105117
0.0101097
0.00974421
0.00940979
0.00910293
0.00882116
0.00856223
0.00832385
0.00810391
0.00790055
0.00771222
0.00753759
0.00737545
0.00722472
0.00708443
0.0069537
0.00683174
0.00671781
0.00661125
0.00651145
0.00641782
0.00632985
0.00624705
0.00616898
0.00609525
0.00602548
0.00595936
0.00589659
0.0058369
0.00578001
0.00572561
0.00567333
0.00562265
0.00557293
0.0055232
0.00547222
0.00541829
0.00535933
0.0176061
0.0173376
0.0168222
0.016121
0.0153276
0.0145324
0.0137912
0.0131195
0.0125079
0.0119433
0.0114203
0.0109397
0.0105023
0.0101051
0.00974297
0.00941109
0.00910594
0.00882506
0.00856634
0.00832767
0.00810703
0.00790262
0.00771293
0.00753663
0.00737256
0.00721965
0.00707695
0.00694357
0.00681873
0.0067017
0.0065918
0.00648843
0.00639101
0.00629899
0.00621188
0.00612923
0.00605061
0.00597563
0.00590392
0.00583514
0.00576894
0.00570496
0.00564279
0.00558195
0.00552181
0.00546158
0.00540019
0.0053363
0.00526811
0.00519354
0.0172144
0.0169716