/*--------------------------------*- C++ -*----------------------------------*\
  =========                 |
  \\      /  F ield         | OpenFOAM: The Open Source CFD Toolbox
   \\    /   O peration     | Website:  https://openfoam.org
    \\  /    A nd           | Version:  7
     \\/     M anipulation  |
\*---------------------------------------------------------------------------*/
FoamFile
{
    version     2.0;
    format      ascii;
    class       surfaceScalarField;
    location    "0.31";
    object      phi_0;
}
// * * * * * * * * * * * * * * * * * * * * * * * * * * * * * * * * * * * * * //

dimensions      [0 3 -1 0 0 0 0];

internalField   nonuniform List<scalar> 
139350
(
6.45114e-08
9.21201e-08
3.19623e-08
3.25491e-08
2.30544e-08
8.90793e-09
1.95662e-08
3.48818e-09
1.76103e-08
1.95597e-09
1.61754e-08
1.43485e-09
1.50373e-08
1.1381e-09
1.41193e-08
9.17961e-10
1.33629e-08
7.56488e-10
1.27245e-08
6.38339e-10
1.21755e-08
5.48985e-10
1.16966e-08
4.78968e-10
1.12739e-08
4.22693e-10
1.08972e-08
3.76639e-10
1.05588e-08
3.38402e-10
1.02526e-08
3.06263e-10
9.97361e-09
2.78959e-10
9.71806e-09
2.55547e-10
9.48275e-09
2.35312e-10
9.26505e-09
2.17702e-10
9.06276e-09
2.02289e-10
8.87403e-09
1.88731e-10
8.69727e-09
1.7676e-10
8.53111e-09
1.66156e-10
8.37437e-09
1.5674e-10
8.226e-09
1.4837e-10
8.08508e-09
1.40922e-10
7.95078e-09
1.343e-10
7.82237e-09
1.28415e-10
7.69916e-09
1.23208e-10
7.58055e-09
1.18604e-10
7.46598e-09
1.14579e-10
7.35492e-09
1.11053e-10
7.24687e-09
1.08049e-10
7.14143e-09
1.05443e-10
7.03809e-09
1.0334e-10
6.93657e-09
1.01517e-10
6.83638e-09
1.00196e-10
6.73736e-09
9.90185e-11
6.63909e-09
9.82685e-11
6.54146e-09
9.76342e-11
6.44458e-09
9.6872e-11
6.34767e-09
9.69143e-11
6.25334e-09
9.4332e-11
6.15712e-09
9.62218e-11
6.07121e-09
8.59033e-11
5.97507e-09
9.61414e-11
5.93007e-09
4.50016e-11
5.72399e-09
2.06083e-10
-2.70972e-09
8.4337e-09
1.25942e-07
1.27622e-07
9.12852e-08
6.7206e-08
7.19261e-08
2.82671e-08
6.1202e-08
1.42123e-08
5.47552e-08
8.40279e-09
5.0248e-08
5.942e-09
4.67498e-08
4.63633e-09
4.39214e-08
3.74629e-09
4.15824e-08
3.09556e-09
3.96071e-08
2.61357e-09
3.79086e-08
2.24755e-09
3.64266e-08
1.9609e-09
3.51187e-08
1.73066e-09
3.39531e-08
1.54225e-09
3.29057e-08
1.38577e-09
3.19578e-08
1.25418e-09
3.10944e-08
1.14232e-09
3.03036e-08
1.04636e-09
2.95756e-08
9.63355e-10
2.89022e-08
8.91074e-10
2.82767e-08
8.27757e-10
2.76934e-08
7.72017e-10
2.71475e-08
7.22746e-10
2.66346e-08
6.79053e-10
2.61511e-08
6.40209e-10
2.56938e-08
6.0562e-10
2.526e-08
5.74793e-10
2.48469e-08
5.47325e-10
2.44525e-08
5.2287e-10
2.40745e-08
5.0116e-10
2.37112e-08
4.81936e-10
2.33607e-08
4.65052e-10
2.30215e-08
4.50256e-10
2.2692e-08
4.37557e-10
2.23709e-08
4.266e-10
2.20566e-08
4.17654e-10
2.1748e-08
4.10042e-10
2.14437e-08
4.04538e-10
2.1143e-08
3.99746e-10
2.08439e-08
3.97327e-10
2.05469e-08
3.94675e-10
2.02492e-08
3.94492e-10
1.9953e-08
3.93135e-10
1.96551e-08
3.92297e-10
1.93592e-08
3.92111e-10
1.90661e-08
3.78995e-10
1.87701e-08
3.92111e-10
1.85414e-08
2.73711e-10
1.81515e-08
5.95964e-10
-3.22982e-09
1.86716e-08
1.58752e-07
1.35273e-07
1.36523e-07
8.94349e-08
1.17482e-07
4.73081e-08
1.03293e-07
2.84006e-08
9.32857e-08
1.84106e-08
8.59694e-08
1.32583e-08
8.02439e-08
1.03618e-08
7.55732e-08
8.41704e-09
7.16749e-08
6.99379e-09
6.83616e-08
5.92688e-09
6.54999e-08
5.1093e-09
6.29949e-08
4.46586e-09
6.07782e-08
3.94741e-09
5.87984e-08
3.52199e-09
5.70164e-08
3.1678e-09
5.54013e-08
2.86932e-09
5.39285e-08
2.61511e-09
5.25782e-08
2.39663e-09
5.13342e-08
2.20736e-09
5.0183e-08
2.04229e-09
4.91132e-08
1.89748e-09
4.81154e-08
1.76981e-09
4.71814e-08
1.65679e-09
4.6304e-08
1.55641e-09
4.54772e-08
1.46702e-09
4.46956e-08
1.38728e-09
4.39543e-08
1.31608e-09
4.32491e-08
1.25248e-09
4.25763e-08
1.19573e-09
4.19322e-08
1.1452e-09
4.13138e-08
1.10032e-09
4.07182e-08
1.06072e-09
4.01425e-08
1.02593e-09
3.95842e-08
9.95836e-10
3.9041e-08
9.69821e-10
3.85103e-08
9.48308e-10
3.79904e-08
9.30031e-10
3.74783e-08
9.16545e-10
3.69732e-08
9.04885e-10
3.64714e-08
8.99108e-10
3.59737e-08
8.92379e-10
3.54744e-08
8.93852e-10
3.49784e-08
8.89092e-10
3.44752e-08
8.95506e-10
3.39787e-08
8.88575e-10
3.34724e-08
8.85353e-10
3.29744e-08
8.90079e-10
3.25229e-08
7.2526e-10
3.20274e-08
1.09145e-09
-2.70823e-09
3.15058e-08
1.75611e-07
1.31178e-07
1.65621e-07
9.94252e-08
1.52726e-07
6.02031e-08
1.40105e-07
4.10211e-08
1.2941e-07
2.91063e-08
1.20752e-07
2.19161e-08
1.13618e-07
1.74956e-08
1.07613e-07
1.44217e-08
1.02488e-07
1.21193e-08
9.8059e-08
1.03557e-08
9.41871e-08
8.98123e-09
9.07665e-08
7.88647e-09
8.77173e-08
6.99659e-09
8.4978e-08
6.26126e-09
8.25003e-08
5.6455e-09
8.02457e-08
5.124e-09
7.81828e-08
4.67798e-09
7.62862e-08
4.29324e-09
7.45347e-08
3.95887e-09
7.29106e-08
3.66638e-09
7.1399e-08
3.40911e-09
6.99871e-08
3.18172e-09
6.86639e-08
2.97995e-09
6.742e-08
2.80031e-09
6.62471e-08
2.63998e-09
6.51377e-08
2.49661e-09
6.40856e-08
2.36826e-09
6.30847e-08
2.25332e-09
6.213e-08
2.15046e-09
6.12166e-08
2.05857e-09
6.03403e-08
1.97668e-09
5.94969e-08
1.9041e-09
5.86827e-08
1.84005e-09
5.78943e-08
1.78427e-09
5.71283e-08
1.73582e-09
5.63814e-08
1.69524e-09
5.56508e-08
1.66062e-09
5.49329e-08
1.6344e-09
5.42261e-08
1.61176e-09
5.35254e-08
1.59973e-09
5.28317e-08
1.58617e-09
5.21369e-08
1.58863e-09
5.14474e-08
1.57862e-09
5.07482e-08
1.59465e-09
5.00575e-08
1.57927e-09
4.93508e-08
1.59208e-09
4.86561e-08
1.58481e-09
4.79865e-08
1.39479e-09
4.73572e-08
1.7208e-09
-1.75339e-09
4.64023e-08
1.8451e-07
1.23454e-07
1.82339e-07
1.01596e-07
1.76114e-07
6.64276e-08
1.67748e-07
4.93879e-08
1.59114e-07
3.77399e-08
1.5119e-07
2.98404e-08
1.44094e-07
2.45909e-08
1.37769e-07
2.07475e-08
1.3214e-07
1.77481e-08
1.27124e-07
1.53715e-08
1.22636e-07
1.34695e-08
1.18599e-07
1.19237e-08
1.14948e-07
1.06473e-08
1.1163e-07
9.57917e-09
1.086e-07
8.67537e-09
1.05821e-07
7.90322e-09
1.03261e-07
7.23792e-09
1.00894e-07
6.66034e-09
9.86971e-08
6.15558e-09
9.66516e-08
5.71188e-09
9.47408e-08
5.31986e-09
9.29505e-08
4.972e-09
9.12683e-08
4.66218e-09
8.96832e-08
4.3854e-09
8.81856e-08
4.13754e-09
8.6767e-08
3.91518e-09
8.54198e-08
3.71549e-09
8.41371e-08
3.53607e-09
8.29126e-08
3.37496e-09
8.17406e-08
3.2305e-09
8.0616e-08
3.10127e-09
7.95339e-08
2.98621e-09
7.84898e-08
2.88419e-09
7.74793e-08
2.79477e-09
7.64985e-08
2.71663e-09
7.55433e-08
2.65045e-09
7.46103e-08
2.59363e-09
7.36952e-08
2.54951e-09
7.27956e-08
2.51137e-09
7.1906e-08
2.48929e-09
7.10264e-08
2.46574e-09
7.01482e-08
2.46682e-09
6.92769e-08
2.44992e-09
6.83971e-08
2.47447e-09
6.7525e-08
2.45135e-09
6.66379e-08
2.47919e-09
6.57596e-08
2.46314e-09
6.48982e-08
2.25616e-09
6.40988e-08
2.52015e-09
-5.70181e-10
6.29156e-08
1.90342e-07
1.15328e-07
1.91858e-07
1.0008e-07
1.90259e-07
6.80271e-08
1.86147e-07
5.34997e-08
1.80697e-07
4.31901e-08
1.74929e-07
3.56084e-08
1.69211e-07
3.03086e-08
1.63701e-07
2.62574e-08
1.58497e-07
2.29524e-08
1.5364e-07
2.02277e-08
1.49135e-07
1.79746e-08
1.44965e-07
1.6094e-08
1.41105e-07
1.45068e-08
1.37531e-07
1.31541e-08
1.34214e-07
1.19919e-08
1.31131e-07
1.0986e-08
1.28259e-07
1.01096e-08
1.25578e-07
9.34148e-09
1.23069e-07
8.66452e-09
1.20716e-07
8.06504e-09
1.18504e-07
7.53192e-09
1.1642e-07
7.05606e-09
1.14452e-07
6.62998e-09
1.1259e-07
6.24746e-09
1.10824e-07
5.90333e-09
1.09146e-07
5.59328e-09
1.07548e-07
5.31367e-09
1.06023e-07
5.06143e-09
1.04564e-07
4.83402e-09
1.03165e-07
4.62925e-09
1.01821e-07
4.44531e-09
1.00526e-07
4.28075e-09
9.92765e-08
4.13414e-09
9.80665e-08
4.00482e-09
9.68919e-08
3.89117e-09
9.57484e-08
3.79395e-09
9.46321e-08
3.70994e-09
9.35383e-08
3.64328e-09
9.24641e-08
3.58559e-09
9.14038e-08
3.54958e-09
9.03564e-08
3.51313e-09
8.93137e-08
3.50952e-09
8.82791e-08
3.4846e-09
8.72395e-08
3.51403e-09
8.62052e-08
3.48566e-09
8.5162e-08
3.52235e-09
8.41203e-08
3.50491e-09
8.30965e-08
3.27996e-09
8.21289e-08
3.4877e-09
7.92363e-10
8.07664e-08
1.95504e-07
1.07639e-07
1.98246e-07
9.73382e-08
1.98983e-07
6.72904e-08
1.97784e-07
5.46984e-08
1.95142e-07
4.58325e-08
1.91789e-07
3.89609e-08
1.88039e-07
3.40584e-08
1.84065e-07
3.02314e-08
1.80018e-07
2.69999e-08
1.76007e-07
2.42383e-08
1.72102e-07
2.188e-08
1.68341e-07
1.98552e-08
1.64744e-07
1.81033e-08
1.61321e-07
1.65777e-08
1.58071e-07
1.52418e-08
1.5499e-07
1.40665e-08
1.52072e-07
1.30276e-08
1.49308e-07
1.21055e-08
1.46689e-07
1.12837e-08
1.44205e-07
1.05488e-08
1.41848e-07
9.88942e-09
1.39608e-07
9.2962e-09
1.37476e-07
8.76121e-09
1.35446e-07
8.27779e-09
1.33509e-07
7.84028e-09
1.31658e-07
7.44389e-09
1.29888e-07
7.08455e-09
1.2819e-07
6.75877e-09
1.26561e-07
6.46364e-09
1.24993e-07
6.19663e-09
1.23483e-07
5.95566e-09
1.22025e-07
5.739e-09
1.20614e-07
5.54501e-09
1.19246e-07
5.37289e-09
1.17916e-07
5.22081e-09
1.1662e-07
5.08956e-09
1.15355e-07
4.97553e-09
1.14115e-07
4.88339e-09
1.12897e-07
4.80363e-09
1.11695e-07
4.75082e-09
1.10509e-07
4.69965e-09
1.0933e-07
4.68819e-09
1.0816e-07
4.65505e-09
1.06989e-07
4.68486e-09
1.0582e-07
4.65462e-09
1.0465e-07
4.69247e-09
1.03474e-07
4.68085e-09
1.02316e-07
4.43786e-09
1.01207e-07
4.59637e-09
2.2993e-09
9.97004e-08
2.00819e-07
1.00404e-07
2.03771e-07
9.43866e-08
2.05343e-07
6.57185e-08
2.05641e-07
5.44004e-08
2.04804e-07
4.66688e-08
2.03315e-07
4.04497e-08
2.01354e-07
3.602e-08
1.99004e-07
3.25811e-08
1.96373e-07
2.96307e-08
1.93564e-07
2.70473e-08
1.90658e-07
2.47865e-08
1.87714e-07
2.27988e-08
1.84778e-07
2.10394e-08
1.81881e-07
1.94742e-08
1.79047e-07
1.80766e-08
1.76288e-07
1.68249e-08
1.73615e-07
1.57006e-08
1.71033e-07
1.46881e-08
1.68542e-07
1.37739e-08
1.66145e-07
1.29466e-08
1.63838e-07
1.21965e-08
1.61619e-07
1.1515e-08
1.59485e-07
1.08951e-08
1.57432e-07
1.03304e-08
1.55457e-07
9.81558e-09
1.53555e-07
9.34598e-09
1.51722e-07
8.91759e-09
1.49954e-07
8.52692e-09
1.48246e-07
8.17102e-09
1.46596e-07
7.84732e-09
1.44998e-07
7.55366e-09
1.43448e-07
7.28826e-09
1.41944e-07
7.04945e-09
1.4048e-07
6.83637e-09
1.39054e-07
6.64713e-09
1.37661e-07
6.48261e-09
1.36298e-07
6.33899e-09
1.3496e-07
6.22135e-09
1.33644e-07
6.11951e-09
1.32345e-07
6.04915e-09
1.31062e-07
5.98333e-09
1.29788e-07
5.9623e-09
1.28521e-07
5.92201e-09
1.27257e-07
5.94864e-09
1.25991e-07
5.9201e-09
1.24731e-07
5.95325e-09
1.2346e-07
5.95193e-09
1.22201e-07
5.69622e-09
1.20987e-07
5.81022e-09
3.9011e-09
1.19386e-07
2.06422e-07
9.35141e-08
2.0933e-07
9.14787e-08
2.11054e-07
6.39951e-08
2.11932e-07
5.35226e-08
2.1199e-07
4.66103e-08
2.11598e-07
4.0842e-08
2.10858e-07
3.67603e-08
2.09771e-07
3.36672e-08
2.08378e-07
3.10241e-08
2.06736e-07
2.86897e-08
2.049e-07
2.66224e-08
2.0292e-07
2.4779e-08
2.00838e-07
2.31213e-08
1.9869e-07
2.1622e-08
1.96506e-07
2.02608e-08
1.94308e-07
1.90221e-08
1.92117e-07
1.78925e-08
1.89944e-07
1.68605e-08
1.87802e-07
1.59162e-08
1.85698e-07
1.50511e-08
1.83636e-07
1.42577e-08
1.81622e-07
1.35293e-08
1.79657e-07
1.28602e-08
1.77742e-07
1.22453e-08
1.75878e-07
1.16801e-08
1.74063e-07
1.11606e-08
1.72297e-07
1.06833e-08
1.70579e-07
1.02452e-08
1.68906e-07
9.84369e-09
1.67277e-07
9.47633e-09
1.6569e-07
9.14125e-09
1.64141e-07
8.83682e-09
1.62629e-07
8.56151e-09
1.61151e-07
8.3146e-09
1.59704e-07
8.0943e-09
1.58285e-07
7.90166e-09
1.56891e-07
7.73286e-09
1.55519e-07
7.59326e-09
1.54166e-07
7.47253e-09
1.52828e-07
7.38675e-09
1.51503e-07
7.3088e-09
1.50186e-07
7.27881e-09
1.48874e-07
7.23404e-09
1.47567e-07
7.25613e-09
1.46254e-07
7.23295e-09
1.44948e-07
7.25899e-09
1.4363e-07
7.27009e-09
1.42315e-07
7.01155e-09
1.41038e-07
7.08645e-09
5.54072e-09
1.39399e-07
2.12269e-07
8.69079e-08
2.15139e-07
8.86084e-08
2.16808e-07
6.23256e-08
2.17846e-07
5.2485e-08
2.1825e-07
4.62061e-08
2.18361e-07
4.07311e-08
2.18276e-07
3.6845e-08
2.17964e-07
3.39795e-08
2.17417e-07
3.15707e-08
2.16655e-07
2.9452e-08
2.15701e-07
2.75766e-08
2.1458e-07
2.59002e-08
2.13317e-07
2.43839e-08
2.11939e-07
2.30005e-08
2.10467e-07
2.17319e-08
2.08925e-07
2.05644e-08
2.0733e-07
1.94875e-08
2.05698e-07
1.84922e-08
2.04044e-07
1.75711e-08
2.02377e-07
1.67179e-08
2.00707e-07
1.59271e-08
1.99043e-07
1.51938e-08
1.97389e-07
1.45139e-08
1.95751e-07
1.38835e-08
1.94132e-07
1.32993e-08
1.92534e-07
1.27582e-08
1.9096e-07
1.22575e-08
1.8941e-07
1.17948e-08
1.87886e-07
1.13681e-08
1.86387e-07
1.09754e-08
1.84913e-07
1.06153e-08
1.83463e-07
1.02865e-08
1.82037e-07
9.98779e-09
1.80633e-07
9.71867e-09
1.79249e-07
9.47764e-09
1.77885e-07
9.26599e-09
1.76538e-07
9.0801e-09
1.75205e-07
8.92553e-09
1.73886e-07
8.79222e-09
1.72576e-07
8.69611e-09
1.71274e-07
8.61106e-09
1.69978e-07
8.57529e-09
1.68681e-07
8.53042e-09
1.67388e-07
8.54923e-09
1.66086e-07
8.53537e-09
1.64789e-07
8.55548e-09
1.63479e-07
8.58016e-09
1.6216e-07
8.33108e-09
1.60871e-07
8.37467e-09
7.15821e-09
1.59254e-07
2.18314e-07
8.05742e-08
2.21188e-07
8.57345e-08
2.22781e-07
6.07329e-08
2.23847e-07
5.14192e-08
2.2436e-07
4.56934e-08
2.24648e-07
4.04424e-08
2.24841e-07
3.66527e-08
2.24908e-07
3.39123e-08
2.24829e-07
3.16495e-08
2.24604e-07
2.96768e-08
2.24238e-07
2.79432e-08
2.23735e-07
2.64026e-08
2.23106e-07
2.50133e-08
2.22361e-07
2.37458e-08
2.21512e-07
2.25805e-08
2.20573e-07
2.15034e-08
2.19556e-07
2.05041e-08
2.18474e-07
1.95744e-08
2.17337e-07
1.87077e-08
2.16157e-07
1.78986e-08
2.14941e-07
1.71427e-08
2.13699e-07
1.64364e-08
2.12436e-07
1.57763e-08
2.1116e-07
1.51598e-08
2.09875e-07
1.45844e-08
2.08585e-07
1.40478e-08
2.07295e-07
1.35482e-08
2.06006e-07
1.30837e-08
2.04721e-07
1.2653e-08
2.03442e-07
1.22546e-08
2.02169e-07
1.18875e-08
2.00905e-07
1.15509e-08
1.99649e-07
1.12439e-08
1.98401e-07
1.09665e-08
1.97161e-07
1.07174e-08
1.95929e-07
1.04982e-08
1.94704e-07
1.03056e-08
1.93484e-07
1.01453e-08
1.92268e-07
1.00079e-08
1.91056e-07
9.90872e-09
1.89843e-07
9.82344e-09
1.88631e-07
9.78716e-09
1.87414e-07
9.74785e-09
1.86196e-07
9.76689e-09
1.84965e-07
9.76659e-09
1.83736e-07
9.78484e-09
1.82492e-07
9.82422e-09
1.81225e-07
9.59739e-09
1.7998e-07
9.61979e-09
8.69374e-09
1.78445e-07
2.24548e-07
7.45193e-08
2.27448e-07
8.28345e-08
2.28977e-07
5.92042e-08
2.3005e-07
5.03464e-08
2.30603e-07
4.51403e-08
2.3094e-07
4.01052e-08
2.31222e-07
3.63705e-08
2.31438e-07
3.36965e-08
2.31568e-07
3.15187e-08
2.31612e-07
2.96329e-08
2.31569e-07
2.79869e-08
2.31435e-07
2.65361e-08
2.31212e-07
2.5237e-08
2.30899e-07
2.40581e-08
2.30502e-07
2.2978e-08
2.30024e-07
2.19813e-08
2.29471e-07
2.10566e-08
2.2885e-07
2.01953e-08
2.28168e-07
1.93903e-08
2.2743e-07
1.86364e-08
2.26643e-07
1.79293e-08
2.25814e-07
1.72656e-08
2.24948e-07
1.66425e-08
2.2405e-07
1.60577e-08
2.23125e-07
1.55092e-08
2.22178e-07
1.49954e-08
2.21211e-07
1.45149e-08
2.20228e-07
1.40663e-08
2.19233e-07
1.36485e-08
2.18227e-07
1.32608e-08
2.17212e-07
1.29023e-08
2.1619e-07
1.25727e-08
2.15163e-07
1.22715e-08
2.1413e-07
1.19988e-08
2.13094e-07
1.17539e-08
2.12053e-07
1.15385e-08
2.11009e-07
1.13498e-08
2.09961e-07
1.11935e-08
2.08908e-07
1.10609e-08
2.0785e-07
1.09665e-08
2.06785e-07
1.08884e-08
2.05715e-07
1.08577e-08
2.04633e-07
1.083e-08
2.03546e-07
1.0854e-08
2.02441e-07
1.08713e-08
2.01332e-07
1.08934e-08
2.00208e-07
1.09488e-08
1.99049e-07
1.07559e-08
1.97901e-07
1.07685e-08
1.00929e-08
1.96501e-07
2.30974e-07
6.87512e-08
2.33909e-07
7.98995e-08
2.35381e-07
5.77326e-08
2.36462e-07
4.92654e-08
2.37047e-07
4.45546e-08
2.37399e-07
3.97534e-08
2.37703e-07
3.60668e-08
2.37965e-07
3.34348e-08
2.38171e-07
3.13122e-08
2.38325e-07
2.94792e-08
2.38427e-07
2.78843e-08
2.38477e-07
2.64864e-08
2.38471e-07
2.52429e-08
2.38408e-07
2.41215e-08
2.38286e-07
2.30995e-08
2.38107e-07
2.21609e-08
2.3787e-07
2.12934e-08
2.37578e-07
2.04874e-08
2.37233e-07
1.97355e-08
2.36837e-07
1.90318e-08
2.36395e-07
1.83718e-08
2.35909e-07
1.77518e-08
2.35382e-07
1.7169e-08
2.34818e-07
1.66212e-08
2.34221e-07
1.61066e-08
2.33593e-07
1.56236e-08
2.32937e-07
1.51709e-08
2.32256e-07
1.47476e-08
2.31551e-07
1.43528e-08
2.30826e-07
1.39858e-08
2.30082e-07
1.36462e-08
2.29321e-07
1.33338e-08
2.28544e-07
1.30482e-08
2.27753e-07
1.27901e-08
2.26948e-07
1.25587e-08
2.26131e-07
1.23561e-08
2.25301e-07
1.21798e-08
2.24459e-07
1.20354e-08
2.23605e-07
1.19151e-08
2.22739e-07
1.18322e-08
2.2186e-07
1.17677e-08
2.20969e-07
1.17481e-08
2.20062e-07
1.17371e-08
2.19145e-07
1.17708e-08
2.18208e-07
1.18088e-08
2.1726e-07
1.18408e-08
2.16296e-07
1.19132e-08
2.15289e-07
1.17633e-08
2.1428e-07
1.17776e-08
1.13135e-08
2.13059e-07
2.376e-07
6.32757e-08
2.40575e-07
7.69253e-08
2.41989e-07
5.63182e-08
2.43077e-07
4.81772e-08
2.43699e-07
4.39323e-08
2.44064e-07
3.93888e-08
2.44373e-07
3.5758e-08
2.44647e-07
3.31609e-08
2.44876e-07
3.10832e-08
2.45066e-07
2.92892e-08
2.45223e-07
2.77272e-08
2.45348e-07
2.63612e-08
2.4544e-07
2.51509e-08
2.45497e-07
2.4064e-08
2.45519e-07
2.30779e-08
2.45504e-07
2.21763e-08
2.4545e-07
2.13467e-08
2.45359e-07
2.05789e-08
2.45229e-07
1.98652e-08
2.45062e-07
1.91993e-08
2.44857e-07
1.85763e-08
2.44617e-07
1.79922e-08
2.44342e-07
1.74441e-08
2.44033e-07
1.69295e-08
2.43693e-07
1.64465e-08
2.43323e-07
1.59936e-08
2.42925e-07
1.55696e-08
2.42499e-07
1.51733e-08
2.42048e-07
1.4804e-08
2.41573e-07
1.44612e-08
2.41074e-07
1.41444e-08
2.40555e-07
1.38535e-08
2.40014e-07
1.35884e-08
2.39455e-07
1.33498e-08
2.38876e-07
1.3137e-08
2.3828e-07
1.29523e-08
2.37667e-07
1.27934e-08
2.37036e-07
1.26658e-08
2.36389e-07
1.25625e-08
2.35725e-07
1.24955e-08
2.35044e-07
1.24487e-08
2.34349e-07
1.24439e-08
2.33633e-07
1.24527e-08
2.32904e-07
1.24994e-08
2.32154e-07
1.25595e-08
2.31388e-07
1.26062e-08
2.30605e-07
1.26961e-08
2.29774e-07
1.25947e-08
2.28931e-07
1.26205e-08
1.23319e-08
2.27912e-07
2.44436e-07
5.80964e-08
2.47448e-07
7.39126e-08
2.48807e-07
5.49591e-08
2.49898e-07
4.70864e-08
2.50559e-07
4.32718e-08
2.50939e-07
3.9008e-08
2.51252e-07
3.54449e-08
2.51532e-07
3.28817e-08
2.51768e-07
3.08469e-08
2.51968e-07
2.90887e-08
2.52142e-07
2.75534e-08
2.52293e-07
2.62105e-08
2.52421e-07
2.50224e-08
2.52528e-07
2.39575e-08
2.52612e-07
2.29936e-08
2.52674e-07
2.21149e-08
2.52712e-07
2.13087e-08
2.52725e-07
2.05652e-08
2.52714e-07
1.98763e-08
2.52678e-07
1.92357e-08
2.52616e-07
1.86382e-08
2.52528e-07
1.80798e-08
2.52415e-07
1.75572e-08
2.52277e-07
1.70679e-08
2.52113e-07
1.66099e-08
2.51926e-07
1.61815e-08
2.51714e-07
1.57815e-08
2.51478e-07
1.54087e-08
2.5122e-07
1.50624e-08
2.50939e-07
1.47419e-08
2.50637e-07
1.44469e-08
2.50313e-07
1.41773e-08
2.49969e-07
1.39327e-08
2.49604e-07
1.37142e-08
2.4922e-07
1.35209e-08
2.48817e-07
1.33553e-08
2.48396e-07
1.32152e-08
2.47956e-07
1.31058e-08
2.47497e-07
1.3021e-08
2.47021e-07
1.29714e-08
2.46526e-07
1.29436e-08
2.46015e-07
1.29549e-08
2.45484e-07
1.29841e-08
2.44938e-07
1.30455e-08
2.4437e-07
1.3127e-08
2.43785e-07
1.31914e-08
2.43183e-07
1.32981e-08
2.42531e-07
1.32468e-08
2.4186e-07
1.32918e-08
1.31459e-08
2.41046e-07
2.51488e-07
5.32153e-08
2.54529e-07
7.08717e-08
2.55843e-07
5.36445e-08
2.56931e-07
4.59983e-08
2.57629e-07
4.25739e-08
2.58029e-07
3.86081e-08
2.58348e-07
3.51263e-08
2.58632e-07
3.25977e-08
2.58873e-07
3.0606e-08
2.59077e-07
2.88842e-08
2.59256e-07
2.73748e-08
2.59414e-07
2.60524e-08
2.59554e-07
2.48824e-08
2.59677e-07
2.38343e-08
2.59784e-07
2.28864e-08
2.59876e-07
2.20231e-08
2.59952e-07
2.12323e-08
2.60013e-07
2.05044e-08
2.60058e-07
1.98315e-08
2.60087e-07
1.92071e-08
2.60099e-07
1.86262e-08
2.60094e-07
1.80847e-08
2.60072e-07
1.75793e-08
2.60032e-07
1.71075e-08
2.59975e-07
1.66671e-08
2.599e-07
1.62565e-08
2.59807e-07
1.58744e-08
2.59696e-07
1.55197e-08
2.59567e-07
1.51914e-08
2.5942e-07
1.48889e-08
2.59255e-07
1.46119e-08
2.59072e-07
1.43601e-08
2.58872e-07
1.41334e-08
2.58653e-07
1.39325e-08
2.58417e-07
1.37568e-08
2.58164e-07
1.36086e-08
2.57893e-07
1.34858e-08
2.57606e-07
1.33934e-08
2.57301e-07
1.33261e-08
2.56979e-07
1.32928e-08
2.5664e-07
1.3283e-08
2.56285e-07
1.33096e-08
2.55912e-07
1.33578e-08
2.55524e-07
1.34336e-08
2.55117e-07
1.35339e-08
2.54691e-07
1.36169e-08
2.5425e-07
1.37389e-08
2.53761e-07
1.37361e-08
2.53248e-07
1.38048e-08
1.3773e-08
2.52621e-07
2.58766e-07
4.86328e-08
2.61824e-07
6.7813e-08
2.63105e-07
5.23634e-08
2.64186e-07
4.4918e-08
2.64919e-07
4.18408e-08
2.6534e-07
3.81872e-08
2.65665e-07
3.48013e-08
2.65954e-07
3.23083e-08
2.662e-07
3.036e-08
2.66408e-07
2.86764e-08
2.66589e-07
2.7194e-08
2.66749e-07
2.5892e-08
2.66892e-07
2.47393e-08
2.6702e-07
2.37065e-08
2.67134e-07
2.27722e-08
2.67236e-07
2.19214e-08
2.67326e-07
2.11425e-08
2.67404e-07
2.0426e-08
2.67472e-07
1.97642e-08
2.67528e-07
1.9151e-08
2.67573e-07
1.85813e-08
2.67606e-07
1.80511e-08
2.67628e-07
1.75572e-08
2.67639e-07
1.70971e-08
2.67637e-07
1.66687e-08
2.67623e-07
1.62704e-08
2.67597e-07
1.59008e-08
2.67557e-07
1.55589e-08
2.67505e-07
1.52438e-08
2.67439e-07
1.49548e-08
2.6736e-07
1.46913e-08
2.67266e-07
1.44534e-08
2.67159e-07
1.42407e-08
2.67038e-07
1.40539e-08
2.66902e-07
1.38926e-08
2.66752e-07
1.37586e-08
2.66587e-07
1.36504e-08
2.66409e-07
1.35722e-08
2.66215e-07
1.35198e-08
2.66007e-07
1.35004e-08
2.65784e-07
1.35061e-08
2.65548e-07
1.35459e-08
2.65296e-07
1.36101e-08
2.6503e-07
1.36988e-08
2.6475e-07
1.38147e-08
2.64451e-07
1.39154e-08
2.64139e-07
1.40507e-08
2.63783e-07
1.40922e-08
2.63401e-07
1.41869e-08
1.42448e-08
2.62929e-07
2.66277e-07
4.43475e-08
2.69343e-07
6.47472e-08
2.70602e-07
5.1105e-08
2.7167e-07
4.38498e-08
2.72435e-07
4.10755e-08
2.72879e-07
3.77436e-08
2.73211e-07
3.4469e-08
2.73506e-07
3.20135e-08
2.73757e-07
3.01086e-08
2.73969e-07
2.84649e-08
2.74152e-07
2.70108e-08
2.74314e-07
2.57299e-08
2.74458e-07
2.45949e-08
2.74587e-07
2.35773e-08
2.74703e-07
2.26563e-08
2.74807e-07
2.18173e-08
2.74901e-07
2.10489e-08
2.74985e-07
2.03423e-08
2.75059e-07
1.96898e-08
2.75125e-07
1.90854e-08
2.75182e-07
1.85243e-08
2.7523e-07
1.80025e-08
2.75271e-07
1.7517e-08
2.75303e-07
1.70652e-08
2.75326e-07
1.66453e-08
2.75341e-07
1.62557e-08
2.75347e-07
1.5895e-08
2.75343e-07
1.55623e-08
2.7533e-07
1.52566e-08
2.75308e-07
1.49774e-08
2.75275e-07
1.4724e-08
2.75232e-07
1.44965e-08
2.75178e-07
1.42944e-08
2.75114e-07
1.41184e-08
2.75038e-07
1.39682e-08
2.74952e-07
1.38454e-08
2.74853e-07
1.37487e-08
2.74744e-07
1.36818e-08
2.74622e-07
1.36414e-08
2.74489e-07
1.36332e-08
2.74344e-07
1.36514e-08
2.74188e-07
1.37018e-08
2.74019e-07
1.37789e-08
2.7384e-07
1.38784e-08
2.73648e-07
1.40063e-08
2.7344e-07
1.4123e-08
2.73221e-07
1.42697e-08
2.72963e-07
1.43501e-08
2.72679e-07
1.44714e-08
1.45992e-08
2.72325e-07
2.74032e-07
4.03564e-08
2.77094e-07
6.16852e-08
2.7834e-07
4.98592e-08
2.79393e-07
4.27973e-08
2.80186e-07
4.02819e-08
2.80654e-07
3.72759e-08
2.80994e-07
3.41287e-08
2.81294e-07
3.17134e-08
2.81551e-07
2.98515e-08
2.81767e-07
2.82492e-08
2.81953e-07
2.68252e-08
2.82116e-07
2.55663e-08
2.82262e-07
2.44494e-08
2.82392e-07
2.34474e-08
2.82508e-07
2.25399e-08
2.82613e-07
2.17127e-08
2.82707e-07
2.09548e-08
2.82791e-07
2.02576e-08
2.82867e-07
1.96138e-08
2.82935e-07
1.90175e-08
2.82996e-07
1.8464e-08
2.83049e-07
1.79494e-08
2.83095e-07
1.74708e-08
2.83134e-07
1.70258e-08
2.83167e-07
1.66127e-08
2.83193e-07
1.62298e-08
2.83212e-07
1.5876e-08
2.83224e-07
1.55504e-08
2.83228e-07
1.5252e-08
2.83225e-07
1.49802e-08
2.83215e-07
1.47346e-08
2.83196e-07
1.45151e-08
2.83169e-07
1.43212e-08
2.83134e-07
1.41537e-08
2.8309e-07
1.40121e-08
2.83037e-07
1.38981e-08
2.82976e-07
1.38106e-08
2.82905e-07
1.37526e-08
2.82824e-07
1.37217e-08
2.82735e-07
1.37222e-08
2.82636e-07
1.37503e-08
2.82529e-07
1.38093e-08
2.82412e-07
1.38962e-08
2.82285e-07
1.40048e-08
2.8215e-07
1.41418e-08
2.82e-07
1.42726e-08
2.81841e-07
1.44292e-08
2.81648e-07
1.45432e-08
2.81429e-07
1.46904e-08
1.48727e-08
2.81155e-07
2.82039e-07
3.66548e-08
2.85086e-07
5.8638e-08
2.86329e-07
4.86165e-08
2.87363e-07
4.17634e-08
2.8818e-07
3.94645e-08
2.88674e-07
3.67827e-08
2.89023e-07
3.37792e-08
2.89328e-07
3.14081e-08
2.89591e-07
2.95887e-08
2.89811e-07
2.80291e-08
2.9e-07
2.66367e-08
2.90165e-07
2.54008e-08
2.90312e-07
2.43027e-08
2.90443e-07
2.33168e-08
2.90559e-07
2.24232e-08
2.90664e-07
2.1608e-08
2.90758e-07
2.08609e-08
2.90842e-07
2.01732e-08
2.90918e-07
1.9538e-08
2.90986e-07
1.89497e-08
2.91046e-07
1.84035e-08
2.911e-07
1.78958e-08
2.91147e-07
1.74237e-08
2.91188e-07
1.69849e-08
2.91223e-07
1.65778e-08
2.91252e-07
1.62009e-08
2.91275e-07
1.58532e-08
2.91291e-07
1.55336e-08
2.91302e-07
1.52413e-08
2.91306e-07
1.49759e-08
2.91304e-07
1.47368e-08
2.91295e-07
1.45239e-08
2.9128e-07
1.43369e-08
2.91257e-07
1.41764e-08
2.91227e-07
1.4042e-08
2.9119e-07
1.39352e-08
2.91145e-07
1.38552e-08
2.91093e-07
1.38045e-08
2.91034e-07
1.37814e-08
2.90967e-07
1.37891e-08
2.90892e-07
1.38252e-08
2.9081e-07
1.38911e-08
2.9072e-07
1.39859e-08
2.90623e-07
1.4102e-08
2.90519e-07
1.42461e-08
2.90402e-07
1.43894e-08
2.90276e-07
1.45552e-08
2.90121e-07
1.4698e-08
2.89941e-07
1.48704e-08
1.50956e-08
2.89718e-07
2.90307e-07
3.32362e-08
2.93329e-07
5.56167e-08
2.94577e-07
4.73679e-08
2.95591e-07
4.07501e-08
2.96427e-07
3.86281e-08
2.96947e-07
3.62631e-08
2.97307e-07
3.34192e-08
2.97617e-07
3.10977e-08
2.97886e-07
2.93201e-08
2.9811e-07
2.78042e-08
2.98302e-07
2.64452e-08
2.98469e-07
2.52333e-08
2.98618e-07
2.41545e-08
2.98749e-07
2.31853e-08
2.98866e-07
2.2306e-08
2.98971e-07
2.15033e-08
2.99065e-07
2.07671e-08
2.99149e-07
2.00892e-08
2.99224e-07
1.94629e-08
2.99291e-07
1.88826e-08
2.99351e-07
1.83438e-08
2.99403e-07
1.7843e-08
2.9945e-07
1.73773e-08
2.9949e-07
1.69446e-08
2.99525e-07
1.65434e-08
2.99553e-07
1.61722e-08
2.99576e-07
1.58302e-08
2.99593e-07
1.55163e-08
2.99605e-07
1.52298e-08
2.99611e-07
1.49703e-08
2.9961e-07
1.47371e-08
2.99604e-07
1.45303e-08
2.99591e-07
1.43495e-08
2.99573e-07
1.41953e-08
2.99547e-07
1.40673e-08
2.99516e-07
1.39669e-08
2.99477e-07
1.38935e-08
2.99433e-07
1.38492e-08
2.99381e-07
1.38329e-08
2.99323e-07
1.38469e-08
2.99259e-07
1.38898e-08
2.99188e-07
1.39618e-08
2.99111e-07
1.40629e-08
2.99027e-07
1.41859e-08
2.98937e-07
1.4336e-08
2.98836e-07
1.44907e-08
2.98725e-07
1.46657e-08
2.9859e-07
1.48335e-08
2.9843e-07
1.50299e-08
1.52897e-08
2.98236e-07
2.98846e-07
3.00924e-08
3.0183e-07
5.26327e-08
3.03093e-07
4.61057e-08
3.04084e-07
3.97587e-08
3.04934e-07
3.77781e-08
3.05481e-07
3.57164e-08
3.05853e-07
3.30474e-08
3.06168e-07
3.07821e-08
3.06443e-07
2.90458e-08
3.06673e-07
2.75742e-08
3.06868e-07
2.62502e-08
3.07037e-07
2.50636e-08
3.07187e-07
2.40048e-08
3.0732e-07
2.30527e-08
3.07437e-07
2.21883e-08
3.07542e-07
2.13984e-08
3.07636e-07
2.06735e-08
3.07719e-07
2.00057e-08
3.07794e-07
1.93884e-08
3.0786e-07
1.88164e-08
3.07919e-07
1.82851e-08
3.07971e-07
1.77912e-08
3.08016e-07
1.7332e-08
3.08055e-07
1.69055e-08
3.08088e-07
1.65102e-08
3.08115e-07
1.61448e-08
3.08137e-07
1.58084e-08
3.08153e-07
1.55001e-08
3.08164e-07
1.52193e-08
3.08169e-07
1.49655e-08
3.08167e-07
1.47382e-08
3.0816e-07
1.45373e-08
3.08148e-07
1.43624e-08
3.08129e-07
1.42142e-08
3.08104e-07
1.40924e-08
3.08072e-07
1.39981e-08
3.08035e-07
1.39309e-08
3.07992e-07
1.38927e-08
3.07942e-07
1.38826e-08
3.07886e-07
1.39025e-08
3.07825e-07
1.39515e-08
3.07757e-07
1.40292e-08
3.07684e-07
1.41361e-08
3.07604e-07
1.42656e-08
3.07519e-07
1.44214e-08
3.07423e-07
1.45867e-08
3.07317e-07
1.47713e-08
3.0719e-07
1.49612e-08
3.07039e-07
1.51806e-08
1.54694e-08
3.06859e-07
3.07666e-07
2.72137e-08
3.10602e-07
4.9697e-08
3.11884e-07
4.48229e-08
3.12853e-07
3.87897e-08
3.13712e-07
3.69196e-08
3.14286e-07
3.51427e-08
3.14671e-07
3.26621e-08
3.14992e-07
3.04611e-08
3.15272e-07
2.87658e-08
3.15507e-07
2.73388e-08
3.15706e-07
2.60516e-08
3.15878e-07
2.48915e-08
3.16029e-07
2.38534e-08
3.16163e-07
2.29189e-08
3.16282e-07
2.20698e-08
3.16387e-07
2.12932e-08
3.1648e-07
2.05799e-08
3.16564e-07
1.99224e-08
3.16638e-07
1.93145e-08
3.16703e-07
1.87509e-08
3.16761e-07
1.82273e-08
3.16812e-07
1.77406e-08
3.16856e-07
1.7288e-08
3.16893e-07
1.68678e-08
3.16925e-07
1.64785e-08
3.16951e-07
1.61189e-08
3.16971e-07
1.57882e-08
3.16986e-07
1.54857e-08
3.16994e-07
1.52106e-08
3.16997e-07
1.49626e-08
3.16995e-07
1.4741e-08
3.16986e-07
1.4546e-08
3.16971e-07
1.43771e-08
3.16951e-07
1.42348e-08
3.16924e-07
1.41191e-08
3.16891e-07
1.40307e-08
3.16852e-07
1.39697e-08
3.16808e-07
1.39374e-08
3.16757e-07
1.39334e-08
3.167e-07
1.3959e-08
3.16638e-07
1.40138e-08
3.1657e-07
1.40973e-08
3.16496e-07
1.42097e-08
3.16416e-07
1.43456e-08
3.16331e-07
1.45072e-08
3.16235e-07
1.46827e-08
3.16128e-07
1.48776e-08
3.16002e-07
1.50875e-08
3.15854e-07
1.53289e-08
1.56426e-08
3.1568e-07
3.16776e-07
2.45888e-08
3.19652e-07
4.68208e-08
3.20961e-07
4.3514e-08
3.21908e-07
3.78428e-08
3.2277e-07
3.60578e-08
3.2337e-07
3.4543e-08
3.2377e-07
3.22619e-08
3.24097e-07
3.01344e-08
3.24382e-07
2.84803e-08
3.24623e-07
2.70978e-08
3.24826e-07
2.58489e-08
3.25001e-07
2.47166e-08
3.25154e-07
2.37e-08
3.25289e-07
2.27838e-08
3.25409e-07
2.19504e-08
3.25514e-07
2.11875e-08
3.25608e-07
2.04862e-08
3.25691e-07
1.98393e-08
3.25765e-07
1.9241e-08
3.25829e-07
1.8686e-08
3.25886e-07
1.81704e-08
3.25936e-07
1.76909e-08
3.25979e-07
1.72452e-08
3.26015e-07
1.68314e-08
3.26046e-07
1.64482e-08
3.2607e-07
1.60946e-08
3.26089e-07
1.57697e-08
3.26101e-07
1.5473e-08
3.26108e-07
1.52037e-08
3.26109e-07
1.49615e-08
3.26104e-07
1.47459e-08
3.26093e-07
1.45568e-08
3.26077e-07
1.43939e-08
3.26054e-07
1.42576e-08
3.26025e-07
1.4148e-08
3.2599e-07
1.40657e-08
3.25949e-07
1.40107e-08
3.25902e-07
1.39843e-08
3.25849e-07
1.39864e-08
3.2579e-07
1.40178e-08
3.25726e-07
1.40784e-08
3.25655e-07
1.41676e-08
3.25579e-07
1.42855e-08
3.25497e-07
1.4428e-08
3.25409e-07
1.45957e-08
3.2531e-07
1.47813e-08
3.25201e-07
1.4987e-08
3.25073e-07
1.52153e-08
3.24924e-07
1.54778e-08
1.58136e-08
3.24753e-07
3.26186e-07
2.22051e-08
3.28992e-07
4.40149e-08
3.30331e-07
4.21749e-08
3.31257e-07
3.69166e-08
3.32118e-07
3.51974e-08
3.32742e-07
3.39185e-08
3.33159e-07
3.18453e-08
3.33492e-07
2.98015e-08
3.33783e-07
2.81893e-08
3.3403e-07
2.6851e-08
3.34237e-07
2.56417e-08
3.34415e-07
2.45388e-08
3.3457e-07
2.35445e-08
3.34707e-07
2.2647e-08
3.34827e-07
2.183e-08
3.34934e-07
2.10812e-08
3.35028e-07
2.03922e-08
3.35111e-07
1.97563e-08
3.35184e-07
1.91678e-08
3.35248e-07
1.86217e-08
3.35304e-07
1.81142e-08
3.35353e-07
1.76422e-08
3.35395e-07
1.72034e-08
3.3543e-07
1.67962e-08
3.35459e-07
1.64192e-08
3.35482e-07
1.60717e-08
3.35499e-07
1.57528e-08
3.3551e-07
1.5462e-08
3.35515e-07
1.51987e-08
3.35514e-07
1.49624e-08
3.35507e-07
1.47528e-08
3.35494e-07