/*--------------------------------*- C++ -*----------------------------------*\
  =========                 |
  \\      /  F ield         | OpenFOAM: The Open Source CFD Toolbox
   \\    /   O peration     | Website:  https://openfoam.org
    \\  /    A nd           | Version:  7
     \\/     M anipulation  |
\*---------------------------------------------------------------------------*/
FoamFile
{
    version     2.0;
    format      ascii;
    class       volVectorField;
    location    "0.31";
    object      U_0;
}
// * * * * * * * * * * * * * * * * * * * * * * * * * * * * * * * * * * * * * //

dimensions      [0 1 -1 0 0 0 0];

internalField   nonuniform List<vector> 
70000
(
(0.553412 0.0169783 0)
(0.251406 0.00340066 0)
(0.165898 0.000319247 0)
(0.132393 4.92543e-05 0)
(0.117264 4.43038e-05 0)
(0.10728 5.24765e-05 0)
(0.0992803 4.46835e-05 0)
(0.0928069 3.56179e-05 0)
(0.0875319 2.95926e-05 0)
(0.0831306 2.5467e-05 0)
(0.0793749 2.23177e-05 0)
(0.0761172 1.97972e-05 0)
(0.0732561 1.77464e-05 0)
(0.0707173 1.60566e-05 0)
(0.0684447 1.46472e-05 0)
(0.0663945 1.34586e-05 0)
(0.0645325 1.24465e-05 0)
(0.0628312 1.15777e-05 0)
(0.0612684 1.08263e-05 0)
(0.0598256 1.01731e-05 0)
(0.0584878 9.60225e-06 0)
(0.0572419 9.10204e-06 0)
(0.0560773 8.66259e-06 0)
(0.0549844 8.27648e-06 0)
(0.0539551 7.93699e-06 0)
(0.0529825 7.6399e-06 0)
(0.0520603 7.3797e-06 0)
(0.0511828 7.15468e-06 0)
(0.0503451 6.95943e-06 0)
(0.0495427 6.79486e-06 0)
(0.0487717 6.65363e-06 0)
(0.0480281 6.5417e-06 0)
(0.0473086 6.4447e-06 0)
(0.0466098 6.3788e-06 0)
(0.0459291 6.31615e-06 0)
(0.0452632 6.28701e-06 0)
(0.0446098 6.24873e-06 0)
(0.043967 6.23207e-06 0)
(0.0433304 6.21799e-06 0)
(0.0427039 6.1351e-06 0)
(0.0420735 6.2036e-06 0)
(0.0414638 5.79337e-06 0)
(0.0408255 6.231e-06 0)
(0.0402514 4.66591e-06 0)
(0.0395784 6.51385e-06 0)
(0.0391067 1.28214e-06 0)
(0.0383411 7.84987e-06 0)
(0.038131 -8.45296e-06 0)
(0.037406 1.51275e-05 0)
(0.0347515 -0.00140645 0)
(0.884862 0.0434939 0)
(0.650131 0.0201506 0)
(0.493923 0.00660713 0)
(0.403448 0.00275777 0)
(0.354675 0.00155136 0)
(0.323289 0.00113543 0)
(0.299312 0.000913295 0)
(0.280021 0.00074896 0)
(0.264221 0.000626515 0)
(0.25101 0.000536286 0)
(0.239735 0.000467855 0)
(0.229957 0.000414066 0)
(0.221368 0.000370674 0)
(0.213746 0.000335031 0)
(0.206922 0.000305334 0)
(0.200766 0.000280292 0)
(0.195175 0.000258953 0)
(0.190067 0.000240608 0)
(0.185375 0.000224717 0)
(0.181045 0.000210863 0)
(0.177031 0.000198724 0)
(0.173294 0.000188043 0)
(0.169803 0.000178619 0)
(0.166529 0.000170289 0)
(0.163448 0.00016292 0)
(0.160538 0.000156407 0)
(0.157782 0.000150662 0)
(0.155162 0.000145617 0)
(0.152665 0.00014121 0)
(0.150275 0.000137402 0)
(0.147982 0.000134144 0)
(0.145773 0.000131429 0)
(0.14364 0.000129198 0)
(0.14157 0.00012749 0)
(0.139558 0.000126201 0)
(0.137591 0.000125455 0)
(0.135664 0.000125031 0)
(0.133769 0.000125207 0)
(0.131894 0.000125549 0)
(0.130046 0.000126529 0)
(0.128186 0.000127498 0)
(0.126376 0.000128816 0)
(0.124482 0.000130335 0)
(0.122744 0.000130308 0)
(0.120726 0.000132951 0)
(0.119205 0.000125448 0)
(0.116883 0.000135035 0)
(0.115918 7.7804e-05 0)
(0.11347 0.000271338 0)
(0.109963 -0.00239422 0)
(0.99121 0.0499567 0)
(0.890913 0.0305662 0)
(0.76244 0.0146165 0)
(0.656414 0.00797847 0)
(0.585221 0.00488862 0)
(0.535747 0.0034847 0)
(0.497738 0.00274946 0)
(0.466981 0.00225598 0)
(0.441532 0.00189301 0)
(0.420084 0.00162215 0)
(0.401686 0.00141552 0)
(0.385671 0.00125307 0)
(0.371565 0.00112208 0)
(0.359017 0.00101445 0)
(0.347761 0.000924718 0)
(0.337591 0.000848992 0)
(0.328342 0.00078441 0)
(0.319883 0.000728835 0)
(0.312108 0.000680644 0)
(0.304927 0.000638585 0)
(0.298268 0.000601684 0)
(0.292067 0.000569171 0)
(0.286272 0.000540434 0)
(0.280838 0.000514981 0)
(0.275725 0.000492415 0)
(0.270898 0.000472412 0)
(0.266328 0.00045471 0)
(0.261987 0.000439098 0)
(0.257852 0.000425398 0)
(0.253899 0.000413481 0)
(0.25011 0.000403221 0)
(0.246465 0.000394564 0)
(0.24295 0.000387391 0)
(0.239545 0.000381755 0)
(0.236239 0.000377449 0)
(0.233016 0.000374739 0)
(0.229861 0.000373134 0)
(0.226766 0.00037336 0)
(0.223707 0.000374219 0)
(0.220696 0.000377405 0)
(0.217673 0.000380239 0)
(0.214724 0.000386127 0)
(0.211654 0.000389952 0)
(0.208802 0.000396852 0)
(0.205541 0.000400399 0)
(0.202964 0.000399359 0)
(0.199239 0.000410765 0)
(0.197356 0.000313388 0)
(0.193221 0.000590052 0)
(0.190183 -0.00226721 0)
(1.01554 0.0489551 0)
(1.00649 0.0357292 0)
(0.935851 0.0208287 0)
(0.851912 0.0135116 0)
(0.782044 0.00921398 0)
(0.726779 0.00680178 0)
(0.681553 0.00540761 0)
(0.64364 0.00446804 0)
(0.611461 0.00377487 0)
(0.583824 0.00325043 0)
(0.55979 0.00284568 0)
(0.538654 0.00252531 0)
(0.519886 0.00226582 0)
(0.503083 0.00205184 0)
(0.487932 0.00187286 0)
(0.474181 0.00172138 0)
(0.461632 0.00159185 0)
(0.450119 0.00148013 0)
(0.439509 0.00138304 0)
(0.42969 0.00129813 0)
(0.420566 0.00122348 0)
(0.412059 0.00115756 0)
(0.404098 0.00109918 0)
(0.396626 0.00104735 0)
(0.38959 0.00100127 0)
(0.382946 0.000960309 0)
(0.376652 0.000923938 0)
(0.370674 0.000891729 0)
(0.36498 0.000863335 0)
(0.359539 0.000838483 0)
(0.354328 0.000816938 0)
(0.349319 0.000798569 0)
(0.344492 0.000783175 0)
(0.339824 0.000770807 0)
(0.335298 0.000761148 0)
(0.330891 0.000754618 0)
(0.326588 0.000750412 0)
(0.322372 0.00074984 0)
(0.318216 0.000750689 0)
(0.314131 0.000756432 0)
(0.310043 0.000761365 0)
(0.30605 0.000773855 0)
(0.301924 0.00078049 0)
(0.298049 0.000799106 0)
(0.293706 0.00080311 0)
(0.290125 0.000817623 0)
(0.28525 0.000827814 0)
(0.28238 0.000710735 0)
(0.276885 0.000984197 0)
(0.273787 -0.00165304 0)
(1.01435 0.0460996 0)
(1.04798 0.0373473 0)
(1.02454 0.0241992 0)
(0.974611 0.0175758 0)
(0.923335 0.0131322 0)
(0.876496 0.0102327 0)
(0.834198 0.00837612 0)
(0.796295 0.00705617 0)
(0.762566 0.00604775 0)
(0.73257 0.00526245 0)
(0.705796 0.00464281 0)
(0.681774 0.00414448 0)
(0.660106 0.00373608 0)
(0.640458 0.00339616 0)
(0.622557 0.00310965 0)
(0.60617 0.00286559 0)
(0.591105 0.00265575 0)
(0.5772 0.00247388 0)
(0.564318 0.00231516 0)
(0.552342 0.00217582 0)
(0.541172 0.00205288 0)
(0.53072 0.00194397 0)
(0.520913 0.00184719 0)
(0.511685 0.001761 0)
(0.502977 0.00168413 0)
(0.494739 0.00161556 0)
(0.486925 0.00155444 0)
(0.479495 0.00150009 0)
(0.472411 0.00145195 0)
(0.46564 0.00140958 0)
(0.459151 0.0013726 0)
(0.452915 0.00134078 0)
(0.446907 0.00131382 0)
(0.441101 0.00129177 0)
(0.435474 0.00127418 0)
(0.430003 0.00126165 0)
(0.424668 0.00125304 0)
(0.419447 0.00125029 0)
(0.414314 0.00125009 0)
(0.409272 0.00125793 0)
(0.404247 0.0012647 0)
(0.399331 0.00128449 0)
(0.394294 0.00129439 0)
(0.389513 0.00132693 0)
(0.384274 0.00133269 0)
(0.379775 0.00136646 0)
(0.374029 0.00137682 0)
(0.370156 0.00125473 0)
(0.363794 0.00149208 0)
(0.359869 -0.000860076 0)
(1.00941 0.0430493 0)
(1.05563 0.0371034 0)
(1.05866 0.0253426 0)
(1.03626 0.0197847 0)
(1.00702 0.0158265 0)
(0.97592 0.0129689 0)
(0.944275 0.0110029 0)
(0.913263 0.00952406 0)
(0.883746 0.00833653 0)
(0.856108 0.00737227 0)
(0.830428 0.00658591 0)
(0.806646 0.00593714 0)
(0.784642 0.00539467 0)
(0.764272 0.00493579 0)
(0.745392 0.00454385 0)
(0.72786 0.00420623 0)
(0.711546 0.00391321 0)
(0.696332 0.00365718 0)
(0.682111 0.00343214 0)
(0.668788 0.00323335 0)
(0.656277 0.00305698 0)
(0.644503 0.00289994 0)
(0.633398 0.00275974 0)
(0.6229 0.00263431 0)
(0.612956 0.00252197 0)
(0.603515 0.00242133 0)
(0.594534 0.00233125 0)
(0.585971 0.00225078 0)
(0.577789 0.00217915 0)
(0.569954 0.00211576 0)
(0.562434 0.00206008 0)
(0.555199 0.00201179 0)
(0.548223 0.00197051 0)
(0.541478 0.00193625 0)
(0.534941 0.00190847 0)
(0.528585 0.00188791 0)
(0.522389 0.00187314 0)
(0.516332 0.00186671 0)
(0.510383 0.0018643 0)
(0.504542 0.0018733 0)
(0.498742 0.00188144 0)
(0.493056 0.00190814 0)
(0.487279 0.00192192 0)
(0.481738 0.00196818 0)
(0.475804 0.0019785 0)
(0.47051 0.00203015 0)
(0.464157 0.00204668 0)
(0.459342 0.00192261 0)
(0.452516 0.00212636 0)
(0.447532 6.56976e-05 0)
(1.00635 0.0401815 0)
(1.05241 0.0361573 0)
(1.06604 0.0252674 0)
(1.0595 0.0205926 0)
(1.04682 0.0172584 0)
(1.03071 0.0146942 0)
(1.01171 0.012871 0)
(0.990906 0.0114515 0)
(0.969352 0.0102595 0)
(0.947781 0.00924887 0)
(0.926638 0.00839378 0)
(0.906188 0.00766612 0)
(0.886579 0.0070416 0)
(0.867882 0.00650155 0)
(0.850115 0.00603157 0)
(0.833267 0.00562025 0)
(0.817306 0.00525833 0)
(0.802188 0.00493835 0)
(0.787866 0.00465419 0)
(0.774291 0.00440088 0)
(0.761412 0.00417431 0)
(0.749182 0.00397112 0)
(0.737553 0.00378852 0)
(0.726483 0.00362417 0)
(0.715929 0.00347616 0)
(0.705853 0.00334285 0)
(0.696219 0.00322291 0)
(0.686992 0.00311522 0)
(0.678142 0.00301888 0)
(0.669636 0.00293313 0)
(0.661449 0.0028574 0)
(0.653551 0.00279125 0)
(0.645918 0.00273426 0)
(0.638525 0.00268644 0)
(0.631349 0.00264719 0)
(0.624364 0.00261738 0)
(0.617551 0.00259537 0)
(0.610886 0.00258422 0)
(0.604344 0.00257881 0)
(0.597917 0.00258809 0)
(0.591549 0.00259735 0)
(0.585292 0.00263006 0)
(0.57898 0.00264861 0)
(0.572866 0.00270694 0)
(0.566449 0.00272537 0)
(0.560534 0.00279083 0)
(0.553808 0.00282074 0)
(0.548221 0.00269475 0)
(0.541171 0.002871 0)
(0.535307 0.00111407 0)
(1.00506 0.0375045 0)
(1.04762 0.0350596 0)
(1.06394 0.0247212 0)
(1.06415 0.020626 0)
(1.06064 0.0178004 0)
(1.05469 0.0155407 0)
(1.04586 0.0139351 0)
(1.03457 0.012683 0)
(1.02154 0.0116039 0)
(1.00737 0.0106584 0)
(0.992523 0.00983282 0)
(0.977346 0.00910957 0)
(0.962111 0.00847201 0)
(0.947011 0.00790721 0)
(0.932184 0.00740501 0)
(0.917721 0.00695702 0)
(0.903682 0.00655616 0)
(0.890102 0.00619642 0)
(0.876997 0.00587271 0)
(0.864371 0.00558072 0)
(0.85222 0.00531681 0)
(0.840532 0.0050779 0)
(0.829293 0.00486137 0)
(0.818483 0.00466498 0)
(0.808084 0.00448686 0)
(0.798073 0.00432539 0)
(0.78843 0.00417923 0)
(0.779133 0.00404725 0)
(0.77016 0.00392851 0)
(0.761491 0.00382226 0)
(0.753104 0.0037279 0)
(0.744979 0.00364499 0)
(0.737097 0.00357314 0)
(0.729435 0.00351236 0)
(0.721976 0.00346208 0)
(0.714697 0.00342329 0)
(0.707583 0.00339424 0)
(0.70061 0.00337839 0)
(0.693759 0.00337015 0)
(0.687017 0.00337949 0)
(0.680341 0.00339028 0)
(0.673765 0.00342831 0)
(0.667161 0.00345292 0)
(0.660711 0.00352142 0)
(0.654045 0.00355149 0)
(0.647743 0.00362679 0)
(0.640861 0.00367526 0)
(0.634758 0.00355034 0)
(0.627651 0.00370351 0)
(0.621217 0.00224737 0)
(1.00451 0.0349688 0)
(1.04359 0.0339803 0)
(1.05992 0.0240715 0)
(1.0622 0.0203385 0)
(1.06246 0.0178683 0)
(1.06176 0.0158246 0)
(1.05913 0.0143945 0)
(1.05451 0.0133102 0)
(1.04821 0.0123753 0)
(1.04052 0.0115439 0)
(1.03175 0.0108048 0)
(1.02213 0.0101445 0)
(1.0119 0.00955008 0)
(1.00126 0.00901238 0)
(0.990375 0.00852457 0)
(0.97937 0.00808113 0)
(0.968351 0.00767737 0)
(0.957399 0.00730918 0)
(0.946575 0.00697298 0)
(0.935924 0.00666567 0)
(0.925479 0.00638454 0)
(0.915262 0.00612723 0)
(0.905288 0.00589169 0)
(0.895563 0.00567614 0)
(0.886092 0.00547902 0)
(0.876873 0.005299 0)
(0.867902 0.00513494 0)
(0.859172 0.00498586 0)
(0.850676 0.00485098 0)
(0.842405 0.00472962 0)
(0.834347 0.00462132 0)
(0.82649 0.00452572 0)
(0.818823 0.0044425 0)
(0.811332 0.00437181 0)
(0.804006 0.00431313 0)
(0.796826 0.00426759 0)
(0.789781 0.00423347 0)
(0.782854 0.0042145 0)
(0.776029 0.00420495 0)
(0.769293 0.00421531 0)
(0.762617 0.00422902 0)
(0.756018 0.00427254 0)
(0.749405 0.00430505 0)
(0.742901 0.00438258 0)
(0.736244 0.00442734 0)
(0.729834 0.0045103 0)
(0.723023 0.00457977 0)
(0.71671 0.00446264 0)
(0.709719 0.00459582 0)
(0.703041 0.00342628 0)
(1.00412 0.0325385 0)
(1.04026 0.0329276 0)
(1.05615 0.0234382 0)
(1.05884 0.019956 0)
(1.0602 0.017742 0)
(1.06154 0.015831 0)
(1.06187 0.0145037 0)
(1.06091 0.0135362 0)
(1.05878 0.0127191 0)
(1.05557 0.0119952 0)
(1.05137 0.0113511 0)
(1.04629 0.0107726 0)
(1.04047 0.0102471 0)
(1.03402 0.00976573 0)
(1.02707 0.00932298 0)
(1.01972 0.00891465 0)
(1.01207 0.00853744 0)
(1.00421 0.00818858 0)
(0.996202 0.00786569 0)
(0.988114 0.00756674 0)
(0.979993 0.00728996 0)
(0.971879 0.00703381 0)
(0.963805 0.00679693 0)
(0.955797 0.0065781 0)
(0.947873 0.00637629 0)
(0.94005 0.00619056 0)
(0.932337 0.00602012 0)
(0.924741 0.00586427 0)
(0.917266 0.00572251 0)
(0.909915 0.00559436 0)
(0.902687 0.00547956 0)
(0.895579 0.00537793 0)
(0.888589 0.00528933 0)
(0.881708 0.00521404 0)
(0.874934 0.00515171 0)
(0.868255 0.00510363 0)
(0.861666 0.00506822 0)
(0.855153 0.00504939 0)
(0.848709 0.00504153 0)
(0.842322 0.00505526 0)
(0.835972 0.0050744 0)
(0.829668 0.00512474 0)
(0.823348 0.00516758 0)
(0.817093 0.00525426 0)
(0.810724 0.00531632 0)
(0.804504 0.0054069 0)
(0.79801 0.0054981 0)
(0.791801 0.00539715 0)
(0.78513 0.00551507 0)
(0.77853 0.00460902 0)
(1.00374 0.0302044 0)
(1.03727 0.0318792 0)
(1.05282 0.022836 0)
(1.0556 0.0195557 0)
(1.0571 0.0175543 0)
(1.059 0.0157329 0)
(1.0604 0.0144542 0)
(1.06104 0.0135514 0)
(1.06098 0.0128092 0)
(1.06026 0.0121611 0)
(1.05886 0.0115908 0)
(1.0568 0.0110831 0)
(1.05412 0.0106236 0)
(1.05087 0.0102026 0)
(1.04709 0.00981372 0)
(1.04286 0.00945289 0)
(1.03824 0.00911695 0)
(1.03327 0.00880349 0)
(1.02803 0.00851064 0)
(1.02255 0.00823689 0)
(1.01689 0.00798104 0)
(1.01108 0.00774207 0)
(1.00517 0.00751914 0)
(0.999173 0.00731155 0)
(0.993126 0.00711867 0)
(0.987049 0.00693998 0)
(0.980959 0.00677503 0)
(0.974871 0.00662346 0)
(0.968798 0.00648502 0)
(0.962748 0.00635952 0)
(0.956729 0.00624691 0)
(0.950745 0.00614725 0)
(0.944799 0.00606058 0)
(0.938893 0.00598739 0)
(0.933026 0.00592753 0)
(0.927196 0.00588246 0)
(0.921401 0.00585079 0)
(0.915634 0.00583659 0)
(0.909892 0.00583454 0)
(0.904167 0.00585509 0)
(0.898447 0.00588305 0)
(0.892738 0.00594255 0)
(0.886999 0.00599866 0)
(0.881281 0.00609575 0)
(0.875468 0.00617745 0)
(0.869725 0.00627732 0)
(0.863789 0.00639028 0)
(0.857983 0.006314 0)
(0.851848 0.00642347 0)
(0.845626 0.00575241 0)
(1.00337 0.0279691 0)
(1.03443 0.0308227 0)
(1.04971 0.0222588 0)
(1.05264 0.0191528 0)
(1.0541 0.0173482 0)
(1.05606 0.0156056 0)
(1.05773 0.0143499 0)
(1.05889 0.013479 0)
(1.05965 0.0127785 0)
(1.06004 0.0121748 0)
(1.06005 0.0116509 0)
(1.05965 0.0111912 0)
(1.05883 0.0107803 0)
(1.0576 0.0104072 0)
(1.05597 0.0100648 0)
(1.05396 0.009748 0)
(1.0516 0.0094533 0)
(1.04891 0.00917802 0)
(1.04592 0.00892016 0)
(1.04266 0.0086782 0)
(1.03917 0.00845104 0)
(1.03546 0.00823783 0)
(1.03158 0.00803796 0)
(1.02754 0.00785093 0)
(1.02336 0.0076764 0)
(1.01907 0.00751409 0)
(1.01469 0.0073638 0)
(1.01022 0.0072254 0)
(1.00569 0.00709888 0)
(1.00111 0.00698425 0)
(0.996483 0.00688166 0)
(0.991821 0.00679138 0)
(0.98713 0.00671364 0)
(0.982416 0.00664912 0)
(0.977681 0.00659784 0)
(0.972928 0.00656145 0)
(0.968159 0.00653878 0)
(0.963371 0.00653397 0)
(0.958564 0.00654215 0)
(0.953735 0.00657334 0)
(0.948878 0.00661378 0)
(0.943997 0.00668526 0)
(0.939065 0.00675758 0)
(0.934116 0.00686705 0)
(0.92908 0.00697026 0)
(0.92405 0.0070821 0)
(0.918875 0.00721657 0)
(0.913721 0.00717248 0)
(0.908314 0.00728148 0)
(0.902723 0.00681523 0)
(1.00301 0.025836 0)
(1.03171 0.0297542 0)
(1.04672 0.0217028 0)
(1.04985 0.0187471 0)
(1.05128 0.0171304 0)
(1.0532 0.0154714 0)
(1.05491 0.014232 0)
(1.05619 0.0133781 0)
(1.05718 0.0127017 0)
(1.05797 0.0121228 0)
(1.05854 0.0116245 0)
(1.05888 0.0111926 0)
(1.05898 0.0108117 0)
(1.05883 0.0104701 0)
(1.05842 0.0101599 0)
(1.05775 0.00987573 0)
(1.05683 0.00961342 0)
(1.05565 0.00936988 0)
(1.05423 0.00914275 0)
(1.05259 0.00893029 0)
(1.05072 0.00873118 0)
(1.04866 0.0085445 0)
(1.04641 0.00836959 0)
(1.04398 0.00820598 0)
(1.0414 0.00805338 0)
(1.03868 0.00791158 0)
(1.03582 0.00778051 0)
(1.03285 0.00766015 0)
(1.02977 0.00755057 0)
(1.0266 0.00745195 0)
(1.02334 0.00736455 0)
(1.01999 0.00728877 0)
(1.01658 0.00722497 0)
(1.0131 0.00717399 0)
(1.00955 0.00713598 0)
(1.00595 0.00711274 0)
(1.00229 0.00710328 0)
(0.998579 0.00711177 0)
(0.994814 0.00713384 0)
(0.990996 0.0071789 0)
(0.987122 0.00723486 0)
(0.983195 0.00732077 0)
(0.979202 0.00741163 0)
(0.975161 0.00753537 0)
(0.971033 0.00766115 0)
(0.966866 0.00778778 0)
(0.962583 0.00794325 0)
(0.958247 0.00793702 0)
(0.9537 0.0080535 0)
(0.948918 0.00776236 0)
(1.00268 0.0238078 0)
(1.02911 0.0286718 0)
(1.04381 0.0211676 0)
(1.04715 0.0183383 0)
(1.04859 0.0168992 0)
(1.05048 0.0153329 0)
(1.05218 0.0141114 0)
(1.05347 0.01327 0)
(1.0545 0.0126109 0)
(1.05538 0.0120479 0)
(1.05612 0.0115643 0)
(1.05673 0.0111478 0)
(1.0572 0.0107836 0)
(1.05752 0.0104602 0)
(1.0577 0.0101696 0)
(1.05771 0.00990602 0)
(1.05756 0.00966518 0)
(1.05725 0.00944371 0)
(1.05678 0.00923897 0)
(1.05614 0.00904896 0)
(1.05533 0.00887218 0)
(1.05438 0.0087075 0)
(1.05326 0.00855414 0)
(1.05201 0.00841155 0)
(1.05061 0.00827936 0)
(1.04908 0.00815737 0)
(1.04742 0.00804546 0)
(1.04564 0.00794365 0)
(1.04375 0.00785205 0)
(1.04176 0.00777084 0)
(1.03966 0.00770035 0)
(1.03747 0.00764103 0)
(1.03518 0.00759332 0)
(1.03281 0.00755813 0)
(1.03036 0.00753569 0)
(1.02783 0.00752789 0)
(1.02522 0.00753392 0)
(1.02254 0.00755784 0)
(1.01979 0.00759586 0)
(1.01697 0.00765658 0)
(1.01407 0.00772976 0)
(1.01111 0.00783143 0)
(1.00807 0.00794188 0)
(1.00496 0.00808104 0)
(1.00177 0.0082292 0)
(0.998511 0.00837278 0)
(0.995153 0.00854819 0)
(0.991701 0.00858303 0)
(0.988061 0.00871383 0)
(0.984168 0.00856962 0)
(1.00238 0.0218861 0)
(1.02664 0.0275748 0)
(1.04098 0.0206529 0)
(1.04455 0.0179281 0)
(1.046 0.0166535 0)
(1.04786 0.0151887 0)
(1.04955 0.0139895 0)
(1.05084 0.0131596 0)
(1.05186 0.0125163 0)
(1.05274 0.0119667 0)
(1.05352 0.0114935 0)
(1.0542 0.0110865 0)
(1.05478 0.0107323 0)
(1.05527 0.0104193 0)
(1.05567 0.0101399 0)
(1.05598 0.00988828 0)
(1.05618 0.00966025 0)
(1.05629 0.00945236 0)
(1.0563 0.00926191 0)
(1.0562 0.00908676 0)
(1.056 0.00892529 0)
(1.05568 0.00877625 0)
(1.05526 0.00863874 0)
(1.05474 0.00851214 0)
(1.05411 0.00839601 0)
(1.05337 0.00829007 0)
(1.05254 0.00819419 0)
(1.0516 0.00810834 0)
(1.05057 0.0080326 0)
(1.04944 0.00796717 0)
(1.04822 0.00791234 0)
(1.04692 0.0078686 0)
(1.04552 0.00783636 0)
(1.04404 0.00781659 0)
(1.04247 0.00780956 0)
(1.04083 0.00781716 0)
(1.03911 0.00783874 0)
(1.03731 0.00787819 0)
(1.03543 0.00793226 0)
(1.03348 0.00800866 0)
(1.03145 0.00809901 0)
(1.02935 0.00821632 0)
(1.02717 0.00834582 0)
(1.02492 0.00850034 0)
(1.02259 0.00866932 0)
(1.02018 0.00883073 0)
(1.01769 0.00902436 0)
(1.01508 0.00910078 0)
(1.0123 0.00925085 0)
(1.00928 0.00922764 0)
(1.0021 0.020072 0)
(1.0243 0.0264652 0)
(1.03825 0.0201564 0)
(1.04202 0.0175184 0)
(1.0435 0.0163932 0)
(1.04533 0.0150374 0)
(1.04702 0.0138657 0)
(1.04831 0.0130475 0)
(1.04931 0.0124198 0)
(1.05018 0.0118835 0)
(1.05095 0.0114197 0)
(1.05163 0.0110205 0)
(1.05224 0.0106734 0)
(1.05277 0.0103674 0)
(1.05323 0.010095 0)
(1.05364 0.00985062 0)
(1.05398 0.00963019 0)
(1.05426 0.00943037 0)
(1.05447 0.00924848 0)
(1.05462 0.0090824 0)
(1.0547 0.00893048 0)
(1.05472 0.00879146 0)
(1.05466 0.00866438 0)
(1.05454 0.00854859 0)
(1.05434 0.00844362 0)
(1.05408 0.00834916 0)
(1.05374 0.00826506 0)
(1.05332 0.00819125 0)
(1.05284 0.0081278 0)
(1.05228 0.00807489 0)
(1.05164 0.00803276 0)
(1.05094 0.00800192 0)
(1.05016 0.00798274 0)
(1.04931 0.00797622 0)
(1.04839 0.00798261 0)
(1.0474 0.0080038 0)
(1.04634 0.00803926 0)
(1.04521 0.00809261 0)
(1.044 0.00816123 0)
(1.04273 0.00825178 0)
(1.0414 0.00835771 0)
(1.03999 0.00848915 0)
(1.03851 0.00863575 0)
(1.03697 0.00880439 0)
(1.03536 0.00899143 0)
(1.03367 0.00917019 0)
(1.0319 0.00937973 0)
(1.03003 0.0094958 0)
(1.028 0.00966798 0)
(1.02574 0.00974252 0)
(1.00185 0.0183656 0)
(1.0221 0.025347 0)
(1.03562 0.0196745 0)
(1.03959 0.017111 0)
(1.04109 0.016119 0)
(1.04288 0.0148782 0)
(1.04458 0.0137394 0)
(1.04586 0.0129332 0)
(1.04686 0.0123214 0)
(1.04772 0.011799 0)
(1.04847 0.011345 0)
(1.04914 0.0109531 0)
(1.04974 0.0106125 0)
(1.05027 0.0103124 0)
(1.05074 0.0100453 0)
(1.05116 0.00980614 0)
(1.05154 0.00959084 0)
(1.05187 0.00939623 0)
(1.05216 0.00921974 0)
(1.0524 0.00905929 0)
(1.0526 0.00891327 0)
(1.05275 0.00878046 0)
(1.05286 0.00865992 0)
(1.05293 0.008551 0)
(1.05295 0.00845326 0)
(1.05292 0.0083664 0)
(1.05284 0.00829026 0)
(1.05271 0.00822479 0)
(1.05253 0.00817004 0)
(1.0523 0.00812618 0)
(1.05201 0.00809345 0)
(1.05167 0.00807233 0)
(1.05128 0.0080632 0)
(1.05083 0.00806703 0)
(1.05032 0.00808409 0)
(1.04976 0.00811619 0)
(1.04914 0.00816296 0)
(1.04847 0.00822772 0)
(1.04773 0.00830841 0)
(1.04694 0.00841069 0)
(1.0461 0.0085297 0)
(1.04519 0.00867295 0)
(1.04423 0.00883377 0)
(1.04322 0.0090145 0)
(1.04214 0.00921618 0)
(1.041 0.00941075 0)
(1.03979 0.0096336 0)
(1.03849 0.00978566 0)
(1.03705 0.00998088 0)
(1.0354 0.010133 0)
(1.00162 0.0167667 0)
(1.02004 0.0242244 0)
(1.03309 0.0192029 0)
(1.03724 0.0167074 0)
(1.03877 0.0158319 0)
(1.04053 0.0147104 0)
(1.04222 0.0136105 0)
(1.04351 0.0128168 0)
(1.0445 0.0122208 0)
(1.04534 0.0117131 0)
(1.04608 0.0112693 0)
(1.04674 0.0108851 0)
(1.04732 0.0105509 0)
(1.04784 0.0102565 0)
(1.04831 0.00999445 0)
(1.04873 0.00975982 0)
(1.0491 0.00954876 0)
(1.04944 0.00935822 0)
(1.04974 0.00918571 0)
(1.05001 0.00902924 0)
(1.05024 0.00888726 0)
(1.05044 0.00875859 0)
(1.05061 0.00864234 0)
(1.05075 0.00853791 0)
(1.05086 0.00844489 0)
(1.05093 0.00836302 0)
(1.05097 0.00829218 0)
(1.05097 0.00823232 0)
(1.05094 0.00818352 0)
(1.05088 0.00814596 0)
(1.05077 0.00811988 0)
(1.05063 0.00810576 0)
(1.05044 0.00810397 0)
(1.05022 0.00811546 0)
(1.04995 0.00814053 0)
(1.04964 0.00818092 0)
(1.04929 0.0082364 0)
(1.04889 0.00830996 0)
(1.04845 0.00840012 0)
(1.04797 0.00851156 0)
(1.04744 0.0086409 0)
(1.04686 0.00879346 0)
(1.04624 0.00896545 0)
(1.04558 0.009156 0)
(1.04487 0.0093689 0)
(1.04411 0.00957723 0)
(1.04329 0.00981095 0)
(1.04238 0.00999449 0)
(1.04136 0.0102124 0)
(1.04017 0.0104253 0)
(1.00142 0.0152746 0)
(1.01811 0.0231015 0)
(1.03066 0.0187378 0)
(1.03497 0.0163091 0)
(1.03654 0.0155333 0)
(1.03826 0.0145334 0)
(1.03995 0.0134786 0)
(1.04124 0.0126984 0)
(1.04223 0.012118 0)
(1.04306 0.0116255 0)
(1.04379 0.0111927 0)
(1.04443 0.0108165 0)
(1.045 0.0104889 0)
(1.04551 0.0102003 0)
(1.04596 0.00994331 0)
(1.04637 0.00971315 0)
(1.04674 0.00950614 0)
(1.04707 0.00931934 0)
(1.04736 0.00915035 0)
(1.04763 0.00899726 0)
(1.04787 0.00885856 0)
(1.04808 0.00873312 0)
(1.04826 0.00862012 0)
(1.04842 0.00851899 0)
(1.04855 0.00842937 0)
(1.04866 0.00835107 0)
(1.04874 0.00828398 0)
(1.0488 0.00822811 0)
(1.04883 0.00818356 0)
(1.04884 0.00815052 0)
(1.04881 0.00812923 0)
(1.04876 0.00812022 0)
(1.04867 0.00812382 0)
(1.04856 0.00814099 0)
(1.04841 0.00817206 0)
(1.04823 0.00821867 0)
(1.04802 0.00828077 0)
(1.04778 0.00836102 0)
(1.0475 0.00845845 0)
(1.04718 0.00857688 0)
(1.04684 0.00871417 0)
(1.04645 0.0088739 0)
(1.04604 0.00905437 0)
(1.04559 0.00925274 0)
(1.0451 0.00947399 0)
(1.04457 0.00969402 0)
(1.044 0.00993673 0)
(1.04335 0.0101472 0)
(1.0426 0.0103866 0)
(1.04171 0.010647 0)
(1.00124 0.0138877 0)
(1.01632 0.0219823 0)
(1.02835 0.0182754 0)
(1.0328 0.0159174 0)
(1.03441 0.0152248 0)
(1.03609 0.0143467 0)
(1.03776 0.0133433 0)
(1.03906 0.0125778 0)
(1.04004 0.0120128 0)
(1.04086 0.0115362 0)
(1.04158 0.0111149 0)
(1.04222 0.0107471 0)
(1.04278 0.0104264 0)
(1.04327 0.0101438 0)
(1.04371 0.00989203 0)
(1.04411 0.00966646 0)
(1.04446 0.00946355 0)
(1.04478 0.00928048 0)
(1.04507 0.00911495 0)
(1.04533 0.00896508 0)
(1.04556 0.00882945 0)
(1.04576 0.00870694 0)
(1.04594 0.0085968 0)
(1.0461 0.00849851 0)
(1.04624 0.00841176 0)
(1.04635 0.00833638 0)
(1.04644 0.00827233 0)
(1.04652 0.00821965 0)
(1.04656 0.00817846 0)
(1.04659 0.00814899 0)
(1.0466 0.00813149 0)
(1.04658 0.00812647 0)
(1.04653 0.00813432 0)
(1.04646 0.00815595 0)
(1.04637 0.00819174 0)
(1.04625 0.00824324 0)
(1.0461 0.00831057 0)
(1.04593 0.00839605 0)
(1.04573 0.00849922 0)
(1.0455 0.00862312 0)
(1.04525 0.00876663 0)
(1.04497 0.008932 0)
(1.04466 0.00911895 0)
(1.04432 0.00932366 0)
(1.04396 0.00955121 0)
(1.04356 0.00978129 0)
(1.04312 0.0100318 0)
(1.04262 0.0102653 0)
(1.04204 0.010525 0)
(1.04133 0.0108226 0)
(1.00107 0.0126042 0)
(1.01466 0.0208709 0)
(1.02614 0.0178123 0)
(1.03071 0.0155331 0)
(1.03238 0.0149082 0)
(1.03401 0.0141498 0)
(1.03567 0.0132041 0)
(1.03697 0.0124553 0)
(1.03795 0.0119054 0)
(1.03876 0.0114449 0)
(1.03947 0.011036 0)
(1.04009 0.0106769 0)
(1.04064 0.0103634 0)
(1.04113 0.0100869 0)
(1.04156 0.00984059 0)
(1.04194 0.00961976 0)
(1.04229 0.00942108 0)
(1.0426 0.00924184 0)
(1.04287 0.00907981 0)
(1.04312 0.00893321 0)
(1.04334 0.00880064 0)
(1.04353 0.00868103 0)
(1.04371 0.00857367 0)
(1.04386 0.0084781 0)
(1.04399 0.00839403 0)
(1.0441 0.00832137 0)
(1.04419 0.0082601 0)
(1.04426 0.0082103 0)
(1.04431 0.00817211 0)
(1.04434 0.0081458 0)
(1.04435 0.00813162 0)
(1.04434 0.0081301 0)
(1.0443 0.00814162 0)
(1.04425 0.00816709 0)
(1.04417 0.00820694 0)
(1.04407 0.0082626 0)
(1.04395 0.00833436 0)
(1.04381 0.00842428 0)
(1.04364 0.00853226 0)
(1.04345 0.00866074 0)
(1.04324 0.00880938 0)
(1.043 0.00897948 0)
(1.04274 0.00917163 0)
(1.04246 0.00938181 0)
(1.04216 0.00961447 0)
(1.04183 0.00985345 0)
(1.04146 0.0101114 0)
(1.04103 0.0103646 0)
(1.04053 0.0106436 0)
(1.03992 0.0109709 0)
(1.00093 0.0114213 0)
(1.01314 0.0197713 0)
(1.02404 0.0173453 0)
(1.02871 0.0151569 0)
(1.03044 0.0145856 0)
(1.03203 0.0139424 0)
(1.03367 0.0130604 0)
(1.03497 0.0123307 0)
(1.03595 0.0117956 0)
(1.03675 0.0113516 0)
(1.03745 0.0109556 0)
(1.03806 0.0106058 0)
(1.0386 0.0102997 0)
(1.03908 0.0100297 0)
(1.0395 0.00978893 0)
(1.03987 0.009573 0)
(1.04021 0.00937869 0)
(1.0405 0.00920339 0)
(1.04077 0.00904499 0)
(1.04101 0.00890174 0)
(1.04122 0.00877228 0)
(1.04141 0.00865563 0)
(1.04157 0.00855109 0)
(1.04171 0.00845824 0)
(1.04183 0.00837686 0)
(1.04194 0.00830689 0)
(1.04202 0.00824835 0)
(1.04208 0.00820136 0)
(1.04213 0.00816609 0)
(1.04215 0.00814281 0)
(1.04216 0.0081318 0)
(1.04215 0.00813358 0)
(1.04211 0.00814857 0)
(1.04206 0.00817763 0)
(1.04198 0.00822126 0)
(1.04189 0.00828077 0)
(1.04177 0.00835661 0)
(1.04164 0.00845057 0)
(1.04148 0.00856291 0)
(1.0413 0.00869556 0)
(1.0411 0.00884873 0)
(1.04089 0.00902315 0)
(1.04065 0.00921983 0)
(1.04039 0.00943505 0)
(1.04011 0.00967232 0)
(1.0398 0.00991949 0)
(1.03946 0.0101849 0)
(1.03907 0.0104556 0)
(1.03861 0.0107527 0)
(1.03806 0.0111046 0)
(1.0008 0.0103358 0)
(1.01173 0.0186876 0)
(1.02206 0.0168719 0)
(1.0268 0.0147889 0)
(1.02859 0.0142589 0)
(1.03014 0.0137245 0)
(1.03175 0.0129117 0)
(1.03306 0.012204 0)
(1.03404 0.0116835 0)
(1.03483 0.0112562 0)
(1.03552 0.0108738 0)
(1.03613 0.0105338 0)
(1.03665 0.0102353 0)
(1.03712 0.00997189 0)
(1.03753 0.00973697 0)
(1.0379 0.00952613 0)
(1.03822 0.00933633 0)
(1.03851 0.00916512 0)
(1.03877 0.00901044 0)
(1.03899 0.00887064 0)
(1.0392 0.0087444 0)
(1.03937 0.00863077 0)
(1.03953 0.00852911 0)
(1.03966 0.00843905 0)
(1.03978 0.00836041 0)
(1.03987 0.00829317 0)
(1.03995 0.00823741 0)
(1.04 0.00819326 0)
(1.04004 0.00816092 0)
(1.04006 0.00814067 0)
(1.04006 0.00813283 0)
(1.04004 0.0081379 0)
(1.04 0.00815631 0)
(1.03995 0.00818891 0)
(1.03987 0.00823623 0)
(1.03977 0.00829951 0)
(1.03965 0.0083793 0)
(1.03952 0.0084772 0)
(1.03936 0.0085937 0)
(1.03918 0.00873039 0)
(1.03899 0.00888784 0)
(1.03878 0.00906646 0)
(1.03854 0.00926739 0)
(1.03829 0.00948754 0)
(1.03802 0.00972937 0)
(1.03772 0.00998438 0)
(1.03739 0.0102577 0)
(1.03701 0.010544 0)
(1.03657 0.0108586 0)
(1.03605 0.0112314 0)
(1.00069 0.00934387 0)
(1.01046 0.0176241 0)
(1.02019 0.0163896 0)
(1.02497 0.0144292 0)
(1.02682 0.0139301 0)
(1.02835 0.0134964 0)
(1.02992 0.0127572 0)
(1.03123 0.0120752 0)
(1.03221 0.0115692 0)
(1.033 0.0111585 0)
(1.03368 0.0107904 0)
(1.03428 0.0104606 0)
(1.0348 0.0101701 0)
(1.03525 0.00991356 0)
(1.03566 0.00968465 0)
(1.03601 0.00947909 0)
(1.03633 0.00929395 0)
(1.03661 0.00912695 0)
(1.03686 0.00897612 0)
(1.03708 0.00883987 0)
(1.03727 0.00871694 0)
(1.03744 0.00860642 0)
(1.03759 0.00850773 0)
(1.03771 0.00842053 0)
(1.03782 0.0083447 0)
(1.03791 0.00828027 0)
(1.03797 0.00822733 0)
(1.03802 0.00818608 0)
(1.03805 0.00815673 0)
(1.03807 0.00813958 0)
(1.03806 0.00813495 0)
(1.03804 0.00814335 0)
(1.03799 0.00816523 0)
(1.03793 0.00820139 0)
(1.03785 0.00825243 0)
(1.03775 0.00831949 0)
(1.03762 0.00840322 0)
(1.03749 0.00850506 0)
(1.03733 0.00862568 0)
(1.03715 0.00876643 0)
(1.03695 0.00892808 0)
(1.03674 0.00911094 0)
(1.0365 0.00931609 0)
(1.03625 0.0095412 0)
(1.03598 0.0097878 0)
(1.03568 0.0100505 0)
(1.03535 0.0103321 0)
(1.03498 0.0106329 0)
(1.03454 0.0109641 0)
(1.03404 0.0113555 0)
(1.0006 0.00844122 0)
(1.0093 0.0165846 0)
(1.01843 0.0158967 0)
(1.02322 0.0140775 0)
(1.02515 0.0136012 0)
(1.02664 0.0132583 0)
(1.02818 0.0125966 0)
(1.02949 0.011944 0)
(1.03047 0.0114527 0)
(1.03126 0.0110584 0)
(1.03193 0.0107052 0)
(1.03252 0.0103863 0)
(1.03303 0.0101041 0)
(1.03348 0.0098546 0)
(1.03387 0.0096319 0)
(1.03422 0.00943179 0)
(1.03453 0.00925149 0)
(1.0348 0.00908883 0)
(1.03504 0.00894198 0)
(1.03525 0.00880939 0)
(1.03544 0.00868987 0)
(1.0356 0.00858255 0)
(1.03574 0.0084869 0)
(1.03586 0.00840264 0)
(1.03596 0.0083297 0)
(1.03604 0.00826814 0)
(1.0361 0.00821812 0)
(1.03614 0.00817984 0)
(1.03617 0.00815354 0)
(1.03617 0.00813956 0)
(1.03616 0.00813821 0)
(1.03613 0.00815 0)
(1.03608 0.00817541 0)
(1.03601 0.0082152 0)
(1.03593 0.00827 0)
(1.03582 0.0083409 0)
(1.0357 0.00842861 0)
(1.03555 0.00853445 0)
(1.03539 0.00865921 0)
(1.03521 0.0088041 0)
(1.03501 0.00896996 0)
(1.03479 0.00915717 0)
(1.03456 0.00936661 0)
(1.03431 0.0095968 0)
(1.03403 0.00984848 0)
(1.03373 0.0101188 0)
(1.0334 0.0104091 0)
(1.03303 0.0107236 0)
(1.0326 0.0110706 0)
(1.0321 0.0114788 0)
(1.00051 0.00762307 0)
(1.00825 0.0155731 0)
(1.01678 0.015392 0)
(1.02156 0.013733 0)
(1.02356 0.0132738 0)
(1.02502 0.0130112 0)
(1.02653 0.0124291 0)
(1.02783 0.0118101 0)
(1.02882 0.0113341 0)
(1.0296 0.0109559 0)
(1.03026 0.010618 0)
(1.03084 0.0103107 0)
(1.03135 0.0100371 0)
(1.03179 0.0097949 0)
(1.03218 0.00957862 0)
(1.03252 0.00938417 0)
(1.03282 0.00920887 0)
(1.03309 0.00905071 0)
(1.03332 0.00890795 0)
(1.03352 0.00877914 0)