/*--------------------------------*- C++ -*----------------------------------*\
  =========                 |
  \\      /  F ield         | OpenFOAM: The Open Source CFD Toolbox
   \\    /   O peration     | Website:  https://openfoam.org
    \\  /    A nd           | Version:  7
     \\/     M anipulation  |
\*---------------------------------------------------------------------------*/
FoamFile
{
    version     2.0;
    format      ascii;
    class       volVectorField;
    location    "0.31";
    object      wallShearStress;
}
// * * * * * * * * * * * * * * * * * * * * * * * * * * * * * * * * * * * * * //

dimensions      [0 2 -2 0 0 0 0];

internalField   uniform (0 0 0);

boundaryField
{
    velocityInlet
    {
        type            calculated;
        value           uniform (0 0 0);
    }
    pressureOutlet
    {
        type            calculated;
        value           uniform (0 0 0);
    }
    fixedWalls
    {
        type            calculated;
        value           nonuniform List<vector> 
100
(
(-0.0156175 -0.00494555 0)
(0.00199794 -0.000914852 0)
(-0.00219844 0.000382959 0)
(-0.00106492 3.20355e-05 0)
(-0.00221885 7.65971e-05 0)
(-0.00222097 4.72072e-05 0)
(-0.00252856 -6.9685e-06 0)
(-0.00215566 -3.60519e-05 0)
(-0.00258236 0.000118665 0)
(-0.00485001 0.000366326 0)
(-0.0080392 0.000331112 0)
(-0.0104619 0.000259567 0)
(-0.0118643 0.00033883 0)
(-0.00967492 -0.000406153 0)
(-0.00104019 -0.00152188 0)
(0.0106612 -0.00199595 0)
(0.0190962 -0.00142879 0)
(0.0219002 -0.000469409 0)
(0.0192516 0.000463339 0)
(0.012965 0.000951057 0)
(0.00568482 0.000932373 0)
(-0.00034431 0.000667069 0)
(-0.00415171 0.000365217 0)
(-0.00599241 0.000143004 0)
(-0.00654274 2.62038e-05 0)
(-0.00645925 -2.28511e-05 0)
(-0.00616435 -3.16903e-05 0)
(-0.00585903 -2.30518e-05 0)
(-0.00557134 -1.83606e-05 0)
(-0.00521949 -3.05161e-05 0)
(-0.00470943 -5.79444e-05 0)
(-0.00400684 -9.13817e-05 0)
(-0.00319931 -0.000110892 0)
(-0.00258886 -8.56373e-05 0)
(-0.00263612 6.09331e-06 0)
(-0.00350922 0.000109373 0)
(-0.00480612 0.000155468 0)
(-0.00606442 0.000159298 0)
(-0.00704626 0.000148252 0)
(-0.00739699 8.85203e-05 0)
(-0.00658506 -7.79668e-05 0)
(-0.0043513 -0.00028037 0)
(-0.00105332 -0.000440621 0)
(0.00218224 -0.000400167 0)
(0.00411469 -0.000227795 0)
(0.00445908 -2.74324e-05 0)
(0.00362017 0.00010242 0)
(0.00229173 0.000146049 0)
(0.000965762 0.000135453 0)
(-0.000140751 0.000109158 0)
(-0.00097102 7.91596e-05 0)
(-0.00157009 5.54982e-05 0)
(-0.00198978 3.77052e-05 0)
(-0.00227733 2.46008e-05 0)
(-0.00247303 1.55392e-05 0)
(-0.00261438 1.04929e-05 0)
(-0.00273755 9.65737e-06 0)
(-0.00287475 1.27042e-05 0)
(-0.00304675 1.82008e-05 0)
(-0.00325287 2.34748e-05 0)
(-0.00346668 2.53616e-05 0)
(-0.00364738 2.25351e-05 0)
(-0.00376344 1.71628e-05 0)
(-0.00380842 1.32892e-05 0)
(-0.00379147 9.95433e-06 0)
(-0.0037081 5.95295e-06 0)
(-0.00351868 -3.76883e-06 0)
(-0.00315294 -2.31269e-05 0)
(-0.00253521 -5.30984e-05 0)
(-0.00162876 -8.94461e-05 0)
(-0.000484638 -0.000119104 0)
(0.000712467 -0.000124877 0)
(0.0016701 -9.84557e-05 0)
(0.00212693 -4.5856e-05 0)
(0.00198636 1.56113e-05 0)
(0.00137072 5.89066e-05 0)
(0.000522056 7.6843e-05 0)
(-0.000350448 7.48394e-05 0)
(-0.00110889 6.34106e-05 0)
(-0.00169163 4.77257e-05 0)
(-0.00209411 3.26327e-05 0)
(-0.0023359 1.96003e-05 0)
(-0.00244413 9.18335e-06 0)
(-0.00244579 9.93859e-07 0)
(-0.00236638 -5.32717e-06 0)
(-0.00222911 -9.75773e-06 0)
(-0.00205479 -1.25259e-05 0)
(-0.001859 -1.40808e-05 0)
(-0.00165429 -1.47926e-05 0)
(-0.00144379 -1.54265e-05 0)
(-0.00123229 -1.63138e-05 0)
(-0.00101589 -1.72514e-05 0)
(-0.00082107 -1.66371e-05 0)
(-0.000666839 -1.24541e-05 0)
(-0.000610887 -5.33713e-06 0)
(-0.000661843 4.29061e-06 0)
(-0.000806231 1.10135e-05 0)
(-0.00103054 1.54532e-05 0)
(-0.00118637 1.25907e-05 0)
(-0.00145533 1.04911e-05 0)
)
;
    }
    bottomWall
    {
        type            calculated;
        value           nonuniform List<vector> 
800
(
(-0.0353512 0.00216562 0)
(-0.0160365 0.000524961 0)
(-0.0105907 0.000100549 0)
(-0.00845612 3.45828e-05 0)
(-0.00749238 1.96755e-05 0)
(-0.00685707 1.60031e-05 0)
(-0.00634869 1.32022e-05 0)
(-0.00593791 1.0752e-05 0)
(-0.00560377 8.95085e-06 0)
(-0.00532553 7.65077e-06 0)
(-0.00508861 6.66576e-06 0)
(-0.00488357 5.88758e-06 0)
(-0.00470396 5.25726e-06 0)
(-0.00454503 4.73792e-06 0)
(-0.00440319 4.30394e-06 0)
(-0.00427568 3.93679e-06 0)
(-0.00416029 3.62279e-06 0)
(-0.00405529 3.35167e-06 0)
(-0.00395927 3.1156e-06 0)
(-0.00387105 2.90852e-06 0)
(-0.00378967 2.72565e-06 0)
(-0.00371434 2.56318e-06 0)
(-0.00364437 2.41804e-06 0)
(-0.00357919 2.28773e-06 0)
(-0.00351829 2.17019e-06 0)
(-0.00346126 2.06372e-06 0)
(-0.00340772 1.9669e-06 0)
(-0.00335735 1.87853e-06 0)
(-0.00330986 1.79762e-06 0)
(-0.00326502 1.72329e-06 0)
(-0.00322259 1.65483e-06 0)
(-0.00318239 1.59161e-06 0)
(-0.00314423 1.53307e-06 0)
(-0.00310797 1.47874e-06 0)
(-0.00307345 1.4282e-06 0)
(-0.00304057 1.3811e-06 0)
(-0.00300919 1.33712e-06 0)
(-0.00297922 1.29596e-06 0)
(-0.00295057 1.25737e-06 0)
(-0.00292315 1.22114e-06 0)
(-0.00289688 1.18706e-06 0)
(-0.00287168 1.15496e-06 0)
(-0.00284751 1.12469e-06 0)
(-0.00282429 1.09605e-06 0)
(-0.00280196 1.06909e-06 0)
(-0.00278049 1.04331e-06 0)
(-0.00275981 1.01935e-06 0)
(-0.00273991 9.95769e-07 0)
(-0.0027207 9.7459e-07 0)
(-0.0027022 9.5199e-07 0)
(-0.00268672 9.33496e-07 0)
(-0.00267394 9.23014e-07 0)
(-0.00266132 9.09528e-07 0)
(-0.00264889 8.95176e-07 0)
(-0.00263665 8.81739e-07 0)
(-0.00262459 8.68957e-07 0)
(-0.00261271 8.56477e-07 0)
(-0.002601 8.44259e-07 0)
(-0.00258945 8.32331e-07 0)
(-0.00257807 8.2069e-07 0)
(-0.00256684 8.09317e-07 0)
(-0.00255577 7.982e-07 0)
(-0.00254485 7.8733e-07 0)
(-0.00253408 7.767e-07 0)
(-0.00252346 7.66302e-07 0)
(-0.00251298 7.5613e-07 0)
(-0.00250264 7.46176e-07 0)
(-0.00249243 7.36435e-07 0)
(-0.00248236 7.26898e-07 0)
(-0.00247241 7.17561e-07 0)
(-0.0024626 7.08418e-07 0)
(-0.00245291 6.99464e-07 0)
(-0.00244334 6.90692e-07 0)
(-0.00243389 6.82099e-07 0)
(-0.00242456 6.73679e-07 0)
(-0.00241535 6.65428e-07 0)
(-0.00240624 6.5734e-07 0)
(-0.00239725 6.49412e-07 0)
(-0.00238837 6.41639e-07 0)
(-0.00237959 6.34017e-07 0)
(-0.00237092 6.26542e-07 0)
(-0.00236235 6.19211e-07 0)
(-0.00235388 6.12019e-07 0)
(-0.00234551 6.04965e-07 0)
(-0.00233723 5.98043e-07 0)
(-0.00232905 5.91252e-07 0)
(-0.00232097 5.84588e-07 0)
(-0.00231297 5.78049e-07 0)
(-0.00230506 5.71631e-07 0)
(-0.00229725 5.65332e-07 0)
(-0.00228951 5.59148e-07 0)
(-0.00228187 5.53079e-07 0)
(-0.0022743 5.47119e-07 0)
(-0.00226682 5.41266e-07 0)
(-0.00225941 5.35518e-07 0)
(-0.00225209 5.29873e-07 0)
(-0.00224484 5.24328e-07 0)
(-0.00223767 5.1888e-07 0)
(-0.00223057 5.13526e-07 0)
(-0.00222355 5.08266e-07 0)
(-0.0022166 5.03095e-07 0)
(-0.00220972 4.98012e-07 0)
(-0.00220291 4.93014e-07 0)
(-0.00219617 4.88101e-07 0)
(-0.00218949 4.8327e-07 0)
(-0.00218288 4.78518e-07 0)
(-0.00217634 4.73844e-07 0)
(-0.00216986 4.69247e-07 0)
(-0.00216344 4.64723e-07 0)
(-0.00215709 4.60272e-07 0)
(-0.00215079 4.55892e-07 0)
(-0.00214456 4.5158e-07 0)
(-0.00213839 4.47336e-07 0)
(-0.00213227 4.43157e-07 0)
(-0.00212621 4.39041e-07 0)
(-0.00212021 4.34989e-07 0)
(-0.00211426 4.30998e-07 0)
(-0.00210837 4.27067e-07 0)
(-0.00210253 4.23194e-07 0)
(-0.00209674 4.19379e-07 0)
(-0.00209101 4.1562e-07 0)
(-0.00208532 4.11917e-07 0)
(-0.00207969 4.08268e-07 0)
(-0.00207411 4.04674e-07 0)
(-0.00206858 4.01131e-07 0)
(-0.00206309 3.97641e-07 0)
(-0.00205766 3.942e-07 0)
(-0.00205226 3.9081e-07 0)
(-0.00204692 3.8747e-07 0)
(-0.00204162 3.84182e-07 0)
(-0.00203637 3.80941e-07 0)
(-0.00203116 3.77748e-07 0)
(-0.00202599 3.74602e-07 0)
(-0.00202087 3.71504e-07 0)
(-0.00201579 3.68453e-07 0)
(-0.00201075 3.65447e-07 0)
(-0.00200575 3.62486e-07 0)
(-0.00200079 3.59566e-07 0)
(-0.00199587 3.56693e-07 0)
(-0.00199099 3.53857e-07 0)
(-0.00198615 3.51073e-07 0)
(-0.00198135 3.48313e-07 0)
(-0.00197658 3.45619e-07 0)
(-0.00197185 3.42928e-07 0)
(-0.00196716 3.40333e-07 0)
(-0.0019625 3.37691e-07 0)
(-0.00195788 3.35206e-07 0)
(-0.00195329 3.3258e-07 0)
(-0.00194874 3.30197e-07 0)
(-0.00194422 3.27508e-07 0)
(-0.00194042 3.25116e-07 0)
(-0.00193732 3.23874e-07 0)
(-0.00193421 3.22376e-07 0)
(-0.0019311 3.2065e-07 0)
(-0.00192797 3.18935e-07 0)
(-0.00192485 3.17281e-07 0)
(-0.00192171 3.15642e-07 0)
(-0.00191857 3.14012e-07 0)
(-0.00191543 3.12387e-07 0)
(-0.00191228 3.10764e-07 0)
(-0.00190912 3.0915e-07 0)
(-0.00190596 3.07543e-07 0)
(-0.0019028 3.05932e-07 0)
(-0.00189962 3.04334e-07 0)
(-0.00189644 3.02729e-07 0)
(-0.00189326 3.01137e-07 0)
(-0.00189007 2.9955e-07 0)
(-0.00188688 2.97966e-07 0)
(-0.00188368 2.96385e-07 0)
(-0.00188047 2.94807e-07 0)
(-0.00187726 2.93238e-07 0)
(-0.00187404 2.91673e-07 0)
(-0.00187082 2.90103e-07 0)
(-0.00186759 2.88549e-07 0)
(-0.00186436 2.86989e-07 0)
(-0.00186112 2.85441e-07 0)
(-0.00185788 2.839e-07 0)
(-0.00185463 2.82359e-07 0)
(-0.00185138 2.8083e-07 0)
(-0.00184812 2.79305e-07 0)
(-0.00184486 2.77774e-07 0)
(-0.00184159 2.76262e-07 0)
(-0.00183832 2.74739e-07 0)
(-0.00183504 2.73232e-07 0)
(-0.00183175 2.7173e-07 0)
(-0.00182847 2.7023e-07 0)
(-0.00182517 2.68741e-07 0)
(-0.00182187 2.67256e-07 0)
(-0.00181857 2.6577e-07 0)
(-0.00181526 2.64299e-07 0)
(-0.00181195 2.62823e-07 0)
(-0.00180863 2.61361e-07 0)
(-0.00180531 2.59907e-07 0)
(-0.00180198 2.58457e-07 0)
(-0.00179865 2.57015e-07 0)
(-0.00179532 2.55576e-07 0)
(-0.00179198 2.5415e-07 0)
(-0.00178863 2.52729e-07 0)
(-0.00178528 2.51308e-07 0)
(-0.00178192 2.49901e-07 0)
(-0.00177856 2.48489e-07 0)
(-0.0017752 2.47091e-07 0)
(-0.00177183 2.457e-07 0)
(-0.00176846 2.44311e-07 0)
(-0.00176508 2.42934e-07 0)
(-0.0017617 2.41558e-07 0)
(-0.00175831 2.40184e-07 0)
(-0.00175492 2.38818e-07 0)
(-0.00175153 2.37449e-07 0)
(-0.00174813 2.3609e-07 0)
(-0.00174473 2.34736e-07 0)
(-0.00174132 2.33384e-07 0)
(-0.00173791 2.32042e-07 0)
(-0.0017345 2.30704e-07 0)
(-0.00173108 2.29368e-07 0)
(-0.00172766 2.28034e-07 0)
(-0.00172423 2.26703e-07 0)
(-0.0017208 2.25386e-07 0)
(-0.00171737 2.24078e-07 0)
(-0.00171393 2.22773e-07 0)
(-0.00171049 2.21475e-07 0)
(-0.00170704 2.20188e-07 0)
(-0.00170359 2.18911e-07 0)
(-0.00170014 2.17654e-07 0)
(-0.00169668 2.16388e-07 0)
(-0.00169322 2.15161e-07 0)
(-0.00168976 2.13897e-07 0)
(-0.00168629 2.12733e-07 0)
(-0.00168282 2.11457e-07 0)
(-0.00167934 2.10408e-07 0)
(-0.00167586 2.09039e-07 0)
(-0.00167237 2.08246e-07 0)
(-0.00166889 2.06597e-07 0)
(-0.00166538 2.06358e-07 0)
(-0.0016619 2.0395e-07 0)
(-0.00165836 2.05026e-07 0)
(-0.0016549 2.00772e-07 0)
(-0.00165129 2.04872e-07 0)
(-0.00164789 1.96222e-07 0)
(-0.00164416 2.07203e-07 0)
(-0.00164091 1.8849e-07 0)
(-0.00163693 2.14717e-07 0)
(-0.00163398 1.73905e-07 0)
(-0.00162952 2.32659e-07 0)
(-0.00162717 1.4561e-07 0)
(-0.00162184 2.69819e-07 0)
(-0.00162056 9.25463e-08 0)
(-0.00161387 3.36052e-07 0)
(-0.00161413 9.00637e-09 0)
(-0.00160562 3.69123e-07 0)
(-0.0353511 -0.00216565 0)
(-0.0160356 -0.000525002 0)
(-0.0105885 -0.000100602 0)
(-0.0084523 -3.46377e-05 0)
(-0.00748667 -1.97361e-05 0)
(-0.00684922 -1.60702e-05 0)
(-0.00633848 -1.32748e-05 0)
(-0.0059252 -1.08298e-05 0)
(-0.00558843 -9.03358e-06 0)
(-0.00530744 -7.73816e-06 0)
(-0.00506767 -6.75763e-06 0)
(-0.00485969 -5.984e-06 0)
(-0.00467703 -5.35847e-06 0)
(-0.00451495 -4.8442e-06 0)
(-0.00436986 -4.41565e-06 0)
(-0.00423898 -4.05433e-06 0)
(-0.0041201 -3.74655e-06 0)
(-0.00401149 -3.4821e-06 0)
(-0.00391172 -3.25315e-06 0)
(-0.00381962 -3.05374e-06 0)
(-0.00373421 -2.87917e-06 0)
(-0.00365468 -2.72576e-06 0)
(-0.00358032 -2.59057e-06 0)
(-0.00351056 -2.47128e-06 0)
(-0.00344486 -2.36595e-06 0)
(-0.00338277 -2.2731e-06 0)
(-0.0033239 -2.19138e-06 0)
(-0.00326789 -2.11987e-06 0)
(-0.00321442 -2.05756e-06 0)
(-0.00316321 -2.00397e-06 0)
(-0.003114 -1.95819e-06 0)
(-0.00306654 -1.92027e-06 0)
(-0.00302062 -1.88889e-06 0)
(-0.00297603 -1.86509e-06 0)
(-0.00293259 -1.84634e-06 0)
(-0.00289011 -1.8353e-06 0)
(-0.00284843 -1.8272e-06 0)
(-0.00280743 -1.82678e-06 0)
(-0.00276683 -1.82677e-06 0)
(-0.00272689 -1.8313e-06 0)
(-0.0026867 -1.83716e-06 0)
(-0.00264785 -1.82897e-06 0)
(-0.00260719 -1.84463e-06 0)
(-0.00257065 -1.76838e-06 0)
(-0.0025278 -1.82639e-06 0)
(-0.00249786 -1.506e-06 0)
(-0.00244917 -1.77362e-06 0)
(-0.00243602 -3.57921e-07 0)
(-0.00238761 -5.29278e-06 0)
(-0.00222196 0.000164375 0)
(3.87643e-05 -1.14785e-05 0)
(5.47659e-05 -0.000107287 0)
(3.28716e-05 -0.000201129 0)
(-1.47653e-05 -0.000242779 0)
(-6.70923e-05 -0.000205275 0)
(-8.22659e-05 -8.92254e-05 0)
(-3.79428e-05 4.15516e-05 0)
(2.55926e-05 8.57416e-05 0)
(-5.19878e-05 0.000145285 0)
(-0.000315707 0.000470096 0)
(-0.000357392 0.000978574 0)
(-0.000189434 0.00120047 0)
(-0.000120121 0.00129466 0)
(-7.29903e-05 0.0013525 0)
(-4.12234e-05 0.00135992 0)
(-2.91067e-05 0.00136108 0)
(-9.34972e-06 0.00134162 0)
(1.3282e-05 0.00130237 0)
(4.42498e-05 0.00123307 0)
(8.12299e-05 0.00112921 0)
(0.000121291 0.00098785 0)
(0.000163142 0.000809705 0)
(0.000204715 0.000598582 0)
(0.000243792 0.000348438 0)
(0.000265805 5.46605e-05 0)
(0.00027745 -0.000250129 0)
(0.000282351 -0.000557046 0)
(0.000279869 -0.000862972 0)
(0.000270804 -0.001162 0)
(0.000256742 -0.00144795 0)
(0.000239521 -0.00171697 0)
(0.000220506 -0.00196707 0)
(0.000200599 -0.00219736 0)
(0.000180374 -0.00240768 0)
(0.000160168 -0.00259825 0)
(0.000140156 -0.00276956 0)
(0.000120395 -0.00292218 0)
(0.000100901 -0.00305669 0)
(8.1629e-05 -0.0031737 0)
(6.25467e-05 -0.00327368 0)
(4.35821e-05 -0.00335724 0)
(2.46362e-05 -0.00342468 0)
(5.65114e-06 -0.00347652 0)
(-1.36111e-05 -0.00351295 0)
(-3.32859e-05 -0.0035342 0)
(-5.39249e-05 -0.00354064 0)
(-7.60219e-05 -0.00353096 0)
(-9.91172e-05 -0.00350532 0)
(-0.00012322 -0.00346377 0)
(-0.000148281 -0.00340604 0)
(-0.000174302 -0.00333191 0)
(-0.000201364 -0.00324117 0)
(-0.000229547 -0.00313356 0)
(-0.000258902 -0.00300874 0)
(-0.000289416 -0.00286631 0)
(-0.000320976 -0.00270596 0)
(-0.000353376 -0.00252729 0)
(-0.000386094 -0.00233024 0)
(-0.000418637 -0.00211473 0)
(-0.000449758 -0.00188088 0)
(-0.000478032 -0.00162916 0)
(-0.000500854 -0.00135878 0)
(-0.000513816 -0.00106816 0)
(-0.000497696 -0.000753245 0)
(-0.000422714 -0.000442586 0)
(-0.000308832 -0.000166129 0)
(-0.000177739 8.27486e-05 0)
(-8.39031e-06 0.000288948 0)
(0.000174865 0.00042636 0)
(0.000332815 0.000484299 0)
(0.000437631 0.000477211 0)
(0.000476245 0.000426964 0)
(0.00044971 0.000363953 0)
(0.000366429 0.000298387 0)
(0.000231151 0.000238671 0)
(7.48266e-05 0.000211043 0)
(-7.18065e-05 0.000252427 0)
(-0.00016036 0.000284596 0)
(-0.000160623 0.000291367 0)
(-0.000129606 0.000290795 0)
(-8.84751e-05 0.000266709 0)
(-4.42019e-05 0.0002367 0)
(2.56801e-06 0.000206358 0)
(4.84727e-05 0.000173473 0)
(8.49596e-05 0.000135664 0)
(0.000105375 9.61678e-05 0)
(0.000108769 6.12819e-05 0)
(9.96664e-05 3.36005e-05 0)
(8.22705e-05 1.26541e-05 0)
(5.92684e-05 -1.27347e-06 0)
(2.9659e-05 -6.11881e-06 0)
(-3.9789e-06 1.00125e-06 0)
(-3.91582e-05 2.16463e-05 0)
(-7.63383e-05 5.71531e-05 0)
(-0.000115197 0.000108164 0)
(-0.000155024 0.000174849 0)
(-0.000194368 0.000256813 0)
(-0.000231039 0.000352823 0)
(-0.000262513 0.0004606 0)
(-0.000286488 0.000576869 0)
(-0.000301267 0.000697677 0)
(-0.000305911 0.00081879 0)
(-0.000300202 0.000936012 0)
(-0.000284566 0.00104544 0)
(-0.000259958 0.00114364 0)
(-0.000227742 0.00122781 0)
(-0.000189588 0.00129583 0)
(-0.000147408 0.00134634 0)
(-0.000103146 0.00137874 0)
(-5.8596e-05 0.00139302 0)
(-1.59521e-05 0.00138959 0)
(2.31904e-05 0.00137054 0)
(5.79799e-05 0.00133747 0)
(8.73784e-05 0.00129255 0)
(0.000110707 0.00123823 0)
(0.000127557 0.0011773 0)
(0.000137955 0.00111271 0)
(0.000142433 0.00104743 0)
(0.000142092 0.000984198 0)
(0.000138554 0.000925232 0)
(0.000133776 0.000871922 0)
(0.000129669 0.00082462 0)
(0.000127677 0.00078267 0)
(0.000128406 0.000744652 0)
(0.000131359 0.000708834 0)
(0.000134853 0.000673813 0)
(0.000136342 0.000639258 0)
(0.000133224 0.000606299 0)
(0.000123772 0.000577139 0)
(0.000107548 0.00055391 0)
(8.49648e-05 0.000537974 0)
(5.67585e-05 0.000530214 0)
(2.42764e-05 0.000531765 0)
(-8.96213e-06 0.000543381 0)
(-3.86432e-05 0.000563789 0)
(-6.18215e-05 0.000590067 0)
(-7.75876e-05 0.000618572 0)
(-8.66616e-05 0.000646451 0)
(-9.04545e-05 0.000672184 0)
(-9.03748e-05 0.000695198 0)
(-8.75536e-05 0.000715368 0)
(-8.28304e-05 0.000732729 0)
(-7.68101e-05 0.000747365 0)
(-6.99227e-05 0.000759377 0)
(-6.24742e-05 0.000768881 0)
(-5.46746e-05 0.000776031 0)
(-4.66172e-05 0.000780986 0)
(-3.83436e-05 0.000783848 0)
(-2.98642e-05 0.00078467 0)
(-2.125e-05 0.000783445 0)
(-1.25566e-05 0.000780296 0)
(-3.71729e-06 0.000775338 0)
(5.3318e-06 0.000768627 0)
(1.46669e-05 0.000760164 0)
(2.43601e-05 0.000749915 0)
(3.44708e-05 0.000737827 0)
(4.50419e-05 0.000723836 0)
(5.6097e-05 0.000707867 0)
(6.76372e-05 0.000689842 0)
(7.96396e-05 0.000669683 0)
(9.20552e-05 0.000647319 0)
(0.000104809 0.000622689 0)
(0.000117799 0.000595748 0)
(0.000130898 0.000566472 0)
(0.000143954 0.000534862 0)
(0.000156787 0.000500942 0)
(0.000169197 0.000464771 0)
(0.00018096 0.00042644 0)
(0.000191831 0.000386081 0)
(0.000201552 0.000343866 0)
(0.000209854 0.000300022 0)
(0.000216463 0.000254826 0)
(0.000221116 0.000208618 0)
(0.000223571 0.000161794 0)
(0.00022362 0.000114806 0)
(0.000221101 6.81516e-05 0)
(0.00021587 2.23655e-05 0)
(0.000207873 -2.19719e-05 0)
(0.000197186 -6.42938e-05 0)
(0.000183915 -0.000104066 0)
(0.000168213 -0.000140766 0)
(0.000150346 -0.000173925 0)
(0.000130636 -0.000203133 0)
(0.000109461 -0.000228047 0)
(8.72489e-05 -0.000248394 0)
(6.44676e-05 -0.000263966 0)
(4.162e-05 -0.000274623 0)
(1.92436e-05 -0.000280288 0)
(-2.0693e-06 -0.00028096 0)
(-2.15764e-05 -0.000276788 0)
(-3.86385e-05 -0.000268276 0)
(-5.29657e-05 -0.000256411 0)
(-6.46487e-05 -0.000243135 0)
(-7.46648e-05 -0.000232192 0)
(-8.59405e-05 -0.000230442 0)
(-0.000105038 -0.000249644 0)
(-0.000145326 -0.000307953 0)
(-0.0002322 -0.000429795 0)
(-0.000402561 -0.000638296 0)
(-0.000652906 -0.000925488 0)
(5.83168e-07 -3.66538e-05 0)
(6.03748e-05 -5.32952e-05 0)
(0.000116666 -5.06716e-05 0)
(0.000149598 -2.09868e-05 0)
(0.000140687 2.16401e-05 0)
(9.02065e-05 6.20057e-05 0)
(5.54544e-06 8.57479e-05 0)
(-8.88584e-05 8.55657e-05 0)
(-0.000171189 6.77179e-05 0)
(-0.000231106 4.21444e-05 0)
(-0.000265158 1.99287e-05 0)
(-0.000279068 1.15304e-05 0)
(-0.000285098 1.76379e-05 0)
(-0.000294101 2.88169e-05 0)
(-0.000311759 3.80677e-05 0)
(-0.000339586 4.27667e-05 0)
(-0.000375114 4.4015e-05 0)
(-0.000419054 4.28438e-05 0)
(-0.00046261 3.62752e-05 0)
(-0.000505211 3.39122e-05 0)
(-0.00054864 2.62395e-05 0)
(-0.000573989 4.53228e-06 0)
(-0.00056548 -1.72449e-05 0)
(-0.000536183 -3.40831e-05 0)
(-0.000489799 -5.84207e-05 0)
(-0.000420253 -7.4837e-05 0)
(-0.000362877 -7.56748e-05 0)
(-0.000337629 -8.85839e-05 0)
(-0.000308505 -9.22854e-05 0)
(-0.000312791 -1.29617e-05 0)
(-0.000356027 0.000151391 0)
(-0.000376279 0.000230522 0)
(-0.000456781 0.000219455 0)
(-0.000495023 0.000128608 0)
(-0.000465401 3.12691e-05 0)
(-0.000409792 -2.42024e-05 0)
(-0.000357572 -5.02253e-05 0)
(-0.000312965 -5.74975e-05 0)
(-0.000282734 -4.93836e-05 0)
(-0.000270343 -3.5663e-05 0)
(-0.000270392 -2.23706e-05 0)
(-0.000279775 -1.08347e-05 0)
(-0.000296459 -1.19522e-06 0)
(-0.000318538 6.8639e-06 0)
(-0.000344833 1.38228e-05 0)
(-0.000374874 2.00053e-05 0)
(-0.000408498 2.57829e-05 0)
(-0.000445827 3.13894e-05 0)
(-0.000487046 3.67526e-05 0)
(-0.000532091 4.16252e-05 0)
(-0.00058062 4.55289e-05 0)
(-0.000631793 4.79154e-05 0)
(-0.000684241 4.80905e-05 0)
(-0.000736018 4.53423e-05 0)
(-0.000784629 3.89149e-05 0)
(-0.000827088 2.80301e-05 0)
(-0.000859707 1.20069e-05 0)
(-0.000878343 -9.51815e-06 0)
(-0.000878627 -3.69929e-05 0)
(-0.000855217 -7.0692e-05 0)
(-0.000803352 -0.000109977 0)
(-0.000719178 -0.000153477 0)
(-0.000600436 -0.000199289 0)
(-0.000446768 -0.000245881 0)
(-0.000256502 -0.000292848 0)
(-2.09084e-05 -0.00033331 0)
(0.000248159 -0.000350149 0)
(0.000516604 -0.000335261 0)
(0.000774691 -0.000297189 0)
(0.00101446 -0.000233855 0)
(0.00121536 -0.000140586 0)
(0.00134542 -1.30718e-05 0)
(0.00136461 0.000140852 0)
(0.00126099 0.000275374 0)
(0.00110475 0.000327204 0)
(0.000999012 0.000268738 0)
(0.00101798 8.75172e-05 0)
(0.00118188 -0.000235032 0)
(0.00152918 -0.000541746 0)
(0.00202028 -0.000608515 0)
(0.0023989 -0.000459753 0)
(0.00260993 -0.000318163 0)
(0.00274127 -0.000190553 0)
(0.00276989 -4.36742e-05 0)
(0.00269545 6.00863e-05 0)
(0.00257205 0.000135911 0)
(0.00239418 0.000210469 0)
(0.00216892 0.000253788 0)
(0.00192998 0.000268295 0)
(0.00168861 0.000271954 0)
(0.00145338 0.000263207 0)
(0.00123791 0.000245014 0)
(0.001044 0.000231558 0)
(0.000859796 0.000234263 0)
(0.000667467 0.00025788 0)
(0.000447564 0.000292275 0)
(0.000183749 0.000307177 0)
(-0.000105377 0.000227833 0)
(-0.00026599 -7.14294e-06 0)
(-7.21767e-05 -0.000211698 0)
(-0.000252766 -8.73994e-05 0)
(-0.000201202 -0.000345398 0)
(-9.87371e-05 -0.000410678 0)
(6.42664e-05 -0.000305705 0)
(0.000180473 -6.2437e-05 0)
(0.00015543 0.000152193 0)
(9.32189e-05 0.000254576 0)
(1.70106e-05 0.00025266 0)
(-9.62095e-05 0.000128613 0)
(-0.000219406 -0.000144793 0)
(-0.000325217 -0.000544776 0)
(-0.000397141 -0.00103563 0)
(-0.000430453 -0.00157601 0)
(-0.000423582 -0.00212837 0)
(-0.000364154 -0.00264806 0)
(-0.000246836 -0.00307222 0)
(-8.54394e-05 -0.00333917 0)
(0.000111109 -0.00342276 0)
(0.000330401 -0.00328148 0)
(0.000536378 -0.00291564 0)
(0.000694393 -0.0023475 0)
(0.00076375 -0.00163872 0)
(0.000704356 -0.000886724 0)
(0.000511162 -0.000223071 0)
(0.000239716 0.000231077 0)
(3.22807e-06 0.00044461 0)
(-0.000162685 0.000465762 0)
(-0.000293409 0.000336704 0)
(-0.000381776 8.21278e-05 0)
(-0.000400113 -0.000270256 0)
(-0.000333424 -0.000599537 0)
(-0.000233942 -0.000823917 0)
(-9.75021e-05 -0.000945337 0)
(6.1423e-05 -0.000929881 0)
(0.000169175 -0.000839651 0)
(0.000269574 -0.000746169 0)
(0.00039204 -0.00063362 0)
(0.000485297 -0.000413698 0)
(0.000418982 -0.00017397 0)
(-0.000144021 -5.57393e-05 0)
(-0.000552557 -0.000178866 0)
(-0.00080543 -0.000411034 0)
(-0.000832735 -0.000611891 0)
(-0.000875514 -0.000985251 0)
(-0.000549179 -0.00110251 0)
(-4.59558e-05 -0.000807948 0)
(0.000360959 -0.000413367 0)
(0.00058221 4.62669e-05 0)
(0.000510143 0.000458335 0)
(0.000418989 0.000717791 0)
(0.000368462 0.000937266 0)
(0.000328807 0.00113182 0)
(0.000286419 0.0013018 0)
(0.000244205 0.00144018 0)
(0.000203462 0.00155418 0)
(0.000159538 0.00164709 0)
(0.000115544 0.00172213 0)
(7.32645e-05 0.00178563 0)
(3.62531e-05 0.00184115 0)
(8.57823e-06 0.00189138 0)
(-6.20833e-06 0.00193795 0)
(-5.96275e-06 0.0019836 0)
(1.02074e-05 0.00203251 0)
(4.25398e-05 0.00208993 0)
(8.98973e-05 0.00216097 0)
(0.000148707 0.00225028 0)
(0.000210228 0.00236123 0)
(0.000259518 0.00249309 0)
(0.000280115 0.00263724 0)
(0.000264835 0.00277674 0)
(0.000224726 0.00289437 0)
(0.000184355 0.00298456 0)
(0.000163294 0.00305715 0)
(0.000162076 0.00312657 0)
(0.000167295 0.00319917 0)
(0.000166921 0.00327109 0)
(0.000158403 0.00333588 0)
(0.000144443 0.0033911 0)
(0.000126371 0.00343751 0)
(0.000103565 0.00347552 0)
(7.63935e-05 0.00350451 0)
(4.72024e-05 0.00352453 0)
(1.8996e-05 0.00353712 0)
(-5.47092e-06 0.00354467 0)
(-2.36901e-05 0.0035497 0)
(-3.32256e-05 0.00355465 0)
(-3.18694e-05 0.00356198 0)
(-1.80216e-05 0.00357434 0)
(8.75204e-06 0.00359472 0)
(4.68254e-05 0.00362658 0)
(9.16098e-05 0.00367327 0)
(0.00013554 0.00373672 0)
(0.000170002 0.00381564 0)
(0.000189383 0.00390458 0)
(0.000195299 0.00399577 0)
(0.000197513 0.0040835 0)
(0.000209587 0.00416818 0)
(0.000241716 0.00425643 0)
(0.000295939 0.00435716 0)
(0.000366322 0.00447694 0)
(0.000441748 0.00461841 0)
(0.000508063 0.00478055 0)
(0.000550094 0.00495757 0)
(0.000556351 0.00513699 0)
(0.000525202 0.00530229 0)
(0.000466241 0.00544007 0)
(0.00039404 0.00554552 0)
(0.000320083 0.00562175 0)
(0.000249628 0.00567424 0)
(0.000183783 0.00570649 0)
(0.000123469 0.00571992 0)
(7.05903e-05 0.00571626 0)
(2.73685e-05 0.00569875 0)
(-6.12504e-06 0.00567303 0)
(-3.32422e-05 0.00564208 0)
(-5.57865e-05 0.00560592 0)
(-7.36381e-05 0.00556513 0)
(-8.7099e-05 0.00552159 0)
(-9.7385e-05 0.00547665 0)
(-0.000105383 0.00543057 0)
(-0.000111368 0.00538371 0)
(-0.000115703 0.00533669 0)
(-0.00011895 0.00528989 0)
(-0.000121498 0.00524334 0)
(-0.000123533 0.00519707 0)
(-0.00012525 0.00515119 0)
(-0.00012685 0.00510568 0)
(-0.000128453 0.00506047 0)
(-0.000130113 0.00501548 0)
(-0.000131875 0.00497066 0)
(-0.000133772 0.00492595 0)
(-0.000135809 0.00488128 0)
(-0.000137979 0.00483658 0)
(-0.000140272 0.00479182 0)
(-0.000142678 0.00474696 0)
(-0.000145185 0.00470198 0)
(-0.000147785 0.00465686 0)
(-0.000150471 0.00461157 0)
(-0.000153245 0.00456612 0)
(-0.000156112 0.0045205 0)
(-0.000159082 0.0044747 0)
(-0.000162171 0.00442871 0)
(-0.000165399 0.00438253 0)
(-0.00016879 0.00433613 0)
(-0.000172374 0.0042895 0)
(-0.000176181 0.00424262 0)
(-0.000180248 0.00419546 0)
(-0.00018461 0.00414798 0)
(-0.000189309 0.00410015 0)
(-0.000194385 0.00405192 0)
(-0.000199884 0.00400323 0)
(-0.00020585 0.00395403 0)
(-0.000212331 0.00390426 0)
(-0.000219377 0.00385385 0)
(-0.000227038 0.00380272 0)
(-0.000235369 0.00375079 0)
(-0.000244425 0.003698 0)
(-0.000254265 0.00364424 0)
(-0.00026495 0.00358942 0)
(-0.000276546 0.00353345 0)
(-0.000289123 0.00347624 0)
(-0.000302753 0.00341767 0)
(-0.000317518 0.00335765 0)
(-0.000333501 0.00329605 0)
(-0.000350796 0.00323277 0)
(-0.000369503 0.00316768 0)
(-0.000389732 0.00310067 0)
(-0.000411603 0.00303162 0)
(-0.000435248 0.00296039 0)
(-0.000460815 0.00288686 0)
(-0.000488465 0.0028109 0)
(-0.000518382 0.00273237 0)
(-0.000550773 0.00265115 0)
(-0.000585873 0.00256711 0)
(-0.000623953 0.00248012 0)
(-0.000665333 0.00239005 0)
(-0.000710388 0.00229677 0)
(-0.000759555 0.00220011 0)
(-0.00081332 0.00209988 0)
(-0.000872251 0.00199585 0)
(-0.000937023 0.00188769 0)
(-0.00100841 0.00177496 0)
(-0.00108722 0.00165707 0)
(-0.00117424 0.00153325 0)
(-0.00127036 0.00140265 0)
(-0.00137657 0.00126437 0)
(-0.00149396 0.00111749 0)
(-0.00162333 0.000961096 0)
(-0.00176512 0.000794548 0)
(-0.001925 0.000617774 0)
(-0.0021051 0.000427886 0)
(-0.00230032 0.00022462 0)
(-0.00251576 8.98989e-06 0)
(-0.00275919 -0.000217428 0)
(-0.00303607 -0.000466699 0)
(-0.00334336 -0.000703534 0)
(-0.00370916 -0.00103802 0)
(-0.00405476 -0.00117181 0)
(-0.0045462 -0.00188763 0)
(-0.00447403 -0.00124748 0)
)
;
    }
    frontAndBack
    {
        type            empty;
    }
}


// ************************************************************************* //
