/*--------------------------------*- C++ -*----------------------------------*\
  =========                 |
  \\      /  F ield         | OpenFOAM: The Open Source CFD Toolbox
   \\    /   O peration     | Website:  https://openfoam.org
    \\  /    A nd           | Version:  7
     \\/     M anipulation  |
\*---------------------------------------------------------------------------*/
FoamFile
{
    version     2.0;
    format      ascii;
    class       volScalarField;
    location    "0.49";
    object      k;
}
// * * * * * * * * * * * * * * * * * * * * * * * * * * * * * * * * * * * * * //

dimensions      [0 2 -2 0 0 0 0];

internalField   nonuniform List<scalar> 
70000
(
1.08549e-05
4.21879e-06
2.82443e-06
2.31687e-06
1.99764e-06
1.75726e-06
1.56537e-06
1.40846e-06
1.27778e-06
1.16704e-06
1.07225e-06
9.90175e-07
9.18775e-07
8.56004e-07
8.00775e-07
7.51589e-07
7.07902e-07
6.68523e-07
6.33286e-07
6.01186e-07
5.72315e-07
5.45759e-07
5.21781e-07
4.99525e-07
4.79364e-07
4.60501e-07
4.43364e-07
4.27212e-07
4.125e-07
3.98549e-07
3.85811e-07
3.73681e-07
3.62554e-07
3.51976e-07
3.42139e-07
3.32951e-07
3.24095e-07
3.16226e-07
3.08056e-07
3.01501e-07
2.93692e-07
2.88935e-07
2.80795e-07
2.78482e-07
2.7021e-07
2.70828e-07
2.62584e-07
2.73449e-07
2.70927e-07
3.06175e-07
1.72795e-05
1.13673e-05
8.52074e-06
7.01058e-06
6.03759e-06
5.31122e-06
4.73201e-06
4.25813e-06
3.86343e-06
3.52898e-06
3.24271e-06
2.99482e-06
2.77918e-06
2.58957e-06
2.42273e-06
2.27411e-06
2.1421e-06
2.02308e-06
1.91658e-06
1.81954e-06
1.73226e-06
1.65197e-06
1.57948e-06
1.51218e-06
1.45121e-06
1.39416e-06
1.34234e-06
1.29347e-06
1.24898e-06
1.20675e-06
1.16823e-06
1.13151e-06
1.09785e-06
1.06584e-06
1.03606e-06
1.00827e-06
9.81445e-07
9.57641e-07
9.32905e-07
9.13054e-07
8.89409e-07
8.74841e-07
8.50398e-07
8.4194e-07
8.18174e-07
8.16083e-07
7.94576e-07
8.1321e-07
8.20872e-07
8.63261e-07
1.93701e-05
1.61297e-05
1.32913e-05
1.12898e-05
9.82904e-06
8.69638e-06
7.77909e-06
7.02112e-06
6.38518e-06
5.84355e-06
5.37832e-06
4.97425e-06
4.62189e-06
4.31131e-06
4.03756e-06
3.79316e-06
3.57579e-06
3.37943e-06
3.20356e-06
3.04308e-06
2.89866e-06
2.76561e-06
2.64543e-06
2.53372e-06
2.43251e-06
2.33764e-06
2.25149e-06
2.1701e-06
2.09608e-06
2.02565e-06
1.96151e-06
1.90019e-06
1.84409e-06
1.79059e-06
1.7409e-06
1.69443e-06
1.64964e-06
1.60975e-06
1.56852e-06
1.53506e-06
1.49586e-06
1.47038e-06
1.43071e-06
1.41408e-06
1.37579e-06
1.36729e-06
1.33367e-06
1.34546e-06
1.38892e-06
1.40691e-06
1.9861e-05
1.82599e-05
1.60859e-05
1.42003e-05
1.26406e-05
1.13489e-05
1.02616e-05
9.33893e-06
8.54826e-06
7.86454e-06
7.2709e-06
6.75061e-06
6.29361e-06
5.8881e-06
5.52874e-06
5.20607e-06
4.91786e-06
4.65627e-06
4.42131e-06
4.20609e-06
4.012e-06
3.8326e-06
3.6703e-06
3.51893e-06
3.3817e-06
3.25261e-06
3.1354e-06
3.02419e-06
2.92321e-06
2.82664e-06
2.73894e-06
2.65462e-06
2.57773e-06
2.50399e-06
2.43575e-06
2.37151e-06
2.31e-06
2.2545e-06
2.19812e-06
2.15095e-06
2.09803e-06
2.05983e-06
2.00814e-06
1.9808e-06
1.93019e-06
1.91253e-06
1.86815e-06
1.86596e-06
1.92866e-06
1.92742e-06
1.99707e-05
1.78457e-05
1.6075e-05
1.47663e-05
1.36028e-05
1.25375e-05
1.15698e-05
1.07017e-05
9.9216e-06
9.22536e-06
8.60652e-06
8.05293e-06
7.55871e-06
7.11363e-06
6.71437e-06
6.35137e-06
6.02418e-06
5.72431e-06
5.45331e-06
5.20313e-06
4.97647e-06
4.76552e-06
4.57404e-06
4.39426e-06
4.23101e-06
4.07632e-06
3.93589e-06
3.80158e-06
3.67991e-06
3.56249e-06
3.45632e-06
3.35321e-06
3.25974e-06
3.16908e-06
3.08588e-06
3.00632e-06
2.93138e-06
2.86185e-06
2.79361e-06
2.73328e-06
2.67031e-06
2.61889e-06
2.55984e-06
2.51755e-06
2.46211e-06
2.4299e-06
2.38399e-06
2.35319e-06
2.41356e-06
2.40326e-06
2.00095e-05
1.47038e-05
1.37477e-05
1.32105e-05
1.25912e-05
1.19267e-05
1.12779e-05
1.0657e-05
1.00809e-05
9.54607e-06
9.0468e-06
8.57945e-06
8.14755e-06
7.74628e-06
7.3767e-06
7.0322e-06
6.71616e-06
6.42123e-06
6.15162e-06
5.89901e-06
5.66807e-06
5.45027e-06
5.25132e-06
5.06219e-06
4.88991e-06
4.7245e-06
4.5743e-06
4.42871e-06
4.29725e-06
4.16852e-06
4.05281e-06
3.9386e-06
3.83599e-06
3.73452e-06
3.6428e-06
3.55263e-06
3.47007e-06
3.38987e-06
3.31525e-06
3.24378e-06
3.17627e-06
3.11236e-06
3.05172e-06
2.994e-06
2.94081e-06
2.88825e-06
2.85025e-06
2.79046e-06
2.83275e-06
2.82151e-06
2.01331e-05
1.54681e-05
9.63464e-06
9.39756e-06
9.49219e-06
9.49142e-06
9.43294e-06
9.29443e-06
9.05489e-06
8.78057e-06
8.48683e-06
8.18868e-06
7.89843e-06
7.61367e-06
7.3386e-06
7.07591e-06
6.83064e-06
6.59402e-06
6.37293e-06
6.15936e-06
5.96065e-06
5.76839e-06
5.59065e-06
5.4179e-06
5.25949e-06
5.10375e-06
4.96234e-06
4.82227e-06
4.69633e-06
4.57009e-06
4.45753e-06
4.34352e-06
4.2425e-06
4.13941e-06
4.0484e-06
3.955e-06
3.87293e-06
3.78791e-06
3.71416e-06
3.63611e-06
3.57049e-06
3.49787e-06
3.44081e-06
3.37189e-06
3.32429e-06
3.25726e-06
3.22273e-06
3.14764e-06
3.16828e-06
3.15356e-06
2.01713e-05
1.86764e-05
8.69409e-06
5.54016e-06
5.63012e-06
5.93361e-06
6.29191e-06
6.57664e-06
6.75689e-06
6.86517e-06
6.88517e-06
6.86567e-06
6.81421e-06
6.72435e-06
6.61507e-06
6.49159e-06
6.35528e-06
6.21122e-06
6.07057e-06
5.92589e-06
5.78742e-06
5.64732e-06
5.51555e-06
5.38285e-06
5.25938e-06
5.13565e-06
5.02388e-06
4.90889e-06
4.80599e-06
4.69871e-06
4.60404e-06
4.50409e-06
4.41724e-06
4.32418e-06
4.24473e-06
4.15795e-06
4.08571e-06
4.00439e-06
3.9393e-06
3.86231e-06
3.80469e-06
3.73101e-06
3.68128e-06
3.60996e-06
3.56825e-06
3.4988e-06
3.46505e-06
3.38705e-06
3.38976e-06
3.37121e-06
2.01671e-05
1.9724e-05
1.61687e-05
4.86338e-06
3.04248e-06
3.10541e-06
3.37401e-06
3.80343e-06
4.16954e-06
4.4868e-06
4.73463e-06
4.92335e-06
5.06469e-06
5.16367e-06
5.22273e-06
5.25771e-06
5.26098e-06
5.25182e-06
5.23013e-06
5.18855e-06
5.14238e-06
5.08406e-06
5.02566e-06
4.9578e-06
4.89295e-06
4.81912e-06
4.75058e-06
4.67387e-06
4.60536e-06
4.52914e-06
4.46269e-06
4.38814e-06
4.32486e-06
4.25234e-06
4.19293e-06
4.1226e-06
4.0676e-06
3.99926e-06
3.94928e-06
3.88318e-06
3.83869e-06
3.77403e-06
3.73473e-06
3.67133e-06
3.63683e-06
3.57501e-06
3.54471e-06
3.47575e-06
3.46813e-06
3.44461e-06
2.01476e-05
1.99343e-05
1.9066e-05
1.45009e-05
5.24723e-06
2.15531e-06
1.91461e-06
1.99358e-06
2.20679e-06
2.50478e-06
2.78095e-06
3.03308e-06
3.25835e-06
3.45387e-06
3.61783e-06
3.75474e-06
3.86644e-06
3.95293e-06
4.02494e-06
4.07476e-06
4.11414e-06
4.13558e-06
4.15157e-06
4.15214e-06
4.14899e-06
4.13889e-06
4.12629e-06
4.10273e-06
4.08192e-06
4.05127e-06
4.0248e-06
3.98919e-06
3.95943e-06
3.91982e-06
3.88902e-06
3.84647e-06
3.81571e-06
3.77112e-06
3.74105e-06
3.69447e-06
3.66535e-06
3.61762e-06
3.59024e-06
3.54201e-06
3.51635e-06
3.46812e-06
3.44381e-06
3.38958e-06
3.37771e-06
3.35363e-06
2.01216e-05
1.99661e-05
1.96426e-05
1.85472e-05
1.52155e-05
8.36641e-06
3.11017e-06
1.63392e-06
1.44268e-06
1.44944e-06
1.52616e-06
1.68647e-06
1.86883e-06
2.04462e-06
2.21498e-06
2.37257e-06
2.52013e-06
2.64908e-06
2.7678e-06
2.86898e-06
2.96093e-06
3.03676e-06
3.1052e-06
3.1598e-06
3.20816e-06
3.24509e-06
3.27902e-06
3.30195e-06
3.32296e-06
3.33517e-06
3.34557e-06
3.34994e-06
3.35094e-06
3.34892e-06
3.34524e-06
3.33619e-06
3.32937e-06
3.31462e-06
3.30544e-06
3.28646e-06
3.27544e-06
3.25317e-06
3.24052e-06
3.21527e-06
3.20134e-06
3.17345e-06
3.15816e-06
3.12389e-06
3.11225e-06
3.09298e-06
2.00981e-05
1.99327e-05
1.97575e-05
1.9353e-05
1.85074e-05
1.65398e-05
1.23357e-05
6.86961e-06
2.99345e-06
1.49488e-06
1.24359e-06
1.14772e-06
1.15177e-06
1.19396e-06
1.28632e-06
1.39186e-06
1.5048e-06
1.61279e-06
1.7231e-06
1.826e-06
1.92615e-06
2.01687e-06
2.10361e-06
2.18065e-06
2.25389e-06
2.31748e-06
2.37799e-06
2.4297e-06
2.47849e-06
2.5196e-06
2.55813e-06
2.58991e-06
2.61983e-06
2.64287e-06
2.66607e-06
2.68159e-06
2.69886e-06
2.70826e-06
2.72004e-06
2.72474e-06
2.73118e-06
2.73261e-06
2.73332e-06
2.73165e-06
2.72922e-06
2.7227e-06
2.71748e-06
2.70376e-06
2.69784e-06
2.68598e-06
2.00781e-05
1.98876e-05
1.97571e-05
1.94614e-05
1.91467e-05
1.86425e-05
1.75586e-05
1.54319e-05
1.17519e-05
7.45847e-06
3.99259e-06
1.91945e-06
1.21e-06
1.05754e-06
9.82511e-07
9.42328e-07
9.53323e-07
9.86492e-07
1.04885e-06
1.11135e-06
1.18047e-06
1.24874e-06
1.31925e-06
1.3874e-06
1.45598e-06
1.51961e-06
1.5827e-06
1.64028e-06
1.6969e-06
1.74788e-06
1.798e-06
1.84217e-06
1.88592e-06
1.92336e-06
1.96105e-06
1.99221e-06
2.02416e-06
2.04973e-06
2.07616e-06
2.0968e-06
2.11803e-06
2.13391e-06
2.15073e-06
2.16146e-06
2.17425e-06
2.17994e-06
2.18816e-06
2.18861e-06
2.1894e-06
2.18625e-06
2.00614e-05
1.98539e-05
1.97345e-05
1.94717e-05
1.9256e-05
1.90479e-05
1.87372e-05
1.81929e-05
1.71016e-05
1.52403e-05
1.25795e-05
9.25113e-06
5.9891e-06
3.49157e-06
1.88952e-06
1.17088e-06
9.6549e-07
8.91147e-07
8.37025e-07
7.96004e-07
7.97478e-07
8.10417e-07
8.39582e-07
8.77117e-07
9.16994e-07
9.5793e-07
1.0021e-06
1.0451e-06
1.09055e-06
1.13381e-06
1.17833e-06
1.21944e-06
1.26132e-06
1.29939e-06
1.3382e-06
1.37267e-06
1.40818e-06
1.43895e-06
1.47077e-06
1.49784e-06
1.52587e-06
1.54879e-06
1.57335e-06
1.59195e-06
1.61239e-06
1.62678e-06
1.64258e-06
1.65188e-06
1.66131e-06
1.66527e-06
2.00475e-05
1.98304e-05
1.97079e-05
1.94496e-05
1.92729e-05
1.91158e-05
1.89663e-05
1.87515e-05
1.8464e-05
1.79152e-05
1.70824e-05
1.5709e-05
1.38951e-05
1.15503e-05
8.87583e-06
6.26923e-06
4.09631e-06
2.52055e-06
1.51701e-06
1.03601e-06
8.6455e-07
7.9992e-07
7.52034e-07
7.11497e-07
6.81778e-07
6.77415e-07
6.8283e-07
6.95983e-07
7.17659e-07
7.40084e-07
7.64994e-07
7.89466e-07
8.16651e-07
8.43157e-07
8.71683e-07
8.98601e-07
9.2745e-07
9.53563e-07
9.81195e-07
1.00584e-06
1.0316e-06
1.05394e-06
1.07786e-06
1.09764e-06
1.11861e-06
1.13564e-06
1.15319e-06
1.16637e-06
1.17856e-06
1.18712e-06
2.00362e-05
1.98125e-05
1.96854e-05
1.94193e-05
1.92589e-05
1.91095e-05
1.90012e-05
1.88502e-05
1.87132e-05
1.85018e-05
1.82495e-05
1.78352e-05
1.72361e-05
1.63683e-05
1.51717e-05
1.36406e-05
1.18383e-05
9.76065e-06
7.62202e-06
5.62691e-06
3.94616e-06
2.66445e-06
1.74336e-06
1.17286e-06
8.8787e-07
7.67877e-07
7.13244e-07
6.75816e-07
6.40841e-07
6.10414e-07
5.89922e-07
5.80701e-07
5.82185e-07
5.87155e-07
5.97464e-07
6.09365e-07
6.2356e-07
6.36818e-07
6.51941e-07
6.66248e-07
6.82216e-07
6.97253e-07
7.13735e-07
7.28719e-07
7.44329e-07
7.58507e-07
7.72567e-07
7.84494e-07
7.95119e-07
8.03757e-07
2.00271e-05
1.97986e-05
1.96662e-05
1.93974e-05
1.92333e-05
1.90821e-05
1.89832e-05
1.88536e-05
1.87373e-05
1.85972e-05
1.84608e-05
1.82903e-05
1.80822e-05
1.77962e-05
1.74116e-05
1.68696e-05
1.61646e-05
1.52469e-05
1.41117e-05
1.2776e-05
1.12849e-05
9.63409e-06
7.93453e-06
6.30349e-06
4.82367e-06
3.58182e-06
2.59633e-06
1.83914e-06
1.30019e-06
9.63389e-07
7.80563e-07
6.89777e-07
6.42629e-07
6.10843e-07
5.83943e-07
5.57472e-07
5.34523e-07
5.16265e-07
5.05253e-07
4.99283e-07
4.99661e-07
5.0163e-07
5.0589e-07
5.11769e-07
5.17629e-07
5.24499e-07
5.30195e-07
5.36378e-07
5.4075e-07
5.45683e-07
2.002e-05
1.97901e-05
1.96461e-05
1.93811e-05
1.92093e-05
1.90532e-05
1.89451e-05
1.88274e-05
1.87156e-05
1.85906e-05
1.84723e-05
1.8346e-05
1.82214e-05
1.80782e-05
1.79217e-05
1.77229e-05
1.74798e-05
1.71619e-05
1.67597e-05
1.62407e-05
1.56092e-05
1.4837e-05
1.39294e-05
1.28852e-05
1.1743e-05
1.0507e-05
9.19023e-06
7.8565e-06
6.55691e-06
5.35052e-06
4.26185e-06
3.33847e-06
2.57791e-06
1.96098e-06
1.478e-06
1.12302e-06
8.83278e-07
7.34993e-07
6.48551e-07
5.98405e-07
5.66847e-07
5.43533e-07
5.23047e-07
5.04987e-07
4.8645e-07
4.71615e-07
4.56599e-07
4.47852e-07
4.37761e-07
4.35178e-07
2.00144e-05
1.97901e-05
1.96198e-05
1.93678e-05
1.91888e-05
1.90266e-05
1.89092e-05
1.87914e-05
1.86755e-05
1.85551e-05
1.84416e-05
1.83244e-05
1.82116e-05
1.80931e-05
1.79788e-05
1.78572e-05
1.77326e-05
1.75905e-05
1.7432e-05
1.72393e-05
1.70106e-05
1.67296e-05
1.63909e-05
1.59783e-05
1.54904e-05
1.49198e-05
1.42647e-05
1.35182e-05
1.26969e-05
1.17994e-05
1.086e-05
9.86855e-06
8.83955e-06
7.80646e-06
6.79607e-06
5.83394e-06
4.94168e-06
4.13396e-06
3.4217e-06
2.81661e-06
2.30394e-06
1.8757e-06
1.52449e-06
1.24575e-06
1.0328e-06
8.78468e-07
7.68743e-07
6.99269e-07
6.4769e-07
6.26004e-07
2.00102e-05
1.97941e-05
1.9593e-05
1.93541e-05
1.91701e-05
1.90013e-05
1.88758e-05
1.87558e-05
1.86356e-05
1.85126e-05
1.83956e-05
1.82785e-05
1.81665e-05
1.80549e-05
1.79462e-05
1.78378e-05
1.77299e-05
1.76216e-05
1.75146e-05
1.74035e-05
1.7287e-05
1.71608e-05
1.70206e-05
1.68595e-05
1.66739e-05
1.64574e-05
1.62068e-05
1.59137e-05
1.55754e-05
1.51885e-05
1.47492e-05
1.42623e-05
1.3719e-05
1.31272e-05
1.24859e-05
1.18079e-05
1.10939e-05
1.03609e-05
9.61151e-06
8.84906e-06
8.08393e-06
7.33942e-06
6.62066e-06
5.94845e-06
5.32195e-06
4.76708e-06
4.26791e-06
3.86003e-06
3.50132e-06
3.23218e-06
2.0007e-05
1.98017e-05
1.95683e-05
1.93408e-05
1.91526e-05
1.89775e-05
1.8844e-05
1.87216e-05
1.85968e-05
1.84712e-05
1.83491e-05
1.82303e-05
1.8114e-05
1.80007e-05
1.78893e-05
1.77816e-05
1.76766e-05
1.75748e-05
1.74744e-05
1.73768e-05
1.72774e-05
1.71812e-05
1.70833e-05
1.69854e-05
1.68825e-05
1.67765e-05
1.66615e-05
1.65378e-05
1.63976e-05
1.62459e-05
1.60701e-05
1.58793e-05
1.56594e-05
1.5418e-05
1.51443e-05
1.48479e-05
1.4515e-05
1.41587e-05
1.37694e-05
1.33607e-05
1.29167e-05
1.24599e-05
1.19777e-05
1.14925e-05
1.09917e-05
1.05077e-05
1.00213e-05
9.57213e-06
9.14118e-06
8.75883e-06
2.00047e-05
1.98103e-05
1.95453e-05
1.93277e-05
1.91357e-05
1.89553e-05
1.88134e-05
1.86887e-05
1.85596e-05
1.84314e-05
1.83043e-05
1.81828e-05
1.80623e-05
1.79465e-05
1.78311e-05
1.77216e-05
1.76118e-05
1.75082e-05
1.74053e-05
1.73077e-05
1.72095e-05
1.71195e-05
1.70273e-05
1.69394e-05
1.68493e-05
1.6763e-05
1.66739e-05
1.65881e-05
1.64975e-05
1.64114e-05
1.6316e-05
1.62241e-05
1.6121e-05
1.60156e-05
1.58976e-05
1.57777e-05
1.56383e-05
1.54937e-05
1.5332e-05
1.51647e-05
1.49736e-05
1.47767e-05
1.45611e-05
1.43376e-05
1.40953e-05
1.38529e-05
1.35951e-05
1.33395e-05
1.3086e-05
1.28398e-05
2.0003e-05
1.98193e-05
1.95239e-05
1.9314e-05
1.9119e-05
1.89347e-05
1.87843e-05
1.86568e-05
1.85241e-05
1.83933e-05
1.82616e-05
1.81373e-05
1.80128e-05
1.78943e-05
1.77747e-05
1.76629e-05
1.75492e-05
1.74429e-05
1.73367e-05
1.72367e-05
1.71341e-05
1.70416e-05
1.69462e-05
1.68566e-05
1.67653e-05
1.66806e-05
1.65964e-05
1.6516e-05
1.64325e-05
1.63571e-05
1.62752e-05
1.62022e-05
1.61222e-05
1.60466e-05
1.59687e-05
1.58977e-05
1.58166e-05
1.57399e-05
1.56592e-05
1.55811e-05
1.54915e-05
1.54042e-05
1.53101e-05
1.52147e-05
1.51083e-05
1.50049e-05
1.48901e-05
1.4773e-05
1.46546e-05
1.45343e-05
2.00017e-05
1.98277e-05
1.95045e-05
1.92994e-05
1.9102e-05
1.89153e-05
1.87569e-05
1.86261e-05
1.84904e-05
1.83571e-05
1.82215e-05
1.80942e-05
1.79662e-05
1.78448e-05
1.77215e-05
1.76072e-05
1.74899e-05
1.73809e-05
1.72718e-05
1.7169e-05
1.70632e-05
1.69683e-05
1.68698e-05
1.67768e-05
1.66828e-05
1.65938e-05
1.65061e-05
1.64219e-05
1.63358e-05
1.6258e-05
1.61753e-05
1.61027e-05
1.60272e-05
1.59556e-05
1.5884e-05
1.5821e-05
1.57488e-05
1.56848e-05
1.56201e-05
1.55608e-05
1.54927e-05
1.5433e-05
1.53705e-05
1.53133e-05
1.52483e-05
1.51911e-05
1.51266e-05
1.5063e-05
1.49961e-05
1.49311e-05
2.00009e-05
1.98305e-05
1.94884e-05
1.92843e-05
1.90851e-05
1.88978e-05
1.87316e-05
1.85971e-05
1.84591e-05
1.83235e-05
1.81846e-05
1.80542e-05
1.79233e-05
1.77989e-05
1.76724e-05
1.75554e-05
1.74349e-05
1.73234e-05
1.72117e-05
1.71061e-05
1.69977e-05
1.69006e-05
1.67995e-05
1.67037e-05
1.66072e-05
1.6515e-05
1.64247e-05
1.63371e-05
1.62477e-05
1.61666e-05
1.60804e-05
1.6004e-05
1.59239e-05
1.5848e-05
1.5774e-05
1.57081e-05
1.56332e-05
1.55681e-05
1.55038e-05
1.54461e-05
1.53812e-05
1.5327e-05
1.52684e-05
1.52181e-05
1.516e-05
1.51107e-05
1.50557e-05
1.50037e-05
1.49458e-05
1.48945e-05
2.00003e-05
1.98289e-05
1.94752e-05
1.92685e-05
1.9068e-05
1.88822e-05
1.87087e-05
1.857e-05
1.84303e-05
1.82927e-05
1.81511e-05
1.80179e-05
1.78845e-05
1.77573e-05
1.76281e-05
1.75087e-05
1.73853e-05
1.72715e-05
1.71573e-05
1.70493e-05
1.69387e-05
1.68395e-05
1.6736e-05
1.6638e-05
1.65391e-05
1.64447e-05
1.63518e-05
1.6262e-05
1.61699e-05
1.60862e-05
1.59971e-05
1.59182e-05
1.58343e-05
1.57556e-05
1.56786e-05
1.56094e-05
1.55303e-05
1.54631e-05
1.53948e-05
1.53338e-05
1.52644e-05
1.52081e-05
1.51456e-05
1.5093e-05
1.50335e-05
1.49824e-05
1.49258e-05
1.4874e-05
1.48143e-05
1.47642e-05
2e-05
1.98271e-05
1.94641e-05
1.92511e-05
1.90503e-05
1.8868e-05
1.86883e-05
1.85452e-05
1.84041e-05
1.82651e-05
1.81213e-05
1.79858e-05
1.78502e-05
1.77208e-05
1.75891e-05
1.74676e-05
1.73418e-05
1.72262e-05
1.71096e-05
1.69996e-05
1.68872e-05
1.67863e-05
1.66805e-05
1.65809e-05
1.64796e-05
1.63837e-05
1.62882e-05
1.61966e-05
1.61025e-05
1.60165e-05
1.59252e-05
1.58443e-05
1.57573e-05
1.56772e-05
1.55979e-05
1.55256e-05
1.5444e-05
1.53752e-05
1.53038e-05
1.52401e-05
1.51683e-05
1.51098e-05
1.5044e-05
1.49883e-05
1.49266e-05
1.48729e-05
1.48125e-05
1.47585e-05
1.46957e-05
1.46426e-05
1.99999e-05
1.98259e-05
1.94559e-05
1.92333e-05
1.90325e-05
1.88556e-05
1.86707e-05
1.85232e-05
1.8381e-05
1.82413e-05
1.80958e-05
1.79586e-05
1.7821e-05
1.769e-05
1.75563e-05
1.74331e-05
1.73054e-05
1.71883e-05
1.70695e-05
1.69583e-05
1.68444e-05
1.67419e-05
1.66341e-05
1.65336e-05
1.643e-05
1.63332e-05
1.62351e-05
1.61421e-05
1.60464e-05
1.59584e-05
1.58654e-05
1.57825e-05
1.5693e-05
1.56122e-05
1.55307e-05
1.54558e-05
1.53729e-05
1.53029e-05
1.52289e-05
1.51633e-05
1.50905e-05
1.50301e-05
1.49622e-05
1.49045e-05
1.48411e-05
1.47857e-05
1.47221e-05
1.46664e-05
1.46013e-05
1.45453e-05
1.99999e-05
1.98251e-05
1.94507e-05
1.92162e-05
1.90156e-05
1.88452e-05
1.86568e-05
1.85049e-05
1.83617e-05
1.82218e-05
1.80753e-05
1.79369e-05
1.77976e-05
1.76656e-05
1.75304e-05
1.74058e-05
1.72768e-05
1.71587e-05
1.7038e-05
1.69262e-05
1.68113e-05
1.67076e-05
1.6598e-05
1.64972e-05
1.63914e-05
1.62943e-05
1.61938e-05
1.60999e-05
1.60029e-05
1.59129e-05
1.58188e-05
1.57339e-05
1.56424e-05
1.55613e-05
1.54775e-05
1.54006e-05
1.53171e-05
1.5246e-05
1.51698e-05
1.51028e-05
1.50296e-05
1.49677e-05
1.48981e-05
1.48393e-05
1.47746e-05
1.47178e-05
1.46521e-05
1.4595e-05
1.45282e-05
1.44697e-05
1.99999e-05
1.98248e-05
1.94483e-05
1.92006e-05
1.90002e-05
1.88369e-05
1.86468e-05
1.84909e-05
1.83467e-05
1.82071e-05
1.80604e-05
1.79213e-05
1.77808e-05
1.76483e-05
1.75121e-05
1.73867e-05
1.72569e-05
1.71382e-05
1.70161e-05
1.69042e-05
1.67887e-05
1.66841e-05
1.65734e-05
1.64726e-05
1.63652e-05
1.6268e-05
1.61654e-05
1.60712e-05
1.59731e-05
1.58815e-05
1.57866e-05
1.56999e-05
1.5607e-05
1.55255e-05
1.54397e-05
1.53612e-05
1.52774e-05
1.52052e-05
1.51271e-05
1.50594e-05
1.49859e-05
1.49226e-05
1.48517e-05
1.47925e-05
1.47265e-05
1.46685e-05
1.46011e-05
1.45431e-05
1.44746e-05
1.44141e-05
1.99999e-05
1.98249e-05
1.94484e-05
1.91873e-05
1.89868e-05
1.88303e-05
1.8641e-05
1.84816e-05
1.83362e-05
1.81975e-05
1.80513e-05
1.79121e-05
1.77709e-05
1.76385e-05
1.75018e-05
1.73762e-05
1.72463e-05
1.71272e-05
1.70044e-05
1.68931e-05
1.67772e-05
1.66724e-05
1.65611e-05
1.64608e-05
1.63522e-05
1.62555e-05
1.61512e-05
1.60572e-05
1.59579e-05
1.58653e-05
1.57699e-05
1.56817e-05
1.55878e-05
1.55061e-05
1.54185e-05
1.5339e-05
1.5255e-05
1.51818e-05
1.51022e-05
1.50343e-05
1.49602e-05
1.48958e-05
1.48239e-05
1.47647e-05
1.46974e-05
1.46383e-05
1.45696e-05
1.45109e-05
1.44407e-05
1.43782e-05
1.99999e-05
1.98254e-05
1.94508e-05
1.91768e-05
1.89756e-05
1.88251e-05
1.86394e-05
1.84771e-05
1.83305e-05
1.81932e-05
1.80483e-05
1.79095e-05
1.77684e-05
1.76366e-05
1.75001e-05
1.73749e-05
1.72452e-05
1.71264e-05
1.70038e-05
1.68933e-05
1.67777e-05
1.66731e-05
1.65619e-05
1.64621e-05
1.63531e-05
1.62569e-05
1.61519e-05
1.60583e-05
1.59581e-05
1.58653e-05
1.57695e-05
1.56803e-05
1.5586e-05
1.5504e-05
1.5415e-05
1.53351e-05
1.52509e-05
1.51768e-05
1.50962e-05
1.50284e-05
1.49537e-05
1.48884e-05
1.4816e-05
1.47568e-05
1.46882e-05
1.46281e-05
1.45584e-05
1.44989e-05
1.44268e-05
1.43625e-05
1.99999e-05
1.98265e-05
1.94557e-05
1.91698e-05
1.8967e-05
1.88216e-05
1.86416e-05
1.84774e-05
1.83296e-05
1.81941e-05
1.8051e-05
1.79131e-05
1.77726e-05
1.76418e-05
1.75057e-05
1.73815e-05
1.72523e-05
1.71341e-05
1.70119e-05
1.69028e-05
1.67877e-05
1.66837e-05
1.65734e-05
1.64743e-05
1.63657e-05
1.62701e-05
1.61651e-05
1.60721e-05
1.59712e-05
1.58786e-05
1.57825e-05
1.56928e-05
1.55985e-05
1.55163e-05
1.54265e-05
1.53467e-05
1.52623e-05
1.51878e-05
1.51068e-05
1.50393e-05
1.4964e-05
1.48983e-05
1.48258e-05
1.47666e-05
1.46968e-05
1.46361e-05
1.45656e-05
1.45054e-05
1.44316e-05
1.43656e-05
1.99999e-05
1.98279e-05
1.94625e-05
1.91663e-05
1.89612e-05
1.88191e-05
1.86475e-05
1.84822e-05
1.83329e-05
1.81994e-05
1.80587e-05
1.79225e-05
1.77833e-05
1.7654e-05
1.75191e-05
1.73966e-05
1.72686e-05
1.71516e-05
1.70309e-05
1.69237e-05
1.68098e-05
1.67073e-05
1.65986e-05
1.65005e-05
1.63933e-05
1.62987e-05
1.61946e-05
1.61023e-05
1.60011e-05
1.59094e-05
1.58131e-05
1.57234e-05
1.56294e-05
1.5547e-05
1.54566e-05
1.53772e-05
1.52927e-05
1.52177e-05
1.51368e-05
1.50696e-05
1.49935e-05
1.49277e-05
1.48556e-05
1.47964e-05
1.47253e-05
1.46643e-05
1.45933e-05
1.45322e-05
1.44564e-05
1.43887e-05
1.99999e-05
1.98299e-05
1.9471e-05
1.91667e-05
1.89581e-05
1.88184e-05
1.86562e-05
1.84916e-05
1.83411e-05
1.82098e-05
1.80718e-05
1.7938e-05
1.78007e-05
1.76731e-05
1.754e-05
1.74196e-05
1.7293e-05
1.7178e-05
1.70592e-05
1.69541e-05
1.6842e-05
1.67416e-05
1.6635e-05
1.6538e-05
1.64332e-05
1.63396e-05
1.62375e-05
1.61458e-05
1.60452e-05
1.5955e-05
1.58587e-05
1.57698e-05
1.56766e-05
1.55942e-05
1.55039e-05
1.54253e-05
1.53407e-05
1.5266e-05
1.51858e-05
1.51188e-05
1.50419e-05
1.4977e-05
1.49055e-05
1.48459e-05
1.47738e-05
1.47132e-05
1.46417e-05
1.45795e-05
1.45017e-05
1.44324e-05
1.99999e-05
1.98324e-05
1.94809e-05
1.91706e-05
1.89579e-05
1.88192e-05
1.86672e-05
1.85046e-05
1.83534e-05
1.82243e-05
1.8089e-05
1.79584e-05
1.78234e-05
1.76979e-05
1.75672e-05
1.74491e-05
1.73243e-05
1.72118e-05
1.70955e-05
1.69927e-05
1.68829e-05
1.67853e-05
1.66811e-05
1.65857e-05
1.64841e-05
1.63918e-05
1.62921e-05
1.62011e-05
1.61018e-05
1.60134e-05
1.59173e-05
1.58298e-05
1.57378e-05
1.56555e-05
1.55658e-05
1.54884e-05
1.54038e-05
1.53299e-05
1.52507e-05
1.51836e-05
1.51065e-05
1.5043e-05
1.49721e-05
1.4912e-05
1.48394e-05
1.47795e-05
1.47074e-05
1.4644e-05
1.45643e-05
1.44938e-05
1.99999e-05
1.98353e-05
1.94914e-05
1.91785e-05
1.89607e-05
1.8822e-05
1.868e-05
1.85209e-05
1.83697e-05
1.82424e-05
1.81099e-05
1.7983e-05
1.78506e-05
1.77275e-05
1.75995e-05
1.74841e-05
1.73613e-05
1.7252e-05
1.71383e-05
1.70382e-05
1.69313e-05
1.68368e-05
1.67353e-05
1.66422e-05
1.65443e-05
1.64537e-05
1.63568e-05
1.62667e-05
1.61693e-05
1.60831e-05
1.59873e-05
1.59019e-05
1.58113e-05
1.57293e-05
1.56408e-05
1.55647e-05
1.54801e-05
1.54076e-05
1.53296e-05
1.52623e-05
1.51856e-05
1.51241e-05
1.50534e-05
1.49927e-05
1.49203e-05
1.48614e-05
1.47884e-05
1.47237e-05
1.46425e-05
1.45709e-05
1.99999e-05
1.98385e-05
1.95026e-05
1.91894e-05
1.89665e-05
1.88271e-05
1.8694e-05
1.85401e-05
1.83896e-05
1.82637e-05
1.8134e-05
1.80112e-05
1.78816e-05
1.77611e-05
1.76363e-05
1.75235e-05
1.74031e-05
1.72973e-05
1.71864e-05
1.70893e-05
1.69857e-05
1.68948e-05
1.6796e-05
1.67061e-05
1.6612e-05
1.65237e-05
1.64295e-05
1.6341e-05
1.6246e-05
1.61621e-05
1.60669e-05
1.59841e-05
1.58949e-05
1.58135e-05
1.57267e-05
1.56519e-05
1.55677e-05
1.5497e-05
1.54201e-05
1.53526e-05
1.5277e-05
1.52176e-05
1.51468e-05
1.50859e-05
1.50143e-05
1.49563e-05
1.48821e-05
1.48165e-05
1.4734e-05
1.46616e-05
1.99999e-05
1.98419e-05
1.95141e-05
1.9203e-05
1.89752e-05
1.88345e-05
1.87086e-05
1.85614e-05
1.84126e-05
1.82877e-05
1.81608e-05
1.80423e-05
1.79155e-05
1.7798e-05
1.76763e-05
1.75663e-05
1.74487e-05
1.73466e-05
1.72384e-05
1.71448e-05
1.70447e-05
1.69577e-05
1.68617e-05
1.67759e-05
1.66853e-05
1.66e-05
1.65082e-05
1.64223e-05
1.63299e-05
1.62483e-05
1.61543e-05
1.60743e-05
1.59865e-05
1.59061e-05
1.58215e-05
1.57478e-05
1.56645e-05
1.55959e-05
1.55195e-05
1.54524e-05
1.53787e-05
1.53208e-05
1.52496e-05
1.51894e-05
1.5119e-05
1.50614e-05
1.4986e-05
1.49199e-05
1.48364e-05
1.47634e-05
1.99999e-05
1.98456e-05
1.95258e-05
1.92187e-05
1.89867e-05
1.88443e-05
1.87237e-05
1.85844e-05
1.84381e-05
1.8314e-05
1.81897e-05
1.80754e-05
1.79516e-05
1.78373e-05
1.77188e-05
1.76115e-05
1.74969e-05
1.73985e-05
1.72931e-05
1.72034e-05
1.71069e-05
1.70238e-05
1.69308e-05
1.68501e-05
1.67625e-05
1.66809e-05
1.65913e-05
1.65088e-05
1.64189e-05
1.63396e-05
1.62476e-05
1.61706e-05
1.60837e-05
1.60052e-05
1.59228e-05
1.585e-05
1.57683e-05
1.57017e-05
1.56254e-05
1.55596e-05
1.54882e-05
1.5431e-05
1.53595e-05
1.53009e-05
1.52317e-05
1.5174e-05
1.50975e-05
1.50313e-05
1.49472e-05
1.48736e-05
1.99999e-05
1.98493e-05
1.95375e-05
1.92359e-05
1.90007e-05
1.88563e-05
1.87391e-05
1.86086e-05
1.84654e-05
1.83421e-05
1.82206e-05
1.81099e-05
1.79891e-05
1.78785e-05
1.7763e-05
1.76584e-05
1.75471e-05
1.74519e-05
1.73494e-05
1.72641e-05
1.71709e-05
1.70918e-05
1.70022e-05
1.69271e-05
1.68421e-05
1.67647e-05
1.66772e-05
1.65988e-05
1.65114e-05
1.64343e-05
1.63451e-05
1.62708e-05
1.61847e-05
1.61089e-05
1.60284e-05
1.59566e-05
1.5877e-05
1.5812e-05
1.57357e-05
1.56721e-05
1.56028e-05
1.55455e-05
1.54743e-05
1.54181e-05
1.53497e-05
1.52914e-05
1.52142e-05
1.51485e-05
1.50639e-05
1.49896e-05
1.99999e-05
1.98531e-05
1.95493e-05
1.92542e-05
1.9017e-05
1.88704e-05
1.8755e-05
1.86335e-05
1.84941e-05
1.83717e-05
1.82529e-05
1.81452e-05
1.80276e-05
1.79209e-05
1.7808e-05
1.77063e-05
1.75981e-05
1.7506e-05
1.74064e-05
1.73257e-05
1.72356e-05
1.71605e-05
1.70748e-05
1.70055e-05
1.69226e-05
1.685e-05
1.67648e-05
1.66907e-05
1.66057e-05
1.65306e-05
1.64453e-05
1.63729e-05
1.62879e-05
1.62156e-05
1.61362e-05
1.60657e-05
1.59887e-05
1.59243e-05
1.58486e-05
1.57881e-05
1.57199e-05
1.56621e-05
1.55923e-05
1.55388e-05
1.54704e-05
1.54115e-05
1.53342e-05
1.52693e-05
1.51841e-05
1.51086e-05
1.99999e-05
1.98569e-05
1.95609e-05
1.92732e-05
1.90352e-05
1.88864e-05
1.87715e-05
1.86586e-05
1.85233e-05
1.84026e-05
1.82862e-05
1.81808e-05
1.80667e-05
1.79639e-05
1.78532e-05
1.77544e-05
1.76494e-05
1.75598e-05
1.74635e-05
1.73872e-05
1.72999e-05
1.72289e-05
1.71476e-05
1.70839e-05
1.70028e-05
1.69354e-05
1.68528e-05
1.67831e-05
1.67003e-05
1.66275e-05
1.65466e-05
1.64753e-05
1.63919e-05
1.63234e-05
1.62444e-05
1.6176e-05
1.61014e-05
1.6037e-05
1.59628e-05
1.59054e-05
1.58371e-05
1.57792e-05
1.5712e-05
1.56606e-05
1.55915e-05
1.55324e-05
1.54557e-05
1.53916e-05
1.53054e-05
1.52285e-05
1.99999e-05
1.98606e-05
1.95723e-05
1.92923e-05
1.90547e-05
1.8904e-05
1.87888e-05
1.86835e-05
1.85527e-05
1.84345e-05
1.832e-05
1.82164e-05
1.81059e-05
1.8007e-05
1.78984e-05
1.78024e-05
1.77e-05
1.76129e-05
1.75199e-05
1.74476e-05
1.73628e-05
1.72964e-05
1.72197e-05
1.71608e-05
1.70821e-05
1.70199e-05
1.69402e-05
1.68746e-05
1.6794e-05
1.67241e-05
1.66473e-05
1.65767e-05
1.64958e-05
1.64306e-05
1.63517e-05
1.62861e-05
1.62133e-05
1.61487e-05
1.60769e-05
1.60218e-05
1.59526e-05
1.58958e-05
1.58316e-05
1.57812e-05
1.5711e-05
1.56527e-05
1.55771e-05
1.55134e-05
1.5426e-05
1.53479e-05
1.99999e-05
1.98642e-05
1.95835e-05
1.93112e-05
1.90753e-05
1.8923e-05
1.88071e-05
1.87078e-05
1.85819e-05
1.84672e-05
1.83539e-05
1.82518e-05
1.81451e-05
1.80496e-05
1.79432e-05
1.78498e-05
1.77494e-05
1.76647e-05
1.75751e-05
1.75061e-05
1.74239e-05
1.73623e-05
1.72902e-05
1.72354e-05
1.71599e-05
1.71028e-05
1.70262e-05
1.69643e-05
1.6886e-05
1.68196e-05
1.67461e-05
1.66763e-05
1.65988e-05
1.65359e-05
1.64573e-05
1.63948e-05
1.63228e-05
1.62587e-05
1.61898e-05
1.61354e-05
1.60655e-05
1.60112e-05
1.59495e-05
1.58986e-05
1.58281e-05
1.57714e-05
1.56966e-05
1.5633e-05
1.55445e-05
1.54658e-05
1.99999e-05
1.98677e-05
1.95941e-05
1.93299e-05
1.90965e-05
1.89431e-05
1.88262e-05
1.87314e-05
1.86108e-05
1.85003e-05
1.83876e-05
1.82871e-05
1.81842e-05
1.80915e-05
1.79873e-05
1.78962e-05
1.77972e-05
1.77151e-05
1.76285e-05
1.75621e-05
1.74828e-05
1.74263e-05
1.73583e-05
1.7307e-05
1.72359e-05
1.71833e-05
1.711e-05
1.70514e-05
1.69756e-05
1.69135e-05
1.68416e-05
1.67738e-05
1.66998e-05
1.66379e-05
1.65607e-05
1.6501e-05
1.6429e-05
1.63666e-05
1.62997e-05
1.62447e-05
1.61755e-05
1.61245e-05
1.60636e-05
1.60118e-05
1.59421e-05
1.58874e-05
1.5813e-05
1.57494e-05
1.56601e-05
1.55818e-05
1.99999e-05
1.98711e-05
1.96042e-05
1.93481e-05
1.91179e-05
1.89641e-05
1.88461e-05
1.87541e-05
1.86394e-05
1.85333e-05
1.84207e-05
1.83225e-05
1.82227e-05
1.81324e-05
1.80308e-05
1.79412e-05
1.78434e-05
1.77639e-05
1.76796e-05
1.76152e-05
1.75395e-05
1.74879e-05
1.74233e-05
1.73756e-05
1.73096e-05
1.72608e-05
1.71908e-05
1.71355e-05
1.70627e-05
1.7005e-05
1.69333e-05
1.68692e-05
1.67979e-05
1.67361e-05
1.66616e-05
1.66037e-05
1.65314e-05
1.64718e-05
1.64054e-05
1.63492e-05
1.62826e-05
1.62345e-05
1.61725e-05
1.61203e-05
1.60527e-05
1.59998e-05
1.59252e-05
1.58617e-05
1.57724e-05
1.56955e-05
1.99999e-05
1.98744e-05
1.96138e-05
1.93657e-05
1.91393e-05
1.89857e-05
1.88666e-05
1.87763e-05
1.86676e-05
1.85658e-05
1.84535e-05
1.83581e-05
1.82606e-05
1.81723e-05
1.80733e-05
1.79847e-05
1.78878e-05
1.78109e-05
1.77279e-05
1.76654e-05
1.75937e-05
1.75465e-05
1.74847e-05
1.74412e-05
1.73808e-05
1.7335e-05
1.72684e-05
1.72165e-05
1.71471e-05
1.70933e-05
1.7021e-05
1.69622e-05
1.68921e-05
1.68306e-05
1.67596e-05
1.6702e-05
1.66301e-05
1.65734e-05
1.65058e-05
1.64494e-05
1.63867e-05
1.63396e-05
1.62755e-05
1.62245e-05
1.61597e-05
1.61075e-05
1.60325e-05
1.59699e-05
1.58814e-05
1.58057e-05
1.99999e-05
1.98774e-05
1.96228e-05
1.93826e-05
1.91604e-05
1.90074e-05
1.88872e-05
1.87983e-05
1.86953e-05
1.85975e-05
1.8486e-05
1.83937e-05
1.82976e-05
1.82112e-05
1.81148e-05
1.80266e-05
1.79307e-05
1.78557e-05
1.77733e-05
1.7713e-05
1.76454e-05
1.76017e-05
1.75424e-05
1.75042e-05
1.74488e-05
1.74055e-05
1.73424e-05
1.72943e-05
1.72285e-05
1.71776e-05
1.71052e-05
1.70524e-05
1.69818e-05
1.69218e-05
1.68542e-05
1.67957e-05
1.67252e-05
1.66704e-05
1.66005e-05
1.6546e-05
1.64867e-05
1.64383e-05
1.63729e-05
1.63248e-05
1.62621e-05
1.62097e-05
1.6135e-05
1.60741e-05
1.59865e-05
1.59109e-05
1.99999e-05
1.98804e-05
1.96314e-05
1.93987e-05
1.9181e-05
1.90291e-05
1.89079e-05
1.88205e-05
1.87223e-05
1.8628e-05
1.85185e-05
1.84288e-05
1.83336e-05
1.82493e-05