/*--------------------------------*- C++ -*----------------------------------*\
  =========                 |
  \\      /  F ield         | OpenFOAM: The Open Source CFD Toolbox
   \\    /   O peration     | Website:  https://openfoam.org
    \\  /    A nd           | Version:  7
     \\/     M anipulation  |
\*---------------------------------------------------------------------------*/
FoamFile
{
    version     2.0;
    format      ascii;
    class       volScalarField;
    location    "0.49";
    object      k_0;
}
// * * * * * * * * * * * * * * * * * * * * * * * * * * * * * * * * * * * * * //

dimensions      [0 2 -2 0 0 0 0];

internalField   nonuniform List<scalar> 
70000
(
1.08549e-05
4.21879e-06
2.82443e-06
2.31687e-06
1.99763e-06
1.75726e-06
1.56537e-06
1.40846e-06
1.27778e-06
1.16704e-06
1.07225e-06
9.90174e-07
9.18775e-07
8.56003e-07
8.00774e-07
7.51589e-07
7.07902e-07
6.68523e-07
6.33286e-07
6.01186e-07
5.72315e-07
5.45758e-07
5.21781e-07
4.99525e-07
4.79364e-07
4.60501e-07
4.43364e-07
4.27212e-07
4.125e-07
3.98549e-07
3.8581e-07
3.73681e-07
3.62553e-07
3.51976e-07
3.42139e-07
3.3295e-07
3.24094e-07
3.16225e-07
3.08055e-07
3.01501e-07
2.93691e-07
2.8893e-07
2.80793e-07
2.78478e-07
2.70206e-07
2.7082e-07
2.62577e-07
2.73427e-07
2.70931e-07
3.06168e-07
1.72795e-05
1.13673e-05
8.52074e-06
7.01058e-06
6.03759e-06
5.31121e-06
4.73201e-06
4.25813e-06
3.86343e-06
3.52898e-06
3.24271e-06
2.99482e-06
2.77918e-06
2.58957e-06
2.42273e-06
2.27411e-06
2.1421e-06
2.02308e-06
1.91658e-06
1.81954e-06
1.73226e-06
1.65197e-06
1.57948e-06
1.51218e-06
1.45121e-06
1.39416e-06
1.34233e-06
1.29346e-06
1.24897e-06
1.20675e-06
1.16823e-06
1.13151e-06
1.09785e-06
1.06584e-06
1.03606e-06
1.00827e-06
9.81444e-07
9.57639e-07
9.32903e-07
9.13052e-07
8.89408e-07
8.74829e-07
8.50393e-07
8.41928e-07
8.18163e-07
8.16062e-07
7.94556e-07
8.13154e-07
8.20913e-07
8.6326e-07
1.93701e-05
1.61297e-05
1.32913e-05
1.12898e-05
9.82903e-06
8.69638e-06
7.77909e-06
7.02111e-06
6.38518e-06
5.84355e-06
5.37832e-06
4.97425e-06
4.62188e-06
4.31131e-06
4.03755e-06
3.79316e-06
3.57578e-06
3.37943e-06
3.20356e-06
3.04308e-06
2.89866e-06
2.76561e-06
2.64543e-06
2.53372e-06
2.4325e-06
2.33764e-06
2.25149e-06
2.1701e-06
2.09608e-06
2.02565e-06
1.9615e-06
1.90019e-06
1.84409e-06
1.79059e-06
1.7409e-06
1.69443e-06
1.64963e-06
1.60975e-06
1.56852e-06
1.53506e-06
1.49586e-06
1.47036e-06
1.43071e-06
1.41407e-06
1.37578e-06
1.36726e-06
1.33364e-06
1.3454e-06
1.38896e-06
1.40689e-06
1.9861e-05
1.82599e-05
1.60859e-05
1.42003e-05
1.26406e-05
1.13489e-05
1.02616e-05
9.33893e-06
8.54825e-06
7.86454e-06
7.2709e-06
6.75061e-06
6.29361e-06
5.8881e-06
5.52874e-06
5.20606e-06
4.91785e-06
4.65627e-06
4.42131e-06
4.20609e-06
4.012e-06
3.83259e-06
3.6703e-06
3.51893e-06
3.3817e-06
3.25261e-06
3.1354e-06
3.02419e-06
2.92321e-06
2.82664e-06
2.73893e-06
2.65461e-06
2.57773e-06
2.50399e-06
2.43575e-06
2.3715e-06
2.30999e-06
2.2545e-06
2.19812e-06
2.15095e-06
2.09802e-06
2.05982e-06
2.00813e-06
1.98078e-06
1.93017e-06
1.9125e-06
1.86812e-06
1.86588e-06
1.9287e-06
1.9274e-06
1.99707e-05
1.78457e-05
1.6075e-05
1.47663e-05
1.36028e-05
1.25375e-05
1.15698e-05
1.07017e-05
9.9216e-06
9.22536e-06
8.60652e-06
8.05293e-06
7.55871e-06
7.11363e-06
6.71436e-06
6.35136e-06
6.02418e-06
5.72431e-06
5.4533e-06
5.20313e-06
4.97647e-06
4.76551e-06
4.57404e-06
4.39426e-06
4.231e-06
4.07632e-06
3.93589e-06
3.80158e-06
3.67991e-06
3.56249e-06
3.45632e-06
3.35321e-06
3.25974e-06
3.16907e-06
3.08588e-06
3.00631e-06
2.93138e-06
2.86185e-06
2.79361e-06
2.73328e-06
2.6703e-06
2.61889e-06
2.55983e-06
2.51753e-06
2.4621e-06
2.42987e-06
2.38397e-06
2.35313e-06
2.41361e-06
2.40326e-06
2.00095e-05
1.47038e-05
1.37477e-05
1.32105e-05
1.25912e-05
1.19267e-05
1.12779e-05
1.0657e-05
1.00809e-05
9.54608e-06
9.0468e-06
8.57945e-06
8.14755e-06
7.74627e-06
7.3767e-06
7.03219e-06
6.71615e-06
6.42123e-06
6.15161e-06
5.899e-06
5.66806e-06
5.45027e-06
5.25132e-06
5.06219e-06
4.88991e-06
4.7245e-06
4.5743e-06
4.42871e-06
4.29725e-06
4.16852e-06
4.05281e-06
3.93859e-06
3.83599e-06
3.73451e-06
3.6428e-06
3.55262e-06
3.47006e-06
3.38986e-06
3.31524e-06
3.24378e-06
3.17626e-06
3.11235e-06
3.0517e-06
2.99399e-06
2.9408e-06
2.88823e-06
2.85023e-06
2.79041e-06
2.8328e-06
2.82154e-06
2.01331e-05
1.54681e-05
9.63464e-06
9.39756e-06
9.49219e-06
9.49143e-06
9.43294e-06
9.29445e-06
9.05489e-06
8.78058e-06
8.48684e-06
8.18869e-06
7.89843e-06
7.61367e-06
7.33859e-06
7.0759e-06
6.83063e-06
6.59401e-06
6.37292e-06
6.15936e-06
5.96064e-06
5.76839e-06
5.59064e-06
5.4179e-06
5.25949e-06
5.10375e-06
4.96234e-06
4.82227e-06
4.69633e-06
4.57009e-06
4.45753e-06
4.34352e-06
4.2425e-06
4.13941e-06
4.0484e-06
3.95499e-06
3.87293e-06
3.78791e-06
3.71415e-06
3.63611e-06
3.57048e-06
3.49786e-06
3.44079e-06
3.37188e-06
3.32428e-06
3.25724e-06
3.22271e-06
3.14761e-06
3.16834e-06
3.1536e-06
2.01713e-05
1.86764e-05
8.69411e-06
5.54016e-06
5.63012e-06
5.93361e-06
6.29192e-06
6.57666e-06
6.7569e-06
6.86518e-06
6.88518e-06
6.86568e-06
6.81422e-06
6.72436e-06
6.61507e-06
6.49159e-06
6.35527e-06
6.21121e-06
6.07056e-06
5.92588e-06
5.78741e-06
5.64731e-06
5.51554e-06
5.38285e-06
5.25938e-06
5.13565e-06
5.02388e-06
4.90889e-06
4.806e-06
4.69871e-06
4.60405e-06
4.50409e-06
4.41724e-06
4.32417e-06
4.24473e-06
4.15795e-06
4.08571e-06
4.00439e-06
3.9393e-06
3.86231e-06
3.80468e-06
3.73101e-06
3.68127e-06
3.60995e-06
3.56824e-06
3.49879e-06
3.46504e-06
3.38704e-06
3.38982e-06
3.37125e-06
2.01671e-05
1.9724e-05
1.61687e-05
4.8634e-06
3.04249e-06
3.10541e-06
3.37402e-06
3.80345e-06
4.16956e-06
4.48682e-06
4.73464e-06
4.92337e-06
5.0647e-06
5.16368e-06
5.22274e-06
5.25771e-06
5.26098e-06
5.25181e-06
5.23012e-06
5.18854e-06
5.14237e-06
5.08405e-06
5.02565e-06
4.95779e-06
4.89295e-06
4.81913e-06
4.75059e-06
4.67387e-06
4.60537e-06
4.52914e-06
4.4627e-06
4.38814e-06
4.32487e-06
4.25234e-06
4.19293e-06
4.12261e-06
4.0676e-06
3.99926e-06
3.94928e-06
3.88318e-06
3.83869e-06
3.77403e-06
3.73473e-06
3.67133e-06
3.63683e-06
3.57501e-06
3.54471e-06
3.47574e-06
3.46816e-06
3.44466e-06
2.01476e-05
1.99343e-05
1.9066e-05
1.4501e-05
5.24725e-06
2.15531e-06
1.91461e-06
1.99358e-06
2.2068e-06
2.50479e-06
2.78097e-06
3.03309e-06
3.25836e-06
3.45388e-06
3.61784e-06
3.75474e-06
3.86644e-06
3.95293e-06
4.02493e-06
4.07475e-06
4.11413e-06
4.13557e-06
4.15156e-06
4.15213e-06
4.14899e-06
4.13889e-06
4.1263e-06
4.10273e-06
4.08193e-06
4.05127e-06
4.02481e-06
3.98919e-06
3.95943e-06
3.91982e-06
3.88903e-06
3.84647e-06
3.81572e-06
3.77112e-06
3.74105e-06
3.69448e-06
3.66536e-06
3.61763e-06
3.59025e-06
3.54202e-06
3.51636e-06
3.46813e-06
3.44383e-06
3.38959e-06
3.37775e-06
3.35368e-06
2.01216e-05
1.99661e-05
1.96426e-05
1.85472e-05
1.52156e-05
8.36641e-06
3.11016e-06
1.63392e-06
1.44268e-06
1.44945e-06
1.52616e-06
1.68648e-06
1.86883e-06
2.04463e-06
2.21499e-06
2.37258e-06
2.52013e-06
2.64908e-06
2.76779e-06
2.86897e-06
2.96093e-06
3.03675e-06
3.10519e-06
3.1598e-06
3.20816e-06
3.24509e-06
3.27902e-06
3.30196e-06
3.32297e-06
3.33518e-06
3.34558e-06
3.34995e-06
3.35095e-06
3.34893e-06
3.34525e-06
3.3362e-06
3.32938e-06
3.31463e-06
3.30545e-06
3.28647e-06
3.27545e-06
3.25319e-06
3.24054e-06
3.21529e-06
3.20137e-06
3.17348e-06
3.15819e-06
3.12391e-06
3.11231e-06
3.09304e-06
2.00981e-05
1.99327e-05
1.97575e-05
1.9353e-05
1.85074e-05
1.65398e-05
1.23357e-05
6.86958e-06
2.99342e-06
1.49488e-06
1.24359e-06
1.14772e-06
1.15177e-06
1.19396e-06
1.28632e-06
1.39186e-06
1.5048e-06
1.61279e-06
1.7231e-06
1.82599e-06
1.92614e-06
2.01687e-06
2.1036e-06
2.18065e-06
2.25389e-06
2.31748e-06
2.37799e-06
2.4297e-06
2.4785e-06
2.51961e-06
2.55815e-06
2.58992e-06
2.61984e-06
2.64288e-06
2.66608e-06
2.6816e-06
2.69887e-06
2.70827e-06
2.72005e-06
2.72475e-06
2.7312e-06
2.73263e-06
2.73334e-06
2.73167e-06
2.72925e-06
2.72274e-06
2.71752e-06
2.7038e-06
2.69789e-06
2.68605e-06
2.00781e-05
1.98876e-05
1.97571e-05
1.94614e-05
1.91467e-05
1.86425e-05
1.75586e-05
1.54319e-05
1.17518e-05
7.4584e-06
3.99253e-06
1.91942e-06
1.20999e-06
1.05753e-06
9.82508e-07
9.42327e-07
9.53322e-07
9.86491e-07
1.04885e-06
1.11135e-06
1.18047e-06
1.24873e-06
1.31925e-06
1.3874e-06
1.45597e-06
1.51961e-06
1.5827e-06
1.64029e-06
1.6969e-06
1.74789e-06
1.79801e-06
1.84218e-06
1.88593e-06
1.92337e-06
1.96106e-06
1.99222e-06
2.02418e-06
2.04974e-06
2.07617e-06
2.09682e-06
2.11805e-06
2.13394e-06
2.15075e-06
2.16148e-06
2.17428e-06
2.17998e-06
2.1882e-06
2.18865e-06
2.18947e-06
2.18632e-06
2.00614e-05
1.98539e-05
1.97345e-05
1.94717e-05
1.9256e-05
1.90479e-05
1.87372e-05
1.81929e-05
1.71016e-05
1.52402e-05
1.25795e-05
9.25103e-06
5.98901e-06
3.4915e-06
1.88948e-06
1.17087e-06
9.65486e-07
8.91145e-07
8.37023e-07
7.96002e-07
7.97476e-07
8.10414e-07
8.3958e-07
8.77114e-07
9.16993e-07
9.57929e-07
1.00211e-06
1.0451e-06
1.09056e-06
1.13382e-06
1.17834e-06
1.21945e-06
1.26133e-06
1.2994e-06
1.3382e-06
1.37269e-06
1.40819e-06
1.43896e-06
1.47079e-06
1.49786e-06
1.52588e-06
1.54881e-06
1.57337e-06
1.59198e-06
1.61242e-06
1.62682e-06
1.64262e-06
1.65194e-06
1.66137e-06
1.66533e-06
2.00475e-05
1.98304e-05
1.97079e-05
1.94496e-05
1.92729e-05
1.91158e-05
1.89663e-05
1.87515e-05
1.8464e-05
1.79151e-05
1.70824e-05
1.5709e-05
1.3895e-05
1.15502e-05
8.87574e-06
6.26915e-06
4.09626e-06
2.52053e-06
1.517e-06
1.03601e-06
8.64549e-07
7.99919e-07
7.52033e-07
7.11496e-07
6.81777e-07
6.77415e-07
6.8283e-07
6.95985e-07
7.17661e-07
7.40088e-07
7.64998e-07
7.89471e-07
8.16656e-07
8.43169e-07
8.71687e-07
8.98614e-07
9.2746e-07
9.53572e-07
9.81209e-07
1.00585e-06
1.03161e-06
1.05396e-06
1.07788e-06
1.09766e-06
1.11863e-06
1.13567e-06
1.15322e-06
1.16641e-06
1.17861e-06
1.18718e-06
2.00362e-05
1.98125e-05
1.96854e-05
1.94193e-05
1.92589e-05
1.91095e-05
1.90012e-05
1.88501e-05
1.87132e-05
1.85018e-05
1.82495e-05
1.78352e-05
1.72361e-05
1.63682e-05
1.51716e-05
1.36405e-05
1.18382e-05
9.7606e-06
7.62199e-06
5.6269e-06
3.94617e-06
2.66447e-06
1.74337e-06
1.17286e-06
8.87871e-07
7.67877e-07
7.13243e-07
6.75815e-07
6.4084e-07
6.10414e-07
5.89922e-07
5.80703e-07
5.82188e-07
5.87158e-07
5.97466e-07
6.09373e-07
6.23566e-07
6.36822e-07
6.51949e-07
6.66257e-07
6.8222e-07
6.97267e-07
7.13751e-07
7.28727e-07
7.44347e-07
7.58535e-07
7.72594e-07
7.84518e-07
7.95157e-07
8.03795e-07
2.00271e-05
1.97986e-05
1.96662e-05
1.93974e-05
1.92333e-05
1.90821e-05
1.89832e-05
1.88536e-05
1.87372e-05
1.85972e-05
1.84607e-05
1.82903e-05
1.80822e-05
1.77962e-05
1.74116e-05
1.68695e-05
1.61646e-05
1.52469e-05
1.41117e-05
1.2776e-05
1.1285e-05
9.63413e-06
7.93457e-06
6.30353e-06
4.82369e-06
3.58183e-06
2.59633e-06
1.83913e-06
1.30017e-06
9.63374e-07
7.80552e-07
6.89771e-07
6.42625e-07
6.1084e-07
5.83937e-07
5.57468e-07
5.34518e-07
5.16261e-07
5.05252e-07
4.99283e-07
4.99663e-07
5.01632e-07
5.05896e-07
5.1177e-07
5.17635e-07
5.24513e-07
5.30207e-07
5.36385e-07
5.40766e-07
5.45695e-07
2.002e-05
1.97901e-05
1.96461e-05
1.93811e-05
1.92093e-05
1.90532e-05
1.89451e-05
1.88274e-05
1.87156e-05
1.85906e-05
1.84722e-05
1.8346e-05
1.82213e-05
1.80781e-05
1.79216e-05
1.77229e-05
1.74798e-05
1.71619e-05
1.67597e-05
1.62408e-05
1.56092e-05
1.4837e-05
1.39294e-05
1.28852e-05
1.1743e-05
1.0507e-05
9.19023e-06
7.85648e-06
6.55686e-06
5.35045e-06
4.26177e-06
3.33838e-06
2.57782e-06
1.96089e-06
1.47792e-06
1.12295e-06
8.83229e-07
7.34958e-07
6.48527e-07
5.98387e-07
5.66832e-07
5.43518e-07
5.23032e-07
5.04967e-07
4.86428e-07
4.71593e-07
4.56573e-07
4.47823e-07
4.37734e-07
4.35153e-07
2.00144e-05
1.97901e-05
1.96198e-05
1.93678e-05
1.91888e-05
1.90266e-05
1.89092e-05
1.87914e-05
1.86755e-05
1.85551e-05
1.84416e-05
1.83244e-05
1.82116e-05
1.8093e-05
1.79788e-05
1.78572e-05
1.77326e-05
1.75905e-05
1.74321e-05
1.72393e-05
1.70106e-05
1.67297e-05
1.6391e-05
1.59784e-05
1.54904e-05
1.49198e-05
1.42648e-05
1.35181e-05
1.26969e-05
1.17994e-05
1.08599e-05
9.86844e-06
8.8394e-06
7.80629e-06
6.79588e-06
5.83372e-06
4.94145e-06
4.13372e-06
3.42147e-06
2.81638e-06
2.30372e-06
1.87548e-06
1.52428e-06
1.24555e-06
1.03262e-06
8.78309e-07
7.68606e-07
6.99156e-07
6.4761e-07
6.25934e-07
2.00102e-05
1.97941e-05
1.9593e-05
1.93541e-05
1.91701e-05
1.90013e-05
1.88758e-05
1.87558e-05
1.86356e-05
1.85125e-05
1.83956e-05
1.82785e-05
1.81665e-05
1.80548e-05
1.79462e-05
1.78378e-05
1.77299e-05
1.76216e-05
1.75146e-05
1.74035e-05
1.72871e-05
1.71609e-05
1.70206e-05
1.68596e-05
1.66739e-05
1.64574e-05
1.62068e-05
1.59136e-05
1.55754e-05
1.51885e-05
1.47492e-05
1.42622e-05
1.37189e-05
1.31271e-05
1.24858e-05
1.18077e-05
1.10937e-05
1.03607e-05
9.61128e-06
8.84878e-06
8.0836e-06
7.33906e-06
6.62024e-06
5.94796e-06
5.32141e-06
4.76648e-06
4.26724e-06
3.85934e-06
3.50065e-06
3.23149e-06
2.0007e-05
1.98017e-05
1.95683e-05
1.93408e-05
1.91526e-05
1.89775e-05
1.8844e-05
1.87216e-05
1.85968e-05
1.84711e-05
1.8349e-05
1.82303e-05
1.8114e-05
1.80006e-05
1.78893e-05
1.77816e-05
1.76766e-05
1.75748e-05
1.74744e-05
1.73768e-05
1.72774e-05
1.71812e-05
1.70833e-05
1.69854e-05
1.68825e-05
1.67765e-05
1.66616e-05
1.65378e-05
1.63975e-05
1.62459e-05
1.60701e-05
1.58792e-05
1.56593e-05
1.54179e-05
1.51443e-05
1.48478e-05
1.45149e-05
1.41586e-05
1.37693e-05
1.33605e-05
1.29165e-05
1.24598e-05
1.19775e-05
1.14922e-05
1.09913e-05
1.05073e-05
1.00207e-05
9.5715e-06
9.1405e-06
8.75798e-06
2.00047e-05
1.98103e-05
1.95453e-05
1.93277e-05
1.91357e-05
1.89553e-05
1.88134e-05
1.86887e-05
1.85596e-05
1.84313e-05
1.83042e-05
1.81828e-05
1.80623e-05
1.79465e-05
1.7831e-05
1.77216e-05
1.76118e-05
1.75082e-05
1.74054e-05
1.73078e-05
1.72096e-05
1.71196e-05
1.70273e-05
1.69394e-05
1.68493e-05
1.6763e-05
1.66739e-05
1.6588e-05
1.64975e-05
1.64114e-05
1.6316e-05
1.62241e-05
1.61209e-05
1.60156e-05
1.58976e-05
1.57777e-05
1.56382e-05
1.54937e-05
1.53321e-05
1.51647e-05
1.49734e-05
1.47767e-05
1.45611e-05
1.43375e-05
1.40952e-05
1.38527e-05
1.35947e-05
1.33392e-05
1.30857e-05
1.28393e-05
2.0003e-05
1.98193e-05
1.95239e-05
1.9314e-05
1.9119e-05
1.89346e-05
1.87843e-05
1.86568e-05
1.85241e-05
1.83932e-05
1.82616e-05
1.81373e-05
1.80127e-05
1.78942e-05
1.77746e-05
1.76629e-05
1.75492e-05
1.7443e-05
1.73368e-05
1.72367e-05
1.71341e-05
1.70417e-05
1.69463e-05
1.68566e-05
1.67653e-05
1.66807e-05
1.65964e-05
1.6516e-05
1.64325e-05
1.63571e-05
1.62752e-05
1.62022e-05
1.61221e-05
1.60465e-05
1.59687e-05
1.58977e-05
1.58164e-05
1.57399e-05
1.56593e-05
1.55811e-05
1.54914e-05
1.54042e-05
1.53102e-05
1.52146e-05
1.51083e-05
1.50049e-05
1.48899e-05
1.47729e-05
1.46545e-05
1.45341e-05
2.00017e-05
1.98277e-05
1.95045e-05
1.92994e-05
1.9102e-05
1.89153e-05
1.87569e-05
1.86261e-05
1.84904e-05
1.83571e-05
1.82215e-05
1.80942e-05
1.79662e-05
1.78447e-05
1.77215e-05
1.76072e-05
1.74898e-05
1.7381e-05
1.72719e-05
1.7169e-05
1.70633e-05
1.69684e-05
1.68699e-05
1.67768e-05
1.66828e-05
1.65938e-05
1.65061e-05
1.64218e-05
1.63358e-05
1.6258e-05
1.61753e-05
1.61027e-05
1.60271e-05
1.59555e-05
1.58841e-05
1.58209e-05
1.57486e-05
1.56848e-05
1.56202e-05
1.55608e-05
1.54926e-05
1.5433e-05
1.53705e-05
1.53133e-05
1.52483e-05
1.51912e-05
1.51265e-05
1.5063e-05
1.4996e-05
1.4931e-05
2.00009e-05
1.98305e-05
1.94884e-05
1.92844e-05
1.90851e-05
1.88978e-05
1.87316e-05
1.8597e-05
1.8459e-05
1.83234e-05
1.81845e-05
1.80542e-05
1.79233e-05
1.77988e-05
1.76724e-05
1.75554e-05
1.74349e-05
1.73235e-05
1.72117e-05
1.71061e-05
1.69978e-05
1.69007e-05
1.67996e-05
1.67037e-05
1.66072e-05
1.65151e-05
1.64247e-05
1.63371e-05
1.62477e-05
1.61665e-05
1.60803e-05
1.6004e-05
1.59238e-05
1.58479e-05
1.57741e-05
1.57081e-05
1.56331e-05
1.55681e-05
1.55039e-05
1.5446e-05
1.53811e-05
1.5327e-05
1.52684e-05
1.5218e-05
1.516e-05
1.51107e-05
1.50556e-05
1.50036e-05
1.49457e-05
1.48945e-05
2.00003e-05
1.98289e-05
1.94752e-05
1.92685e-05
1.9068e-05
1.88822e-05
1.87088e-05
1.857e-05
1.84302e-05
1.82927e-05
1.8151e-05
1.80179e-05
1.78844e-05
1.77573e-05
1.7628e-05
1.75087e-05
1.73853e-05
1.72716e-05
1.71573e-05
1.70493e-05
1.69388e-05
1.68397e-05
1.67361e-05
1.6638e-05
1.65391e-05
1.64448e-05
1.63519e-05
1.62619e-05
1.61699e-05
1.60861e-05
1.5997e-05
1.59182e-05
1.58342e-05
1.57556e-05
1.56787e-05
1.56092e-05
1.55302e-05
1.54631e-05
1.53948e-05
1.53337e-05
1.52643e-05
1.52081e-05
1.51456e-05
1.5093e-05
1.50335e-05
1.49824e-05
1.49258e-05
1.48738e-05
1.48142e-05
1.47642e-05
2e-05
1.98271e-05
1.94641e-05
1.92512e-05
1.90503e-05
1.8868e-05
1.86883e-05
1.85451e-05
1.8404e-05
1.82651e-05
1.81212e-05
1.79858e-05
1.78501e-05
1.77207e-05
1.75891e-05
1.74676e-05
1.73418e-05
1.72263e-05
1.71096e-05
1.69997e-05
1.68873e-05
1.67864e-05
1.66805e-05
1.6581e-05
1.64797e-05
1.63838e-05
1.62883e-05
1.61965e-05
1.61025e-05
1.60165e-05
1.59252e-05
1.58443e-05
1.57572e-05
1.56772e-05
1.55979e-05
1.55255e-05
1.54439e-05
1.53752e-05
1.53038e-05
1.524e-05
1.51683e-05
1.51098e-05
1.5044e-05
1.49883e-05
1.49266e-05
1.48729e-05
1.48124e-05
1.47584e-05
1.46956e-05
1.46426e-05
1.99999e-05
1.98259e-05
1.94559e-05
1.92334e-05
1.90325e-05
1.88556e-05
1.86707e-05
1.85231e-05
1.83809e-05
1.82412e-05
1.80958e-05
1.79585e-05
1.78209e-05
1.76899e-05
1.75563e-05
1.7433e-05
1.73053e-05
1.71884e-05
1.70695e-05
1.69583e-05
1.68446e-05
1.67421e-05
1.66341e-05
1.65337e-05
1.643e-05
1.63332e-05
1.62351e-05
1.61421e-05
1.60464e-05
1.59583e-05
1.58654e-05
1.57824e-05
1.56928e-05
1.56122e-05
1.55307e-05
1.54556e-05
1.53728e-05
1.53029e-05
1.5229e-05
1.51632e-05
1.50905e-05
1.50301e-05
1.49622e-05
1.49045e-05
1.48411e-05
1.47857e-05
1.4722e-05
1.46662e-05
1.46012e-05
1.45452e-05
1.99999e-05
1.98251e-05
1.94507e-05
1.92163e-05
1.90156e-05
1.88453e-05
1.86568e-05
1.85049e-05
1.83616e-05
1.82217e-05
1.80753e-05
1.79368e-05
1.77976e-05
1.76655e-05
1.75304e-05
1.74058e-05
1.72768e-05
1.71588e-05
1.70381e-05
1.69263e-05
1.68114e-05
1.67077e-05
1.65981e-05
1.64972e-05
1.63915e-05
1.62943e-05
1.61938e-05
1.60998e-05
1.60029e-05
1.59128e-05
1.58187e-05
1.57338e-05
1.56423e-05
1.55612e-05
1.54775e-05
1.54004e-05
1.53169e-05
1.5246e-05
1.51697e-05
1.51027e-05
1.50296e-05
1.49677e-05
1.48981e-05
1.48394e-05
1.47746e-05
1.47178e-05
1.4652e-05
1.45949e-05
1.45281e-05
1.44696e-05
1.99999e-05
1.98248e-05
1.94483e-05
1.92006e-05
1.90002e-05
1.88369e-05
1.86468e-05
1.84909e-05
1.83466e-05
1.8207e-05
1.80603e-05
1.79212e-05
1.77807e-05
1.76482e-05
1.7512e-05
1.73867e-05
1.72569e-05
1.71382e-05
1.70162e-05
1.69043e-05
1.67888e-05
1.66842e-05
1.65735e-05
1.64727e-05
1.63652e-05
1.62681e-05
1.61654e-05
1.60712e-05
1.5973e-05
1.58814e-05
1.57865e-05
1.56997e-05
1.56068e-05
1.55254e-05
1.54396e-05
1.53611e-05
1.52773e-05
1.52052e-05
1.5127e-05
1.50594e-05
1.49859e-05
1.49225e-05
1.48517e-05
1.47925e-05
1.47265e-05
1.46684e-05
1.4601e-05
1.4543e-05
1.44745e-05
1.44139e-05
1.99999e-05
1.98249e-05
1.94484e-05
1.91874e-05
1.89868e-05
1.88303e-05
1.8641e-05
1.84816e-05
1.83362e-05
1.81974e-05
1.80512e-05
1.7912e-05
1.77708e-05
1.76384e-05
1.75018e-05
1.73762e-05
1.72462e-05
1.71272e-05
1.70045e-05
1.68932e-05
1.67774e-05
1.66725e-05
1.65613e-05
1.64609e-05
1.63522e-05
1.62555e-05
1.61512e-05
1.60572e-05
1.59579e-05
1.58653e-05
1.57698e-05
1.56815e-05
1.55877e-05
1.5506e-05
1.54183e-05
1.53389e-05
1.52549e-05
1.51817e-05
1.51021e-05
1.50343e-05
1.49602e-05
1.48958e-05
1.48239e-05
1.47648e-05
1.46974e-05
1.46382e-05
1.45696e-05
1.45108e-05
1.44405e-05
1.4378e-05
1.99999e-05
1.98254e-05
1.94509e-05
1.91768e-05
1.89756e-05
1.88251e-05
1.86394e-05
1.84771e-05
1.83304e-05
1.81931e-05
1.80481e-05
1.79093e-05
1.77683e-05
1.76365e-05
1.75e-05
1.73749e-05
1.72452e-05
1.71264e-05
1.70039e-05
1.68935e-05
1.67779e-05
1.66732e-05
1.65621e-05
1.64622e-05
1.63532e-05
1.62569e-05
1.61519e-05
1.60583e-05
1.5958e-05
1.58652e-05
1.57694e-05
1.56801e-05
1.55859e-05
1.55039e-05
1.54148e-05
1.5335e-05
1.52508e-05
1.51767e-05
1.50962e-05
1.50284e-05
1.49537e-05
1.48884e-05
1.4816e-05
1.47569e-05
1.46881e-05
1.4628e-05
1.45583e-05
1.44988e-05
1.44267e-05
1.43623e-05
1.99999e-05
1.98265e-05
1.94557e-05
1.91699e-05
1.8967e-05
1.88215e-05
1.86416e-05
1.84773e-05
1.83295e-05
1.8194e-05
1.80509e-05
1.7913e-05
1.77725e-05
1.76416e-05
1.75056e-05
1.73814e-05
1.72523e-05
1.71341e-05
1.70121e-05
1.69029e-05
1.67879e-05
1.66839e-05
1.65736e-05
1.64744e-05
1.63658e-05
1.62702e-05
1.61651e-05
1.60721e-05
1.59711e-05
1.58785e-05
1.57824e-05
1.56926e-05
1.55983e-05
1.55162e-05
1.54264e-05
1.53465e-05
1.52622e-05
1.51876e-05
1.51068e-05
1.50393e-05
1.49639e-05
1.48982e-05
1.48258e-05
1.47667e-05
1.46968e-05
1.46361e-05
1.45656e-05
1.45054e-05
1.44315e-05
1.43654e-05
1.99999e-05
1.98279e-05
1.94625e-05
1.91663e-05
1.89612e-05
1.88191e-05
1.86475e-05
1.84821e-05
1.83328e-05
1.81993e-05
1.80586e-05
1.79224e-05
1.77832e-05
1.76539e-05
1.7519e-05
1.73965e-05
1.72686e-05
1.71516e-05
1.7031e-05
1.69238e-05
1.681e-05
1.67075e-05
1.65988e-05
1.65006e-05
1.63934e-05
1.62987e-05
1.61946e-05
1.61023e-05
1.6001e-05
1.59093e-05
1.5813e-05
1.57232e-05
1.56292e-05
1.55469e-05
1.54564e-05
1.5377e-05
1.52925e-05
1.52176e-05
1.51368e-05
1.50696e-05
1.49934e-05
1.49277e-05
1.48557e-05
1.47965e-05
1.47252e-05
1.46643e-05
1.45934e-05
1.45322e-05
1.44563e-05
1.43885e-05
1.99999e-05
1.98299e-05
1.9471e-05
1.91667e-05
1.89582e-05
1.88184e-05
1.86562e-05
1.84916e-05
1.8341e-05
1.82097e-05
1.80716e-05
1.79378e-05
1.78005e-05
1.7673e-05
1.75399e-05
1.74195e-05
1.72929e-05
1.7178e-05
1.70594e-05
1.69543e-05
1.68422e-05
1.67418e-05
1.66352e-05
1.65382e-05
1.64334e-05
1.63397e-05
1.62375e-05
1.61457e-05
1.6045e-05
1.59549e-05
1.58585e-05
1.57695e-05
1.56764e-05
1.5594e-05
1.55037e-05
1.54251e-05
1.53405e-05
1.52658e-05
1.51858e-05
1.51187e-05
1.50418e-05
1.4977e-05
1.49056e-05
1.4846e-05
1.47738e-05
1.47132e-05
1.46417e-05
1.45794e-05
1.45015e-05
1.44322e-05
1.99999e-05
1.98324e-05
1.94809e-05
1.91706e-05
1.8958e-05
1.88192e-05
1.86673e-05
1.85045e-05
1.83533e-05
1.82242e-05
1.80889e-05
1.79582e-05
1.78232e-05
1.76977e-05
1.7567e-05
1.7449e-05
1.73242e-05
1.72119e-05
1.70956e-05
1.69929e-05
1.68832e-05
1.67855e-05
1.66813e-05
1.65859e-05
1.64843e-05
1.63919e-05
1.62922e-05
1.6201e-05
1.61017e-05
1.60133e-05
1.5917e-05
1.58296e-05
1.57376e-05
1.56553e-05
1.55656e-05
1.54882e-05
1.54036e-05
1.53297e-05
1.52507e-05
1.51835e-05
1.51065e-05
1.50431e-05
1.49722e-05
1.4912e-05
1.48394e-05
1.47796e-05
1.47075e-05
1.46439e-05
1.45642e-05
1.44936e-05
1.99999e-05
1.98353e-05
1.94914e-05
1.91786e-05
1.89607e-05
1.8822e-05
1.868e-05
1.85208e-05
1.83696e-05
1.82422e-05
1.81097e-05
1.79828e-05
1.78504e-05
1.77273e-05
1.75994e-05
1.7484e-05
1.73612e-05
1.7252e-05
1.71384e-05
1.70384e-05
1.69315e-05
1.68371e-05
1.67355e-05
1.66425e-05
1.65445e-05
1.64538e-05
1.63568e-05
1.62666e-05
1.61693e-05
1.6083e-05
1.5987e-05
1.59017e-05
1.5811e-05
1.5729e-05
1.56405e-05
1.55645e-05
1.54799e-05
1.54074e-05
1.53296e-05
1.52621e-05
1.51855e-05
1.51242e-05
1.50535e-05
1.49927e-05
1.49204e-05
1.48616e-05
1.47885e-05
1.47237e-05
1.46424e-05
1.45708e-05
1.99999e-05
1.98385e-05
1.95026e-05
1.91895e-05
1.89666e-05
1.88272e-05
1.8694e-05
1.854e-05
1.83895e-05
1.82636e-05
1.81338e-05
1.8011e-05
1.78814e-05
1.77609e-05
1.76361e-05
1.75233e-05
1.7403e-05
1.72974e-05
1.71865e-05
1.70896e-05
1.6986e-05
1.68952e-05
1.67963e-05
1.67064e-05
1.66122e-05
1.65238e-05
1.64295e-05
1.63409e-05
1.62459e-05
1.61619e-05
1.60667e-05
1.59839e-05
1.58946e-05
1.58132e-05
1.57265e-05
1.56517e-05
1.55675e-05
1.54969e-05
1.542e-05
1.53525e-05
1.52771e-05
1.52177e-05
1.51468e-05
1.5086e-05
1.50145e-05
1.49565e-05
1.48822e-05
1.48165e-05
1.4734e-05
1.46616e-05
1.99999e-05
1.98419e-05
1.95141e-05
1.92031e-05
1.89753e-05
1.88346e-05
1.87086e-05
1.85614e-05
1.84125e-05
1.82876e-05
1.81606e-05
1.80421e-05
1.79153e-05
1.77977e-05
1.76762e-05
1.75661e-05
1.74486e-05
1.73466e-05
1.72385e-05
1.71451e-05
1.7045e-05
1.6958e-05
1.68619e-05
1.67762e-05
1.66855e-05
1.66001e-05
1.65082e-05
1.64222e-05
1.63298e-05
1.62481e-05
1.6154e-05
1.60741e-05
1.59861e-05
1.59058e-05
1.58212e-05
1.57475e-05
1.56642e-05
1.55958e-05
1.55194e-05
1.54523e-05
1.53788e-05
1.53209e-05
1.52497e-05
1.51895e-05
1.51192e-05
1.50616e-05
1.49861e-05
1.49199e-05
1.48365e-05
1.47635e-05
1.99999e-05
1.98456e-05
1.95258e-05
1.92188e-05
1.89867e-05
1.88444e-05
1.87237e-05
1.85844e-05
1.8438e-05
1.83138e-05
1.81895e-05
1.80752e-05
1.79513e-05
1.78371e-05
1.77186e-05
1.76113e-05
1.74968e-05
1.73985e-05
1.72932e-05
1.72037e-05
1.71072e-05
1.70242e-05
1.69311e-05
1.68504e-05
1.67628e-05
1.6681e-05
1.65913e-05
1.65087e-05
1.64189e-05
1.63394e-05
1.62473e-05
1.61704e-05
1.60834e-05
1.60049e-05
1.59225e-05
1.58497e-05
1.5768e-05
1.57016e-05
1.56252e-05
1.55595e-05
1.54883e-05
1.54311e-05
1.53596e-05
1.53011e-05
1.5232e-05
1.51742e-05
1.50976e-05
1.50314e-05
1.49474e-05
1.48738e-05
1.99999e-05
1.98493e-05
1.95375e-05
1.9236e-05
1.90008e-05
1.88564e-05
1.87391e-05
1.86086e-05
1.84654e-05
1.83419e-05
1.82204e-05
1.81097e-05
1.79889e-05
1.78782e-05
1.77627e-05
1.76582e-05
1.75469e-05
1.74519e-05
1.73495e-05
1.72644e-05
1.71713e-05
1.70922e-05
1.70026e-05
1.69275e-05
1.68424e-05
1.67649e-05
1.66773e-05
1.65987e-05
1.65113e-05
1.6434e-05
1.63448e-05
1.62705e-05
1.61844e-05
1.61086e-05
1.60281e-05
1.59562e-05
1.58768e-05
1.58118e-05
1.57355e-05
1.56721e-05
1.56029e-05
1.55455e-05
1.54744e-05
1.54184e-05
1.53501e-05
1.52916e-05
1.52144e-05
1.51488e-05
1.50641e-05
1.49898e-05
1.99999e-05
1.98531e-05
1.95493e-05
1.92543e-05
1.90171e-05
1.88705e-05
1.87551e-05
1.86335e-05
1.8494e-05
1.83716e-05
1.82527e-05
1.8145e-05
1.80273e-05
1.79206e-05
1.78077e-05
1.7706e-05
1.7598e-05
1.7506e-05
1.74066e-05
1.7326e-05
1.7236e-05
1.71609e-05
1.70752e-05
1.7006e-05
1.69228e-05
1.68501e-05
1.67648e-05
1.66907e-05
1.66056e-05
1.65304e-05
1.6445e-05
1.63726e-05
1.62875e-05
1.62152e-05
1.61358e-05
1.60653e-05
1.59885e-05
1.5924e-05
1.58484e-05
1.57881e-05
1.572e-05
1.56621e-05
1.55926e-05
1.55392e-05
1.54708e-05
1.54117e-05
1.53345e-05
1.52697e-05
1.51844e-05
1.51089e-05
1.99999e-05
1.98569e-05
1.95609e-05
1.92733e-05
1.90353e-05
1.88866e-05
1.87716e-05
1.86586e-05
1.85232e-05
1.84025e-05
1.8286e-05
1.81805e-05
1.80664e-05
1.79636e-05
1.78529e-05
1.77541e-05
1.76492e-05
1.75598e-05
1.74636e-05
1.73875e-05
1.73002e-05
1.72294e-05
1.71481e-05
1.70843e-05
1.70031e-05
1.69356e-05
1.68528e-05
1.67831e-05
1.67001e-05
1.66273e-05
1.65463e-05
1.64749e-05
1.63915e-05
1.6323e-05
1.6244e-05
1.61756e-05
1.61011e-05
1.60366e-05
1.59626e-05
1.59054e-05
1.58371e-05
1.57793e-05
1.57123e-05
1.5661e-05
1.55918e-05
1.55326e-05
1.54561e-05
1.5392e-05
1.53058e-05
1.52289e-05
1.99999e-05
1.98606e-05
1.95723e-05
1.92924e-05
1.90548e-05
1.89042e-05
1.87889e-05
1.86835e-05
1.85526e-05
1.84344e-05
1.83198e-05
1.8216e-05
1.81056e-05
1.80067e-05
1.78981e-05
1.78021e-05
1.76998e-05
1.76128e-05
1.75201e-05
1.74479e-05
1.73632e-05
1.72968e-05
1.72203e-05
1.71613e-05
1.70825e-05
1.70202e-05
1.69403e-05
1.68746e-05
1.67938e-05
1.67239e-05
1.66471e-05
1.65762e-05
1.64954e-05
1.64303e-05
1.63513e-05
1.62857e-05
1.62129e-05
1.61483e-05
1.60768e-05
1.60218e-05
1.59526e-05
1.5896e-05
1.58321e-05
1.57815e-05
1.57113e-05
1.5653e-05
1.55775e-05
1.55139e-05
1.54265e-05
1.53484e-05
1.99999e-05
1.98642e-05
1.95835e-05
1.93113e-05
1.90754e-05
1.89232e-05
1.88072e-05
1.87079e-05
1.85818e-05
1.84671e-05
1.83537e-05
1.82514e-05
1.81449e-05
1.80493e-05
1.79428e-05
1.78494e-05
1.77491e-05
1.76646e-05
1.75752e-05
1.75064e-05
1.74243e-05
1.73628e-05
1.72909e-05
1.72359e-05
1.71603e-05
1.7103e-05
1.70263e-05
1.69643e-05
1.68858e-05
1.68194e-05
1.67458e-05
1.66758e-05
1.65984e-05
1.65354e-05
1.64568e-05
1.63945e-05
1.63224e-05
1.62584e-05
1.61897e-05
1.61353e-05
1.60655e-05
1.60115e-05
1.59499e-05
1.5899e-05
1.58284e-05
1.57719e-05
1.56972e-05
1.56336e-05
1.55451e-05
1.54664e-05
1.99999e-05
1.98677e-05
1.95941e-05
1.933e-05
1.90966e-05
1.89433e-05
1.88263e-05
1.87314e-05
1.86107e-05
1.85002e-05
1.83873e-05
1.82868e-05
1.81839e-05
1.80911e-05
1.79869e-05
1.78957e-05
1.77969e-05
1.7715e-05
1.76286e-05
1.75623e-05
1.74832e-05
1.74269e-05
1.7359e-05
1.73076e-05
1.72363e-05
1.71836e-05
1.71101e-05
1.70514e-05
1.69754e-05
1.69133e-05
1.68413e-05
1.67734e-05
1.66994e-05
1.66374e-05
1.65602e-05
1.65007e-05
1.64285e-05
1.63663e-05
1.62996e-05
1.62445e-05
1.61755e-05
1.61249e-05
1.6064e-05
1.60121e-05
1.59425e-05
1.5888e-05
1.58137e-05
1.575e-05
1.56607e-05
1.55826e-05
1.99999e-05
1.98711e-05
1.96042e-05
1.93482e-05
1.91181e-05
1.89644e-05
1.88463e-05
1.87541e-05
1.86394e-05
1.85332e-05
1.84204e-05
1.83222e-05
1.82225e-05
1.8132e-05
1.80303e-05
1.79407e-05
1.7843e-05
1.77637e-05
1.76797e-05
1.76154e-05
1.75399e-05
1.74885e-05
1.74239e-05
1.73762e-05
1.73101e-05
1.72612e-05
1.71909e-05
1.71355e-05
1.70626e-05
1.70048e-05
1.69329e-05
1.68688e-05
1.67975e-05
1.67355e-05
1.66611e-05
1.66033e-05
1.65309e-05
1.64714e-05
1.64052e-05
1.63491e-05
1.62827e-05
1.62349e-05
1.61729e-05
1.61207e-05
1.60533e-05
1.60005e-05
1.59259e-05
1.58624e-05
1.57732e-05
1.56965e-05
1.99999e-05
1.98743e-05
1.96137e-05
1.93658e-05
1.91395e-05
1.89859e-05
1.88667e-05
1.87764e-05
1.86676e-05
1.85657e-05
1.84532e-05
1.83578e-05
1.82603e-05
1.81718e-05
1.80728e-05
1.79842e-05
1.78874e-05
1.78107e-05
1.7728e-05
1.76656e-05
1.75942e-05
1.75472e-05
1.74854e-05
1.74419e-05
1.73814e-05
1.73353e-05
1.72685e-05
1.72165e-05
1.7147e-05
1.70931e-05
1.70206e-05
1.69619e-05
1.68917e-05
1.683e-05
1.67592e-05
1.67015e-05
1.66296e-05
1.6573e-05
1.65054e-05
1.64493e-05
1.63869e-05
1.63399e-05
1.62758e-05
1.6225e-05
1.61604e-05
1.61083e-05
1.60333e-05
1.59707e-05
1.58824e-05
1.58069e-05
1.99999e-05
1.98774e-05
1.96227e-05
1.93828e-05
1.91606e-05
1.90077e-05
1.88874e-05
1.87984e-05
1.86954e-05
1.85973e-05
1.84857e-05
1.83934e-05
1.82972e-05
1.82107e-05
1.81142e-05
1.80259e-05
1.79302e-05
1.78554e-05
1.77732e-05
1.77132e-05
1.76459e-05
1.76023e-05
1.75432e-05
1.7505e-05
1.74495e-05
1.74058e-05
1.73426e-05
1.72944e-05
1.72284e-05
1.71774e-05
1.71048e-05
1.70521e-05
1.69812e-05
1.69213e-05
1.68537e-05
1.67951e-05
1.67247e-05
1.66699e-05
1.66001e-05
1.6546e-05
1.6487e-05
1.64384e-05
1.63732e-05
1.63255e-05
1.62629e-05
1.62104e-05
1.61359e-05
1.60751e-05
1.59876e-05
1.59121e-05
1.99999e-05
1.98803e-05
1.96313e-05
1.93989e-05
1.91812e-05
1.90294e-05
1.89081e-05
1.88206e-05
1.87224e-05
1.86279e-05
1.85182e-05
1.84286e-05
1.83333e-05
1.82489e-05
1.81541e-05