/*--------------------------------*- C++ -*----------------------------------*\
  =========                 |
  \\      /  F ield         | OpenFOAM: The Open Source CFD Toolbox
   \\    /   O peration     | Website:  https://openfoam.org
    \\  /    A nd           | Version:  7
     \\/     M anipulation  |
\*---------------------------------------------------------------------------*/
FoamFile
{
    version     2.0;
    format      ascii;
    class       volScalarField;
    location    "0.49";
    object      nut;
}
// * * * * * * * * * * * * * * * * * * * * * * * * * * * * * * * * * * * * * //

dimensions      [0 2 -1 0 0 0 0];

internalField   nonuniform List<scalar> 
70000
(
0
0
0
0
0
0
0
0
0
0
0
0
0
0
0
0
0
0
0
0
0
0
0
0
0
0
0
0
0
0
0
0
0
0
0
0
0
0
0
0
0
2.0097e-14
0
1.1558e-13
0
3.16343e-13
0
1.07732e-12
0
0
0
0
0
0
0
0
0
0
0
0
0
0
0
0
0
0
0
0
0
0
0
0
0
0
0
0
0
0
0
0
0
0
0
0
0
0
0
0
0
0
0
6.08193e-14
0
2.35183e-13
0
6.18558e-13
0
2.16329e-12
2.42488e-13
0
0
0
0
0
0
0
0
0
0
0
0
0
0
0
0
0
0
0
0
0
0
0
0
0
0
0
0
0
0
0
0
0
0
0
0
0
0
0
0
0
0
8.01836e-14
0
2.98417e-13
0
8.15108e-13
0
2.82061e-12
4.92029e-12
0
0
0
0
0
0
0
0
0
0
0
0
0
0
0
0
0
0
0
0
0
0
0
0
0
0
0
0
0
0
0
0
0
0
0
0
0
0
0
0
0
0
0
0
2.22019e-13
0
8.1741e-13
0
2.67386e-12
9.20182e-12
0
0
0
0
0
0
0
0
0
0
0
0
0
0
0
0
0
0
0
0
0
0
0
0
0
0
0
0
0
0
0
0
0
0
0
0
0
0
0
0
0
0
0
0
5.96558e-14
0
6.6638e-13
0
2.02426e-12
1.12527e-11
0
9.44937e-10
0
0
0
0
0
0
0
0
0
0
0
0
0
0
0
0
0
0
0
0
0
0
0
0
0
0
0
0
0
0
0
0
0
0
0
0
0
0
0
0
0
0
0
0
4.30609e-13
0
1.28734e-12
1.18066e-11
0
1.3189e-08
0
0
0
0
0
0
0
0
0
0
0
0
0
0
0
0
0
0
0
0
0
0
0
0
0
0
0
0
0
0
0
0
0
0
0
0
0
0
0
0
0
0
0
0
1.18914e-13
0
5.00417e-13
1.18159e-11
0
1.20826e-08
0
0
0
0
0
0
0
0
0
0
0
0
0
0
0
0
0
0
0
0
0
0
0
0
0
0
0
0
0
0
0
0
0
0
0
0
0
0
0
0
0
0
0
0
0
0
0
1.14948e-11
0
1.10635e-08
0
0
0
0
0
0
0
0
0
0
0
0
0
0
0
0
0
0
0
0
0
0
0
0
0
0
0
0
0
0
0
0
0
0
0
0
0
0
0
0
0
0
0
0
0
0
0
1.07974e-11
0
1.02155e-08
0
0
0
0
0
0
0
0
0
0
0
0
0
0
0
0
0
0
0
0
0
0
0
0
0
0
0
0
0
0
0
0
0
0
0
0
0
0
0
0
0
0
0
0
0
0
0
9.72772e-12
0
9.50515e-09
0
0
0
0
0
0
0
0
0
0
0
0
0
0
0
0
0
0
0
0
0
0
0
0
0
0
0
0
0
0
0
0
0
0
0
0
0
0
0
0
0
0
0
0
0
0
0
8.41956e-12
0
8.86209e-09
0
0
0
0
0
0
0
0
0
0
0
0
0
0
0
0
0
0
0
0
0
0
0
0
0
0
0
0
0
0
0
0
0
0
0
0
0
0
0
0
0
0
0
0
0
0
0
7.01736e-12
0
8.22051e-09
0
0
0
0
0
0
0
0
0
0
0
0
0
0
0
0
0
0
0
0
0
0
0
0
0
0
0
0
0
0
0
0
0
0
0
0
0
0
0
0
0
0
0
0
0
0
0
5.57213e-12
0
7.56058e-09
0
0
0
0
0
0
0
0
0
0
0
0
7.62501e-13
0
0
0
0
0
0
0
0
0
0
0
0
0
0
0
0
0
0
0
0
0
0
0
0
0
0
0
0
0
0
0
0
0
0
4.08134e-12
0
6.88847e-09
0
0
0
0
0
0
0
0
0
0
0
0
0
0
0
2.74827e-11
2.99063e-11
9.95833e-12
0
0
0
0
0
0
0
0
0
0
0
0
0
0
0
0
0
0
0
0
0
0
0
0
0
0
0
3.09644e-13
0
2.51494e-12
0
6.21524e-09
0
0
0
0
0
0
0
0
0
0
0
0
0
0
0
0
0
0
1.97195e-11
4.0817e-11
4.5361e-11
2.86412e-11
9.90984e-12
3.77966e-13
0
0
0
0
0
0
0
0
0
0
0
0
0
0
0
0
0
0
0
0
0
8.29962e-13
0
7.46571e-13
0
5.54941e-09
0
0
0
5.08878e-11
0
0
0
0
0
0
0
0
0
0
0
0
0
0
0
0
0
0
9.80214e-12
2.36199e-11
3.36766e-11
3.66219e-11
2.87234e-11
1.48473e-11
4.43384e-12
0
0
0
0
0
0
0
0
0
0
0
0
0
0
0
0
1.69615e-12
0
0
0
4.89726e-09
0
0
0
1.30855e-10
0
0
0
0
0
0
0
0
0
0
0
0
0
0
0
0
0
0
0
0
0
0
0
0
2.03833e-12
6.64393e-12
9.37799e-12
9.4911e-12
6.45565e-12
6.24566e-13
0
0
0
0
0
0
0
0
0
0
0
3.74582e-12
0
0
0
4.26429e-09
0
0
0
1.81909e-10
0
0
0
0
0
0
0
0
0
0
0
0
0
0
0
0
0
0
0
0
0
0
0
0
0
0
0
0
0
0
0
0
0
0
0
0
0
0
0
0
0
0
0
2.0237e-11
0
3.65562e-09
0
0
0
1.88813e-10
0
0
0
0
0
0
0
0
0
0
0
0
0
0
0
0
0
0
0
0
0
0
0
0
0
0
0
0
0
0
0
0
0
0
0
0
0
0
0
0
0
0
0
1.67987e-10
3.69375e-10
3.07552e-09
0
0
0
1.34015e-10
0
0
0
0
0
0
0
0
0
0
0
0
0
0
0
0
0
0
0
0
0
0
0
0
0
0
0
0
0
0
0
0
0
0
0
0
0
0
0
0
0
0
0
1.21801e-10
2.78181e-10
2.52693e-09
0
0
0
0
0
0
0
0
0
0
0
0
0
0
0
0
0
0
0
0
0
0
0
0
0
0
0
0
0
0
0
0
0
0
0
0
0
0
0
0
0
0
0
0
0
0
0
1.10554e-10
2.52014e-10
2.01117e-09
0
0
0
0
0
0
0
0
0
0
0
0
0
0
0
0
0
0
0
0
0
0
0
0
0
0
0
0
0
0
0
0
0
0
0
0
0
0
0
0
0
0
0
0
0
0
0
1.18806e-10
2.57325e-10
1.52781e-09
0
0
0
0
0
0
0
0
0
0
0
0
0
0
0
0
0
0
0
0
0
0
0
0
0
0
0
0
0
0
0
0
0
0
0
0
0
0
0
0
0
0
0
0
0
0
0
1.42416e-10
2.84365e-10
1.07487e-09
0
0
0
0
0
0
0
0
0
0
0
0
0
0
0
0
0
0
0
0
0
0
0
0
0
0
0
0
0
0
0
0
0
0
0
0
0
0
0
0
0
0
0
0
0
0
1.83893e-11
1.77935e-10
3.26399e-10
6.49149e-10
0
0
0
0
0
0
0
0
0
0
0
0
0
0
0
0
0
0
0
0
0
0
0
0
0
0
0
0
0
0
0
0
0
0
0
0
0
0
0
0
0
0
0
0
0
0
5.01006e-11
2.22649e-10
3.78693e-10
2.46874e-10
0
0
0
0
0
0
0
0
0
0
0
0
0
0
0
0
0
0
0
0
0
0
0
0
0
0
0
0
0
0
0
0
0
0
0
0
0
0
0
0
0
0
0
0
0
0
8.66183e-11
2.74735e-10
4.38203e-10
0
0
0
0
0
0
0
0
0
0
0
0
0
0
0
0
0
0
0
0
0
0
0
0
0
0
0
0
0
0
0
0
0
0
0
0
0
0
0
0
0
0
0
0
0
0
0
1.27948e-10
3.32926e-10
5.03024e-10
0
0
0
0
0
0
0
0
0
0
0
0
0
0
0
0
0
0
0
0
0
0
0
0
0
0
0
0
0
0
0
0
0
0
0
0
0
0
0
0
0
0
0
0
0
0
2.4558e-11
1.74104e-10
3.96346e-10
5.71868e-10
0
0
0
0
0
0
0
0
0
0
0
0
0
0
0
0
0
0
0
0
0
0
0
0
0
0
0
0
0
0
0
0
0
0
0
0
0
0
0
0
0
0
0
0
0
0
5.82379e-11
2.25047e-10
4.64338e-10
6.43637e-10
0
0
0
0
0
0
0
0
0
0
0
0
0
0
0
0
0
0
0
0
0
0
0
0
0
0
0
0
0
0
0
0
0
0
0
0
0
0
0
0
0
0
0
0
0
0
9.65649e-11
2.80608e-10
5.3624e-10
7.17435e-10
0
0
0
0
0
0
0
0
0
0
0
0
0
0
0
0
0
0
0
0
0
0
0
0
0
0
0
0
0
0
0
0
0
0
0
0
0
0
0
0
0
0
0
0
0
0
1.39411e-10
3.40434e-10
6.11223e-10
7.9222e-10
0
7.4405e-10
0
0
0
0
0
0
0
0
0
0
0
0
0
0
0
0
0
0
0
0
0
0
0
0
0
0
0
0
0
0
0
0
0
0
0
0
0
0
0
0
0
0
0
1.43978e-11
1.86486e-10
4.03908e-10
6.88182e-10
8.66568e-10
0
1.66042e-09
0
0
0
0
0
0
0
0
0
0
0
0
0
0
0
0
0
0
0
0
0
0
0
0
0
0
0
0
0
0
0
0
0
0
0
0
0
0
0
0
0
0
0
4.86463e-11
2.3733e-10
4.70197e-10
7.65805e-10
9.38869e-10
0
2.45107e-09
0
0
0
0
0
0
0
0
0
0
0
0
0
0
0
0
0
0
0
0
0
0
0
0
0
0
0
0
0
0
0
0
0
0
0
0
0
0
0
0
0
0
0
8.65128e-11
2.91265e-10
5.38186e-10
8.42493e-10
1.00729e-09
0
3.11843e-09
0
0
0
0
0
0
0
0
0
0
0
0
0
0
0
0
0
0
0
0
0
0
0
0
0
0
0
0
0
0
0
0
0
0
0
0
0
0
0
0
0
0
0
1.27512e-10
3.47342e-10
6.0643e-10
9.16287e-10
1.06966e-09
0
3.668e-09
0
0
0
0
0
0
0
0
0
0
0
0
0
0
0
0
0
0
0
0
0
0
0
0
0
0
0
0
0
0
0
0
0
0
0
0
0
0
0
0
0
0
0
1.70928e-10
4.04371e-10
6.73243e-10
9.85026e-10
1.12367e-09
0
4.1075e-09
0
0
0
0
0
0
0
0
0
0
0
0
0
0
0
0
0
0
0
0
0
0
0
0
0
0
0
0
0
0
0
0
0
0
0
0
0
0
0
0
0
0
2.86758e-11
2.15818e-10
4.6093e-10
7.3672e-10
1.04637e-09
1.16688e-09
0
4.44542e-09
0
0
0
0
0
0
0
0
0
0
0
0
0
0
0
0
0
0
0
0
0
0
0
0
0
0
0
0
0
0
0
0
0
0
0
0
0
0
0
0
0
0
6.12092e-11
2.61025e-10
5.15395e-10
7.94791e-10
1.09787e-09
1.19687e-09
0
4.69085e-09
0
0
0
0
0
0
0
0
0
0
0
0
0
0
0
0
0
0
0
0
0
0
0
0
0
0
0
0
0
0
0
0
0
0
0
0
0
0
0
0
0
0
9.44693e-11
3.05202e-10
5.65995e-10
8.45289e-10
1.13708e-09
1.2113e-09
0
4.85404e-09
0
0
0
0
0
0
0
0
0
0
0
0
0
0
0
0
0
0
0
0
0
0
0
0
0
0
0
0
0
0
0
0
0
0
0
0
0
0
0
0
0
0
1.27366e-10
3.46859e-10
6.10873e-10
8.86047e-10
1.16165e-09
1.20803e-09
0
4.94628e-09
0
0
0
0
0
0
0
0
0
0
0
0
0
0
0
0
0
0
0
0
0
0
0
0
0
0
0
0
0
0
0
0
0
0
0
0
0
0
0
0
0
0
1.58676e-10
3.84424e-10
6.48169e-10
9.14989e-10
1.16946e-09
1.18531e-09
0
4.97883e-09
0
0
0
0
0
0
0
0
0
0
0
0
0
0
0
0
0
0
0
0
0
0
0
0
0
0
0
0
0
0
0
0
0
0
0
0
0
0
0
0
0
0
1.87093e-10
4.16308e-10
6.761e-10
9.30238e-10
1.15874e-09
1.14184e-09
0
4.96201e-09
0
0
0
0
0
0
0
0
0
0
0
0
0
0
0
0
0
0
0
0
0
0
0
0
0
0
0
0
0
0
0
0
0
0
0
0
0
0
0
0
0
3.38009e-12
2.11281e-10
4.40983e-10
6.93053e-10
9.30218e-10
1.1282e-09
1.07702e-09
0
4.90487e-09
0
0
0
0
0
0
0
0
0
0
0
0
0
0
0
0
0
0
0
0
0
0
0
0
0
0
0
0
0
0
0
0
0
0
0
0
0
0
0
0
0
1.91786e-11
2.29946e-10
4.57054e-10
6.97667e-10
9.13778e-10
1.07719e-09
9.91012e-10
0
4.81509e-09
0
0
0
0
0
0
0
0
0
0
0
0
0
0
0
0
0
0
0
0
0
0
0
0
0
0
0
0
0
0
0
0
0
0
0
0
0
0
0
0
0
3.08552e-11
2.41898e-10
4.63333e-10
6.88937e-10
8.80307e-10
1.00582e-09
8.84878e-10
0
4.69907e-09
0
0
0
0
0
0
0
0
0
0
0
0
0
0
0
0
0
0
0
0
0
0
0
0
0
0
0
0
0
0
0
0
0
0
0
0
0
0
0
0
0
3.73946e-11
2.46113e-10
4.58918e-10
6.66297e-10
8.29831e-10
9.15042e-10
7.60726e-10
0
4.56211e-09
0
0
0
0
0
0
0
0
0
0
0
0
0
0
0
0
0
0
0
0
0
0
0
0
0
0
0
0
0
0
0
0
0
0
0
0
0
0
0
0
0
3.79126e-11
2.41797e-10
4.43262e-10
6.29712e-10
7.63109e-10
8.06804e-10
6.21794e-10
0
4.40858e-09
0
0
0
0
0
0
0
0
0
0
0
0
0
0
0
0
0
0
0
0
0
0
0
0
0
0
0
0
0
0
0
0
0
0
0
0
0
0
0
0
0
3.17087e-11
2.2844e-10
4.16243e-10
5.79745e-10
6.81697e-10
6.84074e-10
4.72564e-10
0
4.24222e-09
0
0
0
0
0
0
0
0
0
0
0
0
0
0
0
0
0
0
0
0
0
0
0
0
0
0
0
0
0
0
0
0
0
0
0
0
0
0
0
0
0
1.83131e-11
2.0587e-10
3.78219e-10
5.17596e-10
5.87973e-10
5.50923e-10
3.18801e-10
0
4.06625e-09
0
0
0
0
0
0
0
0
0
0
0
0
0
0
0
0
0
0
0
0
0
0
0
0
0
0
0
0
0
0
0
0
0
0
0
0
0
0
0
0
0
0
1.74298e-10
3.30057e-10
4.451e-10
4.85156e-10
4.12509e-10
1.67461e-10
0
3.88351e-09
0
0
0
0
0
0
0
0
0
0
0
0
0
0
0
0
0
0
0
0
0
0
0
0
0
0
0
0
0
0
0
0
0
0
0
0
0
0
0
0
0
0
1.34338e-10
2.73121e-10
3.64709e-10
3.77249e-10
2.74956e-10
2.64394e-11
0
3.69641e-09
0
0
0
0
0
0
0
0
0
0
0
0
0
0
0
0
0
0
0
0
0
0
0
0
0
0
0
0
0
0
0
0
0
0
0
0
0
0
0
0
0
0
8.69855e-11
2.09225e-10
2.79413e-10
2.68894e-10
1.45059e-10
0
0
3.50711e-09
0
0
0
0
0
0
0
0
0
0
0
0
0
0
0
0
0
0
0
0
0
0
0
0
0
0
0
0
0
0
0
0
0
0
0
0
0
0
0
0
0
0
3.35792e-11
1.40558e-10
1.92604e-10
1.65101e-10
2.98006e-11
0
0
3.31762e-09
0
0
0
0
0
0
0
0
0
0
0
0
0
0
0
0
0
0
0
0
0
0
0
0
0
0
0
0
0
0
0
0
0
0
0
0
0
0
0
0
0
0
0
6.95583e-11
1.07845e-10
7.08167e-11
0
0
0
3.12981e-09
0
0
0
0
0
0
0
0
0
0
0
0
0
0
0
0
0
0
0
0
0
0
0
0
0
0
0
0
0
0
0
0
0
0
0
0
0
0
0
0
0
0
0
0
2.85113e-11
0
0
0
0
2.94533e-09
0
0
0
0
0
0
0
0
0
0
0
0
0
0
0
0
0
0
0
0
0
0
0
0
0
0
0
0
0
0
0
0
0
0
0
0
0
0
0
0
0
0
0
0
0
0
0
0
0
2.76557e-09
0
0
0
0
0
0
0
0
0
0
0
0
0
0
0
0
0
0
0
0
0
0
0
0
0
0
0
0
0
0
0
0
0
0
0
0
0
0
0
0
0
0
0
0
0
0
0
0
0
2.59168e-09
0
0
0
0
0
0
0
0
0
0
0
0
0
0
0
0
0
0
0
0
0
0
0
0
0
0
0
0
0
0
0
0
0
0
0
0
0
0
0
0
0
0
0
0
0
0
0
0
0
2.4245e-09
0
0
0
0
0
0
0
0
0
0
0
0
0
0
0
0
0
0
0
0
0
0
0
0
0
0
0
0
0
0
0
0
0
0
0
0
0
0
0
0
0
0
0
0
0
0
0
0
0
2.26466e-09
1.61321e-11
0
0
0
0
0
0
0
0
0
0
0
0
0
0
0
0
0
0
0
0
0
0
0
0
0
0
0
0
0
0
0
0
0
0
0
0
0
0
0
0
0
0
0
0
0
0
1.74381e-11
0
2.11258e-09
8.48218e-11
0
0
0
0
0
0
0
0
0
0
0
0
0
0
0
0
0
0
0
0
0
0
0
0
0
0
0
0
0
0
0
0
0
0
0
0
0
0
0
0
0
0
0
0
0
0
7.10697e-11
0
1.96854e-09
1.37559e-10
0
0
0
0
0
0
0
0
0
0
0
0
0
0
0
0
0
0
0
0
0
0
0
0
0
0
0
0
0
0
0
0
0
0
0
0
0
0
0
0
0
0
0
0
0
0
9.22333e-11
0
1.83267e-09
1.76766e-10
0
0
0
0
0
0
0
0
0
0
0
0
0
0
0
0
0
0
0
0
0
0
0
0
0
0
0
0
0
0
0
0
0
0
0
0
0
0
0
0
0
0
0
0
0
0
7.85223e-11
0
1.705e-09
2.04615e-10
0
0
0
0
0
0
0
0
0
0
0
0
0
0
0
0
0
0
0
0
0
0
0
0
0
0
0
0
0
0
0
0
0
0
0
0
0
0
0
0
0
0
0
0
0
0
3.6394e-11
0
1.5855e-09
2.2302e-10
0
0
0
0
0
0
0
0
0
0
0
0
0
0
0
0
0
0
0
0
0
0
0
0
0
0
0
0
0
0
0
0
0
0
0
0
0
0
0
0
0
0
0
0
0
0
0
0
1.47406e-09
2.33634e-10
0
0
0
0
0
0
0
0
0
0
0
0
0
0
0
0
0
0
0
0
0
0
0
0
0
0
0
0
0
0
0
0
0
0
0
0
0
0
0
0
0
0
0
0
0
0
0
0
1.37052e-09
2.37874e-10
0
0
0
0
0
0
0
0
0
0
0
0
0
0
0
0
0
0
0
0
0
0
0
0
0
0
0
0
0
0
0
0
0
0
0
0
0
0
0
0
0
0
0
0
0
0
0
0
1.27465e-09
2.36963e-10
0
0
0
0
0
0
0
0
0
0
0
0
0
0
0
0
0
0
0
0
0
0
0
0
0
0
0
0
0
0
0
0
0
0
0
0
0
0
0
0
0
0
0
0
0
0
0
0
1.18622e-09
2.31948e-10
0
0
0
0
0
0
0
0
0
0
0
0
0
0
0
0
0
0
0
0
0
0
0
0
0
0
0
0
0
0
0
0
0
0
0
0
0
0
0
0
0
0
0
0
0
0
0
0
1.10499e-09
2.2373e-10
0
0
0
0
0
0
0
0
0
0
0
0
0
0
0
0
0
0
0
0
0
0
0
0
0
0
0
0
0
0
0
0
0
0
0
0
0
0
0
0
0
0
0
0
0
0
1.51626e-10
0
1.03071e-09
2.13076e-10
0
0
0
0
0
0
0
0
0
0
0
0
0
0
0
0
0
0
0
0
0
0
0
0
0
0
0
0
0
0
0
0
0
0
0
0
0
0
0
0
0
0
0
0
0
0
3.84515e-10
0
9.63172e-10
2.00631e-10
0
0
0
0
0
0
0
0
0
0
0
0
0
0
0
0
0
0
0
0
0
0
0
0
0
0
0
0
0
0
0
0
0
0
0
0
0
0
0
0
0
0
0
0
0
0
7.02733e-10
0
9.02162e-10
1.86961e-10
0
0
0
0
0
0
0
0
0
0
0
0
0
0
0
0
0
0
0
0
0
0
0
0
0
0
0
0
0
0
0
0
0
0
0
0
0
0
0
0
0
0
0
0
0
2.86358e-10
1.10809e-09
0
8.47527e-10
1.7255e-10
0
0
0
0
0
0
0
0
0
0
0
0
0
0
0
0
0
0
0
0
0
0
0
0
0
0
0
0
0
0
0
0
0
0
0
0
0
0
0
0
0
0
0
1.50593e-10
3.31781e-10
6.70198e-10
1.60061e-09
0
7.99155e-10
1.5783e-10
0
0
0
0
0
0
0
0
0
0
0
0
0
0
0
0
0
0
0
0
0
0
0
0
0
0
0
0
0
0
0
0
0
0
0
0
0
0
0
0
2.67735e-11
1.88693e-10
3.63667e-10
5.4828e-10
7.58462e-10
1.14347e-09
2.17936e-09
0
7.57009e-10
1.43217e-10
0
0
0
0
0
0
0
0
0
0
0
0
0
0
0
0
0
0
0
0
0
0
0
0
0
0
0
0
0
0
0
0
0
0
0
0
0
0
7.332e-11
2.41653e-10
4.22999e-10
6.16864e-10
8.22871e-10
1.03701e-09
1.27599e-09
1.7062e-09
2.84305e-09
0
7.2114e-10
1.29144e-10
0
0
0
0
0
0
0
0
0
0
0
0
0
0
0
0
0
0
0
0
0
0
0
0
0
0
0
0
0
0
0
0
0
0
0
0
1.24292e-10
3.02856e-10
4.91888e-10
6.94056e-10
9.09981e-10
1.13769e-09
1.37539e-09
1.6185e-09
1.88476e-09
2.35759e-09
3.59031e-09
0
6.91728e-10
1.16102e-10
0
0
0
0
0
0
0
0
0
0
0
0
0
0
0
0
0
0
0
0
0
0
0
0
0
0
0
0
0
0
0
0
0
0
1.7361e-10
3.68615e-10
5.67464e-10
7.77048e-10
1.00104e-09
1.23996e-09
1.49229e-09
1.75442e-09
2.02312e-09
2.29343e-09
2.58441e-09
3.09652e-09
4.41994e-09
0
6.6913e-10
1.0471e-10
0
0
0
0
0
0
0
0
0
0
0
0
0
0
0
0
0
0
0
0
0
0
0
0
0
0
0
0
0
0
0
0
2.2489e-10
4.46435e-10
6.59211e-10
8.74408e-10
1.10143e-09
1.34513e-09
1.60665e-09
1.88396e-09
2.1732e-09
2.46904e-09
2.76696e-09
3.06183e-09
3.37436e-09
3.922e-09
5.33116e-09
0
6.53946e-10
9.5782e-11
0
0
0
0
0
0
0
0
0
0
0
0
0
0
0
0
0
0
0
0
0
0
0
0
0
0
0
0
0
1.366e-12
2.8999e-10
5.46844e-10
7.83469e-10
1.01166e-09
1.23875e-09
1.47607e-09
1.7334e-09
2.01311e-09
2.31342e-09
2.62945e-09
2.95487e-09
3.2827e-09
3.60725e-09
3.92344e-09
4.25398e-09
4.83315e-09
6.32354e-09
0
6.47108e-10
9.0454e-11
0
0
0
0
0
0
0
0
0
0
0
0
0
0
0
0
0
0
0
0
0
0
0
0
0
0
0
2.95068e-11
3.81102e-10
6.88404e-10
9.59135e-10
1.20511e-09
1.44015e-09
1.67701e-09
1.92083e-09
2.18118e-09
2.46967e-09
2.78592e-09
3.12493e-09
3.47879e-09
3.83865e-09
4.19593e-09
4.54396e-09
4.87786e-09
5.22266e-09
5.8293e-09
7.39687e-09
0
6.50037e-10
9.03823e-11
0
0
0
0
0
0
0
0
0
0
0
0
0
0
0
0
0
0
0
0
0
0
0
0
0
6.82408e-11
4.92978e-10
8.69312e-10
1.19688e-09
1.48131e-09
1.73361e-09
1.96886e-09
2.20332e-09
2.45063e-09
2.71335e-09
2.9966e-09
3.31571e-09
3.66761e-09
4.04389e-09
4.43353e-09
4.82514e-09
5.20866e-09
5.57659e-09
5.92439e-09
6.2797e-09
6.90985e-09
8.55069e-09
0
6.64874e-10
9.8053e-11
0
0
0
0
0
0
0
0
0
0
0
0
0
0
0
0
0
0
0
0
0
0
0
1.1036e-10
6.03546e-10
1.05988e-09
1.46788e-09
1.82263e-09
2.12624e-09
2.38756e-09
2.62121e-09
2.8459e-09
3.08062e-09
3.33983e-09
3.62345e-09
3.92841e-09
4.27616e-09
4.66135e-09
5.07214e-09
5.49436e-09
5.91416e-09
6.32011e-09
6.70411e-09
7.06195e-09
7.42414e-09
8.07416e-09
9.78403e-09
0
6.94857e-10
1.17229e-10
0
0
0
0
0
0
0
0
0
0
0
0
0
0
0
0
0
0
0
0
0
1.74165e-10
6.98676e-10
1.21927e-09
1.71372e-09
2.16407e-09
2.55879e-09
2.89424e-09
3.17506e-09
3.41369e-09
3.62883e-09
3.84319e-09
4.07896e-09
4.35129e-09
4.65767e-09
4.98231e-09
5.35502e-09
5.76943e-09
6.21043e-09
6.66079e-09
7.10432e-09
7.52838e-09
7.92442e-09
8.28856e-09
8.65423e-09
9.32079e-09
1.10946e-08
0
7.44884e-10
1.53705e-10
0
0
0
0
0
0
0
0
0
0
0
0
0
0
0
0
0
0
0
3.42543e-10
8.32343e-10
1.34841e-09
1.88797e-09
2.424e-09
2.92765e-09
3.37918e-09
3.76638e-09
4.08663e-09
4.34729e-09
4.56473e-09
4.7622e-09
4.9668e-09
5.20441e-09
5.49094e-09
5.82153e-09
6.16419e-09
6.55576e-09
6.9933e-09
7.45839e-09
7.93092e-09
8.39261e-09
8.82976e-09
9.23358e-09
9.6004e-09
9.96638e-09
1.06465e-08
1.24776e-08
0
8.2255e-10
2.16512e-10
0
0
0
0
0
0
0
0
0
0
0
0
0
0
0
0
2.58737e-10
6.75446e-10
1.11215e-09
1.57767e-09
2.07143e-09
2.59078e-09
3.14611e-09
3.71006e-09
4.23524e-09
4.69901e-09
5.0878e-09
5.39975e-09
5.64504e-09
5.84432e-09
6.02585e-09
6.22165e-09
6.46183e-09
6.76348e-09
7.11919e-09
7.47923e-09
7.88081e-09
8.33284e-09
8.81359e-09
9.30045e-09
9.77331e-09
1.02177e-08
1.06246e-08
1.09906e-08
1.13541e-08
1.2045e-08
1.39255e-08
0
9.39848e-10
3.19862e-10
0
0
0
0
0
0
0
0
0
0
0
0
0
0
5.00895e-10
1.00195e-09
1.47818e-09
1.93673e-09
2.39461e-09
2.86646e-09
3.35845e-09
3.87629e-09
4.44256e-09
5.05097e-09
5.61637e-09
6.10947e-09
6.5143e-09
6.82928e-09
7.06737e-09
7.25391e-09
7.42276e-09
7.61143e-09
7.85502e-09
8.17257e-09
8.55409e-09
8.93166e-09
9.33161e-09
9.78603e-09
1.02708e-08
1.07614e-08
1.12362e-08
1.16803e-08
1.20848e-08
1.24466e-08
1.28051e-08
1.35046e-08
1.54305e-08
0
1.11619e-09
4.86e-10
0
0
0
0
0
0
0
0
0
0
0
0
4.73265e-10
1.08349e-09
1.68151e-09
2.24493e-09
2.76378e-09
3.24352e-09
3.70598e-09
4.17325e-09
4.65629e-09
5.16663e-09
5.73372e-09
6.40368e-09
7.03861e-09
7.58716e-09
8.0299e-09
8.36509e-09
8.60861e-09
8.79102e-09
8.9525e-09
9.13688e-09
9.38501e-09
9.7193e-09
1.01272e-08
1.05241e-08
1.09079e-08
1.13481e-08
1.18208e-08
1.23004e-08
1.27647e-08
1.31987e-08
1.35935e-08
1.39466e-08
1.4298e-08
1.5004e-08
1.6972e-08
0
1.38386e-09
7.49349e-10
0
0
0
0
0
0
0
0
0
0
3.71219e-10
9.4375e-10
1.59315e-09
2.30505e-09
2.9667e-09
3.56227e-09
4.08904e-09
4.55661e-09
4.99734e-09
5.44304e-09
5.90777e-09
6.40336e-09
6.96507e-09
7.69478e-09
8.44931e-09
9.09416e-09
9.60824e-09
9.98971e-09
1.02579e-08
1.04493e-08
1.06116e-08
1.07961e-08
1.10501e-08
1.14017e-08
1.1836e-08
1.22556e-08
1.26058e-08
1.30088e-08
1.34468e-08
1.38948e-08
1.4331e-08
1.47408e-08
1.51159e-08
1.5454e-08
1.57961e-08
1.65064e-08
1.85108e-08
0
1.79805e-09
1.16107e-09
0
0
0
0
0
0
0
0
3.63477e-10
8.88703e-10
1.45225e-09
2.09532e-09
2.84227e-09
3.65861e-09
4.36126e-09
4.94141e-09
5.4214e-09
5.82522e-09
6.20443e-09
6.60324e-09
7.0378e-09
7.51041e-09
8.06117e-09
8.83513e-09
9.77185e-09
1.05732e-08
1.12075e-08
1.16734e-08
1.19946e-08
1.22149e-08
1.23907e-08
1.25822e-08
1.28447e-08
1.3214e-08
1.36745e-08
1.41219e-08
1.44186e-08
1.47525e-08
1.51232e-08
1.55095e-08
1.58917e-08
1.62566e-08
1.65967e-08
1.69098e-08
1.72378e-08
1.79496e-08
1.99807e-08
0
2.45459e-09
1.78959e-09
0
0
0
0
0
0
4.52989e-10
9.94094e-10
1.51841e-09
2.06009e-09
2.66445e-09
3.3786e-09
4.22403e-09
5.13907e-09
5.84873e-09
6.35558e-09
6.72147e-09
6.99619e-09
7.26209e-09
7.5805e-09
7.96816e-09
8.41077e-09
8.94348e-09
9.73042e-09
1.09117e-08
1.19507e-08
1.27723e-08
1.33748e-08
1.37877e-08
1.40641e-08
1.42709e-08
1.44792e-08
1.4754e-08
1.51411e-08
1.56268e-08
1.61024e-08
1.63371e-08
1.65531e-08
1.68103e-08
1.70914e-08
1.73816e-08
1.76706e-08
1.79525e-08
1.82247e-08
1.8529e-08
1.92357e-08
2.12767e-08
0
3.51755e-09
2.70642e-09
0
0
0
0
5.95385e-10
1.22333e-09
1.78137e-09
2.30365e-09
2.82397e-09
3.38275e-09
4.03034e-09
4.81737e-09
5.75694e-09
6.74641e-09
7.39922e-09
7.76866e-09
7.95544e-09
8.04166e-09
8.14668e-09
8.3521e-09
8.67493e-09
9.08175e-09
9.58708e-09
1.03538e-08
1.17482e-08
1.3142e-08
1.42358e-08
1.50416e-08
1.55967e-08
1.59649e-08
1.62262e-08
1.64645e-08
1.67567e-08
1.71609e-08
1.7669e-08
1.8166e-08
1.83369e-08
1.8371e-08
1.84507e-08
1.85655e-08
1.8709e-08
1.88772e-08
1.90664e-08
1.92739e-08
1.95388e-08
2.02263e-08
2.225e-08
0
5.27373e-09
3.94453e-09
4.15235e-10
0
6.22471e-10
1.42416e-09
2.14014e-09
2.74528e-09
3.27882e-09
3.78311e-09
4.29858e-09
4.8717e-09
5.55931e-09
6.41658e-09
7.4404e-09
8.4556e-09
8.9562e-09
9.14194e-09
9.12148e-09
9.00762e-09
8.94656e-09
9.0335e-09
9.28563e-09
9.65806e-09
1.013e-08
1.08382e-08
1.22509e-08
1.40785e-08
1.55314e-08
1.66121e-08
1.73659e-08
1.78677e-08
1.82116e-08
1.84963e-08
1.88128e-08
1.92334e-08
1.97599e-08
2.02665e-08
2.03648e-08
2.01486e-08
1.9974e-08
1.98475e-08
1.9776e-08
1.97651e-08
1.98159e-08
1.99255e-08
2.01285e-08
2.07748e-08
2.27416e-08
0
8.18127e-09
5.42219e-09
1.89196e-09
1.61987e-09
2.24763e-09
3.05504e-09
3.79826e-09
4.41043e-09
4.93965e-09
5.43791e-09
5.95375e-09
6.54066e-09
7.26276e-09
8.17944e-09
9.25768e-09
1.01884e-08
1.04385e-08
1.04336e-08
1.02554e-08
1.00263e-08
9.8821e-09
9.90701e-09
1.01161e-08
1.04689e-08
1.09198e-08
1.1543e-08
1.26597e-08
1.47393e-08
1.66034e-08
1.80179e-08
1.90249e-08
1.97035e-08
2.01594e-08
2.0507e-08
2.08536e-08
2.12879e-08
2.18246e-08
2.23213e-08
2.23158e-08
2.17949e-08
2.13038e-08
2.08747e-08
2.05303e-08
2.0289e-08
2.01588e-08
2.01373e-08
2.02538e-08
2.08341e-08
2.27002e-08
5.98628e-10
1.25898e-08
6.73935e-09
3.34956e-09
3.23667e-09
3.81514e-09
4.5782e-09
5.4537e-09
6.15551e-09
6.73434e-09
7.25846e-09
7.7883e-09
8.38809e-09
9.13477e-09
1.00928e-08
1.11701e-08
1.18291e-08
1.18099e-08
1.16749e-08
1.14866e-08
1.13201e-08
1.1248e-08
1.13182e-08
1.15462e-08
1.19126e-08
1.23779e-08
1.29435e-08
1.37094e-08
1.51228e-08
1.73077e-08
1.90988e-08
2.0423e-08
2.1336e-08
2.19449e-08
2.23779e-08
2.2762e-08
2.32062e-08
2.37409e-08
2.41978e-08
2.40207e-08
2.31873e-08
2.2388e-08
2.16693e-08
2.10647e-08
2.06009e-08
2.02912e-08
2.0134e-08
2.01548e-08
2.06557e-08
2.24001e-08
6.59278e-09
1.7468e-08
7.58837e-09
4.62524e-09
4.72347e-09
5.30669e-09
5.9098e-09
6.81568e-09
7.83506e-09
8.59503e-09
9.21131e-09
9.78262e-09
1.03971e-08
1.11526e-08
1.21194e-08
1.31009e-08
1.33207e-08
1.31103e-08
1.29867e-08
1.29541e-08
1.29872e-08
1.30759e-08
1.3243e-08
1.35281e-08
1.3965e-08
1.45018e-08
1.51082e-08
1.57516e-08
1.64771e-08
1.76136e-08
1.96533e-08
2.13805e-08
2.2599e-08
2.34047e-08
2.39431e-08
2.43671e-08
2.48136e-08
2.53273e-08
2.56956e-08
2.52453e-08
2.4199e-08
2.32386e-08
2.23939e-08
2.16905e-08
2.11466e-08
2.07691e-08
2.05533e-08
2.05239e-08
2.09753e-08
2.26453e-08
2.23424e-08
1.87317e-08
8.30899e-09
6.24586e-09
6.28876e-09
6.86966e-09
7.39821e-09
7.93282e-09
9.09879e-09
1.03323e-08
1.11915e-08
1.18654e-08
1.25008e-08
1.32438e-08
1.41751e-08
1.49266e-08
1.46691e-08
1.44253e-08
1.44767e-08
1.47229e-08
1.49767e-08
1.51823e-08
1.55833e-08
1.59907e-08
1.64451e-08
1.69791e-08
1.74743e-08
1.80615e-08
1.86455e-08
1.92264e-08
2.01504e-08
2.19589e-08
2.3431e-08
2.43938e-08
2.50089e-08
2.54519e-08
2.58846e-08
2.63506e-08
2.65671e-08
2.58428e-08
2.487e-08
2.40544e-08
2.33948e-08
2.28861e-08
2.2518e-08
2.22783e-08
2.21562e-08
2.21827e-08
2.26731e-08
2.4402e-08
4.06932e-08
1.47435e-08
8.73399e-09
8.10009e-09
8.18319e-09
8.46024e-09
8.96506e-09
9.36865e-09
9.97598e-09
1.15519e-08
1.29068e-08
1.37993e-08
1.44827e-08
1.51912e-08
1.60322e-08
1.64063e-08
1.58789e-08
1.57448e-08
1.60456e-08
1.64868e-08
1.68189e-08
1.75097e-08
1.82696e-08
1.8766e-08
1.92632e-08
1.98001e-08
1.99386e-08
2.01008e-08
2.05306e-08
2.10438e-08
2.15388e-08
2.23939e-08
2.37742e-08
2.47347e-08
2.53443e-08
2.57688e-08
2.61713e-08
2.65752e-08
2.66422e-08
2.60047e-08
2.54708e-08
2.51161e-08
2.49134e-08
2.48167e-08
2.47823e-08
2.47834e-08
2.4812e-08
2.49252e-08
2.54827e-08
2.7341e-08
2.32988e-08
9.90956e-09
8.33859e-09
8.93597e-09
9.71072e-09
9.8719e-09
1.01458e-08
1.05666e-08
1.09156e-08
1.18548e-08
1.37285e-08
1.49258e-08
1.56815e-08
1.63409e-08
1.70475e-08
1.70509e-08
1.65673e-08
1.66911e-08
1.72172e-08
1.77034e-08
1.83539e-08
1.97686e-08
2.06817e-08
2.1236e-08
2.17824e-08
2.23754e-08
2.23314e-08
2.18968e-08
2.18538e-08
2.21137e-08
2.25049e-08
2.28797e-08
2.34269e-08
2.41413e-08
2.46344e-08
2.50033e-08
2.53681e-08
2.57267e-08
2.58257e-08
2.58415e-08
2.60191e-08
2.62903e-08
2.65696e-08
2.67961e-08
2.70641e-08
2.74814e-08
2.77912e-08
2.80687e-08
2.87631e-08
3.08456e-08
0
0
0
0
3.37331e-11
3.93888e-11
3.66104e-11
3.12017e-11
2.35066e-11
1.45495e-11
6.66302e-12
1.97362e-12
3.91971e-13
3.01777e-12
1.56934e-11
3.77192e-11
6.00959e-11
7.78918e-11
8.41111e-11
7.05304e-11
3.50923e-11
0
0
0
0
0
0
0
0
3.70616e-11
8.22395e-11
9.49811e-11
8.29857e-11
5.86708e-11
3.42008e-11
1.93687e-11
2.04615e-11
4.06814e-11
8.0414e-11
1.36314e-10
2.00763e-10
2.61858e-10
3.05463e-10
3.17926e-10
2.97023e-10
2.45535e-10
1.71596e-10
8.80188e-11
8.94451e-12
0
0
0
0
0
0
0
0
0
0
0
0
2.9611e-11
0
0
0
0
4.1648e-10
0
0
0
0
0
0
6.4267e-08
1.47468e-07
2.35851e-08
0
0
0
0
0
0
0
8.93117e-11
0
0
0
2.91466e-09
5.29845e-09
4.54732e-09
2.42144e-09
0
0
0
0
9.03277e-09
4.62398e-08
4.72062e-08
2.91871e-08
0
0
0
0
0
7.3776e-12
2.00744e-11
2.48805e-11
2.34145e-11
1.818e-11
1.13166e-11
5.13738e-12
1.30104e-12
0
1.95217e-12
1.32016e-11
3.38675e-11
5.64876e-11
7.61227e-11
8.62027e-11
8.18875e-11
6.09168e-11
2.47649e-11
0
0
0
0
0
0
3.16549e-12
4.78691e-11
7.43353e-11
8.04784e-11
7.09355e-11
5.34687e-11
3.59196e-11
2.45592e-11
2.40827e-11
3.7512e-11
6.5933e-11
1.07747e-10
1.56993e-10
2.03664e-10
2.35842e-10
2.41917e-10
2.21108e-10
1.75492e-10
1.10354e-10
3.43382e-11
0
0
0
0
0
0
0
0
0
0
0
0
0
0
0
0
0
0
0
0
0
0
0
0
0
8.92493e-09
1.67842e-07
2.68457e-08
0
0
0
0
0
0
0
4.6092e-10
0
0
0
1.79423e-09
4.84763e-09
4.52194e-09
2.74802e-09
0
0
0
0
1.59193e-09
4.67131e-08
4.46431e-08
4.65097e-08
1.03547e-09
0
1.40599e-11
0
0
0
6.67446e-12
1.40174e-11
1.51183e-11
1.20497e-11
7.22295e-12
2.827e-12
2.02295e-13
0
1.51263e-12
1.1519e-11
3.04023e-11
5.24419e-11
7.29754e-11
8.53794e-11
8.57684e-11
7.16055e-11
4.51122e-11
1.08597e-11
0
0
0
0
0
1.51566e-11
4.39663e-11
6.05236e-11
6.33923e-11
5.57882e-11
4.30645e-11
3.06184e-11
2.27612e-11
2.29346e-11
3.36062e-11
5.59738e-11
8.90887e-11
1.28352e-10
1.65285e-10
1.89548e-10
1.91945e-10
1.72665e-10
1.33818e-10
7.958e-11
1.49186e-11
0
0
0
0
0
0
0
0
0
0
0
0
0
0
0
0
0
0
0
0
0
0
0
0
0
0
1.86796e-07
2.97652e-08
0
0
0
0
0
0
0
6.79325e-10
0
0
0
4.66679e-10
4.33626e-09
4.47565e-09
3.06433e-09
0
0
0
0
0
3.98589e-08
3.33954e-08
6.06546e-08
9.0035e-08
0
2.35554e-11
0
0
0
0
6.47057e-12
8.60075e-12
6.88919e-12
3.54541e-12
6.25407e-13
0
0
2.23382e-12
1.14955e-11
2.84728e-11
4.87323e-11
6.84647e-11
8.21395e-11
8.48131e-11
7.40813e-11
5.24385e-11
2.44123e-11
0
0
0
0
0
1.96984e-11
3.97e-11
5.05682e-11
5.14279e-11
4.48524e-11
3.49258e-11
2.56384e-11
2.01821e-11
2.10972e-11
3.03671e-11
4.90631e-11
7.65092e-11
1.0929e-10
1.39023e-10
1.57312e-10
1.57317e-10
1.39136e-10
1.06273e-10
6.32102e-11
1.23045e-11
0
0
0
0
0
0
0
0
0
0
0
0
0
0
0
0
0
0
0
0
0
0
0
0
0
0
1.97524e-07
3.19589e-08
0
0
0
0
0
0
0
7.21683e-10
0
0
0
0
3.69205e-09
4.36488e-09
3.32527e-09
0
0
0
0
0
2.59096e-08
2.06276e-08
5.5766e-08
1.87373e-07
0
3.19445e-11
0
0
0
0
2.42745e-12
4.58233e-12
3.38175e-12
8.12894e-13
0
0
6.00874e-14
3.88652e-12
1.31263e-11
2.86866e-11
4.66799e-11
6.41089e-11
7.7427e-11
8.07745e-11
7.21551e-11
5.35497e-11
2.94482e-11
5.72355e-12
0
0
0
4.33127e-12
2.2696e-11
3.75414e-11
4.49191e-11
4.44035e-11
3.82729e-11
2.99097e-11
2.24943e-11
1.85265e-11
1.99583e-11
2.83668e-11
4.46554e-11
6.82915e-11
9.60586e-11
1.20606e-10
1.34719e-10
1.32486e-10
1.1429e-10
8.51748e-11
5.14476e-11
1.50775e-11
0
0
0
0
0
0
0
0
0
0
0
0
0
0
0
0
0
0
0
0
0
0
0
0
0
0
1.89242e-07
3.27605e-08
0
0
0
0
0
0
0
6.05601e-10
0
0
0
0
2.83077e-09
4.15305e-09
3.50087e-09
4.3463e-10
0
0
0
0
1.08217e-08
1.10388e-08
3.66336e-08
1.93739e-07
0
3.82402e-11
0
0
0
0
9.23286e-13
2.68664e-12
1.45501e-12
0
0
0
9.36289e-13
6.12388e-12
1.59823e-11
3.08354e-11
4.69025e-11
6.16762e-11
7.28409e-11
7.52091e-11
6.74346e-11
5.10818e-11
3.00718e-11
9.76669e-12
0
0
0
1.02094e-11
2.53355e-11
3.70144e-11
4.21496e-11
4.06592e-11
3.46819e-11
2.71847e-11
2.08711e-11
1.7795e-11
1.95612e-11
2.74074e-11
4.2093e-11
6.30215e-11
8.6309e-11
1.07296e-10
1.18398e-10
1.14136e-10
9.51574e-11
6.71558e-11
3.89523e-11
1.53582e-11
0
0
0
0
0
0
0
0
0
0
0
0
0
0
0
0
0
0
0
0
0
0
0
0
0
0
1.5182e-07
3.16293e-08
0
0
0
0
0
0
0
3.76118e-10
6.06983e-10
0
0
0
1.65193e-09
3.82832e-09
3.58376e-09
9.99384e-10
0
0
0
0
0
5.20377e-09
2.00821e-08
1.60539e-07
0
4.06493e-11
0
0
0
0
8.8636e-13
2.18413e-12
6.72424e-13
0
0
0
2.08643e-12
8.755e-12
1.96334e-11
3.43406e-11
4.93289e-11
6.19359e-11
6.98942e-11
6.9838e-11
6.13607e-11
4.6152e-11
2.76261e-11
1.03636e-11
0
0
2.2714e-12
1.43624e-11
2.75926e-11
3.73007e-11
4.09841e-11
3.88301e-11
3.29133e-11
2.59355e-11
2.03139e-11
1.78205e-11
1.98224e-11
2.742e-11
4.10887e-11
5.98203e-11
7.94416e-11
9.75372e-11
1.05822e-10
9.98437e-11
8.02854e-11
5.20947e-11
2.53322e-11
9.64508e-12
4.21403e-12
0
0
0
0
9.29264e-12
2.13696e-11
0
0
0
0
0
0
0
0
0
0
0
0
0
0
0
0
0
0
0
8.46462e-08
2.80962e-08
0
0
0
0
0
0
0
9.37594e-11
1.02043e-09
0
0
0
1.34733e-10
3.35726e-09
3.5723e-09
1.5116e-09
0
0
0
0
0
3.04317e-09
1.09154e-08
1.23458e-07
0
3.97702e-11
7.74699e-13
0
0
0
1.28078e-12
2.25203e-12
4.53304e-13
0
0
0
3.54738e-12
1.17507e-11
2.37875e-11
3.86455e-11
5.35594e-11
6.44578e-11
6.9156e-11
6.604e-11
5.56033e-11
4.01784e-11
2.31269e-11
8.32257e-12
0
0
5.20709e-12
1.68552e-11
2.90142e-11
3.76383e-11
4.04602e-11
3.79158e-11
3.2095e-11
2.55255e-11
2.04354e-11
1.84383e-11
2.07069e-11
2.83384e-11
4.12291e-11
5.79304e-11
7.53926e-11
9.04926e-11
9.5366e-11
8.73786e-11
6.78111e-11
4.04263e-11
1.36255e-11
1.97464e-13
7.07317e-12
2.13301e-11
2.12529e-11
1.30652e-11
2.51994e-11
6.52344e-11
7.41813e-11
0
0
0
0
0
0
0
0
0
0
0
0
0
0
0
0
0
0
0
2.41912e-09
2.19444e-08
0
0
0
0
0
0
0
0
1.20029e-09
0
0
0
0
2.68636e-09
3.4509e-09
1.92277e-09
0
0
0
0
0
3.39327e-09
6.56001e-09
9.16707e-08
0
3.703e-11
5.47608e-12
0
0
0
1.35296e-12
2.20695e-12
2.33244e-13
0
0
0
5.35772e-12
1.51774e-11
2.83471e-11
4.35553e-11
5.89296e-11
6.81963e-11
7.01749e-11
6.4171e-11
5.12915e-11
3.46565e-11
1.79678e-11
4.73169e-12
0
0
6.11685e-12
1.77652e-11
2.9355e-11
3.73541e-11
3.98957e-11
3.72349e-11
3.16094e-11
2.54724e-11
2.09062e-11
1.94463e-11
2.22011e-11
3.00265e-11
4.20374e-11
5.70285e-11
7.34393e-11
8.53828e-11
8.64245e-11
7.52784e-11
5.517e-11
3.05955e-11
6.273e-12
0
4.57113e-12
3.79085e-11
6.40658e-11
6.87196e-11
8.52746e-11
1.25371e-10
1.17637e-10
1.08282e-11
0
0
0
0
0
0
0
0
0
0
0
0
0
0
0
0
0
0
0
1.3332e-08
0
0
0
0
0
0
0
0
1.15605e-09
0
0
0
0
1.70454e-09
3.20103e-09
2.20308e-09
0
0
0
0
0
3.37913e-09
4.26408e-09
6.69347e-08
0
3.34332e-11
9.46695e-12
0
0
0
8.35278e-13
1.71977e-12
0
0
0
0
7.61108e-12
1.9206e-11
3.34822e-11
4.94265e-11
6.46217e-11
7.20789e-11
7.18566e-11
6.34984e-11
4.84112e-11
3.03841e-11
1.3417e-11
9.55819e-13
0
0
5.8149e-12
1.76488e-11
2.897e-11
3.65806e-11
3.89797e-11
3.64846e-11
3.11422e-11
2.54969e-11
2.15186e-11
2.0688e-11
2.42178e-11
3.22573e-11
4.34442e-11
5.7548e-11
7.2617e-11
8.13576e-11
7.87279e-11
6.32746e-11
4.06528e-11
1.9277e-11
2.15611e-12
0
5.17503e-12
4.74503e-11
1.00516e-10
1.27418e-10
1.42629e-10
1.83522e-10
1.67555e-10
5.1313e-11
0
0
0
0
0
0
0
0
0
0
0
0
0
0
0
0
0
0
0
2.80722e-09
0
0
0
0
0
4.73655e-10
0
0
9.3477e-10
3.24909e-10
0
0
0
2.96051e-10
2.79676e-09
2.34084e-09
3.72365e-11
0
0
0
0
8.27831e-10
1.8624e-09
4.80016e-08
0
2.9514e-11
1.29117e-11
0
0
0
0
7.53193e-13
0
0
0
7.83618e-13
1.05917e-11
2.41803e-11
3.97052e-11
5.67801e-11
7.01793e-11
7.53583e-11
7.29019e-11
6.26618e-11
4.61391e-11
2.71887e-11
1.00502e-11
0
0
0
5.60733e-12
1.75784e-11
2.86552e-11
3.5908e-11
3.80999e-11
3.56911e-11
3.06787e-11
2.55553e-11
2.22329e-11
2.21777e-11
2.66169e-11
3.46166e-11
4.57709e-11
5.97063e-11
7.22433e-11
7.73252e-11
7.09388e-11
5.12167e-11
2.44092e-11
4.1483e-12
0
0
1.623e-11
5.9764e-11
1.28408e-10
1.8593e-10
2.06552e-10
2.31795e-10
2.2332e-10
1.01796e-10
2.64598e-11
0
0
0
0
0
0
0
0
0
0
0
0
0
0
0
0
0
0
0
0
0
0
0
3.35196e-10
9.32724e-10
2.66697e-10
0
6.1201e-10
8.51577e-10
0
0
0
0
2.17718e-09
2.32675e-09