/*--------------------------------*- C++ -*----------------------------------*\
  =========                 |
  \\      /  F ield         | OpenFOAM: The Open Source CFD Toolbox
   \\    /   O peration     | Website:  https://openfoam.org
    \\  /    A nd           | Version:  7
     \\/     M anipulation  |
\*---------------------------------------------------------------------------*/
FoamFile
{
    version     2.0;
    format      ascii;
    class       surfaceScalarField;
    location    "0.49";
    object      phi;
}
// * * * * * * * * * * * * * * * * * * * * * * * * * * * * * * * * * * * * * //

dimensions      [0 3 -1 0 0 0 0];

internalField   nonuniform List<scalar> 
139350
(
6.45927e-08
9.20388e-08
3.19519e-08
3.26408e-08
2.30618e-08
8.89016e-09
1.95686e-08
3.49318e-09
1.76181e-08
1.95048e-09
1.61919e-08
1.42617e-09
1.50604e-08
1.13151e-09
1.41481e-08
9.12342e-10
1.33974e-08
7.50726e-10
1.27651e-08
6.32233e-10
1.22226e-08
5.42557e-10
1.17503e-08
4.72225e-10
1.13347e-08
4.15624e-10
1.09655e-08
3.69226e-10
1.06349e-08
3.30627e-10
1.03368e-08
2.98102e-10
1.00664e-08
2.70385e-10
9.81985e-09
2.46528e-10
9.59404e-09
2.2581e-10
9.38637e-09
2.07672e-10
9.19469e-09
1.91679e-10
9.01721e-09
1.77482e-10
8.85241e-09
1.648e-10
8.69901e-09
1.53405e-10
8.5559e-09
1.43108e-10
8.42215e-09
1.33749e-10
8.29695e-09
1.25194e-10
8.17962e-09
1.17332e-10
8.06957e-09
1.10056e-10
7.96628e-09
1.03289e-10
7.86934e-09
9.69386e-11
7.77838e-09
9.09531e-11
7.69315e-09
8.5234e-11
7.61339e-09
7.97583e-11
7.53899e-09
7.44014e-11
7.46983e-09
6.91631e-11
7.40593e-09
6.38961e-11
7.34738e-09
5.85549e-11
7.29428e-09
5.30973e-11
7.24718e-09
4.70945e-11
7.20596e-09
4.12225e-11
7.17256e-09
3.34042e-11
7.14533e-09
2.72238e-11
7.13052e-09
1.48138e-11
7.12075e-09
9.77043e-12
7.13601e-09
-1.52637e-11
7.14565e-09
-9.63844e-12
7.23901e-09
-9.33552e-11
7.09816e-09
1.40848e-10
-3.48469e-09
1.05828e-08
1.26026e-07
1.27456e-07
9.12649e-08
6.7402e-08
7.19462e-08
2.82089e-08
6.1222e-08
1.42173e-08
5.4779e-08
8.39356e-09
5.02885e-08
5.91659e-09
4.6808e-08
4.61209e-09
4.39958e-08
3.72451e-09
4.16729e-08
3.07362e-09
3.97146e-08
2.59049e-09
3.8034e-08
2.22324e-09
3.65708e-08
1.93535e-09
3.52826e-08
1.70387e-09
3.41377e-08
1.51416e-09
3.3112e-08
1.35632e-09
3.21868e-08
1.22329e-09
3.13472e-08
1.10992e-09
3.05814e-08
1.01232e-09
2.98797e-08
9.27564e-10
2.9234e-08
8.53366e-10
2.86377e-08
7.87945e-10
2.80853e-08
7.29882e-10
2.75721e-08
6.78032e-10
2.7094e-08
6.31458e-10
2.66478e-08
5.8939e-10
2.62303e-08
5.51183e-10
2.58392e-08
5.16292e-10
2.54723e-08
4.8426e-10
2.51277e-08
4.54675e-10
2.48038e-08
4.27207e-10
2.44992e-08
4.01512e-10
2.42128e-08
3.7736e-10
2.39436e-08
3.54399e-10
2.36909e-08
3.3251e-10
2.3454e-08
3.11237e-10
2.32326e-08
2.90613e-10
2.30265e-08
2.69955e-10
2.28356e-08
2.49474e-10
2.26605e-08
2.28204e-10
2.25013e-08
2.06273e-10
2.23596e-08
1.82944e-10
2.22364e-08
1.56643e-10
2.21337e-08
1.29867e-10
2.20562e-08
9.23218e-11
2.20029e-08
6.30786e-11
2.19955e-08
-7.83357e-12
2.19999e-08
-1.40763e-11
2.21711e-08
-2.64524e-10
2.21195e-08
1.92468e-10
-4.5844e-09
2.32192e-08
1.58807e-07
1.35053e-07
1.36496e-07
8.97134e-08
1.17498e-07
4.72073e-08
1.03324e-07
2.83912e-08
9.33212e-08
1.8396e-08
8.6024e-08
1.32138e-08
8.03231e-08
1.03131e-08
7.56769e-08
8.37066e-09
7.18036e-08
6.94696e-09
6.85163e-08
5.87776e-09
6.5682e-08
5.05751e-09
6.3206e-08
4.41137e-09
6.10197e-08
3.89018e-09
5.90719e-08
3.46195e-09
5.73233e-08
3.10485e-09
5.57433e-08
2.80332e-09
5.43074e-08
2.54589e-09
5.29957e-08
2.32399e-09
5.17922e-08
2.13105e-09
5.06836e-08
1.96199e-09
4.96587e-08
1.81281e-09
4.87083e-08
1.68032e-09
4.78244e-08
1.56196e-09
4.70002e-08
1.4556e-09
4.62301e-08
1.35951e-09
4.5509e-08
1.27225e-09
4.48327e-08
1.19257e-09
4.41975e-08
1.11946e-09
4.36002e-08
1.05199e-09
4.3038e-08
9.89406e-10
4.25086e-08
9.30967e-10
4.20098e-08
8.76135e-10
4.154e-08
8.24168e-10
4.10978e-08
7.74772e-10
4.0682e-08
7.26986e-10
4.02917e-08
6.80903e-10
3.99267e-08
6.34956e-10
3.95863e-08
5.8995e-10
3.92714e-08
5.43079e-10
3.89814e-08
4.96289e-10
3.87194e-08
4.4489e-10
3.84845e-08
3.91561e-10
3.82832e-08
3.3114e-10
3.81153e-08
2.60238e-10
3.79894e-08
1.89031e-10
3.79194e-08
6.21762e-11
3.7885e-08
2.02814e-11
3.80314e-08
-4.10927e-10
3.81489e-08
7.50061e-11
-4.74969e-09
3.83141e-08
1.75664e-07
1.30904e-07
1.65596e-07
9.97817e-08
1.52727e-07
6.00759e-08
1.40132e-07
4.09863e-08
1.29448e-07
2.90804e-08
1.2081e-07
2.18513e-08
1.13704e-07
1.74192e-08
1.07729e-07
1.43453e-08
1.02635e-07
1.20412e-08
9.82391e-08
1.02737e-08
9.4402e-08
8.89459e-09
9.10183e-08
7.79514e-09
8.80079e-08
6.90052e-09
8.53095e-08
6.16034e-09
8.28748e-08
5.53958e-09
8.06652e-08
5.0129e-09
7.86497e-08
4.56145e-09
7.68027e-08
4.17097e-09
7.51033e-08
3.83048e-09
7.35338e-08
3.53139e-09
7.20797e-08
3.26691e-09
7.07285e-08
3.03161e-09
6.94694e-08
2.82105e-09
6.82934e-08
2.63161e-09
6.71926e-08
2.46028e-09
6.61603e-08
2.30455e-09
6.51906e-08
2.16228e-09
6.42784e-08
2.03168e-09
6.34192e-08
1.91116e-09
6.26092e-08
1.79941e-09
6.1845e-08
1.69513e-09
6.11238e-08
1.59739e-09
6.0443e-08
1.50493e-09
5.98006e-08
1.41721e-09
5.91949e-08
1.33264e-09
5.86244e-08
1.25136e-09
5.80887e-08
1.17071e-09
5.75864e-08
1.09224e-09
5.71187e-08
1.01078e-09
5.66842e-08
9.30792e-10
5.62869e-08
8.4218e-10
5.59245e-08
7.53938e-10
5.56059e-08
6.49717e-10
5.53284e-08
5.37795e-10
5.51051e-08
4.12278e-10
5.49456e-08
2.21715e-10
5.48436e-08
1.22275e-10
5.49034e-08
-4.70732e-10
5.50944e-08
-1.15926e-10
-4.6342e-09
5.49789e-08
1.8456e-07
1.2313e-07
1.82321e-07
1.0202e-07
1.76105e-07
6.62926e-08
1.67765e-07
4.93261e-08
1.59146e-07
3.7699e-08
1.51242e-07
2.97554e-08
1.44175e-07
2.44861e-08
1.37882e-07
2.06389e-08
1.32287e-07
1.76353e-08
1.27309e-07
1.52522e-08
1.2286e-07
1.33431e-08
1.18865e-07
1.17901e-08
1.1526e-07
1.05064e-08
1.11989e-07
9.43086e-09
1.09009e-07
8.51949e-09
1.06283e-07
7.73952e-09
1.03778e-07
7.06609e-09
1.01469e-07
6.47998e-09
9.93332e-08
5.96617e-09
9.73518e-08
5.51278e-09
9.55085e-08
5.11026e-09
9.37892e-08
4.7509e-09
9.21819e-08
4.42836e-09
9.06761e-08
4.13741e-09
8.92627e-08
3.87368e-09
8.79337e-08
3.63348e-09
8.66823e-08
3.4137e-09
8.55023e-08
3.21166e-09
8.43885e-08
3.02505e-09
8.3336e-08
2.85187e-09
8.23409e-08
2.69026e-09
8.13995e-08
2.53876e-09
8.05088e-08
2.39558e-09
7.96662e-08
2.25984e-09
7.88696e-08
2.12928e-09
7.81169e-08
2.00404e-09
7.74074e-08
1.88025e-09
7.67393e-08
1.76027e-09
7.61138e-08
1.63634e-09
7.5529e-08
1.51561e-09
7.49889e-08
1.3822e-09
7.44911e-08
1.25177e-09
7.40446e-08
1.09619e-09
7.36466e-08
9.35857e-10
7.33109e-08
7.47922e-10
7.30455e-08
4.87143e-10
7.28552e-08
3.12555e-10
7.28059e-08
-4.21414e-10
7.29626e-08
-2.72585e-10
-4.40696e-09
7.27353e-08
1.90388e-07
1.14958e-07
1.91852e-07
1.00557e-07
1.90244e-07
6.78999e-08
1.86156e-07
5.34146e-08
1.8072e-07
4.31346e-08
1.7497e-07
3.55057e-08
1.69278e-07
3.01779e-08
1.638e-07
2.61173e-08
1.58631e-07
2.28044e-08
1.53813e-07
2.00699e-08
1.4935e-07
1.78064e-08
1.45225e-07
1.59153e-08
1.41413e-07
1.43177e-08
1.3789e-07
1.29546e-08
1.34627e-07
1.17817e-08
1.31602e-07
1.07648e-08
1.28791e-07
9.87711e-09
1.26174e-07
9.09714e-09
1.23732e-07
8.40774e-09
1.2145e-07
7.79503e-09
1.19313e-07
7.24766e-09
1.17307e-07
6.75629e-09
1.15422e-07
6.31313e-09
1.13648e-07
5.91166e-09
1.11976e-07
5.54637e-09
1.10396e-07
5.21256e-09
1.08904e-07
4.90622e-09
1.07492e-07
4.6239e-09
1.06154e-07
4.36255e-09
1.04887e-07
4.11958e-09
1.03684e-07
3.89252e-09
1.02544e-07
3.67943e-09
1.01461e-07
3.47796e-09
1.00434e-07
3.28691e-09
9.94601e-08
3.10332e-09
9.85368e-08
2.92729e-09
9.76633e-08
2.75382e-09
9.68376e-08
2.58589e-09
9.60606e-08
2.41338e-09
9.53305e-08
2.24572e-09
9.46508e-08
2.06185e-09
9.40196e-08
1.88299e-09
9.34448e-08
1.67102e-09
9.29251e-08
1.45555e-09
9.24723e-08
1.20066e-09
9.20959e-08
8.63626e-10
9.18053e-08
6.03072e-10
9.16417e-08
-2.57817e-10
9.17084e-08
-3.39255e-10
-4.08229e-09
9.13837e-08
1.95541e-07
1.07232e-07
1.98247e-07
9.78503e-08
1.98969e-07
6.71784e-08
1.97789e-07
5.45942e-08
1.95159e-07
4.57648e-08
1.9182e-07
3.88448e-08
1.88092e-07
3.39061e-08
1.84146e-07
3.00633e-08
1.80131e-07
2.68193e-08
1.76157e-07
2.40436e-08
1.72293e-07
2.16708e-08
1.68576e-07
1.96317e-08
1.65028e-07
1.78657e-08
1.61657e-07
1.63259e-08
1.58463e-07
1.49758e-08
1.55442e-07
1.37858e-08
1.52587e-07
1.27319e-08
1.4989e-07
1.17941e-08
1.47342e-07
1.0956e-08
1.44933e-07
1.02038e-08
1.42654e-07
9.52602e-09
1.40498e-07
8.91284e-09
1.38455e-07
8.35604e-09
1.36518e-07
7.84851e-09
1.3468e-07
7.38419e-09
1.32935e-07
6.95779e-09
1.31276e-07
6.56476e-09
1.29699e-07
6.2011e-09
1.28199e-07
5.86328e-09
1.2677e-07
5.54823e-09
1.25409e-07
5.25303e-09
1.24113e-07
4.97534e-09
1.22879e-07
4.71235e-09
1.21703e-07
4.46254e-09
1.20584e-07
4.22242e-09
1.1952e-07
3.99194e-09
1.18508e-07
3.76519e-09
1.17549e-07
3.54553e-09
1.16641e-07
3.32092e-09
1.15785e-07
3.10237e-09
1.14982e-07
2.86486e-09
1.14231e-07
2.63318e-09
1.1354e-07
2.36246e-09
1.12909e-07
2.08666e-09
1.12346e-07
1.76347e-09
1.11864e-07
1.34545e-09
1.11474e-07
9.93699e-10
1.11197e-07
1.83371e-11
1.11155e-07
-2.96514e-10
-3.66446e-09
1.10737e-07
2.00848e-07
9.99688e-08
2.03776e-07
9.49226e-08
2.05327e-07
6.56271e-08
2.05643e-07
5.42781e-08
2.04818e-07
4.65902e-08
2.03338e-07
4.0324e-08
2.01393e-07
3.58511e-08
1.99067e-07
3.23899e-08
1.96464e-07
2.9422e-08
1.93688e-07
2.68199e-08
1.90819e-07
2.45401e-08
1.87917e-07
2.25336e-08
1.85027e-07
2.07559e-08
1.8218e-07
1.91724e-08
1.794e-07
1.77564e-08
1.767e-07
1.64858e-08
1.74089e-07
1.53423e-08
1.71573e-07
1.43098e-08
1.69155e-07
1.33749e-08
1.66833e-07
1.25259e-08
1.64606e-07
1.17526e-08
1.62473e-07
1.10463e-08
1.60429e-07
1.03993e-08
1.58473e-07
9.80502e-09
1.566e-07
9.25741e-09
1.54806e-07
8.75128e-09
1.53089e-07
8.282e-09
1.51444e-07
7.84546e-09
1.4987e-07
7.43795e-09
1.48362e-07
7.05622e-09
1.46918e-07
6.69711e-09
1.45535e-07
6.35807e-09
1.44211e-07
6.03601e-09
1.42945e-07
5.7292e-09
1.41733e-07
5.43374e-09
1.40576e-07
5.1495e-09
1.39471e-07
4.86983e-09
1.38418e-07
4.59831e-09
1.37418e-07
4.32152e-09
1.36469e-07
4.05125e-09
1.35574e-07
3.76005e-09
1.34733e-07
3.47394e-09
1.3395e-07
3.14504e-09
1.33231e-07
2.80639e-09
1.32578e-07
2.41642e-09
1.32007e-07
1.91576e-09
1.3153e-07
1.4713e-09
1.31152e-07
3.96455e-10
1.30998e-07
-1.43103e-10
-3.16893e-09
1.30503e-07
2.06447e-07
9.30539e-08
2.09339e-07
9.20302e-08
2.11037e-07
6.39297e-08
2.11931e-07
5.33837e-08
2.12001e-07
4.65202e-08
2.11616e-07
4.07087e-08
2.10889e-07
3.65784e-08
2.09822e-07
3.34572e-08
2.08452e-07
3.0792e-08
2.06837e-07
2.84346e-08
2.05034e-07
2.63437e-08
2.0309e-07
2.44771e-08
2.01049e-07
2.27968e-08
1.98947e-07
2.12747e-08
1.96812e-07
1.98907e-08
1.9467e-07
1.86287e-08
1.92537e-07
1.74752e-08
1.90428e-07
1.64186e-08
1.88354e-07
1.54488e-08
1.86323e-07
1.4557e-08
1.8434e-07
1.37353e-08
1.8241e-07
1.29767e-08
1.80534e-07
1.22751e-08
1.78714e-07
1.16246e-08
1.76951e-07
1.10203e-08
1.75245e-07
1.04575e-08
1.73595e-07
9.932e-09
1.72001e-07
9.43993e-09
1.70461e-07
8.97779e-09
1.68975e-07
8.54244e-09
1.67541e-07
8.13076e-09
1.66159e-07
7.74021e-09
1.64827e-07
7.36762e-09
1.63545e-07
7.01121e-09
1.62312e-07
6.66686e-09
1.61127e-07
6.33439e-09
1.5999e-07
6.00672e-09
1.58901e-07
5.68745e-09
1.5786e-07
5.36239e-09
1.56868e-07
5.04334e-09
1.55926e-07
4.70192e-09
1.55037e-07
4.36322e-09
1.54202e-07
3.97992e-09
1.53429e-07
3.57943e-09
1.52719e-07
3.12688e-09
1.52088e-07
2.54634e-09
1.51548e-07
2.011e-09
1.5109e-07
8.54579e-10
1.50838e-07
1.08903e-10
-2.61785e-09
1.50287e-07
2.12289e-07
8.64275e-08
2.15152e-07
8.91668e-08
2.16791e-07
6.22908e-08
2.17843e-07
5.23313e-08
2.1826e-07
4.61041e-08
2.18377e-07
4.05911e-08
2.18304e-07
3.66521e-08
2.18007e-07
3.37537e-08
2.1748e-07
3.13189e-08
2.16741e-07
2.91735e-08
2.15814e-07
2.72707e-08
2.14724e-07
2.55671e-08
2.13497e-07
2.40239e-08
2.12158e-07
2.26137e-08
2.10731e-07
2.13179e-08
2.09237e-07
2.01227e-08
2.07695e-07
1.90173e-08
2.06121e-07
1.79926e-08
2.04529e-07
1.7041e-08
2.0293e-07
1.61558e-08
2.01334e-07
1.53313e-08
1.99748e-07
1.45623e-08
1.98179e-07
1.38439e-08
1.96632e-07
1.31719e-08
1.9511e-07
1.2542e-08
1.93617e-07
1.19506e-08
1.92155e-07
1.13942e-08
1.90726e-07
1.08694e-08
1.8933e-07
1.03731e-08
1.8797e-07
9.90266e-09
1.86646e-07
9.45507e-09
1.85358e-07
9.02801e-09
1.84107e-07
8.61841e-09
1.82894e-07
8.22459e-09
1.81718e-07
7.84239e-09
1.80581e-07
7.47163e-09
1.79483e-07
7.10507e-09
1.78424e-07
6.74618e-09
1.77406e-07
6.38058e-09
1.7643e-07
6.01939e-09
1.75497e-07
5.63472e-09
1.74611e-07
5.24888e-09
1.73773e-07
4.81803e-09
1.72992e-07
4.36058e-09
1.72267e-07
3.8522e-09
1.71614e-07
3.19923e-09
1.71046e-07
2.57839e-09
1.70541e-07
1.36049e-09
1.70214e-07
4.3535e-10
-2.03798e-09
1.69634e-07
2.1833e-07
8.00783e-08
2.21206e-07
8.62908e-08
2.22764e-07
6.07328e-08
2.23843e-07
5.12521e-08
2.24369e-07
4.55785e-08
2.24664e-07
4.02958e-08
2.24866e-07
3.64498e-08
2.24948e-07
3.36721e-08
2.24886e-07
3.13804e-08
2.24682e-07
2.93781e-08
2.24339e-07
2.76138e-08
2.23863e-07
2.60427e-08
2.23264e-07
2.4623e-08
2.22553e-07
2.3325e-08
2.21742e-07
2.21287e-08
2.20845e-07
2.10199e-08
2.19874e-07
1.99879e-08
2.18843e-07
1.90242e-08
2.17761e-07
1.8122e-08
2.16641e-07
1.72759e-08
2.15492e-07
1.64809e-08
2.14321e-07
1.57331e-08
2.13136e-07
1.50287e-08
2.11944e-07
1.43643e-08
2.10749e-07
1.37366e-08
2.09557e-07
1.31428e-08
2.08371e-07
1.258e-08
2.07195e-07
1.20454e-08
2.06032e-07
1.15364e-08
2.04884e-07
1.10507e-08
2.03753e-07
1.05856e-08
2.02642e-07
1.01392e-08
2.01552e-07
9.70845e-09
2.00485e-07
9.29194e-09
1.99442e-07
8.88556e-09
1.98424e-07
8.48917e-09
1.97434e-07
8.09558e-09
1.96472e-07
7.70799e-09
1.9554e-07
7.31233e-09
1.94641e-07
6.91851e-09
1.93775e-07
6.50021e-09
1.92949e-07
6.07565e-09
1.9216e-07
5.60654e-09
1.9142e-07
5.10043e-09
1.90727e-07
4.5451e-09
1.90095e-07
3.83115e-09
1.8954e-07
3.13377e-09
1.89025e-07
1.87536e-09
1.88657e-07
8.03305e-10
-1.45938e-09
1.88079e-07
2.24559e-07
7.40129e-08
2.2747e-07
8.33794e-08
2.28961e-07
5.92423e-08
2.30045e-07
5.01676e-08
2.30612e-07
4.50116e-08
2.30956e-07
3.99517e-08
2.31248e-07
3.61581e-08
2.31477e-07
3.34426e-08
2.31624e-07
3.12332e-08
2.31687e-07
2.93154e-08
2.31665e-07
2.76363e-08
2.31555e-07
2.61523e-08
2.31358e-07
2.48201e-08
2.31075e-07
2.36077e-08
2.3071e-07
2.24934e-08
2.30269e-07
2.14616e-08
2.29756e-07
2.05005e-08
2.29179e-07
1.96011e-08
2.28545e-07
1.87564e-08
2.2786e-07
1.79607e-08
2.27131e-07
1.72095e-08
2.26366e-07
1.64989e-08
2.25569e-07
1.58258e-08
2.24746e-07
1.5187e-08
2.23902e-07
1.458e-08
2.23043e-07
1.40022e-08
2.22172e-07
1.34512e-08
2.21292e-07
1.29247e-08
2.20408e-07
1.24204e-08
2.19523e-07
1.19363e-08
2.18638e-07
1.147e-08
2.17758e-07
1.10197e-08
2.16883e-07
1.05828e-08
2.16018e-07
1.01578e-08
2.15162e-07
9.7408e-09
2.1432e-07
9.33169e-09
2.13492e-07
8.92346e-09
2.12681e-07
8.51888e-09
2.11889e-07
8.10458e-09
2.11118e-07
7.68882e-09
2.10371e-07
7.2477e-09
2.09652e-07
6.79446e-09
2.08961e-07
6.2976e-09
2.08308e-07
5.75334e-09
2.07692e-07
5.16119e-09
2.07123e-07
4.40027e-09
2.06619e-07
3.63822e-09
2.06134e-07
2.35975e-09
2.05761e-07
1.17614e-09
-9.12445e-10
2.05214e-07
2.30979e-07
6.82394e-08
2.33935e-07
8.04242e-08
2.35366e-07
5.7811e-08
2.36457e-07
4.9077e-08
2.37057e-07
4.44111e-08
2.37416e-07
3.95923e-08
2.3773e-07
3.58447e-08
2.38005e-07
3.31672e-08
2.38228e-07
3.10105e-08
2.384e-07
2.91436e-08
2.38523e-07
2.75134e-08
2.38595e-07
2.60801e-08
2.38614e-07
2.48013e-08
2.38577e-07
2.36441e-08
2.38485e-07
2.25855e-08
2.38338e-07
2.1609e-08
2.38136e-07
2.0702e-08
2.37883e-07
1.98547e-08
2.3758e-07
1.90593e-08
2.37231e-07
1.83097e-08
2.36839e-07
1.76011e-08
2.36409e-07
1.69295e-08
2.35943e-07
1.62914e-08
2.35446e-07
1.56842e-08
2.34921e-07
1.51051e-08
2.34371e-07
1.45518e-08
2.338e-07
1.4022e-08
2.33211e-07
1.35137e-08
2.32607e-07
1.30246e-08
2.31991e-07
1.25529e-08
2.31364e-07
1.20964e-08
2.30731e-07
1.16534e-08
2.30092e-07
1.12213e-08
2.29451e-07
1.07988e-08
2.2881e-07
1.03821e-08
2.28171e-07
9.97096e-09
2.27535e-07
9.55866e-09
2.26907e-07
9.14744e-09
2.26287e-07
8.72481e-09
2.25678e-07
8.2971e-09
2.25083e-07
7.84334e-09
2.24506e-07
7.37143e-09
2.23946e-07
6.85697e-09
2.23414e-07
6.28564e-09
2.22908e-07
5.66683e-09
2.22435e-07
4.87365e-09
2.22013e-07
4.06043e-09
2.21592e-07
2.78034e-09
2.21248e-07
1.52018e-09
-4.23559e-10
2.20759e-07
2.376e-07
6.27637e-08
2.40602e-07
7.74226e-08
2.41976e-07
5.64368e-08
2.43072e-07
4.79814e-08
2.4371e-07
4.37734e-08
2.44082e-07
3.92193e-08
2.44401e-07
3.5526e-08
2.44689e-07
3.28793e-08
2.44935e-07
3.07649e-08
2.45143e-07
2.89351e-08
2.4532e-07
2.73361e-08
2.45468e-07
2.59329e-08
2.45584e-07
2.46854e-08
2.45667e-07
2.35608e-08
2.45716e-07
2.25361e-08
2.45731e-07
2.15944e-08
2.4571e-07
2.07228e-08
2.45654e-07
1.99111e-08
2.45562e-07
1.91508e-08
2.45436e-07
1.84356e-08
2.45277e-07
1.77602e-08
2.45086e-07
1.71203e-08
2.44865e-07
1.65124e-08
2.44616e-07
1.59334e-08
2.44341e-07
1.53807e-08
2.44041e-07
1.48519e-08
2.43718e-07
1.43447e-08
2.43375e-07
1.38569e-08
2.43013e-07
1.33864e-08
2.42634e-07
1.29313e-08
2.42241e-07
1.24896e-08
2.41835e-07
1.20593e-08
2.41418e-07
1.16381e-08
2.40993e-07
1.12245e-08
2.4056e-07
1.08148e-08
2.40122e-07
1.04087e-08
2.39681e-07
9.99956e-09
2.3924e-07
9.58905e-09
2.38799e-07
9.16575e-09
2.38362e-07
8.73383e-09
2.3793e-07
8.27548e-09
2.37508e-07
7.7933e-09
2.37095e-07
7.26965e-09
2.367e-07
6.6813e-09
2.36322e-07
6.04476e-09
2.35963e-07
5.23287e-09
2.35641e-07
4.38206e-09
2.35306e-07
3.1155e-09
2.35015e-07
1.81065e-09
-1.07372e-11
2.34602e-07
2.44431e-07
5.75894e-08
2.47472e-07
7.43814e-08
2.48797e-07
5.51116e-08
2.49893e-07
4.68855e-08
2.50569e-07
4.3097e-08
2.50959e-07
3.88293e-08
2.51283e-07
3.52027e-08
2.51576e-07
3.25859e-08
2.51829e-07
3.05116e-08
2.52049e-07
2.87158e-08
2.52243e-07
2.71417e-08
2.52416e-07
2.57598e-08
2.52569e-07
2.45327e-08
2.52701e-07
2.34285e-08
2.52813e-07
2.24243e-08
2.52904e-07
2.15037e-08
2.52973e-07
2.06536e-08
2.5302e-07
1.98638e-08
2.53045e-07
1.91259e-08
2.53047e-07
1.84331e-08
2.53028e-07
1.778e-08
2.52986e-07
1.71622e-08
2.52922e-07
1.65758e-08
2.52838e-07
1.60179e-08
2.52733e-07
1.54856e-08
2.52609e-07
1.49763e-08
2.52465e-07
1.44878e-08
2.52305e-07
1.40178e-08
2.52127e-07
1.35642e-08
2.51933e-07
1.3125e-08
2.51725e-07
1.26978e-08
2.51503e-07
1.22811e-08
2.51269e-07
1.18721e-08
2.51024e-07
1.14694e-08
2.5077e-07
1.10693e-08
2.50507e-07
1.06711e-08
2.50238e-07
1.02687e-08
2.49965e-07
9.86277e-09
2.49687e-07
9.44318e-09
2.49409e-07
9.01184e-09
2.49131e-07
8.55403e-09
2.48856e-07
8.06752e-09
2.48586e-07
7.54047e-09
2.48324e-07
6.94301e-09
2.48073e-07
6.29563e-09
2.4783e-07
5.47607e-09
2.47612e-07
4.59995e-09
2.47369e-07
3.35798e-09
2.47145e-07
2.03533e-09
3.18955e-10
2.46815e-07
2.51478e-07
5.27183e-08
2.54549e-07
7.13099e-08
2.55836e-07
5.38249e-08
2.56927e-07
4.57948e-08
2.57641e-07
4.23828e-08
2.58051e-07
3.84191e-08
2.5838e-07
3.48736e-08
2.58679e-07
3.22872e-08
2.58937e-07
3.02531e-08
2.59161e-07
2.84919e-08
2.59361e-07
2.69419e-08
2.59542e-07
2.55787e-08
2.59706e-07
2.43682e-08
2.59856e-07
2.32791e-08
2.59991e-07
2.22893e-08
2.60112e-07
2.13825e-08
2.6022e-07
2.05461e-08
2.60314e-07
1.97699e-08
2.60394e-07
1.90456e-08
2.6046e-07
1.83666e-08
2.60513e-07
1.77273e-08
2.60552e-07
1.71232e-08
2.60577e-07
1.65507e-08
2.60589e-07
1.60064e-08
2.60586e-07
1.54877e-08
2.60571e-07
1.49919e-08
2.60542e-07
1.45166e-08
2.605e-07
1.40596e-08
2.60446e-07
1.36187e-08
2.60379e-07
1.31917e-08
2.60301e-07
1.27763e-08
2.60211e-07
1.23708e-08
2.60111e-07
1.19723e-08
2.60001e-07
1.15794e-08
2.59881e-07
1.11884e-08
2.59754e-07
1.07981e-08
2.5962e-07
1.04029e-08
2.5948e-07
1.00026e-08
2.59335e-07
9.58822e-09
2.59188e-07
9.15948e-09
2.59037e-07
8.70454e-09
2.58888e-07
8.21706e-09
2.58738e-07
7.68979e-09
2.58593e-07
7.08858e-09
2.58453e-07
6.43497e-09
2.58314e-07
5.61569e-09
2.58189e-07
4.72447e-09
2.58033e-07
3.51398e-09
2.57874e-07
2.19427e-09
5.69761e-10
2.57623e-07
2.58751e-07
4.81505e-08
2.61842e-07
6.82183e-08
2.63101e-07
5.25663e-08
2.64181e-07
4.47145e-08
2.64931e-07
4.16334e-08
2.65363e-07
3.79868e-08
2.65699e-07
3.45376e-08
2.66003e-07
3.19829e-08
2.66267e-07
2.99891e-08
2.66495e-07
2.8264e-08
2.66698e-07
2.67391e-08
2.66882e-07
2.53946e-08
2.67051e-07
2.41997e-08
2.67205e-07
2.31244e-08
2.67348e-07
2.21467e-08
2.6748e-07
2.12508e-08
2.67601e-07
2.04245e-08
2.67713e-07
1.96578e-08
2.67816e-07
1.89427e-08
2.6791e-07
1.82725e-08
2.67996e-07
1.76418e-08
2.68073e-07
1.70462e-08
2.68142e-07
1.6482e-08
2.68202e-07
1.5946e-08
2.68254e-07
1.54356e-08
2.68298e-07
1.49481e-08
2.68333e-07
1.44812e-08
2.6836e-07
1.40326e-08
2.68379e-07
1.35999e-08
2.6839e-07
1.31812e-08
2.68392e-07
1.2774e-08
2.68386e-07
1.23764e-08
2.68373e-07
1.19857e-08
2.68352e-07
1.16001e-08
2.68325e-07
1.12159e-08
2.68291e-07
1.0832e-08
2.68251e-07
1.04427e-08
2.68207e-07
1.00472e-08
2.68157e-07
9.63744e-09
2.68105e-07
9.21141e-09
2.6805e-07
8.75963e-09
2.67995e-07
8.27255e-09
2.67939e-07
7.74612e-09
2.67883e-07
7.14428e-09
2.67831e-07
6.48714e-09
2.67773e-07
5.67316e-09
2.67723e-07
4.77478e-09
2.67638e-07
3.59909e-09
2.67535e-07
2.29722e-09
7.54148e-10
2.6735e-07
2.66258e-07
4.38844e-08
2.6936e-07
6.5117e-08
2.70601e-07
5.13251e-08
2.71666e-07
4.36489e-08
2.72448e-07
4.08523e-08
2.72904e-07
3.75305e-08
2.73248e-07
3.41939e-08
2.73558e-07
3.16728e-08
2.73828e-07
2.9719e-08
2.7406e-07
2.80317e-08
2.74266e-07
2.65334e-08
2.74452e-07
2.52082e-08
2.74623e-07
2.40292e-08
2.74779e-07
2.29675e-08
2.74925e-07
2.20015e-08
2.7506e-07
2.11157e-08
2.75186e-07
2.02983e-08
2.75304e-07
1.95397e-08
2.75415e-07
1.88317e-08
2.75519e-07
1.81681e-08
2.75618e-07
1.75435e-08
2.7571e-07
1.69535e-08
2.75798e-07
1.63946e-08
2.7588e-07
1.58638e-08
2.75957e-07
1.53584e-08
2.76029e-07
1.48759e-08
2.76096e-07
1.4414e-08
2.76159e-07
1.39704e-08
2.76216e-07
1.35428e-08
2.76268e-07
1.31292e-08
2.76315e-07
1.2727e-08
2.76357e-07
1.23345e-08
2.76394e-07
1.19487e-08
2.76426e-07
1.15678e-08
2.76454e-07
1.11883e-08
2.76477e-07
1.08085e-08
2.76497e-07
1.04233e-08
2.76513e-07
1.0031e-08
2.76526e-07
9.62457e-09
2.76537e-07
9.20042e-09
2.76545e-07
8.75099e-09
2.76553e-07
8.26447e-09
2.76561e-07
7.73876e-09
2.76567e-07
7.1378e-09
2.76576e-07
6.47859e-09
2.76576e-07
5.67267e-09
2.76578e-07
4.77315e-09
2.76544e-07
3.63301e-09
2.76482e-07
2.35887e-09
8.88857e-10
2.76348e-07
2.74009e-07
3.99163e-08
2.77109e-07
6.2017e-08
2.78343e-07
5.00913e-08
2.7939e-07
4.26015e-08
2.80199e-07
4.00433e-08
2.80681e-07
3.70489e-08
2.81033e-07
3.38415e-08
2.81349e-07
3.13571e-08
2.81625e-07
2.94428e-08
2.81862e-07
2.77946e-08
2.82071e-07
2.63245e-08
2.8226e-07
2.50195e-08
2.82433e-07
2.38568e-08
2.82591e-07
2.28091e-08
2.82738e-07
2.18549e-08
2.82874e-07
2.09793e-08
2.83002e-07
2.01706e-08
2.83122e-07
1.94195e-08
2.83235e-07
1.87182e-08
2.83343e-07
1.80604e-08
2.83446e-07
1.74408e-08
2.83544e-07
1.68553e-08
2.83638e-07
1.63004e-08
2.83729e-07
1.57732e-08
2.83816e-07
1.52711e-08
2.839e-07
1.47918e-08
2.83982e-07
1.43329e-08
2.8406e-07
1.38924e-08
2.84134e-07
1.34678e-08
2.84206e-07
1.30572e-08
2.84275e-07
1.26582e-08
2.84341e-07
1.22686e-08
2.84404e-07
1.18857e-08
2.84464e-07
1.15077e-08
2.84522e-07
1.11309e-08
2.84577e-07
1.07535e-08
2.84629e-07
1.03708e-08
2.8468e-07
9.98017e-09
2.84729e-07
9.57572e-09
2.84777e-07
9.15246e-09
2.84823e-07
8.70429e-09
2.8487e-07
8.21806e-09
2.84916e-07
7.69249e-09
2.84961e-07
7.09308e-09
2.85007e-07
6.43267e-09
2.85043e-07
5.63618e-09
2.85076e-07
4.74008e-09
2.85075e-07
3.63479e-09
2.85039e-07
2.39451e-09
9.90905e-10
2.84937e-07
2.82013e-07
3.62411e-08
2.851e-07
5.89299e-08
2.86336e-07
4.88552e-08
2.87362e-07
4.1575e-08
2.88194e-07
3.92114e-08
2.88703e-07
3.65405e-08
2.89065e-07
3.34791e-08
2.89386e-07
3.10359e-08
2.89669e-07
2.91603e-08
2.89911e-07
2.75523e-08
2.90124e-07
2.6112e-08
2.90315e-07
2.48281e-08
2.90489e-07
2.36823e-08
2.9065e-07
2.2649e-08
2.90797e-07
2.1707e-08
2.90935e-07
2.08418e-08
2.91064e-07
2.0042e-08
2.91185e-07
1.92986e-08
2.91299e-07
1.86038e-08
2.91408e-07
1.79515e-08
2.91512e-07
1.73367e-08
2.91612e-07
1.67552e-08
2.91708e-07
1.62038e-08
2.91802e-07
1.56796e-08
2.91893e-07
1.51802e-08
2.91981e-07
1.47032e-08
2.92068e-07
1.42466e-08
2.92152e-07
1.38081e-08
2.92234e-07
1.33856e-08
2.92314e-07
1.2977e-08
2.92393e-07
1.25798e-08
2.92469e-07
1.2192e-08
2.92544e-07
1.1811e-08
2.92617e-07
1.14345e-08
2.92689e-07
1.10593e-08
2.92759e-07
1.06832e-08
2.92828e-07
1.03017e-08
2.92896e-07
9.91188e-09
2.92964e-07
9.50833e-09
2.93031e-07
9.08522e-09
2.93098e-07
8.63743e-09
2.93165e-07
8.15121e-09
2.93232e-07
7.62531e-09
2.93297e-07
7.02778e-09
2.93363e-07
6.36701e-09
2.93419e-07
5.58059e-09
2.93467e-07
4.69157e-09
2.93482e-07
3.61984e-09
2.93459e-07
2.41698e-09
1.07471e-09
2.93376e-07
2.90278e-07
3.28516e-08
2.93341e-07
5.58674e-08
2.94588e-07
4.76079e-08
2.95592e-07
4.05714e-08
2.96442e-07
3.83616e-08
2.96978e-07
3.60045e-08
2.97351e-07
3.31055e-08
2.97678e-07
3.07091e-08
2.97967e-07
2.88714e-08
2.98215e-07
2.73046e-08
2.98431e-07
2.58956e-08
2.98625e-07
2.46338e-08
2.98802e-07
2.35056e-08
2.98964e-07
2.24871e-08
2.99113e-07
2.15578e-08
2.99252e-07
2.07032e-08
2.99381e-07
1.99126e-08
2.99503e-07
1.91769e-08
2.99618e-07
1.84888e-08
2.99727e-07
1.78421e-08
2.99832e-07
1.72321e-08
2.99933e-07
1.66546e-08
3.0003e-07
1.61065e-08
3.00124e-07
1.55851e-08
3.00216e-07
1.50881e-08
3.00306e-07
1.46133e-08
3.00394e-07
1.41585e-08
3.00481e-07
1.37218e-08
3.00566e-07
1.33008e-08
3.00649e-07
1.28936e-08
3.00731e-07
1.24978e-08
3.00812e-07
1.21113e-08
3.00891e-07
1.17315e-08
3.0097e-07
1.1356e-08
3.01047e-07
1.09818e-08
3.01124e-07
1.06063e-08
3.012e-07
1.02255e-08
3.01276e-07
9.83584e-09
3.01352e-07
9.43256e-09
3.01428e-07
9.00924e-09
3.01504e-07
8.56131e-09
3.0158e-07
8.07505e-09
3.01657e-07
7.54866e-09
3.01731e-07
6.95333e-09
3.01805e-07
6.2932e-09
3.01869e-07
5.51727e-09
3.01922e-07
4.6384e-09
3.01943e-07
3.59899e-09
3.01924e-07
2.4355e-09
1.15084e-09
3.01848e-07
2.98815e-07
2.9739e-08
3.01841e-07
5.28415e-08
3.03107e-07
4.63415e-08
3.04087e-07
3.95914e-08
3.0495e-07
3.74995e-08
3.05514e-07
3.54403e-08
3.059e-07
3.2719e-08
3.06233e-07
3.03767e-08
3.06528e-07
2.85763e-08
3.06781e-07
2.7051e-08
3.07002e-07
2.5675e-08
3.07199e-07
2.44365e-08
3.07378e-07
2.33264e-08
3.07542e-07
2.23231e-08
3.07693e-07
2.14069e-08
3.07833e-07
2.05634e-08
3.07963e-07
1.97821e-08
3.08086e-07
1.90544e-08
3.08202e-07
1.83731e-08
3.08311e-07
1.77323e-08
3.08417e-07
1.7127e-08
3.08518e-07
1.65536e-08
3.08615e-07
1.60089e-08
3.0871e-07
1.54903e-08
3.08803e-07
1.49956e-08
3.08893e-07
1.45228e-08
3.08982e-07
1.40698e-08
3.09069e-07
1.36346e-08
3.09154e-07
1.32152e-08
3.09239e-07
1.28093e-08
3.09322e-07
1.24147e-08
3.09404e-07
1.20292e-08
3.09485e-07
1.16503e-08
3.09566e-07
1.12756e-08
3.09645e-07
1.09021e-08
3.09725e-07
1.0527e-08
3.09803e-07
1.01466e-08
3.09882e-07
9.75693e-09
3.09961e-07
9.35367e-09
3.1004e-07
8.93006e-09
3.1012e-07
8.48181e-09
3.10199e-07
7.99567e-09
3.10279e-07
7.46897e-09
3.10356e-07
6.87628e-09
3.10431e-07
6.21799e-09
3.10496e-07
5.45301e-09
3.10547e-07
4.58692e-09
3.10567e-07
3.57892e-09
3.10547e-07
2.45585e-09
1.22632e-09
3.10471e-07
3.07634e-07
2.68928e-08
3.10611e-07
4.98643e-08
3.11903e-07
4.50494e-08
3.12859e-07
3.8635e-08
3.13728e-07
3.66303e-08
3.1432e-07
3.48483e-08
3.14721e-07
3.23181e-08
3.1506e-07
3.00384e-08
3.15361e-07
2.8275e-08
3.15621e-07
2.67912e-08
3.15846e-07
2.54499e-08
3.16046e-07
2.42359e-08
3.16228e-07
2.31445e-08
3.16394e-07
2.2157e-08
3.16547e-07
2.12543e-08
3.16688e-07
2.04222e-08
3.1682e-07
1.96505e-08
3.16943e-07
1.89311e-08
3.17059e-07
1.82568e-08
3.1717e-07
1.76218e-08
3.17275e-07
1.70215e-08
3.17377e-07
1.64522e-08
3.17475e-07
1.59108e-08
3.1757e-07
1.53951e-08
3.17663e-07
1.49028e-08
3.17754e-07
1.44321e-08
3.17843e-07
1.39809e-08
3.1793e-07
1.35473e-08
3.18016e-07
1.31292e-08
3.18101e-07
1.27246e-08
3.18184e-07
1.23311e-08
3.18267e-07
1.19467e-08
3.18348e-07
1.15687e-08
3.18429e-07
1.11947e-08
3.1851e-07
1.08218e-08
3.1859e-07
1.04471e-08
3.18669e-07
1.00669e-08
3.18749e-07
9.67731e-09
3.18828e-07
9.27402e-09
3.18908e-07
8.85026e-09
3.18988e-07
8.40176e-09
3.19068e-07
7.91605e-09
3.19147e-07
7.3895e-09
3.19224e-07
6.79996e-09
3.19297e-07
6.14488e-09
3.19358e-07
5.39142e-09
3.19405e-07
4.5404e-09
3.19421e-07
3.5633e-09
3.19395e-07
2.48117e-09
1.30511e-09
3.19316e-07
3.16743e-07
2.43009e-08
3.1966e-07
4.69478e-08
3.20983e-07
4.37261e-08
3.21917e-07
3.77011e-08
3.22788e-07
3.57593e-08
3.23406e-07
3.42296e-08
3.23823e-07
3.19012e-08
3.24168e-07
2.96938e-08
3.24475e-07
2.79675e-08
3.24742e-07
2.65252e-08
3.24972e-07
2.52199e-08
3.25176e-07
2.40317e-08
3.2536e-07
2.29598e-08
3.25529e-07
2.19886e-08
3.25684e-07
2.10997e-08
3.25826e-07
2.02793e-08
3.25959e-07
1.95177e-08
3.26084e-07
1.88067e-08
3.26201e-07
1.81395e-08
3.26312e-07
1.75106e-08
3.26418e-07
1.69154e-08
3.2652e-07
1.63502e-08
3.26619e-07
1.58124e-08
3.26714e-07
1.52995e-08
3.26807e-07
1.48097e-08
3.26898e-07
1.4341e-08
3.26988e-07
1.38916e-08
3.27075e-07
1.34596e-08
3.27161e-07
1.3043e-08
3.27246e-07
1.26397e-08
3.2733e-07
1.22474e-08
3.27413e-07
1.1864e-08
3.27495e-07
1.14869e-08
3.27576e-07
1.11137e-08
3.27656e-07
1.07414e-08
3.27736e-07
1.03671e-08
3.27815e-07
9.98733e-09
3.27895e-07
9.59781e-09
3.27974e-07
9.19458e-09
3.28054e-07
8.7709e-09
3.28133e-07
8.3224e-09
3.28212e-07
7.83751e-09
3.28289e-07
7.31173e-09
3.28363e-07
6.72596e-09
3.28433e-07
6.07551e-09
3.2849e-07
5.33426e-09
3.2853e-07
4.5003e-09
3.28539e-07
3.55394e-09
3.28508e-07
2.513e-09
1.38941e-09
3.28423e-07
3.26154e-07
2.19498e-08
3.28998e-07
4.41037e-08
3.30356e-07
4.2368e-08
3.31269e-07
3.67878e-08
3.32137e-07
3.48911e-08
3.32781e-07
3.35859e-08
3.33215e-07
3.14668e-08
3.33567e-07
2.93423e-08
3.3388e-07
2.7654e-08
3.34153e-07
2.62525e-08
3.34388e-07
2.49846e-08
3.34596e-07
2.38236e-08
3.34784e-07
2.27719e-08
3.34955e-07
2.18175e-08
3.35112e-07
2.09429e-08
3.35257e-07
2.01348e-08
3.35391e-07
1.93834e-08
3.35517e-07
1.86811e-08
3.35635e-07
1.80213e-08
3.35747e-07
1.73986e-08
3.35854e-07
1.68085e-08
3.35956e-07
1.62477e-08
3.36055e-07
1.57134e-08
3.36151e-07
1.52035e-08
3.36245e-07
1.47161e-08
3.36336e-07
1.42496e-08
3.36426e-07
1.3802e-08
3.36514e-07
1.33717e-08
3.366e-07
1.29565e-08
3.36685e-07
1.25545e-08
3.36769e-07
1.21635e-08