/*--------------------------------*- C++ -*----------------------------------*\
  =========                 |
  \\      /  F ield         | OpenFOAM: The Open Source CFD Toolbox
   \\    /   O peration     | Website:  https://openfoam.org
    \\  /    A nd           | Version:  7
     \\/     M anipulation  |
\*---------------------------------------------------------------------------*/
FoamFile
{
    version     2.0;
    format      ascii;
    class       volVectorField;
    location    "0.49";
    object      U;
}
// * * * * * * * * * * * * * * * * * * * * * * * * * * * * * * * * * * * * * //

dimensions      [0 1 -1 0 0 0 0];

internalField   nonuniform List<vector> 
70000
(
(0.553391 0.016723 0)
(0.251262 0.00340098 0)
(0.166205 0.000321965 0)
(0.132461 5.42464e-05 0)
(0.117273 4.56839e-05 0)
(0.107353 5.38579e-05 0)
(0.0994088 4.62247e-05 0)
(0.092973 3.68862e-05 0)
(0.0877333 3.05727e-05 0)
(0.0833698 2.62449e-05 0)
(0.0796541 2.29443e-05 0)
(0.0764384 2.02981e-05 0)
(0.0736214 1.81374e-05 0)
(0.0711288 1.63498e-05 0)
(0.0689046 1.48514e-05 0)
(0.0669053 1.35803e-05 0)
(0.0650967 1.249e-05 0)
(0.0634515 1.15452e-05 0)
(0.0619477 1.07191e-05 0)
(0.0605672 9.99073e-06 0)
(0.0592952 9.34356e-06 0)
(0.058119 8.76447e-06 0)
(0.0570283 8.24267e-06 0)
(0.0560141 7.76939e-06 0)
(0.055069 7.33691e-06 0)
(0.0541864 6.93909e-06 0)
(0.0533608 6.5697e-06 0)
(0.0525874 6.2246e-06 0)
(0.0518623 5.89764e-06 0)
(0.0511818 5.58686e-06 0)
(0.0505432 5.28453e-06 0)
(0.0499438 4.99134e-06 0)
(0.0493817 4.69658e-06 0)
(0.0488553 4.40271e-06 0)
(0.0483632 4.09815e-06 0)
(0.0479053 3.7771e-06 0)
(0.0474798 3.44849e-06 0)
(0.04709 3.0477e-06 0)
(0.0467308 2.70273e-06 0)
(0.0464149 2.09266e-06 0)
(0.0461243 1.82117e-06 0)
(0.0458988 6.58797e-07 0)
(0.0456805 7.96956e-07 0)
(0.0455825 -1.80836e-06 0)
(0.0454405 -3.40916e-07 0)
(0.0455442 -6.60756e-06 0)
(0.0454989 -1.01816e-06 0)
(0.0458838 -1.6344e-05 0)
(0.0464209 1.74003e-05 0)
(0.0426765 -0.00174809 0)
(0.884899 0.0431673 0)
(0.649718 0.0201939 0)
(0.494328 0.00659808 0)
(0.40368 0.00276734 0)
(0.354763 0.00155175 0)
(0.323469 0.00113136 0)
(0.29962 0.000910174 0)
(0.280433 0.000746264 0)
(0.26473 0.000623385 0)
(0.251621 0.000532588 0)
(0.240455 0.000463637 0)
(0.23079 0.00040936 0)
(0.22232 0.000365488 0)
(0.214824 0.000329361 0)
(0.208131 0.00029917 0)
(0.202112 0.000273615 0)
(0.196665 0.000251737 0)
(0.191708 0.000232819 0)
(0.187175 0.000216311 0)
(0.183012 0.00020179 0)
(0.179174 0.000188921 0)
(0.175623 0.000177437 0)
(0.172328 0.000167123 0)
(0.169263 0.0001578 0)
(0.166405 0.000149322 0)
(0.163733 0.000141562 0)
(0.161232 0.000134414 0)
(0.158887 0.000127787 0)
(0.156686 0.000121593 0)
(0.154617 0.000115768 0)
(0.152672 0.000110228 0)
(0.150843 0.000104928 0)
(0.149124 9.97731e-05 0)
(0.147508 9.47406e-05 0)
(0.145992 8.96942e-05 0)
(0.144574 8.46421e-05 0)
(0.143248 7.93835e-05 0)
(0.142022 7.39244e-05 0)
(0.14088 6.80535e-05 0)
(0.139857 6.15363e-05 0)
(0.138901 5.45892e-05 0)
(0.138116 4.56824e-05 0)
(0.137348 3.73308e-05 0)
(0.136891 2.2798e-05 0)
(0.136312 1.39317e-05 0)
(0.136359 -1.58966e-05 0)
(0.136018 -1.40568e-05 0)
(0.136727 -0.000125242 0)
(0.137713 0.000162093 0)
(0.13393 -0.00315863 0)
(0.991237 0.0499014 0)
(0.89035 0.0307186 0)
(0.762692 0.0145973 0)
(0.656693 0.00797909 0)
(0.585381 0.00488431 0)
(0.53599 0.00347063 0)
(0.498137 0.0027352 0)
(0.467531 0.00224292 0)
(0.442229 0.00187974 0)
(0.420932 0.00160803 0)
(0.402695 0.00140042 0)
(0.38685 0.00123698 0)
(0.372922 0.00110495 0)
(0.360561 0.000996236 0)
(0.349502 0.000905356 0)
(0.339538 0.000828405 0)
(0.330505 0.000762509 0)
(0.322273 0.000705515 0)
(0.314735 0.000655779 0)
(0.307804 0.000612028 0)
(0.301407 0.000573259 0)
(0.295483 0.000538673 0)
(0.28998 0.000507619 0)
(0.284856 0.000479567 0)
(0.280073 0.000454072 0)
(0.275598 0.000430764 0)
(0.271404 0.000409323 0)
(0.267468 0.000389478 0)
(0.263768 0.000370981 0)
(0.260287 0.000353629 0)
(0.25701 0.0003372 0)
(0.253922 0.000321549 0)
(0.251014 0.000306425 0)
(0.248275 0.000291752 0)
(0.245697 0.000277167 0)
(0.243278 0.000262718 0)
(0.241005 0.000247782 0)
(0.238891 0.00023262 0)
(0.236911 0.000216161 0)
(0.23511 0.000198884 0)
(0.233417 0.000179285 0)
(0.231977 0.000157288 0)
(0.230566 0.000132529 0)
(0.229604 9.95835e-05 0)
(0.22847 6.92604e-05 0)
(0.22822 4.63996e-06 0)
(0.227427 -7.94596e-06 0)
(0.2281 -0.000253449 0)
(0.228774 0.000123052 0)
(0.227225 -0.00347689 0)
(1.0156 0.0489203 0)
(1.00596 0.0358747 0)
(0.935956 0.0207911 0)
(0.852137 0.0135034 0)
(0.782212 0.00920682 0)
(0.72703 0.00678021 0)
(0.681967 0.00538254 0)
(0.644227 0.00444344 0)
(0.612226 0.00374968 0)
(0.584774 0.00322369 0)
(0.560938 0.00281712 0)
(0.54001 0.00249486 0)
(0.521463 0.0022334 0)
(0.504893 0.00201736 0)
(0.489986 0.00183621 0)
(0.476492 0.00168243 0)
(0.464212 0.00155045 0)
(0.452982 0.00143608 0)
(0.442668 0.00133613 0)
(0.433159 0.0012481 0)
(0.424362 0.00117001 0)
(0.416199 0.00110029 0)
(0.408601 0.00103765 0)
(0.401513 0.000981046 0)
(0.394885 0.000929594 0)
(0.388674 0.000882557 0)
(0.382845 0.000839306 0)
(0.377364 0.000799303 0)
(0.372206 0.000762064 0)
(0.367344 0.000727185 0)
(0.362758 0.000694244 0)
(0.358431 0.000662944 0)
(0.354347 0.000632826 0)
(0.350492 0.000603726 0)
(0.346854 0.000574979 0)
(0.343428 0.000546687 0)
(0.340201 0.000517639 0)
(0.337181 0.000488525 0)
(0.33434 0.000456946 0)
(0.331731 0.00042475 0)
(0.329265 0.000387372 0)
(0.327112 0.000348181 0)
(0.325012 0.000300373 0)
(0.323444 0.000244915 0)
(0.321697 0.000183361 0)
(0.320969 7.86865e-05 0)
(0.31964 3.43598e-05 0)
(0.320031 -0.000333917 0)
(0.319985 -1.1618e-05 0)
(0.319967 -0.00341057 0)
(1.01434 0.0460037 0)
(1.04753 0.0374883 0)
(1.02458 0.0241509 0)
(0.974764 0.0175579 0)
(0.923463 0.0131206 0)
(0.876707 0.0102041 0)
(0.834565 0.00834036 0)
(0.796839 0.00701921 0)
(0.763299 0.0060092 0)
(0.733506 0.00522128 0)
(0.70695 0.00459865 0)
(0.68316 0.00409722 0)
(0.661738 0.00368561 0)
(0.642352 0.00334235 0)
(0.624725 0.00305235 0)
(0.608628 0.00280461 0)
(0.593869 0.00259088 0)
(0.580284 0.00240485 0)
(0.567739 0.00224165 0)
(0.556116 0.00209745 0)
(0.545317 0.00196918 0)
(0.535257 0.00185439 0)
(0.525862 0.00175106 0)
(0.517069 0.00165752 0)
(0.508823 0.00157238 0)
(0.501075 0.00149448 0)
(0.493785 0.00142279 0)
(0.486915 0.00135646 0)
(0.480433 0.00129472 0)
(0.474311 0.00123691 0)
(0.468524 0.00118238 0)
(0.463051 0.00113063 0)
(0.457872 0.00108097 0)
(0.452973 0.00103311 0)
(0.448338 0.000986045 0)
(0.443959 0.000939917 0)
(0.439821 0.000892842 0)
(0.435931 0.000846007 0)
(0.43226 0.000795455 0)
(0.428858 0.000744704 0)
(0.425635 0.000685498 0)
(0.422763 0.000625522 0)
(0.419975 0.000550068 0)
(0.417758 0.000468348 0)
(0.415395 0.000369956 0)
(0.414084 0.00022165 0)
(0.412206 0.000132108 0)
(0.412124 -0.000338601 0)
(0.411382 -0.000149269 0)
(0.411701 -0.00326681 0)
(1.00933 0.0429152 0)
(1.05527 0.0372635 0)
(1.05869 0.025295 0)
(1.03637 0.0197572 0)
(1.00711 0.015809 0)
(0.976071 0.0129329 0)
(0.944562 0.0109565 0)
(0.913715 0.00947434 0)
(0.88438 0.00828374 0)
(0.856944 0.00731546 0)
(0.831485 0.00652465 0)
(0.807942 0.00587132 0)
(0.786193 0.00532416 0)
(0.766097 0.00486042 0)
(0.747506 0.00446342 0)
(0.730281 0.00412049 0)
(0.714292 0.00382187 0)
(0.699419 0.0035599 0)
(0.685558 0.00332851 0)
(0.672614 0.00312285 0)
(0.660503 0.002939 0)
(0.649149 0.00277374 0)
(0.638487 0.00262441 0)
(0.628457 0.00248878 0)
(0.619008 0.00236498 0)
(0.610094 0.00225141 0)
(0.601673 0.00214669 0)
(0.593709 0.00204964 0)
(0.586169 0.00195919 0)
(0.579026 0.00187443 0)
(0.572253 0.00179445 0)
(0.565827 0.00171857 0)
(0.559731 0.00164581 0)
(0.553945 0.00157577 0)
(0.548456 0.00150707 0)
(0.543252 0.0014399 0)
(0.53832 0.00137169 0)
(0.533664 0.00130408 0)
(0.529255 0.00123156 0)
(0.525138 0.00115925 0)
(0.521232 0.00107531 0)
(0.517692 0.000991428 0)
(0.514276 0.00088552 0)
(0.511428 0.000774014 0)
(0.508497 0.000635936 0)
(0.506574 0.000440961 0)
(0.504198 0.000297954 0)
(0.50351 -0.000262227 0)
(0.502229 -0.000233733 0)
(0.502217 -0.0030665 0)
(1.00625 0.0400337 0)
(1.05206 0.036336 0)
(1.06609 0.0252241 0)
(1.0596 0.0205566 0)
(1.04688 0.0172352 0)
(1.03081 0.0146519 0)
(1.01192 0.0128151 0)
(0.991253 0.0113898 0)
(0.96986 0.0101928 0)
(0.948474 0.0091764 0)
(0.927538 0.00831511 0)
(0.907317 0.00758114 0)
(0.887957 0.0069502 0)
(0.869527 0.00640353 0)
(0.852048 0.00592668 0)
(0.835507 0.00550817 0)
(0.819872 0.00513872 0)
(0.8051 0.00481077 0)
(0.791146 0.00451812 0)
(0.777959 0.00425569 0)
(0.76549 0.00401926 0)
(0.753692 0.00380526 0)
(0.742521 0.00361073 0)
(0.731934 0.0034331 0)
(0.721892 0.00327019 0)
(0.712359 0.00312012 0)
(0.703304 0.00298124 0)
(0.694695 0.0028521 0)
(0.686505 0.00273142 0)
(0.678711 0.00261807 0)
(0.671289 0.00251092 0)
(0.664221 0.0024091 0)
(0.657487 0.00231143 0)
(0.651074 0.00221735 0)
(0.644966 0.00212517 0)
(0.639155 0.00203507 0)
(0.633627 0.00194386 0)
(0.628385 0.00185355 0)
(0.623404 0.00175728 0)
(0.618724 0.00166139 0)
(0.614273 0.00155106 0)
(0.610186 0.00144097 0)
(0.606258 0.0013034 0)
(0.602866 0.00115919 0)
(0.599467 0.000980785 0)
(0.596976 0.000736453 0)
(0.594192 0.000536168 0)
(0.592871 -0.00010395 0)
(0.591168 -0.000243421 0)
(0.590614 -0.00279686 0)
(1.00495 0.0373557 0)
(1.04727 0.035254 0)
(1.06397 0.0246841 0)
(1.06425 0.0205827 0)
(1.06068 0.0177725 0)
(1.05475 0.0154939 0)
(1.04601 0.0138717 0)
(1.03483 0.012611 0)
(1.02193 0.0115248 0)
(1.00792 0.0105715 0)
(0.993252 0.0097377 0)
(0.97828 0.00900615 0)
(0.963271 0.00836019 0)
(0.948419 0.00778678 0)
(0.933861 0.00727567 0)
(0.919689 0.0068184 0)
(0.905962 0.00640781 0)
(0.892716 0.00603783 0)
(0.879968 0.00570326 0)
(0.867722 0.00539967 0)
(0.855974 0.00512325 0)
(0.844715 0.00487073 0)
(0.833929 0.00463924 0)
(0.823601 0.00442627 0)
(0.813713 0.00422965 0)
(0.804245 0.0040474 0)
(0.795181 0.00387783 0)
(0.786501 0.00371937 0)
(0.77819 0.00357064 0)
(0.77023 0.00343038 0)
(0.762608 0.00329734 0)
(0.755309 0.00317052 0)
(0.74832 0.00304858 0)
(0.741631 0.00293086 0)
(0.735232 0.00281543 0)
(0.729115 0.00270241 0)
(0.723271 0.00258816 0)
(0.717702 0.00247485 0)
(0.712391 0.00235464 0)
(0.707367 0.00223458 0)
(0.702578 0.0020978 0)
(0.698132 0.00196045 0)
(0.693866 0.00179164 0)
(0.690087 0.00161304 0)
(0.686367 0.0013955 0)
(0.683429 0.00110055 0)
(0.680358 0.000841937 0)
(0.678485 0.000131563 0)
(0.676446 -0.000172444 0)
(0.675349 -0.00246414 0)
(1.0044 0.0348078 0)
(1.04324 0.0341808 0)
(1.05994 0.024043 0)
(1.06229 0.0202887 0)
(1.0625 0.017836 0)
(1.06181 0.0157744 0)
(1.05925 0.0143254 0)
(1.05471 0.0132299 0)
(1.04851 0.0122859 0)
(1.04096 0.0114446 0)
(1.03233 0.0106952 0)
(1.02288 0.0100244 0)
(1.01285 0.0094195 0)
(1.00243 0.00887105 0)
(0.991781 0.00837213 0)
(0.981037 0.00791714 0)
(0.970301 0.00750129 0)
(0.959656 0.00712038 0)
(0.949163 0.00677074 0)
(0.938867 0.00644911 0)
(0.928802 0.00615261 0)
(0.918992 0.00587865 0)
(0.909451 0.00562493 0)
(0.900189 0.00538932 0)
(0.89121 0.00516991 0)
(0.882516 0.00496497 0)
(0.874105 0.0047729 0)
(0.865975 0.00459223 0)
(0.858121 0.00442162 0)
(0.850539 0.00425982 0)
(0.843223 0.00410556 0)
(0.836167 0.00395781 0)
(0.829367 0.00381516 0)
(0.822818 0.0036769 0)
(0.816516 0.00354092 0)
(0.810457 0.00340733 0)
(0.804637 0.00327215 0)
(0.799061 0.00313762 0)
(0.793717 0.00299522 0)
(0.788631 0.00285223 0)
(0.783764 0.00269071 0)
(0.779203 0.00252678 0)
(0.774826 0.00232885 0)
(0.770871 0.00211601 0)
(0.767022 0.00186198 0)
(0.763819 0.00151774 0)
(0.760612 0.00120137 0)
(0.758346 0.000432927 0)
(0.756074 -2.47451e-05 0)
(0.754531 -0.00208311 0)
(1.00402 0.0323677 0)
(1.03991 0.0331306 0)
(1.05616 0.0234198 0)
(1.05893 0.0199003 0)
(1.06023 0.0177052 0)
(1.06158 0.0157781 0)
(1.06196 0.0144299 0)
(1.06108 0.0134491 0)
(1.05903 0.012621 0)
(1.05592 0.0118855 0)
(1.05185 0.0112291 0)
(1.04692 0.0106382 0)
(1.04125 0.0101001 0)
(1.03499 0.00960589 0)
(1.02823 0.00914982 0)
(1.02111 0.00872762 0)
(1.01371 0.00833589 0)
(1.00611 0.00797174 0)
(0.998401 0.00763269 0)
(0.990631 0.00731656 0)
(0.982853 0.0070214 0)
(0.975109 0.00674541 0)
(0.967433 0.00648694 0)
(0.959852 0.00624443 0)
(0.952386 0.00601642 0)
(0.945053 0.00580151 0)
(0.937865 0.00559839 0)
(0.930833 0.00540583 0)
(0.923963 0.00522261 0)
(0.917262 0.00504764 0)
(0.910734 0.00487972 0)
(0.904383 0.00471788 0)
(0.89821 0.0045607 0)
(0.892218 0.00440749 0)
(0.886409 0.00425608 0)
(0.880785 0.00410654 0)
(0.875348 0.00395472 0)
(0.870104 0.0038028 0)
(0.865049 0.00364196 0)
(0.860206 0.00347922 0)
(0.855549 0.00329651 0)
(0.851147 0.0031086 0)
(0.846915 0.00288532 0)
(0.843028 0.00264052 0)
(0.839271 0.002354 0)
(0.836026 0.0019646 0)
(0.832859 0.00159293 0)
(0.830404 0.000780761 0)
(0.828033 0.000188014 0)
(0.826195 -0.00167084 0)
(1.00364 0.0300273 0)
(1.03692 0.032083 0)
(1.05282 0.0228299 0)
(1.05569 0.0194948 0)
(1.05713 0.0175128 0)
(1.05904 0.0156774 0)
(1.06049 0.0143764 0)
(1.06119 0.0134585 0)
(1.06121 0.0127038 0)
(1.06057 0.0120425 0)
(1.05928 0.0114584 0)
(1.05734 0.0109366 0)
(1.05479 0.0104627 0)
(1.05169 0.0100268 0)
(1.04808 0.00962264 0)
(1.04404 0.00924575 0)
(1.03962 0.00889295 0)
(1.03489 0.0085617 0)
(1.02989 0.00825001 0)
(1.02469 0.00795622 0)
(1.01932 0.00767893 0)
(1.01384 0.00741688 0)
(1.00828 0.00716891 0)
(1.00266 0.00693394 0)
(0.997028 0.0067109 0)
(0.991393 0.00649875 0)
(0.98578 0.00629648 0)
(0.980205 0.0061031 0)
(0.974684 0.0059176 0)
(0.96923 0.00573905 0)
(0.963853 0.00556638 0)
(0.958563 0.00539872 0)
(0.953368 0.00523472 0)
(0.948278 0.00507373 0)
(0.943297 0.00491358 0)
(0.938435 0.00475431 0)
(0.933696 0.00459173 0)
(0.92909 0.00442786 0)
(0.924619 0.00425389 0)
(0.920303 0.00407618 0)
(0.916128 0.00387733 0)
(0.912148 0.00366973 0)
(0.908309 0.00342623 0)
(0.904736 0.00315381 0)
(0.901291 0.00283993 0)
(0.898231 0.00241198 0)
(0.895289 0.0019899 0)
(0.892861 0.00114829 0)
(0.890545 0.000444003 0)
(0.888587 -0.00124818 0)
(1.00327 0.0277875 0)
(1.03409 0.0310243 0)
(1.0497 0.0222665 0)
(1.05273 0.0190873 0)
(1.05413 0.0173015 0)
(1.05609 0.0155476 0)
(1.05782 0.0142684 0)
(1.05904 0.0133804 0)
(1.05987 0.0126663 0)
(1.06034 0.0120483 0)
(1.06044 0.0115093 0)
(1.06014 0.0110341 0)
(1.05944 0.0106073 0)
(1.05833 0.0102179 0)
(1.05685 0.0098583 0)
(1.055 0.00952357 0)
(1.05281 0.00920994 0)
(1.05031 0.0089146 0)
(1.04753 0.00863542 0)
(1.0445 0.00837072 0)
(1.04126 0.00811921 0)
(1.03784 0.00787979 0)
(1.03425 0.00765151 0)
(1.03054 0.0074335 0)
(1.02672 0.00722493 0)
(1.02282 0.00702498 0)
(1.01886 0.00683285 0)
(1.01485 0.00664771 0)
(1.01081 0.00646872 0)
(1.00675 0.00629509 0)
(1.0027 0.00612585 0)
(0.998658 0.00596022 0)
(0.994639 0.00579693 0)
(0.990655 0.00563535 0)
(0.986714 0.00547335 0)
(0.982826 0.00531095 0)
(0.979001 0.00514397 0)
(0.975249 0.00497418 0)
(0.971576 0.00479305 0)
(0.968001 0.00460597 0)
(0.964518 0.00439679 0)
(0.961169 0.00417484 0)
(0.957923 0.00391702 0)
(0.954865 0.00362275 0)
(0.951917 0.00328738 0)
(0.949241 0.00282926 0)
(0.946687 0.00236361 0)
(0.944481 0.00150682 0)
(0.942372 0.000715521 0)
(0.940469 -0.000838396 0)
(1.00292 0.0256517 0)
(1.03138 0.0299498 0)
(1.0467 0.0217252 0)
(1.04993 0.0186778 0)
(1.05132 0.0170782 0)
(1.05324 0.0154105 0)
(1.05499 0.0141466 0)
(1.05634 0.0132741 0)
(1.0574 0.0125829 0)
(1.05826 0.0119888 0)
(1.05891 0.0114744 0)
(1.05935 0.0110259 0)
(1.05956 0.0106279 0)
(1.05952 0.0102686 0)
(1.05923 0.0099399 0)
(1.0587 0.00963622 0)
(1.05793 0.00935324 0)
(1.05691 0.00908771 0)
(1.05568 0.00883711 0)
(1.05423 0.00859951 0)
(1.05258 0.00837343 0)
(1.05075 0.00815766 0)
(1.04876 0.00795122 0)
(1.04661 0.00775326 0)
(1.04434 0.00756297 0)
(1.04195 0.00737961 0)
(1.03946 0.00720243 0)
(1.03688 0.00703069 0)
(1.03423 0.0068636 0)
(1.03152 0.00670042 0)
(1.02876 0.00654024 0)
(1.02596 0.00638232 0)
(1.02313 0.00622541 0)
(1.02029 0.00606891 0)
(1.01744 0.0059107 0)
(1.01459 0.00575071 0)
(1.01176 0.00558487 0)
(1.00895 0.0054146 0)
(1.00618 0.00523181 0)
(1.00345 0.00504069 0)
(1.00077 0.00482676 0)
(0.998167 0.00459591 0)
(0.995631 0.00432954 0)
(0.993215 0.00401975 0)
(0.990883 0.00366882 0)
(0.988726 0.00318958 0)
(0.986673 0.00268857 0)
(0.984833 0.00182932 0)
(0.98305 0.000976382 0)
(0.981346 -0.000462537 0)
(1.0026 0.0236227 0)
(1.02879 0.0288583 0)
(1.04379 0.0212049 0)
(1.04724 0.0182661 0)
(1.04863 0.0168412 0)
(1.05052 0.015269 0)
(1.05227 0.0140223 0)
(1.05362 0.0131605 0)
(1.05471 0.0124856 0)
(1.05567 0.0119065 0)
(1.0565 0.0114059 0)
(1.0572 0.0109717 0)
(1.05777 0.0105895 0)
(1.0582 0.0102474 0)
(1.05848 0.00993711 0)
(1.05862 0.00965279 0)
(1.05861 0.00938987 0)
(1.05844 0.00914481 0)
(1.05813 0.00891479 0)
(1.05766 0.00869763 0)
(1.05704 0.00849159 0)
(1.05629 0.0082953 0)
(1.0554 0.00810765 0)
(1.05438 0.00792767 0)
(1.05325 0.00775452 0)
(1.05201 0.00758738 0)
(1.05067 0.00742549 0)
(1.04923 0.00726808 0)
(1.04771 0.00711435 0)
(1.04611 0.00696354 0)
(1.04445 0.00681472 0)
(1.04273 0.00666715 0)
(1.04095 0.00651955 0)
(1.03914 0.00637127 0)
(1.03728 0.0062202 0)
(1.03541 0.00606616 0)
(1.03351 0.00590517 0)
(1.03161 0.00573823 0)
(1.02971 0.00555782 0)
(1.02781 0.00536677 0)
(1.02594 0.0051525 0)
(1.0241 0.00491737 0)
(1.02229 0.00464723 0)
(1.02055 0.00432777 0)
(1.01887 0.00396653 0)
(1.01729 0.00347473 0)
(1.01578 0.00294693 0)
(1.01438 0.00209576 0)
(1.01299 0.00120508 0)
(1.01158 -0.000137529 0)
(1.0023 0.0217021 0)
(1.02634 0.0277508 0)
(1.04096 0.0207038 0)
(1.04464 0.0178537 0)
(1.04605 0.0165895 0)
(1.0479 0.0151213 0)
(1.04965 0.0138964 0)
(1.05099 0.0130445 0)
(1.05208 0.0123842 0)
(1.05304 0.0118177 0)
(1.0539 0.0113266 0)
(1.05466 0.0109011 0)
(1.05534 0.0105279 0)
(1.05594 0.0101954 0)
(1.05645 0.00989531 0)
(1.05687 0.00962193 0)
(1.05721 0.00937066 0)
(1.05745 0.00913787 0)
(1.0576 0.00892063 0)
(1.05766 0.00871661 0)
(1.05762 0.00852394 0)
(1.0575 0.00834112 0)
(1.05728 0.00816692 0)
(1.05697 0.00800028 0)
(1.05657 0.00784028 0)
(1.05609 0.00768604 0)
(1.05553 0.00753672 0)
(1.05489 0.00739152 0)
(1.05419 0.00724956 0)
(1.05341 0.00711005 0)
(1.05257 0.00697198 0)
(1.05167 0.00683457 0)
(1.05071 0.00669648 0)
(1.04971 0.006557 0)
(1.04867 0.00641399 0)
(1.04759 0.0062671 0)
(1.04647 0.00611251 0)
(1.04534 0.00595067 0)
(1.04419 0.00577476 0)
(1.04302 0.00558615 0)
(1.04186 0.00537421 0)
(1.0407 0.00513799 0)
(1.03956 0.00486732 0)
(1.03844 0.00454281 0)
(1.03736 0.0041753 0)
(1.03633 0.00367803 0)
(1.03534 0.00313141 0)
(1.03438 0.00229635 0)
(1.03339 0.00138796 0)
(1.03231 0.000128802 0)
(1.00203 0.0198907 0)
(1.02402 0.0266301 0)
(1.03822 0.0202189 0)
(1.04211 0.0174427 0)
(1.04355 0.016323 0)
(1.04537 0.0149662 0)
(1.04712 0.0137685 0)
(1.04846 0.0129266 0)
(1.04954 0.0122807 0)
(1.05048 0.0117266 0)
(1.05133 0.0112441 0)
(1.0521 0.0108256 0)
(1.0528 0.0104587 0)
(1.05344 0.0101322 0)
(1.05401 0.00983833 0)
(1.05453 0.00957124 0)
(1.055 0.00932655 0)
(1.0554 0.00910067 0)
(1.05576 0.00889069 0)
(1.05606 0.00869425 0)
(1.0563 0.00850946 0)
(1.05648 0.00833476 0)
(1.05661 0.00816888 0)
(1.05669 0.00801073 0)
(1.05671 0.00785934 0)
(1.05667 0.00771379 0)
(1.05658 0.00757321 0)
(1.05644 0.00743674 0)
(1.05624 0.00730346 0)
(1.056 0.00717251 0)
(1.0557 0.00704285 0)
(1.05536 0.0069136 0)
(1.05497 0.00678339 0)
(1.05455 0.0066514 0)
(1.05408 0.0065155 0)
(1.05358 0.00637511 0)
(1.05305 0.0062266 0)
(1.05249 0.00606987 0)
(1.05192 0.00589878 0)
(1.05132 0.0057133 0)
(1.05072 0.00550464 0)
(1.05011 0.00526894 0)
(1.0495 0.00499929 0)
(1.0489 0.00467282 0)
(1.04831 0.00430166 0)
(1.04774 0.00380409 0)
(1.04719 0.00324546 0)
(1.04663 0.00243168 0)
(1.04599 0.00152135 0)
(1.04521 0.000335658 0)
(1.00179 0.0181888 0)
(1.02183 0.0255003 0)
(1.03558 0.0197464 0)
(1.03968 0.0170347 0)
(1.04115 0.0160425 0)
(1.04293 0.0148028 0)
(1.04468 0.0136381 0)
(1.04602 0.0128065 0)
(1.04709 0.0121751 0)
(1.04802 0.011634 0)
(1.04886 0.0111604 0)
(1.04962 0.0107484 0)
(1.05031 0.0103871 0)
(1.05094 0.0100657 0)
(1.05152 0.00977632 0)
(1.05206 0.00951353 0)
(1.05256 0.009273 0)
(1.05302 0.00905126 0)
(1.05344 0.00884547 0)
(1.05383 0.0086533 0)
(1.05418 0.00847288 0)
(1.0545 0.00830267 0)
(1.05479 0.00814142 0)
(1.05504 0.00798805 0)
(1.05526 0.00784159 0)
(1.05545 0.00770114 0)
(1.05561 0.0075658 0)
(1.05573 0.00743471 0)
(1.05582 0.00730691 0)
(1.05588 0.00718152 0)
(1.0559 0.00705744 0)
(1.0559 0.00693376 0)
(1.05586 0.00680904 0)
(1.05579 0.0066824 0)
(1.0557 0.0065517 0)
(1.05558 0.00641616 0)
(1.05543 0.00627233 0)
(1.05526 0.00611957 0)
(1.05508 0.00595241 0)
(1.05488 0.00576956 0)
(1.05467 0.00556382 0)
(1.05445 0.00532902 0)
(1.05423 0.00506062 0)
(1.05401 0.00473387 0)
(1.05379 0.00436042 0)
(1.05357 0.00386583 0)
(1.05335 0.0033006 0)
(1.05308 0.0025106 0)
(1.05273 0.00161031 0)
(1.0522 0.00048855 0)
(1.00157 0.0165961 0)
(1.01979 0.0243652 0)
(1.03305 0.0192822 0)
(1.03733 0.0166316 0)
(1.03883 0.0157493 0)
(1.04058 0.0146303 0)
(1.04232 0.0135048 0)
(1.04367 0.0126841 0)
(1.04473 0.0120671 0)
(1.04565 0.0115397 0)
(1.04647 0.0110755 0)
(1.04722 0.0106703 0)
(1.0479 0.0103145 0)
(1.04852 0.00999795 0)
(1.0491 0.00971276 0)
(1.04963 0.00945362 0)
(1.05013 0.00921637 0)
(1.05059 0.00899765 0)
(1.05103 0.00879467 0)
(1.05144 0.00860516 0)
(1.05182 0.00842731 0)
(1.05219 0.00825961 0)
(1.05253 0.00810085 0)
(1.05286 0.00794999 0)
(1.05316 0.0078061 0)
(1.05344 0.00766831 0)
(1.05371 0.00753575 0)
(1.05396 0.00740754 0)
(1.05419 0.00728275 0)
(1.05439 0.00716047 0)
(1.05458 0.00703959 0)
(1.05475 0.00691915 0)
(1.0549 0.00679771 0)
(1.05504 0.00667429 0)
(1.05515 0.0065468 0)
(1.05525 0.00641424 0)
(1.05533 0.00627337 0)
(1.0554 0.00612305 0)
(1.05545 0.00595845 0)
(1.0555 0.00577717 0)
(1.05553 0.00557334 0)
(1.05556 0.00533908 0)
(1.05559 0.00507139 0)
(1.05562 0.00474501 0)
(1.05564 0.00436987 0)
(1.05566 0.00388004 0)
(1.05565 0.00331232 0)
(1.05559 0.00254692 0)
(1.05543 0.00166447 0)
(1.05509 0.000599491 0)
(1.00137 0.0151117 0)
(1.01788 0.0232289 0)
(1.03062 0.0188224 0)
(1.03506 0.0162348 0)
(1.03661 0.0154447 0)
(1.03833 0.0144481 0)
(1.04005 0.0133683 0)
(1.04141 0.0125595 0)
(1.04246 0.0119566 0)
(1.04337 0.0114435 0)
(1.04418 0.0109893 0)
(1.04492 0.0105912 0)
(1.04558 0.0102412 0)
(1.04619 0.00992953 0)
(1.04676 0.00964853 0)
(1.04728 0.00939295 0)
(1.04777 0.00915878 0)
(1.04822 0.00894273 0)
(1.04865 0.00874208 0)
(1.04906 0.00855463 0)
(1.04945 0.00837859 0)
(1.04982 0.00821251 0)
(1.05018 0.00805522 0)
(1.05052 0.00790573 0)
(1.05085 0.00776316 0)
(1.05117 0.00762668 0)
(1.05148 0.00749545 0)
(1.05177 0.00736863 0)
(1.05205 0.00724529 0)
(1.05232 0.00712452 0)
(1.05259 0.0070052 0)
(1.05284 0.00688636 0)
(1.05307 0.00676657 0)
(1.0533 0.00664475 0)
(1.05352 0.00651887 0)
(1.05373 0.00638775 0)
(1.05393 0.00624838 0)
(1.05412 0.00609914 0)
(1.0543 0.00593577 0)
(1.05448 0.00575499 0)
(1.05466 0.00555194 0)
(1.05483 0.00531766 0)
(1.055 0.0050499 0)
(1.05516 0.00472404 0)
(1.05533 0.00434748 0)
(1.05548 0.00386323 0)
(1.0556 0.00329619 0)
(1.05566 0.00255503 0)
(1.05561 0.0016953 0)
(1.05538 0.000681525 0)
(1.0012 0.0137339 0)
(1.0161 0.0220954 0)
(1.02829 0.0183634 0)
(1.03288 0.0158456 0)
(1.03449 0.0151305 0)
(1.03616 0.0142557 0)
(1.03787 0.0132281 0)
(1.03923 0.0124327 0)
(1.04029 0.0118436 0)
(1.04118 0.0113452 0)
(1.04198 0.0109018 0)
(1.04271 0.010511 0)
(1.04336 0.010167 0)
(1.04396 0.00986044 0)
(1.04451 0.00958376 0)
(1.04502 0.00933183 0)
(1.0455 0.00910075 0)
(1.04594 0.00888734 0)
(1.04637 0.00868893 0)
(1.04677 0.00850337 0)
(1.04715 0.0083289 0)
(1.04751 0.00816412 0)
(1.04787 0.0080079 0)
(1.04821 0.00785931 0)
(1.04854 0.00771751 0)
(1.04886 0.00758172 0)
(1.04918 0.00745113 0)
(1.04948 0.00732493 0)
(1.04978 0.00720221 0)
(1.05007 0.00708206 0)
(1.05036 0.00696339 0)
(1.05064 0.00684519 0)
(1.05091 0.00672603 0)
(1.05117 0.0066048 0)
(1.05143 0.00647952 0)
(1.05169 0.00634882 0)
(1.05194 0.00620991 0)
(1.05218 0.00606079 0)
(1.05243 0.00589766 0)
(1.05267 0.0057166 0)
(1.05291 0.00551345 0)
(1.05315 0.00527866 0)
(1.05339 0.0050102 0)
(1.05363 0.00468489 0)
(1.05386 0.00430719 0)
(1.05407 0.00382888 0)
(1.05426 0.0032651 0)
(1.05438 0.00254728 0)
(1.05438 0.00171329 0)
(1.05421 0.000746186 0)
(1.00104 0.0124605 0)
(1.01446 0.020969 0)
(1.02608 0.0179016 0)
(1.03079 0.0154646 0)
(1.03246 0.0148086 0)
(1.03409 0.0140526 0)
(1.03578 0.0130836 0)
(1.03715 0.0123037 0)
(1.0382 0.0117281 0)
(1.03908 0.0112448 0)
(1.03987 0.0108126 0)
(1.04059 0.0104297 0)
(1.04123 0.0100919 0)
(1.04182 0.0097906 0)
(1.04236 0.0095184 0)
(1.04286 0.00927024 0)
(1.04333 0.00904235 0)
(1.04376 0.00883164 0)
(1.04417 0.0086355 0)
(1.04456 0.00845182 0)
(1.04494 0.00827888 0)
(1.04529 0.00811532 0)
(1.04564 0.00796006 0)
(1.04597 0.00781221 0)
(1.0463 0.00767098 0)
(1.04661 0.00753563 0)
(1.04692 0.0074054 0)
(1.04723 0.00727951 0)
(1.04753 0.00715704 0)
(1.04782 0.00703713 0)
(1.04811 0.00691866 0)
(1.04839 0.00680061 0)
(1.04867 0.0066816 0)
(1.04894 0.00656041 0)
(1.04922 0.00643516 0)
(1.04949 0.00630433 0)
(1.04975 0.00616529 0)
(1.05002 0.00601575 0)
(1.05028 0.00585227 0)
(1.05055 0.00567048 0)
(1.05081 0.00546667 0)
(1.05108 0.00523116 0)
(1.05134 0.00496169 0)
(1.0516 0.00463697 0)
(1.05186 0.00425864 0)
(1.0521 0.00378651 0)
(1.0523 0.00322817 0)
(1.05243 0.0025328 0)
(1.05245 0.00172625 0)
(1.0523 0.000802542 0)
(1.0009 0.0112886 0)
(1.01295 0.0198542 0)
(1.02398 0.0174339 0)
(1.02879 0.0150923 0)
(1.03052 0.0144811 0)
(1.03211 0.0138386 0)
(1.03378 0.0129344 0)
(1.03515 0.0121725 0)
(1.0362 0.01161 0)
(1.03708 0.0111419 0)
(1.03786 0.0107218 0)
(1.03856 0.0103472 0)
(1.0392 0.0100158 0)
(1.03978 0.00971994 0)
(1.04031 0.00945237 0)
(1.04079 0.00920813 0)
(1.04125 0.00898354 0)
(1.04168 0.00877561 0)
(1.04208 0.00858181 0)
(1.04246 0.00840005 0)
(1.04282 0.00822866 0)
(1.04317 0.00806633 0)
(1.0435 0.00791202 0)
(1.04383 0.00776487 0)
(1.04415 0.00762417 0)
(1.04445 0.0074892 0)
(1.04476 0.00735924 0)
(1.04505 0.00723353 0)
(1.04535 0.0071112 0)
(1.04563 0.00699136 0)
(1.04592 0.00687292 0)
(1.0462 0.00675484 0)
(1.04647 0.00663575 0)
(1.04675 0.00651439 0)
(1.04702 0.00638892 0)
(1.04729 0.0062577 0)
(1.04755 0.00611826 0)
(1.04782 0.00596806 0)
(1.04809 0.00580395 0)
(1.04835 0.00562127 0)
(1.04862 0.00541656 0)
(1.04889 0.00518033 0)
(1.04916 0.00490982 0)
(1.04942 0.00458591 0)
(1.04968 0.00420766 0)
(1.04991 0.00374199 0)
(1.05011 0.00319102 0)
(1.05023 0.00251744 0)
(1.05025 0.00173923 0)
(1.0501 0.000856539 0)
(1.00078 0.0102147 0)
(1.01157 0.0187553 0)
(1.022 0.0169578 0)
(1.02687 0.0147289 0)
(1.02868 0.0141501 0)
(1.03023 0.0136138 0)
(1.03187 0.0127797 0)
(1.03324 0.0120391 0)
(1.03429 0.0114894 0)
(1.03516 0.0110367 0)
(1.03593 0.0106292 0)
(1.03663 0.0102633 0)
(1.03726 0.0099386 0)
(1.03782 0.00964836 0)
(1.03834 0.00938561 0)
(1.03882 0.00914542 0)
(1.03927 0.00892425 0)
(1.03969 0.0087192 0)
(1.04008 0.00852781 0)
(1.04045 0.00834803 0)
(1.0408 0.00817824 0)
(1.04114 0.00801717 0)
(1.04147 0.00786381 0)
(1.04179 0.00771739 0)
(1.04209 0.00757721 0)
(1.04239 0.00744262 0)
(1.04269 0.00731291 0)
(1.04298 0.00718737 0)
(1.04326 0.00706514 0)
(1.04354 0.00694533 0)
(1.04382 0.00682687 0)
(1.04409 0.0067087 0)
(1.04436 0.00658947 0)
(1.04463 0.00646786 0)
(1.04489 0.00634209 0)
(1.04515 0.00621042 0)
(1.04542 0.00607048 0)
(1.04568 0.00591958 0)
(1.04594 0.00575474 0)
(1.0462 0.00557121 0)
(1.04646 0.00536558 0)
(1.04672 0.00512877 0)
(1.04698 0.00485744 0)
(1.04724 0.00453466 0)
(1.04748 0.00415737 0)
(1.0477 0.00369855 0)
(1.04788 0.00315667 0)
(1.04798 0.00250446 0)
(1.04798 0.00175512 0)
(1.04782 0.00091188 0)
(1.00067 0.00923467 0)
(1.01031 0.0176768 0)
(1.02013 0.0164709 0)
(1.02504 0.0143741 0)
(1.02692 0.0138177 0)
(1.02844 0.0133784 0)
(1.03005 0.0126188 0)
(1.03142 0.0119033 0)
(1.03247 0.0113664 0)
(1.03334 0.0109288 0)
(1.0341 0.0105345 0)
(1.03479 0.010178 0)
(1.0354 0.00986022 0)
(1.03596 0.0095758 0)
(1.03647 0.00931804 0)
(1.03695 0.00908206 0)
(1.03738 0.00886442 0)
(1.03779 0.00866235 0)
(1.03817 0.00847344 0)
(1.03854 0.00829571 0)
(1.03888 0.00812756 0)
(1.03921 0.00796778 0)
(1.03953 0.00781542 0)
(1.03984 0.00766974 0)
(1.04014 0.0075301 0)
(1.04043 0.00739589 0)
(1.04072 0.00726646 0)
(1.041 0.00714109 0)
(1.04128 0.00701896 0)
(1.04155 0.00689919 0)
(1.04182 0.00678071 0)
(1.04208 0.00666245 0)
(1.04234 0.00654307 0)
(1.0426 0.00642122 0)
(1.04286 0.00629515 0)
(1.04312 0.00616303 0)
(1.04337 0.0060226 0)
(1.04362 0.00587105 0)
(1.04387 0.00570552 0)
(1.04413 0.00552125 0)
(1.04438 0.00531481 0)
(1.04463 0.00507767 0)
(1.04488 0.0048059 0)
(1.04512 0.00448465 0)
(1.04535 0.00410929 0)
(1.04555 0.0036578 0)
(1.0457 0.00312652 0)
(1.04578 0.00249554 0)
(1.04576 0.00177535 0)
(1.04559 0.000970707 0)
(1.00058 0.00834397 0)
(1.00917 0.016623 0)
(1.01837 0.0159716 0)
(1.02329 0.0140272 0)
(1.02525 0.0134856 0)
(1.02674 0.0131329 0)
(1.02832 0.0124513 0)
(1.02968 0.0117648 0)
(1.03074 0.0112409 0)
(1.0316 0.0108183 0)
(1.03235 0.0104378 0)
(1.03303 0.0100911 0)
(1.03364 0.00978056 0)
(1.03419 0.00950216 0)
(1.0347 0.00924956 0)
(1.03516 0.00901794 0)
(1.03559 0.00880397 0)
(1.03599 0.00860497 0)
(1.03636 0.00841863 0)
(1.03672 0.00824301 0)
(1.03706 0.00807656 0)
(1.03738 0.00791812 0)
(1.03769 0.00776678 0)
(1.03799 0.00762187 0)
(1.03828 0.0074828 0)
(1.03857 0.00734899 0)
(1.03885 0.00721985 0)
(1.03912 0.00709467 0)
(1.03939 0.00697267 0)
(1.03966 0.00685295 0)
(1.03992 0.00673447 0)
(1.04017 0.00661614 0)
(1.04043 0.00649664 0)
(1.04068 0.00637457 0)
(1.04093 0.00624823 0)
(1.04118 0.00611572 0)
(1.04142 0.00597484 0)
(1.04167 0.00582274 0)
(1.04191 0.0056566 0)
(1.04215 0.00547176 0)
(1.04239 0.00526471 0)
(1.04263 0.00502752 0)
(1.04287 0.00475578 0)
(1.04309 0.00443651 0)
(1.0433 0.00406405 0)
(1.04348 0.00362048 0)
(1.04361 0.00310111 0)
(1.04367 0.00249143 0)
(1.04363 0.00180056 0)
(1.04344 0.00103393 0)
(1.0005 0.00753753 0)
(1.00813 0.0155982 0)
(1.01673 0.0154588 0)
(1.02162 0.0136873 0)
(1.02366 0.0131558 0)
(1.02513 0.0128782 0)
(1.02667 0.0122765 0)
(1.02803 0.0116234 0)
(1.02909 0.0111131 0)
(1.02994 0.0107051 0)
(1.03069 0.0103387 0)
(1.03136 0.0100025 0)
(1.03197 0.00969953 0)
(1.03251 0.00942734 0)