/*--------------------------------*- C++ -*----------------------------------*\
  =========                 |
  \\      /  F ield         | OpenFOAM: The Open Source CFD Toolbox
   \\    /   O peration     | Website:  https://openfoam.org
    \\  /    A nd           | Version:  7
     \\/     M anipulation  |
\*---------------------------------------------------------------------------*/
FoamFile
{
    version     2.0;
    format      ascii;
    class       volScalarField;
    location    "0.49";
    object      yPlus;
}
// * * * * * * * * * * * * * * * * * * * * * * * * * * * * * * * * * * * * * //

dimensions      [0 0 0 0 0 0 0];

internalField   uniform 0;

boundaryField
{
    velocityInlet
    {
        type            calculated;
        value           uniform 0;
    }
    pressureOutlet
    {
        type            calculated;
        value           uniform 0;
    }
    fixedWalls
    {
        type            calculated;
        value           nonuniform List<scalar> 
100
(
2.4648
1.17552
0.984638
1.03482
1.0556
1.0414
1.00611
0.965841
0.930556
0.904522
0.888133
0.881373
0.881257
0.891854
0.964978
1.1595
1.41407
1.60343
1.60042
1.20307
0.774558
1.50156
1.7087
1.59234
1.2268
0.60724
0.719488
1.02021
1.13543
1.17821
1.19662
1.19975
1.17023
1.09645
0.996592
0.905865
0.842457
0.794751
0.74086
0.66711
0.571669
0.463184
0.362821
0.309566
0.335046
0.415312
0.510028
0.59803
0.671414
0.728096
0.768322
0.793287
0.805065
0.806931
0.803529
0.800521
0.803278
0.815253
0.835928
0.859638
0.876807
0.876913
0.851109
0.792815
0.69566
0.550097
0.335783
0.202054
0.321794
0.229271
0.304309
0.528203
0.674507
0.767694
0.819059
0.837863
0.831475
0.805867
0.766488
0.71875
0.668158
0.620763
0.58414
0.568238
0.582188
0.628799
0.702435
0.793608
0.892375
0.987794
1.0728
1.13526
1.16382
1.11962
0.975022
0.621391
0.571044
0.920355
1.16178
0.875303
)
;
    }
    bottomWall
    {
        type            calculated;
        value           nonuniform List<scalar> 
800
(
2.94479
1.9839
1.61344
1.44032
1.35519
1.29657
1.24764
1.20654
1.17201
1.14245
1.11666
1.09384
1.07343
1.05504
1.03834
1.02309
1.00908
0.996157
0.984183
0.973049
0.96266
0.952938
0.943817
0.935236
0.927146
0.919504
0.91227
0.905411
0.898897
0.8927
0.886797
0.881167
0.875789
0.870649
0.865727
0.861012
0.856489
0.852147
0.847975
0.843962
0.840101
0.836381
0.832797
0.829338
0.826001
0.822779
0.819663
0.816653
0.813739
0.810921
0.808556
0.806598
0.804661
0.802748
0.80086
0.798996
0.797154
0.795335
0.793537
0.791761
0.790007
0.788272
0.786558
0.784864
0.783189
0.781533
0.779895
0.778276
0.776675
0.775091
0.773525
0.771975
0.770443
0.768926
0.767426
0.765942
0.764472
0.763018
0.761579
0.760155
0.758745
0.757351
0.755969
0.754601
0.753247
0.751906
0.750578
0.749263
0.747961
0.746671
0.745394
0.744128
0.742875
0.741634
0.740404
0.739185
0.737978
0.736782
0.735597
0.734422
0.733258
0.732105
0.730961
0.729829
0.728706
0.727594
0.726491
0.725397
0.724313
0.723239
0.722173
0.721117
0.720071
0.719032
0.718004
0.716983
0.715972
0.714968
0.713973
0.712986
0.712008
0.711037
0.710075
0.70912
0.708173
0.707233
0.706302
0.705377
0.70446
0.70355
0.702647
0.701752
0.700863
0.699982
0.699106
0.698239
0.697378
0.696523
0.695675
0.694832
0.693997
0.693168
0.692345
0.691527
0.690716
0.689912
0.689112
0.688318
0.687531
0.686749
0.686093
0.685555
0.685017
0.684477
0.683936
0.683395
0.682852
0.682308
0.681763
0.681217
0.68067
0.680122
0.679572
0.679022
0.678472
0.67792
0.677366
0.676812
0.676257
0.675701
0.675144
0.674586
0.674026
0.673466
0.672905
0.672343
0.67178
0.671217
0.670652
0.670085
0.669518
0.66895
0.668382
0.667811
0.667241
0.666669
0.666097
0.665523
0.664949
0.664374
0.663797
0.66322
0.662641
0.662061
0.66148
0.660899
0.660317
0.659733
0.659149
0.658564
0.657976
0.657389
0.6568
0.65621
0.655619
0.655027
0.654434
0.653839
0.653243
0.652646
0.652048
0.651449
0.650847
0.650245
0.649642
0.649037
0.648431
0.647824
0.647214
0.646604
0.645992
0.645378
0.644763
0.644145
0.643527
0.642906
0.642285
0.64166
0.641035
0.640407
0.639778
0.639145
0.638512
0.637873
0.637239
0.636591
0.635957
0.635294
0.634669
0.63398
0.633379
0.632639
0.632093
0.631259
0.630826
0.629821
0.629588
0.628319
0.628378
0.626764
2.94479
1.98391
1.61347
1.4404
1.35531
1.29672
1.24782
1.20675
1.17225
1.14273
1.11698
1.0942
1.07384
1.05551
1.03888
1.02369
1.00976
0.99692
0.985036
0.973999
0.963717
0.95411
0.945115
0.936674
0.928738
0.921265
0.91422
0.907571
0.901292
0.895359
0.889756
0.884464
0.879473
0.874773
0.870356
0.866226
0.862371
0.858823
0.855542
0.852645
0.849972
0.847891
0.845873
0.844965
0.843648
0.84461
0.84419
0.847754
0.8527
0.81793
1.04129
1.37179
1.04222
0.916035
1.6488
2.19378
2.64489
3.03043
3.35565
3.62016
3.82526
3.96414
4.01762
3.98358
3.89743
3.80981
3.75833
3.75526
3.80403
3.90526
4.05027
4.21686
4.37208
4.48505
4.54647
4.56894
4.57277
4.57242
4.56948
4.55866
4.53306
4.48814
4.42177
4.33171
4.21391
4.06069
3.86524
3.62418
3.3349
2.99567
2.60394
2.15382
1.64091
1.1504
1.32517
1.75708
2.05928
2.24317
2.34648
2.39206
2.41272
2.40935
2.37551
2.31555
2.2331
2.13125
2.0128
1.8802
1.73556
1.58073
1.41736
1.24738
1.07345
0.900332
0.741203
0.635925
0.63444
0.726703
0.873496
1.06715
1.30556
1.5856
1.88268
2.13747
2.26557
2.34329
2.39224
2.40036
2.37582
2.33404
2.28778
2.24458
2.21159
2.17823
2.1253
2.05546
1.96373
1.87555
1.80919
1.76182
1.71829
1.66428
1.59449
1.5188
1.45004
1.38661
1.31779
1.23763
1.14696
1.04715
0.934561
0.802726
0.646796
0.505363
0.557494
0.710227
0.839115
0.931521
0.98766
1.008
0.997434
0.945886
0.850811
0.721188
0.58375
0.552478
0.669063
0.798923
0.904879
0.991137
1.06941
1.15173
1.24582
1.35324
1.47192
1.59902
1.73079
1.86148
1.98441
2.0944
2.18888
2.2672
2.32957
2.37637
2.40804
2.42484
2.42654
2.41308
2.3842
2.33975
2.27952
2.20306
2.10963
1.99818
1.86746
1.71647
1.54633
1.36652
1.21393
1.17249
1.28137
1.46815
1.66555
1.8535
2.02707
2.18568
2.33007
2.4613
2.58025
2.68768
2.78421
2.8704
2.94673
3.01362
3.07145
3.12056
3.16124
3.19376
3.21838
3.23532
3.24489
3.24722
3.24192
3.22914
3.20907
3.18189
3.14981
3.11092
3.0648
3.01165
2.95166
2.88505
2.81204
2.73288
2.64782
2.55709
2.46086
2.35931
2.2527
2.1415
2.02776
1.91248
1.79856
1.6902
1.59121
1.50228
1.42548
1.4127
1.64726
2.19501
0.921601
1.55968
1.76525
1.78372
1.69158
1.68929
1.78684
1.94958
2.10675
2.22044
2.28624
2.31348
2.32499
2.35041
2.40959
2.51988
2.68626
2.88838
3.08836
3.25189
3.35927
3.40363
3.39151
3.32913
3.21654
3.08493
2.93561
2.74935
2.53799
2.36632
2.19258
1.91935
1.51595
1.61884
1.86417
2.12431
2.44245
2.78512
3.09527
3.3874
3.67154
3.94331
4.20023
4.4372
4.64891
4.8312
4.97955
5.08971
5.15864
5.18365
5.15983
5.0859
4.95783
4.76738
4.50434
4.1533
3.69092
3.07826
2.25453
1.73092
2.68612
3.57382
4.30119
4.9129
5.42974
5.85928
6.2036
6.46153
6.63066
6.70781
6.68889
6.5754
6.36677
6.06695
5.69285
5.27272
4.84117
4.4342
4.07747
3.78337
3.5589
3.37455
3.24607
3.09037
2.95602
2.71702
2.39435
2.14203
1.8001
2.38467
2.29746
1.99058
2.19988
2.648
3.02136
3.07545
2.80322
2.28568
1.47107
0.465743
0.526228
1.11035
1.96818
2.40601
2.65203
2.88867
3.03408
3.12152
3.14155
3.09745
3.00662
2.88777
2.75216
2.60105
2.41272
2.15704
1.79964
1.27907
1.05797
1.84984
2.53981
3.14162
3.66717
4.10574
4.43805
4.64382
4.71038
4.62103
4.36859
3.94008
3.33553
2.56698
1.64018
1.23987
1.88844
2.21975
1.91251
1.6732
1.3353
0.985923
1.1827
1.53456
1.9094
2.1338
2.12599
2.22559
2.54255
2.79533
2.90098
2.80472
2.50001
1.89347
0.995192
1.87632
2.48837
2.90539
3.093
3.46055
3.77888
3.92492
4.05243
4.3347
4.8657
5.43441
5.79183
5.96222
6.05455
6.17619
6.29259
6.35991
6.40704
6.45842
6.49815
6.52087
6.53821
6.5526
6.55928
6.55995
6.55846
6.55436
6.54671
6.53742
6.52689
6.51465
6.50108
6.48666
6.47125
6.4548
6.43743
6.41912
6.39976
6.37932
6.35774
6.335
6.3111
6.28611
6.26015
6.23345
6.20629
6.17907
6.15224
6.12629
6.10167
6.0788
6.05795
6.03923
6.02258
6.0078
5.99465
5.98293
5.97253
5.96352
5.95614
5.95071
5.94765
5.94744
5.95027
5.95622
5.96512
5.97596
5.98695
5.99588
6.00067
6.00004
5.99314
5.98036
5.96255
5.94065
5.9155
5.8879
5.85861
5.82834
5.79771
5.76733
5.73779
5.70968
5.68833
5.67299
5.66308
5.65986
5.665
5.67958
5.70384
5.7398
5.78952
5.85403
5.93378
6.02824
6.13581
6.25466
6.38327
6.51975
6.66191
6.8074
6.95067
7.08546
7.2115
7.32564
7.42516
7.50964
7.57973
7.63569
7.67712
7.70357
7.7148
7.7105
7.69609
7.6963
7.68526
7.66407
7.63172
7.58836
7.53397
7.46833
7.3914
7.30308
7.20321
7.09167
6.96833
6.83307
6.68581
6.52659
6.35561
6.17344
5.9814
5.78182
5.57802
5.42301
5.33596
5.27625
5.25604
5.29154
5.39534
5.56809
5.79954
6.07706
6.39854
6.72111
7.15315
7.20727
)
;
    }
    frontAndBack
    {
        type            empty;
    }
}


// ************************************************************************* //
