/*--------------------------------*- C++ -*----------------------------------*\
  =========                 |
  \\      /  F ield         | OpenFOAM: The Open Source CFD Toolbox
   \\    /   O peration     | Website:  https://openfoam.org
    \\  /    A nd           | Version:  7
     \\/     M anipulation  |
\*---------------------------------------------------------------------------*/
FoamFile
{
    version     2.0;
    format      ascii;
    class       volScalarField;
    location    "0.28";
    object      nut;
}
// * * * * * * * * * * * * * * * * * * * * * * * * * * * * * * * * * * * * * //

dimensions      [0 2 -1 0 0 0 0];

internalField   nonuniform List<scalar> 
70000
(
9.96303e-12
6.88222e-14
2.55933e-16
8.58799e-17
4.81731e-17
7.91649e-17
2.78971e-17
1.3093e-17
8.90888e-18
6.52969e-18
4.80955e-18
3.60814e-18
2.77292e-18
2.17833e-18
1.74382e-18
1.41922e-18
1.17219e-18
9.81089e-19
8.31208e-19
7.12124e-19
6.16503e-19
5.38977e-19
4.75578e-19
4.23424e-19
3.80182e-19
3.44345e-19
3.14249e-19
2.89518e-19
2.68259e-19
2.5167e-19
2.36422e-19
2.26476e-19
2.15211e-19
2.11486e-19
2.02854e-19
2.04961e-19
2.00174e-19
2.03322e-19
2.15313e-19
1.93168e-19
2.85655e-19
1.3462e-19
6.25201e-19
1.21394e-20
3.39826e-18
6.41563e-19
5.17097e-17
1.08371e-16
3.86618e-15
6.13348e-13
1.04281e-10
5.98651e-12
6.44262e-14
2.14376e-14
2.89147e-16
1.70019e-17
2.52896e-17
2.12383e-17
1.23477e-17
7.35629e-18
4.82847e-18
3.37321e-18
2.44909e-18
1.83092e-18
1.40316e-18
1.0988e-18
8.76864e-19
7.11534e-19
5.85975e-19
4.89039e-19
4.13096e-19
3.52807e-19
3.04438e-19
2.6517e-19
2.33127e-19
2.06573e-19
1.84782e-19
1.66203e-19
1.5129e-19
1.37762e-19
1.27913e-19
1.17444e-19
1.11838e-19
1.02952e-19
1.01183e-19
9.35184e-20
9.36524e-20
9.15853e-20
8.31022e-20
1.10794e-19
5.35474e-20
2.30969e-19
5.32953e-21
1.28328e-18
3.88041e-19
2.03971e-17
4.8879e-17
6.85824e-16
1.71087e-14
5.94445e-14
3.19222e-10
3.39624e-12
1.9071e-13
1.98892e-14
7.65389e-16
5.82231e-17
7.28654e-18
4.17855e-18
2.12062e-18
1.04824e-18
5.78081e-19
3.51547e-19
2.2673e-19
1.5195e-19
1.0495e-19
7.43906e-20
5.39412e-20
3.99059e-20
3.00428e-20
2.29722e-20
1.78116e-20
1.39846e-20
1.1114e-20
8.92968e-21
7.26714e-21
5.97397e-21
5.00315e-21
4.22052e-21
3.69195e-21
3.21557e-21
3.02794e-21
2.74668e-21
2.90965e-21
2.77916e-21
3.41403e-21
3.54359e-21
4.81268e-21
5.96101e-21
7.51082e-21
1.38438e-20
1.34324e-20
5.67731e-20
7.51008e-20
6.74968e-19
2.29437e-18
1.96444e-17
9.53108e-17
9.09908e-16
1.5731e-14
6.04535e-14
6.1541e-09
1.9266e-11
7.83078e-13
6.09862e-14
5.47458e-15
9.26265e-16
1.10078e-16
2.92964e-17
1.21874e-17
5.36358e-18
2.47662e-18
1.25018e-18
6.83338e-19
3.94252e-19
2.35905e-19
1.44914e-19
9.07425e-20
5.75516e-20
3.6732e-20
2.34293e-20
1.48177e-20
9.20389e-21
5.54663e-21
3.18778e-21
1.70296e-21
8.09855e-22
3.15666e-22
8.36251e-23
7.77588e-24
6.38868e-25
2.95787e-23
1.832e-22
5.89417e-22
1.42963e-21
3.01332e-21
5.55115e-21
1.02645e-20
1.62982e-20
2.9896e-20
4.21421e-20
8.75072e-20
1.20412e-19
3.64924e-19
7.98475e-19
4.02266e-18
1.94035e-17
9.252e-17
7.72263e-16
9.06637e-15
8.61029e-14
2.32379e-09
2.23245e-10
4.44855e-12
3.21149e-13
2.29688e-14
4.39352e-15
7.19367e-16
2.01756e-16
8.21771e-17
3.62708e-17
1.68123e-17
8.42648e-18
4.54976e-18
2.59523e-18
1.53979e-18
9.40983e-19
5.88091e-19
3.73529e-19
2.3964e-19
1.54311e-19
9.90457e-20
6.28683e-20
3.90815e-20
2.34891e-20
1.34041e-20
7.06056e-21
3.26917e-21
1.21137e-21
2.8199e-22
1.7195e-23
6.87172e-24
2.22069e-22
1.15486e-21
3.44279e-21
8.32041e-21
1.63731e-20
3.23156e-20
5.27488e-20
9.97164e-20
1.42878e-19
2.88555e-19
3.84907e-19
9.70416e-19
1.66802e-18
6.1478e-18
2.41858e-17
7.39542e-17
6.16232e-16
4.7365e-15
7.96369e-14
3.01424e-09
5.28771e-09
4.35213e-11
1.94124e-12
1.07633e-13
1.79379e-14
3.23062e-15
9.40695e-16
3.81974e-16
1.69748e-16
7.93795e-17
3.98715e-17
2.14612e-17
1.21819e-17
7.19358e-18
4.37977e-18
2.73117e-18
1.73411e-18
1.11467e-18
7.21148e-19
4.66674e-19
2.99989e-19
1.9e-19
1.17334e-19
6.96682e-20
3.89495e-20
1.98307e-20
8.66002e-21
2.85565e-21
4.99373e-22
5.45651e-24
1.09116e-22
1.51368e-21
6.07034e-21
1.73408e-20
3.69967e-20
7.79281e-20
1.31657e-19
2.55914e-19
3.7438e-19
7.51155e-19
1.00274e-18
2.31713e-18
3.54403e-18
1.01958e-17
3.27121e-17
5.85824e-17
5.00616e-16
2.26645e-15
6.99664e-14
1.0768e-09
4.76364e-09
3.71569e-09
1.84584e-11
6.68055e-13
9.12638e-14
1.50966e-14
4.10699e-15
1.58126e-15
6.85092e-16
3.16732e-16
1.57768e-16
8.42519e-17
4.74798e-17
2.78644e-17
1.68801e-17
1.04873e-17
6.64428e-18
4.26918e-18
2.76673e-18
1.79818e-18
1.16475e-18
7.46589e-19
4.69402e-19
2.86208e-19
1.66485e-19
9.01271e-20
4.35512e-20
1.73371e-20
4.73824e-21
4.66308e-22
3.21044e-24
1.28297e-21
8.45579e-21
2.974e-20
7.05561e-20
1.58887e-19
2.80035e-19
5.59494e-19
8.37243e-19
1.68366e-18
2.26817e-18
5.00251e-18
7.2522e-18
1.74292e-17
4.72583e-17
4.97537e-17
4.38146e-16
9.47387e-16
6.03392e-14
2.42764e-09
3.86817e-09
8.2119e-10
2.41032e-09
8.56004e-12
7.0884e-13
8.98758e-14
2.04714e-14
7.00848e-15
2.81646e-15
1.23803e-15
5.94512e-16
3.08831e-16
1.70391e-16
9.83672e-17
5.88332e-17
3.61946e-17
2.27652e-17
1.45563e-17
9.40992e-18
6.11589e-18
3.97297e-18
2.56292e-18
1.62905e-18
1.01044e-18
6.03371e-19
3.40139e-19
1.75404e-19
7.82066e-20
2.69066e-20
5.19057e-21
1.06514e-22
5.57959e-22
9.5787e-21
4.47552e-20
1.21045e-19
2.93334e-19
5.42728e-19
1.11225e-18
1.71249e-18
3.43666e-18
4.74276e-18
1.0002e-17
1.44648e-17
2.99301e-17
7.27923e-17
5.08683e-17
4.43701e-16
3.74057e-16
5.09513e-14
3.36915e-09
4.36878e-09
5.89848e-10
2.99211e-10
5.47037e-10
1.83836e-11
9.49047e-13
1.43899e-13
3.92034e-14
1.36242e-14
5.40586e-15
2.40504e-15
1.17859e-15
6.21538e-16
3.46308e-16
2.01382e-16
1.21154e-16
7.48681e-17
4.722e-17
3.0215e-17
1.95009e-17
1.26195e-17
8.1369e-18
5.18976e-18
3.24592e-18
1.96756e-18
1.13718e-18
6.10904e-19
2.92209e-19
1.14785e-19
3.04019e-20
2.78651e-21
4.01502e-23
9.14004e-21
6.29976e-20
1.9846e-19
5.19615e-19
1.01169e-18
2.11949e-18
3.36616e-18
6.70718e-18
9.55232e-18
1.92486e-17
2.8443e-17
5.22345e-17
1.18726e-16
7.07734e-17
5.48606e-16
2.36151e-16
4.35106e-14
3.4106e-09
4.60587e-09
6.71125e-10
1.92864e-10
4.67995e-11
6.68135e-11
3.01957e-10
2.77993e-12
3.85333e-13
9.60253e-14
3.09628e-14
1.19173e-14
5.24813e-15
2.55053e-15
1.33279e-15
7.36259e-16
4.24933e-16
2.53881e-16
1.55795e-16
9.75075e-17
6.18349e-17
3.9478e-17
2.52103e-17
1.59871e-17
9.98512e-18
6.07641e-18
3.55145e-18
1.95039e-18
9.71625e-19
4.12079e-19
1.29197e-19
2.02041e-20
5.19414e-23
7.64584e-21
8.87097e-20
3.2959e-19
9.30168e-19
1.90058e-18
4.04874e-18
6.62056e-18
1.30412e-17
1.91642e-17
3.69645e-17
5.61248e-17
9.4441e-17
2.05007e-16
1.31193e-16
8.1824e-16
4.24174e-16
3.96477e-14
3.21139e-09
4.38937e-09
7.71982e-10
2.01332e-10
3.62607e-11
2.15996e-11
1.33022e-11
2.08394e-11
1.47589e-10
2.20481e-12
3.48702e-13
9.3395e-14
3.27637e-14
1.359e-14
6.31294e-15
3.18346e-15
1.7087e-15
9.62565e-16
5.62881e-16
3.38554e-16
2.07751e-16
1.29091e-16
8.06372e-17
5.02499e-17
3.09791e-17
1.86977e-17
1.09011e-17
6.01821e-18
3.05066e-18
1.34523e-18
4.60873e-19
9.22786e-20
2.33156e-21
6.11233e-21
1.35465e-19
5.88843e-19
1.76888e-18
3.75887e-18
8.07413e-18
1.35161e-17
2.61926e-17
3.9528e-17
7.31258e-17
1.13763e-16
1.80112e-16
3.77101e-16
2.86827e-16
1.40291e-15
1.21744e-15
4.08175e-14
3.01697e-09
3.97072e-09
8.44366e-10
2.12084e-10
3.8485e-11
1.99051e-11
8.51458e-12
4.54327e-12
4.14998e-12
6.78031e-12
8.36515e-11
4.76903e-12
5.39032e-13
1.36368e-13
4.73535e-14
1.96234e-14
9.12772e-15
4.60769e-15
2.47028e-15
1.38485e-15
8.01992e-16
4.74893e-16
2.84903e-16
1.71624e-16
1.02858e-16
6.06661e-17
3.4746e-17
1.8958e-17
9.57503e-18
4.26155e-18
1.51337e-18
3.38319e-19
1.63334e-20
5.72614e-21
2.45758e-19
1.20184e-18
3.74842e-18
8.1577e-18
1.74599e-17
2.96576e-17
5.6189e-17
8.64427e-17
1.53497e-16
2.43027e-16
3.68928e-16
7.46979e-16
6.80648e-16
2.66998e-15
3.4953e-15
4.95033e-14
2.84557e-09
3.51047e-09
9.05769e-10
2.09401e-10
4.19452e-11
2.14018e-11
8.91766e-12
3.86014e-12
2.43215e-12
1.88847e-12
1.71176e-12
2.01322e-12
4.14382e-12
8.66159e-11
2.44354e-12
3.52571e-13
1.00226e-13
3.75792e-14
1.64441e-14
7.94113e-15
4.09946e-15
2.21492e-15
1.23294e-15
6.97823e-16
3.96769e-16
2.23749e-16
1.23337e-16
6.51571e-17
3.20587e-17
1.40054e-17
4.9423e-18
1.13036e-18
6.59213e-20
9.10957e-21
5.77332e-19
2.96083e-18
9.2556e-18
2.02138e-17
4.2472e-17
7.23855e-17
1.33049e-16
2.06729e-16
3.52131e-16
5.62193e-16
8.28217e-16
1.61833e-15
1.71687e-15
5.58724e-15
9.52394e-15
7.18624e-14
2.67557e-09
3.05466e-09
9.74502e-10
1.98149e-10
4.50682e-11
2.2827e-11
1.01451e-11
4.15628e-12
2.3731e-12
1.59076e-12
1.127e-12
8.59434e-13
7.32525e-13
7.1904e-13
8.60325e-13
1.47152e-12
7.1927e-12
7.38741e-12
5.06729e-13
1.22171e-13
4.27479e-14
1.78962e-14
8.29646e-15
4.08576e-15
2.08027e-15
1.07159e-15
5.47306e-16
2.70729e-16
1.2569e-16
5.21041e-17
1.74988e-17
3.8014e-18
2.03908e-19
3.42082e-20
1.87859e-18
9.26589e-18
2.78715e-17
5.9649e-17
1.20953e-16
2.04045e-16
3.6057e-16
5.5944e-16
9.12203e-16
1.45194e-15
2.08891e-15
3.91833e-15
4.66743e-15
1.29809e-14
2.57209e-14
1.2434e-13
2.4971e-09
2.61949e-09
1.05406e-09
1.83962e-10
4.83341e-11
2.36926e-11
1.15127e-11
4.66043e-12
2.5833e-12
1.67493e-12
1.11785e-12
7.68709e-13
5.59173e-13
4.32663e-13
3.56118e-13
3.13837e-13
3.00755e-13
3.22558e-13
4.10261e-13
7.14967e-13
2.99352e-12
4.53532e-12
3.36996e-13
7.69993e-14
2.54583e-14
9.85884e-15
4.09213e-15
1.72242e-15
6.99666e-16
2.57708e-16
7.69962e-17
1.44483e-17
5.20975e-19
3.01094e-19
9.10816e-18
3.95262e-17
1.09334e-16
2.22768e-16
4.26848e-16
7.00127e-16
1.17531e-15
1.7938e-15
2.78689e-15
4.35882e-15
6.12844e-15
1.09456e-14
1.41285e-14
3.43093e-14
7.2693e-14
2.54887e-13
2.31077e-09
2.21897e-09
1.13911e-09
1.69461e-10
5.22068e-11
2.41304e-11
1.29235e-11
5.2286e-12
2.85806e-12
1.84996e-12
1.22615e-12
8.21777e-13
5.71136e-13
4.1321e-13
3.09468e-13
2.39352e-13
1.91421e-13
1.58739e-13
1.36999e-13
1.23705e-13
1.17877e-13
1.20343e-13
1.35543e-13
1.79411e-13
3.30205e-13
1.7182e-12
1.03198e-13
5.66973e-14
1.19588e-14
2.83663e-15
5.92753e-16
7.39056e-17
6.36886e-19
6.77965e-18
8.26367e-17
2.7792e-16
6.55971e-16
1.20796e-15
2.10486e-15
3.2491e-15
5.06387e-15
7.41343e-15
1.08351e-14
1.62967e-14
2.2212e-14
3.72723e-14
5.02822e-14
1.07808e-13
2.28674e-13
6.26035e-13
2.11885e-09
1.85935e-09
1.22234e-09
1.55682e-10
5.67281e-11
2.42676e-11
1.44018e-11
5.8592e-12
3.15957e-12
2.05382e-12
1.37268e-12
9.18745e-13
6.31651e-13
4.48389e-13
3.26298e-13
2.4226e-13
1.83309e-13
1.41354e-13
1.11046e-13
8.88001e-14
7.21958e-14
5.95911e-14
4.98696e-14
4.2267e-14
3.62718e-14
3.15514e-14
2.79356e-14
2.54542e-14
2.45471e-14
2.72377e-14
4.66071e-14
5.74372e-13
1.04778e-12
1.30586e-14
8.1804e-15
9.45217e-15
1.26128e-14
1.64178e-14
2.21278e-14
2.85646e-14
3.80164e-14
4.9696e-14
6.51118e-14
8.96296e-14
1.14587e-13
1.75048e-13
2.3505e-13
4.41503e-13
8.79136e-13
1.93743e-12
1.923e-09
1.54106e-09
1.29717e-09
1.43392e-10
6.16522e-11
2.41718e-11
1.59489e-11
6.57649e-12
3.49142e-12
2.27685e-12
1.53976e-12
1.03638e-12
7.12284e-13
5.0385e-13
3.641e-13
2.67149e-13
1.98604e-13
1.49472e-13
1.13744e-13
8.73447e-14
6.75014e-14
5.23215e-14
4.05109e-14
3.11776e-14
2.3709e-14
1.76788e-14
1.27926e-14
8.85e-15
5.71239e-15
3.30377e-15
1.57116e-15
5.05489e-16
4.96515e-17
2.95374e-18
5.01602e-16
4.3152e-15
2.15478e-14
7.20704e-14
2.62552e-17
3.52922e-11
4.83191e-12
2.25172e-12
1.63343e-12
1.5025e-12
1.46689e-12
1.74998e-12
2.04012e-12
3.09226e-12
5.15299e-12
8.81644e-12
1.72546e-09
1.26395e-09
1.35791e-09
1.33478e-10
6.65753e-11
2.39115e-11
1.75283e-11
7.4011e-12
3.86286e-12
2.52167e-12
1.72645e-12
1.171e-12
8.0665e-13
5.70987e-13
4.12484e-13
3.02e-13
2.23492e-13
1.66984e-13
1.25766e-13
9.52505e-14
7.23051e-14
5.47882e-14
4.12367e-14
3.06456e-14
2.23241e-14
1.57913e-14
1.07075e-14
6.8302e-15
3.9735e-15
1.99869e-15
7.72905e-16
1.69647e-16
3.71113e-18
2.2653e-17
4.80396e-16
2.45521e-15
8.29819e-15
2.22993e-14
5.47169e-14
1.25406e-13
2.81935e-13
6.47633e-13
1.49157e-12
3.9303e-12
1.06563e-11
3.35163e-11
8.25525e-13
1.51319e-10
1.22903e-10
1.09281e-10
1.52898e-09
1.02771e-09
1.39969e-09
1.26879e-10
7.09756e-11
2.35858e-11
1.90784e-11
8.34907e-12
4.28198e-12
2.79195e-12
1.93509e-12
1.32426e-12
9.15002e-13
6.48656e-13
4.69211e-13
3.43744e-13
2.54267e-13
1.89679e-13
1.42469e-13
1.07462e-13
8.11078e-14
6.09781e-14
4.54172e-14
3.3292e-14
2.3824e-14
1.64714e-14
1.08454e-14
6.65992e-15
3.68279e-15
1.72422e-15
5.94068e-16
1.01272e-16
2.9175e-19
4.68651e-17
5.72934e-16
2.42319e-15
7.13182e-15
1.70506e-14
3.6837e-14
7.38966e-14
1.41807e-13
2.69305e-13
4.9411e-13
9.49708e-13
1.77146e-12
3.67261e-12
8.00407e-12
2.03651e-11
6.80508e-11
2.37974e-10
1.33651e-09
8.31166e-10
1.41848e-09
1.24481e-10
7.42547e-11
2.3323e-11
2.05222e-11
9.43354e-12
4.75675e-12
3.0909e-12
2.16792e-12
1.49873e-12
1.03934e-12
7.37995e-13
5.34696e-13
3.92222e-13
2.90309e-13
2.1658e-13
1.62615e-13
1.22554e-13
9.23608e-14
6.92697e-14
5.13986e-14
3.74651e-14
2.65931e-14
1.81758e-14
1.17763e-14
7.06942e-15
3.78248e-15
1.68206e-15
5.27695e-16
7.01483e-17
1.99342e-22
8.97913e-17
7.96615e-16
3.00659e-15
8.20099e-15
1.85506e-14
3.79117e-14
7.23023e-14
1.31265e-13
2.34809e-13
4.05305e-13
7.19082e-13
1.24693e-12
2.30819e-12
4.46201e-12
9.36116e-12
2.27212e-11
5.02541e-11
1.15101e-09
6.72009e-10
1.41139e-09
1.27067e-10
7.58513e-11
2.32644e-11
2.17764e-11
1.06635e-11
5.29611e-12
3.42184e-12
2.42677e-12
1.69697e-12
1.18203e-12
8.40741e-13
6.10141e-13
4.48226e-13
3.32071e-13
2.47858e-13
1.86148e-13
1.40303e-13
1.05717e-13
7.92332e-14
5.87028e-14
4.26702e-14
3.01467e-14
2.04538e-14
1.3104e-14
7.73266e-15
4.02736e-15
1.71076e-15
4.89337e-16
4.86381e-17
5.19037e-19
1.66334e-16
1.17579e-15
4.08286e-15
1.05708e-14
2.3101e-14
4.57282e-14
8.48948e-14
1.4999e-13
2.60562e-13
4.3833e-13
7.49395e-13
1.26523e-12
2.22936e-12
4.11208e-12
7.93885e-12
1.68454e-11
3.144e-11
9.75402e-10
5.46905e-10
1.37704e-09
1.35298e-10
7.53825e-11
2.35404e-11
2.27632e-11
1.20405e-11
5.91046e-12
3.78864e-12
2.71331e-12
1.9214e-12
1.3456e-12
9.58845e-13
6.96994e-13
5.12843e-13
3.80357e-13
2.84083e-13
2.1345e-13
1.60938e-13
1.21289e-13
9.08876e-14
6.72797e-14
4.88091e-14
3.43585e-14
2.31687e-14
1.46972e-14
8.53691e-15
4.33235e-15
1.75658e-15
4.54128e-16
3.10131e-17
4.40033e-18
2.9815e-16
1.76768e-15
5.73747e-15
1.42655e-14
3.03941e-14
5.88894e-14
1.07451e-13
1.86898e-13
3.19068e-13
5.29889e-13
8.86953e-13
1.47826e-12
2.53239e-12
4.53639e-12
8.30653e-12
1.60933e-11
2.69111e-11
8.12374e-10
4.51698e-10
1.31578e-09
1.49686e-10
7.27149e-11
2.42479e-11
2.34229e-11
1.35548e-11
6.6117e-12
4.19584e-12
3.02911e-12
2.17431e-12
1.5327e-12
1.09443e-12
7.96839e-13
5.87292e-13
4.36112e-13
3.25977e-13
2.45063e-13
1.84861e-13
1.39363e-13
1.04429e-13
7.72503e-14
5.59427e-14
3.92434e-14
2.63039e-14
1.65217e-14
9.4431e-15
4.66388e-15
1.79791e-15
4.13669e-16
1.67113e-17
1.74187e-17
5.17783e-16
2.66127e-15
8.15169e-15
1.95905e-14
4.08689e-14
7.79009e-14
1.40291e-13
2.41494e-13
4.07334e-13
6.71324e-13
1.10828e-12
1.83188e-12
3.0793e-12
5.38711e-12
9.47228e-12
1.70729e-11
2.62219e-11
6.64235e-10
3.81728e-10
1.22985e-09
1.70459e-10
6.80005e-11
2.5434e-11
2.37255e-11
1.51804e-11
7.41304e-12
4.64872e-12
3.37575e-12
2.45775e-12
1.74608e-12
1.24981e-12
9.11396e-13
6.72891e-13
5.00367e-13
3.74343e-13
2.81608e-13
2.12547e-13
1.60301e-13
1.20125e-13
8.88049e-14
6.41956e-14
4.48725e-14
2.98895e-14
1.85801e-14
1.04393e-14
5.00685e-15
1.82465e-15
3.65624e-16
6.55894e-18
5.00108e-17
8.74205e-16
3.98799e-15
1.16048e-14
2.7066e-14
5.54091e-14
1.04171e-13
1.8552e-13
3.1676e-13
5.29245e-13
8.67219e-13
1.41711e-12
2.32547e-12
3.85152e-12
6.59153e-12
1.11938e-11
1.89741e-11
2.71566e-11
5.32708e-10
3.32152e-10
1.12327e-09
1.97336e-10
6.1706e-11
2.70728e-11
2.36818e-11
1.68712e-11
8.32817e-12
5.15329e-12
3.75497e-12
2.77337e-12
1.98847e-12
1.42744e-12
1.04252e-12
7.71049e-13
5.74232e-13
4.30051e-13
3.23762e-13
2.44524e-13
1.8451e-13
1.38284e-13
1.02167e-13
7.37202e-14
5.13391e-14
3.39725e-14
2.08866e-14
1.15213e-14
5.35151e-15
1.83058e-15
3.1028e-16
1.22652e-18
1.20071e-16
1.44074e-15
5.93864e-15
1.65026e-14
3.7461e-14
7.53617e-14
1.39938e-13
2.46702e-13
4.18191e-13
6.93022e-13
1.12949e-12
1.83008e-12
2.98053e-12
4.87199e-12
8.15991e-12
1.34233e-11
2.15629e-11
2.90692e-11
4.18801e-10
2.9819e-10
1.00161e-09
2.29253e-10
5.45922e-11
2.90351e-11
2.33485e-11
1.85595e-11
9.36968e-12
5.71626e-12
4.16873e-12
3.12235e-12
2.26248e-12
1.62991e-12
1.19216e-12
8.83249e-13
6.58876e-13
4.94028e-13
3.72252e-13
2.81359e-13
2.12431e-13
1.59241e-13
1.17583e-13
8.46845e-14
5.87461e-14
3.86044e-14
2.34571e-14
1.2685e-14
5.68826e-15
1.81069e-15
2.49479e-16
2.65828e-21
2.57137e-16
2.32623e-15
8.78689e-15
2.34194e-14
5.18623e-14
1.02639e-13
1.88414e-13
3.29022e-13
5.53918e-13
9.11153e-13
1.47682e-12
2.37459e-12
3.83563e-12
6.19126e-12
1.01503e-11
1.62064e-11
2.48294e-11
3.18265e-11
3.2273e-10
2.75304e-10
8.7222e-10
2.64007e-10
4.76474e-11
3.10789e-11
2.28229e-11
2.01606e-11
1.05467e-11
6.34505e-12
4.61941e-12
3.50533e-12
2.57035e-12
1.85982e-12
1.36237e-12
1.01102e-12
7.55503e-13
5.67239e-13
4.27843e-13
3.23652e-13
2.44531e-13
1.83355e-13
1.35314e-13
9.72674e-14
6.72012e-14
4.3837e-14
2.63046e-14
1.39232e-14
6.00588e-15
1.76058e-15
1.86391e-16
8.60932e-19
5.08554e-16
3.69048e-15
1.29213e-14
3.31575e-14
7.1774e-14
1.39882e-13
2.54022e-13
4.39644e-13
7.35225e-13
1.20107e-12
1.93552e-12
3.08965e-12
4.94682e-12
7.88602e-12
1.26612e-11
1.96568e-11
2.88923e-11
3.55323e-11
2.43833e-10
2.59533e-10
7.43829e-10
2.98137e-10
4.19123e-11
3.28868e-11
2.22288e-11
2.158e-11
1.18615e-11
7.04783e-12
5.10988e-12
3.92245e-12
2.91382e-12
2.11972e-12
1.55522e-12
1.1559e-12
8.65323e-13
6.50662e-13
4.91319e-13
3.72025e-13
2.813e-13
2.10999e-13
1.55635e-13
1.11655e-13
7.68141e-14
4.97195e-14
2.94375e-14
1.52242e-14
6.29114e-15
1.67673e-15
1.25433e-16
1.07389e-17
9.48393e-16
5.76576e-15
1.88888e-14
4.68271e-14
9.92564e-14
1.90683e-13
3.42763e-13
5.88267e-13
9.77366e-13
1.58631e-12
2.54117e-12
4.02803e-12
6.39034e-12
1.0062e-11
1.58335e-11
2.39513e-11
3.39689e-11
4.04394e-11
1.80718e-10
2.47633e-10
6.23727e-10
3.27539e-10
3.81878e-11
3.41168e-11
2.16962e-11
2.27259e-11
1.33042e-11
7.83323e-12
5.64354e-12
4.37338e-12
3.29385e-12
2.4119e-12
1.77276e-12
1.31941e-12
9.89503e-13
7.45252e-13
5.63459e-13
4.27105e-13
3.23232e-13
2.42558e-13
1.78829e-13
1.28035e-13
8.76923e-14
5.62958e-14
3.28576e-14
1.65711e-14
6.52898e-15
1.55716e-15
7.19596e-17
4.86529e-17
1.69006e-15
8.88594e-15
2.74531e-14
6.59536e-14
1.37111e-13
2.59898e-13
4.62704e-13
7.87886e-13
1.30074e-12
2.09827e-12
3.34115e-12
5.25977e-12
8.26742e-12
1.28601e-11
1.98576e-11
2.93371e-11
4.03758e-11
4.69364e-11
1.31561e-10
2.36804e-10
5.15697e-10
3.48588e-10
3.6896e-11
3.44575e-11
2.13343e-11
2.35274e-11
1.48478e-11
8.70959e-12
6.2241e-12
4.85753e-12
3.71041e-12
2.73819e-12
2.0169e-12
1.50294e-12
1.12912e-12
8.51899e-13
6.45007e-13
4.89498e-13
3.70815e-13
2.78409e-13
2.05172e-13
1.46593e-13
9.99376e-14
6.36016e-14
3.65582e-14
1.79412e-14
6.703e-15
1.40213e-15
3.14328e-17
1.4931e-16
2.90378e-15
1.35257e-14
3.96722e-14
9.26185e-14
1.89123e-13
3.54047e-13
6.24635e-13
1.05582e-12
1.73246e-12
2.77856e-12
4.3981e-12
6.87727e-12
1.07114e-11
1.64667e-11
2.49864e-11
3.61487e-11
4.855e-11
5.55729e-11
9.42673e-11
2.24832e-10
4.21267e-10
3.58925e-10
3.81868e-11
3.37412e-11
2.12049e-11
2.39517e-11
1.64463e-11
9.68405e-12
6.85558e-12
5.37428e-12
4.16244e-12
3.09977e-12
2.28932e-12
1.70776e-12
1.2851e-12
9.71384e-13
7.36633e-13
5.59767e-13
4.24508e-13
3.18917e-13
2.34934e-13
1.67504e-13
1.13641e-13
7.16615e-14
4.05229e-14
1.93059e-14
6.79637e-15
1.21505e-15
7.73389e-18
3.71873e-16
4.84037e-15
2.03525e-14
5.69986e-14
1.29642e-13
2.60379e-13
4.81844e-13
8.42912e-13
1.41506e-12
2.30842e-12
3.68212e-12
5.79458e-12
9.00198e-12
1.38974e-11
2.11268e-11
3.15558e-11
4.48357e-11
5.90873e-11
6.71169e-11
6.66376e-11
2.1044e-10
3.41013e-10
3.57678e-10
4.20503e-11
3.20387e-11
2.13069e-11
2.40123e-11
1.80351e-11
1.07609e-11
7.54213e-12
5.9233e-12
4.64789e-12
3.49694e-12
2.59134e-12
1.93497e-12
1.45821e-12
1.10434e-12
8.38908e-13
6.38412e-13
4.84729e-13
3.64414e-13
2.68362e-13
1.90927e-13
1.28879e-13
8.0487e-14
4.47249e-14
2.06313e-14
6.79316e-15
1.0031e-15
2.23313e-19
8.12277e-16
7.86285e-15
3.02934e-14
8.14091e-14
1.80816e-13
3.57665e-13
6.54857e-13
1.13654e-12
1.89594e-12
3.07595e-12
4.88125e-12
7.63908e-12
1.17934e-11
1.80552e-11
2.71635e-11
4.00108e-11
5.60012e-11
7.27996e-11
8.26402e-11
4.65987e-11
1.93253e-10
2.74666e-10
3.45361e-10
4.82834e-11
2.96378e-11
2.15765e-11
2.37658e-11
1.95358e-11
1.19388e-11
8.2879e-12
6.50476e-12
5.1639e-12
3.92895e-12
2.92381e-12
2.18538e-12
1.64899e-12
1.25119e-12
9.52261e-13
7.25839e-13
5.51836e-13
4.15196e-13
3.05675e-13
2.17001e-13
1.45712e-13
9.00745e-14
4.91265e-14
2.18792e-14
6.67987e-15
7.7767e-16
9.34742e-19
1.62e-15
1.24874e-14
4.46213e-14
1.15567e-13
2.51196e-13
4.89975e-13
8.88356e-13
1.53056e-12
2.53836e-12
4.09721e-12
6.4708e-12
1.00738e-11
1.54603e-11
2.34863e-11
3.50016e-11
5.09417e-11
7.04541e-11
9.07932e-11
1.0364e-10
3.2331e-11
1.73609e-10
2.21155e-10
3.23644e-10
5.6384e-11
2.69532e-11
2.1898e-11
2.33005e-11
2.08659e-11
1.32077e-11
9.09658e-12
7.11937e-12
5.70713e-12
4.39388e-12
3.28691e-12
2.45951e-12
1.85773e-12
1.41218e-12
1.07695e-12
8.22341e-13
6.26111e-13
4.71505e-13
3.4706e-13
2.4584e-13
1.64179e-13
1.00406e-13
5.36804e-14
2.30089e-14
6.44734e-15
5.54026e-16
2.16888e-17
3.02014e-15
1.94357e-14
6.50614e-14
1.63027e-13
3.47466e-13
6.69133e-13
1.20236e-12
2.05773e-12
3.39451e-12
5.45345e-12
8.57473e-12
1.32844e-11
2.02758e-11
3.05852e-11
4.52001e-11
6.51305e-11
8.92776e-11
1.14572e-10
1.32199e-10
2.23247e-11
1.52387e-10
1.78823e-10
2.94999e-10
6.55132e-11
2.4431e-11
2.21267e-11
2.27183e-11
2.19514e-11
1.45454e-11
9.9709e-12
7.76834e-12
6.2742e-12
4.88863e-12
3.68001e-12
2.75753e-12
2.08448e-12
1.58726e-12
1.21306e-12
9.28079e-13
7.0775e-13
5.3353e-13
3.92664e-13
2.77532e-13
1.84303e-13
1.11449e-13
5.83316e-14
2.39794e-14
6.09256e-15
3.50139e-16
1.1374e-16
5.34156e-15
2.96988e-14
9.3922e-14
2.28477e-13
4.78383e-13
9.1057e-13
1.62295e-12
2.76068e-12
4.53226e-12
7.25039e-12
1.13543e-11
1.75129e-11
2.65958e-11
3.98672e-11
5.8492e-11
8.36101e-11
1.13916e-10
1.4617e-10
1.71196e-10
1.53806e-11
1.30814e-10
1.45723e-10
2.62229e-10
7.45711e-11
2.24652e-11
2.21299e-11
2.21133e-11
2.27406e-11
1.59164e-11
1.09118e-11
8.45319e-12
6.86211e-12
5.40911e-12
4.10156e-12
3.07915e-12
2.32903e-12
1.7762e-12
1.36044e-12
1.04307e-12
7.96857e-13
6.01396e-13
4.42596e-13
3.12139e-13
2.06088e-13
1.2316e-13
6.30207e-14
2.4753e-14
5.62034e-15
1.84141e-16
3.67251e-16
9.05138e-15
4.46149e-14
1.3425e-13
3.18039e-13
6.55304e-13
1.23425e-12
2.1838e-12
3.6945e-12
6.03939e-12
9.62484e-12
1.50186e-11
2.30729e-11
3.48823e-11
5.20025e-11
7.58335e-11
1.07735e-10
1.46276e-10
1.88302e-10
2.24543e-10
1.05921e-11
1.10029e-10
1.19918e-10
2.28118e-10
8.23785e-11
2.13308e-11
2.18325e-11
2.15544e-11
2.32145e-11
1.72727e-11
1.19175e-11
9.17572e-12
7.46876e-12
5.95062e-12
4.54909e-12
3.4236e-12
2.5909e-12
1.97852e-12
1.51877e-12
1.16719e-12
8.93447e-13
6.75181e-13
4.96937e-13
3.4971e-13
2.29531e-13
1.35494e-13
6.76888e-14
2.52981e-14
5.04437e-15
7.02536e-17
9.26682e-16
1.47956e-14
6.5958e-14
1.90012e-13
4.39605e-13
8.92816e-13
1.66575e-12
2.9281e-12
4.92991e-12
8.02869e-12
1.27528e-11
1.98367e-11
3.03685e-11
4.57313e-11
6.78566e-11
9.84618e-11
1.39261e-10
1.88841e-10
2.44521e-10
2.97405e-10
7.3056e-12
9.07445e-11
9.96578e-11
1.95045e-10
8.79446e-11
2.11373e-11
2.1236e-11
2.10738e-11
2.33886e-11
1.85579e-11
1.29814e-11
9.93756e-12
8.09303e-12
6.50832e-12
5.01919e-12
3.78958e-12
2.86943e-12
2.19359e-12
1.68756e-12
1.30019e-12
9.97459e-13
7.54921e-13
5.5575e-13
3.90287e-13
2.54629e-13
1.48407e-13
7.22833e-14
2.55932e-14
4.38747e-15
1.30225e-17
2.00933e-15
2.34447e-14
9.60376e-14
2.66291e-13
6.03226e-13
1.20944e-12
2.23757e-12
3.91075e-12
6.55689e-12
1.0644e-11
1.68592e-11
2.61529e-11
3.99172e-11
5.99056e-11
8.85361e-11
1.27956e-10
1.80423e-10
2.44754e-10
3.19311e-10
3.96275e-10
5.05404e-12
7.3415e-11
8.34725e-11
1.64563e-10
9.06791e-11
2.18368e-11
2.04157e-11
2.06646e-11
2.33078e-11
1.97152e-11
1.40905e-11
1.07396e-11
8.73481e-12
7.07771e-12
5.50768e-12
4.17519e-12
3.16368e-12
2.42065e-12
1.86618e-12
1.4417e-12
1.10877e-12
8.40629e-13
6.19098e-13
4.3392e-13
2.81392e-13
1.61868e-13
7.67646e-14
2.56295e-14
3.68065e-15
4.98648e-20
3.9254e-15
3.61406e-14
1.37801e-13
3.69503e-13
8.21524e-13
1.62841e-12
2.9905e-12
5.2008e-12
8.68895e-12
1.40671e-11
2.22286e-11
3.44033e-11
5.2374e-11
7.83688e-11
1.15433e-10
1.66286e-10
2.33982e-10
3.1784e-10
4.17996e-10
5.28617e-10
3.50787e-12
5.83711e-11
7.02287e-11
1.37437e-10
9.04476e-11
2.32606e-11
1.95001e-11
2.02941e-11
2.30349e-11
2.06955e-11
1.52245e-11
1.15815e-11
9.39481e-12
7.65516e-12
6.00991e-12
4.57794e-12
3.4725e-12
2.65885e-12
2.05395e-12
1.59129e-12
1.22721e-12
9.32319e-13
6.87065e-13
4.80695e-13
3.09862e-13
1.75874e-13
8.11136e-14
2.54136e-14
2.96085e-15
6.19588e-18
7.09732e-15
5.43403e-14
1.94928e-13
5.07593e-13
1.1101e-12
2.17846e-12
3.97511e-12
6.8841e-12
1.14676e-11
1.85253e-11
2.92175e-11
4.51338e-11
6.85564e-11
1.02316e-10
1.50255e-10
2.15834e-10
3.03184e-10
4.12421e-10
5.46247e-10
7.01636e-10
2.44202e-12
4.57305e-11
5.91224e-11
1.13936e-10
8.75218e-11
2.51495e-11
1.86337e-11
1.99229e-11
2.26378e-11
2.14659e-11
1.63557e-11
1.24611e-11
1.00743e-11
8.23821e-12
6.52111e-12
4.99479e-12
3.79446e-12
2.9073e-12
2.25013e-12
1.74849e-12
1.35261e-12
1.03003e-12
7.59789e-13
5.30752e-13
3.40133e-13
1.90461e-13
8.53391e-14
2.49694e-14
2.26752e-15
7.63316e-17
1.20745e-14
7.98471e-14
2.71904e-13
6.90199e-13
1.48786e-12
2.89454e-12
5.25309e-12
9.06583e-12
1.50668e-11
2.42985e-11
3.82648e-11
5.9015e-11
8.94625e-11
1.33189e-10
1.95022e-10
2.7932e-10
3.91549e-10
5.32795e-10
7.08876e-10
9.19669e-10
1.70424e-12
3.53987e-11
4.96249e-11
9.39956e-11
8.2453e-11
2.71884e-11
1.79384e-11
1.95213e-11
2.21763e-11
2.2014e-11
1.74513e-11
1.33734e-11
1.07745e-11
8.82581e-12
7.03693e-12
5.42231e-12
4.12794e-12
3.16513e-12
2.45407e-12
1.91288e-12
1.48486e-12
1.13388e-12
8.37495e-13
5.84322e-13
3.72378e-13
2.05726e-13
8.94871e-14
2.43382e-14
1.63806e-15
3.19889e-16
1.9538e-14
1.14816e-13
3.74039e-13
9.28725e-13
1.97728e-12
3.8183e-12
6.89836e-12
1.18725e-11
1.96966e-11
3.1725e-11
4.99e-11
7.68508e-11
1.16273e-10
1.72655e-10
2.51979e-10
3.5958e-10
5.02351e-10
6.82144e-10
9.07679e-10
1.18014e-09
1.19142e-12
2.71432e-11
4.14102e-11
7.73303e-11
7.59118e-11
2.90586e-11
1.74905e-11
1.90795e-11
2.16948e-11
2.23488e-11
1.84768e-11
1.43099e-11
1.14967e-11
9.41823e-12
7.55386e-12
5.85691e-12
4.47112e-12
3.43149e-12
2.66524e-12
2.08412e-12
1.62391e-12
1.2441e-12
9.20544e-13
6.4177e-13
4.06879e-13
2.21844e-13
9.365e-14
2.35787e-14
1.10299e-15
8.86329e-16
3.02871e-14
1.61716e-13
5.074e-13
1.23624e-12
2.60425e-12
4.99809e-12
8.99727e-12
1.54527e-11
2.5604e-11
4.12029e-11
6.47426e-11
9.95695e-11
1.50317e-10
2.22514e-10
3.23377e-10
4.59094e-10
6.3767e-10
8.6081e-10
1.13854e-09
1.46949e-09
8.3371e-13
2.06642e-11
3.42862e-11
6.35338e-11
6.85552e-11
3.04914e-11
1.73118e-11
1.86102e-11
2.12204e-11
2.24969e-11
1.94014e-11
1.52588e-11
1.22412e-11
1.00169e-11
8.06966e-12
6.29518e-12
4.82204e-12
3.70564e-12
2.8833e-12
2.26212e-12
1.76992e-12
1.36109e-12
1.00949e-12
7.03639e-13
4.44072e-13
2.39096e-13
9.79778e-14
2.27661e-14
6.81418e-16
1.95779e-15
4.51973e-14
2.23224e-13
6.786e-13
1.62715e-12
3.39755e-12
6.48817e-12
1.16474e-11
1.99753e-11
3.30703e-11
5.3183e-11
8.34858e-11
1.28184e-10
1.92984e-10
2.84496e-10
4.11051e-10
5.79175e-10
7.97e-10
1.06418e-09
1.38895e-09
1.7622e-09
5.83543e-13
1.56499e-11
2.81351e-11
5.21654e-11
6.09444e-11
3.13075e-11
1.73738e-11
1.81434e-11
2.0766e-11
2.24957e-11
2.02023e-11
1.62045e-11
1.30073e-11
1.0624e-11
8.58351e-12
6.73422e-12
5.17877e-12
3.98695e-12
3.10821e-12
2.44702e-12
1.92328e-12
1.48551e-12
1.10512e-12
7.70713e-13
4.84588e-13
2.57901e-13
1.02691e-13
2.19912e-14
3.78114e-16
3.72968e-15
6.5139e-14
3.02016e-13
8.9438e-13
2.11638e-12
4.38757e-12
8.34655e-12
1.49541e-11
2.56231e-11
4.23998e-11
6.8148e-11
1.06853e-10
1.63702e-10
2.45531e-10
3.59889e-10
5.15741e-10
7.18855e-10
9.75682e-10
1.28115e-09
1.63802e-09
2.02602e-09
4.08314e-13
1.18102e-11
2.28719e-11
4.28086e-11
5.35011e-11
3.14331e-11
1.7609e-11
1.77155e-11
2.03364e-11
2.23869e-11
2.08677e-11
1.71298e-11
1.37927e-11
1.12421e-11
9.09614e-12
7.17204e-12
5.53959e-12
4.27496e-12
3.34022e-12
2.63935e-12
2.08474e-12
1.61835e-12
1.20858e-12
8.44081e-13
5.29314e-13
2.78856e-13
1.08101e-13
2.13606e-14
1.83095e-16
6.37559e-15
9.08426e-14
4.00434e-13
1.1609e-12
2.71809e-12
5.60386e-12
1.06307e-11
1.90231e-11
3.25803e-11
5.38962e-11
8.65673e-11
1.35511e-10
2.06957e-10
3.08768e-10
4.48981e-10
6.36196e-10
8.73695e-10
1.16386e-09
1.49439e-09
1.86048e-09
2.23186e-09
2.85516e-13
8.89231e-12
1.84239e-11
3.51001e-11
4.64999e-11
3.08909e-11
1.79265e-11
1.7355e-11
1.99331e-11
2.22093e-11
2.13986e-11
1.80171e-11
1.45935e-11
1.18738e-11
9.60961e-12
7.60784e-12
5.90318e-12
4.56946e-12
3.57997e-12
2.8401e-12
2.25549e-12
1.761e-12
1.3214e-12
9.25228e-13
5.79471e-13
3.02788e-13
1.14632e-13
2.10002e-14
7.44714e-17
9.9947e-15
1.22702e-13
5.1998e-13
1.48266e-12
3.44351e-12
7.0712e-12
1.33906e-11
2.39477e-11
4.10096e-11
6.7821e-11
1.08821e-10
1.69929e-10
2.58348e-10
3.82607e-10
5.50352e-10
7.68267e-10
1.03506e-09
1.34687e-09
1.68341e-09
2.03335e-09
2.36203e-09
1.99523e-13
6.68478e-12
1.47199e-11
2.87397e-11
4.00948e-11
2.97726e-11
1.82308e-11
1.70764e-11
1.95593e-11
2.19961e-11
2.18066e-11
1.88518e-11
1.5404e-11
1.25214e-11
1.01272e-11
8.04221e-12
6.26896e-12
4.87061e-12
3.82854e-12
3.0508e-12
2.43729e-12
1.91544e-12
1.44566e-12
1.01614e-12
6.36708e-13
3.30829e-13
1.22866e-13
2.10648e-14
2.43643e-17
1.45438e-14
1.60517e-13
6.60635e-13
1.86098e-12
4.29791e-12
8.80378e-12
1.66579e-11
2.97892e-11
5.10159e-11
8.43279e-11
1.35078e-10
2.1016e-10
3.17479e-10
4.65508e-10
6.60182e-10
9.04382e-10
1.19047e-09
1.50758e-09
1.82925e-09
2.14145e-09
2.41152e-09
1.39395e-13
5.01859e-12
1.16784e-11
2.34867e-11
3.43538e-11
2.82066e-11
1.84398e-11
1.68791e-11
1.9221e-11
2.17738e-11
2.21121e-11
1.96237e-11
1.62179e-11
1.31869e-11
1.0653e-11