/*--------------------------------*- C++ -*----------------------------------*\
  =========                 |
  \\      /  F ield         | OpenFOAM: The Open Source CFD Toolbox
   \\    /   O peration     | Website:  https://openfoam.org
    \\  /    A nd           | Version:  7
     \\/     M anipulation  |
\*---------------------------------------------------------------------------*/
FoamFile
{
    version     2.0;
    format      ascii;
    class       volScalarField;
    location    "0.28";
    object      p;
}
// * * * * * * * * * * * * * * * * * * * * * * * * * * * * * * * * * * * * * //

dimensions      [0 2 -2 0 0 0 0];

internalField   nonuniform List<scalar> 
70000
(
0.116339
0.0388877
0.0263753
0.0288323
0.0290185
0.0279828
0.0270699
0.0263917
0.0258378
0.0253604
0.0249464
0.0245878
0.0242771
0.0240077
0.0237743
0.0235726
0.023399
0.0232508
0.0231258
0.0230221
0.0229382
0.022873
0.0228255
0.0227949
0.0227808
0.0227827
0.0228003
0.0228336
0.0228826
0.0229474
0.0230282
0.0231253
0.0232394
0.0233707
0.0235202
0.0236883
0.0238763
0.024085
0.0243156
0.02457
0.0248482
0.0251559
0.0254872
0.0258612
0.0262498
0.0267167
0.0271561
0.0277856
0.0282187
0.0292177
0.111971
0.0392546
0.0265783
0.0289279
0.0290731
0.0280189
0.0270981
0.026415
0.0258573
0.0253772
0.024961
0.0246007
0.0242886
0.0240181
0.0237838
0.0235813
0.023407
0.0232583
0.0231328
0.0230286
0.0229444
0.0228788
0.022831
0.0228002
0.0227858
0.0227875
0.022805
0.0228381
0.0228869
0.0229516
0.0230323
0.0231293
0.0232433
0.0233745
0.0235239
0.023692
0.02388
0.0240886
0.0243192
0.0245736
0.0248518
0.0251595
0.0254908
0.0258649
0.0262535
0.0267205
0.02716
0.0277889
0.0282267
0.0292519
0.10839
0.0401944
0.0269186
0.029057
0.0291473
0.0280636
0.0271304
0.0264412
0.0258791
0.0253956
0.0249769
0.0246147
0.0243011
0.0240293
0.0237939
0.0235905
0.0234156
0.0232662
0.0231401
0.0230355
0.0229509
0.0228849
0.0228368
0.0228057
0.0227911
0.0227925
0.0228098
0.0228427
0.0228914
0.0229558
0.0230364
0.0231333
0.0232472
0.0233783
0.0235276
0.0236956
0.0238835
0.0240921
0.0243227
0.024577
0.0248551
0.0251628
0.0254941
0.0258683
0.0262567
0.0267239
0.0271632
0.027791
0.0282438
0.0292731
0.105296
0.0412961
0.027388
0.0292309
0.0292482
0.0281211
0.0271685
0.026471
0.0259037
0.0254161
0.0249943
0.0246298
0.0243144
0.0240412
0.0238046
0.0236003
0.0234245
0.0232744
0.0231477
0.0230426
0.0229575
0.0228911
0.0228427
0.0228112
0.0227963
0.0227975
0.0228145
0.0228472
0.0228957
0.02296
0.0230404
0.0231372
0.0232509
0.0233819
0.0235311
0.023699
0.0238868
0.0240952
0.0243257
0.0245799
0.0248579
0.0251655
0.0254967
0.0258707
0.026259
0.0267258
0.0271656
0.0277901
0.0282678
0.0292799
0.102336
0.0423924
0.0279537
0.0294513
0.0293826
0.0281989
0.0272174
0.026508
0.0259336
0.0254406
0.0250148
0.0246472
0.0243296
0.0240546
0.0238166
0.0236111
0.0234343
0.0232834
0.023156
0.0230502
0.0229646
0.0228977
0.0228488
0.022817
0.0228018
0.0228026
0.0228194
0.0228518
0.0229001
0.0229641
0.0230443
0.0231409
0.0232544
0.0233852
0.0235342
0.0237019
0.0238896
0.0240979
0.0243281
0.0245821
0.02486
0.0251673
0.0254983
0.0258719
0.02626
0.0267258
0.027167
0.0277856
0.0282949
0.0292779
0.099427
0.0434312
0.0285687
0.0296982
0.0295447
0.0282985
0.0272797
0.0265542
0.0259707
0.0254708
0.0250398
0.0246684
0.0243478
0.0240705
0.0238307
0.0236236
0.0234456
0.0232936
0.0231653
0.0230588
0.0229724
0.022905
0.0228556
0.0228233
0.0228076
0.0228081
0.0228245
0.0228566
0.0229045
0.0229683
0.0230482
0.0231445
0.0232577
0.0233883
0.023537
0.0237045
0.0238919
0.0240999
0.0243298
0.0245835
0.024861
0.025168
0.0254985
0.0258715
0.0262593
0.0267232
0.0271666
0.0277771
0.0283204
0.0292673
0.0965621
0.0443935
0.0291993
0.0299499
0.0297212
0.0284153
0.0273542
0.0266096
0.0260156
0.0255075
0.0250701
0.0246939
0.0243697
0.0240896
0.0238474
0.0236384
0.0234588
0.0233055
0.0231761
0.0230686
0.0229814
0.0229132
0.0228631
0.0228302
0.022814
0.022814
0.0228299
0.0228616
0.0229091
0.0229725
0.023052
0.023148
0.0232608
0.023391
0.0235394
0.0237065
0.0238935
0.0241011
0.0243306
0.0245838
0.0248607
0.0251671
0.025497
0.0258689
0.0262563
0.0267175
0.0271637
0.0277641
0.0283402
0.0292461
0.0937474
0.0452714
0.0298295
0.0301946
0.0299014
0.0285428
0.0274376
0.0266721
0.0260668
0.02555
0.0251055
0.0247239
0.0243955
0.024112
0.0238671
0.0236559
0.0234744
0.0233195
0.0231887
0.0230799
0.0229917
0.0229226
0.0228717
0.022838
0.0228211
0.0228205
0.0228358
0.022867
0.022914
0.0229768
0.0230559
0.0231513
0.0232637
0.0233934
0.0235413
0.0237079
0.0238943
0.0241013
0.0243302
0.0245827
0.0248589
0.0251643
0.0254933
0.0258637
0.0262504
0.026708
0.0271573
0.027746
0.02835
0.0292122
0.0909889
0.0460619
0.0304541
0.0304283
0.030079
0.0286763
0.0275266
0.0267392
0.0261226
0.0255969
0.025145
0.0247576
0.0244247
0.0241376
0.0238897
0.0236759
0.0234923
0.0233355
0.0232031
0.023093
0.0230035
0.0229333
0.0228814
0.0228469
0.0228291
0.0228277
0.0228423
0.0228728
0.0229191
0.0229814
0.0230598
0.0231546
0.0232664
0.0233955
0.0235427
0.0237086
0.0238942
0.0241005
0.0243284
0.02458
0.0248551
0.0251593
0.025487
0.0258554
0.0262412
0.026694
0.0271464
0.0277221
0.0283465
0.0291639
0.0882911
0.046765
0.0310719
0.0306507
0.0302512
0.0288128
0.0276191
0.0268088
0.026181
0.0256466
0.0251874
0.0247941
0.0244566
0.0241657
0.0239147
0.0236982
0.0235123
0.0233535
0.0232194
0.0231077
0.0230168
0.0229454
0.0228923
0.0228568
0.022838
0.0228357
0.0228495
0.0228791
0.0229247
0.0229861
0.0230638
0.0231579
0.0232688
0.0233971
0.0235435
0.0237085
0.0238932
0.0240984
0.0243252
0.0245756
0.0248493
0.0251519
0.0254779
0.0258437
0.026228
0.0266751
0.02713
0.0276918
0.0283273
0.0290995
0.0856573
0.047381
0.0316823
0.0308626
0.0304166
0.028951
0.0277141
0.0268799
0.0262408
0.0256981
0.0252316
0.0248325
0.0244903
0.0241956
0.0239414
0.0237222
0.0235339
0.0233731
0.0232371
0.0231238
0.0230315
0.0229587
0.0229044
0.0228676
0.0228478
0.0228445
0.0228573
0.022886
0.0229306
0.0229912
0.0230679
0.0231611
0.0232711
0.0233984
0.0235437
0.0237076
0.0238911
0.0240952
0.0243206
0.0245694
0.0248414
0.0251419
0.0254659
0.0258283
0.0262108
0.0266512
0.0271074
0.0276546
0.0282912
0.0290181
0.0830904
0.0479102
0.0322837
0.0310651
0.0305741
0.02909
0.0278112
0.026952
0.0263015
0.0257505
0.0252769
0.0248719
0.0245251
0.0242267
0.0239693
0.0237474
0.0235567
0.0233938
0.023256
0.023141
0.0230471
0.0229729
0.0229173
0.0228793
0.0228584
0.0228539
0.0228656
0.0228933
0.0229369
0.0229964
0.0230721
0.0231642
0.0232731
0.0233993
0.0235434
0.0237061
0.0238882
0.0240907
0.0243144
0.0245614
0.0248313
0.0251293
0.0254508
0.0258093
0.0261893
0.0266222
0.0270779
0.0276102
0.0282381
0.0289199
0.0805931
0.0483532
0.0328742
0.0312592
0.0307232
0.029229
0.0279102
0.0270249
0.0263628
0.0258038
0.025323
0.0249122
0.0245608
0.0242586
0.0239981
0.0237734
0.0235804
0.0234153
0.0232756
0.0231589
0.0230634
0.0229878
0.0229308
0.0228916
0.0228694
0.0228638
0.0228744
0.0229009
0.0229434
0.0230018
0.0230764
0.0231673
0.023275
0.0233999
0.0235426
0.0237038
0.0238843
0.0240851
0.0243069
0.0245517
0.0248192
0.0251143
0.0254328
0.0257867
0.0261636
0.0265884
0.0270416
0.0275586
0.0281694
0.0288059
0.0781677
0.0487108
0.0334513
0.0314465
0.0308632
0.0293671
0.028011
0.0270987
0.0264244
0.0258575
0.0253697
0.0249531
0.024597
0.0242911
0.0240274
0.0238
0.0236045
0.0234374
0.0232958
0.0231773
0.0230803
0.0230032
0.0229449
0.0229043
0.0228809
0.0228741
0.0228834
0.0229088
0.0229501
0.0230073
0.0230806
0.0231702
0.0232766
0.0234001
0.0235413
0.0237009
0.0238796
0.0240784
0.024298
0.0245404
0.0248052
0.0250969
0.0254121
0.0257609
0.0261339
0.0265501
0.0269986
0.0274998
0.028087
0.0286784
0.0758167
0.0489842
0.0340121
0.0316283
0.0309939
0.0295034
0.0281136
0.0271732
0.0264864
0.0259118
0.0254171
0.0249946
0.0246338
0.024324
0.0240571
0.023827
0.0236291
0.0234599
0.0233163
0.0231962
0.0230975
0.0230189
0.0229592
0.0229173
0.0228926
0.0228845
0.0228926
0.0229168
0.0229568
0.0230128
0.0230848
0.023173
0.023278
0.0233999
0.0235395
0.0236973
0.023874
0.0240707
0.0242879
0.0245276
0.0247894
0.0250774
0.0253889
0.0257322
0.0261005
0.0265078
0.0269494
0.0274345
0.0279934
0.0285401
0.0735421
0.0491751
0.0345534
0.0318062
0.0311149
0.0296371
0.0282176
0.0272486
0.0265486
0.0259664
0.0254649
0.0250365
0.024671
0.0243574
0.0240873
0.0238544
0.0236541
0.0234826
0.0233372
0.0232152
0.023115
0.0230349
0.0229737
0.0229305
0.0229044
0.0228951
0.0229019
0.0229248
0.0229635
0.0230181
0.0230888
0.0231756
0.023279
0.0233993
0.0235372
0.0236931
0.0238677
0.0240621
0.0242767
0.0245135
0.024772
0.0250561
0.0253634
0.0257008
0.0260638
0.0264619
0.0268947
0.0273632
0.0278912
0.0283943
0.0713455
0.0492856
0.0350722
0.0319817
0.0312262
0.029767
0.0283228
0.0273248
0.026611
0.0260213
0.0255132
0.0250789
0.0247086
0.0243912
0.0241178
0.0238821
0.0236793
0.0235057
0.0233583
0.0232346
0.0231327
0.023051
0.0229884
0.0229437
0.0229164
0.0229057
0.0229112
0.0229327
0.0229701
0.0230234
0.0230926
0.0231779
0.0232797
0.0233984
0.0235343
0.0236882
0.0238607
0.0240526
0.0242645
0.0244981
0.0247532
0.025033
0.0253359
0.0256671
0.0260241
0.0264128
0.0268351
0.0272866
0.0277826
0.0282439
0.0692282
0.0493181
0.0355655
0.0321559
0.0313279
0.0298922
0.0284288
0.0274018
0.0266734
0.0260765
0.0255619
0.0251217
0.0247466
0.0244253
0.0241487
0.0239101
0.0237049
0.0235291
0.0233796
0.0232541
0.0231505
0.0230673
0.0230032
0.0229571
0.0229283
0.0229163
0.0229205
0.0229406
0.0229766
0.0230284
0.0230962
0.0231799
0.0232801
0.0233969
0.0235309
0.0236828
0.0238528
0.0240422
0.0242512
0.0244815
0.024733
0.0250082
0.0253064
0.0256313
0.0259816
0.0263606
0.0267712
0.0272053
0.0276697
0.0280913
0.0671911
0.0492756
0.0360304
0.0323296
0.0314203
0.0300116
0.0285351
0.0274797
0.0267359
0.0261317
0.0256109
0.0251649
0.024785
0.0244598
0.0241798
0.0239385
0.0237307
0.0235526
0.0234012
0.0232738
0.0231685
0.0230837
0.023018
0.0229705
0.0229403
0.0229269
0.0229296
0.0229484
0.022983
0.0230333
0.0230995
0.0231816
0.02328
0.023395
0.023527
0.0236766
0.0238443
0.0240309
0.0242369
0.0244637
0.0247113
0.0249819
0.0252751
0.0255934
0.0259365
0.0263057
0.0267036
0.0271201
0.0275538
0.0279387
0.0652344
0.0491615
0.036464
0.0325035
0.0315037
0.0301245
0.0286413
0.0275584
0.0267984
0.0261869
0.0256603
0.0252085
0.0248237
0.0244946
0.0242113
0.0239671
0.0237568
0.0235765
0.0234229
0.0232937
0.0231867
0.0231002
0.023033
0.022984
0.0229523
0.0229374
0.0229387
0.0229561
0.0229891
0.0230379
0.0231025
0.0231829
0.0232795
0.0233926
0.0235225
0.0236698
0.0238349
0.0240187
0.0242215
0.0244447
0.0246883
0.0249541
0.0252419
0.0255534
0.0258889
0.0262481
0.0266327
0.0270313
0.027436
0.0277873
0.0633582
0.0489798
0.0368638
0.0326776
0.0315789
0.0302298
0.0287467
0.0276378
0.0268609
0.026242
0.0257098
0.0252524
0.0248628
0.0245296
0.0242431
0.023996
0.0237831
0.0236005
0.0234449
0.0233137
0.0232049
0.0231168
0.023048
0.0229974
0.0229643
0.0229479
0.0229477
0.0229635
0.0229951
0.0230423
0.0231052
0.0231839
0.0232786
0.0233896
0.0235173
0.0236622
0.0238246
0.0240055
0.024205
0.0244244
0.0246638
0.0249246
0.0252068
0.0255114
0.0258389
0.0261878
0.0265586
0.0269395
0.0273171
0.0276381
0.061562
0.0487348
0.0372271
0.0328519
0.0316465
0.030327
0.0288505
0.0277178
0.0269233
0.0262969
0.0257594
0.0252966
0.0249021
0.024565
0.0242751
0.0240251
0.0238096
0.0236247
0.023467
0.0233339
0.0232233
0.0231335
0.023063
0.0230109
0.0229762
0.0229583
0.0229566
0.0229708
0.0230008
0.0230463
0.0231075
0.0231843
0.0232771
0.023386
0.0235114
0.0236538
0.0238135
0.0239912
0.0241874
0.0244028
0.0246379
0.0248934
0.0251698
0.0254673
0.0257864
0.0261249
0.0264817
0.0268449
0.0271975
0.0274916
0.059845
0.0484313
0.0375518
0.0330259
0.0317073
0.0304154
0.0289521
0.0277982
0.0269856
0.0263514
0.0258089
0.025341
0.0249416
0.0246005
0.0243073
0.0240544
0.0238364
0.0236491
0.0234893
0.0233542
0.0232418
0.0231502
0.0230781
0.0230243
0.0229881
0.0229686
0.0229653
0.0229779
0.0230062
0.0230501
0.0231094
0.0231844
0.0232751
0.0233818
0.0235048
0.0236446
0.0238014
0.0239759
0.0241685
0.0243799
0.0246103
0.0248606
0.0251308
0.0254211
0.0257314
0.0260592
0.0264021
0.0267479
0.0270775
0.0273482
0.0582059
0.0480742
0.0378359
0.0331986
0.0317623
0.0304948
0.0290505
0.0278789
0.0270478
0.0264055
0.0258583
0.0253854
0.0249813
0.0246362
0.0243397
0.0240839
0.0238633
0.0236736
0.0235117
0.0233746
0.0232603
0.023167
0.0230932
0.0230378
0.0229998
0.0229787
0.0229738
0.0229848
0.0230114
0.0230534
0.0231109
0.0231839
0.0232725
0.0233769
0.0234974
0.0236345
0.0237883
0.0239595
0.0241483
0.0243555
0.0245812
0.0248259
0.0250898
0.0253726
0.0256739
0.0259909
0.0263198
0.0266487
0.0269574
0.0272077
0.0566431
0.0476689
0.0380777
0.0333686
0.0318124
0.0305649
0.029145
0.0279594
0.0271098
0.026459
0.0259075
0.02543
0.0250212
0.0246721
0.0243722
0.0241135
0.0238903
0.0236983
0.0235341
0.0233951
0.0232789
0.0231837
0.0231082
0.0230511
0.0230115
0.0229887
0.0229821
0.0229914
0.0230162
0.0230564
0.0231119
0.0231829
0.0232692
0.0233713
0.0234892
0.0236234
0.0237741
0.0239418
0.0241268
0.0243295
0.0245503
0.0247893
0.0250467
0.0253218
0.0256139
0.0259199
0.0262351
0.0265476
0.0268373
0.0270703
0.0551549
0.0472208
0.038276
0.0335345
0.0318586
0.0306257
0.0292345
0.0280394
0.0271718
0.026512
0.0259562
0.0254744
0.0250611
0.024708
0.0244049
0.0241433
0.0239174
0.0237231
0.0235567
0.0234156
0.0232975
0.0232005
0.0231232
0.0230643
0.023023
0.0229985
0.0229902
0.0229977
0.0230206
0.0230589
0.0231125
0.0231812
0.0232653
0.0233649
0.0234802
0.0236114
0.0237588
0.0239229
0.0241039
0.024302
0.0245176
0.0247508
0.0250014
0.0252686
0.0255514
0.0258463
0.0261479
0.0264447
0.0267172
0.0269355
0.0537388
0.0467356
0.0384298
0.0336941
0.0319017
0.0306775
0.0293184
0.0281184
0.0272335
0.0265642
0.0260044
0.0255187
0.025101
0.024744
0.0244375
0.0241731
0.0239447
0.0237479
0.0235793
0.0234361
0.023316
0.0232172
0.0231381
0.0230774
0.0230344
0.0230081
0.022998
0.0230036
0.0230247
0.023061
0.0231124
0.023179
0.0232607
0.0233577
0.0234701
0.0235983
0.0237424
0.0239027
0.0240794
0.0242729
0.0244832
0.0247102
0.0249538
0.025213
0.0254862
0.02577
0.0260583
0.0263402
0.0265971
0.0268032
0.0523926
0.0462188
0.0385389
0.0338452
0.0319425
0.0307205
0.0293957
0.0281958
0.0272949
0.0266157
0.0260519
0.0255626
0.0251409
0.02478
0.0244702
0.0242029
0.0239719
0.0237727
0.0236019
0.0234567
0.0233346
0.0232338
0.0231528
0.0230904
0.0230455
0.0230174
0.0230055
0.0230092
0.0230283
0.0230626
0.0231118
0.023176
0.0232553
0.0233496
0.0234591
0.0235841
0.0237246
0.023881
0.0240534
0.024242
0.0244467
0.0246675
0.024904
0.0251549
0.0254185
0.0256911
0.0259665
0.0262341
0.0264769
0.0266728
0.0511135
0.045676
0.0386032
0.0339854
0.0319817
0.0307553
0.0294659
0.028271
0.0273558
0.0266665
0.0260985
0.0256062
0.0251805
0.0248158
0.0245028
0.0242327
0.0239991
0.0237975
0.0236245
0.0234771
0.023353
0.0232503
0.0231675
0.0231032
0.0230564
0.0230265
0.0230126
0.0230144
0.0230314
0.0230636
0.0231106
0.0231724
0.023249
0.0233405
0.023447
0.0235687
0.0237055
0.0238579
0.0240258
0.0242093
0.0244083
0.0246227
0.0248517
0.0250942
0.0253481
0.0256096
0.0258723
0.0261264
0.0263566
0.0265441
0.0498986
0.0451126
0.0386236
0.0341119
0.0320195
0.0307825
0.0295284
0.0283434
0.0274161
0.0267163
0.0261443
0.0256491
0.0252199
0.0248516
0.0245353
0.0242624
0.0240262
0.0238223
0.023647
0.0234975
0.0233714
0.0232667
0.0231819
0.0231157
0.0230671
0.0230352
0.0230193
0.0230191
0.0230341
0.023064
0.0231086
0.0231679
0.0232419
0.0233305
0.0234338
0.023552
0.0236851
0.0238332
0.0239964
0.0241747
0.0243678
0.0245755
0.024797
0.025031
0.025275
0.0255254
0.0257759
0.0260173
0.0262359
0.0264164
0.0487452
0.0445336
0.038601
0.0342226
0.0320561
0.030803
0.0295828
0.0284121
0.0274754
0.0267653
0.0261889
0.0256914
0.025259
0.0248871
0.0245676
0.0242919
0.0240533
0.023847
0.0236694
0.0235178
0.0233896
0.0232829
0.0231962
0.023128
0.0230774
0.0230435
0.0230257
0.0230233
0.0230361
0.0230637
0.0231059
0.0231626
0.0232338
0.0233194
0.0234195
0.023534
0.0236632
0.0238069
0.0239652
0.0241381
0.0243252
0.0245261
0.0247398
0.0249651
0.0251993
0.0254387
0.0256772
0.0259065
0.0261147
0.0262893
0.04765
0.0439437
0.038537
0.0343152
0.0320909
0.0308173
0.0296288
0.0284766
0.0275335
0.0268133
0.0262324
0.0257327
0.0252975
0.0249222
0.0245997
0.0243212
0.0240801
0.0238714
0.0236917
0.0235379
0.0234076
0.0232989
0.0232101
0.02314
0.0230874
0.0230515
0.0230315
0.023027
0.0230375
0.0230627
0.0231024
0.0231565
0.0232247
0.0233072
0.0234038
0.0235147
0.0236397
0.0237789
0.0239322
0.0240994
0.0242803
0.0244742
0.0246801
0.0248964
0.0251208
0.0253493
0.0255763
0.0257941
0.0259927
0.0261623
0.0466101
0.0433472
0.0384339
0.0343878
0.0321235
0.0308263
0.0296665
0.028536
0.0275898
0.0268602
0.0262746
0.025773
0.0253354
0.024957
0.0246314
0.0243503
0.0241067
0.0238957
0.0237137
0.0235577
0.0234254
0.0233146
0.0232238
0.0231516
0.023097
0.0230589
0.0230368
0.0230301
0.0230383
0.023061
0.0230981
0.0231493
0.0232146
0.0232938
0.0233869
0.0234938
0.0236146
0.0237491
0.0238972
0.0240587
0.0242331
0.0244198
0.0246177
0.0248251
0.0250395
0.0252572
0.025473
0.0256799
0.0258697
0.0260346
0.0456223
0.0427479
0.0382941
0.0344389
0.0321527
0.0308305
0.0296959
0.0285897
0.027644
0.026906
0.0263155
0.0258121
0.0253725
0.0249913
0.0246627
0.0243789
0.0241329
0.0239197
0.0237354
0.0235773
0.0234428
0.02333
0.0232371
0.0231628
0.0231061
0.0230659
0.0230416
0.0230325
0.0230383
0.0230585
0.0230929
0.0231412
0.0232033
0.0232791
0.0233685
0.0234715
0.0235878
0.0237175
0.0238602
0.0240157
0.0241835
0.0243629
0.0245525
0.0247509
0.0249554
0.0251625
0.0253673
0.0255638
0.0257452
0.0259059
0.0446836
0.0421491
0.0381205
0.0344673
0.0321774
0.0308304
0.0297173
0.0286372
0.0276955
0.0269503
0.0263549
0.0258498
0.0254086
0.0250249
0.0246935
0.0244071
0.0241588
0.0239433
0.0237568
0.0235965
0.0234599
0.023345
0.02325
0.0231736
0.0231147
0.0230723
0.0230457
0.0230343
0.0230375
0.0230551
0.0230866
0.023132
0.0231908
0.0232631
0.0233487
0.0234475
0.0235593
0.0236839
0.0238211
0.0239705
0.0241315
0.0243033
0.0244847
0.0246739
0.0248684
0.025065
0.0252591
0.0254456
0.025619
0.0257754
0.043791
0.0415538
0.0379161
0.034472
0.0321961
0.0308265
0.0297311
0.028678
0.0277437
0.0269931
0.0263928
0.025886
0.0254436
0.0250577
0.0247237
0.0244348
0.0241842
0.0239664
0.0237778
0.0236153
0.0234766
0.0233595
0.0232624
0.0231839
0.0231228
0.0230781
0.0230491
0.0230353
0.0230359
0.0230507
0.0230794
0.0231216
0.0231771
0.0232457
0.0233274
0.0234218
0.0235289
0.0236483
0.0237798
0.0239228
0.0240769
0.024241
0.0244139
0.0245939
0.0247785
0.0249646
0.0251483
0.0253251
0.0254907
0.0256427
0.0429417
0.0409644
0.0376843
0.0344527
0.0322074
0.0308188
0.0297376
0.0287117
0.0277881
0.027034
0.0264291
0.0259207
0.0254773
0.0250896
0.0247532
0.0244619
0.024209
0.0239891
0.0237983
0.0236337
0.0234928
0.0233736
0.0232743
0.0231936
0.0231302
0.0230832
0.0230518
0.0230354
0.0230334
0.0230454
0.023071
0.02311
0.023162
0.0232269
0.0233044
0.0233944
0.0234965
0.0236106
0.0237362
0.0238728
0.0240197
0.024176
0.0243403
0.024511
0.0246857
0.0248614
0.0250348
0.025202
0.0253599
0.0255072
0.0421328
0.0403828
0.0374284
0.0344092
0.0322096
0.0308074
0.0297374
0.0287381
0.027828
0.0270727
0.0264637
0.0259535
0.0255095
0.0251204
0.0247818
0.0244882
0.0242332
0.0240112
0.0238183
0.0236515
0.0235085
0.0233871
0.0232856
0.0232026
0.023137
0.0230876
0.0230537
0.0230347
0.0230299
0.023039
0.0230615
0.0230971
0.0231455
0.0232064
0.0232797
0.0233651
0.0234622
0.0235707
0.0236902
0.0238202
0.0239598
0.0241081
0.0242637
0.024425
0.0245898
0.0247553
0.0249184
0.0250762
0.0252264
0.0253684
0.0413618
0.0398107
0.0371516
0.034342
0.0322015
0.030792
0.0297309
0.0287572
0.0278629
0.0271088
0.0264963
0.0259846
0.0255402
0.02515
0.0248095
0.0245138
0.0242566
0.0240325
0.0238376
0.0236687
0.0235235
0.0234
0.0232963
0.023211
0.023143
0.0230911
0.0230547
0.023033
0.0230254
0.0230314
0.0230507
0.0230828
0.0231275
0.0231844
0.0232533
0.0233338
0.0234257
0.0235286
0.0236418
0.023765
0.0238971
0.0240373
0.0241841
0.024336
0.0244908
0.024646
0.0247991
0.0249475
0.0250896
0.0252258
0.0406261
0.0392494
0.0368572
0.0342517
0.0321816
0.0307721
0.0297186
0.028769
0.0278925
0.0271418
0.0265268
0.0260136
0.025569
0.0251781
0.0248361
0.0245383
0.0242791
0.0240531
0.0238561
0.0236852
0.0235379
0.0234121
0.0233062
0.0232186
0.0231481
0.0230938
0.0230547
0.0230302
0.0230197
0.0230226
0.0230385
0.0230671
0.0231079
0.0231606
0.023225
0.0233006
0.0233871
0.0234841
0.023591
0.0237071
0.0238316
0.0239635
0.0241015
0.0242438
0.0243886
0.0245336
0.0246766
0.0248155
0.0249494
0.025079
0.0399234
0.0386997
0.036548
0.0341393
0.032149
0.0307471
0.0297007
0.0287735
0.0279161
0.0271714
0.0265551
0.0260405
0.0255959
0.0252047
0.0248614
0.0245619
0.0243007
0.0240728
0.0238738
0.0237009
0.0235514
0.0234235
0.0233152
0.0232253
0.0231524
0.0230955
0.0230537
0.0230264
0.0230128
0.0230125
0.023025
0.0230498
0.0230866
0.0231351
0.0231947
0.0232653
0.0233462
0.0234372
0.0235375
0.0236464
0.0237632
0.0238867
0.0240156
0.0241484
0.0242832
0.024418
0.0245508
0.0246801
0.0248054
0.0249276
0.0392515
0.0381623
0.036227
0.0340061
0.0321028
0.0307165
0.0296774
0.028771
0.0279336
0.027197
0.0265808
0.0260652
0.0256206
0.0252295
0.0248853
0.0245842
0.0243213
0.0240915
0.0238906
0.0237156
0.0235641
0.0234339
0.0233234
0.0232311
0.0231557
0.0230962
0.0230516
0.0230214
0.0230047
0.0230011
0.02301
0.023031
0.0230636
0.0231076
0.0231625
0.0232277
0.023303
0.0233878
0.0234813
0.023583
0.0236918
0.0238068
0.0239266
0.0240497
0.0241744
0.0242989
0.0244216
0.0245411
0.0246573
0.0247713
0.0386085
0.0376377
0.0358967
0.0338536
0.0320425
0.0306792
0.0296488
0.0287618
0.0279447
0.0272182
0.0266036
0.0260876
0.0256432
0.0252523
0.0249076
0.0246051
0.0243406
0.024109
0.0239064
0.0237294
0.0235758
0.0234434
0.0233306
0.0232359
0.0231579
0.0230957
0.0230484
0.0230151
0.0229952
0.0229881
0.0229934
0.0230104
0.0230388
0.0230782
0.0231281
0.023188
0.0232574
0.0233358
0.0234224
0.0235166
0.0236174
0.0237238
0.0238343
0.0239477
0.0240622
0.0241764
0.0242887
0.0243982
0.0245048
0.0246098
0.0379923
0.037126
0.0355592
0.0336834
0.0319678
0.0306347
0.0296149
0.0287459
0.0279492
0.0272347
0.0266232
0.0261073
0.0256634
0.0252731
0.0249281
0.0246246
0.0243586
0.0241254
0.0239209
0.0237421
0.0235864
0.0234518
0.0233367
0.0232395
0.023159
0.023094
0.0230438
0.0230074
0.0229842
0.0229736
0.0229751
0.0229881
0.0230121
0.0230468
0.0230915
0.0231458
0.0232092
0.0232811
0.0233607
0.0234473
0.0235399
0.0236375
0.0237387
0.0238422
0.0239466
0.0240503
0.0241522
0.0242513
0.0243479
0.0244429
0.0374013
0.0366273
0.0352167
0.0334972
0.0318787
0.0305821
0.0295756
0.0287238
0.0279472
0.0272459
0.0266393
0.0261243
0.025681
0.0252915
0.0249467
0.0246424
0.0243751
0.0241403
0.0239342
0.0237535
0.0235958
0.0234591
0.0233416
0.023242
0.0231588
0.0230911
0.0230379
0.0229983
0.0229717
0.0229575
0.0229551
0.0229639
0.0229834
0.0230132
0.0230526
0.0231013
0.0231585
0.0232237
0.0232962
0.023375
0.0234593
0.0235479
0.0236397
0.0237333
0.0238274
0.0239206
0.0240118
0.0241003
0.0241862
0.0242706
0.0368339
0.0361415
0.0348709
0.0332968
0.0317755
0.0305208
0.0295305
0.0286955
0.0279386
0.0272518
0.0266514
0.0261382
0.025696
0.0253075
0.0249631
0.0246584
0.02439
0.0241538
0.0239461
0.0237636
0.0236039
0.023465
0.0233452
0.0232431
0.0231573
0.0230867
0.0230305
0.0229877
0.0229576
0.0229397
0.0229332
0.0229377
0.0229526
0.0229774
0.0230114
0.0230542
0.0231052
0.0231636
0.0232287
0.0232996
0.0233754
0.0234551
0.0235373
0.0236209
0.0237046
0.0237871
0.0238674
0.023945
0.0240198
0.0240926
0.0362884
0.0356685
0.0345233
0.0330837
0.0316586
0.0304503
0.0294794
0.0286611
0.0279234
0.0272519
0.0266594
0.026149
0.0257081
0.0253209
0.0249772
0.0246724
0.0244031
0.0241657
0.0239564
0.0237722
0.0236106
0.0234696
0.0233475
0.0232428
0.0231543
0.0230808
0.0230215
0.0229754
0.0229418
0.02292
0.0229095
0.0229095
0.0229197
0.0229393
0.0229678
0.0230046
0.0230491
0.0231005
0.0231582
0.0232211
0.0232883
0.0233589
0.0234315
0.023505
0.0235782
0.0236498
0.0237191
0.0237853
0.0238485
0.0239091
0.0357637
0.0352079
0.0341753
0.0328598
0.0315286
0.0303703
0.0294219
0.0286207
0.0279018
0.0272461
0.0266627
0.0261562
0.0257172
0.0253315
0.0249889
0.0246842
0.0244143
0.0241757
0.0239651
0.0237793
0.0236158
0.0234726
0.0233482
0.023241
0.0231498
0.0230734
0.0230109
0.0229614
0.0229241
0.0228985
0.0228837
0.0228792
0.0228844
0.0228988
0.0229216
0.0229523
0.0229902
0.0230346
0.0230846
0.0231394
0.023198
0.0232593
0.0233222
0.0233855
0.023448
0.0235087
0.0235667
0.0236213
0.0236724
0.0237202
0.0352583
0.0347596
0.0338278
0.0326266
0.0313862
0.0302804
0.0293577
0.0285744
0.0278738
0.0272343
0.0266612
0.0261596
0.025723
0.0253391
0.0249978
0.0246937
0.0244234
0.0241839
0.023972
0.0237846
0.0236192
0.023474
0.0233473
0.0232376
0.0231436
0.0230642
0.0229985
0.0229455
0.0229046
0.0228749
0.0228558
0.0228467
0.0228469
0.0228558
0.0228729
0.0228973
0.0229285
0.0229657
0.0230079
0.0230545
0.0231043
0.0231563
0.0232093
0.0232624
0.0233142
0.0233638
0.0234103
0.023453
0.0234915
0.0235259
0.034771
0.0343231
0.0334818
0.0323855
0.0312324
0.0301808
0.0292865
0.028522
0.0278395
0.0272164
0.0266545
0.0261589
0.0257255
0.0253437
0.0250039
0.0247005
0.0244302
0.0241899
0.0239769
0.023788
0.0236209
0.0234737
0.0233446
0.0232324
0.0231356
0.0230532
0.0229842
0.0229278
0.022883
0.0228492
0.0228257
0.0228118
0.0228069
0.0228103
0.0228214
0.0228395
0.0228639
0.0228937
0.0229281
0.0229663
0.0230072
0.0230498
0.023093
0.0231357
0.0231767
0.0232151
0.0232499
0.0232804
0.023306
0.0233266
0.0343009
0.0338982
0.0331382
0.0321378
0.0310679
0.0300713
0.0292079
0.0284634
0.027799
0.0271923
0.0266425
0.0261539
0.0257243
0.025345
0.025007
0.0247047
0.0244345
0.0241937
0.0239796
0.0237894
0.0236206
0.0234714
0.0233401
0.0232253
0.0231257
0.0230403
0.022968
0.0229079
0.0228593
0.0228213
0.0227933
0.0227745
0.0227644
0.0227622
0.0227673
0.0227789
0.0227963
0.0228186
0.0228452
0.0228749
0.0229068
0.0229399
0.0229732
0.0230054
0.0230355
0.0230625
0.0230855
0.0231036
0.0231161
0.0231226
0.0338468
0.0334844
0.0327974
0.0318849
0.0308938
0.0299524
0.0291218
0.0283986
0.0277523
0.0271621
0.0266249
0.0261443
0.0257192
0.0253428
0.0250069
0.0247059
0.0244362
0.0241951
0.0239801
0.0237886
0.0236183
0.0234671
0.0233336
0.0232162
0.0231139
0.0230254
0.0229497
0.022886
0.0228334
0.0227911
0.0227585
0.0227348
0.0227193
0.0227114
0.0227103
0.0227153
0.0227257
0.0227405
0.022759
0.0227802
0.0228031
0.0228266
0.0228499
0.0228716
0.0228907
0.0229063
0.0229173
0.0229228
0.022922
0.0229141
0.0334079
0.0330815
0.03246
0.0316278
0.030711
0.0298242
0.0290281
0.0283273
0.0276995
0.0271258
0.0266017
0.0261298
0.02571
0.0253369
0.0250035
0.024704
0.024435
0.0241939
0.0239782
0.0237856
0.0236137
0.0234606
0.0233249
0.023205
0.0230999
0.0230082
0.0229292
0.0228617
0.0228051
0.0227585
0.0227212
0.0226925
0.0226716
0.0226579
0.0226505
0.0226488
0.022652
0.0226592
0.0226696
0.0226822
0.022696
0.02271
0.0227231
0.0227343
0.0227424
0.0227465
0.0227454
0.0227382
0.022724
0.0227016
0.0329832
0.0326889
0.0321264
0.0313674
0.0305204
0.0296873
0.0289267
0.0282496
0.0276405
0.0270833
0.0265727
0.0261103
0.0256965
0.0253273
0.0249965
0.0246989
0.0244309
0.0241899
0.0239737
0.02378
0.0236067
0.0234518
0.0233139
0.0231916
0.0230836
0.0229888
0.0229063
0.0228351
0.0227745
0.0227235
0.0226814
0.0226475
0.0226211
0.0226015
0.0225878
0.0225793
0.0225753
0.0225748
0.022577
0.0225809
0.0225855
0.0225899
0.022593
0.0225936
0.0225907
0.0225832
0.02257
0.0225501
0.0225224
0.0224856
0.0325719
0.0323063
0.0317969
0.0311047
0.0303231
0.0295421
0.0288177
0.0281653
0.0275754
0.0270347
0.0265379
0.0260855
0.0256784
0.0253136
0.0249859
0.0246904
0.0244236
0.024183
0.0239664
0.0237718
0.0235972
0.0234406
0.0233006
0.0231757
0.0230649
0.022967
0.0228811
0.0228061
0.0227413
0.0226858
0.0226389
0.0225998
0.0225679
0.0225422
0.0225221
0.0225068
0.0224954
0.0224872
0.0224811
0.0224764
0.0224719
0.0224666
0.0224596
0.0224496
0.0224357
0.0224167
0.0223914
0.0223588
0.0223177
0.0222666
0.0321732
0.0319334
0.0314718
0.0308404
0.0301197
0.0293892
0.0287013
0.0280744
0.0275041
0.0269801
0.0264971
0.0260554
0.0256556
0.0252956
0.0249713
0.0246782
0.0244129
0.0241729
0.0239562
0.0237609
0.023585
0.0234267
0.0232846
0.0231574
0.0230437
0.0229427
0.0228532
0.0227744
0.0227055
0.0226455
0.0225937
0.0225494
0.0225117
0.02248
0.0224534
0.0224312
0.0224125
0.0223964
0.0223821
0.0223686
0.022355
0.0223401
0.022323
0.0223025
0.0222776
0.0222471
0.0222098
0.0221646
0.0221102
0.0220451
0.0317865
0.0315697
0.0311511
0.0305752
0.0299112
0.0292291
0.0285776
0.0279769
0.0274266
0.0269193
0.0264505
0.0260198
0.0256278
0.0252733
0.0249527
0.0246623
0.0243986
0.0241595
0.0239429
0.023747
0.0235699
0.0234101
0.023266
0.0231363
0.0230199
0.0229157
0.0228228
0.0227401
0.0226669
0.0226024
0.0225456
0.022496
0.0224526
0.0224148
0.0223817
0.0223525
0.0223264
0.0223025
0.02228
0.0222578
0.0222349
0.0222105
0.0221833
0.0221524
0.0221165
0.0220747
0.0220255
0.021968
0.0219005
0.0218217
0.0314111
0.031215
0.0308352
0.0303097
0.0296983
0.0290624
0.0284468
0.0278727
0.0273429
0.0268526
0.026398
0.0259786
0.025595
0.0252463
0.0249299
0.0246424
0.0243807
0.0241426
0.0239263
0.0237299
0.0235519
0.0233906
0.0232445
0.0231125
0.0229933
0.022886
0.0227895
0.022703
0.0226256
0.0225564
0.0224947
0.0224397
0.0223906
0.0223466
0.0223069
0.0222707
0.0222372
0.0222055
0.0221747
0.0221438
0.0221119
0.0220779
0.0220407
0.0219994
0.0219528
0.0218997
0.0218389
0.0217692
0.0216891
0.0215971
0.0310463
0.0308688
0.0305239
0.0300444
0.0294817
0.0288898
0.0283094
0.0277621
0.027253
0.0267798
0.0263396
0.0259318
0.025557
0.0252147
0.0249027
0.0246184
0.024359
0.0241221
0.0239062
0.0237096
0.0235307
0.023368
0.02322
0.0230857
0.0229638
0.0228534
0.0227534
0.022663
0.0225813
0.0225075
0.0224408
0.0223804
0.0223255
0.0222753
0.0222291
0.0221859
0.022145
0.0221054
0.0220664
0.0220268
0.0219858
0.0219424
0.0218954
0.0218439
0.0217867
0.0217226
0.0216504
0.0215688
0.0214764
0.0213717
0.0306917
0.0305308
0.0302175
0.0297798
0.0292621
0.0287118
0.0281657
0.0276452
0.0271571
0.026701
0.0262752
0.0258793
0.0255136