/*--------------------------------*- C++ -*----------------------------------*\
  =========                 |
  \\      /  F ield         | OpenFOAM: The Open Source CFD Toolbox
   \\    /   O peration     | Website:  https://openfoam.org
    \\  /    A nd           | Version:  7
     \\/     M anipulation  |
\*---------------------------------------------------------------------------*/
FoamFile
{
    version     2.0;
    format      ascii;
    class       surfaceScalarField;
    location    "0.28";
    object      phi;
}
// * * * * * * * * * * * * * * * * * * * * * * * * * * * * * * * * * * * * * //

dimensions      [0 3 -1 0 0 0 0];

internalField   nonuniform List<scalar> 
139350
(
6.45115e-08
9.212e-08
3.19629e-08
3.25486e-08
2.3056e-08
8.90686e-09
1.95694e-08
3.48659e-09
1.76155e-08
1.95395e-09
1.6183e-08
1.43249e-09
1.50475e-08
1.13549e-09
1.41323e-08
9.15212e-10
1.33786e-08
7.53663e-10
1.27431e-08
6.35488e-10
1.2197e-08
5.46146e-10
1.17208e-08
4.7617e-10
1.13008e-08
4.19959e-10
1.09268e-08
3.73989e-10
1.0591e-08
3.35854e-10
1.02872e-08
3.03833e-10
1.00105e-08
2.76659e-10
9.75712e-09
2.53385e-10
9.52383e-09
2.3329e-10
9.30801e-09
2.15818e-10
9.10747e-09
2.00535e-10
8.92038e-09
1.87096e-10
8.74515e-09
1.75225e-10
8.58045e-09
1.64701e-10
8.42511e-09
1.55342e-10
8.27811e-09
1.46999e-10
8.13856e-09
1.39548e-10
8.00567e-09
1.3289e-10
7.87874e-09
1.26936e-10
7.75711e-09
1.21623e-10
7.64024e-09
1.16877e-10
7.52756e-09
1.12677e-10
7.41862e-09
1.0894e-10
7.31291e-09
1.05704e-10
7.21008e-09
1.02838e-10
7.1096e-09
1.00482e-10
7.0112e-09
9.83953e-11
6.91432e-09
9.68843e-11
6.81876e-09
9.55533e-11
6.7239e-09
9.48595e-11
6.62948e-09
9.44195e-11
6.53512e-09
9.43615e-11
6.43965e-09
9.54712e-11
6.34453e-09
9.51225e-11
6.24425e-09
1.00276e-10
6.14865e-09
9.55987e-11
6.03328e-09
1.15377e-10
5.9545e-09
7.87734e-11
5.68467e-09
2.69832e-10
-2.55656e-09
8.24123e-09
1.25942e-07
1.27621e-07
9.12865e-08
6.72043e-08
7.19305e-08
2.82629e-08
6.12113e-08
1.42058e-08
5.47707e-08
8.39449e-09
5.0271e-08
5.93221e-09
4.6781e-08
4.62549e-09
4.39614e-08
3.73481e-09
4.16313e-08
3.08374e-09
3.96652e-08
2.60162e-09
3.79757e-08
2.23564e-09
3.65027e-08
1.94914e-09
3.52035e-08
1.71916e-09
3.40464e-08
1.53109e-09
3.30072e-08
1.37503e-09
3.20671e-08
1.24394e-09
3.12112e-08
1.13263e-09
3.04273e-08
1.03725e-09
2.97057e-08
9.54847e-10
2.90384e-08
8.83154e-10
2.84185e-08
8.20396e-10
2.78405e-08
7.65164e-10
2.72994e-08
7.16331e-10
2.67911e-08
6.72988e-10
2.6312e-08
6.3439e-10
2.58591e-08
5.99926e-10
2.54296e-08
5.69091e-10
2.5021e-08
5.41468e-10
2.46312e-08
5.16701e-10
2.42583e-08
4.94515e-10
2.39006e-08
4.74638e-10
2.35563e-08
4.56923e-10
2.32242e-08
4.41112e-10
2.29026e-08
4.27227e-10
2.25906e-08
4.14903e-10
2.22866e-08
4.04476e-10
2.19897e-08
3.95229e-10
2.16985e-08
3.88136e-10
2.14124e-08
3.81681e-10
2.11292e-08
3.78047e-10
2.08493e-08
3.74267e-10
2.05693e-08
3.74387e-10
2.0291e-08
3.73723e-10
2.00087e-08
3.77432e-10
1.97262e-08
3.82834e-10
1.94362e-08
3.85576e-10
1.9135e-08
4.16604e-10
1.88623e-08
3.51423e-10
1.84012e-08
7.30963e-10
-2.81353e-09
1.86582e-08
1.58752e-07
1.35273e-07
1.36524e-07
8.94321e-08
1.17487e-07
4.73e-08
1.03305e-07
2.83872e-08
9.3307e-08
1.83928e-08
8.60023e-08
1.32369e-08
8.029e-08
1.03378e-08
7.56335e-08
8.39134e-09
7.17501e-08
6.96715e-09
6.84519e-08
5.89983e-09
6.56053e-08
5.08224e-09
6.31153e-08
4.43907e-09
6.09133e-08
3.92116e-09
5.89479e-08
3.49651e-09
5.71796e-08
3.14329e-09
5.55776e-08
2.84594e-09
5.41173e-08
2.593e-09
5.27786e-08
2.37589e-09
5.15454e-08
2.18804e-09
5.04042e-08
2.02438e-09
4.93437e-08
1.88092e-09
4.83544e-08
1.7545e-09
4.74281e-08
1.64258e-09
4.6558e-08
1.54311e-09
4.5738e-08
1.4544e-09
4.49628e-08
1.37507e-09
4.4228e-08
1.30397e-09
4.35293e-08
1.24016e-09
4.28632e-08
1.18282e-09
4.22264e-08
1.13131e-09
4.16159e-08
1.08504e-09
4.10293e-08
1.04362e-09
4.04638e-08
1.00654e-09
3.99173e-08
9.73713e-10
3.93878e-08
9.44482e-10
3.88729e-08
9.19351e-10
3.83711e-08
8.96989e-10
3.788e-08
8.79258e-10
3.73987e-08
8.62945e-10
3.69237e-08
8.53072e-10
3.6456e-08
8.4193e-10
3.5989e-08
8.41434e-10
3.55283e-08
8.34464e-10
3.50596e-08
8.46043e-10
3.45989e-08
8.43588e-10
3.41174e-08
8.67055e-10
3.36427e-08
8.91292e-10
3.31638e-08
8.30355e-10
3.26227e-08
1.27204e-09
-2.0169e-09
3.18261e-08
1.75611e-07
1.31178e-07
1.65621e-07
9.94217e-08
1.52729e-07
6.01918e-08
1.40116e-07
4.10009e-08
1.29431e-07
2.90779e-08
1.20787e-07
2.18809e-08
1.13669e-07
1.74552e-08
1.07683e-07
1.43776e-08
1.02577e-07
1.20731e-08
9.81684e-08
1.03084e-08
9.4317e-08
8.93366e-09
9.09168e-08
7.83921e-09
8.78878e-08
6.95014e-09
8.51683e-08
6.21607e-09
8.27096e-08
5.60195e-09
8.04731e-08
5.08244e-09
7.84274e-08
4.63869e-09
7.65469e-08
4.25642e-09
7.48103e-08
3.92463e-09
7.31999e-08
3.63475e-09
7.17008e-08
3.38001e-09
7.03003e-08
3.15502e-09
6.89875e-08
2.9554e-09
6.7753e-08
2.77762e-09
6.65886e-08
2.61876e-09
6.54873e-08
2.4764e-09
6.44427e-08
2.34856e-09
6.34493e-08
2.23356e-09
6.25021e-08
2.13e-09
6.15967e-08
2.03672e-09
6.0729e-08
1.95271e-09
5.98954e-08
1.87722e-09
5.90925e-08
1.80943e-09
5.83172e-08
1.74906e-09
5.75666e-08
1.6951e-09
5.68377e-08
1.64819e-09
5.61284e-08
1.6063e-09
5.54354e-08
1.57227e-09
5.47575e-08
1.54086e-09
5.409e-08
1.52054e-09
5.34343e-08
1.49768e-09
5.27816e-08
1.49415e-09
5.21392e-08
1.47683e-09
5.14887e-08
1.49651e-09
5.08509e-08
1.48138e-09
5.01881e-08
1.5299e-09
4.95402e-08
1.53923e-09
4.88686e-08
1.50187e-09
4.82115e-08
1.92918e-09
-8.50228e-10
4.70448e-08
1.8451e-07
1.23454e-07
1.82339e-07
1.01593e-07
1.76116e-07
6.64145e-08
1.67755e-07
4.93625e-08
1.5913e-07
3.77022e-08
1.5122e-07
2.97916e-08
1.44142e-07
2.45332e-08
1.37836e-07
2.06833e-08
1.32229e-07
1.76796e-08
1.27237e-07
1.53005e-08
1.22774e-07
1.33974e-08
1.18761e-07
1.18515e-08
1.15135e-07
1.0576e-08
1.11842e-07
9.50954e-09
1.08836e-07
8.60808e-09
1.06079e-07
7.83885e-09
1.03541e-07
7.17696e-09
1.01194e-07
6.60315e-09
9.90167e-08
6.1024e-09
9.69886e-08
5.6628e-09
9.50937e-08
5.27487e-09
9.33178e-08
4.93091e-09
9.16485e-08
4.62471e-09
9.0075e-08
4.35113e-09
8.85878e-08
4.10594e-09
8.71786e-08
3.88561e-09
8.584e-08
3.6872e-09
8.45653e-08
3.50823e-09
8.33487e-08
3.34664e-09
8.21847e-08
3.20066e-09
8.10686e-08
3.06882e-09
7.99959e-08
2.94993e-09
7.89625e-08
2.84281e-09
7.79647e-08
2.74693e-09
7.69988e-08
2.66093e-09
7.60615e-08
2.58551e-09
7.51499e-08
2.51792e-09
7.42602e-08
2.46196e-09
7.33907e-08
2.41036e-09
7.25363e-08
2.37501e-09
7.16976e-08
2.33634e-09
7.08656e-08
2.32616e-09
7.00469e-08
2.2955e-09
6.92231e-08
2.32033e-09
6.8413e-08
2.29148e-09
6.75819e-08
2.36101e-09
6.67626e-08
2.35851e-09
6.59225e-08
2.342e-09
6.51006e-08
2.75102e-09
4.69767e-10
6.37807e-08
1.90342e-07
1.15329e-07
1.91858e-07
1.00077e-07
1.90259e-07
6.80133e-08
1.8615e-07
5.34711e-08
1.80707e-07
4.31455e-08
1.7495e-07
3.55486e-08
1.69247e-07
3.02355e-08
1.63757e-07
2.61738e-08
1.58575e-07
2.28613e-08
1.53744e-07
2.01317e-08
1.49266e-07
1.78758e-08
1.45123e-07
1.59941e-08
1.41292e-07
1.44073e-08
1.37745e-07
1.30564e-08
1.34456e-07
1.18969e-08
1.314e-07
1.08947e-08
1.28554e-07
1.00229e-08
1.25898e-07
9.2598e-09
1.23412e-07
8.58837e-09
1.2108e-07
7.99466e-09
1.18887e-07
7.46735e-09
1.16821e-07
6.99717e-09
1.14869e-07
6.57646e-09
1.13022e-07
6.19882e-09
1.11269e-07
5.85893e-09
1.09602e-07
5.55231e-09
1.08014e-07
5.27517e-09
1.06498e-07
5.02431e-09
1.05047e-07
4.79703e-09
1.03657e-07
4.59102e-09
1.02322e-07
4.40434e-09
1.01036e-07
4.23537e-09
9.97963e-08
4.08262e-09
9.8598e-08
3.94526e-09
9.74373e-08
3.82161e-09
9.63104e-08
3.71238e-09
9.52141e-08
3.61418e-09
9.41445e-08
3.53165e-09
9.30991e-08
3.45569e-09
9.2073e-08
3.40117e-09
9.10658e-08
3.3435e-09
9.00693e-08
3.32269e-09
8.90876e-08
3.27713e-09
8.81058e-08
3.30214e-09
8.71355e-08
3.26176e-09
8.61538e-08
3.34276e-09
8.51734e-08
3.33892e-09
8.41864e-08
3.32899e-09
8.3198e-08
3.7394e-09
1.91424e-09
8.17535e-08
1.95504e-07
1.07639e-07
1.98246e-07
9.73353e-08
1.98982e-07
6.72767e-08
1.97785e-07
5.46684e-08
1.95147e-07
4.57839e-08
1.91802e-07
3.88932e-08
1.88064e-07
3.39733e-08
1.84106e-07
3.01316e-08
1.80079e-07
2.68886e-08
1.76092e-07
2.41186e-08
1.72213e-07
2.17548e-08
1.6848e-07
1.9727e-08
1.64913e-07
1.79743e-08
1.6152e-07
1.64497e-08
1.583e-07
1.51165e-08
1.5525e-07
1.39452e-08
1.52361e-07
1.29116e-08
1.49625e-07
1.19957e-08
1.47033e-07
1.11808e-08
1.44574e-07
1.04532e-08
1.4224e-07
9.80133e-09
1.40022e-07
9.21561e-09
1.3791e-07
8.68785e-09
1.35898e-07
8.21116e-09
1.33977e-07
7.77967e-09
1.32141e-07
7.38838e-09
1.30383e-07
7.03301e-09
1.28698e-07
6.70987e-09
1.27079e-07
6.41588e-09
1.25522e-07
6.1483e-09
1.24021e-07
5.90488e-09
1.22573e-07
5.68368e-09
1.21173e-07
5.48295e-09
1.19816e-07
5.30163e-09
1.185e-07
5.13781e-09
1.1722e-07
4.99218e-09
1.15973e-07
4.8609e-09
1.14756e-07
4.74918e-09
1.13565e-07
4.64665e-09
1.12396e-07
4.57025e-09
1.11247e-07
4.492e-09
1.10113e-07
4.45731e-09
1.08993e-07
4.3969e-09
1.07878e-07
4.41686e-09
1.06771e-07
4.36909e-09
1.05663e-07
4.45099e-09
1.04545e-07
4.45698e-09
1.03431e-07
4.44293e-09
1.02305e-07
4.86564e-09
3.46629e-09
1.00752e-07
2.00819e-07
1.00405e-07
2.0377e-07
9.4384e-08
2.05342e-07
6.5705e-08
2.0564e-07
5.437e-08
2.04806e-07
4.66181e-08
2.03322e-07
4.03774e-08
2.01368e-07
3.59267e-08
1.99031e-07
3.24691e-08
1.96416e-07
2.95031e-08
1.93628e-07
2.69074e-08
1.90745e-07
2.46377e-08
1.87828e-07
2.26441e-08
1.8492e-07
2.08816e-08
1.82054e-07
1.9316e-08
1.79251e-07
1.79202e-08
1.76524e-07
1.66722e-08
1.73882e-07
1.55533e-08
1.7133e-07
1.45475e-08
1.6887e-07
1.36411e-08
1.66501e-07
1.28223e-08
1.64221e-07
1.20811e-08
1.62028e-07
1.14087e-08
1.59918e-07
1.07977e-08
1.57888e-07
1.02415e-08
1.55933e-07
9.73447e-09
1.54049e-07
9.27168e-09
1.52234e-07
8.84888e-09
1.50481e-07
8.46231e-09
1.48788e-07
8.10879e-09
1.47151e-07
7.78548e-09
1.45566e-07
7.49003e-09
1.44029e-07
7.22035e-09
1.42538e-07
6.9746e-09
1.41088e-07
6.75164e-09
1.39676e-07
6.54942e-09
1.38299e-07
6.36867e-09
1.36955e-07
6.20529e-09
1.35639e-07
6.06486e-09
1.3435e-07
5.93632e-09
1.33082e-07
5.83778e-09
1.31835e-07
5.73964e-09
1.30602e-07
5.68968e-09
1.29383e-07
5.61622e-09
1.28172e-07
5.62744e-09
1.26964e-07
5.57707e-09
1.25763e-07
5.65218e-09
1.24544e-07
5.67569e-09
1.23331e-07
5.65603e-09
1.22106e-07
6.09091e-09
5.08577e-09
1.20487e-07
2.06422e-07
9.35151e-08
2.0933e-07
9.14764e-08
2.11053e-07
6.39819e-08
2.11931e-07
5.3492e-08
2.11991e-07
4.65585e-08
2.11601e-07
4.07668e-08
2.10866e-07
3.66617e-08
2.09789e-07
3.35467e-08
2.08407e-07
3.08844e-08
2.06781e-07
2.8534e-08
2.04965e-07
2.64539e-08
2.03007e-07
2.46012e-08
2.00951e-07
2.29377e-08
1.98832e-07
2.14356e-08
1.96677e-07
2.00745e-08
1.94511e-07
1.88384e-08
1.92351e-07
1.77135e-08
1.9021e-07
1.6688e-08
1.881e-07
1.57518e-08
1.86026e-07
1.48957e-08
1.83995e-07
1.41121e-08
1.8201e-07
1.33938e-08
1.80073e-07
1.27349e-08
1.78185e-07
1.21299e-08
1.76345e-07
1.15739e-08
1.74554e-07
1.10627e-08
1.72811e-07
1.05925e-08
1.71113e-07
1.01599e-08
1.6946e-07
9.76197e-09
1.67849e-07
9.39608e-09
1.66279e-07
9.06002e-09
1.64748e-07
8.75182e-09
1.63253e-07
8.46971e-09
1.61792e-07
8.21262e-09
1.60363e-07
7.97856e-09
1.58963e-07
7.76835e-09
1.5759e-07
7.57785e-09
1.56242e-07
7.41288e-09
1.54916e-07
7.26223e-09
1.5361e-07
7.14436e-09
1.5232e-07
7.02967e-09
1.51044e-07
6.9657e-09
1.49777e-07
6.88286e-09
1.4852e-07
6.88437e-09
1.47261e-07
6.83639e-09
1.46012e-07
6.90149e-09
1.44741e-07
6.94667e-09
1.43469e-07
6.92723e-09
1.42191e-07
7.36973e-09
6.71914e-09
1.40557e-07
2.12268e-07
8.6909e-08
2.15139e-07
8.86063e-08
2.16808e-07
6.23127e-08
2.17845e-07
5.24544e-08
2.1825e-07
4.61536e-08
2.18363e-07
4.06541e-08
2.18282e-07
3.67428e-08
2.17975e-07
3.38531e-08
2.17437e-07
3.14221e-08
2.16687e-07
2.92842e-08
2.15749e-07
2.73926e-08
2.14646e-07
2.57036e-08
2.13406e-07
2.41782e-08
2.12052e-07
2.27893e-08
2.10608e-07
2.15185e-08
2.09094e-07
2.03518e-08
2.0753e-07
1.92783e-08
2.05929e-07
1.82886e-08
2.04306e-07
1.7375e-08
2.02671e-07
1.65306e-08
2.01033e-07
1.57497e-08
1.994e-07
1.5027e-08
1.97777e-07
1.43578e-08
1.96169e-07
1.37381e-08
1.94579e-07
1.3164e-08
1.9301e-07
1.26321e-08
1.91463e-07
1.21395e-08
1.89939e-07
1.16834e-08
1.8844e-07
1.12613e-08
1.86965e-07
1.0871e-08
1.85514e-07
1.05107e-08
1.84087e-07
1.01787e-08
1.82684e-07
9.87338e-09
1.81302e-07
9.59402e-09
1.79942e-07
9.33875e-09
1.78602e-07
9.10861e-09
1.7728e-07
8.8996e-09
1.75975e-07
8.71769e-09
1.74685e-07
8.55194e-09
1.73409e-07
8.42059e-09
1.72144e-07
8.29528e-09
1.70888e-07
8.22136e-09
1.69636e-07
8.13459e-09
1.68392e-07
8.12841e-09
1.67141e-07
8.08808e-09
1.65898e-07
8.1443e-09
1.64631e-07
8.21321e-09
1.63355e-07
8.2038e-09
1.62075e-07
8.64924e-09
8.30737e-09
1.60487e-07
2.18314e-07
8.05755e-08
2.21188e-07
8.57328e-08
2.2278e-07
6.07202e-08
2.23846e-07
5.13886e-08
2.24359e-07
4.56402e-08
2.2465e-07
4.03638e-08
2.24845e-07
3.65476e-08
2.24917e-07
3.37813e-08
2.24845e-07
3.14942e-08
2.24629e-07
2.94996e-08
2.24275e-07
2.77469e-08
2.23788e-07
2.61907e-08
2.23177e-07
2.47893e-08
2.22453e-07
2.35135e-08
2.21628e-07
2.23435e-08
2.20714e-07
2.1265e-08
2.19725e-07
2.02673e-08
2.18672e-07
1.93418e-08
2.17566e-07
1.84813e-08
2.16416e-07
1.76802e-08
2.15232e-07
1.69336e-08
2.14022e-07
1.62374e-08
2.12792e-07
1.55879e-08
2.11548e-07
1.49821e-08
2.10295e-07
1.4417e-08
2.09037e-07
1.38901e-08
2.07778e-07
1.3399e-08
2.06519e-07
1.29415e-08
2.05265e-07
1.25159e-08
2.04015e-07
1.21204e-08
2.02773e-07
1.17535e-08
2.01537e-07
1.1414e-08
2.0031e-07
1.11007e-08
1.99091e-07
1.08129e-08
1.97881e-07
1.05492e-08
1.96678e-07
1.03108e-08
1.95484e-07
1.00941e-08
1.94297e-07
9.90499e-09
1.93115e-07
9.73322e-09
1.9194e-07
9.59637e-09
1.90767e-07
9.46819e-09
1.89597e-07
9.39051e-09
1.88426e-07
9.30655e-09
1.87257e-07
9.29714e-09
1.86075e-07
9.26991e-09
1.84898e-07
9.3217e-09
1.83695e-07
9.41545e-09
1.82472e-07
9.42716e-09
1.81249e-07
9.87249e-09
9.79072e-09
1.79765e-07
2.24548e-07
7.45209e-08
2.27448e-07
8.2833e-08
2.28976e-07
5.91918e-08
2.30049e-07
5.03157e-08
2.30603e-07
4.50865e-08
2.30941e-07
4.00252e-08
2.31226e-07
3.62629e-08
2.31446e-07
3.35615e-08
2.31583e-07
3.13576e-08
2.31634e-07
2.94477e-08
2.31601e-07
2.77804e-08
2.3148e-07
2.63112e-08
2.31272e-07
2.49975e-08
2.30978e-07
2.38078e-08
2.30601e-07
2.27204e-08
2.30146e-07
2.17202e-08
2.29618e-07
2.07951e-08
2.29024e-07
1.99361e-08
2.28369e-07
1.91359e-08
2.27661e-07
1.83886e-08
2.26905e-07
1.76896e-08
2.26107e-07
1.7035e-08
2.25273e-07
1.64218e-08
2.24408e-07
1.5847e-08
2.23517e-07
1.53084e-08
2.22603e-07
1.48039e-08
2.2167e-07
1.43316e-08
2.20722e-07
1.38898e-08
2.19761e-07
1.34771e-08
2.18789e-07
1.30921e-08
2.17809e-07
1.27338e-08
2.16822e-07
1.24012e-08
2.15829e-07
1.20934e-08
2.14832e-07
1.18102e-08
2.13831e-07
1.15502e-08
2.12827e-07
1.13151e-08
2.11819e-07
1.11013e-08
2.10809e-07
1.0915e-08
2.09796e-07
1.07466e-08
2.0878e-07
1.06127e-08
2.07758e-07
1.04899e-08
2.06733e-07
1.04154e-08
2.05698e-07
1.03413e-08
2.04661e-07
1.03343e-08
2.03606e-07
1.03253e-08
2.02549e-07
1.0379e-08
2.01466e-07
1.04981e-08
2.00352e-07
1.05412e-08
1.99239e-07
1.09853e-08
1.11151e-08
1.97915e-07
2.30974e-07
6.8753e-08
2.33908e-07
7.98984e-08
2.3538e-07
5.77205e-08
2.36461e-07
4.92346e-08
2.37047e-07
4.45e-08
2.37401e-07
3.96717e-08
2.37707e-07
3.59565e-08
2.37973e-07
3.32957e-08
2.38185e-07
3.11455e-08
2.38346e-07
2.92867e-08
2.38458e-07
2.76683e-08
2.38519e-07
2.62499e-08
2.38527e-07
2.49895e-08
2.3848e-07
2.38549e-08
2.38377e-07
2.28237e-08
2.38218e-07
2.18794e-08
2.38003e-07
2.10096e-08
2.37735e-07
2.02041e-08
2.37416e-07
1.94552e-08
2.37048e-07
1.87566e-08
2.36634e-07
1.81032e-08
2.36178e-07
1.7491e-08
2.35683e-07
1.69168e-08
2.35152e-07
1.63779e-08
2.34589e-07
1.58721e-08
2.33995e-07
1.53974e-08
2.33375e-07
1.49521e-08
2.3273e-07
1.45348e-08
2.32062e-07
1.41443e-08
2.31375e-07
1.37794e-08
2.3067e-07
1.34393e-08
2.29947e-07
1.31233e-08
2.2921e-07
1.28306e-08
2.28459e-07
1.25613e-08
2.27695e-07
1.23142e-08
2.26919e-07
1.20911e-08
2.26132e-07
1.18888e-08
2.25333e-07
1.17133e-08
2.24524e-07
1.15561e-08
2.23704e-07
1.14324e-08
2.22872e-07
1.13219e-08
2.22031e-07
1.12569e-08
2.21173e-07
1.11985e-08
2.20308e-07
1.11996e-08
2.19421e-07
1.12126e-08
2.18525e-07
1.12748e-08
2.17604e-07
1.14191e-08
2.16644e-07
1.15012e-08
2.15685e-07
1.19443e-08
1.22397e-08
2.1456e-07
2.376e-07
6.32777e-08
2.40574e-07
7.69246e-08
2.41988e-07
5.63063e-08
2.43076e-07
4.81463e-08
2.43699e-07
4.3877e-08
2.44066e-07
3.93054e-08
2.44377e-07
3.56448e-08
2.44655e-07
3.30176e-08
2.4489e-07
3.09108e-08
2.45088e-07
2.90893e-08
2.45254e-07
2.75019e-08
2.4539e-07
2.61135e-08
2.45496e-07
2.48842e-08
2.45568e-07
2.37822e-08
2.45607e-07
2.27849e-08
2.45611e-07
2.18758e-08
2.45578e-07
2.1042e-08
2.45509e-07
2.02732e-08
2.45404e-07
1.95608e-08
2.45262e-07
1.88984e-08
2.45085e-07
1.82804e-08
2.44873e-07
1.77027e-08
2.44628e-07
1.71616e-08
2.44352e-07
1.66545e-08
2.44045e-07
1.61789e-08
2.43709e-07
1.57329e-08
2.43346e-07
1.53148e-08
2.42958e-07
1.49233e-08
2.42545e-07
1.45571e-08
2.4211e-07
1.42151e-08
2.41652e-07
1.38967e-08
2.41174e-07
1.36012e-08
2.40677e-07
1.33279e-08
2.40161e-07
1.3077e-08
2.39628e-07
1.28475e-08
2.39078e-07
1.26413e-08
2.38511e-07
1.24554e-08
2.37929e-07
1.22957e-08
2.3733e-07
1.21545e-08
2.36717e-07
1.20456e-08
2.36087e-07
1.19519e-08
2.35443e-07
1.19006e-08
2.3478e-07
1.18618e-08
2.34105e-07
1.18751e-08
2.33405e-07
1.1912e-08
2.32692e-07
1.19882e-08
2.31955e-07
1.21562e-08
2.31174e-07
1.22814e-08
2.30394e-07
1.27244e-08
1.31432e-08
2.29491e-07
2.44435e-07
5.80987e-08
2.47447e-07
7.39123e-08
2.48806e-07
5.49476e-08
2.49897e-07
4.70555e-08
2.50558e-07
4.32157e-08
2.50941e-07
3.89228e-08
2.51257e-07
3.53287e-08
2.51541e-07
3.27342e-08
2.51783e-07
3.06687e-08
2.51991e-07
2.88811e-08
2.52174e-07
2.73186e-08
2.52336e-07
2.59514e-08
2.52478e-07
2.47424e-08
2.526e-07
2.36605e-08
2.52701e-07
2.26837e-08
2.52781e-07
2.17958e-08
2.52839e-07
2.0984e-08
2.52874e-07
2.02378e-08
2.52886e-07
1.95488e-08
2.52875e-07
1.89101e-08
2.52839e-07
1.83161e-08
2.52779e-07
1.77624e-08
2.52695e-07
1.72454e-08
2.52588e-07
1.67619e-08
2.52457e-07
1.63097e-08
2.52303e-07
1.58866e-08
2.52127e-07
1.5491e-08
2.51929e-07
1.51214e-08
2.5171e-07
1.47765e-08
2.51469e-07
1.44554e-08
2.51209e-07
1.41572e-08
2.50929e-07
1.38813e-08
2.5063e-07
1.36272e-08
2.50312e-07
1.3395e-08
2.49975e-07
1.31837e-08
2.49621e-07
1.29953e-08
2.4925e-07
1.2827e-08
2.48861e-07
1.26844e-08
2.48455e-07
1.25608e-08
2.48032e-07
1.24682e-08
2.47591e-07
1.23929e-08
2.47135e-07
1.2357e-08
2.46658e-07
1.23389e-08
2.46166e-07
1.23666e-08
2.45651e-07
1.2427e-08
2.45119e-07
1.25203e-08
2.44566e-07
1.27096e-08
2.43969e-07
1.28781e-08
2.43372e-07
1.33212e-08
1.38263e-08
2.42689e-07
2.51488e-07
5.32179e-08
2.54528e-07
7.08718e-08
2.55842e-07
5.36334e-08
2.5693e-07
4.59674e-08
2.57629e-07
4.25169e-08
2.58031e-07
3.85211e-08
2.58353e-07
3.5007e-08
2.58641e-07
3.24456e-08
2.58888e-07
3.04215e-08
2.59101e-07
2.86687e-08
2.59289e-07
2.71303e-08
2.59459e-07
2.57816e-08
2.59612e-07
2.45888e-08
2.59751e-07
2.35219e-08
2.59875e-07
2.25594e-08
2.59986e-07
2.16854e-08
2.60082e-07
2.08874e-08
2.60165e-07
2.01554e-08
2.60233e-07
1.94809e-08
2.60286e-07
1.88571e-08
2.60323e-07
1.82783e-08
2.60346e-07
1.774e-08
2.60353e-07
1.72386e-08
2.60343e-07
1.67711e-08
2.60318e-07
1.63348e-08
2.60277e-07
1.59278e-08
2.6022e-07
1.55484e-08
2.60146e-07
1.51949e-08
2.60056e-07
1.48663e-08
2.5995e-07
1.45614e-08
2.59828e-07
1.42794e-08
2.5969e-07
1.40197e-08
2.59535e-07
1.37816e-08
2.59365e-07
1.35655e-08
2.59178e-07
1.33702e-08
2.58976e-07
1.31977e-08
2.58758e-07
1.30454e-08
2.58523e-07
1.29185e-08
2.58273e-07
1.28113e-08
2.58007e-07
1.27342e-08
2.57723e-07
1.26764e-08
2.57425e-07
1.26554e-08
2.57107e-07
1.26566e-08
2.56775e-07
1.26988e-08
2.56422e-07
1.27803e-08
2.5605e-07
1.28918e-08
2.55661e-07
1.30989e-08
2.55232e-07
1.33072e-08
2.54803e-07
1.375e-08
1.43097e-08
2.5432e-07
2.58765e-07
4.86356e-08
2.61823e-07
6.78136e-08
2.63104e-07
5.23526e-08
2.64185e-07
4.4887e-08
2.64919e-07
4.17829e-08
2.65341e-07
3.80983e-08
2.6567e-07
3.46788e-08
2.65964e-07
3.21514e-08
2.66216e-07
3.01691e-08
2.66432e-07
2.84527e-08
2.66623e-07
2.69392e-08
2.66796e-07
2.5609e-08
2.66953e-07
2.44316e-08
2.67097e-07
2.33782e-08
2.67229e-07
2.24276e-08
2.67349e-07
2.15646e-08
2.6746e-07
2.07771e-08
2.6756e-07
2.00551e-08
2.67651e-07
1.93904e-08
2.67731e-07
1.87763e-08
2.67802e-07
1.82074e-08
2.67863e-07
1.7679e-08
2.67914e-07
1.71876e-08
2.67955e-07
1.67302e-08
2.67986e-07
1.63043e-08
2.68006e-07
1.59078e-08
2.68015e-07
1.55391e-08
2.68013e-07
1.51967e-08
2.68e-07
1.48793e-08
2.67976e-07
1.45859e-08
2.67939e-07
1.43156e-08
2.67891e-07
1.40679e-08
2.67831e-07
1.38419e-08
2.67758e-07
1.36381e-08
2.67673e-07
1.34554e-08
2.67575e-07
1.32955e-08
2.67464e-07
1.31564e-08
2.67341e-07
1.30424e-08
2.67203e-07
1.2949e-08
2.67052e-07
1.28849e-08
2.66886e-07
1.28422e-08
2.66708e-07
1.28341e-08
2.66512e-07
1.2852e-08
2.66304e-07
1.29073e-08
2.66078e-07
1.30062e-08
2.65835e-07
1.3135e-08
2.65578e-07
1.33559e-08
2.65287e-07
1.35982e-08
2.64997e-07
1.40394e-08
1.46279e-08
2.64679e-07
2.66277e-07
4.43506e-08
2.69342e-07
6.47483e-08
2.706e-07
5.10947e-08
2.71669e-07
4.38188e-08
2.72435e-07
4.10167e-08
2.7288e-07
3.76527e-08
2.73216e-07
3.43432e-08
2.73516e-07
3.18517e-08
2.73774e-07
2.9911e-08
2.73994e-07
2.82326e-08
2.74188e-07
2.67455e-08
2.74362e-07
2.54343e-08
2.74521e-07
2.42727e-08
2.74667e-07
2.32326e-08
2.74801e-07
2.22936e-08
2.74925e-07
2.14407e-08
2.75039e-07
2.06624e-08
2.75146e-07
1.99488e-08
2.75244e-07
1.92921e-08
2.75335e-07
1.86855e-08
2.75418e-07
1.81238e-08
2.75495e-07
1.76024e-08
2.75565e-07
1.71179e-08
2.75628e-07
1.66673e-08
2.75684e-07
1.62483e-08
2.75733e-07
1.58588e-08
2.75775e-07
1.54972e-08
2.75809e-07
1.51621e-08
2.75836e-07
1.48522e-08
2.75855e-07
1.45667e-08
2.75867e-07
1.43044e-08
2.75869e-07
1.40651e-08
2.75863e-07
1.38478e-08
2.75849e-07
1.3653e-08
2.75824e-07
1.34796e-08
2.75791e-07
1.33292e-08
2.75747e-07
1.32e-08
2.75694e-07
1.3096e-08
2.75629e-07
1.30135e-08
2.75554e-07
1.29597e-08
2.75467e-07
1.29291e-08
2.7537e-07
1.29313e-08
2.75259e-07
1.29627e-08
2.75138e-07
1.30292e-08
2.75002e-07
1.31416e-08
2.74852e-07
1.32856e-08
2.74691e-07
1.35165e-08
2.74503e-07
1.3786e-08
2.74319e-07
1.42238e-08
1.4821e-08
2.74126e-07
2.74032e-07
4.03599e-08
2.77093e-07
6.16868e-08
2.78339e-07
4.98494e-08
2.79391e-07
4.27662e-08
2.80186e-07
4.02222e-08
2.80656e-07
3.71829e-08
2.80999e-07
3.39994e-08
2.81305e-07
3.15465e-08
2.81569e-07
2.9647e-08
2.81793e-07
2.8008e-08
2.8199e-07
2.65489e-08
2.82167e-07
2.52576e-08
2.82327e-07
2.4112e-08
2.82474e-07
2.30857e-08
2.82609e-07
2.21584e-08
2.82734e-07
2.13158e-08
2.8285e-07
2.05464e-08
2.82958e-07
1.98409e-08
2.83059e-07
1.91915e-08
2.83152e-07
1.85917e-08
2.8324e-07
1.80361e-08
2.83322e-07
1.75205e-08
2.83398e-07
1.70415e-08
2.83469e-07
1.65962e-08
2.83535e-07
1.61823e-08
2.83596e-07
1.57979e-08
2.83652e-07
1.54414e-08
2.83703e-07
1.51115e-08
2.83748e-07
1.48069e-08
2.83788e-07
1.45269e-08
2.83822e-07
1.42704e-08
2.8385e-07
1.40371e-08
2.83872e-07
1.38261e-08
2.83887e-07
1.36377e-08
2.83895e-07
1.34711e-08
2.83897e-07
1.33278e-08
2.83891e-07
1.32062e-08
2.83877e-07
1.31097e-08
2.83855e-07
1.30356e-08
2.83825e-07
1.29897e-08
2.83785e-07
1.29686e-08
2.83738e-07
1.29791e-08
2.83679e-07
1.30208e-08
2.83612e-07
1.30965e-08
2.83535e-07
1.32191e-08
2.83444e-07
1.3376e-08
2.83347e-07
1.36138e-08
2.8323e-07
1.39033e-08
2.83118e-07
1.43358e-08
1.49271e-08
2.83012e-07
2.82039e-07
3.66586e-08
2.85085e-07
5.86402e-08
2.86328e-07
4.86071e-08
2.87362e-07
4.17322e-08
2.8818e-07
3.94038e-08
2.88675e-07
3.66875e-08
2.89029e-07
3.36463e-08
2.89339e-07
3.12359e-08
2.89609e-07
2.9377e-08
2.89839e-07
2.77786e-08
2.90038e-07
2.6349e-08
2.90218e-07
2.50786e-08
2.9038e-07
2.39496e-08
2.90528e-07
2.29375e-08
2.90664e-07
2.20223e-08
2.9079e-07
2.11901e-08
2.90907e-07
2.04299e-08
2.91015e-07
1.97325e-08
2.91116e-07
1.90904e-08
2.91211e-07
1.84971e-08
2.91299e-07
1.79475e-08
2.91382e-07
1.74373e-08
2.91461e-07
1.69633e-08
2.91534e-07
1.65227e-08
2.91603e-07
1.61132e-08
2.91668e-07
1.5733e-08
2.91729e-07
1.53807e-08
2.91785e-07
1.50549e-08
2.91838e-07
1.47546e-08
2.91886e-07
1.44789e-08
2.91929e-07
1.42269e-08
2.91968e-07
1.39982e-08
2.92002e-07
1.37921e-08
2.92031e-07
1.36088e-08
2.92055e-07
1.34476e-08
2.92073e-07
1.33097e-08
2.92085e-07
1.3194e-08
2.92091e-07
1.31034e-08
2.92091e-07
1.3036e-08
2.92084e-07
1.29963e-08
2.9207e-07
1.29827e-08
2.92049e-07
1.29999e-08
2.9202e-07
1.30498e-08
2.91983e-07
1.31331e-08
2.91939e-07
1.32633e-08
2.91884e-07
1.34308e-08
2.91825e-07
1.36731e-08
2.91752e-07
1.39766e-08
2.91685e-07
1.44021e-08
1.49775e-08
2.91635e-07
2.90307e-07
3.32403e-08
2.93328e-07
5.56195e-08
2.94576e-07
4.7359e-08
2.95589e-07
4.07189e-08
2.96427e-07
3.85664e-08
2.96948e-07
3.61656e-08
2.97312e-07
3.32825e-08
2.97628e-07
3.092e-08
2.97904e-07
2.9101e-08
2.98139e-07
2.75441e-08
2.98342e-07
2.61457e-08
2.98524e-07
2.4897e-08
2.98688e-07
2.37853e-08
2.98838e-07
2.27877e-08
2.98975e-07
2.1885e-08
2.99102e-07
2.10636e-08
2.99219e-07
2.03128e-08
2.99327e-07
1.96238e-08
2.99429e-07
1.8989e-08
2.99524e-07
1.84024e-08
2.99612e-07
1.78587e-08
2.99696e-07
1.7354e-08
2.99774e-07
1.68849e-08
2.99848e-07
1.64487e-08
2.99918e-07
1.60434e-08
2.99983e-07
1.56673e-08
3.00045e-07
1.53188e-08
3.00103e-07
1.49968e-08
3.00158e-07
1.47003e-08
3.00208e-07
1.44284e-08
3.00255e-07
1.41803e-08
3.00297e-07
1.39557e-08
3.00336e-07
1.37537e-08
3.0037e-07
1.35747e-08
3.00399e-07
1.34181e-08
3.00424e-07
1.32848e-08
3.00444e-07
1.31742e-08
3.00459e-07
1.30885e-08
3.00468e-07
1.30268e-08
3.00472e-07
1.29925e-08
3.0047e-07
1.29851e-08
3.00461e-07
1.30081e-08
3.00447e-07
1.30645e-08
3.00425e-07
1.31545e-08
3.00398e-07
1.32906e-08
3.00362e-07
1.34668e-08
3.00323e-07
1.37121e-08
3.00275e-07
1.40243e-08
3.00236e-07
1.44416e-08
1.49949e-08
3.00219e-07
2.98846e-07
3.00969e-08
3.01829e-07
5.26361e-08
3.03091e-07
4.60973e-08
3.04083e-07
3.97275e-08
3.04934e-07
3.77153e-08
3.05483e-07
3.56164e-08
3.05859e-07
3.29067e-08
3.0618e-07
3.05986e-08
3.06462e-07
2.88189e-08
3.06702e-07
2.73041e-08
3.06909e-07
2.59384e-08
3.07094e-07
2.47127e-08
3.0726e-07
2.36188e-08
3.07412e-07
2.26362e-08
3.0755e-07
2.17465e-08
3.07678e-07
2.09362e-08
3.07795e-07
2.0195e-08
3.07904e-07
1.95146e-08
3.08006e-07
1.88874e-08
3.08101e-07
1.83076e-08
3.0819e-07
1.777e-08
3.08273e-07
1.72708e-08
3.08351e-07
1.68066e-08
3.08425e-07
1.6375e-08
3.08494e-07
1.59739e-08
3.0856e-07
1.56016e-08
3.08622e-07
1.5257e-08
3.0868e-07
1.49387e-08
3.08735e-07
1.46458e-08
3.08785e-07
1.43776e-08
3.08832e-07
1.41332e-08
3.08876e-07
1.39124e-08
3.08915e-07
1.37144e-08
3.0895e-07
1.35394e-08
3.08982e-07
1.33869e-08
3.09008e-07
1.3258e-08
3.09031e-07
1.3152e-08
3.09048e-07
1.30709e-08
3.09061e-07
1.30143e-08
3.09068e-07
1.29848e-08
3.09071e-07
1.2983e-08
3.09067e-07
1.30112e-08
3.09059e-07
1.30733e-08
3.09044e-07
1.31693e-08
3.09024e-07
1.33102e-08
3.08997e-07
1.34937e-08
3.08968e-07
1.37412e-08
3.08934e-07
1.40581e-08
3.0891e-07
1.4466e-08
1.4994e-08
3.08911e-07
3.07666e-07
2.72186e-08
3.10601e-07
4.9701e-08
3.11883e-07
4.48151e-08
3.12852e-07
3.87585e-08
3.13711e-07
3.68558e-08
3.14288e-07
3.50403e-08
3.14677e-07
3.25172e-08
3.15004e-07
3.02716e-08
3.15292e-07
2.85308e-08
3.15538e-07
2.70584e-08
3.15749e-07
2.5727e-08
3.15936e-07
2.45255e-08
3.16105e-07
2.34499e-08
3.16259e-07
2.24829e-08
3.16399e-07
2.16065e-08
3.16527e-07
2.08076e-08
3.16646e-07
2.00765e-08
3.16755e-07
1.94048e-08
3.16857e-07
1.87855e-08
3.16952e-07
1.82126e-08
3.17041e-07
1.76813e-08
3.17124e-07
1.71876e-08
3.17202e-07
1.67285e-08
3.17276e-07
1.63014e-08
3.17345e-07
1.59046e-08
3.17411e-07
1.55364e-08
3.17472e-07
1.51955e-08
3.1753e-07
1.48809e-08
3.17584e-07
1.45917e-08
3.17634e-07
1.43272e-08
3.17681e-07
1.40865e-08
3.17724e-07
1.38694e-08
3.17763e-07
1.36753e-08
3.17798e-07
1.35043e-08
3.17829e-07
1.33559e-08
3.17856e-07
1.32311e-08
3.17878e-07
1.31296e-08
3.17896e-07
1.3053e-08
3.17909e-07
1.30012e-08
3.17918e-07
1.29764e-08
3.17921e-07
1.29798e-08
3.17919e-07
1.30131e-08
3.17912e-07
1.30802e-08
3.179e-07
1.31819e-08
3.17883e-07
1.33271e-08
3.1786e-07
1.35165e-08
3.17835e-07
1.37656e-08
3.17809e-07
1.40842e-08
3.17793e-07
1.44822e-08
1.49835e-08
3.17804e-07
3.16776e-07
2.45941e-08
3.19651e-07
4.68256e-08
3.20959e-07
4.35068e-08
3.21906e-07
3.78115e-08
3.22769e-07
3.59928e-08
3.23372e-07
3.44379e-08
3.23776e-07
3.21127e-08
3.24109e-07
2.99387e-08
3.24403e-07
2.82368e-08
3.24655e-07
2.68066e-08
3.24871e-07
2.55111e-08
3.25061e-07
2.43349e-08
3.25233e-07
2.32785e-08
3.25388e-07
2.23274e-08
3.2553e-07
2.14648e-08
3.2566e-07
2.06778e-08
3.25779e-07
1.9957e-08
3.2589e-07
1.92943e-08
3.25992e-07
1.86831e-08
3.26087e-07
1.81173e-08
3.26176e-07
1.75923e-08
3.2626e-07
1.71044e-08
3.26338e-07
1.66504e-08
3.26411e-07
1.62281e-08
3.2648e-07
1.58356e-08
3.26545e-07
1.54715e-08
3.26606e-07
1.51345e-08
3.26663e-07
1.48237e-08
3.26717e-07
1.45382e-08
3.26767e-07
1.42773e-08
3.26813e-07
1.40404e-08
3.26855e-07
1.38271e-08
3.26893e-07
1.36369e-08
3.26928e-07
1.34698e-08
3.26958e-07
1.33256e-08
3.26984e-07
1.3205e-08
3.27006e-07
1.31079e-08
3.27024e-07
1.30356e-08
3.27036e-07
1.29886e-08
3.27044e-07
1.29685e-08
3.27047e-07
1.29768e-08
3.27045e-07
1.30151e-08
3.27038e-07
1.30871e-08
3.27026e-07
1.31941e-08
3.2701e-07
1.33433e-08
3.26989e-07
1.35377e-08
3.26966e-07
1.37879e-08
3.26945e-07
1.41059e-08
3.26933e-07
1.44934e-08
1.49682e-08
3.26949e-07
3.26186e-07
2.22108e-08
3.28991e-07
4.40205e-08
3.3033e-07
4.21682e-08
3.31256e-07
3.68854e-08
3.32117e-07
3.51313e-08
3.32744e-07
3.38108e-08
3.33165e-07
3.16917e-08
3.33505e-07
2.95993e-08
3.33805e-07
2.79371e-08
3.34063e-07
2.65487e-08
3.34283e-07
2.52903e-08
3.34478e-07
2.41409e-08
3.34652e-07
2.31043e-08
3.34809e-07
2.21697e-08
3.34953e-07
2.13213e-08
3.35084e-07
2.05466e-08
3.35205e-07
1.98363e-08
3.35316e-07
1.9183e-08
3.35419e-07
1.858e-08
3.35515e-07
1.80216e-08
3.35604e-07
1.75031e-08
3.35688e-07
1.7021e-08
3.35766e-07
1.65724e-08
3.35839e-07
1.61549e-08
3.35908e-07
1.57668e-08
3.35972e-07
1.54068e-08
3.36033e-07
1.50737e-08
3.3609e-07
1.47668e-08
3.36143e-07
1.4485e-08
3.36193e-07
1.4228e-08
3.36238e-07
1.39949e-08
3.3628e-07
1.37854e-08
3.36318e-07
1.35991e-08