/*--------------------------------*- C++ -*----------------------------------*\
  =========                 |
  \\      /  F ield         | OpenFOAM: The Open Source CFD Toolbox
   \\    /   O peration     | Website:  https://openfoam.org
    \\  /    A nd           | Version:  7
     \\/     M anipulation  |
\*---------------------------------------------------------------------------*/
FoamFile
{
    version     2.0;
    format      ascii;
    class       volVectorField;
    location    "0.28";
    object      U;
}
// * * * * * * * * * * * * * * * * * * * * * * * * * * * * * * * * * * * * * //

dimensions      [0 1 -1 0 0 0 0];

internalField   nonuniform List<vector> 
70000
(
(0.553412 0.0169783 0)
(0.251407 0.00340062 0)
(0.165903 0.00031919 0)
(0.132408 4.92142e-05 0)
(0.11729 4.4259e-05 0)
(0.10732 5.24227e-05 0)
(0.0993366 4.46231e-05 0)
(0.0928804 3.55505e-05 0)
(0.0876233 2.95198e-05 0)
(0.0832402 2.53914e-05 0)
(0.0795027 2.22411e-05 0)
(0.076263 1.97206e-05 0)
(0.0734196 1.76706e-05 0)
(0.070898 1.59822e-05 0)
(0.068642 1.45751e-05 0)
(0.0666078 1.33894e-05 0)
(0.0647609 1.2381e-05 0)
(0.0630739 1.15163e-05 0)
(0.0615244 1.07697e-05 0)
(0.0600941 1.01214e-05 0)
(0.0587678 9.55593e-06 0)
(0.0575328 9.061e-06 0)
(0.0563782 8.62686e-06 0)
(0.0552948 8.24572e-06 0)
(0.0542746 7.9112e-06 0)
(0.0533108 7.61836e-06 0)
(0.0523972 7.36266e-06 0)
(0.0515285 7.14164e-06 0)
(0.0507 6.95079e-06 0)
(0.0499074 6.79137e-06 0)
(0.0491468 6.65604e-06 0)
(0.0484146 6.55283e-06 0)
(0.0477079 6.467e-06 0)
(0.0470232 6.41921e-06 0)
(0.0463582 6.37977e-06 0)
(0.0457096 6.38951e-06 0)
(0.0450753 6.40022e-06 0)
(0.0444528 6.46424e-06 0)
(0.0438379 6.55436e-06 0)
(0.0432334 6.63145e-06 0)
(0.0426238 6.92044e-06 0)
(0.0420336 6.82236e-06 0)
(0.041406 7.73197e-06 0)
(0.0408392 6.75989e-06 0)
(0.040143 9.72345e-06 0)
(0.0396484 5.40203e-06 0)
(0.0387526 1.54524e-05 0)
(0.0384874 -1.07381e-06 0)
(0.0371755 3.69876e-05 0)
(0.0348046 -0.00138363 0)
(0.884862 0.0434938 0)
(0.650133 0.0201502 0)
(0.493938 0.00660624 0)
(0.403488 0.00275643 0)
(0.354749 0.00154967 0)
(0.323407 0.00113345 0)
(0.299479 0.0009111 0)
(0.280241 0.000746624 0)
(0.264496 0.000624091 0)
(0.251341 0.000533812 0)
(0.240123 0.000465361 0)
(0.2304 0.000411577 0)
(0.221867 0.00036821 0)
(0.214298 0.00033261 0)
(0.207526 0.000302975 0)
(0.20142 0.000278011 0)
(0.195876 0.000256764 0)
(0.190812 0.00023852 0)
(0.186162 0.000222735 0)
(0.18187 0.000208988 0)
(0.177892 0.000196951 0)
(0.174189 0.000186362 0)
(0.170729 0.000177015 0)
(0.167484 0.000168741 0)
(0.164431 0.000161404 0)
(0.161549 0.000154894 0)
(0.158819 0.000149117 0)
(0.156226 0.000144002 0)
(0.153756 0.000139483 0)
(0.151397 0.000135518 0)
(0.149136 0.000132055 0)
(0.146964 0.000129084 0)
(0.144871 0.000126547 0)
(0.142848 0.000124488 0)
(0.140888 0.000122798 0)
(0.138981 0.000121632 0)
(0.137122 0.000120757 0)
(0.135303 0.000120531 0)
(0.133513 0.000120486 0)
(0.13176 0.000121297 0)
(0.130001 0.000122223 0)
(0.128301 0.000124119 0)
(0.126512 0.000126586 0)
(0.124892 0.0001291 0)
(0.122942 0.000135314 0)
(0.121527 0.000135283 0)
(0.119094 0.000155652 0)
(0.118264 0.000121318 0)
(0.114831 0.000348815 0)
(0.112183 -0.00219187 0)
(0.991209 0.0499566 0)
(0.890912 0.0305653 0)
(0.762453 0.0146142 0)
(0.65646 0.00797479 0)
(0.585317 0.00488375 0)
(0.535907 0.00347885 0)
(0.497973 0.00274289 0)
(0.467299 0.00224892 0)
(0.441938 0.00188565 0)
(0.42058 0.00161461 0)
(0.402273 0.0014079 0)
(0.38635 0.00124545 0)
(0.372333 0.00111452 0)
(0.359872 0.00100702 0)
(0.348701 0.000917484 0)
(0.338612 0.000842 0)
(0.32944 0.000777707 0)
(0.321054 0.000722455 0)
(0.313346 0.000674605 0)
(0.306228 0.000632892 0)
(0.299626 0.000596325 0)
(0.293478 0.000564119 0)
(0.287732 0.000535646 0)
(0.282343 0.000510396 0)
(0.277272 0.000487959 0)
(0.272485 0.000467994 0)
(0.267954 0.000450225 0)
(0.263651 0.000434423 0)
(0.259555 0.000420399 0)
(0.255643 0.000408007 0)
(0.2519 0.000397107 0)
(0.248306 0.000387634 0)
(0.244847 0.000379455 0)
(0.241509 0.000372621 0)
(0.238279 0.000366912 0)
(0.235142 0.000362628 0)
(0.23209 0.000359246 0)
(0.229111 0.000357638 0)
(0.226186 0.000356502 0)
(0.223327 0.00035798 0)
(0.220473 0.000359051 0)
(0.217715 0.000364395 0)
(0.214839 0.000367828 0)
(0.212216 0.000378023 0)
(0.209132 0.000385369 0)
(0.206816 0.000398991 0)
(0.203085 0.000424814 0)
(0.201578 0.000382868 0)
(0.196438 0.000710627 0)
(0.194681 -0.00186444 0)
(1.01554 0.0489551 0)
(1.00649 0.0357281 0)
(0.935857 0.0208251 0)
(0.851947 0.0135052 0)
(0.782131 0.00920515 0)
(0.726938 0.00679086 0)
(0.681801 0.00539505 0)
(0.64399 0.00445433 0)
(0.611922 0.00376041 0)
(0.584401 0.00323552 0)
(0.560487 0.00283054 0)
(0.53947 0.0025101 0)
(0.520821 0.00225071 0)
(0.504136 0.00203696 0)
(0.489097 0.00185834 0)
(0.475455 0.00170734 0)
(0.463009 0.00157841 0)
(0.451594 0.00146735 0)
(0.441074 0.00137098 0)
(0.431338 0.00128681 0)
(0.422291 0.00121289 0)
(0.413853 0.00114767 0)
(0.405956 0.0010899 0)
(0.398541 0.00103858 0)
(0.391558 0.000992869 0)
(0.384961 0.000952105 0)
(0.378713 0.000915728 0)
(0.372778 0.000883276 0)
(0.367127 0.000854371 0)
(0.361731 0.000828707 0)
(0.356567 0.000806017 0)
(0.351612 0.000786135 0)
(0.346846 0.000768832 0)
(0.342248 0.000754134 0)
(0.337804 0.000741693 0)
(0.333494 0.000731952 0)
(0.329304 0.000724044 0)
(0.325221 0.000719474 0)
(0.321222 0.000715825 0)
(0.317317 0.000717296 0)
(0.313434 0.000717464 0)
(0.309679 0.00072695 0)
(0.305803 0.000730065 0)
(0.302227 0.000751202 0)
(0.298143 0.000756596 0)
(0.294929 0.000792256 0)
(0.290153 0.00081546 0)
(0.287819 0.000790266 0)
(0.281492 0.00112736 0)
(0.279724 -0.00106903 0)
(1.01435 0.0460997 0)
(1.04798 0.0373461 0)
(1.02454 0.0241946 0)
(0.974629 0.0175671 0)
(0.923394 0.0131194 0)
(0.876621 0.0102164 0)
(0.834411 0.00835678 0)
(0.796614 0.00703462 0)
(0.763006 0.00602467 0)
(0.733142 0.00523837 0)
(0.706505 0.00461816 0)
(0.682624 0.00411959 0)
(0.661096 0.00371123 0)
(0.641589 0.00337161 0)
(0.623824 0.00308565 0)
(0.607569 0.00284235 0)
(0.592631 0.00263347 0)
(0.578845 0.00245272 0)
(0.566074 0.00229522 0)
(0.554201 0.00215716 0)
(0.543125 0.00203551 0)
(0.532759 0.00192785 0)
(0.523029 0.00183223 0)
(0.51387 0.00174704 0)
(0.505224 0.00167097 0)
(0.497042 0.00160294 0)
(0.489278 0.00154205 0)
(0.481895 0.00148757 0)
(0.474855 0.00143887 0)
(0.468128 0.00139546 0)
(0.461685 0.00135691 0)
(0.4555 0.00132291 0)
(0.449548 0.00129313 0)
(0.443807 0.00126754 0)
(0.438258 0.00124566 0)
(0.432879 0.00122806 0)
(0.427653 0.00121351 0)
(0.422564 0.00120418 0)
(0.417587 0.00119644 0)
(0.412728 0.00119677 0)
(0.407915 0.00119492 0)
(0.403249 0.00120822 0)
(0.398482 0.00121023 0)
(0.394025 0.00124308 0)
(0.389086 0.00124598 0)
(0.384997 0.00130553 0)
(0.379431 0.00132549 0)
(0.376135 0.0013261 0)
(0.369198 0.00164991 0)
(0.366371 -0.000150872 0)
(1.00941 0.0430495 0)
(1.05563 0.0371022 0)
(1.05865 0.0253375 0)
(1.03626 0.0197744 0)
(1.00705 0.0158106 0)
(0.976 0.0129476 0)
(0.944427 0.010977 0)
(0.913512 0.00949444 0)
(0.884111 0.00830418 0)
(0.856604 0.007338 0)
(0.831068 0.00655041 0)
(0.807436 0.00590098 0)
(0.785585 0.00535834 0)
(0.765371 0.00489972 0)
(0.746644 0.00450843 0)
(0.729263 0.00417182 0)
(0.713094 0.00388012 0)
(0.698018 0.00362567 0)
(0.683928 0.00340243 0)
(0.670726 0.00320555 0)
(0.658328 0.00303114 0)
(0.646656 0.00287606 0)
(0.635644 0.00273771 0)
(0.625229 0.00261396 0)
(0.615359 0.00250305 0)
(0.605985 0.0024035 0)
(0.597063 0.0023141 0)
(0.588553 0.00223381 0)
(0.58042 0.00216179 0)
(0.572631 0.00209732 0)
(0.565157 0.00203984 0)
(0.55797 0.00198888 0)
(0.551046 0.001944 0)
(0.54436 0.0019051 0)
(0.537892 0.00187157 0)
(0.531618 0.00184411 0)
(0.525522 0.00182112 0)
(0.519584 0.00180543 0)
(0.51378 0.00179225 0)
(0.508111 0.00179019 0)
(0.502512 0.0017855 0)
(0.497065 0.00180163 0)
(0.491553 0.00180258 0)
(0.486329 0.00184585 0)
(0.480703 0.00184837 0)
(0.475811 0.0019281 0)
(0.469687 0.00195207 0)
(0.465404 0.00197156 0)
(0.458256 0.00229803 0)
(0.454067 0.000849649 0)
(1.00635 0.0401817 0)
(1.05241 0.0361562 0)
(1.06604 0.0252623 0)
(1.0595 0.0205815 0)
(1.04683 0.0172404 0)
(1.03075 0.0146692 0)
(1.01181 0.0128396 0)
(0.991075 0.0114147 0)
(0.969619 0.0102183 0)
(0.948165 0.00920442 0)
(0.927157 0.00834703 0)
(0.906853 0.00761793 0)
(0.8874 0.00699271 0)
(0.868862 0.00645263 0)
(0.851257 0.00598323 0)
(0.83457 0.005573 0)
(0.818767 0.00521268 0)
(0.803802 0.00489468 0)
(0.789627 0.00461283 0)
(0.776191 0.00436205 0)
(0.763442 0.00413815 0)
(0.751332 0.00393767 0)
(0.739814 0.0037577 0)
(0.728844 0.00359583 0)
(0.718381 0.00345 0)
(0.708387 0.00331849 0)
(0.698826 0.00319986 0)
(0.689665 0.00309287 0)
(0.680874 0.00299651 0)
(0.672424 0.0029099 0)
(0.664289 0.00283234 0)
(0.656443 0.00276326 0)
(0.648864 0.00270213 0)
(0.641529 0.0026488 0)
(0.634419 0.00260257 0)
(0.627511 0.00256421 0)
(0.62079 0.00253188 0)
(0.614233 0.0025089 0)
(0.607823 0.00248961 0)
(0.601552 0.0024843 0)
(0.595368 0.00247658 0)
(0.58933 0.00249443 0)
(0.583265 0.0024952 0)
(0.577443 0.0025466 0)
(0.571323 0.00255254 0)
(0.565776 0.00264611 0)
(0.559301 0.00268417 0)
(0.554164 0.0027133 0)
(0.546983 0.00305595 0)
(0.541673 0.00193716 0)
(1.00506 0.0375048 0)
(1.04762 0.0350586 0)
(1.06394 0.0247161 0)
(1.06415 0.0206146 0)
(1.06064 0.0177813 0)
(1.0547 0.0155134 0)
(1.04591 0.0138997 0)
(1.03467 0.0126404 0)
(1.02172 0.0115552 0)
(1.00764 0.0106048 0)
(0.992908 0.00977548 0)
(0.977862 0.0090496 0)
(0.96277 0.00841043 0)
(0.947823 0.00784495 0)
(0.933155 0.00734292 0)
(0.918855 0.00689586 0)
(0.904979 0.00649661 0)
(0.891559 0.00613906 0)
(0.878611 0.00581801 0)
(0.866137 0.00552905 0)
(0.854131 0.00526841 0)
(0.84258 0.00503288 0)
(0.83147 0.00481973 0)
(0.82078 0.00462659 0)
(0.81049 0.00445145 0)
(0.800581 0.00429255 0)
(0.791031 0.00414843 0)
(0.781818 0.00401779 0)
(0.772923 0.00389957 0)
(0.764326 0.00379284 0)
(0.756007 0.00369685 0)
(0.747947 0.00361099 0)
(0.740129 0.0035347 0)
(0.732534 0.00346781 0)
(0.725147 0.00340959 0)
(0.717948 0.00336089 0)
(0.710925 0.00331972 0)
(0.704058 0.00328977 0)
(0.697331 0.00326484 0)
(0.690734 0.00325631 0)
(0.68423 0.00324628 0)
(0.677853 0.00326529 0)
(0.671478 0.00326759 0)
(0.665292 0.00332497 0)
(0.658902 0.00333866 0)
(0.652926 0.00344044 0)
(0.646298 0.00350042 0)
(0.640564 0.00353628 0)
(0.633449 0.00389765 0)
(0.627415 0.00309053 0)
(1.00451 0.0349692 0)
(1.04359 0.0339794 0)
(1.05992 0.0240666 0)
(1.06219 0.020327 0)
(1.06246 0.0178487 0)
(1.06177 0.0157959 0)
(1.05916 0.0143566 0)
(1.05457 0.0132635 0)
(1.04832 0.0123209 0)
(1.0407 0.0114829 0)
(1.03202 0.0107384 0)
(1.02251 0.0100739 0)
(1.0124 0.00947666 0)
(1.0019 0.00893726 0)
(0.991158 0.00844885 0)
(0.980306 0.00800583 0)
(0.969445 0.00760336 0)
(0.958653 0.00723724 0)
(0.947988 0.00690377 0)
(0.937495 0.00659971 0)
(0.927204 0.0063222 0)
(0.917136 0.00606874 0)
(0.907305 0.00583715 0)
(0.897717 0.00562548 0)
(0.888375 0.00543202 0)
(0.879277 0.00525527 0)
(0.870421 0.00509393 0)
(0.861799 0.00494684 0)
(0.853404 0.00481304 0)
(0.845226 0.00469167 0)
(0.837258 0.00458206 0)
(0.829488 0.00448363 0)
(0.821906 0.0043959 0)
(0.8145 0.00431872 0)
(0.807261 0.00425142 0)
(0.800174 0.00419491 0)
(0.793231 0.00414722 0)
(0.786415 0.00411224 0)
(0.779717 0.0040836 0)
(0.773126 0.00407321 0)
(0.766615 0.00406276 0)
(0.760204 0.00408346 0)
(0.753805 0.00408974 0)
(0.747542 0.00415211 0)
(0.741143 0.00417754 0)
(0.735021 0.00428452 0)
(0.728456 0.00437068 0)
(0.722447 0.0044165 0)
(0.715527 0.00479389 0)
(0.709165 0.0042734 0)
(1.00412 0.0325389 0)
(1.04026 0.0329268 0)
(1.05615 0.0234333 0)
(1.05884 0.0199444 0)
(1.06019 0.0177221 0)
(1.06154 0.0158015 0)
(1.06188 0.0144641 0)
(1.06095 0.0134868 0)
(1.05885 0.0126605 0)
(1.05569 0.0119286 0)
(1.05156 0.0112774 0)
(1.04657 0.0106933 0)
(1.04084 0.0101633 0)
(1.03451 0.00967904 0)
(1.02768 0.00923461 0)
(1.02047 0.00882583 0)
(1.01296 0.00844926 0)
(1.00525 0.008102 0)
(0.9974 0.00778154 0)
(0.989467 0.00748571 0)
(0.981501 0.00721257 0)
(0.973541 0.00696042 0)
(0.965619 0.00672774 0)
(0.957758 0.00651314 0)
(0.949979 0.00631541 0)
(0.942294 0.00613341 0)
(0.934716 0.00596618 0)
(0.927249 0.00581282 0)
(0.919899 0.00567261 0)
(0.912667 0.00554485 0)
(0.905555 0.00542905 0)
(0.898559 0.00532478 0)
(0.891678 0.00523165 0)
(0.884908 0.00514966 0)
(0.878244 0.00507822 0)
(0.871679 0.00501839 0)
(0.86521 0.00496824 0)
(0.858825 0.00493186 0)
(0.85252 0.00490295 0)
(0.846284 0.00489349 0)
(0.840103 0.00488569 0)
(0.833986 0.00490992 0)
(0.827873 0.00492333 0)
(0.821845 0.00499122 0)
(0.815719 0.00503196 0)
(0.809759 0.00514387 0)
(0.803499 0.00525797 0)
(0.797551 0.00532019 0)
(0.791005 0.00571036 0)
(0.78469 0.00544423 0)
(1.00374 0.0302049 0)
(1.03726 0.0318785 0)
(1.05282 0.0228312 0)
(1.0556 0.0195442 0)
(1.0571 0.0175341 0)
(1.059 0.0157027 0)
(1.06041 0.0144135 0)
(1.06107 0.0135001 0)
(1.06104 0.0127477 0)
(1.06035 0.0120901 0)
(1.059 0.0115115 0)
(1.05701 0.0109966 0)
(1.05441 0.0105313 0)
(1.05125 0.0101059 0)
(1.04758 0.0097142 0)
(1.04347 0.00935183 0)
(1.03897 0.0090156 0)
(1.03414 0.00870297 0)
(1.02903 0.00841193 0)
(1.0237 0.00814082 0)
(1.01819 0.00788825 0)
(1.01253 0.00765306 0)
(1.00677 0.00743422 0)
(1.00093 0.00723084 0)
(0.995032 0.00704209 0)
(0.989105 0.00686726 0)
(0.983163 0.00670571 0)
(0.977222 0.00655682 0)
(0.971293 0.00642015 0)
(0.965385 0.00629524 0)
(0.959505 0.00618178 0)
(0.953658 0.00607954 0)
(0.947849 0.00598829 0)
(0.942079 0.0059082 0)
(0.936349 0.00583882 0)
(0.930658 0.00578135 0)
(0.925006 0.00573403 0)
(0.919388 0.00570102 0)
(0.913803 0.00567634 0)
(0.908245 0.00567171 0)
(0.902704 0.00567051 0)
(0.897187 0.0057012 0)
(0.891656 0.00572537 0)
(0.886159 0.00580064 0)
(0.88058 0.00585987 0)
(0.875079 0.00597858 0)
(0.869368 0.00612096 0)
(0.863798 0.00620693 0)
(0.857828 0.00660774 0)
(0.851899 0.0065598 0)
(1.00337 0.0279696 0)
(1.03443 0.0308221 0)
(1.04971 0.0222541 0)
(1.05263 0.0191413 0)
(1.0541 0.0173277 0)
(1.05606 0.0155749 0)
(1.05774 0.0143081 0)
(1.05892 0.0134259 0)
(1.0597 0.0127145 0)
(1.06012 0.0121004 0)
(1.06017 0.011567 0)
(1.05982 0.0110989 0)
(1.05907 0.0106809 0)
(1.05792 0.0103022 0)
(1.05638 0.00995563 0)
(1.05447 0.00963617 0)
(1.05221 0.00934013 0)
(1.04964 0.00906474 0)
(1.04677 0.00880783 0)
(1.04365 0.00856775 0)
(1.04029 0.00834322 0)
(1.03673 0.00813323 0)
(1.03299 0.00793697 0)
(1.0291 0.00775376 0)
(1.02507 0.00758304 0)
(1.02094 0.00742433 0)
(1.01671 0.00727723 0)
(1.0124 0.00714136 0)
(1.00803 0.00701647 0)
(1.00361 0.00690231 0)
(0.999137 0.00679874 0)
(0.994633 0.00670571 0)
(0.990101 0.00662317 0)
(0.985545 0.00655142 0)
(0.980972 0.00649016 0)
(0.976382 0.00644076 0)
(0.97178 0.0064016 0)
(0.967163 0.00637693 0)
(0.962533 0.00636119 0)
(0.957889 0.00636559 0)
(0.953225 0.00637512 0)
(0.948546 0.00641564 0)
(0.943828 0.00645419 0)
(0.939101 0.00653944 0)
(0.934292 0.00661979 0)
(0.929495 0.00674838 0)
(0.92454 0.00691855 0)
(0.91961 0.007035 0)
(0.914402 0.00744539 0)
(0.909134 0.00757851 0)
(1.00301 0.0258366 0)
(1.0317 0.0297537 0)
(1.04671 0.0216982 0)
(1.04984 0.0187355 0)
(1.05128 0.0171096 0)
(1.0532 0.0154401 0)
(1.05492 0.0141891 0)
(1.05622 0.0133235 0)
(1.05723 0.0126354 0)
(1.05804 0.0120453 0)
(1.05865 0.0115366 0)
(1.05904 0.0110953 0)
(1.0592 0.0107061 0)
(1.05911 0.0103577 0)
(1.05878 0.0100423 0)
(1.0582 0.00975439 0)
(1.05737 0.0094897 0)
(1.05629 0.00924505 0)
(1.05499 0.00901793 0)
(1.05346 0.00880645 0)
(1.05172 0.00860913 0)
(1.04979 0.00842487 0)
(1.04767 0.00825282 0)
(1.04539 0.00809232 0)
(1.04296 0.00794288 0)
(1.04039 0.00780408 0)
(1.03769 0.00767563 0)
(1.03488 0.00755725 0)
(1.03196 0.00744881 0)
(1.02895 0.00735016 0)
(1.02586 0.00726131 0)
(1.02269 0.0071823 0)
(1.01944 0.00711319 0)
(1.01614 0.00705444 0)
(1.01277 0.00700582 0)
(1.00935 0.00696886 0)
(1.00588 0.00694209 0)
(1.00236 0.00692973 0)
(0.998793 0.00692676 0)
(0.995176 0.0069437 0)
(0.991508 0.0069674 0)
(0.987795 0.00702067 0)
(0.984021 0.0070765 0)
(0.980205 0.00717425 0)
(0.976303 0.00727737 0)
(0.972364 0.00741913 0)
(0.968299 0.00761585 0)
(0.964185 0.00776771 0)
(0.959866 0.00818727 0)
(0.955447 0.00846539 0)
(1.00268 0.0238085 0)
(1.0291 0.0286714 0)
(1.0438 0.0211632 0)
(1.04715 0.0183267 0)
(1.04859 0.0168782 0)
(1.05048 0.015301 0)
(1.05219 0.0140675 0)
(1.05349 0.0132137 0)
(1.05454 0.0125424 0)
(1.05545 0.0119675 0)
(1.05623 0.0114726 0)
(1.05689 0.0110457 0)
(1.05741 0.0106723 0)
(1.05779 0.0103412 0)
(1.05804 0.0100443 0)
(1.05813 0.009776 0)
(1.05807 0.00953182 0)
(1.05785 0.00930828 0)
(1.05747 0.00910262 0)
(1.05694 0.00891266 0)
(1.05625 0.00873674 0)
(1.05541 0.00857357 0)
(1.05443 0.00842217 0)
(1.05331 0.0082818 0)
(1.05205 0.00815189 0)
(1.05066 0.00803201 0)
(1.04916 0.00792186 0)
(1.04754 0.00782119 0)
(1.04581 0.00772988 0)
(1.04398 0.00764783 0)
(1.04206 0.00757508 0)
(1.04004 0.00751174 0)
(1.03794 0.0074579 0)
(1.03576 0.00741413 0)
(1.0335 0.00738024 0)
(1.03116 0.00735784 0)
(1.02876 0.00734562 0)
(1.02628 0.0073477 0)
(1.02374 0.00735964 0)
(1.02113 0.00739106 0)
(1.01845 0.00743089 0)
(1.01571 0.00749863 0)
(1.01289 0.00757326 0)
(1.01001 0.00768516 0)
(1.00705 0.0078113 0)
(1.00401 0.00796881 0)
(1.00087 0.00818999 0)
(0.997646 0.00837958 0)
(0.994259 0.00880801 0)
(0.99077 0.00919753 0)
(1.00238 0.0218869 0)
(1.02664 0.0275746 0)
(1.04098 0.0206486 0)
(1.04454 0.0179165 0)
(1.046 0.0166322 0)
(1.04786 0.0151561 0)
(1.04957 0.0139444 0)
(1.05086 0.0131017 0)
(1.05191 0.0124454 0)
(1.05282 0.0118832 0)
(1.05363 0.0113978 0)
(1.05435 0.0109796 0)
(1.05499 0.0106153 0)
(1.05554 0.0102937 0)
(1.056 0.0100072 0)
(1.05638 0.00974995 0)
(1.05667 0.00951772 0)
(1.05687 0.0093069 0)
(1.05697 0.00911464 0)
(1.05697 0.00893865 0)
(1.05687 0.00877712 0)
(1.05667 0.00862865 0)
(1.05637 0.00849215 0)
(1.05597 0.00836678 0)
(1.05547 0.00825192 0)
(1.05488 0.00814707 0)
(1.05419 0.00805189 0)
(1.05341 0.00796611 0)
(1.05253 0.00788959 0)
(1.05157 0.00782224 0)
(1.05053 0.00776407 0)
(1.0494 0.00771523 0)
(1.04819 0.0076758 0)
(1.0469 0.00764638 0)
(1.04553 0.00762683 0)
(1.04409 0.00761876 0)
(1.04257 0.00762102 0)
(1.04098 0.00763754 0)
(1.03932 0.0076645 0)
(1.03759 0.00771051 0)
(1.03578 0.00776659 0)
(1.03391 0.00784894 0)
(1.03196 0.00794214 0)
(1.02993 0.00806856 0)
(1.02783 0.00821639 0)
(1.02565 0.00839084 0)
(1.02337 0.00863353 0)
(1.021 0.00886032 0)
(1.01849 0.00929681 0)
(1.01591 0.00976752 0)
(1.0021 0.0200729 0)
(1.0243 0.0264652 0)
(1.03825 0.0201522 0)
(1.04202 0.0175068 0)
(1.0435 0.0163716 0)
(1.04533 0.0150041 0)
(1.04704 0.0138194 0)
(1.04833 0.0129877 0)
(1.04936 0.0123465 0)
(1.05026 0.0117968 0)
(1.05107 0.0113201 0)
(1.05179 0.0109087 0)
(1.05244 0.0105507 0)
(1.05303 0.0102352 0)
(1.05357 0.00995483 0)
(1.05404 0.00970403 0)
(1.05446 0.0094786 0)
(1.05483 0.00927504 0)
(1.05513 0.00909053 0)
(1.05538 0.00892277 0)
(1.05556 0.00876992 0)
(1.05568 0.00863054 0)
(1.05574 0.00850351 0)
(1.05574 0.00838795 0)
(1.05567 0.0082832 0)
(1.05553 0.00818874 0)
(1.05533 0.00810419 0)
(1.05507 0.00802927 0)
(1.05474 0.00796382 0)
(1.05434 0.00790774 0)
(1.05388 0.00786101 0)
(1.05335 0.00782381 0)
(1.05276 0.00779617 0)
(1.0521 0.00777874 0)
(1.05137 0.00777136 0)
(1.05059 0.00777564 0)
(1.04973 0.00779057 0)
(1.04882 0.00781983 0)
(1.04783 0.00786024 0)
(1.04679 0.00791934 0)
(1.04567 0.00799018 0)
(1.04449 0.00808581 0)
(1.04325 0.00819583 0)
(1.04193 0.0083358 0)
(1.04054 0.00850263 0)
(1.03907 0.00869372 0)
(1.03752 0.00895426 0)
(1.03589 0.00921513 0)
(1.03415 0.00965811 0)
(1.03236 0.0101837 0)
(1.00185 0.0183666 0)
(1.0221 0.0253471 0)
(1.03562 0.0196704 0)
(1.03958 0.0170993 0)
(1.04108 0.0160971 0)
(1.04288 0.0148441 0)
(1.04459 0.013692 0)
(1.04589 0.0128717 0)
(1.04691 0.0122455 0)
(1.04779 0.011709 0)
(1.04859 0.0112412 0)
(1.0493 0.0108364 0)
(1.04995 0.0104839 0)
(1.05054 0.0101734 0)
(1.05108 0.00989756 0)
(1.05157 0.00965115 0)
(1.05202 0.00943007 0)
(1.05244 0.00923097 0)
(1.05281 0.00905106 0)
(1.05315 0.00888812 0)
(1.05345 0.00874034 0)
(1.05371 0.00860629 0)
(1.05393 0.00848486 0)
(1.05411 0.00837519 0)
(1.05425 0.00827661 0)
(1.05435 0.00818863 0)
(1.05441 0.00811087 0)
(1.05442 0.00804305 0)
(1.0544 0.00798501 0)
(1.05432 0.00793665 0)
(1.0542 0.00789796 0)
(1.05404 0.00786911 0)
(1.05382 0.00785012 0)
(1.05356 0.00784165 0)
(1.05325 0.00784355 0)
(1.05289 0.0078574 0)
(1.05248 0.00788235 0)
(1.05202 0.00792175 0)
(1.05151 0.00797312 0)
(1.05094 0.00804288 0)
(1.05032 0.00812601 0)
(1.04964 0.00823269 0)
(1.04891 0.00835676 0)
(1.04811 0.00850841 0)
(1.04726 0.00869074 0)
(1.04634 0.00889693 0)
(1.04535 0.00917136 0)
(1.04429 0.00946138 0)
(1.04315 0.00990862 0)
(1.042 0.0104672 0)
(1.00162 0.0167678 0)
(1.02004 0.0242247 0)
(1.03309 0.019199 0)
(1.03723 0.0166957 0)
(1.03877 0.0158096 0)
(1.04053 0.0146756 0)
(1.04223 0.0135618 0)
(1.04353 0.0127534 0)
(1.04455 0.0121423 0)
(1.04542 0.0116196 0)
(1.0462 0.0111612 0)
(1.0469 0.0107631 0)
(1.04753 0.0104162 0)
(1.04811 0.0101105 0)
(1.04864 0.00983885 0)
(1.04913 0.00959618 0)
(1.04959 0.00937857 0)
(1.05001 0.00918276 0)
(1.0504 0.00900608 0)
(1.05076 0.00884633 0)
(1.05109 0.00870176 0)
(1.0514 0.00857098 0)
(1.05168 0.00845293 0)
(1.05193 0.00834677 0)
(1.05216 0.00825187 0)
(1.05236 0.00816777 0)
(1.05253 0.00809411 0)
(1.05268 0.00803066 0)
(1.0528 0.00797725 0)
(1.05289 0.00793384 0)
(1.05294 0.00790038 0)
(1.05297 0.00787709 0)
(1.05296 0.00786398 0)
(1.05293 0.00786171 0)
(1.05285 0.00787019 0)
(1.05274 0.0078909 0)
(1.05259 0.0079232 0)
(1.05241 0.0079701 0)
(1.05218 0.00802979 0)
(1.05192 0.00810764 0)
(1.05161 0.00820032 0)
(1.05126 0.00831561 0)
(1.05086 0.00845069 0)
(1.05042 0.00861183 0)
(1.04993 0.00880603 0)
(1.04939 0.00902508 0)
(1.04879 0.00930964 0)
(1.04814 0.00962302 0)
(1.04744 0.0100719 0)
(1.04674 0.0106458 0)
(1.00142 0.0152758 0)
(1.01811 0.023102 0)
(1.03066 0.0187341 0)
(1.03497 0.0162974 0)
(1.03654 0.0155107 0)
(1.03826 0.0144978 0)
(1.03996 0.0134285 0)
(1.04127 0.0126329 0)
(1.04228 0.0120367 0)
(1.04314 0.0115284 0)
(1.0439 0.0110801 0)
(1.04459 0.0106891 0)
(1.04521 0.0103479 0)
(1.04578 0.0100471 0)
(1.0463 0.00977958 0)
(1.04678 0.00954057 0)
(1.04723 0.00932623 0)
(1.04764 0.00913339 0)
(1.04802 0.00895945 0)
(1.04838 0.00880228 0)
(1.04872 0.00866016 0)
(1.04903 0.00853176 0)
(1.04933 0.00841603 0)
(1.0496 0.00831219 0)
(1.04985 0.00821966 0)
(1.05009 0.00813801 0)
(1.0503 0.00806692 0)
(1.0505 0.0080062 0)
(1.05068 0.00795571 0)
(1.05084 0.00791544 0)
(1.05097 0.00788536 0)
(1.05109 0.00786569 0)
(1.05118 0.0078565 0)
(1.05125 0.00785842 0)
(1.05129 0.00787141 0)
(1.05131 0.00789688 0)
(1.0513 0.00793441 0)
(1.05127 0.00798667 0)
(1.0512 0.00805246 0)
(1.05111 0.00813622 0)
(1.05098 0.00823608 0)
(1.05082 0.00835783 0)
(1.05062 0.0085012 0)
(1.05039 0.0086698 0)
(1.05012 0.00887268 0)
(1.04981 0.00910226 0)
(1.04946 0.00939379 0)
(1.04908 0.00972475 0)
(1.04866 0.0101728 0)
(1.04827 0.0107488 0)
(1.00124 0.0138891 0)
(1.01632 0.021983 0)
(1.02834 0.0182718 0)
(1.03279 0.0159057 0)
(1.03441 0.0152018 0)
(1.03609 0.0143102 0)
(1.03778 0.0132918 0)
(1.03909 0.0125103 0)
(1.04009 0.0119287 0)
(1.04094 0.0114354 0)
(1.0417 0.0109977 0)
(1.04238 0.0106141 0)
(1.04299 0.0102788 0)
(1.04354 0.00998304 0)
(1.04405 0.00971991 0)
(1.04452 0.00948464 0)
(1.04496 0.00927359 0)
(1.04536 0.0090837 0)
(1.04573 0.00891242 0)
(1.04609 0.00875767 0)
(1.04641 0.00861777 0)
(1.04672 0.00849142 0)
(1.04701 0.00837763 0)
(1.04728 0.00827564 0)
(1.04754 0.00818492 0)
(1.04778 0.00810507 0)
(1.04801 0.00803582 0)
(1.04822 0.00797702 0)
(1.04841 0.00792856 0)
(1.04859 0.00789045 0)
(1.04876 0.00786271 0)
(1.0489 0.00784557 0)
(1.04904 0.00783911 0)
(1.04915 0.00784397 0)
(1.04924 0.00786019 0)
(1.04932 0.00788907 0)
(1.04937 0.00793042 0)
(1.04941 0.00798657 0)
(1.04942 0.00805691 0)
(1.04941 0.00814505 0)
(1.04937 0.00825032 0)
(1.04931 0.008377 0)
(1.04922 0.00852656 0)
(1.0491 0.00870105 0)
(1.04895 0.00891021 0)
(1.04878 0.00914824 0)
(1.04857 0.00944439 0)
(1.04835 0.00978778 0)
(1.0481 0.0102329 0)
(1.0479 0.0108016 0)
(1.00107 0.0126056 0)
(1.01466 0.0208718 0)
(1.02613 0.0178089 0)
(1.03071 0.0155214 0)
(1.03237 0.0148848 0)
(1.03402 0.0141124 0)
(1.03568 0.0131511 0)
(1.037 0.0123856 0)
(1.038 0.0118183 0)
(1.03884 0.0113403 0)
(1.03959 0.0109139 0)
(1.04026 0.0105381 0)
(1.04086 0.0102089 0)
(1.0414 0.0099184 0)
(1.0419 0.00965977 0)
(1.04236 0.00942838 0)
(1.04278 0.00922072 0)
(1.04317 0.00903384 0)
(1.04354 0.00886527 0)
(1.04388 0.00871295 0)
(1.0442 0.00857525 0)
(1.0445 0.00845091 0)
(1.04478 0.00833895 0)
(1.04505 0.00823867 0)
(1.0453 0.00814957 0)
(1.04553 0.00807128 0)
(1.04575 0.0080036 0)
(1.04596 0.00794638 0)
(1.04616 0.00789957 0)
(1.04634 0.0078632 0)
(1.04651 0.00783732 0)
(1.04667 0.00782217 0)
(1.04681 0.00781787 0)
(1.04693 0.00782504 0)
(1.04705 0.00784379 0)
(1.04714 0.00787534 0)
(1.04722 0.0079197 0)
(1.04728 0.00797891 0)
(1.04732 0.00805285 0)
(1.04734 0.00814448 0)
(1.04735 0.00825401 0)
(1.04733 0.00838468 0)
(1.04729 0.00853902 0)
(1.04723 0.00871837 0)
(1.04714 0.00893218 0)
(1.04703 0.009177 0)
(1.0469 0.00947623 0)
(1.04676 0.00982781 0)
(1.04661 0.0102684 0)
(1.04652 0.0108236 0)
(1.00093 0.0114229 0)
(1.01313 0.0197724 0)
(1.02404 0.0173421 0)
(1.0287 0.0151451 0)
(1.03043 0.0145618 0)
(1.03203 0.0139041 0)
(1.03368 0.0130059 0)
(1.035 0.0122587 0)
(1.036 0.0117054 0)
(1.03683 0.011243 0)
(1.03757 0.0108285 0)
(1.03823 0.010461 0)
(1.03882 0.0101382 0)
(1.03935 0.00985307 0)
(1.03984 0.0095991 0)
(1.04029 0.00937173 0)
(1.0407 0.00916758 0)
(1.04109 0.00898382 0)
(1.04144 0.00881803 0)
(1.04177 0.00866821 0)
(1.04208 0.00853276 0)
(1.04237 0.00841044 0)
(1.04265 0.00830032 0)
(1.0429 0.00820174 0)
(1.04314 0.00811423 0)
(1.04337 0.00803746 0)
(1.04359 0.00797126 0)
(1.04379 0.00791554 0)
(1.04398 0.00787026 0)
(1.04416 0.00783548 0)
(1.04432 0.00781128 0)
(1.04448 0.00779791 0)
(1.04462 0.00779553 0)
(1.04474 0.00780474 0)
(1.04486 0.00782572 0)
(1.04495 0.0078596 0)
(1.04504 0.00790659 0)
(1.04511 0.00796847 0)
(1.04516 0.00804552 0)
(1.04519 0.00814018 0)
(1.04521 0.00825333 0)
(1.04521 0.00838749 0)
(1.04519 0.00854577 0)
(1.04515 0.00872936 0)
(1.04509 0.00894686 0)
(1.04501 0.00919723 0)
(1.04492 0.0094986 0)
(1.04482 0.00985507 0)
(1.04472 0.0102899 0)
(1.04468 0.0108282 0)
(1.0008 0.0103375 0)
(1.01173 0.018689 0)
(1.02205 0.0168689 0)
(1.02679 0.0147772 0)
(1.02858 0.0142347 0)
(1.03014 0.0136853 0)
(1.03176 0.0128556 0)
(1.03308 0.0121297 0)
(1.03409 0.0115902 0)
(1.03491 0.0111433 0)
(1.03564 0.0107415 0)
(1.03629 0.0103826 0)
(1.03687 0.0100665 0)
(1.0374 0.00978696 0)
(1.03788 0.00953783 0)
(1.03832 0.00931463 0)
(1.03872 0.00911412 0)
(1.03909 0.00893358 0)
(1.03944 0.00877066 0)
(1.03976 0.0086234 0)
(1.04006 0.00849026 0)
(1.04034 0.00837002 0)
(1.04061 0.0082618 0)
(1.04086 0.00816495 0)
(1.04109 0.00807904 0)
(1.04131 0.00800382 0)
(1.04152 0.00793911 0)
(1.04171 0.00788488 0)
(1.0419 0.00784111 0)
(1.04207 0.0078079 0)
(1.04223 0.00778534 0)
(1.04238 0.00777371 0)
(1.04251 0.00777318 0)
(1.04263 0.00778434 0)
(1.04274 0.00780745 0)
(1.04284 0.00784356 0)
(1.04292 0.00789302 0)
(1.04298 0.00795742 0)
(1.04303 0.00803736 0)
(1.04307 0.00813488 0)
(1.04309 0.00825131 0)
(1.04309 0.00838874 0)
(1.04308 0.00855052 0)
(1.04305 0.00873799 0)
(1.043 0.00895866 0)
(1.04293 0.00921362 0)
(1.04286 0.00951659 0)
(1.04278 0.00987544 0)
(1.04271 0.0103038 0)
(1.0427 0.0108233 0)
(1.00069 0.00934572 0)
(1.01045 0.0176257 0)
(1.02018 0.0163868 0)
(1.02496 0.0144174 0)
(1.02682 0.0139055 0)
(1.02835 0.0134562 0)
(1.02994 0.0126995 0)
(1.03126 0.0119984 0)
(1.03226 0.0114725 0)
(1.03308 0.0110413 0)
(1.0338 0.0106527 0)
(1.03444 0.010303 0)
(1.03502 0.0099937 0)
(1.03554 0.00972 0)
(1.03601 0.00947587 0)
(1.03644 0.009257 0)
(1.03683 0.00906026 0)
(1.0372 0.00888304 0)
(1.03753 0.00872309 0)
(1.03785 0.00857849 0)
(1.03814 0.00844772 0)
(1.03841 0.00832962 0)
(1.03867 0.00822334 0)
(1.03891 0.00812827 0)
(1.03914 0.00804402 0)
(1.03935 0.00797036 0)
(1.03955 0.00790719 0)
(1.03974 0.00785447 0)
(1.03992 0.00781224 0)
(1.04008 0.00778063 0)
(1.04023 0.00775973 0)
(1.04037 0.00774984 0)
(1.0405 0.00775117 0)
(1.04062 0.00776428 0)
(1.04072 0.00778951 0)
(1.04081 0.00782782 0)
(1.04089 0.00787971 0)
(1.04095 0.00794661 0)
(1.041 0.00802934 0)
(1.04103 0.00812968 0)
(1.04105 0.00824923 0)
(1.04105 0.00838987 0)
(1.04104 0.00855489 0)
(1.04101 0.00874601 0)
(1.04096 0.00896959 0)
(1.0409 0.0092284 0)
(1.04084 0.00953261 0)
(1.04077 0.00989199 0)
(1.04072 0.0103133 0)
(1.04072 0.0108137 0)
(1.0006 0.00844323 0)
(1.00929 0.0165865 0)
(1.01842 0.0158942 0)
(1.02321 0.0140657 0)
(1.02515 0.0135761 0)
(1.02664 0.0132171 0)
(1.0282 0.0125371 0)
(1.02952 0.0118647 0)
(1.03052 0.0113526 0)
(1.03134 0.0109367 0)
(1.03205 0.0105619 0)
(1.03268 0.0102219 0)
(1.03325 0.00991981 0)
(1.03376 0.00965208 0)
(1.03423 0.00941315 0)
(1.03465 0.00919876 0)
(1.03503 0.00900592 0)
(1.03539 0.00883215 0)
(1.03572 0.00867525 0)
(1.03603 0.00853339 0)
(1.03631 0.00840508 0)
(1.03658 0.00828918 0)
(1.03683 0.00818489 0)
(1.03706 0.00809165 0)
(1.03728 0.0080091 0)
(1.03749 0.00793706 0)
(1.03768 0.00787545 0)
(1.03786 0.00782429 0)
(1.03803 0.00778364 0)
(1.03819 0.00775365 0)
(1.03834 0.00773445 0)
(1.03847 0.00772634 0)
(1.03859 0.00772955 0)
(1.0387 0.00774465 0)
(1.0388 0.00777201 0)
(1.03889 0.00781255 0)
(1.03896 0.00786688 0)
(1.03902 0.00793629 0)
(1.03906 0.00802178 0)
(1.03909 0.00812495 0)
(1.0391 0.00824754 0)
(1.0391 0.00839136 0)
(1.03909 0.0085595 0)
(1.03906 0.0087541 0)
(1.03901 0.00898042 0)
(1.03896 0.00924246 0)
(1.0389 0.00954761 0)
(1.03884 0.00990616 0)
(1.0388 0.0103201 0)
(1.03881 0.0108018 0)
(1.00051 0.00762523 0)
(1.00824 0.0155753 0)
(1.01678 0.0153896 0)
(1.02155 0.0137212 0)
(1.02356 0.0132483 0)
(1.02503 0.0129689 0)
(1.02654 0.0123678 0)
(1.02786 0.0117282 0)
(1.02887 0.0112303 0)
(1.02968 0.0108296 0)
(1.03038 0.0104689 0)
(1.03101 0.0101393 0)
(1.03157 0.00984467 0)
(1.03208 0.00958313 0)
(1.03253 0.00934956 0)
(1.03295 0.00913982 0)
(1.03333 0.00895103 0)
(1.03368 0.00878082 0)
(1.034 0.00862709 0)