/*--------------------------------*- C++ -*----------------------------------*\
  =========                 |
  \\      /  F ield         | OpenFOAM: The Open Source CFD Toolbox
   \\    /   O peration     | Website:  https://openfoam.org
    \\  /    A nd           | Version:  7
     \\/     M anipulation  |
\*---------------------------------------------------------------------------*/
FoamFile
{
    version     2.0;
    format      ascii;
    class       volVectorField;
    location    "0.28";
    object      vorticity;
}
// * * * * * * * * * * * * * * * * * * * * * * * * * * * * * * * * * * * * * //

dimensions      [0 0 -1 0 0 0 0];

internalField   nonuniform List<vector> 
70000
(
(0 -0 -45716)
(0 -0 -28616.8)
(0 -0 -20911.2)
(0 -0 -16976.5)
(0 -0 -14953.8)
(0 -0 -13645.3)
(0 -0 -12634.4)
(0 -0 -11820.3)
(0 -0 -11155)
(0 -0 -10599.3)
(0 -0 -10125.5)
(0 -0 -9714.89)
(0 -0 -9354.46)
(0 -0 -9034.8)
(0 -0 -8748.79)
(0 -0 -8490.88)
(0 -0 -8256.74)
(0 -0 -8042.87)
(0 -0 -7846.46)
(0 -0 -7665.2)
(0 -0 -7497.15)
(0 -0 -7340.71)
(0 -0 -7194.51)
(0 -0 -7057.39)
(0 -0 -6928.34)
(0 -0 -6806.48)
(0 -0 -6691.06)
(0 -0 -6581.4)
(0 -0 -6476.9)
(0 -0 -6377.03)
(0 -0 -6281.32)
(0 -0 -6189.29)
(0 -0 -6100.6)
(0 -0 -6014.8)
(0 -0 -5931.63)
(0 -0 -5850.67)
(0 -0 -5771.65)
(0 -0 -5694.31)
(0 -0 -5618.1)
(0 -0 -5543.38)
(0 -0 -5468.33)
(0 -0 -5395.78)
(0 -0 -5319.19)
(0 -0 -5249.87)
(0 -0 -5166.02)
(0 -0 -5105.47)
(0 -0 -5000)
(0 -0 -4965.22)
(0 -0 -4819.83)
(0 -0 -4633.74)
(0 -0 -13549.7)
(0 -0 -19947.2)
(0 -0 -18535.5)
(0 -0 -16248.2)
(0 -0 -14501.4)
(0 -0 -13276.5)
(0 -0 -12347.5)
(0 -0 -11596.7)
(0 -0 -10973.5)
(0 -0 -10447.4)
(0 -0 -9995.93)
(0 -0 -9602.92)
(0 -0 -9256.74)
(0 -0 -8948.83)
(0 -0 -8672.64)
(0 -0 -8423.11)
(0 -0 -8196.21)
(0 -0 -7988.69)
(0 -0 -7797.93)
(0 -0 -7621.75)
(0 -0 -7458.34)
(0 -0 -7306.18)
(0 -0 -7163.97)
(0 -0 -7030.6)
(0 -0 -6905.13)
(0 -0 -6786.72)
(0 -0 -6674.66)
(0 -0 -6568.3)
(0 -0 -6467.08)
(0 -0 -6370.49)
(0 -0 -6278.09)
(0 -0 -6189.45)
(0 -0 -6104.21)
(0 -0 -6022)
(0 -0 -5942.55)
(0 -0 -5865.49)
(0 -0 -5790.59)
(0 -0 -5717.58)
(0 -0 -5646.03)
(0 -0 -5576.18)
(0 -0 -5506.62)
(0 -0 -5439.47)
(0 -0 -5369.8)
(0 -0 -5306.06)
(0 -0 -5232.09)
(0 -0 -5175.6)
(0 -0 -5087.81)
(0 -0 -5048.67)
(0 -0 -4938.9)
(0 -0 -4939.5)
(0 -0 -3818.81)
(0 -0 -10829)
(0 -0 -13363.6)
(0 -0 -13519.5)
(0 -0 -12865.6)
(0 -0 -12139)
(0 -0 -11496.9)
(0 -0 -10936.1)
(0 -0 -10443.9)
(0 -0 -10011)
(0 -0 -9628.67)
(0 -0 -9288.66)
(0 -0 -8984.23)
(0 -0 -8709.89)
(0 -0 -8461.2)
(0 -0 -8234.55)
(0 -0 -8026.94)
(0 -0 -7835.92)
(0 -0 -7659.42)
(0 -0 -7495.7)
(0 -0 -7343.29)
(0 -0 -7200.93)
(0 -0 -7067.54)
(0 -0 -6942.17)
(0 -0 -6824.02)
(0 -0 -6712.37)
(0 -0 -6606.59)
(0 -0 -6506.13)
(0 -0 -6410.5)
(0 -0 -6319.24)
(0 -0 -6231.96)
(0 -0 -6148.3)
(0 -0 -6067.94)
(0 -0 -5990.55)
(0 -0 -5915.88)
(0 -0 -5843.63)
(0 -0 -5773.59)
(0 -0 -5705.52)
(0 -0 -5639.1)
(0 -0 -5574.42)
(0 -0 -5510.56)
(0 -0 -5448.75)
(0 -0 -5385.99)
(0 -0 -5327.19)
(0 -0 -5262.98)
(0 -0 -5208.87)
(0 -0 -5138.56)
(0 -0 -5092.35)
(0 -0 -5014.24)
(0 -0 -5028)
(0 -0 -533.069)
(0 -0 -4662.86)
(0 -0 -7718.97)
(0 -0 -9329.17)
(0 -0 -9892.87)
(0 -0 -9958.03)
(0 -0 -9826.12)
(0 -0 -9614.01)
(0 -0 -9370.51)
(0 -0 -9120.31)
(0 -0 -8875.8)
(0 -0 -8642.55)
(0 -0 -8422.61)
(0 -0 -8216.41)
(0 -0 -8023.56)
(0 -0 -7843.31)
(0 -0 -7674.77)
(0 -0 -7517.01)
(0 -0 -7369.12)
(0 -0 -7230.24)
(0 -0 -7099.58)
(0 -0 -6976.42)
(0 -0 -6860.11)
(0 -0 -6750.06)
(0 -0 -6645.71)
(0 -0 -6546.6)
(0 -0 -6452.29)
(0 -0 -6362.37)
(0 -0 -6276.49)
(0 -0 -6194.32)
(0 -0 -6115.56)
(0 -0 -6039.93)
(0 -0 -5967.18)
(0 -0 -5897.08)
(0 -0 -5829.42)
(0 -0 -5763.97)
(0 -0 -5700.56)
(0 -0 -5638.99)
(0 -0 -5579.09)
(0 -0 -5520.73)
(0 -0 -5463.59)
(0 -0 -5407.89)
(0 -0 -5352.68)
(0 -0 -5299.2)
(0 -0 -5245)
(0 -0 -5193.25)
(0 -0 -5139.84)
(0 -0 -5086.63)
(0 -0 -5041.79)
(0 -0 -5000.38)
(0 -0 322.459)
(0 -0 -1444.65)
(0 -0 -3533.03)
(0 -0 -5259.95)
(0 -0 -6400.17)
(0 -0 -7074.94)
(0 -0 -7452.31)
(0 -0 -7642.81)
(0 -0 -7714.75)
(0 -0 -7712.4)
(0 -0 -7664.32)
(0 -0 -7588.6)
(0 -0 -7496.64)
(0 -0 -7395.7)
(0 -0 -7290.45)
(0 -0 -7183.88)
(0 -0 -7077.93)
(0 -0 -6973.84)
(0 -0 -6872.35)
(0 -0 -6773.91)
(0 -0 -6678.76)
(0 -0 -6586.98)
(0 -0 -6498.58)
(0 -0 -6413.51)
(0 -0 -6331.64)
(0 -0 -6252.88)
(0 -0 -6177.06)
(0 -0 -6104.06)
(0 -0 -6033.71)
(0 -0 -5965.88)
(0 -0 -5900.42)
(0 -0 -5837.18)
(0 -0 -5776.05)
(0 -0 -5716.87)
(0 -0 -5659.54)
(0 -0 -5603.9)
(0 -0 -5549.89)
(0 -0 -5497.33)
(0 -0 -5446.19)
(0 -0 -5396.22)
(0 -0 -5347.57)
(0 -0 -5299.65)
(0 -0 -5253.27)
(0 -0 -5206.59)
(0 -0 -5162.83)
(0 -0 -5115.29)
(0 -0 -5077.25)
(0 -0 -5021.08)
(0 -0 -5004.11)
(0 -0 -4926.32)
(0 -0 364.725)
(0 -0 -158.577)
(0 -0 -1181.77)
(0 -0 -2362.59)
(0 -0 -3418.35)
(0 -0 -4257.08)
(0 -0 -4892.19)
(0 -0 -5357.63)
(0 -0 -5688.56)
(0 -0 -5917.05)
(0 -0 -6069.45)
(0 -0 -6165.88)
(0 -0 -6221.28)
(0 -0 -6246.61)
(0 -0 -6249.9)
(0 -0 -6237.08)
(0 -0 -6212.52)
(0 -0 -6179.45)
(0 -0 -6140.28)
(0 -0 -6096.83)
(0 -0 -6050.45)
(0 -0 -6002.15)
(0 -0 -5952.7)
(0 -0 -5902.67)
(0 -0 -5852.5)
(0 -0 -5802.5)
(0 -0 -5752.91)
(0 -0 -5703.91)
(0 -0 -5655.62)
(0 -0 -5608.14)
(0 -0 -5561.51)
(0 -0 -5515.79)
(0 -0 -5470.97)
(0 -0 -5427.08)
(0 -0 -5384.11)
(0 -0 -5342.02)
(0 -0 -5300.84)
(0 -0 -5260.46)
(0 -0 -5221)
(0 -0 -5182.13)
(0 -0 -5144.38)
(0 -0 -5106.65)
(0 -0 -5070.86)
(0 -0 -5033.31)
(0 -0 -5000.68)
(0 -0 -4960.55)
(0 -0 -4935.74)
(0 -0 -4884.08)
(0 -0 -4882.55)
(0 -0 -4805.95)
(0 -0 254.034)
(0 -0 185.317)
(0 -0 -173.37)
(0 -0 -764.969)
(0 -0 -1448.22)
(0 -0 -2116.15)
(0 -0 -2721.4)
(0 -0 -3244.48)
(0 -0 -3681.31)
(0 -0 -4037.71)
(0 -0 -4324.02)
(0 -0 -4551.39)
(0 -0 -4730.16)
(0 -0 -4869.31)
(0 -0 -4976.37)
(0 -0 -5057.5)
(0 -0 -5117.72)
(0 -0 -5161.08)
(0 -0 -5190.83)
(0 -0 -5209.6)
(0 -0 -5219.5)
(0 -0 -5222.23)
(0 -0 -5219.16)
(0 -0 -5211.41)
(0 -0 -5199.87)
(0 -0 -5185.29)
(0 -0 -5168.25)
(0 -0 -5149.26)
(0 -0 -5128.71)
(0 -0 -5106.93)
(0 -0 -5084.2)
(0 -0 -5060.74)
(0 -0 -5036.74)
(0 -0 -5012.35)
(0 -0 -4987.7)
(0 -0 -4962.89)
(0 -0 -4938.03)
(0 -0 -4913.13)
(0 -0 -4888.39)
(0 -0 -4863.55)
(0 -0 -4839.28)
(0 -0 -4814.39)
(0 -0 -4791.18)
(0 -0 -4765.48)
(0 -0 -4744.91)
(0 -0 -4715.84)
(0 -0 -4702.54)
(0 -0 -4662.74)
(0 -0 -4667.71)
(0 -0 -4611.23)
(0 -0 178.752)
(0 -0 204.523)
(0 -0 130.659)
(0 -0 -85.3118)
(0 -0 -418.143)
(0 -0 -815.306)
(0 -0 -1236.89)
(0 -0 -1653.98)
(0 -0 -2046.71)
(0 -0 -2404.12)
(0 -0 -2722.01)
(0 -0 -3000.32)
(0 -0 -3241.27)
(0 -0 -3448.2)
(0 -0 -3624.84)
(0 -0 -3774.94)
(0 -0 -3902)
(0 -0 -4009.18)
(0 -0 -4099.31)
(0 -0 -4174.8)
(0 -0 -4237.79)
(0 -0 -4290.08)
(0 -0 -4333.21)
(0 -0 -4368.5)
(0 -0 -4397.08)
(0 -0 -4419.89)
(0 -0 -4437.75)
(0 -0 -4451.35)
(0 -0 -4461.29)
(0 -0 -4468.07)
(0 -0 -4472.13)
(0 -0 -4473.84)
(0 -0 -4473.53)
(0 -0 -4471.48)
(0 -0 -4467.93)
(0 -0 -4463.09)
(0 -0 -4457.17)
(0 -0 -4450.27)
(0 -0 -4442.66)
(0 -0 -4434.21)
(0 -0 -4425.56)
(0 -0 -4415.76)
(0 -0 -4406.9)
(0 -0 -4395.36)
(0 -0 -4387.9)
(0 -0 -4372.75)
(0 -0 -4370.55)
(0 -0 -4346.87)
(0 -0 -4356.57)
(0 -0 -4323.25)
(0 -0 148.024)
(0 -0 164.621)
(0 -0 170.004)
(0 -0 120.963)
(0 -0 0.949377)
(0 -0 -180.918)
(0 -0 -409.227)
(0 -0 -667.599)
(0 -0 -940.185)
(0 -0 -1214.07)
(0 -0 -1480.04)
(0 -0 -1732.13)
(0 -0 -1966.85)
(0 -0 -2182.55)
(0 -0 -2378.86)
(0 -0 -2556.23)
(0 -0 -2715.64)
(0 -0 -2858.35)
(0 -0 -2985.73)
(0 -0 -3099.19)
(0 -0 -3200.1)
(0 -0 -3289.75)
(0 -0 -3369.32)
(0 -0 -3439.91)
(0 -0 -3502.5)
(0 -0 -3557.96)
(0 -0 -3607.07)
(0 -0 -3650.55)
(0 -0 -3688.99)
(0 -0 -3722.97)
(0 -0 -3752.95)
(0 -0 -3779.38)
(0 -0 -3802.63)
(0 -0 -3823.07)
(0 -0 -3840.97)
(0 -0 -3856.65)
(0 -0 -3870.32)
(0 -0 -3882.22)
(0 -0 -3892.57)
(0 -0 -3901.44)
(0 -0 -3909.31)
(0 -0 -3915.63)
(0 -0 -3921.97)
(0 -0 -3925.73)
(0 -0 -3932.06)
(0 -0 -3932.14)
(0 -0 -3941.49)
(0 -0 -3934.96)
(0 -0 -3951.16)
(0 -0 -3939.04)
(0 -0 136.833)
(0 -0 137.081)
(0 -0 148.752)
(0 -0 149.692)
(0 -0 122.179)
(0 -0 60.0519)
(0 -0 -36.4948)
(0 -0 -163.788)
(0 -0 -315.459)
(0 -0 -484.191)
(0 -0 -663.076)
(0 -0 -846.221)
(0 -0 -1028.91)
(0 -0 -1207.59)
(0 -0 -1379.72)
(0 -0 -1543.62)
(0 -0 -1698.28)
(0 -0 -1843.21)
(0 -0 -1978.29)
(0 -0 -2103.68)
(0 -0 -2219.71)
(0 -0 -2326.83)
(0 -0 -2425.55)
(0 -0 -2516.45)
(0 -0 -2600.06)
(0 -0 -2676.95)
(0 -0 -2747.63)
(0 -0 -2812.62)
(0 -0 -2872.37)
(0 -0 -2927.33)
(0 -0 -2977.91)
(0 -0 -3024.48)
(0 -0 -3067.39)
(0 -0 -3106.96)
(0 -0 -3143.47)
(0 -0 -3177.22)
(0 -0 -3208.42)
(0 -0 -3237.36)
(0 -0 -3264.2)
(0 -0 -3289.14)
(0 -0 -3312.5)
(0 -0 -3334.07)
(0 -0 -3354.9)
(0 -0 -3373.33)
(0 -0 -3392.99)
(0 -0 -3407.76)
(0 -0 -3428.6)
(0 -0 -3438.14)
(0 -0 -3462.35)
(0 -0 -3468.64)
(0 -0 129.955)
(0 -0 124.009)
(0 -0 129.195)
(0 -0 136.398)
(0 -0 136.482)
(0 -0 123.198)
(0 -0 92.8964)
(0 -0 43.7304)
(0 -0 -24.1283)
(0 -0 -108.842)
(0 -0 -207.642)
(0 -0 -317.399)
(0 -0 -434.989)
(0 -0 -557.529)
(0 -0 -682.502)
(0 -0 -807.816)
(0 -0 -931.79)
(0 -0 -1053.13)
(0 -0 -1170.87)
(0 -0 -1284.33)
(0 -0 -1393.07)
(0 -0 -1496.82)
(0 -0 -1595.48)
(0 -0 -1689.03)
(0 -0 -1777.56)
(0 -0 -1861.21)
(0 -0 -1940.14)
(0 -0 -2014.57)
(0 -0 -2084.7)
(0 -0 -2150.78)
(0 -0 -2213.03)
(0 -0 -2271.68)
(0 -0 -2326.94)
(0 -0 -2379.07)
(0 -0 -2428.23)
(0 -0 -2474.68)
(0 -0 -2518.55)
(0 -0 -2560.11)
(0 -0 -2599.47)
(0 -0 -2636.84)
(0 -0 -2672.42)
(0 -0 -2706.19)
(0 -0 -2738.83)
(0 -0 -2769.33)
(0 -0 -2800.17)
(0 -0 -2827.22)
(0 -0 -2858.04)
(0 -0 -2881)
(0 -0 -2912.98)
(0 -0 -2934.18)
(0 -0 122.967)
(0 -0 116.659)
(0 -0 118.027)
(0 -0 122.504)
(0 -0 126.447)
(0 -0 126.911)
(0 -0 121.421)
(0 -0 107.673)
(0 -0 84.0259)
(0 -0 49.7735)
(0 -0 5.0082)
(0 -0 -49.5654)
(0 -0 -112.833)
(0 -0 -183.443)
(0 -0 -259.961)
(0 -0 -340.973)
(0 -0 -425.153)
(0 -0 -511.313)
(0 -0 -598.417)
(0 -0 -685.589)
(0 -0 -772.105)
(0 -0 -857.386)
(0 -0 -940.976)
(0 -0 -1022.53)
(0 -0 -1101.8)
(0 -0 -1178.61)
(0 -0 -1252.84)
(0 -0 -1324.44)
(0 -0 -1393.39)
(0 -0 -1459.7)
(0 -0 -1523.41)
(0 -0 -1584.59)
(0 -0 -1643.3)
(0 -0 -1699.64)
(0 -0 -1753.69)
(0 -0 -1805.58)
(0 -0 -1855.38)
(0 -0 -1903.26)
(0 -0 -1949.26)
(0 -0 -1993.57)
(0 -0 -2036.27)
(0 -0 -2077.41)
(0 -0 -2117.43)
(0 -0 -2155.68)
(0 -0 -2193.89)
(0 -0 -2229.26)
(0 -0 -2266.89)
(0 -0 -2299.29)
(0 -0 -2336.94)
(0 -0 -2368.61)
(0 -0 115.649)
(0 -0 110.429)
(0 -0 110.747)
(0 -0 113.185)
(0 -0 115.996)
(0 -0 118.254)
(0 -0 119.124)
(0 -0 117.403)
(0 -0 111.808)
(0 -0 101.284)
(0 -0 85.1074)
(0 -0 62.9016)
(0 -0 34.6044)
(0 -0 0.423991)
(0 -0 -39.2265)
(0 -0 -83.794)
(0 -0 -132.643)
(0 -0 -185.102)
(0 -0 -240.504)
(0 -0 -298.207)
(0 -0 -357.62)
(0 -0 -418.204)
(0 -0 -479.487)
(0 -0 -541.057)
(0 -0 -602.561)
(0 -0 -663.706)
(0 -0 -724.245)
(0 -0 -783.982)
(0 -0 -842.754)
(0 -0 -900.442)
(0 -0 -956.947)
(0 -0 -1012.21)
(0 -0 -1066.18)
(0 -0 -1118.84)
(0 -0 -1170.16)
(0 -0 -1220.2)
(0 -0 -1268.91)
(0 -0 -1316.4)
(0 -0 -1362.64)
(0 -0 -1407.73)
(0 -0 -1451.71)
(0 -0 -1494.6)
(0 -0 -1536.68)
(0 -0 -1577.51)
(0 -0 -1618.26)
(0 -0 -1657.08)
(0 -0 -1697.28)
(0 -0 -1734.28)
(0 -0 -1774.22)
(0 -0 -1811.25)
(0 -0 108.406)
(0 -0 104.214)
(0 -0 104.424)
(0 -0 106.13)
(0 -0 107.996)
(0 -0 109.704)
(0 -0 111.236)
(0 -0 112.247)
(0 -0 112.152)
(0 -0 110.32)
(0 -0 106.164)
(0 -0 99.178)
(0 -0 88.9842)
(0 -0 75.3364)
(0 -0 58.1302)
(0 -0 37.3799)
(0 -0 13.2038)
(0 -0 -14.1993)
(0 -0 -44.5726)
(0 -0 -77.6222)
(0 -0 -113.034)
(0 -0 -150.491)
(0 -0 -189.678)
(0 -0 -230.299)
(0 -0 -272.074)
(0 -0 -314.747)
(0 -0 -358.085)
(0 -0 -401.881)
(0 -0 -445.949)
(0 -0 -490.131)
(0 -0 -534.281)
(0 -0 -578.289)
(0 -0 -622.044)
(0 -0 -665.477)
(0 -0 -708.503)
(0 -0 -751.098)
(0 -0 -793.191)
(0 -0 -834.797)
(0 -0 -875.861)
(0 -0 -916.416)
(0 -0 -956.46)
(0 -0 -995.963)
(0 -0 -1035.12)
(0 -0 -1073.6)
(0 -0 -1112.17)
(0 -0 -1149.66)
(0 -0 -1188.08)
(0 -0 -1224.83)
(0 -0 -1263.23)
(0 -0 -1300.62)
(0 -0 101.429)
(0 -0 98.0242)
(0 -0 98.2488)
(0 -0 99.721)
(0 -0 101.231)
(0 -0 102.499)
(0 -0 103.719)
(0 -0 104.901)
(0 -0 105.87)
(0 -0 106.38)
(0 -0 106.151)
(0 -0 104.882)
(0 -0 102.282)
(0 -0 98.0904)
(0 -0 92.0919)
(0 -0 84.1283)
(0 -0 74.0985)
(0 -0 61.9576)
(0 -0 47.7115)
(0 -0 31.4092)
(0 -0 13.1347)
(0 -0 -7.00128)
(0 -0 -28.8694)
(0 -0 -52.3286)
(0 -0 -77.2315)
(0 -0 -103.43)
(0 -0 -130.777)
(0 -0 -159.132)
(0 -0 -188.358)
(0 -0 -218.332)
(0 -0 -248.931)
(0 -0 -280.054)
(0 -0 -311.595)
(0 -0 -343.476)
(0 -0 -375.609)
(0 -0 -407.941)
(0 -0 -440.398)
(0 -0 -472.952)
(0 -0 -505.547)
(0 -0 -538.167)
(0 -0 -570.799)
(0 -0 -603.386)
(0 -0 -636.052)
(0 -0 -668.555)
(0 -0 -701.37)
(0 -0 -733.798)
(0 -0 -766.966)
(0 -0 -799.53)
(0 -0 -833.121)
(0 -0 -866.778)
(0 -0 94.7548)
(0 -0 91.9765)
(0 -0 92.1894)
(0 -0 93.5126)
(0 -0 94.8903)
(0 -0 95.9851)
(0 -0 96.98)
(0 -0 97.9729)
(0 -0 98.9359)
(0 -0 99.8018)
(0 -0 100.482)
(0 -0 100.859)
(0 -0 100.794)
(0 -0 100.138)
(0 -0 98.7428)
(0 -0 96.4682)
(0 -0 93.1926)
(0 -0 88.815)
(0 -0 83.2589)
(0 -0 76.4722)
(0 -0 68.4265)
(0 -0 59.1152)
(0 -0 48.5506)
(0 -0 36.7607)
(0 -0 23.7864)
(0 -0 9.67816)
(0 -0 -5.50548)
(0 -0 -21.7021)
(0 -0 -38.8448)
(0 -0 -56.8671)
(0 -0 -75.6999)
(0 -0 -95.2792)
(0 -0 -115.538)
(0 -0 -136.419)
(0 -0 -157.861)
(0 -0 -179.818)
(0 -0 -202.235)
(0 -0 -225.077)
(0 -0 -248.303)
(0 -0 -271.881)
(0 -0 -295.8)
(0 -0 -320.003)
(0 -0 -344.564)
(0 -0 -369.324)
(0 -0 -394.548)
(0 -0 -419.862)
(0 -0 -445.83)
(0 -0 -471.853)
(0 -0 -498.621)
(0 -0 -525.966)
(0 -0 88.3807)
(0 -0 86.1226)
(0 -0 86.317)
(0 -0 87.4904)
(0 -0 88.7696)
(0 -0 89.7849)
(0 -0 90.673)
(0 -0 91.5373)
(0 -0 92.3818)
(0 -0 93.1923)
(0 -0 93.9534)
(0 -0 94.637)
(0 -0 95.198)
(0 -0 95.5773)
(0 -0 95.7061)
(0 -0 95.5101)
(0 -0 94.9133)
(0 -0 93.8417)
(0 -0 92.2267)
(0 -0 90.0076)
(0 -0 87.1327)
(0 -0 83.5604)
(0 -0 79.2596)
(0 -0 74.2087)
(0 -0 68.3956)
(0 -0 61.8161)
(0 -0 54.474)
(0 -0 46.3786)
(0 -0 37.5454)
(0 -0 27.9931)
(0 -0 17.7454)
(0 -0 6.82659)
(0 -0 -4.73482)
(0 -0 -16.913)
(0 -0 -29.6775)
(0 -0 -43.0039)
(0 -0 -56.863)
(0 -0 -71.2324)
(0 -0 -86.0898)
(0 -0 -101.411)
(0 -0 -117.192)
(0 -0 -133.393)
(0 -0 -150.054)
(0 -0 -167.09)
(0 -0 -184.629)
(0 -0 -202.502)
(0 -0 -220.953)
(0 -0 -239.775)
(0 -0 -259.197)
(0 -0 -279.346)
(0 -0 82.3056)
(0 -0 80.4806)
(0 -0 80.665)
(0 -0 81.6934)
(0 -0 82.8689)
(0 -0 83.8185)
(0 -0 84.6383)
(0 -0 85.4248)
(0 -0 86.1861)
(0 -0 86.9158)
(0 -0 87.6161)
(0 -0 88.2873)
(0 -0 88.9215)
(0 -0 89.5028)
(0 -0 90.0087)
(0 -0 90.4104)
(0 -0 90.6746)
(0 -0 90.7647)
(0 -0 90.6427)
(0 -0 90.2703)
(0 -0 89.6103)
(0 -0 88.628)
(0 -0 87.2916)
(0 -0 85.5729)
(0 -0 83.4475)
(0 -0 80.8951)
(0 -0 77.8993)
(0 -0 74.4473)
(0 -0 70.5307)
(0 -0 66.1433)
(0 -0 61.2833)
(0 -0 55.9504)
(0 -0 50.1477)
(0 -0 43.8791)
(0 -0 37.1513)
(0 -0 29.9704)
(0 -0 22.3443)
(0 -0 14.2808)
(0 -0 5.78559)
(0 -0 -3.13053)
(0 -0 -12.4702)
(0 -0 -22.2149)
(0 -0 -32.3859)
(0 -0 -42.9487)
(0 -0 -53.9562)
(0 -0 -65.3554)
(0 -0 -77.2267)
(0 -0 -89.544)
(0 -0 -102.34)
(0 -0 -115.807)
(0 -0 76.5301)
(0 -0 75.0619)
(0 -0 75.2455)
(0 -0 76.1417)
(0 -0 77.211)
(0 -0 78.0936)
(0 -0 78.8515)
(0 -0 79.5752)
(0 -0 80.2743)
(0 -0 80.9417)
(0 -0 81.5807)
(0 -0 82.1969)
(0 -0 82.7926)
(0 -0 83.366)
(0 -0 83.9126)
(0 -0 84.4244)
(0 -0 84.8908)
(0 -0 85.2984)
(0 -0 85.6316)
(0 -0 85.8732)
(0 -0 86.0051)
(0 -0 86.008)
(0 -0 85.8632)
(0 -0 85.5516)
(0 -0 85.0551)
(0 -0 84.3564)
(0 -0 83.4393)
(0 -0 82.2891)
(0 -0 80.8922)
(0 -0 79.2368)
(0 -0 77.3126)
(0 -0 75.1107)
(0 -0 72.6238)
(0 -0 69.846)
(0 -0 66.7724)
(0 -0 63.3994)
(0 -0 59.7236)
(0 -0 55.7434)
(0 -0 51.4552)
(0 -0 46.8591)
(0 -0 41.9495)
(0 -0 36.7289)
(0 -0 31.1866)
(0 -0 25.3268)
(0 -0 19.1334)
(0 -0 12.6051)
(0 -0 5.73021)
(0 -0 -1.52949)
(0 -0 -9.14319)
(0 -0 -17.2765)
(0 -0 71.0539)
(0 -0 69.8769)
(0 -0 70.0654)
(0 -0 70.8437)
(0 -0 71.8087)
(0 -0 72.6242)
(0 -0 73.3219)
(0 -0 73.9858)
(0 -0 74.6286)
(0 -0 75.2426)
(0 -0 75.8295)
(0 -0 76.3947)
(0 -0 76.942)
(0 -0 77.4729)
(0 -0 77.9875)
(0 -0 78.4847)
(0 -0 78.9623)
(0 -0 79.4167)
(0 -0 79.8435)
(0 -0 80.2368)
(0 -0 80.5901)
(0 -0 80.8959)
(0 -0 81.1461)
(0 -0 81.3317)
(0 -0 81.4435)
(0 -0 81.4719)
(0 -0 81.4071)
(0 -0 81.2392)
(0 -0 80.9587)
(0 -0 80.5561)
(0 -0 80.0224)
(0 -0 79.349)
(0 -0 78.5278)
(0 -0 77.5515)
(0 -0 76.413)
(0 -0 75.1063)
(0 -0 73.625)
(0 -0 71.964)
(0 -0 70.1173)
(0 -0 68.0803)
(0 -0 65.8471)
(0 -0 63.4125)
(0 -0 60.7717)
(0 -0 57.9158)
(0 -0 54.8437)
(0 -0 51.5356)
(0 -0 48.0022)
(0 -0 44.1945)
(0 -0 40.1527)
(0 -0 35.7582)
(0 -0 65.8754)
(0 -0 64.9341)
(0 -0 65.1303)
(0 -0 65.8046)
(0 -0 66.669)
(0 -0 67.4186)
(0 -0 68.0583)
(0 -0 68.6645)
(0 -0 69.253)
(0 -0 69.8167)
(0 -0 70.3555)
(0 -0 70.8745)
(0 -0 71.377)
(0 -0 71.8647)
(0 -0 72.3387)
(0 -0 72.7991)
(0 -0 73.246)
(0 -0 73.6789)
(0 -0 74.0972)
(0 -0 74.4997)
(0 -0 74.885)
(0 -0 75.2512)
(0 -0 75.5959)
(0 -0 75.9164)
(0 -0 76.2092)
(0 -0 76.4704)
(0 -0 76.6959)
(0 -0 76.8809)
(0 -0 77.0205)
(0 -0 77.1095)
(0 -0 77.1424)
(0 -0 77.1141)
(0 -0 77.019)
(0 -0 76.852)
(0 -0 76.608)
(0 -0 76.2821)
(0 -0 75.8692)
(0 -0 75.3646)
(0 -0 74.7636)
(0 -0 74.0609)
(0 -0 73.2527)
(0 -0 72.3319)
(0 -0 71.297)
(0 -0 70.1366)
(0 -0 68.8543)
(0 -0 67.4297)
(0 -0 65.8759)
(0 -0 64.1549)
(0 -0 62.2975)
(0 -0 60.2278)
(0 -0 60.992)
(0 -0 60.2398)
(0 -0 60.4446)
(0 -0 61.0273)
(0 -0 61.796)
(0 -0 62.4815)
(0 -0 63.0661)
(0 -0 63.6171)
(0 -0 64.1534)
(0 -0 64.6685)
(0 -0 65.1616)
(0 -0 65.6367)
(0 -0 66.0971)
(0 -0 66.5444)
(0 -0 66.9792)
(0 -0 67.4019)
(0 -0 67.8128)
(0 -0 68.2121)
(0 -0 68.6)
(0 -0 68.977)
(0 -0 69.3431)
(0 -0 69.6987)
(0 -0 70.0436)
(0 -0 70.3777)
(0 -0 70.7004)
(0 -0 71.0107)
(0 -0 71.3076)
(0 -0 71.5893)
(0 -0 71.854)
(0 -0 72.0994)
(0 -0 72.3233)
(0 -0 72.523)
(0 -0 72.6958)
(0 -0 72.8392)
(0 -0 72.9503)
(0 -0 73.0264)
(0 -0 73.0647)
(0 -0 73.0621)
(0 -0 73.0162)
(0 -0 72.9228)
(0 -0 72.7803)
(0 -0 72.5829)
(0 -0 72.331)
(0 -0 72.0152)
(0 -0 71.6399)
(0 -0 71.1897)
(0 -0 70.6754)
(0 -0 70.0719)
(0 -0 69.4001)
(0 -0 68.6154)
(0 -0 56.3998)
(0 -0 55.7982)
(0 -0 56.0106)
(0 -0 56.5132)
(0 -0 57.1919)
(0 -0 57.8154)
(0 -0 58.3478)
(0 -0 58.8467)
(0 -0 59.333)
(0 -0 59.8017)
(0 -0 60.2509)
(0 -0 60.6842)
(0 -0 61.1046)
(0 -0 61.5134)
(0 -0 61.9111)
(0 -0 62.2978)
(0 -0 62.6738)
(0 -0 63.0392)
(0 -0 63.3945)
(0 -0 63.7402)
(0 -0 64.077)
(0 -0 64.4057)
(0 -0 64.7269)
(0 -0 65.0414)
(0 -0 65.3496)
(0 -0 65.6516)
(0 -0 65.9477)
(0 -0 66.2375)
(0 -0 66.5206)
(0 -0 66.7964)
(0 -0 67.0639)
(0 -0 67.3224)
(0 -0 67.5708)
(0 -0 67.8079)
(0 -0 68.0329)
(0 -0 68.2445)
(0 -0 68.4417)
(0 -0 68.6228)
(0 -0 68.7871)
(0 -0 68.932)
(0 -0 69.0574)
(0 -0 69.1592)
(0 -0 69.239)
(0 -0 69.2902)
(0 -0 69.3168)
(0 -0 69.3091)
(0 -0 69.2746)
(0 -0 69.1987)
(0 -0 69.0947)
(0 -0 68.9379)
(0 -0 52.0935)
(0 -0 51.6112)
(0 -0 51.8291)
(0 -0 52.262)
(0 -0 52.8569)
(0 -0 53.4206)
(0 -0 53.9038)
(0 -0 54.3537)
(0 -0 54.7927)
(0 -0 55.2172)
(0 -0 55.6249)
(0 -0 56.0184)
(0 -0 56.4007)
(0 -0 56.773)
(0 -0 57.1354)
(0 -0 57.488)
(0 -0 57.8308)
(0 -0 58.1639)
(0 -0 58.4876)
(0 -0 58.8026)
(0 -0 59.1095)
(0 -0 59.4093)
(0 -0 59.7028)
(0 -0 59.991)
(0 -0 60.2744)
(0 -0 60.5539)
(0 -0 60.8297)
(0 -0 61.1021)
(0 -0 61.3713)
(0 -0 61.637)
(0 -0 61.8992)
(0 -0 62.1577)
(0 -0 62.4121)
(0 -0 62.6622)
(0 -0 62.9079)
(0 -0 63.1488)
(0 -0 63.3847)
(0 -0 63.6152)
(0 -0 63.8401)
(0 -0 64.0582)
(0 -0 64.27)
(0 -0 64.4729)
(0 -0 64.6688)
(0 -0 64.8534)
(0 -0 65.0302)
(0 -0 65.1934)
(0 -0 65.3482)
(0 -0 65.4869)
(0 -0 65.6177)
(0 -0 65.728)
(0 -0 48.0668)
(0 -0 47.6786)
(0 -0 47.899)
(0 -0 48.2714)
(0 -0 48.7893)
(0 -0 49.2958)
(0 -0 49.7327)
(0 -0 50.1369)
(0 -0 50.5313)
(0 -0 50.914)
(0 -0 51.2824)
(0 -0 51.6384)
(0 -0 51.9847)
(0 -0 52.3224)
(0 -0 52.6514)
(0 -0 52.9717)
(0 -0 53.2831)
(0 -0 53.5855)
(0 -0 53.8794)
(0 -0 54.1651)
(0 -0 54.4434)
(0 -0 54.7153)
(0 -0 54.9816)
(0 -0 55.2433)
(0 -0 55.5011)
(0 -0 55.7558)
(0 -0 56.0077)
(0 -0 56.2574)
(0 -0 56.5049)
(0 -0 56.7504)
(0 -0 56.9938)
(0 -0 57.2352)
(0 -0 57.4746)
(0 -0 57.712)
(0 -0 57.9476)
(0 -0 58.1815)
(0 -0 58.4139)
(0 -0 58.6446)
(0 -0 58.8741)
(0 -0 59.1015)
(0 -0 59.3276)
(0 -0 59.5509)
(0 -0 59.773)
(0 -0 59.9914)
(0 -0 60.2086)
(0 -0 60.4215)
(0 -0 60.6335)
(0 -0 60.8412)
(0 -0 61.0493)
(0 -0 61.2525)
(0 -0 44.3122)
(0 -0 43.998)
(0 -0 44.2173)
(0 -0 44.5374)
(0 -0 44.9853)
(0 -0 45.4375)
(0 -0 45.831)
(0 -0 46.1927)
(0 -0 46.5454)
(0 -0 46.8889)
(0 -0 47.2203)
(0 -0 47.5411)
(0 -0 47.8537)
(0 -0 48.1588)
(0 -0 48.4565)
(0 -0 48.7464)
(0 -0 49.0281)
(0 -0 49.3017)
(0 -0 49.5672)
(0 -0 49.8253)
(0 -0 50.0766)
(0 -0 50.322)
(0 -0 50.5625)
(0 -0 50.799)
(0 -0 51.0322)
(0 -0 51.2629)
(0 -0 51.4914)
(0 -0 51.7182)
(0 -0 51.9434)
(0 -0 52.1672)
(0 -0 52.3894)
(0 -0 52.6103)
(0 -0 52.8299)
(0 -0 53.0482)
(0 -0 53.2657)
(0 -0 53.4824)
(0 -0 53.6988)
(0 -0 53.9147)
(0 -0 54.1307)
(0 -0 54.3464)
(0 -0 54.5624)
(0 -0 54.7777)
(0 -0 54.9937)
(0 -0 55.2086)
(0 -0 55.4247)
(0 -0 55.64)
(0 -0 55.8569)
(0 -0 56.0742)
(0 -0 56.2944)
(0 -0 56.5166)
(0 -0 40.8208)
(0 -0 40.5651)
(0 -0 40.7797)
(0 -0 41.0547)
(0 -0 41.4396)
(0 -0 41.8405)
(0 -0 42.1934)
(0 -0 42.516)
(0 -0 42.8299)
(0 -0 43.1367)
(0 -0 43.4337)
(0 -0 43.7216)
(0 -0 44.0026)
(0 -0 44.2773)
(0 -0 44.5457)
(0 -0 44.8071)
(0 -0 45.0611)
(0 -0 45.3075)
(0 -0 45.5466)
(0 -0 45.7787)
(0 -0 46.0046)
(0 -0 46.2252)
(0 -0 46.4414)
(0 -0 46.6542)
(0 -0 46.8643)
(0 -0 47.0723)
(0 -0 47.2786)
(0 -0 47.4837)
(0 -0 47.6876)
(0 -0 47.8904)
(0 -0 48.0921)
(0 -0 48.2927)
(0 -0 48.4922)
(0 -0 48.691)
(0 -0 48.8891)
(0 -0 49.0869)
(0 -0 49.2847)
(0 -0 49.4825)
(0 -0 49.6807)
(0 -0 49.8791)
(0 -0 50.0783)
(0 -0 50.2774)
(0 -0 50.4775)
(0 -0 50.6775)
(0 -0 50.879)
(0 -0 51.081)
(0 -0 51.285)
(0 -0 51.4911)
(0 -0 51.7002)
(0 -0 51.9141)
(0 -0 37.5831)
(0 -0 37.3739)
(0 -0 37.5799)
(0 -0 37.816)
(0 -0 38.1448)
(0 -0 38.4978)
(0 -0 38.8129)
(0 -0 39.0995)
(0 -0 39.3777)
(0 -0 39.6505)
(0 -0 39.9154)
(0 -0 40.1729)
(0 -0 40.4245)
(0 -0 40.6711)
(0 -0 40.9122)
(0 -0 41.1471)
(0 -0 41.3753)
(0 -0 41.5965)
(0 -0 41.8108)
(0 -0 42.0187)
(0 -0 42.2209)
(0 -0 42.4183)
(0 -0 42.6118)
(0 -0 42.8024)
(0 -0 42.9909)
(0 -0 43.1777)
(0 -0 43.3634)
(0 -0 43.5481)
(0 -0 43.7321)
(0 -0 43.9152)
(0 -0 44.0975)
(0 -0 44.2789)
(0 -0 44.4596)
(0 -0 44.6395)
(0 -0 44.8191)
(0 -0 44.9985)
(0 -0 45.1781)
(0 -0 45.3578)
(0 -0 45.5381)
(0 -0 45.7187)
(0 -0 45.9)
(0 -0 46.0815)
(0 -0 46.2639)
(0 -0 46.4463)
(0 -0 46.6301)
(0 -0 46.8146)
(0 -0 47.001)
(0 -0 47.1899)
(0 -0 47.3812)
(0 -0 47.5784)
(0 -0 34.5884)
(0 -0 34.4166)
(0 -0 34.6102)
(0 -0 34.8128)
(0 -0 35.0922)
(0 -0 35.4008)
(0 -0 35.6809)
(0 -0 35.9347)
(0 -0 36.1801)
(0 -0 36.4215)
(0 -0 36.6569)
(0 -0 36.8862)
(0 -0 37.1109)
(0 -0 37.3315)
(0 -0 37.5474)
(0 -0 37.7579)
(0 -0 37.9622)
(0 -0 38.16)
(0 -0 38.3514)
(0 -0 38.5368)
(0 -0 38.717)
(0 -0 38.8928)
(0 -0 39.0653)
(0 -0 39.2353)
(0 -0 39.4036)
(0 -0 39.5708)
(0 -0 39.7373)
(0 -0 39.9032)
(0 -0 40.0686)
(0 -0 40.2335)
(0 -0 40.3978)
(0 -0 40.5614)
(0 -0 40.7243)
(0 -0 40.8868)
(0 -0 41.049)
(0 -0 41.2112)
(0 -0 41.3736)
(0 -0 41.5363)
(0 -0 41.6995)
(0 -0 41.8631)
(0 -0 42.0273)
(0 -0 42.1916)
(0 -0 42.3567)
(0 -0 42.5218)
(0 -0 42.688)
(0 -0 42.8547)
(0 -0 43.0231)
(0 -0 43.1939)
(0 -0 43.3665)
(0 -0 43.5452)
(0 -0 31.8252)
(0 -0 31.6839)
(0 -0 31.8622)
(0 -0 32.0362)
(0 -0 32.2723)
(0 -0 32.5401)
(0 -0 32.7879)
(0 -0 33.0119)
(0 -0 33.2274)
(0 -0 33.44)
(0 -0 33.6482)
(0 -0 33.8518)
(0 -0 34.0517)
(0 -0 34.2484)
(0 -0 34.4413)
(0 -0 34.6293)
(0 -0 34.8117)
(0 -0 34.988)
(0 -0 35.1582)
(0 -0 35.3229)
(0 -0 35.4827)
(0 -0 35.6387)
(0 -0 35.7917)
(0 -0 35.9428)
(0 -0 36.0925)
(0 -0 36.2416)
(0 -0 36.3903)
(0 -0 36.5389)
(0 -0 36.6872)
(0 -0 36.8352)
(0 -0 36.9829)
(0 -0 37.13)
(0 -0 37.2766)
(0 -0 37.4229)
(0 -0 37.5691)
(0 -0 37.7152)
(0 -0 37.8617)
(0 -0 38.0086)
(0 -0 38.156)
(0 -0 38.3036)
(0 -0 38.4519)
(0 -0 38.6001)
(0 -0 38.7489)
(0 -0 38.8976)
(0 -0 39.0471)
(0 -0 39.1969)
(0 -0 39.3481)
(0 -0 39.5014)
(0 -0 39.6562)
(0 -0 39.8168)
(0 -0 29.2816)
(0 -0 29.1652)
(0 -0 29.3262)
(0 -0 29.476)
(0 -0 29.6747)
(0 -0 29.9054)
(0 -0 30.1233)
(0 -0 30.3202)
(0 -0 30.5087)
(0 -0 30.695)
(0 -0 30.8784)
(0 -0 31.0585)
(0 -0 31.2358)
(0 -0 31.4108)
(0 -0 31.5826)
(0 -0 31.7501)
(0 -0 31.9124)
(0 -0 32.069)
(0 -0 32.2198)
(0 -0 32.3655)
(0 -0 32.5067)
(0 -0 32.6444)
(0 -0 32.7796)
(0 -0 32.9132)
(0 -0 33.0459)
(0 -0 33.1784)
(0 -0 33.3109)
(0 -0 33.4435)
(0 -0 33.5762)
(0 -0 33.7088)
(0 -0 33.8411)
(0 -0 33.9731)
(0 -0 34.1048)
(0 -0 34.2362)
(0 -0 34.3676)
(0 -0 34.4991)
(0 -0 34.6309)
(0 -0 34.7632)
(0 -0 34.8959)
(0 -0 35.0289)
(0 -0 35.1624)
(0 -0 35.2957)
(0 -0 35.4294)
(0 -0 35.5628)
(0 -0 35.6968)
(0 -0 35.8308)
(0 -0 35.966)
(0 -0 36.1029)
(0 -0 36.241)
(0 -0 36.3845)
(0 -0 26.945)
(0 -0 26.8488)
(0 -0 26.9917)
(0 -0 27.121)
(0 -0 27.2875)
(0 -0 27.4848)
(0 -0 27.6753)
(0 -0 27.8478)
(0 -0 28.012)
(0 -0 28.1744)
(0 -0 28.3353)
(0 -0 28.494)
(0 -0 28.651)
(0 -0 28.8062)
(0 -0 28.9589)
(0 -0 29.1077)
(0 -0 29.2518)
(0 -0 29.3904)
(0 -0 29.5237)
(0 -0 29.652)
(0 -0 29.7761)
(0 -0 29.8972)
(0 -0 30.0161)
(0 -0 30.1338)
(0 -0 30.251)
(0 -0 30.3683)
(0 -0 30.486)
(0 -0 30.6041)
(0 -0 30.7225)
(0 -0 30.8411)
(0 -0 30.9595)
(0 -0 31.0778)
(0 -0 31.1958)
(0 -0 31.3136)
(0 -0 31.4315)
(0 -0 31.5496)
(0 -0 31.6681)
(0 -0 31.7869)
(0 -0 31.9063)
(0 -0 32.0259)
(0 -0 32.1458)
(0 -0 32.2654)
(0 -0 32.3852)
(0 -0 32.5044)
(0 -0 32.6241)
(0 -0 32.7435)
(0 -0 32.864)
(0 -0 32.9856)
(0 -0 33.1084)
(0 -0 33.2359)
(0 -0 24.8026)
(0 -0 24.7228)
(0 -0 24.8476)
(0 -0 24.9593)
(0 -0 25.0982)
(0 -0 25.2658)
(0 -0 25.4314)
(0 -0 25.5819)
(0 -0 25.7243)
(0 -0 25.8653)
(0 -0 26.0058)
(0 -0 26.1453)
(0 -0 26.2839)
(0 -0 26.4213)
(0 -0 26.5568)
(0 -0 26.6889)
(0 -0 26.8164)
(0 -0 26.9389)
(0 -0 27.0561)
(0 -0 27.1687)
(0 -0 27.2774)
(0 -0 27.3833)
(0 -0 27.4874)
(0 -0 27.5907)
(0 -0 27.6938)
(0 -0 27.7974)
(0 -0 27.9017)
(0 -0 28.0067)
(0 -0 28.1122)
(0 -0 28.2181)
(0 -0 28.3239)
(0 -0 28.4297)
(0 -0 28.5353)
(0 -0 28.6409)
(0 -0 28.7465)
(0 -0 28.8524)
(0 -0 28.9588)
(0 -0 29.0655)
(0 -0 29.1727)
(0 -0 29.28)
(0 -0 29.3876)
(0 -0 29.4946)
(0 -0 29.6017)
(0 -0 29.708)
(0 -0 29.8146)
(0 -0 29.9206)
(0 -0 30.0275)
(0 -0 30.1352)
(0 -0 30.244)
(0 -0 30.3566)
(0 -0 22.8415)
(0 -0 22.7749)
(0 -0 22.8822)
(0 -0 22.9787)
(0 -0 23.0941)
(0 -0 23.2354)
(0 -0 23.3785)
(0 -0 23.5093)
(0 -0 23.6323)
(0 -0 23.7542)
(0 -0 23.8764)
(0 -0 23.9986)
(0 -0 24.1207)
(0 -0 24.2423)
(0 -0 24.3623)
(0 -0 24.4793)
(0 -0 24.5921)
(0 -0 24.7)
(0 -0 24.8028)
(0 -0 24.9012)
(0 -0 24.996)
(0 -0 25.0882)
(0 -0 25.1789)
(0 -0 25.2692)
(0 -0 25.3597)
(0 -0 25.451)
(0 -0 25.5432)
(0 -0 25.6364)
(0 -0 25.7303)
(0 -0 25.8247)
(0 -0 25.9193)
(0 -0 26.0139)
(0 -0 26.1083)
(0 -0 26.2028)
(0 -0 26.2975)
(0 -0 26.3924)
(0 -0 26.4878)
(0 -0 26.5836)
(0 -0 26.6799)
(0 -0 26.7761)
(0 -0 26.8724)
(0 -0 26.9681)
(0 -0 27.0637)
(0 -0 27.1582)
(0 -0 27.2528)
(0 -0 27.3465)
(0 -0 27.4411)
(0 -0 27.5359)
(0 -0 27.6321)
(0 -0 27.7311)
(0 -0 21.0485)
(0 -0 20.9926)
(0 -0 21.0836)
(0 -0 21.1666)
(0 -0 21.2622)
(0 -0 21.3805)
(0 -0 21.5033)
(0 -0 21.6164)
(0 -0 21.7223)
(0 -0 21.8271)
(0 -0 21.933)
(0 -0 22.0398)
(0 -0 22.1472)
(0 -0 22.2547)
(0 -0 22.361)
(0 -0 22.4646)
(0 -0 22.5642)
(0 -0 22.6591)
(0 -0 22.749)
(0 -0 22.8347)
(0 -0 22.9169)
(0 -0 22.9969)
(0 -0 23.0757)
(0 -0 23.1543)
(0 -0 23.2334)
(0 -0 23.3137)
(0 -0 23.3951)
(0 -0 23.4778)
(0 -0 23.5614)
(0 -0 23.6456)
(0 -0 23.7301)
(0 -0 23.8146)
(0 -0 23.8992)
(0 -0 23.9838)
(0 -0 24.0686)
(0 -0 24.1537)
(0 -0 24.2394)
(0 -0 24.3253)
(0 -0 24.4117)
(0 -0 24.498)
(0 -0 24.5842)
(0 -0 24.6697)
(0 -0 24.7548)
(0 -0 24.8387)
(0 -0 24.9225)
(0 -0 25.0051)
(0 -0 25.0885)
(0 -0 25.1717)
(0 -0 25.2564)
(0 -0 25.3431)
(0 -0 19.411)
(0 -0 19.3635)
(0 -0 19.4397)
(0 -0 19.5107)
(0 -0 19.5894)
(0 -0 19.6879)
(0 -0 19.7924)
(0 -0 19.8898)
(0 -0 19.9806)
(0 -0 20.0703)
(0 -0 20.1617)
(0 -0 20.2548)
(0 -0 20.3493)
(0 -0 20.4443)
(0 -0 20.5385)
(0 -0 20.6303)
(0 -0 20.7182)
(0 -0 20.8014)
(0 -0 20.8799)
(0 -0 20.9542)
(0 -0 21.0253)
(0 -0 21.0943)
(0 -0 21.1624)
(0 -0 21.2306)
(0 -0 21.2996)
(0 -0 21.37)
(0 -0 21.442)
(0 -0 21.5153)
(0 -0 21.5897)
(0 -0 21.6649)
(0 -0 21.7404)
(0 -0 21.8161)
(0 -0 21.8918)
(0 -0 21.9676)
(0 -0 22.0437)
(0 -0 22.1202)
(0 -0 22.1971)
(0 -0 22.2744)
(0 -0 22.3519)
(0 -0 22.4294)
(0 -0 22.5066)
(0 -0 22.5829)
(0 -0 22.6586)
(0 -0 22.733)
(0 -0 22.807)
(0 -0 22.8796)
(0 -0 22.953)
(0 -0 23.0256)
(0 -0 23.1001)
(0 -0 23.1755)
(0 -0 17.9164)
(0 -0 17.8756)
(0 -0 17.9385)
(0 -0 17.9987)
(0 -0 18.0633)
(0 -0 18.1445)
(0 -0 18.2329)
(0 -0 18.3163)
(0 -0 18.3937)
(0 -0 18.4702)
(0 -0 18.5488)
(0 -0 18.6298)
(0 -0 18.7129)
(0 -0 18.7969)
(0 -0 18.8805)
(0 -0 18.9618)
(0 -0 19.0393)
(0 -0 19.1123)
(0 -0 19.1807)
(0 -0 19.2449)
(0 -0 19.306)
(0 -0 19.3653)
(0 -0 19.4239)
(0 -0 19.4828)
(0 -0 19.5429)
(0 -0 19.6047)
(0 -0 19.6682)
(0 -0 19.7333)
(0 -0 19.7996)
(0 -0 19.8668)
(0 -0 19.9345)
(0 -0 20.0024)
(0 -0 20.0703)
(0 -0 20.1384)
(0 -0 20.2068)
(0 -0 20.2756)
(0 -0 20.3448)
(0 -0 20.4144)
(0 -0 20.4842)
(0 -0 20.5538)
(0 -0 20.623)
(0 -0 20.6912)
(0 -0 20.7586)
(0 -0 20.8243)
(0 -0 20.8897)
(0 -0 20.9533)
(0 -0 21.0177)
(0 -0 21.0809)
(0 -0 21.1462)
(0 -0 21.2115)
(0 -0 16.5524)
(0 -0 16.5169)
(0 -0 16.5682)
(0 -0 16.6187)
(0 -0 16.6713)
(0 -0 16.7379)
(0 -0 16.812)
(0 -0 16.8828)
(0 -0 16.9486)
(0 -0 17.0135)
(0 -0 17.0808)
(0 -0 17.1512)
(0 -0 17.2242)
(0 -0 17.2987)
(0 -0 17.3729)
(0 -0 17.4451)
(0 -0 17.5136)
(0 -0 17.5776)
(0 -0 17.6369)
(0 -0 17.6922)
(0 -0 17.7446)
(0 -0 17.7952)
(0 -0 17.8454)
(0 -0 17.8962)
(0 -0 17.9484)
(0 -0 18.0025)
(0 -0 18.0586)
(0 -0 18.1165)
(0 -0 18.1758)
(0 -0 18.236)
(0 -0 18.2968)
(0 -0 18.3578)
(0 -0 18.419)
(0 -0 18.4803)
(0 -0 18.542)
(0 -0 18.6041)
(0 -0 18.6666)
(0 -0 18.7294)
(0 -0 18.7924)
(0 -0 18.8551)
(0 -0 18.9172)
(0 -0 18.9782)
(0 -0 19.0382)
(0 -0 19.0964)
(0 -0 19.1539)
(0 -0 19.2096)
(0 -0 19.2659)
(0 -0 19.3207)
(0 -0 19.3778)
(0 -0 19.4342)
(0 -0 15.3076)
(0 -0 15.2763)
(0 -0 15.3176)
(0 -0 15.3593)
(0 -0 15.4017)
(0 -0 15.4558)
(0 -0 15.5173)
(0 -0 15.5772)
(0 -0 15.6327)
(0 -0 15.6874)
(0 -0 15.7448)
(0 -0 15.8059)
(0 -0 15.8702)
(0 -0 15.9364)
(0 -0 16.0025)
(0 -0 16.0667)
(0 -0 16.1273)
(0 -0 16.1834)
(0 -0 16.2348)
(0 -0 16.2823)