/*--------------------------------*- C++ -*----------------------------------*\
  =========                 |
  \\      /  F ield         | OpenFOAM: The Open Source CFD Toolbox
   \\    /   O peration     | Website:  https://openfoam.org
    \\  /    A nd           | Version:  7
     \\/     M anipulation  |
\*---------------------------------------------------------------------------*/
FoamFile
{
    version     2.0;
    format      ascii;
    class       surfaceScalarField;
    location    "0.09";
    object      ddtCorrDdt0(phi);
}
// * * * * * * * * * * * * * * * * * * * * * * * * * * * * * * * * * * * * * //

dimensions      [0 3 -2 0 0 0 0];

internalField   nonuniform List<scalar> 
139350
(
-7.6082e-10
7.60889e-10
-1.75695e-09
9.95186e-10
-2.52368e-09
7.66773e-10
-2.98276e-09
4.58327e-10
-3.2071e-09
2.2397e-10
-3.26655e-09
5.86836e-11
-3.22487e-09
-4.24522e-11
-3.13611e-09
-9.06434e-11
-3.03178e-09
-1.05384e-10
-2.93573e-09
-9.92425e-11
-2.85623e-09
-8.07339e-11
-2.80484e-09
-5.44075e-11
-2.78532e-09
-2.10409e-11
-2.80589e-09
1.87132e-11
-2.87403e-09
6.57825e-11
-2.99331e-09
1.18426e-10
-3.17287e-09
1.76123e-10
-3.40808e-09
2.35344e-10
-3.70621e-09
2.9464e-10
-4.05769e-09
3.52109e-10
-4.46636e-09
4.06269e-10
-4.92297e-09
4.56818e-10
-5.42854e-09
5.03275e-10
-5.9736e-09
5.45288e-10
-6.56245e-09
5.85069e-10
-7.18334e-09
6.22171e-10
-7.84753e-09
6.59833e-10
-8.54591e-09
7.00015e-10
-9.29391e-09
7.44872e-10
-1.00917e-08
7.98521e-10
-1.09589e-08
8.64381e-10
-1.19035e-08
9.45273e-10
-1.29585e-08
1.05051e-09
-1.41386e-08
1.18233e-09
-1.55026e-08
1.35887e-09
-1.70812e-08
1.58147e-09
-1.89736e-08
1.88928e-09
-2.12449e-08
2.27335e-09
-2.40747e-08
2.82876e-09
-2.7582e-08
3.50929e-09
-3.2113e-08
4.52958e-09
-3.78966e-08
5.78878e-09
-4.55863e-08
7.68629e-09
-5.57333e-08
1.0158e-08
-6.95735e-08
1.38364e-08
-8.85297e-08
1.89685e-08
-1.15491e-07
2.69579e-08
-1.55264e-07
3.97784e-08
-2.11167e-07
5.5893e-08
2.07918e-07
-4.19088e-07
-1.12352e-09
1.8845e-09
-2.94527e-09
2.81591e-09
-4.216e-09
2.03753e-09
-4.48697e-09
7.28498e-10
-3.95404e-09
-3.0938e-10
-2.8713e-09
-1.02493e-09
-1.44254e-09
-1.47206e-09
1.67092e-10
-1.70241e-09
1.85175e-09
-1.7912e-09
3.54575e-09
-1.79673e-09
5.21797e-09
-1.7543e-09
6.84138e-09
-1.68102e-09
8.39885e-09
-1.58019e-09
9.86912e-09
-1.45352e-09
1.12332e-08
-1.30093e-09
1.24799e-08
-1.12909e-09
1.35968e-08
-9.44612e-10
1.45918e-08
-7.59447e-10
1.54653e-08
-5.82581e-10
1.62394e-08
-4.21313e-10
1.69254e-08
-2.82297e-10
1.75504e-08
-1.68021e-10
1.81321e-08
-8.0956e-11
1.86994e-08
-2.16753e-11
1.92665e-08
1.38194e-11
1.98638e-08
2.63013e-11
2.0497e-08
2.1996e-11
2.11917e-08
6.99363e-12
2.19479e-08
-1.46266e-11
2.27797e-08
-3.25174e-11
2.36809e-08
-3.99782e-11
2.46556e-08
-2.85812e-11
2.56811e-08
1.99891e-11
2.67481e-08
1.17816e-10
2.78002e-08
3.01294e-10
2.87965e-08
5.88266e-10
2.96226e-08
1.05999e-09
3.01691e-08
1.72897e-09
3.02023e-08
2.79454e-09
2.94908e-08
4.223e-09
2.75416e-08
6.47716e-09
2.38904e-08
9.44589e-09
1.74921e-08
1.40808e-08
7.3086e-09
2.03536e-08
-8.79794e-09
2.9939e-08
-3.39314e-08
4.4115e-08
-7.12358e-08
6.4258e-08
-1.37451e-07
1.05999e-07
-2.29863e-07
1.48294e-07
4.49248e-07
-4.71196e-07
-1.02118e-09
2.90578e-09
-3.12672e-09
4.92036e-09
-4.76787e-09
3.6787e-09
-4.96807e-09
9.27866e-10
-3.72493e-09
-1.55298e-09
-1.39489e-09
-3.35591e-09
1.66178e-09
-4.52964e-09
5.14281e-09
-5.18577e-09
8.83748e-09
-5.48709e-09
1.26123e-08
-5.5753e-09
1.63963e-08
-5.53967e-09
2.01364e-08
-5.42449e-09
2.37962e-08
-5.24184e-09
2.73381e-08
-4.99749e-09
3.07297e-08
-4.69538e-09
3.39508e-08
-4.35104e-09
3.69853e-08
-3.98312e-09
3.98431e-08
-3.61708e-09
4.25322e-08
-3.27556e-09
4.5087e-08
-2.97547e-09
4.75348e-08
-2.73268e-09
4.99211e-08
-2.55421e-09
5.22839e-08
-2.44648e-09
5.46733e-08
-2.41072e-09
5.71251e-08
-2.44242e-09
5.96919e-08
-2.53895e-09
6.24017e-08
-2.69274e-09
6.53038e-08
-2.89326e-09
6.84221e-08
-3.13644e-09
7.17964e-08
-3.40603e-09
7.54476e-08
-3.69457e-09
7.94072e-08
-3.9872e-09
8.36835e-08
-4.26162e-09
8.82952e-08
-4.4912e-09
9.32213e-08
-4.63051e-09
9.84444e-08
-4.63164e-09
1.03893e-07
-4.39143e-09
1.09462e-07
-3.83875e-09
1.14975e-07
-2.71931e-09
1.20163e-07
-9.62762e-10
1.24597e-07
2.04186e-09
1.27706e-07
6.34322e-09
1.28457e-07
1.33259e-08
1.2559e-07
2.32338e-08
1.16918e-07
3.86066e-08
9.81416e-08
6.29048e-08
6.7926e-08
9.44691e-08
1.56563e-09
1.72364e-07
-9.48306e-08
2.44678e-07
6.88118e-07
-3.33704e-07
-8.03084e-10
3.70897e-09
-2.88972e-09
7.00586e-09
-4.92508e-09
5.71407e-09
-5.58257e-09
1.58449e-09
-4.39409e-09
-2.74196e-09
-1.53861e-09
-6.21238e-09
2.57936e-09
-8.64857e-09
7.5347e-09
-1.01436e-08
1.29864e-08
-1.09401e-08
1.86954e-08
-1.12882e-08
2.45167e-08
-1.13625e-08
3.03474e-08
-1.12587e-08
3.61164e-08
-1.10128e-08
4.17605e-08
-1.06437e-08
4.72281e-08
-1.01659e-08
5.24851e-08
-9.60895e-09
5.75071e-08
-9.00929e-09
6.2301e-08
-8.41077e-09
6.68765e-08
-7.8551e-09
7.12748e-08
-7.37307e-09
7.55333e-08
-6.99392e-09
7.97112e-08
-6.73195e-09
8.38617e-08
-6.59979e-09
8.80518e-08
-6.60043e-09
9.2335e-08
-6.73036e-09
9.67832e-08
-6.98548e-09
1.01444e-07
-7.35879e-09
1.06389e-07
-7.83625e-09
1.11665e-07
-8.41608e-09
1.17337e-07
-9.07761e-09
1.23455e-07
-9.81539e-09
1.30077e-07
-1.06086e-08
1.37245e-07
-1.14354e-08
1.4501e-07
-1.22531e-08
1.53389e-07
-1.30151e-08
1.62396e-07
-1.36358e-08
1.7201e-07
-1.40084e-08
1.82152e-07
-1.39789e-08
1.92712e-07
-1.32804e-08
2.03433e-07
-1.16805e-08
2.1397e-07
-8.4969e-09
2.23744e-07
-3.42443e-09
2.31811e-07
5.25521e-09
2.36828e-07
1.82294e-08
2.36852e-07
3.85792e-08
2.26812e-07
7.29582e-08
2.06429e-07
1.14848e-07
1.50207e-07
2.28591e-07
5.63846e-08
3.38488e-07
8.93092e-07
-1.48593e-07
-6.40337e-10
4.34942e-09
-2.55328e-09
8.91763e-09
-4.87693e-09
8.03773e-09
-6.30749e-09
3.01417e-09
-5.96402e-09
-3.08595e-09
-3.62201e-09
-8.55543e-09
5.07581e-10
-1.27792e-08
6.01119e-09
-1.56498e-08
1.24608e-08
-1.73911e-08
1.95026e-08
-1.8334e-08
2.68876e-08
-1.87491e-08
3.44313e-08
-1.8806e-08
4.20024e-08
-1.85859e-08
4.94939e-08
-1.81373e-08
5.68224e-08
-1.74975e-08
6.39314e-08
-1.67189e-08
7.07806e-08
-1.58628e-08
7.73667e-08
-1.49966e-08
8.36931e-08
-1.41856e-08
8.97992e-08
-1.34785e-08
9.57239e-08
-1.29214e-08
1.01531e-07
-1.25391e-08
1.07281e-07
-1.23528e-08
1.1305e-07
-1.23688e-08
1.18901e-07
-1.25863e-08
1.24918e-07
-1.30005e-08
1.31161e-07
-1.36068e-08
1.37715e-07
-1.43893e-08
1.44647e-07
-1.5351e-08
1.52039e-07
-1.6469e-08
1.59963e-07
-1.77426e-08
1.68502e-07
-1.91466e-08
1.77723e-07
-2.06627e-08
1.87705e-07
-2.22319e-08
1.98496e-07
-2.38125e-08
2.1014e-07
-2.5276e-08
2.22653e-07
-2.65254e-08
2.35985e-07
-2.73082e-08
2.50077e-07
-2.73732e-08
2.64693e-07
-2.62942e-08
2.79556e-07
-2.33617e-08
2.94102e-07
-1.79638e-08
3.07483e-07
-8.12962e-09
3.18284e-07
7.44264e-09
3.24858e-07
3.20005e-08
3.21805e-07
7.60255e-08
3.0851e-07
1.28137e-07
2.63442e-07
2.73664e-07
1.72062e-07
4.29854e-07
1.06017e-06
4.97825e-09
-5.764e-10
4.92594e-09
-2.30002e-09
1.064e-08
-4.73055e-09
1.04683e-08
-6.87633e-09
5.15906e-09
-7.7247e-09
-2.23811e-09
-6.67721e-09
-9.604e-09
-3.59233e-09
-1.58651e-08
1.32127e-09
-2.0566e-08
7.6881e-09
-2.37593e-08
1.5109e-08
-2.5759e-08
2.32497e-08
-2.68914e-08
3.18346e-08
-2.73946e-08
4.06519e-08
-2.74053e-08
4.95293e-08
-2.70169e-08
5.83335e-08
-2.63049e-08
6.69709e-08
-2.53573e-08
7.53742e-08
-2.42707e-08
8.35208e-08
-2.31429e-08
9.1399e-08
-2.20681e-08
9.90373e-08
-2.1116e-08
1.06466e-07
-2.03533e-08
1.13745e-07
-1.98176e-08
1.20931e-07
-1.95417e-08
1.281e-07
-1.95371e-08
1.35316e-07
-1.98071e-08
1.42664e-07
-2.03468e-08
1.50207e-07
-2.11554e-08
1.58036e-07
-2.22167e-08
1.66222e-07
-2.35405e-08
1.74859e-07
-2.5105e-08
1.8403e-07
-2.69172e-08
1.93834e-07
-2.89497e-08
2.04357e-07
-3.11912e-08
2.15695e-07
-3.35672e-08
2.27921e-07
-3.60445e-08
2.41097e-07
-3.8449e-08
2.5527e-07
-4.07013e-08
2.70407e-07
-4.24425e-08
2.86482e-07
-4.34501e-08
3.03284e-07
-4.3093e-08
3.20571e-07
-4.06507e-08
3.37797e-07
-3.51827e-08
3.54192e-07
-2.45283e-08
3.68286e-07
-6.63742e-09
3.78583e-07
2.16996e-08
3.79966e-07
7.4656e-08
3.70038e-07
1.3806e-07
3.33592e-07
3.10114e-07
2.45876e-07
5.17557e-07
1.19758e-06
1.08464e-07
-5.83688e-10
5.50976e-09
-2.19735e-09
1.22525e-08
-4.61065e-09
1.28815e-08
-7.20359e-09
7.7511e-09
-9.10737e-09
-3.34873e-10
-9.56539e-09
-9.14708e-09
-8.12635e-09
-1.73052e-08
-4.70081e-09
-2.39943e-08
5.30713e-10
-2.89922e-08
7.25005e-09
-3.24826e-08
1.51225e-08
-3.47655e-08
2.38272e-08
-3.6103e-08
3.30879e-08
-3.66681e-08
4.2665e-08
-3.65963e-08
5.23637e-08
-3.60069e-08
6.20397e-08
-3.50342e-08
7.1586e-08
-3.38214e-08
8.09496e-08
-3.25064e-08
9.00955e-08
-3.12182e-08
9.90323e-08
-3.00521e-08
1.07774e-07
-2.90976e-08
1.16365e-07
-2.84084e-08
1.24851e-07
-2.80312e-08
1.33299e-07
-2.79849e-08
1.41766e-07
-2.82784e-08
1.50328e-07
-2.89073e-08
1.59042e-07
-2.98742e-08
1.6799e-07
-3.11632e-08
1.77237e-07
-3.27918e-08
1.86875e-07
-3.47423e-08
1.96987e-07
-3.70321e-08
2.07674e-07
-3.96362e-08
2.19031e-07
-4.25536e-08
2.31163e-07
-4.56966e-08
2.44156e-07
-4.90439e-08
2.58086e-07
-5.23754e-08
2.73014e-07
-5.56322e-08
2.88922e-07
-5.83483e-08
3.058e-07
-6.03293e-08
3.23456e-07
-6.07461e-08
3.41662e-07
-5.8859e-08
3.59894e-07
-5.3407e-08
3.77418e-07
-4.20561e-08
3.92791e-07
-2.19972e-08
4.04438e-07
1.00496e-08
4.08008e-07
7.10992e-08
3.98936e-07
1.47128e-07
3.67719e-07
3.41335e-07
2.85964e-07
5.99298e-07
1.31117e-06
1.72366e-07
-6.21393e-10
6.13129e-09
-2.21705e-09
1.38469e-08
-4.58964e-09
1.52541e-08
-7.3818e-09
1.05423e-08
-9.97082e-09
2.25359e-09
-1.16608e-08
-7.45824e-09
-1.18657e-08
-1.71013e-08
-1.02607e-08
-2.56021e-08
-6.79355e-09
-3.24608e-08
-1.61153e-09
-3.76689e-08
5.04924e-09
-4.1428e-08
1.29062e-08
-4.39637e-08
2.16788e-08
-4.54429e-08
3.10959e-08
-4.60157e-08
4.09172e-08
-4.58315e-08
5.09497e-08
-4.50677e-08
6.10421e-08
-4.39184e-08
7.11052e-08
-4.25693e-08
8.10742e-08
-4.11914e-08
9.09327e-08
-3.99099e-08
1.00672e-07
-3.88395e-08
1.10315e-07
-3.80518e-08
1.19891e-07
-3.76097e-08
1.29449e-07
-3.75426e-08
1.39032e-07
-3.78667e-08
1.48705e-07
-3.85783e-08
1.58508e-07
-3.96823e-08
1.68507e-07
-4.11611e-08
1.7875e-07
-4.30384e-08
1.8931e-07
-4.53013e-08
2.00254e-07
-4.798e-08
2.11674e-07
-5.10554e-08
2.23657e-07
-5.45416e-08
2.36306e-07
-5.83426e-08
2.49708e-07
-6.24523e-08
2.63944e-07
-6.66081e-08
2.79079e-07
-7.077e-08
2.95106e-07
-7.43731e-08
3.12012e-07
-7.72372e-08
3.29629e-07
-7.83602e-08
3.47719e-07
-7.69505e-08
3.65794e-07
-7.14748e-08
3.83109e-07
-5.93744e-08
3.9834e-07
-3.72143e-08
4.09704e-07
-1.31749e-09
4.13725e-07
6.7091e-08
4.04275e-07
1.56573e-07
3.75817e-07
3.69797e-07
3.01665e-07
6.73436e-07
1.40301e-06
2.09813e-07
-6.60368e-10
6.79179e-09
-2.3022e-09
1.54875e-08
-4.67614e-09
1.76281e-08
-7.53622e-09
1.34015e-08
-1.04681e-08
5.18493e-09
-1.29316e-08
-4.99589e-09
-1.43704e-08
-1.56636e-08
-1.43673e-08
-2.56082e-08
-1.27097e-08
-3.41199e-08
-9.37739e-09
-4.10056e-08
-4.46477e-09
-4.63424e-08
1.84867e-09
-5.02809e-08
9.34546e-09
-5.29419e-08
1.7781e-08
-5.44535e-08
2.69119e-08
-5.49659e-08
3.65234e-08
-5.46802e-08
4.64336e-08
-5.38333e-08
5.65231e-08
-5.26585e-08
6.66999e-08
-5.13726e-08
7.69244e-08
-5.01338e-08
8.71651e-08
-4.90831e-08
9.74239e-08
-4.83105e-08
1.07707e-07
-4.7896e-08
1.18047e-07
-4.78818e-08
1.28469e-07
-4.82942e-08
1.39024e-07
-4.91314e-08
1.49735e-07
-5.03988e-08
1.6065e-07
-5.20739e-08
1.71789e-07
-5.41815e-08
1.83199e-07
-5.67101e-08
1.94917e-07
-5.97016e-08
2.07007e-07
-6.31445e-08
2.19532e-07
-6.70723e-08
2.32578e-07
-7.13864e-08
2.4622e-07
-7.61002e-08
2.60533e-07
-8.0917e-08
2.75571e-07
-8.58112e-08
2.91336e-07
-9.01362e-08
3.07799e-07
-9.37012e-08
3.24815e-07
-9.53737e-08
3.42118e-07
-9.42548e-08
3.59274e-07
-8.86229e-08
3.75495e-07
-7.55999e-08
3.89616e-07
-5.13207e-08
3.99691e-07
-1.13956e-08
4.02944e-07
6.38509e-08
3.92605e-07
1.66907e-07
3.65842e-07
3.96563e-07
3.00343e-07
7.3892e-07
1.47334e-06
2.30002e-07
-6.91671e-10
7.48361e-09
-2.40449e-09
1.7199e-08
-4.8304e-09
2.0054e-08
-7.73611e-09
1.63063e-08
-1.08132e-08
8.26146e-09
-1.3664e-08
-2.14623e-09
-1.5834e-08
-1.34947e-08
-1.69291e-08
-2.4516e-08
-1.669e-08
-3.43604e-08
-1.5002e-08
-4.26981e-08
-1.18456e-08
-4.95007e-08
-7.28952e-09
-5.48408e-08
-1.45675e-09
-5.8777e-08
5.47782e-09
-6.13904e-08
1.33122e-08
-6.28036e-08
2.18467e-08
-6.32158e-08
3.0897e-08
-6.28882e-08
4.03319e-08
-6.20932e-08
5.00462e-08
-6.10912e-08
5.9987e-08
-6.00739e-08
7.01088e-08
-5.92078e-08
8.03976e-08
-5.85992e-08
9.08418e-08
-5.83434e-08
1.01457e-07
-5.84963e-08
1.12254e-07
-5.90967e-08
1.23272e-07
-6.01474e-08
1.34522e-07
-6.16539e-08
1.46035e-07
-6.35852e-08
1.57809e-07
-6.59598e-08
1.69861e-07
-6.87605e-08
1.82189e-07
-7.20338e-08
1.94819e-07
-7.57737e-08
2.07774e-07
-8.0033e-08
2.21107e-07
-8.47166e-08
2.34861e-07
-8.98602e-08
2.49094e-07
-9.51462e-08
2.63836e-07
-1.00556e-07
2.7909e-07
-1.05388e-07
2.94799e-07
-1.09411e-07
3.10841e-07
-1.11413e-07
3.26912e-07
-1.10328e-07
3.42632e-07
-1.04335e-07
3.57186e-07
-9.01577e-08
3.69534e-07
-6.3654e-08
3.77713e-07
-1.95773e-08
3.79442e-07
6.21338e-08
3.68008e-07
1.78337e-07
3.42719e-07
4.21854e-07
2.8737e-07
7.94252e-07
1.52475e-06
2.35957e-07
-7.17629e-10
8.20139e-09
-2.50467e-09
1.89848e-08
-5.01182e-09
2.25612e-08
-7.98449e-09
1.92781e-08
-1.11406e-08
1.1417e-08
-1.41589e-08
8.70887e-10
-1.6678e-08
-1.09767e-08
-1.83775e-08
-2.28195e-08
-1.90257e-08
-3.37138e-08
-1.84921e-08
-4.32362e-08
-1.67097e-08
-5.1285e-08
-1.36765e-08
-5.78778e-08
-9.43591e-09
-6.302e-08
-4.08712e-09
-6.67416e-08
2.22873e-09
-6.91229e-08
9.35302e-09
-7.03412e-08
1.71235e-08
-7.06634e-08
2.5419e-08
-7.03885e-08
3.41381e-08
-6.98146e-08
4.32299e-08
-6.91651e-08
5.26484e-08
-6.86291e-08
6.23749e-08
-6.83256e-08
7.23894e-08
-6.8361e-08
8.26964e-08
-6.88029e-08
9.32983e-08
-6.97038e-08
1.04226e-07
-7.10739e-08
1.15488e-07
-7.29211e-08
1.27109e-07
-7.52037e-08
1.39073e-07
-7.79273e-08
1.51372e-07
-8.1059e-08
1.63973e-07
-8.46385e-08
1.76857e-07
-8.86573e-08
1.9e-07
-9.31815e-08
2.03409e-07
-9.81223e-08
2.17079e-07
-1.03537e-07
2.31038e-07
-1.09102e-07
2.45278e-07
-1.14799e-07
2.59794e-07
-1.19902e-07
2.74489e-07
-1.24107e-07
2.8926e-07
-1.26181e-07
3.03769e-07
-1.24837e-07
3.1767e-07
-1.18228e-07
3.30162e-07
-1.02653e-07
3.40278e-07
-7.37561e-08
3.46184e-07
-2.54863e-08
3.45945e-07
6.23855e-08
3.33506e-07
1.90771e-07
3.09816e-07
4.45546e-07
2.6473e-07
8.39322e-07
1.5571e-06
2.32369e-07
-7.42237e-10
8.94379e-09
-2.60114e-09
2.08424e-08
-5.1999e-09
2.516e-08
-8.26153e-09
2.23388e-08
-1.14942e-08
1.46491e-08
-1.45992e-08
3.97466e-09
-1.7266e-08
-8.31102e-09
-1.92339e-08
-2.08545e-08
-2.03254e-08
-3.26239e-08
-2.04424e-08
-4.31238e-08
-1.95223e-08
-5.2207e-08
-1.75437e-08
-5.98604e-08
-1.451e-08
-6.6056e-08
-1.04701e-08
-7.0784e-08
-5.51395e-09
-7.40826e-08
2.4295e-10
-7.60993e-08
6.66974e-09
-7.70949e-08
1.36664e-08
-7.73851e-08
2.11476e-08
-7.73001e-08
2.90755e-08
-7.70925e-08
3.74155e-08
-7.6972e-08
4.61561e-08
-7.70661e-08
5.52788e-08
-7.74868e-08
6.47857e-08
-7.83094e-08
7.46762e-08
-7.95993e-08
8.49809e-08
-8.1377e-08
9.57106e-08
-8.36558e-08
1.06893e-07
-8.6385e-08
1.18515e-07
-8.95525e-08
1.30557e-07
-9.31006e-08
1.42964e-07
-9.70493e-08
1.55683e-07
-1.01375e-07
1.68641e-07
-1.06145e-07
1.81797e-07
-1.11275e-07
1.95091e-07
-1.16837e-07
2.08509e-07
-1.22517e-07
2.21991e-07
-1.28284e-07
2.35514e-07
-1.33423e-07
2.4894e-07
-1.37533e-07
2.62168e-07
-1.39406e-07
2.74838e-07
-1.37509e-07
2.86619e-07
-1.30001e-07
2.9676e-07
-1.12796e-07
3.04337e-07
-8.13199e-08
3.07729e-07
-2.88806e-08
3.0532e-07
6.48064e-08
2.92034e-07
2.04053e-07
2.70099e-07
4.67482e-07
2.35358e-07
8.74046e-07
1.57154e-06
2.20905e-07
-7.67543e-10
9.7115e-09
-2.6976e-09
2.27712e-08
-5.3901e-09
2.78525e-08
-8.55202e-09
2.54998e-08
-1.18737e-08
1.79702e-08
-1.50519e-08
7.15168e-09
-1.77921e-08
-5.57197e-09
-1.98653e-08
-1.87843e-08
-2.11339e-08
-3.1357e-08
-2.15394e-08
-4.27229e-08
-2.10484e-08
-5.27e-08
-1.96528e-08
-6.12599e-08
-1.73534e-08
-6.83579e-08
-1.41813e-08
-7.39585e-08
-1.02004e-08
-7.8067e-08
-5.49881e-09
-8.0802e-08
-1.83405e-10
-8.24151e-08
5.66521e-09
-8.32337e-08
1.19784e-08
-8.36175e-08
1.87348e-08
-8.38484e-08
2.59157e-08
-8.41556e-08
3.35227e-08
-8.4673e-08
4.15458e-08
-8.55132e-08
4.9991e-08
-8.67542e-08
5.88591e-08
-8.84724e-08
6.81839e-08
-9.07003e-08
7.79838e-08
-9.34607e-08
8.82978e-08
-9.66975e-08
9.91221e-08
-1.0038e-07
1.10443e-07
-1.04421e-07
1.22197e-07
-1.08807e-07
1.34311e-07
-1.13487e-07
1.46675e-07
-1.18515e-07
1.59206e-07
-1.23803e-07
1.71789e-07
-1.29425e-07
1.84363e-07
-1.35088e-07
1.96815e-07
-1.40739e-07
2.09092e-07
-1.45697e-07
2.21013e-07
-1.49455e-07
2.32465e-07
-1.50855e-07
2.43082e-07
-1.48128e-07
2.52526e-07
-1.39436e-07
2.60127e-07
-1.20399e-07
2.64994e-07
-8.61741e-08
2.65758e-07
-2.96455e-08
2.61145e-07
6.94304e-08
2.47179e-07
2.18014e-07
2.27274e-07
4.87387e-07
2.02334e-07
8.98969e-07
1.56988e-06
2.03973e-07
-7.93944e-10
1.05056e-08
-2.79668e-09
2.47727e-08
-5.58411e-09
3.064e-08
-8.85067e-09
2.87655e-08
-1.22706e-08
2.13895e-08
-1.5528e-08
1.04079e-08
-1.83271e-08
-2.77394e-09
-2.04486e-08
-1.66659e-08
-2.17745e-08
-3.00327e-08
-2.22731e-08
-4.2229e-08
-2.19386e-08
-5.30365e-08
-2.07864e-08
-6.24161e-08
-1.88319e-08
-7.03149e-08
-1.61118e-08
-7.66812e-08
-1.26871e-08
-8.14952e-08
-8.63804e-09
-8.48523e-08
-4.06215e-09
-8.69956e-08
9.69244e-10
-8.8265e-08
6.39773e-09
-8.90502e-08
1.22131e-08
-8.96633e-08
1.84096e-08
-9.03549e-08
2.50011e-08
-9.12645e-08
3.19868e-08
-9.2502e-08
3.93782e-08
-9.41453e-08
4.71793e-08
-9.62784e-08
5.54275e-08
-9.89471e-08
6.41491e-08
-1.02187e-07
7.33954e-08
-1.05942e-07
8.31778e-08
-1.10166e-07
9.34953e-08
-1.14738e-07
1.0429e-07
-1.19605e-07
1.15481e-07
-1.24678e-07
1.26939e-07
-1.29979e-07
1.38548e-07
-1.35409e-07
1.50148e-07
-1.41031e-07
1.61636e-07
-1.46573e-07
1.72847e-07
-1.51952e-07
1.83691e-07
-1.56539e-07
1.93952e-07
-1.59717e-07
2.03492e-07
-1.60391e-07
2.11952e-07
-1.56589e-07
2.18973e-07
-1.4645e-07
2.2398e-07
-1.25408e-07
2.26128e-07
-8.83082e-08
2.24299e-07
-2.78181e-08
2.17596e-07
7.61447e-08
2.03178e-07
2.32427e-07
1.85507e-07
5.05057e-07
1.69389e-07
9.1507e-07
1.55439e-06
1.84871e-07
-8.213e-10
1.13271e-08
-2.89973e-09
2.68499e-08
-5.7839e-09
3.35242e-08
-9.15747e-09
3.21382e-08
-1.26803e-08
2.49118e-08
-1.60231e-08
1.37495e-08
-1.8884e-08
8.57952e-11
-2.10426e-08
-1.45103e-08
-2.23873e-08
-2.86898e-08
-2.28987e-08
-4.17222e-08
-2.25883e-08
-5.3349e-08
-2.14897e-08
-6.35188e-08
-1.96353e-08
-7.21718e-08
-1.70753e-08
-7.92437e-08
-1.38798e-08
-8.46944e-08
-1.01343e-08
-8.85991e-08
-5.93904e-09
-9.11956e-08
-1.36624e-09
-9.28379e-08
3.52663e-09
-9.39473e-08
8.7335e-09
-9.48697e-08
1.42542e-08
-9.58784e-08
2.01098e-08
-9.712e-08
2.63061e-08
-9.87014e-08
3.28573e-08
-1.00696e-07
3.97686e-08
-1.03195e-07
4.70794e-08
-1.06257e-07
5.48204e-08
-1.09933e-07
6.30523e-08
-1.14173e-07
7.17999e-08
-1.18917e-07
8.10772e-08
-1.24014e-07
9.08362e-08
-1.29368e-07
1.01001e-07
-1.34841e-07
1.11431e-07
-1.40415e-07
1.21992e-07
-1.45968e-07
1.32492e-07
-1.51536e-07
1.42794e-07
-1.56872e-07
1.52691e-07
-1.61852e-07
1.62058e-07
-1.65904e-07
1.7065e-07
-1.68309e-07
1.78297e-07
-1.68035e-07
1.84655e-07
-1.62949e-07
1.89346e-07
-1.51134e-07
1.91884e-07
-1.27948e-07
1.91493e-07
-8.79036e-08
1.87291e-07
-2.36173e-08
1.7878e-07
8.46669e-08
1.64205e-07
2.46996e-07
1.48908e-07
5.20353e-07
1.40482e-07
9.23478e-07
1.52758e-06
1.67269e-07
-8.49502e-10
1.21768e-08
-3.00628e-09
2.90054e-08
-5.99033e-09
3.65083e-08
-9.47343e-09
3.56204e-08
-1.31022e-08
2.854e-08
-1.6534e-08
1.71801e-08
-1.94603e-08
3.01092e-09
-2.16573e-08
-1.23164e-08
-2.30133e-08
-2.73356e-08
-2.35134e-08
-4.12267e-08
-2.31773e-08
-5.36873e-08
-2.20486e-08
-6.46514e-08
-2.0172e-08
-7.40511e-08
-1.76095e-08
-8.18087e-08
-1.44428e-08
-8.78647e-08
-1.07674e-08
-9.22758e-08
-6.69163e-09
-9.5276e-08
-2.29429e-09
-9.72354e-08
2.36329e-09
-9.8609e-08
7.27263e-09
-9.97787e-08
1.24345e-08
-1.01043e-07
1.78706e-08
-1.02556e-07
2.35874e-08
-1.04421e-07
2.95993e-08
-1.06708e-07
3.59107e-08
-1.09511e-07
4.25588e-08
-1.12903e-07
4.95756e-08
-1.16955e-07
5.70266e-08
-1.21622e-07
6.49446e-08
-1.26838e-07
7.33539e-08
-1.32423e-07
8.22165e-08
-1.38234e-07
9.14626e-08
-1.44087e-07
1.0095e-07
-1.49907e-07
1.10535e-07
-1.5555e-07
1.20006e-07
-1.61012e-07
1.292e-07
-1.66064e-07
1.37883e-07
-1.70536e-07
1.45896e-07
-1.73915e-07
1.52978e-07
-1.75392e-07
1.58926e-07
-1.73979e-07
1.63417e-07
-1.67441e-07
1.6606e-07
-1.53769e-07
1.66447e-07
-1.28336e-07
1.63894e-07
-8.53374e-08
1.57731e-07
-1.74549e-08
1.47865e-07
9.45435e-08
1.33518e-07
2.61337e-07
1.20743e-07
5.33125e-07
1.18913e-07
9.2529e-07
1.49198e-06
1.54499e-07
-8.78539e-10
1.30556e-08
-3.11607e-09
3.12417e-08
-6.20359e-09
3.95959e-08
-9.79916e-09
3.92152e-08
-1.35369e-08
3.22772e-08
-1.706e-08
2.07019e-08
-2.00537e-08
6.00346e-09
-2.22908e-08
-1.00823e-08
-2.3658e-08
-2.59702e-08
-2.41419e-08
-4.07474e-08
-2.37656e-08
-5.4066e-08
-2.25775e-08
-6.58436e-08
-2.06289e-08
-7.60023e-08
-1.79903e-08
-8.44499e-08
-1.47526e-08
-9.1106e-08
-1.10208e-08
-9.6009e-08
-6.91164e-09
-9.93897e-08
-2.51118e-09
-1.01636e-07
2.11399e-09
-1.03238e-07
6.95133e-09
-1.04616e-07
1.19987e-08
-1.06093e-07
1.72758e-08
-1.07833e-07
2.2787e-08
-1.09936e-07
2.85439e-08
-1.12464e-07
3.45477e-08
-1.15519e-07
4.0833e-08
-1.19187e-07
4.74296e-08
-1.23556e-07
5.44021e-08
-1.28594e-07
6.17866e-08
-1.34226e-07
6.96123e-08
-1.40248e-07
7.78468e-08
-1.46472e-07
8.64236e-08
-1.52662e-07
9.52011e-08
-1.5869e-07
1.04031e-07
-1.64378e-07
1.12692e-07
-1.69678e-07
1.21003e-07
-1.74372e-07
1.28713e-07
-1.78248e-07
1.35638e-07
-1.80837e-07
1.41509e-07
-1.81263e-07
1.46098e-07
-1.78565e-07
1.49103e-07
-1.70446e-07
1.50131e-07
-1.54789e-07
1.4884e-07
-1.27045e-07
1.44658e-07
-8.11428e-08
1.37103e-07
-9.90002e-09
1.26473e-07
1.05183e-07
1.12838e-07
2.74966e-07
1.0278e-07
5.4318e-07
1.06624e-07
9.21427e-07
1.44972e-06
1.48862e-07
-9.08442e-10
1.39642e-08
-3.22907e-09
3.35612e-08
-6.42374e-09
4.27907e-08
-1.01349e-08
4.29255e-08
-1.39846e-08
3.61263e-08
-1.76013e-08
2.43174e-08
-2.06636e-08
9.06465e-09
-2.29416e-08
-7.80746e-09
-2.43202e-08
-2.45935e-08
-2.47867e-08
-4.02855e-08
-2.43662e-08
-5.4489e-08
-2.31095e-08
-6.71043e-08
-2.10717e-08
-7.80428e-08
-1.83287e-08
-8.71955e-08
-1.49782e-08
-9.44601e-08
-1.11328e-08
-9.98559e-08
-6.91596e-09
-1.03611e-07
-2.41938e-09
-1.06133e-07
2.28636e-09
-1.07948e-07
7.18527e-09
-1.09514e-07
1.22724e-08
-1.11183e-07
1.75641e-08
-1.13125e-07
2.30618e-08
-1.15436e-07
2.87737e-08
-1.18176e-07
3.46979e-08
-1.21448e-07
4.08655e-08
-1.25354e-07
4.73041e-08
-1.29999e-07
5.40759e-08
-1.35364e-07
6.12159e-08
-1.41369e-07
6.8753e-08
-1.47785e-07
7.66549e-08
-1.54377e-07
8.48563e-08
-1.60863e-07
9.32142e-08
-1.67053e-07
1.01576e-07
-1.72737e-07
1.09714e-07
-1.7782e-07
1.17437e-07
-1.82094e-07
1.24487e-07
-1.853e-07
1.30661e-07
-1.8701e-07
1.35692e-07
-1.86294e-07
1.39332e-07
-1.82201e-07
1.41303e-07
-1.72419e-07
1.41225e-07
-1.54704e-07
1.3881e-07
-1.2463e-07
1.33612e-07
-7.59326e-08
1.25317e-07
-1.60517e-09
1.1459e-07
1.15919e-07
1.02213e-07
2.87337e-07
9.51188e-08
5.5027e-07
1.03973e-07
9.12554e-07
1.40246e-06
1.5122e-07
-9.3925e-10
1.49037e-08
-3.3453e-09
3.59661e-08
-6.65082e-09
4.60963e-08
-1.04808e-08
4.67547e-08
-1.44457e-08
4.00907e-08
-1.81583e-08
2.80289e-08
-2.12905e-08
1.21956e-08
-2.36096e-08
-5.49149e-09
-2.49991e-08
-2.32059e-08
-2.54469e-08
-3.98423e-08
-2.49798e-08
-5.49585e-08
-2.36505e-08
-6.84376e-08
-2.15168e-08
-8.01793e-08
-1.86586e-08
-9.00564e-08
-1.51792e-08
-9.79431e-08
-1.11973e-08
-1.03839e-07
-6.84149e-09
-1.07971e-07
-2.2073e-09
-1.10767e-07
2.63253e-09
-1.12792e-07
7.66009e-09
-1.14542e-07
1.28687e-08
-1.16394e-07
1.8272e-08
-1.18528e-07
2.38688e-08
-1.21036e-07
2.96645e-08
-1.23972e-07
3.56554e-08
-1.27444e-07
4.18705e-08
-1.31568e-07
4.83358e-08
-1.36468e-07
5.51113e-08
-1.42139e-07
6.22294e-08
-1.4849e-07
6.97161e-08
-1.55271e-07
7.7536e-08
-1.622e-07
8.56202e-08
-1.68946e-07
9.38228e-08
-1.7526e-07
1.01987e-07
-1.80899e-07
1.09882e-07
-1.8572e-07
1.17309e-07
-1.89518e-07
1.24007e-07
-1.92001e-07
1.29765e-07
-1.92764e-07
1.3432e-07
-1.90849e-07
1.37417e-07
-1.85294e-07
1.38802e-07
-1.73804e-07
1.38117e-07
-1.54011e-07
1.35122e-07
-1.21635e-07
1.29509e-07
-7.03073e-08
1.2112e-07
6.78431e-09
1.10951e-07
1.26097e-07
1.00372e-07
2.97909e-07
9.65093e-08
5.54128e-07
1.09942e-07
8.99102e-07
1.35134e-06
1.61043e-07
-9.71e-10
1.5875e-08
-3.46476e-09
3.84588e-08
-6.88489e-09
4.95166e-08
-1.08369e-08
5.0706e-08
-1.49204e-08
4.41737e-08
-1.87315e-08
3.18389e-08
-2.19347e-08
1.53976e-08
-2.42951e-08
-3.13418e-09
-2.56948e-08
-2.18082e-08
-2.61222e-08
-3.94195e-08
-2.56062e-08
-5.54771e-08
-2.42009e-08
-6.98469e-08
-2.19668e-08
-8.24163e-08
-1.89876e-08
-9.30382e-08
-1.53718e-08
-1.01562e-07
-1.12435e-08
-1.07969e-07
-6.7357e-09
-1.12484e-07
-1.94656e-09
-1.15557e-07
3.05041e-09
-1.17792e-07
8.23665e-09
-1.19728e-07
1.36048e-08
-1.21764e-07
1.9167e-08
-1.2409e-07
2.49199e-08
-1.26792e-07
3.08675e-08
-1.29919e-07
3.70054e-08
-1.33586e-07
4.33624e-08
-1.37924e-07
4.99648e-08
-1.43075e-07
5.68711e-08
-1.49044e-07
6.41118e-08
-1.55733e-07
7.17088e-08
-1.62868e-07
7.9622e-08
-1.70117e-07
8.77771e-08
-1.77101e-07
9.60238e-08
-1.83512e-07
1.04199e-07
-1.89073e-07
1.12072e-07
-1.93597e-07
1.19437e-07
-1.96881e-07
1.26038e-07
-1.98603e-07
1.31653e-07
-1.98378e-07
1.36036e-07
-1.95232e-07
1.38929e-07
-1.88184e-07
1.40102e-07
-1.74977e-07
1.39236e-07
-1.53137e-07
1.36133e-07
-1.18532e-07
1.30626e-07
-6.47883e-08
1.2271e-07
1.47013e-08
1.1367e-07
1.35144e-07
1.0536e-07
3.06212e-07
1.04957e-07
5.54525e-07
1.22692e-07
8.81347e-07
1.29713e-06
1.76884e-07
-1.00373e-09
1.6879e-08
-3.58747e-09
4.10415e-08
-7.12599e-09
5.30553e-08
-1.12035e-08
5.47828e-08
-1.54088e-08
4.83784e-08
-1.9321e-08
3.575e-08
-2.25966e-08
1.8672e-08
-2.49987e-08
-7.35223e-10
-2.64079e-08
-2.0401e-08
-2.68132e-08
-3.90188e-08
-2.62454e-08
-5.60475e-08
-2.47607e-08
-7.13356e-08
-2.2422e-08
-8.47579e-08
-1.93169e-08
-9.6146e-08
-1.55591e-08
-1.05324e-07
-1.12785e-08
-1.12251e-07
-6.61162e-09
-1.17155e-07
-1.65907e-09
-1.2051e-07
3.50572e-09
-1.22961e-07
8.86428e-09
-1.25086e-07
1.44094e-08
-1.27312e-07
2.0152e-08
-1.29833e-07
2.60876e-08
-1.3273e-07
3.22196e-08
-1.36051e-07
3.8544e-08
-1.39915e-07
4.5091e-08
-1.4447e-07
5.18886e-08
-1.49876e-07
5.89952e-08
-1.5615e-07
6.64404e-08
-1.63181e-07
7.42419e-08
-1.70669e-07
8.23548e-08
-1.78233e-07
9.06986e-08
-1.85444e-07
9.91178e-08
-1.91935e-07
1.07444e-07
-1.97397e-07
1.15445e-07
-2.01601e-07
1.2291e-07
-2.04345e-07
1.2959e-07
-2.05284e-07
1.35262e-07
-2.04047e-07
1.39691e-07
-1.99661e-07
1.42631e-07
-1.91119e-07
1.43874e-07
-1.76221e-07
1.43149e-07
-1.52404e-07
1.40302e-07
-1.15685e-07
1.35307e-07
-5.97816e-08
1.28312e-07
2.16967e-08
1.20854e-07
1.42609e-07
1.15176e-07
3.11882e-07
1.18394e-07
5.51301e-07
1.40221e-07
8.595e-07
1.24034e-06
1.96982e-07
-1.03747e-09
1.79167e-08
-3.71343e-09
4.37165e-08
-7.37416e-09
5.67163e-08
-1.15806e-08
5.89886e-08
-1.59109e-08
5.27084e-08
-1.99271e-08
3.9765e-08
-2.32766e-08
2.20203e-08
-2.57206e-08
1.70577e-09
-2.71388e-08
-1.8985e-08
-2.75203e-08
-3.86418e-08
-2.68982e-08
-5.66723e-08
-2.53304e-08
-7.29074e-08
-2.28828e-08
-8.72084e-08
-1.96469e-08
-9.93846e-08
-1.57421e-08
-1.09232e-07
-1.13037e-08
-1.16691e-07
-6.47226e-09
-1.21991e-07
-1.35034e-09
-1.25632e-07
3.98901e-09
-1.28304e-07
9.52776e-09
-1.30625e-07
1.52591e-08
-1.33045e-07
2.11931e-08
-1.35767e-07
2.73247e-08
-1.38864e-07
3.36568e-08
-1.42383e-07
4.0187e-08
-1.46449e-07
4.69475e-08
-1.5123e-07
5.39693e-08
-1.56902e-07
6.13119e-08
-1.63491e-07
6.90043e-08
-1.70876e-07
7.70609e-08
-1.78725e-07
8.54321e-08
-1.86607e-07
9.40308e-08
-1.94041e-07
1.02697e-07
-2.00606e-07
1.11255e-07
-2.05954e-07
1.19474e-07
-2.09824e-07
1.27141e-07
-2.12009e-07
1.34012e-07
-2.12157e-07
1.39867e-07
-2.099e-07
1.44487e-07
-2.04282e-07
1.47641e-07
-1.94269e-07
1.49147e-07
-1.77726e-07
1.48786e-07
-1.52035e-07
1.46456e-07
-1.13354e-07
1.42265e-07
-5.55796e-08
1.36519e-07
2.74438e-08
1.30963e-07
1.48172e-07
1.28154e-07
3.14682e-07
1.3505e-07
5.44399e-07
1.6076e-07
8.33769e-07
1.18138e-06
2.19707e-07
-1.07227e-09
1.89893e-08
-3.84268e-09
4.6486e-08
-7.62937e-09
6.05032e-08
-1.19683e-08
6.33269e-08
-1.64269e-08
5.71665e-08
-2.05501e-08
4.38871e-08
-2.39751e-08
2.54442e-08
-2.64615e-08
4.18921e-09
-2.78882e-08
-1.75605e-08
-2.82443e-08
-3.82902e-08
-2.75651e-08
-5.73543e-08
-2.59108e-08
-7.45656e-08
-2.335e-08
-8.97722e-08
-1.99786e-08
-1.02759e-07
-1.59216e-08
-1.13293e-07
-1.13201e-08
-1.21295e-07
-6.3187e-09
-1.26996e-07
-1.02188e-09
-1.3093e-07
4.49787e-09
-1.33827e-07
1.02231e-08
-1.3635e-07
1.61475e-08
-1.38972e-07
2.22804e-08
-1.419e-07
2.86162e-08
-1.45203e-07
3.51578e-08
-1.48924e-07
4.19048e-08
-1.532e-07
4.8892e-08
-1.58216e-07
5.61539e-08
-1.64167e-07
6.37516e-08
-1.71088e-07
7.17144e-08
-1.78841e-07
8.00534e-08
-1.87063e-07
8.87146e-08
-1.95271e-07
9.76044e-08
-2.0293e-07
1.06558e-07
-2.09563e-07
1.15395e-07
-2.14789e-07
1.23883e-07
-2.18316e-07
1.31809e-07
-2.19933e-07
1.38937e-07
-2.19286e-07
1.45053e-07
-2.16013e-07
1.49954e-07
-2.09184e-07
1.53429e-07
-1.97739e-07
1.55323e-07
-1.7962e-07
1.55477e-07
-1.52181e-07
1.53843e-07
-1.11718e-07
1.50658e-07
-5.23842e-08
1.46386e-07
3.17167e-08
1.42943e-07
1.51621e-07
1.43129e-07
3.14488e-07
1.53668e-07
5.33852e-07
1.8302e-07
8.04397e-07
1.12056e-06
2.43822e-07
-1.10816e-09
2.00978e-08
-3.97521e-09
4.93523e-08
-7.89162e-09
6.44199e-08
-1.23668e-08
6.78015e-08
-1.69568e-08
6.17562e-08
-2.119e-08
4.81192e-08
-2.46923e-08
2.89454e-08
-2.72218e-08
6.7156e-09
-2.86565e-08
-1.6128e-08
-2.89858e-08
-3.79653e-08
-2.8247e-08
-5.80959e-08
-2.65027e-08
-7.63139e-08
-2.38245e-08
-9.24533e-08
-2.03128e-08
-1.06273e-07
-1.60984e-08
-1.1751e-07
-1.13287e-08
-1.26066e-07
-6.15193e-09
-1.32177e-07
-6.74703e-10
-1.36408e-07
5.03115e-09
-1.39536e-07
1.09487e-08
-1.42267e-07
1.70725e-08
-1.45098e-07
2.34108e-08
-1.48238e-07
2.99577e-08
-1.51752e-07
3.67162e-08
-1.55682e-07
4.36883e-08
-1.60176e-07
5.09116e-08
-1.65439e-07
5.84246e-08
-1.71684e-07
6.62902e-08
-1.78953e-07
7.45382e-08
-1.87092e-07
8.31766e-08
-1.95701e-07
9.2147e-08