/*--------------------------------*- C++ -*----------------------------------*\
  =========                 |
  \\      /  F ield         | OpenFOAM: The Open Source CFD Toolbox
   \\    /   O peration     | Website:  https://openfoam.org
    \\  /    A nd           | Version:  7
     \\/     M anipulation  |
\*---------------------------------------------------------------------------*/
FoamFile
{
    version     2.0;
    format      ascii;
    class       volVectorField;
    location    "0.09";
    object      ddtCorrDdt0(U);
}
// * * * * * * * * * * * * * * * * * * * * * * * * * * * * * * * * * * * * * //

dimensions      [0 1 -2 0 0 0 0];

internalField   nonuniform List<vector> 
70000
(
(-0.00153214 9.57585e-05 0)
(-0.00819986 0.00011577 0)
(-0.0143062 0.000108084 0)
(-0.0180455 9.85462e-05 0)
(-0.0200623 9.1901e-05 0)
(-0.0208766 8.60939e-05 0)
(-0.0208446 8.33773e-05 0)
(-0.0203668 8.27288e-05 0)
(-0.0197188 8.35992e-05 0)
(-0.0190621 8.60735e-05 0)
(-0.0184908 8.96301e-05 0)
(-0.0180633 9.37626e-05 0)
(-0.0178268 9.84434e-05 0)
(-0.0178203 0.000103623 0)
(-0.0180956 0.000109609 0)
(-0.0186899 0.00011637 0)
(-0.0196435 0.000124205 0)
(-0.020972 0.000132788 0)
(-0.0226827 0.000142399 0)
(-0.024767 0.000152801 0)
(-0.0272067 0.000164126 0)
(-0.0299829 0.000176383 0)
(-0.0330695 0.000189651 0)
(-0.0364381 0.000203852 0)
(-0.0400724 0.00021955 0)
(-0.0439479 0.000236453 0)
(-0.0480634 0.000255489 0)
(-0.0524244 0.000276783 0)
(-0.0570544 0.000301114 0)
(-0.0619967 0.000329193 0)
(-0.0673244 0.000362085 0)
(-0.0731107 0.000400244 0)
(-0.0795076 0.000446441 0)
(-0.0866274 0.000500105 0)
(-0.0947689 0.000567169 0)
(-0.104103 0.000645025 0)
(-0.115225 0.000746703 0)
(-0.12835 0.000862854 0)
(-0.144739 0.0010253 0)
(-0.164553 0.00120532 0)
(-0.190462 0.00147516 0)
(-0.222482 0.00177572 0)
(-0.265859 0.00223244 0)
(-0.321136 0.00278511 0)
(-0.397831 0.00362105 0)
(-0.498329 0.00462063 0)
(-0.649506 0.00681977 0)
(-0.8234 0.0080136 0)
(-1.25601 0.0125988 0)
(-1.22368 0.0635159 0)
(-0.00135392 0.000449228 0)
(-0.0125992 0.000656772 0)
(-0.0238847 0.000487309 0)
(-0.0284712 0.000246021 0)
(-0.0271617 6.3445e-05 0)
(-0.0218481 -6.26364e-05 0)
(-0.0137951 -0.000141557 0)
(-0.00418362 -0.000180358 0)
(0.00612879 -0.000193375 0)
(0.0166503 -0.000190642 0)
(0.0271121 -0.000178142 0)
(0.0373496 -0.000158801 0)
(0.047232 -0.000133004 0)
(0.0566386 -0.000100963 0)
(0.0654397 -6.19821e-05 0)
(0.0735364 -1.723e-05 0)
(0.0808559 3.24671e-05 0)
(0.0873822 8.4418e-05 0)
(0.0931427 0.000136853 0)
(0.0982113 0.000188143 0)
(0.102691 0.00023668 0)
(0.106707 0.000281937 0)
(0.110395 0.00032322 0)
(0.113906 0.000360233 0)
(0.11737 0.000394364 0)
(0.120929 0.000425649 0)
(0.124692 0.000456447 0)
(0.12876 0.000488942 0)
(0.133203 0.000525051 0)
(0.138082 0.000568955 0)
(0.143394 0.000624069 0)
(0.149173 0.000694161 0)
(0.155301 0.000788119 0)
(0.161791 0.000911078 0)
(0.168256 0.0010808 0)
(0.174714 0.00130444 0)
(0.180178 0.00162161 0)
(0.184814 0.00203561 0)
(0.186205 0.00264364 0)
(0.185134 0.00342511 0)
(0.176 0.00460454 0)
(0.160944 0.00612729 0)
(0.128417 0.00843506 0)
(0.0811689 0.0115514 0)
(-0.00145778 0.0161984 0)
(-0.118902 0.0230567 0)
(-0.327135 0.0328839 0)
(-0.554086 0.0521842 0)
(-1.28407 0.0704419 0)
(-1.26095 0.238972 0)
(-0.000485386 0.000871072 0)
(-0.0118415 0.00140614 0)
(-0.0256901 0.00101608 0)
(-0.0317246 0.000272781 0)
(-0.0280559 -0.000355399 0)
(-0.0167836 -0.000795449 0)
(-0.00011538 -0.00108042 0)
(0.0199062 -0.0012376 0)
(0.0416988 -0.00130992 0)
(0.0642719 -0.00133286 0)
(0.0870641 -0.0013267 0)
(0.109733 -0.00130027 0)
(0.132025 -0.00125504 0)
(0.153716 -0.00119154 0)
(0.17459 -0.00110958 0)
(0.194481 -0.00101301 0)
(0.213278 -0.000906479 0)
(0.230963 -0.000797622 0)
(0.24759 -0.000693059 0)
(0.263292 -0.000598216 0)
(0.278256 -0.000518356 0)
(0.292708 -0.000456143 0)
(0.306898 -0.000414232 0)
(0.321097 -0.000393789 0)
(0.335561 -0.000393415 0)
(0.350559 -0.000413057 0)
(0.366329 -0.000449694 0)
(0.38311 -0.000499646 0)
(0.401107 -0.000560888 0)
(0.420535 -0.000626546 0)
(0.441539 -0.000692466 0)
(0.464335 -0.000751945 0)
(0.488949 -0.000792469 0)
(0.515631 -0.0008021 0)
(0.544098 -0.000754256 0)
(0.57471 -0.000627678 0)
(0.606434 -0.000360844 0)
(0.640037 7.55479e-05 0)
(0.672607 0.000834474 0)
(0.706179 0.00193639 0)
(0.733538 0.00374641 0)
(0.759383 0.00626962 0)
(0.768527 0.0103039 0)
(0.767793 0.0159909 0)
(0.730382 0.0247848 0)
(0.662646 0.0384878 0)
(0.490647 0.0568498 0)
(0.326117 0.0957938 0)
(-0.435578 0.14359 0)
(-0.359273 0.411319 0)
(4.95354e-05 0.00121118 0)
(-0.00948208 0.00219521 0)
(-0.0241497 0.00172027 0)
(-0.033363 0.000419213 0)
(-0.0317956 -0.000873194 0)
(-0.0195245 -0.00187287 0)
(0.00141827 -0.0025652 0)
(0.0284276 -0.00298686 0)
(0.059163 -0.00321517 0)
(0.0919487 -0.00332447 0)
(0.125724 -0.00336256 0)
(0.159809 -0.003353 0)
(0.193721 -0.00330202 0)
(0.227075 -0.00321202 0)
(0.259531 -0.00308476 0)
(0.290833 -0.0029283 0)
(0.320807 -0.0027536 0)
(0.349405 -0.00257545 0)
(0.376673 -0.00240827 0)
(0.402769 -0.00226343 0)
(0.427922 -0.00215223 0)
(0.452423 -0.00208099 0)
(0.4766 -0.0020558 0)
(0.500811 -0.00207949 0)
(0.525403 -0.00215191 0)
(0.550749 -0.00227332 0)
(0.577188 -0.00244164 0)
(0.605077 -0.00265227 0)
(0.634742 -0.00290494 0)
(0.66654 -0.00319112 0)
(0.700756 -0.00350816 0)
(0.737779 -0.00384706 0)
(0.777789 -0.00419543 0)
(0.821253 -0.00453357 0)
(0.86804 -0.00483271 0)
(0.918813 -0.00505207 0)
(0.972615 -0.00512213 0)
(1.03074 -0.0049698 0)
(1.09009 -0.00441847 0)
(1.15374 -0.0033602 0)
(1.21364 -0.00135252 0)
(1.27648 0.00175514 0)
(1.32523 0.00704065 0)
(1.36982 0.0148813 0)
(1.38015 0.0273753 0)
(1.3688 0.0479504 0)
(1.24918 0.0745422 0)
(1.15884 0.13921 0)
(0.480946 0.21074 0)
(0.531214 0.574243 0)
(8.3237e-05 0.00146225 0)
(-0.00740208 0.00293721 0)
(-0.0214179 0.00255405 0)
(-0.033811 0.000821889 0)
(-0.0375777 -0.00119097 0)
(-0.0299501 -0.00293935 0)
(-0.0111778 -0.00426447 0)
(0.0166826 -0.0051554 0)
(0.0510282 -0.00569937 0)
(0.0895835 -0.00600852 0)
(0.130671 -0.00616747 0)
(0.173103 -0.00622477 0)
(0.216017 -0.00619933 0)
(0.258749 -0.0061006 0)
(0.300762 -0.00593561 0)
(0.341659 -0.00571897 0)
(0.381164 -0.00547017 0)
(0.419158 -0.00521312 0)
(0.45564 -0.00497217 0)
(0.490741 -0.00476665 0)
(0.524683 -0.00461589 0)
(0.557766 -0.00453143 0)
(0.590343 -0.00452423 0)
(0.622807 -0.00459973 0)
(0.65555 -0.00476014 0)
(0.688993 -0.00500674 0)
(0.723534 -0.00533982 0)
(0.759595 -0.00575494 0)
(0.797584 -0.00625532 0)
(0.837947 -0.00683228 0)
(0.88108 -0.00748671 0)
(0.927492 -0.00820841 0)
(0.977489 -0.00898805 0)
(1.0317 -0.00979836 0)
(1.09012 -0.0106135 0)
(1.15363 -0.0113702 0)
(1.22137 -0.0120022 0)
(1.29501 -0.012381 0)
(1.37139 -0.0123316 0)
(1.45428 -0.0116296 0)
(1.53528 -0.00979971 0)
(1.62226 -0.00649694 0)
(1.69748 -0.000436803 0)
(1.77278 0.0091314 0)
(1.81627 0.02459 0)
(1.84548 0.051911 0)
(1.76896 0.0853992 0)
(1.7221 0.178566 0)
(1.1699 0.276097 0)
(1.12437 0.707031 0)
(-0.000122304 0.00167703 0)
(-0.00628765 0.00360136 0)
(-0.0189019 0.00345142 0)
(-0.0330656 0.00151495 0)
(-0.0424049 -0.00109298 0)
(-0.04239 -0.00362788 0)
(-0.0310008 -0.00574432 0)
(-0.00862776 -0.00731518 0)
(0.0228552 -0.00838144 0)
(0.0611709 -0.00906399 0)
(0.104269 -0.0094773 0)
(0.150482 -0.0096987 0)
(0.198489 -0.0097669 0)
(0.247246 -0.00970543 0)
(0.295917 -0.00953233 0)
(0.343879 -0.00927301 0)
(0.390695 -0.00895867 0)
(0.436125 -0.00862441 0)
(0.480078 -0.00830629 0)
(0.522607 -0.008033 0)
(0.563879 -0.00783349 0)
(0.604146 -0.00772596 0)
(0.643732 -0.00772749 0)
(0.683011 -0.00784703 0)
(0.722363 -0.00809005 0)
(0.762204 -0.00845941 0)
(0.802933 -0.00895885 0)
(0.844976 -0.00958523 0)
(0.888761 -0.0103468 0)
(0.934762 -0.0112366 0)
(0.983426 -0.0122609 0)
(1.03532 -0.0134098 0)
(1.09084 -0.0146792 0)
(1.1507 -0.0160348 0)
(1.21499 -0.0174571 0)
(1.28473 -0.0188587 0)
(1.35915 -0.0201839 0)
(1.4401 -0.0212422 0)
(1.52448 -0.021874 0)
(1.61638 -0.021727 0)
(1.70744 -0.0203118 0)
(1.80591 -0.017071 0)
(1.89422 -0.0105603 0)
(1.98487 0.000449551 0)
(2.04578 0.0183804 0)
(2.09591 0.0519986 0)
(2.04961 0.0927386 0)
(2.01376 0.206617 0)
(1.58521 0.339181 0)
(1.44413 0.815092 0)
(-0.000327497 0.00188466 0)
(-0.00599266 0.00420291 0)
(-0.0173576 0.00435145 0)
(-0.0317925 0.00242606 0)
(-0.0448893 -0.000543869 0)
(-0.0520563 -0.00373529 0)
(-0.0498437 -0.00665534 0)
(-0.0368268 -0.0090306 0)
(-0.0134493 -0.0108029 0)
(0.0187852 -0.0120547 0)
(0.0580494 -0.0129017 0)
(0.102562 -0.0134377 0)
(0.150723 -0.0137189 0)
(0.201153 -0.0137857 0)
(0.252688 -0.0136718 0)
(0.304425 -0.0134189 0)
(0.355696 -0.0130743 0)
(0.406088 -0.0126877 0)
(0.455372 -0.0123088 0)
(0.503489 -0.011977 0)
(0.550501 -0.0117318 0)
(0.596573 -0.0115993 0)
(0.641948 -0.0116037 0)
(0.686935 -0.0117583 0)
(0.731859 -0.0120725 0)
(0.777084 -0.0125509 0)
(0.822957 -0.0132007 0)
(0.869851 -0.0140209 0)
(0.918144 -0.0150258 0)
(0.968267 -0.016212 0)
(1.02065 -0.0175928 0)
(1.07584 -0.0191608 0)
(1.13427 -0.020919 0)
(1.19666 -0.0228276 0)
(1.26317 -0.0248753 0)
(1.33486 -0.02695 0)
(1.41104 -0.02901 0)
(1.49363 -0.0308011 0)
(1.57964 -0.0321826 0)
(1.67318 -0.0326748 0)
(1.76624 -0.0317761 0)
(1.86681 -0.0287131 0)
(1.95821 -0.0219139 0)
(2.05231 -0.00961234 0)
(2.1191 0.0106089 0)
(2.17422 0.049899 0)
(2.14739 0.0987803 0)
(2.10465 0.229516 0)
(1.77464 0.398872 0)
(1.57763 0.903916 0)
(-0.000429296 0.00209962 0)
(-0.00611233 0.00478054 0)
(-0.0167362 0.00523456 0)
(-0.0307375 0.00344933 0)
(-0.0454896 0.000341535 0)
(-0.057455 -0.0032869 0)
(-0.0630052 -0.00687687 0)
(-0.0596519 -0.0100362 0)
(-0.0465022 -0.0125918 0)
(-0.0239328 -0.0145521 0)
(0.00697156 -0.0159991 0)
(0.044815 -0.0170181 0)
(0.088111 -0.0176676 0)
(0.135411 -0.017997 0)
(0.185373 -0.0180537 0)
(0.236862 -0.0178968 0)
(0.288985 -0.0175939 0)
(0.341131 -0.0172128 0)
(0.39291 -0.0168197 0)
(0.444127 -0.0164661 0)
(0.494722 -0.016203 0)
(0.54474 -0.0160648 0)
(0.594315 -0.0160841 0)
(0.643658 -0.0162797 0)
(0.693011 -0.0166649 0)
(0.742658 -0.0172458 0)
(0.792866 -0.0180329 0)
(0.843913 -0.0190262 0)
(0.896077 -0.0202458 0)
(0.949679 -0.0216927 0)
(1.00505 -0.0233893 0)
(1.06266 -0.0253324 0)
(1.12285 -0.0275349 0)
(1.18633 -0.0299529 0)
(1.25325 -0.0325859 0)
(1.32464 -0.0352977 0)
(1.39987 -0.038061 0)
(1.48081 -0.0405602 0)
(1.56467 -0.0426695 0)
(1.65529 -0.0437915 0)
(1.74532 -0.0434008 0)
(1.84189 -0.0405243 0)
(1.93003 -0.033456 0)
(2.01957 -0.0199333 0)
(2.0849 0.00261887 0)
(2.13495 0.0469805 0)
(2.11852 0.104863 0)
(2.06474 0.249341 0)
(1.80577 0.454005 0)
(1.59154 0.97758 0)
(-0.000449067 0.0023312 0)
(-0.00629995 0.00536877 0)
(-0.0167085 0.00610901 0)
(-0.0302164 0.00451396 0)
(-0.0452854 0.00141416 0)
(-0.0595587 -0.00244749 0)
(-0.0700162 -0.00651172 0)
(-0.0740433 -0.0103208 0)
(-0.0700503 -0.0136077 0)
(-0.0575231 -0.0163015 0)
(-0.0367127 -0.0184322 0)
(-0.00835323 -0.0200552 0)
(0.0265281 -0.0212119 0)
(0.0667442 -0.0219451 0)
(0.11104 -0.0223053 0)
(0.158241 -0.0223631 0)
(0.207335 -0.0222049 0)
(0.257568 -0.0219181 0)
(0.308418 -0.0215878 0)
(0.359572 -0.0212793 0)
(0.410858 -0.0210552 0)
(0.462209 -0.0209589 0)
(0.513645 -0.0210315 0)
(0.565268 -0.0212981 0)
(0.617229 -0.0217773 0)
(0.669727 -0.0224766 0)
(0.722945 -0.0234079 0)
(0.777067 -0.0245707 0)
(0.832249 -0.0259883 0)
(0.888666 -0.0276655 0)
(0.94649 -0.029633 0)
(1.00603 -0.0318939 0)
(1.0675 -0.0344728 0)
(1.13146 -0.0373252 0)
(1.19799 -0.0404631 0)
(1.26805 -0.0437296 0)
(1.34101 -0.0471098 0)
(1.4186 -0.0502341 0)
(1.49828 -0.0529795 0)
(1.58341 -0.0546523 0)
(1.66755 -0.0546749 0)
(1.75651 -0.0519188 0)
(1.83766 -0.044491 0)
(1.91784 -0.0297611 0)
(1.97705 -0.00473519 0)
(2.01709 0.0442436 0)
(2.00364 0.111384 0)
(1.94143 0.268255 0)
(1.73362 0.50118 0)
(1.53224 1.04272 0)
(-0.000438102 0.00257626 0)
(-0.00642521 0.00598168 0)
(-0.0168806 0.00699593 0)
(-0.030147 0.00559707 0)
(-0.0450507 0.00256888 0)
(-0.0600178 -0.00139486 0)
(-0.072802 -0.00576424 0)
(-0.0811684 -0.0100561 0)
(-0.0835025 -0.0139433 0)
(-0.0789265 -0.0172935 0)
(-0.067143 -0.0200872 0)
(-0.0482993 -0.0223443 0)
(-0.0228795 -0.0240783 0)
(0.00837249 -0.0253121 0)
(0.0445107 -0.0260854 0)
(0.0845249 -0.0264696 0)
(0.127454 -0.0265625 0)
(0.17252 -0.0264692 0)
(0.219152 -0.0262935 0)
(0.266978 -0.0261148 0)
(0.315772 -0.0260074 0)
(0.365394 -0.0260226 0)
(0.415781 -0.0262097 0)
(0.466943 -0.0266007 0)
(0.51895 -0.0272207 0)
(0.571931 -0.0280791 0)
(0.626012 -0.0291885 0)
(0.681305 -0.0305452 0)
(0.737873 -0.0321719 0)
(0.795753 -0.0340729 0)
(0.854945 -0.0362848 0)
(0.915557 -0.038816 0)
(0.977598 -0.041704 0)
(1.04143 -0.0449063 0)
(1.10699 -0.0484491 0)
(1.17504 -0.0521609 0)
(1.24497 -0.0560353 0)
(1.31822 -0.0596621 0)
(1.3926 -0.0629025 0)
(1.47077 -0.0649978 0)
(1.5474 -0.0652776 0)
(1.62667 -0.06252 0)
(1.69861 -0.0545784 0)
(1.76692 -0.0385863 0)
(1.81688 -0.0109636 0)
(1.8452 0.0423626 0)
(1.82965 0.118616 0)
(1.76256 0.286097 0)
(1.59563 0.543209 0)
(1.42345 1.08782 0)
(-0.000426532 0.00283115 0)
(-0.00648976 0.00662231 0)
(-0.0170527 0.00791043 0)
(-0.0302869 0.00670106 0)
(-0.0450165 0.00376014 0)
(-0.0600076 -0.000247954 0)
(-0.0735182 -0.00481902 0)
(-0.0838152 -0.00946197 0)
(-0.0895925 -0.013813 0)
(-0.0900017 -0.0176983 0)
(-0.0846045 -0.0210651 0)
(-0.0732457 -0.0239048 0)
(-0.0560253 -0.0262046 0)
(-0.0332841 -0.0279629 0)
(-0.00560724 -0.0292 0)
(0.0262681 -0.0299781 0)
(0.0615535 -0.0303977 0)
(0.099561 -0.0305758 0)
(0.139762 -0.0306328 0)
(0.181809 -0.030662 0)
(0.225487 -0.0307477 0)
(0.27065 -0.030948 0)
(0.317204 -0.0313182 0)
(0.365112 -0.031897 0)
(0.414388 -0.0327164 0)
(0.465121 -0.0337894 0)
(0.51741 -0.0351294 0)
(0.571344 -0.036728 0)
(0.626943 -0.0386026 0)
(0.684161 -0.0407517 0)
(0.742862 -0.0432117 0)
(0.802962 -0.0459923 0)
(0.864256 -0.0491411 0)
(0.926854 -0.0526196 0)
(0.990504 -0.0564681 0)
(1.0557 -0.0605087 0)
(1.1218 -0.0647378 0)
(1.18987 -0.0687224 0)
(1.25807 -0.0722873 0)
(1.32829 -0.0746436 0)
(1.39633 -0.0749906 0)
(1.46475 -0.0720642 0)
(1.52602 -0.0634348 0)
(1.58135 -0.0460562 0)
(1.62001 -0.0157713 0)
(1.63643 0.0417104 0)
(1.61566 0.126737 0)
(1.5477 0.302508 0)
(1.41336 0.579995 0)
(1.28301 1.11273 0)
(-0.000421676 0.00309478 0)
(-0.00652806 0.0072897 0)
(-0.0171804 0.00885839 0)
(-0.0304699 0.00783584 0)
(-0.0451287 0.00497907 0)
(-0.0600004 0.000940436 0)
(-0.0735754 -0.00379006 0)
(-0.0844484 -0.00871111 0)
(-0.0916228 -0.0134287 0)
(-0.094502 -0.0177421 0)
(-0.0927327 -0.0215777 0)
(-0.0861327 -0.024911 0)
(-0.0746529 -0.0277113 0)
(-0.0584066 -0.0299565 0)
(-0.0377167 -0.0316462 0)
(-0.0130751 -0.0328279 0)
(0.0149247 -0.0335989 0)
(0.0457313 -0.0340827 0)
(0.0789117 -0.0344138 0)
(0.114193 -0.0346979 0)
(0.151424 -0.0350287 0)
(0.190509 -0.0354686 0)
(0.231378 -0.0360766 0)
(0.273989 -0.0368963 0)
(0.318338 -0.0379666 0)
(0.3645 -0.0393056 0)
(0.412578 -0.0409291 0)
(0.46268 -0.0428237 0)
(0.514839 -0.0449984 0)
(0.568995 -0.0474403 0)
(0.624946 -0.050178 0)
(0.682475 -0.0532153 0)
(0.7412 -0.0566041 0)
(0.800981 -0.0603085 0)
(0.86137 -0.0643795 0)
(0.922539 -0.0686411 0)
(0.983798 -0.0730857 0)
(1.04577 -0.0772771 0)
(1.10695 -0.0809856 0)
(1.16844 -0.0834232 0)
(1.22702 -0.0836343 0)
(1.28395 -0.0803455 0)
(1.3336 -0.0708475 0)
(1.37559 -0.0519396 0)
(1.40185 -0.0189485 0)
(1.40673 0.0425384 0)
(1.37957 0.135377 0)
(1.31332 0.318654 0)
(1.20635 0.60757 0)
(1.12341 1.12811 0)
(-0.000421091 0.00336731 0)
(-0.00656199 0.007983 0)
(-0.0172799 0.00984104 0)
(-0.0306376 0.00900723 0)
(-0.0452915 0.00622988 0)
(-0.060073 0.00215695 0)
(-0.0735432 -0.00272542 0)
(-0.084445 -0.00789847 0)
(-0.0919848 -0.0129357 0)
(-0.0957694 -0.0176109 0)
(-0.0956205 -0.0218367 0)
(-0.091456 -0.0255815 0)
(-0.0832533 -0.0288054 0)
(-0.0710729 -0.0314725 0)
(-0.0551217 -0.0335657 0)
(-0.0357513 -0.0351174 0)
(-0.01342 -0.0362191 0)
(0.011433 -0.0369985 0)
(0.0384639 -0.037602 0)
(0.0674807 -0.0381479 0)
(0.09841 -0.0387385 0)
(0.131227 -0.0394391 0)
(0.165912 -0.0403102 0)
(0.202451 -0.0413976 0)
(0.240848 -0.0427466 0)
(0.281181 -0.0443812 0)
(0.323574 -0.046322 0)
(0.368173 -0.0485522 0)
(0.415066 -0.0510715 0)
(0.464233 -0.0538513 0)
(0.51548 -0.056905 0)
(0.568527 -0.060223 0)
(0.622891 -0.063852 0)
(0.678228 -0.0677548 0)
(0.733926 -0.0719864 0)
(0.789843 -0.0763785 0)
(0.845222 -0.0809122 0)
(0.900251 -0.0851651 0)
(0.953653 -0.0888412 0)
(1.00587 -0.0911749 0)
(1.05445 -0.091052 0)
(1.09968 -0.0871945 0)
(1.13726 -0.0766628 0)
(1.1661 -0.0560725 0)
(1.17972 -0.0203689 0)
(1.17376 0.0448707 0)
(1.14018 0.144777 0)
(1.07734 0.333269 0)
(0.99417 0.628585 0)
(0.957733 1.13319 0)
(-0.000421738 0.00364921 0)
(-0.00659766 0.00870247 0)
(-0.0173696 0.0108585 0)
(-0.0307875 0.0102175 0)
(-0.0454562 0.00751697 0)
(-0.0601856 0.00340265 0)
(-0.0735508 -0.00163743 0)
(-0.0843419 -0.00706164 0)
(-0.0918574 -0.0124059 0)
(-0.0958221 -0.0174157 0)
(-0.096186 -0.0219905 0)
(-0.0929844 -0.0260944 0)
(-0.0862816 -0.0296833 0)
(-0.0761785 -0.0327132 0)
(-0.0628802 -0.0351541 0)
(-0.0467001 -0.0370262 0)
(-0.0280411 -0.0384152 0)
(-0.00729226 -0.0394526 0)
(0.0152567 -0.0402968 0)
(0.0394631 -0.041079 0)
(0.0653081 -0.041911 0)
(0.0928277 -0.0428608 0)
(0.122049 -0.0439881 0)
(0.152989 -0.0453394 0)
(0.185671 -0.0469648 0)
(0.220178 -0.0488953 0)
(0.256654 -0.0511581 0)
(0.295284 -0.053736 0)
(0.336217 -0.0566199 0)
(0.379499 -0.0597645 0)
(0.424989 -0.063162 0)
(0.472412 -0.0667828 0)
(0.52125 -0.0706583 0)
(0.571028 -0.0747447 0)
(0.62103 -0.0790914 0)
(0.670843 -0.0835407 0)
(0.719653 -0.088055 0)
(0.767255 -0.0922366 0)
(0.812539 -0.0957191 0)
(0.855405 -0.0977698 0)
(0.89394 -0.0971297 0)
(0.927793 -0.0925038 0)
(0.953575 -0.0807901 0)
(0.970018 -0.0583849 0)
(0.971639 -0.0200087 0)
(0.955957 0.0487498 0)
(0.916759 0.154623 0)
(0.858467 0.346535 0)
(0.79601 0.643614 0)
(0.80099 1.12733 0)
(-0.000422378 0.00394085 0)
(-0.00663457 0.00944905 0)
(-0.0174572 0.0119115 0)
(-0.0309286 0.0114677 0)
(-0.0456123 0.00884272 0)
(-0.0603042 0.0046805 0)
(-0.0735856 -0.000526078 0)
(-0.0842597 -0.00620983 0)
(-0.0916572 -0.0118655 0)
(-0.0955539 -0.0172066 0)
(-0.0959654 -0.0221178 0)
(-0.0930023 -0.0265584 0)
(-0.0868036 -0.0304813 0)
(-0.0775334 -0.0338365 0)
(-0.065437 -0.0365841 0)
(-0.0508474 -0.0387337 0)
(-0.0341725 -0.0403667 0)
(-0.0157946 -0.041619 0)
(0.0040029 -0.042662 0)
(0.0250908 -0.0436413 0)
(0.0474774 -0.0446788 0)
(0.0712162 -0.0458459 0)
(0.0963751 -0.0472011 0)
(0.122986 -0.0487897 0)
(0.151078 -0.0506656 0)
(0.180735 -0.0528673 0)
(0.212108 -0.0554302 0)
(0.245404 -0.0583397 0)
(0.280818 -0.06158 0)
(0.318456 -0.0650896 0)
(0.358245 -0.0688368 0)
(0.399941 -0.0727667 0)
(0.443048 -0.0768873 0)
(0.48702 -0.0811423 0)
(0.531096 -0.085566 0)
(0.574663 -0.0900106 0)
(0.616874 -0.0944131 0)
(0.657212 -0.098406 0)
(0.69467 -0.101554 0)
(0.728757 -0.103157 0)
(0.757901 -0.101838 0)
(0.781403 -0.0962632 0)
(0.796435 -0.0832399 0)
(0.801911 -0.0589271 0)
(0.793048 -0.0179354 0)
(0.769269 0.0540169 0)
(0.725982 0.164762 0)
(0.673073 0.358392 0)
(0.62869 0.65284 0)
(0.667968 1.11256 0)
(-0.000422855 0.00424252 0)
(-0.00667161 0.0102238 0)
(-0.0175437 0.0130009 0)
(-0.0310657 0.0127586 0)
(-0.045762 0.0102084 0)
(-0.060418 0.0059923 0)
(-0.0736249 0.000610406 0)
(-0.0841938 -0.00534325 0)
(-0.0914683 -0.0113203 0)
(-0.095243 -0.0170004 0)
(-0.0955585 -0.0222509 0)
(-0.0925596 -0.0270253 0)
(-0.0864274 -0.031273 0)
(-0.0773712 -0.0349379 0)
(-0.0656777 -0.0379706 0)
(-0.0517139 -0.0403716 0)
(-0.0359125 -0.0422185 0)
(-0.0186747 -0.0436523 0)
(-0.000296815 -0.0448585 0)
(0.0190844 -0.0459981 0)
(0.0394698 -0.0472046 0)
(0.0609248 -0.0485532 0)
(0.0835093 -0.0501012 0)
(0.107263 -0.0518919 0)
(0.132208 -0.0539823 0)
(0.158424 -0.0564182 0)
(0.186045 -0.0592447 0)
(0.215291 -0.062452 0)
(0.246374 -0.06602 0)
(0.279436 -0.0698728 0)
(0.314453 -0.0739532 0)
(0.351218 -0.0781795 0)
(0.389278 -0.0825296 0)
(0.428053 -0.0869304 0)
(0.466784 -0.0913928 0)
(0.50473 -0.0957765 0)
(0.541031 -0.0999882 0)
(0.574959 -0.10369 0)
(0.605563 -0.106384 0)
(0.632103 -0.107397 0)
(0.653214 -0.105262 0)
(0.668044 -0.0985874 0)
(0.674131 -0.0841524 0)
(0.67071 -0.0578807 0)
(0.653623 -0.0143653 0)
(0.623935 0.0604117 0)
(0.578654 0.174964 0)
(0.531943 0.368598 0)
(0.503599 0.65704 0)
(0.569731 1.09063 0)
(-0.000423283 0.00455453 0)
(-0.00670826 0.0110277 0)
(-0.0176284 0.0141282 0)
(-0.0311995 0.0140912 0)
(-0.0459072 0.0116151 0)
(-0.0605261 0.00733904 0)
(-0.0736596 0.0017731 0)
(-0.0841286 -0.00446092 0)
(-0.0912862 -0.0107707 0)
(-0.0949366 -0.0168005 0)
(-0.0951287 -0.0223995 0)
(-0.0920181 -0.0275143 0)
(-0.0858033 -0.0320898 0)
(-0.0767174 -0.0360631 0)
(-0.065074 -0.0393751 0)
(-0.0512668 -0.0420165 0)
(-0.0357519 -0.0440618 0)
(-0.0189498 -0.0456579 0)
(-0.00117281 -0.0470047 0)
(0.0174285 -0.0482796 0)
(0.0368422 -0.0496282 0)
(0.0571211 -0.0511302 0)
(0.078318 -0.0528412 0)
(0.10046 -0.0548027 0)
(0.123559 -0.057074 0)
(0.147675 -0.0597084 0)
(0.172937 -0.0627609 0)
(0.19954 -0.0662287 0)
(0.227702 -0.0700888 0)
(0.257574 -0.0742523 0)
(0.289158 -0.0786371 0)
(0.322271 -0.0831334 0)
(0.356486 -0.0876862 0)
(0.391226 -0.0922022 0)
(0.425746 -0.0966633 0)
(0.459236 -0.100933 0)
(0.49084 -0.104887 0)
(0.519705 -0.108211 0)
(0.544918 -0.110354 0)
(0.565607 -0.110659 0)
(0.580529 -0.107602 0)
(0.588805 -0.0997109 0)
(0.58825 -0.0837914 0)
(0.578434 -0.0555551 0)
(0.555848 -0.00964149 0)
(0.522829 0.0675633 0)
(0.477992 0.184876 0)
(0.438468 0.37698 0)
(0.424751 0.656889 0)
(0.511237 1.06295 0)
(-0.000423742 0.0048772 0)
(-0.00674439 0.0118616 0)
(-0.0177105 0.0152946 0)
(-0.0313292 0.0154668 0)
(-0.0460482 0.013064 0)
(-0.0606291 0.00872158 0)
(-0.0736884 0.00296255 0)
(-0.0840579 -0.00356238 0)
(-0.0911007 -0.0102166 0)
(-0.0946297 -0.0166076 0)
(-0.0946977 -0.0225662 0)
(-0.0914626 -0.0280313 0)
(-0.085128 -0.0329429 0)
(-0.0759379 -0.0372304 0)
(-0.0642205 -0.0408241 0)
(-0.0503862 -0.0437048 0)
(-0.0349057 -0.0459437 0)
(-0.0182112 -0.0476941 0)
(-0.000623619 -0.0491709 0)
(0.017697 -0.0505683 0)
(0.0367281 -0.0520442 0)
(0.0565089 -0.0536828 0)
(0.0770791 -0.055538 0)
(0.0984521 -0.0576491 0)
(0.120628 -0.0600777 0)
(0.143652 -0.0628845 0)
(0.167635 -0.0661348 0)
(0.192762 -0.0698331 0)
(0.219235 -0.0739544 0)
(0.247197 -0.0783978 0)
(0.276656 -0.0830568 0)
(0.307425 -0.0877936 0)
(0.33911 -0.0925181 0)
(0.371118 -0.097116 0)
(0.402729 -0.101537 0)
(0.433105 -0.105646 0)
(0.461409 -0.109286 0)
(0.486724 -0.112163 0)
(0.508178 -0.113682 0)
(0.524836 -0.113188 0)
(0.535551 -0.10913 0)
(0.539496 -0.0999486 0)
(0.534728 -0.0825051 0)
(0.521115 -0.0523454 0)
(0.495839 -0.0041931 0)
(0.462159 0.0750149 0)
(0.420251 0.194103 0)
(0.389028 0.383345 0)
(0.389074 0.652842 0)
(0.490978 1.03088 0)
(-0.000424265 0.00521085 0)
(-0.00677993 0.0127264 0)
(-0.01779 0.0165015 0)
(-0.0314543 0.0168866 0)
(-0.0461844 0.0145563 0)
(-0.0607268 0.0101408 0)
(-0.0737115 0.00417919 0)
(-0.0839809 -0.00264749 0)
(-0.0909087 -0.00965787 0)
(-0.0943167 -0.0164221 0)
(-0.0942617 -0.0227517 0)
(-0.0909016 -0.0285783 0)
(-0.0844413 -0.0338361 0)
(-0.0751301 -0.0384463 0)
(-0.0633049 -0.0423278 0)
(-0.0493865 -0.0454511 0)
(-0.0338535 -0.0478845 0)
(-0.0171421 -0.049788 0)
(0.000425643 -0.0513919 0)
(0.0186877 -0.0529079 0)
(0.0376163 -0.0545057 0)
(0.0572411 -0.0562737 0)
(0.0775905 -0.0582642 0)
(0.0986669 -0.0605142 0)
(0.120462 -0.0630875 0)
(0.143011 -0.0660526 0)
(0.166419 -0.0694846 0)
(0.190854 -0.0733956 0)
(0.216507 -0.0777582 0)
(0.243502 -0.0824603 0)
(0.27184 -0.0873703 0)
(0.301325 -0.0923228 0)
(0.331564 -0.0971925 0)
(0.361967 -0.101842 0)
(0.391827 -0.10619 0)
(0.420302 -0.1101 0)
(0.446572 -0.113383 0)
(0.469719 -0.115759 0)
(0.488888 -0.116604 0)
(0.503173 -0.115252 0)
(0.511495 -0.110146 0)
(0.513108 -0.0996379 0)
(0.506323 -0.080666 0)
(0.491255 -0.0486687 0)
(0.465811 0.00152601 0)
(0.433892 0.0822929 0)
(0.397117 0.202245 0)
(0.375244 0.387476 0)
(0.38853 0.64524 0)
(0.502401 0.995478 0)
(-0.00042487 0.00555583 0)
(-0.00681476 0.0136229 0)
(-0.0178665 0.0177502 0)
(-0.0315742 0.0183517 0)
(-0.0463149 0.0160932 0)
(-0.0608188 0.0115977 0)
(-0.0737286 0.00542348 0)
(-0.0838978 -0.00171618 0)
(-0.09071 -0.00909493 0)
(-0.0939965 -0.0162445 0)
(-0.0938183 -0.0229571 0)
(-0.0903334 -0.0291566 0)
(-0.0837467 -0.0347715 0)
(-0.0743117 -0.0397136 0)
(-0.0623719 -0.0438903 0)
(-0.0483562 -0.0472614 0)
(-0.0327473 -0.0498922 0)
(-0.0159816 -0.0519507 0)
(0.00162303 -0.053683 0)
(0.019908 -0.0553182 0)
(0.0388447 -0.0570379 0)
(0.0584578 -0.0589346 0)
(0.0787675 -0.0610582 0)
(0.0997694 -0.063444 0)
(0.121451 -0.066158 0)
(0.143847 -0.0692767 0)
(0.167057 -0.072885 0)
(0.191245 -0.0770024 0)
(0.216591 -0.0815984 0)
(0.243203 -0.0865488 0)
(0.271066 -0.0916966 0)
(0.29997 -0.0968487 0)
(0.329519 -0.101844 0)
(0.359118 -0.106524 0)
(0.388073 -0.110774 0)
(0.415551 -0.114455 0)
(0.440754 -0.117353 0)
(0.462783 -0.119194 0)
(0.480822 -0.119334 0)
(0.494007 -0.117091 0)
(0.501349 -0.110919 0)
(0.502201 -0.0990861 0)
(0.495142 -0.0786162 0)
(0.480493 -0.0449073 0)
(0.456883 0.00709621 0)
(0.428661 0.0889653 0)
(0.398705 0.208933 0)
(0.386943 0.389181 0)
(0.412987 0.634345 0)
(0.536491 0.957483 0)
(-0.000425572 0.00591249 0)
(-0.00684877 0.0145519 0)
(-0.0179397 0.0190423 0)
(-0.0316883 0.0198634 0)
(-0.0464392 0.0176761 0)
(-0.0609043 0.0130933 0)
(-0.0737392 0.00669592 0)
(-0.0838087 -0.000768318 0)
(-0.0905052 -0.00852803 0)
(-0.0936697 -0.0160757 0)
(-0.093368 -0.0231834 0)
(-0.0897579 -0.0297676 0)
(-0.0830447 -0.0357506 0)
(-0.0734854 -0.0410345 0)
(-0.0614303 -0.045514 0)
(-0.0473153 -0.0491384 0)
(-0.0316265 -0.0519706 0)
(-0.0147982 -0.054187 0)
(0.00285805 -0.0560503 0)
(0.02119 -0.0578078 0)
(0.0401709 -0.0596522 0)
(0.0598227 -0.0616797 0)
(0.0801605 -0.0639382 0)
(0.101176 -0.0664607 0)
(0.122856 -0.0693165 0)
(0.145238 -0.0725903 0)
(0.168425 -0.0763769 0)
(0.192581 -0.0807025 0)
(0.217878 -0.0855327 0)
(0.244412 -0.09073 0)
(0.272154 -0.0961115 0)
(0.300878 -0.101455 0)
(0.330179 -0.106566 0)
(0.359462 -0.111261 0)
(0.388042 -0.115398 0)
(0.4151 -0.118831 0)
(0.439866 -0.121326 0)
(0.461477 -0.122613 0)
(0.47916 -0.122036 0)
(0.492116 -0.118893 0)
(0.499455 -0.11166 0)
(0.50064 -0.0985361 0)
(0.494527 -0.076632 0)
(0.481623 -0.0413713 0)
(0.461245 0.0121726 0)
(0.438073 0.094681 0)
(0.416032 0.21388 0)
(0.414761 0.38833 0)
(0.452991 0.620361 0)
(0.58441 0.917379 0)
(-0.000426381 0.0062812 0)
(-0.0068818 0.0155142 0)
(-0.0180095 0.020379 0)
(-0.0317963 0.0214231 0)
(-0.0465566 0.0193062 0)
(-0.0609827 0.0146286 0)
(-0.0737428 0.00799705 0)
(-0.0837133 0.00019621 0)
(-0.0902948 -0.00795743 0)
(-0.0933373 -0.0159163 0)
(-0.092912 -0.0234319 0)
(-0.0891768 -0.0304129 0)
(-0.0823371 -0.0367755 0)
(-0.0726538 -0.0424112 0)
(-0.0604837 -0.0472014 0)
(-0.04627 -0.0510848 0)
(-0.0305016 -0.0541223 0)
(-0.0136101 -0.0564999 0)
(0.00410036 -0.0584976 0)
(0.0224846 -0.0603809 0)
(0.041519 -0.0623539 0)
(0.061224 -0.064516 0)
(0.0816105 -0.0669123 0)
(0.102668 -0.0695747 0)
(0.124386 -0.0725759 0)
(0.146806 -0.0760097 0)
(0.17004 -0.0799806 0)
(0.194252 -0.084521 0)
(0.219613 -0.0895916 0)
(0.246208 -0.0950404 0)
(0.273995 -0.100657 0)
(0.302735 -0.106191 0)
(0.332015 -0.111412 0)
(0.361239 -0.116114 0)
(0.38973 -0.120129 0)
(0.416693 -0.123303 0)
(0.441381 -0.125388 0)
(0.462982 -0.126113 0)
(0.480771 -0.124821 0)
(0.494025 -0.120786 0)
(0.501964 -0.112518 0)
(0.504163 -0.0981626 0)
(0.499763 -0.0749157 0)
(0.489445 -0.0382898 0)
(0.473163 0.0164976 0)
(0.455842 0.0991808 0)
(0.442244 0.216886 0)
(0.451407 0.384859 0)
(0.501004 0.603467 0)
(0.63892 0.875517 0)
(-0.000427301 0.00666233 0)
(-0.00691371 0.0165107 0)
(-0.0180757 0.0217618 0)
(-0.0318976 0.023032 0)
(-0.0466665 0.0209846 0)
(-0.0610535 0.0162047 0)
(-0.0737389 0.00932751 0)
(-0.0836114 0.00117757 0)
(-0.090079 -0.00738333 0)
(-0.0930003 -0.015767 0)
(-0.0924519 -0.0237036 0)
(-0.0885921 -0.031094 0)
(-0.0816266 -0.0378479 0)
(-0.07182 -0.0438456 0)
(-0.0595359 -0.0489547 0)
(-0.0452248 -0.0531028 0)
(-0.0293781 -0.0563497 0)
(-0.0124243 -0.0588918 0)
(0.00533993 -0.0610275 0)
(0.0237769 -0.0630408 0)
(0.0428661 -0.0651466 0)
(0.0626269 -0.0674472 0)
(0.083067 -0.0699852 0)
(0.104174 -0.0727915 0)
(0.125941 -0.0759428 0)
(0.148417 -0.079543 0)
(0.171721 -0.0837062 0)
(0.196022 -0.0884707 0)
(0.221488 -0.093791 0)
(0.2482 -0.0994991 0)
(0.276102 -0.105357 0)
(0.304943 -0.111083 0)
(0.334304 -0.116413 0)
(0.363588 -0.121119 0)
(0.392129 -0.125006 0)
(0.419157 -0.127916 0)
(0.443955 -0.12959 0)
(0.465762 -0.129753 0)
(0.483908 -0.127758 0)
(0.497751 -0.122854 0)
(0.506629 -0.113591 0)
(0.510233 -0.098082 0)
(0.507984 -0.0736063 0)
(0.500732 -0.0358212 0)
(0.489005 0.0198916 0)
(0.477914 0.102291 0)
(0.472847 0.217835 0)
(0.492037 0.378779 0)
(0.55197 0.583851 0)
(0.695048 0.832173 0)
(-0.000428327 0.00705628 0)
(-0.00694436 0.0175423 0)
(-0.0181379 0.0231921 0)
(-0.0319918 0.0246916 0)
(-0.0467683 0.0227127 0)
(-0.0611161 0.0178229 0)
(-0.073727 0.010688 0)
(-0.0835029 0.00217594 0)
(-0.0898581 -0.00680589 0)
(-0.0926592 -0.0156284 0)
(-0.0919888 -0.0239996 0)
(-0.0880058 -0.0318124 0)
(-0.0809157 -0.0389697 0)
(-0.0709874 -0.0453399 0)
(-0.0585912 -0.0507761 0)
(-0.0441844 -0.0551948 0)
(-0.028261 -0.0586552 0)
(-0.0112464 -0.0613654 0)
(0.00657038 -0.0636427 0)
(0.025059 -0.0657901 0)
(0.0442023 -0.0680333 0)
(0.0640184 -0.0704768 0)
(0.084512 -0.0731606 0)
(0.10567 -0.0761151 0)
(0.127488 -0.0794219 0)
(0.150025 -0.0831955 0)
(0.173406 -0.0875601 0)
(0.197806 -0.0925592 0)
(0.223394 -0.09814 0)
(0.250242 -0.104117 0)
(0.278284 -0.110223 0)
(0.307261 -0.116145 0)
(0.336743 -0.121586 0)
(0.366141 -0.126293 0)
(0.394795 -0.130052 0)
(0.421964 -0.132695 0)
(0.446963 -0.133961 0)
(0.469085 -0.13357 0)
(0.487719 -0.130889 0)
(0.502306 -0.12515 0)
(0.512309 -0.114942 0)
(0.517531 -0.0983719 0)
(0.517665 -0.0727994 0)
(0.513729 -0.0340741 0)
(0.506752 0.0222331 0)
(0.501976 0.103904 0)
(0.505232 0.216681 0)
(0.533801 0.370155 0)
(0.602902 0.561715 0)
(0.749853 0.787589 0)
(-0.000429452 0.00746345 0)
(-0.00697357 0.0186096 0)
(-0.0181961 0.0246713 0)