/*--------------------------------*- C++ -*----------------------------------*\
  =========                 |
  \\      /  F ield         | OpenFOAM: The Open Source CFD Toolbox
   \\    /   O peration     | Website:  https://openfoam.org
    \\  /    A nd           | Version:  7
     \\/     M anipulation  |
\*---------------------------------------------------------------------------*/
FoamFile
{
    version     2.0;
    format      ascii;
    class       volScalarField;
    location    "0.09";
    object      nut;
}
// * * * * * * * * * * * * * * * * * * * * * * * * * * * * * * * * * * * * * //

dimensions      [0 2 -1 0 0 0 0];

internalField   nonuniform List<scalar> 
70000
(
9.9627e-12
6.87965e-14
2.567e-16
8.6397e-17
4.77611e-17
7.8611e-17
2.76433e-17
1.29446e-17
8.79348e-18
6.43369e-18
4.72786e-18
3.53646e-18
2.70782e-18
2.11733e-18
1.68516e-18
1.36164e-18
1.11486e-18
9.23341e-19
7.7265e-19
6.52432e-19
5.55452e-19
4.76357e-19
4.11223e-19
3.57124e-19
3.11771e-19
2.73554e-19
2.40889e-19
2.13185e-19
1.88782e-19
1.6832e-19
1.49244e-19
1.33968e-19
1.18171e-19
1.06732e-19
9.29519e-20
8.37675e-20
7.25266e-20
6.16328e-20
5.85017e-20
3.53256e-20
5.97401e-20
5.86468e-21
1.32764e-19
1.0217e-20
1.05519e-18
2.65883e-18
2.18705e-17
1.18693e-16
5.89503e-15
2.25715e-13
1.04275e-10
5.98788e-12
6.44527e-14
2.14269e-14
2.8897e-16
1.69393e-17
2.51576e-17
2.11102e-17
1.22569e-17
7.29224e-18
4.78121e-18
3.33709e-18
2.4206e-18
1.80765e-18
1.38334e-18
1.08113e-18
8.60315e-19
6.95459e-19
5.69835e-19
4.72497e-19
3.95895e-19
3.34791e-19
2.85477e-19
2.45209e-19
2.12078e-19
1.8443e-19
1.61444e-19
1.41693e-19
1.25423e-19
1.10664e-19
9.91353e-20
8.74696e-20
7.95202e-20
6.96885e-20
6.43686e-20
5.62714e-20
5.12886e-20
4.83054e-20
3.60963e-20
5.33201e-20
1.38375e-20
1.19689e-19
2.05975e-21
8.27775e-19
8.99362e-19
1.41744e-17
5.35187e-17
3.90571e-16
2.64604e-14
1.61474e-14
3.19163e-10
3.39875e-12
1.91023e-13
1.99163e-14
7.6908e-16
5.87109e-17
7.35169e-18
4.19701e-18
2.12804e-18
1.05195e-18
5.80765e-19
3.5432e-19
2.29931e-19
1.55564e-19
1.08844e-19
7.84227e-20
5.79761e-20
4.3856e-20
3.38332e-20
2.65613e-20
2.11708e-20
1.71013e-20
1.39816e-20
1.15509e-20
9.64341e-21
8.11345e-21
6.90896e-21
5.8972e-21
5.14036e-21
4.43298e-21
3.99936e-21
3.47326e-21
3.31219e-21
2.90996e-21
2.99907e-21
2.82593e-21
3.02109e-21
3.81957e-21
3.34633e-21
9.30831e-21
5.71458e-21
5.30648e-20
7.0956e-20
7.60649e-19
2.57266e-18
1.83547e-17
8.99129e-17
5.34805e-16
3.29273e-14
5.3444e-14
6.15341e-09
1.92826e-11
7.84831e-13
6.11615e-14
5.50152e-15
9.31329e-16
1.10899e-16
2.95264e-17
1.22869e-17
5.41893e-18
2.51537e-18
1.28255e-18
7.12944e-19
4.22088e-19
2.62062e-19
1.69251e-19
1.13136e-19
7.79543e-20
5.51676e-20
3.99729e-20
2.95742e-20
2.22924e-20
1.70919e-20
1.33127e-20
1.05307e-20
8.46082e-21
6.91172e-21
5.75434e-21
4.89225e-21
4.27541e-21
3.84301e-21
3.61428e-21
3.51182e-21
3.69084e-21
3.96843e-21
4.87573e-21
5.87908e-21
8.7622e-21
1.1908e-20
2.23738e-20
3.68497e-20
9.73288e-20
2.49208e-19
9.82174e-19
4.20508e-18
1.8963e-17
1.06625e-16
4.26334e-16
2.85624e-14
8.86408e-14
2.32095e-09
2.23436e-10
4.46057e-12
3.22212e-13
2.30975e-14
4.41846e-15
7.23925e-16
2.0292e-16
8.25883e-17
3.6471e-17
1.69557e-17
8.55818e-18
4.68067e-18
2.72548e-18
1.66671e-18
1.06186e-18
7.01055e-19
4.77567e-19
3.34399e-19
2.39881e-19
1.7578e-19
1.31261e-19
9.96951e-20
7.69022e-20
6.02056e-20
4.78275e-20
3.85713e-20
3.16377e-20
2.6426e-20
2.261e-20
1.98164e-20
1.80759e-20
1.6971e-20
1.71185e-20
1.765e-20
2.07054e-20
2.38397e-20
3.42557e-20
4.39752e-20
8.07902e-20
1.17992e-19
2.91264e-19
5.74448e-19
1.91651e-18
6.61683e-18
2.29068e-17
1.32667e-16
2.9548e-16
2.47816e-14
7.88474e-14
3.00867e-09
5.28569e-09
4.36622e-11
1.94879e-12
1.08344e-13
1.80613e-14
3.25318e-15
9.46177e-16
3.83658e-16
1.70424e-16
7.9827e-17
4.0301e-17
2.19144e-17
1.26521e-17
7.66377e-18
4.83474e-18
3.1606e-18
2.13217e-18
1.47885e-18
1.05111e-18
7.63372e-19
5.65085e-19
4.25522e-19
3.25427e-19
2.52541e-19
1.98761e-19
1.58695e-19
1.28682e-19
1.06109e-19
8.93495e-20
7.69209e-20
6.8528e-20
6.27696e-20
6.12051e-20
6.11358e-20
6.87391e-20
7.62531e-20
1.05264e-19
1.29186e-19
2.31417e-19
3.13749e-19
7.51892e-19
1.27273e-18
3.85105e-18
1.10741e-17
3.02095e-17
1.76768e-16
2.11783e-16
2.21326e-14
6.65982e-14
1.07678e-09
4.76694e-09
3.72183e-09
1.85514e-11
6.73473e-13
9.2039e-14
1.52246e-14
4.13601e-15
1.58957e-15
6.88009e-16
3.18346e-16
1.59197e-16
8.574e-17
4.90265e-17
2.94145e-17
1.83808e-17
1.19029e-17
7.95488e-18
5.46666e-18
3.85048e-18
2.77186e-18
2.03431e-18
1.5191e-18
1.15225e-18
8.86878e-19
6.92231e-19
5.47933e-19
4.40179e-19
3.59247e-19
2.98903e-19
2.53795e-19
2.22245e-19
1.99646e-19
1.89782e-19
1.84686e-19
2.00429e-19
2.15732e-19
2.8523e-19
3.40262e-19
5.81418e-19
7.66792e-19
1.7269e-18
2.76705e-18
7.46913e-18
1.94755e-17
4.28242e-17
2.5607e-16
2.12579e-16
2.02189e-14
5.66977e-14
2.42891e-09
3.87142e-09
8.23805e-10
2.43201e-09
8.65392e-12
7.16502e-13
9.08462e-14
2.06618e-14
7.05898e-15
2.83277e-15
1.24558e-15
6.00066e-16
3.14057e-16
1.75552e-16
1.03385e-16
6.359e-17
4.06097e-17
2.68009e-17
1.82062e-17
1.26864e-17
9.04092e-18
6.57234e-18
4.86359e-18
3.65725e-18
2.79149e-18
2.161e-18
1.69658e-18
1.35148e-18
1.09328e-18
9.00712e-19
7.56484e-19
6.53621e-19
5.78522e-19
5.39046e-19
5.14196e-19
5.41631e-19
5.69567e-19
7.2263e-19
8.45267e-19
1.36941e-18
1.78874e-18
3.74268e-18
5.92083e-18
1.42436e-17
3.54344e-17
6.6297e-17
3.95214e-16
3.28629e-16
1.89739e-14
4.83585e-14
3.3706e-09
4.37216e-09
5.92124e-10
3.00262e-10
5.49681e-10
1.8686e-11
9.62906e-13
1.45749e-13
3.96113e-14
1.37408e-14
5.4513e-15
2.43187e-15
1.19993e-15
6.40563e-16
3.63625e-16
2.17048e-16
1.35186e-16
8.73383e-17
5.82447e-17
3.99312e-17
2.80465e-17
2.0123e-17
1.47142e-17
1.09434e-17
8.26771e-18
6.33883e-18
4.9309e-18
3.8927e-18
3.12114e-18
2.54759e-18
2.11917e-18
1.81042e-18
1.58354e-18
1.45188e-18
1.36383e-18
1.40155e-18
1.44773e-18
1.77045e-18
2.04122e-18
3.13977e-18
4.08928e-18
7.95049e-18
1.26062e-17
2.73527e-17
6.63313e-17
1.12949e-16
6.41647e-16
6.44999e-16
1.86601e-14
4.26091e-14
3.41225e-09
4.60934e-09
6.7386e-10
1.93817e-10
4.72088e-11
6.71702e-11
3.16006e-10
2.83761e-12
3.91509e-13
9.7285e-14
3.1343e-14
1.20901e-14
5.3584e-15
2.63476e-15
1.40176e-15
7.94041e-16
4.73715e-16
2.95226e-16
1.90958e-16
1.27522e-16
8.75431e-17
6.15606e-17
4.42175e-17
3.23643e-17
2.41e-17
1.82347e-17
1.40128e-17
1.09368e-17
8.67536e-18
7.00715e-18
5.76972e-18
4.87527e-18
4.21839e-18
3.81429e-18
3.5377e-18
3.56172e-18
3.62697e-18
4.29755e-18
4.89915e-18
7.189e-18
9.35376e-18
1.69967e-17
2.7094e-17
5.39546e-17
1.28236e-16
2.10177e-16
1.08811e-15
1.33943e-15
1.9602e-14
3.95366e-14
3.21322e-09
4.3931e-09
7.75235e-10
2.02468e-10
3.66642e-11
2.18477e-11
1.34532e-11
2.08906e-11
1.60234e-10
2.26226e-12
3.55725e-13
9.53151e-14
3.36216e-14
1.41024e-14
6.66699e-15
3.44578e-15
1.91033e-15
1.12117e-15
6.898e-16
4.41544e-16
2.92309e-16
1.99187e-16
1.39188e-16
9.94338e-17
7.24617e-17
5.37749e-17
4.0607e-17
3.11907e-17
2.43816e-17
1.94258e-17
1.57935e-17
1.31787e-17
1.12696e-17
1.00536e-17
9.21322e-18
9.11157e-18
9.1643e-18
1.05689e-17
1.19331e-17
1.67984e-17
2.18323e-17
3.73633e-17
5.97847e-17
1.11149e-16
2.58632e-16
4.2198e-16
1.93171e-15
2.77483e-15
2.23292e-14
3.89845e-14
3.01892e-09
3.97481e-09
8.48065e-10
2.13437e-10
3.89753e-11
2.01844e-11
8.64863e-12
4.60984e-12
4.18792e-12
6.77068e-12
7.9032e-11
5.01841e-12
5.60867e-13
1.42898e-13
5.04193e-14
2.13984e-14
1.02755e-14
5.4008e-15
3.04354e-15
1.81327e-15
1.13065e-15
7.32325e-16
4.89907e-16
3.36985e-16
2.37564e-16
1.71204e-16
1.25945e-16
9.4496e-17
7.23191e-17
5.65212e-17
4.51562e-17
3.70707e-17
3.1234e-17
2.74451e-17
2.4819e-17
2.41273e-17
2.39723e-17
2.69883e-17
3.01943e-17
4.09679e-17
5.31305e-17
8.62521e-17
1.38111e-16
2.42988e-16
5.51792e-16
9.06943e-16
3.62779e-15
5.74509e-15
2.8318e-14
4.27323e-14
2.84764e-09
3.51495e-09
9.09892e-10
2.10944e-10
4.25392e-11
2.1749e-11
9.08247e-12
3.93344e-12
2.47043e-12
1.91052e-12
1.7256e-12
2.02244e-12
4.12428e-12
8.1081e-11
2.72977e-12
3.93611e-13
1.14784e-13
4.46936e-14
2.05265e-14
1.05217e-14
5.84095e-15
3.44705e-15
2.1362e-15
1.37812e-15
9.19868e-16
6.32366e-16
4.46417e-16
3.22999e-16
2.39353e-16
1.81765e-16
1.41529e-16
1.13524e-16
9.36891e-17
8.07293e-17
7.17751e-17
6.84591e-17
6.70696e-17
7.37539e-17
8.16817e-17
1.07115e-16
1.38344e-16
2.14224e-16
3.41876e-16
5.74953e-16
1.26749e-15
2.10135e-15
7.32439e-15
1.22407e-14
4.10185e-14
5.43069e-14
2.67773e-09
3.05955e-09
9.79075e-10
1.99869e-10
4.57676e-11
2.32515e-11
1.03572e-11
4.2496e-12
2.42022e-12
1.61704e-12
1.14339e-12
8.72419e-13
7.46687e-13
7.39021e-13
8.94329e-13
1.54279e-12
7.26426e-12
1.09962e-11
6.74146e-13
1.68517e-13
6.28496e-14
2.86113e-14
1.47291e-14
8.25658e-15
4.93271e-15
3.09867e-15
2.02934e-15
1.37784e-15
9.66704e-16
7.00112e-16
5.22981e-16
4.04488e-16
3.23308e-16
2.70679e-16
2.34762e-16
2.18414e-16
2.09923e-16
2.24839e-16
2.4563e-16
3.11275e-16
3.98851e-16
5.90913e-16
9.34643e-16
1.51197e-15
3.21489e-15
5.3512e-15
1.62873e-14
2.78271e-14
6.90927e-14
8.18418e-14
2.49938e-09
2.62479e-09
1.05912e-09
1.8587e-10
4.9146e-11
2.41984e-11
1.17818e-11
4.78076e-12
2.64418e-12
1.70889e-12
1.13855e-12
7.83894e-13
5.73377e-13
4.48561e-13
3.75582e-13
3.38805e-13
3.34271e-13
3.70787e-13
4.88515e-13
8.73928e-13
3.4891e-12
1.88374e-11
7.11748e-13
1.72518e-13
6.54219e-14
3.06374e-14
1.62878e-14
9.45053e-15
5.86031e-15
3.84078e-15
2.64158e-15
1.90627e-15
1.4368e-15
1.14352e-15
9.50169e-16
8.49707e-16
7.91339e-16
8.17699e-16
8.73343e-16
1.06391e-15
1.34169e-15
1.90002e-15
2.95239e-15
4.60284e-15
9.35924e-15
1.55084e-14
4.14028e-14
7.05455e-14
1.38853e-13
1.49495e-13
2.31314e-09
2.22467e-09
1.1447e-09
1.71576e-10
5.31454e-11
2.47235e-11
1.32597e-11
5.38199e-12
2.93633e-12
1.89419e-12
1.25314e-12
8.40968e-13
5.87957e-13
4.30458e-13
3.28446e-13
2.60651e-13
2.15427e-13
1.85953e-13
1.68291e-13
1.60631e-13
1.63245e-13
1.79492e-13
2.19739e-13
3.17132e-13
6.19953e-13
2.75562e-12
1.09913e-11
5.65788e-13
1.49369e-13
6.0951e-14
3.07526e-14
1.7793e-14
1.13573e-14
7.93593e-15
5.94539e-15
4.87439e-15
4.23545e-15
4.09774e-15
4.17064e-15
4.79244e-15
5.83295e-15
7.81218e-15
1.17257e-14
1.75104e-14
3.35918e-14
5.46748e-14
1.28393e-13
2.13375e-13
3.49844e-13
3.44801e-13
2.12132e-09
1.86545e-09
1.22849e-09
1.58031e-10
5.78107e-11
2.4956e-11
1.48177e-11
6.05297e-12
3.25904e-12
2.1108e-12
1.40774e-12
9.43367e-13
6.52549e-13
4.68974e-13
3.47988e-13
2.65435e-13
2.07923e-13
1.67268e-13
1.38203e-13
1.17295e-13
1.02322e-13
9.18608e-14
8.5056e-14
8.14874e-14
8.1167e-14
8.4657e-14
9.34816e-14
1.11268e-13
1.47199e-13
2.29866e-13
4.86758e-13
2.31257e-12
9.97642e-12
6.55505e-13
2.0151e-13
1.00199e-13
6.28459e-14
4.78958e-14
4.09704e-14
4.05393e-14
4.42124e-14
5.31289e-14
7.33177e-14
1.01441e-13
1.77717e-13
2.75795e-13
5.64755e-13
8.88976e-13
1.2457e-12
1.11228e-12
1.92557e-09
1.54752e-09
1.30391e-09
1.46007e-10
6.28967e-11
2.49643e-11
1.64596e-11
6.82003e-12
3.61685e-12
2.34948e-12
1.58488e-12
1.06789e-12
7.38479e-13
5.2905e-13
3.90088e-13
2.94341e-13
2.2682e-13
1.7836e-13
1.42995e-13
1.16774e-13
9.70656e-14
8.20972e-14
7.06589e-14
6.19066e-14
5.52509e-14
5.0283e-14
4.67364e-14
4.44793e-14
4.34865e-14
4.39266e-14
4.60974e-14
5.08179e-14
5.92788e-14
7.47275e-14
1.02774e-13
1.6095e-13
2.94605e-13
7.04506e-13
2.70475e-12
2.97918e-11
1.47128e-11
4.13598e-12
2.82793e-12
2.52775e-12
3.20015e-12
3.99124e-12
6.42129e-12
8.61863e-12
9.76917e-12
7.19659e-12
1.72809e-09
1.27075e-09
1.36527e-09
1.36401e-10
6.79996e-11
2.48177e-11
1.81508e-11
7.7062e-12
4.0202e-12
2.61353e-12
1.78407e-12
1.21111e-12
8.3948e-13
6.02009e-13
4.44018e-13
3.34622e-13
2.56982e-13
2.00876e-13
1.59614e-13
1.28742e-13
1.05283e-13
8.72231e-14
7.31741e-14
6.21544e-14
5.34568e-14
4.65666e-14
4.11088e-14
3.68291e-14
3.35434e-14
3.11771e-14
2.96597e-14
2.90941e-14
2.94986e-14
3.13009e-14
3.47107e-14
4.10106e-14
5.12091e-14
6.92591e-14
1.00358e-13
1.5819e-13
2.73469e-13
5.03408e-13
1.05748e-12
2.25612e-12
5.68626e-12
1.36622e-11
3.59812e-11
8.09256e-11
1.34852e-10
3.77602e-11
1.53167e-09
1.0348e-09
1.4077e-09
1.30165e-10
7.25974e-11
2.46164e-11
1.98314e-11
8.73022e-12
4.47868e-12
2.90747e-12
2.00822e-12
1.37511e-12
9.56102e-13
6.86897e-13
5.07619e-13
3.83142e-13
2.94444e-13
2.30087e-13
1.82561e-13
1.46839e-13
1.19554e-13
9.84284e-14
8.18909e-14
6.88275e-14
5.84293e-14
5.01034e-14
4.34107e-14
3.80473e-14
3.37832e-14
3.04994e-14
2.80764e-14
2.65391e-14
2.58264e-14
2.61629e-14
2.75781e-14
3.07198e-14
3.59751e-14
4.50263e-14
5.99275e-14
8.5087e-14
1.30687e-13
2.08981e-13
3.70605e-13
6.55046e-13
1.30113e-12
2.44463e-12
4.81304e-12
8.3399e-12
1.19076e-11
1.35171e-11
1.33924e-09
8.38502e-10
1.42716e-09
1.28206e-10
7.60918e-11
2.44909e-11
2.14258e-11
9.90834e-12
5.00202e-12
3.2355e-12
2.26028e-12
1.56301e-12
1.09075e-12
7.85179e-13
5.81572e-13
4.39943e-13
3.38706e-13
2.65031e-13
2.10478e-13
1.69361e-13
1.3786e-13
1.13391e-13
9.41725e-14
7.89389e-14
6.6767e-14
5.69782e-14
4.90673e-14
4.2684e-14
3.75622e-14
3.35582e-14
3.05306e-14
2.84799e-14
2.73275e-14
2.72481e-14
2.82603e-14
3.08739e-14
3.54584e-14
4.32702e-14
5.61241e-14
7.70648e-14
1.14065e-13
1.74942e-13
2.93864e-13
4.94251e-13
9.09e-13
1.60423e-12
2.86668e-12
4.57802e-12
5.99192e-12
6.15249e-12
1.15375e-09
6.79545e-10
1.42079e-09
1.31328e-10
7.79221e-11
2.45863e-11
2.28514e-11
1.1253e-11
5.60137e-12
3.60216e-12
2.54293e-12
1.77799e-12
1.24631e-12
8.99014e-13
6.6745e-13
5.06157e-13
3.90521e-13
3.06128e-13
2.43498e-13
1.96193e-13
1.59874e-13
1.31601e-13
1.09348e-13
9.16756e-14
7.75256e-14
6.61193e-14
5.68753e-14
4.93916e-14
4.33652e-14
3.86313e-14
3.50334e-14
3.25615e-14
3.11368e-14
3.09203e-14
3.19603e-14
3.4735e-14
3.97141e-14
4.80654e-14
6.1816e-14
8.37749e-14
1.21927e-13
1.83602e-13
2.99278e-13
4.91066e-13
8.60965e-13
1.46352e-12
2.45686e-12
3.72414e-12
4.66575e-12
4.63065e-12
9.78111e-10
5.54604e-10
1.38718e-09
1.40219e-10
7.77071e-11
2.50373e-11
2.40308e-11
1.27698e-11
6.2898e-12
4.01281e-12
2.85883e-12
2.02329e-12
1.42593e-12
1.03087e-12
7.67164e-13
5.83305e-13
4.51103e-13
3.54329e-13
2.82342e-13
2.27862e-13
1.85951e-13
1.53267e-13
1.27502e-13
1.07011e-13
9.05833e-14
7.73214e-14
6.6555e-14
5.78222e-14
5.07793e-14
4.52397e-14
4.10354e-14
3.81507e-14
3.65165e-14
3.6295e-14
3.75872e-14
4.08845e-14
4.68168e-14
5.66004e-14
7.26569e-14
9.79893e-14
1.41295e-13
2.10727e-13
3.36396e-13
5.42804e-13
9.18102e-13
1.51475e-12
2.42635e-12
3.53116e-12
4.30531e-12
4.22492e-12
8.15023e-10
4.5954e-10
1.3267e-09
1.55407e-10
7.53158e-11
2.59458e-11
2.4904e-11
1.44531e-11
7.08251e-12
4.4738e-12
3.21074e-12
2.30213e-12
1.63301e-12
1.18352e-12
8.8287e-13
6.73136e-13
5.21901e-13
4.10832e-13
3.27998e-13
2.65174e-13
2.1675e-13
1.78918e-13
1.49051e-13
1.25269e-13
1.06181e-13
9.07535e-14
7.8212e-14
6.8025e-14
5.98038e-14
5.3338e-14
4.84507e-14
4.51228e-14
4.33029e-14
4.31627e-14
4.4875e-14
4.89733e-14
5.62907e-14
6.81838e-14
8.75743e-14
1.17933e-13
1.68971e-13
2.50397e-13
3.93078e-13
6.25288e-13
1.02672e-12
1.64898e-12
2.54331e-12
3.57763e-12
4.28028e-12
4.19741e-12
6.66789e-10
3.89708e-10
1.24159e-09
1.77131e-10
7.09021e-11
2.73641e-11
2.54406e-11
1.62809e-11
7.99664e-12
4.99262e-12
3.60169e-12
2.61766e-12
1.87125e-12
1.36004e-12
1.01698e-12
7.77613e-13
6.04559e-13
4.77018e-13
3.81624e-13
3.09108e-13
2.53095e-13
2.09253e-13
1.74586e-13
1.46949e-13
1.24742e-13
1.0677e-13
9.2142e-14
8.02438e-14
7.06374e-14
6.30868e-14
5.74085e-14
5.35819e-14
5.15808e-14
5.15944e-14
5.38833e-14
5.90499e-14
6.81665e-14
8.28113e-14
1.0648e-13
1.43332e-13
2.04243e-13
3.0095e-13
4.65445e-13
7.301e-13
1.16795e-12
1.82831e-12
2.73074e-12
3.73016e-12
4.3988e-12
4.33217e-12
5.35131e-10
3.40287e-10
1.13584e-09
2.05107e-10
6.49353e-11
2.92703e-11
2.56509e-11
1.82107e-11
9.05056e-12
5.57795e-12
4.03509e-12
2.9729e-12
2.14449e-12
1.56385e-12
1.17217e-12
8.98918e-13
7.00919e-13
5.54451e-13
4.44547e-13
3.6079e-13
2.9595e-13
2.45097e-13
2.0482e-13
1.72667e-13
1.46799e-13
1.25838e-13
1.08751e-13
9.48321e-14
8.35895e-14
7.4759e-14
6.81542e-14
6.37555e-14
6.15695e-14
6.18115e-14
6.48461e-14
7.1374e-14
8.27393e-14
1.00825e-13
1.2976e-13
1.74592e-13
2.47445e-13
3.62392e-13
5.52606e-13
8.54231e-13
1.33418e-12
2.03707e-12
2.95738e-12
3.93676e-12
4.58724e-12
4.54574e-12
4.21061e-10
3.06505e-10
1.01504e-09
2.38255e-10
5.81799e-11
3.15376e-11
2.55916e-11
2.01782e-11
1.02622e-11
6.23976e-12
4.51494e-12
3.37057e-12
2.45666e-12
1.79865e-12
1.35141e-12
1.03946e-12
8.13023e-13
6.44879e-13
5.18261e-13
4.21497e-13
3.4641e-13
2.87397e-13
2.40574e-13
2.0314e-13
1.72983e-13
1.48509e-13
1.28526e-13
1.12221e-13
9.90436e-14
8.87005e-14
8.10064e-14
7.59472e-14
7.35699e-14
7.41278e-14
7.81053e-14
8.63355e-14
1.00468e-13
1.22779e-13
1.58085e-13
2.12508e-13
2.99476e-13
4.35567e-13
6.55061e-13
9.97113e-13
1.52258e-12
2.26889e-12
3.21017e-12
4.17614e-12
4.81525e-12
4.80194e-12
3.24801e-10
2.83821e-10
8.86515e-10
2.74346e-10
5.16346e-11
3.39244e-11
2.53612e-11
2.21007e-11
1.16467e-11
6.98933e-12
5.04596e-12
3.81312e-12
2.81156e-12
2.06842e-12
1.55794e-12
1.20186e-12
9.43108e-13
7.50239e-13
6.04434e-13
4.92664e-13
4.05713e-13
3.37225e-13
2.82782e-13
2.39188e-13
2.04015e-13
1.75421e-13
1.52031e-13
1.32911e-13
1.17446e-13
1.05316e-13
9.63401e-14
9.0517e-14
8.79425e-14
8.89226e-14
9.40785e-14
1.04416e-13
1.21924e-13
1.49365e-13
1.92308e-13
2.58101e-13
3.61535e-13
5.21725e-13
7.73913e-13
1.15924e-12
1.73233e-12
2.52138e-12
3.48365e-12
4.43935e-12
5.06979e-12
5.08383e-12
2.45697e-10
2.68266e-10
7.5895e-10
3.09884e-10
4.63648e-11
3.61134e-11
2.50866e-11
2.38846e-11
1.32125e-11
7.83938e-12
5.63384e-12
4.30272e-12
3.21273e-12
2.37729e-12
1.79524e-12
1.38895e-12
1.09359e-12
8.72641e-13
7.04903e-13
5.75883e-13
4.75241e-13
3.95785e-13
3.32498e-13
2.81735e-13
2.40711e-13
2.07296e-13
1.79906e-13
1.5747e-13
1.39305e-13
1.25064e-13
1.14581e-13
1.07873e-13
1.05097e-13
1.06629e-13
1.13244e-13
1.26166e-13
1.47764e-13
1.81379e-13
2.33396e-13
3.12525e-13
4.34958e-13
6.22258e-13
9.10411e-13
1.34135e-12
1.9632e-12
2.79341e-12
3.77508e-12
4.72182e-12
5.34412e-12
5.38194e-12
1.82365e-10
2.56576e-10
6.39609e-10
3.40733e-10
4.32133e-11
3.77623e-11
2.49032e-11
2.54375e-11
1.49562e-11
8.80383e-12
6.28519e-12
4.84139e-12
3.66314e-12
2.72937e-12
2.067e-12
1.60373e-12
1.26702e-12
1.01435e-12
8.21659e-13
6.72892e-13
5.56509e-13
4.64403e-13
3.90888e-13
3.31813e-13
2.83983e-13
2.44943e-13
2.12867e-13
1.86533e-13
1.65184e-13
1.48454e-13
1.36199e-13
1.28468e-13
1.25487e-13
1.27723e-13
1.3613e-13
1.52193e-13
1.78707e-13
2.19683e-13
2.82388e-13
3.7699e-13
5.21097e-13
7.3851e-13
1.06565e-12
1.54401e-12
2.21479e-12
3.08384e-12
4.08222e-12
5.01989e-12
5.6331e-12
5.68923e-12
1.32993e-10
2.4593e-10
5.32241e-10
3.63245e-10
4.26542e-11
3.85591e-11
2.49276e-11
2.66869e-11
1.68565e-11
9.89704e-12
7.00751e-12
5.43113e-12
4.16504e-12
3.12858e-12
2.377e-12
1.8493e-12
1.46606e-12
1.17773e-12
9.56819e-13
7.85558e-13
6.51158e-13
5.44523e-13
4.59227e-13
3.90549e-13
3.34834e-13
2.89251e-13
2.51703e-13
2.20797e-13
1.95703e-13
1.76043e-13
1.61706e-13
1.52789e-13
1.496e-13
1.52719e-13
1.63301e-13
1.83145e-13
2.15515e-13
2.65179e-13
3.40346e-13
4.52689e-13
6.21214e-13
8.71626e-13
1.24037e-12
1.76724e-12
2.48608e-12
3.39086e-12
4.40229e-12
5.32948e-12
5.93134e-12
5.9989e-12
9.54912e-11
2.34088e-10
4.38351e-10
3.75045e-10
4.48879e-11
3.83359e-11
2.52293e-11
2.75975e-11
1.8872e-11
1.11327e-11
7.80909e-12
6.07423e-12
4.71983e-12
3.5784e-12
2.72904e-12
2.12887e-12
1.69342e-12
1.36522e-12
1.11259e-12
9.15853e-13
7.60931e-13
6.37688e-13
5.38884e-13
4.59164e-13
3.94349e-13
3.41185e-13
2.97266e-13
2.61013e-13
2.31524e-13
2.0842e-13
1.91641e-13
1.81346e-13
1.77941e-13
1.82147e-13
1.95341e-13
2.19685e-13
2.58962e-13
3.18762e-13
4.0829e-13
5.40719e-13
7.36364e-13
1.0224e-12
1.43476e-12
2.0104e-12
2.77528e-12
3.71171e-12
4.73161e-12
5.64557e-12
6.23259e-12
6.30371e-12
6.76697e-11
2.19752e-10
3.58498e-10
3.75245e-10
4.99387e-11
3.71664e-11
2.5814e-11
2.81806e-11
2.0941e-11
1.25221e-11
8.69896e-12
6.77357e-12
5.32809e-12
4.08166e-12
3.12681e-12
2.44565e-12
1.95183e-12
1.57928e-12
1.29124e-12
1.06582e-12
8.87653e-13
7.45521e-13
6.31308e-13
5.3895e-13
4.63681e-13
4.01769e-13
3.5046e-13
3.07974e-13
2.73341e-13
2.46199e-13
2.26556e-13
2.14657e-13
2.11023e-13
2.16536e-13
2.32826e-13
2.62461e-13
3.09788e-13
3.8127e-13
4.87131e-13
6.41979e-13
8.67274e-13
1.19114e-12
1.64833e-12
2.27194e-12
3.07959e-12
4.04257e-12
5.06541e-12
5.96215e-12
6.52966e-12
6.59578e-12
4.74588e-11
2.02532e-10
2.92411e-10
3.64341e-10
5.76096e-11
3.53446e-11
2.66224e-11
2.84911e-11
2.29864e-11
1.4071e-11
9.68662e-12
7.53286e-12
5.98976e-12
4.64027e-12
3.57369e-12
2.80283e-12
2.24397e-12
1.82234e-12
1.49503e-12
1.23754e-12
1.0332e-12
8.697e-13
7.38002e-13
6.31255e-13
5.44036e-13
4.72072e-13
4.12225e-13
3.62497e-13
3.21861e-13
2.89993e-13
2.66996e-13
2.53223e-13
2.49329e-13
2.56384e-13
2.76291e-13
3.12065e-13
3.68651e-13
4.53411e-13
5.77578e-13
7.57059e-13
1.0142e-12
1.37748e-12
1.87975e-12
2.54932e-12
3.3952e-12
4.3785e-12
5.39781e-12
6.2722e-12
6.81449e-12
6.8667e-12
3.3041e-11
1.82755e-10
2.39028e-10
3.43982e-10
6.73724e-11
3.3297e-11
2.75404e-11
2.8618e-11
2.49244e-11
1.57759e-11
1.07816e-11
8.35668e-12
6.70442e-12
5.25507e-12
4.07258e-12
3.20344e-12
2.57244e-12
2.09673e-12
1.72616e-12
1.43309e-12
1.19945e-12
1.01193e-12
8.60496e-13
7.37456e-13
6.36645e-13
5.53185e-13
4.83511e-13
4.254e-13
3.77778e-13
3.40394e-13
3.13473e-13
2.97504e-13
2.93293e-13
3.0212e-13
3.26184e-13
3.68975e-13
4.36057e-13
5.35683e-13
6.80036e-13
8.86117e-13
1.17682e-12
1.58028e-12
2.12673e-12
2.83894e-12
3.71716e-12
4.71347e-12
5.72193e-12
6.56785e-12
7.07841e-12
7.10778e-12
2.29069e-11
1.61296e-10
1.96709e-10
3.16612e-10
7.83365e-11
3.14906e-11
2.84228e-11
2.8666e-11
2.66781e-11
1.762e-11
1.19929e-11
9.25042e-12
7.47168e-12
5.92575e-12
4.62567e-12
3.65033e-12
2.93972e-12
2.40464e-12
1.98675e-12
1.65447e-12
1.38828e-12
1.17389e-12
1.00032e-12
8.58931e-13
7.4274e-13
6.46193e-13
5.65258e-13
4.97476e-13
4.41751e-13
3.97942e-13
3.66432e-13
3.47877e-13
3.43253e-13
3.54064e-13
3.82824e-13
4.33505e-13
5.12294e-13
6.28287e-13
7.94505e-13
1.02876e-12
1.35406e-12
1.79751e-12
2.38596e-12
3.1361e-12
4.0395e-12
5.04053e-12
6.03007e-12
6.84067e-12
7.31246e-12
7.31039e-12
1.58558e-11
1.39388e-10
1.63528e-10
2.85003e-10
8.9338e-11
3.03543e-11
2.91356e-11
2.87341e-11
2.81917e-11
1.95714e-11
1.33276e-11
1.02201e-11
8.29163e-12
6.65094e-12
5.23423e-12
4.14593e-12
3.34809e-12
2.74809e-12
2.27872e-12
1.90357e-12
1.60146e-12
1.35723e-12
1.15896e-12
9.97022e-13
8.6352e-13
7.52147e-13
6.58358e-13
5.79461e-13
5.14367e-13
4.63091e-13
4.26221e-13
4.04608e-13
3.99415e-13
4.12381e-13
4.46335e-13
5.05731e-13
5.97348e-13
7.31033e-13
9.20471e-13
1.18394e-12
1.54403e-12
2.02616e-12
2.65305e-12
3.43503e-12
4.35532e-12
5.35189e-12
6.31388e-12
7.08188e-12
7.50771e-12
7.46633e-12
1.09788e-11
1.18187e-10
1.37567e-10
2.51906e-10
9.91318e-11
3.02094e-11
2.96051e-11
2.88982e-11
2.94415e-11
2.15839e-11
1.479e-11
1.12722e-11
9.16533e-12
7.42861e-12
5.8985e-12
4.69227e-12
3.79968e-12
3.12891e-12
2.60383e-12
2.18215e-12
1.84069e-12
1.56351e-12
1.33784e-12
1.15301e-12
1.00013e-12
8.72032e-13
7.63632e-13
6.72002e-13
5.96107e-13
5.36175e-13
4.93047e-13
4.67805e-13
4.61806e-13
4.77026e-13
5.16599e-13
5.8543e-13
6.9083e-13
8.43257e-13
1.05682e-12
1.34985e-12
1.74398e-12
2.26224e-12
2.92266e-12
3.72909e-12
4.65695e-12
5.63929e-12
6.5648e-12
7.28277e-12
7.65571e-12
7.56822e-12
7.61977e-12
9.84121e-11
1.17082e-10
2.19675e-10
1.06669e-10
3.12093e-11
2.98378e-11
2.91972e-11
3.04389e-11
2.36004e-11
1.6379e-11
1.24132e-11
1.00949e-11
8.25638e-12
6.61766e-12
5.29073e-12
4.29634e-12
3.54875e-12
2.9636e-12
2.49176e-12
2.1075e-12
1.79418e-12
1.53828e-12
1.32809e-12
1.1536e-12
1.00673e-12
8.81786e-13
7.75623e-13
6.87312e-13
6.17368e-13
5.66942e-13
5.37376e-13
5.3023e-13
5.47699e-13
5.93194e-13
6.72015e-13
7.91904e-13
9.63744e-13
1.20176e-12
1.52389e-12
1.95022e-12
2.50079e-12
3.18851e-12
4.01086e-12
4.93622e-12
5.8942e-12
6.77428e-12
7.43504e-12
7.74882e-12
7.60987e-12
5.30929e-12
8.05325e-11
1.00605e-10
1.89843e-10
1.11311e-10
3.33296e-11
2.9918e-11
2.96298e-11
3.12261e-11
2.55609e-11
1.80857e-11
1.36487e-11
1.10836e-11
9.13208e-12
7.38982e-12
5.94192e-12
4.83961e-12
4.00902e-12
3.35934e-12
2.83373e-12
2.40325e-12
2.05054e-12
1.76148e-12
1.52332e-12
1.32486e-12
1.157e-12
1.01338e-12
8.90683e-13
7.88142e-13
7.06644e-13
6.47717e-13
6.1299e-13
6.04221e-13
6.23795e-13
6.75345e-13
7.64479e-13
8.99231e-13
1.09067e-12
1.3528e-12
1.70266e-12
2.15822e-12
2.73604e-12
3.44362e-12
4.27242e-12
5.18473e-12
6.1082e-12
6.93424e-12
7.53122e-12
7.7806e-12
7.58658e-12
3.71532e-12
6.48982e-11
8.6994e-11
1.63166e-10
1.12884e-10
3.63973e-11
2.99894e-11
3.01667e-11
3.18652e-11
2.74119e-11
1.98924e-11
1.49831e-11
1.21353e-11
1.00542e-11
8.21224e-12
6.64557e-12
5.43059e-12
4.51094e-12
3.79209e-12
3.20911e-12
2.72907e-12
2.33369e-12
2.00844e-12
1.73959e-12
1.51466e-12
1.32341e-12
1.1588e-12
1.01734e-12
8.98532e-13
8.03737e-13
7.34922e-13
6.94033e-13
6.83005e-13
7.0436e-13
7.61876e-13
8.61349e-13
1.01092e-12
1.22158e-12
1.50669e-12
1.88195e-12
2.36266e-12
2.96148e-12
3.68049e-12
4.50563e-12
5.39419e-12
6.27327e-12
7.03733e-12
7.56488e-12
7.74604e-12
7.49531e-12
2.6107e-12
5.16493e-11
7.54378e-11
1.39915e-10
1.11629e-10
4.01202e-11
3.0216e-11
3.07719e-11
3.24254e-11
2.91148e-11
2.17721e-11
1.64179e-11
1.32545e-11
1.10222e-11
9.08168e-12
7.40041e-12
6.06984e-12
5.05541e-12
4.26263e-12
3.6187e-12
3.0858e-12
2.64451e-12
2.27997e-12
1.97759e-12
1.72353e-12
1.50631e-12
1.31817e-12
1.15549e-12
1.01816e-12
9.08098e-13
8.27811e-13
7.79572e-13
7.6546e-13
7.88056e-13
8.51178e-13
9.60657e-13
1.12453e-12
1.35337e-12
1.65953e-12
2.05685e-12
2.55753e-12
3.17011e-12
3.89135e-12
4.70238e-12
5.55668e-12
6.38215e-12
7.07726e-12
7.53102e-12
7.64183e-12
7.33487e-12
1.84145e-12
4.07128e-11
6.54028e-11
1.20038e-10
1.0807e-10
4.41306e-11
3.07418e-11
3.14191e-11
3.297e-11
3.06515e-11
2.36902e-11
1.79511e-11
1.44453e-11
1.20366e-11
9.99484e-12
8.20429e-12
6.75729e-12
5.64305e-12
4.77151e-12
4.06296e-12
3.47401e-12
2.9836e-12
2.57664e-12
2.23777e-12
1.95177e-12
1.70582e-12
1.49138e-12
1.30478e-12
1.14639e-12
1.01886e-12
9.25302e-13
8.68324e-13
8.50091e-13
8.73145e-13
9.412e-13
1.05994e-12
1.23703e-12
1.48234e-12
1.80676e-12
2.22185e-12
2.73639e-12
3.35467e-12
4.06847e-12
4.85494e-12
5.66498e-12
6.42859e-12
7.04909e-12
7.42622e-12
7.46644e-12
7.10592e-12
1.30307e-12
3.18733e-11
5.6564e-11
1.03266e-10
1.02858e-10
4.80482e-11
3.16622e-11
3.21036e-11
3.35477e-11
3.20257e-11
2.56087e-11
1.95758e-11
1.57112e-11
1.30993e-11
1.09488e-11
9.05424e-12
7.49211e-12
6.2741e-12
5.31902e-12
4.54209e-12
3.89392e-12
3.35126e-12
2.89872e-12
2.5203e-12
2.19939e-12
1.92174e-12
1.67798e-12
1.46448e-12
1.28225e-12
1.13481e-12
1.02596e-12
9.58636e-13
9.35022e-13
9.57478e-13
1.02945e-12
1.15625e-12
1.34492e-12
1.60426e-12
1.94332e-12
2.37104e-12
2.89251e-12
3.50786e-12
4.2044e-12
4.95621e-12
5.71288e-12
6.40761e-12
6.94939e-12
7.2488e-12
7.2202e-12
6.8109e-12
9.24566e-13
2.4844e-11
4.87368e-11
8.92095e-11
9.66373e-11
5.15436e-11
3.30098e-11
3.28453e-11
3.419e-11
3.326e-11
2.74911e-11
2.12796e-11
1.70543e-11
1.42125e-11
1.19413e-11
9.94678e-12
8.27268e-12
6.94832e-12
5.90517e-12
5.05599e-12
4.34544e-12
3.74745e-12
3.24618e-12
2.82505e-12
2.46608e-12
2.15353e-12
1.8772e-12
1.63354e-12
1.42441e-12
1.25436e-12
1.12796e-12
1.04849e-12
1.018e-12
1.03852e-12
1.11302e-12
1.24622e-12
1.44425e-12
1.71448e-12
2.06383e-12
2.49828e-12
3.01918e-12
3.62271e-12
4.29234e-12
5.00009e-12
5.69543e-12
6.31578e-12
6.77647e-12
6.99893e-12
6.90534e-12
6.45405e-12
6.57472e-13
1.93215e-11
4.1816e-11
7.74469e-11
8.99637e-11
5.43839e-11
3.47543e-11
3.36834e-11
3.49143e-11
3.43893e-11
2.93081e-11
2.30452e-11
1.84744e-11
1.53789e-11
1.29711e-11
1.08782e-11
9.0966e-12
7.6649e-12
6.52963e-12
5.60426e-12
4.82809e-12
4.17175e-12
3.6186e-12
3.15151e-12
2.75117e-12
2.40031e-12
2.08786e-12
1.81051e-12
1.57113e-12
1.37552e-12
1.22913e-12
1.13549e-12
1.09642e-12
1.1134e-12
1.18869e-12
1.32616e-12
1.53075e-12
1.80812e-12
2.16273e-12
2.59747e-12
3.10996e-12
3.69282e-12
4.3264e-12
4.98168e-12
5.60917e-12
6.15138e-12
6.53051e-12
6.6787e-12
6.52591e-12
6.0412e-12
4.68464e-13
1.50202e-11
3.57338e-11
6.75778e-11
8.32587e-11
5.64522e-11
3.68122e-11
3.46633e-11
3.57293e-11
3.54537e-11
3.10409e-11
2.48508e-11
1.99684e-11
1.66009e-11
1.4038e-11
1.18448e-11
9.9607e-12
8.42236e-12
7.1917e-12
6.18617e-12
5.34106e-12
4.62334e-12
4.01517e-12
3.4988e-12
3.05361e-12
2.66077e-12
2.30837e-12
1.99349e-12
1.72026e-12
1.49593e-12
1.3269e-12
1.21692e-12
1.16737e-12
1.17896e-12
1.25298e-12
1.39217e-12
1.60002e-12
1.88023e-12
2.23459e-12
2.66282e-12
3.159e-12
3.71267e-12
4.3019e-12
4.8976e-12
5.45241e-12
5.91456e-12
6.2136e-12
6.29209e-12
6.08772e-12
5.57961e-12
3.34455e-13
1.16887e-11
3.04371e-11
5.92542e-11
7.68032e-11
5.77385e-11
3.90629e-11
3.582e-11
3.66401e-11
3.64919e-11
3.2683e-11
2.6673e-11
2.15297e-11
1.78797e-11
1.51421e-11
1.28434e-11
1.08613e-11
9.21849e-12
7.89014e-12
6.80064e-12
5.88313e-12
5.10096e-12
4.43464e-12
3.86559e-12
3.37189e-12
2.93314e-12
2.5367e-12
2.18017e-12
1.86925e-12
1.61284e-12
1.4184e-12
1.28979e-12
1.22774e-12
1.23189e-12
1.30229e-12
1.4403e-12
1.64771e-12
1.92604e-12
2.27431e-12
2.68913e-12
3.16136e-12
3.67798e-12
4.21569e-12
4.74624e-12
5.22535e-12
5.60748e-12
5.82985e-12
5.84501e-12
5.59823e-12
5.07788e-12
2.39352e-13
9.11406e-12
2.58764e-11
5.21912e-11
7.07624e-11
5.83111e-11
4.13733e-11
3.71693e-11
3.76525e-11
3.75371e-11
3.42393e-11
2.8489e-11
2.3148e-11
1.92147e-11
1.6284e-11
1.38713e-11
1.17941e-11
1.00503e-11
8.62313e-12
7.44616e-12
6.45266e-12
5.60287e-12
4.87525e-12
4.25007e-12
3.70402e-12
3.2152e-12
2.77033e-12
2.36778e-12
2.01511e-12
1.72315e-12
1.50048e-12
1.35092e-12
1.2743e-12
1.26885e-12
1.33311e-12
1.46679e-12
1.66975e-12
1.94124e-12
2.27751e-12
2.67218e-12
3.11332e-12
3.586e-12
4.0664e-12
4.52797e-12
4.93032e-12
5.23445e-12
5.38543e-12
5.3452e-12
5.06647e-12
4.54571e-12
1.71837e-13
7.12431e-12
2.19899e-11
4.6164e-11
6.5219e-11
5.82832e-11
4.36203e-11
3.87055e-11
3.87745e-11
3.86158e-11
3.57236e-11
3.02797e-11
2.48103e-11
2.06038e-11
1.7464e-11
1.49261e-11