/*--------------------------------*- C++ -*----------------------------------*\
  =========                 |
  \\      /  F ield         | OpenFOAM: The Open Source CFD Toolbox
   \\    /   O peration     | Website:  https://openfoam.org
    \\  /    A nd           | Version:  7
     \\/     M anipulation  |
\*---------------------------------------------------------------------------*/
FoamFile
{
    version     2.0;
    format      ascii;
    class       volScalarField;
    location    "0.09";
    object      p;
}
// * * * * * * * * * * * * * * * * * * * * * * * * * * * * * * * * * * * * * //

dimensions      [0 2 -2 0 0 0 0];

internalField   nonuniform List<scalar> 
70000
(
0.10274
0.0252813
0.0127529
0.0151874
0.0153441
0.0142713
0.0133136
0.0125828
0.0119687
0.0114233
0.0109335
0.0104911
0.0100885
0.00971928
0.00937786
0.00905988
0.00876178
0.00848063
0.008214
0.00795985
0.00771643
0.00748223
0.00725593
0.00703636
0.00682245
0.00661323
0.0064078
0.00620527
0.00600486
0.00580571
0.00560708
0.0054081
0.00520802
0.00500585
0.00480087
0.0045919
0.00437814
0.00415836
0.00393129
0.00369648
0.00345051
0.00319695
0.00292456
0.00265137
0.00234069
0.00205693
0.00168343
0.00143342
0.00092853
0.000857507
0.0983725
0.0256482
0.0129558
0.015283
0.0153987
0.0143074
0.0133417
0.0126061
0.0119882
0.0114401
0.010948
0.0105039
0.0101
0.00972967
0.00938731
0.00906854
0.00876976
0.00848803
0.0082209
0.00796629
0.00772248
0.00748792
0.00726131
0.00704145
0.00682729
0.00661784
0.00641219
0.00620947
0.00600887
0.00580956
0.00561078
0.00541165
0.00521143
0.00500914
0.00480403
0.00459494
0.00438106
0.00416117
0.00393397
0.00369904
0.00345293
0.00319923
0.00292663
0.00265327
0.0023423
0.00205824
0.00168447
0.00143259
0.000932342
0.000896088
0.094792
0.0265883
0.0132962
0.0154121
0.0154729
0.0143521
0.0133741
0.0126323
0.01201
0.0114585
0.010964
0.0105179
0.0101125
0.00974088
0.00939748
0.00907784
0.00877832
0.00849595
0.00822827
0.00797318
0.00772893
0.007494
0.00726705
0.00704689
0.00683246
0.00662275
0.00641688
0.00621396
0.00601317
0.00581369
0.00561475
0.00541547
0.00521512
0.0050127
0.00480748
0.00459827
0.00438429
0.00416429
0.00393699
0.00370196
0.00345572
0.00320192
0.00292915
0.0026557
0.0023444
0.00206019
0.00168611
0.00143224
0.000951176
0.000931611
0.091698
0.0276902
0.0137659
0.0155861
0.0155739
0.0144097
0.0134123
0.0126623
0.0120347
0.011479
0.0109814
0.0105331
0.0101259
0.00975284
0.00940828
0.00908767
0.00878734
0.00850427
0.00823598
0.00798038
0.00773567
0.00750034
0.00727303
0.00705255
0.00683782
0.00662786
0.00642176
0.00621862
0.00601765
0.00581799
0.0056189
0.00541948
0.005219
0.00501646
0.00481113
0.00460183
0.00438776
0.00416769
0.00394031
0.00370522
0.00345891
0.00320507
0.00293222
0.0026587
0.00234736
0.0020628
0.00168967
0.00143202
0.000983194
0.000966077
0.0887388
0.0287869
0.014332
0.0158068
0.0157085
0.0144876
0.0134613
0.0126994
0.0120647
0.0115037
0.011002
0.0105507
0.0101413
0.00976646
0.00942047
0.00909869
0.00879737
0.00851348
0.00824449
0.00798827
0.00774304
0.00750724
0.00727952
0.00705868
0.00684364
0.00663339
0.00642703
0.00622366
0.00602248
0.00582264
0.00562338
0.00542382
0.00522321
0.00502056
0.00481514
0.00460576
0.00439163
0.00417152
0.00394411
0.00370902
0.00346273
0.00320891
0.00293616
0.00266263
0.00235167
0.00206656
0.00169616
0.00143353
0.00102586
0.00100834
0.0858299
0.0298261
0.0149475
0.0160541
0.0158709
0.0145875
0.0135238
0.0127458
0.012102
0.0115341
0.0110273
0.0105721
0.0101597
0.00978265
0.00943484
0.00911158
0.00880904
0.00852412
0.00825426
0.0079973
0.00775142
0.00751507
0.00728686
0.00706559
0.00685016
0.00663958
0.00643291
0.00622928
0.00602787
0.00582782
0.00562838
0.00542866
0.00522792
0.00502517
0.00481966
0.00461023
0.00439606
0.00417596
0.00394859
0.00371357
0.0034674
0.00321373
0.00294129
0.0026679
0.00235785
0.00207212
0.00170658
0.00143868
0.00107723
0.00106076
0.0829654
0.0307889
0.0155785
0.0163062
0.0160478
0.0147046
0.0135986
0.0128014
0.0121471
0.0115711
0.0110579
0.010598
0.010182
0.00980209
0.00945203
0.00912692
0.00882287
0.00853667
0.00826573
0.00800786
0.00776119
0.00752415
0.00729535
0.00707355
0.00685766
0.00664667
0.00643965
0.00623571
0.00603401
0.00583373
0.00563407
0.00543418
0.0052333
0.00503043
0.00482485
0.00461539
0.00440122
0.00418118
0.00395391
0.00371908
0.00347317
0.00321982
0.00294796
0.00267492
0.00236647
0.00208021
0.00172183
0.0014495
0.00113597
0.00112332
0.0801512
0.0316673
0.0162092
0.0165514
0.0162284
0.0148326
0.0136824
0.0128643
0.0121987
0.0116139
0.0110936
0.0106283
0.0102082
0.00982504
0.00947233
0.00914505
0.00883918
0.00855147
0.00827924
0.00802026
0.00777264
0.00753478
0.00730525
0.00708283
0.00686639
0.00665491
0.00644745
0.00624313
0.00604111
0.00584053
0.00564064
0.00544055
0.0052395
0.00503653
0.00483087
0.00462141
0.00440728
0.00418737
0.00396029
0.00372576
0.00348027
0.00322745
0.0029565
0.00268412
0.00237808
0.0020916
0.00174268
0.00146777
0.00120094
0.00119521
0.0773932
0.0324584
0.0168344
0.0167857
0.0164066
0.0149664
0.0137718
0.0129317
0.0122549
0.0116612
0.0111336
0.0106625
0.010238
0.00985125
0.00949562
0.00916592
0.00885802
0.00856859
0.00829489
0.00803465
0.00778594
0.00754712
0.00731676
0.00709359
0.0068765
0.00666445
0.0064565
0.00625173
0.00604932
0.00584841
0.00564824
0.00544792
0.00524669
0.00504361
0.00483789
0.00462844
0.0044144
0.00419468
0.00396789
0.00373381
0.00348894
0.00323689
0.00296726
0.00269586
0.00239316
0.00210702
0.00176967
0.00149485
0.00127116
0.00127531
0.0746959
0.0331621
0.0174529
0.0170087
0.0165793
0.0151035
0.0138647
0.0130018
0.0123137
0.0117114
0.0111764
0.0106996
0.0102705
0.0098801
0.00952144
0.00918919
0.00887913
0.00858786
0.00831258
0.00805096
0.00780105
0.00756117
0.00732988
0.0071059
0.00688808
0.00667539
0.00646686
0.00626159
0.00605875
0.00585747
0.00565697
0.0054564
0.00525498
0.00505178
0.00484601
0.00463661
0.0044227
0.00420327
0.00397686
0.00374339
0.00349936
0.00324833
0.00298047
0.00271047
0.00241205
0.00212707
0.00180306
0.00153153
0.00134569
0.0013616
0.0720627
0.0337788
0.018064
0.0172213
0.0167453
0.0152423
0.0139603
0.0130734
0.0123741
0.0117634
0.0112212
0.0107386
0.0103049
0.00991086
0.00954915
0.00921432
0.00890207
0.0086089
0.00833198
0.00806893
0.00781776
0.00757678
0.0073445
0.00711965
0.00690105
0.00668766
0.00647852
0.00627271
0.00606939
0.0058677
0.00566687
0.00546602
0.00526441
0.00506109
0.00485528
0.00464598
0.00443225
0.00421319
0.0039873
0.0037546
0.00351164
0.00326191
0.00299628
0.00272812
0.00243492
0.00215215
0.00184271
0.00157787
0.00142363
0.00145162
0.0694965
0.0343087
0.0186662
0.0174244
0.0169035
0.0153819
0.014058
0.0131462
0.0124354
0.0118165
0.0112672
0.0107788
0.0103407
0.00994293
0.00957819
0.0092408
0.00892635
0.00863129
0.00835271
0.00808822
0.00783578
0.00759366
0.00736039
0.00713463
0.00691523
0.00670113
0.00649135
0.00628498
0.00608116
0.00587905
0.00567786
0.00547675
0.00527493
0.00507152
0.0048657
0.00465654
0.00444305
0.00422445
0.0039992
0.00376743
0.00352579
0.00327764
0.0030147
0.00274885
0.0024617
0.00218236
0.00188818
0.00163316
0.00150413
0.00154318
0.0669998
0.0347525
0.0192575
0.0176194
0.0170533
0.0155216
0.0141577
0.0132198
0.0124974
0.0118705
0.0113141
0.01082
0.0103773
0.00997592
0.00960817
0.00926822
0.00895159
0.00865465
0.00837444
0.0081085
0.00785479
0.00761155
0.00737726
0.00715061
0.0069304
0.00671558
0.00650516
0.00629822
0.00609391
0.00589138
0.00568984
0.00548846
0.00528646
0.00508298
0.00487719
0.0046682
0.00445504
0.00423699
0.00401251
0.00378182
0.00354175
0.00329541
0.00303561
0.00277257
0.00249212
0.00221748
0.0019387
0.00169599
0.00158632
0.00163417
0.0645753
0.0351109
0.0198355
0.0178075
0.0171942
0.0156605
0.0142594
0.0132943
0.0125598
0.0119251
0.0113617
0.0108618
0.0104146
0.0100096
0.00963885
0.00929636
0.00897756
0.00867874
0.0083969
0.00812953
0.00787456
0.00763019
0.00739491
0.00716736
0.00694636
0.00673081
0.00651976
0.00631226
0.00610746
0.00590452
0.00570265
0.00550102
0.00529886
0.00509533
0.00488961
0.00468086
0.00446809
0.00425067
0.0040271
0.00379763
0.00355934
0.00331507
0.00305877
0.00279901
0.00252575
0.00225702
0.00199331
0.0017646
0.00166932
0.00172282
0.0622251
0.0353852
0.0203973
0.0179902
0.0173257
0.0157978
0.0143628
0.0133697
0.0126227
0.0119803
0.0114101
0.0109043
0.0104526
0.0100439
0.00967013
0.00932509
0.00900411
0.00870341
0.00841994
0.00815115
0.00789492
0.00764944
0.00741316
0.00718472
0.00696293
0.00674668
0.00653499
0.00632694
0.00612167
0.00591833
0.00571614
0.00551429
0.005312
0.00510846
0.00490285
0.00469438
0.00448208
0.00426538
0.00404283
0.0038147
0.0035784
0.00333641
0.0030839
0.00282787
0.00256207
0.00230032
0.002051
0.00183709
0.00175219
0.00180789
0.0599514
0.0355772
0.0209397
0.0181692
0.0174477
0.0159324
0.0144678
0.0134461
0.0126859
0.0120359
0.011459
0.0109475
0.0104911
0.0100788
0.00970196
0.00935436
0.00903119
0.00872861
0.0084435
0.00817327
0.00791578
0.00766918
0.00743191
0.00720259
0.00698001
0.00676306
0.00655076
0.00634216
0.00613643
0.00593271
0.00573022
0.00552816
0.00532577
0.00512225
0.00491679
0.00470866
0.00449689
0.00428097
0.00405955
0.00383289
0.00359873
0.0033592
0.0031107
0.00285881
0.00260058
0.00234662
0.0021108
0.00191171
0.0018341
0.00188873
0.0577559
0.0356888
0.0214596
0.0183458
0.0175601
0.0160634
0.0145741
0.0135234
0.0127494
0.012092
0.0115085
0.0109912
0.0105302
0.0101142
0.00973432
0.00938414
0.00905877
0.00875429
0.00846753
0.00819587
0.00793711
0.00768939
0.00745113
0.00722092
0.00699755
0.00677991
0.00656699
0.00635786
0.00615167
0.00594759
0.00574481
0.00554257
0.0053401
0.00513663
0.00493136
0.00472361
0.00451243
0.00429736
0.00407716
0.00385205
0.00362017
0.00338328
0.00313892
0.00289152
0.00264083
0.00239522
0.00217191
0.00198702
0.0019144
0.00196521
0.0556398
0.0357224
0.0219542
0.0185212
0.017663
0.0161898
0.0146812
0.0136016
0.0128131
0.0121484
0.0115586
0.0110355
0.0105698
0.0101501
0.0097672
0.00941443
0.00908684
0.00878045
0.00849204
0.00821892
0.00795889
0.00771005
0.00747078
0.00723969
0.00701553
0.00679719
0.00658366
0.00637401
0.00616737
0.00596293
0.00575988
0.00555748
0.00535495
0.00515155
0.00494652
0.00473918
0.00452864
0.00431448
0.00409558
0.00387212
0.00364261
0.00340851
0.00316837
0.00292573
0.00268247
0.00244552
0.00223372
0.00206195
0.00199268
0.00203754
0.0536039
0.0356812
0.0224204
0.0186963
0.0177566
0.0163105
0.0147889
0.0136808
0.0128769
0.0122051
0.0116092
0.0110804
0.01061
0.0101866
0.00980058
0.00944522
0.0091154
0.00880709
0.00851701
0.00824244
0.00798112
0.00773114
0.00749087
0.00725889
0.00703394
0.0068149
0.00660076
0.00639059
0.00618351
0.00597872
0.00577542
0.00557286
0.0053703
0.00516701
0.00496224
0.00475535
0.00454551
0.00433231
0.00411477
0.00389303
0.00366598
0.00343479
0.00319893
0.00296127
0.00272525
0.00249706
0.0022958
0.00213583
0.00206873
0.0021062
0.0516486
0.0355685
0.0228555
0.0188716
0.0178415
0.0164248
0.0148965
0.013761
0.0129409
0.0122619
0.0116602
0.0111258
0.0106507
0.0102235
0.00983447
0.00947651
0.00914445
0.00883421
0.00854245
0.00826641
0.0080038
0.00775268
0.0075114
0.00727852
0.00705278
0.00683304
0.0066183
0.00640761
0.0062001
0.00599497
0.00579143
0.00558874
0.00538616
0.005183
0.00497852
0.00477212
0.00456302
0.00435083
0.00413472
0.00391478
0.00369024
0.00346209
0.00323051
0.00299798
0.00276902
0.00254947
0.00235787
0.00220829
0.00214252
0.00217177
0.0497738
0.0353883
0.0232568
0.0190473
0.0179182
0.0165317
0.0150035
0.013842
0.0130051
0.0123187
0.0117115
0.0111717
0.0106919
0.010261
0.00986885
0.00950828
0.00917399
0.00886181
0.00856836
0.00829084
0.00802693
0.00777467
0.00753237
0.0072986
0.00707206
0.00685163
0.00663628
0.00642508
0.00621715
0.00601168
0.00580791
0.0056051
0.00540253
0.00519952
0.00499537
0.0047895
0.00458118
0.00437006
0.00415543
0.00393736
0.00371539
0.00349037
0.00326307
0.00303577
0.00281365
0.00260253
0.00241977
0.00227917
0.00221413
0.00223485
0.0479792
0.0351449
0.0236218
0.0192233
0.0179875
0.0166305
0.0151091
0.0139237
0.0130693
0.0123755
0.0117632
0.0112181
0.0107336
0.0102989
0.0099037
0.00954054
0.009204
0.00888988
0.00859474
0.00831574
0.00805053
0.00779711
0.0075538
0.00731912
0.0070918
0.00687067
0.00665472
0.006443
0.00623466
0.00602888
0.00582489
0.00562198
0.00541944
0.00521661
0.00501282
0.0048075
0.00460002
0.00439001
0.00417691
0.00396077
0.00374142
0.00351962
0.00329659
0.00307458
0.00285908
0.00265604
0.00248138
0.00234846
0.00228372
0.00229596
0.046264
0.0348431
0.0239483
0.0193991
0.0180501
0.0167208
0.0152125
0.0140061
0.0131335
0.0124321
0.0118149
0.0112648
0.0107757
0.0103372
0.009939
0.00957326
0.00923449
0.00891843
0.00862159
0.00834111
0.00807459
0.00782002
0.00757569
0.00734011
0.00711199
0.00689017
0.00667363
0.00646141
0.00625265
0.00604656
0.00584238
0.00563939
0.0054369
0.00523427
0.00503087
0.00482616
0.00461954
0.0044107
0.00419918
0.00398505
0.00376835
0.00354984
0.00333107
0.00311433
0.00290524
0.0027099
0.00254265
0.00241623
0.00235146
0.00235553
0.0446267
0.0344879
0.0242344
0.0195737
0.0181071
0.0168022
0.015313
0.0140888
0.0131979
0.0124885
0.0118668
0.0113119
0.0108182
0.010376
0.00997475
0.00960644
0.00926545
0.00894744
0.00864891
0.00836695
0.00809912
0.0078434
0.00759805
0.00736157
0.00713266
0.00691015
0.00669301
0.0064803
0.00627115
0.00606476
0.00586039
0.00565734
0.00545492
0.00525254
0.00504955
0.00484548
0.00463978
0.00443215
0.00422226
0.00401019
0.00379618
0.00358102
0.00336649
0.00315499
0.0029521
0.00276401
0.00260354
0.0024826
0.00241753
0.00241394
0.043066
0.0340847
0.0244783
0.019746
0.0181593
0.0168744
0.0154096
0.0141716
0.0132624
0.0125445
0.0119185
0.0113592
0.0108611
0.0104152
0.0100109
0.00964006
0.00929686
0.00897692
0.00867671
0.00839326
0.00812413
0.00786725
0.00762088
0.0073835
0.0071538
0.00693061
0.00671288
0.00649968
0.00629015
0.00608348
0.00587895
0.00567585
0.00547354
0.00527141
0.00506889
0.00486549
0.00466075
0.00445438
0.00424617
0.00403622
0.00382494
0.00361317
0.00340285
0.00319652
0.00299959
0.00281831
0.00266402
0.00254767
0.0024821
0.00247143
0.04158
0.0336388
0.0246788
0.0199141
0.0182078
0.0169376
0.0155016
0.0142541
0.0133269
0.0126002
0.0119701
0.0114067
0.0109044
0.0104547
0.0100475
0.00967411
0.00932872
0.00900686
0.00870496
0.00842003
0.0081496
0.00789158
0.00764419
0.00740592
0.00717543
0.00695156
0.00673326
0.00651959
0.00630968
0.00610274
0.00589806
0.00569495
0.00549276
0.00529093
0.0050889
0.00488621
0.00468247
0.00447741
0.00427093
0.00406315
0.00385462
0.00364627
0.00344013
0.00323887
0.00304768
0.00287274
0.00272409
0.00261159
0.00254535
0.00252822
0.0401663
0.033156
0.0248351
0.0200763
0.0182534
0.0169918
0.015588
0.0143358
0.0133914
0.0126554
0.0120214
0.0114543
0.0109479
0.0104946
0.0100844
0.00970855
0.009361
0.00903724
0.00873367
0.00844728
0.00817555
0.00791638
0.00766798
0.00742882
0.00719756
0.00697302
0.00675415
0.00654001
0.00632974
0.00612256
0.00591775
0.00571464
0.00551261
0.0053111
0.0051096
0.00490767
0.00470496
0.00450127
0.00429655
0.00409099
0.00388524
0.00368032
0.00347832
0.003282
0.00309632
0.00292727
0.00278373
0.00267446
0.00260743
0.00258446
0.0388226
0.0326417
0.0249468
0.0202301
0.0182969
0.0170375
0.0156682
0.0144162
0.0134558
0.0127101
0.0120723
0.0115019
0.0109916
0.0105348
0.0101216
0.00974337
0.00939369
0.00906806
0.00876284
0.00847498
0.00820197
0.00794167
0.00769227
0.00745223
0.0072202
0.006995
0.00677557
0.00656098
0.00635037
0.00614296
0.00593804
0.00573495
0.00553311
0.00533195
0.00513101
0.00492988
0.00472826
0.00452597
0.00432305
0.00411976
0.00391681
0.00371531
0.0035174
0.00332588
0.00314546
0.00298187
0.00284296
0.00273638
0.00266849
0.00264026
0.0375463
0.0321017
0.025014
0.0203731
0.018339
0.0170753
0.0157414
0.0144946
0.01352
0.0127642
0.0121227
0.0115494
0.0110355
0.0105752
0.0101592
0.00977853
0.00942678
0.0090993
0.00879244
0.00850315
0.00822886
0.00796744
0.00771705
0.00747614
0.00724335
0.0070175
0.00679753
0.0065825
0.00637156
0.00616394
0.00595893
0.00575591
0.00555427
0.00535351
0.00515316
0.00495287
0.00475237
0.00455153
0.00435045
0.00414946
0.00394932
0.00375124
0.00355734
0.00337047
0.00319506
0.00303652
0.00290177
0.00279747
0.00272864
0.00269568
0.0363345
0.0315413
0.0250374
0.0205028
0.01838
0.0171058
0.0158072
0.0145704
0.0135839
0.0128179
0.0121724
0.0115966
0.0110795
0.0106159
0.010197
0.00981401
0.00946023
0.00913095
0.00882248
0.00853177
0.00825622
0.00799369
0.00774232
0.00750055
0.00726702
0.00704053
0.00682004
0.00660459
0.00639334
0.00618553
0.00598046
0.00577751
0.00557612
0.00537578
0.00517607
0.00497666
0.00477732
0.00457797
0.00437877
0.0041801
0.00398279
0.0037881
0.00359814
0.00341574
0.00324508
0.0030912
0.0029602
0.0028578
0.00278801
0.0027508
0.0351842
0.0309655
0.0250181
0.0206169
0.01842
0.0171296
0.0158652
0.0146428
0.0136471
0.0128709
0.0122213
0.0116434
0.0111234
0.0106567
0.0102351
0.00984977
0.00949402
0.00916298
0.00885294
0.00856082
0.00828405
0.00802042
0.00776809
0.00752548
0.00729122
0.00706411
0.0068431
0.00662725
0.00641571
0.00620774
0.00600263
0.0057998
0.00559867
0.00539879
0.00519976
0.00500126
0.00480312
0.00460531
0.00440802
0.00421169
0.0040172
0.00382586
0.00363976
0.00346166
0.00329549
0.0031459
0.00301826
0.00291745
0.00284668
0.00280564
0.0340926
0.0303791
0.0249577
0.0207131
0.0184586
0.0171477
0.015915
0.0147113
0.0137094
0.0129233
0.0122694
0.0116897
0.0111673
0.0106976
0.0102733
0.00988578
0.00952812
0.00919537
0.00888379
0.00859031
0.00831233
0.00804763
0.00779435
0.00755092
0.00731595
0.00708824
0.00686674
0.00665051
0.0064387
0.00623058
0.00602547
0.00582277
0.00562196
0.00542257
0.00522424
0.0050267
0.0048298
0.00463356
0.0044382
0.00424424
0.00405257
0.00386453
0.00368217
0.00350821
0.00334627
0.00320062
0.00307598
0.00297649
0.00290473
0.00286024
0.0330564
0.0297864
0.0248584
0.0207896
0.0184951
0.0171607
0.0159569
0.014775
0.0137702
0.012975
0.0123167
0.0117353
0.0112109
0.0107385
0.0103116
0.00992198
0.00956249
0.0092281
0.00891503
0.00862022
0.00834105
0.00807531
0.00782112
0.00757688
0.00734122
0.00711293
0.00689095
0.00667436
0.00646232
0.00625408
0.00604899
0.00584646
0.00564598
0.00544712
0.00524954
0.00505299
0.00485737
0.00466273
0.00446934
0.00427774
0.00408887
0.00390408
0.00372537
0.00355534
0.00339737
0.00325533
0.00313337
0.00303499
0.00296225
0.0029146
0.0320726
0.0291911
0.0247226
0.0208449
0.0185286
0.0171692
0.0159907
0.0148334
0.0138293
0.0130258
0.0123629
0.0117801
0.0112541
0.0107793
0.01035
0.00995835
0.0095971
0.00926113
0.00894663
0.00865053
0.00837022
0.00810346
0.00784837
0.00760335
0.00736702
0.00713818
0.00691576
0.00669883
0.00648657
0.00627824
0.0060732
0.00587087
0.00567077
0.00547247
0.00527568
0.00508016
0.00488585
0.00469283
0.00450143
0.0043122
0.0041261
0.0039445
0.00376931
0.00360304
0.00344878
0.00331006
0.00319048
0.003093
0.00301928
0.00296874
0.0311383
0.0285967
0.0245534
0.0208777
0.0185578
0.0171739
0.0160169
0.0148859
0.013886
0.0130757
0.0124082
0.011824
0.0112968
0.01082
0.0103885
0.00999482
0.00963191
0.00929444
0.00897857
0.00868123
0.0083998
0.00813206
0.00787611
0.00763035
0.00739338
0.007164
0.00694115
0.00672392
0.00651147
0.00630308
0.00609812
0.00589603
0.00569633
0.00549864
0.00530266
0.00510821
0.00491525
0.00472389
0.00453448
0.00434761
0.00416426
0.00398577
0.00381399
0.00365127
0.00350049
0.00336478
0.00324731
0.00315057
0.00307587
0.00302265
0.0302503
0.028006
0.0243537
0.0208873
0.0185815
0.017175
0.0160359
0.014932
0.0139399
0.0131244
0.0124524
0.0118669
0.0113389
0.0108605
0.0104269
0.0100314
0.00966686
0.00932798
0.00901081
0.00871228
0.0084298
0.00816111
0.00790434
0.00765785
0.00742027
0.00719039
0.00696715
0.00674964
0.00653703
0.00632862
0.00612377
0.00592195
0.0057227
0.00552564
0.00533052
0.00513717
0.00494558
0.0047559
0.00456849
0.00438399
0.00420334
0.00402787
0.00385936
0.00370002
0.00355247
0.00341951
0.00330391
0.00320774
0.00313207
0.00307635
0.029406
0.0274215
0.024127
0.0208731
0.018598
0.0171727
0.016048
0.0149715
0.0139903
0.0131717
0.0124954
0.0119087
0.0113803
0.0109005
0.0104652
0.0100679
0.00970191
0.00936172
0.00904333
0.00874368
0.00846018
0.0081906
0.00793304
0.00768587
0.00744771
0.00721736
0.00699376
0.006776
0.00656326
0.00635486
0.00615016
0.00594864
0.00574987
0.00555349
0.00535926
0.00516704
0.00497685
0.00478887
0.00460347
0.00442131
0.00424331
0.00407079
0.00390542
0.00374926
0.00360471
0.00347426
0.00336029
0.00326456
0.00318791
0.00312983
0.0286025
0.0268453
0.0238765
0.0208352
0.018606
0.0171671
0.0160538
0.0150042
0.0140367
0.0132172
0.0125371
0.0119493
0.0114207
0.0109401
0.0105032
0.0101044
0.00973702
0.0093956
0.00907609
0.00877539
0.00849094
0.00822051
0.0079622
0.00771439
0.00747569
0.0072449
0.00702098
0.006803
0.00659018
0.00638181
0.0061773
0.00597612
0.00577787
0.0055822
0.0053889
0.00519784
0.00500908
0.00482281
0.00463942
0.00445957
0.00428418
0.0041145
0.00395214
0.00379898
0.0036572
0.00352901
0.00341648
0.00332105
0.00324342
0.00318309
0.0278372
0.026279
0.0236055
0.0207739
0.0186039
0.0171579
0.0160537
0.01503
0.0140787
0.0132606
0.0125775
0.0119885
0.0114601
0.0109791
0.010541
0.0101407
0.00977211
0.00942959
0.00910905
0.00880738
0.00852204
0.00825082
0.00799181
0.00774341
0.00750421
0.00727302
0.00704881
0.00683066
0.00661778
0.00640949
0.0062052
0.00600441
0.00580671
0.00561179
0.00541944
0.00522959
0.00504227
0.00485772
0.00467633
0.00449877
0.00432592
0.004159
0.00399949
0.00384915
0.00370993
0.00358379
0.0034725
0.00337726
0.00329863
0.00323613
0.0271076
0.0257239
0.0233173
0.02069
0.0185906
0.0171447
0.0160482
0.0150489
0.0141157
0.0133016
0.0126164
0.0120264
0.0114983
0.0110173
0.0105783
0.0101769
0.00980715
0.00946364
0.00914217
0.00883962
0.00855347
0.00828151
0.00802187
0.00777291
0.00753326
0.00730172
0.00707726
0.00685897
0.00664608
0.00643791
0.00623388
0.00603351
0.0058364
0.00564226
0.00545091
0.00526227
0.00507643
0.0048936
0.00471421
0.00453889
0.00436853
0.00420425
0.00404746
0.00389976
0.0037629
0.0036386
0.00352837
0.00343322
0.00335356
0.00328896
0.0264116
0.0251808
0.0230149
0.0205844
0.0185649
0.017127
0.0160377
0.0150611
0.0141474
0.0133396
0.0126536
0.0120628
0.0115352
0.0110546
0.0106152
0.0102128
0.00984206
0.00949767
0.0091754
0.00887207
0.00858518
0.00831256
0.00805234
0.00780289
0.00756284
0.00733099
0.00710632
0.00688795
0.00667508
0.00646707
0.00626334
0.00606343
0.00586695
0.00567363
0.0054833
0.00529591
0.00511155
0.00493045
0.00475304
0.00457993
0.00441197
0.00425024
0.00409603
0.00395079
0.0038161
0.00369344
0.00358412
0.00348895
0.00340825
0.0033416
0.0257468
0.0246506
0.022701
0.0204585
0.0185262
0.017104
0.0160224
0.0150669
0.0141735
0.0133743
0.0126889
0.0120976
0.0115708
0.0110909
0.0106514
0.0102483
0.00987677
0.00953165
0.00920869
0.00890469
0.00861716
0.00834395
0.00808321
0.00783333
0.00759293
0.00736082
0.007136
0.00691758
0.00670479
0.00649698
0.00629359
0.00609418
0.00589837
0.0057059
0.00551663
0.00533051
0.00514764
0.00496827
0.00479282
0.00462187
0.00445625
0.00429695
0.00414518
0.00400224
0.00386953
0.00374834
0.00363977
0.00354449
0.00346272
0.00339404
0.0251113
0.0241336
0.0223783
0.0203138
0.0184739
0.017075
0.0160023
0.0150664
0.0141939
0.0134052
0.0127219
0.0121308
0.0116049
0.011126
0.0106868
0.0102833
0.00991122
0.00956551
0.00924198
0.00893743
0.00864936
0.00837565
0.00811446
0.00786421
0.00762352
0.00739122
0.00716629
0.00694787
0.0067352
0.00652764
0.00632464
0.00612577
0.00593066
0.00573909
0.0055509
0.00536607
0.00518471
0.00500706
0.00483353
0.0046647
0.00450134
0.00434437
0.0041949
0.00405409
0.00392319
0.0038033
0.00369535
0.00359987
0.003517
0.00344633
0.0245033
0.0236301
0.0220491
0.020152
0.0184078
0.0170393
0.0159776
0.0150601
0.0142083
0.0134321
0.0127525
0.0121621
0.0116373
0.0111599
0.0107213
0.0103178
0.00994532
0.00959917
0.00927523
0.00897025
0.00868174
0.00840761
0.00814607
0.00789552
0.0076546
0.00742216
0.00719719
0.00697882
0.00676632
0.00655905
0.00635649
0.0061582
0.00596384
0.00577319
0.00558611
0.00540259
0.00522274
0.0050468
0.00487518
0.00470841
0.00454723
0.00439248
0.00424516
0.00410634
0.00397708
0.00385833
0.00375088
0.00365511
0.00357112
0.00349848
0.023921
0.0231401
0.0217154
0.0199747
0.018328
0.0169962
0.015948
0.015048
0.0142168
0.0134545
0.0127803
0.0121915
0.0116681
0.0111923
0.0107548
0.0103516
0.00997899
0.00963258
0.00930836
0.00900309
0.00871426
0.00843982
0.008178
0.00792723
0.00768616
0.00745364
0.00722868
0.00701042
0.00679815
0.00659122
0.00638914
0.00619147
0.0059979
0.00580821
0.00562227
0.00544007
0.00526173
0.0050875
0.00491774
0.00475298
0.00459389
0.00444126
0.00429597
0.00415898
0.00403121
0.00391346
0.00380638
0.00371026
0.00362512
0.00355053
0.0233628
0.0226636
0.021379
0.0197839
0.0182346
0.016945
0.0159134
0.0150306
0.0142195
0.0134722
0.0128049
0.0122187
0.0116971
0.0112232
0.0107872
0.0103847
0.0100121
0.00966566
0.00934132
0.00903589
0.00874687
0.00847223
0.00821023
0.00795931
0.00771817
0.00748564
0.00726076
0.00704267
0.00683067
0.00662415
0.00642259
0.00622559
0.00603285
0.00584414
0.00565936
0.00547851
0.00530168
0.00512913
0.0049612
0.0047984
0.00464132
0.00449069
0.00434731
0.00421201
0.00408558
0.0039687
0.00386189
0.00376536
0.00367905
0.00360253
0.0228274
0.0222006
0.0210416
0.0195811
0.0181282
0.0168854
0.0158734
0.0150078
0.0142164
0.013485
0.0128262
0.0122435
0.0117242
0.0112525
0.0108183
0.0104168
0.0100447
0.00969834
0.00937404
0.00906861
0.00877953
0.00850481
0.00824272
0.00799175
0.00775061
0.00751815
0.0072934
0.00707556
0.00686389
0.00665782
0.00645684
0.00626056
0.00606868
0.00588099
0.00569739
0.00551789
0.00534258
0.00517169
0.00500556
0.00484464
0.00468949
0.00454077
0.00439917
0.00426542
0.0041402
0.00402408
0.00391744
0.00382043
0.00373294
0.00365452
0.0223132
0.0217507
0.0207043
0.0193681
0.0180093
0.0168168
0.0158279
0.0149798
0.0142077
0.0134927
0.0128438
0.0122657
0.0117492
0.01128
0.0108479
0.0104478
0.0100765
0.00973052
0.00940646
0.00910117
0.00881218
0.00853749
0.00827543
0.00802451
0.00778345
0.00755114
0.00732661
0.00710906
0.0068978
0.00669223
0.00649188
0.00629636
0.00610538
0.00591875
0.00573636
0.00555821
0.00538441
0.00521517
0.00505079
0.0048917
0.0047384
0.00459148
0.00445154
0.00431922
0.00419509
0.00407961
0.00397307
0.00387553
0.00378685
0.00370657
0.0218192
0.0213137
0.0203683
0.0191466
0.017879
0.0167393
0.0157764
0.0149466
0.0141935
0.0134953
0.0128575
0.0122852
0.0117721
0.0113057
0.0108761
0.0104778
0.0101075
0.00976213
0.00943848
0.00913352
0.00884476
0.00857025
0.00830833
0.00805756
0.00781668
0.00758459
0.00736036
0.00714318
0.00693237
0.00672737
0.00652771
0.00633299
0.00614296
0.00595741
0.00577624
0.00559947
0.00542717
0.00525955
0.00509689
0.00493956
0.00478803
0.0046428
0.00450443
0.00437342
0.00425026
0.00413532
0.0040288
0.0039307
0.00384083
0.00375873
0.021344
0.0208895
0.0200347
0.018918
0.0177379
0.0166528
0.0157188
0.0149083
0.0141739
0.0134928
0.012867
0.0123016
0.0117926
0.0113294
0.0109026
0.0105064
0.0101375
0.00979306
0.00947005
0.00916558
0.00887721
0.00860301
0.00834136
0.00809085
0.00785025
0.00761848
0.00739462
0.00717789
0.00696761
0.00676324
0.00656431
0.00637045
0.0061814
0.00599696
0.00581704
0.00564164
0.00547084
0.00530481
0.00514382
0.00498821
0.00483836
0.00469475
0.00455782
0.00442801
0.00430573
0.00419124
0.00408468
0.00398599
0.00389495
0.00381107
0.0208868
0.0204775
0.0197041
0.0186837
0.017587
0.0165574
0.0156547
0.0148648
0.0141491
0.0134852
0.0128722
0.0123148
0.0118106
0.0113511
0.0109274
0.0105336
0.0101665
0.00982323
0.00950108
0.00919728
0.00890948
0.00863574
0.00837449
0.00812436
0.00788414
0.00765278
0.00742938
0.00721317
0.00700349
0.00679981
0.00660167
0.00640872
0.00622068
0.00603739
0.00585874
0.00568472
0.0055154
0.00535095
0.00519159
0.00503762
0.00488939
0.00474729
0.00461171
0.00448302
0.00436152
0.00424741
0.00414076
0.00404147
0.00394926
0.00386367
0.0204466
0.0200776
0.0193773
0.018445
0.0174275
0.0164534
0.015584
0.014816
0.0141191
0.0134724
0.012873
0.0123245
0.0118259
0.0113706
0.0109503
0.0105594
0.0101943
0.00985254
0.00953148
0.00922856
0.00894149
0.00866838
0.00840767
0.00815803
0.00791831
0.00768746
0.0074646
0.007249
0.00704
0.00683707
0.00663978
0.00644778
0.00626081
0.00607868
0.00590131
0.00572868
0.00556084
0.00539794
0.00524016
0.00508778
0.0049411
0.00480044
0.00466612
0.00453845
0.00441765
0.00430385
0.00419708
0.00409717
0.00400385
0.00391662
0.0200223
0.0196894
0.0190549
0.018203
0.0172602
0.0163412
0.0155068
0.0147619
0.0140841
0.0134547
0.0128693
0.0123306
0.0118385
0.0113877
0.0109713
0.0105835
0.0102208
0.00988088
0.00956118
0.00925934
0.00897318
0.00870085
0.00844083
0.00819183
0.00795271
0.00772248
0.00750027
0.00728535
0.0070771
0.00687499
0.00667861
0.00648762
0.00630175
0.00612083
0.00594476
0.00577351
0.00560714
0.00544576
0.00528953
0.00513869
0.00499348
0.00485417
0.00472104
0.00459431
0.00447414
0.00436061
0.00425369
0.00415318
0.00405878
0.00396999
0.0196133
0.0193126
0.0187372
0.0179588
0.0170861
0.0162212
0.0154229
0.0147023
0.014044
0.013432
0.012861
0.0123329
0.011848
0.0114025
0.0109902
0.0106059
0.010246
0.00990815
0.00959007
0.00928954
0.00900448
0.00873311
0.00847393
0.0082257
0.00798731
0.0077578
0.00753634
0.00732219
0.00711477
0.00691356
0.00671815
0.00652821
0.00634348
0.00616379
0.00598904
0.00581919
0.00565428
0.00549439
0.00533968
0.00519032
0.00504652
0.00490851
0.00477648
0.00465062
0.00453103
0.00441773
0.00431064
0.00420955
0.00411412
0.00402387
0.0192186
0.0189468
0.0184246
0.0177133
0.0169064
0.0160941
0.0153326
0.0146374
0.013999
0.0134044
0.0128483
0.0123314
0.0118544
0.0114146
0.0110069
0.0106264
0.0102697
0.00993425
0.00961807
0.00931908
0.00903532
0.00876508
0.00850691
0.00825959
0.00802206
0.00779339
0.00757277
0.0073595
0.00715299
0.00695275
0.00675837
0.00656954
0.00638599
0.00620757
0.00603415
0.0058657
0.00570224
0.00554383
0.00539058
0.00524266
0.00510022
0.00496343
0.00483246
0.00470741
0.00458835
0.00447525
0.00436799
0.00426634
0.00416996
0.00407836
0.0188378
0.0185917
0.0181175
0.0174673
0.0167217
0.0159604
0.015236
0.014567
0.0139491
0.0133721
0.012831
0.0123259
0.0118575
0.0114241
0.0110214
0.0106451
0.0102918
0.00995908