/*--------------------------------*- C++ -*----------------------------------*\
  =========                 |
  \\      /  F ield         | OpenFOAM: The Open Source CFD Toolbox
   \\    /   O peration     | Website:  https://openfoam.org
    \\  /    A nd           | Version:  7
     \\/     M anipulation  |
\*---------------------------------------------------------------------------*/
FoamFile
{
    version     2.0;
    format      ascii;
    class       surfaceScalarField;
    location    "0.09";
    object      phi;
}
// * * * * * * * * * * * * * * * * * * * * * * * * * * * * * * * * * * * * * //

dimensions      [0 3 -1 0 0 0 0];

internalField   nonuniform List<scalar> 
139350
(
6.4513e-08
9.21185e-08
3.19669e-08
3.2546e-08
2.30632e-08
8.90379e-09
1.95796e-08
3.48352e-09
1.76286e-08
1.951e-09
1.6199e-08
1.42968e-09
1.50661e-08
1.13286e-09
1.41534e-08
9.12727e-10
1.34021e-08
7.51277e-10
1.27689e-08
6.33152e-10
1.22251e-08
5.43805e-10
1.17514e-08
4.73767e-10
1.13339e-08
4.17434e-10
1.09627e-08
3.71278e-10
1.06298e-08
3.32893e-10
1.03292e-08
3.00556e-10
1.00562e-08
2.73006e-10
9.8069e-09
2.49297e-10
9.57819e-09
2.28712e-10
9.36749e-09
2.10699e-10
9.17267e-09
1.94826e-10
8.99192e-09
1.80748e-10
8.82373e-09
1.6819e-10
8.6668e-09
1.56928e-10
8.52002e-09
1.46779e-10
8.38243e-09
1.37588e-10
8.25321e-09
1.29227e-10
8.13162e-09
1.21589e-10
8.01704e-09
1.14574e-10
7.90894e-09
1.08108e-10
7.80683e-09
1.02104e-10
7.71031e-09
9.65209e-11
7.61905e-09
9.12585e-11
7.53273e-09
8.63227e-11
7.45117e-09
8.15641e-11
7.3741e-09
7.70682e-11
7.30151e-09
7.25851e-11
7.2332e-09
6.83099e-11
7.16932e-09
6.38829e-11
7.10981e-09
5.95056e-11
7.05482e-09
5.49986e-11
7.00499e-09
4.98246e-11
6.95948e-09
4.55115e-11
6.92183e-09
3.76475e-11
6.88643e-09
3.54061e-11
6.8677e-09
1.87213e-11
6.83912e-09
2.8586e-11
6.87388e-09
-3.47595e-11
6.69567e-09
1.78208e-10
-3.14121e-09
9.83688e-09
1.25944e-07
1.27618e-07
9.12941e-08
6.71962e-08
7.19455e-08
2.82524e-08
6.12338e-08
1.41952e-08
5.48004e-08
8.38444e-09
5.03073e-08
5.92284e-09
4.68232e-08
4.61688e-09
4.40091e-08
3.7269e-09
4.1684e-08
3.07634e-09
3.97226e-08
2.59455e-09
3.80377e-08
2.22868e-09
3.65694e-08
1.94206e-09
3.52751e-08
1.71172e-09
3.41234e-08
1.52303e-09
3.30902e-08
1.3661e-09
3.21569e-08
1.23387e-09
3.13087e-08
1.12119e-09
3.05338e-08
1.02421e-09
2.98225e-08
9.40004e-10
2.91669e-08
8.66312e-10
2.85603e-08
8.01373e-10
2.79973e-08
7.43785e-10
2.7473e-08
6.92426e-10
2.69836e-08
6.46382e-10
2.65255e-08
6.04904e-10
2.60957e-08
5.67367e-10
2.56917e-08
5.33248e-10
2.53111e-08
5.02104e-10
2.49522e-08
4.73549e-10
2.4613e-08
4.47262e-10
2.42922e-08
4.22926e-10
2.39884e-08
4.00326e-10
2.37005e-08
3.79139e-10
2.34275e-08
3.59287e-10
2.31688e-08
3.40317e-10
2.29234e-08
3.22407e-10
2.26913e-08
3.04739e-10
2.24716e-08
2.88001e-10
2.22649e-08
2.70622e-10
2.20702e-08
2.54167e-10
2.18893e-08
2.35895e-10
2.17208e-08
2.18285e-10
2.15684e-08
1.97977e-10
2.14302e-08
1.75774e-10
2.13116e-08
1.54016e-10
2.12155e-08
1.14832e-10
2.11337e-08
1.10407e-10
2.1149e-08
-5.00756e-11
2.09916e-08
3.35653e-10
-3.90417e-09
2.17545e-08
1.58753e-07
1.35268e-07
1.36531e-07
8.9418e-08
1.17504e-07
4.72801e-08
1.03333e-07
2.8366e-08
9.3345e-08
1.83725e-08
8.60497e-08
1.32181e-08
8.03458e-08
1.03208e-08
7.56966e-08
8.37606e-09
7.18197e-08
6.95327e-09
6.85273e-08
5.88692e-09
6.56862e-08
5.06984e-09
6.32016e-08
4.42668e-09
6.1005e-08
3.90823e-09
5.90456e-08
3.48245e-09
5.72842e-08
3.12753e-09
5.56902e-08
2.82791e-09
5.42392e-08
2.57216e-09
5.29117e-08
2.35174e-09
5.16916e-08
2.16011e-09
5.05656e-08
1.99225e-09
4.95228e-08
1.8442e-09
4.85538e-08
1.71281e-09
4.76506e-08
1.59557e-09
4.68066e-08
1.49041e-09
4.60158e-08
1.39566e-09
4.52733e-08
1.3099e-09
4.45746e-08
1.23195e-09
4.39159e-08
1.16082e-09
4.32938e-08
1.09563e-09
4.27054e-08
1.03567e-09
4.21481e-08
9.80237e-10
4.16196e-08
9.28813e-10
4.1118e-08
8.80751e-10
4.06415e-08
8.35777e-10
4.01888e-08
7.93032e-10
3.97585e-08
7.52742e-10
3.93499e-08
7.13297e-10
3.89618e-08
6.76093e-10
3.85948e-08
6.37615e-10
3.82471e-08
6.01921e-10
3.79217e-08
5.61285e-10
3.76148e-08
5.25202e-10
3.73347e-08
4.77998e-10
3.70728e-08
4.37713e-10
3.68474e-08
3.79455e-10
3.66437e-08
3.18501e-10
3.64839e-08
2.70227e-10
3.64101e-08
2.36503e-11
3.63417e-08
4.0412e-10
-3.71573e-09
3.61532e-08
1.75612e-07
1.31172e-07
1.65627e-07
9.94027e-08
1.52745e-07
6.01627e-08
1.40143e-07
4.09677e-08
1.2947e-07
2.90451e-08
1.20838e-07
2.18503e-08
1.13731e-07
1.74276e-08
1.07754e-07
1.43532e-08
1.02656e-07
1.20514e-08
9.82538e-08
1.02889e-08
9.44082e-08
8.91543e-09
9.10134e-08
7.82144e-09
8.79898e-08
6.9319e-09
8.52759e-08
6.19634e-09
8.28237e-08
5.57973e-09
8.05949e-08
5.05671e-09
7.85585e-08
4.60851e-09
7.66894e-08
4.22088e-09
7.49666e-08
3.88292e-09
7.33727e-08
3.58612e-09
7.18931e-08
3.32377e-09
7.05154e-08
3.09052e-09
6.9229e-08
2.88202e-09
6.80246e-08
2.69476e-09
6.68945e-08
2.52581e-09
6.58316e-08
2.37274e-09
6.48301e-08
2.23352e-09
6.38845e-08
2.10638e-09
6.29903e-08
1.98986e-09
6.21433e-08
1.88265e-09
6.13399e-08
1.78359e-09
6.0577e-08
1.69173e-09
5.98517e-08
1.60602e-09
5.91616e-08
1.52589e-09
5.85047e-08
1.45e-09
5.78788e-08
1.37857e-09
5.72831e-08
1.30905e-09
5.67155e-08
1.24365e-09
5.61767e-08
1.17648e-09
5.56639e-08
1.11469e-09
5.51809e-08
1.04424e-09
5.47224e-08
9.83732e-10
5.4299e-08
9.01364e-10
5.38986e-08
8.38203e-10
5.35452e-08
7.32833e-10
5.32171e-08
6.46597e-10
5.29505e-08
5.36849e-10
5.27569e-08
2.17232e-10
5.26811e-08
4.79895e-10
-3.25749e-09
5.22229e-08
1.8451e-07
1.23447e-07
1.82343e-07
1.0157e-07
1.76128e-07
6.63777e-08
1.67778e-07
4.93181e-08
1.59166e-07
3.76564e-08
1.51269e-07
2.97477e-08
1.44204e-07
2.44931e-08
1.37909e-07
2.06478e-08
1.32312e-07
1.76485e-08
1.27328e-07
1.52729e-08
1.22871e-07
1.33724e-08
1.18864e-07
1.1828e-08
1.15244e-07
1.05524e-08
1.11956e-07
9.48447e-09
1.08955e-07
8.57995e-09
1.06206e-07
7.80614e-09
1.03676e-07
7.1382e-09
1.0134e-07
6.55697e-09
9.91756e-08
6.0475e-09
9.71638e-08
5.59802e-09
9.52884e-08
5.1991e-09
9.35358e-08
4.84315e-09
9.18938e-08
4.524e-09
9.0352e-08
4.23656e-09
8.89012e-08
3.97659e-09
8.75334e-08
3.74055e-09
8.62415e-08
3.52546e-09
8.50191e-08
3.32873e-09
8.38608e-08
3.14819e-09
8.27616e-08
2.9819e-09
8.1717e-08
2.82817e-09
8.07232e-08
2.68555e-09
7.97766e-08
2.55253e-09
7.88743e-08
2.42819e-09
7.80137e-08
2.31065e-09
7.71922e-08
2.20009e-09
7.64083e-08
2.09297e-09
7.56596e-08
1.99226e-09
7.49465e-08
1.88964e-09
7.42658e-08
1.79537e-09
7.36211e-08
1.68891e-09
7.30068e-08
1.59804e-09
7.24334e-08
1.47478e-09
7.1889e-08
1.3826e-09
7.13966e-08
1.22529e-09
7.09375e-08
1.10564e-09
7.05449e-08
9.29418e-10
7.02269e-08
5.35243e-10
7.00526e-08
6.54251e-10
-2.69954e-09
6.94946e-08
1.90343e-07
1.15321e-07
1.91861e-07
1.00052e-07
1.90268e-07
6.79707e-08
1.86169e-07
5.34174e-08
1.80737e-07
4.30875e-08
1.74994e-07
3.54911e-08
1.69305e-07
3.01817e-08
1.63828e-07
2.61253e-08
1.58658e-07
2.28186e-08
1.53836e-07
2.00942e-08
1.49366e-07
1.78426e-08
1.45231e-07
1.59636e-08
1.41406e-07
1.43776e-08
1.37864e-07
1.30256e-08
1.34581e-07
1.18629e-08
1.31532e-07
1.08554e-08
1.28694e-07
9.97621e-09
1.26047e-07
9.20386e-09
1.23573e-07
8.52132e-09
1.21257e-07
7.91479e-09
1.19083e-07
7.3731e-09
1.17039e-07
6.88706e-09
1.15114e-07
6.4491e-09
1.13297e-07
6.05289e-09
1.11581e-07
5.69315e-09
1.09956e-07
5.36535e-09
1.08416e-07
5.0657e-09
1.06954e-07
4.79086e-09
1.05564e-07
4.53801e-09
1.04241e-07
4.30461e-09
1.02981e-07
4.08846e-09
1.01779e-07
3.88763e-09
1.00631e-07
3.70016e-09
9.95345e-08
3.52475e-09
9.84861e-08
3.35905e-09
9.74831e-08
3.20308e-09
9.65237e-08
3.05243e-09
9.56053e-08
2.91066e-09
9.47277e-08
2.76726e-09
9.38879e-08
2.63508e-09
9.30888e-08
2.48801e-09
9.23256e-08
2.36125e-09
9.16066e-08
2.19378e-09
9.09235e-08
2.06571e-09
9.02927e-08
1.85609e-09
8.97063e-08
1.69201e-09
8.91827e-08
1.45309e-09
8.87431e-08
9.74838e-10
8.84399e-08
9.57393e-10
-2.04144e-09
8.77818e-08
1.95505e-07
1.07631e-07
1.98249e-07
9.73078e-08
1.9899e-07
6.72294e-08
1.978e-07
5.4607e-08
1.95172e-07
4.57153e-08
1.9184e-07
3.8823e-08
1.88117e-07
3.39055e-08
1.84173e-07
3.00691e-08
1.80159e-07
2.68327e-08
1.76184e-07
2.40692e-08
1.72315e-07
2.17111e-08
1.68591e-07
1.96874e-08
1.65032e-07
1.79368e-08
1.61646e-07
1.64118e-08
1.58433e-07
1.50757e-08
1.5539e-07
1.38989e-08
1.52509e-07
1.28571e-08
1.49782e-07
1.19304e-08
1.47201e-07
1.11024e-08
1.44757e-07
1.03594e-08
1.4244e-07
9.69e-09
1.40242e-07
9.08474e-09
1.38156e-07
8.53554e-09
1.36173e-07
8.03559e-09
1.34287e-07
7.57908e-09
1.32491e-07
7.16098e-09
1.3078e-07
6.77701e-09
1.29148e-07
6.42337e-09
1.27589e-07
6.09677e-09
1.26099e-07
5.79429e-09
1.24674e-07
5.51331e-09
1.2331e-07
5.25154e-09
1.22004e-07
5.00666e-09
1.20752e-07
4.77707e-09
1.19551e-07
4.55999e-09
1.18398e-07
4.35531e-09
1.17293e-07
4.15789e-09
1.16232e-07
3.97165e-09
1.15215e-07
3.78441e-09
1.14239e-07
3.61074e-09
1.13307e-07
3.42056e-09
1.12414e-07
3.2537e-09
1.11567e-07
3.04097e-09
1.10762e-07
2.87087e-09
1.10007e-07
2.6113e-09
1.09306e-07
2.39255e-09
1.08662e-07
2.09714e-09
1.08107e-07
1.52991e-09
1.0768e-07
1.38399e-09
-1.28119e-09
1.0692e-07
2.0082e-07
1.00396e-07
2.03773e-07
9.43543e-08
2.05349e-07
6.56536e-08
2.05654e-07
5.43021e-08
2.04829e-07
4.65404e-08
2.03356e-07
4.02956e-08
2.01416e-07
3.58457e-08
1.99093e-07
3.23924e-08
1.96492e-07
2.94329e-08
1.93717e-07
2.68444e-08
1.90847e-07
2.45814e-08
1.87941e-07
2.25932e-08
1.85044e-07
2.0834e-08
1.82187e-07
1.9269e-08
1.79392e-07
1.78709e-08
1.76673e-07
1.66174e-08
1.7404e-07
1.549e-08
1.71498e-07
1.44725e-08
1.69049e-07
1.35515e-08
1.66693e-07
1.27153e-08
1.64429e-07
1.19539e-08
1.62255e-07
1.12588e-08
1.60168e-07
1.06225e-08
1.58165e-07
1.00387e-08
1.56242e-07
9.50174e-09
1.54397e-07
9.0067e-09
1.52624e-07
8.54931e-09
1.50922e-07
8.12569e-09
1.49286e-07
7.73248e-09
1.47714e-07
7.36659e-09
1.46202e-07
7.02528e-09
1.44748e-07
6.70605e-09
1.43348e-07
6.4064e-09
1.42e-07
6.12456e-09
1.40703e-07
5.85746e-09
1.39453e-07
5.60489e-09
1.3825e-07
5.3612e-09
1.37091e-07
5.13049e-09
1.35976e-07
4.89948e-09
1.34903e-07
4.68356e-09
1.33873e-07
4.45046e-09
1.32885e-07
4.24167e-09
1.31941e-07
3.98497e-09
1.31043e-07
3.76902e-09
1.30191e-07
3.46345e-09
1.294e-07
3.1837e-09
1.2866e-07
2.83691e-09
1.28005e-07
2.185e-09
1.27473e-07
1.91596e-09
-4.39058e-10
1.26631e-07
2.06423e-07
9.35051e-08
2.09333e-07
9.14443e-08
2.1106e-07
6.39264e-08
2.11944e-07
5.34181e-08
2.12012e-07
4.64726e-08
2.11633e-07
4.06747e-08
2.1091e-07
3.65683e-08
2.09847e-07
3.34562e-08
2.0848e-07
3.07997e-08
2.06868e-07
2.84564e-08
2.05066e-07
2.63836e-08
2.03122e-07
2.45371e-08
2.01078e-07
2.28778e-08
1.9897e-07
2.13772e-08
1.96826e-07
2.00145e-08
1.9467e-07
1.87733e-08
1.92521e-07
1.76398e-08
1.90391e-07
1.66022e-08
1.88292e-07
1.56504e-08
1.86232e-07
1.47754e-08
1.84216e-07
1.39696e-08
1.82249e-07
1.32261e-08
1.80333e-07
1.25388e-08
1.78469e-07
1.19024e-08
1.76659e-07
1.13121e-08
1.74902e-07
1.07637e-08
1.73197e-07
1.02534e-08
1.71546e-07
9.77756e-09
1.69945e-07
9.33315e-09
1.68394e-07
8.91722e-09
1.66892e-07
8.52715e-09
1.65438e-07
8.16049e-09
1.6403e-07
7.81475e-09
1.62666e-07
7.48813e-09
1.61346e-07
7.17749e-09
1.60068e-07
6.88259e-09
1.58832e-07
6.59751e-09
1.57636e-07
6.32636e-09
1.5648e-07
6.05537e-09
1.55364e-07
5.79994e-09
1.54287e-07
5.52725e-09
1.53251e-07
5.2779e-09
1.52255e-07
4.98106e-09
1.51305e-07
4.71889e-09
1.50396e-07
4.37251e-09
1.49549e-07
4.03078e-09
1.48749e-07
3.63676e-09
1.48022e-07
2.91208e-09
1.47411e-07
2.52686e-09
4.52644e-10
1.46519e-07
2.12269e-07
8.68981e-08
2.15142e-07
8.85716e-08
2.16815e-07
6.22531e-08
2.17859e-07
5.23745e-08
2.18272e-07
4.60598e-08
2.18394e-07
4.05521e-08
2.18325e-07
3.66377e-08
2.18032e-07
3.37493e-08
2.17508e-07
3.1323e-08
2.16773e-07
2.91917e-08
2.15849e-07
2.73074e-08
2.14762e-07
2.56249e-08
2.13535e-07
2.41043e-08
2.12195e-07
2.27176e-08
2.10764e-07
2.14456e-08
2.09263e-07
2.02743e-08
2.0771e-07
1.91923e-08
2.06122e-07
1.81903e-08
2.04512e-07
1.72606e-08
2.02891e-07
1.63964e-08
2.01268e-07
1.5592e-08
1.99652e-07
1.48421e-08
1.98049e-07
1.41421e-08
1.96463e-07
1.34881e-08
1.94899e-07
1.28761e-08
1.9336e-07
1.23029e-08
1.91848e-07
1.17654e-08
1.90365e-07
1.12605e-08
1.88913e-07
1.07857e-08
1.87491e-07
1.03385e-08
1.86102e-07
9.91657e-09
1.84745e-07
9.51762e-09
1.8342e-07
9.13939e-09
1.82128e-07
8.78022e-09
1.80869e-07
8.43702e-09
1.79642e-07
8.10962e-09
1.78447e-07
7.79205e-09
1.77285e-07
7.48838e-09
1.76156e-07
7.18478e-09
1.75059e-07
6.89612e-09
1.73996e-07
6.59032e-09
1.72969e-07
6.30516e-09
1.71976e-07
5.97452e-09
1.71025e-07
5.66954e-09
1.70108e-07
5.28895e-09
1.6925e-07
4.88952e-09
1.68434e-07
4.45279e-09
1.67674e-07
3.67216e-09
1.67018e-07
3.18201e-09
1.35527e-09
1.66116e-07
2.18315e-07
8.05637e-08
2.21191e-07
8.56954e-08
2.22788e-07
6.06562e-08
2.2386e-07
5.13024e-08
2.24382e-07
4.55384e-08
2.24682e-07
4.0252e-08
2.24888e-07
3.6431e-08
2.24973e-07
3.36645e-08
2.24915e-07
3.13809e-08
2.24715e-07
2.93921e-08
2.24376e-07
2.76463e-08
2.23904e-07
2.60965e-08
2.23309e-07
2.47002e-08
2.22599e-07
2.34269e-08
2.21789e-07
2.22561e-08
2.2089e-07
2.11732e-08
2.19915e-07
2.01672e-08
2.18876e-07
1.92293e-08
2.17784e-07
1.83525e-08
2.16649e-07
1.7531e-08
2.15481e-07
1.676e-08
2.14288e-07
1.60353e-08
2.13077e-07
1.53535e-08
2.11854e-07
1.47111e-08
2.10624e-07
1.41055e-08
2.09393e-07
1.35339e-08
2.08165e-07
1.29939e-08
2.06942e-07
1.24832e-08
2.05728e-07
1.19996e-08
2.04526e-07
1.15412e-08
2.03336e-07
1.11059e-08
2.02162e-07
1.06918e-08
2.01005e-07
1.0297e-08
1.99865e-07
9.9199e-09
1.98744e-07
9.55767e-09
1.97644e-07
9.21022e-09
1.96564e-07
8.8717e-09
1.95506e-07
8.54606e-09
1.94471e-07
8.21982e-09
1.93461e-07
7.90685e-09
1.92474e-07
7.57684e-09
1.91516e-07
7.26339e-09
1.90583e-07
6.90737e-09
1.89686e-07
6.56623e-09
1.88816e-07
6.15931e-09
1.87995e-07
5.71082e-09
1.8721e-07
5.23724e-09
1.86463e-07
4.4199e-09
1.85804e-07
3.84032e-09
2.22817e-09
1.84931e-07
2.24549e-07
7.45082e-08
2.27451e-07
8.2793e-08
2.28984e-07
5.91232e-08
2.30064e-07
5.0223e-08
2.30626e-07
4.49763e-08
2.30974e-07
3.99033e-08
2.31271e-07
3.61346e-08
2.31504e-07
3.34316e-08
2.31654e-07
3.123e-08
2.31721e-07
2.93251e-08
2.31704e-07
2.7664e-08
2.31599e-07
2.62012e-08
2.31407e-07
2.48924e-08
2.31128e-07
2.37052e-08
2.30767e-07
2.26173e-08
2.30328e-07
2.16127e-08
2.29815e-07
2.06794e-08
2.29237e-07
1.9808e-08
2.28598e-07
1.89912e-08
2.27906e-07
1.82232e-08
2.27166e-07
1.74993e-08
2.26386e-07
1.68155e-08
2.25571e-07
1.61687e-08
2.24726e-07
1.5556e-08
2.23857e-07
1.49749e-08
2.22967e-07
1.44233e-08
2.22062e-07
1.38991e-08
2.21145e-07
1.34004e-08
2.20219e-07
1.29255e-08
2.19288e-07
1.24726e-08
2.18353e-07
1.20402e-08
2.17419e-07
1.16265e-08
2.16486e-07
1.12298e-08
2.15557e-07
1.08489e-08
2.14634e-07
1.04809e-08
2.13718e-07
1.01259e-08
2.12811e-07
9.77839e-09
2.11915e-07
9.44199e-09
2.11031e-07
9.10386e-09
2.10161e-07
8.77654e-09
2.09306e-07
8.43222e-09
2.0847e-07
8.09942e-09
2.0765e-07
7.72738e-09
2.06858e-07
7.35879e-09
2.06083e-07
6.93407e-09
2.05346e-07
6.44798e-09
2.04638e-07
5.94476e-09
2.03948e-07
5.11015e-09
2.03328e-07
4.46005e-09
3.03185e-09
2.02524e-07
2.30975e-07
6.87394e-08
2.33912e-07
7.98555e-08
2.35388e-07
5.76472e-08
2.36476e-07
4.91352e-08
2.37071e-07
4.43812e-08
2.37435e-07
3.95395e-08
2.37753e-07
3.58163e-08
2.38032e-07
3.31525e-08
2.38259e-07
3.10035e-08
2.38435e-07
2.91488e-08
2.38563e-07
2.7536e-08
2.38641e-07
2.61236e-08
2.38665e-07
2.4868e-08
2.38635e-07
2.37359e-08
2.38548e-07
2.2704e-08
2.38405e-07
2.17554e-08
2.38208e-07
2.08772e-08
2.37956e-07
2.00593e-08
2.37654e-07
1.92936e-08
2.37303e-07
1.8574e-08
2.36907e-07
1.78952e-08
2.36469e-07
1.72534e-08
2.35993e-07
1.6645e-08
2.35482e-07
1.60672e-08
2.34939e-07
1.55176e-08
2.34368e-07
1.49941e-08
2.33773e-07
1.44947e-08
2.33155e-07
1.40179e-08
2.32519e-07
1.35619e-08
2.31866e-07
1.31252e-08
2.312e-07
1.27064e-08
2.30523e-07
1.23039e-08
2.29836e-07
1.19161e-08
2.29143e-07
1.1542e-08
2.28445e-07
1.11787e-08
2.27745e-07
1.08265e-08
2.27043e-07
1.048e-08
2.26343e-07
1.01425e-08
2.25645e-07
9.80197e-09
2.24952e-07
9.46938e-09
2.24264e-07
9.11991e-09
2.23587e-07
8.77646e-09
2.22917e-07
8.39724e-09
2.22265e-07
8.01039e-09
2.21624e-07
7.57595e-09
2.21007e-07
7.06466e-09
2.20412e-07
6.53971e-09
2.19817e-07
5.70553e-09
2.19271e-07
5.00533e-09
3.73357e-09
2.1857e-07
2.37601e-07
6.32632e-08
2.40578e-07
7.68787e-08
2.41997e-07
5.62282e-08
2.43092e-07
4.804e-08
2.43724e-07
4.37493e-08
2.44101e-07
3.91626e-08
2.44425e-07
3.54923e-08
2.44717e-07
3.28607e-08
2.44966e-07
3.07539e-08
2.45179e-07
2.89357e-08
2.45362e-07
2.73534e-08
2.45515e-07
2.59706e-08
2.45637e-07
2.47458e-08
2.45727e-07
2.36461e-08
2.45783e-07
2.26481e-08
2.45804e-07
2.17345e-08
2.45789e-07
2.08922e-08
2.45737e-07
2.01106e-08
2.45649e-07
1.93813e-08
2.45526e-07
1.86976e-08
2.45367e-07
1.80541e-08
2.45174e-07
1.74463e-08
2.44949e-07
1.68706e-08
2.44692e-07
1.63239e-08
2.44406e-07
1.58037e-08
2.44092e-07
1.53078e-08
2.43753e-07
1.48342e-08
2.43389e-07
1.43811e-08
2.43004e-07
1.3947e-08
2.42599e-07
1.35304e-08
2.42176e-07
1.31296e-08
2.41736e-07
1.27434e-08
2.41282e-07
1.23701e-08
2.40816e-07
1.20086e-08
2.40338e-07
1.16562e-08
2.39852e-07
1.13132e-08
2.39357e-07
1.09741e-08
2.38858e-07
1.06421e-08
2.38354e-07
1.0306e-08
2.37848e-07
9.97485e-09
2.37341e-07
9.62715e-09
2.36838e-07
9.28005e-09
2.36334e-07
8.9006e-09
2.35841e-07
8.50365e-09
2.35351e-07
8.06604e-09
2.34874e-07
7.5411e-09
2.34412e-07
7.00197e-09
2.33935e-07
6.18263e-09
2.33488e-07
5.4521e-09
4.31257e-09
2.32909e-07
2.44436e-07
5.80832e-08
2.47451e-07
7.38635e-08
2.48815e-07
5.48644e-08
2.49913e-07
4.69419e-08
2.50584e-07
4.30788e-08
2.50977e-07
3.87689e-08
2.51306e-07
3.51635e-08
2.51604e-07
3.25631e-08
2.51861e-07
3.04965e-08
2.52085e-07
2.87114e-08
2.52285e-07
2.71535e-08
2.52464e-07
2.57914e-08
2.52624e-07
2.45867e-08
2.52763e-07
2.3507e-08
2.52882e-07
2.25293e-08
2.52979e-07
2.16367e-08
2.53055e-07
2.08161e-08
2.53109e-07
2.0057e-08
2.5314e-07
1.93507e-08
2.53147e-07
1.86905e-08
2.5313e-07
1.80706e-08
2.5309e-07
1.74866e-08
2.53026e-07
1.69345e-08
2.52939e-07
1.64112e-08
2.52829e-07
1.59138e-08
2.52696e-07
1.54401e-08
2.52543e-07
1.49879e-08
2.52368e-07
1.45553e-08
2.52175e-07
1.41408e-08
2.51962e-07
1.37428e-08
2.51732e-07
1.33595e-08
2.51486e-07
1.29898e-08
2.51224e-07
1.26316e-08
2.50949e-07
1.22842e-08
2.5066e-07
1.19446e-08
2.50361e-07
1.1613e-08
2.50051e-07
1.12842e-08
2.49732e-07
1.09607e-08
2.49405e-07
1.06324e-08
2.49074e-07
1.03064e-08
2.48737e-07
9.96451e-09
2.48398e-07
9.61826e-09
2.48056e-07
9.24289e-09
2.47718e-07
8.84194e-09
2.47378e-07
8.4055e-09
2.47043e-07
7.87621e-09
2.46716e-07
7.3293e-09
2.46364e-07
6.53494e-09
2.46024e-07
5.79135e-09
4.76291e-09
2.45574e-07
2.51489e-07
5.32014e-08
2.54532e-07
7.08199e-08
2.55852e-07
5.3545e-08
2.56947e-07
4.58464e-08
2.57655e-07
4.23704e-08
2.58069e-07
3.83558e-08
2.58403e-07
3.48288e-08
2.58707e-07
3.226e-08
2.58969e-07
3.02337e-08
2.59198e-07
2.84825e-08
2.59404e-07
2.6948e-08
2.59591e-07
2.56041e-08
2.59762e-07
2.44154e-08
2.59919e-07
2.33505e-08
2.60061e-07
2.23869e-08
2.6019e-07
2.1508e-08
2.60305e-07
2.07011e-08
2.60406e-07
1.99558e-08
2.60493e-07
1.92637e-08
2.60566e-07
1.8618e-08
2.60623e-07
1.80131e-08
2.60666e-07
1.74442e-08
2.60693e-07
1.69075e-08
2.60704e-07
1.63997e-08
2.607e-07
1.59179e-08
2.6068e-07
1.54597e-08
2.60645e-07
1.50229e-08
2.60595e-07
1.46056e-08
2.6053e-07
1.4206e-08
2.6045e-07
1.38225e-08
2.60356e-07
1.34533e-08
2.60249e-07
1.30972e-08
2.60129e-07
1.2752e-08
2.59996e-07
1.24169e-08
2.59852e-07
1.20889e-08
2.59697e-07
1.17679e-08
2.59532e-07
1.14492e-08
2.59358e-07
1.11344e-08
2.59176e-07
1.08145e-08
2.58988e-07
1.04946e-08
2.58793e-07
1.01597e-08
2.58595e-07
9.8163e-09
2.58391e-07
9.4467e-09
2.58187e-07
9.04552e-09
2.5798e-07
8.6123e-09
2.57771e-07
8.08516e-09
2.57565e-07
7.53526e-09
2.57329e-07
6.77166e-09
2.57091e-07
6.02872e-09
5.09292e-09
2.56761e-07
2.58766e-07
4.86181e-08
2.61828e-07
6.77584e-08
2.63114e-07
5.22589e-08
2.64202e-07
4.47584e-08
2.64946e-07
4.16266e-08
2.6538e-07
3.79212e-08
2.65722e-07
3.4487e-08
2.66031e-07
3.19508e-08
2.663e-07
2.99651e-08
2.66533e-07
2.82494e-08
2.66742e-07
2.67393e-08
2.66932e-07
2.54135e-08
2.67108e-07
2.424e-08
2.6727e-07
2.31884e-08
2.6742e-07
2.22366e-08
2.6756e-07
2.13685e-08
2.67689e-07
2.05717e-08
2.67809e-07
1.98361e-08
2.67919e-07
1.91536e-08
2.68019e-07
1.85173e-08
2.68111e-07
1.79219e-08
2.68192e-07
1.73626e-08
2.68264e-07
1.68357e-08
2.68326e-07
1.63378e-08
2.68378e-07
1.5866e-08
2.6842e-07
1.54179e-08
2.68451e-07
1.49912e-08
2.68473e-07
1.45841e-08
2.68484e-07
1.41947e-08
2.68486e-07
1.38213e-08
2.68477e-07
1.34621e-08
2.68458e-07
1.31158e-08
2.6843e-07
1.27803e-08
2.68392e-07
1.24544e-08
2.68346e-07
1.21353e-08
2.68291e-07
1.18228e-08
2.68228e-07
1.1512e-08
2.68158e-07
1.12043e-08
2.68081e-07
1.08916e-08
2.67999e-07
1.05769e-08
2.6791e-07
1.02483e-08
2.67819e-07
9.90797e-09
2.67721e-07
9.54387e-09
2.67623e-07
9.14424e-09
2.6752e-07
8.71455e-09
2.67412e-07
8.19339e-09
2.67304e-07
7.64377e-09
2.67162e-07
6.91296e-09
2.67011e-07
6.18052e-09
5.32142e-09
2.66782e-07
2.66278e-07
4.43321e-08
2.69347e-07
6.46898e-08
2.7061e-07
5.09954e-08
2.71687e-07
4.36822e-08
2.72463e-07
4.08502e-08
2.72921e-07
3.74634e-08
2.7327e-07
3.41374e-08
2.73585e-07
3.16356e-08
2.7386e-07
2.96903e-08
2.74098e-07
2.80117e-08
2.7431e-07
2.65275e-08
2.74503e-07
2.52204e-08
2.7468e-07
2.40624e-08
2.74845e-07
2.3024e-08
2.74998e-07
2.20835e-08
2.75141e-07
2.12254e-08
2.75275e-07
2.04375e-08
2.75401e-07
1.97101e-08
2.7552e-07
1.90351e-08
2.75631e-07
1.8406e-08
2.75735e-07
1.78175e-08
2.75833e-07
1.7265e-08
2.75924e-07
1.67447e-08
2.76009e-07
1.62533e-08
2.76086e-07
1.57881e-08
2.76158e-07
1.53465e-08
2.76223e-07
1.49265e-08
2.76281e-07
1.4526e-08
2.76332e-07
1.41431e-08
2.76377e-07
1.37764e-08
2.76415e-07
1.34238e-08
2.76447e-07
1.30841e-08
2.76472e-07
1.2755e-08
2.76491e-07
1.24354e-08
2.76504e-07
1.21225e-08
2.76511e-07
1.18157e-08
2.76513e-07
1.15107e-08
2.76509e-07
1.12078e-08
2.765e-07
1.09002e-08
2.76488e-07
1.05892e-08
2.76471e-07
1.02653e-08
2.76452e-07
9.92725e-09
2.76428e-07
9.56732e-09
2.76403e-07
9.16973e-09
2.76375e-07
8.7429e-09
2.76338e-07
8.22951e-09
2.763e-07
7.68232e-09
2.76229e-07
6.98366e-09
2.76141e-07
6.2682e-09
5.4723e-09
2.75991e-07
2.74033e-07
4.03403e-08
2.77098e-07
6.16249e-08
2.78349e-07
4.97443e-08
2.7941e-07
4.26214e-08
2.80215e-07
4.00452e-08
2.80697e-07
3.6981e-08
2.81055e-07
3.37792e-08
2.81377e-07
3.13145e-08
2.81658e-07
2.94091e-08
2.819e-07
2.77691e-08
2.82116e-07
2.63122e-08
2.82311e-07
2.50247e-08
2.82491e-07
2.38825e-08
2.82658e-07
2.28577e-08
2.82812e-07
2.19288e-08
2.82957e-07
2.10807e-08
2.83093e-07
2.03016e-08
2.83221e-07
1.95819e-08
2.83342e-07
1.89139e-08
2.83457e-07
1.82912e-08
2.83566e-07
1.77086e-08
2.83669e-07
1.71616e-08
2.83768e-07
1.66465e-08
2.83861e-07
1.61601e-08
2.83949e-07
1.56997e-08
2.84033e-07
1.52629e-08
2.84112e-07
1.48474e-08
2.84186e-07
1.44514e-08
2.84257e-07
1.4073e-08
2.84322e-07
1.37107e-08
2.84384e-07
1.33625e-08
2.84441e-07
1.3027e-08
2.84493e-07
1.27022e-08
2.84542e-07
1.23867e-08
2.84587e-07
1.20778e-08
2.84628e-07
1.17747e-08
2.84665e-07
1.14732e-08
2.847e-07
1.11733e-08
2.84731e-07
1.08691e-08
2.8476e-07
1.05601e-08
2.84786e-07
1.02392e-08
2.84811e-07
9.9024e-09
2.84833e-07
9.5451e-09
2.84854e-07
9.14945e-09
2.84872e-07
8.72457e-09
2.84882e-07
8.21954e-09
2.84888e-07
7.6763e-09
2.84864e-07
7.00766e-09
2.84819e-07
6.31299e-09
5.56922e-09
2.84722e-07
2.8204e-07
3.6638e-08
2.8509e-07
5.85747e-08
2.86338e-07
4.8496e-08
2.87381e-07
4.15789e-08
2.8821e-07
3.92158e-08
2.88718e-07
3.64726e-08
2.89087e-07
3.34112e-08
2.89414e-07
3.09874e-08
2.89701e-07
2.91214e-08
2.89949e-07
2.75211e-08
2.90168e-07
2.60932e-08
2.90367e-07
2.48262e-08
2.90549e-07
2.37004e-08
2.90717e-07
2.26896e-08
2.90873e-07
2.17726e-08
2.91019e-07
2.09347e-08
2.91156e-07
2.01645e-08
2.91285e-07
1.94527e-08
2.91408e-07
1.87916e-08
2.91524e-07
1.81752e-08
2.91634e-07
1.75982e-08
2.91739e-07
1.70563e-08
2.9184e-07
1.65459e-08
2.91936e-07
1.6064e-08
2.92028e-07
1.56077e-08
2.92116e-07
1.51747e-08
2.92201e-07
1.47629e-08
2.92282e-07
1.43704e-08
2.92359e-07
1.39954e-08
2.92434e-07
1.36363e-08
2.92505e-07
1.32913e-08
2.92573e-07
1.29589e-08
2.92638e-07
1.26369e-08
2.92701e-07
1.23242e-08
2.92761e-07
1.20179e-08
2.92818e-07
1.1717e-08
2.92874e-07
1.14179e-08
2.92927e-07
1.11196e-08
2.92979e-07
1.08172e-08
2.9303e-07
1.05092e-08
2.93079e-07
1.01899e-08
2.93128e-07
9.8537e-09
2.93175e-07
9.49775e-09
2.93221e-07
9.10384e-09
2.93265e-07
8.68025e-09
2.93301e-07
8.18357e-09
2.93332e-07
7.64559e-09
2.93335e-07
7.00429e-09
2.93316e-07
6.33239e-09
5.63199e-09
2.93253e-07
2.90308e-07
3.32186e-08
2.93332e-07
5.55504e-08
2.94587e-07
4.72417e-08
2.95609e-07
4.05568e-08
2.96458e-07
3.83672e-08
2.96993e-07
3.59372e-08
2.97372e-07
3.30321e-08
2.97705e-07
3.06545e-08
2.97999e-07
2.88271e-08
2.98253e-07
2.72675e-08
2.98476e-07
2.58701e-08
2.98678e-07
2.46246e-08
2.98862e-07
2.35158e-08
2.99032e-07
2.25194e-08
2.9919e-07
2.16148e-08
2.99337e-07
2.07875e-08
2.99476e-07
2.00264e-08
2.99606e-07
1.93226e-08
2.99729e-07
1.86686e-08
2.99845e-07
1.80585e-08
2.99956e-07
1.74871e-08
3.00062e-07
1.69504e-08
3.00164e-07
1.64447e-08
3.00261e-07
1.5967e-08
3.00354e-07
1.55146e-08
3.00443e-07
1.50852e-08
3.00529e-07
1.46768e-08
3.00612e-07
1.42874e-08
3.00693e-07
1.39153e-08
3.0077e-07
1.3559e-08
3.00845e-07
1.32165e-08
3.00917e-07
1.28865e-08
3.00987e-07
1.25669e-08
3.01055e-07
1.22561e-08
3.01121e-07
1.19517e-08
3.01186e-07
1.16524e-08
3.01249e-07
1.13547e-08
3.01311e-07
1.10574e-08
3.01373e-07
1.07561e-08
3.01433e-07
1.04484e-08
3.01493e-07
1.01299e-08
3.01553e-07
9.7938e-09
3.01613e-07
9.43841e-09
3.0167e-07
9.04618e-09
3.01727e-07
8.62369e-09
3.01775e-07
8.13519e-09
3.01817e-07
7.6037e-09
3.01834e-07
6.98715e-09
3.01828e-07
6.33881e-09
5.67512e-09
3.01785e-07
2.98847e-07
3.00741e-08
3.01834e-07
5.25631e-08
3.03103e-07
4.59736e-08
3.04103e-07
3.95564e-08
3.04966e-07
3.75045e-08
3.05529e-07
3.53742e-08
3.0592e-07
3.26404e-08
3.06259e-07
3.03156e-08
3.0656e-07
2.85262e-08
3.0682e-07
2.70078e-08
3.07047e-07
2.56427e-08
3.07252e-07
2.44197e-08
3.07439e-07
2.33285e-08
3.07612e-07
2.2347e-08
3.07772e-07
2.14552e-08
3.0792e-07
2.06388e-08
3.0806e-07
1.98871e-08
3.08191e-07
1.91915e-08
3.08314e-07
1.85448e-08
3.08432e-07
1.79411e-08
3.08543e-07
1.73756e-08
3.0865e-07
1.6844e-08
3.08751e-07
1.6343e-08
3.08849e-07
1.58696e-08
3.08942e-07
1.54212e-08
3.09032e-07
1.49954e-08
3.09118e-07
1.45902e-08
3.09202e-07
1.42038e-08
3.09283e-07
1.38345e-08
3.09361e-07
1.34808e-08
3.09437e-07
1.31407e-08
3.0951e-07
1.28129e-08
3.09582e-07
1.24953e-08
3.09652e-07
1.21863e-08
3.0972e-07
1.18835e-08
3.09787e-07
1.15854e-08
3.09853e-07
1.12888e-08
3.09918e-07
1.09921e-08
3.09983e-07
1.06915e-08
3.10047e-07
1.03839e-08
3.10111e-07
1.00657e-08
3.10176e-07
9.72969e-09
3.10239e-07
9.37452e-09
3.10302e-07
8.98409e-09
3.10362e-07
8.56291e-09
3.10415e-07
8.08245e-09
3.1046e-07
7.55867e-09
3.10483e-07
6.96464e-09
3.10482e-07
6.33994e-09
5.708e-09
3.10449e-07
3.07667e-07
2.71946e-08
3.10606e-07
4.96242e-08
3.11895e-07
4.46847e-08
3.12873e-07
3.8578e-08
3.13744e-07
3.6633e-08
3.14335e-07
3.47837e-08
3.14741e-07
3.22346e-08
3.15086e-07
2.99706e-08
3.15393e-07
2.82188e-08
3.15659e-07
2.67418e-08
3.15891e-07
2.54104e-08
3.161e-07
2.42113e-08
3.1629e-07
2.31383e-08
3.16465e-07
2.21722e-08
3.16627e-07
2.12936e-08
3.16777e-07
2.04884e-08
3.16917e-07
1.97465e-08
3.1705e-07
1.90594e-08
3.17174e-07
1.84202e-08
3.17292e-07
1.78231e-08
3.17404e-07
1.72635e-08
3.17511e-07
1.67373e-08
3.17613e-07
1.62411e-08
3.17711e-07
1.5772e-08
3.17804e-07
1.53275e-08
3.17894e-07
1.49054e-08
3.17981e-07
1.45035e-08
3.18065e-07
1.41202e-08
3.18146e-07
1.37537e-08
3.18224e-07
1.34025e-08
3.183e-07
1.30648e-08
3.18373e-07
1.27392e-08
3.18445e-07
1.24235e-08
3.18515e-07
1.21162e-08
3.18584e-07
1.18149e-08
3.18651e-07
1.15179e-08
3.18718e-07
1.12224e-08
3.18784e-07
1.09262e-08
3.18849e-07
1.06261e-08
3.18915e-07
1.03186e-08
3.1898e-07
1.00005e-08
3.19045e-07
9.66477e-09
3.19109e-07
9.30981e-09
3.19172e-07
8.92141e-09
3.19233e-07
8.50206e-09
3.19286e-07
8.02961e-09
3.1933e-07
7.51468e-09
3.19353e-07
6.94139e-09
3.19353e-07
6.33994e-09
5.73612e-09
3.19325e-07
3.16777e-07
2.45689e-08
3.19656e-07
4.67447e-08
3.20972e-07
4.33695e-08
3.21928e-07
3.76214e-08
3.22804e-07
3.57576e-08
3.23421e-07
3.41665e-08
3.23842e-07
3.18133e-08
3.24194e-07
2.96191e-08
3.24508e-07
2.79049e-08
3.2478e-07
2.64692e-08
3.25018e-07
2.51731e-08
3.2523e-07
2.3999e-08
3.25423e-07
2.2945e-08
3.25601e-07
2.19947e-08
3.25764e-07
2.11297e-08
3.25917e-07
2.03363e-08
3.26059e-07
1.96044e-08
3.26192e-07
1.8926e-08
3.26318e-07
1.82945e-08
3.26437e-07
1.77042e-08
3.26549e-07
1.71507e-08
3.26657e-07
1.66299e-08
3.26759e-07
1.61387e-08
3.26857e-07
1.56741e-08
3.26951e-07
1.52337e-08
3.27041e-07
1.48152e-08
3.27128e-07
1.44167e-08
3.27211e-07
1.40365e-08
3.27292e-07
1.36729e-08
3.2737e-07
1.33243e-08
3.27446e-07
1.29891e-08
3.2752e-07
1.26656e-08
3.27591e-07
1.23519e-08
3.27661e-07
1.20463e-08
3.2773e-07
1.17465e-08
3.27797e-07
1.14506e-08
3.27863e-07
1.11561e-08
3.27929e-07
1.08605e-08
3.27994e-07
1.0561e-08
3.28059e-07
1.02536e-08
3.28124e-07
9.93582e-09
3.28188e-07
9.6005e-09
3.28252e-07
9.24597e-09
3.28313e-07
8.85992e-09
3.28372e-07
8.44308e-09
3.28423e-07
7.97867e-09
3.28464e-07
7.47357e-09
3.28486e-07
6.91964e-09
3.28485e-07
6.34079e-09
5.76245e-09
3.28459e-07
3.26187e-07
2.21844e-08
3.28996e-07
4.39355e-08
3.30342e-07
4.20238e-08
3.31278e-07
3.66852e-08
3.32153e-07
3.48833e-08
3.32795e-07
3.35241e-08
3.33233e-07
3.13748e-08
3.33592e-07
2.92605e-08
3.33912e-07
2.75846e-08
3.34192e-07
2.61898e-08
3.34435e-07
2.49302e-08
3.34651e-07
2.37826e-08
3.34848e-07
2.27483e-08
3.35028e-07
2.18144e-08
3.35194e-07
2.09635e-08
3.35348e-07
2.01821e-08
3.35492e-07
1.94605e-08
3.35627e-07
1.87912e-08
3.35754e-07
1.81676e-08
3.35874e-07
1.75844e-08
3.35987e-07
1.70371e-08
3.36095e-07
1.6522e-08
3.36198e-07
1.60358e-08
3.36296e-07
1.55758e-08
3.36391e-07
1.51395e-08
3.36481e-07
1.47249e-08
3.36568e-07
1.43298e-08
3.36652e-07
1.39528e-08
3.36732e-07
1.35921e-08
3.36811e-07
1.32462e-08
3.36886e-07
1.29134e-08
3.3696e-07