/*--------------------------------*- C++ -*----------------------------------*\
  =========                 |
  \\      /  F ield         | OpenFOAM: The Open Source CFD Toolbox
   \\    /   O peration     | Website:  https://openfoam.org
    \\  /    A nd           | Version:  7
     \\/     M anipulation  |
\*---------------------------------------------------------------------------*/
FoamFile
{
    version     2.0;
    format      ascii;
    class       surfaceScalarField;
    location    "0.09";
    object      phi_0;
}
// * * * * * * * * * * * * * * * * * * * * * * * * * * * * * * * * * * * * * //

dimensions      [0 3 -1 0 0 0 0];

internalField   nonuniform List<scalar> 
139350
(
6.4513e-08
9.21185e-08
3.1967e-08
3.2546e-08
2.30632e-08
8.90378e-09
1.95797e-08
3.48351e-09
1.76287e-08
1.951e-09
1.6199e-08
1.42968e-09
1.50661e-08
1.13286e-09
1.41534e-08
9.12728e-10
1.34021e-08
7.51278e-10
1.2769e-08
6.33152e-10
1.22252e-08
5.43806e-10
1.17514e-08
4.73768e-10
1.1334e-08
4.17434e-10
1.09627e-08
3.71278e-10
1.06298e-08
3.32892e-10
1.03292e-08
3.00555e-10
1.00562e-08
2.73004e-10
9.80694e-09
2.49294e-10
9.57823e-09
2.28709e-10
9.36753e-09
2.10696e-10
9.17271e-09
1.94821e-10
8.99197e-09
1.80743e-10
8.82379e-09
1.68185e-10
8.66686e-09
1.56922e-10
8.52009e-09
1.46773e-10
8.38251e-09
1.37582e-10
8.25329e-09
1.29221e-10
8.13171e-09
1.21582e-10
8.01714e-09
1.14566e-10
7.90904e-09
1.081e-10
7.80695e-09
1.02095e-10
7.71043e-09
9.65112e-11
7.61919e-09
9.12477e-11
7.53288e-09
8.63106e-11
7.45133e-09
8.15501e-11
7.37427e-09
7.7052e-11
7.30171e-09
7.25658e-11
7.23342e-09
6.82867e-11
7.16957e-09
6.38541e-11
7.1101e-09
5.947e-11
7.05514e-09
5.49527e-11
7.00538e-09
4.9766e-11
6.95994e-09
4.54337e-11
6.9224e-09
3.75448e-11
6.88713e-09
3.52665e-11
6.8686e-09
1.85301e-11
6.84029e-09
2.83147e-11
6.87545e-09
-3.51594e-11
6.6978e-09
1.77649e-10
-3.1433e-09
9.8411e-09
1.25944e-07
1.27618e-07
9.12942e-08
6.71962e-08
7.19455e-08
2.82524e-08
6.12339e-08
1.41952e-08
5.48005e-08
8.38444e-09
5.03073e-08
5.92285e-09
4.68232e-08
4.61689e-09
4.40091e-08
3.72691e-09
4.1684e-08
3.07636e-09
3.97226e-08
2.59457e-09
3.80377e-08
2.2287e-09
3.65694e-08
1.94208e-09
3.52751e-08
1.71174e-09
3.41233e-08
1.52305e-09
3.30901e-08
1.36611e-09
3.21567e-08
1.23388e-09
3.13085e-08
1.1212e-09
3.05336e-08
1.02422e-09
2.98223e-08
9.4001e-10
2.91667e-08
8.66316e-10
2.85601e-08
8.01375e-10
2.79971e-08
7.43786e-10
2.74729e-08
6.92427e-10
2.69834e-08
6.46382e-10
2.65253e-08
6.04903e-10
2.60955e-08
5.67366e-10
2.56915e-08
5.33247e-10
2.53109e-08
5.02104e-10
2.49519e-08
4.73548e-10
2.46128e-08
4.47262e-10
2.4292e-08
4.22926e-10
2.39881e-08
4.00326e-10
2.37003e-08
3.79138e-10
2.34273e-08
3.59285e-10
2.31685e-08
3.40313e-10
2.29232e-08
3.224e-10
2.2691e-08
3.04727e-10
2.24713e-08
2.87983e-10
2.22646e-08
2.70593e-10
2.20699e-08
2.54122e-10
2.1889e-08
2.35828e-10
2.17206e-08
2.18188e-10
2.15682e-08
1.97833e-10
2.14302e-08
1.75567e-10
2.13118e-08
1.53712e-10
2.12159e-08
1.14386e-10
2.11345e-08
1.09759e-10
2.11504e-08
-5.11437e-11
2.09939e-08
3.34164e-10
-3.90868e-09
2.17593e-08
1.58753e-07
1.35268e-07
1.36532e-07
8.9418e-08
1.17504e-07
4.72801e-08
1.03333e-07
2.8366e-08
9.3345e-08
1.83725e-08
8.60497e-08
1.32181e-08
8.03458e-08
1.03209e-08
7.56966e-08
8.37611e-09
7.18196e-08
6.95332e-09
6.85272e-08
5.88698e-09
6.5686e-08
5.0699e-09
6.32014e-08
4.42674e-09
6.10048e-08
3.90828e-09
5.90454e-08
3.4825e-09
5.72839e-08
3.12758e-09
5.56898e-08
2.82795e-09
5.42388e-08
2.5722e-09
5.29113e-08
2.35177e-09
5.16911e-08
2.16015e-09
5.05652e-08
1.99228e-09
4.95223e-08
1.84422e-09
4.85533e-08
1.71284e-09
4.76501e-08
1.59559e-09
4.68061e-08
1.49044e-09
4.60153e-08
1.39568e-09
4.52727e-08
1.30992e-09
4.4574e-08
1.23198e-09
4.39153e-08
1.16084e-09
4.32931e-08
1.09566e-09
4.27047e-08
1.0357e-09
4.21474e-08
9.80273e-10
4.16188e-08
9.28851e-10
4.11172e-08
8.80792e-10
4.06406e-08
8.3582e-10
4.01879e-08
7.93076e-10
3.97575e-08
7.52786e-10
3.93489e-08
7.13338e-10
3.89607e-08
6.76128e-10
3.85937e-08
6.37639e-10
3.82459e-08
6.01927e-10
3.79205e-08
5.6126e-10
3.76135e-08
5.25133e-10
3.73335e-08
4.77859e-10
3.70716e-08
4.37474e-10
3.68462e-08
3.7906e-10
3.66428e-08
3.17862e-10
3.64832e-08
2.6927e-10
3.64102e-08
2.19103e-11
3.63427e-08
4.01658e-10
-3.72264e-09
3.61566e-08
1.75612e-07
1.31172e-07
1.65627e-07
9.94027e-08
1.52745e-07
6.01626e-08
1.40143e-07
4.09677e-08
1.2947e-07
2.90452e-08
1.20838e-07
2.18504e-08
1.13731e-07
1.74277e-08
1.07754e-07
1.43533e-08
1.02656e-07
1.20516e-08
9.82536e-08
1.0289e-08
9.4408e-08
8.91554e-09
9.10131e-08
7.82155e-09
8.79894e-08
6.93201e-09
8.52755e-08
6.19645e-09
8.28232e-08
5.57983e-09
8.05944e-08
5.05681e-09
7.8558e-08
4.60859e-09
7.66888e-08
4.22096e-09
7.49659e-08
3.883e-09
7.3372e-08
3.5862e-09
7.18924e-08
3.32384e-09
7.05146e-08
3.09058e-09
6.92281e-08
2.88209e-09
6.80238e-08
2.69482e-09
6.68936e-08
2.52588e-09
6.58307e-08
2.37281e-09
6.48291e-08
2.23359e-09
6.38834e-08
2.10646e-09
6.29892e-08
1.98994e-09
6.21421e-08
1.88273e-09
6.13387e-08
1.78368e-09
6.05757e-08
1.69183e-09
5.98504e-08
1.60613e-09
5.91602e-08
1.52601e-09
5.85031e-08
1.45013e-09
5.78772e-08
1.3787e-09
5.72814e-08
1.30919e-09
5.67137e-08
1.24378e-09
5.61748e-08
1.1766e-09
5.56619e-08
1.1148e-09
5.51788e-08
1.04432e-09
5.47202e-08
9.83759e-10
5.42968e-08
9.01303e-10
5.38962e-08
8.38009e-10
5.35428e-08
7.32435e-10
5.32149e-08
6.45851e-10
5.29484e-08
5.35682e-10
5.27554e-08
2.1492e-10
5.26806e-08
4.76484e-10
-3.26647e-09
5.22244e-08
1.8451e-07
1.23447e-07
1.82343e-07
1.0157e-07
1.76128e-07
6.63776e-08
1.67778e-07
4.93181e-08
1.59166e-07
3.76564e-08
1.51269e-07
2.97478e-08
1.44204e-07
2.44932e-08
1.37909e-07
2.06479e-08
1.32312e-07
1.76486e-08
1.27328e-07
1.52731e-08
1.22871e-07
1.33726e-08
1.18864e-07
1.18282e-08
1.15243e-07
1.05526e-08
1.11955e-07
9.48465e-09
1.08955e-07
8.58012e-09
1.06205e-07
7.80631e-09
1.03676e-07
7.13836e-09
1.01339e-07
6.55712e-09
9.91748e-08
6.04765e-09
9.71629e-08
5.59815e-09
9.52875e-08
5.19923e-09
9.35348e-08
4.84328e-09
9.18927e-08
4.52413e-09
9.03509e-08
4.23668e-09
8.89001e-08
3.97671e-09
8.75322e-08
3.74068e-09
8.62402e-08
3.52559e-09
8.50178e-08
3.32887e-09
8.38594e-08
3.14834e-09
8.27601e-08
2.98206e-09
8.17154e-08
2.82835e-09
8.07215e-08
2.68574e-09
7.97749e-08
2.55273e-09
7.88725e-08
2.42841e-09
7.80117e-08
2.31089e-09
7.71901e-08
2.20034e-09
7.64061e-08
2.09323e-09
7.56573e-08
1.99253e-09
7.4944e-08
1.8899e-09
7.42632e-08
1.79562e-09
7.36184e-08
1.68913e-09
7.30039e-08
1.59821e-09
7.24304e-08
1.47485e-09
7.18859e-08
1.38251e-09
7.13934e-08
1.22496e-09
7.09343e-08
1.10486e-09
7.05419e-08
9.28111e-10
7.02244e-08
5.32472e-10
7.00509e-08
6.49914e-10
-2.7102e-09
6.94947e-08
1.90343e-07
1.15321e-07
1.91861e-07
1.00052e-07
1.90268e-07
6.79706e-08
1.86169e-07
5.34173e-08
1.80738e-07
4.30875e-08
1.74994e-07
3.54912e-08
1.69306e-07
3.01818e-08
1.63828e-07
2.61255e-08
1.58658e-07
2.28188e-08
1.53836e-07
2.00945e-08
1.49366e-07
1.78428e-08
1.4523e-07
1.59639e-08
1.41405e-07
1.43779e-08
1.37864e-07
1.30258e-08
1.34581e-07
1.18632e-08
1.31532e-07
1.08557e-08
1.28693e-07
9.97645e-09
1.26046e-07
9.20409e-09
1.23573e-07
8.52154e-09
1.21256e-07
7.915e-09
1.19082e-07
7.3733e-09
1.17038e-07
6.88726e-09
1.15112e-07
6.4493e-09
1.13296e-07
6.05309e-09
1.11579e-07
5.69334e-09
1.09955e-07
5.36555e-09
1.08414e-07
5.06591e-09
1.06952e-07
4.79108e-09
1.05562e-07
4.53824e-09
1.04239e-07
4.30486e-09
1.02979e-07
4.08873e-09
1.01777e-07
3.88792e-09
1.00629e-07
3.70046e-09
9.95324e-08
3.52509e-09
9.84839e-08
3.3594e-09
9.74807e-08
3.20346e-09
9.65211e-08
3.05283e-09
9.56026e-08
2.91108e-09
9.47248e-08
2.76768e-09
9.38849e-08
2.6355e-09
9.30857e-08
2.48841e-09
9.23223e-08
2.36159e-09
9.16031e-08
2.19401e-09
9.09199e-08
2.06576e-09
9.0289e-08
1.85585e-09
8.97026e-08
1.69124e-09
8.9179e-08
1.45168e-09
8.87398e-08
9.71693e-10
8.84375e-08
9.52167e-10
-2.05349e-09
8.77808e-08
1.95505e-07
1.07631e-07
1.98249e-07
9.73077e-08
1.9899e-07
6.72293e-08
1.978e-07
5.46069e-08
1.95172e-07
4.57153e-08
1.91841e-07
3.88231e-08
1.88117e-07
3.39057e-08
1.84173e-07
3.00693e-08
1.80159e-07
2.6833e-08
1.76184e-07
2.40695e-08
1.72315e-07
2.17115e-08
1.68591e-07
1.96878e-08
1.65032e-07
1.79372e-08
1.61646e-07
1.64122e-08
1.58433e-07
1.50761e-08
1.55389e-07
1.38992e-08
1.52508e-07
1.28574e-08
1.49782e-07
1.19307e-08
1.472e-07
1.11027e-08
1.44756e-07
1.03597e-08
1.42439e-07
9.69029e-09
1.40241e-07
9.08502e-09
1.38154e-07
8.53582e-09
1.36172e-07
8.03587e-09
1.34286e-07
7.57936e-09
1.3249e-07
7.16127e-09
1.30779e-07
6.77731e-09
1.29146e-07
6.42367e-09
1.27587e-07
6.0971e-09
1.26097e-07
5.79463e-09
1.24672e-07
5.51368e-09
1.23308e-07
5.25193e-09
1.22002e-07
5.00708e-09
1.20749e-07
4.77752e-09
1.19548e-07
4.56047e-09
1.18396e-07
4.35583e-09
1.1729e-07
4.15844e-09
1.16229e-07
3.97223e-09
1.15212e-07
3.785e-09
1.14236e-07
3.61133e-09
1.13303e-07
3.42113e-09
1.12411e-07
3.25422e-09
1.11563e-07
3.04137e-09
1.10758e-07
2.87106e-09
1.10003e-07
2.61117e-09
1.09302e-07
2.3918e-09
1.08658e-07
2.09562e-09
1.08103e-07
1.52645e-09
1.07678e-07
1.37794e-09
-1.29438e-09
1.06918e-07
2.0082e-07
1.00396e-07
2.03773e-07
9.43541e-08
2.05349e-07
6.56535e-08
2.05654e-07
5.4302e-08
2.04829e-07
4.65404e-08
2.03356e-07
4.02957e-08
2.01416e-07
3.58459e-08
1.99093e-07
3.23926e-08
1.96493e-07
2.94332e-08
1.93717e-07
2.68448e-08
1.90847e-07
2.45819e-08
1.87941e-07
2.25936e-08
1.85044e-07
2.08345e-08
1.82186e-07
1.92694e-08
1.79391e-07
1.78713e-08
1.76673e-07
1.66179e-08
1.7404e-07
1.54904e-08
1.71497e-07
1.44729e-08
1.69048e-07
1.35519e-08
1.66692e-07
1.27157e-08
1.64428e-07
1.19543e-08
1.62254e-07
1.12592e-08
1.60167e-07
1.06229e-08
1.58164e-07
1.00391e-08
1.56241e-07
9.50211e-09
1.54395e-07
9.00708e-09
1.52623e-07
8.5497e-09
1.5092e-07
8.12609e-09
1.49285e-07
7.73291e-09
1.47712e-07
7.36704e-09
1.462e-07
7.02576e-09
1.44745e-07
6.70656e-09
1.43346e-07
6.40694e-09
1.41998e-07
6.12513e-09
1.407e-07
5.85807e-09
1.39451e-07
5.60555e-09
1.38247e-07
5.3619e-09
1.37088e-07
5.13123e-09
1.35973e-07
4.90024e-09
1.349e-07
4.68433e-09
1.3387e-07
4.45121e-09
1.32882e-07
4.24237e-09
1.31938e-07
3.98554e-09
1.31039e-07
3.76936e-09
1.30187e-07
3.46343e-09
1.29396e-07
3.18299e-09
1.28656e-07
2.8353e-09
1.28001e-07
2.18124e-09
1.2747e-07
1.90915e-09
-4.53188e-10
1.26629e-07
2.06423e-07
9.3505e-08
2.09333e-07
9.14441e-08
2.1106e-07
6.39263e-08
2.11944e-07
5.34179e-08
2.12012e-07
4.64725e-08
2.11633e-07
4.06747e-08
2.10911e-07
3.65685e-08
2.09847e-07
3.34564e-08
2.0848e-07
3.08e-08
2.06868e-07
2.84568e-08
2.05066e-07
2.6384e-08
2.03122e-07
2.45376e-08
2.01078e-07
2.28783e-08
1.9897e-07
2.13777e-08
1.96826e-07
2.0015e-08
1.9467e-07
1.87738e-08
1.9252e-07
1.76403e-08
1.9039e-07
1.66027e-08
1.88291e-07
1.56509e-08
1.86231e-07
1.47759e-08
1.84215e-07
1.39701e-08
1.82248e-07
1.32265e-08
1.80332e-07
1.25392e-08
1.78468e-07
1.19029e-08
1.76657e-07
1.13126e-08
1.749e-07
1.07642e-08
1.73196e-07
1.02539e-08
1.71544e-07
9.77808e-09
1.69943e-07
9.33369e-09
1.68392e-07
8.91778e-09
1.6689e-07
8.52774e-09
1.65436e-07
8.16111e-09
1.64027e-07
7.81541e-09
1.62664e-07
7.48884e-09
1.61344e-07
7.17825e-09
1.60066e-07
6.88339e-09
1.58829e-07
6.59836e-09
1.57633e-07
6.32725e-09
1.56477e-07
6.05629e-09
1.55361e-07
5.80088e-09
1.54284e-07
5.52817e-09
1.53247e-07
5.27877e-09
1.52251e-07
4.98179e-09
1.51301e-07
4.71937e-09
1.50392e-07
4.37259e-09
1.49545e-07
4.03009e-09
1.48745e-07
3.63503e-09
1.48018e-07
2.90804e-09
1.47408e-07
2.51939e-09
4.37798e-10
1.46517e-07
2.12269e-07
8.68981e-08
2.15142e-07
8.85714e-08
2.16815e-07
6.22528e-08
2.17859e-07
5.23743e-08
2.18272e-07
4.60597e-08
2.18394e-07
4.05521e-08
2.18325e-07
3.66379e-08
2.18032e-07
3.37496e-08
2.17509e-07
3.13234e-08
2.16773e-07
2.91921e-08
2.15849e-07
2.73079e-08
2.14762e-07
2.56254e-08
2.13535e-07
2.41049e-08
2.12195e-07
2.27182e-08
2.10763e-07
2.14463e-08
2.09262e-07
2.02749e-08
2.0771e-07
1.91929e-08
2.06122e-07
1.81909e-08
2.04511e-07
1.72612e-08
2.0289e-07
1.6397e-08
2.01268e-07
1.55925e-08
1.99652e-07
1.48426e-08
1.98048e-07
1.41427e-08
1.96462e-07
1.34886e-08
1.94898e-07
1.28767e-08
1.93359e-07
1.23035e-08
1.91847e-07
1.1766e-08
1.90364e-07
1.12611e-08
1.88911e-07
1.07864e-08
1.8749e-07
1.03392e-08
1.861e-07
9.91728e-09
1.84743e-07
9.51837e-09
1.83418e-07
9.14018e-09
1.82126e-07
8.78106e-09
1.80866e-07
8.43791e-09
1.79639e-07
8.11056e-09
1.78444e-07
7.79304e-09
1.77282e-07
7.48942e-09
1.76153e-07
7.18586e-09
1.75056e-07
6.89721e-09
1.73993e-07
6.5914e-09
1.72966e-07
6.30618e-09
1.71972e-07
5.97539e-09
1.71021e-07
5.67015e-09
1.70105e-07
5.2891e-09
1.69246e-07
4.88885e-09
1.6843e-07
4.45094e-09
1.6767e-07
3.66787e-09
1.67016e-07
3.17397e-09
1.3399e-09
1.66114e-07
2.18315e-07
8.05637e-08
2.21191e-07
8.56952e-08
2.22788e-07
6.0656e-08
2.2386e-07
5.13022e-08
2.24382e-07
4.55382e-08
2.24682e-07
4.0252e-08
2.24889e-07
3.64311e-08
2.24973e-07
3.36647e-08
2.24916e-07
3.13812e-08
2.24715e-07
2.93925e-08
2.24376e-07
2.76468e-08
2.23905e-07
2.60971e-08
2.23309e-07
2.47008e-08
2.22599e-07
2.34275e-08
2.21789e-07
2.22568e-08
2.2089e-07
2.11739e-08
2.19915e-07
2.01679e-08
2.18876e-07
1.923e-08
2.17784e-07
1.83532e-08
2.16649e-07
1.75317e-08
2.15481e-07
1.67607e-08
2.14288e-07
1.6036e-08
2.13076e-07
1.53541e-08
2.11853e-07
1.47118e-08
2.10623e-07
1.41062e-08
2.09392e-07
1.35346e-08
2.08164e-07
1.29946e-08
2.06941e-07
1.24839e-08
2.05727e-07
1.20004e-08
2.04524e-07
1.1542e-08
2.03335e-07
1.11067e-08
2.02161e-07
1.06927e-08
2.01003e-07
1.02979e-08
1.99863e-07
9.92088e-09
1.98742e-07
9.55869e-09
1.97641e-07
9.2113e-09
1.96562e-07
8.87283e-09
1.95504e-07
8.54724e-09
1.94469e-07
8.22105e-09
1.93458e-07
7.90809e-09
1.92471e-07
7.57807e-09
1.91513e-07
7.26454e-09
1.9058e-07
6.90837e-09
1.89683e-07
6.56693e-09
1.88813e-07
6.15952e-09
1.87991e-07
5.71014e-09
1.87207e-07
5.23526e-09
1.86459e-07
4.41536e-09
1.85802e-07
3.83182e-09
2.21246e-09
1.84929e-07
2.24549e-07
7.45081e-08
2.27451e-07
8.27928e-08
2.28984e-07
5.9123e-08
2.30064e-07
5.02228e-08
2.30626e-07
4.49762e-08
2.30974e-07
3.99033e-08
2.31271e-07
3.61347e-08
2.31504e-07
3.34318e-08
2.31655e-07
3.12303e-08
2.31722e-07
2.93256e-08
2.31704e-07
2.76646e-08
2.31599e-07
2.62018e-08
2.31407e-07
2.48931e-08
2.31128e-07
2.37059e-08
2.30767e-07
2.26181e-08
2.30328e-07
2.16135e-08
2.29815e-07
2.06802e-08
2.29237e-07
1.98088e-08
2.28598e-07
1.8992e-08
2.27905e-07
1.8224e-08
2.27166e-07
1.75e-08
2.26386e-07
1.68163e-08
2.2557e-07
1.61695e-08
2.24725e-07
1.55568e-08
2.23856e-07
1.49757e-08
2.22966e-07
1.44241e-08
2.22061e-07
1.38999e-08
2.21144e-07
1.34012e-08
2.20218e-07
1.29264e-08
2.19286e-07
1.24736e-08
2.18352e-07
1.20411e-08
2.17417e-07
1.16275e-08
2.16484e-07
1.12308e-08
2.15555e-07
1.085e-08
2.14632e-07
1.0482e-08
2.13716e-07
1.01272e-08
2.12809e-07
9.77966e-09
2.11913e-07
9.44331e-09
2.11029e-07
9.10522e-09
2.10159e-07
8.77791e-09
2.09303e-07
8.43357e-09
2.08467e-07
8.10069e-09
2.07647e-07
7.72848e-09
2.06855e-07
7.35956e-09
2.0608e-07
6.93431e-09
2.05343e-07
6.44727e-09
2.04635e-07
5.94265e-09
2.03945e-07
5.10538e-09
2.03326e-07
4.45119e-09
3.01598e-09
2.02522e-07
2.30975e-07
6.87393e-08
2.33912e-07
7.98553e-08
2.35388e-07
5.76469e-08
2.36476e-07
4.91349e-08
2.37071e-07
4.4381e-08
2.37435e-07
3.95395e-08
2.37753e-07
3.58163e-08
2.38032e-07
3.31527e-08
2.38259e-07
3.10038e-08
2.38435e-07
2.91492e-08
2.38563e-07
2.75366e-08
2.38641e-07
2.61242e-08
2.38665e-07
2.48687e-08
2.38635e-07
2.37366e-08
2.38548e-07
2.27048e-08
2.38405e-07
2.17562e-08
2.38208e-07
2.0878e-08
2.37956e-07
2.00601e-08
2.37654e-07
1.92945e-08
2.37303e-07
1.85748e-08
2.36907e-07
1.78961e-08
2.36469e-07
1.72542e-08
2.35993e-07
1.66458e-08
2.35481e-07
1.6068e-08
2.34939e-07
1.55185e-08
2.34368e-07
1.4995e-08
2.33772e-07
1.44957e-08
2.33154e-07
1.40188e-08
2.32518e-07
1.35629e-08
2.31865e-07
1.31263e-08
2.31199e-07
1.27075e-08
2.30521e-07
1.23051e-08
2.29835e-07
1.19173e-08
2.29142e-07
1.15432e-08
2.28444e-07
1.118e-08
2.27743e-07
1.08279e-08
2.27041e-07
1.04814e-08
2.26341e-07
1.01439e-08
2.25642e-07
9.80344e-09
2.24949e-07
9.47087e-09
2.24262e-07
9.12136e-09
2.23584e-07
8.77782e-09
2.22915e-07
8.3984e-09
2.22263e-07
8.0112e-09
2.21621e-07
7.5762e-09
2.21004e-07
7.0639e-09
2.2041e-07
6.53745e-09
2.19814e-07
5.70056e-09
2.19269e-07
4.99622e-09
3.71771e-09
2.18568e-07
2.37601e-07
6.32631e-08
2.40578e-07
7.68785e-08
2.41997e-07
5.62279e-08
2.43092e-07
4.80397e-08
2.43724e-07
4.37491e-08
2.44101e-07
3.91625e-08
2.44425e-07
3.54923e-08
2.44717e-07
3.28609e-08
2.44966e-07
3.07542e-08
2.4518e-07
2.89361e-08
2.45362e-07
2.73539e-08
2.45515e-07
2.59712e-08
2.45637e-07
2.47465e-08
2.45727e-07
2.36469e-08
2.45783e-07
2.26489e-08
2.45804e-07
2.17354e-08
2.45789e-07
2.08931e-08
2.45737e-07
2.01115e-08
2.45649e-07
1.93822e-08
2.45526e-07
1.86985e-08
2.45367e-07
1.8055e-08
2.45174e-07
1.74472e-08
2.44948e-07
1.68715e-08
2.44691e-07
1.63248e-08
2.44405e-07
1.58047e-08
2.44091e-07
1.53088e-08
2.43752e-07
1.48352e-08
2.43389e-07
1.43822e-08
2.43003e-07
1.39481e-08
2.42598e-07
1.35315e-08
2.42175e-07
1.31308e-08
2.41735e-07
1.27447e-08
2.41281e-07
1.23714e-08
2.40814e-07
1.20099e-08
2.40337e-07
1.16576e-08
2.3985e-07
1.13146e-08
2.39356e-07
1.09756e-08
2.38856e-07
1.06436e-08
2.38352e-07
1.03076e-08
2.37846e-07
9.97643e-09
2.37339e-07
9.62868e-09
2.36835e-07
9.28148e-09
2.36332e-07
8.90181e-09
2.35839e-07
8.50448e-09
2.35349e-07
8.06626e-09
2.34872e-07
7.54027e-09
2.3441e-07
6.99956e-09
2.33933e-07
6.17747e-09
2.33487e-07
5.44282e-09
4.29686e-09
2.32907e-07
2.44436e-07
5.80831e-08
2.47452e-07
7.38632e-08
2.48815e-07
5.48641e-08
2.49913e-07
4.69416e-08
2.50584e-07
4.30785e-08
2.50978e-07
3.87688e-08
2.51306e-07
3.51635e-08
2.51604e-07
3.25633e-08
2.51861e-07
3.04968e-08
2.52086e-07
2.87119e-08
2.52286e-07
2.7154e-08
2.52465e-07
2.57921e-08
2.52624e-07
2.45874e-08
2.52763e-07
2.35078e-08
2.52882e-07
2.25301e-08
2.52979e-07
2.16376e-08
2.53056e-07
2.08171e-08
2.53109e-07
2.00579e-08
2.5314e-07
1.93517e-08
2.53147e-07
1.86914e-08
2.5313e-07
1.80716e-08
2.5309e-07
1.74876e-08
2.53026e-07
1.69355e-08
2.52938e-07
1.64122e-08
2.52828e-07
1.59149e-08
2.52696e-07
1.54411e-08
2.52542e-07
1.4989e-08
2.52368e-07
1.45565e-08
2.52174e-07
1.4142e-08
2.51961e-07
1.3744e-08
2.51731e-07
1.33608e-08
2.51485e-07
1.29911e-08
2.51223e-07
1.2633e-08
2.50948e-07
1.22856e-08
2.50659e-07
1.19461e-08
2.50359e-07
1.16145e-08
2.50049e-07
1.12858e-08
2.4973e-07
1.09623e-08
2.49404e-07
1.06341e-08
2.49072e-07
1.03081e-08
2.48735e-07
9.9661e-09
2.48396e-07
9.61973e-09
2.48054e-07
9.24412e-09
2.47716e-07
8.84277e-09
2.47376e-07
8.40567e-09
2.47041e-07
7.87529e-09
2.46714e-07
7.32674e-09
2.46362e-07
6.52963e-09
2.46023e-07
5.78198e-09
4.74746e-09
2.45572e-07
2.51489e-07
5.32013e-08
2.54532e-07
7.08196e-08
2.55852e-07
5.35446e-08
2.56947e-07
4.5846e-08
2.57656e-07
4.23702e-08
2.58069e-07
3.83556e-08
2.58404e-07
3.48287e-08
2.58707e-07
3.22601e-08
2.5897e-07
3.02339e-08
2.59199e-07
2.84829e-08
2.59404e-07
2.69485e-08
2.59591e-07
2.56048e-08
2.59763e-07
2.44162e-08
2.59919e-07
2.33513e-08
2.60061e-07
2.23877e-08
2.6019e-07
2.15089e-08
2.60305e-07
2.0702e-08
2.60406e-07
1.99568e-08
2.60493e-07
1.92647e-08
2.60566e-07
1.8619e-08
2.60623e-07
1.80141e-08
2.60666e-07
1.74452e-08
2.60693e-07
1.69086e-08
2.60704e-07
1.64008e-08
2.607e-07
1.5919e-08
2.6068e-07
1.54608e-08
2.60645e-07
1.50241e-08
2.60595e-07
1.46068e-08
2.60529e-07
1.42073e-08
2.6045e-07
1.38238e-08
2.60356e-07
1.34547e-08
2.60248e-07
1.30986e-08
2.60128e-07
1.27535e-08
2.59995e-07
1.24184e-08
2.5985e-07
1.20905e-08
2.59695e-07
1.17696e-08
2.5953e-07
1.14508e-08
2.59357e-07
1.11361e-08
2.59174e-07
1.08162e-08
2.58986e-07
1.04963e-08
2.58791e-07
1.01613e-08
2.58593e-07
9.81779e-09
2.58389e-07
9.44794e-09
2.58186e-07
9.04632e-09
2.57979e-07
8.61241e-09
2.5777e-07
8.08414e-09
2.57564e-07
7.53256e-09
2.57328e-07
6.76622e-09
2.5709e-07
6.01933e-09
5.07782e-09
2.5676e-07
2.58766e-07
4.8618e-08
2.61828e-07
6.77581e-08
2.63114e-07
5.22585e-08
2.64202e-07
4.4758e-08
2.64946e-07
4.16262e-08
2.65381e-07
3.7921e-08
2.65722e-07
3.44869e-08
2.66031e-07
3.19509e-08
2.663e-07
2.99653e-08
2.66533e-07
2.82498e-08
2.66742e-07
2.67399e-08
2.66932e-07
2.54142e-08
2.67108e-07
2.42408e-08
2.6727e-07
2.31893e-08
2.6742e-07
2.22375e-08
2.6756e-07
2.13694e-08
2.67689e-07
2.05727e-08
2.67809e-07
1.98371e-08
2.67919e-07
1.91546e-08
2.68019e-07
1.85184e-08
2.68111e-07
1.79229e-08
2.68192e-07
1.73637e-08
2.68264e-07
1.68368e-08
2.68326e-07
1.63389e-08
2.68378e-07
1.58671e-08
2.68419e-07
1.54191e-08
2.68451e-07
1.49925e-08
2.68472e-07
1.45854e-08
2.68484e-07
1.4196e-08
2.68485e-07
1.38227e-08
2.68476e-07
1.34636e-08
2.68457e-07
1.31173e-08
2.68429e-07
1.27818e-08
2.68391e-07
1.2456e-08
2.68345e-07
1.2137e-08
2.6829e-07
1.18245e-08
2.68227e-07
1.15138e-08
2.68157e-07
1.12061e-08
2.6808e-07
1.08934e-08
2.67997e-07
1.05787e-08
2.67909e-07
1.025e-08
2.67817e-07
9.90948e-09
2.6772e-07
9.5451e-09
2.67621e-07
9.145e-09
2.67519e-07
8.71459e-09
2.67411e-07
8.19226e-09
2.67303e-07
7.64092e-09
2.67161e-07
6.90741e-09
2.6701e-07
6.17117e-09
5.30674e-09
2.66781e-07
2.66278e-07
4.4332e-08
2.69347e-07
6.46894e-08
2.7061e-07
5.09949e-08
2.71687e-07
4.36817e-08
2.72463e-07
4.08498e-08
2.72921e-07
3.74631e-08
2.7327e-07
3.41373e-08
2.73586e-07
3.16357e-08
2.7386e-07
2.96905e-08
2.74098e-07
2.80121e-08
2.7431e-07
2.6528e-08
2.74503e-07
2.52211e-08
2.74681e-07
2.40631e-08
2.74845e-07
2.30248e-08
2.74998e-07
2.20844e-08
2.75141e-07
2.12264e-08
2.75275e-07
2.04385e-08
2.75401e-07
1.97111e-08
2.7552e-07
1.90362e-08
2.75631e-07
1.84071e-08
2.75735e-07
1.78186e-08
2.75833e-07
1.72661e-08
2.75924e-07
1.67458e-08
2.76008e-07
1.62545e-08
2.76086e-07
1.57893e-08
2.76157e-07
1.53478e-08
2.76222e-07
1.49278e-08
2.7628e-07
1.45273e-08
2.76332e-07
1.41445e-08
2.76376e-07
1.37778e-08
2.76415e-07
1.34254e-08
2.76446e-07
1.30857e-08
2.76471e-07
1.27567e-08
2.7649e-07
1.24371e-08
2.76503e-07
1.21243e-08
2.7651e-07
1.18175e-08
2.76511e-07
1.15125e-08
2.76508e-07
1.12097e-08
2.76499e-07
1.09021e-08
2.76487e-07
1.0591e-08
2.7647e-07
1.0267e-08
2.7645e-07
9.92875e-09
2.76427e-07
9.56852e-09
2.76402e-07
9.17043e-09
2.76373e-07
8.74284e-09
2.76337e-07
8.22827e-09
2.76299e-07
7.67935e-09
2.76228e-07
6.97804e-09
2.7614e-07
6.25893e-09
5.45809e-09
2.75989e-07
2.74033e-07
4.03402e-08
2.77098e-07
6.16245e-08
2.78349e-07
4.97438e-08
2.7941e-07
4.26209e-08
2.80215e-07
4.00448e-08
2.80697e-07
3.69807e-08
2.81056e-07
3.37791e-08
2.81377e-07
3.13145e-08
2.81658e-07
2.94093e-08
2.81901e-07
2.77695e-08
2.82116e-07
2.63128e-08
2.82312e-07
2.50254e-08
2.82491e-07
2.38833e-08
2.82658e-07
2.28586e-08
2.82812e-07
2.19298e-08
2.82957e-07
2.10817e-08
2.83093e-07
2.03026e-08
2.83221e-07
1.9583e-08
2.83342e-07
1.8915e-08
2.83457e-07
1.82924e-08
2.83566e-07
1.77097e-08
2.83669e-07
1.71627e-08
2.83767e-07
1.66477e-08
2.8386e-07
1.61613e-08
2.83949e-07
1.5701e-08
2.84032e-07
1.52642e-08
2.84111e-07
1.48487e-08
2.84186e-07
1.44528e-08
2.84256e-07
1.40745e-08
2.84322e-07
1.37122e-08
2.84383e-07
1.33641e-08
2.8444e-07
1.30287e-08
2.84493e-07
1.27039e-08
2.84541e-07
1.23885e-08
2.84586e-07
1.20796e-08
2.84627e-07
1.17765e-08
2.84664e-07
1.14751e-08
2.84699e-07
1.11752e-08
2.8473e-07
1.08709e-08
2.84759e-07
1.05619e-08
2.84785e-07
1.02409e-08
2.8481e-07
9.9039e-09
2.84832e-07
9.54627e-09
2.84852e-07
9.15009e-09
2.84871e-07
8.72443e-09
2.84881e-07
8.21819e-09
2.84887e-07
7.67322e-09
2.84863e-07
7.002e-09
2.84818e-07
6.30385e-09
5.55552e-09
2.84721e-07
2.8204e-07
3.66378e-08
2.8509e-07
5.85743e-08
2.86338e-07
4.84955e-08
2.87381e-07
4.15784e-08
2.8821e-07
3.92154e-08
2.88719e-07
3.64723e-08
2.89087e-07
3.3411e-08
2.89414e-07
3.09874e-08
2.89702e-07
2.91216e-08
2.8995e-07
2.75215e-08
2.90169e-07
2.60938e-08
2.90367e-07
2.48269e-08
2.90549e-07
2.37012e-08
2.90717e-07
2.26905e-08
2.90873e-07
2.17737e-08
2.91019e-07
2.09358e-08
2.91156e-07
2.01656e-08
2.91286e-07
1.94538e-08
2.91408e-07
1.87928e-08
2.91524e-07
1.81764e-08
2.91634e-07
1.75994e-08
2.91739e-07
1.70575e-08
2.9184e-07
1.65472e-08
2.91936e-07
1.60653e-08
2.92028e-07
1.5609e-08
2.92116e-07
1.51761e-08
2.922e-07
1.47643e-08
2.92281e-07
1.43719e-08
2.92359e-07
1.3997e-08
2.92433e-07
1.36379e-08
2.92504e-07
1.3293e-08
2.92572e-07
1.29606e-08
2.92637e-07
1.26388e-08
2.927e-07
1.2326e-08
2.9276e-07
1.20198e-08
2.92817e-07
1.17189e-08
2.92872e-07
1.14198e-08
2.92926e-07
1.11216e-08
2.92978e-07
1.08192e-08
2.93029e-07
1.05111e-08
2.93078e-07
1.01917e-08
2.93127e-07
9.85518e-09
2.93174e-07
9.49888e-09
2.9322e-07
9.10442e-09
2.93264e-07
8.68003e-09
2.933e-07
8.18213e-09
2.93331e-07
7.64242e-09
2.93334e-07
6.99862e-09
2.93315e-07
6.32342e-09
5.61884e-09
2.93252e-07
2.90308e-07
3.32184e-08
2.93333e-07
5.55499e-08
2.94587e-07
4.72412e-08
2.95609e-07
4.05563e-08
2.96458e-07
3.83667e-08
2.96993e-07
3.59369e-08
2.97372e-07
3.30319e-08
2.97705e-07
3.06545e-08
2.98e-07
2.88273e-08
2.98253e-07
2.72678e-08
2.98476e-07
2.58707e-08
2.98678e-07
2.46253e-08
2.98862e-07
2.35166e-08
2.99033e-07
2.25204e-08
2.9919e-07
2.16159e-08
2.99338e-07
2.07886e-08
2.99476e-07
2.00276e-08
2.99606e-07
1.93238e-08
2.99729e-07
1.86698e-08
2.99845e-07
1.80597e-08
2.99956e-07
1.74884e-08
3.00062e-07
1.69516e-08
3.00163e-07
1.6446e-08
3.0026e-07
1.59683e-08
3.00353e-07
1.5516e-08
3.00443e-07
1.50867e-08
3.00529e-07
1.46783e-08
3.00612e-07
1.42889e-08
3.00692e-07
1.39169e-08
3.00769e-07
1.35606e-08
3.00844e-07
1.32183e-08
3.00916e-07
1.28883e-08
3.00986e-07
1.25688e-08
3.01054e-07
1.22581e-08
3.0112e-07
1.19537e-08
3.01185e-07
1.16544e-08
3.01248e-07
1.13567e-08
3.0131e-07
1.10594e-08
3.01371e-07
1.07581e-08
3.01432e-07
1.04503e-08
3.01492e-07
1.01316e-08
3.01552e-07
9.79528e-09
3.01611e-07
9.43951e-09
3.01669e-07
9.04671e-09
3.01726e-07
8.6234e-09
3.01774e-07
8.13367e-09
3.01816e-07
7.60047e-09
3.01833e-07
6.98151e-09
3.01827e-07
6.33006e-09
5.66253e-09
3.01783e-07
2.98847e-07
3.00739e-08
3.01834e-07
5.25627e-08
3.03103e-07
4.5973e-08
3.04103e-07
3.95558e-08
3.04966e-07
3.7504e-08
3.05529e-07
3.53738e-08
3.05921e-07
3.26402e-08
3.06259e-07
3.03156e-08
3.0656e-07
2.85264e-08
3.0682e-07
2.70082e-08
3.07048e-07
2.56432e-08
3.07252e-07
2.44204e-08
3.0744e-07
2.33294e-08
3.07612e-07
2.2348e-08
3.07772e-07
2.14563e-08
3.0792e-07
2.06399e-08
3.0806e-07
1.98883e-08
3.08191e-07
1.91928e-08
3.08314e-07
1.85461e-08
3.08432e-07
1.79424e-08
3.08543e-07
1.73769e-08
3.08649e-07
1.68454e-08
3.08751e-07
1.63444e-08
3.08848e-07
1.5871e-08
3.08942e-07
1.54226e-08
3.09031e-07
1.49969e-08
3.09118e-07
1.45917e-08
3.09201e-07
1.42054e-08
3.09282e-07
1.38362e-08
3.0936e-07
1.34825e-08
3.09436e-07
1.31426e-08
3.09509e-07
1.28148e-08
3.09581e-07
1.24973e-08
3.09651e-07
1.21883e-08
3.09719e-07
1.18856e-08
3.09786e-07
1.15875e-08
3.09852e-07
1.12909e-08
3.09917e-07
1.09942e-08
3.09981e-07
1.06935e-08
3.10046e-07
1.03858e-08
3.1011e-07
1.00674e-08
3.10174e-07
9.73116e-09
3.10238e-07
9.37559e-09
3.103e-07
8.98457e-09
3.10361e-07
8.56255e-09
3.10414e-07
8.08088e-09
3.10459e-07
7.55541e-09
3.10481e-07
6.95907e-09
3.1048e-07
6.33145e-09
5.696e-09
3.10446e-07
3.07667e-07
2.71944e-08
3.10606e-07
4.96237e-08
3.11895e-07
4.46841e-08
3.12873e-07
3.85774e-08
3.13745e-07
3.66324e-08
3.14335e-07
3.47833e-08
3.14741e-07
3.22344e-08
3.15086e-07
2.99705e-08
3.15393e-07
2.82189e-08
3.15659e-07
2.67421e-08
3.15892e-07
2.5411e-08
3.161e-07
2.4212e-08
3.1629e-07
2.31392e-08
3.16465e-07
2.21732e-08
3.16627e-07
2.12947e-08
3.16777e-07
2.04896e-08
3.16918e-07
1.97477e-08
3.1705e-07
1.90607e-08
3.17174e-07
1.84215e-08
3.17292e-07
1.78245e-08
3.17404e-07
1.72648e-08
3.17511e-07
1.67387e-08
3.17613e-07
1.62425e-08
3.1771e-07
1.57735e-08
3.17804e-07
1.53291e-08
3.17894e-07
1.49069e-08
3.17981e-07
1.45051e-08
3.18064e-07
1.41219e-08
3.18145e-07
1.37555e-08
3.18223e-07
1.34043e-08
3.18299e-07
1.30668e-08
3.18373e-07
1.27412e-08
3.18444e-07
1.24256e-08
3.18514e-07
1.21183e-08
3.18583e-07
1.1817e-08
3.1865e-07
1.15201e-08
3.18717e-07
1.12245e-08
3.18782e-07
1.09283e-08
3.18848e-07
1.06281e-08
3.18913e-07
1.03205e-08
3.18978e-07
1.00023e-08
3.19043e-07
9.66623e-09
3.19108e-07
9.31087e-09
3.19171e-07
8.92186e-09
3.19232e-07
8.50166e-09
3.19284e-07
8.028e-09
3.19328e-07
7.51142e-09
3.19352e-07
6.93592e-09
3.19351e-07
6.33174e-09
5.72474e-09
3.19322e-07
3.16777e-07
2.45687e-08
3.19656e-07
4.67442e-08
3.20972e-07
4.33689e-08
3.21928e-07
3.76207e-08
3.22804e-07
3.5757e-08
3.23421e-07
3.4166e-08
3.23842e-07
3.1813e-08
3.24194e-07
2.9619e-08
3.24508e-07
2.7905e-08
3.2478e-07
2.64695e-08
3.25018e-07
2.51737e-08
3.2523e-07
2.39997e-08
3.25423e-07
2.29459e-08
3.25601e-07
2.19958e-08
3.25765e-07
2.11309e-08
3.25917e-07
2.03375e-08
3.26059e-07
1.96057e-08
3.26192e-07
1.89273e-08
3.26318e-07
1.82959e-08
3.26437e-07
1.77057e-08
3.26549e-07
1.71521e-08
3.26656e-07
1.66314e-08
3.26759e-07
1.61402e-08
3.26857e-07
1.56757e-08
3.2695e-07
1.52353e-08
3.2704e-07
1.48169e-08
3.27127e-07
1.44184e-08
3.27211e-07
1.40383e-08
3.27291e-07
1.36747e-08
3.2737e-07
1.33262e-08
3.27445e-07
1.29911e-08
3.27519e-07
1.26677e-08
3.2759e-07
1.2354e-08
3.2766e-07
1.20485e-08
3.27728e-07
1.17487e-08
3.27796e-07
1.14529e-08
3.27862e-07
1.11583e-08
3.27927e-07
1.08627e-08
3.27992e-07
1.05631e-08
3.28057e-07
1.02556e-08
3.28122e-07
9.93759e-09
3.28186e-07
9.60197e-09
3.2825e-07
9.24702e-09
3.28312e-07
8.86035e-09
3.28371e-07
8.44265e-09
3.28422e-07
7.97704e-09
3.28463e-07
7.47034e-09
3.28484e-07
6.91431e-09
3.28483e-07
6.33292e-09
5.75168e-09
3.28456e-07
3.26187e-07
2.21842e-08
3.28996e-07
4.39349e-08
3.30342e-07
4.20231e-08
3.31278e-07
3.66845e-08
3.32153e-07
3.48826e-08
3.32795e-07
3.35236e-08
3.33234e-07
3.13745e-08
3.33592e-07
2.92604e-08
3.33913e-07
2.75847e-08
3.34192e-07
2.61901e-08
3.34435e-07
2.49308e-08
3.34651e-07
2.37834e-08
3.34848e-07
2.27492e-08
3.35028e-07
2.18155e-08
3.35194e-07
2.09647e-08
3.35348e-07
2.01834e-08
3.35492e-07
1.94619e-08
3.35627e-07
1.87926e-08
3.35754e-07
1.81691e-08
3.35874e-07
1.75859e-08
3.35987e-07
1.70386e-08
3.36095e-07
1.65235e-08
3.36198e-07
1.60374e-08
3.36296e-07
1.55774e-08
3.3639e-07
1.51412e-08
3.3648e-07
1.47266e-08
3.36567e-07
1.43316e-08
3.36651e-07
1.39546e-08
3.36732e-07
1.3594e-08
3.3681e-07
1.32482e-08
3.36885e-07
1.29155e-08
3.36959e-07
1.25944e-08
3.3703e-07
1.22828e-08