/*--------------------------------*- C++ -*----------------------------------*\
  =========                 |
  \\      /  F ield         | OpenFOAM: The Open Source CFD Toolbox
   \\    /   O peration     | Website:  https://openfoam.org
    \\  /    A nd           | Version:  7
     \\/     M anipulation  |
\*---------------------------------------------------------------------------*/
FoamFile
{
    version     2.0;
    format      ascii;
    class       volVectorField;
    location    "0.09";
    object      U;
}
// * * * * * * * * * * * * * * * * * * * * * * * * * * * * * * * * * * * * * //

dimensions      [0 1 -1 0 0 0 0];

internalField   nonuniform List<vector> 
70000
(
(0.553414 0.0169781 0)
(0.251423 0.00340035 0)
(0.165939 0.00031891 0)
(0.132464 4.89837e-05 0)
(0.117365 4.40372e-05 0)
(0.107413 5.22044e-05 0)
(0.0994473 4.44065e-05 0)
(0.0930074 3.53323e-05 0)
(0.0877658 2.92977e-05 0)
(0.0833977 2.51635e-05 0)
(0.079675 2.20051e-05 0)
(0.0764504 1.94741e-05 0)
(0.0736226 1.74106e-05 0)
(0.0711177 1.57056e-05 0)
(0.0688796 1.42783e-05 0)
(0.0668652 1.30687e-05 0)
(0.0650404 1.20323e-05 0)
(0.063378 1.11351e-05 0)
(0.061856 1.03517e-05 0)
(0.0604566 9.66195e-06 0)
(0.0591648 9.05026e-06 0)
(0.0579682 8.50392e-06 0)
(0.0568563 8.01284e-06 0)
(0.0558201 7.56868e-06 0)
(0.054852 7.16455e-06 0)
(0.0539455 6.79464e-06 0)
(0.0530948 6.45382e-06 0)
(0.052295 6.1384e-06 0)
(0.0515419 5.84295e-06 0)
(0.0508317 5.56697e-06 0)
(0.0501613 5.30188e-06 0)
(0.0495277 5.05279e-06 0)
(0.0489288 4.80413e-06 0)
(0.0483621 4.57088e-06 0)
(0.0478266 4.32478e-06 0)
(0.0473203 4.09433e-06 0)
(0.0468426 3.84055e-06 0)
(0.0463934 3.58617e-06 0)
(0.0459698 3.33715e-06 0)
(0.045579 2.97726e-06 0)
(0.0452065 2.83721e-06 0)
(0.0448841 2.10526e-06 0)
(0.0445553 2.48782e-06 0)
(0.0443313 5.37731e-07 0)
(0.0440216 2.81904e-06 0)
(0.0439747 -2.9835e-06 0)
(0.0436092 5.61781e-06 0)
(0.043916 -1.25609e-05 0)
(0.0435198 2.84178e-05 0)
(0.0410232 -0.00163163 0)
(0.884863 0.043493 0)
(0.650158 0.0201483 0)
(0.494007 0.00660394 0)
(0.403605 0.00275411 0)
(0.354912 0.00154743 0)
(0.323612 0.00113131 0)
(0.299723 0.000909085 0)
(0.28052 0.000744711 0)
(0.264807 0.000622239 0)
(0.251682 0.000531981 0)
(0.240493 0.000463504 0)
(0.230799 0.000409644 0)
(0.222295 0.000366145 0)
(0.214758 0.000330353 0)
(0.20802 0.000300463 0)
(0.201953 0.000275177 0)
(0.196454 0.000253545 0)
(0.191442 0.000234851 0)
(0.186851 0.000218552 0)
(0.182627 0.00020423 0)
(0.178727 0.000191554 0)
(0.175111 0.000180264 0)
(0.17175 0.000170149 0)
(0.168615 0.000161037 0)
(0.165685 0.000152788 0)
(0.162939 0.000145282 0)
(0.160359 0.00013842 0)
(0.157932 0.000132116 0)
(0.155645 0.000126293 0)
(0.153484 0.00012089 0)
(0.151442 0.000115835 0)
(0.149509 0.000111092 0)
(0.147678 0.000106572 0)
(0.145942 0.000102281 0)
(0.144296 9.80728e-05 0)
(0.142736 9.40328e-05 0)
(0.141257 8.98892e-05 0)
(0.139859 8.58719e-05 0)
(0.138534 8.14996e-05 0)
(0.1373 7.71635e-05 0)
(0.136118 7.22444e-05 0)
(0.13507 6.68865e-05 0)
(0.134008 6.13042e-05 0)
(0.133223 5.30486e-05 0)
(0.132217 4.79479e-05 0)
(0.131897 3.04394e-05 0)
(0.130768 3.56718e-05 0)
(0.131338 -3.94215e-05 0)
(0.130138 0.000210189 0)
(0.128433 -0.00279313 0)
(0.991208 0.049955 0)
(0.890933 0.0305612 0)
(0.762524 0.0146086 0)
(0.656595 0.00796897 0)
(0.585515 0.00487816 0)
(0.536165 0.00347361 0)
(0.498285 0.00273804 0)
(0.467658 0.00224444 0)
(0.442339 0.00188145 0)
(0.421017 0.00161058 0)
(0.402744 0.00140389 0)
(0.386852 0.00124133 0)
(0.372867 0.00111012 0)
(0.360441 0.00100217 0)
(0.349308 0.000911989 0)
(0.339262 0.000835677 0)
(0.330142 0.00077037 0)
(0.321817 0.00071392 0)
(0.314182 0.000664697 0)
(0.307148 0.000621437 0)
(0.300645 0.000583153 0)
(0.294611 0.000549059 0)
(0.288995 0.000518523 0)
(0.283754 0.000491029 0)
(0.278849 0.000466155 0)
(0.274248 0.000443544 0)
(0.269922 0.000422898 0)
(0.265848 0.000403963 0)
(0.262004 0.000386512 0)
(0.25837 0.000370356 0)
(0.25493 0.000355304 0)
(0.25167 0.000341223 0)
(0.248578 0.000327903 0)
(0.24564 0.000315298 0)
(0.24285 0.000303079 0)
(0.240198 0.000291392 0)
(0.237677 0.000279572 0)
(0.235287 0.000268221 0)
(0.233012 0.000255889 0)
(0.230877 0.000244166 0)
(0.228826 0.000230026 0)
(0.226977 0.000216816 0)
(0.225114 0.000199094 0)
(0.223654 0.000181805 0)
(0.221885 0.00015921 0)
(0.22109 0.0001277 0)
(0.219173 0.000114234 0)
(0.219615 -2.91491e-05 0)
(0.217471 0.000279621 0)
(0.217761 -0.00285983 0)
(1.01554 0.048953 0)
(1.0065 0.0357219 0)
(0.935913 0.0208159 0)
(0.852069 0.013495 0)
(0.782325 0.00919515 0)
(0.727204 0.0067815 0)
(0.682132 0.0053865 0)
(0.644379 0.0044466 0)
(0.61236 0.00375337 0)
(0.584881 0.00322896 0)
(0.561003 0.00282421 0)
(0.540018 0.00250374 0)
(0.5214 0.00224399 0)
(0.504746 0.00202954 0)
(0.489742 0.00184986 0)
(0.476141 0.00169743 0)
(0.463744 0.0015667 0)
(0.452388 0.00145349 0)
(0.441941 0.00135462 0)
(0.432293 0.00126761 0)
(0.423351 0.00119053 0)
(0.415036 0.00112182 0)
(0.407281 0.00106023 0)
(0.400031 0.00100475 0)
(0.393235 0.000954546 0)
(0.38685 0.000908902 0)
(0.380839 0.000867235 0)
(0.375168 0.000829033 0)
(0.36981 0.000793862 0)
(0.364739 0.000761337 0)
(0.359932 0.000731102 0)
(0.355369 0.000702871 0)
(0.351035 0.00067628 0)
(0.346911 0.000651186 0)
(0.342986 0.000627037 0)
(0.339248 0.000604025 0)
(0.335688 0.000580986 0)
(0.3323 0.000559014 0)
(0.329068 0.000535315 0)
(0.326018 0.000513272 0)
(0.323083 0.000486186 0)
(0.320397 0.000462709 0)
(0.317712 0.000427817 0)
(0.315504 0.000400209 0)
(0.31296 0.000351682 0)
(0.311528 0.000307101 0)
(0.308873 0.000257838 0)
(0.308833 6.14818e-05 0)
(0.305864 0.000308473 0)
(0.306875 -0.0025448 0)
(1.01435 0.0460972 0)
(1.04798 0.0373384 0)
(1.02458 0.0241822 0)
(0.974724 0.0175524 0)
(0.92356 0.0131044 0)
(0.876863 0.010202 0)
(0.834727 0.00834365 0)
(0.796999 0.00702286 0)
(0.763449 0.00601417 0)
(0.733634 0.00522888 0)
(0.707038 0.00460931 0)
(0.683191 0.00411095 0)
(0.661695 0.00370231 0)
(0.642217 0.00336186 0)
(0.624483 0.00307449 0)
(0.608264 0.00282918 0)
(0.593368 0.00261769 0)
(0.579636 0.00243375 0)
(0.566932 0.00227249 0)
(0.555142 0.00213012 0)
(0.544166 0.00200363 0)
(0.533921 0.0018906 0)
(0.524333 0.00178909 0)
(0.51534 0.00169747 0)
(0.506887 0.00161442 0)
(0.498924 0.00153883 0)
(0.491409 0.00146976 0)
(0.484305 0.0014064 0)
(0.477578 0.00134804 0)
(0.471198 0.00129407 0)
(0.46514 0.00124394 0)
(0.459379 0.00119718 0)
(0.453895 0.00115323 0)
(0.448669 0.00111182 0)
(0.443686 0.00107217 0)
(0.43893 0.00103448 0)
(0.434391 0.000997045 0)
(0.43006 0.000961485 0)
(0.42592 0.000923503 0)
(0.421993 0.000888502 0)
(0.418213 0.000845588 0)
(0.414711 0.000809522 0)
(0.411239 0.000754254 0)
(0.408266 0.000714253 0)
(0.404998 0.000635926 0)
(0.402838 0.000575894 0)
(0.399552 0.000484442 0)
(0.398761 0.000240322 0)
(0.395303 0.000386633 0)
(0.395705 -0.0021615 0)
(1.00941 0.0430468 0)
(1.05564 0.0370934 0)
(1.05868 0.0253227 0)
(1.03634 0.0197558 0)
(1.00719 0.0157906 0)
(0.976205 0.0129279 0)
(0.944709 0.0109586 0)
(0.913868 0.00947782 0)
(0.884535 0.00828942 0)
(0.857087 0.00732489 0)
(0.8316 0.00653851 0)
(0.808009 0.00588975 0)
(0.786194 0.00534708 0)
(0.766012 0.00488769 0)
(0.747316 0.00449479 0)
(0.729968 0.00415573 0)
(0.713839 0.00386071 0)
(0.69881 0.00360209 0)
(0.684779 0.00337383 0)
(0.671651 0.00317113 0)
(0.659344 0.00299012 0)
(0.647784 0.00282765 0)
(0.636906 0.00268115 0)
(0.62665 0.00254847 0)
(0.616966 0.00242784 0)
(0.607805 0.00231774 0)
(0.599128 0.00221691 0)
(0.590897 0.00212421 0)
(0.583077 0.00203871 0)
(0.575639 0.00195955 0)
(0.568557 0.00188596 0)
(0.561804 0.00181727 0)
(0.555361 0.00175277 0)
(0.549206 0.00169202 0)
(0.543324 0.001634 0)
(0.537697 0.00157892 0)
(0.532313 0.00152453 0)
(0.527164 0.00147293 0)
(0.522231 0.00141838 0)
(0.517532 0.00136814 0)
(0.513008 0.0013074 0)
(0.508772 0.00125643 0)
(0.504607 0.00117929 0)
(0.500923 0.00112386 0)
(0.497028 0.00101569 0)
(0.494136 0.000934576 0)
(0.490355 0.000803079 0)
(0.488691 0.000507229 0)
(0.484998 0.000556396 0)
(0.484302 -0.00172156 0)
(1.00635 0.0401789 0)
(1.05241 0.0361465 0)
(1.06606 0.0252455 0)
(1.05955 0.0205596 0)
(1.04694 0.0172161 0)
(1.03092 0.0146444 0)
(1.01205 0.0128156 0)
(0.991392 0.0113926 0)
(0.97001 0.0101984 0)
(0.948624 0.00918678 0)
(0.927675 0.00833123 0)
(0.907423 0.00760336 0)
(0.888014 0.00697855 0)
(0.869516 0.00643793 0)
(0.851947 0.00596693 0)
(0.835296 0.005554 0)
(0.819531 0.00518982 0)
(0.804612 0.00486684 0)
(0.790491 0.00457888 0)
(0.777121 0.00432088 0)
(0.764454 0.00408868 0)
(0.752444 0.00387883 0)
(0.741047 0.00368843 0)
(0.730222 0.00351506 0)
(0.71993 0.00335666 0)
(0.710136 0.00321145 0)
(0.700806 0.00307794 0)
(0.691909 0.00295478 0)
(0.683419 0.00284083 0)
(0.675308 0.00273504 0)
(0.667553 0.00263649 0)
(0.660132 0.00254435 0)
(0.653027 0.00245771 0)
(0.646217 0.00237605 0)
(0.63969 0.0022981 0)
(0.633427 0.00222405 0)
(0.627418 0.00215123 0)
(0.621653 0.00208205 0)
(0.616118 0.0020096 0)
(0.610823 0.00194254 0)
(0.605722 0.00186299 0)
(0.600903 0.00179516 0)
(0.596194 0.00169607 0)
(0.591923 0.00162192 0)
(0.587542 0.00148624 0)
(0.584008 0.00137741 0)
(0.579867 0.00121176 0)
(0.577383 0.000859469 0)
(0.573552 0.000819064 0)
(0.571828 -0.00120618 0)
(1.00506 0.0375016 0)
(1.04763 0.0350481 0)
(1.06396 0.0246978 0)
(1.0642 0.0205901 0)
(1.06073 0.0177533 0)
(1.05485 0.0154838 0)
(1.04612 0.0138704 0)
(1.03496 0.0126126 0)
(1.02207 0.0115297 0)
(1.00807 0.0105818 0)
(0.993404 0.00975485 0)
(0.97842 0.00903073 0)
(0.963383 0.00839246 0)
(0.948486 0.00782679 0)
(0.933862 0.00732334 0)
(0.919605 0.00687352 0)
(0.905773 0.00647011 0)
(0.8924 0.00610699 0)
(0.879506 0.00577896 0)
(0.867094 0.0054816 0)
(0.855162 0.00521118 0)
(0.843701 0.00496448 0)
(0.832698 0.00473877 0)
(0.822137 0.00453168 0)
(0.812 0.00434117 0)
(0.80227 0.00416545 0)
(0.792929 0.00400297 0)
(0.783957 0.00385233 0)
(0.775339 0.00371231 0)
(0.767056 0.00358177 0)
(0.759093 0.00345972 0)
(0.751433 0.00334521 0)
(0.744064 0.00323727 0)
(0.736969 0.00313526 0)
(0.730141 0.00303777 0)
(0.723563 0.00294497 0)
(0.71723 0.00285384 0)
(0.71113 0.00276699 0)
(0.705255 0.00267668 0)
(0.699611 0.00259239 0)
(0.694164 0.00249429 0)
(0.688981 0.00240858 0)
(0.683933 0.00228871 0)
(0.679267 0.00219338 0)
(0.674581 0.00203357 0)
(0.670578 0.00189214 0)
(0.666218 0.00169742 0)
(0.663098 0.00129049 0)
(0.65917 0.00116443 0)
(0.656664 -0.000622672 0)
(1.00451 0.0349657 0)
(1.0436 0.0339681 0)
(1.05994 0.0240467 0)
(1.06224 0.0203003 0)
(1.06255 0.0178174 0)
(1.0619 0.0157621 0)
(1.05935 0.0143222 0)
(1.05483 0.0132301 0)
(1.04864 0.0122896 0)
(1.04111 0.0114541 0)
(1.03249 0.0107122 0)
(1.02305 0.0100498 0)
(1.01301 0.00945386 0)
(1.00256 0.00891464 0)
(0.991878 0.00842505 0)
(0.981078 0.00797934 0)
(0.970269 0.00757259 0)
(0.959529 0.00720055 0)
(0.948921 0.00685948 0)
(0.93849 0.00654614 0)
(0.928269 0.00625765 0)
(0.918284 0.00599152 0)
(0.908549 0.00574553 0)
(0.899074 0.00551771 0)
(0.889866 0.00530634 0)
(0.880926 0.00510985 0)
(0.872253 0.00492685 0)
(0.863843 0.00475605 0)
(0.855694 0.00459633 0)
(0.847797 0.00444659 0)
(0.840149 0.00430585 0)
(0.832742 0.00417318 0)
(0.825569 0.00404759 0)
(0.818624 0.00392841 0)
(0.8119 0.00381417 0)
(0.805391 0.00370501 0)
(0.799092 0.00359772 0)
(0.792998 0.00349498 0)
(0.787103 0.0033886 0)
(0.781413 0.00328828 0)
(0.775906 0.00317337 0)
(0.77063 0.00307023 0)
(0.765497 0.00293196 0)
(0.760683 0.00281466 0)
(0.755909 0.00263455 0)
(0.75167 0.00245886 0)
(0.747259 0.0022386 0)
(0.743748 0.00178424 0)
(0.739801 0.00157742 0)
(0.736784 8.88842e-06 0)
(1.00412 0.0325351 0)
(1.04027 0.0329146 0)
(1.05618 0.0234119 0)
(1.05889 0.0199155 0)
(1.06028 0.0176877 0)
(1.06167 0.0157638 0)
(1.06206 0.014425 0)
(1.06119 0.013448 0)
(1.05916 0.0126233 0)
(1.05607 0.0118937 0)
(1.05201 0.0112451 0)
(1.04709 0.0106632 0)
(1.04144 0.0101349 0)
(1.03517 0.00965099 0)
(1.02841 0.00920559 0)
(1.02125 0.00879424 0)
(1.01381 0.00841337 0)
(1.00616 0.00805998 0)
(0.998368 0.00773154 0)
(0.9905 0.0074258 0)
(0.982604 0.00714082 0)
(0.974723 0.00687483 0)
(0.966889 0.00662627 0)
(0.95913 0.00639372 0)
(0.951468 0.0061759 0)
(0.94392 0.00597161 0)
(0.936499 0.00577976 0)
(0.929216 0.00559932 0)
(0.922077 0.00542935 0)
(0.915088 0.00526891 0)
(0.908254 0.00511716 0)
(0.901576 0.00497324 0)
(0.895056 0.00483623 0)
(0.888693 0.00470551 0)
(0.88249 0.0045796 0)
(0.876443 0.00445867 0)
(0.870556 0.00433942 0)
(0.864826 0.00422453 0)
(0.859254 0.00410564 0)
(0.853845 0.00399227 0)
(0.848587 0.00386388 0)
(0.843517 0.00374548 0)
(0.838576 0.00359238 0)
(0.83389 0.00345441 0)
(0.829272 0.00325819 0)
(0.825059 0.00304998 0)
(0.820793 0.00280696 0)
(0.81716 0.00231626 0)
(0.813321 0.00203501 0)
(0.810062 0.00066461 0)
(1.00374 0.0302008 0)
(1.03727 0.0318653 0)
(1.05284 0.0228083 0)
(1.05565 0.0195129 0)
(1.05718 0.0174968 0)
(1.05913 0.0156613 0)
(1.06059 0.0143699 0)
(1.0613 0.0134561 0)
(1.06133 0.0127047 0)
(1.06072 0.0120491 0)
(1.05944 0.0114728 0)
(1.05752 0.0109602 0)
(1.055 0.0104965 0)
(1.05191 0.0100717 0)
(1.04831 0.0096791 0)
(1.04426 0.00931423 0)
(1.03983 0.00897368 0)
(1.03506 0.00865482 0)
(1.03003 0.00835553 0)
(1.02476 0.0080741 0)
(1.01932 0.00780908 0)
(1.01375 0.00755921 0)
(1.00807 0.0073234 0)
(1.00232 0.00710067 0)
(0.996527 0.00689011 0)
(0.990718 0.00669088 0)
(0.984913 0.00650222 0)
(0.979127 0.00632335 0)
(0.973377 0.00615356 0)
(0.967674 0.00599211 0)
(0.96203 0.00583831 0)
(0.956453 0.00569146 0)
(0.950952 0.00555072 0)
(0.945531 0.00541558 0)
(0.940199 0.00528459 0)
(0.934957 0.00515798 0)
(0.929814 0.00503246 0)
(0.924771 0.00491062 0)
(0.919833 0.00478421 0)
(0.915008 0.00466222 0)
(0.910291 0.00452495 0)
(0.90571 0.00439501 0)
(0.90123 0.00423167 0)
(0.896939 0.00407625 0)
(0.892719 0.00386853 0)
(0.88879 0.00363238 0)
(0.884873 0.00336965 0)
(0.88138 0.00285552 0)
(0.877805 0.0025096 0)
(0.874561 0.00131401 0)
(1.00337 0.0279652 0)
(1.03443 0.030808 0)
(1.04973 0.0222295 0)
(1.05269 0.0191076 0)
(1.05418 0.0172873 0)
(1.05618 0.0155296 0)
(1.05792 0.01426 0)
(1.05915 0.0133768 0)
(1.06 0.0126657 0)
(1.06049 0.0120532 0)
(1.0606 0.0115218 0)
(1.06033 0.0110558 0)
(1.05965 0.0106394 0)
(1.05857 0.0102612 0)
(1.0571 0.0099138 0)
(1.05526 0.00959182 0)
(1.05308 0.00929143 0)
(1.05058 0.00900968 0)
(1.04779 0.00874434 0)
(1.04473 0.00849365 0)
(1.04145 0.00825624 0)
(1.03797 0.00803099 0)
(1.03431 0.00781698 0)
(1.03051 0.0076134 0)
(1.02658 0.00741958 0)
(1.02255 0.00723486 0)
(1.01844 0.00705867 0)
(1.01426 0.00689044 0)
(1.01004 0.00672963 0)
(1.00579 0.00657566 0)
(1.00151 0.00642797 0)
(0.997235 0.00628597 0)
(0.992959 0.00614894 0)
(0.988696 0.00601644 0)
(0.984456 0.0058871 0)
(0.980246 0.00576118 0)
(0.976074 0.00563543 0)
(0.971946 0.00551235 0)
(0.967871 0.00538396 0)
(0.963857 0.00525844 0)
(0.959904 0.00511748 0)
(0.956037 0.00498059 0)
(0.952234 0.00481214 0)
(0.948557 0.00464377 0)
(0.944937 0.0044294 0)
(0.94151 0.00417175 0)
(0.938119 0.00389326 0)
(0.934991 0.00336831 0)
(0.931832 0.00297145 0)
(0.928829 0.0019252 0)
(1.00301 0.0258319 0)
(1.03171 0.0297385 0)
(1.04674 0.0216719 0)
(1.04989 0.0186993 0)
(1.05136 0.0170659 0)
(1.05333 0.0153909 0)
(1.0551 0.0141364 0)
(1.05645 0.013269 0)
(1.05752 0.0125809 0)
(1.0584 0.0119919 0)
(1.05908 0.0114849 0)
(1.05954 0.0110454 0)
(1.05977 0.0106576 0)
(1.05976 0.0103097 0)
(1.0595 0.00999335 0)
(1.05899 0.0097028 0)
(1.05824 0.00943363 0)
(1.05724 0.00918248 0)
(1.05601 0.00894674 0)
(1.05455 0.00872439 0)
(1.05289 0.00851388 0)
(1.05104 0.00831395 0)
(1.04901 0.00812361 0)
(1.04681 0.00794203 0)
(1.04447 0.00776855 0)
(1.04199 0.00760256 0)
(1.0394 0.00744353 0)
(1.0367 0.00729096 0)
(1.03392 0.00714437 0)
(1.03105 0.00700328 0)
(1.02812 0.00686717 0)
(1.02513 0.00673555 0)
(1.0221 0.00660771 0)
(1.01904 0.00648329 0)
(1.01595 0.00636094 0)
(1.01284 0.00624093 0)
(1.00973 0.0061201 0)
(1.00661 0.00600076 0)
(1.00351 0.00587532 0)
(1.00042 0.00575099 0)
(0.997347 0.0056112 0)
(0.994318 0.00547189 0)
(0.991319 0.00530316 0)
(0.98839 0.00512679 0)
(0.985498 0.00491025 0)
(0.982719 0.0046384 0)
(0.979974 0.00434837 0)
(0.977371 0.00382462 0)
(0.974743 0.00339117 0)
(0.97215 0.0024713 0)
(1.00268 0.0238034 0)
(1.02911 0.0286552 0)
(1.04383 0.0211351 0)
(1.0472 0.018288 0)
(1.04868 0.0168311 0)
(1.05061 0.0152477 0)
(1.05237 0.01401 0)
(1.05373 0.0131539 0)
(1.05484 0.012482 0)
(1.05581 0.0119077 0)
(1.05666 0.0114142 0)
(1.05739 0.0109889 0)
(1.05798 0.0106167 0)
(1.05844 0.0102859 0)
(1.05876 0.00998789 0)
(1.05892 0.00971681 0)
(1.05894 0.00946799 0)
(1.05879 0.00923776 0)
(1.05849 0.00902325 0)
(1.05804 0.0088222 0)
(1.05743 0.00863281 0)
(1.05667 0.00845364 0)
(1.05577 0.00828356 0)
(1.05473 0.0081216 0)
(1.05356 0.007967 0)
(1.05226 0.00781907 0)
(1.05086 0.00767726 0)
(1.04934 0.00754102 0)
(1.04773 0.00740988 0)
(1.04602 0.00728332 0)
(1.04424 0.00716083 0)
(1.04238 0.00704193 0)
(1.04045 0.00692589 0)
(1.03847 0.00681236 0)
(1.03643 0.00669997 0)
(1.03435 0.00658899 0)
(1.03224 0.00647631 0)
(1.0301 0.00636396 0)
(1.02793 0.00624488 0)
(1.02576 0.00612512 0)
(1.02357 0.00599007 0)
(1.02139 0.00585197 0)
(1.01922 0.00568666 0)
(1.01707 0.00550673 0)
(1.01494 0.00529155 0)
(1.01287 0.00501244 0)
(1.01081 0.00471502 0)
(1.00881 0.0042024 0)
(1.00677 0.00374623 0)
(1.00468 0.0029331 0)
(1.00238 0.0218815 0)
(1.02664 0.0275573 0)
(1.041 0.0206186 0)
(1.04459 0.0178751 0)
(1.04608 0.0165817 0)
(1.04799 0.0150986 0)
(1.04974 0.013882 0)
(1.0511 0.0130363 0)
(1.0522 0.0123789 0)
(1.05318 0.0118169 0)
(1.05406 0.0113326 0)
(1.05485 0.0109158 0)
(1.05556 0.0105524 0)
(1.05618 0.0102309 0)
(1.05672 0.00994307 0)
(1.05718 0.00968292 0)
(1.05754 0.00944584 0)
(1.05781 0.00922811 0)
(1.05799 0.00902676 0)
(1.05807 0.00883941 0)
(1.05805 0.00866415 0)
(1.05793 0.0084994 0)
(1.05771 0.00834389 0)
(1.0574 0.00819656 0)
(1.05698 0.00805652 0)
(1.05648 0.00792301 0)
(1.05588 0.00779538 0)
(1.05519 0.00767302 0)
(1.05442 0.00755539 0)
(1.05357 0.00744194 0)
(1.05265 0.00733211 0)
(1.05165 0.00722538 0)
(1.05059 0.00712096 0)
(1.04947 0.00701849 0)
(1.04829 0.00691654 0)
(1.04706 0.0068153 0)
(1.04578 0.00671174 0)
(1.04446 0.00660756 0)
(1.04312 0.00649627 0)
(1.04174 0.00638265 0)
(1.04034 0.00625417 0)
(1.03893 0.00611937 0)
(1.0375 0.00595958 0)
(1.03608 0.00577932 0)
(1.03465 0.00556764 0)
(1.03324 0.0052869 0)
(1.03184 0.00498569 0)
(1.03043 0.00449123 0)
(1.02896 0.00402475 0)
(1.02739 0.00330142 0)
(1.0021 0.0200671 0)
(1.02431 0.0264467 0)
(1.03827 0.0201204 0)
(1.04207 0.0174626 0)
(1.04358 0.0163175 0)
(1.04545 0.0149423 0)
(1.04721 0.0137519 0)
(1.04857 0.0129167 0)
(1.04966 0.0122737 0)
(1.05062 0.0117238 0)
(1.0515 0.0112479 0)
(1.05229 0.0108376 0)
(1.05302 0.0104803 0)
(1.05368 0.0101648 0)
(1.05428 0.00988289 0)
(1.05483 0.00962895 0)
(1.05533 0.00939843 0)
(1.05577 0.00918771 0)
(1.05615 0.00899385 0)
(1.05647 0.00881447 0)
(1.05674 0.00864761 0)
(1.05694 0.00849169 0)
(1.05708 0.00834537 0)
(1.05716 0.00820753 0)
(1.05717 0.00807722 0)
(1.05713 0.00795361 0)
(1.05702 0.007836 0)
(1.05684 0.00772372 0)
(1.05661 0.00761618 0)
(1.05631 0.00751278 0)
(1.05596 0.00741289 0)
(1.05555 0.00731595 0)
(1.05509 0.00722111 0)
(1.05458 0.00712795 0)
(1.05402 0.00703501 0)
(1.05341 0.00694235 0)
(1.05276 0.00684705 0)
(1.05207 0.00675041 0)
(1.05135 0.00664655 0)
(1.0506 0.00653895 0)
(1.04982 0.00641714 0)
(1.04902 0.00628623 0)
(1.0482 0.00613238 0)
(1.04738 0.00595359 0)
(1.04654 0.00574608 0)
(1.04569 0.00546762 0)
(1.04484 0.00516526 0)
(1.04395 0.00469301 0)
(1.04298 0.00422625 0)
(1.04189 0.00357801 0)
(1.00185 0.0183605 0)
(1.02211 0.0253275 0)
(1.03564 0.0196366 0)
(1.03963 0.0170523 0)
(1.04117 0.0160393 0)
(1.04301 0.0147778 0)
(1.04477 0.0136193 0)
(1.04612 0.0127947 0)
(1.04721 0.0121663 0)
(1.04816 0.0116291 0)
(1.04902 0.0111617 0)
(1.0498 0.0107577 0)
(1.05052 0.0104058 0)
(1.05118 0.010095 0)
(1.05179 0.00981756 0)
(1.05236 0.0095678 0)
(1.05289 0.00934141 0)
(1.05338 0.00913488 0)
(1.05383 0.00894535 0)
(1.05425 0.00877051 0)
(1.05462 0.00860844 0)
(1.05496 0.00845757 0)
(1.05527 0.00831657 0)
(1.05553 0.00818433 0)
(1.05575 0.00805987 0)
(1.05594 0.00794234 0)
(1.05608 0.00783101 0)
(1.05619 0.0077252 0)
(1.05625 0.00762426 0)
(1.05628 0.00752759 0)
(1.05626 0.0074345 0)
(1.05621 0.00734441 0)
(1.05612 0.00725641 0)
(1.05599 0.00717002 0)
(1.05582 0.00708376 0)
(1.05562 0.00699754 0)
(1.05539 0.0069086 0)
(1.05513 0.00681777 0)
(1.05484 0.00671984 0)
(1.05452 0.00661702 0)
(1.05419 0.00650075 0)
(1.05383 0.00637315 0)
(1.05346 0.00622442 0)
(1.05307 0.00604765 0)
(1.05267 0.00584384 0)
(1.05226 0.00556985 0)
(1.05182 0.00526805 0)
(1.05133 0.00481948 0)
(1.05076 0.00435971 0)
(1.05006 0.00377383 0)
(1.00162 0.0167613 0)
(1.02004 0.0242039 0)
(1.03311 0.0191632 0)
(1.03728 0.0166457 0)
(1.03885 0.015748 0)
(1.04066 0.0146046 0)
(1.04241 0.0134837 0)
(1.04377 0.0126703 0)
(1.04484 0.0120564 0)
(1.04578 0.0115326 0)
(1.04663 0.0110743 0)
(1.0474 0.0106768 0)
(1.04811 0.0103303 0)
(1.04876 0.0100241 0)
(1.04936 0.00975058 0)
(1.04992 0.00950435 0)
(1.05045 0.00928118 0)
(1.05095 0.00907769 0)
(1.05141 0.00889111 0)
(1.05185 0.00871916 0)
(1.05226 0.00856002 0)
(1.05265 0.00841215 0)
(1.05301 0.00827426 0)
(1.05334 0.00814524 0)
(1.05365 0.00802414 0)
(1.05394 0.00791012 0)
(1.0542 0.00780245 0)
(1.05443 0.00770043 0)
(1.05464 0.00760343 0)
(1.05483 0.00751083 0)
(1.05499 0.00742191 0)
(1.05512 0.00733609 0)
(1.05523 0.00725241 0)
(1.05531 0.00717035 0)
(1.05537 0.00708842 0)
(1.05541 0.0070064 0)
(1.05543 0.00692168 0)
(1.05542 0.00683465 0)
(1.0554 0.00674077 0)
(1.05536 0.00664106 0)
(1.0553 0.00652866 0)
(1.05523 0.00640324 0)
(1.05515 0.00625813 0)
(1.05505 0.00608316 0)
(1.05495 0.00588199 0)
(1.05482 0.00561336 0)
(1.05468 0.00531316 0)
(1.05447 0.00488781 0)
(1.05418 0.00443983 0)
(1.05376 0.00390535 0)
(1.00142 0.0152689 0)
(1.01812 0.0230799 0)
(1.03068 0.0186961 0)
(1.03502 0.0162444 0)
(1.03663 0.0154451 0)
(1.03839 0.014422 0)
(1.04014 0.0133448 0)
(1.0415 0.0125436 0)
(1.04257 0.011944 0)
(1.0435 0.0114342 0)
(1.04433 0.0109856 0)
(1.04509 0.0105949 0)
(1.04579 0.0102538 0)
(1.04642 0.00995232 0)
(1.04702 0.00968284 0)
(1.04757 0.00944005 0)
(1.04809 0.0092199 0)
(1.04858 0.00901911 0)
(1.04904 0.00883498 0)
(1.04947 0.00866533 0)
(1.04989 0.00850835 0)
(1.05028 0.00836257 0)
(1.05065 0.00822673 0)
(1.05101 0.00809975 0)
(1.05134 0.00798071 0)
(1.05166 0.00786878 0)
(1.05196 0.00776324 0)
(1.05225 0.00766342 0)
(1.05252 0.00756868 0)
(1.05277 0.0074784 0)
(1.053 0.00739188 0)
(1.05322 0.0073085 0)
(1.05342 0.00722731 0)
(1.05361 0.00714774 0)
(1.05379 0.00706832 0)
(1.05394 0.00698868 0)
(1.05409 0.00690639 0)
(1.05422 0.00682145 0)
(1.05434 0.0067299 0)
(1.05445 0.00663176 0)
(1.05456 0.00652161 0)
(1.05465 0.0063972 0)
(1.05474 0.00625416 0)
(1.05481 0.00608047 0)
(1.05488 0.00588078 0)
(1.05493 0.00561761 0)
(1.05496 0.00531972 0)
(1.05493 0.004916 0)
(1.05482 0.00448267 0)
(1.05458 0.00399042 0)
(1.00124 0.0138818 0)
(1.01633 0.0219597 0)
(1.02837 0.0182317 0)
(1.03284 0.0158495 0)
(1.0345 0.0151321 0)
(1.03622 0.0142295 0)
(1.03795 0.0132023 0)
(1.03932 0.0124145 0)
(1.04039 0.011829 0)
(1.04131 0.0113336 0)
(1.04213 0.0108953 0)
(1.04288 0.0105117 0)
(1.04356 0.0101764 0)
(1.04419 0.0098798 0)
(1.04477 0.00961446 0)
(1.04531 0.00937519 0)
(1.04582 0.0091581 0)
(1.04629 0.00895998 0)
(1.04674 0.00877822 0)
(1.04717 0.00861069 0)
(1.04758 0.00845564 0)
(1.04796 0.00831164 0)
(1.04833 0.00817745 0)
(1.04869 0.00805204 0)
(1.04902 0.00793449 0)
(1.04935 0.00782401 0)
(1.04966 0.00771987 0)
(1.04996 0.00762144 0)
(1.05024 0.00752808 0)
(1.05051 0.00743919 0)
(1.05077 0.00735405 0)
(1.05102 0.00727207 0)
(1.05126 0.00719226 0)
(1.05149 0.00711402 0)
(1.05171 0.00703593 0)
(1.05192 0.00695746 0)
(1.05213 0.0068764 0)
(1.05232 0.00679232 0)
(1.05251 0.00670186 0)
(1.0527 0.00660417 0)
(1.05288 0.006495 0)
(1.05305 0.00637073 0)
(1.05322 0.00622851 0)
(1.05339 0.00605563 0)
(1.05355 0.00585657 0)
(1.05369 0.00559865 0)
(1.05381 0.00530371 0)
(1.05388 0.00491963 0)
(1.05386 0.00450244 0)
(1.05373 0.00404499 0)
(1.00107 0.012598 0)
(1.01467 0.0208471 0)
(1.02616 0.0177665 0)
(1.03076 0.015462 0)
(1.03246 0.0148109 0)
(1.03415 0.0140266 0)
(1.03586 0.0130557 0)
(1.03723 0.0122831 0)
(1.0383 0.0117113 0)
(1.03921 0.0112308 0)
(1.04002 0.0108034 0)
(1.04076 0.0104274 0)
(1.04143 0.010098 0)
(1.04204 0.00980643 0)
(1.04261 0.00954539 0)
(1.04314 0.00930978 0)
(1.04364 0.00909583 0)
(1.04411 0.00890045 0)
(1.04455 0.0087211 0)
(1.04496 0.00855571 0)
(1.04536 0.00840257 0)
(1.04574 0.00826027 0)
(1.0461 0.00812765 0)
(1.04644 0.00800366 0)
(1.04677 0.00788741 0)
(1.04709 0.00777814 0)
(1.0474 0.00767513 0)
(1.04769 0.00757775 0)
(1.04798 0.00748539 0)
(1.04825 0.00739746 0)
(1.04852 0.00731324 0)
(1.04877 0.00723212 0)
(1.04902 0.00715313 0)
(1.04926 0.00707563 0)
(1.0495 0.00699823 0)
(1.04972 0.00692027 0)
(1.04995 0.00683972 0)
(1.05016 0.00675582 0)
(1.05038 0.00666569 0)
(1.05059 0.0065678 0)
(1.0508 0.00645878 0)
(1.05101 0.00633416 0)
(1.05122 0.00619193 0)
(1.05142 0.00601961 0)
(1.05162 0.00582075 0)
(1.0518 0.00556782 0)
(1.05196 0.00527655 0)
(1.05206 0.00491016 0)
(1.0521 0.00450972 0)
(1.05203 0.00408136 0)
(1.00093 0.0114148 0)
(1.01314 0.0197464 0)
(1.02406 0.0172974 0)
(1.02876 0.0150824 0)
(1.03052 0.0144835 0)
(1.03216 0.013813 0)
(1.03386 0.0129044 0)
(1.03523 0.0121494 0)
(1.0363 0.0115909 0)
(1.0372 0.0111255 0)
(1.038 0.0107098 0)
(1.03873 0.0103417 0)
(1.03939 0.0100185 0)
(1.04 0.00973213 0)
(1.04055 0.00947556 0)
(1.04107 0.00924375 0)
(1.04156 0.00903306 0)
(1.04202 0.00884052 0)
(1.04245 0.00866365 0)
(1.04285 0.00850045 0)
(1.04324 0.00834926 0)
(1.04361 0.00820871 0)
(1.04396 0.00807765 0)
(1.04429 0.00795507 0)
(1.04462 0.0078401 0)
(1.04493 0.00773197 0)
(1.04522 0.00763001 0)
(1.04551 0.0075336 0)
(1.04579 0.00744211 0)
(1.04606 0.00735499 0)
(1.04632 0.00727151 0)
(1.04657 0.00719104 0)
(1.04682 0.00711265 0)
(1.04706 0.00703562 0)
(1.04729 0.00695862 0)
(1.04752 0.00688087 0)
(1.04774 0.00680049 0)
(1.04796 0.00671644 0)
(1.04818 0.00662624 0)
(1.0484 0.00652786 0)
(1.04862 0.00641855 0)
(1.04883 0.0062934 0)
(1.04905 0.00615077 0)
(1.04926 0.00597896 0)
(1.04947 0.00578027 0)
(1.04966 0.00553218 0)
(1.04983 0.00524538 0)
(1.04994 0.004895 0)
(1.04999 0.00451138 0)
(1.04995 0.00410786 0)
(1.0008 0.010329 0)
(1.01174 0.0186616 0)
(1.02208 0.0168217 0)
(1.02684 0.0147109 0)
(1.02867 0.0141519 0)
(1.03027 0.0135887 0)
(1.03194 0.0127477 0)
(1.03332 0.0120133 0)
(1.03439 0.011468 0)
(1.03528 0.0110177 0)
(1.03607 0.0106142 0)
(1.03679 0.0102546 0)
(1.03744 0.00993773 0)
(1.03804 0.00965683 0)
(1.03859 0.00940489 0)
(1.0391 0.00917703 0)
(1.03958 0.00896972 0)
(1.04002 0.00878011 0)
(1.04044 0.00860582 0)
(1.04084 0.00844489 0)
(1.04122 0.00829571 0)
(1.04158 0.00815695 0)
(1.04192 0.0080275 0)
(1.04224 0.00790636 0)
(1.04256 0.00779269 0)
(1.04286 0.00768573 0)
(1.04315 0.00758482 0)
(1.04343 0.00748936 0)
(1.0437 0.00739874 0)
(1.04396 0.00731238 0)
(1.04421 0.0072296 0)
(1.04446 0.00714974 0)
(1.0447 0.00707187 0)
(1.04493 0.00699523 0)
(1.04516 0.00691853 0)
(1.04538 0.00684088 0)
(1.0456 0.00676055 0)
(1.04581 0.00667626 0)
(1.04603 0.00658582 0)
(1.04624 0.0064869 0)
(1.04646 0.00637713 0)
(1.04667 0.00625146 0)
(1.04688 0.00610833 0)
(1.04709 0.00593715 0)
(1.04729 0.00573889 0)
(1.04748 0.00549559 0)
(1.04764 0.00521406 0)
(1.04775 0.00487836 0)
(1.0478 0.00451133 0)
(1.04777 0.00412952 0)
(1.00069 0.00933683 0)
(1.01046 0.0175968 0)
(1.02021 0.0163371 0)
(1.02501 0.0143477 0)
(1.02691 0.013818 0)
(1.02848 0.0133539 0)
(1.03012 0.0125851 0)
(1.0315 0.0118748 0)
(1.03256 0.0113424 0)
(1.03345 0.0109072 0)
(1.03423 0.0105166 0)
(1.03494 0.0101659 0)
(1.03559 0.00985572 0)
(1.03618 0.00958042 0)
(1.03672 0.0093333 0)
(1.03722 0.00910954 0)
(1.03768 0.00890574 0)
(1.03812 0.00871918 0)
(1.03853 0.00854755 0)
(1.03892 0.00838896 0)
(1.03929 0.00824186 0)
(1.03964 0.00810496 0)
(1.03997 0.00797717 0)
(1.04029 0.00785752 0)
(1.0406 0.00774519 0)
(1.04089 0.00763944 0)
(1.04117 0.00753961 0)
(1.04144 0.00744512 0)
(1.0417 0.00735538 0)
(1.04196 0.00726982 0)
(1.0422 0.00718774 0)
(1.04244 0.00710849 0)
(1.04267 0.00703115 0)
(1.04289 0.0069549 0)
(1.04311 0.0068785 0)
(1.04333 0.00680095 0)
(1.04354 0.00672063 0)
(1.04375 0.00663611 0)
(1.04396 0.0065454 0)
(1.04417 0.00644599 0)
(1.04437 0.00633574 0)
(1.04458 0.00620968 0)
(1.04478 0.00606615 0)
(1.04498 0.00589578 0)
(1.04517 0.00569839 0)
(1.04535 0.00545992 0)
(1.04549 0.00518441 0)
(1.0456 0.00486234 0)
(1.04564 0.00451149 0)
(1.04561 0.00414912 0)
(1.0006 0.00843389 0)
(1.0093 0.0165561 0)
(1.01845 0.0158419 0)
(1.02327 0.0139922 0)
(1.02523 0.0134838 0)
(1.02677 0.013109 0)
(1.02838 0.012416 0)
(1.02975 0.0117335 0)
(1.03082 0.0112142 0)
(1.0317 0.010794 0)
(1.03248 0.0104168 0)
(1.03319 0.0100755 0)
(1.03382 0.00977233 0)
(1.0344 0.00950283 0)
(1.03493 0.0092607 0)
(1.03543 0.0090412 0)
(1.03589 0.00884105 0)
(1.03632 0.00865764 0)
(1.03672 0.00848876 0)
(1.0371 0.00833261 0)
(1.03746 0.00818766 0)
(1.0378 0.00805268 0)
(1.03813 0.0079266 0)
(1.03844 0.0078085 0)
(1.03873 0.00769755 0)
(1.03902 0.00759305 0)
(1.03929 0.00749434 0)
(1.03955 0.00740087 0)
(1.03981 0.00731204 0)
(1.04005 0.0072273 0)
(1.04029 0.00714597 0)
(1.04052 0.00706737 0)
(1.04074 0.00699058 0)
(1.04096 0.00691475 0)
(1.04117 0.00683867 0)
(1.04138 0.00676125 0)
(1.04159 0.00668098 0)
(1.04179 0.00659628 0)
(1.04199 0.00650534 0)
(1.04219 0.00640554 0)
(1.04238 0.00629487 0)
(1.04258 0.00616861 0)
(1.04277 0.00602487 0)
(1.04296 0.00585556 0)
(1.04314 0.00565953 0)
(1.0433 0.00542598 0)
(1.04343 0.00515712 0)
(1.04352 0.0048479 0)
(1.04356 0.00451269 0)
(1.04352 0.00416808 0)
(1.00051 0.00761545 0)
(1.00825 0.0155434 0)
(1.0168 0.0153347 0)
(1.02161 0.0136439 0)
(1.02364 0.013151 0)
(1.02516 0.0128548 0)
(1.02673 0.0122397 0)
(1.0281 0.0115892 0)
(1.02917 0.0110836 0)
(1.03005 0.0106779 0)
(1.03082 0.0103145 0)
(1.03151 0.00998335 0)
(1.03214 0.00968746 0)
(1.03272 0.00942394 0)
(1.03324 0.00918698 0)
(1.03373 0.00897192 0)