/*--------------------------------*- C++ -*----------------------------------*\
  =========                 |
  \\      /  F ield         | OpenFOAM: The Open Source CFD Toolbox
   \\    /   O peration     | Website:  https://openfoam.org
    \\  /    A nd           | Version:  7
     \\/     M anipulation  |
\*---------------------------------------------------------------------------*/
FoamFile
{
    version     2.0;
    format      ascii;
    class       volVectorField;
    location    "0.09";
    object      vorticity;
}
// * * * * * * * * * * * * * * * * * * * * * * * * * * * * * * * * * * * * * //

dimensions      [0 0 -1 0 0 0 0];

internalField   nonuniform List<vector> 
70000
(
(0 -0 -45716.1)
(0 -0 -28618.1)
(0 -0 -20914.6)
(0 -0 -16982)
(0 -0 -14961.3)
(0 -0 -13654.8)
(0 -0 -12645.6)
(0 -0 -11833.2)
(0 -0 -11169.4)
(0 -0 -10615.2)
(0 -0 -10142.8)
(0 -0 -9733.49)
(0 -0 -9374.49)
(0 -0 -9056.36)
(0 -0 -8772.02)
(0 -0 -8515.99)
(0 -0 -8283.97)
(0 -0 -8072.52)
(0 -0 -7878.87)
(0 -0 -7700.74)
(0 -0 -7536.25)
(0 -0 -7383.8)
(0 -0 -7242.09)
(0 -0 -7109.97)
(0 -0 -6986.46)
(0 -0 -6870.75)
(0 -0 -6762.1)
(0 -0 -6659.88)
(0 -0 -6563.55)
(0 -0 -6472.62)
(0 -0 -6386.69)
(0 -0 -6305.38)
(0 -0 -6228.41)
(0 -0 -6155.47)
(0 -0 -6086.37)
(0 -0 -6020.9)
(0 -0 -5958.93)
(0 -0 -5900.44)
(0 -0 -5845.06)
(0 -0 -5793.58)
(0 -0 -5744.34)
(0 -0 -5700.95)
(0 -0 -5656.91)
(0 -0 -5624.98)
(0 -0 -5583.33)
(0 -0 -5571.72)
(0 -0 -5524.41)
(0 -0 -5552.17)
(0 -0 -5507.47)
(0 -0 -5354.28)
(0 -0 -13549.6)
(0 -0 -19947.4)
(0 -0 -18536.6)
(0 -0 -16250.6)
(0 -0 -14505.2)
(0 -0 -13281.6)
(0 -0 -12353.8)
(0 -0 -11603.9)
(0 -0 -10981.5)
(0 -0 -10456.1)
(0 -0 -10005.2)
(0 -0 -9612.72)
(0 -0 -9267.06)
(0 -0 -8959.69)
(0 -0 -8684.13)
(0 -0 -8435.35)
(0 -0 -8209.38)
(0 -0 -8003.01)
(0 -0 -7813.64)
(0 -0 -7639.15)
(0 -0 -7477.74)
(0 -0 -7327.92)
(0 -0 -7188.43)
(0 -0 -7058.18)
(0 -0 -6936.25)
(0 -0 -6821.83)
(0 -0 -6714.23)
(0 -0 -6612.83)
(0 -0 -6517.09)
(0 -0 -6426.55)
(0 -0 -6340.81)
(0 -0 -6259.47)
(0 -0 -6182.26)
(0 -0 -6108.84)
(0 -0 -6039.04)
(0 -0 -5972.59)
(0 -0 -5909.35)
(0 -0 -5849.24)
(0 -0 -5791.92)
(0 -0 -5737.95)
(0 -0 -5686)
(0 -0 -5638.75)
(0 -0 -5591.28)
(0 -0 -5553.06)
(0 -0 -5507.9)
(0 -0 -5484.81)
(0 -0 -5436.98)
(0 -0 -5440.48)
(0 -0 -5396.91)
(0 -0 -5471.2)
(0 -0 -3818.74)
(0 -0 -10828.7)
(0 -0 -13363.2)
(0 -0 -13519.6)
(0 -0 -12866.6)
(0 -0 -12140.8)
(0 -0 -11499.5)
(0 -0 -10939.5)
(0 -0 -10447.8)
(0 -0 -10015.2)
(0 -0 -9633.08)
(0 -0 -9293.18)
(0 -0 -8988.79)
(0 -0 -8714.45)
(0 -0 -8465.77)
(0 -0 -8239.16)
(0 -0 -8031.69)
(0 -0 -7840.92)
(0 -0 -7664.84)
(0 -0 -7501.72)
(0 -0 -7350.14)
(0 -0 -7208.85)
(0 -0 -7076.8)
(0 -0 -6953.06)
(0 -0 -6836.86)
(0 -0 -6727.48)
(0 -0 -6624.32)
(0 -0 -6526.84)
(0 -0 -6434.56)
(0 -0 -6347.07)
(0 -0 -6263.98)
(0 -0 -6184.95)
(0 -0 -6109.7)
(0 -0 -6037.95)
(0 -0 -5969.47)
(0 -0 -5904.05)
(0 -0 -5841.5)
(0 -0 -5781.71)
(0 -0 -5724.41)
(0 -0 -5669.87)
(0 -0 -5617.21)
(0 -0 -5568.03)
(0 -0 -5519.28)
(0 -0 -5476.54)
(0 -0 -5430.4)
(0 -0 -5397.04)
(0 -0 -5351.57)
(0 -0 -5332.26)
(0 -0 -5289.81)
(0 -0 -5365.37)
(0 -0 -533.089)
(0 -0 -4662.51)
(0 -0 -7718.06)
(0 -0 -9328.02)
(0 -0 -9891.92)
(0 -0 -9957.58)
(0 -0 -9826.28)
(0 -0 -9614.76)
(0 -0 -9371.76)
(0 -0 -9121.92)
(0 -0 -8877.64)
(0 -0 -8644.46)
(0 -0 -8424.49)
(0 -0 -8218.15)
(0 -0 -8025.1)
(0 -0 -7844.61)
(0 -0 -7675.83)
(0 -0 -7517.85)
(0 -0 -7369.8)
(0 -0 -7230.85)
(0 -0 -7100.25)
(0 -0 -6977.29)
(0 -0 -6861.35)
(0 -0 -6751.86)
(0 -0 -6648.29)
(0 -0 -6550.18)
(0 -0 -6457.11)
(0 -0 -6368.7)
(0 -0 -6284.59)
(0 -0 -6204.47)
(0 -0 -6128.06)
(0 -0 -6055.1)
(0 -0 -5985.34)
(0 -0 -5918.58)
(0 -0 -5854.62)
(0 -0 -5793.27)
(0 -0 -5734.38)
(0 -0 -5677.82)
(0 -0 -5623.41)
(0 -0 -5571.17)
(0 -0 -5520.74)
(0 -0 -5472.57)
(0 -0 -5425.67)
(0 -0 -5381.63)
(0 -0 -5337.98)
(0 -0 -5298.21)
(0 -0 -5258.79)
(0 -0 -5221.93)
(0 -0 -5193.03)
(0 -0 -5192.41)
(0 -0 322.4)
(0 -0 -1444.5)
(0 -0 -3532.27)
(0 -0 -5258.54)
(0 -0 -6398.42)
(0 -0 -7073.21)
(0 -0 -7450.9)
(0 -0 -7641.88)
(0 -0 -7714.34)
(0 -0 -7712.47)
(0 -0 -7664.78)
(0 -0 -7589.33)
(0 -0 -7497.51)
(0 -0 -7396.58)
(0 -0 -7291.22)
(0 -0 -7184.45)
(0 -0 -7078.22)
(0 -0 -6973.79)
(0 -0 -6871.92)
(0 -0 -6773.1)
(0 -0 -6677.58)
(0 -0 -6585.48)
(0 -0 -6496.83)
(0 -0 -6411.59)
(0 -0 -6329.69)
(0 -0 -6251.01)
(0 -0 -6175.44)
(0 -0 -6102.84)
(0 -0 -6033.08)
(0 -0 -5966.03)
(0 -0 -5901.55)
(0 -0 -5839.5)
(0 -0 -5779.78)
(0 -0 -5722.25)
(0 -0 -5666.8)
(0 -0 -5613.3)
(0 -0 -5561.69)
(0 -0 -5511.82)
(0 -0 -5463.66)
(0 -0 -5417.01)
(0 -0 -5372.02)
(0 -0 -5328.18)
(0 -0 -5286.29)
(0 -0 -5244.63)
(0 -0 -5206.45)
(0 -0 -5165.19)
(0 -0 -5133.94)
(0 -0 -5087.23)
(0 -0 -5074.94)
(0 -0 -5023.41)
(0 -0 364.674)
(0 -0 -158.573)
(0 -0 -1181.38)
(0 -0 -2361.55)
(0 -0 -3416.7)
(0 -0 -4255.07)
(0 -0 -4890.12)
(0 -0 -5355.79)
(0 -0 -5687.13)
(0 -0 -5916.13)
(0 -0 -6069.05)
(0 -0 -6165.95)
(0 -0 -6221.73)
(0 -0 -6247.32)
(0 -0 -6250.76)
(0 -0 -6237.95)
(0 -0 -6213.27)
(0 -0 -6179.97)
(0 -0 -6140.47)
(0 -0 -6096.59)
(0 -0 -6049.7)
(0 -0 -6000.84)
(0 -0 -5950.8)
(0 -0 -5900.18)
(0 -0 -5849.43)
(0 -0 -5798.89)
(0 -0 -5748.82)
(0 -0 -5699.42)
(0 -0 -5650.82)
(0 -0 -5603.13)
(0 -0 -5556.42)
(0 -0 -5510.73)
(0 -0 -5466.09)
(0 -0 -5422.52)
(0 -0 -5380.01)
(0 -0 -5338.55)
(0 -0 -5298.14)
(0 -0 -5258.7)
(0 -0 -5220.35)
(0 -0 -5182.75)
(0 -0 -5146.44)
(0 -0 -5110.31)
(0 -0 -5076.31)
(0 -0 -5040.74)
(0 -0 -5010.26)
(0 -0 -4972.6)
(0 -0 -4949.83)
(0 -0 -4902.74)
(0 -0 -4899.59)
(0 -0 -4838.59)
(0 -0 254.001)
(0 -0 185.265)
(0 -0 -173.258)
(0 -0 -764.431)
(0 -0 -1447.12)
(0 -0 -2114.55)
(0 -0 -2719.47)
(0 -0 -3242.49)
(0 -0 -3679.5)
(0 -0 -4036.27)
(0 -0 -4323.07)
(0 -0 -4550.97)
(0 -0 -4730.27)
(0 -0 -4869.89)
(0 -0 -4977.32)
(0 -0 -5058.71)
(0 -0 -5119.06)
(0 -0 -5162.41)
(0 -0 -5192)
(0 -0 -5210.47)
(0 -0 -5219.92)
(0 -0 -5222.07)
(0 -0 -5218.31)
(0 -0 -5209.77)
(0 -0 -5197.37)
(0 -0 -5181.86)
(0 -0 -5163.86)
(0 -0 -5143.89)
(0 -0 -5122.37)
(0 -0 -5099.63)
(0 -0 -5075.97)
(0 -0 -5051.62)
(0 -0 -5026.79)
(0 -0 -5001.63)
(0 -0 -4976.27)
(0 -0 -4950.82)
(0 -0 -4925.39)
(0 -0 -4899.98)
(0 -0 -4874.8)
(0 -0 -4849.56)
(0 -0 -4824.93)
(0 -0 -4799.69)
(0 -0 -4776.16)
(0 -0 -4750.06)
(0 -0 -4729.03)
(0 -0 -4699.5)
(0 -0 -4684.91)
(0 -0 -4645.63)
(0 -0 -4645.38)
(0 -0 -4595.24)
(0 -0 178.729)
(0 -0 204.472)
(0 -0 130.639)
(0 -0 -85.135)
(0 -0 -417.604)
(0 -0 -814.333)
(0 -0 -1235.53)
(0 -0 -1652.37)
(0 -0 -2045.06)
(0 -0 -2402.63)
(0 -0 -2720.84)
(0 -0 -2999.6)
(0 -0 -3241.06)
(0 -0 -3448.5)
(0 -0 -3625.64)
(0 -0 -3776.17)
(0 -0 -3903.55)
(0 -0 -4010.94)
(0 -0 -4101.11)
(0 -0 -4176.5)
(0 -0 -4239.21)
(0 -0 -4291.04)
(0 -0 -4333.54)
(0 -0 -4368.04)
(0 -0 -4395.67)
(0 -0 -4417.39)
(0 -0 -4434.04)
(0 -0 -4446.32)
(0 -0 -4454.84)
(0 -0 -4460.14)
(0 -0 -4462.65)
(0 -0 -4462.77)
(0 -0 -4460.83)
(0 -0 -4457.12)
(0 -0 -4451.89)
(0 -0 -4445.36)
(0 -0 -4437.71)
(0 -0 -4429.07)
(0 -0 -4419.68)
(0 -0 -4409.38)
(0 -0 -4398.82)
(0 -0 -4386.97)
(0 -0 -4375.96)
(0 -0 -4361.99)
(0 -0 -4351.9)
(0 -0 -4333.74)
(0 -0 -4327.67)
(0 -0 -4300.8)
(0 -0 -4302.78)
(0 -0 -4268.06)
(0 -0 148.001)
(0 -0 164.584)
(0 -0 169.954)
(0 -0 120.968)
(0 -0 1.12497)
(0 -0 -180.472)
(0 -0 -408.472)
(0 -0 -666.572)
(0 -0 -938.991)
(0 -0 -1212.85)
(0 -0 -1478.96)
(0 -0 -1731.32)
(0 -0 -1966.41)
(0 -0 -2182.56)
(0 -0 -2379.34)
(0 -0 -2557.17)
(0 -0 -2716.99)
(0 -0 -2860.03)
(0 -0 -2987.62)
(0 -0 -3101.15)
(0 -0 -3201.97)
(0 -0 -3291.34)
(0 -0 -3370.44)
(0 -0 -3440.36)
(0 -0 -3502.07)
(0 -0 -3556.46)
(0 -0 -3604.32)
(0 -0 -3646.35)
(0 -0 -3683.18)
(0 -0 -3715.38)
(0 -0 -3743.45)
(0 -0 -3767.82)
(0 -0 -3788.9)
(0 -0 -3807.04)
(0 -0 -3822.54)
(0 -0 -3835.69)
(0 -0 -3846.73)
(0 -0 -3855.86)
(0 -0 -3863.32)
(0 -0 -3869.12)
(0 -0 -3873.76)
(0 -0 -3876.56)
(0 -0 -3879.18)
(0 -0 -3878.72)
(0 -0 -3880.55)
(0 -0 -3875.35)
(0 -0 -3878.61)
(0 -0 -3865.66)
(0 -0 -3871.86)
(0 -0 -3852.24)
(0 -0 136.806)
(0 -0 137.05)
(0 -0 148.708)
(0 -0 149.649)
(0 -0 122.189)
(0 -0 60.1871)
(0 -0 -36.1764)
(0 -0 -163.265)
(0 -0 -314.76)
(0 -0 -483.389)
(0 -0 -662.272)
(0 -0 -845.526)
(0 -0 -1028.43)
(0 -0 -1207.4)
(0 -0 -1379.89)
(0 -0 -1544.17)
(0 -0 -1699.21)
(0 -0 -1844.49)
(0 -0 -1979.85)
(0 -0 -2105.41)
(0 -0 -2221.49)
(0 -0 -2328.5)
(0 -0 -2426.94)
(0 -0 -2517.34)
(0 -0 -2600.25)
(0 -0 -2676.22)
(0 -0 -2745.75)
(0 -0 -2809.37)
(0 -0 -2867.53)
(0 -0 -2920.68)
(0 -0 -2969.22)
(0 -0 -3013.56)
(0 -0 -3054.01)
(0 -0 -3090.94)
(0 -0 -3124.6)
(0 -0 -3155.31)
(0 -0 -3183.26)
(0 -0 -3208.72)
(0 -0 -3231.86)
(0 -0 -3252.82)
(0 -0 -3271.93)
(0 -0 -3288.83)
(0 -0 -3304.69)
(0 -0 -3317.46)
(0 -0 -3331.09)
(0 -0 -3338.72)
(0 -0 -3351.63)
(0 -0 -3352.14)
(0 -0 -3364.32)
(0 -0 -3358.5)
(0 -0 129.925)
(0 -0 123.978)
(0 -0 129.158)
(0 -0 136.354)
(0 -0 136.445)
(0 -0 123.201)
(0 -0 92.9811)
(0 -0 43.9302)
(0 -0 -23.8032)
(0 -0 -108.412)
(0 -0 -207.153)
(0 -0 -316.918)
(0 -0 -434.589)
(0 -0 -557.282)
(0 -0 -682.471)
(0 -0 -808.044)
(0 -0 -932.302)
(0 -0 -1053.92)
(0 -0 -1171.92)
(0 -0 -1285.58)
(0 -0 -1394.44)
(0 -0 -1498.2)
(0 -0 -1596.72)
(0 -0 -1689.96)
(0 -0 -1778)
(0 -0 -1860.93)
(0 -0 -1938.93)
(0 -0 -2012.19)
(0 -0 -2080.92)
(0 -0 -2145.34)
(0 -0 -2205.68)
(0 -0 -2262.16)
(0 -0 -2315)
(0 -0 -2364.43)
(0 -0 -2410.64)
(0 -0 -2453.86)
(0 -0 -2494.23)
(0 -0 -2531.97)
(0 -0 -2567.2)
(0 -0 -2600.07)
(0 -0 -2630.81)
(0 -0 -2659.19)
(0 -0 -2686.06)
(0 -0 -2709.94)
(0 -0 -2733.7)
(0 -0 -2752.38)
(0 -0 -2773.93)
(0 -0 -2786.07)
(0 -0 -2804.55)
(0 -0 -2810.53)
(0 -0 122.934)
(0 -0 116.624)
(0 -0 117.991)
(0 -0 122.464)
(0 -0 126.404)
(0 -0 126.876)
(0 -0 121.413)
(0 -0 107.715)
(0 -0 84.1363)
(0 -0 49.9563)
(0 -0 5.25083)
(0 -0 -49.2915)
(0 -0 -112.568)
(0 -0 -183.233)
(0 -0 -259.854)
(0 -0 -341.007)
(0 -0 -425.36)
(0 -0 -511.71)
(0 -0 -599.003)
(0 -0 -686.344)
(0 -0 -772.986)
(0 -0 -858.322)
(0 -0 -941.872)
(0 -0 -1023.26)
(0 -0 -1102.22)
(0 -0 -1178.54)
(0 -0 -1252.09)
(0 -0 -1322.79)
(0 -0 -1390.62)
(0 -0 -1455.56)
(0 -0 -1517.65)
(0 -0 -1576.94)
(0 -0 -1633.48)
(0 -0 -1687.36)
(0 -0 -1738.64)
(0 -0 -1787.46)
(0 -0 -1833.85)
(0 -0 -1877.96)
(0 -0 -1919.83)
(0 -0 -1959.57)
(0 -0 -1997.29)
(0 -0 -2032.85)
(0 -0 -2066.81)
(0 -0 -2098.12)
(0 -0 -2128.79)
(0 -0 -2155.28)
(0 -0 -2183.03)
(0 -0 -2203.78)
(0 -0 -2227.35)
(0 -0 -2242.31)
(0 -0 115.613)
(0 -0 110.391)
(0 -0 110.709)
(0 -0 113.146)
(0 -0 115.956)
(0 -0 118.214)
(0 -0 119.091)
(0 -0 117.388)
(0 -0 111.823)
(0 -0 101.338)
(0 -0 85.2013)
(0 -0 63.0284)
(0 -0 34.7478)
(0 -0 0.560915)
(0 -0 -39.1229)
(0 -0 -83.7508)
(0 -0 -132.685)
(0 -0 -185.248)
(0 -0 -240.764)
(0 -0 -298.58)
(0 -0 -358.089)
(0 -0 -418.735)
(0 -0 -480.024)
(0 -0 -541.52)
(0 -0 -602.849)
(0 -0 -663.691)
(0 -0 -723.779)
(0 -0 -782.894)
(0 -0 -840.854)
(0 -0 -897.52)
(0 -0 -952.774)
(0 -0 -1006.54)
(0 -0 -1058.74)
(0 -0 -1109.36)
(0 -0 -1158.35)
(0 -0 -1205.71)
(0 -0 -1251.43)
(0 -0 -1295.53)
(0 -0 -1338.01)
(0 -0 -1378.88)
(0 -0 -1418.2)
(0 -0 -1455.81)
(0 -0 -1492.11)
(0 -0 -1526.26)
(0 -0 -1559.68)
(0 -0 -1589.89)
(0 -0 -1620.41)
(0 -0 -1645.93)
(0 -0 -1672.2)
(0 -0 -1692.64)
(0 -0 108.367)
(0 -0 104.172)
(0 -0 104.382)
(0 -0 106.09)
(0 -0 107.956)
(0 -0 109.665)
(0 -0 111.2)
(0 -0 112.217)
(0 -0 112.134)
(0 -0 110.321)
(0 -0 106.186)
(0 -0 99.2235)
(0 -0 89.0479)
(0 -0 75.4098)
(0 -0 58.201)
(0 -0 37.4337)
(0 -0 13.2259)
(0 -0 -14.2224)
(0 -0 -44.6515)
(0 -0 -77.762)
(0 -0 -113.232)
(0 -0 -150.733)
(0 -0 -189.939)
(0 -0 -230.534)
(0 -0 -272.222)
(0 -0 -314.727)
(0 -0 -357.795)
(0 -0 -401.2)
(0 -0 -444.737)
(0 -0 -488.224)
(0 -0 -531.501)
(0 -0 -574.431)
(0 -0 -616.887)
(0 -0 -658.776)
(0 -0 -699.995)
(0 -0 -740.488)
(0 -0 -780.171)
(0 -0 -819.014)
(0 -0 -856.953)
(0 -0 -893.948)
(0 -0 -930.007)
(0 -0 -964.951)
(0 -0 -999.037)
(0 -0 -1031.64)
(0 -0 -1063.66)
(0 -0 -1093.45)
(0 -0 -1123.14)
(0 -0 -1149.48)
(0 -0 -1175.58)
(0 -0 -1197.87)
(0 -0 101.388)
(0 -0 97.98)
(0 -0 98.2039)
(0 -0 99.6774)
(0 -0 101.189)
(0 -0 102.46)
(0 -0 103.683)
(0 -0 104.869)
(0 -0 105.845)
(0 -0 106.365)
(0 -0 106.147)
(0 -0 104.892)
(0 -0 102.305)
(0 -0 98.1243)
(0 -0 92.1323)
(0 -0 84.1692)
(0 -0 74.1331)
(0 -0 61.9785)
(0 -0 47.7121)
(0 -0 31.3844)
(0 -0 13.0826)
(0 -0 -7.0775)
(0 -0 -28.9592)
(0 -0 -52.4117)
(0 -0 -77.276)
(0 -0 -103.39)
(0 -0 -130.592)
(0 -0 -158.726)
(0 -0 -187.638)
(0 -0 -217.187)
(0 -0 -247.233)
(0 -0 -277.654)
(0 -0 -308.327)
(0 -0 -339.15)
(0 -0 -370.014)
(0 -0 -400.84)
(0 -0 -431.534)
(0 -0 -462.031)
(0 -0 -492.258)
(0 -0 -522.136)
(0 -0 -551.652)
(0 -0 -580.631)
(0 -0 -609.225)
(0 -0 -636.975)
(0 -0 -664.426)
(0 -0 -690.515)
(0 -0 -716.43)
(0 -0 -740.302)
(0 -0 -763.65)
(0 -0 -784.65)
(0 -0 94.7112)
(0 -0 91.9293)
(0 -0 92.1412)
(0 -0 93.4658)
(0 -0 94.8459)
(0 -0 95.9437)
(0 -0 96.9425)
(0 -0 97.9403)
(0 -0 98.9093)
(0 -0 99.7826)
(0 -0 100.471)
(0 -0 100.857)
(0 -0 100.801)
(0 -0 100.154)
(0 -0 98.7651)
(0 -0 96.4956)
(0 -0 93.2225)
(0 -0 88.8447)
(0 -0 83.2851)
(0 -0 76.492)
(0 -0 68.4381)
(0 -0 59.118)
(0 -0 48.5477)
(0 -0 36.7597)
(0 -0 23.8014)
(0 -0 9.73127)
(0 -0 -5.38272)
(0 -0 -21.4673)
(0 -0 -38.4437)
(0 -0 -56.2325)
(0 -0 -74.7506)
(0 -0 -93.9185)
(0 -0 -113.653)
(0 -0 -133.879)
(0 -0 -154.516)
(0 -0 -175.495)
(0 -0 -196.743)
(0 -0 -218.193)
(0 -0 -239.786)
(0 -0 -261.441)
(0 -0 -283.139)
(0 -0 -304.734)
(0 -0 -326.306)
(0 -0 -347.546)
(0 -0 -368.741)
(0 -0 -389.265)
(0 -0 -409.696)
(0 -0 -429.043)
(0 -0 -447.937)
(0 -0 -465.516)
(0 -0 88.3344)
(0 -0 86.0723)
(0 -0 86.2656)
(0 -0 87.4405)
(0 -0 88.7224)
(0 -0 89.7411)
(0 -0 90.6337)
(0 -0 91.5036)
(0 -0 92.3547)
(0 -0 93.1725)
(0 -0 93.9412)
(0 -0 94.6322)
(0 -0 95.2002)
(0 -0 95.5859)
(0 -0 95.7205)
(0 -0 95.5297)
(0 -0 94.9373)
(0 -0 93.8694)
(0 -0 92.2573)
(0 -0 90.0399)
(0 -0 87.1658)
(0 -0 83.5938)
(0 -0 79.2932)
(0 -0 74.2446)
(0 -0 68.4386)
(0 -0 61.8751)
(0 -0 54.5628)
(0 -0 46.5175)
(0 -0 37.762)
(0 -0 28.3234)
(0 -0 18.2346)
(0 -0 7.53064)
(0 -0 -3.74862)
(0 -0 -15.5634)
(0 -0 -27.8699)
(0 -0 -40.6254)
(0 -0 -53.7861)
(0 -0 -67.3048)
(0 -0 -81.1445)
(0 -0 -95.2439)
(0 -0 -109.587)
(0 -0 -124.074)
(0 -0 -138.74)
(0 -0 -153.397)
(0 -0 -168.173)
(0 -0 -182.735)
(0 -0 -197.317)
(0 -0 -211.437)
(0 -0 -225.295)
(0 -0 -238.52)
(0 -0 82.2564)
(0 -0 80.4271)
(0 -0 80.6102)
(0 -0 81.6403)
(0 -0 82.8188)
(0 -0 83.7723)
(0 -0 84.5971)
(0 -0 85.3898)
(0 -0 86.1583)
(0 -0 86.8958)
(0 -0 87.6039)
(0 -0 88.2824)
(0 -0 88.923)
(0 -0 89.51)
(0 -0 90.0207)
(0 -0 90.4269)
(0 -0 90.6954)
(0 -0 90.7899)
(0 -0 90.6723)
(0 -0 90.3043)
(0 -0 89.6487)
(0 -0 88.6704)
(0 -0 87.3377)
(0 -0 85.6225)
(0 -0 83.5015)
(0 -0 80.9558)
(0 -0 77.9715)
(0 -0 74.5389)
(0 -0 70.6533)
(0 -0 66.3134)
(0 -0 61.5226)
(0 -0 56.2872)
(0 -0 50.6171)
(0 -0 44.5254)
(0 -0 38.0273)
(0 -0 31.1414)
(0 -0 23.8857)
(0 -0 16.2854)
(0 -0 8.35734)
(0 -0 0.137227)
(0 -0 -8.36627)
(0 -0 -17.096)
(0 -0 -26.0632)
(0 -0 -35.1702)
(0 -0 -44.4611)
(0 -0 -53.7782)
(0 -0 -63.1888)
(0 -0 -72.4885)
(0 -0 -81.6936)
(0 -0 -90.6707)
(0 -0 76.4779)
(0 -0 75.0051)
(0 -0 75.1872)
(0 -0 76.0853)
(0 -0 77.158)
(0 -0 78.0449)
(0 -0 78.8083)
(0 -0 79.5387)
(0 -0 80.2457)
(0 -0 80.9216)
(0 -0 81.5688)
(0 -0 82.1925)
(0 -0 82.7946)
(0 -0 83.3734)
(0 -0 83.9245)
(0 -0 84.4404)
(0 -0 84.9107)
(0 -0 85.3224)
(0 -0 85.6602)
(0 -0 85.907)
(0 -0 86.0442)
(0 -0 86.0527)
(0 -0 85.913)
(0 -0 85.6059)
(0 -0 85.1132)
(0 -0 84.4181)
(0 -0 83.5053)
(0 -0 82.361)
(0 -0 80.9738)
(0 -0 79.3339)
(0 -0 77.4336)
(0 -0 75.2674)
(0 -0 72.8318)
(0 -0 70.1256)
(0 -0 67.1491)
(0 -0 63.9057)
(0 -0 60.3987)
(0 -0 56.6366)
(0 -0 52.6237)
(0 -0 48.3751)
(0 -0 43.8939)
(0 -0 39.2056)
(0 -0 34.3088)
(0 -0 29.2441)
(0 -0 24.0057)
(0 -0 18.6531)
(0 -0 13.1868)
(0 -0 7.67532)
(0 -0 2.15791)
(0 -0 -3.33569)
(0 -0 70.9987)
(0 -0 69.8167)
(0 -0 70.0036)
(0 -0 70.7841)
(0 -0 71.7528)
(0 -0 72.573)
(0 -0 73.2767)
(0 -0 73.948)
(0 -0 74.5993)
(0 -0 75.2224)
(0 -0 75.818)
(0 -0 76.391)
(0 -0 76.9449)
(0 -0 77.4812)
(0 -0 78.0001)
(0 -0 78.5012)
(0 -0 78.9824)
(0 -0 79.4408)
(0 -0 79.872)
(0 -0 80.2706)
(0 -0 80.6297)
(0 -0 80.9415)
(0 -0 81.1975)
(0 -0 81.3882)
(0 -0 81.5041)
(0 -0 81.5354)
(0 -0 81.4724)
(0 -0 81.3058)
(0 -0 81.0264)
(0 -0 80.626)
(0 -0 80.0963)
(0 -0 79.4303)
(0 -0 78.6214)
(0 -0 77.6647)
(0 -0 76.5555)
(0 -0 75.2911)
(0 -0 73.8687)
(0 -0 72.2888)
(0 -0 70.5499)
(0 -0 68.6556)
(0 -0 66.6059)
(0 -0 64.4076)
(0 -0 62.0628)
(0 -0 59.5817)
(0 -0 56.9715)
(0 -0 54.2445)
(0 -0 51.42)
(0 -0 48.5078)
(0 -0 45.5515)
(0 -0 42.5403)
(0 -0 65.8171)
(0 -0 64.8703)
(0 -0 65.0649)
(0 -0 65.7415)
(0 -0 66.61)
(0 -0 67.3649)
(0 -0 68.0112)
(0 -0 68.6254)
(0 -0 69.2231)
(0 -0 69.7964)
(0 -0 70.3445)
(0 -0 70.8716)
(0 -0 71.3808)
(0 -0 71.874)
(0 -0 72.3522)
(0 -0 72.8163)
(0 -0 73.2668)
(0 -0 73.7036)
(0 -0 74.1263)
(0 -0 74.5341)
(0 -0 74.9254)
(0 -0 75.298)
(0 -0 75.6489)
(0 -0 75.9749)
(0 -0 76.2721)
(0 -0 76.5364)
(0 -0 76.7634)
(0 -0 76.9483)
(0 -0 77.0865)
(0 -0 77.1731)
(0 -0 77.2028)
(0 -0 77.1708)
(0 -0 77.0722)
(0 -0 76.9025)
(0 -0 76.6573)
(0 -0 76.3333)
(0 -0 75.927)
(0 -0 75.436)
(0 -0 74.858)
(0 -0 74.1916)
(0 -0 73.4364)
(0 -0 72.5908)
(0 -0 71.6578)
(0 -0 70.6345)
(0 -0 69.5302)
(0 -0 68.3387)
(0 -0 67.0797)
(0 -0 65.7416)
(0 -0 64.3588)
(0 -0 62.9071)
(0 -0 60.9305)
(0 -0 60.1723)
(0 -0 60.3754)
(0 -0 60.9606)
(0 -0 61.7339)
(0 -0 62.4253)
(0 -0 63.017)
(0 -0 63.5768)
(0 -0 64.1229)
(0 -0 64.6483)
(0 -0 65.1512)
(0 -0 65.6348)
(0 -0 66.1022)
(0 -0 66.5548)
(0 -0 66.9939)
(0 -0 67.4201)
(0 -0 67.8345)
(0 -0 68.2376)
(0 -0 68.6301)
(0 -0 69.0124)
(0 -0 69.3848)
(0 -0 69.747)
(0 -0 70.0985)
(0 -0 70.4385)
(0 -0 70.7661)
(0 -0 71.0798)
(0 -0 71.3783)
(0 -0 71.66)
(0 -0 71.923)
(0 -0 72.1651)
(0 -0 72.3838)
(0 -0 72.5765)
(0 -0 72.7406)
(0 -0 72.8732)
(0 -0 72.9718)
(0 -0 73.0339)
(0 -0 73.0571)
(0 -0 73.0393)
(0 -0 72.979)
(0 -0 72.8736)
(0 -0 72.7232)
(0 -0 72.5239)
(0 -0 72.2788)
(0 -0 71.9812)
(0 -0 71.6391)
(0 -0 71.2417)
(0 -0 70.8039)
(0 -0 70.3098)
(0 -0 69.7831)
(0 -0 69.1994)
(0 -0 56.3349)
(0 -0 55.727)
(0 -0 55.9376)
(0 -0 56.443)
(0 -0 57.1267)
(0 -0 57.7566)
(0 -0 58.2967)
(0 -0 58.8051)
(0 -0 59.302)
(0 -0 59.7817)
(0 -0 60.2413)
(0 -0 60.6835)
(0 -0 61.111)
(0 -0 61.5252)
(0 -0 61.9271)
(0 -0 62.3173)
(0 -0 62.6966)
(0 -0 63.0658)
(0 -0 63.4257)
(0 -0 63.7769)
(0 -0 64.1202)
(0 -0 64.4558)
(0 -0 64.784)
(0 -0 65.1048)
(0 -0 65.4182)
(0 -0 65.724)
(0 -0 66.0222)
(0 -0 66.3124)
(0 -0 66.5942)
(0 -0 66.8668)
(0 -0 67.1293)
(0 -0 67.3804)
(0 -0 67.619)
(0 -0 67.8435)
(0 -0 68.0528)
(0 -0 68.2454)
(0 -0 68.4203)
(0 -0 68.576)
(0 -0 68.7121)
(0 -0 68.8263)
(0 -0 68.9195)
(0 -0 68.9878)
(0 -0 69.0342)
(0 -0 69.0521)
(0 -0 69.0477)
(0 -0 69.011)
(0 -0 68.9523)
(0 -0 68.8573)
(0 -0 68.7424)
(0 -0 68.5863)
(0 -0 52.0252)
(0 -0 51.5361)
(0 -0 51.7521)
(0 -0 52.188)
(0 -0 52.7885)
(0 -0 53.3592)
(0 -0 53.8508)
(0 -0 54.3109)
(0 -0 54.7613)
(0 -0 55.1976)
(0 -0 55.6161)
(0 -0 56.019)
(0 -0 56.4086)
(0 -0 56.7863)
(0 -0 57.1528)
(0 -0 57.5088)
(0 -0 57.8548)
(0 -0 58.1916)
(0 -0 58.52)
(0 -0 58.8408)
(0 -0 59.1544)
(0 -0 59.4615)
(0 -0 59.7623)
(0 -0 60.0571)
(0 -0 60.3461)
(0 -0 60.6297)
(0 -0 60.9081)
(0 -0 61.1814)
(0 -0 61.4498)
(0 -0 61.713)
(0 -0 61.9707)
(0 -0 62.2223)
(0 -0 62.4673)
(0 -0 62.7051)
(0 -0 62.9349)
(0 -0 63.1561)
(0 -0 63.3685)
(0 -0 63.5711)
(0 -0 63.7642)
(0 -0 63.9463)
(0 -0 64.1184)
(0 -0 64.2776)
(0 -0 64.4264)
(0 -0 64.5596)
(0 -0 64.6819)
(0 -0 64.7851)
(0 -0 64.8769)
(0 -0 64.9453)
(0 -0 65.0024)
(0 -0 65.0307)
(0 -0 47.995)
(0 -0 47.5995)
(0 -0 47.8179)
(0 -0 48.1936)
(0 -0 48.7175)
(0 -0 49.2316)
(0 -0 49.6777)
(0 -0 50.0929)
(0 -0 50.4995)
(0 -0 50.8948)
(0 -0 51.2746)
(0 -0 51.6404)
(0 -0 51.9942)
(0 -0 52.3374)
(0 -0 52.6705)
(0 -0 52.994)
(0 -0 53.3085)
(0 -0 53.6147)
(0 -0 53.9132)
(0 -0 54.2048)
(0 -0 54.4901)
(0 -0 54.7696)
(0 -0 55.0435)
(0 -0 55.3122)
(0 -0 55.5759)
(0 -0 55.8351)
(0 -0 56.09)
(0 -0 56.341)
(0 -0 56.5882)
(0 -0 56.8317)
(0 -0 57.0713)
(0 -0 57.3067)
(0 -0 57.5375)
(0 -0 57.7633)
(0 -0 57.9839)
(0 -0 58.1988)
(0 -0 58.4082)
(0 -0 58.6115)
(0 -0 58.8093)
(0 -0 59.0005)
(0 -0 59.1863)
(0 -0 59.3644)
(0 -0 59.5371)
(0 -0 59.7002)
(0 -0 59.8575)
(0 -0 60.0026)
(0 -0 60.1411)
(0 -0 60.2637)
(0 -0 60.3795)
(0 -0 60.4746)
(0 -0 44.2367)
(0 -0 43.9148)
(0 -0 44.1321)
(0 -0 44.4557)
(0 -0 44.9102)
(0 -0 45.3705)
(0 -0 45.7739)
(0 -0 46.1475)
(0 -0 46.5133)
(0 -0 46.8701)
(0 -0 47.2137)
(0 -0 47.5446)
(0 -0 47.8649)
(0 -0 48.1756)
(0 -0 48.4773)
(0 -0 48.7702)
(0 -0 49.0551)
(0 -0 49.3323)
(0 -0 49.6027)
(0 -0 49.8668)
(0 -0 50.1254)
(0 -0 50.3787)
(0 -0 50.6271)
(0 -0 50.8709)
(0 -0 51.1103)
(0 -0 51.3457)
(0 -0 51.5775)
(0 -0 51.806)
(0 -0 52.0314)
(0 -0 52.2537)
(0 -0 52.4728)
(0 -0 52.6884)
(0 -0 52.9002)
(0 -0 53.1078)
(0 -0 53.3111)
(0 -0 53.5099)
(0 -0 53.7043)
(0 -0 53.8941)
(0 -0 54.0798)
(0 -0 54.2608)
(0 -0 54.438)
(0 -0 54.6098)
(0 -0 54.778)
(0 -0 54.9395)
(0 -0 55.0971)
(0 -0 55.2459)
(0 -0 55.3901)
(0 -0 55.5223)
(0 -0 55.65)
(0 -0 55.762)
(0 -0 40.7416)
(0 -0 40.4777)
(0 -0 40.6901)
(0 -0 40.9689)
(0 -0 41.3609)
(0 -0 41.7707)
(0 -0 42.1343)
(0 -0 42.4696)
(0 -0 42.7975)
(0 -0 43.1184)
(0 -0 43.4282)
(0 -0 43.7267)
(0 -0 44.0156)
(0 -0 44.296)
(0 -0 44.5683)
(0 -0 44.8327)
(0 -0 45.0897)
(0 -0 45.3399)
(0 -0 45.5838)
(0 -0 45.8222)
(0 -0 46.0556)
(0 -0 46.2844)
(0 -0 46.5089)
(0 -0 46.7292)
(0 -0 46.9457)
(0 -0 47.1586)
(0 -0 47.3685)
(0 -0 47.5756)
(0 -0 47.7801)
(0 -0 47.982)
(0 -0 48.181)
(0 -0 48.3769)
(0 -0 48.5694)
(0 -0 48.7582)
(0 -0 48.9431)
(0 -0 49.1239)
(0 -0 49.3009)
(0 -0 49.4739)
(0 -0 49.6434)
(0 -0 49.809)
(0 -0 49.9715)
(0 -0 50.1297)
(0 -0 50.285)
(0 -0 50.4349)
(0 -0 50.5817)
(0 -0 50.7214)
(0 -0 50.8574)
(0 -0 50.9838)
(0 -0 51.1065)
(0 -0 51.2166)
(0 -0 37.5001)
(0 -0 37.282)
(0 -0 37.4859)
(0 -0 37.7261)
(0 -0 38.0625)
(0 -0 38.425)
(0 -0 38.7516)
(0 -0 39.0519)
(0 -0 39.345)
(0 -0 39.6327)
(0 -0 39.9112)
(0 -0 40.1797)
(0 -0 40.4395)
(0 -0 40.6918)
(0 -0 40.9368)
(0 -0 41.1746)
(0 -0 41.4057)
(0 -0 41.6306)
(0 -0 41.8499)
(0 -0 42.0643)
(0 -0 42.2743)
(0 -0 42.4802)
(0 -0 42.6822)
(0 -0 42.8806)
(0 -0 43.0756)
(0 -0 43.2677)
(0 -0 43.4571)
(0 -0 43.6441)
(0 -0 43.8289)
(0 -0 44.0115)
(0 -0 44.1916)
(0 -0 44.369)
(0 -0 44.5431)
(0 -0 44.7138)
(0 -0 44.8809)
(0 -0 45.0442)
(0 -0 45.204)
(0 -0 45.3601)
(0 -0 45.5132)
(0 -0 45.6628)
(0 -0 45.8097)
(0 -0 45.953)
(0 -0 46.0936)
(0 -0 46.2298)
(0 -0 46.3632)
(0 -0 46.4905)
(0 -0 46.6146)
(0 -0 46.7304)
(0 -0 46.8432)
(0 -0 46.9454)
(0 -0 34.5014)
(0 -0 34.3203)
(0 -0 34.5117)
(0 -0 34.7186)
(0 -0 35.0061)
(0 -0 35.3249)
(0 -0 35.6174)
(0 -0 35.8858)
(0 -0 36.1471)
(0 -0 36.4043)
(0 -0 36.6539)
(0 -0 36.8948)
(0 -0 37.128)
(0 -0 37.3543)
(0 -0 37.574)
(0 -0 37.7874)
(0 -0 37.9945)
(0 -0 38.196)
(0 -0 38.3925)
(0 -0 38.5847)
(0 -0 38.7729)
(0 -0 38.9575)
(0 -0 39.1387)
(0 -0 39.3168)
(0 -0 39.4919)
(0 -0 39.6645)
(0 -0 39.8348)
(0 -0 40.0032)
(0 -0 40.1698)
(0 -0 40.3344)
(0 -0 40.4969)
(0 -0 40.6568)
(0 -0 40.8138)
(0 -0 40.9675)
(0 -0 41.1178)
(0 -0 41.2646)
(0 -0 41.4082)
(0 -0 41.5484)
(0 -0 41.6857)
(0 -0 41.82)
(0 -0 41.9519)
(0 -0 42.0806)
(0 -0 42.207)
(0 -0 42.3295)
(0 -0 42.4495)
(0 -0 42.5641)
(0 -0 42.6758)
(0 -0 42.7804)
(0 -0 42.8823)
(0 -0 42.9752)
(0 -0 31.7341)
(0 -0 31.583)
(0 -0 31.7589)
(0 -0 31.9375)
(0 -0 32.1823)
(0 -0 32.4611)
(0 -0 32.7221)
(0 -0 32.9616)
(0 -0 33.1941)
(0 -0 33.4234)
(0 -0 33.6466)
(0 -0 33.8622)
(0 -0 34.0709)
(0 -0 34.2734)
(0 -0 34.4701)
(0 -0 34.6608)
(0 -0 34.846)
(0 -0 35.026)
(0 -0 35.2015)
(0 -0 35.3731)
(0 -0 35.5413)
(0 -0 35.7063)
(0 -0 35.8684)
(0 -0 36.0277)
(0 -0 36.1844)
(0 -0 36.339)
(0 -0 36.4917)
(0 -0 36.6429)
(0 -0 36.7925)
(0 -0 36.9406)
(0 -0 37.0867)
(0 -0 37.2305)
(0 -0 37.3715)
(0 -0 37.5095)
(0 -0 37.6442)
(0 -0 37.7757)
(0 -0 37.904)
(0 -0 38.0293)
(0 -0 38.152)
(0 -0 38.272)
(0 -0 38.3899)
(0 -0 38.5049)
(0 -0 38.6179)
(0 -0 38.7274)
(0 -0 38.8346)
(0 -0 38.9372)
(0 -0 39.0371)
(0 -0 39.1308)
(0 -0 39.2219)
(0 -0 39.3056)
(0 -0 29.1863)
(0 -0 29.0594)
(0 -0 29.218)
(0 -0 29.3727)
(0 -0 29.5807)
(0 -0 29.8231)
(0 -0 30.0551)
(0 -0 30.2685)
(0 -0 30.475)
(0 -0 30.679)
(0 -0 30.8781)
(0 -0 31.0708)
(0 -0 31.2572)
(0 -0 31.4381)
(0 -0 31.6136)
(0 -0 31.7838)
(0 -0 31.9488)
(0 -0 32.1091)
(0 -0 32.2654)
(0 -0 32.4183)
(0 -0 32.5681)
(0 -0 32.7151)
(0 -0 32.8596)
(0 -0 33.0017)
(0 -0 33.1415)
(0 -0 33.2796)
(0 -0 33.4161)
(0 -0 33.5515)
(0 -0 33.6856)
(0 -0 33.8184)
(0 -0 33.9495)
(0 -0 34.0784)
(0 -0 34.2048)
(0 -0 34.3282)
(0 -0 34.4485)
(0 -0 34.5657)
(0 -0 34.6801)
(0 -0 34.7916)
(0 -0 34.9007)
(0 -0 35.0074)
(0 -0 35.1122)
(0 -0 35.2145)
(0 -0 35.315)
(0 -0 35.4125)
(0 -0 35.5079)
(0 -0 35.5992)
(0 -0 35.6881)
(0 -0 35.7714)
(0 -0 35.8525)
(0 -0 35.9272)
(0 -0 26.8453)
(0 -0 26.7381)
(0 -0 26.8784)
(0 -0 27.013)
(0 -0 27.1893)
(0 -0 27.3991)
(0 -0 27.6046)
(0 -0 27.7946)
(0 -0 27.9779)
(0 -0 28.159)
(0 -0 28.3364)
(0 -0 28.5082)
(0 -0 28.6745)
(0 -0 28.8358)
(0 -0 28.9922)
(0 -0 29.1437)
(0 -0 29.2904)
(0 -0 29.4329)
(0 -0 29.5717)
(0 -0 29.7074)
(0 -0 29.8405)
(0 -0 29.9712)
(0 -0 30.0996)
(0 -0 30.2259)
(0 -0 30.3504)
(0 -0 30.4734)
(0 -0 30.5952)
(0 -0 30.7161)
(0 -0 30.8361)
(0 -0 30.955)
(0 -0 31.0723)
(0 -0 31.1877)
(0 -0 31.3005)
(0 -0 31.4106)
(0 -0 31.5177)
(0 -0 31.6218)
(0 -0 31.7232)
(0 -0 31.822)
(0 -0 31.9186)
(0 -0 32.0131)
(0 -0 32.1059)
(0 -0 32.1965)
(0 -0 32.2856)
(0 -0 32.3719)
(0 -0 32.4564)
(0 -0 32.5372)
(0 -0 32.6159)
(0 -0 32.6896)
(0 -0 32.7614)
(0 -0 32.8275)
(0 -0 24.6985)
(0 -0 24.607)
(0 -0 24.7292)
(0 -0 24.8464)
(0 -0 24.9957)
(0 -0 25.1765)
(0 -0 25.3581)
(0 -0 25.5272)
(0 -0 25.6898)
(0 -0 25.8505)
(0 -0 26.0083)
(0 -0 26.1615)
(0 -0 26.3097)
(0 -0 26.4533)
(0 -0 26.5924)
(0 -0 26.7271)
(0 -0 26.8573)
(0 -0 26.9836)
(0 -0 27.1066)
(0 -0 27.2268)
(0 -0 27.3448)
(0 -0 27.4607)
(0 -0 27.5746)
(0 -0 27.6867)
(0 -0 27.7972)
(0 -0 27.9065)
(0 -0 28.015)
(0 -0 28.1228)
(0 -0 28.23)
(0 -0 28.3362)
(0 -0 28.4411)
(0 -0 28.544)
(0 -0 28.6446)
(0 -0 28.7425)
(0 -0 28.8375)
(0 -0 28.9297)
(0 -0 29.0193)
(0 -0 29.1064)
(0 -0 29.1916)
(0 -0 29.2749)
(0 -0 29.3567)
(0 -0 29.4366)
(0 -0 29.5151)
(0 -0 29.5912)
(0 -0 29.6657)
(0 -0 29.7369)
(0 -0 29.8062)
(0 -0 29.871)
(0 -0 29.9341)
(0 -0 29.9923)
(0 -0 22.7327)
(0 -0 22.6539)
(0 -0 22.7584)
(0 -0 22.8607)
(0 -0 22.9871)
(0 -0 23.1425)
(0 -0 23.3025)
(0 -0 23.4529)
(0 -0 23.5972)
(0 -0 23.7399)
(0 -0 23.8803)
(0 -0 24.0167)
(0 -0 24.1488)
(0 -0 24.2766)
(0 -0 24.4004)
(0 -0 24.5199)
(0 -0 24.6353)
(0 -0 24.7471)
(0 -0 24.8559)
(0 -0 24.9622)
(0 -0 25.0666)
(0 -0 25.1691)
(0 -0 25.2699)
(0 -0 25.3692)
(0 -0 25.4672)
(0 -0 25.5642)
(0 -0 25.6606)
(0 -0 25.7567)
(0 -0 25.8523)
(0 -0 25.9471)
(0 -0 26.0407)
(0 -0 26.1325)
(0 -0 26.222)
(0 -0 26.3089)
(0 -0 26.3929)
(0 -0 26.4742)
(0 -0 26.5531)
(0 -0 26.6296)
(0 -0 26.7044)
(0 -0 26.7775)
(0 -0 26.8493)
(0 -0 26.9194)
(0 -0 26.9883)
(0 -0 27.0552)
(0 -0 27.1205)
(0 -0 27.1829)
(0 -0 27.2435)
(0 -0 27.3002)
(0 -0 27.3553)
(0 -0 27.406)
(0 -0 20.935)
(0 -0 20.8662)
(0 -0 20.9543)
(0 -0 21.0434)
(0 -0 21.1506)
(0 -0 21.2838)
(0 -0 21.4244)
(0 -0 21.5583)
(0 -0 21.6866)
(0 -0 21.8133)
(0 -0 21.9382)
(0 -0 22.0599)
(0 -0 22.1777)
(0 -0 22.2915)
(0 -0 22.4016)
(0 -0 22.5076)
(0 -0 22.6099)
(0 -0 22.7087)
(0 -0 22.8048)
(0 -0 22.8987)
(0 -0 22.9909)
(0 -0 23.0815)
(0 -0 23.1706)
(0 -0 23.2584)
(0 -0 23.3452)
(0 -0 23.4312)
(0 -0 23.5169)
(0 -0 23.6024)
(0 -0 23.6876)
(0 -0 23.7722)
(0 -0 23.8558)
(0 -0 23.9375)
(0 -0 24.0171)
(0 -0 24.094)
(0 -0 24.1682)
(0 -0 24.2397)
(0 -0 24.3088)
(0 -0 24.3758)
(0 -0 24.4411)
(0 -0 24.505)
(0 -0 24.5677)
(0 -0 24.629)
(0 -0 24.6893)
(0 -0 24.7476)
(0 -0 24.8047)
(0 -0 24.859)
(0 -0 24.9119)
(0 -0 24.961)
(0 -0 25.0088)
(0 -0 25.0527)
(0 -0 19.2927)
(0 -0 19.2316)
(0 -0 19.3047)
(0 -0 19.3822)
(0 -0 19.4731)
(0 -0 19.5872)
(0 -0 19.7106)
(0 -0 19.8299)
(0 -0 19.9443)
(0 -0 20.057)
(0 -0 20.1683)
(0 -0 20.2769)
(0 -0 20.3821)
(0 -0 20.4836)
(0 -0 20.5816)
(0 -0 20.6757)
(0 -0 20.7663)
(0 -0 20.8536)
(0 -0 20.9384)
(0 -0 21.0213)
(0 -0 21.1027)
(0 -0 21.1827)
(0 -0 21.2614)
(0 -0 21.339)
(0 -0 21.4157)
(0 -0 21.492)
(0 -0 21.5681)
(0 -0 21.6442)
(0 -0 21.7203)
(0 -0 21.7959)
(0 -0 21.8704)
(0 -0 21.9433)
(0 -0 22.0139)
(0 -0 22.0819)
(0 -0 22.1472)
(0 -0 22.2099)
(0 -0 22.2703)
(0 -0 22.3287)
(0 -0 22.3856)
(0 -0 22.4411)
(0 -0 22.4957)
(0 -0 22.549)
(0 -0 22.6015)
(0 -0 22.6522)
(0 -0 22.7018)
(0 -0 22.7489)
(0 -0 22.7946)
(0 -0 22.8369)
(0 -0 22.8781)
(0 -0 22.9155)
(0 -0 17.793)
(0 -0 17.738)
(0 -0 17.7976)
(0 -0 17.8647)
(0 -0 17.942)
(0 -0 18.0397)
(0 -0 18.148)
(0 -0 18.2545)
(0 -0 18.3567)
(0 -0 18.4573)
(0 -0 18.5567)
(0 -0 18.6539)
(0 -0 18.748)
(0 -0 18.8388)
(0 -0 18.9261)
(0 -0 19.0097)
(0 -0 19.09)
(0 -0 19.1672)
(0 -0 19.242)
(0 -0 19.3152)
(0 -0 19.387)
(0 -0 19.4576)
(0 -0 19.5271)
(0 -0 19.5957)
(0 -0 19.6636)
(0 -0 19.7312)
(0 -0 19.7989)
(0 -0 19.8668)
(0 -0 19.9347)
(0 -0 20.0023)
(0 -0 20.0689)
(0 -0 20.1338)
(0 -0 20.1965)
(0 -0 20.2566)
(0 -0 20.314)
(0 -0 20.3688)
(0 -0 20.4214)
(0 -0 20.4721)
(0 -0 20.5214)
(0 -0 20.5695)
(0 -0 20.6168)
(0 -0 20.663)
(0 -0 20.7084)
(0 -0 20.7524)
(0 -0 20.7952)
(0 -0 20.8358)
(0 -0 20.875)
(0 -0 20.9112)
(0 -0 20.9463)
(0 -0 20.978)
(0 -0 16.4238)
(0 -0 16.3734)
(0 -0 16.4213)
(0 -0 16.479)
(0 -0 16.545)
(0 -0 16.6288)
(0 -0 16.7238)
(0 -0 16.819)
(0 -0 16.9108)
(0 -0 17.0009)
(0 -0 17.09)
(0 -0 17.1773)
(0 -0 17.2618)
(0 -0 17.3431)
(0 -0 17.4211)
(0 -0 17.4956)
(0 -0 17.5668)
(0 -0 17.6351)
(0 -0 17.7013)
(0 -0 17.7658)
(0 -0 17.8292)
(0 -0 17.8916)
(0 -0 17.953)
(0 -0 18.0137)
(0 -0 18.0738)
(0 -0 18.1338)
(0 -0 18.1941)
(0 -0 18.2547)
(0 -0 18.3156)
(0 -0 18.3761)
(0 -0 18.4357)
(0 -0 18.4937)
(0 -0 18.5494)
(0 -0 18.6025)
(0 -0 18.6528)
(0 -0 18.7007)
(0 -0 18.7463)
(0 -0 18.7902)
(0 -0 18.8327)
(0 -0 18.8742)
(0 -0 18.9149)
(0 -0 18.9548)
(0 -0 18.994)
(0 -0 19.0318)
(0 -0 19.0686)
(0 -0 19.1033)
(0 -0 19.1368)
(0 -0 19.1673)
(0 -0 19.197)
(0 -0 19.2234)
(0 -0 15.1737)
(0 -0 15.1268)
(0 -0 15.1644)
(0 -0 15.2136)
(0 -0 15.2701)
(0 -0 15.3423)
(0 -0 15.4259)
(0 -0 15.5112)
(0 -0 15.594)
(0 -0 15.6752)
(0 -0 15.7554)
(0 -0 15.834)
(0 -0 15.9102)
(0 -0 15.9834)
(0 -0 16.0533)
(0 -0 16.1199)
(0 -0 16.1832)
(0 -0 16.2437)
(0 -0 16.3022)
(0 -0 16.3593)