/*--------------------------------*- C++ -*----------------------------------*\
  =========                 |
  \\      /  F ield         | OpenFOAM: The Open Source CFD Toolbox
   \\    /   O peration     | Website:  https://openfoam.org
    \\  /    A nd           | Version:  7
     \\/     M anipulation  |
\*---------------------------------------------------------------------------*/
FoamFile
{
    version     2.0;
    format      ascii;
    class       volVectorField;
    location    "0.09";
    object      wallShearStress;
}
// * * * * * * * * * * * * * * * * * * * * * * * * * * * * * * * * * * * * * //

dimensions      [0 2 -2 0 0 0 0];

internalField   uniform (0 0 0);

boundaryField
{
    velocityInlet
    {
        type            calculated;
        value           uniform (0 0 0);
    }
    pressureOutlet
    {
        type            calculated;
        value           uniform (0 0 0);
    }
    fixedWalls
    {
        type            calculated;
        value           nonuniform List<vector> 
100
(
(-0.0198825 -0.00367116 0)
(-0.0119518 -0.000959312 0)
(-0.009059 -0.000334682 0)
(-0.00759418 -0.000148787 0)
(-0.00691517 -5.95333e-05 0)
(-0.006596 -2.715e-05 0)
(-0.00637151 -1.627e-05 0)
(-0.00615061 -1.27349e-05 0)
(-0.00590212 -1.51495e-05 0)
(-0.00560791 -2.17831e-05 0)
(-0.00525962 -3.02798e-05 0)
(-0.00486559 -3.81617e-05 0)
(-0.00445218 -4.29024e-05 0)
(-0.00405768 -4.24209e-05 0)
(-0.00372343 -3.55867e-05 0)
(-0.00348601 -2.3784e-05 0)
(-0.00337301 -9.39375e-06 0)
(-0.00339964 8.34989e-06 0)
(-0.00357531 2.92031e-05 0)
(-0.00392605 5.84245e-05 0)
(-0.00453514 0.000108359 0)
(-0.00555666 0.00018334 0)
(-0.0069336 0.000239216 0)
(-0.00786617 0.000191034 0)
(-0.00683611 -0.000184417 0)
(-0.00250262 -0.000743343 0)
(0.00359071 -0.000887852 0)
(0.00777802 -0.000581666 0)
(0.00842151 -3.98055e-05 0)
(0.00594534 0.0003576 0)
(0.00213653 0.000475851 0)
(-0.00157297 0.000414721 0)
(-0.00442871 0.000309992 0)
(-0.00633463 0.000221813 0)
(-0.00726255 0.000135228 0)
(-0.00693862 -2.93025e-05 0)
(-0.00517587 -0.000232167 0)
(-0.00239592 -0.00037648 0)
(0.000577953 -0.000398891 0)
(0.00282924 -0.000298937 0)
(0.00358959 -0.000101828 0)
(0.00255042 0.000127672 0)
(1.31964e-05 0.000266208 0)
(-0.00318177 0.000323976 0)
(-0.00597871 0.000260887 0)
(-0.00776418 0.000151741 0)
(-0.0089097 0.00013437 0)
(-0.01021 0.000206087 0)
(-0.0115367 0.000228227 0)
(-0.011781 9.65391e-05 0)
(-0.00994455 -0.000195942 0)
(-0.00557572 -0.000556315 0)
(0.000205945 -0.000709007 0)
(0.00531644 -0.000633991 0)
(0.00834747 -0.000359156 0)
(0.00875037 -3.09724e-05 0)
(0.00692339 0.000217526 0)
(0.00401673 0.000307589 0)
(0.00114769 0.000284952 0)
(-0.00112123 0.000215531 0)
(-0.00261261 0.000135242 0)
(-0.00344699 7.33934e-05 0)
(-0.00382436 3.32828e-05 0)
(-0.00392677 1.14296e-05 0)
(-0.00388226 -1.60455e-06 0)
(-0.00376692 -7.27778e-06 0)
(-0.00361933 -9.82725e-06 0)
(-0.00345301 -1.16132e-05 0)
(-0.00326908 -1.37096e-05 0)
(-0.00306817 -1.59613e-05 0)
(-0.00286004 -1.72193e-05 0)
(-0.00266742 -1.59652e-05 0)
(-0.00252145 -1.12796e-05 0)
(-0.00244964 -3.9188e-06 0)
(-0.00245923 3.96667e-06 0)
(-0.00251905 8.50926e-06 0)
(-0.0025542 6.01755e-06 0)
(-0.00246917 -6.79836e-06 0)
(-0.00221368 -2.28556e-05 0)
(-0.00185561 -3.06012e-05 0)
(-0.00156465 -2.09064e-05 0)
(-0.00149743 1.00482e-06 0)
(-0.00168856 2.32049e-05 0)
(-0.00202965 3.47098e-05 0)
(-0.00236114 3.17592e-05 0)
(-0.00254158 1.77522e-05 0)
(-0.00248588 -4.5492e-06 0)
(-0.0021639 -2.93701e-05 0)
(-0.00161983 -5.03912e-05 0)
(-0.000960962 -6.0669e-05 0)
(-0.000341684 -5.59429e-05 0)
(7.87495e-05 -3.8599e-05 0)
(0.000220223 -1.29431e-05 0)
(4.16565e-05 1.03882e-05 0)
(-0.000338028 2.89707e-05 0)
(-0.00088083 3.75338e-05 0)
(-0.00151474 4.62043e-05 0)
(-0.00205696 4.01053e-05 0)
(-0.00279704 4.96887e-05 0)
(-0.00337166 2.31345e-05 0)
)
;
    }
    bottomWall
    {
        type            calculated;
        value           nonuniform List<vector> 
800
(
(-0.0353512 0.00216563 0)
(-0.0160361 0.000524977 0)
(-0.0105898 0.00010057 0)
(-0.00845457 3.46034e-05 0)
(-0.00749013 1.96968e-05 0)
(-0.00685409 1.60249e-05 0)
(-0.00634498 1.32238e-05 0)
(-0.00593349 1.07732e-05 0)
(-0.00559869 8.97126e-06 0)
(-0.00531982 7.67024e-06 0)
(-0.00508231 6.68415e-06 0)
(-0.00487674 5.90482e-06 0)
(-0.00469664 5.27338e-06 0)
(-0.00453726 4.75294e-06 0)
(-0.00439502 4.31793e-06 0)
(-0.00426714 3.94983e-06 0)
(-0.00415142 3.63496e-06 0)
(-0.00404611 3.36306e-06 0)
(-0.0039498 3.12629e-06 0)
(-0.00386132 2.91858e-06 0)
(-0.0037797 2.73514e-06 0)
(-0.00370414 2.57215e-06 0)
(-0.00363396 2.42655e-06 0)
(-0.00356858 2.29581e-06 0)
(-0.0035075 2.17789e-06 0)
(-0.0034503 2.07107e-06 0)
(-0.00339659 1.97391e-06 0)
(-0.00334607 1.88522e-06 0)
(-0.00329844 1.80398e-06 0)
(-0.00325346 1.72933e-06 0)
(-0.00321091 1.66054e-06 0)
(-0.00317059 1.59698e-06 0)
(-0.00313233 1.53809e-06 0)
(-0.00309597 1.4834e-06 0)
(-0.00306136 1.4325e-06 0)
(-0.0030284 1.38501e-06 0)
(-0.00299695 1.34062e-06 0)
(-0.00296692 1.29903e-06 0)
(-0.00293822 1.26001e-06 0)
(-0.00291076 1.22332e-06 0)
(-0.00288446 1.18876e-06 0)
(-0.00285925 1.15615e-06 0)
(-0.00283506 1.12537e-06 0)
(-0.00281184 1.09618e-06 0)
(-0.00278953 1.06868e-06 0)
(-0.00276809 1.04231e-06 0)
(-0.00274745 1.01776e-06 0)
(-0.00272759 9.93587e-07 0)
(-0.00270844 9.71833e-07 0)
(-0.00269 9.48588e-07 0)
(-0.00267459 9.29505e-07 0)
(-0.00266187 9.18679e-07 0)
(-0.00264932 9.04834e-07 0)
(-0.00263696 8.90028e-07 0)
(-0.0026248 8.76142e-07 0)
(-0.00261282 8.62921e-07 0)
(-0.00260102 8.50012e-07 0)
(-0.0025894 8.37369e-07 0)
(-0.00257795 8.25022e-07 0)
(-0.00256667 8.12967e-07 0)
(-0.00255556 8.01187e-07 0)
(-0.0025446 7.89671e-07 0)
(-0.0025338 7.7841e-07 0)
(-0.00252315 7.67397e-07 0)
(-0.00251265 7.56625e-07 0)
(-0.0025023 7.46084e-07 0)
(-0.0024921 7.3577e-07 0)
(-0.00248203 7.25674e-07 0)
(-0.0024721 7.15792e-07 0)
(-0.0024623 7.06117e-07 0)
(-0.00245264 6.96644e-07 0)
(-0.00244311 6.87364e-07 0)
(-0.0024337 6.78273e-07 0)
(-0.00242441 6.69367e-07 0)
(-0.00241525 6.6064e-07 0)
(-0.00240621 6.52083e-07 0)
(-0.00239728 6.43694e-07 0)
(-0.00238847 6.35469e-07 0)
(-0.00237976 6.27404e-07 0)
(-0.00237117 6.19489e-07 0)
(-0.00236269 6.11724e-07 0)
(-0.00235431 6.04105e-07 0)
(-0.00234604 5.96627e-07 0)
(-0.00233786 5.89284e-07 0)
(-0.00232979 5.82074e-07 0)
(-0.00232182 5.74995e-07 0)
(-0.00231394 5.68042e-07 0)
(-0.00230616 5.6121e-07 0)
(-0.00229847 5.54498e-07 0)
(-0.00229087 5.47903e-07 0)
(-0.00228336 5.41424e-07 0)
(-0.00227594 5.35052e-07 0)
(-0.00226861 5.28788e-07 0)
(-0.00226136 5.22631e-07 0)
(-0.0022542 5.16578e-07 0)
(-0.00224712 5.10622e-07 0)
(-0.00224012 5.04764e-07 0)
(-0.0022332 4.99e-07 0)
(-0.00222636 4.9333e-07 0)
(-0.00221959 4.87749e-07 0)
(-0.00221291 4.82258e-07 0)
(-0.00220629 4.76853e-07 0)
(-0.00219976 4.71534e-07 0)
(-0.00219329 4.66296e-07 0)
(-0.00218689 4.6114e-07 0)
(-0.00218057 4.56062e-07 0)
(-0.00217431 4.51064e-07 0)
(-0.00216813 4.4614e-07 0)
(-0.00216201 4.41291e-07 0)
(-0.00215595 4.36515e-07 0)
(-0.00214997 4.31812e-07 0)
(-0.00214404 4.27175e-07 0)
(-0.00213818 4.22608e-07 0)
(-0.00213238 4.18107e-07 0)
(-0.00212665 4.13673e-07 0)
(-0.00212097 4.09299e-07 0)
(-0.00211535 4.04988e-07 0)
(-0.0021098 4.00737e-07 0)
(-0.0021043 3.96547e-07 0)
(-0.00209885 3.92412e-07 0)
(-0.00209347 3.88335e-07 0)
(-0.00208814 3.84312e-07 0)
(-0.00208286 3.80345e-07 0)
(-0.00207764 3.76429e-07 0)
(-0.00207247 3.72567e-07 0)
(-0.00206736 3.68756e-07 0)
(-0.00206229 3.64999e-07 0)
(-0.00205728 3.61293e-07 0)
(-0.00205232 3.57637e-07 0)
(-0.00204741 3.54022e-07 0)
(-0.00204255 3.50459e-07 0)
(-0.00203773 3.46945e-07 0)
(-0.00203297 3.43479e-07 0)
(-0.00202825 3.40049e-07 0)
(-0.00202358 3.36666e-07 0)
(-0.00201895 3.33326e-07 0)
(-0.00201437 3.30035e-07 0)
(-0.00200984 3.26783e-07 0)
(-0.00200535 3.23581e-07 0)
(-0.0020009 3.20411e-07 0)
(-0.00199649 3.17295e-07 0)
(-0.00199213 3.14201e-07 0)
(-0.00198781 3.11176e-07 0)
(-0.00198353 3.08144e-07 0)
(-0.0019793 3.05215e-07 0)
(-0.0019751 3.02228e-07 0)
(-0.00197094 2.99415e-07 0)
(-0.00196682 2.96442e-07 0)
(-0.00196274 2.93734e-07 0)
(-0.00195871 2.9068e-07 0)
(-0.00195532 2.87984e-07 0)
(-0.00195256 2.86564e-07 0)
(-0.00194979 2.84859e-07 0)
(-0.00194702 2.82884e-07 0)
(-0.00194425 2.80956e-07 0)
(-0.00194148 2.79021e-07 0)
(-0.00193871 2.77162e-07 0)
(-0.00193594 2.75278e-07 0)
(-0.00193317 2.73402e-07 0)
(-0.00193039 2.71538e-07 0)
(-0.00192762 2.69676e-07 0)
(-0.00192485 2.6782e-07 0)
(-0.00192207 2.66005e-07 0)
(-0.0019193 2.64138e-07 0)
(-0.00191652 2.62324e-07 0)
(-0.00191375 2.60488e-07 0)
(-0.00191097 2.58665e-07 0)
(-0.0019082 2.56839e-07 0)
(-0.00190542 2.55025e-07 0)
(-0.00190265 2.53222e-07 0)
(-0.00189987 2.51419e-07 0)
(-0.0018971 2.49625e-07 0)
(-0.00189432 2.47864e-07 0)
(-0.00189155 2.4606e-07 0)
(-0.00188877 2.44308e-07 0)
(-0.001886 2.42529e-07 0)
(-0.00188323 2.40759e-07 0)
(-0.00188046 2.39004e-07 0)
(-0.00187769 2.37246e-07 0)
(-0.00187492 2.35502e-07 0)
(-0.00187215 2.3379e-07 0)
(-0.00186938 2.3204e-07 0)
(-0.00186661 2.30333e-07 0)
(-0.00186385 2.28612e-07 0)
(-0.00186108 2.26908e-07 0)
(-0.00185832 2.2522e-07 0)
(-0.00185556 2.23526e-07 0)
(-0.00185279 2.21842e-07 0)
(-0.00185004 2.20191e-07 0)
(-0.00184728 2.18504e-07 0)
(-0.00184452 2.16875e-07 0)
(-0.00184177 2.15219e-07 0)
(-0.00183901 2.1358e-07 0)
(-0.00183626 2.11958e-07 0)
(-0.00183351 2.10355e-07 0)
(-0.00183077 2.0876e-07 0)
(-0.00182802 2.07157e-07 0)
(-0.00182528 2.05583e-07 0)
(-0.00182253 2.04044e-07 0)
(-0.00181979 2.02468e-07 0)
(-0.00181705 2.00945e-07 0)
(-0.00181432 1.99408e-07 0)
(-0.00181158 1.97896e-07 0)
(-0.00180885 1.96403e-07 0)
(-0.00180612 1.94905e-07 0)
(-0.00180339 1.93428e-07 0)
(-0.00180066 1.91981e-07 0)
(-0.00179794 1.90508e-07 0)
(-0.00179521 1.89097e-07 0)
(-0.00179249 1.87657e-07 0)
(-0.00178977 1.86242e-07 0)
(-0.00178705 1.84847e-07 0)
(-0.00178434 1.83449e-07 0)
(-0.00178162 1.821e-07 0)
(-0.00177891 1.80781e-07 0)
(-0.0017762 1.79413e-07 0)
(-0.00177349 1.78115e-07 0)
(-0.00177079 1.768e-07 0)
(-0.00176808 1.75523e-07 0)
(-0.00176538 1.74247e-07 0)
(-0.00176267 1.73e-07 0)
(-0.00175997 1.71777e-07 0)
(-0.00175727 1.70556e-07 0)
(-0.00175457 1.694e-07 0)
(-0.00175188 1.68252e-07 0)
(-0.00174918 1.67102e-07 0)
(-0.00174648 1.65985e-07 0)
(-0.00174378 1.64916e-07 0)
(-0.00174109 1.63797e-07 0)
(-0.00173839 1.62874e-07 0)
(-0.00173569 1.61667e-07 0)
(-0.00173299 1.61e-07 0)
(-0.0017303 1.59663e-07 0)
(-0.00172758 1.59428e-07 0)
(-0.0017249 1.57507e-07 0)
(-0.00172216 1.58379e-07 0)
(-0.00171949 1.55016e-07 0)
(-0.00171671 1.58403e-07 0)
(-0.00171409 1.51534e-07 0)
(-0.00171121 1.60495e-07 0)
(-0.0017087 1.45652e-07 0)
(-0.00170562 1.6686e-07 0)
(-0.00170335 1.34427e-07 0)
(-0.00169989 1.81705e-07 0)
(-0.00169809 1.12404e-07 0)
(-0.00169394 2.12028e-07 0)
(-0.00169296 7.10439e-08 0)
(-0.00168774 2.65259e-07 0)
(-0.00168793 6.27473e-09 0)
(-0.0016813 2.89754e-07 0)
(-0.0353512 -0.00216562 0)
(-0.0160367 -0.000524952 0)
(-0.0105912 -0.000100541 0)
(-0.00845677 -3.45775e-05 0)
(-0.00749309 -1.96733e-05 0)
(-0.00685772 -1.60046e-05 0)
(-0.00634911 -1.32076e-05 0)
(-0.00593796 -1.07613e-05 0)
(-0.00560332 -8.96387e-06 0)
(-0.00532444 -7.66728e-06 0)
(-0.00508678 -6.68541e-06 0)
(-0.0048809 -5.91004e-06 0)
(-0.00470036 -5.28223e-06 0)
(-0.00454044 -4.76507e-06 0)
(-0.00439756 -4.33291e-06 0)
(-0.00426895 -3.9672e-06 0)
(-0.00415244 -3.65421e-06 0)
(-0.00404631 -3.38364e-06 0)
(-0.00394914 -3.14766e-06 0)
(-0.0038598 -2.94018e-06 0)
(-0.00377733 -2.75645e-06 0)
(-0.00370093 -2.59267e-06 0)
(-0.00362994 -2.4458e-06 0)
(-0.00356378 -2.31333e-06 0)
(-0.00350198 -2.19322e-06 0)
(-0.0034441 -2.08373e-06 0)
(-0.00338979 -1.98339e-06 0)
(-0.00333873 -1.89097e-06 0)
(-0.00329065 -1.80527e-06 0)
(-0.00324531 -1.72547e-06 0)
(-0.0032025 -1.65034e-06 0)
(-0.00316205 -1.57955e-06 0)
(-0.00312381 -1.51141e-06 0)
(-0.00308764 -1.44647e-06 0)
(-0.00305344 -1.38181e-06 0)
(-0.00302112 -1.31959e-06 0)
(-0.00299062 -1.25469e-06 0)
(-0.00296194 -1.19123e-06 0)
(-0.0029349 -1.12251e-06 0)
(-0.00290995 -1.0506e-06 0)
(-0.00288617 -9.77314e-07 0)
(-0.00286559 -8.78944e-07 0)
(-0.00284459 -8.13374e-07 0)
(-0.0028303 -6.36353e-07 0)
(-0.00281052 -6.37681e-07 0)
(-0.00280753 -2.17478e-07 0)
(-0.00278418 -5.40436e-07 0)
(-0.00280382 9.58853e-07 0)
(-0.00277558 -5.86846e-06 0)
(-0.00262555 0.000190586 0)
(-3.73556e-05 1.73633e-05 0)
(-3.87094e-05 8.02458e-05 0)
(-3.72937e-05 0.000133214 0)
(-3.38276e-05 0.000179344 0)
(-2.84152e-05 0.000216449 0)
(-2.11022e-05 0.000242597 0)
(-1.21429e-05 0.000256073 0)
(-1.88071e-06 0.000255526 0)
(9.11631e-06 0.000240344 0)
(2.04147e-05 0.000210412 0)
(3.14974e-05 0.000166339 0)
(4.21953e-05 0.000109362 0)
(5.09693e-05 3.97946e-05 0)
(5.72385e-05 -3.91941e-05 0)
(6.17693e-05 -0.00012384 0)
(6.44279e-05 -0.000211958 0)
(6.5375e-05 -0.000301548 0)
(6.48381e-05 -0.000390793 0)
(6.31391e-05 -0.000478193 0)
(6.0596e-05 -0.000562599 0)
(5.74845e-05 -0.00064325 0)
(5.40156e-05 -0.000719676 0)
(5.03403e-05 -0.000791615 0)
(4.65595e-05 -0.000858945 0)
(4.27347e-05 -0.000921637 0)
(3.88981e-05 -0.00097971 0)
(3.50626e-05 -0.00103321 0)
(3.1229e-05 -0.00108221 0)
(2.73919e-05 -0.00112674 0)
(2.35429e-05 -0.00116688 0)
(1.96763e-05 -0.00120266 0)
(1.57862e-05 -0.00123413 0)
(1.18696e-05 -0.00126132 0)
(7.93724e-06 -0.00128428 0)
(3.9813e-06 -0.00130307 0)
(7.28261e-09 -0.0013177 0)
(-3.93425e-06 -0.00132826 0)
(-7.91092e-06 -0.00133487 0)
(-1.20364e-05 -0.00133746 0)
(-1.61932e-05 -0.001336 0)
(-2.01399e-05 -0.00133073 0)
(-2.38005e-05 -0.00132186 0)
(-2.7227e-05 -0.0013096 0)
(-3.04139e-05 -0.00129416 0)
(-3.33511e-05 -0.00127574 0)
(-3.60277e-05 -0.00125458 0)
(-3.84351e-05 -0.00123089 0)
(-4.05675e-05 -0.00120491 0)
(-4.24191e-05 -0.00117687 0)
(-4.39848e-05 -0.00114701 0)
(-4.52621e-05 -0.00111555 0)
(-4.62516e-05 -0.00108273 0)
(-4.69571e-05 -0.00104876 0)
(-4.73856e-05 -0.00101388 0)
(-4.75467e-05 -0.000978293 0)
(-4.74526e-05 -0.000942198 0)
(-4.71177e-05 -0.000905788 0)
(-4.65583e-05 -0.000869243 0)
(-4.57922e-05 -0.000832731 0)
(-4.48381e-05 -0.000796406 0)
(-4.37155e-05 -0.00076041 0)
(-4.24442e-05 -0.000724869 0)
(-4.10442e-05 -0.000689899 0)
(-3.9535e-05 -0.000655602 0)
(-3.79361e-05 -0.000622065 0)
(-3.6266e-05 -0.000589367 0)
(-3.45427e-05 -0.000557571 0)
(-3.27832e-05 -0.000526731 0)
(-3.10034e-05 -0.000496892 0)
(-2.92182e-05 -0.000468086 0)
(-2.74414e-05 -0.00044034 0)
(-2.56852e-05 -0.000413669 0)
(-2.39608e-05 -0.000388083 0)
(-2.22781e-05 -0.000363584 0)
(-2.06458e-05 -0.00034017 0)
(-1.90712e-05 -0.000317832 0)
(-1.75611e-05 -0.000296556 0)
(-1.61214e-05 -0.000276327 0)
(-1.47586e-05 -0.000257122 0)
(-1.34789e-05 -0.000238919 0)
(-1.22868e-05 -0.000221689 0)
(-1.11839e-05 -0.000205401 0)
(-1.01705e-05 -0.000190024 0)
(-9.24501e-06 -0.000175527 0)
(-8.40529e-06 -0.000161877 0)
(-7.64789e-06 -0.00014904 0)
(-6.96835e-06 -0.000136985 0)
(-6.36109e-06 -0.000125677 0)
(-5.81943e-06 -0.000115085 0)
(-5.33561e-06 -0.000105177 0)
(-4.90092e-06 -9.59246e-05 0)
(-4.50582e-06 -8.7299e-05 0)
(-4.1402e-06 -7.92744e-05 0)
(-3.79374e-06 -7.18266e-05 0)
(-3.45626e-06 -6.49341e-05 0)
(-3.11818e-06 -5.85773e-05 0)
(-2.77094e-06 -5.27387e-05 0)
(-2.40752e-06 -4.74024e-05 0)
(-2.02273e-06 -4.25539e-05 0)
(-1.61359e-06 -3.81793e-05 0)
(-1.17949e-06 -3.4265e-05 0)
(-7.22227e-07 -3.07969e-05 0)
(-2.46112e-07 -2.77602e-05 0)
(2.41849e-07 -2.51387e-05 0)
(7.31586e-07 -2.29139e-05 0)
(1.20946e-06 -2.10636e-05 0)
(1.65781e-06 -1.95602e-05 0)
(2.055e-06 -1.83675e-05 0)
(2.3762e-06 -1.74388e-05 0)
(2.59529e-06 -1.6715e-05 0)
(2.68759e-06 -1.61255e-05 0)
(2.6333e-06 -1.55901e-05 0)
(2.42115e-06 -1.50246e-05 0)
(2.05234e-06 -1.43476e-05 0)
(1.54332e-06 -1.34891e-05 0)
(9.27456e-07 -1.23989e-05 0)
(2.53042e-07 -1.10544e-05 0)
(-4.16784e-07 -9.46409e-06 0)
(-1.00765e-06 -7.67285e-06 0)
(-1.43823e-06 -5.76293e-06 0)
(-1.64463e-06 -3.85267e-06 0)
(-1.56492e-06 -2.0683e-06 0)
(-1.14497e-06 -5.65794e-07 0)
(-3.63891e-07 4.82144e-07 0)
(7.54019e-07 9.19531e-07 0)
(2.15035e-06 6.08974e-07 0)
(3.73166e-06 -5.35514e-07 0)
(5.3898e-06 -2.55442e-06 0)
(6.99662e-06 -5.43157e-06 0)
(8.42075e-06 -9.08599e-06 0)
(9.54667e-06 -1.33711e-05 0)
(1.02923e-05 -1.80845e-05 0)
(1.06212e-05 -2.29842e-05 0)
(1.05512e-05 -2.78112e-05 0)
(1.01539e-05 -3.23204e-05 0)
(9.54397e-06 -3.63107e-05 0)
(8.86017e-06 -3.96467e-05 0)
(8.24302e-06 -4.22734e-05 0)
(7.81064e-06 -4.42181e-05 0)
(7.63751e-06 -4.55777e-05 0)
(7.74248e-06 -4.6495e-05 0)
(8.08718e-06 -4.7125e-05 0)
(8.59058e-06 -4.76096e-05 0)
(9.13748e-06 -4.80588e-05 0)
(9.5973e-06 -4.85296e-05 0)
(9.84533e-06 -4.90194e-05 0)
(9.787e-06 -4.94706e-05 0)
(9.36894e-06 -4.97895e-05 0)
(8.58143e-06 -4.98662e-05 0)
(7.46009e-06 -4.95962e-05 0)
(6.08021e-06 -4.8902e-05 0)
(4.53917e-06 -4.77445e-05 0)
(2.9434e-06 -4.61265e-05 0)
(1.39807e-06 -4.40896e-05 0)
(2.94297e-10 -4.17072e-05 0)
(-1.16452e-06 -3.9077e-05 0)
(-2.02437e-06 -3.63136e-05 0)
(-2.52142e-06 -3.35417e-05 0)
(-2.61269e-06 -3.08911e-05 0)
(-2.27119e-06 -2.84913e-05 0)
(-1.4875e-06 -2.64675e-05 0)
(-2.68879e-07 -2.49346e-05 0)
(1.37089e-06 -2.39982e-05 0)
(3.40651e-06 -2.37354e-05 0)
(5.78617e-06 -2.42138e-05 0)
(8.44863e-06 -2.54971e-05 0)
(1.1332e-05 -2.76083e-05 0)
(1.43705e-05 -3.05571e-05 0)
(1.74941e-05 -3.43333e-05 0)
(2.06319e-05 -3.89082e-05 0)
(2.3716e-05 -4.42358e-05 0)
(2.66832e-05 -5.02546e-05 0)
(2.94781e-05 -5.68896e-05 0)
(3.20541e-05 -6.40543e-05 0)
(3.43759e-05 -7.16532e-05 0)
(3.64204e-05 -7.95842e-05 0)
(3.81779e-05 -8.77414e-05 0)
(3.96532e-05 -9.6018e-05 0)
(4.08653e-05 -0.000104309 0)
(4.18477e-05 -0.000112516 0)
(4.26476e-05 -0.000120545 0)
(4.33245e-05 -0.000128319 0)
(4.3948e-05 -0.000135769 0)
(4.45948e-05 -0.000142848 0)
(4.53439e-05 -0.000149531 0)
(4.62696e-05 -0.000155817 0)
(4.74304e-05 -0.000161746 0)
(4.88508e-05 -0.000167407 0)
(5.04919e-05 -0.000172967 0)
(5.21993e-05 -0.000178722 0)
(5.36137e-05 -0.000185189 0)
(5.40098e-05 -0.00019329 0)
(5.2009e-05 -0.000204688 0)
(4.51231e-05 -0.000222495 0)
(2.8992e-05 -0.00025258 0)
(-4.22762e-06 -0.000305228 0)
(-6.95726e-05 -0.000398156 0)
(-0.000195381 -0.000558455 0)
(-0.000419538 -0.000811684 0)
(-0.000739906 -0.00114445 0)
(-4.38538e-07 3.93243e-05 0)
(-4.98847e-05 4.70921e-05 0)
(-9.07739e-05 4.76737e-05 0)
(-0.000129941 4.76594e-05 0)
(-0.000169396 4.80589e-05 0)
(-0.000209527 4.84899e-05 0)
(-0.00025024 4.86417e-05 0)
(-0.000291226 4.82505e-05 0)
(-0.000331988 4.70414e-05 0)
(-0.000371802 4.4689e-05 0)
(-0.000409661 4.08252e-05 0)
(-0.000444245 3.50651e-05 0)
(-0.000473904 2.70385e-05 0)
(-0.000496679 1.64637e-05 0)
(-0.000510406 3.23456e-06 0)
(-0.000512907 -1.25844e-05 0)
(-0.000501881 -3.04538e-05 0)
(-0.000475729 -4.94654e-05 0)
(-0.00043381 -6.84573e-05 0)
(-0.000376358 -8.62186e-05 0)
(-0.000304372 -0.000101415 0)
(-0.000220057 -0.000112561 0)
(-0.000126637 -0.00011816 0)
(-2.72132e-05 -0.000115968 0)
(7.23518e-05 -0.000102958 0)
(0.000161931 -8.33557e-05 0)
(0.000237652 -6.31912e-05 0)
(0.000294375 -3.64851e-05 0)
(0.000334339 -8.60875e-06 0)
(0.000378991 2.74703e-05 0)
(0.000432015 7.21642e-05 0)
(0.000517881 -3.68325e-05 0)
(0.000731143 -0.00038615 0)
(0.00113807 -0.000515775 0)
(0.00144496 -0.000226557 0)
(0.00138812 -2.7419e-05 0)
(0.00138111 -9.00212e-05 0)
(0.00148908 -9.09838e-05 0)
(0.00153404 -3.40712e-05 0)
(0.00155643 -4.53281e-05 0)
(0.00161458 -6.3547e-05 0)
(0.00166843 -5.35104e-05 0)
(0.00170391 -4.60328e-05 0)
(0.00173334 -4.23692e-05 0)
(0.00175328 -2.61601e-05 0)
(0.00175047 1.44201e-06 0)
(0.00172243 2.88898e-05 0)
(0.00167543 5.28764e-05 0)
(0.00161162 7.63572e-05 0)
(0.00153019 0.000101443 0)
(0.00142898 0.00013013 0)
(0.00130382 0.000164617 0)
(0.00114921 0.000206133 0)
(0.000959935 0.0002552 0)
(0.000732525 0.000312606 0)
(0.000462317 0.000381566 0)
(0.00012719 0.000464325 0)
(-0.000288249 0.000527369 0)
(-0.000728712 0.000562284 0)
(-0.00118391 0.000585936 0)
(-0.00166412 0.00060165 0)
(-0.00216102 0.000601418 0)
(-0.00265734 0.000577976 0)
(-0.0031297 0.0005263 0)
(-0.00355208 0.000444153 0)
(-0.00389834 0.000333768 0)
(-0.00414683 0.000200135 0)
(-0.00428064 5.33466e-05 0)
(-0.00429604 -9.62011e-05 0)
(-0.00419019 -0.000233669 0)
(-0.00398267 -0.000341475 0)
(-0.00370278 -0.000410365 0)
(-0.0033822 -0.000441369 0)
(-0.00304896 -0.000443374 0)
(-0.00272319 -0.000426871 0)
(-0.00241576 -0.000401037 0)
(-0.0021294 -0.000372294 0)
(-0.00186251 -0.000342537 0)
(-0.00161469 -0.000309885 0)
(-0.00138908 -0.000274424 0)
(-0.00118784 -0.00024033 0)
(-0.00100975 -0.000214129 0)
(-0.000847646 -0.000199106 0)
(-0.000696236 -0.000196144 0)
(-0.000544221 -0.000203156 0)
(-0.000390256 -0.000218098 0)
(-0.000219639 -0.000235944 0)
(-4.31259e-05 -0.000254204 0)
(0.000170276 -0.000271165 0)
(0.000408465 -0.00023695 0)
(0.000663494 -8.29629e-05 0)
(0.000735704 0.000194501 0)
(0.000626778 0.000263867 0)
(0.00057814 0.000129956 0)
(0.000510091 6.77375e-05 0)
(0.000473751 4.80149e-05 0)
(0.000444514 6.92445e-05 0)
(0.000355677 0.000141432 0)
(0.000181115 0.000178788 0)
(-1.01459e-05 0.000111482 0)
(9.9883e-05 3.72702e-05 0)
(0.000184625 0.000261404 0)
(0.000239265 0.000584903 0)
(0.000178487 0.000843549 0)
(6.6119e-05 0.000927768 0)
(-1.50776e-05 0.000887482 0)
(-4.67686e-05 0.000789042 0)
(-4.72827e-05 0.000686855 0)
(-2.69378e-05 0.000612922 0)
(-6.67177e-06 0.000588166 0)
(-3.42787e-07 0.000609913 0)
(-4.01902e-06 0.000663306 0)
(9.52229e-06 0.000732595 0)
(5.68207e-05 0.000815235 0)
(5.06353e-05 0.000901422 0)
(-5.84538e-05 0.000938745 0)
(-0.000144818 0.000880475 0)
(-0.00014179 0.000766297 0)
(-0.000101008 0.000665228 0)
(-3.60015e-05 0.000629835 0)
(4.66985e-05 0.000684331 0)
(0.00010344 0.00079248 0)
(9.37041e-05 0.00089796 0)
(2.91259e-05 0.000939144 0)
(-4.13266e-05 0.000897886 0)
(-9.18728e-05 0.000808863 0)
(-0.000136504 0.000688671 0)
(-0.000198731 0.000518646 0)
(-0.00028236 0.000264252 0)
(-0.000343468 -0.000102076 0)
(-0.000325316 -0.000494616 0)
(-0.000238452 -0.000816238 0)
(-0.000102601 -0.00102785 0)
(5.79682e-05 -0.00110115 0)
(0.000208122 -0.00103226 0)
(0.000317188 -0.000857311 0)
(0.000391665 -0.000632535 0)
(0.000453177 -0.000389644 0)
(0.000489916 -0.000129797 0)
(0.000443437 0.00013259 0)
(0.000222247 0.000341517 0)
(-0.000188662 0.000419634 0)
(-0.000623572 0.000325751 0)
(-0.000851541 0.000130666 0)
(-0.000848428 -7.15773e-05 0)
(-0.000736774 -0.000288232 0)
(3.09658e-06 -0.000201724 0)
(0.000589065 0.000203286 0)
(0.000821822 0.000806601 0)
(0.000556207 0.00128449 0)
(0.000335197 0.00141812 0)
(0.000291197 0.00154536 0)
(0.000201814 0.00167668 0)
(0.000145207 0.00174216 0)
(0.000108739 0.00180295 0)
(7.06102e-05 0.00184264 0)
(4.88776e-05 0.00186751 0)
(2.85568e-05 0.00188672 0)
(1.41373e-05 0.00189587 0)
(3.23217e-06 0.00190129 0)
(-6.07416e-06 0.00190184 0)
(-1.30125e-05 0.00189876 0)
(-1.9386e-05 0.00189285 0)
(-2.50613e-05 0.00188352 0)
(-3.08879e-05 0.00187094 0)
(-3.74896e-05 0.00185405 0)
(-4.5558e-05 0.00183166 0)
(-5.59713e-05 0.00180173 0)
(-6.95128e-05 0.00176163 0)
(-8.71036e-05 0.00170804 0)
(-0.000109343 0.001637 0)
(-0.000136036 0.00154441 0)
(-0.000165371 0.00142687 0)
(-0.000193254 0.00128314 0)
(-0.000213439 0.00111577 0)
(-0.000219253 0.000932502 0)
(-0.000207825 0.000746254 0)
(-0.000185726 0.0005708 0)
(-0.000168347 0.000413169 0)
(-0.000169142 0.000271699 0)
(-0.000188891 0.000146043 0)
(-0.00021024 4.99667e-05 0)
(-0.000237736 2.89699e-05 0)
(-0.000292556 9.32063e-05 0)
(-0.000375336 0.000199906 0)
(-0.000443544 0.000320441 0)
(-0.000457802 0.000444712 0)
(-0.000358651 0.000554894 0)
(-4.61829e-05 0.000680864 0)
(0.000806049 0.00102962 0)
(0.00167411 0.00141041 0)
(0.002088 0.00239078 0)
(0.00176044 0.00358152 0)
(0.00107412 0.00381867 0)
(0.000918025 0.0038656 0)
(0.000851767 0.00418848 0)
(0.000658272 0.00444543 0)
(0.000560887 0.00458777 0)
(0.000494227 0.00476031 0)
(0.000402868 0.00490297 0)
(0.000343262 0.0050076 0)
(0.000289997 0.00510844 0)
(0.000236721 0.00518865 0)
(0.00019588 0.00525304 0)
(0.000157755 0.00530914 0)
(0.0001237 0.00535318 0)
(9.49358e-05 0.00538911 0)
(6.87457e-05 0.00541842 0)
(4.62666e-05 0.00544116 0)
(2.7422e-05 0.00545927 0)
(1.22965e-05 0.00547342 0)
(1.89563e-06 0.00548467 0)
(-3.31943e-06 0.00549453 0)
(-2.95682e-06 0.00550443 0)
(2.88744e-06 0.00551593 0)
(1.35941e-05 0.00553021 0)
(2.85193e-05 0.00554799 0)
(4.70603e-05 0.00556989 0)
(6.85735e-05 0.00559663 0)
(9.21405e-05 0.00562904 0)
(0.000116549 0.00566766 0)
(0.000140654 0.00571244 0)
(0.000163774 0.00576262 0)
(0.000185942 0.00581685 0)
(0.000207882 0.00587369 0)
(0.000230528 0.0059323 0)
(0.000254035 0.00599299 0)
(0.000277018 0.00605655 0)
(0.000297076 0.00612272 0)
(0.000312866 0.00618904 0)
(0.00032625 0.00625208 0)
(0.000342231 0.00631061 0)
(0.00036585 0.00636827 0)
(0.000397941 0.00643282 0)
(0.000433074 0.00651183 0)
(0.000461659 0.00660775 0)
(0.000474918 0.0067161 0)
(0.00046935 0.00682772 0)
(0.000448272 0.00693304 0)
(0.000420418 0.00702548 0)
(0.000396989 0.00710358 0)
(0.000388059 0.00717175 0)
(0.00039893 0.00723902 0)
(0.000427847 0.00731584 0)
(0.000466743 0.00740934 0)
(0.000505037 0.00752022 0)
(0.000534117 0.00764354 0)
(0.000549692 0.00777216 0)
(0.00055134 0.0079001 0)
(0.000540629 0.00802377 0)
(0.000519521 0.00814132 0)
(0.000489643 0.00825168 0)
(0.000452108 0.00835405 0)
(0.000407498 0.0084476 0)
(0.00035606 0.00853119 0)
(0.000298153 0.00860347 0)
(0.00023426 0.00866328 0)
(0.000164338 0.00870932 0)
(8.86357e-05 0.00873983 0)
(9.35976e-06 0.00875355 0)
(-7.06692e-05 0.00875081 0)
(-0.000150933 0.00873396 0)
(-0.000233692 0.00870385 0)
(-0.000318668 0.00865888 0)
(-0.000404602 0.00859959 0)
(-0.000491787 0.00852652 0)
(-0.000580027 0.0084395 0)
(-0.000669012 0.00833899 0)
(-0.000758795 0.00822546 0)
(-0.000849332 0.00809921 0)
(-0.000940622 0.00796075 0)
(-0.00103278 0.00781056 0)
(-0.00112594 0.00764913 0)
(-0.00122028 0.00747699 0)
(-0.00131608 0.00729468 0)
(-0.00141366 0.00710274 0)
(-0.00151341 0.00690173 0)
(-0.00161582 0.00669221 0)
(-0.00172147 0.00647472 0)
(-0.00183104 0.00624977 0)
(-0.00194531 0.00601779 0)
(-0.00206522 0.0057791 0)
(-0.00219178 0.00553382 0)
(-0.0023261 0.00528178 0)
(-0.00246935 0.0050225 0)
(-0.00262266 0.00475507 0)
(-0.00278711 0.00447821 0)
(-0.0029636 0.00419031 0)
(-0.0031529 0.0038896 0)
(-0.00335555 0.00357437 0)
(-0.00357189 0.00324321 0)
(-0.00380206 0.0028953 0)
(-0.00404638 0.0025306 0)
(-0.00430611 0.00214992 0)
(-0.00458337 0.00175475 0)
(-0.00487432 0.00134757 0)
(-0.00519021 0.000935971 0)
(-0.00554591 0.000520983 0)
(-0.00588574 3.20354e-05 0)
(-0.00577433 0.00160278 0)
)
;
    }
    frontAndBack
    {
        type            empty;
    }
}


// ************************************************************************* //
