/*--------------------------------*- C++ -*----------------------------------*\
  =========                 |
  \\      /  F ield         | OpenFOAM: The Open Source CFD Toolbox
   \\    /   O peration     | Website:  https://openfoam.org
    \\  /    A nd           | Version:  7
     \\/     M anipulation  |
\*---------------------------------------------------------------------------*/
FoamFile
{
    version     2.0;
    format      ascii;
    class       surfaceScalarField;
    location    "0.44";
    object      ddtCorrDdt0(phi);
}
// * * * * * * * * * * * * * * * * * * * * * * * * * * * * * * * * * * * * * //

dimensions      [0 3 -2 0 0 0 0];

internalField   nonuniform List<scalar> 
139350
(
-4.54413e-10
4.54993e-10
-1.3293e-09
8.76397e-10
-2.47306e-09
1.14517e-09
-3.68308e-09
1.21137e-09
-4.8607e-09
1.17885e-09
-5.96792e-09
1.10845e-09
-7.00311e-09
1.03642e-09
-8.00277e-09
1.00128e-09
-9.01797e-09
1.01654e-09
-1.00884e-08
1.07251e-09
-1.12422e-08
1.1552e-09
-1.24902e-08
1.25001e-09
-1.38361e-08
1.3473e-09
-1.52781e-08
1.44347e-09
-1.68145e-08
1.53804e-09
-1.84501e-08
1.63672e-09
-2.01936e-08
1.7455e-09
-2.20644e-08
1.87172e-09
-2.40844e-08
2.02205e-09
-2.62836e-08
2.19997e-09
-2.86915e-08
2.40952e-09
-3.13461e-08
2.65534e-09
-3.4283e-08
2.93833e-09
-3.75474e-08
3.2651e-09
-4.11894e-08
3.64397e-09
-4.52736e-08
4.08468e-09
-4.98693e-08
4.5978e-09
-5.50696e-08
5.20069e-09
-6.09783e-08
5.9105e-09
-6.77285e-08
6.75072e-09
-7.5477e-08
7.75001e-09
-8.44225e-08
8.94593e-09
-9.47886e-08
1.03681e-08
-1.06872e-07
1.20834e-08
-1.20989e-07
1.4119e-08
-1.37607e-07
1.66176e-08
-1.57148e-07
1.95431e-08
-1.80368e-07
2.32201e-08
-2.0776e-07
2.73932e-08
-2.4062e-07
3.28597e-08
-2.79316e-07
3.86976e-08
-3.2616e-07
4.6844e-08
-3.80816e-07
5.46574e-08
-4.47257e-07
6.64394e-08
-5.22895e-07
7.564e-08
-6.14122e-07
9.12251e-08
-7.09678e-07
9.55575e-08
-8.20951e-07
1.11273e-07
-8.61559e-07
4.06104e-08
3.6218e-07
-1.22374e-06
-6.54664e-10
1.11036e-09
-2.54992e-09
2.77329e-09
-5.42798e-09
4.02476e-09
-8.59854e-09
4.38337e-09
-1.16299e-08
4.2115e-09
-1.43872e-08
3.86717e-09
-1.68788e-08
3.52931e-09
-1.92186e-08
3.34289e-09
-2.15631e-08
3.36254e-09
-2.40373e-08
3.549e-09
-2.67156e-08
3.83501e-09
-2.96199e-08
4.15645e-09
-3.27441e-08
4.47305e-09
-3.60696e-08
4.77051e-09
-3.95821e-08
5.05227e-09
-4.32853e-08
5.34114e-09
-4.7198e-08
5.66036e-09
-5.13602e-08
6.03502e-09
-5.58214e-08
6.48541e-09
-6.06425e-08
7.02187e-09
-6.58868e-08
7.65554e-09
-7.16288e-08
8.39812e-09
-7.79432e-08
9.25442e-09
-8.49227e-08
1.02453e-08
-9.26744e-08
1.13978e-08
-1.01332e-07
1.27426e-08
-1.11049e-07
1.43174e-08
-1.22025e-07
1.61772e-08
-1.34492e-07
1.83792e-08
-1.48742e-07
2.10011e-08
-1.65126e-07
2.41355e-08
-1.84083e-07
2.7904e-08
-2.06129e-07
3.24159e-08
-2.31926e-07
3.78808e-08
-2.62242e-07
4.44371e-08
-2.98113e-07
5.24882e-08
-3.40666e-07
6.20984e-08
-3.91542e-07
7.40962e-08
-4.52336e-07
8.81886e-08
-5.25778e-07
1.06302e-07
-6.13818e-07
1.26739e-07
-7.21396e-07
1.54422e-07
-8.49801e-07
1.83065e-07
-1.00859e-06
2.25224e-07
-1.1946e-06
2.61657e-07
-1.42694e-06
3.2356e-07
-1.68515e-06
3.53765e-07
-2.00158e-06
4.27707e-07
-2.28646e-06
3.25492e-07
4.67282e-07
-2.39156e-06
-4.69842e-10
1.581e-09
-2.48769e-09
4.79287e-09
-6.16554e-09
7.70423e-09
-1.07045e-08
8.92388e-09
-1.52461e-08
8.75446e-09
-1.93749e-08
7.99745e-09
-2.30152e-08
7.17097e-09
-2.63055e-08
6.63516e-09
-2.94856e-08
6.54417e-09
-3.27743e-08
6.8402e-09
-3.63135e-08
7.37583e-09
-4.01549e-08
8.00007e-09
-4.42933e-08
8.61302e-09
-4.86963e-08
9.17515e-09
-5.33346e-08
9.69244e-09
-5.82029e-08
1.02108e-08
-6.33199e-08
1.07797e-08
-6.87324e-08
1.14486e-08
-7.45002e-08
1.22555e-08
-8.06968e-08
1.32193e-08
-8.7398e-08
1.43586e-08
-9.46913e-08
1.56923e-08
-1.02666e-07
1.72311e-08
-1.11434e-07
1.9014e-08
-1.21127e-07
2.10929e-08
-1.31911e-07
2.35268e-08
-1.43981e-07
2.63902e-08
-1.5759e-07
2.9787e-08
-1.73036e-07
3.38266e-08
-1.90692e-07
3.86584e-08
-2.11011e-07
4.44561e-08
-2.34559e-07
5.14519e-08
-2.62003e-07
5.98623e-08
-2.94202e-07
7.00797e-08
-3.32177e-07
8.24146e-08
-3.77261e-07
9.75725e-08
-4.31024e-07
1.15862e-07
-4.95548e-07
1.3862e-07
-5.73201e-07
1.65843e-07
-6.67424e-07
2.00525e-07
-7.81394e-07
2.40711e-07
-9.2147e-07
2.94496e-07
-1.0904e-06
3.52001e-07
-1.30131e-06
4.36132e-07
-1.5514e-06
5.11744e-07
-1.8685e-06
6.40658e-07
-2.23072e-06
7.15985e-07
-2.67757e-06
8.74561e-07
-3.15507e-06
8.02997e-07
6.7641e-07
-3.3642e-06
-2.52433e-10
1.83431e-09
-1.8139e-09
6.35617e-09
-5.27935e-09
1.11714e-08
-1.02574e-08
1.39035e-08
-1.57855e-08
1.4284e-08
-2.10992e-08
1.33127e-08
-2.58464e-08
1.19196e-08
-3.00325e-08
1.08233e-08
-3.38861e-08
1.03994e-08
-3.76903e-08
1.0647e-08
-4.16713e-08
1.13585e-08
-4.59473e-08
1.22784e-08
-5.05494e-08
1.32169e-08
-5.54565e-08
1.4084e-08
-6.06367e-08
1.48746e-08
-6.60777e-08
1.56532e-08
-7.17925e-08
1.64969e-08
-7.78251e-08
1.74824e-08
-8.42339e-08
1.86666e-08
-9.10915e-08
2.00778e-08
-9.8472e-08
2.1741e-08
-1.06461e-07
2.3682e-08
-1.15146e-07
2.59185e-08
-1.24641e-07
2.85093e-08
-1.35081e-07
3.15353e-08
-1.46643e-07
3.50893e-08
-1.59538e-07
3.92877e-08
-1.74041e-07
4.42908e-08
-1.90479e-07
5.02666e-08
-2.09264e-07
5.74442e-08
-2.30892e-07
6.60857e-08
-2.55985e-07
7.65458e-08
-2.85284e-07
8.91631e-08
-3.19729e-07
1.04525e-07
-3.60466e-07
1.23154e-07
-4.08948e-07
1.46055e-07
-4.66975e-07
1.73891e-07
-5.36808e-07
2.08454e-07
-6.21226e-07
2.50263e-07
-7.23982e-07
3.03282e-07
-8.48904e-07
3.65633e-07
-1.003e-06
4.48594e-07
-1.19001e-06
5.39007e-07
-1.4243e-06
6.7043e-07
-1.70497e-06
7.92411e-07
-2.06081e-06
9.96494e-07
-2.47803e-06
1.1332e-06
-2.98622e-06
1.38276e-06
-3.56098e-06
1.37776e-06
1.07262e-06
-3.95718e-06
-1.60916e-10
1.99616e-09
-1.17329e-09
7.37044e-09
-3.83351e-09
1.38333e-08
-8.32109e-09
1.83927e-08
-1.40147e-08
1.99792e-08
-2.00672e-08
1.93668e-08
-2.58318e-08
1.76857e-08
-3.10181e-08
1.60118e-08
-3.56713e-08
1.50543e-08
-4.00254e-08
1.50038e-08
-4.43509e-08
1.56857e-08
-4.88464e-08
1.67763e-08
-5.36174e-08
1.79896e-08
-5.86936e-08
1.91619e-08
-6.40709e-08
2.0254e-08
-6.97476e-08
2.13313e-08
-7.5738e-08
2.24898e-08
-8.20835e-08
2.38291e-08
-8.88362e-08
2.54217e-08
-9.6061e-08
2.73036e-08
-1.03822e-07
2.95041e-08
-1.12193e-07
3.20541e-08
-1.21252e-07
3.49793e-08
-1.311e-07
3.8358e-08
-1.41866e-07
4.23031e-08
-1.53721e-07
4.69456e-08
-1.6688e-07
5.24489e-08
-1.81623e-07
5.90346e-08
-1.98289e-07
6.69346e-08
-2.17307e-07
7.64626e-08
-2.39192e-07
8.79726e-08
-2.64591e-07
1.01946e-07
-2.9428e-07
1.18854e-07
-3.29228e-07
1.39473e-07
-3.70643e-07
1.64571e-07
-4.20009e-07
1.95421e-07
-4.7924e-07
2.33123e-07
-5.50642e-07
2.79856e-07
-6.37187e-07
3.36809e-07
-7.4271e-07
4.08805e-07
-8.71392e-07
4.94317e-07
-1.03026e-06
6.07466e-07
-1.22403e-06
7.3277e-07
-1.46627e-06
9.12672e-07
-1.75965e-06
1.0858e-06
-2.12784e-06
1.36468e-06
-2.56986e-06
1.57523e-06
-3.1001e-06
1.91299e-06
-3.71178e-06
1.98945e-06
1.61095e-06
-4.25011e-06
-1.72807e-10
2.16994e-09
-8.42668e-10
8.04225e-09
-2.66202e-09
1.56545e-08
-6.17339e-09
2.19058e-08
-1.12724e-08
2.50798e-08
-1.73691e-08
2.5465e-08
-2.37488e-08
2.4067e-08
-2.98528e-08
2.2118e-08
-3.54314e-08
2.06346e-08
-4.05216e-08
2.00968e-08
-4.53278e-08
2.04937e-08
-5.00799e-08
2.15307e-08
-5.49583e-08
2.28699e-08
-6.00707e-08
2.42761e-08
-6.54738e-08
2.56592e-08
-7.12054e-08
2.70643e-08
-7.73018e-08
2.85888e-08
-8.38142e-08
3.03427e-08
-9.07958e-08
3.24057e-08
-9.83061e-08
3.4815e-08
-1.06399e-07
3.7599e-08
-1.15133e-07
4.07893e-08
-1.2457e-07
4.44177e-08
-1.34791e-07
4.85805e-08
-1.45908e-07
5.34223e-08
-1.58079e-07
5.91168e-08
-1.71505e-07
6.58781e-08
-1.86465e-07
7.39943e-08
-2.03296e-07
8.37678e-08
-2.22433e-07
9.56006e-08
-2.44403e-07
1.09945e-07
-2.69863e-07
1.27406e-07
-2.99612e-07
1.48605e-07
-3.34628e-07
1.7449e-07
-3.76156e-07
2.06101e-07
-4.25679e-07
2.44945e-07
-4.8517e-07
2.92615e-07
-5.56927e-07
3.51613e-07
-6.44014e-07
4.23898e-07
-7.50211e-07
5.15003e-07
-8.79975e-07
6.24082e-07
-1.0399e-06
7.67391e-07
-1.23585e-06
9.28723e-07
-1.47934e-06
1.15616e-06
-1.77738e-06
1.38384e-06
-2.14651e-06
1.73381e-06
-2.59721e-06
2.02592e-06
-3.13223e-06
2.44802e-06
-3.75622e-06
2.61344e-06
2.24309e-06
-4.38835e-06
-2.12266e-10
2.38322e-09
-7.75604e-10
8.6076e-09
-2.05315e-09
1.69339e-08
-4.63468e-09
2.4489e-08
-8.79914e-09
2.92459e-08
-1.43548e-08
3.10224e-08
-2.0773e-08
3.04868e-08
-2.74187e-08
2.8766e-08
-3.38007e-08
2.70184e-08
-3.96964e-08
2.59952e-08
-4.51365e-08
2.59356e-08
-5.02899e-08
2.66866e-08
-5.5361e-08
2.79429e-08
-6.05218e-08
2.94387e-08
-6.59002e-08
3.10398e-08
-7.15946e-08
3.27602e-08
-7.76862e-08
3.4683e-08
-8.42573e-08
3.69149e-08
-9.13798e-08
3.95307e-08
-9.91221e-08
4.25584e-08
-1.07538e-07
4.60168e-08
-1.16677e-07
4.9929e-08
-1.26584e-07
5.43269e-08
-1.37321e-07
5.9319e-08
-1.48974e-07
6.50775e-08
-1.61676e-07
7.1819e-08
-1.75606e-07
7.9811e-08
-1.91023e-07
8.9412e-08
-2.08255e-07
1.01002e-07
-2.27729e-07
1.15075e-07
-2.49974e-07
1.32191e-07
-2.75647e-07
1.5308e-07
-3.05563e-07
1.78524e-07
-3.40701e-07
2.09628e-07
-3.8233e-07
2.47732e-07
-4.31924e-07
2.94539e-07
-4.91478e-07
3.52172e-07
-5.63268e-07
4.23403e-07
-6.50393e-07
5.11024e-07
-7.5651e-07
6.21121e-07
-8.86298e-07
7.53871e-07
-1.04574e-06
9.26832e-07
-1.24175e-06
1.12473e-06
-1.4836e-06
1.39801e-06
-1.78193e-06
1.68217e-06
-2.14738e-06
2.09925e-06
-2.59751e-06
2.47606e-06
-3.12966e-06
2.98017e-06
-3.75857e-06
3.24234e-06
2.93865e-06
-4.45413e-06
-2.36829e-10
2.62109e-09
-8.25489e-10
9.19831e-09
-1.89132e-09
1.80016e-08
-3.883e-09
2.64825e-08
-7.22025e-09
3.25848e-08
-1.20214e-08
3.58253e-08
-1.80454e-08
3.65124e-08
-2.47695e-08
3.54924e-08
-3.16154e-08
3.38662e-08
-3.81603e-08
3.2543e-08
-4.42336e-08
3.20107e-08
-4.98744e-08
3.233e-08
-5.52425e-08
3.33128e-08
-6.05271e-08
3.47252e-08
-6.59047e-08
3.64196e-08
-7.15301e-08
3.83872e-08
-7.75381e-08
4.06936e-08
-8.40568e-08
4.34349e-08
-9.11969e-08
4.66734e-08
-9.90562e-08
5.04186e-08
-1.07707e-07
5.46697e-08
-1.17207e-07
5.94301e-08
-1.27599e-07
6.47202e-08
-1.38928e-07
7.06496e-08
-1.51257e-07
7.74085e-08
-1.64687e-07
8.52497e-08
-1.79365e-07
9.4492e-08
-1.95517e-07
1.05564e-07
-2.13442e-07
1.18929e-07
-2.33545e-07
1.35179e-07
-2.56339e-07
1.54987e-07
-2.82467e-07
1.79209e-07
-3.12747e-07
2.08806e-07
-3.48148e-07
2.45029e-07
-3.89941e-07
2.89528e-07
-4.39589e-07
3.44186e-07
-4.99075e-07
4.1166e-07
-5.70641e-07
4.94968e-07
-6.57366e-07
5.97751e-07
-7.62764e-07
7.2652e-07
-8.91592e-07
8.827e-07
-1.04931e-06
1.08455e-06
-1.24337e-06
1.31879e-06
-1.48144e-06
1.63608e-06
-1.77599e-06
1.97672e-06
-2.13444e-06
2.4577e-06
-2.57702e-06
2.91864e-06
-3.09982e-06
3.50297e-06
-3.72835e-06
3.87089e-06
3.68068e-06
-4.47038e-06
-2.42999e-10
2.86516e-09
-8.84162e-10
9.84157e-09
-1.94223e-09
1.90616e-08
-3.70371e-09
2.82457e-08
-6.54222e-09
3.5425e-08
-1.07198e-08
4.00046e-08
-1.62266e-08
4.20209e-08
-2.27249e-08
4.1993e-08
-2.96849e-08
4.08281e-08
-3.65986e-08
3.94596e-08
-4.3147e-08
3.85611e-08
-4.92324e-08
3.8418e-08
-5.49295e-08
3.90118e-08
-6.03978e-08
4.01955e-08
-6.58229e-08
4.18469e-08
-7.139e-08
4.39558e-08
-7.72739e-08
4.65803e-08
-8.36475e-08
4.98098e-08
-9.06677e-08
5.36961e-08
-9.84773e-08
5.82293e-08
-1.07189e-07
6.33829e-08
-1.16889e-07
6.91312e-08
-1.27637e-07
7.54708e-08
-1.39484e-07
8.24976e-08
-1.52477e-07
9.04038e-08
-1.66692e-07
9.94652e-08
-1.8224e-07
1.10042e-07
-1.99302e-07
1.22628e-07
-2.18137e-07
1.37766e-07
-2.39104e-07
1.56146e-07
-2.62682e-07
1.78568e-07
-2.89479e-07
2.06006e-07
-3.20289e-07
2.39618e-07
-3.56054e-07
2.80794e-07
-3.9802e-07
3.31497e-07
-4.47622e-07
3.93788e-07
-5.06789e-07
4.70828e-07
-5.77718e-07
5.65898e-07
-6.63385e-07
6.83419e-07
-7.67183e-07
8.30318e-07
-8.93722e-07
1.00924e-06
-1.04811e-06
1.23893e-06
-1.23776e-06
1.50845e-06
-1.46935e-06
1.86768e-06
-1.75569e-06
2.26305e-06
-2.1026e-06
2.80461e-06
-2.53102e-06
3.34706e-06
-3.03701e-06
4.00896e-06
-3.65778e-06
4.49166e-06
4.45319e-06
-4.43028e-06
-2.41386e-10
3.10764e-09
-9.21775e-10
1.05241e-08
-2.0404e-09
2.01821e-08
-3.79156e-09
2.99987e-08
-6.45228e-09
3.80874e-08
-1.02883e-08
4.38423e-08
-1.5406e-08
4.71403e-08
-2.16199e-08
4.82093e-08
-2.84985e-08
4.77086e-08
-3.55409e-08
4.65049e-08
-4.23603e-08
4.53824e-08
-4.87632e-08
4.48235e-08
-5.47416e-08
4.49922e-08
-6.04036e-08
4.58595e-08
-6.59129e-08
4.73584e-08
-7.14542e-08
4.94987e-08
-7.72175e-08
5.23462e-08
-8.34023e-08
5.59959e-08
-9.02036e-08
6.05001e-08
-9.78108e-08
6.58376e-08
-1.06386e-07
7.19597e-08
-1.16063e-07
7.88096e-08
-1.26941e-07
8.63512e-08
-1.39096e-07
9.46532e-08
-1.52582e-07
1.03892e-07
-1.67465e-07
1.14349e-07
-1.83829e-07
1.26409e-07
-2.01813e-07
1.40613e-07
-2.21624e-07
1.5758e-07
-2.43566e-07
1.78089e-07
-2.68061e-07
2.03065e-07
-2.9566e-07
2.33606e-07
-3.27103e-07
2.71063e-07
-3.63283e-07
3.16974e-07
-4.05381e-07
3.73598e-07
-4.54785e-07
4.43192e-07
-5.13315e-07
5.2936e-07
-5.83106e-07
6.35689e-07
-6.66936e-07
7.6725e-07
-7.68086e-07
9.31468e-07
-8.9082e-07
1.13198e-06
-1.03997e-06
1.38809e-06
-1.22251e-06
1.69099e-06
-1.4444e-06
2.08956e-06
-1.71796e-06
2.53662e-06
-2.0479e-06
3.13455e-06
-2.45518e-06
3.75434e-06
-2.93651e-06
4.49028e-06
-3.53953e-06
5.09469e-06
5.23879e-06
-4.32513e-06
-2.40248e-10
3.34901e-09
-9.44769e-10
1.12308e-08
-2.12689e-09
2.13662e-08
-3.95272e-09
3.18264e-08
-6.63012e-09
4.07666e-08
-1.0379e-08
4.7593e-08
-1.53276e-08
5.20906e-08
-2.13645e-08
5.42486e-08
-2.81418e-08
5.44879e-08
-3.52023e-08
5.35682e-08
-4.21489e-08
5.23311e-08
-4.87442e-08
5.14214e-08
-5.49258e-08
5.11759e-08
-6.0756e-08
5.16916e-08
-6.63656e-08
5.29703e-08
-7.19199e-08
5.50546e-08
-7.76009e-08
5.803e-08
-8.36128e-08
6.2009e-08
-9.01698e-08
6.70597e-08
-9.74951e-08
7.3164e-08
-1.05796e-07
8.02625e-08
-1.15259e-07
8.82734e-08
-1.26033e-07
9.71277e-08
-1.38238e-07
1.06859e-07
-1.51957e-07
1.17614e-07
-1.67268e-07
1.2966e-07
-1.84245e-07
1.43389e-07
-2.03e-07
1.59368e-07
-2.23693e-07
1.78275e-07
-2.46568e-07
2.00965e-07
-2.71981e-07
2.2848e-07
-3.00409e-07
2.62034e-07
-3.32513e-07
3.03169e-07
-3.69113e-07
3.53574e-07
-4.11287e-07
4.15775e-07
-4.60348e-07
4.92253e-07
-5.17957e-07
5.8697e-07
-5.86157e-07
7.03888e-07
-6.67449e-07
8.48544e-07
-7.6497e-07
1.02899e-06
-8.82522e-07
1.24953e-06
-1.02461e-06
1.53018e-06
-1.19758e-06
1.86396e-06
-1.40662e-06
2.2986e-06
-1.66328e-06
2.79328e-06
-1.97108e-06
3.44235e-06
-2.35073e-06
4.13399e-06
-2.80026e-06
4.93981e-06
-3.37461e-06
5.66904e-06
6.01888e-06
-4.15469e-06
-2.41601e-10
3.59175e-09
-9.64914e-10
1.19563e-08
-2.1977e-09
2.26011e-08
-4.11191e-09
3.37425e-08
-6.88594e-09
4.35424e-08
-1.06971e-08
5.14061e-08
-1.56571e-08
5.70524e-08
-2.16731e-08
6.02671e-08
-2.8434e-08
6.12507e-08
-3.55171e-08
6.06544e-08
-4.25409e-08
5.9357e-08
-4.92586e-08
5.81418e-08
-5.55849e-08
5.75042e-08
-6.1554e-08
5.76627e-08
-6.72702e-08
5.86888e-08
-7.28748e-08
6.06609e-08
-7.85311e-08
6.3689e-08
-8.44316e-08
6.79109e-08
-9.07913e-08
7.3422e-08
-9.78485e-08
8.02224e-08
-1.05841e-07
8.82569e-08
-1.14998e-07
9.74312e-08
-1.25518e-07
1.0765e-07
-1.37569e-07
1.18911e-07
-1.51279e-07
1.31327e-07
-1.66754e-07
1.45135e-07
-1.8408e-07
1.60718e-07
-2.0336e-07
1.78648e-07
-2.24725e-07
1.99642e-07
-2.48368e-07
2.24609e-07
-2.74579e-07
2.54693e-07
-3.03758e-07
2.91214e-07
-3.36473e-07
3.35887e-07
-3.73454e-07
3.90555e-07
-4.15652e-07
4.57976e-07
-4.64274e-07
5.40875e-07
-5.20789e-07
6.43487e-07
-5.87104e-07
7.70204e-07
-6.65404e-07
9.26845e-07
-7.58614e-07
1.1222e-06
-8.70036e-07
1.36095e-06
-1.00373e-06
1.66387e-06
-1.16536e-06
2.02559e-06
-1.35919e-06
2.49243e-06
-1.59592e-06
3.03001e-06
-1.87777e-06
3.72419e-06
-2.22488e-06
4.48111e-06
-2.63784e-06
5.35278e-06
-3.17328e-06
6.20448e-06
6.77555e-06
-3.92995e-06
-2.44495e-10
3.83742e-09
-9.87586e-10
1.27017e-08
-2.26367e-09
2.38792e-08
-4.25947e-09
3.57402e-08
-7.1485e-09
4.64332e-08
-1.10847e-08
5.53441e-08
-1.61594e-08
6.21289e-08
-2.22718e-08
6.63819e-08
-2.91157e-08
6.80967e-08
-3.62817e-08
6.78234e-08
-4.34005e-08
6.64779e-08
-5.02303e-08
6.49742e-08
-5.66813e-08
6.39573e-08
-6.27773e-08
6.37607e-08
-6.86077e-08
6.45216e-08
-7.42965e-08
6.63513e-08
-7.99885e-08
6.93838e-08
-8.58591e-08
7.37829e-08
-9.21125e-08
7.96779e-08
-9.89871e-08
8.70982e-08
-1.06734e-07
9.60057e-08
-1.15608e-07
1.06307e-07
-1.25846e-07
1.1789e-07
-1.37659e-07
1.30725e-07
-1.51218e-07
1.44888e-07
-1.66667e-07
1.60585e-07
-1.84119e-07
1.78173e-07
-2.03684e-07
1.98214e-07
-2.25482e-07
2.21441e-07
-2.49674e-07
2.48802e-07
-2.76498e-07
2.81519e-07
-3.06284e-07
3.21001e-07
-3.39508e-07
3.69112e-07
-3.76805e-07
4.27852e-07
-4.18988e-07
5.00161e-07
-4.67144e-07
5.89031e-07
-5.22532e-07
6.98876e-07
-5.86892e-07
8.34564e-07
-6.6208e-07
1.00203e-06
-7.50738e-07
1.21086e-06
-8.55691e-07
1.46591e-06
-9.80423e-07
1.7886e-06
-1.12996e-06
2.17513e-06
-1.30754e-06
2.67001e-06
-1.52298e-06
3.24545e-06
-1.77709e-06
3.9783e-06
-2.08939e-06
4.79341e-06
-2.46384e-06
5.72722e-06
-2.9537e-06
6.69435e-06
7.4941e-06
-3.67224e-06
-2.47873e-10
4.08648e-09
-1.01327e-09
1.34693e-08
-2.33155e-09
2.51996e-08
-4.40372e-09
3.78143e-08
-7.40721e-09
4.94385e-08
-1.1486e-08
5.94247e-08
-1.67187e-08
6.73635e-08
-2.29918e-08
7.26575e-08
-2.99893e-08
7.50963e-08
-3.72988e-08
7.5136e-08
-4.45539e-08
7.37351e-08
-5.15173e-08
7.19403e-08
-5.81019e-08
7.0544e-08
-6.43307e-08
6.99916e-08
-7.02887e-08
7.0482e-08
-7.6091e-08
7.21553e-08
-8.187e-08
7.51656e-08
-8.77872e-08
7.97015e-08
-9.40345e-08
8.59278e-08
-1.00842e-07
9.39068e-08
-1.08463e-07
1.03629e-07
-1.17162e-07
1.15007e-07
-1.27196e-07
1.27926e-07
-1.38808e-07
1.42337e-07
-1.52202e-07
1.58285e-07
-1.67558e-07
1.75942e-07
-1.8502e-07
1.95638e-07
-2.04715e-07
2.17909e-07
-2.26766e-07
2.43495e-07
-2.51322e-07
2.73359e-07
-2.78582e-07
3.08781e-07
-3.08827e-07
3.51247e-07
-3.4245e-07
4.02737e-07
-3.80002e-07
4.65404e-07
-4.22166e-07
5.42328e-07
-4.69904e-07
6.36769e-07
-5.24275e-07
7.53249e-07
-5.86829e-07
8.97118e-07
-6.59121e-07
1.07433e-06
-7.43454e-07
1.29519e-06
-8.42236e-07
1.56469e-06
-9.58323e-07
1.90468e-06
-1.0961e-06
2.31291e-06
-1.25786e-06
2.83178e-06
-1.4525e-06
3.44009e-06
-1.6795e-06
4.2053e-06
-1.95769e-06
5.0716e-06
-2.29447e-06
6.06399e-06
-2.73755e-06
7.13743e-06
8.16524e-06
-3.40869e-06
-2.51335e-10
4.33903e-09
-1.03946e-09
1.42598e-08
-2.40303e-09
2.65653e-08
-4.55105e-09
3.99643e-08
-7.66784e-09
5.25571e-08
-1.1893e-08
6.36517e-08
-1.72977e-08
7.27701e-08
-2.37586e-08
7.9121e-08
-3.09467e-08
8.22865e-08
-3.84394e-08
8.26318e-08
-4.58663e-08
8.11642e-08
-5.29909e-08
7.90676e-08
-5.9729e-08
7.72843e-08
-6.61059e-08
7.63706e-08
-7.22072e-08
7.65857e-08
-7.81458e-08
7.80957e-08
-8.40494e-08
8.10719e-08
-9.0072e-08
8.57256e-08
-9.63955e-08
9.22539e-08
-1.03245e-07
1.00757e-07
-1.10863e-07
1.11249e-07
-1.19521e-07
1.23666e-07
-1.29488e-07
1.37895e-07
-1.41017e-07
1.53868e-07
-1.54334e-07
1.71605e-07
-1.69651e-07
1.9126e-07
-1.87131e-07
2.1312e-07
-2.06912e-07
2.37691e-07
-2.29139e-07
2.65724e-07
-2.53958e-07
2.98179e-07
-2.81547e-07
3.36372e-07
-3.12152e-07
3.81852e-07
-3.46106e-07
4.36693e-07
-3.83889e-07
5.03188e-07
-4.26077e-07
5.84518e-07
-4.73515e-07
6.84207e-07
-5.27092e-07
8.06827e-07
-5.88165e-07
9.58191e-07
-6.58038e-07
1.1442e-06
-7.38657e-07
1.37581e-06
-8.32087e-07
1.65812e-06
-9.40565e-07
2.01316e-06
-1.06788e-06
2.44022e-06
-1.21554e-06
2.97944e-06
-1.3914e-06
3.61595e-06
-1.59425e-06
4.40814e-06
-1.84162e-06
5.31897e-06
-2.1438e-06
6.36617e-06
-2.54503e-06
7.53867e-06
8.78352e-06
-3.16331e-06
-2.5488e-10
4.59515e-09
-1.06625e-09
1.50735e-08
-2.4779e-09
2.79791e-08
-4.7036e-09
4.2192e-08
-7.93519e-09
5.57905e-08
-1.23094e-08
6.80279e-08
-1.78917e-08
7.83542e-08
-2.45509e-08
8.57829e-08
-3.19459e-08
8.96836e-08
-3.96422e-08
9.03312e-08
-4.72627e-08
8.87869e-08
-5.45691e-08
8.63768e-08
-6.14786e-08
8.41959e-08
-6.80188e-08
8.29128e-08
-7.42774e-08
8.28467e-08
-8.03686e-08
8.41887e-08
-8.64204e-08
8.71265e-08
-9.25851e-08
9.18917e-08
-9.90423e-08
9.87138e-08
-1.06011e-07
1.07727e-07
-1.13736e-07
1.18976e-07
-1.22483e-07
1.32414e-07
-1.32517e-07
1.47931e-07
-1.44101e-07
1.65453e-07
-1.57481e-07
1.84987e-07
-1.72854e-07
2.06634e-07
-1.90417e-07
2.30685e-07
-2.10355e-07
2.5763e-07
-2.32792e-07
2.88162e-07
-2.57875e-07
3.23263e-07
-2.85775e-07
3.64273e-07
-3.16718e-07
4.12796e-07
-3.50996e-07
4.70974e-07
-3.89041e-07
5.41233e-07
-4.31342e-07
6.26821e-07
-4.7865e-07
7.31515e-07
-5.31723e-07
8.59902e-07
-5.91737e-07
1.01821e-06
-6.59808e-07
1.21227e-06
-7.37543e-07
1.45354e-06
-8.26738e-07
1.74732e-06
-9.29071e-07
2.11549e-06
-1.04785e-06
2.559e-06
-1.18391e-06
3.1155e-06
-1.34407e-06
3.77611e-06
-1.52728e-06
4.59135e-06
-1.74857e-06
5.54027e-06
-2.02166e-06
6.63926e-06
-2.38815e-06
7.90517e-06
9.34858e-06
-2.9532e-06
-2.58594e-10
4.855e-09
-1.09386e-09
1.59111e-08
-2.55581e-09
2.94432e-08
-4.86159e-09
4.44998e-08
-8.21088e-09
5.91417e-08
-1.27384e-08
7.25573e-08
-1.8503e-08
8.41208e-08
-2.53666e-08
9.26491e-08
-3.29764e-08
9.72956e-08
-4.08864e-08
9.82443e-08
-4.87119e-08
9.66147e-08
-5.62124e-08
9.38801e-08
-6.33053e-08
9.1291e-08
-7.00199e-08
8.96296e-08
-7.64462e-08
8.92754e-08
-8.27007e-08
9.04451e-08
-8.89143e-08
9.33429e-08
-9.52417e-08
9.82207e-08
-1.01865e-07
1.05339e-07
-1.09003e-07
1.14867e-07
-1.169e-07
1.26876e-07
-1.25822e-07
1.41337e-07
-1.36035e-07
1.58146e-07
-1.47803e-07
1.77222e-07
-1.61365e-07
1.98551e-07
-1.76954e-07
2.22224e-07
-1.94755e-07
2.48488e-07
-2.14932e-07
2.77807e-07
-2.37644e-07
3.10877e-07
-2.63046e-07
3.48666e-07
-2.91298e-07
3.92527e-07
-3.22617e-07
4.44116e-07
-3.57263e-07
5.05622e-07
-3.95634e-07
5.79604e-07
-4.3817e-07
6.69359e-07
-4.8554e-07
7.78885e-07
-5.38409e-07
9.12772e-07
-5.978e-07
1.0776e-06
-6.64693e-07
1.27917e-06
-7.40415e-07
1.52927e-06
-8.26518e-07
1.83343e-06
-9.2427e-07
2.21325e-06
-1.03663e-06
2.67137e-06
-1.16383e-06
3.2427e-06
-1.31176e-06
3.92403e-06
-1.48001e-06
4.7596e-06
-1.68104e-06
5.7413e-06
-1.93129e-06
6.88951e-06
-2.26947e-06
8.24335e-06
9.86593e-06
-2.78681e-06
-2.62539e-10
5.11881e-09
-1.12232e-09
1.67733e-08
-2.63667e-09
3.09597e-08
-5.02493e-09
4.68901e-08
-8.49511e-09
6.26138e-08
-1.31808e-08
7.7245e-08
-1.91334e-08
9.00752e-08
-2.6207e-08
9.97254e-08
-3.40377e-08
1.05128e-07
-4.21675e-08
1.06377e-07
-5.02048e-08
1.04654e-07
-5.79064e-08
1.01584e-07
-6.519e-08
9.85769e-08
-7.20862e-08
9.6528e-08
-7.8687e-08
9.58786e-08
-8.51116e-08
9.68715e-08
-9.14945e-08
9.97285e-08
-9.79952e-08
1.04723e-07
-1.048e-07
1.12147e-07
-1.12134e-07
1.22202e-07
-1.20243e-07
1.34987e-07
-1.29395e-07
1.5049e-07
-1.39857e-07
1.6861e-07
-1.51894e-07
1.89259e-07
-1.65745e-07
2.12406e-07
-1.81639e-07
2.38118e-07
-1.99768e-07
2.6662e-07
-2.20305e-07
2.98345e-07
-2.43402e-07
3.33976e-07
-2.69214e-07
3.74478e-07
-2.97897e-07
4.21213e-07
-3.29663e-07
4.75882e-07
-3.64757e-07
5.40718e-07
-4.03548e-07
6.18395e-07
-4.46437e-07
7.1225e-07
-4.94038e-07
8.26485e-07
-5.46958e-07
9.65693e-07
-6.06092e-07
1.13673e-06
-6.72343e-07
1.34542e-06
-7.46752e-07
1.60367e-06
-8.30892e-07
1.91757e-06
-9.25495e-07
2.30785e-06
-1.03308e-06
2.77895e-06
-1.15387e-06
3.36348e-06
-1.29276e-06
4.06292e-06
-1.45021e-06
4.91705e-06
-1.63653e-06
5.92763e-06
-1.86955e-06
7.12253e-06
-2.18492e-06
8.55872e-06
1.03421e-05
-2.6611e-06
-2.66755e-10
5.38686e-09
-1.15169e-09
1.76606e-08
-2.72052e-09
3.25308e-08
-5.19363e-09
4.93652e-08
-8.78775e-09
6.62098e-08
-1.36369e-08
8.20961e-08
-1.97833e-08
9.62236e-08
-2.7073e-08
1.07018e-07
-3.51304e-08
1.13188e-07
-4.34857e-08
1.14736e-07
-5.17399e-08
1.12911e-07
-5.96475e-08
1.09495e-07
-6.71267e-08
1.06058e-07
-7.42093e-08
1.03613e-07
-8.09892e-08
1.02661e-07
-8.75881e-08
1.03472e-07
-9.41448e-08
1.06288e-07
-1.00824e-07
1.11404e-07
-1.0782e-07
1.19145e-07
-1.15362e-07
1.29745e-07
-1.23703e-07
1.4333e-07
-1.33114e-07
1.59902e-07
-1.43865e-07
1.79364e-07
-1.56222e-07
2.01617e-07
-1.70426e-07
2.26612e-07
-1.86701e-07
2.54394e-07
-2.0524e-07
2.85162e-07
-2.26217e-07
3.19322e-07
-2.49779e-07
3.57541e-07
-2.76079e-07
4.00778e-07
-3.05267e-07
4.50403e-07
-3.37548e-07
5.08163e-07
-3.73155e-07
5.76328e-07
-4.12439e-07
6.5768e-07
-4.5578e-07
7.55593e-07
-5.03742e-07
8.74447e-07
-5.56898e-07
1.01885e-06
-6.1604e-07
1.19587e-06
-6.82009e-07
1.41139e-06
-7.5571e-07
1.67738e-06
-8.38435e-07
2.00029e-06
-9.30852e-07
2.40026e-06
-1.03529e-06
2.8834e-06
-1.15166e-06
3.47985e-06
-1.284e-06
4.19527e-06
-1.43368e-06
5.06673e-06
-1.60959e-06
6.10355e-06
-1.82967e-06
7.3426e-06
-2.12611e-06
8.85518e-06
1.07818e-05
-2.56575e-06
-2.71281e-10
5.65946e-09
-1.18199e-09
1.85737e-08
-2.80738e-09
3.41584e-08
-5.36778e-09
5.19277e-08
-9.08874e-09
6.99327e-08
-1.41064e-08
8.71158e-08
-2.04528e-08
1.02572e-07
-2.79648e-08
1.14532e-07
-3.6255e-08
1.21481e-07
-4.48415e-08
1.23325e-07
-5.33175e-08
1.21389e-07
-6.14355e-08
1.17616e-07
-6.91142e-08
1.13739e-07
-7.63869e-08
1.10888e-07
-8.33493e-08
1.09626e-07
-9.01259e-08
1.10251e-07
-9.68596e-08
1.13024e-07
-1.03721e-07
1.18267e-07
-1.10912e-07
1.26337e-07
-1.18668e-07
1.37503e-07
-1.27251e-07
1.51915e-07
-1.36936e-07
1.69588e-07
-1.47997e-07
1.90427e-07
-1.60702e-07
2.14322e-07
-1.75293e-07
2.41205e-07
-1.91993e-07
2.71095e-07
-2.10992e-07
3.04164e-07
-2.32461e-07
3.40792e-07
-2.56543e-07
3.81624e-07
-2.83383e-07
4.27619e-07
-3.13129e-07
4.8015e-07
-3.45973e-07
5.41008e-07
-3.82141e-07
6.12498e-07
-4.21966e-07
6.97505e-07
-4.65814e-07
7.99443e-07
-5.14207e-07
9.2284e-07
-5.67697e-07
1.07234e-06
-6.26989e-07
1.25517e-06
-6.92889e-07
1.47729e-06
-7.66145e-07
1.75063e-06
-8.47996e-07
2.08215e-06
-9.38906e-07
2.49117e-06
-1.04087e-06
2.98537e-06
-1.15395e-06
3.59292e-06
-1.28141e-06
4.32273e-06
-1.42521e-06
5.21053e-06
-1.59336e-06
6.27169e-06
-1.80297e-06
7.55221e-06
-2.08208e-06
9.1343e-06
1.11867e-05
-2.48696e-06
-2.76151e-10
5.93693e-09
-1.21325e-09
1.95133e-08
-2.89729e-09
3.58447e-08
-5.54743e-09
5.45799e-08
-9.39799e-09
7.37852e-08
-1.45892e-08
9.23091e-08
-2.11418e-08
1.09127e-07
-2.88822e-08
1.22275e-07
-3.74114e-08
1.30012e-07
-4.62348e-08
1.32152e-07
-5.49377e-08
1.30095e-07
-6.32705e-08
1.25951e-07
-7.11524e-08
1.21623e-07
-7.86186e-08
1.18356e-07
-8.57665e-08
1.16776e-07
-9.27236e-08
1.1721e-07
-9.96368e-08
1.1994e-07
-1.06684e-07
1.25316e-07
-1.14072e-07
1.33728e-07
-1.22047e-07
1.4548e-07
-1.30877e-07
1.60746e-07
-1.40844e-07
1.79556e-07
-1.52226e-07
2.01811e-07
-1.65293e-07
2.2739e-07
-1.80289e-07
2.56204e-07
-1.97436e-07
2.88243e-07
-2.16922e-07
3.23651e-07
-2.38911e-07
3.62782e-07
-2.63541e-07
4.06257e-07
-2.90951e-07
4.55029e-07
-3.21279e-07
5.1048e-07
-3.5471e-07
5.7444e-07
-3.91459e-07
6.49249e-07
-4.31842e-07
7.37887e-07
-4.76211e-07
8.43814e-07
-5.25051e-07
9.7168e-07
-5.78898e-07
1.12619e-06
-6.3838e-07
1.31465e-06
-7.04271e-07
1.54318e-06
-7.77201e-07
1.82356e-06
-8.58314e-07
2.16326e-06
-9.47977e-07
2.58084e-06
-1.04788e-06
3.08527e-06
-1.1582e-06
3.70323e-06
-1.28158e-06
4.44611e-06
-1.4204e-06
5.34934e-06
-1.58173e-06
6.43303e-06
-1.78182e-06
7.7523e-06
-2.04379e-06
9.39628e-06
1.15551e-05
-2.41223e-06
-2.81401e-10
6.21967e-09
-1.24547e-09
2.04798e-08
-2.99026e-09
3.75918e-08
-5.73264e-09
5.73243e-08
-9.71562e-09
7.77701e-08
-1.50851e-08
9.76806e-08
-2.185e-08
1.15894e-07
-2.98251e-08
1.30253e-07
-3.85993e-08
1.38789e-07
-4.76654e-08
1.41221e-07
-5.66005e-08
1.39032e-07
-6.51525e-08
1.34506e-07
-7.32415e-08
1.29715e-07
-8.09044e-08
1.26021e-07
-8.82407e-08
1.24115e-07
-9.53806e-08
1.24351e-07
-1.02476e-07
1.27038e-07
-1.0971e-07
1.32552e-07
-1.17299e-07
1.41319e-07
-1.25497e-07
1.53678e-07
-1.34577e-07
1.69829e-07
-1.4483e-07
1.8981e-07
-1.56539e-07
2.13522e-07
-1.69976e-07
2.40828e-07
-1.85387e-07
2.71617e-07
-2.02992e-07
3.05849e-07
-2.22976e-07
3.43637e-07
-2.45498e-07
3.85304e-07
-2.70689e-07
4.31449e-07
-2.98678e-07
4.83019e-07
-3.29595e-07
5.41399e-07
-3.63614e-07
6.08459e-07
-4.00939e-07
6.86576e-07
-4.41867e-07
7.78815e-07
-4.86738e-07
8.88687e-07
-5.36e-07
1.02094e-06
-5.90167e-07
1.18036e-06
-6.49802e-07
1.37428e-06
-7.15638e-07
1.60902e-06
-7.8821e-07
1.89613e-06
-8.68547e-07
2.2436e-06
-9.56957e-07
2.66924e-06
-1.05483e-06
3.18315e-06
-1.16244e-06
3.81084e-06
-1.28192e-06
4.56559e-06
-1.41578e-06
5.4832e-06
-1.57028e-06
6.58753e-06
-1.76006e-06
7.94209e-06
-2.00297e-06
9.63919e-06
1.18857e-05
-2.33355e-06
-2.87067e-10
6.50809e-09
-1.27869e-09
2.14738e-08
-3.08627e-09
3.94016e-08
-5.92342e-09
6.01636e-08
-1.0042e-08
8.18906e-08
-1.55938e-08
1.03234e-07
-2.25771e-08
1.22879e-07
-3.07931e-08
1.38472e-07
-3.98184e-08
1.47816e-07
-4.91331e-08
1.50539e-07
-5.83056e-08
1.48207e-07
-6.70813e-08
1.43285e-07
-7.53813e-08
1.38017e-07
-8.32442e-08
1.33886e-07
-9.07717e-08
1.31645e-07
-9.8097e-08
1.31679e-07
-1.05377e-07
1.3432e-07
-1.12801e-07
1.39978e-07
-1.20593e-07
1.49113e-07
-1.29015e-07
1.62102e-07
-1.3835e-07
1.79166e-07
-1.48893e-07
2.00354e-07
-1.60933e-07
2.25564e-07
-1.74745e-07
2.54641e-07
-1.90575e-07
2.8745e-07
-2.08644e-07
3.23918e-07
-2.29131e-07
3.64126e-07
-2.52189e-07
4.08363e-07
-2.77941e-07
4.57203e-07
-3.06507e-07
5.11586e-07
-3.38006e-07
5.729e-07
-3.72599e-07
6.43052e-07
-4.10479e-07
7.24458e-07
-4.51921e-07
8.20256e-07
-4.9725e-07
9.34018e-07
-5.46876e-07
1.07057e-06
-6.01289e-07
1.23477e-06
-6.60987e-07
1.43398e-06
-7.26651e-07
1.67468e-06
-7.98733e-07
1.96822e-06
-8.78136e-07
2.323e-06
-9.65107e-07
2.75621e-06
-1.06076e-06
3.27881e-06
-1.16539e-06
3.91546e-06
-1.28067e-06
4.68087e-06
-1.40908e-06
5.61161e-06
-1.55583e-06
6.73429e-06
-1.73349e-06
8.11975e-06
-1.95552e-06
9.86122e-06
1.21747e-05
-2.24457e-06
-2.9318e-10
6.80263e-09
-1.31291e-09
2.2496e-08
-3.18526e-09
4.12763e-08
-6.11973e-09
6.31001e-08
-1.03766e-08
8.61495e-08
-1.6115e-08
1.08975e-07
-2.33225e-08
1.30088e-07
-3.17858e-08
1.46938e-07
-4.10683e-08
1.57101e-07
-5.06374e-08
1.60111e-07
-6.00525e-08
1.57625e-07
-6.90566e-08
1.52291e-07
-7.75714e-08
1.46534e-07
-8.56377e-08
1.41955e-07
-9.33592e-08
1.39369e-07
-1.00872e-07
1.39194e-07
-1.08338e-07
1.41789e-07
-1.15954e-07
1.47595e-07
-1.23951e-07
1.57113e-07
-1.326e-07
1.70752e-07
-1.42192e-07
1.88759e-07
-1.53028e-07
2.11191e-07
-1.65402e-07
2.3794e-07
-1.79593e-07
2.68833e-07
-1.95846e-07
3.03705e-07
-2.1438e-07
3.42453e-07
-2.35371e-07
3.85119e-07
-2.58963e-07
4.31957e-07
-2.85272e-07
4.83514e-07
-3.14406e-07
5.4072e-07
-3.46471e-07
6.04967e-07
-3.81614e-07
6.78196e-07