/*--------------------------------*- C++ -*----------------------------------*\
  =========                 |
  \\      /  F ield         | OpenFOAM: The Open Source CFD Toolbox
   \\    /   O peration     | Website:  https://openfoam.org
    \\  /    A nd           | Version:  7
     \\/     M anipulation  |
\*---------------------------------------------------------------------------*/
FoamFile
{
    version     2.0;
    format      ascii;
    class       volScalarField;
    location    "0.44";
    object      nut;
}
// * * * * * * * * * * * * * * * * * * * * * * * * * * * * * * * * * * * * * //

dimensions      [0 2 -1 0 0 0 0];

internalField   nonuniform List<scalar> 
70000
(
9.96291e-12
6.88109e-14
2.56317e-16
8.61968e-17
4.78871e-17
7.87099e-17
2.76488e-17
1.29245e-17
8.75991e-18
6.39091e-18
4.67982e-18
3.48557e-18
2.65555e-18
2.06442e-18
1.63227e-18
1.3093e-18
1.06327e-18
8.72802e-19
7.23084e-19
6.03769e-19
5.07551e-19
4.28965e-19
3.64158e-19
3.10162e-19
2.64738e-19
2.2624e-19
1.93216e-19
1.64936e-19
1.40082e-19
1.18861e-19
9.95615e-20
8.34127e-20
6.81332e-20
5.58698e-20
4.38951e-20
3.46514e-20
2.6121e-20
1.86953e-20
1.48908e-20
7.06206e-21
1.17691e-20
2.90214e-22
4.55316e-20
3.07368e-20
1.43437e-18
5.80079e-18
9.71564e-17
5.11708e-16
5.27352e-15
1.6507e-12
1.04279e-10
5.98708e-12
6.44426e-14
2.14349e-14
2.89337e-16
1.70192e-17
2.52812e-17
2.12264e-17
1.23366e-17
7.34518e-18
4.81692e-18
3.36006e-18
2.43349e-18
1.81306e-18
1.38321e-18
1.07692e-18
8.53292e-19
6.86391e-19
5.5942e-19
4.61199e-19
3.83984e-19
3.22537e-19
2.72974e-19
2.32561e-19
1.99321e-19
1.71637e-19
1.48577e-19
1.28873e-19
1.12511e-19
9.79324e-20
8.62333e-20
7.50913e-20
6.67238e-20
5.79571e-20
5.17811e-20
4.51156e-20
3.93275e-20
3.64181e-20
2.65636e-20
3.5143e-20
9.66896e-21
7.26928e-20
2.89044e-22
8.29639e-19
1.59776e-18
3.58398e-17
2.03624e-16
2.48648e-15
1.94779e-14
2.61852e-13
3.192e-10
3.3973e-12
1.90876e-13
1.99099e-14
7.69415e-16
5.89581e-17
7.45605e-18
4.28344e-18
2.19422e-18
1.09966e-18
6.16249e-19
3.81883e-19
2.51878e-19
1.7327e-19
1.23271e-19
9.03242e-20
6.79752e-20
5.2413e-20
4.13355e-20
3.32976e-20
2.73606e-20
2.29319e-20
1.95887e-20
1.70584e-20
1.51631e-20
1.37569e-20
1.27902e-20
1.21459e-20
1.19104e-20
1.18951e-20
1.24036e-20
1.30856e-20
1.44941e-20
1.60959e-20
1.85972e-20
2.16644e-20
2.4747e-20
3.05325e-20
2.99319e-20
4.38385e-20
2.30561e-20
8.92096e-20
1.20519e-20
1.0333e-18
2.61524e-18
5.16513e-17
2.95286e-16
3.59709e-15
1.34909e-14
2.19574e-13
6.15382e-09
1.92729e-11
7.84003e-13
6.11108e-14
5.5051e-15
9.35169e-16
1.1231e-16
3.02661e-17
1.27787e-17
5.74916e-18
2.74024e-18
1.44249e-18
8.31252e-19
5.11928e-19
3.31684e-19
2.24345e-19
1.57766e-19
1.15071e-19
8.69182e-20
6.79154e-20
5.48673e-20
4.58164e-20
3.95387e-20
3.52747e-20
3.25647e-20
3.11213e-20
3.08091e-20
3.16084e-20
3.35756e-20
3.69176e-20
4.18915e-20
4.90624e-20
5.86608e-20
7.21526e-20
8.88349e-20
1.12888e-19
1.37899e-19
1.77459e-19
2.00101e-19
2.59038e-19
2.24274e-19
3.39767e-19
1.50131e-19
1.12843e-18
3.14194e-18
4.67661e-17
2.89726e-16
3.13827e-15
5.8139e-15
3.11894e-13
2.32278e-09
2.23322e-10
4.45478e-12
3.21889e-13
2.31083e-14
4.43678e-15
7.32516e-16
2.07631e-16
8.56686e-17
3.85298e-17
1.83506e-17
9.53818e-18
5.39438e-18
3.25918e-18
2.07449e-18
1.38036e-18
9.55898e-19
6.86989e-19
5.1143e-19
3.93825e-19
3.13437e-19
2.57686e-19
2.18788e-19
1.91894e-19
1.74017e-19
1.63271e-19
1.58624e-19
1.59731e-19
1.66595e-19
1.80095e-19
2.01114e-19
2.32432e-19
2.74786e-19
3.35574e-19
4.115e-19
5.232e-19
6.43944e-19
8.36456e-19
9.72511e-19
1.27325e-18
1.21294e-18
1.6788e-18
8.91387e-19
2.57626e-18
3.3588e-18
4.59883e-17
2.57859e-16
2.71899e-15
1.99328e-15
3.58434e-13
3.0123e-09
5.28688e-09
4.35924e-11
1.9463e-12
1.08351e-13
1.81322e-14
3.29029e-15
9.67146e-16
3.97291e-16
1.7952e-16
8.5984e-17
4.46058e-17
2.50247e-17
1.4957e-17
9.40857e-18
6.18459e-18
4.23021e-18
3.00234e-18
2.20675e-18
1.6772e-18
1.31687e-18
1.06741e-18
8.92925e-19
7.71031e-19
6.878e-19
6.34335e-19
6.0545e-19
5.98727e-19
6.1333e-19
6.51431e-19
7.15436e-19
8.14062e-19
9.49705e-19
1.14641e-18
1.39489e-18
1.76233e-18
2.17009e-18
2.81967e-18
3.32689e-18
4.38257e-18
4.3873e-18
5.95418e-18
3.66917e-18
6.84788e-18
4.38447e-18
4.49035e-17
2.0779e-16
2.26919e-15
3.39059e-16
3.76902e-13
1.07679e-09
4.76486e-09
3.72028e-09
1.85165e-11
6.73061e-13
9.23493e-14
1.53904e-14
4.2252e-15
1.64473e-15
7.23607e-16
3.41906e-16
1.75374e-16
9.72495e-17
5.74427e-17
3.57107e-17
2.31992e-17
1.56814e-17
1.09973e-17
7.98511e-18
5.99353e-18
4.64538e-18
3.71501e-18
3.06425e-18
2.60704e-18
2.28954e-18
2.07714e-18
1.94883e-18
1.89327e-18
1.90484e-18
1.98701e-18
2.14427e-18
2.39882e-18
2.75623e-18
3.27977e-18
3.94727e-18
4.93359e-18
6.04935e-18
7.80797e-18
9.27783e-18
1.21701e-17
1.26057e-17
1.67341e-17
1.16474e-17
1.69803e-17
8.03509e-18
4.22666e-17
1.51745e-16
1.87471e-15
2.77173e-18
3.80051e-13
2.42808e-09
3.86932e-09
8.22372e-10
2.42277e-09
8.63675e-12
7.18204e-13
9.17611e-14
2.10961e-14
7.30143e-15
2.97782e-15
1.33619e-15
6.59536e-16
3.54879e-16
2.04566e-16
1.24596e-16
7.95139e-17
5.28924e-17
3.65464e-17
2.61646e-17
1.9372e-17
1.48128e-17
1.16859e-17
9.50612e-18
7.97274e-18
6.89791e-18
6.16084e-18
5.68636e-18
5.43068e-18
5.3689e-18
5.5013e-18
5.83254e-18
6.41112e-18
7.24766e-18
8.48766e-18
1.00838e-17
1.2433e-17
1.51311e-17
1.93129e-17
2.29941e-17
2.98243e-17
3.16509e-17
4.08744e-17
3.12593e-17
3.86572e-17
1.76906e-17
3.82065e-17
1.02626e-16
1.66708e-15
1.82145e-16
3.85966e-13
3.36969e-09
4.36996e-09
5.90834e-10
2.99869e-10
5.48602e-10
1.8688e-11
9.71374e-13
1.4871e-13
4.09641e-14
1.44451e-14
5.84759e-15
2.67154e-15
1.35418e-15
7.44701e-16
4.36665e-16
2.70047e-16
1.7492e-16
1.18109e-16
8.28487e-17
6.0216e-17
4.5262e-17
3.51338e-17
2.81366e-17
2.32371e-17
1.97956e-17
1.74035e-17
1.58047e-17
1.48429e-17
1.44235e-17
1.45205e-17
1.51253e-17
1.63317e-17
1.81547e-17
2.09034e-17
2.44805e-17
2.97213e-17
3.58127e-17
4.50723e-17
5.35525e-17
6.8398e-17
7.37587e-17
9.24819e-17
7.57078e-17
8.3352e-17
3.97844e-17
3.48188e-17
6.51594e-17
1.74295e-15
1.77576e-15
4.09923e-13
3.41121e-09
4.60711e-09
6.72277e-10
1.93393e-10
4.71424e-11
6.7392e-11
3.16377e-10
2.89198e-12
4.04839e-13
1.02322e-13
3.36484e-14
1.32929e-14
6.05104e-15
3.0637e-15
1.68261e-15
9.86729e-16
6.1163e-16
3.97947e-16
2.70407e-16
1.91167e-16
1.4021e-16
1.06455e-16
8.35422e-17
6.7698e-17
5.66348e-17
4.89184e-17
4.36521e-17
4.02787e-17
3.84504e-17
3.80155e-17
3.88891e-17
4.12294e-17
4.50345e-17
5.09381e-17
5.87264e-17
7.01092e-17
8.34555e-17
1.0336e-16
1.22107e-16
1.532e-16
1.66644e-16
2.0285e-16
1.73942e-16
1.75881e-16
8.79544e-17
3.54623e-17
3.86964e-17
2.21154e-15
6.81783e-15
4.67666e-13
3.21206e-09
4.39072e-09
7.73329e-10
2.01928e-10
3.65624e-11
2.18674e-11
1.35584e-11
2.12957e-11
1.65404e-10
2.38422e-12
3.82781e-13
1.05065e-13
3.80681e-14
1.64412e-14
8.02247e-15
4.29139e-15
2.47101e-15
1.51333e-15
9.77572e-16
6.62016e-16
4.67883e-16
3.43924e-16
2.62263e-16
2.07105e-16
1.69209e-16
1.42962e-16
1.2492e-16
1.12944e-16
1.0569e-16
1.02449e-16
1.02775e-16
1.06848e-16
1.14525e-16
1.2709e-16
1.44001e-16
1.68792e-16
1.98029e-16
2.40919e-16
2.82e-16
3.46912e-16
3.78193e-16
4.46936e-16
3.94915e-16
3.7332e-16
1.93976e-16
4.402e-17
2.22898e-17
3.33303e-15
1.88249e-14
5.8824e-13
3.01767e-09
3.97219e-09
8.45878e-10
2.12769e-10
3.8827e-11
2.01771e-11
8.70265e-12
4.6934e-12
4.32459e-12
7.09163e-12
8.14645e-11
5.61577e-12
6.40814e-13
1.67852e-13
6.10903e-14
2.68264e-14
1.33771e-14
7.33593e-15
4.3401e-15
2.73548e-15
1.82095e-15
1.27227e-15
9.28726e-16
7.05981e-16
5.57652e-16
4.5705e-16
3.88407e-16
3.4218e-16
3.12433e-16
2.95789e-16
2.90038e-16
2.94865e-16
3.09324e-16
3.35995e-16
3.73211e-16
4.28578e-16
4.94174e-16
5.89248e-16
6.80893e-16
8.19564e-16
8.90239e-16
1.02064e-15
9.17561e-16
8.18723e-16
4.3649e-16
6.83948e-17
1.52032e-17
5.74978e-15
4.53944e-14
8.26762e-13
2.8463e-09
3.51206e-09
9.07433e-10
2.1016e-10
4.23374e-11
2.17174e-11
9.12792e-12
4.00086e-12
2.55099e-12
2.00641e-12
1.84691e-12
2.20724e-12
4.55548e-12
8.60349e-11
3.46269e-12
5.05879e-13
1.52286e-13
6.17116e-14
2.97204e-14
1.61096e-14
9.54766e-15
6.08032e-15
4.11407e-15
2.93499e-15
2.19624e-15
1.71756e-15
1.40046e-15
1.18883e-15
1.04934e-15
9.62745e-16
9.1663e-16
9.06136e-16
9.25651e-16
9.79848e-16
1.06246e-15
1.19087e-15
1.34417e-15
1.56566e-15
1.77833e-15
2.08809e-15
2.24696e-15
2.49487e-15
2.2571e-15
1.91158e-15
1.02965e-15
1.31186e-16
1.84844e-17
1.10863e-14
1.05249e-13
1.30581e-12
2.67633e-09
3.05638e-09
9.7632e-10
1.98973e-10
4.55084e-11
2.31914e-11
1.03973e-11
4.31862e-12
2.49879e-12
1.69948e-12
1.22644e-12
9.57531e-13
8.39808e-13
8.51811e-13
1.05375e-12
1.83751e-12
8.10192e-12
1.96798e-11
1.05889e-12
2.71835e-13
1.07085e-13
5.2358e-14
2.9369e-14
1.81941e-14
1.21871e-14
8.71287e-15
6.59322e-15
5.25241e-15
4.38716e-15
3.8332e-15
3.49254e-15
3.31641e-15
3.26465e-15
3.33756e-15
3.50449e-15
3.80719e-15
4.17888e-15
4.72735e-15
5.24616e-15
5.98018e-15
6.33267e-15
6.78783e-15
6.1154e-15
4.92819e-15
2.64053e-15
3.02151e-16
4.51139e-17
2.38844e-14
2.49244e-13
2.32655e-12
2.4979e-09
2.62134e-09
1.05604e-09
1.84853e-10
4.88234e-11
2.41054e-11
1.18143e-11
4.85421e-12
2.7297e-12
1.79711e-12
1.22285e-12
8.62384e-13
6.47529e-13
5.20844e-13
4.48976e-13
4.17415e-13
4.24741e-13
4.85758e-13
6.57092e-13
1.18295e-12
4.21395e-12
9.83419e-11
1.79613e-12
4.36554e-13
1.7946e-13
9.41432e-14
5.73375e-14
3.88295e-14
2.85579e-14
2.25037e-14
1.8809e-14
1.65888e-14
1.53124e-14
1.47824e-14
1.47492e-14
1.52836e-14
1.60875e-14
1.74646e-14
1.87282e-14
2.05353e-14
2.11869e-14
2.17817e-14
1.93095e-14
1.47907e-14
7.75161e-15
8.39635e-16
1.61482e-16
5.8824e-14
6.33452e-13
4.7211e-12
2.31159e-09
2.22095e-09
1.14127e-09
1.70426e-10
5.27504e-11
2.45926e-11
1.3281e-11
5.45976e-12
3.03095e-12
1.99324e-12
1.34751e-12
9.26869e-13
6.65787e-13
5.01777e-13
3.94872e-13
3.23882e-13
2.77396e-13
2.49e-13
2.35434e-13
2.36079e-13
2.53494e-13
2.95803e-13
3.8431e-13
5.81561e-13
1.13231e-12
3.83738e-12
1.21437e-10
4.37603e-12
1.03084e-12
4.57887e-13
2.66942e-13
1.82911e-13
1.39753e-13
1.16276e-13
1.02847e-13
9.62935e-14
9.30719e-14
9.36119e-14
9.41763e-14
9.69552e-14
9.53198e-14
9.2437e-14
7.90354e-14
5.70283e-14
2.86099e-14
3.0181e-15
7.04621e-16
1.74117e-13
1.83214e-12
1.12048e-11
2.1197e-09
1.86145e-09
1.22469e-09
1.5673e-10
5.73326e-11
2.47815e-11
1.48233e-11
6.13443e-12
3.36359e-12
2.22268e-12
1.51561e-12
1.04157e-12
7.4072e-13
5.48421e-13
4.20109e-13
3.31623e-13
2.69662e-13
2.26153e-13
1.95929e-13
1.75667e-13
1.63328e-13
1.57828e-13
1.58919e-13
1.67263e-13
1.84781e-13
2.15452e-13
2.67269e-13
3.56968e-13
5.22854e-13
8.67924e-13
1.73907e-12
4.92485e-12
3.31317e-11
6.98199e-11
8.49584e-12
3.50791e-12
2.0956e-12
1.5183e-12
1.20346e-12
1.02507e-12
8.70764e-13
7.39492e-13
5.71317e-13
3.70566e-13
1.69256e-13
1.72298e-14
4.0698e-15
7.04322e-13
6.74485e-12
3.33279e-11
1.92389e-09
1.54326e-09
1.29971e-09
1.44535e-10
6.23242e-11
2.47402e-11
1.64442e-11
6.90443e-12
3.73212e-12
2.47574e-12
1.70852e-12
1.18119e-12
8.40301e-13
6.20592e-13
4.72737e-13
3.69461e-13
2.95858e-13
2.42856e-13
2.04521e-13
1.76871e-13
1.57235e-13
1.43823e-13
1.35477e-13
1.31533e-13
1.31738e-13
1.36245e-13
1.45645e-13
1.61167e-13
1.84819e-13
2.20115e-13
2.72557e-13
3.52047e-13
4.74468e-13
6.70907e-13
9.94415e-13
1.56131e-12
2.59389e-12
4.66876e-12
9.18541e-12
2.10595e-11
5.74279e-11
6.42059e-10
2.05544e-10
3.43188e-11
7.25254e-12
4.59158e-13
6.91521e-14
6.6919e-12
4.48381e-11
1.50182e-10
1.72636e-09
1.26624e-09
1.36065e-09
1.3473e-10
6.73212e-11
2.45377e-11
1.81081e-11
7.79244e-12
4.14719e-12
2.75594e-12
1.92582e-12
1.34212e-12
9.57624e-13
7.08417e-13
5.40171e-13
4.21953e-13
3.37019e-13
2.75264e-13
2.30034e-13
1.96812e-13
1.72515e-13
1.55017e-13
1.4286e-13
1.35083e-13
1.31095e-13
1.30622e-13
1.33653e-13
1.40501e-13
1.51742e-13
1.68488e-13
1.92214e-13
2.25502e-13
2.71415e-13
3.35535e-13
4.23685e-13
5.47408e-13
7.15712e-13
9.49737e-13
1.25463e-12
1.65523e-12
2.11424e-12
2.59427e-12
2.91367e-12
2.75672e-12
1.90096e-12
4.05824e-13
8.822e-14
4.13514e-11
8.94694e-10
6.85146e-12
1.52989e-09
1.03009e-09
1.40263e-09
1.2826e-10
7.18012e-11
2.42735e-11
1.97539e-11
8.81665e-12
4.61846e-12
3.06803e-12
2.1708e-12
1.52682e-12
1.09349e-12
8.10972e-13
6.20011e-13
4.85411e-13
3.88265e-13
3.17294e-13
2.65057e-13
2.26457e-13
1.97987e-13
1.7721e-13
1.62428e-13
1.52488e-13
1.46635e-13
1.44439e-13
1.45723e-13
1.506e-13
1.59374e-13
1.7276e-13
1.91654e-13
2.17689e-13
2.52561e-13
2.99436e-13
3.60931e-13
4.42503e-13
5.46463e-13
6.80001e-13
8.38773e-13
1.02382e-12
1.20495e-12
1.34569e-12
1.3659e-12
1.15149e-12
6.91216e-13
1.3827e-13
1.16029e-14
3.59408e-12
5.6017e-11
2.50055e-10
1.33743e-09
8.33599e-10
1.42162e-09
1.26019e-10
7.51657e-11
2.4077e-11
2.13047e-11
9.99255e-12
5.1557e-12
3.41648e-12
2.44678e-12
1.73891e-12
1.25082e-12
9.3017e-13
7.13281e-13
5.60092e-13
4.49152e-13
3.6786e-13
3.07893e-13
2.63509e-13
2.30727e-13
2.06768e-13
1.89681e-13
1.78133e-13
1.7123e-13
1.68443e-13
1.69513e-13
1.74489e-13
1.83606e-13
1.97507e-13
2.16978e-13
2.43475e-13
2.78453e-13
3.24563e-13
3.8385e-13
4.60393e-13
5.55427e-13
6.72997e-13
8.07993e-13
9.56414e-13
1.0926e-12
1.18077e-12
1.16175e-12
9.54741e-13
5.63572e-13
1.27957e-13
3.47165e-15
1.3517e-12
1.86124e-11
6.7497e-11
1.15193e-09
6.74485e-10
1.41475e-09
1.28796e-10
7.68536e-11
2.40916e-11
2.2677e-11
1.13316e-11
5.77002e-12
3.80605e-12
2.75683e-12
1.98215e-12
1.43312e-12
1.06878e-12
8.22123e-13
6.47641e-13
5.20882e-13
4.27751e-13
3.58959e-13
3.0804e-13
2.70479e-13
2.4311e-13
2.23704e-13
2.10731e-13
2.03162e-13
2.00377e-13
2.02066e-13
2.08261e-13
2.19201e-13
2.3556e-13
2.58179e-13
2.88567e-13
3.28259e-13
3.79882e-13
4.45524e-13
5.28865e-13
6.31019e-13
7.54604e-13
8.94286e-13
1.0428e-12
1.17522e-12
1.25255e-12
1.21937e-12
1.0027e-12
6.04696e-13
1.64156e-13
2.08708e-15
5.91089e-13
8.00652e-12
2.14134e-11
9.76306e-10
5.4941e-10
1.38062e-09
1.37262e-10
7.64825e-11
2.44498e-11
2.37922e-11
1.2838e-11
6.4744e-12
4.24234e-12
3.104e-12
2.26036e-12
1.64425e-12
1.22998e-12
9.49138e-13
7.50249e-13
6.05309e-13
4.98525e-13
4.19551e-13
3.61123e-13
3.18121e-13
2.86943e-13
2.65044e-13
2.50676e-13
2.42663e-13
2.40297e-13
2.43227e-13
2.51489e-13
2.65368e-13
2.85625e-13
3.13241e-13
3.49893e-13
3.97359e-13
4.58455e-13
5.35582e-13
6.32382e-13
7.50194e-13
8.90692e-13
1.04835e-12
1.2129e-12
1.35832e-12
1.44067e-12
1.40183e-12
1.16902e-12
7.36426e-13
2.44665e-13
7.44114e-15
2.01309e-13
3.00555e-12
4.9931e-12
8.13253e-10
4.54225e-10
1.31959e-09
1.51934e-10
7.39199e-11
2.52508e-11
2.45895e-11
1.45047e-11
7.28382e-12
4.73195e-12
3.49148e-12
2.57742e-12
1.88842e-12
1.41735e-12
1.09728e-12
8.7045e-13
7.04651e-13
5.82133e-13
4.91405e-13
4.24323e-13
3.75091e-13
3.3961e-13
3.14978e-13
2.99201e-13
2.90939e-13
2.89393e-13
2.94174e-13
3.05339e-13
3.23243e-13
3.48774e-13
3.83116e-13
4.28188e-13
4.8613e-13
5.60071e-13
6.52903e-13
7.6841e-13
9.08348e-13
1.07364e-12
1.25857e-12
1.44987e-12
1.61952e-12
1.71791e-12
1.68128e-12
1.4337e-12
9.57872e-13
3.91323e-13
3.75151e-14
3.21123e-14
6.86092e-13
3.33035e-13
6.65077e-10
3.84274e-10
1.2339e-09
1.73039e-10
6.93181e-11
2.65441e-11
2.5038e-11
1.63077e-11
8.21505e-12
5.28262e-12
3.92269e-12
2.93718e-12
2.1702e-12
1.63493e-12
1.2699e-12
1.01112e-12
8.21452e-13
6.80852e-13
5.7658e-13
4.99543e-13
4.4319e-13
4.02856e-13
3.75236e-13
3.58058e-13
3.498e-13
3.4956e-13
3.56917e-13
3.71956e-13
3.95128e-13
4.27482e-13
4.70457e-13
5.26283e-13
5.97556e-13
6.87821e-13
8.00601e-13
9.39948e-13
1.10817e-12
1.30557e-12
1.52621e-12
1.75392e-12
1.95827e-12
2.08378e-12
2.06012e-12
1.80658e-12
1.29233e-12
6.45718e-13
1.4342e-13
7.29947e-15
3.86974e-14
3.07966e-14
5.33501e-10
3.34722e-10
1.12755e-09
2.00298e-10
6.31444e-11
2.83051e-11
2.51472e-11
1.82024e-11
9.28585e-12
5.90327e-12
4.40147e-12
3.34331e-12
2.49442e-12
1.88718e-12
1.47072e-12
1.17549e-12
9.58601e-13
7.97291e-13
6.77464e-13
5.89014e-13
5.24552e-13
4.78779e-13
4.47931e-13
4.29425e-13
4.21535e-13
4.23246e-13
4.34107e-13
4.54239e-13
4.84214e-13
5.25271e-13
5.79165e-13
6.485e-13
7.36425e-13
8.47001e-13
9.84511e-13
1.1534e-12
1.35664e-12
1.59405e-12
1.85951e-12
2.13414e-12
2.38506e-12
2.55121e-12
2.55636e-12
2.31411e-12
1.78245e-12
1.07356e-12
4.2973e-13
1.23206e-13
1.18407e-13
2.03788e-12
4.19535e-10
3.00791e-10
1.00613e-09
2.32634e-10
5.61606e-11
3.0405e-11
2.49731e-11
2.01221e-11
1.05133e-11
6.60403e-12
4.93224e-12
3.79926e-12
2.86603e-12
2.17901e-12
1.70393e-12
1.36717e-12
1.11934e-12
9.34413e-13
7.96793e-13
6.95309e-13
6.21663e-13
5.69845e-13
5.35575e-13
5.15917e-13
5.08922e-13
5.13451e-13
5.29022e-13
5.55806e-13
5.94518e-13
6.46624e-13
7.14253e-13
8.00455e-13
9.09037e-13
1.04469e-12
1.21259e-12
1.41772e-12
1.66386e-12
1.95049e-12
2.2715e-12
2.60557e-12
2.91791e-12
3.14255e-12
3.19955e-12
2.99796e-12
2.48991e-12
1.77534e-12
1.07634e-12
7.55983e-13
1.43734e-12
1.03564e-11
3.23397e-10
2.77941e-10
8.76969e-10
2.67835e-10
4.93587e-11
3.26012e-11
2.46134e-11
2.19817e-11
1.19111e-11
7.3963e-12
5.52013e-12
4.30814e-12
3.28993e-12
2.51569e-12
1.97412e-12
1.59014e-12
1.30728e-12
1.09554e-12
9.37668e-13
8.21374e-13
7.37394e-13
6.78926e-13
6.41113e-13
6.20627e-13
6.15272e-13
6.23775e-13
6.45626e-13
6.81055e-13
7.30945e-13
7.97031e-13
8.81878e-13
9.89068e-13
1.12318e-12
1.28966e-12
1.49475e-12
1.74412e-12
2.04256e-12
2.38946e-12
2.77905e-12
3.18804e-12
3.58091e-12
3.88813e-12
4.03003e-12
3.91445e-12
3.50097e-12
2.89198e-12
2.35911e-12
2.55382e-12
5.83579e-12
2.74347e-11
2.44429e-10
2.6221e-10
7.48787e-10
3.02424e-10
4.37889e-11
3.45756e-11
2.41934e-11
2.36854e-11
1.3486e-11
8.29277e-12
6.17125e-12
4.87274e-12
3.77074e-12
2.90276e-12
2.28625e-12
1.84874e-12
1.52637e-12
1.28437e-12
1.10357e-12
9.70544e-13
8.7502e-13
8.0933e-13
7.6797e-13
7.47181e-13
7.44497e-13
7.585e-13
7.88655e-13
8.35261e-13
8.99398e-13
9.83106e-13
1.08946e-12
1.22267e-12
1.3882e-12
1.59245e-12
1.84286e-12
2.14603e-12
2.50803e-12
2.92848e-12
3.40253e-12
3.90576e-12
4.40374e-12
4.82575e-12
5.09885e-12
5.13606e-12
4.92879e-12
4.61158e-12
4.6478e-12
6.34784e-12
1.48791e-11
5.42006e-11
1.8124e-10
2.50347e-10
6.28867e-10
3.32286e-10
4.02682e-11
3.5985e-11
2.3846e-11
2.51384e-11
1.52324e-11
9.30717e-12
6.8926e-12
5.49566e-12
4.31249e-12
3.34582e-12
2.64564e-12
2.14761e-12
1.78085e-12
1.50491e-12
1.29832e-12
1.14654e-12
1.03824e-12
9.64822e-13
9.20083e-13
8.99784e-13
9.01168e-13
9.22662e-13
9.63708e-13
1.02469e-12
1.10689e-12
1.21272e-12
1.34583e-12
1.51115e-12
1.7152e-12
1.96547e-12
2.27087e-12
2.63917e-12
3.07808e-12
3.58797e-12
4.16574e-12
4.78715e-12
5.42173e-12
6.00048e-12
6.46828e-12
6.75206e-12
6.91076e-12
7.18073e-12
8.37006e-12
1.29976e-11
2.97491e-11
8.95727e-11
1.32011e-10
2.39546e-10
5.20979e-10
3.53784e-10
3.92383e-11
3.65168e-11
2.36847e-11
2.62665e-11
1.7126e-11
1.04533e-11
7.692e-12
6.17938e-12
4.91839e-12
3.85027e-12
3.0578e-12
2.49167e-12
2.07522e-12
1.76147e-12
1.52612e-12
1.35346e-12
1.23115e-12
1.14963e-12
1.10192e-12
1.08325e-12
1.09056e-12
1.12211e-12
1.17733e-12
1.25667e-12
1.36167e-12
1.49512e-12
1.66132e-12
1.86607e-12
2.11706e-12
2.42311e-12
2.79485e-12
3.24156e-12
3.7731e-12
4.39119e-12
5.09591e-12
5.86464e-12
6.67527e-12
7.4657e-12
8.20894e-12
8.87032e-12
9.60909e-12
1.08613e-11
1.40387e-11
2.31324e-11
5.07021e-11
1.31133e-10
9.46481e-11
2.27584e-10
4.26645e-10
3.64556e-10
4.08671e-11
3.60024e-11
2.37751e-11
2.7033e-11
1.91221e-11
1.1744e-11
8.57799e-12
6.92658e-12
5.59065e-12
4.42104e-12
3.52832e-12
2.88599e-12
2.41416e-12
2.05855e-12
1.79139e-12
1.59572e-12
1.45827e-12
1.36846e-12
1.31849e-12
1.30303e-12
1.3187e-12
1.36358e-12
1.43706e-12
1.5397e-12
1.67328e-12
1.84101e-12
2.04792e-12
2.30075e-12
2.60858e-12
2.98179e-12
3.43303e-12
3.97352e-12
4.61588e-12
5.36414e-12
6.22318e-12
7.17462e-12
8.20937e-12
9.28028e-12
1.04042e-11
1.16039e-11
1.32115e-11
1.59327e-11
2.20548e-11
3.71193e-11
7.73174e-11
1.77806e-10
6.69555e-11
2.13179e-10
3.46438e-10
3.63723e-10
4.51551e-11
3.45128e-11
2.41193e-11
2.7448e-11
2.11554e-11
1.31892e-11
9.55971e-12
7.74051e-12
6.3305e-12
5.06233e-12
4.0627e-12
3.33577e-12
2.80246e-12
2.40083e-12
2.09881e-12
1.87807e-12
1.72445e-12
1.62642e-12
1.57531e-12
1.5652e-12
1.59235e-12
1.65467e-12
1.75151e-12
1.8835e-12
2.05265e-12
2.26263e-12
2.51923e-12
2.8303e-12
3.20644e-12
3.65988e-12
4.20565e-12
4.8574e-12
5.6314e-12
6.53504e-12
7.58029e-12
8.75624e-12
1.0073e-11
1.15074e-11
1.31424e-11
1.5076e-11
1.78991e-11
2.26636e-11
3.26603e-11
5.51672e-11
1.09609e-10
2.25314e-10
4.68608e-11
1.95951e-10
2.80089e-10
3.51791e-10
5.18977e-11
3.23372e-11
2.4655e-11
2.75656e-11
2.3145e-11
1.47925e-11
1.06466e-11
8.62513e-12
7.13837e-12
5.77721e-12
4.66611e-12
3.8462e-12
3.24493e-12
2.79301e-12
2.45319e-12
2.20544e-12
2.03486e-12
1.92903e-12
1.87842e-12
1.87646e-12
1.91905e-12
2.00391e-12
2.13033e-12
2.29897e-12
2.51206e-12
2.77371e-12
3.09051e-12
3.47152e-12
3.92906e-12
4.4775e-12
5.13466e-12
5.9173e-12
6.84615e-12
7.93376e-12
9.20156e-12
1.065e-11
1.23173e-11
1.42121e-11
1.65073e-11
1.94224e-11
2.38164e-11
3.12265e-11
4.60854e-11
7.71456e-11
1.44121e-10
2.70961e-10
3.25449e-11
1.76238e-10
2.26532e-10
3.30426e-10
6.05782e-11
2.98944e-11
2.52657e-11
2.74736e-11
2.50033e-11
1.65478e-11
1.18478e-11
9.58521e-12
8.01408e-12
6.56747e-12
5.34309e-12
4.42233e-12
3.74632e-12
3.23978e-12
2.85937e-12
2.58292e-12
2.39491e-12
2.28215e-12
2.23427e-12
2.24406e-12
2.30703e-12
2.42068e-12
2.58419e-12
2.79823e-12
3.06514e-12
3.38944e-12
3.77853e-12
4.24276e-12
4.79637e-12
5.45618e-12
6.24331e-12
7.17831e-12
8.28764e-12
9.59058e-12
1.11215e-11
1.28967e-11
1.4991e-11
1.74583e-11
2.05797e-11
2.47288e-11
3.11244e-11
4.17752e-11
6.20985e-11
1.01912e-10
1.79304e-10
3.1632e-10
2.24981e-11
1.54916e-10
1.84116e-10
3.02087e-10
7.03335e-11
2.76384e-11
2.58048e-11
2.72752e-11
2.66501e-11
1.84347e-11
1.31715e-11
1.06262e-11
8.95735e-12
7.43342e-12
6.09729e-12
5.06891e-12
4.3112e-12
3.74564e-12
3.32209e-12
3.01564e-12
2.81013e-12
2.69187e-12
2.6497e-12
2.67577e-12
2.76516e-12
2.91515e-12
3.12474e-12
3.39447e-12
3.7267e-12
4.12628e-12
4.60134e-12
5.16362e-12
5.82944e-12
6.61844e-12
7.5555e-12
8.6659e-12
9.98305e-12
1.15353e-11
1.33731e-11
1.55349e-11
1.8138e-11
2.13002e-11
2.54306e-11
3.10611e-11
3.98362e-11
5.42467e-11
8.06933e-11
1.2865e-10
2.15035e-10
3.58509e-10
1.55203e-11
1.33216e-10
1.50903e-10
2.69569e-10
8.00355e-11
2.59769e-11
2.6137e-11
2.70674e-11
2.80269e-11
2.04174e-11
1.46235e-11
1.17541e-11
9.96819e-12
8.37398e-12
6.93114e-12
5.79015e-12
4.94392e-12
4.31486e-12
3.84592e-12
3.50861e-12
3.28611e-12
3.16443e-12
3.13179e-12
3.17971e-12
3.30285e-12
3.49818e-12
3.76442e-12
4.10183e-12
4.51261e-12
5.00173e-12
5.57801e-12
6.25457e-12
7.04997e-12
7.98706e-12
9.09498e-12
1.04048e-11
1.19582e-11
1.37952e-11
1.59856e-11
1.85961e-11
2.17965e-11
2.57762e-11
3.10919e-11
3.84714e-11
4.99256e-11
6.83604e-11
1.00705e-10
1.55818e-10
2.49819e-10
3.9594e-10
1.07043e-11
1.12283e-10
1.24961e-10
2.35646e-10
8.84773e-11
2.52036e-11
2.61859e-11
2.69232e-11
2.91078e-11
2.24449e-11
1.62062e-11
1.29751e-11
1.10475e-11
9.3871e-12
7.84572e-12
6.58961e-12
5.64847e-12
4.95143e-12
4.43513e-12
4.06668e-12
3.82836e-12
3.70611e-12
3.68779e-12
3.76432e-12
3.92993e-12
4.18118e-12
4.51635e-12
4.93521e-12
5.43948e-12
6.03405e-12
6.7282e-12
7.53644e-12
8.47969e-12
9.58434e-12
1.08845e-11
1.24179e-11
1.42362e-11
1.63935e-11
1.8983e-11
2.21044e-11
2.5989e-11
3.09075e-11
3.75675e-11
4.69196e-11
6.1296e-11
8.37774e-11
1.21685e-10
1.82964e-10
2.8294e-10
4.28857e-10
7.3955e-12
9.28308e-11
1.04545e-10
2.02691e-10
9.46443e-11
2.54445e-11
2.59535e-11
2.68786e-11
2.99025e-11
2.44552e-11
1.79157e-11
1.42952e-11
1.21972e-11
1.04701e-11
8.84057e-12
7.46993e-12
6.42841e-12
5.65896e-12
5.09362e-12
4.69438e-12
4.44217e-12
4.32312e-12
4.32495e-12
4.43817e-12
4.65648e-12
4.97592e-12
5.39411e-12
5.90997e-12
6.5244e-12
7.2418e-12
8.07167e-12
9.0298e-12
1.01396e-11
1.14313e-11
1.29446e-11
1.47251e-11
1.68357e-11
1.93474e-11
2.23801e-11
2.60721e-11
3.07209e-11
3.66828e-11
4.48458e-11
5.62711e-11
7.36668e-11
1.00308e-10
1.43496e-10
2.09807e-10
3.12689e-10
4.55521e-10
5.12603e-12
7.53196e-11
8.81845e-11
1.72253e-10
9.79273e-11
2.66583e-11
2.55176e-11
2.69289e-11
3.04522e-11
2.63837e-11
1.97398e-11
1.5719e-11
1.342e-11
1.16202e-11
9.91374e-12
8.43254e-12
7.28667e-12
6.44059e-12
5.82481e-12
5.39578e-12
5.13253e-12
5.02142e-12
5.05043e-12
5.20978e-12
5.49264e-12
5.89432e-12
6.41145e-12
7.04166e-12
7.78451e-12
8.64342e-12
9.62772e-12
1.07543e-11
1.20491e-11
1.35466e-11
1.52925e-11
1.73416e-11
1.97695e-11
2.26663e-11
2.61817e-11
3.04961e-11
3.5977e-11
4.3074e-11
5.28101e-11
6.64248e-11
8.68533e-11
1.17315e-10
1.64621e-10
2.34663e-10
3.38679e-10
4.7707e-10
3.56548e-12
6.00864e-11
7.47451e-11
1.45097e-10
9.81775e-11
2.86699e-11
2.50122e-11
2.7042e-11
3.0818e-11
2.81724e-11
2.16565e-11
1.72492e-11
1.47194e-11
1.28351e-11
1.1062e-11
9.4775e-12
8.22541e-12
7.29893e-12
6.63154e-12
6.17439e-12
5.90389e-12
5.80658e-12
5.87104e-12
6.08744e-12
6.44836e-12
6.94814e-12
7.58196e-12
8.34559e-12
9.23654e-12
1.02566e-11
1.14145e-11
1.2728e-11
1.42252e-11
1.59456e-11
1.79413e-11
2.02772e-11
2.30429e-11
2.63502e-11
3.03789e-11
3.5358e-11
4.17174e-11
5.00071e-11
6.13568e-11
7.7174e-11
1.00439e-10
1.34159e-10
1.85339e-10
2.57447e-10
3.6024e-10
4.9328e-10
2.48811e-12
4.72556e-11
6.34218e-11
1.21493e-10
9.56555e-11
3.12006e-11
2.45892e-11
2.71784e-11
3.10682e-11
2.97791e-11
2.36337e-11
1.88852e-11
1.6099e-11
1.41133e-11
1.2281e-11
1.06033e-11
9.24572e-12
8.23592e-12
7.51601e-12
7.03303e-12
6.76005e-12
6.6836e-12
6.7931e-12
7.07896e-12
7.53315e-12
8.14869e-12
8.91871e-12
9.83638e-12
1.08963e-11
1.20978e-11
1.34483e-11
1.49661e-11
1.66817e-11
1.86394e-11
2.08983e-11
2.35345e-11
2.66525e-11
3.03871e-11
3.49503e-11
4.06169e-11
4.78839e-11
5.73741e-11
7.03378e-11
8.82264e-11
1.14016e-10
1.50737e-10
2.04275e-10
2.76937e-10
3.77945e-10
5.04545e-10
1.74108e-12
3.6739e-11
5.36856e-11
1.01386e-10
9.09044e-11
3.39076e-11
2.43788e-11
2.73079e-11
3.12646e-11
3.11828e-11
2.56315e-11
2.06219e-11
1.75618e-11
1.54544e-11
1.35661e-11
1.1807e-11
1.03475e-11
9.2527e-12
8.47971e-12
7.97369e-12
7.704e-12
7.65667e-12
7.82218e-12
8.19145e-12
8.75579e-12
9.50647e-12
1.04338e-11
1.15275e-11
1.2778e-11
1.41814e-11
1.57428e-11
1.74807e-11
1.94278e-11
2.16335e-11
2.41642e-11
2.71081e-11
3.05849e-11
3.47536e-11
3.98572e-11
4.62178e-11
5.43822e-11
6.50608e-11
7.95343e-11
9.93217e-11
1.27294e-10
1.66266e-10
2.20989e-10
2.93513e-10
3.91663e-10
5.11148e-10
1.22086e-12
2.83087e-11
4.5212e-11
8.44962e-11
8.45898e-11
3.64417e-11
2.44636e-11
2.7421e-11
3.14539e-11
3.23851e-11
2.76066e-11
2.24486e-11
1.91097e-11
1.68587e-11
1.49127e-11
1.30841e-11
1.15293e-11
1.03494e-11
9.5233e-12
8.9975e-12
8.73774e-12
8.72904e-12
8.96292e-12
9.43103e-12
1.0124e-11
1.10308e-11
1.21381e-11
1.34306e-11
1.48938e-11
1.6519e-11
1.83084e-11
2.02797e-11
2.24678e-11
2.49273e-11
2.77324e-11
3.09835e-11
3.48158e-11
3.94131e-11
4.50468e-11
5.2082e-11
6.1112e-11
7.28969e-11
8.87507e-11
1.10177e-10
1.39919e-10
1.80092e-10
2.35497e-10
3.07232e-10
4.01263e-10
5.13341e-10
8.57195e-13
2.16683e-11
3.78124e-11
7.04268e-11
7.73667e-11
3.85053e-11
2.48668e-11
2.75317e-11
3.16655e-11
3.34071e-11
2.95172e-11
2.43484e-11
2.07424e-11
1.83272e-11
1.63166e-11
1.44291e-11
1.2788e-11
1.15252e-11
1.06465e-11
1.01046e-11
9.86218e-12
9.90278e-12
1.02187e-11
1.08026e-11
1.16441e-11
1.27294e-11
1.40403e-11
1.55554e-11
1.72532e-11
1.91191e-11
2.11511e-11
2.3366e-11
2.58001e-11
2.85135e-11
3.15881e-11
3.51369e-11
3.93106e-11
4.4316e-11
5.0451e-11
5.81179e-11
6.79428e-11
8.07199e-11
9.77545e-11
1.20513e-10
1.51457e-10
1.92462e-10
2.47481e-10
3.17421e-10
4.07104e-10
5.11454e-10
6.02254e-13
1.65079e-11
3.13737e-11
5.87449e-11
6.97972e-11
3.98945e-11
2.55545e-11
2.76721e-11
3.1914e-11
3.42826e-11
3.13294e-11
2.62985e-11
2.24567e-11
1.98606e-11
1.77742e-11
1.58355e-11
1.41191e-11
1.27776e-11
1.1848e-11
1.12939e-11
1.10769e-11
1.11786e-11
1.15916e-11
1.23093e-11
1.33207e-11
1.46081e-11
1.61472e-11
1.79085e-11
1.98622e-11
2.1986e-11
2.42726e-11
2.67368e-11
2.94164e-11
3.23769e-11
3.57078e-11
3.95349e-11
4.40228e-11
4.94012e-11
5.59876e-11
6.42199e-11
7.47324e-11
8.83505e-11
1.06338e-10
1.30018e-10
1.61738e-10
2.03034e-10
2.57039e-10
3.2425e-10
4.08875e-10
5.05797e-10
4.23195e-13
1.25382e-11
2.58168e-11
4.9041e-11
6.23067e-11
4.05169e-11
2.64463e-11
2.78804e-11
3.22048e-11
3.50511e-11
3.30205e-11
2.82716e-11
2.42457e-11
2.14589e-11
1.92827e-11
1.72967e-11
1.55163e-11
1.41028e-11
1.31251e-11
1.25633e-11
1.23802e-11
1.25555e-11
1.30816e-11
1.39527e-11
1.51562e-11
1.667e-11
1.84622e-11
2.04934e-11
2.27229e-11
2.51194e-11
2.76688e-11
3.03833e-11
3.33018e-11
3.64948e-11
4.00597e-11
4.41343e-11
4.88964e-11
5.45953e-11
6.1566e-11
7.02648e-11
8.13441e-11
9.55995e-11
1.14261e-10
1.38548e-10
1.70497e-10
2.11368e-10
2.6382e-10
3.27892e-10
4.07186e-10
4.96728e-10
2.97331e-13
9.50613e-12
2.10756e-11
4.09591e-11
5.51757e-11
4.03821e-11
2.74317e-11
2.81848e-11
3.25394e-11
3.57503e-11
3.45811e-11
3.02385e-11
2.6098e-11
2.31204e-11
2.08394e-11
1.88056e-11
1.69721e-11
1.54952e-11
1.44738e-11
1.3909e-11
1.37687e-11
1.40308e-11
1.46872e-11
1.57319e-11
1.71506e-11
1.89158e-11
2.0986e-11
2.33095e-11
2.58331e-11
2.8514e-11
3.13301e-11
3.42902e-11
3.74338e-11
4.08366e-11
4.46032e-11
4.88831e-11
5.38657e-11
5.9817e-11
6.7082e-11
7.61364e-11
8.76108e-11
1.0231e-10
1.21338e-10
1.45845e-10
1.77523e-10
2.175e-10
2.67971e-10
3.28442e-10
4.02164e-10
4.84486e-10
2.08887e-13
7.19942e-12
1.70853e-11
3.42056e-11
4.85656e-11
3.95739e-11
2.83923e-11
2.85964e-11
3.29196e-11
3.64124e-11
3.6014e-11
3.21707e-11
2.79982e-11
2.48409e-11
2.24417e-11
2.03556e-11
1.84778e-11
1.69473e-11
1.58882e-11
1.5326e-11
1.52374e-11
1.55998e-11
1.64041e-11
1.76436e-11
1.93012e-11
2.13427e-11
2.3715e-11
2.63522e-11
2.91856e-11
3.21589e-11
3.52406e-11
3.84353e-11
4.17829e-11
4.53638e-11
4.929e-11
5.37212e-11
5.88572e-11
6.49767e-11
7.24307e-11
8.17019e-11
9.33985e-11
1.08301e-10
1.27402e-10
1.51735e-10
1.82784e-10
2.21289e-10
2.69288e-10
3.26097e-10
3.94152e-10
4.69407e-10
1.46808e-13
5.44773e-12
1.377e-11
2.85466e-11
4.25533e-11
3.8217e-11
2.92222e-11
2.9107e-11
3.33493e-11
3.70627e-11
3.73314e-11
3.40443e-11
2.99274e-11
2.66135e-11
2.40862e-11
2.19401e-11