/*--------------------------------*- C++ -*----------------------------------*\
  =========                 |
  \\      /  F ield         | OpenFOAM: The Open Source CFD Toolbox
   \\    /   O peration     | Website:  https://openfoam.org
    \\  /    A nd           | Version:  7
     \\/     M anipulation  |
\*---------------------------------------------------------------------------*/
FoamFile
{
    version     2.0;
    format      ascii;
    class       surfaceScalarField;
    location    "0.44";
    object      phi;
}
// * * * * * * * * * * * * * * * * * * * * * * * * * * * * * * * * * * * * * //

dimensions      [0 3 -1 0 0 0 0];

internalField   nonuniform List<scalar> 
139350
(
6.4512e-08
9.21195e-08
3.19644e-08
3.25476e-08
2.30589e-08
8.9055e-09
1.95739e-08
3.48497e-09
1.76218e-08
1.9521e-09
1.61914e-08
1.43041e-09
1.50583e-08
1.13319e-09
1.41456e-08
9.12672e-10
1.33947e-08
7.50848e-10
1.27624e-08
6.3235e-10
1.22198e-08
5.42629e-10
1.17475e-08
4.72217e-10
1.1332e-08
4.15512e-10
1.0963e-08
3.68993e-10
1.06328e-08
3.30258e-10
1.03352e-08
2.97588e-10
1.00655e-08
2.69718e-10
9.81977e-09
2.457e-10
9.59496e-09
2.24809e-10
9.38847e-09
2.06483e-10
9.19819e-09
1.90282e-10
9.02234e-09
1.75851e-10
8.85943e-09
1.6291e-10
8.70821e-09
1.51225e-10
8.5676e-09
1.40608e-10
8.4367e-09
1.30899e-10
8.31473e-09
1.21964e-10
8.20104e-09
1.13691e-10
8.09506e-09
1.05979e-10
7.99631e-09
9.87517e-11
7.90439e-09
9.19237e-11
7.81894e-09
8.54523e-11
7.73968e-09
7.9255e-11
7.66634e-09
7.33433e-11
7.59873e-09
6.76088e-11
7.53656e-09
6.21644e-11
7.47974e-09
5.68255e-11
7.42783e-09
5.19119e-11
7.38074e-09
4.70909e-11
7.33769e-09
4.30415e-11
7.29842e-09
3.92772e-11
7.26156e-09
3.68556e-11
7.22574e-09
3.58183e-11
7.1895e-09
3.62406e-11
7.14644e-09
4.30613e-11
7.09955e-09
4.68882e-11
7.02111e-09
7.84431e-11
6.95172e-09
6.93897e-11
6.63424e-09
3.17476e-10
-2.85671e-09
9.49096e-09
1.25943e-07
1.2762e-07
9.12894e-08
6.72012e-08
7.19367e-08
2.82582e-08
6.12217e-08
1.42e-08
5.4786e-08
8.3878e-09
5.02918e-08
5.92462e-09
4.68079e-08
4.61704e-09
4.39951e-08
3.72547e-09
4.16726e-08
3.07336e-09
3.97149e-08
2.59e-09
3.8035e-08
2.22256e-09
3.65729e-08
1.93436e-09
3.52859e-08
1.70245e-09
3.41427e-08
1.51225e-09
3.31191e-08
1.35386e-09
3.21964e-08
1.22024e-09
3.13599e-08
1.10624e-09
3.05976e-08
1.00798e-09
2.98999e-08
9.22492e-10
2.92589e-08
8.47496e-10
2.8668e-08
7.81187e-10
2.81217e-08
7.22127e-10
2.76155e-08
6.69161e-10
2.71454e-08
6.21345e-10
2.67081e-08
5.77901e-10
2.63008e-08
5.38172e-10
2.59212e-08
5.01612e-10
2.55671e-08
4.67748e-10
2.52369e-08
4.36169e-10
2.49291e-08
4.06533e-10
2.46426e-08
3.78505e-10
2.43762e-08
3.51852e-10
2.41291e-08
3.26261e-10
2.39008e-08
3.01668e-10
2.36908e-08
2.77672e-10
2.34984e-08
2.54548e-10
2.33236e-08
2.31573e-10
2.31657e-08
2.0982e-10
2.30251e-08
1.87731e-10
2.28999e-08
1.68183e-10
2.27915e-08
1.47707e-10
2.26952e-08
1.33127e-10
2.26141e-08
1.16961e-10
2.2536e-08
1.14315e-10
2.24689e-08
1.1019e-10
2.23804e-08
1.35335e-10
2.22895e-08
1.69438e-10
2.21439e-08
2.14938e-10
2.18099e-08
6.51486e-10
-2.97245e-09
2.19256e-08
1.58752e-07
1.35272e-07
1.36527e-07
8.94267e-08
1.17494e-07
4.72912e-08
1.03318e-07
2.83757e-08
9.33267e-08
1.83791e-08
8.60301e-08
1.32212e-08
8.03269e-08
1.03202e-08
7.56806e-08
8.37182e-09
7.18085e-08
6.94542e-09
6.8523e-08
5.87546e-09
6.56909e-08
5.05473e-09
6.32173e-08
4.40791e-09
6.10339e-08
3.88583e-09
5.90897e-08
3.45652e-09
5.73453e-08
3.09823e-09
5.57701e-08
2.79539e-09
5.43398e-08
2.53659e-09
5.30346e-08
2.3132e-09
5.18384e-08
2.11864e-09
5.07381e-08
1.94778e-09
4.97227e-08
1.7966e-09
4.8783e-08
1.66187e-09
4.79111e-08
1.54099e-09
4.71007e-08
1.43183e-09
4.63459e-08
1.33264e-09
4.56422e-08
1.24194e-09
4.49853e-08
1.15848e-09
4.43718e-08
1.08118e-09
4.37989e-08
1.00913e-09
4.32639e-08
9.41502e-10
4.27649e-08
8.77567e-10
4.23e-08
8.16735e-10
4.18679e-08
7.58324e-10
4.14675e-08
7.02074e-10
4.10981e-08
6.47125e-10
4.07587e-08
5.93895e-10
4.04495e-08
5.40795e-10
4.01694e-08
4.89952e-10
3.99194e-08
4.37725e-10
3.96971e-08
3.9048e-10
3.95056e-08
3.39201e-10
3.93377e-08
3.01018e-10
3.92021e-08
2.52572e-10
3.90767e-08
2.39692e-10
3.89877e-08
1.99181e-10
3.88686e-08
2.54451e-10
3.87928e-08
2.45273e-10
3.86123e-08
3.95393e-10
3.83968e-08
8.6697e-10
-2.1373e-09
3.75617e-08
1.75611e-07
1.31176e-07
1.65623e-07
9.94145e-08
1.52735e-07
6.01791e-08
1.40128e-07
4.09833e-08
1.29451e-07
2.90563e-08
1.20816e-07
2.18556e-08
1.1371e-07
1.74266e-08
1.07736e-07
1.43456e-08
1.02644e-07
1.20373e-08
9.82513e-08
1.02683e-08
9.44178e-08
8.88823e-09
9.1038e-08
7.78764e-09
8.80323e-08
6.89153e-09
8.53393e-08
6.14958e-09
8.29107e-08
5.52683e-09
8.07081e-08
4.99797e-09
7.87005e-08
4.54418e-09
7.68625e-08
4.15118e-09
7.51733e-08
3.8079e-09
7.36153e-08
3.50572e-09
7.21742e-08
3.23778e-09
7.08374e-08
2.99859e-09
6.95947e-08
2.78368e-09
6.84372e-08
2.5894e-09
6.73571e-08
2.41271e-09
6.6348e-08
2.25104e-09
6.54043e-08
2.10222e-09
6.45211e-08
1.96438e-09
6.36943e-08
1.83588e-09
6.29205e-08
1.71531e-09
6.21967e-08
1.60137e-09
6.15205e-08
1.49298e-09
6.08898e-08
1.38897e-09
6.03031e-08
1.28877e-09
5.97593e-08
1.19093e-09
5.92573e-08
1.09596e-09
5.87969e-08
1.00119e-09
5.83769e-08
9.09892e-10
5.79988e-08
8.15869e-10
5.76597e-08
7.29555e-10
5.73639e-08
6.35024e-10
5.7103e-08
5.61931e-10
5.68888e-08
4.66763e-10
5.66951e-08
4.33401e-10
5.6556e-08
3.38272e-10
5.6395e-08
4.15405e-10
5.62964e-08
3.4394e-10
5.61058e-08
5.85983e-10
5.59032e-08
1.06951e-09
-1.20167e-09
5.49676e-08
1.8451e-07
1.23452e-07
1.8234e-07
1.01584e-07
1.76121e-07
6.63988e-08
1.67764e-07
4.93398e-08
1.59147e-07
3.76731e-08
1.51246e-07
2.97567e-08
1.4418e-07
2.44928e-08
1.37888e-07
2.06377e-08
1.32297e-07
1.76283e-08
1.27323e-07
1.52426e-08
1.22879e-07
1.33319e-08
1.18889e-07
1.17771e-08
1.1529e-07
1.04913e-08
1.12026e-07
9.41322e-09
1.09054e-07
8.49898e-09
1.06336e-07
7.71588e-09
1.03841e-07
7.03905e-09
1.01543e-07
6.44924e-09
9.94196e-08
5.93133e-09
9.7452e-08
5.47335e-09
9.56241e-08
5.06567e-09
9.39222e-08
4.70049e-09
9.23345e-08
4.37145e-09
9.08506e-08
4.07326e-09
8.94618e-08
3.80151e-09
8.81604e-08
3.55245e-09
8.69397e-08
3.3229e-09
8.5794e-08
3.11006e-09
8.47184e-08
2.91153e-09
8.37085e-08
2.72516e-09
8.27609e-08
2.54902e-09
8.18724e-08
2.38148e-09
8.10405e-08
2.22078e-09
8.02633e-08
2.06597e-09
7.95393e-08
1.91493e-09
7.88671e-08
1.76819e-09
7.82464e-08
1.62193e-09
7.76758e-08
1.48048e-09
7.71566e-08
1.33504e-09
7.66862e-08
1.19996e-09
7.62688e-08
1.05245e-09
7.58963e-08
9.34374e-10
7.55805e-08
7.82605e-10
7.52969e-08
7.17017e-10
7.50755e-08
5.59654e-10
7.48533e-08
6.37607e-10
7.46836e-08
5.13678e-10
7.44763e-08
7.93237e-10
7.42009e-08
1.34496e-09
-2.98576e-10
7.32978e-08
1.90342e-07
1.15326e-07
1.91859e-07
1.00068e-07
1.90262e-07
6.79956e-08
1.86157e-07
5.34445e-08
1.8072e-07
4.31103e-08
1.74972e-07
3.55051e-08
1.6928e-07
3.01842e-08
1.63803e-07
2.61148e-08
1.58637e-07
2.27943e-08
1.53824e-07
2.00558e-08
1.49366e-07
1.77897e-08
1.45247e-07
1.5896e-08
1.41443e-07
1.42954e-08
1.37927e-07
1.29289e-08
1.34674e-07
1.17523e-08
1.31659e-07
1.07313e-08
1.28859e-07
9.8391e-09
1.26254e-07
9.05421e-09
1.23826e-07
8.35933e-09
1.21559e-07
7.74044e-09
1.19438e-07
7.18609e-09
1.17452e-07
6.68682e-09
1.15588e-07
6.23479e-09
1.13838e-07
5.82345e-09
1.12193e-07
5.44722e-09
1.10644e-07
5.10132e-09
1.09185e-07
4.78168e-09
1.0781e-07
4.48466e-09
1.06515e-07
4.2071e-09
1.05294e-07
3.94619e-09
1.04143e-07
3.69936e-09
1.0306e-07
3.46439e-09
1.02042e-07
3.23896e-09
1.01087e-07
3.0217e-09
1.00192e-07
2.80984e-09
9.9356e-08
2.60382e-09
9.85791e-08
2.39878e-09
9.78598e-08
2.19983e-09
9.71988e-08
1.99598e-09
9.65941e-08
1.80469e-09
9.60489e-08
1.59762e-09
9.5557e-08
1.42629e-09
9.51269e-08
1.21273e-09
9.47408e-08
1.1031e-09
9.44158e-08
8.84627e-10
9.41158e-08
9.37608e-10
9.38456e-08
7.83889e-10
9.35908e-08
1.04809e-09
9.32286e-08
1.7071e-09
6.30353e-10
9.22997e-08
1.95504e-07
1.07636e-07
1.98247e-07
9.73252e-08
1.98985e-07
6.72574e-08
1.9779e-07
5.4639e-08
1.95157e-07
4.57441e-08
1.91819e-07
3.88431e-08
1.8809e-07
3.39127e-08
1.84144e-07
3.00607e-08
1.80131e-07
2.68072e-08
1.76161e-07
2.40257e-08
1.72302e-07
2.16489e-08
1.68592e-07
1.9606e-08
1.65052e-07
1.7836e-08
1.61689e-07
1.62918e-08
1.58504e-07
1.49369e-08
1.55494e-07
1.37418e-08
1.52651e-07
1.26823e-08
1.49966e-07
1.17384e-08
1.47432e-07
1.08935e-08
1.45039e-07
1.01336e-08
1.42778e-07
9.44693e-09
1.40641e-07
8.82372e-09
1.3862e-07
8.25561e-09
1.36708e-07
7.73545e-09
1.34899e-07
7.25711e-09
1.33185e-07
6.81523e-09
1.31561e-07
6.40515e-09
1.30023e-07
6.02269e-09
1.28566e-07
5.66417e-09
1.27186e-07
5.32622e-09
1.2588e-07
5.00579e-09
1.24644e-07
4.70019e-09
1.23476e-07
4.40659e-09
1.22375e-07
4.12326e-09
1.21338e-07
3.84686e-09
1.20364e-07
3.57767e-09
1.19453e-07
3.31003e-09
1.18603e-07
3.04948e-09
1.17815e-07
2.78348e-09
1.17089e-07
2.53148e-09
1.16425e-07
2.26163e-09
1.15819e-07
2.03137e-09
1.15277e-07
1.75481e-09
1.14789e-07
1.59136e-09
1.14357e-07
1.31725e-09
1.13971e-07
1.32362e-09
1.13595e-07
1.15927e-09
1.13263e-07
1.38e-09
1.12825e-07
2.14551e-09
1.6049e-09
1.1185e-07
2.00819e-07
1.00402e-07
2.03771e-07
9.43731e-08
2.05344e-07
6.56843e-08
2.05645e-07
5.43384e-08
2.04814e-07
4.6575e-08
2.03335e-07
4.03221e-08
2.01389e-07
3.58589e-08
1.99061e-07
3.23885e-08
1.96459e-07
2.94094e-08
1.93685e-07
2.67996e-08
1.9082e-07
2.45139e-08
1.87924e-07
2.25022e-08
1.8504e-07
2.07191e-08
1.82202e-07
1.913e-08
1.79431e-07
1.77081e-08
1.76741e-07
1.64314e-08
1.74142e-07
1.52812e-08
1.71639e-07
1.42415e-08
1.69234e-07
1.32985e-08
1.66928e-07
1.24402e-08
1.64718e-07
1.16564e-08
1.62604e-07
1.0938e-08
1.60582e-07
1.02773e-08
1.5865e-07
9.66763e-09
1.56804e-07
9.10289e-09
1.55042e-07
8.5778e-09
1.53359e-07
8.08765e-09
1.51754e-07
7.6281e-09
1.50223e-07
7.19528e-09
1.48763e-07
6.78562e-09
1.47373e-07
6.39576e-09
1.46051e-07
6.02276e-09
1.44794e-07
5.66345e-09
1.43601e-07
5.31584e-09
1.42472e-07
4.97618e-09
1.41405e-07
4.6446e-09
1.404e-07
4.31491e-09
1.39457e-07
3.99274e-09
1.38576e-07
3.6648e-09
1.37756e-07
3.3513e-09
1.36998e-07
3.01913e-09
1.36302e-07
2.72776e-09
1.35667e-07
2.3903e-09
1.35091e-07
2.16732e-09
1.34564e-07
1.84428e-09
1.34096e-07
1.79107e-09
1.33629e-07
1.62671e-09
1.33211e-07
1.79808e-09
1.32709e-07
2.64761e-09
2.60324e-09
1.3171e-07
2.06423e-07
9.35115e-08
2.09331e-07
9.14647e-08
2.11055e-07
6.39599e-08
2.11935e-07
5.34585e-08
2.11998e-07
4.65126e-08
2.11612e-07
4.07076e-08
2.10883e-07
3.65882e-08
2.09813e-07
3.34584e-08
2.08442e-07
3.07807e-08
2.06828e-07
2.84136e-08
2.05027e-07
2.63151e-08
2.03087e-07
2.44416e-08
2.01052e-07
2.27542e-08
1.98957e-07
2.12252e-08
1.96831e-07
1.98341e-08
1.94698e-07
1.85647e-08
1.92575e-07
1.74034e-08
1.90478e-07
1.63385e-08
1.88418e-07
1.53594e-08
1.86401e-07
1.4457e-08
1.84434e-07
1.36231e-08
1.82521e-07
1.28506e-08
1.80666e-07
1.2133e-08
1.78869e-07
1.14646e-08
1.77131e-07
1.08402e-08
1.75454e-07
1.0255e-08
1.73837e-07
9.70481e-09
1.7228e-07
9.18553e-09
1.70781e-07
8.6935e-09
1.69342e-07
8.22521e-09
1.6796e-07
7.77733e-09
1.66636e-07
7.34687e-09
1.65369e-07
6.93055e-09
1.64159e-07
6.52629e-09
1.63005e-07
6.13013e-09
1.61907e-07
5.74206e-09
1.60866e-07
5.35569e-09
1.59883e-07
4.97653e-09
1.58956e-07
4.59116e-09
1.58088e-07
4.21965e-09
1.57278e-07
3.82945e-09
1.56526e-07
3.47902e-09
1.55831e-07
3.08576e-09
1.55196e-07
2.80263e-09
1.54602e-07
2.43783e-09
1.54072e-07
2.32089e-09
1.53538e-07
2.16092e-09
1.53046e-07
2.28979e-09
1.52499e-07
3.19455e-09
3.58975e-09
1.51513e-07
2.12269e-07
8.69051e-08
2.1514e-07
8.85937e-08
2.1681e-07
6.22893e-08
2.1785e-07
5.2419e-08
2.18257e-07
4.61052e-08
2.18373e-07
4.05914e-08
2.18297e-07
3.66647e-08
2.17997e-07
3.37586e-08
2.17467e-07
3.13102e-08
2.16727e-07
2.91536e-08
2.15801e-07
2.72414e-08
2.14713e-07
2.55291e-08
2.1349e-07
2.39773e-08
2.12157e-07
2.25586e-08
2.10737e-07
2.12543e-08
2.09251e-07
2.00505e-08
2.07718e-07
1.89361e-08
2.06155e-07
1.7902e-08
2.04574e-07
1.694e-08
2.02988e-07
1.60431e-08
2.01406e-07
1.52051e-08
1.99836e-07
1.44205e-08
1.98285e-07
1.36843e-08
1.96757e-07
1.29919e-08
1.95258e-07
1.23392e-08
1.93791e-07
1.17222e-08
1.92359e-07
1.11375e-08
1.90963e-07
1.05815e-08
1.89605e-07
1.00509e-08
1.88288e-07
9.54261e-09
1.87012e-07
9.05355e-09
1.85778e-07
8.58087e-09
1.84587e-07
8.12138e-09
1.8344e-07
7.67303e-09
1.82338e-07
7.23187e-09
1.81283e-07
6.79786e-09
1.80274e-07
6.3646e-09
1.79313e-07
5.93738e-09
1.78401e-07
5.50318e-09
1.77539e-07
5.08129e-09
1.76728e-07
4.64103e-09
1.75969e-07
4.2378e-09
1.75258e-07
3.79677e-09
1.74603e-07
3.45775e-09
1.73981e-07
3.05928e-09
1.7342e-07
2.88167e-09
1.72854e-07
2.72759e-09
1.72317e-07
2.82668e-09
1.71753e-07
3.75873e-09
4.52423e-09
1.70818e-07
2.18315e-07
8.05713e-08
2.21189e-07
8.57193e-08
2.22783e-07
6.06954e-08
2.23851e-07
5.13511e-08
2.24367e-07
4.55892e-08
2.2466e-07
4.02979e-08
2.2486e-07
3.64653e-08
2.24937e-07
3.36813e-08
2.24872e-07
3.13752e-08
2.24665e-07
2.93602e-08
2.24322e-07
2.75852e-08
2.23847e-07
2.60038e-08
2.2325e-07
2.45741e-08
2.22543e-07
2.32661e-08
2.21737e-07
2.20598e-08
2.20846e-07
2.09411e-08
2.19884e-07
1.9899e-08
2.18861e-07
1.89248e-08
2.17789e-07
1.80113e-08
2.1668e-07
1.71524e-08
2.15542e-07
1.63429e-08
2.14385e-07
1.55782e-08
2.13215e-07
1.48543e-08
2.12039e-07
1.41676e-08
2.10863e-07
1.35148e-08
2.09693e-07
1.28926e-08
2.08532e-07
1.22982e-08
2.07385e-07
1.17287e-08
2.06255e-07
1.11812e-08
2.05144e-07
1.06532e-08
2.04056e-07
1.01417e-08
2.02993e-07
9.64427e-09
2.01956e-07
9.15792e-09
2.00948e-07
8.68073e-09
1.99971e-07
8.20889e-09
1.99027e-07
7.74234e-09
1.98116e-07
7.27491e-09
1.97242e-07
6.81161e-09
1.96405e-07
6.34013e-09
1.95608e-07
5.87865e-09
1.9485e-07
5.39916e-09
1.94135e-07
4.95273e-09
1.93457e-07
4.47437e-09
1.92827e-07
4.08772e-09
1.92222e-07
3.66471e-09
1.91669e-07
3.43485e-09
1.91109e-07
3.28714e-09
1.90565e-07
3.37102e-09
1.90017e-07
4.30644e-09
5.36625e-09
1.89175e-07
2.24548e-07
7.45164e-08
2.27449e-07
8.28186e-08
2.28979e-07
5.91655e-08
2.30054e-07
5.02762e-08
2.3061e-07
4.50328e-08
2.30952e-07
3.99559e-08
2.31241e-07
3.61763e-08
2.31466e-07
3.34561e-08
2.31609e-07
3.1232e-08
2.31669e-07
2.93004e-08
2.31645e-07
2.76093e-08
2.31535e-07
2.61136e-08
2.31339e-07
2.477e-08
2.31059e-07
2.35463e-08
2.30698e-07
2.24208e-08
2.30262e-07
2.13778e-08
2.29755e-07
2.04056e-08
2.29185e-07
1.94947e-08
2.28559e-07
1.86378e-08
2.27882e-07
1.78285e-08
2.27163e-07
1.70619e-08
2.26408e-07
1.63335e-08
2.25623e-07
1.56397e-08
2.24813e-07
1.49772e-08
2.23985e-07
1.4343e-08
2.23143e-07
1.37346e-08
2.22292e-07
1.31492e-08
2.21436e-07
1.25846e-08
2.20579e-07
1.20381e-08
2.19725e-07
1.15076e-08
2.18876e-07
1.09904e-08
2.18036e-07
1.04843e-08
2.17207e-07
9.98659e-09
2.16393e-07
9.49544e-09
2.15594e-07
9.00723e-09
2.14815e-07
8.52195e-09
2.14056e-07
8.03371e-09
2.1332e-07
7.54724e-09
2.12609e-07
7.05113e-09
2.11926e-07
6.56221e-09
2.11269e-07
6.05564e-09
2.10644e-07
5.57744e-09
2.10045e-07
5.07344e-09
2.09483e-07
4.64992e-09
2.08936e-07
4.21198e-09
2.08429e-07
3.9416e-09
2.07916e-07
3.80068e-09
2.07404e-07
3.8828e-09
2.06907e-07
4.80309e-09
6.08015e-09
2.06193e-07
2.30974e-07
6.87482e-08
2.3391e-07
7.98831e-08
2.35382e-07
5.76926e-08
2.36466e-07
4.9193e-08
2.37055e-07
4.44436e-08
2.37412e-07
3.9599e-08
2.37723e-07
3.58656e-08
2.37994e-07
3.31851e-08
2.38212e-07
3.10135e-08
2.38381e-07
2.91317e-08
2.38502e-07
2.74883e-08
2.38573e-07
2.60423e-08
2.38592e-07
2.47508e-08
2.38558e-07
2.3581e-08
2.38468e-07
2.25101e-08
2.38325e-07
2.15215e-08
2.38128e-07
2.06024e-08
2.3788e-07
1.97427e-08
2.37583e-07
1.89343e-08
2.37241e-07
1.81706e-08
2.36857e-07
1.74459e-08
2.36435e-07
1.67558e-08
2.35978e-07
1.60963e-08
2.35491e-07
1.54642e-08
2.34978e-07
1.48566e-08
2.34441e-07
1.42709e-08
2.33886e-07
1.37046e-08
2.33315e-07
1.31554e-08
2.32732e-07
1.2621e-08
2.32141e-07
1.20994e-08
2.31543e-07
1.15881e-08
2.30942e-07
1.10851e-08
2.30341e-07
1.05878e-08
2.29742e-07
1.00944e-08
2.29148e-07
9.60156e-09
2.2856e-07
9.10924e-09
2.27982e-07
8.61185e-09
2.27416e-07
8.1138e-09
2.26862e-07
7.60469e-09
2.26324e-07
7.09983e-09
2.25802e-07
6.57783e-09
2.253e-07
6.07925e-09
2.24813e-07
5.56095e-09
2.24351e-07
5.112e-09
2.23895e-07
4.66818e-09
2.23466e-07
4.37015e-09
2.2303e-07
4.2364e-09
2.22586e-07
4.32716e-09
2.2217e-07
5.21883e-09
6.64e-09
2.2161e-07
2.376e-07
6.32726e-08
2.40575e-07
7.69083e-08
2.41991e-07
5.6277e-08
2.43081e-07
4.81025e-08
2.43707e-07
4.38178e-08
2.44077e-07
3.92292e-08
2.44393e-07
3.55495e-08
2.44677e-07
3.29015e-08
2.44918e-07
3.07721e-08
2.45123e-07
2.89265e-08
2.45298e-07
2.73131e-08
2.45445e-07
2.58961e-08
2.45561e-07
2.46348e-08
2.45645e-07
2.34966e-08
2.45697e-07
2.24585e-08
2.45714e-07
2.15038e-08
2.45697e-07
2.06193e-08
2.45646e-07
1.97944e-08
2.45559e-07
1.90206e-08
2.45439e-07
1.82907e-08
2.45286e-07
1.75989e-08
2.45102e-07
1.69401e-08
2.44888e-07
1.63103e-08
2.44646e-07
1.57059e-08
2.44379e-07
1.51238e-08
2.44089e-07
1.45612e-08
2.43777e-07
1.40157e-08
2.43448e-07
1.3485e-08
2.43102e-07
1.29668e-08
2.42742e-07
1.2459e-08
2.42371e-07
1.19592e-08
2.41991e-07
1.14655e-08
2.41604e-07
1.09752e-08
2.41211e-07
1.04868e-08
2.40816e-07
9.99696e-09
2.4042e-07
9.50557e-09
2.40024e-07
9.00737e-09
2.39631e-07
8.50635e-09
2.39243e-07
7.99322e-09
2.38861e-07
7.4816e-09
2.38485e-07
6.95367e-09
2.3812e-07
6.44441e-09
2.3776e-07
5.9213e-09
2.37414e-07
5.45739e-09
2.37068e-07
5.01501e-09
2.36736e-07
4.70133e-09
2.36398e-07
4.57471e-09
2.36045e-07
4.68027e-09
2.3573e-07
5.53384e-09
7.03244e-09
2.35338e-07
2.44436e-07
5.80932e-08
2.47449e-07
7.3895e-08
2.48809e-07
5.49166e-08
2.49902e-07
4.70094e-08
2.50566e-07
4.31535e-08
2.50953e-07
3.8843e-08
2.51273e-07
3.52289e-08
2.51562e-07
3.26124e-08
2.51811e-07
3.05232e-08
2.52027e-07
2.87105e-08
2.5222e-07
2.71209e-08
2.52392e-07
2.57241e-08
2.52544e-07
2.44822e-08
2.52677e-07
2.33633e-08
2.52791e-07
2.23449e-08
2.52884e-07
2.14103e-08
2.52957e-07
2.05466e-08
2.53008e-07
1.97431e-08
2.53038e-07
1.89912e-08
2.53045e-07
1.82833e-08
2.53031e-07
1.76136e-08
2.52994e-07
1.69767e-08
2.52936e-07
1.63682e-08
2.52858e-07
1.57845e-08
2.52759e-07
1.52222e-08
2.52642e-07
1.46784e-08
2.52507e-07
1.41505e-08
2.52356e-07
1.3636e-08
2.5219e-07
1.31327e-08
2.52011e-07
1.26384e-08
2.5182e-07
1.21506e-08
2.51618e-07
1.16675e-08
2.51406e-07
1.11864e-08
2.51187e-07
1.07058e-08
2.50962e-07
1.02223e-08
2.50732e-07
9.73584e-09
2.50498e-07
9.24139e-09
2.50262e-07
8.74246e-09
2.50024e-07
8.2309e-09
2.49787e-07
7.71859e-09
2.49549e-07
7.19119e-09
2.49315e-07
6.67829e-09
2.4908e-07
6.15708e-09
2.48851e-07
5.68646e-09
2.48615e-07
5.2504e-09
2.48386e-07
4.93067e-09
2.4815e-07
4.81019e-09
2.47898e-07
4.93223e-09
2.47692e-07
5.74064e-09
7.25809e-09
2.47466e-07
2.51488e-07
5.32121e-08
2.54529e-07
7.08535e-08
2.55845e-07
5.36008e-08
2.56936e-07
4.5919e-08
2.57637e-07
4.24518e-08
2.58043e-07
3.84375e-08
2.58369e-07
3.49025e-08
2.58664e-07
3.2318e-08
2.58918e-07
3.02691e-08
2.59138e-07
2.84899e-08
2.59336e-07
2.69233e-08
2.59516e-07
2.55442e-08
2.5968e-07
2.43177e-08
2.59831e-07
2.32131e-08
2.59967e-07
2.2208e-08
2.60091e-07
2.12865e-08
2.60202e-07
2.04357e-08
2.603e-07
1.96453e-08
2.60384e-07
1.89066e-08
2.60455e-07
1.82123e-08
2.60513e-07
1.75562e-08
2.60556e-07
1.69331e-08
2.60586e-07
1.63384e-08
2.60603e-07
1.57682e-08
2.60605e-07
1.52192e-08
2.60596e-07
1.46883e-08
2.60573e-07
1.41728e-08
2.60539e-07
1.36702e-08
2.60494e-07
1.31781e-08
2.60438e-07
1.26942e-08
2.60372e-07
1.22162e-08
2.60298e-07
1.1742e-08
2.60215e-07
1.12691e-08
2.60125e-07
1.07958e-08
2.60029e-07
1.03189e-08
2.59926e-07
9.83805e-09
2.59819e-07
9.34873e-09
2.59708e-07
8.85382e-09
2.59592e-07
8.34635e-09
2.59474e-07
7.8364e-09
2.59353e-07
7.31299e-09
2.5923e-07
6.80068e-09
2.59102e-07
6.28512e-09
2.58975e-07
5.81334e-09
2.5884e-07
5.3859e-09
2.58704e-07
5.06654e-09
2.58564e-07
4.95008e-09
2.5841e-07
5.08606e-09
2.58308e-07
5.84323e-09
7.33006e-09
2.58236e-07
2.58766e-07
4.86295e-08
2.61825e-07
6.77943e-08
2.63107e-07
5.23184e-08
2.6419e-07
4.48363e-08
2.64927e-07
4.17147e-08
2.65354e-07
3.80108e-08
2.65687e-07
3.45695e-08
2.65987e-07
3.20179e-08
2.66247e-07
3.00095e-08
2.66471e-07
2.82655e-08
2.66671e-07
2.67228e-08
2.66854e-07
2.53612e-08
2.67023e-07
2.41493e-08
2.67179e-07
2.30574e-08
2.67323e-07
2.20636e-08
2.67457e-07
2.11521e-08
2.67582e-07
2.03108e-08
2.67698e-07
1.95294e-08
2.67805e-07
1.87995e-08
2.67904e-07
1.81138e-08
2.67994e-07
1.74663e-08
2.68075e-07
1.68517e-08
2.68148e-07
1.62654e-08
2.68213e-07
1.57036e-08
2.68269e-07
1.51628e-08
2.68318e-07
1.46399e-08
2.68358e-07
1.41321e-08
2.68392e-07
1.3637e-08
2.68418e-07
1.3152e-08
2.68437e-07
1.26749e-08
2.6845e-07
1.22034e-08
2.68456e-07
1.17353e-08
2.68457e-07
1.12681e-08
2.68453e-07
1.08002e-08
2.68443e-07
1.03284e-08
2.68429e-07
9.85214e-09
2.68411e-07
9.36737e-09
2.68388e-07
8.87637e-09
2.68361e-07
8.37331e-09
2.68331e-07
7.86659e-09
2.68296e-07
7.34826e-09
2.68258e-07
6.83844e-09
2.68213e-07
6.32984e-09
2.68167e-07
5.85999e-09
2.68111e-07
5.44127e-09
2.68052e-07
5.12553e-09
2.67992e-07
5.00992e-09
2.67925e-07
5.15377e-09
2.67914e-07
5.85381e-09
7.26975e-09
2.67974e-07
2.66278e-07
4.43442e-08
2.69344e-07
6.47279e-08
2.70604e-07
5.10587e-08
2.71674e-07
4.37656e-08
2.72444e-07
4.09453e-08
2.72893e-07
3.75612e-08
2.73234e-07
3.42289e-08
2.7354e-07
3.1712e-08
2.73805e-07
2.9744e-08
2.74034e-07
2.80368e-08
2.74237e-07
2.65194e-08
2.74422e-07
2.51759e-08
2.74593e-07
2.39789e-08
2.74751e-07
2.28995e-08
2.74898e-07
2.19164e-08
2.75036e-07
2.10144e-08
2.75165e-07
2.01813e-08
2.75287e-07
1.94074e-08
2.75402e-07
1.86844e-08
2.75511e-07
1.80051e-08
2.75614e-07
1.73636e-08
2.75711e-07
1.67547e-08
2.75802e-07
1.6174e-08
2.75888e-07
1.56174e-08
2.7597e-07
1.50815e-08
2.76046e-07
1.45634e-08
2.76118e-07
1.40602e-08
2.76186e-07
1.35693e-08
2.76249e-07
1.30884e-08
2.76309e-07
1.26152e-08
2.76365e-07
1.21473e-08
2.76418e-07
1.16827e-08
2.76467e-07
1.12188e-08
2.76513e-07
1.0754e-08
2.76557e-07
1.02853e-08
2.76597e-07
9.81203e-09
2.76634e-07
9.33043e-09
2.76668e-07
8.84228e-09
2.76698e-07
8.34284e-09
2.76726e-07
7.83897e-09
2.76749e-07
7.32541e-09
2.76769e-07
6.81848e-09
2.76782e-07
6.31652e-09
2.76792e-07
5.84978e-09
2.76795e-07
5.43838e-09
2.76794e-07
5.12688e-09
2.76795e-07
5.00825e-09
2.76798e-07
5.15143e-09
2.76863e-07
5.78832e-09
7.10133e-09
2.77032e-07
2.74032e-07
4.03531e-08
2.77095e-07
6.16654e-08
2.78342e-07
4.98116e-08
2.79397e-07
4.27106e-08
2.80195e-07
4.01475e-08
2.80669e-07
3.70872e-08
2.81018e-07
3.38799e-08
2.81329e-07
3.14005e-08
2.81601e-07
2.94724e-08
2.81834e-07
2.78033e-08
2.82041e-07
2.63128e-08
2.82228e-07
2.49883e-08
2.82401e-07
2.38065e-08
2.8256e-07
2.274e-08
2.82709e-07
2.17679e-08
2.82848e-07
2.08751e-08
2.82979e-07
2.00501e-08
2.83104e-07
1.92833e-08
2.83221e-07
1.85665e-08
2.83333e-07
1.78929e-08
2.83441e-07
1.72565e-08
2.83543e-07
1.66522e-08
2.83641e-07
1.60756e-08
2.83736e-07
1.55227e-08
2.83827e-07
1.49903e-08
2.83916e-07
1.44751e-08
2.84001e-07
1.39746e-08
2.84084e-07
1.34861e-08
2.84165e-07
1.30073e-08
2.84245e-07
1.2536e-08
2.84322e-07
1.20698e-08
2.84398e-07
1.16068e-08
2.84472e-07
1.11444e-08
2.84545e-07
1.06811e-08
2.84617e-07
1.02139e-08
2.84687e-07
9.74205e-09
2.84755e-07
9.26226e-09
2.84821e-07
8.77576e-09
2.84885e-07
8.27886e-09
2.84947e-07
7.77704e-09
2.85005e-07
7.26733e-09
2.85061e-07
6.76297e-09
2.85111e-07
6.26651e-09
2.85158e-07
5.80288e-09
2.85199e-07
5.39662e-09
2.85238e-07
5.08813e-09
2.85284e-07
4.9622e-09
2.85341e-07
5.09493e-09
2.85467e-07
5.66227e-09
6.84749e-09
2.85721e-07
2.82039e-07
3.66515e-08
2.85087e-07
5.86176e-08
2.86331e-07
4.85675e-08
2.87368e-07
4.1674e-08
2.88189e-07
3.93257e-08
2.88689e-07
3.65876e-08
2.89047e-07
3.35215e-08
2.89364e-07
3.10834e-08
2.89642e-07
2.91945e-08
2.89881e-07
2.75648e-08
2.90091e-07
2.61027e-08
2.90281e-07
2.4798e-08
2.90456e-07
2.3632e-08
2.90617e-07
2.25788e-08
2.90767e-07
2.16179e-08
2.90907e-07
2.07347e-08
2.91039e-07
1.99179e-08
2.91164e-07
1.91583e-08
2.91283e-07
1.84477e-08
2.91397e-07
1.77796e-08
2.91505e-07
1.7148e-08
2.91609e-07
1.65479e-08
2.9171e-07
1.59749e-08
2.91808e-07
1.54252e-08
2.91903e-07
1.48954e-08
2.91995e-07
1.43825e-08
2.92086e-07
1.38838e-08
2.92175e-07
1.33968e-08
2.92264e-07
1.29191e-08
2.92351e-07
1.24487e-08
2.92438e-07
1.19831e-08
2.92524e-07
1.15205e-08
2.9261e-07
1.10586e-08
2.92695e-07
1.05955e-08
2.92781e-07
1.01287e-08
2.92865e-07
9.65732e-09
2.92949e-07
9.17834e-09
2.93032e-07
8.69258e-09
2.93114e-07
8.19727e-09
2.93194e-07
7.69675e-09
2.93272e-07
7.18989e-09
2.93347e-07
6.68753e-09
2.93418e-07
6.19519e-09
2.93487e-07
5.73405e-09
2.93553e-07
5.3305e-09
2.93619e-07
5.02263e-09
2.93696e-07
4.88504e-09
2.93794e-07
4.9972e-09
2.93968e-07
5.48838e-09
6.527e-09
2.94288e-07
2.90307e-07
3.32329e-08
2.93329e-07
5.55959e-08
2.94579e-07
4.73176e-08
2.95595e-07
4.0658e-08
2.96436e-07
3.84849e-08
2.96962e-07
3.60613e-08
2.97331e-07
3.31523e-08
2.97654e-07
3.07607e-08
2.97938e-07
2.89104e-08
2.98182e-07
2.7321e-08
2.98396e-07
2.58888e-08
2.98589e-07
2.46049e-08
2.98766e-07
2.34552e-08
2.98929e-07
2.24158e-08
2.9908e-07
2.14665e-08
2.99222e-07
2.05932e-08
2.99355e-07
1.97848e-08
2.99481e-07
1.90324e-08
2.996e-07
1.83282e-08
2.99714e-07
1.76656e-08
2.99824e-07
1.70388e-08
2.99929e-07
1.64429e-08
3.0003e-07
1.58734e-08
3.00129e-07
1.53267e-08
3.00225e-07
1.47993e-08
3.00319e-07
1.42884e-08
3.00411e-07
1.37911e-08
3.00503e-07
1.33052e-08
3.00594e-07
1.28282e-08
3.00684e-07
1.23581e-08
3.00775e-07
1.18927e-08
3.00865e-07
1.143e-08
3.00956e-07
1.09679e-08
3.01047e-07
1.05046e-08
3.01138e-07
1.00376e-08
3.01229e-07
9.56603e-09
3.0132e-07
9.08723e-09
3.01411e-07
8.60163e-09
3.01501e-07
8.10726e-09
3.01591e-07
7.6075e-09
3.01678e-07
7.10268e-09
3.01764e-07
6.60175e-09
3.01847e-07
6.11223e-09
3.01928e-07
5.65263e-09
3.02009e-07
5.24943e-09
3.02093e-07
4.93914e-09
3.02192e-07
4.78564e-09
3.02322e-07
4.86757e-09
3.02534e-07
5.27583e-09
6.15437e-09
3.02907e-07
2.98846e-07
3.00891e-08
3.01831e-07
5.26113e-08
3.03095e-07
4.60539e-08
3.04089e-07
3.96639e-08
3.04943e-07
3.76303e-08
3.05497e-07
3.55077e-08
3.05878e-07
3.27709e-08
3.06207e-07
3.04324e-08
3.06497e-07
2.862e-08
3.06747e-07
2.70713e-08
3.06965e-07
2.56708e-08
3.07161e-07
2.44088e-08
3.0734e-07
2.32759e-08
3.07505e-07
2.22507e-08
3.07658e-07
2.13135e-08
3.07801e-07
2.04503e-08
3.07935e-07
1.96506e-08
3.08062e-07
1.89057e-08
3.08182e-07
1.8208e-08
3.08297e-07
1.7551e-08
3.08406e-07
1.69292e-08
3.08512e-07
1.63374e-08
3.08614e-07
1.57715e-08
3.08713e-07
1.52278e-08
3.08809e-07
1.47028e-08
3.08904e-07
1.41937e-08
3.08997e-07
1.36978e-08
3.0909e-07
1.32128e-08
3.09181e-07
1.27363e-08
3.09273e-07
1.22664e-08
3.09365e-07
1.18009e-08
3.09457e-07
1.13379e-08
3.0955e-07
1.08754e-08
3.09643e-07
1.04115e-08
3.09736e-07
9.94412e-09
3.0983e-07
9.47203e-09
3.09924e-07
8.9931e-09
3.10019e-07
8.50736e-09
3.10112e-07
8.0135e-09
3.10206e-07
7.51417e-09
3.10298e-07
7.01074e-09
3.10389e-07
6.51078e-09
3.10478e-07
6.02292e-09
3.10567e-07
5.56379e-09
3.10657e-07
5.15875e-09
3.10754e-07
4.84272e-09
3.1087e-07
4.66916e-09
3.11026e-07
4.71202e-09
3.1127e-07
5.03116e-09
5.73969e-09
3.11685e-07
3.07666e-07
2.72104e-08
3.10602e-07
4.96751e-08
3.11886e-07
4.47697e-08
3.12858e-07
3.86922e-08
3.13721e-07
3.67671e-08
3.14302e-07
3.4927e-08
3.14697e-07
3.23757e-08
3.15031e-07
3.00984e-08
3.15328e-07
2.83234e-08
3.15583e-07
2.68157e-08
3.15806e-07
2.54483e-08
3.16005e-07
2.42094e-08
3.16187e-07
2.3094e-08
3.16355e-07
2.20834e-08
3.16509e-07
2.11586e-08
3.16654e-07
2.03059e-08
3.16789e-07
1.95152e-08
3.16917e-07
1.8778e-08
3.17038e-07
1.8087e-08
3.17153e-07
1.74358e-08
3.17264e-07
1.68189e-08
3.17369e-07
1.62315e-08
3.17472e-07
1.56693e-08
3.17571e-07
1.51285e-08
3.17668e-07
1.4606e-08
3.17763e-07
1.40987e-08
3.17856e-07
1.36042e-08
3.17949e-07
1.312e-08
3.18042e-07
1.2644e-08
3.18134e-07
1.21742e-08
3.18226e-07
1.17085e-08
3.18319e-07
1.12452e-08
3.18412e-07
1.07821e-08
3.18506e-07
1.03176e-08
3.18601e-07
9.84961e-09
3.18696e-07
9.37693e-09
3.18791e-07
8.89769e-09
3.18887e-07
8.41167e-09
3.18982e-07
7.91808e-09
3.19077e-07
7.41897e-09
3.19172e-07
6.91644e-09
3.19266e-07
6.41701e-09
3.19359e-07
5.92981e-09
3.19452e-07
5.46998e-09
3.1955e-07
5.06108e-09
3.19657e-07
4.7359e-09
3.19788e-07
4.53833e-09
3.19966e-07
4.53432e-09
3.20238e-07
4.75862e-09
5.29111e-09
3.20687e-07
3.16776e-07
2.45855e-08
3.19653e-07
4.67984e-08
3.20963e-07
4.34594e-08
3.21913e-07
3.77424e-08
3.2278e-07
3.59005e-08
3.23387e-07
3.43198e-08
3.23797e-07
3.19653e-08
3.24137e-07
2.97582e-08
3.2444e-07
2.80207e-08
3.24702e-07
2.65539e-08
3.24929e-07
2.52211e-08
3.25132e-07
2.40064e-08
3.25317e-07
2.29092e-08
3.25487e-07
2.19136e-08
3.25644e-07
2.10017e-08
3.2579e-07
2.01598e-08
3.25926e-07
1.93783e-08
3.26055e-07
1.86491e-08
3.26177e-07
1.7965e-08
3.26293e-07
1.73198e-08
3.26404e-07
1.67081e-08
3.26511e-07
1.6125e-08
3.26613e-07
1.55665e-08
3.26713e-07
1.50288e-08
3.2681e-07
1.45087e-08
3.26906e-07
1.40034e-08
3.27e-07
1.35102e-08
3.27093e-07
1.30269e-08
3.27185e-07
1.25514e-08
3.27278e-07
1.20817e-08
3.27371e-07
1.16158e-08
3.27464e-07
1.1152e-08
3.27558e-07
1.06883e-08
3.27652e-07
1.02232e-08
3.27747e-07
9.75459e-09
3.27843e-07
9.28129e-09
3.27939e-07
8.80166e-09
3.28035e-07
8.3153e-09
3.28131e-07
7.8218e-09
3.28228e-07
7.32275e-09
3.28323e-07
6.82072e-09
3.28419e-07
6.32142e-09
3.28515e-07
5.83397e-09
3.28613e-07
5.37222e-09
3.28716e-07
4.95754e-09
3.28832e-07
4.61989e-09
3.28976e-07
4.39456e-09
3.29173e-07
4.33693e-09
3.2947e-07
4.46162e-09
4.81526e-09
3.29946e-07
3.26186e-07
2.22019e-08
3.28993e-07
4.39921e-08
3.30333e-07
4.21188e-08
3.31262e-07
3.68133e-08
3.32128e-07
3.50351e-08
3.3276e-07
3.36879e-08
3.33187e-07
3.15382e-08
3.33534e-07
2.94113e-08
3.33842e-07
2.7712e-08
3.34111e-07
2.62855e-08
3.34343e-07
2.49886e-08
3.3455e-07
2.37996e-08
3.34738e-07
2.27213e-08
3.3491e-07
2.17413e-08
3.35069e-07
2.08425e-08
3.35217e-07
2.00119e-08
3.35356e-07
1.924e-08
3.35486e-07
1.85189e-08
3.35609e-07
1.78419e-08
3.35726e-07
1.72028e-08
3.35838e-07
1.65964e-08
3.35945e-07
1.60179e-08
3.36048e-07
1.54632e-08
3.36148e-07
1.49286e-08
3.36246e-07
1.4411e-08
3.36342e-07
1.39076e-08
3.36436e-07
1.34158e-08
3.3653e-07
1.29334e-08
3.36623e-07
1.24584e-08
3.36716e-07
1.19887e-08
3.36809e-07
1.15227e-08