/*--------------------------------*- C++ -*----------------------------------*\
  =========                 |
  \\      /  F ield         | OpenFOAM: The Open Source CFD Toolbox
   \\    /   O peration     | Website:  https://openfoam.org
    \\  /    A nd           | Version:  7
     \\/     M anipulation  |
\*---------------------------------------------------------------------------*/
FoamFile
{
    version     2.0;
    format      ascii;
    class       surfaceScalarField;
    location    "0.44";
    object      phi_0;
}
// * * * * * * * * * * * * * * * * * * * * * * * * * * * * * * * * * * * * * //

dimensions      [0 3 -1 0 0 0 0];

internalField   nonuniform List<scalar> 
139350
(
6.4512e-08
9.21195e-08
3.19644e-08
3.25476e-08
2.30589e-08
8.90548e-09
1.9574e-08
3.48496e-09
1.76219e-08
1.95209e-09
1.61915e-08
1.43039e-09
1.50583e-08
1.13318e-09
1.41457e-08
9.12662e-10
1.33948e-08
7.50838e-10
1.27625e-08
6.32339e-10
1.22199e-08
5.42618e-10
1.17477e-08
4.72204e-10
1.13322e-08
4.15499e-10
1.09632e-08
3.68979e-10
1.06329e-08
3.30243e-10
1.03354e-08
2.97572e-10
1.00657e-08
2.69701e-10
9.81999e-09
2.45681e-10
9.5952e-09
2.24789e-10
9.38874e-09
2.06461e-10
9.19848e-09
1.90258e-10
9.02265e-09
1.75825e-10
8.85977e-09
1.6288e-10
8.70858e-09
1.51193e-10
8.56801e-09
1.40572e-10
8.43715e-09
1.30858e-10
8.31523e-09
1.21918e-10
8.20159e-09
1.13639e-10
8.09567e-09
1.0592e-10
7.99699e-09
9.86842e-11
7.90514e-09
9.18462e-11
7.81978e-09
8.53628e-11
7.74063e-09
7.91513e-11
7.66741e-09
7.32224e-11
7.59994e-09
6.74675e-11
7.53794e-09
6.19982e-11
7.48131e-09
5.66301e-11
7.42963e-09
5.16798e-11
7.38281e-09
4.68172e-11
7.3401e-09
4.27132e-11
7.30121e-09
3.88906e-11
7.26482e-09
3.63879e-11
7.22955e-09
3.52728e-11
7.19397e-09
3.55779e-11
7.15166e-09
4.23075e-11
7.10568e-09
4.59801e-11
7.02819e-09
7.74936e-11
6.9599e-09
6.82871e-11
6.64282e-09
3.17082e-10
-2.86031e-09
9.50313e-09
1.25943e-07
1.2762e-07
9.12894e-08
6.72011e-08
7.19368e-08
2.82581e-08
6.12218e-08
1.42e-08
5.47861e-08
8.38776e-09
5.02919e-08
5.92458e-09
4.68081e-08
4.61701e-09
4.39953e-08
3.72544e-09
4.16728e-08
3.07332e-09
3.97152e-08
2.58997e-09
3.80353e-08
2.22252e-09
3.65732e-08
1.93431e-09
3.52863e-08
1.70241e-09
3.4143e-08
1.5122e-09
3.31195e-08
1.35381e-09
3.21969e-08
1.22019e-09
3.13604e-08
1.10618e-09
3.05981e-08
1.00792e-09
2.99005e-08
9.22427e-10
2.92595e-08
8.47425e-10
2.86687e-08
7.8111e-10
2.81225e-08
7.22043e-10
2.76163e-08
6.69069e-10
2.71462e-08
6.21243e-10
2.6709e-08
5.77787e-10
2.63018e-08
5.38045e-10
2.59223e-08
5.01469e-10
2.55683e-08
4.67586e-10
2.52383e-08
4.35985e-10
2.49306e-08
4.06323e-10
2.46442e-08
3.78264e-10
2.4378e-08
3.51573e-10
2.41312e-08
3.25937e-10
2.39031e-08
3.01288e-10
2.36934e-08
2.77227e-10
2.35014e-08
2.54023e-10
2.3327e-08
2.30952e-10
2.31696e-08
2.09078e-10
2.30296e-08
1.86849e-10
2.29052e-08
1.6712e-10
2.27977e-08
1.4644e-10
2.27025e-08
1.31584e-10
2.26226e-08
1.15132e-10
2.25461e-08
1.12067e-10
2.24808e-08
1.07579e-10
2.23947e-08
1.3211e-10
2.23063e-08
1.65916e-10
2.21639e-08
2.10691e-10
2.18327e-08
6.48268e-10
-2.97705e-09
2.19494e-08
1.58752e-07
1.35272e-07
1.36527e-07
8.94266e-08
1.17494e-07
4.72911e-08
1.03318e-07
2.83756e-08
9.33269e-08
1.8379e-08
8.60303e-08
1.32211e-08
8.03271e-08
1.03202e-08
7.56808e-08
8.37176e-09
7.18088e-08
6.94535e-09
6.85234e-08
5.87539e-09
6.56912e-08
5.05466e-09
6.32177e-08
4.40783e-09
6.10344e-08
3.88574e-09
5.90902e-08
3.45643e-09
5.73458e-08
3.09813e-09
5.57707e-08
2.79529e-09
5.43404e-08
2.53648e-09
5.30353e-08
2.31308e-09
5.18392e-08
2.11852e-09
5.0739e-08
1.94765e-09
4.97236e-08
1.79646e-09
4.87839e-08
1.66172e-09
4.79122e-08
1.54082e-09
4.71018e-08
1.43164e-09
4.63471e-08
1.33243e-09
4.56435e-08
1.2417e-09
4.49867e-08
1.15821e-09
4.43734e-08
1.08089e-09
4.38006e-08
1.00879e-09
4.32658e-08
9.41115e-10
4.2767e-08
8.77121e-10
4.23023e-08
8.1622e-10
4.18705e-08
7.57724e-10
4.14705e-08
7.01372e-10
4.11014e-08
6.46299e-10
4.07625e-08
5.92917e-10
4.04538e-08
5.39635e-10
4.01743e-08
4.88564e-10
3.99251e-08
4.36065e-10
3.97038e-08
3.88474e-10
3.95134e-08
3.36793e-10
3.93469e-08
2.98073e-10
3.9213e-08
2.49054e-10
3.90897e-08
2.35336e-10
3.90032e-08
1.94072e-10
3.88873e-08
2.48061e-10
3.88151e-08
2.38137e-10
3.8639e-08
3.86697e-10
3.84283e-08
8.59004e-10
-2.14394e-09
3.75952e-08
1.75611e-07
1.31176e-07
1.65623e-07
9.94145e-08
1.52735e-07
6.0179e-08
1.40128e-07
4.09832e-08
1.29451e-07
2.90562e-08
1.20816e-07
2.18555e-08
1.1371e-07
1.74264e-08
1.07736e-07
1.43455e-08
1.02644e-07
1.20372e-08
9.82517e-08
1.02681e-08
9.44182e-08
8.88812e-09
9.10385e-08
7.78751e-09
8.80328e-08
6.8914e-09
8.53398e-08
6.14944e-09
8.29113e-08
5.52668e-09
8.07088e-08
4.99781e-09
7.87012e-08
4.54402e-09
7.68633e-08
4.151e-09
7.51741e-08
3.80772e-09
7.36162e-08
3.50552e-09
7.21751e-08
3.23757e-09
7.08385e-08
2.99835e-09
6.95959e-08
2.78342e-09
6.84384e-08
2.58911e-09
6.73585e-08
2.41239e-09
6.63495e-08
2.25068e-09
6.54059e-08
2.10183e-09
6.45228e-08
1.96393e-09
6.36962e-08
1.83538e-09
6.29226e-08
1.71474e-09
6.2199e-08
1.60071e-09
6.1523e-08
1.49221e-09
6.08927e-08
1.38807e-09
6.03063e-08
1.28772e-09
5.97629e-08
1.18969e-09
5.92614e-08
1.0945e-09
5.88016e-08
9.99445e-10
5.83823e-08
9.07804e-10
5.8005e-08
8.13363e-10
5.7667e-08
7.26519e-10
5.73724e-08
6.31365e-10
5.7113e-08
5.57444e-10
5.69007e-08
4.61374e-10
5.67093e-08
4.26702e-10
5.65731e-08
3.30358e-10
5.64157e-08
4.05462e-10
5.63212e-08
3.32641e-10
5.61356e-08
5.72225e-10
5.59388e-08
1.05582e-09
-1.21222e-09
5.50071e-08
1.8451e-07
1.23452e-07
1.8234e-07
1.01584e-07
1.76121e-07
6.63987e-08
1.67764e-07
4.93396e-08
1.59147e-07
3.76729e-08
1.51246e-07
2.97565e-08
1.4418e-07
2.44926e-08
1.37888e-07
2.06375e-08
1.32297e-07
1.76282e-08
1.27323e-07
1.52425e-08
1.22879e-07
1.33317e-08
1.1889e-07
1.17769e-08
1.1529e-07
1.04911e-08
1.12027e-07
9.41303e-09
1.09055e-07
8.49878e-09
1.06337e-07
7.71567e-09
1.03842e-07
7.03883e-09
1.01544e-07
6.449e-09
9.94205e-08
5.93108e-09
9.7453e-08
5.47307e-09
9.56252e-08
5.06537e-09
9.39233e-08
4.70017e-09
9.23357e-08
4.3711e-09
9.08519e-08
4.07288e-09
8.94632e-08
3.80109e-09
8.81619e-08
3.55198e-09
8.69414e-08
3.32237e-09
8.57958e-08
3.10947e-09
8.47204e-08
2.91085e-09
8.37107e-08
2.72439e-09
8.27633e-08
2.54814e-09
8.1875e-08
2.38046e-09
8.10435e-08
2.21959e-09
8.02666e-08
2.06457e-09
7.95431e-08
1.91328e-09
7.88713e-08
1.76623e-09
7.82512e-08
1.61959e-09
7.76813e-08
1.47767e-09
7.7163e-08
1.33166e-09
7.66937e-08
1.19586e-09
7.62775e-08
1.0475e-09
7.59067e-08
9.28296e-10
7.55928e-08
7.75277e-10
7.53116e-08
7.07895e-10
7.50931e-08
5.48806e-10
7.48746e-08
6.23986e-10
7.47093e-08
4.97965e-10
7.45073e-08
7.74193e-10
7.42379e-08
1.32519e-09
-3.14458e-10
7.33402e-08
1.90342e-07
1.15326e-07
1.91859e-07
1.00068e-07
1.90262e-07
6.79954e-08
1.86157e-07
5.34443e-08
1.8072e-07
4.31101e-08
1.74972e-07
3.55049e-08
1.6928e-07
3.01839e-08
1.63803e-07
2.61146e-08
1.58637e-07
2.27941e-08
1.53824e-07
2.00556e-08
1.49367e-07
1.77895e-08
1.45248e-07
1.58958e-08
1.41444e-07
1.42952e-08
1.37928e-07
1.29287e-08
1.34675e-07
1.1752e-08
1.31659e-07
1.0731e-08
1.28859e-07
9.83881e-09
1.26254e-07
9.0539e-09
1.23827e-07
8.359e-09
1.2156e-07
7.74009e-09
1.19439e-07
7.18571e-09
1.17453e-07
6.68641e-09
1.1559e-07
6.23435e-09
1.1384e-07
5.82296e-09
1.12194e-07
5.44668e-09
1.10645e-07
5.10073e-09
1.09187e-07
4.78102e-09
1.07812e-07
4.48391e-09
1.06517e-07
4.20626e-09
1.05296e-07
3.94523e-09
1.04146e-07
3.69826e-09
1.03063e-07
3.46311e-09
1.02045e-07
3.23747e-09
1.0109e-07
3.01995e-09
1.00195e-07
2.80778e-09
9.93603e-08
2.60137e-09
9.8584e-08
2.39585e-09
9.78654e-08
2.19631e-09
9.72053e-08
1.99174e-09
9.66016e-08
1.79954e-09
9.60578e-08
1.59137e-09
9.55674e-08
1.41861e-09
9.51393e-08
1.20344e-09
9.47556e-08
1.09154e-09
9.44336e-08
8.708e-10
9.41373e-08
9.20299e-10
9.38716e-08
7.63677e-10
9.36221e-08
1.02371e-09
9.32662e-08
1.68112e-09
6.08198e-10
9.23435e-08
1.95504e-07
1.07636e-07
1.98247e-07
9.73251e-08
1.98985e-07
6.72572e-08
1.9779e-07
5.46387e-08
1.95157e-07
4.57438e-08
1.91819e-07
3.88427e-08
1.8809e-07
3.39124e-08
1.84144e-07
3.00605e-08
1.80132e-07
2.6807e-08
1.76162e-07
2.40254e-08
1.72303e-07
2.16486e-08
1.68593e-07
1.96057e-08
1.65052e-07
1.78357e-08
1.61689e-07
1.62915e-08
1.58505e-07
1.49366e-08
1.55495e-07
1.37414e-08
1.52651e-07
1.2682e-08
1.49967e-07
1.17381e-08
1.47433e-07
1.08931e-08
1.4504e-07
1.01331e-08
1.42779e-07
9.44647e-09
1.40642e-07
8.82322e-09
1.38622e-07
8.25507e-09
1.3671e-07
7.73486e-09
1.349e-07
7.25646e-09
1.33186e-07
6.81451e-09
1.31563e-07
6.40435e-09
1.30025e-07
6.0218e-09
1.28568e-07
5.66315e-09
1.27188e-07
5.32507e-09
1.25882e-07
5.00446e-09
1.24647e-07
4.69865e-09
1.23479e-07
4.4048e-09
1.22378e-07
4.12116e-09
1.21341e-07
3.84437e-09
1.20368e-07
3.57472e-09
1.19457e-07
3.3065e-09
1.18609e-07
3.04524e-09
1.17822e-07
2.77836e-09
1.17096e-07
2.52526e-09
1.16433e-07
2.25408e-09
1.1583e-07
2.02209e-09
1.1529e-07
1.74356e-09
1.14804e-07
1.57738e-09
1.14374e-07
1.30044e-09
1.13992e-07
1.30266e-09
1.13621e-07
1.13457e-09
1.13295e-07
1.35032e-09
1.12862e-07
2.11327e-09
1.57584e-09
1.11895e-07
2.00819e-07
1.00402e-07
2.03771e-07
9.4373e-08
2.05344e-07
6.56842e-08
2.05645e-07
5.43382e-08
2.04814e-07
4.65746e-08
2.03335e-07
4.03217e-08
2.01389e-07
3.58585e-08
1.99061e-07
3.23882e-08
1.96459e-07
2.94091e-08
1.93685e-07
2.67992e-08
1.9082e-07
2.45136e-08
1.87924e-07
2.25019e-08
1.85041e-07
2.07188e-08
1.82203e-07
1.91297e-08
1.79432e-07
1.77077e-08
1.76742e-07
1.6431e-08
1.74143e-07
1.52808e-08
1.7164e-07
1.42411e-08
1.69235e-07
1.3298e-08
1.66929e-07
1.24397e-08
1.64719e-07
1.16558e-08
1.62605e-07
1.09374e-08
1.60584e-07
1.02767e-08
1.58652e-07
9.66692e-09
1.56806e-07
9.10212e-09
1.55044e-07
8.57695e-09
1.53361e-07
8.0867e-09
1.51756e-07
7.62704e-09
1.50225e-07
7.19409e-09
1.48766e-07
6.78426e-09
1.47376e-07
6.39421e-09
1.46054e-07
6.02096e-09
1.44797e-07
5.66135e-09
1.43605e-07
5.31338e-09
1.42476e-07
4.97328e-09
1.4141e-07
4.64115e-09
1.40405e-07
4.31078e-09
1.39463e-07
3.98778e-09
1.38582e-07
3.65881e-09
1.37764e-07
3.34403e-09
1.37007e-07
3.01029e-09
1.36313e-07
2.71691e-09
1.35679e-07
2.3771e-09
1.35105e-07
2.15096e-09
1.34581e-07
1.82453e-09
1.34117e-07
1.76652e-09
1.33654e-07
1.59758e-09
1.33242e-07
1.76318e-09
1.32746e-07
2.60911e-09
2.5668e-09
1.31755e-07
2.06423e-07
9.35115e-08
2.09331e-07
9.14646e-08
2.11055e-07
6.39597e-08
2.11935e-07
5.34582e-08
2.11998e-07
4.65123e-08
2.11612e-07
4.07072e-08
2.10883e-07
3.65878e-08
2.09813e-07
3.3458e-08
2.08442e-07
3.07803e-08
2.06828e-07
2.84132e-08
2.05027e-07
2.63147e-08
2.03088e-07
2.44412e-08
2.01053e-07
2.27539e-08
1.98957e-07
2.12248e-08
1.96832e-07
1.98336e-08
1.94698e-07
1.85642e-08
1.92576e-07
1.7403e-08
1.90479e-07
1.6338e-08
1.88418e-07
1.53588e-08
1.86402e-07
1.44564e-08
1.84435e-07
1.36225e-08
1.82523e-07
1.28499e-08
1.80667e-07
1.21323e-08
1.7887e-07
1.14638e-08
1.77133e-07
1.08393e-08
1.75456e-07
1.0254e-08
1.73839e-07
9.7037e-09
1.72282e-07
9.1843e-09
1.70784e-07
8.69212e-09
1.69344e-07
8.22364e-09
1.67963e-07
7.77554e-09
1.66639e-07
7.3448e-09
1.65372e-07
6.92815e-09
1.64162e-07
6.52347e-09
1.63009e-07
6.1268e-09
1.61912e-07
5.73812e-09
1.60871e-07
5.35097e-09
1.59888e-07
4.97086e-09
1.58963e-07
4.58431e-09
1.58096e-07
4.21133e-09
1.57287e-07
3.81934e-09
1.56537e-07
3.46662e-09
1.55843e-07
3.07067e-09
1.5521e-07
2.78395e-09
1.5462e-07
2.41521e-09
1.54093e-07
2.29288e-09
1.53563e-07
2.12752e-09
1.53077e-07
2.24984e-09
1.52536e-07
3.14987e-09
3.54562e-09
1.51557e-07
2.12269e-07
8.69051e-08
2.1514e-07
8.85936e-08
2.1681e-07
6.22891e-08
2.1785e-07
5.24187e-08
2.18257e-07
4.61048e-08
2.18373e-07
4.0591e-08
2.18297e-07
3.66643e-08
2.17997e-07
3.37581e-08
2.17467e-07
3.13098e-08
2.16727e-07
2.91531e-08
2.15801e-07
2.72409e-08
2.14714e-07
2.55287e-08
2.13491e-07
2.39769e-08
2.12157e-07
2.25582e-08
2.10737e-07
2.12538e-08
2.09251e-07
2.005e-08
2.07719e-07
1.89356e-08
2.06155e-07
1.79014e-08
2.04575e-07
1.69394e-08
2.02989e-07
1.60424e-08
2.01407e-07
1.52044e-08
1.99837e-07
1.44197e-08
1.98286e-07
1.36834e-08
1.96759e-07
1.29909e-08
1.9526e-07
1.23381e-08
1.93793e-07
1.17211e-08
1.9236e-07
1.11362e-08
1.90965e-07
1.058e-08
1.89608e-07
1.00493e-08
1.8829e-07
9.54083e-09
1.87014e-07
9.05151e-09
1.85781e-07
8.57852e-09
1.8459e-07
8.11866e-09
1.83444e-07
7.66985e-09
1.82342e-07
7.22813e-09
1.81287e-07
6.79341e-09
1.80279e-07
6.35929e-09
1.79319e-07
5.93101e-09
1.78407e-07
5.49549e-09
1.77547e-07
5.07196e-09
1.76737e-07
4.6297e-09
1.75979e-07
4.22391e-09
1.7527e-07
3.77985e-09
1.74617e-07
3.43685e-09
1.73998e-07
3.03393e-09
1.73441e-07
2.85037e-09
1.72878e-07
2.69012e-09
1.72346e-07
2.78193e-09
1.71788e-07
3.70804e-09
4.47228e-09
1.70861e-07
2.18315e-07
8.05713e-08
2.21189e-07
8.57192e-08
2.22783e-07
6.06952e-08
2.23851e-07
5.13508e-08
2.24367e-07
4.55888e-08
2.2466e-07
4.02974e-08
2.2486e-07
3.64648e-08
2.24937e-07
3.36807e-08
2.24872e-07
3.13747e-08
2.24666e-07
2.93597e-08
2.24322e-07
2.75846e-08
2.23847e-07
2.60033e-08
2.23251e-07
2.45736e-08
2.22543e-07
2.32655e-08
2.21738e-07
2.20593e-08
2.20847e-07
2.09406e-08
2.19884e-07
1.98984e-08
2.18862e-07
1.89242e-08
2.1779e-07
1.80106e-08
2.16681e-07
1.71516e-08
2.15543e-07
1.63421e-08
2.14386e-07
1.55773e-08
2.13216e-07
1.48534e-08
2.1204e-07
1.41666e-08
2.10865e-07
1.35136e-08
2.09695e-07
1.28913e-08
2.08534e-07
1.22968e-08
2.07387e-07
1.17271e-08
2.06257e-07
1.11794e-08
2.05147e-07
1.06511e-08
2.04059e-07
1.01394e-08
2.02996e-07
9.64164e-09
2.01959e-07
9.15487e-09
2.00952e-07
8.67719e-09
1.99975e-07
8.20472e-09
1.99031e-07
7.73741e-09
1.98122e-07
7.26902e-09
1.97248e-07
6.80455e-09
1.96412e-07
6.33163e-09
1.95616e-07
5.86834e-09
1.94859e-07
5.38664e-09
1.94145e-07
4.93741e-09
1.93469e-07
4.45572e-09
1.92841e-07
4.06473e-09
1.92239e-07
3.63679e-09
1.91688e-07
3.40046e-09
1.91133e-07
3.24589e-09
1.90593e-07
3.32178e-09
1.90051e-07
4.25003e-09
5.30652e-09
1.89217e-07
2.24548e-07
7.45163e-08
2.27449e-07
8.28185e-08
2.28979e-07
5.91653e-08
2.30054e-07
5.02758e-08
2.3061e-07
4.50324e-08
2.30952e-07
3.99554e-08
2.31241e-07
3.61757e-08
2.31466e-07
3.34555e-08
2.3161e-07
3.12314e-08
2.3167e-07
2.92998e-08
2.31645e-07
2.76087e-08
2.31536e-07
2.6113e-08
2.3134e-07
2.47694e-08
2.3106e-07
2.35457e-08
2.30699e-07
2.24202e-08
2.30262e-07
2.13772e-08
2.29756e-07
2.04049e-08
2.29186e-07
1.94941e-08
2.2856e-07
1.8637e-08
2.27883e-07
1.78277e-08
2.27165e-07
1.7061e-08
2.26409e-07
1.63325e-08
2.25624e-07
1.56386e-08
2.24815e-07
1.4976e-08
2.23987e-07
1.43417e-08
2.23145e-07
1.37331e-08
2.22294e-07
1.31476e-08
2.21438e-07
1.25828e-08
2.20581e-07
1.20361e-08
2.19727e-07
1.15053e-08
2.18879e-07
1.09879e-08
2.18039e-07
1.04814e-08
2.17211e-07
9.98322e-09
2.16396e-07
9.49153e-09
2.15598e-07
9.00264e-09
2.14819e-07
8.51653e-09
2.14061e-07
8.02726e-09
2.13326e-07
7.53952e-09
2.12616e-07
7.04184e-09
2.11933e-07
6.55097e-09
2.11278e-07
6.04202e-09
2.10654e-07
5.56079e-09
2.10057e-07
5.05318e-09
2.09497e-07
4.62499e-09
2.08952e-07
4.1817e-09
2.08448e-07
3.9044e-09
2.07938e-07
3.75596e-09
2.0743e-07
3.82944e-09
2.06939e-07
4.74134e-09
6.01288e-09
2.06232e-07
2.30974e-07
6.87482e-08
2.3391e-07
7.98829e-08
2.35383e-07
5.76924e-08
2.36466e-07
4.91926e-08
2.37055e-07
4.44431e-08
2.37412e-07
3.95985e-08
2.37723e-07
3.5865e-08
2.37994e-07
3.31844e-08
2.38212e-07
3.10128e-08
2.38381e-07
2.9131e-08
2.38502e-07
2.74876e-08
2.38574e-07
2.60416e-08
2.38593e-07
2.47501e-08
2.38558e-07
2.35804e-08
2.38469e-07
2.25094e-08
2.38325e-07
2.15208e-08
2.38129e-07
2.06017e-08
2.37881e-07
1.9742e-08
2.37584e-07
1.89335e-08
2.37242e-07
1.81697e-08
2.36858e-07
1.74449e-08
2.36436e-07
1.67547e-08
2.3598e-07
1.60951e-08
2.35493e-07
1.54629e-08
2.34979e-07
1.48552e-08
2.34443e-07
1.42693e-08
2.33888e-07
1.37028e-08
2.33317e-07
1.31534e-08
2.32735e-07
1.26188e-08
2.32143e-07
1.20969e-08
2.31546e-07
1.15853e-08
2.30945e-07
1.10819e-08
2.30344e-07
1.05841e-08
2.29746e-07
1.00901e-08
2.29152e-07
9.59654e-09
2.28565e-07
9.10333e-09
2.27987e-07
8.60485e-09
2.27421e-07
8.10543e-09
2.26869e-07
7.59465e-09
2.26332e-07
7.0877e-09
2.25811e-07
6.56316e-09
2.2531e-07
6.06135e-09
2.24824e-07
5.53919e-09
2.24364e-07
5.0853e-09
2.2391e-07
4.63574e-09
2.23484e-07
4.33041e-09
2.23051e-07
4.18856e-09
2.22611e-07
4.27007e-09
2.222e-07
5.15219e-09
6.56555e-09
2.21647e-07
2.376e-07
6.32726e-08
2.40575e-07
7.69081e-08
2.41991e-07
5.62767e-08
2.43081e-07
4.81022e-08
2.43707e-07
4.38173e-08
2.44077e-07
3.92286e-08
2.44393e-07
3.55488e-08
2.44677e-07
3.29008e-08
2.44918e-07
3.07714e-08
2.45124e-07
2.89257e-08
2.45299e-07
2.73123e-08
2.45445e-07
2.58953e-08
2.45561e-07
2.46341e-08
2.45646e-07
2.34959e-08
2.45697e-07
2.24578e-08
2.45715e-07
2.15031e-08
2.45698e-07
2.06185e-08
2.45646e-07
1.97936e-08
2.4556e-07
1.90198e-08
2.4544e-07
1.82898e-08
2.45287e-07
1.75979e-08
2.45103e-07
1.6939e-08
2.44889e-07
1.6309e-08
2.44647e-07
1.57045e-08
2.44381e-07
1.51222e-08
2.4409e-07
1.45595e-08
2.43779e-07
1.40138e-08
2.4345e-07
1.34828e-08
2.43104e-07
1.29644e-08
2.42745e-07
1.24562e-08
2.42374e-07
1.19561e-08
2.41994e-07
1.14619e-08
2.41607e-07
1.09711e-08
2.41215e-07
1.04822e-08
2.4082e-07
9.99152e-09
2.40424e-07
9.49919e-09
2.40029e-07
8.99982e-09
2.39637e-07
8.49736e-09
2.3925e-07
7.98246e-09
2.38869e-07
7.46863e-09
2.38494e-07
6.938e-09
2.3813e-07
6.42535e-09
2.37771e-07
5.89816e-09
2.37427e-07
5.42907e-09
2.37082e-07
4.98062e-09
2.36753e-07
4.65932e-09
2.36418e-07
4.52409e-09
2.36068e-07
4.61982e-09
2.35757e-07
5.46278e-09
6.9513e-09
2.35372e-07
2.44436e-07
5.80932e-08
2.47449e-07
7.38949e-08
2.48809e-07
5.49164e-08
2.49902e-07
4.7009e-08
2.50567e-07
4.3153e-08
2.50953e-07
3.88423e-08
2.51273e-07
3.52282e-08
2.51563e-07
3.26116e-08
2.51812e-07
3.05224e-08
2.52028e-07
2.87096e-08
2.5222e-07
2.71201e-08
2.52392e-07
2.57233e-08
2.52545e-07
2.44814e-08
2.52678e-07
2.33626e-08
2.52792e-07
2.23441e-08
2.52885e-07
2.14095e-08
2.52958e-07
2.05458e-08
2.53009e-07
1.97423e-08
2.53039e-07
1.89902e-08
2.53046e-07
1.82823e-08
2.53032e-07
1.76125e-08
2.52995e-07
1.69754e-08
2.52938e-07
1.63668e-08
2.52859e-07
1.57829e-08
2.52761e-07
1.52205e-08
2.52644e-07
1.46765e-08
2.52509e-07
1.41483e-08
2.52358e-07
1.36336e-08
2.52193e-07
1.313e-08
2.52014e-07
1.26354e-08
2.51822e-07
1.21473e-08
2.51621e-07
1.16637e-08
2.5141e-07
1.11821e-08
2.51191e-07
1.07008e-08
2.50966e-07
1.02165e-08
2.50736e-07
9.72898e-09
2.50503e-07
9.2333e-09
2.50267e-07
8.73286e-09
2.5003e-07
8.21944e-09
2.49794e-07
7.70481e-09
2.49558e-07
7.17458e-09
2.49325e-07
6.65815e-09
2.4909e-07
6.13267e-09
2.48863e-07
5.65666e-09
2.48629e-07
5.21425e-09
2.48402e-07
4.88664e-09
2.48169e-07
4.7571e-09
2.4792e-07
4.86876e-09
2.47717e-07
5.66557e-09
7.17077e-09
2.47498e-07
2.51488e-07
5.3212e-08
2.54529e-07
7.08534e-08
2.55845e-07
5.36005e-08
2.56936e-07
4.59186e-08
2.57637e-07
4.24512e-08
2.58043e-07
3.84368e-08
2.58369e-07
3.49018e-08
2.58664e-07
3.23171e-08
2.58918e-07
3.02682e-08
2.59139e-07
2.8489e-08
2.59336e-07
2.69224e-08
2.59516e-07
2.55433e-08
2.59681e-07
2.43169e-08
2.59831e-07
2.32122e-08
2.59968e-07
2.22072e-08
2.60092e-07
2.12856e-08
2.60203e-07
2.04349e-08
2.60301e-07
1.96444e-08
2.60385e-07
1.89056e-08
2.60457e-07
1.82112e-08
2.60514e-07
1.7555e-08
2.60558e-07
1.69318e-08
2.60588e-07
1.63369e-08
2.60604e-07
1.57666e-08
2.60607e-07
1.52174e-08
2.60597e-07
1.46863e-08
2.60575e-07
1.41705e-08
2.60541e-07
1.36676e-08
2.60496e-07
1.31752e-08
2.6044e-07
1.2691e-08
2.60375e-07
1.22125e-08
2.60301e-07
1.17379e-08
2.60219e-07
1.12644e-08
2.60129e-07
1.07904e-08
2.60033e-07
1.03126e-08
2.59931e-07
9.83072e-09
2.59824e-07
9.34011e-09
2.59714e-07
8.84362e-09
2.59599e-07
8.3342e-09
2.59482e-07
7.82184e-09
2.59361e-07
7.29549e-09
2.59239e-07
6.77951e-09
2.59113e-07
6.25952e-09
2.58987e-07
5.78219e-09
2.58853e-07
5.34816e-09
2.58719e-07
5.02068e-09
2.58581e-07
4.89478e-09
2.5843e-07
5.01985e-09
2.58331e-07
5.7645e-09
7.23709e-09
2.58265e-07
2.58766e-07
4.86295e-08
2.61825e-07
6.77941e-08
2.63107e-07
5.23181e-08
2.6419e-07
4.48358e-08
2.64927e-07
4.17141e-08
2.65354e-07
3.801e-08
2.65687e-07
3.45686e-08
2.65987e-07
3.2017e-08
2.66247e-07
3.00085e-08
2.66471e-07
2.82645e-08
2.66672e-07
2.67218e-08
2.66855e-07
2.53602e-08
2.67023e-07
2.41484e-08
2.67179e-07
2.30565e-08
2.67324e-07
2.20627e-08
2.67458e-07
2.11512e-08
2.67583e-07
2.03099e-08
2.67699e-07
1.95285e-08
2.67806e-07
1.87985e-08
2.67905e-07
1.81127e-08
2.67995e-07
1.7465e-08
2.68076e-07
1.68503e-08
2.68149e-07
1.62638e-08
2.68214e-07
1.57018e-08
2.68271e-07
1.51608e-08
2.68319e-07
1.46376e-08
2.6836e-07
1.41296e-08
2.68394e-07
1.36342e-08
2.6842e-07
1.31489e-08
2.6844e-07
1.26715e-08
2.68453e-07
1.21995e-08
2.6846e-07
1.17309e-08
2.68461e-07
1.12631e-08
2.68457e-07
1.07944e-08
2.68448e-07
1.03216e-08
2.68434e-07
9.84433e-09
2.68416e-07
9.35823e-09
2.68394e-07
8.86557e-09
2.68368e-07
8.3605e-09
2.68338e-07
7.85127e-09
2.68304e-07
7.3299e-09
2.68267e-07
6.81629e-09
2.68224e-07
6.30312e-09
2.68178e-07
5.82756e-09
2.68124e-07
5.40205e-09
2.68067e-07
5.07799e-09
2.68009e-07
4.95261e-09
2.67944e-07
5.08507e-09
2.67937e-07
5.7717e-09
7.17159e-09
2.68002e-07
2.66278e-07
4.43441e-08
2.69344e-07
6.47278e-08
2.70604e-07
5.10584e-08
2.71674e-07
4.37651e-08
2.72444e-07
4.09447e-08
2.72893e-07
3.75604e-08
2.73234e-07
3.4228e-08
2.7354e-07
3.1711e-08
2.73805e-07
2.97429e-08
2.74034e-07
2.80357e-08
2.74238e-07
2.65184e-08
2.74423e-07
2.51749e-08
2.74594e-07
2.39779e-08
2.74751e-07
2.28985e-08
2.74899e-07
2.19155e-08
2.75037e-07
2.10134e-08
2.75166e-07
2.01803e-08
2.75288e-07
1.94064e-08
2.75403e-07
1.86832e-08
2.75512e-07
1.80039e-08
2.75615e-07
1.73623e-08
2.75712e-07
1.67532e-08
2.75804e-07
1.61723e-08
2.7589e-07
1.56155e-08
2.75971e-07
1.50794e-08
2.76048e-07
1.4561e-08
2.7612e-07
1.40575e-08
2.76188e-07
1.35663e-08
2.76252e-07
1.30851e-08
2.76312e-07
1.26114e-08
2.76368e-07
1.2143e-08
2.76421e-07
1.16779e-08
2.76471e-07
1.12134e-08
2.76518e-07
1.07478e-08
2.76561e-07
1.02782e-08
2.76602e-07
9.80374e-09
2.76639e-07
9.32076e-09
2.76674e-07
8.83089e-09
2.76705e-07
8.32936e-09
2.76733e-07
7.82291e-09
2.76757e-07
7.30621e-09
2.76778e-07
6.79539e-09
2.76792e-07
6.28872e-09
2.76804e-07
5.81615e-09
2.76808e-07
5.39778e-09
2.76808e-07
5.07776e-09
2.76812e-07
4.94908e-09
2.76816e-07
5.0804e-09
2.76885e-07
5.70305e-09
6.9984e-09
2.77058e-07
2.74032e-07
4.03531e-08
2.77095e-07
6.16652e-08
2.78342e-07
4.98113e-08
2.79397e-07
4.27101e-08
2.80195e-07
4.01469e-08
2.80669e-07
3.70864e-08
2.81018e-07
3.3879e-08
2.81329e-07
3.13994e-08
2.81601e-07
2.94712e-08
2.81835e-07
2.78022e-08
2.82041e-07
2.63117e-08
2.82229e-07
2.49872e-08
2.82402e-07
2.38054e-08
2.82561e-07
2.2739e-08
2.8271e-07
2.17668e-08
2.82849e-07
2.08741e-08
2.8298e-07
2.00491e-08
2.83105e-07
1.92822e-08
2.83222e-07
1.85654e-08
2.83335e-07
1.78916e-08
2.83442e-07
1.72551e-08
2.83544e-07
1.66506e-08
2.83643e-07
1.60738e-08
2.83738e-07
1.55207e-08
2.83829e-07
1.4988e-08
2.83917e-07
1.44726e-08
2.84003e-07
1.39717e-08
2.84087e-07
1.34829e-08
2.84168e-07
1.30038e-08
2.84247e-07
1.2532e-08
2.84325e-07
1.20653e-08
2.84401e-07
1.16017e-08
2.84476e-07
1.11387e-08
2.84549e-07
1.06745e-08
2.84621e-07
1.02063e-08
2.84692e-07
9.73328e-09
2.8476e-07
9.25206e-09
2.84827e-07
8.76378e-09
2.84892e-07
8.26473e-09
2.84955e-07
7.76025e-09
2.85014e-07
7.2473e-09
2.8507e-07
6.73895e-09
2.85121e-07
6.23766e-09
2.85169e-07
5.76808e-09
2.85212e-07
5.35469e-09
2.85252e-07
5.03752e-09
2.853e-07
4.90127e-09
2.85359e-07
5.02169e-09
2.85488e-07
5.57403e-09
6.74015e-09
2.85746e-07
2.82039e-07
3.66514e-08
2.85087e-07
5.86174e-08
2.86331e-07
4.85672e-08
2.87368e-07
4.16735e-08
2.88189e-07
3.9325e-08
2.88689e-07
3.65868e-08
2.89048e-07
3.35205e-08
2.89365e-07
3.10822e-08
2.89643e-07
2.91933e-08
2.89881e-07
2.75636e-08
2.90091e-07
2.61015e-08
2.90282e-07
2.47968e-08
2.90456e-07
2.36308e-08
2.90618e-07
2.25777e-08
2.90768e-07
2.16168e-08
2.90908e-07
2.07336e-08
2.9104e-07
1.99168e-08
2.91165e-07
1.91571e-08
2.91284e-07
1.84465e-08
2.91398e-07
1.77782e-08
2.91506e-07
1.71465e-08
2.91611e-07
1.65462e-08
2.91712e-07
1.5973e-08
2.91809e-07
1.54231e-08
2.91904e-07
1.4893e-08
2.91997e-07
1.43798e-08
2.92088e-07
1.38807e-08
2.92178e-07
1.33934e-08
2.92266e-07
1.29153e-08
2.92354e-07
1.24444e-08
2.92441e-07
1.19783e-08
2.92527e-07
1.15151e-08
2.92614e-07
1.10524e-08
2.927e-07
1.05885e-08
2.92785e-07
1.01207e-08
2.9287e-07
9.64807e-09
2.92955e-07
9.1676e-09
2.93039e-07
8.68e-09
2.93121e-07
8.18248e-09
2.93202e-07
7.67922e-09
2.9328e-07
7.16905e-09
2.93357e-07
6.6626e-09
2.93429e-07
6.16533e-09
2.93499e-07
5.69812e-09
2.93566e-07
5.28729e-09
2.93633e-07
4.97057e-09
2.93712e-07
4.82243e-09
2.93812e-07
4.92186e-09
2.93989e-07
5.39734e-09
6.4156e-09
2.94313e-07
2.90307e-07
3.32328e-08
2.93329e-07
5.55957e-08
2.94579e-07
4.73172e-08
2.95595e-07
4.06575e-08
2.96436e-07
3.84842e-08
2.96962e-07
3.60604e-08
2.97332e-07
3.31512e-08
2.97654e-07
3.07595e-08
2.97939e-07
2.89091e-08
2.98183e-07
2.73196e-08
2.98397e-07
2.58875e-08
2.9859e-07
2.46037e-08
2.98767e-07
2.34539e-08
2.9893e-07
2.24146e-08
2.99081e-07
2.14654e-08
2.99223e-07
2.0592e-08
2.99356e-07
1.97836e-08
2.99482e-07
1.90311e-08
2.99602e-07
1.83269e-08
2.99716e-07
1.76641e-08
2.99825e-07
1.70372e-08
2.9993e-07
1.64411e-08
3.00032e-07
1.58714e-08
3.0013e-07
1.53244e-08
3.00226e-07
1.47968e-08
3.00321e-07
1.42855e-08
3.00414e-07
1.37879e-08
3.00505e-07
1.33016e-08
3.00596e-07
1.28241e-08
3.00687e-07
1.23536e-08
3.00778e-07
1.18876e-08
3.00869e-07
1.14243e-08
3.0096e-07
1.09614e-08
3.01051e-07
1.04972e-08
3.01143e-07
1.00292e-08
3.01235e-07
9.55629e-09
3.01326e-07
9.07595e-09
3.01418e-07
8.58846e-09
3.01508e-07
8.09181e-09
3.01598e-07
7.58924e-09
3.01686e-07
7.08102e-09
3.01773e-07
6.57593e-09
3.01857e-07
6.08137e-09
3.0194e-07
5.6156e-09
3.02022e-07
5.20499e-09
3.02107e-07
4.8857e-09
3.02208e-07
4.72141e-09
3.02339e-07
4.79023e-09
3.02555e-07
5.18216e-09
6.03926e-09
3.02931e-07
2.98846e-07
3.0089e-08
3.01831e-07
5.26111e-08
3.03095e-07
4.60536e-08
3.04089e-07
3.96634e-08
3.04943e-07
3.76295e-08
3.05497e-07
3.55068e-08
3.05879e-07
3.27697e-08
3.06207e-07
3.04311e-08
3.06497e-07
2.86186e-08
3.06747e-07
2.70699e-08
3.06965e-07
2.56694e-08
3.07161e-07
2.44075e-08
3.07341e-07
2.32746e-08
3.07506e-07
2.22494e-08
3.07659e-07
2.13122e-08
3.07802e-07
2.0449e-08
3.07936e-07
1.96493e-08
3.08063e-07
1.89043e-08
3.08183e-07
1.82066e-08
3.08298e-07
1.75495e-08
3.08408e-07
1.69274e-08
3.08513e-07
1.63355e-08
3.08615e-07
1.57694e-08
3.08714e-07
1.52254e-08
3.08811e-07
1.47001e-08
3.08906e-07
1.41907e-08
3.08999e-07
1.36944e-08
3.09092e-07
1.32089e-08
3.09184e-07
1.2732e-08
3.09276e-07
1.22616e-08
3.09368e-07
1.17955e-08
3.09461e-07
1.13318e-08
3.09554e-07
1.08685e-08
3.09647e-07
1.04037e-08
3.09741e-07
9.93522e-09
3.09835e-07
9.4618e-09
3.0993e-07
8.98127e-09
3.10025e-07
8.49359e-09
3.10119e-07
7.99739e-09
3.10213e-07
7.49519e-09
3.10306e-07
6.98828e-09
3.10398e-07
6.48407e-09
3.10488e-07
5.99108e-09
3.10578e-07
5.52568e-09
3.1067e-07
5.11312e-09
3.10768e-07
4.78793e-09
3.10886e-07
4.60338e-09
3.11043e-07
4.63277e-09
3.11291e-07
4.93505e-09
5.62126e-09
3.11709e-07
3.07666e-07
2.72103e-08
3.10602e-07
4.96749e-08
3.11886e-07
4.47693e-08
3.12858e-07
3.86916e-08
3.13721e-07
3.67663e-08
3.14302e-07
3.49259e-08
3.14697e-07
3.23745e-08
3.15032e-07
3.0097e-08
3.15328e-07
2.8322e-08
3.15584e-07
2.68142e-08
3.15807e-07
2.54469e-08
3.16006e-07
2.4208e-08
3.16188e-07
2.30926e-08
3.16355e-07
2.2082e-08
3.1651e-07
2.11573e-08
3.16655e-07
2.03046e-08
3.1679e-07
1.95138e-08
3.16918e-07
1.87766e-08
3.17039e-07
1.80855e-08
3.17155e-07
1.74342e-08
3.17265e-07
1.68171e-08
3.17371e-07
1.62295e-08
3.17473e-07
1.5667e-08
3.17573e-07
1.5126e-08
3.1767e-07
1.46031e-08
3.17765e-07
1.40955e-08
3.17859e-07
1.36005e-08
3.17952e-07
1.31159e-08
3.18044e-07
1.26395e-08
3.18137e-07
1.21691e-08
3.1823e-07
1.17028e-08
3.18323e-07
1.12387e-08
3.18416e-07
1.07748e-08
3.18511e-07
1.03093e-08
3.18606e-07
9.84025e-09
3.18701e-07
9.36621e-09
3.18797e-07
8.88532e-09
3.18893e-07
8.39731e-09
3.1899e-07
7.90131e-09
3.19085e-07
7.39926e-09
3.19181e-07
6.89318e-09
3.19275e-07
6.38943e-09
3.19369e-07
5.89701e-09
3.19464e-07
5.43082e-09
3.19563e-07
5.01429e-09
3.19671e-07
4.67984e-09
3.19803e-07
4.47108e-09
3.19983e-07
4.45328e-09
3.20258e-07
4.66028e-09
5.16977e-09
3.20709e-07
3.16776e-07
2.45855e-08
3.19653e-07
4.67982e-08
3.20963e-07
4.3459e-08
3.21913e-07
3.77417e-08
3.2278e-07
3.58996e-08
3.23387e-07
3.43188e-08
3.23797e-07
3.1964e-08
3.24138e-07
2.97567e-08
3.2444e-07
2.80192e-08
3.24702e-07
2.65522e-08
3.2493e-07
2.52195e-08
3.25133e-07
2.40049e-08
3.25318e-07
2.29077e-08
3.25488e-07
2.19122e-08
3.25645e-07
2.10003e-08
3.25791e-07
2.01584e-08
3.25928e-07
1.93769e-08
3.26056e-07
1.86476e-08
3.26179e-07
1.79634e-08
3.26295e-07
1.73181e-08
3.26406e-07
1.67062e-08
3.26512e-07
1.61229e-08
3.26615e-07
1.55641e-08
3.26715e-07
1.50261e-08
3.26812e-07
1.45057e-08
3.26908e-07
1.4e-08
3.27002e-07
1.35064e-08
3.27095e-07
1.30226e-08
3.27188e-07
1.25465e-08
3.27281e-07
1.20762e-08
3.27374e-07
1.16097e-08
3.27468e-07
1.11452e-08
3.27562e-07
1.06807e-08
3.27657e-07
1.02145e-08
3.27752e-07
9.74478e-09
3.27848e-07
9.27006e-09
3.27945e-07
8.78875e-09
3.28042e-07
8.30034e-09
3.28139e-07
7.80437e-09
3.28236e-07
7.30233e-09
3.28332e-07
6.79669e-09
3.28429e-07
6.29298e-09
3.28525e-07
5.80024e-09
3.28624e-07
5.33205e-09
3.28729e-07
4.90964e-09
3.28846e-07
4.5626e-09
3.28991e-07
4.32592e-09
3.2919e-07
4.25425e-09
3.29489e-07
4.36129e-09
4.69147e-09
3.29968e-07
3.26186e-07
2.22018e-08
3.28993e-07
4.39918e-08
3.30333e-07
4.21183e-08
3.31262e-07
3.68127e-08
3.32128e-07
3.50342e-08
3.3276e-07
3.36867e-08
3.33187e-07
3.15368e-08
3.33534e-07
2.94097e-08
3.33843e-07
2.77103e-08
3.34111e-07
2.62838e-08
3.34344e-07
2.49869e-08
3.34551e-07
2.3798e-08
3.34739e-07
2.27197e-08
3.34911e-07
2.17398e-08
3.3507e-07
2.08411e-08
3.35218e-07
2.00105e-08
3.35357e-07
1.92385e-08
3.35487e-07
1.85174e-08
3.3561e-07
1.78402e-08
3.35727e-07
1.7201e-08
3.35839e-07
1.65944e-08
3.35946e-07
1.60157e-08
3.3605e-07
1.54607e-08
3.3615e-07
1.49258e-08
3.36248e-07
1.44078e-08
3.36344e-07
1.3904e-08
3.36438e-07
1.34118e-08
3.36532e-07
1.29289e-08
3.36626e-07
1.24532e-08
3.36719e-07
1.1983e-08
3.36812e-07
1.15163e-08
3.36906e-07