/*--------------------------------*- C++ -*----------------------------------*\
  =========                 |
  \\      /  F ield         | OpenFOAM: The Open Source CFD Toolbox
   \\    /   O peration     | Website:  https://openfoam.org
    \\  /    A nd           | Version:  7
     \\/     M anipulation  |
\*---------------------------------------------------------------------------*/
FoamFile
{
    version     2.0;
    format      ascii;
    class       volVectorField;
    location    "0.44";
    object      U;
}
// * * * * * * * * * * * * * * * * * * * * * * * * * * * * * * * * * * * * * //

dimensions      [0 1 -1 0 0 0 0];

internalField   nonuniform List<vector> 
70000
(
(0.553413 0.0169782 0)
(0.251413 0.00340051 0)
(0.165917 0.000319071 0)
(0.132431 4.91122e-05 0)
(0.117325 4.4153e-05 0)
(0.107367 5.23071e-05 0)
(0.0993977 4.44968e-05 0)
(0.0929569 3.54113e-05 0)
(0.0877168 2.93655e-05 0)
(0.0833526 2.52204e-05 0)
(0.0796362 2.20512e-05 0)
(0.0764203 1.95086e-05 0)
(0.0736036 1.74327e-05 0)
(0.0711121 1.57145e-05 0)
(0.0688898 1.42736e-05 0)
(0.0668933 1.30504e-05 0)
(0.0650884 1.20005e-05 0)
(0.063448 1.10906e-05 0)
(0.06195 1.02947e-05 0)
(0.0605765 9.59278e-06 0)
(0.0593126 8.96869e-06 0)
(0.0581461 8.40937e-06 0)
(0.0570665 7.90458e-06 0)
(0.0560653 7.44578e-06 0)
(0.055135 7.02614e-06 0)
(0.0542694 6.6399e-06 0)
(0.0534631 6.28241e-06 0)
(0.0527116 5.95039e-06 0)
(0.052011 5.6398e-06 0)
(0.0513579 5.35084e-06 0)
(0.0507497 5.07809e-06 0)
(0.0501837 4.82721e-06 0)
(0.0496581 4.59025e-06 0)
(0.0491711 4.3814e-06 0)
(0.0487211 4.18861e-06 0)
(0.048307 4.03902e-06 0)
(0.0479266 3.91965e-06 0)
(0.0475804 3.86698e-06 0)
(0.0472622 3.90029e-06 0)
(0.0469785 4.00205e-06 0)
(0.0467082 4.40378e-06 0)
(0.04648 4.67416e-06 0)
(0.0462221 6.12098e-06 0)
(0.0460445 6.11464e-06 0)
(0.0456987 1.10077e-05 0)
(0.0456038 7.8409e-06 0)
(0.0448529 2.49603e-05 0)
(0.0450906 5.97191e-06 0)
(0.0429737 7.16769e-05 0)
(0.0416884 -0.00163126 0)
(0.884862 0.0434935 0)
(0.650142 0.0201494 0)
(0.493964 0.00660519 0)
(0.403539 0.00275517 0)
(0.354828 0.00154821 0)
(0.323517 0.00113179 0)
(0.299625 0.000909246 0)
(0.280427 0.000744554 0)
(0.264727 0.000621765 0)
(0.251621 0.000531181 0)
(0.240459 0.000462367 0)
(0.230799 0.000408162 0)
(0.222337 0.000364314 0)
(0.214849 0.000328171 0)
(0.208168 0.000297932 0)
(0.202163 0.000272305 0)
(0.196733 0.000250334 0)
(0.191796 0.000231301 0)
(0.187287 0.000214656 0)
(0.183151 0.000199971 0)
(0.179343 0.000186906 0)
(0.175828 0.000175191 0)
(0.172574 0.000164607 0)
(0.169555 0.000154971 0)
(0.166748 0.000146135 0)
(0.164136 0.00013797 0)
(0.161702 0.000130369 0)
(0.159432 0.000123235 0)
(0.157314 0.000116486 0)
(0.15534 0.000110051 0)
(0.153501 0.000103856 0)
(0.151789 9.78577e-05 0)
(0.150199 9.19772e-05 0)
(0.148727 8.62226e-05 0)
(0.14737 8.04828e-05 0)
(0.146124 7.48765e-05 0)
(0.144985 6.91928e-05 0)
(0.143957 6.3812e-05 0)
(0.143026 5.82939e-05 0)
(0.142214 5.35747e-05 0)
(0.141468 4.8784e-05 0)
(0.140875 4.58768e-05 0)
(0.140251 4.3573e-05 0)
(0.139903 4.49761e-05 0)
(0.139192 5.03647e-05 0)
(0.139234 6.06287e-05 0)
(0.137722 9.0228e-05 0)
(0.13884 9.97895e-05 0)
(0.134377 0.00038008 0)
(0.13564 -0.00235714 0)
(0.991209 0.0499561 0)
(0.890919 0.0305637 0)
(0.76248 0.0146117 0)
(0.656517 0.00797159 0)
(0.585413 0.00487994 0)
(0.536048 0.00347446 0)
(0.498166 0.00273792 0)
(0.46755 0.00224335 0)
(0.442253 0.00187936 0)
(0.420967 0.00160747 0)
(0.402742 0.00139974 0)
(0.38691 0.00123609 0)
(0.372998 0.00110378 0)
(0.360657 0.000994734 0)
(0.34962 0.000903472 0)
(0.339683 0.000826099 0)
(0.330682 0.000759743 0)
(0.322486 0.000702246 0)
(0.314989 0.00065195 0)
(0.308105 0.000607569 0)
(0.301761 0.000568086 0)
(0.295897 0.000532683 0)
(0.290463 0.000500702 0)
(0.285416 0.000471599 0)
(0.280719 0.00044492 0)
(0.276342 0.000420278 0)
(0.272259 0.000397345 0)
(0.268445 0.00037583 0)
(0.264884 0.000355475 0)
(0.261557 0.000336057 0)
(0.258452 0.000317353 0)
(0.255557 0.000299195 0)
(0.252863 0.000281357 0)
(0.250362 0.000263787 0)
(0.248049 0.000246166 0)
(0.24592 0.000228711 0)
(0.243969 0.000210795 0)
(0.242201 0.000193352 0)
(0.240598 0.000174924 0)
(0.239195 0.000158234 0)
(0.237919 0.000139727 0)
(0.236897 0.000126531 0)
(0.235876 0.000109857 0)
(0.2353 0.000107916 0)
(0.234274 9.83716e-05 0)
(0.234396 0.000127914 0)
(0.23246 0.000144315 0)
(0.234218 0.000213145 0)
(0.228733 0.000571032 0)
(0.23254 -0.00191607 0)
(1.01554 0.0489543 0)
(1.00649 0.0357257 0)
(0.935877 0.020821 0)
(0.851997 0.0134998 0)
(0.782221 0.00919844 0)
(0.727079 0.00678299 0)
(0.682003 0.00538604 0)
(0.64426 0.00444415 0)
(0.61227 0.0037489 0)
(0.584835 0.00322241 0)
(0.561018 0.00281551 0)
(0.540113 0.00249281 0)
(0.521591 0.0022308 0)
(0.50505 0.00201409 0)
(0.490176 0.00183218 0)
(0.47672 0.00167756 0)
(0.464483 0.00154466 0)
(0.453303 0.0014293 0)
(0.443044 0.00132824 0)
(0.433599 0.00123895 0)
(0.424873 0.00115944 0)
(0.416789 0.0010881 0)
(0.409281 0.00102362 0)
(0.402294 0.000964937 0)
(0.39578 0.000911143 0)
(0.389697 0.000861472 0)
(0.38401 0.000815269 0)
(0.378689 0.000771951 0)
(0.373709 0.000731006 0)
(0.369046 0.000691976 0)
(0.364684 0.00065442 0)
(0.360604 0.000617978 0)
(0.356796 0.000582209 0)
(0.353248 0.000546941 0)
(0.349953 0.000511561 0)
(0.346904 0.000476367 0)
(0.344096 0.00044014 0)
(0.341533 0.000404499 0)
(0.339195 0.000366509 0)
(0.337122 0.000331309 0)
(0.335233 0.000291273 0)
(0.333676 0.000261089 0)
(0.332165 0.000219792 0)
(0.331211 0.000209365 0)
(0.32981 0.000169049 0)
(0.329753 0.000219544 0)
(0.327551 0.000195626 0)
(0.329304 0.000344311 0)
(0.323877 0.000694657 0)
(0.327715 -0.00120312 0)
(1.01435 0.0460988 0)
(1.04798 0.0373432 0)
(1.02456 0.0241892 0)
(0.974666 0.0175594 0)
(0.923466 0.0131097 0)
(0.876742 0.0102047 0)
(0.834592 0.00834323 0)
(0.796868 0.00701916 0)
(0.763342 0.0060071 0)
(0.733571 0.00521833 0)
(0.70704 0.00459514 0)
(0.683279 0.00409305 0)
(0.66189 0.0036806 0)
(0.64254 0.00333633 0)
(0.624955 0.00304517 0)
(0.608904 0.00279613 0)
(0.594197 0.00258097 0)
(0.580671 0.00239337 0)
(0.568191 0.0022284 0)
(0.556642 0.00208219 0)
(0.545925 0.00195165 0)
(0.535957 0.00183426 0)
(0.526666 0.00172798 0)
(0.51799 0.00163111 0)
(0.509875 0.00154222 0)
(0.502274 0.00146009 0)
(0.495148 0.00138368 0)
(0.488462 0.00131204 0)
(0.482184 0.00124435 0)
(0.47629 0.00117986 0)
(0.470757 0.00111786 0)
(0.465566 0.00105775 0)
(0.460703 0.00099883 0)
(0.456153 0.000940755 0)
(0.451908 0.000882561 0)
(0.447959 0.000824598 0)
(0.4443 0.000764966 0)
(0.440934 0.000705974 0)
(0.43784 0.000643036 0)
(0.435058 0.000583855 0)
(0.43251 0.000516255 0)
(0.430339 0.000463181 0)
(0.42827 0.000390051 0)
(0.426798 0.000364667 0)
(0.424966 0.00028539 0)
(0.424455 0.00034692 0)
(0.422079 0.000281193 0)
(0.423182 0.000479387 0)
(0.418461 0.000856542 0)
(0.42065 -0.000542951 0)
(1.00941 0.0430485 0)
(1.05563 0.0370989 0)
(1.05866 0.0253313 0)
(1.03629 0.019765 0)
(1.00711 0.0157982 0)
(0.976093 0.0129323 0)
(0.944574 0.0109589 0)
(0.913725 0.00947352 0)
(0.884404 0.00828023 0)
(0.856989 0.00731058 0)
(0.831558 0.00651887 0)
(0.808047 0.00586456 0)
(0.786336 0.00531623 0)
(0.766281 0.0048511 0)
(0.747736 0.0044525 0)
(0.730563 0.00410779 0)
(0.71463 0.0038072 0)
(0.699821 0.00354302 0)
(0.686031 0.00330915 0)
(0.673165 0.00310066 0)
(0.661141 0.00291358 0)
(0.649886 0.00274462 0)
(0.639334 0.00259108 0)
(0.629429 0.00245071 0)
(0.62012 0.00232156 0)
(0.611362 0.00220199 0)
(0.603116 0.00209056 0)
(0.595347 0.00198596 0)
(0.588025 0.00188706 0)
(0.581124 0.00179279 0)
(0.574621 0.00170218 0)
(0.568495 0.00161435 0)
(0.562732 0.00152831 0)
(0.557317 0.00144355 0)
(0.552239 0.00135871 0)
(0.547491 0.00127415 0)
(0.543064 0.00118732 0)
(0.538961 0.00110109 0)
(0.535164 0.00100934 0)
(0.531704 0.000922032 0)
(0.528518 0.000822882 0)
(0.525723 0.000742114 0)
(0.523092 0.000633394 0)
(0.521034 0.000585983 0)
(0.518759 0.000467081 0)
(0.517625 0.000522903 0)
(0.515111 0.000431173 0)
(0.515236 0.000634393 0)
(0.511263 0.00108351 0)
(0.511641 0.000112115 0)
(1.00635 0.0401807 0)
(1.05241 0.0361526 0)
(1.06605 0.0252554 0)
(1.05952 0.0205709 0)
(1.04687 0.017226 0)
(1.03081 0.014651 0)
(1.01192 0.0128174 0)
(0.991241 0.0113886 0)
(0.969855 0.0101881 0)
(0.948485 0.0091697 0)
(0.927574 0.00830698 0)
(0.907384 0.0075716 0)
(0.888061 0.00693906 0)
(0.869675 0.00639056 0)
(0.852243 0.00591167 0)
(0.835755 0.00549088 0)
(0.820179 0.00511891 0)
(0.805472 0.00478812 0)
(0.791589 0.00449227 0)
(0.77848 0.00422617 0)
(0.766099 0.0039855 0)
(0.7544 0.00376666 0)
(0.743339 0.00356658 0)
(0.732877 0.00338269 0)
(0.722975 0.00321273 0)
(0.7136 0.00305475 0)
(0.70472 0.00290701 0)
(0.696308 0.00276795 0)
(0.688339 0.00263615 0)
(0.680789 0.00251031 0)
(0.67364 0.00238919 0)
(0.666874 0.00227166 0)
(0.660478 0.00215649 0)
(0.654437 0.00204296 0)
(0.648745 0.00192938 0)
(0.643391 0.00181607 0)
(0.638371 0.00169989 0)
(0.633684 0.00158411 0)
(0.629319 0.00146142 0)
(0.625296 0.00134338 0)
(0.62157 0.00121074 0)
(0.618228 0.00109882 0)
(0.6151 0.000953699 0)
(0.612487 0.000877806 0)
(0.609808 0.000723213 0)
(0.60803 0.000756705 0)
(0.605368 0.00065622 0)
(0.604528 0.000835998 0)
(0.601028 0.00136672 0)
(0.600043 0.000801134 0)
(1.00506 0.0375036 0)
(1.04762 0.0350547 0)
(1.06395 0.0247087 0)
(1.06417 0.020603 0)
(1.06067 0.0177654 0)
(1.05476 0.0154929 0)
(1.04599 0.0138743 0)
(1.0348 0.0126101 0)
(1.0219 0.0115196 0)
(1.0079 0.0105634 0)
(0.993245 0.00972753 0)
(0.978299 0.00899396 0)
(0.963323 0.00834586 0)
(0.94851 0.00777011 0)
(0.933997 0.00725644 0)
(0.919876 0.00679638 0)
(0.906206 0.00638273 0)
(0.893022 0.00600932 0)
(0.880342 0.00567085 0)
(0.868172 0.00536277 0)
(0.856508 0.00508116 0)
(0.845342 0.00482263 0)
(0.834661 0.00458427 0)
(0.824451 0.00436349 0)
(0.814696 0.00415806 0)
(0.805378 0.00396592 0)
(0.796483 0.00378528 0)
(0.787993 0.00361443 0)
(0.779894 0.00345184 0)
(0.772171 0.00329603 0)
(0.764814 0.0031456 0)
(0.757808 0.00299927 0)
(0.751147 0.00285557 0)
(0.74482 0.00271363 0)
(0.738823 0.00257152 0)
(0.73315 0.00242944 0)
(0.727797 0.00228387 0)
(0.722765 0.00213821 0)
(0.718048 0.00198444 0)
(0.713658 0.00183494 0)
(0.709568 0.00166895 0)
(0.705835 0.00152423 0)
(0.702347 0.00134412 0)
(0.699301 0.00123532 0)
(0.696307 0.00105052 0)
(0.693995 0.00105027 0)
(0.691184 0.000951852 0)
(0.689572 0.00109959 0)
(0.686302 0.00169877 0)
(0.684408 0.00151622 0)
(1.00451 0.0349679 0)
(1.04359 0.0339753 0)
(1.05992 0.0240587 0)
(1.06221 0.0203148 0)
(1.06249 0.0178316 0)
(1.06181 0.0157736 0)
(1.05923 0.0143287 0)
(1.05467 0.0132298 0)
(1.04846 0.0122809 0)
(1.04091 0.0114359 0)
(1.03229 0.0106836 0)
(1.02286 0.0100101 0)
(1.01285 0.00940238 0)
(1.00246 0.00885097 0)
(0.991851 0.00834892 0)
(0.981152 0.00789059 0)
(0.970467 0.00747111 0)
(0.959879 0.0070862 0)
(0.949447 0.00673201 0)
(0.93922 0.00640514 0)
(0.929231 0.00610255 0)
(0.919504 0.00582153 0)
(0.910057 0.00555966 0)
(0.900902 0.00531474 0)
(0.892043 0.00508479 0)
(0.883486 0.00486799 0)
(0.87523 0.00466263 0)
(0.867274 0.00446709 0)
(0.859617 0.00427986 0)
(0.852254 0.00409945 0)
(0.845185 0.0039244 0)
(0.838404 0.00375336 0)
(0.83191 0.00358476 0)
(0.825701 0.00341762 0)
(0.819775 0.00324982 0)
(0.814132 0.00308149 0)
(0.808772 0.00290887 0)
(0.803697 0.00273533 0)
(0.798907 0.00255257 0)
(0.794409 0.00237309 0)
(0.790194 0.00217595 0)
(0.786291 0.00199906 0)
(0.782637 0.00178711 0)
(0.779351 0.001644 0)
(0.776185 0.00143448 0)
(0.773526 0.00139566 0)
(0.770623 0.00130421 0)
(0.76849 0.00142278 0)
(0.765352 0.00207051 0)
(0.76292 0.00223652 0)
(1.00412 0.0325375 0)
(1.04026 0.0329223 0)
(1.05616 0.0234249 0)
(1.05885 0.0199315 0)
(1.06022 0.0177041 0)
(1.06158 0.0157778 0)
(1.06194 0.0144343 0)
(1.06104 0.0134503 0)
(1.05897 0.0126168 0)
(1.05586 0.0118769 0)
(1.05178 0.0112169 0)
(1.04685 0.0106226 0)
(1.04121 0.0100809 0)
(1.03496 0.00958302 0)
(1.02824 0.00912318 0)
(1.02115 0.00869705 0)
(1.0138 0.00830111 0)
(1.00625 0.00793238 0)
(0.998592 0.00758819 0)
(0.99088 0.00726615 0)
(0.983167 0.00696412 0)
(0.975495 0.00668011 0)
(0.9679 0.00641235 0)
(0.960409 0.00615916 0)
(0.953047 0.00591899 0)
(0.945831 0.00569033 0)
(0.938777 0.00547179 0)
(0.931897 0.00526194 0)
(0.925201 0.00505941 0)
(0.918696 0.00486284 0)
(0.912388 0.00467082 0)
(0.906283 0.00448202 0)
(0.900386 0.00429486 0)
(0.894701 0.00410832 0)
(0.889233 0.00392021 0)
(0.883985 0.00373058 0)
(0.878963 0.0035356 0)
(0.874171 0.00333848 0)
(0.869615 0.003131 0)
(0.865301 0.00292528 0)
(0.861227 0.00270121 0)
(0.857413 0.00249518 0)
(0.853823 0.00225607 0)
(0.850528 0.00208035 0)
(0.847375 0.00185158 0)
(0.844593 0.00177485 0)
(0.841716 0.00169206 0)
(0.839321 0.00178978 0)
(0.836337 0.00246691 0)
(0.833689 0.00293358 0)
(1.00374 0.0302034 0)
(1.03727 0.0318737 0)
(1.05282 0.0228223 0)
(1.05561 0.0195305 0)
(1.05713 0.0175152 0)
(1.05904 0.0156778 0)
(1.06047 0.0143819 0)
(1.06115 0.0134613 0)
(1.06115 0.0127009 0)
(1.0605 0.0120347 0)
(1.05919 0.0114463 0)
(1.05726 0.0109202 0)
(1.05472 0.0104421 0)
(1.05163 0.0100019 0)
(1.04805 0.00959331 0)
(1.04403 0.00921188 0)
(1.03965 0.00885429 0)
(1.03495 0.00851791 0)
(1.03 0.00820052 0)
(1.02484 0.00790024 0)
(1.01953 0.00761542 0)
(1.01411 0.00734456 0)
(1.00861 0.00708634 0)
(1.00307 0.0068395 0)
(0.997518 0.00660287 0)
(0.991979 0.00637527 0)
(0.986475 0.00615559 0)
(0.981027 0.00594266 0)
(0.975651 0.00573531 0)
(0.970362 0.00553232 0)
(0.965173 0.00533241 0)
(0.960094 0.00513435 0)
(0.955138 0.00493658 0)
(0.950314 0.00473811 0)
(0.94563 0.00453676 0)
(0.941094 0.00433251 0)
(0.936716 0.00412157 0)
(0.932504 0.00390695 0)
(0.928464 0.00368074 0)
(0.924607 0.00345439 0)
(0.920933 0.00320924 0)
(0.917459 0.00297913 0)
(0.914164 0.00271891 0)
(0.911093 0.00251488 0)
(0.908152 0.00227263 0)
(0.905473 0.00216253 0)
(0.902774 0.00208869 0)
(0.900363 0.00217624 0)
(0.897623 0.0028656 0)
(0.895041 0.00357817 0)
(1.00337 0.027968 0)
(1.03443 0.030817 0)
(1.04972 0.0222446 0)
(1.05265 0.0191268 0)
(1.05412 0.0173078 0)
(1.0561 0.0155487 0)
(1.0578 0.0142749 0)
(1.059 0.013385 0)
(1.05981 0.012665 0)
(1.06026 0.0120416 0)
(1.06035 0.0114977 0)
(1.06005 0.0110177 0)
(1.05935 0.010586 0)
(1.05825 0.0101916 0)
(1.05678 0.00982702 0)
(1.05495 0.00948715 0)
(1.05279 0.0091682 0)
(1.05032 0.00886721 0)
(1.04757 0.00858183 0)
(1.04458 0.00831015 0)
(1.04138 0.00805057 0)
(1.038 0.00780173 0)
(1.03447 0.00756243 0)
(1.03082 0.0073316 0)
(1.02706 0.00710825 0)
(1.02323 0.00689141 0)
(1.01936 0.00668014 0)
(1.01544 0.00647344 0)
(1.01152 0.0062703 0)
(1.0076 0.00606965 0)
(1.0037 0.00587029 0)
(0.999831 0.0056711 0)
(0.996009 0.00547057 0)
(0.992245 0.00526777 0)
(0.988551 0.00506054 0)
(0.984936 0.00484882 0)
(0.981413 0.00462891 0)
(0.97799 0.00440361 0)
(0.974676 0.00416545 0)
(0.971481 0.00392505 0)
(0.96841 0.00366559 0)
(0.965478 0.00341775 0)
(0.96267 0.00314323 0)
(0.960019 0.00291697 0)
(0.957466 0.00266721 0)
(0.955084 0.00253079 0)
(0.952712 0.00246572 0)
(0.950499 0.00255357 0)
(0.948113 0.00324144 0)
(0.945825 0.0041426 0)
(1.00301 0.025835 0)
(1.03171 0.0297483 0)
(1.04672 0.0216882 0)
(1.04986 0.0187202 0)
(1.05131 0.0170886 0)
(1.05324 0.0154126 0)
(1.05498 0.0141543 0)
(1.05629 0.0132804 0)
(1.05733 0.0125833 0)
(1.05818 0.0119833 0)
(1.05882 0.0114636 0)
(1.05926 0.0110097 0)
(1.05946 0.0106063 0)
(1.05943 0.0102415 0)
(1.05915 0.00990724 0)
(1.05863 0.00959789 0)
(1.05788 0.00930909 0)
(1.05689 0.00903745 0)
(1.05568 0.00878024 0)
(1.05426 0.00853526 0)
(1.05264 0.00830071 0)
(1.05085 0.00807507 0)
(1.04889 0.00785706 0)
(1.04679 0.00764557 0)
(1.04457 0.0074396 0)
(1.04223 0.0072382 0)
(1.0398 0.00704047 0)
(1.0373 0.00684547 0)
(1.03474 0.00665224 0)
(1.03212 0.00645978 0)
(1.02948 0.00626696 0)
(1.02682 0.00607269 0)
(1.02414 0.00587551 0)
(1.02148 0.00567451 0)
(1.01882 0.00546756 0)
(1.0162 0.00525456 0)
(1.01361 0.00503194 0)
(1.01106 0.00480223 0)
(1.00857 0.00455853 0)
(1.00615 0.00431047 0)
(1.00379 0.00404333 0)
(1.00152 0.00378429 0)
(0.999314 0.00350223 0)
(0.997208 0.00326053 0)
(0.995162 0.00300884 0)
(0.993215 0.00285431 0)
(0.991281 0.00279776 0)
(0.989423 0.00289414 0)
(0.987484 0.00357028 0)
(0.985651 0.0046045 0)
(1.00268 0.0238067 0)
(1.02911 0.0286657 0)
(1.04381 0.0211526 0)
(1.04717 0.0183106 0)
(1.04862 0.0168561 0)
(1.05052 0.0152721 0)
(1.05225 0.0140309 0)
(1.05357 0.0131685 0)
(1.05465 0.0124877 0)
(1.05559 0.0119023 0)
(1.05641 0.0113959 0)
(1.0571 0.010956 0)
(1.05767 0.0105679 0)
(1.0581 0.0102197 0)
(1.05839 0.00990342 0)
(1.05854 0.00961297 0)
(1.05855 0.00934381 0)
(1.0584 0.00909225 0)
(1.0581 0.00885528 0)
(1.05766 0.00863043 0)
(1.05707 0.00841564 0)
(1.05634 0.00820918 0)
(1.05548 0.0080096 0)
(1.0545 0.00781563 0)
(1.0534 0.00762615 0)
(1.05219 0.00744013 0)
(1.0509 0.00725659 0)
(1.04951 0.00707457 0)
(1.04806 0.00689308 0)
(1.04653 0.00671112 0)
(1.04496 0.00652753 0)
(1.04334 0.00634125 0)
(1.04168 0.0061508 0)
(1.04 0.00595526 0)
(1.0383 0.00575253 0)
(1.03659 0.00554245 0)
(1.03488 0.00532157 0)
(1.03318 0.00509214 0)
(1.0315 0.00484787 0)
(1.02984 0.00459733 0)
(1.0282 0.00432799 0)
(1.02661 0.00406343 0)
(1.02504 0.00377957 0)
(1.02352 0.00352883 0)
(1.02203 0.00327977 0)
(1.02058 0.00311494 0)
(1.01913 0.00306668 0)
(1.01771 0.00317649 0)
(1.01627 0.0038334 0)
(1.01497 0.00494945 0)
(1.00238 0.021885 0)
(1.02664 0.0275685 0)
(1.04099 0.0206374 0)
(1.04456 0.0178996 0)
(1.04603 0.016609 0)
(1.0479 0.0151258 0)
(1.04962 0.0139061 0)
(1.05094 0.0130543 0)
(1.05201 0.012388 0)
(1.05295 0.0118148 0)
(1.0538 0.0113175 0)
(1.05456 0.0108859 0)
(1.05524 0.0105063 0)
(1.05584 0.0101673 0)
(1.05635 0.00986076 0)
(1.05679 0.00958085 0)
(1.05713 0.00932296 0)
(1.05739 0.00908335 0)
(1.05756 0.00885888 0)
(1.05764 0.00864695 0)
(1.05763 0.00844535 0)
(1.05752 0.00825219 0)
(1.05732 0.00806586 0)
(1.05704 0.00788495 0)
(1.05667 0.00770821 0)
(1.05621 0.0075345 0)
(1.05569 0.00736275 0)
(1.05509 0.00719191 0)
(1.05442 0.00702092 0)
(1.0537 0.00684875 0)
(1.05293 0.00667417 0)
(1.0521 0.00649613 0)
(1.05124 0.00631308 0)
(1.05034 0.00612411 0)
(1.0494 0.00592709 0)
(1.04845 0.00572179 0)
(1.04748 0.00550491 0)
(1.04649 0.00527838 0)
(1.0455 0.00503655 0)
(1.04451 0.00478688 0)
(1.04352 0.00451906 0)
(1.04253 0.0042531 0)
(1.04155 0.00397152 0)
(1.04057 0.00371684 0)
(1.0396 0.00347348 0)
(1.03864 0.00330474 0)
(1.03767 0.0032639 0)
(1.03671 0.00338868 0)
(1.03576 0.00402079 0)
(1.03501 0.00517275 0)
(1.0021 0.0200708 0)
(1.0243 0.0264587 0)
(1.03826 0.0201404 0)
(1.04203 0.017489 0)
(1.04352 0.0163473 0)
(1.04537 0.0149724 0)
(1.04709 0.0137793 0)
(1.04841 0.012938 0)
(1.04947 0.0122863 0)
(1.05039 0.0117251 0)
(1.05124 0.011236 0)
(1.052 0.0108107 0)
(1.0527 0.0104371 0)
(1.05333 0.0101038 0)
(1.05391 0.00980297 0)
(1.05444 0.00952898 0)
(1.05492 0.00927734 0)
(1.05534 0.00904435 0)
(1.05571 0.00882692 0)
(1.05603 0.00862241 0)
(1.05629 0.00842857 0)
(1.05649 0.00824345 0)
(1.05664 0.00806536 0)
(1.05673 0.0078928 0)
(1.05677 0.00772443 0)
(1.05676 0.00755904 0)
(1.05669 0.00739546 0)
(1.05658 0.00723259 0)
(1.05642 0.00706931 0)
(1.05621 0.00690452 0)
(1.05596 0.00673698 0)
(1.05568 0.00656556 0)
(1.05536 0.00638871 0)
(1.05501 0.00620547 0)
(1.05463 0.00601373 0)
(1.05422 0.00581315 0)
(1.0538 0.00560061 0)
(1.05335 0.00537769 0)
(1.05289 0.00513943 0)
(1.05242 0.00489216 0)
(1.05193 0.0046277 0)
(1.05144 0.00436273 0)
(1.05093 0.00408563 0)
(1.05041 0.00383047 0)
(1.04988 0.00359412 0)
(1.04934 0.00342593 0)
(1.04878 0.00339068 0)
(1.04824 0.003529 0)
(1.04773 0.00413113 0)
(1.04748 0.00527951 0)
(1.00185 0.0183644 0)
(1.0221 0.0253402 0)
(1.03562 0.019658 0)
(1.0396 0.0170806 0)
(1.04111 0.0160716 0)
(1.04292 0.014811 0)
(1.04465 0.0136499 0)
(1.04597 0.0128196 0)
(1.04701 0.0121824 0)
(1.04793 0.0116339 0)
(1.04876 0.0111531 0)
(1.04951 0.010734 0)
(1.0502 0.0103655 0)
(1.05083 0.0100368 0)
(1.05142 0.00974016 0)
(1.05197 0.00947009 0)
(1.05248 0.0092223 0)
(1.05295 0.00899319 0)
(1.05339 0.00877975 0)
(1.05379 0.00857938 0)
(1.05416 0.00838985 0)
(1.0545 0.0082092 0)
(1.0548 0.00803573 0)
(1.05508 0.0078679 0)
(1.05531 0.00770435 0)
(1.05552 0.0075438 0)
(1.0557 0.00738507 0)
(1.05584 0.00722701 0)
(1.05596 0.00706846 0)
(1.05605 0.00690829 0)
(1.05611 0.00674523 0)
(1.05615 0.00657815 0)
(1.05616 0.00640547 0)
(1.05615 0.0062262 0)
(1.05613 0.00603826 0)
(1.05608 0.00584121 0)
(1.05601 0.00563215 0)
(1.05593 0.00541227 0)
(1.05583 0.00517735 0)
(1.05572 0.0049326 0)
(1.05559 0.00467186 0)
(1.05545 0.0044088 0)
(1.05528 0.00413676 0)
(1.05511 0.00388301 0)
(1.05491 0.00365347 0)
(1.05469 0.00348816 0)
(1.05446 0.00345589 0)
(1.05426 0.00360372 0)
(1.05411 0.00417045 0)
(1.05429 0.00528243 0)
(1.00162 0.0167655 0)
(1.02004 0.0242174 0)
(1.03309 0.019186 0)
(1.03725 0.0166761 0)
(1.03879 0.015783 0)
(1.04057 0.0146409 0)
(1.04229 0.0135178 0)
(1.04361 0.0126989 0)
(1.04465 0.0120763 0)
(1.04555 0.0115411 0)
(1.04637 0.0110692 0)
(1.04711 0.0106564 0)
(1.04778 0.010293 0)
(1.04841 0.00996865 0)
(1.04899 0.00967576 0)
(1.04953 0.00940899 0)
(1.05004 0.00916416 0)
(1.05052 0.00893781 0)
(1.05097 0.00872701 0)
(1.0514 0.0085292 0)
(1.0518 0.00834219 0)
(1.05218 0.00816406 0)
(1.05254 0.00799311 0)
(1.05288 0.0078278 0)
(1.0532 0.00766676 0)
(1.0535 0.00750871 0)
(1.05378 0.00735245 0)
(1.05405 0.00719683 0)
(1.0543 0.00704066 0)
(1.05454 0.00688284 0)
(1.05476 0.00672207 0)
(1.05496 0.00655721 0)
(1.05516 0.00638672 0)
(1.05534 0.00620956 0)
(1.05551 0.00602374 0)
(1.05567 0.0058287 0)
(1.05582 0.00562178 0)
(1.05595 0.00540385 0)
(1.05607 0.00517134 0)
(1.05618 0.00492849 0)
(1.05628 0.00467092 0)
(1.05636 0.00440973 0)
(1.05643 0.00414228 0)
(1.05647 0.00389054 0)
(1.0565 0.00366663 0)
(1.05651 0.00350465 0)
(1.05651 0.00347232 0)
(1.05657 0.00362348 0)
(1.0567 0.00414953 0)
(1.0572 0.00519813 0)
(1.00142 0.0152734 0)
(1.01811 0.0230943 0)
(1.03067 0.0187204 0)
(1.03498 0.0162769 0)
(1.03657 0.0154828 0)
(1.0383 0.0144615 0)
(1.04002 0.0133826 0)
(1.04134 0.0125759 0)
(1.04238 0.0119677 0)
(1.04327 0.0114463 0)
(1.04407 0.010984 0)
(1.0448 0.0105778 0)
(1.04546 0.0102197 0)
(1.04608 0.0098998 0)
(1.04664 0.00961067 0)
(1.04718 0.00934709 0)
(1.04768 0.00910501 0)
(1.04815 0.00888109 0)
(1.04859 0.00867245 0)
(1.04902 0.0084766 0)
(1.04943 0.00829138 0)
(1.04981 0.0081149 0)
(1.05018 0.00794546 0)
(1.05054 0.00778155 0)
(1.05089 0.0076218 0)
(1.05122 0.00746494 0)
(1.05154 0.00730977 0)
(1.05185 0.00715514 0)
(1.05215 0.00699988 0)
(1.05245 0.00684288 0)
(1.05274 0.00668287 0)
(1.05302 0.00651872 0)
(1.0533 0.00634892 0)
(1.05357 0.00617242 0)
(1.05384 0.00598733 0)
(1.0541 0.00579298 0)
(1.05436 0.00558699 0)
(1.05461 0.00536988 0)
(1.05485 0.00513875 0)
(1.05508 0.00489695 0)
(1.0553 0.00464167 0)
(1.05552 0.00438187 0)
(1.05571 0.004118 0)
(1.05589 0.00386812 0)
(1.05606 0.00364813 0)
(1.05622 0.0034886 0)
(1.05638 0.00345297 0)
(1.05661 0.0036 0)
(1.05695 0.00408014 0)
(1.05769 0.00504398 0)
(1.00124 0.0138865 0)
(1.01632 0.021975 0)
(1.02835 0.0182575 0)
(1.03281 0.0158842 0)
(1.03444 0.0151726 0)
(1.03613 0.0142723 0)
(1.03783 0.0132438 0)
(1.03917 0.0124508 0)
(1.0402 0.0118565 0)
(1.04108 0.0113496 0)
(1.04187 0.0108974 0)
(1.04259 0.0104981 0)
(1.04324 0.0101455 0)
(1.04384 0.00983024 0)
(1.0444 0.00954501 0)
(1.04492 0.00928469 0)
(1.0454 0.00904539 0)
(1.04586 0.00882386 0)
(1.0463 0.00861728 0)
(1.04672 0.00842322 0)
(1.04712 0.00823957 0)
(1.0475 0.00806442 0)
(1.04787 0.00789611 0)
(1.04822 0.00773315 0)
(1.04857 0.00757415 0)
(1.0489 0.00741787 0)
(1.04923 0.0072631 0)
(1.04956 0.00710872 0)
(1.04987 0.00695356 0)
(1.05019 0.00679655 0)
(1.0505 0.00663642 0)
(1.05081 0.00647207 0)
(1.05112 0.00630205 0)
(1.05143 0.00612528 0)
(1.05174 0.00593999 0)
(1.05204 0.00574542 0)
(1.05234 0.00553945 0)
(1.05264 0.00532231 0)
(1.05294 0.00509172 0)
(1.05323 0.00485025 0)
(1.05351 0.00459639 0)
(1.05379 0.00433739 0)
(1.05405 0.00407599 0)
(1.05431 0.00382742 0)
(1.05455 0.00360948 0)
(1.0548 0.00345081 0)
(1.05506 0.0034083 0)
(1.05541 0.00354405 0)
(1.0559 0.00397231 0)
(1.05681 0.00483514 0)
(1.00107 0.012603 0)
(1.01466 0.0208633 0)
(1.02614 0.0177938 0)
(1.03072 0.015499 0)
(1.0324 0.0148544 0)
(1.03406 0.0140729 0)
(1.03574 0.013101 0)
(1.03708 0.0123234 0)
(1.0381 0.0117429 0)
(1.03898 0.0112507 0)
(1.03976 0.0108093 0)
(1.04046 0.0104173 0)
(1.04111 0.0100704 0)
(1.0417 0.00975992 0)
(1.04224 0.00947872 0)
(1.04275 0.00922179 0)
(1.04323 0.00898535 0)
(1.04368 0.00876626 0)
(1.0441 0.00856178 0)
(1.04451 0.00836952 0)
(1.0449 0.00818739 0)
(1.04527 0.00801351 0)
(1.04563 0.00784622 0)
(1.04598 0.00768405 0)
(1.04632 0.00752561 0)
(1.04665 0.00736966 0)
(1.04697 0.00721502 0)
(1.04729 0.00706057 0)
(1.04761 0.00690516 0)
(1.04793 0.00674773 0)
(1.04824 0.00658705 0)
(1.04856 0.00642205 0)
(1.04887 0.00625131 0)
(1.04919 0.00607377 0)
(1.04951 0.00588775 0)
(1.04982 0.00569244 0)
(1.05014 0.00548595 0)
(1.05046 0.00526826 0)
(1.05078 0.00503762 0)
(1.05109 0.00479598 0)
(1.0514 0.00454283 0)
(1.0517 0.00428416 0)
(1.05199 0.00402422 0)
(1.05228 0.00377625 0)
(1.05257 0.00355859 0)
(1.05287 0.00339862 0)
(1.05319 0.00334611 0)
(1.05362 0.00346303 0)
(1.05421 0.00383434 0)
(1.05525 0.00458405 0)
(1.00093 0.0114201 0)
(1.01314 0.0197635 0)
(1.02404 0.0173264 0)
(1.02872 0.0151217 0)
(1.03046 0.01453 0)
(1.03207 0.0138629 0)
(1.03373 0.0129537 0)
(1.03507 0.0121939 0)
(1.0361 0.0116267 0)
(1.03697 0.0111495 0)
(1.03774 0.0107195 0)
(1.03843 0.0103352 0)
(1.03907 0.00999424 0)
(1.03965 0.00968875 0)
(1.04018 0.00941175 0)
(1.04068 0.00915833 0)
(1.04115 0.00892486 0)
(1.04159 0.0087083 0)
(1.042 0.00850598 0)
(1.0424 0.00831556 0)
(1.04278 0.00813498 0)
(1.04314 0.00796238 0)
(1.04349 0.00779611 0)
(1.04383 0.00763469 0)
(1.04416 0.00747676 0)
(1.04448 0.00732108 0)
(1.0448 0.00716647 0)
(1.04512 0.00701183 0)
(1.04543 0.00685602 0)
(1.04574 0.00669801 0)
(1.04605 0.00653661 0)
(1.04636 0.00637074 0)
(1.04667 0.00619907 0)
(1.04698 0.00602051 0)
(1.0473 0.00583353 0)
(1.04761 0.0056372 0)
(1.04793 0.0054299 0)
(1.04825 0.00521138 0)
(1.04857 0.00498034 0)
(1.04889 0.00473822 0)
(1.0492 0.0044853 0)
(1.04951 0.00422656 0)
(1.04981 0.00396722 0)
(1.05012 0.00371909 0)
(1.05042 0.00350013 0)
(1.05075 0.00333653 0)
(1.05111 0.00327093 0)
(1.0516 0.00336229 0)
(1.05227 0.00367137 0)
(1.0534 0.00429957 0)
(1.0008 0.0103346 0)
(1.01173 0.0186797 0)
(1.02206 0.0168524 0)
(1.0268 0.0147527 0)
(1.02861 0.0142015 0)
(1.03018 0.0136423 0)
(1.03182 0.0128011 0)
(1.03316 0.0120621 0)
(1.03419 0.0115081 0)
(1.03505 0.0110459 0)
(1.03581 0.0106279 0)
(1.0365 0.0102519 0)
(1.03712 0.00991701 0)
(1.03769 0.00961666 0)
(1.03822 0.00934401 0)
(1.03871 0.00909424 0)
(1.03916 0.00886384 0)
(1.03959 0.0086499 0)
(1.04 0.00844983 0)
(1.04039 0.00826131 0)
(1.04076 0.00808233 0)
(1.04111 0.00791104 0)
(1.04145 0.00774581 0)
(1.04178 0.00758517 0)
(1.0421 0.00742775 0)
(1.04242 0.00727233 0)
(1.04273 0.00711772 0)
(1.04303 0.00696284 0)
(1.04333 0.0068066 0)
(1.04364 0.00664795 0)
(1.04394 0.00648575 0)
(1.04424 0.00631894 0)
(1.04455 0.00614625 0)
(1.04486 0.00596659 0)
(1.04516 0.00577851 0)
(1.04548 0.00558107 0)
(1.04579 0.00537281 0)
(1.0461 0.00515334 0)
(1.04641 0.00492168 0)
(1.04673 0.00467891 0)
(1.04704 0.00442585 0)
(1.04735 0.00416673 0)
(1.04765 0.00390727 0)
(1.04797 0.00365821 0)
(1.04828 0.00343647 0)
(1.04863 0.0032669 0)
(1.04902 0.00318516 0)
(1.04955 0.0032453 0)
(1.05028 0.00348687 0)
(1.05147 0.00398748 0)
(1.00069 0.00934269 0)
(1.01046 0.017616 0)
(1.02019 0.0163696 0)
(1.02497 0.0143919 0)
(1.02685 0.0138709 0)
(1.02839 0.0134113 0)
(1.02999 0.0126427 0)
(1.03133 0.0119279 0)
(1.03237 0.0113869 0)
(1.03321 0.0109397 0)
(1.03397 0.0105344 0)
(1.03465 0.0101671 0)
(1.03526 0.00983859 0)
(1.03583 0.00954357 0)
(1.03634 0.00927543 0)
(1.03682 0.00902944 0)
(1.03727 0.00880224 0)
(1.03769 0.00859102 0)
(1.03809 0.00839326 0)
(1.03847 0.00820672 0)
(1.03883 0.00802939 0)
(1.03918 0.00785946 0)
(1.03951 0.00769531 0)
(1.03983 0.00753546 0)
(1.04014 0.00737857 0)
(1.04045 0.0072234 0)
(1.04075 0.00706881 0)
(1.04105 0.00691369 0)
(1.04134 0.00675699 0)
(1.04164 0.00659768 0)
(1.04193 0.00643466 0)
(1.04223 0.00626689 0)
(1.04252 0.00609314 0)
(1.04282 0.00591234 0)
(1.04312 0.00572314 0)
(1.04343 0.00552455 0)
(1.04373 0.00531527 0)
(1.04404 0.00509477 0)
(1.04435 0.00486238 0)
(1.04465 0.00461884 0)
(1.04496 0.00436536 0)
(1.04526 0.00410558 0)
(1.04557 0.00384537 0)
(1.04588 0.00359455 0)
(1.0462 0.00336869 0)
(1.04656 0.00319076 0)
(1.04698 0.00309019 0)
(1.04754 0.00311367 0)
(1.04831 0.00328403 0)
(1.04955 0.00365351 0)
(1.0006 0.00844006 0)
(1.0093 0.0165763 0)
(1.01843 0.0158762 0)
(1.02323 0.0140391 0)
(1.02517 0.0135401 0)
(1.02668 0.0131704 0)
(1.02825 0.0124779 0)
(1.02959 0.0117912 0)
(1.03063 0.0112634 0)
(1.03147 0.010831 0)
(1.03222 0.0104389 0)
(1.03289 0.0100807 0)
(1.0335 0.0097589 0)
(1.03405 0.00946937 0)
(1.03456 0.00920591 0)
(1.03503 0.00896387 0)
(1.03547 0.00873998 0)
(1.03589 0.00853157 0)
(1.03628 0.00833622 0)
(1.03665 0.00815172 0)
(1.037 0.00797611 0)
(1.03734 0.00780759 0)
(1.03766 0.00764455 0)
(1.03797 0.00748553 0)
(1.03828 0.00732918 0)
(1.03858 0.00717429 0)
(1.03887 0.00701971 0)
(1.03916 0.00686436 0)
(1.03945 0.0067072 0)
(1.03973 0.00654723 0)
(1.04002 0.00638339 0)
(1.04031 0.00621464 0)
(1.0406 0.00603983 0)
(1.04089 0.00585789 0)
(1.04118 0.00566754 0)
(1.04148 0.00546778 0)
(1.04178 0.00525744 0)
(1.04208 0.00503591 0)
(1.04237 0.00480268 0)
(1.04267 0.00455829 0)
(1.04297 0.00430414 0)
(1.04327 0.00404342 0)
(1.04358 0.00378188 0)
(1.04389 0.00352847 0)
(1.04421 0.00329719 0)
(1.04458 0.00310868 0)
(1.04502 0.00298658 0)
(1.04561 0.00296901 0)
(1.04642 0.00306501 0)
(1.04768 0.00330163 0)
(1.00051 0.00762194 0)
(1.00825 0.0155647 0)
(1.01678 0.0153709 0)
(1.02157 0.0136935 0)
(1.02358 0.0132108 0)
(1.02506 0.0129203 0)
(1.0266 0.0123062 0)
(1.02794 0.0116517 0)
(1.02897 0.0111375 0)
(1.02981 0.0107195 0)
(1.03055 0.010341 0)
(1.03122 0.00999263 0)
(1.03182 0.00967784 0)
(1.03236 0.00939398 0)
(1.03287 0.00913537 0)
(1.03333 0.00889742 0)
(1.03376 0.00867698 0)