/*--------------------------------*- C++ -*----------------------------------*\
  =========                 |
  \\      /  F ield         | OpenFOAM: The Open Source CFD Toolbox
   \\    /   O peration     | Website:  https://openfoam.org
    \\  /    A nd           | Version:  7
     \\/     M anipulation  |
\*---------------------------------------------------------------------------*/
FoamFile
{
    version     2.0;
    format      ascii;
    class       volVectorField;
    location    "0.44";
    object      U_0;
}
// * * * * * * * * * * * * * * * * * * * * * * * * * * * * * * * * * * * * * //

dimensions      [0 1 -1 0 0 0 0];

internalField   nonuniform List<vector> 
70000
(
(0.553413 0.0169782 0)
(0.251413 0.00340051 0)
(0.165917 0.00031907 0)
(0.132432 4.91115e-05 0)
(0.117325 4.41522e-05 0)
(0.107367 5.23063e-05 0)
(0.0993981 4.44961e-05 0)
(0.0929574 3.54105e-05 0)
(0.0877173 2.93647e-05 0)
(0.0833532 2.52196e-05 0)
(0.0796369 2.20503e-05 0)
(0.076421 1.95076e-05 0)
(0.0736044 1.74316e-05 0)
(0.071113 1.57133e-05 0)
(0.0688908 1.42723e-05 0)
(0.0668944 1.30489e-05 0)
(0.0650897 1.19989e-05 0)
(0.0634493 1.10888e-05 0)
(0.0619515 1.02928e-05 0)
(0.0605781 9.59062e-06 0)
(0.0593144 8.96626e-06 0)
(0.058148 8.40663e-06 0)
(0.0570686 7.90148e-06 0)
(0.0560676 7.44226e-06 0)
(0.0551375 7.02212e-06 0)
(0.0542721 6.63531e-06 0)
(0.0534661 6.27715e-06 0)
(0.0527149 5.94435e-06 0)
(0.0520147 5.63284e-06 0)
(0.051362 5.34279e-06 0)
(0.0507542 5.06875e-06 0)
(0.0501887 4.81633e-06 0)
(0.0496638 4.57755e-06 0)
(0.0491775 4.36649e-06 0)
(0.0487284 4.17112e-06 0)
(0.0483152 4.01831e-06 0)
(0.047936 3.89539e-06 0)
(0.0475911 3.83797e-06 0)
(0.0472745 3.86654e-06 0)
(0.0469928 3.96122e-06 0)
(0.0467247 4.35703e-06 0)
(0.0464992 4.61718e-06 0)
(0.0462445 6.0571e-06 0)
(0.0460707 6.0394e-06 0)
(0.0457295 1.09264e-05 0)
(0.0456397 7.75657e-06 0)
(0.0448951 2.48838e-05 0)
(0.0451386 5.92043e-06 0)
(0.0430283 7.18314e-05 0)
(0.0417451 -0.00163356 0)
(0.884862 0.0434935 0)
(0.650142 0.0201494 0)
(0.493965 0.00660519 0)
(0.403539 0.00275516 0)
(0.354828 0.0015482 0)
(0.323518 0.00113178 0)
(0.299626 0.000909237 0)
(0.280428 0.000744546 0)
(0.264728 0.000621757 0)
(0.251622 0.000531172 0)
(0.24046 0.000462358 0)
(0.230801 0.000408152 0)
(0.222338 0.000364302 0)
(0.214851 0.000328159 0)
(0.20817 0.000297919 0)
(0.202166 0.000272291 0)
(0.196736 0.000250318 0)
(0.191799 0.000231284 0)
(0.18729 0.000214638 0)
(0.183154 0.000199951 0)
(0.179347 0.000186884 0)
(0.175832 0.000175166 0)
(0.172579 0.000164579 0)
(0.16956 0.00015494 0)
(0.166754 0.000146099 0)
(0.164142 0.00013793 0)
(0.161708 0.000130322 0)
(0.159439 0.000123182 0)
(0.157322 0.000116424 0)
(0.155349 0.00010998 0)
(0.15351 0.000103773 0)
(0.151799 9.77607e-05 0)
(0.150211 9.1863e-05 0)
(0.148741 8.60876e-05 0)
(0.147385 8.03226e-05 0)
(0.146141 7.4685e-05 0)
(0.145005 6.89639e-05 0)
(0.14398 6.35359e-05 0)
(0.143052 5.79624e-05 0)
(0.142244 5.31712e-05 0)
(0.141503 4.82998e-05 0)
(0.140916 4.52816e-05 0)
(0.1403 4.28641e-05 0)
(0.13996 4.40977e-05 0)
(0.13926 4.93447e-05 0)
(0.139314 5.93688e-05 0)
(0.137819 8.88745e-05 0)
(0.138951 9.81584e-05 0)
(0.134511 0.000379217 0)
(0.135792 -0.00235999 0)
(0.991209 0.049956 0)
(0.890919 0.0305637 0)
(0.76248 0.0146117 0)
(0.656518 0.00797157 0)
(0.585413 0.00487992 0)
(0.536049 0.00347444 0)
(0.498167 0.0027379 0)
(0.467551 0.00224333 0)
(0.442255 0.00187934 0)
(0.420969 0.00160745 0)
(0.402744 0.00139971 0)
(0.386912 0.00123606 0)
(0.373001 0.00110376 0)
(0.360659 0.000994704 0)
(0.349623 0.00090344 0)
(0.339686 0.000826065 0)
(0.330685 0.000759707 0)
(0.32249 0.000702206 0)
(0.314993 0.000651907 0)
(0.30811 0.000607522 0)
(0.301766 0.000568034 0)
(0.295903 0.000532625 0)
(0.290469 0.000500638 0)
(0.285422 0.000471526 0)
(0.280726 0.000444838 0)
(0.27635 0.000420185 0)
(0.272267 0.000397239 0)
(0.268454 0.000375709 0)
(0.264894 0.000355336 0)
(0.261568 0.000335896 0)
(0.258464 0.000317164 0)
(0.255571 0.000298974 0)
(0.252878 0.000281097 0)
(0.250379 0.000263477 0)
(0.248068 0.000245797 0)
(0.245941 0.000228269 0)
(0.243993 0.000210264 0)
(0.242229 0.000192709 0)
(0.24063 0.000174147 0)
(0.239232 0.000157283 0)
(0.237962 0.000138574 0)
(0.236948 0.000125105 0)
(0.235936 0.000108138 0)
(0.235372 0.000105763 0)
(0.23436 9.58278e-05 0)
(0.234497 0.000124695 0)
(0.232583 0.000140726 0)
(0.234362 0.00020868 0)
(0.228908 0.000567266 0)
(0.232747 -0.00191994 0)
(1.01554 0.0489543 0)
(1.00649 0.0357257 0)
(0.935877 0.020821 0)
(0.851997 0.0134997 0)
(0.782222 0.0091984 0)
(0.72708 0.00678295 0)
(0.682004 0.00538601 0)
(0.644262 0.00444412 0)
(0.612271 0.00374887 0)
(0.584837 0.00322237 0)
(0.561021 0.00281547 0)
(0.540116 0.00249277 0)
(0.521594 0.00223075 0)
(0.505053 0.00201403 0)
(0.490179 0.00183212 0)
(0.476724 0.0016775 0)
(0.464487 0.0015446 0)
(0.453307 0.00142924 0)
(0.443049 0.00132817 0)
(0.433604 0.00123887 0)
(0.424878 0.00115935 0)
(0.416795 0.001088 0)
(0.409288 0.00102352 0)
(0.402301 0.000964818 0)
(0.395787 0.000911009 0)
(0.389705 0.00086132 0)
(0.384019 0.000815097 0)
(0.378699 0.000771754 0)
(0.37372 0.000730779 0)
(0.369058 0.000691713 0)
(0.364696 0.000654113 0)
(0.360618 0.000617617 0)
(0.356812 0.000581784 0)
(0.353266 0.000546435 0)
(0.349972 0.000510957 0)
(0.346927 0.000475642 0)
(0.344121 0.000439266 0)
(0.341562 0.000403437 0)
(0.339229 0.000365219 0)
(0.337161 0.000329726 0)
(0.335279 0.000289342 0)
(0.333729 0.000258692 0)
(0.332228 0.000216881 0)
(0.331286 0.000205705 0)
(0.329901 0.000164681 0)
(0.329862 0.000213983 0)
(0.327683 0.000189262 0)
(0.32946 0.000336436 0)
(0.324067 0.000686946 0)
(0.327942 -0.00120924 0)
(1.01435 0.0460988 0)
(1.04798 0.0373431 0)
(1.02456 0.0241892 0)
(0.974666 0.0175594 0)
(0.923467 0.0131096 0)
(0.876743 0.0102046 0)
(0.834594 0.00834317 0)
(0.796869 0.00701911 0)
(0.763344 0.00600705 0)
(0.733573 0.00521828 0)
(0.707043 0.00459509 0)
(0.683282 0.00409299 0)
(0.661893 0.00368054 0)
(0.642543 0.00333626 0)
(0.624958 0.00304509 0)
(0.608908 0.00279605 0)
(0.594201 0.00258088 0)
(0.580675 0.00239327 0)
(0.568196 0.0022283 0)
(0.556647 0.00208208 0)
(0.545931 0.00195153 0)
(0.535963 0.00183412 0)
(0.526673 0.00172783 0)
(0.517997 0.00163094 0)
(0.509883 0.00154203 0)
(0.502283 0.00145988 0)
(0.495157 0.00138344 0)
(0.488471 0.00131176 0)
(0.482195 0.00124403 0)
(0.476302 0.00117949 0)
(0.47077 0.00111743 0)
(0.46558 0.00105725 0)
(0.460718 0.000998236 0)
(0.456171 0.000940047 0)
(0.451927 0.000881716 0)
(0.447982 0.00082358 0)
(0.444325 0.000763736 0)
(0.440963 0.000704477 0)
(0.437874 0.000641212 0)
(0.435097 0.000581612 0)
(0.432555 0.000513508 0)
(0.430392 0.000459762 0)
(0.428334 0.000385879 0)
(0.426873 0.000359406 0)
(0.425057 0.000279074 0)
(0.424564 0.00033886 0)
(0.422211 0.000271833 0)
(0.42334 0.000467841 0)
(0.418653 0.000844538 0)
(0.420882 -0.000552547 0)
(1.00941 0.0430485 0)
(1.05563 0.0370989 0)
(1.05866 0.0253312 0)
(1.03629 0.019765 0)
(1.00711 0.0157981 0)
(0.976093 0.0129322 0)
(0.944575 0.0109588 0)
(0.913727 0.00947345 0)
(0.884405 0.00828016 0)
(0.856991 0.0073105 0)
(0.83156 0.00651879 0)
(0.80805 0.00586448 0)
(0.786338 0.00531614 0)
(0.766284 0.004851 0)
(0.74774 0.0044524 0)
(0.730567 0.00410768 0)
(0.714634 0.00380708 0)
(0.699826 0.0035429 0)
(0.686036 0.00330902 0)
(0.67317 0.00310052 0)
(0.661147 0.00291342 0)
(0.649892 0.00274444 0)
(0.639341 0.00259089 0)
(0.629437 0.00245049 0)
(0.620128 0.00232132 0)
(0.611371 0.00220172 0)
(0.603125 0.00209025 0)
(0.595357 0.00198561 0)
(0.588036 0.00188665 0)
(0.581136 0.00179232 0)
(0.574633 0.00170163 0)
(0.568509 0.00161371 0)
(0.562748 0.00152755 0)
(0.557334 0.00144264 0)
(0.552259 0.00135762 0)
(0.547513 0.00127284 0)
(0.543089 0.00118573 0)
(0.53899 0.00109915 0)
(0.535197 0.00100698 0)
(0.531742 0.000919123 0)
(0.528562 0.00081931 0)
(0.525776 0.000737663 0)
(0.523154 0.000627942 0)
(0.521108 0.0005791 0)
(0.518848 0.000458766 0)
(0.517731 0.00051232 0)
(0.51524 0.000418715 0)
(0.515392 0.000619112 0)
(0.511451 0.00106709 0)
(0.511869 9.84041e-05 0)
(1.00635 0.0401807 0)
(1.05241 0.0361526 0)
(1.06605 0.0252553 0)
(1.05952 0.0205708 0)
(1.04687 0.0172259 0)
(1.03082 0.0146509 0)
(1.01192 0.0128173 0)
(0.991243 0.0113885 0)
(0.969856 0.0101881 0)
(0.948487 0.00916961 0)
(0.927576 0.00830688 0)
(0.907387 0.0075715 0)
(0.888064 0.00693895 0)
(0.869678 0.00639045 0)
(0.852247 0.00591154 0)
(0.835759 0.00549075 0)
(0.820183 0.00511876 0)
(0.805476 0.00478797 0)
(0.791593 0.0044921 0)
(0.778485 0.00422599 0)
(0.766105 0.0039853 0)
(0.754406 0.00376643 0)
(0.743346 0.00356634 0)
(0.732884 0.00338242 0)
(0.722982 0.00321243 0)
(0.713608 0.00305441 0)
(0.704729 0.00290663 0)
(0.696318 0.00276751 0)
(0.688349 0.00263565 0)
(0.680801 0.00250974 0)
(0.673653 0.00238851 0)
(0.666888 0.00227088 0)
(0.660493 0.00215556 0)
(0.654454 0.00204185 0)
(0.648764 0.00192805 0)
(0.643413 0.00181446 0)
(0.638396 0.00169795 0)
(0.633712 0.00158174 0)
(0.629351 0.00145852 0)
(0.625333 0.0013398 0)
(0.621614 0.00120634 0)
(0.618279 0.00109334 0)
(0.615161 0.000946963 0)
(0.612559 0.00086931 0)
(0.609894 0.000712882 0)
(0.608134 0.000743615 0)
(0.605493 0.000640632 0)
(0.604679 0.000816976 0)
(0.601211 0.00134585 0)
(0.600265 0.000782719 0)
(1.00506 0.0375036 0)
(1.04762 0.0350547 0)
(1.06395 0.0247087 0)
(1.06417 0.0206029 0)
(1.06067 0.0177653 0)
(1.05476 0.0154927 0)
(1.04599 0.0138742 0)
(1.0348 0.0126099 0)
(1.0219 0.0115195 0)
(1.0079 0.0105633 0)
(0.993248 0.00972741 0)
(0.978301 0.00899384 0)
(0.963326 0.00834573 0)
(0.948513 0.00776997 0)
(0.934001 0.00725629 0)
(0.91988 0.00679622 0)
(0.90621 0.00638256 0)
(0.893026 0.00600913 0)
(0.880347 0.00567065 0)
(0.868177 0.00536255 0)
(0.856513 0.00508092 0)
(0.845347 0.00482237 0)
(0.834667 0.00458397 0)
(0.824458 0.00436317 0)
(0.814703 0.00415769 0)
(0.805386 0.00396552 0)
(0.796492 0.00378482 0)
(0.788003 0.00361392 0)
(0.779904 0.00345125 0)
(0.772183 0.00329535 0)
(0.764826 0.00314481 0)
(0.757822 0.00299833 0)
(0.751162 0.00285447 0)
(0.744837 0.00271232 0)
(0.738842 0.00256994 0)
(0.733171 0.00242754 0)
(0.727822 0.00228156 0)
(0.722793 0.0021354 0)
(0.718079 0.001981 0)
(0.713694 0.0018307 0)
(0.709611 0.00166373 0)
(0.705885 0.00151773 0)
(0.702406 0.00133611 0)
(0.699371 0.00122523 0)
(0.696391 0.00103819 0)
(0.694095 0.00103471 0)
(0.691305 0.000933169 0)
(0.689718 0.00107688 0)
(0.686477 0.00167346 0)
(0.684622 0.00149253 0)
(1.00451 0.0349679 0)
(1.04359 0.0339752 0)
(1.05992 0.0240586 0)
(1.06221 0.0203147 0)
(1.06249 0.0178315 0)
(1.06181 0.0157735 0)
(1.05923 0.0143286 0)
(1.05467 0.0132296 0)
(1.04846 0.0122807 0)
(1.04091 0.0114358 0)
(1.03229 0.0106835 0)
(1.02286 0.01001 0)
(1.01285 0.00940222 0)
(1.00246 0.00885081 0)
(0.991854 0.00834875 0)
(0.981155 0.00789041 0)
(0.970471 0.00747092 0)
(0.959883 0.00708598 0)
(0.949452 0.00673177 0)
(0.939225 0.00640488 0)
(0.929236 0.00610227 0)
(0.91951 0.00582122 0)
(0.910064 0.00555931 0)
(0.900908 0.00531435 0)
(0.892051 0.00508437 0)
(0.883494 0.00486751 0)
(0.875238 0.00466209 0)
(0.867283 0.00446649 0)
(0.859627 0.00427917 0)
(0.852266 0.00409866 0)
(0.845197 0.00392348 0)
(0.838418 0.00375228 0)
(0.831926 0.00358349 0)
(0.825718 0.0034161 0)
(0.819794 0.003248 0)
(0.814153 0.0030793 0)
(0.808796 0.00290621 0)
(0.803724 0.00273209 0)
(0.798938 0.0025486 0)
(0.794445 0.0023682 0)
(0.790235 0.00216992 0)
(0.78634 0.00199156 0)
(0.782694 0.00177784 0)
(0.779418 0.00163236 0)
(0.776265 0.0014202 0)
(0.773622 0.00137769 0)
(0.770738 0.00128252 0)
(0.768629 0.00139647 0)
(0.765519 0.00204081 0)
(0.763125 0.00220737 0)
(1.00412 0.0325375 0)
(1.04026 0.0329223 0)
(1.05616 0.0234248 0)
(1.05885 0.0199313 0)
(1.06022 0.0177039 0)
(1.06158 0.0157777 0)
(1.06194 0.0144341 0)
(1.06104 0.0134501 0)
(1.05897 0.0126167 0)
(1.05586 0.0118768 0)
(1.05178 0.0112167 0)
(1.04686 0.0106224 0)
(1.04121 0.0100807 0)
(1.03497 0.00958284 0)
(1.02825 0.00912299 0)
(1.02116 0.00869684 0)
(1.0138 0.00830089 0)
(1.00625 0.00793214 0)
(0.998596 0.00758792 0)
(0.990885 0.00726586 0)
(0.983172 0.00696379 0)
(0.975501 0.00667975 0)
(0.967906 0.00641195 0)
(0.960416 0.00615872 0)
(0.953054 0.00591849 0)
(0.945839 0.00568978 0)
(0.938786 0.00547117 0)
(0.931907 0.00526124 0)
(0.925211 0.00505862 0)
(0.918707 0.00486193 0)
(0.912401 0.00466977 0)
(0.906297 0.00448079 0)
(0.900401 0.00429341 0)
(0.894718 0.00410659 0)
(0.889251 0.00391815 0)
(0.884006 0.0037281 0)
(0.878986 0.00353259 0)
(0.874198 0.00333481 0)
(0.869645 0.0031265 0)
(0.865336 0.00291975 0)
(0.861267 0.00269439 0)
(0.85746 0.00248669 0)
(0.853877 0.0022456 0)
(0.850592 0.00206722 0)
(0.847451 0.00183542 0)
(0.844684 0.00175458 0)
(0.841824 0.00166749 0)
(0.839451 0.00176 0)
(0.836494 0.00243289 0)
(0.833881 0.00289881 0)
(1.00374 0.0302034 0)
(1.03727 0.0318737 0)
(1.05282 0.0228222 0)
(1.05561 0.0195304 0)
(1.05713 0.017515 0)
(1.05904 0.0156776 0)
(1.06047 0.0143817 0)
(1.06115 0.0134611 0)
(1.06115 0.0127007 0)
(1.0605 0.0120345 0)
(1.0592 0.0114461 0)
(1.05726 0.01092 0)
(1.05472 0.0104419 0)
(1.05163 0.0100017 0)
(1.04805 0.00959309 0)
(1.04404 0.00921164 0)
(1.03965 0.00885404 0)
(1.03495 0.00851764 0)
(1.03 0.00820023 0)
(1.02485 0.00789991 0)
(1.01954 0.00761505 0)
(1.01411 0.00734415 0)
(1.00862 0.00708589 0)
(1.00308 0.00683899 0)
(0.997525 0.0066023 0)
(0.991986 0.00637464 0)
(0.986484 0.00615489 0)
(0.981036 0.00594187 0)
(0.975661 0.00573441 0)
(0.970373 0.00553129 0)
(0.965185 0.00533122 0)
(0.960108 0.00513296 0)
(0.955153 0.00493494 0)
(0.95033 0.00473617 0)
(0.945648 0.00453445 0)
(0.941115 0.00432973 0)
(0.936739 0.00411821 0)
(0.93253 0.00390286 0)
(0.928494 0.00367573 0)
(0.92464 0.00344823 0)
(0.920971 0.00320166 0)
(0.917504 0.00296971 0)
(0.914216 0.00270728 0)
(0.911155 0.00250032 0)
(0.908224 0.0022547 0)
(0.905558 0.0021401 0)
(0.902875 0.00206141 0)
(0.900484 0.0021432 0)
(0.897768 0.00282743 0)
(0.895219 0.0035378 0)
(1.00337 0.027968 0)
(1.03443 0.030817 0)
(1.04972 0.0222445 0)
(1.05265 0.0191267 0)
(1.05412 0.0173076 0)
(1.0561 0.0155485 0)
(1.0578 0.0142747 0)
(1.059 0.0133847 0)
(1.05981 0.0126648 0)
(1.06026 0.0120413 0)
(1.06035 0.0114974 0)
(1.06005 0.0110174 0)
(1.05935 0.0105858 0)
(1.05826 0.0101914 0)
(1.05679 0.00982678 0)
(1.05496 0.0094869 0)
(1.05279 0.00916792 0)
(1.05032 0.00886691 0)
(1.04758 0.0085815 0)
(1.04459 0.00830979 0)
(1.04139 0.00805017 0)
(1.03801 0.00780127 0)
(1.03448 0.00756192 0)
(1.03082 0.00733103 0)
(1.02707 0.00710762 0)
(1.02324 0.0068907 0)
(1.01936 0.00667935 0)
(1.01545 0.00647255 0)
(1.01153 0.00626929 0)
(1.00761 0.00606849 0)
(1.00371 0.00586895 0)
(0.999845 0.00566954 0)
(0.996024 0.00546875 0)
(0.992261 0.00526562 0)
(0.988569 0.00505798 0)
(0.984957 0.00484575 0)
(0.981435 0.00462521 0)
(0.978015 0.00439911 0)
(0.974704 0.00415996 0)
(0.971514 0.0039183 0)
(0.968448 0.00365728 0)
(0.96552 0.00340744 0)
(0.962719 0.00313051 0)
(0.960077 0.00290108 0)
(0.957533 0.00264762 0)
(0.955163 0.00250636 0)
(0.952805 0.00243594 0)
(0.95061 0.00251753 0)
(0.948245 0.00319934 0)
(0.945988 0.00409674 0)
(1.00301 0.0258349 0)
(1.03171 0.0297482 0)
(1.04672 0.0216881 0)
(1.04986 0.0187201 0)
(1.05131 0.0170885 0)
(1.05324 0.0154124 0)
(1.05498 0.014154 0)
(1.05629 0.0132802 0)
(1.05734 0.0125831 0)
(1.05818 0.011983 0)
(1.05883 0.0114633 0)
(1.05926 0.0110095 0)
(1.05946 0.010606 0)
(1.05943 0.0102412 0)
(1.05916 0.00990697 0)
(1.05864 0.0095976 0)
(1.05788 0.00930879 0)
(1.05689 0.00903712 0)
(1.05568 0.00877988 0)
(1.05426 0.00853487 0)
(1.05264 0.00830027 0)
(1.05085 0.00807457 0)
(1.0489 0.0078565 0)
(1.0468 0.00764494 0)
(1.04457 0.0074389 0)
(1.04224 0.00723741 0)
(1.03981 0.00703958 0)
(1.03731 0.00684447 0)
(1.03474 0.00665111 0)
(1.03213 0.00645849 0)
(1.02949 0.00626547 0)
(1.02683 0.00607097 0)
(1.02416 0.00587351 0)
(1.02149 0.00567215 0)
(1.01884 0.00546476 0)
(1.01622 0.00525121 0)
(1.01363 0.0050279 0)
(1.01109 0.00479734 0)
(1.0086 0.00455257 0)
(1.00618 0.00430315 0)
(1.00383 0.00403433 0)
(1.00156 0.00377315 0)
(0.999361 0.00348849 0)
(0.997262 0.00324341 0)
(0.995225 0.00298774 0)
(0.993288 0.00282805 0)
(0.991366 0.00276571 0)
(0.989524 0.00285535 0)
(0.987604 0.00352456 0)
(0.985798 0.00455334 0)
(1.00268 0.0238067 0)
(1.02911 0.0286656 0)
(1.04381 0.0211525 0)
(1.04717 0.0183105 0)
(1.04862 0.016856 0)
(1.05052 0.0152719 0)
(1.05225 0.0140307 0)
(1.05357 0.0131682 0)
(1.05465 0.0124874 0)
(1.05559 0.011902 0)
(1.05641 0.0113956 0)
(1.0571 0.0109557 0)
(1.05767 0.0105676 0)
(1.0581 0.0102195 0)
(1.0584 0.00990312 0)
(1.05855 0.00961266 0)
(1.05855 0.00934348 0)
(1.0584 0.00909189 0)
(1.0581 0.00885489 0)
(1.05766 0.00863 0)
(1.05707 0.00841516 0)
(1.05634 0.00820864 0)
(1.05548 0.008009 0)
(1.0545 0.00781495 0)
(1.0534 0.00762538 0)
(1.0522 0.00743926 0)
(1.0509 0.00725561 0)
(1.04952 0.00707347 0)
(1.04807 0.00689183 0)
(1.04654 0.0067097 0)
(1.04497 0.00652589 0)
(1.04335 0.00633936 0)
(1.0417 0.0061486 0)
(1.04002 0.00595269 0)
(1.03832 0.00574948 0)
(1.03661 0.00553881 0)
(1.03491 0.0053172 0)
(1.03321 0.00508686 0)
(1.03153 0.00484145 0)
(1.02987 0.00458947 0)
(1.02824 0.00431835 0)
(1.02664 0.00405151 0)
(1.02508 0.00376489 0)
(1.02357 0.00351058 0)
(1.02208 0.00325729 0)
(1.02064 0.00308705 0)
(1.01921 0.0030326 0)
(1.01781 0.00313522 0)
(1.01638 0.00378438 0)
(1.01511 0.00489331 0)
(1.00238 0.021885 0)
(1.02664 0.0275685 0)
(1.04099 0.0206373 0)
(1.04456 0.0178994 0)
(1.04603 0.0166089 0)
(1.0479 0.0151256 0)
(1.04962 0.0139058 0)
(1.05094 0.013054 0)
(1.05201 0.0123877 0)
(1.05295 0.0118145 0)
(1.0538 0.0113171 0)
(1.05456 0.0108855 0)
(1.05524 0.010506 0)
(1.05584 0.010167 0)
(1.05636 0.00986043 0)
(1.05679 0.00958051 0)
(1.05714 0.00932261 0)
(1.0574 0.00908297 0)
(1.05757 0.00885847 0)
(1.05765 0.00864649 0)
(1.05763 0.00844484 0)
(1.05752 0.00825161 0)
(1.05733 0.0080652 0)
(1.05704 0.00788421 0)
(1.05667 0.00770737 0)
(1.05622 0.00753355 0)
(1.05569 0.00736168 0)
(1.0551 0.0071907 0)
(1.05443 0.00701955 0)
(1.05371 0.00684719 0)
(1.05294 0.00667239 0)
(1.05211 0.00649407 0)
(1.05125 0.0063107 0)
(1.05035 0.00612132 0)
(1.04942 0.0059238 0)
(1.04847 0.00571787 0)
(1.0475 0.00550021 0)
(1.04652 0.00527271 0)
(1.04553 0.00502968 0)
(1.04454 0.0047785 0)
(1.04355 0.00450881 0)
(1.04257 0.00424046 0)
(1.04159 0.00395597 0)
(1.04062 0.00369757 0)
(1.03966 0.00344975 0)
(1.0387 0.00327539 0)
(1.03774 0.00322801 0)
(1.0368 0.00334518 0)
(1.03586 0.00396878 0)
(1.03513 0.00511198 0)
(1.0021 0.0200708 0)
(1.0243 0.0264586 0)
(1.03826 0.0201403 0)
(1.04203 0.0174888 0)
(1.04352 0.0163471 0)
(1.04537 0.0149722 0)
(1.04709 0.013779 0)
(1.04841 0.0129377 0)
(1.04947 0.0122859 0)
(1.0504 0.0117248 0)
(1.05124 0.0112356 0)
(1.052 0.0108104 0)
(1.0527 0.0104367 0)
(1.05334 0.0101034 0)
(1.05392 0.00980262 0)
(1.05444 0.00952862 0)
(1.05492 0.00927696 0)
(1.05534 0.00904394 0)
(1.05571 0.00882647 0)
(1.05603 0.00862192 0)
(1.05629 0.00842802 0)
(1.0565 0.00824283 0)
(1.05665 0.00806465 0)
(1.05674 0.007892 0)
(1.05678 0.00772353 0)
(1.05677 0.00755801 0)
(1.0567 0.0073943 0)
(1.05659 0.00723128 0)
(1.05642 0.00706782 0)
(1.05622 0.00690283 0)
(1.05597 0.00673504 0)
(1.05569 0.00656333 0)
(1.05537 0.00638613 0)
(1.05502 0.00620246 0)
(1.05465 0.00601019 0)
(1.05424 0.00580895 0)
(1.05382 0.0055956 0)
(1.05338 0.00537166 0)
(1.05292 0.00513214 0)
(1.05245 0.00488328 0)
(1.05196 0.00461687 0)
(1.05147 0.00434941 0)
(1.05097 0.00406928 0)
(1.05046 0.00381026 0)
(1.04993 0.00356927 0)
(1.0494 0.00339526 0)
(1.04885 0.00335317 0)
(1.04832 0.00348349 0)
(1.04782 0.0040764 0)
(1.04759 0.00521449 0)
(1.00185 0.0183644 0)
(1.0221 0.0253402 0)
(1.03562 0.0196579 0)
(1.0396 0.0170805 0)
(1.04111 0.0160714 0)
(1.04292 0.0148107 0)
(1.04465 0.0136496 0)
(1.04597 0.0128193 0)
(1.04702 0.0121821 0)
(1.04793 0.0116335 0)
(1.04876 0.0111528 0)
(1.04951 0.0107337 0)
(1.0502 0.0103651 0)
(1.05083 0.0100364 0)
(1.05142 0.00973978 0)
(1.05197 0.0094697 0)
(1.05248 0.00922189 0)
(1.05295 0.00899276 0)
(1.05339 0.00877928 0)
(1.0538 0.00857886 0)
(1.05417 0.00838926 0)
(1.05451 0.00820854 0)
(1.05481 0.00803497 0)
(1.05508 0.00786704 0)
(1.05532 0.00770337 0)
(1.05553 0.00754269 0)
(1.0557 0.00738382 0)
(1.05585 0.00722559 0)
(1.05597 0.00706685 0)
(1.05606 0.00690646 0)
(1.05612 0.00674314 0)
(1.05616 0.00657574 0)
(1.05617 0.00640269 0)
(1.05617 0.00622296 0)
(1.05614 0.00603447 0)
(1.0561 0.00583673 0)
(1.05603 0.00562681 0)
(1.05595 0.00540588 0)
(1.05586 0.00516964 0)
(1.05575 0.00492324 0)
(1.05562 0.00466047 0)
(1.05548 0.00439484 0)
(1.05532 0.00411965 0)
(1.05515 0.00386192 0)
(1.05495 0.00362758 0)
(1.05475 0.00345629 0)
(1.05452 0.00341692 0)
(1.05433 0.00355638 0)
(1.0542 0.00411322 0)
(1.05439 0.00521351 0)
(1.00162 0.0167655 0)
(1.02004 0.0242174 0)
(1.03309 0.0191859 0)
(1.03725 0.016676 0)
(1.03879 0.0157827 0)
(1.04057 0.0146406 0)
(1.04229 0.0135175 0)
(1.04361 0.0126985 0)
(1.04465 0.0120759 0)
(1.04555 0.0115407 0)
(1.04637 0.0110688 0)
(1.04711 0.010656 0)
(1.04779 0.0102926 0)
(1.04841 0.00996825 0)
(1.04899 0.00967536 0)
(1.04953 0.00940857 0)
(1.05004 0.00916372 0)
(1.05052 0.00893735 0)
(1.05098 0.0087265 0)
(1.0514 0.00852864 0)
(1.05181 0.00834157 0)
(1.05219 0.00816335 0)
(1.05255 0.0079923 0)
(1.05289 0.00782688 0)
(1.05321 0.00766571 0)
(1.05351 0.00750752 0)
(1.05379 0.0073511 0)
(1.05406 0.0071953 0)
(1.05431 0.00703893 0)
(1.05454 0.00688087 0)
(1.05477 0.00671982 0)
(1.05498 0.00655463 0)
(1.05517 0.00638374 0)
(1.05535 0.0062061 0)
(1.05553 0.00601969 0)
(1.05569 0.00582393 0)
(1.05584 0.00561613 0)
(1.05597 0.00539709 0)
(1.0561 0.00516322 0)
(1.05621 0.00491866 0)
(1.05631 0.00465899 0)
(1.0564 0.00439515 0)
(1.05646 0.00412445 0)
(1.05651 0.00386863 0)
(1.05654 0.00363978 0)
(1.05656 0.00347167 0)
(1.05657 0.00343202 0)
(1.05663 0.00357445 0)
(1.05678 0.00408997 0)
(1.0573 0.0051256 0)
(1.00142 0.0152734 0)
(1.01811 0.0230943 0)
(1.03067 0.0187203 0)
(1.03498 0.0162767 0)
(1.03657 0.0154825 0)
(1.0383 0.0144612 0)
(1.04002 0.0133822 0)
(1.04134 0.0125755 0)
(1.04238 0.0119672 0)
(1.04327 0.0114459 0)
(1.04407 0.0109835 0)
(1.0448 0.0105773 0)
(1.04547 0.0102192 0)
(1.04608 0.00989936 0)
(1.04665 0.00961024 0)
(1.04718 0.00934664 0)
(1.04768 0.00910455 0)
(1.04815 0.00888059 0)
(1.0486 0.00867191 0)
(1.04902 0.008476 0)
(1.04943 0.00829071 0)
(1.04982 0.00811414 0)
(1.05019 0.0079446 0)
(1.05055 0.00778057 0)
(1.05089 0.00762069 0)
(1.05122 0.00746368 0)
(1.05155 0.00730833 0)
(1.05186 0.0071535 0)
(1.05216 0.00699802 0)
(1.05246 0.00684076 0)
(1.05275 0.00668045 0)
(1.05304 0.00651596 0)
(1.05332 0.00634574 0)
(1.05359 0.00616874 0)
(1.05386 0.00598304 0)
(1.05412 0.00578794 0)
(1.05438 0.00558102 0)
(1.05463 0.00536276 0)
(1.05487 0.00513022 0)
(1.05511 0.00488666 0)
(1.05533 0.00462921 0)
(1.05555 0.00436668 0)
(1.05575 0.00409948 0)
(1.05593 0.00384542 0)
(1.0561 0.00362036 0)
(1.05627 0.00345458 0)
(1.05643 0.00341141 0)
(1.05667 0.00354937 0)
(1.05703 0.00401841 0)
(1.05778 0.00496811 0)
(1.00124 0.0138865 0)
(1.01632 0.0219749 0)
(1.02835 0.0182573 0)
(1.03281 0.015884 0)
(1.03444 0.0151724 0)
(1.03613 0.014272 0)
(1.03783 0.0132434 0)
(1.03917 0.0124503 0)
(1.0402 0.0118561 0)
(1.04108 0.0113491 0)
(1.04187 0.0108969 0)
(1.04259 0.0104976 0)
(1.04324 0.010145 0)
(1.04384 0.00982978 0)
(1.0444 0.00954454 0)
(1.04492 0.00928421 0)
(1.04541 0.00904489 0)
(1.04587 0.00882333 0)
(1.04631 0.00861671 0)
(1.04672 0.00842259 0)
(1.04712 0.00823886 0)
(1.0475 0.00806362 0)
(1.04787 0.0078952 0)
(1.04823 0.00773211 0)
(1.04857 0.00757296 0)
(1.04891 0.00741651 0)
(1.04924 0.00726156 0)
(1.04956 0.00710697 0)
(1.04988 0.00695158 0)
(1.0502 0.00679429 0)
(1.05051 0.00663384 0)
(1.05082 0.00646913 0)
(1.05113 0.00629867 0)
(1.05144 0.00612137 0)
(1.05175 0.00593544 0)
(1.05206 0.00574009 0)
(1.05236 0.00553316 0)
(1.05267 0.00531483 0)
(1.05296 0.00508278 0)
(1.05326 0.0048395 0)
(1.05354 0.0045834 0)
(1.05382 0.00432161 0)
(1.05409 0.0040568 0)
(1.05435 0.00380397 0)
(1.05459 0.00358084 0)
(1.05485 0.00341578 0)
(1.05511 0.00336556 0)
(1.05547 0.00349192 0)
(1.05597 0.00390851 0)
(1.0569 0.0047562 0)
(1.00107 0.012603 0)
(1.01466 0.0208632 0)
(1.02614 0.0177937 0)
(1.03072 0.0154988 0)
(1.0324 0.0148541 0)
(1.03406 0.0140725 0)
(1.03574 0.0131006 0)
(1.03708 0.0123229 0)
(1.03811 0.0117424 0)
(1.03898 0.0112502 0)
(1.03976 0.0108088 0)
(1.04047 0.0104168 0)
(1.04111 0.0100699 0)
(1.0417 0.00975942 0)
(1.04224 0.00947822 0)
(1.04275 0.00922128 0)
(1.04323 0.00898482 0)
(1.04368 0.0087657 0)
(1.04411 0.00856118 0)
(1.04452 0.00836886 0)
(1.0449 0.00818664 0)
(1.04528 0.00801266 0)
(1.04564 0.00784526 0)
(1.04598 0.00768294 0)
(1.04632 0.00752435 0)
(1.04666 0.00736822 0)
(1.04698 0.00721338 0)
(1.0473 0.0070587 0)
(1.04762 0.00690304 0)
(1.04794 0.00674532 0)
(1.04825 0.00658431 0)
(1.04857 0.00641892 0)
(1.04889 0.00624772 0)
(1.0492 0.00606962 0)
(1.04952 0.00588294 0)
(1.04984 0.00568682 0)
(1.05016 0.00547933 0)
(1.05048 0.00526042 0)
(1.0508 0.00502827 0)
(1.05111 0.00478476 0)
(1.05142 0.00452933 0)
(1.05173 0.0042678 0)
(1.05203 0.00400436 0)
(1.05232 0.00375205 0)
(1.05261 0.00352911 0)
(1.05291 0.00336263 0)
(1.05324 0.00330222 0)
(1.05368 0.00340945 0)
(1.05428 0.00376861 0)
(1.05533 0.00450227 0)
(1.00093 0.0114201 0)
(1.01314 0.0197634 0)
(1.02405 0.0173262 0)
(1.02872 0.0151215 0)
(1.03046 0.0145297 0)
(1.03207 0.0138625 0)
(1.03373 0.0129532 0)
(1.03507 0.0121934 0)
(1.0361 0.0116262 0)
(1.03697 0.0111489 0)
(1.03774 0.0107189 0)
(1.03844 0.0103347 0)
(1.03907 0.0099937 0)
(1.03965 0.00968822 0)
(1.04018 0.00941122 0)
(1.04068 0.00915778 0)
(1.04115 0.00892429 0)
(1.04159 0.0087077 0)
(1.04201 0.00850534 0)
(1.0424 0.00831486 0)
(1.04278 0.00813419 0)
(1.04315 0.00796148 0)
(1.0435 0.00779508 0)
(1.04384 0.00763352 0)
(1.04417 0.00747542 0)
(1.04449 0.00731956 0)
(1.04481 0.00716473 0)
(1.04512 0.00700984 0)
(1.04543 0.00685377 0)
(1.04575 0.00669545 0)
(1.04606 0.0065337 0)
(1.04637 0.00636742 0)
(1.04668 0.00619527 0)
(1.047 0.00601614 0)
(1.04731 0.00582846 0)
(1.04763 0.00563129 0)
(1.04795 0.00542296 0)
(1.04827 0.00520318 0)
(1.04859 0.00497058 0)
(1.04891 0.00472655 0)
(1.04923 0.00447128 0)
(1.04954 0.00420962 0)
(1.04985 0.00394671 0)
(1.05016 0.00369417 0)
(1.05046 0.00346983 0)
(1.0508 0.00329961 0)
(1.05116 0.00322595 0)
(1.05166 0.00330734 0)
(1.05234 0.00360384 0)
(1.05347 0.00421523 0)
(1.0008 0.0103346 0)
(1.01173 0.0186796 0)
(1.02206 0.0168523 0)
(1.0268 0.0147525 0)
(1.02861 0.0142012 0)
(1.03018 0.0136419 0)
(1.03182 0.0128006 0)
(1.03316 0.0120615 0)
(1.03419 0.0115075 0)
(1.03505 0.0110453 0)
(1.03581 0.0106273 0)
(1.0365 0.0102513 0)
(1.03712 0.00991643 0)
(1.03769 0.0096161 0)
(1.03822 0.00934345 0)
(1.03871 0.00909366 0)
(1.03917 0.00886325 0)
(1.0396 0.00864927 0)
(1.04 0.00844915 0)
(1.04039 0.00826057 0)
(1.04076 0.00808149 0)
(1.04112 0.00791009 0)
(1.04146 0.00774473 0)
(1.04179 0.00758393 0)
(1.04211 0.00742633 0)
(1.04242 0.0072707 0)
(1.04273 0.00711587 0)
(1.04304 0.00696074 0)
(1.04334 0.00680421 0)
(1.04365 0.00664524 0)
(1.04395 0.00648267 0)
(1.04425 0.00631543 0)
(1.04456 0.00614223 0)
(1.04487 0.00596197 0)
(1.04518 0.00577318 0)
(1.04549 0.00557487 0)
(1.04581 0.00536555 0)
(1.04612 0.00514477 0)
(1.04644 0.00491152 0)
(1.04675 0.00466679 0)
(1.04707 0.00441132 0)
(1.04738 0.00414923 0)
(1.04769 0.00388613 0)
(1.048 0.00363258 0)
(1.04832 0.00340538 0)
(1.04867 0.00322907 0)
(1.04907 0.00313913 0)
(1.0496 0.00318905 0)
(1.05034 0.00341766 0)
(1.05154 0.00390091 0)
(1.00069 0.00934267 0)
(1.01046 0.0176159 0)
(1.02019 0.0163695 0)
(1.02498 0.0143917 0)
(1.02685 0.0138706 0)
(1.02839 0.0134109 0)
(1.02999 0.0126422 0)
(1.03134 0.0119274 0)
(1.03237 0.0113863 0)
(1.03322 0.0109391 0)
(1.03397 0.0105338 0)
(1.03465 0.0101664 0)
(1.03527 0.00983798 0)
(1.03583 0.00954297 0)
(1.03635 0.00927483 0)
(1.03683 0.00902884 0)
(1.03728 0.00880162 0)
(1.0377 0.00859035 0)
(1.0381 0.00839254 0)
(1.03847 0.00820593 0)
(1.03883 0.00802851 0)
(1.03918 0.00785846 0)
(1.03951 0.00769417 0)
(1.03984 0.00753415 0)
(1.04015 0.00737707 0)
(1.04046 0.00722169 0)
(1.04076 0.00706685 0)
(1.04105 0.00691147 0)
(1.04135 0.00675447 0)
(1.04165 0.00659482 0)
(1.04194 0.00643141 0)
(1.04224 0.00626319 0)
(1.04254 0.00608891 0)
(1.04284 0.00590749 0)
(1.04314 0.00571754 0)
(1.04344 0.00551805 0)
(1.04375 0.00530767 0)
(1.04406 0.00508584 0)
(1.04437 0.00485181 0)
(1.04468 0.00460627 0)
(1.04498 0.00435032 0)
(1.04529 0.00408752 0)
(1.0456 0.00382361 0)
(1.04592 0.00356824 0)
(1.04624 0.00333684 0)
(1.0466 0.00315209 0)
(1.04702 0.00304317 0)
(1.04759 0.00305621 0)
(1.04837 0.0032133 0)
(1.04961 0.00356497 0)
(1.0006 0.00844004 0)
(1.0093 0.0165762 0)
(1.01843 0.015876 0)
(1.02323 0.0140388 0)
(1.02517 0.0135398 0)
(1.02668 0.01317 0)
(1.02825 0.0124774 0)
(1.02959 0.0117906 0)
(1.03063 0.0112627 0)
(1.03147 0.0108303 0)
(1.03222 0.0104382 0)
(1.03289 0.01008 0)
(1.0335 0.00975826 0)
(1.03405 0.00946873 0)
(1.03456 0.00920528 0)
(1.03504 0.00896323 0)
(1.03548 0.00873932 0)
(1.03589 0.00853087 0)
(1.03628 0.00833546 0)
(1.03665 0.00815089 0)
(1.037 0.00797518 0)
(1.03734 0.00780653 0)
(1.03767 0.00764334 0)
(1.03798 0.00748415 0)
(1.03828 0.0073276 0)
(1.03858 0.00717248 0)
(1.03888 0.00701764 0)
(1.03917 0.00686201 0)
(1.03946 0.00670453 0)
(1.03974 0.0065442 0)
(1.04003 0.00637995 0)
(1.04032 0.00621074 0)
(1.04061 0.00603538 0)
(1.0409 0.00585279 0)
(1.0412 0.00566168 0)
(1.0415 0.00546098 0)
(1.0418 0.00524952 0)
(1.0421 0.00502661 0)
(1.0424 0.00479171 0)
(1.0427 0.00454527 0)
(1.043 0.00428861 0)
(1.0433 0.00402482 0)
(1.04361 0.00375953 0)
(1.04392 0.0035015 0)
(1.04425 0.00326461 0)
(1.04462 0.00306919 0)
(1.04506 0.00293864 0)
(1.04566 0.00291046 0)
(1.04647 0.00299295 0)
(1.04773 0.00321146 0)
(1.00051 0.00762191 0)
(1.00825 0.0155646 0)
(1.01678 0.0153707 0)
(1.02157 0.0136933 0)
(1.02358 0.0132105 0)
(1.02506 0.0129199 0)
(1.0266 0.0123057 0)
(1.02794 0.0116511 0)
(1.02897 0.0111368 0)
(1.02981 0.0107188 0)
(1.03055 0.0103403 0)
(1.03122 0.00999193 0)
(1.03182 0.00967715 0)
(1.03237 0.00939331 0)
(1.03287 0.0091347 0)
(1.03333 0.00889675 0)
(1.03377 0.00867628 0)