/*--------------------------------*- C++ -*----------------------------------*\
  =========                 |
  \\      /  F ield         | OpenFOAM: The Open Source CFD Toolbox
   \\    /   O peration     | Website:  https://openfoam.org
    \\  /    A nd           | Version:  7
     \\/     M anipulation  |
\*---------------------------------------------------------------------------*/
FoamFile
{
    version     2.0;
    format      ascii;
    class       volVectorField;
    location    "0.44";
    object      vorticity;
}
// * * * * * * * * * * * * * * * * * * * * * * * * * * * * * * * * * * * * * //

dimensions      [0 0 -1 0 0 0 0];

internalField   nonuniform List<vector> 
70000
(
(0 -0 -45716)
(0 -0 -28617.3)
(0 -0 -20912.5)
(0 -0 -16978.8)
(0 -0 -14957.4)
(0 -0 -13650.3)
(0 -0 -12641)
(0 -0 -11828.7)
(0 -0 -11165.3)
(0 -0 -10611.8)
(0 -0 -10140.4)
(0 -0 -9732.53)
(0 -0 -9375.2)
(0 -0 -9059.05)
(0 -0 -8776.98)
(0 -0 -8523.51)
(0 -0 -8294.31)
(0 -0 -8085.94)
(0 -0 -7895.62)
(0 -0 -7721.07)
(0 -0 -7560.42)
(0 -0 -7412.11)
(0 -0 -7274.82)
(0 -0 -7147.45)
(0 -0 -7029.08)
(0 -0 -6918.9)
(0 -0 -6816.23)
(0 -0 -6720.51)
(0 -0 -6631.25)
(0 -0 -6548.01)
(0 -0 -6470.47)
(0 -0 -6398.3)
(0 -0 -6331.31)
(0 -0 -6269.25)
(0 -0 -6211.98)
(0 -0 -6159.38)
(0 -0 -6111.26)
(0 -0 -6067.72)
(0 -0 -6028.14)
(0 -0 -5993.41)
(0 -0 -5961.22)
(0 -0 -5935.16)
(0 -0 -5907.21)
(0 -0 -5890.47)
(0 -0 -5856.93)
(0 -0 -5855.14)
(0 -0 -5783.34)
(0 -0 -5825.99)
(0 -0 -5623.14)
(0 -0 -5578.06)
(0 -0 -13549.7)
(0 -0 -19947.3)
(0 -0 -18535.9)
(0 -0 -16249.2)
(0 -0 -14503.3)
(0 -0 -13279.4)
(0 -0 -12351.6)
(0 -0 -11602.1)
(0 -0 -10980.4)
(0 -0 -10455.9)
(0 -0 -10006.3)
(0 -0 -9615.44)
(0 -0 -9271.69)
(0 -0 -8966.53)
(0 -0 -8693.49)
(0 -0 -8447.5)
(0 -0 -8224.59)
(0 -0 -8021.53)
(0 -0 -7835.73)
(0 -0 -7665.04)
(0 -0 -7507.7)
(0 -0 -7362.22)
(0 -0 -7227.35)
(0 -0 -7102.05)
(0 -0 -6985.41)
(0 -0 -6876.67)
(0 -0 -6775.17)
(0 -0 -6680.36)
(0 -0 -6591.77)
(0 -0 -6508.98)
(0 -0 -6431.67)
(0 -0 -6359.56)
(0 -0 -6292.42)
(0 -0 -6230.07)
(0 -0 -6172.39)
(0 -0 -6119.29)
(0 -0 -6070.67)
(0 -0 -6026.67)
(0 -0 -5986.92)
(0 -0 -5952.26)
(0 -0 -5921.13)
(0 -0 -5896.59)
(0 -0 -5872.94)
(0 -0 -5860.61)
(0 -0 -5839.5)
(0 -0 -5846.14)
(0 -0 -5809.29)
(0 -0 -5855.58)
(0 -0 -5760.51)
(0 -0 -5887.86)
(0 -0 -3818.79)
(0 -0 -10828.9)
(0 -0 -13363.4)
(0 -0 -13519.4)
(0 -0 -12866)
(0 -0 -12139.9)
(0 -0 -11498.6)
(0 -0 -10938.7)
(0 -0 -10447.5)
(0 -0 -10015.7)
(0 -0 -9634.59)
(0 -0 -9296.04)
(0 -0 -8993.29)
(0 -0 -8720.88)
(0 -0 -8474.4)
(0 -0 -8250.28)
(0 -0 -8045.55)
(0 -0 -7857.78)
(0 -0 -7684.92)
(0 -0 -7525.27)
(0 -0 -7377.39)
(0 -0 -7240.04)
(0 -0 -7112.18)
(0 -0 -6992.9)
(0 -0 -6881.44)
(0 -0 -6777.12)
(0 -0 -6679.37)
(0 -0 -6587.68)
(0 -0 -6501.64)
(0 -0 -6420.85)
(0 -0 -6345.03)
(0 -0 -6273.89)
(0 -0 -6207.23)
(0 -0 -6144.85)
(0 -0 -6086.65)
(0 -0 -6032.51)
(0 -0 -5982.36)
(0 -0 -5936.27)
(0 -0 -5894.03)
(0 -0 -5856.17)
(0 -0 -5821.84)
(0 -0 -5792.92)
(0 -0 -5766.26)
(0 -0 -5748.12)
(0 -0 -5727.32)
(0 -0 -5724.37)
(0 -0 -5703.42)
(0 -0 -5721.58)
(0 -0 -5701.28)
(0 -0 -5754.96)
(0 -0 -533.079)
(0 -0 -4662.74)
(0 -0 -7718.59)
(0 -0 -9328.57)
(0 -0 -9892.2)
(0 -0 -9957.45)
(0 -0 -9825.82)
(0 -0 -9614.11)
(0 -0 -9371.14)
(0 -0 -9121.56)
(0 -0 -8877.79)
(0 -0 -8645.37)
(0 -0 -8426.4)
(0 -0 -8221.32)
(0 -0 -8029.79)
(0 -0 -7851.08)
(0 -0 -7684.31)
(0 -0 -7528.59)
(0 -0 -7383.02)
(0 -0 -7246.78)
(0 -0 -7119.09)
(0 -0 -6999.27)
(0 -0 -6886.69)
(0 -0 -6780.76)
(0 -0 -6680.99)
(0 -0 -6586.92)
(0 -0 -6498.15)
(0 -0 -6414.3)
(0 -0 -6335.07)
(0 -0 -6260.16)
(0 -0 -6189.34)
(0 -0 -6122.38)
(0 -0 -6059.11)
(0 -0 -5999.36)
(0 -0 -5943.02)
(0 -0 -5890)
(0 -0 -5840.2)
(0 -0 -5793.61)
(0 -0 -5750.17)
(0 -0 -5709.99)
(0 -0 -5672.93)
(0 -0 -5639.45)
(0 -0 -5608.9)
(0 -0 -5582.81)
(0 -0 -5559.14)
(0 -0 -5540.78)
(0 -0 -5527.55)
(0 -0 -5507.44)
(0 -0 -5536.72)
(0 -0 -5467.75)
(0 -0 322.438)
(0 -0 -1444.61)
(0 -0 -3532.74)
(0 -0 -5259.28)
(0 -0 -6399.11)
(0 -0 -7073.57)
(0 -0 -7450.75)
(0 -0 -7641.21)
(0 -0 -7713.21)
(0 -0 -7711.03)
(0 -0 -7663.18)
(0 -0 -7587.75)
(0 -0 -7496.14)
(0 -0 -7395.62)
(0 -0 -7290.88)
(0 -0 -7184.94)
(0 -0 -7079.77)
(0 -0 -6976.6)
(0 -0 -6876.21)
(0 -0 -6779.08)
(0 -0 -6685.46)
(0 -0 -6595.45)
(0 -0 -6509.09)
(0 -0 -6426.32)
(0 -0 -6347.08)
(0 -0 -6271.24)
(0 -0 -6198.7)
(0 -0 -6129.32)
(0 -0 -6062.97)
(0 -0 -5999.54)
(0 -0 -5938.91)
(0 -0 -5880.96)
(0 -0 -5825.6)
(0 -0 -5772.73)
(0 -0 -5722.28)
(0 -0 -5674.17)
(0 -0 -5628.38)
(0 -0 -5584.79)
(0 -0 -5543.52)
(0 -0 -5504.3)
(0 -0 -5467.58)
(0 -0 -5432.62)
(0 -0 -5400.85)
(0 -0 -5369.69)
(0 -0 -5344.67)
(0 -0 -5314.22)
(0 -0 -5304.89)
(0 -0 -5257.46)
(0 -0 -5304.26)
(0 -0 -5185.45)
(0 -0 364.709)
(0 -0 -158.583)
(0 -0 -1181.63)
(0 -0 -2362.13)
(0 -0 -3417.42)
(0 -0 -4255.64)
(0 -0 -4890.24)
(0 -0 -5355.25)
(0 -0 -5685.84)
(0 -0 -5914.07)
(0 -0 -6066.25)
(0 -0 -6162.5)
(0 -0 -6217.72)
(0 -0 -6242.86)
(0 -0 -6245.99)
(0 -0 -6233.03)
(0 -0 -6208.37)
(0 -0 -6175.26)
(0 -0 -6136.14)
(0 -0 -6092.82)
(0 -0 -6046.68)
(0 -0 -5998.75)
(0 -0 -5949.81)
(0 -0 -5900.46)
(0 -0 -5851.13)
(0 -0 -5802.17)
(0 -0 -5753.83)
(0 -0 -5706.28)
(0 -0 -5659.67)
(0 -0 -5614.08)
(0 -0 -5569.59)
(0 -0 -5526.24)
(0 -0 -5484.06)
(0 -0 -5443.07)
(0 -0 -5403.27)
(0 -0 -5364.64)
(0 -0 -5327.25)
(0 -0 -5290.97)
(0 -0 -5256.01)
(0 -0 -5221.96)
(0 -0 -5189.59)
(0 -0 -5157.47)
(0 -0 -5128.27)
(0 -0 -5097.01)
(0 -0 -5073.39)
(0 -0 -5038.54)
(0 -0 -5030.19)
(0 -0 -4974.95)
(0 -0 -5012.78)
(0 -0 -4906.41)
(0 -0 254.024)
(0 -0 185.297)
(0 -0 -173.341)
(0 -0 -764.753)
(0 -0 -1447.65)
(0 -0 -2115.08)
(0 -0 -2719.73)
(0 -0 -3242.19)
(0 -0 -3678.42)
(0 -0 -4034.24)
(0 -0 -4319.98)
(0 -0 -4546.77)
(0 -0 -4724.94)
(0 -0 -4863.43)
(0 -0 -4969.78)
(0 -0 -5050.16)
(0 -0 -5109.58)
(0 -0 -5152.12)
(0 -0 -5181.03)
(0 -0 -5198.95)
(0 -0 -5208)
(0 -0 -5209.9)
(0 -0 -5206.03)
(0 -0 -5197.53)
(0 -0 -5185.3)
(0 -0 -5170.09)
(0 -0 -5152.51)
(0 -0 -5133.06)
(0 -0 -5112.14)
(0 -0 -5090.07)
(0 -0 -5067.14)
(0 -0 -5043.55)
(0 -0 -5019.48)
(0 -0 -4995.09)
(0 -0 -4970.5)
(0 -0 -4945.76)
(0 -0 -4921.03)
(0 -0 -4896.23)
(0 -0 -4871.65)
(0 -0 -4846.86)
(0 -0 -4822.75)
(0 -0 -4797.73)
(0 -0 -4774.77)
(0 -0 -4748.45)
(0 -0 -4728.92)
(0 -0 -4697.34)
(0 -0 -4688.94)
(0 -0 -4640.38)
(0 -0 -4661.84)
(0 -0 -4584.33)
(0 -0 178.744)
(0 -0 204.507)
(0 -0 130.645)
(0 -0 -85.2541)
(0 -0 -417.89)
(0 -0 -814.707)
(0 -0 -1235.8)
(0 -0 -1652.3)
(0 -0 -2044.37)
(0 -0 -2401.07)
(0 -0 -2718.22)
(0 -0 -2995.73)
(0 -0 -3235.8)
(0 -0 -3441.75)
(0 -0 -3617.33)
(0 -0 -3766.24)
(0 -0 -3892.01)
(0 -0 -3997.81)
(0 -0 -4086.43)
(0 -0 -4160.34)
(0 -0 -4221.64)
(0 -0 -4272.15)
(0 -0 -4313.43)
(0 -0 -4346.8)
(0 -0 -4373.41)
(0 -0 -4394.2)
(0 -0 -4410)
(0 -0 -4421.51)
(0 -0 -4429.32)
(0 -0 -4433.94)
(0 -0 -4435.78)
(0 -0 -4435.21)
(0 -0 -4432.53)
(0 -0 -4428.01)
(0 -0 -4421.86)
(0 -0 -4414.25)
(0 -0 -4405.37)
(0 -0 -4395.26)
(0 -0 -4384.2)
(0 -0 -4371.91)
(0 -0 -4359.15)
(0 -0 -4344.66)
(0 -0 -4330.88)
(0 -0 -4313.45)
(0 -0 -4300.48)
(0 -0 -4277.37)
(0 -0 -4270.6)
(0 -0 -4234.67)
(0 -0 -4245.21)
(0 -0 -4193)
(0 -0 148.015)
(0 -0 164.61)
(0 -0 169.985)
(0 -0 120.956)
(0 -0 1.01713)
(0 -0 -180.671)
(0 -0 -408.675)
(0 -0 -666.614)
(0 -0 -938.656)
(0 -0 -1211.9)
(0 -0 -1477.14)
(0 -0 -1728.41)
(0 -0 -1962.19)
(0 -0 -2176.82)
(0 -0 -2371.91)
(0 -0 -2547.92)
(0 -0 -2705.8)
(0 -0 -2846.81)
(0 -0 -2972.32)
(0 -0 -3083.74)
(0 -0 -3182.43)
(0 -0 -3269.68)
(0 -0 -3346.69)
(0 -0 -3414.54)
(0 -0 -3474.22)
(0 -0 -3526.61)
(0 -0 -3572.51)
(0 -0 -3612.62)
(0 -0 -3647.54)
(0 -0 -3677.83)
(0 -0 -3703.96)
(0 -0 -3726.35)
(0 -0 -3745.34)
(0 -0 -3761.27)
(0 -0 -3774.39)
(0 -0 -3784.94)
(0 -0 -3793.13)
(0 -0 -3799.08)
(0 -0 -3803.03)
(0 -0 -3804.89)
(0 -0 -3805.17)
(0 -0 -3803.13)
(0 -0 -3800.37)
(0 -0 -3794.07)
(0 -0 -3789.67)
(0 -0 -3777.44)
(0 -0 -3775.18)
(0 -0 -3752.85)
(0 -0 -3759.85)
(0 -0 -3728.04)
(0 -0 136.823)
(0 -0 137.07)
(0 -0 148.737)
(0 -0 149.671)
(0 -0 122.173)
(0 -0 60.1119)
(0 -0 -36.2878)
(0 -0 -163.334)
(0 -0 -314.651)
(0 -0 -482.924)
(0 -0 -661.243)
(0 -0 -843.705)
(0 -0 -1025.58)
(0 -0 -1203.3)
(0 -0 -1374.29)
(0 -0 -1536.88)
(0 -0 -1690.03)
(0 -0 -1833.25)
(0 -0 -1966.4)
(0 -0 -2089.63)
(0 -0 -2203.26)
(0 -0 -2307.75)
(0 -0 -2403.58)
(0 -0 -2491.33)
(0 -0 -2571.54)
(0 -0 -2644.76)
(0 -0 -2711.52)
(0 -0 -2772.32)
(0 -0 -2827.63)
(0 -0 -2877.88)
(0 -0 -2923.46)
(0 -0 -2964.73)
(0 -0 -3001.99)
(0 -0 -3035.55)
(0 -0 -3065.64)
(0 -0 -3092.5)
(0 -0 -3116.3)
(0 -0 -3137.22)
(0 -0 -3155.41)
(0 -0 -3170.92)
(0 -0 -3184.03)
(0 -0 -3194.42)
(0 -0 -3202.98)
(0 -0 -3208.13)
(0 -0 -3213.19)
(0 -0 -3212.13)
(0 -0 -3216.45)
(0 -0 -3206.92)
(0 -0 -3215.24)
(0 -0 -3200.29)
(0 -0 129.944)
(0 -0 123.998)
(0 -0 129.182)
(0 -0 136.38)
(0 -0 136.46)
(0 -0 123.188)
(0 -0 92.9371)
(0 -0 43.8802)
(0 -0 -23.7952)
(0 -0 -108.242)
(0 -0 -206.68)
(0 -0 -315.972)
(0 -0 -432.974)
(0 -0 -554.783)
(0 -0 -678.865)
(0 -0 -803.106)
(0 -0 -925.809)
(0 -0 -1045.66)
(0 -0 -1161.68)
(0 -0 -1273.18)
(0 -0 -1379.69)
(0 -0 -1480.94)
(0 -0 -1576.79)
(0 -0 -1667.23)
(0 -0 -1752.32)
(0 -0 -1832.19)
(0 -0 -1907.02)
(0 -0 -1977)
(0 -0 -2042.34)
(0 -0 -2103.25)
(0 -0 -2159.95)
(0 -0 -2212.65)
(0 -0 -2261.54)
(0 -0 -2306.81)
(0 -0 -2348.61)
(0 -0 -2387.12)
(0 -0 -2422.43)
(0 -0 -2454.7)
(0 -0 -2483.98)
(0 -0 -2510.4)
(0 -0 -2534.03)
(0 -0 -2554.8)
(0 -0 -2573.13)
(0 -0 -2588.21)
(0 -0 -2601.99)
(0 -0 -2610.8)
(0 -0 -2621.99)
(0 -0 -2623.52)
(0 -0 -2635.32)
(0 -0 -2633.86)
(0 -0 122.955)
(0 -0 116.646)
(0 -0 118.014)
(0 -0 122.488)
(0 -0 126.425)
(0 -0 126.885)
(0 -0 121.404)
(0 -0 107.69)
(0 -0 84.1169)
(0 -0 49.9898)
(0 -0 5.41283)
(0 -0 -48.8965)
(0 -0 -111.808)
(0 -0 -181.95)
(0 -0 -257.87)
(0 -0 -338.13)
(0 -0 -421.386)
(0 -0 -506.43)
(0 -0 -592.205)
(0 -0 -677.814)
(0 -0 -762.513)
(0 -0 -845.699)
(0 -0 -926.894)
(0 -0 -1005.73)
(0 -0 -1081.94)
(0 -0 -1155.33)
(0 -0 -1225.77)
(0 -0 -1293.19)
(0 -0 -1357.55)
(0 -0 -1418.85)
(0 -0 -1477.12)
(0 -0 -1532.38)
(0 -0 -1584.67)
(0 -0 -1634.07)
(0 -0 -1680.59)
(0 -0 -1724.31)
(0 -0 -1765.23)
(0 -0 -1803.45)
(0 -0 -1838.94)
(0 -0 -1871.77)
(0 -0 -1901.91)
(0 -0 -1929.38)
(0 -0 -1954.32)
(0 -0 -1976.3)
(0 -0 -1996.46)
(0 -0 -2012.57)
(0 -0 -2029.24)
(0 -0 -2039.2)
(0 -0 -2054.57)
(0 -0 -2062.84)
(0 -0 115.636)
(0 -0 110.415)
(0 -0 110.732)
(0 -0 113.168)
(0 -0 115.977)
(0 -0 118.228)
(0 -0 119.095)
(0 -0 117.378)
(0 -0 111.804)
(0 -0 101.325)
(0 -0 85.2273)
(0 -0 63.1446)
(0 -0 35.0273)
(0 -0 1.09888)
(0 -0 -38.2096)
(0 -0 -82.326)
(0 -0 -130.595)
(0 -0 -182.326)
(0 -0 -236.83)
(0 -0 -293.445)
(0 -0 -351.553)
(0 -0 -410.596)
(0 -0 -470.07)
(0 -0 -529.54)
(0 -0 -588.627)
(0 -0 -647.014)
(0 -0 -704.43)
(0 -0 -760.658)
(0 -0 -815.513)
(0 -0 -868.854)
(0 -0 -920.558)
(0 -0 -970.537)
(0 -0 -1018.7)
(0 -0 -1065.01)
(0 -0 -1109.38)
(0 -0 -1151.8)
(0 -0 -1192.19)
(0 -0 -1230.55)
(0 -0 -1266.79)
(0 -0 -1300.93)
(0 -0 -1332.86)
(0 -0 -1362.57)
(0 -0 -1390.09)
(0 -0 -1415.13)
(0 -0 -1438.35)
(0 -0 -1458.4)
(0 -0 -1478.05)
(0 -0 -1493.15)
(0 -0 -1510.71)
(0 -0 -1524.77)
(0 -0 108.392)
(0 -0 104.199)
(0 -0 104.408)
(0 -0 106.113)
(0 -0 107.976)
(0 -0 109.68)
(0 -0 111.207)
(0 -0 112.213)
(0 -0 112.119)
(0 -0 110.298)
(0 -0 106.167)
(0 -0 99.2268)
(0 -0 89.1069)
(0 -0 75.5717)
(0 -0 58.5294)
(0 -0 38.009)
(0 -0 14.1444)
(0 -0 -12.8483)
(0 -0 -42.6949)
(0 -0 -75.0812)
(0 -0 -109.674)
(0 -0 -146.128)
(0 -0 -184.11)
(0 -0 -223.294)
(0 -0 -263.373)
(0 -0 -304.065)
(0 -0 -345.11)
(0 -0 -386.275)
(0 -0 -427.347)
(0 -0 -468.141)
(0 -0 -508.488)
(0 -0 -548.242)
(0 -0 -587.263)
(0 -0 -625.439)
(0 -0 -662.648)
(0 -0 -698.802)
(0 -0 -733.784)
(0 -0 -767.529)
(0 -0 -799.915)
(0 -0 -830.892)
(0 -0 -860.341)
(0 -0 -888.193)
(0 -0 -914.418)
(0 -0 -938.782)
(0 -0 -961.657)
(0 -0 -982.22)
(0 -0 -1002.02)
(0 -0 -1018.92)
(0 -0 -1036.6)
(0 -0 -1052.8)
(0 -0 101.415)
(0 -0 98.0084)
(0 -0 98.2317)
(0 -0 99.7025)
(0 -0 101.21)
(0 -0 102.475)
(0 -0 103.69)
(0 -0 104.867)
(0 -0 105.832)
(0 -0 106.342)
(0 -0 106.117)
(0 -0 104.86)
(0 -0 102.282)
(0 -0 98.1303)
(0 -0 92.1952)
(0 -0 84.3282)
(0 -0 74.4389)
(0 -0 62.4943)
(0 -0 48.5138)
(0 -0 32.5608)
(0 -0 14.7357)
(0 -0 -4.83239)
(0 -0 -25.9937)
(0 -0 -48.5855)
(0 -0 -72.4354)
(0 -0 -97.3719)
(0 -0 -123.22)
(0 -0 -149.814)
(0 -0 -176.992)
(0 -0 -204.602)
(0 -0 -232.495)
(0 -0 -260.536)
(0 -0 -288.592)
(0 -0 -316.544)
(0 -0 -344.267)
(0 -0 -371.656)
(0 -0 -398.591)
(0 -0 -424.979)
(0 -0 -450.701)
(0 -0 -475.669)
(0 -0 -499.77)
(0 -0 -522.903)
(0 -0 -545.015)
(0 -0 -565.911)
(0 -0 -585.768)
(0 -0 -604.107)
(0 -0 -621.708)
(0 -0 -637.598)
(0 -0 -653.442)
(0 -0 -668.926)
(0 -0 94.7394)
(0 -0 91.9597)
(0 -0 92.1712)
(0 -0 93.4929)
(0 -0 94.8683)
(0 -0 95.9595)
(0 -0 96.9499)
(0 -0 97.9381)
(0 -0 98.8971)
(0 -0 99.7604)
(0 -0 100.439)
(0 -0 100.816)
(0 -0 100.755)
(0 -0 100.107)
(0 -0 98.7287)
(0 -0 96.4844)
(0 -0 93.2586)
(0 -0 88.9575)
(0 -0 83.5127)
(0 -0 76.8811)
(0 -0 69.0461)
(0 -0 60.0114)
(0 -0 49.8058)
(0 -0 38.4726)
(0 -0 26.0707)
(0 -0 12.6702)
(0 -0 -1.64923)
(0 -0 -16.8027)
(0 -0 -32.7008)
(0 -0 -49.2521)
(0 -0 -66.3634)
(0 -0 -83.9424)
(0 -0 -101.896)
(0 -0 -120.131)
(0 -0 -138.557)
(0 -0 -157.083)
(0 -0 -175.615)
(0 -0 -194.066)
(0 -0 -212.339)
(0 -0 -230.344)
(0 -0 -247.992)
(0 -0 -265.181)
(0 -0 -281.851)
(0 -0 -297.855)
(0 -0 -313.249)
(0 -0 -327.768)
(0 -0 -341.747)
(0 -0 -354.825)
(0 -0 -367.586)
(0 -0 -380.49)
(0 -0 88.3645)
(0 -0 86.1048)
(0 -0 86.2977)
(0 -0 87.4696)
(0 -0 88.7464)
(0 -0 89.758)
(0 -0 90.6415)
(0 -0 91.5014)
(0 -0 92.3422)
(0 -0 93.15)
(0 -0 93.9091)
(0 -0 94.5906)
(0 -0 95.1491)
(0 -0 95.5262)
(0 -0 95.6545)
(0 -0 95.4616)
(0 -0 94.8745)
(0 -0 93.823)
(0 -0 92.2426)
(0 -0 90.0776)
(0 -0 87.2819)
(0 -0 83.8218)
(0 -0 79.6733)
(0 -0 74.8259)
(0 -0 69.278)
(0 -0 63.0408)
(0 -0 56.1295)
(0 -0 48.573)
(0 -0 40.4028)
(0 -0 31.6569)
(0 -0 22.3778)
(0 -0 12.6121)
(0 -0 2.40944)
(0 -0 -8.177)
(0 -0 -19.0924)
(0 -0 -30.2783)
(0 -0 -41.6751)
(0 -0 -53.2191)
(0 -0 -64.847)
(0 -0 -76.4892)
(0 -0 -88.0811)
(0 -0 -99.5433)
(0 -0 -110.825)
(0 -0 -121.826)
(0 -0 -132.542)
(0 -0 -142.842)
(0 -0 -152.817)
(0 -0 -162.403)
(0 -0 -171.683)
(0 -0 -181.222)
(0 -0 82.2885)
(0 -0 80.4618)
(0 -0 80.6447)
(0 -0 81.6715)
(0 -0 82.8445)
(0 -0 83.7903)
(0 -0 84.6054)
(0 -0 85.3874)
(0 -0 86.1452)
(0 -0 86.8726)
(0 -0 87.5712)
(0 -0 88.2402)
(0 -0 88.8711)
(0 -0 89.4478)
(0 -0 89.948)
(0 -0 90.344)
(0 -0 90.6036)
(0 -0 90.692)
(0 -0 90.5727)
(0 -0 90.2096)
(0 -0 89.5682)
(0 -0 88.617)
(0 -0 87.3283)
(0 -0 85.679)
(0 -0 83.6512)
(0 -0 81.2318)
(0 -0 78.4144)
(0 -0 75.1953)
(0 -0 71.5775)
(0 -0 67.5683)
(0 -0 63.1785)
(0 -0 58.4236)
(0 -0 53.3219)
(0 -0 47.8957)
(0 -0 42.17)
(0 -0 36.1747)
(0 -0 29.9389)
(0 -0 23.5002)
(0 -0 16.8921)
(0 -0 10.1601)
(0 -0 3.34032)
(0 -0 -3.51395)
(0 -0 -10.3666)
(0 -0 -17.1587)
(0 -0 -23.8642)
(0 -0 -30.4291)
(0 -0 -36.8339)
(0 -0 -43.1384)
(0 -0 -49.2273)
(0 -0 -55.5551)
(0 -0 76.512)
(0 -0 75.0421)
(0 -0 75.224)
(0 -0 76.1186)
(0 -0 77.1854)
(0 -0 78.0641)
(0 -0 78.8171)
(0 -0 79.5362)
(0 -0 80.232)
(0 -0 80.8975)
(0 -0 81.5352)
(0 -0 82.1497)
(0 -0 82.7423)
(0 -0 83.3109)
(0 -0 83.851)
(0 -0 84.355)
(0 -0 84.8129)
(0 -0 85.2119)
(0 -0 85.5372)
(0 -0 85.772)
(0 -0 85.8988)
(0 -0 85.8998)
(0 -0 85.7572)
(0 -0 85.4544)
(0 -0 84.976)
(0 -0 84.3084)
(0 -0 83.44)
(0 -0 82.3616)
(0 -0 81.066)
(0 -0 79.549)
(0 -0 77.808)
(0 -0 75.8439)
(0 -0 73.6588)
(0 -0 71.2587)
(0 -0 68.6495)
(0 -0 65.843)
(0 -0 62.8491)
(0 -0 59.6861)
(0 -0 56.3663)
(0 -0 52.9158)
(0 -0 49.3486)
(0 -0 45.6968)
(0 -0 41.9796)
(0 -0 38.2292)
(0 -0 34.47)
(0 -0 30.7163)
(0 -0 27.0222)
(0 -0 23.2997)
(0 -0 19.6997)
(0 -0 15.9084)
(0 -0 71.0348)
(0 -0 69.8561)
(0 -0 70.0428)
(0 -0 70.8195)
(0 -0 71.7819)
(0 -0 72.5933)
(0 -0 73.286)
(0 -0 73.9453)
(0 -0 74.5849)
(0 -0 75.1973)
(0 -0 75.7833)
(0 -0 76.3472)
(0 -0 76.8919)
(0 -0 77.4183)
(0 -0 77.9266)
(0 -0 78.416)
(0 -0 78.8846)
(0 -0 79.3292)
(0 -0 79.7454)
(0 -0 80.1274)
(0 -0 80.4685)
(0 -0 80.7612)
(0 -0 80.9974)
(0 -0 81.1688)
(0 -0 81.2668)
(0 -0 81.2834)
(0 -0 81.2106)
(0 -0 81.0413)
(0 -0 80.7689)
(0 -0 80.3879)
(0 -0 79.8934)
(0 -0 79.282)
(0 -0 78.5507)
(0 -0 77.699)
(0 -0 76.7254)
(0 -0 75.6328)
(0 -0 74.4216)
(0 -0 73.0988)
(0 -0 71.6666)
(0 -0 70.1364)
(0 -0 68.5123)
(0 -0 66.8107)
(0 -0 65.037)
(0 -0 63.2086)
(0 -0 61.34)
(0 -0 59.4308)
(0 -0 57.5286)
(0 -0 55.564)
(0 -0 53.6576)
(0 -0 51.5989)
(0 -0 65.8554)
(0 -0 64.9121)
(0 -0 65.1066)
(0 -0 65.7792)
(0 -0 66.641)
(0 -0 67.3864)
(0 -0 68.0209)
(0 -0 68.6225)
(0 -0 69.2079)
(0 -0 69.7702)
(0 -0 70.3087)
(0 -0 70.8268)
(0 -0 71.3271)
(0 -0 71.8107)
(0 -0 72.2787)
(0 -0 72.7317)
(0 -0 73.17)
(0 -0 73.5934)
(0 -0 74.0011)
(0 -0 74.3919)
(0 -0 74.7637)
(0 -0 75.1142)
(0 -0 75.4406)
(0 -0 75.7399)
(0 -0 76.0086)
(0 -0 76.2431)
(0 -0 76.4398)
(0 -0 76.5951)
(0 -0 76.7052)
(0 -0 76.7669)
(0 -0 76.7767)
(0 -0 76.7318)
(0 -0 76.6289)
(0 -0 76.4664)
(0 -0 76.2414)
(0 -0 75.9537)
(0 -0 75.6006)
(0 -0 75.1845)
(0 -0 74.7029)
(0 -0 74.1612)
(0 -0 73.5568)
(0 -0 72.8987)
(0 -0 72.1848)
(0 -0 71.4255)
(0 -0 70.6247)
(0 -0 69.7809)
(0 -0 68.9221)
(0 -0 68.0062)
(0 -0 67.1179)
(0 -0 66.1021)
(0 -0 60.971)
(0 -0 60.2167)
(0 -0 60.4197)
(0 -0 61.0007)
(0 -0 61.7667)
(0 -0 62.4479)
(0 -0 63.0272)
(0 -0 63.5735)
(0 -0 64.1069)
(0 -0 64.6211)
(0 -0 65.1141)
(0 -0 65.5889)
(0 -0 66.0475)
(0 -0 66.491)
(0 -0 66.9203)
(0 -0 67.3359)
(0 -0 67.7387)
(0 -0 68.1291)
(0 -0 68.5073)
(0 -0 68.8731)
(0 -0 69.2263)
(0 -0 69.5663)
(0 -0 69.8926)
(0 -0 70.2044)
(0 -0 70.5008)
(0 -0 70.7807)
(0 -0 71.0428)
(0 -0 71.2861)
(0 -0 71.5091)
(0 -0 71.7105)
(0 -0 71.8886)
(0 -0 72.042)
(0 -0 72.1689)
(0 -0 72.268)
(0 -0 72.337)
(0 -0 72.3756)
(0 -0 72.3806)
(0 -0 72.3531)
(0 -0 72.2894)
(0 -0 72.1926)
(0 -0 72.0575)
(0 -0 71.8907)
(0 -0 71.6851)
(0 -0 71.4499)
(0 -0 71.1799)
(0 -0 70.8794)
(0 -0 70.5564)
(0 -0 70.1923)
(0 -0 69.8415)
(0 -0 69.3878)
(0 -0 56.3778)
(0 -0 55.774)
(0 -0 55.9845)
(0 -0 56.4854)
(0 -0 57.1613)
(0 -0 57.7803)
(0 -0 58.3073)
(0 -0 58.8015)
(0 -0 59.2851)
(0 -0 59.7532)
(0 -0 60.203)
(0 -0 60.6364)
(0 -0 61.0554)
(0 -0 61.4608)
(0 -0 61.8533)
(0 -0 62.2334)
(0 -0 62.6019)
(0 -0 62.9591)
(0 -0 63.3054)
(0 -0 63.6408)
(0 -0 63.9656)
(0 -0 64.2796)
(0 -0 64.5831)
(0 -0 64.8759)
(0 -0 65.1581)
(0 -0 65.4296)
(0 -0 65.6904)
(0 -0 65.9404)
(0 -0 66.1793)
(0 -0 66.407)
(0 -0 66.6229)
(0 -0 66.8267)
(0 -0 67.0175)
(0 -0 67.1948)
(0 -0 67.3571)
(0 -0 67.5043)
(0 -0 67.6339)
(0 -0 67.7469)
(0 -0 67.8393)
(0 -0 67.9142)
(0 -0 67.9653)
(0 -0 67.9988)
(0 -0 68.0051)
(0 -0 67.9945)
(0 -0 67.9551)
(0 -0 67.8983)
(0 -0 67.8166)
(0 -0 67.7095)
(0 -0 67.6056)
(0 -0 67.425)
(0 -0 52.0705)
(0 -0 51.5859)
(0 -0 51.8018)
(0 -0 52.233)
(0 -0 52.825)
(0 -0 53.3841)
(0 -0 53.8617)
(0 -0 54.307)
(0 -0 54.7435)
(0 -0 55.1678)
(0 -0 55.5764)
(0 -0 55.9706)
(0 -0 56.3519)
(0 -0 56.7212)
(0 -0 57.0788)
(0 -0 57.4252)
(0 -0 57.7611)
(0 -0 58.0866)
(0 -0 58.4021)
(0 -0 58.7078)
(0 -0 59.0036)
(0 -0 59.2898)
(0 -0 59.5666)
(0 -0 59.8341)
(0 -0 60.0926)
(0 -0 60.3425)
(0 -0 60.5839)
(0 -0 60.8174)
(0 -0 61.0431)
(0 -0 61.2612)
(0 -0 61.4719)
(0 -0 61.6752)
(0 -0 61.8708)
(0 -0 62.0586)
(0 -0 62.2375)
(0 -0 62.408)
(0 -0 62.5678)
(0 -0 62.7181)
(0 -0 62.8554)
(0 -0 62.9826)
(0 -0 63.0933)
(0 -0 63.194)
(0 -0 63.2738)
(0 -0 63.3447)
(0 -0 63.3901)
(0 -0 63.4277)
(0 -0 63.4389)
(0 -0 63.4371)
(0 -0 63.4282)
(0 -0 63.3697)
(0 -0 48.0427)
(0 -0 47.6521)
(0 -0 47.8704)
(0 -0 48.2411)
(0 -0 48.7561)
(0 -0 49.2578)
(0 -0 49.689)
(0 -0 50.0885)
(0 -0 50.4806)
(0 -0 50.8636)
(0 -0 51.2334)
(0 -0 51.5906)
(0 -0 51.9364)
(0 -0 52.2714)
(0 -0 52.5961)
(0 -0 52.9107)
(0 -0 53.2156)
(0 -0 53.5112)
(0 -0 53.7976)
(0 -0 54.0749)
(0 -0 54.3431)
(0 -0 54.6024)
(0 -0 54.853)
(0 -0 55.0951)
(0 -0 55.3291)
(0 -0 55.5553)
(0 -0 55.7742)
(0 -0 55.9863)
(0 -0 56.1919)
(0 -0 56.3915)
(0 -0 56.5853)
(0 -0 56.7737)
(0 -0 56.9563)
(0 -0 57.1335)
(0 -0 57.3044)
(0 -0 57.4693)
(0 -0 57.6266)
(0 -0 57.7775)
(0 -0 57.9185)
(0 -0 58.0529)
(0 -0 58.1741)
(0 -0 58.2892)
(0 -0 58.3862)
(0 -0 58.4789)
(0 -0 58.5476)
(0 -0 58.6147)
(0 -0 58.6534)
(0 -0 58.6892)
(0 -0 58.7067)
(0 -0 58.6978)
(0 -0 44.287)
(0 -0 43.9703)
(0 -0 44.1875)
(0 -0 44.5059)
(0 -0 44.9508)
(0 -0 45.398)
(0 -0 45.7856)
(0 -0 46.1427)
(0 -0 46.4933)
(0 -0 46.8375)
(0 -0 47.1709)
(0 -0 47.4934)
(0 -0 47.8058)
(0 -0 48.1088)
(0 -0 48.4024)
(0 -0 48.687)
(0 -0 48.9629)
(0 -0 49.2302)
(0 -0 49.4892)
(0 -0 49.7397)
(0 -0 49.9818)
(0 -0 50.2157)
(0 -0 50.4414)
(0 -0 50.6594)
(0 -0 50.8698)
(0 -0 51.0732)
(0 -0 51.27)
(0 -0 51.4606)
(0 -0 51.6456)
(0 -0 51.8255)
(0 -0 52.0006)
(0 -0 52.1711)
(0 -0 52.337)
(0 -0 52.4985)
(0 -0 52.6549)
(0 -0 52.8066)
(0 -0 52.952)
(0 -0 53.0924)
(0 -0 53.2245)
(0 -0 53.3516)
(0 -0 53.4671)
(0 -0 53.5784)
(0 -0 53.6731)
(0 -0 53.7661)
(0 -0 53.8355)
(0 -0 53.9075)
(0 -0 53.9488)
(0 -0 53.9953)
(0 -0 54.0132)
(0 -0 54.023)
(0 -0 40.7946)
(0 -0 40.5362)
(0 -0 40.7486)
(0 -0 41.0218)
(0 -0 41.4037)
(0 -0 41.7995)
(0 -0 42.1463)
(0 -0 42.4642)
(0 -0 42.7764)
(0 -0 43.0843)
(0 -0 43.3838)
(0 -0 43.6739)
(0 -0 43.9552)
(0 -0 44.2282)
(0 -0 44.4929)
(0 -0 44.7494)
(0 -0 44.9981)
(0 -0 45.239)
(0 -0 45.4722)
(0 -0 45.6977)
(0 -0 45.9153)
(0 -0 46.1253)
(0 -0 46.3277)
(0 -0 46.5229)
(0 -0 46.7112)
(0 -0 46.893)
(0 -0 47.0688)
(0 -0 47.2391)
(0 -0 47.4045)
(0 -0 47.5655)
(0 -0 47.7223)
(0 -0 47.8754)
(0 -0 48.0245)
(0 -0 48.17)
(0 -0 48.3112)
(0 -0 48.4485)
(0 -0 48.5803)
(0 -0 48.708)
(0 -0 48.8283)
(0 -0 48.9444)
(0 -0 49.0501)
(0 -0 49.1526)
(0 -0 49.2394)
(0 -0 49.3261)
(0 -0 49.3895)
(0 -0 49.4583)
(0 -0 49.4944)
(0 -0 49.5422)
(0 -0 49.5529)
(0 -0 49.5692)
(0 -0 37.5557)
(0 -0 37.3437)
(0 -0 37.5475)
(0 -0 37.7818)
(0 -0 38.1075)
(0 -0 38.4551)
(0 -0 38.7641)
(0 -0 39.046)
(0 -0 39.3227)
(0 -0 39.597)
(0 -0 39.8651)
(0 -0 40.1252)
(0 -0 40.3777)
(0 -0 40.6228)
(0 -0 40.8606)
(0 -0 41.0911)
(0 -0 41.3146)
(0 -0 41.5309)
(0 -0 41.7401)
(0 -0 41.9422)
(0 -0 42.137)
(0 -0 42.3246)
(0 -0 42.5053)
(0 -0 42.6792)
(0 -0 42.8467)
(0 -0 43.0084)
(0 -0 43.1646)
(0 -0 43.3159)
(0 -0 43.463)
(0 -0 43.6062)
(0 -0 43.746)
(0 -0 43.8827)
(0 -0 44.0161)
(0 -0 44.1465)
(0 -0 44.2732)
(0 -0 44.3966)
(0 -0 44.5153)
(0 -0 44.6304)
(0 -0 44.739)
(0 -0 44.844)
(0 -0 44.9394)
(0 -0 45.0323)
(0 -0 45.1104)
(0 -0 45.1894)
(0 -0 45.2454)
(0 -0 45.309)
(0 -0 45.3382)
(0 -0 45.3845)
(0 -0 45.3864)
(0 -0 45.4054)
(0 -0 34.5599)
(0 -0 34.3851)
(0 -0 34.5765)
(0 -0 34.7773)
(0 -0 35.0534)
(0 -0 35.3565)
(0 -0 35.6303)
(0 -0 35.8794)
(0 -0 36.1236)
(0 -0 36.367)
(0 -0 36.606)
(0 -0 36.8386)
(0 -0 37.0646)
(0 -0 37.2841)
(0 -0 37.497)
(0 -0 37.7035)
(0 -0 37.9036)
(0 -0 38.0972)
(0 -0 38.2843)
(0 -0 38.4646)
(0 -0 38.6383)
(0 -0 38.8052)
(0 -0 38.9656)
(0 -0 39.1198)
(0 -0 39.2681)
(0 -0 39.411)
(0 -0 39.549)
(0 -0 39.6827)
(0 -0 39.8128)
(0 -0 39.9396)
(0 -0 40.0636)
(0 -0 40.185)
(0 -0 40.3039)
(0 -0 40.4203)
(0 -0 40.5337)
(0 -0 40.6442)
(0 -0 40.7508)
(0 -0 40.8542)
(0 -0 40.9519)
(0 -0 41.0464)
(0 -0 41.1321)
(0 -0 41.216)
(0 -0 41.2858)
(0 -0 41.3572)
(0 -0 41.4061)
(0 -0 41.4642)
(0 -0 41.4868)
(0 -0 41.5309)
(0 -0 41.5238)
(0 -0 41.5482)
(0 -0 31.7956)
(0 -0 31.6512)
(0 -0 31.8271)
(0 -0 31.9992)
(0 -0 32.2321)
(0 -0 32.4942)
(0 -0 32.7354)
(0 -0 32.9547)
(0 -0 33.1693)
(0 -0 33.3843)
(0 -0 33.5968)
(0 -0 33.8041)
(0 -0 34.0058)
(0 -0 34.2018)
(0 -0 34.3921)
(0 -0 34.5765)
(0 -0 34.7551)
(0 -0 34.9278)
(0 -0 35.0945)
(0 -0 35.2549)
(0 -0 35.4091)
(0 -0 35.5569)
(0 -0 35.6986)
(0 -0 35.8345)
(0 -0 35.965)
(0 -0 36.0906)
(0 -0 36.2118)
(0 -0 36.3293)
(0 -0 36.4437)
(0 -0 36.5554)
(0 -0 36.6649)
(0 -0 36.7724)
(0 -0 36.8779)
(0 -0 36.9815)
(0 -0 37.0826)
(0 -0 37.1815)
(0 -0 37.2769)
(0 -0 37.3697)
(0 -0 37.4573)
(0 -0 37.5423)
(0 -0 37.6192)
(0 -0 37.6947)
(0 -0 37.7569)
(0 -0 37.8212)
(0 -0 37.8638)
(0 -0 37.9166)
(0 -0 37.9335)
(0 -0 37.9754)
(0 -0 37.9606)
(0 -0 37.9888)
(0 -0 29.2508)
(0 -0 29.1311)
(0 -0 29.2897)
(0 -0 29.4377)
(0 -0 29.6329)
(0 -0 29.8577)
(0 -0 30.0689)
(0 -0 30.2611)
(0 -0 30.4489)
(0 -0 30.6382)
(0 -0 30.8264)
(0 -0 31.0108)
(0 -0 31.1903)
(0 -0 31.3649)
(0 -0 31.5344)
(0 -0 31.6988)
(0 -0 31.8578)
(0 -0 32.0114)
(0 -0 32.1594)
(0 -0 32.3016)
(0 -0 32.4378)
(0 -0 32.5681)
(0 -0 32.6927)
(0 -0 32.8119)
(0 -0 32.926)
(0 -0 33.0357)
(0 -0 33.1415)
(0 -0 33.2441)
(0 -0 33.344)
(0 -0 33.4419)
(0 -0 33.5381)
(0 -0 33.6329)
(0 -0 33.7263)
(0 -0 33.8182)
(0 -0 33.9082)
(0 -0 33.9964)
(0 -0 34.0818)
(0 -0 34.1649)
(0 -0 34.2435)
(0 -0 34.3199)
(0 -0 34.3889)
(0 -0 34.4567)
(0 -0 34.5121)
(0 -0 34.5701)
(0 -0 34.607)
(0 -0 34.6549)
(0 -0 34.6671)
(0 -0 34.7063)
(0 -0 34.686)
(0 -0 34.7154)
(0 -0 26.913)
(0 -0 26.8134)
(0 -0 26.9538)
(0 -0 27.0812)
(0 -0 27.2441)
(0 -0 27.4353)
(0 -0 27.619)
(0 -0 27.7867)
(0 -0 27.9504)
(0 -0 28.1164)
(0 -0 28.2826)
(0 -0 28.4462)
(0 -0 28.6058)
(0 -0 28.761)
(0 -0 28.9117)
(0 -0 29.0578)
(0 -0 29.1991)
(0 -0 29.3354)
(0 -0 29.4664)
(0 -0 29.5919)
(0 -0 29.7118)
(0 -0 29.8262)
(0 -0 29.9351)
(0 -0 30.0389)
(0 -0 30.1381)
(0 -0 30.2333)
(0 -0 30.325)
(0 -0 30.414)
(0 -0 30.5008)
(0 -0 30.5861)
(0 -0 30.6703)
(0 -0 30.7535)
(0 -0 30.8359)
(0 -0 30.9173)
(0 -0 30.9973)
(0 -0 31.0759)
(0 -0 31.1522)
(0 -0 31.2267)
(0 -0 31.2972)
(0 -0 31.3658)
(0 -0 31.4277)
(0 -0 31.4886)
(0 -0 31.5381)
(0 -0 31.5902)
(0 -0 31.6222)
(0 -0 31.6657)
(0 -0 31.6738)
(0 -0 31.7106)
(0 -0 31.6863)
(0 -0 31.7171)
(0 -0 24.7693)
(0 -0 24.686)
(0 -0 24.8083)
(0 -0 24.9181)
(0 -0 25.0533)
(0 -0 25.2145)
(0 -0 25.373)
(0 -0 25.5188)
(0 -0 25.661)
(0 -0 25.806)
(0 -0 25.9525)
(0 -0 26.0973)
(0 -0 26.2389)
(0 -0 26.3767)
(0 -0 26.5106)
(0 -0 26.6402)
(0 -0 26.7655)
(0 -0 26.8861)
(0 -0 27.0018)
(0 -0 27.1122)
(0 -0 27.2174)
(0 -0 27.3172)
(0 -0 27.4119)
(0 -0 27.5018)
(0 -0 27.5875)
(0 -0 27.6694)
(0 -0 27.7483)
(0 -0 27.8249)
(0 -0 27.8999)
(0 -0 27.9738)
(0 -0 28.0471)
(0 -0 28.12)
(0 -0 28.1924)
(0 -0 28.2643)
(0 -0 28.3354)
(0 -0 28.4055)
(0 -0 28.4737)
(0 -0 28.5404)
(0 -0 28.6038)
(0 -0 28.6654)
(0 -0 28.721)
(0 -0 28.7758)
(0 -0 28.8201)
(0 -0 28.8669)
(0 -0 28.8948)
(0 -0 28.9341)
(0 -0 28.9391)
(0 -0 28.9735)
(0 -0 28.946)
(0 -0 28.9783)
(0 -0 22.8069)
(0 -0 22.7367)
(0 -0 22.8415)
(0 -0 22.9359)
(0 -0 23.0476)
(0 -0 23.1823)
(0 -0 23.318)
(0 -0 23.444)
(0 -0 23.5671)
(0 -0 23.6934)
(0 -0 23.8222)
(0 -0 23.9503)
(0 -0 24.0759)
(0 -0 24.1981)
(0 -0 24.3169)
(0 -0 24.4318)
(0 -0 24.5427)
(0 -0 24.6493)
(0 -0 24.7512)
(0 -0 24.8482)
(0 -0 24.94)
(0 -0 25.0268)
(0 -0 25.1086)
(0 -0 25.186)
(0 -0 25.2593)
(0 -0 25.3293)
(0 -0 25.3966)
(0 -0 25.4621)
(0 -0 25.5264)
(0 -0 25.5901)
(0 -0 25.6536)
(0 -0 25.7171)
(0 -0 25.7807)
(0 -0 25.8443)
(0 -0 25.9074)
(0 -0 25.9698)
(0 -0 26.0309)
(0 -0 26.0908)
(0 -0 26.1478)
(0 -0 26.2033)
(0 -0 26.2535)
(0 -0 26.3028)
(0 -0 26.3425)
(0 -0 26.3846)
(0 -0 26.409)
(0 -0 26.4445)
(0 -0 26.4471)
(0 -0 26.4792)
(0 -0 26.4495)
(0 -0 26.4833)
(0 -0 21.0128)
(0 -0 20.953)
(0 -0 21.0414)
(0 -0 21.1223)
(0 -0 21.2139)
(0 -0 21.3255)
(0 -0 21.4406)
(0 -0 21.5489)
(0 -0 21.6551)
(0 -0 21.7649)
(0 -0 21.8779)
(0 -0 21.9912)
(0 -0 22.1025)
(0 -0 22.211)
(0 -0 22.3163)
(0 -0 22.4181)
(0 -0 22.5163)
(0 -0 22.6103)
(0 -0 22.7)
(0 -0 22.7848)
(0 -0 22.8647)
(0 -0 22.9398)
(0 -0 23.0101)
(0 -0 23.0761)
(0 -0 23.1384)
(0 -0 23.1977)
(0 -0 23.2546)
(0 -0 23.3101)
(0 -0 23.3647)
(0 -0 23.4193)
(0 -0 23.4741)
(0 -0 23.5294)
(0 -0 23.5852)
(0 -0 23.6412)
(0 -0 23.6973)
(0 -0 23.7531)
(0 -0 23.8079)
(0 -0 23.8618)
(0 -0 23.9132)
(0 -0 23.9634)
(0 -0 24.0088)
(0 -0 24.0534)
(0 -0 24.0891)
(0 -0 24.1271)
(0 -0 24.1485)
(0 -0 24.1806)
(0 -0 24.1813)
(0 -0 24.2112)
(0 -0 24.1805)
(0 -0 24.2148)
(0 -0 19.374)
(0 -0 19.3225)
(0 -0 19.396)
(0 -0 19.4648)
(0 -0 19.5395)
(0 -0 19.6309)
(0 -0 19.7276)
(0 -0 19.8201)
(0 -0 19.9114)
(0 -0 20.0066)
(0 -0 20.1057)
(0 -0 20.2058)
(0 -0 20.3046)
(0 -0 20.4009)
(0 -0 20.4943)
(0 -0 20.5846)
(0 -0 20.6715)
(0 -0 20.7544)
(0 -0 20.8332)
(0 -0 20.9073)
(0 -0 20.9766)
(0 -0 21.0411)
(0 -0 21.1011)
(0 -0 21.157)
(0 -0 21.2094)
(0 -0 21.259)
(0 -0 21.3067)
(0 -0 21.3532)
(0 -0 21.3993)
(0 -0 21.4457)
(0 -0 21.4928)
(0 -0 21.5408)
(0 -0 21.5897)
(0 -0 21.6392)
(0 -0 21.6891)
(0 -0 21.7391)
(0 -0 21.7884)
(0 -0 21.8371)
(0 -0 21.8838)
(0 -0 21.9293)
(0 -0 21.9705)
(0 -0 22.011)
(0 -0 22.0433)
(0 -0 22.0777)
(0 -0 22.0967)
(0 -0 22.1258)
(0 -0 22.1253)
(0 -0 22.1529)
(0 -0 22.1219)
(0 -0 22.1558)
(0 -0 17.878)
(0 -0 17.8331)
(0 -0 17.8932)
(0 -0 17.9513)
(0 -0 18.0116)
(0 -0 18.0855)
(0 -0 18.1658)
(0 -0 18.2442)
(0 -0 18.3225)
(0 -0 18.4049)
(0 -0 18.4918)
(0 -0 18.5803)
(0 -0 18.6681)
(0 -0 18.7537)
(0 -0 18.8367)
(0 -0 18.9169)
(0 -0 18.9938)
(0 -0 19.067)
(0 -0 19.1361)
(0 -0 19.2006)
(0 -0 19.2605)
(0 -0 19.3157)
(0 -0 19.3666)
(0 -0 19.4134)
(0 -0 19.457)
(0 -0 19.4981)
(0 -0 19.5374)
(0 -0 19.5759)
(0 -0 19.6145)
(0 -0 19.6537)
(0 -0 19.694)
(0 -0 19.7355)
(0 -0 19.7783)
(0 -0 19.8222)
(0 -0 19.8668)
(0 -0 19.9117)
(0 -0 19.9563)
(0 -0 20.0005)
(0 -0 20.0431)
(0 -0 20.0846)
(0 -0 20.1224)
(0 -0 20.1592)
(0 -0 20.1888)
(0 -0 20.2199)
(0 -0 20.2371)
(0 -0 20.2634)
(0 -0 20.2619)
(0 -0 20.2875)
(0 -0 20.2571)
(0 -0 20.2903)
(0 -0 16.5127)
(0 -0 16.473)
(0 -0 16.5214)
(0 -0 16.5697)
(0 -0 16.6179)
(0 -0 16.6768)
(0 -0 16.7425)
(0 -0 16.8084)
(0 -0 16.8752)
(0 -0 16.9465)
(0 -0 17.0226)
(0 -0 17.1011)
(0 -0 17.1793)
(0 -0 17.2556)
(0 -0 17.3295)
(0 -0 17.4008)
(0 -0 17.469)
(0 -0 17.5336)
(0 -0 17.5943)
(0 -0 17.6504)
(0 -0 17.702)
(0 -0 17.749)
(0 -0 17.7917)
(0 -0 17.8305)
(0 -0 17.8663)
(0 -0 17.8997)
(0 -0 17.9316)
(0 -0 17.9631)
(0 -0 17.9949)
(0 -0 18.0278)
(0 -0 18.0621)
(0 -0 18.098)
(0 -0 18.1356)
(0 -0 18.1745)
(0 -0 18.2145)
(0 -0 18.2551)
(0 -0 18.2957)
(0 -0 18.3361)
(0 -0 18.3752)
(0 -0 18.4133)
(0 -0 18.4481)
(0 -0 18.4819)
(0 -0 18.5092)
(0 -0 18.5376)
(0 -0 18.5532)
(0 -0 18.577)
(0 -0 18.5753)
(0 -0 18.5987)
(0 -0 18.5691)
(0 -0 18.6012)
(0 -0 15.2666)
(0 -0 15.2309)
(0 -0 15.2691)
(0 -0 15.3086)
(0 -0 15.3465)
(0 -0 15.3926)
(0 -0 15.4455)
(0 -0 15.5002)
(0 -0 15.557)
(0 -0 15.6186)
(0 -0 15.6855)
(0 -0 15.7552)
(0 -0 15.825)
(0 -0 15.8933)
(0 -0 15.9593)
(0 -0 16.0229)
(0 -0 16.0835)
(0 -0 16.1407)
(0 -0 16.1939)
(0 -0 16.2427)
(0 -0 16.287)