/*--------------------------------*- C++ -*----------------------------------*\
  =========                 |
  \\      /  F ield         | OpenFOAM: The Open Source CFD Toolbox
   \\    /   O peration     | Website:  https://openfoam.org
    \\  /    A nd           | Version:  7
     \\/     M anipulation  |
\*---------------------------------------------------------------------------*/
FoamFile
{
    version     2.0;
    format      ascii;
    class       volVectorField;
    location    "0.44";
    object      wallShearStress;
}
// * * * * * * * * * * * * * * * * * * * * * * * * * * * * * * * * * * * * * //

dimensions      [0 2 -2 0 0 0 0];

internalField   uniform (0 0 0);

boundaryField
{
    velocityInlet
    {
        type            calculated;
        value           uniform (0 0 0);
    }
    pressureOutlet
    {
        type            calculated;
        value           uniform (0 0 0);
    }
    fixedWalls
    {
        type            calculated;
        value           nonuniform List<vector> 
100
(
(-0.0154666 -0.00861378 0)
(0.0112942 -0.000811187 0)
(-0.00196301 0.000556409 0)
(0.00466896 -0.000506857 0)
(0.00483323 -0.000352492 0)
(0.00638172 -3.40103e-05 0)
(0.00495854 0.000148533 0)
(0.00376972 0.000249995 0)
(0.00220848 0.000233743 0)
(0.00111612 0.000174362 0)
(0.00045163 0.00010274 0)
(0.000258182 3.58951e-05 0)
(0.000429675 -2.16076e-05 0)
(0.000837041 -6.11601e-05 0)
(0.00135564 -8.20178e-05 0)
(0.00188868 -8.34539e-05 0)
(0.00243879 -8.46049e-05 0)
(0.00323357 -0.000129616 0)
(0.0045503 -0.000209629 0)
(0.00603472 -0.000221975 0)
(0.0068309 -0.000107557 0)
(0.00649528 4.40093e-05 0)
(0.00530674 0.000143393 0)
(0.00377353 0.000178449 0)
(0.00220362 0.00017571 0)
(0.000772197 0.000156808 0)
(-0.000444165 0.000132499 0)
(-0.00141807 0.000105297 0)
(-0.00215494 7.99006e-05 0)
(-0.00267547 5.73497e-05 0)
(-0.00301253 3.86138e-05 0)
(-0.00320375 2.40332e-05 0)
(-0.00328715 1.39042e-05 0)
(-0.00329631 6.48651e-06 0)
(-0.00325577 1.05871e-06 0)
(-0.0031777 -3.50911e-06 0)
(-0.0030612 -9.0968e-06 0)
(-0.00290057 -1.60397e-05 0)
(-0.00270238 -2.21203e-05 0)
(-0.00249889 -2.35467e-05 0)
(-0.00234435 -1.77485e-05 0)
(-0.0022977 -5.50203e-06 0)
(-0.00240646 1.50081e-05 0)
(-0.00268451 3.77126e-05 0)
(-0.00307395 5.30538e-05 0)
(-0.00343046 5.02634e-05 0)
(-0.00356696 2.68678e-05 0)
(-0.00332705 -2.0921e-05 0)
(-0.00265779 -7.5434e-05 0)
(-0.00166132 -0.00011688 0)
(-0.000592251 -0.000124553 0)
(0.000234551 -9.28201e-05 0)
(0.000585032 -3.8174e-05 0)
(0.000424473 2.06903e-05 0)
(-9.5826e-05 5.24646e-05 0)
(-0.000756347 6.70906e-05 0)
(-0.00138037 6.1158e-05 0)
(-0.00188098 4.74476e-05 0)
(-0.00223846 3.34295e-05 0)
(-0.00247292 2.21812e-05 0)
(-0.0026144 1.41934e-05 0)
(-0.00268682 8.51558e-06 0)
(-0.0027027 4.1134e-06 0)
(-0.00266644 -5.50411e-07 0)
(-0.0025795 -5.24904e-06 0)
(-0.00244482 -9.8056e-06 0)
(-0.00226949 -1.37849e-05 0)
(-0.00206487 -1.67387e-05 0)
(-0.00184547 -1.83412e-05 0)
(-0.001627 -1.84052e-05 0)
(-0.00142474 -1.68433e-05 0)
(-0.00125118 -1.39244e-05 0)
(-0.0011114 -1.05285e-05 0)
(-0.000999257 -7.86453e-06 0)
(-0.000899494 -6.80197e-06 0)
(-0.000792677 -7.96625e-06 0)
(-0.000657689 -1.18929e-05 0)
(-0.000479524 -1.76234e-05 0)
(-0.000273376 -2.10279e-05 0)
(-0.000101042 -1.73824e-05 0)
(-5.01924e-05 -5.42325e-06 0)
(-0.000175208 1.0275e-05 0)
(-0.00044975 2.31067e-05 0)
(-0.000786752 2.7895e-05 0)
(-0.00110013 2.45725e-05 0)
(-0.00134089 1.77916e-05 0)
(-0.00150303 1.13578e-05 0)
(-0.0016079 6.95267e-06 0)
(-0.00168145 4.90106e-06 0)
(-0.00174742 4.30825e-06 0)
(-0.00181711 5.03851e-06 0)
(-0.00189969 5.35071e-06 0)
(-0.0020081 8.19449e-06 0)
(-0.00213233 8.19986e-06 0)
(-0.00231478 1.31978e-05 0)
(-0.00253254 1.62773e-05 0)
(-0.00276109 8.69061e-06 0)
(-0.00275833 -4.5468e-06 0)
(-0.00331438 3.56432e-05 0)
(-0.00403632 3.12625e-05 0)
)
;
    }
    bottomWall
    {
        type            calculated;
        value           nonuniform List<vector> 
800
(
(-0.0353512 0.00216562 0)
(-0.0160366 0.000524957 0)
(-0.0105909 0.000100547 0)
(-0.0084563 3.45826e-05 0)
(-0.00749244 1.96773e-05 0)
(-0.00685693 1.60068e-05 0)
(-0.00634829 1.32073e-05 0)
(-0.00593722 1.07582e-05 0)
(-0.00560277 8.95767e-06 0)
(-0.00532419 7.65805e-06 0)
(-0.00508693 6.67331e-06 0)
(-0.00488155 5.8953e-06 0)
(-0.00470159 5.26511e-06 0)
(-0.00454232 4.74587e-06 0)
(-0.00440014 4.31195e-06 0)
(-0.00427228 3.94479e-06 0)
(-0.00415656 3.63068e-06 0)
(-0.00405124 3.35933e-06 0)
(-0.0039549 3.1229e-06 0)
(-0.00386638 2.91534e-06 0)
(-0.00378473 2.7319e-06 0)
(-0.00370914 2.56879e-06 0)
(-0.00363894 2.42296e-06 0)
(-0.00357354 2.29194e-06 0)
(-0.00351245 2.17368e-06 0)
(-0.00345525 2.06647e-06 0)
(-0.00340156 1.96891e-06 0)
(-0.00335106 1.87981e-06 0)
(-0.00330347 1.79815e-06 0)
(-0.00325853 1.72306e-06 0)
(-0.00321604 1.65383e-06 0)
(-0.00317579 1.58983e-06 0)
(-0.0031376 1.53051e-06 0)
(-0.00310133 1.47541e-06 0)
(-0.00306682 1.4241e-06 0)
(-0.00303396 1.37623e-06 0)
(-0.00300263 1.3315e-06 0)
(-0.00297272 1.2896e-06 0)
(-0.00294413 1.25028e-06 0)
(-0.00291679 1.21334e-06 0)
(-0.00289062 1.17858e-06 0)
(-0.00286554 1.1458e-06 0)
(-0.00284148 1.11488e-06 0)
(-0.00281839 1.0856e-06 0)
(-0.00279621 1.05802e-06 0)
(-0.00277489 1.03164e-06 0)
(-0.00275438 1.0071e-06 0)
(-0.00273464 9.8295e-07 0)
(-0.00271561 9.61248e-07 0)
(-0.00269729 9.38093e-07 0)
(-0.00268198 9.19131e-07 0)
(-0.00266933 9.08382e-07 0)
(-0.00265686 8.94593e-07 0)
(-0.00264458 8.799e-07 0)
(-0.00263249 8.66137e-07 0)
(-0.00262059 8.53045e-07 0)
(-0.00260887 8.40269e-07 0)
(-0.00259732 8.27767e-07 0)
(-0.00258594 8.15567e-07 0)
(-0.00257473 8.03662e-07 0)
(-0.00256368 7.92035e-07 0)
(-0.00255279 7.80672e-07 0)
(-0.00254205 7.69563e-07 0)
(-0.00253146 7.58701e-07 0)
(-0.00252103 7.48077e-07 0)
(-0.00251074 7.37683e-07 0)
(-0.00250059 7.27511e-07 0)
(-0.00249058 7.17554e-07 0)
(-0.0024807 7.07805e-07 0)
(-0.00247096 6.98258e-07 0)
(-0.00246135 6.88906e-07 0)
(-0.00245187 6.79744e-07 0)
(-0.00244251 6.70765e-07 0)
(-0.00243327 6.61965e-07 0)
(-0.00242416 6.53339e-07 0)
(-0.00241516 6.44882e-07 0)
(-0.00240628 6.36591e-07 0)
(-0.00239752 6.2846e-07 0)
(-0.00238886 6.20488e-07 0)
(-0.00238031 6.12669e-07 0)
(-0.00237187 6.05001e-07 0)
(-0.00236354 5.9748e-07 0)
(-0.00235531 5.90104e-07 0)
(-0.00234717 5.82867e-07 0)
(-0.00233914 5.75769e-07 0)
(-0.00233121 5.68804e-07 0)
(-0.00232337 5.6197e-07 0)
(-0.00231562 5.55264e-07 0)
(-0.00230797 5.48682e-07 0)
(-0.0023004 5.42223e-07 0)
(-0.00229293 5.35883e-07 0)
(-0.00228554 5.29658e-07 0)
(-0.00227824 5.23546e-07 0)
(-0.00227102 5.17545e-07 0)
(-0.00226388 5.11653e-07 0)
(-0.00225682 5.05865e-07 0)
(-0.00224985 5.00181e-07 0)
(-0.00224295 4.94597e-07 0)
(-0.00223613 4.89112e-07 0)
(-0.00222938 4.83723e-07 0)
(-0.00222271 4.78429e-07 0)
(-0.00221611 4.73227e-07 0)
(-0.00220958 4.68115e-07 0)
(-0.00220313 4.63092e-07 0)
(-0.00219674 4.58155e-07 0)
(-0.00219042 4.53303e-07 0)
(-0.00218416 4.48535e-07 0)
(-0.00217798 4.43846e-07 0)
(-0.00217185 4.39237e-07 0)
(-0.00216579 4.34706e-07 0)
(-0.0021598 4.3025e-07 0)
(-0.00215386 4.25867e-07 0)
(-0.00214799 4.21556e-07 0)
(-0.00214217 4.17315e-07 0)
(-0.00213642 4.13143e-07 0)
(-0.00213072 4.09037e-07 0)
(-0.00212507 4.04995e-07 0)
(-0.00211949 4.01018e-07 0)
(-0.00211396 3.97103e-07 0)
(-0.00210848 3.93248e-07 0)
(-0.00210306 3.89452e-07 0)
(-0.00209769 3.85714e-07 0)
(-0.00209237 3.82033e-07 0)
(-0.0020871 3.78408e-07 0)
(-0.00208188 3.74837e-07 0)
(-0.00207671 3.71319e-07 0)
(-0.00207159 3.67854e-07 0)
(-0.00206652 3.6444e-07 0)
(-0.0020615 3.61078e-07 0)
(-0.00205652 3.57765e-07 0)
(-0.00205159 3.54502e-07 0)
(-0.0020467 3.51288e-07 0)
(-0.00204186 3.48123e-07 0)
(-0.00203706 3.45003e-07 0)
(-0.0020323 3.41931e-07 0)
(-0.00202759 3.38903e-07 0)
(-0.00202292 3.35922e-07 0)
(-0.00201829 3.32982e-07 0)
(-0.0020137 3.30092e-07 0)
(-0.00200916 3.27237e-07 0)
(-0.00200465 3.24435e-07 0)
(-0.00200018 3.21659e-07 0)
(-0.00199575 3.1895e-07 0)
(-0.00199135 3.16241e-07 0)
(-0.001987 3.13633e-07 0)
(-0.00198268 3.10975e-07 0)
(-0.0019784 3.08481e-07 0)
(-0.00197415 3.05838e-07 0)
(-0.00196994 3.03448e-07 0)
(-0.00196576 3.0074e-07 0)
(-0.00196225 2.98344e-07 0)
(-0.00195939 2.97131e-07 0)
(-0.00195652 2.95642e-07 0)
(-0.00195365 2.93908e-07 0)
(-0.00195077 2.92206e-07 0)
(-0.00194789 2.90536e-07 0)
(-0.00194501 2.88906e-07 0)
(-0.00194212 2.87274e-07 0)
(-0.00193923 2.85652e-07 0)
(-0.00193633 2.84036e-07 0)
(-0.00193343 2.82432e-07 0)
(-0.00193053 2.80836e-07 0)
(-0.00192762 2.79256e-07 0)
(-0.00192471 2.77666e-07 0)
(-0.0019218 2.7609e-07 0)
(-0.00191889 2.74522e-07 0)
(-0.00191597 2.72968e-07 0)
(-0.00191304 2.71414e-07 0)
(-0.00191012 2.69869e-07 0)
(-0.00190718 2.68332e-07 0)
(-0.00190425 2.66807e-07 0)
(-0.00190131 2.65291e-07 0)
(-0.00189837 2.63785e-07 0)
(-0.00189543 2.62279e-07 0)
(-0.00189248 2.60786e-07 0)
(-0.00188953 2.59296e-07 0)
(-0.00188658 2.57817e-07 0)
(-0.00188362 2.56343e-07 0)
(-0.00188066 2.54883e-07 0)
(-0.00187769 2.5343e-07 0)
(-0.00187472 2.51986e-07 0)
(-0.00187175 2.50546e-07 0)
(-0.00186878 2.49112e-07 0)
(-0.0018658 2.47687e-07 0)
(-0.00186282 2.46273e-07 0)
(-0.00185983 2.44867e-07 0)
(-0.00185684 2.43472e-07 0)
(-0.00185385 2.42082e-07 0)
(-0.00185086 2.40707e-07 0)
(-0.00184786 2.39324e-07 0)
(-0.00184486 2.37961e-07 0)
(-0.00184185 2.36593e-07 0)
(-0.00183884 2.3524e-07 0)
(-0.00183583 2.33895e-07 0)
(-0.00183281 2.32565e-07 0)
(-0.00182979 2.31232e-07 0)
(-0.00182677 2.2991e-07 0)
(-0.00182374 2.28601e-07 0)
(-0.00182071 2.27309e-07 0)
(-0.00181768 2.26002e-07 0)
(-0.00181464 2.24713e-07 0)
(-0.0018116 2.23429e-07 0)
(-0.00180856 2.22164e-07 0)
(-0.00180551 2.20906e-07 0)
(-0.00180246 2.19663e-07 0)
(-0.0017994 2.1843e-07 0)
(-0.00179634 2.17219e-07 0)
(-0.00179327 2.15996e-07 0)
(-0.0017902 2.14809e-07 0)
(-0.00178713 2.13611e-07 0)
(-0.00178405 2.12439e-07 0)
(-0.00178097 2.11275e-07 0)
(-0.00177789 2.10128e-07 0)
(-0.00177479 2.09014e-07 0)
(-0.0017717 2.07936e-07 0)
(-0.0017686 2.06807e-07 0)
(-0.00176549 2.05729e-07 0)
(-0.00176238 2.04662e-07 0)
(-0.00175926 2.03635e-07 0)
(-0.00175613 2.02594e-07 0)
(-0.001753 2.0158e-07 0)
(-0.00174987 2.00586e-07 0)
(-0.00174672 1.9961e-07 0)
(-0.00174357 1.98675e-07 0)
(-0.00174042 1.97762e-07 0)
(-0.00173725 1.96844e-07 0)
(-0.00173408 1.9594e-07 0)
(-0.0017309 1.95104e-07 0)
(-0.00172771 1.94199e-07 0)
(-0.00172452 1.93501e-07 0)
(-0.00172131 1.92484e-07 0)
(-0.00171809 1.92064e-07 0)
(-0.00171488 1.9086e-07 0)
(-0.00171163 1.90925e-07 0)
(-0.00170841 1.88953e-07 0)
(-0.00170511 1.90315e-07 0)
(-0.0017019 1.86549e-07 0)
(-0.00169854 1.90862e-07 0)
(-0.00169537 1.82819e-07 0)
(-0.00169187 1.93799e-07 0)
(-0.00168883 1.76006e-07 0)
(-0.00168508 2.01724e-07 0)
(-0.00168233 1.62473e-07 0)
(-0.0016781 2.19694e-07 0)
(-0.00167593 1.355e-07 0)
(-0.00167084 2.56156e-07 0)
(-0.0016697 8.44455e-08 0)
(-0.00166328 3.20534e-07 0)
(-0.00166361 3.66065e-09 0)
(-0.00165547 3.53421e-07 0)
(-0.0353511 -0.00216564 0)
(-0.016036 -0.000524978 0)
(-0.0105898 -0.000100568 0)
(-0.0084547 -3.46001e-05 0)
(-0.00749051 -1.96921e-05 0)
(-0.00685476 -1.60193e-05 0)
(-0.00634594 -1.3218e-05 0)
(-0.00593474 -1.07676e-05 0)
(-0.00560019 -8.96596e-06 0)
(-0.00532156 -7.66513e-06 0)
(-0.0050843 -6.67892e-06 0)
(-0.00487898 -5.89905e-06 0)
(-0.00469915 -5.2666e-06 0)
(-0.00454009 -4.74472e-06 0)
(-0.00439821 -4.30784e-06 0)
(-0.00427074 -3.93745e-06 0)
(-0.00415551 -3.61985e-06 0)
(-0.00405078 -3.34473e-06 0)
(-0.00395514 -3.10414e-06 0)
(-0.00386745 -2.89193e-06 0)
(-0.00378676 -2.7032e-06 0)
(-0.00371228 -2.53402e-06 0)
(-0.00364336 -2.38124e-06 0)
(-0.00357944 -2.24225e-06 0)
(-0.00352004 -2.11491e-06 0)
(-0.00346478 -1.99742e-06 0)
(-0.0034133 -1.88826e-06 0)
(-0.00336532 -1.78616e-06 0)
(-0.0033206 -1.68997e-06 0)
(-0.0032789 -1.59889e-06 0)
(-0.00324007 -1.51189e-06 0)
(-0.00320393 -1.42877e-06 0)
(-0.00317038 -1.34845e-06 0)
(-0.00313928 -1.27177e-06 0)
(-0.00311056 -1.19722e-06 0)
(-0.00308412 -1.1278e-06 0)
(-0.00305983 -1.06079e-06 0)
(-0.00303773 -1.00361e-06 0)
(-0.00301741 -9.51599e-07 0)
(-0.0029993 -9.19256e-07 0)
(-0.00298204 -9.02712e-07 0)
(-0.00296748 -9.20417e-07 0)
(-0.00295101 -9.95029e-07 0)
(-0.00293968 -1.10035e-06 0)
(-0.00291759 -1.42903e-06 0)
(-0.00291156 -1.63444e-06 0)
(-0.00286359 -2.70856e-06 0)
(-0.00287885 -2.72584e-06 0)
(-0.00274068 -1.01307e-05 0)
(-0.0026802 0.000186098 0)
(-1.96999e-05 3.1045e-05 0)
(3.15924e-05 -7.84355e-07 0)
(4.13718e-05 -0.000109272 0)
(-5.21191e-06 -0.000174618 0)
(-6.70753e-05 -0.00015211 0)
(-0.000107118 -4.11089e-05 0)
(-9.10477e-05 0.000122541 0)
(-3.48937e-05 0.000245882 0)
(8.31416e-06 0.000297865 0)
(2.33621e-05 0.000303356 0)
(-2.62594e-05 0.000331692 0)
(-0.000165266 0.000482964 0)
(-0.000302611 0.000815456 0)
(-0.000287111 0.00117612 0)
(-0.000154076 0.00135979 0)
(-4.31569e-05 0.00138695 0)
(3.24714e-05 0.00132966 0)
(8.37638e-05 0.00122014 0)
(0.000119945 0.00107312 0)
(0.000148006 0.000898699 0)
(0.000172244 0.000701832 0)
(0.00019626 0.000487516 0)
(0.000221016 0.000250762 0)
(0.000233067 -1.42329e-05 0)
(0.000237557 -0.000280975 0)
(0.000238923 -0.000546365 0)
(0.000236483 -0.000810502 0)
(0.000229778 -0.00106895 0)
(0.000219238 -0.00131727 0)
(0.000205593 -0.00155211 0)
(0.00018959 -0.00177105 0)
(0.000171916 -0.00197249 0)
(0.000153166 -0.00215547 0)
(0.000133829 -0.00231959 0)
(0.000114278 -0.00246484 0)
(9.47978e-05 -0.00259152 0)
(7.5574e-05 -0.00270014 0)
(5.67471e-05 -0.00279128 0)
(3.83636e-05 -0.00286571 0)
(2.04666e-05 -0.00292403 0)
(3.00224e-06 -0.00296715 0)
(-1.41017e-05 -0.00299544 0)
(-3.10171e-05 -0.00300996 0)
(-4.82054e-05 -0.00301075 0)
(-6.5699e-05 -0.00299779 0)
(-8.31754e-05 -0.00297168 0)
(-0.000100577 -0.00293292 0)
(-0.000117906 -0.00288188 0)
(-0.000135226 -0.0028189 0)
(-0.00015263 -0.0027443 0)
(-0.000170178 -0.00265828 0)
(-0.000187883 -0.00256096 0)
(-0.000205714 -0.00245246 0)
(-0.000223566 -0.00233286 0)
(-0.000241249 -0.00220229 0)
(-0.000258381 -0.00206093 0)
(-0.000274428 -0.00190918 0)
(-0.000288606 -0.00174757 0)
(-0.000299807 -0.00157689 0)
(-0.000306652 -0.00139838 0)
(-0.000307658 -0.00121395 0)
(-0.00030155 -0.00102612 0)
(-0.00028753 -0.00083811 0)
(-0.000265694 -0.000653237 0)
(-0.000235999 -0.000472981 0)
(-0.000192992 -0.000298655 0)
(-0.000127174 -0.00013653 0)
(-3.79665e-05 4.33329e-07 0)
(6.56055e-05 0.000101716 0)
(0.00017048 0.000161813 0)
(0.000257606 0.000177985 0)
(0.000308769 0.000159449 0)
(0.000314552 0.000119923 0)
(0.000281089 7.52319e-05 0)
(0.000213295 3.24621e-05 0)
(0.00011959 2.17472e-06 0)
(2.31028e-05 -8.87716e-06 0)
(-5.1344e-05 -2.63237e-06 0)
(-8.50829e-05 7.26336e-06 0)
(-8.21265e-05 1.3342e-06 0)
(-6.75231e-05 -2.10785e-05 0)
(-5.47276e-05 -4.18355e-05 0)
(-4.10327e-05 -5.10653e-05 0)
(-2.54027e-05 -5.02793e-05 0)
(-1.12782e-05 -4.38474e-05 0)
(-1.43693e-06 -3.48663e-05 0)
(1.67839e-06 -2.46449e-05 0)
(-1.99321e-06 -1.17151e-05 0)
(-7.88492e-06 4.25049e-06 0)
(-1.1129e-05 2.00317e-05 0)
(-9.70069e-06 3.13135e-05 0)
(-4.57332e-06 3.55474e-05 0)
(2.93189e-06 3.33247e-05 0)
(1.33586e-05 2.55684e-05 0)
(2.70557e-05 1.11138e-05 0)
(4.19514e-05 -1.15647e-05 0)
(5.48055e-05 -4.14638e-05 0)
(6.38352e-05 -7.52565e-05 0)
(6.96826e-05 -0.000110227 0)
(7.34425e-05 -0.000145422 0)
(7.53785e-05 -0.000180528 0)
(7.56423e-05 -0.000215057 0)
(7.42427e-05 -0.000248531 0)
(7.11619e-05 -0.000280424 0)
(6.63422e-05 -0.000310195 0)
(5.97289e-05 -0.00033722 0)
(5.13938e-05 -0.000360784 0)
(4.16408e-05 -0.000380172 0)
(3.1016e-05 -0.0003948 0)
(2.02802e-05 -0.000404292 0)
(1.03905e-05 -0.000408585 0)
(2.41668e-06 -0.000408139 0)
(-2.83802e-06 -0.000404075 0)
(-5.11765e-06 -0.00039778 0)
(-4.48567e-06 -0.0003906 0)
(-1.08052e-06 -0.000383744 0)
(5.09604e-06 -0.000378258 0)
(1.40228e-05 -0.000375038 0)
(2.53733e-05 -0.000374576 0)
(3.77309e-05 -0.000376262 0)
(4.96263e-05 -0.000377452 0)
(6.28095e-05 -0.000376289 0)
(7.55019e-05 -0.00035854 0)
(8.66188e-05 -0.000341634 0)
(8.74511e-05 -0.000331355 0)
(6.12334e-05 -0.000321428 0)
(-3.34761e-06 -0.000303502 0)
(-0.000104301 -0.000255466 0)
(-0.000219272 -0.000159887 0)
(-0.000320529 -2.55607e-05 0)
(-0.00039864 0.000123252 0)
(-0.000460545 0.000272393 0)
(-0.000513398 0.000422746 0)
(-0.00055694 0.000579389 0)
(-0.000585524 0.00074191 0)
(-0.000594509 0.000903754 0)
(-0.000583642 0.00105673 0)
(-0.000556296 0.00119514 0)
(-0.000517045 0.00131656 0)
(-0.00047009 0.00142065 0)
(-0.000418751 0.00150801 0)
(-0.000365458 0.0015796 0)
(-0.000311963 0.00163647 0)
(-0.000259539 0.0016797 0)
(-0.000209067 0.00171042 0)
(-0.000161053 0.00172979 0)
(-0.000115668 0.00173895 0)
(-7.30061e-05 0.00173876 0)
(-3.33939e-05 0.00173014 0)
(3.61484e-06 0.00171437 0)
(3.85517e-05 0.00169184 0)
(7.14638e-05 0.0016632 0)
(0.000102647 0.00162888 0)
(0.00013229 0.00158932 0)
(0.000160607 0.00154489 0)
(0.000187768 0.00149589 0)
(0.000213921 0.00144261 0)
(0.000239184 0.00138527 0)
(0.000263644 0.00132408 0)
(0.000287354 0.00125922 0)
(0.000310336 0.00119087 0)
(0.000332573 0.00111917 0)
(0.000354011 0.00104426 0)
(0.000374555 0.00096629 0)
(0.000394065 0.000885406 0)
(0.000412357 0.000801765 0)
(0.000429201 0.000715549 0)
(0.00044432 0.000626968 0)
(0.000457396 0.000536278 0)
(0.000468073 0.000443784 0)
(0.000475969 0.000349856 0)
(0.000480688 0.000254937 0)
(0.000481866 0.000159541 0)
(0.000478868 6.42272e-05 0)
(0.000471248 -3.01653e-05 0)
(0.000458962 -0.000122849 0)
(0.000441589 -0.000213076 0)
(0.00041866 -0.000299845 0)
(0.000390097 -0.000382164 0)
(0.000355862 -0.000459019 0)
(0.000316046 -0.000529284 0)
(0.000270995 -0.000591908 0)
(0.000221179 -0.000645986 0)
(0.000167268 -0.000690635 0)
(0.000110154 -0.000725127 0)
(5.09888e-05 -0.000748976 0)
(-9.14083e-06 -0.000762054 0)
(-6.96461e-05 -0.000764156 0)
(-0.000129093 -0.000754897 0)
(-0.00018557 -0.000734757 0)
(-0.000237832 -0.000704423 0)
(-0.00028483 -0.000664713 0)
(-0.000325638 -0.000616862 0)
(-0.000359627 -0.000562849 0)
(-0.000386795 -0.00050655 0)
(-0.000409149 -0.00045755 0)
(-0.000435313 -0.000438203 0)
(-0.000489611 -0.000490418 0)
(-0.000606909 -0.000666137 0)
(-0.000812603 -0.000994315 0)
(4.18272e-06 3.62252e-05 0)
(-1.99384e-05 1.44605e-05 0)
(1.12783e-05 -5.67717e-05 0)
(0.000120337 -0.000141906 0)
(0.000270319 -0.000166554 0)
(0.000378123 -0.000107602 0)
(0.000400366 -1.65056e-05 0)
(0.000348653 7.28183e-05 0)
(0.000230209 0.00014354 0)
(6.51761e-05 0.000172205 0)
(-9.90471e-05 0.000155485 0)
(-0.000230591 0.000113708 0)
(-0.000322307 6.24872e-05 0)
(-0.00037404 7.90117e-06 0)
(-0.000384665 -4.91133e-05 0)
(-0.000350882 -0.000108123 0)
(-0.000269973 -0.000165174 0)
(-0.000138717 -0.000212462 0)
(3.88637e-05 -0.000230912 0)
(0.00023788 -0.000194491 0)
(0.000396819 -9.61282e-05 0)
(0.000459615 1.04935e-05 0)
(0.000448916 6.6292e-05 0)
(0.00039818 8.86322e-05 0)
(0.00032109 0.000108839 0)
(0.000210556 0.000122788 0)
(8.97554e-05 0.000109878 0)
(-7.58329e-06 7.64075e-05 0)
(-6.30881e-05 4.5283e-05 0)
(-9.75572e-05 6.03196e-05 0)
(-0.000151961 0.000118285 0)
(-0.000194502 0.000179487 0)
(-0.000193974 0.000235234 0)
(-0.000168962 0.000237817 0)
(-0.000137999 0.000111627 0)
(3.06526e-06 -0.000220975 0)
(0.000339964 -0.000535252 0)
(0.000792144 -0.000555504 0)
(0.00104103 -0.000327644 0)
(0.00110411 -0.000194959 0)
(0.00116575 -0.000138475 0)
(0.00119928 -7.34903e-05 0)
(0.00119702 -3.64579e-05 0)
(0.00118504 -1.55677e-05 0)
(0.00116116 7.26012e-06 0)
(0.00112275 2.60021e-05 0)
(0.00107447 4.06527e-05 0)
(0.00101718 5.40763e-05 0)
(0.000951072 6.57016e-05 0)
(0.000877529 7.52691e-05 0)
(0.00079768 8.33094e-05 0)
(0.000712268 9.03407e-05 0)
(0.000621757 9.67569e-05 0)
(0.000526444 0.000102763 0)
(0.000426554 0.000108404 0)
(0.000322323 0.000113624 0)
(0.00021404 0.00011829 0)
(0.000102165 0.000122531 0)
(-1.38045e-05 0.000126596 0)
(-0.00013564 0.00013263 0)
(-0.000263305 0.000138923 0)
(-0.000389501 0.000142877 0)
(-0.000516143 0.000146939 0)
(-0.000648378 0.000152196 0)
(-0.000787075 0.000159304 0)
(-0.000932938 0.000168403 0)
(-0.00108714 0.00017969 0)
(-0.00125142 0.000192927 0)
(-0.00142695 0.000207106 0)
(-0.00161401 0.000220875 0)
(-0.00181169 0.000232552 0)
(-0.00201799 0.000239303 0)
(-0.00222812 0.000238562 0)
(-0.00243605 0.000226518 0)
(-0.00263053 0.000199337 0)
(-0.0028011 0.000152672 0)
(-0.00293191 8.37474e-05 0)
(-0.00301087 -1.16892e-05 0)
(-0.00301835 -0.000139401 0)
(-0.0029301 -0.000301388 0)
(-0.00272732 -0.000507352 0)
(-0.00237299 -0.00074069 0)
(-0.00185347 -0.00102389 0)
(-0.000906862 -0.00116556 0)
(0.000117441 -0.000605359 0)
(0.000407455 0.000212021 0)
(0.000359981 0.00043661 0)
(0.000320565 -0.000121809 0)
(0.000427427 -0.000297694 0)
(0.00071448 -0.000214375 0)
(0.000849184 -0.000143024 0)
(0.000911086 -4.80456e-05 0)
(0.000867592 6.479e-05 0)
(0.000752002 0.000124807 0)
(0.000607676 0.000154567 0)
(0.000456499 0.000159169 0)
(0.000314954 0.000145466 0)
(0.00019296 0.000124804 0)
(8.75557e-05 0.000103423 0)
(-5.75136e-06 6.73418e-05 0)
(5.80405e-05 3.05876e-05 0)
(6.59683e-05 0.000140319 0)
(7.53311e-05 0.000261678 0)
(7.54215e-05 0.000398036 0)
(6.67079e-05 0.000522792 0)
(5.25858e-05 0.000621998 0)
(3.04503e-05 0.000684027 0)
(-8.50663e-07 0.000698967 0)
(-3.24304e-05 0.000668671 0)
(-5.51398e-05 0.000610022 0)
(-6.46354e-05 0.00054079 0)
(-5.93023e-05 0.00047692 0)
(-3.95933e-05 0.000430648 0)
(-1.01283e-05 0.000406712 0)
(1.55588e-05 0.000399002 0)
(1.69535e-05 0.000386835 0)
(-1.82741e-05 0.000336171 0)
(-7.25729e-05 0.000225235 0)
(-0.000111362 5.8165e-05 0)
(-0.000114968 -0.000122471 0)
(-8.85443e-05 -0.000279224 0)
(-3.9575e-05 -0.000385184 0)
(1.85859e-05 -0.000422802 0)
(7.37964e-05 -0.000391346 0)
(0.00011186 -0.000301329 0)
(0.000120855 -0.000173414 0)
(9.55552e-05 -4.25881e-05 0)
(4.74516e-05 5.57189e-05 0)
(-3.64493e-06 0.000102349 0)
(-4.77537e-05 9.49184e-05 0)
(-8.07261e-05 4.51576e-05 0)
(-9.60371e-05 -3.28618e-05 0)
(-9.43283e-05 -0.000121293 0)
(-8.74224e-05 -0.000210525 0)
(-6.47612e-05 -0.000290583 0)
(-3.80805e-05 -0.000320089 0)
(-2.97142e-05 -0.000295777 0)
(-2.01057e-05 -0.000266328 0)
(2.5877e-05 -0.000225675 0)
(9.2545e-05 -0.00017009 0)
(0.000174491 -0.000147348 0)
(0.000269318 -0.000139859 0)
(0.00033431 -7.68493e-05 0)
(0.000164686 4.72894e-05 0)
(-0.000176405 5.49578e-05 0)
(-0.000499625 -5.60296e-05 0)
(-0.000658595 -0.000197989 0)
(-0.000665582 -0.000334426 0)
(-0.000557766 -0.000468658 0)
(-0.00023301 -0.00045634 0)
(0.000148195 -0.000240923 0)
(0.00043725 7.83749e-05 0)
(0.0005182 0.000442094 0)
(0.000399289 0.000728426 0)
(0.000286191 0.00090923 0)
(0.000206776 0.00110571 0)
(9.5423e-05 0.00130469 0)
(1.07906e-05 0.00144883 0)
(-2.52259e-05 0.0015616 0)
(-1.56663e-05 0.00165422 0)
(4.07061e-05 0.00174906 0)
(0.000132976 0.00186316 0)
(0.000265902 0.00200131 0)
(0.000441038 0.00217967 0)
(0.000628035 0.00242183 0)
(0.000734176 0.00274594 0)
(0.000643995 0.00309302 0)
(0.000367318 0.00331788 0)
(9.72386e-05 0.00333066 0)
(8.0093e-06 0.00325769 0)
(6.30173e-05 0.00323403 0)
(0.000111145 0.00327992 0)
(7.62986e-05 0.00332448 0)
(4.1269e-06 0.00330754 0)
(-3.94602e-05 0.00324014 0)
(-5.52502e-05 0.00315933 0)
(-8.1022e-05 0.00307055 0)
(-0.000131769 0.00295599 0)
(-0.000194942 0.00280904 0)
(-0.000255435 0.002643 0)
(-0.000301541 0.00248489 0)
(-0.000323507 0.00238314 0)
(-0.00033933 0.00239341 0)
(-0.000386797 0.00251146 0)
(-0.000445062 0.00265524 0)
(-0.000403538 0.00275544 0)
(-0.000116559 0.00292256 0)
(0.00074364 0.00375739 0)
(0.00181272 0.00390042 0)
(0.00215521 0.00444215 0)
(0.00172694 0.00587987 0)
(0.000592947 0.00606771 0)
(0.000110033 0.00542855 0)
(0.000193709 0.00529835 0)
(0.000103886 0.00543703 0)
(-0.000151368 0.00536551 0)
(-0.000212043 0.00513994 0)
(-0.000152597 0.00503823 0)
(-0.000174102 0.00499887 0)
(-0.000220446 0.00489212 0)
(-0.000203633 0.00477145 0)
(-0.000174117 0.00469932 0)
(-0.000175157 0.00463751 0)
(-0.000177036 0.00455757 0)
(-0.000163739 0.00448254 0)
(-0.000154131 0.00442246 0)
(-0.000154327 0.00436236 0)
(-0.000154113 0.00429768 0)
(-0.000151746 0.00423547 0)
(-0.000152335 0.00417605 0)
(-0.000155823 0.00411497 0)
(-0.00015942 0.00405192 0)
(-0.00016311 0.00398857 0)
(-0.000167859 0.00392456 0)
(-0.000173266 0.00385893 0)
(-0.000178649 0.00379184 0)
(-0.000184001 0.00372372 0)
(-0.000189423 0.00365454 0)
(-0.000194758 0.00358423 0)
(-0.000199852 0.00351298 0)
(-0.000204696 0.00344096 0)
(-0.000209307 0.0033683 0)
(-0.000213673 0.00329508 0)
(-0.000217789 0.00322141 0)
(-0.000221677 0.00314742 0)
(-0.000225372 0.00307319 0)
(-0.0002289 0.00299877 0)
(-0.000232293 0.00292425 0)
(-0.00023558 0.00284965 0)
(-0.000238791 0.00277503 0)
(-0.000241952 0.0027004 0)
(-0.000245087 0.0026258 0)
(-0.000248215 0.00255124 0)
(-0.000251356 0.00247672 0)
(-0.000254525 0.00240226 0)
(-0.000257738 0.00232786 0)
(-0.00026101 0.00225353 0)
(-0.000264355 0.00217926 0)
(-0.00026779 0.00210505 0)
(-0.000271331 0.0020309 0)
(-0.000274999 0.00195679 0)
(-0.000278816 0.00188271 0)
(-0.000282804 0.00180864 0)
(-0.000286992 0.00173456 0)
(-0.000291406 0.00166043 0)
(-0.000296078 0.00158621 0)
(-0.000301039 0.00151187 0)
(-0.000306322 0.00143735 0)
(-0.000311963 0.0013626 0)
(-0.000317999 0.00128755 0)
(-0.000324467 0.00121214 0)
(-0.00033141 0.00113631 0)
(-0.000338873 0.00105997 0)
(-0.000346907 0.000983061 0)
(-0.000355572 0.000905489 0)
(-0.000364938 0.000827164 0)
(-0.000375082 0.000747977 0)
(-0.000386077 0.000667788 0)
(-0.00039799 0.000586427 0)
(-0.000410902 0.000503687 0)
(-0.000424901 0.000419325 0)
(-0.000439986 0.000333063 0)
(-0.000456081 0.000244669 0)
(-0.000473218 0.000154008 0)
(-0.000491373 6.10004e-05 0)
(-0.000510437 -3.4363e-05 0)
(-0.000530458 -0.000131946 0)
(-0.000551727 -0.000231684 0)
(-0.000574431 -0.000333679 0)
(-0.000598789 -0.000438064 0)
(-0.000625051 -0.000545026 0)
(-0.000653478 -0.000654793 0)
(-0.000684342 -0.000767609 0)
(-0.000717929 -0.000883732 0)
(-0.000754552 -0.00100342 0)
(-0.000794555 -0.00112694 0)
(-0.000838324 -0.00125456 0)
(-0.000886293 -0.00138658 0)
(-0.000938947 -0.00152328 0)
(-0.000996836 -0.001665 0)
(-0.00106058 -0.00181209 0)
(-0.00113086 -0.00196492 0)
(-0.00120846 -0.00212392 0)
(-0.00129424 -0.00228952 0)
(-0.00138918 -0.00246227 0)
(-0.00149432 -0.00264263 0)
(-0.00161092 -0.00283144 0)
(-0.00174018 -0.00302885 0)
(-0.00188387 -0.00323676 0)
(-0.00204302 -0.00345364 0)
(-0.00222073 -0.00368526 0)
(-0.00241641 -0.00392294 0)
(-0.00263757 -0.00418703 0)
(-0.00287619 -0.00444144 0)
(-0.00315508 -0.00475917 0)
(-0.00343718 -0.00500606 0)
(-0.00379568 -0.0054354 0)
(-0.00408594 -0.00558127 0)
(-0.00452826 -0.00628482 0)
(-0.00455927 -0.00596811 0)
)
;
    }
    frontAndBack
    {
        type            empty;
    }
}


// ************************************************************************* //
