# y+ ()       
# Time        	patch         	min           	max           	average       
0.46          	fixedWalls	2.316146e-01	2.392368e+00	8.590947e-01
0.46          	bottomWall	1.211221e-01	8.092689e+00	2.591986e+00
