# y+ ()       
# Time        	patch         	min           	max           	average       
0.4           	fixedWalls	1.497062e-01	1.503557e+00	8.648682e-01
0.4           	bottomWall	6.235848e-01	1.009868e+01	2.546644e+00
