# y+ ()       
# Time        	patch         	min           	max           	average       
0.04          	fixedWalls	3.104449e-01	2.025463e+00	8.797347e-01
0.04          	bottomWall	1.149986e-01	8.515273e+00	2.061141e+00
