# y+ ()       
# Time        	patch         	min           	max           	average       
0.32          	fixedWalls	1.145319e-01	1.960535e+00	8.649022e-01
0.32          	bottomWall	1.592552e-01	8.096830e+00	2.589346e+00
