# y+ ()       
# Time        	patch         	min           	max           	average       
0.16          	fixedWalls	1.233735e-01	1.881063e+00	7.513448e-01
0.16          	bottomWall	3.936354e-01	8.957679e+00	2.760514e+00
