# y+ ()       
# Time        	patch         	min           	max           	average       
0.21          	fixedWalls	1.488250e-01	2.290323e+00	7.890000e-01
0.21          	bottomWall	6.332893e-01	7.682318e+00	2.740381e+00
