# y+ ()       
# Time        	patch         	min           	max           	average       
0.28          	fixedWalls	2.573618e-01	2.412313e+00	8.547708e-01
0.28          	bottomWall	2.373986e-01	7.670291e+00	2.536489e+00
