# y+ ()       
# Time        	patch         	min           	max           	average       
0.41          	fixedWalls	1.807372e-01	2.169142e+00	9.130147e-01
0.41          	bottomWall	5.137757e-01	6.900553e+00	2.538115e+00
