# y+ ()       
# Time        	patch         	min           	max           	average       
0.38          	fixedWalls	8.681208e-02	2.178499e+00	7.809739e-01
0.38          	bottomWall	4.621311e-01	8.113994e+00	2.517700e+00
