# y+ ()       
# Time        	patch         	min           	max           	average       
0.13          	fixedWalls	2.797437e-01	2.417295e+00	8.778600e-01
0.13          	bottomWall	2.332930e-01	8.964558e+00	2.620016e+00
