# y+ ()       
# Time        	patch         	min           	max           	average       
0.08          	fixedWalls	8.062695e-02	1.864292e+00	9.981988e-01
0.08          	bottomWall	1.361781e-01	9.113407e+00	2.207581e+00
