# y+ ()       
# Time        	patch         	min           	max           	average       
0.44          	fixedWalls	2.159225e-01	2.715312e+00	1.043782e+00
0.44          	bottomWall	2.515077e-01	1.007602e+01	2.737704e+00
