# y+ ()       
# Time        	patch         	min           	max           	average       
0.07          	fixedWalls	5.248975e-02	2.767872e+00	9.998332e-01
0.07          	bottomWall	9.007826e-02	8.979849e+00	2.009089e+00
