# y+ ()       
# Time        	patch         	min           	max           	average       
0.06          	fixedWalls	1.187149e-01	2.272609e+00	8.379461e-01
0.06          	bottomWall	3.861276e-02	8.461872e+00	2.287929e+00
