# y+ ()       
# Time        	patch         	min           	max           	average       
0.12          	fixedWalls	5.717038e-02	1.981985e+00	7.678513e-01
0.12          	bottomWall	2.120891e-01	9.114712e+00	2.204456e+00
