# y+ ()       
# Time        	patch         	min           	max           	average       
0.26          	fixedWalls	1.294373e-01	1.991113e+00	8.482963e-01
0.26          	bottomWall	3.276072e-01	8.063966e+00	2.292674e+00
