# y+ ()       
# Time        	patch         	min           	max           	average       
0.33          	fixedWalls	1.580793e-01	2.469480e+00	9.380089e-01
0.33          	bottomWall	5.624326e-01	9.039117e+00	2.738505e+00
