# y+ ()       
# Time        	patch         	min           	max           	average       
0.43          	fixedWalls	1.437955e-01	2.076125e+00	7.759179e-01
0.43          	bottomWall	4.287214e-01	8.914779e+00	2.491796e+00
