# y+ ()       
# Time        	patch         	min           	max           	average       
0.36          	fixedWalls	6.322760e-02	1.830615e+00	7.149361e-01
0.36          	bottomWall	3.147334e-01	7.986538e+00	2.417885e+00
