# y+ ()       
# Time        	patch         	min           	max           	average       
0.11          	fixedWalls	8.792455e-02	2.215107e+00	6.718338e-01
0.11          	bottomWall	4.093876e-01	8.729020e+00	2.419252e+00
