# y+ ()       
# Time        	patch         	min           	max           	average       
0.02          	fixedWalls	1.672626e-01	2.371659e+00	1.265300e+00
0.02          	bottomWall	1.610263e-01	8.503643e+00	2.190341e+00
