# y+ ()       
# Time        	patch         	min           	max           	average       
0.25          	fixedWalls	1.615237e-01	2.164040e+00	8.522222e-01
0.25          	bottomWall	4.069192e-01	7.837247e+00	2.469796e+00
