# y+ ()       
# Time        	patch         	min           	max           	average       
0.39          	fixedWalls	2.192495e-01	2.209143e+00	9.936639e-01
0.39          	bottomWall	1.244583e-01	8.845307e+00	2.600618e+00
