# y+ ()       
# Time        	patch         	min           	max           	average       
0.05          	fixedWalls	1.700610e-01	2.417465e+00	9.202154e-01
0.05          	bottomWall	2.510625e-01	1.026246e+01	2.205195e+00
