# y+ ()       
# Time        	patch         	min           	max           	average       
0.5           	fixedWalls	1.259195e-01	2.185344e+00	7.865738e-01
0.5           	bottomWall	5.599961e-01	7.655770e+00	2.682217e+00
