# y+ ()       
# Time        	patch         	min           	max           	average       
0.22          	fixedWalls	1.270569e-01	2.573017e+00	8.794348e-01
0.22          	bottomWall	4.902629e-01	8.940960e+00	2.769105e+00
