# y+ ()       
# Time        	patch         	min           	max           	average       
0.35          	fixedWalls	1.690208e-01	1.857870e+00	8.799288e-01
0.35          	bottomWall	4.488518e-01	7.790115e+00	2.461323e+00
