# y+ ()       
# Time        	patch         	min           	max           	average       
0.23          	fixedWalls	8.120494e-02	2.031006e+00	9.305671e-01
0.23          	bottomWall	2.895711e-01	9.065102e+00	2.638687e+00
