# y+ ()       
# Time        	patch         	min           	max           	average       
0.34          	fixedWalls	1.335001e-01	1.427978e+00	7.875955e-01
0.34          	bottomWall	4.756884e-01	5.452136e+00	2.209491e+00
