# y+ ()       
# Time        	patch         	min           	max           	average       
0.01          	fixedWalls	2.354753e-01	2.949730e+00	1.353315e+00
0.01          	bottomWall	2.328764e-01	1.061958e+01	2.410443e+00
