# y+ ()       
# Time        	patch         	min           	max           	average       
0.49          	fixedWalls	2.020542e-01	2.464800e+00	8.661543e-01
0.49          	bottomWall	4.657427e-01	7.714798e+00	2.585590e+00
