# y+ ()       
# Time        	patch         	min           	max           	average       
0.24          	fixedWalls	1.602897e-01	2.382063e+00	1.045980e+00
0.24          	bottomWall	2.832119e-01	1.068943e+01	3.010555e+00
