# y+ ()       
# Time        	patch         	min           	max           	average       
0.2           	fixedWalls	1.333479e-01	2.090117e+00	8.902067e-01
0.2           	bottomWall	1.730481e-01	8.311968e+00	2.611288e+00
