# y+ ()       
# Time        	patch         	min           	max           	average       
0.47          	fixedWalls	1.044099e-01	1.864581e+00	7.590539e-01
0.47          	bottomWall	5.062358e-01	6.403498e+00	2.394644e+00
