# y+ ()       
# Time        	patch         	min           	max           	average       
0.18          	fixedWalls	2.886208e-01	2.482960e+00	1.018542e+00
0.18          	bottomWall	3.246585e-01	9.226165e+00	2.744049e+00
