# y+ ()       
# Time        	patch         	min           	max           	average       
0.19          	fixedWalls	2.432819e-01	2.066739e+00	9.243217e-01
0.19          	bottomWall	1.807121e-01	1.005974e+01	2.575864e+00
