/*--------------------------------*- C++ -*----------------------------------*\
  =========                 |
  \\      /  F ield         | OpenFOAM: The Open Source CFD Toolbox
   \\    /   O peration     | Website:  https://openfoam.org
    \\  /    A nd           | Version:  7
     \\/     M anipulation  |
\*---------------------------------------------------------------------------*/
FoamFile
{
    version     2.0;
    format      ascii;
    class       volScalarField;
    location    "0.09";
    object      k_0;
}
// * * * * * * * * * * * * * * * * * * * * * * * * * * * * * * * * * * * * * //

dimensions      [0 2 -2 0 0 0 0];

internalField   nonuniform List<scalar> 
70000
(
1.08549e-05
4.2188e-06
2.82443e-06
2.31684e-06
1.99753e-06
1.75712e-06
1.56512e-06
1.40816e-06
1.27733e-06
1.16655e-06
1.07156e-06
9.89475e-07
9.17852e-07
8.55136e-07
7.99649e-07
7.50594e-07
7.06592e-07
6.67418e-07
6.31797e-07
5.99984e-07
5.70652e-07
5.44466e-07
5.19947e-07
4.98134e-07
4.77354e-07
4.58993e-07
4.41158e-07
4.25553e-07
4.10068e-07
3.96693e-07
3.83116e-07
3.7157e-07
3.59557e-07
3.49532e-07
3.38801e-07
3.30072e-07
3.20371e-07
3.12795e-07
3.03877e-07
2.97389e-07
2.89019e-07
2.8359e-07
2.75557e-07
2.71459e-07
2.63105e-07
2.62184e-07
2.53135e-07
2.63632e-07
2.54265e-07
2.6724e-07
1.72795e-05
1.13673e-05
8.52075e-06
7.01054e-06
6.03733e-06
5.31086e-06
4.73133e-06
4.25734e-06
3.86217e-06
3.52761e-06
3.24074e-06
2.99286e-06
2.77653e-06
2.5871e-06
2.41945e-06
2.27126e-06
2.13826e-06
2.0199e-06
1.9122e-06
1.81606e-06
1.72735e-06
1.64821e-06
1.57404e-06
1.50811e-06
1.44525e-06
1.38973e-06
1.33578e-06
1.28858e-06
1.24174e-06
1.20128e-06
1.16021e-06
1.12527e-06
1.08895e-06
1.05859e-06
1.02615e-06
9.99725e-07
9.70373e-07
9.47469e-07
9.20462e-07
9.00868e-07
8.75513e-07
8.59113e-07
8.348e-07
8.22223e-07
7.97153e-07
7.91735e-07
7.66804e-07
7.8603e-07
7.71446e-07
7.91664e-07
1.93701e-05
1.61297e-05
1.32913e-05
1.12898e-05
9.82874e-06
8.69599e-06
7.7782e-06
7.02012e-06
6.38344e-06
5.84175e-06
5.37551e-06
4.97153e-06
4.61797e-06
4.3078e-06
4.03261e-06
3.78903e-06
3.5699e-06
3.37475e-06
3.19677e-06
3.03791e-06
2.89098e-06
2.75995e-06
2.63687e-06
2.52752e-06
2.42304e-06
2.33083e-06
2.24104e-06
2.16252e-06
2.08451e-06
2.01707e-06
1.94867e-06
1.89034e-06
1.82981e-06
1.77909e-06
1.72497e-06
1.68082e-06
1.63179e-06
1.59355e-06
1.54837e-06
1.51566e-06
1.47326e-06
1.44578e-06
1.40528e-06
1.38361e-06
1.34264e-06
1.32999e-06
1.29025e-06
1.30498e-06
1.3048e-06
1.31182e-06
1.9861e-05
1.826e-05
1.60858e-05
1.42003e-05
1.26404e-05
1.13487e-05
1.02608e-05
9.33822e-06
8.54663e-06
7.86301e-06
7.26806e-06
6.7481e-06
6.28941e-06
5.88465e-06
5.5232e-06
5.20186e-06
4.91106e-06
4.65139e-06
4.41332e-06
4.20056e-06
4.0028e-06
3.82638e-06
3.65987e-06
3.51195e-06
3.37001e-06
3.24473e-06
3.12234e-06
3.01522e-06
2.90863e-06
2.8163e-06
2.72266e-06
2.64253e-06
2.55953e-06
2.48968e-06
2.41533e-06
2.35445e-06
2.28691e-06
2.23414e-06
2.1718e-06
2.12652e-06
2.06815e-06
2.02968e-06
1.97442e-06
1.94278e-06
1.88832e-06
1.86661e-06
1.81359e-06
1.81306e-06
1.82704e-06
1.81931e-06
1.99707e-05
1.78457e-05
1.60749e-05
1.47664e-05
1.36027e-05
1.25376e-05
1.15695e-05
1.07017e-05
9.92077e-06
9.22498e-06
8.6047e-06
8.0519e-06
7.55561e-06
7.11183e-06
6.70991e-06
6.34892e-06
6.01834e-06
5.72123e-06
5.44614e-06
5.19936e-06
4.96792e-06
4.76096e-06
4.564e-06
4.38878e-06
4.2194e-06
4.06969e-06
3.92259e-06
3.79356e-06
3.66477e-06
3.55276e-06
3.43915e-06
3.34135e-06
3.24026e-06
3.15462e-06
3.06368e-06
2.98876e-06
2.90584e-06
2.84065e-06
2.76404e-06
2.70755e-06
2.63623e-06
2.58718e-06
2.52063e-06
2.47843e-06
2.41479e-06
2.38221e-06
2.32397e-06
2.29679e-06
2.31083e-06
2.29824e-06
2.00095e-05
1.47038e-05
1.37475e-05
1.32106e-05
1.25914e-05
1.19272e-05
1.12783e-05
1.06579e-05
1.00813e-05
9.54743e-06
9.04697e-06
8.581e-06
8.14696e-06
7.74771e-06
7.37519e-06
7.03342e-06
6.71348e-06
6.42225e-06
6.14782e-06
5.89956e-06
5.66298e-06
5.45019e-06
5.24473e-06
5.06122e-06
4.88162e-06
4.72224e-06
4.56416e-06
4.42487e-06
4.28511e-06
4.16275e-06
4.03844e-06
3.93051e-06
3.81907e-06
3.72375e-06
3.62279e-06
3.53877e-06
3.44627e-06
3.3724e-06
3.28698e-06
3.22174e-06
3.143e-06
3.08443e-06
3.01266e-06
2.95908e-06
2.89412e-06
2.84498e-06
2.79328e-06
2.73897e-06
2.74269e-06
2.72538e-06
2.01331e-05
1.54687e-05
9.63446e-06
9.39765e-06
9.49258e-06
9.49214e-06
9.4341e-06
9.29665e-06
9.05696e-06
8.78372e-06
8.48952e-06
8.19296e-06
7.90099e-06
7.61886e-06
7.341e-06
7.08195e-06
6.83306e-06
6.60091e-06
6.37478e-06
6.16646e-06
5.96182e-06
5.77538e-06
5.59072e-06
5.42439e-06
5.258e-06
5.10912e-06
4.95923e-06
4.82614e-06
4.69134e-06
4.57206e-06
4.45036e-06
4.34333e-06
4.23273e-06
4.13681e-06
4.03549e-06
3.94969e-06
3.85627e-06
3.77934e-06
3.69324e-06
3.6232e-06
3.54496e-06
3.47936e-06
3.41017e-06
3.34648e-06
3.2876e-06
3.22355e-06
3.1806e-06
3.11012e-06
3.10347e-06
3.0798e-06
2.01712e-05
1.86767e-05
8.69519e-06
5.54029e-06
5.63039e-06
5.93429e-06
6.29316e-06
6.57898e-06
6.76008e-06
6.86957e-06
6.89087e-06
6.87215e-06
6.8209e-06
6.73399e-06
6.62339e-06
6.50277e-06
6.36401e-06
6.22405e-06
6.07903e-06
5.94012e-06
5.79624e-06
5.6622e-06
5.52411e-06
5.39777e-06
5.26735e-06
5.151e-06
5.03109e-06
4.92324e-06
4.81188e-06
4.71162e-06
4.60817e-06
4.51541e-06
4.41912e-06
4.33378e-06
4.24394e-06
4.16554e-06
4.08194e-06
4.00926e-06
3.93225e-06
3.86342e-06
3.79452e-06
3.72719e-06
3.66793e-06
3.59987e-06
3.55129e-06
3.48125e-06
3.44486e-06
3.37132e-06
3.35806e-06
3.33052e-06
2.01671e-05
1.97241e-05
1.61693e-05
4.86373e-06
3.04254e-06
3.1057e-06
3.37482e-06
3.80524e-06
4.17217e-06
4.49114e-06
4.73982e-06
4.93104e-06
5.07247e-06
5.17472e-06
5.23387e-06
5.27167e-06
5.27626e-06
5.26835e-06
5.24606e-06
5.21027e-06
5.16023e-06
5.10782e-06
5.04499e-06
4.98311e-06
4.91283e-06
4.84507e-06
4.76952e-06
4.6994e-06
4.62387e-06
4.55405e-06
4.48029e-06
4.41233e-06
4.34102e-06
4.27575e-06
4.20733e-06
4.14489e-06
4.08019e-06
4.01989e-06
3.96124e-06
3.90183e-06
3.84982e-06
3.78937e-06
3.74496e-06
3.68262e-06
3.64561e-06
3.58221e-06
3.55091e-06
3.48572e-06
3.4686e-06
3.44151e-06
2.01476e-05
1.99343e-05
1.90662e-05
1.45015e-05
5.24703e-06
2.15514e-06
1.91481e-06
1.99423e-06
2.20818e-06
2.50782e-06
2.7845e-06
3.03945e-06
3.26508e-06
3.46405e-06
3.62845e-06
3.76909e-06
3.88118e-06
3.97227e-06
4.043e-06
4.09858e-06
4.13647e-06
4.16302e-06
4.17779e-06
4.18217e-06
4.17919e-06
4.17195e-06
4.15651e-06
4.13872e-06
4.1139e-06
4.08841e-06
4.05789e-06
4.02726e-06
3.99311e-06
3.95896e-06
3.92296e-06
3.88631e-06
3.85047e-06
3.8112e-06
3.77578e-06
3.73343e-06
3.70075e-06
3.6557e-06
3.62673e-06
3.57955e-06
3.55374e-06
3.50584e-06
3.48185e-06
3.43153e-06
3.41447e-06
3.39157e-06
2.01216e-05
1.99661e-05
1.96427e-05
1.85474e-05
1.52153e-05
8.36424e-06
3.10743e-06
1.63349e-06
1.44276e-06
1.45012e-06
1.52778e-06
1.6902e-06
1.87301e-06
2.05188e-06
2.22259e-06
2.38442e-06
2.53203e-06
2.66609e-06
2.78455e-06
2.891e-06
2.98295e-06
3.06376e-06
3.13236e-06
3.1915e-06
3.23982e-06
3.28161e-06
3.31447e-06
3.34194e-06
3.3623e-06
3.37806e-06
3.3884e-06
3.39513e-06
3.39745e-06
3.39652e-06
3.39375e-06
3.38713e-06
3.38096e-06
3.36841e-06
3.36022e-06
3.34368e-06
3.33385e-06
3.31393e-06
3.30286e-06
3.28049e-06
3.2683e-06
3.24385e-06
3.23064e-06
3.20172e-06
3.19123e-06
3.17486e-06
2.00981e-05
1.99327e-05
1.97576e-05
1.93531e-05
1.85074e-05
1.65388e-05
1.23316e-05
6.86077e-06
2.9852e-06
1.49256e-06
1.24312e-06
1.14816e-06
1.15299e-06
1.19665e-06
1.29039e-06
1.39937e-06
1.51248e-06
1.62478e-06
1.73546e-06
1.84292e-06
1.94378e-06
2.0392e-06
2.12684e-06
2.20853e-06
2.28278e-06
2.3508e-06
2.41253e-06
2.46796e-06
2.51838e-06
2.5626e-06
2.60305e-06
2.6375e-06
2.66947e-06
2.69532e-06
2.72027e-06
2.73873e-06
2.75839e-06
2.77034e-06
2.78525e-06
2.79243e-06
2.80289e-06
2.80634e-06
2.81276e-06
2.81362e-06
2.81538e-06
2.81415e-06
2.81266e-06
2.80627e-06
2.80477e-06
2.79901e-06
2.00781e-05
1.98876e-05
1.97572e-05
1.94617e-05
1.91468e-05
1.86421e-05
1.75568e-05
1.54282e-05
1.17396e-05
7.43842e-06
3.97225e-06
1.9063e-06
1.20661e-06
1.0571e-06
9.81342e-07
9.44287e-07
9.56362e-07
9.92499e-07
1.05533e-06
1.12135e-06
1.19164e-06
1.26355e-06
1.33562e-06
1.40771e-06
1.47812e-06
1.54542e-06
1.61081e-06
1.67176e-06
1.73099e-06
1.78516e-06
1.838e-06
1.88535e-06
1.93176e-06
1.97268e-06
2.01303e-06
2.04771e-06
2.08299e-06
2.11192e-06
2.14229e-06
2.16672e-06
2.19229e-06
2.21246e-06
2.23435e-06
2.25018e-06
2.26868e-06
2.2802e-06
2.29574e-06
2.30205e-06
2.31342e-06
2.31866e-06
2.00613e-05
1.9854e-05
1.97346e-05
1.9472e-05
1.9256e-05
1.90478e-05
1.87364e-05
1.81912e-05
1.70968e-05
1.5231e-05
1.25581e-05
9.21625e-06
5.94617e-06
3.4526e-06
1.86195e-06
1.16026e-06
9.63234e-07
8.90558e-07
8.35396e-07
7.98266e-07
8.01198e-07
8.16398e-07
8.48516e-07
8.8869e-07
9.30133e-07
9.7421e-07
1.02069e-06
1.06682e-06
1.11491e-06
1.16128e-06
1.20855e-06
1.25287e-06
1.2976e-06
1.33937e-06
1.38105e-06
1.41947e-06
1.45848e-06
1.49321e-06
1.529e-06
1.5608e-06
1.59301e-06
1.62133e-06
1.65116e-06
1.67543e-06
1.70243e-06
1.72338e-06
1.74695e-06
1.76376e-06
1.78294e-06
1.79659e-06
2.00475e-05
1.98304e-05
1.9708e-05
1.94499e-05
1.9273e-05
1.91157e-05
1.89658e-05
1.87503e-05
1.84622e-05
1.79111e-05
1.70756e-05
1.56922e-05
1.38685e-05
1.15035e-05
8.81036e-06
6.19111e-06
4.02292e-06
2.45782e-06
1.47534e-06
1.01791e-06
8.59145e-07
7.97502e-07
7.49325e-07
7.10214e-07
6.83005e-07
6.83447e-07
6.90613e-07
7.0715e-07
7.30597e-07
7.55779e-07
7.82583e-07
8.10318e-07
8.40189e-07
8.70235e-07
9.01415e-07
9.32218e-07
9.64226e-07
9.94177e-07
1.0254e-06
1.05476e-06
1.08433e-06
1.11214e-06
1.14107e-06
1.16647e-06
1.19369e-06
1.2175e-06
1.24218e-06
1.26293e-06
1.28466e-06
1.30206e-06
2.00362e-05
1.98126e-05
1.96856e-05
1.94198e-05
1.9259e-05
1.91094e-05
1.90007e-05
1.88493e-05
1.87117e-05
1.84997e-05
1.82461e-05
1.783e-05
1.7225e-05
1.63512e-05
1.51383e-05
1.35923e-05
1.17627e-05
9.65664e-06
7.4972e-06
5.48939e-06
3.81865e-06
2.55229e-06
1.65552e-06
1.1192e-06
8.62521e-07
7.58083e-07
7.08506e-07
6.71502e-07
6.35735e-07
6.08742e-07
5.90313e-07
5.88174e-07
5.91477e-07
5.99588e-07
6.12752e-07
6.27588e-07
6.44013e-07
6.604e-07
6.78462e-07
6.97177e-07
7.1658e-07
7.36477e-07
7.57438e-07
7.77242e-07
7.98286e-07
8.18291e-07
8.38282e-07
8.56741e-07
8.75351e-07
8.91749e-07
2.00271e-05
1.97987e-05
1.96664e-05
1.9398e-05
1.92332e-05
1.90823e-05
1.89823e-05
1.88531e-05
1.87353e-05
1.8596e-05
1.84575e-05
1.82882e-05
1.80765e-05
1.77906e-05
1.73992e-05
1.6852e-05
1.61334e-05
1.52006e-05
1.40383e-05
1.26794e-05
1.11493e-05
9.46128e-06
7.72941e-06
6.08155e-06
4.5943e-06
3.37244e-06
2.4101e-06
1.68439e-06
1.18668e-06
8.94377e-07
7.43973e-07
6.72335e-07
6.32289e-07
6.02985e-07
5.75059e-07
5.49233e-07
5.28946e-07
5.15604e-07
5.09579e-07
5.10382e-07
5.13379e-07
5.19581e-07
5.27781e-07
5.36693e-07
5.46543e-07
5.56794e-07
5.6713e-07
5.77692e-07
5.88406e-07
5.99292e-07
2.002e-05
1.97903e-05
1.9646e-05
1.93819e-05
1.92091e-05
1.90535e-05
1.89441e-05
1.88268e-05
1.87136e-05
1.85892e-05
1.84694e-05
1.83437e-05
1.82175e-05
1.80743e-05
1.79161e-05
1.77155e-05
1.74687e-05
1.71447e-05
1.67337e-05
1.61999e-05
1.55525e-05
1.47511e-05
1.38162e-05
1.27294e-05
1.15548e-05
1.02662e-05
8.90202e-06
7.52834e-06
6.20148e-06
4.985e-06
3.89922e-06
3.0051e-06
2.27555e-06
1.69514e-06
1.25885e-06
9.58429e-07
7.72603e-07
6.6667e-07
6.08064e-07
5.73238e-07
5.47468e-07
5.25828e-07
5.0492e-07
4.85323e-07
4.68637e-07
4.55864e-07
4.47417e-07
4.42297e-07
4.41399e-07
4.42776e-07
2.00144e-05
1.97903e-05
1.96198e-05
1.93686e-05
1.91888e-05
1.90268e-05
1.89085e-05
1.87904e-05
1.86738e-05
1.85531e-05
1.84392e-05
1.83213e-05
1.82085e-05
1.80886e-05
1.7975e-05
1.78512e-05
1.77272e-05
1.75814e-05
1.74223e-05
1.72225e-05
1.69905e-05
1.66968e-05
1.63479e-05
1.59146e-05
1.54064e-05
1.4806e-05
1.41164e-05
1.33261e-05
1.24603e-05
1.15087e-05
1.05221e-05
9.4645e-06
8.37536e-06
7.29011e-06
6.23777e-06
5.24835e-06
4.3442e-06
3.53878e-06
2.85621e-06
2.28141e-06
1.80269e-06
1.41462e-06
1.11379e-06
8.93706e-07
7.43047e-07
6.4566e-07
5.83135e-07
5.47066e-07
5.19278e-07
5.09368e-07
2.00102e-05
1.97943e-05
1.95932e-05
1.93548e-05
1.91704e-05
1.90013e-05
1.88755e-05
1.87542e-05
1.86343e-05
1.85098e-05
1.83935e-05
1.82746e-05
1.81634e-05
1.805e-05
1.79424e-05
1.7832e-05
1.77248e-05
1.76145e-05
1.75071e-05
1.73935e-05
1.72762e-05
1.71454e-05
1.70019e-05
1.68342e-05
1.66412e-05
1.64137e-05
1.61493e-05
1.58371e-05
1.54773e-05
1.50607e-05
1.45888e-05
1.40615e-05
1.347e-05
1.28246e-05
1.21217e-05
1.13787e-05
1.05932e-05
9.78996e-06
8.94808e-06
8.09483e-06
7.24469e-06
6.4174e-06
5.62653e-06
4.88663e-06
4.21132e-06
3.60613e-06
3.07965e-06
2.64825e-06
2.26975e-06
1.97385e-06
2.0007e-05
1.98017e-05
1.95688e-05
1.93414e-05
1.91532e-05
1.89774e-05
1.88439e-05
1.87196e-05
1.85956e-05
1.84681e-05
1.83467e-05
1.82261e-05
1.81103e-05
1.79955e-05
1.78847e-05
1.77757e-05
1.76705e-05
1.75681e-05
1.7466e-05
1.73681e-05
1.72671e-05
1.7169e-05
1.7069e-05
1.69696e-05
1.68635e-05
1.67554e-05
1.66344e-05
1.65061e-05
1.63582e-05
1.61972e-05
1.60086e-05
1.58029e-05
1.55626e-05
1.52988e-05
1.4994e-05
1.4663e-05
1.42865e-05
1.38838e-05
1.34354e-05
1.29591e-05
1.24371e-05
1.18958e-05
1.13126e-05
1.07259e-05
1.01046e-05
9.50159e-06
8.87689e-06
8.27975e-06
7.68137e-06
7.13318e-06
2.00046e-05
1.98101e-05
1.9546e-05
1.93282e-05
1.91364e-05
1.89553e-05
1.88133e-05
1.86866e-05
1.85582e-05
1.84282e-05
1.83014e-05
1.81786e-05
1.80577e-05
1.79411e-05
1.78254e-05
1.77154e-05
1.76042e-05
1.75014e-05
1.73949e-05
1.72985e-05
1.71982e-05
1.71069e-05
1.70124e-05
1.69242e-05
1.68313e-05
1.67455e-05
1.66513e-05
1.65662e-05
1.64726e-05
1.63847e-05
1.62852e-05
1.619e-05
1.60804e-05
1.59701e-05
1.58412e-05
1.57096e-05
1.55543e-05
1.5394e-05
1.52072e-05
1.50114e-05
1.4786e-05
1.45505e-05
1.42818e-05
1.40046e-05
1.36929e-05
1.33746e-05
1.30283e-05
1.2678e-05
1.23081e-05
1.19369e-05
2.00029e-05
1.9819e-05
1.95248e-05
1.93146e-05
1.91196e-05
1.89349e-05
1.87841e-05
1.86548e-05
1.85223e-05
1.839e-05
1.82582e-05
1.81329e-05
1.80073e-05
1.78884e-05
1.77681e-05
1.76561e-05
1.75402e-05
1.74355e-05
1.73245e-05
1.72262e-05
1.7121e-05
1.70266e-05
1.69291e-05
1.6839e-05
1.67447e-05
1.66619e-05
1.65722e-05
1.64938e-05
1.64084e-05
1.63324e-05
1.6249e-05
1.61746e-05
1.60926e-05
1.60179e-05
1.59363e-05
1.58617e-05
1.57769e-05
1.56982e-05
1.5609e-05
1.55209e-05
1.54224e-05
1.53222e-05
1.52091e-05
1.50941e-05
1.49632e-05
1.48287e-05
1.46797e-05
1.45247e-05
1.43554e-05
1.4182e-05
2.00017e-05
1.98274e-05
1.95054e-05
1.93001e-05
1.91026e-05
1.8916e-05
1.87563e-05
1.86242e-05
1.84883e-05
1.83537e-05
1.82176e-05
1.80895e-05
1.79599e-05
1.78383e-05
1.77141e-05
1.75993e-05
1.74798e-05
1.73724e-05
1.72578e-05
1.71568e-05
1.70483e-05
1.69503e-05
1.68502e-05
1.67559e-05
1.66587e-05
1.65712e-05
1.64774e-05
1.63951e-05
1.63075e-05
1.62285e-05
1.61452e-05
1.60724e-05
1.59963e-05
1.59267e-05
1.58534e-05
1.57876e-05
1.57162e-05
1.56524e-05
1.5584e-05
1.55181e-05
1.54501e-05
1.53855e-05
1.53168e-05
1.52527e-05
1.51814e-05
1.51133e-05
1.50389e-05
1.49642e-05
1.488e-05
1.47998e-05
2.00009e-05
1.98306e-05
1.94892e-05
1.92851e-05
1.90857e-05
1.88989e-05
1.87308e-05
1.85952e-05
1.84566e-05
1.83198e-05
1.81801e-05
1.8049e-05
1.79161e-05
1.77916e-05
1.76643e-05
1.75463e-05
1.74238e-05
1.73133e-05
1.71959e-05
1.70918e-05
1.69807e-05
1.68793e-05
1.6777e-05
1.66789e-05
1.65792e-05
1.64882e-05
1.63909e-05
1.63051e-05
1.62139e-05
1.61312e-05
1.6044e-05
1.59666e-05
1.5886e-05
1.58126e-05
1.57356e-05
1.56676e-05
1.55939e-05
1.553e-05
1.54628e-05
1.54019e-05
1.53389e-05
1.5281e-05
1.52192e-05
1.51648e-05
1.51041e-05
1.50502e-05
1.49901e-05
1.49342e-05
1.48687e-05
1.48118e-05
2.00003e-05
1.9829e-05
1.94762e-05
1.92694e-05
1.90687e-05
1.88837e-05
1.87077e-05
1.85683e-05
1.84275e-05
1.82888e-05
1.81461e-05
1.80122e-05
1.78763e-05
1.77492e-05
1.7619e-05
1.74982e-05
1.7373e-05
1.72595e-05
1.71398e-05
1.70325e-05
1.6919e-05
1.68148e-05
1.67101e-05
1.66091e-05
1.65066e-05
1.64129e-05
1.63126e-05
1.62242e-05
1.61298e-05
1.60441e-05
1.59536e-05
1.58731e-05
1.5789e-05
1.57124e-05
1.56313e-05
1.55596e-05
1.54823e-05
1.54148e-05
1.53426e-05
1.5278e-05
1.52096e-05
1.51489e-05
1.5083e-05
1.50264e-05
1.49636e-05
1.4909e-05
1.48477e-05
1.47942e-05
1.4731e-05
1.46779e-05
2e-05
1.98272e-05
1.9465e-05
1.92522e-05
1.90511e-05
1.88698e-05
1.86871e-05
1.85435e-05
1.8401e-05
1.8261e-05
1.81158e-05
1.79795e-05
1.78411e-05
1.77119e-05
1.7579e-05
1.74557e-05
1.73283e-05
1.7212e-05
1.70903e-05
1.69803e-05
1.68643e-05
1.67581e-05
1.66506e-05
1.65474e-05
1.64421e-05
1.63461e-05
1.62432e-05
1.61522e-05
1.60552e-05
1.59671e-05
1.58737e-05
1.57907e-05
1.57038e-05
1.5625e-05
1.55408e-05
1.54663e-05
1.5386e-05
1.53158e-05
1.52397e-05
1.51728e-05
1.51003e-05
1.50362e-05
1.49661e-05
1.49057e-05
1.48393e-05
1.4781e-05
1.47146e-05
1.46572e-05
1.45892e-05
1.45309e-05
1.99999e-05
1.9826e-05
1.94568e-05
1.92346e-05
1.90336e-05
1.88576e-05
1.86696e-05
1.85216e-05
1.83776e-05
1.82369e-05
1.80898e-05
1.79516e-05
1.7811e-05
1.76801e-05
1.7545e-05
1.74197e-05
1.72903e-05
1.71718e-05
1.70483e-05
1.69359e-05
1.68177e-05
1.671e-05
1.65998e-05
1.64949e-05
1.63869e-05
1.62888e-05
1.61837e-05
1.60902e-05
1.59909e-05
1.59007e-05
1.58046e-05
1.57197e-05
1.56304e-05
1.55497e-05
1.54629e-05
1.53861e-05
1.53036e-05
1.52313e-05
1.51523e-05
1.50835e-05
1.50083e-05
1.49417e-05
1.48683e-05
1.48051e-05
1.47359e-05
1.46745e-05
1.46043e-05
1.45432e-05
1.44718e-05
1.44091e-05
1.99999e-05
1.98252e-05
1.94516e-05
1.92178e-05
1.90169e-05
1.88474e-05
1.86558e-05
1.85035e-05
1.83581e-05
1.82173e-05
1.80687e-05
1.79292e-05
1.77868e-05
1.76549e-05
1.75178e-05
1.73911e-05
1.72601e-05
1.71398e-05
1.70147e-05
1.69006e-05
1.67804e-05
1.66717e-05
1.65589e-05
1.64526e-05
1.63423e-05
1.62424e-05
1.61353e-05
1.60395e-05
1.59383e-05
1.58462e-05
1.57475e-05
1.56611e-05
1.55695e-05
1.54871e-05
1.53981e-05
1.53195e-05
1.5235e-05
1.51609e-05
1.50795e-05
1.50092e-05
1.49317e-05
1.48632e-05
1.47871e-05
1.47216e-05
1.46502e-05
1.45867e-05
1.45134e-05
1.4449e-05
1.43752e-05
1.43095e-05
1.99999e-05
1.98249e-05
1.94489e-05
1.92026e-05
1.90018e-05
1.88391e-05
1.86463e-05
1.84895e-05
1.83429e-05
1.82024e-05
1.80532e-05
1.79129e-05
1.77691e-05
1.76366e-05
1.74981e-05
1.73705e-05
1.72383e-05
1.71167e-05
1.69905e-05
1.68751e-05
1.67533e-05
1.66438e-05
1.6529e-05
1.64216e-05
1.63094e-05
1.62079e-05
1.60992e-05
1.60013e-05
1.58983e-05
1.58046e-05
1.57037e-05
1.5616e-05
1.55224e-05
1.54383e-05
1.53475e-05
1.52674e-05
1.51809e-05
1.51052e-05
1.5022e-05
1.49501e-05
1.48707e-05
1.48006e-05
1.4722e-05
1.46546e-05
1.45812e-05
1.4516e-05
1.44398e-05
1.43727e-05
1.42967e-05
1.42289e-05
1.99999e-05
1.98249e-05
1.94489e-05
1.91897e-05
1.89887e-05
1.88327e-05
1.86411e-05
1.84802e-05
1.83324e-05
1.81927e-05
1.80436e-05
1.7903e-05
1.77584e-05
1.76258e-05
1.74865e-05
1.73586e-05
1.72255e-05
1.71032e-05
1.69762e-05
1.686e-05
1.67372e-05
1.66273e-05
1.6511e-05
1.64026e-05
1.62892e-05
1.61863e-05
1.60762e-05
1.59766e-05
1.58722e-05
1.57771e-05
1.56742e-05
1.55854e-05
1.54901e-05
1.54044e-05
1.5312e-05
1.52309e-05
1.51426e-05
1.50655e-05
1.49806e-05
1.49072e-05
1.48261e-05
1.47547e-05
1.46738e-05
1.46047e-05
1.45295e-05
1.44625e-05
1.43834e-05
1.43144e-05
1.42361e-05
1.41667e-05
1.99999e-05
1.98254e-05
1.94511e-05
1.91796e-05
1.89777e-05
1.88278e-05
1.864e-05
1.84756e-05
1.83268e-05
1.81882e-05
1.804e-05
1.78998e-05
1.7755e-05
1.76228e-05
1.74833e-05
1.73556e-05
1.72222e-05
1.70998e-05
1.69724e-05
1.68561e-05
1.67327e-05
1.66227e-05
1.65055e-05
1.63965e-05
1.62822e-05
1.61785e-05
1.60671e-05
1.59663e-05
1.58606e-05
1.57643e-05
1.56601e-05
1.55703e-05
1.54734e-05
1.53864e-05
1.52927e-05
1.52108e-05
1.51209e-05
1.50426e-05
1.49563e-05
1.48816e-05
1.47991e-05
1.47263e-05
1.46433e-05
1.45729e-05
1.4496e-05
1.44269e-05
1.43452e-05
1.42746e-05
1.41942e-05
1.41232e-05
1.99999e-05
1.98264e-05
1.94557e-05
1.91731e-05
1.89694e-05
1.88246e-05
1.86427e-05
1.8476e-05
1.83262e-05
1.81891e-05
1.80424e-05
1.79031e-05
1.77586e-05
1.7627e-05
1.74878e-05
1.73608e-05
1.72276e-05
1.71054e-05
1.69781e-05
1.68621e-05
1.67386e-05
1.66288e-05
1.65112e-05
1.64021e-05
1.62874e-05
1.61833e-05
1.6071e-05
1.59698e-05
1.58632e-05
1.57661e-05
1.56611e-05
1.55709e-05
1.54728e-05
1.53848e-05
1.52903e-05
1.52077e-05
1.51165e-05
1.50374e-05
1.49497e-05
1.4874e-05
1.47903e-05
1.4716e-05
1.46312e-05
1.45598e-05
1.4481e-05
1.44097e-05
1.43256e-05
1.42539e-05
1.41715e-05
1.4099e-05
1.99999e-05
1.98279e-05
1.94624e-05
1.917e-05
1.8964e-05
1.88227e-05
1.86493e-05
1.84809e-05
1.833e-05
1.81943e-05
1.80497e-05
1.79121e-05
1.77684e-05
1.76381e-05
1.74998e-05
1.73741e-05
1.72416e-05
1.71202e-05
1.69934e-05
1.68783e-05
1.67551e-05
1.66461e-05
1.65284e-05
1.64196e-05
1.63047e-05
1.62005e-05
1.60874e-05
1.59857e-05
1.58784e-05
1.57806e-05
1.56748e-05
1.55841e-05
1.54849e-05
1.53963e-05
1.53012e-05
1.52182e-05
1.51263e-05
1.50467e-05
1.49579e-05
1.48817e-05
1.47971e-05
1.47216e-05
1.46356e-05
1.45637e-05
1.4483e-05
1.44099e-05
1.43244e-05
1.42517e-05
1.41675e-05
1.40934e-05
1.99999e-05
1.98298e-05
1.94708e-05
1.91706e-05
1.89614e-05
1.88225e-05
1.86584e-05
1.84907e-05
1.83387e-05
1.82049e-05
1.80627e-05
1.79274e-05
1.77849e-05
1.76563e-05
1.75195e-05
1.73954e-05
1.72642e-05
1.71442e-05
1.70184e-05
1.69047e-05
1.67824e-05
1.66746e-05
1.65574e-05
1.64495e-05
1.6335e-05
1.62311e-05
1.61178e-05
1.60164e-05
1.59087e-05
1.58108e-05
1.57047e-05
1.56139e-05
1.55137e-05
1.54248e-05
1.53292e-05
1.52457e-05
1.51533e-05
1.5073e-05
1.49831e-05
1.49066e-05
1.48207e-05
1.47438e-05
1.46568e-05
1.45841e-05
1.4501e-05
1.44259e-05
1.43389e-05
1.4265e-05
1.41793e-05
1.41035e-05
1.99999e-05
1.98322e-05
1.94807e-05
1.91747e-05
1.89618e-05
1.88239e-05
1.86697e-05
1.85044e-05
1.83515e-05
1.82195e-05
1.808e-05
1.79476e-05
1.78069e-05
1.76803e-05
1.75454e-05
1.74234e-05
1.72938e-05
1.71756e-05
1.70512e-05
1.69395e-05
1.68185e-05
1.67122e-05
1.6596e-05
1.64894e-05
1.63756e-05
1.62725e-05
1.61593e-05
1.60584e-05
1.59508e-05
1.58531e-05
1.57472e-05
1.56566e-05
1.55559e-05
1.54674e-05
1.53715e-05
1.52882e-05
1.51958e-05
1.51151e-05
1.50247e-05
1.49484e-05
1.48614e-05
1.47836e-05
1.46962e-05
1.46229e-05
1.45376e-05
1.44612e-05
1.43732e-05
1.42982e-05
1.42107e-05
1.4133e-05
1.99999e-05
1.98351e-05
1.94914e-05
1.91826e-05
1.89653e-05
1.88273e-05
1.86828e-05
1.85217e-05
1.83683e-05
1.8238e-05
1.81012e-05
1.79722e-05
1.78336e-05
1.77092e-05
1.75767e-05
1.74569e-05
1.73295e-05
1.72135e-05
1.70907e-05
1.69813e-05
1.68621e-05
1.67576e-05
1.66429e-05
1.6538e-05
1.64251e-05
1.63233e-05
1.62106e-05
1.61105e-05
1.60031e-05
1.5906e-05
1.58004e-05
1.57103e-05
1.56096e-05
1.55217e-05
1.54257e-05
1.53429e-05
1.52507e-05
1.51698e-05
1.50794e-05
1.50033e-05
1.49152e-05
1.48371e-05
1.47494e-05
1.46753e-05
1.45883e-05
1.4511e-05
1.44222e-05
1.43461e-05
1.42572e-05
1.41783e-05
1.99999e-05
1.98382e-05
1.95028e-05
1.91933e-05
1.8972e-05
1.88331e-05
1.86973e-05
1.85421e-05
1.83888e-05
1.82599e-05
1.81259e-05
1.80004e-05
1.78644e-05
1.77424e-05
1.76125e-05
1.74952e-05
1.73701e-05
1.72567e-05
1.71358e-05
1.70291e-05
1.69119e-05
1.68095e-05
1.66967e-05
1.65937e-05
1.6482e-05
1.63817e-05
1.62699e-05
1.61708e-05
1.60641e-05
1.59679e-05
1.58628e-05
1.57732e-05
1.56729e-05
1.55859e-05
1.54899e-05
1.54079e-05
1.5316e-05
1.52352e-05
1.51451e-05
1.50691e-05
1.49805e-05
1.49023e-05
1.48142e-05
1.47393e-05
1.46512e-05
1.45733e-05
1.44835e-05
1.44065e-05
1.43165e-05
1.42367e-05
1.99999e-05
1.98416e-05
1.95146e-05
1.92065e-05
1.89816e-05
1.88411e-05
1.87127e-05
1.85648e-05
1.84124e-05
1.82847e-05
1.81534e-05
1.80314e-05
1.78985e-05
1.77789e-05
1.76519e-05
1.75372e-05
1.74146e-05
1.73041e-05
1.71851e-05
1.70813e-05
1.69665e-05
1.68663e-05
1.67558e-05
1.66552e-05
1.65447e-05
1.64463e-05
1.63356e-05
1.62377e-05
1.61318e-05
1.60368e-05
1.59325e-05
1.58435e-05
1.5744e-05
1.56578e-05
1.55621e-05
1.54813e-05
1.53897e-05
1.53094e-05
1.52198e-05
1.51438e-05
1.5055e-05
1.4977e-05
1.48883e-05
1.48129e-05
1.47241e-05
1.46455e-05
1.45549e-05
1.44772e-05
1.43863e-05
1.43059e-05
1.99999e-05
1.98451e-05
1.95265e-05
1.92217e-05
1.89941e-05
1.88514e-05
1.87289e-05
1.8589e-05
1.84387e-05
1.8312e-05
1.81833e-05
1.80646e-05
1.79351e-05
1.7818e-05
1.76939e-05
1.75821e-05
1.7462e-05
1.73546e-05
1.72378e-05
1.71368e-05
1.70246e-05
1.6927e-05
1.68187e-05
1.67208e-05
1.66118e-05
1.65153e-05
1.6406e-05
1.63095e-05
1.62045e-05
1.61109e-05
1.60075e-05
1.59193e-05
1.58208e-05
1.57356e-05
1.56404e-05
1.55607e-05
1.54696e-05
1.53903e-05
1.5301e-05
1.52251e-05
1.51365e-05
1.50587e-05
1.49695e-05
1.48938e-05
1.48044e-05
1.47253e-05
1.4634e-05
1.45559e-05
1.44643e-05
1.43834e-05
1.99999e-05
1.98487e-05
1.95384e-05
1.92385e-05
1.90092e-05
1.88642e-05
1.87459e-05
1.86144e-05
1.84672e-05
1.83415e-05
1.82152e-05
1.80997e-05
1.79736e-05
1.78593e-05
1.77378e-05
1.76291e-05
1.75114e-05
1.74071e-05
1.72927e-05
1.71944e-05
1.70851e-05
1.69901e-05
1.68843e-05
1.67892e-05
1.66819e-05
1.65873e-05
1.64797e-05
1.63847e-05
1.62806e-05
1.61887e-05
1.60862e-05
1.59988e-05
1.59014e-05
1.58174e-05
1.5723e-05
1.56442e-05
1.55537e-05
1.54756e-05
1.53866e-05
1.5311e-05
1.52227e-05
1.51452e-05
1.50557e-05
1.49798e-05
1.48896e-05
1.48102e-05
1.47186e-05
1.46403e-05
1.45479e-05
1.44663e-05
1.99999e-05
1.98524e-05
1.95501e-05
1.92564e-05
1.90265e-05
1.88792e-05
1.87636e-05
1.86402e-05
1.84972e-05
1.83728e-05
1.82485e-05
1.81361e-05
1.80132e-05
1.79021e-05
1.77829e-05
1.76775e-05
1.7562e-05
1.74609e-05
1.73489e-05
1.72532e-05
1.7147e-05
1.70548e-05
1.69513e-05
1.68593e-05
1.67537e-05
1.66611e-05
1.65552e-05
1.64619e-05
1.63586e-05
1.62684e-05
1.6167e-05
1.60805e-05
1.59842e-05
1.59013e-05
1.58079e-05
1.57299e-05
1.56402e-05
1.55634e-05
1.54748e-05
1.53996e-05
1.53116e-05
1.52344e-05
1.51448e-05
1.50685e-05
1.49777e-05
1.48983e-05
1.48066e-05
1.47279e-05
1.46346e-05
1.45525e-05
1.99999e-05
1.9856e-05
1.95615e-05
1.92749e-05
1.90458e-05
1.88963e-05
1.8782e-05
1.86662e-05
1.85283e-05
1.84055e-05
1.8283e-05
1.81735e-05
1.80536e-05
1.79456e-05
1.78288e-05
1.77265e-05
1.76133e-05
1.7515e-05
1.74057e-05
1.73126e-05
1.72092e-05
1.71201e-05
1.70189e-05
1.69298e-05
1.68263e-05
1.67355e-05
1.66314e-05
1.65399e-05
1.64374e-05
1.63487e-05
1.62485e-05
1.6163e-05
1.60675e-05
1.5986e-05
1.58936e-05
1.58163e-05
1.57275e-05
1.56519e-05
1.55639e-05
1.5489e-05
1.54013e-05
1.53245e-05
1.52348e-05
1.51581e-05
1.50667e-05
1.49875e-05
1.48958e-05
1.48165e-05
1.47225e-05
1.46409e-05
1.99999e-05
1.98596e-05
1.95727e-05
1.92937e-05
1.90665e-05
1.89151e-05
1.88013e-05
1.86921e-05
1.85599e-05
1.84392e-05
1.83183e-05
1.82113e-05
1.80945e-05
1.79895e-05
1.78751e-05
1.77756e-05
1.76648e-05
1.7569e-05
1.74622e-05
1.73718e-05
1.72711e-05
1.71851e-05
1.70862e-05
1.7e-05
1.68986e-05
1.68097e-05
1.67072e-05
1.66175e-05
1.6516e-05
1.64287e-05
1.63296e-05
1.62452e-05
1.61504e-05
1.607e-05
1.59787e-05
1.59022e-05
1.58142e-05
1.57396e-05
1.56523e-05
1.55779e-05
1.54902e-05
1.54139e-05
1.5324e-05
1.5247e-05
1.51553e-05
1.50762e-05
1.49842e-05
1.49044e-05
1.48102e-05
1.47297e-05
1.99999e-05
1.98631e-05
1.95835e-05
1.93123e-05
1.90881e-05
1.89354e-05
1.88215e-05
1.87178e-05
1.85918e-05
1.84737e-05
1.83544e-05
1.82495e-05
1.81355e-05
1.80334e-05
1.79216e-05
1.78244e-05
1.7716e-05
1.76225e-05
1.75182e-05
1.74304e-05
1.73321e-05
1.72492e-05
1.71528e-05
1.70692e-05
1.697e-05
1.68832e-05
1.67821e-05
1.66941e-05
1.65936e-05
1.65074e-05
1.64094e-05
1.6326e-05
1.62319e-05
1.61525e-05
1.6062e-05
1.59864e-05
1.58992e-05
1.58255e-05
1.57389e-05
1.5665e-05
1.55773e-05
1.55014e-05
1.54112e-05
1.53339e-05
1.52419e-05
1.51628e-05
1.50704e-05
1.49905e-05
1.48963e-05
1.48169e-05
1.99999e-05
1.98664e-05
1.95938e-05
1.93307e-05
1.91104e-05
1.89569e-05
1.88425e-05
1.87432e-05
1.86235e-05
1.85085e-05
1.8391e-05
1.82878e-05
1.81765e-05
1.80771e-05
1.79678e-05
1.78729e-05
1.77666e-05
1.76753e-05
1.75731e-05
1.74879e-05
1.73921e-05
1.73121e-05
1.72182e-05
1.71372e-05
1.70401e-05
1.69553e-05
1.68556e-05
1.67691e-05
1.66695e-05
1.65845e-05
1.64872e-05
1.64048e-05
1.63112e-05
1.62327e-05
1.61429e-05
1.60681e-05
1.59816e-05
1.59087e-05
1.58227e-05
1.57493e-05
1.56616e-05
1.55858e-05
1.54954e-05
1.54177e-05
1.53256e-05
1.52463e-05
1.51534e-05
1.50737e-05
1.49797e-05
1.49006e-05
1.99999e-05
1.98696e-05
1.96037e-05
1.93484e-05
1.91328e-05
1.89794e-05
1.88643e-05
1.87684e-05
1.86548e-05
1.85435e-05
1.84279e-05
1.83262e-05
1.82174e-05
1.81204e-05
1.80136e-05
1.79207e-05
1.78164e-05
1.77273e-05
1.7627e-05
1.75442e-05
1.74507e-05
1.73734e-05
1.7282e-05
1.72037e-05
1.71086e-05
1.70257e-05
1.69272e-05
1.68421e-05
1.67435e-05
1.66594e-05
1.65628e-05
1.64812e-05
1.6388e-05
1.631e-05
1.62209e-05
1.61468e-05
1.60608e-05
1.59887e-05
1.59032e-05
1.58302e-05
1.57423e-05
1.56666e-05
1.5576e-05
1.54979e-05
1.54054e-05
1.53259e-05
1.52326e-05
1.51529e-05
1.50595e-05
1.49803e-05
1.99999e-05
1.98726e-05
1.96131e-05
1.93655e-05
1.9155e-05
1.90024e-05
1.88869e-05
1.87934e-05
1.86858e-05
1.85783e-05
1.84652e-05
1.83645e-05
1.82582e-05
1.81633e-05
1.80589e-05
1.7968e-05
1.78654e-05
1.77783e-05
1.76797e-05
1.7599e-05
1.75078e-05
1.74332e-05
1.73443e-05
1.72687e-05
1.71754e-05
1.70943e-05
1.69971e-05
1.69132e-05
1.68152e-05
1.6732e-05
1.66359e-05
1.65549e-05
1.64618e-05
1.63844e-05
1.62956e-05
1.62222e-05
1.61366e-05
1.60652e-05
1.59799e-05
1.59071e-05
1.58192e-05
1.57435e-05
1.56525e-05
1.55739e-05
1.54809e-05
1.54011e-05
1.53076e-05
1.52277e-05
1.51345e-05
1.50557e-05
1.99999e-05
1.98755e-05
1.9622e-05
1.93817e-05
1.91769e-05
1.90259e-05
1.89102e-05
1.88184e-05
1.87164e-05
1.86126e-05
1.85028e-05
1.84027e-05
1.82993e-05
1.82054e-05
1.81039e-05
1.80146e-05
1.79135e-05
1.78284e-05
1.7731e-05
1.76525e-05
1.75636e-05
1.74914e-05
1.74051e-05
1.7332e-05
1.72404e-05
1.71612e-05
1.7065e-05
1.69821e-05
1.68848e-05
1.68024e-05
1.67065e-05
1.66257e-05
1.65328e-05
1.64557e-05
1.63671e-05
1.6294e-05
1.62089e-05
1.61378e-05
1.60528e-05
1.59801e-05
1.58921e-05
1.58161e-05
1.57246e-05
1.56455e-05
1.55519e-05
1.54717e-05
1.53777e-05
1.52979e-05
1.52047e-05
1.51265e-05
1.99999e-05
1.98781e-05
1.96302e-05
1.93971e-05
1.91982e-05
1.90493e-05
1.8934e-05
1.88433e-05
1.87466e-05
1.86464e-05
1.85406e-05
1.84405e-05
1.83404e-05
1.82468e-05
1.81487e-05
1.80604e-05