/*--------------------------------*- C++ -*----------------------------------*\
  =========                 |
  \\      /  F ield         | OpenFOAM: The Open Source CFD Toolbox
   \\    /   O peration     | Website:  https://openfoam.org
    \\  /    A nd           | Version:  7
     \\/     M anipulation  |
\*---------------------------------------------------------------------------*/
FoamFile
{
    version     2.0;
    format      ascii;
    class       volScalarField;
    location    "0.09";
    object      nut;
}
// * * * * * * * * * * * * * * * * * * * * * * * * * * * * * * * * * * * * * //

dimensions      [0 2 -1 0 0 0 0];

internalField   nonuniform List<scalar> 
70000
(
0
0
0
0
0
0
0
0
0
0
0
0
0
0
0
0
0
0
0
0
0
0
0
0
0
0
0
0
0
0
0
0
0
0
0
0
0
0
0
0
0
0
0
3.56311e-14
0
2.53372e-13
0
1.1013e-12
0
0
0
0
0
0
0
0
0
0
0
0
0
0
0
0
0
0
0
0
0
0
0
0
0
0
0
0
0
0
0
0
0
0
0
0
0
0
0
0
0
0
0
0
0
7.18899e-14
0
4.80589e-13
0
2.2172e-12
0
0
0
0
0
0
0
0
0
0
0
0
0
0
0
0
0
0
0
0
0
0
0
0
0
0
0
0
0
0
0
0
0
0
0
0
0
0
0
0
0
0
0
0
0
7.11198e-14
0
6.08538e-13
0
3.00949e-12
2.55754e-12
0
0
0
0
0
0
0
0
0
0
0
0
0
0
0
0
0
0
0
0
0
0
0
0
0
0
0
0
0
0
0
0
0
0
0
0
0
0
0
0
0
0
0
0
0
0
5.66643e-13
0
3.144e-12
5.59828e-12
0
0
0
0
0
0
0
0
0
0
0
0
0
0
0
0
0
0
0
0
0
0
0
0
0
0
0
0
0
0
0
0
0
0
0
0
0
0
0
0
0
0
0
0
0
0
4.78775e-13
0
2.88478e-12
6.76782e-12
0
9.44685e-10
0
0
0
0
0
0
0
0
0
0
0
0
0
0
0
0
0
0
0
0
0
0
0
0
0
0
0
0
0
0
0
0
0
0
0
0
0
0
0
0
0
0
0
0
4.19192e-13
0
2.51368e-12
6.91736e-12
0
1.31856e-08
0
0
0
0
0
0
0
0
0
0
0
0
0
0
0
0
0
0
0
0
0
0
0
0
0
0
0
0
0
0
0
0
0
0
0
0
0
0
0
0
0
0
0
0
3.33584e-13
0
1.99534e-12
6.93869e-12
0
1.20791e-08
0
0
0
0
0
0
0
0
0
0
0
0
0
0
0
0
0
0
0
0
0
0
0
0
0
0
0
0
0
0
0
0
0
0
0
0
0
0
0
0
0
0
0
0
1.70019e-13
0
1.28546e-12
6.98213e-12
0
1.10601e-08
0
0
0
0
0
0
0
0
0
0
0
0
0
0
0
0
0
0
0
0
0
0
0
0
0
0
0
0
0
0
0
0
0
0
0
0
0
0
0
0
0
0
0
0
0
0
4.23501e-13
6.91894e-12
0
1.0212e-08
0
0
0
0
0
0
0
0
0
0
0
0
0
0
0
0
0
0
0
0
0
0
0
0
0
0
0
0
0
0
0
0
0
0
0
0
0
0
0
0
0
0
0
0
0
0
0
6.66045e-12
0
9.50151e-09
0
0
0
0
0
0
0
0
0
0
0
0
0
0
0
0
0
0
0
0
0
0
0
0
0
0
0
0
0
0
0
0
0
0
0
0
0
0
0
0
0
0
0
0
0
0
0
6.1991e-12
0
8.85809e-09
0
0
0
0
0
0
0
0
0
0
0
0
0
0
0
0
0
0
0
0
0
0
0
0
0
0
0
0
0
0
0
0
0
0
0
0
0
0
0
0
0
0
0
0
0
0
0
5.55669e-12
0
8.2161e-09
0
0
0
0
0
0
0
0
0
0
0
0
0
0
0
0
0
0
0
0
0
0
0
0
0
0
0
0
0
0
0
0
0
0
0
0
0
0
0
0
0
0
0
0
0
0
0
4.78711e-12
0
7.55571e-09
0
0
0
0
0
0
0
0
0
0
0
0
4.55996e-12
0
0
0
0
0
0
0
0
0
0
0
0
0
0
0
0
0
0
0
0
0
0
0
0
0
0
0
0
0
0
0
0
0
0
3.9042e-12
0
6.88309e-09
0
0
0
0
0
0
0
0
0
0
0
0
0
0
1.85451e-12
3.69798e-11
3.65738e-11
1.32611e-11
8.42856e-14
0
0
0
0
0
0
0
0
0
0
0
0
0
0
0
0
0
0
0
0
0
0
0
0
0
0
0
0
2.86111e-12
0
6.20927e-09
0
0
0
0
0
0
0
0
0
0
0
0
0
0
0
0
0
5.70595e-12
3.70444e-11
6.17506e-11
6.5406e-11
4.18761e-11
1.74938e-11
4.97877e-12
0
0
0
0
0
0
0
0
0
0
0
0
0
0
0
0
0
0
0
0
0
0
0
1.52551e-12
0
5.54279e-09
0
0
0
4.58916e-11
0
0
0
0
0
0
0
0
0
0
0
0
0
0
0
0
0
1.76174e-11
3.97959e-11
6.19421e-11
7.99037e-11
8.51545e-11
6.82147e-11
4.06887e-11
2.04152e-11
9.27234e-12
3.55551e-12
6.53628e-13
0
0
0
0
0
0
0
0
0
0
0
0
0
3.53785e-14
0
0
0
4.8899e-09
0
0
0
1.25504e-10
0
0
0
0
0
0
0
0
0
0
0
0
0
0
0
0
0
0
0
0
3.31716e-12
1.51441e-11
2.9336e-11
4.55647e-11
6.29631e-11
7.99843e-11
9.46272e-11
1.01529e-10
9.22943e-11
6.78421e-11
4.22707e-11
2.37664e-11
1.29673e-11
6.04088e-12
2.91182e-12
0
0
0
0
0
0
1.14955e-12
0
0
0
4.2561e-09
0
0
0
1.76117e-10
0
0
0
0
0
0
0
0
0
0
0
0
0
0
0
0
0
0
0
0
0
0
0
0
5.10374e-12
1.14045e-11
1.84076e-11
2.65846e-11
3.62321e-11
4.66123e-11
5.78e-11
6.77991e-11
7.74535e-11
8.32319e-11
8.6549e-11
7.96538e-11
6.60838e-11
4.50463e-11
2.86319e-11
1.95863e-11
1.10307e-11
2.08353e-11
2.17074e-12
1.25767e-11
0
3.64649e-09
0
0
0
1.82463e-10
0
0
0
0
0
0
0
0
0
0
0
0
0
0
0
0
0
0
0
0
0
0
0
0
0
0
0
8.21636e-13
4.2918e-12
7.13369e-12
1.03857e-11
1.22018e-11
1.55036e-11
1.59904e-11
1.9583e-11
1.87487e-11
2.10892e-11
2.04447e-11
1.92942e-11
3.05068e-11
3.76167e-11
1.01515e-10
1.7576e-10
3.59524e-10
5.40533e-10
3.06534e-09
0
0
0
1.2695e-10
0
0
0
0
0
0
0
0
0
0
0
0
0
0
0
0
0
0
0
0
0
0
0
0
0
0
0
0
0
0
0
0
0
0
0
0
0
0
0
1.17525e-12
0
5.82481e-11
8.99497e-11
2.30742e-10
3.17075e-10
2.51559e-09
0
0
0
0
0
0
0
0
0
0
0
0
0
0
0
0
0
0
0
0
0
0
0
0
0
0
0
0
0
0
0
0
0
0
0
0
0
0
0
0
0
0
0
0
0
4.36328e-11
6.11823e-11
1.6888e-10
2.0572e-10
1.99856e-09
0
0
0
0
0
0
0
0
0
0
0
0
0
0
0
0
0
0
0
0
0
0
0
0
0
0
0
0
0
0
0
0
0
0
0
0
0
0
0
0
0
0
0
0
0
3.57618e-11
5.17999e-11
1.37058e-10
1.58391e-10
1.51381e-09
0
0
0
0
0
0
0
0
0
0
0
0
0
0
0
0
0
0
0
0
0
0
0
0
0
0
0
0
0
0
0
0
0
0
0
0
0
0
0
0
0
0
0
0
0
3.31993e-11
5.27953e-11
1.24573e-10
1.40973e-10
1.05937e-09
0
0
0
0
0
0
0
0
0
0
0
0
0
0
0
0
0
0
0
0
0
0
0
0
0
0
0
0
0
0
0
0
0
0
0
0
0
0
0
0
0
0
0
0
0
3.48826e-11
5.98089e-11
1.2458e-10
1.39675e-10
6.32055e-10
0
0
0
0
0
0
0
0
0
0
0
0
0
0
0
0
0
0
0
0
0
0
0
0
0
0
0
0
0
0
0
0
0
0
0
0
0
0
0
0
0
0
0
0
0
3.97977e-11
7.02965e-11
1.31974e-10
1.46577e-10
2.28081e-10
0
0
0
0
0
0
0
0
0
0
0
0
0
0
0
0
0
0
0
0
0
0
0
0
0
0
0
0
0
0
0
0
0
0
0
0
0
0
0
0
0
0
0
0
7.36141e-12
4.71784e-11
8.28126e-11
1.4347e-10
1.57214e-10
0
0
0
0
0
0
0
0
0
0
0
0
0
0
0
0
0
0
0
0
0
0
0
0
0
0
0
0
0
0
0
0
0
0
0
0
0
0
0
0
0
0
0
0
0
1.57408e-11
5.64579e-11
9.65276e-11
1.57074e-10
1.69171e-10
0
0
0
0
0
0
0
0
0
0
0
0
0
0
0
0
0
0
0
0
0
0
0
0
0
0
0
0
0
0
0
0
0
0
0
0
0
0
0
0
0
0
0
0
4.18222e-12
2.49467e-11
6.72299e-11
1.10961e-10
1.71541e-10
1.81042e-10
0
0
0
0
0
0
0
0
0
0
0
0
0
0
0
0
0
0
0
0
0
0
0
0
0
0
0
0
0
0
0
0
0
0
0
0
0
0
0
0
0
0
0
0
1.01921e-11
3.49323e-11
7.9179e-11
1.25798e-10
1.86065e-10
1.91971e-10
0
0
0
0
0
0
0
0
0
0
0
0
0
0
0
0
0
0
0
0
0
0
0
0
0
0
0
0
0
0
0
0
0
0
0
0
0
0
0
0
0
0
0
0
1.72028e-11
4.56543e-11
9.20126e-11
1.40747e-10
2.00021e-10
2.01316e-10
0
0
0
0
0
0
0
0
0
0
0
0
0
0
0
0
0
0
0
0
0
0
0
0
0
0
0
0
0
0
0
0
0
0
0
0
0
0
0
0
0
0
0
2.10517e-13
2.51577e-11
5.70309e-11
1.05412e-10
1.55458e-10
2.12823e-10
2.08471e-10
0
6.38824e-10
0
0
0
0
0
0
0
0
0
0
0
0
0
0
0
0
0
0
0
0
0
0
0
0
0
0
0
0
0
0
0
0
0
0
0
0
0
0
0
0
0
6.49575e-12
3.39515e-11
6.89119e-11
1.19004e-10
1.69487e-10
2.23837e-10
2.12791e-10
0
1.54428e-09
0
0
0
0
0
0
0
0
0
0
0
0
0
0
0
0
0
0
0
0
0
0
0
0
0
0
0
0
0
0
0
0
0
0
0
0
0
0
0
0
0
1.34346e-11
4.34178e-11
8.10588e-11
1.32338e-10
1.82274e-10
2.32349e-10
2.13561e-10
0
2.32365e-09
0
0
0
0
0
0
0
0
0
0
0
0
0
0
0
0
0
0
0
0
0
0
0
0
0
0
0
0
0
0
0
0
0
0
0
0
0
0
0
0
0
2.09362e-11
5.33231e-11
9.31354e-11
1.44869e-10
1.93139e-10
2.37546e-10
2.09987e-10
0
2.97957e-09
0
0
0
0
0
0
0
0
0
0
0
0
0
0
0
0
0
0
0
0
0
0
0
0
0
0
0
0
0
0
0
0
0
0
0
0
0
0
0
0
4.82238e-12
2.88504e-11
6.33688e-11
1.04726e-10
1.56004e-10
2.01354e-10
2.38598e-10
2.01285e-10
0
3.51769e-09
0
0
0
0
0
0
0
0
0
0
0
0
0
0
0
0
0
0
0
0
0
0
0
0
0
0
0
0
0
0
0
0
0
0
0
0
0
0
0
0
1.06225e-11
3.69521e-11
7.31672e-11
1.15295e-10
1.65022e-10
2.06053e-10
2.34555e-10
1.86594e-10
0
3.94583e-09
0
0
0
0
0
0
0
0
0
0
0
0
0
0
0
0
0
0
0
0
0
0
0
0
0
0
0
0
0
0
0
0
0
0
0
0
0
0
0
0
1.66753e-11
4.49453e-11
8.22596e-11
1.24228e-10
1.71143e-10
2.0633e-10
2.24455e-10
1.65075e-10
0
4.27264e-09
0
0
0
0
0
0
0
0
0
0
0
0
0
0
0
0
0
0
0
0
0
0
0
0
0
0
0
0
0
0
0
0
0
0
0
0
0
0
0
0
2.27441e-11
5.24641e-11
9.01165e-11
1.30842e-10
1.73541e-10
2.01256e-10
2.0735e-10
1.35944e-10
0
4.5073e-09
0
0
0
0
0
0
0
0
0
0
0
0
0
0
0
0
0
0
0
0
0
0
0
0
0
0
0
0
0
0
0
0
0
0
0
0
0
0
0
3.87716e-12
2.85399e-11
5.90803e-11
9.61513e-11
1.34403e-10
1.71366e-10
1.89912e-10
1.8234e-10
9.85058e-11
0
4.6602e-09
0
0
0
0
0
0
0
0
0
0
0
0
0
0
0
0
0
0
0
0
0
0
0
0
0
0
0
0
0
0
0
0
0
0
0
0
0
0
0
8.19616e-12
3.37287e-11
6.43179e-11
9.97407e-11
1.34162e-10
1.63779e-10
1.71429e-10
1.48625e-10
5.22052e-11
0
4.7427e-09
0
0
0
0
0
0
0
0
0
0
0
0
0
0
0
0
0
0
0
0
0
0
0
0
0
0
0
0
0
0
0
0
0
0
0
0
0
0
0
1.21776e-11
3.79442e-11
6.76727e-11
1.0025e-10
1.29381e-10
1.49993e-10
1.45031e-10
1.05546e-10
0
0
4.76611e-09
0
0
0
0
0
0
0
0
0
0
0
0
0
0
0
0
0
0
0
0
0
0
0
0
0
0
0
0
0
0
0
0
0
0
0
0
0
0
0
1.55691e-11
4.08054e-11
6.86379e-11
9.70676e-11
1.1938e-10
1.29315e-10
1.10089e-10
5.26473e-11
0
0
4.74083e-09
0
0
0
0
0
0
0
0
0
0
0
0
0
0
0
0
0
0
0
0
0
0
0
0
0
0
0
0
0
0
0
0
0
0
0
0
0
0
0
1.81174e-11
4.19402e-11
6.67346e-11
8.96361e-11
1.03569e-10
1.01195e-10
6.61698e-11
0
0
0
4.67592e-09
0
0
0
0
0
0
0
0
0
0
0
0
0
0
0
0
0
0
0
0
0
0
0
0
0
0
0
0
0
0
0
0
0
0
0
0
0
0
0
1.95906e-11
4.10142e-11
6.1546e-11
7.74967e-11
8.15034e-11
6.5274e-11
1.30837e-11
0
0
0
4.57906e-09
0
0
0
0
0
0
0
0
0
0
0
0
0
0
0
0
0
0
0
0
0
0
0
0
0
0
0
0
0
0
0
0
0
0
0
0
0
0
1.61422e-12
1.98062e-11
3.77641e-11
5.27581e-11
6.03324e-11
5.29264e-11
2.14376e-11
0
0
0
0
4.45666e-09
0
0
0
0
0
0
0
0
0
0
0
0
0
0
0
0
0
0
0
0
0
0
0
0
0
0
0
0
0
0
0
0
0
0
0
0
0
0
3.22725e-12
1.86633e-11
3.2036e-11
4.02028e-11
3.80162e-11
1.78225e-11
0
0
0
0
0
4.31397e-09
0
0
0
0
0
0
0
0
0
0
0
0
0
0
0
0
0
0
0
0
0
0
0
0
0
0
0
0
0
0
0
0
0
0
0
0
0
0
4.47564e-12
1.618e-11
2.3828e-11
2.39048e-11
1.06639e-11
0
0
0
0
0
0
4.15536e-09
0
0
0
0
0
0
0
0
0
0
0
0
0
0
0
0
0
0
0
0
0
0
0
0
0
0
0
0
0
0
0
0
0
0
0
0
0
0
5.55932e-12
1.25341e-11
1.33363e-11
4.13364e-12
0
0
0
0
0
0
0
3.98448e-09
0
0
0
0
0
0
0
0
0
0
0
0
0
0
0
0
0
0
0
0
0
0
0
0
0
0
0
0
0
0
0
0
0
0
0
0
0
8.23344e-13
6.84732e-12
8.10846e-12
1.00599e-12
0
0
0
0
0
0
0
0
3.80454e-09
0
0
0
0
0
0
0
0
0
0
0
0
0
0
0
0
0
0
0
0
0
0
0
0
0
0
0
0
0
0
0
0
0
0
0
0
2.36966e-12
7.76833e-12
8.9217e-12
3.54012e-12
0
0
0
0
0
0
0
0
0
3.61828e-09
0
0
0
0
0
0
0
0
0
0
0
0
0
0
0
0
0
0
0
0
0
0
0
0
0
0
0
0
0
0
0
0
0
0
4.42434e-12
1.14107e-11
1.59707e-11
1.71496e-11
1.26237e-11
0
0
0
0
0
0
0
0
0
0
3.42804e-09
0
0
0
0
0
0
0
0
0
0
0
0
0
0
0
0
0
0
0
0
0
0
0
0
0
0
0
0
0
0
0
0
1.26509e-11
2.25966e-11
2.91466e-11
3.30664e-11
3.3767e-11
3.00164e-11
1.90996e-11
0
0
0
0
0
0
0
0
0
0
3.2359e-09
0
0
0
0
0
0
0
0
0
0
0
0
0
0
0
0
0
0
0
0
0
0
0
0
0
0
0
0
0
0
1.47756e-11
3.68805e-11
4.99161e-11
5.72437e-11
6.06381e-11
6.08359e-11
5.70204e-11
4.77123e-11
2.98372e-11
2.34949e-13
0
0
0
0
0
0
0
0
0
3.0438e-09
0
0
0
0
0
0
0
0
0
0
0
0
0
0
0
0
0
0
0
0
0
0
0
0
0
0
0
0
0
2.98858e-11
6.57142e-11
8.62627e-11
9.66795e-11
1.00741e-10
1.00334e-10
9.61943e-11
8.72886e-11
7.19252e-11
4.67117e-11
8.31324e-12
0
0
0
0
0
0
0
0
0
2.85351e-09
0
0
0
0
0
0
0
0
0
0
0
0
0
0
0
0
0
0
0
0
0
0
0
0
0
0
0
0
3.33955e-11
9.34416e-11
1.28938e-10
1.47403e-10
1.54578e-10
1.54731e-10
1.49901e-10
1.40874e-10
1.26433e-10
1.04708e-10
7.20262e-11
2.49613e-11
0
0
0
0
0
0
0
0
0
2.66661e-09
0
0
0
0
0
0
0
0
0
0
0
0
0
0
0
0
0
0
0
0
0
0
0
0
0
0
0
1.04163e-11
1.09085e-10
1.71383e-10
2.0621e-10
2.2208e-10
2.25413e-10
2.21055e-10
2.11239e-10
1.96882e-10
1.76624e-10
1.48468e-10
1.08506e-10
5.32967e-11
0
0
0
0
0
0
0
0
0
2.4844e-09
0
0
0
0
0
0
0
0
0
0
0
0
0
0
0
0
0
0
0
0
0
0
0
0
0
0
0
9.57215e-11
2.00901e-10
2.65492e-10
2.9937e-10
3.12178e-10
3.11126e-10
3.01725e-10
2.86463e-10
2.66489e-10
2.40343e-10
2.0597e-10
1.59285e-10
9.69122e-11
1.39924e-11
0
0
0
0
0
0
0
0
2.30792e-09
0
0
0
0
0
0
0
0
0
0
0
0
0
0
0
0
0
0
0
0
0
0
0
0
0
0
3.07747e-11
1.98237e-10
3.10505e-10
3.77545e-10
4.10279e-10
4.19645e-10
4.13747e-10
3.98871e-10
3.77859e-10
3.52181e-10
3.20333e-10
2.80289e-10
2.27863e-10
1.59834e-10
7.15304e-11
0
0
0
0
0
0
0
0
2.13794e-09
0
0
0
0
0
0
0
0
0
0
0
0
0
0
0
0
0
0
0
0
0
0
0
0
0
0
1.37918e-10
3.19325e-10
4.39427e-10
5.09208e-10
5.40726e-10
5.46387e-10
5.3529e-10
5.14649e-10
4.87773e-10
4.56545e-10
4.19474e-10
3.74678e-10
3.17951e-10
2.46322e-10
1.55369e-10
4.41987e-11
0
0
0
0
0
0
0
1.97498e-09
0
0
0
0
0
0
0
0
0
0
0
0
0
0
0
0
0
0
0
0
0
0
0
0
0
0
2.63258e-10
4.60028e-10
5.88906e-10
6.61892e-10
6.92293e-10
6.94147e-10
6.77651e-10
6.51123e-10
6.18471e-10
5.821e-10
5.40607e-10
4.92384e-10
4.33253e-10
3.60591e-10
2.70304e-10
1.62347e-10
3.55835e-11
0
0
0
0
0
0
1.81939e-09
0
0
0
0
0
0
0
0
0
0
0
0
0
0
0
0
0
0
0
0
0
0
0
0
0
1.13626e-10
4.07162e-10
6.2088e-10
7.59666e-10
8.36546e-10
8.66136e-10
8.64278e-10
8.42392e-10
8.10066e-10
7.71951e-10
7.311e-10
6.86315e-10
6.36379e-10
5.77192e-10
5.0652e-10
4.20644e-10
3.20444e-10
2.05786e-10
8.44023e-11
0
0
0
0
0
1.67134e-09
0
0
0
0
0
0
0
0
0
0
0
0
0
0
0
0
0
0
0
0
0
0
0
0
0
2.50011e-10
5.69362e-10
8.0175e-10
9.51772e-10
1.03344e-09
1.06274e-09
1.05748e-09
1.03041e-09
9.92619e-10
9.49586e-10
9.05171e-10
8.58529e-10
8.08934e-10
7.52388e-10
6.87099e-10
6.09691e-10
5.21907e-10
4.2451e-10
3.26758e-10
2.34767e-10
1.68803e-10
1.31811e-10
1.21504e-10
0
1.53088e-09
0
0
0
0
0
0
0
0
0
0
0
0
0
0
0
0
0
0
0
0
0
0
0
0
0
4.01573e-10
7.48769e-10
1.0016e-09
1.16436e-09
1.25189e-09
1.28165e-09
1.27347e-09
1.24162e-09
1.19887e-09
1.15166e-09
1.10482e-09
1.05797e-09
1.01096e-09
9.59951e-10
9.03567e-10
8.38687e-10
7.67746e-10
6.92102e-10
6.2214e-10
5.64866e-10
5.40149e-10
5.30155e-10
4.41948e-10
0
1.39793e-09
0
0
0
0
0
0
0
0
0
0
0
0
0
0
0
0
0
0
0
0
0
0
0
0
9.83749e-11
5.66256e-10
9.43102e-10
1.21816e-09
1.39525e-09
1.4898e-09
1.52101e-09
1.51053e-09
1.47438e-09
1.42739e-09
1.37686e-09
1.32875e-09
1.28344e-09
1.24131e-09
1.19851e-09
1.15425e-09
1.10551e-09
1.05495e-09
1.00405e-09
9.63737e-10
9.40883e-10
9.5301e-10
9.5415e-10
7.40144e-10
0
1.27234e-09
0
0
0
0
0
0
0
0
0
0
0
0
0
0
0
0
0
0
0
0
0
0
0
0
2.36584e-10
7.40793e-10
1.14878e-09
1.44761e-09
1.64051e-09
1.74334e-09
1.77699e-09
1.76492e-09
1.72513e-09
1.67448e-09
1.62137e-09
1.57324e-09
1.53102e-09
1.49551e-09
1.4631e-09
1.43343e-09
1.40306e-09
1.37447e-09
1.34877e-09
1.33633e-09
1.34242e-09
1.38009e-09
1.36787e-09
9.72861e-10
0
1.15391e-09
0
0
0
0
0
0
0
0
0
0
0
0
0
0
0
0
0
0
0
0
0
0
0
0
3.79542e-10
9.20589e-10
1.36061e-09
1.68438e-09
1.89425e-09
2.00637e-09
2.04335e-09
2.03033e-09
1.98749e-09
1.9336e-09
1.87842e-09
1.83106e-09
1.79276e-09
1.76482e-09
1.74394e-09
1.7296e-09
1.71743e-09
1.70946e-09
1.70552e-09
1.71397e-09
1.73696e-09
1.78114e-09
1.72312e-09
1.09058e-09
0
1.04232e-09
0
0
0
0
0
0
0
0
0
0
0
0
0
0
0
0
0
0
0
0
0
0
0
0
5.22362e-10
1.09973e-09
1.57171e-09
1.92075e-09
2.14817e-09
2.27016e-09
2.31094e-09
2.2972e-09
2.25166e-09
2.1945e-09
2.13734e-09
2.09059e-09
2.05583e-09
2.03512e-09
2.02492e-09
2.02392e-09
2.0265e-09
2.03365e-09
2.04268e-09
2.05864e-09
2.0794e-09
2.10386e-09
1.96301e-09
1.04487e-09
0
9.37225e-10
0
0
0
0
0
0
0
0
0
0
0
0
0
0
0
0
0
0
0
0
0
0
0
0
6.59101e-10
1.27093e-09
1.77342e-09
2.14679e-09
2.39127e-09
2.52294e-09
2.56727e-09
2.55244e-09
2.50385e-09
2.44268e-09
2.38277e-09
2.33513e-09
2.30189e-09
2.28589e-09
2.28258e-09
2.28934e-09
2.29909e-09
2.31061e-09
2.3176e-09
2.32125e-09
2.31478e-09
2.28909e-09
2.03027e-09
7.99738e-10
0
8.38234e-10
0
0
0
0
0
0
0
0
0
0
0
0
0
0
0
0
0
0
0
0
0
0
0
6.91928e-11
7.82833e-10
1.42547e-09
1.95533e-09
2.35047e-09
2.60988e-09
2.74982e-09
2.79638e-09
2.77938e-09
2.72616e-09
2.65921e-09
2.59453e-09
2.54265e-09
2.507e-09
2.4902e-09
2.48611e-09
2.49118e-09
2.49574e-09
2.49514e-09
2.47967e-09
2.44674e-09
2.38552e-09
2.28099e-09
1.88062e-09
3.44723e-10
0
7.44916e-10
0
0
0
0
0
0
0
0
0
0
0
0
0
0
0
0
0
0
0
0
0
0
0
1.47189e-10
8.86071e-10
1.55376e-09
2.10562e-09
2.51782e-09
2.78837e-09
2.93319e-09
2.97935e-09
2.95774e-09
2.89721e-09
2.82157e-09
2.74779e-09
2.68686e-09
2.64246e-09
2.61586e-09
2.59999e-09
2.58955e-09
2.57177e-09
2.53884e-09
2.47787e-09
2.38355e-09
2.24387e-09
2.04192e-09
1.49711e-09
0
0
6.56819e-10
0
0
0
0
0
0
0
0
0
0
0
0
0
0
0
0
0
0
0
0
0
0
0
2.05295e-10
9.61291e-10
1.64606e-09
2.2119e-09
2.63393e-09
2.90944e-09
3.05421e-09
3.09565e-09
3.0654e-09
2.99347e-09
2.90453e-09
2.816e-09
2.73898e-09
2.67681e-09
2.62931e-09
2.58787e-09
2.54497e-09
2.4855e-09
2.39923e-09
2.27155e-09
2.09728e-09
1.86699e-09
1.56629e-09
8.99537e-10
0
0
5.73474e-10
0
0
0
0
0
0
0
0
0
0
0
0
0
0
0
0
0
0
0
0
0
0
0
2.38823e-10
1.00174e-09
1.69283e-09
2.26238e-09
2.68394e-09
2.95561e-09
3.09344e-09
3.12474e-09
3.081e-09
2.99238e-09
2.88395e-09
2.77352e-09
2.6719e-09
2.58161e-09
2.50069e-09
2.41906e-09
2.32708e-09
2.2083e-09
2.0518e-09
1.84419e-09
1.58395e-09
1.26785e-09
8.8768e-10
1.45187e-10
0
0
4.94391e-10
0
0
0
0
0
0
0
0
0
0
0
0
0
0
0
0
0
0
0
0
0
0
0
2.44359e-10
1.00214e-09
1.6862e-09
2.2469e-09
2.65648e-09
2.91351e-09
3.0347e-09
3.04815e-09
2.98508e-09
2.87454e-09
2.74085e-09
2.60154e-09
2.46687e-09
2.3384e-09
2.2126e-09
2.07822e-09
1.92431e-09
1.73486e-09
1.50084e-09
1.21325e-09
8.77407e-10
4.98354e-10
7.56754e-11
0
0
0
4.19069e-10
0
0
0
0
0
0
0
0
0
0
0
0
0
0
0
0
0
0
0
0
0
0
0
2.20458e-10
9.59661e-10
1.62199e-09
2.15898e-09
2.54315e-09
2.77381e-09
2.86872e-09
2.8559e-09
2.76636e-09
2.62854e-09
2.4653e-09
2.29229e-09
2.1184e-09
1.94472e-09
1.76665e-09
1.57273e-09
1.35195e-09
1.09102e-09
7.85335e-10
4.32862e-10
4.72408e-11
0
0
0
0
0
3.47012e-10
0
0
0
0
0
0
0
0
0
0
0
0
0
0
0
0
0
0
0
0
0
0
0
1.68318e-10
8.74816e-10
1.50006e-09
1.99767e-09
2.34269e-09
2.53492e-09
2.59386e-09
2.54756e-09
2.42632e-09
2.25725e-09
2.06155e-09
1.85317e-09
1.63911e-09
1.41924e-09
1.18834e-09
9.36538e-10
6.5446e-10
3.33638e-10
0
0
0
0
0
0
0
0
2.777e-10
0
0
0
0
0
0
0
0
0
0
0
0
0
0
0
0
0
0
0
0
0
0
0
9.23239e-11
7.52237e-10
1.32552e-09
1.76896e-09
2.06163e-09
2.20494e-09
2.22009e-09
2.13529e-09
1.97982e-09
1.77905e-09
1.55217e-09
1.31114e-09
1.06126e-09
8.01402e-10
5.2649e-10
2.28361e-10
0
0
0
0
0
0
0
0
0
0
2.10613e-10
0
0
0
0
0
0
0
0
0
0
0
0
0
0
0
0
0
0
0
0
0
0
0
3.62181e-13
6.01078e-10
1.10924e-09
1.48607e-09
1.71562e-09
1.80261e-09
1.76944e-09
1.64474e-09
1.45648e-09
1.228e-09
9.76192e-10
7.10886e-10
4.35801e-10
1.4914e-10
0
0
0
0
0
0
0
0
0
0
0
0
1.45268e-10
0
0
0
0
0
0
0
0
0
0
0
0
0
0
0
0
0
0
0
0
0
0
0
0
4.35032e-10
8.67851e-10
1.16921e-09
1.32898e-09
1.35636e-09
1.27489e-09
1.11344e-09
8.98476e-10
6.51022e-10
3.85474e-10
1.09441e-10
0
0
0
0
0
0
0
0
0
0
0
0
0
0
8.12381e-11
0
0
0
0
0
0
0
0
0
0
0
0
0
0
0
0
0
0
0
0
0
0
0
0
2.71839e-10
6.22933e-10
8.44475e-10
9.32831e-10
9.02096e-10
7.77261e-10
5.86951e-10
3.5583e-10
1.02353e-10
0
0
0
0
0
0
0
0
0
0
0
0
0
0
0
0
1.8219e-11
0
0
0
0
0
0
0
0
0
0
0
0
0
0
0
0
0
0
0
0
0
0
0
0
1.32276e-10
3.99563e-10
5.41826e-10
5.62314e-10
4.79882e-10
3.21167e-10
1.13873e-10
0
0
0
0
0
0
0
0
0
0
0
0
0
0
0
0
0
0
0
0
0
0
0
0
0
0
0
0
0
0
0
0
0
0
0
0
0
0
0
0
0
0
0
3.89451e-11
2.24568e-10
2.92634e-10
2.53366e-10
1.29906e-10
0
0
0
0
0
0
0
0
0
0
0
0
0
0
0
0
0
0
0
0
0
0
0
0
0
0
0
0
0
0
0
0
0
0
0
0
0
0
0
0
0
0
0
0
0
1.48551e-11
1.2469e-10
1.27446e-10
4.0028e-11
0
0
0
0
0
0
0
0
0
0
0
0
0
0
0
0
0
0
0
6.89495e-10
0
0
0
0
0
0
0
0
0
0
0
0
0
0
0
0
0
0
0
0
0
0
0
0
0
0
8.21086e-11
1.24825e-10
7.37238e-11
0
0
0
0
0
0
0
0
0
0
0
0
0
0
0
0
0
0
4.04626e-10
1.16276e-09
2.31921e-09
0
0
0
0
0
0
0
0
0
0
0
0
0
0
0
0
0
0
0
0
0
0
0
0
1.11348e-11
1.80708e-10
2.6098e-10
2.47e-10
1.54762e-10
1.27504e-11
0
0
0
0
0
0
0
0
0
0
0
0
0
1.05575e-11
2.75235e-10
6.53267e-10
1.15755e-09
1.80869e-09
2.69868e-09
4.14287e-09
0
0
0
0
0
0
0
0
0
0
0
0
0
0
0
0
0
0
0
0
0
0
1.13261e-11
2.39125e-10
4.27628e-10
5.43542e-10
5.69116e-10
5.09561e-10
3.89088e-10
2.40819e-10
9.70942e-11
0
0
0
0
1.43888e-11
1.21831e-10
2.47106e-10
3.80407e-10
5.17771e-10
6.61979e-10
8.25148e-10
1.0254e-09
1.28843e-09
1.63832e-09
2.10141e-09
2.68968e-09
3.4241e-09
4.43162e-09
6.14001e-09
0
0
0
0
0
0
0
0
0
0
0
0
0
0
0
0
0
0
0
0
1.48078e-10
3.8279e-10
6.1364e-10
8.20186e-10
9.71653e-10
1.04137e-09
1.02141e-09
9.27139e-10
7.90493e-10
6.48468e-10
5.33721e-10
4.69503e-10
4.68113e-10
5.32e-10
6.54971e-10
8.24811e-10
1.02631e-09
1.24478e-09
1.46876e-09
1.69352e-09
1.9219e-09
2.16654e-09
2.44646e-09
2.78803e-09
3.21603e-09
3.75646e-09
4.42061e-09
5.23098e-09
6.34271e-09
8.29105e-09
0
0
0
0
0
0
0
0
0
0
0
0
0
0
0
0
0
4.26837e-11
3.19301e-10
5.91152e-10
8.55519e-10
1.10979e-09
1.34381e-09
1.53522e-09
1.65604e-09
1.68693e-09
1.63016e-09
1.51114e-09
1.36895e-09
1.24376e-09
1.16799e-09
1.16222e-09
1.23459e-09
1.38327e-09
1.59834e-09
1.86372e-09
2.16087e-09
2.47255e-09
2.78571e-09
3.0949e-09
3.40317e-09
3.72386e-09
4.0771e-09
4.49016e-09
4.9887e-09
5.59848e-09
6.32999e-09
7.20633e-09
8.40962e-09
1.0574e-08
0
0
0
0
0
0
0
0
0
0
0
0
0
0
0
1.26364e-10
4.29825e-10
7.4638e-10
1.0685e-09
1.38586e-09
1.6896e-09
1.97082e-09
2.21421e-09
2.39621e-09
2.49232e-09
2.49111e-09
2.4053e-09
2.2701e-09
2.13121e-09
2.03141e-09
2.00239e-09
2.06189e-09
2.21365e-09
2.45097e-09
2.76048e-09
3.12226e-09
3.51454e-09
3.9176e-09
4.31687e-09
4.70634e-09
5.08938e-09
5.48017e-09
5.90012e-09
6.37755e-09
6.93911e-09
7.61029e-09
8.40045e-09
9.3318e-09
1.06139e-08
1.29754e-08
0
4.24476e-10
0
0
0
0
0
0
0
0
0
0
0
2.17403e-10
5.2905e-10
8.51951e-10
1.19745e-09
1.56404e-09
1.94092e-09
2.31256e-09
2.66369e-09
2.97853e-09
3.23671e-09
3.41428e-09
3.4908e-09
3.46327e-09
3.35491e-09
3.21046e-09
3.08174e-09
3.0137e-09
3.03701e-09
3.16641e-09
3.40128e-09
3.72931e-09
4.13384e-09
4.59125e-09
5.07652e-09
5.56756e-09
6.04843e-09
6.51272e-09
6.96434e-09
7.41849e-09
7.89809e-09
8.43263e-09
9.04984e-09
9.77513e-09
1.06172e-08
1.16003e-08
1.29548e-08
1.54853e-08
0
1.25928e-09
0
0
0
0
0
0
0
0
0
3.07792e-10
6.55177e-10
9.8738e-10
1.32537e-09
1.68855e-09
2.08549e-09
2.51126e-09
2.95163e-09
3.38555e-09
3.79128e-09
4.14571e-09
4.4232e-09
4.59962e-09
4.66023e-09
4.61124e-09
4.48556e-09
4.33719e-09
4.2237e-09
4.19186e-09
4.27108e-09
4.47301e-09
4.7927e-09
5.21201e-09
5.71031e-09
6.26093e-09
6.83563e-09
7.41005e-09
7.96705e-09
8.50002e-09
9.01352e-09
9.524e-09
1.00559e-08
1.06401e-08
1.13053e-08
1.20771e-08
1.29639e-08
1.39943e-08
1.54219e-08
1.80908e-08
0
2.64209e-09
0
0
0
0
0
0
6.05142e-11
4.51163e-10
8.22101e-10
1.17699e-09
1.5217e-09
1.87044e-09
2.24263e-09
2.65461e-09
3.11172e-09
3.60489e-09
4.11632e-09
4.61931e-09
5.08513e-09
5.48389e-09
5.78488e-09
5.9635e-09
6.00938e-09
5.94123e-09
5.80262e-09
5.65429e-09
5.55944e-09
5.56651e-09
5.70352e-09
5.9789e-09
6.38345e-09
6.89325e-09
7.48249e-09
8.12225e-09
8.78121e-09
9.43295e-09
1.00594e-08
1.06539e-08
1.1222e-08
1.17814e-08
1.23582e-08
1.29844e-08
1.369e-08
1.45002e-08
1.54236e-08
1.64929e-08
1.79968e-08
2.07781e-08
7.1686e-09
3.88601e-09
0
0
0
2.60655e-10
5.61053e-10
8.69086e-10
1.1879e-09
1.5125e-09
1.84011e-09
2.17271e-09
2.51762e-09
2.88861e-09
3.30229e-09
3.77084e-09
4.29556e-09
4.86309e-09
5.45135e-09
6.02842e-09
6.55819e-09
7.00408e-09
7.33082e-09
7.51361e-09
7.54693e-09
7.45936e-09
7.3107e-09
7.16527e-09
7.09112e-09
7.13828e-09
7.33331e-09
7.68136e-09
8.16907e-09
8.76697e-09
9.44279e-09
1.01661e-08
1.09029e-08
1.16248e-08
1.23132e-08
1.29615e-08
1.35763e-08
1.41768e-08
1.47906e-08
1.54509e-08
1.61883e-08
1.70281e-08
1.79786e-08
1.90762e-08
2.06492e-08
2.35328e-08
1.4945e-08
4.09397e-09
1.36447e-09
1.498e-09
1.78531e-09
1.93842e-09
2.13814e-09
2.29932e-09
2.4927e-09
2.73258e-09
3.01106e-09
3.32138e-09
3.66907e-09
4.06708e-09
4.52834e-09
5.05974e-09
5.65767e-09
6.30462e-09
6.97316e-09
7.62695e-09
8.22221e-09
8.71602e-09
9.06905e-09
9.2565e-09
9.27782e-09
9.17123e-09
9.01307e-09
8.87287e-09
8.8205e-09
8.90773e-09
9.15969e-09
9.57812e-09
1.01456e-08
1.08275e-08
1.15837e-08
1.23831e-08
1.31895e-08
1.39731e-08
1.47148e-08
1.54085e-08
1.60618e-08
1.66953e-08
1.7338e-08
1.80241e-08
1.87847e-08
1.96447e-08
2.06119e-08
2.17255e-08
2.33463e-08
2.63355e-08
8.43748e-09
4.38323e-09
3.56714e-09
3.69559e-09
3.77918e-09
3.56167e-09
3.69968e-09
3.88182e-09
4.00488e-09
4.15281e-09
4.36749e-09
4.65182e-09
5.00474e-09
5.43365e-09
5.94683e-09
6.54518e-09
7.2193e-09
7.9477e-09
8.69674e-09
9.42667e-09
1.00864e-08
1.06267e-08
1.10048e-08
1.1196e-08
1.12049e-08
1.10796e-08
1.09119e-08
1.07789e-08
1.07486e-08
1.08748e-08
1.11812e-08
1.16662e-08
1.23082e-08
1.3068e-08
1.38971e-08
1.47633e-08
1.56295e-08
1.6465e-08
1.72502e-08
1.79799e-08
1.86628e-08
1.93206e-08
1.99835e-08
2.06864e-08
2.14608e-08
2.23307e-08
2.33028e-08
2.4418e-08
2.60603e-08
2.9129e-08
1.63316e-09
4.78609e-09
5.61665e-09
5.85115e-09
5.87325e-09
5.38594e-09
5.17955e-09
5.49849e-09
5.66168e-09
5.78378e-09
5.94632e-09
6.19762e-09
6.55356e-09
7.01608e-09
7.5839e-09
8.25045e-09
9.00038e-09
9.80825e-09
1.06343e-08
1.14354e-08
1.21553e-08
1.2738e-08
1.31382e-08
1.33314e-08
1.33272e-08
1.31834e-08
1.30078e-08
1.28835e-08
1.28752e-08
1.30383e-08
1.33955e-08
1.39416e-08
1.46511e-08
1.54803e-08
1.63731e-08
1.72942e-08
1.82086e-08
1.90844e-08
1.99024e-08
2.0658e-08
2.13609e-08
2.20338e-08
2.27079e-08
2.34183e-08
2.41963e-08
2.50648e-08
2.60281e-08
2.71251e-08
2.87483e-08
3.17798e-08
0
4.38489e-09
6.70863e-09
7.55716e-09
7.75031e-09
7.36954e-09
6.7388e-09
7.02378e-09
7.36589e-09
7.5651e-09
7.74789e-09
7.9918e-09
8.34967e-09
8.84204e-09
9.46319e-09
1.01954e-08
1.10161e-08
1.18963e-08
1.2792e-08
1.36547e-08
1.44259e-08
1.50438e-08
1.5461e-08
1.56543e-08
1.56367e-08
1.54762e-08
1.52971e-08
1.51836e-08
1.51969e-08
1.53943e-08
1.57972e-08
1.63973e-08
1.71652e-08
1.80533e-08
1.89984e-08
1.99606e-08
2.09094e-08
2.18125e-08
2.26511e-08
2.34214e-08
2.4134e-08
2.48122e-08
2.54878e-08
2.61955e-08
2.6966e-08
2.782e-08
2.87573e-08
2.98081e-08
3.1349e-08
3.41489e-08
0
3.59422e-09
6.69152e-09
8.60228e-09
9.2452e-09
9.19825e-09
8.52375e-09
8.45662e-09
9.1235e-09
9.4605e-09
9.71395e-09
1.00063e-08
1.03991e-08
1.09274e-08
1.15962e-08
1.23857e-08
1.32664e-08
1.42057e-08
1.51575e-08
1.6068e-08
1.68775e-08
1.75211e-08
1.79498e-08
1.81405e-08
1.81099e-08
1.79369e-08
1.77636e-08
1.7665e-08
1.77005e-08
1.79294e-08
1.8372e-08
1.90173e-08
1.98323e-08
2.07661e-08
2.17495e-08
2.27364e-08
2.37034e-08
2.46189e-08
2.54646e-08
2.62374e-08
2.69488e-08
2.76224e-08
2.82895e-08
2.8984e-08
2.97349e-08
3.05591e-08
3.14474e-08
3.2407e-08
3.37392e-08
3.60158e-08
0
2.83361e-09
6.05897e-09
8.80444e-09
1.02117e-08
1.06196e-08
1.02822e-08
9.84732e-09
1.06455e-08
1.13588e-08
1.17576e-08
1.21302e-08
1.25929e-08
1.31824e-08
1.39005e-08
1.47325e-08
1.56533e-08
1.66301e-08
1.76168e-08
1.85554e-08
1.93869e-08
2.00449e-08
2.04796e-08
2.06677e-08
2.06298e-08
2.0457e-08
2.03091e-08
2.0234e-08
2.02952e-08
2.05538e-08
2.10296e-08
2.17093e-08
2.25576e-08
2.35212e-08
2.45254e-08
2.55171e-08
2.64834e-08
2.73942e-08
2.82323e-08
2.89952e-08
2.96944e-08
3.03532e-08
3.10017e-08
3.16716e-08
3.23885e-08
3.31608e-08
3.39561e-08
3.47125e-08
3.54436e-08
3.70953e-08
0
2.19513e-09
5.19822e-09
8.16148e-09
1.04243e-08
1.13977e-08
1.15037e-08
1.10895e-08
1.14075e-08
1.26525e-08
1.33731e-08
1.39174e-08
1.44834e-08
1.51443e-08
1.59105e-08
1.67703e-08
1.77039e-08
1.86846e-08
1.96729e-08
2.06115e-08
2.14433e-08
2.21035e-08
2.25434e-08
2.27392e-08
2.27168e-08
2.2583e-08
2.25002e-08
2.24688e-08
2.25681e-08
2.28589e-08
2.33612e-08
2.40613e-08
2.49231e-08
2.58936e-08
2.68938e-08
2.78636e-08
2.88049e-08
2.96906e-08
3.05046e-08
3.12446e-08
3.19212e-08
3.25558e-08
3.31756e-08
3.38082e-08
3.44716e-08
3.51537e-08
3.57623e-08
3.59954e-08
3.59081e-08
3.72697e-08
0
0
0
1.17373e-12
1.9544e-12
3.70885e-12
4.2305e-12
4.46176e-12
3.96634e-12
3.4586e-12
3.2214e-12
3.56866e-12
4.01724e-12
4.09828e-12
2.98072e-12
2.8379e-13
0
0
0
0
1.14192e-12
6.1414e-12
9.91105e-12
1.16738e-11
1.04465e-11
1.77122e-12
0
0
0
0
0
0
0
3.44228e-11
3.90463e-10
5.59912e-10
3.71603e-10
9.97247e-11
4.90456e-10
1.47387e-09
2.16769e-09
2.155e-09
1.66365e-09
9.98913e-10
4.8576e-10
1.68326e-10
0
0
0
0
0
0
0
0
0
0
0
0
0
0
1.2432e-11
2.26154e-09
2.99684e-09
0
0
0
0
5.23661e-08
6.34029e-08
4.16679e-08
2.16042e-08
8.26383e-09
0
0
0
0
0
0
0
0
9.86678e-10
0
0
0
0
0
0
0
0
0
0
2.73353e-08
5.2887e-08
0
0
0
5.74533e-09
3.04665e-08
1.99489e-08
2.6502e-08
0
0
0
0
0
1.38871e-12
1.76335e-12
2.04618e-12
1.92584e-12
2.00363e-12
2.4288e-12
3.37194e-12
4.33776e-12
4.90248e-12
4.30904e-12
2.30195e-12
0
0
0
0
0
0
0
0
0
0
0
0
0
0
0
0
0
1.91809e-11
2.37447e-10
3.15189e-10
1.83312e-10
1.4421e-10
6.85883e-10
1.61145e-09
2.1907e-09
2.11627e-09
1.59768e-09
9.24574e-10
4.37022e-10
1.491e-10
1.46755e-12
0
0
0
0
0
0
0
0
0
0
0
0
0
0
1.89024e-09
2.49877e-09
0
0
0
0
4.7381e-08
5.55292e-08
3.5077e-08
1.77057e-08
7.10512e-09
0
0
0
0
0
0
0
0
9.68426e-10
4.87808e-10
0
0
0
0
0
0
0
0
0
1.34314e-08
1.22103e-07
0
0
0
7.00046e-09
2.83967e-08
1.10542e-08
2.25089e-08
0
0
0
0
0
0
0
0
0
2.64249e-13
1.14219e-12
2.59635e-12
4.1367e-12
5.29365e-12
5.26537e-12
3.85256e-12
1.45532e-12
0
0
0
0
0
0
0
0
0
0
0
0
0
0
0
0
1.11342e-11
1.26549e-10
1.48276e-10
8.09777e-11
2.04696e-10
8.40676e-10
1.72524e-09
2.22499e-09
2.11061e-09
1.55451e-09
8.68057e-10
3.94529e-10
1.35239e-10
1.57956e-11
0
0
3.35105e-11
0
0
0
0
0
0
0
0
0
0
0
1.49143e-09
2.04665e-09
0
0
0
0
4.26373e-08
4.81213e-08
2.85333e-08
1.35112e-08
5.6685e-09
0
0
0
0
0
0
0
0
7.72421e-10
1.03681e-09
0
0
0
0
0
0
0
0
0
9.89924e-10
1.04184e-07
0
0
0
8.17923e-09
2.71224e-08
1.15623e-08
2.45271e-08
0
0
0
0
0
0
0
0
0
0
0
1.58374e-12
3.51815e-12
5.12538e-12
5.63229e-12
4.7735e-12
2.76031e-12
3.81374e-13
0
0
0
0
0
0
0
0
0
8.71681e-12
2.12699e-11
1.65519e-11
0
0
0
9.87869e-12
5.15582e-11
4.21077e-11
3.0998e-11
2.67693e-10
9.65126e-10
1.81783e-09
2.25829e-09
2.11512e-09
1.51658e-09
8.13781e-10
3.48202e-10
1.16248e-10
3.17143e-11
2.18188e-11
4.44142e-11
9.76871e-11
1.88969e-10
0
0
0
0
0
0
0
0
0
0
1.04611e-09
1.61004e-09
0
0
0
4.37978e-09
3.75627e-08
4.05465e-08
2.18134e-08
8.97882e-09
3.90023e-09
0
0
0
0
0
0
0
0
3.51475e-10
1.49157e-09
0
0
0
0
0
0
0
0
0
0
6.10492e-08
0
0
0
9.40745e-09
2.59094e-08
1.3399e-08
2.65244e-08
2.22797e-12
2.08101e-12
0
0
0
0
0
0
0
0
0
7.73099e-13
2.8296e-12
4.58584e-12
5.41702e-12
4.93708e-12
3.28961e-12
1.17753e-12
0
0
0
0
0
0
0
0
0
1.74581e-11
4.34197e-11
5.90715e-11
5.77881e-11
3.89038e-11
2.06436e-11
1.48217e-11
5.96931e-12
0
1.22114e-11
3.27548e-10
1.06408e-09
1.88714e-09
2.27835e-09
2.10722e-09
1.46857e-09
7.55936e-10
2.98505e-10
8.8977e-11
4.1461e-11
6.73186e-11
1.08262e-10
1.78081e-10
3.32192e-10
3.33621e-10
0
0
0
0
0
0
0
0
0
5.56379e-10
1.19843e-09
0
0
0
8.42011e-09
3.2012e-08
3.25629e-08
1.49027e-08
4.2415e-09
1.84425e-09
0
0
0
0
0
0
0
0
0
1.78984e-09
0
0
0
0
0
0
0
0
0
0
3.03905e-08
0
0
0
1.04988e-08
2.47971e-08
1.48573e-08
2.44806e-08
5.2853e-12
6.70714e-12
0
0
0
0
0
0
0
0
0
4.84482e-13
2.45044e-12
4.08893e-12
4.89909e-12
4.46295e-12
2.98561e-12
1.11155e-12
0
0
0
0
0
0
0
0
1.19718e-12
2.53716e-11
5.80004e-11
8.54136e-11
9.94494e-11
8.95971e-11
6.11238e-11
2.46909e-11
0
0
1.32115e-11
3.83052e-10
1.14075e-09
1.92966e-09
2.27297e-09
2.06952e-09
1.39889e-09
6.93934e-10
2.51217e-10
6.02328e-11
4.32288e-11
1.12405e-10
1.78425e-10
2.71852e-10
4.72924e-10
7.12247e-10
9.3581e-11
0
0
0
0
0
0
0
0
2.91974e-11
8.10093e-10
0
0
2.93468e-09
1.21943e-08
2.59876e-08
2.38906e-08
7.69708e-09
0
0
0
0
0
0
0
0
0
0
0
1.87673e-09
5.285e-10
0
0
0
0
0
0
0
0
0
1.15173e-08
0
0
0
1.14263e-08
2.37525e-08
1.59237e-08
2.22994e-08
5.52868e-12
1.0039e-11
0
0
0
0
0
0