/*--------------------------------*- C++ -*----------------------------------*\
  =========                 |
  \\      /  F ield         | OpenFOAM: The Open Source CFD Toolbox
   \\    /   O peration     | Website:  https://openfoam.org
    \\  /    A nd           | Version:  7
     \\/     M anipulation  |
\*---------------------------------------------------------------------------*/
FoamFile
{
    version     2.0;
    format      ascii;
    class       volScalarField;
    location    "0.09";
    object      p;
}
// * * * * * * * * * * * * * * * * * * * * * * * * * * * * * * * * * * * * * //

dimensions      [0 2 -2 0 0 0 0];

internalField   nonuniform List<scalar> 
70000
(
0.0972201
0.0203296
0.00718157
0.00963024
0.00988572
0.00883112
0.00786126
0.00711762
0.00649144
0.0059329
0.00542821
0.00496949
0.00454927
0.00416098
0.00379922
0.00345962
0.00313861
0.00283324
0.00254105
0.00225996
0.00198816
0.0017241
0.00146637
0.00121374
0.000965034
0.000719183
0.000475143
0.000231899
-1.15599e-05
-0.000256296
-0.000503359
-0.000753979
-0.00100933
-0.00127094
-0.00154019
-0.00181911
-0.00210944
-0.0024138
-0.00273482
-0.00307529
-0.00344062
-0.00383113
-0.00426124
-0.00471929
-0.00524749
-0.00579251
-0.0064787
-0.00712236
-0.00808686
-0.0088425
0.0929199
0.0206916
0.00738414
0.00972484
0.00994012
0.00886688
0.00788917
0.0071407
0.00651083
0.00594948
0.00544266
0.00498227
0.00456071
0.00417131
0.00380862
0.00346824
0.00314656
0.00284061
0.00254792
0.00226639
0.0019942
0.00172979
0.00147176
0.00121885
0.000969895
0.000723819
0.000479576
0.000236147
-7.47965e-06
-0.000252369
-0.000499572
-0.000750321
-0.00100578
-0.0012675
-0.00153686
-0.00181587
-0.00210629
-0.00241073
-0.00273185
-0.00307239
-0.00343782
-0.00382842
-0.00425867
-0.00471682
-0.00524526
-0.00579047
-0.00647689
-0.00712223
-0.00808255
-0.0087963
0.0893146
0.021614
0.00772873
0.00985348
0.0100148
0.0089119
0.00792156
0.00716694
0.00653271
0.00596802
0.00545867
0.00499634
0.00457323
0.00418258
0.00381886
0.00347761
0.00315518
0.0028486
0.00255536
0.00227335
0.00200074
0.00173595
0.00147758
0.00122437
0.000975152
0.000728836
0.000484377
0.000240753
-3.04893e-06
-0.000248096
-0.000495442
-0.000746319
-0.0010019
-0.00126372
-0.00153316
-0.00181225
-0.00210274
-0.00240723
-0.00272839
-0.00306896
-0.00343443
-0.00382501
-0.00425532
-0.00471338
-0.00524194
-0.005787
-0.00647343
-0.00712006
-0.00806098
-0.00874328
0.08621
0.0227132
0.0082052
0.0100261
0.010116
0.00896988
0.0079598
0.0071969
0.00655737
0.0059886
0.00547619
0.00501156
0.00458667
0.0041946
0.00382972
0.00348749
0.00316426
0.00285698
0.00256314
0.00228061
0.00200754
0.00174236
0.00148363
0.00123011
0.000980609
0.000734043
0.00048936
0.000245537
1.55645e-06
-0.000243649
-0.000491134
-0.000742132
-0.000997813
-0.00125972
-0.00152923
-0.00180837
-0.00209889
-0.00240339
-0.00272454
-0.00306506
-0.00343046
-0.00382091
-0.00425107
-0.00470889
-0.00523712
-0.00578192
-0.00646677
-0.00711572
-0.00802316
-0.00868112
0.0832538
0.0238071
0.00877877
0.0102443
0.0102506
0.00904831
0.00800883
0.0072339
0.00658737
0.00601325
0.00549682
0.00502922
0.00460209
0.00420825
0.00384194
0.00349854
0.00317433
0.00286623
0.00257169
0.00228855
0.00201496
0.00174931
0.00149019
0.00123631
0.000986493
0.000739648
0.000494717
0.000250673
6.49948e-06
-0.000238875
-0.000486506
-0.000737627
-0.000993409
-0.00125539
-0.00152496
-0.00180412
-0.00209463
-0.00239909
-0.00272015
-0.00306053
-0.00342573
-0.0038159
-0.00424565
-0.004703
-0.00523029
-0.00577468
-0.00645569
-0.00710692
-0.00797044
-0.00860176
0.0803467
0.0248393
0.00940274
0.0104888
0.0104127
0.00914879
0.00807134
0.00728017
0.00662466
0.00604371
0.00552206
0.0050506
0.00462056
0.00422445
0.00385633
0.00351146
0.00318602
0.0028769
0.00258149
0.00229761
0.00202338
0.00175718
0.00149757
0.00124326
0.000993066
0.000745888
0.000500664
0.000256363
1.19633e-05
-0.000233606
-0.000481403
-0.00073266
-0.000988549
-0.00125061
-0.00152021
-0.00179937
-0.00208984
-0.00239419
-0.0027151
-0.00305523
-0.00342007
-0.00380977
-0.00423879
-0.00469536
-0.00522093
-0.00576458
-0.00643904
-0.00709159
-0.0079038
-0.00850278
0.0774814
0.0257927
0.0100437
0.0107384
0.0105891
0.00926661
0.00814625
0.00733565
0.00666963
0.00608061
0.00555264
0.00507644
0.0046428
0.00424389
0.00387351
0.0035268
0.00319985
0.00288946
0.00259297
0.00230817
0.00203315
0.00176627
0.00150606
0.00125123
0.00100058
0.000752994
0.000507413
0.000262798
1.81248e-05
-0.00022768
-0.000475676
-0.000727093
-0.000983107
-0.00124524
-0.00151489
-0.00179402
-0.00208442
-0.0023886
-0.00270926
-0.00304901
-0.00341332
-0.00380229
-0.00423021
-0.0046856
-0.00520849
-0.00575089
-0.00641577
-0.0070674
-0.00782387
-0.00838447
0.0746671
0.0266607
0.0106856
0.0109812
0.0107688
0.00939522
0.00823018
0.00739831
0.0067211
0.00612338
0.00558836
0.00510677
0.004669
0.00426682
0.00389379
0.00354491
0.00321615
0.00290423
0.00260646
0.00232056
0.00204458
0.00177687
0.00151594
0.00126047
0.00100926
0.000761184
0.000515168
0.00027017
2.51627e-05
-0.00022093
-0.000469169
-0.000720782
-0.000976946
-0.00123917
-0.00150886
-0.00178795
-0.00207824
-0.00238219
-0.00270252
-0.00304173
-0.00340531
-0.00379328
-0.00421964
-0.00467337
-0.00519247
-0.00573283
-0.00638497
-0.00703229
-0.0077313
-0.00824819
0.0719103
0.0274409
0.0113229
0.0112136
0.0109457
0.00952973
0.00831982
0.00746558
0.00677707
0.00617058
0.00562826
0.00514095
0.00469873
0.00429299
0.00391706
0.00356576
0.00323496
0.00292133
0.00262208
0.0023349
0.00205783
0.00178915
0.00152737
0.00127116
0.00101929
0.00077063
0.000524096
0.000278641
3.32328e-05
-0.000213206
-0.00046174
-0.000713589
-0.000969936
-0.00123228
-0.00150201
-0.00178105
-0.00207119
-0.00237484
-0.00269474
-0.00303325
-0.00339587
-0.00378252
-0.00420682
-0.00465835
-0.00517241
-0.00570964
-0.006346
-0.00698472
-0.00762687
-0.00809595
0.0692145
0.0281325
0.0119541
0.0114353
0.0111169
0.00966736
0.00841309
0.00753551
0.00683576
0.0062207
0.00567109
0.00517797
0.00473121
0.0043218
0.00394284
0.00358899
0.00325604
0.00294055
0.00263971
0.00235115
0.00207286
0.00180312
0.0015404
0.00128335
0.00103073
0.000781406
0.00053428
0.000288301
4.24301e-05
-0.00020441
-0.000453286
-0.000705413
-0.000961973
-0.00122444
-0.00149423
-0.0017732
-0.00206317
-0.00236644
-0.00268579
-0.00302344
-0.00338486
-0.00376985
-0.00419152
-0.00464025
-0.00514796
-0.00568071
-0.00629855
-0.0069238
-0.00751164
-0.0079303
0.0665828
0.0287357
0.0125784
0.0116473
0.011281
0.00980662
0.00850901
0.00760704
0.00689599
0.00627261
0.00571581
0.00521692
0.0047656
0.00435253
0.00397051
0.00361409
0.00327893
0.00296154
0.00265905
0.00236904
0.00208948
0.00181861
0.00155489
0.00129694
0.00104352
0.000793474
0.000545703
0.000299147
5.27657e-05
-0.000194519
-0.000443777
-0.000696212
-0.00095301
-0.00121562
-0.00148546
-0.00176434
-0.0020541
-0.00235691
-0.00267561
-0.00301221
-0.00337215
-0.00375516
-0.00417359
-0.00461887
-0.00511896
-0.0056456
-0.00624268
-0.00684954
-0.007387
-0.00775561
0.0640183
0.0292511
0.0131941
0.0118508
0.011437
0.00994659
0.00860718
0.00767969
0.00695715
0.00632567
0.00576177
0.00525713
0.00480129
0.00438457
0.00399952
0.00364053
0.00330317
0.00298388
0.00267972
0.00238826
0.0021074
0.00183538
0.00157062
0.00131175
0.0010575
0.000806698
0.00055825
0.000311088
6.41671e-05
-0.000183589
-0.00043325
-0.000686011
-0.000943059
-0.00120581
-0.0014757
-0.00175445
-0.00204394
-0.00234623
-0.00266413
-0.00299952
-0.0033577
-0.00373838
-0.00415299
-0.00459414
-0.00508541
-0.00560416
-0.00617883
-0.00676285
-0.00725443
-0.00757515
0.0615237
0.0296793
0.0137989
0.0120473
0.0115844
0.0100864
0.00870747
0.00775332
0.00701896
0.00637955
0.00580865
0.00529825
0.00483789
0.00441754
0.00402948
0.00366793
0.00332838
0.0030072
0.00270139
0.00240847
0.00212632
0.00185315
0.00158736
0.00132755
0.00107245
0.000820892
0.000571756
0.000323977
7.65065e-05
-0.000171729
-0.000421801
-0.00067489
-0.000932183
-0.00119507
-0.00146497
-0.00174357
-0.00203273
-0.00233439
-0.00265137
-0.00298536
-0.0033415
-0.00371952
-0.00412974
-0.00456607
-0.0050475
-0.00555654
-0.00610777
-0.00666537
-0.00711558
-0.00739238
0.0591017
0.0300212
0.0143902
0.0122381
0.0117226
0.0102253
0.00880976
0.00782791
0.00708127
0.00643409
0.00585629
0.00534012
0.00487522
0.00445123
0.00406016
0.00369606
0.00335433
0.00303126
0.00272381
0.00242944
0.00214601
0.00187168
0.00160486
0.00134413
0.00108819
0.000835872
0.000586051
0.000337657
8.96396e-05
-0.000159071
-0.000409546
-0.000662952
-0.000920474
-0.00118347
-0.00145335
-0.00173175
-0.0020205
-0.00232145
-0.00263735
-0.0029698
-0.00332361
-0.00369865
-0.00410397
-0.00453478
-0.00500556
-0.00550317
-0.00603052
-0.0065592
-0.00697231
-0.0072103
0.0567545
0.0302781
0.0149649
0.0124249
0.0118514
0.0103623
0.00891389
0.00790348
0.00714401
0.00648923
0.00590461
0.00538266
0.00491319
0.00448555
0.00409146
0.00372481
0.00338089
0.00305593
0.00274683
0.00245102
0.00216631
0.00189084
0.001623
0.00136134
0.00110457
0.000851494
0.000600995
0.000351995
0.000103441
-0.000145733
-0.000396595
-0.000650299
-0.000908025
-0.00117109
-0.00144092
-0.00171905
-0.00200732
-0.00230746
-0.00262215
-0.00295287
-0.0033041
-0.00367586
-0.00407584
-0.00450047
-0.00496
-0.00544467
-0.00594816
-0.00644659
-0.00682644
-0.00703122
0.0544842
0.030452
0.0155196
0.0126091
0.0119705
0.0104965
0.00901963
0.00798005
0.00720713
0.00654486
0.00595359
0.00542584
0.00495176
0.00452045
0.00412332
0.00375411
0.003408
0.00308115
0.00277039
0.00247313
0.00218713
0.00191053
0.00164166
0.00137908
0.00112148
0.000867664
0.000616495
0.000366899
0.000117821
-0.0001318
-0.000383031
-0.000637009
-0.000894907
-0.00115801
-0.00142773
-0.00170554
-0.00199325
-0.00229248
-0.00260582
-0.00293466
-0.00328306
-0.00365124
-0.00404552
-0.00446337
-0.00491122
-0.00538173
-0.00586176
-0.00632966
-0.00667965
-0.00685669
0.0522923
0.0305448
0.0160514
0.012792
0.01208
0.0106267
0.00912669
0.00805765
0.00727055
0.00660093
0.00600318
0.00546964
0.00499092
0.00455591
0.00415574
0.00378395
0.00343563
0.00310687
0.00279446
0.00249574
0.00220846
0.0019307
0.00166081
0.00139731
0.00113889
0.000884332
0.000632501
0.000382318
0.000132729
-0.000117323
-0.000368901
-0.000623127
-0.000881166
-0.00114427
-0.00141382
-0.00169125
-0.00197831
-0.00227654
-0.00258839
-0.00291519
-0.00326056
-0.00362489
-0.00401316
-0.00442368
-0.0048596
-0.00531504
-0.00577225
-0.0062102
-0.00653325
-0.00668758
0.0501802
0.0305594
0.0165572
0.0129747
0.0121801
0.010752
0.00923469
0.0081363
0.00733422
0.00665734
0.00605333
0.00551406
0.00503065
0.00459193
0.0041887
0.00381432
0.00346378
0.00313311
0.00281902
0.00251884
0.00223026
0.00195136
0.00168044
0.00141602
0.00115677
0.000901478
0.000648991
0.000398232
0.000148145
-0.000102322
-0.000354226
-0.000608674
-0.000866819
-0.00112988
-0.00139922
-0.0016762
-0.00196253
-0.00225966
-0.00256989
-0.00289449
-0.00323664
-0.00359685
-0.00397887
-0.00438157
-0.00480543
-0.00524519
-0.00568034
-0.00608956
-0.00638822
-0.00652413
0.0481484
0.030499
0.0170338
0.013158
0.0122712
0.0108715
0.00934315
0.00821601
0.00739812
0.00671401
0.006104
0.00555905
0.00507095
0.00462849
0.0042222
0.00384522
0.00349245
0.00315985
0.00284409
0.00254243
0.00225255
0.00197249
0.00170054
0.0014352
0.00117513
0.000919103
0.000665966
0.000414639
0.000164066
-8.67976e-05
-0.000339007
-0.000593648
-0.000851864
-0.00111484
-0.00138391
-0.00166038
-0.00194589
-0.00224183
-0.00255031
-0.00287256
-0.0032113
-0.00356715
-0.00394271
-0.00433719
-0.00474892
-0.00517268
-0.00558661
-0.00596869
-0.00624516
-0.00636619
0.0461975
0.0303671
0.0174783
0.0133424
0.0123539
0.0109842
0.00945151
0.00829674
0.00746221
0.00677083
0.00615511
0.0056046
0.0051118
0.00466559
0.00425623
0.00387665
0.00352165
0.0031871
0.00286965
0.00256651
0.00227533
0.00199411
0.00172113
0.00145487
0.00119398
0.000937216
0.000683436
0.00043155
0.000180505
-7.0739e-05
-0.000323229
-0.000578037
-0.000836286
-0.00109913
-0.00136787
-0.00164377
-0.00192837
-0.00222302
-0.00252962
-0.00284939
-0.00318455
-0.00353579
-0.00390473
-0.00429063
-0.00469022
-0.00509788
-0.00549145
-0.00584818
-0.00610439
-0.00621335
0.0443272
0.0301681
0.017888
0.0135278
0.0124287
0.0110893
0.00955912
0.00837844
0.00752648
0.00682771
0.0062066
0.00565067
0.00515317
0.00470321
0.00429078
0.00390861
0.00355136
0.00321487
0.00289573
0.0025911
0.0022986
0.00201622
0.00174221
0.00147503
0.00121332
0.000955829
0.000701413
0.00044898
0.000197477
-5.41279e-05
-0.000306875
-0.000561818
-0.000820063
-0.00108273
-0.00135109
-0.00162634
-0.00190996
-0.0022032
-0.00250781
-0.00282492
-0.00315636
-0.00350276
-0.00386492
-0.00424196
-0.00462945
-0.00502109
-0.00539514
-0.00572838
-0.00596607
-0.00606514
0.0425372
0.0299064
0.0182602
0.0137139
0.0124967
0.0111863
0.00966524
0.008461
0.00759092
0.00688456
0.00625837
0.00569723
0.00519505
0.00474133
0.00432585
0.00394107
0.00358159
0.00324316
0.00292232
0.0026162
0.00232239
0.00203884
0.00176379
0.00149569
0.00123316
0.000974959
0.000719916
0.000466947
0.000215003
-3.69428e-05
-0.000289921
-0.000544967
-0.000803167
-0.00106562
-0.00133352
-0.00160805
-0.00189059
-0.00218234
-0.00248483
-0.00279914
-0.0031267
-0.00346804
-0.00382327
-0.00419125
-0.00456668
-0.00494254
-0.0052979
-0.00560948
-0.00583022
-0.00592108
0.0408265
0.029587
0.0185925
0.0139002
0.0125587
0.0112745
0.00976908
0.00854423
0.00765553
0.00694129
0.00631033
0.00574421
0.00523742
0.00477994
0.0043614
0.00397405
0.00361233
0.00327196
0.00294942
0.00264181
0.00234669
0.00206198
0.00178589
0.00151688
0.00125354
0.000994621
0.000738961
0.000485472
0.000233104
-1.91606e-05
-0.000272341
-0.000527456
-0.000785569
-0.00104774
-0.00131514
-0.00158888
-0.00187025
-0.00216039
-0.00246065
-0.002772
-0.00309552
-0.00343162
-0.00377979
-0.00413853
-0.00450198
-0.0048624
-0.00519991
-0.00549155
-0.0056968
-0.00578074
0.0391938
0.029215
0.0188831
0.0140854
0.0126158
0.0113538
0.00986977
0.0086279
0.00772032
0.00699781
0.00636238
0.00579157
0.00528024
0.00481901
0.00439744
0.00400753
0.00364359
0.00330128
0.00297704
0.00266795
0.00237151
0.00208564
0.00180852
0.0015386
0.00127445
0.00101483
0.000758569
0.000504573
0.000251802
-7.56843e-07
-0.000254109
-0.000509257
-0.000767238
-0.00102908
-0.00129591
-0.00156878
-0.00184889
-0.00213731
-0.00243521
-0.00274345
-0.00306281
-0.00339346
-0.00373446
-0.00408386
-0.00443543
-0.00478083
-0.00510132
-0.00537465
-0.00556575
-0.0056438
0.0376376
0.0287961
0.0191301
0.0142681
0.012669
0.0114239
0.00996646
0.00871167
0.00778529
0.00705406
0.0064144
0.00583923
0.00532348
0.00485853
0.00443394
0.0040415
0.00367535
0.00333111
0.00300519
0.00269461
0.00239686
0.00210983
0.00183169
0.00156086
0.00129592
0.00103561
0.000778758
0.000524274
0.000271119
1.82936e-05
-0.000235199
-0.00049034
-0.000748141
-0.0010096
-0.00127578
-0.00154771
-0.00182647
-0.00211306
-0.00240847
-0.00271347
-0.00302851
-0.00335357
-0.00368729
-0.00402728
-0.00436712
-0.00469796
-0.00500227
-0.00525877
-0.00543701
-0.00550999
0.036156
0.0283357
0.0193325
0.0144464
0.0127193
0.0114851
0.0100583
0.00879515
0.00785042
0.00710998
0.00646627
0.00588711
0.0053671
0.00489846
0.00447089
0.00407593
0.00370761
0.00336145
0.00303385
0.0027218
0.00242275
0.00213457
0.00185542
0.00158369
0.00131797
0.00105698
0.000799547
0.000544594
0.000291081
3.80167e-05
-0.000215581
-0.000470674
-0.000728246
-0.000989262
-0.00125473
-0.00152563
-0.00180295
-0.00208759
-0.00238041
-0.002682
-0.0029926
-0.00331191
-0.00363826
-0.00396885
-0.00429711
-0.00461392
-0.00490288
-0.00514394
-0.00531051
-0.0053791
0.0347465
0.0278396
0.0194893
0.0146183
0.0127675
0.0115375
0.0101444
0.00887783
0.00791568
0.00716552
0.00651789
0.00593513
0.00541106
0.00493878
0.00450825
0.00411082
0.00374035
0.0033923
0.00306304
0.00274952
0.00244918
0.00215986
0.0018797
0.00160709
0.00134059
0.00107894
0.000820957
0.000565556
0.000311711
5.84389e-05
-0.000195227
-0.000450228
-0.000707519
-0.00096803
-0.00123272
-0.0015025
-0.00177828
-0.00206087
-0.00235096
-0.00264903
-0.00295505
-0.00326849
-0.0035874
-0.00390861
-0.0042255
-0.00452883
-0.00480327
-0.00503015
-0.00518618
-0.00525099
0.0334069
0.0273135
0.0196003
0.0147812
0.0128145
0.0115817
0.010224
0.00895914
0.00798097
0.00722066
0.00656913
0.00598317
0.00545529
0.00497945
0.004546
0.00414615
0.00377356
0.00342365
0.00309274
0.00277777
0.00247616
0.00218571
0.00190456
0.00163107
0.00136383
0.00110153
0.000843007
0.000587183
0.000333034
7.95874e-05
-0.000174107
-0.00042897
-0.000685925
-0.000945867
-0.0012097
-0.00147827
-0.00175242
-0.00203284
-0.0023201
-0.00261451
-0.00291583
-0.0032233
-0.00353472
-0.00384662
-0.00415238
-0.00444279
-0.00470354
-0.00491743
-0.00506395
-0.00512553
0.0321344
0.026763
0.0196658
0.0149325
0.0128607
0.0116182
0.0102966
0.00903845
0.00804616
0.00727537
0.00661988
0.00603111
0.00549974
0.00502044
0.00458411
0.00418188
0.00380723
0.00345549
0.00312296
0.00280656
0.00250369
0.00221213
0.00193
0.00165566
0.00138767
0.00112475
0.000865717
0.000609497
0.000355075
0.00010149
-0.000152191
-0.000406868
-0.00066343
-0.000922736
-0.00118564
-0.00145292
-0.00172533
-0.00200348
-0.00228779
-0.00257841
-0.00287493
-0.00317634
-0.00348026
-0.00378294
-0.00407785
-0.0043559
-0.0046038
-0.00480577
-0.00494377
-0.00500262
0.0309261
0.0261934
0.0196866
0.0150698
0.0129065
0.0116479
0.0103617
0.00911506
0.00811106
0.00732962
0.00667006
0.00607885
0.00554431
0.0050617
0.00462255
0.004218
0.00384134
0.00348781
0.00315369
0.00283588
0.00253177
0.00223912
0.00195603
0.00168086
0.00141215
0.00114863
0.000889109
0.000632522
0.00037786
0.000124174
-0.000129449
-0.000383887
-0.000639997
-0.000898601
-0.00116049
-0.0014264
-0.00169698
-0.00197275
-0.00225399
-0.00254071
-0.00283233
-0.00312762
-0.00342403
-0.00371764
-0.004002
-0.00426827
-0.00450413
-0.0046952
-0.00482558
-0.0048822
0.0297791
0.0256097
0.019664
0.0151905
0.0129516
0.0116715
0.0104188
0.00918827
0.00817539
0.0073834
0.00671956
0.00612625
0.00558893
0.00510318
0.00466129
0.00425447
0.00387586
0.00352059
0.00318491
0.00286573
0.00256041
0.00226669
0.00198266
0.00170668
0.00143728
0.00117318
0.000913202
0.000656279
0.000401413
0.000147669
-0.00010585
-0.000359995
-0.000615592
-0.000873422
-0.00113422
-0.00139867
-0.00166732
-0.00194059
-0.00221867
-0.00250139
-0.00278802
-0.00307714
-0.00336607
-0.00365077
-0.00392492
-0.00418
-0.00440461
-0.00458573
-0.00470934
-0.0047642
0.0286905
0.0250166
0.0195999
0.0152926
0.0129956
0.0116897
0.010468
0.00925736
0.00823881
0.00743665
0.00676832
0.00617319
0.0056335
0.00514484
0.00470028
0.00429126
0.00391077
0.00355381
0.00321663
0.00289611
0.0025896
0.00229484
0.00200991
0.00173314
0.00146307
0.00119842
0.000938018
0.000680793
0.000425762
0.000172002
-8.1362e-05
-0.000335158
-0.000590179
-0.000847162
-0.0011068
-0.00136968
-0.00163631
-0.00190699
-0.00218179
-0.00246042
-0.00274199
-0.00302492
-0.00330643
-0.00358241
-0.00384669
-0.00409117
-0.00430532
-0.00447737
-0.004595
-0.00464857
0.027657
0.0244182
0.0194966
0.0153742
0.0130377
0.0117034
0.0105091
0.00932164
0.00830091
0.00748931
0.00681628
0.00621953
0.00567789
0.00518659
0.00473949
0.00432834
0.00394604
0.00358747
0.00324882
0.002927
0.00261934
0.00232358
0.00203777
0.00176024
0.00148954
0.00122437
0.000963575
0.000706087
0.000450932
0.000197204
-5.59539e-05
-0.000309343
-0.00056372
-0.000819784
-0.00107817
-0.00133941
-0.00160391
-0.00187191
-0.00214334
-0.00241779
-0.00269425
-0.00297099
-0.00324516
-0.00351262
-0.00376743
-0.00400188
-0.00420631
-0.00437014
-0.00448254
-0.00453524
0.0266756
0.0238183
0.0193569
0.0154338
0.0130768
0.0117132
0.0105425
0.0093805
0.0083612
0.00754126
0.00686337
0.00626516
0.005722
0.00522837
0.00477886
0.00436567
0.00398164
0.00362153
0.00328148
0.00295841
0.00264964
0.0023529
0.00206625
0.001788
0.0015167
0.00125105
0.000989895
0.000732184
0.00047695
0.000223302
-2.95943e-05
-0.000282515
-0.000536181
-0.00079125
-0.0010483
-0.00130781
-0.0015701
-0.00183532
-0.00210329
-0.00237349
-0.00264479
-0.00291536
-0.00318229
-0.00344148
-0.0036872
-0.00391222
-0.00410765
-0.00426405
-0.00437192
-0.00442418
0.0257434
0.0232202
0.0191838
0.0154701
0.0131115
0.0117195
0.0105684
0.00943341
0.00841918
0.00759236
0.00690957
0.00630995
0.00576569
0.00527008
0.00481835
0.00440321
0.00401754
0.00365596
0.00331459
0.00299031
0.00268048
0.00238282
0.00209536
0.00181642
0.00154456
0.00127847
0.001017
0.000759107
0.000503842
0.000250326
-2.25156e-06
-0.00025464
-0.000507526
-0.000761523
-0.00101716
-0.00127484
-0.00153484
-0.00179718
-0.00206162
-0.00232751
-0.00259364
-0.00285807
-0.00311789
-0.00336906
-0.00360611
-0.00382225
-0.0040094
-0.00415912
-0.0042631
-0.00431532
0.0248574
0.0226266
0.0189805
0.0154824
0.0131403
0.0117228
0.0105873
0.00947996
0.00847427
0.0076424
0.0069548
0.00635383
0.00580884
0.00531163
0.00485788
0.00444091
0.00405369
0.00369074
0.00334812
0.00302271
0.00271187
0.00241332
0.0021251
0.00184552
0.00157313
0.00130664
0.0010449
0.000786879
0.000531633
0.000278305
2.61056e-05
-0.000225685
-0.00047772
-0.000730568
-0.000984707
-0.00124049
-0.00149809
-0.00175748
-0.00201831
-0.00227985
-0.00254079
-0.00279915
-0.00305201
-0.00329544
-0.00352422
-0.00373206
-0.00391161
-0.00405534
-0.00415605
-0.00420862
0.0240148
0.02204
0.0187505
0.0154705
0.0131617
0.0117231
0.0105996
0.00951986
0.00852593
0.00769109
0.00699902
0.00639668
0.0058513
0.00535291
0.0048974
0.00447873
0.00409006
0.00372584
0.00338205
0.00305557
0.00274378
0.0024444
0.00215547
0.0018753
0.00160243
0.00133559
0.00107363
0.000815522
0.000560349
0.000307266
5.55081e-05
-0.000195618
-0.000446728
-0.00069835
-0.00095091
-0.0012047
-0.00145983
-0.00171619
-0.00197335
-0.0022305
-0.00248627
-0.00273863
-0.00298471
-0.00322068
-0.00344162
-0.00364172
-0.00381431
-0.00395273
-0.00405074
-0.00410401
0.0232128
0.0214623
0.0184971
0.0154343
0.0131742
0.0117203
0.010606
0.00955299
0.00857361
0.00773813
0.00704212
0.00643844
0.00589296
0.00539381
0.00493682
0.0045166
0.0041266
0.00376122
0.00341636
0.00308889
0.00277622
0.00247606
0.00218647
0.00190576
0.00163247
0.00136533
0.00110319
0.000845059
0.000590015
0.000337239
8.59864e-05
-0.000164405
-0.000414516
-0.000664834
-0.000915734
-0.00116745
-0.00142003
-0.00167329
-0.00192674
-0.00217948
-0.00243011
-0.00267657
-0.00291604
-0.00314485
-0.00335839
-0.00355128
-0.00371754
-0.00385129
-0.00394712
-0.00400144
0.0224488
0.0208949
0.0182238
0.0153743
0.0131763
0.0117142
0.0106069
0.00957931
0.00861681
0.00778315
0.00708399
0.00647902
0.00593368
0.00543419
0.00497607
0.00455448
0.00416327
0.00379683
0.00345101
0.00312265
0.00280916
0.0025083
0.00221811
0.00193692
0.00166326
0.00139586
0.00113361
0.00087551
0.000620656
0.000368249
0.00011757
-0.000132015
-0.000381053
-0.000629989
-0.00087915
-0.00112871
-0.00137867
-0.00162878
-0.00187847
-0.00212679
-0.00237231
-0.00261299
-0.00284606
-0.00306803
-0.00327459
-0.00346082
-0.00362134
-0.003751
-0.00384515
-0.00390084
0.0217205
0.0203392
0.0179337
0.0152913
0.0131668
0.0117043
0.0106027
0.00959893
0.00865509
0.00782574
0.00712448
0.00651836
0.00597337
0.00547394
0.00501503
0.0045923
0.00420001
0.00383265
0.00348597
0.00315681
0.0028426
0.0025411
0.00225038
0.00196876
0.00169479
0.00142721
0.00116491
0.000906896
0.000652296
0.000400325
0.000150289
-9.84178e-05
-0.000346306
-0.000593782
-0.000841126
-0.00108847
-0.00133573
-0.00158263
-0.00182853
-0.00207245
-0.00231293
-0.00254795
-0.00277484
-0.00299029
-0.0031903
-0.00337037
-0.00352573
-0.00365185
-0.00374478
-0.00380213
0.0210256
0.0197959
0.0176298
0.0151866
0.0131446
0.0116899
0.0105938
0.00961206
0.0086881
0.00786548
0.0071634
0.00655637
0.00601191
0.00551292
0.00505361
0.00462999
0.00423678
0.00386862
0.00352121
0.00319136
0.00287651
0.00257446
0.00228328
0.00200131
0.00172709
0.00145939
0.00119709
0.000939236
0.000684956
0.000433491
0.000184169
-6.35841e-05
-0.000310247
-0.000556186
-0.000801638
-0.00104668
-0.0012912
-0.00153484
-0.00177693
-0.00201647
-0.00225198
-0.00248149
-0.00270243
-0.00291169
-0.00310556
-0.00327999
-0.00343072
-0.00355382
-0.00364596
-0.00370522
0.0203619
0.0192658
0.0173151
0.0150615
0.013109
0.0116702
0.0105804
0.00961893
0.00871559
0.00790196
0.00720052
0.00659297
0.0060492
0.00555101
0.00509169
0.00466747
0.00427352
0.00390469
0.00355668
0.00322626
0.00291087
0.00260836
0.0023168
0.00203454
0.00176016
0.0014924
0.00123018
0.000972549
0.00071866
0.000467772
0.000219239
-2.7486e-05
-0.000272847
-0.000517174
-0.00076066
-0.00100334
-0.00124505
-0.0014854
-0.00172369
-0.00195887
-0.00218951
-0.00241366
-0.0026289
-0.00283229
-0.00302045
-0.00318971
-0.00333632
-0.00345689
-0.00354863
-0.00361003
0.0197276
0.0187491
0.0169919
0.0149176
0.0130597
0.0116446
0.0105625
0.00961984
0.00873739
0.00793478
0.00723558
0.00662805
0.00608516
0.00558809
0.00512917
0.00470464
0.00431016
0.00394082
0.00359235
0.00326148
0.00294567
0.00264278
0.00235093
0.00206847
0.00179399
0.00152625
0.00126419
0.00100685
0.000753428
0.000503192
0.000255523
9.90273e-06
-0.00023408
-0.00047672
-0.000718171
-0.000958428
-0.00119729
-0.00143432
-0.0016688
-0.00189968
-0.00212554
-0.00234451
-0.00255429
-0.00275215
-0.002935
-0.00309957
-0.00324254
-0.00336103
-0.00345271
-0.00351646
0.0191207
0.0182462
0.0166626
0.0147566
0.0129963
0.0116122
0.0105402
0.00961507
0.00875342
0.00796358
0.00726828
0.00666148
0.00611969
0.00562403
0.00516591
0.00474143
0.00434664
0.00397696
0.00362816
0.00329698
0.00298087
0.00267771
0.00238566
0.00210309
0.0018286
0.00156096
0.00129912
0.00104216
0.000789279
0.000539771
0.000293044
4.86063e-05
-0.000193923
-0.000434802
-0.000674152
-0.000911929
-0.0011479
-0.00138159
-0.00161228
-0.00183892
-0.00206012
-0.00227408
-0.00247866
-0.00267132
-0.00284927
-0.00300957
-0.00314936
-0.00326617
-0.00335812
-0.0034244
0.0185396
0.017757
0.0163292
0.0145803
0.012919
0.0115723
0.0105132
0.00960489
0.00876371
0.00798805
0.00729833
0.00669311
0.00615272
0.00565875
0.0052018
0.00477772
0.00438289
0.00401304
0.00366408
0.00333273
0.00301645
0.00271314
0.00242099
0.0021384
0.00186398
0.00159652
0.00133499
0.00107849
0.00082623
0.000577531
0.000331824
8.8647e-05
-0.000152352
-0.000391401
-0.000628586
-0.000863833
-0.00109688
-0.00132723
-0.00155416
-0.00177662
-0.00199328
-0.00220243
-0.00240206
-0.00258985
-0.00276327
-0.00291974
-0.00305677
-0.00317229
-0.00326478
-0.00333373
0.0179827
0.0172816
0.0159935
0.0143905
0.0128281
0.0115243
0.0104813
0.0095895
0.00876832
0.00800793
0.00732541
0.00672275
0.00618413
0.00569212
0.00523672
0.00481341
0.00441881
0.00404901
0.00370005
0.00336869
0.00305236
0.00274903
0.00245689
0.00217438
0.00190012
0.00163294
0.00137182
0.00111585
0.000864297
0.000616488
0.000371883
0.000130045
-0.000109351
-0.000346501
-0.000581462
-0.000814133
-0.00104423
-0.00127124
-0.00149444
-0.00171281
-0.00192507
-0.0021296
-0.00232454
-0.00250778
-0.00267705
-0.00283008
-0.00296474
-0.00307931
-0.0031726
-0.00324433
0.0174486
0.0168198
0.0156569
0.0141891
0.0127241
0.0114678
0.0104444
0.00956906
0.00876738
0.00802305
0.00734924
0.00675021
0.00621383
0.00572406
0.00527055
0.00484839
0.00445434
0.00408479
0.00373602
0.0034048
0.00308859
0.00278536
0.00249335
0.00221102
0.00193704
0.00167023
0.00140959
0.00115426
0.000903493
0.00065666
0.000413239
0.000172817
-6.49015e-05
-0.000300087
-0.00053277
-0.000762826
-0.00098995
-0.00121364
-0.00143315
-0.00164752
-0.00185552
-0.00205563
-0.00224615
-0.00242515
-0.00259062
-0.00274059
-0.00287323
-0.00298716
-0.00308146
-0.00315606
0.016936
0.0163713
0.0153209
0.0139777
0.0126078
0.0114024
0.0104019
0.00954367
0.00876102
0.0080333
0.00736954
0.00677528
0.0062417
0.00575448
0.0053032
0.00488256
0.00448938
0.00412034
0.00377194
0.00344103
0.00312509
0.0028221
0.00253034
0.00224832
0.00197471
0.00170838
0.00144832
0.00119372
0.000943831
0.00069806
0.000455905
0.000216978
-1.89911e-05
-0.000252149
-0.000482504
-0.000709911
-0.000934055
-0.00115443
-0.00137032
-0.00158079
-0.00178467
-0.00198057
-0.00216691
-0.00234198
-0.00250399
-0.00265124
-0.0027822
-0.00289576
-0.00299125
-0.00306877
0.0164436
0.015936
0.0149865
0.0137579
0.0124799
0.0113281
0.0103536
0.00951335
0.0087494
0.0080386
0.00738608
0.00679774
0.0062676
0.00578327
0.00533455
0.00491581
0.00452383
0.00415556
0.00380774
0.00347733
0.00316182
0.00285922
0.00256786
0.00228626
0.00201314
0.00174738
0.00148802
0.00123423
0.000985319
0.000740698
0.000499893
0.00026254
2.83907e-05
-0.000202679
-0.000430659
-0.000655391
-0.000876551
-0.00109364
-0.00130597
-0.00151263
-0.00171255
-0.00190444
-0.00208687
-0.00225829
-0.00241717
-0.00256202
-0.0026916
-0.00280503
-0.00290186
-0.00298233
0.0159704
0.0155136
0.0146546
0.0135313
0.0123414
0.0112448
0.0102993
0.0094781
0.00873266
0.00803897
0.00739866
0.00681736
0.0062914
0.00581035
0.00536451
0.00494803
0.0045576
0.00419039
0.00384337
0.00351364
0.00319874
0.00289669
0.00260586
0.00232482
0.00205231
0.00178724
0.00152867
0.00127581
0.00102796
0.000784584
0.000545214
0.000309512
7.7251e-05
-0.000151674
-0.000377238
-0.000599271
-0.00081745
-0.00103129
-0.00124012
-0.0014431
-0.00163921
-0.00182729
-0.00200604
-0.00217411
-0.00233014
-0.0024729
-0.00260136
-0.00271486
-0.00281315
-0.00289657
0.0155153
0.0151037
0.0143261
0.0132992
0.0121933
0.0111527
0.0102387
0.00943785
0.00871092
0.00803442
0.00740715
0.00683395
0.00631294
0.00583561
0.00539298
0.00497911
0.00459059
0.00422474
0.00387877
0.00354992
0.0032358
0.00293448
0.00264433
0.00236398
0.00209221
0.00182795
0.00157028
0.00131844
0.00107177
0.000829723
0.000591874
0.0003579
0.000127594
-9.91329e-05
-0.000322242
-0.00054156
-0.000756767
-0.00096739
-0.0011728
-0.00137221
-0.00156467
-0.00174914
-0.00192445
-0.00208942
-0.00224289
-0.00238382
-0.00251141
-0.00262516
-0.00272499
-0.00281132
0.0150773
0.0147061
0.0140017
0.013063
0.0120367
0.0110521
0.0101716
0.00939255
0.00868429
0.00802504
0.00741144
0.00684732
0.00633206
0.00585895
0.00541988
0.00500897
0.00462271
0.00425853
0.00391385
0.0035861
0.00327297
0.00297254
0.00268324
0.00240372
0.00213282
0.00186949
0.00161285
0.00136214
0.00111674
0.000876118
0.000639875
0.000407706
0.00017942
-4.50575e-05
-0.00026568
-0.00048227
-0.000694519
-0.000901973
-0.00110404