/*--------------------------------*- C++ -*----------------------------------*\
  =========                 |
  \\      /  F ield         | OpenFOAM: The Open Source CFD Toolbox
   \\    /   O peration     | Website:  https://openfoam.org
    \\  /    A nd           | Version:  7
     \\/     M anipulation  |
\*---------------------------------------------------------------------------*/
FoamFile
{
    version     2.0;
    format      ascii;
    class       surfaceScalarField;
    location    "0.09";
    object      phi;
}
// * * * * * * * * * * * * * * * * * * * * * * * * * * * * * * * * * * * * * //

dimensions      [0 3 -1 0 0 0 0];

internalField   nonuniform List<scalar> 
139350
(
6.4593e-08
9.20385e-08
3.19526e-08
3.26404e-08
2.30627e-08
8.88991e-09
1.95695e-08
3.49319e-09
1.76188e-08
1.95077e-09
1.6192e-08
1.42675e-09
1.50596e-08
1.13239e-09
1.41461e-08
9.13539e-10
1.33938e-08
7.52243e-10
1.27598e-08
6.34072e-10
1.2215e-08
5.44712e-10
1.17404e-08
4.74681e-10
1.1322e-08
4.18358e-10
1.09498e-08
3.72215e-10
1.06159e-08
3.33845e-10
1.03144e-08
3.0153e-10
1.00404e-08
2.74007e-10
9.79007e-09
2.50334e-10
9.56028e-09
2.29796e-10
9.34844e-09
2.11839e-10
9.15241e-09
1.96032e-10
8.97037e-09
1.82031e-10
8.80081e-09
1.69563e-10
8.64241e-09
1.58403e-10
8.49404e-09
1.48367e-10
8.35474e-09
1.39303e-10
8.22366e-09
1.31081e-10
8.10006e-09
1.23596e-10
7.98331e-09
1.16749e-10
7.87285e-09
1.10466e-10
7.76819e-09
1.0466e-10
7.6689e-09
9.92903e-11
7.57464e-09
9.42537e-11
7.48508e-09
8.95599e-11
7.40004e-09
8.50457e-11
7.31923e-09
8.08097e-11
7.24267e-09
7.65607e-11
7.17013e-09
7.2536e-11
7.10187e-09
6.82636e-11
7.0378e-09
6.40652e-11
6.97831e-09
5.94863e-11
6.92404e-09
5.42735e-11
6.87468e-09
4.93585e-11
6.8338e-09
4.08867e-11
6.79696e-09
3.68351e-11
6.7788e-09
1.81633e-11
6.75567e-09
2.31243e-11
6.80115e-09
-4.54796e-11
6.65313e-09
1.48021e-10
-3.18817e-09
9.8413e-09
1.26027e-07
1.27456e-07
9.12661e-08
6.74009e-08
7.19478e-08
2.82083e-08
6.12232e-08
1.42177e-08
5.47789e-08
8.39512e-09
5.02863e-08
5.91934e-09
4.68026e-08
4.6161e-09
4.39863e-08
3.72982e-09
4.16583e-08
3.08027e-09
3.96938e-08
2.5985e-09
3.8006e-08
2.23257e-09
3.65347e-08
1.94595e-09
3.52374e-08
1.71563e-09
3.40827e-08
1.52698e-09
3.30464e-08
1.3701e-09
3.211e-08
1.23794e-09
3.12586e-08
1.12537e-09
3.04804e-08
1.02853e-09
2.97657e-08
9.44502e-10
2.91065e-08
8.71033e-10
2.84962e-08
8.06362e-10
2.79292e-08
7.49088e-10
2.74006e-08
6.9809e-10
2.69066e-08
6.52457e-10
2.64435e-08
6.11442e-10
2.60084e-08
5.74424e-10
2.55986e-08
5.40884e-10
2.52118e-08
5.10382e-10
2.4846e-08
4.82536e-10
2.44994e-08
4.57033e-10
2.41705e-08
4.33557e-10
2.38579e-08
4.119e-10
2.35604e-08
3.91738e-10
2.3277e-08
3.73002e-10
2.30068e-08
3.55221e-10
2.2749e-08
3.38593e-10
2.25034e-08
3.22234e-10
2.2269e-08
3.06892e-10
2.20465e-08
2.90798e-10
2.18348e-08
2.75709e-10
2.1636e-08
2.58341e-10
2.14486e-08
2.41704e-10
2.12768e-08
2.21097e-10
2.11192e-08
1.98547e-10
2.09826e-08
1.73411e-10
2.08707e-08
1.29994e-10
2.0779e-08
1.14829e-10
2.07965e-08
-6.29106e-11
2.06609e-08
2.83574e-10
-4.04806e-09
2.15208e-08
1.58808e-07
1.35051e-07
1.36497e-07
8.97114e-08
1.17499e-07
4.72062e-08
1.03325e-07
2.83921e-08
9.33206e-08
1.83995e-08
8.602e-08
1.322e-08
8.0314e-08
1.03221e-08
7.56612e-08
8.38266e-09
7.17794e-08
6.96204e-09
6.84819e-08
5.89597e-09
6.56357e-08
5.0788e-09
6.31461e-08
4.43559e-09
6.09446e-08
3.91714e-09
5.89801e-08
3.49139e-09
5.72137e-08
3.13655e-09
5.56146e-08
2.83705e-09
5.41585e-08
2.5815e-09
5.28256e-08
2.36136e-09
5.16e-08
2.1701e-09
5.04684e-08
2.00271e-09
4.94195e-08
1.85522e-09
4.84441e-08
1.7245e-09
4.75341e-08
1.60803e-09
4.66828e-08
1.50376e-09
4.58843e-08
1.41001e-09
4.51333e-08
1.32537e-09
4.44255e-08
1.24869e-09
4.37569e-08
1.17897e-09
4.31241e-08
1.11536e-09
4.2524e-08
1.05714e-09
4.19539e-08
1.00364e-09
4.14115e-08
9.54344e-10
4.08946e-08
9.08626e-10
4.04014e-08
8.66219e-10
3.99303e-08
8.26265e-10
3.94799e-08
7.89e-10
3.90494e-08
7.52772e-10
3.86373e-08
7.19003e-10
3.82441e-08
6.83992e-10
3.78678e-08
6.51941e-10
3.75117e-08
6.14488e-10
3.71717e-08
5.81695e-10
3.68568e-08
5.36031e-10
3.65581e-08
4.97171e-10
3.62959e-08
4.35654e-10
3.60565e-08
3.69387e-10
3.58643e-08
3.07048e-10
3.57735e-08
2.78666e-11
3.57003e-08
3.56763e-10
-3.94562e-09
3.55979e-08
1.75664e-07
1.30903e-07
1.65597e-07
9.97788e-08
1.52729e-07
6.0074e-08
1.40134e-07
4.09874e-08
1.29447e-07
2.90857e-08
1.20806e-07
2.18613e-08
1.13694e-07
1.74341e-08
1.07711e-07
1.43655e-08
1.02606e-07
1.20669e-08
9.81974e-08
1.0305e-08
9.43448e-08
8.93143e-09
9.0943e-08
7.83732e-09
8.79125e-08
6.94771e-09
8.51917e-08
6.21213e-09
8.27327e-08
5.59556e-09
8.04971e-08
5.07268e-09
7.84539e-08
4.62473e-09
7.65777e-08
4.23752e-09
7.48477e-08
3.90012e-09
7.32463e-08
3.60405e-09
7.17589e-08
3.34261e-09
7.0373e-08
3.11043e-09
6.90778e-08
2.9032e-09
6.78642e-08
2.71739e-09
6.67241e-08
2.5501e-09
6.56506e-08
2.39891e-09
6.46375e-08
2.2618e-09
6.36794e-08
2.13704e-09
6.27716e-08
2.02317e-09
6.19098e-08
1.91892e-09
6.10903e-08
1.82316e-09
6.03097e-08
1.73496e-09
5.9565e-08
1.65329e-09
5.88536e-08
1.57762e-09
5.81732e-08
1.50662e-09
5.75217e-08
1.44051e-09
5.68977e-08
1.37676e-09
5.62992e-08
1.31754e-09
5.57264e-08
1.25685e-09
5.51764e-08
1.20188e-09
5.46529e-08
1.13797e-09
5.41504e-08
1.0842e-09
5.36799e-08
1.00658e-09
5.32291e-08
9.47993e-10
5.28234e-08
8.41325e-10
5.24429e-08
7.49912e-10
5.21242e-08
6.25694e-10
5.18937e-08
2.58373e-10
5.17938e-08
4.56625e-10
-3.53386e-09
5.13821e-08
1.8456e-07
1.23128e-07
1.82322e-07
1.02017e-07
1.76107e-07
6.62897e-08
1.67767e-07
4.93269e-08
1.59147e-07
3.77055e-08
1.5124e-07
2.97685e-08
1.44167e-07
2.45067e-08
1.37866e-07
2.06674e-08
1.3226e-07
1.76722e-08
1.27267e-07
1.52977e-08
1.22802e-07
1.33973e-08
1.18786e-07
1.18526e-08
1.15157e-07
1.05769e-08
1.1186e-07
9.50884e-09
1.08852e-07
8.60428e-09
1.06094e-07
7.83055e-09
1.03556e-07
7.16287e-09
1.01211e-07
6.58211e-09
9.90378e-08
6.07336e-09
9.7017e-08
5.62484e-09
9.51325e-08
5.22715e-09
9.33702e-08
4.8727e-09
9.17181e-08
4.55532e-09
9.01656e-08
4.26993e-09
8.87033e-08
4.01233e-09
8.73233e-08
3.77898e-09
8.60182e-08
3.56693e-09
8.47816e-08
3.37364e-09
8.36078e-08
3.19696e-09
8.24917e-08
3.035e-09
8.14287e-08
2.88611e-09
8.04148e-08
2.74887e-09
7.94463e-08
2.62184e-09
7.85198e-08
2.50411e-09
7.76325e-08
2.39389e-09
7.67817e-08
2.29131e-09
7.59655e-08
2.19294e-09
7.51814e-08
2.10163e-09
7.44292e-08
2.00906e-09
7.37057e-08
1.92538e-09
7.30141e-08
1.82955e-09
7.23487e-08
1.74965e-09
7.17199e-08
1.63534e-09
7.11161e-08
1.55179e-09
7.05609e-08
1.39661e-09
7.00379e-08
1.27283e-09
6.95803e-08
1.08334e-09
6.92091e-08
6.29606e-10
6.89998e-08
6.65928e-10
-2.98746e-09
6.84534e-08
1.90388e-07
1.14956e-07
1.91853e-07
1.00553e-07
1.90246e-07
6.78959e-08
1.86159e-07
5.34147e-08
1.80723e-07
4.31413e-08
1.74971e-07
3.55208e-08
1.69275e-07
3.02028e-08
1.63789e-07
2.61528e-08
1.5861e-07
2.28514e-08
1.53779e-07
2.01289e-08
1.49298e-07
1.78775e-08
1.45153e-07
1.59985e-08
1.41317e-07
1.44124e-08
1.37766e-07
1.30601e-08
1.34473e-07
1.18973e-08
1.31414e-07
1.08898e-08
1.28566e-07
1.00108e-08
1.25909e-07
9.23891e-09
1.23425e-07
8.55716e-09
1.21098e-07
7.95178e-09
1.18914e-07
7.41159e-09
1.16859e-07
6.92742e-09
1.14923e-07
6.49171e-09
1.13094e-07
6.09814e-09
1.11365e-07
5.74145e-09
1.09727e-07
5.41715e-09
1.08173e-07
5.12149e-09
1.06695e-07
4.85117e-09
1.05289e-07
4.60342e-09
1.03948e-07
4.37577e-09
1.02668e-07
4.16607e-09
1.01444e-07
3.97244e-09
1.00273e-07
3.79302e-09
9.91507e-08
3.62653e-09
9.80739e-08
3.47072e-09
9.70396e-08
3.3256e-09
9.60457e-08
3.1869e-09
9.50893e-08
3.058e-09
9.41698e-08
2.92854e-09
9.32841e-08
2.81108e-09
9.24345e-08
2.67915e-09
9.16162e-08
2.56801e-09
9.08372e-08
2.4143e-09
9.00896e-08
2.29939e-09
8.939e-08
2.09622e-09
8.8733e-08
1.92982e-09
8.81374e-08
1.67894e-09
8.76337e-08
1.13335e-09
8.72884e-08
1.01118e-09
-2.31778e-09
8.66187e-08
1.95541e-07
1.0723e-07
1.98248e-07
9.78453e-08
1.98971e-07
6.71734e-08
1.97792e-07
5.45931e-08
1.95163e-07
4.57708e-08
1.91823e-07
3.88604e-08
1.88092e-07
3.39334e-08
1.84141e-07
3.01038e-08
1.80119e-07
2.68742e-08
1.76134e-07
2.41138e-08
1.72254e-07
2.17567e-08
1.6852e-07
1.97334e-08
1.64949e-07
1.79828e-08
1.61552e-07
1.64577e-08
1.58327e-07
1.51215e-08
1.55273e-07
1.39446e-08
1.5238e-07
1.29029e-08
1.49643e-07
1.19767e-08
1.4705e-07
1.11495e-08
1.44594e-07
1.04077e-08
1.42266e-07
9.74006e-09
1.40056e-07
9.13698e-09
1.37958e-07
8.59045e-09
1.35962e-07
8.09368e-09
1.34063e-07
7.64087e-09
1.32253e-07
7.22706e-09
1.30526e-07
6.84798e-09
1.28878e-07
6.4999e-09
1.27301e-07
6.17963e-09
1.25793e-07
5.88428e-09
1.24348e-07
5.61136e-09
1.22961e-07
5.3586e-09
1.21631e-07
5.12384e-09
1.20352e-07
4.90549e-09
1.19121e-07
4.70094e-09
1.17937e-07
4.51002e-09
1.16796e-07
4.32783e-09
1.15696e-07
4.15804e-09
1.14636e-07
3.98873e-09
1.13613e-07
3.83404e-09
1.12628e-07
3.66368e-09
1.11679e-07
3.51727e-09
1.1077e-07
3.32336e-09
1.09898e-07
3.17116e-09
1.09072e-07
2.92269e-09
1.08298e-07
2.70412e-09
1.07579e-07
2.39741e-09
1.06954e-07
1.75825e-09
1.0648e-07
1.48567e-09
-1.53012e-09
1.05692e-07
2.00848e-07
9.99664e-08
2.03777e-07
9.4917e-08
2.05329e-07
6.56211e-08
2.05646e-07
5.42757e-08
2.04822e-07
4.65951e-08
2.03343e-07
4.03392e-08
2.01397e-07
3.58792e-08
1.99068e-07
3.2433e-08
1.96461e-07
2.94819e-08
1.93676e-07
2.6898e-08
1.90796e-07
2.46371e-08
1.87879e-07
2.26501e-08
1.8497e-07
2.08916e-08
1.82101e-07
1.93267e-08
1.79294e-07
1.79287e-08
1.76564e-07
1.66753e-08
1.73918e-07
1.5548e-08
1.71364e-07
1.45311e-08
1.68903e-07
1.36109e-08
1.66534e-07
1.27761e-08
1.64258e-07
1.20166e-08
1.62071e-07
1.13239e-08
1.59971e-07
1.06907e-08
1.57954e-07
1.01105e-08
1.56017e-07
9.57787e-09
1.54156e-07
9.08783e-09
1.52368e-07
8.63618e-09
1.50649e-07
8.21912e-09
1.48995e-07
7.83339e-09
1.47403e-07
7.47596e-09
1.4587e-07
7.14422e-09
1.44393e-07
6.83575e-09
1.42969e-07
6.54822e-09
1.41594e-07
6.27987e-09
1.40267e-07
6.02788e-09
1.38985e-07
5.79192e-09
1.37747e-07
5.5667e-09
1.36549e-07
5.35597e-09
1.35391e-07
5.14685e-09
1.3427e-07
4.95415e-09
1.33189e-07
4.7455e-09
1.32144e-07
4.56198e-09
1.31138e-07
4.32916e-09
1.30173e-07
4.13589e-09
1.2925e-07
3.84598e-09
1.28385e-07
3.56938e-09
1.27571e-07
3.21132e-09
1.26844e-07
2.48479e-09
1.2626e-07
2.07016e-09
-6.48142e-10
1.25378e-07
2.06447e-07
9.30513e-08
2.0934e-07
9.20239e-08
2.11039e-07
6.39227e-08
2.11934e-07
5.338e-08
2.12006e-07
4.65237e-08
2.11622e-07
4.07228e-08
2.10895e-07
3.66061e-08
2.09827e-07
3.35011e-08
2.08455e-07
3.08545e-08
2.06835e-07
2.85173e-08
2.05024e-07
2.64481e-08
2.0307e-07
2.46039e-08
2.01016e-07
2.29462e-08
1.98896e-07
2.14465e-08
1.9674e-07
2.00844e-08
1.94572e-07
1.88436e-08
1.9241e-07
1.77105e-08
1.90267e-07
1.66736e-08
1.88155e-07
1.57228e-08
1.86082e-07
1.48494e-08
1.84053e-07
1.40456e-08
1.82072e-07
1.33048e-08
1.80142e-07
1.26209e-08
1.78263e-07
1.19887e-08
1.76438e-07
1.14033e-08
1.74665e-07
1.08606e-08
1.72945e-07
1.03568e-08
1.71275e-07
9.88845e-09
1.69656e-07
9.45257e-09
1.68086e-07
9.04633e-09
1.66563e-07
8.66725e-09
1.65086e-07
8.31298e-09
1.63653e-07
7.98122e-09
1.62262e-07
7.67023e-09
1.60913e-07
7.37712e-09
1.59603e-07
7.10154e-09
1.58332e-07
6.83801e-09
1.57098e-07
6.59022e-09
1.559e-07
6.3449e-09
1.54737e-07
6.11676e-09
1.5361e-07
5.87295e-09
1.52518e-07
5.65353e-09
1.51462e-07
5.38537e-09
1.50447e-07
5.15054e-09
1.49469e-07
4.82406e-09
1.4855e-07
4.48864e-09
1.47678e-07
4.08301e-09
1.46881e-07
3.2821e-09
1.46214e-07
2.73696e-09
2.9366e-10
1.45272e-07
2.12289e-07
8.64245e-08
2.15153e-07
8.91599e-08
2.16793e-07
6.22827e-08
2.17847e-07
5.23262e-08
2.18265e-07
4.6106e-08
2.18384e-07
4.06037e-08
2.18311e-07
3.66788e-08
2.18015e-07
3.37973e-08
2.17487e-07
3.13821e-08
2.16746e-07
2.92584e-08
2.15815e-07
2.73791e-08
2.14719e-07
2.57002e-08
2.13483e-07
2.41823e-08
2.12132e-07
2.27975e-08
2.10689e-07
2.15269e-08
2.09176e-07
2.03565e-08
2.07611e-07
1.92754e-08
2.0601e-07
1.82745e-08
2.04387e-07
1.73462e-08
2.02753e-07
1.64838e-08
2.01117e-07
1.56817e-08
1.99487e-07
1.49348e-08
1.97869e-07
1.42387e-08
1.96268e-07
1.35892e-08
1.94689e-07
1.29827e-08
1.93134e-07
1.24159e-08
1.91605e-07
1.18856e-08
1.90104e-07
1.13892e-08
1.88633e-07
1.09239e-08
1.87191e-07
1.04876e-08
1.85781e-07
1.00779e-08
1.84401e-07
9.69282e-09
1.83052e-07
9.33028e-09
1.81733e-07
8.98866e-09
1.80445e-07
8.66521e-09
1.79187e-07
8.35964e-09
1.77959e-07
8.06644e-09
1.7676e-07
7.78926e-09
1.7559e-07
7.51481e-09
1.74449e-07
7.25724e-09
1.73338e-07
6.98439e-09
1.72258e-07
6.73351e-09
1.71207e-07
6.43596e-09
1.70195e-07
6.16266e-09
1.69214e-07
5.80579e-09
1.68286e-07
5.41568e-09
1.67403e-07
4.96694e-09
1.66575e-07
4.10914e-09
1.65863e-07
3.44971e-09
1.25504e-09
1.64901e-07
2.1833e-07
8.0075e-08
2.21207e-07
8.62832e-08
2.22766e-07
6.07237e-08
2.23847e-07
5.12456e-08
2.24374e-07
4.55788e-08
2.24671e-07
4.03068e-08
2.24874e-07
3.64751e-08
2.24957e-07
3.37147e-08
2.24896e-07
3.14431e-08
2.24691e-07
2.94635e-08
2.24346e-07
2.77238e-08
2.23867e-07
2.61789e-08
2.23263e-07
2.47864e-08
2.22544e-07
2.35161e-08
2.21724e-07
2.23476e-08
2.20814e-07
2.12665e-08
2.19827e-07
2.02621e-08
2.18776e-07
1.93258e-08
2.17671e-07
1.84508e-08
2.16524e-07
1.76315e-08
2.15342e-07
1.68632e-08
2.14135e-07
1.6142e-08
2.12909e-07
1.54644e-08
2.11671e-07
1.48271e-08
2.10426e-07
1.42275e-08
2.09179e-07
1.36629e-08
2.07934e-07
1.3131e-08
2.06694e-07
1.26296e-08
2.05461e-07
1.21565e-08
2.04239e-07
1.171e-08
2.03028e-07
1.12882e-08
2.01832e-07
1.08894e-08
2.0065e-07
1.05117e-08
1.99485e-07
1.01539e-08
1.98337e-07
9.81342e-09
1.97206e-07
9.49003e-09
1.96094e-07
9.17838e-09
1.95002e-07
8.88205e-09
1.93928e-07
8.58804e-09
1.92876e-07
8.30958e-09
1.91844e-07
8.01613e-09
1.90837e-07
7.74084e-09
1.89851e-07
7.42179e-09
1.88898e-07
7.11618e-09
1.87967e-07
6.73631e-09
1.87083e-07
6.29976e-09
1.86236e-07
5.8139e-09
1.85426e-07
4.91896e-09
1.8471e-07
4.16573e-09
2.19333e-09
1.83772e-07
2.24559e-07
7.40094e-08
2.27471e-07
8.33711e-08
2.28963e-07
5.9232e-08
2.30049e-07
5.01597e-08
2.30617e-07
4.50103e-08
2.30963e-07
3.99611e-08
2.31256e-07
3.61818e-08
2.31487e-07
3.34839e-08
2.31635e-07
3.12951e-08
2.31698e-07
2.94004e-08
2.31675e-07
2.77467e-08
2.31564e-07
2.62897e-08
2.31365e-07
2.49859e-08
2.31078e-07
2.38027e-08
2.30708e-07
2.2718e-08
2.30258e-07
2.1716e-08
2.29736e-07
2.0785e-08
2.29145e-07
1.99159e-08
2.28495e-07
1.91015e-08
2.2779e-07
1.83362e-08
2.27038e-07
1.76155e-08
2.26244e-07
1.69356e-08
2.25415e-07
1.62935e-08
2.24556e-07
1.56864e-08
2.23671e-07
1.5112e-08
2.22766e-07
1.45681e-08
2.21844e-07
1.40527e-08
2.2091e-07
1.35642e-08
2.19966e-07
1.31007e-08
2.19015e-07
1.26608e-08
2.1806e-07
1.22429e-08
2.17104e-07
1.18457e-08
2.16148e-07
1.14676e-08
2.15195e-07
1.11074e-08
2.14245e-07
1.07629e-08
2.13301e-07
1.04339e-08
2.12364e-07
1.01154e-08
2.11436e-07
9.81071e-09
2.10516e-07
9.50744e-09
2.09608e-07
9.21758e-09
2.08711e-07
8.91287e-09
2.07831e-07
8.62156e-09
2.06963e-07
8.28976e-09
2.06119e-07
7.95991e-09
2.0529e-07
7.56502e-09
2.04497e-07
7.09295e-09
2.03734e-07
6.57733e-09
2.02987e-07
5.66535e-09
2.02311e-07
4.84165e-09
3.06656e-09
2.01438e-07
2.3098e-07
6.82356e-08
2.33936e-07
8.04151e-08
2.35368e-07
5.77995e-08
2.3646e-07
4.90675e-08
2.37062e-07
4.44082e-08
2.37424e-07
3.96e-08
2.37739e-07
3.58669e-08
2.38015e-07
3.32071e-08
2.38239e-07
3.10712e-08
2.38412e-07
2.92278e-08
2.38535e-07
2.76234e-08
2.38607e-07
2.62177e-08
2.38625e-07
2.4968e-08
2.38587e-07
2.38408e-08
2.38492e-07
2.2813e-08
2.3834e-07
2.18679e-08
2.38132e-07
2.09927e-08
2.3787e-07
2.01777e-08
2.37557e-07
1.9415e-08
2.37194e-07
1.86987e-08
2.36786e-07
1.80237e-08
2.36336e-07
1.73862e-08
2.35846e-07
1.6783e-08
2.35321e-07
1.62114e-08
2.34764e-07
1.5669e-08
2.34178e-07
1.51539e-08
2.33567e-07
1.46642e-08
2.32933e-07
1.41983e-08
2.32279e-07
1.37547e-08
2.31608e-07
1.3332e-08
2.30922e-07
1.29288e-08
2.30224e-07
1.25439e-08
2.29515e-07
1.21758e-08
2.28799e-07
1.18238e-08
2.28076e-07
1.14854e-08
2.2735e-07
1.11608e-08
2.2662e-07
1.0845e-08
2.25889e-07
1.05413e-08
2.25159e-07
1.02378e-08
2.24432e-07
9.94508e-09
2.23707e-07
9.63768e-09
2.2299e-07
9.3384e-09
2.22278e-07
9.00204e-09
2.21581e-07
8.6564e-09
2.20892e-07
8.25396e-09
2.20227e-07
7.75823e-09
2.19583e-07
7.22086e-09
2.18938e-07
6.31029e-09
2.1834e-07
5.44025e-09
3.83978e-09
2.17567e-07
2.37601e-07
6.27596e-08
2.40603e-07
7.74127e-08
2.41979e-07
5.64241e-08
2.43076e-07
4.79704e-08
2.43715e-07
4.37688e-08
2.4409e-07
3.92253e-08
2.4441e-07
3.55465e-08
2.447e-07
3.29178e-08
2.44946e-07
3.08245e-08
2.45156e-07
2.90185e-08
2.45334e-07
2.74454e-08
2.45481e-07
2.60702e-08
2.45597e-07
2.48522e-08
2.45679e-07
2.37582e-08
2.45727e-07
2.2765e-08
2.4574e-07
2.18557e-08
2.45715e-07
2.10171e-08
2.45654e-07
2.0239e-08
2.45556e-07
1.95133e-08
2.45421e-07
1.88334e-08
2.4525e-07
1.81941e-08
2.45045e-07
1.75912e-08
2.44807e-07
1.70212e-08
2.44537e-07
1.64812e-08
2.44238e-07
1.59688e-08
2.4391e-07
1.54819e-08
2.43555e-07
1.50187e-08
2.43176e-07
1.45774e-08
2.42774e-07
1.41566e-08
2.42351e-07
1.37548e-08
2.4191e-07
1.33706e-08
2.4145e-07
1.3003e-08
2.40976e-07
1.26505e-08
2.40487e-07
1.23122e-08
2.39987e-07
1.19859e-08
2.39476e-07
1.16717e-08
2.38956e-07
1.13649e-08
2.38429e-07
1.10683e-08
2.37896e-07
1.07708e-08
2.37359e-07
1.04815e-08
2.36819e-07
1.01778e-08
2.36281e-07
9.87685e-09
2.35741e-07
9.54221e-09
2.35209e-07
9.18819e-09
2.34679e-07
8.78414e-09
2.34161e-07
8.27571e-09
2.33658e-07
7.7243e-09
2.33138e-07
6.83032e-09
2.32641e-07
5.93662e-09
4.49038e-09
2.31991e-07
2.44431e-07
5.7585e-08
2.47473e-07
7.43706e-08
2.48799e-07
5.50976e-08
2.49897e-07
4.68729e-08
2.50575e-07
4.30905e-08
2.50967e-07
3.88334e-08
2.51292e-07
3.52215e-08
2.51587e-07
3.26229e-08
2.51841e-07
3.057e-08
2.52062e-07
2.87981e-08
2.52257e-07
2.72504e-08
2.5243e-07
2.58967e-08
2.52583e-07
2.46995e-08
2.52715e-07
2.36263e-08
2.52826e-07
2.26541e-08
2.52915e-07
2.17664e-08
2.52982e-07
2.09501e-08
2.53026e-07
2.01951e-08
2.53046e-07
1.94929e-08
2.53043e-07
1.8837e-08
2.53015e-07
1.82219e-08
2.52963e-07
1.76432e-08
2.52887e-07
1.70973e-08
2.52787e-07
1.6581e-08
2.52664e-07
1.6092e-08
2.52518e-07
1.56279e-08
2.5235e-07
1.51867e-08
2.52161e-07
1.47668e-08
2.51951e-07
1.43663e-08
2.51722e-07
1.3984e-08
2.51474e-07
1.36183e-08
2.51209e-07
1.3268e-08
2.50928e-07
1.29316e-08
2.50632e-07
1.26083e-08
2.50322e-07
1.22957e-08
2.5e-07
1.19941e-08
2.49666e-07
1.16986e-08
2.49322e-07
1.14118e-08
2.4897e-07
1.11234e-08
2.48611e-07
1.08406e-08
2.48244e-07
1.0544e-08
2.47876e-07
1.02453e-08
2.47502e-07
9.91613e-09
2.47131e-07
9.55915e-09
2.46758e-07
9.15723e-09
2.46389e-07
8.64494e-09
2.46027e-07
8.08601e-09
2.45638e-07
7.21954e-09
2.45253e-07
6.32167e-09
5.01117e-09
2.44732e-07
2.51478e-07
5.27135e-08
2.5455e-07
7.12983e-08
2.55838e-07
5.38097e-08
2.56931e-07
4.57805e-08
2.57647e-07
4.23744e-08
2.58059e-07
3.84213e-08
2.5839e-07
3.48907e-08
2.5869e-07
3.23227e-08
2.5895e-07
3.03102e-08
2.59175e-07
2.85732e-08
2.59375e-07
2.70499e-08
2.59557e-07
2.57153e-08
2.59721e-07
2.45348e-08
2.5987e-07
2.34771e-08
2.60005e-07
2.25197e-08
2.60125e-07
2.16463e-08
2.60231e-07
2.08443e-08
2.60322e-07
2.01036e-08
2.60399e-07
1.94161e-08
2.60461e-07
1.87752e-08
2.60507e-07
1.81754e-08
2.60538e-07
1.76123e-08
2.60553e-07
1.70821e-08
2.60553e-07
1.65819e-08
2.60536e-07
1.61089e-08
2.60503e-07
1.56608e-08
2.60454e-07
1.52357e-08
2.60389e-07
1.48317e-08
2.60308e-07
1.44469e-08
2.60212e-07
1.40799e-08
2.60102e-07
1.37291e-08
2.59976e-07
1.33932e-08
2.59837e-07
1.30706e-08
2.59685e-07
1.27604e-08
2.59521e-07
1.24603e-08
2.59345e-07
1.21702e-08
2.59158e-07
1.18856e-08
2.58961e-07
1.16083e-08
2.58755e-07
1.13293e-08
2.58542e-07
1.10535e-08
2.58322e-07
1.07648e-08
2.58097e-07
1.04698e-08
2.57866e-07
1.01472e-08
2.57635e-07
9.79045e-09
2.574e-07
9.39222e-09
2.57162e-07
8.88223e-09
2.56928e-07
8.32074e-09
2.56659e-07
7.48831e-09
2.56379e-07
6.60155e-09
5.40998e-09
2.5598e-07
2.58751e-07
4.81454e-08
2.61844e-07
6.82058e-08
2.63104e-07
5.25496e-08
2.64186e-07
4.46984e-08
2.64937e-07
4.16231e-08
2.65371e-07
3.7987e-08
2.65709e-07
3.45529e-08
2.66015e-07
3.20168e-08
2.66281e-07
3.00448e-08
2.66509e-07
2.83443e-08
2.66713e-07
2.68464e-08
2.66897e-07
2.55307e-08
2.67066e-07
2.43662e-08
2.67221e-07
2.33226e-08
2.67363e-07
2.23777e-08
2.67493e-07
2.15156e-08
2.67613e-07
2.07243e-08
2.67723e-07
1.99938e-08
2.67823e-07
1.93163e-08
2.67913e-07
1.86853e-08
2.67993e-07
1.80954e-08
2.68063e-07
1.75422e-08
2.68123e-07
1.70222e-08
2.68173e-07
1.65322e-08
2.68212e-07
1.60696e-08
2.6824e-07
1.56322e-08
2.68258e-07
1.52178e-08
2.68265e-07
1.48246e-08
2.68262e-07
1.44507e-08
2.68247e-07
1.40946e-08
2.68222e-07
1.37545e-08
2.68186e-07
1.34292e-08
2.68139e-07
1.31169e-08
2.68083e-07
1.28167e-08
2.68017e-07
1.25262e-08
2.67942e-07
1.22451e-08
2.67859e-07
1.19692e-08
2.67767e-07
1.16996e-08
2.67668e-07
1.14284e-08
2.67563e-07
1.11585e-08
2.67451e-07
1.08766e-08
2.67336e-07
1.05851e-08
2.67215e-07
1.02684e-08
2.67092e-07
9.91318e-09
2.66966e-07
9.51858e-09
2.66834e-07
9.01453e-09
2.667e-07
8.45395e-09
2.6653e-07
7.65835e-09
2.66338e-07
6.79369e-09
5.70585e-09
2.66042e-07
2.66259e-07
4.38788e-08
2.69361e-07
6.51035e-08
2.70604e-07
5.1307e-08
2.71671e-07
4.36309e-08
2.72454e-07
4.08399e-08
2.72913e-07
3.75288e-08
2.73258e-07
3.42073e-08
2.7357e-07
3.17051e-08
2.73841e-07
2.97734e-08
2.74075e-07
2.8111e-08
2.74281e-07
2.66399e-08
2.74468e-07
2.53439e-08
2.74638e-07
2.41956e-08
2.74795e-07
2.31659e-08
2.7494e-07
2.22331e-08
2.75074e-07
2.13816e-08
2.75198e-07
2.05998e-08
2.75314e-07
1.98779e-08
2.75422e-07
1.92085e-08
2.75522e-07
1.8585e-08
2.75615e-07
1.80024e-08
2.75701e-07
1.74563e-08
2.7578e-07
1.69432e-08
2.75852e-07
1.64601e-08
2.75917e-07
1.60045e-08
2.75975e-07
1.55741e-08
2.76026e-07
1.51669e-08
2.7607e-07
1.47809e-08
2.76106e-07
1.44143e-08
2.76135e-07
1.40655e-08
2.76157e-07
1.37327e-08
2.76172e-07
1.34147e-08
2.76179e-07
1.31095e-08
2.7618e-07
1.28162e-08
2.76173e-07
1.25324e-08
2.76161e-07
1.22576e-08
2.76142e-07
1.19879e-08
2.76118e-07
1.17237e-08
2.76088e-07
1.1458e-08
2.76055e-07
1.11921e-08
2.76016e-07
1.09153e-08
2.75975e-07
1.06261e-08
2.7593e-07
1.03137e-08
2.75883e-07
9.96024e-09
2.75833e-07
9.56836e-09
2.75776e-07
9.07206e-09
2.75715e-07
8.51485e-09
2.75617e-07
7.75618e-09
2.7549e-07
6.92083e-09
5.92334e-09
2.75272e-07
2.7401e-07
3.99104e-08
2.77111e-07
6.20026e-08
2.78346e-07
5.00717e-08
2.79395e-07
4.25816e-08
2.80206e-07
4.00289e-08
2.8069e-07
3.7045e-08
2.81044e-07
3.38529e-08
2.81362e-07
3.13877e-08
2.81639e-07
2.94958e-08
2.81878e-07
2.78728e-08
2.82087e-07
2.64302e-08
2.82277e-07
2.51546e-08
2.82449e-07
2.40231e-08
2.82607e-07
2.30078e-08
2.82753e-07
2.20872e-08
2.82888e-07
2.12464e-08
2.83014e-07
2.04738e-08
2.83132e-07
1.97602e-08
2.83242e-07
1.90982e-08
2.83346e-07
1.84815e-08
2.83443e-07
1.79051e-08
2.83535e-07
1.73649e-08
2.8362e-07
1.68574e-08
2.83701e-07
1.63797e-08
2.83776e-07
1.59293e-08
2.83846e-07
1.5504e-08
2.83911e-07
1.51018e-08
2.83971e-07
1.47209e-08
2.84026e-07
1.43595e-08
2.84076e-07
1.40157e-08
2.8412e-07
1.3688e-08
2.8416e-07
1.33749e-08
2.84195e-07
1.30746e-08
2.84225e-07
1.27859e-08
2.84251e-07
1.25066e-08
2.84273e-07
1.2236e-08
2.8429e-07
1.19703e-08
2.84305e-07
1.17094e-08
2.84315e-07
1.14473e-08
2.84324e-07
1.11837e-08
2.84329e-07
1.091e-08
2.84333e-07
1.06221e-08
2.84335e-07
1.03122e-08
2.84335e-07
9.96026e-09
2.84333e-07
9.57012e-09
2.84323e-07
9.08228e-09
2.84307e-07
8.53036e-09
2.84256e-07
7.80722e-09
2.84171e-07
7.00557e-09
6.08701e-09
2.84008e-07
2.82013e-07
3.62348e-08
2.85101e-07
5.89144e-08
2.86339e-07
4.8834e-08
2.87367e-07
4.15532e-08
2.88202e-07
3.91947e-08
2.88712e-07
3.65345e-08
2.89076e-07
3.34885e-08
2.89399e-07
3.10647e-08
2.89683e-07
2.92118e-08
2.89927e-07
2.76294e-08
2.9014e-07
2.62169e-08
2.90332e-07
2.49628e-08
2.90506e-07
2.38485e-08
2.90666e-07
2.2848e-08
2.90813e-07
2.19401e-08
2.9095e-07
2.11101e-08
2.91076e-07
2.0347e-08
2.91195e-07
1.96418e-08
2.91306e-07
1.89871e-08
2.9141e-07
1.83771e-08
2.91509e-07
1.78067e-08
2.91602e-07
1.7272e-08
2.91689e-07
1.67696e-08
2.91772e-07
1.62966e-08
2.91851e-07
1.58507e-08
2.91925e-07
1.54297e-08
2.91995e-07
1.50318e-08
2.92061e-07
1.4655e-08
2.92123e-07
1.42975e-08
2.92181e-07
1.39577e-08
2.92236e-07
1.36338e-08
2.92286e-07
1.33243e-08
2.92333e-07
1.30275e-08
2.92377e-07
1.27421e-08
2.92418e-07
1.24658e-08
2.92456e-07
1.21979e-08
2.92491e-07
1.19348e-08
2.92525e-07
1.16759e-08
2.92556e-07
1.14159e-08
2.92587e-07
1.11534e-08
2.92615e-07
1.08814e-08
2.92644e-07
1.05938e-08
2.92671e-07
1.02851e-08
2.92696e-07
9.93458e-09
2.92721e-07
9.54557e-09
2.92737e-07
9.06647e-09
2.92745e-07
8.52163e-09
2.92721e-07
7.83204e-09
2.9266e-07
7.06648e-09
6.21746e-09
2.92529e-07
2.90279e-07
3.28449e-08
2.93342e-07
5.58508e-08
2.94591e-07
4.75851e-08
2.95597e-07
4.05475e-08
2.96449e-07
3.83427e-08
2.96987e-07
3.59961e-08
2.97363e-07
3.31127e-08
2.97692e-07
3.07361e-08
2.97982e-07
2.89215e-08
2.98231e-07
2.73805e-08
2.98448e-07
2.59998e-08
2.98643e-07
2.47681e-08
2.9882e-07
2.36717e-08
2.98981e-07
2.26864e-08
2.9913e-07
2.17916e-08
2.99267e-07
2.09729e-08
2.99394e-07
2.02195e-08
2.99513e-07
1.95228e-08
2.99625e-07
1.88757e-08
2.99729e-07
1.82724e-08
2.99828e-07
1.77081e-08
2.99921e-07
1.71788e-08
3.0001e-07
1.66814e-08
3.00093e-07
1.6213e-08
3.00172e-07
1.57714e-08
3.00248e-07
1.53545e-08
3.00319e-07
1.49604e-08
3.00387e-07
1.45873e-08
3.00451e-07
1.42334e-08
3.00511e-07
1.3897e-08
3.00569e-07
1.35764e-08
3.00623e-07
1.32699e-08
3.00675e-07
1.29759e-08
3.00724e-07
1.26931e-08
3.0077e-07
1.24191e-08
3.00815e-07
1.21531e-08
3.00858e-07
1.18918e-08
3.009e-07
1.16341e-08
3.0094e-07
1.13754e-08
3.00981e-07
1.11133e-08
3.0102e-07
1.08421e-08
3.01059e-07
1.05545e-08
3.01098e-07
1.02463e-08
3.01135e-07
9.89713e-09
3.01172e-07
9.50918e-09
3.01199e-07
9.03903e-09
3.01218e-07
8.50305e-09
3.01205e-07
7.84507e-09
3.01155e-07
7.11669e-09
6.32972e-09
3.01042e-07
2.98816e-07
2.97319e-08
3.01843e-07
5.28238e-08
3.03111e-07
4.63171e-08
3.04093e-07
3.95654e-08
3.04957e-07
3.74782e-08
3.05524e-07
3.54296e-08
3.05913e-07
3.27241e-08
3.06247e-07
3.04018e-08
3.06544e-07
2.86249e-08
3.06798e-07
2.71257e-08
3.0702e-07
2.57784e-08
3.07217e-07
2.45704e-08
3.07397e-07
2.34925e-08
3.0756e-07
2.25229e-08
3.0771e-07
2.16417e-08
3.07849e-07
2.08345e-08
3.07977e-07
2.00911e-08
3.08096e-07
1.94032e-08
3.08208e-07
1.87638e-08
3.08313e-07
1.81674e-08
3.08412e-07
1.76093e-08
3.08505e-07
1.70856e-08
3.08594e-07
1.65932e-08
3.08677e-07
1.61294e-08
3.08756e-07
1.56922e-08
3.08832e-07
1.52793e-08
3.08903e-07
1.48891e-08
3.08971e-07
1.45196e-08
3.09035e-07
1.41692e-08
3.09096e-07
1.3836e-08
3.09154e-07
1.35184e-08
3.09209e-07
1.32148e-08
3.09262e-07
1.29233e-08
3.09312e-07
1.26427e-08
3.0936e-07
1.23708e-08
3.09407e-07
1.21064e-08
3.09452e-07
1.18465e-08
3.09497e-07
1.15897e-08
3.0954e-07
1.13319e-08
3.09584e-07
1.10699e-08
3.09627e-07
1.07991e-08
3.0967e-07
1.05115e-08
3.09713e-07
1.02034e-08
3.09754e-07
9.85591e-09
3.09794e-07
9.46947e-09
3.09824e-07
9.00854e-09
3.09844e-07
8.48321e-09
3.09834e-07
7.85521e-09
3.09786e-07
7.1643e-09
6.43348e-09
3.09682e-07
3.07634e-07
2.68852e-08
3.10612e-07
4.98454e-08
3.11906e-07
4.50231e-08
3.12865e-07
3.86067e-08
3.13737e-07
3.66065e-08
3.14331e-07
3.48352e-08
3.14734e-07
3.23209e-08
3.15074e-07
3.00615e-08
3.15377e-07
2.83219e-08
3.15638e-07
2.68648e-08
3.15864e-07
2.55524e-08
3.16065e-07
2.43694e-08
3.16247e-07
2.33106e-08
3.16413e-07
2.23573e-08
3.16564e-07
2.149e-08
3.16704e-07
2.06948e-08
3.16833e-07
1.99617e-08
3.16954e-07
1.92828e-08
3.17066e-07
1.86514e-08
3.17172e-07
1.80621e-08
3.17271e-07
1.75103e-08
3.17364e-07
1.69923e-08
3.17452e-07
1.6505e-08
3.17535e-07
1.6046e-08
3.17614e-07
1.56131e-08
3.17689e-07
1.52044e-08
3.1776e-07
1.4818e-08
3.17828e-07
1.44522e-08
3.17892e-07
1.41052e-08
3.17952e-07
1.37754e-08
3.1801e-07
1.34608e-08
3.18065e-07
1.31599e-08
3.18117e-07
1.2871e-08
3.18167e-07
1.25926e-08
3.18215e-07
1.23226e-08
3.18262e-07
1.20597e-08
3.18307e-07
1.18012e-08
3.18352e-07
1.15451e-08
3.18396e-07
1.1288e-08
3.1844e-07
1.10263e-08
3.18483e-07
1.07557e-08
3.18526e-07
1.04683e-08
3.18569e-07
1.01604e-08
3.1861e-07
9.81502e-09
3.18649e-07
9.43088e-09
3.18678e-07
8.97956e-09
3.18694e-07
8.46658e-09
3.18682e-07
7.8673e-09
3.18633e-07
7.21358e-09
6.53428e-09
3.18532e-07
3.16744e-07
2.42928e-08
3.19661e-07
4.69277e-08
3.20986e-07
4.3698e-08
3.21923e-07
3.76705e-08
3.22796e-07
3.57329e-08
3.23417e-07
3.4214e-08
3.23837e-07
3.19016e-08
3.24183e-07
2.97149e-08
3.24492e-07
2.80128e-08
3.2476e-07
2.65974e-08
3.24991e-07
2.53215e-08
3.25195e-07
2.41647e-08
3.2538e-07
2.31259e-08
3.25548e-07
2.21893e-08
3.25702e-07
2.13364e-08
3.25843e-07
2.05536e-08
3.25973e-07
1.98312e-08
3.26095e-07
1.91616e-08
3.26208e-07
1.85384e-08
3.26313e-07
1.79563e-08
3.26413e-07
1.7411e-08
3.26506e-07
1.68988e-08
3.26594e-07
1.64169e-08
3.26678e-07
1.59627e-08
3.26756e-07
1.55343e-08
3.26831e-07
1.51298e-08
3.26902e-07
1.47474e-08
3.26969e-07
1.43853e-08
3.27032e-07
1.40418e-08
3.27092e-07
1.37153e-08
3.27149e-07
1.34037e-08
3.27203e-07
1.31057e-08
3.27255e-07
1.28193e-08
3.27304e-07
1.25431e-08
3.27352e-07
1.22751e-08
3.27398e-07
1.20137e-08
3.27443e-07
1.17565e-08
3.27486e-07
1.15014e-08
3.27529e-07
1.1245e-08
3.27572e-07
1.09836e-08
3.27614e-07
1.07134e-08
3.27656e-07
1.04265e-08
3.27698e-07
1.01191e-08
3.27736e-07
9.77635e-09
3.27772e-07
9.39548e-09
3.27797e-07
8.95423e-09
3.27808e-07
8.45511e-09
3.27792e-07
7.8836e-09
3.27739e-07
7.26642e-09
6.63492e-09
3.27639e-07
3.26154e-07
2.19413e-08
3.28999e-07
4.40823e-08
3.30359e-07
4.2338e-08
3.31275e-07
3.67548e-08
3.32146e-07
3.48621e-08
3.32792e-07
3.35676e-08
3.33229e-07
3.14648e-08
3.33583e-07
2.93613e-08
3.33898e-07
2.76975e-08
3.34172e-07
2.63235e-08
3.34408e-07
2.50853e-08
3.34617e-07
2.39562e-08
3.34804e-07
2.29381e-08
3.34975e-07
2.20188e-08
3.35131e-07
2.11808e-08
3.35274e-07
2.04108e-08
3.35405e-07
1.96994e-08
3.35528e-07
1.90393e-08
3.35641e-07
1.84246e-08
3.35748e-07
1.785e-08
3.35848e-07
1.73113e-08
3.35941e-07
1.68051e-08
3.3603e-07
1.63286e-08
3.36113e-07
1.58794e-08
3.36192e-07
1.54556e-08
3.36266e-07
1.50554e-08
3.36336e-07
1.4677e-08
3.36403e-07
1.43188e-08
3.36466e-07
1.39789e-08
3.36525e-07
1.36557e-08
3.36582e-07
1.33474e-08