/*--------------------------------*- C++ -*----------------------------------*\
  =========                 |
  \\      /  F ield         | OpenFOAM: The Open Source CFD Toolbox
   \\    /   O peration     | Website:  https://openfoam.org
    \\  /    A nd           | Version:  7
     \\/     M anipulation  |
\*---------------------------------------------------------------------------*/
FoamFile
{
    version     2.0;
    format      ascii;
    class       volVectorField;
    location    "0.09";
    object      U;
}
// * * * * * * * * * * * * * * * * * * * * * * * * * * * * * * * * * * * * * //

dimensions      [0 1 -1 0 0 0 0];

internalField   nonuniform List<vector> 
70000
(
(0.553391 0.016723 0)
(0.251266 0.00340093 0)
(0.166211 0.000321928 0)
(0.132467 5.42168e-05 0)
(0.117279 4.56626e-05 0)
(0.107356 5.38461e-05 0)
(0.0994069 4.62214e-05 0)
(0.0929645 3.6892e-05 0)
(0.0877162 3.05887e-05 0)
(0.0833419 2.62721e-05 0)
(0.0796135 2.29835e-05 0)
(0.0763831 2.03497e-05 0)
(0.0735494 1.82015e-05 0)
(0.0710385 1.64259e-05 0)
(0.0687945 1.49391e-05 0)
(0.0667739 1.3679e-05 0)
(0.0649428 1.25992e-05 0)
(0.0632739 1.16648e-05 0)
(0.0617452 1.08493e-05 0)
(0.0603387 1.01319e-05 0)
(0.0590395 9.49627e-06 0)
(0.0578349 8.92933e-06 0)
(0.0567145 8.42054e-06 0)
(0.0556693 7.9612e-06 0)
(0.0546914 7.54404e-06 0)
(0.0537744 7.16311e-06 0)
(0.0529123 6.81265e-06 0)
(0.0521003 6.489e-06 0)
(0.0513339 6.18601e-06 0)
(0.0506093 5.90311e-06 0)
(0.0499232 5.63089e-06 0)
(0.0492726 5.37457e-06 0)
(0.0486554 5.11633e-06 0)
(0.0480689 4.87281e-06 0)
(0.047512 4.60936e-06 0)
(0.0469826 4.36111e-06 0)
(0.0464804 4.07164e-06 0)
(0.0460049 3.78424e-06 0)
(0.0455543 3.45986e-06 0)
(0.0451345 3.03769e-06 0)
(0.0447338 2.74294e-06 0)
(0.0443818 1.8869e-06 0)
(0.0440277 1.97055e-06 0)
(0.0437793 -2.472e-07 0)
(0.0434559 1.46225e-06 0)
(0.0434027 -4.88661e-06 0)
(0.043061 2.28188e-06 0)
(0.0433949 -1.64561e-05 0)
(0.0431816 1.78242e-05 0)
(0.0406761 -0.00162757 0)
(0.884899 0.0431671 0)
(0.649723 0.0201936 0)
(0.494337 0.00659794 0)
(0.40369 0.0027674 0)
(0.354768 0.00155204 0)
(0.323464 0.0011319 0)
(0.299598 0.000910969 0)
(0.280388 0.000747331 0)
(0.264657 0.000624738 0)
(0.251513 0.000534234 0)
(0.240305 0.000465578 0)
(0.230593 0.000411589 0)
(0.22207 0.000367993 0)
(0.214515 0.000332127 0)
(0.207759 0.000302182 0)
(0.201672 0.00027686 0)
(0.196154 0.000255208 0)
(0.191122 0.000236512 0)
(0.18651 0.000220229 0)
(0.182265 0.000205938 0)
(0.178342 0.000193311 0)
(0.174702 0.000182088 0)
(0.171315 0.000172057 0)
(0.168153 0.000163047 0)
(0.165193 0.000154919 0)
(0.162415 0.000147555 0)
(0.159802 0.000140855 0)
(0.157337 0.000134737 0)
(0.155009 0.000129123 0)
(0.152805 0.000123954 0)
(0.150715 0.00011916 0)
(0.14873 0.000114706 0)
(0.146842 0.000110503 0)
(0.145044 0.000106559 0)
(0.143331 0.00010272 0)
(0.141696 9.90792e-05 0)
(0.140138 9.53313e-05 0)
(0.138652 9.17388e-05 0)
(0.137234 8.77175e-05 0)
(0.135897 8.3758e-05 0)
(0.134608 7.89752e-05 0)
(0.133444 7.376e-05 0)
(0.132267 6.77022e-05 0)
(0.131358 5.88926e-05 0)
(0.130239 5.17689e-05 0)
(0.129806 3.18351e-05 0)
(0.12861 3.11739e-05 0)
(0.129097 -5.18529e-05 0)
(0.12811 0.000175481 0)
(0.126168 -0.00285877 0)
(0.991237 0.049901 0)
(0.890354 0.030718 0)
(0.762703 0.014597 0)
(0.656704 0.00797938 0)
(0.585385 0.00488529 0)
(0.535979 0.00347234 0)
(0.498101 0.0027377 0)
(0.46746 0.00224627 0)
(0.442112 0.00188397 0)
(0.420759 0.00161317 0)
(0.402456 0.00140648 0)
(0.386534 0.00124394 0)
(0.372519 0.00111277 0)
(0.360062 0.00100486 0)
(0.348899 0.000914745 0)
(0.338823 0.000838515 0)
(0.329673 0.000773313 0)
(0.321316 0.000716997 0)
(0.313649 0.00066794 0)
(0.306582 0.000624883 0)
(0.300043 0.000586839 0)
(0.293972 0.000553025 0)
(0.288317 0.000522812 0)
(0.283033 0.000495688 0)
(0.278083 0.000471234 0)
(0.273433 0.0004491 0)
(0.269055 0.000428991 0)
(0.264924 0.000410659 0)
(0.261018 0.000393885 0)
(0.257317 0.000378487 0)
(0.253804 0.000364281 0)
(0.250464 0.000351141 0)
(0.247284 0.000338866 0)
(0.24425 0.000327417 0)
(0.241355 0.000316462 0)
(0.238588 0.000306162 0)
(0.235942 0.000295817 0)
(0.233412 0.000286064 0)
(0.230988 0.000275328 0)
(0.228688 0.000265308 0)
(0.226462 0.0002526 0)
(0.224417 0.000240883 0)
(0.222355 0.000223661 0)
(0.220674 0.000206801 0)
(0.21869 0.000181856 0)
(0.217665 0.00014715 0)
(0.215565 0.000124362 0)
(0.215773 -3.64214e-05 0)
(0.213758 0.000238869 0)
(0.213565 -0.00299905 0)
(1.0156 0.0489198 0)
(1.00596 0.0358738 0)
(0.935966 0.0207905 0)
(0.85215 0.0135039 0)
(0.782219 0.00920854 0)
(0.727022 0.00678338 0)
(0.68193 0.00538727 0)
(0.64415 0.00444987 0)
(0.612093 0.00375789 0)
(0.584573 0.00323376 0)
(0.560653 0.00282908 0)
(0.539628 0.00250866 0)
(0.520969 0.00224899 0)
(0.504275 0.00203464 0)
(0.489232 0.00185509 0)
(0.475591 0.00170281 0)
(0.463154 0.00157227 0)
(0.451758 0.00145931 0)
(0.44127 0.00136076 0)
(0.431579 0.00127413 0)
(0.422592 0.0011975 0)
(0.41423 0.00112932 0)
(0.406427 0.00106834 0)
(0.399124 0.00101357 0)
(0.392272 0.000964158 0)
(0.385827 0.000919422 0)
(0.379751 0.000878781 0)
(0.374011 0.000841739 0)
(0.368577 0.000807873 0)
(0.363423 0.000776816 0)
(0.358526 0.000748227 0)
(0.353865 0.000721841 0)
(0.349423 0.000697311 0)
(0.34518 0.000674509 0)
(0.341126 0.000652901 0)
(0.337245 0.000632691 0)
(0.333529 0.000612712 0)
(0.329968 0.000594066 0)
(0.326549 0.000573871 0)
(0.323289 0.000555573 0)
(0.320132 0.000532078 0)
(0.317195 0.000512365 0)
(0.314251 0.000480068 0)
(0.311751 0.000455006 0)
(0.308917 0.000405374 0)
(0.307164 0.000357743 0)
(0.304234 0.000298552 0)
(0.303836 7.3564e-05 0)
(0.300881 0.000280472 0)
(0.301316 -0.00273307 0)
(1.01434 0.0460032 0)
(1.04753 0.037487 0)
(1.02459 0.02415 0)
(0.974778 0.0175583 0)
(0.923475 0.0131229 0)
(0.876708 0.0102086 0)
(0.834541 0.00834742 0)
(0.796777 0.007029 0)
(0.763181 0.00602191 0)
(0.733317 0.00523708 0)
(0.706672 0.0046176 0)
(0.682775 0.0041193 0)
(0.661229 0.00371074 0)
(0.641702 0.00337039 0)
(0.62392 0.00308315 0)
(0.607653 0.00283803 0)
(0.59271 0.0026268 0)
(0.57893 0.00244319 0)
(0.566178 0.00228238 0)
(0.554337 0.00214057 0)
(0.54331 0.00201475 0)
(0.533012 0.00190251 0)
(0.523369 0.00180192 0)
(0.514317 0.00171137 0)
(0.505801 0.00162955 0)
(0.497771 0.00155536 0)
(0.490185 0.00148787 0)
(0.483003 0.00142631 0)
(0.476193 0.00136998 0)
(0.469722 0.00131832 0)
(0.463564 0.00127078 0)
(0.457694 0.00122692 0)
(0.452092 0.00118624 0)
(0.446735 0.00114849 0)
(0.441609 0.00111292 0)
(0.436696 0.00107974 0)
(0.431984 0.0010473 0)
(0.427461 0.00101719 0)
(0.423112 0.00098509 0)
(0.418952 0.000956395 0)
(0.414922 0.000919869 0)
(0.411138 0.000890521 0)
(0.407373 0.000840805 0)
(0.404067 0.000806334 0)
(0.400465 0.000729383 0)
(0.397926 0.000667325 0)
(0.39431 0.000567177 0)
(0.39309 0.000285195 0)
(0.389528 0.000381187 0)
(0.389383 -0.00236718 0)
(1.00933 0.0429145 0)
(1.05528 0.037262 0)
(1.05869 0.0252937 0)
(1.03639 0.0197574 0)
(1.00712 0.0158116 0)
(0.976083 0.0129385 0)
(0.944557 0.0109656 0)
(0.913679 0.00948723 0)
(0.884298 0.00830084 0)
(0.856798 0.00733704 0)
(0.831255 0.00655087 0)
(0.807609 0.0059022 0)
(0.785738 0.00535963 0)
(0.765499 0.00490033 0)
(0.746748 0.00450758 0)
(0.729345 0.00416871 0)
(0.713161 0.00387399 0)
(0.698079 0.00361578 0)
(0.683993 0.00338809 0)
(0.67081 0.0031861 0)
(0.658447 0.00300597 0)
(0.646829 0.00284456 0)
(0.635889 0.00269929 0)
(0.62557 0.00256806 0)
(0.615819 0.00244909 0)
(0.606588 0.0023409 0)
(0.597835 0.00224224 0)
(0.589522 0.00215202 0)
(0.581615 0.00206934 0)
(0.574082 0.00199336 0)
(0.566897 0.00192338 0)
(0.560031 0.00185877 0)
(0.553465 0.00179885 0)
(0.547174 0.00174325 0)
(0.541144 0.001691 0)
(0.535353 0.00164231 0)
(0.529791 0.00159506 0)
(0.524442 0.00155126 0)
(0.519293 0.00150526 0)
(0.514351 0.00146421 0)
(0.509566 0.00141304 0)
(0.505036 0.00137216 0)
(0.500563 0.00130407 0)
(0.496528 0.00125765 0)
(0.492281 0.00115418 0)
(0.488985 0.0010727 0)
(0.484844 0.000934383 0)
(0.482729 0.000594697 0)
(0.478834 0.000579157 0)
(0.477654 -0.00192499 0)
(1.00625 0.040033 0)
(1.05206 0.0363343 0)
(1.0661 0.0252224 0)
(1.05961 0.0205564 0)
(1.0469 0.0172376 0)
(1.03083 0.014658 0)
(1.01193 0.0128255 0)
(0.991247 0.0114051 0)
(0.969821 0.0102136 0)
(0.948384 0.0092031 0)
(0.92738 0.00834801 0)
(0.907071 0.00762039 0)
(0.887602 0.00699577 0)
(0.869043 0.0064553 0)
(0.851414 0.00598446 0)
(0.834702 0.00557175 0)
(0.818878 0.0052079 0)
(0.803899 0.00488539 0)
(0.789718 0.00459808 0)
(0.776288 0.00434093 0)
(0.76356 0.0041098 0)
(0.751488 0.00390124 0)
(0.740027 0.00371239 0)
(0.729135 0.00354082 0)
(0.718773 0.00338451 0)
(0.708905 0.00324171 0)
(0.699497 0.00311096 0)
(0.690517 0.00299096 0)
(0.681937 0.00288061 0)
(0.673729 0.00277891 0)
(0.665871 0.00268501 0)
(0.658337 0.00259812 0)
(0.651108 0.00251743 0)
(0.644163 0.00244244 0)
(0.637487 0.00237201 0)
(0.631061 0.00230634 0)
(0.624874 0.00224288 0)
(0.61891 0.00218397 0)
(0.613158 0.00212286 0)
(0.607621 0.00206802 0)
(0.60226 0.0020014 0)
(0.597147 0.00194723 0)
(0.59213 0.001861 0)
(0.587507 0.00179955 0)
(0.582773 0.00167231 0)
(0.578833 0.00156532 0)
(0.574322 0.00139438 0)
(0.571397 0.000995287 0)
(0.567295 0.000874748 0)
(0.56514 -0.00139487 0)
(1.00495 0.0373549 0)
(1.04727 0.035252 0)
(1.06398 0.024682 0)
(1.06427 0.020582 0)
(1.0607 0.0177746 0)
(1.05478 0.0154999 0)
(1.04603 0.0138827 0)
(1.03485 0.0126278 0)
(1.02193 0.0115482 0)
(1.00789 0.0106021 0)
(0.993168 0.00977605 0)
(0.97813 0.0090525 0)
(0.963035 0.00841464 0)
(0.948076 0.00784929 0)
(0.933391 0.0073461 0)
(0.919071 0.00689657 0)
(0.905175 0.00649355 0)
(0.89174 0.00613096 0)
(0.878781 0.00580367 0)
(0.866306 0.00550728 0)
(0.85431 0.00523809 0)
(0.842783 0.00499291 0)
(0.831712 0.00476901 0)
(0.821082 0.00456407 0)
(0.810873 0.00437607 0)
(0.801067 0.00420324 0)
(0.791646 0.00404409 0)
(0.78259 0.00389725 0)
(0.773881 0.00376159 0)
(0.765502 0.00363602 0)
(0.757435 0.00351962 0)
(0.749663 0.00341153 0)
(0.742172 0.00331088 0)
(0.734945 0.00321707 0)
(0.727972 0.00312885 0)
(0.721234 0.00304638 0)
(0.714727 0.00296686 0)
(0.708434 0.00289276 0)
(0.702349 0.0028166 0)
(0.69647 0.00274759 0)
(0.690772 0.00266582 0)
(0.685303 0.00259737 0)
(0.679957 0.00249423 0)
(0.674952 0.00241535 0)
(0.669921 0.00226779 0)
(0.665527 0.00213083 0)
(0.6608 0.00193186 0)
(0.657264 0.00147669 0)
(0.653029 0.00125698 0)
(0.650127 -0.000786977 0)
(1.0044 0.0348069 0)
(1.04324 0.0341786 0)
(1.05995 0.0240405 0)
(1.0623 0.0202875 0)
(1.06252 0.0178376 0)
(1.06184 0.0157801 0)
(1.05928 0.0143364 0)
(1.05474 0.0132473 0)
(1.04853 0.0123108 0)
(1.04096 0.0114778 0)
(1.03231 0.0107374 0)
(1.02282 0.0100761 0)
(1.01273 0.00948091 0)
(1.00222 0.00894231 0)
(0.991479 0.00845322 0)
(0.980618 0.00800797 0)
(0.969745 0.00760175 0)
(0.958941 0.00723036 0)
(0.948268 0.00689015 0)
(0.937771 0.0065779 0)
(0.927485 0.00629082 0)
(0.917431 0.00602641 0)
(0.907627 0.00578251 0)
(0.898082 0.00555717 0)
(0.8888 0.00534869 0)
(0.879783 0.00515555 0)
(0.871029 0.00497642 0)
(0.862535 0.00481005 0)
(0.854295 0.0046554 0)
(0.846303 0.00451145 0)
(0.838553 0.00437733 0)
(0.831035 0.00425219 0)
(0.823744 0.00413516 0)
(0.81667 0.00402565 0)
(0.809807 0.00392236 0)
(0.803145 0.00382543 0)
(0.79668 0.00373192 0)
(0.790401 0.00364434 0)
(0.784307 0.00355484 0)
(0.778394 0.00347278 0)
(0.772648 0.00337753 0)
(0.767103 0.00329518 0)
(0.761687 0.00317739 0)
(0.756553 0.00308027 0)
(0.751452 0.00291602 0)
(0.746849 0.00274766 0)
(0.742085 0.00252376 0)
(0.738191 0.00202088 0)
(0.733924 0.00170904 0)
(0.730535 -0.000123127 0)
(1.00402 0.0323667 0)
(1.03991 0.0331282 0)
(1.05617 0.023417 0)
(1.05894 0.0198987 0)
(1.06024 0.0177063 0)
(1.06161 0.0157833 0)
(1.062 0.0144406 0)
(1.06112 0.0134666 0)
(1.05907 0.0126465 0)
(1.05595 0.01192 0)
(1.05186 0.0112736 0)
(1.04691 0.0106933 0)
(1.04121 0.0101663 0)
(1.03489 0.00968351 0)
(1.02807 0.00923898 0)
(1.02086 0.00882839 0)
(1.01336 0.00844828 0)
(1.00565 0.00809576 0)
(0.997794 0.00776836 0)
(0.989861 0.00746391 0)
(0.9819 0.00718052 0)
(0.973951 0.00691649 0)
(0.966048 0.00667029 0)
(0.958218 0.00644054 0)
(0.950483 0.006226 0)
(0.942858 0.00602551 0)
(0.935357 0.00583805 0)
(0.92799 0.00566264 0)
(0.920763 0.00549843 0)
(0.91368 0.00534457 0)
(0.906746 0.00520033 0)
(0.899961 0.00506497 0)
(0.893327 0.00493771 0)
(0.886841 0.00481802 0)
(0.880505 0.00470463 0)
(0.874314 0.00459771 0)
(0.86827 0.00449428 0)
(0.862367 0.00439684 0)
(0.856608 0.0042974 0)
(0.850992 0.00420513 0)
(0.845512 0.0040995 0)
(0.840193 0.00400525 0)
(0.83499 0.00387614 0)
(0.830011 0.00376191 0)
(0.825091 0.00358487 0)
(0.820546 0.00338682 0)
(0.815951 0.0031406 0)
(0.811973 0.00260156 0)
(0.807819 0.00220736 0)
(0.804207 0.000572979 0)
(1.00364 0.0300262 0)
(1.03692 0.0320804 0)
(1.05283 0.0228268 0)
(1.0557 0.0194927 0)
(1.05715 0.0175132 0)
(1.05906 0.015682 0)
(1.06052 0.0143866 0)
(1.06123 0.0134757 0)
(1.06125 0.0127293 0)
(1.06061 0.0120775 0)
(1.05932 0.011504 0)
(1.05737 0.0109936 0)
(1.0548 0.0105318 0)
(1.05167 0.0101085 0)
(1.04803 0.00971725 0)
(1.04393 0.00935354 0)
(1.03944 0.0090141 0)
(1.03462 0.0086964 0)
(1.02953 0.00839843 0)
(1.0242 0.00811854 0)
(1.0187 0.00785536 0)
(1.01306 0.00760771 0)
(1.00731 0.00737456 0)
(1.00149 0.00715496 0)
(0.99563 0.00694808 0)
(0.989748 0.00675311 0)
(0.983864 0.00656936 0)
(0.977997 0.0063961 0)
(0.972161 0.00623272 0)
(0.966368 0.00607859 0)
(0.960628 0.00593315 0)
(0.954949 0.0057958 0)
(0.949338 0.00566591 0)
(0.943801 0.00554303 0)
(0.938344 0.005426 0)
(0.932968 0.00531503 0)
(0.927679 0.00520718 0)
(0.922477 0.00510488 0)
(0.917367 0.00500026 0)
(0.912353 0.00490198 0)
(0.907434 0.00479029 0)
(0.902629 0.00468757 0)
(0.897912 0.00455141 0)
(0.893359 0.00442296 0)
(0.888866 0.00423743 0)
(0.884643 0.00401397 0)
(0.880429 0.00374864 0)
(0.876629 0.00318619 0)
(0.872758 0.00272362 0)
(0.86918 0.00126842 0)
(1.00327 0.0277863 0)
(1.03409 0.0310214 0)
(1.04971 0.0222629 0)
(1.05274 0.0190846 0)
(1.05415 0.0173013 0)
(1.05612 0.0155515 0)
(1.05785 0.014278 0)
(1.05908 0.0133972 0)
(1.05992 0.0126915 0)
(1.06039 0.0120833 0)
(1.06049 0.0115552 0)
(1.06018 0.0110919 0)
(1.05947 0.0106779 0)
(1.05836 0.0103018 0)
(1.05685 0.0099562 0)
(1.05497 0.00963582 0)
(1.05274 0.00933693 0)
(1.05019 0.0090567 0)
(1.04734 0.008793 0)
(1.04423 0.00854417 0)
(1.04089 0.0083089 0)
(1.03735 0.00808618 0)
(1.03363 0.00787514 0)
(1.02976 0.00767506 0)
(1.02576 0.00748531 0)
(1.02166 0.00730531 0)
(1.01748 0.00713456 0)
(1.01323 0.00697252 0)
(1.00892 0.00681877 0)
(1.00459 0.00667282 0)
(1.00022 0.00653427 0)
(0.995846 0.00640266 0)
(0.991468 0.00627745 0)
(0.987097 0.00615834 0)
(0.982741 0.00604422 0)
(0.978406 0.00593538 0)
(0.974101 0.00582895 0)
(0.96983 0.00572727 0)
(0.9656 0.00562271 0)
(0.961417 0.00552323 0)
(0.957283 0.00541032 0)
(0.953218 0.00530337 0)
(0.949205 0.00516486 0)
(0.9453 0.00502629 0)
(0.941441 0.00483667 0)
(0.93776 0.00459391 0)
(0.93411 0.00431328 0)
(0.930715 0.00374061 0)
(0.927287 0.00322636 0)
(0.923969 0.00192779 0)
(1.00292 0.0256504 0)
(1.03138 0.0299466 0)
(1.04671 0.0217212 0)
(1.04995 0.0186745 0)
(1.05134 0.0170774 0)
(1.05327 0.0154139 0)
(1.05503 0.0141556 0)
(1.05638 0.0132903 0)
(1.05745 0.0126077 0)
(1.05831 0.0120235 0)
(1.05897 0.0115203 0)
(1.05941 0.011084 0)
(1.05961 0.0106991 0)
(1.05957 0.0103537 0)
(1.05927 0.0100396 0)
(1.05872 0.00975103 0)
(1.05792 0.00948377 0)
(1.05688 0.00923452 0)
(1.0556 0.00900078 0)
(1.0541 0.00878063 0)
(1.05238 0.00857258 0)
(1.05047 0.0083755 0)
(1.04838 0.00818847 0)
(1.04613 0.00801076 0)
(1.04372 0.00784177 0)
(1.04118 0.00768095 0)
(1.03852 0.00752787 0)
(1.03575 0.00738207 0)
(1.03289 0.00724318 0)
(1.02994 0.00711079 0)
(1.02693 0.00698456 0)
(1.02385 0.00686412 0)
(1.02073 0.006749 0)
(1.01756 0.00663896 0)
(1.01437 0.00653294 0)
(1.01115 0.00643127 0)
(1.00791 0.00633116 0)
(1.00467 0.00623481 0)
(1.00143 0.00613495 0)
(0.998187 0.00603863 0)
(0.99496 0.00592896 0)
(0.99176 0.00582189 0)
(0.98858 0.00568541 0)
(0.985456 0.00554114 0)
(0.982361 0.00535147 0)
(0.979367 0.00509625 0)
(0.976404 0.00480453 0)
(0.973575 0.00423403 0)
(0.97071 0.00368484 0)
(0.967823 0.00252446 0)
(1.0026 0.0236212 0)
(1.0288 0.0288549 0)
(1.04379 0.0212004 0)
(1.04726 0.0182622 0)
(1.04865 0.0168398 0)
(1.05055 0.0152716 0)
(1.0523 0.0140306 0)
(1.05366 0.0131761 0)
(1.05476 0.0125099 0)
(1.05572 0.0119409 0)
(1.05655 0.0114515 0)
(1.05726 0.0110298 0)
(1.05782 0.0106609 0)
(1.05825 0.010333 0)
(1.05854 0.0100376 0)
(1.05867 0.00976899 0)
(1.05864 0.00952245 0)
(1.05846 0.00929448 0)
(1.05811 0.00908232 0)
(1.05761 0.0088838 0)
(1.05695 0.00869721 0)
(1.05614 0.00852121 0)
(1.05519 0.00835477 0)
(1.05409 0.00819703 0)
(1.05286 0.00804732 0)
(1.05151 0.00790502 0)
(1.05004 0.00776966 0)
(1.04846 0.00764076 0)
(1.04677 0.00751791 0)
(1.045 0.00740071 0)
(1.04313 0.0072888 0)
(1.04119 0.00718182 0)
(1.03918 0.00707929 0)
(1.0371 0.00698101 0)
(1.03497 0.00688591 0)
(1.03279 0.00679433 0)
(1.03057 0.00670353 0)
(1.02831 0.00661551 0)
(1.02603 0.00652344 0)
(1.02372 0.00643331 0)
(1.0214 0.00633005 0)
(1.01908 0.006226 0)
(1.01675 0.00609478 0)
(1.01444 0.0059487 0)
(1.01214 0.00576203 0)
(1.00989 0.0055008 0)
(1.00765 0.00520217 0)
(1.00546 0.00464406 0)
(1.00321 0.00407612 0)
(1.00085 0.00303743 0)
(1.0023 0.0217005 0)
(1.02634 0.027747 0)
(1.04096 0.0206989 0)
(1.04465 0.0178493 0)
(1.04607 0.0165874 0)
(1.04793 0.0151233 0)
(1.04968 0.0139042 0)
(1.05103 0.0130596 0)
(1.05213 0.012408 0)
(1.05309 0.0118516 0)
(1.05395 0.0113719 0)
(1.05472 0.010959 0)
(1.0554 0.0105993 0)
(1.056 0.0102811 0)
(1.05651 0.00999629 0)
(1.05693 0.00973891 0)
(1.05725 0.00950445 0)
(1.05749 0.00928932 0)
(1.05762 0.00909064 0)
(1.05766 0.00890614 0)
(1.05759 0.00873398 0)
(1.05742 0.00857271 0)
(1.05716 0.00842116 0)
(1.05679 0.00827838 0)
(1.05632 0.0081436 0)
(1.05576 0.00801614 0)
(1.0551 0.00789543 0)
(1.05436 0.00778093 0)
(1.05352 0.00767218 0)
(1.0526 0.00756871 0)
(1.05161 0.00747011 0)
(1.05053 0.00737598 0)
(1.04939 0.00728579 0)
(1.04818 0.00719932 0)
(1.04692 0.00711546 0)
(1.0456 0.00703452 0)
(1.04422 0.00695379 0)
(1.04281 0.00687503 0)
(1.04135 0.00679186 0)
(1.03986 0.00670914 0)
(1.03835 0.00661374 0)
(1.03681 0.00651436 0)
(1.03526 0.00639003 0)
(1.0337 0.00624483 0)
(1.03214 0.00606283 0)
(1.03058 0.0058008 0)
(1.02903 0.00549882 0)
(1.02747 0.00496057 0)
(1.02582 0.00438807 0)
(1.02401 0.00345642 0)
(1.00203 0.019889 0)
(1.02402 0.026626 0)
(1.03823 0.0202135 0)
(1.04213 0.0174376 0)
(1.04357 0.0163202 0)
(1.0454 0.0149675 0)
(1.04716 0.0137756 0)
(1.04851 0.0129411 0)
(1.04959 0.012304 0)
(1.05053 0.0117602 0)
(1.05139 0.0112892 0)
(1.05216 0.0108832 0)
(1.05286 0.01053 0)
(1.0535 0.0102181 0)
(1.05407 0.00993959 0)
(1.05459 0.00968875 0)
(1.05505 0.00946118 0)
(1.05545 0.00925336 0)
(1.05579 0.00906247 0)
(1.05607 0.00888621 0)
(1.05629 0.00872275 0)
(1.05645 0.00857059 0)
(1.05654 0.00842852 0)
(1.05657 0.00829554 0)
(1.05653 0.00817083 0)
(1.05643 0.00805366 0)
(1.05627 0.00794341 0)
(1.05604 0.00783949 0)
(1.05574 0.00774136 0)
(1.05538 0.00764851 0)
(1.05496 0.00756045 0)
(1.05449 0.00747674 0)
(1.05395 0.00739676 0)
(1.05336 0.00732027 0)
(1.05272 0.0072461 0)
(1.05202 0.00717448 0)
(1.05129 0.00710278 0)
(1.05051 0.00703239 0)
(1.04969 0.00695753 0)
(1.04884 0.00688178 0)
(1.04796 0.00679398 0)
(1.04706 0.00669944 0)
(1.04613 0.00658201 0)
(1.04519 0.00643902 0)
(1.04425 0.00626194 0)
(1.04328 0.00600265 0)
(1.04231 0.0057 0)
(1.04129 0.00518615 0)
(1.04017 0.0046204 0)
(1.03885 0.00378268 0)
(1.00179 0.018187 0)
(1.02184 0.0254958 0)
(1.03559 0.0197405 0)
(1.03969 0.017029 0)
(1.04117 0.016039 0)
(1.04296 0.0148033 0)
(1.04471 0.0136445 0)
(1.04607 0.0128203 0)
(1.04714 0.0121979 0)
(1.04807 0.0116672 0)
(1.04891 0.0112051 0)
(1.04968 0.0108059 0)
(1.05037 0.0104583 0)
(1.051 0.0101516 0)
(1.05158 0.00987784 0)
(1.05212 0.0096315 0)
(1.05261 0.00940835 0)
(1.05306 0.00920501 0)
(1.05347 0.00901873 0)
(1.05385 0.0088473 0)
(1.05418 0.00868889 0)
(1.05448 0.00854204 0)
(1.05473 0.00840556 0)
(1.05495 0.00827845 0)
(1.05512 0.0081599 0)
(1.05526 0.00804917 0)
(1.05535 0.00794561 0)
(1.0554 0.00784861 0)
(1.05541 0.0077576 0)
(1.05537 0.00767202 0)
(1.05529 0.00759131 0)
(1.05517 0.00751502 0)
(1.05501 0.00744245 0)
(1.05481 0.00737332 0)
(1.05457 0.00730641 0)
(1.05429 0.00724185 0)
(1.05398 0.0071771 0)
(1.05363 0.0071132 0)
(1.05326 0.00704491 0)
(1.05286 0.00697463 0)
(1.05243 0.00689305 0)
(1.05198 0.00680243 0)
(1.05152 0.00669071 0)
(1.05103 0.00655011 0)
(1.05054 0.00637715 0)
(1.05003 0.00612258 0)
(1.04949 0.00582102 0)
(1.0489 0.00533355 0)
(1.04819 0.00478277 0)
(1.04727 0.00402715 0)
(1.00157 0.0165942 0)
(1.01979 0.0243604 0)
(1.03305 0.0192758 0)
(1.03734 0.0166252 0)
(1.03885 0.0157449 0)
(1.04061 0.01463 0)
(1.04236 0.0135104 0)
(1.04372 0.0126973 0)
(1.04478 0.0120893 0)
(1.0457 0.0115724 0)
(1.04653 0.01112 0)
(1.04728 0.0107275 0)
(1.04796 0.0103857 0)
(1.04858 0.010084 0)
(1.04915 0.00981454 0)
(1.04968 0.00957205 0)
(1.05018 0.00935244 0)
(1.05063 0.00915242 0)
(1.05106 0.00896936 0)
(1.05146 0.00880109 0)
(1.05183 0.00864586 0)
(1.05217 0.00850226 0)
(1.05248 0.00836914 0)
(1.05277 0.00824552 0)
(1.05303 0.00813063 0)
(1.05327 0.00802374 0)
(1.05348 0.00792422 0)
(1.05366 0.00783145 0)
(1.05381 0.00774485 0)
(1.05393 0.00766385 0)
(1.05403 0.00758784 0)
(1.0541 0.00751634 0)
(1.05414 0.00744861 0)
(1.05416 0.00738433 0)
(1.05415 0.00732226 0)
(1.05411 0.00726241 0)
(1.05405 0.0072024 0)
(1.05397 0.00714282 0)
(1.05387 0.00707907 0)
(1.05375 0.00701238 0)
(1.05361 0.00693514 0)
(1.05345 0.00684705 0)
(1.05329 0.00673932 0)
(1.05311 0.00660062 0)
(1.05293 0.00643046 0)
(1.05272 0.0061814 0)
(1.05248 0.00588214 0)
(1.05218 0.00542111 0)
(1.05176 0.0048908 0)
(1.05114 0.00420663 0)
(1.00137 0.0151096 0)
(1.01788 0.0232237 0)
(1.03062 0.0188154 0)
(1.03508 0.0162277 0)
(1.03664 0.0154396 0)
(1.03835 0.014447 0)
(1.04009 0.0133731 0)
(1.04145 0.012572 0)
(1.04251 0.0119783 0)
(1.04342 0.0114758 0)
(1.04424 0.0110335 0)
(1.04498 0.0106483 0)
(1.04564 0.0103123 0)
(1.04625 0.0100157 0)
(1.04681 0.0097506 0)
(1.04733 0.00951189 0)
(1.04782 0.0092956 0)
(1.04827 0.00909857 0)
(1.04869 0.00891824 0)
(1.04908 0.00875252 0)
(1.04945 0.00859971 0)
(1.0498 0.00845845 0)
(1.05013 0.00832762 0)
(1.05044 0.00820631 0)
(1.05073 0.00809375 0)
(1.051 0.00798928 0)
(1.05125 0.00789227 0)
(1.05148 0.00780212 0)
(1.05169 0.00771824 0)
(1.05188 0.00764005 0)
(1.05206 0.00756694 0)
(1.05222 0.00749839 0)
(1.05235 0.00743364 0)
(1.05247 0.00737232 0)
(1.05258 0.00731322 0)
(1.05267 0.0072562 0)
(1.05274 0.00719905 0)
(1.0528 0.00714198 0)
(1.05284 0.00708095 0)
(1.05288 0.0070162 0)
(1.0529 0.00694151 0)
(1.05292 0.00685464 0)
(1.05293 0.00674916 0)
(1.05293 0.00661171 0)
(1.05293 0.00644309 0)
(1.0529 0.00619968 0)
(1.05285 0.00590366 0)
(1.05273 0.00546801 0)
(1.05249 0.00496154 0)
(1.05206 0.00433956 0)
(1.0012 0.0137317 0)
(1.01611 0.0220899 0)
(1.0283 0.0183558 0)
(1.0329 0.0158377 0)
(1.03451 0.0151245 0)
(1.03619 0.0142537 0)
(1.03791 0.0132321 0)
(1.03928 0.0124445 0)
(1.04034 0.0118647 0)
(1.04124 0.0113771 0)
(1.04204 0.0109456 0)
(1.04277 0.0105679 0)
(1.04342 0.0102381 0)
(1.04402 0.00994671 0)
(1.04457 0.00968614 0)
(1.04508 0.0094513 0)
(1.04555 0.00923837 0)
(1.04599 0.00904431 0)
(1.0464 0.00886663 0)
(1.04678 0.0087033 0)
(1.04715 0.00855268 0)
(1.04749 0.00841344 0)
(1.04782 0.00828452 0)
(1.04812 0.00816503 0)
(1.04841 0.00805425 0)
(1.04869 0.00795155 0)
(1.04895 0.00785632 0)
(1.04919 0.00776798 0)
(1.04942 0.00768593 0)
(1.04964 0.00760961 0)
(1.04984 0.00753837 0)
(1.05003 0.00747169 0)
(1.0502 0.0074088 0)
(1.05037 0.00734927 0)
(1.05052 0.00729193 0)
(1.05066 0.00723651 0)
(1.05079 0.00718096 0)
(1.05091 0.00712513 0)
(1.05103 0.00706552 0)
(1.05114 0.0070015 0)
(1.05125 0.00692803 0)
(1.05135 0.00684141 0)
(1.05145 0.00673685 0)
(1.05154 0.00660013 0)
(1.05163 0.00643218 0)
(1.0517 0.00619435 0)
(1.05174 0.00590252 0)
(1.05171 0.00549079 0)
(1.05158 0.00501003 0)
(1.05125 0.00444248 0)
(1.00104 0.0124581 0)
(1.01447 0.0209632 0)
(1.02609 0.0178934 0)
(1.03081 0.015456 0)
(1.03248 0.0148018 0)
(1.03412 0.0140498 0)
(1.03582 0.0130869 0)
(1.03719 0.0123148 0)
(1.03825 0.0117486 0)
(1.03914 0.0112761 0)
(1.03993 0.0108561 0)
(1.04065 0.0104865 0)
(1.04129 0.010163 0)
(1.04188 0.00987702 0)
(1.04242 0.00962113 0)
(1.04292 0.00939029 0)
(1.04338 0.00918083 0)
(1.0438 0.00898981 0)
(1.0442 0.00881483 0)
(1.04458 0.0086539 0)
(1.04493 0.00850545 0)
(1.04527 0.00836818 0)
(1.04558 0.00824106 0)
(1.04588 0.00812326 0)
(1.04617 0.00801408 0)
(1.04644 0.00791291 0)
(1.04669 0.00781918 0)
(1.04693 0.00773232 0)
(1.04716 0.00765174 0)
(1.04738 0.00757686 0)
(1.04759 0.00750702 0)
(1.04778 0.00744169 0)
(1.04797 0.00738008 0)
(1.04814 0.00732173 0)
(1.04831 0.00726549 0)
(1.04847 0.00721098 0)
(1.04862 0.00715631 0)
(1.04877 0.007101 0)
(1.04891 0.00704202 0)
(1.04905 0.00697804 0)
(1.04919 0.00690494 0)
(1.04932 0.00681803 0)
(1.04946 0.00671357 0)
(1.04959 0.00657736 0)
(1.04972 0.00640972 0)
(1.04983 0.00617745 0)
(1.04991 0.00589091 0)
(1.04992 0.00550166 0)
(1.04983 0.00504751 0)
(1.04956 0.00452816 0)
(1.0009 0.0112861 0)
(1.01296 0.0198479 0)
(1.02399 0.0174252 0)
(1.0288 0.0150829 0)
(1.03055 0.0144734 0)
(1.03214 0.0138349 0)
(1.03382 0.0129368 0)
(1.0352 0.0121829 0)
(1.03625 0.0116299 0)
(1.03713 0.0111728 0)
(1.03792 0.0107649 0)
(1.03862 0.0104037 0)
(1.03926 0.0100869 0)
(1.03984 0.00980652 0)
(1.04036 0.00955548 0)
(1.04085 0.0093288 0)
(1.0413 0.00912293 0)
(1.04172 0.00893506 0)
(1.04211 0.00876285 0)
(1.04247 0.0086044 0)
(1.04282 0.00845816 0)
(1.04314 0.00832288 0)
(1.04345 0.00819759 0)
(1.04374 0.00808146 0)
(1.04401 0.00797386 0)
(1.04427 0.00787419 0)
(1.04452 0.00778189 0)
(1.04476 0.00769642 0)
(1.04498 0.00761718 0)
(1.04519 0.00754359 0)
(1.04539 0.00747498 0)
(1.04559 0.00741079 0)
(1.04577 0.00735023 0)
(1.04594 0.0072928 0)
(1.04611 0.00723738 0)
(1.04627 0.00718346 0)
(1.04642 0.00712932 0)
(1.04657 0.0070742 0)
(1.04672 0.00701545 0)
(1.04687 0.00695122 0)
(1.04702 0.00687805 0)
(1.04716 0.0067907 0)
(1.04731 0.00668595 0)
(1.04745 0.00655031 0)
(1.04758 0.00638308 0)
(1.0477 0.00615649 0)
(1.04778 0.00587644 0)
(1.0478 0.00550846 0)
(1.04772 0.00508122 0)
(1.04748 0.00460521 0)
(1.00078 0.010212 0)
(1.01157 0.0187486 0)
(1.02201 0.0169484 0)
(1.02688 0.0147187 0)
(1.0287 0.0141415 0)
(1.03026 0.0136092 0)
(1.03191 0.0127812 0)
(1.03329 0.0120487 0)
(1.03434 0.0115087 0)
(1.03522 0.0110671 0)
(1.03599 0.010672 0)
(1.03669 0.0103197 0)
(1.03732 0.0100097 0)
(1.03789 0.00973513 0)
(1.0384 0.00948913 0)
(1.03888 0.00926676 0)
(1.03932 0.00906461 0)
(1.03973 0.00887999 0)
(1.04011 0.00871065 0)
(1.04046 0.00855475 0)
(1.0408 0.0084108 0)
(1.04111 0.00827758 0)
(1.04141 0.00815415 0)
(1.04169 0.00803975 0)
(1.04196 0.00793375 0)
(1.04221 0.0078356 0)
(1.04245 0.00774475 0)
(1.04268 0.00766068 0)
(1.04289 0.00758277 0)
(1.0431 0.00751045 0)
(1.04329 0.00744303 0)
(1.04348 0.00737993 0)
(1.04365 0.00732036 0)
(1.04382 0.00726376 0)
(1.04398 0.00720906 0)
(1.04414 0.00715564 0)
(1.04429 0.00710191 0)
(1.04443 0.00704688 0)
(1.04458 0.00698821 0)
(1.04472 0.00692368 0)
(1.04486 0.00685027 0)
(1.04501 0.00676255 0)
(1.04515 0.00665747 0)
(1.04528 0.00652263 0)
(1.04541 0.00635625 0)
(1.04552 0.0061356 0)
(1.0456 0.00586326 0)
(1.04561 0.00551562 0)
(1.04552 0.00511523 0)
(1.04529 0.00467874 0)
(1.00067 0.00923186 0)
(1.01031 0.0176697 0)
(1.02013 0.0164608 0)
(1.02505 0.014363 0)
(1.02694 0.0138081 0)
(1.02847 0.0133728 0)
(1.03009 0.0126195 0)
(1.03147 0.0119121 0)
(1.03252 0.011385 0)
(1.03339 0.0109587 0)
(1.03416 0.010577 0)
(1.03485 0.0102342 0)
(1.03547 0.00993127 0)
(1.03603 0.00966278 0)
(1.03653 0.00942199 0)
(1.037 0.0092041 0)
(1.03743 0.00900581 0)
(1.03783 0.00882455 0)
(1.0382 0.00865818 0)
(1.03855 0.00850492 0)
(1.03888 0.00836332 0)
(1.03918 0.00823223 0)
(1.03947 0.00811073 0)
(1.03974 0.00799811 0)
(1.04 0.00789376 0)
(1.04025 0.00779717 0)
(1.04048 0.00770782 0)
(1.0407 0.00762517 0)
(1.0409 0.00754863 0)
(1.0411 0.0074776 0)
(1.04129 0.0074114 0)
(1.04146 0.0073494 0)
(1.04163 0.00729083 0)
(1.04179 0.00723506 0)
(1.04195 0.00718108 0)
(1.04209 0.00712815 0)
(1.04224 0.00707482 0)
(1.04238 0.0070199 0)
(1.04252 0.00696128 0)
(1.04265 0.00689653 0)
(1.04279 0.0068229 0)
(1.04292 0.006735 0)
(1.04305 0.00662975 0)
(1.04318 0.00649606 0)
(1.0433 0.00633115 0)
(1.04339 0.00611679 0)
(1.04345 0.00585331 0)
(1.04345 0.00552534 0)
(1.04335 0.00515144 0)
(1.04312 0.00475147 0)
(1.00058 0.00834099 0)
(1.00917 0.0166154 0)
(1.01838 0.0159608 0)
(1.0233 0.0140152 0)
(1.02527 0.013475 0)
(1.02677 0.0131263 0)
(1.02836 0.012451 0)
(1.02973 0.0117728 0)
(1.03079 0.0112589 0)
(1.03165 0.0108477 0)
(1.03241 0.0104799 0)
(1.03309 0.0101471 0)
(1.0337 0.00985163 0)
(1.03426 0.00958936 0)
(1.03476 0.00935398 0)
(1.03521 0.00914073 0)
(1.03564 0.00894644 0)
(1.03603 0.00876867 0)
(1.03639 0.00860538 0)
(1.03673 0.00845484 0)
(1.03705 0.00831568 0)
(1.03735 0.00818678 0)
(1.03763 0.00806727 0)
(1.03789 0.00795648 0)
(1.03814 0.00785384 0)
(1.03838 0.00775887 0)
(1.0386 0.00767106 0)
(1.03881 0.00758989 0)
(1.03901 0.00751476 0)
(1.0392 0.00744507 0)
(1.03938 0.00738012 0)
(1.03955 0.00731927 0)
(1.03971 0.00726173 0)
(1.03987 0.00720683 0)
(1.04001 0.0071536 0)
(1.04015 0.00710121 0)
(1.04029 0.0070483 0)
(1.04042 0.00699356 0)
(1.04055 0.00693505 0)
(1.04068 0.00687021 0)
(1.04081 0.00679647 0)
(1.04093 0.00670862 0)
(1.04105 0.00660349 0)
(1.04117 0.00647133 0)
(1.04127 0.00630862 0)
(1.04135 0.00610093 0)
(1.04139 0.00584731 0)
(1.04137 0.00553851 0)
(1.04126 0.00519057 0)
(1.04103 0.00482466 0)
(1.0005 0.00753437 0)
(1.00814 0.0155901 0)
(1.01673 0.0154473 0)
(1.02164 0.0136744 0)
(1.02369 0.0131442 0)
(1.02516 0.0128706 0)
(1.02671 0.0122753 0)
(1.02807 0.0116305 0)
(1.02914 0.0111303 0)
(1.03 0.0107339 0)
(1.03075 0.0103804 0)
(1.03142 0.0100583 0)
(1.03203 0.00977062 0)
(1.03257 0.00951479 0)
(1.03307 0.009285 0)
(1.03352 0.00907657 0)
(1.03393 0.00888643 0)
(1.03432 0.00871227 0)