/*--------------------------------*- C++ -*----------------------------------*\
  =========                 |
  \\      /  F ield         | OpenFOAM: The Open Source CFD Toolbox
   \\    /   O peration     | Website:  https://openfoam.org
    \\  /    A nd           | Version:  7
     \\/     M anipulation  |
\*---------------------------------------------------------------------------*/
FoamFile
{
    version     2.0;
    format      ascii;
    class       volVectorField;
    location    "0.09";
    object      U_0;
}
// * * * * * * * * * * * * * * * * * * * * * * * * * * * * * * * * * * * * * //

dimensions      [0 1 -1 0 0 0 0];

internalField   nonuniform List<vector> 
70000
(
(0.553391 0.016723 0)
(0.251266 0.00340093 0)
(0.166211 0.000321928 0)
(0.132467 5.42169e-05 0)
(0.117279 4.56626e-05 0)
(0.107356 5.38462e-05 0)
(0.0994067 4.62215e-05 0)
(0.0929643 3.68921e-05 0)
(0.0877159 3.05888e-05 0)
(0.0833415 2.62722e-05 0)
(0.0796131 2.29836e-05 0)
(0.0763826 2.03498e-05 0)
(0.0735488 1.82016e-05 0)
(0.0710379 1.6426e-05 0)
(0.0687938 1.49393e-05 0)
(0.0667732 1.36791e-05 0)
(0.064942 1.25993e-05 0)
(0.0632731 1.1665e-05 0)
(0.0617443 1.08495e-05 0)
(0.0603378 1.01321e-05 0)
(0.0590385 9.49645e-06 0)
(0.0578339 8.92954e-06 0)
(0.0567134 8.42079e-06 0)
(0.0556681 7.9615e-06 0)
(0.0546902 7.5444e-06 0)
(0.053773 7.16354e-06 0)
(0.0529109 6.81316e-06 0)
(0.0520987 6.48961e-06 0)
(0.0513322 6.18672e-06 0)
(0.0506075 5.90394e-06 0)
(0.0499213 5.63187e-06 0)
(0.0492705 5.37571e-06 0)
(0.0486531 5.11764e-06 0)
(0.0480664 4.87432e-06 0)
(0.0475093 4.61107e-06 0)
(0.0469797 4.36306e-06 0)
(0.0464772 4.07378e-06 0)
(0.0460014 3.78669e-06 0)
(0.0455504 3.46236e-06 0)
(0.0451302 3.04055e-06 0)
(0.0447291 2.74538e-06 0)
(0.0443767 1.88977e-06 0)
(0.0440221 1.97183e-06 0)
(0.0437731 -2.45775e-07 0)
(0.0434492 1.45998e-06 0)
(0.0433953 -4.89045e-06 0)
(0.043053 2.26859e-06 0)
(0.0433866 -1.64675e-05 0)
(0.0431734 1.7748e-05 0)
(0.0406673 -0.00162719 0)
(0.884899 0.0431671 0)
(0.649723 0.0201936 0)
(0.494337 0.00659794 0)
(0.403689 0.00276741 0)
(0.354768 0.00155205 0)
(0.323463 0.00113191 0)
(0.299597 0.000910977 0)
(0.280387 0.000747339 0)
(0.264656 0.000624746 0)
(0.251512 0.000534242 0)
(0.240304 0.000465586 0)
(0.230591 0.000411597 0)
(0.222068 0.000368001 0)
(0.214513 0.000332136 0)
(0.207756 0.000302191 0)
(0.20167 0.000276869 0)
(0.196151 0.000255217 0)
(0.191119 0.000236521 0)
(0.186507 0.000220238 0)
(0.182262 0.000205948 0)
(0.178338 0.000193322 0)
(0.174699 0.000182098 0)
(0.171311 0.000172068 0)
(0.168149 0.00016306 0)
(0.165189 0.000154933 0)
(0.162411 0.00014757 0)
(0.159797 0.000140872 0)
(0.157332 0.000134756 0)
(0.155004 0.000129144 0)
(0.152799 0.000123978 0)
(0.150709 0.000119186 0)
(0.148723 0.000114736 0)
(0.146835 0.000110537 0)
(0.145036 0.000106598 0)
(0.143322 0.000102764 0)
(0.141687 9.91296e-05 0)
(0.140128 9.53885e-05 0)
(0.138642 9.1804e-05 0)
(0.137222 8.77912e-05 0)
(0.135884 8.38421e-05 0)
(0.134594 7.90689e-05 0)
(0.133428 7.38671e-05 0)
(0.13225 6.78181e-05 0)
(0.131339 5.90248e-05 0)
(0.130218 5.19008e-05 0)
(0.129783 3.19852e-05 0)
(0.128584 3.12834e-05 0)
(0.12907 -5.1716e-05 0)
(0.128081 0.000175347 0)
(0.126136 -0.00285866 0)
(0.991237 0.049901 0)
(0.890354 0.030718 0)
(0.762703 0.014597 0)
(0.656704 0.00797939 0)
(0.585385 0.00488531 0)
(0.535978 0.00347237 0)
(0.498099 0.00273773 0)
(0.467458 0.00224629 0)
(0.44211 0.00188399 0)
(0.420757 0.0016132 0)
(0.402453 0.00140651 0)
(0.386531 0.00124396 0)
(0.372516 0.00111279 0)
(0.360059 0.00100489 0)
(0.348896 0.000914771 0)
(0.33882 0.000838542 0)
(0.329669 0.00077334 0)
(0.321312 0.000717025 0)
(0.313644 0.000667969 0)
(0.306576 0.000624912 0)
(0.300038 0.00058687 0)
(0.293966 0.000553057 0)
(0.288311 0.000522847 0)
(0.283026 0.000495726 0)
(0.278076 0.000471275 0)
(0.273426 0.000449145 0)
(0.269047 0.000429041 0)
(0.264916 0.000410714 0)
(0.261009 0.000393947 0)
(0.257307 0.000378556 0)
(0.253794 0.000364358 0)
(0.250453 0.000351229 0)
(0.247272 0.000338965 0)
(0.244238 0.000327529 0)
(0.241342 0.00031659 0)
(0.238574 0.000306307 0)
(0.235926 0.000295982 0)
(0.233396 0.000286252 0)
(0.23097 0.000275541 0)
(0.228668 0.000265553 0)
(0.22644 0.000252877 0)
(0.224394 0.000241201 0)
(0.222329 0.000224014 0)
(0.220645 0.000207208 0)
(0.218658 0.000182286 0)
(0.21763 0.000147653 0)
(0.215526 0.000124809 0)
(0.21573 -3.59037e-05 0)
(0.213711 0.000239019 0)
(0.213513 -0.00299927 0)
(1.0156 0.0489198 0)
(1.00596 0.0358738 0)
(0.935966 0.0207905 0)
(0.85215 0.0135039 0)
(0.782219 0.00920858 0)
(0.727021 0.00678343 0)
(0.681929 0.00538733 0)
(0.644148 0.00444992 0)
(0.612091 0.00375794 0)
(0.584571 0.00323381 0)
(0.56065 0.00282913 0)
(0.539625 0.00250872 0)
(0.520966 0.00224905 0)
(0.504271 0.0020347 0)
(0.489227 0.00185514 0)
(0.475586 0.00170286 0)
(0.463148 0.00157233 0)
(0.451752 0.00145937 0)
(0.441264 0.00136081 0)
(0.431572 0.00127419 0)
(0.422585 0.00119756 0)
(0.414223 0.00112938 0)
(0.406419 0.00106841 0)
(0.399116 0.00101364 0)
(0.392263 0.000964237 0)
(0.385818 0.000919508 0)
(0.379741 0.000878876 0)
(0.374001 0.000841844 0)
(0.368566 0.00080799 0)
(0.363412 0.000776946 0)
(0.358514 0.000748374 0)
(0.353852 0.000722005 0)
(0.349409 0.000697496 0)
(0.345165 0.000674719 0)
(0.34111 0.00065314 0)
(0.337228 0.000632962 0)
(0.33351 0.00061302 0)
(0.329948 0.000594418 0)
(0.326527 0.000574272 0)
(0.323265 0.000556033 0)
(0.320105 0.000532602 0)
(0.317167 0.000512967 0)
(0.31422 0.000480745 0)
(0.311716 0.00045579 0)
(0.308879 0.00040622 0)
(0.307121 0.00035874 0)
(0.304186 0.000299514 0)
(0.303783 7.46517e-05 0)
(0.300823 0.000281212 0)
(0.30125 -0.00273339 0)
(1.01434 0.0460032 0)
(1.04753 0.037487 0)
(1.02459 0.02415 0)
(0.974778 0.0175583 0)
(0.923475 0.013123 0)
(0.876707 0.0102087 0)
(0.83454 0.0083475 0)
(0.796775 0.00702908 0)
(0.763179 0.006022 0)
(0.733315 0.00523717 0)
(0.706669 0.00461769 0)
(0.682772 0.00411939 0)
(0.661225 0.00371083 0)
(0.641698 0.00337047 0)
(0.623915 0.00308324 0)
(0.607648 0.00283811 0)
(0.592704 0.00262688 0)
(0.578924 0.00244328 0)
(0.566171 0.00228247 0)
(0.55433 0.00214066 0)
(0.543303 0.00201484 0)
(0.533004 0.00190261 0)
(0.52336 0.00180203 0)
(0.514308 0.00171148 0)
(0.505791 0.00162967 0)
(0.497761 0.00155549 0)
(0.490174 0.00148802 0)
(0.482992 0.00142647 0)
(0.476181 0.00137016 0)
(0.469709 0.00131852 0)
(0.463551 0.001271 0)
(0.45768 0.00122717 0)
(0.452077 0.00118653 0)
(0.446719 0.00114881 0)
(0.441592 0.00111328 0)
(0.436677 0.00108016 0)
(0.431963 0.00104778 0)
(0.427439 0.00101773 0)
(0.423088 0.000985707 0)
(0.418926 0.000957103 0)
(0.414894 0.000920677 0)
(0.411107 0.000891452 0)
(0.407338 0.000841857 0)
(0.404029 0.000807556 0)
(0.400423 0.000730719 0)
(0.397879 0.000668899 0)
(0.394258 0.000568769 0)
(0.393032 0.000286979 0)
(0.389465 0.000382676 0)
(0.389311 -0.00236721 0)
(1.00933 0.0429145 0)
(1.05528 0.037262 0)
(1.05869 0.0252937 0)
(1.03639 0.0197574 0)
(1.00712 0.0158116 0)
(0.976083 0.0129386 0)
(0.944557 0.0109657 0)
(0.913678 0.00948735 0)
(0.884297 0.00830097 0)
(0.856795 0.00733716 0)
(0.831253 0.006551 0)
(0.807606 0.00590233 0)
(0.785734 0.00535976 0)
(0.765495 0.00490046 0)
(0.746743 0.0045077 0)
(0.72934 0.00416884 0)
(0.713155 0.00387412 0)
(0.698072 0.00361591 0)
(0.683986 0.00338822 0)
(0.670803 0.00318624 0)
(0.658439 0.00300611 0)
(0.64682 0.0028447 0)
(0.63588 0.00269944 0)
(0.625561 0.00256822 0)
(0.615809 0.00244926 0)
(0.606577 0.00234109 0)
(0.597824 0.00224244 0)
(0.58951 0.00215225 0)
(0.581602 0.00206958 0)
(0.574069 0.00199364 0)
(0.566882 0.00192369 0)
(0.560016 0.00185911 0)
(0.553449 0.00179924 0)
(0.547157 0.00174369 0)
(0.541126 0.0016915 0)
(0.535334 0.00164288 0)
(0.52977 0.00159571 0)
(0.524419 0.001552 0)
(0.519268 0.00150611 0)
(0.514324 0.00146518 0)
(0.509537 0.00141415 0)
(0.505003 0.00137344 0)
(0.500527 0.00130553 0)
(0.496489 0.00125934 0)
(0.492238 0.00115604 0)
(0.488937 0.00107489 0)
(0.484791 0.000936671 0)
(0.48267 0.000597217 0)
(0.478769 0.000581451 0)
(0.47758 -0.00192443 0)
(1.00625 0.040033 0)
(1.05206 0.0363343 0)
(1.0661 0.0252224 0)
(1.05961 0.0205565 0)
(1.0469 0.0172377 0)
(1.03083 0.0146581 0)
(1.01193 0.0128256 0)
(0.991246 0.0114053 0)
(0.969819 0.0102137 0)
(0.948382 0.00920327 0)
(0.927378 0.00834818 0)
(0.907068 0.00762057 0)
(0.887598 0.00699595 0)
(0.869039 0.00645548 0)
(0.851409 0.00598464 0)
(0.834697 0.00557193 0)
(0.818872 0.00520808 0)
(0.803892 0.00488557 0)
(0.789711 0.00459825 0)
(0.776281 0.00434111 0)
(0.763552 0.00410998 0)
(0.75148 0.00390143 0)
(0.740018 0.00371259 0)
(0.729125 0.00354103 0)
(0.718763 0.00338473 0)
(0.708894 0.00324196 0)
(0.699485 0.00311123 0)
(0.690505 0.00299125 0)
(0.681924 0.00288093 0)
(0.673716 0.00277926 0)
(0.665856 0.0026854 0)
(0.658321 0.00259856 0)
(0.651092 0.00251793 0)
(0.644146 0.002443 0)
(0.637469 0.00237265 0)
(0.631041 0.00230706 0)
(0.624852 0.00224371 0)
(0.618887 0.00218492 0)
(0.613133 0.00212395 0)
(0.607594 0.00206926 0)
(0.60223 0.00200283 0)
(0.597114 0.00194887 0)
(0.592094 0.00186287 0)
(0.587468 0.00180172 0)
(0.58273 0.00167473 0)
(0.578785 0.00156814 0)
(0.574269 0.00139739 0)
(0.571338 0.000998573 0)
(0.56723 0.000877866 0)
(0.565067 -0.00139352 0)
(1.00495 0.0373549 0)
(1.04727 0.035252 0)
(1.06398 0.024682 0)
(1.06427 0.0205821 0)
(1.0607 0.0177747 0)
(1.05478 0.0155 0)
(1.04603 0.0138828 0)
(1.03485 0.012628 0)
(1.02193 0.0115484 0)
(1.00788 0.0106023 0)
(0.993166 0.00977626 0)
(0.978127 0.00905272 0)
(0.963032 0.00841487 0)
(0.948073 0.00784951 0)
(0.933387 0.00734632 0)
(0.919066 0.00689679 0)
(0.90517 0.00649377 0)
(0.891734 0.00613119 0)
(0.878775 0.00580389 0)
(0.866299 0.00550751 0)
(0.854302 0.00523832 0)
(0.842775 0.00499315 0)
(0.831704 0.00476927 0)
(0.821072 0.00456434 0)
(0.810863 0.00437635 0)
(0.801056 0.00420354 0)
(0.791634 0.00404441 0)
(0.782578 0.00389761 0)
(0.773869 0.00376198 0)
(0.765488 0.00363645 0)
(0.757421 0.0035201 0)
(0.749648 0.00341207 0)
(0.742156 0.00331149 0)
(0.734928 0.00321776 0)
(0.727953 0.00312963 0)
(0.721215 0.00304726 0)
(0.714706 0.00296787 0)
(0.708411 0.00289391 0)
(0.702325 0.00281792 0)
(0.696443 0.0027491 0)
(0.690743 0.00266756 0)
(0.685272 0.00259937 0)
(0.679923 0.00249651 0)
(0.674913 0.002418 0)
(0.669878 0.00227076 0)
(0.66548 0.00213427 0)
(0.660749 0.0019356 0)
(0.657207 0.00148075 0)
(0.652966 0.00126094 0)
(0.650056 -0.000784705 0)
(1.0044 0.0348069 0)
(1.04324 0.0341786 0)
(1.05995 0.0240405 0)
(1.0623 0.0202876 0)
(1.06252 0.0178377 0)
(1.06184 0.0157803 0)
(1.05928 0.0143366 0)
(1.05474 0.0132475 0)
(1.04853 0.012311 0)
(1.04096 0.011478 0)
(1.0323 0.0107376 0)
(1.02282 0.0100763 0)
(1.01272 0.00948118 0)
(1.00222 0.00894258 0)
(0.991475 0.00845349 0)
(0.980614 0.00800825 0)
(0.96974 0.00760202 0)
(0.958936 0.00723064 0)
(0.948262 0.00689043 0)
(0.937765 0.00657819 0)
(0.927478 0.00629111 0)
(0.917424 0.00602671 0)
(0.907619 0.00578282 0)
(0.898073 0.0055575 0)
(0.88879 0.00534904 0)
(0.879773 0.00515592 0)
(0.871018 0.00497681 0)
(0.862523 0.00481048 0)
(0.854283 0.00465587 0)
(0.84629 0.00451197 0)
(0.838539 0.00437791 0)
(0.831021 0.00425283 0)
(0.823729 0.00413588 0)
(0.816653 0.00402646 0)
(0.809789 0.00392327 0)
(0.803125 0.00382647 0)
(0.796659 0.0037331 0)
(0.790379 0.0036457 0)
(0.784283 0.00355639 0)
(0.778368 0.00347456 0)
(0.77262 0.00337958 0)
(0.767072 0.00329753 0)
(0.761653 0.00318008 0)
(0.756516 0.00308338 0)
(0.751412 0.00291953 0)
(0.746804 0.00275171 0)
(0.742036 0.0025282 0)
(0.738136 0.0020257 0)
(0.733864 0.00171383 0)
(0.730467 -0.000119784 0)
(1.00402 0.0323666 0)
(1.03991 0.0331282 0)
(1.05617 0.023417 0)
(1.05894 0.0198987 0)
(1.06025 0.0177063 0)
(1.06161 0.0157834 0)
(1.062 0.0144408 0)
(1.06112 0.0134669 0)
(1.05907 0.0126467 0)
(1.05595 0.0119203 0)
(1.05186 0.0112739 0)
(1.04691 0.0106937 0)
(1.04121 0.0101666 0)
(1.03489 0.00968383 0)
(1.02807 0.0092393 0)
(1.02086 0.00882872 0)
(1.01336 0.00844861 0)
(1.00564 0.00809609 0)
(0.997789 0.00776869 0)
(0.989856 0.00746425 0)
(0.981894 0.00718087 0)
(0.973944 0.00691685 0)
(0.966041 0.00667067 0)
(0.95821 0.00644094 0)
(0.950474 0.00622642 0)
(0.942849 0.00602596 0)
(0.935347 0.00583853 0)
(0.927979 0.00566315 0)
(0.920751 0.00549899 0)
(0.913668 0.00534518 0)
(0.906733 0.00520101 0)
(0.899947 0.00506572 0)
(0.893312 0.00493855 0)
(0.886825 0.00481896 0)
(0.880488 0.00470569 0)
(0.874295 0.00459891 0)
(0.86825 0.00449565 0)
(0.862346 0.00439839 0)
(0.856585 0.00429918 0)
(0.850967 0.00420717 0)
(0.845485 0.00410184 0)
(0.840164 0.00400794 0)
(0.834958 0.00387922 0)
(0.829976 0.00376547 0)
(0.825052 0.0035889 0)
(0.820503 0.00339146 0)
(0.815905 0.00314572 0)
(0.811921 0.00260713 0)
(0.807762 0.00221296 0)
(0.804143 0.000577405 0)
(1.00364 0.0300261 0)
(1.03692 0.0320804 0)
(1.05283 0.0228268 0)
(1.0557 0.0194927 0)
(1.05715 0.0175133 0)
(1.05906 0.0156822 0)
(1.06052 0.0143868 0)
(1.06123 0.0134759 0)
(1.06125 0.0127295 0)
(1.06061 0.0120778 0)
(1.05931 0.0115043 0)
(1.05737 0.0109939 0)
(1.0548 0.0105321 0)
(1.05167 0.0101089 0)
(1.04802 0.00971762 0)
(1.04393 0.00935391 0)
(1.03944 0.00901448 0)
(1.03462 0.00869678 0)
(1.02952 0.00839882 0)
(1.0242 0.00811894 0)
(1.01869 0.00785577 0)
(1.01305 0.00760814 0)
(1.0073 0.007375 0)
(1.00148 0.00715542 0)
(0.995622 0.00694857 0)
(0.989739 0.00675363 0)
(0.983855 0.00656991 0)
(0.977987 0.00639669 0)
(0.97215 0.00623337 0)
(0.966356 0.0060793 0)
(0.960615 0.00593392 0)
(0.954935 0.00579666 0)
(0.949324 0.00566686 0)
(0.943786 0.0055441 0)
(0.938327 0.0054272 0)
(0.93295 0.00531639 0)
(0.92766 0.00520872 0)
(0.922456 0.00510663 0)
(0.917345 0.00500226 0)
(0.912329 0.00490427 0)
(0.907408 0.00479291 0)
(0.902601 0.00469059 0)
(0.897881 0.00455487 0)
(0.893326 0.00442695 0)
(0.88883 0.00424195 0)
(0.884603 0.00401916 0)
(0.880385 0.0037544 0)
(0.876581 0.00319246 0)
(0.872705 0.00273002 0)
(0.86912 0.00127388 0)
(1.00327 0.0277863 0)
(1.03409 0.0310214 0)
(1.04971 0.0222629 0)
(1.05274 0.0190847 0)
(1.05415 0.0173014 0)
(1.05612 0.0155517 0)
(1.05785 0.0142782 0)
(1.05908 0.0133974 0)
(1.05991 0.0126918 0)
(1.06039 0.0120836 0)
(1.06049 0.0115556 0)
(1.06018 0.0110923 0)
(1.05947 0.0106783 0)
(1.05836 0.0103022 0)
(1.05685 0.00995661 0)
(1.05497 0.00963624 0)
(1.05274 0.00933735 0)
(1.05018 0.00905714 0)
(1.04734 0.00879344 0)
(1.04423 0.00854462 0)
(1.04089 0.00830937 0)
(1.03734 0.00808666 0)
(1.03362 0.00787564 0)
(1.02975 0.00767559 0)
(1.02576 0.00748587 0)
(1.02166 0.00730591 0)
(1.01747 0.0071352 0)
(1.01322 0.00697321 0)
(1.00891 0.00681951 0)
(1.00457 0.00667363 0)
(1.00021 0.00653515 0)
(0.995834 0.00640363 0)
(0.991455 0.00627853 0)
(0.987082 0.00615954 0)
(0.982725 0.00604557 0)
(0.978389 0.0059369 0)
(0.974083 0.00583066 0)
(0.96981 0.00572921 0)
(0.965579 0.00562493 0)
(0.961394 0.00552576 0)
(0.957259 0.00541322 0)
(0.953191 0.0053067 0)
(0.949177 0.00516867 0)
(0.945269 0.00503068 0)
(0.941407 0.00484164 0)
(0.937723 0.00459961 0)
(0.93407 0.00431961 0)
(0.930671 0.00374752 0)
(0.927239 0.00323351 0)
(0.923915 0.00193428 0)
(1.00292 0.0256504 0)
(1.03138 0.0299466 0)
(1.04671 0.0217212 0)
(1.04995 0.0186745 0)
(1.05134 0.0170774 0)
(1.05327 0.015414 0)
(1.05503 0.0141558 0)
(1.05638 0.0132906 0)
(1.05745 0.012608 0)
(1.05831 0.0120239 0)
(1.05897 0.0115206 0)
(1.05941 0.0110844 0)
(1.05961 0.0106995 0)
(1.05956 0.0103541 0)
(1.05927 0.01004 0)
(1.05872 0.00975149 0)
(1.05792 0.00948424 0)
(1.05688 0.009235 0)
(1.0556 0.00900127 0)
(1.05409 0.00878113 0)
(1.05238 0.0085731 0)
(1.05047 0.00837604 0)
(1.04838 0.00818903 0)
(1.04612 0.00801135 0)
(1.04372 0.0078424 0)
(1.04117 0.00768163 0)
(1.03851 0.00752859 0)
(1.03574 0.00738284 0)
(1.03288 0.00724401 0)
(1.02993 0.0071117 0)
(1.02692 0.00698555 0)
(1.02384 0.00686521 0)
(1.02072 0.0067502 0)
(1.01755 0.00664029 0)
(1.01435 0.00653442 0)
(1.01113 0.00643294 0)
(1.0079 0.00633304 0)
(1.00465 0.00623694 0)
(1.00141 0.00613738 0)
(0.998166 0.0060414 0)
(0.994937 0.00593212 0)
(0.991735 0.00582551 0)
(0.988553 0.00568954 0)
(0.985428 0.00554589 0)
(0.98233 0.00535686 0)
(0.979333 0.00510241 0)
(0.976367 0.00481139 0)
(0.973534 0.00424153 0)
(0.970665 0.00369268 0)
(0.967774 0.00253193 0)
(1.0026 0.0236212 0)
(1.0288 0.0288548 0)
(1.04379 0.0212004 0)
(1.04726 0.0182622 0)
(1.04865 0.0168399 0)
(1.05055 0.0152718 0)
(1.0523 0.0140308 0)
(1.05366 0.0131764 0)
(1.05476 0.0125102 0)
(1.05572 0.0119413 0)
(1.05655 0.0114519 0)
(1.05726 0.0110302 0)
(1.05782 0.0106613 0)
(1.05825 0.0103334 0)
(1.05853 0.0100381 0)
(1.05866 0.00976949 0)
(1.05864 0.00952296 0)
(1.05845 0.00929501 0)
(1.05811 0.00908286 0)
(1.05761 0.00888434 0)
(1.05695 0.00869777 0)
(1.05614 0.0085218 0)
(1.05518 0.00835539 0)
(1.05409 0.00819769 0)
(1.05286 0.00804801 0)
(1.0515 0.00790577 0)
(1.05003 0.00777046 0)
(1.04845 0.00764161 0)
(1.04676 0.00751884 0)
(1.04499 0.00740171 0)
(1.04312 0.00728989 0)
(1.04118 0.00718302 0)
(1.03916 0.00708061 0)
(1.03709 0.00698247 0)
(1.03495 0.00688753 0)
(1.03277 0.00679615 0)
(1.03055 0.00670557 0)
(1.02829 0.00661782 0)
(1.02601 0.00652606 0)
(1.0237 0.00643628 0)
(1.02138 0.00633345 0)
(1.01905 0.00622989 0)
(1.01672 0.00609921 0)
(1.01441 0.00595378 0)
(1.01211 0.00576779 0)
(1.00985 0.00550736 0)
(1.00762 0.0052095 0)
(1.00542 0.00465208 0)
(1.00317 0.0040846 0)
(1.00081 0.00304582 0)
(1.0023 0.0217005 0)
(1.02634 0.0277469 0)
(1.04096 0.0206988 0)
(1.04465 0.0178493 0)
(1.04607 0.0165875 0)
(1.04793 0.0151234 0)
(1.04968 0.0139044 0)
(1.05103 0.0130599 0)
(1.05213 0.0124083 0)
(1.05309 0.011852 0)
(1.05395 0.0113723 0)
(1.05472 0.0109594 0)
(1.0554 0.0105998 0)
(1.056 0.0102816 0)
(1.0565 0.00999682 0)
(1.05692 0.00973945 0)
(1.05725 0.009505 0)
(1.05748 0.00928988 0)
(1.05762 0.00909122 0)
(1.05765 0.00890673 0)
(1.05759 0.0087346 0)
(1.05742 0.00857335 0)
(1.05715 0.00842184 0)
(1.05678 0.0082791 0)
(1.05632 0.00814436 0)
(1.05575 0.00801695 0)
(1.0551 0.00789631 0)
(1.05435 0.00778187 0)
(1.05351 0.0076732 0)
(1.05259 0.00756982 0)
(1.0516 0.00747131 0)
(1.05052 0.00737729 0)
(1.04938 0.00728723 0)
(1.04817 0.00720091 0)
(1.0469 0.00711722 0)
(1.04558 0.00703648 0)
(1.04421 0.00695599 0)
(1.04279 0.0068775 0)
(1.04133 0.00679466 0)
(1.03984 0.00671232 0)
(1.03833 0.00661735 0)
(1.03679 0.00651849 0)
(1.03523 0.00639472 0)
(1.03367 0.0062502 0)
(1.03211 0.00606892 0)
(1.03055 0.00580772 0)
(1.029 0.00550655 0)
(1.02743 0.00496905 0)
(1.02579 0.00439713 0)
(1.02397 0.00346564 0)
(1.00203 0.019889 0)
(1.02402 0.026626 0)
(1.03823 0.0202135 0)
(1.04213 0.0174376 0)
(1.04357 0.0163203 0)
(1.0454 0.0149676 0)
(1.04716 0.0137758 0)
(1.04851 0.0129414 0)
(1.04959 0.0123044 0)
(1.05053 0.0117606 0)
(1.05139 0.0112896 0)
(1.05216 0.0108837 0)
(1.05286 0.0105305 0)
(1.0535 0.0102186 0)
(1.05407 0.00994015 0)
(1.05459 0.00968933 0)
(1.05504 0.00946177 0)
(1.05544 0.00925397 0)
(1.05578 0.00906309 0)
(1.05607 0.00888685 0)
(1.05628 0.00872342 0)
(1.05644 0.00857128 0)
(1.05654 0.00842925 0)
(1.05656 0.00829631 0)
(1.05653 0.00817165 0)
(1.05643 0.00805454 0)
(1.05626 0.00794436 0)
(1.05603 0.00784051 0)
(1.05573 0.00774247 0)
(1.05537 0.00764971 0)
(1.05495 0.00756175 0)
(1.05448 0.00747816 0)
(1.05394 0.00739831 0)
(1.05335 0.00732198 0)
(1.0527 0.00724799 0)
(1.05201 0.00717659 0)
(1.05127 0.00710513 0)
(1.05049 0.00703503 0)
(1.04968 0.0069605 0)
(1.04883 0.00688515 0)
(1.04794 0.00679781 0)
(1.04704 0.0067038 0)
(1.04611 0.00658695 0)
(1.04517 0.00644466 0)
(1.04422 0.00626833 0)
(1.04326 0.00600989 0)
(1.04228 0.00570808 0)
(1.04126 0.00519504 0)
(1.04014 0.00462997 0)
(1.03882 0.00379267 0)
(1.00179 0.018187 0)
(1.02184 0.0254958 0)
(1.03559 0.0197405 0)
(1.03969 0.017029 0)
(1.04117 0.016039 0)
(1.04296 0.0148034 0)
(1.04471 0.0136447 0)
(1.04607 0.0128206 0)
(1.04714 0.0121982 0)
(1.04807 0.0116676 0)
(1.04891 0.0112056 0)
(1.04968 0.0108064 0)
(1.05037 0.0104589 0)
(1.051 0.0101522 0)
(1.05158 0.00987844 0)
(1.05212 0.00963211 0)
(1.05261 0.00940898 0)
(1.05306 0.00920566 0)
(1.05347 0.0090194 0)
(1.05384 0.00884798 0)
(1.05418 0.0086896 0)
(1.05447 0.00854278 0)
(1.05473 0.00840634 0)
(1.05494 0.00827928 0)
(1.05512 0.00816078 0)
(1.05525 0.00805011 0)
(1.05534 0.00794663 0)
(1.05539 0.00784972 0)
(1.0554 0.00775879 0)
(1.05536 0.00767331 0)
(1.05528 0.00759272 0)
(1.05516 0.00751655 0)
(1.055 0.00744412 0)
(1.0548 0.00737515 0)
(1.05455 0.00730843 0)
(1.05428 0.00724409 0)
(1.05396 0.0071796 0)
(1.05362 0.00711599 0)
(1.05324 0.00704805 0)
(1.05284 0.00697818 0)
(1.05241 0.00689706 0)
(1.05196 0.00680699 0)
(1.05149 0.00669588 0)
(1.05101 0.006556 0)
(1.05052 0.0063838 0)
(1.05 0.00613009 0)
(1.04947 0.00582942 0)
(1.04887 0.0053428 0)
(1.04816 0.0047928 0)
(1.04724 0.00403783 0)
(1.00157 0.0165942 0)
(1.01979 0.0243604 0)
(1.03305 0.0192757 0)
(1.03734 0.0166252 0)
(1.03885 0.015745 0)
(1.04061 0.0146302 0)
(1.04236 0.0135107 0)
(1.04372 0.0126976 0)
(1.04478 0.0120897 0)
(1.0457 0.0115729 0)
(1.04653 0.0111205 0)
(1.04728 0.0107281 0)
(1.04796 0.0103863 0)
(1.04858 0.0100846 0)
(1.04915 0.00981518 0)
(1.04968 0.00957271 0)
(1.05017 0.00935311 0)
(1.05063 0.00915311 0)
(1.05106 0.00897007 0)
(1.05145 0.00880182 0)
(1.05182 0.00864662 0)
(1.05216 0.00850305 0)
(1.05248 0.00836997 0)
(1.05277 0.00824641 0)
(1.05303 0.00813157 0)
(1.05326 0.00802475 0)
(1.05347 0.00792531 0)
(1.05365 0.00783264 0)
(1.0538 0.00774613 0)
(1.05393 0.00766524 0)
(1.05402 0.00758934 0)
(1.05409 0.00751798 0)
(1.05413 0.00745039 0)
(1.05415 0.00738628 0)
(1.05414 0.00732441 0)
(1.0541 0.00726479 0)
(1.05404 0.00720504 0)
(1.05396 0.00714576 0)
(1.05385 0.00708237 0)
(1.05373 0.00701611 0)
(1.05359 0.00693934 0)
(1.05344 0.00685181 0)
(1.05327 0.0067447 0)
(1.05309 0.00660673 0)
(1.0529 0.00643736 0)
(1.05269 0.00618917 0)
(1.05246 0.00589082 0)
(1.05215 0.00543068 0)
(1.05173 0.00490125 0)
(1.05111 0.00421793 0)
(1.00137 0.0151096 0)
(1.01788 0.0232237 0)
(1.03062 0.0188154 0)
(1.03508 0.0162277 0)
(1.03664 0.0154396 0)
(1.03835 0.0144472 0)
(1.04009 0.0133734 0)
(1.04145 0.0125724 0)
(1.04251 0.0119787 0)
(1.04342 0.0114763 0)
(1.04424 0.011034 0)
(1.04498 0.0106488 0)
(1.04564 0.010313 0)
(1.04625 0.0100163 0)
(1.04681 0.00975127 0)
(1.04733 0.00951258 0)
(1.04781 0.00929631 0)
(1.04826 0.00909931 0)
(1.04868 0.008919 0)
(1.04908 0.00875329 0)
(1.04945 0.00860052 0)
(1.0498 0.00845929 0)
(1.05013 0.0083285 0)
(1.05043 0.00820725 0)
(1.05072 0.00809476 0)
(1.05099 0.00799036 0)
(1.05124 0.00789344 0)
(1.05147 0.00780339 0)
(1.05168 0.00771961 0)
(1.05188 0.00764154 0)
(1.05205 0.00756854 0)
(1.05221 0.00750013 0)
(1.05234 0.00743553 0)
(1.05246 0.00737439 0)
(1.05257 0.00731549 0)
(1.05265 0.00725871 0)
(1.05272 0.00720184 0)
(1.05278 0.00714508 0)
(1.05283 0.00708442 0)
(1.05286 0.00702009 0)
(1.05289 0.00694589 0)
(1.0529 0.00685959 0)
(1.05291 0.00675475 0)
(1.05291 0.00661803 0)
(1.0529 0.00645021 0)
(1.05288 0.00620769 0)
(1.05282 0.0059126 0)
(1.0527 0.00547789 0)
(1.05246 0.00497239 0)
(1.05203 0.00435144 0)
(1.0012 0.0137317 0)
(1.01611 0.0220898 0)
(1.0283 0.0183558 0)
(1.0329 0.0158377 0)
(1.03451 0.0151246 0)
(1.03619 0.0142539 0)
(1.03791 0.0132324 0)
(1.03928 0.0124449 0)
(1.04034 0.0118652 0)
(1.04124 0.0113776 0)
(1.04204 0.0109461 0)
(1.04277 0.0105685 0)
(1.04342 0.0102388 0)
(1.04402 0.00994739 0)
(1.04457 0.00968686 0)
(1.04507 0.00945204 0)
(1.04555 0.00923913 0)
(1.04598 0.00904509 0)
(1.0464 0.00886743 0)
(1.04678 0.00870413 0)
(1.04714 0.00855353 0)
(1.04749 0.00841433 0)
(1.04781 0.00828546 0)
(1.04812 0.00816603 0)
(1.04841 0.00805532 0)
(1.04868 0.0079527 0)
(1.04894 0.00785756 0)
(1.04918 0.00776933 0)
(1.04941 0.00768739 0)
(1.04963 0.00761119 0)
(1.04983 0.00754008 0)
(1.05002 0.00747355 0)
(1.05019 0.00741081 0)
(1.05035 0.00735147 0)
(1.05051 0.00729433 0)
(1.05065 0.00723915 0)
(1.05078 0.00718389 0)
(1.0509 0.00712838 0)
(1.05102 0.00706915 0)
(1.05112 0.00700556 0)
(1.05123 0.00693259 0)
(1.05133 0.00684654 0)
(1.05143 0.00674263 0)
(1.05152 0.00660665 0)
(1.05161 0.00643951 0)
(1.05168 0.00620259 0)
(1.05172 0.00591171 0)
(1.05169 0.00550097 0)
(1.05155 0.00502125 0)
(1.05122 0.00445489 0)
(1.00104 0.0124581 0)
(1.01447 0.0209631 0)
(1.02609 0.0178934 0)
(1.03081 0.015456 0)
(1.03248 0.0148019 0)
(1.03412 0.01405 0)
(1.03582 0.0130872 0)
(1.03719 0.0123152 0)
(1.03825 0.0117491 0)
(1.03914 0.0112766 0)
(1.03993 0.0108567 0)
(1.04065 0.0104871 0)
(1.04129 0.0101637 0)
(1.04188 0.00987774 0)
(1.04242 0.00962188 0)
(1.04291 0.00939107 0)
(1.04337 0.00918163 0)
(1.0438 0.00899064 0)
(1.0442 0.00881568 0)
(1.04458 0.00865478 0)
(1.04493 0.00850635 0)
(1.04526 0.00836912 0)
(1.04558 0.00824205 0)
(1.04588 0.00812432 0)
(1.04616 0.00801521 0)
(1.04643 0.00791414 0)
(1.04669 0.00782051 0)
(1.04693 0.00773376 0)
(1.04716 0.00765329 0)
(1.04737 0.00757854 0)
(1.04758 0.00750883 0)
(1.04777 0.00744366 0)
(1.04796 0.00738221 0)
(1.04813 0.00732405 0)
(1.0483 0.00726803 0)
(1.04845 0.00721376 0)
(1.04861 0.00715938 0)
(1.04875 0.0071044 0)
(1.0489 0.0070458 0)
(1.04903 0.00698227 0)
(1.04917 0.00690967 0)
(1.04931 0.00682335 0)
(1.04944 0.00671955 0)
(1.04957 0.00658409 0)
(1.0497 0.00641727 0)
(1.0498 0.00618592 0)
(1.04988 0.00590035 0)
(1.04989 0.00551213 0)
(1.0498 0.0050591 0)
(1.04953 0.00454108 0)
(1.0009 0.0112861 0)
(1.01296 0.0198479 0)
(1.02399 0.0174251 0)
(1.0288 0.0150829 0)
(1.03055 0.0144735 0)
(1.03214 0.0138351 0)
(1.03382 0.0129371 0)
(1.0352 0.0121833 0)
(1.03625 0.0116304 0)
(1.03713 0.0111734 0)
(1.03792 0.0107656 0)
(1.03862 0.0104044 0)
(1.03926 0.0100876 0)
(1.03984 0.00980728 0)
(1.04036 0.00955628 0)
(1.04085 0.00932963 0)
(1.0413 0.00912378 0)
(1.04171 0.00893593 0)
(1.04211 0.00876375 0)
(1.04247 0.00860532 0)
(1.04281 0.00845912 0)
(1.04314 0.00832389 0)
(1.04344 0.00819864 0)
(1.04373 0.00808259 0)
(1.04401 0.00797506 0)
(1.04427 0.00787549 0)
(1.04452 0.0077833 0)
(1.04475 0.00769795 0)
(1.04497 0.00761883 0)
(1.04518 0.00754537 0)
(1.04538 0.00747691 0)
(1.04558 0.00741288 0)
(1.04576 0.00735249 0)
(1.04593 0.00729525 0)
(1.0461 0.00724005 0)
(1.04626 0.00718638 0)
(1.04641 0.00713254 0)
(1.04656 0.00707776 0)
(1.04671 0.0070194 0)
(1.04685 0.00695562 0)
(1.047 0.00688296 0)
(1.04714 0.00679621 0)
(1.04729 0.00669212 0)
(1.04743 0.00655724 0)
(1.04756 0.00639084 0)
(1.04768 0.00616518 0)
(1.04776 0.00588613 0)
(1.04778 0.00551921 0)
(1.04769 0.00509317 0)
(1.04745 0.00461861 0)
(1.00078 0.010212 0)
(1.01157 0.0187486 0)
(1.02201 0.0169483 0)
(1.02688 0.0147187 0)
(1.0287 0.0141416 0)
(1.03026 0.0136094 0)
(1.03191 0.0127815 0)
(1.03329 0.0120491 0)
(1.03434 0.0115092 0)
(1.03522 0.0110676 0)
(1.03599 0.0106726 0)
(1.03669 0.0103204 0)
(1.03732 0.0100104 0)
(1.03788 0.00973594 0)
(1.0384 0.00948998 0)
(1.03888 0.00926763 0)
(1.03932 0.00906551 0)
(1.03972 0.00888092 0)
(1.04011 0.0087116 0)
(1.04046 0.00855573 0)
(1.0408 0.00841181 0)
(1.04111 0.00827864 0)
(1.04141 0.00815527 0)
(1.04169 0.00804094 0)
(1.04195 0.00793503 0)
(1.04221 0.00783697 0)
(1.04244 0.00774624 0)
(1.04267 0.00766229 0)
(1.04288 0.00758452 0)
(1.04309 0.00751233 0)
(1.04328 0.00744507 0)
(1.04347 0.00738213 0)
(1.04364 0.00732274 0)
(1.04381 0.00726634 0)
(1.04397 0.00721187 0)
(1.04412 0.00715871 0)
(1.04427 0.00710528 0)
(1.04442 0.00705059 0)
(1.04456 0.00699232 0)
(1.04471 0.00692825 0)
(1.04485 0.00685537 0)
(1.04499 0.00676825 0)
(1.04513 0.00666384 0)
(1.04526 0.00652977 0)
(1.04539 0.00636423 0)
(1.0455 0.00614452 0)
(1.04557 0.00587319 0)
(1.04558 0.00552667 0)
(1.0455 0.00512753 0)
(1.04526 0.0046926 0)
(1.00067 0.00923184 0)
(1.01031 0.0176696 0)
(1.02013 0.0164607 0)
(1.02505 0.014363 0)
(1.02694 0.0138082 0)
(1.02847 0.013373 0)
(1.03009 0.0126198 0)
(1.03147 0.0119125 0)
(1.03252 0.0113855 0)
(1.03339 0.0109593 0)
(1.03416 0.0105777 0)
(1.03485 0.0102349 0)
(1.03547 0.00993208 0)
(1.03602 0.00966363 0)
(1.03653 0.00942288 0)
(1.037 0.00920502 0)
(1.03743 0.00900676 0)
(1.03783 0.00882553 0)
(1.0382 0.00865919 0)
(1.03855 0.00850596 0)
(1.03887 0.0083644 0)
(1.03918 0.00823335 0)
(1.03947 0.00811191 0)
(1.03974 0.00799936 0)
(1.04 0.00789511 0)
(1.04024 0.00779862 0)
(1.04047 0.00770939 0)
(1.04069 0.00762687 0)
(1.0409 0.00755047 0)
(1.04109 0.0074796 0)
(1.04128 0.00741355 0)
(1.04145 0.00735173 0)
(1.04162 0.00729334 0)
(1.04178 0.00723778 0)
(1.04193 0.00718403 0)
(1.04208 0.00713137 0)
(1.04223 0.00707834 0)
(1.04237 0.00702377 0)
(1.0425 0.00696556 0)
(1.04264 0.00690128 0)
(1.04277 0.00682818 0)
(1.0429 0.00674089 0)
(1.04303 0.00663632 0)
(1.04316 0.00650341 0)
(1.04328 0.00633935 0)
(1.04337 0.00612594 0)
(1.04343 0.0058635 0)
(1.04342 0.00553668 0)
(1.04333 0.00516409 0)
(1.04309 0.00476576 0)
(1.00058 0.00834097 0)
(1.00917 0.0166154 0)
(1.01838 0.0159607 0)
(1.0233 0.0140152 0)
(1.02527 0.0134751 0)
(1.02677 0.0131265 0)
(1.02836 0.0124513 0)
(1.02973 0.0117732 0)
(1.03079 0.0112594 0)
(1.03165 0.0108483 0)
(1.03241 0.0104806 0)
(1.03309 0.0101479 0)
(1.0337 0.00985247 0)
(1.03425 0.00959026 0)
(1.03475 0.00935492 0)
(1.03521 0.0091417 0)
(1.03563 0.00894744 0)
(1.03603 0.0087697 0)
(1.03639 0.00860643 0)
(1.03673 0.00845593 0)
(1.03705 0.00831681 0)
(1.03734 0.00818796 0)
(1.03762 0.00806852 0)
(1.03789 0.0079578 0)
(1.03814 0.00785526 0)
(1.03837 0.0077604 0)
(1.0386 0.00767272 0)
(1.03881 0.00759169 0)
(1.03901 0.00751671 0)
(1.03919 0.00744718 0)
(1.03937 0.00738239 0)
(1.03954 0.00732172 0)
(1.0397 0.00726437 0)
(1.03985 0.00720968 0)
(1.04 0.00715669 0)
(1.04014 0.00710457 0)
(1.04028 0.00705198 0)
(1.04041 0.0069976 0)
(1.04054 0.0069395 0)
(1.04067 0.00687514 0)
(1.04079 0.00680193 0)
(1.04091 0.0067147 0)
(1.04103 0.00661027 0)
(1.04115 0.00647889 0)
(1.04125 0.00631704 0)
(1.04133 0.00611032 0)
(1.04137 0.00585776 0)
(1.04135 0.00555014 0)
(1.04124 0.00520357 0)
(1.041 0.00483937 0)
(1.0005 0.00753435 0)
(1.00814 0.0155901 0)
(1.01673 0.0154472 0)
(1.02164 0.0136744 0)
(1.02369 0.0131442 0)
(1.02516 0.0128708 0)
(1.02671 0.0122756 0)
(1.02807 0.0116309 0)
(1.02914 0.0111309 0)
(1.03 0.0107346 0)
(1.03075 0.0103812 0)
(1.03142 0.0100591 0)
(1.03203 0.00977151 0)
(1.03257 0.00951574 0)
(1.03306 0.00928599 0)
(1.03352 0.00907759 0)
(1.03393 0.00888748 0)