/*--------------------------------*- C++ -*----------------------------------*\
  =========                 |
  \\      /  F ield         | OpenFOAM: The Open Source CFD Toolbox
   \\    /   O peration     | Website:  https://openfoam.org
    \\  /    A nd           | Version:  7
     \\/     M anipulation  |
\*---------------------------------------------------------------------------*/
FoamFile
{
    version     2.0;
    format      ascii;
    class       volVectorField;
    location    "0.09";
    object      wallShearStress;
}
// * * * * * * * * * * * * * * * * * * * * * * * * * * * * * * * * * * * * * //

dimensions      [0 2 -2 0 0 0 0];

internalField   uniform (0 0 0);

boundaryField
{
    velocityInlet
    {
        type            calculated;
        value           uniform (0 0 0);
    }
    pressureOutlet
    {
        type            calculated;
        value           uniform (0 0 0);
    }
    fixedWalls
    {
        type            calculated;
        value           nonuniform List<vector> 
100
(
(-0.0169895 -0.00118954 0)
(-0.0141318 -0.00077313 0)
(-0.0109632 -0.000447325 0)
(-0.00903284 -0.00020898 0)
(-0.00819857 -0.000115123 0)
(-0.00750861 -0.000111897 0)
(-0.00674909 -0.000106767 0)
(-0.0059916 -9.3507e-05 0)
(-0.00530709 -7.79492e-05 0)
(-0.00474245 -5.98958e-05 0)
(-0.00431867 -4.1743e-05 0)
(-0.0040272 -2.63606e-05 0)
(-0.00386321 -1.09552e-05 0)
(-0.00379441 -4.81442e-06 0)
(-0.00380129 -7.45124e-07 0)
(-0.00424426 8.73228e-05 0)
(-0.00577646 0.000264591 0)
(-0.00817841 0.000379748 0)
(-0.00983046 0.000303814 0)
(-0.00830376 -0.000332568 0)
(-0.00189887 -0.00116112 0)
(0.00590404 -0.00117641 0)
(0.0100267 -0.00057781 0)
(0.00950181 0.000152341 0)
(0.00580245 0.000538664 0)
(0.00138771 0.000543468 0)
(-0.00205152 0.000375963 0)
(-0.00405417 0.000193649 0)
(-0.00494109 7.58299e-05 0)
(-0.005158 1.02601e-05 0)
(-0.00502739 -3.03571e-05 0)
(-0.00485622 -2.80794e-05 0)
(-0.00501709 3.7232e-05 0)
(-0.00569456 0.000116625 0)
(-0.00659872 0.000146818 0)
(-0.0070755 9.59732e-05 0)
(-0.00644144 -7.73458e-05 0)
(-0.0044595 -0.000270441 0)
(-0.00163582 -0.000393952 0)
(0.00114475 -0.000371378 0)
(0.00289551 -0.000233406 0)
(0.00288031 1.57911e-05 0)
(0.000845377 0.000240786 0)
(-0.00245622 0.000349169 0)
(-0.00557546 0.000296009 0)
(-0.00764442 0.000179423 0)
(-0.00902313 0.000166304 0)
(-0.0103833 0.000217337 0)
(-0.0113612 0.000197363 0)
(-0.0108414 -1.42275e-05 0)
(-0.0078709 -0.000365506 0)
(-0.00249286 -0.000723432 0)
(0.00356119 -0.000746605 0)
(0.00798474 -0.000542208 0)
(0.00972114 -0.000195158 0)
(0.0087284 0.000131037 0)
(0.00596428 0.000313584 0)
(0.00272171 0.00032948 0)
(-5.27037e-05 0.000267762 0)
(-0.00200993 0.000179079 0)
(-0.00317861 0.000102545 0)
(-0.00376165 5.01613e-05 0)
(-0.00397431 1.977e-05 0)
(-0.00397699 2.26111e-06 0)
(-0.00386906 -6.92226e-06 0)
(-0.00370478 -1.1627e-05 0)
(-0.00350886 -1.45482e-05 0)
(-0.00329083 -1.69556e-05 0)
(-0.00305677 -1.89918e-05 0)
(-0.00281769 -1.99959e-05 0)
(-0.00259338 -1.89236e-05 0)
(-0.0024106 -1.49302e-05 0)
(-0.00229563 -8.13148e-06 0)
(-0.00226137 -3.54456e-07 0)
(-0.00228968 5.74878e-06 0)
(-0.00231862 5.97917e-06 0)
(-0.00225488 -4.45481e-06 0)
(-0.00202267 -2.14782e-05 0)
(-0.00163944 -3.50951e-05 0)
(-0.00124125 -3.47238e-05 0)
(-0.00100714 -1.77002e-05 0)
(-0.00104719 6.64056e-06 0)
(-0.00134674 2.81766e-05 0)
(-0.00179091 3.97146e-05 0)
(-0.00224908 4.03026e-05 0)
(-0.00261239 3.22665e-05 0)
(-0.00281874 1.93926e-05 0)
(-0.00282398 2.57456e-06 0)
(-0.00261987 -1.699e-05 0)
(-0.00222092 -3.51425e-05 0)
(-0.00169632 -4.74187e-05 0)
(-0.00116209 -4.90822e-05 0)
(-0.00071778 -3.93051e-05 0)
(-0.000515245 -2.20889e-05 0)
(-0.000500801 -4.61315e-07 0)
(-0.000817985 1.76797e-05 0)
(-0.00119927 3.51807e-05 0)
(-0.00177657 3.95937e-05 0)
(-0.002461 4.73949e-05 0)
(-0.0026896 8.95531e-06 0)
)
;
    }
    bottomWall
    {
        type            calculated;
        value           nonuniform List<vector> 
800
(
(-0.0353488 0.00214398 0)
(-0.0160263 0.000524843 0)
(-0.0106072 0.000100725 0)
(-0.00845519 3.52651e-05 0)
(-0.0074854 1.98636e-05 0)
(-0.00685169 1.61225e-05 0)
(-0.00634425 1.33547e-05 0)
(-0.00593318 1.08974e-05 0)
(-0.00559854 9.07464e-06 0)
(-0.00531985 7.75747e-06 0)
(-0.00508255 6.76011e-06 0)
(-0.00487717 5.97237e-06 0)
(-0.00469722 5.33409e-06 0)
(-0.004538 4.80786e-06 0)
(-0.00439589 4.36814e-06 0)
(-0.00426812 3.99605e-06 0)
(-0.00415251 3.67763e-06 0)
(-0.0040473 3.40273e-06 0)
(-0.00395107 3.16341e-06 0)
(-0.00386267 2.95345e-06 0)
(-0.00378112 2.76801e-06 0)
(-0.00370563 2.60316e-06 0)
(-0.00363551 2.45593e-06 0)
(-0.00357017 2.3237e-06 0)
(-0.00350915 2.20445e-06 0)
(-0.00345198 2.09643e-06 0)
(-0.00339832 1.99805e-06 0)
(-0.00334784 1.90833e-06 0)
(-0.00330025 1.8262e-06 0)
(-0.0032553 1.75072e-06 0)
(-0.00321278 1.68105e-06 0)
(-0.0031725 1.61677e-06 0)
(-0.00313426 1.55715e-06 0)
(-0.00309793 1.50184e-06 0)
(-0.00306336 1.45039e-06 0)
(-0.00303042 1.40225e-06 0)
(-0.002999 1.35733e-06 0)
(-0.002969 1.31518e-06 0)
(-0.00294033 1.27572e-06 0)
(-0.00291289 1.23856e-06 0)
(-0.00288662 1.20343e-06 0)
(-0.00286144 1.17044e-06 0)
(-0.00283728 1.13926e-06 0)
(-0.00281409 1.10963e-06 0)
(-0.00279181 1.08171e-06 0)
(-0.00277039 1.05502e-06 0)
(-0.00274978 1.03017e-06 0)
(-0.00272995 1.00564e-06 0)
(-0.00271083 9.83552e-07 0)
(-0.00269242 9.60051e-07 0)
(-0.00267703 9.40635e-07 0)
(-0.00266434 9.29713e-07 0)
(-0.0026518 9.15671e-07 0)
(-0.00263946 9.00583e-07 0)
(-0.00262732 8.86662e-07 0)
(-0.00261536 8.73153e-07 0)
(-0.00260359 8.60024e-07 0)
(-0.00259199 8.47463e-07 0)
(-0.00258055 8.34829e-07 0)
(-0.0025693 8.22617e-07 0)
(-0.0025582 8.10819e-07 0)
(-0.00254726 7.99097e-07 0)
(-0.00253648 7.87617e-07 0)
(-0.00252585 7.76378e-07 0)
(-0.00251538 7.65708e-07 0)
(-0.00250504 7.55106e-07 0)
(-0.00249485 7.44571e-07 0)
(-0.0024848 7.34265e-07 0)
(-0.00247489 7.24355e-07 0)
(-0.00246511 7.14672e-07 0)
(-0.00245546 7.04881e-07 0)
(-0.00244595 6.95479e-07 0)
(-0.00243656 6.86465e-07 0)
(-0.00242729 6.77339e-07 0)
(-0.00241815 6.68431e-07 0)
(-0.00240912 6.59907e-07 0)
(-0.00240021 6.51431e-07 0)
(-0.00239141 6.43002e-07 0)
(-0.00238273 6.34954e-07 0)
(-0.00237415 6.2695e-07 0)
(-0.00236568 6.18989e-07 0)
(-0.00235732 6.11237e-07 0)
(-0.00234906 6.03693e-07 0)
(-0.0023409 5.96354e-07 0)
(-0.00233284 5.88889e-07 0)
(-0.00232489 5.81794e-07 0)
(-0.00231702 5.74736e-07 0)
(-0.00230926 5.67713e-07 0)
(-0.00230159 5.61058e-07 0)
(-0.002294 5.54271e-07 0)
(-0.00228651 5.47683e-07 0)
(-0.00227911 5.41292e-07 0)
(-0.00227179 5.34933e-07 0)
(-0.00226456 5.28605e-07 0)
(-0.00225741 5.22473e-07 0)
(-0.00225035 5.16537e-07 0)
(-0.00224336 5.10461e-07 0)
(-0.00223646 5.0458e-07 0)
(-0.00222963 4.98893e-07 0)
(-0.00222289 4.93232e-07 0)
(-0.00221621 4.87763e-07 0)
(-0.00220961 4.82153e-07 0)
(-0.00220309 4.76568e-07 0)
(-0.00219665 4.71507e-07 0)
(-0.00219026 4.66303e-07 0)
(-0.00218395 4.60955e-07 0)
(-0.00217772 4.55797e-07 0)
(-0.00217155 4.50826e-07 0)
(-0.00216545 4.46043e-07 0)
(-0.00215941 4.41114e-07 0)
(-0.00215344 4.36206e-07 0)
(-0.00214753 4.31483e-07 0)
(-0.00214169 4.26946e-07 0)
(-0.0021359 4.22428e-07 0)
(-0.00213018 4.17761e-07 0)
(-0.00212453 4.13277e-07 0)
(-0.00211893 4.08811e-07 0)
(-0.00211339 4.04528e-07 0)
(-0.00210791 4.00261e-07 0)
(-0.00210249 3.9601e-07 0)
(-0.00209712 3.91941e-07 0)
(-0.00209181 3.87721e-07 0)
(-0.00208655 3.83516e-07 0)
(-0.00208136 3.79492e-07 0)
(-0.00207621 3.7565e-07 0)
(-0.00207112 3.71822e-07 0)
(-0.00206607 3.68011e-07 0)
(-0.00206108 3.64047e-07 0)
(-0.00205614 3.60265e-07 0)
(-0.00205125 3.5666e-07 0)
(-0.00204641 3.52904e-07 0)
(-0.00204163 3.49328e-07 0)
(-0.00203688 3.45768e-07 0)
(-0.00203219 3.42215e-07 0)
(-0.00202754 3.38843e-07 0)
(-0.00202294 3.35315e-07 0)
(-0.00201839 3.31806e-07 0)
(-0.00201388 3.28637e-07 0)
(-0.00200941 3.25321e-07 0)
(-0.00200499 3.22008e-07 0)
(-0.00200061 3.18889e-07 0)
(-0.00199628 3.15592e-07 0)
(-0.00199199 3.12509e-07 0)
(-0.00198774 3.09383e-07 0)
(-0.00198353 3.06346e-07 0)
(-0.00197936 3.0321e-07 0)
(-0.00197523 3.00405e-07 0)
(-0.00197114 2.97403e-07 0)
(-0.00196709 2.94494e-07 0)
(-0.00196309 2.91369e-07 0)
(-0.00195973 2.88471e-07 0)
(-0.00195699 2.87015e-07 0)
(-0.00195424 2.8527e-07 0)
(-0.0019515 2.83182e-07 0)
(-0.00194875 2.81166e-07 0)
(-0.00194601 2.79389e-07 0)
(-0.00194326 2.77438e-07 0)
(-0.00194051 2.75241e-07 0)
(-0.00193776 2.73515e-07 0)
(-0.00193501 2.71581e-07 0)
(-0.00193227 2.69646e-07 0)
(-0.00192952 2.67728e-07 0)
(-0.00192677 2.65842e-07 0)
(-0.00192402 2.63928e-07 0)
(-0.00192127 2.61848e-07 0)
(-0.00191853 2.60189e-07 0)
(-0.00191578 2.5833e-07 0)
(-0.00191303 2.56263e-07 0)
(-0.00191029 2.54428e-07 0)
(-0.00190754 2.52608e-07 0)
(-0.0019048 2.50791e-07 0)
(-0.00190205 2.48986e-07 0)
(-0.00189931 2.47215e-07 0)
(-0.00189656 2.45211e-07 0)
(-0.00189382 2.43464e-07 0)
(-0.00189108 2.417e-07 0)
(-0.00188834 2.3975e-07 0)
(-0.0018856 2.37822e-07 0)
(-0.00188287 2.36093e-07 0)
(-0.00188013 2.34381e-07 0)
(-0.00187739 2.327e-07 0)
(-0.00187465 2.308e-07 0)
(-0.00187193 2.28951e-07 0)
(-0.0018692 2.27474e-07 0)
(-0.00186646 2.25637e-07 0)
(-0.00186374 2.23819e-07 0)
(-0.00186101 2.22001e-07 0)
(-0.00185829 2.20385e-07 0)
(-0.00185557 2.18802e-07 0)
(-0.00185285 2.16827e-07 0)
(-0.00185013 2.15277e-07 0)
(-0.00184741 2.13708e-07 0)
(-0.0018447 2.11979e-07 0)
(-0.00184199 2.10268e-07 0)
(-0.00183928 2.08575e-07 0)
(-0.00183657 2.0707e-07 0)
(-0.00183386 2.05563e-07 0)
(-0.00183116 2.03909e-07 0)
(-0.00182846 2.02284e-07 0)
(-0.00182576 2.00636e-07 0)
(-0.00182306 1.99048e-07 0)
(-0.00182037 1.97614e-07 0)
(-0.00181767 1.96206e-07 0)
(-0.00181498 1.94648e-07 0)
(-0.00181229 1.93086e-07 0)
(-0.0018096 1.91546e-07 0)
(-0.00180692 1.90039e-07 0)
(-0.00180424 1.88669e-07 0)
(-0.00180156 1.87206e-07 0)
(-0.00179888 1.85875e-07 0)
(-0.0017962 1.84415e-07 0)
(-0.00179353 1.82972e-07 0)
(-0.00179086 1.81683e-07 0)
(-0.00178819 1.80274e-07 0)
(-0.00178552 1.78886e-07 0)
(-0.00178286 1.77618e-07 0)
(-0.00178019 1.76437e-07 0)
(-0.00177753 1.75074e-07 0)
(-0.00177487 1.73736e-07 0)
(-0.00177221 1.72555e-07 0)
(-0.00176955 1.71402e-07 0)
(-0.00176689 1.70119e-07 0)
(-0.00176424 1.68976e-07 0)
(-0.00176158 1.6774e-07 0)
(-0.00175893 1.66645e-07 0)
(-0.00175628 1.65701e-07 0)
(-0.00175362 1.64642e-07 0)
(-0.00175096 1.635e-07 0)
(-0.00174831 1.62391e-07 0)
(-0.00174566 1.61669e-07 0)
(-0.001743 1.6056e-07 0)
(-0.00174034 1.59834e-07 0)
(-0.00173769 1.58571e-07 0)
(-0.00173501 1.58388e-07 0)
(-0.00173237 1.56621e-07 0)
(-0.00172967 1.57674e-07 0)
(-0.00172704 1.54204e-07 0)
(-0.0017243 1.57693e-07 0)
(-0.00172172 1.50998e-07 0)
(-0.00171888 1.60017e-07 0)
(-0.0017164 1.4531e-07 0)
(-0.00171336 1.66655e-07 0)
(-0.00171111 1.34284e-07 0)
(-0.0017077 1.81668e-07 0)
(-0.00170591 1.12492e-07 0)
(-0.00170181 2.12327e-07 0)
(-0.00170083 7.11575e-08 0)
(-0.00169567 2.65882e-07 0)
(-0.00169585 5.80878e-09 0)
(-0.0016893 2.91323e-07 0)
(-0.0353488 -0.00214397 0)
(-0.0160269 -0.000524819 0)
(-0.0106085 -0.000100701 0)
(-0.00845698 -3.5247e-05 0)
(-0.00748757 -1.98498e-05 0)
(-0.00685405 -1.61147e-05 0)
(-0.00634653 -1.33527e-05 0)
(-0.00593522 -1.09002e-05 0)
(-0.00560015 -9.08241e-06 0)
(-0.00532088 -7.76982e-06 0)
(-0.00508285 -6.77667e-06 0)
(-0.00487661 -5.99276e-06 0)
(-0.00469569 -5.35802e-06 0)
(-0.00453539 -4.83502e-06 0)
(-0.00439212 -4.39807e-06 0)
(-0.00426312 -4.0284e-06 0)
(-0.00414621 -3.7121e-06 0)
(-0.00403966 -3.4389e-06 0)
(-0.00394207 -3.20079e-06 0)
(-0.00385227 -2.9916e-06 0)
(-0.00376932 -2.80671e-06 0)
(-0.00369242 -2.6422e-06 0)
(-0.00362089 -2.49485e-06 0)
(-0.00355416 -2.36243e-06 0)
(-0.00349172 -2.24265e-06 0)
(-0.00343318 -2.13384e-06 0)
(-0.00337814 -2.0345e-06 0)
(-0.0033263 -1.94335e-06 0)
(-0.00327737 -1.85926e-06 0)
(-0.00323111 -1.78138e-06 0)
(-0.0031873 -1.70839e-06 0)
(-0.00314576 -1.63983e-06 0)
(-0.00310636 -1.57406e-06 0)
(-0.00306892 -1.5117e-06 0)
(-0.00303336 -1.44935e-06 0)
(-0.00299956 -1.38929e-06 0)
(-0.0029675 -1.32519e-06 0)
(-0.00293714 -1.26229e-06 0)
(-0.00290837 -1.19067e-06 0)
(-0.00288157 -1.11546e-06 0)
(-0.00285599 -1.03053e-06 0)
(-0.00283352 -9.19328e-07 0)
(-0.00281091 -8.23525e-07 0)
(-0.00279505 -6.1156e-07 0)
(-0.0027744 -5.44523e-07 0)
(-0.00277101 -3.53576e-08 0)
(-0.00274917 -1.97731e-07 0)
(-0.00277054 1.53737e-06 0)
(-0.002754 -4.76189e-06 0)
(-0.00260033 0.00019088 0)
(3.67811e-06 -9.31087e-07 0)
(2.59128e-06 -6.44616e-08 0)
(3.6086e-06 -4.16048e-07 0)
(5.99378e-06 -6.14706e-06 0)
(9.36388e-06 -1.80443e-05 0)
(1.35329e-05 -3.68812e-05 0)
(1.79722e-05 -6.29032e-05 0)
(2.22668e-05 -9.5632e-05 0)
(2.61601e-05 -0.000134414 0)
(2.94241e-05 -0.000178281 0)
(3.19236e-05 -0.000226104 0)
(3.35428e-05 -0.000276709 0)
(3.42756e-05 -0.000328886 0)
(3.41084e-05 -0.000381431 0)
(3.30901e-05 -0.000433247 0)
(3.13043e-05 -0.000483354 0)
(2.88617e-05 -0.000530923 0)
(2.58912e-05 -0.000575289 0)
(2.25322e-05 -0.000615965 0)
(1.89294e-05 -0.000652632 0)
(1.52284e-05 -0.000685144 0)
(1.15708e-05 -0.000713515 0)
(8.09052e-06 -0.000737907 0)
(4.90806e-06 -0.000758619 0)
(2.12709e-06 -0.00077606 0)
(-1.70474e-07 -0.000790734 0)
(-1.92893e-06 -0.000803209 0)
(-3.12034e-06 -0.000814092 0)
(-3.74655e-06 -0.000823999 0)
(-3.83843e-06 -0.000833526 0)
(-3.45513e-06 -0.000843224 0)
(-2.68123e-06 -0.000853567 0)
(-1.62541e-06 -0.000864938 0)
(-4.19196e-07 -0.000877602 0)
(7.91588e-07 -0.000891691 0)
(1.85266e-06 -0.000907202 0)
(2.6075e-06 -0.000923984 0)
(2.90141e-06 -0.000941747 0)
(2.58711e-06 -0.000960068 0)
(1.54316e-06 -0.000978398 0)
(-3.08906e-07 -0.00099609 0)
(-3.01136e-06 -0.00101244 0)
(-6.59049e-06 -0.00102671 0)
(-1.10831e-05 -0.00103816 0)
(-1.65523e-05 -0.00104601 0)
(-2.29172e-05 -0.00104938 0)
(-2.98213e-05 -0.00104756 0)
(-3.66071e-05 -0.00104026 0)
(-4.27819e-05 -0.00102744 0)
(-4.81896e-05 -0.00100928 0)
(-5.28114e-05 -0.000985978 0)
(-5.65067e-05 -0.000957888 0)
(-5.91772e-05 -0.000925526 0)
(-6.07802e-05 -0.000889528 0)
(-6.1326e-05 -0.000850585 0)
(-6.08794e-05 -0.000809419 0)
(-5.95526e-05 -0.000766738 0)
(-5.74879e-05 -0.000723202 0)
(-5.48421e-05 -0.000679411 0)
(-5.17734e-05 -0.000635883 0)
(-4.84291e-05 -0.000593054 0)
(-4.49386e-05 -0.000551274 0)
(-4.14083e-05 -0.000510811 0)
(-3.79197e-05 -0.000471863 0)
(-3.45329e-05 -0.000434569 0)
(-3.12891e-05 -0.000399013 0)
(-2.82126e-05 -0.000365235 0)
(-2.5315e-05 -0.000333246 0)
(-2.25997e-05 -0.000303032 0)
(-2.00633e-05 -0.000274557 0)
(-1.76991e-05 -0.000247777 0)
(-1.54978e-05 -0.000222632 0)
(-1.34494e-05 -0.000199063 0)
(-1.15455e-05 -0.000177006 0)
(-9.77792e-06 -0.000156392 0)
(-8.1417e-06 -0.000137157 0)
(-6.63169e-06 -0.00011923 0)
(-5.24175e-06 -0.000102547 0)
(-3.96593e-06 -8.7043e-05 0)
(-2.79855e-06 -7.26556e-05 0)
(-1.73459e-06 -5.93258e-05 0)
(-7.69795e-07 -4.6996e-05 0)
(9.98162e-08 -3.56111e-05 0)
(8.77926e-07 -2.5118e-05 0)
(1.56825e-06 -1.54654e-05 0)
(2.17442e-06 -6.60402e-06 0)
(2.70114e-06 1.51382e-06 0)
(3.1544e-06 8.93264e-06 0)
(3.53957e-06 1.56922e-05 0)
(3.86235e-06 2.18337e-05 0)
(4.13029e-06 2.73969e-05 0)
(4.35295e-06 3.24165e-05 0)
(4.5392e-06 3.69236e-05 0)
(4.69849e-06 4.09472e-05 0)
(4.8409e-06 4.45135e-05 0)
(4.97655e-06 4.7645e-05 0)
(5.11485e-06 5.03614e-05 0)
(5.26433e-06 5.26798e-05 0)
(5.43203e-06 5.4615e-05 0)
(5.62264e-06 5.61797e-05 0)
(5.83839e-06 5.73861e-05 0)
(6.0804e-06 5.82457e-05 0)
(6.34926e-06 5.87676e-05 0)
(6.64e-06 5.89591e-05 0)
(6.94599e-06 5.88342e-05 0)
(7.25739e-06 5.84131e-05 0)
(7.56476e-06 5.772e-05 0)
(7.8507e-06 5.67721e-05 0)
(8.09651e-06 5.55984e-05 0)
(8.28199e-06 5.42353e-05 0)
(8.38668e-06 5.2728e-05 0)
(8.39178e-06 5.11308e-05 0)
(8.28276e-06 4.95055e-05 0)
(8.05059e-06 4.79184e-05 0)
(7.69451e-06 4.64371e-05 0)
(7.22525e-06 4.51244e-05 0)
(6.66589e-06 4.40292e-05 0)
(6.05024e-06 4.31815e-05 0)
(5.42457e-06 4.25875e-05 0)
(4.84569e-06 4.22228e-05 0)
(4.37398e-06 4.20306e-05 0)
(4.06793e-06 4.19271e-05 0)
(3.97788e-06 4.18035e-05 0)
(4.14242e-06 4.15369e-05 0)
(4.57915e-06 4.09932e-05 0)
(5.27829e-06 4.00412e-05 0)
(6.20008e-06 3.85685e-05 0)
(7.28025e-06 3.64921e-05 0)
(8.43282e-06 3.37712e-05 0)
(9.56229e-06 3.04135e-05 0)
(1.05709e-05 2.6479e-05 0)
(1.1374e-05 2.20826e-05 0)
(1.19161e-05 1.73852e-05 0)
(1.21725e-05 1.25757e-05 0)
(1.2158e-05 7.86263e-06 0)
(1.19359e-05 3.44248e-06 0)
(1.16006e-05 -5.29692e-07 0)
(1.12593e-05 -3.95352e-06 0)
(1.10188e-05 -6.80001e-06 0)
(1.09594e-05 -9.11017e-06 0)
(1.11193e-05 -1.0978e-05 0)
(1.14883e-05 -1.25293e-05 0)
(1.2008e-05 -1.38934e-05 0)
(1.2582e-05 -1.51793e-05 0)
(1.30882e-05 -1.64559e-05 0)
(1.33969e-05 -1.77367e-05 0)
(1.33918e-05 -1.89767e-05 0)
(1.29892e-05 -2.00801e-05 0)
(1.21572e-05 -2.09203e-05 0)
(1.09177e-05 -2.13706e-05 0)
(9.33102e-06 -2.13263e-05 0)
(7.48325e-06 -2.07183e-05 0)
(5.48009e-06 -1.95182e-05 0)
(3.43613e-06 -1.77417e-05 0)
(1.46036e-06 -1.54431e-05 0)
(-3.47041e-07 -1.27064e-05 0)
(-1.89633e-06 -9.63984e-06 0)
(-3.1094e-06 -6.3684e-06 0)
(-3.92419e-06 -3.02618e-06 0)
(-4.28943e-06 2.47281e-07 0)
(-4.16902e-06 3.30841e-06 0)
(-3.54687e-06 6.01965e-06 0)
(-2.42772e-06 8.25512e-06 0)
(-8.33614e-07 9.90302e-06 0)
(1.21788e-06 1.08678e-05 0)
(3.69919e-06 1.10722e-05 0)
(6.54445e-06 1.04433e-05 0)
(9.67546e-06 8.93733e-06 0)
(1.30288e-05 6.53462e-06 0)
(1.65357e-05 3.23404e-06 0)
(2.01214e-05 -9.45982e-07 0)
(2.37088e-05 -5.9655e-06 0)
(2.7231e-05 -1.17686e-05 0)
(3.06279e-05 -1.8285e-05 0)
(3.3848e-05 -2.54314e-05 0)
(3.68499e-05 -3.31171e-05 0)
(3.96047e-05 -4.12436e-05 0)
(4.2098e-05 -4.97094e-05 0)
(4.43286e-05 -5.84108e-05 0)
(4.63232e-05 -6.72627e-05 0)
(4.81089e-05 -7.61613e-05 0)
(4.97188e-05 -8.49941e-05 0)
(5.12076e-05 -9.3681e-05 0)
(5.26377e-05 -0.000102152 0)
(5.40786e-05 -0.000110356 0)
(5.56015e-05 -0.000118267 0)
(5.7263e-05 -0.0001259 0)
(5.90869e-05 -0.000133325 0)
(6.10334e-05 -0.000140692 0)
(6.29461e-05 -0.000148287 0)
(6.44613e-05 -0.000156626 0)
(6.48358e-05 -0.000166633 0)
(6.26969e-05 -0.000180069 0)
(5.55063e-05 -0.000200079 0)
(3.86776e-05 -0.00023226 0)
(4.22176e-06 -0.000287025 0)
(-6.29223e-05 -0.000382536 0)
(-0.00019125 -0.000545027 0)
(-0.000418447 -0.000798159 0)
(-0.000738311 -0.00112692 0)
(1.83621e-06 -2.15455e-06 0)
(-2.05911e-07 2.74381e-06 0)
(-5.65359e-06 2.72014e-06 0)
(-8.65827e-06 1.6231e-06 0)
(-1.09716e-05 6.69501e-07 0)
(-1.2497e-05 -5.31242e-07 0)
(-1.30108e-05 -2.05826e-06 0)
(-1.21893e-05 -3.93916e-06 0)
(-9.70859e-06 -6.18725e-06 0)
(-5.26157e-06 -8.79745e-06 0)
(1.44721e-06 -1.18158e-05 0)
(1.08234e-05 -1.51743e-05 0)
(2.31618e-05 -1.89201e-05 0)
(3.87658e-05 -2.30303e-05 0)
(5.80087e-05 -2.75162e-05 0)
(8.11437e-05 -3.23198e-05 0)
(0.000108508 -3.74149e-05 0)
(0.000140329 -4.26544e-05 0)
(0.00017685 -4.79625e-05 0)
(0.000218206 -5.30333e-05 0)
(0.000264376 -5.77405e-05 0)
(0.000315233 -6.22448e-05 0)
(0.00037043 -6.73635e-05 0)
(0.000429929 -7.3734e-05 0)
(0.00049395 -8.02149e-05 0)
(0.000561444 -8.23635e-05 0)
(0.000629214 -7.4994e-05 0)
(0.000693757 -5.73478e-05 0)
(0.000753603 -3.45373e-05 0)
(0.000810277 -1.55072e-05 0)
(0.00086766 -8.90818e-06 0)
(0.000932278 -1.97193e-05 0)
(0.00101211 -4.71817e-05 0)
(0.00111367 -8.67775e-05 0)
(0.00124019 -0.000132795 0)
(0.00139068 -0.000175754 0)
(0.00155745 -0.000204855 0)
(0.00172926 -0.000219677 0)
(0.00190109 -0.000230489 0)
(0.00207548 -0.000242283 0)
(0.00225243 -0.000248694 0)
(0.00242409 -0.000242976 0)
(0.00258171 -0.000225478 0)
(0.00271922 -0.000197113 0)
(0.00283003 -0.000155797 0)
(0.00290391 -9.95489e-05 0)
(0.00292765 -2.87e-05 0)
(0.00288462 4.97563e-05 0)
(0.0027714 0.000129523 0)
(0.00258825 0.000208679 0)
(0.00233836 0.000280419 0)
(0.00203528 0.000338828 0)
(0.00169374 0.000384491 0)
(0.00132444 0.000420378 0)
(0.000934196 0.000450453 0)
(0.000525837 0.000478162 0)
(0.000101669 0.000507081 0)
(-0.000344597 0.000537587 0)
(-0.000814482 0.00056618 0)
(-0.00130142 0.000591946 0)
(-0.00180504 0.000615465 0)
(-0.00232354 0.000635636 0)
(-0.00285516 0.000651646 0)
(-0.00339848 0.000661383 0)
(-0.00394827 0.00066119 0)
(-0.00449787 0.000645873 0)
(-0.005034 0.000606228 0)
(-0.00553667 0.000533945 0)
(-0.00598271 0.000415499 0)
(-0.00632461 0.000245833 0)
(-0.00653942 1.83066e-05 0)
(-0.00656199 -0.000268832 0)
(-0.00633657 -0.000604183 0)
(-0.00584763 -0.00093713 0)
(-0.00506148 -0.0011431 0)
(-0.00411868 -0.00114897 0)
(-0.00321462 -0.0010076 0)
(-0.00247584 -0.00080245 0)
(-0.00192546 -0.000603059 0)
(-0.00152276 -0.0004701 0)
(-0.00118843 -0.000430508 0)
(-0.00087182 -0.000468744 0)
(-0.000509671 -0.000549774 0)
(-7.52223e-05 -0.00065758 0)
(0.000708971 -0.000704211 0)
(0.00139475 5.26353e-05 0)
(0.00119237 0.000528534 0)
(0.00103083 0.00030295 0)
(0.000908142 0.000107471 0)
(0.000776827 4.60926e-05 0)
(0.000746312 -2.65883e-05 0)
(0.000801755 -8.9159e-05 0)
(0.000898306 -0.000116079 0)
(0.000988061 -9.15075e-05 0)
(0.00101723 -6.82962e-06 0)
(0.000952355 0.000108088 0)
(0.000794498 0.000220758 0)
(0.000545434 0.000305494 0)
(0.000223608 0.000300096 0)
(-3.42904e-05 0.000136545 0)
(0.000108765 4.35997e-05 0)
(0.00024176 0.000340739 0)
(0.000306287 0.000775091 0)
(0.000204588 0.0010802 0)
(8.60899e-05 0.00119005 0)
(1.38463e-06 0.00118853 0)
(-5.61096e-05 0.00109855 0)
(-7.99609e-05 0.000966784 0)
(-7.67767e-05 0.000824472 0)
(-5.14533e-05 0.000705287 0)
(-1.4126e-05 0.00063066 0)
(2.12534e-05 0.000615158 0)
(4.3962e-05 0.000668617 0)
(3.43492e-05 0.00077125 0)
(-1.39799e-05 0.00086198 0)
(-7.12921e-05 0.000885185 0)
(-0.000102835 0.000831331 0)
(-9.64011e-05 0.000744267 0)
(-5.91418e-05 0.000685662 0)
(-1.48774e-05 0.000683179 0)
(1.71883e-05 0.000717339 0)
(2.37861e-05 0.000749374 0)
(-1.57813e-06 0.000749516 0)
(-5.14929e-05 0.00069785 0)
(-0.000112685 0.000581905 0)
(-0.000177173 0.000398071 0)
(-0.000236541 0.000146688 0)
(-0.000273911 -0.000162301 0)
(-0.000270437 -0.000494847 0)
(-0.00021472 -0.000795024 0)
(-0.000111701 -0.00100258 0)
(1.75194e-05 -0.00107117 0)
(0.00015326 -0.000991776 0)
(0.000255274 -0.00077052 0)
(0.000296964 -0.000441582 0)
(0.000266306 -7.04011e-05 0)
(0.000188905 0.000262024 0)
(0.000129317 0.000507 0)
(0.000156048 0.000643259 0)
(0.00025745 0.000709734 0)
(0.000292121 0.000738531 0)
(0.000122944 0.000750509 0)
(-0.000253702 0.000741592 0)
(-0.000723949 0.000654851 0)
(-0.000982517 0.000457575 0)
(-0.00081733 0.000233895 0)
(-0.000266668 0.000146562 0)
(0.000472753 0.000388365 0)
(0.000994971 0.00107233 0)
(0.00074963 0.00172472 0)
(0.000317414 0.00188401 0)
(0.000251588 0.0019079 0)
(0.000194567 0.00203239 0)
(8.65339e-05 0.00207974 0)
(6.11978e-05 0.0020858 0)
(2.76137e-05 0.00210515 0)
(-1.23862e-06 0.00209779 0)
(-9.74416e-06 0.00208785 0)
(-2.29521e-05 0.00207867 0)
(-2.90674e-05 0.00206289 0)
(-3.24967e-05 0.00204906 0)
(-3.62426e-05 0.00203405 0)
(-3.73818e-05 0.0020186 0)
(-3.87596e-05 0.0020038 0)
(-3.97537e-05 0.00198846 0)
(-4.07412e-05 0.00197311 0)
(-4.25056e-05 0.00195714 0)
(-4.50664e-05 0.00193994 0)
(-4.89825e-05 0.00192087 0)
(-5.45572e-05 0.00189882 0)
(-6.22072e-05 0.00187254 0)
(-7.24822e-05 0.00184031 0)
(-8.59217e-05 0.00179992 0)
(-0.000103268 0.00174862 0)
(-0.000125288 0.00168293 0)
(-0.000152369 0.0015987 0)
(-0.0001836 0.00149156 0)
(-0.000215423 0.00135812 0)
(-0.000240366 0.0011978 0)
(-0.000246546 0.0010146 0)
(-0.000217882 0.000817707 0)
(-0.00013719 0.000623158 0)
(-5.58008e-06 0.000457613 0)
(0.000128499 0.000359452 0)
(0.000204731 0.000333373 0)
(0.000202121 0.000324663 0)
(0.000155466 0.00032561 0)
(8.63344e-05 0.00042922 0)
(-8.03696e-05 0.000682522 0)
(-0.000351782 0.000942648 0)
(-0.000538711 0.00107115 0)
(-0.000426863 0.00104652 0)
(0.000205929 0.000960613 0)
(0.00143084 0.00125366 0)
(0.00248681 0.00250789 0)
(0.00211574 0.0040407 0)
(0.000999209 0.00444475 0)
(0.000748256 0.0042326 0)
(0.000839935 0.00451325 0)
(0.000556938 0.00482881 0)
(0.000401027 0.00485412 0)
(0.000386819 0.00496108 0)
(0.000263627 0.0050801 0)
(0.000186952 0.00509955 0)
(0.000151357 0.005137 0)
(8.62656e-05 0.00516329 0)
(4.59773e-05 0.00515417 0)
(1.739e-05 0.00514816 0)
(-1.5044e-05 0.00513204 0)
(-3.51597e-05 0.00510509 0)
(-5.15465e-05 0.00507824 0)
(-6.59098e-05 0.00504635 0)
(-7.41223e-05 0.00501195 0)
(-7.99035e-05 0.00497828 0)
(-8.30018e-05 0.00494406 0)
(-8.28681e-05 0.00491114 0)
(-8.09216e-05 0.00488047 0)
(-7.70089e-05 0.00485203 0)
(-7.13688e-05 0.00482676 0)
(-6.45666e-05 0.00480499 0)
(-5.66938e-05 0.00478694 0)
(-4.80806e-05 0.00477296 0)
(-3.88767e-05 0.00476402 0)
(-2.88667e-05 0.00476098 0)
(-1.78444e-05 0.00476198 0)
(-4.97849e-06 0.00476676 0)
(1.0509e-05 0.0047762 0)
(2.85554e-05 0.00479125 0)
(4.88035e-05 0.00481222 0)
(7.11841e-05 0.00483916 0)
(9.57497e-05 0.00487227 0)
(0.000122495 0.00491175 0)
(0.000151372 0.00495775 0)
(0.000182292 0.00501044 0)
(0.000215022 0.00506996 0)
(0.000249185 0.00513649 0)
(0.000284205 0.00521028 0)
(0.000319219 0.0052917 0)
(0.000353104 0.005381 0)
(0.000384573 0.00547819 0)
(0.000412339 0.00558266 0)
(0.000435487 0.00569301 0)
(0.000453844 0.00580707 0)
(0.000468218 0.00592246 0)
(0.000480399 0.00603749 0)
(0.00049262 0.0061496 0)
(0.000507614 0.00626129 0)
(0.000528246 0.00637545 0)
(0.000557371 0.00649132 0)
(0.000597787 0.00660774 0)
(0.000651048 0.00672612 0)
(0.000715326 0.00685241 0)
(0.000783645 0.00699466 0)
(0.000844563 0.00715701 0)
(0.000886553 0.0073345 0)
(0.000904069 0.00751274 0)
(0.000901397 0.00767392 0)
(0.00089107 0.0078058 0)
(0.000887229 0.00790896 0)
(0.000897694 0.00799853 0)
(0.000918863 0.00809803 0)
(0.00093733 0.00823494 0)
(0.000931492 0.0083935 0)
(0.000885007 0.00856018 0)
(0.000792057 0.00871211 0)
(0.000659516 0.0088269 0)
(0.000502854 0.00889231 0)
(0.000339983 0.0089093 0)
(0.000185639 0.00888844 0)
(4.71579e-05 0.0088452 0)
(-8.0094e-05 0.00879324 0)
(-0.000203679 0.00873427 0)
(-0.000326308 0.00866588 0)
(-0.000450535 0.00858585 0)
(-0.00057752 0.00849161 0)
(-0.000706636 0.00838184 0)
(-0.000837258 0.00825712 0)
(-0.000969197 0.00811842 0)
(-0.0011025 0.00796671 0)
(-0.00123762 0.00780286 0)
(-0.00137519 0.00762734 0)
(-0.00151593 0.00744044 0)
(-0.00166059 0.00724237 0)
(-0.00180997 0.00703325 0)
(-0.00196493 0.00681319 0)
(-0.00212637 0.00658233 0)
(-0.00229535 0.00634075 0)
(-0.00247293 0.00608859 0)
(-0.00266035 0.00582608 0)
(-0.00285953 0.00555348 0)
(-0.00307284 0.00527037 0)
(-0.00332648 0.00501443 0)
(-0.00363683 0.00479605 0)
(-0.00399375 0.00458403 0)
(-0.00440607 0.004373 0)
(-0.00488462 0.00415672 0)
(-0.00544547 0.00393357 0)
(-0.00611977 0.00374153 0)
(-0.00681745 0.00367904 0)
(-0.00707472 0.00393022 0)
)
;
    }
    frontAndBack
    {
        type            empty;
    }
}


// ************************************************************************* //
