/*--------------------------------*- C++ -*----------------------------------*\
  =========                 |
  \\      /  F ield         | OpenFOAM: The Open Source CFD Toolbox
   \\    /   O peration     | Website:  https://openfoam.org
    \\  /    A nd           | Version:  7
     \\/     M anipulation  |
\*---------------------------------------------------------------------------*/
FoamFile
{
    version     2.0;
    format      ascii;
    class       volScalarField;
    location    "0.43";
    object      k;
}
// * * * * * * * * * * * * * * * * * * * * * * * * * * * * * * * * * * * * * //

dimensions      [0 2 -2 0 0 0 0];

internalField   nonuniform List<scalar> 
70000
(
1.08549e-05
4.21876e-06
2.82436e-06
2.31687e-06
1.99765e-06
1.75742e-06
1.56553e-06
1.40876e-06
1.27804e-06
1.16745e-06
1.07258e-06
9.90673e-07
9.19187e-07
8.56623e-07
8.01281e-07
7.52338e-07
7.08502e-07
6.69393e-07
6.33976e-07
6.0217e-07
5.73105e-07
5.46861e-07
5.22696e-07
5.00757e-07
4.80429e-07
4.61879e-07
4.44595e-07
4.28759e-07
4.13901e-07
4.003e-07
3.87374e-07
3.75677e-07
3.64274e-07
3.54255e-07
3.44025e-07
3.3553e-07
3.26184e-07
3.1909e-07
3.1042e-07
3.04644e-07
2.96653e-07
2.92535e-07
2.84603e-07
2.82123e-07
2.73831e-07
2.74311e-07
2.66007e-07
2.80196e-07
2.65954e-07
4.04635e-07
1.72794e-05
1.13673e-05
8.52053e-06
7.01055e-06
6.03756e-06
5.3116e-06
4.7324e-06
4.25896e-06
3.86414e-06
3.53012e-06
3.24362e-06
2.99625e-06
2.78033e-06
2.59135e-06
2.42417e-06
2.27629e-06
2.14383e-06
2.02564e-06
1.9186e-06
1.82244e-06
1.73459e-06
1.65522e-06
1.58218e-06
1.51581e-06
1.45436e-06
1.39822e-06
1.34597e-06
1.29804e-06
1.2531e-06
1.21195e-06
1.17283e-06
1.13746e-06
1.10292e-06
1.07264e-06
1.04162e-06
1.01597e-06
9.87621e-07
9.66175e-07
9.39927e-07
9.22455e-07
8.98221e-07
8.853e-07
8.61426e-07
8.52776e-07
8.2889e-07
8.26734e-07
8.04797e-07
8.32559e-07
8.02903e-07
9.15903e-07
1.937e-05
1.61297e-05
1.3291e-05
1.12897e-05
9.82889e-06
8.69682e-06
7.77949e-06
7.02222e-06
6.38607e-06
5.84518e-06
5.37954e-06
4.97633e-06
4.62346e-06
4.31397e-06
4.0396e-06
3.79649e-06
3.57835e-06
3.3834e-06
3.20665e-06
3.04762e-06
2.90228e-06
2.7707e-06
2.64967e-06
2.53941e-06
2.43744e-06
2.34404e-06
2.2572e-06
2.17737e-06
2.10256e-06
2.03398e-06
1.96873e-06
1.90977e-06
1.85205e-06
1.80159e-06
1.74966e-06
1.70689e-06
1.65942e-06
1.62352e-06
1.57979e-06
1.55013e-06
1.50964e-06
1.48687e-06
1.44737e-06
1.43129e-06
1.39279e-06
1.38475e-06
1.35001e-06
1.37583e-06
1.34236e-06
1.38507e-06
1.9861e-05
1.826e-05
1.60857e-05
1.42003e-05
1.26404e-05
1.13493e-05
1.02617e-05
9.33991e-06
8.54885e-06
7.86611e-06
7.27184e-06
6.75274e-06
6.29496e-06
5.89096e-06
5.5307e-06
5.20983e-06
4.92058e-06
4.66094e-06
4.42482e-06
4.21154e-06
4.01629e-06
3.83877e-06
3.6754e-06
3.52588e-06
3.38769e-06
3.2605e-06
3.14233e-06
3.03328e-06
2.93109e-06
2.83719e-06
2.74776e-06
2.66688e-06
2.5875e-06
2.51818e-06
2.44657e-06
2.38763e-06
2.32222e-06
2.27229e-06
2.21236e-06
2.17011e-06
2.11476e-06
2.08086e-06
2.02754e-06
2.00304e-06
1.95117e-06
1.93565e-06
1.88801e-06
1.90101e-06
1.87037e-06
1.87061e-06
1.99706e-05
1.78459e-05
1.60749e-05
1.47666e-05
1.36026e-05
1.25377e-05
1.15695e-05
1.07021e-05
9.92135e-06
9.22616e-06
8.60639e-06
8.05423e-06
7.55889e-06
7.11566e-06
6.71519e-06
6.35444e-06
6.02597e-06
5.72847e-06
5.45614e-06
5.20824e-06
4.98031e-06
4.77147e-06
4.57882e-06
4.40112e-06
4.23672e-06
4.08429e-06
3.94256e-06
3.81097e-06
3.68757e-06
3.57363e-06
3.46499e-06
3.36641e-06
3.26944e-06
3.18458e-06
3.09678e-06
3.02406e-06
2.94403e-06
2.88142e-06
2.80865e-06
2.75444e-06
2.68786e-06
2.64215e-06
2.57923e-06
2.5441e-06
2.48199e-06
2.45854e-06
2.39987e-06
2.39583e-06
2.36863e-06
2.33119e-06
2.00095e-05
1.47039e-05
1.3748e-05
1.3211e-05
1.25912e-05
1.19268e-05
1.12773e-05
1.06569e-05
1.00795e-05
9.54551e-06
9.04491e-06
8.57897e-06
8.14559e-06
7.7463e-06
7.37525e-06
7.03319e-06
6.71572e-06
6.42333e-06
6.15237e-06
5.90212e-06
5.66995e-06
5.45431e-06
5.25416e-06
5.06719e-06
4.89355e-06
4.73065e-06
4.57875e-06
4.43632e-06
4.30254e-06
4.17793e-06
4.05898e-06
3.95019e-06
3.84307e-06
3.74857e-06
3.65112e-06
3.5689e-06
3.48035e-06
3.40789e-06
3.32805e-06
3.26355e-06
3.19145e-06
3.13451e-06
3.06813e-06
3.02025e-06
2.95533e-06
2.92229e-06
2.85971e-06
2.83619e-06
2.80399e-06
2.74403e-06
2.01332e-05
1.54674e-05
9.63489e-06
9.39816e-06
9.49247e-06
9.49147e-06
9.43238e-06
9.29326e-06
9.05227e-06
8.77842e-06
8.48313e-06
8.18598e-06
7.89405e-06
7.61111e-06
7.33448e-06
7.07375e-06
6.82697e-06
6.59264e-06
6.37029e-06
6.15887e-06
5.95907e-06
5.76879e-06
5.58985e-06
5.41919e-06
5.25918e-06
5.10607e-06
4.96251e-06
4.82578e-06
4.69694e-06
4.57511e-06
4.45862e-06
4.35055e-06
4.24416e-06
4.14862e-06
4.05121e-06
3.96598e-06
3.87771e-06
3.8003e-06
3.72128e-06
3.65005e-06
3.57978e-06
3.51395e-06
3.45111e-06
3.39175e-06
3.33275e-06
3.28361e-06
3.23093e-06
3.18425e-06
3.15158e-06
3.08043e-06
2.01713e-05
1.86759e-05
8.69197e-06
5.54035e-06
5.63037e-06
5.93384e-06
6.29116e-06
6.57551e-06
6.75375e-06
6.86169e-06
6.87986e-06
6.86014e-06
6.80729e-06
6.71853e-06
6.60737e-06
6.48558e-06
6.34812e-06
6.20571e-06
6.06399e-06
5.92104e-06
5.78164e-06
5.64315e-06
5.51023e-06
5.37937e-06
5.2542e-06
5.13264e-06
5.01825e-06
4.90633e-06
4.80015e-06
4.69702e-06
4.598e-06
4.50376e-06
4.41119e-06
4.32521e-06
4.23949e-06
4.15988e-06
4.08207e-06
4.00702e-06
3.93756e-06
3.86588e-06
3.80472e-06
3.73584e-06
3.68228e-06
3.61702e-06
3.56891e-06
3.50861e-06
3.46783e-06
3.40728e-06
3.3762e-06
3.30377e-06
2.01672e-05
1.97239e-05
1.61672e-05
4.86184e-06
3.04257e-06
3.10549e-06
3.37362e-06
3.80266e-06
4.16697e-06
4.48366e-06
4.72937e-06
4.91777e-06
5.05697e-06
5.15615e-06
5.21363e-06
5.24867e-06
5.25103e-06
5.24189e-06
5.21962e-06
5.17885e-06
5.13177e-06
5.07429e-06
5.01474e-06
4.948e-06
4.88115e-06
4.80948e-06
4.73842e-06
4.66414e-06
4.59239e-06
4.51945e-06
4.44877e-06
4.37881e-06
4.31028e-06
4.24321e-06
4.17857e-06
4.11337e-06
4.05404e-06
3.98997e-06
3.93659e-06
3.87321e-06
3.82662e-06
3.76413e-06
3.72303e-06
3.66202e-06
3.62527e-06
3.56616e-06
3.53376e-06
3.47649e-06
3.44822e-06
3.38109e-06
2.01477e-05
1.99342e-05
1.90655e-05
1.44988e-05
5.24446e-06
2.1551e-06
1.91431e-06
1.99305e-06
2.20535e-06
2.50279e-06
2.7771e-06
3.02867e-06
3.25182e-06
3.44681e-06
3.6091e-06
3.74546e-06
3.85587e-06
3.94203e-06
4.01289e-06
4.06268e-06
4.10112e-06
4.12247e-06
4.13765e-06
4.13762e-06
4.13391e-06
4.12369e-06
4.10849e-06
4.08596e-06
4.06216e-06
4.03296e-06
4.00295e-06
3.96944e-06
3.9357e-06
3.89846e-06
3.86416e-06
3.82346e-06
3.78998e-06
3.7465e-06
3.71466e-06
3.66899e-06
3.63883e-06
3.5914e-06
3.56311e-06
3.5152e-06
3.48871e-06
3.44102e-06
3.41637e-06
3.36949e-06
3.34702e-06
3.29309e-06
2.01216e-05
1.99661e-05
1.96423e-05
1.85463e-05
1.52132e-05
8.36279e-06
3.10933e-06
1.63372e-06
1.44226e-06
1.44867e-06
1.52459e-06
1.68383e-06
1.8646e-06
2.03965e-06
2.20839e-06
2.36507e-06
2.51116e-06
2.63932e-06
2.7567e-06
2.85723e-06
2.94794e-06
3.02321e-06
3.09032e-06
3.14437e-06
3.19098e-06
3.22765e-06
3.25924e-06
3.28175e-06
3.30032e-06
3.31194e-06
3.32008e-06
3.32322e-06
3.32254e-06
3.31935e-06
3.31439e-06
3.30357e-06
3.29561e-06
3.27919e-06
3.26891e-06
3.24814e-06
3.23612e-06
3.21217e-06
3.19869e-06
3.17201e-06
3.15754e-06
3.12881e-06
3.11378e-06
3.0836e-06
3.06926e-06
3.03479e-06
2.00982e-05
1.99327e-05
1.97573e-05
1.93524e-05
1.85064e-05
1.65382e-05
1.23338e-05
6.87158e-06
2.99751e-06
1.49614e-06
1.24362e-06
1.14728e-06
1.15067e-06
1.19184e-06
1.28269e-06
1.38721e-06
1.49893e-06
1.60586e-06
1.71482e-06
1.81685e-06
1.91549e-06
2.00551e-06
2.09054e-06
2.16684e-06
2.23815e-06
2.3008e-06
2.35923e-06
2.40968e-06
2.45617e-06
2.49583e-06
2.53192e-06
2.56206e-06
2.58946e-06
2.61081e-06
2.63163e-06
2.64535e-06
2.66022e-06
2.66791e-06
2.67714e-06
2.68022e-06
2.68408e-06
2.68363e-06
2.68257e-06
2.6788e-06
2.67529e-06
2.66706e-06
2.66177e-06
2.64998e-06
2.6443e-06
2.63035e-06
2.00782e-05
1.98876e-05
1.97569e-05
1.94608e-05
1.91458e-05
1.86416e-05
1.7558e-05
1.54317e-05
1.17577e-05
7.47137e-06
4.00717e-06
1.92942e-06
1.21252e-06
1.05792e-06
9.83201e-07
9.41177e-07
9.5139e-07
9.83061e-07
1.04443e-06
1.10599e-06
1.17369e-06
1.24121e-06
1.31e-06
1.37718e-06
1.44403e-06
1.50644e-06
1.56759e-06
1.62372e-06
1.67798e-06
1.72743e-06
1.77474e-06
1.8174e-06
1.85796e-06
1.89385e-06
1.92822e-06
1.95769e-06
1.98625e-06
2.01019e-06
2.03301e-06
2.05191e-06
2.06983e-06
2.0837e-06
2.09721e-06
2.10648e-06
2.11601e-06
2.12115e-06
2.12719e-06
2.12892e-06
2.13233e-06
2.13438e-06
2.00614e-05
1.98539e-05
1.97343e-05
1.94709e-05
1.92551e-05
1.9047e-05
1.87367e-05
1.81931e-05
1.71038e-05
1.52462e-05
1.25953e-05
9.27815e-06
6.02261e-06
3.52188e-06
1.91073e-06
1.17915e-06
9.67368e-07
8.92015e-07
8.38318e-07
7.95166e-07
7.95729e-07
8.07415e-07
8.34745e-07
8.71335e-07
9.10155e-07
9.4974e-07
9.92249e-07
1.03385e-06
1.07712e-06
1.11908e-06
1.16081e-06
1.20081e-06
1.23926e-06
1.27621e-06
1.31129e-06
1.34439e-06
1.37598e-06
1.40548e-06
1.43304e-06
1.45858e-06
1.48274e-06
1.50382e-06
1.52428e-06
1.54173e-06
1.55782e-06
1.57212e-06
1.58428e-06
1.59545e-06
1.60497e-06
1.61567e-06
2.00475e-05
1.98303e-05
1.97076e-05
1.94487e-05
1.9272e-05
1.91148e-05
1.89657e-05
1.87516e-05
1.84648e-05
1.79183e-05
1.70879e-05
1.5723e-05
1.39172e-05
1.1588e-05
8.92715e-06
6.32853e-06
4.15048e-06
2.56563e-06
1.54658e-06
1.04911e-06
8.6882e-07
8.0199e-07
7.54256e-07
7.12817e-07
6.8225e-07
6.74603e-07
6.79109e-07
6.90552e-07
7.10748e-07
7.32072e-07
7.55046e-07
7.78449e-07
8.02557e-07
8.28263e-07
8.53209e-07
8.7911e-07
9.04155e-07
9.29438e-07
9.52955e-07
9.76316e-07
9.98444e-07
1.01897e-06
1.03891e-06
1.05757e-06
1.07396e-06
1.09124e-06
1.10433e-06
1.11909e-06
1.13106e-06
1.14373e-06
2.00362e-05
1.98125e-05
1.96851e-05
1.94184e-05
1.92579e-05
1.91084e-05
1.90005e-05
1.88503e-05
1.87138e-05
1.85039e-05
1.82527e-05
1.78408e-05
1.72464e-05
1.63839e-05
1.51998e-05
1.36796e-05
1.18961e-05
9.83639e-06
7.70945e-06
5.71976e-06
4.03007e-06
2.73666e-06
1.7997e-06
1.20818e-06
9.05462e-07
7.75156e-07
7.16893e-07
6.79032e-07
6.44577e-07
6.12623e-07
5.91048e-07
5.77584e-07
5.7778e-07
5.81063e-07
5.88276e-07
5.9954e-07
6.1101e-07
6.23829e-07
6.35744e-07
6.48866e-07
6.61727e-07
6.74857e-07
6.88111e-07
7.01685e-07
7.13522e-07
7.2763e-07
7.37864e-07
7.50508e-07
7.60912e-07
7.71764e-07
2.00272e-05
1.97986e-05
1.96659e-05
1.93964e-05
1.92321e-05
1.90809e-05
1.89825e-05
1.88536e-05
1.8738e-05
1.8599e-05
1.8464e-05
1.82939e-05
1.80885e-05
1.78033e-05
1.74238e-05
1.68861e-05
1.61906e-05
1.52832e-05
1.41649e-05
1.28428e-05
1.13742e-05
9.74326e-06
8.0606e-06
6.43778e-06
4.96157e-06
3.7082e-06
2.70993e-06
1.93604e-06
1.37521e-06
1.01264e-06
8.08917e-07
7.0438e-07
6.50967e-07
6.17326e-07
5.90273e-07
5.64548e-07
5.40199e-07
5.20355e-07
5.0551e-07
4.96855e-07
4.92864e-07
4.93354e-07
4.95192e-07
4.99354e-07
5.02955e-07
5.09604e-07
5.13261e-07
5.19473e-07
5.24044e-07
5.30162e-07
2.002e-05
1.979e-05
1.96459e-05
1.938e-05
1.9208e-05
1.90517e-05
1.89444e-05
1.88273e-05
1.87163e-05
1.85927e-05
1.84753e-05
1.835e-05
1.82265e-05
1.8084e-05
1.79289e-05
1.77317e-05
1.74914e-05
1.7177e-05
1.67807e-05
1.62702e-05
1.56477e-05
1.48912e-05
1.39981e-05
1.29767e-05
1.18515e-05
1.06445e-05
9.3549e-06
8.04543e-06
6.76614e-06
5.56945e-06
4.48768e-06
3.55205e-06
2.7775e-06
2.14343e-06
1.63692e-06
1.25236e-06
9.7894e-07
8.00183e-07
6.90126e-07
6.25076e-07
5.85328e-07
5.58676e-07
5.37569e-07
5.19412e-07
5.01439e-07
4.867e-07
4.70053e-07
4.59866e-07
4.48885e-07
4.49289e-07
2.00145e-05
1.979e-05
1.96195e-05
1.93666e-05
1.91873e-05
1.90248e-05
1.89083e-05
1.87914e-05
1.86759e-05
1.85579e-05
1.84445e-05
1.83291e-05
1.82166e-05
1.80995e-05
1.79852e-05
1.78649e-05
1.77406e-05
1.75996e-05
1.74421e-05
1.72524e-05
1.70253e-05
1.67503e-05
1.6416e-05
1.60148e-05
1.55357e-05
1.49829e-05
1.43438e-05
1.36241e-05
1.28265e-05
1.19643e-05
1.10522e-05
1.01032e-05
9.11632e-06
8.12233e-06
7.14492e-06
6.21104e-06
5.33412e-06
4.53745e-06
3.81791e-06
3.19622e-06
2.66346e-06
2.21085e-06
1.82941e-06
1.51377e-06
1.2567e-06
1.05657e-06
9.01251e-07
7.96325e-07
7.33387e-07
7.39949e-07
2.00102e-05
1.97941e-05
1.95926e-05
1.93529e-05
1.91683e-05
1.89993e-05
1.88747e-05
1.87559e-05
1.86356e-05
1.85162e-05
1.83985e-05
1.82841e-05
1.81719e-05
1.80619e-05
1.79531e-05
1.78456e-05
1.77384e-05
1.76293e-05
1.75235e-05
1.74119e-05
1.7296e-05
1.717e-05
1.70306e-05
1.68728e-05
1.66887e-05
1.64805e-05
1.6233e-05
1.59534e-05
1.56257e-05
1.52569e-05
1.48378e-05
1.4372e-05
1.38623e-05
1.33036e-05
1.27008e-05
1.20657e-05
1.13972e-05
1.07125e-05
1.00131e-05
9.3095e-06
8.59771e-06
7.90079e-06
7.22273e-06
6.5799e-06
5.96175e-06
5.40855e-06
4.86259e-06
4.40748e-06
3.95735e-06
3.68358e-06
2.0007e-05
1.98016e-05
1.95679e-05
1.93396e-05
1.91506e-05
1.89752e-05
1.88428e-05
1.87216e-05
1.85966e-05
1.84755e-05
1.83523e-05
1.82366e-05
1.81203e-05
1.80084e-05
1.78976e-05
1.77898e-05
1.76868e-05
1.75821e-05
1.74847e-05
1.73842e-05
1.72868e-05
1.71873e-05
1.70909e-05
1.69924e-05
1.68889e-05
1.67871e-05
1.66696e-05
1.65527e-05
1.6415e-05
1.62704e-05
1.61034e-05
1.5917e-05
1.57156e-05
1.5488e-05
1.52301e-05
1.49586e-05
1.46467e-05
1.43279e-05
1.39651e-05
1.35979e-05
1.31982e-05
1.27845e-05
1.23572e-05
1.19175e-05
1.14624e-05
1.1031e-05
1.05605e-05
1.0132e-05
9.66159e-06
9.28127e-06
2.00047e-05
1.98101e-05
1.9545e-05
1.93263e-05
1.91336e-05
1.89524e-05
1.88124e-05
1.86884e-05
1.85594e-05
1.84362e-05
1.8308e-05
1.81897e-05
1.80697e-05
1.79549e-05
1.7841e-05
1.77303e-05
1.76243e-05
1.75159e-05
1.74178e-05
1.73155e-05
1.72205e-05
1.71253e-05
1.70356e-05
1.69453e-05
1.68547e-05
1.67717e-05
1.66782e-05
1.65976e-05
1.65068e-05
1.64247e-05
1.63324e-05
1.62383e-05
1.61469e-05
1.60457e-05
1.59301e-05
1.58216e-05
1.56854e-05
1.5563e-05
1.54042e-05
1.52561e-05
1.50865e-05
1.49043e-05
1.4722e-05
1.45174e-05
1.4304e-05
1.41022e-05
1.38669e-05
1.3634e-05
1.3387e-05
1.31548e-05
2.0003e-05
1.98189e-05
1.95238e-05
1.93124e-05
1.91168e-05
1.89311e-05
1.87835e-05
1.86561e-05
1.85239e-05
1.83985e-05
1.82661e-05
1.81449e-05
1.80213e-05
1.79037e-05
1.77862e-05
1.76727e-05
1.75636e-05
1.74519e-05
1.73509e-05
1.7246e-05
1.7147e-05
1.70482e-05
1.69562e-05
1.68631e-05
1.67718e-05
1.66897e-05
1.66009e-05
1.65248e-05
1.64416e-05
1.63693e-05
1.62888e-05
1.62127e-05
1.61427e-05
1.60692e-05
1.59893e-05
1.59234e-05
1.58409e-05
1.57786e-05
1.56907e-05
1.562e-05
1.55415e-05
1.54523e-05
1.53759e-05
1.52824e-05
1.51867e-05
1.51079e-05
1.50047e-05
1.48964e-05
1.47955e-05
1.46943e-05
2.00018e-05
1.98272e-05
1.95046e-05
1.92975e-05
1.90996e-05
1.89113e-05
1.8756e-05
1.86249e-05
1.84904e-05
1.83628e-05
1.82268e-05
1.81026e-05
1.79759e-05
1.78556e-05
1.77347e-05
1.76184e-05
1.75061e-05
1.7392e-05
1.72874e-05
1.71805e-05
1.70775e-05
1.69764e-05
1.68812e-05
1.67847e-05
1.66907e-05
1.66043e-05
1.65124e-05
1.64314e-05
1.63475e-05
1.62724e-05
1.61899e-05
1.61155e-05
1.60483e-05
1.59793e-05
1.59049e-05
1.58441e-05
1.57722e-05
1.57188e-05
1.56457e-05
1.55897e-05
1.55321e-05
1.54642e-05
1.54131e-05
1.53532e-05
1.5292e-05
1.52512e-05
1.51935e-05
1.51314e-05
1.50835e-05
1.50408e-05
2.00009e-05
1.98304e-05
1.94885e-05
1.92822e-05
1.90823e-05
1.88934e-05
1.87303e-05
1.85954e-05
1.8459e-05
1.83294e-05
1.81907e-05
1.80634e-05
1.7934e-05
1.78113e-05
1.76874e-05
1.75685e-05
1.7453e-05
1.73372e-05
1.72286e-05
1.71204e-05
1.70134e-05
1.69107e-05
1.68122e-05
1.67131e-05
1.66166e-05
1.65271e-05
1.6433e-05
1.63476e-05
1.62625e-05
1.61834e-05
1.60973e-05
1.6021e-05
1.59488e-05
1.58769e-05
1.57998e-05
1.57351e-05
1.56633e-05
1.56064e-05
1.55344e-05
1.54785e-05
1.54241e-05
1.53593e-05
1.5311e-05
1.52577e-05
1.52029e-05
1.51676e-05
1.51189e-05
1.50677e-05
1.5032e-05
1.50019e-05
2.00003e-05
1.98288e-05
1.94755e-05
1.92663e-05
1.90648e-05
1.88777e-05
1.8707e-05
1.85681e-05
1.84302e-05
1.82989e-05
1.81582e-05
1.8028e-05
1.78964e-05
1.77716e-05
1.7645e-05
1.75238e-05
1.74055e-05
1.72883e-05
1.71758e-05
1.70665e-05
1.6956e-05
1.68518e-05
1.67502e-05
1.66492e-05
1.65502e-05
1.64585e-05
1.63622e-05
1.62739e-05
1.61877e-05
1.61056e-05
1.60168e-05
1.59392e-05
1.58636e-05
1.57896e-05
1.57098e-05
1.56418e-05
1.55681e-05
1.55072e-05
1.54336e-05
1.53745e-05
1.53174e-05
1.52494e-05
1.51984e-05
1.51437e-05
1.50887e-05
1.50521e-05
1.50013e-05
1.49517e-05
1.49194e-05
1.48888e-05
2e-05
1.98271e-05
1.94644e-05
1.92488e-05
1.90465e-05
1.88634e-05
1.86859e-05
1.85429e-05
1.8404e-05
1.82715e-05
1.81295e-05
1.79967e-05
1.78636e-05
1.7737e-05
1.76084e-05
1.74849e-05
1.73644e-05
1.72461e-05
1.71302e-05
1.70198e-05
1.69067e-05
1.68009e-05
1.66966e-05
1.65939e-05
1.64928e-05
1.63993e-05
1.63009e-05
1.62105e-05
1.61232e-05
1.60389e-05
1.59482e-05
1.58696e-05
1.57917e-05
1.57161e-05
1.56345e-05
1.55648e-05
1.54895e-05
1.54256e-05
1.53512e-05
1.52902e-05
1.52309e-05
1.51607e-05
1.51083e-05
1.50508e-05
1.49961e-05
1.49577e-05
1.4902e-05
1.48537e-05
1.48232e-05
1.47863e-05
1.99999e-05
1.98259e-05
1.94563e-05
1.9231e-05
1.90282e-05
1.88507e-05
1.86676e-05
1.85205e-05
1.83809e-05
1.82479e-05
1.81051e-05
1.79703e-05
1.78362e-05
1.77081e-05
1.75781e-05
1.74527e-05
1.73308e-05
1.72113e-05
1.70929e-05
1.69815e-05
1.68663e-05
1.67589e-05
1.66525e-05
1.65484e-05
1.64457e-05
1.63506e-05
1.62502e-05
1.61585e-05
1.60701e-05
1.59841e-05
1.5892e-05
1.58128e-05
1.57332e-05
1.56562e-05
1.55735e-05
1.55027e-05
1.54265e-05
1.53601e-05
1.52859e-05
1.52238e-05
1.51626e-05
1.50917e-05
1.50388e-05
1.49791e-05
1.49262e-05
1.48855e-05
1.48257e-05
1.47808e-05
1.47507e-05
1.47031e-05
1.99999e-05
1.98252e-05
1.94511e-05
1.92138e-05
1.90108e-05
1.884e-05
1.86531e-05
1.85017e-05
1.83614e-05
1.82287e-05
1.80857e-05
1.79496e-05
1.78149e-05
1.76858e-05
1.7555e-05
1.74282e-05
1.73053e-05
1.71848e-05
1.70646e-05
1.69526e-05
1.68359e-05
1.67271e-05
1.66192e-05
1.6514e-05
1.64102e-05
1.63137e-05
1.62115e-05
1.61192e-05
1.60298e-05
1.59424e-05
1.58493e-05
1.57698e-05
1.56888e-05
1.56106e-05
1.55276e-05
1.5456e-05
1.53793e-05
1.53109e-05
1.52373e-05
1.51747e-05
1.51115e-05
1.50415e-05
1.49876e-05
1.49271e-05
1.48767e-05
1.48324e-05
1.47705e-05
1.47307e-05
1.4698e-05
1.46401e-05
1.99999e-05
1.98249e-05
1.94487e-05
1.91982e-05
1.89948e-05
1.88312e-05
1.86427e-05
1.8487e-05
1.83461e-05
1.82144e-05
1.80717e-05
1.79351e-05
1.78004e-05
1.76707e-05
1.75395e-05
1.74121e-05
1.72888e-05
1.71675e-05
1.70464e-05
1.6934e-05
1.68163e-05
1.67066e-05
1.65975e-05
1.64917e-05
1.63872e-05
1.62895e-05
1.61861e-05
1.60936e-05
1.60035e-05
1.5915e-05
1.58215e-05
1.57421e-05
1.566e-05
1.55809e-05
1.54979e-05
1.54261e-05
1.53489e-05
1.52792e-05
1.52061e-05
1.51437e-05
1.50784e-05
1.50105e-05
1.49549e-05
1.4895e-05
1.48466e-05
1.47978e-05
1.47362e-05
1.47019e-05
1.46633e-05
1.4597e-05
1.99999e-05
1.9825e-05
1.94489e-05
1.9185e-05
1.89807e-05
1.88241e-05
1.86365e-05
1.84767e-05
1.83354e-05
1.8205e-05
1.80633e-05
1.79272e-05
1.77929e-05
1.76632e-05
1.75321e-05
1.7405e-05
1.72817e-05
1.716e-05
1.70389e-05
1.69267e-05
1.68083e-05
1.66983e-05
1.65886e-05
1.64826e-05
1.6378e-05
1.62793e-05
1.61752e-05
1.60832e-05
1.59924e-05
1.5903e-05
1.58099e-05
1.57309e-05
1.56479e-05
1.55682e-05
1.54858e-05
1.54143e-05
1.53363e-05
1.52665e-05
1.51935e-05
1.51321e-05
1.50642e-05
1.49993e-05
1.49422e-05
1.48835e-05
1.48362e-05
1.47829e-05
1.47238e-05
1.4693e-05
1.46465e-05
1.45757e-05
1.99999e-05
1.98256e-05
1.94514e-05
1.91746e-05
1.89687e-05
1.88182e-05
1.86343e-05
1.84712e-05
1.83294e-05
1.82008e-05
1.80607e-05
1.79261e-05
1.77927e-05
1.76638e-05
1.75334e-05
1.74072e-05
1.72843e-05
1.71626e-05
1.70421e-05
1.69303e-05
1.68117e-05
1.6702e-05
1.65922e-05
1.64864e-05
1.6382e-05
1.62827e-05
1.61787e-05
1.60873e-05
1.59963e-05
1.59064e-05
1.58142e-05
1.57359e-05
1.56523e-05
1.55725e-05
1.5491e-05
1.542e-05
1.53414e-05
1.52725e-05
1.51992e-05
1.51393e-05
1.50692e-05
1.50075e-05
1.49493e-05
1.48918e-05
1.48449e-05
1.47879e-05
1.47326e-05
1.47029e-05
1.46482e-05
1.45767e-05
1.99999e-05
1.98267e-05
1.94565e-05
1.91678e-05
1.89593e-05
1.8814e-05
1.86358e-05
1.84704e-05
1.83282e-05
1.82017e-05
1.80637e-05
1.79312e-05
1.77987e-05
1.76709e-05
1.75416e-05
1.74173e-05
1.72952e-05
1.7174e-05
1.70549e-05
1.6944e-05
1.68256e-05
1.67169e-05
1.66074e-05
1.65023e-05
1.63985e-05
1.6299e-05
1.61955e-05
1.61056e-05
1.60142e-05
1.59243e-05
1.58339e-05
1.57565e-05
1.56726e-05
1.55932e-05
1.55132e-05
1.5443e-05
1.53642e-05
1.52964e-05
1.52232e-05
1.5165e-05
1.5093e-05
1.50349e-05
1.49763e-05
1.49197e-05
1.48727e-05
1.48129e-05
1.47623e-05
1.47315e-05
1.46684e-05
1.46001e-05
1.99999e-05
1.98283e-05
1.94636e-05
1.91645e-05
1.89527e-05
1.8811e-05
1.86406e-05
1.8474e-05
1.83313e-05
1.82067e-05
1.80715e-05
1.79424e-05
1.78117e-05
1.76858e-05
1.75585e-05
1.74366e-05
1.73159e-05
1.71959e-05
1.7079e-05
1.69693e-05
1.68518e-05
1.67449e-05
1.66362e-05
1.65324e-05
1.64296e-05
1.63304e-05
1.62284e-05
1.61401e-05
1.60488e-05
1.59596e-05
1.58715e-05
1.57953e-05
1.57115e-05
1.56332e-05
1.55551e-05
1.54857e-05
1.54073e-05
1.53409e-05
1.52686e-05
1.5211e-05
1.5139e-05
1.50834e-05
1.50254e-05
1.49691e-05
1.49215e-05
1.48604e-05
1.48141e-05
1.47801e-05
1.47085e-05
1.4647e-05
1.99999e-05
1.98304e-05
1.94726e-05
1.9165e-05
1.89489e-05
1.88095e-05
1.86481e-05
1.84822e-05
1.83391e-05
1.82166e-05
1.80847e-05
1.79595e-05
1.78308e-05
1.77073e-05
1.75824e-05
1.74636e-05
1.73446e-05
1.72264e-05
1.71123e-05
1.70041e-05
1.68882e-05
1.67836e-05
1.66761e-05
1.65741e-05
1.64726e-05
1.63744e-05
1.62744e-05
1.61881e-05
1.60971e-05
1.60094e-05
1.59241e-05
1.58492e-05
1.57661e-05
1.56896e-05
1.56135e-05
1.55451e-05
1.54678e-05
1.5403e-05
1.53321e-05
1.52748e-05
1.52041e-05
1.51505e-05
1.50934e-05
1.50373e-05
1.49888e-05
1.49275e-05
1.48853e-05
1.48455e-05
1.47687e-05
1.47148e-05
1.99999e-05
1.9833e-05
1.94831e-05
1.91691e-05
1.89482e-05
1.88095e-05
1.86576e-05
1.84941e-05
1.83508e-05
1.82303e-05
1.81019e-05
1.79812e-05
1.7855e-05
1.77344e-05
1.76124e-05
1.7497e-05
1.73803e-05
1.72646e-05
1.71536e-05
1.70473e-05
1.69335e-05
1.68318e-05
1.67259e-05
1.66261e-05
1.65263e-05
1.64296e-05
1.63323e-05
1.62482e-05
1.61578e-05
1.60723e-05
1.59901e-05
1.59168e-05
1.5835e-05
1.57608e-05
1.56869e-05
1.56197e-05
1.55441e-05
1.54812e-05
1.54119e-05
1.5355e-05
1.52861e-05
1.52349e-05
1.51779e-05
1.51229e-05
1.50728e-05
1.50125e-05
1.49735e-05
1.4926e-05
1.48479e-05
1.47998e-05
1.99999e-05
1.98361e-05
1.94946e-05
1.91771e-05
1.89507e-05
1.88112e-05
1.86685e-05
1.85091e-05
1.8366e-05
1.82473e-05
1.81226e-05
1.80069e-05
1.78834e-05
1.77662e-05
1.76474e-05
1.75359e-05
1.74219e-05
1.73092e-05
1.72016e-05
1.70974e-05
1.69864e-05
1.6888e-05
1.67841e-05
1.6687e-05
1.65892e-05
1.64945e-05
1.64003e-05
1.63185e-05
1.62293e-05
1.61466e-05
1.60677e-05
1.59962e-05
1.59163e-05
1.58449e-05
1.57734e-05
1.57076e-05
1.5634e-05
1.55734e-05
1.55056e-05
1.54499e-05
1.53827e-05
1.53345e-05
1.52764e-05
1.52235e-05
1.51713e-05
1.5113e-05
1.50757e-05
1.502e-05
1.49434e-05
1.48982e-05
1.99999e-05
1.98395e-05
1.95068e-05
1.91881e-05
1.89564e-05
1.88151e-05
1.86806e-05
1.8527e-05
1.83845e-05
1.82673e-05
1.81463e-05
1.80358e-05
1.79154e-05
1.7802e-05
1.76867e-05
1.75792e-05
1.74681e-05
1.73589e-05
1.72549e-05
1.71534e-05
1.70456e-05
1.69507e-05
1.68491e-05
1.67551e-05
1.66595e-05
1.65673e-05
1.64765e-05
1.63972e-05
1.63096e-05
1.62303e-05
1.61548e-05
1.60854e-05
1.60079e-05
1.59397e-05
1.58707e-05
1.58065e-05
1.57354e-05
1.56772e-05
1.5611e-05
1.5557e-05
1.54915e-05
1.54463e-05
1.5387e-05
1.53358e-05
1.5282e-05
1.52265e-05
1.51888e-05
1.51255e-05
1.50524e-05
1.50068e-05
1.99999e-05
1.98431e-05
1.95194e-05
1.92018e-05
1.89652e-05
1.88211e-05
1.86934e-05
1.85468e-05
1.84054e-05
1.82898e-05
1.81723e-05
1.8067e-05
1.795e-05
1.78408e-05
1.7729e-05
1.76258e-05
1.75179e-05
1.74124e-05
1.73123e-05
1.72137e-05
1.71095e-05
1.70183e-05
1.69194e-05
1.68287e-05
1.67355e-05
1.66462e-05
1.65591e-05
1.64822e-05
1.63967e-05
1.63213e-05
1.62493e-05
1.61822e-05
1.61075e-05
1.60427e-05
1.59764e-05
1.5914e-05
1.58459e-05
1.57899e-05
1.57256e-05
1.56736e-05
1.56101e-05
1.55673e-05
1.55071e-05
1.54571e-05
1.54023e-05
1.53497e-05
1.53097e-05
1.52401e-05
1.51722e-05
1.51231e-05
1.99999e-05
1.9847e-05
1.95322e-05
1.92177e-05
1.8977e-05
1.88292e-05
1.87067e-05
1.85678e-05
1.84284e-05
1.83143e-05
1.82e-05
1.80998e-05
1.79865e-05
1.78818e-05
1.77735e-05
1.76748e-05
1.757e-05
1.74688e-05
1.73724e-05
1.7277e-05
1.71768e-05
1.70893e-05
1.69933e-05
1.69062e-05
1.68156e-05
1.67296e-05
1.66461e-05
1.65717e-05
1.64888e-05
1.64176e-05
1.63491e-05
1.62845e-05
1.62129e-05
1.61517e-05
1.6088e-05
1.60279e-05
1.59628e-05
1.59091e-05
1.58469e-05
1.5797e-05
1.57356e-05
1.56949e-05
1.56334e-05
1.55854e-05
1.55292e-05
1.54799e-05
1.54356e-05
1.53619e-05
1.52993e-05
1.52425e-05
1.99999e-05
1.9851e-05
1.95451e-05
1.92355e-05
1.89914e-05
1.88396e-05
1.87205e-05
1.85893e-05
1.8453e-05
1.83403e-05
1.8229e-05
1.81336e-05
1.80243e-05
1.79243e-05
1.78192e-05
1.77253e-05
1.76235e-05
1.75268e-05
1.7434e-05
1.73423e-05
1.72461e-05
1.71623e-05
1.70695e-05
1.69861e-05
1.68982e-05
1.68157e-05
1.67358e-05
1.66639e-05
1.6584e-05
1.65171e-05
1.64522e-05
1.63903e-05
1.63221e-05
1.62644e-05
1.62036e-05
1.6146e-05
1.60839e-05
1.60324e-05
1.59725e-05
1.59246e-05
1.58657e-05
1.58263e-05
1.57639e-05
1.57176e-05
1.56605e-05
1.56133e-05
1.55644e-05
1.54886e-05
1.54297e-05
1.53624e-05
1.99999e-05
1.9855e-05
1.95579e-05
1.92546e-05
1.90083e-05
1.88522e-05
1.87346e-05
1.86109e-05
1.84785e-05
1.83674e-05
1.82586e-05
1.81679e-05
1.80627e-05
1.79675e-05
1.78655e-05
1.77765e-05
1.76772e-05
1.75858e-05
1.74961e-05
1.74085e-05
1.73163e-05
1.7236e-05
1.7147e-05
1.70669e-05
1.69818e-05
1.69033e-05
1.68265e-05
1.67574e-05
1.66808e-05
1.6618e-05
1.65568e-05
1.64979e-05
1.6433e-05
1.63788e-05
1.6321e-05
1.62661e-05
1.6207e-05
1.61578e-05
1.61004e-05
1.60542e-05
1.59978e-05
1.5959e-05
1.58965e-05
1.58516e-05
1.57936e-05
1.57478e-05
1.56942e-05
1.56175e-05
1.55605e-05
1.54828e-05
1.99999e-05
1.98591e-05
1.95706e-05
1.92745e-05
1.90271e-05
1.88666e-05
1.87491e-05
1.86321e-05
1.85044e-05
1.83951e-05
1.82886e-05
1.82021e-05
1.81011e-05
1.80108e-05
1.79118e-05
1.78276e-05
1.77305e-05
1.76449e-05
1.75577e-05
1.74748e-05
1.73863e-05
1.73094e-05
1.72247e-05
1.71474e-05
1.70655e-05
1.6991e-05
1.69169e-05
1.68508e-05
1.67778e-05
1.67187e-05
1.66612e-05
1.66056e-05
1.65439e-05
1.64931e-05
1.64385e-05
1.63865e-05
1.63301e-05
1.62832e-05
1.62285e-05
1.61839e-05
1.61296e-05
1.6091e-05
1.60291e-05
1.59852e-05
1.59263e-05
1.58814e-05
1.58229e-05
1.57465e-05
1.56895e-05
1.56031e-05
1.99999e-05
1.98631e-05
1.95831e-05
1.92948e-05
1.90473e-05
1.88828e-05
1.87641e-05
1.86527e-05
1.85302e-05
1.8423e-05
1.83186e-05
1.8236e-05
1.81389e-05
1.80536e-05
1.79575e-05
1.7878e-05
1.77829e-05
1.77032e-05
1.76183e-05
1.75403e-05
1.74551e-05
1.73816e-05
1.73014e-05
1.72267e-05
1.7148e-05
1.70776e-05
1.70058e-05
1.69429e-05
1.68736e-05
1.68178e-05
1.67642e-05
1.6712e-05
1.66535e-05
1.66059e-05
1.65548e-05
1.65055e-05
1.64516e-05
1.64071e-05
1.6355e-05
1.63122e-05
1.62592e-05
1.62211e-05
1.61596e-05
1.61166e-05
1.60567e-05
1.6012e-05
1.59493e-05
1.58735e-05
1.58148e-05
1.5722e-05
1.99999e-05
1.98671e-05
1.95954e-05
1.93153e-05
1.90687e-05
1.89003e-05
1.87794e-05
1.86724e-05
1.85555e-05
1.84505e-05
1.83483e-05
1.82692e-05
1.81761e-05
1.80953e-05
1.80022e-05
1.79272e-05
1.78341e-05
1.77601e-05
1.76774e-05
1.76043e-05
1.75222e-05
1.74521e-05
1.73765e-05
1.73041e-05
1.72287e-05
1.71621e-05
1.70924e-05
1.70326e-05
1.69671e-05
1.69145e-05
1.68646e-05
1.68158e-05
1.67604e-05
1.67161e-05
1.66685e-05
1.66218e-05
1.65702e-05
1.65279e-05
1.64786e-05
1.64373e-05
1.63855e-05
1.63477e-05
1.62868e-05
1.62444e-05
1.61834e-05
1.61387e-05
1.60716e-05
1.59976e-05
1.59349e-05
1.58381e-05
1.99999e-05
1.9871e-05
1.96074e-05
1.93356e-05
1.90907e-05
1.8919e-05
1.87951e-05
1.86913e-05
1.85799e-05
1.84775e-05
1.83774e-05
1.83014e-05
1.82122e-05
1.81355e-05
1.80457e-05
1.79746e-05
1.78841e-05
1.78147e-05
1.77348e-05
1.76661e-05
1.75871e-05
1.75204e-05
1.74493e-05
1.73791e-05
1.73069e-05
1.72438e-05
1.71761e-05
1.71192e-05
1.70575e-05
1.7008e-05
1.69616e-05
1.69159e-05
1.68639e-05
1.68227e-05
1.67784e-05
1.67341e-05
1.66851e-05
1.66448e-05
1.65979e-05
1.65579e-05
1.65075e-05
1.64699e-05
1.64094e-05
1.63673e-05
1.63051e-05
1.62602e-05
1.61891e-05
1.61169e-05
1.60494e-05
1.59508e-05
1.99999e-05
1.98748e-05
1.96191e-05
1.93554e-05
1.9113e-05
1.89386e-05
1.88112e-05
1.87092e-05
1.8603e-05
1.85036e-05
1.84059e-05
1.83326e-05
1.8247e-05
1.81739e-05
1.80878e-05
1.802e-05
1.79326e-05
1.7867e-05
1.77902e-05
1.77252e-05
1.76494e-05
1.75865e-05
1.7519e-05
1.74514e-05
1.7382e-05
1.73221e-05
1.72565e-05
1.7202e-05
1.71439e-05
1.70978e-05
1.70543e-05
1.70115e-05
1.69632e-05
1.69253e-05
1.68837e-05
1.68417e-05
1.67955e-05
1.6757e-05
1.67121e-05
1.66733e-05
1.66244e-05
1.6587e-05
1.65265e-05
1.64847e-05
1.64212e-05
1.63753e-05
1.63017e-05
1.62305e-05
1.61574e-05
1.60587e-05
1.99999e-05
1.98784e-05
1.96304e-05
1.93745e-05
1.91355e-05
1.89589e-05
1.88276e-05
1.87265e-05
1.86246e-05
1.85286e-05
1.84335e-05
1.83624e-05
1.82802e-05
1.82107e-05
1.81284e-05
1.80632e-05
1.79792e-05
1.79168e-05
1.78431e-05
1.77815e-05
1.77091e-05
1.76502e-05
1.75855e-05
1.75205e-05
1.74538e-05
1.73965e-05
1.73332e-05
1.72809e-05
1.72258e-05
1.71833e-05
1.71423e-05
1.71024e-05
1.70578e-05
1.70233e-05
1.69838e-05
1.6944e-05
1.69006e-05
1.68639e-05
1.68208e-05
1.67829e-05
1.67356e-05
1.66982e-05
1.66378e-05
1.65959e-05
1.65311e-05
1.64841e-05
1.6408e-05
1.63373e-05
1.62589e-05
1.6161e-05
1.99999e-05
1.9882e-05
1.96411e-05
1.93929e-05
1.91579e-05
1.89793e-05
1.88441e-05
1.87431e-05
1.86446e-05
1.85523e-05
1.84602e-05
1.83908e-05
1.83117e-05
1.82458e-05
1.8167e-05
1.81044e-05
1.80237e-05
1.7964e-05
1.78933e-05
1.7835e-05
1.7766e-05
1.77109e-05
1.76484e-05
1.75863e-05
1.75222e-05
1.74668e-05
1.74057e-05
1.73554e-05
1.73031e-05
1.72639e-05
1.72251e-05
1.71881e-05
1.71475e-05
1.71161e-05
1.70783e-05
1.70408e-05
1.7e-05
1.69651e-05
1.69235e-05
1.68864e-05
1.68407e-05
1.68028e-05
1.67428e-05
1.67007e-05
1.66341e-05
1.65868e-05
1.65073e-05
1.64366e-05
1.63538e-05
1.6258e-05
1.99999e-05
1.98854e-05
1.96513e-05
1.94106e-05
1.918e-05
1.89996e-05
1.88609e-05
1.8759e-05
1.86629e-05
1.85744e-05
1.84855e-05
1.84175e-05
1.83416e-05
1.82793e-05
1.82034e-05
1.81433e-05