/*--------------------------------*- C++ -*----------------------------------*\
  =========                 |
  \\      /  F ield         | OpenFOAM: The Open Source CFD Toolbox
   \\    /   O peration     | Website:  https://openfoam.org
    \\  /    A nd           | Version:  7
     \\/     M anipulation  |
\*---------------------------------------------------------------------------*/
FoamFile
{
    version     2.0;
    format      ascii;
    class       volScalarField;
    location    "0.43";
    object      k_0;
}
// * * * * * * * * * * * * * * * * * * * * * * * * * * * * * * * * * * * * * //

dimensions      [0 2 -2 0 0 0 0];

internalField   nonuniform List<scalar> 
70000
(
1.08549e-05
4.21876e-06
2.82436e-06
2.31687e-06
1.99765e-06
1.75742e-06
1.56553e-06
1.40876e-06
1.27805e-06
1.16745e-06
1.07258e-06
9.90675e-07
9.19188e-07
8.56624e-07
8.01283e-07
7.52339e-07
7.08503e-07
6.69394e-07
6.33977e-07
6.02172e-07
5.73106e-07
5.46862e-07
5.22696e-07
5.00759e-07
4.8043e-07
4.61881e-07
4.44595e-07
4.2876e-07
4.13902e-07
4.00301e-07
3.87376e-07
3.75678e-07
3.64275e-07
3.54256e-07
3.44026e-07
3.35531e-07
3.26186e-07
3.19091e-07
3.10421e-07
3.04645e-07
2.96654e-07
2.92535e-07
2.84607e-07
2.82126e-07
2.73833e-07
2.74319e-07
2.66006e-07
2.80201e-07
2.65961e-07
4.04839e-07
1.72794e-05
1.13673e-05
8.52053e-06
7.01055e-06
6.03757e-06
5.3116e-06
4.73241e-06
4.25897e-06
3.86414e-06
3.53013e-06
3.24363e-06
2.99626e-06
2.78034e-06
2.59136e-06
2.42417e-06
2.2763e-06
2.14384e-06
2.02564e-06
1.9186e-06
1.82245e-06
1.73459e-06
1.65522e-06
1.58218e-06
1.51581e-06
1.45436e-06
1.39823e-06
1.34597e-06
1.29805e-06
1.25311e-06
1.21196e-06
1.17284e-06
1.13746e-06
1.10292e-06
1.07265e-06
1.04163e-06
1.01597e-06
9.87626e-07
9.6618e-07
9.3993e-07
9.22461e-07
8.98224e-07
8.853e-07
8.61431e-07
8.5278e-07
8.28895e-07
8.26744e-07
8.04796e-07
8.32555e-07
8.02927e-07
9.16069e-07
1.937e-05
1.61297e-05
1.3291e-05
1.12897e-05
9.8289e-06
8.69683e-06
7.7795e-06
7.02223e-06
6.38607e-06
5.84518e-06
5.37954e-06
4.97633e-06
4.62347e-06
4.31397e-06
4.0396e-06
3.7965e-06
3.57836e-06
3.3834e-06
3.20666e-06
3.04763e-06
2.90229e-06
2.77071e-06
2.64967e-06
2.53942e-06
2.43745e-06
2.34405e-06
2.2572e-06
2.17738e-06
2.10256e-06
2.03398e-06
1.96874e-06
1.90977e-06
1.85206e-06
1.80159e-06
1.74967e-06
1.70689e-06
1.65943e-06
1.62353e-06
1.57979e-06
1.55014e-06
1.50965e-06
1.48687e-06
1.44738e-06
1.43129e-06
1.3928e-06
1.38475e-06
1.35001e-06
1.37582e-06
1.34242e-06
1.38521e-06
1.9861e-05
1.826e-05
1.60857e-05
1.42003e-05
1.26404e-05
1.13493e-05
1.02617e-05
9.33992e-06
8.54885e-06
7.86611e-06
7.27185e-06
6.75275e-06
6.29497e-06
5.89097e-06
5.5307e-06
5.20984e-06
4.92058e-06
4.66095e-06
4.42483e-06
4.21155e-06
4.01629e-06
3.83877e-06
3.6754e-06
3.52589e-06
3.38769e-06
3.26051e-06
3.14234e-06
3.03329e-06
2.9311e-06
2.83719e-06
2.74777e-06
2.66689e-06
2.58751e-06
2.51818e-06
2.44658e-06
2.38764e-06
2.32223e-06
2.2723e-06
2.21236e-06
2.17012e-06
2.11476e-06
2.08086e-06
2.02755e-06
2.00304e-06
1.95118e-06
1.93565e-06
1.88802e-06
1.90099e-06
1.87053e-06
1.87081e-06
1.99706e-05
1.78459e-05
1.60749e-05
1.47666e-05
1.36026e-05
1.25377e-05
1.15695e-05
1.07021e-05
9.92135e-06
9.22617e-06
8.6064e-06
8.05423e-06
7.55889e-06
7.11567e-06
6.71519e-06
6.35445e-06
6.02597e-06
5.72848e-06
5.45615e-06
5.20825e-06
4.98032e-06
4.77148e-06
4.57883e-06
4.40113e-06
4.23673e-06
4.08429e-06
3.94257e-06
3.81098e-06
3.68759e-06
3.57363e-06
3.46501e-06
3.36641e-06
3.26946e-06
3.18458e-06
3.09679e-06
3.02407e-06
2.94403e-06
2.88144e-06
2.80865e-06
2.75446e-06
2.68786e-06
2.64216e-06
2.57925e-06
2.54409e-06
2.48202e-06
2.45854e-06
2.39991e-06
2.39582e-06
2.36874e-06
2.33142e-06
2.00095e-05
1.47039e-05
1.3748e-05
1.3211e-05
1.25912e-05
1.19268e-05
1.12773e-05
1.06569e-05
1.00795e-05
9.5455e-06
9.04491e-06
8.57897e-06
8.14559e-06
7.74631e-06
7.37526e-06
7.0332e-06
6.71572e-06
6.42334e-06
6.15238e-06
5.90213e-06
5.66996e-06
5.45432e-06
5.25416e-06
5.0672e-06
4.89356e-06
4.73065e-06
4.57876e-06
4.43633e-06
4.30255e-06
4.17793e-06
4.05899e-06
3.95019e-06
3.84309e-06
3.74857e-06
3.65114e-06
3.56891e-06
3.48035e-06
3.40792e-06
3.32804e-06
3.26357e-06
3.19145e-06
3.13452e-06
3.06815e-06
3.02024e-06
2.95539e-06
2.92224e-06
2.8598e-06
2.83611e-06
2.80403e-06
2.74426e-06
2.01332e-05
1.54674e-05
9.63489e-06
9.39815e-06
9.49246e-06
9.49146e-06
9.43236e-06
9.29324e-06
9.05226e-06
8.77841e-06
8.48313e-06
8.18597e-06
7.89404e-06
7.61111e-06
7.33447e-06
7.07376e-06
6.82697e-06
6.59265e-06
6.37029e-06
6.15888e-06
5.95908e-06
5.76879e-06
5.58985e-06
5.41919e-06
5.25918e-06
5.10607e-06
4.96252e-06
4.82578e-06
4.69695e-06
4.57511e-06
4.45864e-06
4.35054e-06
4.24418e-06
4.14862e-06
4.05122e-06
3.966e-06
3.8777e-06
3.80032e-06
3.72127e-06
3.65008e-06
3.57977e-06
3.51396e-06
3.45113e-06
3.39173e-06
3.33282e-06
3.28354e-06
3.23102e-06
3.1842e-06
3.15157e-06
3.08058e-06
2.01713e-05
1.86759e-05
8.69198e-06
5.54035e-06
5.63036e-06
5.93382e-06
6.29114e-06
6.57549e-06
6.75372e-06
6.86167e-06
6.87985e-06
6.86013e-06
6.80728e-06
6.71853e-06
6.60736e-06
6.48557e-06
6.34811e-06
6.20571e-06
6.06399e-06
5.92104e-06
5.78164e-06
5.64315e-06
5.51023e-06
5.37936e-06
5.2542e-06
5.13264e-06
5.01826e-06
4.90632e-06
4.80016e-06
4.69701e-06
4.59801e-06
4.50375e-06
4.4112e-06
4.32522e-06
4.23949e-06
4.1599e-06
4.08205e-06
4.00705e-06
3.93754e-06
3.8659e-06
3.80472e-06
3.73584e-06
3.6823e-06
3.617e-06
3.56897e-06
3.50856e-06
3.46787e-06
3.40726e-06
3.3762e-06
3.30385e-06
2.01672e-05
1.97239e-05
1.61672e-05
4.86186e-06
3.04257e-06
3.10548e-06
3.3736e-06
3.80264e-06
4.16695e-06
4.48364e-06
4.72935e-06
4.91775e-06
5.05695e-06
5.15614e-06
5.21362e-06
5.24866e-06
5.25102e-06
5.24188e-06
5.21961e-06
5.17884e-06
5.13176e-06
5.07429e-06
5.01474e-06
4.94799e-06
4.88114e-06
4.80947e-06
4.73841e-06
4.66413e-06
4.59239e-06
4.51943e-06
4.44877e-06
4.37879e-06
4.31028e-06
4.24322e-06
4.17856e-06
4.11338e-06
4.05403e-06
3.98998e-06
3.93658e-06
3.87322e-06
3.82662e-06
3.76412e-06
3.72305e-06
3.662e-06
3.62529e-06
3.56614e-06
3.53378e-06
3.47649e-06
3.44822e-06
3.38109e-06
2.01477e-05
1.99342e-05
1.90655e-05
1.44988e-05
5.2445e-06
2.1551e-06
1.91431e-06
1.99304e-06
2.20533e-06
2.50278e-06
2.77709e-06
3.02866e-06
3.2518e-06
3.4468e-06
3.60909e-06
3.74545e-06
3.85586e-06
3.94202e-06
4.01288e-06
4.06267e-06
4.10111e-06
4.12246e-06
4.13764e-06
4.1376e-06
4.1339e-06
4.12367e-06
4.10848e-06
4.08594e-06
4.06215e-06
4.03294e-06
4.00294e-06
3.96942e-06
3.93569e-06
3.89846e-06
3.86414e-06
3.82346e-06
3.78996e-06
3.7465e-06
3.71464e-06
3.66898e-06
3.63882e-06
3.59139e-06
3.5631e-06
3.51519e-06
3.48871e-06
3.441e-06
3.41635e-06
3.36946e-06
3.34697e-06
3.29301e-06
2.01216e-05
1.99661e-05
1.96423e-05
1.85463e-05
1.52132e-05
8.36288e-06
3.10938e-06
1.63373e-06
1.44226e-06
1.44867e-06
1.52459e-06
1.68382e-06
1.86459e-06
2.03964e-06
2.20837e-06
2.36506e-06
2.51114e-06
2.63931e-06
2.75669e-06
2.85722e-06
2.94793e-06
3.02319e-06
3.09031e-06
3.14435e-06
3.19097e-06
3.22763e-06
3.25922e-06
3.28173e-06
3.30031e-06
3.31191e-06
3.32006e-06
3.3232e-06
3.32252e-06
3.31934e-06
3.31438e-06
3.30356e-06
3.2956e-06
3.27918e-06
3.2689e-06
3.24813e-06
3.23611e-06
3.21215e-06
3.19867e-06
3.17199e-06
3.15752e-06
3.12878e-06
3.11374e-06
3.08354e-06
3.06917e-06
3.03462e-06
2.00982e-05
1.99327e-05
1.97573e-05
1.93524e-05
1.85064e-05
1.65382e-05
1.23339e-05
6.87171e-06
2.99759e-06
1.49616e-06
1.24362e-06
1.14728e-06
1.15066e-06
1.19184e-06
1.28269e-06
1.3872e-06
1.49892e-06
1.60585e-06
1.71481e-06
1.81683e-06
1.91548e-06
2.0055e-06
2.09053e-06
2.16683e-06
2.23813e-06
2.30079e-06
2.35922e-06
2.40966e-06
2.45616e-06
2.4958e-06
2.5319e-06
2.56203e-06
2.58944e-06
2.61079e-06
2.6316e-06
2.64534e-06
2.6602e-06
2.66789e-06
2.67712e-06
2.6802e-06
2.68406e-06
2.68361e-06
2.68255e-06
2.67877e-06
2.67526e-06
2.66702e-06
2.66172e-06
2.64991e-06
2.6442e-06
2.63015e-06
2.00782e-05
1.98876e-05
1.97569e-05
1.94608e-05
1.91458e-05
1.86416e-05
1.75581e-05
1.54317e-05
1.17578e-05
7.47153e-06
4.00729e-06
1.92948e-06
1.21254e-06
1.05792e-06
9.83204e-07
9.41176e-07
9.51387e-07
9.83055e-07
1.04442e-06
1.10598e-06
1.17368e-06
1.2412e-06
1.30999e-06
1.37717e-06
1.44402e-06
1.50643e-06
1.56758e-06
1.6237e-06
1.67797e-06
1.72741e-06
1.77472e-06
1.81738e-06
1.85794e-06
1.89383e-06
1.9282e-06
1.95767e-06
1.98623e-06
2.01017e-06
2.03299e-06
2.05189e-06
2.06981e-06
2.08368e-06
2.0972e-06
2.10645e-06
2.11598e-06
2.12111e-06
2.12713e-06
2.12884e-06
2.13221e-06
2.1342e-06
2.00614e-05
1.98539e-05
1.97343e-05
1.94709e-05
1.92551e-05
1.9047e-05
1.87367e-05
1.81931e-05
1.71039e-05
1.52463e-05
1.25955e-05
9.27832e-06
6.02276e-06
3.52199e-06
1.91079e-06
1.17917e-06
9.67374e-07
8.92018e-07
8.38321e-07
7.95165e-07
7.95727e-07
8.07412e-07
8.34739e-07
8.7133e-07
9.10147e-07
9.49731e-07
9.9224e-07
1.03384e-06
1.07711e-06
1.11907e-06
1.1608e-06
1.20079e-06
1.23924e-06
1.2762e-06
1.31127e-06
1.34438e-06
1.37596e-06
1.40546e-06
1.43301e-06
1.45857e-06
1.48272e-06
1.5038e-06
1.52426e-06
1.54169e-06
1.55779e-06
1.57208e-06
1.58422e-06
1.59538e-06
1.60486e-06
1.61549e-06
2.00475e-05
1.98303e-05
1.97076e-05
1.94487e-05
1.9272e-05
1.91148e-05
1.89657e-05
1.87516e-05
1.84649e-05
1.79183e-05
1.70879e-05
1.57231e-05
1.39173e-05
1.15882e-05
8.9273e-06
6.32868e-06
4.1506e-06
2.56572e-06
1.54664e-06
1.04913e-06
8.68827e-07
8.01994e-07
7.54259e-07
7.1282e-07
6.82251e-07
6.746e-07
6.79105e-07
6.90545e-07
7.10744e-07
7.32061e-07
7.55039e-07
7.78437e-07
8.02543e-07
8.28257e-07
8.53189e-07
8.791e-07
9.04145e-07
9.29426e-07
9.52932e-07
9.76316e-07
9.9842e-07
1.01895e-06
1.0389e-06
1.05753e-06
1.07395e-06
1.0912e-06
1.10427e-06
1.11905e-06
1.13094e-06
1.14361e-06
2.00362e-05
1.98125e-05
1.96851e-05
1.94184e-05
1.92579e-05
1.91084e-05
1.90006e-05
1.88503e-05
1.87138e-05
1.8504e-05
1.82528e-05
1.78408e-05
1.72465e-05
1.6384e-05
1.51999e-05
1.36797e-05
1.18962e-05
9.83654e-06
7.70961e-06
5.71991e-06
4.0302e-06
2.73676e-06
1.79977e-06
1.20822e-06
9.05484e-07
7.75165e-07
7.16897e-07
6.79035e-07
6.44581e-07
6.12625e-07
5.91049e-07
5.77582e-07
5.77777e-07
5.81058e-07
5.88266e-07
5.99536e-07
6.11006e-07
6.23823e-07
6.35727e-07
6.48867e-07
6.6171e-07
6.74841e-07
6.8811e-07
7.01648e-07
7.1352e-07
7.27603e-07
7.37806e-07
7.50482e-07
7.60815e-07
7.71685e-07
2.00272e-05
1.97986e-05
1.96659e-05
1.93964e-05
1.92321e-05
1.90809e-05
1.89825e-05
1.88536e-05
1.87381e-05
1.8599e-05
1.8464e-05
1.82939e-05
1.80885e-05
1.78034e-05
1.74239e-05
1.68861e-05
1.61907e-05
1.52833e-05
1.4165e-05
1.28429e-05
1.13743e-05
9.74341e-06
8.06077e-06
6.43795e-06
4.96174e-06
3.70836e-06
2.71007e-06
1.93616e-06
1.37529e-06
1.0127e-06
8.0895e-07
7.04397e-07
6.50976e-07
6.17333e-07
5.90277e-07
5.64554e-07
5.40205e-07
5.20358e-07
5.05507e-07
4.96856e-07
4.92858e-07
4.93346e-07
4.95183e-07
4.99332e-07
5.02955e-07
5.09589e-07
5.1322e-07
5.19451e-07
5.23994e-07
5.30088e-07
2.002e-05
1.979e-05
1.96459e-05
1.938e-05
1.9208e-05
1.90517e-05
1.89445e-05
1.88273e-05
1.87163e-05
1.85928e-05
1.84753e-05
1.835e-05
1.82265e-05
1.8084e-05
1.79289e-05
1.77317e-05
1.74914e-05
1.71771e-05
1.67807e-05
1.62702e-05
1.56477e-05
1.48913e-05
1.39982e-05
1.29768e-05
1.18516e-05
1.06447e-05
9.35509e-06
8.04565e-06
6.76638e-06
5.5697e-06
4.48793e-06
3.55228e-06
2.77771e-06
2.14361e-06
1.63707e-06
1.25248e-06
9.79036e-07
8.0025e-07
6.9017e-07
6.25106e-07
5.85346e-07
5.58691e-07
5.37587e-07
5.1942e-07
5.01469e-07
4.86732e-07
4.70076e-07
4.59914e-07
4.48908e-07
4.49274e-07
2.00145e-05
1.979e-05
1.96195e-05
1.93666e-05
1.91873e-05
1.90249e-05
1.89083e-05
1.87914e-05
1.8676e-05
1.8558e-05
1.84445e-05
1.83291e-05
1.82166e-05
1.80995e-05
1.79852e-05
1.78649e-05
1.77406e-05
1.75996e-05
1.74421e-05
1.72524e-05
1.70253e-05
1.67504e-05
1.64161e-05
1.60148e-05
1.55358e-05
1.49829e-05
1.43439e-05
1.36243e-05
1.28266e-05
1.19645e-05
1.10524e-05
1.01035e-05
9.11663e-06
8.12262e-06
7.14525e-06
6.21136e-06
5.33445e-06
4.53778e-06
3.81823e-06
3.19655e-06
2.6638e-06
2.21125e-06
1.82988e-06
1.51431e-06
1.25739e-06
1.05738e-06
9.02144e-07
7.97348e-07
7.34183e-07
7.40662e-07
2.00102e-05
1.97941e-05
1.95926e-05
1.93529e-05
1.91683e-05
1.89993e-05
1.88747e-05
1.87559e-05
1.86356e-05
1.85163e-05
1.83985e-05
1.82842e-05
1.81719e-05
1.80619e-05
1.79531e-05
1.78456e-05
1.77384e-05
1.76293e-05
1.75235e-05
1.74118e-05
1.7296e-05
1.717e-05
1.70306e-05
1.68728e-05
1.66887e-05
1.64805e-05
1.62331e-05
1.59535e-05
1.56257e-05
1.5257e-05
1.48378e-05
1.43722e-05
1.38625e-05
1.33037e-05
1.2701e-05
1.20659e-05
1.13975e-05
1.07128e-05
1.00133e-05
9.30985e-06
8.59802e-06
7.90123e-06
7.22331e-06
6.58049e-06
5.96288e-06
5.40994e-06
4.86454e-06
4.41048e-06
3.96125e-06
3.68836e-06
2.0007e-05
1.98016e-05
1.95679e-05
1.93396e-05
1.91506e-05
1.89752e-05
1.88429e-05
1.87216e-05
1.85966e-05
1.84755e-05
1.83523e-05
1.82366e-05
1.81203e-05
1.80084e-05
1.78976e-05
1.77899e-05
1.76868e-05
1.75822e-05
1.74847e-05
1.73842e-05
1.72868e-05
1.71873e-05
1.7091e-05
1.69924e-05
1.6889e-05
1.6787e-05
1.66696e-05
1.65528e-05
1.6415e-05
1.62705e-05
1.61033e-05
1.59171e-05
1.57158e-05
1.54879e-05
1.52302e-05
1.49587e-05
1.46468e-05
1.4328e-05
1.39651e-05
1.35982e-05
1.31982e-05
1.27848e-05
1.23575e-05
1.19175e-05
1.14631e-05
1.10316e-05
1.05614e-05
1.01333e-05
9.66438e-06
9.28492e-06
2.00047e-05
1.98101e-05
1.9545e-05
1.93263e-05
1.91336e-05
1.89524e-05
1.88125e-05
1.86884e-05
1.85594e-05
1.84362e-05
1.8308e-05
1.81898e-05
1.80697e-05
1.79549e-05
1.7841e-05
1.77304e-05
1.76242e-05
1.75159e-05
1.74178e-05
1.73155e-05
1.72205e-05
1.71253e-05
1.70356e-05
1.69452e-05
1.68548e-05
1.67717e-05
1.66782e-05
1.65977e-05
1.65068e-05
1.64248e-05
1.63323e-05
1.62384e-05
1.61471e-05
1.60455e-05
1.59301e-05
1.58216e-05
1.56855e-05
1.5563e-05
1.54041e-05
1.52564e-05
1.50863e-05
1.49045e-05
1.47221e-05
1.45172e-05
1.43045e-05
1.41025e-05
1.38668e-05
1.36342e-05
1.33885e-05
1.31564e-05
2.0003e-05
1.98189e-05
1.95238e-05
1.93124e-05
1.91168e-05
1.89311e-05
1.87835e-05
1.86561e-05
1.8524e-05
1.83986e-05
1.82661e-05
1.81449e-05
1.80213e-05
1.79037e-05
1.77862e-05
1.76727e-05
1.75635e-05
1.74519e-05
1.7351e-05
1.72459e-05
1.7147e-05
1.70482e-05
1.69563e-05
1.68631e-05
1.67719e-05
1.66897e-05
1.66009e-05
1.65248e-05
1.64416e-05
1.63693e-05
1.62887e-05
1.62128e-05
1.61429e-05
1.60691e-05
1.59893e-05
1.59234e-05
1.5841e-05
1.57786e-05
1.56905e-05
1.56203e-05
1.55413e-05
1.54524e-05
1.5376e-05
1.52821e-05
1.5187e-05
1.51082e-05
1.50042e-05
1.48963e-05
1.47965e-05
1.46949e-05
2.00018e-05
1.98272e-05
1.95046e-05
1.92975e-05
1.90996e-05
1.89113e-05
1.8756e-05
1.86249e-05
1.84905e-05
1.83628e-05
1.82268e-05
1.81026e-05
1.79759e-05
1.78556e-05
1.77347e-05
1.76184e-05
1.7506e-05
1.7392e-05
1.72874e-05
1.71805e-05
1.70775e-05
1.69765e-05
1.68813e-05
1.67846e-05
1.66908e-05
1.66043e-05
1.65124e-05
1.64314e-05
1.63476e-05
1.62724e-05
1.61898e-05
1.61157e-05
1.60485e-05
1.59792e-05
1.5905e-05
1.58441e-05
1.57723e-05
1.57188e-05
1.56455e-05
1.55899e-05
1.5532e-05
1.54641e-05
1.54133e-05
1.53529e-05
1.52923e-05
1.52515e-05
1.51929e-05
1.51312e-05
1.50843e-05
1.50411e-05
2.00009e-05
1.98304e-05
1.94885e-05
1.92822e-05
1.90823e-05
1.88935e-05
1.87304e-05
1.85954e-05
1.84592e-05
1.83295e-05
1.81907e-05
1.80635e-05
1.7934e-05
1.78114e-05
1.76873e-05
1.75685e-05
1.7453e-05
1.73372e-05
1.72286e-05
1.71203e-05
1.70134e-05
1.69108e-05
1.68122e-05
1.67131e-05
1.66166e-05
1.65271e-05
1.64329e-05
1.63477e-05
1.62626e-05
1.61833e-05
1.60972e-05
1.60211e-05
1.5949e-05
1.58768e-05
1.57998e-05
1.57351e-05
1.56635e-05
1.56064e-05
1.55343e-05
1.54788e-05
1.54239e-05
1.53593e-05
1.53111e-05
1.52575e-05
1.52031e-05
1.51678e-05
1.51182e-05
1.50674e-05
1.50326e-05
1.50021e-05
2.00003e-05
1.98288e-05
1.94755e-05
1.92663e-05
1.90648e-05
1.88777e-05
1.87071e-05
1.85681e-05
1.84304e-05
1.8299e-05
1.81582e-05
1.8028e-05
1.78964e-05
1.77716e-05
1.7645e-05
1.75238e-05
1.74055e-05
1.72883e-05
1.71759e-05
1.70665e-05
1.6956e-05
1.68519e-05
1.67502e-05
1.66491e-05
1.65503e-05
1.64585e-05
1.63622e-05
1.6274e-05
1.61878e-05
1.61055e-05
1.60168e-05
1.59394e-05
1.58638e-05
1.57895e-05
1.57097e-05
1.56418e-05
1.55682e-05
1.55071e-05
1.54335e-05
1.53748e-05
1.53172e-05
1.52492e-05
1.51985e-05
1.51435e-05
1.50889e-05
1.50522e-05
1.50006e-05
1.49515e-05
1.492e-05
1.48888e-05
2e-05
1.98271e-05
1.94644e-05
1.92488e-05
1.90465e-05
1.88634e-05
1.86859e-05
1.85429e-05
1.84041e-05
1.82716e-05
1.81295e-05
1.79968e-05
1.78636e-05
1.7737e-05
1.76084e-05
1.74849e-05
1.73645e-05
1.72461e-05
1.71303e-05
1.70198e-05
1.69066e-05
1.68009e-05
1.66966e-05
1.65939e-05
1.64929e-05
1.63993e-05
1.63008e-05
1.62107e-05
1.61234e-05
1.60388e-05
1.59482e-05
1.58699e-05
1.57919e-05
1.57161e-05
1.56345e-05
1.55648e-05
1.54896e-05
1.54255e-05
1.53511e-05
1.52904e-05
1.52307e-05
1.51605e-05
1.51084e-05
1.50507e-05
1.49964e-05
1.49576e-05
1.49013e-05
1.48537e-05
1.48237e-05
1.47855e-05
1.99999e-05
1.98259e-05
1.94563e-05
1.9231e-05
1.90282e-05
1.88508e-05
1.86677e-05
1.85205e-05
1.8381e-05
1.82481e-05
1.81052e-05
1.79704e-05
1.78362e-05
1.77081e-05
1.75781e-05
1.74527e-05
1.73308e-05
1.72113e-05
1.70929e-05
1.69815e-05
1.68663e-05
1.67589e-05
1.66525e-05
1.65484e-05
1.64458e-05
1.63506e-05
1.62501e-05
1.61587e-05
1.60703e-05
1.59841e-05
1.5892e-05
1.5813e-05
1.57333e-05
1.56561e-05
1.55735e-05
1.55027e-05
1.54266e-05
1.53601e-05
1.52858e-05
1.5224e-05
1.51624e-05
1.50916e-05
1.50389e-05
1.4979e-05
1.49265e-05
1.48852e-05
1.4825e-05
1.47811e-05
1.47509e-05
1.47019e-05
1.99999e-05
1.98251e-05
1.94511e-05
1.92138e-05
1.90108e-05
1.88401e-05
1.86532e-05
1.85017e-05
1.83615e-05
1.82289e-05
1.80857e-05
1.79496e-05
1.7815e-05
1.76858e-05
1.75549e-05
1.74282e-05
1.73054e-05
1.71848e-05
1.70647e-05
1.69526e-05
1.68359e-05
1.67272e-05
1.66191e-05
1.6514e-05
1.64102e-05
1.63136e-05
1.62115e-05
1.61193e-05
1.603e-05
1.59423e-05
1.58493e-05
1.577e-05
1.5689e-05
1.56106e-05
1.55276e-05
1.54561e-05
1.53794e-05
1.53109e-05
1.52373e-05
1.51749e-05
1.51113e-05
1.50414e-05
1.49876e-05
1.4927e-05
1.48769e-05
1.48319e-05
1.47699e-05
1.47311e-05
1.46979e-05
1.46388e-05
1.99999e-05
1.98249e-05
1.94487e-05
1.91982e-05
1.89948e-05
1.88313e-05
1.86427e-05
1.8487e-05
1.83463e-05
1.82145e-05
1.80717e-05
1.79351e-05
1.78005e-05
1.76707e-05
1.75395e-05
1.74121e-05
1.72888e-05
1.71675e-05
1.70464e-05
1.6934e-05
1.68163e-05
1.67066e-05
1.65975e-05
1.64917e-05
1.63873e-05
1.62895e-05
1.61861e-05
1.60938e-05
1.60037e-05
1.59149e-05
1.58216e-05
1.57424e-05
1.56601e-05
1.55808e-05
1.5498e-05
1.54262e-05
1.53489e-05
1.52792e-05
1.52062e-05
1.51439e-05
1.50781e-05
1.50104e-05
1.49549e-05
1.4895e-05
1.48467e-05
1.47971e-05
1.47358e-05
1.47023e-05
1.46627e-05
1.45958e-05
1.99999e-05
1.9825e-05
1.94489e-05
1.9185e-05
1.89807e-05
1.88241e-05
1.86365e-05
1.84768e-05
1.83356e-05
1.82052e-05
1.80634e-05
1.79273e-05
1.77929e-05
1.76632e-05
1.75321e-05
1.74051e-05
1.72818e-05
1.716e-05
1.70389e-05
1.69267e-05
1.68082e-05
1.66983e-05
1.65886e-05
1.64826e-05
1.6378e-05
1.62792e-05
1.61752e-05
1.60834e-05
1.59926e-05
1.59029e-05
1.581e-05
1.57312e-05
1.5648e-05
1.55682e-05
1.54859e-05
1.54143e-05
1.53363e-05
1.52665e-05
1.51936e-05
1.51322e-05
1.5064e-05
1.49993e-05
1.49421e-05
1.48835e-05
1.48361e-05
1.47821e-05
1.47237e-05
1.46934e-05
1.46456e-05
1.45748e-05
1.99999e-05
1.98256e-05
1.94514e-05
1.91746e-05
1.89687e-05
1.88183e-05
1.86344e-05
1.84713e-05
1.83296e-05
1.8201e-05
1.80608e-05
1.79262e-05
1.77928e-05
1.76638e-05
1.75334e-05
1.74072e-05
1.72843e-05
1.71626e-05
1.70422e-05
1.69303e-05
1.68117e-05
1.6702e-05
1.65922e-05
1.64864e-05
1.6382e-05
1.62827e-05
1.61787e-05
1.60876e-05
1.59964e-05
1.59064e-05
1.58144e-05
1.57361e-05
1.56524e-05
1.55726e-05
1.54911e-05
1.54201e-05
1.53414e-05
1.52725e-05
1.51993e-05
1.51394e-05
1.5069e-05
1.50075e-05
1.49492e-05
1.48919e-05
1.48447e-05
1.47872e-05
1.47327e-05
1.4703e-05
1.4647e-05
1.45761e-05
1.99999e-05
1.98267e-05
1.94565e-05
1.91678e-05
1.89593e-05
1.88141e-05
1.86358e-05
1.84705e-05
1.83284e-05
1.82019e-05
1.80638e-05
1.79313e-05
1.77988e-05
1.76709e-05
1.75416e-05
1.74173e-05
1.72952e-05
1.71739e-05
1.7055e-05
1.6944e-05
1.68256e-05
1.67169e-05
1.66074e-05
1.65024e-05
1.63986e-05
1.62989e-05
1.61956e-05
1.61058e-05
1.60144e-05
1.59243e-05
1.58342e-05
1.57568e-05
1.56727e-05
1.55933e-05
1.55134e-05
1.54431e-05
1.53642e-05
1.52964e-05
1.52234e-05
1.5165e-05
1.50928e-05
1.50349e-05
1.49761e-05
1.49198e-05
1.48723e-05
1.48123e-05
1.47625e-05
1.47314e-05
1.46671e-05
1.45999e-05
1.99999e-05
1.98283e-05
1.94637e-05
1.91645e-05
1.89527e-05
1.88111e-05
1.86407e-05
1.84741e-05
1.83315e-05
1.82069e-05
1.80716e-05
1.79425e-05
1.78118e-05
1.76858e-05
1.75585e-05
1.74367e-05
1.73159e-05
1.71959e-05
1.70791e-05
1.69693e-05
1.68518e-05
1.67449e-05
1.66362e-05
1.65324e-05
1.64296e-05
1.63303e-05
1.62285e-05
1.61404e-05
1.60489e-05
1.59596e-05
1.58718e-05
1.57955e-05
1.57116e-05
1.56333e-05
1.55553e-05
1.54857e-05
1.54073e-05
1.5341e-05
1.52687e-05
1.5211e-05
1.51388e-05
1.50835e-05
1.50253e-05
1.4969e-05
1.49211e-05
1.48598e-05
1.48144e-05
1.47798e-05
1.47072e-05
1.46472e-05
1.99999e-05
1.98304e-05
1.94726e-05
1.9165e-05
1.89489e-05
1.88096e-05
1.86482e-05
1.84823e-05
1.83393e-05
1.82168e-05
1.80848e-05
1.79596e-05
1.78309e-05
1.77073e-05
1.75824e-05
1.74637e-05
1.73446e-05
1.72264e-05
1.71124e-05
1.70041e-05
1.68881e-05
1.67836e-05
1.66761e-05
1.65741e-05
1.64726e-05
1.63743e-05
1.62746e-05
1.61883e-05
1.60972e-05
1.60094e-05
1.59244e-05
1.58495e-05
1.57662e-05
1.56897e-05
1.56137e-05
1.55451e-05
1.54678e-05
1.54031e-05
1.53322e-05
1.52747e-05
1.52039e-05
1.51506e-05
1.50932e-05
1.50372e-05
1.49883e-05
1.49271e-05
1.48856e-05
1.48447e-05
1.47678e-05
1.47152e-05
1.99999e-05
1.9833e-05
1.94832e-05
1.9169e-05
1.89482e-05
1.88096e-05
1.86577e-05
1.84942e-05
1.8351e-05
1.82305e-05
1.8102e-05
1.79814e-05
1.78551e-05
1.77344e-05
1.76124e-05
1.74971e-05
1.73803e-05
1.72646e-05
1.71537e-05
1.70472e-05
1.69334e-05
1.68318e-05
1.67259e-05
1.66261e-05
1.65263e-05
1.64296e-05
1.63325e-05
1.62484e-05
1.61579e-05
1.60724e-05
1.59904e-05
1.59171e-05
1.58351e-05
1.5761e-05
1.56872e-05
1.56197e-05
1.55441e-05
1.54813e-05
1.54119e-05
1.53549e-05
1.5286e-05
1.5235e-05
1.51777e-05
1.51227e-05
1.50723e-05
1.50122e-05
1.49737e-05
1.4925e-05
1.48473e-05
1.48001e-05
1.99999e-05
1.98361e-05
1.94946e-05
1.9177e-05
1.89507e-05
1.88113e-05
1.86686e-05
1.85093e-05
1.83663e-05
1.82475e-05
1.81228e-05
1.80071e-05
1.78835e-05
1.77663e-05
1.76475e-05
1.7536e-05
1.74218e-05
1.73092e-05
1.72017e-05
1.70974e-05
1.69864e-05
1.68881e-05
1.67841e-05
1.6687e-05
1.65892e-05
1.64945e-05
1.64005e-05
1.63187e-05
1.62293e-05
1.61468e-05
1.60681e-05
1.59965e-05
1.59164e-05
1.58451e-05
1.57737e-05
1.57076e-05
1.56341e-05
1.55735e-05
1.55057e-05
1.54498e-05
1.53827e-05
1.53346e-05
1.52762e-05
1.52232e-05
1.51707e-05
1.51129e-05
1.50758e-05
1.50189e-05
1.49431e-05
1.48983e-05
1.99999e-05
1.98395e-05
1.95068e-05
1.9188e-05
1.89564e-05
1.88152e-05
1.86807e-05
1.85272e-05
1.83847e-05
1.82675e-05
1.81465e-05
1.8036e-05
1.79154e-05
1.78021e-05
1.76868e-05
1.75793e-05
1.74681e-05
1.73589e-05
1.7255e-05
1.71533e-05
1.70456e-05
1.69508e-05
1.68491e-05
1.67551e-05
1.66595e-05
1.65673e-05
1.64767e-05
1.63973e-05
1.63096e-05
1.62306e-05
1.61552e-05
1.60857e-05
1.60081e-05
1.59399e-05
1.58709e-05
1.58065e-05
1.57355e-05
1.56773e-05
1.56111e-05
1.55569e-05
1.54915e-05
1.54463e-05
1.53867e-05
1.53355e-05
1.52815e-05
1.52265e-05
1.51886e-05
1.51244e-05
1.50524e-05
1.50066e-05
1.99999e-05
1.98431e-05
1.95194e-05
1.92017e-05
1.89652e-05
1.88211e-05
1.86935e-05
1.8547e-05
1.84057e-05
1.829e-05
1.81725e-05
1.80672e-05
1.795e-05
1.78409e-05
1.77291e-05
1.76259e-05
1.75178e-05
1.74125e-05
1.73124e-05
1.72136e-05
1.71095e-05
1.70184e-05
1.69193e-05
1.68287e-05
1.67355e-05
1.66462e-05
1.65593e-05
1.64823e-05
1.63968e-05
1.63217e-05
1.62498e-05
1.61824e-05
1.61077e-05
1.6043e-05
1.59766e-05
1.5914e-05
1.5846e-05
1.57899e-05
1.57256e-05
1.56735e-05
1.56101e-05
1.55673e-05
1.55067e-05
1.54568e-05
1.54019e-05
1.53498e-05
1.53094e-05
1.52391e-05
1.51724e-05
1.51227e-05
1.99999e-05
1.9847e-05
1.95322e-05
1.92177e-05
1.89769e-05
1.88293e-05
1.87068e-05
1.8568e-05
1.84287e-05
1.83145e-05
1.82003e-05
1.81001e-05
1.79866e-05
1.78819e-05
1.77736e-05
1.76749e-05
1.757e-05
1.74688e-05
1.73725e-05
1.7277e-05
1.71768e-05
1.70893e-05
1.69932e-05
1.69062e-05
1.68155e-05
1.67296e-05
1.66463e-05
1.65718e-05
1.64889e-05
1.6418e-05
1.63496e-05
1.62847e-05
1.62132e-05
1.6152e-05
1.60883e-05
1.6028e-05
1.59629e-05
1.59091e-05
1.58469e-05
1.57969e-05
1.57357e-05
1.56948e-05
1.5633e-05
1.5585e-05
1.55288e-05
1.548e-05
1.54351e-05
1.53612e-05
1.52996e-05
1.52414e-05
1.99999e-05
1.98509e-05
1.95451e-05
1.92354e-05
1.89914e-05
1.88397e-05
1.87205e-05
1.85895e-05
1.84533e-05
1.83405e-05
1.82293e-05
1.81339e-05
1.80244e-05
1.79243e-05
1.78193e-05
1.77254e-05
1.76234e-05
1.75269e-05
1.74341e-05
1.73423e-05
1.72462e-05
1.71623e-05
1.70695e-05
1.69861e-05
1.68981e-05
1.68157e-05
1.6736e-05
1.6664e-05
1.65841e-05
1.65176e-05
1.64527e-05
1.63905e-05
1.63223e-05
1.62648e-05
1.62038e-05
1.61461e-05
1.60841e-05
1.60325e-05
1.59726e-05
1.59245e-05
1.58658e-05
1.58262e-05
1.57635e-05
1.57173e-05
1.56602e-05
1.56135e-05
1.55638e-05
1.54881e-05
1.543e-05
1.53612e-05
1.99999e-05
1.9855e-05
1.95579e-05
1.92545e-05
1.90082e-05
1.88522e-05
1.87347e-05
1.86111e-05
1.84788e-05
1.83677e-05
1.82589e-05
1.81682e-05
1.80628e-05
1.79676e-05
1.78657e-05
1.77765e-05
1.76772e-05
1.75859e-05
1.74962e-05
1.74085e-05
1.73164e-05
1.72361e-05
1.7147e-05
1.70668e-05
1.69818e-05
1.69033e-05
1.68267e-05
1.67575e-05
1.6681e-05
1.66185e-05
1.65572e-05
1.64981e-05
1.64333e-05
1.63792e-05
1.63212e-05
1.62662e-05
1.62071e-05
1.61579e-05
1.61005e-05
1.60542e-05
1.59979e-05
1.59588e-05
1.5896e-05
1.58513e-05
1.57934e-05
1.57479e-05
1.56936e-05
1.56173e-05
1.55607e-05
1.54818e-05
1.99999e-05
1.98591e-05
1.95706e-05
1.92744e-05
1.9027e-05
1.88666e-05
1.87492e-05
1.86323e-05
1.85047e-05
1.83954e-05
1.8289e-05
1.82024e-05
1.81012e-05
1.80109e-05
1.79119e-05
1.78277e-05
1.77305e-05
1.7645e-05
1.75578e-05
1.74748e-05
1.73863e-05
1.73095e-05
1.72246e-05
1.71473e-05
1.70654e-05
1.69911e-05
1.69171e-05
1.68509e-05
1.6778e-05
1.67192e-05
1.66617e-05
1.66059e-05
1.65443e-05
1.64935e-05
1.64388e-05
1.63867e-05
1.63302e-05
1.62833e-05
1.62286e-05
1.61839e-05
1.61297e-05
1.60908e-05
1.60287e-05
1.59849e-05
1.59261e-05
1.58815e-05
1.58223e-05
1.57464e-05
1.56896e-05
1.56023e-05
1.99999e-05
1.98631e-05
1.95831e-05
1.92947e-05
1.90472e-05
1.88827e-05
1.87641e-05
1.86528e-05
1.85306e-05
1.84232e-05
1.8319e-05
1.82363e-05
1.81391e-05
1.80537e-05
1.79576e-05
1.78781e-05
1.77828e-05
1.77033e-05
1.76184e-05
1.75403e-05
1.74552e-05
1.73817e-05
1.73014e-05
1.72266e-05
1.7148e-05
1.70776e-05
1.7006e-05
1.6943e-05
1.68738e-05
1.68184e-05
1.67647e-05
1.67123e-05
1.66538e-05
1.66064e-05
1.65551e-05
1.65057e-05
1.64518e-05
1.64072e-05
1.63551e-05
1.63122e-05
1.62593e-05
1.62209e-05
1.61593e-05
1.61164e-05
1.60566e-05
1.60121e-05
1.59487e-05
1.58736e-05
1.58148e-05
1.57216e-05
1.99999e-05
1.98671e-05
1.95954e-05
1.93152e-05
1.90685e-05
1.89003e-05
1.87794e-05
1.86726e-05
1.85559e-05
1.84508e-05
1.83487e-05
1.82695e-05
1.81763e-05
1.80954e-05
1.80023e-05
1.79273e-05
1.78341e-05
1.77602e-05
1.76775e-05
1.76044e-05
1.75222e-05
1.74522e-05
1.73765e-05
1.7304e-05
1.72287e-05
1.71621e-05
1.70925e-05
1.70328e-05
1.69674e-05
1.6915e-05
1.68652e-05
1.68161e-05
1.67608e-05
1.67166e-05
1.66688e-05
1.66219e-05
1.65704e-05
1.65281e-05
1.64787e-05
1.64373e-05
1.63856e-05
1.63475e-05
1.62865e-05
1.62442e-05
1.61834e-05
1.61388e-05
1.6071e-05
1.59978e-05
1.59349e-05
1.58382e-05
1.99999e-05
1.9871e-05
1.96074e-05
1.93354e-05
1.90905e-05
1.89189e-05
1.87951e-05
1.86914e-05
1.85802e-05
1.84778e-05
1.83778e-05
1.83018e-05
1.82124e-05
1.81356e-05
1.80459e-05
1.79747e-05
1.78841e-05
1.78149e-05
1.77349e-05
1.76662e-05
1.75871e-05
1.75205e-05
1.74492e-05
1.7379e-05
1.73068e-05
1.72438e-05
1.71762e-05
1.71193e-05
1.70578e-05
1.70086e-05
1.69622e-05
1.69162e-05
1.68643e-05
1.68233e-05
1.67788e-05
1.67343e-05
1.66853e-05
1.6645e-05
1.6598e-05
1.6558e-05
1.65076e-05
1.64697e-05
1.64091e-05
1.63672e-05
1.63051e-05
1.62603e-05
1.61887e-05
1.61173e-05
1.60494e-05
1.59513e-05
1.99999e-05
1.98747e-05
1.96191e-05
1.93552e-05
1.91128e-05
1.89385e-05
1.88111e-05
1.87094e-05
1.86033e-05
1.8504e-05
1.84063e-05
1.83329e-05
1.82472e-05
1.81741e-05
1.8088e-05
1.802e-05
1.79326e-05
1.78671e-05
1.77903e-05
1.77252e-05
1.76495e-05
1.75867e-05
1.7519e-05
1.74512e-05
1.73819e-05
1.73221e-05
1.72565e-05
1.72022e-05
1.71441e-05
1.70984e-05
1.7055e-05
1.70119e-05
1.69637e-05
1.69259e-05
1.68841e-05
1.68419e-05
1.67957e-05
1.67572e-05
1.67123e-05
1.66734e-05
1.66245e-05
1.65869e-05
1.65264e-05
1.64846e-05
1.64212e-05
1.63754e-05
1.63014e-05
1.62309e-05
1.61576e-05
1.60595e-05
1.99999e-05
1.98784e-05
1.96304e-05
1.93743e-05
1.91352e-05
1.89587e-05
1.88275e-05
1.87266e-05
1.8625e-05
1.8529e-05
1.8434e-05
1.83628e-05
1.82805e-05
1.82109e-05
1.81286e-05
1.80633e-05
1.79792e-05
1.79169e-05
1.78432e-05
1.77815e-05
1.77091e-05
1.76504e-05
1.75854e-05
1.75203e-05
1.74537e-05
1.73965e-05
1.73332e-05
1.7281e-05
1.72261e-05
1.71839e-05
1.7143e-05
1.71028e-05
1.70584e-05
1.7024e-05
1.69842e-05
1.69443e-05
1.69009e-05
1.68642e-05
1.68211e-05
1.6783e-05
1.67358e-05
1.6698e-05
1.66376e-05
1.65959e-05
1.65312e-05
1.64843e-05
1.64079e-05
1.63378e-05
1.62591e-05
1.61622e-05
1.99999e-05
1.9882e-05
1.96411e-05
1.93927e-05
1.91576e-05
1.89791e-05
1.88441e-05
1.87432e-05
1.8645e-05
1.85527e-05
1.84607e-05
1.83912e-05
1.8312e-05
1.8246e-05
1.81672e-05
1.81044e-05
1.80237e-05
1.79641e-05
1.78934e-05
1.78351e-05
1.77661e-05
1.77111e-05
1.76483e-05
1.75861e-05
1.75221e-05
1.74667e-05
1.74057e-05
1.73555e-05
1.73035e-05
1.72646e-05
1.72258e-05
1.71886e-05
1.71481e-05
1.71167e-05
1.70787e-05
1.70411e-05
1.70004e-05
1.69654e-05
1.69238e-05
1.68866e-05
1.68409e-05
1.68027e-05
1.67427e-05
1.67007e-05
1.66343e-05
1.6587e-05
1.65073e-05
1.64372e-05
1.63543e-05
1.62594e-05
1.99999e-05
1.98854e-05
1.96512e-05
1.94104e-05
1.91797e-05
1.89994e-05
1.88607e-05
1.87591e-05
1.86633e-05
1.85749e-05
1.84861e-05
1.8418e-05
1.8342e-05
1.82795e-05
1.82036e-05
1.81434e-05