/*--------------------------------*- C++ -*----------------------------------*\
  =========                 |
  \\      /  F ield         | OpenFOAM: The Open Source CFD Toolbox
   \\    /   O peration     | Website:  https://openfoam.org
    \\  /    A nd           | Version:  7
     \\/     M anipulation  |
\*---------------------------------------------------------------------------*/
FoamFile
{
    version     2.0;
    format      ascii;
    class       volScalarField;
    location    "0.43";
    object      nut;
}
// * * * * * * * * * * * * * * * * * * * * * * * * * * * * * * * * * * * * * //

dimensions      [0 2 -1 0 0 0 0];

internalField   nonuniform List<scalar> 
70000
(
0
0
0
0
0
0
0
0
0
0
0
0
0
0
0
0
0
0
0
0
0
0
0
0
0
0
0
0
0
0
0
0
0
0
0
0
0
0
0
0
1.18289e-15
3.03365e-14
1.28422e-14
9.5419e-14
0
2.55643e-13
0
1.08931e-12
0
0
0
0
0
0
0
0
0
0
0
0
0
0
0
0
0
0
0
0
0
0
0
0
0
0
0
0
0
0
0
0
0
0
0
0
0
0
0
0
0
1.838e-14
3.31391e-14
8.7588e-14
5.44587e-14
2.15121e-13
0
5.47912e-13
0
2.32334e-12
0
0
0
0
0
0
0
0
0
0
0
0
0
0
0
0
0
0
0
0
0
0
0
0
0
0
0
0
0
0
0
0
0
0
0
0
0
0
0
0
8.77365e-15
3.92287e-14
5.51749e-14
1.2611e-13
7.65284e-14
3.03888e-13
0
8.12906e-13
0
3.40127e-12
0
0
0
0
0
0
0
0
0
0
0
0
0
0
0
0
0
0
0
0
0
0
0
0
0
0
0
0
0
0
0
0
0
0
0
0
0
0
0
0
0
0
0
4.77752e-14
0
2.69599e-13
0
9.41414e-13
0
3.83098e-12
1.71285e-13
0
0
0
0
0
0
0
0
0
0
0
0
0
0
0
0
0
0
0
0
0
0
0
0
0
0
0
0
0
0
0
0
0
0
0
0
0
0
0
0
0
0
0
0
1.4252e-13
0
9.49006e-13
0
3.63315e-12
2.34519e-13
0
9.4472e-10
0
0
0
0
0
0
0
0
0
0
0
0
0
0
0
0
0
0
0
0
0
0
0
0
0
0
0
0
0
0
0
0
0
0
0
0
0
0
0
0
0
0
0
0
8.80718e-13
0
2.94618e-12
0
0
1.31916e-08
0
0
0
0
0
0
0
0
0
0
0
0
0
0
0
0
0
0
0
0
0
0
0
0
0
0
0
0
0
0
0
0
0
0
0
0
0
0
0
0
0
0
0
0
7.09495e-13
0
1.73894e-12
0
0
1.20852e-08
0
0
0
0
0
0
0
0
0
0
0
0
0
0
0
0
0
0
0
0
0
0
0
0
0
0
0
0
0
0
0
0
0
0
0
0
0
0
0
0
0
0
0
0
4.09258e-13
0
1.24711e-13
0
0
1.10659e-08
0
0
0
0
0
0
0
0
0
0
0
0
0
0
0
0
0
0
0
0
0
0
0
0
0
0
0
0
0
0
0
0
0
0
0
0
0
0
0
0
0
0
0
0
0
0
0
0
0
1.02178e-08
0
0
0
0
0
0
0
0
0
0
0
0
0
0
0
0
0
0
0
0
0
0
0
0
0
0
0
0
0
0
0
0
0
0
0
0
0
0
0
0
0
0
0
0
0
0
0
0
0
9.50763e-09
0
0
0
0
0
0
0
0
0
0
0
0
0
0
0
0
0
0
0
0
0
0
0
0
0
0
0
0
0
0
0
0
0
0
0
0
0
0
0
0
0
0
0
0
0
0
0
0
0
8.86478e-09
0
0
0
0
0
0
0
0
0
0
0
0
0
0
0
0
0
0
0
0
0
0
0
0
0
0
0
0
0
0
0
0
0
0
0
0
0
0
0
0
0
0
0
0
0
0
0
0
0
8.22347e-09
0
0
0
0
0
0
0
0
0
0
0
0
0
0
0
0
0
0
0
0
0
0
0
0
0
0
0
0
0
0
0
0
0
0
0
0
0
0
0
0
0
0
0
0
0
0
0
0
0
7.56384e-09
0
0
0
0
0
0
0
0
0
0
0
0
0
0
0
0
0
0
0
0
0
0
0
0
0
0
0
0
0
0
0
0
0
0
0
0
0
0
0
0
0
0
0
0
0
0
0
0
0
6.89206e-09
0
0
0
0
0
0
0
0
0
0
0
0
0
0
0
8.91353e-12
1.49607e-11
2.45094e-12
0
0
0
0
0
0
0
0
0
0
0
0
0
0
0
0
0
0
0
0
0
0
0
0
0
0
0
0
0
0
0
6.21922e-09
0
0
0
0
0
0
0
0
0
0
0
0
0
0
0
0
0
0
0
1.31768e-11
1.98376e-11
1.20281e-11
1.40897e-12
0
0
0
0
0
0
0
0
0
0
0
0
0
0
0
0
0
0
0
0
0
0
0
0
0
0
5.55384e-09
0
0
0
6.57963e-11
0
0
0
0
0
0
0
0
0
0
0
0
0
0
0
0
0
0
0
0
1.61076e-12
4.46736e-12
1.82734e-12
0
0
0
0
0
0
0
0
0
0
0
0
0
0
0
0
0
0
0
0
0
0
4.90222e-09
0
0
0
1.47418e-10
0
0
0
0
0
0
0
0
0
0
0
0
0
0
0
0
0
0
0
0
0
0
0
0
0
0
0
0
0
0
0
0
0
0
0
0
0
0
0
0
0
0
0
0
0
4.26986e-09
0
0
0
2.00478e-10
0
0
0
0
0
0
0
0
0
0
0
0
0
0
0
0
0
0
0
0
0
0
0
0
0
0
0
0
0
0
0
0
0
0
0
0
0
0
0
0
0
0
0
0
0
3.66189e-09
0
0
0
2.09827e-10
0
0
0
0
0
0
0
0
0
0
0
0
0
0
0
0
0
0
0
0
0
0
0
0
0
0
0
0
0
0
0
0
0
0
0
0
0
0
0
0
0
0
0
0
0
3.08259e-09
0
0
0
1.58024e-10
0
0
0
0
0
0
0
0
0
0
0
0
0
0
0
0
0
0
0
0
0
0
0
0
0
0
0
0
0
0
0
0
0
0
0
0
0
0
0
0
0
0
0
0
0
2.53491e-09
0
0
0
2.58947e-11
0
0
0
0
0
0
0
0
0
0
0
0
0
0
0
0
0
0
0
0
0
0
0
0
0
0
0
0
0
0
0
0
0
0
0
0
0
0
0
0
0
0
0
0
0
2.02016e-09
0
0
0
0
0
0
0
0
0
0
0
0
0
0
0
0
0
0
0
0
0
0
0
0
0
0
0
0
0
0
0
0
0
0
0
0
0
0
0
0
0
0
0
0
0
0
0
0
0
1.53794e-09
0
0
0
0
0
0
0
0
0
0
0
0
0
0
0
0
0
0
0
0
0
0
0
0
0
0
0
0
0
0
0
0
0
0
0
0
0
0
0
0
0
0
0
0
0
0
0
0
0
1.08624e-09
0
0
0
0
0
0
0
0
0
0
0
0
0
0
0
0
0
0
0
0
0
0
0
0
0
0
0
0
0
0
0
0
0
0
0
0
0
0
0
0
0
0
0
0
0
0
0
0
0
6.61879e-10
0
0
0
0
0
0
0
0
0
0
0
0
0
0
0
0
0
0
0
0
0
0
0
0
0
0
0
0
0
0
0
0
0
0
0
0
0
0
0
0
0
0
0
0
0
0
0
0
0
2.61065e-10
0
0
0
0
0
0
0
0
0
0
0
0
0
0
0
0
0
0
0
0
0
0
0
0
0
0
0
0
0
0
0
0
0
0
0
0
0
0
0
0
0
0
0
0
0
0
0
0
0
0
0
0
0
0
0
0
0
0
0
0
0
0
0
0
0
0
0
0
0
0
0
0
0
0
0
0
0
0
0
0
0
0
0
0
0
0
0
0
0
0
0
0
0
0
0
0
0
0
0
0
0
0
0
0
0
0
0
0
0
0
0
0
0
0
0
0
0
0
0
0
0
0
0
0
0
0
0
0
0
0
0
0
0
0
0
0
0
0
0
0
0
0
0
0
0
0
0
0
0
0
0
0
0
0
0
0
0
0
0
0
0
0
0
0
0
0
0
0
0
0
0
0
0
0
0
0
0
0
0
0
0
0
0
0
0
0
0
0
0
0
0
0
0
0
0
0
0
0
0
0
0
0
0
0
0
0
0
0
0
0
0
0
0
0
0
0
0
0
0
0
0
0
0
0
0
0
0
0
0
0
0
0
0
0
0
0
0
0
0
0
0
0
0
0
0
0
0
0
0
0
0
0
0
0
0
0
0
0
0
0
0
0
0
0
0
0
0
0
0
0
0
0
0
0
0
0
0
0
0
0
0
0
0
0
0
0
0
0
0
0
0
0
0
0
0
0
0
0
0
0
8.71518e-10
0
0
0
0
0
0
0
0
0
0
0
0
0
0
0
0
0
0
0
0
0
0
0
0
0
0
0
0
0
0
0
0
0
0
0
0
0
0
0
0
0
0
0
0
0
0
0
0
0
1.80066e-09
0
0
0
0
0
0
0
0
0
0
0
0
0
0
0
0
0
0
0
0
0
0
0
0
0
0
0
0
0
0
0
0
0
0
0
0
0
0
0
0
0
0
0
0
0
0
0
0
0
2.60448e-09
0
0
0
0
0
0
0
0
0
0
0
0
0
0
0
0
0
0
0
0
0
0
0
0
0
0
0
0
0
0
0
0
0
0
0
0
0
0
0
0
0
0
0
0
0
0
0
0
0
3.28506e-09
0
0
0
0
0
0
0
0
0
0
0
0
0
0
0
0
0
0
0
0
0
0
0
0
0
0
0
0
0
0
0
0
0
0
0
0
0
0
0
0
0
0
0
0
0
0
0
0
0
3.84766e-09
0
0
0
0
0
0
0
0
0
0
0
0
0
0
0
0
0
0
0
0
0
0
0
0
0
0
0
0
0
0
0
0
0
0
0
0
0
0
0
0
0
0
0
0
0
0
0
0
0
4.29984e-09
0
0
0
0
0
0
0
0
0
0
0
0
0
0
0
0
0
0
0
0
0
0
0
0
0
0
0
0
0
0
0
0
0
0
0
0
0
0
0
0
0
0
0
0
0
0
0
1.12657e-10
0
4.64996e-09
0
0
0
0
0
0
0
0
0
0
0
0
0
0
0
0
0
0
0
0
0
0
0
0
0
0
0
0
0
0
0
0
0
0
0
0
0
0
0
0
0
0
0
0
0
0
0
5.13989e-10
0
4.9069e-09
0
0
0
0
0
0
0
0
0
0
0
0
0
0
0
0
0
0
0
0
0
0
0
0
0
0
0
0
0
0
0
0
0
0
0
0
0
0
0
0
0
0
0
0
0
0
3.68862e-10
9.23565e-10
0
5.08076e-09
0
0
0
0
0
0
0
0
0
0
0
0
0
0
0
0
0
0
0
0
0
0
0
0
0
0
0
0
0
0
0
0
0
0
0
0
0
0
0
0
0
0
0
0
0
3.67787e-11
7.7893e-10
1.33427e-09
0
5.1827e-09
0
0
0
0
0
0
0
0
0
0
0
0
0
0
0
0
0
0
0
0
0
0
0
0
0
0
0
0
0
0
0
0
0
0
0
0
0
0
0
0
0
0
0
0
0
3.86211e-10
1.19446e-09
1.73879e-09
0
5.22386e-09
0
0
0
0
0
0
0
0
0
0
0
0
0
0
0
0
0
0
0
0
0
0
0
0
0
0
0
0
0
0
0
0
0
0
0
0
0
0
0
0
0
0
0
0
7.11426e-11
7.45495e-10
1.607e-09
2.12926e-09
0
5.21451e-09
0
0
0
0
0
0
0
0
0
0
0
0
0
0
0
0
0
0
0
0
0
0
0
0
0
0
0
0
0
0
0
0
0
0
0
0
0
0
0
0
0
0
0
0
3.72865e-10
1.10695e-09
2.00843e-09
2.49824e-09
0
5.16365e-09
0
0
0
0
0
0
0
0
0
0
0
0
0
0
0
0
0
0
0
0
0
0
0
0
0
0
0
0
0
0
0
0
0
0
0
0
0
0
0
0
0
0
0
2.0211e-11
6.79874e-10
1.46243e-09
2.39172e-09
2.84e-09
0
5.07891e-09
0
0
0
0
0
0
0
0
0
0
0
0
0
0
0
0
0
0
0
0
0
0
0
0
0
0
0
0
0
0
0
0
0
0
0
0
0
0
0
0
0
0
0
2.76252e-10
9.84874e-10
1.80508e-09
2.75007e-09
3.14839e-09
0
4.96671e-09
0
0
0
0
0
0
0
0
0
0
0
0
0
0
0
0
0
0
0
0
0
0
0
0
0
0
0
0
0
0
0
0
0
0
0
0
0
0
0
0
0
0
0
5.33666e-10
1.28144e-09
2.13087e-09
3.07696e-09
3.41599e-09
0
4.83234e-09
0
0
0
0
0
0
0
0
0
0
0
0
0
0
0
0
0
0
0
0
0
0
0
0
0
0
0
0
0
0
0
0
0
0
0
0
0
0
0
0
0
0
1.67314e-10
7.86099e-10
1.56347e-09
2.43235e-09
3.36299e-09
3.63561e-09
0
4.68022e-09
0
0
0
0
0
0
0
0
0
0
0
0
0
0
0
0
0
0
0
0
0
0
0
0
0
0
0
0
0
0
0
0
0
0
0
0
0
0
0
0
0
0
3.78501e-10
1.0276e-09
1.82413e-09
2.69619e-09
3.59538e-09
3.8004e-09
0
4.51411e-09
0
0
0
0
0
0
0
0
0
0
0
0
0
0
0
0
0
0
0
0
0
0
0
0
0
0
0
0
0
0
0
0
0
0
0
0
0
0
0
0
0
1.08936e-12
5.8169e-10
1.25193e-09
2.05652e-09
2.91502e-09
3.77513e-09
3.91168e-09
0
4.33731e-09
0
0
0
0
0
0
0
0
0
0
0
0
0
0
0
0
0
0
0
0
0
0
0
0
0
0
0
0
0
0
0
0
0
0
0
0
0
0
0
0
0
1.71207e-10
7.71363e-10
1.45311e-09
2.25452e-09
3.09549e-09
3.92282e-09
3.97585e-09
0
4.1527e-09
0
0
0
0
0
0
0
0
0
0
0
0
0
0
0
0
0
0
0
0
0
0
0
0
0
0
0
0
0
0
0
0
0
0
0
0
0
0
0
0
0
3.31475e-10
9.4255e-10
1.62576e-09
2.41404e-09
3.23974e-09
4.03282e-09
3.99127e-09
0
3.96278e-09
0
0
0
0
0
0
0
0
0
0
0
0
0
0
0
0
0
0
0
0
0
0
0
0
0
0
0
0
0
0
0
0
0
0
0
0
0
0
0
0
0
4.77495e-10
1.09111e-09
1.76678e-09
2.53116e-09
3.32614e-09
4.06576e-09
3.96022e-09
0
3.76977e-09
0
0
0
0
0
0
0
0
0
0
0
0
0
0
0
0
0
0
0
0
0
0
0
0
0
0
0
0
0
0
0
0
0
0
0
0
0
0
0
0
6.52373e-11
6.05312e-10
1.21318e-09
1.87208e-09
2.60155e-09
3.3471e-09
4.01968e-09
3.87494e-09
0
3.57572e-09
1.55892e-10
0
0
0
0
0
0
0
0
0
0
0
0
0
0
0
0
0
0
0
0
0
0
0
0
0
0
0
0
0
0
0
0
0
0
0
0
0
0
0
1.73205e-10
7.11388e-10
1.30547e-09
1.93873e-09
2.6247e-09
3.31121e-09
3.90816e-09
3.70973e-09
0
3.38261e-09
4.1296e-10
0
0
0
0
0
0
0
0
0
0
0
0
0
0
0
0
0
0
0
0
0
0
0
0
0
0
0
0
0
0
0
0
0
0
0
0
0
0
0
2.63773e-10
7.92846e-10
1.3655e-09
1.96517e-09
2.60007e-09
3.22105e-09
3.73433e-09
3.46677e-09
0
3.19223e-09
6.30192e-10
0
0
0
0
0
0
0
0
0
0
0
0
0
0
0
0
0
0
0
0
0
0
0
0
0
0
0
0
0
0
0
0
0
0
0
0
0
0
0
3.34413e-10
8.47594e-10
1.3917e-09
1.95073e-09
2.52779e-09
3.07765e-09
3.50307e-09
3.16754e-09
0
3.00603e-09
8.11952e-10
0
0
0
0
0
0
0
0
0
0
0
0
0
0
0
0
0
0
0
0
0
0
0
0
0
0
0
0
0
0
0
0
0
0
0
0
0
0
0
3.83312e-10
8.74308e-10
1.3836e-09
1.89588e-09
2.40951e-09
2.88356e-09
3.21995e-09
2.82815e-09
0
2.82517e-09
9.62259e-10
0
0
0
0
0
0
0
0
0
0
0
0
0
0
0
0
0
0
0
0
0
0
0
0
0
0
0
0
0
0
0
0
0
0
0
0
0
0
0
4.09414e-10
8.72638e-10
1.34187e-09
1.80246e-09
2.24861e-09
2.64389e-09
2.89157e-09
2.45742e-09
0
2.65057e-09
1.08483e-09
0
0
0
0
0
0
0
0
0
0
0
0
0
0
0
0
0
0
0
0
0
0
0
0
0
0
0
0
0
0
0
0
0
0
0
0
0
0
0
4.12481e-10
8.43294e-10
1.26834e-09
1.67373e-09
2.05029e-09
2.36586e-09
2.52749e-09
2.06571e-09
0
2.48289e-09
1.18309e-09
0
0
0
0
0
0
0
0
0
0
0
0
0
0
0
0
0
0
0
0
0
0
0
0
0
0
0
0
0
0
0
0
0
0
0
0
0
0
0
3.93188e-10
7.87976e-10
1.16606e-09
1.51453e-09
1.82131e-09
2.05875e-09
2.13983e-09
1.6659e-09
0
2.32262e-09
1.26018e-09
0
0
0
0
0
0
0
0
0
0
0
0
0
0
0
0
0
0
0
0
0
0
0
0
0
0
0
0
0
0
0
0
0
0
0
0
0
0
0
3.53146e-10
7.09427e-10
1.03926e-09
1.33095e-09
1.56999e-09
1.73363e-09
1.74279e-09
1.27432e-09
0
2.17005e-09
1.31894e-09
0
0
0
0
0
0
0
0
0
0
0
0
0
0
0
0
0
0
0
0
0
0
0
0
0
0
0
0
0
0
0
0
0
0
0
0
0
0
0
2.94802e-10
6.11437e-10
8.9333e-10
1.13016e-09
1.306e-09
1.40322e-09
1.35253e-09
9.08859e-10
0
2.02535e-09
1.36199e-09
0
0
0
0
0
0
0
0
0
0
0
0
0
0
0
0
0
0
0
0
0
0
0
0
0
0
0
0
0
0
0
0
0
0
0
0
0
0
0
2.21466e-10
4.98658e-10
7.34488e-10
9.20298e-10
1.03988e-09
1.08082e-09
9.85635e-10
5.8699e-10
0
1.88859e-09
1.39168e-09
0
0
0
0
0
0
0
0
0
0
0
0
0
0
0
0
0
0
0
0
0
0
0
0
0
0
0
0
0
0
0
0
0
0
0
0
0
0
0
1.37185e-10
3.76386e-10
5.69568e-10
7.10009e-10
7.82297e-10
7.79769e-10
6.57982e-10
3.22963e-10
0
1.75976e-09
1.41013e-09
0
0
0
0
0
0
0
0
0
0
0
0
0
0
0
0
0
0
0
0
0
0
0
0
0
0
0
0
0
0
0
0
0
0
0
0
0
0
0
4.65492e-11
2.504e-10
4.05687e-10
5.07888e-10
5.43399e-10
5.11885e-10
3.82181e-10
1.25082e-10
0
1.63875e-09
1.4192e-09
0
0
0
0
0
0
0
0
0
0
0
0
0
0
0
0
0
0
0
0
0
0
0
0
0
0
0
0
0
0
0
0
0
0
0
0
0
0
0
0
1.26692e-10
2.49787e-10
3.21839e-10
3.31887e-10
2.85901e-10
1.65661e-10
0
0
1.52539e-09
1.42048e-09
0
0
0
0
0
0
0
0
0
0
0
0
0
0
0
0
0
0
0
0
0
0
0
0
0
0
0
0
0
0
0
0
0
0
0
0
0
0
0
0
1.10672e-11
1.08269e-10
1.5851e-10
1.54022e-10
1.06635e-10
9.61581e-12
0
0
1.41947e-09
1.41541e-09
0
0
0
0
0
0
0
0
0
0
0
0
0
0
0
0
0
0
0
0
0
0
0
0
0
0
0
0
0
0
0
0
0
0
0
0
0
0
0
0
0
0
2.27366e-11
1.31468e-11
0
0
0
0
1.32073e-09
1.40524e-09
0
0
0
0
0
0
0
0
0
0
0
0
0
0
0
0
0
0
0
0
0
0
0
0
0
0
0
0
0
0
0
0
0
0
0
0
0
0
0
0
0
0
0
0
0
0
0
0
1.22891e-09
1.39108e-09
0
0
0
0
0
0
0
0
0
0
0
0
0
0
0
0
0
0
0
0
0
0
0
0
0
0
0
0
0
0
0
0
0
0
0
0
0
0
0
0
0
0
0
0
0
0
0
0
1.14372e-09
1.3739e-09
0
0
0
0
0
0
0
0
0
0
0
0
0
0
0
0
0
0
0
0
0
0
0
0
0
0
0
0
0
0
0
0
0
0
0
0
0
0
0
0
0
0
0
0
0
0
0
0
1.06487e-09
1.35454e-09
0
0
0
0
0
0
0
0
0
0
0
0
0
0
0
0
0
0
0
0
0
0
0
0
0
0
0
0
0
0
0
0
0
0
0
0
0
0
0
0
0
0
0
0
0
0
0
0
9.92088e-10
1.33373e-09
0
0
0
0
0
0
0
0
0
0
0
0
0
0
0
0
0
0
0
0
0
0
0
0
0
0
0
0
0
0
0
0
0
0
0
0
0
0
0
0
0
0
0
0
0
0
3.76809e-12
0
9.251e-10
1.31213e-09
2.31535e-11
0
0
0
0
0
0
0
0
0
0
0
0
0
0
0
0
0
0
0
0
0
0
0
0
0
0
0
0
0
0
0
0
0
0
0
0
0
0
0
0
0
0
0
0
0
7.79421e-11
0
8.63641e-10
1.29039e-09
1.12437e-10
0
0
0
0
0
0
0
0
0
0
0
0
0
0
0
0
0
0
0
0
0
0
0
0
0
0
0
0
0
0
0
0
0
0
0
0
0
0
0
0
0
0
0
0
7.69008e-12
1.8361e-10
0
8.07467e-10
1.2691e-09
1.92592e-10
0
0
0
0
0
0
0
0
0
0
0
0
0
0
0
0
0
0
0
0
0
0
0
0
0
0
0
0
0
0
0
0
0
0
0
0
0
0
0
0
6.58599e-12
1.99993e-11
3.10369e-11
5.35657e-11
1.18288e-10
3.26039e-10
0
7.56354e-10
1.24879e-09
2.65121e-10
0
0
0
0
0
0
0
0
0
0
0
0
0
0
0
0
0
0
0
0
0
0
0
0
0
0
0
0
0
0
0
0
0
0
0
0
2.57223e-11
8.58432e-11
1.23697e-10
1.43894e-10
1.52843e-10
1.57135e-10
1.63479e-10
1.86349e-10
2.64132e-10
5.0876e-10
0
7.10101e-10
1.22999e-09
3.31552e-10
0
0
0
0
0
0
0
0
0
0
0
0
0
0
0
0
0
0
0
0
0
0
0
0
0
0
0
0
0
0
0
0
0
0
1.2101e-10
2.17993e-10
2.85137e-10
3.25228e-10
3.43691e-10
3.4599e-10
3.39735e-10
3.32155e-10
3.32286e-10
3.55817e-10
4.48471e-10
7.33256e-10
0
6.68537e-10
1.21341e-09
3.93307e-10
0
0
0
0
0
0
0
0
0
0
0
0
0
0
0
0
0
0
0
0
0
0
0
0
0
0
0
0
0
0
0
6.05423e-11
2.35854e-10
3.79005e-10
4.88397e-10
5.63921e-10
6.08052e-10
6.24194e-10
6.18802e-10
5.98589e-10
5.72943e-10
5.50237e-10
5.42106e-10
5.65977e-10
6.74589e-10
1.00189e-09
0
6.31531e-10
1.1997e-09
4.51934e-10
0
0
0
0
0
0
0
0
0
0
0
0
0
0
0
0
0
0
0
0
0
0
0
0
0
0
0
0
0
1.49699e-10
3.68285e-10
5.6103e-10
7.22328e-10
8.47967e-10
9.36436e-10
9.87967e-10
1.00543e-09
9.92945e-10
9.58354e-10
9.10147e-10
8.60086e-10
8.18365e-10
7.99188e-10
8.22577e-10
9.47582e-10
1.31873e-09
0
5.98989e-10
1.18938e-09
5.09119e-10
0
0
0
0
0
0
0
0
0
0
0
0
0
0
0
0
0
0
0
0
0
0
0
0
0
0
1.51214e-12
2.71073e-10
5.24134e-10
7.5814e-10
9.71289e-10
1.15591e-09
1.30472e-09
1.41302e-09
1.47925e-09
1.50401e-09
1.49068e-09
1.44426e-09
1.3744e-09
1.29201e-09
1.21179e-09
1.14639e-09
1.11232e-09
1.13282e-09
1.27375e-09
1.6916e-09
0
5.70876e-10
1.18318e-09
5.66731e-10
0
0
0
0
0
0
0
0
0
0
0
0
0
0
0
0
0
0
0
0
0
0
0
0
1.14189e-10
4.22145e-10
7.11519e-10
9.83103e-10
1.23555e-09
1.46728e-09
1.6785e-09
1.8588e-09
1.99763e-09
2.0895e-09
2.13268e-09
2.12823e-09
2.08021e-09
1.99468e-09
1.88337e-09
1.76027e-09
1.64355e-09
1.54895e-09
1.49494e-09
1.50952e-09
1.665e-09
2.13148e-09
0
5.47219e-10
1.18216e-09
6.26884e-10
0
0
0
0
0
0
0
0
0
0
0
0
0
0
0
0
0
0
0
0
0
0
2.02172e-10
5.68099e-10
9.07644e-10
1.22556e-09
1.52351e-09
1.80101e-09
2.05649e-09
2.28938e-09
2.50275e-09
2.68397e-09
2.8168e-09
2.89444e-09
2.91482e-09
2.87963e-09
2.7939e-09
2.66487e-09
2.50649e-09
2.33645e-09
2.17689e-09
2.04757e-09
1.96769e-09
1.97199e-09
2.14088e-09
2.66158e-09
0
5.28133e-10
1.18738e-09
6.92136e-10
0
0
0
0
0
0
0
0
0
0
0
0
0
0
0
0
0
0
0
0
2.45873e-10
6.8248e-10
1.08136e-09
1.45373e-09
1.80519e-09
2.13679e-09
2.44729e-09
2.73472e-09
2.99713e-09
3.23506e-09
3.45509e-09
3.64466e-09
3.77794e-09
3.84602e-09
3.84613e-09
3.78067e-09
3.65611e-09
3.48107e-09
3.27169e-09
3.05002e-09
2.84255e-09
2.67381e-09
2.56188e-09
2.55042e-09
2.73092e-09
3.31379e-09
0
5.13852e-10
1.2002e-09
7.65513e-10
0
0
0
0
0
0
0
0
0
0
0
0
0
0
0
0
0
0
2.76185e-10
7.71544e-10
1.23919e-09
1.67316e-09
2.07008e-09
2.45016e-09
2.81611e-09
3.16474e-09
3.49142e-09
3.79252e-09
4.06572e-09
4.31272e-09
4.5438e-09
4.7515e-09
4.89496e-09
4.96146e-09
4.94699e-09
4.85475e-09
4.69343e-09
4.47356e-09
4.2133e-09
3.9392e-09
3.68259e-09
3.47295e-09
3.32613e-09
3.29318e-09
3.48262e-09
4.1362e-09
0
5.04774e-10
1.22242e-09
8.5082e-10
7.48188e-11
0
0
0
0
0
0
0
0
0
0
0
0
0
0
0
3.51596e-10
8.88014e-10
1.39878e-09
1.88554e-09
2.3513e-09
2.78567e-09
3.17895e-09
3.5657e-09
3.94655e-09
4.31388e-09
4.6594e-09
4.97765e-09
5.26576e-09
5.52625e-09
5.77215e-09
6.01007e-09
6.17794e-09
6.25577e-09
6.23709e-09
6.12589e-09
5.9341e-09
5.67541e-09
5.37034e-09
5.04912e-09
4.74837e-09
4.50225e-09
4.32386e-09
4.2652e-09
4.46232e-09
5.20069e-09
0
5.01474e-10
1.25637e-09
9.53036e-10
2.91298e-10
0
0
0
0
0
0
0
0
0
0
0
0
0
4.89957e-10
1.0678e-09
1.61895e-09
2.14328e-09
2.64327e-09
3.12456e-09
3.59245e-09
4.03122e-09
4.41715e-09
4.80636e-09
5.19909e-09
5.58365e-09
5.94821e-09
6.28555e-09
6.59218e-09
6.87046e-09
7.13502e-09
7.41266e-09
7.62608e-09
7.73479e-09
7.72923e-09
7.6136e-09
7.40386e-09
7.1194e-09
6.78386e-09
6.42984e-09
6.09939e-09
5.83051e-09
5.63383e-09
5.54975e-09
5.75442e-09
6.59323e-09
0
5.04815e-10
1.30494e-09
1.07831e-09
5.49476e-10
0
0
0
0
0
0
0
0
0
0
0
6.53085e-10
1.28662e-09
1.89099e-09
2.46584e-09
3.01031e-09
3.52526e-09
4.01706e-09
4.49624e-09
4.97022e-09
5.41736e-09
5.78884e-09
6.17102e-09
6.56766e-09
6.9638e-09
7.34423e-09
7.70001e-09
8.02726e-09
8.32677e-09
8.61404e-09
8.93415e-09
9.22149e-09
9.3894e-09
9.4229e-09
9.32527e-09
9.11702e-09
8.82626e-09
8.48228e-09
8.12082e-09
7.78597e-09
7.51943e-09
7.33117e-09
7.2312e-09
7.44672e-09
8.4052e-09
0
5.1645e-10
1.37256e-09
1.23471e-09
8.63554e-10
2.60548e-10
0
0
0
0
0
0
0
8.59796e-11
7.92952e-10
1.48468e-09
2.15183e-09
2.79201e-09
3.40337e-09
3.98252e-09
4.52637e-09
5.0365e-09
5.52362e-09
6.00472e-09
6.48911e-09
6.94813e-09
7.29532e-09
7.6511e-09
8.03439e-09
8.42835e-09
8.81537e-09
9.18479e-09
9.53194e-09
9.85475e-09
1.01673e-08
1.05235e-08
1.09161e-08
1.11829e-08
1.12941e-08
1.12487e-08
1.10711e-08
1.07997e-08
1.04756e-08
1.01377e-08
9.83218e-09
9.60156e-09
9.45775e-09
9.36454e-09
9.58952e-09
1.06759e-08
0
5.38859e-10
1.4667e-09
1.43688e-09
1.25626e-09
9.25891e-10
2.89465e-10
0
0
0
0
2.02519e-10
8.69611e-10
1.5952e-09
2.32553e-09
3.03762e-09
3.72489e-09
4.3857e-09
5.01614e-09
5.60942e-09
6.16021e-09
6.67099e-09
7.15735e-09
7.64418e-09
8.14305e-09
8.61665e-09
8.92768e-09
9.2259e-09
9.5659e-09
9.9314e-09
1.03051e-08
1.06755e-08
1.10369e-08
1.1383e-08
1.17222e-08
1.21043e-08
1.26182e-08
1.30371e-08
1.32771e-08
1.33314e-08
1.32249e-08
1.30062e-08
1.27328e-08
1.24541e-08
1.22154e-08
1.20571e-08
1.19902e-08
1.19453e-08
1.21668e-08
1.3364e-08
0
5.7467e-10
1.59588e-09
1.70462e-09
1.76461e-09
1.74262e-09
1.35337e-09
8.03808e-10
5.0077e-10
6.02549e-10
1.00675e-09
1.56894e-09
2.24551e-09
3.04101e-09
3.83297e-09
4.59667e-09
5.3303e-09
6.03475e-09
6.70427e-09
7.32779e-09
7.89717e-09
8.41608e-09
8.90592e-09
9.40122e-09
9.91642e-09
1.04033e-08
1.0661e-08
1.08535e-08
1.11033e-08
1.13983e-08
1.17245e-08
1.20714e-08
1.24318e-08
1.27953e-08
1.31587e-08
1.35687e-08
1.41795e-08
1.48243e-08
1.52609e-08
1.54753e-08
1.54907e-08
1.53631e-08
1.51664e-08
1.49714e-08
1.48282e-08
1.47717e-08
1.48057e-08
1.48463e-08
1.50416e-08
1.6302e-08
0
6.28264e-10
1.77112e-09
2.05792e-09
2.41981e-09
2.72673e-09
2.53391e-09
2.05214e-09
1.76546e-09
1.85918e-09
2.23205e-09
2.75298e-09
3.41416e-09
4.30674e-09
5.21179e-09
6.07388e-09
6.89542e-09
7.67935e-09
8.41807e-09
9.09594e-09
9.70142e-09
1.02395e-08
1.07385e-08
1.12447e-08
1.17772e-08
1.22727e-08
1.24536e-08
1.24731e-08
1.25633e-08
1.27253e-08
1.29537e-08
1.32403e-08
1.35751e-08
1.39416e-08
1.4321e-08
1.47538e-08
1.5423e-08
1.63609e-08
1.70788e-08
1.75292e-08
1.77296e-08
1.77406e-08
1.76496e-08
1.75468e-08
1.75036e-08
1.7553e-08
1.76877e-08
1.7815e-08
1.7949e-08
1.91936e-08
0
7.0616e-10
2.01075e-09
2.52973e-09
3.25305e-09
3.84081e-09
3.74559e-09
3.24415e-09
2.92689e-09
2.99171e-09
3.32835e-09
3.80599e-09
4.41745e-09
5.32129e-09
6.36324e-09
7.36132e-09
8.31802e-09
9.23024e-09
1.00816e-08
1.0848e-08
1.15134e-08
1.20845e-08
1.25975e-08
1.31129e-08
1.36578e-08
1.41496e-08
1.42223e-08
1.40005e-08
1.38547e-08
1.38085e-08
1.38742e-08
1.40511e-08
1.43267e-08
1.46754e-08
1.50593e-08
1.55042e-08
1.6192e-08
1.74299e-08
1.85213e-08
1.92815e-08
1.97286e-08
1.99261e-08
1.99714e-08
1.99705e-08
2.00175e-08
2.01563e-08
2.0366e-08
2.05288e-08
2.05556e-08
2.1688e-08
0
8.21165e-10
2.34509e-09
3.16948e-09
4.28848e-09
5.02243e-09
4.90838e-09
4.36422e-09
4.04831e-09
4.11715e-09
4.44849e-09
4.93231e-09
5.51643e-09
6.21623e-09
7.197e-09
8.32097e-09
9.45465e-09
1.05552e-08
1.15776e-08
1.24795e-08
1.32374e-08
1.38596e-08
1.43924e-08
1.49136e-08
1.54598e-08
1.59174e-08
1.58169e-08
1.53132e-08
1.48972e-08
1.46086e-08
1.44757e-08
1.45086e-08
1.46946e-08
1.50001e-08
1.5372e-08
1.58132e-08
1.64965e-08
1.79148e-08
1.94448e-08
2.0555e-08
2.12777e-08
2.16843e-08
2.18792e-08
2.1979e-08
2.20948e-08
2.22925e-08
2.25333e-08
2.26501e-08
2.25026e-08
2.35026e-08
0
9.94489e-10
2.82242e-09
4.0524e-09
5.51677e-09
6.23853e-09
6.07155e-09
5.62649e-09
5.41106e-09
5.54406e-09
5.95638e-09
6.46762e-09
7.01961e-09
7.56809e-09
8.11886e-09
8.79145e-09
9.9539e-09
1.14229e-08
1.27279e-08
1.38322e-08
1.472e-08
1.54102e-08
1.59638e-08
1.64816e-08
1.70109e-08
1.73838e-08
1.70148e-08
1.62791e-08
1.56679e-08
1.52172e-08
1.49543e-08
1.4888e-08
1.50049e-08
1.52685e-08
1.56187e-08
1.60336e-08
1.66601e-08
1.80148e-08
1.98721e-08
2.12727e-08
2.22243e-08
2.28043e-08
2.31218e-08
2.32982e-08
2.34519e-08
2.36617e-08
2.38726e-08
2.38413e-08
2.35339e-08
2.45166e-08
0
1.25969e-09
3.51747e-09
5.27164e-09
6.924e-09
7.5319e-09
7.39196e-09
7.06915e-09
6.9963e-09
7.48863e-09
7.98484e-09
8.52291e-09
8.85333e-09
9.10844e-09
9.53536e-09
1.003e-08
1.06017e-08
1.16095e-08
1.32915e-08
1.4691e-08
1.57471e-08
1.65121e-08
1.70796e-08
1.75788e-08
1.80555e-08
1.82509e-08
1.75927e-08
1.68627e-08
1.63095e-08
1.594e-08
1.57506e-08
1.57292e-08
1.58619e-08
1.61247e-08
1.64704e-08
1.68626e-08
1.73844e-08
1.83676e-08
2.0096e-08
2.15064e-08
2.24986e-08
2.31251e-08
2.34811e-08
2.3681e-08
2.38376e-08
2.40251e-08
2.41727e-08
2.39872e-08
2.3801e-08
2.49986e-08
0
1.67891e-09
4.55509e-09
6.89847e-09
8.44511e-09
8.91464e-09
8.80156e-09
8.47067e-09
8.93876e-09
9.80011e-09
1.04443e-08
1.109e-08
1.13186e-08
1.10495e-08
1.10723e-08
1.13829e-08
1.18546e-08
1.24005e-08
1.33514e-08
1.48944e-08
1.60697e-08
1.68706e-08
1.74238e-08
1.78868e-08
1.82855e-08
1.82478e-08
1.76941e-08
1.73522e-08
1.72244e-08
1.72453e-08
1.736e-08
1.75386e-08
1.77759e-08
1.8078e-08
1.84406e-08
1.88375e-08
1.92548e-08
1.9743e-08
2.05398e-08
2.14922e-08
2.22034e-08
2.26764e-08
2.29607e-08
2.31303e-08
2.3266e-08
2.34227e-08
2.35397e-08
2.34444e-08
2.36882e-08
2.5292e-08
0
2.35941e-09
6.10671e-09
8.81945e-09
1.00165e-08
1.0287e-08
1.00833e-08
9.88598e-09
1.10329e-08
1.20428e-08
1.28177e-08
1.36396e-08
1.41089e-08
1.35404e-08
1.30863e-08
1.29679e-08
1.31786e-08
1.35975e-08
1.40871e-08
1.48e-08
1.57785e-08
1.64853e-08
1.69786e-08
1.73885e-08
1.77384e-08
1.78209e-08
1.79525e-08
1.82738e-08
1.86758e-08
1.90576e-08
1.95305e-08
2.00778e-08
2.04956e-08
2.08552e-08
2.12289e-08
2.15701e-08
2.16917e-08
2.17641e-08
2.18843e-08
2.20188e-08
2.21412e-08
2.22415e-08
2.23264e-08
2.24098e-08
2.25064e-08
2.26229e-08
2.27426e-08
2.29498e-08
2.35816e-08
2.53977e-08
0
3.43527e-09
8.19557e-09
1.05786e-08
1.11969e-08
1.12577e-08
1.08488e-08
1.11929e-08
1.25651e-08
1.34841e-08
1.43566e-08
1.53724e-08
1.62405e-08
1.60253e-08
1.54093e-08
1.49205e-08
1.46466e-08
1.46314e-08
1.48343e-08
1.51701e-08
1.55583e-08
1.59443e-08
1.63294e-08
1.67099e-08
1.71078e-08
1.75493e-08
1.80394e-08
1.86147e-08
1.95282e-08
2.11205e-08
2.23989e-08
2.32529e-08
2.38056e-08
2.42139e-08
2.46114e-08
2.49313e-08
2.47436e-08
2.39745e-08
2.33232e-08
2.2824e-08
2.24661e-08
2.2228e-08
2.2088e-08
2.20293e-08
2.20412e-08
2.21163e-08
2.22461e-08
2.24554e-08
2.30451e-08
2.4775e-08
0
0
0
0
1.1088e-09
2.5088e-10
1.31963e-10
1.15769e-10
7.85753e-11
1.9159e-10
5.30896e-10
1.08255e-09
1.59227e-09
1.60407e-09
9.78442e-10
3.02056e-10
2.67364e-11
1.45222e-10
5.77904e-10
1.67614e-09
3.13881e-09
1.64689e-09
0
0
0
0
0
0
0
3.26235e-09
5.19457e-09
2.02285e-08
1.18185e-07
2.38983e-07
3.20314e-07
3.21672e-07
2.96168e-07
2.28366e-07
8.89152e-08
1.33322e-08
1.37136e-09
1.79101e-09
2.19827e-09
2.03852e-09
1.18792e-09
9.32373e-10
9.60147e-10
0
0
3.09382e-10
1.98054e-09
0
0
0
3.11125e-09
6.19286e-09
5.33416e-09
4.55973e-09
5.20691e-09
4.69641e-09
2.26039e-09
1.87684e-10
0
0
0
0
5.91715e-10
2.1288e-09
5.34983e-09
7.96195e-09
1.07292e-08
1.32003e-08
1.30452e-08
0
0
0
0
0
0
5.7836e-08
6.88756e-08
2.98191e-08
0
0
0
0
0
1.32424e-09
2.79431e-09
6.11575e-10
3.52988e-10
1.58435e-09
5.69338e-09
4.66445e-09
9.02123e-09
8.31117e-09
3.53656e-08
4.02196e-08
3.12611e-08
0
0
0
0
0
4.09927e-10
2.14227e-10
1.49776e-10
1.11816e-10
8.9718e-11
1.8812e-10
4.70226e-10
9.31904e-10
1.36134e-09
1.35335e-09
8.01585e-10
2.31633e-10
2.33764e-11
1.89431e-10
6.68206e-10
1.65521e-09
3.50943e-09
3.16659e-09
0
0
0
0
0
0
0
2.60698e-09
4.37898e-09
2.31882e-08
1.2035e-07
2.36503e-07
3.18619e-07
3.16885e-07
2.96978e-07
2.34253e-07
8.64798e-08
1.20855e-08
2.6112e-09
2.85969e-09
2.98046e-09
2.71808e-09
1.75097e-09
1.24933e-09
1.38865e-09
0
0
0
2.5009e-09
0
0
0
8.69106e-10
5.78245e-09
5.16678e-09
4.41905e-09
5.17808e-09
5.1618e-09
2.68722e-09
3.63801e-10
0
0
0
0
4.15947e-11
1.39555e-09
4.37364e-09
6.75315e-09
9.1619e-09
1.13436e-08
1.11879e-08
0
0
0
0
0
0
1.78532e-08
4.94546e-08
2.40919e-08
0
0
0
2.63436e-10
9.41055e-10
1.73456e-09
3.19144e-09
1.0528e-09
4.32987e-10
1.14461e-09
5.35009e-09
4.38176e-09
9.14207e-09
8.13202e-09
3.63556e-08
4.00058e-08
5.89965e-08
0
0
0
0
0
1.21287e-10
1.23894e-10
1.2142e-10
9.7828e-11
8.90245e-11
1.7291e-10
4.01989e-10
7.76381e-10
1.12795e-09
1.11256e-09
6.29922e-10
1.58655e-10
2.76192e-11
2.51188e-10
7.76846e-10
1.68914e-09
3.78603e-09
4.2548e-09
0
0
0
0
0
0
0
1.90811e-09
3.67065e-09
2.63498e-08
1.22544e-07
2.35036e-07
3.17704e-07
3.1192e-07
2.98193e-07
2.4116e-07
8.27994e-08
1.07637e-08
3.91711e-09
3.97202e-09
3.80028e-09
3.42654e-09
2.36262e-09
1.59914e-09
1.77332e-09
3.97468e-10
0
0
2.69801e-09
0
0
0
0
5.20498e-09
5.01883e-09
4.32935e-09
5.18221e-09
5.63533e-09
3.22172e-09
6.18616e-10
0
0
0
0
0
6.46942e-10
3.38534e-09
5.5248e-09
7.5592e-09
9.45517e-09
9.369e-09
0
0
0
0
0
0
0
2.93787e-08
1.7717e-08
3.82973e-10
0
0
1.75965e-09
2.06911e-09
2.23303e-09
3.58985e-09
1.56025e-09
5.69997e-10
7.33133e-10
5.00203e-09
4.11867e-09
9.37768e-09
7.8824e-09
3.74152e-08
3.64796e-08
8.26642e-08
1.73184e-08
7.83766e-13
7.56109e-12
0
0
1.4006e-11
5.34812e-11
7.9967e-11
7.64977e-11
7.96209e-11
1.51283e-10
3.34876e-10
6.30871e-10
9.09352e-10
8.93355e-10
4.69618e-10
8.37204e-11
4.12118e-11
3.37387e-10
9.03654e-10
1.79149e-09
3.90618e-09
5.06113e-09
2.11063e-09
0
0
0
0
0
0
1.12457e-09
2.97728e-09
2.93315e-08
1.24159e-07
2.3404e-07
3.15957e-07
3.05866e-07
2.99087e-07
2.48252e-07
7.73656e-08
9.57518e-09
5.28369e-09
5.10558e-09
4.64241e-09
4.14249e-09
3.01339e-09
1.98768e-09
2.10373e-09
1.11746e-09
0
0
2.54736e-09
7.93923e-10
0
0
0
4.27128e-09
4.83468e-09
4.26603e-09
5.18579e-09
6.05504e-09
3.84721e-09
9.68275e-10
0
0
0
0
0
0
2.36496e-09
4.24462e-09
5.87695e-09
7.46903e-09
7.47603e-09
0
0
0
0
0
0
0
8.41652e-09
1.06586e-08
7.75175e-10
0
6.88306e-10
3.33765e-09
3.32076e-09
2.82461e-09
3.96859e-09
2.11987e-09
7.69597e-10
3.5931e-10
4.61728e-09
3.86034e-09
9.63401e-09
7.40318e-09
3.80981e-08
3.1367e-08
1.00165e-07
1.04316e-07
2.68533e-11
4.16417e-11
0
0
0
1.61089e-11
4.62644e-11
5.58005e-11
6.7531e-11
1.29259e-10
2.77932e-10
5.11552e-10
7.27014e-10
7.06325e-10
3.26929e-10
1.22702e-11
6.86539e-11
4.53032e-10
1.05333e-09
1.93505e-09
3.83492e-09
5.64014e-09
4.18873e-09
0
0
0
0
0
0
2.75687e-10
2.29864e-09
3.18624e-08
1.24972e-07
2.3312e-07
3.1272e-07
2.98494e-07
2.99132e-07
2.54678e-07
6.95057e-08
8.63136e-09
6.65491e-09
6.22197e-09
5.48538e-09
4.84212e-09
3.67945e-09
2.41264e-09
2.38053e-09
1.80502e-09
0
0
2.09864e-09
2.28746e-09
0
0
0
2.71047e-09
4.57772e-09
4.21233e-09
5.18177e-09
6.39315e-09
4.53131e-09
1.42168e-09
0
0
0
0
0
0
1.31339e-09
2.91091e-09
4.12595e-09
5.39815e-09
5.51489e-09
0
0
0
0
0
0
0
0
3.14084e-09
1.02082e-09
2.48404e-10
2.72951e-09
4.96564e-09
4.66412e-09
3.50565e-09
4.32368e-09
2.69917e-09
1.03463e-09
2.64388e-11
4.19831e-09
3.5649e-09
9.84355e-09
6.45345e-09
3.81821e-08
2.78402e-08
1.09033e-07
1.659e-07
3.83299e-11
6.25039e-11
0
0
0
2.54173e-12
2.82046e-11
4.27953e-11
5.91525e-11
1.14304e-10
2.39852e-10
4.3042e-10
5.94223e-10
5.47224e-10
1.95911e-10
0
1.1784e-10
6.03174e-10
1.23138e-09
2.09352e-09
3.57945e-09
6.05184e-09
5.58625e-09
0
0
0
0
0
0
0
1.65913e-09
3.38686e-08
1.24995e-07
2.32206e-07
3.07639e-07
2.89912e-07
2.98435e-07
2.59998e-07
5.90266e-08
8.10884e-09
8.00061e-09
7.30931e-09
6.32364e-09
5.52518e-09
4.34817e-09
2.87789e-09
2.62169e-09
2.4207e-09
0
0
1.44342e-09
3.31898e-09
0
0
0
3.04354e-10
4.20181e-09
4.16104e-09
5.17174e-09
6.64308e-09
5.24153e-09
1.98933e-09
0
0
0
0
0
0
2.30362e-10
1.52952e-09
2.32231e-09
3.25316e-09
3.49065e-09
0
0
0
0
0
0
0
0
0
1.17482e-09
2.74535e-09
4.87724e-09
6.63693e-09
6.08228e-09
4.28068e-09
4.66439e-09
3.27403e-09
1.37004e-09
0
3.74819e-09
3.19986e-09
9.94046e-09
5.04929e-09
3.75202e-08
2.78827e-08
1.10617e-07
1.88796e-07
4.01683e-11
7.74562e-11
0
0
0
7.00721e-13
2.24383e-11
3.90257e-11
5.85783e-11
1.11246e-10
2.24404e-10
3.87299e-10
5.04154e-10
4.07581e-10
6.30663e-11
0
2.00956e-10
7.92764e-10
1.44006e-09
2.24488e-09
3.38791e-09
6.15526e-09
6.46604e-09
2.09179e-09
0
0
0
0
0
0
1.09197e-09
3.52684e-08
1.2425e-07
2.31266e-07
3.00324e-07
2.80535e-07
2.97142e-07
2.63888e-07
4.62171e-08
8.14151e-09
9.29562e-09
8.35774e-09
7.1537e-09
6.18467e-09
5.00777e-09
3.38467e-09
2.84956e-09
2.93461e-09
6.45539e-10
0
6.99499e-10
3.81317e-09
0
0
0
0
3.63738e-09
4.09128e-09
5.15806e-09
6.80843e-09
5.93345e-09
2.67419e-09
0
0
0
0
0
0
0
1.11319e-10
4.89942e-10
1.06005e-09
1.41407e-09
0
0
0
0
0
0
0
0
0
1.30135e-09
5.31597e-09
7.1165e-09
8.34352e-09
7.5523e-09
5.15113e-09
5.00403e-09
3.8189e-09
1.77729e-09
0
3.27212e-09
2.73889e-09
9.8578e-09
3.41364e-09
3.59055e-08
3.10429e-08
1.05806e-07
1.73748e-07
3.70169e-11
8.45285e-11
0
0
0
3.38418e-12
2.37387e-11
4.22505e-11
6.51459e-11
1.18563e-10
2.24459e-10
3.64755e-10
4.3464e-10
2.68335e-10
0
0
3.35336e-10
1.02702e-09
1.6764e-09
2.37954e-09
3.29766e-09
5.91371e-09
7.02889e-09
4.47403e-09
0
0
0
0
0
0
6.04596e-10
3.5929e-08
1.2285e-07
2.30111e-07
2.911e-07
2.70784e-07
2.95457e-07
2.65419e-07
3.19619e-08
8.75182e-09
1.0514e-08
9.35645e-09
7.97209e-09
6.8267e-09
5.64296e-09
3.92963e-09
3.08729e-09
3.3326e-09
1.47199e-09
0
0
3.78593e-09
2.54578e-11
0
0
0
2.71301e-09
3.98972e-09
5.14001e-09
6.89853e-09
6.56019e-09
3.46379e-09
0
0
0
0
0
0
0
0
0
0
0
3.13563e-10
0
0
0
0
0
0
0
0
1.48039e-09
7.93613e-09
9.42821e-09
1.00791e-08
9.04915e-09
6.11471e-09
5.35755e-09
4.31007e-09
2.25174e-09
0
2.77699e-09
2.16481e-09
9.54413e-09
1.88903e-09
3.31188e-08
3.54063e-08
9.42342e-08
1.36603e-07
3.19977e-11
8.60988e-11
3.18202e-13
0
0
7.5941e-12
2.83021e-11
4.94962e-11
7.64783e-11
1.3268e-10
2.32294e-10
3.48793e-10
3.61354e-10
1.05174e-10
0
0
5.42826e-10
1.30726e-09
1.93261e-09
2.49788e-09
3.23944e-09
5.30742e-09
7.36773e-09
6.03112e-09
0
0
0
0
0
0
1.81354e-10
3.57113e-08
1.20699e-07
2.28427e-07
2.80103e-07
2.60961e-07
2.93425e-07
2.63071e-07
1.79353e-08
9.84993e-09
1.16415e-08
1.02987e-08
8.77354e-09
7.44949e-09
6.24427e-09
4.5058e-09
3.35593e-09
3.61805e-09
2.31059e-09
0
0
3.30687e-09
2.09663e-09
0
0
0
1.11656e-09
3.85483e-09
5.11944e-09