/*--------------------------------*- C++ -*----------------------------------*\
  =========                 |
  \\      /  F ield         | OpenFOAM: The Open Source CFD Toolbox
   \\    /   O peration     | Website:  https://openfoam.org
    \\  /    A nd           | Version:  7
     \\/     M anipulation  |
\*---------------------------------------------------------------------------*/
FoamFile
{
    version     2.0;
    format      ascii;
    class       volScalarField;
    location    "0.43";
    object      p;
}
// * * * * * * * * * * * * * * * * * * * * * * * * * * * * * * * * * * * * * //

dimensions      [0 2 -2 0 0 0 0];

internalField   nonuniform List<scalar> 
70000
(
0.126194
0.0493079
0.0361691
0.0386313
0.0389054
0.0378749
0.0369346
0.0362258
0.0356395
0.0351257
0.0346703
0.0342655
0.0339034
0.0335776
0.0332823
0.0330131
0.0327663
0.0325387
0.0323276
0.0321309
0.0319464
0.0317725
0.0316076
0.0314504
0.0312994
0.0311536
0.0310116
0.0308725
0.0307351
0.0305983
0.030461
0.0303223
0.0301809
0.0300357
0.0298859
0.02973
0.0295675
0.0293971
0.0292184
0.0290314
0.0288356
0.0286351
0.0284268
0.0282292
0.0280256
0.027883
0.0277256
0.0277979
0.0277512
0.0286561
0.121894
0.0496699
0.0363717
0.0387259
0.0389598
0.0379107
0.0369625
0.0362488
0.0356588
0.0351422
0.0346847
0.0342781
0.0339147
0.0335877
0.0332915
0.0330216
0.0327741
0.0325459
0.0323343
0.0321371
0.0319522
0.0317779
0.0316127
0.0314552
0.031304
0.0311578
0.0310157
0.0308763
0.0307387
0.0306017
0.0304643
0.0303253
0.0301838
0.0300385
0.0298884
0.0297324
0.0295697
0.0293991
0.0292202
0.029033
0.028837
0.0286362
0.0284276
0.0282297
0.0280258
0.0278829
0.027725
0.0277959
0.0277556
0.0286599
0.118288
0.0505923
0.0367162
0.0388545
0.0390345
0.0379556
0.0369948
0.036275
0.0356806
0.0351606
0.0347006
0.0342921
0.0339271
0.0335989
0.0333016
0.0330308
0.0327825
0.0325536
0.0323415
0.0321438
0.0319585
0.0317838
0.0316183
0.0314604
0.0313089
0.0311625
0.0310201
0.0308805
0.0307426
0.0306055
0.0304679
0.0303287
0.030187
0.0300415
0.0298913
0.0297351
0.0295722
0.0294015
0.0292224
0.029035
0.0288388
0.0286377
0.0284287
0.0282305
0.0280258
0.0278822
0.0277232
0.0277905
0.0277681
0.0286155
0.115184
0.0516914
0.0371926
0.0390271
0.0391357
0.0380136
0.037033
0.0363049
0.0357052
0.0351811
0.034718
0.0343072
0.0339405
0.0336108
0.0333123
0.0330405
0.0327914
0.0325618
0.0323491
0.0321508
0.0319651
0.03179
0.0316241
0.0314659
0.031314
0.0311674
0.0310247
0.0308849
0.0307469
0.0306095
0.0304717
0.0303324
0.0301905
0.0300449
0.0298946
0.0297383
0.0295752
0.0294043
0.0292251
0.0290375
0.028841
0.0286397
0.0284303
0.0282314
0.0280259
0.0278807
0.0277206
0.0277792
0.0277812
0.0285158
0.112227
0.0527851
0.0377661
0.0392454
0.0392703
0.0380921
0.0370822
0.036342
0.0357353
0.0352058
0.0347387
0.0343249
0.0339559
0.0336244
0.0333245
0.0330515
0.0328014
0.032571
0.0323576
0.0321587
0.0319724
0.0317969
0.0316305
0.0314719
0.0313198
0.0311729
0.0310299
0.0308899
0.0307516
0.0306141
0.0304761
0.0303367
0.0301947
0.0300489
0.0298985
0.0297421
0.0295789
0.0294079
0.0292286
0.0290409
0.0288442
0.0286425
0.0284327
0.028233
0.0280265
0.0278786
0.0277171
0.0277615
0.0277852
0.0283688
0.10932
0.0538171
0.03839
0.0394899
0.0394326
0.0381928
0.0371448
0.0363884
0.0357728
0.0352365
0.0347641
0.0343464
0.0339745
0.0336407
0.033339
0.0330645
0.0328132
0.0325818
0.0323675
0.0321678
0.0319809
0.0318048
0.031638
0.031479
0.0313265
0.0311792
0.031036
0.0308957
0.0307573
0.0306195
0.0304814
0.0303418
0.0301997
0.0300539
0.0299034
0.0297469
0.0295837
0.0294127
0.0292334
0.0290456
0.0288487
0.0286468
0.0284365
0.0282358
0.028028
0.0278761
0.0277131
0.0277373
0.0277726
0.0281768
0.106454
0.0547703
0.0390309
0.0397394
0.039609
0.0383108
0.03722
0.0364442
0.035818
0.0352737
0.034795
0.0343726
0.0339971
0.0336605
0.0333566
0.0330802
0.0328274
0.0325947
0.0323793
0.0321788
0.031991
0.0318143
0.0316469
0.0314874
0.0313345
0.0311868
0.0310433
0.0309028
0.0307641
0.0306261
0.0304879
0.0303482
0.030206
0.0300602
0.0299097
0.0297532
0.0295901
0.0294192
0.0292398
0.0290521
0.0288552
0.0286531
0.0284423
0.0282405
0.0280312
0.0278739
0.0277085
0.0277063
0.0277379
0.0279457
0.10364
0.0556381
0.0396726
0.0399823
0.0397889
0.0384396
0.0373042
0.0365072
0.0358699
0.0353169
0.0348312
0.0344034
0.0340238
0.033684
0.0333774
0.0330989
0.0328443
0.0326101
0.0323934
0.0321918
0.0320032
0.0318256
0.0316576
0.0314975
0.0313441
0.031196
0.0310521
0.0309113
0.0307724
0.0306343
0.0304959
0.0303561
0.0302139
0.0300681
0.0299177
0.0297614
0.0295984
0.0294276
0.0292485
0.029061
0.0288642
0.028662
0.0284508
0.0282475
0.0280366
0.0278725
0.0277033
0.027669
0.0276781
0.0276802
0.100883
0.0564181
0.0403097
0.0402146
0.0399659
0.0385743
0.0373942
0.0365749
0.0359264
0.0353646
0.0348717
0.0344383
0.0340542
0.0337109
0.0334015
0.0331206
0.032864
0.0326281
0.03241
0.0322072
0.0320175
0.0318391
0.0316702
0.0315095
0.0313555
0.031207
0.0310627
0.0309216
0.0307824
0.0306442
0.0305057
0.0303659
0.0302237
0.030078
0.0299277
0.0297717
0.029609
0.0294386
0.0292598
0.0290727
0.0288761
0.0286739
0.0284624
0.0282576
0.0280448
0.0278724
0.0276976
0.0276258
0.027592
0.027388
0.0981868
0.0571094
0.0409407
0.0404362
0.0401371
0.0387121
0.0374877
0.0366452
0.0359855
0.0354153
0.0349152
0.034476
0.0340875
0.0337406
0.0334282
0.0331448
0.0328861
0.0326484
0.0324288
0.0322247
0.0320339
0.0318545
0.0316848
0.0315234
0.0313688
0.0312198
0.0310752
0.0309337
0.0307944
0.0306559
0.0305174
0.0303777
0.0302356
0.0300901
0.02994
0.0297844
0.0296221
0.0294522
0.029274
0.0290874
0.0288913
0.0286893
0.0284777
0.0282711
0.0280563
0.0278744
0.0276912
0.0275775
0.0274815
0.0270781
0.0955548
0.0577123
0.0415647
0.0406481
0.0403012
0.0388515
0.0375839
0.0367171
0.0360462
0.0354678
0.0349606
0.0345157
0.0341227
0.0337722
0.0334568
0.033171
0.0329102
0.0326707
0.0324495
0.0322441
0.0320521
0.0318718
0.0317013
0.0315391
0.031384
0.0312345
0.0310894
0.0309477
0.0308081
0.0306696
0.0305311
0.0303914
0.0302495
0.0301043
0.0299547
0.0297995
0.0296379
0.0294687
0.0292912
0.0291055
0.02891
0.0287084
0.0284969
0.0282883
0.0280712
0.0278788
0.0276842
0.0275253
0.0273512
0.0267606
0.0929899
0.0582274
0.0421801
0.0408515
0.0404572
0.0389916
0.0376823
0.0367901
0.0361078
0.0355214
0.0350072
0.0345566
0.0341593
0.0338052
0.0334869
0.0331986
0.0329356
0.0326944
0.0324717
0.0322649
0.0320719
0.0318905
0.0317192
0.0315564
0.0314006
0.0312507
0.0311053
0.0309633
0.0308236
0.030685
0.0305465
0.030407
0.0302655
0.0301207
0.0299716
0.0298171
0.0296562
0.029488
0.0293115
0.0291267
0.0289322
0.0287312
0.0285199
0.0283094
0.0280897
0.0278859
0.0276768
0.0274705
0.0272075
0.0264459
0.090495
0.0586551
0.0427847
0.0410477
0.0406045
0.0391315
0.0377828
0.036864
0.03617
0.0355758
0.0350546
0.0345985
0.0341967
0.0338391
0.0335179
0.0332271
0.0329622
0.0327191
0.0324949
0.0322869
0.0320927
0.0319104
0.0317383
0.0315748
0.0314185
0.0312681
0.0311224
0.0309802
0.0308404
0.0307019
0.0305636
0.0304243
0.0302831
0.0301389
0.0299905
0.0298368
0.0296769
0.0295098
0.0293345
0.029151
0.0289577
0.0287574
0.0285465
0.028334
0.0281115
0.0278959
0.0276693
0.0274147
0.0270575
0.0261445
0.0880725
0.0589966
0.0433756
0.0412383
0.0407426
0.0392704
0.0378852
0.0369389
0.0362327
0.0356308
0.0351029
0.034641
0.0342348
0.0338737
0.0335496
0.0332564
0.0329894
0.0327446
0.0325189
0.0323096
0.0321144
0.0319312
0.0317583
0.0315941
0.0314373
0.0312866
0.0311406
0.0309982
0.0308584
0.03072
0.0305819
0.030443
0.0303023
0.0301587
0.0300111
0.0298584
0.0296996
0.0295338
0.0293599
0.0291778
0.028986
0.0287866
0.0285763
0.028362
0.0281362
0.0279086
0.027662
0.0273596
0.0269085
0.0258656
0.0857248
0.0592531
0.0439498
0.0414248
0.0408712
0.0394074
0.0379894
0.0370146
0.0362958
0.0356863
0.0351517
0.0346842
0.0342735
0.0339089
0.0335819
0.0332863
0.0330172
0.0327707
0.0325436
0.032333
0.0321366
0.0319525
0.0317789
0.0316142
0.0314569
0.0313058
0.0311596
0.0310171
0.0308773
0.030739
0.0306012
0.0304628
0.0303227
0.0301798
0.0300331
0.0298815
0.029724
0.0295597
0.0293873
0.0292069
0.0290167
0.0288184
0.0286089
0.0283928
0.0281634
0.0279238
0.0276557
0.0273068
0.0267668
0.0256167
0.083454
0.0594264
0.0445041
0.0416087
0.0409901
0.0395414
0.0380952
0.0370914
0.0363591
0.0357424
0.0352012
0.034728
0.0343128
0.0339446
0.0336147
0.0333167
0.0330456
0.0327973
0.0325687
0.0323569
0.0321595
0.0319745
0.0318001
0.0316348
0.0314771
0.0313256
0.0311792
0.0310367
0.0308969
0.0307589
0.0306214
0.0304835
0.030344
0.030202
0.0300563
0.0299059
0.0297498
0.0295871
0.0294165
0.0292379
0.0290495
0.0288525
0.0286438
0.0284261
0.0281929
0.0279415
0.027651
0.0272581
0.0266377
0.0254031
0.0812616
0.0595187
0.0450354
0.0417912
0.0410994
0.0396715
0.0382022
0.0371691
0.0364228
0.0357987
0.0352512
0.0347724
0.0343526
0.0339809
0.0336481
0.0333476
0.0330744
0.0328244
0.0325943
0.0323812
0.0321828
0.0319969
0.0318218
0.0316559
0.0314977
0.031346
0.0311994
0.0310569
0.0309172
0.0307794
0.0306423
0.0305049
0.0303662
0.0302251
0.0300805
0.0299315
0.0297769
0.0296159
0.0294472
0.0292705
0.0290841
0.0288884
0.0286806
0.0284615
0.0282243
0.0279615
0.0276486
0.0272152
0.0265252
0.0252282
0.0791487
0.0595327
0.0455406
0.0419735
0.0411992
0.0397966
0.0383102
0.0372478
0.0364866
0.0358554
0.0353017
0.0348173
0.034393
0.0340176
0.0336819
0.033379
0.0331037
0.032852
0.0326204
0.032406
0.0322065
0.0320198
0.031844
0.0316775
0.0315189
0.0313668
0.0312201
0.0310776
0.030938
0.0308005
0.0306638
0.0305271
0.0303891
0.030249
0.0301056
0.029958
0.029805
0.0296458
0.0294792
0.0293045
0.0291202
0.0289261
0.0287192
0.0284988
0.0282576
0.027984
0.0276496
0.0271797
0.0264322
0.0250935
0.0771163
0.0594715
0.0460165
0.0421563
0.0412899
0.0399158
0.0384185
0.0373274
0.0365506
0.0359123
0.0353527
0.0348627
0.0344338
0.0340549
0.0337162
0.0334108
0.0331335
0.03288
0.0326469
0.0324313
0.0322307
0.0320431
0.0318666
0.0316995
0.0315405
0.0313882
0.0312413
0.0310988
0.0309594
0.0308222
0.030686
0.0305499
0.0304128
0.0302737
0.0301316
0.0299855
0.0298342
0.0296769
0.0295123
0.0293399
0.0291577
0.0289653
0.0287595
0.028538
0.0282928
0.0280091
0.0276548
0.0271531
0.0263605
0.0249992
0.0751645
0.059339
0.0464604
0.04234
0.0413721
0.0400282
0.0385266
0.0374081
0.0366147
0.0359692
0.0354041
0.0349086
0.0344752
0.0340926
0.033751
0.0334431
0.0331637
0.0329084
0.0326739
0.032457
0.0322554
0.0320669
0.0318896
0.031722
0.0315626
0.03141
0.0312631
0.0311205
0.0309814
0.0308445
0.0307088
0.0305734
0.0304372
0.0302992
0.0301584
0.0300138
0.0298643
0.0297091
0.0295467
0.0293765
0.0291966
0.029006
0.0288014
0.0285792
0.0283303
0.0280374
0.0276651
0.0271369
0.0263112
0.0249451
0.0732934
0.0591391
0.0468692
0.0425247
0.0414464
0.0401329
0.0386339
0.0374896
0.0366789
0.0360262
0.0354557
0.034955
0.034517
0.0341308
0.0337862
0.0334759
0.0331944
0.0329374
0.0327013
0.0324831
0.0322805
0.0320911
0.0319131
0.031745
0.0315852
0.0314324
0.0312853
0.0311428
0.0310039
0.0308673
0.0307322
0.0305976
0.0304623
0.0303255
0.0301861
0.0300431
0.0298955
0.0297423
0.0295823
0.0294145
0.029237
0.0290483
0.028845
0.0286223
0.0283701
0.0280692
0.0276815
0.0271322
0.0262853
0.0249302
0.0715025
0.0588765
0.0472406
0.0427101
0.0415138
0.0402293
0.0387397
0.0375719
0.0367432
0.036083
0.0355076
0.0350017
0.0345592
0.0341693
0.0338219
0.0335091
0.0332255
0.0329667
0.0327292
0.0325098
0.032306
0.0321158
0.0319371
0.0317684
0.0316082
0.0314552
0.031308
0.0311656
0.0310269
0.0308908
0.0307563
0.0306224
0.0304882
0.0303526
0.0302146
0.0300733
0.0299277
0.0297767
0.0296191
0.0294538
0.0292788
0.0290923
0.0288905
0.0286677
0.0284128
0.0281051
0.027705
0.0271402
0.026283
0.0249533
0.0697908
0.0585561
0.047572
0.0428955
0.0415751
0.040317
0.038843
0.0376548
0.0368076
0.0361396
0.0355595
0.0350488
0.0346018
0.0342083
0.0338579
0.0335428
0.0332571
0.0329966
0.0327575
0.0325368
0.032332
0.0321409
0.0319616
0.0317924
0.0316318
0.0314785
0.0313313
0.031189
0.0310506
0.0309149
0.030781
0.030648
0.0305148
0.0303804
0.030244
0.0301045
0.029961
0.0298123
0.0296572
0.0294945
0.0293222
0.0291381
0.028938
0.0287155
0.0284586
0.0281456
0.0277364
0.0271618
0.0263048
0.0250124
0.068157
0.0581831
0.0478615
0.0430798
0.0416314
0.0403956
0.0389431
0.037738
0.036872
0.0361959
0.0356115
0.0350962
0.0346448
0.0342477
0.0338944
0.0335768
0.0332891
0.0330268
0.0327862
0.0325643
0.0323585
0.0321665
0.0319865
0.0318168
0.0316558
0.0315024
0.0313551
0.0312129
0.0310748
0.0309396
0.0308064
0.0306743
0.0305422
0.0304092
0.0302744
0.0301368
0.0299953
0.029849
0.0296966
0.0295367
0.0293673
0.0291857
0.0289876
0.028766
0.028508
0.0281915
0.0277763
0.0271978
0.0263504
0.0251054
0.0665996
0.0577629
0.0481075
0.0432615
0.0416836
0.0404649
0.0390391
0.0378212
0.0369365
0.0362518
0.0356633
0.0351438
0.034688
0.0342874
0.0339312
0.0336112
0.0333215
0.0330575
0.0328154
0.0325922
0.0323854
0.0321926
0.0320119
0.0318416
0.0316804
0.0315267
0.0313795
0.0312375
0.0310996
0.030965
0.0308325
0.0307013
0.0305703
0.0304388
0.0303057
0.03017
0.0300308
0.0298871
0.0297374
0.0295805
0.029414
0.0292353
0.0290396
0.0288194
0.0285613
0.0282431
0.0278257
0.0272489
0.0264198
0.0252307
0.0651166
0.0573013
0.0483085
0.0434387
0.0417328
0.0405252
0.0391301
0.037904
0.0370011
0.0363073
0.0357149
0.0351915
0.0347316
0.0343274
0.0339684
0.033646
0.0333543
0.0330885
0.032845
0.0326206
0.0324127
0.0322191
0.0320377
0.031867
0.0317054
0.0315516
0.0314044
0.0312626
0.0311251
0.030991
0.0308593
0.0307291
0.0305994
0.0304693
0.0303379
0.0302043
0.0300675
0.0299264
0.0297797
0.0296258
0.0294627
0.0292871
0.0290942
0.028876
0.028619
0.0283012
0.0278849
0.0273155
0.0265124
0.0253869
0.0637057
0.0568038
0.048464
0.0436092
0.0417799
0.0405766
0.0392153
0.0379859
0.0370657
0.0363623
0.035766
0.0352391
0.0347754
0.0343676
0.0340058
0.0336812
0.0333874
0.03312
0.032875
0.0326494
0.0324405
0.032246
0.032064
0.0318929
0.031731
0.031577
0.0314298
0.0312882
0.0311512
0.0310177
0.0308868
0.0307576
0.0306292
0.0305007
0.0303712
0.0302398
0.0301054
0.0299671
0.0298234
0.0296729
0.0295132
0.0293411
0.0291514
0.0289361
0.0286815
0.0283661
0.0279547
0.0273979
0.0266272
0.0255722
0.0623645
0.0562762
0.0485735
0.0437707
0.0418256
0.0406196
0.0392939
0.0380662
0.0371302
0.0364167
0.0358167
0.0352867
0.0348193
0.0344081
0.0340435
0.0337166
0.0334209
0.0331518
0.0329054
0.0326786
0.0324687
0.0322734
0.0320908
0.0319192
0.031757
0.031603
0.0314559
0.0313145
0.0311779
0.0310451
0.0309151
0.030787
0.03066
0.0305331
0.0304056
0.0302764
0.0301446
0.0300092
0.0298688
0.0297217
0.0295658
0.0293975
0.0292116
0.029
0.0287491
0.0284384
0.0280353
0.0274962
0.0267637
0.025784
0.0610903
0.055724
0.0486374
0.0439205
0.0418705
0.0406548
0.0393653
0.0381444
0.0371944
0.0364706
0.0358667
0.0353341
0.0348632
0.0344487
0.0340814
0.0337523
0.0334548
0.033184
0.0329362
0.0327082
0.0324974
0.0323013
0.0321181
0.031946
0.0317836
0.0316295
0.0314825
0.0313414
0.0312053
0.0310732
0.0309441
0.0308172
0.0306916
0.0305665
0.030441
0.0303141
0.0301851
0.0300527
0.0299157
0.0297724
0.0296205
0.0294564
0.0292749
0.0290678
0.0288221
0.0285183
0.028127
0.0276103
0.026921
0.0260202
0.0598802
0.0551526
0.0486564
0.0440561
0.0419146
0.040683
0.039429
0.0382198
0.0372582
0.0365238
0.035916
0.035381
0.0349072
0.0344895
0.0341195
0.0337882
0.0334888
0.0332165
0.0329673
0.0327382
0.0325264
0.0323296
0.0321458
0.0319734
0.0318107
0.0316566
0.0315097
0.031369
0.0312334
0.031102
0.0309739
0.0308483
0.0307242
0.0306009
0.0304775
0.0303531
0.0302269
0.0300978
0.0299644
0.029825
0.0296774
0.029518
0.0293415
0.02914
0.0289009
0.0286063
0.02823
0.02774
0.0270982
0.026279
0.0587312
0.0545669
0.0486319
0.044175
0.041958
0.040705
0.0394847
0.0382916
0.0373212
0.0365764
0.0359644
0.0354275
0.034951
0.0345303
0.0341577
0.0338243
0.0335232
0.0332493
0.0329988
0.0327686
0.0325558
0.0323583
0.032174
0.0320012
0.0318383
0.0316842
0.0315374
0.0313971
0.0312621
0.0311315
0.0310045
0.0308801
0.0307577
0.0306362
0.0305151
0.0303933
0.0302701
0.0301444
0.0300148
0.0298797
0.0297367
0.0295824
0.0294116
0.0292166
0.0289857
0.0287026
0.0283444
0.0278846
0.0272945
0.0265586
0.0576404
0.0539717
0.0485658
0.044275
0.0420002
0.0407214
0.0395321
0.0383591
0.0373831
0.0366283
0.0360119
0.0354733
0.0349945
0.0345711
0.034196
0.0338606
0.0335577
0.0332823
0.0330306
0.0327993
0.0325857
0.0323874
0.0322026
0.0320294
0.0318664
0.0317123
0.0315658
0.0314259
0.0312915
0.0311618
0.0310359
0.0309129
0.0307921
0.0306727
0.0305538
0.0304348
0.0303147
0.0301925
0.0300669
0.0299363
0.0297984
0.0296497
0.0294853
0.0292979
0.0290768
0.0288072
0.02847
0.0280437
0.0275081
0.0268566
0.0566045
0.053371
0.0484602
0.0443544
0.0420402
0.0407331
0.0395714
0.0384216
0.0374435
0.0366794
0.0360584
0.0355183
0.0350377
0.0346118
0.0342343
0.0338969
0.0335924
0.0333156
0.0330627
0.0328303
0.0326159
0.032417
0.0322316
0.0320582
0.0318951
0.031741
0.0315947
0.0314553
0.0313216
0.0311928
0.0310681
0.0309465
0.0308275
0.0307101
0.0305938
0.0304776
0.0303608
0.0302423
0.030121
0.0299951
0.0298626
0.02972
0.0295627
0.029384
0.0291741
0.0289203
0.0286066
0.0282167
0.0277377
0.0271704
0.0556206
0.0527686
0.048318
0.0444116
0.0420769
0.0407407
0.0396026
0.0384784
0.0375019
0.0367296
0.0361038
0.0355624
0.0350804
0.0346523
0.0342725
0.0339333
0.0336272
0.0333491
0.033095
0.0328616
0.0326464
0.0324469
0.0322611
0.0320874
0.0319242
0.0317702
0.0316243
0.0314853
0.0313524
0.0312246
0.0311011
0.0309811
0.0308638
0.0307487
0.0306349
0.0305217
0.0304083
0.0302938
0.0301769
0.0300561
0.0299293
0.0297934
0.0296441
0.0294751
0.0292779
0.0290418
0.0287539
0.0284027
0.0279817
0.027498
0.0546857
0.0521677
0.0481422
0.0444453
0.0421091
0.0407446
0.0396262
0.0385291
0.0375578
0.0367786
0.0361481
0.0356054
0.0351224
0.0346925
0.0343106
0.0339696
0.0336621
0.0333827
0.0331275
0.0328932
0.0326772
0.0324771
0.032291
0.032117
0.0319538
0.0318
0.0316544
0.031516
0.0313838
0.0312571
0.0311349
0.0310165
0.0309012
0.0307884
0.0306772
0.0305672
0.0304574
0.0303469
0.0302348
0.0301194
0.0299988
0.0298701
0.0297294
0.0295712
0.0293882
0.0291714
0.0289116
0.0286008
0.0282384
0.027837
0.0537967
0.0515712
0.047936
0.0444548
0.0421351
0.0407452
0.0396425
0.0385732
0.0376105
0.0368264
0.0361912
0.0356472
0.0351637
0.0347322
0.0343486
0.0340058
0.033697
0.0334164
0.0331602
0.032925
0.0327083
0.0325077
0.0323212
0.0321471
0.0319838
0.0318302
0.031685
0.0315473
0.031416
0.0312903
0.0311695
0.0310528
0.0309395
0.0308291
0.0307208
0.030614
0.0305079
0.0304018
0.0302946
0.0301849
0.0300709
0.02995
0.0298188
0.0296723
0.0295048
0.0293091
0.0290789
0.0288099
0.0285064
0.0281852
0.0529508
0.0509814
0.0477029
0.0444398
0.0421535
0.0407426
0.0396521
0.0386104
0.0376595
0.0368726
0.036233
0.0356878
0.0352039
0.0347715
0.0343862
0.0340419
0.0337318
0.0334502
0.033193
0.0329571
0.0327397
0.0325386
0.0323518
0.0321775
0.0320144
0.031861
0.0317163
0.0315792
0.0314488
0.0313243
0.0312049
0.03109
0.0309789
0.0308709
0.0307655
0.0306621
0.03056
0.0304584
0.0303564
0.0302527
0.0301458
0.0300332
0.0299121
0.0297784
0.0296275
0.0294543
0.0292551
0.0290292
0.028784
0.0285402
0.0521453
0.0504002
0.0474461
0.0444002
0.0421627
0.0407367
0.0396554
0.0386405
0.0377043
0.0369168
0.0362734
0.0357269
0.0352431
0.03481
0.0344234
0.0340777
0.0337664
0.0334839
0.0332258
0.0329892
0.0327713
0.0325698
0.0323827
0.0322084
0.0320453
0.0318922
0.031748
0.0316117
0.0314823
0.031359
0.0312412
0.0311281
0.0310192
0.0309139
0.0308115
0.0307116
0.0306136
0.0305167
0.0304202
0.0303229
0.0302234
0.0301197
0.0300095
0.0298894
0.0297563
0.0296067
0.0294394
0.0292568
0.0290693
0.0288998
0.0513776
0.0498291
0.0471691
0.0443365
0.0421612
0.0407271
0.0396529
0.0386635
0.0377443
0.0369587
0.0363122
0.0357646
0.035281
0.0348477
0.0344601
0.0341132
0.0338009
0.0335175
0.0332587
0.0330215
0.032803
0.0326012
0.0324139
0.0322396
0.0320767
0.031924
0.0317803
0.0316447
0.0315164
0.0313945
0.0312782
0.0311671
0.0310605
0.0309579
0.0308587
0.0307625
0.0306688
0.0305768
0.030486
0.0303953
0.0303037
0.0302095
0.0301107
0.0300052
0.0298907
0.0297656
0.0296309
0.0294915
0.0293603
0.0292617
0.0506452
0.0492693
0.046875
0.0442497
0.0421478
0.0407134
0.039645
0.0386795
0.037779
0.0369978
0.0363494
0.0358006
0.0353175
0.0348844
0.0344961
0.0341483
0.0338351
0.0335509
0.0332916
0.0330538
0.0328349
0.0326328
0.0324454
0.0322711
0.0321084
0.0319561
0.0318131
0.0316784
0.0315512
0.0314306
0.0313161
0.031207
0.0311028
0.031003
0.0309071
0.0308148
0.0307254
0.0306386
0.0305538
0.0304701
0.0303867
0.0303023
0.0302157
0.0301254
0.0300303
0.0299305
0.0298287
0.029732
0.0296552
0.0296235
0.0499459
0.0487217
0.0465669
0.0441407
0.0421214
0.0406948
0.039632
0.0386886
0.0378081
0.0370337
0.0363846
0.035835
0.0353526
0.03492
0.0345314
0.0341829
0.0338689
0.0335841
0.0333243
0.033086
0.0328669
0.0326645
0.0324771
0.0323029
0.0321405
0.0319887
0.0318464
0.0317126
0.0315865
0.0314674
0.0313547
0.0312477
0.031146
0.0310492
0.0309567
0.0308683
0.0307836
0.0307021
0.0306234
0.030547
0.0304723
0.0303983
0.0303243
0.0302498
0.0301747
0.0301005
0.0300316
0.0299767
0.0299521
0.029983
0.0492775
0.0481868
0.0462474
0.0440109
0.0420813
0.0406707
0.0396141
0.0386911
0.0378313
0.037066
0.0364176
0.0358676
0.0353859
0.0349543
0.0345658
0.0342168
0.0339023
0.033617
0.0333568
0.0331182
0.0328988
0.0326964
0.032509
0.032335
0.0321729
0.0320217
0.0318801
0.0317473
0.0316225
0.0315049
0.031394
0.0312893
0.0311902
0.0310963
0.0310074
0.0309231
0.0308432
0.0307672
0.030695
0.0306261
0.0305603
0.0304971
0.0304362
0.0303779
0.0303232
0.0302748
0.0302384
0.0302241
0.030249
0.0303381
0.048638
0.0476651
0.0459192
0.043862
0.042027
0.0406401
0.0395914
0.0386873
0.0378484
0.0370942
0.0364481
0.0358982
0.0354175
0.0349871
0.0345992
0.03425
0.0339351
0.0336495
0.033389
0.0331503
0.0329308
0.0327283
0.032541
0.0323672
0.0322056
0.032055
0.0319142
0.0317825
0.031659
0.0315431
0.0314341
0.0313316
0.0312352
0.0311445
0.0310593
0.0309792
0.0309041
0.0308339
0.0307683
0.0307073
0.0306507
0.0305985
0.0305512
0.0305094
0.0304753
0.0304525
0.030448
0.0304726
0.0305441
0.0306867
0.0480256
0.0471567
0.0455844
0.0436956
0.0419582
0.0406024
0.0395639
0.0386774
0.0378593
0.037118
0.0364758
0.0359268
0.0354473
0.0350183
0.0346313
0.0342823
0.0339672
0.0336815
0.0334209
0.0331821
0.0329626
0.0327602
0.032573
0.0323996
0.0322385
0.0320886
0.0319487
0.0318181
0.031696
0.0315818
0.0314748
0.0313747
0.0312811
0.0311936
0.0311121
0.0310364
0.0309664
0.030902
0.0308433
0.0307903
0.0307431
0.0307024
0.0306687
0.0306437
0.0306302
0.0306327
0.030659
0.0307207
0.0308355
0.0310267
0.0474385
0.0466616
0.0452452
0.0435135
0.0418751
0.0405568
0.0395312
0.0386615
0.037864
0.0371369
0.0365004
0.035953
0.035475
0.0350478
0.0346621
0.0343136
0.0339986
0.0337129
0.0334524
0.0332136
0.0329942
0.0327919
0.0326051
0.0324321
0.0322716
0.0321224
0.0319835
0.0318541
0.0317335
0.031621
0.0315161
0.0314185
0.0313277
0.0312436
0.031166
0.0310948
0.0310299
0.0309715
0.0309198
0.030875
0.0308375
0.0308083
0.0307885
0.0307803
0.0307871
0.0308143
0.0308702
0.0309668
0.0311214
0.0313562
0.0468753
0.0461798
0.0449031
0.0433174
0.041778
0.0405026
0.0394932
0.03864
0.0378625
0.0371507
0.0365215
0.0359767
0.0355005
0.0350754
0.0346914
0.0343437
0.0340291
0.0337436
0.0334833
0.0332447
0.0330255
0.0328236
0.0326371
0.0324646
0.0323048
0.0321564
0.0320186
0.0318905
0.0317714
0.0316607
0.031558
0.0314629
0.0313751
0.0312944
0.0312207
0.0311541
0.0310945
0.0310423
0.0309977
0.0309612
0.0309335
0.0309159
0.03091
0.0309184
0.0309452
0.0309962
0.0310803
0.0312092
0.0314
0.0316734
0.0463343
0.0457111
0.0445597
0.0431092
0.0416672
0.0404393
0.0394495
0.0386129
0.037855
0.0371593
0.0365388
0.0359977
0.0355238
0.035101
0.0347189
0.0343726
0.0340586
0.0337735
0.0335135
0.0332754
0.0330565
0.032855
0.032669
0.0324971
0.032338
0.0321906
0.0320539
0.0319271
0.0318096
0.0317009
0.0316004
0.0315079
0.0314231
0.0313459
0.0312763
0.0312143
0.0311601
0.0311141
0.0310767
0.0310486
0.0310308
0.0310248
0.0310327
0.0310575
0.0311036
0.0311774
0.0312877
0.0314465
0.0316697
0.0319768
0.0458143
0.0452553
0.0442163
0.0428904
0.0415436
0.0403667
0.0393998
0.0385803
0.0378414
0.0371623
0.036552
0.0360157
0.0355447
0.0351245
0.0347447
0.0343999
0.034087
0.0338025
0.033543
0.0333054
0.0330871
0.032886
0.0327007
0.0325295
0.0323712
0.0322248
0.0320893
0.0319639
0.0318481
0.0317413
0.0316432
0.0315533
0.0314717
0.031398
0.0313325
0.0312752
0.0312265
0.0311868
0.0311566
0.031137
0.0311291
0.0311346
0.031156
0.0311966
0.0312614
0.0313566
0.0314913
0.0316771
0.031929
0.0322646
0.0453139
0.044812
0.043874
0.0426627
0.0414078
0.0402845
0.0393437
0.0385422
0.037822
0.0371599
0.0365608
0.0360304
0.0355629
0.0351456
0.0347684
0.0344257
0.034114
0.0338304
0.0335717
0.0333347
0.033117
0.0329167
0.032732
0.0325616
0.0324043
0.0322589
0.0321247
0.0320009
0.0318868
0.0317821
0.0316863
0.0315992
0.0315206
0.0314506
0.0313893
0.0313368
0.0312935
0.0312601
0.0312372
0.031226
0.0312278
0.0312447
0.0312793
0.0313352
0.0314175
0.0315327
0.0316898
0.0318996
0.0321762
0.0325356
0.0448321
0.044381
0.0435336
0.0424276
0.0412608
0.0401927
0.0392808
0.0384984
0.0377968
0.0371518
0.0365649
0.0360416
0.0355783
0.0351643
0.0347901
0.0344496
0.0341396
0.0338572
0.0335994
0.0333632
0.0331464
0.0329468
0.032763
0.0325935
0.0324372
0.032293
0.0321601
0.0320378
0.0319256
0.031823
0.0317296
0.0316453
0.0315699
0.0315036
0.0314464
0.0313987
0.031361
0.0313338
0.0313182
0.0313153
0.0313267
0.0313545
0.0314018
0.0314723
0.0315711
0.0317047
0.0318817
0.0321126
0.0324101
0.0327885
0.0443678
0.0439619
0.0431959
0.0421864
0.0411036
0.0400914
0.0392111
0.038449
0.0377659
0.0371381
0.0365642
0.0360491
0.0355907
0.0351804
0.0348094
0.0344716
0.0341636
0.0338826
0.0336259
0.0333908
0.0331749
0.0329763
0.0327934
0.0326249
0.0324697
0.0323268
0.0321954
0.0320747
0.0319644
0.0318639
0.031773
0.0316915
0.0316194
0.0315568
0.0315038
0.0314609
0.0314286
0.0314077
0.0313992
0.0314044
0.0314251
0.0314636
0.031523
0.0316071
0.0317211
0.0318713
0.032066
0.0323148
0.0326295
0.0330226
0.0439199
0.0435544
0.0428616
0.0419403
0.0409371
0.0399809
0.0391341
0.0383938
0.0377293
0.0371187
0.0365585
0.0360525
0.0355998
0.0351938
0.0348264
0.0344915
0.0341858
0.0339065
0.0336513
0.0334174
0.0332026
0.033005
0.0328232
0.0326559
0.0325019
0.0323603
0.0322304
0.0321115
0.0320031
0.0319048
0.0318164
0.0317378
0.0316689
0.03161
0.0315612
0.0315231
0.0314962
0.0314814
0.0314798
0.0314929
0.0315226
0.0315712
0.031642
0.0317387
0.0318665
0.0320315
0.0322414
0.032505
0.0328331
0.0332367
0.0434875
0.0431581
0.0425311
0.0416904
0.0407623
0.0398616
0.03905
0.0383327
0.0376872
0.0370938
0.0365478
0.0360516
0.0356055
0.0352043
0.0348407
0.0345092
0.0342061
0.0339289
0.0336752
0.0334427
0.0332292
0.0330329
0.0328523
0.0326862
0.0325335
0.0323934
0.0322651
0.0321479
0.0320415
0.0319455
0.0318596
0.0317839
0.0317183
0.031663
0.0316184
0.0315849
0.0315634
0.0315546
0.0315598
0.0315805
0.0316187
0.0316768
0.0317581
0.0318663
0.0320064
0.0321842
0.0324068
0.0326823
0.0330201
0.03343
0.0430698
0.0427727
0.0422048
0.0414378
0.0405801
0.0397339
0.0389586
0.0382656
0.0376394
0.0370634
0.0365319
0.0360464
0.0356076
0.0352116
0.0348524
0.0345244
0.0342243
0.0339494
0.0336976
0.0334667
0.0332547
0.0330598
0.0328805
0.0327158
0.0325645
0.0324259
0.0322992
0.0321839
0.0320795
0.0319858
0.0319025
0.0318296
0.0317673
0.0317156
0.0316751
0.0316463
0.0316299
0.0316269
0.0316385
0.0316665
0.0317127
0.0317796
0.0318705
0.031989
0.0321399
0.0323285
0.0325614
0.0328456
0.0331895
0.0336011
0.0426659
0.0423977
0.0418832
0.0411833
0.0403916
0.0395983
0.03886
0.0381924
0.0375861
0.0370275
0.0365107
0.0360366
0.0356058
0.0352157
0.0348611
0.0345371
0.0342402
0.033968
0.0337183
0.0334893
0.0332789
0.0330855
0.0329078
0.0327445
0.0325947
0.0324577
0.0323327
0.0322193
0.032117
0.0320256
0.0319449
0.0318749
0.0318157
0.0317677
0.0317312
0.0317068
0.0316954
0.0316979
0.0317157
0.0317504
0.031804
0.031879
0.0319785
0.032106
0.032266
0.0324634
0.0327041
0.0329943
0.0333412
0.0337514
0.0422751
0.0420328
0.0415663
0.0409278
0.0401976
0.0394555
0.0387544
0.0381131
0.0375271
0.036986
0.0364844
0.0360221
0.0356
0.0352163
0.0348668
0.0345471
0.0342538
0.0339844
0.0337372
0.0335102
0.0333016
0.03311
0.0329338
0.0327721
0.032624
0.0324887
0.0323655
0.032254
0.0321538
0.0320647
0.0319865
0.0319194
0.0318634
0.0318188
0.0317862
0.0317662
0.0317595
0.0317673
0.0317908
0.0318318
0.0318921
0.0319744
0.0320813
0.0322165
0.0323839
0.032588
0.0328341
0.0331276
0.0334745
0.0338801
0.0418968
0.0416776
0.0412545
0.0406718
0.0399989
0.0393059
0.038642
0.0380276
0.0374625
0.0369392
0.0364527
0.0360028
0.03559
0.0352133
0.0348693
0.0345542
0.0342647
0.0339986
0.0337541
0.0335293
0.0333228
0.033133
0.0329586
0.0327986
0.0326522
0.0325186
0.0323973
0.0322877
0.0321897
0.0321029
0.0320273
0.0319629
0.03191
0.0318689
0.03184
0.031824
0.0318218
0.0318345
0.0318633
0.03191
0.0319764
0.0320649
0.0321782
0.0323196
0.0324927
0.0327016
0.0329509
0.033245
0.033589
0.0339872
0.0415303
0.0413319
0.0409478
0.040416
0.0397963
0.0391503
0.0385231
0.0379362
0.0373924
0.0368869
0.0364159
0.0359786
0.0355757
0.0352065
0.0348685
0.0345583
0.034273
0.0340104
0.0337687
0.0335465
0.0333422
0.0331544
0.0329819
0.0328237
0.0326791
0.0325473
0.0324279
0.0323204
0.0322245
0.03214
0.0320669
0.0320053
0.0319553
0.0319175
0.0318921
0.03188
0.031882
0.0318992
0.0319328
0.0319845
0.0320562
0.03215
0.0322685
0.0324147
0.0325919
0.0328036
0.0330537
0.0333461
0.0336847
0.0340728
0.0411749
0.0409952
0.0406464
0.040161
0.0395905
0.0389892
0.0383981
0.0378388
0.0373167
0.0368293
0.0363738
0.0359495
0.0355569
0.0351958
0.0348641
0.0345592
0.0342784
0.0340195
0.0337811
0.0335616
0.0333596
0.033174
0.0330035
0.0328473
0.0327046
0.0325747
0.0324573
0.0323518
0.032258
0.0321758
0.0321051
0.0320462
0.0319991
0.0319643
0.0319423
0.0319338
0.0319396
0.0319608
0.0319987
0.0320548
0.0321309
0.032229
0.0323515
0.0325011
0.0326806
0.0328932
0.0331421
0.0334305
0.0337614
0.0341373
0.0408301
0.0406672
0.0403503
0.0399071
0.0393823
0.0388232
0.0382673
0.0377356
0.0372355
0.0367664
0.0363265
0.0359154
0.0355336
0.035181
0.0348561
0.0345568
0.0342807
0.0340259