/*--------------------------------*- C++ -*----------------------------------*\
  =========                 |
  \\      /  F ield         | OpenFOAM: The Open Source CFD Toolbox
   \\    /   O peration     | Website:  https://openfoam.org
    \\  /    A nd           | Version:  7
     \\/     M anipulation  |
\*---------------------------------------------------------------------------*/
FoamFile
{
    version     2.0;
    format      ascii;
    class       surfaceScalarField;
    location    "0.43";
    object      phi;
}
// * * * * * * * * * * * * * * * * * * * * * * * * * * * * * * * * * * * * * //

dimensions      [0 3 -1 0 0 0 0];

internalField   nonuniform List<scalar> 
139350
(
6.45923e-08
9.20392e-08
3.19508e-08
3.26415e-08
2.306e-08
8.89084e-09
1.95664e-08
3.4936e-09
1.76158e-08
1.95058e-09
1.61898e-08
1.42595e-09
1.50588e-08
1.13101e-09
1.41472e-08
9.11637e-10
1.33973e-08
7.49866e-10
1.2766e-08
6.31256e-10
1.22246e-08
5.41479e-10
1.17535e-08
4.71045e-10
1.13392e-08
4.14328e-10
1.09714e-08
3.67795e-10
1.06424e-08
3.29038e-10
1.0346e-08
2.96335e-10
1.00776e-08
2.68424e-10
9.83324e-09
2.44358e-10
9.60982e-09
2.23415e-10
9.40479e-09
2.05038e-10
9.216e-09
1.88788e-10
9.04168e-09
1.74315e-10
8.88035e-09
1.61338e-10
8.73072e-09
1.49625e-10
8.59173e-09
1.3899e-10
8.46246e-09
1.2927e-10
8.34213e-09
1.20333e-10
8.23006e-09
1.12065e-10
8.1257e-09
1.04363e-10
8.02855e-09
9.71468e-11
7.93822e-09
9.03281e-11
7.85437e-09
8.38543e-11
7.77673e-09
7.76361e-11
7.70507e-09
7.1658e-11
7.63927e-09
6.57998e-11
7.57916e-09
6.01154e-11
7.52475e-09
5.44082e-11
7.4759e-09
4.88547e-11
7.43275e-09
4.31507e-11
7.39513e-09
3.76141e-11
7.36317e-09
3.19659e-11
7.33678e-09
2.63825e-11
7.31522e-09
2.15612e-11
7.29939e-09
1.58306e-11
7.28421e-09
1.51867e-11
7.27579e-09
8.41773e-12
7.24878e-09
2.70079e-11
7.24724e-09
1.53573e-12
6.99288e-09
2.54365e-10
-2.99611e-09
9.98898e-09
1.26025e-07
1.27457e-07
9.12628e-08
6.74042e-08
7.19424e-08
2.82112e-08
6.12173e-08
1.42187e-08
5.47744e-08
8.39352e-09
5.02851e-08
5.91519e-09
4.68066e-08
4.60955e-09
4.39972e-08
3.72109e-09
4.16774e-08
3.06958e-09
3.97227e-08
2.58599e-09
3.80458e-08
2.21835e-09
3.65868e-08
1.93007e-09
3.5303e-08
1.69813e-09
3.41629e-08
1.50788e-09
3.31425e-08
1.34943e-09
3.22232e-08
1.21571e-09
3.139e-08
1.10158e-09
3.06312e-08
1.00316e-09
2.99371e-08
9.17523e-10
2.92998e-08
8.42382e-10
2.87126e-08
7.7595e-10
2.81701e-08
7.16803e-10
2.76677e-08
6.63793e-10
2.72013e-08
6.1598e-10
2.67677e-08
5.72597e-10
2.6364e-08
5.32992e-10
2.59877e-08
4.96623e-10
2.56367e-08
4.63027e-10
2.53093e-08
4.31795e-10
2.50038e-08
4.02588e-10
2.47191e-08
3.75077e-10
2.44539e-08
3.49016e-10
2.42075e-08
3.24096e-10
2.3979e-08
3.00184e-10
2.37679e-08
2.76898e-10
2.35737e-08
2.54308e-10
2.33963e-08
2.31796e-10
2.32353e-08
2.0986e-10
2.30911e-08
1.87352e-10
2.2963e-08
1.65667e-10
2.28523e-08
1.42652e-10
2.27573e-08
1.21407e-10
2.26804e-08
9.84474e-11
2.2617e-08
7.92598e-11
2.25708e-08
6.13345e-11
2.25307e-08
4.85352e-11
2.24921e-08
6.56339e-11
2.24679e-08
2.57355e-11
2.22145e-08
5.07794e-10
-3.04768e-09
2.2266e-08
1.58807e-07
1.35054e-07
1.36494e-07
8.97173e-08
1.17493e-07
4.72119e-08
1.03318e-07
2.8394e-08
9.33155e-08
1.83958e-08
8.60202e-08
1.32105e-08
8.03227e-08
1.0307e-08
7.56812e-08
8.36252e-09
7.18135e-08
6.9373e-09
6.85325e-08
5.86698e-09
6.5705e-08
5.04583e-09
6.32363e-08
4.39879e-09
6.10578e-08
3.8766e-09
5.91185e-08
3.4472e-09
5.73792e-08
3.08876e-09
5.58092e-08
2.78571e-09
5.43841e-08
2.52663e-09
5.30844e-08
2.30293e-09
5.18938e-08
2.10806e-09
5.07993e-08
1.93693e-09
4.97897e-08
1.78552e-09
4.88559e-08
1.65064e-09
4.799e-08
1.52972e-09
4.71853e-08
1.42064e-09
4.64362e-08
1.32167e-09
4.57379e-08
1.23134e-09
4.50861e-08
1.14844e-09
4.44772e-08
1.07192e-09
4.39081e-08
1.00086e-09
4.33762e-08
9.345e-10
4.28791e-08
8.72109e-10
4.2415e-08
8.13113e-10
4.19823e-08
7.56869e-10
4.15794e-08
7.03008e-10
4.12056e-08
6.50792e-10
4.08596e-08
6.00217e-10
4.05413e-08
5.50107e-10
4.02499e-08
5.01329e-10
3.99857e-08
4.51484e-10
3.97477e-08
4.03658e-10
3.95381e-08
3.52325e-10
3.93533e-08
3.06202e-10
3.91993e-08
2.52392e-10
3.90657e-08
2.1294e-10
3.89666e-08
1.60394e-10
3.88732e-08
1.41884e-10
3.88082e-08
1.30714e-10
3.87372e-08
9.67426e-11
3.85645e-08
6.80413e-10
-2.15423e-09
3.76711e-08
1.75664e-07
1.30906e-07
1.65594e-07
9.97871e-08
1.52723e-07
6.00829e-08
1.40126e-07
4.09911e-08
1.29441e-07
2.90806e-08
1.20805e-07
2.18463e-08
1.13703e-07
1.74091e-08
1.07734e-07
1.43312e-08
1.02648e-07
1.20241e-08
9.82603e-08
1.02543e-08
9.44327e-08
8.87344e-09
9.10592e-08
7.77232e-09
8.80599e-08
6.87592e-09
8.53733e-08
6.13372e-09
8.29514e-08
5.51067e-09
8.07557e-08
4.98141e-09
7.87552e-08
4.52715e-09
7.69245e-08
4.13361e-09
7.52428e-08
3.7898e-09
7.36926e-08
3.48714e-09
7.22593e-08
3.21881e-09
7.09306e-08
2.97937e-09
6.96959e-08
2.76439e-09
6.85463e-08
2.57024e-09
6.7474e-08
2.39393e-09
6.64725e-08
2.23292e-09
6.55358e-08
2.08511e-09
6.46591e-08
1.94866e-09
6.38379e-08
1.82199e-09
6.30687e-08
1.70376e-09
6.23481e-08
1.59272e-09
6.16733e-08
1.48784e-09
6.10422e-08
1.38805e-09
6.04525e-08
1.29264e-09
5.99029e-08
1.20045e-09
5.93918e-08
1.11131e-09
5.89185e-08
1.02341e-09
5.84819e-08
9.37944e-10
5.80823e-08
8.5107e-10
5.77181e-08
7.67825e-10
5.73919e-08
6.78557e-10
5.70992e-08
5.98845e-10
5.68476e-08
5.04018e-10
5.66242e-08
4.36389e-10
5.64466e-08
3.37972e-10
5.62824e-08
3.06069e-10
5.61571e-08
2.55973e-10
5.6031e-08
2.22843e-10
5.58427e-08
8.68731e-10
-1.16812e-09
5.48566e-08
1.8456e-07
1.23132e-07
1.8232e-07
1.02027e-07
1.76101e-07
6.63018e-08
1.67759e-07
4.93334e-08
1.59139e-07
3.77007e-08
1.51236e-07
2.97496e-08
1.44172e-07
2.44728e-08
1.37884e-07
2.06189e-08
1.32298e-07
1.76101e-08
1.27329e-07
1.5223e-08
1.22892e-07
1.33107e-08
1.1891e-07
1.17548e-08
1.15317e-07
1.04683e-08
1.12061e-07
9.38964e-09
1.09097e-07
8.4748e-09
1.06388e-07
7.69101e-09
1.03901e-07
7.0134e-09
1.01612e-07
6.42275e-09
9.94981e-08
5.90402e-09
9.75399e-08
5.44527e-09
9.57217e-08
5.03698e-09
9.40297e-08
4.67138e-09
9.24519e-08
4.34218e-09
9.09781e-08
4.04412e-09
8.95991e-08
3.77286e-09
8.83073e-08
3.52471e-09
8.70959e-08
3.29657e-09
8.59588e-08
3.08573e-09
8.48909e-08
2.88988e-09
8.38877e-08
2.70698e-09
8.29452e-08
2.53522e-09
8.206e-08
2.37303e-09
8.12292e-08
2.21887e-09
8.04503e-08
2.07159e-09
7.97211e-08
1.92958e-09
7.904e-08
1.79241e-09
7.84058e-08
1.65764e-09
7.7817e-08
1.52671e-09
7.72738e-08
1.39431e-09
7.67743e-08
1.26734e-09
7.63208e-08
1.13208e-09
7.59089e-08
1.01066e-09
7.55456e-08
8.67328e-10
7.52194e-08
7.62667e-10
7.49443e-08
6.12983e-10
7.46963e-08
5.54132e-10
7.44845e-08
4.67747e-10
7.42934e-08
4.13905e-10
7.40319e-08
1.13031e-09
-2.07129e-10
7.30709e-08
1.90388e-07
1.1496e-07
1.91851e-07
1.00564e-07
1.90242e-07
6.79108e-08
1.86151e-07
5.34245e-08
1.80713e-07
4.31385e-08
1.74962e-07
3.55007e-08
1.69272e-07
3.01629e-08
1.63798e-07
2.60929e-08
1.58636e-07
2.27721e-08
1.53828e-07
2.00311e-08
1.49376e-07
1.77624e-08
1.45264e-07
1.58668e-08
1.41467e-07
1.42647e-08
1.3796e-07
1.2897e-08
1.34716e-07
1.17193e-08
1.31709e-07
1.06972e-08
1.28919e-07
9.80375e-09
1.26324e-07
9.0176e-09
1.23907e-07
8.3215e-09
1.21651e-07
7.70151e-09
1.19541e-07
7.14624e-09
1.17566e-07
6.64632e-09
1.15714e-07
6.19398e-09
1.13976e-07
5.78269e-09
1.12342e-07
5.40698e-09
1.10804e-07
5.06217e-09
1.09357e-07
4.74426e-09
1.07993e-07
4.44977e-09
1.06707e-07
4.17567e-09
1.05495e-07
3.91929e-09
1.04351e-07
3.67825e-09
1.03274e-07
3.45045e-09
1.02259e-07
3.23387e-09
1.01304e-07
3.02693e-09
1.00406e-07
2.82756e-09
9.95631e-08
2.63503e-09
9.87744e-08
2.4463e-09
9.80382e-08
2.26293e-09
9.73542e-08
2.07836e-09
9.67206e-08
1.90088e-09
9.61392e-08
1.71352e-09
9.56065e-08
1.54336e-09
9.51272e-08
1.34658e-09
9.46938e-08
1.19614e-09
9.43131e-08
9.93688e-10
9.39741e-08
8.93123e-10
9.36653e-08
7.76558e-10
9.33931e-08
6.86046e-10
9.30609e-08
1.46253e-09
7.60122e-10
9.20936e-08
1.9554e-07
1.07234e-07
1.98246e-07
9.78582e-08
1.98966e-07
6.71908e-08
1.97784e-07
5.46064e-08
1.95152e-07
4.57714e-08
1.9181e-07
3.88417e-08
1.88082e-07
3.38915e-08
1.84138e-07
3.00369e-08
1.80128e-07
2.67821e-08
1.76162e-07
2.39972e-08
1.72308e-07
2.16165e-08
1.68604e-07
1.95705e-08
1.65071e-07
1.77981e-08
1.61716e-07
1.62519e-08
1.5854e-07
1.48951e-08
1.55539e-07
1.36981e-08
1.52706e-07
1.26368e-08
1.50033e-07
1.16911e-08
1.4751e-07
1.08444e-08
1.45128e-07
1.0083e-08
1.42879e-07
9.39503e-09
1.40755e-07
8.77088e-09
1.38747e-07
8.20223e-09
1.36847e-07
7.68201e-09
1.3505e-07
7.20417e-09
1.33349e-07
6.76346e-09
1.31738e-07
6.35536e-09
1.30212e-07
5.97585e-09
1.28766e-07
5.62143e-09
1.27396e-07
5.28894e-09
1.26099e-07
4.97558e-09
1.24871e-07
4.67881e-09
1.23708e-07
4.39622e-09
1.22609e-07
4.12583e-09
1.21572e-07
3.8652e-09
1.20593e-07
3.61331e-09
1.19673e-07
3.36661e-09
1.18809e-07
3.12664e-09
1.18002e-07
2.88592e-09
1.17249e-07
2.65357e-09
1.16552e-07
2.41047e-09
1.15909e-07
2.18655e-09
1.15322e-07
1.9338e-09
1.14787e-07
1.73056e-09
1.14305e-07
1.47578e-09
1.13876e-07
1.32196e-09
1.13475e-07
1.17815e-09
1.13113e-07
1.0482e-09
1.12723e-07
1.85215e-09
1.71463e-09
1.11769e-07
2.00848e-07
9.99712e-08
2.03775e-07
9.49311e-08
2.05325e-07
6.56409e-08
2.05639e-07
5.42925e-08
2.04811e-07
4.65997e-08
2.03328e-07
4.0324e-08
2.01381e-07
3.58385e-08
1.99054e-07
3.23637e-08
1.96454e-07
2.93826e-08
1.93683e-07
2.67685e-08
1.90821e-07
2.4478e-08
1.8793e-07
2.24619e-08
1.85053e-07
2.06752e-08
1.82222e-07
1.90829e-08
1.79459e-07
1.76582e-08
1.76778e-07
1.63787e-08
1.74189e-07
1.52258e-08
1.71697e-07
1.41835e-08
1.69303e-07
1.32381e-08
1.67008e-07
1.23777e-08
1.64811e-07
1.15921e-08
1.62709e-07
1.08724e-08
1.60701e-07
1.0211e-08
1.58782e-07
9.60105e-09
1.56949e-07
9.03675e-09
1.552e-07
8.51289e-09
1.5353e-07
8.02488e-09
1.51937e-07
7.56862e-09
1.50418e-07
7.14044e-09
1.4897e-07
6.73701e-09
1.47591e-07
6.35531e-09
1.46277e-07
5.99258e-09
1.45027e-07
5.64617e-09
1.43839e-07
5.31385e-09
1.42711e-07
4.99292e-09
1.41642e-07
4.68209e-09
1.40631e-07
4.37752e-09
1.39677e-07
4.0806e-09
1.3878e-07
3.78329e-09
1.37939e-07
3.49502e-09
1.37153e-07
3.19562e-09
1.36424e-07
2.91592e-09
1.35751e-07
2.60728e-09
1.35134e-07
2.34731e-09
1.34568e-07
2.04188e-09
1.34061e-07
1.82839e-09
1.33583e-07
1.65686e-09
1.33138e-07
1.49265e-09
1.32703e-07
2.28697e-09
2.61297e-09
1.31805e-07
2.06447e-07
9.30566e-08
2.09338e-07
9.20393e-08
2.11035e-07
6.39448e-08
2.11927e-07
5.34003e-08
2.11994e-07
4.65326e-08
2.11606e-07
4.07121e-08
2.10875e-07
3.6569e-08
2.09806e-07
3.34331e-08
2.08436e-07
3.07529e-08
2.06823e-07
2.8381e-08
2.05024e-07
2.62767e-08
2.03089e-07
2.43978e-08
2.01058e-07
2.27057e-08
1.98968e-07
2.11724e-08
1.96849e-07
1.97773e-08
1.94724e-07
1.8504e-08
1.92611e-07
1.73391e-08
1.90524e-07
1.62706e-08
1.88473e-07
1.52883e-08
1.86468e-07
1.43831e-08
1.84513e-07
1.35469e-08
1.82613e-07
1.27726e-08
1.8077e-07
1.20539e-08
1.78986e-07
1.13851e-08
1.77262e-07
1.0761e-08
1.75598e-07
1.01771e-08
1.73993e-07
9.62916e-09
1.72449e-07
9.11344e-09
1.70963e-07
8.62647e-09
1.69535e-07
8.16505e-09
1.68164e-07
7.72623e-09
1.66849e-07
7.30723e-09
1.6559e-07
6.90541e-09
1.64385e-07
6.51842e-09
1.63235e-07
6.14349e-09
1.62138e-07
5.77917e-09
1.61094e-07
5.42146e-09
1.60103e-07
5.07163e-09
1.59164e-07
4.72137e-09
1.58279e-07
4.38001e-09
1.57448e-07
4.02734e-09
1.5667e-07
3.69343e-09
1.55946e-07
3.33191e-09
1.55278e-07
3.01504e-09
1.54658e-07
2.66217e-09
1.54098e-07
2.38784e-09
1.53568e-07
2.18683e-09
1.53065e-07
1.99598e-09
1.52604e-07
2.7474e-09
3.41615e-09
1.51801e-07
2.12289e-07
8.64304e-08
2.15151e-07
8.91767e-08
2.16789e-07
6.23071e-08
2.17839e-07
5.235e-08
2.18252e-07
4.61194e-08
2.18366e-07
4.0598e-08
2.18289e-07
3.66464e-08
2.17989e-07
3.37328e-08
2.1746e-07
3.12818e-08
2.16721e-07
2.91202e-08
2.15796e-07
2.72016e-08
2.14711e-07
2.54832e-08
2.13491e-07
2.39257e-08
2.12162e-07
2.25016e-08
2.10747e-07
2.11921e-08
2.09268e-07
1.99834e-08
2.07742e-07
1.88643e-08
2.06187e-07
1.78256e-08
2.04616e-07
1.68594e-08
2.03041e-07
1.59588e-08
2.0147e-07
1.51178e-08
1.99911e-07
1.43309e-08
1.98372e-07
1.35932e-08
1.96857e-07
1.29001e-08
1.9537e-07
1.22476e-08
1.93915e-07
1.1632e-08
1.92495e-07
1.10496e-08
1.91111e-07
1.04974e-08
1.89765e-07
9.97223e-09
1.88459e-07
9.47134e-09
1.87193e-07
8.99206e-09
1.85969e-07
8.53179e-09
1.84786e-07
8.08805e-09
1.83646e-07
7.65857e-09
1.82549e-07
7.24063e-09
1.81495e-07
6.83278e-09
1.80486e-07
6.43096e-09
1.79521e-07
6.03639e-09
1.78601e-07
5.64072e-09
1.77728e-07
5.25296e-09
1.76902e-07
4.85355e-09
1.76125e-07
4.47067e-09
1.75395e-07
4.06226e-09
1.74717e-07
3.69222e-09
1.74083e-07
3.2969e-09
1.73505e-07
2.96528e-09
1.72959e-07
2.73337e-09
1.72431e-07
2.52336e-09
1.71974e-07
3.20443e-09
4.09173e-09
1.71299e-07
2.1833e-07
8.00814e-08
2.21205e-07
8.63015e-08
2.22761e-07
6.07505e-08
2.23838e-07
5.12729e-08
2.24361e-07
4.55968e-08
2.24653e-07
4.03063e-08
2.24851e-07
3.64481e-08
2.24929e-07
3.3655e-08
2.24864e-07
3.13462e-08
2.24658e-07
2.93264e-08
2.24315e-07
2.75447e-08
2.23842e-07
2.59565e-08
2.23247e-07
2.45203e-08
2.22543e-07
2.32061e-08
2.21741e-07
2.19938e-08
2.20855e-07
2.08691e-08
2.19899e-07
1.98212e-08
2.18883e-07
1.88414e-08
2.17819e-07
1.79227e-08
2.16719e-07
1.70593e-08
2.15591e-07
1.62459e-08
2.14443e-07
1.54783e-08
2.13284e-07
1.47525e-08
2.12119e-07
1.40648e-08
2.10955e-07
1.3412e-08
2.09796e-07
1.27911e-08
2.08646e-07
1.21992e-08
2.0751e-07
1.16337e-08
2.0639e-07
1.1092e-08
2.0529e-07
1.05717e-08
2.04211e-07
1.00706e-08
2.03157e-07
9.58631e-09
2.02128e-07
9.11665e-09
2.01127e-07
8.65952e-09
2.00156e-07
8.21232e-09
1.99215e-07
7.77372e-09
1.98306e-07
7.3397e-09
1.97431e-07
6.91145e-09
1.96591e-07
6.4808e-09
1.95788e-07
6.05621e-09
1.95022e-07
5.61938e-09
1.94297e-07
5.19572e-09
1.9361e-07
4.74887e-09
1.9297e-07
4.33266e-09
1.92365e-07
3.90156e-09
1.9181e-07
3.51998e-09
1.91287e-07
3.25682e-09
1.90777e-07
3.03369e-09
1.90357e-07
3.62355e-09
4.61305e-09
1.89836e-07
2.24558e-07
7.40162e-08
2.27469e-07
8.33909e-08
2.28958e-07
5.92615e-08
2.3004e-07
5.01907e-08
2.30604e-07
4.5033e-08
2.30944e-07
3.99659e-08
2.31232e-07
3.61604e-08
2.31458e-07
3.34295e-08
2.31601e-07
3.12026e-08
2.31661e-07
2.92662e-08
2.31638e-07
2.75683e-08
2.31529e-07
2.60655e-08
2.31334e-07
2.47148e-08
2.31056e-07
2.34842e-08
2.30698e-07
2.23518e-08
2.30265e-07
2.13021e-08
2.29763e-07
2.03231e-08
2.29199e-07
1.94058e-08
2.28579e-07
1.85427e-08
2.2791e-07
1.7728e-08
2.27199e-07
1.69568e-08
2.26453e-07
1.62248e-08
2.25677e-07
1.55285e-08
2.24877e-07
1.48647e-08
2.24059e-07
1.42305e-08
2.23226e-07
1.36232e-08
2.22385e-07
1.30405e-08
2.21539e-07
1.248e-08
2.20691e-07
1.19396e-08
2.19846e-07
1.14172e-08
2.19005e-07
1.09108e-08
2.18173e-07
1.04184e-08
2.17352e-07
9.93802e-09
2.16544e-07
9.46772e-09
2.15751e-07
9.00506e-09
2.14976e-07
8.54887e-09
2.1422e-07
8.09519e-09
2.13487e-07
7.64521e-09
2.12776e-07
7.19106e-09
2.12092e-07
6.74048e-09
2.11435e-07
6.27684e-09
2.10808e-07
5.82224e-09
2.1021e-07
5.34666e-09
2.0965e-07
4.89342e-09
2.09117e-07
4.43416e-09
2.08625e-07
4.01224e-09
2.08163e-07
3.71872e-09
2.0771e-07
3.48619e-09
2.07363e-07
3.97061e-09
4.96124e-09
2.07015e-07
2.30979e-07
6.8243e-08
2.33933e-07
8.04365e-08
2.35363e-07
5.78317e-08
2.36452e-07
4.91024e-08
2.37049e-07
4.44357e-08
2.37404e-07
3.96103e-08
2.37714e-07
3.58513e-08
2.37985e-07
3.31583e-08
2.38204e-07
3.09835e-08
2.38373e-07
2.90972e-08
2.38494e-07
2.7447e-08
2.38566e-07
2.59935e-08
2.38586e-07
2.46946e-08
2.38553e-07
2.35174e-08
2.38466e-07
2.2439e-08
2.38325e-07
2.14429e-08
2.38132e-07
2.05163e-08
2.37888e-07
1.96493e-08
2.37597e-07
1.8834e-08
2.37261e-07
1.8064e-08
2.36884e-07
1.7334e-08
2.36469e-07
1.66396e-08
2.3602e-07
1.59772e-08
2.35542e-07
1.53434e-08
2.35037e-07
1.47356e-08
2.34509e-07
1.4151e-08
2.33962e-07
1.35874e-08
2.33399e-07
1.30426e-08
2.32824e-07
1.25146e-08
2.3224e-07
1.20014e-08
2.3165e-07
1.15013e-08
2.31056e-07
1.10124e-08
2.30461e-07
1.05327e-08
2.29868e-07
1.00607e-08
2.29279e-07
9.59384e-09
2.28697e-07
9.13114e-09
2.28123e-07
8.66871e-09
2.27561e-07
8.20766e-09
2.27012e-07
7.74053e-09
2.26478e-07
7.27416e-09
2.25961e-07
6.79386e-09
2.25465e-07
6.31809e-09
2.24988e-07
5.82327e-09
2.24539e-07
5.34266e-09
2.24111e-07
4.86275e-09
2.23712e-07
4.41065e-09
2.23342e-07
4.08853e-09
2.22981e-07
3.8474e-09
2.22734e-07
4.21805e-09
5.12836e-09
2.22567e-07
2.376e-07
6.27676e-08
2.40601e-07
7.74358e-08
2.41974e-07
5.64591e-08
2.43067e-07
4.80093e-08
2.43701e-07
4.38013e-08
2.4407e-07
3.92414e-08
2.44384e-07
3.55368e-08
2.44668e-07
3.28747e-08
2.4491e-07
3.07418e-08
2.45115e-07
2.88918e-08
2.45291e-07
2.72715e-08
2.45437e-07
2.58468e-08
2.45554e-07
2.45778e-08
2.4564e-07
2.34317e-08
2.45693e-07
2.23856e-08
2.45713e-07
2.14228e-08
2.45699e-07
2.05302e-08
2.45651e-07
1.96973e-08
2.4557e-07
1.89159e-08
2.45454e-07
1.81791e-08
2.45307e-07
1.74812e-08
2.45129e-07
1.68176e-08
2.44922e-07
1.61843e-08
2.44688e-07
1.55779e-08
2.44428e-07
1.49954e-08
2.44145e-07
1.4434e-08
2.43841e-07
1.38914e-08
2.43518e-07
1.33653e-08
2.43179e-07
1.28537e-08
2.42826e-07
1.23546e-08
2.42461e-07
1.18663e-08
2.42086e-07
1.13869e-08
2.41704e-07
1.09146e-08
2.41317e-07
1.04477e-08
2.40927e-07
9.98394e-09
2.40536e-07
9.52218e-09
2.40146e-07
9.05868e-09
2.3976e-07
8.59436e-09
2.39378e-07
8.12224e-09
2.39004e-07
7.6481e-09
2.38639e-07
7.15926e-09
2.38286e-07
6.67056e-09
2.37945e-07
6.16439e-09
2.37623e-07
5.66508e-09
2.37314e-07
5.17083e-09
2.37028e-07
4.69755e-09
2.36767e-07
4.34871e-09
2.36518e-07
4.09673e-09
2.36386e-07
4.34981e-09
5.11926e-09
2.36395e-07
2.4443e-07
5.75935e-08
2.47471e-07
7.43955e-08
2.48794e-07
5.51356e-08
2.49887e-07
4.6916e-08
2.5056e-07
4.31282e-08
2.50946e-07
3.88554e-08
2.51265e-07
3.5218e-08
2.51554e-07
3.25856e-08
2.51804e-07
3.04924e-08
2.5202e-07
2.86755e-08
2.52212e-07
2.70791e-08
2.52385e-07
2.56744e-08
2.52538e-07
2.44244e-08
2.52673e-07
2.32973e-08
2.52788e-07
2.22704e-08
2.52883e-07
2.13272e-08
2.52959e-07
2.04548e-08
2.53013e-07
1.96427e-08
2.53047e-07
1.88825e-08
2.53059e-07
1.81671e-08
2.53049e-07
1.74907e-08
2.53018e-07
1.68485e-08
2.52966e-07
1.62362e-08
2.52894e-07
1.56502e-08
2.52802e-07
1.50873e-08
2.52692e-07
1.45447e-08
2.52563e-07
1.40198e-08
2.52418e-07
1.35102e-08
2.52258e-07
1.30139e-08
2.52084e-07
1.25286e-08
2.51898e-07
1.20526e-08
2.517e-07
1.15841e-08
2.51494e-07
1.11211e-08
2.5128e-07
1.0662e-08
2.51059e-07
1.02043e-08
2.50834e-07
9.74709e-09
2.50606e-07
9.28655e-09
2.50377e-07
8.82335e-09
2.50149e-07
8.35103e-09
2.49923e-07
7.8742e-09
2.497e-07
7.3822e-09
2.49484e-07
6.88633e-09
2.49274e-07
6.37425e-09
2.49076e-07
5.86287e-09
2.48888e-07
5.35866e-09
2.48715e-07
4.87089e-09
2.48567e-07
4.49661e-09
2.48435e-07
4.22879e-09
2.48421e-07
4.36342e-09
4.9512e-09
2.4859e-07
2.51478e-07
5.27227e-08
2.54548e-07
7.1325e-08
2.55833e-07
5.38507e-08
2.56921e-07
4.5828e-08
2.57632e-07
4.24176e-08
2.58037e-07
3.84494e-08
2.58362e-07
3.48935e-08
2.58656e-07
3.22914e-08
2.58911e-07
3.02379e-08
2.59131e-07
2.84547e-08
2.59329e-07
2.68814e-08
2.5951e-07
2.54941e-08
2.59675e-07
2.42592e-08
2.59826e-07
2.31459e-08
2.59965e-07
2.21319e-08
2.60091e-07
2.12013e-08
2.60204e-07
2.03413e-08
2.60305e-07
1.95418e-08
2.60393e-07
1.87943e-08
2.60469e-07
1.80918e-08
2.60531e-07
1.74286e-08
2.6058e-07
1.67996e-08
2.60615e-07
1.62007e-08
2.60637e-07
1.56281e-08
2.60646e-07
1.50784e-08
2.60642e-07
1.45488e-08
2.60625e-07
1.40365e-08
2.60596e-07
1.35391e-08
2.60556e-07
1.30542e-08
2.60505e-07
1.25798e-08
2.60444e-07
1.21138e-08
2.60374e-07
1.16544e-08
2.60295e-07
1.11995e-08
2.60209e-07
1.07476e-08
2.60118e-07
1.02961e-08
2.60021e-07
9.84392e-09
2.5992e-07
9.38735e-09
2.59817e-07
8.92672e-09
2.59712e-07
8.45611e-09
2.59607e-07
7.97893e-09
2.59503e-07
7.48637e-09
2.59402e-07
6.98658e-09
2.59305e-07
6.47148e-09
2.59216e-07
5.95221e-09
2.59134e-07
5.44034e-09
2.59063e-07
4.94196e-09
2.59017e-07
4.54253e-09
2.58994e-07
4.25181e-09
2.59089e-07
4.26866e-09
4.65082e-09
2.59389e-07
2.58751e-07
4.81552e-08
2.61841e-07
6.82343e-08
2.63098e-07
5.25938e-08
2.64176e-07
4.47504e-08
2.64921e-07
4.16719e-08
2.65349e-07
3.80214e-08
2.6568e-07
3.45622e-08
2.6598e-07
3.19917e-08
2.6624e-07
2.9978e-08
2.66465e-07
2.823e-08
2.66666e-07
2.66806e-08
2.66849e-07
2.53107e-08
2.67018e-07
2.409e-08
2.67175e-07
2.2989e-08
2.67321e-07
2.19858e-08
2.67458e-07
2.10648e-08
2.67585e-07
2.02137e-08
2.67704e-07
1.94227e-08
2.67815e-07
1.86834e-08
2.67918e-07
1.79891e-08
2.68012e-07
1.73339e-08
2.68099e-07
1.6713e-08
2.68177e-07
1.61222e-08
2.68248e-07
1.55578e-08
2.6831e-07
1.50163e-08
2.68364e-07
1.44948e-08
2.6841e-07
1.39905e-08
2.68448e-07
1.35008e-08
2.68479e-07
1.30235e-08
2.68502e-07
1.25562e-08
2.68519e-07
1.2097e-08
2.6853e-07
1.16439e-08
2.68535e-07
1.11948e-08
2.68534e-07
1.0748e-08
2.68529e-07
1.0301e-08
2.68521e-07
9.85261e-09
2.68509e-07
9.39918e-09
2.68495e-07
8.94068e-09
2.68479e-07
8.4717e-09
2.68464e-07
7.99452e-09
2.68448e-07
7.50196e-09
2.68435e-07
6.99945e-09
2.68424e-07
6.48217e-09
2.6842e-07
5.95706e-09
2.68422e-07
5.43801e-09
2.68434e-07
4.93032e-09
2.68471e-07
4.50498e-09
2.6854e-07
4.1832e-09
2.68725e-07
4.08367e-09
4.24951e-09
2.69126e-07
2.66258e-07
4.38893e-08
2.69358e-07
6.5134e-08
2.70598e-07
5.13546e-08
2.7166e-07
4.36876e-08
2.72438e-07
4.08946e-08
2.72889e-07
3.75697e-08
2.73228e-07
3.42233e-08
2.73534e-07
3.16864e-08
2.738e-07
2.97121e-08
2.74029e-07
2.8001e-08
2.74232e-07
2.6477e-08
2.74418e-07
2.5125e-08
2.74589e-07
2.39187e-08
2.74748e-07
2.28299e-08
2.74897e-07
2.1837e-08
2.75037e-07
2.09248e-08
2.75169e-07
2.00815e-08
2.75295e-07
1.92974e-08
2.75414e-07
1.85645e-08
2.75527e-07
1.7876e-08
2.75634e-07
1.72264e-08
2.75736e-07
1.66109e-08
2.75833e-07
1.60253e-08
2.75925e-07
1.54659e-08
2.76012e-07
1.49294e-08
2.76094e-07
1.44128e-08
2.76171e-07
1.39133e-08
2.76244e-07
1.34283e-08
2.76312e-07
1.29554e-08
2.76376e-07
1.24924e-08
2.76436e-07
1.20371e-08
2.76492e-07
1.15876e-08
2.76545e-07
1.11418e-08
2.76595e-07
1.06979e-08
2.76643e-07
1.02534e-08
2.76688e-07
9.80702e-09
2.76732e-07
9.35522e-09
2.76775e-07
8.89756e-09
2.76818e-07
8.42919e-09
2.76861e-07
7.95132e-09
2.76905e-07
7.45814e-09
2.76951e-07
6.95286e-09
2.77001e-07
6.43298e-09
2.77055e-07
5.9025e-09
2.77118e-07
5.37562e-09
2.7719e-07
4.85794e-09
2.7729e-07
4.4052e-09
2.77429e-07
4.04406e-09
2.77683e-07
3.82992e-09
3.77868e-09
2.78153e-07
2.74009e-07
3.99216e-08
2.77108e-07
6.20352e-08
2.7834e-07
5.01227e-08
2.79384e-07
4.26432e-08
2.80189e-07
4.00896e-08
2.80666e-07
3.70927e-08
2.81013e-07
3.38759e-08
2.81324e-07
3.13756e-08
2.81596e-07
2.94402e-08
2.8183e-07
2.77673e-08
2.82037e-07
2.62701e-08
2.82225e-07
2.49368e-08
2.82398e-07
2.37455e-08
2.82559e-07
2.26691e-08
2.82709e-07
2.16867e-08
2.82851e-07
2.07833e-08
2.82985e-07
1.99475e-08
2.83112e-07
1.91699e-08
2.83234e-07
1.84427e-08
2.83351e-07
1.77594e-08
2.83463e-07
1.71144e-08
2.83571e-07
1.6503e-08
2.83675e-07
1.59213e-08
2.83775e-07
1.53655e-08
2.83872e-07
1.48324e-08
2.83966e-07
1.4319e-08
2.84057e-07
1.38225e-08
2.84145e-07
1.33402e-08
2.8423e-07
1.28698e-08
2.84314e-07
1.24091e-08
2.84395e-07
1.19559e-08
2.84474e-07
1.15081e-08
2.84552e-07
1.10638e-08
2.84629e-07
1.0621e-08
2.84705e-07
1.01774e-08
2.84781e-07
9.73144e-09
2.84856e-07
9.27981e-09
2.84932e-07
8.8217e-09
2.85009e-07
8.35273e-09
2.85087e-07
7.87318e-09
2.85166e-07
7.37838e-09
2.8525e-07
6.86976e-09
2.85336e-07
6.34629e-09
2.85429e-07
5.81006e-09
2.8553e-07
5.27413e-09
2.85643e-07
4.74462e-09
2.85786e-07
4.26265e-09
2.85976e-07
3.85454e-09
2.86277e-07
3.52801e-09
3.2659e-09
2.8679e-07
2.82012e-07
3.62467e-08
2.85098e-07
5.89492e-08
2.86332e-07
4.88886e-08
2.87356e-07
4.16199e-08
2.88184e-07
3.92618e-08
2.88687e-07
3.65892e-08
2.89044e-07
3.35187e-08
2.89361e-07
3.10594e-08
2.89639e-07
2.91621e-08
2.89878e-07
2.75284e-08
2.90088e-07
2.60597e-08
2.90279e-07
2.4746e-08
2.90454e-07
2.35701e-08
2.90617e-07
2.25065e-08
2.90769e-07
2.15349e-08
2.90911e-07
2.06405e-08
2.91046e-07
1.98124e-08
2.91175e-07
1.90414e-08
2.91298e-07
1.83198e-08
2.91416e-07
1.76414e-08
2.91529e-07
1.70007e-08
2.91639e-07
1.63932e-08
2.91746e-07
1.58148e-08
2.91849e-07
1.5262e-08
2.9195e-07
1.47316e-08
2.92048e-07
1.42206e-08
2.92145e-07
1.37262e-08
2.92239e-07
1.32458e-08
2.92332e-07
1.2777e-08
2.92423e-07
1.23175e-08
2.92514e-07
1.18652e-08
2.92604e-07
1.14181e-08
2.92694e-07
1.09741e-08
2.92783e-07
1.05314e-08
2.92873e-07
1.00875e-08
2.92964e-07
9.64093e-09
2.93055e-07
9.18842e-09
2.93148e-07
8.72887e-09
2.93242e-07
8.25833e-09
2.93339e-07
7.77628e-09
2.93439e-07
7.27891e-09
2.93542e-07
6.7663e-09
2.9365e-07
6.23821e-09
2.93765e-07
5.69549e-09
2.9389e-07
5.1492e-09
2.94029e-07
4.60553e-09
2.94199e-07
4.09248e-09
2.94422e-07
3.63116e-09
2.94755e-07
3.19504e-09
2.73298e-09
2.95288e-07
2.90278e-07
3.28575e-08
2.93339e-07
5.58878e-08
2.94584e-07
4.76435e-08
2.95585e-07
4.06195e-08
2.9643e-07
3.84163e-08
2.96961e-07
3.60581e-08
2.9733e-07
3.31503e-08
2.97651e-07
3.07377e-08
2.97936e-07
2.88778e-08
2.9818e-07
2.72841e-08
2.98394e-07
2.58455e-08
2.98588e-07
2.45524e-08
2.98766e-07
2.33923e-08
2.9893e-07
2.23421e-08
2.99084e-07
2.13815e-08
2.99228e-07
2.04965e-08
2.99364e-07
1.96762e-08
2.99493e-07
1.89119e-08
2.99617e-07
1.81961e-08
2.99736e-07
1.75226e-08
2.9985e-07
1.68862e-08
2.99961e-07
1.62824e-08
3.00068e-07
1.57073e-08
3.00173e-07
1.51574e-08
3.00275e-07
1.46295e-08
3.00375e-07
1.41206e-08
3.00474e-07
1.3628e-08
3.0057e-07
1.3149e-08
3.00666e-07
1.26813e-08
3.00761e-07
1.22226e-08
3.00855e-07
1.17708e-08
3.0095e-07
1.13238e-08
3.01044e-07
1.08795e-08
3.01139e-07
1.04363e-08
3.01235e-07
9.9915e-09
3.01333e-07
9.54363e-09
3.01432e-07
9.08963e-09
3.01532e-07
8.62803e-09
3.01635e-07
8.15527e-09
3.01742e-07
7.67018e-09
3.01851e-07
7.16953e-09
3.01965e-07
6.65243e-09
3.02084e-07
6.11887e-09
3.02211e-07
5.56888e-09
3.02349e-07
5.01105e-09
3.02504e-07
4.4509e-09
3.02691e-07
3.90511e-09
3.02936e-07
3.38608e-09
3.03287e-07
2.84398e-09
2.19586e-09
3.03824e-07
2.98815e-07
2.97452e-08
3.0184e-07
5.28632e-08
3.03104e-07
4.63794e-08
3.0408e-07
3.96429e-08
3.04938e-07
3.75585e-08
3.05497e-07
3.5499e-08
3.05878e-07
3.27693e-08
3.06205e-07
3.04106e-08
3.06496e-07
2.85873e-08
3.06746e-07
2.7034e-08
3.06964e-07
2.5627e-08
3.07161e-07
2.43557e-08
3.07341e-07
2.32121e-08
3.07508e-07
2.21755e-08
3.07663e-07
2.12264e-08
3.07808e-07
2.0351e-08
3.07946e-07
1.95388e-08
3.08076e-07
1.87814e-08
3.08201e-07
1.80715e-08
3.0832e-07
1.74031e-08
3.08436e-07
1.67711e-08
3.08547e-07
1.6171e-08
3.08655e-07
1.55992e-08
3.0876e-07
1.50521e-08
3.08863e-07
1.45266e-08
3.08964e-07
1.40198e-08
3.09063e-07
1.35289e-08
3.09161e-07
1.30513e-08
3.09258e-07
1.25845e-08
3.09354e-07
1.21264e-08
3.0945e-07
1.16748e-08
3.09546e-07
1.12276e-08
3.09643e-07
1.07829e-08
3.0974e-07
1.03388e-08
3.09839e-07
9.89284e-09
3.09939e-07
9.4434e-09
3.10041e-07
8.98757e-09
3.10146e-07
8.52363e-09
3.10253e-07
8.04828e-09
3.10363e-07
7.55985e-09
3.10477e-07
7.05547e-09
3.10596e-07
6.53353e-09
3.10721e-07
5.99388e-09
3.10854e-07
5.4359e-09
3.10999e-07
4.86559e-09
3.11163e-07
4.2869e-09
3.11361e-07
3.70704e-09
3.1162e-07
3.12767e-09
3.1198e-07
2.48403e-09
1.66552e-09
3.1251e-07
3.07633e-07
2.68993e-08
3.10609e-07
4.98872e-08
3.11899e-07
4.50896e-08
3.12852e-07
3.869e-08
3.13716e-07
3.66939e-08
3.14303e-07
3.49124e-08
3.14698e-07
3.2374e-08
3.15031e-07
3.00778e-08
3.15328e-07
2.82907e-08
3.15584e-07
2.67779e-08
3.15807e-07
2.54041e-08
3.16007e-07
2.41557e-08
3.1619e-07
2.30291e-08
3.16359e-07
2.20066e-08
3.16516e-07
2.10694e-08
3.16663e-07
2.02039e-08
3.16802e-07
1.94001e-08
3.16933e-07
1.86497e-08
3.17059e-07
1.79458e-08
3.17179e-07
1.72826e-08
3.17295e-07
1.66551e-08
3.17407e-07
1.6059e-08
3.17516e-07
1.54905e-08
3.17622e-07
1.49463e-08
3.17725e-07
1.44232e-08
3.17827e-07
1.39185e-08
3.17926e-07
1.34292e-08
3.18025e-07
1.29529e-08
3.18122e-07
1.24871e-08
3.18219e-07
1.20295e-08
3.18316e-07
1.1578e-08
3.18413e-07
1.11306e-08
3.18511e-07
1.06853e-08
3.18609e-07
1.02402e-08
3.18709e-07
9.79296e-09
3.18811e-07
9.34183e-09
3.18914e-07
8.88402e-09
3.1902e-07
8.4176e-09
3.19129e-07
7.93948e-09
3.19241e-07
7.44757e-09
3.19358e-07
6.9392e-09
3.19479e-07
6.41219e-09
3.19607e-07
5.86605e-09
3.19743e-07
5.29947e-09
3.19893e-07
4.71592e-09
3.20063e-07
4.11701e-09
3.20268e-07
3.50214e-09
3.20534e-07
2.86162e-09
3.20896e-07
2.12161e-09
1.14961e-09
3.21412e-07
3.16743e-07
2.43077e-08
3.19658e-07
4.6972e-08
3.20979e-07
4.37688e-08
3.21909e-07
3.77597e-08
3.22775e-07
3.58276e-08
3.23389e-07
3.42992e-08
3.238e-07
3.19629e-08
3.24139e-07
2.97388e-08
3.24441e-07
2.7988e-08
3.24704e-07
2.65155e-08
3.24932e-07
2.51763e-08
3.25135e-07
2.3952e-08
3.25321e-07
2.28432e-08
3.25492e-07
2.18352e-08
3.25652e-07
2.09103e-08
3.258e-07
2.0055e-08
3.25941e-07
1.92598e-08
3.26074e-07
1.85167e-08
3.26201e-07
1.78191e-08
3.26322e-07
1.71612e-08
3.26439e-07
1.65383e-08
3.26552e-07
1.59461e-08
3.26661e-07
1.5381e-08
3.26768e-07
1.48398e-08
3.26872e-07
1.43192e-08
3.26974e-07
1.38166e-08
3.27074e-07
1.3329e-08
3.27173e-07
1.2854e-08
3.27271e-07
1.23891e-08
3.27368e-07
1.1932e-08
3.27466e-07
1.14806e-08
3.27563e-07
1.1033e-08
3.27661e-07
1.0587e-08
3.27761e-07
1.01409e-08
3.27861e-07
9.69234e-09
3.27964e-07
9.23947e-09
3.28068e-07
8.77964e-09
3.28175e-07
8.31069e-09
3.28285e-07
7.82972e-09
3.28398e-07
7.33427e-09
3.28515e-07
6.82176e-09
3.28638e-07
6.28956e-09
3.28767e-07
5.73664e-09
3.28906e-07
5.16095e-09
3.29058e-07
4.56361e-09
3.29232e-07
3.94324e-09
3.29441e-07
3.2929e-09
3.29711e-07
2.59196e-09
3.30071e-07
1.76145e-09
6.53303e-10
3.30567e-07
3.26153e-07
2.19571e-08
3.28996e-07
4.41294e-08
3.30352e-07
4.24131e-08
3.31261e-07
3.68502e-08
3.32124e-07
3.49644e-08
3.32762e-07
3.36612e-08
3.33191e-07
3.15345e-08
3.33537e-07
2.9393e-08
3.33845e-07
2.76795e-08
3.34114e-07
2.62466e-08
3.34347e-07
2.49432e-08
3.34555e-07
2.37444e-08
3.34744e-07
2.26541e-08
3.34918e-07
2.16611e-08
3.35079e-07
2.07488e-08
3.3523e-07
1.99042e-08
3.35372e-07
1.91178e-08
3.35507e-07
1.83822e-08
3.35635e-07
1.7691e-08
3.35757e-07
1.70386e-08
3.35875e-07
1.64204e-08
3.35989e-07
1.58323e-08
3.36099e-07
1.52707e-08
3.36206e-07
1.47325e-08
3.36311e-07
1.42145e-08
3.36414e-07
1.3714e-08
3.36515e-07
1.32282e-08
3.36614e-07
1.27545e-08
3.36713e-07
1.22905e-08
3.36811e-07
1.18339e-08
3.36909e-07
1.13827e-08
3.37007e-07