/*--------------------------------*- C++ -*----------------------------------*\
  =========                 |
  \\      /  F ield         | OpenFOAM: The Open Source CFD Toolbox
   \\    /   O peration     | Website:  https://openfoam.org
    \\  /    A nd           | Version:  7
     \\/     M anipulation  |
\*---------------------------------------------------------------------------*/
FoamFile
{
    version     2.0;
    format      ascii;
    class       surfaceScalarField;
    location    "0.43";
    object      phi_0;
}
// * * * * * * * * * * * * * * * * * * * * * * * * * * * * * * * * * * * * * //

dimensions      [0 3 -1 0 0 0 0];

internalField   nonuniform List<scalar> 
139350
(
6.45923e-08
9.20392e-08
3.19508e-08
3.26415e-08
2.306e-08
8.89083e-09
1.95664e-08
3.49359e-09
1.76158e-08
1.95058e-09
1.61899e-08
1.42594e-09
1.50589e-08
1.131e-09
1.41472e-08
9.11629e-10
1.33974e-08
7.49858e-10
1.27661e-08
6.31248e-10
1.22246e-08
5.41472e-10
1.17536e-08
4.71038e-10
1.13393e-08
4.1432e-10
1.09715e-08
3.67787e-10
1.06425e-08
3.2903e-10
1.03461e-08
2.96326e-10
1.00777e-08
2.68415e-10
9.83338e-09
2.44348e-10
9.60998e-09
2.23405e-10
9.40495e-09
2.05028e-10
9.21617e-09
1.88777e-10
9.04187e-09
1.74304e-10
8.88054e-09
1.61326e-10
8.73093e-09
1.49613e-10
8.59195e-09
1.38977e-10
8.46269e-09
1.29257e-10
8.34238e-09
1.20319e-10
8.23033e-09
1.1205e-10
8.12598e-09
1.04347e-10
8.02885e-09
9.71289e-11
7.93854e-09
9.03084e-11
7.85471e-09
8.38323e-11
7.7771e-09
7.76111e-11
7.70547e-09
7.16293e-11
7.6397e-09
6.57661e-11
7.57963e-09
6.00753e-11
7.52527e-09
5.43594e-11
7.47647e-09
4.87946e-11
7.4334e-09
4.30749e-11
7.39588e-09
3.75179e-11
7.36404e-09
3.1841e-11
7.33782e-09
2.62193e-11
7.31648e-09
2.13445e-11
7.30094e-09
1.55402e-11
7.28614e-09
1.47944e-11
7.27826e-09
7.87914e-12
7.25199e-09
2.62718e-11
7.25152e-09
4.70746e-13
6.99838e-09
2.53144e-10
-3.00018e-09
9.99856e-09
1.26025e-07
1.27457e-07
9.12628e-08
6.74042e-08
7.19424e-08
2.82112e-08
6.12174e-08
1.42186e-08
5.47745e-08
8.39349e-09
5.02853e-08
5.91516e-09
4.68067e-08
4.60951e-09
4.39973e-08
3.72106e-09
4.16776e-08
3.06955e-09
3.97229e-08
2.58596e-09
3.80461e-08
2.21832e-09
3.65871e-08
1.93004e-09
3.53033e-08
1.6981e-09
3.41632e-08
1.50786e-09
3.31428e-08
1.3494e-09
3.22235e-08
1.21568e-09
3.13904e-08
1.10154e-09
3.06316e-08
1.00313e-09
2.99375e-08
9.17488e-10
2.93002e-08
8.42346e-10
2.87131e-08
7.75913e-10
2.81706e-08
7.16765e-10
2.76682e-08
6.63753e-10
2.72018e-08
6.15939e-10
2.67683e-08
5.72554e-10
2.63646e-08
5.32947e-10
2.59883e-08
4.96577e-10
2.56374e-08
4.62978e-10
2.531e-08
4.31743e-10
2.50046e-08
4.02533e-10
2.47199e-08
3.75018e-10
2.44548e-08
3.48952e-10
2.42083e-08
3.24025e-10
2.39799e-08
3.00104e-10
2.37688e-08
2.76806e-10
2.35747e-08
2.54201e-10
2.33974e-08
2.31667e-10
2.32365e-08
2.09703e-10
2.30924e-08
1.87155e-10
2.29645e-08
1.65417e-10
2.2854e-08
1.42326e-10
2.27593e-08
1.20976e-10
2.26827e-08
9.78698e-11
2.26198e-08
7.84715e-11
2.25743e-08
6.0259e-11
2.25352e-08
4.70148e-11
2.24979e-08
6.35594e-11
2.24758e-08
2.25721e-11
2.22251e-08
5.03895e-10
-3.05644e-09
2.22813e-08
1.58807e-07
1.35054e-07
1.36494e-07
8.97173e-08
1.17493e-07
4.72119e-08
1.03318e-07
2.83939e-08
9.33156e-08
1.83957e-08
8.60203e-08
1.32104e-08
8.03229e-08
1.0307e-08
7.56815e-08
8.36246e-09
7.18138e-08
6.93723e-09
6.85328e-08
5.86693e-09
6.57054e-08
5.04577e-09
6.32367e-08
4.39873e-09
6.10582e-08
3.87654e-09
5.91189e-08
3.44714e-09
5.73796e-08
3.0887e-09
5.58097e-08
2.78564e-09
5.43847e-08
2.52656e-09
5.30849e-08
2.30287e-09
5.18944e-08
2.10799e-09
5.07999e-08
1.93685e-09
4.97904e-08
1.78544e-09
4.88566e-08
1.65057e-09
4.79907e-08
1.52964e-09
4.71861e-08
1.42056e-09
4.6437e-08
1.32158e-09
4.57387e-08
1.23125e-09
4.5087e-08
1.14835e-09
4.44781e-08
1.07182e-09
4.39091e-08
1.00076e-09
4.33772e-08
9.34396e-10
4.28803e-08
8.71998e-10
4.24162e-08
8.12994e-10
4.19835e-08
7.5674e-10
4.15807e-08
7.02865e-10
4.12069e-08
6.50631e-10
4.08611e-08
6.00032e-10
4.05429e-08
5.49889e-10
4.02515e-08
5.01066e-10
3.99875e-08
4.51157e-10
3.97497e-08
4.03242e-10
3.95402e-08
3.51785e-10
3.93557e-08
3.05483e-10
3.92021e-08
2.51426e-10
3.9069e-08
2.11604e-10
3.89707e-08
1.58568e-10
3.88785e-08
1.39242e-10
3.88149e-08
1.27133e-10
3.87464e-08
9.11092e-11
3.85771e-08
6.73163e-10
-2.16845e-09
3.76891e-08
1.75664e-07
1.30906e-07
1.65594e-07
9.97871e-08
1.52723e-07
6.00829e-08
1.40126e-07
4.0991e-08
1.29441e-07
2.90805e-08
1.20805e-07
2.18461e-08
1.13703e-07
1.7409e-08
1.07735e-07
1.43311e-08
1.02648e-07
1.2024e-08
9.82607e-08
1.02542e-08
9.44331e-08
8.87334e-09
9.10596e-08
7.77223e-09
8.80603e-08
6.87582e-09
8.53738e-08
6.13362e-09
8.2952e-08
5.51056e-09
8.07563e-08
4.9813e-09
7.87558e-08
4.52704e-09
7.69252e-08
4.1335e-09
7.52435e-08
3.78969e-09
7.36933e-08
3.48702e-09
7.22601e-08
3.21869e-09
7.09314e-08
2.97924e-09
6.96968e-08
2.76426e-09
6.85472e-08
2.57011e-09
6.7475e-08
2.39379e-09
6.64735e-08
2.23278e-09
6.55369e-08
2.08496e-09
6.46602e-08
1.94851e-09
6.38391e-08
1.82184e-09
6.30699e-08
1.70359e-09
6.23494e-08
1.59254e-09
6.16747e-08
1.48765e-09
6.10436e-08
1.38785e-09
6.04541e-08
1.29243e-09
5.99045e-08
1.20022e-09
5.93935e-08
1.11104e-09
5.89203e-08
1.02309e-09
5.84838e-08
9.37569e-10
5.80843e-08
8.50608e-10
5.77203e-08
7.67241e-10
5.73943e-08
6.77801e-10
5.71019e-08
5.97837e-10
5.68507e-08
5.02665e-10
5.66278e-08
4.34501e-10
5.6451e-08
3.35393e-10
5.62879e-08
3.0228e-10
5.61642e-08
2.50848e-10
5.60406e-08
2.14703e-10
5.5856e-08
8.57796e-10
-1.18786e-09
5.48754e-08
1.8456e-07
1.23132e-07
1.8232e-07
1.02027e-07
1.76101e-07
6.63017e-08
1.67759e-07
4.93332e-08
1.59139e-07
3.77005e-08
1.51236e-07
2.97494e-08
1.44172e-07
2.44726e-08
1.37884e-07
2.06188e-08
1.32298e-07
1.761e-08
1.2733e-07
1.52229e-08
1.22893e-07
1.33106e-08
1.1891e-07
1.17547e-08
1.15318e-07
1.04681e-08
1.12062e-07
9.3895e-09
1.09098e-07
8.47466e-09
1.06388e-07
7.69086e-09
1.03902e-07
7.01325e-09
1.01613e-07
6.42259e-09
9.94988e-08
5.90385e-09
9.75407e-08
5.44511e-09
9.57226e-08
5.0368e-09
9.40307e-08
4.67121e-09
9.24529e-08
4.34199e-09
9.09791e-08
4.04393e-09
8.96002e-08
3.77266e-09
8.83085e-08
3.52451e-09
8.70971e-08
3.29636e-09
8.59601e-08
3.08552e-09
8.48923e-08
2.88966e-09
8.38891e-08
2.70675e-09
8.29467e-08
2.53498e-09
8.20616e-08
2.37278e-09
8.12308e-08
2.21859e-09
8.0452e-08
2.0713e-09
7.97229e-08
1.92925e-09
7.90419e-08
1.79205e-09
7.84078e-08
1.65722e-09
7.78191e-08
1.52621e-09
7.7276e-08
1.39371e-09
7.67767e-08
1.26658e-09
7.63234e-08
1.13111e-09
7.59119e-08
1.00935e-09
7.5549e-08
8.65586e-10
7.52232e-08
7.60223e-10
7.4949e-08
6.0965e-10
7.47021e-08
5.49201e-10
7.44919e-08
4.61046e-10
7.43032e-08
4.03329e-10
7.40455e-08
1.11551e-09
-2.32291e-10
7.309e-08
1.90388e-07
1.1496e-07
1.91851e-07
1.00564e-07
1.90242e-07
6.79107e-08
1.86151e-07
5.34243e-08
1.80713e-07
4.31383e-08
1.74962e-07
3.55004e-08
1.69272e-07
3.01627e-08
1.63798e-07
2.60927e-08
1.58636e-07
2.27719e-08
1.53828e-07
2.00309e-08
1.49376e-07
1.77622e-08
1.45264e-07
1.58666e-08
1.41468e-07
1.42646e-08
1.37961e-07
1.28969e-08
1.34716e-07
1.17191e-08
1.3171e-07
1.0697e-08
1.2892e-07
9.80355e-09
1.26325e-07
9.01739e-09
1.23908e-07
8.32129e-09
1.21651e-07
7.70129e-09
1.19542e-07
7.14602e-09
1.17567e-07
6.64609e-09
1.15716e-07
6.19373e-09
1.13977e-07
5.78244e-09
1.12343e-07
5.40673e-09
1.10806e-07
5.06191e-09
1.09358e-07
4.74399e-09
1.07994e-07
4.44949e-09
1.06708e-07
4.17538e-09
1.05496e-07
3.91899e-09
1.04353e-07
3.67794e-09
1.03276e-07
3.45012e-09
1.02261e-07
3.23352e-09
1.01306e-07
3.02655e-09
1.00408e-07
2.82715e-09
9.95651e-08
2.63457e-09
9.87765e-08
2.44577e-09
9.80405e-08
2.26231e-09
9.73566e-08
2.07761e-09
9.67232e-08
1.89994e-09
9.6142e-08
1.71232e-09
9.56096e-08
1.54175e-09
9.51307e-08
1.34444e-09
9.46978e-08
1.19313e-09
9.43179e-08
9.89589e-10
9.398e-08
8.8706e-10
9.36728e-08
7.6824e-10
9.34031e-08
6.73102e-10
9.30747e-08
1.44385e-09
7.29543e-10
9.21129e-08
1.9554e-07
1.07234e-07
1.98246e-07
9.78582e-08
1.98966e-07
6.71907e-08
1.97784e-07
5.46063e-08
1.95152e-07
4.57712e-08
1.91811e-07
3.88415e-08
1.88082e-07
3.38912e-08
1.84138e-07
3.00366e-08
1.80128e-07
2.67818e-08
1.76162e-07
2.39969e-08
1.72308e-07
2.16163e-08
1.68604e-07
1.95703e-08
1.65071e-07
1.77978e-08
1.61716e-07
1.62516e-08
1.58541e-07
1.48948e-08
1.5554e-07
1.36979e-08
1.52707e-07
1.26365e-08
1.50033e-07
1.16908e-08
1.4751e-07
1.08442e-08
1.45129e-07
1.00827e-08
1.4288e-07
9.39474e-09
1.40756e-07
8.77059e-09
1.38748e-07
8.20193e-09
1.36848e-07
7.68169e-09
1.35051e-07
7.20385e-09
1.3335e-07
6.76313e-09
1.31739e-07
6.35502e-09
1.30213e-07
5.9755e-09
1.28767e-07
5.62107e-09
1.27398e-07
5.28856e-09
1.261e-07
4.97519e-09
1.24872e-07
4.6784e-09
1.2371e-07
4.39578e-09
1.22611e-07
4.12536e-09
1.21574e-07
3.8647e-09
1.20595e-07
3.61274e-09
1.19675e-07
3.36597e-09
1.18812e-07
3.12588e-09
1.18004e-07
2.88501e-09
1.17252e-07
2.65243e-09
1.16555e-07
2.40903e-09
1.15912e-07
2.18463e-09
1.15325e-07
1.93125e-09
1.14792e-07
1.72698e-09
1.1431e-07
1.47091e-09
1.13882e-07
1.31478e-09
1.13483e-07
1.16819e-09
1.13123e-07
1.03293e-09
1.12737e-07
1.82968e-09
1.67873e-09
1.11788e-07
2.00848e-07
9.99712e-08
2.03775e-07
9.49311e-08
2.05325e-07
6.56408e-08
2.05639e-07
5.42923e-08
2.04811e-07
4.65994e-08
2.03328e-07
4.03236e-08
2.01381e-07
3.58382e-08
1.99055e-07
3.23634e-08
1.96454e-07
2.93822e-08
1.93683e-07
2.67681e-08
1.90822e-07
2.44776e-08
1.8793e-07
2.24616e-08
1.85053e-07
2.06749e-08
1.82222e-07
1.90826e-08
1.79459e-07
1.76579e-08
1.76779e-07
1.63784e-08
1.7419e-07
1.52255e-08
1.71697e-07
1.41832e-08
1.69304e-07
1.32378e-08
1.67009e-07
1.23774e-08
1.64812e-07
1.15918e-08
1.6271e-07
1.08721e-08
1.60702e-07
1.02106e-08
1.58783e-07
9.60067e-09
1.5695e-07
9.03636e-09
1.55201e-07
8.51249e-09
1.53531e-07
8.02447e-09
1.51939e-07
7.56819e-09
1.5042e-07
7.14e-09
1.48972e-07
6.73655e-09
1.47592e-07
6.35484e-09
1.46279e-07
5.99208e-09
1.45029e-07
5.64565e-09
1.43841e-07
5.31329e-09
1.42713e-07
4.99231e-09
1.41644e-07
4.68142e-09
1.40634e-07
4.37676e-09
1.3968e-07
4.07971e-09
1.38783e-07
3.78223e-09
1.37941e-07
3.49369e-09
1.37156e-07
3.19394e-09
1.36427e-07
2.91369e-09
1.35754e-07
2.60432e-09
1.35138e-07
2.34316e-09
1.34573e-07
2.03622e-09
1.34068e-07
1.82011e-09
1.3359e-07
1.64528e-09
1.33148e-07
1.47511e-09
1.32717e-07
2.26088e-09
2.57198e-09
1.31824e-07
2.06447e-07
9.30566e-08
2.09338e-07
9.20393e-08
2.11035e-07
6.39446e-08
2.11927e-07
5.34001e-08
2.11994e-07
4.65324e-08
2.11606e-07
4.07117e-08
2.10875e-07
3.65686e-08
2.09806e-07
3.34327e-08
2.08436e-07
3.07525e-08
2.06823e-07
2.83806e-08
2.05025e-07
2.62764e-08
2.03089e-07
2.43974e-08
2.01058e-07
2.27054e-08
1.98969e-07
2.11721e-08
1.9685e-07
1.97769e-08
1.94725e-07
1.85037e-08
1.92611e-07
1.73387e-08
1.90524e-07
1.62702e-08
1.88474e-07
1.52879e-08
1.86469e-07
1.43827e-08
1.84514e-07
1.35465e-08
1.82614e-07
1.27722e-08
1.80771e-07
1.20535e-08
1.78987e-07
1.13846e-08
1.77263e-07
1.07606e-08
1.75599e-07
1.01766e-08
1.73995e-07
9.62867e-09
1.7245e-07
9.11293e-09
1.70964e-07
8.62595e-09
1.69536e-07
8.16451e-09
1.68165e-07
7.72567e-09
1.66851e-07
7.30664e-09
1.65592e-07
6.90479e-09
1.64387e-07
6.51776e-09
1.63237e-07
6.14278e-09
1.6214e-07
5.77839e-09
1.61096e-07
5.42057e-09
1.60105e-07
5.0706e-09
1.59167e-07
4.72014e-09
1.58282e-07
4.37848e-09
1.57451e-07
4.02541e-09
1.56674e-07
3.69088e-09
1.55949e-07
3.32853e-09
1.55282e-07
3.01034e-09
1.54663e-07
2.65572e-09
1.54104e-07
2.37848e-09
1.53576e-07
2.17367e-09
1.53075e-07
1.97625e-09
1.52618e-07
2.71794e-09
3.37046e-09
1.51819e-07
2.12289e-07
8.64303e-08
2.15151e-07
8.91766e-08
2.16789e-07
6.2307e-08
2.17839e-07
5.23498e-08
2.18252e-07
4.61191e-08
2.18366e-07
4.05976e-08
2.18289e-07
3.6646e-08
2.17989e-07
3.37324e-08
2.1746e-07
3.12813e-08
2.16721e-07
2.91197e-08
2.15797e-07
2.72012e-08
2.14711e-07
2.54827e-08
2.13491e-07
2.39253e-08
2.12162e-07
2.25012e-08
2.10747e-07
2.11917e-08
2.09268e-07
1.9983e-08
2.07743e-07
1.88638e-08
2.06188e-07
1.78251e-08
2.04617e-07
1.68589e-08
2.03041e-07
1.59584e-08
2.0147e-07
1.51174e-08
1.99912e-07
1.43305e-08
1.98373e-07
1.35927e-08
1.96858e-07
1.28996e-08
1.95371e-07
1.22471e-08
1.93917e-07
1.16314e-08
1.92496e-07
1.10491e-08
1.91112e-07
1.04968e-08
1.89767e-07
9.97163e-09
1.8846e-07
9.47072e-09
1.87195e-07
8.99141e-09
1.8597e-07
8.53111e-09
1.84788e-07
8.08734e-09
1.83648e-07
7.65781e-09
1.82551e-07
7.23981e-09
1.81497e-07
6.83188e-09
1.80488e-07
6.42995e-09
1.79523e-07
6.03521e-09
1.78604e-07
5.63932e-09
1.77731e-07
5.25123e-09
1.76905e-07
4.85137e-09
1.76128e-07
4.4678e-09
1.75398e-07
4.05846e-09
1.74722e-07
3.68696e-09
1.74088e-07
3.28969e-09
1.73511e-07
2.95489e-09
1.72966e-07
2.7187e-09
1.72441e-07
2.50156e-09
1.71987e-07
3.17191e-09
4.04184e-09
1.71316e-07
2.1833e-07
8.00814e-08
2.21205e-07
8.63014e-08
2.22761e-07
6.07504e-08
2.23838e-07
5.12727e-08
2.24361e-07
4.55965e-08
2.24653e-07
4.03059e-08
2.24851e-07
3.64477e-08
2.24929e-07
3.36546e-08
2.24865e-07
3.13457e-08
2.24658e-07
2.93258e-08
2.24316e-07
2.75441e-08
2.23842e-07
2.5956e-08
2.23248e-07
2.45198e-08
2.22543e-07
2.32056e-08
2.21742e-07
2.19933e-08
2.20856e-07
2.08686e-08
2.19899e-07
1.98207e-08
2.18883e-07
1.88409e-08
2.1782e-07
1.79222e-08
2.1672e-07
1.70588e-08
2.15592e-07
1.62454e-08
2.14444e-07
1.54778e-08
2.13285e-07
1.47519e-08
2.12121e-07
1.40642e-08
2.10956e-07
1.34114e-08
2.09797e-07
1.27905e-08
2.08648e-07
1.21986e-08
2.07511e-07
1.1633e-08
2.06392e-07
1.10913e-08
2.05291e-07
1.0571e-08
2.04213e-07
1.00698e-08
2.03159e-07
9.58554e-09
2.0213e-07
9.11584e-09
2.01129e-07
8.65866e-09
2.00158e-07
8.2114e-09
1.99217e-07
7.7727e-09
1.98308e-07
7.33855e-09
1.97433e-07
6.91013e-09
1.96593e-07
6.47923e-09
1.9579e-07
6.05427e-09
1.95025e-07
5.61694e-09
1.943e-07
5.19254e-09
1.93614e-07
4.74466e-09
1.92974e-07
4.32686e-09
1.9237e-07
3.89362e-09
1.91816e-07
3.50861e-09
1.91294e-07
3.24074e-09
1.90786e-07
3.00999e-09
1.90369e-07
3.58834e-09
4.55959e-09
1.89852e-07
2.24558e-07
7.40162e-08
2.27469e-07
8.33908e-08
2.28958e-07
5.92613e-08
2.3004e-07
5.01905e-08
2.30604e-07
4.50327e-08
2.30944e-07
3.99655e-08
2.31232e-07
3.616e-08
2.31458e-07
3.3429e-08
2.31601e-07
3.1202e-08
2.31662e-07
2.92656e-08
2.31638e-07
2.75677e-08
2.31529e-07
2.60649e-08
2.31335e-07
2.47143e-08
2.31057e-07
2.34837e-08
2.30699e-07
2.23513e-08
2.30266e-07
2.13015e-08
2.29764e-07
2.03226e-08
2.292e-07
1.94052e-08
2.2858e-07
1.85422e-08
2.27911e-07
1.77275e-08
2.272e-07
1.69562e-08
2.26454e-07
1.62242e-08
2.25678e-07
1.55279e-08
2.24878e-07
1.48641e-08
2.2406e-07
1.42298e-08
2.23228e-07
1.36225e-08
2.22386e-07
1.30398e-08
2.2154e-07
1.24793e-08
2.20693e-07
1.19388e-08
2.19847e-07
1.14164e-08
2.19007e-07
1.091e-08
2.18175e-07
1.04176e-08
2.17354e-07
9.93711e-09
2.16546e-07
9.46675e-09
2.15753e-07
9.00403e-09
2.14978e-07
8.54773e-09
2.14223e-07
8.09391e-09
2.13489e-07
7.64374e-09
2.12779e-07
7.18932e-09
2.12095e-07
6.73834e-09
2.11438e-07
6.27416e-09
2.10811e-07
5.81875e-09
2.10214e-07
5.34205e-09
2.09654e-07
4.88711e-09
2.09122e-07
4.42552e-09
2.08631e-07
3.99996e-09
2.0817e-07
3.70136e-09
2.07719e-07
3.46079e-09
2.07374e-07
3.93311e-09
4.90489e-09
2.07029e-07
2.30979e-07
6.8243e-08
2.33933e-07
8.04364e-08
2.35363e-07
5.78316e-08
2.36452e-07
4.91022e-08
2.37049e-07
4.44353e-08
2.37405e-07
3.96099e-08
2.37714e-07
3.58508e-08
2.37985e-07
3.31577e-08
2.38204e-07
3.09829e-08
2.38373e-07
2.90966e-08
2.38494e-07
2.74463e-08
2.38567e-07
2.59929e-08
2.38587e-07
2.4694e-08
2.38554e-07
2.35168e-08
2.38467e-07
2.24384e-08
2.38326e-07
2.14423e-08
2.38133e-07
2.05157e-08
2.37889e-07
1.96487e-08
2.37598e-07
1.88334e-08
2.37262e-07
1.80634e-08
2.36885e-07
1.73334e-08
2.3647e-07
1.6639e-08
2.36021e-07
1.59765e-08
2.35543e-07
1.53428e-08
2.35038e-07
1.47349e-08
2.3451e-07
1.41503e-08
2.33963e-07
1.35866e-08
2.33401e-07
1.30418e-08
2.32826e-07
1.25137e-08
2.32242e-07
1.20005e-08
2.31651e-07
1.15004e-08
2.31057e-07
1.10114e-08
2.30463e-07
1.05317e-08
2.2987e-07
1.00596e-08
2.29281e-07
9.59269e-09
2.28699e-07
9.12987e-09
2.28126e-07
8.6673e-09
2.27563e-07
8.20603e-09
2.27014e-07
7.73861e-09
2.26481e-07
7.27182e-09
2.25964e-07
6.79093e-09
2.25468e-07
6.3143e-09
2.24992e-07
5.81828e-09
2.24543e-07
5.33586e-09
2.24115e-07
4.85346e-09
2.23718e-07
4.39753e-09
2.23349e-07
4.07001e-09
2.22989e-07
3.82051e-09
2.22744e-07
4.17868e-09
5.06983e-09
2.22579e-07
2.376e-07
6.27676e-08
2.40601e-07
7.74357e-08
2.41974e-07
5.6459e-08
2.43067e-07
4.8009e-08
2.43701e-07
4.38009e-08
2.4407e-07
3.92409e-08
2.44385e-07
3.55363e-08
2.44668e-07
3.28741e-08
2.4491e-07
3.07411e-08
2.45116e-07
2.88911e-08
2.45291e-07
2.72709e-08
2.45438e-07
2.58462e-08
2.45555e-07
2.45771e-08
2.4564e-07
2.3431e-08
2.45694e-07
2.2385e-08
2.45714e-07
2.14222e-08
2.457e-07
2.05296e-08
2.45652e-07
1.96967e-08
2.4557e-07
1.89153e-08
2.45455e-07
1.81784e-08
2.45308e-07
1.74805e-08
2.4513e-07
1.68169e-08
2.44923e-07
1.61836e-08
2.44689e-07
1.55772e-08
2.44429e-07
1.49946e-08
2.44146e-07
1.44332e-08
2.43842e-07
1.38905e-08
2.43519e-07
1.33644e-08
2.4318e-07
1.28528e-08
2.42827e-07
1.23537e-08
2.42462e-07
1.18653e-08
2.42088e-07
1.13859e-08
2.41706e-07
1.09135e-08
2.41319e-07
1.04466e-08
2.40929e-07
9.98267e-09
2.40538e-07
9.5208e-09
2.40148e-07
9.05714e-09
2.39762e-07
8.59259e-09
2.3938e-07
8.12015e-09
2.39007e-07
7.64555e-09
2.38641e-07
7.15609e-09
2.38289e-07
6.66647e-09
2.37949e-07
6.15902e-09
2.37627e-07
5.65782e-09
2.37319e-07
5.16094e-09
2.37033e-07
4.68368e-09
2.36774e-07
4.32919e-09
2.36526e-07
4.06859e-09
2.36395e-07
4.30898e-09
5.05925e-09
2.36406e-07
2.4443e-07
5.75935e-08
2.47471e-07
7.43954e-08
2.48794e-07
5.51354e-08
2.49887e-07
4.69157e-08
2.50561e-07
4.31279e-08
2.50947e-07
3.88549e-08
2.51265e-07
3.52174e-08
2.51554e-07
3.2585e-08
2.51804e-07
3.04917e-08
2.5202e-07
2.86748e-08
2.52213e-07
2.70784e-08
2.52385e-07
2.56737e-08
2.52539e-07
2.44237e-08
2.52673e-07
2.32966e-08
2.52788e-07
2.22697e-08
2.52884e-07
2.13265e-08
2.52959e-07
2.04541e-08
2.53014e-07
1.96421e-08
2.53048e-07
1.88818e-08
2.5306e-07
1.81664e-08
2.5305e-07
1.749e-08
2.53019e-07
1.68477e-08
2.52967e-07
1.62354e-08
2.52895e-07
1.56494e-08
2.52803e-07
1.50865e-08
2.52693e-07
1.45439e-08
2.52564e-07
1.40189e-08
2.52419e-07
1.35093e-08
2.52259e-07
1.30129e-08
2.52085e-07
1.25276e-08
2.51899e-07
1.20516e-08
2.51702e-07
1.1583e-08
2.51496e-07
1.11199e-08
2.51281e-07
1.06607e-08
2.51061e-07
1.02029e-08
2.50836e-07
9.74558e-09
2.50609e-07
9.28487e-09
2.5038e-07
8.82143e-09
2.50151e-07
8.34877e-09
2.49925e-07
7.87146e-09
2.49703e-07
7.37879e-09
2.49487e-07
6.88196e-09
2.49278e-07
6.36853e-09
2.4908e-07
5.85517e-09
2.48893e-07
5.34821e-09
2.4872e-07
4.85634e-09
2.48573e-07
4.47623e-09
2.48442e-07
4.19963e-09
2.4843e-07
4.32151e-09
4.89034e-09
2.48599e-07
2.51478e-07
5.27227e-08
2.54548e-07
7.13249e-08
2.55833e-07
5.38505e-08
2.56921e-07
4.58277e-08
2.57632e-07
4.24172e-08
2.58038e-07
3.84489e-08
2.58362e-07
3.48929e-08
2.58656e-07
3.22907e-08
2.58911e-07
3.02372e-08
2.59132e-07
2.84539e-08
2.5933e-07
2.68806e-08
2.5951e-07
2.54933e-08
2.59675e-07
2.42584e-08
2.59827e-07
2.31451e-08
2.59965e-07
2.21312e-08
2.60091e-07
2.12005e-08
2.60205e-07
2.03406e-08
2.60306e-07
1.9541e-08
2.60394e-07
1.87935e-08
2.60469e-07
1.8091e-08
2.60532e-07
1.74278e-08
2.60581e-07
1.67988e-08
2.60616e-07
1.61999e-08
2.60638e-07
1.56272e-08
2.60647e-07
1.50776e-08
2.60643e-07
1.45479e-08
2.60627e-07
1.40356e-08
2.60598e-07
1.35381e-08
2.60557e-07
1.30532e-08
2.60506e-07
1.25787e-08
2.60445e-07
1.21126e-08
2.60375e-07
1.16532e-08
2.60297e-07
1.11982e-08
2.60211e-07
1.07462e-08
2.6012e-07
1.02946e-08
2.60023e-07
9.84228e-09
2.59922e-07
9.38553e-09
2.59819e-07
8.92465e-09
2.59714e-07
8.45367e-09
2.5961e-07
7.97599e-09
2.59506e-07
7.48273e-09
2.59406e-07
6.98193e-09
2.59309e-07
6.46542e-09
2.5922e-07
5.94411e-09
2.59139e-07
5.42938e-09
2.59068e-07
4.9268e-09
2.59023e-07
4.52141e-09
2.59001e-07
4.22184e-09
2.59096e-07
4.22603e-09
4.58967e-09
2.59397e-07
2.58751e-07
4.81552e-08
2.61841e-07
6.82342e-08
2.63098e-07
5.25936e-08
2.64176e-07
4.47501e-08
2.64921e-07
4.16715e-08
2.65349e-07
3.80209e-08
2.65681e-07
3.45616e-08
2.6598e-07
3.1991e-08
2.6624e-07
2.99772e-08
2.66465e-07
2.82292e-08
2.66666e-07
2.66798e-08
2.66849e-07
2.53098e-08
2.67019e-07
2.40892e-08
2.67176e-07
2.29882e-08
2.67322e-07
2.1985e-08
2.67458e-07
2.1064e-08
2.67586e-07
2.0213e-08
2.67705e-07
1.94219e-08
2.67816e-07
1.86826e-08
2.67919e-07
1.79883e-08
2.68013e-07
1.73331e-08
2.681e-07
1.67122e-08
2.68178e-07
1.61214e-08
2.68249e-07
1.55569e-08
2.68311e-07
1.50154e-08
2.68365e-07
1.44938e-08
2.68411e-07
1.39895e-08
2.6845e-07
1.34998e-08
2.6848e-07
1.30224e-08
2.68504e-07
1.25551e-08
2.68521e-07
1.20958e-08
2.68531e-07
1.16426e-08
2.68536e-07
1.11934e-08
2.68536e-07
1.07465e-08
2.68531e-07
1.02994e-08
2.68523e-07
9.85085e-09
2.68511e-07
9.39723e-09
2.68497e-07
8.93845e-09
2.68482e-07
8.4691e-09
2.68466e-07
7.99139e-09
2.68451e-07
7.49809e-09
2.68438e-07
6.99453e-09
2.68428e-07
6.47579e-09
2.68423e-07
5.94857e-09
2.68426e-07
5.4266e-09
2.68438e-07
4.91461e-09
2.68477e-07
4.48324e-09
2.68546e-07
4.15261e-09
2.68731e-07
4.04062e-09
4.18856e-09
2.69132e-07
2.66258e-07
4.38893e-08
2.69358e-07
6.5134e-08
2.70598e-07
5.13544e-08
2.7166e-07
4.36873e-08
2.72438e-07
4.08942e-08
2.7289e-07
3.75692e-08
2.73228e-07
3.42227e-08
2.73534e-07
3.16856e-08
2.738e-07
2.97113e-08
2.74029e-07
2.80001e-08
2.74233e-07
2.64761e-08
2.74418e-07
2.5124e-08
2.7459e-07
2.39178e-08
2.74749e-07
2.2829e-08
2.74898e-07
2.18361e-08
2.75038e-07
2.0924e-08
2.7517e-07
2.00807e-08
2.75295e-07
1.92966e-08
2.75414e-07
1.85636e-08
2.75528e-07
1.78751e-08
2.75635e-07
1.72255e-08
2.75737e-07
1.661e-08
2.75834e-07
1.60244e-08
2.75926e-07
1.5465e-08
2.76013e-07
1.49284e-08
2.76095e-07
1.44118e-08
2.76172e-07
1.39122e-08
2.76245e-07
1.34272e-08
2.76313e-07
1.29542e-08
2.76377e-07
1.24911e-08
2.76437e-07
1.20358e-08
2.76494e-07
1.15862e-08
2.76547e-07
1.11403e-08
2.76597e-07
1.06963e-08
2.76645e-07
1.02517e-08
2.7669e-07
9.80514e-09
2.76734e-07
9.35312e-09
2.76778e-07
8.89518e-09
2.7682e-07
8.42642e-09
2.76864e-07
7.94799e-09
2.76908e-07
7.45404e-09
2.76955e-07
6.94768e-09
2.77004e-07
6.4263e-09
2.77059e-07
5.89365e-09
2.77122e-07
5.36378e-09
2.77195e-07
4.84176e-09
2.77295e-07
4.38296e-09
2.77435e-07
4.01303e-09
2.77688e-07
3.78673e-09
3.71832e-09
2.78159e-07
2.74009e-07
3.99215e-08
2.77108e-07
6.20351e-08
2.7834e-07
5.01225e-08
2.79384e-07
4.26429e-08
2.80189e-07
4.00892e-08
2.80666e-07
3.70921e-08
2.81014e-07
3.38752e-08
2.81324e-07
3.13748e-08
2.81596e-07
2.94393e-08
2.8183e-07
2.77663e-08
2.82037e-07
2.62691e-08
2.82225e-07
2.49358e-08
2.82399e-07
2.37445e-08
2.8256e-07
2.26681e-08
2.8271e-07
2.16857e-08
2.82852e-07
2.07824e-08
2.82986e-07
1.99466e-08
2.83113e-07
1.9169e-08
2.83235e-07
1.84418e-08
2.83352e-07
1.77585e-08
2.83464e-07
1.71134e-08
2.83572e-07
1.65021e-08
2.83676e-07
1.59203e-08
2.83776e-07
1.53645e-08
2.83873e-07
1.48314e-08
2.83967e-07
1.43179e-08
2.84058e-07
1.38213e-08
2.84146e-07
1.3339e-08
2.84232e-07
1.28686e-08
2.84315e-07
1.24078e-08
2.84396e-07
1.19544e-08
2.84476e-07
1.15066e-08
2.84554e-07
1.10622e-08
2.84631e-07
1.06193e-08
2.84707e-07
1.01756e-08
2.84783e-07
9.72943e-09
2.84858e-07
9.27758e-09
2.84934e-07
8.81917e-09
2.85011e-07
8.34978e-09
2.85089e-07
7.86966e-09
2.85169e-07
7.37406e-09
2.85253e-07
6.86433e-09
2.8534e-07
6.33931e-09
2.85433e-07
5.80088e-09
2.85534e-07
5.26191e-09
2.85648e-07
4.72803e-09
2.85791e-07
4.24001e-09
2.85981e-07
3.82324e-09
2.86283e-07
3.48491e-09
3.20649e-09
2.86795e-07
2.82012e-07
3.62466e-08
2.85098e-07
5.89491e-08
2.86332e-07
4.88884e-08
2.87356e-07
4.16196e-08
2.88184e-07
3.92613e-08
2.88687e-07
3.65885e-08
2.89045e-07
3.35179e-08
2.89361e-07
3.10585e-08
2.89639e-07
2.91611e-08
2.89878e-07
2.75274e-08
2.90088e-07
2.60586e-08
2.90279e-07
2.4745e-08
2.90455e-07
2.3569e-08
2.90617e-07
2.25055e-08
2.90769e-07
2.15339e-08
2.90912e-07
2.06396e-08
2.91047e-07
1.98114e-08
2.91176e-07
1.90404e-08
2.91299e-07
1.83189e-08
2.91417e-07
1.76404e-08
2.9153e-07
1.69997e-08
2.9164e-07
1.63922e-08
2.91747e-07
1.58138e-08
2.9185e-07
1.5261e-08
2.91951e-07
1.47306e-08
2.9205e-07
1.42195e-08
2.92146e-07
1.3725e-08
2.9224e-07
1.32446e-08
2.92333e-07
1.27757e-08
2.92425e-07
1.23161e-08
2.92516e-07
1.18637e-08
2.92606e-07
1.14166e-08
2.92696e-07
1.09724e-08
2.92785e-07
1.05296e-08
2.92875e-07
1.00856e-08
2.92966e-07
9.63879e-09
2.93057e-07
9.18605e-09
2.9315e-07
8.72619e-09
2.93245e-07
8.25522e-09
2.93342e-07
7.77258e-09
2.93442e-07
7.27438e-09
2.93545e-07
6.76063e-09
2.93654e-07
6.23095e-09
2.93769e-07
5.686e-09
2.93894e-07
5.13664e-09
2.94033e-07
4.58861e-09
2.94204e-07
4.06956e-09
2.94427e-07
3.59974e-09
2.9476e-07
3.15227e-09
2.67478e-09
2.95292e-07
2.90278e-07
3.28575e-08
2.93339e-07
5.58877e-08
2.94584e-07
4.76433e-08
2.95585e-07
4.06192e-08
2.9643e-07
3.84158e-08
2.96962e-07
3.60574e-08
2.9733e-07
3.31495e-08
2.97652e-07
3.07368e-08
2.97936e-07
2.88767e-08
2.9818e-07
2.7283e-08
2.98395e-07
2.58443e-08
2.98588e-07
2.45513e-08
2.98766e-07
2.33912e-08
2.98931e-07
2.2341e-08
2.99084e-07
2.13805e-08
2.99228e-07
2.04954e-08
2.99365e-07
1.96752e-08
2.99494e-07
1.89109e-08
2.99618e-07
1.81951e-08
2.99737e-07
1.75216e-08
2.99851e-07
1.68852e-08
2.99962e-07
1.62814e-08
3.0007e-07
1.57062e-08
3.00174e-07
1.51563e-08
3.00277e-07
1.46283e-08
3.00377e-07
1.41194e-08
3.00475e-07
1.36267e-08
3.00572e-07
1.31477e-08
3.00668e-07
1.26799e-08
3.00762e-07
1.22212e-08
3.00857e-07
1.17692e-08
3.00951e-07
1.13221e-08
3.01046e-07
1.08777e-08
3.01141e-07
1.04343e-08
3.01238e-07
9.98942e-09
3.01335e-07
9.54136e-09
3.01434e-07
9.08711e-09
3.01535e-07
8.6252e-09
3.01638e-07
8.15199e-09
3.01744e-07
7.66629e-09
3.01854e-07
7.16479e-09
3.01968e-07
6.64652e-09
3.02088e-07
6.11135e-09
3.02215e-07
5.55911e-09
3.02353e-07
4.99819e-09
3.02508e-07
4.4337e-09
3.02696e-07
3.882e-09
3.02941e-07
3.3547e-09
3.03291e-07
2.80174e-09
2.13913e-09
3.03827e-07
2.98815e-07
2.97452e-08
3.0184e-07
5.28631e-08
3.03104e-07
4.63792e-08
3.0408e-07
3.96425e-08
3.04938e-07
3.7558e-08
3.05497e-07
3.54984e-08
3.05878e-07
3.27684e-08
3.06205e-07
3.04096e-08
3.06496e-07
2.85861e-08
3.06746e-07
2.70328e-08
3.06965e-07
2.56258e-08
3.07161e-07
2.43545e-08
3.07342e-07
2.32109e-08
3.07508e-07
2.21743e-08
3.07664e-07
2.12253e-08
3.07809e-07
2.03499e-08
3.07947e-07
1.95377e-08
3.08077e-07
1.87803e-08
3.08202e-07
1.80704e-08
3.08321e-07
1.7402e-08
3.08437e-07
1.67699e-08
3.08548e-07
1.61699e-08
3.08656e-07
1.55981e-08
3.08762e-07
1.5051e-08
3.08865e-07
1.45254e-08
3.08965e-07
1.40186e-08
3.09065e-07
1.35276e-08
3.09162e-07
1.30499e-08
3.09259e-07
1.2583e-08
3.09356e-07
1.21248e-08
3.09452e-07
1.16731e-08
3.09548e-07
1.12258e-08
3.09645e-07
1.0781e-08
3.09742e-07
1.03367e-08
3.09841e-07
9.89064e-09
3.09941e-07
9.441e-09
3.10044e-07
8.98492e-09
3.10148e-07
8.52064e-09
3.10255e-07
8.04484e-09
3.10366e-07
7.55577e-09
3.1048e-07
7.05053e-09
3.10599e-07
6.5274e-09
3.10724e-07
5.98612e-09
3.10858e-07
5.42588e-09
3.11003e-07
4.85247e-09
3.11168e-07
4.26949e-09
3.11366e-07
3.68383e-09
3.11624e-07
3.09648e-09
3.11983e-07
2.44252e-09
1.61049e-09
3.12512e-07
3.07633e-07
2.68993e-08
3.10609e-07
4.98871e-08
3.11899e-07
4.50894e-08
3.12852e-07
3.86896e-08
3.13717e-07
3.66934e-08
3.14303e-07
3.49117e-08
3.14699e-07
3.23731e-08
3.15031e-07
3.00767e-08
3.15328e-07
2.82895e-08
3.15584e-07
2.67766e-08
3.15807e-07
2.54028e-08
3.16007e-07
2.41544e-08
3.1619e-07
2.30278e-08
3.16359e-07
2.20054e-08
3.16517e-07
2.10682e-08
3.16664e-07
2.02027e-08
3.16803e-07
1.93989e-08
3.16934e-07
1.86485e-08
3.1706e-07
1.79447e-08
3.1718e-07
1.72815e-08
3.17296e-07
1.66539e-08
3.17409e-07
1.60578e-08
3.17517e-07
1.54893e-08
3.17623e-07
1.4945e-08
3.17727e-07
1.4422e-08
3.17828e-07
1.39172e-08
3.17928e-07
1.34279e-08
3.18026e-07
1.29515e-08
3.18124e-07
1.24855e-08
3.18221e-07
1.20278e-08
3.18318e-07
1.15762e-08
3.18415e-07
1.11287e-08
3.18513e-07
1.06833e-08
3.18611e-07
1.0238e-08
3.18711e-07
9.79063e-09
3.18813e-07
9.3393e-09
3.18917e-07
8.88123e-09
3.19023e-07
8.41446e-09
3.19132e-07
7.93587e-09
3.19244e-07
7.44331e-09
3.19361e-07
6.93406e-09
3.19482e-07
6.40585e-09
3.1961e-07
5.85807e-09
3.19747e-07
5.28922e-09
3.19897e-07
4.7026e-09
3.20067e-07
4.09947e-09
3.20272e-07
3.47894e-09
3.20538e-07
2.83078e-09
3.20899e-07
2.08099e-09
1.0965e-09
3.21413e-07
3.16743e-07
2.43077e-08
3.19658e-07
4.69719e-08
3.20979e-07
4.37685e-08
3.21909e-07
3.77593e-08
3.22775e-07
3.5827e-08
3.23389e-07
3.42985e-08
3.238e-07
3.19619e-08
3.24139e-07
2.97376e-08
3.24442e-07
2.79868e-08
3.24704e-07
2.65142e-08
3.24932e-07
2.51749e-08
3.25136e-07
2.39506e-08
3.25322e-07
2.28418e-08
3.25493e-07
2.18339e-08
3.25652e-07
2.0909e-08
3.25801e-07
2.00538e-08
3.25942e-07
1.92586e-08
3.26075e-07
1.85155e-08
3.26202e-07
1.78178e-08
3.26323e-07
1.716e-08
3.2644e-07
1.6537e-08
3.26553e-07
1.59448e-08
3.26662e-07
1.53797e-08
3.26769e-07
1.48385e-08
3.26873e-07
1.43179e-08
3.26975e-07
1.38152e-08
3.27075e-07
1.33276e-08
3.27174e-07
1.28525e-08
3.27272e-07
1.23875e-08
3.2737e-07
1.19303e-08
3.27467e-07
1.14788e-08
3.27565e-07
1.1031e-08
3.27663e-07
1.05849e-08
3.27763e-07
1.01386e-08
3.27864e-07
9.68989e-09
3.27966e-07
9.23681e-09
3.28071e-07
8.7767e-09
3.28178e-07
8.3074e-09
3.28288e-07
7.82594e-09
3.28401e-07
7.32984e-09
3.28519e-07
6.81645e-09
3.28642e-07
6.28303e-09
3.28771e-07
5.72846e-09
3.2891e-07
5.15052e-09
3.29062e-07
4.55014e-09
3.29236e-07
3.92563e-09
3.29445e-07
3.26982e-09
3.29714e-07
2.5616e-09
3.30074e-07
1.72191e-09
6.02286e-10
3.30568e-07
3.26153e-07
2.1957e-08
3.28996e-07
4.41292e-08
3.30352e-07
4.24129e-08
3.31261e-07
3.68498e-08
3.32124e-07
3.49638e-08
3.32762e-07
3.36604e-08
3.33191e-07
3.15335e-08
3.33537e-07
2.93918e-08
3.33845e-07
2.76782e-08
3.34114e-07
2.62452e-08
3.34347e-07
2.49417e-08
3.34555e-07
2.3743e-08
3.34744e-07
2.26527e-08
3.34918e-07
2.16597e-08
3.3508e-07
2.07475e-08
3.35231e-07
1.99029e-08
3.35373e-07
1.91165e-08
3.35508e-07
1.83809e-08
3.35636e-07
1.76897e-08
3.35758e-07
1.70373e-08
3.35876e-07
1.64191e-08
3.3599e-07
1.5831e-08
3.361e-07
1.52694e-08
3.36208e-07
1.47311e-08
3.36313e-07
1.42131e-08
3.36415e-07
1.37126e-08
3.36516e-07
1.32267e-08
3.36616e-07
1.27529e-08
3.36714e-07
1.22888e-08
3.36812e-07
1.18321e-08
3.3691e-07
1.13807e-08
3.37009e-07