/*--------------------------------*- C++ -*----------------------------------*\
  =========                 |
  \\      /  F ield         | OpenFOAM: The Open Source CFD Toolbox
   \\    /   O peration     | Website:  https://openfoam.org
    \\  /    A nd           | Version:  7
     \\/     M anipulation  |
\*---------------------------------------------------------------------------*/
FoamFile
{
    version     2.0;
    format      ascii;
    class       volVectorField;
    location    "0.43";
    object      U;
}
// * * * * * * * * * * * * * * * * * * * * * * * * * * * * * * * * * * * * * //

dimensions      [0 1 -1 0 0 0 0];

internalField   nonuniform List<vector> 
70000
(
(0.55339 0.0167231 0)
(0.251258 0.00340105 0)
(0.166195 0.00032203 0)
(0.132448 5.42955e-05 0)
(0.117258 4.57245e-05 0)
(0.107338 5.38876e-05 0)
(0.0993964 4.62435e-05 0)
(0.0929646 3.68945e-05 0)
(0.08773 3.05715e-05 0)
(0.0833723 2.62361e-05 0)
(0.0796632 2.2929e-05 0)
(0.0764547 2.02771e-05 0)
(0.0736455 1.81105e-05 0)
(0.0711616 1.63159e-05 0)
(0.068947 1.48092e-05 0)
(0.0669584 1.35282e-05 0)
(0.0651617 1.24268e-05 0)
(0.0635297 1.14697e-05 0)
(0.0620404 1.06305e-05 0)
(0.060676 9.8876e-06 0)
(0.0594215 9.22493e-06 0)
(0.0582646 8.6286e-06 0)
(0.057195 8.08782e-06 0)
(0.056204 7.59325e-06 0)
(0.055284 7.13764e-06 0)
(0.0544288 6.7139e-06 0)
(0.053633 6.31692e-06 0)
(0.0528919 5.94152e-06 0)
(0.0522017 5.58264e-06 0)
(0.051559 5.23784e-06 0)
(0.050961 4.90007e-06 0)
(0.0504053 4.57099e-06 0)
(0.0498901 4.2393e-06 0)
(0.0494137 3.91375e-06 0)
(0.0489751 3.57408e-06 0)
(0.0485731 3.24319e-06 0)
(0.0482075 2.88625e-06 0)
(0.047878 2.54081e-06 0)
(0.0475833 2.18045e-06 0)
(0.0473271 1.79522e-06 0)
(0.0471008 1.53789e-06 0)
(0.0469224 1.00574e-06 0)
(0.0467529 1.28448e-06 0)
(0.0466653 1.572e-07 0)
(0.046507 2.54251e-06 0)
(0.0465467 -9.60798e-07 0)
(0.0462309 9.76102e-06 0)
(0.0465119 -3.62131e-06 0)
(0.0455012 5.09489e-05 0)
(0.0431142 -0.00175727 0)
(0.884898 0.0431676 0)
(0.649711 0.0201944 0)
(0.494309 0.00659858 0)
(0.403652 0.00276763 0)
(0.354733 0.00155177 0)
(0.323443 0.00113112 0)
(0.299604 0.00090971 0)
(0.280432 0.000745625 0)
(0.264748 0.000622614 0)
(0.25166 0.000531711 0)
(0.240516 0.000462665 0)
(0.230876 0.000408288 0)
(0.222433 0.000364299 0)
(0.214964 0.000328034 0)
(0.208303 0.000297681 0)
(0.202318 0.000271941 0)
(0.196909 0.00024986 0)
(0.191993 0.000230718 0)
(0.187506 0.000213966 0)
(0.183392 0.000199179 0)
(0.179608 0.00018602 0)
(0.176116 0.00017422 0)
(0.172885 0.000163561 0)
(0.16989 0.000153863 0)
(0.167107 0.000144978 0)
(0.164517 0.000136777 0)
(0.162104 0.000129153 0)
(0.159854 0.000122013 0)
(0.157755 0.000115269 0)
(0.155797 0.000108852 0)
(0.15397 0.000102684 0)
(0.152268 9.67141e-05 0)
(0.150685 9.08576e-05 0)
(0.149214 8.50943e-05 0)
(0.147853 7.93027e-05 0)
(0.146598 7.35276e-05 0)
(0.145447 6.7557e-05 0)
(0.1444 6.15773e-05 0)
(0.143452 5.52131e-05 0)
(0.142613 4.88977e-05 0)
(0.141862 4.20779e-05 0)
(0.141247 3.5445e-05 0)
(0.140669 2.87755e-05 0)
(0.140322 2.21833e-05 0)
(0.139818 1.88681e-05 0)
(0.139862 1.32611e-05 0)
(0.139071 2.91215e-05 0)
(0.139838 6.36937e-06 0)
(0.137713 0.000303742 0)
(0.136446 -0.00242866 0)
(0.991238 0.0499018 0)
(0.890343 0.0307197 0)
(0.762672 0.0145985 0)
(0.656659 0.0079798 0)
(0.585343 0.0048842 0)
(0.535959 0.0034697 0)
(0.498122 0.00273355 0)
(0.467541 0.00224072 0)
(0.442271 0.00187713 0)
(0.42101 0.0016051 0)
(0.402812 0.00139721 0)
(0.38701 0.00123347 0)
(0.373127 0.0011011 0)
(0.360815 0.000991982 0)
(0.349809 0.000900633 0)
(0.339902 0.000823148 0)
(0.330932 0.000756661 0)
(0.322768 0.000699016 0)
(0.315305 0.000648571 0)
(0.308455 0.000604045 0)
(0.302146 0.000564431 0)
(0.296317 0.000528924 0)
(0.290919 0.00049687 0)
(0.285907 0.000467732 0)
(0.281245 0.000441066 0)
(0.276902 0.000416492 0)
(0.27285 0.000393691 0)
(0.269066 0.000372382 0)
(0.26553 0.000352316 0)
(0.262224 0.000333278 0)
(0.259135 0.000315055 0)
(0.256249 0.000297482 0)
(0.253556 0.000280344 0)
(0.251046 0.000263538 0)
(0.248714 0.00024678 0)
(0.246551 0.000230107 0)
(0.244556 0.000213019 0)
(0.242724 0.000195915 0)
(0.241051 0.000177768 0)
(0.239549 0.000159872 0)
(0.238187 0.000139999 0)
(0.237034 0.000121581 0)
(0.235949 9.99454e-05 0)
(0.235211 8.31063e-05 0)
(0.234275 6.29497e-05 0)
(0.234133 5.42161e-05 0)
(0.2329 6.0159e-05 0)
(0.233793 3.29601e-05 0)
(0.231042 0.0004461 0)
(0.231488 -0.00195156 0)
(1.0156 0.0489209 0)
(1.00596 0.0358764 0)
(0.93594 0.0207932 0)
(0.852105 0.0135048 0)
(0.782171 0.00920674 0)
(0.726993 0.0067785 0)
(0.681947 0.00537933 0)
(0.644237 0.00443901 0)
(0.612275 0.00374433 0)
(0.584871 0.00321763 0)
(0.561088 0.00281046 0)
(0.540218 0.00248759 0)
(0.521733 0.00222545 0)
(0.505229 0.00200862 0)
(0.490394 0.00182656 0)
(0.476977 0.00167175 0)
(0.464781 0.00153862 0)
(0.453642 0.00142299 0)
(0.443427 0.00132166 0)
(0.434026 0.00123211 0)
(0.425346 0.00115237 0)
(0.417308 0.00108085 0)
(0.409848 0.00101626 0)
(0.402907 0.000957534 0)
(0.396439 0.000903801 0)
(0.390401 0.000854308 0)
(0.384757 0.000808423 0)
(0.379476 0.000765589 0)
(0.374532 0.00072532 0)
(0.369899 0.000687189 0)
(0.36556 0.000650788 0)
(0.361494 0.000615779 0)
(0.35769 0.00058177 0)
(0.354133 0.000548527 0)
(0.350813 0.00051556 0)
(0.347721 0.000482859 0)
(0.344852 0.00044957 0)
(0.342201 0.000416325 0)
(0.33976 0.000381239 0)
(0.33754 0.000346775 0)
(0.335509 0.000308239 0)
(0.333741 0.00027321 0)
(0.332079 0.000229761 0)
(0.330834 0.000198765 0)
(0.329406 0.00015206 0)
(0.328876 0.000139041 0)
(0.327242 0.000120385 0)
(0.327823 0.000102096 0)
(0.324913 0.000553659 0)
(0.325396 -0.00120579 0)
(1.01434 0.0460044 0)
(1.04753 0.0374905 0)
(1.02457 0.0241539 0)
(0.974738 0.0175602 0)
(0.923423 0.0131209 0)
(0.876664 0.0102018 0)
(0.834534 0.00833564 0)
(0.796834 0.00701232 0)
(0.763334 0.00600058 0)
(0.733593 0.00521133 0)
(0.707096 0.00458758 0)
(0.683373 0.00408508 0)
(0.662025 0.00367233 0)
(0.642718 0.00332779 0)
(0.625177 0.00303633 0)
(0.609173 0.00278694 0)
(0.594513 0.00257138 0)
(0.581037 0.00238334 0)
(0.568608 0.00221792 0)
(0.557112 0.00207128 0)
(0.546449 0.00194035 0)
(0.536537 0.00182265 0)
(0.527302 0.00171616 0)
(0.518683 0.0016192 0)
(0.510624 0.00153038 0)
(0.503079 0.00144851 0)
(0.496007 0.00137258 0)
(0.489371 0.0013017 0)
(0.48314 0.00123509 0)
(0.477287 0.00117207 0)
(0.471788 0.001112 0)
(0.466622 0.00105432 0)
(0.461772 0.000998421 0)
(0.457221 0.000943907 0)
(0.452958 0.000890056 0)
(0.44897 0.000836767 0)
(0.445251 0.000782814 0)
(0.441793 0.000729031 0)
(0.438588 0.000672613 0)
(0.435646 0.000617257 0)
(0.432932 0.000555562 0)
(0.430519 0.000499604 0)
(0.428255 0.000429583 0)
(0.426436 0.000379859 0)
(0.424497 0.000302042 0)
(0.423435 0.000277998 0)
(0.421452 0.000233972 0)
(0.421399 0.000210469 0)
(0.418632 0.000709569 0)
(0.418214 -0.000503499 0)
(1.00933 0.0429159 0)
(1.05527 0.0372661 0)
(1.05868 0.0252988 0)
(1.03635 0.0197605 0)
(1.00707 0.01581 0)
(0.976026 0.0129307 0)
(0.944518 0.0109508 0)
(0.913687 0.00946533 0)
(0.884384 0.00827196 0)
(0.856994 0.00730141 0)
(0.831594 0.00650871 0)
(0.808119 0.00585363 0)
(0.786448 0.0053047 0)
(0.766437 0.00483906 0)
(0.747939 0.00443994 0)
(0.730815 0.00409466 0)
(0.714935 0.00379344 0)
(0.700181 0.0035286 0)
(0.686447 0.00329405 0)
(0.67364 0.00308492 0)
(0.661676 0.00289725 0)
(0.650483 0.00272781 0)
(0.639994 0.00257392 0)
(0.630153 0.00243335 0)
(0.620908 0.00230423 0)
(0.612213 0.00218494 0)
(0.604029 0.0020741 0)
(0.59632 0.00197049 0)
(0.589054 0.00187304 0)
(0.582204 0.00178079 0)
(0.575745 0.00169285 0)
(0.569656 0.00160844 0)
(0.563917 0.00152674 0)
(0.558513 0.00144713 0)
(0.55343 0.00136869 0)
(0.548654 0.00129117 0)
(0.544179 0.001213 0)
(0.539996 0.00113513 0)
(0.536097 0.00105393 0)
(0.532486 0.000974148 0)
(0.529138 0.000885968 0)
(0.526109 0.00080529 0)
(0.523273 0.000705818 0)
(0.520875 0.000632383 0)
(0.518449 0.000522635 0)
(0.516802 0.000477827 0)
(0.514508 0.00041447 0)
(0.513715 0.000369537 0)
(0.511085 0.000919557 0)
(0.509858 0.000193246 0)
(1.00625 0.0400345 0)
(1.05206 0.0363388 0)
(1.06608 0.0252285 0)
(1.05958 0.0205608 0)
(1.04685 0.0172372 0)
(1.03076 0.0146503 0)
(1.01187 0.0128092 0)
(0.991203 0.0113795 0)
(0.969828 0.0101785 0)
(0.948475 0.00915872 0)
(0.927588 0.00829449 0)
(0.907428 0.00755785 0)
(0.888141 0.00692429 0)
(0.869795 0.00637491 0)
(0.852409 0.00589516 0)
(0.83597 0.00547349 0)
(0.820446 0.00510059 0)
(0.805795 0.00476885 0)
(0.79197 0.00447205 0)
(0.778923 0.00420505 0)
(0.766606 0.00396356 0)
(0.754972 0.00374402 0)
(0.743977 0.00354341 0)
(0.733582 0.00335919 0)
(0.723748 0.00318917 0)
(0.71444 0.00303143 0)
(0.705628 0.00288434 0)
(0.697281 0.00274643 0)
(0.689374 0.00261638 0)
(0.681882 0.00249301 0)
(0.674786 0.00237522 0)
(0.668065 0.00226203 0)
(0.661703 0.00215242 0)
(0.655685 0.00204558 0)
(0.649999 0.00194038 0)
(0.644632 0.00183642 0)
(0.63958 0.00173184 0)
(0.63483 0.00162763 0)
(0.63038 0.00151947 0)
(0.626229 0.00141284 0)
(0.62236 0.00129616 0)
(0.618812 0.00118788 0)
(0.615492 0.00105764 0)
(0.612585 0.00095606 0)
(0.609738 0.000815387 0)
(0.607549 0.000741165 0)
(0.604977 0.000662934 0)
(0.603515 0.000591843 0)
(0.600906 0.00117152 0)
(0.599182 0.000889835 0)
(1.00495 0.0373566 0)
(1.04727 0.035257 0)
(1.06397 0.0246889 0)
(1.06424 0.0205878 0)
(1.06065 0.0177756 0)
(1.05471 0.0154933 0)
(1.04595 0.0138662 0)
(1.03476 0.0126003 0)
(1.02187 0.0115091 0)
(1.00788 0.0105512 0)
(0.993241 0.00971323 0)
(0.978317 0.00897786 0)
(0.963369 0.00832823 0)
(0.94859 0.00775111 0)
(0.934117 0.00723614 0)
(0.92004 0.00677477 0)
(0.906419 0.0063598 0)
(0.893289 0.00598507 0)
(0.880665 0.00564531 0)
(0.868555 0.00533601 0)
(0.856954 0.0050533 0)
(0.845853 0.00479384 0)
(0.835238 0.00455474 0)
(0.825096 0.00433347 0)
(0.815409 0.00412785 0)
(0.80616 0.0039359 0)
(0.797332 0.00375591 0)
(0.788908 0.0035863 0)
(0.780874 0.00342567 0)
(0.773212 0.0032727 0)
(0.765911 0.00312617 0)
(0.758955 0.00298494 0)
(0.752336 0.00284788 0)
(0.746039 0.00271403 0)
(0.74006 0.00258208 0)
(0.734386 0.00245151 0)
(0.729016 0.00232021 0)
(0.72394 0.00218916 0)
(0.719158 0.00205357 0)
(0.714668 0.00191925 0)
(0.710459 0.00177365 0)
(0.70656 0.00163632 0)
(0.702906 0.00147546 0)
(0.699628 0.00134285 0)
(0.696474 0.00117293 0)
(0.693867 0.00106402 0)
(0.691081 0.00097181 0)
(0.689105 0.000877806 0)
(0.686472 0.00146149 0)
(0.684473 0.00155988 0)
(1.0044 0.0348087 0)
(1.04324 0.034184 0)
(1.05993 0.0240483 0)
(1.06227 0.0202945 0)
(1.06247 0.0178402 0)
(1.06177 0.0157751 0)
(1.05919 0.014321 0)
(1.05464 0.0132197 0)
(1.04843 0.0122698 0)
(1.04088 0.0114228 0)
(1.03227 0.0106681 0)
(1.02285 0.00999227 0)
(1.01287 0.00938248 0)
(1.0025 0.00882917 0)
(0.991925 0.00832529 0)
(0.981263 0.00786514 0)
(0.970621 0.00744387 0)
(0.960079 0.00705717 0)
(0.9497 0.00670128 0)
(0.939528 0.00637282 0)
(0.929597 0.0060688 0)
(0.919932 0.00578657 0)
(0.910549 0.00552373 0)
(0.901457 0.00527813 0)
(0.892664 0.00504787 0)
(0.884172 0.00483116 0)
(0.875981 0.00462644 0)
(0.86809 0.00443219 0)
(0.860495 0.00424707 0)
(0.853193 0.00406977 0)
(0.846179 0.00389907 0)
(0.839449 0.00373378 0)
(0.833 0.00357272 0)
(0.826826 0.00341484 0)
(0.820924 0.00325875 0)
(0.815291 0.00310381 0)
(0.809926 0.00294778 0)
(0.804825 0.00279155 0)
(0.799991 0.00263008 0)
(0.795422 0.00246922 0)
(0.791115 0.00229608 0)
(0.78709 0.00213015 0)
(0.783304 0.00194032 0)
(0.779851 0.00177596 0)
(0.776557 0.00157903 0)
(0.773709 0.0014337 0)
(0.770824 0.00132659 0)
(0.76853 0.00121583 0)
(0.765919 0.00177932 0)
(0.763835 0.00217806 0)
(1.00402 0.0323687 0)
(1.03991 0.0331341 0)
(1.05616 0.0234256 0)
(1.05891 0.0199069 0)
(1.0602 0.0177105 0)
(1.06154 0.0157801 0)
(1.0619 0.0144269 0)
(1.061 0.0134401 0)
(1.05894 0.0126055 0)
(1.05582 0.0118634 0)
(1.05175 0.0112006 0)
(1.04684 0.0106036 0)
(1.0412 0.0100593 0)
(1.03498 0.00955907 0)
(1.02828 0.00909687 0)
(1.02122 0.00866838 0)
(1.01389 0.00827012 0)
(1.00639 0.00789909 0)
(0.998773 0.00755271 0)
(0.99111 0.00722864 0)
(0.983449 0.0069248 0)
(0.975833 0.00663926 0)
(0.968294 0.00637027 0)
(0.960863 0.00611621 0)
(0.95356 0.00587557 0)
(0.946405 0.00564693 0)
(0.939411 0.00542898 0)
(0.93259 0.00522045 0)
(0.925951 0.00502015 0)
(0.919502 0.0048269 0)
(0.913247 0.00463957 0)
(0.90719 0.00445703 0)
(0.901337 0.00427813 0)
(0.895688 0.00410179 0)
(0.890248 0.00392663 0)
(0.885017 0.00375195 0)
(0.880001 0.00357543 0)
(0.875199 0.00339788 0)
(0.870617 0.00321417 0)
(0.866258 0.00302996 0)
(0.862123 0.00283256 0)
(0.858229 0.0026405 0)
(0.854548 0.00242494 0)
(0.851148 0.00223036 0)
(0.847916 0.00200944 0)
(0.845038 0.00182917 0)
(0.842212 0.00170581 0)
(0.839817 0.00158463 0)
(0.837335 0.00210838 0)
(0.835361 0.00271656 0)
(1.00364 0.0300284 0)
(1.03692 0.0320868 0)
(1.05281 0.0228363 0)
(1.05567 0.0195023 0)
(1.0571 0.0175192 0)
(1.05899 0.0156808 0)
(1.06043 0.014375 0)
(1.06111 0.0134509 0)
(1.06111 0.0126893 0)
(1.06046 0.0120209 0)
(1.05916 0.0114296 0)
(1.05723 0.0109005 0)
(1.0547 0.0104195 0)
(1.05162 0.00997644 0)
(1.04806 0.00956498 0)
(1.04406 0.00918069 0)
(1.0397 0.00882025 0)
(1.03504 0.00848105 0)
(1.03012 0.00816096 0)
(1.025 0.00785818 0)
(1.01974 0.00757111 0)
(1.01436 0.00729836 0)
(1.00891 0.00703862 0)
(1.00342 0.00679069 0)
(0.997925 0.00655344 0)
(0.992438 0.00632577 0)
(0.986988 0.00610666 0)
(0.981592 0.00589508 0)
(0.976267 0.00569004 0)
(0.971027 0.00549053 0)
(0.965885 0.00529558 0)
(0.96085 0.00510414 0)
(0.955935 0.00491516 0)
(0.951145 0.00472762 0)
(0.94649 0.00454014 0)
(0.941976 0.00435203 0)
(0.937612 0.00416094 0)
(0.933402 0.00396761 0)
(0.929354 0.00376693 0)
(0.925476 0.00356424 0)
(0.921771 0.00334745 0)
(0.918256 0.00313347 0)
(0.914915 0.00289683 0)
(0.911798 0.00267559 0)
(0.908834 0.0024345 0)
(0.906143 0.0022233 0)
(0.903546 0.00208287 0)
(0.90127 0.0019564 0)
(0.899049 0.0024253 0)
(0.89737 0.00315343 0)
(1.00327 0.0277887 0)
(1.03409 0.0310283 0)
(1.0497 0.0222734 0)
(1.05271 0.0190956 0)
(1.0541 0.0173091 0)
(1.05605 0.0155523 0)
(1.05775 0.0142685 0)
(1.05896 0.0133744 0)
(1.05977 0.0126532 0)
(1.06023 0.0120276 0)
(1.06031 0.0114807 0)
(1.06001 0.0109975 0)
(1.05932 0.0105627 0)
(1.05824 0.0101651 0)
(1.05678 0.00979724 0)
(1.05496 0.00945407 0)
(1.05281 0.00913178 0)
(1.05037 0.00882749 0)
(1.04765 0.00853892 0)
(1.04469 0.00826426 0)
(1.04153 0.008002 0)
(1.03819 0.00775087 0)
(1.0347 0.00750974 0)
(1.03109 0.00727759 0)
(1.02738 0.00705347 0)
(1.02359 0.00683647 0)
(1.01976 0.00662575 0)
(1.01589 0.00642042 0)
(1.01201 0.00621967 0)
(1.00813 0.00602263 0)
(1.00427 0.00582843 0)
(1.00044 0.00563614 0)
(0.996657 0.00544478 0)
(0.992925 0.00525339 0)
(0.989259 0.00506065 0)
(0.985668 0.00486586 0)
(0.982163 0.00466669 0)
(0.978752 0.00446381 0)
(0.975445 0.00425222 0)
(0.972251 0.0040368 0)
(0.969177 0.00380636 0)
(0.966239 0.00357574 0)
(0.963429 0.00332345 0)
(0.960785 0.00308055 0)
(0.958266 0.00282365 0)
(0.955948 0.00258716 0)
(0.953735 0.00242957 0)
(0.95177 0.00230108 0)
(0.94994 0.00270428 0)
(0.948705 0.00347247 0)
(1.00292 0.025653 0)
(1.03138 0.0299541 0)
(1.0467 0.0217327 0)
(1.04992 0.0186869 0)
(1.05129 0.0170869 0)
(1.05319 0.0154168 0)
(1.05493 0.0141484 0)
(1.05626 0.0132698 0)
(1.0573 0.0125713 0)
(1.05814 0.0119692 0)
(1.05879 0.0114464 0)
(1.05922 0.0109893 0)
(1.05943 0.0105825 0)
(1.0594 0.0102142 0)
(1.05914 0.00987639 0)
(1.05863 0.00956338 0)
(1.05789 0.00927085 0)
(1.05692 0.00899548 0)
(1.05573 0.00873463 0)
(1.05433 0.00848623 0)
(1.05274 0.00824858 0)
(1.05098 0.00802028 0)
(1.04906 0.00780013 0)
(1.047 0.00758708 0)
(1.04481 0.00738018 0)
(1.04251 0.00717854 0)
(1.04012 0.00698134 0)
(1.03766 0.00678775 0)
(1.03513 0.006597 0)
(1.03255 0.00640827 0)
(1.02994 0.00622076 0)
(1.02731 0.00603359 0)
(1.02466 0.00584581 0)
(1.02202 0.00565652 0)
(1.0194 0.00546438 0)
(1.0168 0.00526875 0)
(1.01423 0.00506727 0)
(1.0117 0.00486053 0)
(1.00923 0.0046437 0)
(1.00682 0.00442108 0)
(1.00449 0.00418261 0)
(1.00224 0.00394077 0)
(1.00007 0.00367824 0)
(0.998021 0.0034192 0)
(0.996061 0.00315079 0)
(0.994244 0.00289522 0)
(0.992524 0.00272096 0)
(0.991003 0.00259144 0)
(0.989661 0.00292186 0)
(0.988962 0.00366378 0)
(1.0026 0.023624 0)
(1.02879 0.028863 0)
(1.04378 0.0212129 0)
(1.04723 0.0182761 0)
(1.04861 0.0168512 0)
(1.05047 0.0152767 0)
(1.0522 0.0140257 0)
(1.05354 0.0131578 0)
(1.05462 0.0124755 0)
(1.05555 0.0118881 0)
(1.05637 0.0113787 0)
(1.05707 0.0109353 0)
(1.05764 0.0105437 0)
(1.05807 0.0101919 0)
(1.05837 0.00987172 0)
(1.05853 0.00957732 0)
(1.05855 0.00930411 0)
(1.05841 0.00904845 0)
(1.05813 0.00880746 0)
(1.05771 0.0085788 0)
(1.05714 0.00836053 0)
(1.05644 0.00815108 0)
(1.05561 0.00794907 0)
(1.05466 0.00775331 0)
(1.05359 0.00756276 0)
(1.05242 0.00737643 0)
(1.05115 0.00719343 0)
(1.0498 0.00701288 0)
(1.04837 0.00683397 0)
(1.04688 0.00665585 0)
(1.04533 0.0064777 0)
(1.04374 0.00629864 0)
(1.04211 0.00611772 0)
(1.04045 0.00593403 0)
(1.03877 0.0057462 0)
(1.03709 0.00555359 0)
(1.0354 0.00535383 0)
(1.03373 0.00514737 0)
(1.03207 0.00492962 0)
(1.03044 0.00470417 0)
(1.02884 0.00446219 0)
(1.0273 0.00421375 0)
(1.0258 0.00394552 0)
(1.02437 0.00367539 0)
(1.023 0.00339909 0)
(1.02174 0.00313009 0)
(1.02055 0.00293987 0)
(1.01954 0.00280773 0)
(1.01873 0.00306143 0)
(1.01859 0.00372495 0)
(1.0023 0.0217035 0)
(1.02634 0.0277557 0)
(1.04095 0.0207124 0)
(1.04462 0.0178647 0)
(1.04602 0.0166008 0)
(1.04786 0.0151307 0)
(1.04958 0.0139016 0)
(1.05091 0.0130436 0)
(1.05198 0.0123756 0)
(1.05292 0.0118005 0)
(1.05377 0.0113001 0)
(1.05453 0.010865 0)
(1.05521 0.0104817 0)
(1.05581 0.0101389 0)
(1.05634 0.00982832 0)
(1.05678 0.00954421 0)
(1.05714 0.00928199 0)
(1.05741 0.00903798 0)
(1.05759 0.00880916 0)
(1.05769 0.00859308 0)
(1.05769 0.00838767 0)
(1.05761 0.00819121 0)
(1.05744 0.00800219 0)
(1.05718 0.00781931 0)
(1.05683 0.00764138 0)
(1.05641 0.00746732 0)
(1.05591 0.00729613 0)
(1.05533 0.00712684 0)
(1.0547 0.00695854 0)
(1.054 0.00679033 0)
(1.05324 0.00662132 0)
(1.05244 0.0064506 0)
(1.05159 0.00627713 0)
(1.05071 0.00610001 0)
(1.0498 0.00591781 0)
(1.04887 0.00572983 0)
(1.04792 0.00553369 0)
(1.04697 0.00532968 0)
(1.04601 0.00511343 0)
(1.04506 0.00488782 0)
(1.04411 0.00464524 0)
(1.0432 0.00439339 0)
(1.0423 0.00412252 0)
(1.04145 0.00384519 0)
(1.04064 0.00356343 0)
(1.0399 0.00328523 0)
(1.03923 0.00307945 0)
(1.03871 0.00294081 0)
(1.03841 0.00311574 0)
(1.03879 0.00366273 0)
(1.00203 0.0198922 0)
(1.02401 0.0266354 0)
(1.03821 0.0202282 0)
(1.0421 0.0174546 0)
(1.04352 0.0163356 0)
(1.04533 0.0149772 0)
(1.04706 0.0137755 0)
(1.04838 0.0129274 0)
(1.04944 0.0122738 0)
(1.05037 0.0117108 0)
(1.05121 0.0112185 0)
(1.05197 0.0107897 0)
(1.05267 0.0104122 0)
(1.05331 0.0100749 0)
(1.0539 0.00976983 0)
(1.05443 0.0094914 0)
(1.05492 0.00923517 0)
(1.05535 0.00899751 0)
(1.05574 0.00877544 0)
(1.05607 0.00856648 0)
(1.05635 0.00836854 0)
(1.05658 0.00817985 0)
(1.05675 0.00799885 0)
(1.05686 0.00782415 0)
(1.05693 0.00765451 0)
(1.05694 0.00748875 0)
(1.05689 0.00732578 0)
(1.0568 0.00716457 0)
(1.05666 0.00700411 0)
(1.05647 0.00684343 0)
(1.05625 0.00668157 0)
(1.05598 0.00651755 0)
(1.05568 0.00635029 0)
(1.05534 0.00617883 0)
(1.05498 0.00600167 0)
(1.0546 0.00581807 0)
(1.0542 0.00562564 0)
(1.05378 0.00542443 0)
(1.05336 0.00521039 0)
(1.05293 0.00498559 0)
(1.05251 0.0047436 0)
(1.05209 0.00448997 0)
(1.05169 0.00421792 0)
(1.05131 0.00393577 0)
(1.05096 0.00364967 0)
(1.05066 0.0033647 0)
(1.05042 0.00314307 0)
(1.05034 0.00299243 0)
(1.05049 0.00308734 0)
(1.05131 0.00349232 0)
(1.00179 0.0181905 0)
(1.02183 0.025506 0)
(1.03557 0.0197563 0)
(1.03966 0.0170477 0)
(1.04112 0.0160565 0)
(1.04289 0.0148154 0)
(1.04461 0.0136469 0)
(1.04594 0.0128091 0)
(1.04699 0.0121698 0)
(1.0479 0.0116195 0)
(1.04873 0.0111357 0)
(1.04949 0.0107128 0)
(1.05018 0.0103403 0)
(1.05082 0.0100074 0)
(1.05141 0.0097063 0)
(1.05196 0.00943158 0)
(1.05248 0.00917895 0)
(1.05297 0.00894491 0)
(1.05342 0.00872656 0)
(1.05384 0.00852145 0)
(1.05423 0.00832755 0)
(1.05459 0.00814309 0)
(1.05491 0.00796651 0)
(1.0552 0.00779641 0)
(1.05546 0.00763151 0)
(1.05569 0.00747061 0)
(1.05589 0.00731257 0)
(1.05605 0.00715628 0)
(1.05619 0.0070007 0)
(1.0563 0.00684481 0)
(1.05638 0.00668756 0)
(1.05643 0.00652796 0)
(1.05646 0.00636484 0)
(1.05647 0.00619722 0)
(1.05646 0.00602355 0)
(1.05643 0.005843 0)
(1.05639 0.00565322 0)
(1.05634 0.00545402 0)
(1.05628 0.00524162 0)
(1.05621 0.00501737 0)
(1.05615 0.00477589 0)
(1.0561 0.00452083 0)
(1.05605 0.00424775 0)
(1.05602 0.00396181 0)
(1.05601 0.00367127 0)
(1.05605 0.00338027 0)
(1.05615 0.00314172 0)
(1.0564 0.00297265 0)
(1.05689 0.0029866 0)
(1.05804 0.00323527 0)
(1.00157 0.0165979 0)
(1.01978 0.0243712 0)
(1.03304 0.0192928 0)
(1.03731 0.0166457 0)
(1.0388 0.0157647 0)
(1.04054 0.0146446 0)
(1.04226 0.0135154 0)
(1.04359 0.0126886 0)
(1.04463 0.0120634 0)
(1.04553 0.0115265 0)
(1.04635 0.0110516 0)
(1.04709 0.010635 0)
(1.04777 0.0102675 0)
(1.0484 0.00993871 0)
(1.04898 0.00964118 0)
(1.04953 0.00936951 0)
(1.05005 0.00911961 0)
(1.05054 0.00888806 0)
(1.05101 0.00867207 0)
(1.05145 0.00846925 0)
(1.05187 0.00827762 0)
(1.05227 0.00809544 0)
(1.05265 0.0079212 0)
(1.05301 0.0077535 0)
(1.05335 0.00759107 0)
(1.05367 0.00743269 0)
(1.05398 0.00727721 0)
(1.05426 0.00712351 0)
(1.05453 0.00697049 0)
(1.05478 0.00681711 0)
(1.05502 0.00666228 0)
(1.05524 0.00650498 0)
(1.05545 0.00634401 0)
(1.05564 0.00617834 0)
(1.05583 0.00600642 0)
(1.05601 0.00582732 0)
(1.05618 0.00563876 0)
(1.05634 0.00544027 0)
(1.05651 0.00522842 0)
(1.05667 0.00500383 0)
(1.05684 0.00476203 0)
(1.05701 0.00450512 0)
(1.05719 0.00423035 0)
(1.05739 0.00394062 0)
(1.05761 0.00364485 0)
(1.05788 0.00334715 0)
(1.05821 0.00309016 0)
(1.0587 0.00289607 0)
(1.05944 0.00282802 0)
(1.0608 0.00291586 0)
(1.00137 0.0151135 0)
(1.01787 0.0232353 0)
(1.03061 0.0188337 0)
(1.03504 0.01625 0)
(1.03658 0.0154616 0)
(1.03828 0.0144642 0)
(1.03999 0.0133808 0)
(1.04133 0.0125659 0)
(1.04236 0.0119547 0)
(1.04325 0.0114316 0)
(1.04406 0.0109663 0)
(1.04479 0.0105562 0)
(1.04545 0.0101938 0)
(1.04607 0.00986931 0)
(1.04664 0.00957533 0)
(1.04718 0.00930662 0)
(1.04769 0.00905921 0)
(1.04817 0.00882982 0)
(1.04863 0.00861571 0)
(1.04907 0.00841458 0)
(1.0495 0.00822448 0)
(1.0499 0.00804372 0)
(1.0503 0.00787082 0)
(1.05067 0.00770441 0)
(1.05104 0.00754324 0)
(1.05139 0.00738609 0)
(1.05174 0.00723181 0)
(1.05207 0.00707925 0)
(1.05239 0.00692731 0)
(1.0527 0.00677493 0)
(1.053 0.00662101 0)
(1.0533 0.00646449 0)
(1.05359 0.00630416 0)
(1.05388 0.00613899 0)
(1.05416 0.00596738 0)
(1.05444 0.00578837 0)
(1.05472 0.00559971 0)
(1.055 0.00540073 0)
(1.05528 0.00518828 0)
(1.05557 0.00496235 0)
(1.05586 0.00471923 0)
(1.05616 0.00445976 0)
(1.05648 0.00418232 0)
(1.05681 0.00388828 0)
(1.05717 0.00358614 0)
(1.05758 0.00328024 0)
(1.05805 0.00300317 0)
(1.0587 0.00277765 0)
(1.05959 0.00262755 0)
(1.06107 0.00255655 0)
(1.0012 0.0137358 0)
(1.0161 0.0221022 0)
(1.02829 0.0183754 0)
(1.03287 0.0158619 0)
(1.03446 0.0151489 0)
(1.03611 0.0142736 0)
(1.03781 0.0132426 0)
(1.03915 0.0124411 0)
(1.04019 0.0118434 0)
(1.04107 0.0113347 0)
(1.04186 0.0108796 0)
(1.04258 0.0104763 0)
(1.04323 0.0101192 0)
(1.04384 0.00979918 0)
(1.0444 0.00950887 0)
(1.04493 0.00924318 0)
(1.04542 0.00899828 0)
(1.0459 0.00877101 0)
(1.04635 0.00855869 0)
(1.04678 0.00835907 0)
(1.04719 0.00817026 0)
(1.0476 0.00799061 0)
(1.04798 0.00781866 0)
(1.04836 0.00765309 0)
(1.04873 0.00749264 0)
(1.04908 0.00733612 0)
(1.04943 0.00718235 0)
(1.04978 0.00703021 0)
(1.05011 0.00687857 0)
(1.05044 0.00672635 0)
(1.05077 0.00657245 0)
(1.05109 0.00641581 0)
(1.05142 0.0062552 0)
(1.05174 0.00608956 0)
(1.05206 0.00591733 0)
(1.05239 0.00573745 0)
(1.05271 0.00554778 0)
(1.05304 0.00534741 0)
(1.05338 0.00513346 0)
(1.05372 0.00490538 0)
(1.05407 0.00466006 0)
(1.05444 0.00439735 0)
(1.05482 0.00411628 0)
(1.05522 0.00381725 0)
(1.05565 0.00350756 0)
(1.05613 0.00319172 0)
(1.05669 0.00289285 0)
(1.05742 0.0026305 0)
(1.0584 0.00239946 0)
(1.05992 0.00217552 0)
(1.00104 0.0124625 0)
(1.01446 0.0209763 0)
(1.02607 0.0179144 0)
(1.03078 0.0154821 0)
(1.03243 0.0148287 0)
(1.03404 0.0140724 0)
(1.03572 0.0131002 0)
(1.03706 0.0123141 0)
(1.0381 0.0117297 0)
(1.03897 0.0112357 0)
(1.03975 0.0107913 0)
(1.04046 0.0103953 0)
(1.0411 0.0100437 0)
(1.0417 0.00972826 0)
(1.04225 0.00944175 0)
(1.04277 0.00917919 0)
(1.04325 0.00893689 0)
(1.04371 0.00871178 0)
(1.04415 0.00850126 0)
(1.04458 0.00830314 0)
(1.04498 0.00811558 0)
(1.04537 0.00793696 0)
(1.04575 0.00776587 0)
(1.04612 0.00760098 0)
(1.04648 0.00744106 0)
(1.04684 0.00728493 0)
(1.04718 0.00713141 0)
(1.04752 0.00697936 0)
(1.04786 0.00682765 0)
(1.04819 0.00667521 0)
(1.04852 0.0065209 0)
(1.04885 0.00636368 0)
(1.04918 0.00620229 0)
(1.04951 0.00603568 0)
(1.04984 0.00586228 0)
(1.05018 0.00568099 0)
(1.05052 0.00548974 0)
(1.05087 0.00528742 0)
(1.05122 0.00507138 0)
(1.05158 0.00484063 0)
(1.05196 0.00459247 0)
(1.05235 0.00432602 0)
(1.05276 0.00404059 0)
(1.05319 0.00373589 0)
(1.05365 0.00341769 0)
(1.05417 0.00309007 0)
(1.05476 0.00276794 0)
(1.05553 0.00246477 0)
(1.05655 0.00215441 0)
(1.05806 0.00178617 0)
(1.0009 0.0112908 0)
(1.01295 0.0198619 0)
(1.02398 0.0174476 0)
(1.02877 0.0151111 0)
(1.03049 0.0145028 0)
(1.03207 0.0138604 0)
(1.03372 0.0129531 0)
(1.03507 0.012185 0)
(1.0361 0.0116135 0)
(1.03696 0.0111343 0)
(1.03773 0.0107014 0)
(1.03843 0.010313 0)
(1.03907 0.00996715 0)
(1.03965 0.00965646 0)
(1.04019 0.0093739 0)
(1.0407 0.0091146 0)
(1.04118 0.00887498 0)
(1.04163 0.0086521 0)
(1.04206 0.00844344 0)
(1.04247 0.00824687 0)
(1.04287 0.00806058 0)
(1.04325 0.007883 0)
(1.04362 0.00771274 0)
(1.04398 0.0075485 0)
(1.04433 0.00738907 0)
(1.04468 0.00723326 0)
(1.04502 0.00707989 0)
(1.04535 0.00692782 0)
(1.04568 0.00677592 0)
(1.046 0.00662308 0)
(1.04633 0.00646818 0)
(1.04665 0.00631016 0)
(1.04698 0.00614778 0)
(1.04731 0.00597994 0)
(1.04764 0.00580512 0)
(1.04797 0.00562214 0)
(1.04832 0.00542901 0)
(1.04866 0.00522445 0)
(1.04902 0.00500599 0)
(1.04939 0.00477227 0)
(1.04977 0.00452087 0)
(1.05016 0.00425036 0)
(1.05057 0.00396004 0)
(1.05101 0.0036491 0)
(1.05148 0.0033216 0)
(1.05201 0.00298062 0)
(1.05263 0.00263404 0)
(1.05341 0.00228728 0)
(1.05443 0.00190037 0)
(1.0559 0.0013974 0)
(1.00078 0.010217 0)
(1.01157 0.0187635 0)
(1.02199 0.0169723 0)
(1.02685 0.014749 0)
(1.02865 0.0141736 0)
(1.03018 0.0136376 0)
(1.03181 0.0128005 0)
(1.03316 0.0120537 0)
(1.03419 0.0114948 0)
(1.03505 0.0110304 0)
(1.03581 0.0106096 0)
(1.0365 0.0102294 0)
(1.03713 0.00988948 0)
(1.0377 0.00958371 0)
(1.03823 0.00930525 0)
(1.03873 0.00904933 0)
(1.0392 0.0088125 0)
(1.03964 0.00859193 0)
(1.04006 0.00838519 0)
(1.04046 0.00819021 0)
(1.04085 0.00800523 0)
(1.04122 0.00782872 0)
(1.04159 0.00765932 0)
(1.04194 0.00749574 0)
(1.04228 0.0073368 0)
(1.04262 0.0071813 0)
(1.04295 0.00702806 0)
(1.04327 0.00687594 0)
(1.04359 0.00672379 0)
(1.04391 0.00657051 0)
(1.04423 0.00641495 0)
(1.04455 0.00625604 0)
(1.04486 0.00609256 0)
(1.04519 0.00592339 0)
(1.04551 0.00574704 0)
(1.04584 0.00556225 0)
(1.04618 0.00536711 0)
(1.04652 0.00516017 0)
(1.04687 0.00493912 0)
(1.04724 0.00470229 0)
(1.04761 0.00444742 0)
(1.048 0.00417265 0)
(1.04841 0.00387708 0)
(1.04885 0.00355944 0)
(1.04931 0.00322202 0)
(1.04985 0.00286644 0)
(1.05046 0.00249436 0)
(1.05124 0.00210293 0)
(1.05224 0.00164234 0)
(1.05365 0.00101634 0)
(1.00067 0.00923709 0)
(1.01031 0.0176854 0)
(1.02012 0.0164863 0)
(1.02502 0.0143955 0)
(1.02689 0.0138429 0)
(1.02839 0.0134042 0)
(1.02998 0.0126419 0)
(1.03133 0.0119201 0)
(1.03237 0.0113737 0)
(1.03322 0.0109241 0)
(1.03397 0.0105159 0)
(1.03466 0.0101443 0)
(1.03527 0.0098106 0)
(1.03584 0.00950991 0)
(1.03636 0.00923571 0)
(1.03685 0.0089833 0)
(1.03731 0.00874936 0)
(1.03775 0.00853119 0)
(1.03816 0.00832644 0)
(1.03855 0.00813311 0)
(1.03893 0.0079495 0)
(1.0393 0.00777409 0)
(1.03965 0.00760557 0)
(1.03999 0.00744269 0)
(1.04033 0.00728424 0)
(1.04065 0.00712906 0)
(1.04098 0.00697596 0)
(1.04129 0.00682379 0)
(1.04161 0.00667138 0)
(1.04192 0.00651762 0)
(1.04223 0.00636138 0)
(1.04254 0.00620156 0)
(1.04285 0.00603695 0)
(1.04316 0.00586641 0)
(1.04348 0.00568847 0)
(1.0438 0.00550183 0)
(1.04413 0.00530461 0)
(1.04447 0.00509525 0)
(1.04481 0.00487153 0)
(1.04517 0.00463153 0)
(1.04553 0.00437305 0)
(1.04592 0.00409391 0)
(1.04632 0.00379287 0)
(1.04675 0.00346814 0)
(1.04721 0.00312037 0)
(1.04773 0.0027491 0)
(1.04834 0.00235105 0)
(1.04911 0.00191477 0)
(1.05008 0.00138441 0)
(1.05141 0.000647513 0)
(1.00058 0.00834651 0)
(1.00916 0.0166322 0)
(1.01836 0.0159879 0)
(1.02327 0.01405 0)
(1.02522 0.0135126 0)
(1.02669 0.013161 0)
(1.02825 0.0124767 0)
(1.0296 0.0117838 0)
(1.03064 0.0112502 0)
(1.03148 0.0108151 0)
(1.03223 0.0104201 0)
(1.0329 0.0100576 0)
(1.03351 0.00973042 0)
(1.03407 0.00943498 0)
(1.03459 0.00916519 0)
(1.03507 0.00891644 0)
(1.03552 0.0086855 0)
(1.03594 0.00846981 0)
(1.03635 0.00826712 0)
(1.03673 0.00807551 0)
(1.0371 0.0078933 0)
(1.03746 0.00771904 0)
(1.03781 0.00755144 0)
(1.03814 0.00738928 0)
(1.03847 0.00723136 0)
(1.03879 0.00707652 0)
(1.0391 0.00692356 0)
(1.03941 0.00677134 0)
(1.03972 0.00661867 0)
(1.04002 0.00646444 0)
(1.04032 0.0063075 0)
(1.04063 0.00614676 0)
(1.04093 0.005981 0)
(1.04124 0.00580908 0)
(1.04155 0.00562954 0)
(1.04186 0.00544102 0)
(1.04218 0.00524171 0)
(1.04251 0.00502992 0)
(1.04285 0.00480348 0)
(1.04319 0.0045603 0)
(1.04355 0.00429814 0)
(1.04393 0.00401455 0)
(1.04432 0.0037079 0)
(1.04474 0.00337578 0)
(1.04519 0.00301733 0)
(1.0457 0.00262965 0)
(1.0463 0.00220546 0)
(1.04704 0.00172511 0)
(1.04798 0.00112934 0)
(1.04923 0.000295297 0)
(1.0005 0.0075402 0)
(1.00813 0.0156078 0)
(1.01672 0.0154761 0)
(1.0216 0.0137116 0)
(1.02363 0.0131847 0)
(1.02508 0.0129085 0)
(1.0266 0.0123043 0)
(1.02794 0.0116447 0)
(1.02899 0.0111244 0)
(1.02983 0.0107035 0)
(1.03056 0.010322 0)
(1.03123 0.00996917 0)
(1.03184 0.00964884 0)
(1.03239 0.00935882 0)
(1.0329 0.0090936 0)
(1.03337 0.00884864 0)