/*--------------------------------*- C++ -*----------------------------------*\
  =========                 |
  \\      /  F ield         | OpenFOAM: The Open Source CFD Toolbox
   \\    /   O peration     | Website:  https://openfoam.org
    \\  /    A nd           | Version:  7
     \\/     M anipulation  |
\*---------------------------------------------------------------------------*/
FoamFile
{
    version     2.0;
    format      ascii;
    class       volVectorField;
    location    "0.43";
    object      wallShearStress;
}
// * * * * * * * * * * * * * * * * * * * * * * * * * * * * * * * * * * * * * //

dimensions      [0 2 -2 0 0 0 0];

internalField   uniform (0 0 0);

boundaryField
{
    velocityInlet
    {
        type            calculated;
        value           uniform (0 0 0);
    }
    pressureOutlet
    {
        type            calculated;
        value           uniform (0 0 0);
    }
    fixedWalls
    {
        type            calculated;
        value           nonuniform List<vector> 
100
(
(-0.0143892 -0.00803893 0)
(0.0116909 -0.00141843 0)
(0.00156395 6.71085e-05 0)
(0.00749708 -0.000347028 0)
(0.00597912 1.66485e-05 0)
(0.00547683 0.000232271 0)
(0.00371693 0.000250168 0)
(0.00256473 0.000193849 0)
(0.00180444 0.00011334 0)
(0.00154674 3.97659e-05 0)
(0.00165566 -2.05921e-05 0)
(0.00199881 -5.91158e-05 0)
(0.00243903 -7.61499e-05 0)
(0.00286124 -7.4202e-05 0)
(0.00317372 -5.81704e-05 0)
(0.00331548 -3.46009e-05 0)
(0.00325132 -2.39398e-06 0)
(0.00297769 2.80591e-05 0)
(0.00251624 5.58979e-05 0)
(0.00192342 7.19642e-05 0)
(0.001295 7.1291e-05 0)
(0.000725621 5.46431e-05 0)
(0.000204171 5.47366e-05 0)
(-0.000577227 0.000100313 0)
(-0.00210925 0.00020281 0)
(-0.00428734 0.000265461 0)
(-0.00636634 0.00022777 0)
(-0.00810389 0.000227533 0)
(-0.00972359 0.000281383 0)
(-0.0105437 0.000206678 0)
(-0.00878976 -0.000241993 0)
(-0.00362807 -0.00082448 0)
(0.00326392 -0.000961427 0)
(0.00891047 -0.00081316 0)
(0.0118272 -0.000402184 0)
(0.0116886 3.39821e-05 0)
(0.00920897 0.000330232 0)
(0.00562899 0.000436108 0)
(0.00208094 0.000392227 0)
(-0.00074868 0.000300651 0)
(-0.00266773 0.000191499 0)
(-0.00381776 0.000110106 0)
(-0.00442037 5.73053e-05 0)
(-0.00467439 2.61918e-05 0)
(-0.0047101 6.87866e-06 0)
(-0.00460264 -7.14251e-06 0)
(-0.00439655 -1.71976e-05 0)
(-0.00412232 -2.44932e-05 0)
(-0.00380478 -2.92775e-05 0)
(-0.00346647 -3.14618e-05 0)
(-0.00312727 -3.11714e-05 0)
(-0.00280091 -2.92231e-05 0)
(-0.00249041 -2.71318e-05 0)
(-0.00218625 -2.66802e-05 0)
(-0.00186923 -2.92176e-05 0)
(-0.00151816 -3.49442e-05 0)
(-0.00112102 -4.24781e-05 0)
(-0.000686689 -4.88358e-05 0)
(-0.000251596 -5.04716e-05 0)
(0.000125626 -4.40613e-05 0)
(0.000378642 -3.01665e-05 0)
(0.000456751 -1.10311e-05 0)
(0.000348929 9.8578e-06 0)
(8.44053e-05 2.48757e-05 0)
(-0.000281162 3.51585e-05 0)
(-0.000684473 3.91307e-05 0)
(-0.00107474 3.7637e-05 0)
(-0.00141876 3.31784e-05 0)
(-0.00169989 2.76265e-05 0)
(-0.00191316 2.20379e-05 0)
(-0.00205632 1.64894e-05 0)
(-0.00212019 1.0651e-05 0)
(-0.00208426 8.95126e-07 0)
(-0.00192053 -1.24959e-05 0)
(-0.00160672 -2.92021e-05 0)
(-0.00114981 -4.54742e-05 0)
(-0.000615664 -5.39152e-05 0)
(-0.000134141 -4.75777e-05 0)
(0.000139455 -2.61601e-05 0)
(0.000104535 3.80486e-06 0)
(-0.000221883 2.77903e-05 0)
(-0.000717053 4.30669e-05 0)
(-0.00123576 4.39163e-05 0)
(-0.00167313 3.56845e-05 0)
(-0.00197933 2.42201e-05 0)
(-0.00214816 1.30491e-05 0)
(-0.00220172 4.49072e-06 0)
(-0.00216907 -2.19307e-06 0)
(-0.0020821 -6.3327e-06 0)
(-0.00196384 -8.41493e-06 0)
(-0.001827 -1.02528e-05 0)
(-0.00168504 -1.10503e-05 0)
(-0.0015329 -1.24065e-05 0)
(-0.00142061 -1.00127e-05 0)
(-0.00133351 -6.10936e-06 0)
(-0.00138495 3.19108e-06 0)
(-0.00149662 1.22985e-05 0)
(-0.00170555 2.0394e-05 0)
(-0.00204343 2.21158e-05 0)
(-0.00187519 -3.54979e-06 0)
)
;
    }
    bottomWall
    {
        type            calculated;
        value           nonuniform List<vector> 
800
(
(-0.0353488 0.00214397 0)
(-0.0160268 0.000524822 0)
(-0.0106083 0.000100704 0)
(-0.00845673 3.52484e-05 0)
(-0.00748732 1.98488e-05 0)
(-0.00685392 1.61107e-05 0)
(-0.00634663 1.33454e-05 0)
(-0.00593569 1.08895e-05 0)
(-0.00560111 9.06831e-06 0)
(-0.00532245 7.75246e-06 0)
(-0.00508511 6.75622e-06 0)
(-0.00487968 5.96927e-06 0)
(-0.00469966 5.33185e-06 0)
(-0.00454032 4.80649e-06 0)
(-0.00439808 4.36734e-06 0)
(-0.00427016 3.99583e-06 0)
(-0.00415438 3.67791e-06 0)
(-0.004049 3.40338e-06 0)
(-0.00395259 3.16424e-06 0)
(-0.003864 2.95428e-06 0)
(-0.00378228 2.76879e-06 0)
(-0.00370661 2.60379e-06 0)
(-0.00363632 2.45639e-06 0)
(-0.00357083 2.32397e-06 0)
(-0.00350965 2.20427e-06 0)
(-0.00345236 2.09586e-06 0)
(-0.00339857 1.99734e-06 0)
(-0.00334797 1.90731e-06 0)
(-0.00330027 1.82469e-06 0)
(-0.00325523 1.74886e-06 0)
(-0.00321262 1.67894e-06 0)
(-0.00317226 1.6142e-06 0)
(-0.00313396 1.55432e-06 0)
(-0.00309757 1.49874e-06 0)
(-0.00306294 1.44691e-06 0)
(-0.00302996 1.39858e-06 0)
(-0.0029985 1.35339e-06 0)
(-0.00296846 1.31096e-06 0)
(-0.00293976 1.27132e-06 0)
(-0.00291229 1.23399e-06 0)
(-0.002886 1.19881e-06 0)
(-0.00286079 1.16567e-06 0)
(-0.00283661 1.13434e-06 0)
(-0.00281341 1.10481e-06 0)
(-0.0027911 1.07699e-06 0)
(-0.00276966 1.0502e-06 0)
(-0.00274903 1.02537e-06 0)
(-0.00272917 1.00098e-06 0)
(-0.00271002 9.79043e-07 0)
(-0.00269158 9.55529e-07 0)
(-0.00267618 9.36242e-07 0)
(-0.00266346 9.25423e-07 0)
(-0.0026509 9.11381e-07 0)
(-0.00263854 8.96511e-07 0)
(-0.00262637 8.82635e-07 0)
(-0.00261438 8.69172e-07 0)
(-0.00260259 8.56255e-07 0)
(-0.00259095 8.43575e-07 0)
(-0.0025795 8.31156e-07 0)
(-0.00256821 8.1916e-07 0)
(-0.00255708 8.07244e-07 0)
(-0.00254611 7.95738e-07 0)
(-0.00253529 7.84307e-07 0)
(-0.00252464 7.7328e-07 0)
(-0.00251412 7.62491e-07 0)
(-0.00250376 7.51935e-07 0)
(-0.00249353 7.41613e-07 0)
(-0.00248345 7.31356e-07 0)
(-0.00247351 7.21493e-07 0)
(-0.00246369 7.11692e-07 0)
(-0.00245401 7.02114e-07 0)
(-0.00244446 6.92928e-07 0)
(-0.00243503 6.83797e-07 0)
(-0.00242573 6.74718e-07 0)
(-0.00241655 6.66025e-07 0)
(-0.00240748 6.57383e-07 0)
(-0.00239854 6.48956e-07 0)
(-0.0023897 6.40744e-07 0)
(-0.00238098 6.3258e-07 0)
(-0.00237237 6.24795e-07 0)
(-0.00236386 6.16888e-07 0)
(-0.00235546 6.09192e-07 0)
(-0.00234717 6.01874e-07 0)
(-0.00233897 5.94432e-07 0)
(-0.00233087 5.87198e-07 0)
(-0.00232287 5.80173e-07 0)
(-0.00231497 5.73188e-07 0)
(-0.00230716 5.6641e-07 0)
(-0.00229944 5.59839e-07 0)
(-0.00229181 5.53305e-07 0)
(-0.00228427 5.46808e-07 0)
(-0.00227682 5.40515e-07 0)
(-0.00226945 5.34425e-07 0)
(-0.00226217 5.2837e-07 0)
(-0.00225497 5.22348e-07 0)
(-0.00224785 5.16525e-07 0)
(-0.00224081 5.10901e-07 0)
(-0.00223384 5.05308e-07 0)
(-0.00222695 4.99745e-07 0)
(-0.00222014 4.94211e-07 0)
(-0.00221341 4.88871e-07 0)
(-0.00220674 4.83724e-07 0)
(-0.00220014 4.78603e-07 0)
(-0.00219362 4.73509e-07 0)
(-0.00218717 4.68438e-07 0)
(-0.00218078 4.63559e-07 0)
(-0.00217446 4.5887e-07 0)
(-0.0021682 4.54205e-07 0)
(-0.00216201 4.49563e-07 0)
(-0.00215588 4.44942e-07 0)
(-0.00214982 4.40345e-07 0)
(-0.00214382 4.35936e-07 0)
(-0.00213787 4.31715e-07 0)
(-0.00213198 4.2735e-07 0)
(-0.00212616 4.23172e-07 0)
(-0.00212039 4.19015e-07 0)
(-0.00211468 4.15045e-07 0)
(-0.00210902 4.11097e-07 0)
(-0.00210342 4.07001e-07 0)
(-0.00209787 4.03259e-07 0)
(-0.00209238 3.99535e-07 0)
(-0.00208693 3.95831e-07 0)
(-0.00208154 3.92146e-07 0)
(-0.00207619 3.88478e-07 0)
(-0.0020709 3.84995e-07 0)
(-0.00206565 3.81529e-07 0)
(-0.00206045 3.78079e-07 0)
(-0.0020553 3.74813e-07 0)
(-0.00205019 3.71396e-07 0)
(-0.00204514 3.68163e-07 0)
(-0.00204012 3.65112e-07 0)
(-0.00203515 3.61743e-07 0)
(-0.00203022 3.58722e-07 0)
(-0.00202533 3.55716e-07 0)
(-0.00202049 3.52725e-07 0)
(-0.00201569 3.49746e-07 0)
(-0.00201093 3.46784e-07 0)
(-0.00200621 3.43997e-07 0)
(-0.00200153 3.41229e-07 0)
(-0.00199688 3.38466e-07 0)
(-0.00199227 3.35728e-07 0)
(-0.0019877 3.33148e-07 0)
(-0.00198317 3.30446e-07 0)
(-0.00197868 3.27707e-07 0)
(-0.00197422 3.25219e-07 0)
(-0.0019698 3.22805e-07 0)
(-0.0019654 3.20379e-07 0)
(-0.00196105 3.17601e-07 0)
(-0.00195673 3.15397e-07 0)
(-0.00195244 3.12994e-07 0)
(-0.00194884 3.10382e-07 0)
(-0.0019459 3.09168e-07 0)
(-0.00194296 3.07943e-07 0)
(-0.00194 3.06383e-07 0)
(-0.00193704 3.04634e-07 0)
(-0.00193407 3.02928e-07 0)
(-0.00193111 3.01467e-07 0)
(-0.00192813 2.99782e-07 0)
(-0.00192516 2.98329e-07 0)
(-0.00192217 2.96886e-07 0)
(-0.00191918 2.95223e-07 0)
(-0.00191619 2.9357e-07 0)
(-0.00191319 2.92143e-07 0)
(-0.00191018 2.90728e-07 0)
(-0.00190718 2.89094e-07 0)
(-0.00190416 2.8769e-07 0)
(-0.00190114 2.86076e-07 0)
(-0.00189812 2.8447e-07 0)
(-0.0018951 2.83083e-07 0)
(-0.00189207 2.81703e-07 0)
(-0.00188903 2.8012e-07 0)
(-0.00188599 2.78542e-07 0)
(-0.00188294 2.77176e-07 0)
(-0.00187989 2.75821e-07 0)
(-0.00187683 2.74263e-07 0)
(-0.00187377 2.72715e-07 0)
(-0.00187071 2.71374e-07 0)
(-0.00186764 2.70038e-07 0)
(-0.00186456 2.6851e-07 0)
(-0.00186148 2.66988e-07 0)
(-0.0018584 2.6547e-07 0)
(-0.00185532 2.63965e-07 0)
(-0.00185223 2.62653e-07 0)
(-0.00184913 2.61351e-07 0)
(-0.00184603 2.59862e-07 0)
(-0.00184292 2.5838e-07 0)
(-0.00183982 2.57092e-07 0)
(-0.0018367 2.55625e-07 0)
(-0.00183358 2.54345e-07 0)
(-0.00183046 2.52895e-07 0)
(-0.00182733 2.51444e-07 0)
(-0.0018242 2.50187e-07 0)
(-0.00182106 2.48575e-07 0)
(-0.00181793 2.47328e-07 0)
(-0.00181478 2.46086e-07 0)
(-0.00181163 2.44499e-07 0)
(-0.00180849 2.43269e-07 0)
(-0.00180533 2.42047e-07 0)
(-0.00180217 2.40483e-07 0)
(-0.00179901 2.39272e-07 0)
(-0.00179583 2.38065e-07 0)
(-0.00179266 2.36529e-07 0)
(-0.00178949 2.35332e-07 0)
(-0.0017863 2.33979e-07 0)
(-0.00178312 2.32627e-07 0)
(-0.00177993 2.31451e-07 0)
(-0.00177674 2.30112e-07 0)
(-0.00177354 2.28946e-07 0)
(-0.00177033 2.27621e-07 0)
(-0.00176713 2.26146e-07 0)
(-0.00176392 2.24991e-07 0)
(-0.00176071 2.23845e-07 0)
(-0.00175749 2.22542e-07 0)
(-0.00175426 2.21249e-07 0)
(-0.00175104 2.19957e-07 0)
(-0.00174781 2.18675e-07 0)
(-0.00174458 2.17397e-07 0)
(-0.00174134 2.16276e-07 0)
(-0.0017381 2.15157e-07 0)
(-0.00173485 2.13897e-07 0)
(-0.0017316 2.1249e-07 0)
(-0.00172835 2.11392e-07 0)
(-0.00172509 2.10286e-07 0)
(-0.00172182 2.09058e-07 0)
(-0.00171856 2.0781e-07 0)
(-0.00171529 2.06612e-07 0)
(-0.00171201 2.055e-07 0)
(-0.00170873 2.04361e-07 0)
(-0.00170545 2.03193e-07 0)
(-0.00170215 2.02321e-07 0)
(-0.00169886 2.01e-07 0)
(-0.00169555 2.00142e-07 0)
(-0.00169226 1.98694e-07 0)
(-0.00168893 1.98518e-07 0)
(-0.00168563 1.96209e-07 0)
(-0.00168227 1.97367e-07 0)
(-0.00167899 1.93206e-07 0)
(-0.00167556 1.97128e-07 0)
(-0.00167234 1.88923e-07 0)
(-0.00166879 1.99572e-07 0)
(-0.0016657 1.815e-07 0)
(-0.00166191 2.0694e-07 0)
(-0.00165911 1.67462e-07 0)
(-0.00165485 2.24432e-07 0)
(-0.00165264 1.39832e-07 0)
(-0.00164753 2.607e-07 0)
(-0.00164634 8.80192e-08 0)
(-0.00163992 3.252e-07 0)
(-0.00164021 5.73495e-09 0)
(-0.00163209 3.58286e-07 0)
(-0.0353488 -0.00214398 0)
(-0.0160264 -0.000524838 0)
(-0.0106075 -0.000100717 0)
(-0.00845577 -3.52568e-05 0)
(-0.00748623 -1.98544e-05 0)
(-0.0068529 -1.61115e-05 0)
(-0.00634586 -1.33427e-05 0)
(-0.00593523 -1.08842e-05 0)
(-0.00560103 -9.06052e-06 0)
(-0.00532282 -7.74221e-06 0)
(-0.00508602 -6.74347e-06 0)
(-0.00488118 -5.95395e-06 0)
(-0.00470183 -5.31355e-06 0)
(-0.00454325 -4.78487e-06 0)
(-0.00440186 -4.34197e-06 0)
(-0.0042749 -3.96616e-06 0)
(-0.00416019 -3.64362e-06 0)
(-0.004056 -3.3639e-06 0)
(-0.00396091 -3.1189e-06 0)
(-0.0038738 -2.90246e-06 0)
(-0.00379371 -2.70983e-06 0)
(-0.00371985 -2.53683e-06 0)
(-0.00365156 -2.38028e-06 0)
(-0.00358829 -2.23771e-06 0)
(-0.00352956 -2.10691e-06 0)
(-0.00347496 -1.98581e-06 0)
(-0.00342415 -1.87304e-06 0)
(-0.00337684 -1.76705e-06 0)
(-0.00333277 -1.66652e-06 0)
(-0.00329174 -1.57056e-06 0)
(-0.00325356 -1.47784e-06 0)
(-0.00321808 -1.38772e-06 0)
(-0.00318519 -1.2987e-06 0)
(-0.00315477 -1.21086e-06 0)
(-0.00312677 -1.12205e-06 0)
(-0.00310111 -1.03348e-06 0)
(-0.00307776 -9.41307e-07 0)
(-0.00305673 -8.49831e-07 0)
(-0.00303791 -7.52667e-07 0)
(-0.00302156 -6.56572e-07 0)
(-0.00300711 -5.59288e-07 0)
(-0.00299572 -4.59357e-07 0)
(-0.0029849 -3.88895e-07 0)
(-0.00297931 -2.8573e-07 0)
(-0.0029692 -3.4782e-07 0)
(-0.00297175 -2.35004e-07 0)
(-0.00295157 -8.66176e-07 0)
(-0.00296959 -5.5592e-07 0)
(-0.00290184 -8.37936e-06 0)
(-0.0027795 0.000202001 0)
(-4.686e-05 3.05093e-05 0)
(-3.08839e-05 0.000119259 0)
(1.59977e-06 0.000178723 0)
(2.13173e-06 0.000224061 0)
(-8.86043e-05 0.00034848 0)
(-0.000232372 0.000630883 0)
(-0.000294761 0.000999399 0)
(-0.00026974 0.0013214 0)
(-0.000224393 0.00157361 0)
(-0.000159359 0.00174421 0)
(-9.256e-05 0.00183146 0)
(-3.1982e-05 0.00184905 0)
(2.38157e-05 0.00180365 0)
(7.21498e-05 0.00170545 0)
(0.000114384 0.00155922 0)
(0.000149835 0.00137333 0)
(0.000178503 0.00115522 0)
(0.000199755 0.000913228 0)
(0.000213454 0.000655771 0)
(0.000219833 0.000391044 0)
(0.000218962 0.000126608 0)
(0.00021272 -0.000130702 0)
(0.000201352 -0.000375212 0)
(0.000187492 -0.000605093 0)
(0.000171153 -0.000814847 0)
(0.000154019 -0.00100467 0)
(0.000137176 -0.00117528 0)
(0.000121463 -0.00132849 0)
(0.000107319 -0.00146524 0)
(9.50507e-05 -0.00158757 0)
(8.47374e-05 -0.00169762 0)
(7.62786e-05 -0.00179746 0)
(6.94452e-05 -0.00188894 0)
(6.39234e-05 -0.00197364 0)
(5.93624e-05 -0.00205275 0)
(5.54269e-05 -0.00212712 0)
(5.18074e-05 -0.00219733 0)
(4.82411e-05 -0.00226361 0)
(4.45112e-05 -0.00232605 0)
(4.04507e-05 -0.00238448 0)
(3.59412e-05 -0.00243872 0)
(3.08683e-05 -0.00248845 0)
(2.51721e-05 -0.00253329 0)
(1.88135e-05 -0.00257289 0)
(1.17046e-05 -0.00260683 0)
(3.78306e-06 -0.00263469 0)
(-5.02028e-06 -0.00265604 0)
(-1.49264e-05 -0.00267039 0)
(-2.61683e-05 -0.00267722 0)
(-3.924e-05 -0.00267595 0)
(-5.44104e-05 -0.00266586 0)
(-7.21533e-05 -0.00264612 0)
(-9.29116e-05 -0.00261564 0)
(-0.000117044 -0.00257304 0)
(-0.000144921 -0.00251746 0)
(-0.000178593 -0.0024469 0)
(-0.000217877 -0.0023575 0)
(-0.000260791 -0.00225029 0)
(-0.000316992 -0.0021216 0)
(-0.000381124 -0.00195687 0)
(-0.00043428 -0.0017786 0)
(-0.000541244 -0.00159585 0)
(-0.0007285 -0.00130085 0)
(-0.000781475 -0.000840189 0)
(-0.000547731 -0.000372974 0)
(-0.000179138 -6.05456e-05 0)
(0.000154683 0.000102533 0)
(0.000395149 0.000165667 0)
(0.000524697 0.000162385 0)
(0.000548185 0.000124499 0)
(0.000476152 7.71352e-05 0)
(0.0003438 3.91455e-05 0)
(0.000186984 1.3925e-05 0)
(3.17708e-05 5.99612e-06 0)
(-9.29669e-05 2.07239e-05 0)
(-0.000163247 4.98707e-05 0)
(-0.000177568 7.50202e-05 0)
(-0.000150175 8.50618e-05 0)
(-9.82847e-05 7.79041e-05 0)
(-3.5554e-05 5.29537e-05 0)
(2.35827e-05 1.07105e-05 0)
(6.84688e-05 -4.42215e-05 0)
(9.58269e-05 -0.000105527 0)
(0.000106362 -0.00016555 0)
(0.000105285 -0.000219269 0)
(9.76107e-05 -0.000266295 0)
(8.51133e-05 -0.000306937 0)
(6.8439e-05 -0.000339813 0)
(4.88171e-05 -0.000363212 0)
(2.80942e-05 -0.000376559 0)
(8.05539e-06 -0.000380192 0)
(-9.543e-06 -0.000374956 0)
(-2.29663e-05 -0.000362675 0)
(-3.06535e-05 -0.00034598 0)
(-3.15919e-05 -0.000328233 0)
(-2.56893e-05 -0.000313025 0)
(-1.40803e-05 -0.000303532 0)
(1.64236e-06 -0.000302797 0)
(1.95737e-05 -0.000311853 0)
(3.70736e-05 -0.000330981 0)
(5.18534e-05 -0.000359113 0)
(6.20521e-05 -0.000394457 0)
(6.61341e-05 -0.000434558 0)
(6.30082e-05 -0.000476334 0)
(5.22733e-05 -0.000516275 0)
(3.4295e-05 -0.0005509 0)
(1.0215e-05 -0.000577061 0)
(-1.84198e-05 -0.000592321 0)
(-4.93711e-05 -0.000594327 0)
(-7.91921e-05 -0.000581883 0)
(-0.000104236 -0.00055541 0)
(-0.000120814 -0.000516588 0)
(-0.000125544 -0.000468908 0)
(-0.000116331 -0.000417134 0)
(-9.3434e-05 -0.000367191 0)
(-5.93066e-05 -0.00032452 0)
(-1.69414e-05 -0.000292672 0)
(3.26715e-05 -0.000273404 0)
(8.73325e-05 -0.000269085 0)
(0.00013604 -0.000276568 0)
(0.000172813 -0.000277909 0)
(0.000208537 -0.000279528 0)
(0.000212125 -0.00032809 0)
(0.000105462 -0.000416074 0)
(-0.000140893 -0.000427417 0)
(-0.000411661 -0.000256208 0)
(-0.00056064 1.71388e-05 0)
(-0.000592963 0.000257716 0)
(-0.000578676 0.00044098 0)
(-0.000545371 0.000589647 0)
(-0.000502881 0.000716875 0)
(-0.00045586 0.000826238 0)
(-0.000407115 0.00091943 0)
(-0.000358328 0.000997705 0)
(-0.000310511 0.00106218 0)
(-0.000264252 0.00111389 0)
(-0.000219862 0.00115379 0)
(-0.00017747 0.00118273 0)
(-0.000137067 0.00120158 0)
(-9.84649e-05 0.0012111 0)
(-6.15882e-05 0.00121187 0)
(-2.63963e-05 0.00120464 0)
(7.65216e-06 0.00119016 0)
(4.11038e-05 0.00116866 0)
(7.41817e-05 0.00114034 0)
(0.000107182 0.00110535 0)
(0.00014036 0.00106375 0)
(0.000173925 0.00101554 0)
(0.000208004 0.00096067 0)
(0.000242626 0.00089902 0)
(0.000277714 0.000830487 0)
(0.000313206 0.000754948 0)
(0.000349118 0.000672578 0)
(0.000388013 0.000588524 0)
(0.000427359 0.000497178 0)
(0.000466669 0.000397254 0)
(0.000504119 0.000287648 0)
(0.000537377 0.000168714 0)
(0.00056466 4.2528e-05 0)
(0.000584727 -8.7939e-05 0)
(0.000597129 -0.00021958 0)
(0.000602443 -0.000350077 0)
(0.000601998 -0.000478503 0)
(0.000596079 -0.000604845 0)
(0.000590758 -0.000735969 0)
(0.000578858 -0.000864022 0)
(0.000560502 -0.000987686 0)
(0.000535843 -0.00110574 0)
(0.000505285 -0.00121703 0)
(0.000469384 -0.00132062 0)
(0.000428689 -0.0014158 0)
(0.000383728 -0.00150202 0)
(0.000334994 -0.00157885 0)
(0.000282964 -0.00164597 0)
(0.000228068 -0.00170318 0)
(0.000170646 -0.00175036 0)
(0.000111152 -0.00178743 0)
(4.97764e-05 -0.00181445 0)
(-1.26879e-05 -0.00183131 0)
(-7.69852e-05 -0.00183843 0)
(-0.000143354 -0.00183469 0)
(-0.000210283 -0.0018202 0)
(-0.000277527 -0.00179747 0)
(-0.00034435 -0.00176479 0)
(-0.000409937 -0.00172086 0)
(-0.000473687 -0.00166594 0)
(-0.000534818 -0.00160026 0)
(-0.000592421 -0.00152412 0)
(-0.000645568 -0.00143794 0)
(-0.00069323 -0.00134227 0)
(-0.000734405 -0.00123798 0)
(-0.00076826 -0.00112587 0)
(-0.000796091 -0.00100962 0)
(-0.000814749 -0.000886815 0)
(-0.000822728 -0.000758595 0)
(-0.000818734 -0.000630602 0)
(-0.000805705 -0.000524258 0)
(-0.000803855 -0.000493413 0)
(-0.000851741 -0.000619083 0)
(-0.000990088 -0.000957921 0)
(7.06996e-06 5.84715e-05 0)
(-7.22467e-05 9.23943e-05 0)
(-0.000169162 0.00011447 0)
(-0.0002831 0.00013194 0)
(-0.000414112 0.000143549 0)
(-0.000552515 0.000145033 0)
(-0.000687888 0.000135217 0)
(-0.000810121 0.000114441 0)
(-0.000910271 8.42438e-05 0)
(-0.000981094 4.71994e-05 0)
(-0.00101762 6.80432e-06 0)
(-0.00101808 -3.35363e-05 0)
(-0.000983683 -6.98918e-05 0)
(-0.000920987 -9.87568e-05 0)
(-0.000838221 -0.000119133 0)
(-0.000743182 -0.000131934 0)
(-0.000641441 -0.000139054 0)
(-0.000535691 -0.000142483 0)
(-0.000426641 -0.000143356 0)
(-0.000315182 -0.000141555 0)
(-0.000204245 -0.00013685 0)
(-9.84993e-05 -0.000131072 0)
(1.28602e-06 -0.000127721 0)
(0.000100077 -0.000128248 0)
(0.000205003 -0.000127425 0)
(0.000317966 -0.000121017 0)
(0.000432554 -9.84681e-05 0)
(0.000514664 -5.0151e-05 0)
(0.000530781 1.35736e-05 0)
(0.000483529 8.78543e-05 0)
(0.000403797 0.000170251 0)
(0.000272114 0.000224513 0)
(0.000127343 0.000242116 0)
(1.05772e-06 0.000236828 0)
(-7.77252e-05 0.000220117 0)
(-0.000112023 0.000179854 0)
(-0.000114432 7.71028e-05 0)
(-7.72347e-05 -7.73248e-05 0)
(4.1101e-05 -0.000208032 0)
(0.00019241 -0.000225844 0)
(0.000307058 -0.000166611 0)
(0.000384127 -0.000109001 0)
(0.00045483 -8.275e-05 0)
(0.000530115 -7.21142e-05 0)
(0.000606072 -6.83023e-05 0)
(0.000681724 -7.04421e-05 0)
(0.000757043 -7.37188e-05 0)
(0.000828902 -7.54017e-05 0)
(0.00089487 -7.3846e-05 0)
(0.000951884 -6.81624e-05 0)
(0.000997264 -5.83141e-05 0)
(0.00102856 -4.45712e-05 0)
(0.00104371 -2.76402e-05 0)
(0.00104067 -8.12086e-06 0)
(0.00101797 1.35625e-05 0)
(0.000974731 3.71844e-05 0)
(0.000909994 6.23311e-05 0)
(0.000823344 8.83394e-05 0)
(0.000715797 0.000114526 0)
(0.000588626 0.000140207 0)
(0.000441288 0.000164272 0)
(0.000273538 0.000184677 0)
(9.01642e-05 0.00019945 0)
(-0.000101441 0.000211298 0)
(-0.000299805 0.000218891 0)
(-0.000500815 0.00022212 0)
(-0.000701072 0.000223096 0)
(-0.00089912 0.000222234 0)
(-0.00109394 0.000220328 0)
(-0.0012856 0.000216202 0)
(-0.001473 0.000207639 0)
(-0.00165228 0.000193211 0)
(-0.00182127 0.000159223 0)
(-0.00195751 0.000107855 0)
(-0.00205902 1.68331e-05 0)
(-0.00207809 -0.000104465 0)
(-0.0020252 -0.0002852 0)
(-0.0018103 -0.000498052 0)
(-0.00143898 -0.000744884 0)
(-0.000667863 -0.00091138 0)
(0.000127418 -0.00038895 0)
(0.000193354 6.56651e-05 0)
(0.000217057 1.27365e-05 0)
(0.000259312 9.65698e-06 0)
(0.000320107 -1.01689e-05 0)
(0.00036772 -4.75594e-05 0)
(0.000458783 -0.000133282 0)
(0.000620542 -0.000241065 0)
(0.000839724 -0.000291317 0)
(0.00103072 -0.000234758 0)
(0.00112383 -0.000119165 0)
(0.00111801 -6.92648e-06 0)
(0.00104084 8.04308e-05 0)
(0.000919504 0.000144997 0)
(0.000762838 0.000189751 0)
(0.000586646 0.000212742 0)
(0.000404193 0.000217918 0)
(0.000219633 0.000202327 0)
(4.09359e-05 0.000138227 0)
(-3.63121e-05 5.16025e-06 0)
(-1.84019e-05 -7.76311e-06 0)
(7.16674e-05 7.94375e-05 0)
(0.000105987 0.00024986 0)
(6.47721e-05 0.000343861 0)
(2.2345e-05 0.000370138 0)
(-1.51906e-05 0.0003418 0)
(-3.84655e-05 0.000281339 0)
(-6.10807e-05 0.000195116 0)
(-7.89392e-05 7.92193e-05 0)
(-8.0192e-05 -5.24659e-05 0)
(-6.26641e-05 -0.00017382 0)
(-4.1952e-05 -0.000254339 0)
(-3.93123e-05 -0.000303495 0)
(-5.43933e-05 -0.000354758 0)
(-7.59569e-05 -0.000428148 0)
(-9.71992e-05 -0.000523958 0)
(-0.000118211 -0.000637957 0)
(-0.000136545 -0.000771864 0)
(-0.000146635 -0.000916267 0)
(-0.000156497 -0.00106768 0)
(-0.000166338 -0.00124153 0)
(-0.000161438 -0.00143709 0)
(-0.000125564 -0.00162643 0)
(-5.24979e-05 -0.00176791 0)
(5.63298e-05 -0.00182306 0)
(0.000193862 -0.00176007 0)
(0.000342141 -0.00156273 0)
(0.000478595 -0.00122213 0)
(0.000562699 -0.000749758 0)
(0.000544512 -0.00020939 0)
(0.000418945 0.000292404 0)
(0.000244648 0.0006804 0)
(9.37583e-05 0.000913727 0)
(2.68314e-06 0.00098615 0)
(-4.8077e-05 0.000977622 0)
(-9.76678e-05 0.000920132 0)
(-0.000152992 0.000804957 0)
(-0.00019479 0.000627696 0)
(-0.000199139 0.000420634 0)
(-0.000147445 0.00022908 0)
(-5.85373e-05 0.000107179 0)
(-3.26346e-05 5.80259e-05 0)
(-0.000109507 1.03671e-05 0)
(-0.000222967 -5.59008e-05 0)
(-0.00033278 -0.000108617 0)
(-0.000414425 -0.000149605 0)
(-0.000417498 -0.00019285 0)
(-0.00031204 -0.000206644 0)
(-0.0001069 -0.000143097 0)
(0.000162755 2.60478e-05 0)
(0.000422761 0.00033135 0)
(0.000506251 0.000713495 0)
(0.000399931 0.00100917 0)
(0.000328603 0.00119535 0)
(0.00032672 0.00138183 0)
(0.000302746 0.00158276 0)
(0.000283367 0.00175732 0)
(0.000272783 0.00192619 0)
(0.000257684 0.00208797 0)
(0.00024805 0.00223851 0)
(0.000238945 0.0023844 0)
(0.000231288 0.00252251 0)
(0.000225392 0.0026547 0)
(0.000219619 0.00278087 0)
(0.000214281 0.00290043 0)
(0.000208197 0.0030136 0)
(0.000201064 0.00311954 0)
(0.000192445 0.00321803 0)
(0.000182091 0.00330859 0)
(0.000170117 0.00339098 0)
(0.000156737 0.00346521 0)
(0.000142476 0.00353146 0)
(0.000127958 0.00359024 0)
(0.00011388 0.00364228 0)
(0.000100905 0.00368854 0)
(8.96188e-05 0.00373016 0)
(8.05542e-05 0.00376846 0)
(7.42048e-05 0.00380447 0)
(7.10519e-05 0.00383934 0)
(7.15576e-05 0.00387419 0)
(7.61192e-05 0.00391005 0)
(8.49691e-05 0.00394781 0)
(9.80132e-05 0.00398818 0)
(0.000114604 0.00403198 0)
(0.0001333 0.00407956 0)
(0.000151739 0.00413029 0)
(0.000166834 0.004183 0)
(0.000175296 0.00423558 0)
(0.000174415 0.00428494 0)
(0.000162935 0.00432742 0)
(0.000141614 0.00435937 0)
(0.000113134 0.00437813 0)
(8.11638e-05 0.00438258 0)
(4.97544e-05 0.00437306 0)
(2.16837e-05 0.0043525 0)
(-3.35632e-06 0.00432357 0)
(-2.60956e-05 0.00428713 0)
(-4.62054e-05 0.00424388 0)
(-6.32836e-05 0.00419517 0)
(-7.75276e-05 0.00414244 0)
(-8.93654e-05 0.00408666 0)
(-9.91198e-05 0.00402858 0)
(-0.000107069 0.00396884 0)
(-0.000113509 0.00390798 0)
(-0.00011875 0.00384642 0)
(-0.00012305 0.00378443 0)
(-0.000126625 0.00372221 0)
(-0.000129675 0.00365992 0)
(-0.000132358 0.00359763 0)
(-0.000134794 0.00353537 0)
(-0.000137071 0.00347316 0)
(-0.000139258 0.00341102 0)
(-0.000141407 0.00334894 0)
(-0.000143544 0.00328689 0)
(-0.00014569 0.00322489 0)
(-0.000147859 0.00316291 0)
(-0.000150061 0.00310096 0)
(-0.000152296 0.00303902 0)
(-0.000154583 0.0029771 0)
(-0.000156927 0.00291519 0)
(-0.000159332 0.00285327 0)
(-0.000161823 0.00279134 0)
(-0.000164407 0.00272939 0)
(-0.000167102 0.00266739 0)
(-0.000169937 0.00260533 0)
(-0.000172922 0.00254317 0)
(-0.000176072 0.00248088 0)
(-0.000179406 0.00241843 0)
(-0.000182944 0.00235577 0)
(-0.000186711 0.00229288 0)
(-0.000190709 0.00222969 0)
(-0.000194948 0.00216617 0)
(-0.000199445 0.00210227 0)
(-0.00020421 0.00203796 0)
(-0.000209246 0.00197317 0)
(-0.000214561 0.00190789 0)
(-0.000220167 0.00184205 0)
(-0.000226059 0.00177562 0)
(-0.000232243 0.00170857 0)
(-0.000238724 0.00164086 0)
(-0.000245511 0.00157247 0)
(-0.000252607 0.00150335 0)
(-0.000260023 0.00143348 0)
(-0.000267755 0.00136282 0)
(-0.000275811 0.00129135 0)
(-0.000284179 0.00121902 0)
(-0.000292856 0.00114583 0)
(-0.000301856 0.00107174 0)
(-0.000311143 0.000996687 0)
(-0.000320676 0.000920619 0)
(-0.000330384 0.000843467 0)
(-0.000340148 0.000765222 0)
(-0.000349896 0.000685958 0)
(-0.000359605 0.000605693 0)
(-0.00037062 0.000526529 0)
(-0.000384093 0.000448849 0)
(-0.000398674 0.00036951 0)
(-0.000414161 0.000287665 0)
(-0.000429926 0.000202575 0)
(-0.000444955 0.000114033 0)
(-0.000458133 2.26399e-05 0)
(-0.000468807 -7.0236e-05 0)
(-0.000477228 -0.000163166 0)
(-0.000484166 -0.000255353 0)
(-0.000490422 -0.000346584 0)
(-0.00049666 -0.000436998 0)
(-0.000504399 -0.000527851 0)
(-0.000517021 -0.000623581 0)
(-0.000530484 -0.000720697 0)
(-0.000545004 -0.000819291 0)
(-0.00056096 -0.000919393 0)
(-0.000578856 -0.00102112 0)
(-0.000599244 -0.00112466 0)
(-0.000622717 -0.00123031 0)
(-0.000649915 -0.00133846 0)
(-0.000681462 -0.00144965 0)
(-0.00071788 -0.00156452 0)
(-0.000759632 -0.00168373 0)
(-0.000807121 -0.00180794 0)
(-0.000860688 -0.00193775 0)
(-0.000920701 -0.00207363 0)
(-0.000987626 -0.00221593 0)
(-0.00106208 -0.00236493 0)
(-0.00114489 -0.00252084 0)
(-0.00123711 -0.00268399 0)
(-0.00133996 -0.00285463 0)
(-0.00145494 -0.00303355 0)
(-0.00158353 -0.00322089 0)
(-0.0017277 -0.00341865 0)
(-0.00188873 -0.00362551 0)
(-0.00206969 -0.00384743 0)
(-0.00227028 -0.00407605 0)
(-0.00249745 -0.00433173 0)
(-0.0027439 -0.00457896 0)
(-0.0030307 -0.00488965 0)
(-0.00332354 -0.00513263 0)
(-0.00368957 -0.00555472 0)
(-0.0039947 -0.00570485 0)
(-0.00443413 -0.00638966 0)
(-0.0044629 -0.00608371 0)
)
;
    }
    frontAndBack
    {
        type            empty;
    }
}


// ************************************************************************* //
