/*--------------------------------*- C++ -*----------------------------------*\
  =========                 |
  \\      /  F ield         | OpenFOAM: The Open Source CFD Toolbox
   \\    /   O peration     | Website:  https://openfoam.org
    \\  /    A nd           | Version:  7
     \\/     M anipulation  |
\*---------------------------------------------------------------------------*/
FoamFile
{
    version     2.0;
    format      ascii;
    class       volScalarField;
    location    "0.43";
    object      yPlus;
}
// * * * * * * * * * * * * * * * * * * * * * * * * * * * * * * * * * * * * * //

dimensions      [0 0 0 0 0 0 0];

internalField   uniform 0;

boundaryField
{
    velocityInlet
    {
        type            calculated;
        value           uniform 0;
    }
    pressureOutlet
    {
        type            calculated;
        value           uniform 0;
    }
    fixedWalls
    {
        type            calculated;
        value           nonuniform List<scalar> 
100
(
2.07612
1.67107
0.615903
1.35638
1.20978
1.1584
0.955267
0.793922
0.666192
0.616701
0.637835
0.70058
0.773694
0.837845
0.882327
0.901749
0.892935
0.854523
0.78554
0.686888
0.563805
0.422173
0.223791
0.377269
0.720159
1.02582
1.24977
1.41037
1.54493
1.60783
1.46652
0.942952
0.899433
1.4786
1.70235
1.69227
1.50242
1.17524
0.715873
0.430511
0.808671
0.967543
1.04123
1.0708
1.07491
1.06259
1.03853
1.00563
0.966131
0.92219
0.875921
0.828964
0.781664
0.732365
0.677167
0.610247
0.524381
0.410463
0.248923
0.176646
0.304743
0.334549
0.292336
0.143796
0.262901
0.409865
0.513504
0.589965
0.645772
0.685086
0.710257
0.721192
0.71503
0.686341
0.627738
0.531038
0.388726
0.182927
0.185116
0.159596
0.233706
0.419573
0.550634
0.640654
0.696805
0.72592
0.734923
0.729461
0.714697
0.694106
0.669489
0.642951
0.613245
0.59037
0.572004
0.582956
0.605993
0.646917
0.708013
0.678194
)
;
    }
    bottomWall
    {
        type            calculated;
        value           nonuniform List<scalar> 
800
(
2.94479
1.98392
1.61349
1.44041
1.35532
1.29673
1.24782
1.20674
1.17224
1.14271
1.11694
1.09415
1.07377
1.05541
1.03875
1.02353
1.00956
0.996674
0.984736
0.973639
0.963287
0.953603
0.944518
0.935974
0.927921
0.920316
0.913119
0.906295
0.899816
0.893656
0.887787
0.882193
0.876851
0.871745
0.866859
0.862179
0.857691
0.853385
0.849249
0.845272
0.841448
0.837765
0.834217
0.830798
0.827498
0.824313
0.821237
0.818266
0.81539
0.812612
0.810283
0.808354
0.806446
0.804564
0.802707
0.800873
0.799064
0.797276
0.795512
0.793769
0.792047
0.790347
0.788666
0.787007
0.785367
0.783747
0.782144
0.780561
0.778997
0.77745
0.775921
0.77441
0.772915
0.771437
0.769976
0.76853
0.767101
0.765687
0.764288
0.762905
0.761535
0.760182
0.758841
0.757515
0.756203
0.754904
0.753619
0.752347
0.751087
0.74984
0.748606
0.747384
0.746173
0.744975
0.743788
0.742613
0.741449
0.740296
0.739154
0.738022
0.736902
0.735791
0.734691
0.733601
0.732521
0.731451
0.73039
0.729339
0.728296
0.727263
0.726239
0.725225
0.724219
0.723221
0.722233
0.721252
0.720281
0.719316
0.71836
0.717412
0.716472
0.715539
0.714613
0.713695
0.712785
0.711881
0.710985
0.710096
0.709213
0.708338
0.707468
0.706605
0.70575
0.7049
0.704057
0.703219
0.702389
0.701563
0.700745
0.69993
0.699123
0.698321
0.697524
0.696733
0.695948
0.695168
0.694392
0.693623
0.692859
0.692099
0.691461
0.690939
0.690415
0.68989
0.689363
0.688836
0.688307
0.687777
0.687246
0.686712
0.686178
0.685643
0.685107
0.684568
0.684029
0.683489
0.682946
0.682404
0.68186
0.681314
0.680766
0.680219
0.679669
0.679118
0.678566
0.678012
0.677458
0.676902
0.676344
0.675785
0.675225
0.674665
0.674103
0.673539
0.672974
0.672408
0.671841
0.671271
0.670702
0.670129
0.669558
0.668983
0.668408
0.667833
0.667254
0.666675
0.666096
0.665514
0.664931
0.664348
0.663762
0.663175
0.662588
0.661998
0.661408
0.660816
0.660223
0.659629
0.659032
0.658435
0.657838
0.657238
0.656637
0.656034
0.655431
0.654826
0.654221
0.653614
0.653005
0.652394
0.651783
0.651171
0.650556
0.64994
0.649323
0.648705
0.648086
0.647464
0.646842
0.646217
0.645592
0.644963
0.644336
0.643701
0.643073
0.642431
0.641804
0.64115
0.640533
0.639853
0.63926
0.638532
0.637994
0.637174
0.636748
0.635764
0.635535
0.634295
0.63435
0.632776
2.94479
1.9839
1.61343
1.44033
1.35522
1.29663
1.24774
1.2067
1.17223
1.14275
1.11704
1.09431
1.07402
1.05575
1.0392
1.0241
1.01027
0.997535
0.985773
0.974873
0.964742
0.955305
0.946496
0.93826
0.930549
0.923324
0.916549
0.910194
0.904236
0.898653
0.893426
0.888541
0.883989
0.879758
0.875845
0.872243
0.868954
0.865979
0.86331
0.860983
0.858922
0.857294
0.855744
0.854942
0.853491
0.853855
0.850953
0.853536
0.844211
0.82211
0.646551
1.06291
1.31471
1.52461
1.93927
2.58189
3.19063
3.63755
3.9591
4.16209
4.26391
4.28479
4.23275
4.1173
3.93823
3.69786
3.39428
3.02254
2.57021
2.00796
1.27333
1.26943
1.9572
2.46406
2.8535
3.16648
3.42433
3.64089
3.82421
3.98128
4.11759
4.23752
4.34449
4.44118
4.52956
4.61103
4.68655
4.75669
4.82176
4.88183
4.93688
4.98677
5.03129
5.07024
5.10331
5.13024
5.15065
5.16412
5.17011
5.16812
5.15745
5.13724
5.10632
5.06321
5.0064
4.93357
4.84123
4.72687
4.58597
4.40919
4.19814
3.94978
3.62695
3.1596
2.46437
1.59492
1.38104
1.84839
2.07359
2.10193
1.96253
1.69379
1.33369
1.00533
1.06631
1.21869
1.24762
1.15946
0.970491
0.664066
0.488479
0.858512
1.13032
1.33729
1.49964
1.63174
1.7394
1.82207
1.87889
1.91138
1.9217
1.91224
1.88711
1.85197
1.8142
1.78198
1.76326
1.76654
1.79394
1.84478
1.91448
1.99676
2.08467
2.17131
2.25023
2.31593
2.36414
2.39237
2.39799
2.37944
2.33722
2.27309
2.19041
2.09392
1.99228
1.89686
1.82107
1.78119
1.79076
1.84521
1.91069
1.94439
1.90019
1.67396
1.22625
1.38847
1.7873
2.0604
2.30049
2.51619
2.70542
2.86798
3.00535
3.1196
3.2129
3.28725
3.34444
3.38602
3.41329
3.42725
3.42867
3.41857
3.39778
3.36631
3.3242
3.27134
3.20743
3.132
3.04441
2.94386
2.82942
2.7
2.5556
2.40583
2.23952
2.05665
1.86651
1.70463
1.64662
1.74173
1.9368
2.16027
2.3796
2.5859
2.79215
2.98244
3.15664
3.3152
3.45856
3.58725
3.70175
3.80254
3.89009
3.96481
4.02713
4.07741
4.11597
4.14325
4.15934
4.16519
4.15966
4.14279
4.11775
4.08276
4.03616
3.97802
3.90833
3.82709
3.73436
3.63021
3.51481
3.38839
3.25623
3.11406
2.96126
2.79749
2.62468
2.45582
2.34103
2.42636
0.572236
1.21989
1.72319
2.18687
2.61959
3.00784
3.34335
3.61942
3.83105
3.97461
4.04761
4.05019
3.98485
3.86104
3.68942
3.48009
3.23942
2.96744
2.65774
2.29971
1.8811
1.39524
1.02377
1.38862
1.85581
2.26906
2.62001
2.84353
2.87737
2.73771
2.52645
2.16564
1.73707
1.54444
1.66094
1.62408
1.22334
0.787978
1.53322
1.93093
2.20348
2.45522
2.70164
2.93247
3.1441
3.33902
3.51883
3.6801
3.8207
3.93719
4.02675
4.08672
4.11456
4.10664
4.0597
3.97068
3.83494
3.64668
3.40008
3.08532
2.67878
2.13618
1.42524
1.52381
2.27703
2.88928
3.3996
3.84066
4.23056
4.58129
4.89912
5.18062
5.42898
5.61405
5.7415
5.74933
5.66203
5.35211
4.82853
3.79442
1.62352
1.64273
1.98908
2.08064
2.31997
2.52244
2.85229
3.2943
3.74195
4.06227
4.21066
4.20271
4.06666
3.83555
3.51078
3.10266
2.61671
2.03387
1.26133
0.428721
0.484398
0.994566
1.60527
1.83883
1.90351
1.83163
1.66444
1.3876
0.917698
0.778251
1.31116
1.5914
1.74993
1.89802
2.08536
2.30511
2.54104
2.79022
3.03533
3.27395
3.52604
3.78505
4.01578
4.17607
4.23153
4.15337
3.91929
3.49414
2.82897
1.90156
1.7658
2.52154
2.96635
3.11609
3.11307
3.01679
2.8209
2.50584
2.09535
1.62015
1.1315
0.659536
0.824162
1.36645
1.69946
1.88385
1.90741
1.71413
1.16102
1.23079
2.15724
2.76459
3.15841
3.45696
3.72538
3.97674
4.19248
4.38858
4.56838
4.73114
4.88282
5.02282
5.15302
5.27409
5.3861
5.48965
5.5846
5.67114
5.74936
5.81952
5.88203
5.93739
5.9863
6.02957
6.06809
6.10287
6.13507
6.16554
6.19528
6.2252
6.25611
6.28861
6.32304
6.35966
6.3982
6.4376
6.47658
6.51343
6.54625
6.57318
6.5926
6.60349
6.60555
6.59884
6.58451
6.56357
6.53676
6.50487
6.46875
6.42918
6.38681
6.34223
6.29589
6.24815
6.19934
6.14966
6.09928
6.0483
5.99681
5.94483
5.89238
5.83948
5.78612
5.73228
5.67794
5.6231
5.56773
5.51182
5.45534
5.39827
5.34058
5.28225
5.22322
5.16347
5.10294
5.04157
4.9793
4.91607
4.8518
4.7864
4.71977
4.65185
4.58249
4.51162
4.43909
4.36479
4.28859
4.21033
4.12986
4.04702
3.96163
3.87348
3.78236
3.68802
3.59022
3.48864
3.38296
3.2728
3.15772
3.03726
2.91086
2.77788
2.63766
2.48946
2.33712
2.18214
2.01914
1.8504
1.68602
1.55501
1.50892
1.57746
1.72593
1.90531
2.08957
2.26957
2.44534
2.62459
2.79796
2.96621
3.1302
3.29084
3.44902
3.60558
3.76129
3.91688
4.07304
4.23035
4.38936
4.55056
4.71439
4.88128
5.05163
5.22586
5.40444
5.58783
5.77658
5.97119
6.17241
6.38054
6.59693
6.82092
7.05586
7.29743
7.556
7.81418
8.10558
8.36856
8.70808
8.91478
)
;
    }
    frontAndBack
    {
        type            empty;
    }
}


// ************************************************************************* //
