/*--------------------------------*- C++ -*----------------------------------*\
  =========                 |
  \\      /  F ield         | OpenFOAM: The Open Source CFD Toolbox
   \\    /   O peration     | Website:  https://openfoam.org
    \\  /    A nd           | Version:  7
     \\/     M anipulation  |
\*---------------------------------------------------------------------------*/
FoamFile
{
    version     2.0;
    format      ascii;
    class       volScalarField;
    location    "0.33";
    object      k_0;
}
// * * * * * * * * * * * * * * * * * * * * * * * * * * * * * * * * * * * * * //

dimensions      [0 2 -2 0 0 0 0];

internalField   nonuniform List<scalar> 
70000
(
1.08549e-05
4.21885e-06
2.82453e-06
2.31707e-06
1.99783e-06
1.75755e-06
1.56558e-06
1.40876e-06
1.27794e-06
1.16732e-06
1.07232e-06
9.90426e-07
9.18793e-07
8.56235e-07
8.0074e-07
7.51774e-07
7.07795e-07
6.68632e-07
6.33083e-07
6.01216e-07
5.7201e-07
5.45743e-07
5.21384e-07
4.99505e-07
4.78892e-07
4.60513e-07
4.42831e-07
4.27276e-07
4.11924e-07
3.9866e-07
3.85223e-07
3.73811e-07
3.62e-07
3.52098e-07
3.41663e-07
3.33061e-07
3.23861e-07
3.16805e-07
3.08624e-07
3.03237e-07
2.95355e-07
2.92022e-07
2.84106e-07
2.83075e-07
2.75057e-07
2.7877e-07
2.68269e-07
2.92027e-07
2.79156e-07
4.06906e-07
1.72795e-05
1.13674e-05
8.52099e-06
7.01113e-06
6.03813e-06
5.31207e-06
4.73265e-06
4.25907e-06
3.86392e-06
3.52986e-06
3.24297e-06
2.99563e-06
2.77929e-06
2.59032e-06
2.4227e-06
2.27475e-06
2.14188e-06
2.02351e-06
1.91608e-06
1.81976e-06
1.73145e-06
1.65206e-06
1.57836e-06
1.51226e-06
1.44986e-06
1.39433e-06
1.3408e-06
1.29379e-06
1.24734e-06
1.20721e-06
1.1666e-06
1.13202e-06
1.09637e-06
1.06635e-06
1.03483e-06
1.00881e-06
9.80806e-07
9.59298e-07
9.33944e-07
9.17406e-07
8.92988e-07
8.82252e-07
8.5825e-07
8.52471e-07
8.29801e-07
8.34064e-07
8.10401e-07
8.5496e-07
8.43315e-07
9.50228e-07
1.93701e-05
1.61298e-05
1.32915e-05
1.12905e-05
9.8297e-06
8.6976e-06
7.77996e-06
7.02259e-06
6.38591e-06
5.84503e-06
5.37876e-06
4.97563e-06
4.62212e-06
4.31264e-06
4.03764e-06
3.79438e-06
3.57563e-06
3.3804e-06
3.20299e-06
3.04378e-06
2.89753e-06
2.76614e-06
2.64377e-06
2.53423e-06
2.43041e-06
2.3383e-06
2.24911e-06
2.17098e-06
2.0936e-06
2.0267e-06
1.95917e-06
1.90131e-06
1.84208e-06
1.79178e-06
1.73929e-06
1.69592e-06
1.64853e-06
1.61259e-06
1.56902e-06
1.54105e-06
1.49925e-06
1.48018e-06
1.43986e-06
1.42687e-06
1.38952e-06
1.38848e-06
1.35651e-06
1.39402e-06
1.41889e-06
1.46428e-06
1.9861e-05
1.826e-05
1.60858e-05
1.42008e-05
1.2641e-05
1.135e-05
1.02622e-05
9.34049e-06
8.54885e-06
7.86628e-06
7.27128e-06
6.75237e-06
6.29387e-06
5.88989e-06
5.52895e-06
5.20786e-06
4.91788e-06
4.65798e-06
4.42084e-06
4.20761e-06
4.01078e-06
3.83399e-06
3.6683e-06
3.52032e-06
3.37907e-06
3.25412e-06
3.13242e-06
3.02589e-06
2.92025e-06
2.82846e-06
2.73633e-06
2.65652e-06
2.57563e-06
2.50621e-06
2.43402e-06
2.37461e-06
2.30839e-06
2.25917e-06
2.19732e-06
2.15793e-06
2.09947e-06
2.07105e-06
2.01521e-06
1.9941e-06
1.9431e-06
1.9339e-06
1.89228e-06
1.9111e-06
1.96816e-06
1.97254e-06
1.99707e-05
1.78457e-05
1.60747e-05
1.47664e-05
1.36024e-05
1.25378e-05
1.15695e-05
1.07026e-05
9.92141e-06
9.22671e-06
8.60635e-06
8.05456e-06
7.55867e-06
7.11551e-06
6.7145e-06
6.35358e-06
6.02429e-06
5.72681e-06
5.45299e-06
5.20575e-06
4.97532e-06
4.76819e-06
4.57196e-06
4.39695e-06
4.22818e-06
4.07903e-06
3.93274e-06
3.80429e-06
3.67697e-06
3.56518e-06
3.45393e-06
3.35608e-06
3.25783e-06
3.17279e-06
3.08396e-06
3.0118e-06
2.92919e-06
2.86939e-06
2.7922e-06
2.74263e-06
2.67117e-06
2.63103e-06
2.56462e-06
2.53422e-06
2.47194e-06
2.45345e-06
2.40088e-06
2.40439e-06
2.44932e-06
2.4399e-06
2.00095e-05
1.47039e-05
1.37471e-05
1.32099e-05
1.259e-05
1.1926e-05
1.12765e-05
1.06568e-05
1.00794e-05
9.54619e-06
9.0455e-06
8.58021e-06
8.1467e-06
7.74766e-06
7.37638e-06
7.03443e-06
6.71608e-06
6.42439e-06
6.15131e-06
5.9028e-06
5.66707e-06
5.45445e-06
5.24945e-06
5.06647e-06
4.88737e-06
4.7286e-06
4.57162e-06
4.43251e-06
4.29498e-06
4.17214e-06
4.0511e-06
3.94271e-06
3.83436e-06
3.74032e-06
3.64043e-06
3.56109e-06
3.46719e-06
3.40042e-06
3.31368e-06
3.2556e-06
3.17717e-06
3.12658e-06
3.05555e-06
3.01308e-06
2.94667e-06
2.91842e-06
2.86095e-06
2.8397e-06
2.86404e-06
2.84613e-06
2.01331e-05
1.54695e-05
9.63466e-06
9.39628e-06
9.49027e-06
9.48928e-06
9.43036e-06
9.29194e-06
9.05161e-06
8.7788e-06
8.4842e-06
8.1879e-06
7.89639e-06
7.61403e-06
7.33751e-06
7.07761e-06
6.83006e-06
6.59741e-06
6.37235e-06
6.16404e-06
5.95985e-06
5.77391e-06
5.58933e-06
5.42368e-06
5.25778e-06
5.10916e-06
4.96085e-06
4.82711e-06
4.69535e-06
4.57475e-06
4.45679e-06
4.34926e-06
4.24103e-06
4.14779e-06
4.04546e-06
3.96638e-06
3.86982e-06
3.80063e-06
3.71312e-06
3.6494e-06
3.572e-06
3.5128e-06
3.44537e-06
3.3901e-06
3.33065e-06
3.28378e-06
3.23756e-06
3.18879e-06
3.19563e-06
3.16981e-06
2.01712e-05
1.86771e-05
8.69807e-06
5.53986e-06
5.62904e-06
5.93147e-06
6.2886e-06
6.57346e-06
6.75258e-06
6.86136e-06
6.8814e-06
6.86235e-06
6.81076e-06
6.72306e-06
6.61278e-06
6.49197e-06
6.35414e-06
6.21387e-06
6.06943e-06
5.93069e-06
5.78683e-06
5.65335e-06
5.51505e-06
5.3894e-06
5.25898e-06
5.14204e-06
5.02416e-06
4.9146e-06
4.80668e-06
4.70451e-06
4.60436e-06
4.51167e-06
4.41596e-06
4.335e-06
4.2417e-06
4.17114e-06
4.08349e-06
4.01756e-06
3.93972e-06
3.87529e-06
3.8077e-06
3.74414e-06
3.6877e-06
3.62413e-06
3.57694e-06
3.51609e-06
3.48137e-06
3.41674e-06
3.41108e-06
3.37615e-06
2.01671e-05
1.97242e-05
1.61711e-05
4.86708e-06
3.04239e-06
3.10451e-06
3.37159e-06
3.80074e-06
4.16562e-06
4.483e-06
4.73014e-06
4.91982e-06
5.06033e-06
5.16108e-06
5.21967e-06
5.25633e-06
5.26001e-06
5.25176e-06
5.2289e-06
5.19284e-06
5.14215e-06
5.08961e-06
5.02634e-06
4.96403e-06
4.8941e-06
4.82567e-06
4.75227e-06
4.67975e-06
4.60725e-06
4.5355e-06
4.46377e-06
4.39665e-06
4.324e-06
4.26404e-06
4.19071e-06
4.1355e-06
4.06734e-06
4.01111e-06
3.95189e-06
3.89434e-06
3.84358e-06
3.78405e-06
3.74208e-06
3.68109e-06
3.64505e-06
3.58498e-06
3.55477e-06
3.49131e-06
3.47858e-06
3.4381e-06
2.01476e-05
1.99343e-05
1.90668e-05
1.45052e-05
5.25461e-06
2.15632e-06
1.91427e-06
1.99256e-06
2.20441e-06
2.50224e-06
2.77732e-06
3.03008e-06
3.25418e-06
3.45117e-06
3.61411e-06
3.75318e-06
3.86367e-06
3.9535e-06
4.02284e-06
4.07736e-06
4.1141e-06
4.1394e-06
4.15355e-06
4.15625e-06
4.15285e-06
4.14454e-06
4.12917e-06
4.10837e-06
4.08501e-06
4.05766e-06
4.02699e-06
3.99729e-06
3.96007e-06
3.92995e-06
3.88852e-06
3.85657e-06
3.81711e-06
3.77926e-06
3.74378e-06
3.70123e-06
3.66885e-06
3.62229e-06
3.59371e-06
3.54507e-06
3.5182e-06
3.46871e-06
3.44345e-06
3.38912e-06
3.3741e-06
3.33387e-06
2.01215e-05
1.99661e-05
1.9643e-05
1.85488e-05
1.52216e-05
8.3803e-06
3.11933e-06
1.63512e-06
1.44268e-06
1.4489e-06
1.52482e-06
1.68452e-06
1.86578e-06
2.04272e-06
2.21147e-06
2.37136e-06
2.5169e-06
2.6492e-06
2.76563e-06
2.87029e-06
2.96062e-06
3.03924e-06
3.10672e-06
3.16337e-06
3.21082e-06
3.24988e-06
3.28255e-06
3.30691e-06
3.32672e-06
3.34065e-06
3.34911e-06
3.35562e-06
3.35531e-06
3.35387e-06
3.34882e-06
3.34265e-06
3.33324e-06
3.31928e-06
3.30915e-06
3.28977e-06
3.27784e-06
3.254e-06
3.2401e-06
3.21259e-06
3.19685e-06
3.16538e-06
3.14764e-06
3.10914e-06
3.0952e-06
3.05999e-06
2.00981e-05
1.99327e-05
1.97577e-05
1.93539e-05
1.85098e-05
1.65458e-05
1.23509e-05
6.88947e-06
3.00691e-06
1.498e-06
1.24419e-06
1.14778e-06
1.15131e-06
1.19302e-06
1.28415e-06
1.3912e-06
1.50235e-06
1.6127e-06
1.72121e-06
1.82651e-06
1.92555e-06
2.01822e-06
2.10449e-06
2.18299e-06
2.25596e-06
2.32066e-06
2.38107e-06
2.43348e-06
2.48187e-06
2.52406e-06
2.56116e-06
2.595e-06
2.62252e-06
2.64817e-06
2.66837e-06
2.6861e-06
2.70162e-06
2.71123e-06
2.72195e-06
2.72599e-06
2.73098e-06
2.73062e-06
2.7293e-06
2.72494e-06
2.71992e-06
2.70874e-06
2.69982e-06
2.67938e-06
2.66946e-06
2.64428e-06
2.00781e-05
1.98876e-05
1.97573e-05
1.94623e-05
1.91481e-05
1.86451e-05
1.75646e-05
1.54425e-05
1.17735e-05
7.4849e-06
4.01395e-06
1.93065e-06
1.21257e-06
1.05836e-06
9.82947e-07
9.42319e-07
9.52977e-07
9.86408e-07
1.04765e-06
1.11143e-06
1.17997e-06
1.2492e-06
1.31976e-06
1.38848e-06
1.45741e-06
1.52141e-06
1.58484e-06
1.64276e-06
1.69932e-06
1.75111e-06
1.79999e-06
1.84614e-06
1.8874e-06
1.92729e-06
1.96248e-06
1.99498e-06
2.02549e-06
2.05101e-06
2.07611e-06
2.09618e-06
2.11527e-06
2.13019e-06
2.14304e-06
2.15257e-06
2.15972e-06
2.16322e-06
2.16273e-06
2.15888e-06
2.15411e-06
2.14069e-06
2.00613e-05
1.98539e-05
1.97347e-05
1.94725e-05
1.92574e-05
1.90497e-05
1.87402e-05
1.81976e-05
1.71107e-05
1.52546e-05
1.26041e-05
9.28233e-06
6.01984e-06
3.51459e-06
1.90267e-06
1.17534e-06
9.66576e-07
8.92073e-07
8.37493e-07
7.96294e-07
7.97651e-07
8.10583e-07
8.39874e-07
8.77507e-07
9.17794e-07
9.58792e-07
1.00334e-06
1.04644e-06
1.092e-06
1.13579e-06
1.17942e-06
1.22201e-06
1.26197e-06
1.30185e-06
1.33862e-06
1.37417e-06
1.40827e-06
1.43891e-06
1.46945e-06
1.49581e-06
1.52187e-06
1.54358e-06
1.56455e-06
1.58137e-06
1.59695e-06
1.60804e-06
1.61686e-06
1.62153e-06
1.62169e-06
1.61859e-06
2.00474e-05
1.98304e-05
1.97082e-05
1.94504e-05
1.92744e-05
1.91175e-05
1.89688e-05
1.87544e-05
1.84683e-05
1.79214e-05
1.70921e-05
1.57255e-05
1.39166e-05
1.15799e-05
8.90922e-06
6.30111e-06
4.12093e-06
2.53743e-06
1.52591e-06
1.03932e-06
8.65703e-07
8.00666e-07
7.52677e-07
7.12034e-07
6.82162e-07
6.77935e-07
6.83414e-07
6.9668e-07
7.18471e-07
7.4119e-07
7.65572e-07
7.90885e-07
8.16825e-07
8.44593e-07
8.71403e-07
8.99366e-07
9.26939e-07
9.52927e-07
9.79592e-07
1.00333e-06
1.02782e-06
1.04842e-06
1.0701e-06
1.08703e-06
1.10535e-06
1.11764e-06
1.131e-06
1.13797e-06
1.14495e-06
1.14483e-06
2.00361e-05
1.98126e-05
1.96857e-05
1.94203e-05
1.92604e-05
1.91113e-05
1.90037e-05
1.88531e-05
1.87164e-05
1.8506e-05
1.82542e-05
1.78423e-05
1.72455e-05
1.63815e-05
1.51902e-05
1.36628e-05
1.18655e-05
9.79007e-06
7.65016e-06
5.65085e-06
3.96379e-06
2.6764e-06
1.75046e-06
1.17642e-06
8.89506e-07
7.68865e-07
7.141e-07
6.76702e-07
6.41683e-07
6.11369e-07
5.90614e-07
5.81487e-07
5.82881e-07
5.87932e-07
5.97571e-07
6.10326e-07
6.23684e-07
6.36829e-07
6.51362e-07
6.6476e-07
6.79942e-07
6.93387e-07
7.08585e-07
7.20916e-07
7.35248e-07
7.4532e-07
7.56982e-07
7.63789e-07
7.70076e-07
7.7245e-07
2.00271e-05
1.97987e-05
1.96666e-05
1.93986e-05
1.92347e-05
1.90842e-05
1.89857e-05
1.88568e-05
1.87405e-05
1.86011e-05
1.84647e-05
1.82949e-05
1.80873e-05
1.78023e-05
1.74194e-05
1.68795e-05
1.61769e-05
1.52619e-05
1.41291e-05
1.27939e-05
1.13035e-05
9.65198e-06
7.95034e-06
6.31691e-06
4.83486e-06
3.59109e-06
2.60428e-06
1.84629e-06
1.30653e-06
9.68675e-07
7.84677e-07
6.93108e-07
6.4557e-07
6.14064e-07
5.87183e-07
5.61483e-07
5.38496e-07
5.20064e-07
5.08734e-07
5.01683e-07
5.01714e-07
5.03124e-07
5.06809e-07
5.11592e-07
5.17553e-07
5.22862e-07
5.27951e-07
5.32912e-07
5.36892e-07
5.41945e-07
2.00199e-05
1.97903e-05
1.96461e-05
1.93826e-05
1.92107e-05
1.90555e-05
1.8948e-05
1.88309e-05
1.87192e-05
1.85945e-05
1.84767e-05
1.83503e-05
1.82258e-05
1.80824e-05
1.79264e-05
1.77279e-05
1.74855e-05
1.71676e-05
1.67672e-05
1.62481e-05
1.56173e-05
1.48452e-05
1.39371e-05
1.28923e-05
1.17494e-05
1.05134e-05
9.19777e-06
7.86668e-06
6.57073e-06
5.36901e-06
4.28625e-06
3.36707e-06
2.6104e-06
1.99687e-06
1.51543e-06
1.15989e-06
9.16616e-07
7.63593e-07
6.72524e-07
6.19303e-07
5.86963e-07
5.64067e-07
5.46516e-07
5.30638e-07
5.17804e-07
5.05918e-07
4.96859e-07
4.92449e-07
4.92971e-07
4.97017e-07
2.00144e-05
1.97905e-05
1.96196e-05
1.93695e-05
1.91902e-05
1.90291e-05
1.89127e-05
1.87951e-05
1.86799e-05
1.85591e-05
1.84467e-05
1.83289e-05
1.82164e-05
1.80972e-05
1.79832e-05
1.78613e-05
1.77366e-05
1.75933e-05
1.7436e-05
1.7242e-05
1.70131e-05
1.67326e-05
1.63923e-05
1.59802e-05
1.5492e-05
1.49212e-05
1.42662e-05
1.35214e-05
1.27016e-05
1.18081e-05
1.08737e-05
9.89058e-06
8.87355e-06
7.85663e-06
6.86328e-06
5.92271e-06
5.05233e-06
4.2701e-06
3.57817e-06
2.99422e-06
2.50309e-06
2.09493e-06
1.7648e-06
1.50186e-06
1.30471e-06
1.15698e-06
1.05898e-06
1.00057e-06
9.62602e-07
9.47146e-07
2.00102e-05
1.97947e-05
1.95927e-05
1.93562e-05
1.91714e-05
1.9004e-05
1.88799e-05
1.87598e-05
1.86407e-05
1.85169e-05
1.84017e-05
1.82835e-05
1.81719e-05
1.80596e-05
1.79507e-05
1.78425e-05
1.77336e-05
1.76242e-05
1.75179e-05
1.74054e-05
1.72871e-05
1.7163e-05
1.70186e-05
1.686e-05
1.66733e-05
1.64575e-05
1.62058e-05
1.5916e-05
1.55766e-05
1.51925e-05
1.47567e-05
1.42721e-05
1.37338e-05
1.31535e-05
1.25189e-05
1.18565e-05
1.11639e-05
1.04535e-05
9.73561e-06
9.01995e-06
8.31138e-06
7.62796e-06
6.99062e-06
6.4041e-06
5.88166e-06
5.42907e-06
5.04365e-06
4.75856e-06
4.48359e-06
4.32647e-06
2.0007e-05
1.98025e-05
1.95677e-05
1.93435e-05
1.91536e-05
1.89806e-05
1.88486e-05
1.87261e-05
1.86025e-05
1.8476e-05
1.8356e-05
1.82362e-05
1.81199e-05
1.80063e-05
1.78941e-05
1.77878e-05
1.768e-05
1.75778e-05
1.74777e-05
1.73791e-05
1.72764e-05
1.71844e-05
1.70792e-05
1.69864e-05
1.68809e-05
1.67769e-05
1.66597e-05
1.65411e-05
1.63987e-05
1.62491e-05
1.6078e-05
1.58855e-05
1.56672e-05
1.54371e-05
1.51583e-05
1.4871e-05
1.45501e-05
1.42039e-05
1.3822e-05
1.34408e-05
1.30276e-05
1.25952e-05
1.2169e-05
1.17346e-05
1.13205e-05
1.09032e-05
1.05351e-05
1.02063e-05
9.91091e-06
9.66292e-06
2.00046e-05
1.98114e-05
1.95442e-05
1.93311e-05
1.91361e-05
1.8959e-05
1.88185e-05
1.86939e-05
1.85658e-05
1.8437e-05
1.8312e-05
1.81899e-05
1.80687e-05
1.79533e-05
1.78362e-05
1.77294e-05
1.76151e-05
1.75122e-05
1.7409e-05
1.73106e-05
1.72079e-05
1.71234e-05
1.70219e-05
1.69408e-05
1.68472e-05
1.67636e-05
1.6672e-05
1.65919e-05
1.65001e-05
1.64143e-05
1.63269e-05
1.62306e-05
1.6128e-05
1.60369e-05
1.59068e-05
1.57931e-05
1.56652e-05
1.55212e-05
1.53549e-05
1.5206e-05
1.5029e-05
1.48305e-05
1.46425e-05
1.44365e-05
1.42371e-05
1.40094e-05
1.38167e-05
1.3615e-05
1.34429e-05
1.32578e-05
2.00029e-05
1.98209e-05
1.95223e-05
1.93183e-05
1.91186e-05
1.89391e-05
1.87899e-05
1.86631e-05
1.85308e-05
1.84e-05
1.82701e-05
1.81459e-05
1.80198e-05
1.79021e-05
1.77806e-05
1.76724e-05
1.75525e-05
1.7448e-05
1.7341e-05
1.724e-05
1.71326e-05
1.70459e-05
1.69401e-05
1.68587e-05
1.67625e-05
1.66815e-05
1.65946e-05
1.65195e-05
1.64367e-05
1.63596e-05
1.62881e-05
1.62099e-05
1.61299e-05
1.60716e-05
1.59796e-05
1.59129e-05
1.58468e-05
1.57663e-05
1.56776e-05
1.56154e-05
1.55345e-05
1.54383e-05
1.53569e-05
1.52703e-05
1.51801e-05
1.50757e-05
1.49889e-05
1.48934e-05
1.48091e-05
1.47128e-05
2.00017e-05
1.98297e-05
1.95021e-05
1.93046e-05
1.91008e-05
1.89208e-05
1.8763e-05
1.86335e-05
1.84976e-05
1.83652e-05
1.82309e-05
1.81044e-05
1.79741e-05
1.78536e-05
1.77288e-05
1.76179e-05
1.74936e-05
1.73869e-05
1.72769e-05
1.71726e-05
1.70622e-05
1.69722e-05
1.68636e-05
1.67792e-05
1.66793e-05
1.65949e-05
1.65048e-05
1.64248e-05
1.63419e-05
1.62609e-05
1.61897e-05
1.6113e-05
1.60363e-05
1.59826e-05
1.58979e-05
1.58373e-05
1.57825e-05
1.57141e-05
1.56412e-05
1.55967e-05
1.55383e-05
1.54707e-05
1.54159e-05
1.53669e-05
1.5311e-05
1.52521e-05
1.52022e-05
1.5153e-05
1.51053e-05
1.50548e-05
2.00009e-05
1.98308e-05
1.9486e-05
1.92907e-05
1.90837e-05
1.89046e-05
1.87385e-05
1.86058e-05
1.84667e-05
1.83331e-05
1.81947e-05
1.80663e-05
1.79323e-05
1.78087e-05
1.76816e-05
1.75672e-05
1.74397e-05
1.73302e-05
1.72177e-05
1.711e-05
1.69974e-05
1.69037e-05
1.67936e-05
1.6706e-05
1.66029e-05
1.65165e-05
1.64238e-05
1.63395e-05
1.6255e-05
1.61706e-05
1.60951e-05
1.60172e-05
1.59351e-05
1.58774e-05
1.57919e-05
1.57281e-05
1.5671e-05
1.56032e-05
1.55307e-05
1.54868e-05
1.5432e-05
1.53717e-05
1.53184e-05
1.52759e-05
1.52263e-05
1.51776e-05
1.51338e-05
1.50977e-05
1.50607e-05
1.50223e-05
2.00003e-05
1.98289e-05
1.94721e-05
1.92755e-05
1.90663e-05
1.88902e-05
1.87165e-05
1.858e-05
1.84384e-05
1.83041e-05
1.81621e-05
1.80319e-05
1.78949e-05
1.77684e-05
1.76394e-05
1.75212e-05
1.73915e-05
1.7279e-05
1.71643e-05
1.70537e-05
1.69388e-05
1.68418e-05
1.67307e-05
1.664e-05
1.65344e-05
1.64464e-05
1.63513e-05
1.62645e-05
1.61779e-05
1.60915e-05
1.60127e-05
1.59338e-05
1.58481e-05
1.57873e-05
1.56998e-05
1.56337e-05
1.55718e-05
1.55035e-05
1.54277e-05
1.53806e-05
1.53215e-05
1.52626e-05
1.52053e-05
1.51608e-05
1.51109e-05
1.50636e-05
1.50174e-05
1.49848e-05
1.49472e-05
1.49045e-05
2e-05
1.98271e-05
1.94604e-05
1.92586e-05
1.90484e-05
1.8877e-05
1.86967e-05
1.85563e-05
1.84129e-05
1.82783e-05
1.81334e-05
1.80018e-05
1.78622e-05
1.77334e-05
1.76027e-05
1.7481e-05
1.73499e-05
1.72346e-05
1.71175e-05
1.70049e-05
1.68875e-05
1.67879e-05
1.66757e-05
1.65822e-05
1.64749e-05
1.63855e-05
1.62878e-05
1.61999e-05
1.6111e-05
1.60231e-05
1.59426e-05
1.58617e-05
1.57741e-05
1.57119e-05
1.56213e-05
1.55552e-05
1.54898e-05
1.54198e-05
1.53432e-05
1.52936e-05
1.52304e-05
1.51725e-05
1.51128e-05
1.5065e-05
1.50129e-05
1.49648e-05
1.49179e-05
1.4885e-05
1.48388e-05
1.4798e-05
1.99999e-05
1.98259e-05
1.94517e-05
1.92412e-05
1.90307e-05
1.88654e-05
1.86799e-05
1.85355e-05
1.83908e-05
1.82564e-05
1.81092e-05
1.79765e-05
1.78349e-05
1.77044e-05
1.7572e-05
1.74477e-05
1.73153e-05
1.71981e-05
1.70784e-05
1.69645e-05
1.68449e-05
1.67432e-05
1.663e-05
1.65339e-05
1.64256e-05
1.6335e-05
1.62345e-05
1.61465e-05
1.60554e-05
1.59658e-05
1.58853e-05
1.58014e-05
1.57134e-05
1.56503e-05
1.55561e-05
1.54915e-05
1.54237e-05
1.53509e-05
1.52759e-05
1.52241e-05
1.5157e-05
1.51007e-05
1.50403e-05
1.49899e-05
1.49341e-05
1.48866e-05
1.48426e-05
1.48017e-05
1.47535e-05
1.4712e-05
1.99999e-05
1.98251e-05
1.9446e-05
1.92245e-05
1.9014e-05
1.88558e-05
1.86667e-05
1.85182e-05
1.83727e-05
1.82388e-05
1.80902e-05
1.79568e-05
1.78138e-05
1.76823e-05
1.75481e-05
1.74222e-05
1.72886e-05
1.71703e-05
1.70479e-05
1.69333e-05
1.68123e-05
1.67086e-05
1.65946e-05
1.64966e-05
1.63876e-05
1.62961e-05
1.61928e-05
1.61054e-05
1.60125e-05
1.59212e-05
1.58415e-05
1.5754e-05
1.56674e-05
1.56026e-05
1.55054e-05
1.54434e-05
1.53727e-05
1.52976e-05
1.52254e-05
1.51712e-05
1.51005e-05
1.50462e-05
1.49863e-05
1.49323e-05
1.48735e-05
1.48291e-05
1.47846e-05
1.47372e-05
1.46889e-05
1.4643e-05
1.99999e-05
1.98247e-05
1.94427e-05
1.92093e-05
1.89989e-05
1.8848e-05
1.86574e-05
1.85051e-05
1.83592e-05
1.82261e-05
1.8077e-05
1.79433e-05
1.77993e-05
1.76676e-05
1.75318e-05
1.74051e-05
1.72708e-05
1.71519e-05
1.70272e-05
1.69122e-05
1.67907e-05
1.6685e-05
1.65704e-05
1.64713e-05
1.63617e-05
1.62701e-05
1.61639e-05
1.60781e-05
1.59833e-05
1.58911e-05
1.5812e-05
1.57214e-05
1.56373e-05
1.55693e-05
1.54712e-05
1.54118e-05
1.53371e-05
1.52615e-05
1.51921e-05
1.51352e-05
1.50615e-05
1.50096e-05
1.495e-05
1.48916e-05
1.4832e-05
1.47904e-05
1.47427e-05
1.46913e-05
1.46412e-05
1.45922e-05
1.99999e-05
1.98247e-05
1.94421e-05
1.91965e-05
1.89856e-05
1.8842e-05
1.8652e-05
1.84968e-05
1.83505e-05
1.82184e-05
1.80698e-05
1.79365e-05
1.77919e-05
1.76606e-05
1.75238e-05
1.73967e-05
1.72625e-05
1.71433e-05
1.7017e-05
1.69018e-05
1.67808e-05
1.66732e-05
1.65583e-05
1.64592e-05
1.63488e-05
1.62578e-05
1.6149e-05
1.60655e-05
1.59684e-05
1.58771e-05
1.57971e-05
1.57057e-05
1.56238e-05
1.55518e-05
1.54553e-05
1.53976e-05
1.53183e-05
1.52443e-05
1.51768e-05
1.51168e-05
1.50416e-05
1.49923e-05
1.4931e-05
1.48691e-05
1.48108e-05
1.47703e-05
1.47175e-05
1.46637e-05
1.46111e-05
1.45609e-05
1.99999e-05
1.98251e-05
1.94438e-05
1.91864e-05
1.89743e-05
1.88375e-05
1.86504e-05
1.84933e-05
1.83468e-05
1.82159e-05
1.8069e-05
1.79367e-05
1.7792e-05
1.76617e-05
1.75245e-05
1.73978e-05
1.7264e-05
1.7145e-05
1.7018e-05
1.6903e-05
1.67827e-05
1.66742e-05
1.65593e-05
1.64607e-05
1.63499e-05
1.62596e-05
1.61496e-05
1.60681e-05
1.59688e-05
1.588e-05
1.57975e-05
1.57081e-05
1.56268e-05
1.55516e-05
1.54582e-05
1.54009e-05
1.53175e-05
1.52469e-05
1.51801e-05
1.51166e-05
1.5042e-05
1.49945e-05
1.49294e-05
1.48662e-05
1.481e-05
1.47682e-05
1.47095e-05
1.46541e-05
1.45992e-05
1.45494e-05
1.99999e-05
1.9826e-05
1.94478e-05
1.91798e-05
1.89653e-05
1.88346e-05
1.86526e-05
1.84944e-05
1.83477e-05
1.82185e-05
1.80738e-05
1.79428e-05
1.77983e-05
1.76695e-05
1.75325e-05
1.74066e-05
1.72738e-05
1.71553e-05
1.70278e-05
1.69138e-05
1.67944e-05
1.66855e-05
1.65709e-05
1.64732e-05
1.63626e-05
1.62727e-05
1.6163e-05
1.60832e-05
1.59819e-05
1.58971e-05
1.58108e-05
1.57257e-05
1.56434e-05
1.55668e-05
1.54768e-05
1.54191e-05
1.53326e-05
1.52664e-05
1.5199e-05
1.51326e-05
1.50606e-05
1.50133e-05
1.49435e-05
1.4882e-05
1.48277e-05
1.47819e-05
1.4718e-05
1.46622e-05
1.46053e-05
1.4553e-05
1.99999e-05
1.98274e-05
1.9454e-05
1.91767e-05
1.89588e-05
1.88332e-05
1.86579e-05
1.85003e-05
1.83531e-05
1.82256e-05
1.80843e-05
1.79555e-05
1.78117e-05
1.76853e-05
1.75491e-05
1.74247e-05
1.72934e-05
1.7176e-05
1.70489e-05
1.69366e-05
1.68181e-05
1.67097e-05
1.65962e-05
1.64995e-05
1.63901e-05
1.63004e-05
1.61929e-05
1.61141e-05
1.60115e-05
1.59318e-05
1.58412e-05
1.57624e-05
1.56773e-05
1.56013e-05
1.55149e-05
1.54562e-05
1.53673e-05
1.53063e-05
1.52368e-05
1.51686e-05
1.50998e-05
1.50506e-05
1.49762e-05
1.49183e-05
1.4864e-05
1.48121e-05
1.47441e-05
1.46888e-05
1.46293e-05
1.45718e-05
1.99999e-05
1.98293e-05
1.94618e-05
1.91773e-05
1.89548e-05
1.88333e-05
1.86659e-05
1.85107e-05
1.83632e-05
1.82378e-05
1.81001e-05
1.79739e-05
1.78314e-05
1.77077e-05
1.7573e-05
1.74507e-05
1.73211e-05
1.72053e-05
1.70794e-05
1.69692e-05
1.68517e-05
1.67448e-05
1.66332e-05
1.65374e-05
1.64297e-05
1.6341e-05
1.62365e-05
1.61583e-05
1.60555e-05
1.59806e-05
1.58874e-05
1.58144e-05
1.57263e-05
1.56534e-05
1.55692e-05
1.55098e-05
1.54202e-05
1.53638e-05
1.52912e-05
1.52235e-05
1.51576e-05
1.51044e-05
1.50277e-05
1.49741e-05
1.49173e-05
1.48586e-05
1.47885e-05
1.47337e-05
1.467e-05
1.46054e-05
1.99999e-05
1.98316e-05
1.94712e-05
1.91812e-05
1.89535e-05
1.88348e-05
1.86759e-05
1.85248e-05
1.83768e-05
1.8254e-05
1.81202e-05
1.79969e-05
1.78565e-05
1.77359e-05
1.76031e-05
1.74836e-05
1.73561e-05
1.72422e-05
1.71182e-05
1.70104e-05
1.68941e-05
1.67896e-05
1.66801e-05
1.65857e-05
1.64797e-05
1.63932e-05
1.62914e-05
1.62144e-05
1.61122e-05
1.60419e-05
1.59477e-05
1.58793e-05
1.57893e-05
1.57204e-05
1.56377e-05
1.55783e-05
1.54888e-05
1.54365e-05
1.53604e-05
1.52949e-05
1.52307e-05
1.51726e-05
1.5096e-05
1.50462e-05
1.49836e-05
1.49196e-05
1.48496e-05
1.47938e-05
1.47237e-05
1.46511e-05
1.99999e-05
1.98343e-05
1.94814e-05
1.91886e-05
1.89552e-05
1.8838e-05
1.86875e-05
1.85422e-05
1.8394e-05
1.8274e-05
1.81438e-05
1.80238e-05
1.78862e-05
1.77691e-05
1.76385e-05
1.75223e-05
1.73971e-05
1.72855e-05
1.71639e-05
1.70588e-05
1.69441e-05
1.68426e-05
1.67355e-05
1.66426e-05
1.65389e-05
1.64552e-05
1.63562e-05
1.62803e-05
1.61802e-05
1.61138e-05
1.60201e-05
1.59555e-05
1.58645e-05
1.58005e-05
1.57183e-05
1.56595e-05
1.55711e-05
1.5522e-05
1.54422e-05
1.53808e-05
1.53163e-05
1.52534e-05
1.51795e-05
1.51311e-05
1.50606e-05
1.49941e-05
1.4925e-05
1.48659e-05
1.47876e-05
1.47078e-05
1.99999e-05
1.98373e-05
1.94924e-05
1.91986e-05
1.89597e-05
1.88431e-05
1.87001e-05
1.85626e-05
1.84144e-05
1.82974e-05
1.81705e-05
1.80541e-05
1.792e-05
1.78065e-05
1.76784e-05
1.75658e-05
1.7443e-05
1.73342e-05
1.72152e-05
1.7113e-05
1.70003e-05
1.69022e-05
1.67976e-05
1.67066e-05
1.6606e-05
1.65251e-05
1.6429e-05
1.63544e-05
1.62576e-05
1.61948e-05
1.6102e-05
1.60413e-05
1.59496e-05
1.58915e-05
1.58088e-05
1.5751e-05
1.56652e-05
1.56177e-05
1.55348e-05
1.54787e-05
1.54116e-05
1.53451e-05
1.52754e-05
1.52254e-05
1.51465e-05
1.50804e-05
1.50115e-05
1.49464e-05
1.48597e-05
1.47754e-05
1.99999e-05
1.98405e-05
1.9504e-05
1.92105e-05
1.89674e-05
1.88501e-05
1.87134e-05
1.85849e-05
1.84374e-05
1.83234e-05
1.81993e-05
1.8087e-05
1.79569e-05
1.78471e-05
1.77216e-05
1.76131e-05
1.74928e-05
1.7387e-05
1.7271e-05
1.71717e-05
1.70615e-05
1.69669e-05
1.68649e-05
1.67761e-05
1.66792e-05
1.6601e-05
1.65078e-05
1.64349e-05
1.63422e-05
1.62827e-05
1.61914e-05
1.61344e-05
1.60431e-05
1.59905e-05
1.59071e-05
1.58509e-05
1.5768e-05
1.5721e-05
1.56365e-05
1.55853e-05
1.55137e-05
1.54466e-05
1.53803e-05
1.53258e-05
1.52404e-05
1.51761e-05
1.51052e-05
1.50324e-05
1.49387e-05
1.48535e-05
1.99999e-05
1.98439e-05
1.95158e-05
1.92241e-05
1.89778e-05
1.88589e-05
1.8727e-05
1.86086e-05
1.84625e-05
1.83516e-05
1.82298e-05
1.8122e-05
1.79963e-05
1.78901e-05
1.77674e-05
1.7663e-05
1.75454e-05
1.74428e-05
1.73298e-05
1.72336e-05
1.71262e-05
1.70352e-05
1.69358e-05
1.68497e-05
1.67567e-05
1.66809e-05
1.65907e-05
1.65202e-05
1.64322e-05
1.63756e-05
1.62861e-05
1.62327e-05
1.61427e-05
1.60952e-05
1.60105e-05
1.59575e-05
1.58766e-05
1.583e-05
1.57449e-05
1.56976e-05
1.56207e-05
1.55559e-05
1.54908e-05
1.54291e-05
1.53411e-05
1.52789e-05
1.52024e-05
1.51219e-05
1.50238e-05
1.49394e-05
1.99999e-05
1.98474e-05
1.95275e-05
1.92389e-05
1.8991e-05
1.88694e-05
1.87411e-05
1.86329e-05
1.84893e-05
1.83814e-05
1.82615e-05
1.81585e-05
1.80373e-05
1.79349e-05
1.78151e-05
1.77146e-05
1.75997e-05
1.75007e-05
1.73906e-05
1.72977e-05
1.71933e-05
1.71057e-05
1.70089e-05
1.69261e-05
1.68368e-05
1.67632e-05
1.66763e-05
1.66088e-05
1.65257e-05
1.64714e-05
1.63842e-05
1.63344e-05
1.62464e-05
1.6203e-05
1.61173e-05
1.60688e-05
1.59882e-05
1.59428e-05
1.58576e-05
1.58128e-05
1.57309e-05
1.56702e-05
1.56036e-05
1.55341e-05
1.54467e-05
1.53855e-05
1.53e-05
1.52133e-05
1.51141e-05
1.50296e-05
1.99999e-05
1.98509e-05
1.95392e-05
1.92546e-05
1.90064e-05
1.88815e-05
1.87556e-05
1.86573e-05
1.8517e-05
1.84124e-05
1.8294e-05
1.81962e-05
1.80793e-05
1.79806e-05
1.78638e-05
1.77674e-05
1.76551e-05
1.75596e-05
1.74525e-05
1.7363e-05
1.72614e-05
1.71771e-05
1.70833e-05
1.70039e-05
1.69179e-05
1.68464e-05
1.67631e-05
1.66991e-05
1.66207e-05
1.65684e-05
1.64842e-05
1.64376e-05
1.63529e-05
1.63108e-05
1.62269e-05
1.6182e-05
1.61006e-05
1.60573e-05
1.59725e-05
1.59287e-05
1.5843e-05
1.5787e-05
1.57156e-05
1.56405e-05
1.55552e-05
1.54921e-05
1.53966e-05
1.53062e-05
1.52071e-05
1.51196e-05
1.99999e-05
1.98543e-05
1.95506e-05
1.92707e-05
1.90236e-05
1.88948e-05
1.87705e-05
1.86813e-05
1.85451e-05
1.84442e-05
1.83272e-05
1.82344e-05
1.81216e-05
1.80268e-05
1.7913e-05
1.78205e-05
1.77107e-05
1.76188e-05
1.75146e-05
1.74286e-05
1.73296e-05
1.72486e-05
1.71578e-05
1.7082e-05
1.69987e-05
1.69295e-05
1.68501e-05
1.67899e-05
1.67157e-05
1.66649e-05
1.65846e-05
1.65409e-05
1.64595e-05
1.64187e-05
1.63368e-05
1.62946e-05
1.62132e-05
1.61715e-05
1.60878e-05
1.60434e-05
1.59554e-05
1.59034e-05
1.58251e-05
1.57477e-05
1.56644e-05
1.55956e-05
1.54915e-05
1.54e-05
1.52997e-05
1.52049e-05
1.99999e-05
1.98577e-05
1.95617e-05
1.9287e-05
1.9042e-05
1.89092e-05
1.87859e-05
1.87044e-05
1.85731e-05
1.84764e-05
1.83606e-05
1.82729e-05
1.81637e-05
1.80729e-05
1.79622e-05
1.78735e-05
1.77661e-05
1.76777e-05
1.75763e-05
1.74937e-05
1.7397e-05
1.73194e-05
1.72316e-05
1.71591e-05
1.70781e-05
1.70114e-05
1.69363e-05
1.68796e-05
1.68092e-05
1.67599e-05
1.66841e-05
1.66431e-05
1.65645e-05
1.6525e-05
1.64456e-05
1.6405e-05
1.63251e-05
1.62839e-05
1.62008e-05
1.6156e-05
1.60669e-05
1.60171e-05
1.59313e-05
1.58543e-05
1.57714e-05
1.56944e-05
1.55839e-05
1.54938e-05
1.53896e-05
1.52832e-05
1.99999e-05
1.9861e-05
1.95722e-05
1.93033e-05
1.9061e-05
1.89245e-05
1.88017e-05
1.87265e-05
1.86008e-05
1.85086e-05
1.83942e-05
1.83112e-05
1.82051e-05
1.81186e-05
1.8011e-05
1.79258e-05
1.78206e-05
1.77356e-05
1.7637e-05
1.75575e-05
1.74631e-05
1.7389e-05
1.73038e-05
1.72343e-05
1.71554e-05
1.70916e-05
1.70208e-05
1.69672e-05
1.69002e-05
1.68527e-05
1.67816e-05
1.67427e-05
1.66669e-05
1.66287e-05
1.65522e-05
1.65127e-05
1.64346e-05
1.63936e-05
1.63107e-05
1.62656e-05
1.61757e-05
1.61262e-05
1.60342e-05
1.59592e-05
1.58742e-05
1.57881e-05
1.56738e-05
1.55853e-05
1.54733e-05
1.53548e-05
1.99999e-05
1.98641e-05
1.95821e-05
1.93194e-05
1.90798e-05
1.89406e-05
1.88178e-05
1.87475e-05
1.86278e-05
1.85405e-05
1.84277e-05
1.83491e-05
1.82456e-05
1.81638e-05
1.80592e-05
1.79772e-05
1.78741e-05
1.77925e-05
1.76962e-05
1.76197e-05
1.75277e-05
1.74569e-05
1.73738e-05
1.7307e-05
1.72302e-05
1.71696e-05
1.71026e-05
1.70516e-05
1.69879e-05
1.69426e-05
1.68762e-05
1.68389e-05
1.67658e-05
1.6729e-05
1.66554e-05
1.66169e-05
1.65403e-05
1.64994e-05
1.64166e-05
1.63713e-05
1.62806e-05
1.62304e-05
1.61333e-05
1.60608e-05
1.59708e-05
1.58768e-05
1.57616e-05
1.56717e-05
1.55486e-05
1.54211e-05
1.99999e-05
1.98671e-05
1.95913e-05
1.93353e-05
1.90981e-05
1.89574e-05
1.8834e-05
1.87674e-05
1.8654e-05
1.85715e-05
1.84609e-05
1.83864e-05
1.8285e-05
1.82083e-05
1.81064e-05
1.80273e-05
1.79262e-05
1.7848e-05
1.77537e-05
1.768e-05
1.75904e-05
1.75226e-05
1.74411e-05
1.73768e-05
1.73022e-05
1.72449e-05
1.71809e-05
1.71326e-05
1.70721e-05
1.70292e-05
1.69671e-05
1.69308e-05
1.68609e-05
1.68256e-05
1.67547e-05
1.6717e-05
1.66414e-05
1.66007e-05
1.65181e-05
1.64725e-05
1.6381e-05
1.63296e-05
1.62282e-05
1.6158e-05
1.60601e-05
1.59611e-05
1.58462e-05
1.57511e-05
1.56162e-05
1.54836e-05
1.99999e-05
1.98698e-05
1.95998e-05
1.93505e-05
1.91155e-05
1.89747e-05
1.88501e-05
1.87865e-05
1.86792e-05
1.86014e-05
1.84937e-05
1.84229e-05
1.83235e-05
1.8252e-05
1.81524e-05
1.80761e-05
1.79769e-05
1.79021e-05
1.78093e-05
1.77383e-05
1.76511e-05
1.75857e-05
1.75052e-05
1.74436e-05
1.73711e-05
1.7317e-05
1.72555e-05
1.72097e-05
1.71524e-05
1.71118e-05
1.70536e-05
1.70182e-05
1.69518e-05
1.69179e-05
1.68495e-05
1.68123e-05
1.67377e-05
1.6697e-05
1.66148e-05
1.65689e-05
1.64764e-05
1.64237e-05
1.63183e-05
1.62498e-05
1.61428e-05
1.60407e-05
1.59258e-05
1.58233e-05
1.56774e-05
1.55433e-05
1.99999e-05
1.98724e-05
1.96078e-05
1.93648e-05
1.91319e-05
1.89919e-05
1.88661e-05
1.88047e-05
1.87032e-05
1.86301e-05
1.85259e-05
1.84585e-05
1.83612e-05
1.82945e-05
1.8197e-05
1.81235e-05
1.80262e-05
1.79546e-05
1.7863e-05
1.77947e-05
1.77095e-05
1.76461e-05
1.75663e-05
1.75073e-05
1.74367e-05
1.73855e-05
1.7326e-05
1.72829e-05
1.72285e-05
1.71903e-05
1.71355e-05
1.7101e-05
1.70383e-05
1.70058e-05
1.69393e-05
1.69025e-05
1.68288e-05
1.67884e-05
1.67066e-05
1.66602e-05
1.65666e-05
1.65125e-05
1.64034e-05
1.63352e-05
1.62197e-05
1.61159e-05
1.59993e-05
1.58876e-05
1.57327e-05
1.55999e-05
1.99999e-05
1.98748e-05
1.96154e-05
1.93775e-05
1.91476e-05
1.90084e-05
1.8882e-05
1.88221e-05
1.87256e-05
1.86576e-05
1.8557e-05
1.84932e-05
1.83982e-05
1.83357e-05
1.824e-05
1.81697e-05
1.80739e-05